/*--------------------------------*- C++ -*----------------------------------*\
| =========                 |                                                 |
| \\      /  F ield         | OpenFOAM: The Open Source CFD Toolbox           |
|  \\    /   O peration     | Version:  4.0                                   |
|   \\  /    A nd           | Web:      www.OpenFOAM.org                      |
|    \\/     M anipulation  |                                                 |
\*---------------------------------------------------------------------------*/
FoamFile
{
    version     2.0;
    format      ascii;
    class       volScalarField;
    location    "23";
    object      p;
}
// * * * * * * * * * * * * * * * * * * * * * * * * * * * * * * * * * * * * * //

dimensions      [0 2 -2 0 0 0 0];

internalField   nonuniform List<scalar> 
2200
(
0.405737
0.384241
0.368339
0.352675
0.338072
0.325569
0.315216
0.30711
0.301375
0.298369
0.298681
0.302257
0.308421
0.316825
0.327393
0.340053
0.354759
0.370501
0.386449
0.407964
0.338139
0.334881
0.331969
0.32787
0.322433
0.315981
0.309375
0.303404
0.29883
0.296354
0.296671
0.299758
0.304769
0.311069
0.317908
0.324521
0.330078
0.334246
0.337192
0.340475
0.298202
0.298433
0.300512
0.301883
0.302302
0.301465
0.299519
0.296869
0.294292
0.292665
0.293041
0.295309
0.298365
0.30137
0.303564
0.304563
0.304254
0.303038
0.301091
0.300871
0.275781
0.277239
0.279871
0.282354
0.284793
0.286826
0.287981
0.288202
0.287824
0.287396
0.287822
0.288968
0.289902
0.290098
0.289254
0.287452
0.285191
0.282817
0.280219
0.278788
0.261494
0.263475
0.266311
0.269161
0.272049
0.274897
0.277326
0.279132
0.280255
0.280854
0.281347
0.281601
0.281137
0.279818
0.277755
0.275174
0.272467
0.269713
0.266937
0.264975
0.254126
0.255698
0.257935
0.260553
0.263298
0.26599
0.268581
0.271012
0.272959
0.274263
0.274855
0.274586
0.27343
0.271579
0.269414
0.267031
0.264507
0.262029
0.259869
0.258306
0.250981
0.251966
0.253276
0.255223
0.257437
0.259636
0.261803
0.264052
0.266204
0.267923
0.268623
0.268158
0.266968
0.265449
0.263783
0.261977
0.260042
0.258288
0.257073
0.256089
0.248867
0.249529
0.250227
0.251614
0.253311
0.255036
0.256722
0.258479
0.26029
0.261954
0.2628
0.262664
0.262023
0.261147
0.260111
0.258855
0.2575
0.256345
0.255761
0.255096
0.245988
0.246411
0.24693
0.248202
0.249756
0.251371
0.25297
0.254517
0.25605
0.257506
0.25859
0.259039
0.258956
0.258488
0.257684
0.256607
0.255455
0.25445
0.254053
0.253628
0.242417
0.242607
0.243109
0.244439
0.246053
0.247811
0.249639
0.25142
0.253096
0.25464
0.255985
0.256774
0.256877
0.256423
0.255541
0.254509
0.253396
0.252397
0.252024
0.25184
0.239042
0.239088
0.239537
0.240672
0.24209
0.243739
0.245613
0.247644
0.249723
0.25173
0.253365
0.254263
0.254344
0.253961
0.253308
0.252536
0.251684
0.250939
0.250657
0.250609
0.235806
0.235753
0.236135
0.236928
0.238025
0.239374
0.240963
0.242858
0.2451
0.247516
0.249592
0.250887
0.251477
0.251606
0.251478
0.251133
0.250752
0.250419
0.250264
0.250262
0.232327
0.232229
0.23258
0.233165
0.234113
0.235308
0.236724
0.238505
0.240715
0.24335
0.245946
0.247938
0.249298
0.250063
0.250401
0.250486
0.250475
0.250401
0.250338
0.250333
0.228553
0.228518
0.228797
0.229377
0.230362
0.231657
0.233258
0.235284
0.237758
0.240769
0.24392
0.246467
0.248262
0.249399
0.250101
0.250526
0.250709
0.250768
0.250774
0.250775
0.224301
0.224296
0.224544
0.225149
0.226194
0.227614
0.229504
0.231964
0.235024
0.238761
0.242676
0.245822
0.248001
0.249533
0.250603
0.251265
0.251605
0.251783
0.251841
0.251836
0.219111
0.219077
0.219368
0.220033
0.2211
0.222591
0.224678
0.22752
0.231231
0.235897
0.240871
0.24496
0.247865
0.249942
0.25141
0.252375
0.25299
0.253364
0.253499
0.25348
0.212924
0.212885
0.213185
0.213865
0.215004
0.216679
0.219069
0.222359
0.226784
0.232481
0.238721
0.243972
0.247839
0.250616
0.252626
0.254001
0.254911
0.255442
0.255639
0.255604
0.205345
0.205305
0.20567
0.206529
0.20796
0.210047
0.212998
0.217062
0.222504
0.229501
0.237209
0.243768
0.248642
0.252161
0.254659
0.256368
0.257512
0.25817
0.258431
0.258389
0.196429
0.196371
0.19682
0.197902
0.199722
0.202392
0.206155
0.211298
0.218145
0.226872
0.236359
0.244412
0.250348
0.254637
0.25767
0.259763
0.26114
0.261917
0.262223
0.262168
0.185544
0.185502
0.18611
0.187515
0.189835
0.193218
0.197978
0.204505
0.213149
0.224058
0.235765
0.245617
0.25286
0.258084
0.261765
0.264307
0.265975
0.266917
0.267297
0.26723
0.172322
0.17223
0.172989
0.174783
0.177759
0.18211
0.188232
0.196562
0.207468
0.221054
0.235434
0.247427
0.256228
0.262581
0.267083
0.270205
0.27227
0.273435
0.273879
0.273781
0.155814
0.155783
0.156868
0.159206
0.163091
0.168809
0.176774
0.187478
0.201272
0.218108
0.23563
0.25012
0.260744
0.268414
0.273862
0.277645
0.280126
0.281518
0.282058
0.281943
0.134985
0.134902
0.136391
0.139648
0.14498
0.152722
0.1633
0.177241
0.194687
0.215429
0.236612
0.253944
0.266615
0.275775
0.282299
0.28687
0.289922
0.291638
0.292267
0.292092
0.107537
0.107754
0.110125
0.114863
0.122464
0.133304
0.147672
0.165832
0.187781
0.213146
0.238474
0.258949
0.273873
0.284719
0.292549
0.298086
0.301762
0.303787
0.30452
0.304313
0.0709987
0.0714739
0.0754355
0.0831154
0.0946071
0.110311
0.129788
0.153311
0.180703
0.211364
0.241279
0.265193
0.282615
0.295326
0.304582
0.311246
0.315791
0.318352
0.319234
0.318883
0.0219298
0.0224989
0.0300511
0.0432143
0.0612334
0.0836459
0.109914
0.140133
0.173868
0.21043
0.245282
0.272783
0.292801
0.307538
0.318443
0.326443
0.331967
0.334965
0.335838
0.335396
-0.0443448
-0.0411291
-0.0248953
-0.0026481
0.0241656
0.0548463
0.0890584
0.126781
0.16754
0.210749
0.251198
0.283032
0.30649
0.324032
0.337288
0.347351
0.354693
0.358565
0.359516
0.359249
-0.121172
-0.110048
-0.0823886
-0.050271
-0.0137758
0.0257782
0.0681497
0.113598
0.16173
0.212028
0.258795
0.295792
0.32335
0.344408
0.360775
0.373511
0.383428
0.389146
0.3914
0.391743
-0.187606
-0.171118
-0.136554
-0.0961899
-0.0506405
-0.00255282
0.0479065
0.10109
0.156542
0.213747
0.266526
0.308199
0.339257
0.363182
0.38193
0.396569
0.40771
0.414775
0.417414
0.417494
-0.23686
-0.222436
-0.182729
-0.136656
-0.0841475
-0.0289754
0.0288003
0.0891951
0.151493
0.215104
0.273311
0.318922
0.352908
0.37887
0.399162
0.414937
0.42667
0.433782
0.436468
0.436702
-0.27751
-0.26399
-0.221125
-0.17133
-0.113662
-0.0528356
0.0111333
0.0777736
0.146168
0.21569
0.278931
0.328171
0.36434
0.391519
0.412253
0.428205
0.440174
0.447566
0.450495
0.450783
-0.312543
-0.298751
-0.253688
-0.201337
-0.139645
-0.0742614
-0.00518
0.0667728
0.140625
0.21564
0.283398
0.335364
0.372884
0.400725
0.421995
0.438278
0.450511
0.458114
0.461237
0.46151
-0.343131
-0.329263
-0.282316
-0.227766
-0.162793
-0.0937044
-0.0203783
0.0561731
0.134922
0.214712
0.286285
0.34053
0.379535
0.408287
0.429802
0.446192
0.458541
0.466279
0.469687
0.469779
-0.370796
-0.35694
-0.308313
-0.251515
-0.183697
-0.111608
-0.034732
0.0457788
0.128772
0.212747
0.287979
0.344979
0.385398
0.41485
0.436922
0.453572
0.465767
0.473701
0.476598
0.476526
-0.396127
-0.382406
-0.332423
-0.273382
-0.202997
-0.128389
-0.0485215
0.0353926
0.122122
0.210157
0.289248
0.348828
0.39063
0.421121
0.443605
0.460287
0.472417
0.480064
0.483109
0.483155
-0.42002
-0.40597
-0.355039
-0.294009
-0.221288
-0.144434
-0.0619642
0.0249164
0.115052
0.206944
0.289845
0.35228
0.396273
0.427511
0.450297
0.46702
0.479116
0.486685
0.489704
0.489844
-0.442506
-0.428257
-0.37666
-0.313859
-0.23908
-0.160091
-0.0752279
0.0143222
0.10761
0.203148
0.289944
0.355681
0.401418
0.433743
0.45708
0.474066
0.486159
0.493483
0.496584
0.496736
-0.463728
-0.449509
-0.39741
-0.333198
-0.256694
-0.175653
-0.0884951
0.00353481
0.0997195
0.198787
0.289504
0.358457
0.406268
0.440018
0.464022
0.481218
0.493438
0.500763
0.503668
0.503784
-0.484169
-0.469817
-0.417391
-0.352058
-0.274176
-0.191257
-0.101931
-0.0075741
0.0912975
0.193661
0.288085
0.3603
0.411119
0.446614
0.471429
0.488867
0.501008
0.50801
0.510894
0.510939
-0.504334
-0.489406
-0.436704
-0.370404
-0.29143
-0.206902
-0.115637
-0.019109
0.0822461
0.187613
0.28572
0.361708
0.415651
0.453265
0.479276
0.497022
0.508966
0.515834
0.518335
0.518241
-0.524218
-0.508476
-0.455452
-0.388227
-0.308356
-0.22251
-0.129603
-0.0311559
0.0724137
0.180388
0.281797
0.361811
0.419428
0.460171
0.487874
0.506105
0.517488
0.523472
0.525674
0.525487
-0.543646
-0.527151
-0.473699
-0.405538
-0.32488
-0.237983
-0.143753
-0.0437073
0.0617573
0.172114
0.277072
0.361466
0.42311
0.467158
0.497342
0.516319
0.526867
0.531685
0.532989
0.532627
-0.562432
-0.545414
-0.491463
-0.422367
-0.340973
-0.253223
-0.157945
-0.0565963
0.0505521
0.16335
0.271458
0.359432
0.425403
0.473887
0.50757
0.528561
0.538499
0.539721
0.539022
0.539305
-0.580554
-0.563169
-0.50871
-0.438735
-0.356633
-0.268151
-0.172026
-0.0696021
0.0390532
0.15371
0.263865
0.355469
0.426354
0.479749
0.518283
0.542879
0.553673
0.551123
0.545845
0.543419
-0.597987
-0.580309
-0.525378
-0.454623
-0.371856
-0.28271
-0.185857
-0.0825311
0.0272546
0.143269
0.255669
0.350902
0.425666
0.48452
0.529142
0.559613
0.575638
0.56773
0.561846
0.566708
-0.614747
-0.596781
-0.541406
-0.469983
-0.386617
-0.29686
-0.199371
-0.0953544
0.0152718
0.132565
0.246661
0.343632
0.422386
0.486952
0.538421
0.577077
0.6029
0.587509
0.54288
0.496759
-0.630771
-0.612583
-0.556811
-0.484865
-0.401029
-0.310782
-0.212823
-0.108343
0.0028805
0.120956
0.235975
0.33458
0.416259
0.485692
0.544691
0.59405
0.635191
0.649502
0.670445
0.720883
-0.646023
-0.627786
-0.571684
-0.499389
-0.415269
-0.324738
-0.226532
-0.121843
-0.0104422
0.107954
0.223553
0.322766
0.40597
0.478816
0.5407
0.591176
0.624745
0.631858
0.606776
0.614092
-0.660466
-0.642345
-0.585977
-0.513492
-0.429247
-0.338635
-0.240403
-0.135797
-0.0245428
0.0936984
0.209181
0.308032
0.390245
0.461973
0.52202
0.566984
0.57265
0.53478
0.480101
0.47178
-0.674133
-0.656274
-0.599701
-0.527172
-0.442944
-0.352456
-0.254414
-0.150111
-0.0393446
0.0781369
0.192783
0.290248
0.369104
0.434617
0.487312
0.505649
0.477044
0.409181
0.338766
0.327683
-0.687058
-0.669553
-0.61287
-0.54045
-0.456368
-0.366175
-0.268501
-0.164747
-0.0548205
0.0615204
0.174598
0.269245
0.341909
0.394273
0.422868
0.41424
0.367474
0.267998
0.181627
0.165139
-0.699702
-0.68261
-0.62589
-0.553696
-0.469853
-0.380069
-0.28291
-0.179911
-0.0710861
0.0434518
0.153895
0.244549
0.310068
0.347171
0.341126
0.306158
0.202204
0.080333
-0.0269852
-0.0498539
-0.712936
-0.696194
-0.639435
-0.567522
-0.483964
-0.394599
-0.298009
-0.195889
-0.0884553
0.0238744
0.131079
0.216371
0.274007
0.289036
0.249424
0.163004
0.00413428
-0.149753
-0.277926
-0.302874
-0.727255
-0.710763
-0.653827
-0.582159
-0.498879
-0.409888
-0.313905
-0.212786
-0.106923
0.00280438
0.10569
0.185904
0.233585
0.220139
0.156659
0.00379517
-0.204898
-0.424406
-0.608278
-0.654522
-0.742713
-0.726321
-0.66909
-0.597615
-0.514579
-0.425929
-0.330561
-0.230491
-0.126352
-0.0196234
0.0780305
0.152542
0.185854
0.139084
0.040812
-0.160138
-0.407745
-0.713192
-1.0484
-1.19037
-0.759362
-0.743045
-0.685335
-0.613966
-0.531104
-0.442767
-0.348043
-0.249131
-0.146892
-0.0434148
0.0489328
0.116758
0.132426
0.0525223
-0.0979451
-0.32564
-0.582839
-0.953317
-1.57032
-2.15776
-0.77719
-0.760856
-0.702583
-0.63125
-0.548465
-0.460408
-0.366313
-0.268544
-0.168152
-0.0679035
0.0187879
0.0791672
0.0774855
-0.0283534
-0.235879
-0.499621
-0.730201
-0.99904
-1.6101
-3.23246
-0.796287
-0.77991
-0.720931
-0.649578
-0.566784
-0.478985
-0.385535
-0.288972
-0.190586
-0.0939053
-0.0132588
0.0379195
0.0182395
-0.0929466
-0.340919
-0.618322
-0.794453
-0.858906
-0.885642
-1.30011
-0.81654
-0.800128
-0.740512
-0.669215
-0.586409
-0.498944
-0.406284
-0.311144
-0.215038
-0.122259
-0.0474151
-0.00626362
-0.0451264
-0.144357
-0.399146
-0.644579
-0.783102
-0.808426
-0.764062
-0.811977
-0.837957
-0.821479
-0.761345
-0.6902
-0.607352
-0.520324
-0.428584
-0.335033
-0.241505
-0.15311
-0.083391
-0.0511201
-0.102812
-0.197552
-0.437451
-0.63914
-0.74602
-0.761552
-0.802325
-0.817608
-0.860362
-0.843581
-0.783374
-0.71251
-0.629558
-0.543098
-0.452442
-0.360711
-0.270145
-0.186421
-0.121606
-0.0987037
-0.156213
-0.258179
-0.474494
-0.638934
-0.730146
-0.697136
-0.723307
-0.725207
-0.88351
-0.86636
-0.806507
-0.735999
-0.652831
-0.567136
-0.47766
-0.387852
-0.300488
-0.221482
-0.160953
-0.148937
-0.206029
-0.329052
-0.514544
-0.64046
-0.71112
-0.734796
-0.721754
-0.729141
-0.906823
-0.889484
-0.830663
-0.760408
-0.676942
-0.592174
-0.503955
-0.416104
-0.332259
-0.258029
-0.201146
-0.202619
-0.250738
-0.39703
-0.561572
-0.65787
-0.670007
-0.732804
-0.698656
-0.709194
-0.93
-0.912721
-0.85531
-0.785095
-0.701536
-0.617905
-0.530921
-0.445064
-0.364957
-0.295403
-0.241152
-0.255624
-0.305042
-0.459128
-0.593297
-0.681736
-0.654119
-0.70316
-0.687736
-0.690462
-0.952505
-0.935677
-0.879504
-0.8096
-0.726315
-0.643816
-0.557979
-0.47399
-0.397545
-0.332809
-0.279445
-0.302298
-0.369512
-0.513627
-0.605088
-0.672758
-0.693245
-0.68055
-0.692197
-0.689802
-0.973719
-0.957592
-0.902461
-0.832936
-0.750764
-0.669246
-0.584417
-0.502153
-0.428828
-0.369483
-0.316451
-0.344936
-0.443971
-0.592198
-0.620806
-0.603415
-0.682201
-0.663826
-0.690449
-0.693485
-0.992701
-0.977616
-0.923673
-0.854681
-0.774263
-0.693271
-0.609358
-0.528773
-0.457837
-0.404329
-0.35313
-0.37855
-0.519578
-0.698319
-0.700859
-0.579374
-0.623804
-0.648111
-0.678781
-0.689953
-1.00845
-0.994653
-0.942309
-0.874054
-0.7955
-0.714844
-0.63201
-0.552717
-0.483106
-0.435139
-0.387205
-0.401257
-0.595431
-0.842482
-0.942774
-0.922005
-0.928746
-0.918905
-0.908341
-0.896352
-1.0199
-1.00775
-0.957648
-0.89049
-0.813314
-0.733036
-0.65117
-0.572765
-0.502896
-0.458694
-0.419355
-0.419752
-0.652346
-1.00463
-1.40282
-1.6357
-1.6925
-1.64554
-1.56625
-1.49005
-1.0261
-1.01577
-0.968562
-0.90264
-0.826276
-0.746566
-0.665511
-0.587753
-0.516609
-0.469504
-0.443893
-0.427377
-0.666507
-1.05653
-1.60604
-1.97364
-2.04479
-1.95327
-1.85254
-1.77025
-1.0259
-1.01733
-0.97363
-0.909203
-0.833557
-0.754421
-0.673751
-0.595805
-0.521979
-0.46638
-0.442915
-0.418946
-0.591894
-0.841846
-1.16281
-1.34813
-1.32685
-1.24302
-1.10361
-1.02584
-1.01835
-1.01117
-0.971495
-0.90891
-0.834389
-0.75576
-0.674636
-0.594958
-0.517067
-0.450373
-0.413909
-0.346971
-0.367837
-0.274
-0.167414
-0.0705663
0.0574969
0.160275
0.228587
0.281587
-1.00121
-0.994409
-0.960424
-0.900709
-0.827751
-0.749649
-0.667716
-0.585503
-0.502361
-0.417878
-0.357674
-0.231558
-0.0728315
0.260001
0.632877
0.925439
1.13916
1.27653
1.34333
1.36599
-0.970883
-0.964376
-0.938783
-0.884443
-0.813897
-0.736733
-0.654336
-0.568872
-0.481033
-0.37591
-0.282753
-0.147027
0.145241
0.556606
0.988616
1.34715
1.61157
1.76864
1.83703
1.85542
-0.927255
-0.922677
-0.907926
-0.860368
-0.793139
-0.717606
-0.635972
-0.548194
-0.456848
-0.343748
-0.226908
-0.117542
0.167772
0.530222
0.918868
1.25329
1.51143
1.6706
1.74356
1.76442
-0.882236
-0.881207
-0.873363
-0.83056
-0.767083
-0.693925
-0.615398
-0.52864
-0.43768
-0.335879
-0.218164
-0.141318
0.0531823
0.342973
0.654561
0.915971
1.12601
1.26313
1.33115
1.35536
-0.839374
-0.842106
-0.833035
-0.795779
-0.737092
-0.668553
-0.595048
-0.514461
-0.43066
-0.343614
-0.236096
-0.171797
-0.057243
0.165541
0.409241
0.600403
0.751791
0.858796
0.910536
0.928239
-0.775845
-0.779517
-0.772429
-0.745596
-0.696469
-0.637556
-0.573232
-0.503958
-0.428105
-0.351549
-0.253721
-0.190071
-0.123917
0.0372297
0.228808
0.370433
0.4766
0.554669
0.588468
0.595259
-0.691723
-0.693583
-0.690284
-0.674156
-0.639888
-0.596841
-0.546695
-0.490868
-0.423051
-0.356103
-0.268023
-0.2013
-0.162924
-0.0567116
0.0909923
0.183488
0.256065
0.306008
0.327742
0.333701
-0.606791
-0.607721
-0.605718
-0.596705
-0.576868
-0.549375
-0.514662
-0.47407
-0.419115
-0.356264
-0.278286
-0.205358
-0.181835
-0.111457
-0.000915856
0.0465041
0.101203
0.13425
0.148993
0.154287
-0.536151
-0.536675
-0.535346
-0.530785
-0.521021
-0.505463
-0.483384
-0.456013
-0.41663
-0.358079
-0.287397
-0.220277
-0.181668
-0.153427
-0.0730915
-0.042164
-0.00683375
0.0186607
0.0311894
0.0360513
-0.491299
-0.491128
-0.490417
-0.488455
-0.483763
-0.475298
-0.461571
-0.441114
-0.409973
-0.370924
-0.305586
-0.241103
-0.193145
-0.191305
-0.144789
-0.113857
-0.0877597
-0.0689618
-0.0588906
-0.056845
-0.474234
-0.473831
-0.473363
-0.472561
-0.470661
-0.465683
-0.458523
-0.446053
-0.425502
-0.397867
-0.335276
-0.276592
-0.231724
-0.232844
-0.201658
-0.177155
-0.156355
-0.146103
-0.142088
-0.142436
-0.479689
-0.479294
-0.47907
-0.479172
-0.478916
-0.477227
-0.476208
-0.472993
-0.470067
-0.45541
-0.405207
-0.342743
-0.30048
-0.283374
-0.256566
-0.236442
-0.216563
-0.208519
-0.207941
-0.209876
-0.499878
-0.499596
-0.499943
-0.501131
-0.503046
-0.505964
-0.513
-0.523842
-0.545134
-0.554752
-0.535006
-0.454395
-0.386143
-0.351697
-0.319576
-0.29051
-0.26534
-0.247333
-0.240268
-0.245906
-0.525019
-0.525331
-0.52659
-0.529341
-0.534566
-0.544258
-0.562964
-0.59534
-0.64899
-0.707668
-0.730766
-0.628129
-0.516455
-0.446019
-0.386887
-0.342439
-0.301402
-0.277329
-0.266721
-0.273834
-0.544188
-0.545172
-0.547757
-0.552533
-0.56173
-0.579542
-0.613066
-0.673196
-0.772396
-0.899166
-0.962493
-0.856367
-0.720115
-0.612547
-0.502172
-0.408491
-0.344144
-0.322554
-0.320629
-0.325914
-0.54562
-0.547087
-0.550346
-0.557792
-0.570449
-0.595249
-0.642377
-0.727687
-0.87567
-1.08249
-1.19116
-1.07827
-0.899295
-0.754149
-0.614949
-0.51735
-0.473024
-0.442121
-0.439488
-0.439573
-0.520032
-0.522287
-0.525072
-0.532295
-0.548279
-0.576352
-0.628441
-0.723092
-0.888743
-1.13595
-1.292
-1.16838
-0.971254
-0.794457
-0.670797
-0.602266
-0.563894
-0.557345
-0.551271
-0.548206
-0.467071
-0.46909
-0.472255
-0.477862
-0.491225
-0.518121
-0.567775
-0.658505
-0.814636
-1.03452
-1.16578
-1.05057
-0.860866
-0.730591
-0.657811
-0.612669
-0.58693
-0.591665
-0.589639
-0.58737
-0.389456
-0.390936
-0.393576
-0.39835
-0.408199
-0.428726
-0.467666
-0.539659
-0.66145
-0.822638
-0.910272
-0.805047
-0.666879
-0.62138
-0.597741
-0.570733
-0.57475
-0.575583
-0.574065
-0.5717
-0.298699
-0.299575
-0.301026
-0.303773
-0.309826
-0.322874
-0.347976
-0.395014
-0.473689
-0.574342
-0.631197
-0.538615
-0.487428
-0.489794
-0.494101
-0.507545
-0.514075
-0.513858
-0.510978
-0.508603
-0.208571
-0.208931
-0.209424
-0.210234
-0.212674
-0.218791
-0.23094
-0.254452
-0.293273
-0.345921
-0.368236
-0.316949
-0.335658
-0.356594
-0.383423
-0.411416
-0.414051
-0.414823
-0.414783
-0.414295
-0.130159
-0.13011
-0.130028
-0.129606
-0.129568
-0.130731
-0.133451
-0.139539
-0.147627
-0.150433
-0.15287
-0.180496
-0.214012
-0.248938
-0.285702
-0.307252
-0.310507
-0.313802
-0.315772
-0.315693
-0.0694822
-0.0691804
-0.0688697
-0.0679792
-0.0668324
-0.0655247
-0.0634482
-0.0607018
-0.05527
-0.0374821
-0.0383112
-0.0841136
-0.127747
-0.164022
-0.204642
-0.218409
-0.223252
-0.227084
-0.228015
-0.228238
-0.0275358
-0.0271613
-0.0268508
-0.0260402
-0.0247858
-0.0229203
-0.0195706
-0.0144831
-0.00676756
0.00683518
0.0087601
-0.0364263
-0.0772671
-0.108932
-0.133675
-0.145065
-0.151916
-0.154725
-0.155881
-0.156384
-0.00169747
-0.00135903
-0.00113948
-0.000686889
0.000222818
0.00163047
0.00445031
0.00883481
0.0150872
0.0227726
0.0213699
-0.014137
-0.0460875
-0.0695844
-0.0875589
-0.0948085
-0.0987154
-0.101174
-0.102418
-0.102992
0.0117653
0.0120248
0.0121367
0.0121737
0.0126059
0.0133612
0.0151045
0.0179496
0.0219563
0.0255659
0.0224333
-0.0030273
-0.0266469
-0.0432387
-0.0555415
-0.0617826
-0.0643769
-0.0656189
-0.0663652
-0.0667256
0.0165167
0.0166999
0.0167369
0.0165238
0.0165437
0.0167359
0.0174968
0.0189018
0.0209032
0.0219787
0.0184383
0.00135618
-0.015002
-0.0262464
-0.0342601
-0.0383283
-0.040355
-0.041193
-0.0417371
-0.0419894
0.0154538
0.0155709
0.0155675
0.0152817
0.015094
0.014979
0.015155
0.0156494
0.016379
0.016184
0.0129993
0.0022005
-0.00825033
-0.0151835
-0.0201487
-0.0225363
-0.0238363
-0.0244093
-0.0248196
-0.0249872
0.0107903
0.0108661
0.0108651
0.0106179
0.0103912
0.0101966
0.0101159
0.0101915
0.0103072
0.00978781
0.00767774
0.0017353
-0.0040211
-0.00771704
-0.0105143
-0.0120347
-0.0127972
-0.0130261
-0.0131356
-0.0131603
0.00399404
0.00403019
0.00405195
0.00391482
0.00379424
0.00369381
0.00360675
0.00363947
0.00360596
0.00337959
0.00263305
0.000625486
-0.00137154
-0.00272215
-0.00411479
-0.00469782
-0.00466588
-0.00426619
-0.00394285
-0.00403118
-1.54067
-0.651449
-0.377495
-0.0870791
0.109444
0.279783
0.423324
0.569067
0.7243
0.801097
-0.518123
-0.0882244
-0.0590235
0.137989
0.275537
0.398417
0.505438
0.59944
0.631265
0.586576
-0.110013
0.117007
0.162448
0.303669
0.399132
0.486523
0.558697
0.612407
0.61727
0.629187
0.136674
0.291344
0.328171
0.438905
0.498914
0.562045
0.610272
0.644345
0.654646
0.677581
0.328963
0.435191
0.465113
0.540994
0.585605
0.630526
0.664673
0.68989
0.700548
0.731454
0.476858
0.55072
0.581262
0.628524
0.665802
0.697801
0.723406
0.74455
0.759395
0.787197
0.60073
0.653869
0.680294
0.710281
0.739404
0.764195
0.784938
0.804518
0.819787
0.846003
0.707218
0.746047
0.767768
0.789363
0.811216
0.83132
0.849103
0.867519
0.88251
0.906091
0.803354
0.832635
0.850082
0.865958
0.882738
0.899223
0.915002
0.932182
0.945777
0.96808
0.892723
0.913743
0.92904
0.942565
0.95647
0.970503
0.984098
0.998768
1.0103
1.02997
0.979308
0.995243
1.00928
1.02133
1.03343
1.04514
1.05631
1.06802
1.07568
1.09249
1.06499
1.07797
1.0918
1.1035
1.1141
1.12386
1.13264
1.14089
1.14446
1.15575
1.15444
1.16543
1.17892
1.18813
1.19557
1.20274
1.20995
1.21655
1.21755
1.22498
1.25292
1.25766
1.26569
1.27018
1.27345
1.27792
1.28392
1.2917
1.29552
1.30541
1.36625
1.35254
1.34509
1.33944
1.33676
1.33816
1.34469
1.35711
1.37184
1.40149
1.48708
1.43141
1.40053
1.38346
1.37533
1.37534
1.38399
1.40345
1.43551
1.50467
)
;

boundaryField
{
    wall-4
    {
        type            zeroGradient;
    }
    pressure-outlet-7
    {
        type            fixedValue;
        value           uniform 0;
    }
    velocity-inlet-6
    {
        type            zeroGradient;
    }
    velocity-inlet-5
    {
        type            zeroGradient;
    }
    frontAndBackPlanes
    {
        type            empty;
    }
}


// ************************************************************************* //
