/*--------------------------------*- C++ -*----------------------------------*\
| =========                 |                                                 |
| \\      /  F ield         | OpenFOAM: The Open Source CFD Toolbox           |
|  \\    /   O peration     | Version:  4.0                                   |
|   \\  /    A nd           | Web:      www.OpenFOAM.org                      |
|    \\/     M anipulation  |                                                 |
\*---------------------------------------------------------------------------*/
FoamFile
{
    version     2.0;
    format      ascii;
    class       surfaceScalarField;
    location    "23";
    object      phi;
}
// * * * * * * * * * * * * * * * * * * * * * * * * * * * * * * * * * * * * * //

dimensions      [0 3 -1 0 0 0 0];

internalField   nonuniform List<scalar> 
4262
(
0.107144
0.470844
0.0955695
0.70516
0.0693734
0.858499
0.0473143
1.02082
0.03081
1.21502
0.0195247
1.4495
0.0122132
1.73318
0.00723266
2.07602
0.00345668
2.48902
-0.000274953
2.98602
-0.00399224
2.98601
-0.00772922
2.48898
-0.0126583
2.07597
-0.0198715
1.73308
-0.0310553
1.4494
-0.0475031
1.21496
-0.0694956
1.02076
-0.0956298
0.858437
-0.107198
0.705154
0.470791
0.112838
0.358007
0.135258
0.68274
0.12046
0.873297
0.0980514
1.04323
0.074976
1.2381
0.053347
1.47113
0.0348713
1.75165
0.0204197
2.09047
0.00901823
2.50042
-0.000733446
2.99578
-0.010487
2.99576
-0.0216801
2.50017
-0.0359546
2.09024
-0.0543386
1.75146
-0.0759257
1.47099
-0.0989318
1.23797
-0.121263
1.04309
-0.135812
0.872987
-0.113109
0.682451
0.357682
0.0919201
0.266087
0.124747
0.649913
0.120862
0.877182
0.104693
1.0594
0.0864459
1.25634
0.0675344
1.49005
0.0485444
1.77064
0.0304256
2.10859
0.0140307
2.51682
-0.00146968
3.01128
-0.0168793
3.01117
-0.0330721
2.51637
-0.0509651
2.10813
-0.0696314
1.77013
-0.0880653
1.48942
-0.10582
1.25573
-0.121545
1.05881
-0.125363
0.876806
-0.0922287
0.649316
0.265453
0.0637159
0.202371
0.104309
0.60932
0.105807
0.875684
0.0940957
1.07111
0.0798284
1.27061
0.0653798
1.50449
0.049621
1.7864
0.0330754
2.12513
0.0160749
2.53382
-0.00205764
3.02941
-0.020066
3.02918
-0.036808
2.53311
-0.0528225
2.12415
-0.0679748
1.78528
-0.0820014
1.50345
-0.0959857
1.26971
-0.107438
1.07026
-0.105386
0.874754
-0.0641608
0.60809
0.201292
0.0371789
0.165192
0.0802074
0.566292
0.090435
0.865456
0.0830046
1.07854
0.0700798
1.28354
0.0579955
1.51658
0.0455367
1.79886
0.0313439
2.13933
0.0153955
2.54976
-0.00279555
3.0476
-0.0207126
3.0471
-0.0361014
2.5485
-0.049681
2.13773
-0.0616634
1.79726
-0.0732824
1.51507
-0.0857397
1.28217
-0.0926147
1.07714
-0.0816653
0.863805
-0.037707
0.564132
0.163585
0.0191557
0.146036
0.0561754
0.529272
0.0714528
0.850179
0.0696731
1.08032
0.0611009
1.29211
0.0502283
1.52745
0.0391456
1.80994
0.0274515
2.15102
0.0134101
2.56381
-0.00373438
3.06474
-0.0204972
3.06386
-0.0337587
2.56176
-0.0446244
2.14859
-0.0549314
1.80757
-0.0650755
1.52521
-0.0729105
1.29
-0.0739375
1.07817
-0.057714
0.847581
-0.0196739
0.526092
0.143911
0.0100371
0.135999
0.0401761
0.499133
0.0555441
0.834811
0.0563317
1.07953
0.0510902
1.29735
0.0424945
1.53605
0.0328463
1.81959
0.0221169
2.16175
0.00987904
2.57604
-0.00467982
3.0793
-0.0189337
3.07811
-0.0305582
2.57338
-0.0403996
2.15843
-0.0487916
1.81596
-0.0563973
1.53282
-0.0606526
1.29426
-0.0588376
1.07635
-0.0421656
0.830909
-0.0106606
0.494587
0.133251
0.00578919
0.13021
0.0306284
0.474294
0.0457085
0.819731
0.0472482
1.07799
0.0431384
1.30146
0.0361178
1.54307
0.0276356
1.82807
0.0175545
2.17183
0.00626985
2.58733
-0.0059772
3.09155
-0.0177621
3.0899
-0.0279575
2.58358
-0.0364068
2.16688
-0.0437344
1.82329
-0.0496712
1.53876
-0.0525687
1.29715
-0.0497532
1.07353
-0.0330789
0.814235
-0.00656697
0.468075
0.126684
0.00382259
0.126387
0.0238133
0.454303
0.0383708
0.805174
0.040329
1.07604
0.0365704
1.30522
0.0303884
1.54925
0.0226874
1.83577
0.0136044
2.18091
0.00361126
2.59732
-0.00713598
3.1023
-0.0173199
3.10008
-0.0260826
2.59234
-0.034017
2.17482
-0.0401221
1.82939
-0.0446188
1.54325
-0.0469527
1.29949
-0.0433735
1.06996
-0.0267162
0.797578
-0.00476628
0.446125
0.121917
0.00218379
0.124204
0.0158583
0.440629
0.0286222
0.79241
0.0312305
1.07343
0.0282005
1.30825
0.0231108
1.55434
0.0169262
1.84196
0.00939428
2.18845
0.000549381
2.60617
-0.00943282
3.11228
-0.0187511
3.1094
-0.0257367
2.59933
-0.0312893
2.18037
-0.035253
1.83336
-0.0384023
1.5464
-0.0394895
1.30058
-0.0347418
1.06521
-0.0193745
0.78221
-0.00335291
0.430104
0.118564
0.000576327
0.123627
0.00805094
0.433154
0.0178034
0.782657
0.0204127
1.07082
0.018145
1.31052
0.0141354
1.55835
0.00948467
1.84661
0.00394577
2.19398
-0.00291341
2.61303
-0.0114927
3.12086
-0.0191232
3.11703
-0.0238681
2.60407
-0.0265155
2.18302
-0.0291828
1.83602
-0.0311683
1.54839
-0.0308518
1.30026
-0.0251878
1.05954
-0.0122888
0.769311
-0.00208994
0.419905
0.116474
-0.000185537
0.123813
0.00296497
0.430003
0.00961465
0.776007
0.0121161
1.06832
0.0104065
1.31222
0.00686108
1.56189
0.00250161
1.85097
-0.00236668
2.19885
-0.00802104
2.61868
-0.0144676
3.12731
-0.0197171
3.12228
-0.0227948
2.60715
-0.0246184
2.18484
-0.0255428
1.83695
-0.0253645
1.54821
-0.0239231
1.29882
-0.0182119
1.05383
-0.00796554
0.759065
-0.00147142
0.413411
0.115003
-0.00067298
0.124486
-0.000176109
0.429507
0.00384545
0.771986
0.00559711
1.06656
0.00442837
1.31339
0.0018592
1.56446
-0.00186175
1.85469
-0.00664757
2.20364
-0.0122184
2.62425
-0.0180258
3.13311
-0.0224003
3.12666
-0.0249309
2.60968
-0.0258854
2.1858
-0.0251298
1.83619
-0.0238511
1.54693
-0.0213411
1.29631
-0.0153737
1.04787
-0.00665423
0.750345
-0.00156437
0.408321
0.113439
-0.00131609
0.125802
-0.00225622
0.430447
-0.000274436
0.770004
0.00089207
1.0654
-8.86417e-05
1.31437
-0.00241541
1.56679
-0.00614747
1.85842
-0.0110065
2.2085
-0.0167747
2.63002
-0.0227459
3.13908
-0.0269011
3.13081
-0.0283344
2.61111
-0.0279043
2.18537
-0.0261278
1.83442
-0.0236582
1.54446
-0.0196049
1.29225
-0.0133326
1.04159
-0.00584474
0.742858
-0.00155616
0.404032
0.111883
-0.00200782
0.12781
-0.00440643
0.432845
-0.00474897
0.770347
-0.00434161
1.06499
-0.00503071
1.31506
-0.00698553
1.56874
-0.0103948
1.86183
-0.0153643
2.21347
-0.0215223
2.63618
-0.0278345
3.1454
-0.0319577
3.13493
-0.0329635
2.61212
-0.0316989
2.1841
-0.0291701
1.83189
-0.0253473
1.54064
-0.0199299
1.28684
-0.0128485
1.03451
-0.00566745
0.735676
-0.00157244
0.399937
0.11031
-0.00242441
0.130234
-0.00646521
0.436886
-0.00818116
0.772063
-0.00796635
1.06478
-0.00867957
1.31578
-0.0112676
1.57133
-0.0156706
1.86623
-0.0216199
2.21942
-0.0285431
2.6431
-0.035196
3.15205
-0.0391171
3.13886
-0.0397959
2.6128
-0.0378164
2.18212
-0.0340139
1.82809
-0.0282305
1.53486
-0.0211246
1.27973
-0.0131309
1.02652
-0.00611197
0.728657
-0.00183447
0.39566
0.108476
-0.00307175
0.133306
-0.00843529
0.44225
-0.0116479
0.775275
-0.0124704
1.0656
-0.0132599
1.31657
-0.0159987
1.57407
-0.0212019
1.87144
-0.0283457
2.22656
-0.0364477
2.6512
-0.0437186
3.15932
-0.0474077
3.14255
-0.0474719
2.61286
-0.0446447
2.17929
-0.0399632
1.8234
-0.0331116
1.528
-0.0248982
1.27152
-0.0158673
1.01749
-0.00792416
0.720714
-0.0024857
0.390221
0.10599
-0.00354617
0.136852
-0.00988993
0.448593
-0.0145689
0.779954
-0.0166649
1.06769
-0.0186465
1.31855
-0.0227569
1.57818
-0.029445
1.87812
-0.0380572
2.23517
-0.0473922
2.66054
-0.0552923
3.16722
-0.0587212
3.14597
-0.0579077
2.61205
-0.0539215
2.17531
-0.0475141
1.817
-0.0386616
1.51915
-0.0283752
1.26123
-0.0180952
1.00721
-0.00950833
0.712127
-0.00310798
0.383821
0.102882
-0.00485626
0.141708
-0.0136197
0.457357
-0.0207772
0.787112
-0.0246284
1.07155
-0.0277062
1.32163
-0.0329268
1.5834
-0.0408684
1.88607
-0.0506128
2.24492
-0.0606177
2.67054
-0.0684145
3.17502
-0.0707028
3.14826
-0.067945
2.60929
-0.0619227
2.16929
-0.053561
1.80863
-0.0436405
1.50923
-0.0327948
1.25039
-0.0218075
0.99622
-0.0118085
0.702128
-0.00383944
0.375852
0.0990425
-0.00587243
0.147581
-0.016371
0.467855
-0.0257679
0.796509
-0.0323935
1.07817
-0.0386304
1.32786
-0.046533
1.59131
-0.0564209
1.89595
-0.0675911
2.25609
-0.0782378
2.68119
-0.0853904
3.18217
-0.0858051
3.14868
-0.0807552
2.60424
-0.0725867
2.16112
-0.062129
1.79818
-0.0500109
1.49711
-0.0371508
1.23753
-0.0247244
0.983793
-0.0136638
0.691068
-0.00449467
0.366683
0.0945478
-0.00815942
0.15574
-0.0228447
0.482541
-0.0359628
0.809627
-0.0454472
1.08766
-0.0538248
1.33624
-0.0639723
1.60145
-0.0761316
1.90811
-0.0888674
2.26882
-0.0998516
2.69217
-0.105765
3.18808
-0.103575
3.14649
-0.0953652
2.59603
-0.0839014
2.14965
-0.0707438
1.78502
-0.0571774
1.48355
-0.0437464
1.22409
-0.0303791
0.970426
-0.0170501
0.677739
-0.00550756
0.35514
0.0890403
-0.0102047
0.165945
-0.0282624
0.500598
-0.0453231
0.826687
-0.0590253
1.10136
-0.0721323
1.34935
-0.0864974
1.61582
-0.101666
1.92328
-0.116138
2.2833
-0.127263
2.7033
-0.131253
3.19207
-0.125446
3.14068
-0.113587
2.58417
-0.0992073
2.13527
-0.0837003
1.76951
-0.0678011
1.46765
-0.0518786
1.20817
-0.0358713
0.954419
-0.0201459
0.662014
-0.00653461
0.341529
0.0825056
-0.015007
0.180952
-0.0395503
0.525142
-0.0613693
0.848506
-0.0793589
1.11935
-0.0966249
1.36661
-0.114827
1.63402
-0.133025
1.94148
-0.149155
2.29942
-0.159853
2.714
-0.161242
3.19346
-0.151639
3.13108
-0.135872
2.56841
-0.117342
2.11674
-0.0981629
1.75033
-0.0796056
1.44909
-0.0618291
1.1904
-0.0438649
0.936455
-0.0248812
0.64303
-0.00784414
0.324492
0.0746615
-0.019239
0.200191
-0.0511072
0.55701
-0.0810664
0.878465
-0.105624
1.14391
-0.12922
1.39021
-0.152621
1.65742
-0.174323
1.96318
-0.191505
2.31661
-0.201011
2.7235
-0.19884
3.19129
-0.183881
3.11612
-0.162922
2.54745
-0.140399
2.09422
-0.118175
1.72811
-0.0968234
1.42774
-0.0756999
1.16927
-0.0531249
0.91388
-0.029356
0.619261
-0.00898609
0.304122
0.0656754
-0.0335157
0.233706
-0.0770439
0.600538
-0.114411
0.915833
-0.145091
1.17458
-0.175174
1.42029
-0.202876
1.68512
-0.226311
1.98662
-0.242862
2.33316
-0.249349
2.72999
-0.24174
3.18368
-0.220826
3.0952
-0.195142
2.52176
-0.168065
2.06714
-0.141472
1.70152
-0.116062
1.40233
-0.0910389
1.14425
-0.0646795
0.88752
-0.0363219
0.590903
-0.010759
0.278559
0.0549165
-0.0468571
0.280564
-0.113124
0.666805
-0.164868
0.967577
-0.204195
1.21391
-0.240335
1.45643
-0.269746
1.71453
-0.29248
2.00935
-0.305973
2.34665
-0.307215
2.73123
-0.292708
3.16918
-0.264929
3.06742
-0.232968
2.4898
-0.200845
2.03502
-0.170489
1.67116
-0.142042
1.37388
-0.11336
1.11557
-0.080465
0.854625
-0.0420667
0.552505
-0.0109619
0.247454
0.0439546
-0.0313562
0.31192
-0.0867604
0.722209
-0.136009
1.01683
-0.180128
1.25803
-0.221572
1.49788
-0.25984
1.7528
-0.294632
2.04414
-0.323167
2.37519
-0.341285
2.74935
-0.341984
3.16987
-0.321597
3.04704
-0.289751
2.45796
-0.251644
1.99691
-0.210242
1.62976
-0.167529
1.33117
-0.123437
1.07147
-0.0767401
0.807929
-0.0337861
0.509551
-0.00726968
0.220938
0.0366849
-0.00873041
0.32065
-0.0367029
0.750181
-0.0735854
1.05371
-0.111133
1.29558
-0.147962
1.53471
-0.18284
1.78768
-0.214165
2.07547
-0.239065
2.40009
-0.253008
2.76329
-0.249613
3.16648
-0.227337
3.02476
-0.193693
2.42431
-0.154764
1.95798
-0.11506
1.59005
-0.0763421
1.29245
-0.0404073
1.03554
-0.0116307
0.779152
0.00395427
0.493966
0.00438813
0.220504
0.041073
0.00367441
0.316976
-0.0154878
0.769344
-0.0426065
1.08083
-0.0724111
1.32538
-0.102665
1.56496
-0.132484
1.8175
-0.15979
2.10277
-0.181455
2.42175
-0.19327
2.77511
-0.189862
3.16307
-0.167724
3.00262
-0.135411
2.392
-0.100193
1.92277
-0.0654684
1.55533
-0.0333634
1.26034
-0.00643629
1.00861
0.0123856
0.76033
0.0160094
0.490342
0.00757529
0.228938
0.0486483
0.00383599
0.31314
-0.00630411
0.779484
-0.0265006
1.10102
-0.0509552
1.34984
-0.0758857
1.58989
-0.101118
1.84273
-0.124705
2.12636
-0.143584
2.44063
-0.153653
2.78518
-0.1487
3.15812
-0.127897
2.98182
-0.101355
2.36546
-0.0727915
1.8942
-0.0446969
1.52724
-0.0190002
1.23465
0.00258754
0.987025
0.0157238
0.747194
0.0163947
0.489671
0.00667893
0.238654
0.0553272
0.00620678
0.306933
-0.000689576
0.78638
-0.018446
1.11878
-0.0390688
1.37046
-0.0603021
1.61112
-0.0822046
1.86463
-0.102847
2.147
-0.119525
2.45731
-0.128606
2.79426
-0.125331
3.15484
-0.109068
2.96556
-0.0857304
2.34212
-0.0603019
1.86877
-0.0357997
1.50273
-0.0136095
1.21246
0.00419931
0.969216
0.0134936
0.7379
0.0121806
0.490984
0.00444939
0.246385
0.0597766
0.00615733
0.300776
0.00116751
0.79137
-0.0143529
1.1343
-0.0327045
1.38881
-0.0516559
1.63007
-0.0711141
1.88409
-0.089609
2.1655
-0.104913
2.47261
-0.113659
2.803
-0.111315
3.1525
-0.0957652
2.95001
-0.0747877
2.32114
-0.0534451
1.84743
-0.0329247
1.48221
-0.0150393
1.19457
-0.00113133
0.955308
0.0067133
0.730055
0.00677681
0.490921
0.00239681
0.250765
0.0621734
0.00422783
0.296548
0.000818888
0.794779
-0.0126284
1.14775
-0.0293698
1.40555
-0.0470705
1.64777
-0.0650087
1.90203
-0.0822199
2.18271
-0.096996
2.48739
-0.106307
2.81231
-0.105643
3.15184
-0.0933399
2.9377
-0.0757504
2.30355
-0.0564676
1.82815
-0.0381058
1.46385
-0.0216885
1.17815
-0.00898321
0.942603
-0.00232885
0.723401
-0.000130712
0.488723
0.000107903
0.250526
0.0622813
0.00274514
0.293803
-8.09036e-05
0.797605
-0.0121547
1.15982
-0.0278588
1.42126
-0.0447618
1.66468
-0.0618536
1.91912
-0.0784076
2.19926
-0.0929413
2.50192
-0.102394
2.82177
-0.102134
3.15158
-0.0907596
2.92633
-0.0739079
2.2867
-0.0560276
1.81027
-0.0386843
1.44651
-0.0249859
1.16446
-0.0148045
0.932422
-0.0080132
0.716609
-0.00517982
0.485889
-0.00163197
0.246978
0.0606494
6.62457e-05
0.293736
-0.00267656
0.800348
-0.0132685
1.17041
-0.0277823
1.43577
-0.0437949
1.68069
-0.0603806
1.93571
-0.0766904
2.21557
-0.0913549
2.51658
-0.101842
2.83225
-0.104304
3.15404
-0.095141
2.91717
-0.0794099
2.27097
-0.0629569
1.79382
-0.049403
1.43295
-0.0354404
1.15049
-0.0238438
0.920825
-0.0150572
0.707823
-0.00771424
0.478546
-0.00239058
0.241655
0.0582588
-0.00045595
0.294192
-0.00507227
0.804964
-0.0149643
1.18031
-0.0283248
1.44913
-0.0434823
1.69585
-0.0596547
1.95188
-0.075983
2.2319
-0.0910947
2.5317
-0.102571
2.84373
-0.10606
3.15753
-0.0975766
2.90868
-0.0841072
2.2575
-0.0688684
1.77858
-0.051823
1.41591
-0.0377323
1.1364
-0.0259482
0.909041
-0.0164821
0.698357
-0.00947137
0.471536
-0.00301181
0.235195
0.055247
-0.00251594
0.296708
-0.00766565
0.810114
-0.0170637
1.1897
-0.0292658
1.46133
-0.0435862
1.71017
-0.0593524
1.96765
-0.0757998
2.24835
-0.0916056
2.5475
-0.104524
2.85665
-0.110769
3.16377
-0.106198
2.90411
-0.0922835
2.24359
-0.0745487
1.76084
-0.0592798
1.40064
-0.045748
1.12287
-0.0339292
0.897222
-0.0226192
0.687047
-0.0111583
0.460075
-0.00345722
0.227494
0.0517898
-0.00392536
0.300634
-0.00923593
0.815424
-0.0183788
1.19885
-0.0301555
1.47311
-0.0438506
1.72386
-0.0591943
1.98299
-0.0757244
2.26488
-0.0922033
2.56398
-0.10658
2.87103
-0.115198
3.17239
-0.111912
2.90083
-0.100015
2.23169
-0.0848719
1.7457
-0.0675064
1.38327
-0.0508967
1.10626
-0.0354422
0.881768
-0.0229384
0.674543
-0.0127066
0.449843
-0.00389533
0.218683
0.0478944
-0.00444086
0.305075
-0.0105192
0.821503
-0.0194852
1.20781
-0.0308682
1.48449
-0.0441102
1.73711
-0.0591227
1.998
-0.0756774
2.28143
-0.0928461
2.58115
-0.108905
2.88708
-0.120061
3.18355
-0.119732
2.9005
-0.109342
2.2213
-0.0911061
1.72746
-0.0731824
1.36535
-0.0568307
1.08991
-0.0438053
0.868742
-0.0300014
0.660739
-0.0147247
0.434566
-0.00436187
0.20832
0.0435326
-0.00440819
0.309483
-0.0109163
0.828011
-0.0199482
1.21684
-0.0311569
1.4957
-0.0441514
1.7501
-0.0588982
2.01275
-0.075442
2.29798
-0.0931363
2.59884
-0.110336
2.90428
-0.123543
3.19675
-0.126176
2.90313
-0.117103
2.21223
-0.101976
1.71234
-0.0814981
1.34487
-0.0623292
1.07074
-0.0437545
0.850168
-0.0277973
0.644782
-0.0150347
0.421804
-0.00431627
0.197602
0.0392163
-0.00439176
0.313874
-0.0113364
0.834955
-0.020214
1.22572
-0.0311245
1.50661
-0.0438728
1.76285
-0.0584288
2.0273
-0.0749921
2.31454
-0.093161
2.61701
-0.111949
2.92307
-0.129053
3.21386
-0.13564
2.90972
-0.127586
2.20417
-0.109627
1.69438
-0.0895821
1.32483
-0.0684907
1.04965
-0.0511132
0.83279
-0.0347337
0.628402
-0.0166793
0.403749
-0.00418463
0.185107
0.0350317
-0.00434997
0.318224
-0.011289
0.841894
-0.0200204
1.23445
-0.0307061
1.5173
-0.0432346
1.77538
-0.0575889
2.04166
-0.0740867
2.33104
-0.0925472
2.63547
-0.112092
2.94262
-0.129366
3.23113
-0.137038
2.91739
-0.134056
2.20119
-0.122466
1.68279
-0.100344
1.30271
-0.074955
1.02426
-0.0480555
0.805891
-0.0271113
0.607458
-0.0133125
0.38995
-0.00319065
0.174985
0.031841
-0.00437339
0.322598
-0.0113595
0.848881
-0.0197644
1.24286
-0.0300629
1.5276
-0.0422492
1.78756
-0.0563644
2.05577
-0.0727922
2.34747
-0.0915236
2.65421
-0.112255
2.96335
-0.133776
3.25265
-0.148534
2.93215
-0.147012
2.19967
-0.130713
1.66649
-0.108753
1.28075
-0.0804903
0.995998
-0.0541108
0.779511
-0.029517
0.582864
-0.0106623
0.371095
-0.00263424
0.166957
0.0292068
-0.00428498
0.326883
-0.011063
0.855659
-0.0192182
1.25101
-0.0291869
1.53757
-0.0410073
1.79938
-0.0548169
2.06958
-0.0711101
2.36376
-0.0900645
2.67316
-0.111619
2.9849
-0.133447
3.27448
-0.147897
2.9466
-0.152087
2.20386
-0.145143
1.65954
-0.122468
1.25807
-0.0909624
0.964492
-0.0486276
0.737176
-0.00682595
0.541063
0.0169912
0.347278
0.0196692
0.164279
0.0488759
-0.00415877
0.331042
-0.0108435
0.862343
-0.018655
1.25882
-0.0281845
1.5471
-0.0395458
1.81074
-0.0529956
2.08303
-0.0690694
2.37983
-0.0880329
2.69212
-0.109937
3.00681
-0.133994
3.29854
-0.153851
2.96645
-0.161728
2.21173
-0.153202
1.65102
-0.133748
1.23862
-0.0997124
0.930457
-0.0575814
0.695045
-0.00332468
0.486806
0.0292527
0.314701
0.0140909
0.179441
0.0629669
-0.00392473
0.334966
-0.0103293
0.868748
-0.0178665
1.26636
-0.0270232
1.55625
-0.037997
1.82172
-0.0510457
2.09608
-0.0668424
2.39563
-0.0857927
2.71107
-0.108394
3.02941
-0.134348
3.32449
-0.155192
2.9873
-0.165428
2.22197
-0.16765
1.65324
-0.152534
1.2235
-0.120424
0.898347
-0.0589486
0.63357
0.0393253
0.388532
0.146576
0.207451
0.166061
0.159956
0.229027
-0.00375247
0.338719
-0.0101124
0.875108
-0.0175217
1.27377
-0.0265801
1.56531
-0.0376339
1.83277
-0.0510358
2.10948
-0.0676106
2.4122
-0.0879673
2.73143
-0.11294
3.05438
-0.142352
3.3539
-0.16956
3.0145
-0.189919
2.24233
-0.193281
1.6566
-0.182056
1.21228
-0.152396
0.868688
-0.117357
0.598531
-0.137223
0.408398
-0.368277
0.438504
-0.918239
0.709918
0.890388
-1.5796
-0.00352796
0.342247
-0.00960043
0.88118
-0.0168218
1.28099
-0.0257113
1.5742
-0.0366261
1.84369
-0.0500333
2.12289
-0.0668936
2.42906
-0.0881194
2.75266
-0.115031
3.08129
-0.149093
3.38797
-0.182619
3.04803
-0.20507
2.26478
-0.227471
1.679
-0.236647
1.22145
-0.238376
0.870417
-0.315502
0.675657
-0.685175
0.77807
-1.39389
1.14722
-2.01026
1.32629
1.22185
-2.34172
-0.00334304
0.34559
-0.009173
0.88701
-0.0161151
1.28793
-0.0247334
1.58282
-0.0354486
1.8544
-0.0488415
2.13628
-0.0659515
2.44617
-0.0878324
2.77454
-0.116172
3.10963
-0.152494
3.42429
-0.18999
3.08553
-0.226984
2.30178
-0.253516
1.70553
-0.266708
1.23464
-0.354962
0.958671
-0.740207
1.0609
-1.49316
1.53102
-2.08153
1.73559
-2.32812
1.57288
1.33949
-2.44576
-0.00308225
0.348672
-0.00852601
0.892454
-0.0152038
1.29461
-0.0235951
1.59121
-0.034113
1.86492
-0.0474424
2.14961
-0.0646852
2.46342
-0.0872241
2.79708
-0.117319
3.13973
-0.157907
3.46488
-0.204401
3.13202
-0.242342
2.33972
-0.286923
1.75012
-0.381346
1.32907
-0.696506
1.27383
-1.40157
1.76597
-2.00368
2.13313
-2.24977
1.98167
-2.36679
1.6899
1.40692
-2.43421
-0.0028306
0.351503
-0.00794602
0.897569
-0.0142731
1.30094
-0.0223256
1.59926
-0.032633
1.87523
-0.0458628
2.16284
-0.0632464
2.4808
-0.0863478
2.82018
-0.117627
3.17101
-0.161151
3.5084
-0.211819
3.18269
-0.266601
2.3945
-0.323864
1.80738
-0.494666
1.49987
-1.05922
1.83838
-1.75144
2.45819
-2.09063
2.47232
-2.24616
2.13721
-2.33179
1.77553
1.47388
-2.39875
-0.00268493
0.354188
-0.00759692
0.902481
-0.0139008
1.30724
-0.0219969
1.60736
-0.0325145
1.88575
-0.0459353
2.17626
-0.0636801
2.49855
-0.0874771
2.84397
-0.120497
3.20403
-0.167399
3.5553
-0.22626
3.24155
-0.281349
2.44959
-0.37562
1.90165
-0.740143
1.86439
-1.45395
2.55219
-1.94788
2.95212
-2.15446
2.6789
-2.26415
2.24689
-2.34246
1.85384
1.53962
-2.4082
-0.00268271
0.35687
-0.00788144
0.90768
-0.0144736
1.31384
-0.0229105
1.6158
-0.033849
1.89668
-0.0478223
2.19024
-0.0663583
2.51708
-0.0913553
2.86897
-0.125945
3.23861
-0.176237
3.6056
-0.238176
3.30349
-0.309415
2.52083
-0.495499
2.08773
-1.01228
2.38117
-1.64333
3.18324
-1.93852
3.24731
-2.09118
2.83156
-2.20967
2.36539
-2.30538
1.94956
1.60438
-2.37015
-0.00261518
0.359485
-0.00789946
0.912964
-0.0148836
1.32082
-0.023804
1.62472
-0.0352363
1.90812
-0.0498217
2.20482
-0.0690683
2.53633
-0.0949703
2.89487
-0.131207
3.27485
-0.183979
3.65837
-0.250411
3.36992
-0.342827
2.61324
-0.607282
2.35219
-1.22118
2.99508
-1.73034
3.69239
-1.94491
3.46188
-2.09253
2.97917
-2.22389
2.49676
-2.3419
2.06756
1.66691
-2.40443
-0.00248941
0.361975
-0.00814299
0.918618
-0.0154768
1.32815
-0.0247954
1.63403
-0.0366576
1.91998
-0.0517986
2.21996
-0.0718163
2.55635
-0.0989156
2.92197
-0.136875
3.31281
-0.193431
3.71492
-0.266957
3.44345
-0.388637
2.73492
-0.745057
2.70861
-1.36568
3.6157
-1.74174
4.06845
-1.92535
3.64549
-2.0377
3.09152
-2.13665
2.5957
-2.21168
2.14259
1.66242
-2.20719
-0.00227594
0.364251
-0.00788605
0.924228
-0.0156509
1.33592
-0.0255304
1.64391
-0.0379827
1.93243
-0.0538019
2.23578
-0.0745702
2.57711
-0.10259
2.94999
-0.141656
3.35188
-0.197821
3.77109
-0.275636
3.52126
-0.437005
2.89629
-0.862504
3.13411
-1.42039
4.17359
-1.70015
4.34822
-1.86956
3.8149
-1.97265
3.19461
-1.98266
2.60571
-1.92846
2.0884
1.64966
-1.9157
-0.00203567
0.366287
-0.00799008
0.930182
-0.0160422
1.34397
-0.0262383
1.65411
-0.0389702
1.94516
-0.0549982
2.25181
-0.0759582
2.59807
-0.104091
2.97813
-0.143376
3.39116
-0.20195
3.82966
-0.290376
3.60969
-0.481165
3.08708
-0.931718
3.58466
-1.38773
4.6296
-1.57377
4.53425
-1.65203
3.89316
-1.66735
3.20993
-1.52993
2.46829
-1.03923
1.5977
0.610431
-0.00146002
0.367747
-0.0071475
0.93587
-0.0156562
1.35248
-0.026578
1.66503
-0.0402743
1.95886
-0.0575404
2.26908
-0.0801423
2.62068
-0.11067
3.00865
-0.153456
3.43395
-0.213945
3.89015
-0.309158
3.7049
-0.544019
3.32194
-1.05385
4.09449
-1.43862
5.01438
-1.54979
4.64542
-1.56065
3.90402
-1.47295
3.12223
-1.23738
2.23272
-0.661249
1.02157
-0.0508179
-0.00106525
0.368812
-0.0067787
0.941583
-0.0155384
1.36124
-0.0269538
1.67645
-0.0412697
1.97317
-0.0594155
2.28722
-0.0833634
2.64462
-0.115794
3.04108
-0.161576
3.47973
-0.231398
3.95997
-0.351524
3.82503
-0.634186
3.6046
-1.1644
4.6247
-1.45891
5.30889
-1.53406
4.72056
-1.52269
3.89266
-1.32304
2.92258
-0.817054
1.72673
-0.126596
0.331113
-0.177414
-0.000173909
0.368986
-0.00486923
0.946279
-0.0139622
1.37033
-0.0260926
1.68858
-0.0412628
1.98834
-0.0606129
2.30657
-0.0861157
2.67013
-0.120797
3.07577
-0.170205
3.52914
-0.242304
4.03207
-0.371749
3.95447
-0.702967
3.93582
-1.23184
5.15357
-1.43641
5.51346
-1.47628
4.76044
-1.4034
3.81978
-1.11981
2.639
-0.357559
0.964479
0.0353366
-0.0617829
-0.142078
0.000856447
0.368129
-0.00343578
0.950571
-0.0126388
1.37953
-0.025215
1.70115
-0.0407126
2.00384
-0.0606632
2.32652
-0.0871681
2.69663
-0.123384
3.11198
-0.174648
3.5804
-0.255758
4.11318
-0.413387
4.1121
-0.788713
4.31115
-1.27437
5.63923
-1.41143
5.65051
-1.42093
4.76994
-1.2492
3.64804
-0.753765
2.14357
-0.0856165
0.296331
0.0380277
-0.185427
-0.10405
0.00275418
0.365375
0.000437811
0.952887
-0.00915821
1.38913
-0.0221772
1.71417
-0.0382235
2.01989
-0.0591158
2.34742
-0.0867548
2.72427
-0.123981
3.14921
-0.176248
3.63267
-0.262186
4.19912
-0.431731
4.28165
-0.851343
4.73076
-1.26008
6.04796
-1.34108
5.73151
-1.32079
4.74965
-1.05634
3.38359
-0.395596
1.48282
-0.0245341
-0.074731
0.00823898
-0.2182
-0.095811
0.00405457
0.36132
0.00257226
0.95437
-0.0063404
1.39804
-0.0188504
1.72668
-0.034752
2.03579
-0.0557981
2.36846
-0.0835438
2.75202
-0.121286
3.18695
-0.175237
3.68662
-0.267728
4.29161
-0.454281
4.4682
-0.896485
5.17296
-1.21184
6.36332
-1.26397
5.78364
-1.17671
4.6624
-0.854089
3.06097
-0.160622
0.789356
0.00273359
-0.238087
0.000794225
-0.216261
-0.0950168
0.00652047
0.3548
0.0072068
0.953683
0.000327888
1.40492
-0.0120393
1.73905
-0.0282804
2.05203
-0.0495839
2.38977
-0.077273
2.77971
-0.114914
3.22459
-0.167525
3.73923
-0.26071
4.38479
-0.458644
4.66614
-0.891363
5.60568
-1.11959
6.59154
-1.14018
5.80424
-0.982556
4.50477
-0.544017
2.62243
-0.000537762
0.245876
0.0321247
-0.270749
0.019606
-0.203742
-0.0754107
0.00899379
0.345806
0.0122214
0.950456
0.00660284
1.41054
-0.00393595
1.74959
-0.0199826
2.06808
-0.0405149
2.4103
-0.0667344
2.80593
-0.102063
3.25992
-0.152251
3.78942
-0.244798
4.47734
-0.451028
4.87237
-0.840538
5.99519
-1.00859
6.75959
-1.04544
5.84108
-0.844334
4.30367
-0.31237
2.09046
-0.0108349
-0.0556588
-0.00394645
-0.277637
0.0130436
-0.220732
-0.0623671
0.013107
0.332699
0.0206621
0.9429
0.017614
1.41359
0.00770123
1.7595
-0.00774999
2.08353
-0.0261018
2.42865
-0.0505029
2.83033
-0.0840373
3.29345
-0.130808
3.83619
-0.21667
4.5632
-0.414507
5.0702
-0.732334
6.31302
-0.8486
6.87586
-0.860657
5.85314
-0.670504
4.11351
-0.165652
1.58561
-0.0640118
-0.157299
-0.0378109
-0.303838
0.00496812
-0.263511
-0.057399
0.0174235
0.315276
0.0296643
0.93066
0.0295441
1.41371
0.0217452
1.7673
0.00917902
2.0961
-0.00681319
2.44464
-0.0286614
2.85217
-0.0570362
3.32183
-0.0963049
3.87546
-0.167792
4.63469
-0.337013
5.23942
-0.561498
6.5375
-0.659137
6.9735
-0.71211
5.90611
-0.612175
4.01358
-0.332696
1.30613
-0.359552
-0.130443
-0.239047
-0.424343
-0.0968174
-0.405741
-0.154216
0.0233116
0.291964
0.0425966
0.911375
0.0471988
1.40911
0.0418968
1.7726
0.0319908
2.106
0.0185848
2.45805
0.000993493
2.86977
-0.0205149
3.34334
-0.048677
3.90362
-0.0968599
4.68287
-0.213236
5.3558
-0.338112
6.66238
-0.416569
7.05196
-0.505097
5.99464
-0.570382
4.07887
-0.634165
1.36992
-0.686532
-0.0780757
-0.501001
-0.609874
-0.243976
-0.662766
-0.398193
0.029327
0.262637
0.0567349
0.883967
0.0674141
1.39843
0.0671665
1.77285
0.0610252
2.11214
0.0519136
2.46716
0.040837
2.88084
0.0259514
3.35822
0.0100561
3.91952
-0.00252398
4.69545
-0.00628196
5.35956
-0.0334226
6.68952
-0.0640759
7.08261
-0.11006
6.04062
-0.211081
4.17989
-0.468863
1.6277
-0.684088
0.137149
-0.590385
-0.703577
-0.311953
-0.941199
-0.710145
0.036547
0.22609
0.0750435
0.84547
0.0939514
1.37952
0.0983703
1.76843
0.0964462
2.11407
0.0922718
2.47133
0.0885368
2.88458
0.0863372
3.36042
0.0890992
3.91675
0.107224
4.67733
0.181627
5.28515
0.364413
6.50674
0.512865
6.93416
0.704316
5.84917
0.662622
4.22158
0.26254
2.02778
-0.0841279
0.483817
-0.265833
-0.521872
-0.21098
-0.996052
-0.921125
0.0426984
0.183392
0.0944618
0.793707
0.1239
1.35008
0.135671
1.75666
0.140363
2.10937
0.141759
2.46994
0.146675
2.87966
0.155218
3.35188
0.177377
3.89459
0.246999
4.60771
0.417773
5.11438
0.870934
6.05357
1.24103
6.56406
1.61848
5.47172
1.69083
4.14924
1.2752
2.4434
0.846084
0.912936
0.40117
-0.0769584
0.129153
-0.724035
-0.791972
0.0472726
0.136119
0.116012
0.724967
0.159548
1.30655
0.18006
1.73615
0.192491
2.09694
0.200285
2.46214
0.213981
2.86597
0.234028
3.33183
0.273306
3.85532
0.382834
4.49818
0.637158
4.86006
1.27039
5.42035
1.68504
6.14941
1.99387
5.16289
2.09262
4.05049
1.78737
2.74865
1.30079
1.39951
0.834577
0.389252
0.365135
-0.254594
-0.426837
0.0453219
0.0907971
0.134646
0.635643
0.197138
1.24405
0.229745
1.70354
0.250123
2.07657
0.263863
2.4484
0.283822
2.84601
0.318028
3.29763
0.361657
3.81169
0.475472
4.38436
0.761308
4.57422
1.39645
4.7852
1.80677
5.73909
2.05493
4.91473
2.14175
3.96367
1.92542
2.96498
1.44423
1.88071
0.910988
0.92249
0.379557
0.276837
-0.0472794
0.0384924
0.0523047
0.152492
0.521644
0.239071
1.15747
0.287489
1.65512
0.317748
2.04631
0.339683
2.42647
0.365315
2.82037
0.400045
3.2629
0.44177
3.76996
0.539189
4.28694
0.738949
4.37446
1.19861
4.32554
1.62528
5.31242
1.75965
4.78036
1.78741
3.93591
1.64606
3.10634
1.28319
2.24357
0.822351
1.38333
0.35125
0.747937
0.303971
0.0326496
0.0196551
0.172335
0.381958
0.283574
1.04624
0.349249
1.58945
0.389623
2.00593
0.421604
2.39449
0.447431
2.79455
0.478298
3.23203
0.514733
3.73353
0.561663
4.24001
0.664672
4.27145
0.960827
4.02939
1.36555
4.9077
1.43981
4.7061
1.39646
3.97926
1.25382
3.24898
0.981711
2.51569
0.611228
1.75381
0.240617
1.11855
0.544588
0.0331049
-0.0134497
0.175174
0.239889
0.325099
0.896311
0.419354
1.49519
0.472467
1.95282
0.513874
2.35308
0.541008
2.76741
0.573145
3.19989
0.598584
3.70809
0.58962
4.24898
0.628803
4.23227
0.819877
3.83831
1.15401
4.57357
1.19584
4.66427
1.09177
4.08333
0.938829
3.40191
0.715386
2.73913
0.427762
2.04144
0.155808
1.3905
0.700396
0.0307665
-0.0442163
0.11877
0.151885
0.266908
0.748174
0.37711
1.38499
0.441029
1.8889
0.480106
2.314
0.498116
2.7494
0.504082
3.19392
0.48892
3.72325
0.425197
4.3127
0.391747
4.26572
0.444391
3.78567
0.608103
4.40986
0.61835
4.65402
0.549537
4.15214
0.446874
3.50458
0.322158
2.86385
0.179265
2.18433
0.0543057
1.51546
0.754702
0.00356579
-0.0477821
0.00870363
0.146747
0.0888624
0.668015
0.183209
1.29064
0.26167
1.81044
0.318442
2.25723
0.361941
2.7059
0.372245
3.18362
0.3648
3.73069
0.305624
4.37188
0.238343
4.333
0.237265
3.78675
0.366241
4.28088
0.370024
4.65024
0.310958
4.21121
0.226295
3.58924
0.141551
2.94859
0.05516
2.27072
-0.00714639
1.57777
0.747556
-0.020446
-0.027336
-0.0483194
0.174621
-0.0280478
0.647743
0.0438482
1.21875
0.123311
1.73098
0.192519
2.18802
0.253253
2.64517
0.27464
3.16223
0.286867
3.71847
0.23424
4.4245
0.134538
4.4327
0.0866628
3.83462
0.170739
4.1968
0.168619
4.65236
0.126887
4.25294
0.0773182
3.63881
0.0342743
2.99163
-0.0122544
2.31725
-0.0320295
1.59754
0.715526
-0.031604
0.00426797
-0.0808905
0.223907
-0.0908332
0.657686
-0.0416705
1.16959
0.0353807
1.65392
0.113518
2.10989
0.186581
2.57211
0.234723
3.11409
0.266954
3.68624
0.228036
4.46342
0.102499
4.55824
0.00630173
3.93082
0.0409886
4.16212
0.0444957
4.64885
0.0226636
4.27477
-0.000640724
3.66211
-0.0366163
3.02761
-0.0610079
2.34164
-0.0541852
1.59072
0.661341
-0.0334253
0.0376933
-0.0868918
0.277373
-0.108569
0.679363
-0.0764987
1.13752
-0.00702596
1.58445
0.0761567
2.0267
0.161703
2.48656
0.239904
3.03589