/*--------------------------------*- C++ -*----------------------------------*\
| =========                 |                                                 |
| \\      /  F ield         | OpenFOAM: The Open Source CFD Toolbox           |
|  \\    /   O peration     | Version:  4.0                                   |
|   \\  /    A nd           | Web:      www.OpenFOAM.org                      |
|    \\/     M anipulation  |                                                 |
\*---------------------------------------------------------------------------*/
FoamFile
{
    version     2.0;
    format      ascii;
    class       volScalarField;
    location    "0.002";
    object      mag(U);
}
// * * * * * * * * * * * * * * * * * * * * * * * * * * * * * * * * * * * * * //

dimensions      [0 1 -1 0 0 0 0];

internalField   nonuniform List<scalar> 
1000
(
6.12667e-13
4.23032e-13
7.29365e-13
7.73127e-13
5.83492e-13
7.73127e-13
4.37619e-13
5.83492e-13
6.12667e-13
5.83492e-13
6.27254e-13
6.12667e-13
6.12667e-13
3.50095e-13
5.3973e-13
5.3973e-13
7.14778e-13
6.85603e-13
6.27254e-13
6.27254e-13
4.81381e-13
5.54317e-13
2.62571e-13
3.06333e-13
3.64683e-13
5.54317e-13
5.3973e-13
4.52206e-13
3.20921e-13
6.38662e-27
3.7927e-13
2.47984e-13
2.91746e-13
3.7927e-13
3.35508e-13
7.14778e-13
5.54317e-13
9.77349e-13
3.93857e-13
8.02302e-13
3.64683e-13
7.0019e-13
3.35508e-13
7.29365e-13
7.5854e-13
6.85603e-13
8.02302e-13
4.52206e-13
5.3973e-13
5.68905e-13
5.3973e-13
2.91746e-13
2.33397e-13
1.89635e-13
5.83492e-14
4.37619e-14
1.45873e-14
7.29365e-14
1.45873e-13
1.45873e-14
2.77159e-13
1.6046e-13
5.68905e-13
3.7927e-13
4.66794e-13
2.47984e-13
3.50095e-13
1.02111e-13
2.91746e-14
5.83492e-14
1.45873e-14
5.83492e-14
2.73261e-27
4.37619e-14
3.06333e-13
3.20921e-13
1.45873e-13
4.37619e-14
8.75238e-14
5.83492e-14
2.1881e-13
1.45873e-13
1.75048e-13
2.77159e-13
2.33397e-13
3.20921e-13
2.47984e-13
5.68905e-13
3.64683e-13
6.41841e-13
3.64683e-13
5.54317e-13
4.23032e-13
9.04413e-13
6.56429e-13
4.95968e-13
5.3973e-13
2.77159e-13
6.41841e-13
4.66794e-13
4.66794e-13
4.95968e-13
5.68905e-13
4.95968e-13
5.54317e-13
3.64683e-13
4.37619e-13
6.12667e-13
5.3973e-13
4.81381e-13
6.41841e-13
5.25143e-13
5.83492e-13
4.08444e-13
4.95968e-13
4.08444e-13
4.81381e-13
3.93857e-13
2.04222e-13
2.04222e-13
1.75048e-13
2.91746e-14
2.77159e-13
2.33397e-13
5.83492e-14
1.75048e-13
1.45873e-13
2.04222e-13
4.37619e-14
2.77159e-13
2.91746e-14
1.02111e-13
5.40212e-27
4.08444e-13
3.64683e-13
5.83492e-13
4.81381e-13
5.68905e-13
2.47984e-13
3.06333e-13
1.02111e-13
1.6046e-13
1.02111e-13
5.83492e-14
1.6046e-13
1.02111e-13
3.06333e-13
2.47984e-13
5.10556e-13
4.37619e-13
4.95968e-13
2.77159e-13
2.91746e-13
4.95968e-13
2.1881e-13
3.50095e-13
1.16698e-13
2.1881e-13
2.47984e-13
1.31286e-13
1.08232e-27
4.37619e-14
1.6046e-13
7.29365e-14
2.33397e-13
2.91746e-13
2.91746e-13
3.93857e-13
2.04222e-13
1.45873e-14
2.04222e-13
1.89635e-13
3.50095e-13
4.52206e-13
4.08444e-13
3.64683e-13
8.75238e-14
2.62571e-13
3.20921e-13
4.23032e-13
3.93857e-13
5.98079e-13
4.52206e-13
4.52206e-13
4.37619e-13
6.56429e-13
4.66794e-13
7.0019e-13
7.5854e-13
7.14778e-13
7.5854e-13
6.85603e-13
7.0019e-13
4.52206e-13
2.47984e-13
2.33397e-13
2.91746e-14
1.31286e-13
1.45873e-14
2.33397e-13
8.75238e-14
3.64683e-13
1.31286e-13
5.68905e-13
2.77159e-13
4.52206e-13
3.93857e-13
5.3973e-13
1.31286e-13
4.23032e-13
2.91746e-14
2.91746e-14
3.20921e-13
7.29365e-14
2.47984e-13
5.34532e-27
2.91746e-13
2.62571e-13
1.45873e-13
1.45873e-14
8.75238e-14
2.62571e-13
1.75048e-13
1.02111e-13
2.04222e-13
2.1881e-13
1.75048e-13
4.37619e-14
4.37619e-14
3.20921e-13
2.91746e-13
4.37619e-13
4.08444e-13
3.20921e-13
2.77159e-13
2.91746e-13
3.64683e-13
2.77159e-13
2.91746e-13
2.33397e-13
8.75238e-14
1.6046e-13
3.50095e-13
2.1881e-13
1.75048e-13
1.45873e-14
4.37619e-14
2.1881e-13
1.02111e-13
2.04222e-13
1.16698e-13
2.91746e-13
5.83492e-14
2.04222e-13
2.91746e-14
1.45873e-14
2.91746e-14
2.47984e-13
1.02111e-13
1.02111e-13
9.46633e-28
1.45873e-14
1.45873e-13
1.31286e-13
2.62571e-13
2.47984e-13
5.54317e-13
3.7927e-13
5.3973e-13
4.37619e-13
5.68905e-13
4.81381e-13
6.41841e-13
5.68905e-13
6.41841e-13
4.81381e-13
4.81381e-13
3.06333e-13
4.08444e-13
3.06333e-13
3.64683e-13
2.62571e-13
2.33397e-13
3.35508e-13
3.93857e-13
1.31286e-13
1.6046e-13
1.75048e-13
5.83492e-14
1.02111e-13
1.6046e-13
3.35508e-13
5.10556e-13
6.12667e-13
7.73127e-13
6.12667e-13
9.19e-13
5.3973e-13
6.56429e-13
2.62571e-13
1.89635e-13
7.00508e-28
1.16698e-13
7.29365e-14
8.75238e-14
7.29365e-14
1.75048e-13
2.04222e-13
3.35508e-13
3.35508e-13
5.68905e-13
5.68905e-13
7.5854e-13
7.73127e-13
8.02302e-13
6.71016e-13
6.56429e-13
4.08444e-13
3.50095e-13
3.64683e-13
3.35508e-13
4.08444e-13
5.10556e-13
4.95968e-13
6.27254e-13
5.83492e-13
6.12667e-13
6.12667e-13
5.10556e-13
2.77159e-13
2.33397e-13
3.20921e-13
1.16698e-13
2.62571e-13
2.47984e-13
5.54317e-13
3.35508e-13
3.64683e-13
5.68905e-13
7.14778e-13
7.5854e-13
9.77349e-13
8.60651e-13
9.04413e-13
8.75238e-13
9.91936e-13
7.5854e-13
6.12667e-13
6.27254e-13
3.93857e-13
4.81381e-13
3.20921e-13
4.95968e-13
4.66794e-13
6.27254e-13
5.83492e-13
8.16889e-13
4.81381e-13
5.25143e-13
5.10556e-13
5.54317e-13
5.98079e-13
6.12667e-13
6.12667e-13
5.3973e-13
4.95968e-13
4.37619e-13
1.02111e-13
1.16698e-13
7.73127e-13
1.7213e-12
4.2449e-12
9.45257e-12
2.21435e-11
5.00199e-11
1.13227e-10
2.52988e-10
5.60911e-10
1.23296e-09
2.68701e-09
5.80292e-09
1.24197e-08
2.63335e-08
5.53092e-08
1.15052e-07
2.36989e-07
4.83304e-07
9.75636e-07
1.94917e-06
3.85316e-06
7.53531e-06
1.4575e-05
2.78767e-05
5.27106e-05
9.85085e-05
0.000181911
0.000331847
0.000597847
0.00106339
0.00186686
0.00323379
0.00552522
0.00930843
0.0154574
0.0252911
0.0407571
0.0646657
0.100973
0.155106
0.234302
0.347926
0.507715
0.727875
1.02496
1.41748
1.92523
2.56833
3.36608
4.33574
5.49143
6.84328
8.39686
10.153
12.1084
14.2554
16.5838
19.0811
21.7337
24.5277
27.4494
30.4857
33.6243
36.8543
40.1657
43.5497
46.9984
50.5052
54.064
57.6697
61.3178
65.0043
68.7257
72.4788
76.2608
80.0693
83.9018
87.7562
91.6305
95.523
99.4318
103.355
107.292
111.241
115.2
119.168
123.144
127.127
131.115
135.109
139.106
143.106
147.107
151.11
155.112
159.115
163.113
167.113
171.103
175.095
179.076
183.054
187.025
190.984
194.936
198.876
202.801
206.713
210.609
214.485
218.34
222.173
225.978
229.754
233.496
237.201
240.862
244.475
248.034
251.532
254.96
258.309
261.57
264.732
267.783
270.708
273.496
276.131
278.598
280.884
282.976
284.862
286.535
287.991
289.23
290.258
291.088
291.735
292.221
292.571
292.81
292.962
293.053
293.1
293.118
293.122
293.12
293.114
293.104
293.096
293.093
293.092
293.093
293.097
293.104
293.111
293.12
293.128
293.136
293.144
293.151
293.156
293.161
293.165
293.166
293.166
293.165
293.164
293.164
293.164
293.163
293.163
293.163
293.163
293.163
293.162
293.155
293.154
293.167
293.18
293.193
293.239
293.222
293.144
293.11
293.082
293.061
293.05
293.05
293.058
293.072
293.089
293.105
293.117
293.126
293.132
293.135
293.138
293.138
293.136
293.135
293.133
293.13
293.128
293.125
293.123
293.12
293.119
293.119
293.118
293.116
293.115
293.112
293.109
293.106
293.102
293.098
293.095
293.092
293.089
293.087
293.085
293.081
293.077
293.073
293.068
293.064
293.058
293.051
293.036
293.01
292.95
292.878
292.699
292.541
292.009
291.195
289.054
284.252
273.358
247.849
197.979
126.182
59.5698
21.1742
6.24953
1.66093
0.42091
0.105024
0.0260979
0.00647898
0.00160812
0.000399127
9.90617e-05
2.45869e-05
6.10249e-06
1.51466e-06
3.75951e-07
9.33153e-08
2.31623e-08
5.74916e-09
1.42712e-09
3.53947e-10
8.77281e-11
2.15601e-11
5.10556e-12
1.12322e-12
1.45873e-14
4.3762e-14
2.1881e-13
1.45873e-14
1.16699e-13
1.60461e-13
1.02111e-13
1.45873e-14
1.16699e-13
2.33397e-13
1.45873e-14
2.1741e-27
7.29366e-14
5.83493e-14
2.24369e-27
1.16699e-13
1.02111e-13
1.02111e-13
1.16699e-13
2.47984e-13
1.31286e-13
3.20921e-13
2.33397e-13
4.3762e-13
4.08445e-13
5.68906e-13
6.71017e-13
5.39731e-13
4.3762e-13
2.33397e-13
4.08445e-13
2.04222e-13
4.23032e-13
3.64683e-13
5.9808e-13
2.04222e-13
5.83493e-13
7.14779e-13
1.09405e-12
7.43953e-13
8.02303e-13
7.14779e-13
5.9808e-13
5.83493e-13
5.68906e-13
4.52207e-13
5.54318e-13
6.56429e-13
8.46065e-13
6.41842e-13
1.06487e-12
7.00191e-13
7.29366e-13
7.00191e-13
5.9808e-13
7.00191e-13
7.14779e-13
6.12667e-13
2.62572e-13
4.95969e-13
3.06334e-13
4.66794e-13
2.91746e-13
6.27255e-13
6.41842e-13
8.89827e-13
7.87715e-13
7.14779e-13
5.25144e-13
6.56429e-13
4.81382e-13
6.56429e-13
6.12667e-13
7.87715e-13
8.02303e-13
9.04414e-13
8.46065e-13
8.60652e-13
5.25144e-13
8.02303e-13
6.56429e-13
8.75239e-13
8.1689e-13
8.60652e-13
8.75239e-13
8.02303e-13
7.87715e-13
7.29366e-13
5.39731e-13
6.71017e-13
4.81382e-13
6.12667e-13
4.81382e-13
2.33397e-13
2.04222e-13
1.75048e-13
2.47984e-13
2.04222e-13
8.75239e-14
2.91746e-14
1.02111e-13
8.75239e-14
1.60461e-13
5.83493e-14
2.77159e-13
3.20921e-13
2.47984e-13
4.3762e-14
1.02111e-13
1.60461e-13
8.75239e-14
1.75048e-13
1.45873e-13
2.91746e-14
5.83493e-14
2.1881e-13
7.29366e-14
1.31286e-13
1.02111e-13
7.29366e-14
1.45873e-14
1.89635e-13
4.3762e-14
8.75239e-14
1.89635e-13
4.3762e-14
1.45873e-14
1.89635e-13
1.45873e-14
8.75239e-14
1.60461e-13
1.31286e-13
1.16699e-13
7.29366e-14
1.45873e-14
1.75048e-13
1.45873e-14
1.31286e-13
8.75239e-14
1.16699e-13
4.3762e-14
1.02111e-13
1.89635e-13
1.16699e-13
7.29366e-14
5.83493e-14
1.16699e-13
4.3762e-14
1.55248e-27
5.83493e-14
2.91746e-14
2.91746e-14
1.31286e-13
7.29366e-14
3.35508e-13
4.3762e-14
1.60461e-13
1.16699e-13
1.16699e-13
1.16699e-13
1.02111e-13
5.83493e-14
1.60461e-13
5.83493e-14
1.45873e-14
2.62572e-13
1.31286e-13
2.04222e-13
7.29366e-14
7.29366e-14
5.83493e-14
1.45873e-13
5.83493e-14
1.45873e-14
2.47984e-13
4.3762e-14
7.29366e-14
1.45873e-14
2.91746e-14
2.04222e-13
4.3762e-14
1.31286e-13
1.31286e-13
2.91746e-14
1.31286e-13
4.3762e-14
1.02111e-13
1.45873e-14
2.91746e-13
2.91746e-13
4.08445e-13
1.75048e-13
1.75048e-13
2.91746e-14
2.47984e-13
2.47984e-13
6.27255e-13
4.23032e-13
3.64683e-13
8.75239e-14
1.75048e-13
1.02111e-13
2.1881e-13
7.29366e-14
2.33397e-13
2.91746e-14
3.35508e-13
7.29366e-14
1.31286e-13
7.29366e-14
1.45873e-14
4.3762e-14
1.02111e-13
5.74291e-28
2.47984e-13
1.89635e-13
2.77159e-13
1.45873e-14
1.89635e-13
2.91746e-14
1.60461e-13
4.3762e-14
1.16699e-13
1.45873e-14
1.31286e-13
1.45873e-14
8.75239e-14
7.29366e-14
1.75048e-13
2.62572e-13
2.62572e-13
5.10556e-13
1.02111e-13
2.62572e-13
4.3762e-14
1.45873e-13
2.1881e-13
1.31286e-13
2.33397e-13
1.75048e-13
1.31286e-13
1.16699e-13
1.45873e-13
7.29366e-14
2.62572e-13
2.47984e-13
3.50096e-13
2.62572e-13
4.08445e-13
6.48759e-27
1.45873e-13
2.91746e-14
5.83493e-14
1.45873e-14
8.75239e-14
1.31286e-13
1.45873e-14
2.04222e-13
1.45873e-14
2.1881e-13
4.3762e-14
1.31286e-13
2.91746e-14
2.91746e-14
1.94375e-27
1.16699e-13
2.47984e-13
1.60461e-13
7.29366e-14
1.45873e-13
2.04222e-13
5.83493e-14
1.60461e-13
4.3762e-14
2.1881e-13
2.04222e-13
4.3762e-13
4.08445e-13
3.50096e-13
4.23032e-13
1.89635e-13
2.1881e-13
5.83493e-14
1.60461e-13
1.75048e-13
1.83016e-28
4.3762e-14
3.06334e-13
2.62572e-13
2.1881e-13
8.75239e-14
1.02111e-13
5.83493e-14
2.91746e-14
1.16699e-13
2.1881e-13
8.75239e-14
1.89635e-13
8.75239e-14
1.45873e-14
3.06334e-13
8.75239e-14
1.45873e-14
2.91746e-13
2.04222e-13
8.75239e-14
8.75239e-14
5.83493e-14
2.1881e-13
3.06334e-13
3.93858e-13
5.54318e-13
5.39731e-13
6.27255e-13
2.91746e-13
4.95969e-13
3.06334e-13
4.08445e-13
1.75048e-13
4.52207e-13
2.91746e-14
1.02111e-13
7.29366e-14
2.04222e-13
1.02111e-13
1.89635e-13
3.35508e-13
1.31286e-13
2.91746e-13
2.91746e-14
2.91746e-14
3.35508e-13
2.04222e-13
3.64683e-13
4.3762e-14
4.52207e-13
2.04222e-13
4.95969e-13
2.04222e-13
3.93858e-13
4.66794e-13
5.39731e-13
5.83493e-13
2.91746e-13
3.20921e-13
2.33397e-13
2.47984e-13
1.02111e-13
2.62572e-13
7.29366e-14
1.02111e-13
8.75239e-14
3.33846e-27
1.31286e-13
7.29366e-14
2.33397e-13
1.75048e-13
1.16699e-13
1.45873e-13
2.91746e-14
2.91746e-14
2.91746e-14
1.16699e-13
2.91746e-14
)
;

boundaryField
{
    sides
    {
        type            calculated;
        value           nonuniform List<scalar> 2(2.91746e-14 6.12667e-13);
    }
    empty
    {
        type            empty;
    }
}


// ************************************************************************* //
