/*--------------------------------*- C++ -*----------------------------------*\
| =========                 |                                                 |
| \\      /  F ield         | OpenFOAM: The Open Source CFD Toolbox           |
|  \\    /   O peration     | Version:  4.0                                   |
|   \\  /    A nd           | Web:      www.OpenFOAM.org                      |
|    \\/     M anipulation  |                                                 |
\*---------------------------------------------------------------------------*/
FoamFile
{
    version     2.0;
    format      ascii;
    class       surfaceScalarField;
    location    "0.002";
    object      phi;
}
// * * * * * * * * * * * * * * * * * * * * * * * * * * * * * * * * * * * * * //

dimensions      [1 0 -1 0 0 0 0];

internalField   nonuniform List<scalar> 
999
(
-1.98952e-12
-2.33058e-12
-2.78533e-12
-2.89901e-12
-2.84217e-12
-2.10321e-12
-2.27374e-12
-2.27374e-12
-2.27374e-12
-2.33058e-12
-2.33058e-12
-2.6148e-12
-1.64846e-12
-1.7053e-12
-1.81899e-12
-2.33058e-12
-2.84217e-12
-2.78533e-12
-2.6148e-12
-2.04636e-12
-2.38742e-12
-1.47793e-12
-1.08002e-12
-1.36424e-12
-1.93268e-12
-2.04636e-12
-1.98952e-12
-1.47793e-12
-7.95808e-13
-3.97904e-13
-1.42109e-12
-1.25056e-12
-1.19371e-12
-1.7053e-12
-2.27374e-12
-2.6148e-12
-3.18323e-12
-2.95586e-12
-2.72848e-12
-2.04636e-12
-2.10321e-12
-1.98952e-12
-2.27374e-12
-2.67164e-12
-3.41061e-12
-3.0127e-12
-2.33058e-12
-2.04636e-12
-2.38742e-12
-2.10321e-12
-1.76215e-12
-1.08002e-12
-6.25278e-13
-3.41061e-13
1.7053e-13
-5.68434e-14
1.7053e-13
3.97904e-13
3.97904e-13
2.27374e-13
1.3074e-12
1.08002e-12
2.44427e-12
1.42109e-12
1.53477e-12
1.53477e-12
6.25278e-13
3.41061e-13
1.7053e-13
-2.84217e-13
0
-1.7053e-13
-5.68434e-14
-9.09495e-13
-1.42109e-12
-1.08002e-12
-1.7053e-13
-5.68434e-14
-2.27374e-13
-9.09495e-13
-5.11591e-13
-5.11591e-13
-1.13687e-12
-8.52651e-13
-1.13687e-12
-1.13687e-12
-1.76215e-12
-1.87583e-12
-2.16005e-12
-1.93268e-12
-1.98952e-12
-1.64846e-12
-2.78533e-12
-3.41061e-12
-2.38742e-12
-2.27374e-12
-1.53477e-12
-1.87583e-12
-2.33058e-12
-1.7053e-12
-2.10321e-12
-2.10321e-12
-1.98952e-12
-2.33058e-12
-2.10321e-12
-1.3074e-12
-2.10321e-12
-2.21689e-12
-2.04636e-12
-2.21689e-12
-2.38742e-12
-2.27374e-12
-1.93268e-12
-1.59162e-12
-1.93268e-12
-1.98952e-12
-1.7053e-12
-1.3074e-12
-8.52651e-13
-1.13687e-13
3.41061e-13
9.09495e-13
5.68434e-14
-2.84217e-13
-2.27374e-13
-6.82121e-13
-8.52651e-13
-3.97904e-13
-6.25278e-13
-7.95808e-13
-4.54747e-13
-5.68434e-14
-9.09495e-13
-1.87583e-12
-1.59162e-12
-2.38742e-12
-2.04636e-12
-1.76215e-12
-1.25056e-12
-7.38964e-13
-6.82121e-13
-3.97904e-13
0
-1.13687e-13
-5.11591e-13
-1.13687e-12
-1.08002e-12
-1.42109e-12
-1.87583e-12
-2.10321e-12
-1.42109e-12
-8.52651e-13
-2.04636e-12
-1.3074e-12
-1.08002e-12
-8.52651e-13
-9.66338e-13
1.7053e-13
7.38964e-13
2.84217e-13
5.68434e-14
5.11591e-13
4.54747e-13
5.68434e-13
1.25056e-12
1.25056e-12
1.19371e-12
1.36424e-12
3.41061e-13
-4.54747e-13
-5.68434e-13
-1.08002e-12
-1.59162e-12
-1.81899e-12
-1.42109e-12
-1.02318e-12
-5.68434e-13
-1.19371e-12
-1.53477e-12
-1.59162e-12
-1.87583e-12
-2.33058e-12
-1.59162e-12
-1.93268e-12
-1.87583e-12
-2.72848e-12
-2.04636e-12
-3.0127e-12
-2.89901e-12
-2.89901e-12
-2.84217e-12
-2.95586e-12
-2.50111e-12
-1.25056e-12
-9.09495e-13
-5.11591e-13
5.11591e-13
4.54747e-13
4.54747e-13
6.82121e-13
9.66338e-13
1.19371e-12
1.13687e-12
1.81899e-12
1.36424e-12
1.81899e-12
1.64846e-12
1.47793e-12
1.08002e-12
1.19371e-12
1.13687e-13
-7.38964e-13
-9.09495e-13
-5.68434e-13
-7.38964e-13
-5.11591e-13
-8.52651e-13
-1.08002e-12
-2.84217e-13
1.13687e-13
7.95808e-13
1.02318e-12
3.41061e-13
7.38964e-13
1.02318e-12
6.82121e-13
5.68434e-13
5.68434e-14
3.41061e-13
1.53477e-12
1.47793e-12
1.76215e-12
1.25056e-12
1.42109e-12
1.25056e-12
1.08002e-12
1.53477e-12
1.08002e-12
8.52651e-13
7.95808e-13
5.68434e-13
1.08002e-12
1.13687e-12
8.52651e-13
3.41061e-13
-5.68434e-14
-4.54747e-13
-5.11591e-13
-7.38964e-13
-7.95808e-13
-7.38964e-13
-6.25278e-13
-2.84217e-13
-3.41061e-13
5.68434e-14
-1.7053e-13
-6.25278e-13
-7.95808e-13
-3.97904e-13
-2.27374e-13
-2.84217e-13
-1.13687e-13
-7.95808e-13
-6.82121e-13
-1.08002e-12
-1.64846e-12
-2.16005e-12
-1.7053e-12
-2.21689e-12
-1.87583e-12
-2.44427e-12
-1.93268e-12
-2.67164e-12
-2.38742e-12
-2.16005e-12
-2.10321e-12
-1.42109e-12
-1.3074e-12
-1.64846e-12
-1.25056e-12
-1.47793e-12
-9.09495e-13
-1.42109e-12
-1.19371e-12
-1.42109e-12
-5.11591e-13
-7.38964e-13
-5.11591e-13
-2.27374e-13
-4.54747e-13
-1.08002e-12
-1.42109e-12
-2.33058e-12
-2.6148e-12
-2.89901e-12
-2.89901e-12
-2.84217e-12
-2.55795e-12
-1.93268e-12
-7.95808e-13
-5.11591e-13
-2.84217e-13
-3.97904e-13
-6.82121e-13
-2.27374e-13
-5.68434e-13
-7.95808e-13
-1.3074e-12
-9.66338e-13
-2.16005e-12
-2.38742e-12
-2.44427e-12
-3.06954e-12
-3.46745e-12
-3.06954e-12
-2.27374e-12
-2.21689e-12
-1.53477e-12
-1.19371e-12
-1.25056e-12
-1.36424e-12
-2.04636e-12
-1.64846e-12
-2.38742e-12
-2.44427e-12
-2.16005e-12
-2.27374e-12
-2.10321e-12
-1.76215e-12
-1.08002e-12
-8.52651e-13
-1.08002e-12
-5.68434e-13
-1.36424e-12
-1.59162e-12
-1.87583e-12
-1.25056e-12
-1.64846e-12
-2.72848e-12
-2.78533e-12
-3.46745e-12
-3.41061e-12
-3.86535e-12
-3.46745e-12
-4.03588e-12
-3.63798e-12
-2.38742e-12
-2.38742e-12
-2.04636e-12
-1.53477e-12
-1.76215e-12
-1.47793e-12
-2.10321e-12
-1.81899e-12
-2.44427e-12
-3.12639e-12
-2.55795e-12
-2.04636e-12
-1.98952e-12
-1.98952e-12
-2.21689e-12
-2.67164e-12
-2.72848e-12
-2.10321e-12
-1.93268e-12
-1.93268e-12
-7.38964e-13
5.11591e-13
1.36424e-12
4.60432e-12
1.0175e-11
2.39879e-11
5.5536e-11
1.27272e-10
2.88708e-10
6.49038e-10
1.44536e-09
3.19369e-09
6.99526e-09
1.51881e-08
3.26797e-08
6.9671e-08
1.47146e-07
3.07818e-07
6.37701e-07
1.3081e-06
2.65636e-06
5.33915e-06
1.06197e-05
2.08986e-05
4.06815e-05
7.83171e-05
0.000149072
0.000280487
0.000521552
0.000958164
0.00173869
0.00311545
0.00551073
0.00961949
0.0165657
0.0281343
0.047106
0.077727
0.126344
0.202236
0.31864
0.493974
0.753169
1.12899
1.66316
2.40697
3.4212
4.77486
6.54279
8.80192
11.6266
15.0833
19.2255
24.0893
29.6908
36.0249
43.066
50.7708
59.0814
67.9302
77.2441
86.9488
96.9721
107.246
117.707
128.298
138.97
149.679
160.385
171.058
181.669
192.194
202.614
212.911
223.071
233.082
242.934
252.618
262.127
271.454
280.593
289.541
298.293
306.846
315.197
323.345
331.288
339.025
346.554
353.877
360.992
367.9
374.603
381.098
387.394
393.475
399.383
405.036
410.584
415.805
420.982
425.854
430.536
435.2
439.379
443.667
447.663
451.37
455.097
458.583
461.797
464.96
467.982
470.745
473.363
475.897
478.258
480.415
482.44
484.361
486.14
487.742
489.2
490.558
491.796
492.899
493.856
494.7
495.451
496.102
496.644
497.071
497.416
497.689
497.901
498.046
498.131
498.165
498.162
498.15
498.13
498.091
498.028
497.969
497.923
497.879
497.838
497.797
497.755
497.709
497.664
497.624
497.584
497.542
497.494
497.442
497.387
497.331
497.274
497.214
497.147
497.075
496.995
496.913
496.825
496.734
496.633
496.525
496.404
496.276
496.132
495.983
495.812
495.631
495.422
495.203
494.957
494.709
494.429
494.128
493.87
493.579
492.903
491.386
487.651
479.447
467.952
453.597
437.218
419.815
402.393
385.819
370.74
357.555
346.43
337.348
330.16
324.638
320.514
317.526
315.425
313.995
313.057
312.466
312.113
311.916
311.816
311.773
311.757
311.754
311.761
311.766
311.768
311.766
311.761
311.754
311.745
311.735
311.725
311.714
311.704
311.694
311.685
311.677
311.668
311.66
311.652
311.643
311.634
311.621
311.604
311.577
311.537
311.459
311.364
311.172
310.897
310.36
309.119
306.648
300.55
286.54
254.698
194.79
120.301
56.9008
20.4724
5.93324
1.53942
0.385596
0.095827
0.0237843
0.00590264
0.00146493
0.00036358
9.0238e-05
2.23968e-05
5.55887e-06
1.37973e-06
3.42457e-07
8.50011e-08
2.10985e-08
5.23695e-09
1.2999e-09
3.22629e-10
7.99858e-11
1.97744e-11
4.82459e-12
1.10845e-12
2.06057e-13
-2.13163e-14
-3.55271e-14
-6.39488e-14
-4.26326e-14
1.42109e-14
2.84217e-14
-3.55271e-14
-4.26326e-14
3.55271e-14
4.9738e-14
-7.10543e-15
0
-1.42109e-14
7.10543e-15
3.55271e-14
4.9738e-14
7.81597e-14
4.26326e-14
1.13687e-13
1.06581e-13
1.06581e-13
1.27898e-13
2.06057e-13
2.13163e-13
2.4869e-13
3.12639e-13
3.05533e-13
2.27374e-13
1.49214e-13
1.77636e-13
1.35003e-13
1.63425e-13
2.06057e-13
2.34479e-13
1.98952e-13
2.06057e-13
2.91323e-13
4.9738e-13
4.40536e-13
3.90799e-13
3.69482e-13
3.55271e-13
2.98428e-13
2.84217e-13
2.98428e-13
2.34479e-13
3.12639e-13
3.48166e-13
3.97904e-13
4.05009e-13
4.1922e-13
3.97904e-13
3.2685e-13
3.41061e-13
3.05533e-13
3.83693e-13
3.55271e-13
1.91847e-13
1.7053e-13
2.27374e-13
1.98952e-13
1.84741e-13
2.13163e-13
3.05533e-13
3.97904e-13
4.33431e-13
3.69482e-13
3.12639e-13
2.77112e-13
2.84217e-13
3.05533e-13
3.33955e-13
3.2685e-13
4.33431e-13
4.26326e-13
4.54747e-13
4.1922e-13
3.2685e-13
3.76588e-13
3.19744e-13
4.05009e-13
4.33431e-13
4.26326e-13
3.97904e-13
4.54747e-13
3.97904e-13
3.76588e-13
3.2685e-13
3.05533e-13
2.62901e-13
2.77112e-13
2.70006e-13
2.13163e-13
1.06581e-13
9.9476e-14
8.52651e-14
1.42109e-13
9.23706e-14
4.9738e-14
-2.84217e-14
7.10543e-15
6.39488e-14
6.39488e-14
8.52651e-14
1.56319e-13
1.63425e-13
7.10543e-14
-2.13163e-14
1.42109e-14
8.52651e-14
6.39488e-14
7.10543e-15
-4.9738e-14
7.10543e-15
-9.9476e-14
-5.68434e-14
-5.68434e-14
-1.42109e-14
7.10543e-15
-7.10543e-15
-2.84217e-14
-8.52651e-14
-2.84217e-14
-7.10543e-14
-6.39488e-14
0
5.68434e-14
2.84217e-14
4.9738e-14
4.9738e-14
8.52651e-14
2.13163e-14
-3.55271e-14
3.55271e-14
4.9738e-14
4.26326e-14
2.84217e-14
2.84217e-14
0
5.68434e-14
2.13163e-14
7.10543e-14
9.23706e-14
5.68434e-14
1.42109e-14
7.81597e-14
7.10543e-15
-1.42109e-14
-1.42109e-14
-7.10543e-15
0
4.26326e-14
3.55271e-14
8.52651e-14
6.39488e-14
3.55271e-14
7.10543e-15
-4.26326e-14
-6.39488e-14
-7.10543e-15
1.42109e-14
2.13163e-14
4.26326e-14
-2.13163e-14
-4.9738e-14
-9.9476e-14
-9.23706e-14
-5.68434e-14
-1.42109e-14
4.26326e-14
2.84217e-14
5.68434e-14
-2.84217e-14
-5.68434e-14
-6.39488e-14
-3.55271e-14
-2.13163e-14
-7.10543e-15
7.10543e-14
4.9738e-14
5.68434e-14
4.9738e-14
5.68434e-14
-3.55271e-14
-2.84217e-14
-7.81597e-14
-2.13163e-14
6.39488e-14
1.56319e-13
1.77636e-13
1.49214e-13
1.13687e-13
7.10543e-14
4.26326e-14
1.63425e-13
2.27374e-13
2.84217e-13
1.91847e-13
1.06581e-13
7.81597e-14
4.9738e-14
9.23706e-14
3.55271e-14
5.68434e-14
2.84217e-14
7.10543e-14
8.52651e-14
1.42109e-14
2.84217e-14
-2.13163e-14
2.84217e-14
4.26326e-14
0
-4.9738e-14
-9.9476e-14
-1.42109e-13
-4.9738e-14
-5.68434e-14
-5.68434e-14
-4.9738e-14
-3.55271e-14
3.55271e-14
5.68434e-14
-4.9738e-14
-4.26326e-14
3.55271e-14
3.55271e-14
7.81597e-14
9.23706e-14
1.49214e-13
1.98952e-13
1.98952e-13
1.06581e-13
2.84217e-14
3.55271e-14
8.52651e-14
1.20792e-13
7.10543e-14
1.42109e-13
7.81597e-14
1.42109e-14
2.13163e-14
7.10543e-15
6.39488e-14
1.06581e-13
1.49214e-13
1.77636e-13
1.7053e-13
1.20792e-13
2.84217e-14
5.68434e-14
-1.42109e-14
1.42109e-14
0
-6.39488e-14
-1.42109e-14
-4.26326e-14
-5.68434e-14
-6.39488e-14
-5.68434e-14
-2.13163e-14
-2.13163e-14
2.13163e-14
1.42109e-14
-2.13163e-14
-1.06581e-13
-9.9476e-14
-7.10543e-14
-7.10543e-15
9.9476e-14
8.52651e-14
6.39488e-14
2.84217e-14
5.68434e-14
1.13687e-13
1.7053e-13
1.84741e-13
1.98952e-13
1.84741e-13
1.49214e-13
8.52651e-14
9.9476e-14
4.26326e-14
9.9476e-14
4.26326e-14
-7.10543e-15
-7.10543e-14
-1.91847e-13
-9.9476e-14
-9.9476e-14
-5.68434e-14
-3.55271e-14
-7.10543e-15
3.55271e-14
9.9476e-14
7.81597e-14
7.81597e-14
2.13163e-14
-3.55271e-14
-8.52651e-14
-7.10543e-14
4.26326e-14
8.52651e-14
1.13687e-13
1.13687e-13
0
4.26326e-14
-8.52651e-14
-1.42109e-13
-1.91847e-13
-2.27374e-13
-2.98428e-13
-3.19744e-13
-2.27374e-13
-1.77636e-13
-2.20268e-13
-1.91847e-13
-1.13687e-13
-1.98952e-13
-8.52651e-14
-5.68434e-14
-2.13163e-14
8.52651e-14
7.81597e-14
6.39488e-14
1.42109e-13
1.06581e-13
9.23706e-14
8.52651e-14
-1.42109e-14
-9.9476e-14
-1.63425e-13
-1.20792e-13
-9.9476e-14
-1.49214e-13
-1.35003e-13
-1.98952e-13
-1.84741e-13
-1.35003e-13
-2.55795e-13
-2.34479e-13
-2.70006e-13
-2.41585e-13
-1.63425e-13
-1.20792e-13
-1.56319e-13
-5.68434e-14
-1.20792e-13
-7.81597e-14
-4.9738e-14
-2.13163e-14
3.55271e-14
2.84217e-14
1.42109e-14
-7.81597e-14
-1.13687e-13
-4.9738e-14
-9.23706e-14
-4.26326e-14
7.10543e-15
-3.55271e-14
-1.42109e-14
-2.13163e-14
)
;

boundaryField
{
    sides
    {
        type            calculated;
        value           nonuniform List<scalar> 2(1.45519e-14 2.38651e-12);
    }
    empty
    {
        type            empty;
        value           nonuniform 0();
    }
}


// ************************************************************************* //
