/*--------------------------------*- C++ -*----------------------------------*\
| =========                 |                                                 |
| \\      /  F ield         | OpenFOAM: The Open Source CFD Toolbox           |
|  \\    /   O peration     | Version:  4.0                                   |
|   \\  /    A nd           | Web:      www.OpenFOAM.org                      |
|    \\/     M anipulation  |                                                 |
\*---------------------------------------------------------------------------*/
FoamFile
{
    version     2.0;
    format      ascii;
    class       volVectorField;
    location    "0.002";
    object      U;
}
// * * * * * * * * * * * * * * * * * * * * * * * * * * * * * * * * * * * * * //

dimensions      [0 1 -1 0 0 0 0];

internalField   nonuniform List<vector> 
1000
(
(-6.12667e-13 0 0)
(-4.23032e-13 0 0)
(-7.29365e-13 0 0)
(-7.73127e-13 0 0)
(-5.83492e-13 0 0)
(-7.73127e-13 0 0)
(-4.37619e-13 0 0)
(-5.83492e-13 0 0)
(-6.12667e-13 0 0)
(-5.83492e-13 0 0)
(-6.27254e-13 0 0)
(-6.12667e-13 0 0)
(-6.12667e-13 0 0)
(-3.50095e-13 0 0)
(-5.3973e-13 0 0)
(-5.3973e-13 0 0)
(-7.14778e-13 0 0)
(-6.85603e-13 0 0)
(-6.27254e-13 0 0)
(-6.27254e-13 0 0)
(-4.81381e-13 0 0)
(-5.54317e-13 0 0)
(-2.62571e-13 0 0)
(-3.06333e-13 0 0)
(-3.64683e-13 0 0)
(-5.54317e-13 0 0)
(-5.3973e-13 0 0)
(-4.52206e-13 0 0)
(-3.20921e-13 0 0)
(-6.38662e-27 0 0)
(-3.7927e-13 0 0)
(-2.47984e-13 0 0)
(-2.91746e-13 0 0)
(-3.7927e-13 0 0)
(-3.35508e-13 0 0)
(-7.14778e-13 0 0)
(-5.54317e-13 0 0)
(-9.77349e-13 0 0)
(-3.93857e-13 0 0)
(-8.02302e-13 0 0)
(-3.64683e-13 0 0)
(-7.0019e-13 0 0)
(-3.35508e-13 0 0)
(-7.29365e-13 0 0)
(-7.5854e-13 0 0)
(-6.85603e-13 0 0)
(-8.02302e-13 0 0)
(-4.52206e-13 0 0)
(-5.3973e-13 0 0)
(-5.68905e-13 0 0)
(-5.3973e-13 0 0)
(-2.91746e-13 0 0)
(-2.33397e-13 0 0)
(-1.89635e-13 0 0)
(5.83492e-14 0 0)
(-4.37619e-14 0 0)
(1.45873e-14 0 0)
(7.29365e-14 0 0)
(1.45873e-13 0 0)
(-1.45873e-14 0 0)
(2.77159e-13 0 0)
(1.6046e-13 0 0)
(5.68905e-13 0 0)
(3.7927e-13 0 0)
(4.66794e-13 0 0)
(2.47984e-13 0 0)
(3.50095e-13 0 0)
(1.02111e-13 0 0)
(2.91746e-14 0 0)
(-5.83492e-14 0 0)
(1.45873e-14 0 0)
(-5.83492e-14 0 0)
(-2.73261e-27 0 0)
(-4.37619e-14 0 0)
(-3.06333e-13 0 0)
(-3.20921e-13 0 0)
(-1.45873e-13 0 0)
(4.37619e-14 0 0)
(-8.75238e-14 0 0)
(-5.83492e-14 0 0)
(-2.1881e-13 0 0)
(-1.45873e-13 0 0)
(-1.75048e-13 0 0)
(-2.77159e-13 0 0)
(-2.33397e-13 0 0)
(-3.20921e-13 0 0)
(-2.47984e-13 0 0)
(-5.68905e-13 0 0)
(-3.64683e-13 0 0)
(-6.41841e-13 0 0)
(-3.64683e-13 0 0)
(-5.54317e-13 0 0)
(-4.23032e-13 0 0)
(-9.04413e-13 0 0)
(-6.56429e-13 0 0)
(-4.95968e-13 0 0)
(-5.3973e-13 0 0)
(-2.77159e-13 0 0)
(-6.41841e-13 0 0)
(-4.66794e-13 0 0)
(-4.66794e-13 0 0)
(-4.95968e-13 0 0)
(-5.68905e-13 0 0)
(-4.95968e-13 0 0)
(-5.54317e-13 0 0)
(-3.64683e-13 0 0)
(-4.37619e-13 0 0)
(-6.12667e-13 0 0)
(-5.3973e-13 0 0)
(-4.81381e-13 0 0)
(-6.41841e-13 0 0)
(-5.25143e-13 0 0)
(-5.83492e-13 0 0)
(-4.08444e-13 0 0)
(-4.95968e-13 0 0)
(-4.08444e-13 0 0)
(-4.81381e-13 0 0)
(-3.93857e-13 0 0)
(-2.04222e-13 0 0)
(-2.04222e-13 0 0)
(1.75048e-13 0 0)
(2.91746e-14 0 0)
(2.77159e-13 0 0)
(-2.33397e-13 0 0)
(5.83492e-14 0 0)
(-1.75048e-13 0 0)
(-1.45873e-13 0 0)
(-2.04222e-13 0 0)
(-4.37619e-14 0 0)
(-2.77159e-13 0 0)
(-2.91746e-14 0 0)
(-1.02111e-13 0 0)
(-5.40212e-27 0 0)
(-4.08444e-13 0 0)
(-3.64683e-13 0 0)
(-5.83492e-13 0 0)
(-4.81381e-13 0 0)
(-5.68905e-13 0 0)
(-2.47984e-13 0 0)
(-3.06333e-13 0 0)
(-1.02111e-13 0 0)
(-1.6046e-13 0 0)
(-1.02111e-13 0 0)
(5.83492e-14 0 0)
(-1.6046e-13 0 0)
(-1.02111e-13 0 0)
(-3.06333e-13 0 0)
(-2.47984e-13 0 0)
(-5.10556e-13 0 0)
(-4.37619e-13 0 0)
(-4.95968e-13 0 0)
(-2.77159e-13 0 0)
(-2.91746e-13 0 0)
(-4.95968e-13 0 0)
(-2.1881e-13 0 0)
(-3.50095e-13 0 0)
(-1.16698e-13 0 0)
(-2.1881e-13 0 0)
(2.47984e-13 0 0)
(1.31286e-13 0 0)
(1.08232e-27 0 0)
(4.37619e-14 0 0)
(1.6046e-13 0 0)
(7.29365e-14 0 0)
(2.33397e-13 0 0)
(2.91746e-13 0 0)
(2.91746e-13 0 0)
(3.93857e-13 0 0)
(2.04222e-13 0 0)
(1.45873e-14 0 0)
(-2.04222e-13 0 0)
(-1.89635e-13 0 0)
(-3.50095e-13 0 0)
(-4.52206e-13 0 0)
(-4.08444e-13 0 0)
(-3.64683e-13 0 0)
(-8.75238e-14 0 0)
(-2.62571e-13 0 0)
(-3.20921e-13 0 0)
(-4.23032e-13 0 0)
(-3.93857e-13 0 0)
(-5.98079e-13 0 0)
(-4.52206e-13 0 0)
(-4.52206e-13 0 0)
(-4.37619e-13 0 0)
(-6.56429e-13 0 0)
(-4.66794e-13 0 0)
(-7.0019e-13 0 0)
(-7.5854e-13 0 0)
(-7.14778e-13 0 0)
(-7.5854e-13 0 0)
(-6.85603e-13 0 0)
(-7.0019e-13 0 0)
(-4.52206e-13 0 0)
(-2.47984e-13 0 0)
(-2.33397e-13 0 0)
(2.91746e-14 0 0)
(1.31286e-13 0 0)
(1.45873e-14 0 0)
(2.33397e-13 0 0)
(8.75238e-14 0 0)
(3.64683e-13 0 0)
(1.31286e-13 0 0)
(5.68905e-13 0 0)
(2.77159e-13 0 0)
(4.52206e-13 0 0)
(3.93857e-13 0 0)
(5.3973e-13 0 0)
(1.31286e-13 0 0)
(4.23032e-13 0 0)
(2.91746e-14 0 0)
(2.91746e-14 0 0)
(-3.20921e-13 0 0)
(-7.29365e-14 0 0)
(-2.47984e-13 0 0)
(-5.34532e-27 0 0)
(-2.91746e-13 0 0)
(-2.62571e-13 0 0)
(-1.45873e-13 0 0)
(1.45873e-14 0 0)
(8.75238e-14 0 0)
(2.62571e-13 0 0)
(1.75048e-13 0 0)
(1.02111e-13 0 0)
(2.04222e-13 0 0)
(2.1881e-13 0 0)
(1.75048e-13 0 0)
(4.37619e-14 0 0)
(-4.37619e-14 0 0)
(3.20921e-13 0 0)
(2.91746e-13 0 0)
(4.37619e-13 0 0)
(4.08444e-13 0 0)
(3.20921e-13 0 0)
(2.77159e-13 0 0)
(2.91746e-13 0 0)
(3.64683e-13 0 0)
(2.77159e-13 0 0)
(2.91746e-13 0 0)
(2.33397e-13 0 0)
(8.75238e-14 0 0)
(1.6046e-13 0 0)
(3.50095e-13 0 0)
(2.1881e-13 0 0)
(1.75048e-13 0 0)
(1.45873e-14 0 0)
(-4.37619e-14 0 0)
(-2.1881e-13 0 0)
(-1.02111e-13 0 0)
(-2.04222e-13 0 0)
(-1.16698e-13 0 0)
(-2.91746e-13 0 0)
(5.83492e-14 0 0)
(-2.04222e-13 0 0)
(2.91746e-14 0 0)
(-1.45873e-14 0 0)
(-2.91746e-14 0 0)
(-2.47984e-13 0 0)
(-1.02111e-13 0 0)
(-1.02111e-13 0 0)
(-9.46633e-28 0 0)
(-1.45873e-14 0 0)
(-1.45873e-13 0 0)
(-1.31286e-13 0 0)
(-2.62571e-13 0 0)
(-2.47984e-13 0 0)
(-5.54317e-13 0 0)
(-3.7927e-13 0 0)
(-5.3973e-13 0 0)
(-4.37619e-13 0 0)
(-5.68905e-13 0 0)
(-4.81381e-13 0 0)
(-6.41841e-13 0 0)
(-5.68905e-13 0 0)
(-6.41841e-13 0 0)
(-4.81381e-13 0 0)
(-4.81381e-13 0 0)
(-3.06333e-13 0 0)
(-4.08444e-13 0 0)
(-3.06333e-13 0 0)
(-3.64683e-13 0 0)
(-2.62571e-13 0 0)
(-2.33397e-13 0 0)
(-3.35508e-13 0 0)
(-3.93857e-13 0 0)
(-1.31286e-13 0 0)
(-1.6046e-13 0 0)
(-1.75048e-13 0 0)
(-5.83492e-14 0 0)
(-1.02111e-13 0 0)
(-1.6046e-13 0 0)
(-3.35508e-13 0 0)
(-5.10556e-13 0 0)
(-6.12667e-13 0 0)
(-7.73127e-13 0 0)
(-6.12667e-13 0 0)
(-9.19e-13 0 0)
(-5.3973e-13 0 0)
(-6.56429e-13 0 0)
(-2.62571e-13 0 0)
(-1.89635e-13 0 0)
(-7.00508e-28 0 0)
(-1.16698e-13 0 0)
(-7.29365e-14 0 0)
(-8.75238e-14 0 0)
(-7.29365e-14 0 0)
(-1.75048e-13 0 0)
(-2.04222e-13 0 0)
(-3.35508e-13 0 0)
(-3.35508e-13 0 0)
(-5.68905e-13 0 0)
(-5.68905e-13 0 0)
(-7.5854e-13 0 0)
(-7.73127e-13 0 0)
(-8.02302e-13 0 0)
(-6.71016e-13 0 0)
(-6.56429e-13 0 0)
(-4.08444e-13 0 0)
(-3.50095e-13 0 0)
(-3.64683e-13 0 0)
(-3.35508e-13 0 0)
(-4.08444e-13 0 0)
(-5.10556e-13 0 0)
(-4.95968e-13 0 0)
(-6.27254e-13 0 0)
(-5.83492e-13 0 0)
(-6.12667e-13 0 0)
(-6.12667e-13 0 0)
(-5.10556e-13 0 0)
(-2.77159e-13 0 0)
(-2.33397e-13 0 0)
(-3.20921e-13 0 0)
(-1.16698e-13 0 0)
(-2.62571e-13 0 0)
(-2.47984e-13 0 0)
(-5.54317e-13 0 0)
(-3.35508e-13 0 0)
(-3.64683e-13 0 0)
(-5.68905e-13 0 0)
(-7.14778e-13 0 0)
(-7.5854e-13 0 0)
(-9.77349e-13 0 0)
(-8.60651e-13 0 0)
(-9.04413e-13 0 0)
(-8.75238e-13 0 0)
(-9.91936e-13 0 0)
(-7.5854e-13 0 0)
(-6.12667e-13 0 0)
(-6.27254e-13 0 0)
(-3.93857e-13 0 0)
(-4.81381e-13 0 0)
(-3.20921e-13 0 0)
(-4.95968e-13 0 0)
(-4.66794e-13 0 0)
(-6.27254e-13 0 0)
(-5.83492e-13 0 0)
(-8.16889e-13 0 0)
(-4.81381e-13 0 0)
(-5.25143e-13 0 0)
(-5.10556e-13 0 0)
(-5.54317e-13 0 0)
(-5.98079e-13 0 0)
(-6.12667e-13 0 0)
(-6.12667e-13 0 0)
(-5.3973e-13 0 0)
(-4.95968e-13 0 0)
(-4.37619e-13 0 0)
(1.02111e-13 0 0)
(1.16698e-13 0 0)
(7.73127e-13 0 0)
(1.7213e-12 0 0)
(4.2449e-12 0 0)
(9.45257e-12 0 0)
(2.21435e-11 0 0)
(5.00199e-11 0 0)
(1.13227e-10 0 0)
(2.52988e-10 0 0)
(5.60911e-10 0 0)
(1.23296e-09 0 0)
(2.68701e-09 0 0)
(5.80292e-09 0 0)
(1.24197e-08 0 0)
(2.63335e-08 0 0)
(5.53092e-08 0 0)
(1.15052e-07 0 0)
(2.36989e-07 0 0)
(4.83304e-07 0 0)
(9.75636e-07 0 0)
(1.94917e-06 0 0)
(3.85316e-06 0 0)
(7.53531e-06 0 0)
(1.4575e-05 0 0)
(2.78767e-05 0 0)
(5.27106e-05 0 0)
(9.85085e-05 0 0)
(0.000181911 0 0)
(0.000331847 0 0)
(0.000597847 0 0)
(0.00106339 0 0)
(0.00186686 0 0)
(0.00323379 0 0)
(0.00552522 0 0)
(0.00930843 0 0)
(0.0154574 0 0)
(0.0252911 0 0)
(0.0407571 0 0)
(0.0646657 0 0)
(0.100973 0 0)
(0.155106 0 0)
(0.234302 0 0)
(0.347926 0 0)
(0.507715 0 0)
(0.727875 0 0)
(1.02496 0 0)
(1.41748 0 0)
(1.92523 0 0)
(2.56833 0 0)
(3.36608 0 0)
(4.33574 0 0)
(5.49143 0 0)
(6.84328 0 0)
(8.39686 0 0)
(10.153 0 0)
(12.1084 0 0)
(14.2554 0 0)
(16.5838 0 0)
(19.0811 0 0)
(21.7337 0 0)
(24.5277 0 0)
(27.4494 0 0)
(30.4857 0 0)
(33.6243 0 0)
(36.8543 0 0)
(40.1657 0 0)
(43.5497 0 0)
(46.9984 0 0)
(50.5052 0 0)
(54.064 0 0)
(57.6697 0 0)
(61.3178 0 0)
(65.0043 0 0)
(68.7257 0 0)
(72.4788 0 0)
(76.2608 0 0)
(80.0693 0 0)
(83.9018 0 0)
(87.7562 0 0)
(91.6305 0 0)
(95.523 0 0)
(99.4318 0 0)
(103.355 0 0)
(107.292 0 0)
(111.241 0 0)
(115.2 0 0)
(119.168 0 0)
(123.144 0 0)
(127.127 0 0)
(131.115 0 0)
(135.109 0 0)
(139.106 0 0)
(143.106 0 0)
(147.107 0 0)
(151.11 0 0)
(155.112 0 0)
(159.115 0 0)
(163.113 0 0)
(167.113 0 0)
(171.103 0 0)
(175.095 0 0)
(179.076 0 0)
(183.054 0 0)
(187.025 0 0)
(190.984 0 0)
(194.936 0 0)
(198.876 0 0)
(202.801 0 0)
(206.713 0 0)
(210.609 0 0)
(214.485 0 0)
(218.34 0 0)
(222.173 0 0)
(225.978 0 0)
(229.754 0 0)
(233.496 0 0)
(237.201 0 0)
(240.862 0 0)
(244.475 0 0)
(248.034 0 0)
(251.532 0 0)
(254.96 0 0)
(258.309 0 0)
(261.57 0 0)
(264.732 0 0)
(267.783 0 0)
(270.708 0 0)
(273.496 0 0)
(276.131 0 0)
(278.598 0 0)
(280.884 0 0)
(282.976 0 0)
(284.862 0 0)
(286.535 0 0)
(287.991 0 0)
(289.23 0 0)
(290.258 0 0)
(291.088 0 0)
(291.735 0 0)
(292.221 0 0)
(292.571 0 0)
(292.81 0 0)
(292.962 0 0)
(293.053 0 0)
(293.1 0 0)
(293.118 0 0)
(293.122 0 0)
(293.12 0 0)
(293.114 0 0)
(293.104 0 0)
(293.096 0 0)
(293.093 0 0)
(293.092 0 0)
(293.093 0 0)
(293.097 0 0)
(293.104 0 0)
(293.111 0 0)
(293.12 0 0)
(293.128 0 0)
(293.136 0 0)
(293.144 0 0)
(293.151 0 0)
(293.156 0 0)
(293.161 0 0)
(293.165 0 0)
(293.166 0 0)
(293.166 0 0)
(293.165 0 0)
(293.164 0 0)
(293.164 0 0)
(293.164 0 0)
(293.163 0 0)
(293.163 0 0)
(293.163 0 0)
(293.163 0 0)
(293.163 0 0)
(293.162 0 0)
(293.155 0 0)
(293.154 0 0)
(293.167 0 0)
(293.18 0 0)
(293.193 0 0)
(293.239 0 0)
(293.222 0 0)
(293.144 0 0)
(293.11 0 0)
(293.082 0 0)
(293.061 0 0)
(293.05 0 0)
(293.05 0 0)
(293.058 0 0)
(293.072 0 0)
(293.089 0 0)
(293.105 0 0)
(293.117 0 0)
(293.126 0 0)
(293.132 0 0)
(293.135 0 0)
(293.138 0 0)
(293.138 0 0)
(293.136 0 0)
(293.135 0 0)
(293.133 0 0)
(293.13 0 0)
(293.128 0 0)
(293.125 0 0)
(293.123 0 0)
(293.12 0 0)
(293.119 0 0)
(293.119 0 0)
(293.118 0 0)
(293.116 0 0)
(293.115 0 0)
(293.112 0 0)
(293.109 0 0)
(293.106 0 0)
(293.102 0 0)
(293.098 0 0)
(293.095 0 0)
(293.092 0 0)
(293.089 0 0)
(293.087 0 0)
(293.085 0 0)
(293.081 0 0)
(293.077 0 0)
(293.073 0 0)
(293.068 0 0)
(293.064 0 0)
(293.058 0 0)
(293.051 0 0)
(293.036 0 0)
(293.01 0 0)
(292.95 0 0)
(292.878 0 0)
(292.699 0 0)
(292.541 0 0)
(292.009 0 0)
(291.195 0 0)
(289.054 0 0)
(284.252 0 0)
(273.358 0 0)
(247.849 0 0)
(197.979 0 0)
(126.182 0 0)
(59.5698 0 0)
(21.1742 0 0)
(6.24953 0 0)
(1.66093 0 0)
(0.42091 0 0)
(0.105024 0 0)
(0.0260979 0 0)
(0.00647898 0 0)
(0.00160812 0 0)
(0.000399127 0 0)
(9.90617e-05 0 0)
(2.45869e-05 0 0)
(6.10249e-06 0 0)
(1.51466e-06 0 0)
(3.75951e-07 0 0)
(9.33153e-08 0 0)
(2.31623e-08 0 0)
(5.74916e-09 0 0)
(1.42712e-09 0 0)
(3.53947e-10 0 0)
(8.77281e-11 0 0)
(2.15601e-11 0 0)
(5.10556e-12 0 0)
(1.12322e-12 0 0)
(1.45873e-14 0 0)
(4.3762e-14 0 0)
(-2.1881e-13 0 0)
(1.45873e-14 0 0)
(-1.16699e-13 0 0)
(1.60461e-13 0 0)
(-1.02111e-13 0 0)
(1.45873e-14 0 0)
(-1.16699e-13 0 0)
(2.33397e-13 0 0)
(-1.45873e-14 0 0)
(-2.1741e-27 0 0)
(-7.29366e-14 0 0)
(5.83493e-14 0 0)
(2.24369e-27 0 0)
(1.16699e-13 0 0)
(1.02111e-13 0 0)
(1.02111e-13 0 0)
(1.16699e-13 0 0)
(2.47984e-13 0 0)
(1.31286e-13 0 0)
(3.20921e-13 0 0)
(2.33397e-13 0 0)
(4.3762e-13 0 0)
(4.08445e-13 0 0)
(5.68906e-13 0 0)
(6.71017e-13 0 0)
(5.39731e-13 0 0)
(4.3762e-13 0 0)
(2.33397e-13 0 0)
(4.08445e-13 0 0)
(2.04222e-13 0 0)
(4.23032e-13 0 0)
(3.64683e-13 0 0)
(5.9808e-13 0 0)
(2.04222e-13 0 0)
(5.83493e-13 0 0)
(7.14779e-13 0 0)
(1.09405e-12 0 0)
(7.43953e-13 0 0)
(8.02303e-13 0 0)
(7.14779e-13 0 0)
(5.9808e-13 0 0)
(5.83493e-13 0 0)
(5.68906e-13 0 0)
(4.52207e-13 0 0)
(5.54318e-13 0 0)
(6.56429e-13 0 0)
(8.46065e-13 0 0)
(6.41842e-13 0 0)
(1.06487e-12 0 0)
(7.00191e-13 0 0)
(7.29366e-13 0 0)
(7.00191e-13 0 0)
(5.9808e-13 0 0)
(7.00191e-13 0 0)
(7.14779e-13 0 0)
(6.12667e-13 0 0)
(2.62572e-13 0 0)
(4.95969e-13 0 0)
(3.06334e-13 0 0)
(4.66794e-13 0 0)
(2.91746e-13 0 0)
(6.27255e-13 0 0)
(6.41842e-13 0 0)
(8.89827e-13 0 0)
(7.87715e-13 0 0)
(7.14779e-13 0 0)
(5.25144e-13 0 0)
(6.56429e-13 0 0)
(4.81382e-13 0 0)
(6.56429e-13 0 0)
(6.12667e-13 0 0)
(7.87715e-13 0 0)
(8.02303e-13 0 0)
(9.04414e-13 0 0)
(8.46065e-13 0 0)
(8.60652e-13 0 0)
(5.25144e-13 0 0)
(8.02303e-13 0 0)
(6.56429e-13 0 0)
(8.75239e-13 0 0)
(8.1689e-13 0 0)
(8.60652e-13 0 0)
(8.75239e-13 0 0)
(8.02303e-13 0 0)
(7.87715e-13 0 0)
(7.29366e-13 0 0)
(5.39731e-13 0 0)
(6.71017e-13 0 0)
(4.81382e-13 0 0)
(6.12667e-13 0 0)
(4.81382e-13 0 0)
(2.33397e-13 0 0)
(2.04222e-13 0 0)
(1.75048e-13 0 0)
(2.47984e-13 0 0)
(2.04222e-13 0 0)
(8.75239e-14 0 0)
(2.91746e-14 0 0)
(-1.02111e-13 0 0)
(8.75239e-14 0 0)
(1.60461e-13 0 0)
(5.83493e-14 0 0)
(2.77159e-13 0 0)
(3.20921e-13 0 0)
(2.47984e-13 0 0)
(4.3762e-14 0 0)
(-1.02111e-13 0 0)
(1.60461e-13 0 0)
(8.75239e-14 0 0)
(1.75048e-13 0 0)
(-1.45873e-13 0 0)
(2.91746e-14 0 0)
(-5.83493e-14 0 0)
(-2.1881e-13 0 0)
(-7.29366e-14 0 0)
(-1.31286e-13 0 0)
(1.02111e-13 0 0)
(-7.29366e-14 0 0)
(-1.45873e-14 0 0)
(-1.89635e-13 0 0)
(-4.3762e-14 0 0)
(-8.75239e-14 0 0)
(-1.89635e-13 0 0)
(-4.3762e-14 0 0)
(1.45873e-14 0 0)
(1.89635e-13 0 0)
(1.45873e-14 0 0)
(8.75239e-14 0 0)
(1.60461e-13 0 0)
(1.31286e-13 0 0)
(-1.16699e-13 0 0)
(7.29366e-14 0 0)
(1.45873e-14 0 0)
(1.75048e-13 0 0)
(1.45873e-14 0 0)
(1.31286e-13 0 0)
(-8.75239e-14 0 0)
(1.16699e-13 0 0)
(4.3762e-14 0 0)
(1.02111e-13 0 0)
(1.89635e-13 0 0)
(1.16699e-13 0 0)
(7.29366e-14 0 0)
(5.83493e-14 0 0)
(1.16699e-13 0 0)
(-4.3762e-14 0 0)
(-1.55248e-27 0 0)
(-5.83493e-14 0 0)
(2.91746e-14 0 0)
(2.91746e-14 0 0)
(1.31286e-13 0 0)
(-7.29366e-14 0 0)
(3.35508e-13 0 0)
(-4.3762e-14 0 0)
(1.60461e-13 0 0)
(-1.16699e-13 0 0)
(-1.16699e-13 0 0)
(-1.16699e-13 0 0)
(1.02111e-13 0 0)
(-5.83493e-14 0 0)
(1.60461e-13 0 0)
(-5.83493e-14 0 0)
(-1.45873e-14 0 0)
(-2.62572e-13 0 0)
(-1.31286e-13 0 0)
(-2.04222e-13 0 0)
(-7.29366e-14 0 0)
(7.29366e-14 0 0)
(5.83493e-14 0 0)
(1.45873e-13 0 0)
(-5.83493e-14 0 0)
(1.45873e-14 0 0)
(-2.47984e-13 0 0)
(-4.3762e-14 0 0)
(-7.29366e-14 0 0)
(-1.45873e-14 0 0)
(2.91746e-14 0 0)
(2.04222e-13 0 0)
(4.3762e-14 0 0)
(1.31286e-13 0 0)
(1.31286e-13 0 0)
(2.91746e-14 0 0)
(-1.31286e-13 0 0)
(-4.3762e-14 0 0)
(-1.02111e-13 0 0)
(-1.45873e-14 0 0)
(2.91746e-13 0 0)
(2.91746e-13 0 0)
(4.08445e-13 0 0)
(1.75048e-13 0 0)
(1.75048e-13 0 0)
(2.91746e-14 0 0)
(2.47984e-13 0 0)
(2.47984e-13 0 0)
(6.27255e-13 0 0)
(4.23032e-13 0 0)
(3.64683e-13 0 0)
(8.75239e-14 0 0)
(1.75048e-13 0 0)
(1.02111e-13 0 0)
(2.1881e-13 0 0)
(-7.29366e-14 0 0)
(2.33397e-13 0 0)
(-2.91746e-14 0 0)
(3.35508e-13 0 0)
(-7.29366e-14 0 0)
(1.31286e-13 0 0)
(-7.29366e-14 0 0)
(1.45873e-14 0 0)
(4.3762e-14 0 0)
(1.02111e-13 0 0)
(5.74291e-28 0 0)
(-2.47984e-13 0 0)
(-1.89635e-13 0 0)
(-2.77159e-13 0 0)
(1.45873e-14 0 0)
(-1.89635e-13 0 0)
(-2.91746e-14 0 0)
(-1.60461e-13 0 0)
(4.3762e-14 0 0)
(1.16699e-13 0 0)
(1.45873e-14 0 0)
(-1.31286e-13 0 0)
(1.45873e-14 0 0)
(8.75239e-14 0 0)
(7.29366e-14 0 0)
(1.75048e-13 0 0)
(2.62572e-13 0 0)
(2.62572e-13 0 0)
(5.10556e-13 0 0)
(1.02111e-13 0 0)
(2.62572e-13 0 0)
(-4.3762e-14 0 0)
(1.45873e-13 0 0)
(2.1881e-13 0 0)
(1.31286e-13 0 0)
(2.33397e-13 0 0)
(1.75048e-13 0 0)
(1.31286e-13 0 0)
(-1.16699e-13 0 0)
(1.45873e-13 0 0)
(-7.29366e-14 0 0)
(2.62572e-13 0 0)
(2.47984e-13 0 0)
(3.50096e-13 0 0)
(2.62572e-13 0 0)
(4.08445e-13 0 0)
(6.48759e-27 0 0)
(1.45873e-13 0 0)
(-2.91746e-14 0 0)
(5.83493e-14 0 0)
(1.45873e-14 0 0)
(-8.75239e-14 0 0)
(-1.31286e-13 0 0)
(1.45873e-14 0 0)
(-2.04222e-13 0 0)
(-1.45873e-14 0 0)
(-2.1881e-13 0 0)
(4.3762e-14 0 0)
(-1.31286e-13 0 0)
(2.91746e-14 0 0)
(2.91746e-14 0 0)
(1.94375e-27 0 0)
(-1.16699e-13 0 0)
(-2.47984e-13 0 0)
(-1.60461e-13 0 0)
(-7.29366e-14 0 0)
(1.45873e-13 0 0)
(2.04222e-13 0 0)
(5.83493e-14 0 0)
(1.60461e-13 0 0)
(-4.3762e-14 0 0)
(2.1881e-13 0 0)
(2.04222e-13 0 0)
(4.3762e-13 0 0)
(4.08445e-13 0 0)
(3.50096e-13 0 0)
(4.23032e-13 0 0)
(1.89635e-13 0 0)
(2.1881e-13 0 0)
(5.83493e-14 0 0)
(1.60461e-13 0 0)
(1.75048e-13 0 0)
(-1.83016e-28 0 0)
(-4.3762e-14 0 0)
(-3.06334e-13 0 0)
(-2.62572e-13 0 0)
(-2.1881e-13 0 0)
(-8.75239e-14 0 0)
(-1.02111e-13 0 0)
(-5.83493e-14 0 0)
(2.91746e-14 0 0)
(1.16699e-13 0 0)
(2.1881e-13 0 0)
(8.75239e-14 0 0)
(1.89635e-13 0 0)
(-8.75239e-14 0 0)
(-1.45873e-14 0 0)
(-3.06334e-13 0 0)
(8.75239e-14 0 0)
(1.45873e-14 0 0)
(2.91746e-13 0 0)
(2.04222e-13 0 0)
(8.75239e-14 0 0)
(8.75239e-14 0 0)
(-5.83493e-14 0 0)
(-2.1881e-13 0 0)
(-3.06334e-13 0 0)
(-3.93858e-13 0 0)
(-5.54318e-13 0 0)
(-5.39731e-13 0 0)
(-6.27255e-13 0 0)
(-2.91746e-13 0 0)
(-4.95969e-13 0 0)
(-3.06334e-13 0 0)
(-4.08445e-13 0 0)
(-1.75048e-13 0 0)
(-4.52207e-13 0 0)
(-2.91746e-14 0 0)
(-1.02111e-13 0 0)
(7.29366e-14 0 0)
(2.04222e-13 0 0)
(1.02111e-13 0 0)
(1.89635e-13 0 0)
(3.35508e-13 0 0)
(1.31286e-13 0 0)
(2.91746e-13 0 0)
(-2.91746e-14 0 0)
(-2.91746e-14 0 0)
(-3.35508e-13 0 0)
(-2.04222e-13 0 0)
(-3.64683e-13 0 0)
(-4.3762e-14 0 0)
(-4.52207e-13 0 0)
(-2.04222e-13 0 0)
(-4.95969e-13 0 0)
(-2.04222e-13 0 0)
(-3.93858e-13 0 0)
(-4.66794e-13 0 0)
(-5.39731e-13 0 0)
(-5.83493e-13 0 0)
(-2.91746e-13 0 0)
(-3.20921e-13 0 0)
(-2.33397e-13 0 0)
(-2.47984e-13 0 0)
(-1.02111e-13 0 0)
(-2.62572e-13 0 0)
(-7.29366e-14 0 0)
(-1.02111e-13 0 0)
(8.75239e-14 0 0)
(-3.33846e-27 0 0)
(1.31286e-13 0 0)
(-7.29366e-14 0 0)
(-2.33397e-13 0 0)
(-1.75048e-13 0 0)
(-1.16699e-13 0 0)
(-1.45873e-13 0 0)
(-2.91746e-14 0 0)
(-2.91746e-14 0 0)
(-2.91746e-14 0 0)
(-1.16699e-13 0 0)
(2.91746e-14 0 0)
)
;

boundaryField
{
    sides
    {
        type            zeroGradient;
    }
    empty
    {
        type            empty;
    }
}


// ************************************************************************* //
