/*--------------------------------*- C++ -*----------------------------------*\
| =========                 |                                                 |
| \\      /  F ield         | OpenFOAM: The Open Source CFD Toolbox           |
|  \\    /   O peration     | Version:  4.0                                   |
|   \\  /    A nd           | Web:      www.OpenFOAM.org                      |
|    \\/     M anipulation  |                                                 |
\*---------------------------------------------------------------------------*/
FoamFile
{
    version     2.0;
    format      ascii;
    class       volScalarField;
    location    "22";
    object      p;
}
// * * * * * * * * * * * * * * * * * * * * * * * * * * * * * * * * * * * * * //

dimensions      [0 2 -2 0 0 0 0];

internalField   nonuniform List<scalar> 
918
(
0.227946
0.908235
0.0107146
0.227156
-0.00303672
0.875351
-0.834028
0.403034
0.208056
-0.446461
-0.233809
0.198452
0.735794
0.502743
-1.46312
-0.0219737
0.359841
-0.71545
0.206844
-0.00488029
0.474662
0.214691
0.217713
0.208285
0.268639
0.491889
0.616381
0.00401428
-4.27111e-05
-0.0030717
0.000795551
-0.0147271
-0.0141082
0.758974
0.810088
0.832755
0.176748
0.00126033
-0.685374
-0.760206
-0.747263
-0.883652
0.393414
0.3981
-0.490251
0.404792
0.41987
0.195484
0.207346
0.20822
0.209476
0.208369
0.209779
0.154825
-0.446099
-0.477735
-0.440638
-0.446265
-0.190396
-0.289415
-0.339428
-0.194791
-0.151638
0.132802
0.195472
0.192741
0.20285
0.212624
0.847785
0.819668
0.845816
0.759569
0.776064
0.713732
0.686301
0.522852
0.544381
0.488898
0.478916
-1.90723
-2.88165
-0.860547
-0.601197
0.000385799
-0.0298784
-0.03431
0.346802
0.352604
0.35737
0.37231
0.762391
-0.708638
-0.852776
0.20704
0.205821
0.214296
0.214993
0.210981
0.210103
0.00225109
-0.00350314
-0.014413
-0.0010347
-0.00805909
0.458555
0.451974
0.208841
0.205891
0.220663
0.242822
0.232017
-0.0242134
0.278451
0.299015
0.30005
0.475843
0.472565
0.480272
0.589723
0.553171
0.653754
0.676881
0.00867247
0.00296198
-0.0240498
-0.0166811
-0.0211244
0.173208
0.166514
0.190683
0.180144
0.182518
-0.0827325
-0.218354
0.0853152
0.108526
-0.592099
-0.659496
-0.772074
-0.783552
-0.895709
0.237179
0.383972
0.386977
-0.507768
-0.424892
-0.5692
-0.349893
-0.418915
0.186072
0.192779
0.187925
0.20309
0.197725
0.199649
0.211573
0.20865
0.210232
0.202669
0.319497
0.0879234
0.0733262
-0.575864
-0.479675
-0.562977
-0.447754
-0.44117
-0.163748
-0.148763
-0.189708
-0.177683
-0.442113
-0.393949
-0.415344
-0.111475
-0.0786396
0.125391
0.11643
0.143458
0.149372
0.187527
0.188228
0.190792
0.189075
0.636953
0.659242
0.666909
0.640716
-3.89481
-6.72245
-0.266748
-0.123725
0.000952517
0.00328616
0.00267888
0.00630178
0.00159972
-0.000607166
-0.120792
-0.0985094
-0.048778
-0.0646986
0.334054
0.336696
0.676724
0.669095
0.662905
0.616168
0.195196
0.197307
0.202709
0.198582
-0.045184
-0.0131203
-0.0275672
0.420436
0.439131
0.435366
-0.0593717
-0.14564
0.0220048
0.0491831
0.319996
0.303483
0.320389
0.362641
0.400619
0.684333
0.702752
0.700922
0.709527
0.753569
0.769985
0.735328
0.154108
0.163805
0.158986
0.194232
0.191707
0.192913
0.187789
0.189584
0.186876
-0.372223
-0.759622
0.171631
0.190148
0.151579
0.159326
0.32386
0.391446
0.368906
0.376311
0.380061
-0.28537
-0.349042
0.00137258
-0.0432443
0.0745674
0.105796
0.0896872
0.608082
0.568725
0.618685
0.591945
0.553534
0.578768
-0.711485
-2.24207
-1.34349
0.240676
0.0462941
0.137368
-0.157853
-0.181878
-0.158413
0.65276
0.731894
0.361404
0.52095
0.53978
0.442255
0.473006
0.526347
0.451733
0.486071
0.521845
0.503195
0.193641
0.174964
0.166357
0.455737
0.512753
-0.172367
-0.223331
-0.275905
-0.1372
-0.0761155
-0.108704
0.703113
0.578222
0.659871
0.205684
0.206357
0.00812254
0.0102815
0.210344
0.210353
0.00531782
-0.00330043
0.118715
-1.1752
-0.183079
0.198591
0.189346
0.205973
-0.411565
0.0945692
-0.300469
-0.247408
-0.0923205
0.196096
0.142134
0.108981
0.00674705
-0.0067769
-0.0169844
-0.523201
0.203316
0.201605
0.205496
0.206506
0.207172
0.00546917
0.00483629
0.00412932
-0.00834906
-0.000609672
-0.0013871
0.171424
0.186946
-0.480622
0.205575
0.207778
0.207528
0.20044
0.206247
0.204427
-0.00284457
-0.0039359
-0.0171468
-0.0728453
0.0422886
0.375255
0.48124
0.331017
0.101482
-0.143152
0.270537
0.339458
0.236934
0.403225
0.371574
0.392327
-0.123129
-0.269403
-0.113107
-0.167724
0.196635
0.19534
0.187499
0.184682
0.201055
0.19921
0.203493
0.200361
0.203336
0.204864
-0.393911
-0.424308
-0.406234
-0.464351
0.0482629
0.297721
-0.0133737
0.0631367
-0.135926
-0.269289
-0.202081
-0.384514
-0.413627
-0.554195
-0.147756
-0.232541
-0.272415
-0.0282402
-0.157123
-0.377432
-0.230598
-0.287066
0.190482
0.188492
0.196399
0.203128
0.150008
0.15213
0.124577
0.141257
0.128244
0.0740915
0.107062
0.0847213
0.00563262
0.00914264
0.00449641
-0.00612239
-0.0198443
0.00227917
0.00757924
0.0121776
-0.00214104
-0.00195816
-0.0204447
-0.0153601
-0.48461
-0.59725
0.651559
0.618102
-0.211101
0.192504
0.198891
0.195695
0.200702
0.203614
0.204355
0.202124
0.19879
0.187811
0.189788
0.185532
0.186304
-0.423913
-0.559561
-0.380916
-0.445807
-0.19251
0.310075
0.0548924
-0.00408477
-0.00823297
0.202569
0.600547
0.407666
0.432707
0.458534
-0.673625
-0.270059
-0.60307
0.0167407
-0.164791
0.371708
0.424946
0.449052
0.394337
0.343151
-0.44588
0.206848
-0.364547
-0.321816
-0.133419
-0.234365
0.418654
0.35541
0.361933
0.382573
0.405059
0.360767
0.33886
0.336014
0.373967
0.378345
0.175866
-0.0407626
-0.0864332
-0.122432
0.342024
0.215221
0.268871
0.187831
0.191483
0.194307
0.192838
0.176168
0.183107
0.17906
0.184596
0.187276
0.196718
0.196841
0.192441
0.194593
-0.424768
-0.430291
-0.383002
-0.447435
-0.451252
-0.493894
-0.407621
-0.203114
-0.233744
-0.0763388
0.0276737
-0.249978
-0.390531
-0.360277
-0.333526
-0.124437
-0.101392
-0.33176
-0.139769
-0.176613
-0.225957
-0.0209693
-0.0238437
-0.455893
-0.54511
-0.525435
-0.454241
-0.248761
-0.206157
-0.175362
-0.176764
-0.315206
-0.162442
-0.100186
-0.489192
-0.559727
-0.548649
-0.455581
1.52198e-05
-0.00713957
-0.0199066
-0.0689107
-0.0466326
-0.071542
0.186234
0.186651
0.186797
0.199766
0.211639
0.226889
0.192704
0.169094
0.162449
0.16445
0.14037
0.149072
0.145258
0.157551
0.175987
0.182985
0.18263
0.184624
0.169248
0.169778
0.159375
0.16302
0.141088
0.124207
0.114019
0.00202694
0.00362927
0.00103409
-0.00630494
0.0080948
0.00382886
-0.0520356
-0.0161052
-0.0280822
-0.0235595
-0.0708176
0.0112419
0.00515975
-0.404932
-0.331505
-0.511042
-0.538948
-0.60933
0.560255
0.672008
0.506114
0.284623
0.284184
0.510922
0.608106
0.262652
0.432671
0.462863
0.199555
0.470544
0.19746
0.196754
0.194193
0.193772
0.195149
-0.336501
-0.241197
-0.227021
-0.176135
-0.0632236
0.0509602
-0.0407589
-0.154636
-0.0145529
-0.00455691
0.304826
0.32069
0.26452
0.290287
0.290477
0.11634
0.191642
0.24529
0.202106
0.244991
0.266837
0.228272
0.258258
0.205301
0.164458
0.163605
0.111055
0.130935
0.1089
0.0919262
0.187403
0.16668
0.175709
0.169002
0.188089
0.215554
0.21087
0.234617
0.247376
0.173779
0.136717
0.145207
0.17164
0.13566
0.148083
0.162089
-0.129636
-0.227296
-0.138095
-0.431483
-0.338666
-0.354569
-0.400168
-0.364136
-0.0770513
-0.781608
-0.747321
-1.38552
0.1411
0.629042
0.373946
0.347273
0.403227
0.380667
0.384161
0.4158
0.421287
0.332233
0.348177
0.353345
0.301387
0.326361
0.358014
0.353518
0.186343
0.0675535
0.0568165
0.0209855
-0.0988298
-0.0691407
0.131763
0.0559247
-0.0151791
-0.00943405
0.151565
0.0450585
0.107136
0.145136
0.0781691
0.0374216
0.232265
0.299982
0.289954
0.264002
0.179425
0.191108
0.216436
0.252544
0.277791
0.312114
0.183865
0.189731
0.191021
0.188722
0.186168
0.188811
0.18876
0.191334
0.19228
0.194971
0.194012
-0.470303
-0.513447
-0.446968
-0.45828
-0.399998
-0.375375
-0.281984
-0.331988
-0.488259
-0.450918
-0.426397
-0.434027
-0.461778
-0.48529
-0.206313
-0.195131
-0.180976
-0.239868
-0.0509199
0.0848971
0.142097
0.0242588
-0.0746003
-0.039744
-0.0168621
-0.466876
-0.386096
-0.52112
-0.364599
-0.395333
-0.278953
-0.216909
-0.232955
-0.322954
-0.342566
-0.151917
-0.0271844
-0.0526778
-0.0753324
-0.0557546
-0.0346846
0.172606
0.167566
0.166006
0.16156
0.160722
0.171875
0.176387
0.178814
0.184152
0.185132
0.176491
0.180651
0.183844
-0.0189317
0.00640427
0.00815558
-0.0380764
-0.00818444
0.00138438
-0.0146031
-0.207288
-0.284871
-0.285368
-0.323608
-0.45385
-0.395935
0.13681
0.118158
0.142249
0.348537
0.208461
0.123367
0.197149
0.308034
-0.0545898
0.131575
-0.0320933
0.534444
0.423424
0.562994
0.206764
-0.104819
0.0409213
0.0956103
-0.102013
-0.0273967
-0.00383475
-0.114957
-0.081469
-0.0536949
0.0463874
-0.0798115
-0.111353
-0.356803
-0.174019
-0.0397807
-0.0598581
0.0678945
0.129263
-0.0947889
-0.175056
-0.211888
0.294316
0.313861
0.330464
0.302423
0.326185
0.250403
0.241959
0.260589
0.271442
0.264481
-1.11667
-0.827623
-1.76829
-1.0777
-0.631967
0.170726
0.126991
0.421699
0.312601
0.393256
0.374526
0.333495
0.294691
0.304968
0.343122
0.0442248
0.150856
0.125149
0.134328
0.0391087
-0.0267604
0.267017
0.261522
0.297144
0.320927
0.290363
0.322839
0.182258
0.181907
0.18092
0.178233
0.176617
0.178532
-0.324713
-0.400389
-0.261695
-0.279357
-0.328141
-0.381895
-0.0247081
-0.0515965
-0.0472142
-0.038344
-0.000270777
-0.0272131
-0.181777
-0.236205
-0.303645
-0.274884
-0.337886
-0.404647
-0.42605
-0.319869
-0.228906
-0.237569
0.0684692
0.317
0.14535
0.309668
0.141649
0.201843
0.141581
0.133272
0.168481
0.0361169
0.112999
-0.142368
-0.640447
-0.54847
0.431112
0.452628
0.233615
0.0386792
-0.184454
0.0141285
0.215098
0.154187
0.194311
0.261036
0.254055
-0.350009
-0.274327
-0.0417964
0.185531
-0.119003
-0.125966
-0.130127
0.033657
-0.0335909
)
;

boundaryField
{
    wall-4
    {
        type            zeroGradient;
    }
    velocity-inlet-5
    {
        type            zeroGradient;
    }
    velocity-inlet-6
    {
        type            zeroGradient;
    }
    pressure-outlet-7
    {
        type            fixedValue;
        value           uniform 0;
    }
    wall-8
    {
        type            zeroGradient;
    }
    frontAndBackPlanes
    {
        type            empty;
    }
}


// ************************************************************************* //
