/*--------------------------------*- C++ -*----------------------------------*\
| =========                 |                                                 |
| \\      /  F ield         | OpenFOAM: The Open Source CFD Toolbox           |
|  \\    /   O peration     | Version:  4.0                                   |
|   \\  /    A nd           | Web:      www.OpenFOAM.org                      |
|    \\/     M anipulation  |                                                 |
\*---------------------------------------------------------------------------*/
FoamFile
{
    version     2.0;
    format      ascii;
    class       surfaceScalarField;
    location    "22";
    object      phi;
}
// * * * * * * * * * * * * * * * * * * * * * * * * * * * * * * * * * * * * * //

dimensions      [0 3 -1 0 0 0 0];

internalField   nonuniform List<scalar> 
1300
(
3.75095
5.62643
-5.89164
3.75095
-5.8169
5.62643
-4.53396
4.53396
-1.20019
1.20019
1.87662
1.87434
-2.87174
2.87174
-3.06249
3.06249
-2.61313
2.61313
-5.24649
5.24649
-5.0686
5.0686
4.68272
-4.68272
-4.68992
4.68992
-1.65648
1.65648
-3.89574
3.89574
3.17039
-3.17039
-4.42677
4.42677
-0.406748
0.406748
-0.553452
4.30441
3.1975
3.1975
-2.30843
2.30843
-4.85598
4.85598
6.21834
-6.21834
8.90836
-8.90836
-3.01672
-3.43706
1.34765
-8.33402
-4.46925
-4.46925
-8.44041
8.44041
-2.81398
2.81245
2.94333
-2.94333
-1.76684
1.76684
-4.4655
-0.0684606
-4.4655
4.53746
-0.00349319
4.53746
-1.33611
0.135922
-1.33611
3.996
-3.996
1.03941
0.160775
1.03941
3.0643
-3.0643
-1.87696
3.75358
1.87399
-1.87167
6.17608
-1.87928
3.75362
-5.87707
5.87707
-3.13612
0.264386
-3.13612
2.59505
0.276686
2.59505
-5.4094
5.4094
-2.6199
-0.442594
-2.6199
3.50521
-0.442718
3.50521
2.85785
-2.85785
-2.66381
0.0506852
-2.66381
2.56067
0.052457
2.56067
0.353564
5.27287
-5.97999
8.79245
-5.27287
0.0263715
5.20852
0.0379772
5.20852
-5.10614
0.0375389
-5.10614
5.00962
0.0589768
5.00962
4.77738
-0.0946607
4.77738
-4.79537
0.112648
-4.79537
-3.31868
-3.56231
-4.77487
0.0849496
-4.77487
-1.66117
0.00469583
-1.66117
1.64226
0.0142153
1.64226
-3.49885
3.49885
-4.30633
0.410592
-4.30633
3.12503
0.0453529
3.12503
1.86851
1.88244
5.61947
-5.61947
2.44908
-4.30369
-0.123079
-4.30369
-4.55137
-4.35699
4.55137
-0.124601
-0.687675
0.280926
-0.687675
3.15932
0.038185
3.15932
2.47505
0.0856223
-2.47505
0.166615
3.31153
-3.31153
1.68317
0.625261
1.68317
-5.56914
5.56914
4.9505
0.0591257
-4.9505
0.0945174
6.1574
0.0609442
6.1574
-6.19958
-0.0187586
-6.19958
3.29203
-6.7291
-3.49279
4.57177
0.118144
-4.57177
0.102517
2.91208
0.0312468
2.91208
-2.92385
2.92385
-2.98154
0.0382172
-2.98154
-2.18099
0.414153
-2.18099
1.44939
0.317446
1.44939
-4.3226
-0.142905
-4.3226
-4.4649
0.158572
4.4649
0.0725534
0.96601
-0.96601
-1.47245
0.13634
-1.47245
-4.14719
-0.175408
4.14719
-0.151191
-3.8848
-0.111195
-3.8848
-3.02263
0.0410896
3.02263
0.0416694
3.11214
0.0471736
-3.11214
0.0478411
-1.8709
3.75334
-1.88005
3.75404
-5.46582
-0.411247
-5.46582
6.18526
-0.308195
6.18526
3.51329
0.382451
-3.51329
0.377164
2.40367
0.191387
2.40367
-5.84126
0.431851
-5.84126
5.06533
0.344072
5.06533
2.3845
0.0191656
-2.3845
-0.2354
3.85296
-0.347744
3.85296
2.90205
-0.0441952
2.90205
-2.84554
-0.012317
-2.84554
2.80016
-2.80016
2.72809
0.072073
-2.72809
0.0642755
-11.1328
11.1141
-0.0351938
-11.0976
5.17332
5.17332
4.2062
0.571182
4.2062
-5.00628
0.210916
-5.00628
3.26039
-6.75318
3.53519
-6.85387
3.53098
-11.865
3.37227
-6.93458
4.9029
-4.9029
4.8375
0.0653948
-4.8375
0.0626379
-1.68543
0.0242579
-1.68543
-2.88471
-0.614138
-2.88471
4.15638
-0.65753
4.15638
-3.03129
3.03129
-3.07927
0.0479817
3.07927
0.0457589
4.12388
-0.270924
-4.12388
-0.179811
0.87374
0.165674
-0.87374
0.186065
3.5251
-0.213573
3.5251
-3.11358
-0.197951
-3.11358
-1.68997
0.00454046
1.68997
-0.00680028
-5.81747
0.248329
-5.81747
-11.1906
0.0930047
-11.1526
-6.10658
-6.10658
2.33383
11.1263
-2.87408
0.0285457
2.87408
0.0379965
2.97934
0.0519511
-2.97934
0.0554954
-2.86562
0.0654568
2.86562
0.0582278
-2.56701
0.386014
-2.56701
-1.03358
1.03358
-1.21975
0.186169
1.21975
0.229644
1.21651
-0.250503
1.21651
1.58195
0.0603099
-1.58195
0.109503
-3.79504
-0.0897593
-3.79504
6.22224
-0.0369807
6.22224
-2.98488
-0.1287
2.98488
-0.0828328
-0.0332612
11.1473
-5.14006
0.0339228
5.14006
-11.2083
11.2422
-3.24733
0.680323
3.24733
0.958868
5.29325
0.275899
-5.29325
0.286962
4.98921
0.0761236
-4.98921
0.0863117
-2.38516
-0.49955
-2.38516
-4.87495
-0.59087
4.87495
-0.718568
-11.476
-0.20265
11.6786
-11.417
6.02012
0.137273
-6.02012
11.3795
-0.926401
-0.0396081
0.926401
0.10718
1.51847
-0.301958
1.51847
3.70257
-0.177468
-3.70257
-0.0924714
-6.16109
0.319832
6.16109
0.0611562
-1.93437
-0.450798
1.93437
-0.415896
-4.26651
4.30469
1.90957
-3.2034
-3.5257
-7.56039
1.85244
1.9009
4.30152
-7.39083
-4.47417
-7.28832
7.27179
-6.98482
-9.29998
9.20532
7.52493
-7.63613
-5.78524
5.831
6.48168
-6.44001
1.87842
1.87516
7.69759
-7.4332
-15.5938
15.1826
6.34361
-6.78621
16.1373
-15.7054
-16.3167
16.3928
-5.76548
5.81616
-6.65348
6.64116
-6.84562
6.76279
-3.10803
-3.74584
9.90017
-9.81522
11.0953
-11.2184
-8.43944
8.85004
3.3825
0.922188
3.42968
-1.88238
3.7608
-1.87124
3.78081
3.55399
-6.66202
3.19919
-6.72489
5.9218
5.17349
-5.7972
-1.76319
-5.90987
5.94112
-5.82274
5.88097
8.91845
-8.98691
-1.88561
3.76077
-1.86843
3.76934
-3.42523
-2.36001
3.37988
0.921639
5.94718
3.95299
-6.06532
-1.22299
-7.73528
7.55781
-8.01693
7.81898
-0.452072
5.82374
-5.37167
4.40391
-1.55273
7.37647
5.71905
5.92997
5.86753
-5.59163
1.11729
-6.48896
-6.39444
-2.55845
2.69479
2.54503
-2.38425
5.91868
1.60625
5.76749
-5.50608
-2.13005
-5.59584
3.82087
2.01013
3.86886
4.07696
2.40472
4.11805
3.03093
-3.03584
0.00490728
-3.0559
6.08683
0.724931
-5.41591
-4.49427
4.37411
3.32348
4.65079
-5.43714
-1.99607
-5.05997
-9.44997
-6.14387
-10.0408
10.0732
5.10938
9.76501
-12.0703
12.1314
4.85098
1.49263
4.40826
-3.73481
-3.0514
-3.97021
12.6903
-1.55524
-11.1351
-10.0621
-6.25461
9.718
6.41925
9.35873
7.03408
9.44504
3.69438
8.99596
-10.1136
3.85902
-3.86814
-1.89734
-3.80386
3.74043
2.07574
3.79288
-4.17626
-2.47721
-4.14772
-4.2068
-2.63882
4.251
2.39016
-4.30471
-3.71222
4.43341
2.32938
3.32875
-7.80291
3.60584
-7.35167
-7.12458
-2.69064
-7.06194
4.44923
2.22863
-6.67786
-2.21278
10.7009
-5.52738
8.93768
-6.511
-4.70736
-6.69082
-6.81213
-1.62731
-6.65356
-8.83606
8.33651
-9.13626
8.47873
12.7139
-5.69505
-7.01884
-3.96792
-2.47209
3.92008
-0.490401
-3.7116
3.71651
0.0491926
3.83
4.75219
4.26179
-3.88552
-1.93723
-3.83002
3.83113
2.04984
3.89659
6.75264
2.16581
6.74915
-6.39617
-2.59075
-6.53907
9.10015
-8.686
2.96813
-2.96359
5.22841
2.59056
-5.01484
-2.72044
6.05756
-3.02993
-3.02762
-12.2182
10.5882
1.63006
-4.84176
-0.437855
-0.0311065
-5.51204
-3.78795
5.39939
0.530581
11.1188
7.33081
-5.51302
5.76135
6.1656
6.22473
-0.169716
5.85675
-5.17643
5.30245
-2.33367
-2.96879
5.26252
-5.43793
-1.27655
-5.23963
3.96309
0.32956
1.85161
-1.57069
-2.05307
-0.505379
-1.94357
1.55496
0.990064
1.72064
0.987923
1.70686
-2.93231
0.541464
2.39084
-1.94438
-1.84279
-3.59595
-1.03713
4.63308
5.50819
2.04962
-5.41572
-0.180116
2.72667
-2.71246
-0.721955
-2.87399
2.15912
-2.88108
-3.51142
-1.92258
5.434
-3.36904
-0.460987
3.31709
0.551769
-3.8224
-2.08747
3.78418
0.333866
-3.12407
6.19332
-3.06925
-5.0613
2.52918
3.55765
4.53931
-4.78936
2.44526
2.3441
-1.23171
3.33084
1.31995
3.52223
-7.00533
5.00926
5.70939
3.14064
-6.09184
1.03187
-5.97346
8.47662
-7.26456
-1.21206
3.81643
4.66019
7.17473
5.53916
-5.76679
12.9415
-1.04619
-6.21837
7.01964
-3.879
4.77278
-8.65178
-10.3119
4.09357
-9.57173
11.9443
-2.37256
-3.54857
-8.52172
13.1203
-1.20631
-11.914
8.5587
-5.60773
-3.26251
8.87024
-7.16297
6.3139
-2.32514
-3.98876
-10.3953
-5.31007
10.0755
2.05594
-9.19954
13.0586
-0.203574
4.61162
-0.203361
4.26388
3.89149
-6.33642
2.44494
3.27148
-5.59663
1.54683
-7.88325
-5.61421
10.196
-4.58176
-8.30485
-8.12503
-0.17982
1.38542
11.6731
-8.4195
5.67653
2.74297
3.30686
0.589726
-3.37893
-0.424927
0.340928
4.51063
-4.85155
4.13381
4.21943
3.40195
1.10867
3.81856
2.12256
-3.85656
-0.29116
-4.11743
1.47862
-1.72728
-3.64745
5.12607
-4.07112
0.423669
-2.7207
-3.56023
6.28093
-4.61805
3.04503
3.14829
5.09487
-4.95023
1.39
-2.44187
-2.50836
2.68112
-4.40839
1.95777
3.1683
4.28715
0.57493
5.40217
4.79379
-7.6308
0.279129
8.74678
-7.52378
2.47776
6.96728
-8.15429
0.0292673
-7.03268
0.667263
-6.19464
-6.0106
5.12467
-6.75198
-3.52711
6.17364
0.575512
-6.24619
-0.407372
-5.97424
-2.86182
-6.42504
-3.05227
-6.08399
-8.81906
-1.63839
-7.18067
6.69813
-6.62987
-3.41097
7.34844
1.13028
-7.3585
7.31889
-7.42763
7.12568
0.0947584
3.62175
4.35655
1.88446
-2.39004
4.2745
-5.05791
7.22373
-8.44191
3.38399
3.93008
-6.52083
-4.51183
5.03234
4.06781
5.34979
8.95455
-10.5816
1.62701
-10.8744
12.1614
-1.287
-16.6472
5.77284
-7.69269
2.70483
0.263302
2.72908
0.677055
2.41294
-3.09
-2.28653
-2.29333
-2.277
-3.33076
5.60777
1.1206
-3.33123
2.21062
-3.45926
4.57986
-0.0778137
-3.25342
5.2325
-2.81956
5.49581
-3.53707
1.95874
3.238
5.53042
-2.29242
4.26661
-1.67604
1.78459
-4.07702
-1.54617
-3.01867
5.09441
-3.26226
3.68593
-0.242851
3.92878
-4.01391
0.98398
-0.611961
3.60747
3.77409
4.20686
-3.09818
2.89778
-4.57382
-1.17923
-3.99889
-0.830597
-0.33203
-3.72784
4.05987
6.07747
-6.4095
-5.29862
9.61469
-4.31606
7.74186
-5.4285
-2.31336
-4.28658
-4.39942
3.90056
1.95619
9.69804
0.205292
-5.63379
-4.97114
-4.01227
3.24095
2.06151
-2.05535
3.68541
2.08645
-0.23484
0.56564
1.155
1.90721
-1.34157
0.229627
1.67758
-1.34106
2.00629
0.720383
-2.0666
0.123035
-1.32501
3.48413
1.06583
-2.0559
0.714329
1.06969
-3.40336
4.68918
-2.41539
-2.27379
5.75887
1.15212
-3.56751
4.08752
-3.75796
2.27203
-3.30916
-1.29547
-5.05343
-3.44718
-2.46045
4.67108
-3.14731
5.19693
1.15966
-5.01681
6.17648
-3.54036
1.61778
-3.01956
3.73994
-1.0395
-1.98006
2.75363
2.68037
-2.90354
0.0295507
-0.149917
2.3003
-2.45021
-0.580781
-2.52516
-4.57262
4.90649
-2.1066
4.55186
2.1679
-1.91289
6.46475
1.81343
-3.72632
-3.24787
-3.70886
-1.38222
3.15709
-0.821058
-3.14915
-4.80982
3.12999
0.39224
-6.94994
7.14743
-0.197493
-3.62645
-1.38281
5.19924
-5.81161
0.214978
-4.26478
2.88265
4.2026
4.59484
-11.455
-0.458974
-6.34563
1.05286
-7.39849
5.71305
-3.65783
7.75141
-10.414
7.003
-9.28369
6.53935
-0.859138
7.18019
-4.73526
3.95491
-9.26497
-7.20904
5.50279
-4.01015
5.29943
-4.65651
9.95594
-4.86009
6.80176
3.15418
-1.84808
-4.84274
-5.95197
4.10389
0.849782
5.11366
4.95007
-2.82752
4.65891
2.22669
-4.66856
-2.1817
-6.53529
1.86673
-3.387
-1.91328
3.78001
3.18159
3.77132
1.27165
-3.34639
7.67854
-7.85836
-3.09678
-2.91382
6.35156
-2.24767
4.55044
-7.46426
-1.6442
4.86856
-0.798394
-4.07017
0.826485
-4.35359
1.60626
-5.95985
5.14573
-5.5531
2.1805
-9.87319
-5.178
-5.07082
-2.23407
-5.19356
-7.64767
5.4136
-1.87483
5.44406
-8.66903
7.87063
-3.49237
8.90596
-5.37794
-1.0471
5.79383
1.33184
10.2378
0.11554
-4.62737
-1.81471
3.9418
-2.12709
1.42624
-3.6123
0.329491
2.44578
3.31309
-6.40886
-0.111963
-4.73933
-3.91648
7.98429
5.69821
11.7757
1.19412
9.19919
-1.2149
10.3933
4.13489
4.36453
-2.9748
4.6018
1.08508
4.46907
-0.858948
2.81768
1.87014
1.87483
0.837627
2.30384
1.47025
3.28782
0.197824
-2.09551
4.65744
-8.66971
-0.97635
-8.09852
1.1068
5.74476
-4.63796
3.17164
-1.11013
1.04455
0.147191
-1.77554
1.62834
-2.8216
-2.01038
-0.332795
-1.64226
2.35659
1.84187
-2.02379
-0.797803
0.312907
-3.76009
2.99626
-2.96671
-0.286337
5.89014
-2.69827
0.24806
-1.08049
-2.2771
-2.78248
2.65945
6.17568
0.289068
3.10643
5.19555
3.10808
0.280564
3.59468
-5.96724
-4.28857
-6.42621
-0.713169
4.48607
3.50664
8.16649
6.66082
4.41316
-3.05111
-10.9095
6.53929
-1.93749
5.2523
-1.18213
-4.77772
4.97811
2.24561
-5.55362
0.000524595
-4.7772
-6.71469
-0.529249
8.39988
-9.70856
8.66145
5.79963
1.38104
-4.38075
-0.690071
4.19458
0.169952
10.5633
-1.12965
-6.89647
8.02613
-4.6151
3.63875
0.892106
2.7933
2.52045
1.41032
-5.48616
-10.1241
-1.87144
-1.53191
-4.14523
0.487844
-2.32971
6.28018
-2.64143
3.96682
5.3847
6.42925
-2.18928
-4.22022
6.50534
-2.53852
3.89073
)
;

boundaryField
{
    wall-4
    {
        type            calculated;
        value           uniform 0;
    }
    velocity-inlet-5
    {
        type            calculated;
        value           uniform -3.75095;
    }
    velocity-inlet-6
    {
        type            calculated;
        value           uniform -5.62643;
    }
    pressure-outlet-7
    {
        type            calculated;
        value           nonuniform List<scalar> 8(5.89164 5.8169 6.45379 6.98637 6.88099 6.78483 6.79558 6.90325);
    }
    wall-8
    {
        type            calculated;
        value           uniform 0;
    }
    frontAndBackPlanes
    {
        type            empty;
        value           nonuniform 0();
    }
}


// ************************************************************************* //
