/*--------------------------------*- C++ -*----------------------------------*\
| =========                 |                                                 |
| \\      /  F ield         | OpenFOAM: The Open Source CFD Toolbox           |
|  \\    /   O peration     | Version:  4.0                                   |
|   \\  /    A nd           | Web:      www.OpenFOAM.org                      |
|    \\/     M anipulation  |                                                 |
\*---------------------------------------------------------------------------*/
FoamFile
{
    version     2.0;
    format      ascii;
    class       surfaceScalarField;
    location    "16";
    object      phi;
}
// * * * * * * * * * * * * * * * * * * * * * * * * * * * * * * * * * * * * * //

dimensions      [0 3 -1 0 0 0 0];

internalField   nonuniform List<scalar> 
17370
(
-0.0916024
0.0960171
0.284596
-0.0776058
0.0594301
0.364951
-0.0430382
0.0315974
0.427609
-0.022274
0.0162094
0.505316
-0.011615
0.00875106
0.602266
-0.00655075
0.00506766
0.720541
-0.00382788
0.00294901
0.863785
-0.00218762
0.00162728
1.03601
-0.00111851
0.000715447
1.24291
-0.00031928
-4.76112e-05
1.49156
0.000415495
-0.0008161
1.49159
0.0012162
-0.0017198
1.24319
0.00227536
-0.00303117
1.03639
0.0039043
-0.00513739
0.86414
0.00661248
-0.00880287
0.721248
0.0116582
-0.0162424
0.603799
0.0222972
-0.03161
0.508752
0.0430401
-0.0594254
0.432553
0.0776025
-0.0960143
0.365187
0.0916107
0.1974
-0.127116
0.0880596
0.0390567
-0.364387
0.354058
-0.0714454
0.0817747
-0.446646
0.454275
-0.0791814
0.0715528
-0.521034
0.529144
-0.0636917
0.0555815
-0.613009
0.620793
-0.0481947
0.0404108
-0.727137
0.733721
-0.0337609
0.0271768
-0.867538
0.87239
-0.0219303
0.017078
-1.03854
1.04181
-0.013415
0.0101391
-1.24469
1.24703
-0.00764569
0.00530433
-1.49281
1.49474
-0.00340476
0.00147867
-1.49265
1.4944
0.000281695
-0.00203033
-1.24409
1.24596
0.00394065
-0.00581486
-1.03759
1.04005
0.00812231
-0.0105807
-0.866168
0.8698
0.0138188
-0.0174507
-0.724574
0.729793
0.0222721
-0.0274907
-0.609089
0.615705
0.0340423
-0.0406582
-0.515156
0.522513
0.0484069
-0.0557631
-0.439884
0.447706
0.0638321
-0.0716537
-0.37475
0.377356
0.0792259
-0.0818313
-0.256962
0.224545
0.0714898
-0.0390726
-0.0688822
0.059313
0.00956916
-0.0518816
0.0586409
-0.374871
0.368112
-0.0577369
0.0538449
-0.45393
0.457822
-0.0483229
0.0437428
-0.52759
0.53217
-0.0391794
0.0352725
-0.620797
0.624704
-0.0310896
0.0271546
-0.734676
0.738611
-0.0228752
0.019067
-0.873933
0.877741
-0.0151264
0.0117723
-1.04328
1.04663
-0.00837644
0.00545982
-1.24849
1.25141
-0.00237314
-0.000511706
-1.49673
1.49962
0.00338602
-0.00643547
-1.49723
1.50027
0.00931188
-0.0126527
-1.24998
1.25332
0.0159525
-0.019828
-1.04565
1.04953
0.0235762
-0.0277865
-0.877214
0.881424
0.0316624
-0.0357911
-0.739069
0.743198
0.0396505
-0.0441638
-0.626032
0.630545
0.0487034
-0.0541866
-0.53504
0.540523
0.0580348
-0.0588891
-0.458166
0.459021
0.0520632
-0.031846
-0.33696
0.316742
0.00960213
-0.0688014
0.0591992
-0.053569
0.0495269
0.0040421
-0.0327784
0.0430409
-0.358774
0.348512
-0.0466306
0.0460044
-0.459702
0.460328
-0.0430398
0.0397839
-0.536209
0.539465
-0.0360742
0.0327299
-0.62837
0.631714
-0.0291431
0.025982
-0.741906
0.745067
-0.0226247
0.019548
-0.881101
0.884177
-0.0161173
0.0129251
-1.04992
1.05311
-0.00941445
0.00619348
-1.25454
1.25777
-0.00262067
-0.000772807
-1.50288
1.50627
0.00415119
-0.00767549
-1.50366
1.50719
0.0108297
-0.0142578
-1.25675
1.26017
0.0173663
-0.0206993
-1.0531
1.05643
0.0236842
-0.0269428
-0.884938
0.888196
0.0300173
-0.0335128
-0.746866
0.750362
0.0367858
-0.0404257
-0.634746
0.638386
0.0436223
-0.0465193
-0.544823
0.54772
0.0470765
-0.0433932
-0.457284
0.453601
0.0330194
-0.0160409
-0.297666
0.280688
0.00407819
-0.0534242
0.049346
-0.0464428
0.0439893
0.00245348
-0.022251
0.0322586
-0.338136
0.328128
-0.0377783
0.0386967
-0.460043
0.459125
-0.0375253
0.0353644
-0.54201
0.544171
-0.0328729
0.0304072
-0.63466
0.637126
-0.0274693
0.024646
-0.748137
0.75096
-0.0214616
0.0185452
-0.887189
0.890105
-0.0153428
0.0123996
-1.05617
1.05911
-0.00910345
0.00598762
-1.26096
1.26408
-0.00241915
-0.0010412
-1.5097
1.51316
0.00447783
-0.00798182
-1.51073
1.51423
0.0110098
-0.0141868
-1.26349
1.26667
0.0170127
-0.0200835
-1.05961
1.06268
0.022881
-0.0259375
-0.891431
0.894487
0.0286444
-0.0314687
-0.753627
0.756451
0.0338317
-0.0362201
-0.641346
0.643734
0.038299
-0.0393704
-0.549526
0.550597
0.0383529
-0.0326948
-0.448668
0.44301
0.0225386
-0.00986124
-0.265929
0.253252
0.00249525
-0.0462222
0.0437269
-0.0419995
0.0403723
0.00162714
-0.0155425
0.0241528
-0.318755
0.310145
-0.030227
0.032089
-0.457716
0.455854
-0.0315435
0.0298377
-0.546094
0.547799
-0.0276916
0.0257071
-0.639249
0.641234
-0.0235184
0.021429
-0.75339
0.755479
-0.0189797
0.0165884
-0.892798
0.89519
-0.0138143
0.0111704
-1.06192
1.06457
-0.00815218
0.00526682
-1.26709
1.26997
-0.00190729
-0.00140083
-1.51659
1.5199
0.00467436
-0.00794186
-1.51765
1.52091
0.0107124
-0.013583
-1.2697
1.27257
0.0160769
-0.0186752
-1.06555
1.06815
0.0209025
-0.0231684
-0.897176
0.899442
0.0251002
-0.0271433
-0.758791
0.760834
0.0289897
-0.0310057
-0.645856
0.647872
0.0325915
-0.0329942
-0.55129
0.551693
0.0309773
-0.0247014
-0.436943
0.430667
0.0158965
-0.00666104
-0.24242
0.233184
0.00167993
-0.0416892
0.0400093
-0.0390319
0.0379175
0.00111439
-0.0108162
0.0177057
-0.302373
0.295483
-0.023581
0.0260966
-0.453613
0.451098
-0.0262282
0.0251686
-0.549224
0.550284
-0.0234033
0.0217504
-0.6431
0.644753
-0.0199427
0.0182652
-0.757339
0.759016
-0.0163432
0.0144396
-0.897284
0.899188
-0.0121586
0.00986228
-1.06703
1.06933
-0.00712046
0.0044219
-1.27276
1.27546
-0.00127069
-0.00179166
-1.52307
1.52614
0.00481515
-0.00784664
-1.52406
1.52709
0.0103859
-0.0129135
-1.27528
1.27781
0.0149964
-0.0170383
-1.07045
1.07249
0.0187256
-0.0204293
-0.901367
0.90307
0.02192
-0.0235289
-0.762667
0.764276
0.025022
-0.0266214
-0.649734
0.651333
0.0275203
-0.0272058
-0.551747
0.551432
0.0244895
-0.0183603
-0.42438
0.418251
0.0112365
-0.00461652
-0.225334
0.218714
0.00117737
-0.0386122
0.0374348
-0.0370073
0.0363119
0.000695467
-0.0067725
0.0117662
-0.289518
0.284524
-0.0168958
0.0197652
-0.448376
0.445507
-0.0207039
0.0205059
-0.550916
0.551114
-0.0195238
0.0184395
-0.646107
0.647191
-0.0170508
0.0156093
-0.760586
0.762027
-0.0138598
0.0121286
-0.901006
0.902738
-0.01007
0.00804854
-1.07148
1.0735
-0.0056423
0.0032651
-1.27801
1.28039
-0.000456413
-0.00228619
-1.52906
1.5318
0.004986
-0.00765294
-1.52997
1.53263
0.00983168
-0.0119803
-1.28015
1.2823
0.0137462
-0.0155124
-1.07439
1.07615
0.0169922
-0.0184762
-0.904659
0.906144
0.0196657
-0.0207643
-0.765624
0.766723
0.0216071
-0.0223597
-0.652542
0.653295
0.0223281
-0.0211257
-0.550702
0.5495
0.0179825
-0.0125349
-0.4124
0.406952
0.00726701
-0.00293152
-0.213253
0.208918
0.000772894
-0.0364542
0.0356813
-0.0358372
0.0355665
0.000270701
-0.00323862
0.00627723
-0.280532
0.277493
-0.010078
0.0127378
-0.442632
0.439973
-0.0141505
0.0144577
-0.55097
0.550663
-0.0140266
0.0133287
-0.648066
0.648764
-0.0124208
0.0114703
-0.763251
0.764201
-0.0102588
0.00898435
-0.904291
0.905565
-0.00741044
0.00578675
-1.07536
1.07699
-0.00381838
0.00183607
-1.28259
1.28457
0.000551748
-0.00293458
-1.53437
1.53675
0.00524531
-0.00743078
-1.53507
1.53725
0.00915464
-0.0107798
-1.28422
1.28584
0.0120537
-0.0132307
-1.07768
1.07886
0.0141115
-0.0148885
-0.907333
0.90811
0.0154892
-0.0160924
-0.767569
0.768172
0.0165348
-0.0166587
-0.653669
0.653793
0.0160828
-0.014352
-0.547912
0.546181
0.0113714
-0.00720108
-0.402077
0.397907
0.00383976
-0.00144407
-0.205633
0.203237
0.000364232
-0.0351224
0.0347582
-0.0354561
0.0354388
1.72461e-05
-0.00127474
0.00300268
-0.275236
0.273508
-0.00551637
0.0074896
-0.437673
0.4357
-0.0086607
0.00897231
-0.550342
0.550031
-0.00888233
0.00854514
-0.649279
0.649616
-0.00802961
0.00744389
-0.764912
0.765498
-0.0066637
0.00581071
-0.906569
0.907422
-0.00467923
0.00347056
-1.07836
1.07956
-0.00193671
0.000334236
-1.28633
1.28793
0.00164693
-0.00363946
-1.53893
1.54092
0.00554842
-0.00729685
-1.53919
1.54094
0.00859609
-0.00973199
-1.28717
1.28831
0.0105391
-0.0112038
-1.0797
1.08037
0.0116585
-0.0120198
-0.908573
0.908934
0.0122204
-0.0122603
-0.768507
0.768547
0.0121789
-0.0118957
-0.653714
0.653431
0.0111941
-0.00957828
-0.544501
0.542885
0.00717379
-0.0041828
-0.394418
0.391427
0.00204281
-0.000678256
-0.201488
0.200123
0.000137571
-0.0345404
0.0344029
-0.0354581
0.0354887
-3.06076e-05
-0.000713981
0.00197241
-0.272083
0.270825
-0.00402072
0.00583534
-0.433889
0.432074
-0.00711707
0.00762558
-0.54965
0.549141
-0.00766506
0.00746288
-0.649858
0.65006
-0.0070363
0.00651548
-0.766041
0.766562
-0.00580437
0.00499398
-0.908225
0.909035
-0.00389615
0.00267426
-1.08073
1.08195
-0.00107822
-0.000589639
-1.2895
1.29117
0.00260462
-0.00455855
-1.54283
1.54478
0.00641925
-0.00814305
-1.54262
1.54434
0.00942208
-0.0105087
-1.28938
1.29047
0.0112272
-0.0117506
-1.08097
1.08149
0.0120239
-0.0121543
-0.90924
0.909371
0.0121364
-0.0119682
-0.76841
0.768242
0.0116607
-0.0111164
-0.652977
0.652433
0.0101635
-0.00835082
-0.541234
0.539421
0.00602196
-0.00340126
-0.388707
0.386086
0.00164389
-0.00055226
-0.198946
0.197854
0.000113651
-0.0342905
0.0341769
-0.0355256
0.0355682
-4.25782e-05
-0.000411175
0.00142643
-0.269688
0.268672
-0.00335777
0.00543422
-0.430158
0.428081
-0.00736376
0.00844157
-0.548439
0.547362
-0.00887721
0.00894164
-0.650176
0.650112
-0.00873697
0.00818819
-0.767036
0.767585
-0.00731754
0.00625186
-0.909925
0.910991
-0.00477876
0.00316386
-1.08333
1.08494
-0.00111459
-0.000976376
-1.29302
1.29511
0.00345293
-0.00582624
-1.5469
1.54927
0.00807607
-0.0101775
-1.54621
1.54831
0.0117523
-0.0131097
-1.29165
1.29301
0.0140472
-0.0147704
-1.08203
1.08275
0.015149
-0.015275
-0.909339
0.909465
0.0150717
-0.0146167
-0.768014
0.767558
0.0140946
-0.0129418
-0.651747
0.650595
0.011239
-0.00860395
-0.537285
0.53465
0.005866
-0.00321388
-0.383464
0.380812
0.00157625
-0.000573604
-0.196812
0.195809
0.000139064
-0.0340535
0.0339144
-0.0356161
0.0356831
-6.70207e-05
4.56389e-06
0.000663697
-0.267809
0.267141
-0.00228081
0.00444486
-0.425888
0.423724
-0.00703803
0.0090096
-0.545804
0.543833
-0.0104393
0.0108266
-0.649886
0.649498
-0.0106709
0.0101495
-0.768193
0.768715
-0.0090869
0.00767418
-0.912257
0.91367
-0.00572282
0.00363352
-1.08681
1.0889
-0.00105808
-0.00151197
-1.29745
1.30002
0.00454275
-0.00744759
-1.55193
1.55484
0.0101833
-0.0127215
-1.55066
1.5532
0.0146497
-0.0163936
-1.29459
1.29633
0.0176422
-0.0186101
-1.08363
1.0846
0.0191394
-0.0192511
-0.909664
0.909776
0.0189515
-0.0182821
-0.766969
0.7663
0.0169802
-0.0146318
-0.648834
0.646485
0.0118438
-0.00835993
-0.531513
0.528029
0.00538601
-0.00289409
-0.378189
0.375697
0.00146261
-0.000580057
-0.19486
0.193977
0.000160801
-0.0337626
0.0336018
-0.0357711
0.0358911
-0.000120011
0.000487273
-0.000322301
-0.266694
0.266529
-0.000619079
0.0022564
-0.421749
0.420112
-0.00464571
0.0068319
-0.541655
0.539469
-0.00875901
0.00977204
-0.648875
0.647862
-0.00988291
0.00938454
-0.769165
0.769663
-0.00817556
0.00663695
-0.915186
0.916724
-0.00453228
0.00229497
-1.0911
1.09333
0.000446176
-0.00317568
-1.30271
1.30544
0.00638403
-0.00944433
-1.55788
1.56094
0.0122893
-0.0148764
-1.55584
1.55842
0.0168017
-0.0184442
-1.2981
1.29974
0.0195413
-0.0203322
-1.08554
1.08633
0.0205985
-0.0204866
-0.909741
0.909629
0.0200488
-0.0186943
-0.765368
0.764013
0.0166232
-0.0136468
-0.643721
0.640745
0.0104992
-0.00706184
-0.524455
0.521018
0.00446218
-0.00245588
-0.373428
0.371422
0.00131472
-0.000563064
-0.193169
0.192417
0.000167706
-0.0334404
0.0332727
-0.0360375
0.0362191
-0.000181573
0.00104137
-0.00128964
-0.266561
0.266809
0.00114157
-0.000371241
-0.41889
0.418119
-0.00108826
0.00259477
-0.5376
0.536094
-0.00402311
0.00490622
-0.646833
0.64595
-0.00521044
0.00485697
-0.770177
0.770531
-0.00392241
0.00262101
-0.918146
0.919448
-0.000767991
-0.00125658
-1.09545
1.09747
0.0037669
-0.00626738
-1.30807
1.31057
0.009173
-0.0118783
-1.56386
1.56656
0.0143163
-0.0163952
-1.56083
1.56291
0.0178103
-0.0189859
-1.30119
1.30237
0.0196408
-0.0199345
-1.08686
1.08716
0.0198092
-0.0191732
-0.909345
0.908709
0.0179858
-0.0161476
-0.762272
0.760434
0.0139578
-0.0111716
-0.637804
0.635018
0.00847257
-0.00573893
-0.517913
0.515179
0.00377012
-0.00224528
-0.369682
0.368157
0.00130289
-0.000595777
-0.191708
0.191001
0.000184375
-0.0331061
0.0329217
-0.0364332
0.0366744
-0.000241167
0.00147507
-0.00212094
-0.267234
0.26788
0.00255281
-0.00257113
-0.417794
0.417813
0.00209415
-0.00143902
-0.535104
0.534449
0.000768274
-0.00041619
-0.645418
0.645066
0.000435069
-0.000851161
-0.770874
0.77129
0.00173089
-0.00287991
-0.920586
0.921735
0.00447489
-0.00619611
-1.09928
1.101
0.0083294
-0.0104291
-1.31282
1.31492
0.0127942
-0.0148978
-1.56895
1.57105
0.0166599
-0.0180016
-1.56466
1.56601
0.0187239
-0.0190743
-1.3031
1.30345
0.0190486
-0.0186234
-1.08703
1.0866
0.0179031
-0.0167413
-0.907732
0.90657
0.0153565
-0.0135251
-0.758587
0.756756
0.0115903
-0.00930115
-0.632522
0.630233
0.00722214
-0.00517384
-0.512867
0.510819
0.00366417
-0.00238504
-0.366806
0.365527
0.00147666
-0.000703312
-0.19029
0.189517
0.000222057
-0.0327372
0.0325151
-0.0369609
0.0372679
-0.000306975
0.00192141
-0.00284588
-0.268676
0.269601
0.00373883
-0.0042997
-0.418138
0.418699
0.00458203
-0.00467252
-0.534361
0.534452
0.00476734
-0.00500832
-0.645123
0.645364
0.00553013
-0.00626494
-0.771786
0.772521
0.00734696
-0.00856189
-0.92276
0.923975
0.010114
-0.0116939
-1.10254
1.10412
0.013561
-0.0153132
-1.31676
1.31851
0.0171613
-0.0186574
-1.5728
1.5743
0.019733
-0.0202983
-1.56701
1.56757
0.0203187
-0.0199444
-1.30341
1.30303
0.0193739
-0.0184076
-1.08573
1.08477
0.0172573
-0.0157844
-0.905152
0.903679
0.0142828
-0.0125027
-0.754921
0.753141
0.0107846
-0.00886757
-0.628214
0.626297
0.00717573
-0.00547808
-0.509078
0.50738
0.00412452
-0.00283137
-0.364321
0.363028
0.00180916
-0.000877175
-0.188708
0.187776
0.000279731
-0.0322953
0.0320156
-0.0376374
0.0380249
-0.000387435
0.00244536
-0.00366632
-0.270727
0.271948
0.00493972
-0.00592903
-0.419565
0.420555
0.00676561
-0.00743656
-0.535048
0.535719
0.00820956
-0.00904348
-0.645993
0.646827
0.0101158
-0.0112597
-0.773364
0.774507
0.0127007
-0.0141616
-0.925115
0.926575
0.0158871
-0.0175274
-1.10555
1.10719
0.0193279
-0.0208845
-1.32004
1.3216
0.022364
-0.0233666
-1.57547
1.57648
0.0238425
-0.0237207
-1.56781
1.56769
0.0231689
-0.0222291
-1.30237
1.30143
0.0210832
-0.0196368
-1.08344
1.08199
0.0181691
-0.0164652
-0.901976
0.900272
0.0148601
-0.013077
-0.7513
0.749517
0.0114414
-0.00966627
-0.624535
0.62276
0.00809231
-0.00643772
-0.505879
0.504224
0.0049974
-0.00349669
-0.361783
0.360282
0.00224751
-0.00109191
-0.186799
0.185644
0.000347573
-0.0317435
0.0313959
-0.0384975
0.0389973
-0.00049975
0.00313034
-0.00471065
-0.273428
0.275008
0.00641364
-0.00782744
-0.421908
0.423322
0.00916289
-0.0103007
-0.536875
0.538013
0.0116022
-0.0129473
-0.647977
0.649323
0.0145987
-0.0162564
-0.775774
0.777432
0.0182201
-0.0200857
-0.927973
0.929838
0.0221455
-0.0239783
-1.1087
1.11054
0.0258606
-0.0273662
-1.32299
1.32449
0.0286358
-0.0292841
-1.57722
1.57787
0.029286
-0.0286216
-1.56726
1.5666
0.0275466
-0.0260062
-1.30015
1.29861
0.024377
-0.0224491
-1.08023
1.07831
0.0206332
-0.0186375
-0.898293
0.896297
0.0168393
-0.0149133
-0.74755
0.745624
0.0131886
-0.0113277
-0.621009
0.619148
0.00964439
-0.00780256
-0.502714
0.500873
0.00614191
-0.00435588
-0.358844
0.357058
0.00282404
-0.00137005
-0.184439
0.182985
0.000435364
-0.0310545
0.0306191
-0.0395974
0.0402642
-0.000666848
0.00410678
-0.0061766
-0.276908
0.278978
0.00843033
-0.0103247
-0.425136
0.42703
0.0121583
-0.0137543
-0.539727
0.541323
0.01558
-0.017446
-0.651018
0.652884
0.0197216
-0.0219579
-0.779145
0.781381
0.0245027
-0.0268279
-0.931622
0.933947
0.0293148
-0.0314575
-1.1123
1.11444
0.0335646
-0.0351436
-1.32588
1.32746
0.0363207
-0.0367001
-1.57829
1.57867
0.0362806
-0.0350719
-1.56562
1.56441
0.0334744
-0.0313577
-1.29676
1.29465
0.0292242
-0.0267844
-1.07606
1.07362
0.0245445
-0.022142
-0.893948
0.891545
0.0200267
-0.0178071
-0.743384
0.741164
0.015846
-0.0137363
-0.617205
0.615095
0.0118015
-0.00963369
-0.499164
0.496996
0.00762772
-0.00542222
-0.355302
0.353096
0.00351618
-0.00170636
-0.181496
0.179687
0.000540863
-0.030198
0.0296571
-0.0410307
0.0419313
-0.000900551
0.0054682
-0.00820843
-0.281394
0.284134
0.0111872
-0.0136749
-0.429377
0.431865
0.0160843
-0.0182025
-0.543634
0.545753
0.0206506
-0.0231383
-0.655175
0.657663
0.0261232
-0.0289902
-0.783641
0.786508
0.0321862
-0.0350657
-0.936254
0.939133
0.0380947
-0.0406434
-1.11656
1.11911
0.0430622
-0.0447711
-1.32894
1.33064
0.0458877
-0.0460019
-1.57881
1.57892
0.0451418
-0.0433464
-1.56287
1.56107
0.0411705
-0.0384094
-1.29219
1.28942
0.0356993
-0.0326514
-1.07082
1.06778
0.0298871
-0.0269529
-0.888713
0.885779
0.0243956
-0.0217403
-0.738503
0.735847
0.0194136
-0.0169181
-0.612787
0.610291
0.0146092
-0.0119784
-0.494945
0.492314
0.00951213
-0.00676503
-0.350934
0.348187
0.00438305
-0.00212198
-0.177834
0.175573
0.00067162
-0.0291394
0.0284678
-0.0429306
0.0441603
-0.00122969
0.00737334
-0.0110127
-0.287213
0.290853
0.0149059
-0.0181046
-0.434908
0.438107
0.021186
-0.0239213
-0.548788
0.551524
0.0271314
-0.0303875
-0.660636
0.663892
0.0342461
-0.0378977
-0.789446
0.793098
0.0419146
-0.0454845
-0.942047
0.945617
0.0491745
-0.0522013
-1.12165
1.12468
0.0549677
-0.0568051
-1.33225
1.33408
0.0578248
-0.0576085
-1.57876
1.57855
0.0562215
-0.0537337
-1.55888
1.55639
0.0508755
-0.047349
-1.28625
1.28273
0.043946
-0.0401601
-1.06429
1.06051
0.0367515
-0.0331514
-0.882324
0.878724
0.0300282
-0.0268023
-0.732618
0.729392
0.0239904
-0.0209855
-0.607466
0.604461
0.0181938
-0.0149809
-0.489781
0.486568
0.0118895
-0.00845613
-0.345517
0.342084
0.0054715
-0.00264543
-0.173287
0.170461
0.000835122
-0.0278395
0.0270043
-0.0454923
0.0472309
-0.00173858
0.0101844
-0.0150582
-0.294849
0.299723
0.0201298
-0.0242223
-0.442123
0.446215
0.0281588
-0.0317066
-0.555494
0.559042
0.0359101
-0.0401356
-0.667706
0.671932
0.0450654
-0.0496591
-0.796825
0.801418
0.0546348
-0.0589773
-0.949207
0.95355
0.0633646
-0.0668621
-1.12767
1.13117
0.0699336
-0.0718296
-1.33577
1.33766
0.0726407
-0.0719597
-1.57799
1.57731
0.0698959
-0.0665531
-1.55342
1.55008
0.0628675
-0.0584194
-1.27871
1.27426
0.0541812
-0.0495032
-1.05619
1.05152
0.0453123
-0.0408991
-0.874491
0.870078
0.0370794
-0.0331437
-0.725439
0.721504
0.0297234
-0.0260766
-0.600964
0.597318
0.0226761
-0.018736
-0.483388
0.479448
0.0149045
-0.0105674
-0.338794
0.334457
0.00681615
-0.00327382
-0.167652
0.16411
0.00102423
-0.0262426
0.0252184
-0.0490335
0.0516046
-0.00257109
0.0146102
-0.0212799
-0.304982
0.311652
0.0279079
-0.0331302
-0.451587
0.456809
0.038155
-0.0427628
-0.564268
0.568876
0.0482508
-0.053701
-0.676794
0.682244
0.0599336
-0.0656087
-0.806098
0.811773
0.071616
-0.0767287
-0.9579
0.963012
0.0817456
-0.0856004
-1.13457
1.13843
0.0888001
-0.0905562
-1.33929
1.34105
0.0909119
-0.0895276
-1.57614
1.57476
0.0865616
-0.0821522
-1.54615
1.54174
0.0774684
-0.0719275
-1.26923
1.26369
0.0667073
-0.0609805
-1.04622
1.0405
0.0558667
-0.0504885
-0.864914
0.859536
0.0458365
-0.0410484
-0.716669
0.711881
0.0368959
-0.0324746
-0.592979
0.588558
0.028333
-0.0234951
-0.475441
0.470603
0.0187261
-0.0132671
-0.330343
0.324884
0.00849491
-0.00403348
-0.16067
0.156209
0.00124444
-0.0242941
0.0230497
-0.0541615
0.0581881
-0.00402658
0.0218579
-0.0311318
-0.318829
0.328103
0.0398449
-0.0465506
-0.464187
0.470893
0.0530164
-0.0590518
-0.575788
0.581823
0.0662292
-0.0731609
-0.688371
0.695303
0.080822
-0.0875767
-0.817485
0.82424
0.0945094
-0.100221
-0.968026
0.973738
0.105607
-0.109521
-1.14203
1.14594
0.112469
-0.113717
-1.34234
1.34359
0.11321
-0.110766
-1.5727
1.57025
0.106591
-0.100854
-1.53658
1.53084
0.0949825
-0.088179
-1.25747
1.25066
0.0818461
-0.0749426
-1.03408
1.02718
0.0687954
-0.0623286
-0.853309
0.846842
0.0567279
-0.0509579
-0.706016
0.700246
0.0459608
-0.0406428
-0.58318
0.577862
0.0356139
-0.0296728
-0.465519
0.459578
0.0237052
-0.0167977
-0.319717
0.312809
0.010716
-0.00504014
-0.151966
0.14629
0.00153054
-0.02193
0.0203995
-0.0619969
0.069229
-0.00723206
0.0354668
-0.0488665
-0.338662
0.352062
0.0605132
-0.0689288
-0.481111
0.489526
0.0770116
-0.0847463
-0.590748
0.598483
0.09376
-0.102034
-0.702703
0.710977
0.11076
-0.118141
-0.830795
0.838176
0.125421
-0.131147
-0.97905
0.984777
0.136247
-0.139616
-1.14928
1.15265
0.141694
-0.141874
-1.34408
1.34426
0.139961
-0.135999
-1.56688
1.56292
0.130249
-0.122905
-1.52419
1.51684
0.115654
-0.107445
-1.24308
1.23488
0.099901
-0.0917473
-1.01953
1.01138
0.0845139
-0.0769152
-0.839466
0.831867
0.0703269
-0.063523
-0.693244
0.68644
0.0576154
-0.0513089
-0.571249
0.564942
0.0452686
-0.0379113
-0.453075
0.445718
0.0304031
-0.0216221
-0.306161
0.29738
0.0137633
-0.00639006
-0.141058
0.133685
0.00185599
-0.0190681
0.0172122
-0.076167
0.0796443
-0.00347723
0.0249055
-0.0363893
-0.368386
0.37987
0.0467056
-0.0547662
-0.503114
0.511175
0.0636944
-0.0732683
-0.608925
0.618499
0.0839047
-0.0934436
-0.718961
0.7285
0.104077
-0.113482
-0.844793
0.854198
0.123241
-0.131607
-0.989567
0.997933
0.139916
-0.146558
-1.15493
1.16157
0.152442
-0.156242
-1.34328
1.34708
0.158169
-0.157374
-1.55774
1.55694
0.153734
-0.147655
-1.5084
1.50232
0.140559
-0.131586
-1.2258
1.21683
0.122839
-0.112385
-1.00245
0.991991
0.102841
-0.0924058
-0.823346
0.812911
0.0831349
-0.0733427
-0.678338
0.668546
0.0644392
-0.0551224
-0.556989
0.547672
0.0465927
-0.036099
-0.437503
0.427009
0.0262393
-0.0162609
-0.288543
0.278564
0.00876525
-0.00320648
-0.127018
0.121459
0.000610427
-0.0156891
0.0150787
-0.0867963
0.0838585
0.00293777
0.00226843
-0.00893734
-0.394163
0.400832
0.0169306
-0.0235382
-0.524087
0.530695
0.032059
-0.040504
-0.628625
0.63707
0.0501621
-0.0589719
-0.737969
0.746779
0.0683519
-0.07685
-0.863138
0.871636
0.0856834
-0.0929773
-1.00603
1.01332
0.100434
-0.106073
-1.16805
1.17369
0.111036
-0.113972
-1.35061
1.35355
0.114836
-0.113269
-1.55538
1.55382
0.108992
-0.102425
-1.49548
1.48892
0.094846
-0.0855541
-1.20738
1.19809
0.0766386
-0.0664715
-0.981226
0.971059
0.0569884
-0.0465195
-0.801507
0.791038
0.0372237
-0.0277631
-0.656518
0.647058
0.0197363
-0.0115155
-0.535463
0.527243
0.00454727
0.00189049
-0.41531
0.408872
-0.00554338
0.00695844
-0.267356
0.265941
-0.00627288
0.00396877
-0.114838
0.117142
-0.00161939
-0.0136956
0.015315
-0.0863979
0.0830722
0.00332573
-0.00581292
0.00273694
-0.410677
0.413753
0.0023651
-0.00775221
-0.541231
0.546618
0.0147885
-0.0220052
-0.645881
0.653097
0.0302296
-0.0377898
-0.755088
0.762648
0.0460683
-0.0534335
-0.879499
0.886864
0.0608821
-0.0673967
-1.02049
1.027
0.0738935
-0.0789351
-1.17898
1.18402
0.0829969
-0.0852275
-1.35593
1.35816
0.0858167
-0.0840351
-1.55172
1.54994
0.0797842
-0.0735196
-1.48199
1.47573
0.0665072
-0.0582147
-1.18898
1.18069
0.0500091
-0.0409955
-0.960881
0.951867
0.0326698
-0.0235773
-0.78092
0.771828
0.0157532
-0.00774749
-0.636675
0.628669
0.00115689
0.00543856
-0.516843
0.510248
-0.010341
0.0140389
-0.400262
0.396564
-0.0150281
0.0129645
-0.26064
0.262704
-0.00948292
0.00517985
-0.11709
0.121393
-0.00184203
-0.015589
0.0174311
-0.0841917
0.0809899
0.00320176
-0.00851662
0.00751786
-0.420978
0.421977
-0.00431985
0.000184225
-0.554735
0.55887
0.0059134
-0.0119498
-0.660198
0.666234
0.0189772
-0.0254522
-0.769942
0.776417
0.0325086
-0.0388245
-0.893812
0.900128
0.0456146
-0.0512067
-1.03317
1.03877
0.0569992
-0.0611025
-1.18879
1.19289
0.0647461
-0.0667572
-1.36034
1.36235
0.0671543
-0.065275
-1.54795
1.54607
0.0615909
-0.0562138
-1.46929
1.46391
0.0501862
-0.0428296
-1.17263
1.16527
0.0359586
-0.0285167
-0.943108
0.935666
0.0215875
-0.0143923
-0.763269
0.756074
0.00791614
-0.00157121
-0.620131
0.613786
-0.0035317
0.00808504
-0.502226
0.497673
-0.0110817
0.0130887
-0.390388
0.388381
-0.0130567
0.0103765
-0.25977
0.26245
-0.00734111
0.00387266
-0.122252
0.12572
-0.00135181
-0.0178649
0.0192167
-0.081976
0.0793164
0.00265957
-0.00878023
0.00904716
-0.427617
0.42735
-0.00655684
0.00328056
-0.565754
0.569031
0.00160578
-0.00698298
-0.672311
0.677688
0.0128784
-0.0185737
-0.782496
0.788192
0.0246911
-0.0302033
-0.906112
0.911624
0.036095
-0.0411675
-1.0443
1.04937
0.0462136
-0.0501643
-1.19699
1.20094
0.0534903
-0.0553616
-1.3642
1.36607
0.0558247
-0.0542403
-1.54429
1.5427
0.0510994
-0.0463382
-1.45822
1.45346
0.0412004
-0.0350906
-1.15829
1.15218
0.0293273
-0.0230121
-0.928408
0.922093
0.0173892
-0.0115076
-0.749087
0.743205
0.00646448
-0.00148695
-0.607299
0.602322
-0.00234734
0.00562695
-0.491578
0.488298
-0.0077737
0.00896722
-0.383912
0.382719
-0.00856325
0.00662656
-0.259975
0.261912
-0.00457311
0.00234396
-0.12574
0.127969
-0.00086933
-0.0192263
0.0200956
-0.0801837
0.0779678
0.00221598
-0.00810381
0.00858542
-0.431931
0.43145
-0.0071466
0.00436693
-0.574406
0.577186
0.000182585
-0.00479849
-0.682646
0.687262
0.00992769
-0.01492
-0.793372
0.798364
0.0204009
-0.0253765
-0.91691
0.921886
0.0308349
-0.0353675
-1.05424
1.05877
0.0400409
-0.0437573
-1.20471
1.20843
0.0469045
-0.0487409
-1.36785
1.36969
0.049305
-0.0483555
-1.54126
1.54031
0.0456365
-0.0416507
-1.44853
1.44455
0.0371813
-0.0318865
-1.1462
1.1409
0.027142
-0.0216552
-0.915999
0.910513
0.016871
-0.0120495
-0.737555
0.732734
0.00787039
-0.00374365
-0.597327
0.593201
0.000522688
0.00238311
-0.483604
0.480698
-0.00397726
0.00495517
-0.379046
0.378068
-0.00505598
0.00395747
-0.259253
0.260351
-0.0027227
0.00146524
-0.126981
0.128238
-0.000592306
-0.019738
0.0203303
-0.0788952
0.0771883
0.00170696
-0.00683683
0.00746045
-0.435029
0.434406
-0.00616982
0.00400723
-0.582084
0.584247
9.00321e-05
-0.00427536
-0.691688
0.695873
0.00917754
-0.0135221
-0.803177
0.807522
0.0183927
-0.0228661
-0.926936
0.931409
0.0281159
-0.0323227
-1.06341
1.06762
0.0365981
-0.040244
-1.21204
1.21568
0.0437052
-0.0456009
-1.37166
1.37355
0.0464969
-0.0458036
-1.53918
1.53848
0.0438027
-0.0401099
-1.44055
1.43685
0.0363171
-0.0317639
-1.13564
1.13109
0.027449
-0.0227483
-0.905248
0.900547
0.0184626
-0.0140089
-0.727789
0.723335
0.0105103
-0.00673928
-0.588833
0.585062
0.00371033
-0.00116431
-0.4767
0.474154
-0.000555813
0.00178163
-0.37477
0.373544
-0.00218602
0.00191253
-0.257644
0.257918
-0.00140424
0.000829949
-0.126595
0.127169
-0.0003994
-0.0197492
0.0201486
-0.0781908
0.0768447
0.00134614
-0.00555418
0.00625565
-0.437468
0.436767
-0.00503132
0.00283056
-0.58876
0.590961
0.000967037
-0.0047106
-0.699883
0.703626
0.00895389
-0.0131732
-0.811982
0.816201
0.0177211
-0.0223632
-0.935794
0.940436
0.0269647
-0.0310527
-1.07199
1.07608
0.0355288
-0.039029
-1.21929
1.22279
0.0421562
-0.0445871
-1.37544
1.37787
0.0458304
-0.0455837
-1.53796
1.53772
0.043903
-0.0409116
-1.43344
1.43045
0.0375276
-0.0333613
-1.1263
1.12213
0.0294544
-0.0250715
-0.895776
0.891393
0.0210869
-0.0170598
-0.718924
0.714897
0.0134755
-0.00996226
-0.581011
0.577498
0.00714401
-0.0044279
-0.47055
0.467834
0.00249111
-0.00120315
-0.370187
0.368899
0.000325207
0.000206902
-0.255001
0.254469
-0.000405469
0.000400081
-0.125104
0.12511
-0.000279839
-0.0194196
0.0196995
-0.078038
0.0769057
0.00113231
-0.00415653
0.00464504
-0.43974
0.439251
-0.00362593
0.00135218
-0.594863
0.597137
0.00216194
-0.00575932
-0.707533
0.71113
0.00983781
-0.0136957
-0.820363
0.824221
0.0183829
-0.0222996
-0.944606
0.948523
0.0269091
-0.0308678
-1.08039
1.08435
0.035295
-0.0390494
-1.22635
1.2301
0.0425322
-0.0448359
-1.38014
1.38244
0.0465061
-0.0467401
-1.53748
1.53771
0.0457447
-0.0430728
-1.42735
1.42468
0.0400681
-0.0361907
-1.11802
1.11414
0.0325289
-0.0282751
-0.886758
0.882504
0.0245042
-0.0204344
-0.710584
0.706514
0.0168886
-0.0133033
-0.573627
0.570041
0.010301
-0.0076382
-0.464289
0.461626
0.00541683
-0.00371984
-0.365297
0.3636
0.00237161
-0.00129098
-0.251363
0.250282
0.000532949
5.23953e-05
-0.122695
0.12211
-0.000178785
-0.0188125
0.0189913
-0.0781538
0.0773468
0.000806952
-0.00295469
0.00300726
-0.442196
0.442143
-0.00215215
-0.000140958
-0.600268
0.602561
0.00337
-0.00684134
-0.71467
0.718141
0.0107561
-0.0147442
-0.82806
0.832048
0.0188643
-0.0229536
-0.952705
0.956794
0.0275517
-0.0313393
-1.08878
1.09256
0.0358938
-0.0396517
-1.23373
1.23749
0.0432555
-0.0461362
-1.38521
1.38809
0.0483624
-0.0489419
-1.53805
1.53863
0.0482146
-0.0461746
-1.42216
1.42012
0.0435663
-0.0398503
-1.11004
1.10632
0.0362319
-0.0322616
-0.878013
0.874043
0.0281914
-0.0242375
-0.702104
0.69815
0.0206203
-0.0168276
-0.566306
0.562513
0.0138015
-0.0107759
-0.457862
0.454836
0.00835104
-0.0060809
-0.360062
0.357792
0.00444017
-0.00282869
-0.246893
0.245281
0.0014185
-0.000330148
-0.119553
0.118465
-7.57672e-05
-0.0179781
0.0180538
-0.0786606
0.0780013
0.000659285
-0.00198979
0.00207273
-0.444877
0.444794
-0.00071367
-0.00147999
-0.605633
0.607827
0.00476432
-0.00808327
-0.721327
0.724646
0.0118471
-0.0154624
-0.835811
0.839426
0.0197117
-0.0235088
-0.960943
0.96474
0.0280718
-0.0322954
-1.09684
1.10106
0.0365312
-0.0406422
-1.24134
1.24545
0.0447039
-0.0477344
-1.39095
1.39398
0.0503911
-0.0517796
-1.53949
1.54088
0.0515065
-0.0500346
-1.41797
1.4165
0.0475251
-0.0440583
-1.10255
1.09909
0.0406055
-0.0365267
-0.869441
0.865362
0.0325609
-0.0284364
-0.693575
0.689451
0.0246927
-0.0206439
-0.558452
0.554403
0.0172962
-0.0140724
-0.451059
0.447835
0.0111942
-0.00854124
-0.354011
0.351358
0.00641681
-0.00427396
-0.241517
0.239375
0.00241429
-0.000821915
-0.115707
0.114115
8.69063e-05
-0.016979
0.0168921
-0.0794083
0.0789033
0.000505014
-0.000969698
0.00081564
-0.447678
0.447832
0.000428852
-0.0028225
-0.61066
0.613053
0.00596584
-0.00911209
-0.727718
0.730864
0.0129465
-0.0164148
-0.843086
0.846554
0.0205175
-0.024435
-0.969042
0.972959
0.0289108
-0.0331104
-1.10519
1.10939
0.0375761
-0.0417344
-1.24954
1.2537
0.0460113
-0.0498121
-1.39735
1.40115
0.0529721
-0.0547236
-1.54229
1.54405
0.0551753
-0.054036
-1.41496
1.41382
0.0520328
-0.0489725
-1.09554
1.09247
0.045406
-0.0412867
-0.860813
0.856694
0.0372606