/*--------------------------------*- C++ -*----------------------------------*\
| =========                 |                                                 |
| \\      /  F ield         | OpenFOAM: The Open Source CFD Toolbox           |
|  \\    /   O peration     | Version:  4.0                                   |
|   \\  /    A nd           | Web:      www.OpenFOAM.org                      |
|    \\/     M anipulation  |                                                 |
\*---------------------------------------------------------------------------*/
FoamFile
{
    version     2.0;
    format      ascii;
    class       volVectorField;
    location    "16";
    object      U;
}
// * * * * * * * * * * * * * * * * * * * * * * * * * * * * * * * * * * * * * //

dimensions      [0 1 -1 0 0 0 0];

internalField   nonuniform List<vector> 
8800
(
(0.980078 -0.0915153 0)
(1.00234 -0.0587511 0)
(0.999591 -0.0321136 0)
(0.999978 -0.0164745 0)
(1.00004 -0.00879337 0)
(1.00007 -0.00506635 0)
(1.00006 -0.00295725 0)
(1.00004 -0.00166564 0)
(1.00002 -0.000802372 0)
(1.00005 -0.000132586 0)
(1.00001 0.000534405 0)
(1.00003 0.00128287 0)
(1.00005 0.00231611 0)
(1.00007 0.00394686 0)
(1.00006 0.00669308 0)
(1.00002 0.0119779 0)
(0.99986 0.0230577 0)
(0.999108 0.043161 0)
(1.00716 0.0790441 0)
(0.775009 0.0478407 0)
(0.359094 -0.0147427 0)
(1.04658 -0.0724105 0)
(1.08852 -0.0659708 0)
(1.04956 -0.05089 0)
(1.02562 -0.0376606 0)
(1.01268 -0.0257831 0)
(1.00644 -0.01651 0)
(1.00353 -0.0100901 0)
(1.00211 -0.00556519 0)
(1.00147 -0.00209807 0)
(1.00135 0.000998202 0)
(1.0017 0.00419719 0)
(1.00266 0.00804261 0)
(1.00468 0.0133217 0)
(1.00894 0.0210576 0)
(1.01807 0.0316801 0)
(1.036 0.0444952 0)
(1.06754 0.0579473 0)
(1.09485 0.0700712 0)
(0.845906 0.0554748 0)
(0.218111 -0.00136286 0)
(1.07587 -0.0503855 0)
(1.09944 -0.0486155 0)
(1.06431 -0.0396247 0)
(1.03982 -0.0321196 0)
(1.02372 -0.0249712 0)
(1.01393 -0.0178795 0)
(1.00839 -0.0114236 0)
(1.00554 -0.00586999 0)
(1.00441 -0.000779349 0)
(1.00473 0.0041697 0)
(1.00659 0.00933119 0)
(1.01057 0.0152292 0)
(1.01796 0.0219423 0)
(1.03059 0.0289952 0)
(1.0506 0.0361397 0)
(1.08018 0.0440058 0)
(1.10603 0.0514845 0)
(0.944029 0.0407942 0)
(0.217776 0.0013766 0)
(0.177324 -0.00060969 0)
(1.02027 -0.0349689 0)
(1.10618 -0.0407687 0)
(1.07829 -0.0356835 0)
(1.05238 -0.0295831 0)
(1.03496 -0.0237712 0)
(1.02311 -0.0181604 0)
(1.01536 -0.0124277 0)
(1.01078 -0.00664335 0)
(1.00882 -0.000763665 0)
(1.00937 0.00503656 0)
(1.01249 0.0107143 0)
(1.01845 0.0163438 0)
(1.02805 0.0218247 0)
(1.04238 0.0273319 0)
(1.06353 0.0331788 0)
(1.09465 0.0392174 0)
(1.0955 0.0409233 0)
(0.832394 0.0223616 0)
(0.176761 0.000620724 0)
(0.155996 -0.000444848 0)
(0.960313 -0.0248429 0)
(1.10469 -0.0339046 0)
(1.0879 -0.0315885 0)
(1.06101 -0.0273392 0)
(1.04274 -0.022438 0)
(1.03028 -0.0172127 0)
(1.0217 -0.0119322 0)
(1.01617 -0.00646565 0)
(1.01353 -0.000573511 0)
(1.01427 0.00533929 0)
(1.01817 0.0108274 0)
(1.02502 0.0159605 0)
(1.03527 0.0209936 0)
(1.05027 0.0259147 0)
(1.07238 0.0302926 0)
(1.10163 0.0340172 0)
(1.07169 0.0324618 0)
(0.747189 0.0137719 0)
(0.155164 0.000456399 0)
(0.142233 -0.00030423 0)
(0.906211 -0.017799 0)
(1.09792 -0.0278318 0)
(1.09577 -0.0267245 0)
(1.06822 -0.0230887 0)
(1.04933 -0.0194366 0)
(1.03624 -0.015323 0)
(1.0271 -0.0107429 0)
(1.02112 -0.00576054 0)
(1.01824 -0.000206436 0)
(1.01895 0.00542789 0)
(1.0231 0.0104513 0)
(1.03038 0.0149584 0)
(1.04119 0.0190158 0)
(1.05674 0.0225926 0)
(1.07968 0.0259211 0)
(1.10448 0.0288113 0)
(1.04248 0.0255368 0)
(0.684684 0.00920027 0)
(0.141071 0.000319277 0)
(0.132908 -0.000221861 0)
(0.861318 -0.0125666 0)
(1.08705 -0.0223223 0)
(1.10132 -0.0224643 0)
(1.07433 -0.0194802 0)
(1.05431 -0.0165 0)
(1.04061 -0.0133354 0)
(1.03118 -0.00950784 0)
(1.02507 -0.00495774 0)
(1.0221 0.000247515 0)
(1.02271 0.00545386 0)
(1.0268 0.0100466 0)
(1.03416 0.0138603 0)
(1.04534 0.0169286 0)
(1.06174 0.019603 0)
(1.08575 0.0223129 0)
(1.10457 0.0242026 0)
(1.01218 0.0196091 0)
(0.639346 0.0062985 0)
(0.13135 0.000240039 0)
(0.126663 -0.00015174 0)
(0.827019 -0.00798161 0)
(1.07409 -0.0165391 0)
(1.104 -0.0180379 0)
(1.07913 -0.0164483 0)
(1.05916 -0.0141451 0)
(1.04573 -0.0112312 0)
(1.03637 -0.00783152 0)
(1.03004 -0.00384818 0)
(1.02673 0.000802657 0)
(1.02735 0.00546179 0)
(1.03156 0.0094313 0)
(1.03887 0.0126426 0)
(1.04973 0.0153461 0)
(1.06588 0.0175269 0)
(1.08996 0.0190575 0)
(1.10177 0.0193484 0)
(0.984181 0.0138649 0)
(0.607958 0.00393803 0)
(0.124619 0.000175191 0)
(0.123426 -4.73411e-05 0)
(0.804049 -0.00394842 0)
(1.06029 -0.0103139 0)
(1.10336 -0.0125962 0)
(1.08184 -0.0118601 0)
(1.06209 -0.0103781 0)
(1.04848 -0.00836267 0)
(1.03905 -0.00572459 0)
(1.0328 -0.00244927 0)
(1.0295 0.00150948 0)
(1.0299 0.00549756 0)
(1.03381 0.00864123 0)
(1.04093 0.0109599 0)
(1.05187 0.0125836 0)
(1.06793 0.0136664 0)
(1.09108 0.0144665 0)
(1.0954 0.0136309 0)
(0.960786 0.00830927 0)
(0.58906 0.00195505 0)
(0.120798 7.61847e-05 0)
(0.122621 2.25768e-05 0)
(0.790942 -0.00168983 0)
(1.04917 -0.00588853 0)
(1.10205 -0.00776747 0)
(1.08357 -0.00760864 0)
(1.06429 -0.00668276 0)
(1.05131 -0.00544395 0)
(1.04223 -0.00356758 0)
(1.03608 -0.00100503 0)
(1.03282 0.00228936 0)
(1.03291 0.00558772 0)
(1.03644 0.0079647 0)
(1.04307 0.00946094 0)
(1.05323 0.0102349 0)
(1.06888 0.0106802 0)
(1.09082 0.0104632 0)
(1.08861 0.00933296 0)
(0.943928 0.00498468 0)
(0.578891 0.000965655 0)
(0.119251 1.35778e-05 0)
(0.122727 3.00535e-05 0)
(0.782688 -0.0010184 0)
(1.04042 -0.00442832 0)
(1.10049 -0.00647956 0)
(1.08438 -0.00661244 0)
(1.06572 -0.00591749 0)
(1.05294 -0.0047012 0)
(1.04429 -0.00288579 0)
(1.0385 -0.000227502 0)
(1.03531 0.00310909 0)
(1.03508 0.00632359 0)
(1.03801 0.00867014 0)
(1.044 0.00998614 0)
(1.05382 0.0105298 0)
(1.06855 0.0105006 0)
(1.0893 0.00992798 0)
(1.08197 0.00828058 0)
(0.930821 0.00407135 0)
(0.572064 0.000788768 0)
(0.118448 1.23084e-05 0)
(0.12298 2.60216e-05 0)
(0.776127 -0.000642513 0)
(1.03119 -0.00388581 0)
(1.09761 -0.00709731 0)
(1.08473 -0.00770862 0)
(1.06703 -0.00739463 0)
(1.055 -0.00592448 0)
(1.04688 -0.00348191 0)
(1.04135 -6.93409e-05 0)
(1.038 0.00402911 0)
(1.03746 0.00792122 0)
(1.03985 0.0108065 0)
(1.04505 0.0125441 0)
(1.05381 0.0132851 0)
(1.0678 0.0128618 0)
(1.08692 0.0118424 0)
(1.07337 0.00882267 0)
(0.918203 0.0038399 0)
(0.56604 0.000790239 0)
(0.117583 2.72942e-05 0)
(0.123329 2.81923e-05 0)
(0.771184 -0.000138304 0)
(1.02068 -0.00287955 0)
(1.09137 -0.00715038 0)
(1.08393 -0.00945116 0)
(1.0687 -0.0091455 0)
(1.05792 -0.00732613 0)
(1.05053 -0.00408352 0)
(1.04521 0.000191766 0)
(1.04167 0.0052007 0)
(1.04071 0.00994539 0)
(1.04247 0.0134713 0)
(1.04679 0.0157728 0)
(1.0543 0.0167132 0)
(1.06619 0.0162786 0)
(1.08105 0.0139199 0)
(1.06082 0.00887178 0)
(0.905608 0.00342009 0)
(0.560573 0.000772631 0)
(0.116538 4.08295e-05 0)
(0.123956 3.58103e-05 0)
(0.768649 0.000475407 0)
(1.0112 -0.00113538 0)
(1.08258 -0.00509632 0)
(1.08173 -0.00821696 0)
(1.06989 -0.0084378 0)
(1.06133 -0.00649214 0)
(1.05465 -0.00298721 0)
(1.04939 0.00156324 0)
(1.0456 0.00686738 0)
(1.0441 0.0117983 0)
(1.04522 0.0153187 0)
(1.04855 0.0173461 0)
(1.05419 0.0178284 0)
(1.06357 0.0170434 0)
(1.0718 0.0133801 0)
(1.04648 0.00762379 0)
(0.894677 0.00282886 0)
(0.555896 0.00073686 0)
(0.115413 4.62668e-05 0)
(0.12498 5.12575e-05 0)
(0.768873 0.00106117 0)
(1.00533 0.000768198 0)
(1.075 -0.00164277 0)
(1.07818 -0.00396018 0)
(1.07124 -0.00443868 0)
(1.06462 -0.00290091 0)
(1.05873 0.000178842 0)
(1.05359 0.00432923 0)
(1.04949 0.00913528 0)
(1.04728 0.0133466 0)
(1.04757 0.0159659 0)
(1.04963 0.0172236 0)
(1.0535 0.0170705 0)
(1.05878 0.0149419 0)
(1.06195 0.011045 0)
(1.03397 0.00612433 0)
(0.886237 0.0024888 0)
(0.55175 0.000774167 0)
(0.114228 5.21369e-05 0)
(0.126442 6.94312e-05 0)
(0.771315 0.00159783 0)
(1.00372 0.0023437 0)
(1.07088 0.00151742 0)
(1.07632 0.000433843 0)
(1.07222 0.00047869 0)
(1.06732 0.00193769 0)
(1.06222 0.00457749 0)
(1.05718 0.00810723 0)
(1.05263 0.0120079 0)
(1.04955 0.0150702 0)
(1.04874 0.0164443 0)
(1.04942 0.0163657 0)
(1.0512 0.0150986 0)
(1.05361 0.0126152 0)
(1.05351 0.00912334 0)
(1.02455 0.0053304 0)
(0.879576 0.00255765 0)
(0.547519 0.000911241 0)
(0.11288 6.34947e-05 0)
(0.12837 8.8021e-05 0)
(0.775805 0.00209884 0)
(1.00513 0.00352917 0)
(1.07029 0.00401076 0)
(1.07647 0.00418313 0)
(1.07378 0.00505815 0)
(1.0699 0.00684766 0)
(1.06533 0.00941128 0)
(1.06021 0.0124936 0)
(1.05498 0.0155333 0)
(1.05083 0.0174035 0)
(1.04863 0.0175006 0)
(1.04785 0.0164681 0)
(1.04797 0.0143693 0)
(1.04851 0.0116598 0)
(1.04664 0.0085485 0)
(1.0173 0.00545802 0)
(0.873472 0.00298627 0)
(0.542619 0.00113454 0)
(0.111232 8.06905e-05 0)
(0.130838 0.000110696 0)
(0.782111 0.00267077 0)
(1.00901 0.00475273 0)
(1.07239 0.00613333 0)
(1.07862 0.00746297 0)
(1.07638 0.00921795 0)
(1.07287 0.011608 0)
(1.06834 0.0144522 0)
(1.06284 0.017415 0)
(1.05664 0.0198363 0)
(1.05114 0.0206711 0)
(1.04749 0.019692 0)
(1.04533 0.0176821 0)
(1.04414 0.0150415 0)
(1.04345 0.0121325 0)
(1.04061 0.00916651 0)
(1.01089 0.0062934 0)
(0.867054 0.0036726 0)
(0.536653 0.00141394 0)
(0.109177 9.99146e-05 0)
(0.134005 0.000144132 0)
(0.790418 0.00341819 0)
(1.01513 0.00620666 0)
(1.07665 0.00844587 0)
(1.08247 0.0106126 0)
(1.08018 0.0133353 0)
(1.07653 0.0165825 0)
(1.0716 0.0199722 0)
(1.06528 0.0230614 0)
(1.05775 0.025127 0)
(1.05062 0.0251393 0)
(1.04546 0.0232274 0)
(1.04198 0.0203091 0)
(1.0397 0.0170295 0)
(1.03813 0.0137725 0)
(1.03465 0.010643 0)
(1.00436 0.00757331 0)
(0.859613 0.00455322 0)
(0.529292 0.00178035 0)
(0.106606 0.000124498 0)
(0.138128 0.000196374 0)
(0.801254 0.00447848 0)
(1.02339 0.00817091 0)
(1.08288 0.011236 0)
(1.08806 0.014276 0)
(1.08538 0.0180477 0)
(1.08111 0.0222343 0)
(1.07526 0.0263224 0)
(1.06764 0.0297772 0)
(1.05838 0.0316807 0)
(1.04934 0.0309657 0)
(1.0425 0.0281177 0)
(1.03771 0.0242811 0)
(1.03444 0.0202327 0)
(1.03214 0.0163984 0)
(1.02813 0.0128393 0)
(0.996941 0.00931586 0)
(0.850492 0.0056646 0)
(0.520179 0.00221726 0)
(0.103423 0.000153626 0)
(0.143561 0.000270009 0)
(0.815315 0.00595767 0)
(1.03416 0.0108337 0)
(1.09128 0.0148562 0)
(1.09561 0.0189433 0)
(1.09213 0.0238705 0)
(1.08679 0.0291287 0)
(1.0795 0.0341087 0)
(1.07007 0.0380737 0)
(1.05856 0.0398696 0)
(1.04723 0.0383974 0)
(1.03852 0.0345089 0)
(1.03234 0.0296266 0)
(1.02806 0.0246269 0)
(1.02506 0.019989 0)
(1.02049 0.0157638 0)
(0.988106 0.011561 0)
(0.839223 0.00706862 0)
(0.508817 0.00276055 0)
(0.0994918 0.000190217 0)
(0.150804 0.000373556 0)
(0.833433 0.00802432 0)
(1.04799 0.0143836 0)
(1.10223 0.019514 0)
(1.10546 0.0248941 0)
(1.10083 0.0312462 0)
(1.09394 0.0378549 0)
(1.08466 0.0439235 0)
(1.07275 0.0484579 0)
(1.05836 0.0500909 0)
(1.04427 0.0477136 0)
(1.0334 0.0425929 0)
(1.02564 0.0364529 0)
(1.02025 0.0302837 0)
(1.01647 0.0246183 0)
(1.01126 0.0195084 0)
(0.977339 0.0144248 0)
(0.825226 0.00885244 0)
(0.494706 0.00343866 0)
(0.0946649 0.000235811 0)
(0.160651 0.000538255 0)
(0.857028 0.0110487 0)
(1.06589 0.0193124 0)
(1.11643 0.0258234 0)
(1.11815 0.0329119 0)
(1.11184 0.0410213 0)
(1.1028 0.0492098 0)
(1.09076 0.0564279 0)
(1.07563 0.0614701 0)
(1.05768 0.0627595 0)
(1.04033 0.0592174 0)
(1.02696 0.0525969 0)
(1.0174 0.0449374 0)
(1.01069 0.0373462 0)
(1.00598 0.0304161 0)
(0.999955 0.024198 0)
(0.964089 0.0180078 0)
(0.808062 0.0110976 0)
(0.477325 0.00426806 0)
(0.0887913 0.000285671 0)
(0.174372 0.000813442 0)
(0.888187 0.0157671 0)
(1.08931 0.0265463 0)
(1.13496 0.0348167 0)
(1.13429 0.0441136 0)
(1.12544 0.0543643 0)
(1.11327 0.0642581 0)
(1.09757 0.0725274 0)
(1.0784 0.0777932 0)
(1.05621 0.0783345 0)
(1.03511 0.0732349 0)
(1.01892 0.0647966 0)
(1.00731 0.0553453 0)
(0.999072 0.0460715 0)
(0.993213 0.0376272 0)
(0.986124 0.030072 0)
(0.947734 0.0225435 0)
(0.786953 0.0139457 0)
(0.456204 0.00529537 0)
(0.0817279 0.000338318 0)
(0.194229 0.00129353 0)
(0.930214 0.023341 0)
(1.12039 0.0374949 0)
(1.15932 0.0481922 0)
(1.15462 0.0603187 0)
(1.14179 0.0729359 0)
(1.12516 0.0843809 0)
(1.10471 0.0932806 0)
(1.08062 0.098149 0)
(1.05354 0.097273 0)
(1.02825 0.0900772 0)
(1.00897 0.0794627 0)
(0.995056 0.0679735 0)
(0.985051 0.0568086 0)
(0.977787 0.046633 0)
(0.969265 0.0375221 0)
(0.927464 0.0283961 0)
(0.7609 0.0176755 0)
(0.430439 0.00665707 0)
(0.0732666 0.000403678 0)
(0.223709 0.00240269 0)
(0.989112 0.0370018 0)
(1.16132 0.0561312 0)
(1.1905 0.069781 0)
(1.17929 0.0848242 0)
(1.16053 0.0992278 0)
(1.13788 0.111271 0)
(1.11149 0.119716 0)
(1.0817 0.123147 0)
(1.04924 0.119936 0)
(1.01949 0.109988 0)
(0.996912 0.0968307 0)
(0.980481 0.0831179 0)
(0.968443 0.069967 0)
(0.959424 0.057975 0)
(0.948892 0.0471882 0)
(0.902358 0.0361832 0)
(0.728637 0.0226969 0)
(0.399651 0.00853893 0)
(0.0636316 0.000448 0)
(0.264639 0.00919988 -1.47277e-20)
(1.06803 0.0650157 -1.14583e-20)
(1.21054 0.0884353 3.25225e-21)
(1.22606 0.105362 0)
(1.20583 0.121505 1.33508e-35)
(1.17951 0.135656 -2.63407e-23)
(1.14977 0.146534 -9.72749e-22)
(1.11673 0.153111 0)
(1.08075 0.154093 4.25683e-35)
(1.04244 0.14787 -3.34208e-21)
(1.00774 0.134827 0)
(0.981343 0.119041 -4.90952e-21)
(0.96183 0.103156 -1.50857e-20)
(0.947119 0.088192 -7.32153e-21)
(0.935577 0.0747607 -2.31715e-21)
(0.922001 0.0627143 -1.40631e-21)
(0.870049 0.0501006 0)
(0.686902 0.0327079 1.0124e-21)
(0.362455 0.0142939 1.20126e-21)
(0.0547443 0.00179977 2.1279e-20)
(0.290705 0.0258282 -2.59252e-20)
(1.13122 0.110583 5.07755e-22)
(1.25334 0.136627 -1.51425e-21)
(1.25806 0.15435 0)
(1.22961 0.16891 2.72229e-21)
(1.19593 0.181233 1.79624e-21)
(1.15917 0.190182 -4.9763e-22)
(1.1194 0.194603 -5.15855e-21)
(1.07683 0.193153 0)
(1.03193 0.184216 1.41568e-20)
(0.991124 0.168535 1.5889e-20)
(0.959588 0.150639 5.15843e-21)
(0.935657 0.133148 2.05705e-20)
(0.916966 0.116863 3.04831e-20)
(0.901576 0.10235 0)
(0.883248 0.0894978 4.56043e-20)
(0.826861 0.0753915 6.68828e-20)
(0.643085 0.0538534 7.4685e-20)
(0.336166 0.0276786 -8.67111e-20)
(0.0505282 0.00435265 -1.58633e-21)
(0.286412 0.0418609 0)
(1.16732 0.169105 -7.76778e-21)
(1.28563 0.198056 0)
(1.28303 0.213225 1.28005e-20)
(1.24816 0.224244 0)
(1.20816 0.233099 7.29714e-21)
(1.16514 0.238776 1.95588e-22)
(1.11918 0.240027 -6.93993e-21)
(1.07053 0.235447 -1.54641e-21)
(1.01953 0.223424 6.78837e-21)
(0.973159 0.205148 3.73007e-20)
(0.937063 0.185522 -2.79459e-22)
(0.909319 0.16707 -1.55072e-20)
(0.887295 0.15043 -3.03087e-20)
(0.868945 0.135896 3.68838e-20)
(0.848356 0.123129 -6.64052e-20)
(0.794066 0.10862 -9.13706e-21)
(0.628689 0.0826403 0)
(0.345802 0.0460118 1.60211e-22)
(0.0575761 0.00820017 0)
(0.276729 0.0556843 -1.92092e-19)
(1.18394 0.230579 7.92871e-20)
(1.30606 0.264138 4.259e-20)
(1.2993 0.276752 -8.27825e-21)
(1.26 0.283857 1.26855e-20)
(1.21528 0.288657 -1.72681e-20)
(1.16724 0.290488 -5.13031e-22)
(1.11611 0.28805 0)
(1.06221 0.279915 -2.54892e-20)
(1.00589 0.264483 0)
(0.954762 0.243516 -1.89368e-20)
(0.914949 0.222284 -2.70746e-20)
(0.884316 0.203136 -1.7422e-20)
(0.86002 0.186414 -2.26315e-20)
(0.839948 0.172164 0)
(0.818772 0.159913 0)
(0.769343 0.145481 -6.15248e-20)
(0.622407 0.115919 1.23055e-20)
(0.35587 0.0676197 -7.17302e-21)
(0.0640351 0.0126436 -8.39644e-21)
(0.267215 0.0680329 1.41014e-19)
(1.18829 0.291429 0)
(1.31703 0.330912 -1.18552e-19)
(1.30796 0.341422 -3.08465e-20)
(1.26558 0.344761 -2.40104e-20)
(1.21744 0.34557 0)
(1.16555 0.343508 -4.16865e-21)
(1.11021 0.337283 5.54755e-21)
(1.05191 0.325439 1.07497e-20)
(0.991117 0.306449 3.46019e-20)
(0.93608 0.282618 0)
(0.893485 0.259599 -5.89832e-20)
(0.860975 0.239512 -3.79875e-20)
(0.835434 0.222491 -2.29424e-20)
(0.814617 0.208392 1.51446e-19)
(0.793799 0.196514 1.86357e-20)
(0.749028 0.181907 8.92782e-20)
(0.614669 0.14824 -4.32027e-19)
(0.358753 0.0878299 2.56699e-19)
(0.0668392 0.0166702 -3.10561e-19)
(0.258942 0.0791137 1.48261e-19)
(1.1849 0.349653 -2.75744e-20)
(1.32093 0.396471 2.07373e-20)
(1.31054 0.405338 5.66728e-20)
(1.26599 0.405185 3.52343e-20)
(1.21525 0.40231 1.64889e-21)
(1.16037 0.396504 3.94272e-21)
(1.1017 0.386566 3.20381e-21)
(1.03972 0.371071 -2.36728e-20)
(0.975179 0.348462 0)
(0.917002 0.321557 -2.51551e-20)
(0.872216 0.296432 -1.49281e-21)
(0.838339 0.275065 -4.25934e-20)
(0.812049 0.257391 0)
(0.791039 0.24299 -3.30478e-20)
(0.770985 0.2309 -8.05414e-20)
(0.729942 0.215422 2.23445e-19)
(0.603781 0.177282 -2.229e-19)
(0.355705 0.105323 3.16893e-19)
(0.0670773 0.0200245 -3.3041e-19)
(0.252262 0.0893747 -4.32378e-22)
(1.17684 0.404778 3.35832e-20)
(1.31961 0.459725 9.88101e-20)
(1.30853 0.467436 -3.45307e-20)
(1.26241 0.464159 2.00606e-20)
(1.20968 0.457908 0)
(1.15241 0.448632 1.01467e-20)
(1.09097 0.435169 -1.54661e-21)
(1.02589 0.41611 -1.0426e-20)
(0.958021 0.389896 0)
(0.897078 0.359772 -2.43671e-20)
(0.850547 0.332252 -3.47375e-20)
(0.815771 0.309212 4.66238e-20)
(0.789172 0.290392 -3.00119e-20)
(0.768296 0.275201 -1.45617e-19)
(0.749037 0.262431 8.97606e-20)
(0.710688 0.245687 2.84959e-20)
(0.589894 0.20277 0)
(0.3485 0.120149 -3.07922e-19)
(0.0658299 0.0227631 -1.13151e-20)
(0.247035 0.0991287 2.41738e-20)
(1.16611 0.456655 -3.85277e-20)
(1.31448 0.520077 -5.39472e-20)
(1.30309 0.527076 -1.06448e-19)
(1.25573 0.521083 9.67617e-20)
(1.20144 0.511804 -5.29124e-20)
(1.14224 0.499357 -2.14608e-20)
(1.07848 0.48262 -1.63648e-21)
(1.01074 0.460183 1.14818e-20)
(0.939937 0.430403 -8.42981e-20)
(0.876609 0.396947 -3.02604e-20)
(0.828668 0.366792 0)
(0.793181 0.34171 5.10222e-20)
(0.766394 0.321306 6.32945e-20)
(0.745713 0.304912 7.81577e-20)
(0.727149 0.291103 -9.79636e-20)
(0.690599 0.272636 -2.95391e-20)
(0.573525 0.224899 3.50589e-20)
(0.338254 0.132277 0)
(0.06358 0.0248515 -2.46635e-20)
(0.243021 0.108511 -2.79775e-19)
(1.15408 0.505454 1.76224e-19)
(1.30667 0.577417 5.92502e-20)
(1.29503 0.583988 -8.10399e-20)
(1.24677 0.575578 5.75865e-20)
(1.19125 0.563625 -3.86011e-21)
(1.13048 0.548348 2.13533e-20)
(1.06476 0.528641 -1.13788e-21)
(0.994695 0.50305 -1.88826e-20)
(0.921332 0.469833 1.56682e-22)
(0.855644 0.432977 -8.97069e-20)
(0.806298 0.399923 8.89562e-20)
(0.77013 0.37247 -5.72953e-20)
(0.743216 0.350128 7.15249e-20)
(0.722817 0.332165 0)
(0.704909 0.31702 -5.32172e-20)
(0.669555 0.296443 -1.29164e-21)
(0.555191 0.243718 -1.53377e-19)
(0.32578 0.14214 -2.26808e-20)
(0.0605237 0.0263017 0)
(0.240016 0.117621 0)
(1.14152 0.551425 1.90877e-19)
(1.29691 0.631752 1.37837e-19)
(1.28512 0.637959 9.12763e-20)
(1.23617 0.627466 5.57689e-20)
(1.17967 0.613171 0)
(1.11761 0.595377 1.89907e-20)
(1.05021 0.573006 -1.22098e-21)
(0.978038 0.544536 3.98378e-20)
(0.902153 0.508088 -1.01275e-20)
(0.834163 0.46783 -6.58882e-20)
(0.783375 0.431606 4.43651e-20)
(0.746525 0.401484 -1.94076e-21)
(0.719472 0.376933 7.53059e-20)
(0.699387 0.357106 4.94619e-20)
(0.682067 0.340313 -1.16004e-19)
(0.647454 0.317313 1.40643e-19)
(0.535083 0.259508 4.20703e-20)
(0.311463 0.149688 1.74031e-19)
(0.0568283 0.0270947 -4.65969e-19)
(0.23787 0.126588 -7.14889e-20)
(1.12895 0.594747 1.09943e-19)
(1.28581 0.682933 -8.55405e-20)
(1.27396 0.688981 -1.05623e-19)
(1.2244 0.676685 0)
(1.16713 0.660317 4.51718e-20)
(1.10398 0.640308 -5.5454e-20)
(1.03512 0.615578 -2.7831e-21)
(0.960982 0.584544 0)
(0.882653 0.545108 -1.58807e-19)
(0.812341 0.501528 1.79788e-19)
(0.759923 0.462023 0)
(0.722327 0.428927 6.79732e-20)
(0.695104 0.40187 -1.96251e-21)
(0.675278 0.379924 -1.56564e-19)
(0.658347 0.36116 6.15859e-20)
(0.624107 0.335422 0)
(0.513341 0.272337 2.28196e-19)
(0.295436 0.154904 0)
(0.0525904 0.0272593 -2.22286e-19)
(0.236394 0.135421 7.95907e-20)
(1.11664 0.635622 1.25417e-19)
(1.27399 0.731104 -8.96662e-20)
(1.26192 0.737138 0)
(1.21191 0.723232 7.61065e-20)
(1.15401 0.705045 0)
(1.08994 0.683093 7.14435e-20)
(1.01977 0.656308 8.79052e-21)
(0.943847 0.623036 3.31889e-21)
(0.863127 0.580958 -7.83949e-20)
(0.79024 0.534231 1.73198e-20)
(0.735886 0.491442 0)
(0.697317 0.455162 -1.44635e-19)
(0.669838 0.425274 2.0328e-21)
(0.650127 0.400912 0)
(0.633456 0.379891 2.4342e-21)
(0.59932 0.350942 2.07452e-19)
(0.48978 0.282137 -2.00165e-19)
(0.277692 0.157732 5.91048e-20)
(0.0478253 0.0267513 0)
(0.235234 0.14401 0)
(1.10469 0.674258 1.4005e-19)
(1.26172 0.77633 1.04882e-19)
(1.24935 0.782481 -2.17811e-21)
(1.19902 0.767142 4.73334e-20)
(1.14061 0.747362 1.06384e-19)
(1.07579 0.723726 -2.32417e-20)
(1.00447 0.695179 4.4435e-21)
(0.926868 0.659995 2.23727e-20)
(0.84374 0.615605 -1.21594e-19)
(0.768085 0.565982 -3.08898e-21)
(0.7114 0.519957 -5.87522e-20)
(0.671298 0.480331 2.37424e-19)
(0.643365 0.44729 -2.44337e-21)
(0.623779 0.420154 -1.23844e-19)
(0.607345 0.396552 -2.267e-19)
(0.573067 0.363979 0)
(0.464297 0.288941 0)
(0.258177 0.158023 6.50523e-20)
(0.0426151 0.0255291 -3.80371e-20)
(0.23462 0.152439 9.86629e-20)
(1.09326 0.710624 -3.06101e-19)
(1.2492 0.8188 -1.12272e-19)
(1.23652 0.82508 0)
(1.18596 0.808467 -1.49794e-21)
(1.12718 0.787297 1.26954e-19)
(1.06174 0.762216 -7.62495e-20)
(0.989416 0.732184 -3.87442e-20)
(0.910235 0.695423 2.07681e-20)
(0.824717 0.64912 -9.26806e-20)
(0.746108 0.596922 -1.51728e-19)
(0.686751 0.547738 1.5661e-19)
(0.644618 0.504584 0)
(0.615809 0.468045 -5.57334e-20)
(0.596192 0.43786 -1.36244e-19)
(0.579898 0.411261 -1.64588e-19)
(0.545114 0.374484 -2.00248e-19)
(0.436685 0.292622 6.00009e-20)
(0.236756 0.155407 -3.52044e-20)
(0.0369447 0.023557 4.42225e-22)
(0.234066 0.16062 0)
(1.08269 0.744661 0)
(1.23661 0.858625 2.44215e-21)
(1.22364 0.865025 0)
(1.17294 0.847296 -1.77119e-19)
(1.11389 0.824908 -1.11591e-19)
(1.04796 0.79859 0)
(0.974766 0.767334 -8.59203e-21)
(0.894141 0.729321 2.14086e-20)
(0.806249 0.681507 -2.1271e-19)
(0.724479 0.62719 0)
(0.66205 0.575123 -1.00274e-19)
(0.617549 0.528466 -3.00178e-21)
(0.587235 0.488198 -2.48166e-21)
(0.567247 0.454393 1.45611e-19)
(0.550909 0.42432 -3.99433e-22)
(0.515194 0.382508 -4.35801e-19)
(0.406465 0.292935 1.31094e-19)
(0.213471 0.149922 3.89399e-20)
(0.0308551 0.0208473 0)
(0.233522 0.168529 -3.61944e-19)
(1.07257 0.776883 -1.87664e-19)
(1.22412 0.895926 -2.80322e-19)
(1.21088 0.902417 3.92024e-19)
(1.1601 0.883692 -3.31334e-19)
(1.10088 0.860256 0)
(1.03459 0.832895 -6.37458e-20)
(0.960666 0.800655 1.63991e-20)
(0.878715 0.761699 3.67748e-21)
(0.788509 0.712802 1.69786e-20)
(0.703419 0.656828 1.89273e-19)
(0.637474 0.602251 -3.41921e-20)
(0.590041 0.552199 -1.46672e-19)
(0.557631 0.507944 -6.64085e-20)
(0.536872 0.47001 8.12979e-20)
(0.520205 0.435672 -3.38017e-22)
(0.48322 0.387963 1.19914e-19)
(0.373517 0.289638 -2.84777e-19)
(0.187862 0.141078 3.39637e-19)
(0.0244632 0.0175043 4.91614e-20)
(0.232853 0.176083 1.32746e-19)
(1.06289 0.807307 -1.0254e-19)
(1.21184 0.930828 5.86521e-21)
(1.19832 0.937387 2.20983e-19)
(1.14755 0.91777 7.71541e-20)
(1.08825 0.893416 2.22172e-19)
(1.02172 0.865184 -2.78032e-20)
(0.947204 0.832167 7.73313e-20)
(0.864074 0.792554 -8.25182e-22)
(0.771646 0.74299 -1.14092e-19)
(0.683125 0.685914 0)
(0.613285 0.6293 -1.54198e-19)
(0.562145 0.576092 2.1309e-19)
(0.52684 0.527644 0)
(0.504679 0.484953 -1.74082e-19)
(0.487438 0.445331 1.08311e-19)
(0.448911 0.390263 -1.2975e-19)
(0.338233 0.282264 -1.565e-19)
(0.160982 0.129213 -2.77034e-19)
(0.0179882 0.0136091 -2.1618e-19)
(0.232354 0.183377 -1.45763e-19)
(1.0535 0.835948 1.09632e-19)
(1.19984 0.963422 2.60627e-19)
(1.18608 0.970029 3.03449e-19)
(1.13537 0.94962 -1.61584e-19)
(1.07609 0.924478 1.52643e-19)
(1.00943 0.89551 -8.66582e-20)
(0.934448 0.861914 9.39026e-20)
(0.850282 0.821904 5.85613e-21)
(0.755765 0.772069 1.06864e-19)
(0.663809 0.714445 4e-19)
(0.589755 0.656364 0)
(0.534244 0.60043 0)
(0.494952 0.547897 -7.68528e-20)
(0.470359 0.499769 0)
(0.451896 0.453095 2.36278e-19)
(0.411747 0.388564 2.84308e-19)
(0.300921 0.269838 0)
(0.133959 0.114397 0)
(0.0119812 0.00956397 2.35988e-19)
(0.231593 0.190148 1.60523e-19)
(1.04442 0.862822 1.30842e-19)
(1.18818 0.993837 1.87173e-19)
(1.17419 1.00047 -2.70341e-19)
(1.12363 0.97935 -1.7978e-19)
(1.06443 0.953518 -2.01746e-19)
(0.997754 0.923939 1.28109e-19)
(0.922442 0.889928 4.17596e-22)
(0.837396 0.849753 -4.71478e-21)
(0.740953 0.80001 -6.00123e-21)
(0.645626 0.742397 2.0212e-19)
(0.567144 0.683488 0)
(0.506723 0.625511 2.14905e-19)
(0.462195 0.569331 1.61754e-19)
(0.433478 0.515362 4.15249e-19)
(0.412315 0.459248 1.27444e-19)
(0.370353 0.380965 -1.5763e-19)
(0.262668 0.249788 -9.27923e-20)
(0.110409 0.0964026 0)
(0.00783348 0.00603036 2.57112e-19)
(0.231039 0.196808 -3.52596e-19)
(1.03564 0.888042 0)
(1.17687 1.02215 2.08695e-19)
(1.16271 1.02881 -2.21185e-19)
(1.11236 1.00706 2.02925e-19)
(1.05332 0.980627 2.93692e-19)
(0.986726 0.950534 -2.95249e-19)
(0.911204 0.916249 3.65736e-21)
(0.825438 0.876107 0)
(0.727261 0.826769 -9.55807e-20)
(0.628712 0.769702 -4.15935e-19)
(0.545724 0.710657 2.07919e-20)
(0.479995 0.651341 2.91285e-19)
(0.429099 0.592557 0)
(0.39381 0.533058 2.79877e-19)
(0.366805 0.464942 0)
(0.320608 0.365613 0)
(0.222729 0.214254 -1.03765e-19)
(0.102599 0.0657279 0)
(0.0258423 0.0116791 6.9557e-20)
(0.23016 0.202837 -3.8484e-19)
(1.02713 0.911928 0)
(1.16591 1.04858 3.37563e-19)
(1.1516 1.05526 0)
(1.10152 1.03299 -1.09885e-19)
(1.04268 1.00608 0)
(0.976275 0.975595 -2.18609e-20)
(0.900638 0.941204 -1.59972e-20)
(0.814294 0.901312 -1.90228e-21)
(0.714554 0.852714 -9.06896e-20)
(0.61296 0.796759 1.06715e-20)
(0.525413 0.738372 1.72241e-19)
(0.453989 0.678505 2.81616e-19)
(0.395643 0.618444 4.04647e-20)
(0.350726 0.555155 2.18525e-19)
(0.312526 0.473934 0)
(0.251023 0.344804 3.45024e-19)
(0.157947 0.149086 -2.05507e-19)
(0.0617281 0.0666425 2.36696e-19)
(-0.0651517 0.388609 -2.77268e-19)
(0.229281 0.208587 3.13437e-19)
(1.01866 0.934362 4.95679e-19)
(1.15521 1.07343 0)
(1.14075 1.08025 4.68747e-21)
(1.09097 1.0577 2.98033e-19)
(1.0323 1.03052 -5.65956e-19)
(0.96613 0.99987 -1.29309e-19)
(0.890398 0.965679 0)
(0.803524 0.926409 -3.57695e-20)
(0.702281 0.879106 -2.08421e-21)
(0.597601 0.825008 0)
(0.505256 0.768378 0)
(0.427616 0.708839 2.46048e-19)
(0.361059 0.648991 -1.26231e-19)
(0.302802 0.58589 -2.16933e-19)
(0.245926 0.494606 0)
(0.140719 0.331613 1.74898e-19)
(0.0305957 0.444591 -2.07231e-19)
(0.0472284 1.7506 -1.07264e-19)
(0.0831029 2.74076 -1.38964e-19)
(0.228296 0.213487 -2.29105e-19)
(1.0105 0.955481 -6.24735e-19)
(1.14475 1.0967 1.94185e-19)
(1.13014 1.10362 1.87011e-19)
(1.08072 1.08097 0)
(1.0222 1.05366 -4.0453e-19)
(0.956455 1.02306 -2.15655e-19)
(0.880633 0.989262 1.04213e-20)
(0.793347 0.950894 -4.89671e-21)
(0.690769 0.905321 6.30769e-20)
(0.58319 0.853731 1.80821e-19)
(0.486171 0.799996 1.74428e-19)
(0.402114 0.741898 2.40163e-19)
(0.327813 0.68236 -2.86367e-19)
(0.25638 0.626188 -3.19039e-19)
(0.174528 0.534763 0)
(0.078308 0.808018 0)
(0.135997 2.44609 9.04252e-20)
(0.141571 3.15632 0)
(0.142975 3.36983 2.06005e-19)
(0.229603 0.218294 0)
(1.00312 0.975365 0)
(1.13434 1.11824 0)
(1.11958 1.12518 5.19799e-20)
(1.07049 1.10261 2.65699e-19)
(1.01218 1.0754 -3.07965e-19)
(0.947143 1.04508 -1.54082e-19)
(0.871298 1.01186 1.17449e-20)
(0.783724 0.974636 -7.76544e-20)
(0.680039 0.931212 -1.01295e-20)
(0.569874 0.882795 3.20123e-19)
(0.468501 0.832967 -2.04794e-20)
(0.378007 0.778121 2.66932e-20)
(0.297148 0.71614 4.06167e-20)
(0.218116 0.672519 1.03341e-21)
(0.141116 0.913328 1.68442e-21)
(0.183403 2.56902 -4.41582e-19)
(0.207656 3.26283 -1.66629e-19)
(0.189612 3.4234 7.64255e-20)
(0.169992 3.45109 -7.7351e-20)
(0.147243 0.175906 1.30591e-19)
(0.98902 0.997024 0)
(1.12377 1.13826 -3.80359e-19)
(1.10985 1.14558 -4.83e-19)
(1.06101 1.12336 5.52292e-19)
(1.0031 1.09636 3.26793e-19)
(0.938102 1.06603 1.79708e-19)
(0.862482 1.03358 -1.98186e-19)
(0.77481 0.997773 8.10002e-20)
(0.670432 0.956766 0)
(0.55823 0.912019 1.3356e-19)
(0.453064 0.866724 -1.27886e-19)
(0.356259 0.818787 0)
(0.269844 0.754525 3.52849e-20)
(0.204154 0.851084 8.43025e-20)
(0.18685 2.20045 -1.05066e-19)
(0.280102 3.2986 1.16621e-19)
(0.256942 3.44513 5.44735e-20)
(0.215148 3.47293 6.18658e-20)
(0.186703 3.48576 7.09682e-20)
(0.269781 0.25195 -2.42932e-19)
(0.970915 1.00207 0)
(1.10381 1.1598 3.87807e-19)
(1.09612 1.17566 4.99396e-19)
(1.04573 1.1535 -5.67338e-19)
(0.987858 1.12705 -3.46348e-19)
(0.922677 1.09815 -2.7552e-19)
(0.847122 1.06699 -1.47166e-20)
(0.759004 1.03356 -1.12918e-19)
(0.653083 0.996892 -1.66221e-20)
(0.537501 0.959284 4.56652e-21)
(0.426982 0.923196 9.51173e-20)
(0.320339 0.890315 2.11599e-20)
(0.245102 0.985114 -3.07388e-20)
(0.283596 2.10775 -7.23543e-20)
(0.361206 3.29426 4.58148e-20)
(0.349854 3.48627 -3.63167e-20)
(0.307194 3.51361 -1.98427e-20)
(0.26318 3.54622 1.79432e-20)
(0.19958 3.53771 8.03111e-22)
(0.256033 0.247353 0)
(0.966511 1.02124 1.01921e-19)
(1.09542 1.18072 -7.68117e-20)
(1.08616 1.19653 -5.56491e-20)
(1.03625 1.17448 -3.72409e-19)
(0.978708 1.14825 3.3805e-19)
(0.91357 1.11952 1.85111e-19)
(0.838394 1.08922 -1.5372e-20)
(0.750564 1.05741 1.38475e-19)
(0.644548 1.02383 -1.40108e-20)
(0.527978 0.991381 -1.5117e-19)
(0.415442 0.962462 1.34239e-20)
(0.310924 0.951249 -1.7923e-20)
(0.292621 1.36608 -2.47095e-20)
(0.399042 2.95083 1.88727e-20)
(0.442902 3.47055 6.73761e-22)
(0.391205 3.55641 -6.56988e-20)
(0.347457 3.58557 -7.26313e-20)
(0.28857 3.61298 9.5974e-20)
(0.216142 3.60697 4.22289e-20)
(0.238577 0.244333 2.49783e-19)
(0.960089 1.04277 6.855e-19)
(1.0863 1.20326 -2.19264e-19)
(1.07578 1.21871 -2.11266e-19)
(1.02628 1.19653 0)
(0.96915 1.17032 4.93643e-19)
(0.904382 1.14183 2.81807e-19)
(0.829884 1.11234 -1.61025e-20)
(0.742696 1.08219 1.44315e-20)
(0.637128 1.05186 8.3934e-20)
(0.52034 1.02476 -3.54712e-20)
(0.407644 1.00376 -8.64376e-20)
(0.317208 1.04889 -1.13079e-19)
(0.374458 1.92597 1.24932e-19)
(0.502373 3.32961 4.48482e-20)
(0.504782 3.54955 0)
(0.44279 3.60624 0)
(0.399273 3.66346 9.03505e-20)
(0.316761 3.73577 0)
(0.229774 3.70283 1.92337e-19)
(0.226344 0.244217 -3.64209e-19)
(0.951775 1.0651 -5.69921e-19)
(1.07567 1.22665 0)
(1.06418 1.24151 5.31586e-21)
(1.01515 1.21894 -3.6175e-19)
(0.958566 1.19261 7.32554e-19)
(0.89452 1.16437 1.89149e-19)
(0.820936 1.1356 -1.97821e-20)
(0.734671 1.10701 1.5182e-19)
(0.629987 1.07981 -8.32936e-21)
(0.513768 1.05814 0)
(0.402754 1.04651 0)
(0.345073 1.21301 -7.64715e-20)