/*--------------------------------*- C++ -*----------------------------------*\
| =========                 |                                                 |
| \\      /  F ield         | OpenFOAM: The Open Source CFD Toolbox           |
|  \\    /   O peration     | Version:  4.0                                   |
|   \\  /    A nd           | Web:      www.OpenFOAM.org                      |
|    \\/     M anipulation  |                                                 |
\*---------------------------------------------------------------------------*/
FoamFile
{
    version     2.0;
    format      ascii;
    class       volVectorField;
    location    "75";
    object      U;
}
// * * * * * * * * * * * * * * * * * * * * * * * * * * * * * * * * * * * * * //

dimensions      [0 1 -1 0 0 0 0];

internalField   nonuniform List<vector> 
2200
(
(0.878835 -0.0304114 0)
(1.00578 -0.0512766 0)
(1.00326 -0.0353982 0)
(1.0002 -0.0244261 0)
(0.999818 -0.0166417 0)
(1.00003 -0.0106998 0)
(1 -0.006809 0)
(0.99989 -0.00412972 0)
(0.99971 -0.0020938 0)
(1.00019 -0.00060392 0)
(0.999981 0.00129217 0)
(1.00021 0.00274988 0)
(1.00041 0.00452169 0)
(1.00025 0.00714126 0)
(1.00004 0.0108599 0)
(0.999967 0.0166845 0)
(1.00031 0.0243902 0)
(1.00346 0.0348696 0)
(1.00598 0.0513849 0)
(0.879042 0.0302965 0)
(0.712043 -0.0327597 0)
(0.996652 -0.0630013 0)
(1.03335 -0.0561228 0)
(1.025 -0.0464047 0)
(1.01597 -0.036102 0)
(1.00966 -0.0263789 0)
(1.00597 -0.0181376 0)
(1.00395 -0.0114888 0)
(1.00295 -0.00612339 0)
(1.00233 -0.00169323 0)
(1.00234 0.00245764 0)
(1.00226 0.00698015 0)
(1.00318 0.0124757 0)
(1.0055 0.0189749 0)
(1.00944 0.027249 0)
(1.01553 0.0369786 0)
(1.02461 0.0474722 0)
(1.03315 0.0580126 0)
(0.996694 0.0631478 0)
(0.711774 0.0330388 0)
(0.53558 -0.0238903 0)
(0.969943 -0.0569176 0)
(1.05644 -0.0547256 0)
(1.05218 -0.0487119 0)
(1.03619 -0.0403621 0)
(1.02446 -0.0321608 0)
(1.01588 -0.0238673 0)
(1.01022 -0.0159232 0)
(1.00677 -0.00857443 0)
(1.00537 -0.00181891 0)
(1.0052 0.00438463 0)
(1.00713 0.0107984 0)
(1.01051 0.0177053 0)
(1.01575 0.0254538 0)
(1.02401 0.0334608 0)
(1.03608 0.0414565 0)
(1.05217 0.0494513 0)
(1.05627 0.0532794 0)
(0.969169 0.057673 0)
(0.534325 0.0239417 0)
(0.392457 -0.0136327 0)
(0.911963 -0.0463576 0)
(1.05757 -0.046796 0)
(1.06973 -0.0442565 0)
(1.05499 -0.0381057 0)
(1.03939 -0.0314494 0)
(1.02764 -0.0246475 0)
(1.01929 -0.0174762 0)
(1.01415 -0.0100311 0)
(1.01166 -0.00252013 0)
(1.01126 0.00506335 0)
(1.01306 0.0126535 0)
(1.01798 0.0200467 0)
(1.02652 0.0267875 0)
(1.0385 0.0331749 0)
(1.05396 0.0396007 0)
(1.06816 0.0456801 0)
(1.05542 0.0483269 0)
(0.909844 0.0470064 0)
(0.389838 0.0137835 0)
(0.307888 -0.00450894 0)
(0.84685 -0.0323536 0)
(1.0494 -0.0398827 0)
(1.07943 -0.0381086 0)
(1.06821 -0.0334135 0)
(1.05175 -0.027754 0)
(1.03835 -0.0223129 0)
(1.02801 -0.0161579 0)
(1.02069 -0.00916736 0)
(1.0166 -0.00147287 0)
(1.01667 0.00625952 0)
(1.02062 0.0134463 0)
(1.02756 0.0197456 0)
(1.03731 0.0254928 0)
(1.05014 0.0304523 0)
(1.06659 0.0357839 0)
(1.07764 0.0401058 0)
(1.04718 0.0418107 0)
(0.842826 0.0329987 0)
(0.303587 0.00474702 0)
(0.264569 0.000105562 0)
(0.789391 -0.0200396 0)
(1.03373 -0.0313945 0)
(1.08385 -0.031938 0)
(1.07751 -0.0286524 0)
(1.06098 -0.0237911 0)
(1.04734 -0.0193244 0)
(1.03652 -0.014308 0)
(1.02887 -0.00829262 0)
(1.02458 -0.00128588 0)
(1.02393 0.00620383 0)
(1.02718 0.0131246 0)
(1.03428 0.0189063 0)
(1.04492 0.0233456 0)
(1.05862 0.027268 0)
(1.07485 0.0316331 0)
(1.08027 0.0343544 0)
(1.02908 0.033429 0)
(0.782366 0.0207779 0)
(0.258518 0.000130195 0)
(0.240643 0.00107358 0)
(0.738723 -0.0122442 0)
(1.01387 -0.0249062 0)
(1.08409 -0.0266394 0)
(1.08308 -0.0242986 0)
(1.0679 -0.0200851 0)
(1.05439 -0.0160127 0)
(1.04349 -0.0113538 0)
(1.03514 -0.00584081 0)
(1.02989 0.000617736 0)
(1.02964 0.00715925 0)
(1.03405 0.012925 0)
(1.0416 0.0174726 0)
(1.05171 0.0214875 0)
(1.06459 0.0248519 0)
(1.07929 0.0283058 0)
(1.07974 0.029843 0)
(1.00726 0.0273443 0)
(0.72847 0.0131926 0)
(0.232773 -0.000825453 0)
(0.22648 0.000969044 0)
(0.696229 -0.00798142 0)
(0.993699 -0.0206111 0)
(1.0827 -0.022924 0)
(1.08721 -0.021047 0)
(1.07363 -0.0174876 0)
(1.06009 -0.0136711 0)
(1.04943 -0.00945491 0)
(1.04146 -0.00459467 0)
(1.03662 0.00107282 0)
(1.03568 0.00728953 0)
(1.03878 0.0126481 0)
(1.04561 0.0170476 0)
(1.05568 0.0203166 0)
(1.06913 0.0232918 0)
(1.08182 0.0259792 0)
(1.07547 0.0269558 0)
(0.98295 0.0235679 0)
(0.681238 0.0091766 0)
(0.216244 -0.000703835 0)
(0.21693 0.000629769 0)
(0.660814 -0.00562477 0)
(0.973046 -0.0175047 0)
(1.07976 -0.0200525 0)
(1.09047 -0.0184324 0)
(1.07848 -0.0152112 0)
(1.06511 -0.0114876 0)
(1.05463 -0.00712776 0)
(1.04668 -0.00206984 0)
(1.04144 0.00344757 0)
(1.04055 0.00853533 0)
(1.0441 0.0130893 0)
(1.05072 0.0167385 0)
(1.05996 0.0200695 0)
(1.07233 0.0227188 0)
(1.08315 0.0248674 0)
(1.07053 0.0252368 0)
(0.958619 0.0211741 0)
(0.640872 0.00714245 0)
(0.20402 -0.000324098 0)
(0.209969 0.000312028 0)
(0.632759 -0.00412796 0)
(0.95471 -0.0148136 0)
(1.07712 -0.0176105 0)
(1.09386 -0.0161998 0)
(1.08326 -0.0132184 0)
(1.06977 -0.00954482 0)
(1.05922 -0.00550168 0)
(1.05126 -0.00100209 0)
(1.04604 0.00386626 0)
(1.04456 0.00928941 0)
(1.047 0.0138529 0)
(1.05297 0.0175376 0)
(1.06238 0.0201614 0)
(1.07535 0.022532 0)
(1.08413 0.0241728 0)
(1.06349 0.0241224 0)
(0.933725 0.019332 0)
(0.605698 0.00601255 0)
(0.193439 5.34455e-05 0)
(0.20418 9.30527e-05 0)
(0.609498 -0.00309967 0)
(0.93675 -0.0124208 0)
(1.07394 -0.0154319 0)
(1.09722 -0.0142399 0)
(1.08815 -0.0114099 0)
(1.07463 -0.00783943 0)
(1.06387 -0.00364818 0)
(1.05578 0.00130535 0)
(1.05055 0.00680438 0)
(1.04889 0.0114237 0)
(1.05123 0.0153395 0)
(1.05698 0.0183859 0)
(1.06571 0.0210688 0)
(1.07758 0.0230318 0)
(1.08425 0.0242093 0)
(1.05637 0.0234167 0)
(0.909415 0.0178607 0)
(0.574956 0.00538901 0)
(0.183605 0.000339919 0)
(0.199861 3.12716e-05 0)
(0.591853 -0.00217914 0)
(0.921816 -0.00998716 0)
(1.07132 -0.0129789 0)
(1.10073 -0.0118129 0)
(1.09297 -0.00900629 0)
(1.0793 -0.00529169 0)
(1.06834 -0.00127989 0)
(1.05993 0.0032027 0)
(1.05377 0.00769543 0)
(1.05133 0.0126091 0)
(1.05305 0.0167024 0)
(1.05842 0.0197758 0)
(1.06745 0.0217559 0)
(1.07987 0.0235202 0)
(1.08389 0.024347 0)
(1.04718 0.0229375 0)
(0.884611 0.0167163 0)
(0.54695 0.00503476 0)
(0.173954 0.000509328 0)
(0.196415 4.59702e-05 0)
(0.577395 -0.00147339 0)
(0.907673 -0.00787299 0)
(1.06876 -0.0107579 0)
(1.10446 -0.00959132 0)
(1.09828 -0.00677879 0)
(1.0846 -0.00318996 0)
(1.07312 0.000862107 0)
(1.06409 0.00560477 0)
(1.05805 0.0111186 0)
(1.05546 0.0158021 0)
(1.05674 0.0192987 0)
(1.06185 0.0216119 0)
(1.07032 0.0234783 0)
(1.08108 0.0246218 0)
(1.083 0.0249817 0)
(1.03754 0.0229953 0)
(0.859787 0.015981 0)
(0.521015 0.00491284 0)
(0.164449 0.000603403 0)
(0.194518 6.5328e-05 0)
(0.567285 -0.000678076 0)
(0.896569 -0.00570774 0)
(1.06668 -0.00827741 0)
(1.10832 -0.00690944 0)
(1.10346 -0.00392112 0)
(1.08961 1.92192e-05 0)
(1.07792 0.00422834 0)
(1.06871 0.00892899 0)
(1.06141 0.0135289 0)
(1.05745 0.01794 0)
(1.05809 0.0213669 0)
(1.06263 0.0237042 0)
(1.07132 0.0249762 0)
(1.08231 0.0259706 0)
(1.08085 0.0257733 0)
(1.02542 0.0231879 0)
(0.834004 0.0155257 0)
(0.496035 0.00486892 0)
(0.154895 0.000636701 0)
(0.19392 0.00010993 0)
(0.560314 -0.000100424 0)
(0.887171 -0.00347855 0)
(1.06553 -0.00553452 0)
(1.11254 -0.00394748 0)
(1.10917 -0.000787757 0)
(1.0954 0.00308218 0)
(1.08307 0.00734771 0)
(1.07272 0.0121261 0)
(1.0649 0.0173961 0)
(1.06107 0.0223048 0)
(1.06117 0.0252998 0)
(1.0656 0.0267858 0)
(1.07365 0.0277952 0)
(1.08182 0.0280148 0)
(1.07781 0.0273782 0)
(1.01258 0.0240457 0)
(0.807681 0.0154911 0)
(0.47168 0.00496594 0)
(0.145322 0.000658217 0)
(0.194658 7.29106e-05 0)
(0.556561 0.000949086 0)
(0.880969 -0.00141085 0)
(1.06512 -0.00287793 0)
(1.11725 -0.000858193 0)
(1.11511 0.0026068 0)
(1.10115 0.00703166 0)
(1.08853 0.0117092 0)
(1.07813 0.0169079 0)
(1.06968 0.0220926 0)
(1.06351 0.0257154 0)
(1.06213 0.0283004 0)
(1.06527 0.0299636 0)
(1.07322 0.0304412 0)
(1.08191 0.030631 0)
(1.07306 0.0293978 0)
(0.99675 0.02511 0)
(0.779728 0.0158211 0)
(0.446985 0.00515999 0)
(0.135434 0.000678031 0)
(0.197072 0.000345959 0)
(0.557198 0.00162872 0)
(0.87721 0.00115609 0)
(1.06647 0.000593164 0)
(1.12265 0.00297118 0)
(1.12165 0.00677284 0)
(1.10761 0.0113401 0)
(1.09429 0.0163533 0)
(1.0824 0.0215752 0)
(1.07198 0.0266931 0)
(1.06593 0.0312716 0)
(1.06464 0.0339389 0)
(1.06785 0.034654 0)
(1.07472 0.0349724 0)
(1.07947 0.0341267 0)
(1.06707 0.0321444 0)
(0.979851 0.0269705 0)
(0.750528 0.0165352 0)
(0.4217 0.00547681 0)
(0.125173 0.000701221 0)
(0.201546 0.000693418 0)
(0.560406 0.00250854 0)
(0.878182 0.00369189 0)
(1.06941 0.00390838 0)
(1.12893 0.00712118 0)
(1.12888 0.0113833 0)
(1.1144 0.0167125 0)
(1.10042 0.0222637 0)
(1.08816 0.0282661 0)
(1.07755 0.0339375 0)
(1.06933 0.0380308 0)
(1.06522 0.0393795 0)
(1.066 0.0398508 0)
(1.07272 0.0392445 0)
(1.07815 0.0384366 0)
(1.05906 0.0357473 0)
(0.958981 0.0290937 0)
(0.718465 0.0176369 0)
(0.394785 0.00589232 0)
(0.11421 0.000722536 0)
(0.20847 0.000906064 0)
(0.56822 0.00368551 0)
(0.8827 0.00626868 0)
(1.07482 0.00834603 0)
(1.13637 0.0120056 0)
(1.13722 0.0169612 0)
(1.1224 0.0227447 0)
(1.10753 0.0289369 0)
(1.09361 0.0351413 0)
(1.08048 0.0408206 0)
(1.07019 0.0444389 0)
(1.0664 0.0462737 0)
(1.06782 0.0465456 0)
(1.07292 0.0459013 0)
(1.07324 0.0438559 0)
(1.049 0.0399564 0)
(0.936274 0.0321821 0)
(0.684134 0.0191289 0)
(0.366166 0.00640132 0)
(0.102546 0.000741731 0)
(0.217235 0.00111214 0)
(0.579935 0.00499881 0)
(0.891817 0.00939998 0)
(1.08303 0.0129118 0)
(1.14519 0.0178705 0)
(1.14653 0.023624 0)
(1.13069 0.0304073 0)
(1.11453 0.037372 0)
(1.09933 0.0444244 0)
(1.08492 0.0505892 0)
(1.07362 0.0546801 0)
(1.06673 0.0555459 0)
(1.06501 0.0545435 0)
(1.06893 0.052467 0)
(1.06992 0.0503577 0)
(1.03647 0.0454155 0)
(0.908278 0.0355236 0)
(0.645206 0.0209161 0)
(0.334662 0.00691322 0)
(0.0899198 0.00074337 0)
(0.230152 0.00143651 0)
(0.598914 0.0069468 0)
(0.907239 0.0138111 0)
(1.09453 0.0192367 0)
(1.15589 0.0248478 0)
(1.15748 0.0316661 0)
(1.14083 0.0392904 0)
(1.12331 0.0471632 0)
(1.10599 0.0548527 0)
(1.08875 0.0613088 0)
(1.07382 0.0648061 0)
(1.06614 0.0649434 0)
(1.06514 0.0642145 0)
(1.06769 0.0621589 0)
(1.0617 0.0584367 0)
(1.02032 0.0517323 0)
(0.876881 0.0400707 0)
(0.602532 0.023085 0)
(0.300553 0.00746443 0)
(0.0765196 0.000747486 0)
(0.246335 0.00201165 0)
(0.623502 0.00872533 0)
(0.929522 0.0184021 0)
(1.11084 0.0260939 0)
(1.16916 0.0337014 0)
(1.17016 0.041855 0)
(1.15141 0.0509594 0)
(1.13162 0.0599005 0)
(1.11192 0.0683818 0)
(1.0923 0.074815 0)
(1.07547 0.0777712 0)
(1.06573 0.077629 0)
(1.06101 0.0752668 0)
(1.06109 0.0714875 0)
(1.05488 0.0672495 0)
(1.00102 0.0591368 0)
(0.838244 0.0445085 0)
(0.553113 0.0251579 0)
(0.262754 0.00781175 0)
(0.0622268 0.000712806 0)
(0.26884 0.00288692 0)
(0.65695 0.0126545 0)
(0.958504 0.0253955 0)
(1.13115 0.0361287 0)
(1.18506 0.0449426 0)
(1.18488 0.0550068 0)
(1.16417 0.0651734 0)
(1.14197 0.0750686 0)
(1.11902 0.0838137 0)
(1.0957 0.0902493 0)
(1.07557 0.093011 0)
(1.06313 0.0914191 0)
(1.0591 0.088432 0)
(1.05806 0.084548 0)
(1.04198 0.0783151 0)
(0.975667 0.067575 0)
(0.794015 0.0502173 0)
(0.49869 0.0274092 0)
(0.222446 0.00801688 0)
(0.0476543 0.000690318 0)
(0.3009 0.00381671 0)
(0.703761 0.0156975 0)
(0.999508 0.0335121 0)
(1.15883 0.0474359 0)
(1.20503 0.0591762 0)
(1.20232 0.0716952 0)
(1.17755 0.0839017 0)
(1.15149 0.0947933 0)
(1.12506 0.10388 0)
(1.09854 0.109434 0)
(1.07522 0.109995 0)
(1.06114 0.107128 0)
(1.05295 0.103094 0)
(1.0481 0.0969663 0)
(1.02985 0.0897639 0)
(0.945954 0.0768314 0)
(0.739561 0.055114 0)
(0.434689 0.0287502 0)
(0.17865 0.00773568 0)
(0.0327669 0.000589631 0)
(0.338002 0.00718504 0)
(0.762078 0.0253084 0)
(1.04784 0.0471847 0)
(1.19157 0.0659003 0)
(1.2286 0.0794116 0)
(1.22112 0.0947056 0)
(1.19187 0.107582 0)
(1.1619 0.118537 0)
(1.13101 0.126582 0)
(1.09967 0.130631 0)
(1.07298 0.130286 0)
(1.05628 0.12606 0)
(1.04871 0.119913 0)
(1.04244 0.113429 0)
(1.00965 0.103682 0)
(0.906223 0.0864077 0)
(0.676753 0.0606552 0)
(0.367047 0.0298754 0)
(0.135181 0.00723491 0)
(0.0195314 0.000565006 0)
(0.419398 0.0110445 0)
(0.851365 0.0359322 0)
(1.11751 0.0687333 0)
(1.23351 0.0916177 0)
(1.25676 0.107878 6.08649e-34)
(1.24257 0.125401 -2.75442e-34)
(1.20659 0.138615 0)
(1.17119 0.148558 0)
(1.13571 0.155032 0)
(1.10088 0.15688 0)
(1.07111 0.153156 0)
(1.05203 0.145684 0)
(1.04023 0.138381 0)
(1.02752 0.129012 0)
(0.988344 0.116659 0)
(0.859994 0.0959069 0)
(0.599978 0.0636947 0)
(0.285801 0.0282754 0)
(0.0873741 0.00648478 0)
(0.00567014 0.000687881 0)
(0.491681 0.0261479 4.39496e-20)
(0.953947 0.0612241 -3.33386e-20)
(1.1861 0.102703 0)
(1.27516 0.130353 2.61418e-20)
(1.2862 0.147011 -2.11976e-20)
(1.26207 0.16626 2.90621e-34)
(1.2193 0.17727 0)
(1.17911 0.184979 1.55813e-20)
(1.13841 0.188752 -5.12123e-20)
(1.09786 0.187144 1.04837e-20)
(1.06384 0.180554 0)
(1.04291 0.172017 -2.67584e-20)
(1.03134 0.162369 -3.23068e-20)
(1.01521 0.152066 5.66457e-20)
(0.948977 0.135856 -4.47395e-20)
(0.782409 0.10562 0)
(0.488258 0.0647393 -1.60554e-20)
(0.191579 0.0252464 0)
(0.0401677 0.00601792 -8.89013e-20)
(-0.00881322 0.000196623 1.04772e-19)
(0.528738 0.0545633 -5.83659e-21)
(1.02305 0.103839 9.71383e-20)
(1.24134 0.155215 -4.70646e-21)
(1.31069 0.179558 -6.2663e-20)
(1.31211 0.197017 -4.4614e-20)
(1.27936 0.214172 7.25664e-20)
(1.23027 0.222729 0)
(1.18419 0.228027 0)
(1.13812 0.229203 8.11528e-20)
(1.09371 0.225069 0)
(1.05708 0.216117 9.59875e-20)
(1.03252 0.204381 2.87124e-20)
(1.01427 0.192763 6.70549e-22)
(0.983381 0.178324 -6.11461e-20)
(0.902483 0.154795 0)
(0.704047 0.117452 0)
(0.394247 0.0648309 -2.60539e-19)
(0.128646 0.0218334 6.55206e-19)
(0.0070899 0.00374021 -3.8726e-19)
(-0.0195651 -0.00153406 -4.5608e-19)
(0.535919 0.0794043 -5.0162e-20)
(1.05465 0.16053 1.98417e-20)
(1.27474 0.214254 1.14027e-20)
(1.33785 0.238028 1.08573e-19)
(1.33264 0.255073 1.47429e-20)
(1.29217 0.268015 -1.88241e-19)
(1.23737 0.272313 6.44839e-20)
(1.18639 0.273843 0)
(1.13511 0.271316 -1.70894e-19)
(1.08496 0.263305 1.52525e-19)
(1.04314 0.250486 -2.58851e-19)
(1.01539 0.235613 1.21373e-19)
(0.996738 0.222003 -7.87633e-20)
(0.964835 0.205645 1.77792e-19)
(0.862816 0.177935 0)
(0.646236 0.127838 -6.45261e-20)
(0.33751 0.0649773 0)
(0.0994078 0.0197938 3.55703e-19)
(-0.00940337 0.000934431 -8.42197e-19)
(-0.025674 -0.00357514 5.27089e-19)
(0.534557 0.108837 1.23583e-19)
(1.08345 0.221132 -5.58215e-20)
(1.30126 0.282769 -1.24858e-20)
(1.35629 0.304504 0)
(1.34552 0.318108 -8.05145e-20)
(1.30026 0.325462 9.9534e-20)
(1.24118 0.324933 -6.86035e-20)
(1.18519 0.322283 0)
(1.1292 0.315826 1.21264e-19)
(1.07549 0.303701 -1.07041e-19)
(1.03082 0.286781 2.2302e-19)
(1.00127 0.269743 0)
(0.977356 0.253817 -1.66955e-19)
(0.933201 0.232546 9.42417e-20)
(0.828005 0.195681 2.36328e-19)
(0.605108 0.138254 -2.07822e-19)
(0.307659 0.0687184 3.27136e-19)
(0.0894239 0.0204076 -7.23721e-19)
(-0.018403 -0.00183267 4.57993e-19)
(-0.0306264 -0.00591835 -5.72601e-19)
(0.517148 0.133476 -3.22664e-20)
(1.08176 0.271585 2.2567e-20)
(1.30912 0.34554 -4.17005e-20)
(1.3659 0.369166 8.79885e-20)
(1.35239 0.381786 -8.5807e-20)
(1.30332 0.384159 3.07326e-20)
(1.24036 0.378796 3.91122e-21)
(1.18061 0.371714 -1.35077e-19)
(1.12066 0.360377 -1.26299e-19)
(1.06219 0.343393 -2.28695e-19)
(1.01314 0.322529 -4.79074e-19)
(0.980352 0.301834 -1.47824e-19)
(0.956058 0.282193 2.2936e-21)
(0.915541 0.258612 -3.2083e-19)
(0.800192 0.219544 -4.61058e-21)
(0.57806 0.149717 3.01294e-19)
(0.299369 0.0744961 -8.96993e-20)
(0.0878284 0.0219189 -5.22037e-20)
(-0.020341 -0.00479175 0)
(-0.0332707 -0.00805623 1.21171e-18)
(0.50359 0.156085 0)
(1.08402 0.325883 1.89135e-21)
(1.31467 0.412363 -4.62479e-21)
(1.36867 0.435045 -1.30787e-20)
(1.35225 0.445283 8.10462e-20)
(1.30099 0.442898 -7.2738e-20)
(1.23563 0.433012 7.43501e-20)
(1.17275 0.421232 2.22041e-19)
(1.10947 0.405656 -7.01954e-20)
(1.04822 0.38433 1.12884e-19)
(0.996773 0.358967 2.57272e-19)
(0.962398 0.334967 3.22206e-19)
(0.934844 0.313506 -1.93862e-19)
(0.88442 0.284961 3.47011e-19)
(0.774162 0.236571 -2.74856e-19)
(0.559284 0.165141 0)
(0.295556 0.0822933 -6.81127e-19)
(0.0935634 0.0249327 9.19219e-19)
(-0.0153636 -0.00570825 6.85216e-20)
(-0.0324167 -0.00966222 -1.27995e-18)
(0.483563 0.17439 -5.26199e-21)
(1.06818 0.369894 -3.41781e-20)
(1.30874 0.470424 3.27185e-20)
(1.36594 0.496096 -5.76762e-20)
(1.34823 0.506173 6.91509e-20)
(1.29521 0.499758 -6.92889e-20)
(1.2276 0.485755 1.45813e-19)
(1.16238 0.470052 -6.55963e-20)
(1.09632 0.449839 -2.82713e-19)
(1.03137 0.42369 -1.59253e-23)
(0.976484 0.394162 -2.79357e-19)
(0.939021 0.367102 -3.46527e-19)
(0.909636 0.340411 2.14368e-19)
(0.865563 0.310523 -1.2457e-19)
(0.750448 0.262083 2.99107e-19)
(0.543187 0.180375 0)
(0.294892 0.0941275 -4.24356e-19)
(0.101856 0.0301801 6.26759e-19)
(-0.00740594 -0.00432683 1.1846e-18)
(-0.0293707 -0.0103363 -1.39373e-18)
(0.471588 0.193747 -1.23152e-19)
(1.06084 0.418457 5.65574e-20)
(1.30341 0.531038 -1.33924e-20)
(1.35937 0.556786 5.85507e-20)
(1.33977 0.565132 1.23221e-20)
(1.28557 0.555009 -1.34206e-19)
(1.21654 0.537452 -8.5247e-20)
(1.14937 0.517507 -8.51616e-20)
(1.08096 0.493479 -1.60106e-19)
(1.01372 0.463226 2.58007e-19)
(0.957106 0.429326 2.81758e-19)
(0.918305 0.398662 5.4973e-19)
(0.886449 0.37157 0)
(0.833432 0.337642 6.21649e-21)
(0.726232 0.279568 -8.22519e-19)
(0.529414 0.197672 1.93688e-19)
(0.294918 0.105928 9.22156e-19)
(0.110318 0.0370453 -2.72116e-19)
(0.00169477 -0.00156397 5.63856e-19)
(-0.0253753 -0.010227 -4.69805e-20)
(0.45675 0.209052 5.93635e-21)
(1.04236 0.457168 7.34169e-20)
(1.29141 0.583443 3.33047e-21)
(1.3498 0.612314 4.73954e-20)
(1.32935 0.620837 -1.20151e-19)
(1.27415 0.6075 1.31807e-19)
(1.20375 0.586558 8.80532e-20)
(1.13503 0.563415 2.53154e-19)
(1.06454 0.535522 3.20259e-19)
(0.994611 0.500959 -2.99481e-19)
(0.934883 0.463629 0)
(0.892692 0.429995 -2.08706e-19)
(0.859529 0.397273 2.39619e-19)
(0.814158 0.361885 3.02625e-19)
(0.704344 0.30605 -1.75324e-19)
(0.516392 0.213718 -4.24236e-19)
(0.295516 0.119035 -1.2613e-19)
(0.118325 0.0449144 -2.07755e-21)
(0.0106547 0.00221534 0)
(-0.0210308 -0.00950786 0)
(0.44871 0.226372 -9.84585e-20)
(1.03226 0.500084 0)
(1.28109 0.637696 1.944e-20)
(1.3382 0.667248 -2.10329e-20)
(1.31636 0.674196 1.40021e-19)
(1.26041 0.657812 -3.48423e-20)
(1.18906 0.63412 8.94107e-20)
(1.11909 0.607469 -1.70686e-19)
(1.04696 0.576286 2.42843e-19)
(0.974964 0.538285 -1.00006e-19)
(0.913016 0.496652 1.6192e-19)
(0.870292 0.458779 6.63502e-19)
(0.836613 0.426012 1.41357e-20)
(0.782427 0.387479 -3.16542e-19)
(0.681703 0.32161 5.84789e-19)
(0.502503 0.231523 2.8698e-21)
(0.293254 0.131132 1.34942e-19)
(0.124123 0.0530754 -6.43072e-19)
(0.0182996 0.0063615 6.62487e-19)
(-0.0169431 -0.00844483 -7.80454e-19)
(0.440182 0.241372 3.33381e-23)
(1.0159 0.534764 0)
(1.26662 0.684164 0)
(1.32497 0.717071 6.71955e-21)
(1.30257 0.72427 -3.90169e-20)
(1.24601 0.70534 6.00283e-20)
(1.17384 0.67884 -1.63855e-19)
(1.10283 0.649566 0)
(1.02873 0.615408 -3.58684e-19)
(0.953935 0.573895 4.34985e-19)
(0.889621 0.529264 4.64642e-19)
(0.844313 0.48852 -2.43687e-19)
(0.808785 0.449443 -2.95739e-19)
(0.763567 0.408333 6.93856e-19)
(0.660045 0.34655 -2.08304e-19)
(0.488057 0.245927 -2.47482e-19)
(0.290319 0.143405 -1.47759e-19)
(0.127889 0.0609201 -6.95773e-19)
(0.0243061 0.0104234 1.01966e-19)
(-0.0133941 -0.00727133 8.46113e-19)
(0.434248 0.257268 -4.65003e-20)
(1.00563 0.57283 -6.34449e-20)
(1.25419 0.732224 2.40478e-20)
(1.31083 0.766257 -1.99504e-22)
(1.28747 0.771934 -4.79475e-20)
(1.23044 0.750443 9.17064e-20)
(1.1576 0.721788 0)
(1.08549 0.689816 1.04164e-19)
(1.00997 0.653025 -8.21336e-20)
(0.933937 0.608698 7.27779e-19)
(0.868097 0.56011 -1.04156e-19)
(0.821347 0.514593 1.20887e-19)
(0.78608 0.475877 0)
(0.73228 0.431626 -3.75924e-19)
(0.637258 0.358458 4.55223e-19)
(0.472778 0.261886 0)
(0.284493 0.153246 -3.17992e-19)
(0.129108 0.0678078 9.36302e-19)
(0.0284533 0.0139456 1.11311e-19)
(-0.0105143 -0.00616282 -1.04419e-18)
(0.42898 0.274429 -1.14121e-19)
(0.991473 0.604044 1.43458e-19)
(1.239 0.772925 0)
(1.29602 0.810343 3.47646e-20)
(1.27232 0.816407 0)
(1.2148 0.793027 -1.24029e-19)
(1.1414 0.762123 0)
(1.06858 0.727978 0)
(0.991691 0.688979 -1.10442e-19)
(0.913374 0.642134 -6.92197e-19)
(0.844235 0.590875 -8.60214e-19)
(0.794864 0.542677 1.42074e-19)
(0.757401 0.497126 5.13856e-19)
(0.713164 0.448459 4.14641e-19)
(0.614811 0.380514 -1.46205e-18)
(0.456459 0.272134 -5.82167e-19)
(0.277409 0.162491 3.41691e-19)
(0.128586 0.0734527 0)
(0.0310603 0.0169397 9.57678e-19)
(-0.00828119 -0.00519868 -1.127e-18)
(0.426321 0.290106 1.33585e-19)
(0.982766 0.638476 -1.64439e-19)
(1.22594 0.815428 0)
(1.28102 0.853877 -1.15754e-20)
(1.25657 0.858585 -8.40081e-21)
(1.19875 0.833117 0)
(1.12496 0.800525 5.10778e-20)
(1.05146 0.764403 7.34893e-20)
(0.973513 0.723451 -2.06729e-19)
(0.893725 0.674455 9.1413e-20)
(0.822405 0.61944 0)
(0.771551 0.566599 5.89969e-19)
(0.734412 0.521051 6.76523e-21)
(0.681068 0.468847 2.23968e-19)
(0.591713 0.386723 2.65018e-19)
(0.440804 0.283509 0)
(0.269683 0.168458 -5.55569e-19)
(0.127006 0.0778801 1.09142e-18)
(0.0326173 0.0191529 -1.15984e-18)
(-0.00656957 -0.00439881 2.42956e-18)
(0.423949 0.304935 0)
(0.970622 0.666421 0)
(1.21103 0.851018 -8.17579e-20)
(1.26598 0.892467 0)
(1.24127 0.897731 0)
(1.1831 0.870969 -9.69058e-20)
(1.10904 0.836672 5.22336e-20)
(1.03514 0.798778 1.80045e-20)
(0.955942 0.756235 -4.68987e-20)
(0.873428 0.705438 0)
(0.798536 0.648554 -1.32029e-19)
(0.744808 0.593289 -4.81283e-19)
(0.704194 0.539591 -5.8033e-19)
(0.661001 0.480474 -2.3352e-19)
(0.568892 0.404201 2.87144e-19)
(0.423954 0.288166 -6.75839e-19)
(0.260672 0.1738 1.19178e-18)
(0.124147 0.0806718 1.41849e-21)
(0.0334836 0.0217422 -1.10924e-18)
(-0.0050047 -0.00306283 -1.63955e-19)
(0.422529 0.318703 0)
(0.962815 0.697347 -1.31784e-19)
(1.19837 0.888533 9.84578e-20)
(1.2512 0.930779 0)
(1.22583 0.934824 0)
(1.16752 0.906355 1.91461e-19)
(1.09337 0.870753 0)
(1.01892 0.831498 0)
(0.938507 0.787583 -4.55511e-19)
(0.854456 0.735312 1.28156e-19)
(0.777418 0.675398 -1.17234e-18)
(0.721153 0.615632 0)
(0.680392 0.56132 -6.33855e-19)
(0.627083 0.497348 9.43731e-21)
(0.544763 0.40242 -9.26937e-19)
(0.408822 0.292181 3.63164e-19)
(0.254617 0.172319 1.17923e-21)
(0.123862 0.0797885 -1.25521e-18)
(0.0344681 0.0193442 5.95796e-19)
(-0.00675046 -0.00579703 1.75413e-19)
(0.420837 0.33219 0)
(0.952108 0.722465 -1.75951e-19)
(1.1844 0.919507 1.03229e-19)
(1.23676 0.964386 1.49718e-19)
(1.21117 0.969088 -2.71012e-21)
(1.15262 0.939777 1.88158e-20)
(1.07831 0.902957 -2.84516e-20)
(1.00347 0.862288 4.2675e-19)
(0.921886 0.817232 4.87267e-19)
(0.835357 0.763904 9.75407e-19)
(0.7544 0.70294 9.74055e-19)
(0.694041 0.641538 1.71907e-19)
(0.648069 0.577939 9.11163e-19)
(0.604629 0.503707 5.63163e-19)
(0.519949 0.413349 6.64863e-19)
(0.393656 0.286642 -3.97103e-19)
(0.250783 0.166779 -4.52664e-19)
(0.131841 0.0812588 5.41475e-19)
(0.0466758 0.0322929 -3.20386e-19)
(0.00295649 0.00564698 5.69112e-19)
(0.419647 0.345153 2.4421e-19)
(0.945203 0.750513 2.75979e-19)
(1.17263 0.952661 5.85429e-20)
(1.22278 0.998048 1.51991e-20)
(1.19659 1.00159 -2.60537e-20)
(1.13797 0.97084 -5.25174e-20)
(1.06367 0.933007 2.70038e-20)
(0.988401 0.891476 -1.83587e-20)
(0.90573 0.845578 -5.69386e-19)
(0.81777 0.791461 -1.05928e-18)
(0.734362 0.728487 6.76756e-20)
(0.670319 0.663008 0)
(0.623115 0.598568 0)
(0.566484 0.518727 -2.94458e-19)
(0.49088 0.401583 -1.09283e-18)
(0.376651 0.277322 8.55533e-19)
(0.253939 0.150167 4.99138e-19)
(0.149224 0.0560134 0)
(0.0655931 -0.0019225 1.02567e-18)
(-0.00435728 -0.022853 -6.06252e-19)
(0.418159 0.357822 -1.29662e-19)
(0.935853 0.773099 1.13932e-19)
(1.15977 0.979602 -1.39285e-19)
(1.20927 1.02723 -1.1956e-19)
(1.18291 1.03146 -2.49349e-20)
(1.12411 1.00019 -1.66724e-20)
(1.04971 0.961544 0)
(0.974149 0.918947 -5.37611e-19)
(0.890566 0.872303 6.8072e-20)
(0.800292 0.817704 0)
(0.712865 0.754694 0)
(0.643493 0.688749 1.10689e-19)
(0.588025 0.614887 1.48497e-19)
(0.539189 0.521633 -3.19111e-19)
(0.459316 0.408371 7.83894e-19)
(0.35297 0.255587 -9.33109e-19)
(0.244353 0.124193 -1.07388e-18)
(0.179438 0.0500404 9.51851e-19)
(0.14332 0.0590922 -3.64388e-19)
(0.107171 0.0717166 2.11984e-19)
(0.417125 0.369662 1.59514e-19)
(0.929815 0.7984 0)
(1.14895 1.00899 0)
(1.19629 1.0568 -3.3886e-20)
(1.16938 1.05986 2.743e-20)
(1.11057 1.02733 -1.93009e-20)
(1.03633 0.9879 1.26631e-19)
(0.960547 0.94487 5.50459e-19)
(0.876065 0.897843 1.03532e-18)
(0.78447 0.842974 -8.05418e-20)
(0.694592 0.779173 1.67227e-19)
(0.620656 0.710139 -9.9445e-19)
(0.562542 0.636339 -9.94459e-19)
(0.494391 0.538804 -1.72043e-19)
(0.414624 0.388797 0)
(0.322019 0.239913 -3.38934e-21)
(0.232025 0.0476759 5.94004e-19)
(0.233891 -0.0574701 -9.9542e-19)
(0.202983 -0.121238 7.55991e-19)
(0.0887688 -0.103242 6.25465e-19)
(0.415625 0.381286 -3.51127e-19)
(0.921392 0.818402 -1.57326e-19)
(1.13701 1.03243 6.83293e-21)
(1.18369 1.08224 6.44663e-20)
(1.15666 1.08609 0)
(1.0977 1.05338 -3.61087e-20)
(1.02343 1.01356 -1.85056e-19)
(0.947402 0.969871 -2.13074e-21)
(0.862132 0.92251 -5.4255e-19)
(0.768249 0.867676 -7.92339e-20)
(0.674234 0.804932 7.35976e-20)
(0.594267 0.737496 8.73976e-19)
(0.523742 0.655403 9.6962e-19)
(0.459784 0.541405 1.68507e-19)
(0.37306 0.402571 8.56502e-19)
(0.263696 0.202694 0)
(0.138551 0.0209357 0)
(-0.0195177 0.160054 6.77038e-19)
(-0.0785414 0.628577 -2.59789e-20)
(0.0107964 1.54903 -8.44166e-19)
(0.414695 0.392114 1.93287e-19)
(0.916021 0.841344 4.459e-19)
(1.12697 1.05895 -6.19781e-19)
(1.17151 1.10884 3.18627e-19)
(1.14388 1.11168 -1.29195e-20)
(1.08491 1.07804 1.46027e-20)
(1.0108 1.03783 0)
(0.934609 0.994315 -4.58509e-19)
(0.848434 0.947293 0)
(0.75325 0.893016 1.11297e-18)
(0.656752 0.830911 -9.07279e-20)
(0.571417 0.76197 1.01737e-19)
(0.49755 0.683103 1.12278e-18)
(0.404018 0.572405 -3.66068e-19)
(0.285681 0.382084 -4.34067e-19)
(0.175027 0.248759 0)
(0.069338 0.438497 0)
(0.023385 1.37546 0)
(0.0708339 2.47868 -3.83841e-19)
(0.0958964 2.91817 -2.37623e-19)
(0.412972 0.402502 0)
(0.908246 0.858926 0)
(1.11578 1.07945 2.25231e-19)
(1.15975 1.13137 -2.59699e-19)
(1.132 1.1353 1.23527e-19)
(1.07288 1.10193 -4.54162e-21)
(0.998705 1.06188 2.46356e-20)
(0.922222 1.01824 -1.91803e-20)
(0.83535 0.971514 7.75792e-20)
(0.737959 0.918127 -1.27748e-18)
(0.637014 0.858273 1.64189e-19)
(0.545369 0.793977 8.8453e-19)
(0.454356 0.710107 -1.11797e-18)
(0.36398 0.576905 -1.23753e-18)
(0.260113 0.436966 4.14914e-19)
(0.174819 0.594996 0)
(0.109275 1.60418 5.5813e-19)
(0.115287 2.70516 5.96859e-19)
(0.122626 3.09185 -6.66415e-19)
(0.115636 3.22404 7.06385e-19)
(0.411852 0.412629 0)
(0.903446 0.879586 3.87327e-19)
(1.10655 1.1034 -5.63772e-20)
(1.14849 1.15536 3.55728e-19)
(1.12013 1.15843 -1.29662e-19)
(1.06098 1.12439 0)
(0.986988 1.08424 0)
(0.910418 1.04128 0)
(0.822773 0.995591 4.3308e-19)
(0.724373 0.943695 5.86242e-20)
(0.621351 0.885923 0)
(0.524349 0.821499 -8.78821e-19)
(0.434645 0.744023 0)
(0.305666 0.620055 8.84979e-19)
(0.195713 0.665145 -6.02294e-19)
(0.139516 1.47046 -4.80652e-19)
(0.145247 2.69135 -1.09466e-18)
(0.169177 3.12582 -5.73821e-19)
(0.159866 3.26434 -7.66393e-19)
(0.147399 3.30448 5.47136e-19)
(0.410094 0.421728 -1.3439e-19)
(0.896178 0.894749 1.44751e-20)
(1.09612 1.12112 -6.23244e-20)
(1.13766 1.17519 -2.76243e-19)
(1.1092 1.17964 0)
(1.04992 1.14625 0)
(0.975843 1.10669 0)
(0.898979 1.064 3.26919e-20)
(0.810845 1.01912 -5.47935e-19)
(0.710583 0.968896 0)
(0.6035 0.914244 0)
(0.502248 0.856953 0)
(0.388339 0.771929 0)
(0.308648 0.713215 6.53724e-19)
(0.261256 1.12659 1.59744e-18)
(0.233238 2.40958 4.65945e-19)
(0.252177 3.08067 9.28093e-19)
(0.24662 3.27641 -7.10515e-19)
(0.198962 3.34161 2.58285e-19)
(0.167736 3.35506 0)
(0.40885 0.430702 1.37888e-19)
(0.891778 0.913881 -8.54982e-19)
(1.08751 1.14349 -2.31089e-19)
(1.1271 1.19752 -5.14778e-20)
(1.098 1.20115 2.99865e-20)
(1.03871 1.16724 -1.2474e-19)
(0.96486 1.12775 1.57402e-22)
(0.888068 1.08611 -3.55453e-19)
(0.799384 1.0428 0)
(0.698551 0.994871 -7.58077e-20)
(0.590415 0.943758 6.89648e-20)
(0.484519 0.885938 0)
(0.385549 0.816109 0)
(0.319778 0.909406 -8.19623e-19)
(0.262086 1.85106 1.04821e-19)
(0.259006 2.94558 -3.51375e-19)
(0.285149 3.2788 7.34918e-19)
(0.256024 3.37695 5.22262e-19)
(0.192336 3.40172 -7.04175e-19)
(0.168151 3.41222 3.46234e-19)
(0.406654 0.439937 2.69502e-19)
(0.883899 0.928272 8.30335e-19)
(1.07659 1.1604 2.78307e-19)
(1.11607 1.21678 0)
(1.08699 1.22211 0)
(1.02766 1.18905 9.65232e-20)
(0.953827 1.15036 4.82859e-20)
(0.876883 1.1091 3.16252e-19)
(0.788073 1.0668 2.11329e-20)
(0.685983 1.02099 9.64606e-19)
(0.575054 0.973207 -1.15599e-18)
(0.461655 0.918768 0)
(0.38032 0.891357 0)
(0.332274 1.29322 -5.60696e-19)
(0.324898 2.49985 -6.71279e-19)
(0.371191 3.19183 0)
(0.396678 3.3583 -7.42986e-19)
(0.325563 3.42144 5.17249e-20)
(0.257955 3.46757 3.37972e-19)
(0.236083 3.49316 -1.09043e-19)
(0.404788 0.449488 -5.11784e-19)
(0.87892 0.949457 -3.97958e-19)
(1.06693 1.1852 0)
(1.10429 1.24104 0)
(1.0746 1.2451 0)
(1.01543 1.21118 0)
(0.942083 1.1723 -5.91306e-20)
(0.865609 1.13213 2.75296e-19)
(0.776664 1.09156 0)
(0.674797 1.0484 -8.77723e-19)
(0.564381 1.00486 2.07657e-18)
(0.453404 0.959308 8.53954e-20)
(0.397365 1.01746 1.15707e-19)
(0.383256 1.7358 9.13664e-19)
(0.393201 2.90145 -4.91428e-19)
(0.434546 3.30975 0)
(0.417321 3.43047 2.09496e-19)
(0.331382 3.52008 9.08601e-20)
(0.258608 3.58487 1.48285e-19)
(0.183028 3.56429 -1.69915e-20)
(0.401695 0.459589 2.43013e-19)
(0.869039 0.964705 -4.03597e-19)
(1.05393 1.203 0)
(1.09154 1.26148 -7.52132e-20)
(1.06208 1.26755 2.60149e-19)
(1.00307 1.23453 0)
(0.929999 1.19646 0)
(0.853654 1.15649 -4.77501e-19)
(0.76512 1.11675 -5.58531e-20)
(0.662917 1.07574 8.62981e-19)
(0.549019 1.03466 -9.86725e-19)
(0.452398 1.00787 5.83709e-19)
(0.411453 1.20433 0)
(0.418855 2.18489 -4.84977e-19)
(0.460371 3.14014 3.17551e-19)