/*--------------------------------*- C++ -*----------------------------------*\
| =========                 |                                                 |
| \\      /  F ield         | OpenFOAM: The Open Source CFD Toolbox           |
|  \\    /   O peration     | Version:  4.0                                   |
|   \\  /    A nd           | Web:      www.OpenFOAM.org                      |
|    \\/     M anipulation  |                                                 |
\*---------------------------------------------------------------------------*/
FoamFile
{
    version     2.0;
    format      ascii;
    class       volScalarField;
    location    "61";
    object      p;
}
// * * * * * * * * * * * * * * * * * * * * * * * * * * * * * * * * * * * * * //

dimensions      [0 2 -2 0 0 0 0];

internalField   nonuniform List<scalar> 
8800
(
0.864928
0.817141
0.778453
0.74946
0.728599
0.713773
0.703184
0.695715
0.690911
0.688876
0.690169
0.694379
0.701039
0.710366
0.723153
0.740892
0.765673
0.799616
0.842168
0.90087
0.696174
0.703853
0.711331
0.71464
0.713139
0.708065
0.701584
0.695516
0.690806
0.687983
0.687728
0.690258
0.694765
0.700724
0.707502
0.713788
0.717433
0.716699
0.711282
0.702594
0.674574
0.680734
0.684863
0.687809
0.689861
0.690471
0.689372
0.687278
0.68528
0.684397
0.685386
0.68779
0.690606
0.692798
0.693414
0.692221
0.689883
0.686493
0.681936
0.678175
0.66876
0.67141
0.674163
0.676568
0.678206
0.679373
0.680123
0.680253
0.679976
0.679954
0.680736
0.68193
0.682787
0.682865
0.682265
0.68118
0.679369
0.676801
0.6744
0.672896
0.663373
0.664797
0.666578
0.668611
0.670399
0.671745
0.672743
0.673555
0.674191
0.674785
0.67547
0.675993
0.676112
0.675839
0.675152
0.673911
0.672221
0.670377
0.669072
0.66824
0.658288
0.659208
0.660451
0.662019
0.663655
0.665185
0.66648
0.667563
0.668551
0.669479
0.670207
0.670566
0.670546
0.670123
0.669255
0.668063
0.666743
0.665487
0.664667
0.664115
0.653371
0.654041
0.655004
0.656308
0.657721
0.659185
0.660634
0.661974
0.6632
0.664346
0.665211
0.665615
0.665557
0.665068
0.664276
0.663338
0.662334
0.661415
0.660832
0.660426
0.648575
0.649092
0.649876
0.651008
0.652289
0.653669
0.655126
0.656617
0.658075
0.659456
0.660512
0.661024
0.66103
0.660668
0.660081
0.659368
0.658604
0.657926
0.657495
0.657177
0.643829
0.644239
0.644896
0.645904
0.647113
0.648447
0.649904
0.65148
0.653134
0.654781
0.656084
0.65679
0.65699
0.656847
0.656483
0.655981
0.655422
0.654937
0.654617
0.654358
0.639045
0.639379
0.639947
0.640876
0.642036
0.643356
0.644849
0.646524
0.648367
0.650304
0.651926
0.652928
0.653405
0.653515
0.653381
0.653103
0.652738
0.652413
0.652177
0.65196
0.634136
0.634413
0.634919
0.635802
0.636945
0.638289
0.639856
0.641671
0.643744
0.646017
0.648042
0.649424
0.650234
0.650633
0.650751
0.650699
0.650527
0.650342
0.650174
0.649986
0.629012
0.629245
0.629712
0.630579
0.631744
0.633156
0.634839
0.636849
0.639216
0.641907
0.644425
0.646264
0.647463
0.648195
0.648594
0.648774
0.648796
0.648741
0.648628
0.648461
0.623583
0.623781
0.624229
0.625109
0.626337
0.627861
0.629716
0.631986
0.634729
0.637943
0.641059
0.643442
0.645096
0.646206
0.646922
0.647348
0.647582
0.647648
0.647582
0.647429
0.617746
0.617916
0.618361
0.619284
0.620617
0.622304
0.624397
0.627009
0.630227
0.63409
0.637931
0.640962
0.643153
0.644698
0.645773
0.646499
0.646939
0.647122
0.647096
0.646951
0.611385
0.61153
0.611988
0.612984
0.614467
0.616377
0.618785
0.621833
0.625651
0.63031
0.635028
0.638835
0.641661
0.643719
0.645201
0.64625
0.64693
0.647235
0.647247
0.647106
0.60436
0.604481
0.604966
0.606065
0.607751
0.609954
0.612765
0.616367
0.620931
0.626564
0.632342
0.637075
0.640652
0.643315
0.645281
0.646704
0.647648
0.648079
0.648124
0.647984
0.59649
0.596589
0.597118
0.598358
0.600304
0.602878
0.606205
0.610504
0.615992
0.622814
0.62987
0.635709
0.640173
0.643547
0.646089
0.647948
0.649189
0.649752
0.649829
0.649685
0.58755
0.587652
0.588234
0.589631
0.591908
0.594967
0.598949
0.604122
0.610755
0.619031
0.627622
0.634772
0.640283
0.64449
0.647717
0.650086
0.651661
0.652364
0.65247
0.652319
0.577229
0.577311
0.577984
0.579607
0.582318
0.585995
0.590806
0.597078
0.605135
0.615184
0.625611
0.634305
0.641047
0.646237
0.650248
0.653218
0.65517
0.656021
0.656153
0.655991
0.565155
0.565223
0.565995
0.567929
0.571199
0.575672
0.581543
0.589209
0.599038
0.611245
0.62386
0.634365
0.642536
0.64887
0.65379
0.657459
0.659822
0.660821
0.660973
0.660797
0.550777
0.550833
0.551748
0.554098
0.558104
0.563624
0.570877
0.58033
0.592377
0.60721
0.622408
0.635014
0.644818
0.652469
0.658442
0.662892
0.665695
0.666837
0.667
0.666806
0.533331
0.533375
0.534503
0.537436
0.542453
0.54939
0.558486
0.570263
0.585102
0.603112
0.621329
0.636331
0.647984
0.657111
0.664257
0.669577
0.672828
0.674091
0.674253
0.674039
0.511659
0.511702
0.513177
0.516991
0.523463
0.532394
0.544015
0.558863
0.577223
0.599049
0.620734
0.638408
0.652102
0.662864
0.671271
0.677526
0.681193
0.682538
0.68268
0.682444
0.484027
0.484089
0.486152
0.491386
0.500117
0.511979
0.527159
0.546085
0.568839
0.59517
0.620765
0.641349
0.657236
0.669741
0.679507
0.68667
0.69067
0.69203
0.692131
0.691874
0.447405
0.447567
0.450837
0.458689
0.471229
0.487563
0.507814
0.532097
0.560232
0.591757
0.621632
0.645285
0.663442
0.677743
0.68889
0.696847
0.701025
0.702304
0.702342
0.702068
0.39599
0.396968
0.403468
0.416695
0.435856
0.45911
0.486353
0.517403
0.551879
0.58917
0.623561
0.650338
0.670767
0.686797
0.699248
0.707773
0.7119
0.712996
0.712958
0.712675
0.320872
0.328138
0.343171
0.36646
0.395493
0.428014
0.463806
0.502654
0.544171
0.58772
0.62695
0.65708
0.679955
0.697885
0.711592
0.720498
0.724433
0.725331
0.725247
0.725
0.240128
0.257324
0.281685
0.315689
0.354973
0.396895
0.441303
0.488135
0.537086
0.587582
0.632567
0.666872
0.692759
0.712965
0.728149
0.737179
0.740593
0.741216
0.741154
0.740997
0.172833
0.193087
0.225157
0.268264
0.316604
0.36738
0.420146
0.474822
0.531078
0.588327
0.638797
0.677005
0.705698
0.727845
0.743878
0.752676
0.75572
0.756274
0.756269
0.75616
0.117722
0.13963
0.177211
0.226751
0.282254
0.340501
0.400669
0.462541
0.525654
0.589339
0.645039
0.68692
0.718163
0.741995
0.758893
0.767788
0.770717
0.771322
0.771359
0.771274
0.0718524
0.0949377
0.136304
0.190954
0.252212
0.316626
0.383147
0.451424
0.520835
0.590561
0.651227
0.6966
0.730281
0.755782
0.773638
0.782895
0.786058
0.786554
0.786612
0.786551
0.0329572
0.0567048
0.100935
0.159628
0.225726
0.295393
0.367445
0.441428
0.51658
0.591933
0.657306
0.706034
0.742092
0.769246
0.78811
0.797989
0.801309
0.80184
0.801903
0.801873
-0.000990223
0.0231891
0.0696825
0.131712
0.201902
0.276138
0.353092
0.432217
0.512654
0.593288
0.663145
0.715099
0.753444
0.782233
0.802063
0.812566
0.816179
0.816779
0.816859
0.81685
-0.0314875
-0.00692944
0.0414072
0.106288
0.180005
0.258245
0.339596
0.423424
0.508778
0.594408
0.668555
0.723605
0.764134
0.794435
0.815249
0.826305
0.830235
0.830967
0.831045
0.831044
-0.0595021
-0.0346039
0.0153087
0.0826473
0.159467
0.241259
0.326571
0.41471
0.504662
0.595054
0.67335
0.731391
0.774
0.80571
0.827417
0.838987
0.843185
0.844054
0.844127
0.844125
-0.0858371
-0.060552
-0.00919242
0.0602688
0.139859
0.224819
0.313709
0.405815
0.500088
0.595057
0.677416
0.738378
0.782985
0.816019
0.838465
0.850422
0.854821
0.855757
0.855814
0.855793
-0.11087
-0.0851895
-0.0325887
0.0388116
0.120865
0.208667
0.300801
0.396566
0.494905
0.594298
0.680674
0.744554
0.791108
0.825348
0.848364
0.86062
0.865118
0.866091
0.866126
0.866082
-0.135026
-0.108844
-0.0552133
0.018029
0.102272
0.192625
0.287707
0.386838
0.488997
0.592671
0.68307
0.749928
0.798434
0.833813
0.857341
0.869689
0.874226
0.875169
0.875173
0.875108
-0.158441
-0.131827
-0.0771095
-0.00224976
0.0839512
0.17659
0.274337
0.376559
0.482295
0.590114
0.684573
0.754528
0.805077
0.841569
0.865458
0.877785
0.882251
0.883182
0.883166
0.883078
-0.18125
-0.15415
-0.0984086
-0.022119
0.0658365
0.160516
0.260655
0.365691
0.47476
0.586571
0.685137
0.758381
0.811138
0.848792
0.872948
0.885116
0.889413
0.890264
0.890214
0.890105
-0.203589
-0.175944
-0.119213
-0.0416156
0.0478929
0.144392
0.246668
0.354246
0.466381
0.582
0.684712
0.761487
0.816737
0.855658
0.879969
0.891801
0.895804
0.896522
0.896426
0.896298
-0.22549
-0.197205
-0.139562
-0.0607469
0.0301447
0.128238
0.232412
0.342254
0.457178
0.576374
0.683235
0.763816
0.821939
0.86235
0.886746
0.897999
0.901509
0.902022
0.901882
0.901744
-0.246799
-0.21791
-0.159393
-0.0794942
0.0126166
0.112113
0.217938
0.329783
0.447199
0.569707
0.680634
0.765295
0.826748
0.869055
0.893585
0.903959
0.906662
0.906847
0.906658
0.906525
-0.267503
-0.238037
-0.178699
-0.0978157
-0.00464062
0.0960702
0.20333
0.316902
0.436515
0.562016
0.676854
0.765807
0.831096
0.875896
0.90091
0.91021
0.911588
0.911097
0.91082
0.910745
-0.287668
-0.257554
-0.197457
-0.115688
-0.0215685
0.0801866
0.188671
0.303711
0.425211
0.553359
0.671841
0.7652
0.834809
0.882824
0.909117
0.917647
0.91717
0.915184
0.914536
0.914755
-0.30713
-0.276442
-0.215617
-0.133054
-0.0381126
0.0645421
0.174052
0.290315
0.413399
0.543822
0.665578
0.763291
0.837615
0.889517
0.918234
0.927299
0.925383
0.920993
0.918519
0.918214
-0.325983
-0.294692
-0.233198
-0.149945
-0.0543064
0.0490941
0.159418
0.276661
0.401014
0.533336
0.657931
0.759805
0.839214
0.895477
0.927656
0.939503
0.938668
0.931941
0.924128
0.91022
-0.344154
-0.312291
-0.250315
-0.166562
-0.0704289
0.033519
0.144365
0.262279
0.387538
0.521284
0.648279
0.753989
0.839085
0.900039
0.93575
0.952206
0.953024
0.940211
0.920183
0.908906
-0.361473
-0.32938
-0.266777
-0.18271
-0.0861291
0.0181544
0.129112
0.247488
0.373265
0.507911
0.636666
0.745339
0.836355
0.902021
0.938381
0.954693
0.957944
0.934166
0.866582
0.836302
-0.377277
-0.347213
-0.282264
-0.197909
-0.100615
0.00349802
0.113977
0.232513
0.35841
0.493336
0.623006
0.733519
0.829539
0.900701
0.93045
0.941553
0.929349
0.874419
0.805248
0.762727
-0.432452
-0.362942
-0.29629
-0.213294
-0.115516
-0.0119171
0.0988889
0.21707
0.342597
0.477089
0.606667
0.717833
0.814658
0.892361
0.89577
0.897096
0.84563
0.774198
0.697121
0.654244
-0.393995
-0.378033
-0.317234
-0.233172
-0.137584
-0.0340313
0.0757426
0.193266
0.317793
0.45086
0.57853
0.688143
0.77735
0.860157
0.845106
0.729508
0.62285
0.548684
0.474726
0.504703
-0.424642
-0.395452
-0.333761
-0.250527
-0.154961
-0.0515265
0.0585088
0.175387
0.298835
0.430084
0.554948
0.660333
0.739884
0.783993
0.734058
0.582993
0.453738
0.361419
0.262179
0.311744
-0.448243
-0.416123
-0.35324
-0.269867
-0.174179
-0.0708512
0.0390936
0.155129
0.277162
0.405987
0.527081
0.626214
0.696827
0.706211
0.597913
0.423514
0.269618
0.149942
0.0183191
0.0509106
-0.471322
-0.437682
-0.373629
-0.289335
-0.193573
-0.0904022
0.0190108
0.134072
0.254494
0.380507
0.496853
0.588128
0.643305
0.620905
0.460756
0.263217
0.0720172
-0.0965378
-0.285386
-0.304054
-0.493807
-0.459721
-0.394783
-0.309713
-0.213817
-0.110874
-0.00211932
0.111842
0.23039
0.353187
0.464068
0.547351
0.582809
0.523922
0.330216
0.118692
-0.0992623
-0.289025
-0.531275
-0.828464
-0.516583
-0.482493
-0.417019
-0.331467
-0.235389
-0.132621
-0.0244543
0.0883705
0.204935
0.324247
0.429361
0.503981
0.518205
0.408139
0.216619
0.00579019
-0.199206
-0.372059
-0.441883
-0.520914
-0.540605
-0.506451
-0.440681
-0.354904
-0.25878
-0.156281
-0.0487956
0.0627194
0.17698
0.292275
0.391197
0.454613
0.443716
0.299999
0.115664
-0.0761321
-0.239744
-0.333208
-0.357472
-0.373356
-0.566177
-0.531895
-0.465937
-0.380101
-0.284119
-0.182062
-0.075499
0.0344034
0.145942
0.256571
0.348783
0.397942
0.369276
0.199594
0.02422
-0.142501
-0.269753
-0.309147
-0.322036
-0.323351
-0.593497
-0.559
-0.492852
-0.407053
-0.311354
-0.209968
-0.104582
0.0033752
0.11176
0.217142
0.301759
0.336485
0.288031
0.106884
-0.0593741
-0.208619
-0.285428
-0.302605
-0.303913
-0.303711
-0.622626
-0.58783
-0.521449
-0.435757
-0.340501
-0.239986
-0.136046
-0.0303778
0.0744481
0.17407
0.250188
0.273011
0.188418
0.0221566
-0.135598
-0.258621
-0.295626
-0.294028
-0.293125
-0.292512
-0.653278
-0.6182
-0.551624
-0.466125
-0.371472
-0.272061
-0.16986
-0.0668265
0.0340475
0.127475
0.194961
0.200783
0.097598
-0.0565685
-0.195991
-0.272057
-0.282674
-0.28555
-0.286316
-0.28605
-0.6849
-0.649669
-0.58312
-0.497927
-0.40408
-0.306036
-0.205869
-0.105837
-0.00925579
0.0777189
0.136563
0.127275
0.0158167
-0.123465
-0.240009
-0.271831
-0.280363
-0.28195
-0.281827
-0.28158
-0.717025
-0.681681
-0.615486
-0.530767
-0.437979
-0.34159
-0.243798
-0.147121
-0.0551805
0.0255103
0.0740711
0.057715
-0.0597345
-0.178502
-0.270726
-0.286828
-0.2793
-0.278633
-0.278682
-0.27849
-0.748755
-0.713507
-0.647842
-0.56405
-0.472626
-0.378249
-0.283198
-0.190205
-0.103259
-0.0284939
0.0103834
-0.00547571
-0.126295
-0.222978
-0.273478
-0.283923
-0.280569
-0.278484
-0.277589
-0.277268
-0.778515
-0.743969
-0.679218
-0.596851
-0.507254
-0.415318
-0.32342
-0.23442
-0.152692
-0.0837403
-0.0481705
-0.0745386
-0.179415
-0.268534
-0.269857
-0.282583
-0.282471
-0.278401
-0.276684
-0.275953
-0.8047
-0.771238
-0.708479
-0.627981
-0.540823
-0.451865
-0.363606
-0.278936
-0.202381
-0.139383
-0.103309
-0.139117
-0.219301
-0.298643
-0.324691
-0.302512
-0.287688
-0.281279
-0.278914
-0.277755
-0.825174
-0.793443
-0.733559
-0.656013
-0.572047
-0.486746
-0.402679
-0.322744
-0.251271
-0.194128
-0.159759
-0.188826
-0.235845
-0.311645
-0.361068
-0.318778
-0.297914
-0.29347
-0.291297
-0.289712
-0.837688
-0.808671
-0.752537
-0.679063
-0.59941
-0.518627
-0.439433
-0.364649
-0.298384
-0.246718
-0.213588
-0.229009
-0.217319
-0.230187
-0.243769
-0.284396
-0.310532
-0.317657
-0.317074
-0.31733
-0.839578
-0.814635
-0.763439
-0.69529
-0.621195
-0.546067
-0.472506
-0.403397
-0.342669
-0.296452
-0.259003
-0.275303
-0.231507
-0.120095
-0.194783
-0.280624
-0.319661
-0.330569
-0.334645
-0.336848
-0.828641
-0.808563
-0.764059
-0.70306
-0.635878
-0.567524
-0.500476
-0.437607
-0.382972
-0.342392
-0.303233
-0.347232
-0.394126
-0.348605
-0.373688
-0.391706
-0.386914
-0.382667
-0.382001
-0.382374
-0.802852
-0.787752
-0.752561
-0.701083
-0.642392
-0.581874
-0.522023
-0.465641
-0.41746
-0.383083
-0.354037
-0.445482
-0.652163
-0.97659
-0.878021
-0.622362
-0.484704
-0.432274
-0.416632
-0.41206
-0.764683
-0.754952
-0.729684
-0.689464
-0.640623
-0.588724
-0.536162
-0.486041
-0.443129
-0.415896
-0.400028
-0.447083
-0.500769
-0.652695
-0.623557
-0.437971
-0.339591
-0.306074
-0.293659
-0.288407
-0.720766
-0.715267
-0.7002
-0.670904
-0.632406
-0.588662
-0.54289
-0.497704
-0.457685
-0.429785
-0.409551
-0.297204
-0.0386894
0.286806
0.379075
0.204022
0.0108895
-0.0875453
-0.112529
-0.112934
-0.680777
-0.677472
-0.670215
-0.650757
-0.620635
-0.583716
-0.543277
-0.500902
-0.460455
-0.427569
-0.408489
-0.289996
-0.10768
0.141409
0.0915344
-0.189874
-0.324217
-0.3215
-0.295129
-0.309697
-0.651394
-0.649309
-0.645552
-0.633474
-0.609607
-0.577336
-0.539531
-0.497737
-0.45367
-0.416708
-0.395544
-0.416488
-0.630472
-1.16117
-1.68874
-1.96331
-1.97848
-1.78087
-1.59288
-1.48331
-0.628746
-0.627914
-0.626639
-0.620614
-0.602206
-0.572289
-0.534398
-0.489959
-0.441728
-0.389125
-0.353118
-0.387652
-0.66924
-1.059
-1.47255
-1.59645
-1.43599
-1.14756
-0.933875
-0.834164
-0.615629
-0.615313
-0.614707
-0.61196
-0.598483
-0.569445
-0.529016
-0.480727
-0.423231
-0.353236
-0.289651
-0.214642
-0.18754
-0.149097
-0.0560402
0.0941884
0.382734
0.61996
0.7523
0.798484
-0.606869
-0.606599
-0.605831
-0.604788
-0.596765
-0.569279
-0.525956
-0.471722
-0.405154
-0.325841
-0.222849
-0.095261
0.0867147
0.41957
0.838483
1.27462
1.62397
1.83988
1.9355
1.96053
-0.60285
-0.602496
-0.601619
-0.601143
-0.597362
-0.572944
-0.525913
-0.465309
-0.392034
-0.29669
-0.177768
-0.0571204
0.185913
0.615171
1.11213
1.56183
1.89625
2.0802
2.15199
2.16796
-0.602537
-0.603035
-0.604555
-0.606724
-0.6057
-0.580233
-0.529546
-0.464706
-0.38405
-0.282089
-0.164585
-0.039207
0.142288
0.548801
0.97791
1.35948
1.62824
1.76925
1.82141
1.83211
-0.598543
-0.59971
-0.602443
-0.606
-0.605465
-0.582115
-0.535736
-0.470389
-0.385209
-0.280952
-0.166691
-0.0508684
0.0853565
0.398118
0.725933
1.00504
1.19976
1.2982
1.33271
1.33912
-0.606769
-0.605346
-0.594435
-0.573112
-0.558409
-0.565055
-0.545672
-0.482632
-0.393441
-0.287838
-0.181242
-0.0770737
0.0279315
0.243734
0.472512
0.655502
0.780084
0.839268
0.859846
0.863976
-0.655308
-0.650008
-0.63284
-0.604033
-0.590343
-0.601372
-0.582383
-0.505985
-0.406092
-0.297002
-0.198511
-0.111595
-0.028416
0.120618
0.263293
0.367106
0.431687
0.461458
0.476114
0.480081
-0.760227
-0.767429
-0.790546
-0.819386
-0.814427
-0.779951
-0.674033
-0.542225
-0.416435
-0.304627
-0.217657
-0.150014
-0.0900909
0.0145837
0.111314
0.173242
0.206201
0.222398
0.233015
0.23683
-0.88493
-0.908614
-0.954099
-0.985642
-0.978008
-0.914179
-0.743316
-0.563835
-0.418082
-0.304739
-0.228322
-0.180338
-0.14172
-0.057117
0.0159276
0.0647556
0.0920088
0.107839
0.116769
0.119805
-0.876863
-0.897025
-0.934225
-0.961715
-0.953769
-0.877767
-0.703079
-0.530391
-0.390888
-0.288037
-0.225247
-0.193668
-0.170949
-0.0937447
-0.0274352
0.019067
0.0544198
0.0724944
0.0799987
0.0809482
-0.65599
-0.677394
-0.713908
-0.747613
-0.748157
-0.67685
-0.550143
-0.428721
-0.327969
-0.250361
-0.202425
-0.183241
-0.163458
-0.0994158
-0.043604
-0.00275984
0.0270949
0.0435113
0.0493774
0.0499698
-0.310454
-0.323079
-0.347322
-0.376918
-0.393944
-0.379613
-0.341098
-0.291048
-0.242411
-0.196613
-0.162993
-0.143493
-0.120911
-0.0741016
-0.0342393
-0.00405091
0.0187036
0.0317487
0.0369292
0.036585
-0.0186378
-0.024581
-0.0405985
-0.06828
-0.103773
-0.134586
-0.154105
-0.161024
-0.154512
-0.136683
-0.114348
-0.0896867
-0.0611421
-0.0368436
-0.0160475
0.00110681
0.0140905
0.0224251
0.0250616
0.0243302
0.137987
0.134725
0.12349
0.0983955
0.0581867
0.00974144
-0.0334397
-0.0650997
-0.0813687
-0.081464
-0.0667222
-0.0428323
-0.0177863
-0.00776127
-0.000762968
0.00786268
0.0157328
0.02095
0.0222123
0.0209713
0.184604
0.182837
0.174839
0.154928
0.120647
0.0770348
0.0330473
-0.00432949
-0.0292631
-0.0382106
-0.0294498
-0.0105346
0.00537398
0.00654935
0.00738691
0.0110684
0.0164108
0.0185904
0.0182264
0.0165638
0.178268
0.177041
0.171488
0.157409
0.13263
0.0997274
0.0635199
0.029893
0.00420194
-0.00863378
-0.00534871
0.00564755
0.0119889
0.00758013
0.00536978
0.00469069
0.0050458
0.00322713
0.00155297
0.000299526
0.152771
0.151995
0.148374
0.13905
0.12222
0.0989088
0.0715356
0.0444234
0.021825
0.00858972
0.00862264
0.0141669
0.0143405
0.00502092
-0.00130879
-0.00658541
-0.0116576
-0.016472
-0.0193025
-0.0199717
0.123351
0.122906
0.120625
0.114616
0.103464
0.0873938
0.0675091
0.0465196
0.0276835
0.0153969
0.0146924
0.0206016
0.0196939
0.00753565
-0.00533055
-0.0149392
-0.023092
-0.0298934
-0.0323751
-0.0326966
0.0955644
0.095286
0.0938905
0.0900343
0.0826659
0.0716277
0.0572769
0.0410856
0.0252472
0.0130361
0.0106043
0.0180076
0.0215162
0.00379452
-0.0117242
-0.0221337
-0.0300421
-0.0346518
-0.0361128
-0.0364939
0.0712451
0.0710663
0.0701403
0.0676509
0.0627201
0.0550193
0.0444328
0.0315474
0.0172635
0.00306402
-0.00626029
-0.00628563
-0.00526665
-0.0201374
-0.0303125
-0.0349359
-0.0378426
-0.0386495
-0.0391834
-0.0397923
0.0506667
0.0505697
0.0499566
0.0483255
0.0450426
0.0395888
0.0316017
0.0208936
0.00699496
-0.0115498
-0.0344598
-0.0567063
-0.0676446
-0.0697911
-0.0637441
-0.0566694
-0.0528269
-0.0509752
-0.0508465
-0.0514227
0.0337629
0.0336911
0.0332811
0.0322683
0.0301127
0.0263286
0.0202658
0.0113968
-0.00223766
-0.0245258
-0.0625922
-0.11509
-0.140856
-0.124606
-0.0981546
-0.0806576
-0.0721478
-0.0695894
-0.0688373
-0.0689752
0.0202963
0.0202452
0.020008
0.019419
0.0181265
0.0156807
0.0115647
0.00490211
-0.00677696
-0.0293197
-0.0729129
-0.140259
-0.16751
-0.135733
-0.103579
-0.0876492
-0.0820062
-0.080631
-0.0794322
-0.0789236
0.00981799
0.00979784
0.00970256
0.00944927
0.00883319
0.00757025
0.0051731
0.000936368
-0.00642469
-0.0217674
-0.0548922
-0.10745
-0.120259
-0.0928067
-0.0715089
-0.0656198
-0.0658302
-0.0660941
-0.0647981
-0.0638886
0.00161072
0.0016408
0.00160877
0.00163456
0.00178296
0.00178658
0.00152357
0.000892795
-0.000199975
-0.00228642
-0.00762441
-0.019121
-0.026877
-0.023005
-0.0223473
-0.021481
-0.0207355
-0.0192334
-0.0173642
-0.0160916
-0.0576355
0.108955
0.303295
0.472879
0.608191
0.714522
0.802324
0.877116
0.911295
0.88804
0.243967
0.364371
0.493857
0.605673
0.69981
0.777619
0.840612
0.885366
0.907771
0.919903
0.462045
0.544591
0.633073
0.711148
0.778259
0.8344
0.879062
0.911714
0.935349
0.953368
0.622331
0.681425
0.742774
0.79968
0.849141
0.891156
0.925685
0.95325
0.975987
0.994309
0.747396
0.790357
0.836187
0.87985
0.918436
0.95215
0.981022
1.00507
1.02542
1.04327
0.851481
0.884268
0.922291
0.957747
0.990305
1.0195
1.04502
1.06649
1.08432
1.10167
0.943881
0.972524
1.00643
1.03852
1.06843
1.09557
1.11929
1.13899
1.15449
1.17156
1.03238
1.06155
1.09553
1.12754
1.15712
1.18368
1.20653
1.22501
1.23837
1.2554
1.12764
1.16083
1.19745
1.23101
1.26104
1.28722
1.30916
1.32643
1.33829
1.35569
1.2426
1.28042
1.31905
1.35328
1.38262
1.40736
1.42772
1.44361
1.45507
1.47314
1.38753
1.42606
1.46219
1.49287
1.51855
1.54064
1.55969
1.57521
1.58764
1.60563
1.56259
1.59421
1.62038
1.64283
1.6628
1.68152
1.69923
1.71571
1.73105
1.74912
1.7512
1.7684
1.78343
1.79966
1.81556
1.83009
1.84329
1.85722
1.87476
1.89491
1.93291
1.94245
1.95399
1.96479
1.97408
1.98366
1.99444
2.00581
2.01717
2.03252
2.14014
2.1438
2.12886
2.11405
2.10777
2.11345
2.13192
2.16223
2.19441
2.22107
2.44646
2.3116
2.23496
2.19257
2.17515
2.17912
2.20651
2.26293
2.36555
2.58991
0.755525
0.753397
0.748914
0.740291
0.728068
0.715942
0.705717
0.697829
0.692221
0.68898
0.688641
0.691394
0.69651
0.703741
0.713134
0.724677
0.73733
0.748366
0.754479
0.757533
0.679975
0.685822
0.692156
0.69665
0.699122
0.6988
0.696067
0.692263
0.688763
0.686517
0.686387
0.6886
0.692275
0.696572
0.700384
0.702271
0.701337
0.697857
0.692695
0.686074
0.671543
0.673839
0.677244
0.680241
0.682318
0.683817
0.684577
0.684268
0.683253
0.682385
0.682578
0.684022
0.685849
0.687163
0.687349
0.686463
0.684916
0.682582
0.67932
0.6764
0.666022
0.667108
0.668942
0.671321
0.673347
0.674778
0.675804
0.676563
0.676977
0.677216
0.677727
0.678552
0.679163
0.679238
0.678832
0.677988
0.676522
0.67444
0.672355
0.670973
0.660806
0.661469
0.662577
0.664283
0.666067
0.667702
0.669004
0.670028
0.670924
0.671733
0.672485
0.673057
0.673264
0.673108
0.672548
0.671498
0.670074
0.668533
0.667217
0.666438
0.655814
0.656274
0.65706
0.65836
0.659849
0.66137
0.662841
0.664148
0.665299
0.666376
0.667317
0.667907
0.668069
0.667807
0.667117
0.666134
0.665013
0.663884
0.662971
0.662454
0.650964
0.651308
0.65192
0.652989
0.654285
0.655663
0.657108
0.658564
0.659954
0.661257
0.662397
0.663114
0.663311
0.663049
0.66246
0.661691
0.660846
0.659984
0.659314
0.658936
0.646204
0.646471
0.646965
0.647875
0.649046
0.650347
0.651748
0.653248
0.654806
0.656352
0.657734
0.658633
0.658957
0.658853
0.658473
0.657922
0.657281
0.656647
0.656158
0.65587
0.64145
0.641662
0.642073
0.642872
0.643964
0.645216
0.646609
0.648156
0.649847
0.651632
0.653302
0.654465
0.65503
0.655168
0.655018
0.654688
0.654255
0.653813
0.653464
0.653239
0.636615
0.636786
0.637137
0.637864
0.638909
0.640141
0.641561
0.643193
0.645042
0.647083
0.649098
0.650619
0.651508
0.651934
0.652036
0.651937
0.651716
0.651447
0.651214
0.651035
0.63161
0.631748
0.632058
0.63274
0.633769
0.635024
0.636512
0.63827
0.64033
0.642683
0.64512
0.647087
0.648365
0.649125
0.649514
0.64966
0.649649
0.649549
0.649415
0.64927
0.626345
0.626457
0.626739
0.627401
0.628448
0.629774
0.631372
0.633311
0.635649
0.638398
0.641354
0.643857
0.645594
0.64674
0.647455
0.647867
0.648073
0.648143
0.648096
0.647978
0.620726
0.620814
0.62108
0.621748
0.622849
0.624286
0.62605
0.628238
0.630932
0.634181
0.637775
0.640922
0.643202
0.644795
0.645876
0.646602
0.647052
0.647279
0.647307
0.647211
0.614642
0.61471
0.614969
0.615664
0.616858
0.618453
0.620447
0.622963
0.626112
0.629986
0.634358
0.638279
0.641204
0.643323
0.644824
0.645899
0.646617
0.647017
0.647118
0.647039
0.607966
0.608013
0.608275
0.60902
0.610346
0.612156
0.614453
0.617388
0.621114
0.62576
0.631079
0.635931
0.639622
0.642363
0.644358
0.645821
0.646852
0.647438
0.64761
0.647545
0.600542
0.600572
0.600838
0.601657
0.60316
0.60525
0.607935
0.611404
0.61585
0.621446
0.627916
0.633885
0.638487
0.641959
0.644541
0.64647
0.647851
0.648637
0.64888
0.648825
0.592176
0.592191
0.592461
0.593376
0.595115
0.59755
0.600734
0.604879
0.610225
0.61699
0.624854
0.632158
0.63784
0.642172
0.645445
0.647932
0.649713
0.650717
0.651032
0.650985
0.582559
0.582545
0.582874
0.583932
0.585953
0.588845
0.592665
0.597661
0.60413
0.612334
0.621887
0.630778
0.637733
0.643078
0.647161
0.650302
0.652542
0.653788
0.654175
0.654132
0.571402
0.571363
0.571737
0.572989
0.575383
0.578862
0.583492
0.589567
0.597445
0.607423
0.619011
0.629782
0.638226
0.644756
0.649792
0.653679
0.656452
0.657956
0.658413
0.65837
0.558222
0.558157
0.55861
0.560115
0.562994
0.567241
0.572919
0.580379
0.590033
0.602197
0.616228
0.62921
0.63938
0.647278
0.653422
0.658173
0.661538
0.663311
0.663831
0.663782
0.542371
0.542277
0.542855
0.544712
0.548243
0.553516
0.560585
0.569855
0.581774
0.596638
0.613584
0.629133
0.641275
0.650725
0.658134
0.663856
0.667868
0.669908
0.670476
0.670416
0.522911
0.52279
0.52357
0.525942
0.53039
0.537088
0.546058
0.557739
0.572573
0.590768
0.611158
0.629636
0.643994
0.655176
0.663969
0.67078
0.675463
0.677744
0.678337
0.678258
0.498424
0.498286
0.4994
0.502572
0.508407
0.517193
0.528858
0.543821
0.562419
0.584687
0.609084
0.630839
0.647618
0.660687
0.670966
0.678948
0.684272
0.686734
0.687315
0.687208
0.466604
0.466488
0.468213
0.47277
0.480907
0.492939
0.508555
0.52802
0.551432
0.578595
0.607552
0.632884
0.652231
0.667288
0.679143
0.688281
0.69414
0.696675
0.697198
0.697058
0.4233
0.423346
0.426415
0.433854
0.446257
0.463585
0.485052
0.510584
0.539994
0.572865
0.606853
0.635948
0.657931
0.674998
0.688402
0.698622
0.704788
0.707231
0.707646
0.707472
0.360745
0.361947
0.369446
0.383317
0.40351
0.429262
0.458962
0.492219
0.528728
0.567967
0.607268
0.640181
0.664755
0.683756
0.698582
0.709583
0.715772
0.717885
0.718133
0.717936
0.286575
0.288335
0.302685
0.326498
0.357611
0.39331
0.431996
0.473488
0.517597
0.56384
0.609284
0.646904
0.674814
0.696252
0.712764
0.724526
0.730559
0.732409
0.732619
0.732516
0.21005
0.21623
0.237421
0.271467
0.312976
0.358326
0.405955
0.455731
0.507532
0.560906
0.612673
0.655143
0.686471
0.710436
0.728828
0.741096
0.746573
0.747954
0.748094
0.74806
0.147449
0.155933
0.181686
0.22274
0.272396
0.325984
0.381684
0.439221
0.498366
0.558599
0.616424
0.663475
0.697979
0.724176
0.743804
0.756352
0.761723
0.762938
0.76309
0.763114
0.096536
0.105615
0.134914
0.181203
0.23701
0.29724
0.359766
0.42415
0.489995
0.55666
0.620241
0.671645
0.709122
0.737393
0.758373
0.771425
0.776618
0.778024
0.778273
0.778338
0.0539335
0.0632935
0.0950386
0.145321
0.206177
0.271917
0.340234
0.410618
0.482507
0.555115
0.624114
0.679666
0.719999
0.750315
0.77264
0.786269
0.791855
0.793489
0.79376
0.79385
0.0172792
0.0267486
0.0603298
0.113813
0.178844
0.249289
0.322659
0.398357
0.475714
0.553813
0.627923
0.687439
0.730535
0.762827
0.786464
0.800996
0.807043
0.808835
0.809133
0.809212
-0.0151002
-0.00559643
0.0293937
0.0855803
0.154109
0.228609
0.306445
0.386927
0.469305
0.552537
0.631499
0.694814
0.740564
0.774746
0.799675
0.815009
0.821577
0.823542
0.823855
0.823923
-0.0444887
-0.0349472
0.00119898
0.0597177
0.131245
0.209295
0.291108
0.375938
0.462955
0.55102
0.63462
0.701593
0.749885
0.785843
0.811991
0.828074
0.835154
0.837246
0.837567
0.8376
-0.0717653
-0.0621792
-0.0250215
0.0355127
0.109711
0.190907
0.276276
0.36506
0.456382
0.549026
0.637113
0.707649
0.758392
0.796035
0.823262
0.839959
0.847476
0.849686
0.850007
0.850019
-0.097496
-0.087851
-0.049744
0.0124918
0.0890972
0.173096
0.261669
0.354061
0.449388
0.546394
0.638857
0.712916
0.766054
0.8053
0.833482
0.850656
0.858404
0.860717
0.861038
0.861024
-0.122179
-0.112383
-0.0734215
-0.00962461
0.0691262
0.155628
0.247093
0.342784
0.44184
0.542999
0.639757
0.717362
0.772906
0.813679
0.84272
0.860251
0.868094
0.870403
0.870725
0.870684
-0.14607
-0.136059
-0.096356
-0.0310402
0.0496149
0.138348
0.232423
0.331125
0.433637
0.538756
0.639753
0.720972
0.779002
0.821313
0.851099
0.868829
0.876658
0.878935
0.879226
0.879166
-0.169278
-0.159063
-0.118593
-0.0519028
0.030446
0.121181
0.217594
0.319025
0.424729
0.533598
0.638785
0.723744
0.784407
0.828333
0.858801
0.876606
0.884315
0.886499
0.886741
0.886652
-0.191976
-0.181466
-0.14025
-0.0722952
0.0115652
0.104082
0.202581
0.306474
0.415101
0.527499
0.6368
0.725655
0.789189
0.834896
0.866025
0.883743
0.891199
0.893219
0.893397
0.893287
-0.214122
-0.203345
-0.16141
-0.092264
-0.00703828
0.0870566
0.187411
0.293496
0.404769
0.52044
0.633751
0.726656
0.793391
0.841142
0.872955
0.890413
0.897419
0.899178
0.899258
0.899123
-0.235783
-0.224707
-0.182007
-0.111797
-0.0253507
0.0701318
0.172116
0.280145
0.393776
0.512438
0.629594
0.726677
0.796996
0.847186
0.879837
0.896849
0.903094
0.904426
0.90439
0.904241
-0.256795
-0.245489
-0.202039
-0.130858
-0.0433315
0.0533732
0.156759
0.266484
0.38219
0.503544
0.6243
0.725631
0.79993
0.853083
0.886957
0.903451
0.90854
0.909108
0.908866
0.908718
-0.277299
-0.265653
-0.221498
-0.149433
-0.0609524
0.0368159
0.141426
0.252591
0.370094
0.493829
0.617872
0.723413
0.802045
0.858772
0.894546
0.910822
0.914419
0.913561
0.912775
0.912631
-0.297132
-0.285178
-0.240357
-0.167479
-0.0781385
0.0205417
0.126196
0.238584
0.357594
0.483355
0.610343
0.719913
0.803137
0.864032
0.902585
0.919618
0.922062
0.91901
0.916598
0.915732
-0.316359
-0.304106
-0.258564
-0.18495
-0.0948559
0.00461769
0.111151
0.224538
0.344799
0.472254
0.601778
0.715023
0.802965
0.868477
0.91057
0.929952
0.93302
0.928463
0.922007
0.913762
-0.334896
-0.322398
-0.276214
-0.201999
-0.111311
-0.0112231
0.0959648
0.210068
0.331274
0.460042
0.591663
0.708208
0.801058
0.871787
0.917876
0.941181
0.947672
0.943197
0.932665
0.927606
-0.352698
-0.339975
-0.293289
-0.218601
-0.127511
-0.0269747