/*--------------------------------*- C++ -*----------------------------------*\
| =========                 |                                                 |
| \\      /  F ield         | OpenFOAM: The Open Source CFD Toolbox           |
|  \\    /   O peration     | Version:  4.0                                   |
|   \\  /    A nd           | Web:      www.OpenFOAM.org                      |
|    \\/     M anipulation  |                                                 |
\*---------------------------------------------------------------------------*/
FoamFile
{
    version     2.0;
    format      ascii;
    class       volScalarField;
    location    "9";
    object      p;
}
// * * * * * * * * * * * * * * * * * * * * * * * * * * * * * * * * * * * * * //

dimensions      [0 2 -2 0 0 0 0];

internalField   nonuniform List<scalar> 
8800
(
0.417666
0.369967
0.331475
0.302686
0.282065
0.267505
0.257214
0.250015
0.245381
0.243329
0.244302
0.248036
0.254166
0.262976
0.275321
0.2927
0.317184
0.350895
0.393199
0.451897
0.248585
0.256295
0.264104
0.267586
0.266315
0.26156
0.255452
0.24975
0.245326
0.2426
0.24216
0.24426
0.248195
0.253557
0.259767
0.265566
0.268838
0.267879
0.262123
0.253225
0.226475
0.23282
0.2374
0.240859
0.243388
0.244467
0.243771
0.241959
0.240063
0.239059
0.239752
0.241709
0.243991
0.245581
0.245565
0.243764
0.240823
0.236869
0.231908
0.228108
0.220408
0.223251
0.226652
0.229721
0.231834
0.23327
0.234253
0.234678
0.234654
0.23467
0.235013
0.235542
0.235732
0.235263
0.23422
0.232605
0.230096
0.226723
0.223768
0.222274
0.215497
0.216905
0.219813
0.222969
0.225704
0.227827
0.229233
0.230094
0.230584
0.230895
0.231247
0.231417
0.23114
0.230309
0.228739
0.226422
0.223556
0.220397
0.218282
0.217705
0.214385
0.214976
0.216485
0.218262
0.220014
0.22175
0.223325
0.224634
0.225606
0.226279
0.226568
0.2264
0.225754
0.224653
0.223242
0.221618
0.219945
0.218276
0.217258
0.217049
0.213382
0.213662
0.214466
0.215531
0.2167
0.217864
0.219093
0.220218
0.221191
0.221942
0.222326
0.222253
0.221786
0.221012
0.220073
0.219134
0.218161
0.217259
0.216756
0.216664
0.211445
0.211575
0.211998
0.212662
0.213408
0.214338
0.215393
0.216455
0.217467
0.218334
0.218834
0.218873
0.218554
0.217988
0.21739
0.216813
0.216266
0.215783
0.215554
0.21551
0.208673
0.20874
0.209006
0.209465
0.210013
0.210681
0.211442
0.212327
0.213284
0.214225
0.214901
0.215191
0.215194
0.215039
0.214775
0.214465
0.214149
0.213882
0.21377
0.21375
0.205518
0.205561
0.205741
0.206073
0.206517
0.207092
0.20781
0.208677
0.209678
0.210754
0.211647
0.212175
0.212407
0.212445
0.212368
0.212238
0.212082
0.211954
0.211905
0.211892
0.201989
0.202018
0.202148
0.202397
0.202761
0.203266
0.203945
0.204826
0.205917
0.207181
0.208345
0.209151
0.209639
0.209904
0.210027
0.210063
0.21005
0.210027
0.21002
0.210011
0.19809
0.198116
0.19823
0.198449
0.198792
0.199296
0.200007
0.200974
0.202227
0.203759
0.205258
0.206379
0.207123
0.207602
0.20789
0.208054
0.20814
0.208183
0.208202
0.208195
0.19379
0.193812
0.193932
0.194158
0.194521
0.19507
0.195871
0.196991
0.198489
0.200379
0.202288
0.203769
0.204815
0.205514
0.205967
0.206249
0.206418
0.206512
0.206551
0.206544
0.189057
0.189081
0.189215
0.189473
0.189892
0.190535
0.191486
0.192837
0.194675
0.197031
0.199457
0.201387
0.202766
0.203706
0.204329
0.204729
0.204974
0.205114
0.205171
0.205164
0.183813
0.183841
0.184003
0.184314
0.184822
0.185607
0.186775
0.188447
0.190736
0.193697
0.196774
0.19924
0.201012
0.202237
0.203054
0.203583
0.203911
0.204099
0.204175
0.204167
0.17794
0.177974
0.178177
0.178565
0.1792
0.180182
0.181646
0.183745
0.186626
0.190361
0.194252
0.197378
0.199633
0.201196
0.202242
0.202921
0.203343
0.203585
0.203684
0.203674
0.171275
0.171318
0.171577
0.172072
0.172879
0.174127
0.175984
0.178645
0.182292
0.187014
0.191926
0.19587
0.198716
0.200689
0.202012
0.20287
0.203406
0.203712
0.203837
0.203825
0.163601
0.163657
0.163991
0.164628
0.165666
0.167268
0.169646
0.173041
0.177677
0.183653
0.189845
0.194802
0.198375
0.20085
0.20251
0.203588
0.20426
0.204645
0.2048
0.204785
0.154622
0.154698
0.155132
0.155961
0.157311
0.159388
0.162455
0.16681
0.17272
0.180285
0.188074
0.194282
0.198748
0.20184
0.203914
0.20526
0.206099
0.206578
0.206772
0.206753
0.143932
0.144035
0.144608
0.145702
0.147483
0.150203
0.154188
0.159805
0.167357
0.176931
0.1867
0.194446
0.200006
0.203854
0.206436
0.208111
0.209153
0.209747
0.209987
0.209963
0.13096
0.1311
0.131869
0.133344
0.135739
0.139362
0.144573
0.151858
0.161531
0.173628
0.185834
0.195451
0.202343
0.207117
0.210325
0.212409
0.213702
0.214434
0.214729
0.2147
0.114886
0.11508
0.116134
0.118175
0.121445
0.1263
0.133251
0.142776
0.155191
0.170437
0.185604
0.197475
0.205976
0.211882
0.215868
0.218467
0.220081
0.220987
0.221348
0.22131
0.0945175
0.0947997
0.0962964
0.0992204
0.103802
0.110478
0.119839
0.132385
0.14833
0.167454
0.186159
0.200697
0.211123
0.218412
0.223373
0.226643
0.228691
0.22984
0.230289
0.230231
0.0679746
0.0684108
0.0706855
0.0750924
0.0817514
0.0911952
0.104041
0.120655
0.141066
0.164854
0.187676
0.205295
0.21798
0.226946
0.233145
0.237309
0.239973
0.241489
0.242074
0.241989
0.0319336
0.0327211
0.0366539
0.0438658
0.054108
0.0679495
0.0858052
0.107785
0.133687
0.162905
0.190354
0.211412
0.226674
0.237641
0.245413
0.250798
0.254377
0.256478
0.257302
0.257188
-0.0200751
-0.0177668
-0.00957447
0.00339925
0.0200183
0.0406606
0.0654297
0.0942043
0.126593
0.16188
0.194323
0.219067
0.23715
0.250421
0.26015
0.267221
0.272219
0.275403
0.276752
0.276601
-0.0986702
-0.0872722
-0.0684743
-0.0452017
-0.0190155
0.0106294
0.0438426
0.0804473
0.120046
0.161976
0.199888
0.22877
0.250172
0.266325
0.278708
0.288344
0.295861
0.301347
0.30432
0.304804
-0.182304
-0.157542
-0.127559
-0.0939801
-0.0580317
-0.0193239
0.0222855
0.0667804
0.113916
0.163181
0.207558
0.241613
0.267293
0.2872
0.303041
0.315956
0.326641
0.336065
0.342376
0.343088
-0.245847
-0.218953
-0.18076
-0.138967
-0.0945667
-0.0476104
0.00192606
0.0539667
0.108286
0.164432
0.214699
0.253177
0.282193
0.304713
0.322604
0.337088
0.34891
0.358619
0.364316
0.365127
-0.29665
-0.267674
-0.224983
-0.177512
-0.126844
-0.0732863
-0.0170206
0.0417099
0.102558
0.164959
0.220335
0.26234
0.293682
0.317667
0.336405
0.351324
0.363368
0.373027
0.378779
0.37967
-0.33728
-0.307812
-0.261971
-0.2103
-0.154915
-0.0961562
-0.0343521
0.03011
0.0967237
0.164756
0.224743
0.269789
0.302962
0.327996
0.347271
0.362376
0.374383
0.383737
0.389467
0.390396
-0.371506
-0.341845
-0.293801
-0.238898
-0.179736
-0.116726
-0.0502546
0.0192206
0.0910651
0.164317
0.22855
0.276319
0.31108
0.336962
0.356608
0.371789
0.383716
0.392892
0.398528
0.399484
-0.401318
-0.371666
-0.322032
-0.264596
-0.20233
-0.135719
-0.0651917
0.0087305
0.0853081
0.163402
0.231701
0.282138
0.318465
0.345194
0.365241
0.38055
0.392436
0.401498
0.407006
0.407963
-0.428181
-0.398494
-0.347621
-0.288152
-0.223358
-0.153729
-0.0797031
-0.00181525
0.0791685
0.161978
0.234374
0.287579
0.325575
0.353239
0.373755
0.389246
0.401137
0.41012
0.415507
0.416469
-0.452966
-0.423197
-0.371352
-0.310223
-0.243323
-0.171126
-0.094017
-0.0125196
0.0726118
0.16003
0.236621
0.292792
0.332649
0.361404
0.382502
0.398254
0.410214
0.419098
0.424368
0.425366
-0.476401
-0.446448
-0.39377
-0.331235
-0.262546
-0.188125
-0.108311
-0.023555
0.065463
0.157432
0.238401
0.297825
0.339823
0.369887
0.391716
0.407824
0.419901
0.428777
0.433875
0.434936
-0.498755
-0.468571
-0.415176
-0.351528
-0.281317
-0.204982
-0.122793
-0.0350741
0.0576207
0.15409
0.239636
0.30265
0.347137
0.378788
0.40155
0.418143
0.430413
0.439311
0.444268
0.445318
-0.520367
-0.489858
-0.435829
-0.371254
-0.299744
-0.221777
-0.137512
-0.0471409
0.0489939
0.149887
0.240188
0.307169
0.354543
0.38813
0.412081
0.429331
0.441903
0.450867
0.455705
0.456702
-0.541269
-0.51046
-0.455928
-0.390486
-0.317883
-0.238546
-0.152499
-0.059776
0.0395306
0.144738
0.239924
0.311218
0.361919
0.397843
0.423303
0.441435
0.454461
0.463556
0.468309
0.469164
-0.561519
-0.530427
-0.475449
-0.409259
-0.335745
-0.255276
-0.167743
-0.0729773
0.0292169
0.138561
0.23869
0.31459
0.369048
0.407787
0.43516
0.454463
0.468128
0.477476
0.482174
0.482815
-0.581152
-0.549709
-0.494375
-0.427543
-0.353314
-0.271923
-0.183182
-0.0866957
0.0180744
0.131308
0.236348
0.317038
0.375663
0.41775
0.44753
0.468376
0.482878
0.49256
0.497253
0.497665
-0.600191
-0.568342
-0.512654
-0.445295
-0.370514
-0.288424
-0.198744
-0.100861
0.00614385
0.122963
0.232757
0.318303
0.381427
0.427403
0.460163
0.48303
0.498684
0.508844
0.513484
0.513652
-0.618442
-0.58636
-0.53024
-0.462481
-0.38728
-0.304694
-0.214345
-0.115377
-0.00649461
0.113572
0.227837
0.318167
0.385923
0.436219
0.472685
0.49821
0.515394
0.526077
0.530558
0.530459
-0.635921
-0.603619
-0.547108
-0.479034
-0.403536
-0.320654
-0.229879
-0.130151
-0.0197409
0.103183
0.221587
0.316434
0.388706
0.443559
0.484521
0.513756
0.53313
0.544263
0.548227
0.547757
-0.652629
-0.620008
-0.563213
-0.494904
-0.419222
-0.336216
-0.245251
-0.145061
-0.033488
0.0918987
0.214017
0.312956
0.389371
0.448702
0.494824
0.529189
0.552199
0.563846
0.566021
0.564864
-0.668431
-0.635567
-0.578501
-0.510018
-0.434285
-0.351303
-0.260363
-0.159993
-0.0475952
0.07986
0.205205
0.307663
0.387656
0.450984
0.502331
0.54328
0.572774
0.587242
0.585412
0.581535
-0.683434
-0.650285
-0.59298
-0.524403
-0.448756
-0.365964
-0.275279
-0.17501
-0.0621415
0.0670003
0.195089
0.300344
0.383325
0.449568
0.505084
0.553228
0.592741
0.61824
0.617758
0.592794
-0.697609
-0.664204
-0.606752
-0.538224
-0.462879
-0.38049
-0.290387
-0.1906
-0.0777004
0.0526437
0.183049
0.290362
0.375568
0.443364
0.500034
0.553153
0.599971
0.628566
0.619653
0.589132
-0.710854
-0.677387
-0.619662
-0.551255
-0.476377
-0.39456
-0.305443
-0.206447
-0.0939812
0.0370963
0.16936
0.277883
0.363961
0.431984
0.483408
0.533504
0.571662
0.582995
0.51839
0.4705
-0.722553
-0.690076
-0.631322
-0.562929
-0.48872
-0.407808
-0.320192
-0.222389
-0.110862
0.0204482
0.154087
0.262882
0.348453
0.416902
0.457628
0.484918
0.506484
0.466649
0.386717
0.333626
-0.775222
-0.698975
-0.642036
-0.574613
-0.501242
-0.421431
-0.334799
-0.238709
-0.128684
0.00225503
0.136828
0.245187
0.326817
0.39799
0.4162
0.412717
0.381979
0.311119
0.216999
0.165214
-0.725719
-0.712518
-0.655849
-0.590849
-0.51847
-0.440187
-0.35635
-0.262991
-0.155205
-0.0244791
0.110548
0.214726
0.285887
0.33911
0.34414
0.206379
0.0746548
-0.0151277
-0.108
-0.0537274
-0.751649
-0.724511
-0.668592
-0.603682
-0.532056
-0.455029
-0.372314
-0.281402
-0.176315
-0.0470554
0.088625
0.189591
0.251182
0.275235
0.206325
0.0151356
-0.162048
-0.287118
-0.42284
-0.328755
-0.769801
-0.738376
-0.682862
-0.617617
-0.546565
-0.470753
-0.389794
-0.301613
-0.199952
-0.0729767
0.0627894
0.160926
0.209584
0.202822
0.0577806
-0.203949
-0.427078
-0.598015
-0.796795
-0.698347
-0.786384
-0.753121
-0.696824
-0.631161
-0.560623
-0.486063
-0.407324
-0.322495
-0.224601
-0.0992548
0.0375516
0.132465
0.164316
0.112328
-0.120898
-0.433402
-0.72604
-0.981502
-1.27315
-1.23179
-0.801052
-0.767556
-0.710683
-0.644786
-0.574811
-0.501629
-0.425394
-0.344277
-0.250714
-0.127861
0.0116231
0.10494
0.115285
0.00820226
-0.296895
-0.653333
-1.01671
-1.3543
-1.75074
-2.1192
-0.814857
-0.781612
-0.724526
-0.658655
-0.589292
-0.517585
-0.44408
-0.367302
-0.279034
-0.159752
-0.0175241
0.0764899
0.0643971
-0.096959
-0.458784
-0.83556
-1.22364
-1.56061
-1.72441
-1.98654
-0.828327
-0.795288
-0.738389
-0.672727
-0.604115
-0.5341
-0.463761
-0.392189
-0.310788
-0.196132
-0.0485606
0.0479698
0.0148578
-0.216839
-0.605962
-0.981094
-1.30884
-1.53617
-1.59964
-1.64036
-0.841708
-0.808826
-0.752039
-0.686765
-0.619074
-0.550996
-0.484396
-0.419117
-0.346475
-0.239114
-0.0853229
0.019952
-0.0375849
-0.342251
-0.7366
-1.11797
-1.38328
-1.4842
-1.51687
-1.53356
-0.855009
-0.822104
-0.765311
-0.700466
-0.633804
-0.567939
-0.505647
-0.448027
-0.388089
-0.291855
-0.131713
-0.00968583
-0.0962925
-0.467594
-0.86151
-1.26167
-1.54811
-1.51751
-1.5411
-1.55534
-0.867915
-0.834822
-0.777902
-0.713469
-0.647879
-0.584429
-0.526964
-0.478624
-0.434709
-0.359812
-0.199389
-0.0580022
-0.173902
-0.600427
-0.984603
-1.39585
-1.84021
-1.78721
-1.65296
-1.6153
-0.879927
-0.846525
-0.789376
-0.725273
-0.660712
-0.599738
-0.54762
-0.510446
-0.488849
-0.450478
-0.309359
-0.157124
-0.296609
-0.741121
-1.08536
-1.34884
-1.65178
-1.60934
-1.55792
-1.53432
-0.890378
-0.856486
-0.799222
-0.735269
-0.671577
-0.612998
-0.566584
-0.542563
-0.552153
-0.580444
-0.503269
-0.346906
-0.498128
-0.909812
-1.12288
-1.04877
-0.958692
-1.2237
-1.39402
-1.42762
-0.898867
-0.864308
-0.806723
-0.74274
-0.6796
-0.62306
-0.582605
-0.573075
-0.623822
-0.767964
-0.841423
-0.677949
-0.799189
-1.16448
-1.40453
-1.36934
-1.39632
-1.52336
-1.629
-1.68052
-0.90473
-0.869301
-0.811183
-0.746876
-0.683823
-0.628558
-0.592609
-0.598491
-0.698018
-1.01324
-1.36515
-1.17338
-1.20165
-1.56737
-2.14295
-2.61952
-2.73585
-2.63252
-2.47343
-2.40827
-0.907207
-0.870873
-0.811963
-0.74692
-0.683274
-0.628177
-0.595067
-0.614174
-0.761723
-1.27995
-2.0254
-1.74004
-1.56714
-1.89014
-2.67416
-3.63044
-3.83451
-3.49427
-3.11162
-2.95298
-0.905738
-0.868423
-0.808469
-0.742236
-0.677127
-0.620544
-0.58698
-0.610357
-0.789894
-1.46216
-2.52707
-2.11308
-1.55964
-1.63665
-2.14892
-2.82862
-2.91588
-2.48364
-2.08834
-1.92536
-0.900147
-0.861621
-0.800382
-0.732465
-0.664936
-0.604862
-0.566313
-0.582931
-0.75644
-1.4298
-2.51308
-1.8266
-0.973614
-0.467506
-0.281295
-0.287984
-0.251117
-0.0486362
0.0859577
0.132108
-0.890502
-0.850659
-0.787732
-0.71766
-0.646842
-0.581418
-0.53321
-0.529406
-0.647474
-1.13046
-1.81385
-1.03085
-0.151513
0.495376
0.905794
1.16308
1.3162
1.38305
1.40683
1.41076
-0.87671
-0.835808
-0.770798
-0.698346
-0.623674
-0.551577
-0.490456
-0.457346
-0.492434
-0.687599
-0.82171
-0.18332
0.473786
0.969138
1.2964
1.51293
1.63627
1.69763
1.72175
1.72496
-0.857895
-0.816512
-0.750063
-0.675069
-0.596569
-0.517664
-0.443078
-0.380116
-0.338997
-0.311982
-0.140263
0.292031
0.745552
1.09202
1.31792
1.46811
1.56347
1.62087
1.6503
1.65619
-0.833662
-0.792355
-0.725155
-0.648242
-0.566486
-0.481856
-0.395967
-0.309507
-0.217487
-0.0861877
0.160554
0.484258
0.791547
1.0333
1.1996
1.31402
1.39289
1.44659
1.47627
1.48292
-0.80128
-0.761073
-0.694686
-0.616812
-0.533368
-0.445142
-0.351815
-0.250823
-0.132428
0.0338435
0.271259
0.526313
0.749309
0.924885
1.05371
1.14727
1.21551
1.2643
1.28966
1.29648
-0.755222
-0.71799
-0.656145
-0.578901
-0.495861
-0.406869
-0.310848
-0.203877
-0.0765569
0.0922977
0.301254
0.504068
0.674244
0.808545
0.911216
0.989051
1.0481
1.09127
1.11521
1.12269
-0.69468
-0.662343
-0.603471
-0.531
-0.451486
-0.365577
-0.271464
-0.165781
-0.0412334
0.115585
0.292713
0.45384
0.585631
0.689899
0.771399
0.835073
0.884308
0.920465
0.943524
0.950991
-0.6087
-0.587339
-0.534481
-0.469203
-0.397014
-0.31827
-0.231159
-0.133016
-0.0188442
0.118992
0.264913
0.391132
0.491161
0.569436
0.630326
0.678173
0.716126
0.744585
0.761834
0.766479
-0.485708
-0.475085
-0.438435
-0.3875
-0.329119
-0.263561
-0.189113
-0.103783
-0.00415023
0.114008
0.2361
0.338986
0.419215
0.480583
0.52699
0.561756
0.587611
0.607367
0.620344
0.62346
-0.352731
-0.348599
-0.326677
-0.293051
-0.251938
-0.202677
-0.144033
-0.0743058
0.00884557
0.107813
0.209209
0.293226
0.357491
0.405518
0.440568
0.465536
0.482968
0.494425
0.500418
0.501814
-0.230508
-0.228318
-0.217721
-0.199007
-0.173569
-0.140195
-0.097534
-0.0437392
0.0228006
0.103475
0.18601
0.253826
0.304844
0.341874
0.367954
0.38576
0.397213
0.403961
0.407183
0.407649
-0.130248
-0.130234
-0.126612
-0.118105
-0.104254
-0.0836189
-0.0542454
-0.0146096
0.0369668
0.101323
0.167658
0.221666
0.261613
0.290106
0.309566
0.322072
0.329653
0.333812
0.335631
0.335659
-0.0583533
-0.0591949
-0.0596985
-0.0575394
-0.0509452
-0.0385329
-0.0188363
0.00999713
0.0491409
0.0994285
0.151888
0.194542
0.225728
0.247343
0.261649
0.27068
0.275899
0.278467
0.279373
0.279313
-0.0123733
-0.0132449
-0.0149135
-0.0152492
-0.0126172
-0.00549697
0.00766524
0.0284077
0.0582156
0.0971834
0.138187
0.171359
0.195361
0.211968
0.222885
0.229404
0.232933
0.234518
0.234992
0.234909
0.0153404
0.0147376
0.0133851
0.012784
0.014193
0.0186514
0.0274529
0.0421312
0.0644005
0.0944499
0.126353
0.152207
0.170866
0.18359
0.191497
0.196182
0.198666
0.199688
0.199931
0.199856
0.0322694
0.0319143
0.0311028
0.0307326
0.0317205
0.034945
0.0414001
0.0522
0.0683813
0.0917603
0.116346
0.136209
0.15053
0.160015
0.165979
0.169458
0.171226
0.171898
0.172043
0.171982
0.0431613
0.0429548
0.0424735
0.0423
0.0430555
0.0453797
0.0500978
0.0581773
0.070519
0.0879263
0.10707
0.122423
0.133292
0.140535
0.145048
0.147639
0.148936
0.149415
0.149512
0.149463
0.0499661
0.0498467
0.049562
0.0495188
0.050169
0.0519786
0.0555457
0.0616131
0.0709786
0.0842079
0.0987166
0.110474
0.118779
0.124277
0.127691
0.129638
0.130597
0.130936
0.131
0.13096
0.0537575
0.0536856
0.0535137
0.0535307
0.0540666
0.0554704
0.0582041
0.0628348
0.069964
0.0800071
0.0910114
0.0999652
0.106311
0.110509
0.113102
0.114568
0.115278
0.11552
0.115561
0.115528
0.055296
0.0552517
0.0551557
0.0552131
0.0556645
0.056767
0.0588658
0.0623974
0.0678303
0.0754732
0.0838425
0.0906668
0.0954998
0.0986889
0.10065
0.101751
0.102278
0.10245
0.102475
0.102448
0.0551739
0.0551449
0.0550933
0.0551668
0.0555412
0.0564099
0.0580324
0.0607394
0.0648832
0.0706997
0.0770639
0.0822659
0.0859328
0.0883512
0.0898334
0.0906608
0.0910512
0.0911735
0.0911871
0.0911639
0.0538058
0.0537856
0.0537572
0.0538303
0.0541343
0.0548144
0.0560671
0.0581408
0.0613042
0.0657383
0.0705889
0.0745347
0.0773202
0.0791521
0.0802707
0.0808904
0.0811785
0.0812644
0.0812706
0.0812514
0.0514894
0.0514745
0.0514575
0.0515215
0.0517631
0.0522924
0.0532575
0.0548464
0.0572607
0.0606391
0.0643281
0.0673245
0.0694382
0.0708246
0.0716677
0.0721314
0.0723431
0.0724018
0.0724026
0.0723867
0.0484426
0.0484311
0.0484194
0.0484713
0.0486601
0.049069
0.0498098
0.0510244
0.0528658
0.0554374
0.0582419
0.060515
0.0621163
0.0631632
0.0637966
0.0641421
0.0642968
0.0643366
0.0643345
0.0643215
0.0448323
0.0448232
0.0448139
0.0448541
0.0449989
0.045312
0.0458782
0.0468046
0.0482065
0.0501616
0.052289
0.0540104
0.0552209
0.0560102
0.0564856
0.0567425
0.056855
0.0568808
0.0568768
0.0568662
0.0407883
0.0407807
0.0407729
0.0408029
0.0409128
0.0411508
0.041581
0.0422842
0.0433473
0.0448288
0.0464391
0.0477408
0.0486536
0.0492463
0.0496014
0.0497911
0.0498719
0.0498881
0.0498833
0.0498749
0.0364126
0.0364063
0.0363993
0.0364206
0.0365025
0.0366811
0.0370052
0.0375359
0.0383392
0.0394576
0.0406713
0.0416505
0.0423362
0.0427794
0.0430428
0.0431816
0.0432387
0.0432477
0.0432423
0.0432355
0.0317837
0.0317786
0.0317719
0.031786
0.0318454
0.0319775
0.0322192
0.0326164
0.0332184
0.0340566
0.0349648
0.0356962
0.0362065
0.036535
0.0367295
0.0368307
0.0368708
0.0368753
0.0368699
0.0368643
0.0269624
0.026958
0.0269513
0.0269596
0.0270016
0.0270979
0.0272759
0.0275698
0.0280153
0.0286355
0.029308
0.0298479
0.0302227
0.0304627
0.0306032
0.0306749
0.0307018
0.0307028
0.0306976
0.0306932
0.0219966
0.0219928
0.0219863
0.0219904
0.0220188
0.0220868
0.0222142
0.0224259
0.0227481
0.0231976
0.0236845
0.0240754
0.0243463
0.0245187
0.024618
0.0246671
0.0246835
0.0246817
0.0246765
0.024673
0.0169235
0.0169201
0.0169137
0.016914
0.0169315
0.0169769
0.0170642
0.0172107
0.0174348
0.0177487
0.0180888
0.0183609
0.0185484
0.0186664
0.0187332
0.018765
0.0187741
0.0187705
0.0187656
0.0187629
0.0117721
0.0117693
0.0117632
0.0117611
0.0117703
0.011798
0.0118533
0.0119475
0.0120923
0.0122941
0.0125129
0.0126871
0.0128062
0.0128807
0.0129222
0.0129406
0.0129439
0.0129391
0.0129345
0.0129325
0.00656433
0.00656227
0.00655707
0.00655378
0.00655732
0.00657117
0.00659983
0.00664903
0.00672491
0.00683212
0.00694767
0.00704039
0.00710377
0.00714286
0.00716369
0.00717168
0.00717123
0.007166
0.00716218
0.00716079
0.00131834
0.00131793
0.00131609
0.0013141
0.00131246
0.00131369
0.00131753
0.00132483
0.00133672
0.00135478
0.00137772
0.00139931
0.0014148
0.00142458
0.00143006
0.00143259
0.00143249
0.0014299
0.00142766
0.00142675
-0.902833
-0.627135
-0.326227
-0.0851191
0.109734
0.268067
0.403531
0.518601
0.57379
0.549845
-0.415152
-0.23395
-0.0480173
0.110901
0.24581
0.359649
0.453126
0.520596
0.555825
0.565367
-0.0924079
0.025141
0.147443
0.256184
0.350252
0.429412
0.492392
0.538161
0.569291
0.585126
0.126728
0.206009
0.291096
0.367595
0.434364
0.490685
0.536368
0.571784
0.598868
0.615787
0.288207
0.344968
0.404408
0.460608
0.510059
0.552696
0.588465
0.61737
0.640329
0.657314
0.414326
0.455901
0.501886
0.545635
0.585021
0.619771
0.649609
0.674085
0.693591
0.710468
0.520295
0.553772
0.593427
0.630453
0.664678
0.695298
0.721681
0.743281
0.759881
0.776752
0.617069
0.649254
0.686805
0.721884
0.75405
0.782811
0.80737
0.827029
0.841159
0.858151
0.717564
0.75262
0.791306
0.826746
0.858405
0.885889
0.908913
0.92696
0.939357
0.956783
0.835732
0.874494
0.914418
0.949785
0.980132
1.00572
1.02675
1.04313
1.05497
1.07309
0.982487
1.02181
1.05856
1.08991
1.11614
1.13875
1.15822
1.17406
1.18673
1.2048
1.15858
1.19081
1.21735
1.24014
1.26042
1.27942
1.29743
1.31412
1.32966
1.34778
1.34792
1.36535
1.38064
1.39711
1.41324
1.42792
1.44124
1.45532
1.47299
1.49322
1.5302
1.53974
1.5514
1.56233
1.57175
1.58151
1.59242
1.60384
1.61522
1.63059
1.73749
1.74119
1.72631
1.71166
1.70555
1.71125
1.72981
1.76019
1.79236
1.819
2.04398
1.9092
1.83269
1.7903
1.77275
1.77685
1.80423
1.86064
1.96338
2.18779
0.3082
0.306187
0.30176
0.293316
0.281338
0.269523
0.25965
0.252074
0.246698
0.243536
0.243028
0.245359
0.249953
0.256643
0.265513
0.276584
0.28887
0.299618
0.305611
0.308507
0.232105
0.23802
0.244556
0.249455
0.252316
0.252386
0.250038
0.246595
0.243357
0.241158
0.240818
0.242641
0.245769
0.249467
0.252706
0.254061
0.252631
0.248674
0.243113
0.236348
0.223375
0.225692
0.229501
0.233043
0.235601
0.237485
0.2386
0.238656
0.23791
0.237157
0.237158
0.238078
0.239302
0.239983
0.239569
0.238155
0.236045
0.233087
0.229275
0.226081
0.217509
0.218479
0.221025
0.224474
0.227397
0.229448
0.230822
0.231721
0.232225
0.232456
0.232721
0.233062
0.233146
0.232754
0.231851
0.230319
0.227942
0.224723
0.221548
0.219864
0.214673
0.215001
0.216579
0.219098
0.221549
0.223862
0.225824
0.227229
0.228147
0.22875
0.229156
0.229334
0.229094
0.228314
0.226881
0.224894
0.222615
0.220178
0.217993
0.217177
0.213999
0.214137
0.214854
0.216082
0.217387
0.218771
0.220072
0.221347
0.222474
0.223342
0.223882
0.223971
0.223599
0.222844
0.221896
0.220748
0.219507
0.218335
0.21734
0.216994
0.212544
0.212606
0.212998
0.213781
0.214737
0.215727
0.216875
0.218048
0.21911
0.220024
0.220669
0.22087
0.220637
0.220059
0.219225
0.218506
0.21771
0.216933
0.216384
0.216216
0.210123
0.210148
0.210337
0.21077
0.211307
0.212028
0.212847
0.213753
0.214737
0.215695
0.216464
0.216835
0.216819
0.216576
0.216257
0.215707
0.215371
0.214989
0.214739
0.214674
0.207141
0.207152
0.20728
0.207598
0.208053
0.208611
0.209292
0.210097
0.21102
0.212016
0.21294
0.213539
0.213788
0.213806
0.213682
0.213479
0.213245
0.213008
0.212867
0.212833
0.2038
0.203805
0.20389
0.204109
0.204448
0.204905
0.205512
0.20629
0.207249
0.208361
0.20949
0.210346
0.210841
0.211084
0.211167
0.211155
0.211093
0.211014
0.210968
0.210956
0.20009
0.200095
0.200157
0.200334
0.20062
0.201039
0.201627
0.202425
0.203462
0.204744
0.206146
0.207309
0.208087
0.208567
0.208848
0.208996
0.209063
0.209084
0.209094
0.209095
0.195992
0.195992
0.196062
0.196226
0.196505
0.196932
0.19756
0.198444
0.199641
0.201179
0.20293
0.204465
0.205535
0.206267
0.206733
0.207023
0.207195
0.20729
0.207339
0.20735
0.191481
0.191478
0.191553
0.191733
0.192041
0.192521
0.193241
0.194277
0.195711
0.197595
0.199797
0.201771
0.203207
0.204204
0.204869
0.205298
0.205565
0.205723
0.205803
0.205822
0.186506
0.186502
0.186589
0.186801
0.187163
0.187736
0.188603
0.189864
0.191628
0.193973
0.196749
0.199274
0.201137
0.202438
0.20332
0.203898
0.204263
0.204483
0.204595
0.204622
0.180965
0.180959
0.181067
0.181327
0.181775
0.182483
0.183557
0.185127
0.187331
0.190277
0.193781
0.196986
0.199359
0.201031
0.202168
0.202917
0.203394
0.203681
0.203828
0.203863
0.174721
0.174713
0.17485
0.175179
0.175744
0.176637
0.177992
0.179974
0.182757
0.186477
0.190903
0.194954
0.197954
0.200074
0.201518
0.202471
0.203078
0.203445
0.203632
0.203677
0.167585
0.167574
0.167752
0.168175
0.168899
0.17004
0.171769
0.174292
0.177828
0.182541
0.188131
0.193235
0.197012
0.199679
0.201496
0.202695
0.20346
0.203923
0.204159
0.204215
0.1593
0.159286
0.159519
0.16007
0.161009
0.162482
0.164706
0.167941
0.172455
0.178439
0.185496
0.19191
0.196643
0.199981
0.202255
0.203756
0.204715
0.205297
0.205593
0.205661
0.149514
0.149496
0.149807
0.150535
0.151765
0.153682
0.156567
0.160745
0.166532
0.174141
0.18304
0.191075
0.196984
0.201147
0.203982
0.205855
0.207054
0.207783
0.208153
0.208238
0.137745
0.137725
0.138149
0.139126
0.140754
0.143276
0.147051
0.152489
0.159942
0.169626
0.180823
0.190852
0.1982
0.203371
0.206895
0.209227
0.210725
0.211642
0.212109
0.212213
0.123322
0.123304
0.1239
0.125236
0.127419
0.130787
0.135828
0.142952
0.152576
0.164897
0.178935
0.191388
0.200479
0.206879
0.211249
0.21415
0.216024
0.217182
0.217777
0.217906
0.105253
0.105244
0.10612
0.107995
0.111002
0.115621
0.122409
0.131865
0.144362
0.160009
0.177507
0.192857
0.204032
0.21192
0.217332
0.220943
0.223289
0.224755
0.225519
0.225687
0.0819888
0.0820144
0.0833718
0.0861144
0.0904433
0.0969963
0.106375
0.119039
0.135291
0.155077
0.176705
0.195444
0.209064
0.218736
0.225439
0.229957
0.232918
0.234782
0.235768
0.235994
0.0510117
0.0511523
0.0533997
0.0576856
0.0642967
0.073968
0.0872018
0.104326
0.125444
0.150272
0.176706
0.199301
0.215721
0.227498
0.235804
0.241524
0.24535
0.247797
0.249105
0.249407
0.0077988
0.00828112
0.0125583
0.0200928
0.0309439
0.0457766
0.0647497
0.0879253
0.115131
0.145878
0.177698
0.204526
0.224042
0.238233
0.248493
0.255814
0.260923
0.264366
0.266256
0.266652
-0.0560048
-0.0537745
-0.0438121
-0.0292701
-0.010385
0.0127004
0.0397441
0.0706056
0.104981
0.142317
0.179889
0.21114
0.233915
0.250727
0.263234
0.272562
0.279472
0.284452
0.287466
0.287868
-0.132556
-0.128584
-0.110229
-0.0841103
-0.0546025
-0.0219718
0.0138402
0.0528537
0.0948899
0.139505
0.183804
0.220635
0.247853
0.26848
0.284431
0.296959
0.306975
0.314796
0.318387
0.32005
-0.210966
-0.200038
-0.172483
-0.136361
-0.0973329
-0.0556204
-0.0112499
0.0358197
0.0854622
0.137335
0.188373
0.230764
0.26227
0.286436
0.305473
0.320772
0.333201
0.343201
0.349415
0.3522
-0.268878
-0.256863
-0.224435
-0.181808
-0.135483
-0.0863204
-0.0345208
0.0197935
0.0764384
0.135047
0.192237
0.239394
0.27421
0.300713
0.321351
0.337673
0.350697
0.360995
0.367609
0.370527
-0.315037
-0.302708
-0.266911
-0.219785
-0.168328
-0.113555
-0.055759
0.00475111
0.0675998
0.132253
0.194884
0.246083
0.283474
0.311553
0.33311
0.349929
0.363167
0.373515
0.380235
0.383028
-0.352619
-0.340451
-0.302708
-0.25221
-0.196759
-0.13752
-0.07486
-0.00915834
0.0591026
0.129246
0.196929
0.251802
0.291402
0.320746
0.342956
0.36004
0.373309
0.38357
0.390273
0.392955
-0.3849
-0.372933
-0.333783
-0.280754
-0.222145
-0.159239
-0.0924341
-0.0221701
0.0509677
0.126135
0.198486
0.256769
0.298422
0.328916
0.351703
0.369024
0.382343
0.392557
0.399301
0.401917
-0.413431
-0.401629
-0.361509
-0.306495
-0.245336
-0.179369
-0.109022
-0.034787
0.042723
0.122571
0.199465
0.261182
0.304936
0.336636
0.360056
0.37766
0.391067
0.401258
0.408042
0.410583
-0.439416
-0.427702
-0.386828
-0.330205
-0.266982
-0.198494
-0.125126
-0.0473474
0.0342044
0.118546
0.199966
0.265234
0.311243
0.344285
0.368441
0.386403
0.399951
0.410145
0.41697
0.419442
-0.463651
-0.451971
-0.410455
-0.352512
-0.287546
-0.216895
-0.140901
-0.0599732
0.0253029
0.113948
0.199927
0.268961
0.31748
0.352078
0.377127
0.395554
0.409305
0.419555
0.426358
0.428757
-0.486612
-0.474943
-0.432851
-0.37381
-0.307389
-0.234884
-0.156596
-0.0728651
0.0158386
0.108647
0.199263
0.272342
0.323694
0.360132
0.386284
0.405312
0.419348
0.429696
0.436509
0.438852
-0.508709
-0.49694
-0.454315
-0.394362
-0.326721
-0.252638
-0.172367
-0.0861324
0.0057315
0.102542
0.197869
0.275288
0.329849
0.36848
0.396003
0.415815
0.430253
0.440757
0.447581
0.449879
-0.530089
-0.518169
-0.475012
-0.414331
-0.345621
-0.270206
-0.188239
-0.0998133
-0.0050743
0.0955469
0.195617
0.277653
0.335835
0.377064
0.406304
0.427143
0.442128
0.452879
0.459718
0.461989
-0.55077
-0.538694
-0.49506
-0.433754
-0.364147
-0.28762
-0.204225
-0.113918
-0.0166016
0.0876037
0.192378
0.27927
0.341466
0.385754
0.417116
0.439296
0.455031
0.466127
0.473018
0.475305
-0.570858
-0.558548
-0.514566
-0.452651
-0.382285
-0.304865
-0.220299
-0.128407
-0.0288328
0.078697
0.188041
0.279939
0.346507
0.39432
0.428279
0.452175
0.468952
0.480578
0.487603
0.489786
-0.590247
-0.577787
-0.533433
-0.470964
-0.400002
-0.321871
-0.236386
-0.143216
-0.0417154
0.0688219
0.182555
0.279469
0.350671
0.402437
0.439541
0.465652
0.4838
0.496173
0.503421
0.50548
-0.608976
-0.596293
-0.551632
-0.48867
-0.417246
-0.338577
-0.252416
-0.15826
-0.0551684
0.0580239
0.17588
0.277692
0.353614
0.409726
0.45059
0.479571
0.4995
0.512765
0.520211
0.522101
-0.626861
-0.614075
-0.569064
-0.505715
-0.43395
-0.354897
-0.268299
-0.173442
-0.0691032
0.0463914
0.168005
0.274449
0.354995
0.415735
0.460951
0.493587
0.516004
0.530383
0.537873
0.539436
-0.644023
-0.631086
-0.585729
-0.522058
-0.45005
-0.370779
-0.283934
-0.188667
-0.083408
0.0340166
0.158989
0.26965
0.354559
0.41988
0.469879
0.507153
0.533248
0.549185
0.55614
0.55689
-0.660309
-0.64724
-0.601569
-0.537647
-0.465468
-0.386136
-0.299239
-0.203809
-0.0979686
0.0209963
0.148932
0.263346
0.352104
0.421467
0.476252
0.519193
0.550927
0.570261
0.575867
0.573729
-0.675782
-0.662541
-0.616546
-0.552423
-0.480175
-0.400905
-0.314131
-0.218783
-0.112658
0.007489
0.13796
0.255587
0.347566
0.420071
0.478856
0.527873
0.567492
0.594618
0.602121
0.590941
-0.690384
-0.677002
-0.630752
-0.566508
-0.49435
-0.415342
-0.32893
-0.234
-0.12798
-0.00707719
0.125511
0.245798
0.34029
0.415255
0.476333
0.530185