/*--------------------------------*- C++ -*----------------------------------*\
| =========                 |                                                 |
| \\      /  F ield         | OpenFOAM: The Open Source CFD Toolbox           |
|  \\    /   O peration     | Version:  4.0                                   |
|   \\  /    A nd           | Web:      www.OpenFOAM.org                      |
|    \\/     M anipulation  |                                                 |
\*---------------------------------------------------------------------------*/
FoamFile
{
    version     2.0;
    format      ascii;
    class       surfaceScalarField;
    location    "9";
    object      phi;
}
// * * * * * * * * * * * * * * * * * * * * * * * * * * * * * * * * * * * * * //

dimensions      [0 3 -1 0 0 0 0];

internalField   nonuniform List<scalar> 
17370
(
-0.0915701
0.0960654
0.284516
-0.0776932
0.0595607
0.364908
-0.0432054
0.0318183
0.427555
-0.0225607
0.0165199
0.505293
-0.0118834
0.00890893
0.602377
-0.00655377
0.00496328
0.720648
-0.00365693
0.00275264
0.863811
-0.00198173
0.00142362
1.03601
-0.000937721
0.000579137
1.24286
-0.000259623
-3.39662e-05
1.49148
0.000329236
-0.000660067
1.49152
0.00101628
-0.00149704
1.24317
0.00204948
-0.00281413
1.0364
0.00371459
-0.00501794
0.86421
0.00660542
-0.00895659
0.721409
0.0119261
-0.0165562
0.603845
0.0225907
-0.0318412
0.50869
0.0432221
-0.0595725
0.432519
0.0777026
-0.0960704
0.365143
0.0915781
0.197433
-0.127279
0.0883228
0.0389558
-0.364575
0.354335
-0.0711859
0.0814259
-0.446713
0.454648
-0.0788802
0.0709449
-0.521068
0.529525
-0.0627507
0.0542936
-0.612911
0.620796
-0.0466924
0.0388079
-0.72704
0.733377
-0.0322146
0.0258783
-0.867544
0.872045
-0.0209579
0.0164568
-1.03848
1.04158
-0.0130214
0.00992463
-1.24459
1.24684
-0.00754449
0.00529835
-1.49268
1.4946
-0.00344989
0.00152527
-1.49253
1.49431
0.000243319
-0.00202352
-1.24399
1.24581
0.00391933
-0.00574452
-1.03753
1.03989
0.00796577
-0.0103187
-0.866163
0.869562
0.0133836
-0.0167825
-0.724558
0.729448
0.0212469
-0.0261363
-0.608968
0.615537
0.0324444
-0.0390132
-0.515133
0.52271
0.0468714
-0.0544482
-0.439943
0.448106
0.0628766
-0.0710391
-0.374924
0.37747
0.0789294
-0.0814749
-0.257188
0.224935
0.0712231
-0.0389694
-0.0692951
0.0600174
0.00927766
-0.0502665
0.0567213
-0.375105
0.36865
-0.0558889
0.0522583
-0.454117
0.457748
-0.0472287
0.042957
-0.527895
0.532166
-0.0385679
0.0346347
-0.620814
0.624747
-0.030337
0.0263014
-0.734344
0.73838
-0.0219521
0.0181294
-0.873544
0.877367
-0.0142463
0.0109894
-1.04297
1.04622
-0.00774111
0.00499113
-1.24823
1.25098
-0.00216284
-0.000410371
-1.49647
1.49905
0.00296586
-0.0057711
-1.49694
1.49974
0.00847785
-0.0116652
-1.24967
1.25285
0.0148699
-0.0187002
-1.04525
1.04908
0.0224858
-0.0267928
-0.876762
0.881069
0.0307923
-0.0350447
-0.738878
0.74313
0.0389299
-0.0432734
-0.626275
0.630618
0.0475104
-0.0525072
-0.535372
0.540369
0.0561047
-0.0569015
-0.458409
0.459206
0.050399
-0.0308722
-0.337528
0.318001
0.00930045
-0.0692309
0.0599304
-0.0546771
0.0510444
0.00363279
-0.0299263
0.0391775
-0.360052
0.350801
-0.0420732
0.0411474
-0.459607
0.460533
-0.0381379
0.0351073
-0.535786
0.538817
-0.031729
0.0286984
-0.628097
0.631128
-0.0254698
0.0226728
-0.741607
0.744404
-0.0196926
0.0170323
-0.880556
0.883216
-0.0141054
0.0114207
-1.04925
1.05194
-0.00843918
0.00566182
-1.25384
1.25662
-0.00247323
-0.000660666
-1.50203
1.50517
0.0037757
-0.00691248
-1.50286
1.50599
0.00963483
-0.0125533
-1.256
1.25892
0.0151663
-0.0179981
-1.05244
1.05527
0.0205671
-0.0234523
-0.884504
0.887389
0.0261811
-0.0293508
-0.746618
0.749788
0.0322959
-0.0355934
-0.634457
0.637755
0.0385707
-0.0415261
-0.544313
0.547269
0.0423972
-0.0394279
-0.457809
0.45484
0.0300943
-0.0145316
-0.300071
0.284509
0.00365966
-0.0545657
0.0509061
-0.0484945
0.0469534
0.00154115
-0.0153369
0.0231799
-0.341795
0.333952
-0.0278628
0.0289053
-0.460543
0.459501
-0.0281875
0.0267099
-0.541217
0.542695
-0.0250081
0.0233927
-0.633545
0.635161
-0.0215857
0.0197883
-0.746852
0.748649
-0.0176166
0.0154791
-0.885623
0.88776
-0.0129962
0.0106089
-1.05442
1.05681
-0.00787597
0.00524699
-1.25926
1.26189
-0.0021806
-0.000839516
-1.50818
1.5112
0.00383123
-0.00683575
-1.509
1.512
0.00939362
-0.0120312
-1.26164
1.26428
0.0143236
-0.0167007
-1.05784
1.06022
0.0187376
-0.0207953
-0.889943
0.892001
0.0225068
-0.0242605
-0.752363
0.754117
0.0257948
-0.0273752
-0.640344
0.641924
0.0287618
-0.029382
-0.549233
0.549853
0.0282527
-0.0234668
-0.450698
0.445912
0.0155278
-0.0063575
-0.271911
0.262741
0.00157301
-0.04833
0.046757
-0.0462151
0.0458883
0.00032675
-0.00595916
0.0110259
-0.327628
0.322561
-0.015845
0.0185831
-0.457542
0.454804
-0.0201135
0.0205443
-0.543116
0.542685
-0.020688
0.020475
-0.636004
0.636217
-0.0196973
0.0186672
-0.74987
0.7509
-0.0172244
0.0155985
-0.889548
0.891174
-0.0134679
0.011211
-1.0591
1.06136
-0.00840136
0.00556247
-1.26461
1.26745
-0.00220287
-0.00107792
-1.51435
1.51763
0.00434325
-0.00763793
-1.51514
1.51843
0.0103756
-0.0130482
-1.26691
1.26958
0.0151771
-0.0171645
-1.06233
1.06432
0.0186671
-0.01999
-0.893503
0.894826
0.0209279
-0.0215605
-0.755183
0.755816
0.021588
-0.0213453
-0.642446
0.642203
0.0208182
-0.0191726
-0.54926
0.547614
0.0163273
-0.0113829
-0.440965
0.436021
0.00619863
-0.00200298
-0.256565
0.25237
0.000366919
-0.0459808
0.0456139
-0.0457219
0.0456563
6.55979e-05
-0.00268175
0.00605905
-0.318411
0.315034
-0.01066
0.0145584
-0.451366
0.447468
-0.0178644
0.0198632
-0.541488
0.539489
-0.0208214
0.0209932
-0.636062
0.635891
-0.0207292
0.0199459
-0.751855
0.752638
-0.0185583
0.0168563
-0.89287
0.894572
-0.0145334
0.0120545
-1.06371
1.06619
-0.0089675
0.00584612
-1.27043
1.27355
-0.00211306
-0.00156472
-1.52109
1.52477
0.00521081
-0.00883446
-1.52189
1.52552
0.0117943
-0.014671
-1.27235
1.27523
0.0169495
-0.0190452
-1.06638
1.06848
0.0205409
-0.021729
-0.896169
0.897357
0.0223117
-0.0223779
-0.755908
0.755974
0.0220461
-0.0209092
-0.641623
0.640486
0.0187627
-0.0153081
-0.544968
0.541513
0.0112686
-0.00650562
-0.431088
0.426325
0.0029801
-0.000815202
-0.249376
0.247211
0.000113858
-0.0454048
0.0452909
-0.0456526
0.0456593
-6.66358e-06
-0.00122367
0.00330322
-0.31235
0.310271
-0.00686479
0.0105783
-0.443478
0.439764
-0.0143048
0.0170284
-0.536957
0.534233
-0.0189743
0.0198227
-0.635481
0.634633
-0.0198573
0.0192803
-0.753247
0.753824
-0.0180178
0.0163997
-0.89628
0.897898
-0.014166
0.0117387
-1.06871
1.07114
-0.00869008
0.00556512
-1.27674
1.27986
-0.00173584
-0.00210054
-1.5286
1.53244
0.00588061
-0.00956103
-1.52924
1.53292
0.0125263
-0.0153514
-1.27814
1.28096
0.0175156
-0.0194517
-1.07055
1.07249
0.0207951
-0.0217157
-0.898331
0.899252
0.0219983
-0.0217563
-0.756031
0.755789
0.020692
-0.0184997
-0.63871
0.636518
0.0155507
-0.0115891
-0.537599
0.533637
0.00766561
-0.00388021
-0.421956
0.418171
0.00160503
-0.000416352
-0.245633
0.244444
5.5738e-05
-0.045232
0.0451762
-0.0456631
0.0456789
-1.58378e-05
-0.000523378
0.00161689
-0.308723
0.307629
-0.00374233
0.00623784
-0.436607
0.434111
-0.00904323
0.0112758
-0.531662
0.529429
-0.0130931
0.0141711
-0.633571
0.632493
-0.0146829
0.0145876
-0.754202
0.754297
-0.0139239
0.0128497
-0.899264
0.900338
-0.0111827
0.00925256
-1.07335
1.07528
-0.00671388
0.00403531
-1.2828
1.28548
-0.000688335
-0.00269162
-1.53612
1.5395
0.00600183
-0.00916639
-1.53641
1.53957
0.0116449
-0.0139052
-1.28356
1.28582
0.0155085
-0.0167868
-1.07414
1.07542
0.0175076
-0.0177978
-0.899953
0.900243
0.0175622
-0.0166576
-0.755138
0.754233
0.0152529
-0.0130922
-0.634247
0.632086
0.0105623
-0.00745193
-0.52999
0.52688
0.00469552
-0.00230024
-0.415081
0.412686
0.000976048
-0.00029359
-0.243537
0.242854
5.8223e-05
-0.0451126
0.0450543
-0.045713
0.0457583
-4.5292e-05
-5.20995e-05
0.000504588
-0.306903
0.30645
-0.00151778
0.00282626
-0.432257
0.430948
-0.00443497
0.0058232
-0.527616
0.526228
-0.00709716
0.0079617
-0.631484
0.630619
-0.00853799
0.00871074
-0.754207
0.754034
-0.00849392
0.00792165
-0.901133
0.901705
-0.00687905
0.00555655
-1.0769
1.07822
-0.00371016
0.00169142
-1.28784
1.28986
0.000841892
-0.00338703
-1.54248
1.54502
0.0058493
-0.00814138
-1.54232
1.54461
0.00983495
-0.0112667
-1.28768
1.28911
0.0121822
-0.0127357
-1.07631
1.07686
0.0128528
-0.0125743
-0.900199
0.89992
0.0119621
-0.0109225
-0.753213
0.752173
0.00966004
-0.00798003
-0.630135
0.628455
0.006246
-0.00428434
-0.524366
0.522404
0.00267162
-0.00133839
-0.410889
0.409556
0.00060599
-0.000203966
-0.242341
0.241939
4.59075e-05
-0.0450056
0.0449597
-0.0458127
0.0458767
-6.39698e-05
0.000201964
-9.9294e-05
-0.30619
0.306087
-0.000287876
0.000852406
-0.430066
0.429502
-0.00160119
0.00229185
-0.52522
0.52453
-0.00297121
0.00346468
-0.629937
0.629444
-0.0038236
0.00395714
-0.753857
0.753724
-0.00385773
0.00352148
-0.902128
0.902464
-0.0028601
0.00198173
-1.07929
1.08017
-0.000714578
-0.000699176
-1.29156
1.29297
0.00245978
-0.00420537
-1.54715
1.54889
0.00585634
-0.00731355
-1.54647
1.54792
0.00831372
-0.00903337
-1.29015
1.29087
0.0093684
-0.00942482
-1.07714
1.0772
0.00919705
-0.00868714
-0.899496
0.898986
0.00801436
-0.00709173
-0.751177
0.750255
0.00611597
-0.00494848
-0.627049
0.625881
0.00384298
-0.00266992
-0.520893
0.51972
0.00173848
-0.000962085
-0.408555
0.407778
0.000499805
-0.000200429
-0.241603
0.241304
5.43752e-05
-0.0449107
0.0448563
-0.0459499
0.0460307
-8.08034e-05
0.000392375
-0.000464307
-0.30609
0.306162
0.000425295
-0.000271787
-0.429171
0.429018
2.65923e-05
0.000211017
-0.524092
0.523855
-0.00044446
0.000602722
-0.629127
0.628969
-0.000688444
0.000664539
-0.753661
0.753685
-0.000499498
0.000200338
-0.902763
0.903062
0.000314085
-0.000961608
-1.08091
1.08156
0.00186824
-0.00285672
-1.29414
1.29513
0.00406053
-0.00521312
-1.55031
1.55147
0.0062427
-0.00707284
-1.54903
1.54986
0.00752666
-0.00773088
-1.29132
1.29153
0.00773729
-0.0075054
-1.07709
1.07686
0.00711874
-0.00654084
-0.898431
0.897854
0.00590669
-0.00513348
-0.749411
0.748638
0.00438495
-0.00354957
-0.624905
0.624069
0.00280086
-0.00203175
-0.518787
0.518018
0.00141875
-0.000878176
-0.407148
0.406607
0.000512484
-0.000230642
-0.24102
0.240739
6.90725e-05
-0.0447953
0.0447262
-0.0461206
0.0462202
-9.95969e-05
0.000545335
-0.000757909
-0.306309
0.306521
0.000911528
-0.000997783
-0.428998
0.429084
0.00105651
-0.00110828
-0.523777
0.523829
0.00118455
-0.00128728
-0.62895
0.629053
0.0014503
-0.00165854
-0.753802
0.75401
0.00196727
-0.00233581
-0.903387
0.903756
0.00284695
-0.00341572
-1.08215
1.08272
0.00414695
-0.00489255
-1.29598
1.29673
0.00574748
-0.00650541
-1.5524
1.55316
0.00710726
-0.00750026
-1.55046
1.55086
0.00763089
-0.00754834
-1.29155
1.29147
0.00727444
-0.00684287
-1.07651
1.07608
0.00634713
-0.005725
-0.897255
0.896633
0.00511293
-0.00441948
-0.747916
0.747222
0.00378457
-0.00310517
-0.62333
0.622651
0.00251335
-0.00191036
-0.517354
0.516751
0.00141662
-0.000948708
-0.406117
0.405649
0.000593095
-0.000283509
-0.240447
0.240137
8.9066e-05
-0.0446477
0.0445587
-0.0463326
0.0464594
-0.00012683
0.000727262
-0.00105125
-0.306789
0.307113
0.00136565
-0.00162031
-0.429259
0.429513
0.00188712
-0.00214205
-0.523988
0.524243
0.00244732
-0.00275714
-0.629263
0.629573
0.00313668
-0.00352582
-0.754309
0.754698
0.00400463
-0.00449369
-0.90418
0.904669
0.00508775
-0.00567827
-1.08329
1.08388
0.00636434
-0.00699987
-1.2974
1.29804
0.00765772
-0.00815978
-1.55377
1.55428
0.00846576
-0.00853397
-1.55107
1.55114
0.00839207
-0.00806577
-1.29127
1.29095
0.00763258
-0.00705534
-1.07558
1.075
0.00646473
-0.00578059
-0.895984
0.8953
0.00514302
-0.00444966
-0.746538
0.745845
0.00383416
-0.00318985
-0.622001
0.621357
0.00263537
-0.00206893
-0.516178
0.515612
0.0015917
-0.00111283
-0.405183
0.404705
0.000719924
-0.000353925
-0.239803
0.239437
0.000113572
-0.044458
0.0443444
-0.0466025
0.0467633
-0.000160795
0.000942458
-0.00138585
-0.307495
0.307938
0.0018479
-0.00225319
-0.429843
0.430249
0.00270034
-0.0031313
-0.524587
0.525018
0.003639
-0.00413841
-0.629978
0.630477
0.0047263
-0.00530114
-0.755179
0.755754
0.00597097
-0.00661535
-0.905231
0.905876
0.00734836
-0.00802769
-1.08451
1.08519
0.00875778
-0.00937568
-1.29866
1.29927
0.00994283
-0.0102896
-1.55469
1.55504
0.0103899
-0.010222
-1.55108
1.55091
0.0098659
-0.00931453
-1.2905
1.28995
0.0087101
-0.00797006
-1.07435
1.07361
0.00725755
-0.00646348
-0.894567
0.893773
0.00574505
-0.00498075
-0.745124
0.74436
0.00431305
-0.0036217
-0.620698
0.620006
0.00302963
-0.00242223
-0.515033
0.514425
0.00190017
-0.00135739
-0.4042
0.403657
0.000892581
-0.000444459
-0.239033
0.238585
0.000143932
-0.0442164
0.0440725
-0.0469455
0.0471507
-0.000205107
0.00121368
-0.00179761
-0.308448
0.309032
0.00242294
-0.00298654
-0.43073
0.431293
0.00361845
-0.00422933
-0.525536
0.526147
0.00494483
-0.00564235
-0.631073
0.631771
0.00645314
-0.00723313
-0.756428
0.757208
0.00812367
-0.00895898
-0.906611
0.907446
0.00988003
-0.0107018
-1.08593
1.08675
0.0115431
-0.0122096
-1.29991
1.30058
0.0127588
-0.0130132
-1.55533
1.55559
0.0129571
-0.0125831
-1.55064
1.55027
0.0120263
-0.0112506
-1.28929
1.28852
0.0104488
-0.0095105
-1.07277
1.07183
0.00863228
-0.00767351
-0.892904
0.891945
0.00681936
-0.00592068
-0.743536
0.742638
0.00514176
-0.00433946
-0.619267
0.618465
0.00365377
-0.00294832
-0.513776
0.51307
0.002335
-0.00168503
-0.403066
0.402416
0.00111622
-0.000558817
-0.238086
0.237529
0.000181589
-0.0439108
0.0437292
-0.0473851
0.0476483
-0.00026325
0.00156331
-0.00232239
-0.309697
0.310457
0.00314466
-0.00389394
-0.43194
0.43269
0.00473847
-0.00555492
-0.526854
0.52767
0.00650746
-0.00743206
-0.632578
0.633503
0.00850079
-0.00952197
-0.758105
0.759126
0.0106773
-0.0117484
-0.908394
0.909465
0.012911
-0.0139271
-1.08767
1.08868
0.014938
-0.015705
-1.30129
1.30205
0.0162867
-0.0164842
-1.55581
1.55601
0.0162906
-0.0157081
-1.54979
1.54921
0.0149337
-0.0139049
-1.28762
1.28659
0.0128685
-0.0116802
-1.07078
1.06959
0.0105837
-0.00939942
-0.890881
0.889697
0.00835271
-0.00725764
-0.741648
0.740553
0.00631221
-0.0053407
-0.617586
0.616615
0.00451097
-0.00365565
-0.512298
0.511442
0.00290758
-0.00210733
-0.401697
0.400897
0.00140002
-0.000702126
-0.236905
0.236207
0.000228335
-0.0435257
0.0432974
-0.0479517
0.0482924
-0.000340687
0.00202157
-0.00300609
-0.311317
0.312302
0.00407834
-0.00505915
-0.433535
0.434516
0.00616349
-0.00722819
-0.528601
0.529665
0.00846482
-0.00966192
-0.634564
0.635761
0.011042
-0.0123572
-0.760293
0.761608
0.0138392
-0.0152047
-0.910675
0.912041
0.0166736
-0.0179411
-1.08981
1.09108
0.0191788
-0.0200907
-1.30289
1.3038
0.0207403
-0.020896
-1.55618
1.55634
0.020559
-0.0197412
-1.54851
1.5477
0.0187092
-0.0173741
-1.28542
1.28408
0.0160485
-0.0145444
-1.06825
1.06675
0.0131675
-0.011689
-0.888372
0.886894
0.0103877
-0.00903013
-0.739334
0.737976
0.00785997
-0.00665827
-0.615538
0.614336
0.00563153
-0.00457155
-0.510496
0.509436
0.0036418
-0.00264338
-0.400006
0.399008
0.00175765
-0.000881615
-0.235426
0.23455
0.00028662
-0.0430423
0.0427557
-0.0486865
0.0491334
-0.000446947
0.00263456
-0.00391566
-0.313412
0.314693
0.00531319
-0.00658805
-0.435607
0.436882
0.00801274
-0.00937888
-0.530879
0.532246
0.0109584
-0.0124873
-0.637143
0.638672
0.0142517
-0.0159349
-0.76311
0.764794
0.0178292
-0.0195682
-0.913576
0.915315
0.0214257
-0.0230123
-1.09249
1.09408
0.0245386
-0.0256367
-1.30479
1.30589
0.0263781
-0.0264893
-1.55647
1.55658
0.0259815
-0.0248775
-1.54674
1.54564
0.0235278
-0.0218112
-1.28256
1.28085
0.0201237
-0.0182219
-1.06505
1.06315
0.0164903
-0.0146383
-0.885231
0.883379
0.0130125
-0.011319
-0.736455
0.734761
0.00985961
-0.00835924
-0.612998
0.611498
0.00707472
-0.00574542
-0.508264
0.506934
0.00457742
-0.00332215
-0.397897
0.396642
0.00220879
-0.00110771
-0.233571
0.23247
0.000360292
-0.0424376
0.0420773
-0.0496456
0.0502429
-0.000597243
0.00347382
-0.0051501
-0.316126
0.317802
0.00696916
-0.00860789
-0.438295
0.439934
0.0104137
-0.0121356
-0.533843
0.535565
0.0141263
-0.0160659
-0.640474
0.642413
0.0183196
-0.0204793
-0.766715
0.768875
0.0229094
-0.0251307
-0.917246
0.919467
0.0274839
-0.0294711
-1.09581
1.0978
0.0313535
-0.0326755
-1.30707
1.30839
0.0335198
-0.0335648
-1.55665
1.5567
0.0328355
-0.0313693
-1.54436
1.54289
0.0296204
-0.0274253
-1.2789
1.2767
0.0252848
-0.0228855
-1.061
1.0586
0.0207106
-0.0183924
-0.881283
0.878965
0.0163628
-0.0142511
-0.732849
0.730737
0.0124303
-0.0105535
-0.609825
0.607948
0.00893958
-0.00726079
-0.505477
0.503798
0.00578121
-0.00419121
-0.395256
0.393666
0.00278551
-0.00139766
-0.231244
0.229856
0.00045607
-0.0416841
0.0412281
-0.0509121
0.0517219
-0.000809778
0.00463321
-0.00683503
-0.319661
0.321863
0.00918849
-0.0112638
-0.441801
0.443876
0.0135159
-0.0156621
-0.5377
0.539846
0.0181692
-0.0206488
-0.644761
0.64724
0.0235655
-0.0263647
-0.771305
0.774105
0.0294937
-0.0323271
-0.921865
0.924698
0.0352967
-0.0377685
-1.09992
1.10239
0.0400665
-0.0416344
-1.30978
1.31134
0.0425668
-0.0424949
-1.55666
1.55659
0.0414638
-0.0395296
-1.54119
1.53925
0.037276
-0.0344821
-1.27421
1.27142
0.0317774
-0.0287608
-1.05588
1.05286
0.0260378
-0.0231462
-0.876316
0.873425
0.0206228
-0.0180029
-0.72832
0.7257
0.0157431
-0.0134068
-0.605845
0.603509
0.0113832
-0.00925755
-0.501988
0.499862
0.00736877
-0.00533279
-0.391949
0.389913
0.0035415
-0.00177901
-0.22833
0.226567
0.00058434
-0.0407494
0.0401651
-0.0526145
0.0537247
-0.00111025
0.00625711
-0.00917099
-0.324307
0.32722
0.0122209
-0.0148479
-0.446386
0.449013
0.0176666
-0.0203694
-0.542713
0.545416
0.0235845
-0.0268101
-0.650263
0.653488
0.0306202
-0.0342584
-0.777132
0.78077
0.0382779
-0.0418582
-0.927656
0.931237
0.0455453
-0.0485545
-1.10495
1.10796
0.0512832
-0.0530727
-1.31291
1.3147
0.0540228
-0.0537328
-1.55635
1.55606
0.0522757
-0.0497299
-1.53699
1.53445
0.0468394
-0.0433007
-1.26824
1.2647
0.0399002
-0.0361248
-1.04943
1.04565
0.0327289
-0.0291358
-0.870082
0.866489
0.0260126
-0.0227822
-0.722636
0.719406
0.020001
-0.0171219
-0.600846
0.597967
0.0146088
-0.0119317
-0.497609
0.494932
0.00951351
-0.006876
-0.387809
0.385172
0.00455873
-0.00228829
-0.224689
0.222418
0.000755748
-0.0395918
0.0388361
-0.0549492
0.0565196
-0.00157047
0.00870402
-0.0126398
-0.330461
0.334397
0.0166412
-0.0200057
-0.452408
0.455772
0.0235879
-0.0270725
-0.549227
0.552712
0.0312931
-0.0355456
-0.657327
0.661579
0.0405207
-0.0451804
-0.784533
0.789193
0.0502306
-0.0546342
-0.934862
0.939266
0.0590716
-0.0626051
-1.111
1.11453
0.0657029
-0.0676169
-1.31642
1.31833
0.0684363
-0.0677593
-1.5555
1.55483
0.0656968
-0.0623539
-1.53147
1.52813
0.0586661
-0.0542138
-1.26068
1.25623
0.0499677
-0.0452721
-1.04136
1.03666
0.0410562
-0.0366034
-0.862299
0.857846
0.0327431
-0.0287666
-0.715528
0.711551
0.0253565
-0.0218356
-0.59457
0.591049
0.0187495
-0.0154217
-0.492098
0.488771
0.0123532
-0.00893972
-0.382612
0.379198
0.005915
-0.00295304
-0.220137
0.217175
0.000971361
-0.0381507
0.0371794
-0.0582289
0.0606028
-0.00237393
0.0127706
-0.0181852
-0.338751
0.344166
0.0234214
-0.0277334
-0.460429
0.464741
0.0323434
-0.0369228
-0.557763
0.562342
0.0425224
-0.0480963
-0.66643
0.672004
0.0544654
-0.0602659
-0.793889
0.79969
0.0663975
-0.0716189
-0.943663
0.948884
0.0767518
-0.080711
-1.11801
1.12197
0.0840185
-0.0858685
-1.32004
1.32189
0.0863187
-0.085014
-1.55374
1.55244
0.082115
-0.077754
-1.52424
1.51988
0.07309
-0.0675476
-1.2512
1.24566
0.062304
-0.0565249
-1.03135
1.02557
0.0513369
-0.04585
-0.852663
0.847176
0.0410862
-0.0361797
-0.706701
0.701795
0.0319796
-0.0276577
-0.58673
0.582408
0.0238705
-0.0197699
-0.485153
0.481053
0.015932
-0.0115893
-0.376023
0.371681
0.0076711
-0.00380366
-0.214394
0.210527
0.00123428
-0.0363364
0.0351021
-0.0630429
0.0669372
-0.00389434
0.0199065
-0.0274941
-0.350266
0.357853
0.0344184
-0.0400579
-0.471273
0.476913
0.0461478
-0.052272
-0.569
0.575124
0.0596557
-0.0667558
-0.678132
0.685233
0.0745653
-0.0814421
-0.805476
0.812353
0.0885046
-0.0943468
-0.954003
0.959845
0.0998911
-0.103967
-1.12568
1.12975
0.107107
-0.108534
-1.32332
1.32474
0.108222
-0.105953
-1.55052
1.54825
0.10193
-0.0963091
-1.51482
1.5092
0.0904975
-0.0837134
-1.23946
1.23268
0.0773549
-0.0703754
-1.01911
1.01213
0.0641101
-0.0574641
-0.84088
0.834235
0.0516676
-0.045671
-0.695847
0.68985
0.0405187
-0.0352101
-0.577
0.571691
0.0305582
-0.0255022
-0.476404
0.471348
0.0206803
-0.0151463
-0.367593
0.362059
0.0100537
-0.00496977
-0.207035
0.201951
0.00158899
-0.0340294
0.0324404
-0.07062
0.0778796
-0.00725954
0.0337975
-0.0448541
-0.367078
0.378134
0.054054
-0.0612964
-0.486118
0.493361
0.0692639
-0.0772527
-0.583676
0.591665
0.0865169
-0.0949646
-0.692731
0.701179
0.103856
-0.111388
-0.819083
0.826615
0.118837
-0.124727
-0.965332
0.971222
0.130014
-0.133575
-1.13326
1.13682
0.135882
-0.136301
-1.32543
1.32585
0.134667
-0.130977
-1.5451
1.54141
0.125473
-0.118338
-1.50271
1.49557
0.11122
-0.103093
-1.22515
1.21703
0.0955649
-0.0873598
-1.00444
0.996232
0.0800123
-0.0722143
-0.826751
0.818953
0.0653912
-0.0582944
-0.682709
0.675612
0.0521603
-0.04582
-0.565036
0.558696
0.0402594
-0.0341606
-0.465386
0.459287
0.0281272
-0.0207742
-0.356674
0.349321
0.0137154
-0.00660474
-0.197347
0.190236
0.00201487
-0.0310843
0.0290694
-0.0850313
0.0881146
-0.0030833
0.0217698
-0.0312112
-0.392408
0.401849
0.0398774
-0.0476437
-0.505985
0.513751
0.0569308
-0.0666747
-0.601599
0.611343
0.0773848
-0.0869485
-0.709343
0.718906
0.0975959
-0.107016
-0.833424
0.842844
0.116801
-0.125194
-0.976211
0.984605
0.133544
-0.140238
-1.13934
1.14604
0.146207
-0.150121
-1.32514
1.32906
0.15223
-0.151655
-1.53653
1.53596
0.148264
-0.142441
-1.48739
1.48157
0.13555
-0.126751
-1.20809
1.19929
0.118094
-0.107647
-0.987307
0.97686
0.098
-0.0873252
-0.810339
0.799664
0.0777191
-0.0674599
-0.667358
0.657099
0.0581484
-0.0485749
-0.550806
0.541233
0.04034
-0.0311176
-0.451755
0.442533
0.0225773
-0.0136892
-0.342118
0.333229
0.0070007
-0.00224612
-0.183715
0.17896
0.000179416
-0.027177
0.0269976
-0.0953246
0.0913287
0.0039959
-0.00193726
-0.00348892
-0.414469
0.419896
0.0108938
-0.0179482
-0.525565
0.532619
0.0268205
-0.0352717
-0.621268
0.629719
0.0448632
-0.0536098
-0.72847
0.737216
0.0629372
-0.0713946
-0.851842
0.860299
0.0801953
-0.087477
-0.992762
1.00004
0.0949467
-0.100648
-1.15262
1.15833
0.105733
-0.108852
-1.33281
1.33593
0.110018
-0.108838
-1.53478
1.5336
0.105029
-0.0989989
-1.4752
1.46917
0.091934
-0.0832106
-1.19024
1.18151
0.0748026
-0.0651733
-0.966382
0.956752
0.0561466
-0.0461237
-0.788467
0.778444
0.0371571
-0.0279555
-0.645267
0.636066
0.0201042
-0.0120223
-0.52932
0.521239
0.00511271
0.00152428
-0.430758
0.424121
-0.00626462
0.00912847
-0.322923
0.32006
-0.00876801
0.00586572
-0.172205
0.175107
-0.00251368
-0.0255983
0.028112
-0.0933941
0.0893739
0.00402024
-0.00915463
0.00692939
-0.429069
0.431294
-0.0020609
-0.00366379
-0.542174
0.547899
0.0108269
-0.0179601
-0.638365
0.645499
0.0260257
-0.0334347
-0.745487
0.752896
0.0415645
-0.0488066
-0.868128
0.87537
0.0561487
-0.0625978
-1.0072
1.01365
0.0690626
-0.0741236
-1.16372
1.16878
0.0782942
-0.0807156
-1.33857
1.34099
0.0816467
-0.0803381
-1.53202
1.53071
0.0767147
-0.0712428
-1.463
1.45753
0.0650358
-0.0576878
-1.17323
1.16589
0.0504134
-0.0424599
-0.947471
0.939518
0.0351582
-0.0272076
-0.769297
0.761346
0.0204299
-0.0135113
-0.626843
0.619924
0.00785745
-0.00211187
-0.511929
0.506184
-0.00229443
0.00613573
-0.415581
0.41174
-0.00850492
0.00896312
-0.313542
0.313084
-0.00714963
0.00412499
-0.172806
0.175831
-0.00164712
-0.0281591
0.0298063
-0.0901404
0.0864554
0.00368506
-0.0110764
0.0106976
-0.438199
0.438578
-0.00752032
0.00292976
-0.555112
0.559702
0.00312301
-0.00892813
-0.652366
0.658171
0.0156474
-0.021852
-0.760027
0.766231
0.0286393
-0.0347306
-0.882164
0.888255
0.0413068
-0.0467497
-1.01974
1.02518
0.0524414
-0.0565264
-1.17358
1.17766
0.0602446
-0.0624476
-1.34341
1.34562
0.0632275
-0.0618932
-1.52934
1.52801
0.0589068
-0.0543996
-1.45206
1.44756
0.0492535
-0.0429262
-1.15894
1.15261
0.0370455
-0.0307253
-0.931981
0.925661
0.0248562
-0.0188432
-0.754108
0.748095
0.0134347
-0.00818365
-0.61287
0.607619
0.0039409
-4.24745e-05
-0.499548
0.49565
-0.00274729
0.00505726
-0.405513
0.403203
-0.00637715
0.00614102
-0.308388
0.308624
-0.00472828
0.00270596
-0.173788
0.175811
-0.00111655
-0.0293049
0.0304214
-0.0872308
0.0842764
0.00295442
-0.010599
0.0113801
-0.443994
0.443213
-0.00890041
0.00532242
-0.565674
0.569252
-0.000520897
-0.00456692
-0.663962
0.66905
0.0100733
-0.015419
-0.772047
0.777392
0.0211801
-0.0263871
-0.893988
0.899194
0.0319745
-0.036809
-1.03053
1.03537
0.0416554
-0.0455013
-1.18172
1.18557
0.0488346
-0.0508534
-1.34767
1.34969
0.0516657
-0.0506212
-1.52682
1.52578
0.0481791
-0.0442679
-1.44285
1.43894
0.0399681
-0.0348245
-1.14675
1.14161
0.0299656
-0.0246593
-0.919581
0.914275
0.0199548
-0.0150594
-0.742322
0.737427
0.0108665
-0.006711
-0.602387
0.598232
0.00346307
-0.00053584
-0.490662
0.487735
-0.00166886
0.0033314
-0.398549
0.396886
-0.0041085
0.00421125
-0.304757
0.304654
-0.00338719
0.00189218
-0.17324
0.174735
-0.000843208
-0.0296302
0.0304734
-0.0850615
0.0826794
0.00238205
-0.00931103
0.0102282
-0.447664
0.446747
-0.00881122
0.0057957
-0.573769
0.576785
-0.00140672
-0.00280876
-0.673646
0.677862
0.00742915
-0.0119755
-0.782211
0.786758
0.0169916
-0.0215613
-0.904126
0.908695
0.0266099
-0.0308189
-1.03996
1.04417
0.0352096
-0.0387575
-1.18922
1.19277
0.0418555
-0.0438006
-1.35163
1.35357
0.0446835
-0.0442359
-1.5249
1.52445
0.0421847
-0.0389922
-1.43493
1.43174
0.0352735
-0.0308176
-1.13662
1.13217
0.026827
-0.0221422
-0.909178
0.904493
0.018052
-0.0139429
-0.732715
0.728606
0.0103601
-0.00679414
-0.594128
0.590562
0.00394855
-0.00120589
-0.483801
0.481058
-0.000548877
0.00198802
-0.393046
0.391607
-0.00295954
0.00317569
-0.301118
0.300901
-0.00256717
0.00151256
-0.171941
0.172996
-0.000670311
-0.0295296
0.0302
-0.0836015
0.0818083
0.00179322
-0.0075725
0.00858768
-0.450267
0.449252
-0.00734163
0.00501706
-0.580789
0.583113
-0.00117697
-0.00249807
-0.68186
0.685535
0.00678361
-0.0105985
-0.791105
0.79492
0.0149069
-0.0188862
-0.913291
0.91727
0.0236292
-0.0274292
-1.04844
1.05224
0.0313393
-0.0347517
-1.1962
1.19961
0.038095
-0.0400402
-1.35565
1.35759
0.041195
-0.0409494
-1.52381
1.52357
0.0395571
-0.0365959
-1.42855
1.42559
0.0334738
-0.0296494
-1.12775
1.12393
0.0259735
-0.0219275
-0.900019
0.895973
0.0181958
-0.0142911
-0.72438
0.720475
0.0112315
-0.00786082
-0.586846
0.583476
0.00508065
-0.00261943
-0.47761
0.475149
0.000766721
0.00085213
-0.388276
0.386657
-0.00176806
0.00214801
-0.297767
0.297387
-0.00182421
0.00112593
-0.170314
0.171013
-0.000529765
-0.0292113
0.029741
-0.0828562
0.0814648
0.0013914
-0.00596178
0.0069501
-0.452289
0.451301
-0.00575744
0.00358465
-0.586732
0.588905
-0.000222645
-0.00294448
-0.689033
0.6922
0.00650165
-0.0101038
-0.798815
0.802417
0.0139868
-0.0180333
-0.92111
0.925156
0.0220329
-0.0256322
-1.05616
1.05976
0.0296611
-0.0328655
-1.20296
1.20617
0.0358174
-0.0382541
-1.35953
1.36197
0.0397355
-0.0399254
-1.52351
1.5237
0.0388377
-0.0365389
-1.42294
1.42064
0.0337719
-0.0302652
-1.11989
1.11638
0.0269213
-0.0231022
-0.891866
0.888047
0.0195784
-0.0159991
-0.716642
0.713063
0.0127615
-0.0095475
-0.579931
0.576717
0.00691097
-0.00425404
-0.471977
0.46932
0.00223256
-0.00072702
-0.383473
0.381967
-0.00034801
0.00103793
-0.294316
0.293626
-0.00111241
0.000750371
-0.1684
0.168762
-0.000404356
-0.0287474
0.0291517
-0.0827264
0.0815516
0.00117482
-0.00440461
0.00506438
-0.454186
0.453526
-0.00409243
0.00203036
-0.591995
0.594057
0.000873032
-0.0038218
-0.695482
0.698431
0.00713848
-0.0103023
-0.805915
0.809079
0.0142381
-0.0174969
-0.928695
0.931953
0.0214238
-0.0248203
-1.06354
1.06693
0.0287261
-0.0321245
-1.20941
1.2128
0.0353847
-0.0376771
-1.36425
1.36654
0.0395849
-0.0402676
-1.52391
1.5246
0.039871
-0.0378843
-1.4183
1.41631
0.0354851
-0.0322325
-1.11298
1.10972
0.029083
-0.0253289
-0.884011
0.880257
0.0219641
-0.0182909
-0.709239
0.705566
0.0150523
-0.0117269
-0.57327
0.569944
0.00888967
-0.00630701
-0.46616
0.463577
0.00407431
-0.00231661
-0.378649
0.376891
0.000944691
-1.52982e-05
-0.29061
0.289681
-0.000346808
0.000454725
-0.166068
0.165961
-0.000288666
-0.0280923
0.028381
-0.0828603
0.081994
0.000866287
-0.00318342
0.00333363
-0.456302
0.456152
-0.00258284
0.000610093
-0.596416
0.598388
0.00187113
-0.00462033
-0.701264
0.704013
0.00770471
-0.0109295
-0.812182
0.815407
0.01423
-0.0175908
-0.935422
0.938783
0.0214401
-0.0246097
-1.07077
1.07394
0.0285778
-0.0319269
-1.21607
1.21942
0.03527
-0.0381141
-1.36931
1.37215
0.0405691
-0.0416185
-1.5254
1.52645
0.0415392
-0.0402578
-1.41454
1.41326
0.0383117
-0.0352491
-1.10633
1.10327
0.0321283
-0.0286052
-0.876378
0.872855
0.0248927
-0.021296
-0.701607
0.69801
0.0179716
-0.0144395
-0.566571
0.563039
0.0115888
-0.00868097
-0.460173
0.457266
0.00632046
-0.00410716
-0.373785
0.371572
0.0025729
-0.00133822
-0.286562
0.285328
0.000451624
8.8048e-05
-0.163302
0.162762
-0.000198068
-0.0272023
0.0274003
-0.0833528
0.0826002
0.000752583
-0.00228937
0.00243831
-0.458616
0.458467
-0.0012183
-0.000423582
-0.600755
0.602397
0.00295117
-0.00550565
-0.706426
0.708981
0.00838477
-0.0111841
-0.818371
0.82117
0.0145426
-0.0175547
-0.942151
0.945163
0.021302
-0.0248422
-1.07755
1.08109
0.0284415
-0.0320983
-1.22287
1.22652
0.035859
-0.0388394
-1.375
1.37798
0.0417375
-0.0436411
-1.52783
1.52974
0.0440875
-0.0434744
-1.41192
1.4113
0.041721
-0.03899
-1.10023
1.09749
0.0360774
-0.0324487
-0.868895
0.865266
0.0288189
-0.025015
-0.693865
0.690061
0.0215403
-0.0177422
-0.559273
0.555475
0.014567
-0.011473
-0.453835
0.450741
0.00869584
-0.00618485
-0.368328
0.365817
0.00427638
-0.00266061
-0.281983
0.280367
0.0014317
-0.00038355
-0.16006
0.159012
-4.82235e-05
-0.0261439
0.0261921
-0.0840127
0.0833932
0.000619491
-0.00139867
0.00134665
-0.461028
0.46108
-0.00036085
-0.00146559
-0.604544
0.60637
0.00381348
-0.00614501
-0.711232
0.713564
0.00903952
-0.0116443
-0.823973
0.826577
0.0148006
-0.0178746
-0.948618
0.951692
0.0214683
-0.0249241
-1.08449
1.08795
0.0286923
-0.0323606
-1.23015
1.23381
0.0363158
-0.0400606
-1.38136
1.3851
0.0434795
-0.0457962
-1.53175
1.53407