/*--------------------------------*- C++ -*----------------------------------*\
| =========                 |                                                 |
| \\      /  F ield         | OpenFOAM: The Open Source CFD Toolbox           |
|  \\    /   O peration     | Version:  4.0                                   |
|   \\  /    A nd           | Web:      www.OpenFOAM.org                      |
|    \\/     M anipulation  |                                                 |
\*---------------------------------------------------------------------------*/
FoamFile
{
    version     2.0;
    format      ascii;
    class       volScalarField;
    location    "7";
    object      p;
}
// * * * * * * * * * * * * * * * * * * * * * * * * * * * * * * * * * * * * * //

dimensions      [0 2 -2 0 0 0 0];

internalField   nonuniform List<scalar> 
8800
(
0.415983
0.368378
0.329974
0.301343
0.280939
0.266621
0.25653
0.249481
0.244951
0.242955
0.243887
0.247519
0.253502
0.262124
0.274239
0.291371
0.315665
0.349255
0.391465
0.450111
0.246475
0.254261
0.262456
0.266215
0.265232
0.260725
0.254807
0.249257
0.244925
0.242215
0.241755
0.243853
0.247709
0.25293
0.25896
0.26454
0.267525
0.266301
0.260158
0.251002
0.224451
0.230954
0.235721
0.239387
0.242055
0.243276
0.242781
0.241191
0.239499
0.23864
0.239235
0.240987
0.243039
0.244403
0.244207
0.242265
0.239167
0.23494
0.229831
0.225973
0.218669
0.221558
0.225754
0.22939
0.231799
0.233352
0.234264
0.234577
0.234459
0.234394
0.234757
0.235349
0.235612
0.235229
0.234168
0.232348
0.229407
0.225323
0.22172
0.220422
0.218389
0.219419
0.221673
0.22411
0.226436
0.228382
0.229774
0.230595
0.23103
0.231303
0.231631
0.231803
0.231566
0.230733
0.229233
0.227192
0.224903
0.222485
0.220822
0.220454
0.217947
0.218311
0.219212
0.220303
0.221383
0.222441
0.223577
0.224532
0.225259
0.225792
0.226106
0.226107
0.225719
0.224987
0.224106
0.223193
0.222198
0.221197
0.220591
0.220458
0.216073
0.216246
0.216768
0.217525
0.218375
0.219319
0.220202
0.221039
0.221786
0.222418
0.222813
0.222876
0.222647
0.22221
0.221496
0.220783
0.22011
0.219509
0.219193
0.219137
0.213231
0.213308
0.21355
0.213942
0.214426
0.21502
0.215715
0.216478
0.217255
0.217982
0.218497
0.21869
0.218617
0.218377
0.218066
0.217743
0.217443
0.217192
0.217072
0.217046
0.209839
0.209889
0.210052
0.210325
0.210694
0.211168
0.211753
0.212445
0.213228
0.214056
0.214731
0.215114
0.215254
0.215235
0.215127
0.21498
0.21483
0.214705
0.214644
0.214627
0.206084
0.206113
0.206225
0.206421
0.20671
0.207115
0.207659
0.208359
0.20921
0.210182
0.211061
0.211652
0.211987
0.212146
0.212201
0.212199
0.212171
0.212138
0.212121
0.212111
0.202001
0.202026
0.202117
0.202285
0.202548
0.202937
0.203487
0.204235
0.2052
0.206371
0.207506
0.208343
0.208886
0.209225
0.209421
0.209528
0.209579
0.209601
0.209608
0.209601
0.197596
0.197618
0.197711
0.19788
0.198153
0.19857
0.199179
0.200035
0.20118
0.202621
0.204072
0.205188
0.205968
0.20648
0.206808
0.207007
0.207124
0.207186
0.207211
0.207206
0.192852
0.192874
0.192976
0.193166
0.193477
0.19396
0.194678
0.195703
0.197101
0.198897
0.200745
0.20221
0.20325
0.203953
0.204414
0.204705
0.204881
0.204979
0.20502
0.205016
0.187715
0.18774
0.18786
0.188087
0.188462
0.189047
0.189924
0.191188
0.192927
0.195186
0.197536
0.199418
0.200765
0.20169
0.202303
0.202694
0.202933
0.203068
0.203125
0.203121
0.182095
0.182125
0.182274
0.182556
0.183021
0.18375
0.184847
0.186431
0.18862
0.191472
0.194454
0.19685
0.198575
0.199764
0.200554
0.201061
0.201372
0.201549
0.201624
0.201619
0.175871
0.175909
0.176098
0.176454
0.177044
0.177967
0.179356
0.181363
0.184135
0.187748
0.191525
0.194561
0.196749
0.19826
0.199265
0.199911
0.200308
0.200534
0.20063
0.200624
0.168878
0.168926
0.169169
0.169627
0.170382
0.171564
0.173338
0.175897
0.179423
0.184005
0.188784
0.192619
0.19538
0.197286
0.198555
0.199371
0.199873
0.200158
0.200279
0.200271
0.160893
0.160956
0.161272
0.161865
0.162842
0.164367
0.166649
0.169928
0.174426
0.180244
0.186281
0.191111
0.194582
0.196976
0.19857
0.199594
0.200225
0.200584
0.200735
0.200725
0.151618
0.151702
0.152117
0.152894
0.154169
0.156152
0.159107
0.163329
0.169083
0.17647
0.184083
0.190147
0.194496
0.197493
0.199488
0.20077
0.201559
0.202008
0.202198
0.202184
0.140646
0.140762
0.141311
0.142341
0.144025
0.14663
0.150485
0.155948
0.163324
0.172698
0.182275
0.189862
0.195292
0.199032
0.201523
0.203125
0.204111
0.204671
0.204907
0.204889
0.127416
0.127578
0.128316
0.129703
0.131963
0.135431
0.140506
0.147617
0.157091
0.168969
0.180968
0.190416
0.197169
0.201825
0.204931
0.206931
0.208162
0.20886
0.209152
0.209131
0.111115
0.111344
0.112359
0.114279
0.117386
0.122081
0.128845
0.138162
0.150349
0.165353
0.180299
0.191995
0.200354
0.206136
0.21001
0.212513
0.214053
0.214921
0.215284
0.215258
0.0905068
0.0908335
0.0922901
0.0950659
0.0994713
0.10597
0.115121
0.127421
0.143102
0.161955
0.180427
0.194789
0.205076
0.212241
0.217087
0.220245
0.222196
0.223288
0.22374
0.223706
0.0636479
0.0641409
0.0663877
0.0706342
0.0771232
0.0863674
0.0989628
0.1153
0.135421
0.158921
0.181506
0.198961
0.211526
0.220387
0.226482
0.230535
0.233084
0.234524
0.235111
0.235056
0.0272175
0.0280987
0.0320413
0.0390671
0.049101
0.0626788
0.0802504
0.101937
0.127537
0.156464
0.183693
0.204621
0.219803
0.23071
0.238426
0.243745
0.247247
0.249311
0.250171
0.250084
-0.025425
-0.0228296
-0.0144848
-0.00172957
0.0146274
0.0349856
0.0594511
0.0878874
0.119931
0.154908
0.187149
0.211803
0.229862
0.243138
0.252884
0.25997
0.265002
0.268269
0.269789
0.26969
-0.105518
-0.0930187
-0.0737538
-0.0506364
-0.0246491
0.0047226
0.0375588
0.0737356
0.112909
0.154481
0.192189
0.22101
0.242437
0.258661
0.271148
0.280905
0.288584
0.294423
0.298112
0.298903
-0.190612
-0.163846
-0.13305
-0.0996137
-0.0639044
-0.0255741
0.0155754
0.0595465
0.106151
0.154971
0.19912
0.233142
0.258884
0.278908
0.294897
0.308002
0.318947
0.328507
0.336397
0.337561
-0.253525
-0.224579
-0.185894
-0.144258
-0.100226
-0.0538106
-0.00496751
0.0463074
0.0999069
0.155514
0.20553
0.243964
0.273019
0.295595
0.313528
0.328035
0.339924
0.349767
0.356589
0.357766
-0.303245
-0.272249
-0.229152
-0.182057
-0.132046
-0.0793252
-0.0240497
0.033628
0.0934975
0.155185
0.210297
0.252336
0.28379
0.307874
0.326672
0.341601
0.353649
0.363437
0.370305
0.371574
-0.342149
-0.31076
-0.264605
-0.213634
-0.159268
-0.101755
-0.0413618
0.0216694
0.0870456
0.154276
0.214073
0.259288
0.292702
0.317938
0.337341
0.35251
0.364555
0.374108
0.380802
0.382121
-0.374143
-0.342667
-0.294619
-0.240801
-0.183077
-0.12175
-0.0571151
0.0105112
0.0807573
0.15302
0.217149
0.265314
0.300546
0.326815
0.346741
0.362105
0.374151
0.383592
0.390125
0.391448
-0.40149
-0.370014
-0.320669
-0.26478
-0.204444
-0.140029
-0.0719064
-0.000386869
0.0741799
0.151159
0.219561
0.270735
0.307853
0.335221
0.355728
0.371345
0.383445
0.392815
0.399206
0.40053
-0.425737
-0.394193
-0.343886
-0.286424
-0.224081
-0.157231
-0.086208
-0.0113133
0.0671719
0.148688
0.221444
0.275845
0.315051
0.343677
0.364883
0.380832
0.393039
0.402394
0.408683
0.409997
-0.447862
-0.416165
-0.365098
-0.306369
-0.242413
-0.173592
-0.100204
-0.0224479
0.0595654
0.145478
0.222799
0.280776
0.322398
0.352533
0.374604
0.391004
0.403392
0.412752
0.418933
0.420238
-0.468583
-0.436587
-0.38485
-0.325095
-0.259854
-0.189459
-0.114152
-0.0339973
0.0511792
0.141377
0.223552
0.285574
0.330047
0.362018
0.385179
0.402163
0.414803
0.424182
0.430322
0.431685
-0.488004
-0.455741
-0.403421
-0.34285
-0.276584
-0.204969
-0.128172
-0.0460786
0.0418617
0.136231
0.223575
0.290204
0.338066
0.372286
0.396817
0.414563
0.427574
0.437119
0.443046
0.444503
-0.506426
-0.473822
-0.420981
-0.359779
-0.292711
-0.220193
-0.142315
-0.0587581
0.0314974
0.129854
0.222696
0.294553
0.346438
0.38341
0.409663
0.428386
0.441883
0.451601
0.457474
0.458907
-0.523905
-0.490985
-0.43767
-0.375906
-0.308266
-0.235147
-0.156593
-0.0720575
0.0200179
0.122083
0.220709
0.298458
0.355075
0.395389
0.423783
0.44376
0.457898
0.467857
0.473723
0.475076
-0.540435
-0.507263
-0.453521
-0.391254
-0.323225
-0.249782
-0.17095
-0.0859557
0.00737868
0.112779
0.217397
0.301713
0.363812
0.408136
0.439166
0.460724
0.475729
0.486054
0.491924
0.493114
-0.556049
-0.52254
-0.468453
-0.405825
-0.337557
-0.264043
-0.185302
-0.100383
-0.00641617
0.101825
0.212546
0.304073
0.372423
0.421445
0.455704
0.479252
0.495394
0.506258
0.512192
0.513104
-0.57085
-0.536876
-0.482468
-0.419573
-0.351198
-0.277849
-0.199558
-0.115234
-0.0213307
0.0891412
0.205978
0.3053
0.38061
0.435034
0.473186
0.499257
0.516784
0.528283
0.534322
0.534951
-0.584624
-0.550429
-0.495557
-0.432457
-0.364103
-0.291107
-0.213603
-0.130385
-0.0372623
0.0746905
0.197544
0.30516
0.388025
0.448511
0.491183
0.52048
0.53983
0.552083
0.558082
0.558336
-0.597436
-0.562936
-0.507722
-0.444451
-0.376219
-0.30375
-0.22731
-0.145698
-0.054099
0.0584724
0.18711
0.303443
0.394344
0.461204
0.509154
0.542508
0.564381
0.577398
0.582999
0.582713
-0.609375
-0.574452
-0.518952
-0.455549
-0.387509
-0.315701
-0.240574
-0.161015
-0.0716969
0.0405464
0.174574
0.300086
0.399156
0.47247
0.526122
0.564641
0.590481
0.604596
0.608412
0.607045
-0.620376
-0.585076
-0.529238
-0.465736
-0.397955
-0.326905
-0.253288
-0.176185
-0.089878
0.0209921
0.159933
0.29496
0.402434
0.481513
0.540356
0.585156
0.617546
0.635771
0.636231
0.630594
-0.63058
-0.594814
-0.53862
-0.47506
-0.407602
-0.337395
-0.26548
-0.191237
-0.10874
-0.000434422
0.142784
0.28795
0.404045
0.487569
0.550265
0.601118
0.642455
0.67299
0.677507
0.652531
-0.640023
-0.603672
-0.547176
-0.483665
-0.416633
-0.347383
-0.277427
-0.206593
-0.128986
-0.0249814
0.121809
0.278404
0.40377
0.490524
0.552949
0.606061
0.651259
0.681523
0.677903
0.645414
-0.648588
-0.611603
-0.554783
-0.491439
-0.42487
-0.35663
-0.288907
-0.221897
-0.150205
-0.0524768
0.096776
0.266155
0.402389
0.490983
0.544494
0.590485
0.623116
0.629583
0.564198
0.51589
-0.655679
-0.618429
-0.561174
-0.497857
-0.431894
-0.364851
-0.299711
-0.236973
-0.172261
-0.0833197
0.0670886
0.2508
0.399931
0.489824
0.527348
0.544795
0.557879
0.511757
0.428476
0.373142
-0.710091
-0.621444
-0.567343
-0.504008
-0.438857
-0.372995
-0.309871
-0.25197
-0.195378
-0.117826
0.0316429
0.232337
0.395423
0.48638
0.494707
0.477037
0.434128
0.35523
0.255905
0.200838
-0.641539
-0.627207
-0.573309
-0.512176
-0.447538
-0.383096
-0.323904
-0.273017
-0.231366
-0.175891
-0.0342604
0.199593
0.38949
0.458912
0.433527
0.278498
0.125644
0.0229031
-0.0778157
-0.0245449
-0.666083
-0.635347
-0.580296
-0.519022
-0.45442
-0.390869
-0.333515
-0.288224
-0.258368
-0.224307
-0.101475
0.152097
0.374769
0.421343
0.317784
0.086574
-0.118855
-0.263334
-0.406592
-0.310581
-0.680415
-0.645029
-0.588468
-0.52623
-0.461485
-0.398482
-0.342958
-0.303043
-0.28572
-0.274799
-0.170979
0.0979004
0.346196
0.380152
0.180531
-0.140029
-0.401791
-0.600244
-0.815476
-0.69727
-0.692913
-0.654246
-0.596176
-0.532672
-0.467535
-0.404945
-0.351377
-0.316981
-0.313353
-0.335491
-0.273143
0.0123629
0.302577
0.295839
-0.00760525
-0.394592
-0.736532
-1.0265
-1.3532
-1.28729
-0.702749
-0.662804
-0.603309
-0.538608
-0.472926
-0.410562
-0.358797
-0.329998
-0.341633
-0.405912
-0.414281
-0.131816
0.203068
0.139551
-0.229703
-0.657034
-1.08262
-1.47587
-1.939
-2.28754
-0.710944
-0.670326
-0.609898
-0.54418
-0.477785
-0.415313
-0.364903
-0.341155
-0.368542
-0.483989
-0.608285
-0.3627
0.0259637
-0.0808483
-0.473521
-0.884701
-1.35236
-1.77197
-1.96348
-2.32342
-0.718259
-0.677136
-0.616006
-0.549327
-0.482052
-0.419132
-0.369534
-0.350246
-0.393974
-0.572658
-0.872573
-0.727766
-0.266342
-0.38338
-0.730959
-1.06092
-1.44889
-1.78879
-1.86577
-1.9148
-0.725144
-0.683485
-0.621625
-0.553925
-0.485554
-0.421781
-0.372267
-0.356434
-0.41608
-0.669912
-1.21966
-1.24141
-0.682122
-0.755067
-1.00375
-1.18977
-1.43309
-1.77164
-1.82503
-1.76691
-0.731926
-0.689525
-0.626749
-0.557865
-0.488102
-0.422931
-0.372541
-0.358329
-0.431876
-0.762378
-1.62035
-1.84363
-1.1794
-1.15648
-1.29795
-1.34148
-1.29675
-1.44156
-1.54382
-1.52057
-0.738925
-0.695444
-0.631466
-0.561132
-0.489609
-0.422354
-0.369849
-0.354551
-0.436244
-0.831632
-1.95926
-2.36221
-1.62911
-1.52428
-1.64342
-1.55701
-1.11512
-1.14182
-1.4319
-1.53715
-0.746204
-0.701373
-0.635904
-0.563819
-0.490068
-0.420014
-0.363832
-0.344061
-0.423491
-0.844606
-2.11237
-2.59333
-1.86056
-1.81419
-2.14229
-2.4502
-2.32216
-2.23625
-2.15455
-2.15263
-0.753846
-0.707528
-0.640254
-0.566071
-0.489645
-0.415977
-0.354575
-0.326291
-0.389796
-0.775259
-1.95635
-2.35121
-1.75461
-1.91608
-2.66482
-3.94295
-4.32031
-3.97899
-3.48329
-3.2516
-0.762205
-0.71411
-0.644771
-0.568163
-0.488612
-0.410611
-0.342434
-0.301868
-0.336391
-0.621527
-1.47154
-1.64995
-1.24731
-1.54697
-2.53052
-4.1483
-4.59895
-4.03654
-3.41396
-3.14752
-0.7715
-0.721532
-0.649806
-0.57045
-0.487376
-0.40443
-0.328398
-0.272759
-0.269303
-0.41735
-0.827237
-0.768536
-0.462994
-0.591951
-1.06745
-1.70755
-1.97995
-1.75328
-1.51381
-1.41572
-0.782041
-0.730087
-0.655699
-0.573308
-0.486435
-0.398194
-0.313569
-0.241396
-0.198146
-0.215594
-0.257653
-0.0492805
0.18866
0.250283
0.187606
0.112601
0.126709
0.176259
0.207491
0.21464
-0.793902
-0.740086
-0.662715
-0.577076
-0.486149
-0.392398
-0.299187
-0.210936
-0.131927
-0.0550102
0.0888306
0.352654
0.553543
0.69884
0.784592
0.859821
0.929287
0.971813
0.986004
0.987013
-0.806968
-0.75115
-0.670806
-0.58166
-0.486694
-0.387607
-0.286223
-0.183534
-0.0765855
0.0565045
0.264064
0.522148
0.721389
0.882857
1.00196
1.09477
1.16601
1.21041
1.23052
1.23332
-0.8204
-0.762772
-0.679252
-0.586714
-0.487789
-0.383688
-0.275057
-0.160773
-0.034266
0.128168
0.348699
0.583168
0.771425
0.920484
1.03429
1.12073
1.18526
1.22949
1.25379
1.25863
-0.831249
-0.772669
-0.686876
-0.590984
-0.48848
-0.380073
-0.265583
-0.142815
-0.00408876
0.170899
0.385665
0.595026
0.76524
0.897877
0.998997
1.07563
1.1334
1.17544
1.20057
1.20595
-0.836859
-0.778363
-0.690955
-0.592546
-0.487186
-0.37552
-0.25697
-0.128842
0.0161144
0.193903
0.396189
0.582512
0.733713
0.85154
0.941856
1.0109
1.06374
1.1035
1.12649
1.13279
-0.834319
-0.776347
-0.688605
-0.588431
-0.481489
-0.368272
-0.247807
-0.117479
0.0289575
0.202729
0.390771
0.557169
0.691327
0.796567
0.878259
0.941628
0.990975
1.02864
1.05064
1.05714
-0.816432
-0.760955
-0.67534
-0.575388
-0.468777
-0.355953
-0.236221
-0.107207
0.0363175
0.202813
0.37485
0.523211
0.642293
0.736586
0.810874
0.869324
0.915529
0.950729
0.97221
0.979091
-0.77684
-0.726728
-0.646146
-0.548787
-0.445493
-0.336513
-0.220813
-0.0965041
0.0402794
0.194974
0.350477
0.481855
0.586802
0.670607
0.737684
0.79133
0.834276
0.867299
0.888307
0.895615
-0.711255
-0.669612
-0.5936
-0.504023
-0.408263
-0.306989
-0.199403
-0.0839959
0.0419185
0.181868
0.319158
0.433172
0.523602
0.595981
0.654537
0.702226
0.740567
0.770762
0.791776
0.798884
-0.609416
-0.579892
-0.514922
-0.437519
-0.354408
-0.265739
-0.170717
-0.0682795
0.0431341
0.16535
0.282715
0.378054
0.452401
0.510976
0.557657
0.595597
0.62661
0.650618
0.666252
0.670956
-0.458319
-0.443619
-0.401115
-0.345241
-0.282536
-0.212677
-0.135211
-0.0494144
0.0456563
0.150842
0.251696
0.332647
0.394567
0.442121
0.478713
0.506623
0.527768
0.544595
0.556721
0.559869
-0.298415
-0.29338
-0.271872
-0.240111
-0.20027
-0.1517
-0.0940184
-0.0265173
0.0511666
0.139085
0.224021
0.291882
0.343044
0.381132
0.408952
0.429047
0.443498
0.453033
0.458201
0.459278
-0.169202
-0.167211
-0.158587
-0.14315
-0.121209
-0.0911392
-0.0514527
-0.001343
0.059635
0.131115
0.201208
0.256948
0.298149
0.327939
0.349101
0.363481
0.372494
0.377806
0.380449
0.380787
-0.077417
-0.0777904
-0.0759821
-0.0699386
-0.0583081
-0.0400197
-0.0135666
0.0225116
0.0689853
0.125611
0.182271
0.227417
0.26043
0.283697
0.299275
0.309244
0.315393
0.318763
0.320058
0.320094
-0.0199287
-0.0207922
-0.0216818
-0.0201357
-0.0144074
-0.00300695
0.0152148
0.0414629
0.0767123
0.121039
0.166112
0.202001
0.227875
0.245769
0.257722
0.265282
0.269553
0.271564
0.272201
0.272184
0.0136904
0.0131332
0.0123833
0.013061
0.0163221
0.0234703
0.0359486
0.0550862
0.0817945
0.116243
0.151788
0.180196
0.200658
0.214716
0.223826
0.229333
0.232395
0.23384
0.234299
0.234293
0.0346202
0.0343587
0.0340234
0.0346338
0.0370427
0.0422028
0.0511701
0.0651864
0.0853265
0.111955
0.139809
0.162111
0.178034
0.188808
0.195748
0.199965
0.202293
0.203362
0.203704
0.203702
0.0483244
0.0482015
0.0480667
0.0485923
0.0503783
0.054168
0.0608474
0.0714004
0.0867164
0.107227
0.128896
0.146299
0.158725
0.167138
0.172532
0.175769
0.177539
0.178353
0.178617
0.178616
0.0569909
0.0569469
0.0569562
0.0574662
0.0589027
0.061796
0.0668242
0.0748018
0.0865009
0.102327
0.119169
0.132729
0.142395
0.148905
0.153059
0.155551
0.156914
0.15754
0.157744
0.157741
0.0621133
0.0621031
0.0621749
0.0626339
0.0637903
0.0660428
0.0699076
0.0760112
0.0849788
0.0971802
0.110231
0.120759
0.128262
0.133311
0.13653
0.138456
0.139506
0.139984
0.140138
0.140133
0.064625
0.0646288
0.064722
0.0651193
0.0660483
0.0678064
0.0707893
0.0754841
0.0823862
0.0918052
0.101913
0.11008
0.115899
0.119811
0.122299
0.123785
0.124591
0.124957
0.125072
0.125067
0.0651744
0.0651827
0.0652732
0.0656032
0.0663437
0.0677197
0.0700322
0.0736558
0.0789785
0.0862533
0.0940762
0.100403
0.10491
0.107937
0.10986
0.111005
0.111624
0.111901
0.111986
0.11198
0.0642128
0.0642214
0.0642998
0.0645663
0.0651508
0.0662244
0.0680181
0.0708195
0.0749305
0.0805524
0.0866036
0.0915001
0.0949871
0.0973264
0.0988103
0.0996918
0.100166
0.100376
0.100439
0.100433
0.0620798
0.0620875
0.0621518
0.0623631
0.0628203
0.0636557
0.0650464
0.0672138
0.0703904
0.0747343
0.0794132
0.0831993
0.0858945
0.0877016
0.0888463
0.089524
0.0898871
0.0900451
0.0900909
0.0900855
0.0590368
0.0590429
0.0590941
0.0592596
0.0596163
0.060265
0.0613419
0.0630173
0.0654712
0.068827
0.0724418
0.0753674
0.0774495
0.0788428
0.079723
0.080243
0.0805199
0.0806393
0.0806732
0.0806685
0.0552881
0.0552928
0.0553327
0.0554612
0.0557372
0.056239
0.0570714
0.0583658
0.0602607
0.0628511
0.0656414
0.067898
0.0695025
0.070576
0.0712536
0.0716524
0.0718632
0.071953
0.0719775
0.0719734
0.0509924
0.050996
0.0510266
0.0511254
0.0513382
0.0517253
0.0523671
0.0533646
0.0548248
0.0568207
0.0589705
0.0607088
0.0619435
0.0627682
0.0632883
0.0635941
0.0637545
0.0638221
0.06384
0.0638365
0.0462747
0.0462772
0.0463
0.0463753
0.046538
0.0468352
0.0473287
0.0480959
0.0492182
0.0507521
0.0524041
0.0537392
0.0546871
0.0553196
0.0557168
0.0559492
0.0560704
0.0561204
0.056133
0.0561299
0.0412303
0.041232
0.0412487
0.0413055
0.0414294
0.0416566
0.0420337
0.0426198
0.0434783
0.0446525
0.0459163
0.0469372
0.0476614
0.0481434
0.0484452
0.0486222
0.0487133
0.0487504
0.0487593
0.0487566
0.0359345
0.0359353
0.0359472
0.0359896
0.0360829
0.0362546
0.0365405
0.0369858
0.0376379
0.0385296
0.0394892
0.0402634
0.0408111
0.041175
0.0414029
0.0415364
0.0416042
0.0416309
0.0416368
0.0416347
0.0304477
0.0304479
0.0304561
0.0304871
0.0305562
0.0306839
0.030897
0.0312299
0.0317186
0.032387
0.0331062
0.0336861
0.0340967
0.0343695
0.0345394
0.0346374
0.0346867
0.0347053
0.0347088
0.0347072
0.0248176
0.0248174
0.0248223
0.0248436
0.0248932
0.0249853
0.0251405
0.0253837
0.0257412
0.0262309
0.0267586
0.0271847
0.0274864
0.0276862
0.0278097
0.0278798
0.0279145
0.0279267
0.0279283
0.0279267
0.0190798
0.0190792
0.0190816
0.0190953
0.0191286
0.0191925
0.0193017
0.0194735
0.0197258
0.0200718
0.0204446
0.0207439
0.0209535
0.0210909
0.0211756
0.021224
0.0212474
0.021255
0.0212556
0.0212545
0.0132625
0.0132616
0.0132615
0.0132693
0.0132904
0.0133318
0.013402
0.0135125
0.0136764
0.0139007
0.0141432
0.0143358
0.0144717
0.0145614
0.014616
0.0146454
0.0146587
0.0146618
0.0146608
0.0146599
0.00739139
0.00739078
0.00738985
0.00739282
0.00740286
0.0074236
0.00746019
0.00751862
0.00760487
0.00772375
0.00785229
0.0079566
0.00802989
0.00807684
0.00810473
0.00811949
0.00812477
0.00812412
0.00812241
0.00812185
0.00148201
0.00148175
0.00147794
0.00147611
0.00147685
0.00147993
0.00148594
0.00149578
0.00151077
0.00153211
0.00155794
0.00158298
0.00160088
0.00161253
0.00161997
0.00162417
0.00162592
0.00162567
0.00162332
0.00162071
-0.928129
-0.630789
-0.314705
-0.0612663
0.140939
0.304078
0.444327
0.565812
0.626544
0.598931
-0.407618
-0.216804
-0.0240327
0.139884
0.278465
0.39548
0.492325
0.562506
0.597706
0.6033
-0.0700179
0.0512133
0.175349
0.285901
0.381983
0.463209
0.527397
0.572804
0.601783
0.614635
0.153726
0.233403
0.319004
0.396619
0.464239
0.52075
0.565806
0.59978
0.624728
0.639491
0.312352
0.368936
0.430338
0.486691
0.535979
0.578099
0.613123
0.640672
0.66189
0.677305
0.436127
0.478597
0.524285
0.568157
0.607413
0.641704
0.670631
0.693932
0.712468
0.72838
0.539312
0.573531
0.613199
0.650205
0.684229
0.714437
0.740349
0.761302
0.777213
0.793457
0.634843
0.667144
0.705071
0.740168
0.772282
0.800787
0.825005
0.844145
0.857743
0.874376
0.734429
0.769644
0.808544
0.844081
0.875681
0.903056
0.925743
0.943555
0.955585
0.972807
0.852348
0.891279
0.931264
0.966637
0.99689
1.02236
1.04325
1.05942
1.07107
1.0891
0.998933
1.03835
1.07512
1.10641
1.13262
1.15515
1.17451
1.19029
1.20288
1.22091
1.17512
1.20721
1.23382
1.25654
1.27675
1.29572
1.31369
1.33031
1.34582
1.36397
1.36437
1.38183
1.39709
1.4135
1.42955
1.44422
1.45758
1.47163
1.48924
1.5094
1.54652
1.55607
1.56774
1.57869
1.58819
1.59785
1.60865
1.62007
1.63148
1.64685
1.75361
1.75729
1.74249
1.728
1.72183
1.7275
1.74612
1.77645
1.80857
1.83517
2.06058
1.92581
1.84911
1.80641
1.78889
1.79299
1.82022
1.87671
1.97962
2.20409
0.306342
0.304355
0.30002
0.291774
0.280011
0.268429
0.258773
0.251396
0.246189
0.243132
0.242631
0.244877
0.24931
0.2558
0.264454
0.275288
0.287337
0.297873
0.303718
0.306566
0.230175
0.236155
0.243025
0.248195
0.251322
0.251685
0.24961
0.246315
0.243105
0.240883
0.240525
0.242357
0.245466
0.249059
0.25207
0.253111
0.251408
0.247161
0.241297
0.234308
0.220989
0.223248
0.227528
0.231568
0.234361
0.236256
0.237345
0.237516
0.236986
0.236419
0.236456
0.237201
0.238197
0.238695
0.238233
0.236859
0.234622
0.231284
0.226909
0.223472
0.218037
0.218732
0.221475
0.225101
0.228159
0.230376
0.231831
0.232635
0.232927
0.232959
0.233159
0.233636
0.233894
0.233631
0.232707
0.231024
0.228491
0.225158
0.221738
0.220086
0.218466
0.218679
0.219615
0.221098
0.222596
0.224212
0.225729
0.226932
0.227774
0.228333
0.228713
0.228866
0.228664
0.228001
0.226867
0.225426
0.223991
0.222568
0.221302
0.22079
0.217116
0.217197
0.217685
0.21855
0.219472
0.220534
0.221463
0.222344
0.223124
0.223763
0.224233
0.224448
0.224323
0.223894
0.223322
0.222536
0.221656
0.220817
0.220141
0.21991
0.21476
0.214795
0.21501
0.215463
0.216046
0.216754
0.217551
0.218386
0.219198
0.219942
0.22053
0.22081
0.220762
0.220467
0.220004
0.219488
0.219011
0.218568
0.218274
0.218186
0.211579
0.211598
0.211722
0.211989
0.212358
0.212822
0.213386
0.21405
0.214794
0.215571
0.216275
0.216721
0.216877
0.216835
0.216679
0.21647
0.216249
0.216042
0.215903
0.215861
0.208005
0.208016
0.208099
0.208279
0.208553
0.20893
0.209429
0.210058
0.210816
0.211679
0.21254
0.213177
0.213523
0.213663
0.213676
0.213621
0.21354
0.213458
0.213403
0.213383
0.20408
0.204086
0.204148
0.204285
0.204506
0.204832
0.205293
0.205918
0.206727
0.207715
0.208783
0.209655
0.210222
0.210555
0.210738
0.210826
0.210858
0.210862
0.210857
0.210853
0.19984
0.199843
0.199901
0.200026
0.200236
0.200562
0.201043
0.201722
0.20264
0.203817
0.205151
0.206309
0.207107
0.207642
0.207976
0.208178
0.208294
0.208355
0.208384
0.208389
0.195268
0.195268
0.195328
0.195463
0.195692
0.196053
0.196597
0.197384
0.198476
0.199913
0.20159
0.203089
0.20417
0.204915
0.205405
0.205717
0.205908
0.206017
0.206073
0.206086
0.190338
0.190337
0.190405
0.19056
0.190827
0.191253
0.191903
0.192856
0.194194
0.19598
0.198098
0.200022
0.201438
0.20242
0.203081
0.203509
0.203775
0.203932
0.204013
0.204033
0.184972
0.18497
0.185053
0.185242
0.185568
0.186092
0.186894
0.188077
0.189747
0.191991
0.194669
0.197121
0.198934
0.200206
0.201065
0.201626
0.201978
0.202188
0.202296
0.202324
0.179068
0.179064
0.179168
0.179405
0.179816
0.180474
0.181483
0.182973
0.185081
0.187917
0.191309
0.194421
0.196725
0.198347
0.199446
0.200165
0.200617
0.200886
0.201026
0.201062
0.172484
0.172479
0.172612
0.172914
0.173438
0.174276
0.175562
0.177456
0.180134
0.183732
0.188028
0.191965
0.19488
0.196933
0.198324
0.199234
0.199808
0.20015
0.200327
0.200373
0.165028
0.165022
0.165194
0.165585
0.16626
0.167338
0.168988
0.171413
0.174831
0.179405
0.184847
0.189818
0.19349
0.196075
0.197825
0.198971
0.199693
0.200124
0.200347
0.200405
0.156444
0.156437
0.156663
0.157174
0.158052
0.159451
0.161583
0.164706
0.169084
0.17491
0.181797
0.188059
0.19267
0.195911
0.198106
0.199542
0.200447
0.200988
0.201268
0.20134
0.146381
0.146372
0.146675
0.147352
0.148508
0.150339
0.153117
0.157161
0.16279
0.170218
0.178925
0.186788
0.192561
0.196612
0.199355
0.20115
0.202281
0.202958
0.203308
0.203397
0.13435
0.134341
0.134755
0.135669
0.137211
0.139635
0.143289
0.148564
0.155831
0.165308
0.176291
0.186131
0.193328
0.198375
0.201794
0.204034
0.205449
0.206299
0.206737
0.206848
0.119663
0.119656
0.120241
0.121503
0.123595
0.126851
0.131718
0.138661
0.148084
0.160176
0.173979
0.18623
0.195161
0.201429
0.205684
0.208481
0.210257
0.21133
0.211888
0.212026
0.101324
0.101332
0.102198
0.103987
0.106883
0.111349
0.117945
0.127184
0.139451
0.154851
0.172105
0.187251
0.198267
0.206023
0.211318
0.214821
0.217063
0.218437
0.219162
0.21934
0.0778071
0.0778672
0.0792212
0.0818543
0.0860133
0.092352
0.101499
0.113928
0.129928
0.14945
0.17083
0.189375
0.202853
0.212407
0.219002
0.223419
0.226282
0.228066
0.229032
0.229275
0.0465326
0.0467353
0.0490248
0.0531799
0.0595637
0.0689947
0.0819854
0.0988399
0.119662
0.144193
0.170367
0.192782
0.209085
0.220774
0.228997
0.234632
0.238369
0.240746
0.242066
0.242415
0.00277341
0.00338937
0.00784116
0.0152339
0.0258919
0.0405122
0.0592232
0.0820817
0.108948
0.139361
0.170908
0.19757
0.217005
0.231153
0.241382
0.248665
0.253726
0.257118
0.25909
0.25958
-0.0617916
-0.0593858
-0.0490575
-0.0345402
-0.0158166
0.00701948
0.0337544
0.0642725
0.0982825
0.135265
0.172565
0.203682
0.226426
0.243262
0.25582
0.265214
0.272204
0.277353
0.280648
0.281155
-0.139806
-0.135054
-0.115926
-0.0896388
-0.0603038
-0.0279625
0.00748545
0.0460652
0.0876338
0.131815
0.175804
0.21251
0.239732
0.260442
0.276524
0.289223
0.299429
0.307653
0.31213
0.313992
-0.21905
-0.206925
-0.178098
-0.141859
-0.102947
-0.06157
-0.0177125
0.0287243
0.0777069
0.129002
0.179683
0.221965
0.253494
0.277733
0.296864
0.312259
0.324783
0.33502
0.341934
0.345371
-0.275972
-0.262855
-0.229244
-0.186628
-0.140702
-0.0921561
-0.0411147
0.0123425
0.0681208
0.125985
0.182714
0.229732
0.264578
0.291149
0.311843
0.328196
0.341224
0.351622
0.358701
0.362047
-0.320818
-0.307457
-0.270387
-0.223468
-0.172677
-0.118812
-0.0621499
-0.00290054
0.0587263
0.122414
0.18457
0.235755
0.273303
0.301546
0.323218
0.340099
0.353361
0.363796
0.370986
0.374227
-0.356367
-0.343254
-0.304347
-0.254372
-0.200009
-0.142126
-0.0810048
-0.0169276
0.0497939
0.118751
0.185909
0.240886
0.280816
0.310479
0.33293
0.350174
0.363553
0.373956
0.381176
0.384398
-0.386265
-0.373352
-0.333241
-0.281106
-0.224013
-0.162908
-0.0981401
-0.0300288
0.0410922
0.114768
0.186602
0.245248
0.287524
0.31859
0.341812
0.359437
0.372964
0.383377
0.390674
0.393871
-0.412248
-0.399464
-0.358498
-0.304776
-0.245643
-0.182032
-0.1143
-0.0427916
0.0321971
0.110249
0.186678
0.249104
0.29387
0.326469
0.350565
0.368638
0.382364
0.39283
0.400196
0.403363
-0.435573
-0.422837
-0.381209
-0.326253
-0.265505
-0.199905
-0.129773
-0.0554093
0.0229781
0.105113
0.186134
0.252578
0.300125
0.334494
0.359634
0.378276
0.392272
0.402834
0.410281
0.413439
-0.457098
-0.444394
-0.402107
-0.346158
-0.284116
-0.216907
-0.144832
-0.0681064
0.0132247
0.0991706
0.18486
0.255698
0.306438
0.342914
0.369339
0.388702
0.403064
0.413768
0.421259
0.424383
-0.477287
-0.46454
-0.421622
-0.364847
-0.301787
-0.233315
-0.159703
-0.0810628
0.0027835
0.0922642
0.182727
0.258416
0.312865
0.351881
0.379897
0.400181
0.415025
0.425955
0.433506
0.436623
-0.496322
-0.483421
-0.440054
-0.382553
-0.318667
-0.249224
-0.17446
-0.0943636
-0.00845417
0.0842397
0.179551
0.260607
0.319382
0.361465
0.391459
0.412908
0.428385
0.439604
0.447246
0.450319
-0.514415
-0.501331
-0.457475
-0.399409
-0.334843
-0.264695
-0.189132
-0.108034
-0.0205637
0.0749678
0.175154
0.2621
0.32589
0.371659
0.404091
0.427014
0.443305
0.454926
0.462685
0.46575
-0.531541
-0.518296
-0.473952
-0.415421
-0.350342
-0.279719
-0.2037
-0.122053
-0.033566
0.0643304
0.169339
0.262693
0.332226
0.382373
0.417793
0.442573
0.459907
0.47205
0.479975
0.48307
-0.547765
-0.534302
-0.489573
-0.430564
-0.365142
-0.294254
-0.218108
-0.136359
-0.047431
0.0522612
0.161934
0.262161
0.338171
0.393442
0.432487
0.459596
0.478261
0.491067
0.499221
0.502337
-0.563023
-0.549411
-0.504268
-0.444852
-0.379195
-0.30824
-0.232259
-0.150867
-0.0620894
0.038724
0.152769
0.260275
0.343469
0.404624
0.447956
0.47791
0.498306
0.512004
0.520498
0.52354
-0.57741
-0.563541
-0.518013
-0.458268
-0.392455
-0.321611
-0.246065
-0.16545
-0.0774583
0.0237509
0.141714
0.256815
0.347854
0.415534
0.463829
0.497269
0.519857
0.534753
0.543691
0.546588
-0.590721
-0.576798
-0.53079
-0.470775
-0.404889
-0.334284
-0.25943
-0.17998
-0.0933993
0.007386
0.128685
0.251603
0.351105
0.425741
0.479545
0.517283
0.54268
0.558999
0.568207
0.570847
-0.603167
-0.58906
-0.542609
-0.482361
-0.416475
-0.346224
-0.272245
-0.194336
-0.109763
-0.0102704
0.113651
0.244569
0.352919
0.434712
0.494315
0.537267
0.566736
0.585058
0.594
0.595688
-0.614668
-0.600338
-0.553507
-0.493019
-0.427176
-0.357376
-0.284432
-0.208363
-0.126384
-0.0291057
0.0965958
0.235603
0.353166
0.441933
0.507349
0.556011
0.591149
0.613395
0.621712
0.619926
-0.625333
-0.610812
-0.563462
-0.502748
-0.437
-0.367712
-0.295917
-0.221956
-0.143093
-0.0489354
0.0775524
0.224658
0.351727
0.447335
0.51759
0.571367
0.613657
0.644131
0.656267
0.645699
-0.635161
-0.620435
-0.572556
-0.511655
-0.446092
-0.377415
-0.306933
-0.235443
-0.160422
-0.0706557
0.0552737
0.210699
0.34837