/*--------------------------------*- C++ -*----------------------------------*\
| =========                 |                                                 |
| \\      /  F ield         | OpenFOAM: The Open Source CFD Toolbox           |
|  \\    /   O peration     | Version:  4.0                                   |
|   \\  /    A nd           | Web:      www.OpenFOAM.org                      |
|    \\/     M anipulation  |                                                 |
\*---------------------------------------------------------------------------*/
FoamFile
{
    version     2.0;
    format      ascii;
    class       surfaceScalarField;
    location    "7";
    object      phi;
}
// * * * * * * * * * * * * * * * * * * * * * * * * * * * * * * * * * * * * * //

dimensions      [0 3 -1 0 0 0 0];

internalField   nonuniform List<scalar> 
17370
(
-0.0915408
0.096005
0.284547
-0.0775825
0.05935
0.365008
-0.0428057
0.0311424
0.427831
-0.0216107
0.0154321
0.50543
-0.0108266
0.00804751
0.602181
-0.00602184
0.00471176
0.720368
-0.00362202
0.0028434
0.863685
-0.00215724
0.00163227
1.03598
-0.00113502
0.00073714
1.2429
-0.000332379
-4.13831e-05
1.49156
0.000416647
-0.000826972
1.4916
0.00122936
-0.00173091
1.24319
0.00225502
-0.00293516
1.03632
0.00370506
-0.00478439
0.863986
0.00608408
-0.00809743
0.721071
0.0108664
-0.0154626
0.603811
0.0216349
-0.0311625
0.508967
0.042823
-0.0593638
0.432709
0.0775928
-0.096011
0.365194
0.0915478
0.197463
-0.12737
0.0885847
0.038785
-0.364653
0.354501
-0.0707872
0.0809397
-0.446471
0.454232
-0.078387
0.0706261
-0.521057
0.528944
-0.0628672
0.0549802
-0.613102
0.620835
-0.0477599
0.040027
-0.727051
0.73386
-0.0332448
0.0264359
-0.867381
0.872322
-0.0210121
0.0160709
-1.03842
1.04166
-0.0123748
0.0091298
-1.24467
1.24684
-0.00670013
0.004522
-1.49281
1.49441
-0.002837
0.00123478
-1.4926
1.49403
0.000196685
-0.00162462
-1.24408
1.24575
0.00322082
-0.00488237
-1.03752
1.03992
0.00702837
-0.00942696
-0.86604
0.869718
0.012647
-0.0163253
-0.724445
0.729853
0.0212526
-0.0266613
-0.609097
0.61586
0.033452
-0.0402149
-0.51527
0.522469
0.0479251
-0.0551242
-0.439742
0.447483
0.0629891
-0.0707303
-0.374793
0.377328
0.0784742
-0.0810085
-0.257254
0.225223
0.0708335
-0.0388026
-0.0699543
0.0610311
0.00892318
-0.0483876
0.0542913
-0.375563
0.369659
-0.05272
0.0483392
-0.453978
0.458358
-0.0426855
0.0381573
-0.527454
0.531982
-0.0337134
0.0299911
-0.620517
0.624239
-0.0263306
0.0230931
-0.734406
0.737643
-0.0196131
0.0164995
-0.873509
0.876623
-0.0132569
0.0104895
-1.04277
1.04554
-0.00765512
0.00515025
-1.24798
1.25048
-0.00234016
-0.000424785
-1.49625
1.49901
0.0031681
-0.00591631
-1.49667
1.49941
0.00838564
-0.0111875
-1.24939
1.25219
0.0139198
-0.0171063
-1.04511
1.0483
0.0201629
-0.0235771
-0.876822
0.880236
0.0267621
-0.0303711
-0.738744
0.742353
0.0340592
-0.0384596
-0.625819
0.630219
0.042954
-0.0485783
-0.534949
0.540574
0.0529277
-0.0544601
-0.458653
0.460185
0.0485118
-0.0297451
-0.338351
0.319584
0.00894482
-0.0698978
0.060953
-0.0560764
0.0533136
0.00276278
-0.0242557
0.0328551
-0.361348
0.352749
-0.036556
0.0368017
-0.460254
0.460009
-0.0350101
0.0328543
-0.535807
0.537963
-0.0303562
0.0280573
-0.627474
0.629773
-0.0252829
0.0227178
-0.74042
0.742985
-0.019865
0.0172398
-0.879322
0.881947
-0.0142835
0.011531
-1.04827
1.05102
-0.00844306
0.00559381
-1.25315
1.256
-0.00244311
-0.000502019
-1.50183
1.50478
0.00344382
-0.0065777
-1.50234
1.50547
0.00938642
-0.0124115
-1.25511
1.25814
0.0151035
-0.017994
-1.05122
1.05411
0.0205639
-0.0233562
-0.883145
0.885937
0.0258683
-0.0285782
-0.745595
0.748305
0.0308067
-0.0332452
-0.634118
0.636557
0.0353509
-0.0370882
-0.544751
0.546489
0.0367928
-0.0330339
-0.458715
0.454956
0.0243785
-0.0112981
-0.302672
0.289592
0.00278334
-0.0559789
0.0531956
-0.0521566
0.0518345
0.000322137
-0.00790033
0.0139478
-0.345278
0.33923
-0.0193694
0.022708
-0.457944
0.454605
-0.02499
0.0259919
-0.538244
0.537242
-0.0263542
0.0259747
-0.63098
0.63136
-0.0249404
0.0234838
-0.745012
0.746468
-0.021404
0.0191158
-0.884445
0.886733
-0.01629
0.0134446
-1.05381
1.05665
-0.0100772
0.00677045
-1.25907
1.26238
-0.00293331
-0.000806403
-1.50813
1.51187
0.00453665
-0.00832352
-1.50895
1.51274
0.011544
-0.0147948
-1.26126
1.26451
0.0175377
-0.0202456
-1.05693
1.05964
0.02243
-0.024403
-0.888365
0.890338
0.0257816
-0.0267393
-0.750004
0.750962
0.0270096
-0.026546
-0.637285
0.636821
0.0254744
-0.0231206
-0.545844
0.54349
0.0197182
-0.0142171
-0.449948
0.444447
0.00808676
-0.00251598
-0.280809
0.275239
0.000355326
-0.0520104
0.051655
-0.0516897
0.0515743
0.000115405
-0.00348247
0.0074327
-0.334315
0.330365
-0.0125584
0.0169023
-0.45055
0.446206
-0.0207263
0.0229929
-0.535575
0.533309
-0.0241577
0.0243499
-0.631356
0.631164
-0.0238522
0.0228654
-0.747623
0.74861
-0.0211714
0.0191692
-0.888833
0.890835
-0.0165086
0.0137252
-1.0595
1.06228
-0.0103054
0.00688965
-1.26581
1.26922
-0.00279587
-0.00124781
-1.5158
1.51984
0.00525694
-0.00925099
-1.51669
1.52068
0.0125487
-0.015815
-1.26782
1.27109
0.018436
-0.0209192
-1.06223
1.06472
0.0227448
-0.0242263
-0.89201
0.893491
0.0250468
-0.025413
-0.751432
0.751799
0.0251167
-0.0238273
-0.636004
0.634715
0.0214419
-0.0174912
-0.54014
0.53619
0.0130325
-0.00777951
-0.438886
0.433633
0.0037147
-0.00104102
-0.271475
0.268801
0.000153042
-0.0514773
0.0513242
-0.0515418
0.0515601
-1.82165e-05
-0.00132977
0.00346667
-0.327369
0.325232
-0.00690172
0.0103464
-0.442098
0.438654
-0.0137735
0.016241
-0.530723
0.528255
-0.0180926
0.0190657
-0.630501
0.629528
-0.0193633
0.0190114
-0.74941
0.749762
-0.0179948
0.0165482
-0.892654
0.8941
-0.01445
0.0121136
-1.06491
1.06725
-0.00913658
0.00605468
-1.27253
1.27561
-0.00223036
-0.00163589
-1.5239
1.52776
0.00545326
-0.00916461
-1.52462
1.52833
0.0121527
-0.0149912
-1.27421
1.27705
0.0171249
-0.0189878
-1.06698
1.06885
0.0202303
-0.0210367
-0.894783
0.89559
0.0212023
-0.0206849
-0.751793
0.751275
0.019493
-0.0174196
-0.632766
0.630693
0.0147581
-0.0111338
-0.532152
0.528528
0.00751989
-0.00391004
-0.429081
0.425472
0.00162228
-0.000381183
-0.266962
0.265721
2.87445e-05
-0.0512477
0.051219
-0.0515734
0.0515774
-4.0864e-06
-0.000604212
0.0016151
-0.323751
0.32274
-0.00338755
0.00533599
-0.435995
0.434046
-0.00747148
0.009201
-0.526121
0.524391
-0.0107057
0.011696
-0.628478
0.627488
-0.0123151
0.0124488
-0.749807
0.749674
-0.0121103
0.0113687
-0.895155
0.895897
-0.0100839
0.00849644
-1.06921
1.07079
-0.00631385
0.00394408
-1.27836
1.28073
-0.00095125
-0.00208427
-1.53126
1.5343
0.00506771
-0.00791322
-1.53165
1.53449
0.0101097
-0.012066
-1.27947
1.28143
0.0134045
-0.0143798
-1.07024
1.07121
0.0148332
-0.0148603
-0.895937
0.895964
0.0144509
-0.0135411
-0.750487
0.749577
0.0122979
-0.0105328
-0.628715
0.62695
0.00857978
-0.00621571
-0.525533
0.523169
0.00407299
-0.00210143
-0.422767
0.420796
0.000922771
-0.000273963
-0.264843
0.264195
4.91554e-05
-0.0511822
0.0511331
-0.0515896
0.0516157
-2.61201e-05
-0.000176521
0.000610193
-0.322066
0.321633
-0.00141908
0.00236318
-0.432669
0.431725
-0.00347597
0.00445202
-0.523061
0.522085
-0.00539492
0.00608819
-0.626626
0.625933
-0.00661383
0.00684871
-0.749453
0.749218
-0.00680126
0.00645714
-0.896404
0.896748
-0.00572468
0.00472504
-1.07206
1.07306
-0.00326131
0.00161261
-1.28273
1.28438
0.000476108
-0.00259156
-1.53686
1.53897
0.0046479
-0.0065503
-1.53685
1.53875
0.00792474
-0.00903701
-1.28294
1.28405
0.00971509
-0.0100708
-1.07184
1.0722
0.0100632
-0.00972652
-0.895768
0.895431
0.00914918
-0.00826509
-0.748645
0.747761
0.00726662
-0.0060178
-0.625441
0.624192
0.00478424
-0.00340914
-0.521355
0.519979
0.00224203
-0.00120307
-0.41937
0.418331
0.000571928
-0.000193688
-0.263707
0.263328
4.13579e-05
-0.0510869
0.0510455
-0.0516485
0.0516887
-4.01445e-05
6.4616e-05
8.68249e-05
-0.321366
0.321214
-0.000413692
0.000819106
-0.431096
0.43069
-0.00131968
0.00177819
-0.5214
0.520942
-0.00224303
0.00259962
-0.625416
0.625059
-0.00288293
0.00301644
-0.749021
0.748887
-0.00299169
0.00278555
-0.896997
0.897203
-0.00232852
0.00168464
-1.07385
1.0745
-0.000719778
-0.000384718
-1.28572
1.28683
0.00178168
-0.00318367
-1.5407
1.5421
0.00451293
-0.00567658
-1.54026
1.54142
0.00645245
-0.00698013
-1.28483
1.28536
0.00720275
-0.00719739
-1.07235
1.07234
0.00697451
-0.00653549
-0.895022
0.894583
0.00599131
-0.00527859
-0.74696
0.746248
0.00455487
-0.00371897
-0.623173
0.622337
0.00294686
-0.00212755
-0.51893
0.518111
0.00145034
-0.000841629
-0.417552
0.416944
0.000446227
-0.000176119
-0.263018
0.262748
4.58032e-05
-0.0510035
0.0509577
-0.0517365
0.0517921
-5.56138e-05
0.000221324
-0.000236146
-0.321163
0.321178
0.000166323
-4.43482e-05
-0.430447
0.430325
-0.000118723
0.000268951
-0.520656
0.520506
-0.000416222
0.000517947
-0.62484
0.624738
-0.000574972
0.000559493
-0.748827
0.748843
-0.000445727
0.000233471
-0.897401
0.897613
0.000140612
-0.000621973
-1.07504
1.07552
0.00130916
-0.00207164
-1.28774
1.2885
0.0030156
-0.00393021
-1.54324
1.54415
0.00474941
-0.00540637
-1.5423
1.54296
0.00575973
-0.00590778
-1.28569
1.28584
0.0058992
-0.00570109
-1.07223
1.07203
0.00538883
-0.00493574
-0.894134
0.893681
0.0044503
-0.00387031
-0.74561
0.74503
0.00331941
-0.00271412
-0.621637
0.621032
0.00217593
-0.00161822
-0.517449
0.516891
0.00115771
-0.000729275
-0.416445
0.416017
0.000425454
-0.000188261
-0.2625
0.262263
5.51553e-05
-0.0509075
0.0508523
-0.0518543
0.051924
-6.96882e-05
0.000355384
-0.000471802
-0.321242
0.321358
0.000552833
-0.000605105
-0.430299
0.430351
0.000654122
-0.000705027
-0.520466
0.520517
0.000777143
-0.000866205
-0.624739
0.624828
0.000998659
-0.00116147
-0.748934
0.749097
0.00139785
-0.00167758
-0.897854
0.898134
0.00206499
-0.00249758
-1.07597
1.0764
0.00305732
-0.00363341
-1.28915
1.28973
0.00430249
-0.00490154
-1.54489
1.54549
0.0053808
-0.00569568
-1.54344
1.54375
0.00580616
-0.00574552
-1.28585
1.28579
0.00552863
-0.00519428
-1.07176
1.07142
0.00481278
-0.00433809
-0.89322
0.892745
0.00387468
-0.00335361
-0.744489
0.743968
0.00287969
-0.0023749
-0.620489
0.619985
0.00193532
-0.00148413
-0.5164
0.515949
0.00110766
-0.000742756
-0.41563
0.415265
0.000462031
-0.000218886
-0.262027
0.261784
6.8265e-05
-0.0507911
0.0507229
-0.0520034
0.0520941
-9.07685e-05
0.000499192
-0.000708969
-0.321524
0.321734
0.000913766
-0.00109074
-0.430468
0.430645
0.00128982
-0.00148649
-0.520644
0.520841
0.00172389
-0.00196477
-0.624996
0.625236
0.0022591
-0.00256001
-0.749329
0.74963
0.0029293
-0.00330584
-0.898459
0.898836
0.003763
-0.00421797
-1.07684
1.07729
0.00474824
-0.00524203
-1.29026
1.29075
0.00575809
-0.0061561
-1.54598
1.54637
0.00640292
-0.00646418
-1.54393
1.54399
0.00635828
-0.00611709
-1.28565
1.28541
0.00579049
-0.0053499
-1.07103
1.07059
0.00489953
-0.00437854
-0.892251
0.89173
0.00389401
-0.00336814
-0.743451
0.742925
0.00290204
-0.00241454
-0.619497
0.619009
0.00199487
-0.00156555
-0.515517
0.515088
0.00120303
-0.000839268
-0.414907
0.414543
0.000541942
-0.000266332
-0.261527
0.261252
8.56607e-05
-0.0506464
0.0505608
-0.052197
0.0523133
-0.000116238
0.000661344
-0.000961547
-0.321988
0.322288
0.00127876
-0.00156919
-0.430879
0.43117
0.00190272
-0.00223041
-0.521104
0.521431
0.00261855
-0.00300148
-0.625548
0.625931
0.00345305
-0.00389514
-0.75
0.750442
0.00441099
-0.00490795
-0.89927
0.899767
0.00547431
-0.00600052
-1.07778
1.0783
0.00656806
-0.00705099
-1.29123
1.29171
0.00749848
-0.00777762
-1.5467
1.54698
0.00786656
-0.00774889
-1.54395
1.54384
0.00748161
-0.00706161
-1.28507
1.28465
0.00660215
-0.00603744
-1.07009
1.06953
0.00549314
-0.00488609
-0.891172
0.890565
0.00433692
-0.00375261
-0.742377
0.741792
0.00324217
-0.00271367
-0.618508
0.617979
0.00226159
-0.00179963
-0.514648
0.514186
0.00140612
-0.00100211
-0.414164
0.41376
0.00065956
-0.000329946
-0.260952
0.260622
0.000107634
-0.0504648
0.0503572
-0.0524448
0.0525937
-0.000148928
0.000859602
-0.00126208
-0.322637
0.32304
0.00169992
-0.00210872
-0.431518
0.431927
0.00258141
-0.00304495
-0.521825
0.522289
0.00359057
-0.00412413
-0.626387
0.626921
0.00474588
-0.00534522
-0.75096
0.75156
0.00603103
-0.0066758
-0.900334
0.900978
0.00738881
-0.00802712
-1.07888
1.07952
0.00868382
-0.00920769
-1.29221
1.29273
0.00964497
-0.00985576
-1.54722
1.54743
0.00982676
-0.00955155
-1.54364
1.54336
0.00913237
-0.00854115
-1.28415
1.28356
0.00792701
-0.00720758
-1.06889
1.06817
0.00653325
-0.00579673
-0.889899
0.889162
0.00514024
-0.00444943
-0.74116
0.74047
0.00385062
-0.00323416
-0.617412
0.616796
0.00270852
-0.0021716
-0.513691
0.513154
0.00171175
-0.00123333
-0.413323
0.412844
0.000819418
-0.000413366
-0.260257
0.259851
0.000135692
-0.0502363
0.0501007
-0.0527627
0.0529543
-0.000191672
0.00111221
-0.00163906
-0.323501
0.324028
0.00221855
-0.00276356
-0.4324
0.432945
0.00339531
-0.00401445
-0.522827
0.523446
0.00474135
-0.00544948
-0.627538
0.628246
0.00627037
-0.00705633
-0.752248
0.753033
0.00794751
-0.00877565
-0.90171
0.902538
0.00967756
-0.0104692
-1.08023
1.08102
0.0112615
-0.0118684
-1.29329
1.2939
0.0123374
-0.0125101
-1.54762
1.5478
0.0123796
-0.0119462
-1.54301
1.54258
0.0113597
-0.010574
-1.28287
1.28209
0.00977855
-0.00886409
-1.06736
1.06645
0.00801884
-0.007105
-0.888343
0.887429
0.00629673
-0.00545101
-0.739708
0.738862
0.0047211
-0.00397191
-0.616119
0.615369
0.00333423
-0.00268297
-0.512565
0.511914
0.00212367
-0.00153785
-0.412317
0.411731
0.00102596
-0.000519269
-0.259398
0.258891
0.000170801
-0.0499484
0.0497776
-0.0531724
0.0534199
-0.000247517
0.00143801
-0.00212168
-0.324628
0.325312
0.00287684
-0.00358903
-0.433569
0.434281
0.00441504
-0.00522393
-0.524154
0.524963
0.00617183
-0.00709316
-0.629055
0.629976
0.00815799
-0.00917345
-0.753928
0.754943
0.0103191
-0.0113767
-0.903474
0.904532
0.0125186
-0.0135091
-1.0819
1.0829
0.0144843
-0.0152116
-1.29456
1.29529
0.0157437
-0.0158936
-1.54796
1.54811
0.01566
-0.0150497
-1.54206
1.54145
0.0142654
-0.013243
-1.28119
1.28017
0.0122225
-0.0110608
-1.06542
1.06426
0.00999512
-0.00884914
-0.886407
0.885261
0.00783975
-0.00678661
-0.73792
0.736867
0.00587951
-0.00494968
-0.614536
0.613606
0.00415903
-0.00335177
-0.51119
0.510383
0.00265772
-0.00192854
-0.411078
0.410349
0.00128857
-0.000652777
-0.258324
0.257688
0.000214726
-0.049586
0.0493713
-0.053703
0.0540242
-0.000321156
0.00186366
-0.00274941
-0.326089
0.326975
0.00372899
-0.00465349
-0.43509
0.436015
0.00572522
-0.00677303
-0.525884
0.526931
0.00799852
-0.00918728
-0.631024
0.632213
0.0105579
-0.0118613
-0.756095
0.757399
0.0133265
-0.0146728
-0.905726
0.907072
0.0161172
-0.0173596
-1.084
1.08525
0.0185676
-0.0194511
-1.29609
1.29698
0.0200697
-0.0201996
-1.54825
1.54838
0.0198451
-0.0190204
-1.54074
1.53991
0.0179927
-0.0166736
-1.27901
1.27769
0.0153694
-0.0138937
-1.06295
1.06147
0.012546
-0.0111016
-0.883975
0.88253
0.00983251
-0.0085109
-0.735687
0.734366
0.00737406
-0.0062098
-0.612567
0.611403
0.00522021
-0.00420974
-0.509481
0.508471
0.00334018
-0.00242514
-0.409533
0.408618
0.00162062
-0.000820611
-0.256975
0.256175
0.000269659
-0.0491306
0.048861
-0.0543942
0.0548138
-0.00041963
0.0024274
-0.00357853
-0.32798
0.329131
0.00485184
-0.00605253
-0.43706
0.438261
0.00744135
-0.00879451
-0.528121
0.529474
0.0103727
-0.0119004
-0.633564
0.635092
0.0136578
-0.0153252
-0.758876
0.760544
0.0171935
-0.0189029
-0.90859
0.910299
0.020726
-0.0222818
-1.08664
1.08819
0.0237772
-0.0248506
-1.29795
1.29902
0.0255704
-0.0256688
-1.54849
1.54859
0.0251577
-0.0240607
-1.53896
1.53786
0.0227252
-0.0210312
-1.27619
1.2745
0.0193682
-0.0174956
-1.05981
1.05793
0.015791
-0.0139686
-0.880907
0.879085
0.0123698
-0.0107067
-0.732882
0.731219
0.00927697
-0.00781314
-0.610098
0.608634
0.00656875
-0.0052975
-0.50734
0.506068
0.00420285
-0.00305038
-0.407593
0.406441
0.00203715
-0.00103028
-0.255278
0.254271
0.000337973
-0.0485593
0.0482214
-0.0553012
0.055857
-0.000555865
0.00319133
-0.00469927
-0.330433
0.331941
0.00636608
-0.00793092
-0.439609
0.441174
0.0097297
-0.0114722
-0.531014
0.532756
0.0134964
-0.0154526
-0.636838
0.638794
0.0176999
-0.019829
-0.762438
0.764567
0.0222075
-0.0243738
-0.912223
0.91439
0.0266686
-0.0286087
-1.08993
1.09187
0.0304486
-0.0317412
-1.3002
1.30149
0.0325642
-0.0326017
-1.54867
1.5487
0.0318772
-0.0304266
-1.5366
1.53515
0.0286988
-0.0265304
-1.27258
1.27041
0.0244152
-0.022043
-1.05582
1.05345
0.0198899
-0.0175924
-0.877033
0.874736
0.01558
-0.0134882
-0.729349
0.727258
0.0116903
-0.00984842
-0.606992
0.60515
0.00828075
-0.00667683
-0.504648
0.503044
0.00529413
-0.0038384
-0.405152
0.403697
0.00256051
-0.00129317
-0.253143
0.251876
0.000423703
-0.0478443
0.0474206
-0.0565016
0.0572568
-0.000755215
0.00426765
-0.00626788
-0.333628
0.335628
0.00846543
-0.0105015
-0.442919
0.444955
0.0128137
-0.0150372
-0.53477
0.536993
0.0176143
-0.0201097
-0.641062
0.643558
0.0229819
-0.0257036
-0.766991
0.769712
0.0287343
-0.0314774
-0.916814
0.919557
0.0343556
-0.0367585
-1.09401
1.09642
0.0389979
-0.0405278
-1.30289
1.30442
0.0414356
-0.0413579
-1.54869
1.54861
0.0403365
-0.0384242
-1.53348
1.53157
0.0361967
-0.0334321
-1.26796
1.26519
0.0307527
-0.027759
-1.05078
1.04778
0.0250496
-0.022164
-0.872145
0.86926
0.01964
-0.0170185
-0.724897
0.722276
0.0147646
-0.0124521
-0.603082
0.60077
0.0104781
-0.00845061
-0.501262
0.499234
0.00669684
-0.00484878
-0.402082
0.400234
0.00323078
-0.00163082
-0.25046
0.24886
0.000535118
-0.0469521
0.0464169
-0.0581119
0.0591706
-0.00105871
0.00584072
-0.00852405
-0.337822
0.340505
0.0114149
-0.0140267
-0.44726
0.449871
0.0169468
-0.0197492
-0.539679
0.542482
0.0230166
-0.0262096
-0.64652
0.649713
0.0299059
-0.0334071
-0.772794
0.776295
0.0372808
-0.0407489
-0.922574
0.926042
0.044336
-0.0472762
-1.09902
1.10196
0.0499515
-0.0517098
-1.30604
1.30779
0.0526472
-0.0523634
-1.54842
1.54814
0.0509277
-0.0484157
-1.52937
1.52685
0.0455585
-0.0420553
-1.26207
1.25857
0.0386818
-0.034927
-1.04441
1.04066
0.0315379
-0.027936
-0.865991
0.862389
0.0247912
-0.0215284
-0.719293
0.71603
0.0187227
-0.0158385
-0.598159
0.595274
0.0133638
-0.010802
-0.497001
0.494439
0.00856632
-0.0061966
-0.398222
0.395852
0.0041253
-0.00208399
-0.247091
0.245049
0.000688143
-0.0458416
0.0451534
-0.0603244
0.061851
-0.00152659
0.00820676
-0.0118306
-0.343408
0.347032
0.0155992
-0.0189034
-0.453017
0.456322
0.0225558
-0.026101
-0.546124
0.549669
0.0303056
-0.0344611
-0.65356
0.657716
0.0392797
-0.0438027
-0.780156
0.784679
0.0487303
-0.053058
-0.929731
0.934058
0.0574382
-0.0609376
-1.10504
1.10854
0.0640155
-0.0659263
-1.30955
1.31146
0.0667636
-0.0661218
-1.54764
1.547
0.0641074
-0.0608224
-1.52395
1.52066
0.0571856
-0.0527856
-1.25461
1.25021
0.048578
-0.0439111
-1.03642
1.03175
0.0397074
-0.035247
-0.85828
0.853819
0.0313599
-0.0273344
-0.712253
0.708228
0.0238765
-0.0203196
-0.591957
0.5884
0.0172504
-0.0140366
-0.491633
0.488419
0.0111822
-0.00810358
-0.393373
0.390294
0.0053961
-0.00272797
-0.242865
0.240197
0.000908301
-0.0444606
0.0435523
-0.0634718
0.0657712
-0.0022994
0.0120191
-0.0169795
-0.350983
0.355943
0.0219061
-0.0261364
-0.460725
0.464955
0.0307944
-0.035411
-0.554594
0.55921
0.0409748
-0.0464616
-0.662622
0.668109
0.0527259
-0.0584593
-0.789441
0.795175
0.0645395
-0.0697303
-0.93848
0.943671
0.0748325
-0.078771
-1.11204
1.11598
0.0820667
-0.0839266
-1.31322
1.31508
0.0844106
-0.0831668
-1.54599
1.54474
0.0803453
-0.0760742
-1.51685
1.51258
0.0714909
-0.0660288
-1.24525
1.23979
0.0608473
-0.0551208
-1.0265
1.02077
0.0499664
-0.0444969
-0.848698
0.843228
0.0397311
-0.0348006
-0.70346
0.69853
0.0305709
-0.0262253
-0.584157
0.579811
0.0224622
-0.01848
-0.484846
0.480864
0.0148609
-0.0108447
-0.387251
0.383235
0.00724319
-0.0036555
-0.23755
0.233963
0.00121574
-0.0427264
0.0415107
-0.0681469
0.0719565
-0.00380955
0.0189115
-0.0258356
-0.361543
0.368467
0.0323052
-0.0377788
-0.471235
0.476709
0.0438937
-0.0500519
-0.565768
0.571926
0.0574477
-0.0645498
-0.674253
0.681355
0.0723716
-0.0792666
-0.800959
0.807854
0.0863363
-0.0921716
-0.948803
0.954638
0.097698
-0.101763
-1.11974
1.1238
0.104903
-0.106356
-1.31658
1.31803
0.106103
-0.103918
-1.54294
1.54075
0.099998
-0.0944972
-1.50764
1.50214
0.0887922
-0.0821139
-1.23368
1.227
0.0758407
-0.0689371
-1.01437
1.00747
0.0627243
-0.0561159
-0.836964
0.830356
0.0503377
-0.0443408
-0.692606
0.686609
0.0391836
-0.0338757
-0.574412
0.569104
0.0292645
-0.024357
-0.476243
0.471335
0.0198031
-0.0146112
-0.379407
0.374215
0.00981978
-0.00494498
-0.230732
0.225857
0.00161715
-0.0404875
0.0388703
-0.0755602
0.0828543
-0.00729404
0.033
-0.0430125
-0.377107
0.38712
0.0513162
-0.058304
-0.485799
0.492787
0.0663555
-0.0744147
-0.580409
0.588468
0.0837165
-0.092184
-0.688823
0.69729
0.101081
-0.108613
-0.81455
0.822082
0.116057
-0.121953
-0.960126
0.966022
0.127262
-0.130859
-1.12735
1.13094
0.133232
-0.133733
-1.3188
1.3193
0.13222
-0.128667
-1.53774
1.53419
0.123321
-0.116352
-1.49582
1.48885
0.109374
-0.101385
-1.21961
1.21162
0.0939654
-0.0858579
-0.999858
0.991751
0.0785747
-0.070818
-0.822918
0.815161
0.0640062
-0.0568966
-0.67948
0.67237
0.0507369
-0.0443591
-0.562431
0.556053
0.0388046
-0.0328644
-0.465377
0.459437
0.0271844
-0.0203164
-0.369122
0.362255
0.013613
-0.00668272
-0.221556
0.214625
0.0020824
-0.0375286
0.0354462
-0.0901177
0.09295
-0.00283234
0.0201344
-0.0289896
-0.400468
0.409323
0.0372705
-0.045
-0.505308
0.513037
0.0543419
-0.0640885
-0.598324
0.608071
0.0747534
-0.0842566
-0.705466
0.714969
0.0948268
-0.104173
-0.828899
0.838245
0.113873
-0.122183
-0.971016
0.979327
0.13044
-0.137067
-1.1335
1.14012
0.142987
-0.1469
-1.31869
1.3226
0.149063
-0.14861
-1.5295
1.52904
0.145401
-0.139809
-1.48089
1.4753
0.133135
-0.124567
-1.20288
1.19431
0.116109
-0.105862
-0.982969
0.972722
0.0963618
-0.0858043
-0.806646
0.796088
0.0762654
-0.0660391
-0.664162
0.653935
0.0567336
-0.0471555
-0.548175
0.538597
0.0389634
-0.0299237
-0.451977
0.442937
0.0216911
-0.0130623
-0.355477
0.346849
0.00642568
-0.00181474
-0.208219
0.203608
-4.29683e-05
-0.0334102
0.0334532
-0.100033
0.0954874
0.00454532
-0.00366567
-0.0015187
-0.421404
0.426588
0.00885392
-0.0158794
-0.524542
0.531567
0.0246859
-0.0330271
-0.617938
0.626279
0.0424887
-0.05112
-0.72442
0.733051
0.0603257
-0.0686697
-0.847084
0.855428
0.0773433
-0.0845171
-0.987341
0.994515
0.0918821
-0.0974979
-1.14664
1.15225
0.102519
-0.105612
-1.32638
1.32947
0.106817
-0.10576
-1.52803
1.52698
0.102169
-0.096454
-1.46922
1.46351
0.0897287
-0.0814063
-1.18559
1.17727
0.073384
-0.0641805
-0.962579
0.953375
0.055541
-0.0459268
-0.785228
0.775614
0.0373204
-0.0284869
-0.642437
0.633603
0.0209664
-0.0132508
-0.526962
0.519246
0.00668487
-0.000312056
-0.431333
0.424961
-0.00449374
0.00795436
-0.336286
0.332825
-0.00837519
0.00596585
-0.196538
0.198947
-0.00267265
-0.0319554
0.034628
-0.0973048
0.0929853
0.00431942
-0.0102209
0.00806116
-0.435586
0.437745
-0.00325127
-0.00234793
-0.540821
0.546421
0.00935092
-0.0162931
-0.634774
0.641716
0.0241317
-0.0313146
-0.741154
0.748337
0.0391899
-0.0462
-0.863076
0.870086
0.0532981
-0.0595334
-1.00149
1.00773
0.0657893
-0.0707011
-1.15749
1.1624
0.0747545
-0.0771479
-1.33208
1.33447
0.0781401
-0.0770196
-1.5256
1.52448
0.073684
-0.0685962
-1.45776
1.45267
0.0627924
-0.0559153
-1.16948
1.1626
0.0490941
-0.041638
-0.944616
0.93716
0.034801
-0.0273556
-0.767007
0.759561
0.021026
-0.0145698
-0.624965
0.618509
0.00932061
-0.00398736
-0.510515
0.505181
-6.64823e-05
0.00362208
-0.416693
0.413138
-0.00610032
0.00724464
-0.326254
0.32511
-0.00617964
0.00367527
-0.195326
0.19783
-0.00156389
-0.0343026
0.0358665
-0.0936478
0.0897818
0.00386596
-0.0116969
0.0112701
-0.444532
0.444959
-0.00811099
0.00364573
-0.553348
0.557814
0.00220661
-0.00773976
-0.64834
0.653873
0.0141412
-0.0200408
-0.755211
0.761111
0.0264847
-0.0322499
-0.876605
0.882371
0.0384667
-0.0435889
-1.01354
1.01866
0.0489525
-0.052794
-1.16698
1.17082
0.0563193
-0.0584261
-1.33683
1.33894
0.0592135
-0.0580197
-1.52329
1.52209
0.0553015
-0.0511751
-1.44762
1.4435
0.0464276
-0.0405762
-1.15616
1.15031
0.0351375
-0.029317
-0.930158
0.924338
0.0239015
-0.0183834
-0.752872
0.747354
0.0134118
-0.00860351
-0.612045
0.607237
0.00472249
-0.00115726
-0.499164
0.495599
-0.00139722
0.00359246
-0.407226
0.40503
-0.00506725
0.00536729
-0.320169
0.319869
-0.00454032
0.00275332
-0.194641
0.196428
-0.00119273
-0.0349743
0.036167
-0.0905646
0.0876054
0.00295925
-0.0105588
0.0112099
-0.450303
0.449652
-0.00877313
0.00537885
-0.563489
0.566884
-0.000867345
-0.00383349
-0.659336
0.664037
0.00889336
-0.0138097
-0.766548
0.771465
0.0190823
-0.0238352
-0.887711
0.892464
0.0289292
-0.0333335
-1.02364
1.02805
0.0377533
-0.0412668
-1.17458
1.1781
0.0443284
-0.0462016
-1.34085
1.34272
0.0469902
-0.0460561
-1.52105
1.52012
0.0438658
-0.0403338
-1.43921
1.43568
0.0364287
-0.0317605
-1.14496
1.14029
0.0273497
-0.0225337
-0.918783
0.913967
0.0182641
-0.0138189
-0.742084
0.737639
0.0100033
-0.00620964
-0.602492
0.598698
0.00323467
-0.000527765
-0.49109
0.488383
-0.00154582
0.00317056
-0.400682
0.399057
-0.00399634
0.0043203
-0.315847
0.315523
-0.00372442
0.00212452
-0.193125
0.194725
-0.000958563
-0.0351418
0.0361004
-0.0885241
0.0862151
0.002309
-0.00884056
0.00957371
-0.454126
0.453393
-0.00822156
0.00546723
-0.571007
0.573761
-0.00149642
-0.00221825
-0.668184
0.671899
0.00628342
-0.0103119
-0.77578
0.779809
0.0147538
-0.0188018
-0.896886
0.900934
0.023286
-0.0269993
-1.03218
1.03589
0.0308777
-0.0340022
-1.18139
1.18452
0.0367147
-0.0384142
-1.34447
1.34617
0.0391974
-0.03883
-1.51934
1.51897
0.0370197
-0.0342204
-1.4321
1.4293
0.0309297
-0.0269759
-1.13583
1.13188
0.023455
-0.0192681
-0.909396
0.905209
0.0156151
-0.0119518
-0.733395
0.729732
0.00874148
-0.00553346
-0.595007
0.591799
0.00296098
-0.000449767
-0.484824
0.482313
-0.0011533
0.00250526
-0.395491
0.394139
-0.00342691
0.00368143
-0.312007
0.311752
-0.00310812
0.00182883
-0.1916
0.192879
-0.000795138
-0.0350354
0.0358305
-0.0873023
0.0855817
0.00172056
-0.00696937
0.00777656
-0.456981
0.456174
-0.00660373
0.00458368
-0.577307
0.579327
-0.00124316
-0.00187072
-0.67536
0.678474
0.0055321
-0.00876672
-0.783567
0.786802
0.0124322
-0.0158228
-0.904941
0.908331
0.0199242
-0.0231604
-1.03961
1.04285
0.0264766
-0.0293805
-1.18749
1.19039
0.0322422
-0.0338601
-1.34798
1.3496
0.0348397
-0.0346398
-1.51842
1.51822
0.0334967
-0.0309563
-1.42656
1.42402
0.028291
-0.0250095
-1.12803
1.12475
0.0218354
-0.0183229
-0.901282
0.89777
0.0150506
-0.0116201
-0.725991
0.722561
0.0089569
-0.00597528
-0.588498
0.585516
0.00350668
-0.00132309
-0.47924
0.477057
-0.000325766
0.00177367
-0.391113
0.389665
-0.00255688
0.00285908
-0.308757
0.308455
-0.00245658
0.00146062
-0.190053
0.191049
-0.000653598
-0.0347745
0.0354281
-0.0867823
0.0854268
0.00135552
-0.00543174
0.00621418
-0.459286
0.458503
-0.00509922
0.00325447
-0.582447
0.584292
-0.00043285
-0.00214075
-0.681398
0.683972
0.00503977
-0.00802725
-0.79007
0.793057
0.011227
-0.0146337
-0.911523
0.914929
0.0179301
-0.0208881
-1.04612
1.04907
0.0242292
-0.0268418
-1.19318
1.19579
0.0292257
-0.0312528
-1.3512
1.35322
0.0324778
-0.0326663
-1.51822
1.51841
0.031822
-0.0299703
-1.42185
1.42
0.0277094
-0.0247929
-1.12133
1.11841
0.0219962
-0.0187625
-0.894262
0.891028
0.0157469
-0.012686
-0.719251
0.71619
0.00988678
-0.00710798
-0.582418
0.579639
0.0048242
-0.00249894
-0.474287
0.471962
0.00072899
0.000547008
-0.386816
0.38554
-0.00144484
0.00197719
-0.305614
0.305082
-0.00186262
0.00110978
-0.188425
0.189178
-0.000521257
-0.0344114
0.0349327
-0.0868034
0.0855872
0.0012161
-0.00408008
0.00455025
-0.461443
0.460973
-0.00364612
0.00190302
-0.586881
0.588624
0.000454529
-0.0028194
-0.68667
0.689035
0.00547198
-0.00800146
-0.795911
0.79844
0.0112054
-0.013771
-0.917774
0.92034
0.0169108
-0.0195779
-1.05212
1.05479
0.0226901
-0.0253993
-1.19835
1.20105
0.0279901
-0.0297889
-1.35505
1.35685
0.0313636
-0.0320049
-1.51865
1.5193
0.0318469
-0.030357
-1.41818
1.41669
0.0285181
-0.0259296
-1.11568
1.11309
0.0233885
-0.0202877
-0.887658
0.884557
0.0174895
-0.0143941
-0.712945
0.70985
0.0116396
-0.0088019
-0.576684
0.573846
0.00636192
-0.00415702
-0.469242
0.467037
0.00221844
-0.000733523
-0.382623
0.381138
-0.00040951
0.00109227
-0.302357
0.301674
-0.00117298
0.000818373
-0.186535
0.186889
-0.000366234
-0.0338974
0.0342636
-0.0869792
0.0860131
0.000966089
-0.00307207
0.00307834
-0.463771
0.463765
-0.00237139
0.000689729
-0.59051
0.592192
0.00125413
-0.00343749
-0.691292
0.693475
0.00586034
-0.00842851
-0.800882
0.80345
0.0109602
-0.0135653
-0.923063
0.925668
0.0165379
-0.0188835
-1.0578
1.06014
0.0219368
-0.0244818
-1.20352
1.20607
0.0270239
-0.0292812
-1.35905
1.3613
0.031322
-0.0322985
-1.52009
1.52107
0.0324682
-0.031727
-1.4155
1.41476
0.0304162
-0.0281203
-1.11048
1.10818
0.025704
-0.022918
-0.881424
0.878638
0.0198385
-0.0168812
-0.706536
0.703578
0.0140876
-0.0110798
-0.571019
0.568012
0.00866279
-0.00617203
-0.464103
0.461612
0.00413589
-0.00222131
-0.378471
0.376556
0.000934587
3.18221e-05
-0.298944
0.297977
-0.000521513
0.000509308
-0.184374
0.184386
-0.000276447
-0.0331416
0.033418
-0.0874071
0.0865533
0.000853812
-0.00234726
0.00242017
-0.466202
0.466129
-0.00119002
-0.000181702
-0.594118
0.595489
0.00218269
-0.0041861
-0.695331
0.697335
0.00639953
-0.00853171
-0.805729
0.807862
0.0110838
-0.013288
-0.928235
0.930439
0.0160755
-0.0186905
-1.06285
1.06546
0.021246
-0.0239582
-1.20859
1.21131
0.026757
-0.0290141
-1.36344
1.3657
0.0313991
-0.033191
-1.52236
1.52415
0.0339143
-0.0339156
-1.41408
1.41408
0.0328974
-0.0310511
-1.10602
1.10418
0.0289614
-0.0261833
-0.875517
0.872739
0.0232665
-0.0201727
-0.700165
0.697071
0.0172635
-0.0140239
-0.564852
0.561613
0.0113077
-0.00865826
-0.458686
0.456037
0.00623903
-0.00407686
-0.373781
0.371618
0.00246446
-0.00117685
-0.2951
0.293813
0.000391873
5.99885e-05
-0.181902
0.18145
-0.000128806
-0.032213
0.0323418
-0.0879808
0.0872574
0.000723447
-0.00158503
0.00147712
-0.468657
0.468765
-0.00041477
-0.00111082
-0.597223
0.598749
0.0029679
-0.00476097
-0.699035
0.700828
0.00698339
-0.00890809
-0.809965
0.81189
0.0112242
-0.0134389
-0.933033
0.935248
0.015997
-0.0184325
-1.06786
1.0703
0.0210143
-0.0235859
-1.21387
1.21644
0.0263881
-0.0292302
-1.36821
1.37105
0.0319776