/*--------------------------------*- C++ -*----------------------------------*\
| =========                 |                                                 |
| \\      /  F ield         | OpenFOAM: The Open Source CFD Toolbox           |
|  \\    /   O peration     | Version:  4.0                                   |
|   \\  /    A nd           | Web:      www.OpenFOAM.org                      |
|    \\/     M anipulation  |                                                 |
\*---------------------------------------------------------------------------*/
FoamFile
{
    version     2.0;
    format      ascii;
    class       volScalarField;
    location    "35";
    object      p;
}
// * * * * * * * * * * * * * * * * * * * * * * * * * * * * * * * * * * * * * //

dimensions      [0 2 -2 0 0 0 0];

internalField   nonuniform List<scalar> 
918
(
0.621938
1.27356
0.00748371
0.621254
0.0149908
1.24061
-0.436358
0.789114
0.602073
-0.0263405
0.0361587
0.59689
1.10117
0.867309
-1.06276
0.0930091
0.739961
-0.316201
0.601076
0.0230648
0.823836
0.608667
0.611702
0.60229
0.664073
0.848826
0.982017
0.00648062
-0.0133874
-0.00873197
0.0703225
0.0671771
0.0626118
1.12425
1.17535
1.19803
0.570457
0.396075
-0.29609
-0.366324
-0.359003
-0.482838
0.780659
0.78287
-0.105056
0.790439
0.800062
0.589298
0.601434
0.60232
0.603425
0.60237
0.603768
0.478151
-0.0320996
-0.0648442
-0.0059498
0.00524771
0.138168
0.0379554
0.0349833
0.0382108
0.0432614
0.521608
0.592834
0.589996
0.601906
0.610062
1.21311
1.18501
1.21116
1.12486
1.14136
1.07913
1.05179
0.887917
0.909737
0.853183
0.842099
-1.50091
-2.46382
-0.466515
-0.211827
-0.0154725
0.0883096
0.09669
0.73099
0.729953
0.741299
0.753594
1.1472
-0.311459
-0.43412
0.601204
0.6
0.608396
0.609091
0.605103
0.604198
0.029394
0.0347377
0.00345514
0.0197583
0.0186942
0.813114
0.811624
0.602834
0.599855
0.617342
0.638018
0.629867
0.354375
0.668166
0.680963
0.67024
0.838136
0.832797
0.841254
0.955403
0.919161
1.01925
1.04234
-0.0207021
-0.0287832
0.0739314
0.0714934
0.0880762
0.566409
0.559173
0.585207
0.57381
0.576216
0.31167
0.176632
0.481815
0.507145
-0.206824
-0.268923
-0.370786
-0.389109
-0.501143
0.671197
0.770792
0.77069
-0.125384
-0.0468685
-0.181733
0.0262344
-0.0339232
0.579718
0.586623
0.581686
0.59705
0.59156
0.593504
0.605659
0.602735
0.604297
0.541802
0.665647
0.404138
0.370758
-0.176695
-0.0842228
-0.178876
0.0173344
0.0228424
0.148258
0.174825
0.12711
0.116091
0.0280714
0.0349377
0.0314327
0.0499143
0.0479033
0.514758
0.504272
0.533838
0.541043
0.583248
0.584333
0.587484
0.586089
1.00248
1.02478
1.03246
1.00628
-3.46554
-6.2697
0.117696
0.256648
-0.0576166
-0.0414957
-0.0307893
0.0638024
-0.00142292
0.00709902
0.0919369
0.0891897
0.0929663
0.093478
0.715568
0.714755
1.06464
1.06304
1.04784
0.996535
0.589264
0.591389
0.596966
0.592801
0.0454278
0.0359188
0.0444835
0.799945
0.807225
0.806465
0.317767
0.232103
0.403109
0.430522
0.70135
0.685505
0.698805
0.731178
0.768499
1.04978
1.06811
1.06628
1.07479
1.11884
1.13525
1.10061
0.546575
0.556156
0.551336
0.588418
0.586105
0.587051
0.582516
0.584014
0.581779
0.0244644
-0.359297
0.561783
0.578585
0.5561
0.563789
0.749435
0.823483
0.753285
0.762679
0.761881
0.0918999
0.0352397
0.328734
0.293863
0.457293
0.491967
0.471997
0.973683
0.934231
0.984285
0.957494
0.918988
0.944294
-0.311003
-1.82544
-0.936079
0.612327
0.422988
0.511792
0.102366
0.0929923
0.0984426
1.05726
1.13643
0.722113
0.887806
0.897818
0.807814
0.837674
0.892571
0.818661
0.852663
0.887465
0.868007
0.627602
0.575065
0.583807
0.891957
0.947094
0.206165
0.151831
0.107685
0.194751
0.248642
0.22361
1.10155
1.00338
1.07478
0.599602
0.600294
-0.0176832
0.00480721
0.604421
0.604466
0.0670777
0.0858949
0.494114
-0.772552
0.195455
0.592898
0.583176
0.600083
-0.00759169
0.436006
0.0322812
0.134829
0.0933635
0.594316
0.531828
0.492942
-0.000933119
0.0799743
0.031502
-0.138185
0.597276
0.595586
0.599545
0.600534
0.601191
-0.00705435
-0.000651162
-0.0381191
0.0193
0.0180173
0.0167811
0.564864
0.581977
-0.0913103
0.599661
0.601793
0.601604
0.594759
0.600456
0.598659
0.079148
0.0758167
0.0725356
0.302581
0.423195
0.741485
0.836681
0.707138
0.480088
0.241312
0.640846
0.706663
0.608884
0.767674
0.763848
0.782908
0.258603
0.111287
0.266826
0.208953
0.590764
0.589407
0.581409
0.578522
0.594935
0.593039
0.597587
0.594535
0.597525
0.598941
0.0300295
0.00831988
-0.00635813
-0.0684295
0.392465
0.653186
0.329949
0.361172
0.226173
0.0440646
0.0435984
0.0311607
0.0290373
0.0838099
0.0776794
0.130818
0.136411
0.113058
0.0922602
0.0787904
0.0752043
0.0683942
0.588089
0.586669
0.592755
0.601468
0.541094
0.544904
0.511279
0.530959
0.517143
0.45787
0.49238
0.467946
0.0486856
0.0340543
0.0274323
0.0763358
0.086447
0.0298135
0.0184956
0.0177243
0.0316561
0.0336225
0.0432338
0.0452251
-0.0966021
-0.209205
1.05194
0.989966
0.192917
0.586475
0.592891
0.58968
0.594485
0.597586
0.598429
0.596192
0.592773
0.58255
0.584335
0.580732
0.581387
-0.0295554
-0.166852
0.00738569
-0.0605231
0.205754
0.694767
0.436071
0.376212
0.370396
0.592346
0.991913
0.787467
0.782531
0.805049
-0.276899
0.119856
-0.209772
0.408852
0.231036
0.738861
0.78978
0.812371
0.759318
0.71072
-0.0457775
0.614353
0.0187121
0.0642218
0.257444
0.148862
0.783625
0.747194
0.752904
0.770637
0.789901
0.752715
0.733096
0.728331
0.766412
0.770254
0.568262
0.335682
0.290933
0.251896
0.730622
0.609045
0.6665
0.578813
0.585683
0.588482
0.58705
0.569514
0.576848
0.572556
0.578337
0.581557
0.590678
0.591025
0.586432
0.588615
0.028384
0.0272285
0.0441133
-0.062845
-0.0514638
-0.111417
0.00597478
0.145102
0.108458
0.302547
0.408899
0.121932
0.00621277
0.0356742
0.06814
0.247286
0.271936
0.15049
0.24449
0.226274
0.212501
0.316162
0.324642
0.0599189
0.0507547
0.0493839
0.0482274
0.104759
0.174767
0.185316
0.0857297
0.0776546
0.0441339
0.0506713
0.0561924
0.0532798
0.0551588
0.0934334
0.00951278
0.0662068
0.0854681
0.0882846
0.0834984
0.0787185
0.581354
0.583303
0.583086
0.590689
0.607304
0.622601
0.582351
0.56287
0.553841
0.556815
0.530461
0.54038
0.536579
0.549376
0.569711
0.578365
0.576542
0.579051
0.562431
0.5638
0.551148
0.554902
0.531141
0.512765
0.501131
0.0241182
0.0219636
0.0324071
0.0320044
0.0443264
0.0456076
0.0915215
0.103849
0.0869302
0.0882172
0.0816269
0.0456326
0.0491823
-0.00478427
0.0734382
-0.112301
-0.144552
-0.213209
0.956168
1.07585
0.880943
0.657092
0.669478
0.908437
0.994423
0.619654
0.802917
0.826423
0.643662
0.907707
0.591303
0.590883
0.588477
0.587966
0.589201
0.0594185
0.160206
0.169035
0.223399
0.337962
0.45117
0.376818
0.252253
0.385417
0.390132
0.690104
0.705653
0.653613
0.677053
0.67455
0.502529
0.580776
0.635958
0.58829
0.634602
0.657118
0.617794
0.648337
0.593827
0.550119
0.54846
0.495903
0.516744
0.495051
0.476997
0.580823
0.558668
0.569044
0.560074
0.57929
0.604969
0.600693
0.629133
0.640139
0.564171
0.523767
0.533556
0.562273
0.522671
0.536028
0.551737
0.28931
0.188886
0.272796
-0.0193164
0.0616264
0.0464807
-0.000610646
0.0449662
0.330967
-0.367599
-0.3404
-0.973268
0.553863
1.02281
0.737031
0.709271
0.785654
0.764484
0.767204
0.790011
0.796962
0.720144
0.738429
0.741924
0.698812
0.722339
0.745112
0.742727
0.588242
0.462385
0.453839
0.413476
0.287948
0.321736
0.52433
0.446885
0.373041
0.376253
0.538855
0.427438
0.493756
0.532313
0.463902
0.418974
0.622918
0.689443
0.679537
0.65471
0.570627
0.584121
0.609194
0.645284
0.67243
0.704488
0.578154
0.583927
0.585208
0.582681
0.57989
0.582809
0.5829
0.585411
0.586267
0.589173
0.58816
0.0368384
0.0485121
0.0377082
0.0300589
0.0542423
0.0491559
0.094021
0.0809268
0.0690328
0.0760917
0.0484102
0.0446489
0.0501688
0.0596193
0.16909
0.183437
0.169276
0.129358
0.314921
0.447472
0.516746
0.393805
0.287781
0.312659
0.336144
0.0652938
0.0947258
0.0796499
0.120293
0.110373
0.0582806
0.0473979
0.0505243
0.0585563
0.0708489
0.051132
0.0597054
0.0635122
0.0568973
0.050997
0.0430419
0.564932
0.55853
0.559641
0.553909
0.552932
0.566338
0.570698
0.572412
0.577719
0.579667
0.570306
0.575671
0.579205
0.084243
0.058395
0.0579873
0.065435
0.0640246
0.0628128
0.0633856
0.186574
0.112613
0.118105
0.0746267
-0.0505491
0.00581817
0.550981
0.54891
0.547708
0.778824
0.630035
0.549502
0.645823
0.75183
0.335699
0.534285
0.367596
0.947635
0.840666
0.986129
0.603935
0.302418
0.45675
0.506985
0.316338
0.388795
0.393716
0.283236
0.314745
0.346505
0.446928
0.325677
0.300115
0.0586375
0.247189
0.362846
0.343994
0.471487
0.534191
0.323041
0.24281
0.1977
0.682148
0.701419
0.721208
0.691258
0.715849
0.640206
0.630794
0.648812
0.656586
0.651721
-0.701758
-0.409824
-1.3538
-0.668977
-0.219823
0.583022
0.546952
0.825109
0.713113
0.777532
0.762896
0.723103
0.689369
0.700849
0.733372
0.432156
0.542853
0.517104
0.523106
0.424943
0.358182
0.657971
0.65211
0.687836
0.712027
0.679778
0.712895
0.575854
0.575489
0.575163
0.571607
0.57
0.572153
0.131402
0.102048
0.134248
0.117639
0.0959329
0.0836674
0.0805287
0.0737375
0.0703471
0.0675766
0.084954
0.0825067
0.22852
0.170147
0.0926657
0.123549
0.063279
-0.00314781
-0.0213953
0.0782417
0.171027
0.161218
0.466321
0.717132
0.538648
0.70688
0.54643
0.601998
0.537817
0.528696
0.557075
0.44161
0.521376
0.282456
-0.219873
-0.128902
0.839986
0.858632
0.640047
0.453818
0.225092
0.414409
0.614711
0.550745
0.589159
0.658159
0.65031
0.0696318
0.137173
0.395558
0.623576
0.293571
0.285043
0.280081
0.453887
0.378854
)
;

boundaryField
{
    wall-4
    {
        type            zeroGradient;
    }
    velocity-inlet-5
    {
        type            zeroGradient;
    }
    velocity-inlet-6
    {
        type            zeroGradient;
    }
    pressure-outlet-7
    {
        type            fixedValue;
        value           uniform 0;
    }
    wall-8
    {
        type            zeroGradient;
    }
    frontAndBackPlanes
    {
        type            empty;
    }
}


// ************************************************************************* //
