/*--------------------------------*- C++ -*----------------------------------*\
| =========                 |                                                 |
| \\      /  F ield         | OpenFOAM: The Open Source CFD Toolbox           |
|  \\    /   O peration     | Version:  4.0                                   |
|   \\  /    A nd           | Web:      www.OpenFOAM.org                      |
|    \\/     M anipulation  |                                                 |
\*---------------------------------------------------------------------------*/
FoamFile
{
    version     2.0;
    format      ascii;
    class       surfaceScalarField;
    location    "35";
    object      phi;
}
// * * * * * * * * * * * * * * * * * * * * * * * * * * * * * * * * * * * * * //

dimensions      [0 3 -1 0 0 0 0];

internalField   nonuniform List<scalar> 
1300
(
3.75095
5.62643
-3.11342
3.75095
-6.03412
5.62643
-4.43976
4.43976
-0.96142
0.96142
1.87643
1.87452
-2.94349
2.94349
-2.36083
2.36083
-2.55823
2.55823
-5.24649
5.24649
-5.06895
5.06895
4.6676
-4.6676
-5.97961
5.97961
-1.32045
1.32045
-3.81091
3.81091
3.16979
-3.16979
-2.28239
2.28239
-0.25485
0.25485
-0.553525
4.30448
3.19743
3.19743
-2.0439
2.0439
-4.8637
4.8637
6.21821
-6.21821
4.61338
-4.61338
-1.49996
-2.28912
0.833921
-10.5318
-5.2002
-5.2002
-8.44039
8.44039
-2.81396
2.81247
2.94381
-2.94381
-1.7788
1.7788
-4.37934
-0.0604262
-4.37934
4.43021
0.00955779
4.43021
-1.05616
0.0947363
-1.05616
3.91826
-3.91826
0.830402
0.131018
0.830402
3.06479
-3.06479
-1.87705
3.75348
1.8739
-1.87186
6.17634
-1.87909
3.75362
-5.95826
5.95826
-3.1631
0.219609
-3.1631
2.76405
0.179439
2.76405
-6.74465
6.74465
-2.39913
0.0382977
-2.39913
2.3717
-0.0108685
2.3717
2.86773
-2.86773
-2.65776
0.0995377
-2.65776
2.44951
0.108719
2.44951
0.353536
5.27289
-5.97997
8.79244
-5.27289
0.026403
5.20843
0.0380569
5.20843
-5.10604
0.0370855
-5.10604
5.01098
0.057968
5.01098
4.75812
-0.0905179
4.75812
-4.78275
0.115157
-4.78275
-3.74152
-5.02975
-6.20428
0.224673
-6.20428
-1.32085
0.000405797
-1.32085
1.27767
0.0427705
1.27767
-3.60738
3.60738
-4.19954
0.388628
-4.19954
3.1242
0.0455829
3.1242
1.8685
1.88245
5.61945
-5.61945
2.44967
-2.32339
0.0409965
-2.32339
-2.31329
-2.30009
2.31329
-0.030902
-0.516876
0.262026
-0.516876
3.15928
0.038147
3.15928
2.29157
0.157935
-2.29157
0.247675
3.2146
-3.2146
1.39612
0.647777
1.39612
-5.56612
5.56612
4.95367
0.0573094
-4.95367
0.0899753
6.15693
0.0612779
6.15693
-6.19954
-0.0186681
-6.19954
2.13336
-4.42247
-2.70913
5.65425
0.325353
-5.65425
0.454051
2.91423
0.0295775
2.91423
-2.92091
2.92091
-2.98311
0.0393046
-2.98311
-2.18116
0.402364
-2.18116
1.47706
0.301736
1.47706
-4.24658
-0.132757
-4.24658
-4.34588
0.146343
4.34588
0.0843234
1.09314
-1.09314
-1.16749
0.111336
-1.16749
-4.07292
-0.173657
4.07292
-0.154666
-3.79126
-0.126997
-3.79126
-3.0235
0.0403912
3.0235
0.0412866
3.1126
0.0466817
-3.1126
0.0478107
-1.87083
3.75328
-1.88012
3.75403
-5.57544
-0.382821
-5.57544
6.26637
-0.308107
6.26637
3.50434
0.30657
-3.50434
0.341246
2.62592
0.138123
2.62592
-6.71667
-0.0279785
-6.71667
6.71509
0.0295596
6.71509
2.50245
0.123479
-2.50245
0.103319
2.34776
0.0239389
2.34776
2.88255
-0.0148164
2.88255
-2.86548
-0.00225026
-2.86548
2.80051
-2.80051
2.7332
0.0673114
-2.7332
0.0754334
-11.133
11.1143
-0.0352731
-11.0977
5.17316
5.17316
4.1871
0.57101
4.1871
-4.99723
0.214477
-4.99723
2.94346
-5.65259
3.96459
-7.7061
5.29041
-15.8222
4.06668
-9.09643
6.54451
-6.54451
6.39424
0.150273
-6.39424
0.189962
-1.34689
0.0260372
-1.34689
-3.00082
-0.60656
-3.00082
4.2609
-0.653525
4.2609
-3.02891
3.02891
-3.07789
0.048982
3.07789
0.0463147
2.35468
-0.00692406
-2.35468
0.0312943
0.678046
0.152355
-0.678046
0.16117
3.40239
-0.187783
3.40239
-3.03601
-0.17859
-3.03601
-1.37037
0.0234798
1.37037
0.0257527
-5.81573
0.249615
-5.81573
-11.1907
0.0929484
-11.1526
-6.10659
-6.10659
2.3338
11.1262
-2.88709
0.0216064
2.88709
0.0271418
2.97602
0.0528847
-2.97602
0.0551127
-2.86265
0.0621392
2.86265
0.0582593
-2.5593
0.378135
-2.5593
-1.06826
1.06826
-1.241
0.172741
1.241
0.236062
1.34675
-0.25361
1.34675
1.23489
0.0427823
-1.23489
0.0674001
-3.68068
-0.110581
-3.68068
6.4896
-0.223237
6.4896
-2.93657
-0.0994475
2.93657
-0.0540184
-0.0332863
11.1476
-5.13988
0.0338392
5.13988
-11.2089
11.2428
-3.23363
0.674334
3.23363
0.953473
5.28781
0.278305
-5.28781
0.290578
6.65513
0.0599567
-6.65513
0.110618
-2.51119
-0.489626
-2.51119
-4.99148
-0.583962
4.99148
-0.730571
-11.4756
-0.203456
11.679
-11.4176
6.01919
0.137748
-6.01919
11.3805
-1.00831
-0.0848258
1.00831
0.0599481
1.66365
-0.316905
1.66365
3.58011
-0.177728
-3.58011
-0.100566
-6.63392
-0.0827466
6.63392
-0.144321
-2.07297
-0.43822
2.07297
-0.409322
-4.26697
4.30512
1.90936
-2.2696
-2.15287
-4.56969
1.85198
1.9013
4.30165
-10.1408
-5.68138
-9.68674
7.26602
-6.97544
-9.27001
9.1795
7.63641
-7.76341
-5.7853
5.83161
6.48223
-6.44094
1.87864
1.87484
7.89394
-7.67433
-15.6936
15.3108
7.48552
-7.44722
15.8185
-15.8465
-17.8436
17.9035
-5.71871
5.81825
-6.72587
6.72362
-6.94696
6.89294
-3.52384
-4.18227
13.0697
-12.845
8.02566
-7.98466
-8.51361
8.90224
3.38247
0.922646
3.42916
-1.88229
3.76092
-1.87133
3.7807
2.79346
-6.31729
2.85913
-5.012
3.69499
4.33067
-3.66409
-0.905605
-5.91912
5.9487
-5.82127
5.87952
8.97518
-9.03561
-1.88519
3.76003
-1.86884
3.77014
-3.42518
-2.36011
3.3796
0.92205
7.89536
5.17434
-8.22071
-1.46603
-7.88275
7.70502
-8.16017
7.98158
-0.44156
5.82033
-5.37877
4.42214
-1.55776
7.37809
5.70826
5.92274
5.86643
-5.58812
1.10901
-6.48778
-6.39781
-2.52844
2.63977
2.4594
-2.32838
5.9902
1.64621
5.83554
-5.59078
-2.17263
-5.70136
3.82115
2.01046
3.87014
4.07674
2.40549
4.11713
3.03084
-3.03577
0.00492149
-3.05634
6.08719
0.724265
-5.41646
-4.49441
4.93931
2.95462
5.11875
-5.47787
-2.19646
-5.13662
-9.57242
-6.12116
-10.1564
10.1282
5.18252
9.82013
-11.9988
11.8545
4.77766
2.70785
4.76679
-4.92857
-2.51865
-4.82525
11.6562
-2.57446
-9.08178
-10.3232
-7.52033
10.2937
5.52488
10.9293
6.97422
11.0399
4.42159
7.23465
-9.94647
2.42614
-3.86783
-1.85088
-3.7924
3.69009
2.12815
3.79881
-4.21308
-2.51278
-4.19148
-4.28699
-2.65997
4.3018
2.42181
-4.40123
-3.75893
4.50068
2.39226
4.63042
-10.3118
4.46601
-8.64827
-9.1814
-3.66362
-8.99144
3.67512
3.03758
-6.7127
-2.64217
8.55978
-4.22911
7.65417
-4.83917
-3.14549
-4.80788
-6.80806
-1.70555
-6.66172
-8.89595
8.40632
-9.20716
8.55364
12.6408
-5.70772
-6.93304
-3.96817
-2.47277
3.92036
-0.491205
-3.71096
3.71588
0.0499661
3.83066
4.75331
4.2621
-3.88702
-1.93425
-3.83191
3.83212
2.04741
3.89426
6.75641
2.21878
6.76596
-6.46986
-2.56575
-6.60261
9.07001
-8.66765
2.89237
-2.86889
5.30753
2.67405
-5.11975
-2.763
6.20868
-3.15988
-3.04881
-12.2087
10.5572
1.65153
-4.83061
-0.408476
-0.153625
-5.49902
-3.77099
5.38387
0.538873
11.096
7.32506
-5.51213
5.76174
6.16688
6.22419
-0.173619
5.83253
-5.1582
5.31664
-2.43044
-2.8862
5.32405
-5.49771
-1.27856
-5.35386
4.0753
0.337829
1.72281
-1.46078
-1.98823
-0.540209
-1.92083
1.47649
0.982908
1.62885
0.961848
1.67793
-2.95578
0.555719
2.40006
-1.99394
-1.77266
-3.69496
-1.05162
4.74659
5.5997
2.10531
-5.49914
-0.202224
2.67826
-2.63549
-0.764511
-2.93045
2.14588
-2.91039
-3.64947
-1.8989
5.54837
-3.37067
-0.461236
3.31779
0.552349
-3.8255
-2.09362
3.7862
0.330934
-3.12479
6.19046
-3.06567
-5.05904
2.52869
3.5585
4.53915
-4.78984
2.44643
2.34341
-1.23135
4.22341
0.895344
4.36153
-6.75743
4.56098
5.74662
3.15561
-6.05319
0.916569
-5.84086
8.45212
-7.27831
-1.17381
4.07092
4.3812
7.14972
5.49105
-5.71868
12.8684
-1.15733
-6.12098
6.99819
-3.84258
4.78364
-8.62622
-10.2747
4.1537
-9.24188
11.0113
-1.76943
-3.62267
-8.37616
12.8645
-1.22074
-11.6438
8.59939
-4.19213
-4.25543
8.44757
-6.7666
6.77408
-1.95673
-4.81734
-10.1412
-5.70534
10.2239
1.63058
-9.82747
12.2536
-2.59281
4.06226
0.704529
4.0862
3.24579
-5.39102
2.14524
3.52081
-5.47754
2.06901
-7.46003
-6.81616
12.2142
-5.39803
-10.4798
-9.57229
-0.90748
2.49701
9.7566
-9.47122
7.37355
2.09768
3.30949
0.584769
-3.3768
-0.415598
0.259079
4.53464
-4.79372
4.05789
4.21583
3.34953
1.18512
3.84008
2.10862
-3.86722
-0.324251
-4.1558
1.49583
-1.73398
-3.66883
5.16466
-4.06311
0.394274
-2.73378
-3.50893
6.24271
-4.58466
3.03942
3.15104
5.08683
-4.91267
1.40374
-2.40096
-2.51172
2.65936
-4.39335
1.96385
3.20081
4.35611
0.597174
6.06062
6.15357
-9.09819
0.44992
11.3279
-9.86188
2.50315
8.53677
-9.87669
0.304402
-8.68704
1.30317
-5.53228
-5.40953
5.10797
-6.81351
-3.51825
6.1477
0.618262
-6.23202
-0.429693
-6.04355
-2.8524
-6.48177
-3.06039
-6.14677
-8.77906
-1.65299
-7.12608
6.75333
-6.69848
-3.4579
7.42905
1.12459
-7.40778
7.32295
-7.48875
7.17185
0.0948606
3.62102
4.35696
1.88419
-2.38967
4.27386
-5.091
7.30977
-8.60165
3.51065
4.0559
-6.62165
-4.54574
5.03374
4.03628
5.33547
8.92745
-10.4397
1.51225
-10.7368
12.0691
-1.33229
-16.5126
5.7758
-7.58513
2.6164
0.275976
2.64243
0.634918
2.45779
-3.09271
-2.23398
-2.20822
-2.35837
-3.45265
5.81101
1.16624
-3.45023
2.28399
-3.5079
4.67414
-0.0799716
-3.37026
5.30196
-2.84418
5.57794
-3.58787
1.99007
3.36451
5.72862
-2.36411
4.37302
-1.69897
1.84262
-4.20674
-1.61002
-2.96744
5.09559
-3.27528
3.66955
-0.301866
3.97142
-4.08265
0.922777
-0.733127
3.4827
3.73038
4.28297
-3.09785
2.97257
-4.67155
-1.23416
-4.07437
-0.873564
-0.305907
-3.74992
4.05583
6.02874
-6.33465
-5.25949
9.56337
-4.30388
7.71647
-5.40288
-2.3136
-4.27045
-4.3972
3.89232
1.94022
9.65669
0.208867
-5.61174
-4.94933
-3.99586
3.20904
2.1076
-1.92257
3.5741
2.0762
-0.35339
0.555926
1.07292
1.85668
-1.30075
0.226687
1.62999
-1.23409
1.9646
0.713654
-2.00739
0.0865563
-1.35074
3.49662
1.04932
-2.03223
0.731478
1.0587
-3.48914
4.85843
-2.5008
-2.35763
5.91713
1.16535
-3.66615
4.18851
-3.85068
2.33418
-3.38581
-1.33196
-5.18265
-3.53644
-2.56255
4.84654
-3.24847
5.35378
1.19707
-5.15156
6.34862
-3.5917
1.6928
-3.07985
3.79351
-1.08243
-1.99742
2.82567
2.7227
-2.954
0.023545
-0.128328
2.33974
-2.46807
-0.570648
-2.56458
-4.57204
4.90298
-2.10731
4.55374
2.16655
-1.91463
6.46837
1.81114
-3.72578
-3.24789
-3.70913
-1.38237
3.15678
-0.568108
-4.25715
-5.38545
4.13367
0.227865
-6.86629
7.67078
-0.804495
-3.91166
-0.649315
4.72024
-5.95149
0.473948
-3.88249
3.78829
4.68364
4.9115
-11.437
-0.206762
-6.25453
1.13928
-7.39381
5.52048
-3.58199
7.73569
-10.411
6.95309
-9.2864
6.56188
-0.831925
6.25877
-4.11353
2.82301
-8.52836
-6.89777
5.44032
-2.73246
6.14485
-3.12229
9.26713
-5.7151
5.20374
4.06339
-0.794966
-4.01291
-5.27011
4.47515
-0.066368
4.01984
4.97361
-2.86499
4.64936
2.25677
-4.65773
-2.13657
-6.49811
1.84038
-3.34707
-1.91679
3.75717
3.17004
3.75481
1.24545
-3.33921
7.30076
-8.20824
-1.90273
-3.5068
5.32154
-0.846395
3.35623
-6.86302
-2.17605
4.85851
-0.794709
-4.06381
0.849208
-4.36746
1.65459
-6.02205
5.15892
-5.58861
2.21243
-9.79756
-5.19535
-5.1354
-2.24993
-5.23883
-7.60632
5.35639
-1.83052
5.49244
-8.5762
7.78149
-3.49287
8.84927
-5.43551
-1.04626
5.84483
1.32702
10.1763
0.162248
-4.70799
-1.87183
3.93711
-2.06528
1.33721
-3.58768
0.349431
2.48154
3.43559
-6.55684
-0.0648082
-4.7728
-3.92109
7.95737
5.64228
11.671
1.23132
9.14913
-1.19176
10.3804
4.14371
4.37977
-3.03173
4.54397
1.0241
4.53475
-0.836838
2.82691
1.8056
1.806
0.829485
2.31874
1.41163
3.24152
0.148813
-2.05941
4.63795
-8.63381
-0.973796
-8.0628
1.1167
5.727
-4.6103
3.09861
-0.991013
1.03333
0.0897902
-1.60811
1.51832
-2.79641
-1.9615
-0.331507
-1.62657
2.35805
1.87006
-2.02654
-0.769866
0.330503
-3.86694
3.0553
-3.03176
-0.309056
6.03957
-2.75606
0.287991
-1.06326
-2.27659
-2.8168
2.73025
6.17737
0.291001
3.11171
5.19398
3.10036
0.235368
3.90533
-5.67476
-3.5547
-5.88153
-0.361046
4.35919
1.79049
7.96611
5.85388
5.00748
-1.85554
-10.0638
6.57809
-2.03412
5.2458
-1.18199
-4.84006
4.98672
2.32305
-5.60498
0.0163687
-4.82369
-6.8578
-0.521721
8.30321
-9.65456
8.6083
5.7559
1.37017
-4.40725
-0.728153
4.23451
0.145267
10.5257
-1.12912
-6.81616
7.94528
-4.59788
3.62408
0.833278
2.74082
2.35159
1.36058
-5.45558
-10.0659
-1.9214
-1.56775
-4.27903
0.467556
-2.33761
6.25014
-2.62605
3.93654
5.31923
6.35256
-2.16056
-4.17409
6.46444
-2.5279
3.82466
)
;

boundaryField
{
    wall-4
    {
        type            calculated;
        value           uniform 0;
    }
    velocity-inlet-5
    {
        type            calculated;
        value           uniform -3.75095;
    }
    velocity-inlet-6
    {
        type            calculated;
        value           uniform -5.62643;
    }
    pressure-outlet-7
    {
        type            calculated;
        value           nonuniform List<scalar> 8(3.11342 6.03412 3.78907 9.69784 8.77127 4.84249 6.90804 9.35709);
    }
    wall-8
    {
        type            calculated;
        value           uniform 0;
    }
    frontAndBackPlanes
    {
        type            empty;
        value           nonuniform 0();
    }
}


// ************************************************************************* //
