/*--------------------------------*- C++ -*----------------------------------*\
| =========                 |                                                 |
| \\      /  F ield         | OpenFOAM: The Open Source CFD Toolbox           |
|  \\    /   O peration     | Version:  4.0                                   |
|   \\  /    A nd           | Web:      www.OpenFOAM.org                      |
|    \\/     M anipulation  |                                                 |
\*---------------------------------------------------------------------------*/
FoamFile
{
    version     2.0;
    format      ascii;
    class       volScalarField;
    location    "0.007";
    object      mag(U);
}
// * * * * * * * * * * * * * * * * * * * * * * * * * * * * * * * * * * * * * //

dimensions      [0 1 -1 0 0 0 0];

internalField   nonuniform List<scalar> 
10000
(
8.89825e-13
8.46063e-13
8.46063e-13
8.16889e-13
5.83492e-13
4.95968e-13
2.04222e-13
5.83492e-14
1.31286e-13
5.83492e-14
1.45873e-14
1.16698e-13
2.47984e-13
4.95968e-13
2.91746e-13
2.62571e-13
2.62571e-13
2.91746e-13
4.37619e-13
4.23032e-13
3.7927e-13
4.37619e-13
1.02111e-13
1.75048e-13
1.45873e-14
1.89635e-13
2.91746e-13
7.14778e-13
3.64683e-13
6.27254e-13
6.85603e-13
6.71016e-13
4.08444e-13
6.56429e-13
2.47984e-13
3.7927e-13
2.91746e-13
2.33397e-13
1.16698e-13
4.66794e-13
1.89635e-13
1.75048e-13
1.45873e-14
4.66794e-13
4.52206e-13
6.12667e-13
8.02302e-13
7.5854e-13
1.07946e-12
1.06487e-12
1.41497e-12
1.23992e-12
1.47332e-12
1.61919e-12
1.82341e-12
1.64836e-12
1.94011e-12
1.67754e-12
1.7213e-12
1.34203e-12
1.57543e-12
1.18157e-12
1.73589e-12
1.35662e-12
1.88176e-12
1.51708e-12
1.838e-12
1.40038e-12
1.63378e-12
1.16698e-12
1.18157e-12
1.13781e-12
1.34203e-12
1.05029e-12
1.28368e-12
1.09405e-12
1.41497e-12
1.2691e-12
1.28368e-12
1.28368e-12
1.12322e-12
8.60651e-13
1.18157e-12
1.0357e-12
1.13781e-12
8.31476e-13
1.02111e-12
8.31476e-13
1.18157e-12
7.73127e-13
1.31286e-12
9.04413e-13
1.12322e-12
8.46063e-13
1.0357e-12
8.16889e-13
8.46063e-13
7.14778e-13
5.98079e-13
4.52206e-13
6.41841e-13
2.62571e-13
2.1881e-13
5.83492e-14
2.1881e-13
4.08444e-13
8.02302e-13
9.19e-13
1.00652e-12
1.25451e-12
1.2691e-12
1.25451e-12
1.79424e-12
1.40038e-12
1.99846e-12
1.13781e-12
1.79424e-12
1.25451e-12
1.47332e-12
1.29827e-12
1.25451e-12
1.41497e-12
1.2691e-12
1.42956e-12
1.00652e-12
1.23992e-12
9.33587e-13
1.16698e-12
6.85603e-13
1.19616e-12
6.41841e-13
1.12322e-12
7.87714e-13
1.18157e-12
4.23032e-13
1.02111e-12
3.50095e-13
9.04413e-13
3.06333e-13
5.83492e-13
8.75238e-14
3.7927e-13
5.83492e-14
2.91746e-14
3.64683e-13
2.91746e-14
6.85603e-13
7.0019e-13
1.37121e-12
1.41497e-12
1.69213e-12
1.73589e-12
1.85259e-12
1.70671e-12
1.88176e-12
1.91094e-12
1.56084e-12
1.37121e-12
1.77965e-12
1.23992e-12
1.75048e-12
1.29827e-12
2.05681e-12
1.37121e-12
1.85259e-12
1.53167e-12
1.92552e-12
1.31286e-12
1.76506e-12
1.69213e-12
2.0714e-12
2.0714e-12
2.47984e-12
2.29021e-12
2.26103e-12
2.30479e-12
2.33397e-12
2.36314e-12
2.42149e-12
2.21727e-12
2.39232e-12
2.65489e-12
2.65489e-12
2.84452e-12
3.04875e-12
2.80076e-12
2.81535e-12
3.13627e-12
3.01957e-12
3.26756e-12
3.41343e-12
3.5593e-12
3.73435e-12
4.17197e-12
3.70517e-12
4.30325e-12
4.50748e-12
4.65335e-12
4.39078e-12
4.97427e-12
4.68252e-12
5.10556e-12
4.90133e-12
4.56582e-12
4.84298e-12
4.93051e-12
4.39078e-12
4.60959e-12
3.96775e-12
3.99692e-12
3.71976e-12
3.53013e-12
3.66141e-12
3.34049e-12
3.36967e-12
3.10709e-12
3.5593e-12
3.09251e-12
3.39884e-12
3.12168e-12
3.10709e-12
2.8737e-12
2.9904e-12
2.78617e-12
2.39232e-12
2.6403e-12
2.08598e-12
1.838e-12
1.47332e-12
1.44414e-12
1.1524e-12
1.23992e-12
9.77349e-13
1.19616e-12
1.13781e-12
1.44414e-12
1.25451e-12
1.25451e-12
1.22533e-12
1.4879e-12
1.88176e-12
1.69213e-12
2.34856e-12
2.10057e-12
2.68406e-12
2.29021e-12
2.88829e-12
2.88829e-12
2.90287e-12
3.12168e-12
3.28214e-12
3.69059e-12
3.51554e-12
3.9094e-12
3.83646e-12
3.96775e-12
3.82187e-12
4.33243e-12
3.70517e-12
3.85105e-12
3.98233e-12
3.66141e-12
3.45719e-12
3.66141e-12
3.06333e-12
3.03416e-12
3.04875e-12
2.62571e-12
2.8737e-12
2.80076e-12
2.84452e-12
3.10709e-12
2.46525e-12
2.757e-12
2.49443e-12
2.757e-12
2.43608e-12
3.16544e-12
2.56736e-12
3.06333e-12
2.757e-12
3.19462e-12
2.55278e-12
3.06333e-12
2.74241e-12
3.10709e-12
2.74241e-12
3.10709e-12
2.81535e-12
3.26756e-12
2.88829e-12
3.13627e-12
2.88829e-12
3.18003e-12
2.53819e-12
2.80076e-12
2.27562e-12
2.55278e-12
1.9547e-12
2.43608e-12
2.37773e-12
2.80076e-12
2.69865e-12
3.01957e-12
2.90287e-12
3.19462e-12
2.93205e-12
3.4426e-12
3.03416e-12
3.39884e-12
3.34049e-12
3.5593e-12
3.76352e-12
3.96775e-12
3.70517e-12
4.18656e-12
3.98233e-12
4.40536e-12
4.15738e-12
4.53665e-12
4.56582e-12
4.78463e-12
4.60959e-12
4.79922e-12
5.04721e-12
4.8284e-12
5.03262e-12
4.88675e-12
5.1639e-12
4.95968e-12
5.10556e-12
4.65335e-12
4.94509e-12
4.43454e-12
4.46371e-12
4.18656e-12
4.18656e-12
3.82187e-12
3.69059e-12
3.41343e-12
3.36967e-12
3.38425e-12
3.34049e-12
3.25297e-12
3.04875e-12
3.18003e-12
2.82994e-12
3.26756e-12
3.00498e-12
3.99692e-12
3.06333e-12
3.89481e-12
3.35508e-12
3.99692e-12
3.74894e-12
4.34702e-12
4.20114e-12
4.53665e-12
4.65335e-12
5.1639e-12
4.88675e-12
5.47024e-12
5.64529e-12
5.52859e-12
5.96621e-12
6.00997e-12
6.22878e-12
6.56429e-12
6.24336e-12
6.57887e-12
6.78309e-12
6.94355e-12
7.32282e-12
7.06025e-12
6.82686e-12
6.71016e-12
6.91438e-12
6.433e-12
6.73933e-12
7.08943e-12
6.62263e-12
6.17043e-12
6.68098e-12
6.433e-12
6.22878e-12
6.79768e-12
5.52859e-12
6.38924e-12
5.60152e-12
5.83492e-12
5.79116e-12
6.0829e-12
5.35354e-12
6.02455e-12
5.42648e-12
5.90786e-12
5.60152e-12
5.73281e-12
5.38271e-12
5.60152e-12
5.25143e-12
5.41189e-12
5.04721e-12
5.06179e-12
4.62417e-12
4.46371e-12
4.21573e-12
3.99692e-12
3.89481e-12
3.76352e-12
3.31132e-12
3.10709e-12
3.25297e-12
3.20921e-12
2.74241e-12
2.93205e-12
2.69865e-12
2.49443e-12
2.50902e-12
2.6403e-12
2.4069e-12
3.06333e-12
2.69865e-12
2.80076e-12
2.69865e-12
3.04875e-12
2.88829e-12
3.4426e-12
3.22379e-12
3.71976e-12
3.20921e-12
3.77811e-12
3.54471e-12
3.9094e-12
3.86563e-12
4.41995e-12
4.25949e-12
4.68252e-12
4.43454e-12
4.62417e-12
4.01151e-12
4.78463e-12
4.68252e-12
4.93051e-12
5.38271e-12
5.19308e-12
5.14932e-12
5.41189e-12
5.61611e-12
5.57235e-12
5.70363e-12
5.95162e-12
5.67446e-12
5.71822e-12
5.96621e-12
6.06832e-12
6.25795e-12
6.49135e-12
6.60805e-12
7.03108e-12
7.10402e-12
7.71668e-12
7.76044e-12
8.40228e-12
7.62916e-12
8.79614e-12
8.41687e-12
8.51898e-12
8.28559e-12
8.73779e-12
8.48981e-12
8.5044e-12
8.66486e-12
8.44605e-12
8.16889e-12
8.31476e-12
8.24182e-12
7.95008e-12
8.37311e-12
7.74586e-12
7.67292e-12
7.4687e-12
7.43952e-12
7.06025e-12
7.36659e-12
6.92897e-12
6.98732e-12
6.88521e-12
6.76851e-12
6.50594e-12
6.56429e-12
5.92244e-12
6.49135e-12
5.55776e-12
6.62263e-12
5.96621e-12
6.72475e-12
5.77657e-12
6.73933e-12
5.79116e-12
6.33089e-12
5.60152e-12
6.62263e-12
5.83492e-12
6.15584e-12
5.70363e-12
6.02455e-12
4.94509e-12
5.64529e-12
5.17849e-12
5.58694e-12
5.2806e-12
5.6307e-12
5.1639e-12
5.93703e-12
5.52859e-12
5.61611e-12
5.6307e-12
5.84951e-12
5.77657e-12
6.06832e-12
5.55776e-12
6.15584e-12
5.89327e-12
6.11208e-12
6.79768e-12
6.18502e-12
6.59346e-12
6.65181e-12
6.81227e-12
6.78309e-12
7.20613e-12
6.76851e-12
7.29365e-12
7.10402e-12
7.20613e-12
7.19154e-12
7.0019e-12
7.42494e-12
6.84144e-12
7.10402e-12
6.73933e-12
6.81227e-12
6.40382e-12
6.72475e-12
5.70363e-12
6.49135e-12
5.7474e-12
6.37465e-12
6.1996e-12
6.50594e-12
6.37465e-12
6.28713e-12
6.50594e-12
7.04567e-12
6.89979e-12
7.41035e-12
7.24989e-12
7.74586e-12
7.9209e-12
8.05219e-12
8.0376e-12
9.13165e-12
7.90632e-12
9.13165e-12
8.05219e-12
9.13165e-12
8.12513e-12
9.58386e-12
8.16889e-12
9.39422e-12
8.69403e-12
9.27752e-12
8.85449e-12
9.39422e-12
8.8399e-12
9.45257e-12
9.26294e-12
9.13165e-12
9.56927e-12
9.23376e-12
9.19e-12
8.85449e-12
8.82532e-12
8.53357e-12
8.86908e-12
8.62109e-12
8.75238e-12
8.30017e-12
8.31476e-12
7.84797e-12
8.21265e-12
7.48329e-12
7.41035e-12
6.95814e-12
7.03108e-12
6.78309e-12
6.62263e-12
6.433e-12
6.60805e-12
6.40382e-12
6.46217e-12
6.72475e-12
6.40382e-12
6.92897e-12
6.81227e-12
7.54163e-12
7.07484e-12
7.49787e-12
7.43952e-12
7.62916e-12
7.61457e-12
8.24182e-12
7.9209e-12
8.48981e-12
8.34394e-12
8.75238e-12
8.86908e-12
8.78155e-12
9.33587e-12
9.11706e-12
9.68597e-12
8.9566e-12
9.74432e-12
8.94202e-12
9.43798e-12
9.05871e-12
9.27752e-12
9.02954e-12
9.14624e-12
9.01495e-12
8.79614e-12
8.73779e-12
8.70862e-12
8.65027e-12
8.28559e-12
8.02302e-12
8.02302e-12
7.52705e-12
7.95008e-12
7.5854e-12
7.24989e-12
7.62916e-12
7.43952e-12
7.97925e-12
7.77503e-12
7.99384e-12
8.35852e-12
7.84797e-12
8.56275e-12
8.37311e-12
8.89825e-12
9.0733e-12
9.35046e-12
9.36505e-12
9.96313e-12
9.91936e-12
1.01819e-11
1.04737e-11
1.0605e-11
1.01673e-11
1.03278e-11
9.80267e-12
1.04737e-11
1.0284e-11
1.06196e-11
1.0109e-11
1.0853e-11
9.94854e-12
1.09405e-11
1.02111e-11
1.07508e-11
1.00652e-11
1.04883e-11
9.93395e-12
1.07946e-11
1.03132e-11
1.09842e-11
1.00652e-11
1.09988e-11
1.0357e-11
1.12176e-11
1.07071e-11
1.08675e-11
1.08384e-11
1.07071e-11
1.06633e-11
1.0853e-11
1.0532e-11
1.04445e-11
9.8756e-12
1.02111e-11
9.37963e-12
9.48175e-12
9.26294e-12
9.36505e-12
8.19806e-12
8.70862e-12
8.5044e-12
8.41687e-12
8.41687e-12
8.76697e-12
8.21265e-12
9.26294e-12
8.67944e-12
8.79614e-12
8.91284e-12
9.19e-12
9.58386e-12
9.51092e-12
9.68597e-12
9.68597e-12
9.94854e-12
9.9923e-12
1.07071e-11
1.03862e-11
1.05612e-11
1.04591e-11
1.08092e-11
1.07946e-11
1.13197e-11
1.11739e-11
1.14219e-11
1.13343e-11
1.15969e-11
1.16407e-11
1.16553e-11
1.19032e-11
1.17282e-11
1.19324e-11
1.20637e-11
1.20783e-11
1.21658e-11
1.25888e-11
1.25305e-11
1.2691e-11
1.24721e-11
1.26764e-11
1.24576e-11
1.237e-11
1.17865e-11
1.19762e-11
1.1699e-11
1.18595e-11
1.12176e-11
1.13343e-11
1.078e-11
1.0853e-11
1.03716e-11
1.0357e-11
1.04445e-11
1.03424e-11
1.05904e-11
1.02403e-11
1.05029e-11
1.01965e-11
1.08967e-11
1.00215e-11
1.07508e-11
1.0109e-11
1.11301e-11
1.02549e-11
1.18157e-11
1.00069e-11
1.15677e-11
1.078e-11
1.15823e-11
1.09988e-11
1.15969e-11
1.13489e-11
1.21804e-11
1.14073e-11
1.21075e-11
1.13489e-11
1.16407e-11
1.18157e-11
1.22242e-11
1.23409e-11
1.24284e-11
1.26326e-11
1.26326e-11
1.30848e-11
1.25159e-11
1.34787e-11
1.27639e-11
1.3785e-11
1.29389e-11
1.3289e-11
1.27931e-11
1.30848e-11
1.32744e-11
1.25013e-11
1.32744e-11
1.2618e-11
1.35662e-11
1.27493e-11
1.32453e-11
1.25743e-11
1.33766e-11
1.24867e-11
1.31286e-11
1.25305e-11
1.28368e-11
1.27055e-11
1.29243e-11
1.24721e-11
1.27931e-11
1.22971e-11
1.25451e-11
1.2618e-11
1.24138e-11
1.28368e-11
1.25743e-11
1.28222e-11
1.31723e-11
1.32599e-11
1.30848e-11
1.3114e-11
1.29973e-11
1.27347e-11
1.29681e-11
1.20783e-11
1.26618e-11
1.17428e-11
1.25159e-11
1.15969e-11
1.18011e-11
1.12322e-11
1.19178e-11
1.08821e-11
1.14073e-11
1.09259e-11
1.11739e-11
1.11009e-11
1.12906e-11
1.09113e-11
1.13781e-11
1.12322e-11
1.1203e-11
1.18595e-11
1.16261e-11
1.15531e-11
1.1451e-11
1.22242e-11
1.12614e-11
1.20053e-11
1.16261e-11
1.20053e-11
1.19178e-11
1.27931e-11
1.23409e-11
1.30265e-11
1.29243e-11
1.30265e-11
1.27201e-11
1.34203e-11
1.28806e-11
1.3362e-11
1.27347e-11
1.35224e-11
1.30994e-11
1.37266e-11
1.3362e-11
1.39163e-11
1.37558e-11
1.43247e-11
1.40622e-11
1.45873e-11
1.39455e-11
1.47332e-11
1.41205e-11
1.46311e-11
1.39017e-11
1.45873e-11
1.3537e-11
1.40038e-11
1.31432e-11
1.33911e-11
1.27639e-11
1.27347e-11
1.29243e-11
1.24721e-11
1.23992e-11
1.24138e-11
1.20783e-11
1.20783e-11
1.2122e-11
1.27347e-11
1.25597e-11
1.27493e-11
1.3114e-11
1.29681e-11
1.3289e-11
1.37704e-11
1.36683e-11
1.35808e-11
1.4033e-11
1.36245e-11
1.40476e-11
1.4033e-11
1.43247e-11
1.43831e-11
1.47478e-11
1.44998e-11
1.49374e-11
1.49228e-11
1.53313e-11
1.5623e-11
1.59585e-11
1.63378e-11
1.55938e-11
1.65566e-11
1.59002e-11
1.64982e-11
1.65712e-11
1.70088e-11
1.60898e-11
1.75631e-11
1.65712e-11
1.73589e-11
1.74902e-11
1.67608e-11
1.68483e-11
1.70963e-11
1.62794e-11
1.679e-11
1.64253e-11
1.68629e-11
1.65566e-11
1.66587e-11
1.58418e-11
1.64691e-11
1.53604e-11
1.62211e-11
1.50979e-11
1.6046e-11
1.46894e-11
1.55792e-11
1.4704e-11
1.49228e-11
1.40913e-11
1.4952e-11
1.35808e-11
1.42226e-11
1.34057e-11
1.37996e-11
1.34349e-11
1.3362e-11
1.31869e-11
1.31577e-11
1.3114e-11
1.27201e-11
1.29827e-11
1.28952e-11
1.2618e-11
1.30265e-11
1.27639e-11
1.34203e-11
1.29535e-11
1.33036e-11
1.26326e-11
1.29535e-11
1.29827e-11
1.29098e-11
1.32307e-11
1.31286e-11
1.34787e-11
1.39892e-11
1.39746e-11
1.38725e-11
1.43101e-11
1.4281e-11
1.44123e-11
1.46602e-11
1.46165e-11
1.49957e-11
1.43977e-11
1.54917e-11
1.4952e-11
1.59439e-11
1.52875e-11
1.63086e-11
1.54771e-11
1.65274e-11
1.6294e-11
1.64107e-11
1.61044e-11
1.67608e-11
1.58272e-11
1.70234e-11
1.62794e-11
1.64982e-11
1.69796e-11
1.61336e-11
1.68775e-11
1.63524e-11
1.74026e-11
1.67025e-11
1.79132e-11
1.67025e-11
1.80737e-11
1.64545e-11
1.81612e-11
1.68483e-11
1.82633e-11
1.62211e-11
1.77673e-11
1.64545e-11
1.70234e-11
1.62357e-11
1.69359e-11
1.59585e-11
1.64691e-11
1.59002e-11
1.58418e-11
1.57251e-11
1.56668e-11
1.53458e-11
1.54625e-11
1.57397e-11
1.54625e-11
1.55938e-11
1.49812e-11
1.54625e-11
1.47332e-11
1.52146e-11
1.42226e-11
1.49082e-11
1.42956e-11
1.52e-11
1.44268e-11
1.46165e-11
1.40476e-11
1.4281e-11
1.38142e-11
1.40913e-11
1.36829e-11
1.38579e-11
1.36537e-11
1.38288e-11
1.34349e-11
1.37996e-11
1.35516e-11
1.32307e-11
1.41497e-11
1.28952e-11
1.396e-11
1.29243e-11
1.37996e-11
1.30556e-11
1.37412e-11
1.32015e-11
1.38579e-11
1.36391e-11
1.31577e-11
1.4033e-11
1.30265e-11
1.40767e-11
1.33766e-11
1.43685e-11
1.36683e-11
1.41205e-11
1.40913e-11
1.41643e-11
1.4033e-11
1.39455e-11
1.43393e-11
1.43685e-11
1.48207e-11
1.4529e-11
1.53167e-11
1.48207e-11
1.58126e-11
1.54771e-11
1.59731e-11
1.54042e-11
1.59147e-11
1.56959e-11
1.5871e-11
1.62211e-11
1.63378e-11
1.64982e-11
1.68192e-11
1.62065e-11
1.70526e-11
1.63961e-11
1.74318e-11
1.6367e-11
1.79278e-11
1.61919e-11
1.75339e-11
1.69359e-11
1.75485e-11
1.69067e-11
1.73735e-11
1.76652e-11
1.71838e-11
1.79278e-11
1.7709e-11
1.81612e-11
1.74172e-11
1.82195e-11
1.82195e-11
1.80153e-11
1.77673e-11
1.83362e-11
1.82925e-11
1.82195e-11
1.78549e-11
1.81758e-11
1.78403e-11
1.81904e-11
1.73589e-11
1.77673e-11
1.80445e-11
1.76944e-11
1.78111e-11
1.74902e-11
1.82633e-11
1.70234e-11
1.82633e-11
1.71109e-11
1.80737e-11
1.76506e-11
1.75631e-11
1.75485e-11
1.69213e-11
1.70671e-11
1.64545e-11
1.66879e-11
1.56376e-11
1.69359e-11
1.56522e-11
1.62503e-11
1.58126e-11
1.61336e-11
1.56959e-11
1.61336e-11
1.56376e-11
1.6119e-11
1.55063e-11
1.59293e-11
1.4879e-11
1.5798e-11
1.48353e-11
1.52875e-11
1.4704e-11
1.54042e-11
1.43247e-11
1.50395e-11
1.39163e-11
1.51124e-11
1.41205e-11
1.44123e-11
1.4208e-11
1.43101e-11
1.42664e-11
1.38579e-11
1.41205e-11
1.39892e-11
1.43685e-11
1.39163e-11
1.43247e-11
1.43685e-11
1.46894e-11
1.47915e-11
1.53167e-11
1.51854e-11
1.55501e-11
1.54334e-11
1.56376e-11
1.56813e-11
1.53896e-11
1.58564e-11
1.54625e-11
1.5798e-11
1.49812e-11
1.60606e-11
1.54042e-11
1.59147e-11
1.55355e-11
1.5871e-11
1.51416e-11
1.55792e-11
1.48207e-11
1.52583e-11
1.47186e-11
1.51416e-11
1.51416e-11
1.49228e-11
1.44123e-11
1.48936e-11
1.45727e-11
1.50687e-11
1.43101e-11
1.56668e-11
1.41351e-11
1.59877e-11
1.42518e-11
1.57251e-11
1.43539e-11
1.60023e-11
1.4879e-11
1.63378e-11
1.53167e-11
1.6717e-11
1.56522e-11
1.71547e-11
1.59731e-11
1.679e-11
1.63815e-11
1.64107e-11
1.5798e-11
1.63086e-11
1.5798e-11
1.60606e-11
1.60752e-11
1.64107e-11
1.59293e-11
1.6119e-11
1.59293e-11
1.61627e-11
1.58856e-11
1.6294e-11
1.59002e-11
1.60898e-11
1.57251e-11
1.6367e-11
1.55646e-11
1.64545e-11
1.54771e-11
1.65712e-11
1.55501e-11
1.6367e-11
1.52729e-11
1.59731e-11
1.47769e-11
1.49957e-11
1.4208e-11
1.48061e-11
1.38871e-11
1.4704e-11
1.34787e-11
1.34641e-11
1.30265e-11
1.35808e-11
1.26326e-11
1.30994e-11
1.24721e-11
1.29973e-11
1.26618e-11
1.26326e-11
1.30848e-11
1.27493e-11
1.36683e-11
1.25888e-11
1.36683e-11
1.22242e-11
1.37266e-11
1.29098e-11
1.38288e-11
1.28806e-11
1.41789e-11
1.29535e-11
1.37558e-11
1.34057e-11
1.39017e-11
1.41351e-11
1.43539e-11
1.40622e-11
1.5127e-11
1.44998e-11
1.54625e-11
1.50395e-11
1.58564e-11
1.5375e-11
1.6367e-11
1.61481e-11
1.679e-11
1.66441e-11
1.73151e-11
1.66879e-11
1.76798e-11
1.7213e-11
1.78694e-11
1.75048e-11
1.78549e-11
1.7884e-11
1.81758e-11
1.8205e-11
1.78694e-11
1.85113e-11
1.84238e-11
1.7709e-11
1.84238e-11
1.80007e-11
1.87447e-11
1.75193e-11
1.89197e-11
1.7461e-11
1.91823e-11
1.7213e-11
1.86863e-11
1.71255e-11
1.87009e-11
1.72568e-11
1.80883e-11
1.71547e-11
1.81904e-11
1.73881e-11
1.79861e-11
1.76798e-11
1.74172e-11
1.70963e-11
1.71255e-11
1.66879e-11
1.679e-11
1.63232e-11
1.68192e-11
1.63086e-11
1.68921e-11
1.65274e-11
1.68629e-11
1.66879e-11
1.64982e-11
1.64107e-11
1.67608e-11
1.62357e-11
1.6717e-11
1.55063e-11
1.64982e-11
1.55792e-11
1.64545e-11
1.55209e-11
1.65858e-11
1.61336e-11
1.64545e-11
1.62648e-11
1.71693e-11
1.6367e-11
1.73151e-11
1.68046e-11
1.75923e-11
1.69796e-11
1.79132e-11
1.78111e-11
1.78694e-11
1.8205e-11
1.76215e-11
1.83946e-11
1.77819e-11
1.85696e-11
1.76798e-11
1.83362e-11
1.75923e-11
1.82779e-11
1.77673e-11
1.82195e-11
1.82925e-11
1.85259e-11
1.90218e-11
1.838e-11
1.95324e-11
1.7709e-11
1.97074e-11
1.76069e-11
1.89051e-11
1.7636e-11
1.90073e-11
1.74172e-11
1.86572e-11
1.74026e-11
1.80591e-11
1.70817e-11
1.78111e-11
1.72276e-11
1.73589e-11
1.75193e-11
1.69213e-11
1.73297e-11
1.66295e-11
1.76506e-11
1.65858e-11
1.74172e-11
1.6542e-11
1.72568e-11
1.62794e-11
1.7213e-11
1.61627e-11
1.75193e-11
1.62065e-11
1.7709e-11
1.61044e-11
1.8132e-11
1.59877e-11
1.80153e-11
1.68046e-11
1.7461e-11
1.6965e-11
1.77819e-11
1.68337e-11
1.77527e-11
1.7636e-11
1.80299e-11
1.78257e-11
1.78694e-11
1.84238e-11
1.7884e-11
1.86863e-11
1.79424e-11
1.85842e-11
1.81028e-11
1.79424e-11
1.79424e-11
1.75048e-11
1.75631e-11
1.70526e-11
1.71693e-11
1.66879e-11
1.66003e-11
1.56668e-11
1.60606e-11
1.51854e-11
1.55501e-11
1.4529e-11
1.52291e-11
1.41934e-11
1.52729e-11
1.43685e-11
1.47915e-11
1.43393e-11
1.44123e-11
1.37996e-11
1.41789e-11
1.32015e-11
1.39746e-11
1.27055e-11
1.35078e-11
1.33036e-11
1.31577e-11
1.33766e-11
1.34933e-11
1.36829e-11
1.36829e-11
1.41205e-11
1.36683e-11
1.37704e-11
1.44414e-11
1.39746e-11
1.38871e-11
1.44414e-11
1.43685e-11
1.396e-11
1.51854e-11
1.42664e-11
1.54334e-11
1.50103e-11
1.62065e-11
1.54625e-11
1.6294e-11
1.57689e-11
1.66733e-11
1.59585e-11
1.69067e-11
1.64545e-11
1.70526e-11
1.74172e-11
1.77819e-11
1.77527e-11
1.81174e-11
1.85113e-11
1.84967e-11
1.91531e-11
1.92844e-11
1.94303e-11
1.95762e-11
1.95762e-11
2.08161e-11
1.9547e-11
2.09036e-11
1.91677e-11
2.11953e-11
1.89635e-11
2.03347e-11
1.93865e-11
1.96929e-11
1.88322e-11
1.92698e-11
1.77382e-11
1.88468e-11
1.78403e-11
1.8205e-11
1.7286e-11
1.8205e-11
1.66879e-11
1.79716e-11
1.69942e-11
1.73005e-11
1.71401e-11
1.69796e-11
1.74026e-11
1.68337e-11
1.72276e-11
1.64399e-11
1.74172e-11
1.64107e-11
1.73589e-11
1.60752e-11
1.74902e-11
1.63815e-11
1.74756e-11
1.67754e-11
1.76069e-11
1.69067e-11
1.81028e-11
1.7286e-11
1.84967e-11
1.78694e-11
1.89489e-11
1.838e-11
1.93573e-11
1.83362e-11
1.97658e-11
1.85842e-11
2.01742e-11
1.89197e-11
1.98096e-11
1.92115e-11
1.9722e-11
1.88468e-11
1.9474e-11
1.88176e-11
1.997e-11
1.86717e-11
1.93719e-11
1.87593e-11
1.99263e-11
1.82779e-11
1.98533e-11
1.8803e-11
1.91969e-11
1.90948e-11
1.93136e-11
1.94595e-11
1.88468e-11
1.93282e-11
1.83508e-11
1.87447e-11
1.88614e-11
1.86572e-11
1.88468e-11
1.86717e-11
1.86572e-11
1.80445e-11
1.85405e-11
1.74318e-11
1.82195e-11
1.70817e-11
1.76944e-11
1.72714e-11
1.70234e-11
1.65858e-11
1.66149e-11
1.57835e-11
1.6367e-11
1.52437e-11
1.56959e-11
1.48645e-11
1.51708e-11
1.52e-11
1.50541e-11
1.46602e-11
1.49228e-11
1.47186e-11
1.44852e-11
1.48061e-11
1.45581e-11
1.45873e-11
1.50103e-11
1.46311e-11
1.49812e-11
1.4952e-11
1.52291e-11
1.49666e-11
1.56522e-11
1.52729e-11
1.61336e-11
1.55501e-11
1.69796e-11
1.57105e-11
1.68629e-11
1.63086e-11
1.71984e-11
1.70963e-11
1.7286e-11
1.75485e-11
1.80007e-11
1.77965e-11
1.83946e-11
1.8803e-11
1.84238e-11
1.84529e-11
1.87884e-11
1.84675e-11
1.91531e-11
1.83362e-11
1.95324e-11
1.84383e-11
1.96783e-11
1.92698e-11
1.99408e-11
1.94449e-11
2.01305e-11
1.91531e-11
2.10203e-11
1.93865e-11
2.0641e-11
1.86717e-11
2.11078e-11
1.88614e-11
2.11078e-11
1.87884e-11
2.06848e-11
1.96929e-11
2.04222e-11
1.9722e-11
1.96929e-11
1.92261e-11
1.91677e-11
1.88906e-11
1.86426e-11
1.90656e-11
1.78694e-11
1.87009e-11
1.77819e-11
1.84238e-11
1.77382e-11
1.77819e-11
1.76069e-11
1.73735e-11
1.68629e-11
1.7038e-11
1.63232e-11
1.65566e-11
1.59585e-11
1.6046e-11
1.55938e-11
1.59002e-11
1.46019e-11
1.56668e-11
1.44852e-11
1.57835e-11
1.4281e-11
1.58418e-11
1.48645e-11
1.60606e-11
1.52583e-11
1.56668e-11
1.46456e-11
1.5871e-11
1.47478e-11
1.55646e-11
1.48645e-11
1.55792e-11
1.52437e-11
1.53021e-11
1.54334e-11
1.54625e-11
1.54042e-11
1.54625e-11
1.54625e-11
1.54334e-11
1.53896e-11
1.54625e-11
1.54917e-11
1.54625e-11
1.56813e-11
1.60314e-11
1.54625e-11
1.54771e-11
1.51416e-11
1.62794e-11
1.53021e-11
1.65858e-11
1.55792e-11
1.65128e-11
1.57397e-11
1.66733e-11
1.63961e-11
1.68483e-11
1.62503e-11
1.68046e-11
1.65274e-11
1.69359e-11
1.6717e-11
1.7461e-11
1.66295e-11
1.77965e-11
1.66149e-11
1.76652e-11
1.66733e-11
1.76069e-11
1.67608e-11
1.73443e-11
1.65128e-11
1.71838e-11
1.60752e-11
1.68337e-11
1.58272e-11
1.6542e-11
1.5448e-11
1.61773e-11
1.52291e-11
1.65274e-11
1.52875e-11
1.62211e-11
1.55792e-11
1.62211e-11
1.57397e-11
1.59293e-11
1.6119e-11
1.6046e-11
1.63815e-11
1.61919e-11
1.61627e-11
1.65712e-11
1.56376e-11
1.63378e-11
1.56376e-11
1.59293e-11
1.52729e-11
1.55355e-11
1.48936e-11
1.5798e-11
1.50979e-11
1.55501e-11
1.50687e-11
1.57251e-11
1.54334e-11
1.59147e-11
1.5127e-11
1.6294e-11
1.55938e-11
1.59147e-11
1.57105e-11
1.62648e-11
1.61773e-11
1.62503e-11
1.64982e-11
1.6294e-11
1.63232e-11
1.60606e-11
1.66879e-11
1.59585e-11
1.70234e-11
1.60898e-11
1.69213e-11
1.62211e-11
1.7038e-11
1.65712e-11
1.78694e-11
1.69504e-11
1.74756e-11
1.70671e-11
1.7286e-11
1.66733e-11
1.7461e-11
1.63232e-11
1.72568e-11
1.61627e-11
1.71693e-11
1.57689e-11
1.679e-11
1.52291e-11
1.67462e-11
1.50833e-11
1.63378e-11
1.52e-11
1.56668e-11
1.5127e-11
1.54771e-11
1.52875e-11
1.58564e-11
1.53167e-11
1.60169e-11
1.55792e-11
1.68921e-11
1.57543e-11
1.71401e-11
1.63815e-11
1.73443e-11
1.73589e-11
1.76069e-11
1.73005e-11
1.76215e-11
1.77236e-11
1.74464e-11
1.76944e-11
1.80591e-11
1.7461e-11
1.81612e-11
1.74026e-11
1.77382e-11
1.68921e-11
1.75631e-11
1.61919e-11
1.74464e-11
1.6119e-11
1.71547e-11
1.62648e-11
1.66003e-11
1.59293e-11
1.62065e-11
1.55501e-11
1.59147e-11
1.50541e-11
1.54771e-11
1.45727e-11
1.50541e-11
1.44268e-11
1.47186e-11
1.42518e-11
1.47915e-11
1.40476e-11
1.41497e-11
1.36245e-11
1.42664e-11
1.32161e-11
1.43393e-11
1.27493e-11
1.40913e-11
1.33766e-11
1.41934e-11
1.31432e-11
1.38871e-11
1.29389e-11
1.31869e-11
1.25013e-11
1.3041e-11
1.23846e-11
1.30702e-11
1.25451e-11
1.237e-11
1.29098e-11
1.28806e-11
1.32307e-11
1.27639e-11
1.33911e-11
1.33766e-11
1.38579e-11
1.4033e-11
1.43393e-11
1.40476e-11
1.44706e-11
1.47332e-11
1.44852e-11
1.49957e-11
1.4952e-11
1.46456e-11
1.45873e-11
1.46456e-11
1.4529e-11
1.48645e-11
1.40038e-11
1.4879e-11
1.37558e-11
1.47915e-11
1.34641e-11
1.50395e-11
1.35954e-11
1.4952e-11
1.35516e-11
1.46311e-11
1.4033e-11
1.38288e-11
1.38579e-11
1.34057e-11
1.36975e-11
1.34349e-11
1.36683e-11
1.30994e-11
1.3362e-11
1.27493e-11
1.31432e-11
1.25013e-11
1.28368e-11
1.2443e-11
1.28076e-11
1.24576e-11
1.25743e-11
1.22096e-11
1.23846e-11
1.20929e-11
1.24138e-11
1.17428e-11
1.25451e-11
1.1699e-11
1.19908e-11
1.16261e-11
1.20199e-11
1.15969e-11
1.18595e-11
1.17282e-11
1.18595e-11
1.17865e-11
1.21804e-11
1.1772e-11
1.19762e-11
1.18741e-11
1.22533e-11
1.18011e-11
1.23846e-11
1.19178e-11
1.25013e-11
1.18886e-11
1.28514e-11
1.22971e-11
1.2866e-11
1.22242e-11
1.2691e-11
1.19908e-11
1.237e-11
1.24576e-11
1.19616e-11
1.20929e-11
1.2122e-11
1.20491e-11
1.23117e-11
1.19616e-11
1.26472e-11
1.19616e-11
1.30848e-11
1.23117e-11
1.31723e-11
1.2866e-11
1.34933e-11
1.36245e-11
1.34203e-11
1.38579e-11
1.36975e-11
1.40913e-11
1.39309e-11
1.41205e-11
1.39892e-11
1.39309e-11
1.44123e-11
1.37121e-11
1.41497e-11
1.36391e-11
1.38142e-11
1.36975e-11
1.36245e-11
1.28514e-11
1.31869e-11
1.30119e-11
1.29973e-11
1.29098e-11
1.29098e-11
1.28952e-11
1.37121e-11
1.29098e-11
1.33911e-11
1.27931e-11
1.34057e-11
1.2691e-11
1.34349e-11
1.29098e-11
1.34349e-11
1.26472e-11
1.31723e-11
1.27785e-11
1.30702e-11
1.22242e-11
1.27493e-11
1.24284e-11
1.2691e-11
1.20929e-11
1.28076e-11
1.23554e-11
1.31432e-11
1.32307e-11
1.31286e-11
1.33474e-11
1.34787e-11
1.361e-11
1.41497e-11
1.46165e-11
1.47623e-11
1.51124e-11
1.54625e-11
1.56376e-11
1.5448e-11
1.60023e-11
1.6294e-11
1.57397e-11
1.65128e-11
1.63086e-11
1.63232e-11
1.61044e-11
1.57543e-11
1.60606e-11
1.54917e-11
1.60606e-11
1.4704e-11
1.61044e-11
1.43539e-11
1.55063e-11
1.4281e-11
1.46894e-11
1.39163e-11
1.47186e-11
1.31577e-11
1.42226e-11
1.237e-11
1.36245e-11
1.20053e-11
1.26618e-11
1.20053e-11
1.20929e-11
1.17282e-11
1.18157e-11
1.14073e-11
1.13052e-11
1.08821e-11
1.15094e-11
1.04737e-11
1.12468e-11
1.06341e-11
1.10134e-11
1.0605e-11
1.06487e-11
1.06925e-11
1.05758e-11
1.078e-11
1.09842e-11
1.1276e-11
1.11301e-11
1.20053e-11
1.17865e-11
1.19616e-11
1.2195e-11
1.23263e-11
1.25305e-11
1.2691e-11
1.26472e-11
1.29827e-11
1.28952e-11
1.22387e-11
1.28806e-11
1.21512e-11
1.2866e-11
1.24867e-11
1.25451e-11
1.24138e-11
1.35224e-11
1.19908e-11
1.33328e-11
1.23117e-11
1.27785e-11
1.22679e-11
1.25305e-11
1.18303e-11
1.22096e-11
1.1524e-11
1.15677e-11
1.13927e-11
1.15677e-11
1.11739e-11
1.17282e-11
1.0853e-11
1.15823e-11
1.07946e-11
1.11301e-11
1.11885e-11
1.0853e-11
1.09259e-11
1.07508e-11
1.07654e-11
1.06779e-11
1.0853e-11
1.09259e-11
1.06925e-11
1.14656e-11
1.11593e-11
1.16553e-11
1.16553e-11
1.20491e-11
1.14364e-11
1.24721e-11
1.15969e-11
1.25013e-11
1.20345e-11
1.21804e-11
1.24867e-11
1.22242e-11
1.24867e-11
1.24284e-11
1.23554e-11
1.25597e-11
1.26472e-11
1.2866e-11
1.23263e-11
1.3289e-11
1.25013e-11
1.29098e-11
1.26034e-11
1.27639e-11
1.28368e-11
1.25159e-11
1.28514e-11
1.26764e-11
1.26764e-11
1.28222e-11
1.25159e-11
1.3362e-11
1.31577e-11
1.34933e-11
1.33036e-11
1.38871e-11
1.31432e-11
1.40184e-11
1.34057e-11
1.44706e-11
1.4033e-11
1.44706e-11
1.4704e-11
1.53167e-11
1.54917e-11
1.54188e-11
1.66441e-11
1.62648e-11
1.70234e-11
1.73005e-11
1.7884e-11
1.84529e-11
1.98241e-11
2.01596e-11
2.2304e-11
2.33251e-11
2.61842e-11
2.84598e-11
3.22671e-11
3.51116e-11
4.1355e-11
4.68106e-11
5.3973e-11
6.23024e-11
7.36367e-11
8.59192e-11
1.01805e-10
1.20943e-10
1.42708e-10
1.71284e-10
2.02997e-10
2.44221e-10
2.91133e-10
3.50008e-10
4.20231e-10
5.04429e-10
6.05577e-10
7.28169e-10
8.7604e-10
1.05109e-09
1.26486e-09
1.51828e-09
1.82312e-09
2.18919e-09
2.6272e-09
3.1496e-09
3.77569e-09
4.5226e-09
5.41395e-09
6.47545e-09
7.74301e-09
9.24858e-09
1.10428e-08
1.31732e-08
1.57038e-08
1.87075e-08
2.22708e-08
2.64879e-08
3.14872e-08
3.73949e-08
4.43842e-08
5.2635e-08
6.23755e-08
7.38612e-08
8.73952e-08
1.03329e-07
1.22077e-07
1.44113e-07
1.69996e-07
2.00375e-07
2.35999e-07
2.7774e-07
3.26616e-07
3.83787e-07
4.50619e-07
5.28675e-07
6.19771e-07
7.2599e-07
8.49753e-07
9.93832e-07
1.16143e-06
1.35622e-06
1.58243e-06
1.84492e-06
2.14926e-06
2.50181e-06
2.9099e-06
3.38186e-06
3.92725e-06
4.55696e-06
5.28343e-06
6.12084e-06
7.0853e-06
8.19518e-06
9.47132e-06
1.09374e-05
1.26203e-05
1.45503e-05
1.67621e-05
1.92945e-05
2.21915e-05
2.55028e-05
2.92845e-05
3.35997e-05
3.85195e-05
4.41237e-05
5.0502e-05
5.77552e-05
6.59961e-05
7.53513e-05
8.5962e-05
9.79864e-05
0.000111601
0.000127003
0.000144411
0.000164069
0.00018625
0.000211255
0.000239417
0.000271109
0.000306741
0.000346767
0.000391689
0.000442061
0.000498495
0.000561662
0.000632302
0.00071123
0.000799338
0.000897604
0.0010071
0.001129
0.00126459
0.00141526
0.00158254
0.00176809
0.00197372
0.00220138
0.00245322
0.00273154
0.00303883
0.0033778
0.00375138
0.00416269
0.00461515
0.00511239
0.00565833
0.00625718
0.00691345
0.00763196
0.00841788
0.00927671
0.0102143
0.011237
0.0123513
0.0135644
0.0148837
0.0163172
0.0178732
0.0195606
0.0213887
0.0233673
0.0255069
0.0278181
0.0303125
0.0330018
0.0358985
0.0390157
0.0423667
0.0459657
0.0498272
0.0539664
0.058399
0.0631412
0.0682096
0.0736214
0.0793944
0.0855467
0.092097
0.0990641
0.106468
0.114327
0.122663
0.131496
0.140846
0.150735
0.161183
0.172212
0.183844
0.196099
0.209
0.222567
0.236823
0.251788
0.267484
0.283931
0.301151
0.319164
0.337989
0.357646
0.378154
0.399533
0.421799
0.444971
0.469065
0.494098
0.520085
0.54704
0.574979
0.603913
0.633856
0.664819
0.696813
0.729848
0.763933
0.799075
0.835282
0.872561
0.910917
0.950353
0.990875
1.03248
1.07518
1.11897
1.16385
1.20982
1.25688
1.30503
1.35426
1.40456
1.45595
1.5084
1.56192
1.61649
1.67212
1.72878
1.78649
1.84521
1.90496
1.96571
2.02745
2.09019
2.1539
2.21857
2.28419
2.35076
2.41825
2.48667
2.55598
2.62618
2.69727
2.76922
2.84202
2.91565
2.99012
3.0654
3.14147
3.21833
3.29597
3.37436
3.4535
3.53337
3.61396
3.69525
3.77724
3.85991
3.94325
4.02724
4.11188
4.19714
4.28302
4.36951
4.45659
4.54426
4.63249
4.72128
4.81062
4.9005
4.9909
5.08182
5.17324
5.26516
5.35756
5.45043
5.54377
5.63756
5.7318
5.82647
5.92156
6.01708
6.113
6.20932
6.30604
6.40313
6.50061
6.59845
6.69665
6.7952
6.8941
6.99333
7.09289
7.19278
7.29299
7.3935
7.49432
7.59544
7.69684
7.79854
7.90051
8.00275
8.10527
8.20804
8.31107
8.41436
8.51789
8.62166
8.72567
8.82991
8.93438
9.03907
9.14398
9.2491
9.35443
9.45997
9.56571
9.67165
9.77778
9.8841
9.99061
10.0973
10.2042
10.3112
10.4184
10.5258
10.6334
10.7411
10.849
10.957
11.0652
11.1735
11.282
11.3906
11.4994
11.6083
11.7173
11.8265
11.9358
12.0453
12.1549
12.2646
12.3744
12.4843
12.5944
12.7046
12.8149
12.9253
13.0358
13.1464
13.2572
13.368
13.4789
13.59
13.7011
13.8124
13.9237
14.0351
14.1467
14.2583
14.37
14.4818
14.5937
14.7057
14.8177
14.9299
15.0421
15.1544
15.2668
15.3792
15.4918
15.6044
15.7171
15.8298
15.9426
16.0556
16.1685
16.2816
16.3947
16.5078
16.6211
16.7344
16.8478
16.9612
17.0747
17.1882
17.3018
17.4155
17.5292
17.643
17.7569
17.8708
17.9847
18.0987
18.2128
18.3269
18.4411
18.5553
18.6695
18.7838
18.8982
19.0126
19.1271
19.2416
19.3561