/*--------------------------------*- C++ -*----------------------------------*\
| =========                 |                                                 |
| \\      /  F ield         | OpenFOAM: The Open Source CFD Toolbox           |
|  \\    /   O peration     | Version:  4.0                                   |
|   \\  /    A nd           | Web:      www.OpenFOAM.org                      |
|    \\/     M anipulation  |                                                 |
\*---------------------------------------------------------------------------*/
FoamFile
{
    version     2.0;
    format      ascii;
    class       volScalarField;
    location    "0.007";
    object      p;
}
// * * * * * * * * * * * * * * * * * * * * * * * * * * * * * * * * * * * * * //

dimensions      [1 -1 -2 0 0 0 0];

internalField   nonuniform List<scalar> 
10000
(
100000
100000
100000
100000
100000
100000
100000
100000
100000
100000
100000
100000
100000
100000
100000
100000
100000
100000
100000
100000
100000
100000
100000
100000
100000
100000
100000
100000
100000
100000
100000
100000
100000
100000
100000
100000
100000
100000
100000
100000
100000
100000
100000
100000
100000
100000
100000
100000
100000
100000
100000
100000
100000
100000
100000
100000
100000
100000
100000
100000
100000
100000
100000
100000
100000
100000
100000
100000
100000
100000
100000
100000
100000
100000
100000
100000
100000
100000
100000
100000
100000
100000
100000
100000
100000
100000
100000
100000
100000
100000
100000
100000
100000
100000
100000
100000
100000
100000
100000
100000
100000
100000
100000
100000
100000
100000
100000
100000
100000
100000
100000
100000
100000
100000
100000
100000
100000
100000
100000
100000
100000
100000
100000
100000
100000
100000
100000
100000
100000
100000
100000
100000
100000
100000
100000
100000
100000
100000
100000
100000
100000
100000
100000
100000
100000
100000
100000
100000
100000
100000
100000
100000
100000
100000
100000
100000
100000
100000
100000
100000
100000
100000
100000
100000
100000
100000
100000
100000
100000
100000
100000
100000
100000
100000
100000
100000
100000
100000
100000
100000
100000
100000
100000
100000
100000
100000
100000
100000
100000
100000
100000
100000
100000
100000
100000
100000
100000
100000
100000
100000
100000
100000
100000
100000
100000
100000
100000
100000
100000
100000
100000
100000
100000
100000
100000
100000
100000
100000
100000
100000
100000
100000
100000
100000
100000
100000
100000
100000
100000
100000
100000
100000
100000
100000
100000
100000
100000
100000
100000
100000
100000
100000
100000
100000
100000
100000
100000
100000
100000
100000
100000
100000
100000
100000
100000
100000
100000
100000
100000
100000
100000
100000
100000
100000
100000
100000
100000
100000
100000
100000
100000
100000
100000
100000
100000
100000
100000
100000
100000
100000
100000
100000
100000
100000
100000
100000
100000
100000
100000
100000
100000
100000
100000
100000
100000
100000
100000
100000
100000
100000
100000
100000
100000
100000
100000
100000
100000
100000
100000
100000
100000
100000
100000
100000
100000
100000
100000
100000
100000
100000
100000
100000
100000
100000
100000
100000
100000
100000
100000
100000
100000
100000
100000
100000
100000
100000
100000
100000
100000
100000
100000
100000
100000
100000
100000
100000
100000
100000
100000
100000
100000
100000
100000
100000
100000
100000
100000
100000
100000
100000
100000
100000
100000
100000
100000
100000
100000
100000
100000
100000
100000
100000
100000
100000
100000
100000
100000
100000
100000
100000
100000
100000
100000
100000
100000
100000
100000
100000
100000
100000
100000
100000
100000
100000
100000
100000
100000
100000
100000
100000
100000
100000
100000
100000
100000
100000
100000
100000
100000
100000
100000
100000
100000
100000
100000
100000
100000
100000
100000
100000
100000
100000
100000
100000
100000
100000
100000
100000
100000
100000
100000
100000
100000
100000
100000
100000
100000
100000
100000
100000
100000
100000
100000
100000
100000
100000
100000
100000
100000
100000
100000
100000
100000
100000
100000
100000
100000
100000
100000
100000
100000
100000
100000
100000
100000
100000
100000
100000
100000
100000
100000
100000
100000
100000
100000
100000
100000
100000
100000
100000
100000
100000
100000
100000
100000
100000
100000
100000
100000
100000
100000
100000
100000
100000
100000
100000
100000
100000
100000
100000
100000
100000
100000
100000
100000
100000
100000
100000
100000
100000
100000
100000
100000
100000
100000
100000
100000
100000
100000
100000
100000
100000
100000
100000
100000
100000
100000
100000
100000
100000
100000
100000
100000
100000
100000
100000
100000
100000
100000
100000
100000
100000
100000
100000
100000
100000
100000
100000
100000
100000
100000
100000
100000
100000
100000
100000
100000
100000
100000
100000
100000
100000
100000
100000
100000
100000
100000
100000
100000
100000
100000
100000
100000
100000
100000
100000
100000
100000
100000
100000
100000
100000
100000
100000
100000
100000
100000
100000
100000
100000
100000
100000
100000
100000
100000
100000
100000
100000
100000
100000
100000
100000
100000
100000
100000
100000
100000
100000
100000
100000
100000
100000
100000
100000
100000
100000
100000
100000
100000
100000
100000
100000
100000
100000
100000
100000
100000
100000
100000
100000
100000
100000
100000
100000
100000
100000
100000
100000
100000
100000
100000
100000
100000
100000
100000
100000
100000
100000
100000
100000
100000
100000
100000
100000
100000
100000
100000
100000
100000
100000
100000
100000
100000
100000
100000
100000
100000
100000
100000
100000
100000
100000
100000
100000
100000
100000
100000
100000
100000
100000
100000
100000
100000
100000
100000
100000
100000
100000
100000
100000
100000
100000
100000
100000
100000
100000
100000
100000
100000
100000
100000
100000
100000
100000
100000
100000
100000
100000
100000
100000
100000
100000
100000
100000
100000
100000
100000
100000
100000
100000
100000
100000
100000
100000
100000
100000
100000
100000
100000
100000
100000
100000
100000
100000
100000
100000
100000
100000
100000
100000
100000
100000
100000
100000
100000
100000
100000
100000
100000
100000
100000
100000
100000
100000
100000
100000
100000
100000
100000
100000
100000
100000
100000
100000
100000
100000
100000
100000
100000
100000
100000
100000
100000
100000
100000
100000
100000
100000
100000
100000
100000
100000
100000
100000
100000
100000
100000
100000
100000
100000
100000
100000
100000
100000
100000
100000
100000
100000
100000
100000
100000
100000
100000
100000
100000
100000
100000
100000
100000
100000
100000
100000
100000
100000
100000
100000
100000
100000
100000
100000
100000
100000
100000
100000
100000
100000
100000
100000
100000
100000
100000
100000
100000
100000
100000
100000
100000
100000
100000
100000
100000
100000
100000
100000
100000
100000
100000
100000
100000
100000
100000
100000
100000
100000
100000
100000
100000
100000
100000
100000
100000
100000
100000
100000
100000
100000
100000
100000
100000
100000
100000
100000
100000
100000
100000
100000
100000
100000
100000
100000
100000
100000
100000
100000
100000
100000
100000
100000
100000
100000
100000
100000
100000
100000
100000
100000
100000
100000
100000
100000
100000
100000
100000
100000
100000
100000
100000
100000
100000
100000
100000
100000
100000
100000
100000
100000
100000
100000
100000
100000
100000
100000
100000
100000
100000
100000
100000
100000
100000
100000
100000
100000
100000
100000
100000
100000
100000
100000
100000
100000
100000
100000
100000
100000
100000
100000
100000
100000
100000
100000
100000
100000
100000
100000
100000
100000
100000
100000
100000
100000
100000
100000
100000
100000
100000
100000
100000
100000
100000
100000
100000
100000
100000
100000
100000
100000
100000
100000
100000
100000
100000
100000
100000
100000
100000
100000
100000
100000
100000
100000
100000
100000
100000
100000
100000
100000
100000
100000
100000
100000
100000
100000
100000
100000
100000
100000
100000
100000
100000
100000
100000
100000
100000
100000
100000
100000
100000
100000
100000
100000
100000
100000
100000
100000
100000
100000
100000
100000
100000
100000
100000
100000
100000
100000
100000
100000
100000
100000
100000
100000
100000
100000
100000
100000
100000
100000
100000
100000
100000
100000
100000
100000
100000
100000
100000
100000
100000
100000
100000
100000
100000
100000
100000
100000
100000
100000
100000
100000
100000
100000
100000
100000
100000
100000
100000
100000
100000
100000
100000
100000
100000
100000
100000
100000
100000
100000
100000
100000
100000
100000
100000
100000
100000
100000
100000
100000
100000
100000
100000
100000
100000
100000
100000
100000
100000
100000
100000
100000
100000
100000
100000
100000
100000
100000
100000
100000
100000
100000
100000
100000
100000
100000
100000
100000
100000
100000
100000
100000
100000
100000
100000
100000
100000
100000
100000
100000
100000
100000
100000
100000
100000
100000
100000
100000
100000
100000
100000
100000
100000
100000
100000
100000
100000
100000
100000
100000
100000
100000
100000
100000
100000
100000
100000
100000
100000
100000
100000
100000
100000
100000
100000
100000
100000
100000
100000
100000
100000
100000
100000
100000
100000
100000
100000
100000
100000
100000
100000
100000
100000
100000
100000
100000
100000
100000
100000
100000
100000
100000
100000
100000
100000
100000
100000
100000
100000
100000
100000
100000
100000
100000
100000
100000
100000
100000
100000
100000
100000
100000
100000
100000
100000
100000
100000
100000
100000
100000
100000
100000
100000
100000
100000
100000
100000
100000
100000
100000
100000
100000
100000
100000
100000
100000
100000
100000
100000
100000
100000
100000
100000
100000
100000
100000
100000
100000
100000
100000
100000
100000
100000
100000
100000
100000
100000
100000
100000
100000
100000
100000
100000
100000
100000
100000
100000
100000
100000
100000
100000
100000
100000
100000
100000
100000
100000
100000
100000
100000
100000
100000
100000
100000
100000
100000
100000
100000
100000
100000
100000
100000
100000
100000
100000
100000
100000
100000
100000
100000
100000
100000
100000
100000
100000
100000
100000
100000
100000
100000
100000
100000
100000
100000
100000
100000
100000
100000
100000
100000
100000
100000
100000
100000
100000
100000
100000
100000
100000
100000
100000
100000
100000
100000
100000
100000
100000
100000
100000
100000
100000
100000
100000
100000
100000
100000
100000
100000
100000
100000
100000
100000
100000
100000
100000
100000
100000
100000
100000
100000
100000
100000
100000
100000
100000
100000
100000
100000
100000
100000
100000
100000
100000
100000
100000
100000
100000
100000
100000
100000
100000
100000
100000
100000
100000
100000
100000
100000
100000
100000
100000
100000
100000
100000
100000
100000
100000
100000
100000
100000
100000
100000
100000
100000
100000
100000
100000
100000
100000
100000
100000
100000
100000
100000
100000
100000
100000
100000
100000
100000
100000
100000
100000
100000
100000
100000
100000
100000
100000
100000
100000
100000
100000
100000
100000
100000
100000
100000
100000
100000
100000
100000
100000
100000
100000
100000
100000
100000
100000
100000
100000
100000
100000
100000
100000
100000
100000
100000
100000
100000
100000
100000
100000
100000
100000
100000
100000
100000
100000
100000
100000
100000
100000
100000
100000
100000
100000
100000
100000
100000
100000
100000
100000
100000
100000
100000
100000
100000
100000
100000
100000
100000
100000
100000
100000
100000
100000
100000
100000
100000
100000
100000
100000
100000
100000
100000
100000
100000
100000
100000
100000
100000
100000
100000
100000
100000
100000
100000
100000
100000
100000
100000
100000
100000
100000
100000
100000
100000
100000
100000
100000
100000
100000
100000
100000
100000
100000
100000
100000
100000
100000
100000
100000
100000
100000
100000
100000
100000
100000
100000
100000
100000
100000
100000
100000
100000
100000
100000
100000
100000
100000
100000
100000
100000
100000
100000
100000
100000
100000
100000
100000
100000
100000
100000
100000
100000
100000
100000
100000
100000
100000
100000
100000
100000
100000
100000
100000
100000
100000
100000
100000
100000
100000
100000
100000
100000
100000
100000
100000
100000
100000
100000
100000
100000
100000
100000
100000
100000
100000
100000
100000
100000
100000
100000
100000
100000
100000
100000
100000
100000
100000
100000
100000
100000
100000
100000
100000
100000
100000
100000
100000
100000
100000
100000
100000
100000
100000
100000
100000
100000
100000
100000
100000
100000
100000
100000
100000
100000
100000
100000
100000
100000
100000
100000
100000
100000
100000
100000
100000
100000
100000
100000
100000
100000
100000
100000
100000
100000
100000
100000
100000
100000
100000
100000
100000
100000
100000
100000
100000
100000
100000
100000
100000
100000
100000
100000
100000
100000
100000
100000
100000
100000
100000
100000
100000
100000
100000
100000
100000
100000
100000
100000
100000
100000
100000
100000
100000
100000
100000
100000
100000
100000
100000
100000
100000
100000
100000
100000
100000
100000
100000
100000
100000
100000
100000
100000
100000
100000
100000
100000
100000
100000
100000
100000
100000
100000
100000
100000
100000
100000
100000
100000
100000
100000
100000
100000
100000
100000
100000
100000
100000
100000
100000
100000
100000
100000
100000
100000
100000
100000
100000
100000
100000
100000
100000
100000
100000
100000
100000
100000
100000
100000
100000
100000
100000
100000
100000
100000
100000
100000
100000
100000
100000
100000
100000
100000
100000
100000
100000
100000
100000
100000
100000
100000
100000
100000
100000
100000
100000
100000
100000
100000
100000
100000
100000
100000
100000
100000
100000
100000
100000
100000
100000
100000
100000
100000
100000
100000
100000
100000
100000
100000
100000
100000
100000
100000
100000
100000
100000
100000
100000
100000
100000
100000
100000
100000
100000
100000
100000
100000
100000
100000
100000
100000
100000
100000
100000
100000
100000
100000
100000
100000
100000
100000
100000
100000
100000
100000
100000
100000
100000
100000
100000
100000
100000
100000
100000
100000
100000
100000
100000
100000
100000
100000
100000
100000
100000
100000
100000
100000
100000
100000
100000
100000
100000
100000
100000
100000
100000
100000
100000
100000
100000
100000
100000
100000
100000
100000
100000
100000
100000
100000
100000
100000
100000
100000
100000
100000
100000
100000
100000
100000
100000
100000
100000
100000
100000
100000
100000
100000
100000
100000
100000
100000
100000
100000
100000
100000
100000
100000
100000
100000
100000
100000
100000
100000
100000
100000
100000
100000
100000
100000
100000
100000
100000
100000
100000
100000
100000
100000
100000
100000
100000
100000
100000
100000
100000
100000
100000
100000
100000
100000
100000
100000
100000
100000
100000
100000
100000
100000
100000
100000
100000
100000
100000
100000
100000
100000
100000
100000
100000
100000
100000
100000
100000
100000
100000
100000
100000
100000
100000
100000
100000
100000
100000
100000
100000
100000
100000
100000
100000
100000
100000
100000
100000
100000
100000
100000
100000
100000
100000
100000
100000
100000
100000
100000
100000
100000
100000
100000
100000
100000
100000
100000
100000
100000
100000
100000
100000
100000
100000
100000
100000
100000
100000
100000
100000
100000
100000
100000
100000
100000
100000
100000
100000
100000
100000
100000
100000
100000
100000
100000
100000
100000
100000
100000
100000
100000
100000
100000
100000
100000
100000
100000
100000
100000
100000
100000
100000
100000
100000
100000
100000
100000
100000
100000
100000
100000
100000
100000
100000
100000
100000
100000
100000
100000
100000
100000
100000
100000
100000
100000
100000
100000
100000
100000
100000
100000
100000
100000
100000
100000
100000
100000
100000
100000
100000
100000
100000
100000
100000
100000
100000
100000
100000
100000
100000
100000
100000
100000
100000
100000
100000
100000
100000
100000
100000
100000
100000
100000
100000
100000
100000
100000
100000
100000
100000
100000
100000
100000
100000
100000
100000
100000
100000
100000
100000
100000
100000
100000
100000
100000
100000
100000
100000
100000
100000
100000
100000
100000
100000
100000
100000
100000
100000
100000
100000
100000
100000
100000
100000
100000
100000
100000
100000
100000
100000
100000
100000
100000
100000
100000
100000
100000
100000
100000
100000
100000
100000
100000
100000
100000
100000
100000
100000
100000
100000
100000
100000
100000
100000
100000
100000
100000
100000
100000
100000
100000
100000
100000
100000
100000
100000
100000
100000
100000
100000
100000
100000
100000
100000
100000
100000
100000
100000
100000
100000
100000
100000
100000
100000
99999.9
99999.9
99999.9
99999.9
99999.9
99999.9
99999.9
99999.9
99999.9
99999.8
99999.8
99999.8
99999.8
99999.7
99999.7
99999.7
99999.6
99999.6
99999.5
99999.5
99999.4
99999.3
99999.3
99999.2
99999.1
99999
99998.9
99998.7
99998.6
99998.4
99998.3
99998.1
99997.9
99997.7
99997.4
99997.1
99996.9
99996.5
99996.2
99995.8
99995.4
99994.9
99994.4
99993.9
99993.3
99992.7
99992
99991.3
99990.5
99989.6
99988.7
99987.7
99986.6
99985.4
99984.2
99982.8
99981.4
99979.8
99978.2
99976.4
99974.5
99972.5
99970.3
99968
99965.6
99963
99960.2
99957.3
99954.2
99950.9
99947.4
99943.7
99939.8
99935.7
99931.3
99926.7
99921.9
99916.9
99911.5
99905.9
99900.1
99893.9
99887.5
99880.8
99873.7
99866.4
99858.7
99850.8
99842.5
99833.8
99824.8
99815.5
99805.8
99795.7
99785.3
99774.5
99763.3
99751.8
99739.8
99727.5
99714.8
99701.7
99688.2
99674.3
99660
99645.3
99630.2
99614.7
99598.8
99582.5
99565.7
99548.6
99531.1
99513.2
99494.8
99476.1
99457
99437.5
99417.6
99397.3
99376.6
99355.5
99334.1
99312.2
99290
99267.5
99244.5
99221.2
99197.6
99173.6
99149.2
99124.5
99099.5
99074.1
99048.4
99022.3
98996
98969.3
98942.4
98915.1
98887.5
98859.6
98831.5
98803
98774.3
98745.3
98716
98686.5
98656.7
98626.7
98596.4
98565.9
98535.1
98504.1
98472.9
98441.4
98409.7
98377.8
98345.7
98313.4
98280.9
98248.2
98215.3
98182.3
98149
98115.5
98081.9
98048.1
98014.2
97980.1
97945.8
97911.3
97876.7
97842
97807.1
97772.1
97736.9
97701.6
97666.2
97630.6
97594.9
97559.1
97523.1
97487.1
97450.9
97414.6
97378.3
97341.8
97305.2
97268.5
97231.7
97194.8
97157.8
97120.7
97083.5
97046.2
97008.9
96971.5
96934
96896.4
96858.7
96821
96783.2
96745.3
96707.3
96669.3
96631.2
96593
96554.8
96516.5
96478.2
96439.8
96401.4
96362.8
96324.3
96285.7
96247
96208.3
96169.5
96130.7
96091.8
96052.9
96014
95975
95935.9
95896.9
95857.7
95818.6
95779.4
95740.2
95700.9
95661.6
95622.3
95582.9
95543.5
95504.1
95464.6
95425.1
95385.6
95346
95306.5
95266.9
95227.2
95187.6
95147.9
95108.2
95068.5
95028.7
94989
94949.2
94909.4
94869.6
94829.7
94789.9
94750
94710.1
94670.2
94630.2
94590.3
94550.3
94510.3
94470.4
94430.3
94390.3
94350.3
94310.3
94270.2
94230.1
94190.1
94150
94109.9
94069.8
94029.6
93989.5
93949.4
93909.2
93869.1
93828.9
93788.8
93748.6
93708.4
93668.2
93628
93587.8
93547.6
93507.4
93467.2
93427
93386.8
93346.6
93306.4
93266.1
93225.9
93185.7
93145.4
93105.2
93065
93024.7
92984.5
92944.2
92904
92863.7
92823.5
92783.3
92743
92702.8
92662.5
92622.3
92582.1
92541.8
92501.6
92461.3
92421.1
92380.9
92340.6
92300.4
92260.2
92220
92179.8
92139.5
92099.3
92059.1
92018.9
91978.7
91938.5
91898.3
91858.1
91817.9
91777.8
91737.6
91697.4
91657.2
91617.1
91576.9
91536.8
91496.6
91456.5
91416.4
91376.2
91336.1
91296
91255.9
91215.8
91175.7
91135.6
91095.5
91055.4
91015.3
90975.3
90935.2
90895.2
90855.1
90815.1
90775.1
90735
90695
90655
90615
90575
90535.1
90495.1
90455.1
90415.2
90375.2
90335.3
90295.3
90255.4
90215.5
90175.6
90135.7
90095.8
90055.9
90016.1
89976.2
89936.3
89896.5
89856.7
89816.8
89777
89737.2
89697.4
89657.6
89617.9
89578.1
89538.3
89498.6
89458.8
89419.1
89379.4
89339.7
89300
89260.3
89220.6
89181
89141.3
89101.7
89062
89022.4
88982.8
88943.2
88903.6
88864
88824.4
88784.9
88745.3
88705.8
88666.2
88626.7
88587.2
88547.7
88508.2
88468.8
88429.3
88389.8
88350.4
88311
88271.5
88232.1
88192.7
88153.4
88114
88074.6
88035.3
87995.9
87956.6
87917.3
87878
87838.7
87799.4
87760.1
87720.9
87681.6
87642.4
87603.2
87564
87524.8
87485.6
87446.4
87407.2
87368.1
87328.9
87289.8
87250.7
87211.6
87172.5
87133.4
87094.3
87055.3
87016.2
86977.2
86938.2
86899.2
86860.2
86821.2
86782.2
86743.3
86704.3
86665.4
86626.5
86587.6
86548.7
86509.8
86470.9
86432.1
86393.2
86354.4
86315.6
86276.8
86238
86199.2
86160.4
86121.7
86082.9
86044.2
86005.5
85966.8
85928.1
85889.4
85850.7
85812.1
85773.4
85734.8
85696.2
85657.6
85619
85580.4
85541.8
85503.3
85464.7
85426.2
85387.7
85349.2
85310.7
85272.2
85233.8
85195.3
85156.9
85118.4
85080
85041.6
85003.3
84964.9
84926.5
84888.2
84849.8
84811.5
84773.2
84734.9
84696.6
84658.4
84620.1
84581.9
84543.7
84505.4
84467.2
84429.1
84390.9
84352.7
84314.6
84276.4
84238.3
84200.2
84162.1
84124
84086
84047.9
84009.9
83971.8
83933.8
83895.8
83857.8
83819.8
83781.9
83743.9
83706
83668.1
83630.2
83592.3
83554.4
83516.5
83478.7
83440.8
83403
83365.2
83327.4
83289.6
83251.8
83214
83176.3
83138.5
83100.8
83063.1
83025.4
82987.7
82950.1
82912.4
82874.8
82837.1
82799.5
82761.9
82724.3
82686.8
82649.2
82611.7
82574.1
82536.6
82499.1
82461.6
82424.1
82386.7
82349.2
82311.8
82274.3
82236.9
82199.5
82162.1
82124.8
82087.4
82050.1
82012.7
81975.4
81938.1
81900.8
81863.5
81826.3
81789
81751.8
81714.6
81677.4
81640.2
81603
81565.8
81528.7
81491.5
81454.4
81417.3
81380.2
81343.1
81306
81269
81231.9
81194.9
81157.9
81120.9
81083.9
81046.9
81009.9
80973
80936
80899.1
80862.2
80825.3
80788.4
80751.6
80714.7
80677.9
80641
80604.2
80567.4
80530.6
80493.8
80457.1
80420.3
80383.6
80346.9
80310.2
80273.5
80236.8
80200.1
80163.5
80126.9
80090.2
80053.6
80017
79980.4
79943.9
79907.3
79870.8
79834.2
79797.7
79761.2
79724.7
79688.3
79651.8
79615.4
79578.9
79542.5
79506.1
79469.7
79433.3
79397
79360.6
79324.3
79287.9
79251.6
79215.3
79179
79142.8
79106.5
79070.3
79034
78997.8
78961.6
78925.4
78889.3
78853.1
78817
78780.8
78744.7
78708.6
78672.5
78636.4
78600.4
78564.3
78528.3
78492.2
78456.2
78420.2
78384.2
78348.3
78312.3
78276.4
78240.4
78204.5
78168.6
78132.7
78096.9
78061
78025.1
77989.3
77953.5
77917.7
77881.9
77846.1
77810.3
77774.6
77738.8
77703.1
77667.4
77631.7
77596
77560.4
77524.7
77489.1
77453.4
77417.8
77382.2
77346.6
77311
77275.5
77239.9
77204.4
77168.9
77133.3
77097.9
77062.4
77026.9
76991.4
76956
76920.6
76885.2
76849.8
76814.4
76779
76743.6
76708.3
76673
76637.6
76602.3
76567
76531.8
76496.5
76461.2
76426
76390.8
76355.6
76320.4
76285.2
76250
76214.9
76179.7
76144.6
76109.5
76074.4
76039.3
76004.2
75969.1
75934.1
75899.1
75864
75829
75794
75759
75724.1
75689.1
75654.2
75619.2
75584.3
75549.4
75514.5
75479.7
75444.8
75410
75375.1
75340.3
75305.5
75270.7
75235.9
75201.2
75166.4
75131.7
75096.9
75062.2
75027.5
74992.8
74958.2
74923.5
74888.9
74854.2
74819.6
74785
74750.4
74715.8
74681.3
74646.7
74612.2
74577.6
74543.1
74508.6
74474.2
74439.7
74405.2
74370.8
74336.3
74301.9
74267.5
74233.1
74198.8
74164.4
74130
74095.7
74061.4
74027.1
73992.8
73958.5
73924.2
73889.9
73855.7
73821.5
73787.3
73753
73718.9
73684.7
73650.5
73616.4
73582.2
73548.1
73514
73479.9
73445.8
73411.7
73377.7
73343.6
73309.6
73275.6
73241.6
73207.6
73173.6
73139.6
73105.7
73071.7
73037.8
73003.9
72970
72936.1
72902.2
72868.4
72834.5
72800.7
72766.9
72733.1
72699.3
72665.5
72631.7
72598
72564.2
72530.5
72496.8
72463.1
72429.4
72395.7
72362.1
72328.4
72294.8
72261.2
72227.6
72194
72160.4
72126.8
72093.3
72059.7
72026.2
71992.7
71959.2
71925.7
71892.2
71858.7
71825.3
71791.8
71758.4
71725
71691.6
71658.2
71624.9
71591.5
71558.2
71524.8
71491.5
71458.2
71424.9
71391.6
71358.4
71325.1
71291.9
71258.6
71225.4
71192.2
71159
71125.8
71092.7
71059.5
71026.4
70993.3
70960.2
70927.1
70894
70860.9
70827.9
70794.8
70761.8
70728.8
70695.8
70662.8
70629.8
70596.8
70563.9
70530.9
70498
70465.1
70432.2
70399.3
70366.4
70333.6
70300.7
70267.9
70235
70202.2
70169.4
70136.6
70103.9
70071.1
70038.4
70005.6
69972.9
69940.2
69907.5
69874.8
69842.2
69809.5
69776.9
69744.2
69711.6
69679
69646.4
69613.9
69581.3
69548.7
69516.2
69483.7
69451.2
69418.7
69386.2
69353.7
69321.2
69288.8
69256.3
69223.9
69191.5
69159.1
69126.7
69094.4
69062
69029.7
68997.3
68965
68932.7
68900.4
68868.1
68835.9
68803.6
68771.4
68739.1
68706.9
68674.7
68642.5
68610.3
68578.2
68546
68513.9
68481.7
68449.6
68417.5
68385.4
68353.4
68321.3
68289.2
68257.2
68225.2
68193.2
68161.2
68129.2
68097.2
68065.2
68033.3
68001.4
67969.4
67937.5
67905.6
67873.7
67841.9
67810
67778.2
67746.3
67714.5
67682.7
67650.9
67619.1
67587.3
67555.6
67523.8
67492.1
67460.4
67428.7
67397
67365.3
67333.6
67302
67270.3
67238.7
67207.1
67175.5
67143.9
67112.3
67080.7
67049.2
67017.6
66986.1
66954.6
66923.1
66891.6
66860.1
66828.6
66797.2
66765.7
66734.3
66702.9
66671.5
66640.1
66608.7
66577.3
66546
66514.6
66483.3
66452
66420.7
66389.4
66358.1
66326.8
66295.6
66264.4
66233.1
66201.9
66170.7
66139.5
66108.3
66077.2
66046
66014.9
65983.7
65952.6
65921.5
65890.4
65859.3
65828.3
65797.2
65766.2
65735.2
65704.1
65673.1
65642.1
65611.2
65580.2
65549.2
65518.3
65487.4
65456.5
65425.6
65394.7
65363.8
65332.9
65302.1
65271.2
65240.4
65209.6
65178.8
65148
65117.2
65086.4
65055.7
65024.9
64994.2
64963.5
64932.8
64902.1
64871.4
64840.7
64810.1
64779.4
64748.8
64718.2
64687.6
64657
64626.4
64595.8
64565.3
64534.7
64504.2
64473.7
64443.1
64412.6
64382.2
64351.7
64321.2
64290.8
64260.4
64229.9
64199.5
64169.1
64138.7
64108.4
64078
64047.6
64017.3
63987
63956.7
63926.4
63896.1
63865.8
63835.5
63805.3
63775.1
63744.8
63714.6
63684.4
63654.2
63624
63593.9
63563.7
63533.6
63503.5
63473.3
63443.2
63413.1
63383.1
63353
63322.9
63292.9
63262.9
63232.8
63202.8
63172.8
63142.9
63112.9
63082.9
63053
63023.1
62993.1
62963.2
62933.3
62903.4
62873.6
62843.7
62813.9
62784
62754.2
62724.4
62694.6
62664.8
62635
62605.2
62575.5
62545.8
62516
62486.3
62456.6
62426.9
62397.2
62367.6
62337.9
62308.3
62278.6
62249
62219.4
62189.8
62160.2
62130.6
62101.1
62071.5
62042
62012.5
61983
61953.5
61924
61894.5
61865
61835.6
61806.1
61776.7
61747.3
61717.9
61688.5
61659.1
61629.8
61600.4
61571.1
61541.7
61512.4
61483.1
61453.8
61424.5
61395.2
61366
61336.7
61307.5
61278.3
61249.1
61219.9
61190.7
61161.5
61132.3
61103.2
61074
61044.9
61015.8
60986.7
60957.6
60928.5
60899.4
60870.4
60841.3
60812.3
60783.3
60754.3
60725.3
60696.3
60667.3
60638.3
60609.4
60580.4
60551.5
60522.6
60493.7
60464.8
60435.9
60407
60378.2
60349.3
60320.5
60291.7
60262.9
60234.1
60205.3
60176.5
60147.7
60119
60090.3
60061.5
60032.8
60004.1
59975.4
59946.7
59918.1
59889.4
59860.8
59832.1
59803.5
59774.9
59746.3
59717.7
59689.1
59660.6
59632
59603.5
59574.9
59546.4
59517.9
59489.4
59460.9
59432.5
59404
59375.6
59347.1
59318.7
59290.3
59261.9
59233.5
59205.1
59176.8
59148.4
59120.1
59091.7
59063.4
59035.1
59006.8
58978.5
58950.3
58922
58893.7
58865.5
58837.3
58809.1
58780.9
58752.7
58724.5
58696.3
58668.2
58640
58611.9
58583.8
58555.7
58527.6
58499.5
58471.4
58443.3
58415.3
58387.2
58359.2
58331.2
58303.2
58275.2
58247.2
58219.2
58191.3
58163.3
58135.4
58107.5
58079.5
58051.6
58023.7
57995.9
57968
57940.1
57912.3
57884.5
57856.6
57828.8
57801
57773.2
57745.5
57717.7
57689.9
57662.2
57634.5
57606.7
57579
57551.3
57523.7
57496
57468.3
57440.7
57413
57385.4
57357.8
57330.2
57302.6
57275
57247.4
57219.9
57192.3
57164.8
57137.3
57109.7
57082.2
57054.7
57027.3
56999.8
56972.3
56944.9
56917.5
56890
56862.6
56835.2
56807.8
56780.4
56753.1
56725.7
56698.4
56671
56643.7
56616.4
56589.1
56561.8
56534.5
56507.3
56480
56452.8
56425.5
56398.3
56371.1
56343.9
56316.7
56289.6
56262.4
56235.2
56208.1
56181
56153.8
56126.7
56099.6
56072.6
56045.5
56018.4
55991.4
55964.3
55937.3
55910.3
55883.3
55856.3
55829.3
55802.3
55775.3
55748.4
55721.5
55694.5
55667.6
55640.7
55613.8
55586.9
55560
55533.2
55506.3
55479.5
55452.7
55425.8
55399
55372.2
55345.5
55318.7
55291.9
55265.2
55238.4
55211.7
55185
55158.3
55131.6
55104.9
55078.2
55051.6
55024.9
54998.3
54971.6
54945
54918.4
54891.8
54865.2
54838.7
54812.1
54785.6
54759
54732.5
54706
54679.5
54653
54626.5
54600
54573.5
54547.1
54520.6
54494.2
54467.8
54441.4
54415
54388.6
54362.2
54335.9
54309.5
54283.2
54256.8
54230.5
54204.2
54177.9
54151.6
54125.3
54099.1
54072.8
54046.6
54020.3
53994.1
53967.9
53941.7
53915.5
53889.3
53863.2
53837
53810.9
53784.7
53758.6
53732.5
53706.4
53680.3
53654.2
53628.2
53602.1
53576
53550
53524
53498
53472
53446
53420
53394
53368.1
53342.1
53316.2
53290.2
53264.3
53238.4
53212.5
53186.6
53160.8
53134.9
53109
53083.2
53057.4
53031.5
53005.7
52979.9
52954.2
52928.4
52902.6
52876.9
52851.1
52825.4
52799.7
52773.9
52748.2
52722.5
52696.9
52671.2
52645.5
52619.9
52594.3
52568.6
52543
52517.4
52491.8
52466.2
52440.7
52415.1
52389.5
52364
52338.5
52313
52287.4
52261.9
52236.5
52211
52185.5
52160.1
52134.6
52109.2
52083.8
52058.4
52032.9
52007.6
51982.2
51956.8
51931.4
51906.1
51880.8
51855.4
51830.1
51804.8
51779.5
51754.2
51729
51703.7
51678.4
51653.2
51628
51602.7
51577.5
51552.3
51527.1
51502
51476.8
51451.6
51426.5
51401.4
51376.2
51351.1
51326
51300.9
51275.8
51250.8
51225.7
51200.7
51175.6
51150.6
51125.6
51100.5
51075.5
51050.6
51025.6
51000.6
50975.7
50950.7
50925.8
50900.8
50875.9
50851
50826.1
50801.3
50776.4
50751.5
50726.7
50701.8
50677
50652.2
50627.4
50602.6
50577.8
50553
50528.2
50503.5
50478.7
50454
50429.3
50404.5
50379.8
50355.1
50330.4
50305.8
50281.1
50256.5
50231.8
50207.2
50182.6
50157.9
50133.3
50108.8
50084.2
50059.6
50035
50010.5
49986
49961.4
49936.9
49912.4
49887.9
49863.4
49838.9
49814.5
49790
49765.6
49741.1
49716.7
49692.3
49667.9
49643.5
49619.1
49594.7
49570.4
49546
49521.7
49497.3
49473
49448.7
49424.4
49400.1
49375.8
49351.6
49327.3
49303
49278.8
49254.6
49230.4
49206.1
49181.9
49157.8
49133.6
49109.4
49085.2
49061.1
49037
49012.8
48988.7
48964.6
48940.5
48916.4
48892.4
48868.3
48844.2
48820.2
48796.1
48772.1
48748.1
48724.1
48700.1
48676.1
48652.1
48628.2
48604.2
48580.3
48556.4
48532.4
48508.5
48484.6
48460.7
48436.8
48413
48389.1
48365.3
48341.4
48317.6
48293.8
48269.9
48246.1
48222.3
48198.6
48174.8
48151
48127.3
48103.5
48079.8
48056.1
48032.4
48008.7
47985
47961.3
47937.6
47914
47890.3
47866.7
47843.1
47819.4
47795.8
47772.2
47748.6
47725.1
47701.5
47677.9
47654.4
47630.8
47607.3
47583.8
47560.3
47536.8