/*--------------------------------*- C++ -*----------------------------------*\
| =========                 |                                                 |
| \\      /  F ield         | OpenFOAM: The Open Source CFD Toolbox           |
|  \\    /   O peration     | Version:  4.0                                   |
|   \\  /    A nd           | Web:      www.OpenFOAM.org                      |
|    \\/     M anipulation  |                                                 |
\*---------------------------------------------------------------------------*/
FoamFile
{
    version     2.0;
    format      ascii;
    class       surfaceScalarField;
    location    "0.007";
    object      phi;
}
// * * * * * * * * * * * * * * * * * * * * * * * * * * * * * * * * * * * * * //

dimensions      [1 0 -1 0 0 0 0];

internalField   nonuniform List<scalar> 
9999
(
-3.46745e-12
-3.18323e-12
-3.24007e-12
-3.06954e-12
-2.04636e-12
-1.19371e-12
-7.38964e-13
-2.84217e-13
-2.84217e-13
-3.97904e-13
4.54747e-13
6.25278e-13
1.3074e-12
1.76215e-12
1.42109e-12
7.38964e-13
1.42109e-12
1.59162e-12
1.76215e-12
1.81899e-12
1.7053e-12
7.95808e-13
7.38964e-13
3.97904e-13
3.97904e-13
1.19371e-12
1.98952e-12
2.10321e-12
1.98952e-12
2.27374e-12
3.0127e-12
2.38742e-12
2.10321e-12
1.7053e-12
1.25056e-12
1.13687e-12
1.19371e-12
9.09495e-13
1.42109e-12
1.08002e-12
7.95808e-13
3.41061e-13
7.95808e-13
1.87583e-12
1.98952e-12
2.67164e-12
3.06954e-12
3.9222e-12
3.97904e-12
4.94538e-12
5.22959e-12
5.51381e-12
6.25278e-12
6.76437e-12
6.87805e-12
7.3328e-12
7.16227e-12
6.99174e-12
6.30962e-12
5.74119e-12
5.6275e-12
5.68434e-12
6.19593e-12
6.42331e-12
6.76437e-12
6.42331e-12
6.48015e-12
6.13909e-12
5.74119e-12
4.43379e-12
4.77485e-12
5.11591e-12
4.77485e-12
4.54747e-12
4.718e-12
5.00222e-12
5.34328e-12
4.718e-12
5.11591e-12
5.00222e-12
3.80851e-12
4.20641e-12
4.718e-12
4.66116e-12
3.69482e-12
3.52429e-12
3.97904e-12
3.97904e-12
3.75167e-12
4.49063e-12
4.43379e-12
3.97904e-12
4.09273e-12
3.86535e-12
3.86535e-12
3.41061e-12
3.06954e-12
2.33058e-12
2.21689e-12
1.98952e-12
1.98952e-12
1.13687e-12
3.41061e-13
-1.7053e-13
-1.19371e-12
-2.6148e-12
-3.29692e-12
-4.09273e-12
-4.20641e-12
-5.17275e-12
-5.17275e-12
-5.96856e-12
-6.42331e-12
-6.87805e-12
-6.08225e-12
-6.19593e-12
-6.0254e-12
-5.51381e-12
-5.28644e-12
-5.11591e-12
-5.51381e-12
-5.28644e-12
-5.57066e-12
-4.88853e-12
-4.66116e-12
-4.37694e-12
-4.09273e-12
-3.86535e-12
-4.09273e-12
-3.52429e-12
-3.63798e-12
-4.03588e-12
-3.9222e-12
-3.63798e-12
-3.0127e-12
-2.16005e-12
-2.89901e-12
-2.16005e-12
-2.16005e-12
-7.38964e-13
-6.82121e-13
-5.68434e-13
0
7.95808e-13
7.95808e-13
1.36424e-12
2.89901e-12
4.49063e-12
5.6275e-12
6.59384e-12
7.21911e-12
7.04858e-12
7.21911e-12
7.10543e-12
7.3328e-12
6.70752e-12
5.85487e-12
6.19593e-12
6.19593e-12
6.36646e-12
5.79803e-12
6.82121e-12
7.04858e-12
6.70752e-12
6.59384e-12
6.87805e-12
5.96856e-12
6.25278e-12
6.99174e-12
7.44649e-12
8.35598e-12
9.26548e-12
9.89075e-12
9.32232e-12
9.32232e-12
9.43601e-12
9.15179e-12
9.54969e-12
9.20863e-12
9.32232e-12
9.9476e-12
1.06866e-11
1.11982e-11
1.18803e-11
1.15961e-11
1.14824e-11
1.16529e-11
1.18803e-11
1.27329e-11
1.30171e-11
1.40972e-11
1.50635e-11
1.54614e-11
1.54614e-11
1.62004e-11
1.75646e-11
1.79057e-11
1.83036e-11
1.88152e-11
1.92699e-11
1.93836e-11
1.92131e-11
1.90994e-11
1.94404e-11
1.8872e-11
1.84173e-11
1.7792e-11
1.72236e-11
1.58025e-11
1.47793e-11
1.45519e-11
1.40403e-11
1.39835e-11
1.38698e-11
1.31308e-11
1.29035e-11
1.3415e-11
1.24487e-11
1.33582e-11
1.23919e-11
1.18803e-11
1.17666e-11
1.14255e-11
1.06866e-11
1.0175e-11
9.0381e-12
8.35598e-12
6.65068e-12
5.96856e-12
4.718e-12
4.718e-12
4.83169e-12
3.97904e-12
4.60432e-12
5.00222e-12
5.17275e-12
5.34328e-12
5.05906e-12
5.51381e-12
6.53699e-12
6.9349e-12
8.18545e-12
9.0381e-12
9.66338e-12
1.01181e-11
1.02887e-11
1.10845e-11
1.20508e-11
1.21076e-11
1.26761e-11
1.36424e-11
1.46088e-11
1.49498e-11
1.53477e-11
1.53477e-11
1.57456e-11
1.5973e-11
1.62004e-11
1.52909e-11
1.55751e-11
1.51203e-11
1.46088e-11
1.39835e-11
1.33582e-11
1.26761e-11
1.20508e-11
1.15392e-11
1.10276e-11
1.13687e-11
1.15392e-11
1.17097e-11
1.10845e-11
1.05729e-11
1.0175e-11
1.06866e-11
1.02318e-11
1.09708e-11
1.13687e-11
1.13687e-11
1.15392e-11
1.19371e-11
1.16529e-11
1.09708e-11
1.14824e-11
1.18234e-11
1.13687e-11
1.17666e-11
1.15392e-11
1.21645e-11
1.21076e-11
1.21645e-11
1.21645e-11
1.20508e-11
1.10276e-11
1.06866e-11
1.04023e-11
9.72022e-12
8.81073e-12
9.20863e-12
9.26548e-12
1.04592e-11
1.06297e-11
1.15392e-11
1.19371e-11
1.21645e-11
1.28466e-11
1.24487e-11
1.26192e-11
1.29603e-11
1.33014e-11
1.36993e-11
1.47793e-11
1.56319e-11
1.51772e-11
1.63141e-11
1.60867e-11
1.64277e-11
1.68257e-11
1.75646e-11
1.83036e-11
1.8531e-11
1.84741e-11
1.8872e-11
1.94973e-11
2.02931e-11
1.97247e-11
1.9611e-11
2.01794e-11
2.02931e-11
1.98384e-11
1.98952e-11
1.93836e-11
1.88152e-11
1.7792e-11
1.72804e-11
1.67688e-11
1.5973e-11
1.50635e-11
1.43814e-11
1.35856e-11
1.37561e-11
1.31877e-11
1.29035e-11
1.2335e-11
1.21076e-11
1.15392e-11
1.21645e-11
1.30171e-11
1.40403e-11
1.39835e-11
1.46088e-11
1.42109e-11
1.47793e-11
1.55183e-11
1.64277e-11
1.69393e-11
1.76215e-11
1.84173e-11
1.91562e-11
2.05773e-11
2.12026e-11
2.18847e-11
2.23963e-11
2.23963e-11
2.38742e-11
2.45564e-11
2.52385e-11
2.56364e-11
2.56364e-11
2.65459e-11
2.7967e-11
2.84217e-11
2.79101e-11
2.73417e-11
2.71143e-11
2.67733e-11
2.71712e-11
2.68301e-11
2.71712e-11
2.67733e-11
2.6489e-11
2.49543e-11
2.52385e-11
2.62048e-11
2.60911e-11
2.50679e-11
2.359e-11
2.37037e-11
2.30216e-11
2.34763e-11
2.3249e-11
2.28511e-11
2.31921e-11
2.29079e-11
2.29079e-11
2.29079e-11
2.27374e-11
2.23395e-11
2.17142e-11
2.20552e-11
2.15437e-11
2.04636e-11
2.01226e-11
1.89857e-11
1.84173e-11
1.65414e-11
1.69393e-11
1.59162e-11
1.5234e-11
1.37561e-11
1.27898e-11
1.3074e-11
1.28466e-11
1.20508e-11
1.1255e-11
1.07434e-11
1.05729e-11
9.77707e-12
9.83391e-12
1.04023e-11
1.07434e-11
1.14824e-11
1.1255e-11
1.09708e-11
1.09708e-11
1.18234e-11
1.24487e-11
1.31308e-11
1.39835e-11
1.4154e-11
1.37561e-11
1.50067e-11
1.47224e-11
1.56888e-11
1.65983e-11
1.75078e-11
1.7792e-11
1.84173e-11
1.78488e-11
1.74509e-11
1.78488e-11
1.84741e-11
1.93836e-11
2.05773e-11
2.12026e-11
2.08047e-11
2.10321e-11
2.14868e-11
2.23395e-11
2.25668e-11
2.31921e-11
2.28511e-11
2.251e-11
2.31921e-11
2.41016e-11
2.42721e-11
2.56932e-11
2.68301e-11
2.74554e-11
2.84217e-11
2.91607e-11
3.10365e-11
3.14344e-11
3.25144e-11
3.29692e-11
3.36513e-11
3.34239e-11
3.3765e-11
3.42766e-11
3.46745e-11
3.46176e-11
3.41629e-11
3.33102e-11
3.3765e-11
3.25713e-11
3.2685e-11
3.28555e-11
3.17755e-11
3.20028e-11
3.12639e-11
3.05818e-11
3.02407e-11
2.85922e-11
2.87628e-11
2.84786e-11
2.7228e-11
2.75122e-11
2.73985e-11
2.62048e-11
2.58069e-11
2.51248e-11
2.46132e-11
2.44427e-11
2.48406e-11
2.47837e-11
2.52953e-11
2.48974e-11
2.50679e-11
2.46132e-11
2.43858e-11
2.39311e-11
2.48406e-11
2.44995e-11
2.40448e-11
2.38742e-11
2.30784e-11
2.20552e-11
2.12026e-11
2.13731e-11
2.16005e-11
2.16005e-11
2.12594e-11
2.16573e-11
2.21121e-11
2.19984e-11
2.30784e-11
2.22258e-11
2.27374e-11
2.25668e-11
2.30784e-11
2.29647e-11
2.33058e-11
2.38742e-11
2.43858e-11
2.54659e-11
2.52385e-11
2.64322e-11
2.60343e-11
2.69438e-11
2.75691e-11
2.8308e-11
2.81375e-11
2.85354e-11
2.87628e-11
2.87628e-11
2.89333e-11
2.85922e-11
2.84786e-11
2.8308e-11
2.82512e-11
2.73985e-11
2.72848e-11
2.65459e-11
2.58069e-11
2.50111e-11
2.43858e-11
2.38174e-11
2.44995e-11
2.51816e-11
2.55795e-11
2.55227e-11
2.48406e-11
2.56932e-11
2.73417e-11
2.76827e-11
2.9047e-11
2.96723e-11
3.04112e-11
3.08091e-11
3.14344e-11
3.22871e-11
3.41061e-11
3.4504e-11
3.41629e-11
3.41061e-11
3.39924e-11
3.47313e-11
3.4845e-11
3.52429e-11
3.51861e-11
3.55271e-11
3.57545e-11
3.62093e-11
3.6664e-11
3.61524e-11
3.62661e-11
3.71188e-11
3.71756e-11
3.7403e-11
3.70619e-11
3.67208e-11
3.58682e-11
3.56977e-11
3.49019e-11
3.4845e-11
3.51292e-11
3.42766e-11
3.34808e-11
3.31966e-11
3.24007e-11
3.21165e-11
3.16618e-11
2.98428e-11
2.89333e-11
2.80806e-11
2.75691e-11
2.71712e-11
2.62617e-11
2.56364e-11
2.59206e-11
2.56364e-11
2.62048e-11
2.65459e-11
2.70575e-11
2.75691e-11
2.9047e-11
2.89901e-11
2.98428e-11
3.01839e-11
2.98996e-11
3.07523e-11
3.17186e-11
3.25713e-11
3.25713e-11
3.35945e-11
3.44471e-11
3.47882e-11
3.51292e-11
3.67777e-11
3.71188e-11
3.73461e-11
3.73461e-11
3.74598e-11
3.71756e-11
3.70051e-11
3.70051e-11
3.66072e-11
3.63798e-11
3.63229e-11
3.60956e-11
3.52429e-11
3.50155e-11
3.54134e-11
3.46745e-11
3.36513e-11
3.24576e-11
3.14913e-11
3.16049e-11
3.06386e-11
3.02407e-11
3.05818e-11
3.00702e-11
2.96723e-11
3.05818e-11
3.11502e-11
3.16618e-11
3.25713e-11
3.26281e-11
3.32534e-11
3.38218e-11
3.43903e-11
3.58682e-11
3.66072e-11
3.72324e-11
3.87672e-11
3.91651e-11
4.01883e-11
4.14389e-11
4.22347e-11
4.16094e-11
4.08136e-11
4.03588e-11
4.0302e-11
4.12683e-11
4.13252e-11
4.18368e-11
4.17799e-11
4.20641e-11
4.17799e-11
4.19504e-11
4.14957e-11
4.12683e-11
4.08136e-11
4.16662e-11
4.14389e-11
4.2121e-11
4.25757e-11
4.18936e-11
4.17799e-11
4.25757e-11
4.33715e-11
4.36557e-11
4.34284e-11
4.32578e-11
4.29736e-11
4.26326e-11
4.3201e-11
4.26326e-11
4.16662e-11
4.11546e-11
4.04157e-11
3.87672e-11
3.78009e-11
3.71188e-11
3.65503e-11
3.49587e-11
3.47313e-11
3.42766e-11
3.3765e-11
3.35376e-11
3.37081e-11
3.52998e-11
3.47882e-11
3.51861e-11
3.51861e-11
3.55271e-11
3.67208e-11
3.71756e-11
3.73461e-11
3.82556e-11
3.92788e-11
3.97335e-11
4.04157e-11
4.16662e-11
4.21778e-11
4.2121e-11
4.2462e-11
4.27463e-11
4.33147e-11
4.394e-11
4.46789e-11
4.46221e-11
4.5759e-11
4.55884e-11
4.59295e-11
4.67821e-11
4.69527e-11
4.67253e-11
4.74074e-11
4.7919e-11
4.78622e-11
4.87717e-11
4.96243e-11
5.00791e-11
4.99085e-11
5.01359e-11
5.06475e-11
4.97948e-11
4.94538e-11
4.84874e-11
4.77485e-11
4.75779e-11
4.74074e-11
4.62137e-11
4.48495e-11
4.41105e-11
4.33147e-11
4.25757e-11
4.16662e-11
4.12115e-11
4.15525e-11
4.10409e-11
4.14389e-11
4.14957e-11
4.17231e-11
4.20641e-11
4.18368e-11
4.18368e-11
4.18368e-11
4.22347e-11
4.33715e-11
4.35421e-11
4.34284e-11
4.394e-11
4.35989e-11
4.40536e-11
4.45652e-11
4.50768e-11
4.59295e-11
4.67253e-11
4.7919e-11
4.72937e-11
4.64979e-11
4.61569e-11
4.69527e-11
4.78622e-11
4.92264e-11
4.95675e-11
4.9738e-11
4.99654e-11
5.08749e-11
5.16707e-11
5.17275e-11
5.28075e-11
5.30349e-11
5.34897e-11
5.26938e-11
5.19549e-11
5.19549e-11
5.19549e-11
5.17844e-11
5.11591e-11
5.16707e-11
5.24096e-11
5.24096e-11
5.20686e-11
5.21254e-11
5.15001e-11
5.1898e-11
5.13865e-11
5.14433e-11
5.08749e-11
5.08749e-11
5.12728e-11
5.08749e-11
5.03633e-11
5.01359e-11
5.01359e-11
4.96243e-11
4.93969e-11
5.0818e-11
5.03633e-11
5.0818e-11
5.14433e-11
5.22959e-11
5.23528e-11
5.20117e-11
5.20117e-11
5.19549e-11
5.07043e-11
5.0477e-11
4.92832e-11
4.8999e-11
4.90559e-11
4.75211e-11
4.70095e-11
4.61e-11
4.60432e-11
4.53042e-11
4.45652e-11
4.48495e-11
4.41105e-11
4.44516e-11
4.40536e-11
4.42242e-11
4.45084e-11
4.54747e-11
4.54747e-11
4.61e-11
4.61e-11
4.61569e-11
4.68958e-11
4.66684e-11
4.64411e-11
4.67821e-11
4.67821e-11
4.78622e-11
4.87717e-11
4.91127e-11
5.05906e-11
5.05906e-11
5.17275e-11
5.1557e-11
5.13865e-11
5.20686e-11
5.20117e-11
5.19549e-11
5.22391e-11
5.23528e-11
5.28075e-11
5.36602e-11
5.36602e-11
5.49107e-11
5.5536e-11
5.61613e-11
5.64455e-11
5.69571e-11
5.6616e-11
5.74687e-11
5.68434e-11
5.75824e-11
5.71845e-11
5.70139e-11
5.57634e-11
5.51381e-11
5.43423e-11
5.29781e-11
5.20117e-11
5.12728e-11
5.11591e-11
5.0818e-11
4.99654e-11
4.90559e-11
4.8999e-11
4.85443e-11
4.8658e-11
4.88285e-11
5.00791e-11
5.07043e-11
5.12728e-11
5.22391e-11
5.27507e-11
5.42286e-11
5.45697e-11
5.50244e-11
5.47402e-11
5.50813e-11
5.51381e-11
5.63318e-11
5.66729e-11
5.7355e-11
5.79234e-11
5.84919e-11
5.84919e-11
5.88898e-11
6.03677e-11
6.16751e-11
6.32667e-11
6.44036e-11
6.40625e-11
6.33804e-11
6.43468e-11
6.44036e-11
6.54268e-11
6.65068e-11
6.71889e-11
6.70752e-11
6.84395e-11
6.92353e-11
6.87237e-11
6.80984e-11
6.77005e-11
6.69615e-11
6.6791e-11
6.63931e-11
6.58815e-11
6.65636e-11
6.63363e-11
6.57678e-11
6.48583e-11
6.42331e-11
6.36646e-11
6.30394e-11
6.21299e-11
6.20162e-11
6.10498e-11
6.05382e-11
6.04814e-11
5.91172e-11
5.80371e-11
5.76961e-11
5.71845e-11
5.51381e-11
5.47971e-11
5.41149e-11
5.41718e-11
5.34328e-11
5.3376e-11
5.26938e-11
5.20117e-11
5.17844e-11
5.13865e-11
5.09885e-11
5.09885e-11
5.13865e-11
5.17844e-11
5.23528e-11
5.22391e-11
5.22391e-11
5.10454e-11
5.07043e-11
5.1557e-11
5.21254e-11
5.2637e-11
5.28644e-11
5.36033e-11
5.46265e-11
5.53655e-11
5.53655e-11
5.67297e-11
5.70139e-11
5.78666e-11
5.83213e-11
5.86056e-11
5.9174e-11
5.92308e-11
5.97424e-11
6.13909e-11
6.16183e-11
6.21867e-11
6.30962e-11
6.34941e-11
6.40625e-11
6.51994e-11
6.54268e-11
6.48583e-11
6.54268e-11
6.54836e-11
6.53131e-11
6.58247e-11
6.55405e-11
6.63931e-11
6.63363e-11
6.60521e-11
6.63931e-11
6.75868e-11
6.82121e-11
6.88942e-11
6.90648e-11
6.90079e-11
6.94627e-11
6.87805e-11
6.94627e-11
6.969e-11
6.9349e-11
6.83258e-11
6.77574e-11
6.74731e-11
6.67342e-11
6.60521e-11
6.49152e-11
6.45741e-11
6.42899e-11
6.33804e-11
6.30394e-11
6.26983e-11
6.22435e-11
6.2073e-11
6.21867e-11
6.25846e-11
6.23004e-11
6.1334e-11
6.09361e-11
6.04814e-11
5.97424e-11
5.93445e-11
5.83782e-11
5.82077e-11
5.87761e-11
5.86056e-11
5.81508e-11
5.69003e-11
5.65024e-11
5.59339e-11
5.57634e-11
5.53655e-11
5.58202e-11
5.50813e-11
5.42855e-11
5.38307e-11
5.40012e-11
5.41718e-11
5.42286e-11
5.47402e-11
5.47971e-11
5.43423e-11
5.30349e-11
5.36602e-11
5.36033e-11
5.38307e-11
5.36033e-11
5.3376e-11
5.41718e-11
5.43423e-11
5.3717e-11
5.42286e-11
5.34328e-11
5.42286e-11
5.56497e-11
5.58771e-11
5.5536e-11
5.67297e-11
5.67297e-11
5.63887e-11
5.62181e-11
5.70708e-11
5.74119e-11
5.8094e-11
5.83213e-11
5.94014e-11
6.07656e-11
6.11635e-11
6.17888e-11
6.23572e-11
6.25846e-11
6.23572e-11
6.32667e-11
6.3153e-11
6.37783e-11
6.44036e-11
6.53131e-11
6.60521e-11
6.58247e-11
6.61089e-11
6.61089e-11
6.69047e-11
6.74731e-11
6.79847e-11
6.79279e-11
6.83826e-11
6.79279e-11
6.82121e-11
6.86668e-11
6.82121e-11
6.96332e-11
6.98606e-11
7.03153e-11
7.12816e-11
7.13953e-11
7.13953e-11
7.1509e-11
7.17364e-11
7.20206e-11
7.16796e-11
7.30438e-11
7.2248e-11
7.26459e-11
7.19638e-11
7.17932e-11
7.17364e-11
7.12248e-11
7.07701e-11
7.03722e-11
7.03722e-11
7.1168e-11
7.07132e-11
7.10543e-11
7.10543e-11
7.07701e-11
7.09406e-11
7.02585e-11
7.08837e-11
7.07701e-11
7.00311e-11
7.02016e-11
6.89511e-11
6.76437e-11
6.67342e-11
6.50857e-11
6.48583e-11
6.50289e-11
6.46878e-11
6.41762e-11
6.41762e-11
6.33236e-11
6.33804e-11
6.40057e-11
6.30962e-11
6.32667e-11
6.25846e-11
6.16183e-11
6.13909e-11
6.11067e-11
6.08225e-11
6.00835e-11
5.99698e-11
5.92877e-11
5.87193e-11
5.82645e-11
5.8094e-11
5.77529e-11
5.78098e-11
5.75255e-11
5.68434e-11
5.67297e-11
5.65592e-11
5.58771e-11
5.58771e-11
5.5536e-11
5.64455e-11
5.66729e-11
5.63318e-11
5.74687e-11
5.8435e-11
5.82645e-11
5.95719e-11
6.05951e-11
6.11635e-11
6.18456e-11
6.21299e-11
6.19593e-11
6.20162e-11
6.27551e-11
6.22435e-11
6.19593e-11
6.21867e-11
6.20162e-11
6.25278e-11
6.23572e-11
6.2812e-11
6.30962e-11
6.19593e-11
6.12772e-11
6.01403e-11
5.99698e-11
5.92308e-11
5.97993e-11
6.01972e-11
5.94582e-11
5.90035e-11
5.88898e-11
5.91172e-11
5.86056e-11
5.89466e-11
5.96856e-11
5.95151e-11
5.96856e-11
6.03109e-11
5.97424e-11
6.01972e-11
6.08225e-11
6.15046e-11
6.1732e-11
6.33804e-11
6.37215e-11
6.44604e-11
6.47447e-11
6.54836e-11
6.61089e-11
6.55973e-11
6.54268e-11
6.4631e-11
6.45173e-11
6.3892e-11
6.34941e-11
6.3892e-11
6.44036e-11
6.38352e-11
6.34941e-11
6.42331e-11
6.38352e-11
6.34941e-11
6.38352e-11
6.32667e-11
6.36078e-11
6.40625e-11
6.3892e-11
6.39488e-11
6.40625e-11
6.43468e-11
6.40625e-11
6.37783e-11
6.34941e-11
6.29825e-11
6.19593e-11
6.18456e-11
5.98561e-11
5.82077e-11
5.8094e-11
5.79234e-11
5.70139e-11
5.54792e-11
5.38876e-11
5.26938e-11
5.25233e-11
5.20117e-11
5.15001e-11
5.11591e-11
5.12728e-11
5.1557e-11
5.11591e-11
5.12728e-11
5.22391e-11
5.22391e-11
5.21823e-11
5.20117e-11
5.19549e-11
5.19549e-11
5.32623e-11
5.3717e-11
5.34328e-11
5.37739e-11
5.31486e-11
5.39444e-11
5.46834e-11
5.51381e-11
5.59339e-11
5.57634e-11
5.76392e-11
5.80371e-11
5.85487e-11
6.00267e-11
6.08793e-11
6.23004e-11
6.26414e-11
6.30962e-11
6.4631e-11
6.52562e-11
6.59384e-11
6.68479e-11
6.79847e-11
6.83258e-11
6.90648e-11
7.02585e-11
7.05995e-11
7.10543e-11
7.08837e-11
7.15659e-11
7.2248e-11
7.24185e-11
7.27596e-11
7.33849e-11
7.17932e-11
7.25322e-11
7.2248e-11
7.29869e-11
7.24754e-11
7.24185e-11
7.31575e-11
7.28164e-11
7.25322e-11
7.19069e-11
7.1168e-11
7.09974e-11
7.09974e-11
7.11111e-11
7.11111e-11
7.13385e-11
7.10543e-11
7.09974e-11
7.08269e-11
6.98606e-11
6.9349e-11
6.84395e-11
6.77574e-11
6.74163e-11
6.63931e-11
6.63363e-11
6.65636e-11
6.61657e-11
6.69047e-11
6.62226e-11
6.6791e-11
6.62226e-11
6.59384e-11
6.61657e-11
6.60521e-11
6.49152e-11
6.4631e-11
6.45741e-11
6.36646e-11
6.34941e-11
6.37783e-11
6.42331e-11
6.49152e-11
6.50289e-11
6.53131e-11
6.69615e-11
6.71321e-11
6.68479e-11
6.76437e-11
6.7871e-11
6.86668e-11
7.0429e-11
7.12248e-11
7.13385e-11
7.19638e-11
7.11111e-11
7.08837e-11
7.15659e-11
7.21911e-11
7.20775e-11
7.16227e-11
7.13385e-11
7.19069e-11
7.20206e-11
7.15659e-11
7.34985e-11
7.42943e-11
7.45786e-11
7.53744e-11
7.49196e-11
7.42943e-11
7.42375e-11
7.33849e-11
7.31006e-11
7.34985e-11
7.27596e-11
7.2248e-11
7.27027e-11
7.16227e-11
7.12248e-11
7.05427e-11
7.01448e-11
6.98606e-11
6.91216e-11
6.94058e-11
6.89511e-11
6.84395e-11
6.75868e-11
6.75868e-11
6.80416e-11
6.7871e-11
6.77005e-11
6.65636e-11
6.66205e-11
6.645e-11
6.69615e-11
6.65068e-11
6.70752e-11
6.83258e-11
6.82689e-11
6.78142e-11
6.79279e-11
6.81553e-11
6.861e-11
6.87237e-11
6.92921e-11
6.88942e-11
6.94627e-11
7.01448e-11
7.07132e-11
7.09974e-11
7.16227e-11
7.12248e-11
7.20206e-11
7.37259e-11
7.28733e-11
7.40101e-11
7.34985e-11
7.31006e-11
7.24754e-11
7.13385e-11
7.03153e-11
6.9349e-11
6.84395e-11
6.82121e-11
6.65636e-11
6.62794e-11
6.48015e-11
6.33236e-11
6.26983e-11
6.1334e-11
6.04246e-11
5.96287e-11
5.91172e-11
5.82077e-11
5.87193e-11
5.86624e-11
5.78666e-11
5.70139e-11
5.57066e-11
5.52518e-11
5.50813e-11
5.47402e-11
5.34897e-11
5.29212e-11
5.28075e-11
5.28075e-11
5.31486e-11
5.41718e-11
5.46834e-11
5.50244e-11
5.52518e-11
5.57066e-11
5.53086e-11
5.58771e-11
5.63887e-11
5.58771e-11
5.63887e-11
5.66729e-11
5.65024e-11
5.74119e-11
5.91172e-11
5.97993e-11
6.05951e-11
6.20162e-11
6.30394e-11
6.34941e-11
6.39488e-11
6.42331e-11
6.54268e-11
6.5711e-11
6.61089e-11
6.74731e-11
6.90648e-11
7.01448e-11
7.10543e-11
7.19069e-11
7.26459e-11
7.43512e-11
7.56017e-11
7.64544e-11
7.76481e-11
7.82165e-11
7.82734e-11
8.00355e-11
8.03766e-11
8.04334e-11
8.02629e-11
8.02629e-11
7.96945e-11
7.93534e-11
7.86713e-11
7.74776e-11
7.63407e-11
7.56017e-11
7.41238e-11
7.33849e-11
7.21911e-11
7.18501e-11
7.11111e-11
7.07701e-11
7.02585e-11
6.9349e-11
6.91216e-11
6.82121e-11
6.80984e-11
6.80416e-11
6.79279e-11
6.80416e-11
6.73595e-11
6.76437e-11
6.73595e-11
6.66773e-11
6.77005e-11
6.68479e-11
6.68479e-11
6.77574e-11
6.78142e-11
6.7871e-11
6.83826e-11
6.90079e-11
6.95195e-11
7.04858e-11
7.12248e-11
7.21343e-11
7.35554e-11
7.45786e-11
7.5147e-11
7.57723e-11
7.63976e-11
7.68523e-11
7.74776e-11
7.7307e-11
7.74207e-11
7.6966e-11
7.67955e-11
7.66818e-11
7.61133e-11
7.66249e-11
7.70797e-11
7.66249e-11
7.65681e-11
7.63976e-11
7.63976e-11
7.61133e-11
7.61702e-11
7.56586e-11
7.64544e-11
7.58291e-11
7.67386e-11
7.64544e-11
7.66249e-11
7.62839e-11
7.52607e-11
7.4408e-11
7.49765e-11
7.49196e-11
7.49765e-11
7.55449e-11
7.41807e-11
7.37828e-11
7.23617e-11
7.19638e-11
7.12248e-11
7.05427e-11
7.00879e-11
6.88374e-11
6.861e-11
6.77574e-11
6.60521e-11
6.53131e-11
6.39488e-11
6.30394e-11
6.14477e-11
6.08793e-11
6.05382e-11
6.04814e-11
6.00267e-11
5.96287e-11
5.88898e-11
5.85487e-11
5.82077e-11
5.78666e-11
5.79803e-11
5.82077e-11
5.91172e-11
5.92308e-11
6.00267e-11
5.95719e-11
6.03109e-11
6.05951e-11
6.09361e-11
6.17888e-11
6.25846e-11
6.27551e-11
6.45741e-11
6.48015e-11
6.52562e-11
6.5711e-11
6.63363e-11
6.82689e-11
6.92921e-11
6.97469e-11
7.09974e-11
7.16796e-11
7.2248e-11
7.4067e-11
7.45217e-11
7.38964e-11
7.47491e-11
7.46923e-11
7.42943e-11
7.53744e-11
7.53744e-11
7.61702e-11
7.70228e-11
7.71365e-11
7.79323e-11
7.85576e-11
7.90124e-11
7.92397e-11
7.99787e-11
8.02061e-11
7.95808e-11
7.9126e-11
7.92397e-11
7.92397e-11
7.92966e-11
7.92966e-11
7.9126e-11
7.95239e-11
7.92966e-11
7.93534e-11
7.90124e-11
7.74776e-11
7.65112e-11
7.58291e-11
7.50902e-11
7.42943e-11
7.35554e-11
7.35554e-11
7.30438e-11
7.23617e-11
7.17364e-11
7.14522e-11
7.03722e-11
6.90648e-11
6.79847e-11
6.69615e-11
6.61657e-11
6.54268e-11
6.52562e-11
6.42899e-11
6.33236e-11
6.26414e-11
6.14477e-11
6.03109e-11
5.99698e-11
6.03109e-11
5.96856e-11
6.07656e-11
6.1334e-11
6.1732e-11
6.21299e-11
6.18456e-11
6.12772e-11
6.08225e-11
6.07088e-11
6.0254e-11
6.07088e-11
6.12772e-11
6.08793e-11
6.15614e-11
6.15614e-11
6.14477e-11
6.16751e-11
6.17888e-11
6.1334e-11
6.19593e-11
6.11067e-11
6.18456e-11
6.21867e-11
6.25846e-11
6.25278e-11
6.21867e-11
6.21867e-11
6.16183e-11
6.15614e-11
6.25846e-11
6.32099e-11
6.37783e-11
6.46878e-11
6.39488e-11
6.44036e-11
6.46878e-11
6.58247e-11
6.59384e-11
6.645e-11
6.57678e-11
6.62226e-11
6.70184e-11
6.76437e-11
6.83258e-11
6.82689e-11
6.87805e-11
6.861e-11
6.83258e-11
6.82121e-11
6.88374e-11
6.87805e-11
6.78142e-11
6.71321e-11
6.71321e-11
6.62794e-11
6.56541e-11
6.48015e-11
6.43468e-11
6.43468e-11
6.36078e-11
6.29257e-11
6.34941e-11
6.26983e-11
6.29825e-11
6.32667e-11
6.40625e-11
6.36646e-11
6.25846e-11
6.38352e-11
6.40625e-11
6.4631e-11
6.47447e-11
6.53131e-11
6.45741e-11
6.41762e-11
6.36078e-11
6.35509e-11
6.2812e-11
6.21299e-11
6.16751e-11
6.11067e-11
6.12772e-11
6.12204e-11
6.11067e-11
6.16751e-11
6.1334e-11
6.1732e-11
6.23004e-11
6.2073e-11
6.29825e-11
6.38352e-11
6.33804e-11
6.33236e-11
6.3892e-11
6.47447e-11
6.49152e-11
6.55973e-11
6.47447e-11
6.51994e-11
6.49152e-11
6.45741e-11
6.50289e-11
6.52562e-11
6.55405e-11
6.54268e-11
6.55973e-11
6.59384e-11
6.65636e-11
6.83826e-11
6.90079e-11
6.9349e-11
6.87237e-11
6.82689e-11
6.83258e-11
6.79279e-11
6.73595e-11
6.74163e-11
6.69047e-11
6.61657e-11
6.54836e-11
6.48583e-11
6.42331e-11
6.3892e-11
6.32667e-11
6.28688e-11
6.23572e-11
6.19025e-11
6.12772e-11
6.0993e-11
6.1732e-11
6.17888e-11
6.23004e-11
6.25278e-11
6.32099e-11
6.39488e-11
6.4972e-11
6.57678e-11
6.71889e-11
6.81553e-11
6.89511e-11
6.95195e-11
6.969e-11
7.01448e-11
7.03153e-11
7.04858e-11
7.0429e-11
7.08837e-11
7.07132e-11
7.13385e-11
7.12248e-11
7.04858e-11
6.91216e-11
6.84395e-11
6.70752e-11
6.71321e-11
6.69047e-11
6.61657e-11
6.61657e-11
6.52562e-11
6.46878e-11
6.40625e-11
6.38352e-11
6.24709e-11
6.1732e-11
6.12204e-11
5.92877e-11
5.90603e-11
5.88329e-11
5.82645e-11
5.78666e-11
5.76392e-11
5.70708e-11
5.57634e-11
5.54223e-11
5.50813e-11
5.49107e-11
5.47402e-11
5.39444e-11
5.43992e-11
5.47971e-11
5.47971e-11
5.50244e-11
5.43423e-11
5.32623e-11
5.25802e-11
5.1557e-11
5.17275e-11
5.10454e-11
5.05338e-11
5.07043e-11
5.00791e-11
5.10454e-11
5.15001e-11
5.13296e-11
5.13296e-11
5.16138e-11
5.29212e-11
5.46834e-11
5.54223e-11
5.6275e-11
5.72413e-11
5.70139e-11
5.81508e-11
5.89466e-11
5.94014e-11
5.95719e-11
5.91172e-11
5.83782e-11
5.79234e-11
5.87193e-11
5.78666e-11
5.79234e-11
5.72413e-11
5.79234e-11
5.76392e-11
5.69571e-11
5.69571e-11
5.61613e-11
5.70708e-11
5.70708e-11
5.69003e-11
5.65592e-11
5.55929e-11
5.50813e-11
5.45697e-11
5.39444e-11
5.38876e-11
5.40581e-11
5.35465e-11
5.29781e-11
5.20117e-11
5.21254e-11
5.10454e-11
5.09317e-11
5.05906e-11
5.0818e-11
5.0818e-11
5.00222e-11
4.93969e-11
4.91127e-11
4.88285e-11
4.87717e-11
4.87717e-11
4.81464e-11
4.83737e-11
4.69527e-11
4.718e-11
4.72937e-11
4.66116e-11
4.718e-11
4.67253e-11
4.65548e-11
4.72937e-11
4.73506e-11
4.78622e-11
4.78622e-11
4.7919e-11
4.7919e-11
4.7919e-11
4.84306e-11
4.86011e-11
4.89422e-11
4.89422e-11
4.93401e-11
5.01359e-11
4.99085e-11
5.01927e-11
4.96811e-11
4.95106e-11
4.94538e-11
4.95675e-11
4.93401e-11
4.79758e-11
4.80327e-11
4.86011e-11
4.80327e-11
4.80895e-11
4.8658e-11
4.87717e-11
4.96243e-11
5.00791e-11
5.0477e-11
5.20117e-11
5.25233e-11
5.36033e-11
5.45697e-11
5.51381e-11
5.54223e-11
5.57066e-11
5.54223e-11
5.59908e-11
5.64455e-11
5.61045e-11
5.61045e-11
5.61613e-11
5.58771e-11
5.57066e-11
5.5195e-11
5.5195e-11
5.48539e-11
5.33191e-11
5.25802e-11
5.22959e-11
5.18412e-11
5.1557e-11
5.1898e-11
5.22959e-11
5.19549e-11
5.32623e-11
5.25802e-11
5.21254e-11
5.22959e-11
5.20686e-11
5.24096e-11
5.29212e-11
5.27507e-11
5.21823e-11
5.17275e-11
5.20117e-11
5.23528e-11
5.12728e-11
5.03064e-11
4.99085e-11
4.92832e-11
4.95106e-11
4.96811e-11
5.02496e-11
5.09317e-11
5.20117e-11
5.30349e-11
5.27507e-11
5.36033e-11
5.42286e-11
5.58202e-11
5.74119e-11
5.92308e-11
5.93445e-11
6.07656e-11
6.1732e-11
6.25846e-11
6.36078e-11
6.33236e-11
6.40625e-11
6.48583e-11
6.49152e-11
6.46878e-11
6.51426e-11
6.42899e-11
6.35509e-11
6.30394e-11
6.21867e-11
6.17888e-11
6.1334e-11
6.06519e-11
5.92877e-11
5.88329e-11
5.78098e-11
5.80371e-11
5.67297e-11
5.59339e-11
5.43423e-11
5.29212e-11
5.17844e-11
5.13865e-11
4.92832e-11
4.8999e-11
4.80895e-11
4.73506e-11
4.66116e-11
4.61e-11
4.43947e-11
4.43947e-11
4.46789e-11
4.4281e-11
4.36557e-11
4.28031e-11
4.27463e-11
4.30305e-11
4.26894e-11
4.21778e-11
4.22347e-11
4.33147e-11
4.35421e-11
4.43379e-11
4.502e-11
4.59863e-11
4.70664e-11
4.75211e-11
4.85443e-11
4.90559e-11
4.97948e-11
5.05338e-11
5.01359e-11
5.05906e-11
5.10454e-11
5.07043e-11
4.99085e-11
4.97948e-11
5.01359e-11
5.01359e-11
5.03064e-11
5.07043e-11
5.0477e-11
5.15001e-11
5.11591e-11
5.10454e-11
5.04201e-11
4.97948e-11
4.8999e-11
4.83169e-11
4.79758e-11
4.69527e-11
4.62705e-11
4.59295e-11
4.55884e-11
4.54179e-11
4.52474e-11
4.55316e-11
4.51905e-11
4.4281e-11
4.41105e-11
4.4281e-11
4.41673e-11
4.35421e-11
4.33715e-11
4.35989e-11
4.29736e-11
4.31442e-11
4.31442e-11
4.34852e-11
4.42242e-11
4.52474e-11
4.59863e-11
4.62137e-11
4.6839e-11
4.74643e-11
4.76916e-11
4.7919e-11
4.83169e-11
4.88853e-11
4.86011e-11
4.89422e-11
4.93969e-11
4.92264e-11
4.99085e-11
4.9738e-11
5.02496e-11
5.05906e-11
5.00791e-11
5.05338e-11
5.0818e-11
5.12159e-11
5.10454e-11
5.12159e-11
5.08749e-11
5.11591e-11
5.07612e-11
5.02496e-11
5.10454e-11
5.07043e-11
5.0477e-11
5.05338e-11
5.15001e-11
5.24665e-11
5.29781e-11
5.32054e-11
5.38876e-11
5.47971e-11
5.42286e-11
5.46834e-11
5.53086e-11
5.6275e-11
5.67297e-11
5.85487e-11
5.97993e-11
6.06519e-11
6.27551e-11
6.39488e-11
6.50289e-11
6.63931e-11
6.77005e-11
6.99742e-11
7.2589e-11
7.55449e-11
7.98082e-11
8.46967e-11
9.08926e-11
9.83391e-11
1.08287e-10
1.19599e-10
1.34378e-10
1.52454e-10
1.74339e-10
1.99634e-10
2.31466e-10
2.69381e-10
3.16049e-10
3.72836e-10
4.40764e-10
5.21652e-10
6.20844e-10
7.41124e-10
8.85279e-10
1.05973e-09
1.27045e-09
1.52414e-09
1.83002e-09
2.19819e-09
2.64208e-09
3.17465e-09
3.8163e-09
4.58516e-09
5.51006e-09
6.61754e-09
7.94654e-09
9.53804e-09
1.14417e-08
1.37178e-08
1.64358e-08
1.96824e-08
2.35542e-08
2.81688e-08
3.36643e-08
4.02047e-08
4.79827e-08
5.72234e-08
6.81944e-08
8.12095e-08
9.66374e-08
1.1491e-07
1.36535e-07
1.6211e-07
1.92329e-07
2.28009e-07
2.70104e-07
3.19726e-07
3.78176e-07
4.46969e-07
5.2787e-07
6.22934e-07
7.34553e-07
8.65503e-07
1.01901e-06
1.19881e-06
1.40924e-06
1.65533e-06
1.94287e-06
2.27858e-06
2.67021e-06
3.12671e-06
3.65838e-06
4.27709e-06
4.99652e-06
5.83236e-06
6.80267e-06
7.92814e-06
9.2325e-06
1.0743e-05
1.24906e-05
1.45111e-05
1.68449e-05
1.95386e-05
2.2645e-05
2.62242e-05
3.0345e-05
3.50851e-05
4.05331e-05
4.67896e-05
5.39683e-05
6.21983e-05
7.16256e-05
8.24151e-05
9.47533e-05
0.00010885
0.000124943
0.000143299
0.000164218
0.000188038
0.000215137
0.00024594
0.000280924
0.000320621
0.000365628
0.00041661
0.00047431
0.000539557
0.000613273
0.000696485
0.000790333
0.000896084
0.00101514
0.00114906
0.00129957
0.00146857
0.00165815
0.00187065
0.00210862
0.00237487
0.00267249
0.00300488
0.00337577
0.00378925
0.00424978
0.00476226
0.00533202
0.0059649
0.00666723
0.00744593
0.00830851
0.00926312
0.0103186
0.0114846
0.0127713
0.0141901
0.015753
0.017473
0.0193642
0.0214417
0.0237216
0.0262213
0.0289595
0.0319559
0.035232
0.0388103
0.0427151
0.0469721
0.0516085
0.0566535
0.0621376
0.0680935
0.0745554
0.0815597
0.0891445
0.09735
0.106218
0.115794
0.126123
0.137254
0.149238
0.162128
0.175977
0.190845
0.206789
0.223871
0.242155
0.261706
0.282592
0.304882
0.328648
0.353963
0.380901
0.409539
0.439956
0.472231
0.506444
0.542677
0.581014
0.621537
0.664332
0.709482
0.757074
0.807193
0.859923
0.91535
0.973558
1.03463
1.09865
1.16571
1.23587
1.30923
1.38585
1.46582
1.54921
1.63609
1.72653
1.8206
1.91836
2.01987
2.1252
2.2344
2.34751
2.4646
2.5857
2.71087
2.84013
2.97352
3.11108
3.25283
3.3988
3.54901
3.70347
3.8622
4.02521
4.19251
4.36409
4.53996
4.72012
4.90455
5.09325
5.28619
5.48337
5.68477
5.89036
6.10012
6.31401
6.53201
6.75409
6.98021
7.21033
7.44441
7.68242
7.9243
8.17002
8.41953
8.67278
8.92972
9.1903
9.45447
9.72218
9.99337
10.268
10.546
10.8273
11.1119
11.3997
11.6907
11.9847
12.2819
12.5819
12.885
13.1909
13.4996
13.8111
14.1253
14.4421
14.7615
15.0835
15.408
15.7349
16.0642
16.3959
16.7298
17.0659
17.4043
17.7447
18.0873
18.4319
18.7784
19.1269
19.4773
19.8296
20.1836
20.5394
20.897
21.2562
21.617
21.9795
22.3435
22.709
23.076
23.4444
23.8143
24.1855
24.558
24.9319
25.307
25.6833
26.0608
26.4395
26.8194
27.2003
27.5823
27.9654
28.3495
28.7346
29.1207
29.5077
29.8956
30.2844
30.674
31.0645
31.4558
31.848
32.2408
32.6345
33.0288
33.4239
33.8197
34.2161
34.6132
35.0109
35.4092
35.8081
36.2076
36.6076
37.0082
37.4093
37.8109
38.213
38.6156
39.0186
39.4221
39.8261
40.2304
40.6352
41.0403
41.4459
41.8517
42.258
42.6646
43.0715
43.4788
43.8863
44.2942
44.7023
45.1107
45.5194
45.9283
46.3375
46.7469
47.1566
47.5664
47.9765
48.3868
48.7972
49.2079
49.6187
50.0297
50.4408
50.8521
51.2636
51.6752
52.0869
52.4987
52.9107
53.3227
53.7349
54.1471
54.5595
54.9719
55.3844
55.797
56.2096
56.6223
57.035
57.4478
57.8607
58.2736
58.6865
59.0994
59.5124
59.9254
60.3383
60.7513
61.1644
61.5774
61.9904
62.4033
62.8163
63.2293
63.6422
64.0551
64.468
64.8809
65.2937
65.7064
66.1192
66.5318
66.9445
67.357
67.7695
68.182
68.5944
69.0067
69.4189
69.8311
70.2432
70.6552
71.0671
71.479
71.8908
72.3024