/*--------------------------------*- C++ -*----------------------------------*\
| =========                 |                                                 |
| \\      /  F ield         | OpenFOAM: The Open Source CFD Toolbox           |
|  \\    /   O peration     | Version:  4.0                                   |
|   \\  /    A nd           | Web:      www.OpenFOAM.org                      |
|    \\/     M anipulation  |                                                 |
\*---------------------------------------------------------------------------*/
FoamFile
{
    version     2.0;
    format      ascii;
    class       volScalarField;
    location    "0.007";
    object      T;
}
// * * * * * * * * * * * * * * * * * * * * * * * * * * * * * * * * * * * * * //

dimensions      [0 0 0 1 0 0 0];

internalField   nonuniform List<scalar> 
10000
(
348.432
348.432
348.432
348.432
348.432
348.432
348.432
348.432
348.432
348.432
348.432
348.432
348.432
348.432
348.432
348.432
348.432
348.432
348.432
348.432
348.432
348.432
348.432
348.432
348.432
348.432
348.432
348.432
348.432
348.432
348.432
348.432
348.432
348.432
348.432
348.432
348.432
348.432
348.432
348.432
348.432
348.432
348.432
348.432
348.432
348.432
348.432
348.432
348.432
348.432
348.432
348.432
348.432
348.432
348.432
348.432
348.432
348.432
348.432
348.432
348.432
348.432
348.432
348.432
348.432
348.432
348.432
348.432
348.432
348.432
348.432
348.432
348.432
348.432
348.432
348.432
348.432
348.432
348.432
348.432
348.432
348.432
348.432
348.432
348.432
348.432
348.432
348.432
348.432
348.432
348.432
348.432
348.432
348.432
348.432
348.432
348.432
348.432
348.432
348.432
348.432
348.432
348.432
348.432
348.432
348.432
348.432
348.432
348.432
348.432
348.432
348.432
348.432
348.432
348.432
348.432
348.432
348.432
348.432
348.432
348.432
348.432
348.432
348.432
348.432
348.432
348.432
348.432
348.432
348.432
348.432
348.432
348.432
348.432
348.432
348.432
348.432
348.432
348.432
348.432
348.432
348.432
348.432
348.432
348.432
348.432
348.432
348.432
348.432
348.432
348.432
348.432
348.432
348.432
348.432
348.432
348.432
348.432
348.432
348.432
348.432
348.432
348.432
348.432
348.432
348.432
348.432
348.432
348.432
348.432
348.432
348.432
348.432
348.432
348.432
348.432
348.432
348.432
348.432
348.432
348.432
348.432
348.432
348.432
348.432
348.432
348.432
348.432
348.432
348.432
348.432
348.432
348.432
348.432
348.432
348.432
348.432
348.432
348.432
348.432
348.432
348.432
348.432
348.432
348.432
348.432
348.432
348.432
348.432
348.432
348.432
348.432
348.432
348.432
348.432
348.432
348.432
348.432
348.432
348.432
348.432
348.432
348.432
348.432
348.432
348.432
348.432
348.432
348.432
348.432
348.432
348.432
348.432
348.432
348.432
348.432
348.432
348.432
348.432
348.432
348.432
348.432
348.432
348.432
348.432
348.432
348.432
348.432
348.432
348.432
348.432
348.432
348.432
348.432
348.432
348.432
348.432
348.432
348.432
348.432
348.432
348.432
348.432
348.432
348.432
348.432
348.432
348.432
348.432
348.432
348.432
348.432
348.432
348.432
348.432
348.432
348.432
348.432
348.432
348.432
348.432
348.432
348.432
348.432
348.432
348.432
348.432
348.432
348.432
348.432
348.432
348.432
348.432
348.432
348.432
348.432
348.432
348.432
348.432
348.432
348.432
348.432
348.432
348.432
348.432
348.432
348.432
348.432
348.432
348.432
348.432
348.432
348.432
348.432
348.432
348.432
348.432
348.432
348.432
348.432
348.432
348.432
348.432
348.432
348.432
348.432
348.432
348.432
348.432
348.432
348.432
348.432
348.432
348.432
348.432
348.432
348.432
348.432
348.432
348.432
348.432
348.432
348.432
348.432
348.432
348.432
348.432
348.432
348.432
348.432
348.432
348.432
348.432
348.432
348.432
348.432
348.432
348.432
348.432
348.432
348.432
348.432
348.432
348.432
348.432
348.432
348.432
348.432
348.432
348.432
348.432
348.432
348.432
348.432
348.432
348.432
348.432
348.432
348.432
348.432
348.432
348.432
348.432
348.432
348.432
348.432
348.432
348.432
348.432
348.432
348.432
348.432
348.432
348.432
348.432
348.432
348.432
348.432
348.432
348.432
348.432
348.432
348.432
348.432
348.432
348.432
348.432
348.432
348.432
348.432
348.432
348.432
348.432
348.432
348.432
348.432
348.432
348.432
348.432
348.432
348.432
348.432
348.432
348.432
348.432
348.432
348.432
348.432
348.432
348.432
348.432
348.432
348.432
348.432
348.432
348.432
348.432
348.432
348.432
348.432
348.432
348.432
348.432
348.432
348.432
348.432
348.432
348.432
348.432
348.432
348.432
348.432
348.432
348.432
348.432
348.432
348.432
348.432
348.432
348.432
348.432
348.432
348.432
348.432
348.432
348.432
348.432
348.432
348.432
348.432
348.432
348.432
348.432
348.432
348.432
348.432
348.432
348.432
348.432
348.432
348.432
348.432
348.432
348.432
348.432
348.432
348.432
348.432
348.432
348.432
348.432
348.432
348.432
348.432
348.432
348.432
348.432
348.432
348.432
348.432
348.432
348.432
348.432
348.432
348.432
348.432
348.432
348.432
348.432
348.432
348.432
348.432
348.432
348.432
348.432
348.432
348.432
348.432
348.432
348.432
348.432
348.432
348.432
348.432
348.432
348.432
348.432
348.432
348.432
348.432
348.432
348.432
348.432
348.432
348.432
348.432
348.432
348.432
348.432
348.432
348.432
348.432
348.432
348.432
348.432
348.432
348.432
348.432
348.432
348.432
348.432
348.432
348.432
348.432
348.432
348.432
348.432
348.432
348.432
348.432
348.432
348.432
348.432
348.432
348.432
348.432
348.432
348.432
348.432
348.432
348.432
348.432
348.432
348.432
348.432
348.432
348.432
348.432
348.432
348.432
348.432
348.432
348.432
348.432
348.432
348.432
348.432
348.432
348.432
348.432
348.432
348.432
348.432
348.432
348.432
348.432
348.432
348.432
348.432
348.432
348.432
348.432
348.432
348.432
348.432
348.432
348.432
348.432
348.432
348.432
348.432
348.432
348.432
348.432
348.432
348.432
348.432
348.432
348.432
348.432
348.432
348.432
348.432
348.432
348.432
348.432
348.432
348.432
348.432
348.432
348.432
348.432
348.432
348.432
348.432
348.432
348.432
348.432
348.432
348.432
348.432
348.432
348.432
348.432
348.432
348.432
348.432
348.432
348.432
348.432
348.432
348.432
348.432
348.432
348.432
348.432
348.432
348.432
348.432
348.432
348.432
348.432
348.432
348.432
348.432
348.432
348.432
348.432
348.432
348.432
348.432
348.432
348.432
348.432
348.432
348.432
348.432
348.432
348.432
348.432
348.432
348.432
348.432
348.432
348.432
348.432
348.432
348.432
348.432
348.432
348.432
348.432
348.432
348.432
348.432
348.432
348.432
348.432
348.432
348.432
348.432
348.432
348.432
348.432
348.432
348.432
348.432
348.432
348.432
348.432
348.432
348.432
348.432
348.432
348.432
348.432
348.432
348.432
348.432
348.432
348.432
348.432
348.432
348.432
348.432
348.432
348.432
348.432
348.432
348.432
348.432
348.432
348.432
348.432
348.432
348.432
348.432
348.432
348.432
348.432
348.432
348.432
348.432
348.432
348.432
348.432
348.432
348.432
348.432
348.432
348.432
348.432
348.432
348.432
348.432
348.432
348.432
348.432
348.432
348.432
348.432
348.432
348.432
348.432
348.432
348.432
348.432
348.432
348.432
348.432
348.432
348.432
348.432
348.432
348.432
348.432
348.432
348.432
348.432
348.432
348.432
348.432
348.432
348.432
348.432
348.432
348.432
348.432
348.432
348.432
348.432
348.432
348.432
348.432
348.432
348.432
348.432
348.432
348.432
348.432
348.432
348.432
348.432
348.432
348.432
348.432
348.432
348.432
348.432
348.432
348.432
348.432
348.432
348.432
348.432
348.432
348.432
348.432
348.432
348.432
348.432
348.432
348.432
348.432
348.432
348.432
348.432
348.432
348.432
348.432
348.432
348.432
348.432
348.432
348.432
348.432
348.432
348.432
348.432
348.432
348.432
348.432
348.432
348.432
348.432
348.432
348.432
348.432
348.432
348.432
348.432
348.432
348.432
348.432
348.432
348.432
348.432
348.432
348.432
348.432
348.432
348.432
348.432
348.432
348.432
348.432
348.432
348.432
348.432
348.432
348.432
348.432
348.432
348.432
348.432
348.432
348.432
348.432
348.432
348.432
348.432
348.432
348.432
348.432
348.432
348.432
348.432
348.432
348.432
348.432
348.432
348.432
348.432
348.432
348.432
348.432
348.432
348.432
348.432
348.432
348.432
348.432
348.432
348.432
348.432
348.432
348.432
348.432
348.432
348.432
348.432
348.432
348.432
348.432
348.432
348.432
348.432
348.432
348.432
348.432
348.432
348.432
348.432
348.432
348.432
348.432
348.432
348.432
348.432
348.432
348.432
348.432
348.432
348.432
348.432
348.432
348.432
348.432
348.432
348.432
348.432
348.432
348.432
348.432
348.432
348.432
348.432
348.432
348.432
348.432
348.432
348.432
348.432
348.432
348.432
348.432
348.432
348.432
348.432
348.432
348.432
348.432
348.432
348.432
348.432
348.432
348.432
348.432
348.432
348.432
348.432
348.432
348.432
348.432
348.432
348.432
348.432
348.432
348.432
348.432
348.432
348.432
348.432
348.432
348.432
348.432
348.432
348.432
348.432
348.432
348.432
348.432
348.432
348.432
348.432
348.432
348.432
348.432
348.432
348.432
348.432
348.432
348.432
348.432
348.432
348.432
348.432
348.432
348.432
348.432
348.432
348.432
348.432
348.432
348.432
348.432
348.432
348.432
348.432
348.432
348.432
348.432
348.432
348.432
348.432
348.432
348.432
348.432
348.432
348.432
348.432
348.432
348.432
348.432
348.432
348.432
348.432
348.432
348.432
348.432
348.432
348.432
348.432
348.432
348.432
348.432
348.432
348.432
348.432
348.432
348.432
348.432
348.432
348.432
348.432
348.432
348.432
348.432
348.432
348.432
348.432
348.432
348.432
348.432
348.432
348.432
348.432
348.432
348.432
348.432
348.432
348.432
348.432
348.432
348.432
348.432
348.432
348.432
348.432
348.432
348.432
348.432
348.432
348.432
348.432
348.432
348.432
348.432
348.432
348.432
348.432
348.432
348.432
348.432
348.432
348.432
348.432
348.432
348.432
348.432
348.432
348.432
348.432
348.432
348.432
348.432
348.432
348.432
348.432
348.432
348.432
348.432
348.432
348.432
348.432
348.432
348.432
348.432
348.432
348.432
348.432
348.432
348.432
348.432
348.432
348.432
348.432
348.432
348.432
348.432
348.432
348.432
348.432
348.432
348.432
348.432
348.432
348.432
348.432
348.432
348.432
348.432
348.432
348.432
348.432
348.432
348.432
348.432
348.432
348.432
348.432
348.432
348.432
348.432
348.432
348.432
348.432
348.432
348.432
348.432
348.432
348.432
348.432
348.432
348.432
348.432
348.432
348.432
348.432
348.432
348.432
348.432
348.432
348.432
348.432
348.432
348.432
348.432
348.432
348.432
348.432
348.432
348.432
348.432
348.432
348.432
348.432
348.432
348.432
348.432
348.432
348.432
348.432
348.432
348.432
348.432
348.432
348.432
348.432
348.432
348.432
348.432
348.432
348.432
348.432
348.432
348.432
348.432
348.432
348.432
348.432
348.432
348.432
348.432
348.432
348.432
348.432
348.432
348.432
348.432
348.432
348.432
348.432
348.432
348.432
348.432
348.432
348.432
348.432
348.432
348.432
348.432
348.432
348.432
348.432
348.432
348.432
348.432
348.432
348.432
348.432
348.432
348.432
348.432
348.432
348.432
348.432
348.432
348.432
348.432
348.432
348.432
348.432
348.432
348.432
348.432
348.432
348.432
348.432
348.432
348.432
348.432
348.432
348.432
348.432
348.432
348.432
348.432
348.432
348.432
348.432
348.432
348.432
348.432
348.432
348.432
348.432
348.432
348.432
348.432
348.432
348.432
348.432
348.432
348.432
348.432
348.432
348.432
348.432
348.432
348.432
348.432
348.432
348.432
348.432
348.432
348.432
348.432
348.432
348.432
348.432
348.432
348.432
348.432
348.432
348.432
348.432
348.432
348.432
348.432
348.432
348.432
348.432
348.432
348.432
348.432
348.432
348.432
348.432
348.432
348.432
348.432
348.432
348.432
348.432
348.432
348.432
348.432
348.432
348.432
348.432
348.432
348.432
348.432
348.432
348.432
348.432
348.432
348.432
348.432
348.432
348.432
348.432
348.432
348.432
348.432
348.432
348.432
348.432
348.432
348.432
348.432
348.432
348.432
348.432
348.432
348.432
348.432
348.432
348.432
348.432
348.432
348.432
348.432
348.432
348.432
348.432
348.432
348.432
348.432
348.432
348.432
348.432
348.432
348.432
348.432
348.432
348.432
348.432
348.432
348.432
348.432
348.432
348.432
348.432
348.432
348.432
348.432
348.432
348.432
348.432
348.432
348.432
348.432
348.432
348.432
348.432
348.432
348.432
348.432
348.432
348.432
348.432
348.432
348.432
348.432
348.432
348.432
348.432
348.432
348.432
348.432
348.432
348.432
348.432
348.432
348.432
348.432
348.432
348.432
348.432
348.432
348.432
348.432
348.432
348.432
348.432
348.432
348.432
348.432
348.432
348.432
348.432
348.432
348.432
348.432
348.432
348.432
348.432
348.432
348.432
348.432
348.432
348.432
348.432
348.432
348.432
348.432
348.432
348.432
348.432
348.432
348.432
348.432
348.432
348.432
348.432
348.432
348.432
348.432
348.432
348.432
348.432
348.432
348.432
348.432
348.432
348.432
348.432
348.432
348.432
348.432
348.432
348.432
348.432
348.432
348.432
348.432
348.432
348.432
348.432
348.432
348.432
348.432
348.432
348.432
348.432
348.432
348.432
348.432
348.432
348.432
348.432
348.432
348.432
348.432
348.432
348.432
348.432
348.432
348.432
348.432
348.432
348.432
348.432
348.432
348.432
348.432
348.432
348.432
348.432
348.432
348.432
348.432
348.432
348.432
348.432
348.432
348.432
348.432
348.432
348.432
348.432
348.432
348.432
348.432
348.432
348.432
348.432
348.432
348.432
348.432
348.432
348.432
348.432
348.432
348.432
348.432
348.432
348.432
348.432
348.432
348.432
348.432
348.432
348.432
348.432
348.432
348.432
348.432
348.432
348.432
348.432
348.432
348.432
348.432
348.432
348.432
348.432
348.432
348.432
348.432
348.432
348.432
348.432
348.432
348.432
348.432
348.432
348.432
348.432
348.432
348.432
348.432
348.432
348.432
348.432
348.432
348.432
348.432
348.432
348.432
348.432
348.432
348.432
348.432
348.432
348.432
348.432
348.432
348.432
348.432
348.432
348.432
348.432
348.432
348.432
348.432
348.432
348.432
348.432
348.432
348.432
348.432
348.432
348.432
348.432
348.432
348.432
348.432
348.432
348.432
348.432
348.432
348.432
348.432
348.432
348.432
348.432
348.432
348.432
348.432
348.432
348.432
348.432
348.432
348.432
348.432
348.432
348.432
348.432
348.432
348.432
348.432
348.432
348.432
348.432
348.432
348.432
348.432
348.432
348.432
348.432
348.432
348.432
348.432
348.432
348.432
348.432
348.432
348.432
348.432
348.432
348.432
348.432
348.432
348.432
348.432
348.432
348.432
348.432
348.432
348.432
348.432
348.432
348.432
348.432
348.432
348.432
348.432
348.432
348.432
348.432
348.432
348.432
348.432
348.432
348.432
348.432
348.432
348.432
348.432
348.432
348.432
348.432
348.432
348.432
348.432
348.432
348.432
348.432
348.432
348.432
348.432
348.432
348.432
348.432
348.432
348.432
348.432
348.432
348.432
348.432
348.432
348.432
348.432
348.432
348.432
348.432
348.432
348.432
348.432
348.432
348.432
348.432
348.432
348.432
348.432
348.432
348.432
348.432
348.432
348.432
348.432
348.432
348.432
348.432
348.432
348.432
348.432
348.432
348.432
348.432
348.432
348.432
348.432
348.432
348.432
348.432
348.432
348.432
348.432
348.432
348.432
348.432
348.432
348.432
348.432
348.432
348.432
348.432
348.432
348.432
348.432
348.432
348.432
348.432
348.432
348.432
348.432
348.432
348.432
348.432
348.432
348.432
348.432
348.432
348.432
348.432
348.432
348.432
348.432
348.432
348.432
348.432
348.432
348.432
348.432
348.432
348.432
348.432
348.432
348.432
348.432
348.432
348.432
348.432
348.432
348.432
348.432
348.432
348.432
348.432
348.432
348.432
348.432
348.432
348.432
348.432
348.432
348.432
348.432
348.432
348.432
348.432
348.432
348.432
348.432
348.432
348.432
348.432
348.432
348.432
348.432
348.432
348.432
348.432
348.432
348.432
348.432
348.432
348.432
348.432
348.432
348.432
348.432
348.432
348.432
348.432
348.432
348.432
348.432
348.432
348.432
348.432
348.432
348.432
348.432
348.432
348.432
348.432
348.432
348.432
348.432
348.432
348.432
348.432
348.432
348.432
348.432
348.432
348.432
348.432
348.432
348.432
348.432
348.432
348.432
348.432
348.432
348.432
348.432
348.432
348.432
348.432
348.432
348.432
348.432
348.432
348.432
348.432
348.432
348.432
348.432
348.432
348.432
348.432
348.432
348.432
348.432
348.432
348.432
348.432
348.432
348.432
348.432
348.432
348.432
348.432
348.432
348.432
348.432
348.432
348.432
348.432
348.432
348.432
348.432
348.432
348.432
348.432
348.432
348.432
348.432
348.432
348.432
348.432
348.432
348.432
348.432
348.432
348.432
348.432
348.432
348.432
348.432
348.432
348.432
348.432
348.432
348.432
348.432
348.432
348.432
348.432
348.432
348.432
348.432
348.432
348.432
348.432
348.432
348.432
348.432
348.432
348.432
348.432
348.432
348.432
348.432
348.432
348.432
348.432
348.432
348.432
348.432
348.432
348.432
348.432
348.432
348.432
348.432
348.432
348.432
348.432
348.432
348.432
348.432
348.432
348.432
348.432
348.432
348.432
348.432
348.432
348.432
348.432
348.432
348.432
348.432
348.432
348.432
348.432
348.432
348.432
348.432
348.432
348.432
348.432
348.432
348.432
348.432
348.432
348.432
348.432
348.432
348.432
348.432
348.432
348.432
348.432
348.432
348.432
348.432
348.432
348.432
348.432
348.432
348.432
348.432
348.432
348.432
348.432
348.432
348.432
348.432
348.432
348.432
348.432
348.432
348.432
348.432
348.432
348.432
348.432
348.432
348.432
348.432
348.432
348.432
348.432
348.432
348.432
348.432
348.432
348.432
348.432
348.432
348.432
348.432
348.432
348.432
348.432
348.432
348.432
348.432
348.432
348.432
348.432
348.432
348.432
348.432
348.432
348.432
348.432
348.432
348.432
348.432
348.432
348.432
348.432
348.432
348.432
348.432
348.432
348.432
348.432
348.432
348.432
348.432
348.432
348.432
348.432
348.432
348.432
348.432
348.432
348.432
348.432
348.432
348.432
348.432
348.432
348.432
348.432
348.432
348.432
348.432
348.432
348.432
348.432
348.432
348.432
348.432
348.432
348.432
348.432
348.432
348.432
348.432
348.432
348.432
348.432
348.432
348.432
348.432
348.432
348.432
348.432
348.432
348.432
348.432
348.432
348.432
348.432
348.432
348.432
348.432
348.432
348.432
348.432
348.432
348.432
348.432
348.432
348.432
348.432
348.432
348.432
348.432
348.432
348.432
348.432
348.432
348.432
348.432
348.432
348.432
348.432
348.432
348.432
348.432
348.432
348.432
348.432
348.432
348.432
348.432
348.432
348.432
348.432
348.432
348.432
348.432
348.432
348.432
348.432
348.432
348.432
348.432
348.432
348.432
348.432
348.432
348.432
348.432
348.432
348.432
348.432
348.432
348.432
348.432
348.432
348.432
348.432
348.432
348.432
348.432
348.432
348.432
348.432
348.432
348.432
348.432
348.432
348.432
348.432
348.432
348.432
348.432
348.432
348.432
348.432
348.432
348.432
348.432
348.432
348.432
348.432
348.432
348.432
348.432
348.432
348.432
348.432
348.432
348.432
348.432
348.432
348.432
348.432
348.432
348.432
348.432
348.432
348.432
348.432
348.432
348.432
348.432
348.432
348.432
348.432
348.432
348.432
348.432
348.432
348.432
348.432
348.432
348.432
348.432
348.432
348.432
348.432
348.432
348.432
348.432
348.432
348.432
348.432
348.432
348.432
348.432
348.432
348.432
348.432
348.432
348.432
348.432
348.432
348.432
348.432
348.432
348.432
348.432
348.432
348.432
348.432
348.432
348.432
348.432
348.432
348.432
348.432
348.432
348.431
348.431
348.431
348.431
348.431
348.431
348.431
348.431
348.431
348.431
348.43
348.43
348.43
348.43
348.43
348.429
348.429
348.429
348.429
348.428
348.428
348.427
348.427
348.426
348.426
348.425
348.425
348.424
348.423
348.422
348.422
348.421
348.42
348.419
348.417
348.416
348.415
348.413
348.412
348.41
348.408
348.407
348.405
348.402
348.4
348.398
348.395
348.392
348.389
348.386
348.383
348.38
348.376
348.372
348.368
348.363
348.359
348.354
348.349
348.344
348.338
348.332
348.326
348.32
348.313
348.306
348.299
348.291
348.283
348.275
348.266
348.257
348.248
348.238
348.228
348.218
348.207
348.196
348.184
348.172
348.16
348.147
348.134
348.121
348.107
348.092
348.078
348.063
348.047
348.031
348.015
347.998
347.981
347.964
347.946
347.927
347.908
347.889
347.87
347.85
347.83
347.809
347.788
347.766
347.744
347.722
347.699
347.676
347.653
347.629
347.605
347.581
347.556
347.531
347.505
347.48
347.453
347.427
347.4
347.373
347.346
347.318
347.29
347.262
347.233
347.204
347.175
347.145
347.116
347.086
347.056
347.025
346.994
346.963
346.932
346.9
346.869
346.837
346.805
346.772
346.74
346.707
346.674
346.641
346.607
346.574
346.54
346.506
346.472
346.437
346.403
346.368
346.333
346.298
346.263
346.228
346.192
346.156
346.121
346.085
346.049
346.012
345.976
345.939
345.903
345.866
345.829
345.792
345.755
345.718
345.681
345.643
345.606
345.568
345.53
345.492
345.454
345.416
345.378
345.34
345.302
345.263
345.225
345.186
345.147
345.109
345.07
345.031
344.992
344.953
344.914
344.874
344.835
344.796
344.756
344.717
344.677
344.638
344.598
344.558
344.518
344.479
344.439
344.399
344.359
344.318
344.278
344.238
344.198
344.158
344.117
344.077
344.036
343.996
343.955
343.915
343.874
343.833
343.793
343.752
343.711
343.67
343.629
343.588
343.548
343.507
343.465
343.424
343.383
343.342
343.301
343.26
343.219
343.177
343.136
343.095
343.053
343.012
342.971
342.929
342.888
342.846
342.805
342.763
342.721
342.68
342.638
342.597
342.555
342.513
342.471
342.43
342.388
342.346
342.304
342.262
342.221
342.179
342.137
342.095
342.053
342.011
341.969
341.927
341.885
341.843
341.801
341.759
341.717
341.674
341.632
341.59
341.548
341.506
341.464
341.421
341.379
341.337
341.295
341.252
341.21
341.168
341.126
341.083
341.041
340.999
340.956
340.914
340.871
340.829
340.787
340.744
340.702
340.659
340.617
340.574
340.532
340.49
340.447
340.404
340.362
340.319
340.277
340.234
340.192
340.149
340.107
340.064
340.022
339.979
339.936
339.894
339.851
339.808
339.766
339.723
339.68
339.638
339.595
339.552
339.51
339.467
339.424
339.382
339.339
339.296
339.254
339.211
339.168
339.125
339.083
339.04
338.997
338.954
338.912
338.869
338.826
338.783
338.74
338.698
338.655
338.612
338.569
338.526
338.484
338.441
338.398
338.355
338.312
338.269
338.227
338.184
338.141
338.098
338.055
338.012
337.969
337.927
337.884
337.841
337.798
337.755
337.712
337.669
337.626
337.583
337.541
337.498
337.455
337.412
337.369
337.326
337.283
337.24
337.197
337.154
337.111
337.068
337.025
336.983
336.94
336.897
336.854
336.811
336.768
336.725
336.682
336.639
336.596
336.553
336.51
336.467
336.424
336.381
336.338
336.295
336.252
336.209
336.166
336.123
336.08
336.037
335.994
335.951
335.909
335.866
335.823
335.78
335.737
335.694
335.651
335.608
335.565
335.522
335.479
335.436
335.393
335.35
335.307
335.264
335.221
335.178
335.135
335.092
335.049
335.006
334.963
334.92
334.877
334.834
334.791
334.748
334.705
334.662
334.619
334.576
334.533
334.49
334.447
334.404
334.361
334.318
334.275
334.232
334.189
334.146
334.103
334.06
334.017
333.974
333.931
333.888
333.845
333.802
333.759
333.716
333.673
333.63
333.587
333.544
333.501
333.458
333.415
333.372
333.329
333.286
333.243
333.2
333.157
333.114
333.071
333.028
332.985
332.942
332.899
332.856
332.813
332.77
332.727
332.684
332.641
332.598
332.555
332.512
332.469
332.426
332.383
332.34
332.297
332.254
332.211
332.168
332.125
332.082
332.039
331.996
331.953
331.91
331.867
331.824
331.781
331.739
331.696
331.653
331.61
331.567
331.524
331.481
331.438
331.395
331.352
331.309
331.266
331.223
331.18
331.137
331.094
331.051
331.008
330.965
330.922
330.879
330.836
330.794
330.751
330.708
330.665
330.622
330.579
330.536
330.493
330.45
330.407
330.364
330.321
330.278
330.235
330.193
330.15
330.107
330.064
330.021
329.978
329.935
329.892
329.849
329.806
329.763
329.72
329.678
329.635
329.592
329.549
329.506
329.463
329.42
329.377
329.334
329.292
329.249
329.206
329.163
329.12
329.077
329.034
328.991
328.948
328.906
328.863
328.82
328.777
328.734
328.691
328.648
328.605
328.563
328.52
328.477
328.434
328.391
328.348
328.305
328.263
328.22
328.177
328.134
328.091
328.048
328.006
327.963
327.92
327.877
327.834
327.791
327.749
327.706
327.663
327.62
327.577
327.534
327.492
327.449
327.406
327.363
327.32
327.278
327.235
327.192
327.149
327.106
327.064
327.021
326.978
326.935
326.892
326.85
326.807
326.764
326.721
326.679
326.636
326.593
326.55
326.507
326.465
326.422
326.379
326.336
326.294
326.251
326.208
326.165
326.123
326.08
326.037
325.994
325.952
325.909
325.866
325.823
325.781
325.738
325.695
325.652
325.61
325.567
325.524
325.482
325.439
325.396
325.353
325.311
325.268
325.225
325.183
325.14
325.097
325.054
325.012
324.969
324.926
324.884
324.841
324.798
324.756
324.713
324.67
324.628
324.585
324.542
324.499
324.457
324.414
324.371
324.329
324.286
324.244
324.201
324.158
324.116
324.073
324.03
323.988
323.945
323.902
323.86
323.817
323.774
323.732
323.689
323.647
323.604
323.561
323.519
323.476
323.433
323.391
323.348
323.306
323.263
323.22
323.178
323.135
323.093
323.05
323.007
322.965
322.922
322.88
322.837
322.794
322.752
322.709
322.667
322.624
322.582
322.539
322.496
322.454
322.411
322.369
322.326
322.284
322.241
322.198
322.156
322.113
322.071
322.028
321.986
321.943
321.901
321.858
321.816
321.773
321.731
321.688
321.646
321.603
321.561
321.518
321.475
321.433
321.39
321.348
321.305
321.263
321.22
321.178
321.135
321.093
321.051
321.008
320.966
320.923
320.881
320.838
320.796
320.753
320.711
320.668
320.626
320.583
320.541
320.498
320.456
320.414
320.371
320.329
320.286
320.244
320.201
320.159
320.116
320.074
320.032
319.989
319.947
319.904
319.862
319.819
319.777
319.735
319.692
319.65
319.607
319.565
319.523
319.48
319.438
319.395
319.353
319.311
319.268
319.226
319.184
319.141
319.099
319.056
319.014
318.972
318.929
318.887
318.845
318.802
318.76
318.718
318.675
318.633
318.59
318.548
318.506
318.463
318.421
318.379
318.336
318.294
318.252
318.21
318.167
318.125
318.083
318.04
317.998
317.956
317.913
317.871
317.829
317.786
317.744
317.702
317.66
317.617
317.575
317.533
317.49
317.448
317.406
317.364
317.321
317.279
317.237
317.195
317.152
317.11
317.068
317.026
316.983
316.941
316.899
316.857
316.814
316.772
316.73
316.688
316.645
316.603
316.561
316.519
316.477
316.434
316.392
316.35
316.308
316.265
316.223
316.181
316.139
316.097
316.054
316.012
315.97
315.928
315.886
315.844
315.801
315.759
315.717
315.675
315.633
315.591
315.548
315.506
315.464
315.422
315.38
315.338
315.295
315.253
315.211
315.169
315.127
315.085
315.043
315.001
314.958
314.916
314.874
314.832
314.79
314.748
314.706
314.664
314.622
314.579
314.537
314.495
314.453
314.411
314.369
314.327
314.285
314.243
314.201
314.159
314.116
314.074
314.032
313.99
313.948
313.906
313.864
313.822
313.78
313.738
313.696
313.654
313.612
313.57
313.528
313.486
313.444
313.402
313.36
313.318
313.276
313.234
313.192
313.15
313.108
313.066
313.024
312.982
312.94
312.898
312.856
312.814
312.772
312.73
312.688
312.646
312.604
312.562
312.52
312.478
312.436
312.394
312.352
312.31
312.268
312.226
312.184
312.142
312.1
312.058
312.016
311.974
311.932
311.89
311.849
311.807
311.765
311.723
311.681
311.639
311.597
311.555
311.513
311.471
311.429
311.387
311.346
311.304
311.262
311.22
311.178
311.136
311.094
311.052
311.011
310.969
310.927
310.885
310.843
310.801
310.759
310.717
310.676
310.634
310.592
310.55
310.508
310.466
310.425
310.383
310.341
310.299
310.257
310.215
310.174
310.132
310.09
310.048
310.006
309.965
309.923
309.881
309.839
309.797
309.756
309.714
309.672
309.63
309.588
309.547
309.505
309.463
309.421
309.379
309.338
309.296
309.254
309.212
309.171
309.129
309.087
309.045
309.004
308.962
308.92
308.878
308.837
308.795
308.753
308.712
308.67
308.628
308.586
308.545
308.503
308.461
308.42
308.378
308.336
308.294
308.253
308.211
308.169
308.128
308.086
308.044
308.003
307.961
307.919
307.878
307.836
307.794
307.753
307.711
307.669
307.628
307.586
307.544
307.503
307.461
307.419
307.378
307.336
307.294
307.253
307.211
307.17
307.128
307.086
307.045
307.003
306.961
306.92
306.878
306.837
306.795
306.753
306.712
306.67
306.629
306.587
306.545
306.504
306.462
306.421
306.379
306.338
306.296
306.254
306.213
306.171
306.13
306.088
306.047
306.005
305.964
305.922
305.88
305.839
305.797
305.756
305.714
305.673
305.631
305.59
305.548
305.507
305.465
305.424
305.382
305.341
305.299
305.258
305.216
305.175
305.133
305.092
305.05
305.009
304.967
304.926
304.884
304.843
304.801
304.76
304.718
304.677
304.636
304.594
304.553
304.511
304.47
304.428
304.387
304.345
304.304
304.263
304.221
304.18
304.138
304.097
304.055
304.014
303.973
303.931
303.89
303.848
303.807
303.766
303.724
303.683
303.641
303.6
303.559
303.517
303.476
303.434
303.393
303.352
303.31
303.269
303.228
303.186
303.145
303.104
303.062
303.021
302.979
302.938
302.897
302.855
302.814
302.773
302.731
302.69
302.649
302.607
302.566
302.525
302.484
302.442
302.401
302.36
302.318
302.277
302.236
302.194
302.153
302.112
302.071
302.029
301.988
301.947
301.905
301.864
301.823
301.782
301.74
301.699
301.658
301.617
301.575
301.534
301.493
301.452
301.41
301.369
301.328
301.287
301.245
301.204
301.163
301.122
301.08
301.039
300.998
300.957
300.916
300.874
300.833
300.792
300.751
300.71
300.668
300.627
300.586
300.545
300.504
300.463
300.421
300.38
300.339
300.298
300.257
300.216
300.174
300.133
300.092
300.051
300.01
299.969
299.927
299.886
299.845
299.804
299.763
299.722
299.681
299.64
299.598
299.557
299.516
299.475
299.434
299.393
299.352
299.311
299.27
299.229
299.187
299.146
299.105
299.064
299.023
298.982
298.941
298.9
298.859
298.818
298.777
298.736
298.695
298.653
298.612
298.571
298.53
298.489
298.448
298.407
298.366
298.325
298.284
298.243
298.202
298.161
298.12
298.079
298.038
297.997
297.956
297.915
297.874
297.833
297.792
297.751
297.71
297.669
297.628
297.587
297.546
297.505
297.464
297.423
297.382
297.341
297.3
297.259
297.218
297.177
297.136
297.096
297.055
297.014
296.973
296.932
296.891
296.85
296.809
296.768
296.727
296.686
296.645
296.604
296.563
296.523
296.482
296.441
296.4
296.359
296.318
296.277
296.236
296.195
296.154
296.114
296.073
296.032
295.991
295.95
295.909
295.868
295.828
295.787
295.746
295.705
295.664
295.623
295.582
295.542
295.501
295.46
295.419
295.378
295.337
295.297
295.256
295.215
295.174
295.133
295.093
295.052
295.011
294.97
294.929
294.889
294.848
294.807
294.766
294.725
294.685
294.644
294.603
294.562
294.522
294.481
294.44
294.399
294.358
294.318
294.277
294.236
294.195
294.155
294.114
294.073
294.033
293.992
293.951
293.91
293.87