/*--------------------------------*- C++ -*----------------------------------*\
| =========                 |                                                 |
| \\      /  F ield         | OpenFOAM: The Open Source CFD Toolbox           |
|  \\    /   O peration     | Version:  4.0                                   |
|   \\  /    A nd           | Web:      www.OpenFOAM.org                      |
|    \\/     M anipulation  |                                                 |
\*---------------------------------------------------------------------------*/
FoamFile
{
    version     2.0;
    format      ascii;
    class       volScalarField;
    location    "3";
    object      p;
}
// * * * * * * * * * * * * * * * * * * * * * * * * * * * * * * * * * * * * * //

dimensions      [0 2 -2 0 0 0 0];

internalField   nonuniform List<scalar> 
918
(
0.526847
0.819215
0.0145127
0.512045
0.00363187
0.783873
-0.761849
0.421732
0.502202
-0.10954
0.0139332
0.43926
0.652376
0.404563
-1.33619
0.0312929
0.535839
-0.839925
0.450805
0.00725144
0.509858
0.537707
0.513493
0.443418
0.484218
0.516692
0.525735
0.00464346
0.00283325
0.00375754
0.015326
0.0119748
0.0176173
0.66757
0.718765
0.742696
0.43523
0.109797
-0.471832
-0.572311
-0.548574
-0.873862
0.4417
0.462968
-0.224383
0.390997
0.376571
0.452994
0.496189
0.501788
0.503512
0.50254
0.518311
0.272126
-0.134907
-0.210104
-0.0758221
-0.0488419
0.0788325
0.013464
0.0226927
0.0260376
0.0166503
0.392809
0.437609
0.43884
0.449043
0.446506
0.758382
0.728482
0.754431
0.677495
0.689269
0.628087
0.589403
0.410157
0.441361
0.385025
0.385195
-1.63136
-2.25443
-0.933857
-0.702669
0.0019291
0.0311518
0.0344989
0.531307
0.545771
0.524006
0.529808
0.656945
-0.706356
-0.933932
0.465225
0.46208
0.514794
0.493625
0.48205
0.456523
0.00829287
0.0104249
0.00533201
0.0139352
0.00197441
0.333179
0.322462
0.421694
0.453156
0.444209
0.462827
0.454613
0.236044
0.496403
0.506542
0.170905
0.383171
0.438596
0.41155
0.487289
0.442787
0.558117
0.574279
0.00887042
0.00464403
0.0148467
0.00900034
0.0092164
0.430645
0.421543
0.452406
0.433138
0.44904
0.00761994
-0.128984
0.224316
0.395192
-0.277549
-0.381829
-0.766896
-0.681555
-0.964818
0.756621
0.469462
0.491948
-0.172568
-0.147024
-0.280867
-0.0613618
-0.154179
0.458436
0.450224
0.44558
0.455644
0.452669
0.461042
0.504479
0.503563
0.503438
0.289706
0.354432
0.244548
0.204153
-0.466963
-0.244486
-0.443192
-0.0264345
-0.0203118
0.0860955
0.105493
0.0770428
0.0625783
-0.0129645
0.0201071
0.0142538
0.0232383
0.0224272
0.39298
0.375786
0.39617
0.404865
0.443257
0.436214
0.435198
0.4379
0.554032
0.568688
0.577909
0.548823
-2.83342
-4.74319
-0.467417
-0.292145
0.0114091
0.00943427
0.00354309
0.005612
0.00524884
0.00263752
0.0465363
0.0592071
0.0220914
0.0377025
0.530091
0.537155
0.646192
0.697621
0.58338
0.587718
0.454636
0.460627
0.465682
0.46015
0.016214
0.00691145
0.0116095
0.350266
0.306297
0.333763
0.208106
0.122651
0.276312
0.304993
0.523067
0.518778
0.534521
0.262153
0.279796
0.583452
0.620858
0.591063
0.610314
0.66238
0.681844
0.656292
0.402345
0.424759
0.421294
0.450464
0.448401
0.453994
0.449018
0.442609
0.441654
-0.199183
-0.486458
0.682503
0.609697
0.468102
0.575848
0.728331
0.762264
0.516138
0.491221
0.513216
-0.0305195
-0.0840671
0.1952
0.170236
0.337195
0.356445
0.344662
0.5239
0.451947
0.527223
0.494116
0.441206
0.479343
-0.465353
-1.3786
-0.823678
0.11374
-0.125931
0.0071965
0.0579658
0.0462538
0.050762
0.678835
0.731608
0.386179
0.49431
0.483633
0.373448
0.372829
0.44837
0.371695
0.409389
0.437103
0.39798
0.71617
0.685109
0.74048
0.732239
0.759863
0.0893752
0.0346665
-0.0086894
0.122001
0.139711
0.133063
0.703476
0.721138
0.750785
0.431378
0.457611
0.0134628
0.0181985
0.492061
0.500189
0.00549655
0.00686654
-0.128078
-1.21078
0.144852
0.469666
0.46098
0.482082
-0.0920115
0.250174
0.0232483
0.0941484
0.0667215
0.438306
0.405364
0.36469
0.020635
0.0164668
0.0101253
-0.320134
0.483994
0.458767
0.486442
0.4832
0.48979
0.0115691
0.0132766
0.0207785
0.00312054
0.013745
0.0285501
0.435455
0.438418
-0.159209
0.478882
0.48092
0.488361
0.47275
0.486021
0.473412
0.0155788
0.0118803
0.0127282
0.18568
0.304506
0.222005
0.501255
-0.0382977
-0.20376
-0.421124
0.0991519
0.21683
0.0283634
0.325914
0.447871
0.380142
0.199708
0.0727
0.180813
0.109858
0.464111
0.467256
0.452064
0.456757
0.471894
0.459518
0.483309
0.468073
0.480694
0.490858
-0.0188342
-0.0542328
-0.0934962
-0.149665
0.274329
0.365714
0.206621
0.233031
0.140391
0.0282932
0.0374162
0.0295115
0.025903
0.0713379
0.0697169
0.0729622
0.0800287
0.0495715
0.0452179
0.0725636
0.0531785
0.0609093
0.433428
0.433006
0.434073
0.459761
0.417713
0.406369
0.385503
0.401535
0.403002
0.349926
0.362384
0.352411
0.0166397
0.0228602
0.013185
0.0360832
0.0204693
0.00825683
0.00675859
-0.0212723
-0.00240639
0.0126881
0.0157083
0.0138133
-0.234412
-0.400587
0.60597
0.527076
0.299326
0.469145
0.46945
0.456254
0.466346
0.490208
0.492986
0.485229
0.454505
0.445427
0.447335
0.43781
0.449861
-0.0867427
-0.268394
-0.0341806
-0.138199
0.105182
0.499588
0.306447
0.277464
0.264497
0.418018
-0.42969
-0.209617
0.458709
0.546442
-0.906343
-0.576644
-0.797768
-0.524142
-0.542123
0.273509
0.335745
0.344694
0.300061
0.20511
-0.303133
0.323718
-0.0156447
0.0275421
0.273257
0.138738
0.125918
0.467297
0.485596
0.351157
0.333269
0.418964
0.39493
0.406215
0.402044
0.426438
0.374769
0.217058
0.204768
0.170957
0.499059
0.393049
0.420863
0.377814
0.463555
0.46704
0.460144
0.451215
0.44824
0.439143
0.451587
0.447705
0.457433
0.464867
0.455608
0.460061
-0.0249514
-0.0123533
-0.0603819
-0.190889
-0.161092
-0.25188
-0.0959712
0.101086
0.0412212
0.254641
0.348705
0.0809106
-0.094186
-0.0448556
0.0303391
0.166923
0.145332
0.102014
0.162747
0.171884
0.135509
0.205885
0.192902
0.0440397
0.0593335
0.0353077
0.0382901
0.102388
0.114646
0.121196
0.0645184
0.0768839
0.0264783
0.0285684
0.0865422
0.0680886
0.0823102
0.0684158
0.022597
0.0332167
0.0428966
0.0412062
0.0681602
0.0498248
0.43973
0.440165
0.439226
0.429593
0.451227
0.459432
0.420018
0.429036
0.425689
0.42981
0.395947
0.398274
0.398003
0.407235
0.417671
0.423787
0.446294
0.443171
0.416811
0.418983
0.397628
0.404625
0.385361
0.377772
0.374438
0.0293221
0.0102282
0.0135134
0.0265486
0.0187369
0.0195112
0.0460939
0.0487583
0.0594403
0.0315545
0.0552378
-0.0108283
0.0128029
-0.0627618
0.0524221
-0.2252
-0.289965
-0.362537
0.592374
0.650125
0.519019
0.441666
0.470571
0.546782
0.57769
0.386314
0.45532
0.440927
0.683536
0.673327
0.434779
0.427433
0.455879
0.441842
0.450175
0.0568737
0.214262
0.214656
0.3302
0.296099
0.293288
0.439431
0.42364
0.512152
0.486633
0.493531
0.506757
0.468865
0.490169
0.501064
0.349865
0.429873
0.449174
0.443547
0.441765
0.454226
0.441583
0.44302
0.424398
0.41418
0.417272
0.358282
0.379561
0.366348
0.368556
0.417708
0.412667
0.414096
0.408551
0.432453
0.443849
0.446915
0.465863
0.457615
0.397928
0.369893
0.38323
0.406505
0.378974
0.385864
0.390822
0.437865
0.496374
0.366959
-0.0869042
-0.0151695
-0.177056
-0.166615
0.000206828
0.273626
-0.305454
-0.403453
-0.771182
0.389559
-0.576704
-0.162575
-0.288863
0.297989
0.267418
0.195094
0.203182
0.275306
0.482735
0.490856
0.500658
0.387298
0.381308
0.30614
0.351184
0.423947
0.409252
0.427116
0.384513
0.266497
0.319898
0.390075
0.365186
0.290551
0.289534
0.384323
0.289591
0.315525
0.378839
0.330967
0.320807
0.411798
0.467361
0.46125
0.435766
0.3802
0.392468
0.395151
0.421679
0.427217
0.424736
0.45019
0.448823
0.443543
0.45263
0.452421
0.449853
0.439581
0.457307
0.459583
0.47443
0.465568
0.0246643
0.0348949
0.00122403
-0.00743315
0.0514378
0.0288077
-0.0196532
-0.0251084
0.0562174
0.0519497
0.0173584
-0.00977731
0.0208523
0.0463918
0.157653
0.180046
0.177748
0.120566
0.261763
0.319739
0.37424
0.333729
0.216162
0.228991
0.241206
0.0909349
0.0896309
0.0805909
0.102147
0.103323
0.011247
0.00731639
0.0120179
0.0535821
0.0323173
0.00538694
0.0196716
0.0205398
0.0166595
0.0209551
0.0190487
0.432517
0.412716
0.389667
0.379836
0.390806
0.405993
0.429138
0.434631
0.444655
0.436283
0.431921
0.430761
0.439793
0.00637018
0.0156381
-0.000919345
0.0221991
0.0322866
0.00969966
0.0209654
0.2934
0.166299
0.248147
0.0918436
-0.140697
-0.0357662
0.519649
0.636414
0.666906
0.645128
0.587458
0.588397
0.650123
0.677575
0.405993
0.532734
0.464802
0.641087
0.634169
0.670862
0.546096
0.442235
0.505197
0.581094
0.465376
0.448544
0.41184
0.332149
0.343994
0.408963
0.515094
0.391797
0.415699
0.451733
0.441517
0.418267
0.475813
0.416803
0.503108
0.367394
0.376791
0.300621
0.472918
0.495638
0.512906
0.478613
0.49779
0.471418
0.473904
0.479022
0.490244
0.489134
-0.56688
-0.331976
-1.28314
-1.17732
-0.729189
0.299119
0.402209
-0.124648
0.212329
-0.0514562
0.135835
0.302488
0.343355
0.3098
0.256245
0.340297
0.393991
0.39144
0.385997
0.290194
0.254533
0.44127
0.445209
0.436609
0.4545
0.452297
0.460673
0.432498
0.446677
0.438099
0.440868
0.438177
0.437203
0.112765
0.087441
0.127152
0.0991187
0.0658201
0.0858449
0.01724
-0.00847206
0.0124027
0.0350232
0.0151089
0.0373269
0.335099
0.337421
0.139659
0.250382
0.0665597
-0.0465182
-0.0711071
0.0914428
0.190489
0.21519
0.448747
0.559816
0.50521
0.515439
0.428002
0.462116
0.617498
0.540311
0.608141
0.53489
0.54547
-0.0190196
-0.228754
-0.321831
-0.643182
-0.314897
0.00433197
-0.132057
-0.454022
-0.539929
0.401864
0.395552
0.367083
0.350984
0.351536
0.0375867
0.0823996
0.253168
0.583922
0.450058
0.302767
0.376599
0.510858
0.539945
)
;

boundaryField
{
    wall-4
    {
        type            zeroGradient;
    }
    velocity-inlet-5
    {
        type            zeroGradient;
    }
    velocity-inlet-6
    {
        type            zeroGradient;
    }
    pressure-outlet-7
    {
        type            fixedValue;
        value           uniform 0;
    }
    wall-8
    {
        type            zeroGradient;
    }
    frontAndBackPlanes
    {
        type            empty;
    }
}


// ************************************************************************* //
