/*--------------------------------*- C++ -*----------------------------------*\
| =========                 |                                                 |
| \\      /  F ield         | OpenFOAM: The Open Source CFD Toolbox           |
|  \\    /   O peration     | Version:  4.0                                   |
|   \\  /    A nd           | Web:      www.OpenFOAM.org                      |
|    \\/     M anipulation  |                                                 |
\*---------------------------------------------------------------------------*/
FoamFile
{
    version     2.0;
    format      ascii;
    class       surfaceScalarField;
    location    "3";
    object      phi;
}
// * * * * * * * * * * * * * * * * * * * * * * * * * * * * * * * * * * * * * //

dimensions      [0 3 -1 0 0 0 0];

internalField   nonuniform List<scalar> 
1300
(
3.75095
5.62643
-6.57921
3.75095
-6.36801
5.62643
-6.03275
6.03275
-1.67889
1.67889
1.88282
1.86813
-5.7507
5.7507
-5.55855
5.55855
-3.03771
3.03771
-5.23836
5.23836
-5.15661
5.15661
4.46528
-4.46528
-5.25249
5.25249
-2.18673
2.18673
-6.2348
6.2348
3.15672
-3.15672
-5.58784
5.58784
-0.933304
0.933304
-0.56776
4.31871
3.18319
3.18319
-2.79199
2.79199
-4.86824
4.86824
6.2247
-6.2247
9.81138
-9.81138
-3.23217
-3.29026
1.3032
-8.039
-5.06481
-5.06481
-8.44092
8.44092
-2.81449
2.81194
3.17859
-3.17859
-1.72772
1.72772
-5.7206
-0.31215
-5.7206
6.33694
-0.304193
6.33694
-1.79083
0.111933
-1.79083
4.55394
-4.55394
1.52977
0.149125
1.52977
3.17046
-3.17046
-1.88607
3.76889
1.86488
-1.83503
6.15375
-1.91592
3.78405
-4.93506
4.93506
-5.84116
0.0904537
-5.84116
5.65361
0.0970963
5.65361
-5.45836
5.45836
-5.56751
0.00895535
-5.56751
5.57249
-0.0139354
5.57249
3.22571
-3.22571
-3.06489
0.0271849
-3.06489
3.04001
-0.00229796
3.04001
0.357849
5.26858
-5.98428
8.79622
-5.26858
0.0302201
5.20752
0.0308442
5.20752
-5.1776
0.0209882
-5.1776
5.09838
0.058232
5.09838
4.29225
0.173028
4.29225
-4.73014
0.264861
-4.73014
-3.26544
-3.28298
-5.35359
0.101105
-5.35359
-2.21168
0.0249538
-2.21168
2.12075
0.0659842
2.12075
-3.8504
3.8504
-6.52705
0.292247
-6.52705
3.09165
0.0650698
3.09165
1.86209
1.88886
5.61305
-5.61305
2.45633
-5.60408
0.0162416
-5.60408
-5.57355
-4.23783
5.57355
0.0142887
-1.26919
0.335884
-1.26919
3.17728
0.00591548
3.17728
2.97142
0.0685838
-2.97142
0.179429
3.65533
-3.65533
2.15531
0.636678
2.15531
-5.51614
5.51614
5.01236
0.0860185
-5.01236
0.144116
6.14265
0.0820459
6.14265
-6.21253
-0.0121672
-6.21253
3.33035
-6.62061
-3.27554
5.14487
0.107618
-5.14487
0.0800532
3.21297
-0.034379
3.21297
-3.13055
3.13055
-3.18262
0.00402775
-3.18262
-1.67967
-0.0480452
-1.67967
2.01563
-0.287912
2.01563
-5.19001
-0.530588
-5.19001
-6.53502
0.00796982
6.53502
-0.198078
3.00144
-3.00144
-1.9236
0.13277
-1.9236
-4.81586
-0.374151
4.81586
-0.261913
-4.27071
-0.283231
-4.27071
-3.17231
-0.0103098
3.17231
-0.00185169
3.14791
0.0293661
-3.14791
-0.0225495
-1.87442
3.76328
-1.87653
3.74141
-4.78904
-0.146024
-4.78904
5.04963
-0.114564
5.04963
6.03782
0.196976
-6.03782
0.196668
5.61794
0.0356643
5.61794
-5.38706
-0.0713022
-5.38706
5.49956
-0.0412023
5.49956
5.61978
-0.00183829
-5.61978
0.0522738
5.55782
0.0146629
5.55782
3.30767
-0.0819639
3.30767
-3.20616
-0.0195492
-3.20616
3.14783
-3.14783
3.0941
0.0537332
-3.0941
0.0292056
-11.1024
11.0902
-0.0167138
-11.0857
5.1908
5.1908
3.29257
0.999682
3.29257
-4.98952
0.259379
-4.98952
3.27528
-6.55083
3.25657
-6.52201
3.34113
-11.3801
3.28061
-6.56358
5.46223
-5.46223
5.43376
0.0284662
-5.43376
0.0801733
-2.18766
-0.0240276
-2.18766
-3.72007
-0.130324
-3.72007
4.131
-0.280602
4.131
-3.16762
3.16762
-3.12898
-0.0386376
3.12898
-0.0373337
5.575
-0.0171796
-5.575
-0.0290747
1.40566
0.124114
-1.40566
0.136467
3.82076
-0.165433
3.82076
-3.48585
-0.169476
-3.48585
-2.18899
0.00132967
2.18899
-0.0336713
-5.76372
0.247581
-5.76372
-11.1792
0.0934928
-11.1483
-6.11904
-6.11904
2.32188
11.1181
-3.18877
-0.0173869
3.18877
0.0242026
3.15218
0.015438
-3.15218
0.0216303
-3.13969
-0.00813878
3.13969
-0.00913974
-1.80754
0.127867
-1.80754
-2.60522
2.60522
-2.33187
-0.273351
2.33187
-0.316237
3.0798
-0.0783607
3.0798
2.06732
0.0534301
-2.06732
0.143718
-4.11037
-0.16034
-4.11037
5.2348
-0.185171
5.2348
-3.36576
-0.12009
3.36576
-0.0580925
-0.00627236
11.0965
-5.18453
0.00693498
5.18453
-11.1785
11.1855
-2.35127
0.54373
2.35127
0.941303
5.24791
0.268226
-5.24791
0.258394
5.53978
-0.0402185
-5.53978
0.0775518
-3.57354
-0.146533
-3.57354
-4.46767
-0.321374
4.46767
-0.336669
-11.4233
-0.220293
11.6436
-11.3651
5.98401
0.15864
-5.98401
11.3441
-2.83326
-0.16818
2.83326
-0.22804
3.25424
-0.174441
3.25424
3.99854
-0.177774
-3.99854
-0.111836
-5.33502
-0.0520407
5.33502
-0.100219
-3.42387
-0.149671
3.42387
-0.169628
-4.15932
4.16524
1.99443
-3.30591
-3.3147
-7.54374
1.77797
1.98531
4.2343
-6.99917
-4.38096
-6.91911
7.32129
-7.06289
-8.83695
9.00998
7.26248
-7.54571
-5.83826
5.80092
6.37186
-6.37371
1.84184
1.92705
10.7318
-10.6413
-10.0803
9.93432
10.1665
-10.1575
10.4851
-10.5564
-12.1763
12.1361
-5.6594
5.68659
-6.60752
6.58797
-6.65794
6.59985
-3.29942
-3.22259
9.01009
-8.90899
11.6612
-11.645
-11.2653
11.5575
3.29183
0.873407
3.32119
-1.9305
3.77233
-1.85356
3.84798
3.27201
-6.57143
3.27881
-6.59351
5.97484
5.68636
-5.98913
-1.55461
-5.89438
5.86001
-5.80232
5.79318
10.4558
-10.7679
-1.86495
3.792
-1.87646
3.86178
-3.38095
-2.45731
3.31588
0.918418
5.51828
3.49181
-5.6259
-1.29321
-7.5586
7.38083
-7.73829
7.56881
-0.591338
5.91801
-5.32667
4.2769
-1.62272
7.54073
5.69857
5.95795
5.90524
-5.63702
1.15765
-6.48432
-6.34021
-2.57417
2.70694
2.57945
-2.43032
6.05076
1.21171
5.78885
-5.39043
-2.15528
-5.55077
3.85659
1.94433
3.81796
4.08359
2.28827
4.07328
3.05021
-3.06488
0.0146697
-3.05001
6.10022
0.727122
-5.50732
-4.5889
6.9694
3.76237
7.0665
-7.28418
-3.35713
-7.08752
-6.04543
-4.03492
-6.3668
6.4521
3.48223
6.33753
-7.8289
7.72868
6.72213
3.44437
6.7082
-6.83123
-3.32632
-6.77895
10.1961
-2.65965
-7.53645
-6.78356
-5.39276
6.82476
3.6603
7.40109
4.73501
7.47864
3.52792
6.66817
-7.18822
1.79546
-3.79611
-1.8633
-3.7669
3.62748
2.0591
3.62518
-4.18808
-2.41944
-4.20547
-4.1878
-2.47015
4.26976
2.31821
-4.26045
-3.47784
4.38054
2.21931
2.94
-7.32097
3.62358
-6.84617
-6.29011
-2.61888
-6.20993
4.00302
2.52045
-6.52347
-2.56841
10.7165
-5.03017
9.16192
-7.23374
-4.41121
-7.26282
-8.69103
-2.57422
-8.68306
-5.36774
5.22121
-5.50336
5.22276
10.434
-5.78028
-4.65375
-3.90334
-2.47037
3.92589
-0.604697
-3.76772
3.78239
0.00461584
3.8526
4.72601
4.12131
-3.84678
-1.95554
-3.82515
3.83179
1.9614
3.82365
8.50867
1.94711
8.20448
-7.07371
-3.69423
-7.6043
6.07138
-6.11943
3.00101
-2.99968
5.09723
2.47158
-4.93179
-2.62681
5.89403
-2.96769
-2.92634
-12.8612
10.7645
2.09668
-5.32048
-1.04357
-0.110269
-5.43996
-3.39699
5.1751
0.78285
11.5474
8.15037
-5.5222
5.76978
6.12142
6.20744
-0.132765
4.32691
-3.78318
3.29856
-0.65297
-2.64559
5.62071
-5.99486
-1.98359
-5.37755
3.39396
-0.206009
2.25128
-1.9154
-2.0826
-0.491573
-1.93888
1.66054
0.918912
1.78465
0.936917
1.77002
-2.7481
0.548366
2.19973
-1.81118
-1.88196
-3.51853
-0.687425
4.20595
5.46874
1.91209
-5.35691
-0.193859
2.77618
-2.71019
-0.867964
-2.65056
1.81645
-2.68441
-3.15634
-1.94661
5.10295
-3.34697
-0.478182
3.33153
0.486427
-3.76414
-2.13025
3.76011
0.313173
-2.97231
6.04309
-3.07077
-4.92786
2.58276
3.51746
4.52709
-4.69532
2.3519
2.34342
-1.17786
6.01477
1.05173
6.05043
-9.00238
5.64524
7.65964
3.89787
-7.85662
0.7691
-8.23328
9.56664
-8.3018
-1.26484
4.89633
4.67031
5.30483
5.12919
-3.66651
8.97134
-1.17226
-7.12954
9.40554
-5.50767
5.75908
-11.2668
-10.8883
3.75874
-6.73194
8.34341
-1.61147
-2.41998
-5.40892
9.15192
-0.743442
-8.40848
5.59409
-5.28234
-5.36644
10.6488
-7.94199
8.69276
-2.53874
-6.15402
-6.56126
-3.9951
6.6133
1.11538
-9.69922
11.4947
-3.03104
5.82671
0.881486
5.84138
3.84481
-5.91756
2.07276
4.09718
-6.63593
2.40956
-8.32712
-4.82815
9.44809
-4.61994
-7.44703
-6.5133
-0.933729
1.99708
9.4976
-6.73208
5.21613
1.51595
3.29567
0.527974
-3.34941
-0.417493
0.320534
4.37607
-4.69661
3.94572
4.0143
3.44286
0.933211
3.81939
2.04062
-3.84359
-0.361882
-3.88001
1.40986
-1.5618
-3.43131
4.84117
-3.83167
0.400357
-2.66902
-3.40717
6.07619
-4.53231
2.97511
3.06797
4.93651
-4.75536
1.34819
-2.4086
-2.34677
2.48348
-4.04527
1.89372
2.94745
4.11303
0.635193
4.82852
4.61958
-7.34897
0.502797
8.11138
-6.81817
1.61034
5.86831
-6.82647
0.31316
-5.89677
1.12855
-6.15872
-5.39492
6.172
-8.74622
-5.09475
7.90602
0.298463
-7.70794
-0.975128
-3.80962
-1.55813
-3.95929
-1.66066
-3.84271
-5.32716
-1.24818
-4.07899
3.97303
-4.14138
-2.22543
4.47805
0.744717
-4.72385
4.55567
-4.646
4.47156
0.199012
3.58338
4.32032
1.84995
-2.40551
4.25546
-6.84401
8.79113
-10.1919
3.34788
3.68878
-7.383
-6.50312
3.66832
2.40307
3.3804
6.01599
-7.61194
1.59595
-6.65183
7.4811
-0.829263
-10.1175
3.46569
-4.10153
2.74608
0.254928
2.72206
0.71137
2.27223
-2.9836
-2.28831
-2.32198
-2.20622
-3.16633
5.37255
1.04176
-3.22427
2.18251
-3.19368
4.23544
-0.226846
-2.99742
5.06961
-2.79738
5.32454
-3.42053
1.90401
3.09664
5.20365
-2.107
4.10283
-1.63124
1.69031
-3.79732
-1.47602
-2.89926
4.95837
-3.17693
3.57728
-0.26176
3.83904
-3.98744
1.01975
-0.544579
3.46972
3.64915
4.00897
-3.07576
2.71468
-4.34593
-1.08263
-3.71074
-0.763282
-1.85826
-4.70409
6.56234
4.91854
-6.77679
-3.81958
6.55294
-2.73336
5.48423
-4.50241
-0.981824
-2.9602
-3.15923
2.83234
1.49458
6.97881
-0.117227
-4.38518
-3.90041
-2.95911
3.27984
0.0187171
-3.28249
5.37917
3.39276
-1.14147
0.449339
1.33531
1.80237
-1.35303
0.443622
1.35875
-1.47178
2.04052
0.735653
-2.09395
0.155074
-1.23965
3.0561
0.960081
-1.87899
0.525959
1.82597
-2.47894
4.17886
-1.48801
-2.69085
6.00483
1.66933
-3.15735
3.70822
-3.91423
2.31848
-3.0059
-0.838869
-4.7531
-3.54138
-2.30163
4.48414
-3.07093
4.98301
1.32779
-4.78916
6.11695
-3.39074
1.44413
-2.78554
3.52119
-0.844703
-1.94083
2.57625
2.52671
-2.70947
0.0589111
-0.133225
2.11885
-2.25208
-0.56556
-2.37674
-4.40481
4.71798
-2.13892
4.49082
2.11654
-1.9509
6.44172
1.79307
-3.74397
-3.13479
-3.61297
-1.40055
3.12654
-0.873782
-5.90517
-7.0278
5.90701
0.143421
-8.92922
10.059
-1.12979
-5.16685
-0.47839
5.37472
-7.30126
0.665338
-4.89171
5.16731
6.21904
6.36246
-8.25215
-0.156327
-4.76992
1.17968
-5.9496
5.84999
-2.69248
6.45122
-7.02357
4.79815
-6.27885
5.18638
-0.763225
5.44957
-3.37681
2.08688
-6.08199
-4.9666
6.97396
-3.52959
7.85545
-4.08815
11.9436
-7.11919
6.87794
5.06565
-1.40168
-5.86113
-6.841
5.43932
0.0369375
5.87831
4.7828
-2.74218
4.42092
2.0438
-4.45239
-2.00148
-6.28448
1.83209
-3.2165
-1.82381
3.6559
3.1127
3.64068
1.30913
-3.22318
6.52999
-7.46372
-1.91005
-3.48487
6.72514
-1.28583
3.84479
-7.32967
-2.31393
5.33564
-0.829876
-4.50576
0.444641
-5.53939
2.6097
-8.14909
6.13652
-7.11165
1.39545
-5.49699
-3.3284
-3.55644
-1.33569
-3.31032
-4.63268
3.29699
-1.16699
3.38868
-5.40404
4.57416
-2.07706
5.37405
-3.42219
-0.537094
3.59182
0.879743
6.25379
-1.20862
-5.2945
-0.0011336
4.82164
-4.8205
3.27871
-5.91271
-1.09107
2.96255
3.04228
-6.35651
-1.02649
-6.32099
-2.74575
5.14882
3.80719
8.72573
1.11379
5.44148
-0.292668
6.55528
3.08773
2.7715
-3.72724
5.32319
2.83511
6.18299
-0.83444
2.73845
1.88762
1.91257
0.797622
2.22546
1.42369
3.24521
0.261612
-2.06037
4.34438
-7.30349
-0.0408016
-6.3038
2.70618
5.71619
-3.01001
3.6091
-3.59038
-1.2114
0.748255
-0.938166
0.189911
-1.89733
-2.07964
-0.720889
-1.51789
2.04385
1.53821
-1.32296
-0.574374
0.161251
-3.70263
2.84465
-2.78574
-0.259034
5.85791
-2.44005
0.18797
-0.995919
-2.18877
-2.68034
2.52527
6.08097
0.360748
3.0102
5.07873
2.94848
0.206303
4.3843
-5.99577
-3.94282
-6.1521
-0.302108
5.07262
1.8771
7.6205
6.94275
5.65693
-1.67274
-9.13645
7.25317
-1.92999
6.42391
-1.91815
-6.23094
6.41138
2.37975
-6.70984
-0.401807
-6.63275
-8.56274
-0.477318
5.05148
-5.77647
5.23938
3.68125
0.397731
-2.81672
-0.739719
3.09007
-0.318571
6.2367
-2.13926
-7.11907
9.25832
-3.57693
3.53613
3.25822
2.12095
3.44813
-0.142254
-7.26132
-10.2713
-1.19312
-1.28582
-3.88397
0.321985
-1.8602
4.62847
-1.09234
3.64664
8.16599
6.95458
-2.22843
-4.54837
4.96178
-1.31514
5.63944
)
;

boundaryField
{
    wall-4
    {
        type            calculated;
        value           uniform 0;
    }
    velocity-inlet-5
    {
        type            calculated;
        value           uniform -3.75095;
    }
    velocity-inlet-6
    {
        type            calculated;
        value           uniform -5.62643;
    }
    pressure-outlet-7
    {
        type            calculated;
        value           nonuniform List<scalar> 8(6.57921 6.36801 6.52243 6.7358 6.54841 6.60589 6.53185 6.62173);
    }
    wall-8
    {
        type            calculated;
        value           uniform 0;
    }
    frontAndBackPlanes
    {
        type            empty;
        value           nonuniform 0();
    }
}


// ************************************************************************* //
