/*--------------------------------*- C++ -*----------------------------------*\
| =========                 |                                                 |
| \\      /  F ield         | OpenFOAM: The Open Source CFD Toolbox           |
|  \\    /   O peration     | Version:  4.0                                   |
|   \\  /    A nd           | Web:      www.OpenFOAM.org                      |
|    \\/     M anipulation  |                                                 |
\*---------------------------------------------------------------------------*/
FoamFile
{
    version     2.0;
    format      ascii;
    class       volScalarField;
    location    "24";
    object      p;
}
// * * * * * * * * * * * * * * * * * * * * * * * * * * * * * * * * * * * * * //

dimensions      [0 2 -2 0 0 0 0];

internalField   nonuniform List<scalar> 
918
(
0.228593
0.904884
0.0117725
0.227901
-0.00631465
0.871965
-0.832611
0.404238
0.208689
-0.419808
-0.37668
0.199947
0.732628
0.50063
-1.45953
-0.0836276
0.358657
-0.709997
0.207625
-0.0135941
0.465629
0.21532
0.21836
0.208952
0.269799
0.485639
0.613596
0.0117015
0.00213634
0.00134639
-0.00393539
-0.0292872
-0.0335668
0.755583
0.806701
0.829378
0.17759
0.00186818
-0.685721
-0.759814
-0.748414
-0.879595
0.395728
0.400215
-0.492354
0.405147
0.418422
0.1961
0.208011
0.208928
0.210084
0.20899
0.210398
0.108695
-0.426933
-0.464959
-0.406635
-0.407767
-0.207045
-0.412468
-0.423294
-0.356271
-0.309227
0.131761
0.197006
0.193733
0.204356
0.213268
0.844435
0.816316
0.84246
0.756282
0.772717
0.710555
0.683099
0.519866
0.541407
0.487389
0.474649
-1.90355
-2.87777
-0.857296
-0.598992
-0.000582765
-0.109668
-0.128927
0.347735
0.35196
0.356977
0.371851
0.756653
-0.703447
-0.849418
0.207734
0.206546
0.215045
0.21574
0.211743
0.210851
-0.0230541
-0.0508134
-0.0109396
-0.00288894
-0.010954
0.449968
0.444064
0.209514
0.206562
0.220943
0.243331
0.232604
-0.0258159
0.278457
0.298009
0.298774
0.470036
0.467291
0.474766
0.587126
0.551122
0.650606
0.67378
0.0028629
0.00319579
-0.0729211
-0.0405421
-0.0519652
0.173905
0.167107
0.191626
0.18083
0.183067
-0.0826022
-0.218505
0.0867423
0.109789
-0.593927
-0.659888
-0.767728
-0.782501
-0.890247
0.23906
0.386397
0.38946
-0.508835
-0.427894
-0.570304
-0.353696
-0.420867
0.186514
0.193441
0.188498
0.203772
0.198319
0.200272
0.2123
0.209371
0.210931
0.166562
0.28718
0.0385089
0.0148217
-0.569775
-0.476274
-0.558197
-0.398553
-0.402738
-0.205931
-0.185161
-0.225108
-0.250027
-0.416218
-0.430535
-0.420921
-0.265829
-0.20609
0.124578
0.115073
0.142809
0.149316
0.188764
0.189836
0.191816
0.190734
0.633725
0.656158
0.663725
0.637377
-3.89119
-6.71895
-0.265277
-0.123122
-0.000311189
0.00304763
0.00156599
0.0086186
0.00202461
-0.00190601
-0.262164
-0.2434
-0.166999
-0.195684
0.333759
0.335506
0.671617
0.662899
0.657721
0.607439
0.195907
0.19806
0.203533
0.199382
-0.154678
-0.081625
-0.112973
0.416385
0.433039
0.429768
-0.0611458
-0.146798
0.0202784
0.0474964
0.319787
0.30277
0.319489
0.362085
0.400352
0.681238
0.699604
0.697775
0.706237
0.750184
0.76652
0.731996
0.154491
0.164365
0.159304
0.195033
0.192529
0.193668
0.188706
0.190372
0.187881
-0.3723
-0.759713
0.168582
0.191574
0.154247
0.170118
0.316315
0.391343
0.368645
0.379864
0.381246
-0.287595
-0.350006
-0.0350262
-0.0696225
0.0725633
0.104392
0.087587
0.605011
0.565281
0.615342
0.588621
0.549841
0.575803
-0.711399
-2.2413
-1.34317
0.239567
0.0465276
0.137369
-0.252751
-0.297804
-0.289993
0.646974
0.727034
0.345332
0.505128
0.519037
0.437233
0.467531
0.525265
0.451915
0.485943
0.519441
0.498073
0.199617
0.174997
0.1695
0.463935
0.518467
-0.174171
-0.22609
-0.276458
-0.16784
-0.136431
-0.144502
0.696299
0.579576
0.656991
0.2063
0.206978
0.00224694
-0.000730862
0.211064
0.211141
0.00183941
-0.0127632
0.118429
-1.17049
-0.185458
0.199405
0.189994
0.206617
-0.414412
0.0684259
-0.429709
-0.308131
-0.301097
0.196929
0.141251
0.107205
0.00686184
-0.0515214
-0.0440073
-0.519774
0.203946
0.20228
0.206119
0.207145
0.207795
0.00321529
-0.00194375
0.000965381
-0.0260089
-0.00714025
-0.00423906
0.171993
0.188077
-0.480312
0.206286
0.208419
0.208247
0.201217
0.207063
0.205166
-0.0415914
-0.0248003
-0.0567454
-0.0748682
0.0410913
0.372096
0.474674
0.331585
0.102212
-0.141479
0.268574
0.336302
0.235421
0.399144
0.374989
0.39375
-0.125211
-0.272415
-0.116775
-0.170964
0.197441
0.196094
0.188187
0.185311
0.201538
0.199595
0.204204
0.200988
0.204042
0.205473
-0.357642
-0.395465
-0.400004
-0.465238
0.028415
0.281353
-0.0356513
-0.00758509
-0.144738
-0.438667
-0.374808
-0.456651
-0.446021
-0.538678
-0.321847
-0.327544
-0.289684
-0.262016
-0.381932
-0.540375
-0.408354
-0.418009
0.191183
0.190054
0.196689
0.203525
0.149911
0.152888
0.1232
0.140638
0.12646
0.0730306
0.106012
0.0829777
0.0026425
0.0108114
0.00468854
-0.0602696
-0.131554
-0.0188542
0.00111359
0.00830115
-0.0129925
-0.0165802
-0.0637962
-0.0819638
-0.481299
-0.597025
0.652328
0.603685
-0.208342
0.193157
0.199586
0.196388
0.201136
0.204201
0.205017
0.202823
0.199448
0.188791
0.190678
0.186582
0.187045
-0.424157
-0.559191
-0.38077
-0.447488
-0.192329
0.309527
0.0536961
-0.00532884
-0.00995498
0.20349
0.605731
0.409676
0.424971
0.450207
-0.669248
-0.266798
-0.599557
0.0216461
-0.158623
0.370066
0.420789
0.443104
0.390195
0.340379
-0.445371
0.211302
-0.366471
-0.323288
-0.133891
-0.236994
0.4128
0.359103
0.367398
0.382269
0.40266
0.364234
0.342323
0.340119
0.376355
0.381346
0.176128
-0.0428289
-0.0881465
-0.124564
0.341069
0.216344
0.271563
0.188898
0.192256
0.195121
0.193669
0.176919
0.183892
0.179895
0.185093
0.187956
0.197372
0.197791
0.193056
0.195465
-0.386396
-0.381933
-0.337784
-0.443565
-0.436737
-0.485051
-0.381118
-0.232914
-0.259983
-0.0910382
0.0256688
-0.265999
-0.38636
-0.353033
-0.326346
-0.139809
-0.123189
-0.224054
-0.140906
-0.124449
-0.148159
-0.0429803
-0.0490828
-0.534022
-0.52826
-0.460396
-0.489276
-0.321246
-0.222821
-0.198377
-0.423307
-0.591688
-0.344856
-0.263947
-0.388637
-0.426751
-0.461996
-0.347791
-0.0469755
-0.0576573
-0.106111
-0.304394
-0.22304
-0.285165
0.187014
0.188323
0.1884
0.200133
0.211389
0.226545
0.192983
0.1698
0.161936
0.164944
0.14012
0.149343
0.144989
0.157628
0.177091
0.18335
0.18332
0.185258
0.170218
0.171009
0.159631
0.162915
0.140611
0.123772
0.113049
-0.0272785
-0.0107177
-0.0217811
-0.0442615
-0.000349033
-0.0140291
-0.240277
-0.120774
-0.16827
-0.144744
-0.257694
-0.00650014
-0.0225756
-0.394169
-0.318123
-0.508964
-0.5363
-0.607536
0.562322
0.671122
0.495853
0.280456
0.284337
0.508258
0.606516
0.244184
0.413104
0.444193
0.211808
0.486845
0.198075
0.197477
0.195032
0.194547
0.196074
-0.340399
-0.243124
-0.224854
-0.17622
-0.0621216
0.0526857
-0.0415654
-0.164852
-0.0245128
-0.0137611
0.304472
0.320981
0.265215
0.290557
0.290203
0.116609
0.19176
0.246509
0.20186
0.245793
0.267803
0.228504
0.258431
0.206221
0.164488
0.163475
0.110743
0.130877
0.108846
0.091334
0.188149
0.166927
0.176712
0.168829
0.188429
0.21609
0.211693
0.236551
0.248776
0.173752
0.136622
0.145394
0.172127
0.134911
0.147473
0.161676
-0.123156
-0.220305
-0.133832
-0.428574
-0.337899
-0.353583
-0.399443
-0.361395
-0.0742762
-0.778475
-0.745892
-1.3841
0.145837
0.632288
0.369903
0.343254
0.401029
0.377947
0.38177
0.410798
0.417316
0.332536
0.352298
0.354354
0.302833
0.329112
0.357242
0.354445
0.18531
0.0673772
0.0582998
0.0205038
-0.099575
-0.0691421
0.131243
0.0545822
-0.0161572
-0.0112178
0.1518
0.0440785
0.107829
0.145461
0.0798767
0.0375822
0.23313
0.301069
0.290856
0.26613
0.181067
0.192192
0.218826
0.255011
0.281071
0.316029
0.184841
0.190337
0.191603
0.189315
0.186793
0.189534
0.189454
0.191977
0.192929
0.195793
0.194694
-0.441793
-0.446564
-0.381837
-0.414217
-0.321339
-0.318526
-0.270109
-0.290212
-0.356575
-0.339886
-0.349066
-0.370577
-0.379211
-0.375612
-0.187388
-0.175779
-0.21752
-0.249815
-0.0646291
0.0596506
0.12166
0.0135189
-0.097644
-0.0761364
-0.0415218
-0.369562
-0.375941
-0.44364
-0.328012
-0.292128
-0.473754
-0.405694
-0.410034
-0.564794
-0.507752
-0.303796
-0.122237
-0.151457
-0.213091
-0.202505
-0.147367
0.171942
0.166359
0.167183
0.161972
0.16117
0.173668
0.177768
0.179631
0.184278
0.185677
0.177732
0.181729
0.185045
-0.146228
-0.0387299
-0.0744945
-0.123277
-0.0695535
-0.0371004
-0.0646584
-0.211583
-0.281604
-0.273626
-0.324093
-0.443075
-0.388598
0.133838
0.123023
0.140878
0.359691
0.214077
0.128528
0.215313
0.320297
-0.0668522
0.129276
-0.0394273
0.536506
0.424864
0.56472
0.201721
-0.105386
0.0437953
0.0990375
-0.100276
-0.0271213
-0.00240415
-0.11253
-0.0814712
-0.0535009
0.0475845
-0.0768478
-0.106599
-0.353253
-0.171611
-0.037506
-0.0588458
0.071378
0.135105
-0.0937147
-0.169607
-0.208738
0.294624
0.315449
0.333611
0.30313
0.32635
0.250648
0.24154
0.26038
0.270726
0.264174
-1.11366
-0.823846
-1.76391
-1.07101
-0.626498
0.177939
0.131529
0.429128
0.315359
0.395353
0.376685
0.332638
0.29516
0.305317
0.342528
0.0444495
0.151744
0.126092
0.134562
0.0391718
-0.0282732
0.269227
0.262772
0.299649
0.324104
0.291301
0.325055
0.183002
0.182554
0.181643
0.17867
0.176845
0.179065
-0.249491
-0.302992
-0.239493
-0.250274
-0.271393
-0.302501
-0.240034
-0.238255
-0.174248
-0.165982
-0.1519
-0.216319
-0.185387
-0.239433
-0.306333
-0.278246
-0.33653
-0.399976
-0.422224
-0.321182
-0.235153
-0.240491
0.0655103
0.315015
0.14335
0.309739
0.146994
0.205916
0.142086
0.140214
0.176115
0.037717
0.111596
-0.13646
-0.636374
-0.543654
0.439075
0.459285
0.243786
0.0492198
-0.175788
0.0224809
0.21484
0.153299
0.193549
0.261375
0.25436
-0.34635
-0.271167
-0.0375905
0.189877
-0.114736
-0.122599
-0.126889
0.0363494
-0.0331403
)
;

boundaryField
{
    wall-4
    {
        type            zeroGradient;
    }
    velocity-inlet-5
    {
        type            zeroGradient;
    }
    velocity-inlet-6
    {
        type            zeroGradient;
    }
    pressure-outlet-7
    {
        type            fixedValue;
        value           uniform 0;
    }
    wall-8
    {
        type            zeroGradient;
    }
    frontAndBackPlanes
    {
        type            empty;
    }
}


// ************************************************************************* //
