/*--------------------------------*- C++ -*----------------------------------*\
| =========                 |                                                 |
| \\      /  F ield         | OpenFOAM: The Open Source CFD Toolbox           |
|  \\    /   O peration     | Version:  4.0                                   |
|   \\  /    A nd           | Web:      www.OpenFOAM.org                      |
|    \\/     M anipulation  |                                                 |
\*---------------------------------------------------------------------------*/
FoamFile
{
    version     2.0;
    format      ascii;
    class       surfaceScalarField;
    location    "24";
    object      phi;
}
// * * * * * * * * * * * * * * * * * * * * * * * * * * * * * * * * * * * * * //

dimensions      [0 3 -1 0 0 0 0];

internalField   nonuniform List<scalar> 
1300
(
3.75095
5.62643
-5.79899
3.75095
-5.7356
5.62643
-4.51064
4.51064
-1.16478
1.16478
1.87649
1.87446
-2.94192
2.94192
-2.46414
2.46414
-2.57994
2.57994
-5.24645
5.24645
-5.06793
5.06793
4.68074
-4.68074
-4.51415
4.51415
-1.59844
1.59844
-3.9258
3.9258
3.17038
-3.17038
-4.1569
4.1569
-0.369059
0.369059
-0.553522
4.30447
3.19743
3.19743
-2.25571
2.25571
-4.8578
4.8578
6.21826
-6.21826
8.75503
-8.75503
-2.95604
-3.42265
1.37294
-8.49644
-4.36265
-4.36265
-8.44041
8.44041
-2.81399
2.81244
2.94213
-2.94213
-1.77498
1.77498
-4.43677
-0.0738647
-4.43677
4.51867
-0.0080358
4.51867
-1.30045
0.135669
-1.30045
3.98619
-3.98619
0.992477
0.172299
0.992477
3.06435
-3.06435
-1.87712
3.75361
1.87384
-1.87176
6.17623
-1.87919
3.75365
-5.86433
5.86433
-3.17233
0.230404
-3.17233
2.68468
0.257246
2.68468
-6.09243
6.09243
-2.24576
-0.218372
-2.24576
2.81167
-0.347535
2.81167
2.84754
-2.84754
-2.65587
0.0759311
-2.65587
2.51562
0.064319
2.51562
0.35357
5.27286
-5.98
8.79244
-5.27286
0.0264121
5.20851
0.0379413
5.20851
-5.10594
0.0380076
-5.10594
5.01068
0.0572565
5.01068
4.776
-0.0952614
4.776
-4.79258
0.111843
-4.79258
-3.23337
-3.72153
-4.51943
0.00527824
-4.51943
-1.61367
0.015229
-1.61367
1.56966
0.0287818
1.56966
-3.51582
3.51582
-4.31048
0.384679
-4.31048
3.12491
0.0454695
3.12491
1.86849
1.88246
5.61944
-5.61944
2.44907
-3.88848
-0.268421
-3.88848
-4.3991
-4.35594
4.3991
-0.242199
-0.641525
0.272466
-0.641525
3.15923
0.0381985
3.15923
2.4262
0.0894205
-2.4262
0.170488
3.28113
-3.28113
1.63271
0.623002
1.63271
-5.56943
5.56943
4.95097
0.0597104
-4.95097
0.0931659
6.15682
0.0614443
6.15682
-6.19955
-0.0187133
-6.19955
3.1739
-6.59655
-3.55837
4.44471
0.0694435
-4.44471
0.0820595
2.91255
0.0295751
2.91255
-2.92385
2.92385
-2.98225
0.0401228
-2.98225
-2.18607
0.411093
-2.18607
1.46158
0.313398
1.46158
-4.30072
-0.136046
-4.30072
-4.45147
0.14099
4.45147
0.0672005
0.993252
-0.993252
-1.4417
0.141255
-1.4417
-4.13066
-0.170068
4.13066
-0.14447
-3.8768
-0.109386
-3.8768
-3.02282
0.0405721
3.02282
0.0415322
3.11233
0.0469035
-3.11233
0.0479752
-1.87084
3.75331
-1.88011
3.75395
-5.47791
-0.386412
-5.47791
6.16804
-0.303709
6.16803
3.5451
0.380698
-3.5451
0.372777
2.50873
0.175951
2.50873
-6.36805
0.275624
-6.36805
5.5837
0.508731
5.5837
2.32393
0.184796
-2.32393
0.0781657
3.15395
-0.34228
3.15395
2.87186
-0.024317
2.87186
-2.85074
0.00319145
-2.85074
2.80369
-2.80369
2.73317
0.0705233
-2.73317
0.0772929
-11.1328
11.1141
-0.0351187
-11.0977
5.17339
5.17339
4.20655
0.569455
4.20655
-5.00388
0.211302
-5.00388
3.13284
-6.69122
3.65959
-6.89295
3.67188
-12.1683
3.32509
-7.04662
4.75717
-4.75717
4.55472
0.202449
-4.55472
0.0352861
-1.63185
0.0181766
-1.63185
-2.89817
-0.617647
-2.89817
4.17229
-0.656471
4.17229
-3.03028
3.03028
-3.07856
0.048278
3.07856
0.0463481
3.56259
-0.408635
-3.56259
-0.32589
0.819865
0.172612
-0.819865
0.17834
3.49828
-0.217152
3.49828
-3.08058
-0.200552
-3.08058
-1.63755
0.0057005
1.63755
-0.00483758
-5.8175
0.24807
-5.8175
-11.1907
0.0930168
-11.1527
-6.10653
-6.10653
2.33388
11.1263
-2.88133
0.0305941
2.88133
0.0312227
2.97834
0.0519459
-2.97834
0.0544906
-2.86646
0.0627668
2.86646
0.0573909
-2.56994
0.383863
-2.56994
-1.04253
1.04253
-1.23492
0.192391
1.23492
0.226657
1.23253
-0.239275
1.23253
1.53476
0.0349065
-1.53476
0.0930547
-3.7817
-0.0950958
-3.7817
6.41991
-0.251872
6.41991
-2.94865
-0.13193
2.94865
-0.0767878
-0.0332998
11.1474
-5.14009
0.034146
5.14009
-11.2088
11.243
-3.24884
0.6789
3.24884
0.957709
5.29204
0.277394
-5.29204
0.288156
5.12396
0.459738
-5.12396
0.366791
-2.39951
-0.498657
-2.39951
-4.89959
-0.578328
4.89959
-0.727297
-11.4759
-0.20162
11.6775
-11.4187
6.01912
0.137698
-6.01912
11.3807
-0.942719
-0.0505331
0.942719
0.0998143
1.54175
-0.309226
1.54175
3.68319
-0.18491
-3.68319
-0.0985118
-6.51433
0.146275
6.51433
-0.094421
-1.9526
-0.44691
1.9526
-0.410852
-4.26662
4.30482
1.90961
-2.98312
-3.61343
-7.33905
1.85202
1.90128
4.30109
-7.65783
-4.51049
-7.57577
7.27007
-6.98192
-9.29499
9.19973
7.54052
-7.64991
-5.78473
5.83107
6.48191
-6.44038
1.87886
1.87476
7.93789
-7.70749
-15.6195
15.2331
5.75989
-5.97827
16.3343
-16.0586
-17.6417
18.1014
-5.75402
5.82995
-6.66603
6.66922
-6.85813
6.78134
-2.80632
-4.08664
10.5337
-10.5285
10.1247
-10.3931
-8.49559
8.88027
3.38274
0.92208
3.42964
-1.88239
3.76124
-1.87127
3.78088
3.71232
-6.51864
2.97889
-6.59233
5.6472
4.47747
-5.40501
-1.93405
-5.91786
5.94743
-5.82192
5.87931
8.9003
-8.97417
-1.88526
3.76002
-1.86868
3.76996
-3.4254
-2.35933
3.37993
0.921158
6.28316
4.25058
-6.3526
-1.22317
-7.75771
7.5728
-8.0399
7.83934
-0.448566
5.82253
-5.37396
4.40924
-1.55343
7.37596
5.71664
5.92794
5.86756
-5.59016
1.11436
-6.48832
-6.39516
-2.54724
2.6885
2.52653
-2.35423
5.92349
1.61703
5.77902
-5.52866
-2.12124
-5.62376
3.82145
2.00962
3.86973
4.07624
2.40568
4.11681
3.03108
-3.03512
0.00404358
-3.0567
6.08777
0.7249
-5.41602
-4.49487
4.83763
3.10027
5.09487
-5.49385
-2.21364
-5.12107
-9.51408
-6.1054
-10.0924
10.0791
5.154
9.77535
-11.9256
11.8311
4.02657
1.73333
3.67903
-3.80188
-2.17639
-3.72372
13.2842
-3.28292
-10.0013
-10.6235
-7.0182
10.1148
6.21947
10.3437
7.75776
10.7105
4.48469
8.79953
-10.7042
3.68597
-3.87341
-1.8806
-3.79612
3.732
2.09795
3.79632
-4.19536
-2.47066
-4.16477
-4.22672
-2.6314
4.25104
2.41818
-4.31283
-3.72707
4.44476
2.33658
3.55332
-8.06382
3.4933
-7.57993
-7.74097
-2.78749
-7.70569
4.77609
1.80635
-6.58244
-1.74254
10.2689
-5.79144
8.33487
-5.59955
-4.79355
-5.92544
-6.8137
-1.6819
-6.67271
-8.83706
8.3384
-9.15405
8.49758
12.7391
-5.72782
-7.01123
-3.96817
-2.47221
3.9202
-0.490556
-3.71203
3.71607
0.0492114
3.83009
4.75217
4.26162
-3.88555
-1.93637
-3.83106
3.83325
2.04606
3.89602
6.74058
2.15972
6.73255
-6.39992
-2.57425
-6.53597
9.10366
-8.69257
2.96363
-2.95793
5.23983
2.59952
-5.02267
-2.73504
6.08433
-3.04407
-3.04026
-12.2144
10.5807
1.63371
-4.83846
-0.429225
-0.0601662
-5.50877
-3.78622
5.39693
0.531015
11.1117
7.32551
-5.51329
5.76136
6.16425
6.22396
-0.171197
5.85808
-5.17918
5.34268
-2.4363
-2.90638
5.27439
-5.44445
-1.26158
-5.25627
3.99469
0.33457
1.80498
-1.53251
-2.04526
-0.501985
-1.9522
1.51544
1.01109
1.68805
0.9916
1.6969
-2.92221
0.521665
2.40054
-1.93061
-1.83257
-3.64971
-1.03159
4.68131
5.52294
2.04986
-5.42443
-0.19933
2.7352
-2.70641
-0.779043
-2.87067
2.11733
-2.89638
-3.52682
-1.91068
5.4375
-3.36996
-0.461092
3.31802
0.55171
-3.8243
-2.09356
3.78418
0.332629
-3.12376
6.18916
-3.0654
-5.06014
2.52953
3.55824
4.53916
-4.78986
2.44559
2.34427
-1.23162
3.82722
1.26765
4.00317
-6.84137
4.62773
5.71099
3.16928
-6.09169
0.970622
-5.87075
8.44448
-7.26074
-1.18374
4.11315
4.33133
7.18521
5.55384
-5.73337
12.9186
-1.07639
-6.18435
6.94715
-3.77787
4.78711
-8.56498
-10.341
4.15661
-9.17232
11.2132
-2.04091
-3.60564
-8.31991
12.778
-1.20357
-11.5744
8.57178
-4.42707
-4.15134
8.57841
-7.70999
6.32772
-1.38328
-4.94445
-10.3211
-5.73755
10.1748
1.65633
-10.2981
13.9841
-1.49858
3.78395
-0.104921
3.44167
3.29429
-6.16359
2.8693
4.4157
-5.79898
1.45917
-7.62275
-6.31228
10.81
-4.49771
-9.09977
-9.32234
0.222566
1.56506
12.419
-9.32282
6.1151
3.20773
3.30902
0.586995
-3.37955
-0.416573
0.330276
4.53288
-4.86315
4.12659
4.21601
3.41018
1.1227
3.83123
2.1162
-3.86245
-0.302316
-4.12697
1.49557
-1.70879
-3.65564
5.1512
-4.08724
0.431605
-2.73114
-3.5538
6.28495
-4.61175
3.04147
3.14769
5.08754
-4.93763
1.38383
-2.43562
-2.50202
2.70341
-4.4122
1.96345
3.18775
4.30003
0.57296
5.8826
4.92739
-7.68895
0.109015
9.17797
-7.9548
3.03439
7.67608
-9.14949
-0.172847
-7.87853
0.212032
-6.00347
-6.37041
5.08963
-6.77153
-3.47534
6.15366
0.578883
-6.22086
-0.451843
-5.98361
-2.85345
-6.43052
-3.06652
-6.08753
-8.79989
-1.63323
-7.16666
6.70517
-6.64931
-3.44309
7.37661
1.12097
-7.37882
7.32829
-7.44873
7.1395
0.0945155
3.62156
4.35613
1.88392
-2.38994
4.27386
-5.0633
7.22302
-8.45774
3.39445
3.9424
-6.51665
-4.51534
5.04105
4.06261
5.35445
8.98407
-10.561
1.57695
-10.8838
12.1603
-1.2765
-16.669
5.78523
-7.68496
2.7028
0.260825
2.72098
0.676189
2.41285
-3.08904
-2.28174
-2.28658
-2.29174
-3.35134
5.64308
1.12654
-3.34499
2.21845
-3.46486
4.5914
-0.0721982
-3.27279
5.24028
-2.82743
5.5011
-3.53706
1.96405
3.2569
5.56453
-2.30763
4.28495
-1.68543
1.80143
-4.10906
-1.54991
-3.016
5.11395
-3.26894
3.70055
-0.250797
3.95134
-4.03098
0.986915
-0.620804
3.59521
3.7657
4.23361
-3.11091
2.91572
-4.60115
-1.19335
-4.02819
-0.840434
-0.323974
-3.75317
4.07714
6.07996
-6.40393
-5.29208
9.60893
-4.31685
7.7427
-5.42602
-2.31669
-4.28854
-4.40403
3.90468
1.9534
9.69611
0.207782
-5.6338
-4.9714
-4.01369
3.23812
2.10457
-2.02294
3.65665
2.08311
-0.278131
0.564217
1.12383
1.87925
-1.31504
0.23034
1.64891
-1.30217
2.01666
0.718539
-2.05156
0.099361
-1.37307
3.4904
1.02748
-2.03857
0.723535
1.01544
-3.45174
4.74056
-2.45805
-2.28251
5.756
1.14373
-3.60178
4.11254
-3.77797
2.30046
-3.33206
-1.30132
-5.07929
-3.46226
-2.46876
4.68721
-3.17433
5.22418
1.16039
-5.02485
6.18524
-3.54763
1.63696
-3.03761
3.75615
-1.04377
-1.99384
2.75085
2.68664
-2.91435
0.0436781
-0.163496
2.29371
-2.4572
-0.602672
-2.53328
-4.5728
4.90543
-2.10674
4.55234
2.16712
-1.91391
6.46624
1.8117
-3.72561
-3.24843
-3.70952
-1.38134
3.15781
-0.142467
-3.58125
-5.08691
3.39645
0.606719
-7.02685
7.55236
-0.5255
-3.92659
-0.701141
4.81429
-5.71784
-0.0811451
-4.25867
3.29369
4.56134
5.16806
-11.3799
-0.194484
-6.2259
1.23803
-7.46393
5.56936
-3.60297
7.75958
-10.4366
6.99349
-9.31562
6.57584
-0.888089
6.97531
-4.10601
3.026
-8.76355
-7.10722
4.88897
-3.15564
4.78405
-3.92419
8.70823
-5.42277
5.97575
2.73248
-1.97239
-3.95305
-5.05573
3.08335
0.920016
4.36169
4.96431
-2.84811
4.66199
2.22087
-4.65648
-2.19133
-6.51229
1.85581
-3.3646
-1.91052
3.76633
3.17702
3.76401
1.26431
-3.34744
8.44493
-8.22237
-3.94722
-2.42319
5.81822
-2.73487
4.9788
-7.40199
-1.02467
4.88329
-0.852593
-4.03069
0.844535
-4.31988
1.65364
-5.97352
5.11789
-5.56974
2.18668
-9.87164
-5.19214
-5.09232
-2.23294
-5.21578
-7.65846
5.42552
-1.87323
5.45506
-8.67459
7.822
-3.4857
8.91122
-5.39277
-1.03775
5.80362
1.33588
10.2471
0.114005
-4.62935
-1.84282
3.97365
-2.13083
1.3953
-3.63916
0.334487
2.41887
3.33713
-6.41356
-0.103087
-4.73243
-3.9215
7.9841
5.68743
11.7674
1.20636
9.19487
-1.21076
10.4012
4.14369
4.37034
-3.01172
4.58868
1.06542
4.45986
-0.855406
2.81945
1.86558
1.8808
0.82561
2.2999
1.4658
3.28681
0.197775
-2.0888
4.65462
-8.66831
-0.979178
-8.09885
1.10088
5.74062
-4.63974
3.18832
-1.08376
1.05749
0.0870673
-1.71246
1.62539
-2.81931
-1.99059
-0.341676
-1.6311
2.35464
1.8593
-2.01296
-0.806353
0.315905
-3.77817
3.01615
-2.97247
-0.285831
5.89941
-2.70633
0.249131
-1.06937
-2.28415
-2.78613
2.68677
6.17348
0.292759
3.10808
5.19819
3.10463
0.256522
3.74028
-5.78119
-3.88247
-5.97567
-0.406313
4.40798
3.78825
8.63077
6.52073
3.78586
-3.61613
-11.8385
6.53331
-1.94463
5.25682
-1.22612
-4.74739
4.97305
2.24997
-5.55193
-0.017809
-4.7652
-6.70984
-0.551675
8.37368
-9.69542
8.65767
5.80422
1.36244
-4.39623
-0.696095
4.20384
0.166506
10.5677
-1.12567
-6.88405
8.00972
-4.61495
3.63577
0.872753
2.7839
2.49814
1.41439
-5.46966
-10.1094
-1.91692
-1.53482
-4.19943
0.481875
-2.34117
6.27832
-2.64255
3.96163
5.36717
6.42466
-2.18654
-4.21739
6.50339
-2.54176
3.8829
)
;

boundaryField
{
    wall-4
    {
        type            calculated;
        value           uniform 0;
    }
    velocity-inlet-5
    {
        type            calculated;
        value           uniform -3.75095;
    }
    velocity-inlet-6
    {
        type            calculated;
        value           uniform -5.62643;
    }
    pressure-outlet-7
    {
        type            calculated;
        value           nonuniform List<scalar> 8(5.79899 5.7356 6.3787 7.1235 6.9549 6.73227 6.79243 6.99697);
    }
    wall-8
    {
        type            calculated;
        value           uniform 0;
    }
    frontAndBackPlanes
    {
        type            empty;
        value           nonuniform 0();
    }
}


// ************************************************************************* //
