/*--------------------------------*- C++ -*----------------------------------*\
| =========                 |                                                 |
| \\      /  F ield         | OpenFOAM: The Open Source CFD Toolbox           |
|  \\    /   O peration     | Version:  4.0                                   |
|   \\  /    A nd           | Web:      www.OpenFOAM.org                      |
|    \\/     M anipulation  |                                                 |
\*---------------------------------------------------------------------------*/
FoamFile
{
    version     2.0;
    format      ascii;
    class       volScalarField;
    location    "40";
    object      p;
}
// * * * * * * * * * * * * * * * * * * * * * * * * * * * * * * * * * * * * * //

dimensions      [0 2 -2 0 0 0 0];

internalField   nonuniform List<scalar> 
918
(
0.580525
1.23148
0.00546986
0.57988
-0.00928679
1.19852
-0.474346
0.739532
0.560678
-0.069353
-0.00629226
0.55633
1.05918
0.82633
-1.10108
0.0133795
0.689424
-0.35464
0.559714
0.00334612
0.7761
0.567259
0.570289
0.560875
0.624602
0.805504
0.940271
0.0176085
0.00187032
-0.00200464
-0.00799996
-0.0325655
-0.0226582
1.08216
1.13326
1.15595
0.528921
0.355085
-0.337944
-0.406268
-0.399845
-0.512099
0.732611
0.733103
-0.153079
0.741652
0.749683
0.54785
0.56004
0.560937
0.562017
0.560971
0.562364
0.438723
-0.0740182
-0.105637
-0.0499509
-0.0410818
0.0873844
-0.00487959
-0.00678247
-0.00386848
-0.00870281
0.479649
0.551969
0.549129
0.561382
0.570084
1.17103
1.14293
1.16908
1.08282
1.09929
1.03715
1.00979
0.846152
0.86791
0.812927
0.800412
-1.53914
-2.50158
-0.505137
-0.2509
-0.00522051
0.0196074
0.0228942
0.680993
0.679262
0.69089
0.70219
1.10883
-0.351243
-0.467037
0.559841
0.558637
0.567022
0.567717
0.563731
0.562824
0.00301089
0.00118035
0.000117478
0.00180186
-0.00283137
0.765315
0.763056
0.561414
0.558432
0.577191
0.598119
0.589936
0.309809
0.628286
0.64075
0.629557
0.79538
0.790047
0.798473
0.913755
0.877868
0.977313
1.0004
0.0150333
0.00434988
0.00424427
-0.00944512
0.00271787
0.52485
0.517578
0.54391
0.532277
0.534725
0.270935
0.136051
0.440478
0.465465
-0.25117
-0.311303
-0.40807
-0.428371
-0.540253
0.6268
0.72302
0.721827
-0.172108
-0.0966659
-0.227104
-0.0239443
-0.0838047
0.538249
0.545154
0.540203
0.555624
0.550121
0.552071
0.564284
0.561359
0.562918
0.501594
0.62541
0.36448
0.329497
-0.214135
-0.123858
-0.216475
-0.0278188
-0.0232116
0.102927
0.12767
0.0755787
0.0681111
-0.016167
-0.0104393
-0.0118909
-0.0092438
-0.00651566
0.472721
0.461963
0.491966
0.499313
0.542107
0.543275
0.546569
0.545053
0.960461
0.982815
0.990484
0.964241
-3.50298
-6.30679
0.0782582
0.216806
0.00206938
0.000196593
0.00392858
-0.000498479
0.00408531
-0.00187878
0.030371
0.0327061
0.0292948
0.0404045
0.667208
0.666863
1.0281
1.02924
1.0094
0.959917
0.547933
0.550055
0.555598
0.551455
-0.00448141
-0.00064171
-0.00209896
0.750691
0.758831
0.756853
0.272752
0.185662
0.358945
0.386944
0.656676
0.644299
0.654769
0.690733
0.72849
1.00781
1.02613
1.02431
1.03276
1.07675
1.09312
1.05855
0.504906
0.514549
0.509673
0.547106
0.54481
0.545755
0.541294
0.542754
0.540576
-0.0159065
-0.399584
0.514619
0.532998
0.514097
0.520003
0.706797
0.784309
0.703678
0.713844
0.711694
0.0417669
-0.0152924
0.285747
0.252225
0.414106
0.449544
0.429019
0.931745
0.892163
0.942252
0.915461
0.876756
0.90237
-0.351178
-1.86466
-0.97602
0.571693
0.383005
0.471666
0.0512356
0.0268618
0.0358868
1.02288
1.09992
0.681308
0.850155
0.85725
0.764871
0.794809
0.851793
0.779169
0.812621
0.845755
0.82496
0.583191
0.526739
0.537818
0.854548
0.911116
0.158717
0.102771
0.0579833
0.146275
0.20509
0.177876
1.0625
0.967236
1.03919
0.558182
0.558882
0.0145651
0.0181896
0.563046
0.563091
0.0015963
0.00310122
0.453987
-0.810789
0.145385
0.551526
0.541719
0.558688
-0.0530256
0.393115
-0.00387868
0.0874273
0.0293725
0.55441
0.490166
0.450749
0.022011
0.00395225
0.00158643
-0.180125
0.555854
0.554165
0.558152
0.559126
0.559789
0.00856308
0.0120258
0.0108784
0.00433729
0.00806985
0.00530014
0.523162
0.540875
-0.135364
0.558291
0.560415
0.560234
0.553426
0.559092
0.557318
0.00997157
-0.00520806
-0.00959982
0.256705
0.380384
0.699934
0.793109
0.667756
0.440531
0.202039
0.599761
0.665016
0.568067
0.725537
0.716398
0.734855
0.210338
0.0616554
0.217859
0.158828
0.549395
0.548074
0.539989
0.537054
0.553542
0.551657
0.556212
0.553215
0.556164
0.557558
-0.0114635
-0.0345177
-0.0495037
-0.11341
0.349571
0.610567
0.28859
0.318954
0.180278
-0.00263847
-0.00390451
-0.00324837
-0.00867057
0.0364461
0.0146708
0.079555
0.0818528
0.049126
0.0231025
0.0283178
0.0182162
0.0184493
0.547701
0.545899
0.552365
0.560919
0.499474
0.503256
0.469249
0.489283
0.474982
0.415778
0.450042
0.425562
0.0173854
0.0281833
0.0127893
0.0111806
0.0198118
0.0105189
0.012868
0.0101014
0.0135063
0.00772698
0.00206896
0.000369916
-0.138996
-0.252572
1.01477
0.948688
0.159468
0.545048
0.551468
0.548254
0.553056
0.556186
0.55703
0.554775
0.551344
0.541387
0.543093
0.539619
0.540322
-0.0728268
-0.209548
-0.0364945
-0.10561
0.164865
0.648439
0.392359
0.331814
0.326319
0.548842
0.955812
0.749173
0.737817
0.758836
-0.315348
0.0812549
-0.248381
0.371247
0.193358
0.697669
0.747197
0.769272
0.717068
0.669145
-0.0859769
0.57665
-0.028368
0.0187408
0.213836
0.101501
0.739142
0.700118
0.705175
0.723588
0.742741
0.705946
0.687854
0.683089
0.719413
0.723017
0.526041
0.288304
0.241665
0.202984
0.681898
0.565308
0.621475
0.532739
0.544402
0.547141
0.54574
0.527916
0.535324
0.530998
0.536984
0.540289
0.549265
0.549637
0.545037
0.54721
-0.0160768
-0.0190364
0.00401567
-0.103263
-0.0941798
-0.153315
-0.032632
0.10882
0.0712914
0.266897
0.372143
0.0845152
-0.0309412
-0.00157965
0.0334837
0.210963
0.236153
0.111202
0.199702
0.1874
0.172282
0.273098
0.278804
0.0109328
0.00612704
0.00666545
0.00304019
0.0576855
0.129024
0.139007
0.0296511
0.0246778
-0.00375676
-0.00662728
0.0134956
0.0103257
0.0122286
0.0513587
-0.0290465
0.00769182
0.0253101
0.0313648
0.0293704
0.0226982
0.540342
0.542367
0.542125
0.550086
0.567103
0.582795
0.54107
0.521163
0.512164
0.51513
0.48882
0.498877
0.494623
0.50822
0.528325
0.537362
0.535168
0.537793
0.520811
0.522357
0.50926
0.513022
0.488731
0.47044
0.458941
-0.0109103
0.0334979
0.0316451
-0.011136
0.0189175
0.000269457
0.0254205
0.0430083
0.0271935
0.0240743
0.0160454
0.0131522
0.0146945
-0.0449834
0.0370468
-0.154105
-0.187269
-0.255865
0.9194
1.0393
0.84182
0.617625
0.632342
0.871086
0.957804
0.579548
0.765676
0.789341
0.600499
0.870364
0.549849
0.549458
0.54706
0.546539
0.547774
0.0169109
0.118094
0.126167
0.181426
0.296266
0.409505
0.332321
0.210818
0.34372
0.34749
0.643608
0.657737
0.609959
0.632234
0.631916
0.456464
0.534472
0.587928
0.542344
0.590307
0.612244
0.571745
0.602414
0.549719
0.505706
0.502942
0.451305
0.473312
0.450368
0.431829
0.539502
0.517471
0.527571
0.518322
0.537744
0.561693
0.558354
0.589374
0.600622
0.522079
0.479942
0.489934
0.518606
0.479982
0.494255
0.509901
0.24645
0.145359
0.231118
-0.0589644
0.0210699
0.00617352
-0.0409191
0.00466516
0.29025
-0.40653
-0.37999
-1.01243
0.516474
0.985857
0.691696
0.664439
0.739181
0.717918
0.72191
0.744879
0.750781
0.672435
0.690414
0.693846
0.653282
0.67709
0.700177
0.697517
0.54849
0.419894
0.41317
0.369789
0.24224
0.277559
0.480091
0.40195
0.327397
0.330096
0.492688
0.380077
0.447004
0.485878
0.417629
0.372335
0.577284
0.64229
0.631957
0.606374
0.524849
0.539251
0.563944
0.59979
0.626614
0.658763
0.536694
0.54251
0.543769
0.541296
0.538503
0.541432
0.541564
0.544097
0.544897
0.547827
0.546827
-0.00371778
0.00719798
-0.00579453
-0.012339
0.0163713
0.0117378
0.0559539
0.0414299
0.0268801
0.0341029
0.00756965
0.00267818
0.0089383
0.0178491
0.132522
0.145659
0.129415
0.0898019
0.279793
0.410465
0.481115
0.359089
0.251654
0.275015
0.298192
0.0223636
0.0502181
0.035462
0.0776953
0.0692066
0.00503308
0.000518164
0.00352928
0.00709889
0.018894
-0.000344738
0.00230213
0.00751752
0.00145396
-0.00215155
-0.00165365
0.523356
0.51689
0.518328
0.512296
0.511112
0.525119
0.529348
0.53117
0.536495
0.538531
0.529006
0.534496
0.538097
0.0245341
0.00616639
-0.00268245
0.0125
0.0123357
0.0137096
0.00932239
0.145518
0.0768363
0.0822848
0.0350281
-0.0930536
-0.0357805
0.507853
0.504736
0.500022
0.73899
0.589417
0.507591
0.602756
0.708988
0.295433
0.494605
0.327731
0.910294
0.803337
0.949689
0.565455
0.261063
0.417089
0.46786
0.275181
0.347516
0.352796
0.240522
0.272248
0.305013
0.406474
0.282835
0.257354
0.014971
0.202581
0.319837
0.300706
0.429147
0.491265
0.279809
0.1998
0.15569
0.635053
0.65381
0.672436
0.643182
0.667121
0.599255
0.587977
0.605749
0.614611
0.610942
-0.740237
-0.447811
-1.39179
-0.706245
-0.255887
0.546984
0.509885
0.789577
0.674619
0.737287
0.721715
0.679382
0.645075
0.659973
0.691154
0.38605
0.497697
0.472145
0.477411
0.377771
0.310101
0.612157
0.606008
0.642069
0.666149
0.63309
0.665941
0.534483
0.53411
0.533747
0.530141
0.528397
0.530618
0.0934678
0.0625637
0.0973047
0.0777354
0.0559422
0.0445249
0.0271593
0.0186761
0.0137589
0.0140821
0.0258699
0.0287862
0.186396
0.128309
0.0524952
0.0820733
0.0207926
-0.0451721
-0.0638581
0.0380062
0.130677
0.120894
0.427696
0.679703
0.500576
0.67011
0.509401
0.565377
0.490741
0.483841
0.510473
0.397962
0.477754
0.247869
-0.257187
-0.165184
0.804866
0.822319
0.604621
0.419859
0.190254
0.37835
0.573786
0.508743
0.547365
0.616426
0.607462
0.0314646
0.0972949
0.359859
0.587176
0.251803
0.244265
0.238627
0.413791
0.337429
)
;

boundaryField
{
    wall-4
    {
        type            zeroGradient;
    }
    velocity-inlet-5
    {
        type            zeroGradient;
    }
    velocity-inlet-6
    {
        type            zeroGradient;
    }
    pressure-outlet-7
    {
        type            fixedValue;
        value           uniform 0;
    }
    wall-8
    {
        type            zeroGradient;
    }
    frontAndBackPlanes
    {
        type            empty;
    }
}


// ************************************************************************* //
