/*--------------------------------*- C++ -*----------------------------------*\
| =========                 |                                                 |
| \\      /  F ield         | OpenFOAM: The Open Source CFD Toolbox           |
|  \\    /   O peration     | Version:  4.0                                   |
|   \\  /    A nd           | Web:      www.OpenFOAM.org                      |
|    \\/     M anipulation  |                                                 |
\*---------------------------------------------------------------------------*/
FoamFile
{
    version     2.0;
    format      ascii;
    class       surfaceScalarField;
    location    "40";
    object      phi;
}
// * * * * * * * * * * * * * * * * * * * * * * * * * * * * * * * * * * * * * //

dimensions      [0 3 -1 0 0 0 0];

internalField   nonuniform List<scalar> 
1300
(
3.75095
5.62643
-3.07843
3.75095
-7.59014
5.62643
-4.40554
4.40554
-0.852175
0.852175
1.87641
1.87454
-2.89368
2.89368
-2.33519
2.33519
-2.55218
2.55218
-5.24647
5.24647
-5.0687
5.0687
4.66644
-4.66644
-6.17156
6.17156
-1.19402
1.19402
-3.78657
3.78657
3.16974
-3.16974
-2.29465
2.29465
-0.216131
0.216131
-0.553505
4.30446
3.19745
3.19745
-2.02721
2.02721
-4.86479
4.86479
6.21817
-6.21817
4.97795
-4.97795
-1.89952
-2.2064
1.79107
-11.5427
-5.79907
-5.79907
-8.4404
8.4404
-2.81397
2.81246
2.94431
-2.94431
-1.78085
1.78085
-4.33964
-0.0658969
-4.33964
4.40291
0.0026278
4.40291
-0.942401
0.0902263
-0.942401
3.88437
-3.88437
0.727007
0.125167
0.727007
3.06497
-3.06497
-1.87708
3.75349
1.87387
-1.87186
6.17632
-1.87909
3.75363
-5.98371
5.98371
-3.10601
0.212335
-3.10601
2.71606
0.177614
2.71606
-6.80293
6.80293
-2.42109
0.0859062
-2.42109
2.27684
0.0583428
2.27684
2.87108
-2.87108
-2.65491
0.102722
-2.65491
2.43864
0.113544
2.43864
0.353541
5.27289
-5.97997
8.79244
-5.27289
0.0264213
5.20843
0.0380419
5.20843
-5.10595
0.0372507
-5.10595
5.01144
0.0572574
5.01144
4.75702
-0.0905764
4.75702
-4.7813
0.114857
-4.7813
-3.58295
-4.08951
-6.34858
0.177019
-6.34858
-1.20333
0.00931197
-1.20333
1.14843
0.0455854
1.14843
-3.63758
3.63758
-4.18222
0.395646
-4.18222
3.12418
0.0455587
3.12418
1.8685
1.88245
5.61946
-5.61946
2.44972
-2.26442
-0.0302243
-2.26442
-2.28035
-2.6976
2.28035
0.0142958
-0.463987
0.247856
-0.463987
3.15933
0.0381215
3.15933
2.28133
0.157312
-2.28133
0.25412
3.23894
-3.23894
1.36344
0.663764
1.36344
-5.56609
5.56609
4.95399
0.0574481
-4.95399
0.0892041
6.15666
0.0615079
6.15666
-6.19952
-0.0186536
-6.19952
2.71616
-4.92256
-2.46398
5.97914
0.192411
-5.97914
0.180072
2.91488
0.02943
2.91488
-2.92038
2.92038
-2.98358
0.0392722
-2.98358
-2.18295
0.402101
-2.18295
1.47844
0.302407
1.47844
-4.2047
-0.134938
-4.2047
-4.32057
0.13835
4.32057
0.0823405
1.09837
-1.09837
-1.04914
0.106739
-1.04914
-4.03328
-0.171426
4.03327
-0.148904
-3.76743
-0.116942
-3.76743
-3.02378
0.0402023
3.02378
0.0411902
3.11267
0.0466565
-3.11267
0.0476984
-1.87082
3.75328
-1.88013
3.754
-5.60093
-0.382772
-5.60093
6.29469
-0.310983
6.29469
3.4626
0.323967
-3.4626
0.35659
2.58167
0.134399
2.58167
-6.77183
-0.0311006
-6.77183
6.77796
0.0249708
6.77796
2.49302
0.0886494
-2.49302
0.0719241
2.24828
0.0285583
2.24828
2.88679
-0.0157065
2.88679
-2.86829
-0.00278457
-2.86829
2.79874
-2.79874
2.73028
0.0684594
-2.73028
0.0753738
-11.133
11.1144
-0.0352542
-11.0978
5.17317
5.17317
4.18677
0.57025
4.18677
-4.99596
0.214664
-4.99596
3.00498
-5.46897
3.1124
-6.69536
4.70346
-16.2462
4.31377
-8.40328
6.62699
-6.62699
6.50242
0.124571
-6.50242
0.153847
-1.25118
0.0478489
-1.25118
-3.03191
-0.605663
-3.03191
4.28845
-0.650874
4.28845
-3.02874
3.02874
-3.07783
0.049088
3.07783
0.0463511
2.25245
-0.00416234
-2.25245
-0.0119749
0.599155
0.127852
-0.599155
0.135169
3.43244
-0.1935
3.43244
-3.05066
-0.188273
-3.05066
-1.30348
0.0522988
1.30348
0.0599686
-5.81574
0.249643
-5.81574
-11.1907
0.092945
-11.1527
-6.10657
-6.10657
2.33383
11.1263
-2.88861
0.0203168
2.88861
0.0262664
2.97571
0.0530299
-2.97571
0.0553322
-2.86186
0.0631203
2.86186
0.0585185
-2.56055
0.377606
-2.56055
-1.06629
1.06629
-1.24011
0.173825
1.24011
0.238328
1.36082
-0.262454
1.36082
1.11164
0.0367908
-1.11164
0.0624994
-3.67936
-0.0880643
-3.67936
6.52775
-0.23306
6.52775
-2.94348
-0.107179
2.94348
-0.0566992
-0.0333069
11.1477
-5.13986
0.0339174
5.13986
-11.2092
11.2431
-3.23413
0.673576
3.23413
0.952639
5.28707
0.279023
-5.28707
0.291107
6.71436
0.0635942
-6.71436
0.0873698
-2.54158
-0.490334
-2.54158
-5.01706
-0.583874
5.01706
-0.728609
-11.4755
-0.202997
11.6785
-11.4183
6.01873
0.137927
-6.01873
11.381
-1.01033
-0.0880417
1.01033
0.055958
1.68441
-0.323583
1.68441
3.60151
-0.16907
-3.60151
-0.0778573
-6.68068
-0.0911488
6.68068
-0.15293
-2.09884
-0.442744
2.09884
-0.414428
-4.26701
4.30513
1.90931
-2.52071
-2.40185
-5.21831
1.8519
1.90138
4.30162
-10.1776
-6.06851
-9.99758
7.26499
-6.97389
-9.26738
9.17681
7.68809
-7.80503
-5.78522
5.83157
6.48241
-6.44121
1.87878
1.87472
7.92194
-7.7096
-15.6506
15.2678
7.4807
-7.39479
15.8305
-15.8616
-17.9147
17.9783
-5.7097
5.81242
-6.7274
6.72461
-6.95175
6.89505
-3.07741
-3.61794
13.1704
-12.9934
8.38243
-8.41266
-8.53963
8.93528
3.38248
0.922656
3.42913
-1.88224
3.76102
-1.87139
3.7807
2.68023
-5.75764
2.78874
-5.19058
4.11002
4.27242
-4.12431
-1.094
-5.92084
5.95027
-5.81959
5.87811
8.98686
-9.05275
-1.88517
3.75989
-1.86883
3.77021
-3.42507
-2.36014
3.37951
0.922105
8.09217
5.07823
-8.28459
-1.71299
-7.94252
7.77345
-8.18703
7.99876
-0.4396
5.81958
-5.37998
4.42519
-1.5579
7.37748
5.70709
5.92175
5.86637
-5.58735
1.10752
-6.48749
-6.39829
-2.48236
2.5891
2.42631
-2.30115
6.00991
1.67818
5.86101
-5.64339
-2.16165
-5.73145
3.82101
2.01055
3.8701
4.07731
2.40509
4.11751
3.03082
-3.03572
0.00489057
-3.05634
6.08717
0.724173
-5.41649
-4.49438
4.95393
2.968
5.13155
-5.49787
-2.21173
-5.14128
-9.55085
-6.09971
-10.1347
10.1102
5.15755
9.79925
-11.9945
11.8416
4.77286
2.70783
4.8312
-4.89701
-2.49778
-4.82509
11.6427
-2.61279
-9.02988
-10.3578
-7.55692
10.3329
5.49764
11.0005
6.9778
11.0879
4.43905
7.20361
-9.93669
2.37977
-3.86513
-1.84457
-3.78976
3.68136
2.13106
3.7949
-4.21369
-2.51371
-4.19338
-4.28891
-2.66284
4.30462
2.42
-4.40389
-3.78315
4.51107
2.38399
4.06103
-10.1295
4.34225
-7.9602
-9.23761
-3.75578
-9.08376
3.52945
2.57335
-6.1028
-2.2282
8.51279
-4.24037
7.41878
-5.09005
-3.3226
-5.10203
-6.8204
-1.71923
-6.68205
-8.88122
8.39089
-9.1858
8.53493
12.6039
-5.67837
-6.92553
-3.96825
-2.47297
3.92055
-0.491417
-3.71096
3.71585
0.0500593
3.83076
4.75341
4.262
-3.88651
-1.93308
-3.83118
3.83056
2.04755
3.89368
6.77045
2.2164
6.77308
-6.47548
-2.57727
-6.61042
9.07295
-8.67085
2.89804
-2.84574
5.34042
2.65834
-5.14692
-2.79561
6.1972
-3.17606
-3.02114
-12.2052
10.553
1.65223
-4.82774
-0.402554
-0.186423
-5.49749
-3.76989
5.38263
0.539121
11.0921
7.32222
-5.51213
5.76177
6.16642
6.22386
-0.174426
5.83306
-5.15949
5.32768
-2.48266
-2.84502
5.33735
-5.50878
-1.27307
-5.38963
4.11656
0.352229
1.69014
-1.44228
-1.93661
-0.545749
-1.87411
1.45713
0.969188
1.58498
0.941379
1.64772
-2.95319
0.563197
2.38999
-2.01181
-1.73795
-3.70507
-1.09663
4.8017
5.64164
2.13181
-5.56378
-0.16767
2.62818
-2.5826
-0.732971
-2.9721
2.18019
-2.91316
-3.68868
-1.914
5.60268
-3.37054
-0.460645
3.31751
0.552596
-3.82595
-2.09489
3.78668
0.330833
-3.12576
6.19047
-3.06471
-5.05884
2.5284
3.55877
4.53895
-4.78988
2.4467
2.34318
-1.23111
4.2357
0.895849
4.3701
-6.81638
4.60464
5.76087
3.17441
-6.08483
0.943554
-5.87282
8.48382
-7.30905
-1.17476
4.08502
4.3988
7.11816
5.48574
-5.70018
12.8183
-1.16719
-6.14187
7.04001
-3.8656
4.79844
-8.66404
-10.2842
4.14231
-9.17289
10.9618
-1.78894
-3.63435
-8.36016
12.8072
-1.20603
-11.6012
8.59322
-4.15747
-4.26391
8.42138
-6.77026
6.76168
-1.94598
-4.81571
-10.1405
-5.72113
10.2316
1.60997
-9.85876
12.2385
-2.65515
4.09528
0.735925
4.12384
3.23141
-5.41062
2.1792
3.53885
-5.48483
2.05454
-7.46516
-6.78591
12.1511
-5.36523
-10.5417
-9.57467
-0.967022
2.53327
9.70527
-9.51107
7.44596
2.06511
3.30806
0.585626
-3.37652
-0.41324
0.248004
4.53387
-4.78188
4.04291
4.20022
3.33084
1.20303
3.84173
2.10854
-3.86799
-0.325382
-4.1548
1.49196
-1.73481
-3.67832
5.17028
-4.06543
0.387106
-2.73944
-3.50765
6.24709
-4.58401
3.03881
3.15166
5.08635
-4.9127
1.40505
-2.39873
-2.51397
2.66038
-4.39519
1.97706
3.19322
4.36105
0.577903
5.94387
6.20727
-8.51722
0.55702
11.2855
-9.57252
2.48454
8.60337
-9.93049
0.355819
-8.72794
0.980756
-5.22112
-5.12204
5.1248
-6.84403
-3.53924
6.16425
0.608833
-6.24659
-0.435461
-6.03295
-2.84827
-6.4757
-3.0522
-6.13361
-8.75238
-1.65162
-7.10076
6.73927
-6.68393
-3.45079
7.41254
1.12239
-7.41412
7.32608
-7.48883
7.16525
0.0949593
3.62089
4.35696
1.88399
-2.38978
4.27377
-5.10833
7.32474
-8.62109
3.51276
4.07441
-6.65168
-4.54669
5.03601
4.03693
5.33842
8.9305
-10.4429
1.51242
-10.7377
12.0589
-1.32124
-16.5154
5.7777
-7.58486
2.57701
0.321028
2.62486
0.603299
2.48712
-3.09042
-2.24244
-2.18247
-2.37551
-3.46186
5.83738
1.15375
-3.46205
2.30829
-3.53625
4.69001
-0.120316
-3.34173
5.30435
-2.81723
5.62538
-3.65657
1.9688
3.37997
5.71724
-2.33728
4.39287
-1.73452
1.8646
-4.20188
-1.59726
-2.96696
5.09802
-3.28014
3.66724
-0.316145
3.98339
-4.07741
0.901354
-0.746571
3.45365
3.70777
4.28745
-3.08442
2.93557
-4.67009
-1.26631
-4.09219
-0.898967
-0.297586
-3.75004
4.04763
6.03269
-6.33028
-5.25836
9.56575
-4.30739
7.71853
-5.40133
-2.3172
-4.2715
-4.39935
3.89389
1.93917
9.65771
0.210443
-5.61178
-4.94904
-3.99641
3.19905
2.12863
-1.90304
3.55527
2.08946
-0.399327
0.526326
1.05865
1.84175
-1.31543
0.248462
1.59329
-1.19382
1.91521
0.712973
-1.952
0.077884
-1.33395
3.51414
1.05604
-2.02523
0.709804
1.03297
-3.51563
4.90127
-2.55074
-2.35054
5.93424
1.15877
-3.7095
4.23086
-3.87864
2.34295
-3.43958
-1.36656
-5.24519
-3.56701
-2.56724
4.87554
-3.27013
5.40195
1.18685
-5.23428
6.42113
-3.62156
1.70757
-3.08882
3.80179
-1.06844
-2.02038
2.86045
2.74223
-2.97698
0.00487772
-0.116524
2.35517
-2.47169
-0.557989
-2.5698
-4.57214
4.90297
-2.10672
4.55342
2.16704
-1.91524
6.46866
1.81067
-3.72591
-3.24817
-3.70882
-1.38273
3.15622
-0.581214
-4.24387
-5.39692
4.15523
0.214873
-6.91405
7.71648
-0.80243
-3.94605
-0.658595
4.74361
-5.95779
0.472966
-3.90325
3.81323
4.70908
4.92395
-11.3858
-0.215378
-6.22828
1.1295
-7.35778
5.5283
-3.57009
7.7124
-10.3706
6.91985
-9.24825
6.53764
-0.820137
6.25084
-4.07164
2.77904
-8.50017
-6.8902
5.41095
-2.70311
6.14687
-3.06312
9.20999
-5.71827
5.17009
4.0399
-0.987855
-4.11417
-5.17559
4.18773
-0.0055006
4.11834
4.97548
-2.86694
4.6501
2.2588
-4.65753
-2.13639
-6.49677
1.83924
-3.3451
-1.91734
3.75658
3.16901
3.75464
1.24262
-3.3414
7.21772
-8.18474
-1.85249
-3.26955
5.16749
-0.979755
3.37624
-6.64579
-1.84488
4.84721
-0.811961
-4.03525
0.831156
-4.3704
1.66739
-6.03779
5.17664
-5.6121
2.21601
-9.80087
-5.19811
-5.14215
-2.2536
-5.23523
-7.6061
5.35249
-1.8284
5.49768
-8.57027
7.75831
-3.48863
8.84112
-5.42828
-1.04742
5.84271
1.32254
10.1637
0.166543
-4.71323
-1.88495
3.94175
-2.0568
1.3141
-3.5835
0.358253
2.48017
3.45408
-6.59673
-0.0549469
-4.76818
-3.92348
7.96041
5.64227
11.675
1.23204
9.15274
-1.19233
10.3848
4.14609
4.38442
-3.02023
4.53266
1.0274
4.54016
-0.858972
2.82778
1.76588
1.7752
0.8074
2.31605
1.39171
3.21741
0.126991
-2.05548
4.63575
-8.63215
-0.976026
-8.06191
1.1149
5.72392
-4.60902
3.09893
-0.970301
1.04212
0.0470166
-1.55544
1.50842
-2.798
-1.95477
-0.361478
-1.64449
2.35429
1.86965
-1.99282
-0.805184
0.354516
-3.92153
3.08506
-3.08019
-0.337956
6.08317
-2.77272
0.301032
-1.06516
-2.26877
-2.81452
2.73664
6.17681
0.29185
3.11211
5.19482
3.09993
0.232996
3.88582
-5.67476
-3.57934
-5.89014
-0.361839
4.38177
1.73904
7.96622
5.77895
4.79919
-1.8466
-10.0313
6.55223
-2.01958
5.23099
-1.19574
-4.84205
5.01329
2.31145
-5.62212
0.0100222
-4.83203
-6.8516
-0.526373
8.28469
-9.63729
8.58987
5.7416
1.35916
-4.41257
-0.729582
4.23874
0.14568
10.5305
-1.12625
-6.8066
7.93285
-4.59767
3.62164
0.820563
2.73471
2.32899
1.35869
-5.44791
-10.0569
-1.95937
-1.55626
-4.3099
0.491797
-2.36145
6.25011
-2.62846
3.93291
5.30438
6.34651
-2.15628
-4.174
6.46366
-2.53076
3.81575
)
;

boundaryField
{
    wall-4
    {
        type            calculated;
        value           uniform 0;
    }
    velocity-inlet-5
    {
        type            calculated;
        value           uniform -3.75095;
    }
    velocity-inlet-6
    {
        type            calculated;
        value           uniform -5.62643;
    }
    pressure-outlet-7
    {
        type            calculated;
        value           nonuniform List<scalar> 8(3.07843 7.59014 4.10592 9.75163 7.67246 5.18014 6.11739 9.01723);
    }
    wall-8
    {
        type            calculated;
        value           uniform 0;
    }
    frontAndBackPlanes
    {
        type            empty;
        value           nonuniform 0();
    }
}


// ************************************************************************* //
