/*--------------------------------*- C++ -*----------------------------------*\
| =========                 |                                                 |
| \\      /  F ield         | OpenFOAM: The Open Source CFD Toolbox           |
|  \\    /   O peration     | Version:  4.0                                   |
|   \\  /    A nd           | Web:      www.OpenFOAM.org                      |
|    \\/     M anipulation  |                                                 |
\*---------------------------------------------------------------------------*/
FoamFile
{
    version     2.0;
    format      ascii;
    class       volVectorField;
    location    "40";
    object      U;
}
// * * * * * * * * * * * * * * * * * * * * * * * * * * * * * * * * * * * * * //

dimensions      [0 1 -1 0 0 0 0];

internalField   nonuniform List<vector> 
918
(
(0.985163 -0.000502275 0)
(0.00501102 2.96625 0)
(-0.000904994 0.810536 0)
(0.979703 0.00214789 0)
(-0.0210161 2.0193 3.04492e-20)
(-0.00704173 2.94879 -2.56811e-18)
(0.825554 1.16533 4.17674e-19)
(0.2795 0.131961 -1.64283e-20)
(0.999909 -0.000281134 0)
(0.0604888 0.812677 0)
(0.018178 0.620751 0)
(0.734828 -0.0149112 0)
(0.0110913 2.93038 0)
(0.00241459 2.79484 0)
(-0.0175265 3.15628 7.56034e-19)
(-0.00682221 1.86766 -1.54786e-20)
(0.345661 0.0352676 1.07669e-18)
(0.190417 1.17591 2.89143e-19)
(0.962772 0.00501839 0)
(0.0033099 0.604067 0)
(0.0623042 0.176743 -7.7811e-19)
(1.00198 -0.00498094 0)
(1.00022 -0.0097914 0)
(0.975727 -0.00644075 0)
(0.585509 -0.0372688 0)
(0.0157239 2.63926 0)
(-0.0149374 2.91004 9.51897e-19)
(-0.000525535 0.885585 0)
(0.0106679 1.09741 0)
(-0.00325692 0.861927 0)
(-0.0193405 2.60523 0)
(-0.00135547 2.08179 -2.42983e-20)
(-0.0146252 1.83493 0)
(-0.0206164 2.9876 -9.26076e-23)
(-0.0166926 3.0053 1.99603e-18)
(0.00210212 3.00019 0)
(0.870718 -0.00939409 0)
(0.403839 0.937552 1.93982e-19)
(0.804371 1.18301 -4.51166e-19)
(0.950156 1.02095 5.01318e-19)
(0.675109 1.27613 -9.67315e-20)
(0.673225 1.26326 5.57121e-19)
(0.319931 0.212111 1.60272e-20)
(0.294195 0.102337 0)
(1.12605 0.548591 0)
(0.285449 0.204024 7.32447e-20)
(0.249443 0.134167 -7.60069e-20)
(0.919769 -0.00745473 0)
(1.00027 0.00015012 0)
(0.99991 0.000333158 0)
(1.00363 -0.00777019 0)
(1.00096 -0.000931825 0)
(1.00017 2.9412e-05 0)
(0.0780012 1.81162 -8.39211e-19)
(0.027641 0.99352 0)
(0.0916611 0.876177 0)
(0.0123877 0.943252 0)
(0.0338894 0.755342 0)
(0.0221391 1.99643 0)
(0.0188918 0.827442 0)
(0.0141072 0.650062 0)
(0.0120826 0.807113 0)
(-0.000597777 0.598584 0)
(0.838209 -0.0157291 0)
(0.84742 0.0286731 0)
(0.767729 -0.00373845 0)
(0.81808 0.0388629 0)
(0.703054 -0.0186807 0)
(0.0146926 3.0004 9.53367e-19)
(0.0115082 3.00797 0)
(0.00612428 3.00279 0)
(0.0135366 2.99733 1.08386e-23)
(0.00798249 2.95848 -1.41694e-18)
(0.0144897 2.98207 0)
(0.0108258 2.90361 0)
(0.0246856 2.93078 2.19977e-24)
(0.00451973 2.82481 0)
(0.0304822 2.91622 0)
(-0.00549501 2.74491 0)
(0.308405 3.5531 0)
(-0.131865 3.63459 0)
(0.139712 3.24671 -7.03576e-19)
(-0.0124947 2.98201 0)
(-0.00531973 2.05063 0)
(-0.0124498 2.13766 1.52657e-20)
(0.00373748 1.89194 -2.38199e-20)
(0.443585 0.143236 -3.7252e-19)
(0.344981 0.0190882 -3.59045e-19)
(0.425801 0.161272 -1.12193e-18)
(0.331374 0.0537257 -7.40383e-19)
(0.22187 0.959583 0)
(0.272689 1.32037 -3.50976e-19)
(0.372735 1.26125 5.88312e-19)
(0.987473 0.00855004 0)
(0.941935 0.00585377 0)
(1.0003 0.000578228 0)
(1.00286 0.0093059 0)
(1.00302 0.00845927 -2.86319e-18)
(0.991913 0.00970076 2.1622e-18)
(-0.0157341 0.801727 0)
(-0.00297613 0.600507 0)
(-0.00899663 0.918429 0)
(-0.00339462 0.802422 0)
(-0.0152703 0.597488 0)
(0.099168 0.180809 2.40521e-19)
(0.156239 0.15756 0)
(0.993539 -0.00838121 0)
(0.954422 -0.0065172 0)
(0.767305 0.0460528 0)
(0.702987 0.0566781 0)
(0.663567 -0.030571 0)
(0.961146 -0.00917884 0)
(0.61923 0.076062 0)
(0.445873 -0.0119092 1.5848e-18)
(-0.0369351 2.86315 7.22393e-19)
(0.0419903 2.90916 0)
(0.0542931 2.88517 0)
(-0.00459083 2.69928 0)
(-0.0132726 2.98522 9.04065e-19)
(-0.0179825 2.8952 0)
(-0.01537 2.9881 -2.7975e-18)
(-0.0133721 2.92519 9.56641e-19)
(0.0400321 1.32714 0)
(0.0608186 1.38174 0)
(-0.00334413 2.10859 7.77031e-23)
(-0.00231793 2.06892 0)
(-0.0203948 1.84094 0)
(0.937996 -0.0076831 0)
(0.856373 -0.00962315 0)
(0.863387 0.00629283 0)
(0.949191 -0.00803144 0)
(0.883667 -0.00812876 0)
(0.516118 1.13141 -2.44263e-19)
(0.565646 1.18323 0)
(0.36755 0.881383 3.55986e-20)
(0.309763 0.740351 0)
(0.909956 1.05985 -1.3596e-19)
(1.01932 0.861749 2.69402e-19)
(0.366665 1.37128 0)
(0.530671 1.33874 0)
(0.543521 1.29247 0)
(0.115467 0.180103 -3.0911e-19)
(0.353429 0.2033 0)
(0.318796 0.0954569 2.0949e-19)
(0.990114 0.917387 0)
(1.05461 0.766637 0)
(1.07888 0.706867 -1.99514e-19)
(1.10712 0.60934 0)
(1.15475 0.393561 5.45176e-20)
(0.957517 -0.00881473 0)
(0.962393 -0.0101102 0)
(0.901503 -0.00800283 0)
(0.984172 -0.00917528 0)
(0.97465 -0.00938242 0)
(0.937059 -0.0063578 0)
(1.00019 0.002337 0)
(1.0009 0.00140072 0)
(0.999911 0.000855223 0)
(0.0345848 2.06512 4.62474e-19)
(0.121484 1.75448 0)
(0.0158242 2.1813 7.24573e-19)
(0.0517561 1.8658 -6.13719e-19)
(0.106331 1.18217 -2.36174e-19)
(0.0468007 1.06821 0)
(0.141547 1.02827 0)
(0.00689244 0.89662 0)
(0.0185378 0.709734 0)
(-0.00500186 2.23256 -1.3301e-21)
(0.0272369 2.00147 0)
(-0.00713786 2.23411 -6.25795e-20)
(0.0258093 1.99889 1.14283e-19)
(0.00384504 0.870761 0)
(0.0112624 0.850001 0)
(0.0117497 0.674435 0)
(-0.00436376 0.802704 0)
(0.00198685 0.587728 0)
(0.935602 0.00892245 0)
(0.845559 -0.0151745 0)
(0.925573 -0.00022306 0)
(0.840257 -0.0127007 0)
(0.8121 0.00116139 0)
(0.901598 0.0199741 0)
(0.877984 0.0240414 0)
(0.788789 -0.000784945 0)
(0.00583211 3.06492 -8.94755e-21)
(0.0166301 3.05778 0)
(0.0147161 2.96906 0)
(0.00867922 2.87624 0)
(0.925527 3.96958 0)
(1.24026 3.302 9.28801e-19)
(0.0702726 3.07403 0)
(-0.0281982 2.90513 0)
(0.0470751 1.44108 0)
(0.00234098 1.77053 0)
(0.0377815 1.62887 0)
(-0.0286622 2.56267 6.05073e-22)
(-0.0162873 2.2557 0)
(-0.0239183 2.40593 0)
(0.017353 1.92504 -2.55946e-21)
(-0.00497155 2.21414 2.76389e-20)
(-0.0142032 2.17444 2.42709e-20)
(0.00572785 1.90229 0)
(0.471157 0.120358 5.59291e-19)
(0.370612 0.0050108 -5.49335e-19)
(0.259918 1.575 0)
(0.269857 0.734484 -3.22095e-19)
(0.177628 1.66049 -1.08166e-18)
(0.227267 1.20135 1.08434e-18)
(0.902229 0.00650819 0)
(0.967498 0.0110454 0)
(0.974622 0.0107869 0)
(0.923437 0.00650148 0)
(-0.01002 0.791348 0)
(-0.010642 0.793549 0)
(-0.0121926 0.595542 0)
(0.245987 0.199714 6.75306e-19)
(0.205482 0.187495 -8.00164e-19)
(0.211102 0.146025 0)
(1.08362 0.0814886 3.04771e-20)
(1.06644 0.0364774 0)
(1.00338 0.0381535 0)
(0.899587 -0.00739232 0)
(0.501621 0.0998374 0)
(0.544376 0.0834767 -2.53428e-18)
(0.401615 0.00133833 9.49223e-19)
(0.00912967 2.98151 7.68998e-19)
(-0.03218 2.86639 4.82886e-20)
(0.00363222 3.05024 -1.89018e-20)
(0.0201511 3.04339 6.7172e-19)
(-0.015016 2.99657 3.13736e-20)
(-0.0129399 2.94944 -1.26199e-22)
(-0.0172632 3.01197 -5.79114e-19)
(0.0148216 3.02394 4.1905e-19)
(0.00734107 3.03678 -6.64865e-19)
(0.932669 -0.0017649 0)
(0.93858 -0.0036364 0)
(0.844407 -0.00923614 0)
(0.956716 0.0117361 0)
(0.943019 0.0129966 0)
(0.881755 0.00606973 0)
(0.918052 0.0164223 0)
(0.926506 0.0146834 0)
(0.838633 0.00370972 0)
(0.719801 1.41063 2.48866e-20)
(0.7535 1.51993 0)
(0.186832 0.324232 7.39545e-20)
(0.218492 0.657437 5.97831e-19)
(0.259296 0.71839 -3.47764e-19)
(0.265039 0.533121 6.91693e-19)
(0.336523 0.789164 1.62425e-18)
(0.133678 0.221245 3.81056e-19)
(0.399815 0.180929 7.85669e-19)
(0.379955 0.195656 2.04657e-19)
(0.32909 0.0758812 3.9075e-19)
(1.14584 0.451932 1.93645e-20)
(1.16326 0.248103 1.36842e-20)
(0.00677989 2.22985 2.85954e-19)
(0.0477257 1.93334 0)
(0.964403 0.0282998 0)
(0.93878 0.0131199 0)
(0.863099 -0.0186 0)
(0.0111705 3.07426 0)
(0.0197433 2.94417 1.23791e-18)
(0.0164512 2.9563 0)
(0.00636598 2.85058 -1.22775e-18)
(0.0063369 3.09169 3.01094e-19)
(0.00719213 3.08252 0)
(0.786697 1.82273 -1.5623e-19)
(1.24803 2.50103 3.96109e-19)
(0.768898 1.96256 -1.22762e-18)
(0.0200541 2.98141 -6.68339e-19)
(0.035879 3.00147 0)
(-0.0339166 2.87812 0)
(-0.00774044 2.20909 -1.37443e-20)
(-0.00426473 2.2322 -5.24848e-20)
(0.020535 1.958 -1.05231e-20)
(0.275592 1.38246 1.04845e-18)
(0.228251 0.522309 -7.19027e-19)
(0.062922 1.98865 7.98697e-19)
(0.136073 1.8766 -9.45444e-19)
(0.180574 1.49519 9.18976e-20)
(0.00454101 3.11793 -1.784e-18)
(0.0157821 3.11822 1.91495e-18)
(-0.00910067 2.98066 8.37191e-19)
(-0.00333688 2.9773 -7.96156e-19)
(-0.0214711 2.88146 -8.52656e-19)
(0.00866138 3.09862 -2.24099e-18)
(0.00187287 3.10681 2.19981e-18)
(0.27358 0.68093 0)
(0.237867 0.671236 -1.23162e-18)
(0.0955031 0.222154 5.45989e-19)
(0.350806 0.915095 1.13173e-18)
(0.189088 0.266122 -1.74507e-18)
(1.16331 0.168243 7.89246e-20)
(1.16535 0.301936 0)
(1.15103 0.117207 -2.57428e-20)
(-0.00270115 2.24695 -1.98398e-21)
(0.0011802 2.23797 0)
(0.0337481 1.96873 0)
(0.33965 1.29082 -3.77446e-19)
(0.368887 1.12733 -8.15126e-19)
(0.202598 0.364762 1.45227e-18)
(1.00587 -0.0108605 0)
(1.00766 -0.00765367 5.28537e-19)
(0.0339599 1.30332 0)
(0.00366907 1.25748 0)
(1.00221 0.0035047 1.80197e-21)
(1.00366 0.00945174 1.07852e-18)
(-0.0221437 2.5462 -7.66284e-22)
(-0.0278933 2.58701 0)
(0.0360964 3.17874 4.50564e-19)
(0.395297 3.49165 0)
(1.15022 0.6493 -7.74043e-20)
(1.01294 0.0130515 -2.15054e-21)
(1.02127 -0.0104073 0)
(1.00169 0.00010721 7.4369e-23)
(0.100481 1.35686 0)
(0.14698 2.5761 0)
(0.0281302 1.2915 0)
(0.00210494 2.63172 6.26727e-20)
(-0.0235865 2.5892 3.08209e-20)
(1.00151 0.0286034 2.44052e-21)
(1.06148 0.00336199 0)
(1.09433 0.0226849 0)
(-0.000724576 1.79584 0)
(-0.027661 2.58854 0)
(0.00588673 1.28261 0)
(0.293381 1.47023 -1.39863e-19)
(1.01126 -0.00965602 0)
(1.00939 -0.0149361 0)
(1.00236 0.000722681 6.75275e-19)
(1.00548 -0.00482401 -7.938e-19)
(1.00119 -0.000992543 0)
(0.0124763 1.51427 0)
(0.0323579 1.38317 0)
(0.0382674 1.46674 0)
(0.0153357 1.27043 0)
(0.0149071 1.22434 0)
(0.0118369 1.20426 0)
(1.03455 -0.00643379 0)
(1.02052 0.0156962 -9.13721e-22)
(0.798085 1.26529 2.29228e-19)
(1.00224 0.000273342 -6.73074e-19)
(1.00406 0.00524839 7.8738e-19)
(1.00117 0.00206145 0)
(1.01281 0.0102685 6.69698e-19)
(1.00802 0.00829222 -8.10894e-19)
(1.00857 0.0146805 0)
(-0.0297227 2.61634 0)
(-0.0297067 2.59615 -6.60442e-21)
(-0.030104 2.60918 6.11259e-21)
(1.22596 0.254686 6.59275e-19)
(1.15598 0.0833519 0)
(0.0440266 3.07763 -9.83085e-19)
(0.0656104 2.85406 -7.14884e-20)
(0.142423 3.19323 1.49851e-18)
(0.137418 3.22204 -2.2553e-19)
(0.135846 3.2345 0)
(0.0196568 3.13747 2.55337e-19)
(0.0765472 3.16064 9.70355e-19)
(0.0693905 3.18643 -4.80863e-19)
(0.0224008 3.12972 0)
(0.643814 0.291205 0)
(0.567858 0.343694 0)
(1.11658 0.684899 1.93001e-19)
(1.11236 0.812672 -1.96437e-19)
(1.17857 0.569051 0)
(1.20935 0.504951 0)
(1.01615 0.0132869 -1.24869e-18)
(1.01498 0.0142563 1.56745e-18)
(1.02521 -0.00992487 0)
(1.02327 -0.0119244 0)
(1.00644 0.00255324 0)
(1.01043 0.00369193 0)
(1.00462 0.00181312 0)
(1.00977 0.00616042 0)
(1.00785 0.00596153 0)
(1.00451 0.00466351 0)
(0.0884835 1.3532 0)
(0.0835869 1.32647 0)
(0.121657 1.39112 0)
(0.134385 1.4014 0)
(0.146942 2.60031 0)
(0.186992 2.66725 -4.51966e-19)
(0.102201 2.65766 0)
(0.0877446 2.66147 2.25213e-19)
(0.0412643 2.68475 -1.97829e-19)
(0.0275595 1.312 0)
(0.0174818 1.24544 0)
(0.0255923 1.3221 0)
(0.0270718 1.26223 0)
(0.0030128 1.98404 -2.52404e-20)
(-0.022055 2.61715 1.51905e-20)
(-0.00962031 2.67471 5.19748e-20)
(-0.0185247 2.69158 0)
(-0.025529 2.62337 -7.00209e-20)
(-0.0249792 2.61781 -3.04754e-20)
(0.0123328 1.98363 2.14733e-20)
(-0.011573 2.40941 -2.0383e-20)
(-0.0149996 2.42866 -5.89338e-20)
(1.01123 0.0365231 1.27233e-18)
(1.00729 0.0162878 -1.57106e-18)
(1.00268 0.0428928 -1.27282e-18)
(0.981274 0.0222315 1.62163e-18)
(1.0628 0.00721152 0)
(1.04835 -0.00876115 0)
(1.09173 0.0325718 0)
(1.0725 0.0115527 0)
(1.0703 -0.000794773 0)
(1.13689 0.079307 0)
(1.10846 0.0419662 0)
(1.11142 0.0300668 0)
(-0.0197131 2.44193 -3.07691e-21)
(-0.0172299 2.01718 0)
(-0.0137454 2.22822 0)
(-0.0275682 2.61001 5.54201e-21)
(-0.023564 2.61898 -5.5668e-22)
(-0.00384482 1.57767 1.34081e-20)
(0.0130474 1.53477 -1.35165e-20)
(0.00843008 1.38965 0)
(0.018581 1.403 0)
(0.0200476 1.40073 0)
(-0.00669111 1.28882 0)
(0.00621133 1.21574 0)
(0.378739 1.48523 2.20748e-19)
(0.41765 1.48984 1.27288e-19)
(0.596553 2.44668 -2.44896e-19)
(0.402181 2.54165 7.24124e-19)
(0.351434 2.06563 8.12477e-20)
(1.02096 -0.00820861 0)
(1.01545 -0.00980075 0)
(1.01489 -0.0155306 0)
(1.00745 -0.00119578 0)
(1.00492 -0.000961272 0)
(1.00776 -0.00476564 0)
(1.00924 -0.00371747 0)
(1.01416 -0.00448729 0)
(1.02124 0.0160569 1.2228e-18)
(1.01804 0.0157311 -1.56739e-18)
(1.02168 0.0180005 -1.23136e-18)
(1.01958 0.0166929 1.54213e-18)
(0.764828 1.31424 0)
(0.70031 1.36676 2.0996e-19)
(0.874116 1.21064 6.52843e-20)
(0.916976 1.16311 -8.6826e-20)
(1.15672 2.60886 3.26282e-19)
(0.805281 0.109106 6.19648e-19)
(1.15891 0.103335 0)
(1.2042 0.185481 -5.29586e-19)
(1.1877 0.149184 -2.23906e-20)
(1.00382 0.14585 0)
(0.136426 2.96086 5.78816e-19)
(0.113632 2.86671 -1.24534e-18)
(0.023915 2.3725 8.40276e-19)
(0.0911728 -0.0218566 -3.76387e-19)
(0.340265 3.42077 -1.94519e-19)
(0.194857 3.31324 0)
(0.23751 3.35536 2.53329e-19)
(0.245681 3.03424 -1.89603e-18)
(0.340097 3.19344 0)
(0.00587895 3.12101 4.93353e-20)
(0.0166481 3.12962 -5.78696e-19)
(0.0145011 3.12568 8.51729e-19)
(0.0352632 3.13996 0)
(0.0336778 3.15061 0)
(1.21593 2.60814 0)
(0.539856 0.836056 -5.50114e-19)
(1.03831 0.987989 2.12263e-20)
(0.975021 1.06439 0)
(0.826659 0.967251 -1.25446e-19)
(1.06246 0.879609 2.87087e-20)
(0.365255 0.393121 -9.69163e-19)
(0.688659 0.318155 -2.17281e-20)
(0.651572 0.23231 4.44318e-19)
(0.587375 0.37415 3.28581e-20)
(0.502116 0.341707 -1.32333e-18)
(0.660157 0.334951 0)
(0.703739 0.419925 7.54343e-19)
(0.711756 0.420045 0)
(0.622505 0.364187 0)
(0.590652 0.287076 0)
(0.80181 0.615182 4.48083e-19)
(1.22522 0.276922 -5.57245e-19)
(1.22131 0.412724 0)
(1.23171 0.353882 0)
(0.738501 0.186497 6.59269e-19)
(0.849044 0.535435 -4.11188e-19)
(0.746462 0.507479 7.28515e-19)
(0.950814 0.423573 -8.03119e-19)
(1.01969 0.0147166 8.40676e-19)
(1.01784 0.0142132 -8.45594e-19)
(1.01594 0.0155677 0)
(1.03596 -0.00596888 0)
(1.0296 -0.00861183 -7.92868e-19)
(1.02756 -0.0121534 7.85063e-19)
(1.02504 0.00984401 0)
(1.02364 0.0134876 0)
(1.01142 0.00406736 0)
(1.01428 0.00900834 0)
(1.01512 0.00394166 0)
(1.01423 0.00275982 0)
(0.0588499 1.33788 0)
(0.0632011 1.29636 0)
(0.144563 1.36545 -2.51654e-20)
(0.269306 1.46708 7.05897e-20)
(0.162492 1.43868 1.46063e-19)
(0.193126 1.44604 -2.39627e-19)
(0.165624 1.38855 0)
(0.132139 1.59277 -1.07182e-19)
(0.116643 1.56479 0)
(0.349863 2.01848 -1.18101e-19)
(0.346263 2.35014 6.5545e-19)
(0.18738 1.44968 9.34641e-20)
(0.261806 1.38118 9.26666e-21)
(0.197773 1.36922 -7.50372e-21)
(0.273093 1.32317 -1.33815e-19)
(0.240906 1.57639 0)
(0.261843 1.61632 1.36648e-19)
(0.0349724 2.26703 -4.50835e-20)
(0.0434126 2.67399 0)
(0.0676199 2.40472 1.69985e-19)
(0.0626666 2.42621 0)
(0.071115 2.67472 -2.49373e-19)
(0.0511475 2.7036 0)
(0.0307032 1.40465 -6.8215e-21)
(0.0381926 1.45758 0)
(0.032155 1.37507 0)
(0.0276316 1.37563 7.70591e-21)
(0.000721392 2.65966 -1.84785e-20)
(0.0298371 2.70329 2.27549e-19)
(0.0118178 2.72897 1.58169e-21)
(0.00375512 1.83194 2.29111e-20)
(-0.00305763 1.67661 1.00444e-20)
(0.0282178 1.29237 0)
(0.0196164 1.22466 0)
(0.0501106 1.56874 2.16521e-20)
(0.0309058 1.44183 1.67251e-20)
(0.0397751 1.50724 -2.05688e-20)
(0.0417533 1.59323 0)
(-0.0328229 2.28593 3.09701e-20)
(-0.039285 2.55849 -1.40238e-20)
(-0.0156109 2.45759 -4.71684e-21)
(-0.00659151 1.85044 -2.77858e-20)
(-0.0282883 2.50857 -1.04076e-20)
(-0.0240082 2.45203 4.76044e-20)
(1.01966 0.0207518 -8.35838e-19)
(1.01587 0.026304 8.39039e-19)
(1.01504 0.0162642 0)
(1.01142 0.068377 1.17931e-18)
(0.990943 0.0570498 -1.32183e-18)
(0.951282 0.0420637 1.47931e-18)
(1.01405 0.105189 -1.57305e-19)
(1.0422 -0.00601874 0)
(1.05029 -0.00186741 7.57876e-19)
(1.03856 -0.0100377 -7.59148e-19)
(1.06948 0.0407231 -4.52241e-20)
(1.06322 0.0224226 3.88918e-19)
(1.06311 0.0536968 0)
(1.05163 0.0483147 -1.39822e-19)
(1.03285 0.0409914 0)
(1.02605 0.0369848 0)
(1.02784 0.0128108 0)
(1.02428 0.0156375 0)
(1.03982 0.0309267 2.87776e-19)
(1.03932 0.0260433 -6.35126e-19)
(1.0503 0.0323854 -3.0526e-19)
(1.04866 0.0321626 -3.35881e-19)
(1.06993 0.0627362 6.58369e-19)
(1.09428 0.0501797 0)
(1.1022 0.0934737 0)
(-0.0315767 2.28969 1.49912e-20)
(-0.0216042 2.0263 -4.12986e-21)
(-0.023715 2.02886 0)
(-0.0295069 2.454 -1.49198e-20)
(-0.0170185 2.41046 7.09757e-21)
(-0.0352674 2.48816 8.93859e-22)
(-0.0230181 2.62897 2.55451e-20)
(-0.0303082 2.57064 -2.78004e-21)
(-0.024243 2.52394 9.19119e-21)
(-0.0212601 2.62254 -1.14661e-20)
(-0.0256122 2.62419 1.53706e-20)
(-0.0145051 1.48538 -2.05006e-22)
(0.00496488 1.61928 1.46569e-20)
(0.36664 1.42706 -8.73253e-20)
(0.364969 1.36896 6.62372e-20)
(0.646201 1.41446 -2.02973e-19)
(0.515209 1.48008 -1.23926e-19)
(0.568499 1.45061 0)
(0.592258 2.4225 2.17266e-19)
(0.659951 2.41525 3.45336e-19)
(0.410676 2.51566 8.41187e-20)
(0.403929 2.5433 -6.56273e-19)
(0.511857 2.48828 6.4015e-19)
(0.551698 2.46042 0)
(0.488782 2.5158 -5.77058e-19)
(0.248982 2.59104 1.20988e-18)
(0.353807 2.56418 -8.17942e-20)
(0.2848 2.65279 -1.65783e-18)
(0.943846 2.37962 7.46233e-19)
(0.835943 2.38176 0)
(1.01097 0.000408701 2.74095e-20)
(1.01523 -0.00550494 -2.22532e-20)
(1.01763 -0.00364127 -4.06575e-19)
(1.0149 -0.000967443 4.08384e-19)
(1.01232 0.00103086 0)
(0.634108 1.28217 0)
(0.653141 1.18012 0)
(0.758426 1.08914 0)
(0.645874 1.14358 0)
(1.18628 2.62334 5.84826e-20)
(1.07419 2.36787 0)
(0.838362 2.18987 4.04456e-21)
(0.825195 2.4486 0)
(0.922254 2.53989 -4.47429e-19)
(0.957519 2.49596 2.97832e-19)
(0.815417 0.163217 0)
(0.780465 0.134959 1.69117e-19)
(0.924316 0.140443 9.83731e-19)
(0.839974 0.14193 -3.6798e-19)
(0.813086 0.0814324 -1.1316e-18)
(1.0769 0.226651 -9.58575e-19)
(0.995292 0.28465 -1.54463e-20)
(0.924844 0.283763 9.13862e-19)
(1.00268 0.216236 7.6461e-19)
(0.953307 0.184186 -1.30965e-18)
(0.91748 0.186375 1.63738e-19)
(0.952338 0.247142 -3.5125e-19)
(0.93083 0.210181 0)
(0.992252 0.180088 6.46337e-19)
(1.04277 0.180581 0)
(1.04125 0.206571 0)
(1.10625 0.11521 3.07483e-19)
(1.06679 0.169186 -1.40955e-20)
(1.07156 0.227883 -1.67943e-19)
(1.10343 0.196321 0)
(1.02278 0.0442912 6.48262e-19)
(1.04109 0.0569467 8.09695e-19)
(1.03431 0.0430187 -6.43177e-19)
(1.04245 0.063407 -5.42585e-19)
(1.0192 0.0711306 -8.29367e-19)
(0.987929 0.152625 0)
(0.998466 0.101426 0)
(0.967512 0.0645988 -5.26846e-19)
(0.91746 0.0875377 2.06936e-19)
(1.03766 0.101256 7.50351e-19)
(1.06754 0.118542 -8.87397e-19)
(1.07034 0.149904 7.92018e-19)
(1.02914 0.139331 0)
(1.07351 0.106423 0)
(1.05454 0.0878886 -3.61524e-19)
(1.04432 0.0934127 -6.14141e-19)
(0.579019 1.07591 1.49144e-19)
(0.613039 1.4118 -5.08037e-20)
(1.15699 2.74137 -2.40442e-19)
(1.22377 3.08203 4.12958e-21)
(1.24903 2.72274 -1.6245e-19)
(1.27924 2.70656 -1.65688e-20)
(1.20716 2.34625 -1.01146e-20)
(1.2109 2.98601 -1.03978e-19)
(1.23013 2.95122 2.5143e-19)
(1.21488 3.23548 -1.39315e-19)
(1.37576 2.96726 1.9268e-19)
(1.3664 2.88529 0)
(0.544726 0.844005 -5.15127e-20)
(0.13651 1.2543 5.89045e-19)
(0.533148 0.447797 6.25964e-19)
(0.371264 0.199294 6.90787e-19)
(0.526707 0.375568 7.47162e-19)
(0.546436 0.473002 -1.20026e-18)
(0.547615 0.474354 9.80077e-19)
(0.495927 0.396611 -3.77861e-19)
(0.417491 0.328701 8.5664e-19)
(0.742287 0.247176 -3.77273e-19)
(0.708347 0.277688 0)
(0.688767 0.200956 9.28993e-21)
(0.730724 0.509631 3.96967e-19)
(0.702249 0.481113 -1.44727e-18)
(0.615164 0.468873 1.53079e-20)
(0.625484 0.458927 0)
(0.675947 0.73086 4.17469e-19)
(0.828015 0.77278 4.30098e-19)
(0.751921 0.854106 -5.02233e-19)
(0.870408 0.806895 -1.72393e-19)
(0.901738 0.850931 -4.39803e-20)
(0.90956 0.851358 4.50332e-20)
(0.844422 0.644604 -7.43828e-19)
(0.922668 0.702867 1.60175e-19)
(0.977865 0.71701 0)
(0.969027 0.692858 -2.20471e-19)
(1.02356 0.32137 2.32313e-19)
(1.14034 0.291007 3.23394e-19)
(1.06414 0.261179 3.92079e-19)
(1.01169 0.355168 -4.66234e-19)
(1.05526 0.41997 0)
(1.1074 0.404075 0)
(0.914344 0.3529 6.32169e-21)
(0.841393 0.285074 0)
(0.875092 0.279707 4.29529e-19)
(0.907232 0.289382 -4.49056e-21)
(0.94367 0.426388 2.24057e-18)
(0.900615 0.487196 5.79692e-19)
(0.904225 0.450241 -6.13953e-19)
(0.822001 0.433571 6.57722e-19)
(0.804885 0.428851 3.93993e-19)
(0.775468 0.413701 -3.87177e-19)
(1.0273 -0.000489303 6.77442e-19)
(1.02002 -0.000136284 0)
(1.01849 0.000791721 4.41337e-19)
(1.0215 -0.00189494 -9.99802e-19)
(1.02228 0.00424997 4.85855e-19)
(1.02043 0.0110976 -1.01755e-18)
(1.0214 0.0104958 0)
(1.0207 0.0107666 -2.11976e-19)
(1.016 0.00761924 5.31795e-19)
(1.01674 0.0103869 -2.65323e-19)
(1.01744 0.00972922 1.95424e-19)
(0.0320306 1.3123 0)
(0.0348104 1.34731 0)
(0.0416687 1.31551 0)
(0.0408081 1.27362 0)
(0.0705997 1.37513 2.75e-20)
(0.0766022 1.3481 -1.48178e-21)
(0.112484 1.50488 -3.25071e-20)
(0.0939457 1.35566 1.22394e-20)
(0.0349212 1.44654 -4.26005e-20)
(0.0385208 1.43915 3.32827e-20)
(0.0618795 1.3591 -8.04071e-21)
(0.0547589 1.36069 -6.10632e-21)
(0.0462194 1.33672 -1.13009e-21)
(0.0396631 1.35768 -4.17826e-21)
(0.10906 2.37474 -1.87975e-19)
(0.0975785 2.4214 0)
(0.173017 2.04971 1.22334e-19)
(0.112519 1.71117 5.53592e-20)
(0.231098 2.04475 -1.0043e-19)
(0.206538 2.43801 0)
(0.266488 2.38926 -6.39374e-19)
(0.304889 2.38716 4.53552e-19)
(0.232413 2.00475 -2.78909e-19)
(0.155747 2.16622 1.83313e-19)
(0.145648 2.27848 0)
(0.0207542 1.87325 -4.8854e-20)
(-0.00126927 2.40344 -1.02328e-19)
(0.00567518 2.15529 0)
(0.0134033 2.46309 -1.40407e-20)
(0.0276242 2.30709 3.61536e-20)
(0.0225744 1.39018 5.12227e-22)
(0.0180368 1.37581 -5.20606e-21)
(0.0187352 1.37966 -1.77038e-21)
(0.0246114 1.37776 5.28268e-21)
(0.0296573 1.40876 0)
(0.0146719 1.36157 0)
(0.00112176 1.27943 1.99034e-21)
(0.00941986 1.34866 -1.70248e-21)
(0.0135819 1.35153 0)
(0.010377 1.28119 -1.57277e-21)
(0.00838591 1.20614 1.3907e-21)
(1.04021 0.0110538 0)
(1.04626 0.00735299 -7.10722e-20)
(1.0386 0.020596 -5.12157e-19)
(1.04799 0.0195705 0)
(1.05158 0.0193607 0)
(1.03634 0.011039 -6.63729e-21)
(1.03094 0.0109431 8.21987e-19)
(1.03188 0.0159047 9.96831e-19)
(1.02589 0.0199257 0)
(1.02315 0.0203179 0)
(1.03522 0.0242662 5.1094e-19)
(1.02629 0.025692 0)
(1.02453 0.0257865 0)
(-0.0288077 2.02754 0)
(0.00613298 1.64759 -5.78633e-21)
(-0.00408232 1.76201 -1.9328e-20)
(0.00131343 1.36201 0)
(-0.0108942 1.55409 8.62728e-21)
(-0.00147505 1.4482 -5.82946e-21)
(0.00156719 1.37149 0)
(0.389526 1.66898 0)
(0.36689 1.29765 -1.22203e-19)
(0.30228 1.34195 0)
(0.421729 1.29519 7.10372e-20)
(0.466807 1.45539 0)
(0.447829 1.401 -4.10103e-21)
(1.03545 2.68714 -1.59193e-20)
(0.965218 2.41036 -9.37981e-19)
(0.915178 2.19097 1.07035e-18)
(0.84944 2.37412 2.48611e-19)
(0.846992 2.49767 0)
(0.916975 2.4942 0)
(0.927201 2.37281 0)
(0.905925 2.35908 -9.65687e-19)
(0.688551 2.46577 -4.18037e-19)
(0.800877 2.45605 -1.02455e-19)
(0.811443 2.43005 7.81141e-20)
(0.694323 2.3902 0)
(0.799025 2.38598 0)
(0.757763 2.39828 -3.75931e-19)
(0.768929 2.48724 0)
(0.61326 1.09893 0)
(0.484253 0.927721 -5.22662e-19)
(0.552005 0.962175 -3.32367e-20)
(0.520256 1.05526 0)
(0.521363 1.00527 7.84882e-19)
(0.775172 0.879547 -1.42296e-19)
(0.783772 1.01596 0)
(0.757945 0.975658 2.08935e-19)
(0.644034 1.03497 0)
(0.648877 0.943102 0)
(1.16471 2.76294 -2.45727e-19)
(1.14243 2.82652 -1.07165e-19)
(0.932078 2.34701 1.16544e-19)
(0.899783 2.32473 -8.8646e-20)
(1.12951 2.73581 0)
(1.08281 2.70591 1.06713e-19)
(1.08942 2.48756 -3.29389e-19)
(0.983137 2.2353 -3.04806e-20)
(0.495658 1.35368 0)
(0.509169 1.07456 -1.31532e-19)
(0.562791 1.16527 0)
(0.85934 0.222339 0)
(0.787343 0.173427 0)
(0.730241 0.138477 0)
(0.855575 0.226573 -6.76079e-19)
(0.760323 0.21122 3.96143e-19)
(0.932628 0.07432 -4.27401e-19)
(0.947866 0.12039 0)
(0.927384 0.132572 1.83183e-19)
(0.867242 0.108782 7.35057e-19)
(0.8388 0.0664611 -4.59962e-19)
(1.16205 3.36078 -7.1257e-19)
(1.20982 3.2801 0)
(1.16034 3.38876 -1.47062e-18)
(0.647802 3.54953 1.2491e-18)
(0.872747 3.11684 6.02102e-20)
(0.516837 0.850817 6.19587e-19)
(0.432991 0.84552 0)
(0.33807 0.483872 -1.5721e-19)
(0.454293 0.678913 8.92339e-19)
(0.536512 0.452482 -2.16178e-19)
(0.509758 0.507759 2.46908e-19)
(0.663128 0.529362 5.35488e-19)
(0.693874 0.553416 0)
(0.646468 0.609697 0)
(0.603607 0.54901 0)
(0.985489 0.60129 1.09946e-19)
(0.903761 0.536445 -5.63952e-19)
(0.928586 0.571039 4.32144e-19)
(0.964243 0.505764 -4.3652e-19)
(1.06783 0.478473 0)
(1.07557 0.569535 -1.10632e-19)
(0.845656 0.385358 -8.98688e-19)
(0.848843 0.372536 -1.11127e-18)
(0.796153 0.378523 7.00664e-19)
(0.792027 0.349167 -7.16332e-19)
(0.842278 0.306395 -5.59609e-19)
(0.794214 0.304832 6.87126e-19)
(1.02666 0.00562541 -5.19339e-19)
(1.02642 0.00583329 1.0586e-18)
(1.02928 -0.000156928 6.57061e-19)
(1.03332 0.000716442 -7.91534e-19)
(1.03352 0.00842857 0)
(1.03009 0.00899997 -1.28657e-18)
(0.0646489 1.64182 3.02788e-20)
(0.0456672 1.57141 0)
(0.0873904 1.69527 1.89493e-19)
(0.0986614 1.67807 -1.68491e-19)
(0.0870495 1.52295 6.09931e-20)
(0.0857751 1.50416 0)
(0.00969212 1.68167 0)
(-0.000773222 1.48572 -5.40092e-21)
(-0.000971803 1.425 4.85821e-21)
(-0.00716571 1.54399 3.86974e-21)
(-0.00107194 1.88669 -1.1645e-20)
(-0.0186299 1.93759 8.42456e-21)
(0.494799 1.37171 -3.10015e-19)
(0.488958 1.37457 3.39569e-19)
(0.443927 1.29207 -6.2594e-20)
(0.431905 1.29195 9.95563e-21)
(0.625627 1.29891 0)
(0.543903 1.3865 7.14145e-20)
(0.559481 1.39459 -6.95025e-20)
(0.454813 1.27774 6.048e-20)
(0.508739 1.23255 0)
(0.561242 1.19857 0)
(0.654789 2.42435 6.14222e-19)
(0.66957 2.46085 1.31386e-18)
(0.715405 2.47295 -9.05153e-19)
(0.614874 2.4481 -2.11825e-19)
(0.560166 2.54045 2.97159e-19)
(0.510352 2.51383 -7.91216e-19)
(0.97589 2.37985 -5.99278e-19)
(1.01199 2.39371 0)
(0.921608 2.16923 -6.93434e-19)
(1.05298 2.68503 0)
(1.05512 2.67174 0)
(0.612975 2.27494 -1.2582e-19)
(1.04284 3.1636 1.26036e-19)
(0.913882 3.03356 -2.95702e-20)
(0.281103 0.910811 0)
(0.321652 0.770982 -3.27306e-19)
(0.481558 0.727401 -3.30401e-19)
(0.3911 2.02174 0)
(0.467345 2.78542 -4.19133e-20)
(0.424008 2.54924 0)
(0.691306 0.678746 -8.85789e-19)
(0.772953 0.679447 1.21001e-18)
(0.793797 0.62233 -1.19857e-18)
(0.673543 0.64177 -1.14574e-19)
(0.729085 0.595358 -4.75139e-19)
(1.00501 2.76686 -9.58363e-20)
(1.04202 2.82399 -1.80243e-19)
(0.641344 2.15239 6.81602e-19)
(0.597585 1.71644 -4.84614e-19)
(0.700392 1.9089 -4.23081e-19)
(0.99047 2.45016 -1.15672e-19)
(0.995221 2.44436 3.14273e-19)
(0.661942 1.84882 2.92123e-20)
(0.452704 1.33574 1.52942e-19)
)
;

boundaryField
{
    wall-4
    {
        type            noSlip;
    }
    velocity-inlet-5
    {
        type            fixedValue;
        value           uniform (1 0 0);
    }
    velocity-inlet-6
    {
        type            fixedValue;
        value           uniform (0 3 0);
    }
    pressure-outlet-7
    {
        type            zeroGradient;
    }
    wall-8
    {
        type            noSlip;
    }
    frontAndBackPlanes
    {
        type            empty;
    }
}


// ************************************************************************* //
