/*--------------------------------*- C++ -*----------------------------------*\
| =========                 |                                                 |
| \\      /  F ield         | OpenFOAM: The Open Source CFD Toolbox           |
|  \\    /   O peration     | Version:  4.0                                   |
|   \\  /    A nd           | Web:      www.OpenFOAM.org                      |
|    \\/     M anipulation  |                                                 |
\*---------------------------------------------------------------------------*/
FoamFile
{
    version     2.0;
    format      ascii;
    class       surfaceScalarField;
    location    "46";
    object      phi;
}
// * * * * * * * * * * * * * * * * * * * * * * * * * * * * * * * * * * * * * //

dimensions      [0 3 -1 0 0 0 0];

internalField   nonuniform List<scalar> 
1300
(
3.75095
5.62643
-3.22099
3.75095
-7.72839
5.62643
-4.35592
4.35592
-0.728942
0.728942
1.8764
1.87455
-2.84272
2.84272
-2.32021
2.32021
-2.54594
2.54594
-5.24647
5.24647
-5.06917
5.06917
4.66272
-4.66272
-6.27675
6.27675
-1.07289
1.07289
-3.74944
3.74944
3.16972
-3.16972
-2.20028
2.20028
-0.153208
0.153208
-0.5535
4.30445
3.19745
3.19745
-2.01143
2.01143
-4.86621
4.86621
6.21809
-6.21809
5.21798
-5.21798
-1.99698
-2.38486
1.81787
-11.5778
-5.91052
-5.91052
-8.44038
8.44038
-2.81395
2.81248
2.94486
-2.94486
-1.78315
1.78315
-4.29286
-0.0630617
-4.29286
4.35013
0.00579589
4.35013
-0.810622
0.0816803
-0.810622
3.90813
-3.90813
0.613908
0.115034
0.613908
3.06509
-3.06509
-1.8771
3.75351
1.87385
-1.87187
6.17633
-1.87908
3.75363
-5.9916
5.9916
-3.06715
0.224432
-3.06715
2.65893
0.183792
2.65893
-6.82355
6.82355
-2.36922
0.0490064
-2.36922
2.28405
0.0361636
2.28405
2.87427
-2.87427
-2.65195
0.106007
-2.65195
2.43144
0.114504
2.43144
0.353523
5.27291
-5.97995
8.79244
-5.27291
0.0264355
5.20836
0.038111
5.20836
-5.10609
0.0369222
-5.10609
5.01177
0.0574063
5.01177
4.75236
-0.0896433
4.75236
-4.77861
0.115886
-4.77861
-3.39247
-4.06735
-6.43369
0.156936
-6.43369
-1.11254
0.0396458
-1.11254
1.01394
0.0589496
1.01394
-3.65389
3.65389
-4.14131
0.391877
-4.14131
3.12413
0.0455843
3.12413
1.8685
1.88245
5.61945
-5.61945
2.44974
-2.18235
-0.0179321
-2.18235
-2.22937
-2.9886
2.22937
-0.029095
-0.385591
0.232383
-0.385591
3.15935
0.0381055
3.15935
2.27029
0.161149
-2.27029
0.258863
3.25096
-3.25096
1.34871
0.662722
1.34871
-5.56477
5.56477
4.95515
0.0566179
-4.95515
0.0889401
6.15698
0.0611081
6.15698
-6.19956
-0.0185256
-6.19956
2.5999
-4.98476
-2.56657
6.09194
0.184809
-6.09194
0.181423
2.91587
0.0289955
2.91587
-2.92019
2.92019
-2.98385
0.0389895
-2.98385
-2.18316
0.400017
-2.18316
1.48284
0.30031
1.48284
-4.17201
-0.12085
-4.17201
-4.26566
0.124345
4.26566
0.0844667
1.10991
-1.10991
-0.90936
0.098738
-0.90936
-4.02856
-0.143453
4.02856
-0.120432
-3.80855
-0.0995723
-3.80855
-3.02401
0.040157
3.02401
0.0410765
3.11273
0.0466216
-3.11273
0.0476403
-1.87083
3.75328
-1.88012
3.75397
-5.61026
-0.381343
-5.61026
6.30091
-0.309311
6.30091
3.4254
0.324034
-3.4254
0.358255
2.52403
0.134897
2.52403
-6.78573
-0.0378169
-6.78573
6.80758
0.0159665
6.80758
2.4283
0.0957288
-2.4283
0.05908
2.23166
0.0523861
2.23166
2.89187
-0.0175994
2.89187
-2.87037
-0.00389832
-2.87037
2.79773
-2.79773
2.72896
0.0687767
-2.72896
0.0770063
-11.133
11.1145
-0.035226
-11.0978
5.17313
5.17313
4.18255
0.569809
4.18255
-4.99484
0.21623
-4.99484
2.71208
-5.27865
3.06997
-6.46243
4.68671
-16.2645
4.32718
-8.39453
6.67642
-6.67642
6.56555
0.11087
-6.56555
0.131866
-1.19617
0.0836321
-1.19617
-3.04861
-0.605289
-3.04861
4.3015
-0.647606
4.3015
-3.02858
3.02858
-3.07773
0.0491483
3.07773
0.0464054
2.18717
0.0444908
-2.18717
0.00482597
0.499233
0.114674
-0.499233
0.113642
3.45282
-0.201859
3.45282
-3.0597
-0.191262
-3.0597
-1.27568
0.0795071
1.27568
0.073027
-5.81444
0.249665
-5.81444
-11.1908
0.0929511
-11.1526
-6.10661
-6.10661
2.33377
11.1262
-2.88998
0.0196166
2.88998
0.0258826
2.97557
0.0530116
-2.97557
0.0553814
-2.86145
0.0637206
2.86145
0.0587337
-2.55909
0.375933
-2.55909
-1.07408
1.07408
-1.24582
0.17174
1.24582
0.237016
1.37311
-0.263199
1.37311
0.96849
0.0454542
-0.96849
0.0591292
-3.72299
-0.0855627
-3.72299
6.53377
-0.232862
6.53377
-2.95026
-0.109438
2.95026
-0.0583932
-0.0333128
11.1478
-5.13982
0.0337284
5.13982
-11.2089
11.2426
-3.2313
0.672203
3.2313
0.951255
5.28645
0.278323
-5.28645
0.291613
6.75874
0.0488346
-6.75874
0.0823208
-2.55626
-0.492344
-2.55626
-5.028
-0.582254
5.028
-0.726504
-11.4748
-0.204707
11.6795
-11.4174
6.01914
0.137834
-6.01914
11.3805
-1.02097
-0.0889429
1.02097
0.0531109
1.69736
-0.32425
1.69736
3.6355
-0.182681
-3.6355
-0.0874914
-6.68834
-0.0973928
6.68834
-0.154561
-2.1128
-0.443464
2.1128
-0.415436
-4.26704
4.30514
1.90929
-2.43852
-2.54624
-5.42712
1.8519
1.90138
4.30164
-10.2037
-6.06081
-10.0222
7.26387
-6.97226
-9.26041
9.17076
7.77959
-7.87916
-5.78513
5.83154
6.48246
-6.44138
1.87876
1.87474
7.94592
-7.72149
-15.6388
15.2574
7.48697
-7.43796
15.7765
-15.8143
-17.8742
17.923
-5.7048
5.81081
-6.73176
6.72786
-6.95867
6.90028
-2.86365
-3.59878
13.1771
-13.0202
8.47063
-8.48856
-8.55525
8.94713
3.3825
0.92264
3.42913
-1.88225
3.76102
-1.87138
3.78066
2.68305
-5.5467
2.5956
-5.14184
4.24292
4.22771
-4.21383
-1.21329
-5.92202
5.95101
-5.81813
5.87686
9.00892
-9.07198
-1.88512
3.75987
-1.86885
3.77023
-3.42507
-2.36007
3.37948
0.922154
8.11193
5.0652
-8.29674
-1.72551
-7.97877
7.79609
-8.19725
8.00599
-0.437525
5.81833
-5.38081
4.42868
-1.55954
7.37787
5.70433
5.92056
5.86593
-5.5876
1.10633
-6.48714
-6.3982
-2.41177
2.51051
2.35036
-2.23532
6.04508
1.73451
5.92464
-5.7022
-2.17696
-5.78777
3.82093
2.01061
3.87007
4.0776
2.40486
4.11775
3.03066
-3.03573
0.00507646
-3.05645
6.08711
0.724133
-5.41652
-4.49436
4.96224
2.98368
5.14603
-5.50649
-2.215
-5.14824
-9.5516
-6.08716
-10.1339
10.0962
5.16125
9.78686
-11.9682
11.8137
4.78076
2.70621
4.81692
-4.90912
-2.52884
-4.85004
11.6218
-2.61162
-9.01014
-10.3297
-7.54446
10.3138
5.46269
10.9847
6.93834
11.067
4.42887
7.1929
-9.89155
2.3471
-3.86332
-1.84148
-3.78631
3.67578
2.13503
3.79028
-4.2148
-2.51696
-4.19518
-4.29031
-2.66836
4.30791
2.41995
-4.40649
-3.79076
4.51592
2.38435
4.05253
-10.1133
4.342
-7.94078
-9.23037
-3.78982
-9.09851
3.47107
2.6289
-6.09997
-2.07564
8.43077
-4.20306
7.21748
-5.15906
-3.3295
-5.15423
-6.81569
-1.73956
-6.69135
-8.89373
8.40138
-9.19117
8.54356
12.599
-5.67586
-6.92318
-3.96827
-2.47311
3.92063
-0.4915
-3.71086
3.71593
0.0501583
3.83082
4.75346
4.26196
-3.88596
-1.93217
-3.83057
3.82905
2.04781
3.89277
6.77811
2.23081
6.78391
-6.50296
-2.56902
-6.62381
9.06813
-8.66811
2.89184
-2.81233
5.35876
2.64722
-5.1569
-2.82187
6.20449
-3.1966
-3.0079
-12.2014
10.5448
1.65666
-4.82357
-0.394886
-0.241678
-5.4946
-3.76581
5.37871
0.541853
11.0866
7.32082
-5.51195
5.76161
6.16757
6.22419
-0.174011
5.82781
-5.15561
5.3185
-2.52486
-2.79364
5.37973
-5.52318
-1.24408
-5.43822
4.19414
0.401465
1.64183
-1.40945
-1.87382
-0.537944
-1.8147
1.41368
0.936681
1.52835
0.920986
1.58952
-2.9369
0.564121
2.37277
-2.01591
-1.6712
-3.71393
-1.13274
4.84667
5.67892
2.11717
-5.59143
-0.196336
2.60868
-2.54973
-0.723354
-2.99057
2.2053
-2.92866
-3.66373
-1.96955
5.63329
-3.37032
-0.460256
3.31731
0.552767
-3.82641
-2.09561
3.78742
0.330335
-3.1263
6.19049
-3.06419
-5.05848
2.52819
3.55892
4.5388
-4.78972
2.44691
2.34281
-1.2308
4.24355
0.902482
4.37845
-6.8322
4.6172
5.76971
3.17742
-6.09374
0.945505
-5.8867
8.50072
-7.31402
-1.1867
4.11618
4.38454
7.11121
5.48784
-5.70318
12.8144
-1.16189
-6.15213
7.04859
-3.87116
4.79834
-8.6695
-10.2862
4.13404
-9.16623
10.937
-1.77072
-3.62482
-8.34342
12.7911
-1.21057
-11.5805
8.57629
-4.19769
-4.2867
8.48439
-6.80931
6.81554
-1.97077
-4.84478
-10.1096
-5.70471
10.207
1.60672
-9.85681
12.2039
-2.66391
4.09148
0.725445
4.14387
3.26014
-5.43132
2.17118
3.54917
-5.51993
2.07568
-7.507
-6.74127
12.0855
-5.34426
-10.5311
-9.53351
-0.99758
2.54305
9.66085
-9.4814
7.45413
2.02726
3.30626
0.586513
-3.37504
-0.411277
0.237743
4.53712
-4.77486
4.02802
4.18917
3.31995
1.21717
3.84277
2.10824
-3.86865
-0.326526
-4.15767
1.48932
-1.73773
-3.68188
5.17119
-4.06563
0.383759
-2.74103
-3.50436
6.24539
-4.58251
3.03785
3.15264
5.08566
-4.91234
1.40798
-2.39673
-2.51562
2.65765
-4.39538
1.97997
3.19122
4.36433
0.573563
5.87229
6.21323
-8.5012
0.560414
11.2784
-9.55293
2.46331
8.6037
-9.91745
0.383937
-8.71457
1.0094
-5.21246
-5.09057
5.12454
-6.8641
-3.54496
6.17012
0.613785
-6.25459
-0.436757
-6.04291
-2.85082
-6.48637
-3.05035
-6.14081
-8.75353
-1.65528
-7.09825
6.7461
-6.68886
-3.44499
7.41537
1.12819
-7.42069
7.33175
-7.49974
7.17549
0.0950985
3.62084
4.35706
1.88395
-2.39004
4.27399
-5.12
7.35081
-8.67224
3.55224
4.12874
-6.69776
-4.5435
5.03739
4.03074
5.33771
8.9262
-10.418
1.49184
-10.7218
12.0525
-1.33067
-16.4996
5.77777
-7.57342
2.54138
0.350459
2.62501
0.583804
2.49481
-3.07861
-2.22853
-2.1555
-2.40087
-3.46053
5.8614
1.12844
-3.47847
2.35003
-3.55741
4.68585
-0.150074
-3.3284
5.29823
-2.80342
5.64869
-3.70749
1.9412
3.40107
5.72927
-2.3282
4.3886
-1.74138
1.89379
-4.22199
-1.56674
-2.96426
5.09928
-3.28114
3.6649
-0.324418
3.98931
-4.08227
0.885674
-0.762318
3.42686
3.68572
4.2959
-3.07873
2.93399
-4.67537
-1.288
-4.1018
-0.910586
-0.282995
-3.76015
4.04314
6.02565
-6.30865
-5.24939
9.55619
-4.3068
7.71376
-5.39514
-2.31862
-4.26837
-4.39975
3.89244
1.93538
9.64914
0.211608
-5.60674
-4.944
-3.99275
3.17534
2.14316
-1.86421
3.52087
2.10589
-0.464062
0.500889
1.02746
1.82506
-1.32417
0.268343
1.55672
-1.1411
1.86796
0.740721
-1.91342
0.0987217
-1.30305
3.50835
1.06972
-2.0064
0.682234
1.00296
-3.52782
4.96671
-2.62866
-2.33805
5.96967
1.13352
-3.76218
4.3047
-3.90324
2.34305
-3.47579
-1.41913
-5.32237
-3.58786
-2.53592
4.88595
-3.32548
5.44265
1.22222
-5.24631
6.46853
-3.66075
1.69119
-3.08123
3.82195
-1.0251
-2.05612
2.86586
2.76742
-2.99522
0.00464522
-0.129355
2.36911
-2.49846
-0.55955
-2.57546
-4.57248
4.90282
-2.10636
4.55327
2.16762
-1.91565
6.46892
1.8102
-3.72584
-3.24828
-3.70854
-1.38304
3.15577
-0.594224
-4.25582
-5.439
4.16009
0.218359
-6.94961
7.76242
-0.812804
-3.96593
-0.651271
4.76745
-6.0015
0.481571
-3.92583
3.83659
4.73907
4.95743
-11.3779
-0.202541
-6.2167
1.14107
-7.35777
5.52561
-3.57497
7.70901
-10.3676
6.92262
-9.23942
6.52231
-0.835457
6.24266
-4.07148
2.76748
-8.47219
-6.86547
5.44003
-2.73382
6.16548
-3.08665
9.25213
-5.75057
5.2019
4.05023
-0.98149
-4.17274
-5.21752
4.23603
-0.015612
4.12825
4.97713
-2.86888
4.6506
2.26174
-4.65846
-2.13364
-6.4957
1.83724
-3.34306
-1.9182
3.75544
3.16746
3.75397
1.23982
-3.34269
7.15657
-8.15415
-1.81231
-3.27826
5.1955
-0.959469
3.34646
-6.62473
-1.86599
4.84379
-0.800523
-4.04327
0.832074
-4.37703
1.67868
-6.05572
5.18542
-5.62218
2.21847
-9.79189
-5.20223
-5.14911
-2.25728
-5.24245
-7.60387
5.34658
-1.8261
5.50565
-8.56113
7.7606
-3.49139
8.83797
-5.43688
-1.0495
5.85231
1.32317
10.1611
0.189057
-4.73256
-1.90883
3.93824
-2.02941
1.26651
-3.57109
0.367147
2.47667
3.493
-6.67081
-0.0269581
-4.75952
-3.92534
7.95607
5.63085
11.6565
1.23847
9.14434
-1.18827
10.3828
4.14944
4.38645
-3.03106
4.5229
1.01209
4.56432
-0.887103
2.8283
1.73791
1.77756
0.772177
2.30974
1.37598
3.19542
0.116804
-2.0387
4.63071
-8.62346
-0.976037
-8.05365
1.11712
5.71912
-4.602
3.07038
-0.92722
1.04097
0.0109443
-1.48135
1.4704
-2.78269
-1.94541
-0.388693
-1.6558
2.33803
1.85255
-1.94934
-0.83335
0.369352
-3.95721
3.10644
-3.10179
-0.33437
6.13416
-2.78643
0.287968
-1.09523
-2.28749
-2.82544
2.72671
6.17657
0.292348
3.11239
5.19516
3.09955
0.230673
3.90677
-5.67749
-3.60023
-5.88003
-0.354417
4.41304
1.72237
7.93849
5.77259
4.81312
-1.8116
-9.96575
6.56325
-2.04035
5.23258
-1.18932
-4.8664
5.02243
2.32838
-5.63621
0.0140386
-4.85236
-6.89271
-0.521858
8.28246
-9.63928
8.58979
5.73897
1.35928
-4.41607
-0.73305
4.24433
0.142129
10.5249
-1.12547
-6.78288
7.90835
-4.59364
3.61761
0.799998
2.72087
2.2704
1.34318
-5.4397
-10.0417
-1.99471
-1.53311
-4.33276
0.513908
-2.36646
6.24307
-2.62546
3.92445
5.28289
6.32385
-2.14646
-4.16219
6.45326
-2.52881
3.79504
)
;

boundaryField
{
    wall-4
    {
        type            calculated;
        value           uniform 0;
    }
    velocity-inlet-5
    {
        type            calculated;
        value           uniform -3.75095;
    }
    velocity-inlet-6
    {
        type            calculated;
        value           uniform -5.62643;
    }
    pressure-outlet-7
    {
        type            calculated;
        value           nonuniform List<scalar> 8(3.22099 7.72839 4.38184 9.75989 7.45981 5.16647 5.78205 9.0139);
    }
    wall-8
    {
        type            calculated;
        value           uniform 0;
    }
    frontAndBackPlanes
    {
        type            empty;
        value           nonuniform 0();
    }
}


// ************************************************************************* //
