/*--------------------------------*- C++ -*----------------------------------*\
| =========                 |                                                 |
| \\      /  F ield         | OpenFOAM: The Open Source CFD Toolbox           |
|  \\    /   O peration     | Version:  4.0                                   |
|   \\  /    A nd           | Web:      www.OpenFOAM.org                      |
|    \\/     M anipulation  |                                                 |
\*---------------------------------------------------------------------------*/
FoamFile
{
    version     2.0;
    format      ascii;
    class       volScalarField;
    location    "64";
    object      p;
}
// * * * * * * * * * * * * * * * * * * * * * * * * * * * * * * * * * * * * * //

dimensions      [0 2 -2 0 0 0 0];

internalField   nonuniform List<scalar> 
2200
(
0.770982
0.749484
0.733579
0.717915
0.703309
0.690798
0.680454
0.672366
0.666685
0.663761
0.664289
0.668129
0.674481
0.683051
0.693739
0.706518
0.721316
0.737252
0.753299
0.774797
0.703401
0.700143
0.697221
0.693107
0.687651
0.681184
0.674577
0.668639
0.664154
0.661802
0.662303
0.665657
0.670861
0.677342
0.68434
0.6911
0.696766
0.700858
0.703704
0.707069
0.663462
0.663683
0.665745
0.667095
0.667492
0.666648
0.66468
0.66202
0.659499
0.658041
0.658624
0.661104
0.664422
0.667669
0.670017
0.671023
0.670761
0.669769
0.668134
0.667885
0.640963
0.642415
0.645014
0.647471
0.649921
0.65195
0.65312
0.653372
0.65303
0.652776
0.653463
0.654876
0.6561
0.656514
0.655844
0.654178
0.652025
0.649846
0.647239
0.645834
0.626593
0.628566
0.631388
0.634229
0.637097
0.639941
0.642414
0.644295
0.645552
0.646399
0.647181
0.647696
0.647492
0.646415
0.644578
0.642222
0.639678
0.63695
0.634154
0.632232
0.619211
0.62081
0.623018
0.625557
0.628236
0.630921
0.633536
0.635986
0.638041
0.6396
0.64052
0.640592
0.639802
0.638317
0.636449
0.63433
0.63202
0.629684
0.627586
0.626012
0.615753
0.616775
0.618049
0.619924
0.622081
0.624264
0.626483
0.628811
0.631076
0.632974
0.634072
0.634153
0.633429
0.632268
0.630902
0.629365
0.627682
0.626116
0.625007
0.62399
0.613054
0.613723
0.61436
0.615673
0.617302
0.619011
0.620794
0.622757
0.62488
0.626924
0.62824
0.628622
0.628356
0.627777
0.627036
0.626119
0.625086
0.624174
0.623732
0.623055
0.609756
0.6102
0.610602
0.611608
0.612885
0.614291
0.615823
0.617538
0.619451
0.621503
0.623116
0.623979
0.624312
0.624317
0.624078
0.623642
0.62309
0.622576
0.622395
0.62193
0.605643
0.605939
0.606301
0.607179
0.608306
0.609601
0.611067
0.612725
0.614605
0.616726
0.618704
0.620132
0.620989
0.621431
0.621564
0.621469
0.621202
0.620896
0.620778
0.620452
0.600848
0.601048
0.601424
0.602266
0.603378
0.604715
0.606279
0.608074
0.610117
0.612471
0.614875
0.616812
0.618124
0.618923
0.619328
0.619464
0.619386
0.619236
0.619139
0.6189
0.59557
0.595715
0.596089
0.596907
0.598067
0.599523
0.601271
0.603316
0.60569
0.608463
0.611417
0.613877
0.615599
0.616707
0.617358
0.617685
0.617814
0.617808
0.617747
0.617554
0.589853
0.589963
0.590346
0.591175
0.592414
0.594031
0.596021
0.59841
0.601264
0.604627
0.608211
0.611246
0.613404
0.614849
0.61578
0.616353
0.616692
0.616826
0.616809
0.616637
0.583703
0.583769
0.584154
0.585017
0.586374
0.588184
0.590458
0.593247
0.596668
0.600794
0.60517
0.608854
0.611518
0.6134
0.614714
0.615592
0.616176
0.616458
0.616481
0.616317
0.577025
0.577061
0.577489
0.578409
0.579921
0.581958
0.584542
0.587802
0.591885
0.596861
0.602172
0.606695
0.610028
0.612464
0.614244
0.615505
0.616347
0.616782
0.616852
0.616689
0.569741
0.569706
0.570136
0.571149
0.572858
0.57514
0.578085
0.581872
0.586711
0.592694
0.599168
0.604736
0.60894
0.612083
0.614439
0.616139
0.617279
0.61788
0.618001
0.617832
0.561488
0.561481
0.561924
0.563037
0.56501
0.567631
0.571064
0.575533
0.581298
0.588518
0.596335
0.60312
0.60837
0.61234
0.615352
0.617556
0.619039
0.619815
0.619992
0.619812
0.552154
0.552173
0.552631
0.553894
0.556164
0.559226
0.56329
0.568593
0.575448
0.584099
0.593596
0.601908
0.608352
0.613318
0.617092
0.619851
0.621732
0.622696
0.622924
0.622725
0.541311
0.541284
0.541845
0.543327
0.54596
0.5496
0.554481
0.56087
0.569135
0.57957
0.591059
0.601115
0.608985
0.61506
0.619661
0.623101
0.625413
0.626564
0.626842
0.62662
0.528432
0.528365
0.529042
0.530895
0.534103
0.538545
0.544509
0.552315
0.562401
0.575068
0.588855
0.600962
0.610379
0.617674
0.623255
0.627404
0.630194
0.631538
0.631848
0.631596
0.513258
0.513157
0.513929
0.516135
0.520064
0.525581
0.533001
0.542697
0.555123
0.57052
0.587052
0.601363
0.612513
0.62117
0.627808
0.632804
0.636093
0.637609
0.637939
0.637655
0.494688
0.494607
0.49563
0.498428
0.503377
0.510373
0.519784
0.532
0.547427
0.566078
0.585727
0.602554
0.615621
0.625717
0.633531
0.639362
0.643128
0.644801
0.64512
0.644804
0.471846
0.471695
0.47301
0.476623
0.483073
0.492216
0.504356
0.519848
0.538935
0.56148
0.584696
0.604379
0.619496
0.63121
0.640262
0.647003
0.651242
0.653024
0.653294
0.65295
0.442393
0.442424
0.444525
0.449588
0.458331
0.47061
0.486594
0.506402
0.530004
0.557073
0.584291
0.60694
0.62427
0.637672
0.648046
0.655666
0.660255
0.662101
0.662289
0.661922
0.403461
0.403705
0.407261
0.415282
0.428116
0.445401
0.466717
0.491931
0.520858
0.553032
0.584604
0.610489
0.630122
0.645214
0.656816
0.665182
0.669997
0.671764
0.671842
0.67147
0.351779
0.352207
0.359243
0.372536
0.391857
0.41636
0.444711
0.476572
0.511699
0.549575
0.585763
0.614876
0.63678
0.653596
0.666427
0.675363
0.680032
0.681441
0.681365
0.681059
0.283991
0.286755
0.301929
0.323528
0.351764
0.385173
0.42169
0.461048
0.503103
0.547283
0.588591
0.621402
0.646141
0.664982
0.679121
0.688573
0.692953
0.693815
0.693728
0.693525
0.206885
0.21653
0.241893
0.273263
0.311695
0.354272
0.399062
0.446174
0.495507
0.54641
0.593333
0.630561
0.658283
0.679309
0.695014
0.704867
0.708857
0.70922
0.709246
0.709141
0.138196
0.152887
0.184602
0.225023
0.273145
0.324618
0.377528
0.432359
0.488934
0.546613
0.59922
0.64035
0.670874
0.693989
0.710735
0.720767
0.724508
0.724592
0.724716
0.724691
0.085902
0.099229
0.13592
0.182468
0.238027
0.297098
0.357428
0.419568
0.483107
0.547123
0.604926
0.64989
0.683374
0.708294
0.726266
0.736845
0.740323
0.74068
0.740954
0.740926
0.0426117
0.0551959
0.0957599
0.146238
0.207254
0.272304
0.339105
0.407727
0.477469
0.547301
0.610229
0.659219
0.695242
0.722077
0.74137
0.752373
0.756575
0.7573
0.757326
0.757389
0.00579554
0.0185342
0.0617669
0.115103
0.180491
0.250413
0.322637
0.396803
0.472173
0.547857
0.616058
0.668502
0.706846
0.735323
0.755975
0.767666
0.772079
0.772881
0.772923
0.772989
-0.0263411
-0.0133876
0.0320452
0.0879863
0.156998
0.23089
0.30773
0.386891
0.467624
0.548795
0.621464
0.67695
0.717695
0.747752
0.76957
0.78163
0.786429
0.787312
0.787391
0.787437
-0.0547401
-0.0418494
0.00525469
0.0636309
0.135836
0.213246
0.294221
0.377871
0.463355
0.549164
0.625882
0.684751
0.727639
0.75889
0.781446
0.794223
0.799241
0.800285
0.800367
0.800404
-0.0806706
-0.067769
-0.0193505
0.0413905
0.116436
0.196955
0.281565
0.369078
0.458668
0.548849
0.629844
0.691821
0.736454
0.769052
0.791973
0.805206
0.810603
0.811752
0.811869
0.811882
-0.104604
-0.0915319
-0.0423656
0.0206435
0.0982
0.181502
0.269274
0.360141
0.453513
0.548042
0.633197
0.698004
0.744438
0.777991
0.801321
0.815087
0.820561
0.821842
0.821954
0.821942
-0.127175
-0.113782
-0.0639272
0.00107577
0.0807614
0.166487
0.257028
0.350954
0.447898
0.546466
0.635591
0.703412
0.751717
0.786333
0.809929
0.823715
0.829369
0.830661
0.830772
0.830731
-0.148423
-0.134847
-0.084338
-0.0176926
0.0637834
0.151689
0.244754
0.341509
0.441747
0.544069
0.637232
0.708269
0.758523
0.793975
0.817889
0.831511
0.837015
0.838341
0.838432
0.838349
-0.168588
-0.154989
-0.103794
-0.035793
0.0472054
0.137056
0.232411
0.331761
0.435011
0.540859
0.638034
0.712481
0.764912
0.801576
0.82544
0.838464
0.843856
0.845041
0.845047
0.844949
-0.188047
-0.174166
-0.122483
-0.0533576
0.0309618
0.122555
0.219974
0.321645
0.427577
0.536716
0.637955
0.716111
0.771281
0.809073
0.8328
0.845249
0.849896
0.850875
0.85086
0.850779
-0.207173
-0.192661
-0.140544
-0.0704094
0.0150723
0.108182
0.207387
0.311091
0.419452
0.531751
0.637035
0.719123
0.777529
0.817144
0.840694
0.85194
0.85561
0.855983
0.856019
0.856011
-0.225845
-0.210597
-0.158084
-0.0870169
-0.000516799
0.0938921
0.194628
0.30013
0.41073
0.525971
0.635063
0.721443
0.783654
0.825722
0.849635
0.859658
0.861231
0.860704
0.86057
0.860415
-0.244063
-0.228145
-0.175164
-0.103201
-0.0158092
0.0796993
0.181731
0.288831
0.401486
0.519387
0.632043
0.72294
0.789421
0.835098
0.860466
0.868919
0.867781
0.865912
0.86565
0.866629
-0.26164
-0.245233
-0.191774
-0.118982
-0.0308128
0.0656275
0.168768
0.277288
0.391791
0.512024
0.627873
0.723326
0.794781
0.845035
0.873428
0.8815
0.877635
0.870724
0.865912
0.86498
-0.278641
-0.261851
-0.207881
-0.134325
-0.0454747
0.0517583
0.155837
0.265575
0.381668
0.503913
0.622573
0.722346
0.799031
0.855279
0.888652
0.898485
0.89452
0.88372
0.883831
0.887982
-0.294993
-0.277864
-0.223412
-0.149186
-0.0597403
0.0381622
0.143017
0.25376
0.371184
0.49516
0.616146
0.71967
0.801864
0.864752
0.905066
0.920055
0.916207
0.886916
0.84901
0.816007
-0.310703
-0.293318
-0.238396
-0.163604
-0.0736788
0.0247432
0.130176
0.241673
0.360125
0.485509
0.608368
0.714988
0.802143
0.872575
0.922076
0.945271
0.955158
0.929888
0.94738
1.00905
-0.325688
-0.308191
-0.252901
-0.177719
-0.0874701
0.0112715
0.117031
0.228969
0.348064
0.474412
0.598608
0.707418
0.798797
0.875691
0.931428
0.959489
0.961224
0.933473
0.889469
0.906497
-0.339955
-0.322512
-0.266897
-0.191468
-0.101035
-0.0021598
0.103698
0.215786
0.335121
0.461894
0.586821
0.696799
0.789683
0.869508
0.926713
0.955277
0.935391
0.87666
0.81066
0.797687
-0.353464
-0.336216
-0.280368
-0.204865
-0.114387
-0.0155611
0.0901814
0.202137
0.321312
0.447956
0.572869
0.682576
0.774409
0.850566
0.902683
0.904748
0.865336
0.784472
0.707983
0.682821
-0.366273
-0.349356
-0.293349
-0.217927
-0.127548
-0.0289452
0.076485
0.188042
0.306672
0.432628
0.556668
0.664624
0.751583
0.816166
0.843544
0.826864
0.763159
0.658826
0.569696
0.545629
-0.378807
-0.362266
-0.306204
-0.231025
-0.14087
-0.0426215
0.0623423
0.173273
0.291024
0.415734
0.537932
0.642192
0.721912
0.77033
0.763838
0.726071
0.610202
0.485151
0.375958
0.347108
-0.391937
-0.375801
-0.319644
-0.244748
-0.154893
-0.0570514
0.0473583
0.157509
0.274115
0.397068
0.516423
0.61504
0.687443
0.710527
0.676366
0.584777
0.426013
0.271232
0.140097
0.111023
-0.406157
-0.390235
-0.333931
-0.259342
-0.169804
-0.0723638
0.03145
0.140706
0.255944
0.376644
0.49208
0.583973
0.645557
0.639529
0.586824
0.434027
0.232616
0.0187116
-0.162366
-0.212144
-0.421615
-0.405808
-0.349184
-0.274804
-0.18556
-0.0885223
0.0146478
0.122902
0.236562
0.354538
0.464867
0.550402
0.596684
0.558854
0.47063
0.281265
0.0496147
-0.239487
-0.560348
-0.709711
-0.438357
-0.422448
-0.365453
-0.291257
-0.20225
-0.105601
-0.00312019
0.104025
0.215917
0.330787
0.435191
0.513954
0.541941
0.473774
0.336022
0.130262
-0.10327
-0.446593
-1.03133
-1.60207
-0.456505
-0.440444
-0.382897
-0.308732
-0.219875
-0.123596
-0.021825
0.0841584
0.194171
0.305775
0.404135
0.474592
0.483376
0.399039
0.206622
-0.0265516
-0.22855
-0.462101
-1.01361
-2.51699
-0.476049
-0.459644
-0.401523
-0.3274
-0.238627
-0.142712
-0.0417071
0.0630113
0.17099
0.279131
0.371394
0.431904
0.419894
0.340382
0.11333
-0.123661
-0.271089
-0.307911
-0.296476
-0.681337
-0.496952
-0.480472
-0.421629
-0.347511
-0.258876
-0.163446
-0.0633914
0.0398327
0.145444
0.249527
0.336048
0.385885
0.357681
0.290131
0.0637917
-0.137565
-0.247952
-0.255841
-0.202756
-0.242731
-0.519074
-0.502476
-0.443061
-0.369185
-0.28075
-0.185931
-0.087039
0.0144206
0.117309
0.216805
0.298145
0.337933
0.303106
0.235876
0.0315953
-0.127886
-0.209994
-0.218047
-0.265904
-0.269865
-0.542385
-0.525938
-0.465921
-0.392356
-0.304203
-0.210202
-0.112707
-0.0132602
0.0865806
0.181373
0.257648
0.287793
0.25569
0.174729
0.00343446
-0.11857
-0.188547
-0.165819
-0.186146
-0.187781
-0.56658
-0.549878
-0.489849
-0.416998
-0.329138
-0.236171
-0.140312
-0.0431329
0.0533659
0.143536
0.214757
0.234287
0.214651
0.106797
-0.0319293
-0.11378
-0.152325
-0.200792
-0.174917
-0.183557
-0.591613
-0.57451
-0.514927
-0.442855
-0.355279
-0.263717
-0.169702
-0.0749579
0.0178341
0.103654
0.170586
0.179612
0.171658
0.0461097
-0.0686468
-0.132205
-0.109154
-0.169006
-0.149769
-0.154726
-0.616281
-0.598965
-0.540808
-0.469663
-0.382348
-0.292577
-0.200569
-0.10844
-0.0198389
0.0620282
0.126169
0.127606
0.119842
-0.00497852
-0.095411
-0.146272
-0.134505
-0.149545
-0.154955
-0.153152
-0.640394
-0.623219
-0.567005
-0.496646
-0.409937
-0.322448
-0.232557
-0.143167
-0.0590912
0.019084
0.081903
0.0796735
0.0623196
-0.0474185
-0.108689
-0.139783
-0.178967
-0.150226
-0.156039
-0.150408
-0.662712
-0.646273
-0.592113
-0.522986
-0.437823
-0.352748
-0.265111
-0.178635
-0.0991066
-0.0249007
0.0375006
0.0361308
0.00671438
-0.0825096
-0.122198
-0.114615
-0.187745
-0.130636
-0.14572
-0.137962
-0.682818
-0.667487
-0.615416
-0.547533
-0.465481
-0.382745
-0.297601
-0.214219
-0.138863
-0.0693737
-0.00741078
-0.00427637
-0.038611
-0.101551
-0.12992
-0.0893448
-0.134556
-0.117452
-0.123585
-0.120459
-0.698896
-0.685193
-0.635762
-0.570023
-0.491871
-0.411464
-0.329235
-0.249188
-0.177509
-0.11361
-0.0528234
-0.0421408
-0.070271
-0.102764
-0.120387
-0.097233
-0.111423
-0.115186
-0.116182
-0.116399
-0.710277
-0.69873
-0.65262
-0.589424
-0.515269
-0.437917
-0.358986
-0.28258
-0.214191
-0.156304
-0.0971987
-0.0775256
-0.0938485
-0.0988697
-0.111187
-0.123538
-0.115247
-0.119095
-0.117239
-0.118162
-0.71542
-0.706302
-0.664384
-0.604769
-0.534678
-0.461009
-0.38598
-0.313484
-0.248213
-0.195884
-0.13828
-0.111798
-0.122919
-0.0998168
-0.104661
-0.141185
-0.118436
-0.125996
-0.119252
-0.120974
-0.714501
-0.707516
-0.669964
-0.614228
-0.548498
-0.479345
-0.408751
-0.340433
-0.278592
-0.23028
-0.17465
-0.145189
-0.147428
-0.116982
-0.0952889
-0.116981
-0.106232
-0.126538
-0.123978
-0.127124
-0.706532
-0.699232
-0.666743
-0.616757
-0.556391
-0.492204
-0.426489
-0.362295
-0.30376
-0.258089
-0.205303
-0.175736
-0.165343
-0.124842
-0.0703042
-0.0671169
-0.0836818
-0.0985245
-0.104165
-0.106896
-0.68595
-0.677567
-0.653248
-0.610637
-0.556584
-0.498125
-0.437652
-0.37725
-0.321399
-0.277008
-0.227451
-0.200272
-0.196032
-0.231545
-0.292956
-0.361273
-0.370985
-0.3493
-0.327434
-0.310034
-0.643233
-0.635298
-0.626648
-0.596364
-0.550598
-0.498266
-0.442639
-0.384976
-0.329754
-0.284732
-0.236299
-0.202714
-0.276884
-0.408556
-0.635567
-0.796159
-0.807812
-0.783695
-0.734599
-0.684522
-0.602209
-0.599342
-0.598318
-0.574889
-0.538337
-0.49259
-0.440804
-0.384684
-0.327354
-0.27787
-0.229007
-0.162186
-0.176849
-0.249587
-0.359791
-0.384756
-0.314781
-0.248725
-0.186168
-0.143122
-0.579535
-0.581225
-0.571075
-0.556938
-0.527682
-0.485804
-0.435263
-0.378903
-0.315656
-0.252544
-0.192944
-0.0749749
0.0733057
0.300051
0.519215
0.717539
0.865003
0.95295
0.995408
1.03532
-0.548268
-0.547963
-0.544711
-0.543301
-0.518485
-0.479127
-0.428411
-0.369523
-0.300055
-0.219728
-0.135361
0.000892909
0.219283
0.546647
0.869924
1.13734
1.32309
1.43569
1.4921
1.51001
-0.536108
-0.53422
-0.536949
-0.530183
-0.512621
-0.475842
-0.423258
-0.359999
-0.285278
-0.193095
-0.0910969
0.0362534
0.272381
0.593492
0.911093
1.17952
1.37707
1.49525
1.54751
1.56295
-0.524374
-0.523093
-0.526375
-0.519154
-0.511383
-0.474354
-0.420717
-0.354587
-0.275673
-0.177638
-0.0694581
0.0349584
0.253969
0.53112
0.804635
1.04158
1.22548
1.33595
1.38437
1.39789
-0.512162
-0.512285
-0.51304
-0.512476
-0.509214
-0.47177
-0.41906
-0.352602
-0.272795
-0.175099
-0.0702258
0.0103588
0.193673
0.427417
0.649621
0.840957
0.993887
1.08655
1.12665
1.13673
-0.499768
-0.500394
-0.498702
-0.501268
-0.496773
-0.470327
-0.421848
-0.355034
-0.276121
-0.18321
-0.0842222
-0.0213696
0.121863
0.316706
0.493528
0.640071
0.757254
0.829441
0.860127
0.86785
-0.490657
-0.489597
-0.484707
-0.483629
-0.477453
-0.466147
-0.424896
-0.358954
-0.282666
-0.197298
-0.103929
-0.0513583
0.0535052
0.212866
0.351916
0.462023
0.548603
0.602808
0.625077
0.629586
-0.502129
-0.498751
-0.493547
-0.490482
-0.487566
-0.480322
-0.429352
-0.361489
-0.287071
-0.210755
-0.123534
-0.0761043
-0.00496142
0.123025
0.231437
0.313616
0.376642
0.416597
0.431892
0.436827
-0.53777
-0.536739
-0.53805
-0.544574
-0.543238
-0.515907
-0.441357
-0.364495
-0.287804
-0.219302
-0.139588
-0.0947575
-0.0491579
0.0513497
0.133946
0.19493
0.242332
0.272877
0.284189
0.28778
-0.579701
-0.584193
-0.596327
-0.605495
-0.597515
-0.543319
-0.44897
-0.36396
-0.283042
-0.220694
-0.14976
-0.10762
-0.0773275
0.00136791
0.062306
0.106417
0.142696
0.165395
0.174629
0.177117
-0.542167
-0.546759
-0.560579
-0.573491
-0.566125
-0.510124
-0.42648
-0.345076
-0.268698
-0.212006
-0.152076
-0.114444
-0.0914955
-0.030167
0.0136345
0.045115
0.0699165
0.0848061
0.0913667
0.0930258
-0.399704
-0.407308
-0.419224
-0.427331
-0.424306
-0.394277
-0.346729
-0.294249
-0.237659
-0.190542
-0.146086
-0.114911
-0.0947774
-0.0492369
-0.0183672
0.00302209
0.0183575
0.0270084
0.0301429
0.030242
-0.232081
-0.235669
-0.241025
-0.248651
-0.25258
-0.247571
-0.234843
-0.216049
-0.187407
-0.15883
-0.131206
-0.109058
-0.0910221
-0.0600225
-0.039573
-0.0260875
-0.0174356
-0.0136817
-0.0131873
-0.014019
-0.0921142
-0.0939896
-0.0980442
-0.105568
-0.115164
-0.124667
-0.132738
-0.136782
-0.131158
-0.122312
-0.109054
-0.0962184
-0.0829498
-0.0642841
-0.0521934
-0.0447083
-0.0410135
-0.0405009
-0.0417409
-0.0430131
0.000971844
-6.52696e-05
-0.0027466
-0.0105035
-0.0244053
-0.0417941
-0.0589676
-0.0735697
-0.0813607
-0.0865034
-0.0833019
-0.0778821
-0.0720963
-0.0625304
-0.0570159
-0.0548394
-0.0548597
-0.0564247
-0.0584148
-0.0597849
0.0495504
0.0486742
0.0464739
0.0391296
0.024406
0.00466841
-0.0151266
-0.0328119
-0.0455084
-0.0567009
-0.0592775
-0.058939
-0.0595921
-0.056667
-0.0562544
-0.0577995
-0.0602932
-0.063178
-0.0653663
-0.0666767
0.0681754
0.0675708
0.0657824
0.0594893
0.0464181
0.0280542
0.00869668
-0.00950098
-0.0236067
-0.0359545
-0.0403177
-0.0436735
-0.0476362
-0.0486575
-0.051856
-0.055732
-0.059408
-0.0626502
-0.0647158
-0.0659092
0.0701846
0.0697464
0.0683587
0.0634575
0.0531317
0.0380655
0.0211147
0.00382229
-0.0103015
-0.0226483
-0.0273613
-0.0322115
-0.0371715
-0.040685
-0.0454533
-0.0501725
-0.0540846
-0.0570867
-0.0588346
-0.0598842
0.064424
0.0641262
0.0630933
0.0594663
0.0517639
0.0403094
0.026733
0.011723
-0.00122631
-0.0134461
-0.01859
-0.0233047
-0.0284491
-0.0329364
-0.0381906
-0.0428623
-0.0464673
-0.0490468
-0.0503767
-0.0512734
0.0555097
0.0553254
0.0545874
0.0520087
0.0464574
0.0380305
0.0277454
0.0157534
0.00513058
-0.00634126
-0.0119132
-0.016312
-0.0211471
-0.0254852
-0.030513
-0.0347462
-0.0379177
-0.0401267
-0.0410601
-0.0417981
0.0458916
0.0457881
0.0452656
0.0434788
0.0395927
0.0335484
0.0259475
0.0167252
0.00871708
-0.00116785
-0.00652096
-0.0102352
-0.014522
-0.018607
-0.02316
-0.0268325
-0.0295389
-0.0313839
-0.0320436
-0.0326591
0.0367028
0.0366629
0.0363111
0.0351289
0.0324658
0.0282314
0.0227469
0.0157657
0.0100032
0.00211547
-0.00229466
-0.00532927
-0.00894783
-0.0125975
-0.0165941
-0.0197237
-0.0219733
-0.0235017
-0.0239693
-0.0244843
0.0283132
0.0282974
0.0280669
0.0273085
0.0255212
0.0225944
0.0187287
0.0135387
0.00963353
0.00368491
0.000661595
-0.00172703
-0.00485501
-0.00798817
-0.0113194
-0.0138952
-0.0157464
-0.0170232
-0.0174117
-0.0178274
0.0207415
0.0207389
0.020569
0.0201016
0.0189417
0.0170009
0.014381
0.0105678
0.00809104
0.00376678
0.00202581
0.000559919
-0.00200499
-0.00459449
-0.00732478
-0.00939453
-0.0108383
-0.0117867
-0.0120269
-0.0123624
0.014018
0.0140126
0.0139137
0.0136586
0.0129721
0.0117949
0.0102243
0.00757746
0.00617703
0.00303642
0.00210392
0.00138553
-0.000497327
-0.00236744
-0.00449076
-0.00594217
-0.00687015
-0.00744709
-0.00763669
-0.00795559
0.00795891
0.00795098
0.00792596
0.00785101
0.00753854
0.00692509
0.00620878
0.00455977
0.00398616
0.00188692
0.00138074
0.00125488
-1.36517e-05
-0.000951988
-0.00247353
-0.0033649
-0.00383481
-0.0041763
-0.00417353
-0.00438459
0.00258305
0.00260424
0.00264117
0.00267962
0.00263348
0.00240236
0.00224807
0.00144829
0.00147165
0.000539448
0.000487752
0.000822438
8.81538e-05
1.88383e-05
-0.00103891
-0.00167771
-0.00223761
-0.00272326
-0.00247819
-0.0024608
-1.07589
-0.239847
0.0300735
0.304876
0.484431
0.637983
0.760624
0.885864
1.02503
1.10958
-0.0995145
0.30531
0.320054
0.50716
0.628772
0.737876
0.831432
0.915045
0.941905
0.900482
0.273867
0.486274
0.519654
0.655271
0.73946
0.817836
0.882531
0.931162
0.932942
0.947388
0.500924
0.642321
0.676788
0.777082
0.833526
0.89002
0.934291
0.966342
0.975257
0.999064
0.676953
0.777107
0.806779
0.873162
0.917483
0.957739
0.989538
1.01368
1.02335
1.05503
0.818912
0.886993
0.917153
0.959425
0.995218
1.02501
1.04909
1.06981
1.08383
1.1122
0.937219
0.987377
1.01278
1.04047
1.06788
1.09149
1.11134
1.13057
1.1454
1.17196
1.04046
1.07726
1.09821
1.11872
1.13936
1.15866
1.17603
1.19412
1.20899
1.23267
1.13413
1.16314
1.1794
1.1946
1.21064
1.22666
1.24219
1.25909
1.27271
1.29504
1.22223
1.24264
1.25745
1.27058
1.28413
1.29788
1.31138
1.32597
1.33751
1.35715
1.30758
1.32335
1.33716
1.34896
1.36087
1.37251
1.38364
1.39532
1.40299
1.41979
1.39279
1.40533
1.41903
1.43078
1.44141
1.45121
1.46003
1.46829
1.47185
1.48308
1.48153
1.49235
1.50583
1.51535
1.52291
1.53021
1.53739
1.54386
1.54496
1.55232
1.57993
1.58454
1.59273
1.59747
1.60086
1.60534
1.61133
1.61899
1.62289
1.63277
1.69322
1.68011
1.67282
1.66711
1.66438
1.66572
1.67205
1.68441
1.69924
1.72891
1.81519
1.75915
1.72813
1.71094
1.70272
1.70265
1.7115
1.73112
1.76291
1.83218
)
;

boundaryField
{
    wall-4
    {
        type            zeroGradient;
    }
    pressure-outlet-7
    {
        type            fixedValue;
        value           uniform 0;
    }
    velocity-inlet-6
    {
        type            zeroGradient;
    }
    velocity-inlet-5
    {
        type            zeroGradient;
    }
    frontAndBackPlanes
    {
        type            empty;
    }
}


// ************************************************************************* //
