/*--------------------------------*- C++ -*----------------------------------*\
| =========                 |                                                 |
| \\      /  F ield         | OpenFOAM: The Open Source CFD Toolbox           |
|  \\    /   O peration     | Version:  4.0                                   |
|   \\  /    A nd           | Web:      www.OpenFOAM.org                      |
|    \\/     M anipulation  |                                                 |
\*---------------------------------------------------------------------------*/
FoamFile
{
    version     2.0;
    format      ascii;
    class       surfaceScalarField;
    location    "64";
    object      phi;
}
// * * * * * * * * * * * * * * * * * * * * * * * * * * * * * * * * * * * * * //

dimensions      [0 3 -1 0 0 0 0];

internalField   nonuniform List<scalar> 
4262
(
0.10713
0.470858
0.0955596
0.705157
0.0693658
0.858497
0.0473446
1.02078
0.0309629
1.2149
0.0197548
1.44943
0.0123491
1.73327
0.00713961
2.07625
0.003151
2.48923
-0.000620667
2.98606
-0.00425834
2.98593
-0.00803951
2.48902
-0.013075
2.07607
-0.0202119
1.733
-0.0311317
1.44914
-0.0471682
1.21455
-0.0688988
1.02049
-0.0951742
0.858578
-0.107059
0.705471
0.470929
0.112866
0.357992
0.135268
0.682754
0.120367
0.873398
0.0978045
1.04335
0.0745361
1.23817
0.0527965
1.47117
0.0343809
1.75168
0.02014
2.09049
0.00886678
2.50051
-0.00104071
2.99597
-0.0111247
2.99601
-0.02231
2.50021
-0.0363724
2.09013
-0.054724
1.75135
-0.0765851
1.471
-0.100367
1.23833
-0.12358
1.04371
-0.137053
0.872052
-0.113575
0.681992
0.357354
0.0920492
0.265943
0.124976
0.649828
0.121108
0.877266
0.104841
1.05961
0.0861944
1.25681
0.067049
1.49031
0.0480718
1.77066
0.0300073
2.10855
0.0134325
2.51708
-0.00265434
3.01206
-0.0183757
3.01174
-0.0343319
2.51617
-0.051819
2.10762
-0.0701882
1.76972
-0.0884784
1.48929
-0.105647
1.2555
-0.119719
1.05778
-0.12519
0.877522
-0.0923387
0.649141
0.265016
0.063976
0.201967
0.104791
0.609013
0.106558
0.8755
0.0951647
1.07101
0.0812339
1.27074
0.0664966
1.50505
0.0503741
1.78678
0.0331898
2.12574
0.0155047
2.53477
-0.0030738
3.03064
-0.0216082
3.03027
-0.0390512
2.53361
-0.0555361
2.12411
-0.0707959
1.78498
-0.0846429
1.50314
-0.0983557
1.26922
-0.110096
1.06952
-0.107082
0.874508
-0.0649238
0.606984
0.200092
0.0374722
0.164494
0.0806996
0.565785
0.0909679
0.865232
0.0837556
1.07822
0.0711386
1.28336
0.0592708
1.51692
0.0462302
1.79983
0.0312716
2.14069
0.014283
2.55175
-0.00506527
3.04998
-0.0238315
3.04904
-0.0396293
2.54941
-0.0534694
2.13795
-0.0655396
1.79705
-0.0767627
1.51436
-0.0887047
1.28116
-0.0951018
1.07592
-0.0832705
0.862676
-0.0384263
0.562139
0.161666
0.0194596
0.145035
0.0571831
0.528062
0.0725623
0.849852
0.0704475
1.08033
0.0616253
1.29218
0.0507263
1.52782
0.0395545
1.811
0.0269064
2.15334
0.011862
2.5668
-0.00569688
3.06754
-0.0229837
3.06632
-0.037397
2.56382
-0.0489597
2.14951
-0.0589326
1.80702
-0.0688201
1.52425
-0.0764508
1.28879
-0.0772307
1.0767
-0.0600554
0.845501
-0.0203894
0.522473
0.141276
0.0106034
0.134431
0.0422904
0.496375
0.0583646
0.833778
0.0586127
1.08009
0.052435
1.29836
0.0430206
1.53723
0.032573
1.82144
0.021153
2.16476
0.0077804
2.58017
-0.00827689
3.0836
-0.0237397
3.08179
-0.0355176
2.5756
-0.0452262
2.15922
-0.0540566
1.81585
-0.0619434
1.53214
-0.0664758
1.29332
-0.0644919
1.07471
-0.0460214
0.827031
-0.0117405
0.488192
0.129536
0.00655368
0.127878
0.0328923
0.470036
0.0491293
0.817541
0.0506267
1.07859
0.0455201
1.30347
0.037133
1.54562
0.027479
1.8311
0.0166215
2.17562
0.00461441
2.59218
-0.00931216
3.09753
-0.0227334
3.09521
-0.0336863
2.58655
-0.0429756
2.16851
-0.0506287
1.82351
-0.057089
1.5386
-0.0602246
1.29646
-0.0565452
1.07103
-0.0373464
0.807832
-0.00790696
0.458753
0.121629
0.00469547
0.123182
0.0264916
0.44824
0.0422365
0.801796
0.0442917
1.07653
0.0396246
1.30813
0.0319674
1.55328
0.0227944
1.84027
0.012085
2.18633
0.000186948
2.60408
-0.0129065
3.11062
-0.0248601
3.10716
-0.0344826
2.59617
-0.0425733
2.1766
-0.0494373
1.83037
-0.0547828
1.54394
-0.0569803
1.29865
-0.0518519
1.0659
-0.0320871
0.788067
-0.00638837
0.433054
0.115241
0.00372822
0.119454
0.0216296
0.430339
0.0367337
0.786692
0.0394332
1.07383
0.0350005
1.31257
0.0275484
1.56073
0.018714
1.84911
0.00873163
2.19631
-0.00241777
2.61523
-0.0146512
3.12285
-0.0261748
3.11868
-0.0356703
2.60567
-0.043191
2.18412
-0.0490743
1.83625
-0.0537211
1.54859
-0.0548998
1.29983
-0.0484678
1.05947
-0.0284292
0.768028
-0.00581105
0.410436
0.109429
0.00302879
0.116425
0.0174636
0.415904
0.0313421
0.772814
0.0342544
1.07092
0.0300553
1.31677
0.0228597
1.56792
0.0142195
1.85775
0.00407922
2.20645
-0.00747179
2.62678
-0.0196713
3.13505
-0.0303013
3.12931
-0.0381992
2.61357
-0.0446257
2.19054
-0.0499922
1.84162
-0.0537817
1.55238
-0.0538527
1.2999
-0.0459669
1.05159
-0.0257411
0.747803
-0.00555151
0.390246
0.103878
0.00233763
0.114088
0.0137265
0.404515
0.0262229
0.760317
0.0292702
1.06787
0.0252275
1.32081
0.0180966
1.57505
0.0095516
1.86629
-8.21594e-05
2.21609
-0.0107154
2.63741
-0.0225427
3.14688
-0.0332625
3.14003
-0.0415164
2.62182
-0.0473817
2.19641
-0.0515843
1.84582
-0.05424
1.55503
-0.0535588
1.29922
-0.0442461
1.04227
-0.0238738
0.727431
-0.0054361
0.371809
0.0984418
0.00167793
0.11241
0.0104724
0.39572
0.0212183
0.749572
0.0237462
1.06535
0.0195494
1.32501
0.012402
1.5822
0.0037264
1.87497
-0.00629781
2.22611
-0.0176225
2.64873
-0.0296407
3.1589
-0.0394083
3.1498
-0.045754
2.62817
-0.0504239
2.20108
-0.054016
1.84942
-0.0557363
1.55675
-0.0540563
1.29754
-0.0433922
1.03161
-0.0226941
0.706732
-0.00538174
0.354496
0.0930601
0.000814102
0.111596
0.00700687
0.389528
0.0160878
0.740491
0.0182901
1.06314
0.0139191
1.32938
0.00657693
1.58954
-0.0022107
1.88375
-0.0120873
2.23599
-0.0229346
2.65958
-0.0343257
3.17029
-0.044136
3.15961
-0.0508115
2.63484
-0.0547344
2.205
-0.0572853
1.85197
-0.0578927
1.55736
-0.0551965
1.29485
-0.0431384
1.01955
-0.0220027
0.685597
-0.00535923
0.337853
0.0877009
0.000122363
0.111473
0.00411483
0.385535
0.010783
0.733822
0.0116924
1.06223
0.00665361
1.33442
-0.00125763
1.59746
-0.0107671
1.89326
-0.0213984
2.24662
-0.0327568
2.67094
-0.0440282
3.18156
-0.0524229
3.16801
-0.0570444
2.63946
-0.0599498
2.20791
-0.0618552
1.85387
-0.061667
1.55717
-0.0573989
1.29058
-0.043683
1.00584
-0.0218327
0.663747
-0.00542229
0.321443
0.0822786
-0.000865526
0.112339
0.000404131
0.384266
0.00504808
0.729178
0.00517298
1.06211
-0.000418622
1.34001
-0.00899759
1.60603
-0.0188652
1.90313
-0.029432
2.25718
-0.0405556
2.68206
-0.0517622
3.19277
-0.0601482
3.17639
-0.0647252
2.64404
-0.0666756
2.20986
-0.0676319
1.85483
-0.0665115
1.55605
-0.0606081
1.28468
-0.0449985
0.990227
-0.022159
0.640907
-0.00557633
0.30486
0.0767023
-0.00172574
0.114065
-0.00266983
0.38521
-0.000849046
0.727358
-0.00258948
1.06385
-0.00929858
1.34672
-0.0188241
1.61556
-0.0299278
1.91424
-0.042124
2.26938
-0.0545483
2.69449
-0.0652967
3.20352
-0.0718503
3.18295
-0.075098
2.64729
-0.0763297
2.21109
-0.0759733
1.85447
-0.0731319
1.55321
-0.0652593
1.2768
-0.0473517
0.972319
-0.0230701
0.616626
-0.00586757
0.287657
0.0708347
-0.00308456
0.117149
-0.00642091
0.388546
-0.00821187
0.729149
-0.0116376
1.06728
-0.0192942
1.35437
-0.0298479
1.62611
-0.041716
1.9261
-0.054024
2.28169
-0.0660529
2.70652
-0.0771239
3.21459
-0.0843508
3.19017
-0.0867906
2.64973
-0.0862023
2.2105
-0.0848298
1.8531
-0.0811754
1.54956
-0.0710909
1.26672
-0.0505786
0.951807
-0.0244467
0.590494
-0.00624209
0.269453
0.0645926
-0.00438436
0.121533
-0.0106455
0.394807
-0.0157742
0.734277
-0.0220174
1.07352
-0.031044
1.3634
-0.0428757
1.63795
-0.0561959
1.93942
-0.0707593
2.29625
-0.0853535
2.72111
-0.0967893
3.22602
-0.101293
3.19468
-0.101866
2.6503
-0.101231
2.20987
-0.0980101
1.84988
-0.0917104
1.54326
-0.0789373
1.25395
-0.05513
0.927999
-0.0264315
0.561795
-0.00675197
0.249773
0.0578406
-0.00582776
0.127361
-0.0157097
0.404689
-0.0250092
0.743577
-0.0342659
1.08277
-0.0454377
1.37457
-0.0592981
1.65181
-0.0744285
1.95455
-0.0896546
2.31148
-0.103256
2.73471
-0.113597
3.23636
-0.119125
3.2002
-0.119508
2.65068
-0.11593
2.20629
-0.111404
1.84535
-0.104003
1.53585
-0.0879018
1.23784
-0.0602669
0.900364
-0.028636
0.530164
-0.00724464
0.228382
0.050596
-0.0081566
0.135518
-0.0225208
0.419053
-0.0370881
0.758144
-0.0497429
1.09543
-0.0628654
1.38769
-0.0786428
1.66758
-0.0956503
1.97156
-0.113207
2.32904
-0.129672
2.75118
-0.142078
3.24877
-0.144615
3.20274
-0.141604
2.64767
-0.137366
2.20205
-0.130357
1.83834
-0.119351
1.52485
-0.0995004
1.21799
-0.0670361
0.8679
-0.0313597
0.494488
-0.00781222
0.204834
0.0427838
-0.0105557
0.146074
-0.0296244
0.438122
-0.050047
0.778567
-0.0677472
1.11313
-0.0846573
1.4046
-0.103762
1.68669
-0.123803
1.9916
-0.142952
2.34818
-0.15835
2.76657
-0.166613
3.25703
-0.167771
3.2039
-0.164537
2.64444
-0.157645
2.19516
-0.149471
1.83017
-0.136602
1.51198
-0.111805
1.1932
-0.0736845
0.82978
-0.0338516
0.454655
-0.00822926
0.179212
0.0345545
-0.0153463
0.16142
-0.0421908
0.464967
-0.0698023
0.806178
-0.0923659
1.13569
-0.112677
1.42492
-0.135234
1.70924
-0.157544
2.01391
-0.178035
2.36868
-0.194301
2.78284
-0.204348
3.26708
-0.204134
3.20369
-0.196249
2.63655
-0.186812
2.18572
-0.174937
1.8183
-0.156935
1.49398
-0.126586
1.16285
-0.0817982
0.784992
-0.0364827
0.409339
-0.00857582
0.151305
0.0259787
-0.0194391
0.180859
-0.0549003
0.500428
-0.0921348
0.843413
-0.122655
1.16621
-0.149116
1.45138
-0.176077
1.73621
-0.201257
2.03909
-0.222795
2.39021
-0.23797
2.79802
-0.242425
3.27154
-0.235924
3.19718
-0.22597
2.6266
-0.214285
2.17404
-0.200457
1.80447
-0.179358
1.47288
-0.141615
1.1251
-0.0884736
0.731851
-0.0380495
0.358915
-0.00846995
0.121725
0.0175088
-0.0326555
0.213514
-0.0818184
0.549591
-0.129604
0.891198
-0.166428
1.20304
-0.198043
1.48299
-0.229229
1.76739
-0.255447
2.06531
-0.27578
2.41055
-0.287372
2.80961
-0.288042
3.27221
-0.279687
3.18883
-0.266475
2.61339
-0.251486
2.15905
-0.233121
1.7861
-0.204157
1.44391
-0.157808
1.07876
-0.0960305
0.670074
-0.0395965
0.302481
-0.00828858
0.0904175
0.00922017
-0.0470877
0.260602
-0.120969
0.623472
-0.184827
0.955056
-0.230488
1.2487
-0.268252
1.52076
-0.299851
1.79899
-0.323495
2.08895
-0.339869
2.42692
-0.346961
2.8167
-0.342205
3.26745
-0.325792
3.17242
-0.306406
2.594
-0.286639
2.13928
-0.263621
1.76308
-0.229061
1.40935
-0.171897
1.02159
-0.0986539
0.596831
-0.0383744
0.242202
-0.00803492
0.0600781
0.00118525
-0.0341017
0.294704
-0.0978668
0.687237
-0.156571
1.01376
-0.204504
1.29663
-0.248107
1.56436
-0.287356
1.83824
-0.32429
2.12589
-0.357837
2.46047
-0.383811
2.84267
-0.397479
3.28112
-0.397009
3.17195
-0.388433
2.58543
-0.373543
2.12439
-0.347037
1.73658
-0.293859
1.35618
-0.209128
0.936861
-0.111642
0.499345
-0.0419759
0.172535
-0.00935365
0.0274558
-0.0081684
-0.0125498
0.307254
-0.0476026
0.72229
-0.0898843
1.05604
-0.129794
1.33654
-0.169424
1.60399
-0.204906
1.87372
-0.238091
2.15907
-0.266936
2.48931
-0.287866
2.8636
-0.296818
3.29007
-0.292171
3.1673
-0.276136
2.56939
-0.252098
2.10035
-0.218414
1.70289
-0.172961
1.31072
-0.111491
0.875392
-0.0511628
0.439017
-0.0190541
0.140427
-0.00460458
0.0130063
-0.012773
2.7977e-05
0.307226
-0.0245249
0.746843
-0.0541563
1.08567
-0.08476
1.36714
-0.116953
1.63618
-0.148129
1.9049
-0.177
2.18794
-0.201075
2.51339
-0.217052
2.87958
-0.221213
3.29423
-0.208852
3.15494
-0.187033
2.54757
-0.162794
2.07611
-0.133999
1.6741
-0.0937313
1.27045
-0.0484039
0.830065
-0.0171131
0.407726
-0.00650512
0.129819
-0.00208232
0.00858352
-0.0148553
0.000765318
0.30646
-0.0130436
0.760652
-0.0343074
1.10694
-0.0588694
1.39171
-0.085042
1.66235
-0.111369
1.93123
-0.135838
2.21241
-0.156243
2.53379
-0.169178
2.89252
-0.168754
3.29381
-0.152004
3.13819
-0.129185
2.52475
-0.102377
2.04931
-0.0694767
1.6412
-0.0366896
1.23767
-0.0100747
0.80345
0.00226984
0.395381
0.0017254
0.130363
-4.87679e-05
0.0103577
-0.0149041
0.0045991
0.301861
-0.00410739
0.769358
-0.0223984
1.12523
-0.043585
1.41289
-0.0656725
1.68444
-0.0876235
1.95318
-0.108472
2.23326
-0.125489
2.55081
-0.134781
2.90181
-0.131716
3.29074
-0.115445
3.12192
-0.090767
2.50008
-0.0625109
2.02105
-0.0362433
1.61493
-0.00754023
1.20896
0.0136415
0.782268
0.0155518
0.393471
0.00815719
0.137758
0.00195414
0.0165607
-0.0129499
0.00522988
0.296631
-0.000656549
0.775244
-0.0161796
1.14075
-0.0342211
1.43093
-0.0534348
1.70366
-0.0728459
1.97259
-0.0909683
2.25138
-0.105516
2.56536
-0.113208
2.9095
-0.108828
3.28636
-0.0900474
3.10314
-0.0666684
2.4767
-0.0411499
1.99553
-0.0115461
1.58533
0.0105981
1.18682
0.021604
0.771262
0.0203844
0.394691
0.0108699
0.147272
0.00284301
0.0245876
-0.0101069
0.00463461
0.291997
0.000824524
0.779055
-0.0123977
1.15397
-0.029169
1.44771
-0.046576
1.72106
-0.0636735
1.98969
-0.0797505
2.26746
-0.092899
2.5785
-0.0997713
2.91637
-0.0952722
3.28186
-0.0788249
3.08669
-0.0556972
2.45357
-0.0281054
1.96794
-0.00556354
1.56279
0.0147675
1.16649
0.0258969
0.760133
0.0217322
0.398855
0.0117105
0.157294
0.00323299
0.0330651
-0.00687393
0.00271826
0.289278
-0.000650084
0.782423
-0.0119392
1.16526
-0.0262869
1.46205
-0.0421194
1.7369
-0.0582734
2.00584
-0.0736839
2.28287
-0.0864703
2.59129
-0.0932614
2.92316
-0.0885146
3.27711
-0.0716192
3.0698
-0.0499615
2.43191
-0.0280625
1.94604
-0.00243296
1.53716
0.0157972
1.14826
0.0228707
0.753059
0.0200851
0.401641
0.0110058
0.166373
0.00316683
0.040904
-0.0037071
0.00127596
0.288002
-0.00140569
0.785105
-0.0120723
1.17593
-0.0256798
1.47566
-0.0407739
1.75199
-0.0558304
2.0209
-0.0703334
2.29737
-0.0825589
2.60352
-0.0892195
2.92982
-0.0857863
3.27368
-0.0717384
3.05575
-0.0505126
2.41069
-0.0260924
1.92162
-0.00734527
1.51841
0.00967173
1.13124
0.0195311
0.7432
0.016561
0.404611
0.00931954
0.173615
0.00275251
0.0474711
-0.000954594
-0.000475807
0.288478
-0.00477142
0.7894
-0.0138708
1.18503
-0.0257516
1.48754
-0.0397309
1.76597
-0.0544061
2.03557
-0.0688829
2.31185
-0.08149
2.61612
-0.089322
2.93766
-0.0877742
3.27213
-0.0737406
3.04171
-0.0545148
2.39146
-0.0354093
1.90252
-0.0124415
1.49544
0.00426771
1.11453
0.0112718
0.736196
0.0116611
0.404222
0.00670995
0.178566
0.00213565
0.0520454
0.00118105
-0.00131707
0.289795
-0.00586815
0.793951
-0.015034
1.19419
-0.0268168
1.49933
-0.040391
1.77954
-0.0543699
2.04955
-0.0684195
2.3259
-0.0812418
2.62894
-0.0900099
2.94642
-0.0902636
3.27239
-0.0786407
3.03009
-0.0600927
2.37291
-0.0382277
1.88065
-0.0214283
1.47864
-0.00577079
1.09887
0.00512931
0.725296
0.00625935
0.403092
0.00420257
0.180623
0.00150666
0.0547413
0.00268771
-0.00292732
0.292723
-0.00839211
0.799416
-0.0169598
1.20276
-0.0276753
1.51004
-0.0403442
1.79221
-0.0541016
2.06331
-0.0684879
2.34029
-0.0821242
2.64258
-0.0922576
2.95656
-0.0948077
3.27494
-0.0848922
3.02018
-0.068073
2.35609
-0.0503408
1.86292
-0.0286302
1.45693
-0.0124277
1.08267
-0.00334739
0.716215
0.0014162
0.398328
0.00161976
0.180419
0.000802985
0.0555581
0.0034907
-0.00376447
0.296487
-0.00906489
0.804716
-0.0178003
1.2115
-0.0286975
1.52094
-0.0412649
1.80478
-0.0546361
2.07668
-0.0688337
2.35448
-0.0828425
2.65659
-0.0943396
2.96806
-0.0996057
3.2802
-0.0923992
3.01297
-0.076201
2.33989
-0.0542464
1.84096
-0.0371567
1.43984
-0.0207353
1.06625
-0.00761674
0.703097
-0.00267998
0.393391
-0.000260809
0.178
0.000265463
0.0550318
0.00375616
-0.0042341
0.300721
-0.0106491
0.811131
-0.0191526
1.22
-0.0292782
1.53106
-0.0411935
1.81669
-0.0544326
2.08992
-0.0689939
2.36905
-0.0838178
2.67141
-0.0967491
2.98099
-0.10416
3.28761
-0.0996638
3.00847
-0.0852677
2.3255
-0.0669792
1.82267
-0.0430424
1.41591
-0.0244938
1.0477
-0.0126367
0.69124
-0.00490813
0.385663
-0.00134418
0.174436
-7.01011e-05
0.0537577
0.00368606
-0.00419583
0.304917
-0.010648
0.817584
-0.0193495
1.2287
-0.0297004
1.54141
-0.0416711
1.82867
-0.0546891
2.10294
-0.0690845
2.38344
-0.0841921
2.68652
-0.0985327
2.99533
-0.108922
3.298
-0.108015
3.00757
-0.0940409
2.31152
-0.0705278
1.79916
-0.0494179
1.3948
-0.0285166
1.0268
-0.0120687
0.674792
-0.00493049
0.378524
-0.00144552
0.170951
-0.000473822
0.052786
0.00321224
-0.00437865
0.309296
-0.0115428
0.824748
-0.0200186
1.23718
-0.0297475
1.55114
-0.0411554
1.84007
-0.0540031
2.11578
-0.0686507
2.39809
-0.0844925
2.70236
-0.100198
3.01103
-0.112463
3.31027
-0.114014
3.00912
-0.102519
2.30003
-0.0834033
1.78005
-0.0538575
1.36525
-0.0280462
1.00099
-0.0108726
0.657618
-0.000154994
0.367807
0.0026631
0.168133
0.00166919
0.0537799
0.00488143
-0.00432185
0.313617
-0.0112073
0.831633
-0.0196614
1.24563
-0.0295262
1.56101
-0.0409548
1.8515
-0.0536184
2.12845
-0.068099
2.41257
-0.0841323
2.7184
-0.100936
3.02784
-0.115859
3.32519
-0.121608
3.01486
-0.111663
2.29008
-0.087456
1.75584
-0.0596659
1.33746
-0.0275133
0.968837
-0.00255347
0.632658
0.0090672
0.356186
0.00678905
0.170411
-0.00109553
0.0616645
0.00378589
-0.00445618
0.318074
-0.0116748
0.838852
-0.0198163
1.25377
-0.029078
1.57027
-0.0399308
1.86235
-0.0523513
2.14087
-0.0669558
2.42717
-0.0835499
2.73499
-0.101447
3.04573
-0.118074
3.34182
-0.126164
3.02295
-0.119504
2.28342
-0.101411
1.73775
-0.0654275
1.30148
-0.0242627
0.927672
0.0113403
0.597055
0.0372441
0.330282
0.0445481
0.163107
0.0279699
0.0782428
0.0317558
-0.00430775
0.322381
-0.0111003
0.845644
-0.0190841
1.26176
-0.0283501
1.57954
-0.0391346
1.87314
-0.051355
2.15309
-0.0657454
2.44156
-0.0823641
2.75161
-0.100967
3.06434
-0.119723
3.36058
-0.131327
3.03456
-0.128832
2.28093
-0.107165
1.71608
-0.0735674
1.26788
-0.024637
0.878742
0.0234607
0.548958
0.0607483
0.292995
0.0528141
0.171041
0.0230941
0.107963
0.0548499
-0.00425265
0.326634
-0.0112248
0.852616
-0.018873
1.26941
-0.0275272
1.58819
-0.0377591
1.88337
-0.0496692
2.165
-0.0640335
2.45593
-0.0809871
2.76856
-0.100402
3.08375
-0.120704
3.38088
-0.134013
3.04787
-0.135621
2.28254
-0.123066
1.70352
-0.08504
1.22985
-0.0300976
0.8238
0.04141
0.47745
0.137879
0.196525
0.203547
0.105374
0.185163
0.126346
0.240013
-0.00408105
0.330715
-0.0106795
0.859215
-0.0183327
1.27706
-0.0272576
1.59711
-0.0379118
1.89403
-0.0503379
2.17742
-0.0655109
2.4711
-0.083861
2.78691
-0.105773
3.10566
-0.130409
3.40551
-0.150186
3.06765
-0.158173
2.29052
-0.144029
1.68938
-0.109962
1.19579
-0.0451659
0.759004
0.0136269
0.418657
-0.0506035
0.260756
-0.354159
0.40893
-0.944741
0.716928
0.901833
-1.60656
-0.00397086
0.334686
-0.0107219
0.865966
-0.0181569
1.28449
-0.0267004
1.60566
-0.0370503
1.90437
-0.0495341
2.18991
-0.0652296
2.4868
-0.0847399
2.80642
-0.108709
3.12963
-0.136947
3.43375
-0.161225
3.09192
-0.174105
2.3034
-0.1781
1.69338
-0.150643
1.16833
-0.11557
0.723931
-0.215255
0.518343
-0.693913
0.739413
-1.45178
1.1668
-2.05704
1.32218
1.21589
-2.3711
-0.00372617
0.338412
-0.00996242
0.872202
-0.0172113
1.29174
-0.0258137
1.61426
-0.036282
1.91484
-0.048945
2.20257
-0.0649896
2.50284
-0.0852577
2.82669
-0.110958
3.15533
-0.142864
3.46566
-0.174263
3.12332
-0.197032
2.32617
-0.20135
1.69769
-0.182565
1.14954
-0.2678
0.809165
-0.75288
1.00342
-1.55613
1.54267
-2.11543
1.72609
-2.3532
1.55996
1.32955
-2.46686
-0.00361594
0.342028
-0.00980645
0.878393
-0.0167725
1.29871
-0.0249597
1.62245
-0.0350708
1.92495
-0.0477095
2.21521
-0.0641434
2.51928
-0.0854334
2.84798
-0.113127
3.18303
-0.148967
3.5015
-0.186019
3.16037
-0.215217
2.35537
-0.23847
1.72095
-0.311727
1.2228
-0.67672
1.17416
-1.44423
1.77093
-2.03076
2.1292
-2.26945
1.96478
-2.38206
1.67257
1.39311
-2.44562
-0.00329357
0.345322
-0.0088841
0.883983
-0.0155545
1.30538
-0.0237003
1.63059
-0.0339083
1.93516
-0.0466627
2.22796
-0.0633416
2.53595
-0.0852455
2.86989
-0.114544
3.21232
-0.154058
3.54101
-0.199321
3.20564
-0.242192
2.39824
-0.279507
1.75826
-0.460485
1.40378
-1.09625
1.80993
-1.79273
2.4674
-2.11007
2.44654
-2.25736
2.11207
-2.33917
1.75438
1.45915
-2.4052
-0.00329972
0.348621
-0.00907353
0.889757
-0.0157178
1.31202
-0.0237125
1.63859
-0.0339475
1.9454
-0.0469308
2.24095
-0.0641796
2.5532
-0.087234
2.89294
-0.118582
3.24367
-0.162106
3.58454
-0.21356
3.25709
-0.258455
2.44314
-0.344679
1.84449
-0.740483
1.79958
-1.49283
2.56227
-1.96318
2.93776
-2.16282
2.64619
-2.26875
2.21799
-2.34593
1.83157
1.52237
-2.40916
-0.00335479
0.351976
-0.00907292
0.895475
-0.0160836
1.31903
-0.0247438
1.64725
-0.0357339
1.95639
-0.0494881
2.2547
-0.0676058
2.57132
-0.0917874
2.91712
-0.125065
3.27695
-0.172426
3.6319
-0.229743
3.31441
-0.291764
2.50516
-0.478023
2.03074
-1.04559
2.36715
-1.67993
3.19661
-1.95283
3.21065
-2.09925
2.79261
-2.21302
2.33175
-2.30664
1.92519
1.58391
-2.36818
-0.00349927
0.355475
-0.00993784
0.901914
-0.0173736
1.32647
-0.0262505
1.65613
-0.0374917
1.96763
-0.0517873
2.269
-0.0708257
2.59036
-0.0965278
2.94282
-0.132086
3.31251
-0.183642
3.68345
-0.246533
3.3773
-0.330601
2.58923
-0.61238
2.31252
-1.26383
3.0186
-1.75122
3.684
-1.9582
3.41764
-2.09752
2.93193
-2.22129
2.45553
-2.33144
2.03534
1.64252
-2.39004
-0.00342415
0.3589
-0.00967425
0.908164
-0.0175701
1.33437
-0.0273147
1.66587
-0.0394685
1.97978
-0.0546349
2.28416
-0.0746279
2.61035
-0.101491
2.96969
-0.138915
3.34993
-0.193588
3.73813
-0.2616
3.44531
-0.386251
2.71388
-0.773544
2.69982
-1.4102
3.65525
-1.76087
4.03468
-1.93337
3.59013
-2.03493
3.03349
-2.12341
2.544
-2.19014
2.10207
1.63514
-2.18277
-0.00345618
0.362356
-0.0106107
0.915318
-0.019019
1.34277
-0.0289487
1.6758
-0.0413483
1.99218
-0.0570718
2.29989
-0.078003
2.63128
-0.106419
2.9981
-0.146063
3.38958
-0.203433
3.7955
-0.282207
3.52408
-0.451175
2.88285
-0.904503
3.15314
-1.46108
4.21183
-1.72194
4.29554
-1.87311
3.7413
-1.96645
3.12683
-1.96727
2.54482
-1.89744
2.03224
1.59793
-1.86023
-0.00321529
0.365571
-0.00988165
0.921985
-0.0186934
1.35159
-0.0295657
1.68667
-0.0428817
2.0055
-0.0592972
2.3163
-0.0807515
2.65274
-0.109459
3.02681
-0.149391
3.42951
-0.206015
3.85212
-0.291834
3.6099
-0.496666
3.08768
-0.987943
3.64442
-1.42809
4.65197
-1.5923
4.45976
-1.65896
3.80796
-1.66321
3.13109
-1.51547
2.39708
-1.01582
1.53259
0.582108
-0.00284136
0.368412
-0.0107147
0.929858
-0.0201457
1.36102
-0.0312371
1.69776
-0.0450655
2.01933
-0.0625797
2.33382
-0.0858509
2.67601
-0.117472
3.05843
-0.161641
3.47368
-0.225772
3.91625
-0.328999
3.71313
-0.582718
3.3414
-1.12267
4.18437
-1.47992
5.00923
-1.57903
4.55887
-1.57687
3.80579
-1.4731
3.02732
-1.23428
2.15826
-0.630647
0.928959
-0.0485398
-0.00253142
0.370944
-0.00915124
0.936478
-0.0188716
1.37074
-0.0313071
1.7102
-0.0466902
2.03471
-0.0658208
2.35295
-0.0911033
2.70129
-0.125292
3.09262
-0.173632
3.52202
-0.243323
3.98594
-0.366155
3.83596
-0.681151
3.65639
-1.24142
4.74464
-1.50096
5.26876
-1.55928
4.61719
-1.53664
3.78315
-1.33475
2.82543
-0.781433
1.60494
-0.108386
0.255912
-0.156926
-0.00156798
0.372512
-0.00961201
0.944522
-0.0199336
1.38106
-0.0323764
1.72264
-0.0480425
2.05038
-0.0681547
2.37306
-0.095207
2.72834
-0.132401
3.12981
-0.184714
3.57433
-0.263163
4.06439
-0.412388
3.98519
-0.784458
4.02846
-1.31901
5.27919
-1.49463
5.44438
-1.52569
4.64825
-1.43732
3.69478
-1.10023
2.48834
-0.312442
0.817158
0.0247255
-0.0812563
-0.1322
-0.000963723
0.373476
-0.00658829
0.950146
-0.0167646
1.39124
-0.0306564
1.73653
-0.0479329
2.06765
-0.0696656
2.39479
-0.0987541
2.75743
-0.13834
3.1694
-0.193507
3.6295
-0.279897
4.15078
-0.455417
4.16071
-0.893637
4.46668
-1.36443
5.74998
-1.48029
5.56024
-1.48259
4.65055
-1.25785
3.47004
-0.68523
1.91572
-0.0627829
0.194711
0.0300686
-0.174108
-0.102132
5.33991e-05
0.373422
-0.00614179
0.956342
-0.016634
1.40173
-0.0302454
1.75014
-0.0472987
2.08471
-0.0698088
2.4173
-0.100354
2.78798
-0.142355
3.2114
-0.200971
3.68811
-0.296878
4.24669
-0.498599
4.36243
-0.986647
4.95473
-1.3595
6.12284
-1.4235
5.62425
-1.3771
4.60415
-1.08888
3.18182
-0.322009
1.14884
0.00468935
-0.131987
0.0148197
-0.184238
-0.0873119
0.00326789
0.370154
0.000597555
0.959012
-0.0100766
1.4124
-0.0252084
1.76528
-0.0436004
2.1031
-0.0676279
2.44133
-0.0998817
2.82023
-0.14374
3.25526
-0.20505
3.74942
-0.308842
4.35048
-0.536784
4.59037
-1.04891
5.46686
-1.32391
6.39784
-1.36422
5.66455
-1.22395
4.46389
-0.769797
2.72766
-0.0680303
0.447078
0.044449
-0.244466
0.0241894
-0.163978
-0.0631225
0.00426514
0.365889
0.00216637
0.961111
-0.00781535
1.42238
-0.0216303
1.77909
-0.0390072
2.12047
-0.0634613
2.46578
-0.0964654
2.85324
-0.141863
3.30065
-0.205811
3.81337
-0.317778
4.46245
-0.575556
4.84815
-1.07066
5.96196
-1.26025
6.58743
-1.26928
5.67358
-1.04942
4.24402
-0.459302
2.13754
-0.0183823
0.00615791
-0.00667059
-0.256178
0.00476357
-0.175413
-0.0583589
0.0086962
0.357193
0.0102929
0.959514
0.00343287
1.42924
-0.0104767
1.793
-0.0292537
2.13925
-0.0545427
2.49107
-0.0883139
2.88701
-0.134321
3.34666
-0.200003
3.87905
-0.31818
4.58062
-0.59792
5.12789
-1.04836
6.41241
-1.17209
6.71116
-1.15584
5.65733
-0.89565
3.98383
-0.262683
1.50458
-0.0699625
-0.186562
-0.0387042
-0.287436
-0.0143436
-0.199773
-0.0727026
0.0112589
0.345934
0.0155999
0.955173
0.0104352
1.43441
0.000272634
1.80316
-0.0181429
2.15767
-0.0424865
2.51542
-0.0756019
2.92012
-0.12148
3.39254
-0.187624
3.9452
-0.30979
4.70279
-0.596289
5.41439
-0.983925
6.80004
-1.04837
6.77561
-0.9792
5.58816
-0.675642
3.68027
-0.0694397
0.898374
0.0157261
-0.271728
0.000827063
-0.272537
-0.0014351
-0.197511
-0.0741376
0.0185426
0.327391
0.0304194
0.943296
0.0295673
1.43526
0.0185759
1.81416
0.000847477
2.1754
-0.0217383
2.538
-0.053937
2.95232
-0.0985957
3.4372
-0.163602
4.0102
-0.28564
4.82483
-0.566304
5.69505
-0.872831
7.10657
-0.907861
6.81064
-0.804461
5.48476
-0.443351
3.31916
0.068622
0.386401
0.0789829
-0.282089
0.0584641
-0.252019
0.0223294
-0.161376
-0.0518082
0.0241753
0.303216
0.042005
0.925466
0.04485
1.43242
0.0381359
1.82087
0.0257312
2.1878
0.00417976
2.55955
-0.025576
2.98208
-0.0672932
3.47892
-0.128725
4.07164
-0.244386
4.94049
-0.492869
5.94353
-0.713495
7.3272
-0.741894
6.83904
-0.638591
5.38145
-0.305754
2.98632
0.000520256
0.0801269
0.0191273
-0.300696
0.0298894
-0.262781
0.0147295
-0.146216
-0.0370787
0.0352349
0.267981
0.0656397
0.895062
0.0771538
1.4209
0.0740156
1.82401
0.0633019
2.19851
0.0443665
2.57849
0.017424
3.00902
-0.0209732
3.51731
-0.0767399
4.1274
-0.176965
5.04071
-0.3814
6.14797
-0.537038
7.48283
-0.559235
6.86124
-0.460242
5.28246
-0.183368
2.70945
-0.0726349
-0.030606
-0.0539338
-0.319397
-0.0207056
-0.296009
-0.00256361
-0.164358
-0.0396423
0.0446454
0.223336
0.0869096
0.852797
0.106812
1.401
0.1114
1.81942
0.107275
2.20264
0.093131
2.59263
0.0717716
3.03038
0.0399691
3.54912
-0.0102309
4.1776
-0.0852267
5.11571
-0.222219
6.28496
-0.311533
7.57215
-0.322541
6.87225
-0.26867
5.22859
-0.0797256
2.52051
-0.0949759
-0.0153557
-0.0707778
-0.343595
-0.0277083
-0.339078
0.000151494
-0.192218
-0.0394908
0.058212
0.165124
0.121065
0.789944
0.158393
1.36367
0.171174
1.80664
0.171241
2.20257
0.161568
2.60231
0.147072
3.04488
0.124279
3.57191
0.08847
4.21341
0.0399232
5.16426
-0.0166903
6.34157
-0.0487226
7.60418
-0.049582
6.87311
-0.0114243
5.19043
0.0499842
2.4591
-0.0882166
0.122845
-0.0915837
-0.340228
-0.0425769
-0.388085
0.0099167
-0.244712
-0.0295741
0.0602559
0.104868
0.150815
0.699385
0.207147
1.30734
0.234341
1.77945
0.246399
2.19051
0.245412
2.60329
0.238331
3.05196
0.226541
3.5837
0.20917
4.23078
0.18938
5.18405
0.239532
6.29142
0.282115
7.5616
0.289914
6.86531
0.187679
5.29267
-0.0684454
2.71522
-0.315764
0.370164
-0.350694
-0.305298
-0.263295
-0.475484
-0.107511
-0.400496
-0.137085
0.0499737
0.0548941
0.184313
0.565046
0.280933
1.21072
0.327268
1.73311
0.34726
2.17052
0.355223
2.59533
0.355605
3.05157
0.357251
3.58205
0.35951
4.22852
0.373601
5.16996
0.520563
6.14446
0.66358
7.41858
0.653838
6.87505
0.45263
5.49387
-0.0570516
3.2249
-0.563638
0.87675
-0.650083
-0.218853
-0.506654
-0.618914
-0.264737
-0.642413
-0.401822
0.03441
0.0204842
0.219148
0.380308
0.345745
1.08412
0.423693
1.65516
0.466435
2.12778
0.489273
2.57249
0.496941
3.04391
0.512069
3.56693
0.539406
4.20119
0.596431
5.11293
0.838657
5.90223
1.20341
7.05382
1.40345
6.67502
1.49017
5.40715
1.05584
3.65923
0.284558
1.64804
-0.252612
0.318317
-0.464009
-0.407516
-0.281379
-0.825043
-0.683201
0.0306661
-0.0101819
0.236318
0.174655
0.449628
0.870813
0.565191
1.5396
0.616438
2.07653
0.650401
2.53853
0.671447
3.02286
0.695873
3.5425
0.745837
4.15122
0.859103
4.99967
1.22044
5.54089
1.84447
6.4298
2.20778
6.31171
2.45264
5.16229
2.33429
3.77758
1.67717
2.30516
0.982313
1.01318
0.40997
0.164827
0.0996959
-0.514769
-0.583505
0.0244651
-0.034647
0.159855
0.0392653
0.494882
0.535786
0.693397
1.34108
0.794951
1.97498
0.844429
2.48905
0.881124
2.98616
0.909878
3.51375
0.981909
4.07919
1.11834
4.86323
1.50987
5.14937
2.29149
5.64818
2.6865
5.91669
2.86871
4.98008
2.73339
3.9129
2.22907
2.80948
1.60149
1.64075
1.05858
0.707735
0.427671
0.116142
-0.155834
0.00293388
-0.0375809
0.0797493
-0.0375501
0.413393
0.202142
0.713765
1.04071
0.853756
1.83499
0.89394
2.44887
0.899826
2.98028
0.882911
3.53066
0.881938
4.08016
0.924552
4.82062
1.08202
4.9919
1.52636
5.20383
1.70549
5.73756
1.74618
4.93939
1.65978
3.9993
1.41991
3.04935
1.02898
2.03169
0.612293
1.12442
0.255969
0.472467
0.100135
0.00414311
-0.041724
0.0451445
-0.0785515
0.218136
0.0291506
0.54651
0.712338
0.718208
1.66329
0.780373
2.3867
0.79766
2.96299
0.792581
3.53574
0.773941
4.0988
0.792512
4.80204
0.86798
4.91644
1.17059
4.90123
1.35958
5.54857
1.37286
4.92611
1.31142
4.06075
1.14825
3.21252
0.857234
2.3227
0.536989
1.44466
0.22676
0.782696
0.326895
0.00482292
-0.0465469
0.0228231
-0.0965516
0.0944202
-0.0424465
0.379719
0.427039
0.576903
1.46611
0.662506
2.3011
0.680429
2.94507
0.678256
3.53791
0.654247
4.12281
0.652442
4.80385
0.680775
4.8881
0.860143
4.72186
1.03872
5.37
1.03666
4.92816
0.977788
4.11962
0.854665
3.33564
0.648084
2.52928
0.401208
1.69154
0.161857
1.02205
0.488752
-0.00442198
-0.0421249
-0.00260898
-0.0983646
0.0318467
-0.0769021
0.238081
0.220805
0.439286
1.2649
0.543094
2.19729
0.566281
2.92188
0.564037
3.54016
0.536163
4.15069
0.517315
4.8227
0.522714
4.8827
0.627079
4.61749
0.764812
5.23226
0.755494
4.93748
0.694074
4.18104
0.59757
3.43214
0.452081
2.67477
0.269771
1.87385
0.0989043
1.19291
0.587656
-0.0126024
-0.0295225
-0.0106458
-0.100321
0.0143299
-0.101878
0.138794
0.0963405
0.319769
1.08393
0.413843