/*--------------------------------*- C++ -*----------------------------------*\
| =========                 |                                                 |
| \\      /  F ield         | OpenFOAM: The Open Source CFD Toolbox           |
|  \\    /   O peration     | Version:  4.0                                   |
|   \\  /    A nd           | Web:      www.OpenFOAM.org                      |
|    \\/     M anipulation  |                                                 |
\*---------------------------------------------------------------------------*/
FoamFile
{
    version     2.0;
    format      ascii;
    class       volVectorField;
    location    "64";
    object      U;
}
// * * * * * * * * * * * * * * * * * * * * * * * * * * * * * * * * * * * * * //

dimensions      [0 1 -1 0 0 0 0];

internalField   nonuniform List<vector> 
2200
(
(0.878842 -0.0304106 0)
(1.00579 -0.0512779 0)
(1.00328 -0.0353906 0)
(1.00027 -0.0244282 0)
(0.99989 -0.0166468 0)
(1.00004 -0.0107206 0)
(1.00002 -0.00682539 0)
(0.999985 -0.00418988 0)
(0.99991 -0.00217847 0)
(1.00019 -0.000612658 0)
(1.00012 0.00113779 0)
(1.00033 0.00263862 0)
(1.00035 0.00453627 0)
(1.00026 0.00712399 0)
(1.00015 0.0108484 0)
(1.00007 0.0166684 0)
(1.00037 0.0243758 0)
(1.00347 0.0348539 0)
(1.00599 0.0513829 0)
(0.879056 0.0302937 0)
(0.712032 -0.0327628 0)
(0.996653 -0.063007 0)
(1.03334 -0.0561471 0)
(1.02491 -0.0464104 0)
(1.01587 -0.0360946 0)
(1.00963 -0.0263501 0)
(1.00591 -0.0181126 0)
(1.00379 -0.0113937 0)
(1.00268 -0.00601417 0)
(1.00214 -0.00157044 0)
(1.00187 0.00250737 0)
(1.00205 0.00701232 0)
(1.00325 0.0123149 0)
(1.00546 0.0189105 0)
(1.00933 0.0272226 0)
(1.01544 0.0369683 0)
(1.02455 0.0474767 0)
(1.03315 0.0580219 0)
(0.996708 0.0631388 0)
(0.711774 0.0330392 0)
(0.535567 -0.0238932 0)
(0.969932 -0.0569303 0)
(1.05645 -0.0547258 0)
(1.05228 -0.0487518 0)
(1.03629 -0.0404218 0)
(1.02448 -0.0322531 0)
(1.01593 -0.0239683 0)
(1.0104 -0.0160744 0)
(1.00713 -0.00878829 0)
(1.00552 -0.00210483 0)
(1.00579 0.00436173 0)
(1.00745 0.0107943 0)
(1.01052 0.0177841 0)
(1.01582 0.0254529 0)
(1.02415 0.0334177 0)
(1.03618 0.041387 0)
(1.05226 0.049387 0)
(1.05632 0.0532415 0)
(0.969212 0.0576463 0)
(0.534397 0.0239384 0)
(0.392364 -0.0136446 0)
(0.911866 -0.0463776 0)
(1.05753 -0.0468747 0)
(1.06958 -0.0442777 0)
(1.05489 -0.0381396 0)
(1.03935 -0.031458 0)
(1.02756 -0.0246705 0)
(1.0191 -0.0174492 0)
(1.01378 -0.00994817 0)
(1.01121 -0.00242862 0)
(1.01074 0.00502654 0)
(1.01285 0.0125625 0)
(1.01807 0.0198719 0)
(1.02654 0.0267085 0)
(1.03845 0.0331351 0)
(1.05396 0.039605 0)
(1.06817 0.0456818 0)
(1.05547 0.0483165 0)
(0.909889 0.0470089 0)
(0.389912 0.01378 0)
(0.307769 -0.00451195 0)
(0.846796 -0.0323713 0)
(1.04943 -0.0399136 0)
(1.07951 -0.038161 0)
(1.06825 -0.0335007 0)
(1.05172 -0.0278898 0)
(1.03836 -0.0224791 0)
(1.02812 -0.0164078 0)
(1.02098 -0.00950528 0)
(1.01696 -0.00182065 0)
(1.01703 0.00613968 0)
(1.02078 0.0133858 0)
(1.02752 0.0197372 0)
(1.03733 0.0254376 0)
(1.05022 0.0303506 0)
(1.06666 0.0356688 0)
(1.0777 0.040037 0)
(1.04729 0.0417581 0)
(0.842968 0.0329753 0)
(0.303712 0.00474045 0)
(0.264365 0.000101408 0)
(0.789106 -0.0200683 0)
(1.03348 -0.031452 0)
(1.08363 -0.0320211 0)
(1.07734 -0.028732 0)
(1.06087 -0.0238264 0)
(1.04725 -0.0193375 0)
(1.03641 -0.0142421 0)
(1.02865 -0.00817125 0)
(1.02433 -0.00123481 0)
(1.02371 0.00610155 0)
(1.02706 0.0128368 0)
(1.03435 0.0186137 0)
(1.04502 0.0231323 0)
(1.05864 0.0271317 0)
(1.07489 0.0315524 0)
(1.08036 0.0342462 0)
(1.02922 0.0333543 0)
(0.782578 0.0207343 0)
(0.258697 0.000122347 0)
(0.240443 0.00107091 0)
(0.738507 -0.012269 0)
(1.01379 -0.0249575 0)
(1.08413 -0.0267118 0)
(1.08311 -0.0244105 0)
(1.0679 -0.0202615 0)
(1.05432 -0.0162414 0)
(1.04337 -0.0116825 0)
(1.03508 -0.00627142 0)
(1.02997 0.000207957 0)
(1.02966 0.00691681 0)
(1.03409 0.0128616 0)
(1.04159 0.0174187 0)
(1.05176 0.021387 0)
(1.06477 0.0247277 0)
(1.07946 0.0281716 0)
(1.07987 0.0297597 0)
(1.00751 0.0272728 0)
(0.728813 0.0131597 0)
(0.233036 -0.000831619 0)
(0.226157 0.000962192 0)
(0.695703 -0.00802112 0)
(0.993265 -0.0207054 0)
(1.08235 -0.0230719 0)
(1.08693 -0.0212196 0)
(1.07346 -0.0176543 0)
(1.06004 -0.0138203 0)
(1.0495 -0.0095375 0)
(1.04161 -0.00459891 0)
(1.03684 0.000991086 0)
(1.03594 0.00704338 0)
(1.03891 0.0122113 0)
(1.04574 0.0167368 0)
(1.0558 0.0200927 0)
(1.06921 0.0231024 0)
(1.08191 0.0258324 0)
(1.07564 0.0267829 0)
(0.983252 0.0234678 0)
(0.681716 0.00913112 0)
(0.216576 -0.000709966 0)
(0.216604 0.000623506 0)
(0.660337 -0.00565707 0)
(0.972734 -0.017584 0)
(1.0796 -0.0201393 0)
(1.09035 -0.0185503 0)
(1.07832 -0.0153896 0)
(1.06488 -0.0117566 0)
(1.05428 -0.00750853 0)
(1.04619 -0.00259711 0)
(1.04092 0.00290798 0)
(1.04008 0.00819187 0)
(1.04402 0.0130137 0)
(1.05082 0.016539 0)
(1.06013 0.0198219 0)
(1.07255 0.0224927 0)
(1.08339 0.0246193 0)
(1.07089 0.0250749 0)
(0.959174 0.0210407 0)
(0.64159 0.00707952 0)
(0.204466 -0.000334445 0)
(0.209469 0.000300616 0)
(0.631898 -0.00419567 0)
(0.954035 -0.0149702 0)
(1.07665 -0.0178802 0)
(1.0935 -0.0165235 0)
(1.08304 -0.0135588 0)
(1.06968 -0.00989386 0)
(1.05935 -0.00585581 0)
(1.05171 -0.00123907 0)
(1.04688 0.00371551 0)
(1.04539 0.00886724 0)
(1.04737 0.013247 0)
(1.05307 0.0171373 0)
(1.06246 0.0198457 0)
(1.07546 0.0222241 0)
(1.08434 0.0239512 0)
(1.06376 0.0238938 0)
(0.934285 0.0191666 0)
(0.606583 0.00595258 0)
(0.193981 4.53224e-05 0)
(0.203644 8.5368e-05 0)
(0.608596 -0.00313633 0)
(0.936009 -0.0125263 0)
(1.07349 -0.0155315 0)
(1.0969 -0.0143601 0)
(1.08779 -0.0115577 0)
(1.07418 -0.00801545 0)
(1.06328 -0.00390079 0)
(1.05494 0.000857868 0)
(1.04937 0.00605637 0)
(1.04787 0.0108018 0)
(1.05095 0.0148475 0)
(1.05715 0.017734 0)
(1.06601 0.0204495 0)
(1.07792 0.0225761 0)
(1.08466 0.0237904 0)
(1.0571 0.0230777 0)
(0.910544 0.0176449 0)
(0.576297 0.00528894 0)
(0.184338 0.000323093 0)
(0.199156 1.30021e-05 0)
(0.590591 -0.00226638 0)
(0.920823 -0.0101705 0)
(1.07066 -0.013342 0)
(1.10027 -0.0122688 0)
(1.0927 -0.00954486 0)
(1.07912 -0.00592227 0)
(1.06832 -0.00200459 0)
(1.06028 0.00248967 0)
(1.05484 0.00725209 0)
(1.0524 0.012058 0)
(1.05354 0.0160809 0)
(1.05857 0.0193224 0)
(1.06768 0.021354 0)
(1.08018 0.0230462 0)
(1.08437 0.0238884 0)
(1.04772 0.0226037 0)
(0.885685 0.0164572 0)
(0.548479 0.00493144 0)
(0.174823 0.00049644 0)
(0.195585 2.99221e-05 0)
(0.575861 -0.00154824 0)
(0.906256 -0.00808366 0)
(1.06785 -0.0109719 0)
(1.10386 -0.00984659 0)
(1.09772 -0.00706519 0)
(1.08399 -0.00347935 0)
(1.07244 0.000593515 0)
(1.06319 0.00524972 0)
(1.0567 0.0104188 0)
(1.05423 0.0150095 0)
(1.05642 0.0184626 0)
(1.06213 0.0206989 0)
(1.07077 0.0226406 0)
(1.08162 0.023956 0)
(1.08357 0.0243555 0)
(1.03881 0.0224419 0)
(0.861821 0.0156211 0)
(0.523316 0.00476916 0)
(0.165625 0.000582852 0)
(0.193536 6.38818e-05 0)
(0.565487 -0.000756504 0)
(0.895156 -0.00586525 0)
(1.06574 -0.00866433 0)
(1.10761 -0.00742104 0)
(1.10295 -0.00459424 0)
(1.0892 -0.000863529 0)
(1.07763 0.00311821 0)
(1.06864 0.00765996 0)
(1.06212 0.0124598 0)
(1.0583 0.0169737 0)
(1.05842 0.0205668 0)
(1.06279 0.0230274 0)
(1.07158 0.0242428 0)
(1.0827 0.0251082 0)
(1.08151 0.0250535 0)
(1.02656 0.0226017 0)
(0.836118 0.0151329 0)
(0.498655 0.00470942 0)
(0.156264 0.000620945 0)
(0.192703 0.000106565 0)
(0.558053 -0.000196427 0)
(0.884896 -0.00384338 0)
(1.06402 -0.00592068 0)
(1.11156 -0.00439657 0)
(1.1083 -0.0012441 0)
(1.09458 0.00266054 0)
(1.08232 0.00697035 0)
(1.07201 0.0117936 0)
(1.06376 0.0167776 0)
(1.05994 0.0209944 0)
(1.06104 0.0237732 0)
(1.06603 0.0252979 0)
(1.07416 0.0264602 0)
(1.08255 0.0268692 0)
(1.07898 0.0263293 0)
(1.01472 0.0232122 0)
(0.811085 0.0149664 0)
(0.475379 0.00476393 0)
(0.147107 0.000642657 0)
(0.193345 8.96021e-05 0)
(0.553945 0.000871797 0)
(0.878856 -0.00148792 0)
(1.06366 -0.00322982 0)
(1.11617 -0.00133649 0)
(1.11424 0.00196727 0)
(1.10031 0.00614167 0)
(1.08773 0.0104661 0)
(1.07736 0.0151669 0)
(1.0693 0.0200416 0)
(1.06386 0.0243485 0)
(1.06234 0.0271312 0)
(1.06544 0.0285991 0)
(1.0736 0.0290506 0)
(1.08252 0.029184 0)
(1.0742 0.0281595 0)
(0.999046 0.0241475 0)
(0.783602 0.0151611 0)
(0.451326 0.00491983 0)
(0.137509 0.000660811 0)
(0.195483 0.000253619 0)
(0.554262 0.00153927 0)
(0.874144 0.000623872 0)
(1.0644 -1.82648e-05 0)
(1.12132 0.00225445 0)
(1.12055 0.00601877 0)
(1.1066 0.0105773 0)
(1.09342 0.0156109 0)
(1.08188 0.0210082 0)
(1.07177 0.0262143 0)
(1.06555 0.0298463 0)
(1.06473 0.0318017 0)
(1.0684 0.0328509 0)
(1.07551 0.0331396 0)
(1.08067 0.0323858 0)
(1.06899 0.0306113 0)
(0.983431 0.0256713 0)
(0.756153 0.0157269 0)
(0.427535 0.00520492 0)
(0.127793 0.000689165 0)
(0.19973 0.000674806 0)
(0.557019 0.00237702 0)
(0.874621 0.00340481 0)
(1.06707 0.00346943 0)
(1.12741 0.00640926 0)
(1.12762 0.0104914 0)
(1.11316 0.0155811 0)
(1.09915 0.0207844 0)
(1.08678 0.0260881 0)
(1.07603 0.030995 0)
(1.06839 0.0351514 0)
(1.06499 0.0372245 0)
(1.06611 0.0376259 0)
(1.07315 0.0367866 0)
(1.07904 0.0363027 0)
(1.0611 0.033677 0)
(0.963147 0.027574 0)
(0.725278 0.0166741 0)
(0.401739 0.00558213 0)
(0.117226 0.000713672 0)
(0.206215 0.000879302 0)
(0.563961 0.0034991 0)
(0.878519 0.00585457 0)
(1.07187 0.00761742 0)
(1.13437 0.0111383 0)
(1.13557 0.0158728 0)
(1.12082 0.0214106 0)
(1.10607 0.0274805 0)
(1.09264 0.0338782 0)
(1.08037 0.0398711 0)
(1.07079 0.0431883 0)
(1.06681 0.0439616 0)
(1.06833 0.04383 0)
(1.07385 0.0434963 0)
(1.07491 0.0412474 0)
(1.0521 0.0376786 0)
(0.942387 0.0303124 0)
(0.693309 0.0180186 0)
(0.375009 0.00608201 0)
(0.106166 0.000749215 0)
(0.214673 0.00106097 0)
(0.57513 0.00478939 0)
(0.886791 0.00907022 0)
(1.07956 0.0122982 0)
(1.14284 0.0169954 0)
(1.14447 0.0224507 0)
(1.12888 0.0290234 0)
(1.11297 0.0355984 0)
(1.09782 0.041965 0)
(1.08297 0.0470337 0)
(1.07146 0.0504873 0)
(1.0658 0.0519327 0)
(1.06507 0.0512817 0)
(1.06944 0.0489281 0)
(1.07108 0.0471674 0)
(1.03983 0.0424022 0)
(0.915518 0.0332708 0)
(0.656489 0.0196446 0)
(0.345126 0.00658979 0)
(0.09395 0.000763617 0)
(0.227183 0.00142177 0)
(0.593881 0.00672637 0)
(0.902232 0.0133626 0)
(1.09068 0.0184915 0)
(1.15309 0.0240057 0)
(1.15502 0.0304273 0)
(1.13845 0.0377005 0)
(1.12092 0.0451805 0)
(1.10382 0.0526298 0)
(1.08761 0.0592062 0)
(1.07436 0.0628327 0)
(1.0666 0.0619823 0)
(1.06514 0.0603963 0)
(1.06858 0.058322 0)
(1.06379 0.0543822 0)
(1.02538 0.0482172 0)
(0.88724 0.0374401 0)
(0.617304 0.021653 0)
(0.313348 0.00716791 0)
(0.0810975 0.00078018 0)
(0.242764 0.00195324 0)
(0.616715 0.00853377 0)
(0.922599 0.0178445 0)
(1.10606 0.0252553 0)
(1.16577 0.0327323 0)
(1.16705 0.0404341 0)
(1.14862 0.049315 0)
(1.12914 0.0577521 0)
(1.10974 0.0655231 0)
(1.08995 0.0709046 0)
(1.07245 0.072426 0)
(1.0637 0.0722602 0)
(1.06087 0.0701176 0)
(1.06134 0.0663649 0)
(1.0568 0.0625149 0)
(1.00692 0.0549145 0)
(0.850626 0.0414359 0)
(0.571045 0.0236753 0)
(0.27744 0.00762353 0)
(0.0670421 0.000765392 0)
(0.265023 0.00282308 0)
(0.65042 0.0123943 0)
(0.952108 0.0249842 0)
(1.12605 0.0352319 0)
(1.18114 0.0437288 0)
(1.18135 0.0534494 0)
(1.16057 0.0633075 0)
(1.13816 0.0726763 0)
(1.1152 0.0807861 0)
(1.09254 0.0866934 0)
(1.07451 0.0893917 0)
(1.06296 0.0871381 0)
(1.05807 0.0830322 0)
(1.05893 0.078642 0)
(1.04498 0.0724024 0)
(0.98419 0.0624334 0)
(0.811379 0.0467216 0)
(0.521842 0.0259588 0)
(0.239634 0.0079998 0)
(0.0526987 0.000745049 0)
(0.296243 0.00373181 0)
(0.69544 0.015459 0)
(0.990979 0.0328861 0)
(1.15269 0.0466903 0)
(1.20035 0.058308 0)
(1.19795 0.0700439 0)
(1.1735 0.0816967 0)
(1.14781 0.0918692 0)
(1.12197 0.100295 0)
(1.09594 0.105022 0)
(1.0722 0.104264 0)
(1.05796 0.100296 0)
(1.05224 0.0958796 0)
(1.04801 0.089911 0)
(1.03321 0.0828759 0)
(0.956694 0.0711423 0)
(0.760955 0.0513438 0)
(0.462372 0.0276499 0)
(0.197141 0.00801855 0)
(0.0374425 0.000637893 0)
(0.332744 0.00709786 0)
(0.753382 0.0247829 0)
(1.04024 0.0465882 0)
(1.18512 0.0646805 0)
(1.22316 0.0776206 0)
(1.21637 0.0924994 0)
(1.18716 0.105109 0)
(1.15706 0.115496 0)
(1.12609 0.122748 0)
(1.09494 0.125669 0)
(1.06979 0.124062 0)
(1.05462 0.119448 0)
(1.04684 0.11258 0)
(1.04321 0.105284 0)
(1.01469 0.0957162 0)
(0.921323 0.0797481 0)
(0.705788 0.056957 0)
(0.401458 0.0294783 0)
(0.154893 0.00787105 0)
(0.0235887 0.000584874 0)
(0.412947 0.0107314 0)
(0.841187 0.0357221 0)
(1.10679 0.0676598 0)
(1.22558 0.0904205 0)
(1.25015 0.10672 6.16507e-34)
(1.2363 0.123305 -2.78512e-34)
(1.20068 0.135808 0)
(1.1657 0.144905 0)
(1.13078 0.150551 0)
(1.09667 0.151261 0)
(1.06745 0.146573 0)
(1.0481 0.137751 0)
(1.038 0.129113 0)
(1.02678 0.119592 0)
(0.994473 0.10771 0)
(0.879928 0.0893116 0)
(0.636451 0.0605719 0)
(0.325382 0.0291014 0)
(0.105595 0.00729251 0)
(0.00831055 0.000756855 0)
(0.484114 0.0259104 4.5003e-20)
(0.943524 0.060062 -3.41083e-20)
(1.17765 0.102075 0)
(1.26725 0.129315 2.6557e-20)
(1.2788 0.144946 -2.1536e-20)
(1.25563 0.163519 2.93857e-34)
(1.21318 0.174146 0)
(1.17305 0.181118 1.57114e-20)
(1.13245 0.183922 -5.16309e-20)
(1.09209 0.181189 1.05535e-20)
(1.05845 0.172483 0)
(1.03873 0.162332 -2.68683e-20)
(1.02777 0.152052 -3.23297e-20)
(1.0164 0.141153 5.66232e-20)
(0.959703 0.125815 -4.47209e-20)
(0.811833 0.0986258 0)
(0.538431 0.0633969 -1.60782e-20)
(0.237072 0.0274861 0)
(0.0561198 0.00692476 -8.88501e-20)
(-0.00809647 0.00040238 1.04713e-19)
(0.520468 0.0538481 -5.94023e-21)
(1.00919 0.10253 1.006e-19)
(1.22923 0.152852 -5.21786e-21)
(1.30152 0.177289 -6.45584e-20)
(1.30379 0.1948 -4.55035e-20)
(1.27157 0.211565 7.40401e-20)
(1.22269 0.219398 0)
(1.17675 0.223687 0)
(1.1307 0.223863 8.20258e-20)
(1.08619 0.21825 0)
(1.05031 0.207788 9.67824e-20)
(1.02659 0.195346 2.88299e-20)
(1.00968 0.181726 5.17976e-22)
(0.983177 0.166031 -6.14122e-20)
(0.916989 0.144772 0)
(0.745857 0.112606 0)
(0.459404 0.0662374 -2.61664e-19)
(0.177568 0.0254669 6.58016e-19)
(0.0236696 0.00490925 -3.88953e-19)
(-0.0198129 -0.00144632 -4.58076e-19)
(0.527606 0.0766957 -5.4388e-20)
(1.04455 0.159765 2.11652e-20)
(1.26502 0.213054 1.18618e-20)
(1.32816 0.236534 1.12256e-19)
(1.32343 0.252707 1.45978e-20)
(1.28388 0.264946 -1.92592e-19)
(1.22934 0.268719 6.58571e-20)
(1.17826 0.269447 0)
(1.12701 0.265826 -1.73213e-19)
(1.0771 0.256421 1.54309e-19)
(1.03567 0.24246 -2.61182e-19)
(1.00704 0.225332 1.22474e-19)
(0.989183 0.209469 -7.94216e-20)
(0.96509 0.194049 1.79069e-19)
(0.88296 0.169118 0)
(0.697886 0.125726 -6.52257e-20)
(0.411206 0.0706566 0)
(0.15589 0.0256847 3.58875e-19)
(0.0129458 0.0032012 -8.50331e-19)
(-0.024381 -0.00336641 5.32343e-19)
(0.524445 0.108227 1.42116e-19)
(1.06816 0.217693 -6.31479e-20)
(1.28839 0.278902 -1.37801e-20)
(1.34577 0.301487 0)
(1.33591 0.315169 -8.33237e-20)
(1.29105 0.322284 1.02943e-19)
(1.23181 0.321245 -7.03538e-20)
(1.17568 0.317645 0)
(1.11938 0.310228 1.23025e-19)
(1.06508 0.297015 -1.08365e-19)
(1.01949 0.278024 2.25796e-19)
(0.990319 0.258215 0)
(0.968592 0.240851 -1.68718e-19)
(0.931751 0.220011 9.50968e-20)
(0.849299 0.188745 2.39245e-19)
(0.664482 0.141093 -2.105e-19)
(0.391396 0.0792115 3.32379e-19)
(0.15205 0.0288235 -7.35191e-19)
(0.0116752 0.00248982 4.65055e-19)
(-0.0259395 -0.00527278 -5.81728e-19)
(0.510966 0.132247 -4.28602e-20)
(1.07223 0.270067 3.03463e-20)
(1.29798 0.343843 -4.60161e-20)
(1.3548 0.367169 9.46629e-20)
(1.34185 0.379056 -9.11129e-20)
(1.29343 0.380907 3.21751e-20)
(1.23059 0.375073 3.75641e-21)
(1.17069 0.367237 -1.38125e-19)
(1.11052 0.355099 -1.28595e-19)
(1.05227 0.33699 -2.32187e-19)
(1.00341 0.314408 -4.85401e-19)
(0.968339 0.292282 -1.49819e-19)
(0.944388 0.271536 2.21749e-21)
(0.914433 0.249581 -3.25385e-19)
(0.82479 0.217129 -5.17404e-21)
(0.641989 0.158712 3.06188e-19)
(0.38429 0.0900386 -9.19079e-20)
(0.156207 0.0349786 -5.32269e-20)
(0.0180682 0.00297017 0)
(-0.0238549 -0.00610273 1.23664e-18)
(0.495526 0.153607 0)
(1.07003 0.321429 -3.41168e-22)
(1.30144 0.40811 -6.36179e-21)
(1.35731 0.431464 -1.29413e-20)
(1.34184 0.441684 8.69793e-20)
(1.29091 0.439278 -7.55991e-20)
(1.22528 0.429139 7.65195e-20)
(1.16226 0.416739 2.26941e-19)
(1.09894 0.400302 -7.15322e-20)
(1.03724 0.377894 1.14479e-19)
(0.983618 0.350707 2.60864e-19)
(0.947573 0.324828 3.267e-19)
(0.921992 0.303327 -1.96882e-19)
(0.880605 0.277327 3.52426e-19)
(0.796412 0.237702 -2.79327e-19)
(0.622144 0.179648 0)
(0.380005 0.104645 -6.97944e-19)
(0.165724 0.043533 9.39442e-19)
(0.0289998 0.00636756 7.01119e-20)
(-0.0191457 -0.00599149 -1.30818e-18)
(0.478852 0.172968 -5.1156e-21)
(1.05824 0.367576 -1.94105e-20)
(1.29705 0.467842 4.58023e-20)
(1.3544 0.493292 -6.94218e-20)
(1.33713 0.503056 7.34003e-20)
(1.2845 0.496369 -7.25685e-20)
(1.217 0.481973 1.50808e-19)
(1.15174 0.46554 -6.75221e-20)
(1.08519 0.444842 -2.88647e-19)
(1.01888 0.417819 -3.12429e-22)
(0.962143 0.386902 -2.83891e-19)
(0.923511 0.359414 -3.5179e-19)
(0.895284 0.333411 2.17672e-19)
(0.861967 0.306915 -1.26802e-19)
(0.774144 0.267634 3.04089e-19)
(0.606817 0.199028 0)
(0.378666 0.120668 -4.34027e-19)
(0.175213 0.0534598 6.4106e-19)
(0.040039 0.0111746 1.2123e-18)
(-0.0138501 -0.00515746 -1.42574e-18)
(0.465668 0.19117 -9.66735e-20)
(1.04851 0.413953 4.30279e-20)
(1.29083 0.526517 -2.55908e-20)
(1.34789 0.552623 7.11999e-20)
(1.329 0.56115 1.21886e-20)
(1.27508 0.551117 -1.41466e-19)
(1.20578 0.53346 -8.79494e-20)
(1.13803 0.513309 -8.72558e-20)
(1.06877 0.488892 -1.63552e-19)
(1.00065 0.458106 2.62993e-19)
(0.942534 0.42294 2.86553e-19)
(0.901945 0.391443 5.58159e-19)
(0.87157 0.364326 0)
(0.828244 0.335017 6.47831e-21)
(0.747746 0.287937 -8.36498e-19)
(0.590409 0.221315 1.96392e-19)
(0.376536 0.136853 9.4227e-19)
(0.183717 0.0646384 -2.78086e-19)
(0.0508431 0.0171267 5.76863e-19)
(-0.00831709 -0.003627 -4.80642e-20)
(0.453478 0.207981 5.83032e-21)
(1.03327 0.454456 6.15884e-20)
(1.28014 0.580254 -5.45667e-21)
(1.33828 0.608986 6.81405e-20)
(1.31806 0.617495 -1.36014e-19)
(1.26302 0.60407 1.39725e-19)
(1.19243 0.582953 9.10073e-20)
(1.12336 0.559378 2.59897e-19)
(1.05236 0.531208 3.27253e-19)
(0.981164 0.496019 -3.04748e-19)
(0.919548 0.457321 0)
(0.875725 0.423563 -2.11708e-19)
(0.844993 0.392524 2.43066e-19)
(0.810257 0.361598 3.07234e-19)
(0.726867 0.317631 -1.77831e-19)
(0.575716 0.240338 -4.3223e-19)
(0.373572 0.153441 -1.28757e-19)
(0.190146 0.0759813 -2.00228e-21)
(0.0598057 0.0235072 0)
(-0.00340375 -0.00184158 0)
(0.445615 0.224616 -8.68456e-20)
(1.02257 0.496081 0)
(1.26947 0.633015 9.96409e-21)
(1.32674 0.662818 -1.70519e-20)
(1.30537 0.670067 1.5681e-19)
(1.24956 0.653948 -3.93635e-20)
(1.17793 0.630349 9.2459e-20)
(1.10741 0.603773 -1.75557e-19)
(1.03447 0.572553 2.48106e-19)
(0.961299 0.534282 -1.00998e-19)
(0.897932 0.492472 1.6449e-19)
(0.853749 0.454242 6.72161e-19)
(0.82107 0.422183 1.43389e-20)
(0.777315 0.388187 -3.20772e-19)
(0.701739 0.335223 5.94079e-19)
(0.558528 0.262222 3.51932e-21)
(0.368452 0.168821 1.37752e-19)
(0.1936 0.0873121 -6.56672e-19)
(0.0661091 0.0294764 6.76674e-19)
(0.000507875 -7.24568e-05 -7.97144e-19)
(0.437782 0.240867 2.42393e-23)
(1.00832 0.53206 0)
(1.25608 0.680634 0)
(1.31352 0.713534 2.69522e-21)
(1.29126 0.720824 -4.50687e-20)
(1.23475 0.701982 6.45179e-20)
(1.16242 0.675515 -1.70683e-19)
(1.09112 0.646114 0)
(1.01666 0.611989 -3.66235e-19)
(0.94071 0.570222 4.41998e-19)
(0.874295 0.524597 4.70621e-19)
(0.827423 0.483507 -2.46842e-19)
(0.794053 0.447955 -2.99399e-19)
(0.759066 0.411616 7.02342e-19)
(0.680282 0.363127 -2.1133e-19)
(0.541587 0.27851 -2.51804e-19)
(0.360508 0.18329 -1.50547e-19)
(0.193363 0.0968107 -7.09793e-19)
(0.0695232 0.03452 1.04054e-19)
(0.00333084 0.00142433 8.63296e-19)
(0.432852 0.258414 -4.17881e-20)
(0.99834 0.569644 -5.64031e-20)
(1.24349 0.727544 2.37553e-20)
(1.29957 0.761734 -2.0495e-22)
(1.27659 0.767724 -5.07742e-20)
(1.21968 0.746688 1.01208e-19)
(1.14674 0.718338 0)
(1.07428 0.686658 1.06591e-19)
(0.998105 0.650146 -8.40475e-20)
(0.920776 0.605933 7.38274e-19)
(0.852697 0.557555 -1.06237e-19)
(0.804987 0.513071 1.22325e-19)
(0.770236 0.475351 0)
(0.72627 0.435507 -3.8046e-19)
(0.654401 0.376201 4.6117e-19)
(0.522721 0.297252 0)
(0.350559 0.195222 -3.24132e-19)
(0.190485 0.104849 9.54127e-19)
(0.070138 0.0384094 1.13415e-19)
(0.00496872 0.00245884 -1.06438e-18)
(0.429263 0.275573 -1.03734e-19)
(0.986128 0.602081 1.31925e-19)
(1.22924 0.769426 0)
(1.28501 0.806653 2.57114e-20)
(1.2614 0.81286 0)
(1.20391 0.789731 -1.34021e-19)
(1.13046 0.75904 0)
(1.0574 0.725044 0)
(0.979946 0.686291 -1.12241e-19)
(0.900001 0.639506 -7.02018e-19)
(0.82849 0.587914 -8.70561e-19)
(0.778014 0.53977 1.43501e-19)
(0.742501 0.497738 5.1856e-19)
(0.707698 0.454905 4.19517e-19)
(0.632429 0.400612 -1.48021e-18)
(0.504131 0.308278 -5.91752e-19)
(0.338903 0.205801 3.46961e-19)
(0.185152 0.110832 0)
(0.0688322 0.0407907 9.72858e-19)
(0.00558031 0.00314099 -1.1477e-18)
(0.427413 0.291134 1.22572e-19)
(0.977637 0.636058 -1.52231e-19)
(1.21629 0.810973 0)
(1.27038 0.849258 -1.1327e-20)
(1.24616 0.854306 -4.71899e-21)
(1.18841 0.829445 0)
(1.11458 0.797338 5.28189e-20)
(1.0406 0.76167 7.46084e-20)
(0.961733 0.721173 -2.10497e-19)
(0.880655 0.672641 9.28172e-20)
(0.807521 0.618347 0)
(0.75544 0.567287 5.94823e-19)
(0.718674 0.522957 6.00124e-21)
(0.674166 0.475568 2.26441e-19)
(0.606518 0.407568 2.68633e-19)
(0.484126 0.321926 0)
(0.326505 0.212638 -5.65084e-19)
(0.178236 0.115015 1.10694e-18)
(0.0664389 0.0420135 -1.17429e-18)
(0.00546922 0.00349344 2.47241e-18)
(0.425742 0.305972 0)
(0.966853 0.665009 0)
(1.20237 0.847575 -7.52402e-20)
(1.25572 0.888639 0)
(1.23091 0.894095 0)
(1.17264 0.867691 -1.07271e-19)
(1.09847 0.833726 5.40239e-20)
(1.02419 0.796206 1.78493e-20)
(0.944357 0.754071 -4.78973e-20)
(0.860626 0.703735 0)
(0.783549 0.647037 -1.33094e-19)
(0.727911 0.592765 -4.85271e-19)
(0.689085 0.541772 -5.85074e-19)
(0.654652 0.489926 -2.35479e-19)
(0.583934 0.427325 2.90902e-19)
(0.465083 0.325767 -6.85239e-19)
(0.314368 0.217257 1.21631e-18)
(0.17102 0.116245 1.56666e-21)
(0.0634575 0.0427472 -1.12355e-18)
(0.00526808 0.00387672 -1.66725e-19)
(0.42464 0.320122 0)
(0.959315 0.695862 -1.23112e-19)
(1.18997 0.884257 9.1167e-20)
(1.24132 0.926097 0)
(1.21593 0.930504 0)
(1.15753 0.902734 2.13287e-19)
(1.08327 0.86775 0)
(1.00834 0.829082 0)
(0.927171 0.78579 -4.62425e-19)
(0.842046 0.734367 1.2925e-19)
(0.763242 0.675563 -1.18007e-18)
(0.70512 0.618133 0)
(0.664795 0.56522 -6.3703e-19)
(0.619273 0.507224 1.01611e-20)
(0.556539 0.426244 -9.36779e-19)
(0.44499 0.332012 3.68478e-19)
(0.303218 0.216484 1.22422e-21)
(0.167598 0.114309 -1.26512e-18)
(0.0619733 0.0410386 6.04474e-19)
(0.00337162 0.00165886 1.78297e-19)
(0.423336 0.33407 0)
(0.949821 0.722037 -1.66988e-19)
(1.17692 0.916247 9.59918e-20)
(1.22726 0.960521 1.34001e-19)
(1.20133 0.965412 -6.27695e-21)
(1.14253 0.936516 2.10668e-20)
(1.0681 0.90011 -3.0584e-20)
(0.992977 0.86001 4.371e-19)
(0.910915 0.815539 4.94663e-19)
(0.823235 0.76291 9.83355e-19)
(0.740512 0.702857 9.80458e-19)
(0.677653 0.642788 1.72779e-19)
(0.632926 0.582293 9.16256e-19)
(0.597362 0.516736 5.6668e-19)
(0.531085 0.440257 6.7224e-19)
(0.425537 0.324868 -4.03142e-19)
(0.291738 0.209281 -4.64425e-19)
(0.168149 0.111322 5.45693e-19)
(0.069626 0.0487815 -3.24971e-19)
(0.0107319 0.0111323 5.77859e-19)
(0.422448 0.347522 2.33194e-19)
(0.943287 0.750166 2.61794e-19)
(1.1654 0.948766 5.50828e-20)
(1.21362 0.99344 1.55633e-20)
(1.18718 0.997302 -1.39342e-20)
(1.12839 0.9673 -5.88527e-20)
(1.05404 0.930195 2.91806e-20)
(0.978382 0.889364 -1.92241e-20)
(0.895016 0.844195 -5.76476e-19)
(0.80594 0.791185 -1.06761e-18)
(0.72111 0.729953 6.80545e-20)
(0.654873 0.666706 0)
(0.608023 0.605107 0)
(0.557811 0.532802 -2.95763e-19)
(0.498275 0.430005 -1.10265e-18)
(0.4035 0.319177 8.68482e-19)
(0.289592 0.1911 5.08677e-19)
(0.180001 0.0905032 0)
(0.086573 0.0191601 1.04005e-18)
(0.00456137 -0.0156895 -6.1589e-19)
(0.421352 0.360585 -1.23753e-19)
(0.934932 0.773623 1.09149e-19)
(1.15329 0.976725 -1.31552e-19)
(1.20049 1.02348 -1.10598e-19)
(1.17364 1.02784 -2.07364e-20)
(1.11454 0.997004 -1.88474e-20)
(1.04008 0.958828 0)
(0.96427 0.916935 -5.49702e-19)
(0.88018 0.870978 6.97547e-20)
(0.788863 0.81723 0)
(0.700216 0.755737 0)
(0.628438 0.691501 1.1083e-19)
(0.573504 0.622307 1.49106e-19)
(0.531235 0.539197 -3.20004e-19)
(0.465885 0.440313 7.9133e-19)
(0.375194 0.296621 -9.46802e-19)
(0.272446 0.165976 -1.0914e-18)
(0.201381 0.078549 9.67188e-19)
(0.154551 0.0713214 -3.69684e-19)
(0.110615 0.0755853 2.15058e-19)
(0.420598 0.372788 1.53603e-19)
(0.929179 0.798975 0)
(1.14267 1.00556 0)
(1.18783 1.05237 -3.10676e-20)
(1.16055 1.05568 2.51509e-20)
(1.10154 1.02392 -1.99207e-20)
(1.02729 0.985289 1.33514e-19)
(0.951091 0.943013 5.62211e-19)
(0.865905 0.896774 1.04656e-18)
(0.773257 0.843199 -8.077e-20)
(0.682121 0.781641 1.67432e-19)
(0.606459 0.715217 -9.92739e-19)
(0.548694 0.646304 -9.92122e-19)
(0.48583 0.558148 -1.72154e-19)
(0.418342 0.42325 0)
(0.33914 0.286094 -4.68151e-21)
(0.253982 0.0925451 6.02759e-19)
(0.245049 -0.0253537 -1.01162e-18)
(0.211595 -0.107572 7.68634e-19)
(0.0880343 -0.0992606 6.36095e-19)
(0.41942 0.384725 -3.38696e-19)
(0.921514 0.819678 -1.52322e-19)
(1.13138 1.02996 6.91255e-21)
(1.17563 1.07869 6.13408e-20)
(1.14801 1.08259 0)
(1.08871 1.05031 -4.82062e-20)
(1.01435 1.01096 -1.93943e-19)
(0.93806 0.96805 -2.26589e-21)
(0.852301 0.92148 -5.48289e-19)
(0.757563 0.867621 -7.93472e-20)
(0.66289 0.806668 7.37015e-20)
(0.581402 0.741959 8.72323e-19)
(0.510911 0.666739 9.67718e-19)
(0.45275 0.564663 1.68168e-19)
(0.377031 0.441462 8.58128e-19)
(0.275985 0.250886 0)
(0.149452 0.0745619 0)
(-0.00985044 0.17863 6.91518e-19)
(-0.0786981 0.629873 -2.73469e-20)
(0.00941158 1.54386 -8.58157e-19)
(0.418685 0.395872 1.86784e-19)
(0.916343 0.842669 4.30081e-19)
(1.1215 1.05591 -5.9521e-19)
(1.16375 1.10458 3.03497e-19)
(1.13565 1.10762 -1.0906e-20)
(1.07642 1.07475 1.56506e-21)
(1.00229 1.03538 0)
(0.925659 0.992652 -4.68081e-19)
(0.838859 0.946503 0)
(0.742804 0.893686 1.1149e-18)
(0.645137 0.834096 -9.03773e-20)
(0.55885 0.768602 1.01341e-19)
(0.486119 0.696884 1.11458e-18)
(0.397844 0.598222 -3.65491e-19)
(0.286473 0.42597 -4.35666e-19)
(0.184951 0.3012 0)
(0.0756095 0.464671 0)
(0.0245648 1.35769 0)
(0.0711807 2.47244 -3.92467e-19)
(0.0976743 2.91511 -2.42415e-19)
(0.417192 0.406552 0)
(0.909181 0.860862 0)
(1.11091 1.07734 2.16669e-19)
(1.15238 1.12801 -2.4709e-19)
(1.12392 1.13192 1.15031e-19)
(1.06439 1.09894 7.41977e-21)
(0.990122 1.05935 2.54573e-20)
(0.913409 1.01656 -1.98201e-20)
(0.826152 0.970746 7.79004e-20)
(0.728131 0.918468 -1.27958e-18)
(0.627115 0.860533 1.63558e-19)
(0.535198 0.800236 8.77082e-19)
(0.444731 0.725991 -1.10985e-18)
(0.360136 0.606634 -1.22625e-18)
(0.264534 0.48305 4.1191e-19)
(0.181295 0.627685 0)
(0.113888 1.58471 5.61313e-19)
(0.118572 2.70036 6.06452e-19)
(0.126001 3.09029 -6.77576e-19)
(0.118683 3.22331 7.22129e-19)
(0.416216 0.416951 0)
(0.904527 0.88158 3.76498e-19)
(1.1018 1.10072 -5.43061e-20)
(1.14135 1.15124 3.41704e-19)
(1.11241 1.15445 -1.20744e-19)
(1.05297 1.12118 0)
(0.978979 1.08193 0)
(0.901997 1.03979 0)
(0.813863 0.995051 4.35783e-19)
(0.714875 0.944745 5.87865e-20)
(0.610871 0.889496 0)
(0.51364 0.829148 -8.71653e-19)
(0.427116 0.760469 0)
(0.304509 0.652091 8.77351e-19)
(0.200539 0.701911 -5.94632e-19)
(0.145734 1.4658 -4.76538e-19)
(0.149655 2.68701 -1.09753e-18)
(0.173064 3.12614 -5.7673e-19)
(0.163663 3.26549 -7.75568e-19)
(0.150688 3.30569 5.66557e-19)
(0.414606 0.426318 -1.31048e-19)
(0.89777 0.897285 1.48826e-20)
(1.09191 1.11936 -6.02157e-20)
(1.1309 1.17202 -2.64943e-19)
(1.10162 1.17636 0)
(1.0419 1.14331 0)
(0.967737 1.1042 0)
(0.890739 1.06245 3.30435e-20)
(0.802367 1.01858 -5.51197e-19)
(0.701661 0.969539 0)
(0.594935 0.916872 0)
(0.495013 0.864851 0)
(0.383229 0.791937 0)
(0.308914 0.744296 6.44136e-19)
(0.266183 1.14189 1.58052e-18)
(0.239284 2.399 4.6422e-19)
(0.25613 3.08168 9.29064e-19)
(0.25078 3.27905 -7.11492e-19)
(0.202501 3.34445 2.60496e-19)
(0.170781 3.3576 0)
(0.413462 0.435551 1.34653e-19)
(0.893475 0.91647 -8.33485e-19)
(1.08337 1.14113 -2.24887e-19)
(1.12052 1.19349 -4.98796e-20)
(1.09076 1.19722 2.80542e-20)
(1.03117 1.16409 -1.11396e-19)
(0.957373 1.12558 -7.90885e-22)
(0.880219 1.08477 -3.61629e-19)
(0.791164 1.04246 0)
(0.689978 0.99615 -7.5365e-20)
(0.581249 0.947437 6.85604e-20)
(0.475948 0.894077 0)
(0.382125 0.834448 0)
(0.321164 0.935835 -8.07045e-19)
(0.266795 1.85249 1.00936e-19)
(0.26321 2.94475 -3.49037e-19)
(0.287967 3.28225 7.29562e-19)
(0.259409 3.38047 5.22925e-19)
(0.194884 3.40503 -7.0704e-19)
(0.170483 3.41517 3.48918e-19)
(0.411388 0.445041 2.63765e-19)
(0.886088 0.931404 8.10956e-19)
(1.073 1.15909 2.70572e-19)
(1.10989 1.2139 0)
(1.0799 1.219 0)
(1.0201 1.18619 8.63869e-20)
(0.9462 1.14787 5.38367e-20)
(0.869236 1.10762 3.21992e-19)
(0.780317 1.06639 2.1313e-20)
(0.677944 1.02176 9.59856e-19)
(0.56781 0.975976 -1.14429e-18)
(0.457405 0.928542 0)
(0.378852 0.912785 0)
(0.333477 1.31079 -5.50385e-19)
(0.329384 2.49515 -6.61042e-19)
(0.373941 3.19458 0)
(0.39896 3.36285 -7.3693e-19)
(0.328291 3.42572 5.08025e-20)
(0.259974 3.47123 3.3928e-19)
(0.237862 3.49668 -1.10344e-19)
(0.409608 0.45485 -5.01186e-19)
(0.881189 0.952646 -3.8903e-19)
(1.06339 1.18312 0)
(1.09828 1.23705 0)
(1.06787 1.24118 0)
(1.00841 1.20808 0)
(0.935183 1.17029 -6.49936e-20)
(0.858356 1.13091 2.80045e-19)
(0.76911 1.09132 0)
(0.667125 1.04975 -8.73638e-19)
(0.556679 1.00849 2.05355e-18)
(0.44664 0.968665 8.4204e-20)
(0.395681 1.03338 1.13495e-19)
(0.385216 1.74286 8.96605e-19)
(0.396058 2.90161 -4.82167e-19)
(0.435828 3.31418 0)
(0.418956 3.43569 2.07039e-19)
(0.333203 3.52475 9.11769e-20)
(0.259384 3.58886 1.49051e-19)
(0.183917 3.56832 -1.55259e-20)
(0.406619 0.465212 2.38116e-19)
(0.871825 0.968486 -3.96012e-19)
(1.051 1.20223 0)
(1.08602 1.25902 -7.30934e-20)
(1.05554 1.26468 2.52423e-19)
(0.996025 1.23175 0)
(0.922881 1.19392 0)
(0.846615 1.15502 -4.85251e-19)
(0.758082 1.11638 -5.56402e-20)
(0.65579 1.07646 8.56601e-19)
(0.542388 1.03745 -9.75524e-19)
(0.451222 1.01798 5.73492e-19)
(0.411866 1.22198 0)
(0.420112 2.18685 -4.75383e-19)
(0.462228 3.14292 3.11825e-19)
(0.527118 3.41619 1.95572e-19)