/*--------------------------------*- C++ -*----------------------------------*\
| =========                 |                                                 |
| \\      /  F ield         | OpenFOAM: The Open Source CFD Toolbox           |
|  \\    /   O peration     | Version:  4.0                                   |
|   \\  /    A nd           | Web:      www.OpenFOAM.org                      |
|    \\/     M anipulation  |                                                 |
\*---------------------------------------------------------------------------*/
FoamFile
{
    version     2.0;
    format      ascii;
    class       volScalarField;
    location    "71";
    object      p;
}
// * * * * * * * * * * * * * * * * * * * * * * * * * * * * * * * * * * * * * //

dimensions      [0 2 -2 0 0 0 0];

internalField   nonuniform List<scalar> 
8800
(
0.827978
0.780193
0.741507
0.712516
0.69166
0.67684
0.66626
0.658803
0.654016
0.652004
0.653321
0.657553
0.664229
0.673567
0.686363
0.704108
0.728892
0.762838
0.805392
0.864094
0.65922
0.666899
0.67438
0.677692
0.676194
0.671125
0.664652
0.658595
0.653901
0.651098
0.650869
0.653423
0.657949
0.663922
0.670711
0.677004
0.680653
0.679922
0.674509
0.665824
0.637612
0.643773
0.647903
0.650854
0.652912
0.653528
0.652439
0.65036
0.648381
0.647524
0.648541
0.650969
0.653802
0.656008
0.656633
0.655447
0.653115
0.649729
0.645174
0.641413
0.631783
0.634435
0.637191
0.639601
0.641245
0.64242
0.643181
0.643327
0.643073
0.643079
0.643892
0.645113
0.645991
0.646085
0.645496
0.64442
0.642615
0.640052
0.637654
0.636151
0.626377
0.627803
0.629587
0.631627
0.633421
0.634778
0.635789
0.63662
0.637281
0.637908
0.638629
0.639183
0.639327
0.639072
0.6384
0.637169
0.635487
0.633649
0.632347
0.631515
0.621268
0.622189
0.623436
0.625011
0.626656
0.628198
0.629509
0.630614
0.631632
0.632599
0.633369
0.633765
0.633775
0.633375
0.632523
0.631345
0.630035
0.628787
0.62797
0.627419
0.616321
0.616991
0.617959
0.619271
0.620694
0.622173
0.623641
0.625007
0.626268
0.627461
0.628377
0.628825
0.628803
0.628342
0.627571
0.626651
0.62566
0.624751
0.624172
0.623765
0.611487
0.612004
0.612793
0.613935
0.615228
0.616625
0.618105
0.619627
0.621126
0.622562
0.62368
0.624247
0.624297
0.623969
0.623411
0.622719
0.621972
0.621306
0.620878
0.62056
0.606694
0.607105
0.607767
0.608786
0.61001
0.611364
0.612848
0.614461
0.616164
0.617878
0.619255
0.620027
0.620282
0.620183
0.619854
0.619379
0.618842
0.618371
0.618055
0.617795
0.601854
0.602189
0.602762
0.603704
0.604882
0.606225
0.607749
0.609468
0.61137
0.613386
0.615099
0.616182
0.616726
0.616891
0.616801
0.616558
0.61622
0.615912
0.615681
0.615463
0.596877
0.597154
0.597667
0.598564
0.599727
0.601099
0.602703
0.60457
0.606713
0.609082
0.611216
0.612697
0.61359
0.614058
0.614231
0.614223
0.614085
0.613921
0.613758
0.613569
0.591672
0.591904
0.592378
0.593261
0.59445
0.595894
0.597621
0.599691
0.602142
0.604947
0.607597
0.609557
0.610858
0.611675
0.612143
0.612376
0.612445
0.612415
0.612308
0.612139
0.586143
0.586341
0.586796
0.587694
0.588949
0.590511
0.592416
0.594759
0.597599
0.60095
0.604225
0.606754
0.608534
0.60975
0.610551
0.611049
0.611338
0.611435
0.611376
0.61122
0.580188
0.580357
0.58081
0.581753
0.583116
0.584846
0.586997
0.589691
0.593026
0.597049
0.60108
0.604291
0.606636
0.608313
0.609496
0.61031
0.610822
0.611041
0.611023
0.610875
0.573683
0.573828
0.574295
0.575312
0.57683
0.578787
0.581262
0.584404
0.588357
0.593205
0.59815
0.602175
0.605191
0.607412
0.609032
0.610197
0.61096
0.611308
0.611327
0.611182
0.566487
0.566607
0.567102
0.568224
0.569948
0.572203
0.57509
0.578801
0.583521
0.589376
0.595424
0.600419
0.604228
0.607092
0.609228
0.610791
0.611842
0.612323
0.612377
0.61223
0.558408
0.558517
0.559051
0.560312
0.562298
0.564931
0.568344
0.572767
0.578436
0.585518
0.592892
0.599043
0.603786
0.607405
0.610161
0.612197
0.613566
0.614186
0.614271
0.61412
0.54922
0.549318
0.549912
0.551337
0.553657
0.55678
0.560859
0.566172
0.573013
0.581589
0.590552
0.598071
0.603919
0.608426
0.611915
0.614502
0.616231
0.616998
0.617111
0.616951
0.538598
0.538677
0.53936
0.541011
0.543769
0.547518
0.552434
0.558864
0.567155
0.577549
0.58841
0.597539
0.604684
0.610237
0.61456
0.617804
0.619937
0.620855
0.620991
0.620819
0.526161
0.526227
0.52701
0.528972
0.532289
0.536839
0.542826
0.550668
0.560762
0.573363
0.586477
0.59749
0.606133
0.612904
0.618204
0.622198
0.624767
0.625835
0.625987
0.625798
0.511339
0.511394
0.512321
0.5147
0.518758
0.524361
0.531742
0.541391
0.553737
0.569015
0.584782
0.597972
0.608326
0.616488
0.622916
0.627749
0.630776
0.631979
0.632134
0.631927
0.493349
0.493392
0.494534
0.497501
0.502574
0.509602
0.518838
0.530836
0.54601
0.56452
0.583376
0.59904
0.611328
0.621051
0.628715
0.634481
0.637959
0.639267
0.63941
0.639182
0.471009
0.47105
0.472542
0.476397
0.482932
0.491965
0.503746
0.518841
0.537572
0.559951
0.582349
0.600768
0.615181
0.626624
0.63563
0.642361
0.646237
0.647595
0.647706
0.647458
0.442538
0.4426
0.444689
0.449976
0.458793
0.470771
0.48614
0.505351
0.528523
0.555464
0.581839
0.603243
0.619922
0.633187
0.643629
0.651272
0.655429
0.656752
0.65681
0.656545
0.404848
0.405016
0.408334
0.416266
0.42893
0.445424
0.46591
0.490524
0.519127
0.551313
0.582026
0.606567
0.625592
0.640712
0.652595
0.660992
0.665231
0.666415
0.666399
0.666125
0.352022
0.353032
0.359639
0.373022
0.39238
0.415865
0.443412
0.474857
0.509853
0.547851
0.583115
0.610832
0.632194
0.649123
0.66231
0.671177
0.675232
0.676175
0.676081
0.675808
0.274987
0.282434
0.297733
0.321343
0.350673
0.383519
0.419695
0.458994
0.501063
0.54533
0.585431
0.616508
0.640358
0.659208
0.67358
0.682665
0.686366
0.687058
0.686915
0.686678
0.192233
0.209829
0.234612
0.269065
0.308768
0.351102
0.395943
0.443247
0.492726
0.543857
0.58958
0.624678
0.651434
0.672457
0.688064
0.696852
0.699785
0.700185
0.700069
0.699906
0.123217
0.143951
0.176559
0.220219
0.269062
0.320324
0.373564
0.428708
0.485438
0.5432
0.594226
0.632999
0.66229
0.685002
0.700982
0.70908
0.711483
0.711823
0.711762
0.711636
0.0666871
0.0890963
0.127285
0.177451
0.233512
0.292286
0.352955
0.415295
0.478829
0.542893
0.598919
0.641113
0.67266
0.69663
0.712893
0.720663
0.722829
0.723148
0.723127
0.723031
0.0196593
0.0432549
0.0852695
0.140594
0.202456
0.267434
0.334479
0.403212
0.472984
0.542957
0.60374
0.649164
0.682857
0.708155
0.72487
0.732416
0.734498
0.734844
0.734855
0.734784
-0.020141
0.00410358
0.0490136
0.108414
0.175154
0.245415
0.318008
0.392443
0.467921
0.543427
0.608762
0.657345
0.693183
0.719808
0.737036
0.744746
0.746882
0.747186
0.747224
0.747169
-0.0547656
-0.0301113
0.01707
0.0798404
0.15071
0.225574
0.303098
0.38269
0.46344
0.544177
0.6139
0.665585
0.703555
0.731552
0.749507
0.757626
0.75979
0.7601
0.760133
0.760094
-0.085734
-0.0607307
-0.0117012
0.0539437
0.128383
0.207292
0.289248
0.373568
0.459249
0.544974
0.618955
0.673691
0.713808
0.743207
0.762016
0.770505
0.772828
0.773131
0.773157
0.773135
-0.114041
-0.0887333
-0.0381285
0.030005
0.107582
0.190088
0.276048
0.364723
0.455039
0.545556
0.623712
0.681475
0.723705
0.754516
0.774092
0.783009
0.785511
0.785844
0.785851
0.785838
-0.140514
-0.114861
-0.0628481
0.00746941
0.0878544
0.17358
0.263172
0.355868
0.450562
0.545719
0.627996
0.688753
0.733048
0.765222
0.785557
0.794852
0.797515
0.797871
0.797849
0.79783
-0.165546
-0.139548
-0.0862079
-0.0140417
0.0688654
0.157487
0.250381
0.346801
0.445638
0.5453
0.631674
0.695425
0.741755
0.775197
0.796184
0.805771
0.808547
0.808899
0.80885
0.808819
-0.189604
-0.163183
-0.108837
-0.0347707
0.0503759
0.141604
0.23751
0.337372
0.440114
0.544156
0.634646
0.701441
0.749788
0.784414
0.805887
0.815644
0.818469
0.818806
0.818728
0.818673
-0.21283
-0.185943
-0.130649
-0.0549073
0.0322357
0.125808
0.224444
0.327476
0.433893
0.542197
0.636847
0.70679
0.757185
0.792875
0.814684
0.824494
0.82725
0.827567
0.827455
0.827385
-0.235381
-0.208091
-0.151762
-0.0745722
0.0143646
0.110032
0.211125
0.317055
0.426912
0.539339
0.638204
0.711469
0.764027
0.800746
0.822718
0.832353
0.835023
0.83527
0.835138
0.835054
-0.257391
-0.229617
-0.172315
-0.0938223
-0.0032891
0.0942474
0.197543
0.306099
0.419136
0.535515
0.638651
0.71548
0.770437
0.808203
0.830139
0.839415
0.84185
0.842021
0.841865
0.841769
-0.278933
-0.250568
-0.192383
-0.112672
-0.0207165
0.0784603
0.183716
0.294621
0.410562
0.530678
0.638118
0.718805
0.776513
0.815468
0.837206
0.845834
0.847866
0.847914
0.847736
0.847634
-0.299866
-0.270942
-0.211907
-0.131113
-0.0379053
0.062716
0.169681
0.282671
0.401225
0.524822
0.636518
0.721385
0.782308
0.822795
0.844266
0.851872
0.853197
0.853042
0.852876
0.852772
-0.320178
-0.290718
-0.230885
-0.149113
-0.0548157
0.0470569
0.155512
0.270309
0.39118
0.517948
0.633781
0.723103
0.787804
0.830396
0.851821
0.858087
0.858158
0.857513
0.857345
0.85732
-0.339942
-0.309872
-0.24931
-0.166654
-0.0713965
0.0315539
0.141283
0.257623
0.380499
0.510099
0.629836
0.723799
0.792862
0.83833
0.860412
0.865473
0.863607
0.86175
0.861466
0.861788
-0.359004
-0.328393
-0.267133
-0.183688
-0.0875977
0.0162811
0.127079
0.244712
0.369285
0.501348
0.624644
0.72327
0.797221
0.846363
0.870269
0.875272
0.871659
0.867455
0.86574
0.865869
-0.377459
-0.346279
-0.284379
-0.200253
-0.103455
0.0011943
0.112845
0.231523
0.357475
0.491626
0.618068
0.721238
0.800604
0.854081
0.88102
0.888026
0.884701
0.87736
0.870004
0.85674
-0.395241
-0.363519
-0.301161
-0.216548
-0.119247
-0.0140254
0.0981826
0.217597
0.344565
0.480341
0.609519
0.717005
0.802572
0.860982
0.89133
0.902206
0.899549
0.885634
0.864532
0.854643
-0.412186
-0.380273
-0.317299
-0.232383
-0.134619
-0.0290415
0.0833072
0.203245
0.330839
0.467715
0.59899
0.709992
0.802128
0.865807
0.897172
0.908182
0.906898
0.881139
0.814128
0.784347
-0.427641
-0.397822
-0.332493
-0.247286
-0.148767
-0.0433518
0.0685386
0.188693
0.316507
0.453854
0.586369
0.699792
0.797622
0.867689
0.893038
0.899
0.882948
0.825959
0.756521
0.714076
-0.482125
-0.413278
-0.346209
-0.262388
-0.163372
-0.0584612
0.0538012
0.173646
0.301179
0.438265
0.570981
0.685605
0.78491
0.862073
0.861917
0.85961
0.803569
0.729639
0.651747
0.608418
-0.443795
-0.427868
-0.366661
-0.281729
-0.184985
-0.0800992
0.0311421
0.150393
0.277045
0.412939
0.544126
0.657735
0.750381
0.833544
0.814321
0.693718
0.584121
0.507917
0.432892
0.461281
-0.473893
-0.444912
-0.382842
-0.298762
-0.202068
-0.0972985
0.0142364
0.132875
0.258505
0.39269
0.521237
0.630718
0.713513
0.757475
0.704345
0.548719
0.416698
0.322482
0.222337
0.27034
-0.497052
-0.46516
-0.401998
-0.317801
-0.22099
-0.116332
-0.00487387
0.11294
0.237191
0.369015
0.493889
0.597085
0.670711
0.679625
0.567569
0.390135
0.233959
0.11251
-0.0201185
0.0115915
-0.519646
-0.48629
-0.422024
-0.336936
-0.240061
-0.135567
-0.0246446
0.0922031
0.214863
0.343908
0.464075
0.55911
0.616922
0.594031
0.430058
0.229991
0.0371127
-0.132645
-0.322118
-0.342164
-0.541636
-0.507877
-0.442775
-0.356946
-0.259959
-0.15571
-0.0454599
0.0702834
0.191071
0.316895
0.431563
0.518212
0.556061
0.495697
0.298946
0.0852246
-0.134008
-0.324504
-0.566924
-0.862501
-0.563913
-0.530177
-0.464585
-0.378314
-0.281176
-0.177128
-0.0674878
0.0471009
0.165884
0.288175
0.396928
0.474999
0.490674
0.378474
0.18464
-0.0282359
-0.234499
-0.408025
-0.478553
-0.556693
-0.587418
-0.553651
-0.4878
-0.401351
-0.304202
-0.200455
-0.0915275
0.0217196
0.138157
0.256342
0.35872
0.425419
0.415452
0.269378
0.0828015
-0.111005
-0.276058
-0.370335
-0.394705
-0.410492
-0.612456
-0.578593
-0.51259
-0.426132
-0.329165
-0.225902
-0.117937
-0.006348
0.107304
0.220697
0.316203
0.368085
0.340076
0.167872
-0.00965248
-0.178251
-0.306855
-0.34662
-0.359412
-0.36071
-0.639225
-0.605174
-0.53902
-0.452652
-0.356016
-0.253472
-0.146735
-0.0371533
0.0732569
0.181257
0.268911
0.306024
0.257217
0.0740812
-0.0943379
-0.245315
-0.322805
-0.339897
-0.341298
-0.34112
-0.667784
-0.633456
-0.567119
-0.480913
-0.384774
-0.283158
-0.17793
-0.0707121
0.0360269
0.138098
0.216963
0.241893
0.156368
-0.011569
-0.171549
-0.295932
-0.333073
-0.331481
-0.330607
-0.330033
-0.697851
-0.663272
-0.596787
-0.510833
-0.415355
-0.31491
-0.211492
-0.106999
-0.00434496
0.0913408
0.161299
0.168934
0.064894
-0.0908998
-0.232726
-0.310313
-0.320532
-0.323112
-0.323764
-0.323494
-0.72888
-0.694161
-0.627771
-0.542189
-0.447579
-0.348573
-0.247272
-0.145883
-0.0476709
0.0413489
0.102402
0.0948226
-0.016964
-0.158115
-0.277645
-0.309599
-0.318043
-0.319368
-0.319063
-0.318747
-0.760414
-0.725593
-0.659618
-0.574594
-0.481107
-0.383834
-0.284995
-0.187076
-0.0936603
-0.0111759
0.0393926
0.0247541
-0.0916169
-0.212693
-0.307994
-0.325954
-0.31669
-0.315481
-0.315342
-0.315079
-0.791553
-0.756866
-0.691489
-0.60745
-0.515406
-0.420227
-0.324218
-0.230104
-0.141839
-0.065577
-0.0249051
-0.0391478
-0.156239
-0.253743
-0.31045
-0.319112
-0.315508
-0.313881
-0.313167
-0.312879
-0.820782
-0.78681
-0.722412
-0.639849
-0.549722
-0.457065
-0.364297
-0.274291
-0.191402
-0.121255
-0.084084
-0.109093
-0.206779
-0.289589
-0.296754
-0.312627
-0.314985
-0.312697
-0.31187
-0.311374
-0.846487
-0.813577
-0.751276
-0.67064
-0.583034
-0.493429
-0.40438
-0.318793
-0.241234
-0.17735
-0.140049
-0.176266
-0.248479
-0.302401
-0.327192
-0.319544
-0.31722
-0.316593
-0.316142
-0.315629
-0.866563
-0.835385
-0.775958
-0.698427
-0.614074
-0.528202
-0.443403
-0.362596
-0.29023
-0.23253
-0.197366
-0.230784
-0.280363
-0.321453
-0.352856
-0.333912
-0.327012
-0.326695
-0.326001
-0.325526
-0.878809
-0.85033
-0.794704
-0.72131
-0.641371
-0.560087
-0.480187
-0.404523
-0.337346
-0.285221
-0.25272
-0.277366
-0.302982
-0.325535
-0.319804
-0.327373
-0.331647
-0.332416
-0.332362
-0.332667
-0.880636
-0.856184
-0.805518
-0.737534
-0.663251
-0.587685
-0.513428
-0.443333
-0.38143
-0.334155
-0.298982
-0.319003
-0.334903
-0.352445
-0.345191
-0.340096
-0.336031
-0.334207
-0.33383
-0.333691
-0.869801
-0.850133
-0.806244
-0.745535
-0.678276
-0.60955
-0.541812
-0.477737
-0.421232
-0.378066
-0.338065
-0.350372
-0.359589
-0.413925
-0.389725
-0.35482
-0.340199
-0.335931
-0.334109
-0.333216
-0.844444
-0.829704
-0.795115
-0.744078
-0.685464
-0.624713
-0.564193
-0.506439
-0.455324
-0.415908
-0.369987
-0.349177
-0.316637
-0.316325
-0.309056
-0.312266
-0.319115
-0.322506
-0.32334
-0.323205
-0.807145
-0.797658
-0.772991
-0.733324
-0.684817
-0.632922
-0.579957
-0.528418
-0.48231
-0.446513
-0.411595
-0.352193
-0.250738
-0.157495
-0.20063
-0.264634
-0.305348
-0.323391
-0.330161
-0.332171
-0.764596
-0.7592
-0.744701
-0.716095
-0.678272
-0.634973
-0.58925
-0.543342
-0.500998
-0.467534
-0.438199
-0.396999
-0.360132
-0.349503
-0.404529
-0.429961
-0.419851
-0.415174
-0.417152
-0.419418
-0.726517
-0.723242
-0.716373
-0.697774
-0.668706
-0.632736
-0.593112
-0.551523
-0.510904
-0.478531
-0.455253
-0.46955
-0.554241
-0.65079
-0.624288
-0.560275
-0.543908
-0.546343
-0.541925
-0.543328
-0.699334
-0.697315
-0.693821
-0.682541
-0.659919
-0.629133
-0.593423
-0.553729
-0.512812
-0.474361
-0.451687
-0.449729
-0.53142
-0.665548
-0.860413
-0.959939
-0.984166
-0.930757
-0.813564
-0.776037
-0.678782
-0.678039
-0.676889
-0.671324
-0.65442
-0.626883
-0.592001
-0.552096
-0.507413
-0.459222
-0.425344
-0.392388
-0.399675
-0.452934
-0.538529
-0.592796
-0.583271
-0.547785
-0.44485
-0.407007
-0.666873
-0.666578
-0.66594
-0.663413
-0.65174
-0.62597
-0.590233
-0.548126
-0.498894
-0.444028
-0.394519
-0.3527
-0.254347
-0.0860401
0.0774152
0.238247
0.33692
0.384653
0.411106
0.422141
-0.659032
-0.65889
-0.65844
-0.657706
-0.650687
-0.626777
-0.58955
-0.543418
-0.489407
-0.424043
-0.355
-0.284082
-0.102467
0.197012
0.506417
0.775007
0.901622
0.944495
0.948116
0.944144
-0.65371
-0.653779
-0.653892
-0.654511
-0.650004
-0.629117
-0.590343
-0.540054
-0.479096
-0.404738
-0.317237
-0.22372
-0.0219835
0.259611
0.530899
0.758417
0.904337
0.985149
1.0353
1.05588
-0.64871
-0.648708
-0.648524
-0.64796
-0.646708
-0.631616
-0.592949
-0.538589
-0.471635
-0.390927
-0.291235
-0.193998
0.00905159
0.291637
0.565704
0.801333
0.970954
1.08284
1.15348
1.18127
-0.64577
-0.645887
-0.645886
-0.644993
-0.644215
-0.636003
-0.597463
-0.539893
-0.470202
-0.383467
-0.282919
-0.183247
-0.0120249
0.264783
0.555576
0.816155
1.02795
1.1632
1.23119
1.25149
-0.645033
-0.646232
-0.649683
-0.656712
-0.663674
-0.648611
-0.603993
-0.546337
-0.47618
-0.387109
-0.289362
-0.193064
-0.0650428
0.199455
0.469864
0.706002
0.903782
1.0273
1.08254
1.09639
-0.650619
-0.652106
-0.65384
-0.65342
-0.653895
-0.638541
-0.605715
-0.558508
-0.488637
-0.397889
-0.304818
-0.21285
-0.109614
0.0964047
0.326152
0.519911
0.675054
0.767188
0.806346
0.814895
-0.685003
-0.684689
-0.673297
-0.630488
-0.573673
-0.57005
-0.599774
-0.578123
-0.507386
-0.414583
-0.322494
-0.238214
-0.158668
-0.00664508
0.173934
0.321172
0.436688
0.501696
0.527657
0.531346
-0.741015
-0.738028
-0.730388
-0.700207
-0.670924
-0.661356
-0.674206
-0.622341
-0.533292
-0.431737
-0.341737
-0.268089
-0.207942
-0.0945819
0.0391757
0.147917
0.230762
0.274414
0.291559
0.292709
-0.859481
-0.872595
-0.917976
-0.973593
-0.988709
-0.951236
-0.856131
-0.703706
-0.565641
-0.447024
-0.356798
-0.291491
-0.244735
-0.162343
-0.0673781
0.011849
0.0653893
0.0943979
0.104121
0.104329
-1.0108
-1.03978
-1.09779
-1.14903
-1.16374
-1.11702
-0.972457
-0.760503
-0.583759
-0.451604
-0.36253
-0.305925
-0.267303
-0.207025
-0.145754
-0.0972482
-0.0648265
-0.0494867
-0.0443345
-0.0452069
-1.02418
-1.0455
-1.08574
-1.12254
-1.13316
-1.08603
-0.932373
-0.728455
-0.55926
-0.433953
-0.35335
-0.303857
-0.269108
-0.231564
-0.197651
-0.175426
-0.164323
-0.161006
-0.160282
-0.160613
-0.828843
-0.850173
-0.887311
-0.926403
-0.941694
-0.897926
-0.760564
-0.611341
-0.484578
-0.390277
-0.328386
-0.289294
-0.260138
-0.237791
-0.225352
-0.221656
-0.22465
-0.228705
-0.229316
-0.229154
-0.486979
-0.502718
-0.533005
-0.569482
-0.594139
-0.580733
-0.522609
-0.449786
-0.38334
-0.329901
-0.293401
-0.270009
-0.251699
-0.240303
-0.234597
-0.237452
-0.243421
-0.246991
-0.246924
-0.24669
-0.149028
-0.157784
-0.177974
-0.210799
-0.247791
-0.275747
-0.288873
-0.288482
-0.278788
-0.263734
-0.253877
-0.250528
-0.248162
-0.237133
-0.229918
-0.226759
-0.228031
-0.227847
-0.227011
-0.227134
0.0670601
0.0623066
0.0479511
0.0191768
-0.0252805
-0.0779024
-0.125784
-0.162806
-0.186955
-0.201121
-0.213427
-0.230205
-0.241311
-0.226641
-0.211221
-0.200702
-0.194819
-0.191512
-0.190755
-0.191484
0.155217
0.152182
0.141322
0.11691
0.0759965
0.0228253
-0.0323604
-0.0810296
-0.118638
-0.146625
-0.169748
-0.195167
-0.209324
-0.194479
-0.177863
-0.16726
-0.159806
-0.156606
-0.156498
-0.157478
0.168315
0.166193
0.158244
0.139783
0.107979
0.0652945
0.0176385
-0.0287819
-0.0687497
-0.100195
-0.123482
-0.14274
-0.150159
-0.143444
-0.137619
-0.133449
-0.130042
-0.128855
-0.129267
-0.130223
0.150131
0.148772
0.143387
0.130562
0.108006
0.0766884
0.0394314
0.00146017
-0.0330283
-0.0606839
-0.077636
-0.0849309
-0.0856528
-0.0897611
-0.0966824
-0.102582
-0.10589
-0.108002
-0.109184
-0.109989
0.122862
0.122102
0.118689
0.110263
0.09502
0.0731629
0.0459765
0.0171114
-0.0098079
-0.0299162
-0.0373671
-0.0332659
-0.0284088
-0.0436685
-0.0619069
-0.0761641
-0.0856313
-0.0909858
-0.0930911
-0.0936479
0.0947648
0.0945057
0.0925056
0.0872612
0.0774036
0.062762
0.0439234
0.0235618
0.00434498
-0.00867138
-0.009894
-0.000855467
0.00464201
-0.0141741
-0.0360465
-0.0534696
-0.0658602
-0.0731264
-0.0756773
-0.0759787
0.0689717
0.0688246
0.0677522
0.0646552
0.0585542
0.0492173
0.0368742
0.0234139
0.0109663
0.00392754
0.00698115
0.0163612
0.0190408
0.00197582
-0.0175635
-0.0333717
-0.0446061
-0.0514878
-0.053718
-0.0538625
0.0454646
0.04547
0.0449691
0.0433487
0.0399084
0.0343982
0.0269729
0.0188389
0.0116933
0.00896002
0.0145313
0.0241517
0.0259354
0.0106404
-0.00459137
-0.0155867
-0.0228812
-0.0273298
-0.0289166
-0.0291315
0.0240977
0.0241892
0.0240498
0.0233799
0.0218016
0.0191922
0.0155252
0.0114991
0.00808916
0.00760316
0.0137807
0.0238441
0.0254419
0.0123816
0.00267064
-0.00316842
-0.00644818
-0.00775353
-0.00868102
-0.00906658
0.00425281
0.00433044
0.00433165
0.00451185
0.00460251
0.00428812
0.00358123
0.00271252
0.00195415
0.00172285
0.00263496
0.00605074
0.0110518
0.00657741
0.00440156
0.0022315
0.000470513
-0.000782842
-0.000850082
-0.000843055
-0.0976812
0.0676158
0.26016
0.428123
0.561676
0.666032
0.751853
0.824995
0.858585
0.835388
0.200243
0.319608
0.447855
0.558391
0.651199
0.72769
0.789564
0.833557
0.855581
0.867814
0.41584
0.497569
0.585178
0.662331
0.728548
0.783908
0.827961
0.860204
0.883616
0.901705
0.574524
0.633116
0.693661
0.750024
0.798921
0.840475
0.874654
0.901979
0.924587
0.942952
0.698474
0.741014
0.786459
0.829723
0.867979
0.901417
0.930079
0.953979
0.97425
0.992123
0.801866
0.834407
0.872173
0.907382
0.939733
0.968763
0.994158
1.01553
1.03331
1.05068
0.89384
0.92234
0.956081
0.988019
1.0178
1.04484
1.06848
1.08813
1.10359
1.12067
0.982083
1.01117
1.04504
1.07696
1.10646
1.13297
1.15577
1.17421
1.18755
1.20458
1.07719
1.11032
1.14688
1.18039
1.21038
1.23651
1.25842
1.27567
1.28752
1.30491
1.19206
1.22984
1.26844
1.30264
1.33195
1.35666
1.37701
1.39288
1.40433
1.4224
1.33693
1.37544
1.41155
1.44222
1.46787
1.48995
1.50899
1.5245
1.53692
1.55491
1.51195
1.54357
1.56973
1.59216
1.61212
1.63083
1.64854
1.66501
1.68035
1.69841
1.70054
1.71774
1.73276
1.74898
1.76488
1.77941
1.79261
1.80653
1.82407
1.84422
1.88225
1.89178
1.90332
1.91412
1.9234
1.93298
1.94376
1.95512
1.96648
1.98183
2.08947
2.09313
2.07818
2.06338
2.0571
2.06276
2.08124
2.11155
2.14373
2.17038
2.39579
2.26093
2.18428
2.14189
2.12447
2.12843
2.15583
2.21225
2.31486
2.53923
0.718574
0.716447
0.711965
0.703344
0.691125
0.679004
0.668787
0.660909
0.655316
0.652096
0.651782
0.654559
0.659693
0.666938
0.67634
0.68789
0.700548
0.711588
0.717702
0.720758
0.643017
0.648865
0.6552
0.659697
0.662173
0.661857
0.659132
0.65534
0.651856
0.649632
0.649528
0.651766
0.655461
0.659773
0.663596
0.66549
0.664561
0.661086
0.655926
0.649305
0.634574
0.636871
0.640277
0.643278
0.64536
0.646866
0.647635
0.647338
0.646341
0.645497
0.645719
0.64719
0.64904
0.650371
0.650569
0.649692
0.648152
0.645823
0.642564
0.639646
0.629037
0.630123
0.631959
0.634343
0.636375
0.637813
0.63885
0.639624
0.640058
0.640324
0.640868
0.641725
0.642361
0.642456
0.642065
0.641231
0.639773
0.637698
0.635618
0.634237
0.623799
0.624462
0.625573
0.627284
0.629075
0.63072
0.632034
0.633076
0.633995
0.634836
0.635626
0.636235
0.636473
0.63634
0.635798
0.634762
0.633348
0.631816
0.630505
0.629727
0.618779
0.619239
0.620028
0.621334
0.622832
0.624364
0.62585
0.627178
0.628356
0.62947
0.630457
0.631092
0.63129
0.631057
0.63039
0.629423
0.628316
0.627197
0.62629
0.625774
0.613896
0.61424
0.614854
0.61593
0.617237
0.618628
0.620091
0.621571
0.622993
0.624341
0.625536
0.626307
0.626548
0.626322
0.62576
0.625013
0.624184
0.623335
0.622672
0.622296
0.609093
0.60936
0.609856
0.610774
0.611958
0.613275
0.614698
0.616226
0.617823
0.619422
0.620869
0.621834
0.622213
0.622153
0.621807
0.621284
0.620664
0.620046
0.619566
0.619279
0.604288
0.6045
0.604913
0.605722
0.606827
0.608099
0.609517
0.611098
0.612835
0.614683
0.616432
0.617675
0.618308
0.6185
0.618394
0.618099
0.617692
0.61727
0.616932
0.616707
0.599391
0.599561
0.599916
0.600652
0.601714
0.602968
0.604418
0.60609
0.607994
0.61011
0.61222
0.613839
0.614811
0.615304
0.615461
0.615406
0.615219
0.614975
0.614754
0.614576
0.594311
0.594449
0.594762
0.595455
0.596503
0.597784
0.599306
0.601112
0.603238
0.605681
0.608232
0.610317
0.611696
0.612539
0.612998
0.6132
0.613231
0.613162
0.613042
0.612899
0.588957
0.589067
0.589353
0.590027
0.591096
0.592451
0.59409
0.596085
0.5985
0.601356
0.60445
0.607096
0.608956
0.610205
0.611005
0.611489
0.611753
0.611859
0.611827
0.611711
0.583229
0.583316
0.583586
0.584266
0.585392
0.586863
0.588674
0.590926
0.59371
0.597086
0.600845
0.604165
0.606596
0.608317
0.609503
0.610318
0.610841
0.611115
0.611162
0.611067
0.577016
0.577082
0.577345
0.578054
0.579275
0.580909
0.582955
0.585545
0.588799
0.592821
0.597389
0.601519
0.60463
0.606905
0.60854
0.609725
0.610536
0.610993
0.611115
0.611036
0.570185
0.57023
0.570494
0.571255
0.57261
0.574464
0.57682
0.579839
0.583686
0.588505
0.594055
0.599158
0.603076
0.606009
0.608172
0.609777
0.610919
0.611574
0.61177
0.611704
0.56258
0.562602
0.562869
0.563704
0.565238
0.567376
0.570127
0.573693
0.57828
0.584077
0.59082
0.597086
0.601961
0.605668
0.608457
0.610562
0.612081
0.612951
0.613221
0.613164
0.553972
0.553985
0.554267
0.555202
0.556971
0.559455
0.562714
0.566969
0.572476
0.579474
0.587657
0.595312
0.60132
0.605937
0.609465
0.612174
0.614122
0.615225
0.615569
0.615519
0.544083
0.544066
0.544398
0.545478
0.547537
0.550482
0.554386
0.559504
0.566155
0.574626
0.584548
0.593852
0.601196
0.606887
0.611281
0.61469
0.617138
0.618497
0.618913
0.618865
0.532596
0.532554
0.532935
0.534208
0.536637
0.540176
0.544896
0.551106
0.559188
0.569468
0.581481
0.592734
0.601636
0.608583
0.613994
0.618207
0.621228
0.622858
0.623342
0.623291
0.519015
0.518947
0.519408
0.520934
0.523851
0.528159
0.533936
0.541547
0.551431
0.563939
0.578454
0.591991
0.602692
0.611079
0.617677
0.622817
0.626467
0.628373
0.628914
0.628854
0.502672
0.502575
0.503164
0.505046
0.508615
0.513955
0.521131
0.530569
0.542745
0.557996
0.57549
0.591668
0.604422
0.614443
0.622377
0.628564
0.632894
0.635064
0.63564
0.635565
0.482608
0.482485
0.483279
0.48568
0.49017
0.496941
0.506031
0.5179
0.533022
0.551648
0.572649
0.591835
0.606889
0.618727
0.628119
0.635465
0.640486
0.642876
0.643458
0.643359
0.457373
0.457235
0.458368
0.461575
0.467461
0.476329
0.488133
0.503311
0.522232
0.544978
0.570049
0.592593
0.610145
0.623952
0.634927
0.643487
0.649138
0.651664
0.652208
0.652078
0.424607
0.424492
0.426247
0.430855
0.439064
0.451211
0.466997
0.486717
0.510499
0.53819
0.56788
0.594066
0.61426
0.630131
0.642744
0.652504
0.658635
0.661162
0.661617
0.661452
0.380079
0.380135
0.383261
0.390793
0.403314
0.42081
0.442503
0.468345
0.498177
0.531629
0.566397
0.596399
0.619297
0.637243
0.651484
0.662302
0.66863
0.670972
0.671292
0.671095
0.315857
0.317104
0.324755
0.338818
0.359243
0.385254
0.415269
0.448913
0.485902
0.525762
0.565875
0.599727
0.62527
0.645213
0.660895
0.672421
0.67862
0.680539
0.680685
0.680472
0.239776
0.241612
0.256264
0.280436
0.311924
0.347976
0.387049
0.428973
0.473581
0.520429
0.566625
0.605099
0.63391
0.656271
0.673537
0.685646
0.69144
0.692993
0.693086
0.692953
0.161341
0.167679
0.189318
0.223868
0.265857
0.311666
0.35975
0.40999
0.462275
0.516179
0.568563
0.611711
0.643745
0.668441
0.687411
0.699489
0.704377
0.705408
0.705445
0.705383
0.0971413
0.105853
0.132098
0.173755
0.22397
0.278078
0.334276
0.392291
0.451892
0.512571
0.570839
0.618333
0.653284
0.679906
0.699662
0.711496
0.715961
0.716887
0.716967
0.716961
0.0449338
0.0542481
0.0840842
0.131031
0.187447
0.248244
0.3113
0.376177
0.442451
0.509466
0.573307
0.624899
0.662547
0.690891
0.711465
0.723318
0.727524
0.728352
0.728477
0.728524
0.00129207
0.0108888
0.043195
0.0941708
0.15568
0.222026
0.290899
0.361779
0.434068
0.506946
0.576056
0.63158
0.671841
0.701944
0.723458
0.735371
0.739408
0.740399
0.740567
0.740658
-0.0361603
-0.026462
0.00768574
0.061883
0.12761
0.198696
0.272649
0.34886
0.426611
0.504935
0.579055
0.638397
0.681251
0.713091
0.735535
0.747849
0.752123
0.753151
0.753329
0.753442
-0.0691183
-0.0594013
-0.0238487
0.0330651
0.102332
0.177512
0.255968
0.336989
0.419772
0.503216
0.582141
0.645204
0.690617
0.724221
0.747776
0.760682
0.765204
0.766304
0.766468
0.766564
-0.098889
-0.0891545
-0.0524567
0.00680092
0.0791056
0.157876
0.24035
0.325756
0.413209
0.501506
0.585073
0.651794
0.699752
0.735153
0.759811
0.773342
0.778158
0.779297
0.779437
0.779511
-0.126386
-0.116627
-0.0789512
-0.017623
0.057362
0.139322
0.225403
0.314812
0.406617
0.499542
0.587641
0.657976
0.708441
0.745556
0.771292
0.785413
0.790582
0.791764
0.791868
0.791914
-0.152198
-0.142389
-0.103822
-0.0407418
0.0366688
0.121484
0.210822
0.303897
0.399771
0.497128
0.589676
0.663605
0.716552
0.755337
0.782071
0.796711
0.802149
0.803356
0.803423
0.803434
-0.176823
-0.166907
-0.127454
-0.0628871
0.016729
0.104099
0.196388
0.292826
0.392507
0.494103
0.591035
0.66859
0.724015
0.764409
0.792057
0.807058
0.812628
0.813855
0.813896
0.813874
-0.200566
-0.190457
-0.150267
-0.0842354
-0.00266082
0.086991
0.181952
0.281472
0.384691
0.490348
0.591626
0.672875
0.730831
0.77278
0.801171
0.816393
0.822019
0.823195
0.8232
0.823145
-0.223543
-0.213248
-0.17239
-0.104932
-0.0216386
0.0700659
0.167424
0.269747
0.376249
0.485771
0.591361
0.676423
0.737018
0.780527
0.809517
0.824805
0.830321
0.83144
0.83141
0.831336
-0.245958
-0.235403
-0.193821
-0.125104
-0.040273
0.0532612
0.152763
0.257621
0.367145
0.48032
0.590159
0.679196
0.742642
0.787802
0.817268
0.832396
0.837685
0.838686
0.838613
0.838519
-0.267775
-0.256968
-0.21471
-0.144813
-0.0585908
0.0365655
0.137977
0.245102
0.357369
0.473951
0.587955
0.681143
0.747758
0.794764
0.824637
0.839375
0.844238
0.845048
0.844922
0.844812
-0.289058
-0.277982
-0.235009
-0.164057
-0.0765895
0.0199919
0.123085
0.232224
0.346949
0.466663
0.58469
0.682191
0.752377
0.801582
0.831914
0.845978
0.850108
0.850604
0.850411
0.850297
-0.309686
-0.298399
-0.254716
-0.182806
-0.0942401
0.00359478
0.108137
0.21904
0.335939
0.45849
0.580316
0.682253
0.75645
0.80838
0.839456
0.852645
0.855592
0.85548
0.855203
0.855123
-0.32979
-0.318187
-0.273835
-0.201053
-0.111525
-0.0125995
0.0932115
0.205617
0.32441
0.449488
0.574818
0.681207
0.75985
0.815171
0.847615
0.860085
0.861379
0.859996
0.859381
0.85939
-0.349219
-0.337327
-0.292348
-0.218768
-0.128373
-0.0285146
0.0783798
0.192065
0.312457
0.439707
0.568214
0.678925
0.762375
0.821791
0.856525
0.86913
0.868842
0.865379
0.863371
0.862886
-0.368042
-0.355874
-0.310209
-0.235909
-0.144758
-0.0440882
0.0637184
0.178455
0.300182
0.42927
0.56055
0.675273
0.76376
0.827878
0.865818
0.880101
0.879783
0.874372
0.868219
0.860623
-0.386184
-0.373786
-0.327514
-0.25263
-0.160884
-0.059583
0.048908
0.16441
0.287168
0.417715
0.551346
0.669767
0.763606
0.833241
0.875079
0.892711
0.894936
0.88867
0.877313
0.87304
-0.403599
-0.390987
-0.34425
-0.268909
-0.176766
-0.0749972