/*--------------------------------*- C++ -*----------------------------------*\
| =========                 |                                                 |
| \\      /  F ield         | OpenFOAM: The Open Source CFD Toolbox           |
|  \\    /   O peration     | Version:  4.0                                   |
|   \\  /    A nd           | Web:      www.OpenFOAM.org                      |
|    \\/     M anipulation  |                                                 |
\*---------------------------------------------------------------------------*/
FoamFile
{
    version     2.0;
    format      ascii;
    class       volScalarField;
    location    "0.004";
    object      p;
}
// * * * * * * * * * * * * * * * * * * * * * * * * * * * * * * * * * * * * * //

dimensions      [1 -1 -2 0 0 0 0];

internalField   nonuniform List<scalar> 
100
(
100000
100000
100000
100000
100000
100000
100000
100000
100000
100000
100000
100000
100000
100000
100000
100000
100000
100000
100000
100000
100000
100000
99999.9
99999.7
99999
99996.7
99989.3
99967.7
99907.9
99754.6
99392.4
98616.5
97132.7
94769.3
91569.2
87629.5
83178.3
78474.2
73733.8
69092.3
64644.5
60409.6
56463.6
52734
49327.2
46190.9
43321.2
40746.4
38445.6
36466.3
34747.2
33317.5
32125.1
31247.4
30714
30371.5
30243.2
30243.8
30253.8
30310.4
30267
30315.3
30353.6
30350.1
30336.7
30303.2
30229.6
30058.7
29852.1
29532.5
28793.9
27023.8
22296.2
13047.2
10615.4
10098.3
10014.9
10002.2
10000.3
10000
10000
10000
10000
10000
10000
10000
10000
10000
10000
10000
10000
10000
10000
10000
10000
10000
10000
10000
10000
10000
)
;

boundaryField
{
    sides
    {
        type            zeroGradient;
    }
    empty
    {
        type            empty;
    }
}


// ************************************************************************* //
