/*--------------------------------*- C++ -*----------------------------------*\
| =========                 |                                                 |
| \\      /  F ield         | OpenFOAM: The Open Source CFD Toolbox           |
|  \\    /   O peration     | Version:  4.0                                   |
|   \\  /    A nd           | Web:      www.OpenFOAM.org                      |
|    \\/     M anipulation  |                                                 |
\*---------------------------------------------------------------------------*/
FoamFile
{
    version     2.0;
    format      ascii;
    class       volScalarField;
    location    "25";
    object      p;
}
// * * * * * * * * * * * * * * * * * * * * * * * * * * * * * * * * * * * * * //

dimensions      [0 2 -2 0 0 0 0];

internalField   nonuniform List<scalar> 
918
(
0.227493
0.900014
0.0122963
0.226811
-0.00851522
0.867116
-0.833278
0.403511
0.207583
-0.414564
-0.428307
0.199039
0.727518
0.494335
-1.45912
-0.134552
0.357695
-0.709943
0.206563
-0.0306851
0.458986
0.214217
0.217258
0.207853
0.269027
0.480152
0.608077
0.013633
0.00563299
0.00203588
-0.00683167
-0.0410232
-0.0500066
0.750754
0.801849
0.824513
0.176454
0.00254461
-0.687337
-0.761276
-0.749813
-0.87954
0.395218
0.399762
-0.494363
0.404162
0.416724
0.194982
0.206916
0.207846
0.208976
0.207887
0.209295
0.100458
-0.420707
-0.457594
-0.398782
-0.395879
-0.216296
-0.448585
-0.437658
-0.412509
-0.37146
0.130366
0.196164
0.193035
0.203614
0.211856
0.839562
0.811465
0.837608
0.751284
0.767811
0.705478
0.678025
0.514554
0.535881
0.479617
0.469343
-1.90221
-2.87536
-0.857667
-0.600273
-0.00165195
-0.169442
-0.197819
0.346925
0.350229
0.356423
0.370468
0.753523
-0.703743
-0.848042
0.206635
0.205437
0.21396
0.214651
0.210659
0.209759
-0.0521653
-0.0940849
-0.013308
-0.0176251
-0.0219228
0.443806
0.438548
0.208413
0.205457
0.219494
0.242154
0.231499
-0.028131
0.277069
0.296118
0.293908
0.466849
0.462167
0.470585
0.581521
0.544654
0.645489
0.668688
0.00300013
0.00409502
-0.118921
-0.0633888
-0.082636
0.172614
0.165744
0.190612
0.179733
0.181972
-0.0818508
-0.217994
0.087857
0.110751
-0.596306
-0.661737
-0.768839
-0.783168
-0.891021
0.243511
0.386121
0.388434
-0.511057
-0.430284
-0.572171
-0.35644
-0.422852
0.185372
0.192319
0.187355
0.202664
0.197204
0.199149
0.211213
0.208286
0.209837
0.164588
0.285918
0.0335944
0.0109445
-0.568477
-0.471363
-0.556878
-0.383576
-0.38825
-0.213453
-0.185621
-0.231837
-0.237112
-0.396678
-0.425545
-0.407055
-0.335867
-0.279052
0.123234
0.113199
0.141482
0.148229
0.187845
0.188991
0.190961
0.18992
0.62879
0.651065
0.658642
0.632486
-3.88749
-6.71315
-0.267015
-0.125447
-0.000855904
0.00344348
0.00109653
0.00672908
0.00289694
-0.00391779
-0.282186
-0.27933
-0.235422
-0.257208
0.331975
0.333454
0.669688
0.660882
0.65483
0.607371
0.194776
0.196938
0.20245
0.198302
-0.229926
-0.137647
-0.177079
0.414007
0.428527
0.426134
-0.0636503
-0.148944
0.0179547
0.0451051
0.318176
0.301142
0.317614
0.355749
0.392833
0.676124
0.694461
0.6927
0.701246
0.745338
0.761795
0.727044
0.153493
0.162989
0.158044
0.193944
0.191491
0.192561
0.187648
0.189276
0.186867
-0.371784
-0.759128
0.169138
0.191211
0.156304
0.172755
0.3209
0.394113
0.367572
0.378813
0.380151
-0.289794
-0.351599
-0.0376467
-0.0806073
0.0699695
0.102263
0.0849308
0.599801
0.560516
0.610438
0.583815
0.545359
0.570786
-0.710839
-2.23956
-1.3423
0.235119
0.0430154
0.132866
-0.242394
-0.277194
-0.271625
0.646006
0.727066
0.342705
0.503897
0.516102
0.433477
0.464478
0.517578
0.443111
0.477621
0.513141
0.495223
0.203205
0.178296
0.17268
0.465052
0.520617
-0.17642
-0.228635
-0.278032
-0.179347
-0.138221
-0.146012
0.695342
0.581787
0.657646
0.205184
0.205867
-0.00205495
-0.00723646
0.209976
0.210057
-0.00275971
-0.0225257
0.11517
-1.16886
-0.187913
0.198351
0.188844
0.205524
-0.404802
0.0615321
-0.463397
-0.258459
-0.306301
0.196256
0.139503
0.1047
0.00901078
-0.107858
-0.0753894
-0.52126
0.202833
0.20117
0.20502
0.206054
0.206696
-0.000494089
-0.0101563
-0.00208939
-0.0588917
-0.0233828
-0.0232675
0.170822
0.187088
-0.482873
0.205205
0.207314
0.207161
0.200182
0.206003
0.204109
-0.0753883
-0.0445843
-0.0976225
-0.0774289
0.0388367
0.3678
0.468836
0.328325
0.0995605
-0.142845
0.26476
0.332431
0.231891
0.394794
0.375453
0.393175
-0.127208
-0.27437
-0.119495
-0.173667
0.196349
0.194982
0.187061
0.184201
0.200432
0.198464
0.203133
0.19994
0.202972
0.204375
-0.357652
-0.387293
-0.398237
-0.462478
0.0213399
0.277132
-0.04736
-0.0151065
-0.152989
-0.493222
-0.427846
-0.461145
-0.434725
-0.454852
-0.315987
-0.284793
-0.253475
-0.333073
-0.37909
-0.502624
-0.401523
-0.413474
0.190457
0.18938
0.195581
0.202561
0.148487
0.151801
0.120897
0.138993
0.124495
0.070965
0.104023
0.0803828
0.00122728
0.0107646
0.00582784
-0.120484
-0.224565
-0.0477257
-0.013748
-0.0141204
-0.0270647
-0.0343137
-0.118084
-0.143942
-0.481511
-0.59933
0.652054
0.600313
-0.205247
0.192042
0.198472
0.195276
0.19999
0.203087
0.203942
0.201723
0.198353
0.187787
0.189659
0.185688
0.186108
-0.426027
-0.560641
-0.383345
-0.450038
-0.191888
0.308152
0.0515465
-0.00771373
-0.0123723
0.202307
0.605304
0.407426
0.418372
0.443282
-0.668286
-0.267291
-0.599665
0.0219278
-0.157359
0.364488
0.416745
0.440742
0.386314
0.336201
-0.444783
0.212503
-0.368838
-0.325711
-0.136333
-0.238981
0.408078
0.359657
0.366775
0.381028
0.400697
0.364273
0.342909
0.340448
0.376195
0.381216
0.175063
-0.0453721
-0.090427
-0.127165
0.340556
0.215652
0.271459
0.188324
0.191149
0.194027
0.19256
0.175642
0.18275
0.178665
0.183886
0.186861
0.196259
0.196712
0.191928
0.194381
-0.373576
-0.376628
-0.335331
-0.445422
-0.438486
-0.484618
-0.377686
-0.243647
-0.278519
-0.0896831
0.0232344
-0.273104
-0.385424
-0.352529
-0.325521
-0.142543
-0.122014
-0.214582
-0.134893
-0.125158
-0.146711
-0.0452997
-0.044418
-0.480616
-0.440972
-0.417043
-0.461565
-0.300769
-0.202334
-0.19249
-0.487476
-0.591929
-0.410492
-0.339372
-0.338235
-0.379229
-0.397886
-0.311094
-0.103933
-0.120884
-0.183457
-0.405843
-0.313256
-0.359934
0.18596
0.187426
0.187497
0.198646
0.210121
0.225259
0.191505
0.168709
0.160413
0.163516
0.138836
0.148383
0.143619
0.156481
0.175787
0.18244
0.182191
0.184224
0.168917
0.170089
0.158215
0.161299
0.139075
0.122252
0.111415
-0.0512913
-0.0313327
-0.0484992
-0.0636068
-0.00985925
-0.0272948
-0.313193
-0.209489
-0.26721
-0.230503
-0.346312
-0.0511807
-0.0692119
-0.394594
-0.318844
-0.509903
-0.538784
-0.609719
0.563097
0.66997
0.492626
0.278493
0.282086
0.506889
0.604211
0.242368
0.412253
0.443411
0.214183
0.485966
0.196973
0.196422
0.19397
0.193481
0.19503
-0.343007
-0.243904
-0.224872
-0.177246
-0.0613698
0.0542837
-0.0387856
-0.165176
-0.0248638
-0.0138732
0.303213
0.3198
0.264122
0.289366
0.288596
0.115381
0.190529
0.245626
0.200586
0.244418
0.26642
0.227162
0.256908
0.205092
0.163153
0.162051
0.108832
0.129242
0.107164
0.0892978
0.186889
0.16588
0.175486
0.167503
0.187174
0.214941
0.210292
0.236066
0.24814
0.17245
0.134911
0.143695
0.170646
0.133163
0.145911
0.160305
-0.121564
-0.220323
-0.132937
-0.426608
-0.337362
-0.352869
-0.39876
-0.359943
-0.0729799
-0.775972
-0.744477
-1.38236
0.148558
0.631323
0.365172
0.338089
0.398497
0.375396
0.379304
0.407244
0.413736
0.33082
0.350849
0.352633
0.302908
0.329748
0.355394
0.353203
0.184064
0.066872
0.0582993
0.0198967
-0.101155
-0.0704952
0.131087
0.0538986
-0.0176779
-0.012953
0.150568
0.0423165
0.106828
0.144539
0.0787964
0.0358097
0.231986
0.299839
0.290484
0.265289
0.180238
0.191676
0.21843
0.254841
0.281113
0.316284
0.183821
0.189282
0.190536
0.188124
0.185645
0.188392
0.188311
0.190839
0.19181
0.194764
0.193645
-0.407839
-0.394054
-0.363212
-0.387616
-0.322468
-0.326028
-0.283721
-0.296322
-0.326279
-0.314376
-0.344072
-0.357616
-0.363959
-0.353131
-0.201712
-0.194526
-0.225302
-0.25466
-0.0687472
0.0605091
0.121746
0.00919606
-0.0961587
-0.0775275
-0.0441516
-0.3236
-0.334185
-0.37136
-0.277032
-0.265211
-0.49809
-0.46223
-0.466093
-0.597285
-0.513964
-0.372667
-0.198024
-0.239783
-0.29069
-0.286027
-0.228113
0.170556
0.164614
0.166366
0.160921
0.15988
0.172857
0.176833
0.178514
0.183043
0.184533
0.176643
0.180752
0.184025
-0.243966
-0.114881
-0.164375
-0.219386
-0.147675
-0.102346
-0.134028
-0.217742
-0.283478
-0.274834
-0.323428
-0.444413
-0.388153
0.134506
0.124284
0.143297
0.359619
0.21467
0.130328
0.217934
0.321964
-0.0744744
0.126888
-0.0428168
0.536892
0.424497
0.566454
0.19911
-0.105246
0.0455485
0.100793
-0.0984991
-0.0268524
-0.00237884
-0.112717
-0.08271
-0.0542949
0.0474204
-0.0760611
-0.105737
-0.352024
-0.168955
-0.0372939
-0.0595799
0.0741006
0.138648
-0.091245
-0.167692
-0.209041
0.293495
0.314393
0.333087
0.302528
0.326099
0.24958
0.240182
0.25903
0.269035
0.262775
-1.11132
-0.820743
-1.76133
-1.06807
-0.622549
0.182621
0.135919
0.429561
0.315888
0.393498
0.375309
0.331214
0.294997
0.304616
0.340916
0.043338
0.151331
0.125704
0.133343
0.0375953
-0.0299763
0.268608
0.262042
0.299384
0.323952
0.290274
0.324471
0.181809
0.181357
0.18068
0.177471
0.175696
0.177936
-0.242862
-0.279612
-0.238595
-0.252107
-0.272111
-0.292158
-0.384429
-0.363301
-0.284366
-0.2751
-0.285047
-0.34237
-0.185373
-0.240877
-0.308062
-0.282275
-0.337026
-0.401873
-0.420743
-0.322613
-0.235985
-0.242247
0.0610946
0.312531
0.138703
0.3089
0.147264
0.204837
0.14324
0.141044
0.175021
0.0374727
0.111707
-0.130911
-0.632599
-0.539533
0.441061
0.46158
0.249145
0.0556934
-0.171029
0.0246897
0.213659
0.152258
0.192769
0.260324
0.254315
-0.342963
-0.268909
-0.0320491
0.195034
-0.113838
-0.120776
-0.125536
0.0383668
-0.0323405
)
;

boundaryField
{
    wall-4
    {
        type            zeroGradient;
    }
    velocity-inlet-5
    {
        type            zeroGradient;
    }
    velocity-inlet-6
    {
        type            zeroGradient;
    }
    pressure-outlet-7
    {
        type            fixedValue;
        value           uniform 0;
    }
    wall-8
    {
        type            zeroGradient;
    }
    frontAndBackPlanes
    {
        type            empty;
    }
}


// ************************************************************************* //
