/*--------------------------------*- C++ -*----------------------------------*\
| =========                 |                                                 |
| \\      /  F ield         | OpenFOAM: The Open Source CFD Toolbox           |
|  \\    /   O peration     | Version:  4.0                                   |
|   \\  /    A nd           | Web:      www.OpenFOAM.org                      |
|    \\/     M anipulation  |                                                 |
\*---------------------------------------------------------------------------*/
FoamFile
{
    version     2.0;
    format      ascii;
    class       surfaceScalarField;
    location    "0.004";
    object      phi;
}
// * * * * * * * * * * * * * * * * * * * * * * * * * * * * * * * * * * * * * //

dimensions      [1 0 -1 0 0 0 0];

internalField   nonuniform List<scalar> 
9999
(
-1.93268e-12
-2.10321e-12
-2.67164e-12
-2.67164e-12
-3.58114e-12
-3.75167e-12
-3.41061e-12
-3.52429e-12
-3.12639e-12
-3.18323e-12
-3.63798e-12
-3.9222e-12
-3.06954e-12
-2.95586e-12
-2.78533e-12
-2.55795e-12
-2.21689e-12
-2.04636e-12
-2.16005e-12
-1.47793e-12
-5.68434e-13
-5.11591e-13
1.13687e-13
8.52651e-13
1.3074e-12
1.81899e-12
1.59162e-12
2.44427e-12
1.53477e-12
2.10321e-12
2.27374e-12
2.84217e-12
2.6148e-12
2.72848e-12
3.18323e-12
2.89901e-12
2.95586e-12
2.55795e-12
2.95586e-12
3.18323e-12
3.24007e-12
2.72848e-12
2.95586e-12
2.95586e-12
2.84217e-12
2.50111e-12
3.06954e-12
2.67164e-12
2.6148e-12
3.29692e-12
3.41061e-12
3.41061e-12
3.97904e-12
4.718e-12
5.45697e-12
5.22959e-12
5.28644e-12
5.28644e-12
4.94538e-12
3.97904e-12
3.12639e-12
1.7053e-12
1.59162e-12
1.36424e-12
1.08002e-12
3.41061e-13
-5.68434e-13
-1.59162e-12
-2.38742e-12
-2.44427e-12
-2.95586e-12
-3.24007e-12
-3.97904e-12
-4.03588e-12
-4.26326e-12
-3.75167e-12
-3.41061e-12
-3.52429e-12
-3.06954e-12
-3.41061e-12
-3.63798e-12
-3.12639e-12
-3.35376e-12
-3.75167e-12
-3.12639e-12
-2.78533e-12
-2.16005e-12
-1.25056e-12
-6.25278e-13
-1.25056e-12
-6.25278e-13
-5.68434e-13
-5.68434e-13
-3.41061e-13
-1.7053e-13
-2.84217e-13
4.54747e-13
9.66338e-13
1.87583e-12
1.81899e-12
2.38742e-12
3.18323e-12
4.03588e-12
5.28644e-12
5.68434e-12
6.25278e-12
6.82121e-12
7.44649e-12
8.29914e-12
9.0381e-12
9.83391e-12
1.04023e-11
1.09708e-11
1.13687e-11
1.17666e-11
1.33014e-11
1.35287e-11
1.36424e-11
1.33014e-11
1.40972e-11
1.47793e-11
1.51203e-11
1.61435e-11
1.66551e-11
1.54046e-11
1.50067e-11
1.54046e-11
1.48361e-11
1.40972e-11
1.37561e-11
1.37561e-11
1.43814e-11
1.42109e-11
1.36993e-11
1.36424e-11
1.33014e-11
1.21076e-11
1.21645e-11
1.18234e-11
1.18803e-11
1.10276e-11
1.06297e-11
9.9476e-12
8.98126e-12
8.41283e-12
7.16227e-12
7.04858e-12
6.19593e-12
6.30962e-12
5.79803e-12
5.11591e-12
5.11591e-12
4.49063e-12
4.43379e-12
4.37694e-12
4.03588e-12
4.54747e-12
4.14957e-12
2.95586e-12
3.46745e-12
3.18323e-12
2.67164e-12
2.84217e-12
2.16005e-12
1.98952e-12
2.44427e-12
1.93268e-12
1.76215e-12
1.98952e-12
2.89901e-12
2.6148e-12
3.29692e-12
2.84217e-12
3.12639e-12
3.46745e-12
5.17275e-12
5.51381e-12
4.94538e-12
5.28644e-12
6.0254e-12
6.36646e-12
6.48015e-12
6.76437e-12
7.16227e-12
8.29914e-12
9.20863e-12
1.01181e-11
1.10276e-11
1.18803e-11
1.27898e-11
1.34719e-11
1.31877e-11
1.43814e-11
1.4893e-11
1.50067e-11
1.46088e-11
1.50067e-11
1.42677e-11
1.3415e-11
1.35287e-11
1.48361e-11
1.50635e-11
1.50067e-11
1.44951e-11
1.49498e-11
1.52909e-11
1.4893e-11
1.51772e-11
1.54614e-11
1.54614e-11
1.56888e-11
1.67688e-11
1.77351e-11
1.79057e-11
1.84741e-11
1.79057e-11
1.80762e-11
1.72804e-11
1.68257e-11
1.68257e-11
1.73372e-11
1.71099e-11
1.76215e-11
1.76783e-11
1.75646e-11
1.67688e-11
1.64277e-11
1.57456e-11
1.47793e-11
1.50067e-11
1.53477e-11
1.57456e-11
1.47793e-11
1.44382e-11
1.39266e-11
1.39835e-11
1.35856e-11
1.3074e-11
1.25624e-11
1.21645e-11
1.33582e-11
1.40403e-11
1.42677e-11
1.48361e-11
1.46656e-11
1.39266e-11
1.34719e-11
1.36993e-11
1.3074e-11
1.35856e-11
1.36424e-11
1.35287e-11
1.36424e-11
1.28466e-11
1.33582e-11
1.39266e-11
1.30171e-11
1.22213e-11
1.1994e-11
1.22213e-11
1.18803e-11
1.1994e-11
1.26192e-11
1.27898e-11
1.29035e-11
1.3813e-11
1.46088e-11
1.64846e-11
1.71667e-11
1.7792e-11
1.78488e-11
1.76783e-11
1.83036e-11
1.89289e-11
1.94404e-11
1.94973e-11
1.96678e-11
1.92699e-11
1.88152e-11
1.94404e-11
1.93836e-11
1.85878e-11
1.84741e-11
1.79625e-11
1.72236e-11
1.7053e-11
1.73941e-11
1.79057e-11
1.67688e-11
1.7053e-11
1.74509e-11
1.84173e-11
1.93268e-11
1.94404e-11
1.93836e-11
1.9952e-11
2.00657e-11
2.0691e-11
2.12026e-11
2.26237e-11
2.29079e-11
2.34763e-11
2.37605e-11
2.46132e-11
2.49543e-11
2.42721e-11
2.50679e-11
2.55795e-11
2.51248e-11
2.45564e-11
2.359e-11
2.37037e-11
2.33626e-11
2.21689e-11
2.13731e-11
2.10889e-11
2.05205e-11
2.08047e-11
2.0691e-11
2.14868e-11
2.10321e-11
2.08615e-11
2.12594e-11
2.17142e-11
2.15437e-11
2.22826e-11
2.19984e-11
2.22826e-11
2.36469e-11
2.33058e-11
2.27942e-11
2.23963e-11
2.13731e-11
2.13163e-11
2.12594e-11
2.0691e-11
2.05773e-11
2.03499e-11
2.09184e-11
2.13163e-11
2.14868e-11
2.15437e-11
2.19416e-11
2.23963e-11
2.3249e-11
2.44995e-11
2.50111e-11
2.58069e-11
2.65459e-11
2.74554e-11
2.96154e-11
3.0866e-11
3.21734e-11
3.30829e-11
3.34239e-11
3.35945e-11
3.29123e-11
3.29692e-11
3.39924e-11
3.4504e-11
3.50155e-11
3.54134e-11
3.55271e-11
3.47882e-11
3.50155e-11
3.43334e-11
3.44471e-11
3.32534e-11
3.13776e-11
3.04112e-11
2.97291e-11
2.92175e-11
2.95586e-11
2.81943e-11
2.77964e-11
2.72848e-11
2.56364e-11
2.50679e-11
2.50111e-11
2.39879e-11
2.30784e-11
2.36469e-11
2.3249e-11
2.34763e-11
2.22826e-11
2.18279e-11
2.19416e-11
2.16573e-11
2.11458e-11
2.10321e-11
2.12026e-11
2.14868e-11
2.19984e-11
2.23963e-11
2.31353e-11
2.33626e-11
2.37037e-11
2.39311e-11
2.45564e-11
2.59206e-11
2.62617e-11
2.60343e-11
2.60911e-11
2.51248e-11
2.47269e-11
2.44995e-11
2.359e-11
2.40448e-11
2.50111e-11
2.45564e-11
2.33626e-11
2.41016e-11
2.41585e-11
2.56364e-11
2.52385e-11
2.51816e-11
2.50111e-11
2.59206e-11
2.64322e-11
2.69438e-11
2.68869e-11
2.70006e-11
2.67733e-11
2.67164e-11
2.72848e-11
2.81375e-11
2.76259e-11
2.77964e-11
2.70575e-11
2.83649e-11
2.85354e-11
2.96723e-11
3.05818e-11
3.06386e-11
3.08091e-11
3.12639e-11
3.17186e-11
3.18323e-11
3.1946e-11
3.21165e-11
3.24007e-11
3.21734e-11
3.25713e-11
3.24007e-11
3.24576e-11
3.24007e-11
3.21734e-11
3.18892e-11
3.21165e-11
3.21165e-11
3.24576e-11
3.29692e-11
3.37081e-11
3.32534e-11
3.18323e-11
3.10365e-11
3.17186e-11
3.14913e-11
3.16618e-11
3.30829e-11
3.35376e-11
3.39924e-11
3.42197e-11
3.54703e-11
3.59819e-11
3.75167e-11
3.8483e-11
3.87104e-11
3.95062e-11
3.99041e-11
4.00178e-11
3.96199e-11
3.94493e-11
3.88809e-11
3.81988e-11
3.7403e-11
3.71756e-11
3.79714e-11
3.71756e-11
3.68914e-11
3.62093e-11
3.56977e-11
3.56408e-11
3.56408e-11
3.55271e-11
3.42766e-11
3.35945e-11
3.31966e-11
3.41061e-11
3.33102e-11
3.30829e-11
3.28555e-11
3.23439e-11
3.18323e-11
3.22871e-11
3.29123e-11
3.34808e-11
3.4845e-11
3.53566e-11
3.61524e-11
3.71188e-11
3.76303e-11
3.68914e-11
3.62093e-11
3.5925e-11
3.5925e-11
3.47882e-11
3.51861e-11
3.46745e-11
3.49587e-11
3.54134e-11
3.52429e-11
3.56977e-11
3.5925e-11
3.62093e-11
3.71756e-11
3.71188e-11
3.7744e-11
3.82556e-11
3.78577e-11
3.85398e-11
3.91083e-11
3.94493e-11
3.91083e-11
3.91083e-11
4.00178e-11
4.01315e-11
4.04725e-11
4.05294e-11
4.15525e-11
4.21778e-11
4.28031e-11
4.36557e-11
4.50768e-11
4.502e-11
4.57021e-11
4.5759e-11
4.57021e-11
4.62137e-11
4.62705e-11
4.58726e-11
4.60432e-11
4.58158e-11
4.61e-11
4.5759e-11
4.51905e-11
4.61e-11
4.58726e-11
4.61569e-11
4.64411e-11
4.64979e-11
4.54747e-11
4.63842e-11
4.66684e-11
4.67253e-11
4.55884e-11
4.55884e-11
4.47926e-11
4.42242e-11
4.3201e-11
4.16094e-11
4.14389e-11
4.07567e-11
4.13252e-11
4.13252e-11
4.06999e-11
3.9222e-11
3.9222e-11
3.93925e-11
4.02451e-11
4.05862e-11
4.16662e-11
4.28599e-11
4.31442e-11
4.39968e-11
4.44516e-11
4.502e-11
4.502e-11
4.53042e-11
4.59295e-11
4.66116e-11
4.75211e-11
4.67253e-11
4.72937e-11
4.73506e-11
4.77485e-11
4.83169e-11
4.85443e-11
4.88853e-11
4.86011e-11
4.84874e-11
4.83737e-11
4.8999e-11
4.8999e-11
4.95675e-11
4.99654e-11
5.00222e-11
5.03064e-11
5.09885e-11
5.16138e-11
5.22391e-11
5.26938e-11
5.24096e-11
5.22391e-11
5.25802e-11
5.16138e-11
5.16707e-11
5.14433e-11
5.16138e-11
5.09317e-11
5.03633e-11
4.97948e-11
4.93969e-11
4.92264e-11
4.91127e-11
4.88285e-11
4.80895e-11
4.77485e-11
4.63274e-11
4.54179e-11
4.49063e-11
4.48495e-11
4.48495e-11
4.38831e-11
4.30305e-11
4.21778e-11
4.25757e-11
4.2462e-11
4.18936e-11
4.3201e-11
4.37126e-11
4.36557e-11
4.37126e-11
4.4281e-11
4.47358e-11
4.46789e-11
4.49063e-11
4.46221e-11
4.51337e-11
4.51337e-11
4.58158e-11
4.54179e-11
4.49063e-11
4.5361e-11
4.45084e-11
4.50768e-11
4.60432e-11
4.76916e-11
4.92264e-11
4.93969e-11
4.95106e-11
4.99085e-11
5.07612e-11
5.06475e-11
5.07612e-11
5.14433e-11
5.07612e-11
5.03064e-11
4.9738e-11
4.94538e-11
4.95106e-11
4.91127e-11
4.91696e-11
4.88853e-11
4.93969e-11
4.88285e-11
4.76348e-11
4.718e-11
4.5759e-11
4.44516e-11
4.37694e-11
4.36557e-11
4.31442e-11
4.35989e-11
4.41673e-11
4.41105e-11
4.33715e-11
4.29736e-11
4.38263e-11
4.45084e-11
4.53042e-11
4.52474e-11
4.49631e-11
4.5361e-11
4.55316e-11
4.59863e-11
4.67253e-11
4.77485e-11
4.78622e-11
4.76348e-11
4.82032e-11
4.76348e-11
4.69527e-11
4.62137e-11
4.5759e-11
4.55884e-11
4.58726e-11
4.61569e-11
4.66116e-11
4.74074e-11
4.78622e-11
4.90559e-11
4.94538e-11
5.08749e-11
5.09317e-11
5.02496e-11
4.94538e-11
4.86011e-11
4.87148e-11
4.85443e-11
4.94538e-11
4.84306e-11
4.8658e-11
4.82032e-11
4.76348e-11
4.71232e-11
4.77485e-11
4.72937e-11
4.76916e-11
4.84306e-11
4.84306e-11
4.8999e-11
4.8658e-11
4.82601e-11
4.82032e-11
4.75779e-11
4.76916e-11
4.83737e-11
4.76916e-11
4.76348e-11
4.70664e-11
4.56453e-11
4.50768e-11
4.45084e-11
4.45084e-11
4.37126e-11
4.3201e-11
4.27463e-11
4.22347e-11
4.2121e-11
4.08136e-11
4.14389e-11
4.16094e-11
4.16662e-11
4.15525e-11
4.12115e-11
4.05294e-11
4.08704e-11
4.09273e-11
3.98472e-11
4.04157e-11
4.07567e-11
4.26894e-11
4.33715e-11
4.4281e-11
4.45652e-11
4.43379e-11
4.46789e-11
4.42242e-11
4.44516e-11
4.41105e-11
4.49631e-11
4.57021e-11
4.57021e-11
4.67253e-11
4.72369e-11
4.72369e-11
4.81464e-11
4.76916e-11
4.75211e-11
4.82601e-11
4.87717e-11
4.88285e-11
4.94538e-11
4.96243e-11
4.95106e-11
4.98517e-11
5.02496e-11
5.13296e-11
5.1557e-11
5.24665e-11
5.28075e-11
5.33191e-11
5.30918e-11
5.16707e-11
5.13865e-11
5.02496e-11
4.89422e-11
4.76916e-11
4.66684e-11
4.5759e-11
4.47358e-11
4.46221e-11
4.4281e-11
4.38263e-11
4.45652e-11
4.42242e-11
4.46789e-11
4.49631e-11
4.50768e-11
4.50768e-11
4.51905e-11
4.55884e-11
4.59295e-11
4.66684e-11
4.66116e-11
4.60432e-11
4.57021e-11
4.55316e-11
4.67821e-11
4.64979e-11
4.76348e-11
4.80327e-11
4.79758e-11
4.8999e-11
5.00791e-11
5.1557e-11
5.19549e-11
5.20117e-11
5.22959e-11
5.27507e-11
5.26938e-11
5.3376e-11
5.25233e-11
5.31486e-11
5.35465e-11
5.34897e-11
5.36602e-11
5.30349e-11
5.35465e-11
5.36602e-11
5.38307e-11
5.43992e-11
5.42286e-11
5.35465e-11
5.38307e-11
5.38307e-11
5.36602e-11
5.30918e-11
5.30349e-11
5.3717e-11
5.3717e-11
5.35465e-11
5.32623e-11
5.33191e-11
5.35465e-11
5.37739e-11
5.40012e-11
5.38307e-11
5.29212e-11
5.20117e-11
5.13865e-11
5.03633e-11
5.03633e-11
4.92264e-11
4.92832e-11
4.76916e-11
4.5759e-11
4.53042e-11
4.53042e-11
4.52474e-11
4.50768e-11
4.5361e-11
4.502e-11
4.502e-11
4.45084e-11
4.55884e-11
4.61569e-11
4.67253e-11
4.77485e-11
4.92264e-11
5.09885e-11
5.17275e-11
5.29781e-11
5.29212e-11
5.38876e-11
5.41718e-11
5.47402e-11
5.43423e-11
5.46265e-11
5.50244e-11
5.53655e-11
5.54792e-11
5.49107e-11
5.53086e-11
5.57066e-11
5.67866e-11
5.77529e-11
5.77529e-11
5.7355e-11
5.6616e-11
5.59908e-11
5.5195e-11
5.45128e-11
5.35465e-11
5.25802e-11
5.22391e-11
5.1557e-11
5.07043e-11
5.06475e-11
4.98517e-11
4.91127e-11
4.78053e-11
4.72937e-11
4.59295e-11
4.53042e-11
4.48495e-11
4.38831e-11
4.39968e-11
4.33147e-11
4.35989e-11
4.41673e-11
4.51337e-11
4.4281e-11
4.43947e-11
4.46789e-11
4.5361e-11
4.46789e-11
4.5361e-11
4.63274e-11
4.62705e-11
4.63842e-11
4.64411e-11
4.69527e-11
4.75779e-11
4.76348e-11
4.80327e-11
4.82032e-11
4.95106e-11
5.01359e-11
5.08749e-11
5.0818e-11
5.12728e-11
5.32054e-11
5.24665e-11
5.29781e-11
5.25802e-11
5.25233e-11
5.2637e-11
5.30918e-11
5.36602e-11
5.26938e-11
5.25802e-11
5.28075e-11
5.34897e-11
5.30349e-11
5.3717e-11
5.41718e-11
5.43992e-11
5.50813e-11
5.58202e-11
5.55929e-11
5.55929e-11
5.58202e-11
5.56497e-11
5.45697e-11
5.45128e-11
5.38307e-11
5.38307e-11
5.32623e-11
5.19549e-11
5.14433e-11
5.08749e-11
5.11022e-11
5.17275e-11
5.1898e-11
5.13296e-11
5.09885e-11
5.16138e-11
5.10454e-11
5.07043e-11
5.11022e-11
5.03064e-11
4.95675e-11
5.01359e-11
4.93969e-11
4.87717e-11
4.84874e-11
4.81464e-11
4.66684e-11
4.68958e-11
4.76348e-11
4.84306e-11
4.95106e-11
4.99654e-11
5.0818e-11
5.11591e-11
5.16138e-11
5.29212e-11
5.36602e-11
5.38307e-11
5.46265e-11
5.5536e-11
5.62181e-11
5.68434e-11
5.68434e-11
5.71845e-11
5.76961e-11
5.87193e-11
5.87193e-11
5.89466e-11
5.96856e-11
5.94582e-11
5.91172e-11
5.90603e-11
5.83213e-11
5.78666e-11
5.66729e-11
5.61613e-11
5.57066e-11
5.46265e-11
5.40581e-11
5.34897e-11
5.31486e-11
5.34897e-11
5.20117e-11
5.24665e-11
5.20686e-11
5.20117e-11
5.07612e-11
5.06475e-11
4.99654e-11
4.99654e-11
4.98517e-11
4.96243e-11
4.98517e-11
4.99085e-11
4.95675e-11
4.92832e-11
4.92832e-11
4.89422e-11
4.95106e-11
4.98517e-11
5.00791e-11
5.0818e-11
5.13865e-11
5.20117e-11
5.20686e-11
5.3376e-11
5.40012e-11
5.47402e-11
5.55929e-11
5.50244e-11
5.47402e-11
5.49107e-11
5.45128e-11
5.41149e-11
5.46834e-11
5.46265e-11
5.46834e-11
5.43423e-11
5.49107e-11
5.51381e-11
5.50244e-11
5.47971e-11
5.53655e-11
5.58202e-11
5.58202e-11
5.51381e-11
5.5536e-11
5.59339e-11
5.61045e-11
5.68434e-11
5.60476e-11
5.57634e-11
5.56497e-11
5.59908e-11
5.58202e-11
5.6616e-11
5.67866e-11
5.70708e-11
5.79234e-11
5.84919e-11
5.86056e-11
5.79234e-11
5.83213e-11
5.9174e-11
5.96287e-11
5.91172e-11
5.86624e-11
5.92308e-11
5.95151e-11
5.92877e-11
5.97993e-11
5.97424e-11
5.94582e-11
5.89466e-11
5.8435e-11
5.80371e-11
5.82645e-11
5.83213e-11
5.8435e-11
5.77529e-11
5.82077e-11
5.77529e-11
5.80371e-11
5.80371e-11
5.84919e-11
5.87193e-11
5.86056e-11
5.77529e-11
5.70139e-11
5.61613e-11
5.59908e-11
5.57634e-11
5.51381e-11
5.4456e-11
5.5195e-11
5.45697e-11
5.47971e-11
5.36033e-11
5.3376e-11
5.32623e-11
5.38307e-11
5.34328e-11
5.3717e-11
5.39444e-11
5.30918e-11
5.39444e-11
5.49676e-11
5.52518e-11
5.57634e-11
5.7355e-11
5.78666e-11
5.86056e-11
5.90603e-11
5.90035e-11
5.92308e-11
5.95151e-11
6.01403e-11
6.0254e-11
5.97424e-11
6.03109e-11
6.08225e-11
5.98561e-11
5.91172e-11
5.77529e-11
5.74119e-11
5.70708e-11
5.62181e-11
5.5536e-11
5.45128e-11
5.46265e-11
5.46265e-11
5.38876e-11
5.35465e-11
5.36033e-11
5.29212e-11
5.32054e-11
5.2637e-11
5.21823e-11
5.15001e-11
5.10454e-11
5.04201e-11
4.91127e-11
4.93401e-11
4.80327e-11
4.75211e-11
4.71232e-11
4.75779e-11
4.68958e-11
4.63274e-11
4.61569e-11
4.61569e-11
4.49631e-11
4.42242e-11
4.26894e-11
4.23483e-11
4.25189e-11
4.23483e-11
4.21778e-11
4.31442e-11
4.28031e-11
4.30873e-11
4.37126e-11
4.40536e-11
4.47358e-11
4.50768e-11
4.55316e-11
4.5759e-11
4.62137e-11
4.66684e-11
4.63842e-11
4.63842e-11
4.59295e-11
4.67253e-11
4.69527e-11
4.74074e-11
4.80327e-11
4.87148e-11
4.96243e-11
4.99654e-11
5.04201e-11
5.09317e-11
5.14433e-11
5.16138e-11
5.17275e-11
5.21823e-11
5.31486e-11
5.32623e-11
5.30349e-11
5.40012e-11
5.30349e-11
5.31486e-11
5.22391e-11
5.13865e-11
5.05338e-11
4.94538e-11
4.82032e-11
4.80327e-11
4.67821e-11
4.59863e-11
4.5759e-11
4.49063e-11
4.47926e-11
4.39968e-11
4.27463e-11
4.26326e-11
4.18368e-11
4.06999e-11
3.98472e-11
3.89946e-11
3.90514e-11
3.92788e-11
3.97335e-11
3.87672e-11
3.96767e-11
3.96199e-11
3.93925e-11
3.9222e-11
3.86535e-11
3.93356e-11
4.03588e-11
4.10409e-11
4.18368e-11
4.29736e-11
4.42242e-11
4.502e-11
4.59295e-11
4.61e-11
4.68958e-11
4.84306e-11
4.90559e-11
5.03064e-11
5.01927e-11
5.08749e-11
5.12728e-11
5.06475e-11
5.09317e-11
5.05906e-11
5.00791e-11
4.9738e-11
5.03633e-11
5.08749e-11
5.02496e-11
5.02496e-11
5.01927e-11
4.97948e-11
4.94538e-11
4.89422e-11
4.92832e-11
4.99654e-11
4.92832e-11
4.91696e-11
4.95106e-11
4.98517e-11
4.92264e-11
4.81464e-11
4.84874e-11
4.81464e-11
4.81464e-11
4.82601e-11
4.79758e-11
4.77485e-11
4.71232e-11
4.63274e-11
4.58158e-11
4.54747e-11
4.48495e-11
4.45084e-11
4.42242e-11
4.47926e-11
4.49063e-11
4.5361e-11
4.5361e-11
4.60432e-11
4.55884e-11
4.62137e-11
4.59863e-11
4.5759e-11
4.58158e-11
4.66684e-11
4.66684e-11
4.64979e-11
4.70664e-11
4.66116e-11
4.63842e-11
4.52474e-11
4.43379e-11
4.46221e-11
4.45084e-11
4.44516e-11
4.50768e-11
4.54747e-11
4.59295e-11
4.52474e-11
4.41673e-11
4.33715e-11
4.30873e-11
4.27463e-11
4.24052e-11
4.17799e-11
4.12683e-11
4.1382e-11
4.11546e-11
4.01315e-11
3.93356e-11
3.87104e-11
3.88809e-11
3.88809e-11
3.86535e-11
3.89946e-11
3.93356e-11
3.93925e-11
3.96767e-11
4.04157e-11
4.05294e-11
4.10978e-11
4.13252e-11
4.22915e-11
4.34284e-11
4.43379e-11
4.43947e-11
4.54179e-11
4.60432e-11
4.54179e-11
4.64979e-11
4.77485e-11
4.89422e-11
4.91127e-11
4.92832e-11
4.88285e-11
4.91127e-11
4.87148e-11
4.85443e-11
4.86011e-11
4.88285e-11
4.92264e-11
4.84306e-11
4.83737e-11
4.81464e-11
4.70664e-11
4.67821e-11
4.59863e-11
4.60432e-11
4.53042e-11
4.58158e-11
4.59863e-11
4.62137e-11
4.63842e-11
4.67253e-11
4.5759e-11
4.43947e-11
4.502e-11
4.40536e-11
4.33147e-11
4.28031e-11
4.16662e-11
4.21778e-11
4.14957e-11
4.16094e-11
4.12683e-11
3.98472e-11
3.89946e-11
3.85398e-11
3.82556e-11
3.67777e-11
3.63798e-11
3.6664e-11
3.59819e-11
3.71756e-11
3.78577e-11
3.82556e-11
3.83125e-11
3.91083e-11
3.88809e-11
3.99041e-11
3.9222e-11
3.96767e-11
4.01883e-11
4.05294e-11
4.14389e-11
4.24052e-11
4.29168e-11
4.36557e-11
4.43947e-11
4.38831e-11
4.35989e-11
4.38263e-11
4.34852e-11
4.29168e-11
4.33715e-11
4.30305e-11
4.29168e-11
4.22347e-11
4.2121e-11
4.16094e-11
4.10978e-11
4.09841e-11
4.17799e-11
4.0643e-11
4.1382e-11
4.05862e-11
4.12683e-11
4.08704e-11
4.06999e-11
4.1382e-11
4.1382e-11
4.14389e-11
4.12683e-11
4.1382e-11
4.11546e-11
4.09273e-11
4.09273e-11
4.14957e-11
4.1382e-11
4.09273e-11
4.09841e-11
4.01315e-11
3.92788e-11
3.89377e-11
3.9222e-11
3.89946e-11
3.86535e-11
3.90514e-11
3.89377e-11
3.88241e-11
4.06999e-11
4.10978e-11
4.04157e-11
3.97904e-11
4.08136e-11
4.0302e-11
4.09841e-11
4.08704e-11
4.05294e-11
3.99609e-11
4.1382e-11
4.25757e-11
4.2462e-11
4.36557e-11
4.41673e-11
4.45084e-11
4.50768e-11
4.49631e-11
4.55884e-11
4.60432e-11
4.75779e-11
4.89422e-11
4.91127e-11
4.96811e-11
4.95675e-11
5.03633e-11
4.99654e-11
5.05338e-11
5.1898e-11
5.13296e-11
5.09885e-11
5.16138e-11
5.12728e-11
5.03633e-11
4.93401e-11
4.78622e-11
4.62705e-11
4.49063e-11
4.45084e-11
4.38263e-11
4.21778e-11
4.05294e-11
4.00746e-11
3.99041e-11
3.82556e-11
3.79146e-11
3.82556e-11
3.75735e-11
3.75735e-11
3.60387e-11
3.63229e-11
3.68914e-11
3.76303e-11
3.78577e-11
3.83693e-11
3.85967e-11
3.92788e-11
4.05294e-11
4.10978e-11
4.2121e-11
4.17799e-11
4.25757e-11
4.22347e-11
4.27463e-11
4.28031e-11
4.28599e-11
4.25189e-11
4.4281e-11
4.57021e-11
4.59863e-11
4.58158e-11
4.61569e-11
4.70095e-11
4.76348e-11
4.84874e-11
4.88853e-11
4.94538e-11
4.94538e-11
4.99654e-11
4.99654e-11
4.92264e-11
4.93401e-11
4.8658e-11
4.83169e-11
4.83169e-11
4.80327e-11
4.83169e-11
4.84306e-11
4.80327e-11
4.82032e-11
4.74074e-11
4.73506e-11
4.67821e-11
4.61569e-11
4.59295e-11
4.46221e-11
4.41105e-11
4.33147e-11
4.28031e-11
4.25757e-11
4.17799e-11
4.08136e-11
3.96199e-11
3.9563e-11
3.85967e-11
3.79146e-11
3.81988e-11
3.84262e-11
3.8483e-11
3.83125e-11
3.75167e-11
3.66072e-11
3.59819e-11
3.55271e-11
3.51292e-11
3.43334e-11
3.30829e-11
3.37081e-11
3.29123e-11
3.32534e-11
3.30829e-11
3.37081e-11
3.30829e-11
3.27418e-11
3.21734e-11
3.16049e-11
3.14913e-11
3.16049e-11
3.05249e-11
2.96723e-11
2.89901e-11
2.85354e-11
2.80806e-11
2.75122e-11
2.75122e-11
2.78533e-11
2.74554e-11
2.79101e-11
2.91607e-11
3.06954e-11
3.09228e-11
3.18323e-11
3.25144e-11
3.40492e-11
3.56408e-11
3.62661e-11
3.7744e-11
3.84262e-11
3.87104e-11
3.81419e-11
3.79146e-11
3.70619e-11
3.76872e-11
3.75167e-11
3.70619e-11
3.7403e-11
3.5584e-11
3.52998e-11
3.47882e-11
3.43903e-11
3.34808e-11
3.33102e-11
3.33671e-11
3.35376e-11
3.31966e-11
3.36513e-11
3.41629e-11
3.46176e-11
3.54134e-11
3.52998e-11
3.64366e-11
3.75735e-11
3.81419e-11
3.90514e-11
3.8483e-11
3.80282e-11
3.89946e-11
3.94493e-11
3.90514e-11
3.81419e-11
3.87104e-11
3.87672e-11
3.89377e-11
3.89377e-11
3.95062e-11
3.96767e-11
3.87672e-11
3.81419e-11
3.79146e-11
3.76872e-11
3.73461e-11
3.65503e-11
3.50155e-11
3.47882e-11
3.26281e-11
3.24576e-11
3.20597e-11
3.14344e-11
3.05249e-11
2.98428e-11
3.04112e-11
3.09797e-11
3.12639e-11
3.26281e-11
3.22302e-11
3.37081e-11
3.54703e-11
3.59819e-11
3.64366e-11
3.57545e-11
3.63798e-11
3.66072e-11
3.66072e-11
3.76872e-11
3.79146e-11
3.7744e-11
3.7744e-11
3.81988e-11
3.80282e-11
3.71188e-11
3.68345e-11
3.64935e-11
3.60956e-11
3.54703e-11
3.47882e-11
3.37081e-11
3.38787e-11
3.34808e-11
3.29692e-11
3.13207e-11
3.02975e-11
2.98428e-11
2.85354e-11
2.7228e-11
2.6489e-11
2.63185e-11
2.56364e-11
2.62048e-11
2.64322e-11
2.65459e-11
2.60343e-11
2.58069e-11
2.50111e-11
2.55795e-11
2.56932e-11
2.5409e-11
2.59206e-11
2.51816e-11
2.56932e-11
2.6489e-11
2.66027e-11
2.58069e-11
2.62048e-11
2.67164e-11
2.70006e-11
2.77396e-11
2.92744e-11
3.07523e-11
3.12639e-11
3.0866e-11
3.10934e-11
3.14344e-11
3.20028e-11
3.28555e-11
3.35945e-11
3.38218e-11
3.35376e-11
3.30829e-11
3.33102e-11
3.31966e-11
3.36513e-11
3.36513e-11
3.39924e-11
3.3765e-11
3.25713e-11
3.24576e-11
3.20597e-11
3.12639e-11
3.07523e-11
3.00702e-11
2.92175e-11
2.76827e-11
2.74554e-11
2.63185e-11
2.58069e-11
2.52953e-11
2.48974e-11
2.4329e-11
2.48406e-11
2.50111e-11
2.56364e-11
2.55227e-11
2.64322e-11
2.7228e-11
2.80806e-11
2.92175e-11
2.94449e-11
3.02407e-11
2.98428e-11
3.10365e-11
3.16618e-11
3.2685e-11
3.42197e-11
3.50155e-11
3.51861e-11
3.64366e-11
3.61524e-11
3.62661e-11
3.67208e-11
3.62661e-11
3.59819e-11
3.51861e-11
3.45608e-11
3.42766e-11
3.43903e-11
3.41629e-11
3.39924e-11
3.39355e-11
3.47882e-11
3.3765e-11
3.42197e-11
3.38787e-11
3.29692e-11
3.25713e-11
3.23439e-11
3.21165e-11
3.11502e-11
3.1207e-11
3.06954e-11
3.02975e-11
3.01839e-11
3.08091e-11
3.02407e-11
3.06386e-11
3.04112e-11
2.98428e-11
3.02975e-11
3.02407e-11
2.86491e-11
2.8308e-11
2.75122e-11
2.74554e-11
2.69438e-11
2.66027e-11
2.71143e-11
2.70006e-11
2.66596e-11
2.69438e-11
2.76827e-11
2.79101e-11
2.85354e-11
2.85354e-11
2.89901e-11
2.89333e-11
2.88765e-11
2.9047e-11
2.99565e-11
3.04681e-11
3.20028e-11
3.13776e-11
3.21165e-11
3.3026e-11
3.37081e-11
3.39355e-11
3.44471e-11
3.56977e-11
3.60387e-11
3.68914e-11
3.83125e-11
3.9563e-11
3.92788e-11
4.04157e-11
4.11546e-11
4.02451e-11
4.01315e-11
4.22347e-11
4.32578e-11
4.30305e-11
4.25189e-11
4.17231e-11
4.09841e-11
4.08704e-11
4.02451e-11
4.09273e-11
4.00178e-11
3.89946e-11
3.79714e-11
3.7403e-11
3.68345e-11
3.58682e-11
3.50724e-11
3.4504e-11
3.35945e-11
3.25144e-11
3.13207e-11
3.18323e-11
3.00702e-11
2.99565e-11
3.01839e-11
3.00133e-11
2.95586e-11
2.89901e-11
2.9388e-11
2.9047e-11
2.86491e-11
2.73985e-11
2.76259e-11
2.71143e-11
2.68869e-11
2.60911e-11
2.59206e-11
2.5409e-11
2.52953e-11
2.46132e-11
2.37037e-11
2.22826e-11
2.13163e-11
2.00089e-11
1.9952e-11
1.90994e-11
1.8872e-11
1.88152e-11
1.80194e-11
1.89289e-11
1.8531e-11
1.94973e-11
2.13163e-11
2.20552e-11
2.22258e-11
2.3249e-11
2.41016e-11
2.37605e-11
2.34195e-11
2.3249e-11
2.33626e-11
2.33058e-11
2.29079e-11
2.37605e-11
2.40448e-11
2.37037e-11
2.39879e-11
2.33626e-11
2.34763e-11
2.44995e-11
2.50679e-11
2.44427e-11
2.48406e-11
2.39311e-11
2.467e-11
2.53522e-11
2.64322e-11
2.75691e-11
2.75122e-11
2.7967e-11
2.85354e-11
3.02407e-11
3.06386e-11
3.03544e-11
3.00133e-11
2.99565e-11
3.04681e-11
3.10934e-11
3.10365e-11
3.05249e-11
3.11502e-11
3.09228e-11
3.05249e-11
2.98996e-11
2.94449e-11
2.84786e-11
2.75122e-11
2.62048e-11
2.58638e-11
2.52385e-11
2.46132e-11
2.41585e-11
2.33626e-11
2.17142e-11
2.24532e-11
2.24532e-11
2.18847e-11
2.20552e-11
2.29079e-11
2.251e-11
2.21121e-11
2.15437e-11
2.06342e-11
2.05205e-11
2.06342e-11
2.04636e-11
2.04636e-11
2.02931e-11
1.98384e-11
1.95541e-11
1.90425e-11
1.90425e-11
1.83036e-11
1.76783e-11
1.68257e-11
1.66551e-11
1.51203e-11
1.46088e-11
1.45519e-11
1.42109e-11
1.47224e-11
1.55183e-11
1.59162e-11
1.73372e-11
1.78488e-11
1.87583e-11
2.04068e-11
2.13731e-11
2.12594e-11
2.31353e-11
2.38174e-11
2.44427e-11
2.59774e-11
2.55227e-11
2.57501e-11
2.63753e-11
2.66596e-11
2.71712e-11
2.82512e-11
2.85354e-11
2.86491e-11
2.84786e-11
2.77396e-11
2.72848e-11
2.68301e-11
2.71143e-11
2.67164e-11
2.57501e-11
2.46132e-11
2.43858e-11
2.29647e-11
2.29079e-11
2.14868e-11
2.13163e-11
2.05773e-11
2.00657e-11
1.96678e-11
1.90425e-11
1.89857e-11
1.84173e-11
1.73372e-11
1.72804e-11
1.64846e-11
1.62004e-11
1.60867e-11
1.60867e-11
1.62572e-11
1.63141e-11
1.6712e-11
1.68257e-11
1.72804e-11
1.64846e-11
1.5973e-11
1.55183e-11
1.58593e-11
1.57456e-11
1.53477e-11
1.49498e-11
1.43814e-11
1.43814e-11
1.46656e-11
1.51772e-11
1.51772e-11
1.5234e-11
1.61435e-11
1.73941e-11
1.7792e-11
1.91562e-11
1.98952e-11
2.0691e-11
2.15437e-11
2.17142e-11
2.22826e-11
2.22258e-11
2.21121e-11
2.18847e-11
2.23395e-11
2.24532e-11
2.19984e-11
2.19416e-11
2.09184e-11
1.96678e-11
1.87583e-11
1.89289e-11
1.84741e-11
1.87583e-11
1.84173e-11
1.76215e-11
1.72804e-11
1.71099e-11
1.62004e-11
1.54046e-11
1.52909e-11
1.46088e-11
1.33014e-11
1.23919e-11
1.08002e-11
1.0516e-11
9.72022e-12
9.9476e-12
8.58336e-12
9.26548e-12
1.02887e-11
1.08002e-11
1.1994e-11
1.31308e-11
1.4154e-11
1.56888e-11
1.63709e-11
1.83604e-11
1.98952e-11
2.18847e-11
2.33626e-11
2.55227e-11
2.70006e-11
2.78533e-11
2.8308e-11
2.91607e-11
3.05818e-11
3.1207e-11
3.10934e-11
3.14913e-11
3.03544e-11
2.9786e-11
2.93312e-11
2.93312e-11
3.01839e-11
3.02407e-11
3.03544e-11
3.12639e-11
3.03544e-11
2.9388e-11
2.95017e-11
2.91607e-11
2.84786e-11
2.7228e-11
2.67164e-11
2.58069e-11
2.40448e-11
2.31921e-11
2.33058e-11
2.24532e-11
2.08615e-11
2.00089e-11
1.85878e-11
1.82467e-11
1.69393e-11
1.63709e-11
1.60298e-11
1.55183e-11
1.46088e-11
1.40403e-11
1.27898e-11
1.14255e-11
1.10845e-11
1.01181e-11
9.32232e-12
8.81073e-12
8.41283e-12
7.04858e-12
7.44649e-12
6.9349e-12
7.21911e-12
7.90124e-12
7.44649e-12
7.78755e-12
7.78755e-12
8.69704e-12
9.09495e-12
9.26548e-12
9.83391e-12
1.06297e-11
1.17666e-11
1.34719e-11
1.39266e-11
1.60867e-11
1.6712e-11
1.72804e-11
1.80762e-11
1.87015e-11
1.85878e-11
1.89857e-11
1.92699e-11
1.93268e-11
1.93268e-11
1.96678e-11
2.01794e-11
1.95541e-11
1.75078e-11
1.72236e-11
1.64277e-11
1.69393e-11
1.64846e-11
1.62004e-11
1.56888e-11
1.55751e-11
1.49498e-11
1.4154e-11
1.40972e-11
1.42677e-11
1.33014e-11
1.35856e-11
1.38698e-11
1.43245e-11
1.45519e-11
1.48361e-11
1.49498e-11
1.51203e-11
1.43814e-11
1.50067e-11
1.56319e-11
1.57456e-11
1.55751e-11
1.59162e-11
1.51772e-11
1.54046e-11
1.53477e-11
1.39266e-11
1.26192e-11
1.22782e-11
1.13118e-11
9.83391e-12
8.92442e-12
8.52651e-12
7.38964e-12
5.74119e-12
4.43379e-12
4.43379e-12
3.58114e-12
3.58114e-12
3.58114e-12
3.46745e-12
3.58114e-12
4.49063e-12
4.20641e-12
4.94538e-12
5.05906e-12
5.11591e-12
4.83169e-12
5.91172e-12
6.9349e-12
7.3328e-12
8.18545e-12
1.02318e-11
1.18234e-11
1.37561e-11
1.54614e-11
1.65414e-11
1.68825e-11
1.73372e-11
1.87015e-11
1.95541e-11
2.01226e-11
2.15437e-11
2.10321e-11
2.13731e-11
2.19984e-11
2.27942e-11
2.27942e-11
2.34763e-11
2.35332e-11
2.30784e-11
2.26805e-11
2.27942e-11
2.21121e-11
2.23395e-11
2.1771e-11
2.11458e-11
2.0691e-11
1.98952e-11
1.89289e-11
1.74509e-11
1.67688e-11
1.59162e-11
1.5234e-11
1.50067e-11
1.44951e-11
1.38698e-11
1.25056e-11
1.27329e-11
1.27329e-11
1.3074e-11
1.39266e-11
1.4893e-11
1.46656e-11
1.54614e-11
1.55751e-11
1.55751e-11
1.68825e-11
1.71667e-11
1.7053e-11
1.79625e-11
1.7792e-11
1.80762e-11
1.8531e-11
1.87015e-11
1.86446e-11
1.81331e-11
1.7792e-11
1.72236e-11
1.68825e-11
1.65983e-11
1.7053e-11
1.71099e-11
1.63709e-11
1.51772e-11
1.47793e-11
1.36993e-11
1.36993e-11
1.28466e-11
1.21076e-11
1.11413e-11
1.01181e-11
1.00044e-11
9.60654e-12
8.12861e-12
7.67386e-12
6.25278e-12
5.05906e-12
3.80851e-12
3.80851e-12
3.24007e-12
3.9222e-12
4.49063e-12
5.28644e-12
6.48015e-12
7.50333e-12
8.46967e-12
8.98126e-12
9.83391e-12
1.00613e-11
9.89075e-12
1.0516e-11
1.09139e-11
1.15961e-11
1.1255e-11
1.21645e-11
1.26192e-11
1.27329e-11
1.3415e-11
1.28466e-11
1.17666e-11
1.10276e-11
9.83391e-12
9.37916e-12
8.81073e-12
8.69704e-12
7.61702e-12
8.01492e-12
8.58336e-12
8.81073e-12
9.20863e-12
9.83391e-12
9.0381e-12
9.43601e-12
8.86757e-12
8.35598e-12
8.29914e-12
8.2423e-12
7.67386e-12
6.87805e-12
6.36646e-12
6.99174e-12
7.56017e-12
7.90124e-12
8.81073e-12
8.75389e-12
9.26548e-12
1.01181e-11
9.9476e-12
9.89075e-12
1.06297e-11
1.06866e-11
1.04023e-11
1.1255e-11
1.11982e-11
1.15961e-11
1.14824e-11
1.22213e-11
1.1994e-11
1.21645e-11
1.16529e-11
1.14824e-11
1.21076e-11
1.15392e-11
1.17666e-11
1.19371e-11
1.15392e-11
1.08571e-11
1.04592e-11
9.72022e-12
9.49285e-12
7.84439e-12
7.27596e-12
5.68434e-12
4.14957e-12
3.46745e-12
3.75167e-12
3.29692e-12
3.35376e-12
3.35376e-12
2.78533e-12
2.55795e-12
3.69482e-12
4.20641e-12
4.43379e-12
5.00222e-12
5.68434e-12
5.22959e-12
5.45697e-12
4.66116e-12
5.11591e-12
5.57066e-12
5.45697e-12
6.42331e-12
7.95808e-12
8.35598e-12
9.09495e-12
8.58336e-12
9.37916e-12
9.20863e-12
9.32232e-12
9.72022e-12
1.00613e-11
1.00044e-11
9.43601e-12
9.37916e-12
9.20863e-12
1.0175e-11
1.00044e-11
9.66338e-12
9.72022e-12
1.03455e-11
1.06866e-11
1.05729e-11
1.05729e-11
1.02318e-11
9.37916e-12
9.37916e-12
8.46967e-12
7.7307e-12
6.82121e-12
6.65068e-12
6.9349e-12
6.42331e-12
5.74119e-12
5.05906e-12
4.60432e-12
4.66116e-12
3.69482e-12
3.24007e-12
3.46745e-12
3.24007e-12
3.24007e-12
4.09273e-12
4.20641e-12
3.9222e-12
5.74119e-12
6.70752e-12
7.21911e-12
8.58336e-12
9.77707e-12
9.89075e-12
1.06866e-11
1.18803e-11
1.28466e-11
1.4154e-11
1.62004e-11
1.60298e-11
1.58593e-11
1.56888e-11
1.57456e-11
1.59162e-11
1.66551e-11
1.66551e-11
1.60867e-11
1.56888e-11
1.55751e-11
1.62004e-11
1.62572e-11
1.60867e-11
1.56319e-11
1.60298e-11
1.50635e-11
1.5234e-11
1.5234e-11
1.39266e-11
1.25624e-11
1.16529e-11
1.15961e-11
1.02318e-11
8.81073e-12
7.90124e-12
7.78755e-12
6.48015e-12
6.87805e-12
6.65068e-12
6.59384e-12
6.76437e-12
6.59384e-12
6.87805e-12
6.9349e-12