/*--------------------------------*- C++ -*----------------------------------*\
| =========                 |                                                 |
| \\      /  F ield         | OpenFOAM: The Open Source CFD Toolbox           |
|  \\    /   O peration     | Version:  4.0                                   |
|   \\  /    A nd           | Web:      www.OpenFOAM.org                      |
|    \\/     M anipulation  |                                                 |
\*---------------------------------------------------------------------------*/
FoamFile
{
    version     2.0;
    format      ascii;
    class       volVectorField;
    location    "0.004";
    object      U;
}
// * * * * * * * * * * * * * * * * * * * * * * * * * * * * * * * * * * * * * //

dimensions      [0 1 -1 0 0 0 0];

internalField   nonuniform List<vector> 
10000
(
(-4.95968e-13 0 0)
(-5.25143e-13 0 0)
(-5.54317e-13 0 0)
(-7.73127e-13 0 0)
(-7.29365e-13 0 0)
(-9.91936e-13 0 0)
(-7.5854e-13 0 0)
(-9.91936e-13 0 0)
(-7.43952e-13 0 0)
(-7.73127e-13 0 0)
(-9.33587e-13 0 0)
(-9.04413e-13 0 0)
(-9.04413e-13 0 0)
(-7.87714e-13 0 0)
(-7.29365e-13 0 0)
(-6.12667e-13 0 0)
(-6.41841e-13 0 0)
(-4.66794e-13 0 0)
(-5.83492e-13 0 0)
(-3.50095e-13 0 0)
(-4.08444e-13 0 0)
(1.45873e-14 0 0)
(-1.6046e-13 0 0)
(2.04222e-13 0 0)
(1.75048e-13 0 0)
(4.95968e-13 0 0)
(2.62571e-13 0 0)
(6.71016e-13 0 0)
(3.64683e-13 0 0)
(5.54317e-13 0 0)
(4.95968e-13 0 0)
(6.71016e-13 0 0)
(4.81381e-13 0 0)
(8.89825e-13 0 0)
(5.83492e-13 0 0)
(9.19e-13 0 0)
(6.12667e-13 0 0)
(9.04413e-13 0 0)
(5.25143e-13 0 0)
(8.75238e-13 0 0)
(7.0019e-13 0 0)
(8.02302e-13 0 0)
(6.56429e-13 0 0)
(7.87714e-13 0 0)
(7.5854e-13 0 0)
(6.41841e-13 0 0)
(6.27254e-13 0 0)
(7.73127e-13 0 0)
(6.85603e-13 0 0)
(6.27254e-13 0 0)
(8.75238e-13 0 0)
(9.33587e-13 0 0)
(9.04413e-13 0 0)
(1.1524e-12 0 0)
(1.18157e-12 0 0)
(1.38579e-12 0 0)
(1.23992e-12 0 0)
(1.29827e-12 0 0)
(1.28368e-12 0 0)
(1.10863e-12 0 0)
(8.75238e-13 0 0)
(5.98079e-13 0 0)
(4.52206e-13 0 0)
(3.50095e-13 0 0)
(3.50095e-13 0 0)
(1.16698e-13 0 0)
(1.02111e-13 0 0)
(-3.50095e-13 0 0)
(-4.08444e-13 0 0)
(-6.71016e-13 0 0)
(-5.54317e-13 0 0)
(-9.48175e-13 0 0)
(-8.46063e-13 0 0)
(-1.13781e-12 0 0)
(-1.00652e-12 0 0)
(-1.07946e-12 0 0)
(-8.02302e-13 0 0)
(-8.60651e-13 0 0)
(-7.5854e-13 0 0)
(-8.31476e-13 0 0)
(-8.16889e-13 0 0)
(-8.75238e-13 0 0)
(-6.71016e-13 0 0)
(-1.12322e-12 0 0)
(-6.56429e-13 0 0)
(-9.77349e-13 0 0)
(-4.52206e-13 0 0)
(-6.27254e-13 0 0)
(-5.83492e-14 0 0)
(-3.35508e-13 0 0)
(-1.45873e-13 0 0)
(-1.31286e-13 0 0)
(-1.89635e-13 0 0)
(-4.37619e-14 0 0)
(-7.29365e-14 0 0)
(-5.83492e-14 0 0)
(-1.45873e-14 0 0)
(8.75238e-14 0 0)
(3.7927e-13 0 0)
(5.68905e-13 0 0)
(3.93857e-13 0 0)
(7.73127e-13 0 0)
(8.75238e-13 0 0)
(1.09405e-12 0 0)
(1.47332e-12 0 0)
(1.41497e-12 0 0)
(1.7213e-12 0 0)
(1.67754e-12 0 0)
(2.05681e-12 0 0)
(2.10057e-12 0 0)
(2.37773e-12 0 0)
(2.46525e-12 0 0)
(2.81535e-12 0 0)
(2.43608e-12 0 0)
(3.31132e-12 0 0)
(2.82994e-12 0 0)
(3.51554e-12 0 0)
(3.53013e-12 0 0)
(3.28214e-12 0 0)
(3.42802e-12 0 0)
(3.53013e-12 0 0)
(3.70517e-12 0 0)
(4.06986e-12 0 0)
(4.17197e-12 0 0)
(3.89481e-12 0 0)
(3.76352e-12 0 0)
(4.02609e-12 0 0)
(3.54471e-12 0 0)
(3.69059e-12 0 0)
(3.58848e-12 0 0)
(3.41343e-12 0 0)
(3.26756e-12 0 0)
(3.96775e-12 0 0)
(3.34049e-12 0 0)
(3.38425e-12 0 0)
(3.4426e-12 0 0)
(3.16544e-12 0 0)
(2.85911e-12 0 0)
(3.36967e-12 0 0)
(2.77159e-12 0 0)
(3.04875e-12 0 0)
(2.71324e-12 0 0)
(2.56736e-12 0 0)
(2.37773e-12 0 0)
(2.12975e-12 0 0)
(1.89635e-12 0 0)
(1.88176e-12 0 0)
(1.41497e-12 0 0)
(1.76506e-12 0 0)
(1.18157e-12 0 0)
(1.73589e-12 0 0)
(1.05029e-12 0 0)
(1.45873e-12 0 0)
(9.04413e-13 0 0)
(1.22533e-12 0 0)
(8.02302e-13 0 0)
(1.25451e-12 0 0)
(9.91936e-13 0 0)
(8.60651e-13 0 0)
(8.60651e-13 0 0)
(7.43952e-13 0 0)
(7.5854e-13 0 0)
(7.29365e-13 0 0)
(7.5854e-13 0 0)
(3.7927e-13 0 0)
(5.68905e-13 0 0)
(7.5854e-13 0 0)
(3.35508e-13 0 0)
(5.10556e-13 0 0)
(7.14778e-13 0 0)
(4.95968e-13 0 0)
(8.02302e-13 0 0)
(7.5854e-13 0 0)
(7.43952e-13 0 0)
(8.60651e-13 0 0)
(1.05029e-12 0 0)
(1.38579e-12 0 0)
(1.28368e-12 0 0)
(1.22533e-12 0 0)
(1.61919e-12 0 0)
(1.34203e-12 0 0)
(1.75048e-12 0 0)
(1.64836e-12 0 0)
(1.77965e-12 0 0)
(1.77965e-12 0 0)
(2.27562e-12 0 0)
(2.45067e-12 0 0)
(2.78617e-12 0 0)
(2.74241e-12 0 0)
(3.15086e-12 0 0)
(3.35508e-12 0 0)
(3.35508e-12 0 0)
(3.35508e-12 0 0)
(3.80729e-12 0 0)
(3.57389e-12 0 0)
(3.64683e-12 0 0)
(3.89481e-12 0 0)
(3.64683e-12 0 0)
(3.45719e-12 0 0)
(3.45719e-12 0 0)
(3.38425e-12 0 0)
(3.92398e-12 0 0)
(3.80729e-12 0 0)
(3.676e-12 0 0)
(3.63224e-12 0 0)
(4.02609e-12 0 0)
(3.63224e-12 0 0)
(3.83646e-12 0 0)
(3.76352e-12 0 0)
(3.69059e-12 0 0)
(4.02609e-12 0 0)
(3.89481e-12 0 0)
(4.53665e-12 0 0)
(4.4783e-12 0 0)
(4.595e-12 0 0)
(4.4783e-12 0 0)
(4.75546e-12 0 0)
(4.2449e-12 0 0)
(4.20114e-12 0 0)
(4.09903e-12 0 0)
(4.39078e-12 0 0)
(4.11362e-12 0 0)
(4.55124e-12 0 0)
(4.31784e-12 0 0)
(4.595e-12 0 0)
(3.92398e-12 0 0)
(4.40536e-12 0 0)
(3.76352e-12 0 0)
(4.04068e-12 0 0)
(3.69059e-12 0 0)
(3.86563e-12 0 0)
(3.80729e-12 0 0)
(3.80729e-12 0 0)
(3.9094e-12 0 0)
(3.36967e-12 0 0)
(3.64683e-12 0 0)
(3.34049e-12 0 0)
(3.31132e-12 0 0)
(3.23838e-12 0 0)
(3.03416e-12 0 0)
(3.23838e-12 0 0)
(3.29673e-12 0 0)
(3.48636e-12 0 0)
(3.63224e-12 0 0)
(3.61765e-12 0 0)
(3.58848e-12 0 0)
(3.51554e-12 0 0)
(3.38425e-12 0 0)
(3.13627e-12 0 0)
(3.38425e-12 0 0)
(3.23838e-12 0 0)
(3.39884e-12 0 0)
(3.50095e-12 0 0)
(3.51554e-12 0 0)
(2.90287e-12 0 0)
(3.74894e-12 0 0)
(3.22379e-12 0 0)
(3.06333e-12 0 0)
(2.88829e-12 0 0)
(3.35508e-12 0 0)
(2.59654e-12 0 0)
(3.39884e-12 0 0)
(2.94663e-12 0 0)
(3.23838e-12 0 0)
(3.23838e-12 0 0)
(3.53013e-12 0 0)
(3.12168e-12 0 0)
(4.12821e-12 0 0)
(4.02609e-12 0 0)
(4.52206e-12 0 0)
(4.17197e-12 0 0)
(4.46371e-12 0 0)
(4.40536e-12 0 0)
(4.74087e-12 0 0)
(4.53665e-12 0 0)
(5.17849e-12 0 0)
(4.595e-12 0 0)
(5.09097e-12 0 0)
(4.69711e-12 0 0)
(4.94509e-12 0 0)
(4.55124e-12 0 0)
(4.98886e-12 0 0)
(4.37619e-12 0 0)
(4.55124e-12 0 0)
(4.31784e-12 0 0)
(4.7117e-12 0 0)
(4.11362e-12 0 0)
(4.69711e-12 0 0)
(4.15738e-12 0 0)
(4.12821e-12 0 0)
(4.23032e-12 0 0)
(4.50748e-12 0 0)
(4.78463e-12 0 0)
(4.74087e-12 0 0)
(5.06179e-12 0 0)
(4.7117e-12 0 0)
(4.97427e-12 0 0)
(5.23684e-12 0 0)
(5.33895e-12 0 0)
(5.3973e-12 0 0)
(5.92244e-12 0 0)
(5.44106e-12 0 0)
(6.14125e-12 0 0)
(5.84951e-12 0 0)
(6.41841e-12 0 0)
(5.90786e-12 0 0)
(6.433e-12 0 0)
(6.15584e-12 0 0)
(6.40382e-12 0 0)
(6.18502e-12 0 0)
(6.12667e-12 0 0)
(5.89327e-12 0 0)
(5.80575e-12 0 0)
(5.80575e-12 0 0)
(5.30978e-12 0 0)
(5.30978e-12 0 0)
(5.1639e-12 0 0)
(4.98886e-12 0 0)
(5.44106e-12 0 0)
(5.09097e-12 0 0)
(5.30978e-12 0 0)
(5.19308e-12 0 0)
(5.514e-12 0 0)
(5.20767e-12 0 0)
(5.71822e-12 0 0)
(5.2806e-12 0 0)
(5.83492e-12 0 0)
(5.45565e-12 0 0)
(5.6307e-12 0 0)
(5.90786e-12 0 0)
(6.03914e-12 0 0)
(5.42648e-12 0 0)
(5.79116e-12 0 0)
(5.14932e-12 0 0)
(5.30978e-12 0 0)
(5.25143e-12 0 0)
(5.30978e-12 0 0)
(5.03262e-12 0 0)
(5.20767e-12 0 0)
(5.2806e-12 0 0)
(5.29519e-12 0 0)
(5.42648e-12 0 0)
(5.36813e-12 0 0)
(5.41189e-12 0 0)
(5.71822e-12 0 0)
(6.05373e-12 0 0)
(6.18502e-12 0 0)
(6.44759e-12 0 0)
(6.6664e-12 0 0)
(6.5497e-12 0 0)
(7.45411e-12 0 0)
(7.38117e-12 0 0)
(7.77503e-12 0 0)
(8.47522e-12 0 0)
(8.35852e-12 0 0)
(8.21265e-12 0 0)
(8.32935e-12 0 0)
(8.24182e-12 0 0)
(8.34394e-12 0 0)
(8.75238e-12 0 0)
(8.28559e-12 0 0)
(8.79614e-12 0 0)
(8.92743e-12 0 0)
(8.67944e-12 0 0)
(8.82532e-12 0 0)
(8.81073e-12 0 0)
(8.56275e-12 0 0)
(8.94202e-12 0 0)
(7.74586e-12 0 0)
(7.83338e-12 0 0)
(7.49787e-12 0 0)
(7.43952e-12 0 0)
(7.41035e-12 0 0)
(7.19154e-12 0 0)
(7.04567e-12 0 0)
(6.84144e-12 0 0)
(6.84144e-12 0 0)
(6.33089e-12 0 0)
(6.27254e-12 0 0)
(6.05373e-12 0 0)
(5.90786e-12 0 0)
(5.90786e-12 0 0)
(5.86409e-12 0 0)
(5.90786e-12 0 0)
(5.70363e-12 0 0)
(5.57235e-12 0 0)
(5.42648e-12 0 0)
(5.70363e-12 0 0)
(4.88675e-12 0 0)
(5.70363e-12 0 0)
(5.09097e-12 0 0)
(5.3973e-12 0 0)
(5.10556e-12 0 0)
(5.92244e-12 0 0)
(5.47024e-12 0 0)
(5.98079e-12 0 0)
(5.90786e-12 0 0)
(6.12667e-12 0 0)
(5.95162e-12 0 0)
(6.63722e-12 0 0)
(6.18502e-12 0 0)
(6.88521e-12 0 0)
(6.37465e-12 0 0)
(6.5497e-12 0 0)
(6.21419e-12 0 0)
(6.0829e-12 0 0)
(6.0829e-12 0 0)
(5.68905e-12 0 0)
(6.38924e-12 0 0)
(6.09749e-12 0 0)
(6.12667e-12 0 0)
(5.76198e-12 0 0)
(6.18502e-12 0 0)
(6.36006e-12 0 0)
(6.12667e-12 0 0)
(6.73933e-12 0 0)
(5.99538e-12 0 0)
(6.57887e-12 0 0)
(6.30171e-12 0 0)
(6.89979e-12 0 0)
(6.47676e-12 0 0)
(6.87062e-12 0 0)
(6.38924e-12 0 0)
(6.92897e-12 0 0)
(6.28713e-12 0 0)
(7.43952e-12 0 0)
(6.49135e-12 0 0)
(7.5854e-12 0 0)
(6.22878e-12 0 0)
(7.59998e-12 0 0)
(6.5497e-12 0 0)
(7.90632e-12 0 0)
(7.19154e-12 0 0)
(7.86255e-12 0 0)
(7.43952e-12 0 0)
(7.93549e-12 0 0)
(7.67292e-12 0 0)
(8.1543e-12 0 0)
(7.76044e-12 0 0)
(8.1543e-12 0 0)
(8.05219e-12 0 0)
(8.19806e-12 0 0)
(7.93549e-12 0 0)
(8.1543e-12 0 0)
(8.21265e-12 0 0)
(8.24182e-12 0 0)
(8.09595e-12 0 0)
(7.96467e-12 0 0)
(8.08136e-12 0 0)
(7.9209e-12 0 0)
(8.12513e-12 0 0)
(8.11054e-12 0 0)
(8.43146e-12 0 0)
(8.25641e-12 0 0)
(8.1543e-12 0 0)
(7.96467e-12 0 0)
(7.68751e-12 0 0)
(8.11054e-12 0 0)
(7.54163e-12 0 0)
(8.41687e-12 0 0)
(8.18348e-12 0 0)
(8.40228e-12 0 0)
(8.62109e-12 0 0)
(8.81073e-12 0 0)
(8.94202e-12 0 0)
(9.37963e-12 0 0)
(9.49633e-12 0 0)
(9.84643e-12 0 0)
(9.54009e-12 0 0)
(1.01965e-11 0 0)
(9.77349e-12 0 0)
(1.00361e-11 0 0)
(9.89019e-12 0 0)
(9.93395e-12 0 0)
(9.32128e-12 0 0)
(9.89019e-12 0 0)
(9.19e-12 0 0)
(9.40881e-12 0 0)
(9.61303e-12 0 0)
(9.29211e-12 0 0)
(9.00036e-12 0 0)
(9.16082e-12 0 0)
(8.8399e-12 0 0)
(9.16082e-12 0 0)
(8.97119e-12 0 0)
(8.76697e-12 0 0)
(8.44605e-12 0 0)
(8.41687e-12 0 0)
(8.3877e-12 0 0)
(8.44605e-12 0 0)
(8.34394e-12 0 0)
(7.96467e-12 0 0)
(8.37311e-12 0 0)
(7.89173e-12 0 0)
(8.35852e-12 0 0)
(7.87714e-12 0 0)
(8.72321e-12 0 0)
(7.99384e-12 0 0)
(9.39422e-12 0 0)
(8.19806e-12 0 0)
(9.55468e-12 0 0)
(8.9566e-12 0 0)
(9.83184e-12 0 0)
(8.94202e-12 0 0)
(9.40881e-12 0 0)
(8.81073e-12 0 0)
(9.05871e-12 0 0)
(8.75238e-12 0 0)
(8.8399e-12 0 0)
(8.43146e-12 0 0)
(8.97119e-12 0 0)
(8.69403e-12 0 0)
(9.13165e-12 0 0)
(8.44605e-12 0 0)
(9.43798e-12 0 0)
(8.91284e-12 0 0)
(9.43798e-12 0 0)
(8.92743e-12 0 0)
(9.8756e-12 0 0)
(9.21917e-12 0 0)
(9.77349e-12 0 0)
(9.52551e-12 0 0)
(9.8756e-12 0 0)
(9.65679e-12 0 0)
(1.00506e-11 0 0)
(9.8756e-12 0 0)
(1.00069e-11 0 0)
(1.00361e-11 0 0)
(1.02257e-11 0 0)
(1.0357e-11 0 0)
(1.03862e-11 0 0)
(1.07363e-11 0 0)
(1.08384e-11 0 0)
(1.13781e-11 0 0)
(1.1203e-11 0 0)
(1.14364e-11 0 0)
(1.15531e-11 0 0)
(1.11885e-11 0 0)
(1.17865e-11 0 0)
(1.14656e-11 0 0)
(1.18595e-11 0 0)
(1.10426e-11 0 0)
(1.2122e-11 0 0)
(1.09696e-11 0 0)
(1.2122e-11 0 0)
(1.10718e-11 0 0)
(1.1772e-11 0 0)
(1.11301e-11 0 0)
(1.23117e-11 0 0)
(1.08384e-11 0 0)
(1.23117e-11 0 0)
(1.09259e-11 0 0)
(1.16261e-11 0 0)
(1.13927e-11 0 0)
(1.18741e-11 0 0)
(1.16261e-11 0 0)
(1.17136e-11 0 0)
(1.09551e-11 0 0)
(1.14073e-11 0 0)
(1.09842e-11 0 0)
(1.05612e-11 0 0)
(1.02257e-11 0 0)
(1.03862e-11 0 0)
(1.02111e-11 0 0)
(1.04737e-11 0 0)
(9.94854e-12 0 0)
(1.0357e-11 0 0)
(9.62762e-12 0 0)
(1.03132e-11 0 0)
(9.43798e-12 0 0)
(1.06487e-11 0 0)
(9.68597e-12 0 0)
(1.07654e-11 0 0)
(1.05758e-11 0 0)
(1.11009e-11 0 0)
(1.08238e-11 0 0)
(1.12468e-11 0 0)
(1.10863e-11 0 0)
(1.13781e-11 0 0)
(1.15094e-11 0 0)
(1.16553e-11 0 0)
(1.16261e-11 0 0)
(1.21804e-11 0 0)
(1.11885e-11 0 0)
(1.22825e-11 0 0)
(1.15823e-11 0 0)
(1.20345e-11 0 0)
(1.19908e-11 0 0)
(1.25013e-11 0 0)
(1.17574e-11 0 0)
(1.24867e-11 0 0)
(1.20491e-11 0 0)
(1.20783e-11 0 0)
(1.26034e-11 0 0)
(1.22533e-11 0 0)
(1.24576e-11 0 0)
(1.24284e-11 0 0)
(1.28222e-11 0 0)
(1.26618e-11 0 0)
(1.25597e-11 0 0)
(1.33182e-11 0 0)
(1.30848e-11 0 0)
(1.32015e-11 0 0)
(1.3114e-11 0 0)
(1.32453e-11 0 0)
(1.25888e-11 0 0)
(1.35662e-11 0 0)
(1.24721e-11 0 0)
(1.32599e-11 0 0)
(1.26764e-11 0 0)
(1.29973e-11 0 0)
(1.2195e-11 0 0)
(1.27785e-11 0 0)
(1.20345e-11 0 0)
(1.27201e-11 0 0)
(1.19762e-11 0 0)
(1.22533e-11 0 0)
(1.22387e-11 0 0)
(1.1524e-11 0 0)
(1.17282e-11 0 0)
(1.08675e-11 0 0)
(1.15094e-11 0 0)
(1.09842e-11 0 0)
(1.13343e-11 0 0)
(1.08675e-11 0 0)
(1.03862e-11 0 0)
(1.09551e-11 0 0)
(1.04883e-11 0 0)
(1.09988e-11 0 0)
(1.01819e-11 0 0)
(1.11009e-11 0 0)
(1.08384e-11 0 0)
(1.11739e-11 0 0)
(1.07946e-11 0 0)
(1.1276e-11 0 0)
(1.1203e-11 0 0)
(1.11009e-11 0 0)
(1.11885e-11 0 0)
(1.11155e-11 0 0)
(1.13489e-11 0 0)
(1.13343e-11 0 0)
(1.17574e-11 0 0)
(1.06925e-11 0 0)
(1.1699e-11 0 0)
(1.07654e-11 0 0)
(1.12906e-11 0 0)
(1.11739e-11 0 0)
(1.19324e-11 0 0)
(1.18741e-11 0 0)
(1.2691e-11 0 0)
(1.20199e-11 0 0)
(1.28222e-11 0 0)
(1.24284e-11 0 0)
(1.28222e-11 0 0)
(1.24721e-11 0 0)
(1.33766e-11 0 0)
(1.24284e-11 0 0)
(1.27055e-11 0 0)
(1.237e-11 0 0)
(1.23554e-11 0 0)
(1.23409e-11 0 0)
(1.22825e-11 0 0)
(1.21658e-11 0 0)
(1.21804e-11 0 0)
(1.2195e-11 0 0)
(1.27055e-11 0 0)
(1.17428e-11 0 0)
(1.24138e-11 0 0)
(1.11155e-11 0 0)
(1.17136e-11 0 0)
(1.09842e-11 0 0)
(1.11447e-11 0 0)
(1.07363e-11 0 0)
(1.10426e-11 0 0)
(1.06779e-11 0 0)
(1.12176e-11 0 0)
(1.0605e-11 0 0)
(1.11447e-11 0 0)
(1.05174e-11 0 0)
(1.14219e-11 0 0)
(1.0605e-11 0 0)
(1.19178e-11 0 0)
(1.08092e-11 0 0)
(1.17865e-11 0 0)
(1.10863e-11 0 0)
(1.1772e-11 0 0)
(1.14219e-11 0 0)
(1.20345e-11 0 0)
(1.18011e-11 0 0)
(1.19032e-11 0 0)
(1.20053e-11 0 0)
(1.20929e-11 0 0)
(1.15823e-11 0 0)
(1.21658e-11 0 0)
(1.11739e-11 0 0)
(1.1772e-11 0 0)
(1.1203e-11 0 0)
(1.14219e-11 0 0)
(1.15094e-11 0 0)
(1.18303e-11 0 0)
(1.16698e-11 0 0)
(1.25159e-11 0 0)
(1.23554e-11 0 0)
(1.26472e-11 0 0)
(1.25451e-11 0 0)
(1.29535e-11 0 0)
(1.22825e-11 0 0)
(1.2443e-11 0 0)
(1.18449e-11 0 0)
(1.22242e-11 0 0)
(1.22533e-11 0 0)
(1.21512e-11 0 0)
(1.237e-11 0 0)
(1.20053e-11 0 0)
(1.19762e-11 0 0)
(1.18741e-11 0 0)
(1.1947e-11 0 0)
(1.1947e-11 0 0)
(1.17282e-11 0 0)
(1.21804e-11 0 0)
(1.21658e-11 0 0)
(1.23263e-11 0 0)
(1.22096e-11 0 0)
(1.23554e-11 0 0)
(1.18011e-11 0 0)
(1.23263e-11 0 0)
(1.14219e-11 0 0)
(1.25013e-11 0 0)
(1.14802e-11 0 0)
(1.24284e-11 0 0)
(1.12906e-11 0 0)
(1.22679e-11 0 0)
(1.08967e-11 0 0)
(1.16407e-11 0 0)
(1.10572e-11 0 0)
(1.09551e-11 0 0)
(1.08967e-11 0 0)
(1.07946e-11 0 0)
(1.06925e-11 0 0)
(1.06341e-11 0 0)
(1.03132e-11 0 0)
(1.05758e-11 0 0)
(1.02111e-11 0 0)
(1.05466e-11 0 0)
(1.05174e-11 0 0)
(1.04153e-11 0 0)
(1.05758e-11 0 0)
(9.91936e-12 0 0)
(1.04883e-11 0 0)
(1.02111e-11 0 0)
(9.90478e-12 0 0)
(1.02695e-11 0 0)
(1.05466e-11 0 0)
(1.078e-11 0 0)
(1.07217e-11 0 0)
(1.12176e-11 0 0)
(1.13489e-11 0 0)
(1.06779e-11 0 0)
(1.13635e-11 0 0)
(1.08092e-11 0 0)
(1.13635e-11 0 0)
(1.08092e-11 0 0)
(1.17428e-11 0 0)
(1.08384e-11 0 0)
(1.22242e-11 0 0)
(1.13052e-11 0 0)
(1.21075e-11 0 0)
(1.12906e-11 0 0)
(1.25305e-11 0 0)
(1.13781e-11 0 0)
(1.23992e-11 0 0)
(1.20929e-11 0 0)
(1.2122e-11 0 0)
(1.25159e-11 0 0)
(1.22971e-11 0 0)
(1.25888e-11 0 0)
(1.22679e-11 0 0)
(1.26326e-11 0 0)
(1.2618e-11 0 0)
(1.31723e-11 0 0)
(1.27931e-11 0 0)
(1.34203e-11 0 0)
(1.30556e-11 0 0)
(1.35808e-11 0 0)
(1.29389e-11 0 0)
(1.28806e-11 0 0)
(1.28806e-11 0 0)
(1.22096e-11 0 0)
(1.24138e-11 0 0)
(1.12906e-11 0 0)
(1.21658e-11 0 0)
(1.10718e-11 0 0)
(1.15823e-11 0 0)
(1.07217e-11 0 0)
(1.13052e-11 0 0)
(1.06341e-11 0 0)
(1.13052e-11 0 0)
(1.10718e-11 0 0)
(1.13927e-11 0 0)
(1.08675e-11 0 0)
(1.16844e-11 0 0)
(1.11885e-11 0 0)
(1.17428e-11 0 0)
(1.13343e-11 0 0)
(1.17428e-11 0 0)
(1.15677e-11 0 0)
(1.15386e-11 0 0)
(1.13635e-11 0 0)
(1.12322e-11 0 0)
(1.14802e-11 0 0)
(1.17428e-11 0 0)
(1.17574e-11 0 0)
(1.18157e-11 0 0)
(1.19762e-11 0 0)
(1.2195e-11 0 0)
(1.21658e-11 0 0)
(1.27055e-11 0 0)
(1.27931e-11 0 0)
(1.32599e-11 0 0)
(1.26764e-11 0 0)
(1.36829e-11 0 0)
(1.29973e-11 0 0)
(1.35224e-11 0 0)
(1.29243e-11 0 0)
(1.37412e-11 0 0)
(1.29098e-11 0 0)
(1.3785e-11 0 0)
(1.33328e-11 0 0)
(1.34203e-11 0 0)
(1.34057e-11 0 0)
(1.361e-11 0 0)
(1.34495e-11 0 0)
(1.3537e-11 0 0)
(1.33474e-11 0 0)
(1.36829e-11 0 0)
(1.32744e-11 0 0)
(1.36391e-11 0 0)
(1.34349e-11 0 0)
(1.36829e-11 0 0)
(1.29243e-11 0 0)
(1.36537e-11 0 0)
(1.33766e-11 0 0)
(1.34203e-11 0 0)
(1.35078e-11 0 0)
(1.31723e-11 0 0)
(1.33474e-11 0 0)
(1.34203e-11 0 0)
(1.37996e-11 0 0)
(1.36975e-11 0 0)
(1.32744e-11 0 0)
(1.33474e-11 0 0)
(1.28952e-11 0 0)
(1.26326e-11 0 0)
(1.26472e-11 0 0)
(1.26034e-11 0 0)
(1.24576e-11 0 0)
(1.19908e-11 0 0)
(1.20637e-11 0 0)
(1.13052e-11 0 0)
(1.16407e-11 0 0)
(1.10572e-11 0 0)
(1.15677e-11 0 0)
(1.1203e-11 0 0)
(1.12322e-11 0 0)
(1.15094e-11 0 0)
(1.1203e-11 0 0)
(1.11447e-11 0 0)
(1.1699e-11 0 0)
(1.15094e-11 0 0)
(1.20637e-11 0 0)
(1.18449e-11 0 0)
(1.29681e-11 0 0)
(1.25159e-11 0 0)
(1.3289e-11 0 0)
(1.29827e-11 0 0)
(1.34933e-11 0 0)
(1.35808e-11 0 0)
(1.35662e-11 0 0)
(1.3537e-11 0 0)
(1.38288e-11 0 0)
(1.33328e-11 0 0)
(1.4033e-11 0 0)
(1.361e-11 0 0)
(1.4208e-11 0 0)
(1.32744e-11 0 0)
(1.43393e-11 0 0)
(1.35224e-11 0 0)
(1.46165e-11 0 0)
(1.44706e-11 0 0)
(1.46311e-11 0 0)
(1.40038e-11 0 0)
(1.46602e-11 0 0)
(1.34641e-11 0 0)
(1.43393e-11 0 0)
(1.31432e-11 0 0)
(1.36391e-11 0 0)
(1.30556e-11 0 0)
(1.28222e-11 0 0)
(1.30702e-11 0 0)
(1.22242e-11 0 0)
(1.27639e-11 0 0)
(1.237e-11 0 0)
(1.2195e-11 0 0)
(1.18303e-11 0 0)
(1.17865e-11 0 0)
(1.13197e-11 0 0)
(1.11447e-11 0 0)
(1.13343e-11 0 0)
(1.05758e-11 0 0)
(1.11009e-11 0 0)
(1.08675e-11 0 0)
(1.11447e-11 0 0)
(1.07946e-11 0 0)
(1.16115e-11 0 0)
(1.0532e-11 0 0)
(1.15969e-11 0 0)
(1.09842e-11 0 0)
(1.17574e-11 0 0)
(1.078e-11 0 0)
(1.18449e-11 0 0)
(1.09842e-11 0 0)
(1.21512e-11 0 0)
(1.11739e-11 0 0)
(1.20491e-11 0 0)
(1.1524e-11 0 0)
(1.22387e-11 0 0)
(1.16261e-11 0 0)
(1.26618e-11 0 0)
(1.1772e-11 0 0)
(1.29827e-11 0 0)
(1.21512e-11 0 0)
(1.30119e-11 0 0)
(1.22971e-11 0 0)
(1.35662e-11 0 0)
(1.28368e-11 0 0)
(1.38579e-11 0 0)
(1.28076e-11 0 0)
(1.36683e-11 0 0)
(1.27785e-11 0 0)
(1.35516e-11 0 0)
(1.30994e-11 0 0)
(1.35516e-11 0 0)
(1.3041e-11 0 0)
(1.32599e-11 0 0)
(1.3289e-11 0 0)
(1.34495e-11 0 0)
(1.30556e-11 0 0)
(1.36683e-11 0 0)
(1.35224e-11 0 0)
(1.37704e-11 0 0)
(1.396e-11 0 0)
(1.39163e-11 0 0)
(1.41059e-11 0 0)
(1.39309e-11 0 0)
(1.40622e-11 0 0)
(1.37266e-11 0 0)
(1.34495e-11 0 0)
(1.38288e-11 0 0)
(1.33328e-11 0 0)
(1.361e-11 0 0)
(1.31577e-11 0 0)
(1.28368e-11 0 0)
(1.27201e-11 0 0)
(1.27347e-11 0 0)
(1.27785e-11 0 0)
(1.31432e-11 0 0)
(1.2691e-11 0 0)
(1.28806e-11 0 0)
(1.25159e-11 0 0)
(1.28076e-11 0 0)
(1.2618e-11 0 0)
(1.30556e-11 0 0)
(1.23554e-11 0 0)
(1.26472e-11 0 0)
(1.23846e-11 0 0)
(1.24138e-11 0 0)
(1.21658e-11 0 0)
(1.25743e-11 0 0)
(1.1699e-11 0 0)
(1.2195e-11 0 0)
(1.14656e-11 0 0)
(1.20345e-11 0 0)
(1.16407e-11 0 0)
(1.27347e-11 0 0)
(1.22971e-11 0 0)
(1.26034e-11 0 0)
(1.26034e-11 0 0)
(1.3114e-11 0 0)
(1.25743e-11 0 0)
(1.38725e-11 0 0)
(1.28806e-11 0 0)
(1.40184e-11 0 0)
(1.35516e-11 0 0)
(1.42518e-11 0 0)
(1.40767e-11 0 0)
(1.41643e-11 0 0)
(1.47478e-11 0 0)
(1.40913e-11 0 0)
(1.50541e-11 0 0)
(1.40476e-11 0 0)
(1.51854e-11 0 0)
(1.4208e-11 0 0)
(1.55792e-11 0 0)
(1.46602e-11 0 0)
(1.52875e-11 0 0)
(1.43101e-11 0 0)
(1.51416e-11 0 0)
(1.41205e-11 0 0)
(1.43101e-11 0 0)
(1.38871e-11 0 0)
(1.42518e-11 0 0)
(1.35516e-11 0 0)
(1.36391e-11 0 0)
(1.31432e-11 0 0)
(1.35954e-11 0 0)
(1.31869e-11 0 0)
(1.30702e-11 0 0)
(1.31869e-11 0 0)
(1.30556e-11 0 0)
(1.29098e-11 0 0)
(1.26034e-11 0 0)
(1.26764e-11 0 0)
(1.24138e-11 0 0)
(1.2618e-11 0 0)
(1.26472e-11 0 0)
(1.24867e-11 0 0)
(1.2443e-11 0 0)
(1.29243e-11 0 0)
(1.20199e-11 0 0)
(1.24576e-11 0 0)
(1.22387e-11 0 0)
(1.26618e-11 0 0)
(1.20053e-11 0 0)
(1.29243e-11 0 0)
(1.21512e-11 0 0)
(1.30848e-11 0 0)
(1.28514e-11 0 0)
(1.29973e-11 0 0)
(1.33766e-11 0 0)
(1.31869e-11 0 0)
(1.37412e-11 0 0)
(1.37121e-11 0 0)
(1.40913e-11 0 0)
(1.34641e-11 0 0)
(1.45144e-11 0 0)
(1.28952e-11 0 0)
(1.43539e-11 0 0)
(1.29389e-11 0 0)
(1.41351e-11 0 0)
(1.34787e-11 0 0)
(1.37996e-11 0 0)
(1.3785e-11 0 0)
(1.33911e-11 0 0)
(1.41789e-11 0 0)
(1.34787e-11 0 0)
(1.38288e-11 0 0)
(1.40767e-11 0 0)
(1.41059e-11 0 0)
(1.40038e-11 0 0)
(1.41497e-11 0 0)
(1.38871e-11 0 0)
(1.41497e-11 0 0)
(1.38725e-11 0 0)
(1.43831e-11 0 0)
(1.40038e-11 0 0)
(1.3785e-11 0 0)
(1.3785e-11 0 0)
(1.43101e-11 0 0)
(1.39746e-11 0 0)
(1.40038e-11 0 0)
(1.45873e-11 0 0)
(1.42956e-11 0 0)
(1.46311e-11 0 0)
(1.44706e-11 0 0)
(1.51124e-11 0 0)
(1.43977e-11 0 0)
(1.49666e-11 0 0)
(1.50249e-11 0 0)
(1.46456e-11 0 0)
(1.49957e-11 0 0)
(1.49228e-11 0 0)
(1.46311e-11 0 0)
(1.51854e-11 0 0)
(1.46311e-11 0 0)
(1.50833e-11 0 0)
(1.47478e-11 0 0)
(1.52146e-11 0 0)
(1.40913e-11 0 0)
(1.5127e-11 0 0)
(1.41934e-11 0 0)
(1.47769e-11 0 0)
(1.46456e-11 0 0)
(1.47623e-11 0 0)
(1.45144e-11 0 0)
(1.46019e-11 0 0)
(1.44998e-11 0 0)
(1.4456e-11 0 0)
(1.46311e-11 0 0)
(1.47915e-11 0 0)
(1.48936e-11 0 0)
(1.41205e-11 0 0)
(1.43977e-11 0 0)
(1.42664e-11 0 0)
(1.39017e-11 0 0)
(1.38142e-11 0 0)
(1.39017e-11 0 0)
(1.37996e-11 0 0)
(1.396e-11 0 0)
(1.33328e-11 0 0)
(1.39455e-11 0 0)
(1.34787e-11 0 0)
(1.36245e-11 0 0)
(1.33474e-11 0 0)
(1.30265e-11 0 0)
(1.36975e-11 0 0)
(1.30994e-11 0 0)
(1.39455e-11 0 0)
(1.2866e-11 0 0)
(1.39017e-11 0 0)
(1.30848e-11 0 0)
(1.42956e-11 0 0)
(1.34349e-11 0 0)
(1.42956e-11 0 0)
(1.46748e-11 0 0)
(1.43539e-11 0 0)
(1.48936e-11 0 0)
(1.44706e-11 0 0)
(1.51708e-11 0 0)
(1.47769e-11 0 0)
(1.52e-11 0 0)
(1.45581e-11 0 0)
(1.57251e-11 0 0)
(1.47915e-11 0 0)
(1.54334e-11 0 0)
(1.45581e-11 0 0)
(1.56959e-11 0 0)
(1.41934e-11 0 0)
(1.44706e-11 0 0)
(1.43393e-11 0 0)
(1.44998e-11 0 0)
(1.38288e-11 0 0)
(1.41497e-11 0 0)
(1.31723e-11 0 0)
(1.41789e-11 0 0)
(1.32015e-11 0 0)
(1.37121e-11 0 0)
(1.29973e-11 0 0)
(1.39017e-11 0 0)
(1.26034e-11 0 0)
(1.38725e-11 0 0)
(1.24867e-11 0 0)
(1.34495e-11 0 0)
(1.25888e-11 0 0)
(1.27931e-11 0 0)
(1.22971e-11 0 0)
(1.23554e-11 0 0)
(1.20053e-11 0 0)
(1.19616e-11 0 0)
(1.15531e-11 0 0)
(1.18741e-11 0 0)
(1.19762e-11 0 0)
(1.16115e-11 0 0)
(1.15677e-11 0 0)
(1.1772e-11 0 0)
(1.14364e-11 0 0)
(1.11447e-11 0 0)
(1.0853e-11 0 0)
(1.0605e-11 0 0)
(1.0605e-11 0 0)
(1.06925e-11 0 0)
(1.0284e-11 0 0)
(1.09842e-11 0 0)
(1.03716e-11 0 0)
(1.13052e-11 0 0)
(1.05466e-11 0 0)
(1.13781e-11 0 0)
(1.08384e-11 0 0)
(1.1524e-11 0 0)
(1.10572e-11 0 0)
(1.19032e-11 0 0)
(1.1276e-11 0 0)
(1.18157e-11 0 0)
(1.13343e-11 0 0)
(1.20053e-11 0 0)
(1.14219e-11 0 0)
(1.16407e-11 0 0)
(1.16407e-11 0 0)
(1.19324e-11 0 0)
(1.18741e-11 0 0)
(1.23992e-11 0 0)
(1.19324e-11 0 0)
(1.25597e-11 0 0)
(1.24867e-11 0 0)
(1.32015e-11 0 0)
(1.2195e-11 0 0)
(1.3537e-11 0 0)
(1.25743e-11 0 0)
(1.33766e-11 0 0)
(1.25305e-11 0 0)
(1.42372e-11 0 0)
(1.23117e-11 0 0)
(1.40767e-11 0 0)
(1.30702e-11 0 0)
(1.361e-11 0 0)
(1.29243e-11 0 0)
(1.36391e-11 0 0)
(1.19324e-11 0 0)
(1.33474e-11 0 0)
(1.17865e-11 0 0)
(1.25451e-11 0 0)
(1.16553e-11 0 0)
(1.20491e-11 0 0)
(1.09696e-11 0 0)
(1.17865e-11 0 0)
(1.08821e-11 0 0)
(1.14656e-11 0 0)
(1.06341e-11 0 0)
(1.07946e-11 0 0)
(1.05029e-11 0 0)
(1.04883e-11 0 0)
(9.97771e-12 0 0)
(1.00069e-11 0 0)
(9.68597e-12 0 0)
(9.91936e-12 0 0)
(9.64221e-12 0 0)
(1.00069e-11 0 0)
(9.64221e-12 0 0)
(1.01819e-11 0 0)
(9.49633e-12 0 0)
(1.04737e-11 0 0)
(9.33587e-12 0 0)
(9.9923e-12 0 0)
(9.86101e-12 0 0)
(1.06633e-11 0 0)
(1.00069e-11 0 0)
(1.06487e-11 0 0)
(1.1028e-11 0 0)
(1.12614e-11 0 0)
(1.12906e-11 0 0)
(1.18886e-11 0 0)
(1.12176e-11 0 0)
(1.21804e-11 0 0)
(1.21804e-11 0 0)
(1.24867e-11 0 0)
(1.23992e-11 0 0)
(1.29827e-11 0 0)
(1.24721e-11 0 0)
(1.27639e-11 0 0)
(1.28952e-11 0 0)
(1.25305e-11 0 0)
(1.2866e-11 0 0)
(1.21075e-11 0 0)
(1.27201e-11 0 0)
(1.26034e-11 0 0)
(1.30994e-11 0 0)
(1.19762e-11 0 0)
(1.29243e-11 0 0)
(1.22679e-11 0 0)
(1.24138e-11 0 0)
(1.21804e-11 0 0)
(1.24576e-11 0 0)
(1.25159e-11 0 0)
(1.24284e-11 0 0)
(1.23992e-11 0 0)
(1.25013e-11 0 0)
(1.23117e-11 0 0)
(1.2691e-11 0 0)
(1.18157e-11 0 0)
(1.26326e-11 0 0)
(1.15531e-11 0 0)
(1.25888e-11 0 0)
(1.13781e-11 0 0)
(1.26034e-11 0 0)
(1.13489e-11 0 0)
(1.24721e-11 0 0)
(1.11301e-11 0 0)
(1.19032e-11 0 0)
(1.10572e-11 0 0)
(1.12468e-11 0 0)
(1.1276e-11 0 0)
(1.09842e-11 0 0)
(1.12468e-11 0 0)
(1.10718e-11 0 0)
(1.15823e-11 0 0)
(1.11739e-11 0 0)
(1.13927e-11 0 0)
(1.16115e-11 0 0)
(1.1524e-11 0 0)
(1.16698e-11 0 0)
(1.15823e-11 0 0)
(1.1451e-11 0 0)
(1.14948e-11 0 0)
(1.17428e-11 0 0)
(1.14802e-11 0 0)
(1.2122e-11 0 0)
(1.14219e-11 0 0)
(1.18157e-11 0 0)
(1.11301e-11 0 0)
(1.16698e-11 0 0)
(1.06925e-11 0 0)
(1.16261e-11 0 0)
(1.08384e-11 0 0)
(1.1451e-11 0 0)
(1.08092e-11 0 0)
(1.19908e-11 0 0)
(1.08967e-11 0 0)
(1.17574e-11 0 0)
(1.05174e-11 0 0)
(1.12614e-11 0 0)
(1.06196e-11 0 0)
(1.05758e-11 0 0)
(1.08675e-11 0 0)
(1.0357e-11 0 0)
(1.03862e-11 0 0)
(1.04007e-11 0 0)
(1.03132e-11 0 0)
(9.78808e-12 0 0)
(1.00506e-11 0 0)
(9.45257e-12 0 0)
(9.94854e-12 0 0)
(9.58386e-12 0 0)
(9.7589e-12 0 0)
(9.80267e-12 0 0)
(1.01236e-11 0 0)
(9.81725e-12 0 0)
(1.00361e-11 0 0)
(1.01819e-11 0 0)
(1.02549e-11 0 0)
(1.03132e-11 0 0)
(1.03132e-11 0 0)
(1.11009e-11 0 0)
(1.05029e-11 0 0)
(1.15094e-11 0 0)
(1.08384e-11 0 0)
(1.18303e-11 0 0)
(1.11155e-11 0 0)
(1.18886e-11 0 0)
(1.1276e-11 0 0)
(1.27493e-11 0 0)
(1.18011e-11 0 0)
(1.25597e-11 0 0)
(1.22096e-11 0 0)
(1.23992e-11 0 0)
(1.21366e-11 0 0)
(1.21658e-11 0 0)
(1.2195e-11 0 0)
(1.21075e-11 0 0)
(1.21075e-11 0 0)
(1.26326e-11 0 0)
(1.19908e-11 0 0)
(1.18449e-11 0 0)
(1.20929e-11 0 0)
(1.19616e-11 0 0)
(1.16844e-11 0 0)
(1.1451e-11 0 0)
(1.15094e-11 0 0)
(1.14802e-11 0 0)
(1.17282e-11 0 0)
(1.1203e-11 0 0)
(1.19032e-11 0 0)
(1.14802e-11 0 0)
(1.14802e-11 0 0)
(1.13781e-11 0 0)
(1.08092e-11 0 0)
(1.13781e-11 0 0)
(1.04737e-11 0 0)
(1.10718e-11 0 0)
(1.01819e-11 0 0)
(1.09259e-11 0 0)
(1.01819e-11 0 0)
(1.04591e-11 0 0)
(1.02695e-11 0 0)
(1.03132e-11 0 0)
(9.48175e-12 0 0)
(9.93395e-12 0 0)
(9.65679e-12 0 0)
(9.59844e-12 0 0)
(9.02954e-12 0 0)
(9.21917e-12 0 0)
(9.10248e-12 0 0)
(9.11706e-12 0 0)
(9.52551e-12 0 0)
(9.21917e-12 0 0)
(9.7589e-12 0 0)
(9.7589e-12 0 0)
(9.93395e-12 0 0)
(9.83184e-12 0 0)
(1.00798e-11 0 0)
(9.83184e-12 0 0)
(9.97771e-12 0 0)
(1.00506e-11 0 0)
(1.0357e-11 0 0)
(1.02549e-11 0 0)
(1.06779e-11 0 0)
(1.07363e-11 0 0)
(1.13052e-11 0 0)
(1.09551e-11 0 0)
(1.09988e-11 0 0)
(1.0853e-11 0 0)
(1.1028e-11 0 0)
(1.06779e-11 0 0)
(1.07217e-11 0 0)
(1.09405e-11 0 0)
(1.06779e-11 0 0)
(1.0853e-11 0 0)
(1.03862e-11 0 0)
(1.05612e-11 0 0)
(1.02257e-11 0 0)
(1.0284e-11 0 0)
(1.03132e-11 0 0)
(1.06341e-11 0 0)
(1.00361e-11 0 0)
(1.03132e-11 0 0)
(1.0109e-11 0 0)
(1.05029e-11 0 0)
(9.94854e-12 0 0)
(1.05904e-11 0 0)
(1.00798e-11 0 0)
(1.04445e-11 0 0)
(1.04591e-11 0 0)
(1.02695e-11 0 0)
(1.03424e-11 0 0)
(1.0109e-11 0 0)
(1.0605e-11 0 0)
(9.9923e-12 0 0)
(1.08384e-11 0 0)
(1.00652e-11 0 0)
(1.04299e-11 0 0)
(9.83184e-12 0 0)
(1.00069e-11 0 0)
(9.52551e-12 0 0)
(9.81725e-12 0 0)
(9.68597e-12 0 0)
(1.00361e-11 0 0)
(9.56927e-12 0 0)
(9.64221e-12 0 0)
(9.56927e-12 0 0)
(9.81725e-12 0 0)
(1.03132e-11 0 0)
(1.00652e-11 0 0)
(1.01819e-11 0 0)
(9.91936e-12 0 0)
(1.02549e-11 0 0)
(9.77349e-12 0 0)
(1.06779e-11 0 0)
(9.91936e-12 0 0)
(1.0109e-11 0 0)
(1.00506e-11 0 0)
(1.07217e-11 0 0)
(1.05904e-11 0 0)
(1.08675e-11 0 0)
(1.1028e-11 0 0)
(1.10572e-11 0 0)
(1.13635e-11 0 0)
(1.09842e-11 0 0)
(1.19908e-11 0 0)
(1.05029e-11 0 0)
(1.2618e-11 0 0)
(1.14802e-11 0 0)
(1.26034e-11 0 0)
(1.18449e-11 0 0)
(1.30265e-11 0 0)
(1.16115e-11 0 0)
(1.31286e-11 0 0)
(1.2195e-11 0 0)
(1.30556e-11 0 0)
(1.28806e-11 0 0)
(1.28076e-11 0 0)
(1.31869e-11 0 0)
(1.27347e-11 0 0)
(1.31286e-11 0 0)
(1.22971e-11 0 0)
(1.22387e-11 0 0)
(1.18157e-11 0 0)
(1.15386e-11 0 0)
(1.09842e-11 0 0)
(1.11593e-11 0 0)
(1.07654e-11 0 0)
(1.03132e-11 0 0)
(1.02549e-11 0 0)
(9.81725e-12 0 0)
(1.01236e-11 0 0)
(9.0733e-12 0 0)
(9.89019e-12 0 0)
(9.01495e-12 0 0)
(9.59844e-12 0 0)
(8.82532e-12 0 0)
(9.24835e-12 0 0)
(8.85449e-12 0 0)
(9.61303e-12 0 0)
(9.23376e-12 0 0)
(9.70055e-12 0 0)
(9.51092e-12 0 0)
(9.8756e-12 0 0)
(9.80267e-12 0 0)
(1.04883e-11 0 0)
(1.03862e-11 0 0)
(1.0532e-11 0 0)
(1.05466e-11 0 0)
(1.08238e-11 0 0)
(1.04299e-11 0 0)
(1.078e-11 0 0)
(1.07071e-11 0 0)
(1.08967e-11 0 0)
(1.07946e-11 0 0)
(1.09113e-11 0 0)
(1.19616e-11 0 0)
(1.14802e-11 0 0)
(1.16261e-11 0 0)
(1.14802e-11 0 0)
(1.2195e-11 0 0)
(1.17574e-11 0 0)
(1.21512e-11 0 0)
(1.21804e-11 0 0)
(1.26034e-11 0 0)
(1.24138e-11 0 0)
(1.28806e-11 0 0)
(1.18157e-11 0 0)
(1.27493e-11 0 0)
(1.19762e-11 0 0)
(1.24721e-11 0 0)
(1.15823e-11 0 0)
(1.27201e-11 0 0)
(1.14802e-11 0 0)
(1.24138e-11 0 0)
(1.18741e-11 0 0)
(1.22825e-11 0 0)
(1.19908e-11 0 0)
(1.22825e-11 0 0)
(1.15969e-11 0 0)
(1.18886e-11 0 0)
(1.10572e-11 0 0)
(1.18741e-11 0 0)
(1.06779e-11 0 0)
(1.09696e-11 0 0)
(1.06487e-11 0 0)
(1.1203e-11 0 0)
(1.00798e-11 0 0)
(1.07071e-11 0 0)
(9.97771e-12 0 0)
(9.84643e-12 0 0)
(9.81725e-12 0 0)
(9.56927e-12 0 0)
(9.58386e-12 0 0)
(9.51092e-12 0 0)
(9.58386e-12 0 0)
(9.59844e-12 0 0)
(9.55468e-12 0 0)
(9.40881e-12 0 0)
(9.02954e-12 0 0)
(8.91284e-12 0 0)
(9.04413e-12 0 0)
(8.48981e-12 0 0)
(8.60651e-12 0 0)
(8.34394e-12 0 0)
(8.31476e-12 0 0)
(8.35852e-12 0 0)
(8.21265e-12 0 0)
(8.43146e-12 0 0)
(8.24182e-12 0 0)
(8.22724e-12 0 0)
(8.30017e-12 0 0)
(7.76044e-12 0 0)
(7.99384e-12 0 0)
(7.70209e-12 0 0)
(7.93549e-12 0 0)
(7.19154e-12 0 0)
(7.52705e-12 0 0)
(7.26448e-12 0 0)
(6.95814e-12 0 0)
(7.26448e-12 0 0)
(6.56429e-12 0 0)
(7.20613e-12 0 0)
(6.92897e-12 0 0)
(6.97273e-12 0 0)
(7.22071e-12 0 0)
(7.65833e-12 0 0)
(7.67292e-12 0 0)
(8.0376e-12 0 0)
(7.97925e-12 0 0)
(8.3877e-12 0 0)
(8.48981e-12 0 0)
(9.54009e-12 0 0)
(8.89825e-12 0 0)
(9.91936e-12 0 0)
(9.43798e-12 0 0)
(1.00506e-11 0 0)
(9.10248e-12 0 0)
(9.9923e-12 0 0)
(9.04413e-12 0 0)
(9.68597e-12 0 0)
(9.35046e-12 0 0)
(9.40881e-12 0 0)
(9.02954e-12 0 0)
(8.75238e-12 0 0)
(8.85449e-12 0 0)
(8.43146e-12 0 0)
(8.5044e-12 0 0)
(8.32935e-12 0 0)
(8.16889e-12 0 0)
(8.35852e-12 0 0)
(8.31476e-12 0 0)
(8.3877e-12 0 0)
(8.30017e-12 0 0)
(8.98578e-12 0 0)
(8.09595e-12 0 0)
(9.37963e-12 0 0)
(8.37311e-12 0 0)
(9.51092e-12 0 0)
(9.35046e-12 0 0)
(9.93395e-12 0 0)
(9.62762e-12 0 0)
(9.89019e-12 0 0)
(9.02954e-12 0 0)
(1.0605e-11 0 0)
(9.36505e-12 0 0)
(9.9923e-12 0 0)
(9.01495e-12 0 0)
(1.0532e-11 0 0)
(9.13165e-12 0 0)
(1.01673e-11 0 0)
(9.40881e-12 0 0)
(1.01236e-11 0 0)
(9.8756e-12 0 0)
(9.61303e-12 0 0)
(9.51092e-12 0 0)
(9.48175e-12 0 0)