/*--------------------------------*- C++ -*----------------------------------*\
| =========                 |                                                 |
| \\      /  F ield         | OpenFOAM: The Open Source CFD Toolbox           |
|  \\    /   O peration     | Version:  4.0                                   |
|   \\  /    A nd           | Web:      www.OpenFOAM.org                      |
|    \\/     M anipulation  |                                                 |
\*---------------------------------------------------------------------------*/
FoamFile
{
    version     2.0;
    format      ascii;
    class       volScalarField;
    location    "45";
    object      p;
}
// * * * * * * * * * * * * * * * * * * * * * * * * * * * * * * * * * * * * * //

dimensions      [0 2 -2 0 0 0 0];

internalField   nonuniform List<scalar> 
2200
(
0.779118
0.757617
0.741708
0.726035
0.711418
0.69889
0.688521
0.680405
0.674687
0.671702
0.672141
0.675924
0.68223
0.690769
0.701436
0.714187
0.728962
0.744851
0.760875
0.782378
0.711554
0.708295
0.705367
0.701246
0.69578
0.689302
0.682674
0.676704
0.672178
0.669748
0.6702
0.673466
0.678607
0.685034
0.691991
0.698724
0.70437
0.708486
0.711362
0.714709
0.671641
0.671859
0.673917
0.675259
0.675643
0.674781
0.672792
0.670099
0.667528
0.666005
0.666515
0.66892
0.67217
0.675368
0.677693
0.678699
0.678419
0.677375
0.675674
0.67543
0.649187
0.650638
0.653227
0.655668
0.658099
0.660103
0.661242
0.661449
0.66105
0.660725
0.661307
0.662632
0.6638
0.664162
0.663457
0.661776
0.659611
0.657397
0.654795
0.653385
0.634864
0.636836
0.639647
0.642476
0.645328
0.648144
0.650583
0.652418
0.653613
0.654377
0.655049
0.655461
0.655165
0.65402
0.652124
0.649727
0.647159
0.644438
0.641655
0.639725
0.62754
0.629139
0.631338
0.633864
0.636522
0.639176
0.641747
0.644144
0.646122
0.647579
0.648373
0.648332
0.647449
0.645886
0.643946
0.641763
0.639411
0.637056
0.634952
0.633376
0.624168
0.625189
0.626456
0.628314
0.630443
0.632587
0.634747
0.636997
0.639162
0.640938
0.641891
0.641827
0.640995
0.639736
0.638314
0.636728
0.635007
0.633413
0.632288
0.631271
0.621585
0.622254
0.622881
0.624173
0.625775
0.627441
0.62916
0.63103
0.633021
0.634894
0.63604
0.636255
0.635861
0.635193
0.634363
0.633379
0.632291
0.631345
0.630887
0.630211
0.618448
0.618898
0.61929
0.620269
0.621506
0.62286
0.624322
0.62594
0.627723
0.629592
0.630994
0.631678
0.631837
0.631695
0.631335
0.630798
0.630168
0.629598
0.629392
0.62893
0.614454
0.61475
0.615109
0.615979
0.617089
0.618345
0.619746
0.621295
0.62301
0.62491
0.626623
0.627793
0.628452
0.628726
0.628714
0.628499
0.628133
0.627757
0.627605
0.627284
0.609858
0.610057
0.610424
0.611251
0.612343
0.613645
0.615143
0.616824
0.618694
0.620789
0.622895
0.624549
0.625598
0.62616
0.626341
0.626324
0.626136
0.625884
0.625746
0.625517
0.604852
0.604998
0.605373
0.606179
0.60731
0.608724
0.610416
0.612381
0.614609
0.617139
0.619725
0.621804
0.623157
0.623928
0.624307
0.624388
0.624329
0.624211
0.624109
0.623933
0.599412
0.599519
0.599895
0.600717
0.601949
0.603549
0.605494
0.607793
0.610493
0.613605
0.616767
0.619277
0.620946
0.621976
0.622573
0.622862
0.62298
0.622987
0.622921
0.622769
0.593581
0.593643
0.594024
0.594877
0.596215
0.597982
0.600183
0.602857
0.606066
0.609834
0.613717
0.616845
0.618992
0.620397
0.621305
0.621854
0.622159
0.622283
0.622258
0.622122
0.587338
0.587373
0.587784
0.588675
0.590118
0.592055
0.594517
0.597596
0.601438
0.606032
0.610778
0.614623
0.617376
0.619277
0.620583
0.62145
0.621991
0.622256
0.622279
0.622154
0.580569
0.580528
0.580945
0.581922
0.583585
0.58576
0.588536
0.592092
0.596622
0.602156
0.60798
0.612762
0.616218
0.618764
0.620597
0.621845
0.622647
0.623049
0.623123
0.622997
0.572927
0.572904
0.573338
0.574453
0.576331
0.578835
0.582063
0.586196
0.59147
0.598051
0.605122
0.611186
0.615719
0.619017
0.621398
0.623053
0.624114
0.624669
0.624802
0.624672
0.564346
0.564363
0.564768
0.565941
0.568164
0.571111
0.574943
0.579863
0.586158
0.594068
0.602752
0.610278
0.615942
0.620092
0.623109
0.625206
0.626576
0.627292
0.627474
0.627337
0.554434
0.554401
0.554948
0.556388
0.558924
0.562422
0.567119
0.573217
0.581006
0.590711
0.601244
0.610291
0.61712
0.622114
0.625783
0.628415
0.630135
0.631016
0.631251
0.631108
0.54263
0.542548
0.54321
0.54506
0.548213
0.552542
0.558358
0.565962
0.575712
0.587716
0.600419
0.611149
0.619171
0.625248
0.629753
0.632924
0.634999
0.636047
0.636335
0.636179
0.528713
0.528583
0.529326
0.531532
0.535411
0.5408
0.548028
0.557437
0.569432
0.584089
0.599458
0.612376
0.622144
0.629469
0.634853
0.63875
0.64128
0.642526
0.642873
0.642688
0.511747
0.511648
0.512614
0.515271
0.520006
0.526714
0.53574
0.547421
0.562153
0.579956
0.598548
0.614125
0.625877
0.63471
0.641284
0.646015
0.649072
0.650544
0.650945
0.650721
0.490623
0.490458
0.491733
0.495185
0.501294
0.509994
0.521616
0.536475
0.554776
0.576357
0.598494
0.616914
0.630805
0.641252
0.649066
0.654804
0.658456
0.66014
0.660573
0.660289
0.463067
0.463073
0.465124
0.469996
0.478401
0.490243
0.505703
0.524862
0.547686
0.573793
0.599868
0.621251
0.637253
0.649332
0.65848
0.66511
0.669269
0.671128
0.671562
0.671222
0.426189
0.42643
0.429955
0.437742
0.450142
0.466929
0.487662
0.512237
0.54043
0.571712
0.602155
0.626734
0.645072
0.658915
0.669346
0.676882
0.681479
0.683435
0.683824
0.683419
0.37675
0.377166
0.384146
0.397134
0.415898
0.439746
0.467431
0.498597
0.532985
0.57004
0.605229
0.633194
0.653935
0.669636
0.681517
0.689975
0.694874
0.696742
0.696945
0.696558
0.311071
0.313887
0.329023
0.350278
0.377872
0.410459
0.446143
0.484703
0.525985
0.569401
0.609928
0.641938
0.665881
0.684073
0.697816
0.707695
0.713159
0.714973
0.714995
0.714814
0.236132
0.245699
0.270907
0.301917
0.339556
0.381159
0.425007
0.471316
0.519952
0.570325
0.617029
0.653889
0.681366
0.702425
0.718599
0.730009
0.736018
0.737565
0.737514
0.737556
0.169051
0.183933
0.215511
0.255351
0.302504
0.35299
0.404881
0.458992
0.515003
0.572251
0.62452
0.665798
0.69671
0.720332
0.738247
0.750917
0.757495
0.759371
0.759723
0.759725
0.117964
0.131272
0.168193
0.214175
0.268655
0.326588
0.385868
0.447196
0.51001
0.573564
0.631524
0.676974
0.710922
0.736848
0.756507
0.770574
0.777582
0.779961
0.78023
0.780303
0.0758229
0.0884132
0.128994
0.178862
0.238731
0.302554
0.368214
0.436002
0.505214
0.575129
0.638535
0.687544
0.724072
0.751907
0.772831
0.787634
0.795285
0.798011
0.798337
0.79844
0.0394335
0.0522547
0.0956274
0.14839
0.212518
0.281052
0.352115
0.425584
0.500491
0.575944
0.643684
0.696507
0.73546
0.764714
0.786816
0.802095
0.81011
0.81318
0.813606
0.813712
0.00766524
0.0206568
0.0660579
0.12139
0.189154
0.261672
0.337331
0.415632
0.495433
0.575862
0.648616
0.704531
0.745081
0.775722
0.798214
0.813948
0.822481
0.825743
0.826327
0.826408
-0.0209044
-0.00781074
0.0392266
0.0969777
0.167922
0.243824
0.323376
0.405856
0.490301
0.575745
0.652607
0.710859
0.753433
0.784772
0.807773
0.823926
0.832649
0.836195
0.836868
0.83693
-0.0470401
-0.0339395
0.0143273
0.0744589
0.148158
0.227005
0.309994
0.396261
0.484906
0.574486
0.654785
0.716401
0.760298
0.792607
0.816118
0.832244
0.841486
0.845102
0.845889
0.845888
-0.0715535
-0.0581739
-0.00898454
0.0533165
0.129411
0.210892
0.296952
0.386544
0.47876
0.572381
0.657072
0.721259
0.766532
0.79969
0.823613
0.83989
0.848954
0.852772
0.853465
0.85331
-0.0946551
-0.0810249
-0.0310373
0.0331792
0.111368
0.195208
0.283938
0.376429
0.472005
0.569644
0.658034
0.724842
0.772379
0.806302
0.83049
0.84667
0.855683
0.859343
0.860118
0.85997
-0.116469
-0.10279
-0.0520801
0.0137778
0.0937885
0.179736
0.270841
0.366
0.464764
0.565951
0.658214
0.728697
0.778051
0.812653
0.837008
0.853052
0.861841
0.865454
0.866142
0.866062
-0.137337
-0.123563
-0.0722623
-0.00503669
0.0765275
0.164381
0.257675
0.355288
0.456906
0.561515
0.657885
0.731709
0.783197
0.81921
0.843562
0.85929
0.86791
0.871248
0.871912
0.871806
-0.157704
-0.143479
-0.0917244
-0.0233351
0.0595667
0.149119
0.244385
0.344207
0.44841
0.556352
0.656661
0.73399
0.788423
0.825808
0.85055
0.865887
0.873833
0.876884
0.877349
0.877253
-0.177705
-0.162729
-0.110572
-0.0411609
0.0428827
0.133918
0.230925
0.332732
0.439324
0.550378
0.654544
0.735684
0.793376
0.832944
0.858307
0.872944
0.880038
0.882207
0.882511
0.882382
-0.197253
-0.181499
-0.128914
-0.0585511
0.0264839
0.118789
0.21731
0.320933
0.429799
0.543668
0.651338
0.736639
0.798118
0.840535
0.867197
0.881138
0.886558
0.887269
0.887184
0.887071
-0.216217
-0.199854
-0.146784
-0.0755177
0.010381
0.103776
0.203622
0.308904
0.419824
0.536109
0.646895
0.736552
0.802262
0.848527
0.87761
0.891237
0.89446
0.891994
0.891383
0.892199
-0.234551
-0.21775
-0.164167
-0.092048
-0.00537415
0.0889612
0.189951
0.296662
0.409315
0.527693
0.641361
0.735131
0.805534
0.856566
0.889629
0.90441
0.905454
0.898868
0.893608
0.89201
-0.252234
-0.235089
-0.180991
-0.108094
-0.0207312
0.0744047
0.176341
0.28422
0.398315
0.51855
0.634794
0.732095
0.80741
0.864332
0.90301
0.92154
0.924385
0.91205
0.910398
0.914684
-0.269263
-0.251784
-0.19719
-0.123603
-0.0356336
0.0601629
0.162846
0.27165
0.386959
0.508816
0.627061
0.727342
0.807567
0.870657
0.916749
0.942341
0.949918
0.92167
0.880185
0.843185
-0.285584
-0.267838
-0.21278
-0.13863
-0.050185
0.0460999
0.149313
0.258804
0.375082
0.498226
0.617953
0.720656
0.804845
0.874465
0.929563
0.965858
0.988142
0.973678
0.990492
1.04721
-0.30115
-0.283293
-0.22786
-0.153319
-0.0645642
0.0319996
0.135498
0.24539
0.362249
0.48616
0.606912
0.711084
0.798168
0.872854
0.933088
0.973534
0.989299
0.971309
0.931821
0.945354
-0.31594
-0.298132
-0.242384
-0.167612
-0.0786919
0.0179718
0.12155
0.23156
0.348563
0.472728
0.594082
0.698652
0.785957
0.861508
0.92182
0.960973
0.952662
0.901455
0.838642
0.826731
-0.329942
-0.312349
-0.256365
-0.18152
-0.0925635
0.00403095
0.107493
0.217336
0.334084
0.458029
0.579184
0.68273
0.767793
0.838435
0.892636
0.904449
0.871506
0.796645
0.723056
0.702511
-0.343197
-0.325942
-0.269812
-0.195058
-0.106201
-0.00984014
0.0933177
0.202734
0.318871
0.442018
0.562041
0.663545
0.742811
0.801561
0.831131
0.820239
0.765403
0.665
0.578389
0.55726
-0.356162
-0.339315
-0.283129
-0.208606
-0.119964
-0.0239601
0.0787437
0.187528
0.302756
0.424572
0.542531
0.640212
0.712124
0.755236
0.750808
0.717316
0.609057
0.487826
0.381222
0.355012
-0.369735
-0.35327
-0.297007
-0.222782
-0.134434
-0.0388277
0.0633475
0.171375
0.285457
0.405391
0.520408
0.612914
0.677592
0.696643
0.663266
0.577503
0.422809
0.27117
0.142849
0.116018
-0.38444
-0.368206
-0.311784
-0.237838
-0.149794
-0.0545742
0.047038
0.154214
0.266938
0.38455
0.495649
0.582216
0.635869
0.627637
0.575002
0.42697
0.227854
0.0158504
-0.163747
-0.211426
-0.400385
-0.384226
-0.327499
-0.253781
-0.166027
-0.0711786
0.0298398
0.136073
0.247246
0.362077
0.468164
0.549257
0.587962
0.548621
0.46171
0.274319
0.0430557
-0.245761
-0.567415
-0.714184
-0.417648
-0.401408
-0.344295
-0.27072
-0.183184
-0.0886951
0.0116898
0.116879
0.22633
0.338112
0.438474
0.513411
0.535252
0.464896
0.329022
0.123155
-0.11162
-0.456366
-1.04495
-1.61787
-0.436309
-0.419864
-0.362215
-0.28869
-0.201287
-0.107125
-0.00738278
0.0967191
0.204382
0.31298
0.407461
0.474617
0.478696
0.391009
0.20047
-0.0342404
-0.238167
-0.474575
-1.03406
-2.55903
-0.456386
-0.439638
-0.381393
-0.307845
-0.220495
-0.12666
-0.0276098
0.0753149
0.181056
0.286317
0.375032
0.432763
0.417037
0.332885
0.10669
-0.132824
-0.281873
-0.32045
-0.31255
-0.702659
-0.477817
-0.460952
-0.401963
-0.328447
-0.24121
-0.147805
-0.0496148
0.0519117
0.15543
0.256788
0.340079
0.38777
0.35634
0.284502
0.0568708
-0.147488
-0.259393
-0.267884
-0.215098
-0.255845
-0.500403
-0.483623
-0.423959
-0.350598
-0.263508
-0.170667
-0.0735317
0.0263477
0.127274
0.224205
0.302765
0.340647
0.30266
0.232123
0.0245175
-0.138356
-0.220943
-0.228445
-0.276184
-0.28105
-0.524169
-0.507469
-0.447232
-0.374246
-0.287375
-0.195278
-0.0994097
-0.00142473
0.0965827
0.189005
0.262943
0.291587
0.255923
0.172443
-0.00313117
-0.128606
-0.199654
-0.1744
-0.195661
-0.197263
-0.548889
-0.532016
-0.471745
-0.399347
-0.312659
-0.221537
-0.127144
-0.0312771
0.063512
0.15141
0.220694
0.239101
0.214799
0.104911
-0.0378077
-0.123362
-0.164997
-0.209388
-0.185146
-0.193342
-0.574284
-0.557004
-0.497296
-0.425646
-0.339133
-0.249297
-0.156567
-0.063003
0.0282032
0.11182
0.177116
0.185571
0.172589
0.0440102
-0.0746998
-0.140192
-0.121626
-0.180896
-0.160512
-0.165303
-0.59949
-0.581973
-0.523769
-0.452822
-0.366462
-0.278286
-0.187349
-0.0962348
-0.00909293
0.0706153
0.133038
0.134089
0.121828
-0.00821066
-0.102808
-0.156096
-0.141354
-0.159861
-0.16427
-0.163081
-0.624063
-0.606699
-0.550304
-0.480084
-0.39431
-0.308134
-0.219093
-0.130575
-0.0478375
0.0281424
0.0891024
0.0858906
0.0653367
-0.0522755
-0.118184
-0.150729
-0.184003
-0.159996
-0.16668
-0.16197
-0.647048
-0.630392
-0.575894
-0.50665
-0.422296
-0.338263
-0.251225
-0.165405
-0.0871029
-0.0152542
0.0449089
0.0409526
0.0106139
-0.0893853
-0.135147
-0.126385
-0.193067
-0.148013
-0.160989
-0.154207
-0.667737
-0.65219
-0.59954
-0.531547
-0.449931
-0.367855
-0.283034
-0.200102
-0.125896
-0.0590107
0.00026436
-0.00234
-0.0388551
-0.109417
-0.149313
-0.114199
-0.16338
-0.137854
-0.142757
-0.140473
-0.684623
-0.670671
-0.6205
-0.554293
-0.476083
-0.395926
-0.313673
-0.233758
-0.1631
-0.102199
-0.0439645
-0.0454988
-0.0794942
-0.113629
-0.142746
-0.129509
-0.13817
-0.138615
-0.136428
-0.135618
-0.696822
-0.684919
-0.637757
-0.57396
-0.499271
-0.421469
-0.342086
-0.265395
-0.197807
-0.143507
-0.0871438
-0.0879397
-0.123831
-0.117788
-0.114382
-0.126119
-0.120942
-0.143469
-0.140099
-0.143074
-0.702979
-0.693427
-0.650242
-0.589347
-0.518013
-0.443321
-0.367178
-0.29376
-0.228931
-0.180789
-0.126178
-0.128791
-0.180926
-0.152648
-0.0663875
-0.080185
-0.0889722
-0.127115
-0.142832
-0.149255
-0.702878
-0.695426
-0.65634
-0.59896
-0.531327
-0.460133
-0.38747
-0.317312
-0.255389
-0.211184
-0.159931
-0.164586
-0.243168
-0.269679
-0.219865
-0.264621
-0.277189
-0.278446
-0.27624
-0.272648
-0.695578
-0.688321
-0.65431
-0.601486
-0.538003
-0.470773
-0.401691
-0.334374
-0.274486
-0.232154
-0.186905
-0.196123
-0.31883
-0.518122
-0.759555
-0.884748
-0.907909
-0.858289
-0.793293
-0.738724
-0.676565
-0.668576
-0.64174
-0.595562
-0.537345
-0.474282
-0.408726
-0.343351
-0.283469
-0.240097
-0.199514
-0.199363
-0.351579
-0.637999
-1.00382
-1.15958
-1.1703
-1.09834
-1.02368
-0.962806
-0.637946
-0.630521
-0.617442
-0.581343
-0.529107
-0.470376
-0.408112
-0.343141
-0.279719
-0.229933
-0.186936
-0.150109
-0.194101
-0.287225
-0.431646
-0.452407
-0.381949
-0.313414
-0.213774
-0.16209
-0.593464
-0.589963
-0.587438
-0.559652
-0.515079
-0.460581
-0.399943
-0.333796
-0.263441
-0.197468
-0.137684
-0.028694
0.116552
0.359848
0.571206
0.769159
0.931689
1.03109
1.07927
1.11549
-0.566646
-0.567418
-0.559842
-0.539311
-0.50026
-0.447742
-0.386282
-0.317574
-0.2379
-0.147805
-0.0536465
0.104339
0.357145
0.745756
1.12645
1.43708
1.64637
1.76742
1.82322
1.84131
-0.534595
-0.535806
-0.529636
-0.520773
-0.486892
-0.435603
-0.371277
-0.298565
-0.212318
-0.107789
0.00568578
0.147529
0.416928
0.766775
1.11151
1.40438
1.61698
1.74352
1.80153
1.81895
-0.506109
-0.50496
-0.504377
-0.500973
-0.474556
-0.425725
-0.359326
-0.282027
-0.193016
-0.085534
0.0294013
0.131894
0.366886
0.667448
0.953792
1.20065
1.39571
1.51453
1.56846
1.58368
-0.492371
-0.489741
-0.491123
-0.48592
-0.466284
-0.417721
-0.349424
-0.269959
-0.182416
-0.0818722
0.0264181
0.0962109
0.280325
0.530177
0.759107
0.95435
1.1138
1.21241
1.25621
1.2675
-0.48957
-0.487721
-0.490011
-0.488961
-0.46939
-0.413007
-0.341482
-0.261663
-0.178233
-0.0904826
0.0110116
0.0636806
0.196622
0.397126
0.578408
0.727293
0.847035
0.923709
0.95764
0.966409
-0.487728
-0.488081
-0.492694
-0.495332
-0.47213
-0.406594
-0.332564
-0.253613
-0.174819
-0.10108
-0.00647085
0.039508
0.127689
0.283336
0.425499
0.536409
0.622592
0.67912
0.703361
0.707968
-0.459164
-0.461259
-0.467959
-0.46875
-0.443037
-0.38087
-0.312668
-0.239336
-0.167043
-0.106211
-0.0210323
0.0228097
0.0783001
0.194916
0.30249
0.383103
0.444505
0.485518
0.502044
0.507553
-0.379582
-0.382791
-0.388603
-0.389083
-0.368225
-0.323893
-0.272178
-0.213219
-0.150979
-0.102271
-0.0306347
0.00970822
0.0451199
0.133448
0.211798
0.269167
0.313428
0.345128
0.356477
0.359681
-0.267307
-0.270115
-0.272924
-0.273677
-0.262642
-0.239712
-0.209817
-0.17198
-0.126102
-0.0896223
-0.0346515
4.70483e-05
0.0235026
0.0916871
0.147748
0.187194
0.219211
0.23977
0.249318
0.252242
-0.156848
-0.158393
-0.16043
-0.162743
-0.16065
-0.153819
-0.14201
-0.123198
-0.0961217
-0.071246
-0.033674
-0.00690198
0.010436
0.0635854
0.101906
0.128527
0.149002
0.160987
0.166263
0.167405
-0.0695321
-0.0705079
-0.072287
-0.0761704
-0.0803308
-0.0834549
-0.0834122
-0.0779001
-0.0656958
-0.0517276
-0.0291533
-0.0103245
0.00232263
0.0417518
0.0674576
0.084755
0.096364
0.101701
0.102728
0.102243
-0.0106957
-0.0114519
-0.0131502
-0.0181723
-0.026233
-0.0345921
-0.0405796
-0.0425977
-0.0397088
-0.0346401
-0.0223869
-0.0102016
-0.000127351
0.023444
0.0396031
0.0500439
0.0557509
0.0569472
0.0559693
0.0547808
0.0221885
0.0216136
0.0200805
0.0148686
0.00568553
-0.0045241
-0.0133082
-0.0191733
-0.0211045
-0.0216128
-0.0153752
-0.00861048
-0.00139816
0.0109004
0.0192308
0.0240307
0.0258333
0.0251407
0.0234684
0.0220461
0.0373783
0.0369139
0.0355843
0.0308943
0.0223421
0.0122319
0.0026721
-0.00505324
-0.0092905
-0.0122648
-0.0094469
-0.00629161
-0.00335886
0.00230079
0.00582596
0.00714852
0.00689596
0.00527488
0.00321887
0.00171104
0.0417409
0.0414071
0.0403693
0.0366528
0.0296464
0.0209035
0.0119355
0.00366922
-0.00149367
-0.00568874
-0.00477864
-0.004567
-0.00506381
-0.00257793
-0.00206532
-0.00229645
-0.00372664
-0.00601941
-0.0080644
-0.00945521
0.040151
0.0399054
0.0391024
0.0363674
0.0311702
0.0244892
0.0171195
0.00960201
0.004334
-0.0008372
-0.00124888
-0.00244328
-0.00465491
-0.00366992
-0.00425403
-0.00542017
-0.00759626
-0.00987365
-0.011602
-0.012896
0.0360594
0.0358739
0.0352834
0.0333564
0.0296429
0.0248324
0.0191663
0.0129795
0.00828504
0.00272708
0.00124074
-6.8275e-05
-0.0019023
-0.00123151
-0.00227021
-0.00438048
-0.00635844
-0.00821279
-0.00956592
-0.0106999
0.0312745
0.0311308
0.0306869
0.0293333
0.0267458
0.0232551
0.0190304
0.0142015
0.0103929
0.00525023
0.00366203
0.002533
0.00112571
0.00157875
0.000787914
-0.000908741
-0.00277123
-0.00425626
-0.00503804
-0.00595651
0.0267771
0.0266662
0.0263702
0.0253975
0.0235162
0.0209142
0.0176711
0.0138616
0.0110793
0.00699035
0.0057302
0.00504703
0.00449163
0.00437491
0.0037896
0.00280608
0.00206296
0.00188802
0.0017655
0.000814195
0.0226974
0.022627
0.0224091
0.0217801
0.0204702
0.0185019
0.0161065
0.0131164
0.01102
0.00776582
0.00712586
0.00644693
0.00603996
0.00667971
0.00695184
0.00691057
0.00707088
0.0071808
0.00732902
0.00652257
0.0188123
0.0187623
0.0186081
0.0182101
0.0173059
0.015902
0.0141753
0.0118953
0.010416
0.00794545
0.00766916
0.00756914
0.00668895
0.00734262
0.00828928
0.00965988
0.0103424
0.0105766
0.0109561
0.0102727
0.0151465
0.015102
0.0149872
0.0147526
0.0141236
0.0132247
0.0119912
0.0102543
0.0092084
0.00715434
0.00702626
0.00671446
0.00684675
0.00831828
0.0094849
0.0113339
0.0127507
0.0134295
0.0139377
0.0132746
0.0116074
0.0115574
0.0114671
0.0113503
0.010985
0.0104453
0.0096521
0.00845675
0.00774329
0.00597516
0.00607291
0.00442401
0.0044324
0.0073583
0.0100615
0.0125291
0.0149518
0.0163522
0.0168031
0.0159847
0.00844963
0.00836882
0.00827467
0.00819808
0.00797953
0.00773735
0.00717957
0.00623382
0.0059186
0.00459717
0.00446601
0.00273264
0.0018677
0.00464765
0.00917085
0.0132067
0.0162556
0.0177106
0.0181035
0.0173538
0.00578035
0.00570731
0.00563449
0.0055846
0.00541362
0.00521261
0.00491454
0.00427307
0.00409633
0.00287316
0.00291305
0.000812257
2.81423e-06
0.00322669
0.00714534
0.0111575
0.0148006
0.0166518
0.0169847
0.0160641
0.00340919
0.00332923
0.0032993
0.0032185
0.00308919
0.00296077
0.00280831
0.00241834
0.00258114
0.00138442
0.00192441
-0.000271985
-0.000998372
0.00130378
0.00418305
0.00728868
0.0103831
0.0124988
0.0132851
0.0123431
0.00138081
0.0013266
0.00129519
0.00117759
0.00110658
0.001153
0.00125598
0.000991359
0.00122563
0.000623379
0.00082903
0.000483931
0.000685578
0.000678246
0.00120824
0.0011171
0.00111687
0.00122915
0.00216377
0.00200961
-1.07635
-0.232322
0.0377449
0.315309
0.498667
0.656492
0.78537
0.916552
1.05966
1.14043
-0.0923264
0.316212
0.33418
0.523424
0.649135
0.761847
0.859044
0.945412
0.973164
0.930735
0.287505
0.502504
0.539058
0.6761
0.763215
0.844048
0.910632
0.960538
0.962848
0.976665
0.518852
0.663021
0.698584
0.801516
0.858601
0.917204
0.962339
0.994866
1.00404
1.02765
0.698278
0.800647
0.830444
0.899038
0.943466
0.985071
1.01741
1.04179
1.05168
1.0832
0.842555
0.911913
0.942325
0.985711
1.02198
1.05235
1.07682
1.09761
1.11186
1.14009
0.962333
1.0132
1.03886
1.06707
1.09495
1.11887
1.13896
1.15825
1.1732
1.19965
1.06649
1.10364
1.12484
1.14564
1.16659
1.18609
1.20356
1.22169
1.23656
1.2602
1.16075
1.18997
1.20639
1.22177
1.23798
1.2541
1.26966
1.28656
1.30015
1.32246
1.24926
1.26977
1.28469
1.29791
1.31151
1.32528
1.33876
1.35333
1.36488
1.38452
1.33488
1.3507
1.36453
1.37634
1.38822
1.39983
1.41095
1.42264
1.43031
1.44713
1.42017
1.43274
1.44643
1.45813
1.46873
1.4785
1.48732
1.49559
1.49915
1.51041
1.50889
1.51969
1.53315
1.54266
1.55021
1.55749
1.56468
1.57119
1.57226
1.57964
1.60724
1.6118
1.62
1.62477
1.62817
1.63266
1.63865
1.64635
1.65022
1.6601
1.72048
1.70738
1.7001
1.69438
1.69166
1.69302
1.6994
1.71177
1.72657
1.75623
1.84247
1.78645
1.75543
1.73824
1.73003
1.72999
1.73879
1.75837
1.79025
1.85949
)
;

boundaryField
{
    wall-4
    {
        type            zeroGradient;
    }
    pressure-outlet-7
    {
        type            fixedValue;
        value           uniform 0;
    }
    velocity-inlet-6
    {
        type            zeroGradient;
    }
    velocity-inlet-5
    {
        type            zeroGradient;
    }
    frontAndBackPlanes
    {
        type            empty;
    }
}


// ************************************************************************* //
