/*--------------------------------*- C++ -*----------------------------------*\
| =========                 |                                                 |
| \\      /  F ield         | OpenFOAM: The Open Source CFD Toolbox           |
|  \\    /   O peration     | Version:  4.0                                   |
|   \\  /    A nd           | Web:      www.OpenFOAM.org                      |
|    \\/     M anipulation  |                                                 |
\*---------------------------------------------------------------------------*/
FoamFile
{
    version     2.0;
    format      ascii;
    class       surfaceScalarField;
    location    "45";
    object      phi;
}
// * * * * * * * * * * * * * * * * * * * * * * * * * * * * * * * * * * * * * //

dimensions      [0 3 -1 0 0 0 0];

internalField   nonuniform List<scalar> 
4262
(
0.107137
0.470851
0.0955712
0.705152
0.0693833
0.858491
0.0473635
1.02078
0.0309924
1.21489
0.0198076
1.4494
0.012437
1.73323
0.00728191
2.07619
0.0033765
2.48915
-0.000189978
2.98586
-0.00377071
2.98587
-0.00769529
2.48917
-0.0128382
2.07618
-0.0200962
1.73312
-0.0310952
1.44922
-0.0472198
1.21464
-0.0690233
1.02057
-0.0952702
0.85855
-0.107085
0.7054
0.470904
0.112893
0.357957
0.135316
0.68273
0.12043
0.873377
0.0979038
1.04331
0.0746794
1.23811
0.05296
1.47112
0.0345162
1.75168
0.0202275
2.09048
0.00885959
2.50052
-0.0013626
2.99608
-0.0115463
2.99606
-0.0226793
2.5003
-0.0366778
2.09018
-0.0547652
1.75121
-0.0764154
1.47087
-0.1
1.23823
-0.123016
1.04358
-0.136787
0.872322
-0.113491
0.682104
0.357412
0.0920901
0.265867
0.125062
0.649758
0.12123
0.877209
0.104966
1.05957
0.0863151
1.25676
0.0672199
1.49022
0.0483705
1.77053
0.0304063
2.10844
0.0139682
2.51695
-0.00186673
3.01192
-0.0175466
3.01174
-0.0336869
2.51644
-0.0512347
2.10773
-0.0698548
1.76983
-0.088401
1.48942
-0.105834
1.25566
-0.120251
1.058
-0.125328
0.877399
-0.0923642
0.64914
0.265048
0.0640098
0.201857
0.104878
0.60889
0.106692
0.875395
0.0953359
1.07093
0.08141
1.27069
0.0666376
1.50499
0.0505234
1.78664
0.0334128
2.12555
0.0157018
2.53467
-0.00303641
3.03065
-0.0214776
3.03018
-0.0385652
2.53353
-0.0549908
2.12415
-0.070274
1.78511
-0.084173
1.50331
-0.0978687
1.26935
-0.109596
1.06973
-0.106731
0.874534
-0.0647665
0.607176
0.200282
0.0375335
0.164324
0.0808797
0.565544
0.0912482
0.865026
0.0841352
1.07804
0.0715857
1.28324
0.0597502
1.51683
0.0467394
1.79965
0.0318509
2.14044
0.0150894
2.55143
-0.00390128
3.04964
-0.0226389
3.04892
-0.0387563
2.54965
-0.0528043
2.1382
-0.0650867
1.79739
-0.0764869
1.51471
-0.0884711
1.28134
-0.0948057
1.07606
-0.0830604
0.862789
-0.0383269
0.562442
0.161955
0.019522
0.144802
0.0573571
0.527709
0.0727826
0.849601
0.0707209
1.0801
0.0620544
1.29191
0.0513235
1.52756
0.0401331
1.81084
0.0274974
2.15308
0.0123826
2.56654
-0.0053047
3.06733
-0.0225343
3.06614
-0.0367404
2.56385
-0.0483602
2.14982
-0.0584723
1.80751
-0.0681804
1.52442
-0.0758018
1.28896
-0.0767065
1.07697
-0.0597646
0.845847
-0.0203141
0.522992
0.141641
0.0106684
0.134134
0.0425122
0.495865
0.0588048
0.833308
0.0592055
1.0797
0.0530925
1.29802
0.0437922
1.53686
0.033544
1.82109
0.0222678
2.16436
0.00923845
2.57957
-0.0065404
3.08311
-0.0220197
3.08162
-0.0341059
2.57594
-0.0440031
2.15972
-0.0527991
1.8163
-0.0608602
1.53248
-0.065592
1.29369
-0.0637662
1.07514
-0.0455645
0.827645
-0.0116029
0.48903
0.130038
0.00661944
0.127514
0.0330786
0.469406
0.0493729
0.817014
0.0509348
1.07814
0.0459534
1.303
0.037683
1.54513
0.028186
1.83059
0.01743
2.17511
0.00539935
2.5916
-0.00843262
3.09694
-0.0216561
3.09485
-0.0323108
2.58659
-0.0415578
2.16896
-0.0493246
1.82407
-0.0559146
1.53907
-0.0592197
1.297
-0.0557817
1.0717
-0.0369035
0.808767
-0.00778634
0.459913
0.122251
0.00476823
0.122746
0.0268023
0.447372
0.042815
0.801001
0.0450223
1.07593
0.0404414
1.30758
0.0328961
1.55267
0.0240013
1.83948
0.0137587
2.18535
0.00232324
2.60304
-0.0103617
3.10963
-0.0222727
3.10676
-0.0321862
2.59651
-0.0403963
2.17717
-0.0473274
1.831
-0.0530008
1.54475
-0.0555676
1.29956
-0.0508062
1.06694
-0.0314734
0.789434
-0.00621042
0.43465
0.116041
0.00386023
0.118886
0.0220244
0.429207
0.0374668
0.785559
0.0404516
1.07295
0.0362266
1.31181
0.0289345
1.55997
0.0202291
1.84819
0.0103008
2.19528
-0.000805338
2.61414
-0.0129344
3.12176
-0.0242653
3.11809
-0.0333676
2.60561
-0.0408951
2.1847
-0.0470215
1.83713
-0.0517646
1.54949
-0.0532085
1.30101
-0.0470678
1.0608
-0.0275919
0.769958
-0.00556614
0.412624
0.110475
0.003081
0.115805
0.0176177
0.414671
0.031675
0.771501
0.0349286
1.0697
0.0312229
1.31551
0.0245544
1.56663
0.01639
1.85635
0.0066917
2.20498
-0.0044184
2.62525
-0.0163406
3.13368
-0.0270525
3.1288
-0.0354931
2.61405
-0.0421829
2.19139
-0.0475081
1.84245
-0.051257
1.55324
-0.0516149
1.30137
-0.0441376
1.05332
-0.0246454
0.750466
-0.00523719
0.393216
0.105238
0.00240876
0.113396
0.0140532
0.403026
0.0269194
0.758635
0.0302884
1.06633
0.0265695
1.31923
0.019888
1.57332
0.0117963
1.86444
0.00248451
2.21429
-0.00794159
2.63568
-0.0194676
3.14521
-0.0299877
3.13932
-0.0379394
2.622
-0.0436274
2.19708
-0.047845
1.84667
-0.0506573
1.55605
-0.0500983
1.30081
-0.0415239
1.04475
-0.0223108
0.731253
-0.0049932
0.375898
0.100244
0.00172994
0.111666
0.0105558
0.3942
0.0215092
0.747682
0.0244327
1.0634
0.0207306
1.32293
0.0141049
1.57994
0.00602996
1.87252
-0.0031519
2.22347
-0.0136531
2.64618
-0.0249563
3.15651
-0.0343132
3.14868
-0.0407029
2.62839
-0.0453702
2.20175
-0.0489395
1.85024
-0.0508142
1.55793
-0.049484
1.29948
-0.0399044
1.03517
-0.0207427
0.712091
-0.00484339
0.359999
0.0954009
0.000918854
0.110747
0.00724109
0.387878
0.0165265
0.738396
0.0188676
1.06106
0.0146271
1.32717
0.00762006
1.58695
-0.000520345
1.88066
-0.00960653
2.23256
-0.0192634
2.65584
-0.029442
3.16669
-0.0380634
3.1573
-0.0437355
2.63406
-0.0473774
2.20539
-0.0502863
1.85315
-0.0515318
1.55917
-0.0495148
1.29746
-0.0387726
1.02443
-0.0196143
0.692933
-0.00475994
0.345145
0.090641
0.000125443
0.110622
0.00401413
0.383989
0.0108136
0.731597
0.0122636
1.05961
0.00789518
1.33154
0.000654417
1.59419
-0.00791038
1.88922
-0.017082
2.24173
-0.027113
2.66587
-0.0375928
3.17717
-0.0452876
3.16499
-0.0493519
2.63813
-0.0519227
2.20796
-0.0536882
1.85491
-0.053642
1.55913
-0.0501531
1.29397
-0.0382166
1.01249
-0.0189179
0.673634
-0.00471255
0.330939
0.0859285
-0.000789277
0.111411
0.000489526
0.382711
0.00541757
0.726669
0.00604572
1.05898
0.00103716
1.33655
-0.00685177
1.60208
-0.0159937
1.89837
-0.0258585
2.2516
-0.0357217
2.67573
-0.044717
3.18616
-0.0512696
3.17155
-0.0548525
2.64171
-0.0565952
2.2097
-0.0575406
1.85586
-0.0567219
1.55831
-0.0518482
1.2891
-0.0382822
0.998924
-0.0186543
0.654006
-0.00475367
0.317039
0.0811748
-0.00165335
0.113064
-0.0026858
0.383743
-0.00100888
0.724992
-0.00220266
1.06018
-0.00778286
1.34213
-0.0159464
1.61024
-0.0256191
1.90804
-0.0360465
2.26202
-0.0466396
2.68633
-0.0560534
3.19558
-0.0618643
3.17736
-0.0641209
2.64397
-0.0644944
2.21007
-0.0634586
1.85482
-0.0607508
1.5556
-0.0541738
1.28252
-0.0392678
0.984018
-0.0191029
0.633841
-0.00501634
0.302952
0.0761584
-0.00298467
0.116049
-0.00639727
0.387156
-0.00812282
0.726718
-0.0108614
1.06292
-0.0174655
1.34873
-0.0266835
1.61946
-0.0370998
1.91846
-0.0482644
2.27319
-0.0589777
2.69704
-0.0673099
3.20391
-0.0713524
3.1814
-0.0723133
2.64493
-0.0712134
2.20897
-0.0697088
1.85332
-0.0661415
1.55203
-0.0575595
1.27394
-0.0408045
0.967263
-0.0197869
0.612824
-0.00528763
0.288453
0.0708708
-0.00439708
0.120446
-0.0108868
0.393646
-0.0161129
0.731944
-0.0220704
1.06887
-0.0298801
1.35654
-0.0398499
1.62943
-0.0511685
1.92977
-0.0630814
2.2851
-0.074549
2.70851
-0.0836798
3.21304
-0.087701
3.18542
-0.0873486
2.64458
-0.0842483
2.20587
-0.0794518
1.84852
-0.0730425
1.54562
-0.0623444
1.26324
-0.0434843
0.948403
-0.0211176
0.590457
-0.00575167
0.273087
0.0651192
-0.00580075
0.126247
-0.0158545
0.403699
-0.0251032
0.741192
-0.03337
1.07714
-0.0433213
1.3665
-0.0557378
1.64185
-0.0688239
1.94286
-0.0819174
2.2982
-0.0934859
2.72007
-0.10097
3.22052
-0.101584
3.18604
-0.0981215
2.64111
-0.0933078
2.20106
-0.0883639
1.84358
-0.081159
1.53842
-0.0679484
1.25003
-0.0464538
0.926908
-0.022539
0.566542
-0.00618269
0.256731
0.0589365
-0.00826302
0.13451
-0.0233812
0.418817
-0.0385272
0.756338
-0.05066
1.08927
-0.0622019
1.37804
-0.0759313
1.65558
-0.0907564
1.95769
-0.105267
2.31271
-0.117271
2.73208
-0.124186
3.22744
-0.123972
3.18582
-0.119327
2.63647
-0.112209
2.19394
-0.102943
1.83431
-0.091607
1.52708
-0.0751329
1.23355
-0.0506898
0.902465
-0.0247182
0.540571
-0.00678974
0.238802
0.0521467
-0.0107779
0.145288
-0.0308089
0.438849
-0.0516199
0.777149
-0.0681954
1.10585
-0.0832561
1.3931
-0.100271
1.67259
-0.117247
1.97466
-0.132913
2.32837
-0.144853
2.74402
-0.149941
3.23253
-0.14597
3.18185
-0.136667
2.62717
-0.126011
2.18329
-0.115914
1.82422
-0.103586
1.51475
-0.0839236
1.21389
-0.0559543
0.874496
-0.0273403
0.511957
-0.00739375
0.218856
0.044753
-0.0154567
0.160744
-0.0428061
0.466198
-0.0701899
0.804533
-0.0919073
1.12757
-0.110476
1.41167
-0.130339
1.69245
-0.149886
1.99421
-0.167312
2.3458
-0.179708
2.75641
-0.183499
3.23632
-0.177149
3.1755
-0.165929
2.61595
-0.153203
2.17056
-0.138068
1.80908
-0.120083
1.49677
-0.0957185
1.18953
-0.0633036
0.842081
-0.0308714
0.479524
-0.00812654
0.196111
0.0366264
-0.0196123
0.180357
-0.0557187
0.502304
-0.0924702
0.841284
-0.121059
1.15616
-0.145114
1.43572
-0.169667
1.71701
-0.191606
2.01615
-0.209247
2.36344
-0.219825
2.76699
-0.2201
3.23659
-0.209598
3.165
-0.19364
2.59999
-0.1759
2.15282
-0.158875
1.79206
-0.138966
1.47686
-0.109935
1.1605
-0.071949
0.804095
-0.0345748
0.44215
-0.0087688
0.170305
0.0278576
-0.0327048
0.213062
-0.081811
0.55141
-0.12834
0.887814
-0.163769
1.19158
-0.193746
1.4657
-0.221655
1.74492
-0.244729
2.03922
-0.261992
2.3807
-0.270558
2.77556
-0.266251
3.23229
-0.249744
3.14849
-0.22959
2.57983
-0.209655
2.13289
-0.187995
1.77039
-0.161203
1.45007
-0.125633
1.12493
-0.0813865
0.759849
-0.038419
0.399183
-0.0092196
0.141106
0.018638
-0.0473706
0.260432
-0.120815
0.624855
-0.182892
0.94989
-0.226209
1.2349
-0.261532
1.50102
-0.290605
1.77399
-0.311794
2.06041
-0.324845
2.39375
-0.326533
2.77725
-0.314659
3.22041
-0.292555
3.12639
-0.267493
2.55477
-0.241262
2.10665
-0.215233
1.74437
-0.185027
1.41986
-0.142798
1.0827
-0.0901835
0.707235
-0.0403354
0.349335
-0.00908644
0.109857
0.00955161
-0.0339245
0.294357
-0.0965898
0.68752
-0.153549
1.00685
-0.199951
1.2813
-0.24223
1.5433
-0.278955
1.81071
-0.312811
2.09427
-0.342366
2.42331
-0.363707
2.79859
-0.371234
3.22794
-0.35867
3.11382
-0.335475
2.53158
-0.308845
2.08002
-0.274973
1.71049
-0.22947
1.37436
-0.169043
1.02227
-0.0983707
0.636563
-0.0390089
0.289973
-0.00859624
0.0794439
0.000955365
-0.0125529
0.30691
-0.0470859
0.722053
-0.0883406
1.0481
-0.127041
1.32
-0.164851
1.58111
-0.198115
1.84398
-0.228729
2.12488
-0.253929
2.44851
-0.269218
2.81388
-0.267493
3.22621
-0.249886
3.09622
-0.223674
2.50536
-0.191042
2.04739
-0.156666
1.67612
-0.119317
1.33701
-0.0761631
0.979115
-0.0350505
0.59545
-0.0104938
0.265416
-0.00205602
0.0710061
-0.00110066
0.000509762
0.3064
-0.0236866
0.746249
-0.0528868
1.0773
-0.0828255
1.34994
-0.113728
1.61201
-0.143879
1.87413
-0.171241
2.15224
-0.193233
2.4705
-0.205979
2.82662
-0.205129
3.22536
-0.18585
3.07694
-0.155413
2.47493
-0.12363
2.01561
-0.0896637
1.64215
-0.0520552
1.2994
-0.0162221
0.943282
0.00555589
0.573672
0.00769417
0.263278
0.00244484
0.0762555
0.00134418
0.00101491
0.305385
-0.012343
0.759607
-0.034022
1.09898
-0.0587642
1.37468
-0.0843874
1.63763
-0.10945
1.89919
-0.132748
2.17554
-0.151188
2.48894
-0.160379
2.83581
-0.154832
3.21982
-0.133961
3.05607
-0.1078
2.44877
-0.0768384
1.98465
-0.0420028
1.60732
-0.012522
1.26992
0.00914311
0.921616
0.0185651
0.56425
0.0138212
0.268022
0.00444242
0.0856342
0.0057866
0.00408932
0.301296
-0.00504208
0.768739
-0.0233654
1.11731
-0.0443197
1.39564
-0.0661489
1.65946
-0.0877837
1.92083
-0.108017
2.19578
-0.124241
2.50516
-0.133412
2.84499
-0.129965
3.21637
-0.111723
3.03783
-0.0846918
2.42174
-0.0543062
1.95426
-0.0260276
1.57904
0.00280855
1.24109
0.0226006
0.901824
0.0257537
0.561097
0.0165401
0.277235
0.00512136
0.097053
0.010908
0.00525286
0.296043
-0.000789377
0.774781
-0.0170992
1.13362
-0.0360005
1.41454
-0.0554969
1.67896
-0.0746036
1.93993
-0.092676
2.21385
-0.10755
2.52004
-0.115415
2.85285
-0.110874
3.21183
-0.0947934
3.02174
-0.0739886
2.40093
-0.046849
1.92712
-0.0164121
1.5486
0.00715891
1.21751
0.0225773
0.886406
0.0246142
0.55906
0.0152275
0.286622
0.00474759
0.107533
0.0156555
0.0038469
0.292196
-0.000610001
0.779238
-0.014202
1.14721
-0.0312997
1.43164
-0.0490356
1.6967
-0.0667675
1.95766
-0.083703
2.23078
-0.0977465
2.53408
-0.105796
2.8609
-0.104938
3.21097
-0.0915931
3.0084
-0.067405
2.37674
-0.0424118
1.90213
-0.0192743
1.52546
0.00456174
1.19368
0.0189584
0.872009
0.0198
0.558219
0.0122265
0.294196
0.00375315
0.116006
0.0194087
0.00265003
0.289546
-0.000976366
0.782864
-0.0134191
1.15965
-0.0290713
1.44729
-0.0458422
1.71347
-0.0624209
1.97424
-0.0783289
2.24669
-0.0920161
2.54777
-0.100796
2.86968
-0.100267
3.21044
-0.0862211
2.99435
-0.0673992
2.35792
-0.0455103
1.88024
-0.0204201
1.50037
-0.000625726
1.17388
0.0108751
0.860508
0.013589
0.555505
0.00799829
0.299786
0.00247004
0.121535
0.0218787
0.000165381
0.28938
-0.00346245
0.786492
-0.0143806
1.17057
-0.0283695
1.46128
-0.0440317
1.72913
-0.0599752
1.99019
-0.0757523
2.26247
-0.0900613
2.56208
-0.100185
2.8798
-0.100733
3.21099
-0.0904921
2.98411
-0.0722342
2.33966
-0.0499435
1.85795
-0.0293344
1.47976
-0.0100629
1.15461
0.00263398
0.847812
0.00481505
0.553324
0.00344198
0.301159
0.00129911
0.123677
0.0231778
-0.000497356
0.289878
-0.00519617
0.791191
-0.0154055
1.18078
-0.028575
1.47445
-0.043604
1.74416
-0.0590499
2.00563
-0.0746633
2.27808
-0.0890091
2.57642
-0.0992341
2.89003
-0.101625
3.21338
-0.0930921
2.97558
-0.0763272
2.3229
-0.0568674
1.83849
-0.0353038
1.4582
-0.0191212
1.13843
-0.00830641
0.836997
-0.00217893
0.547196
-0.00155459
0.300535
-0.000331263
0.122454
0.0228466
-0.00204
0.291918
-0.00738213
0.796533
-0.0169577
1.19035
-0.0292203
1.48671
-0.0434525
1.75839
-0.0585586
2.02074
-0.0742279
2.29375
-0.089348
2.59154
-0.101946
2.90263
-0.107656
3.21909
-0.0991882
2.96711
-0.0831724
2.30688
-0.0626797
1.818
-0.0450164
1.44054
-0.0274568
1.12087
-0.0147874
0.824327
-0.00844358
0.540852
-0.00381109
0.295903
-0.000966752
0.11961
0.0218798
-0.00347909
0.295397
-0.00884651
0.8019
-0.0181106
1.19962
-0.0299754
1.49858
-0.0437274
1.77214
-0.0584529
2.03546
-0.0741699
2.30947
-0.0898904
2.60726
-0.102933
2.91567
-0.109049
3.22521
-0.103645
2.96171
-0.0887374
2.29197
-0.0716913
1.80095
-0.0513646
1.42021
-0.0352148
1.10472
-0.0225627
0.811675
-0.0128051
0.531095
-0.00654064
0.289638
-0.00174515
0.114814
0.0201347
-0.0041826
0.299579
-0.0102265
0.807944
-0.0193308
1.20872
-0.0306357
1.50988
-0.043776
1.78528
-0.0582366
2.04993
-0.0741222
2.32535
-0.0904952
2.62364
-0.105575
2.93075
-0.11591
3.23554
-0.112726
2.95852
-0.0982626
2.27751
-0.0771484
1.77984
-0.0588371
1.4019
-0.0409638
1.08685
-0.02681
0.797521
-0.0169186
0.521203
-0.00747095
0.280191
-0.00197053
0.109314
0.0181641
-0.00433737
0.303917
-0.0108729
0.81448
-0.0199577
1.21781
-0.0310294
1.52095
-0.0438844
1.79814
-0.0580775
2.06412
-0.0739746
2.34125
-0.0908692
2.64053
-0.106894
2.94677
-0.117853
3.2465
-0.116923
2.95759
-0.104984
2.26557
-0.0874292
1.76228
-0.064517
1.37899
-0.046398
1.06873
-0.0313976
0.782521
-0.0180201
0.507826
-0.00829652
0.270467
-0.00196722
0.102985
0.0161969
-0.00440885
0.308326
-0.0114678
0.821539
-0.020502
1.22684
-0.0311845
1.53164
-0.0435874
1.81054
-0.0575422
2.07807
-0.0735124
2.35722
-0.0909441
2.65796
-0.108619
2.96445
-0.123195
3.26107
-0.126084
2.96048
-0.114931
2.25442
-0.0927797
1.74013
-0.0712499
1.35746
-0.0491397
1.04662
-0.0318413
0.765223
-0.0190138
0.494998
-0.00759804
0.259051
-0.00160663
0.0969931
0.0145903
-0.00446007
0.312786
-0.0116349
0.828714
-0.0204971
1.2357
-0.0309797
1.54212
-0.0431664
1.82273
-0.0568816
2.09179
-0.0727973
2.37314
-0.0906433
2.67581
-0.109191
2.983
-0.124757
3.27664
-0.129956
2.96568
-0.120812
2.24527
-0.103822
1.72314
-0.0771215
1.33076
-0.0520754
1.02157
-0.0307476
0.743895
-0.0142169
0.478468
-0.00511902
0.249953
-0.000555055
0.0924291
0.0140352
-0.00453469
0.31732
-0.0118129
0.835992
-0.0204696
1.24436
-0.0305754
1.55222
-0.0423337
1.83448
-0.0558017
2.10526
-0.0717244
2.38906
-0.0899331
2.69402
-0.109656
3.00272
-0.128045
3.29503
-0.137193
2.97483
-0.130989
2.23907
-0.110106
1.70226
-0.0842945
1.30495
-0.0525146
0.989792
-0.0254451
0.716825
-0.00727274
0.460295
0.000345528
0.242335
-0.00183393
0.0946086
0.0122013
-0.00452602
0.321846
-0.0116712
0.843137
-0.0200286
1.25272
-0.0298608
1.56206
-0.0413683
1.84599
-0.0545961
2.11848
-0.0703905
2.40485
-0.0887673
2.71239
-0.109047
3.023
-0.128664
3.31465
-0.139843
2.98601
-0.136857
2.23608
-0.122527
1.68793
-0.0921759
1.27459
-0.0552128
0.952829
-0.0157352
0.677348
0.0188299
0.42573
0.0334121
0.227753
0.0244651
0.103556
0.0366664
-0.00444183
0.326288
-0.011519
0.850214
-0.0196281
1.26083
-0.0290513
1.57148
-0.0400979
1.85704
-0.0530202
2.13141
-0.0686716
2.4205
-0.0871566
2.73088
-0.10824
3.04408
-0.130107
3.33651
-0.144193
3.0001
-0.146472
2.23836
-0.130038
1.67149
-0.101998
1.24655
-0.0567764
0.907608
-0.00895424
0.629526
0.0372618
0.379514
0.0442594
0.220755
0.0193573
0.128458
0.0560237
-0.00426441
0.330553
-0.0111271
0.857077
-0.018901
1.2686
-0.0279863
1.58056
-0.0387613
1.86781
-0.0513859
2.14403
-0.0667939
2.43591
-0.0852664
2.74935
-0.106682
3.0655
-0.129492
3.35932
-0.146019
3.01662
-0.151268
2.24361
-0.144289
1.66451
-0.115613
1.21788
-0.0696211
0.861615
0.00391676
0.555988
0.104675
0.278756
0.186826
0.138603
0.18032
0.134965
0.236343
-0.00413355
0.334686
-0.0109536
0.863897
-0.0186954
1.27634
-0.0277186
1.58959
-0.0385638
1.87866
-0.0515922
2.15706
-0.0678876
2.45221
-0.0879216
2.76939
-0.11207
3.08965
-0.13959
3.38684
-0.162157
3.03919
-0.173978
2.25543
-0.167765
1.6583
-0.144298
1.19441
-0.0933559
0.810673
-0.0394752
0.502107
-0.0809715
0.320253
-0.359396
0.417028
-0.938815
0.714383
0.898891
-1.60136
-0.0039479
0.338634
-0.0105518
0.870501
-0.0180478
1.28384
-0.0269256
1.59847
-0.0377243
1.88946
-0.0508682
2.1702
-0.0675418
2.46888
-0.0884577
2.7903
-0.114251
3.11544
-0.144884
3.41748
-0.172799
3.0671
-0.18973
2.27236
-0.201373
1.66994
-0.190449
1.18349
-0.169831
0.790055
-0.257009
0.589285
-0.692831
0.756075
-1.43538
1.15958
-2.04466
1.32367
1.21755
-2.36332
-0.00374551
0.34238
-0.0101359
0.876891
-0.0174395
1.29114
-0.0260873
1.60711
-0.036671
1.90004
-0.0498498
2.18338
-0.0668845
2.48592
-0.0886287
2.81205
-0.11629
3.1431
-0.150845
3.45203
-0.184421
3.10068
-0.21191
2.29985
-0.225557
1.68359
-0.222284
1.18021
-0.309306
0.877077
-0.753194
1.03317
-1.53608
1.53896
-2.10593
1.72943
-2.34628
1.56401
1.33225
-2.46098
-0.00355486
0.345934
-0.00958713
0.882924
-0.0165602
1.29812
-0.0249979
1.61555
-0.0354712
1.91051
-0.0487004
2.19661
-0.0659969
2.50321
-0.0884952
2.83454
-0.117795
3.1724
-0.155747
3.48998
-0.19626
3.14119
-0.228854
2.33245
-0.261155
1.71589
-0.345773
1.26483
-0.690945
1.22225
-1.43192
1.77415
-2.02374
2.13078
-2.26427
1.96997
-2.37797
1.67771
1.39705
-2.44277
-0.00329265
0.349227
-0.00898662
0.888618
-0.0156855
1.30481
-0.0238345
1.6237
-0.0341014
1.92078
-0.0472787
2.20979
-0.0647938
2.52073
-0.0879715
2.85772
-0.118973
3.2034
-0.160614
3.53162
-0.207295
3.18787
-0.253813
2.37897
-0.30091
1.76299
-0.481693
1.44561
-1.09074
1.83129
-1.78303
2.46645
-2.10635
2.45409
-2.25543
2.11905
-2.33778
1.76006
1.46282
-2.40355
-0.00322402
0.352451
-0.00879311
0.894187
-0.015406
1.31143
-0.0236051
1.6319
-0.0341657
1.93134
-0.0476636
2.22329
-0.0656731
2.53874
-0.089779
2.88183
-0.122447
3.23607
-0.167641
3.57682
-0.22195
3.24218
-0.271146
2.42816
-0.363169
1.85501
-0.750578
1.83302
-1.48634
2.56706
-1.96215
2.94225
-2.16247
2.65441
-2.26897
2.22555
-2.34602
1.83711
1.52659
-2.40979
-0.00331686
0.355768
-0.0091665
0.900036
-0.0161968
1.31846
-0.0248008
1.6405
-0.0357861
1.94233
-0.0498845
2.23738
-0.0687676
2.55762
-0.0941062
2.90717
-0.128789
3.27075
-0.177786
3.62582
-0.235303
3.2997
-0.301059
2.49392
-0.491571
2.04552
-1.04483
2.38629
-1.67484
3.19707
-1.95281
3.22023
-2.10021
2.80181
-2.21428
2.33962
-2.30786
1.93069
1.58846
-2.36973
-0.00336707
0.359135
-0.00949198
0.906161
-0.0168484
1.32581
-0.0259399
1.64959
-0.037521
1.95391
-0.0523365
2.2522
-0.0721095
2.57739
-0.0987291
2.93379
-0.135251
3.30728
-0.187772
3.67834
-0.252213
3.36414
-0.340593
2.5823
-0.621654
2.32658
-1.26116
3.02579
-1.75185
3.68776
-1.95939
3.42777
-2.10003
2.94245
-2.22407
2.46366
-2.33503
2.04165
1.64718
-2.39375
-0.00335237
0.362487
-0.00978189
0.912591
-0.0176969
1.33373
-0.0272934
1.65919
-0.0393284
1.96594
-0.054783
2.26766
-0.075483
2.59809
-0.103357
2.96166
-0.141824
3.34574
-0.197062
3.73358
-0.265188
3.43227
-0.391565
2.70868
-0.775588
2.71061
-1.40699
3.65719
-1.76254
4.0433
-1.93617
3.6014
-2.03866
3.04494
-2.12776
2.55276
-2.19566
2.10955
1.64021
-2.18869
-0.00327996
0.365767
-0.00996026
0.919271
-0.0182099
1.34198
-0.0283581
1.66934
-0.0411114
1.9787
-0.0573648
2.28391
-0.0789965
2.61973
-0.108164
2.99083
-0.148368
3.38595
-0.205947
3.79115
-0.28612
3.51244
-0.456541
2.8791
-0.905353
3.15942
-1.46072
4.21256
-1.72376
4.30635
-1.87669
3.75433
-1.97045
3.13869
-1.9727
2.55502
-1.90492
2.04177
1.60706
-1.87177
-0.00307392
0.368841
-0.0100029
0.9262
-0.0188499
1.35083
-0.0294626
1.67995
-0.0425345
1.99177
-0.0591536
2.30053
-0.0812055
2.64178
-0.110729
3.02035
-0.15137
3.42659
-0.207775
3.84756
-0.293467
3.59813
-0.498501
3.08413
-0.984789
3.64571
-1.42724
4.65501
-1.59442
4.47353
-1.66247
3.82239
-1.66755
3.14377
-1.52061
2.40808
-1.02091
1.54206
0.586148
-0.00263557
0.371477
-0.00982519
0.93339
-0.01897
1.35997
-0.030277
1.69126
-0.0444925
2.00598
-0.0625248
2.31856
-0.0864452
2.6657
-0.118667
3.05257
-0.163117
3.47104
-0.226574
3.91102
-0.331274
3.70283
-0.584902
3.33776
-1.12029
4.1811
-1.48079
5.01551
-1.58104
4.57377
-1.57929
3.82063
-1.47676
3.04125
-1.23761
2.16893
-0.635613
0.940064
-0.0494651
-0.00212009
0.373597
-0.00928818
0.940558
-0.0191021
1.36978
-0.0311459
1.7033
-0.046109
2.02095
-0.0653251
2.33778
-0.0910674
2.69144
-0.125903
3.08741
-0.174784
3.51992
-0.243948
3.98018
-0.365715
3.8246
-0.678481
3.65052
-1.23641
4.73903
-1.5005
5.2796
-1.56015
4.63343
-1.53933
3.79981
-1.33734
2.83925
-0.787441
1.61903
-0.110878
0.263501
-0.160343
-0.00159946
0.375196
-0.00846978
0.947428
-0.0182598
1.37957
-0.0309131
1.71596
-0.0469849
2.03702
-0.0676066
2.3584
-0.0952486
2.71908
-0.132875
3.12503
-0.185134
3.57218
-0.263004
4.05805
-0.41246
3.97405
-0.781991
4.02005
-1.31616
5.2732
-1.49475
5.45818
-1.52613
4.66481
-1.43873
3.71241
-1.10611
2.50663
-0.317387
0.830314
0.0261843
-0.0800707
-0.134158
-0.000607402
0.375804
-0.00673618
0.953557
-0.017105
1.38994
-0.0304916
1.72934
-0.0471101
2.05364
-0.0687812
2.38007
-0.098096
2.7484
-0.138008
3.16495
-0.193297
3.62747
-0.279363
4.14412
-0.452328
4.14702
-0.885154
4.45288
-1.35876
5.7468
-1.47737
5.5768
-1.48088
4.66832
-1.26131
3.49284
-0.694308
1.93963
-0.0637037
0.199709
0.0313454
-0.17512
-0.102813
0.000649928
0.375154
-0.00431078
0.958517
-0.01435
1.39998
-0.02819
1.74318
-0.045642
2.07109
-0.0685798
2.40301
-0.0995539
2.77937
-0.141737
3.20713
-0.199757
3.68549
-0.294907
4.23927
-0.497232
4.34934
-0.97911
4.93476
-1.35639
6.12408
-1.42159
5.642
-1.37852
4.62526
-1.0893
3.20361
-0.329949
1.18028
0.00260438
-0.132844
0.014261
-0.186776
-0.088552
0.00309692
0.372057
0.000174536
0.96144
-0.0106932
1.41085
-0.025146
1.75764
-0.0426562
2.0886
-0.0663899
2.42674
-0.0984941
2.81148
-0.142216
3.25085
-0.202986
3.74626
-0.3059
4.34218
-0.529426
4.57287
-1.03644
5.44177
-1.31597
6.40361
-1.35775
5.68378
-1.22338
4.49088
-0.783707
2.76394
-0.0772129
0.473786
0.0463265
-0.256383
0.0258809
-0.166331
-0.0626711
0.00505776
0.366999
0.0036288
0.962869
-0.00534782
1.41983
-0.0189568
1.77124
-0.0368365
2.10648
-0.0613951
2.4513
-0.0944671
2.84455
-0.139588
3.29597
-0.202312
3.80898
-0.312506
4.45237
-0.567663
4.82803
-1.05882
5.93292
-1.25214
6.59693
-1.26458
5.69623
-1.05034
4.27663
-0.467994
2.1816
-0.00997259
0.0157649
0.00163341
-0.267989
0.0104042
-0.175101
-0.052267
0.00836305
0.358636
0.00963487
0.961597
0.00234638
1.42712
-0.0107637
1.78435
-0.0285025
2.12422
-0.0530903
2.47589
-0.0861748
2.87763
-0.1312
3.341
-0.195389
3.87317
-0.311796
4.56878
-0.583437
5.09967
-1.03283
6.38231
-1.15685
6.72095
-1.14495
5.68433
-0.892056
4.02374
-0.271232
1.56078
-0.0644949
-0.190972
-0.0353464
-0.297138
-0.0112963
-0.199152
-0.0635632
0.0119646
0.346672
0.0173318
0.95623
0.0130693
1.43138
0.00250949
1.79491
-0.0157633
2.14249
-0.0396552
2.49978
-0.0721164
2.91009
-0.11691
3.38579
-0.180956
3.93721
-0.299762
4.68759
-0.580092
5.38
-0.966061
6.76828
-1.03752
6.79241
-0.972488
5.61931
-0.695949
3.7472
-0.103654
0.968482
-0.0276628
-0.266963
-0.0253345
-0.299466
-0.00975094
-0.214735
-0.0733142
0.0179635
0.328708
0.029144
0.945049
0.0275934
1.43293
0.017542
1.80497
0.001047
2.15899
-0.0206033
2.52143
-0.0512183
2.94071
-0.0936884
3.42826
-0.155433
3.99896
-0.273745
4.8059
-0.537669
5.64392
-0.849854
7.08047
-0.885335
6.82789
-0.790478
5.52445
-0.46223
3.41895
0.029355
0.476898
0.0455607
-0.283169
0.0283339
-0.282239
0.00907322
-0.195474
-0.064241
0.0244045
0.304304
0.0430176
0.926436
0.0469124
1.42903
0.0402664
1.81161
0.0277432
2.17151
0.0076369
2.54153
-0.0206137
2.96896
-0.0598421
3.46749
-0.117742
4.05686
-0.22783
4.91599
-0.457347
5.87344
-0.684986
7.30811
-0.728644
6.87155
-0.617912
5.41372
-0.287582
3.08862
0.0160516
0.173264
0.027274
-0.294391
0.0336799
-0.288645
0.0184506
-0.180245
-0.0457904
0.0339236
0.27038
0.0629291
0.897431
0.0732415
1.41872
0.0707146
1.81414
0.0615717
2.18065
0.0445613
2.55855
0.0203674
2.99315
-0.0139268
3.50178
-0.0635307
4.10646
-0.155116
5.00757
-0.331567
6.04989
-0.48229
7.45883
-0.530714
6.91997
-0.450508
5.33351
-0.13859
2.7767
-0.0221295
0.0568034
-0.0119452
-0.304576
0.023509
-0.3241
0.041015
-0.197751
-0.00477541
0.0435024
0.226878
0.0856015
0.855331
0.105938
1.39839
0.110449
1.80963
0.106484
2.18462
0.0943233
2.57071
0.0767007
3.01077
0.0504386
3.52805
0.00638468
4.15052
-0.052862
5.06682
-0.170265
6.1673
-0.25004
7.53861
-0.274608
6.94454
-0.289673
5.34858
-0.169504
2.65653
-0.281532
0.168831
-0.246053
-0.340055
-0.121202
-0.448951
0.00953065
-0.328483
0.00475526
0.0551819
0.171696
0.11528
0.795234
0.149778
1.36389
0.162108
1.7973
0.16403
2.1827
0.1572
2.57754
0.14697
3.021
0.131483
3.54353
0.109892
4.17211
0.0783066
5.0984
0.0637518
6.18185
0.0452362
7.55712
-0.0230959
7.01287
-0.186867
5.51235
-0.406036
2.8757
-0.693018
0.455814
-0.676539
-0.356535
-0.484448
-0.641042
-0.222545
-0.590387
-0.217789
0.058687
0.113009
0.144935
0.708985
0.199269
1.30955
0.225311
1.77126
0.236799
2.17121
0.238015
2.57632
0.236899
3.02212
0.233752
3.54668
0.232076
4.17378
0.236729
5.09375
0.332626
6.08595
0.43509
7.45466
0.413899
7.03406
0.305177
5.62107
-0.0925204
3.2734
-0.595312
0.958605
-0.796693
-0.155153
-0.64715
-0.790584
-0.359398
-0.878139
-0.577187
0.0510356
0.0619731
0.174905
0.585116
0.262774
1.22168
0.305026
1.729
0.326412
2.14982
0.337591
2.56514
0.345428
3.01428
0.358676
3.53343
0.384844
4.14761
0.437331
5.04126
0.667164
5.85612
0.994748
7.12707
1.26619
6.76261
1.45344
5.43383
1.09534
3.6315
0.441567
1.61237
-0.0490995
0.335513
-0.285147
-0.554536
-0.236517
-0.926769
-0.813705
0.0364492
0.0255239
0.206511
0.415054
0.325687
1.10251
0.3977
1.65699
0.435546
2.11198
0.459132
2.54156
0.475342
2.99807
0.501797
3.50698
0.553705
4.09571
0.670091
4.92488
1.02761
5.4986
1.65756
6.49712
2.05507
6.3651
2.32218
5.16672
2.1842
3.76948
1.61293
2.18365
1.08613
0.862314
0.48797
0.0436223
0.152468
-0.591266
-0.661237
0.0313706
-0.00584666
0.227698
0.218727
0.412005
0.918202
0.511949
1.55705
0.563942
2.05998
0.601466
2.50403
0.628725
2.97081
0.667244
3.46846
0.744679
4.01827
0.90018
4.76938
1.31963
5.07916
2.08581
5.73093
2.48472
5.9662
2.68789
4.96355
2.61842
3.83895
2.13518
2.66688
1.53355
1.46395
0.9936
0.58357
0.428687
-0.0263534
-0.23255
0.0283556
-0.0342023
0.180395
0.0666873
0.463669
0.634928
0.635253
1.38546
0.716017
1.97922
0.762647
2.4574
0.801359
2.9321
0.840612
3.4292
0.913308
3.94558
1.05684
4.62584
1.36269
4.77331
2.08725
5.00637
2.4434
5.61005
2.58415
4.82279
2.51307
3.91003
2.17523
3.00473
1.601
2.03818
1.00933
1.17523
0.415988
0.566992
0.183439
0.0110969
-0.0452992
0.0950829
-0.0172988
0.4038
0.326211
0.634669
1.15459
0.746184
1.8677
0.77942
2.42417
0.78973
2.92179
0.779125
3.43981
0.773463
3.95124
0.809575
4.58973
0.894443
4.68844
1.21787
4.68294
1.43971
5.38821
1.43961
4.8229
1.36252
3.98712
1.18875
3.17849
0.883575
2.34335
0.550121
1.50869
0.231912
0.885201
0.41535
-0.00278071
-0.0425185
0.0372399
-0.0573193
0.240364
0.123088
0.475433
0.919524
0.591012
1.75212
0.632092
2.38309
0.649344
2.90454
0.645901
3.44325
0.633924
3.96322
0.635307
4.58835
0.674051
4.6497
0.863798
4.4932
1.07743
5.17457
1.07476
4.82557
1.0049
4.05698
0.875202
3.30819
0.66393
2.55463
0.405538
1.76708
0.160961
1.12978
0.576312
0.0114752
-0.0539937
0.0497269
-0.095571
0.147193
0.025622
0.341247
0.72547
0.447856
1.64551
0.488205
2.34274
0.502075
2.89067
0.506001
3.43933
0.498833
3.97038
0.492105
4.59508
0.502465
4.63934
0.618799
4.37686
0.773073
5.0203
0.774667
4.82398
0.706909
4.12473
0.602702
3.4124
0.453677
2.70365
0.268336
1.95242
0.0968649
1.30125
0.673177
0.0328473
-0.086841
0.0814277
-0.144151
0.119659
-0.0126091
0.220338
0.624791
0.300564
1.56529
0.342091
2.30121
0.35957
2.87319
0.371246
3.42765
0.374001
3.96763
0.372045
4.59703
0.36685
4.64453
0.428257
4.31546
0.536884
4.91167
0.53543
4.82543
0.473221
4.18694
0.39304
3.49258
0.289221
2.80747
0.162327
2.07932
0.0458129
1.41776
0.71899
0.0403941
-0.127235
0.0797704
-0.183528
0.0623941
0.0047672
0.0741434
0.613041
0.129058
1.51037
0.176827
2.25344
0.210378
2.83964
0.237591
3.40044
0.259802
3.94542
0.269005
4.58783
0.261058
4.65248
0.286543