/*--------------------------------*- C++ -*----------------------------------*\
| =========                 |                                                 |
| \\      /  F ield         | OpenFOAM: The Open Source CFD Toolbox           |
|  \\    /   O peration     | Version:  4.0                                   |
|   \\  /    A nd           | Web:      www.OpenFOAM.org                      |
|    \\/     M anipulation  |                                                 |
\*---------------------------------------------------------------------------*/
FoamFile
{
    version     2.0;
    format      ascii;
    class       volVectorField;
    location    "45";
    object      U;
}
// * * * * * * * * * * * * * * * * * * * * * * * * * * * * * * * * * * * * * //

dimensions      [0 1 -1 0 0 0 0];

internalField   nonuniform List<vector> 
2200
(
(0.878844 -0.0304136 0)
(1.00579 -0.0512804 0)
(1.00329 -0.0353993 0)
(1.00026 -0.0244329 0)
(0.999866 -0.0166607 0)
(1.00004 -0.0107319 0)
(1.00004 -0.00686163 0)
(1.00004 -0.00423322 0)
(1.00003 -0.0022674 0)
(1.00017 -0.000727971 0)
(1.00005 0.000890315 0)
(0.999994 0.00244541 0)
(1.00001 0.00441939 0)
(1.00013 0.00702993 0)
(1.00014 0.0108298 0)
(0.999923 0.0166579 0)
(1.00028 0.0244026 0)
(1.00349 0.0349821 0)
(1.00595 0.0513607 0)
(0.879008 0.030325 0)
(0.712007 -0.0327669 0)
(0.996636 -0.0630277 0)
(1.03332 -0.0561658 0)
(1.02493 -0.0464489 0)
(1.01589 -0.0361407 0)
(1.00963 -0.0264333 0)
(1.00591 -0.0181717 0)
(1.00373 -0.0114415 0)
(1.00254 -0.00604979 0)
(1.00198 -0.0015073 0)
(1.002 0.00270292 0)
(1.00254 0.00719887 0)
(1.00371 0.0124541 0)
(1.0057 0.019039 0)
(1.00937 0.0271515 0)
(1.01562 0.0368933 0)
(1.0247 0.0473005 0)
(1.0331 0.0576697 0)
(0.996665 0.0631568 0)
(0.711793 0.0329947 0)
(0.53547 -0.0239015 0)
(0.969869 -0.0569563 0)
(1.05641 -0.0547785 0)
(1.05219 -0.0488019 0)
(1.03617 -0.0404786 0)
(1.02438 -0.0322965 0)
(1.01585 -0.0240818 0)
(1.01038 -0.0162206 0)
(1.0072 -0.00898611 0)
(1.00568 -0.00237507 0)
(1.00559 0.00395686 0)
(1.00703 0.0104784 0)
(1.01011 0.0175462 0)
(1.0155 0.0252009 0)
(1.0241 0.0333747 0)
(1.03605 0.0413185 0)
(1.0521 0.0493797 0)
(1.05633 0.0536258 0)
(0.96922 0.057581 0)
(0.534409 0.0239352 0)
(0.392212 -0.0136512 0)
(0.911748 -0.0464075 0)
(1.05743 -0.046914 0)
(1.06958 -0.04435 0)
(1.05492 -0.0382224 0)
(1.03934 -0.0315315 0)
(1.02751 -0.0247176 0)
(1.01905 -0.0175299 0)
(1.0137 -0.0100611 0)
(1.01107 -0.00248557 0)
(1.01099 0.00506333 0)
(1.01346 0.0124348 0)
(1.01856 0.0195874 0)
(1.02693 0.02652 0)
(1.03851 0.0328933 0)
(1.05397 0.0393713 0)
(1.06832 0.0454497 0)
(1.0557 0.0481224 0)
(0.9101 0.0469123 0)
(0.390132 0.0137549 0)
(0.307517 -0.00452297 0)
(0.846519 -0.0324215 0)
(1.04924 -0.0400155 0)
(1.07934 -0.0383145 0)
(1.0681 -0.0336766 0)
(1.05165 -0.0280868 0)
(1.03825 -0.0226962 0)
(1.02805 -0.0166332 0)
(1.02103 -0.00977779 0)
(1.01716 -0.00225409 0)
(1.01686 0.00557932 0)
(1.02031 0.0129145 0)
(1.02718 0.0194496 0)
(1.03717 0.0251474 0)
(1.05046 0.0302354 0)
(1.0669 0.0355881 0)
(1.07792 0.0399604 0)
(1.04734 0.0415756 0)
(0.84318 0.0329312 0)
(0.304086 0.00470975 0)
(0.264021 9.11649e-05 0)
(0.78869 -0.0201204 0)
(1.03316 -0.0315503 0)
(1.08342 -0.0321144 0)
(1.07723 -0.0288694 0)
(1.06076 -0.0240693 0)
(1.04714 -0.0195993 0)
(1.03624 -0.0144967 0)
(1.02839 -0.00841969 0)
(1.024 -0.00142795 0)
(1.0238 0.00596745 0)
(1.02765 0.0125976 0)
(1.03493 0.0182842 0)
(1.04548 0.0229516 0)
(1.05877 0.026915 0)
(1.07496 0.0312482 0)
(1.08052 0.0340071 0)
(1.02948 0.0331305 0)
(0.783193 0.0206869 0)
(0.259285 9.86983e-05 0)
(0.239986 0.00105829 0)
(0.737907 -0.0123202 0)
(1.0135 -0.0251023 0)
(1.08387 -0.0269566 0)
(1.08275 -0.0246822 0)
(1.06764 -0.0205585 0)
(1.05423 -0.0166118 0)
(1.0434 -0.0121275 0)
(1.03526 -0.00680634 0)
(1.03034 -0.000532016 0)
(1.0297 0.00614979 0)
(1.03375 0.0121579 0)
(1.04138 0.0169242 0)
(1.05181 0.0208098 0)
(1.06494 0.024204 0)
(1.07977 0.0277517 0)
(1.08034 0.0294157 0)
(1.00812 0.026982 0)
(0.729765 0.0130559 0)
(0.233765 -0.000862899 0)
(0.225583 0.000951979 0)
(0.694827 -0.00807754 0)
(0.992408 -0.0208065 0)
(1.08181 -0.0231787 0)
(1.08668 -0.0213898 0)
(1.07317 -0.0178649 0)
(1.05971 -0.0140856 0)
(1.04917 -0.00986917 0)
(1.04123 -0.00496764 0)
(1.03645 0.000683799 0)
(1.03602 0.00658612 0)
(1.0397 0.0117767 0)
(1.04653 0.0160044 0)
(1.05635 0.0195279 0)
(1.06949 0.0225622 0)
(1.08216 0.0253537 0)
(1.07601 0.0264065 0)
(0.984036 0.0231767 0)
(0.683117 0.00903232 0)
(0.217543 -0.000732 0)
(0.215937 0.000615794 0)
(0.659404 -0.00572749 0)
(0.97234 -0.0177866 0)
(1.07925 -0.0204433 0)
(1.0898 -0.0188853 0)
(1.07787 -0.015768 0)
(1.06452 -0.012184 0)
(1.05409 -0.0081292 0)
(1.04628 -0.00341499 0)
(1.04125 0.00178395 0)
(1.04021 0.00713318 0)
(1.04357 0.0118028 0)
(1.05052 0.0156848 0)
(1.06013 0.0188276 0)
(1.07294 0.0216367 0)
(1.08412 0.023938 0)
(1.07195 0.0245427 0)
(0.960689 0.0206645 0)
(0.643574 0.00692554 0)
(0.205675 -0.00036302 0)
(0.208534 0.000271811 0)
(0.630191 -0.00429038 0)
(0.952351 -0.0152319 0)
(1.07566 -0.0182741 0)
(1.09303 -0.0170338 0)
(1.08258 -0.0141243 0)
(1.06902 -0.0105515 0)
(1.05853 -0.00649588 0)
(1.05077 -0.00193594 0)
(1.04595 0.00304934 0)
(1.04499 0.00804473 0)
(1.04788 0.0124348 0)
(1.05375 0.0159742 0)
(1.06313 0.0189535 0)
(1.07603 0.0213851 0)
(1.08498 0.0231764 0)
(1.06466 0.0231962 0)
(0.936013 0.0186618 0)
(0.609192 0.0057368 0)
(0.195544 9.17306e-06 0)
(0.202694 8.05115e-05 0)
(0.607168 -0.00318517 0)
(0.935087 -0.0126059 0)
(1.07273 -0.015754 0)
(1.09603 -0.0147408 0)
(1.08702 -0.0122279 0)
(1.07353 -0.00884159 0)
(1.06288 -0.00496931 0)
(1.05494 -0.000334956 0)
(1.04978 0.00463787 0)
(1.04818 0.00937102 0)
(1.05076 0.0134396 0)
(1.05711 0.0167679 0)
(1.06626 0.0193525 0)
(1.07866 0.0215422 0)
(1.08571 0.0227019 0)
(1.05893 0.0222323 0)
(0.91348 0.0169866 0)
(0.580003 0.0049998 0)
(0.18639 0.000282455 0)
(0.197924 8.83536e-06 0)
(0.588358 -0.00232115 0)
(0.918482 -0.0104256 0)
(1.06894 -0.0137062 0)
(1.09906 -0.0128001 0)
(1.09165 -0.010183 0)
(1.07807 -0.00687964 0)
(1.06713 -0.00301768 0)
(1.05885 0.00128942 0)
(1.05332 0.00604439 0)
(1.05144 0.0106388 0)
(1.05356 0.0146847 0)
(1.05899 0.0176538 0)
(1.06825 0.0198403 0)
(1.08059 0.0214375 0)
(1.08553 0.0223653 0)
(1.04939 0.0213004 0)
(0.889142 0.0154931 0)
(0.553345 0.00452786 0)
(0.177494 0.000439916 0)
(0.194378 1.03645e-05 0)
(0.573735 -0.00157217 0)
(0.904448 -0.00812156 0)
(1.06631 -0.0112125 0)
(1.10227 -0.0102298 0)
(1.09613 -0.00774768 0)
(1.08253 -0.00428878 0)
(1.07127 -0.000629727 0)
(1.06245 0.00371836 0)
(1.05625 0.0084725 0)
(1.05398 0.0129088 0)
(1.05615 0.0162182 0)
(1.06201 0.0185978 0)
(1.07087 0.0204259 0)
(1.08243 0.0218061 0)
(1.08487 0.0222755 0)
(1.04204 0.0207489 0)
(0.867563 0.014448 0)
(0.53023 0.00426478 0)
(0.169188 0.000526103 0)
(0.192133 2.9986e-05 0)
(0.563164 -0.000808187 0)
(0.892465 -0.00604498 0)
(1.06349 -0.00887386 0)
(1.10575 -0.00772729 0)
(1.10124 -0.00489519 0)
(1.0875 -0.00149942 0)
(1.07586 0.00227368 0)
(1.06671 0.00631673 0)
(1.06005 0.010601 0)
(1.05681 0.0146168 0)
(1.05803 0.0177652 0)
(1.06315 0.0197636 0)
(1.07221 0.021092 0)
(1.08347 0.0222304 0)
(1.08337 0.0224991 0)
(1.0303 0.0204602 0)
(0.843081 0.0136381 0)
(0.507485 0.00411595 0)
(0.160727 0.000579009 0)
(0.19122 9.20918e-05 0)
(0.555626 -0.000182709 0)
(0.882504 -0.0037545 0)
(1.06199 -0.00606661 0)
(1.10968 -0.00475934 0)
(1.1064 -0.00199182 0)
(1.09263 0.00173223 0)
(1.08047 0.0053977 0)
(1.07055 0.00955251 0)
(1.06317 0.0140673 0)
(1.05979 0.0181532 0)
(1.06081 0.0205813 0)
(1.06577 0.0219129 0)
(1.07456 0.0228516 0)
(1.0843 0.0234162 0)
(1.08147 0.023033 0)
(1.02083 0.0204356 0)
(0.821794 0.0131016 0)
(0.487589 0.00405448 0)
(0.152827 0.000599657 0)
(0.191799 3.0003e-05 0)
(0.551702 0.000864972 0)
(0.875791 -0.0015687 0)
(1.06053 -0.00347289 0)
(1.11343 -0.00191159 0)
(1.11179 0.00125493 0)
(1.09787 0.00502094 0)
(1.08526 0.00911221 0)
(1.07491 0.0134141 0)
(1.06682 0.0175255 0)
(1.06173 0.0207873 0)
(1.06135 0.0230895 0)
(1.06575 0.0241764 0)
(1.07451 0.0245986 0)
(1.08364 0.0249221 0)
(1.07741 0.0241442 0)
(1.00615 0.0207851 0)
(0.796523 0.0128051 0)
(0.466412 0.00409652 0)
(0.144386 0.00061916 0)
(0.193848 0.000228655 0)
(0.552087 0.00150298 0)
(0.871165 0.00070329 0)
(1.06117 3.83147e-06 0)
(1.11808 0.00189616 0)
(1.11737 0.00497891 0)
(1.10345 0.00908806 0)
(1.09031 0.0134 0)
(1.07918 0.0179761 0)
(1.07004 0.0223789 0)
(1.06489 0.0256883 0)
(1.06437 0.0272885 0)
(1.06798 0.0278606 0)
(1.07573 0.0278519 0)
(1.08278 0.0269131 0)
(1.07316 0.025522 0)
(0.993678 0.0214088 0)
(0.774652 0.0129979 0)
(0.447475 0.00432104 0)
(0.136304 0.000670043 0)
(0.197816 0.000649532 0)
(0.5549 0.00229428 0)
(0.871645 0.00350667 0)
(1.06297 0.00331925 0)
(1.12322 0.00581243 0)
(1.12366 0.00948906 0)
(1.10942 0.013809 0)
(1.09587 0.0185274 0)
(1.08411 0.0233836 0)
(1.074 0.0276037 0)
(1.06656 0.0300505 0)
(1.0634 0.0310962 0)
(1.06588 0.0311819 0)
(1.07351 0.0303421 0)
(1.08025 0.0297458 0)
(1.06645 0.027423 0)
(0.976234 0.0223615 0)
(0.748008 0.0133964 0)
(0.425786 0.00455568 0)
(0.127067 0.000717219 0)
(0.204384 0.000863179 0)
(0.562229 0.0035332 0)
(0.875759 0.00600773 0)
(1.06758 0.00772961 0)
(1.12931 0.0110744 0)
(1.13038 0.0148922 0)
(1.11588 0.0196716 0)
(1.1013 0.0247269 0)
(1.08801 0.0298793 0)
(1.07594 0.0344525 0)
(1.0677 0.037286 0)
(1.06524 0.0380351 0)
(1.06707 0.0372834 0)
(1.07345 0.0356873 0)
(1.077 0.0330577 0)
(1.0586 0.0299039 0)
(0.960103 0.0239908 0)
(0.724143 0.0141632 0)
(0.405643 0.00495361 0)
(0.117956 0.000789651 0)
(0.21268 0.00101184 0)
(0.573491 0.00483035 0)
(0.88382 0.00919101 0)
(1.07418 0.012178 0)
(1.13656 0.0162999 0)
(1.1381 0.0213488 0)
(1.12256 0.0269955 0)
(1.10678 0.0326435 0)
(1.09192 0.0380554 0)
(1.07818 0.0424255 0)
(1.06761 0.0441835 0)
(1.06184 0.043302 0)
(1.06197 0.0416561 0)
(1.0682 0.0389816 0)
(1.07224 0.0371785 0)
(1.04883 0.032949 0)
(0.938477 0.0257662 0)
(0.694294 0.0150236 0)
(0.381557 0.00535847 0)
(0.107257 0.000833626 0)
(0.225317 0.00137963 0)
(0.592718 0.00690014 0)
(0.899576 0.0139624 0)
(1.08489 0.0190492 0)
(1.14576 0.0242077 0)
(1.14715 0.0296027 0)
(1.13064 0.0361011 0)
(1.11319 0.0424642 0)
(1.09618 0.0483207 0)
(1.07964 0.0525594 0)
(1.06696 0.0540033 0)
(1.06189 0.0529121 0)
(1.06257 0.0502033 0)
(1.06694 0.0468561 0)
(1.0655 0.042316 0)
(1.03608 0.0366555 0)
(0.917083 0.0282231 0)
(0.666782 0.0163572 0)
(0.35856 0.0059581 0)
(0.0965884 0.000873999 0)
(0.241309 0.00196963 0)
(0.617458 0.00873067 0)
(0.92116 0.0185976 0)
(1.09943 0.025913 0)
(1.15698 0.0324071 0)
(1.15822 0.0395024 0)
(1.13992 0.047117 0)
(1.12078 0.0541843 0)
(1.10184 0.0603225 0)
(1.08335 0.0642777 0)
(1.06793 0.0644481 0)
(1.05837 0.0615629 0)
(1.05469 0.0568883 0)
(1.05792 0.052164 0)
(1.05785 0.0479597 0)
(1.02189 0.0413199 0)
(0.889625 0.0311186 0)
(0.631924 0.0181414 0)
(0.329931 0.00660437 0)
(0.0838666 0.000879232 0)
(0.263686 0.00282969 0)
(0.651632 0.0124957 0)
(0.950042 0.0252583 0)
(1.11848 0.035281 0)
(1.17115 0.0433806 0)
(1.17085 0.0518495 0)
(1.15037 0.0605616 0)
(1.1285 0.0686752 0)
(1.10634 0.0754226 0)
(1.08401 0.0792684 0)
(1.0653 0.078583 0)
(1.05524 0.0746049 0)
(1.05329 0.0692048 0)
(1.05533 0.0635111 0)
(1.04741 0.0560984 0)
(1.00311 0.0472743 0)
(0.861336 0.0352932 0)
(0.598308 0.020607 0)
(0.301251 0.00740779 0)
(0.0710815 0.000867973 0)
(0.295322 0.00372075 0)
(0.697897 0.0156503 0)
(0.98907 0.0332786 0)
(1.14363 0.0466503 0)
(1.18808 0.0569486 0)
(1.18547 0.06791 0)
(1.16131 0.0781945 0)
(1.13605 0.0869165 0)
(1.11045 0.0933429 0)
(1.08502 0.095998 0)
(1.06353 0.0937233 0)
(1.04962 0.0879611 0)
(1.04253 0.0804068 0)
(1.04112 0.0722506 0)
(1.03463 0.0649147 0)
(0.982019 0.0547493 0)
(0.82476 0.0401545 0)
(0.553849 0.023499 0)
(0.264221 0.00812873 0)
(0.0557217 0.000838714 0)
(0.331882 0.00713673 0)
(0.756274 0.0247755 0)
(1.03699 0.0464132 0)
(1.17439 0.063808 0)
(1.20946 0.0763662 0)
(1.20178 0.0899243 0)
(1.17287 0.101063 0)
(1.14319 0.110097 0)
(1.11292 0.116002 0)
(1.08261 0.117466 0)
(1.05698 0.112782 0)
(1.0417 0.104663 0)
(1.03627 0.0953485 0)
(1.03563 0.086474 0)
(1.01864 0.0761098 0)
(0.954553 0.0626727 0)
(0.785923 0.0458486 0)
(0.509485 0.0265582 0)
(0.227724 0.00877648 0)
(0.0410063 0.000706803 0)
(0.412331 0.0108256 0)
(0.843636 0.0358813 0)
(1.10186 0.0672163 0)
(1.21291 0.0892612 0)
(1.23444 0.104296 6.5829e-34)
(1.22001 0.119933 -2.9545e-34)
(1.18507 0.131175 0)
(1.1508 0.138995 0)
(1.11631 0.142713 0)
(1.08199 0.140654 0)
(1.05321 0.133017 0)
(1.0343 0.122463 0)
(1.02354 0.111021 0)
(1.0165 0.0987796 0)
(0.999288 0.08725 0)
(0.923881 0.0720742 0)
(0.736341 0.0516609 0)
(0.450021 0.0291389 0)
(0.179271 0.00857091 0)
(0.0235161 0.000704557 0)
(0.483909 0.0260459 4.93678e-20)
(0.945051 0.0596778 -3.73506e-20)
(1.1704 0.100932 0)
(1.25246 0.1268 2.8668e-20)
(1.26172 0.142239 -2.32446e-20)
(1.23751 0.159784 3.11723e-34)
(1.19571 0.169133 0)
(1.15584 0.174859 1.64738e-20)
(1.11522 0.176234 -5.40347e-20)
(1.07518 0.172064 1.10083e-20)
(1.04171 0.161386 0)
(1.02039 0.146791 -2.78134e-20)
(1.01054 0.132862 -3.32879e-20)
(1.00498 0.12011 5.82085e-20)
(0.971203 0.104941 -4.59805e-20)
(0.874596 0.0843555 0)
(0.667087 0.0593663 -1.6621e-20)
(0.374557 0.0306325 0)
(0.126689 0.00877451 -9.15551e-20)
(0.0060017 0.000730347 1.07919e-19)
(0.519754 0.0537615 -6.46303e-21)
(1.00879 0.102539 1.13525e-19)
(1.22 0.151349 -6.83396e-21)
(1.28548 0.17468 -7.1957e-20)
(1.2855 0.191681 -4.92719e-20)
(1.25222 0.207074 8.01237e-20)
(1.20435 0.21375 0)
(1.15914 0.217057 0)
(1.11394 0.215696 8.61276e-20)
(1.06969 0.207653 0)
(1.03127 0.192197 1.00762e-19)
(1.00515 0.176781 2.98427e-20)
(0.988162 0.160939 3.69379e-22)
(0.969529 0.144502 -6.35974e-20)
(0.935407 0.12805 0)
(0.828961 0.105135 0)
(0.607779 0.071313 -2.72017e-19)
(0.322508 0.0360313 6.8249e-19)
(0.102755 0.00993544 -4.04484e-19)
(-0.00242083 0.000263726 -4.76592e-19)
(0.527102 0.0763305 -6.71209e-20)
(1.04537 0.159456 2.53798e-20)
(1.25615 0.211267 1.35376e-20)
(1.31176 0.233213 1.258e-19)
(1.3042 0.248784 1.43098e-20)
(1.26341 0.260164 -2.09292e-19)
(1.20985 0.263124 7.11288e-20)
(1.15869 0.263166 0)
(1.1066 0.258593 -1.82467e-19)
(1.05424 0.247137 1.61486e-19)
(1.01061 0.23135 -2.72053e-19)
(0.981323 0.21101 1.27476e-19)
(0.964738 0.193589 -8.25586e-20)
(0.952574 0.177558 1.8592e-19)
(0.905775 0.157671 0)
(0.790624 0.126316 -6.81006e-20)
(0.57563 0.0853991 0)
(0.312394 0.0424328 3.76223e-19)
(0.102511 0.0138585 -8.91714e-19)
(-0.00124762 -0.000450943 5.58551e-19)
(0.5221 0.108159 1.9359e-19)
(1.0654 0.21635 -8.42778e-20)
(1.27791 0.276737 -1.77013e-20)
(1.32895 0.297997 0)
(1.31614 0.311294 -9.27995e-20)
(1.26991 0.317345 1.14339e-19)
(1.21164 0.315514 -7.61708e-20)
(1.15564 0.31165 0)
(1.09917 0.302768 1.29728e-19)
(1.04486 0.287577 -1.13522e-19)
(0.997816 0.266155 2.36001e-19)
(0.963672 0.245126 0)
(0.940315 0.226634 -1.7552e-19)
(0.914201 0.206237 9.88805e-20)
(0.87272 0.184275 2.49768e-19)
(0.764092 0.153089 -2.19775e-19)
(0.560478 0.106392 3.5035e-19)
(0.313995 0.0567134 -7.75838e-19)
(0.114757 0.020249 4.89881e-19)
(0.00592746 0.000811678 -6.12828e-19)
(0.510233 0.132561 -7.12774e-20)
(1.07304 0.270364 5.12076e-20)
(1.28918 0.342508 -5.87017e-20)
(1.33832 0.363456 1.14885e-19)
(1.32188 0.374534 -1.07271e-19)
(1.27185 0.375812 3.63724e-20)
(1.21001 0.369553 3.64504e-21)
(1.14992 0.361482 -1.47922e-19)
(1.089 0.348664 -1.36186e-19)
(1.02793 0.330157 -2.44034e-19)
(0.97376 0.305787 -5.07421e-19)
(0.937148 0.282577 -1.56167e-19)
(0.915135 0.260992 2.38698e-21)
(0.896259 0.241814 -3.39026e-19)
(0.846436 0.218513 -6.15719e-21)
(0.736477 0.178514 3.19965e-19)
(0.545612 0.126528 -9.66663e-20)
(0.317527 0.071712 -5.60825e-20)
(0.127768 0.0285766 0)
(0.0138401 0.00308987 1.3037e-18)
(0.49351 0.153329 0)
(1.06732 0.320142 -6.03529e-21)
(1.29158 0.405808 -1.10144e-20)
(1.34095 0.427398 -1.27446e-20)
(1.32187 0.4373 1.04489e-19)
(1.2692 0.434166 -8.44165e-20)
(1.20454 0.423534 8.32983e-20)
(1.14097 0.411475 2.42672e-19)
(1.0761 0.394575 -7.57202e-20)
(1.01137 0.371262 1.21057e-19)
(0.956593 0.343829 2.72743e-19)
(0.917201 0.318602 3.4032e-19)
(0.887224 0.297289 -2.04812e-19)
(0.857875 0.271903 3.66819e-19)
(0.814995 0.246231 -2.90624e-19)
(0.716561 0.208253 0)
(0.541313 0.150836 -7.3363e-19)
(0.327557 0.090304 9.87413e-19)
(0.142934 0.039373 7.36974e-20)
(0.022431 0.0063761 -1.37727e-18)
(0.479288 0.173677 -5.13066e-21)
(1.05992 0.368717 1.72682e-20)
(1.28949 0.467037 8.0547e-20)
(1.33895 0.489348 -1.01408e-19)
(1.31763 0.497927 8.55569e-20)
(1.26286 0.490953 -8.22069e-20)
(1.19607 0.476789 1.65529e-19)
(1.13006 0.460999 -7.32642e-20)
(1.06296 0.440427 -3.05607e-19)
(0.996324 0.414114 4.87841e-23)
(0.937103 0.384673 -2.96133e-19)
(0.892673 0.355756 -3.6562e-19)
(0.863114 0.3281 2.25871e-19)
(0.839205 0.306581 -1.31883e-19)
(0.790474 0.279047 3.15437e-19)
(0.692103 0.232679 0)
(0.528682 0.173782 -4.54718e-19)
(0.330606 0.10759 6.7154e-19)
(0.153011 0.0501779 1.27221e-18)
(0.028879 0.00972542 -1.49659e-18)
(0.464875 0.191234 -3.34664e-20)
(1.04696 0.412929 1.0378e-20)
(1.28282 0.524414 -5.7411e-20)
(1.33299 0.54837 1.05146e-19)
(1.30982 0.556436 1.18255e-20)
(1.2536 0.545991 -1.61683e-19)
(1.18524 0.528284 -9.55322e-20)
(1.11726 0.508903 -9.2831e-20)
(1.04726 0.484471 -1.71914e-19)
(0.976026 0.454224 2.76944e-19)
(0.911803 0.41936 2.99714e-19)
(0.867769 0.386809 5.80231e-19)
(0.837018 0.361454 0)
(0.803789 0.333819 6.19594e-21)
(0.761293 0.303006 -8.6515e-19)
(0.674285 0.261987 2.01737e-19)
(0.523059 0.197372 9.81688e-19)
(0.335319 0.126595 -2.89607e-19)
(0.161301 0.0611715 6.03355e-19)
(0.0338028 0.0131011 -5.03347e-20)
(0.455284 0.209676 5.92032e-21)
(1.03597 0.456293 3.38314e-20)
(1.27422 0.579675 -2.78902e-20)
(1.32441 0.604991 1.22111e-19)
(1.29969 0.611997 -1.78304e-19)
(1.24226 0.598352 1.61013e-19)
(1.17271 0.577851 9.89052e-20)
(1.10318 0.55557 2.78086e-19)
(1.03117 0.528402 3.46118e-19)
(0.958716 0.49565 -3.18611e-19)
(0.896563 0.458117 0)
(0.848259 0.423754 -2.18839e-19)
(0.81151 0.392682 2.51249e-19)
(0.786884 0.364422 3.16591e-19)
(0.738717 0.334353 -1.82995e-19)
(0.651492 0.283463 -4.46821e-19)
(0.508391 0.219304 -1.33452e-19)
(0.331998 0.142418 -1.53939e-21)
(0.163534 0.0703233 0)
(0.0363031 0.0155776 0)
(0.446943 0.225588 -6.04635e-20)
(1.02331 0.496099 0)
(1.26326 0.631129 -1.37908e-20)
(1.31355 0.658469 -7.34001e-21)
(1.28762 0.664935 2.00608e-19)
(1.22935 0.648487 -5.13125e-20)
(1.15872 0.625251 1.00326e-19)
(1.08776 0.600106 -1.88452e-19)
(1.0142 0.569647 2.62115e-19)
(0.939178 0.532462 -1.0374e-19)
(0.87032 0.490345 1.712e-19)
(0.818733 0.452649 6.93371e-19)
(0.787966 0.420842 1.40665e-20)
(0.750907 0.389243 -3.29943e-19)
(0.710628 0.353493 6.10899e-19)
(0.631763 0.310313 4.21363e-21)
(0.497228 0.239038 1.42774e-19)
(0.325915 0.15683 -6.81228e-19)
(0.160061 0.0774301 7.00752e-19)
(0.036276 0.0169566 -8.27032e-19)
(0.440212 0.243378 3.44281e-23)
(1.01185 0.534719 0)
(1.25157 0.680304 0)
(1.30145 0.709406 -7.23038e-21)
(1.27446 0.714815 -6.0681e-20)
(1.21538 0.695772 7.60397e-20)
(1.1441 0.670369 -1.88386e-19)
(1.07238 0.642862 0)
(0.997459 0.610329 -3.8627e-19)
(0.919927 0.571532 4.60713e-19)
(0.851369 0.528232 4.86529e-19)
(0.802359 0.485414 -2.54509e-19)
(0.760485 0.448368 -3.07246e-19)
(0.734433 0.415687 7.20078e-19)
(0.688483 0.38195 -2.16932e-19)
(0.608667 0.326003 -2.59149e-19)
(0.47944 0.256143 -1.55189e-19)
(0.317107 0.168009 -7.34279e-19)
(0.154877 0.081883 1.06864e-19)
(0.0346796 0.0178825 8.9184e-19)
(0.435835 0.261704 -3.18375e-20)
(1.0005 0.570751 -4.02096e-20)
(1.23877 0.72594 2.36513e-20)
(1.2882 0.75715 -1.48996e-22)
(1.26038 0.762041 -5.81888e-20)
(1.20084 0.740737 1.25582e-19)
(1.12906 0.713197 0)
(1.0564 0.68348 1.13158e-19)
(0.979862 0.648495 -8.9226e-20)
(0.900948 0.606167 7.67174e-19)
(0.828563 0.557284 -1.11177e-19)
(0.772651 0.51107 1.26056e-19)
(0.737298 0.473414 0)
(0.699485 0.437112 -3.89709e-19)
(0.660322 0.396077 4.71586e-19)
(0.588407 0.348625 0)
(0.465526 0.26982 -3.34687e-19)
(0.304852 0.177464 9.83938e-19)
(0.147091 0.0842776 1.16011e-19)
(0.0317249 0.0180999 -1.09743e-18)
(0.433368 0.278644 -8.31066e-20)
(0.990615 0.605553 1.06675e-19)
(1.226 0.769427 0)
(1.27464 0.802432 3.73411e-21)
(1.24607 0.806375 0)
(1.18602 0.782932 -1.59749e-19)
(1.11383 0.753679 0)
(1.04053 0.722173 0)
(0.962838 0.685457 -1.17202e-19)
(0.881446 0.641837 -7.29057e-19)
(0.806512 0.591789 -8.9835e-19)
(0.75146 0.541791 1.47111e-19)
(0.709749 0.497206 5.30069e-19)
(0.682565 0.458734 4.28685e-19)
(0.639014 0.420813 -1.51282e-18)
(0.565119 0.35847 -6.07679e-19)
(0.444422 0.281568 3.55688e-19)
(0.290673 0.182234 0)
(0.138029 0.0849374 9.97104e-19)
(0.0283661 0.0173948 -1.18194e-18)
(0.431711 0.294338 1.01394e-19)
(0.980748 0.637856 -1.25711e-19)
(1.21283 0.809588 0)
(1.26062 0.844542 -1.09457e-20)
(1.23142 0.848153 4.37216e-21)
(1.1711 0.822972 0)
(1.09861 0.792028 5.75028e-20)
(1.02462 0.758776 7.77608e-20)
(0.9457 0.720396 -2.20964e-19)
(0.862876 0.674173 9.67671e-20)
(0.785349 0.619278 0)
(0.725234 0.565716 6.09012e-19)
(0.686203 0.520746 4.83782e-21)
(0.647093 0.477087 2.31175e-19)
(0.61038 0.428508 2.74582e-19)
(0.543236 0.376364 0)
(0.428245 0.288663 -5.82059e-19)
(0.275305 0.185626 1.14281e-18)
(0.128469 0.0840413 -1.20832e-18)
(0.0249153 0.0163373 2.54472e-18)
(0.430466 0.309244 0)
(0.971805 0.669054 0)
(1.20014 0.847777 -6.03662e-20)
(1.24679 0.884414 0)
(1.21699 0.887264 0)
(1.15634 0.860402 -1.34193e-19)
(1.08367 0.82816 5.88444e-20)
(1.0093 0.793591 1.75386e-20)
(0.9293 0.753941 -5.06712e-20)
(0.843617 0.706478 0)
(0.762512 0.650617 -1.36405e-19)
(0.701494 0.594698 -4.96694e-19)
(0.655854 0.54152 -5.97732e-19)
(0.62918 0.494291 -2.4011e-19)
(0.588134 0.449525 2.97569e-19)
(0.51958 0.378746 -7.01674e-19)
(0.405335 0.294007 1.25235e-18)
(0.259386 0.184648 2.73572e-21)
(0.118855 0.0819626 -1.1592e-18)
(0.0219327 0.0150312 -1.71611e-19)
(0.42931 0.323772 0)
(0.963014 0.698341 -1.03914e-19)
(1.18748 0.882993 7.50676e-20)
(1.23293 0.9213 0)
(1.20263 0.923984 0)
(1.14187 0.895865 2.69941e-19)
(1.06914 0.862357 0)
(0.994237 0.826434 0)
(0.913022 0.785604 -4.83712e-19)
(0.82604 0.736685 1.33034e-19)
(0.742873 0.677697 -1.20952e-18)
(0.676657 0.61738 0)
(0.632898 0.563404 -6.47786e-19)
(0.591318 0.510241 1.06807e-20)
(0.557032 0.450138 -9.5545e-19)
(0.496113 0.390223 3.77651e-19)
(0.389609 0.292602 1.78838e-21)
(0.245921 0.182103 -1.31916e-18)
(0.111079 0.0786957 6.2523e-19)
(0.018887 0.0134322 1.83602e-19)
(0.428289 0.33795 0)
(0.955094 0.72665 -1.47337e-19)
(1.17545 0.916591 7.94401e-20)
(1.21956 0.956298 9.58167e-20)
(1.18876 0.958317 -1.55908e-20)
(1.12783 0.928892 2.71446e-20)
(1.05508 0.894459 -3.61999e-20)
(0.979831 0.857613 4.6755e-19)
(0.897427 0.815824 5.17435e-19)
(0.80763 0.76592 1.01419e-18)
(0.720671 0.706194 1.00501e-18)
(0.651812 0.644142 1.76355e-19)
(0.599608 0.583086 9.31983e-19)
(0.571033 0.524165 5.74929e-19)
(0.532032 0.467262 6.85941e-19)
(0.471345 0.382189 -4.13582e-19)
(0.366707 0.287916 -4.81861e-19)
(0.234261 0.17155 5.64798e-19)
(0.107433 0.0782068 -3.35154e-19)
(0.0212933 0.0186048 5.94154e-19)
(0.427336 0.351718 2.09547e-19)
(0.947451 0.75321 2.30417e-19)
(1.1636 0.947579 4.67998e-20)
(1.20638 0.988551 1.62885e-20)
(1.17517 0.990453 1.6886e-20)
(1.11424 0.960134 -7.50338e-20)
(1.04152 0.924802 3.49982e-20)
(0.965806 0.886959 -2.04046e-20)
(0.882477 0.844416 -6.01441e-19)
(0.791871 0.793865 -1.10033e-18)
(0.703018 0.733078 6.97942e-20)
(0.628458 0.667631 0)
(0.577201 0.605245 0)
(0.529422 0.54014 -2.99589e-19)
(0.495008 0.460621 -1.12148e-18)
(0.442884 0.384164 8.90881e-19)
(0.356214 0.266891 5.27475e-19)
(0.240613 0.153522 0)
(0.120179 0.053051 1.06898e-18)
(0.014845 -0.00668597 -6.34993e-19)
(0.426509 0.364884 -1.11067e-19)
(0.940438 0.778615 9.84442e-20)
(1.15238 0.977179 -1.13632e-19)
(1.19381 1.01924 -8.89996e-20)
(1.16218 1.02049 -1.00463e-20)
(1.10118 0.989126 -2.39165e-20)
(1.02856 0.953167 0)
(0.952697 0.914789 -5.87193e-19)
(0.868506 0.871686 7.40662e-20)
(0.775175 0.820499 0)
(0.681598 0.759029 0)
(0.604072 0.693269 1.12124e-19)
(0.541856 0.625447 1.50495e-19)
(0.505385 0.552609 -3.23276e-19)
(0.463557 0.47677 8.0516e-19)
(0.408547 0.36144 -9.70745e-19)
(0.325043 0.245204 -1.12829e-18)
(0.243774 0.132203 9.98601e-19)
(0.173114 0.0921561 -3.80945e-19)
(0.113143 0.0804747 2.21766e-19)
(0.425594 0.377285 1.40736e-19)
(0.933595 0.802332 0)
(1.14134 1.00437 0)
(1.18149 1.04736 -2.39497e-20)
(1.14958 1.04852 1.93883e-20)
(1.08868 1.01652 -2.08709e-20)
(1.01623 0.979972 1.53834e-19)
(0.940106 0.940927 6.0146e-19)
(0.855193 0.897423 1.09036e-18)
(0.761113 0.84615 -8.25599e-20)
(0.666108 0.785016 1.70354e-19)
(0.58312 0.718068 -1.00236e-18)
(0.520101 0.649617 -9.96983e-19)
(0.459003 0.572768 -1.73298e-19)
(0.412532 0.466198 0)
(0.365008 0.364063 -7.96677e-21)
(0.298202 0.179263 6.20632e-19)
(0.266853 0.0310405 -1.04574e-18)
(0.22846 -0.0843853 7.95126e-19)
(0.0834322 -0.0968432 6.59788e-19)
(0.424663 0.38922 -3.11449e-19)
(0.927086 0.82487 -1.4098e-19)
(1.13082 1.03047 6.99611e-21)
(1.16972 1.0744 5.37446e-20)
(1.13745 1.075 0)
(1.07656 1.04224 -8.15495e-20)
(1.00429 1.00538 -2.20471e-19)
(0.928142 0.966219 -1.49323e-21)
(0.842464 0.922544 -5.7134e-19)
(0.745714 0.871032 -8.09709e-20)
(0.646194 0.809864 7.52074e-20)
(0.559316 0.744128 8.80403e-19)
(0.482467 0.67296 9.7311e-19)
(0.430557 0.587117 1.68548e-19)
(0.374309 0.493141 8.62213e-19)
(0.29449 0.333494 0)
(0.177514 0.165504 0)
(0.00707693 0.211421 7.21621e-19)
(-0.0773621 0.629675 -3.03681e-20)
(0.00628022 1.53439 -8.86065e-19)
(0.423599 0.400518 1.72318e-19)
(0.9208 0.846149 3.93485e-19)
(1.12045 1.05462 -5.36278e-19)
(1.1581 1.09941 2.65087e-19)
(1.12557 1.10016 -5.34308e-21)
(1.06479 1.0672 -3.57691e-20)
(0.992709 1.03023 0)
(0.916265 0.990896 -5.01454e-19)
(0.829823 0.947424 0)
(0.732535 0.896715 1.14179e-18)
(0.63175 0.837511 -9.11725e-20)
(0.538341 0.77299 1.0223e-19)
(0.462454 0.704215 1.11141e-18)
(0.376924 0.623679 -3.65167e-19)
(0.282795 0.491493 -4.39202e-19)
(0.199367 0.390289 0)
(0.0903836 0.512462 0)
(0.0267471 1.32303 0)
(0.0728981 2.45961 -4.10048e-19)
(0.100674 2.90903 -2.52083e-19)
(0.422361 0.41124 0)
(0.914717 0.86617 0)
(1.11059 1.07786 1.96019e-19)
(1.14708 1.12366 -2.14824e-19)
(1.11418 1.1241 9.14852e-20)
(1.0534 1.09074 4.18403e-20)
(0.981475 1.05387 2.82534e-20)
(0.905021 1.01498 -2.19975e-20)
(0.81804 0.972028 8.03418e-20)
(0.718387 0.921934 -1.31033e-18)
(0.612837 0.863188 1.6543e-19)
(0.516639 0.801824 8.77421e-19)
(0.422369 0.735017 -1.10753e-18)
(0.346328 0.641604 -1.21296e-18)
(0.267863 0.553534 4.08622e-19)
(0.192791 0.685721 0)
(0.124346 1.55059 5.67854e-19)
(0.124943 2.69108 6.25359e-19)
(0.133066 3.08719 -6.99308e-19)
(0.124511 3.22183 7.52713e-19)
(0.421004 0.421604 0)
(0.908923 0.885079 3.50562e-19)
(1.10093 1.09926 -4.90802e-20)
(1.13628 1.14587 3.04952e-19)
(1.10312 1.14671 -9.60286e-20)
(1.04247 1.11349 0)
(0.970725 1.0769 0)
(0.894041 1.03827 0)
(0.806481 0.996141 4.53826e-19)
(0.706419 0.947682 6.05859e-20)
(0.599605 0.892167 0)
(0.496246 0.834071 -8.72871e-19)
(0.410633 0.771584 0)
(0.296655 0.692364 8.68354e-19)
(0.206391 0.760188 -5.84201e-19)
(0.156622 1.46086 -4.70435e-19)
(0.158875 2.6791 -1.10455e-18)
(0.180328 3.12674 -5.82888e-19)
(0.171179 3.26772 -7.94054e-19)
(0.157056 3.30804 6.05416e-19)
(0.419574 0.431093 -1.22814e-19)
(0.90324 0.902667 1.54059e-20)
(1.09177 1.1199 -5.48176e-20)
(1.12611 1.16759 -2.35067e-19)
(1.09258 1.16831 0)
(1.03193 1.13497 0)
(0.960319 1.09877 0)
(0.883716 1.06102 3.49046e-20)
(0.795838 1.01993 -5.73543e-19)
(0.693686 0.972763 0)
(0.583412 0.918648 0)
(0.481382 0.86488 0)
(0.368367 0.804282 0)
(0.305576 0.784038 6.33656e-19)
(0.272304 1.1689 1.55812e-18)
(0.251218 2.37986 4.62185e-19)
(0.264136 3.08314 9.33351e-19)
(0.2586 3.28391 -7.15632e-19)
(0.20963 3.34979 2.65087e-19)
(0.176944 3.36245 0)
(0.418067 0.440304 1.26587e-19)
(0.89771 0.919834 -7.80627e-19)
(1.08259 1.13938 -2.09114e-19)
(1.11591 1.18787 -4.57098e-20)
(1.08215 1.18919 2.22841e-20)
(1.02167 1.15626 -6.9286e-20)
(0.95028 1.12062 -3.91436e-21)
(0.873537 1.08338 -3.92364e-19)
(0.785227 1.04352 0)
(0.683175 0.998716 -7.64353e-20)
(0.5724 0.949168 6.95325e-20)
(0.461792 0.89813 0)
(0.374906 0.853076 0)
(0.320184 0.970062 -7.92662e-19)
(0.275476 1.85465 9.74594e-20)
(0.271556 2.94235 -3.46803e-19)
(0.293481 3.28822 7.24158e-19)
(0.266106 3.3869 5.26437e-19)
(0.20025 3.41141 -7.16269e-19)
(0.175374 3.42084 3.55614e-19)
(0.41617 0.449698 2.49583e-19)
(0.891586 0.937025 7.62283e-19)
(1.07308 1.15986 2.50779e-19)
(1.10554 1.20951 0)
(1.07146 1.2107 0)
(1.01106 1.17765 5.43118e-20)
(0.939923 1.14243 7.53311e-20)
(0.863462 1.10622 3.50031e-19)
(0.775163 1.06758 2.26078e-20)
(0.671565 1.02444 9.80002e-19)
(0.558951 0.976519 -1.15286e-18)
(0.449082 0.928341 0)
(0.370001 0.925837 0)
(0.335274 1.33473 -5.39821e-19)
(0.336985 2.48487 -6.49176e-19)
(0.379894 3.19834 0)
(0.404402 3.37071 -7.31685e-19)
(0.334572 3.43354 4.91602e-20)
(0.2647 3.47816 3.44703e-19)
(0.242023 3.5035 -1.13921e-19)
(0.413955 0.459499 -4.75422e-19)
(0.885057 0.955575 -3.66366e-19)
(1.06257 1.18076 0)
(1.09409 1.23099 0)
(1.05994 1.23283 0)
(0.999901 1.20014 0)
(0.929214 1.16542 -8.80804e-20)
(0.852849 1.12957 3.09201e-19)
(0.764483 1.09216 0)
(0.661969 1.05173 -8.92476e-19)
(0.549958 1.00902 2.06833e-18)
(0.440465 0.972291 8.42927e-20)
(0.388412 1.05116 1.11567e-19)
(0.388183 1.75002 8.80275e-19)
(0.402917 2.89959 -4.73177e-19)
(0.440461 3.32111 0)
(0.423587 3.44487 2.04567e-19)
(0.337893 3.53308 9.22652e-20)
(0.261656 3.5971 1.50856e-19)
(0.18635 3.57656 -1.23882e-20)
(0.411124 0.469723 2.2649e-19)
(0.877337 0.974393 -3.75575e-19)
(1.0513 1.20337 0)
(1.08209 1.25471 -6.67529e-20)
(1.0477 1.25612 2.28032e-19)
(0.987927 1.22303 0)
(0.917751 1.18848 0)
(0.842065 1.15357 -5.37342e-19)
(0.7543 1.11727 -5.74243e-20)
(0.650969 1.07835 8.75629e-19)
(0.535857 1.03668 -9.82838e-19)
(0.446126 1.01684 5.72269e-19)
(0.407842 1.23347 0)
(0.424768 2.18373 -4.66827e-19)
(0.467444 3.14526 3.06149e-19)
(0.530561 3.42493 1.91388e-19)
(0.52295 3.52169 0)
(0.459714 3.60367 -3.86567e-20)