/*--------------------------------*- C++ -*----------------------------------*\
| =========                 |                                                 |
| \\      /  F ield         | OpenFOAM: The Open Source CFD Toolbox           |
|  \\    /   O peration     | Version:  4.0                                   |
|   \\  /    A nd           | Web:      www.OpenFOAM.org                      |
|    \\/     M anipulation  |                                                 |
\*---------------------------------------------------------------------------*/
FoamFile
{
    version     2.0;
    format      ascii;
    class       volScalarField;
    location    "5";
    object      T;
}
// * * * * * * * * * * * * * * * * * * * * * * * * * * * * * * * * * * * * * //

dimensions      [0 0 0 1 0 0 0];

internalField   nonuniform List<scalar> 
1000
(
0
0
0
0
0
0
0
0
0
0
0
0
0
0
0
0
0
0
0
0
0
0
0
0
0
0
0
0
0
0
0
0
0
0
0
0
0
0
0
0
0
0
0
0
0
0
0
0
0
0
0
0
0
0
0
0
0
0
0
0
0
0
0
0
0
0
0
0
0
0
0
0
0
0
0
0
0
0
0
0
0
0
0
0
0
0
0
0
0
0
0
0
0
0
0
0
0
0
0
0
0
0
0
0
0
0
0
0
0
0
0
0
0
0
0
0
0
0
0
0
0
0
0
0
0
0
0
0
0
0
0
0
0
0
0
0
0
0
0
0
0
0
0
0
0
0
0
0
0
0
0
0
0
0
0
0
0
0
0
0
0
0
0
0
0
0
0
0
0
0
0
0
0
0
0
0
0
0
0
0
0
0
0
0
0
0
4.44659e-323
1.87745e-321
6.62542e-320
2.32799e-318
8.15742e-317
2.85121e-315
9.94042e-314
3.45681e-312
1.19904e-310
4.14838e-309
1.43152e-307
4.92708e-306
1.6914e-304
5.79113e-303
1.97758e-301
6.73521e-300
2.28776e-298
7.75002e-297
2.61834e-295
8.82206e-294
2.96436e-292
9.93346e-291
3.31951e-289
1.10623e-287
3.67624e-286
1.21828e-284
4.02593e-283
1.32665e-281
4.35921e-280
1.42829e-278
4.66631e-277
1.5201e-275
4.9375e-274
1.59908e-272
5.16359e-271
1.66245e-269
5.33641e-268
1.70785e-266
5.4493e-265
1.73347e-263
5.4975e-262
1.73814e-260
5.4785e-259
1.72144e-257
5.39222e-256
1.68376e-254
5.24105e-253
1.62622e-251
5.02979e-250
1.55069e-248
4.76535e-247
1.45966e-245
4.45642e-244
1.35609e-242
4.11295e-241
1.24328e-239
3.74566e-238
1.12466e-236
3.3654e-235
1.00362e-233
2.98268e-232
8.83368e-231
2.60713e-229
7.66766e-228
2.24714e-226
6.56227e-225
1.90953e-223
5.53653e-222
1.59947e-220
4.60397e-219
1.32037e-217
3.77273e-216
1.07399e-214
3.04596e-213
8.60617e-212
2.42242e-210
6.79255e-209
1.89735e-207
5.27936e-206
1.46327e-204
4.03985e-203
1.11094e-201
3.04292e-200
8.3014e-199
2.2556e-197
6.10394e-196
1.64507e-194
4.41539e-193
1.1802e-191
3.14142e-190
8.32668e-189
2.19775e-187
5.77607e-186
1.51154e-184
3.93848e-183
1.02175e-181
2.63907e-180
6.78636e-179
1.73735e-177
4.42779e-176
1.12337e-174
2.83711e-173
7.1324e-172
1.78478e-170
4.44538e-169
1.10202e-167
2.71905e-166
6.6768e-165
1.63167e-163
3.96815e-162
9.60332e-161
2.31268e-159
5.54183e-158
1.32135e-156
3.13464e-155
7.3986e-154
1.73733e-152
4.05855e-151
9.43179e-150
2.18038e-148
5.01383e-147
1.14679e-145
2.60889e-144
5.90289e-143
1.32829e-141
2.97247e-140
6.61481e-139
1.46377e-137
3.22079e-136
7.04632e-135
1.53268e-133
3.31443e-132
7.12541e-131
1.52276e-129
3.23482e-128
6.83033e-127
1.43345e-125
2.98983e-124
6.19742e-123
1.27658e-121
2.61296e-120
5.31421e-119
1.07384e-117
2.15579e-116
4.29945e-115
8.51786e-114
1.67622e-112
3.2763e-111
6.36006e-110
1.22612e-108
2.34728e-107
4.46201e-106
8.42162e-105
1.57807e-103
2.93558e-102
5.42077e-101
9.93561e-100
1.80742e-98
3.26303e-97
5.84578e-96
1.03917e-94
1.8328e-93
3.20696e-92
5.56645e-91
9.58366e-90
1.63648e-88
2.77127e-87
4.6536e-86
7.74819e-85
1.27899e-83
2.09289e-82
3.39462e-81
5.457e-80
8.69335e-79
1.37228e-77
2.14619e-76
3.32517e-75
5.10303e-74
7.75632e-73
1.16746e-71
1.73993e-70
2.56725e-69
3.74966e-68
5.42052e-67
7.75454e-66
1.09767e-64
1.53718e-63
2.12936e-62
2.91727e-61
3.95217e-60
5.29366e-59
7.00912e-58
9.1724e-57
1.18614e-55
1.51546e-54
1.91261e-53
2.38394e-52
2.93405e-51
3.56492e-50
4.27518e-49
5.05924e-48
5.90669e-47
6.80193e-46
7.72405e-45
8.64721e-44
9.54147e-43
1.03741e-41
1.11112e-40
1.172e-39
1.21709e-38
1.244e-37
1.25108e-36
1.23759e-35
1.20379e-34
1.15095e-33
1.08129e-32
9.97803e-32
9.04062e-31
8.03948e-30
7.01381e-29
6.0005e-28
5.03191e-27
4.13414e-26
3.32608e-25
2.6191e-24
2.01749e-23
1.51939e-22
1.11806e-21
8.03417e-21
5.63393e-20
3.85288e-19
2.56776e-18
1.66645e-17
1.05235e-16
6.46099e-16
3.85325e-15
2.2302e-14
1.25149e-13
6.80184e-13
3.57656e-12
1.81736e-11
8.91284e-11
4.21328e-10
1.91711e-09
8.38393e-09
3.51832e-08
1.4144e-07
5.43718e-07
1.99481e-06
6.97052e-06
2.31479e-05
7.28838e-05
0.000217048
0.000609764
0.00161169
0.00399675
0.00927319
0.0200752
0.0404481
0.075683
0.131306
0.211098
0.314694
0.436033
0.563967
0.685306
0.788902
0.868694
0.924317
0.959552
0.979925
0.990727
0.996003
0.998388
0.99939
0.999783
0.999927
0.999977
0.999993
0.999998
0.999999
1
1
1
1
1
1
1
1
1
1
1
1
1
1
1
1
1
1
1
1
1
1
1
1
1
1
1
1
1
1
1
1
1
1
1
1
1
1
1
1
1
1
1
1
1
1
1
1
1
1
1
1
1
1
1
1
1
1
1
1
1
1
1
1
1
1
0.999999
0.999998
0.999993
0.999977
0.999927
0.999783
0.99939
0.998388
0.996003
0.990727
0.979925
0.959552
0.924317
0.868694
0.788902
0.685306
0.563967
0.436033
0.314694
0.211098
0.131306
0.075683
0.0404481
0.0200752
0.00927319
0.00399675
0.00161169
0.000609764
0.000217048
7.28838e-05
2.31479e-05
6.97052e-06
1.99481e-06
5.43718e-07
1.4144e-07
3.51832e-08
8.38393e-09
1.91711e-09
4.21328e-10
8.91284e-11
1.81736e-11
3.57656e-12
6.80184e-13
1.25149e-13
2.2302e-14
3.85325e-15
6.46099e-16
1.05235e-16
1.66645e-17
2.56776e-18
3.85288e-19
5.63393e-20
8.03417e-21
1.11806e-21
1.51939e-22
2.01749e-23
2.6191e-24
3.32608e-25
4.13414e-26
5.03191e-27
6.0005e-28
7.01381e-29
8.03948e-30
9.04062e-31
9.97803e-32
1.08129e-32
1.15095e-33
1.20379e-34
1.23759e-35
1.25108e-36
1.244e-37
1.21709e-38
1.172e-39
1.11112e-40
1.03741e-41
9.54147e-43
8.64721e-44
7.72405e-45
6.80193e-46
5.90669e-47
5.05924e-48
4.27518e-49
3.56492e-50
2.93405e-51
2.38394e-52
1.91261e-53
1.51546e-54
1.18614e-55
9.1724e-57
7.00912e-58
5.29366e-59
3.95217e-60
2.91727e-61
2.12936e-62
1.53718e-63
1.09767e-64
7.75454e-66
5.42052e-67
3.74966e-68
2.56725e-69
1.73993e-70
1.16746e-71
7.75632e-73
5.10303e-74
3.32517e-75
2.14619e-76
1.37228e-77
8.69335e-79
5.457e-80
3.39462e-81
2.09289e-82
1.27899e-83
7.74819e-85
4.6536e-86
2.77127e-87
1.63648e-88
9.58366e-90
5.56645e-91
3.20696e-92
1.8328e-93
1.03917e-94
5.84578e-96
3.26303e-97
1.80742e-98
9.93561e-100
5.42077e-101
2.93558e-102
1.57807e-103
8.42162e-105
4.46201e-106
2.34728e-107
1.22612e-108
6.36006e-110
3.2763e-111
1.67622e-112
8.51786e-114
4.29945e-115
2.15579e-116
1.07384e-117
5.31421e-119
2.61296e-120
1.27658e-121
6.19742e-123
2.98983e-124
1.43345e-125
6.83033e-127
3.23482e-128
1.52276e-129
7.12541e-131
3.31443e-132
1.53268e-133
7.04632e-135
3.22079e-136
1.46377e-137
6.61481e-139
2.97247e-140
1.32829e-141
5.90289e-143
2.60889e-144
1.14679e-145
5.01383e-147
2.18038e-148
9.43179e-150
4.05855e-151
1.73733e-152
7.3986e-154
3.13464e-155
1.32135e-156
5.54183e-158
2.31268e-159
9.60332e-161
3.96815e-162
1.63167e-163
6.6768e-165
2.71905e-166
1.10202e-167
4.44538e-169
1.78478e-170
7.1324e-172
2.83711e-173
1.12337e-174
4.42779e-176
1.73735e-177
6.78636e-179
2.63907e-180
1.02175e-181
3.93848e-183
1.51154e-184
5.77607e-186
2.19775e-187
8.32668e-189
3.14142e-190
1.1802e-191
4.41539e-193
1.64507e-194
6.10394e-196
2.2556e-197
8.3014e-199
3.04292e-200
1.11094e-201
4.03985e-203
1.46327e-204
5.27936e-206
1.89735e-207
6.79255e-209
2.42242e-210
8.60617e-212
3.04596e-213
1.07399e-214
3.77273e-216
1.32037e-217
4.60397e-219
1.59947e-220
5.53653e-222
1.90953e-223
6.56227e-225
2.24714e-226
7.66766e-228
2.60713e-229
8.83368e-231
2.98268e-232
1.00362e-233
3.3654e-235
1.12466e-236
3.74566e-238
1.24328e-239
4.11295e-241
1.35609e-242
4.45642e-244
1.45966e-245
4.76535e-247
1.55069e-248
5.02979e-250
1.62622e-251
5.24105e-253
1.68376e-254
5.39222e-256
1.72144e-257
5.4785e-259
1.73814e-260
5.4975e-262
1.73347e-263
5.4493e-265
1.70785e-266
5.33641e-268
1.66245e-269
5.16359e-271
1.59908e-272
4.9375e-274
1.5201e-275
4.66631e-277
1.42829e-278
4.35921e-280
1.32665e-281
4.02593e-283
1.21828e-284
3.67624e-286
1.10623e-287
3.31951e-289
9.93346e-291
2.96436e-292
8.82206e-294
2.61834e-295
7.75002e-297
2.28776e-298
6.73521e-300
1.97758e-301
5.79113e-303
1.6914e-304
4.92708e-306
1.43152e-307
4.14838e-309
1.19904e-310
3.45681e-312
9.94042e-314
2.85121e-315
8.15742e-317
2.32799e-318
6.62542e-320
1.87745e-321
4.44659e-323
0
0
0
0
0
0
0
0
0
0
0
0
0
0
0
0
0
0
0
0
0
0
0
0
0
0
0
0
0
0
0
0
0
0
0
0
0
0
0
0
0
0
0
0
0
0
0
0
0
0
0
0
0
0
0
0
0
0
0
0
0
0
0
0
0
0
0
0
0
0
0
0
0
0
0
0
0
0
0
0
0
0
0
0
0
0
0
0
0
0
0
0
0
0
0
0
0
0
0
0
0
0
0
0
0
0
0
0
0
0
0
0
0
0
0
0
0
0
0
0
0
0
0
0
0
0
0
0
0
0
0
0
0
0
0
0
0
0
0
0
0
0
0
0
0
0
0
0
0
0
0
0
0
0
0
0
0
0
0
0
0
0
0
0
0
0
0
0
0
0
0
0
0
0
0
0
0
0
0
0
0
0
0
0
0
0
)
;

boundaryField
{
    sides
    {
        type            zeroGradient;
    }
    empty
    {
        type            empty;
    }
}


// ************************************************************************* //
