/*--------------------------------*- C++ -*----------------------------------*\
| =========                 |                                                 |
| \\      /  F ield         | OpenFOAM: The Open Source CFD Toolbox           |
|  \\    /   O peration     | Version:  4.0                                   |
|   \\  /    A nd           | Web:      www.OpenFOAM.org                      |
|    \\/     M anipulation  |                                                 |
\*---------------------------------------------------------------------------*/
FoamFile
{
    version     2.0;
    format      ascii;
    class       volScalarField;
    location    "27";
    object      p;
}
// * * * * * * * * * * * * * * * * * * * * * * * * * * * * * * * * * * * * * //

dimensions      [0 2 -2 0 0 0 0];

internalField   nonuniform List<scalar> 
2200
(
0.477291
0.455791
0.439883
0.424214
0.409605
0.397079
0.386717
0.3786
0.372871
0.369811
0.370171
0.37383
0.380017
0.388453
0.399042
0.411745
0.42647
0.442261
0.458236
0.479749
0.409734
0.406477
0.403553
0.399435
0.393967
0.387489
0.380853
0.374862
0.37031
0.367833
0.368173
0.371305
0.376342
0.382694
0.389586
0.396236
0.401856
0.406005
0.408915
0.412223
0.369831
0.370053
0.372109
0.373446
0.373836
0.372979
0.370977
0.368261
0.365631
0.364045
0.36443
0.366721
0.369873
0.372973
0.375236
0.376224
0.375917
0.374836
0.373043
0.372799
0.347321
0.348773
0.351377
0.353838
0.356292
0.358307
0.359468
0.359703
0.359285
0.358855
0.359319
0.360525
0.361535
0.361745
0.360935
0.359188
0.356932
0.354609
0.351991
0.350575
0.333052
0.335016
0.337853
0.340712
0.343567
0.346386
0.34883
0.350645
0.351823
0.352482
0.353019
0.353272
0.35281
0.351539
0.349506
0.347002
0.344357
0.341564
0.338752
0.336825
0.325906
0.327507
0.32971
0.332234
0.334881
0.337521
0.340032
0.342359
0.344253
0.345554
0.346182
0.345982
0.344947
0.343258
0.341209
0.33892
0.336516
0.334132
0.332005
0.330422
0.322529
0.323544
0.324829
0.326732
0.328907
0.33107
0.333205
0.33541
0.337499
0.339147
0.339909
0.339618
0.338564
0.337116
0.335539
0.333775
0.331905
0.330201
0.329018
0.328011
0.320016
0.320653
0.321329
0.322714
0.324411
0.326142
0.327882
0.329736
0.331649
0.333397
0.334313
0.334211
0.333555
0.332655
0.331594
0.330395
0.32909
0.327967
0.32741
0.326768
0.317302
0.317732
0.318184
0.31926
0.320602
0.322029
0.323502
0.325056
0.326681
0.328304
0.329424
0.329811
0.329715
0.329338
0.328733
0.327935
0.327034
0.326264
0.325955
0.325519
0.313732
0.314017
0.314438
0.315469
0.316767
0.318204
0.319724
0.321268
0.322821
0.324405
0.325821
0.326734
0.327091
0.326969
0.326511
0.325817
0.325077
0.324416
0.324148
0.323855
0.309417
0.309563
0.309988
0.311058
0.312449
0.314068
0.315882
0.317784
0.319702
0.321588
0.323347
0.324522
0.324976
0.324847
0.324325
0.323653
0.322937
0.322294
0.322035
0.321885
0.305016
0.305063
0.305471
0.306484
0.30784
0.309488
0.311419
0.313604
0.316005
0.318479
0.320619
0.32193
0.322415
0.322396
0.322065
0.321591
0.321025
0.320537
0.320343
0.320283
0.300733
0.300718
0.301123
0.301974
0.303207
0.304728
0.306522
0.308664
0.311267
0.314191
0.316861
0.31872
0.319787
0.32034
0.32049
0.32035
0.320083
0.319832
0.319708
0.319688
0.296513
0.296394
0.29681
0.297533
0.298748
0.300246
0.302012
0.304186
0.30688
0.310136
0.313469
0.316154
0.318039
0.319209
0.31982
0.320062
0.320117
0.320083
0.32003
0.320015
0.292051
0.292005
0.292315
0.293081
0.29437
0.296016
0.298067
0.300623
0.303763
0.307593
0.311665
0.315029
0.317405
0.318967
0.319995
0.320591
0.320886
0.321001
0.321022
0.321012
0.287056
0.287053
0.287333
0.288113
0.289505
0.291323
0.29372
0.296841
0.30075
0.305536
0.31059
0.314707
0.317595
0.319597
0.321013
0.3219
0.322404
0.322682
0.32278
0.322768
0.281139
0.281099
0.281456
0.282268
0.283633
0.285574
0.28826
0.291881
0.296605
0.302549
0.308907
0.314175
0.317962
0.320695
0.322641
0.323941
0.324765
0.325242
0.325405
0.325372
0.273733
0.273673
0.274058
0.275006
0.276559
0.278776
0.281877
0.28612
0.291774
0.299026
0.306965
0.313665
0.318636
0.322253
0.324849
0.326653
0.327851
0.328534
0.328774
0.32872
0.264814
0.264743
0.265175
0.26629
0.268203
0.270978
0.274856
0.280131
0.287113
0.296024
0.305784
0.314038
0.320213
0.324716
0.327982
0.330272
0.331817
0.332672
0.332968
0.332893
0.254003
0.25395
0.254532
0.255958
0.258379
0.261915
0.266857
0.273546
0.28236
0.293446
0.305367
0.315413
0.322867
0.328338
0.332255
0.334996
0.336831
0.337831
0.338198
0.338112
0.240766
0.240673
0.241413
0.243247
0.246373
0.250918
0.257228
0.265773
0.276899
0.290685
0.305257
0.317454
0.326449
0.333039
0.337745
0.341072
0.34329
0.344488
0.344915
0.344799
0.22409
0.224034
0.225068
0.227487
0.231563
0.237491
0.245724
0.256675
0.27069
0.28774
0.30546
0.320152
0.330974
0.338911
0.344633
0.34866
0.351297
0.352715
0.353223
0.353078
0.203228
0.203105
0.204526
0.20781
0.213319
0.221338
0.232195
0.246362
0.264025
0.28496
0.306317
0.323866
0.336787
0.346232
0.353053
0.357886
0.361084
0.362801
0.36339
0.363187
0.175753
0.175895
0.178201
0.182997
0.190818
0.2019
0.216523
0.234961
0.257115
0.282645
0.30815
0.32883
0.343994
0.355121
0.363222
0.368981
0.372775
0.374775
0.375438
0.375199
0.139244
0.139648
0.143484
0.151202
0.162916
0.178855
0.198735
0.222542
0.250126
0.280971
0.311032
0.335101
0.352705
0.36565
0.375147
0.381989
0.386551
0.388972
0.389728
0.389362
0.0904456
0.0909938
0.098366
0.111278
0.129379
0.152288
0.178924
0.209365
0.243296
0.280023
0.314973
0.34261
0.362795
0.377702
0.388765
0.396844
0.402274
0.405018
0.405739
0.405293
0.0248133
0.0278477
0.0437144
0.065593
0.0924686
0.123499
0.158008
0.195982
0.236999
0.280361
0.320941
0.352886
0.376403
0.394017
0.407282
0.417257
0.424248
0.42757
0.428235
0.427967
-0.0509346
-0.0404981
-0.0136577
0.018054
0.0546569
0.094585
0.137204
0.18297
0.231348
0.281763
0.328585
0.365567
0.393182
0.414212
0.430423
0.442804
0.452107
0.456728
0.457954
0.458264
-0.117374
-0.101338
-0.0678162
-0.0278682
0.0178488
0.0663581
0.117095
0.170586
0.226216
0.283532
0.336394
0.378126
0.409205
0.433028
0.451494
0.465745
0.476109
0.482073
0.484007
0.484014
-0.166969
-0.152851
-0.114113
-0.0683838
-0.0156482
0.0399694
0.0980219
0.158723
0.221287
0.28524
0.343671
0.389452
0.42334
0.449278
0.469504
0.485102
0.496075
0.502142
0.504069
0.50421
-0.207786
-0.194636
-0.152626
-0.1031
-0.0451268
0.0161328
0.0804154
0.147504
0.216348
0.286264
0.349689
0.398914
0.435206
0.46256
0.483367
0.499257
0.51072
0.517029
0.519247
0.519431
-0.243032
-0.229601
-0.185302
-0.132996
-0.0710151
-0.00521261
0.0642568
0.136753
0.211052
0.286314
0.354352
0.40677
0.444727
0.472776
0.494196
0.510517
0.522142
0.528817
0.531215
0.531395
-0.273855
-0.260317
-0.214087
-0.159454
-0.0941497
-0.0245636
0.0492285
0.126315
0.205476
0.285753
0.357906
0.412739
0.451925
0.480987
0.502767
0.519192
0.531305
0.538138
0.540758
0.540907
-0.301677
-0.288098
-0.240219
-0.183411
-0.115216
-0.0424679
0.03498
0.116094
0.199638
0.284391
0.360236
0.417457
0.458293
0.487989
0.510216
0.526935
0.538861
0.546026
0.548368
0.548228
-0.327137
-0.313619
-0.264459
-0.205527
-0.134725
-0.0593098
0.0212652
0.105909
0.193321
0.281986
0.361456
0.421418
0.463773
0.494447
0.517123
0.533991
0.545793
0.552668
0.555148
0.555053
-0.35116
-0.337346
-0.287236
-0.226294
-0.153127
-0.0753923
0.00787327
0.095573
0.186427
0.27892
0.36238
0.425277
0.469146
0.500758
0.523796
0.540621
0.552437
0.559209
0.561689
0.561713
-0.373747
-0.359779
-0.308894
-0.246125
-0.170916
-0.0910519
-0.00537339
0.0850369
0.17906
0.275346
0.362576
0.428395
0.474489
0.507125
0.530487
0.547408
0.559229
0.565798
0.568354
0.568374
-0.395104
-0.381169
-0.329643
-0.26533
-0.188382
-0.10653
-0.0186108
0.0742678
0.171187
0.270888
0.361992
0.43129
0.479629
0.513302
0.537356
0.554458
0.566298
0.572813
0.575168
0.575181
-0.41568
-0.40154
-0.349634
-0.284092
-0.205701
-0.122002
-0.0319733
0.0632032
0.16286
0.266028
0.361259
0.433895
0.484423
0.519842
0.544586
0.561871
0.573586
0.579817
0.582126
0.582077
-0.435958
-0.421228
-0.369009
-0.302437
-0.222855
-0.137504
-0.045529
0.0518372
0.154036
0.260267
0.358761
0.434953
0.488951
0.526581
0.552314
0.569721
0.581122
0.587148
0.589125
0.588967
-0.455921
-0.440394
-0.387866
-0.320355
-0.239785
-0.15301
-0.0592987
0.0400222
0.144418
0.253236
0.355461
0.435868
0.493253
0.533468
0.560764
0.578406
0.589149
0.594299
0.595966
0.595715
-0.475451
-0.459175
-0.406226
-0.3378
-0.256388
-0.168445
-0.0732967
0.0276975
0.134131
0.245587
0.351263
0.435268
0.496835
0.540547
0.570081
0.588275
0.597872
0.601782
0.602506
0.602224
-0.494349
-0.477533
-0.424092
-0.354756
-0.272591
-0.18371
-0.0873935
0.0150774
0.123285
0.236893
0.345086
0.433432
0.499528
0.547467
0.580344
0.60014
0.608693
0.608731
0.607956
0.608432
-0.512603
-0.495389
-0.441416
-0.371213
-0.288351
-0.198691
-0.101443
0.00216182
0.111786
0.227158
0.338238
0.430771
0.501117
0.553988
0.59143
0.614285
0.623207
0.61889
0.613594
0.611312
-0.530169
-0.512644
-0.458161
-0.387161
-0.303644
-0.213334
-0.115374
-0.010894
0.0999694
0.217074
0.330477
0.425588
0.50057
0.55941
0.602959
0.631204
0.644671
0.63482
0.629984
0.634728
-0.54707
-0.529234
-0.474264
-0.40257
-0.318468
-0.227595
-0.12904
-0.0238384
0.0879873
0.206533
0.321456
0.419099
0.498285
0.562572
0.613334
0.649688
0.672178
0.652675
0.60818
0.564379
-0.563237
-0.545167
-0.489766
-0.417515
-0.332937
-0.241607
-0.142601
-0.0368915
0.0756332
0.195063
0.311032
0.410455
0.492574
0.562456
0.621126
0.668597
0.70642
0.713691
0.732746
0.783773
-0.578636
-0.560496
-0.504747
-0.43212
-0.347233
-0.255618
-0.156355
-0.0503951
0.0624057
0.182122
0.298867
0.399224
0.482996
0.556421
0.618704
0.66819
0.698852
0.699709
0.670534
0.67908
-0.593232
-0.575192
-0.519165
-0.446323
-0.36127
-0.269539
-0.170209
-0.0642725
0.0483877
0.168071
0.284863
0.384746
0.467792
0.540481
0.601314
0.646272
0.649687
0.608901
0.55207
0.542681
-0.60705
-0.589252
-0.533015
-0.460114
-0.375039
-0.28338
-0.18419
-0.078541
0.033651
0.152666
0.268574
0.367077
0.447167
0.513748
0.567247
0.585417
0.556609
0.48747
0.416592
0.403202
-0.620123
-0.602672
-0.546317
-0.473515
-0.388554
-0.297148
-0.198294
-0.0931802
0.0181789
0.136023
0.250482
0.346505
0.420285
0.473883
0.503195
0.49506
0.447155
0.348104
0.262173
0.244744
-0.632908
-0.615868
-0.559466
-0.486887
-0.402158
-0.311144
-0.212792
-0.10842
0.00183212
0.118034
0.230002
0.321957
0.389375
0.426796
0.42164
0.387998
0.283985
0.163001
0.0564501
0.0330558
-0.64629
-0.62961
-0.573155
-0.500857
-0.416421
-0.325832
-0.228061
-0.124554
-0.0156315
0.0983529
0.207191
0.294089
0.353715
0.368499
0.331137
0.246016
0.0892303
-0.0634074
-0.191096
-0.21617
-0.660774
-0.644332
-0.5877
-0.515653
-0.431515
-0.341325
-0.244168
-0.141618
-0.0342173
0.0772157
0.18202
0.263204
0.310755
0.299673
0.240025
0.0896127
-0.115594
-0.332426
-0.514767
-0.560925
-0.676434
-0.66008
-0.60315
-0.531297
-0.447417
-0.35758
-0.26105
-0.159549
-0.053801
0.0547113
0.154319
0.230295
0.262701
0.218739
0.125329
-0.0706694
-0.312948
-0.612984
-0.943884
-1.08682
-0.693325
-0.676987
-0.619601
-0.547853
-0.464158
-0.374646
-0.27876
-0.178374
-0.074454
0.0308185
0.124609
0.194227
0.210542
0.133468
-0.0112778
-0.23157
-0.4817
-0.844236
-1.45244
-2.03551
-0.711463
-0.695056
-0.637106
-0.565378
-0.481758
-0.392515
-0.297255
-0.198045
-0.0960288
0.00602851
0.0941071
0.156009
0.155137
0.0559617
-0.145559
-0.39998
-0.621962
-0.881603
-1.47713
-3.07105
-0.730882
-0.714404
-0.655734
-0.583967
-0.500348
-0.411369
-0.31677
-0.218786
-0.118775
-0.0200426
0.0620436
0.114608
0.0952987
-0.00628334
-0.246349
-0.512763
-0.678737
-0.736127
-0.755953
-1.16068
-0.751494
-0.73502
-0.675643
-0.603916
-0.52031
-0.431671
-0.337864
-0.241315
-0.14365
-0.048871
0.0277462
0.0698192
0.0330405
-0.0557002
-0.299336
-0.53264
-0.663204
-0.683957
-0.640468
-0.685865
-0.773291
-0.75682
-0.696817
-0.625251
-0.541663
-0.453492
-0.360651
-0.265734
-0.170739
-0.0803501
-0.0082983
0.0244632
-0.0241515
-0.109287
-0.33683
-0.525642
-0.622494
-0.633283
-0.679062
-0.690995
-0.796117
-0.779478
-0.719203
-0.647976
-0.56437
-0.476811
-0.385097
-0.291984
-0.199923
-0.114289
-0.047208
-0.0231213
-0.0742769
-0.168906
-0.369725
-0.518093
-0.603008
-0.566665
-0.593615
-0.596252
-0.819792
-0.802737
-0.742724
-0.671949
-0.588229
-0.501475
-0.411032
-0.319929
-0.231096
-0.150162
-0.0879656
-0.073758
-0.12011
-0.23937
-0.410976
-0.518064
-0.576622
-0.608067
-0.592484
-0.599442
-0.843692
-0.826319
-0.767346
-0.696933
-0.612987
-0.527258
-0.438201
-0.349173
-0.263856
-0.187473
-0.129527
-0.127209
-0.163259
-0.304771
-0.454409
-0.534289
-0.532908
-0.594448
-0.569639
-0.578018
-0.867417
-0.850027
-0.792551
-0.722348
-0.638327
-0.553847
-0.466178
-0.379296
-0.297833
-0.226035
-0.17113
-0.179584
-0.214069
-0.361168
-0.489392
-0.573151
-0.540554
-0.574796
-0.569019
-0.570838
-0.890435
-0.873456
-0.817439
-0.747512
-0.663871
-0.580737
-0.494468
-0.409692
-0.332318
-0.265037
-0.210812
-0.229997
-0.275855
-0.410631
-0.509658
-0.57659
-0.592353
-0.575313
-0.580185
-0.574
-0.912099
-0.895838
-0.841074
-0.771676
-0.68926
-0.607391
-0.522426
-0.439631
-0.365926
-0.304203
-0.249158
-0.279376
-0.343364
-0.457109
-0.51083
-0.54912
-0.617227
-0.567964
-0.582074
-0.573594
-0.931449
-0.916253
-0.862871
-0.79419
-0.713773
-0.632788
-0.549091
-0.468283
-0.397513
-0.342104
-0.285264
-0.324217
-0.417711
-0.522012
-0.521173
-0.43525
-0.548478
-0.519072
-0.559032
-0.559022
-0.947385
-0.933567
-0.881985
-0.814419
-0.736255
-0.656011
-0.57373
-0.494566
-0.425693
-0.377222
-0.3197
-0.358215
-0.495253
-0.601702
-0.569159
-0.451074
-0.498951
-0.527561
-0.554807
-0.56535
-0.958854
-0.946807
-0.897771
-0.83161
-0.755233
-0.675863
-0.594946
-0.517427
-0.449101
-0.406274
-0.354671
-0.379961
-0.571134
-0.769539
-0.875198
-0.890253
-0.887215
-0.869319
-0.847426
-0.830745
-0.964816
-0.954715
-0.908762
-0.844282
-0.769355
-0.691237
-0.611671
-0.535262
-0.46725
-0.42547
-0.384531
-0.392784
-0.630167
-0.995341
-1.46138
-1.72554
-1.7707
-1.72107
-1.61154
-1.5258
-0.964421
-0.956213
-0.913942
-0.851387
-0.777829
-0.701042
-0.622546
-0.546278
-0.477037
-0.431317
-0.398831
-0.393204
-0.629148
-1.02272
-1.56678
-1.88348
-1.91231
-1.79596
-1.68959
-1.62383
-0.956566
-0.949461
-0.911477
-0.851415
-0.779629
-0.703909
-0.626009
-0.549332
-0.47605
-0.42092
-0.38684
-0.361586
-0.493404
-0.634487
-0.811481
-0.878397
-0.812386
-0.716488
-0.599157
-0.501876
-0.938921
-0.931857
-0.8999
-0.843662
-0.774142
-0.699447
-0.621543
-0.543081
-0.463368
-0.392275
-0.339055
-0.245888
-0.179596
0.033571
0.254266
0.450277
0.631603
0.753377
0.818679
0.850455
-0.906938
-0.900336
-0.877485
-0.827705
-0.76115
-0.687459
-0.609022
-0.52764
-0.440303
-0.348567
-0.266343
-0.112655
0.119161
0.513936
0.931023
1.27206
1.51269
1.65624
1.72112
1.74289
-0.860236
-0.855511
-0.846225
-0.804535
-0.741686
-0.668906
-0.590095
-0.506229
-0.414368
-0.305086
-0.196578
-0.0562662
0.252167
0.654508
1.07015
1.42409
1.68679
1.84482
1.91396
1.93165
-0.818969
-0.818045
-0.814029
-0.777632
-0.718874
-0.647624
-0.568339
-0.483435
-0.391921
-0.279191
-0.164336
-0.0705338
0.185919
0.5193
0.854422
1.14118
1.36764
1.50826
1.57502
1.59635
-0.786993
-0.789321
-0.782008
-0.750705
-0.69354
-0.624492
-0.547465
-0.464448
-0.378563
-0.281694
-0.175524
-0.109586
0.0653816
0.323967
0.585084
0.797074
0.964116
1.07773
1.13269
1.15113
-0.74129
-0.744045
-0.740063
-0.715955
-0.662799
-0.598489
-0.52732
-0.450746
-0.373709
-0.294933
-0.198709
-0.143005
-0.0337692
0.163251
0.373992
0.535023
0.657645
0.746936
0.787753
0.79804
-0.67727
-0.679617
-0.678757
-0.662024
-0.619033
-0.565311
-0.504901
-0.438947
-0.371586
-0.305871
-0.222717
-0.170756
-0.110016
0.0330492
0.196827
0.312847
0.399892
0.463101
0.492016
0.499466
-0.596119
-0.597943
-0.597917
-0.587145
-0.558094
-0.520376
-0.474516
-0.42257
-0.364486
-0.309797
-0.241241
-0.193124
-0.160381
-0.0551346
0.0622671
0.14082
0.202555
0.24953
0.268614
0.274452
-0.509173
-0.510714
-0.510773
-0.504654
-0.488727
-0.466092
-0.435271
-0.399444
-0.350694
-0.30902
-0.255763
-0.21202
-0.195783
-0.112011
-0.0294812
0.0225569
0.0678478
0.102984
0.120031
0.125405
-0.432772
-0.433827
-0.434318
-0.43193
-0.42498
-0.413365
-0.395309
-0.373502
-0.334278
-0.305562
-0.266707
-0.233667
-0.220329
-0.15601
-0.0973048
-0.0580938
-0.0256166
-0.00301264
0.0100188
0.0143784
-0.376465
-0.37706
-0.377889
-0.378152
-0.376494
-0.371847
-0.362291
-0.350628
-0.320225
-0.299947
-0.271041
-0.250536
-0.236295
-0.194075
-0.151668
-0.1199
-0.0959783
-0.0836233
-0.0791267
-0.0779027
-0.341455
-0.341854
-0.342834
-0.344321
-0.345498
-0.344687
-0.339737
-0.332309
-0.312001
-0.292823
-0.268446
-0.254951
-0.242852
-0.21563
-0.185618
-0.16497
-0.15212
-0.146337
-0.145618
-0.146604
-0.323854
-0.324003
-0.324745
-0.326404
-0.328447
-0.328979
-0.32616
-0.320127
-0.305861
-0.286134
-0.259721
-0.246651
-0.237446
-0.222035
-0.203433
-0.193784
-0.188447
-0.185337
-0.186009
-0.188854
-0.320108
-0.319988
-0.320249
-0.321308
-0.322706
-0.322619
-0.319915
-0.313699
-0.301347
-0.281763
-0.252657
-0.233862
-0.225864
-0.217931
-0.20739
-0.205803
-0.207539
-0.213914
-0.217039
-0.218845
-0.328411
-0.328048
-0.327891
-0.328368
-0.329338
-0.325688
-0.323496
-0.316277
-0.302876
-0.285157
-0.251537
-0.226679
-0.212312
-0.212705
-0.212453
-0.219402
-0.218738
-0.226489
-0.231196
-0.231297
-0.348385
-0.347375
-0.346572
-0.346079
-0.345489
-0.343227
-0.340193
-0.332826
-0.32147
-0.301571
-0.263404
-0.235388
-0.211915
-0.228355
-0.21832
-0.219582
-0.21194
-0.20127
-0.201554
-0.202513
-0.378062
-0.377373
-0.376679
-0.375617
-0.37462
-0.37252
-0.370445
-0.365059
-0.359007
-0.341451
-0.307252
-0.270821
-0.257163
-0.263758
-0.232016
-0.208891
-0.187612
-0.161776
-0.150062
-0.160954
-0.416569
-0.415974
-0.415629
-0.415084
-0.414716
-0.414615
-0.416247
-0.418112
-0.422502
-0.41629
-0.383869
-0.330566
-0.320618
-0.311851
-0.271385
-0.23019
-0.200167
-0.182764
-0.167919
-0.177714
-0.461776
-0.461389
-0.461426
-0.46211
-0.464011
-0.468405
-0.47777
-0.493552
-0.514602
-0.53005
-0.49722
-0.414988
-0.379658
-0.360115
-0.325141
-0.29025
-0.257826
-0.254171
-0.244478
-0.244321
-0.508538
-0.508697
-0.509745
-0.512127
-0.517558
-0.529019
-0.551147
-0.588355
-0.636231
-0.690637
-0.66163
-0.539917
-0.469556
-0.421607
-0.379384
-0.344374
-0.299231
-0.286028
-0.296765
-0.293292
-0.546178
-0.547114
-0.549564
-0.554495
-0.564816
-0.585611
-0.624693
-0.689958
-0.787473
-0.890174
-0.863971
-0.712952
-0.616268
-0.531735
-0.449356
-0.390471
-0.362241
-0.340109
-0.351114
-0.352121
-0.562212
-0.563985
-0.568383
-0.576183
-0.590839
-0.620217
-0.675249
-0.769283
-0.921323
-1.0667
-1.05438
-0.894532
-0.765795
-0.638948
-0.539785
-0.466927
-0.451876
-0.447251
-0.443159
-0.443198
-0.545801
-0.548577
-0.551807
-0.560877
-0.579968
-0.614362
-0.676202
-0.782634
-0.958144
-1.14941
-1.16979
-0.986042
-0.828828
-0.683226
-0.594095
-0.55104
-0.511539
-0.522701
-0.514212
-0.512749
-0.497478
-0.49987
-0.50341
-0.510561
-0.527388
-0.561565
-0.623858
-0.730885
-0.8977
-1.08132
-1.10944
-0.936885
-0.764932
-0.664237
-0.593687
-0.557344
-0.548303
-0.544712
-0.540631
-0.538959
-0.417523
-0.419383
-0.422718
-0.428983
-0.442272
-0.469794
-0.521307
-0.611006
-0.74739
-0.88945
-0.910661
-0.765519
-0.625296
-0.58696
-0.562287
-0.524062
-0.536009
-0.529812
-0.526477
-0.524252
-0.319978
-0.321093
-0.323049
-0.327044
-0.33598
-0.354992
-0.390946
-0.453739
-0.547345
-0.641733
-0.647019
-0.539901
-0.488693
-0.481743
-0.482863
-0.487973
-0.484244
-0.47759
-0.472354
-0.470089
-0.219635
-0.220106
-0.220846
-0.222424
-0.226992
-0.237725
-0.258767
-0.296261
-0.351558
-0.409276
-0.399169
-0.328676
-0.342561
-0.357511
-0.373532
-0.397556
-0.383562
-0.380593
-0.378941
-0.377185
-0.132469
-0.132521
-0.132711
-0.133157
-0.134756
-0.138953
-0.147313
-0.162366
-0.182782
-0.20672
-0.195333
-0.19715
-0.213743
-0.240108
-0.263088
-0.274066
-0.269018
-0.268295
-0.267356
-0.266449
-0.0625682
-0.0622643
-0.0620748
-0.0611209
-0.0604068
-0.0608547
-0.0629554
-0.0680245
-0.0707542
-0.062805
-0.055828
-0.086748
-0.107269
-0.132804
-0.149238
-0.153055
-0.153545
-0.153577
-0.152592
-0.152293
-0.0141973
-0.0137319
-0.0131387
-0.0114814
-0.0100177
-0.00919205
-0.00803335
-0.00664535
-0.00397485
0.000696953
-0.0137335
-0.0281052
-0.033372
-0.0408601
-0.0467599
-0.0419541
-0.0425043
-0.0442124
-0.0449411
-0.0452437
-1.44033
-0.564379
-0.291444
-0.00452019
0.188615
0.355696
0.495591
0.637604
0.789387
0.866386
-0.428931
-0.0048474
0.0211786
0.216345
0.350798
0.470944
0.575335
0.667236
0.697763
0.653663
-0.0278939
0.195756
0.238405
0.378687
0.471798
0.557399
0.628028
0.680638
0.684727
0.69712
0.214059
0.366282
0.402727
0.5113
0.570192
0.632222
0.679538
0.713131
0.723089
0.746177
0.403732
0.507974
0.538222
0.611871
0.656377
0.700449
0.734027
0.758983
0.769418
0.800473
0.5498
0.622458
0.652981
0.699044
0.736082
0.767614
0.792885
0.813914
0.828595
0.856509
0.672385
0.724912
0.751155
0.780619
0.809424
0.83397
0.854531
0.874045
0.889238
0.915509
0.778099
0.816594
0.83813
0.859506
0.881142
0.901098
0.918807
0.937148
0.952115
0.975718
0.873738
0.902858
0.920185
0.935968
0.952627
0.969039
0.984777
1.00187
1.01547
1.03778
0.962859
0.983787
0.999014
1.01248
1.02633
1.04031
1.05388
1.06852
1.08005
1.09972
1.04928
1.06519
1.07919
1.09119
1.10326
1.11495
1.12609
1.13779
1.14545
1.16226
1.13488
1.14784
1.16165
1.17334
1.18391
1.19366
1.20243
1.21068
1.21425
1.22554
1.22426
1.23526
1.24873
1.25795
1.26538
1.27256
1.27976
1.28633
1.28733
1.29477
1.32271
1.32745
1.33549
1.33998
1.34325
1.34772
1.35372
1.36149
1.36531
1.3752
1.43603
1.42232
1.41488
1.40925
1.40658
1.40798
1.41449
1.4269
1.44165
1.4713
1.55692
1.5012
1.47034
1.45327
1.44513
1.44513
1.45381
1.47331
1.50533
1.57451
)
;

boundaryField
{
    wall-4
    {
        type            zeroGradient;
    }
    pressure-outlet-7
    {
        type            fixedValue;
        value           uniform 0;
    }
    velocity-inlet-6
    {
        type            zeroGradient;
    }
    velocity-inlet-5
    {
        type            zeroGradient;
    }
    frontAndBackPlanes
    {
        type            empty;
    }
}


// ************************************************************************* //
