/*--------------------------------*- C++ -*----------------------------------*\
| =========                 |                                                 |
| \\      /  F ield         | OpenFOAM: The Open Source CFD Toolbox           |
|  \\    /   O peration     | Version:  4.0                                   |
|   \\  /    A nd           | Web:      www.OpenFOAM.org                      |
|    \\/     M anipulation  |                                                 |
\*---------------------------------------------------------------------------*/
FoamFile
{
    version     2.0;
    format      ascii;
    class       surfaceScalarField;
    location    "27";
    object      phi;
}
// * * * * * * * * * * * * * * * * * * * * * * * * * * * * * * * * * * * * * //

dimensions      [0 3 -1 0 0 0 0];

internalField   nonuniform List<scalar> 
4262
(
0.107145
0.470844
0.0955887
0.705142
0.0694228
0.858469
0.0474727
1.02071
0.0311825
1.21481
0.0199964
1.44941
0.0125475
1.73331
0.00729347
2.07629
0.00330948
2.48923
-0.000285521
2.98589
-0.00385045
2.98586
-0.00782337
2.48922
-0.0130395
2.07625
-0.0204192
1.73324
-0.031455
1.44926
-0.0476058
1.21467
-0.0694252
1.02058
-0.0955399
0.858418
-0.107177
0.705223
0.470811
0.112862
0.357981
0.135264
0.68274
0.120304
0.87343
0.0976302
1.04339
0.0742639
1.23817
0.0524828
1.47119
0.0341518
1.75164
0.0202132
2.09023
0.00920735
2.50023
-0.000870331
2.99596
-0.0109803
2.99597
-0.0218543
2.50009
-0.0355811
2.08998
-0.0537117
1.75137
-0.0754239
1.47097
-0.0988879
1.23813
-0.121771
1.04347
-0.136159
0.872806
-0.113252
0.682316
0.357559
0.0920321
0.265949
0.124973
0.649799
0.121146
0.877256
0.104812
1.05972
0.0859999
1.25699
0.0669334
1.49025
0.0482885
1.77029
0.0304429
2.10807
0.014094
2.51658
-0.0014803
3.01154
-0.0170178
3.0115
-0.0330517
2.51612
-0.0505822
2.10751
-0.068822
1.76961
-0.0874462
1.48959
-0.105571
1.25626
-0.12091
1.05881
-0.125315
0.877211
-0.092243
0.649244
0.265316
0.0639815
0.201967
0.104845
0.608936
0.106786
0.875315
0.0956657
1.07084
0.0818781
1.27077
0.0672123
1.50492
0.0510488
1.78645
0.0339192
2.1252
0.0163453
2.53416
-0.00234215
3.03023
-0.0207046
3.02987
-0.0377029
2.53312
-0.0542122
2.12402
-0.0699972
1.7854
-0.0842685
1.50386
-0.0978199
1.26981
-0.108916
1.0699
-0.106178
0.874473
-0.0645343
0.6076
0.200782
0.0373234
0.164644
0.0803214
0.565938
0.0905154
0.865121
0.0835746
1.07778
0.0715366
1.28281
0.0598413
1.51661
0.0468088
1.79948
0.0319404
2.14007
0.0154793
2.55062
-0.00298306
3.04869
-0.0212439
3.04813
-0.037367
2.54925
-0.0518402
2.13849
-0.0641347
1.79769
-0.0751491
1.51488
-0.0866522
1.28131
-0.092986
1.07623
-0.0819043
0.863392
-0.0378978
0.563594
0.162884
0.0193058
0.145338
0.0568854
0.528359
0.0720623
0.849944
0.0698147
1.08003
0.061159
1.29147
0.0508123
1.52696
0.0399522
1.81034
0.0276786
2.15235
0.0129725
2.56532
-0.00406944
3.06573
-0.0208549
3.06491
-0.0349014
2.56329
-0.0461216
2.14971
-0.0561292
1.8077
-0.065811
1.52456
-0.0736702
1.28917
-0.0750693
1.07763
-0.0587396
0.847062
-0.0199125
0.524767
0.142972
0.0105843
0.134754
0.0421514
0.496791
0.0583527
0.833742
0.058512
1.07987
0.0521742
1.2978
0.0428845
1.53625
0.0330082
1.82022
0.0222374
2.16312
0.00993631
2.57762
-0.00488133
3.08055
-0.0193123
3.07934
-0.030774
2.57475
-0.0405989
2.15954
-0.0495363
1.81664
-0.0578404
1.53286
-0.0631452
1.29447
-0.0619358
1.07642
-0.0443352
0.829461
-0.0112798
0.491711
0.131692
0.00632664
0.128427
0.0318402
0.471278
0.047726
0.817857
0.0493445
1.07825
0.0444797
1.30267
0.0364718
1.54426
0.0273987
1.82929
0.0174359
2.17308
0.00633598
2.58872
-0.00653543
3.09342
-0.0188597
3.09167
-0.0288991
2.58479
-0.0375884
2.16823
-0.0449328
1.82398
-0.0515506
1.53948
-0.0551886
1.29811
-0.0522119
1.07345
-0.0344746
0.811724
-0.00713331
0.46437
0.124559
0.00411505
0.124312
0.0247686
0.450624
0.0399399
0.802685
0.0423324
1.07586
0.0383251
1.30668
0.0314776
1.55111
0.02339
1.83738
0.0141764
2.18229
0.00375208
2.59915
-0.00797878
3.10515
-0.0191322
3.10282
-0.028224
2.59389
-0.0357115
2.17571
-0.0424354
1.83071
-0.0479686
1.54501
-0.0502426
1.30039
-0.0457713
1.06898
-0.0281937
0.794146
-0.00522119
0.441398
0.119337
0.00312287
0.121189
0.0196971
0.43405
0.0338901
0.788492
0.0369673
1.07278
0.033653
1.30999
0.0273634
1.5574
0.0198813
1.84486
0.010958
2.19122
0.000860715
2.60925
-0.0100568
3.11607
-0.0202476
3.11301
-0.0284825
2.60212
-0.0353032
2.18253
-0.0406432
1.83605
-0.0445348
1.54891
-0.0457898
1.30164
-0.0405358
1.06372
-0.0235693
0.77718
-0.00434993
0.422178
0.114987
0.00220204
0.118987
0.0141259
0.422126
0.0263769
0.776241
0.0294035
1.06976
0.02672
1.31267
0.0217052
1.56241
0.0154134
1.85116
0.00756888
2.19906
-0.00179789
2.61861
-0.0123577
3.12663
-0.0220142
3.12267
-0.0293592
2.60947
-0.0347795
2.18796
-0.0384098
1.83968
-0.0410324
1.55153
-0.041254
1.30186
-0.0351687
1.05764
-0.0191328
0.761144
-0.00382373
0.406869
0.111164
0.00108404
0.117903
0.00854374
0.414666
0.01839
0.766395
0.0210361
1.06711
0.0184665
1.31524
0.0139071
1.56697
0.00805764
1.857
0.00127772
2.20584
-0.00663516
2.62653
-0.0155096
3.1355
-0.0232037
3.13036
-0.0282797
2.61454
-0.0315496
2.19122
-0.0342713
1.8424
-0.0358997
1.55316
-0.0350446
1.30101
-0.0285064
1.0511
-0.0143365
0.746974
-0.00311633
0.395649
0.108047
0.000127238
0.117776
0.00351729
0.411276
0.0104275
0.759485
0.0124896
1.06505
0.0100989
1.31763
0.00594663
1.57112
0.000684895
1.86227
-0.00539105
2.21192
-0.0119792
2.63311
-0.0188435
3.14237
-0.0242875
3.13581
-0.0277261
2.61798
-0.0298994
2.1934
-0.0311991
1.8437
-0.031524
1.55348
-0.0299942
1.29948
-0.0230899
1.04419
-0.0106918
0.734576
-0.00245385
0.387411
0.105594
-0.000708434
0.118485
-0.00019996
0.410768
0.00434214
0.754943
0.0058918
1.0635
0.00351055
1.32002
-0.000789119
1.57542
-0.00613193
1.86761
-0.0120402
2.21783
-0.0182381
2.63931
-0.024246
3.14837
-0.0285044
3.14007
-0.0305954
2.62007
-0.0311544
2.19396
-0.0305598
1.8431
-0.0292472
1.55217
-0.0264563
1.29669
-0.0192928
1.03703
-0.00863871
0.723922
-0.00215772
0.38093
0.103436
-0.00159294
0.120077
-0.00295305
0.412128
-0.00170476
0.753695
-0.00144883
1.06324
-0.0039345
1.3225
-0.00780755
1.5793
-0.0126103
1.87241
-0.0180988
2.22331
-0.0240219
2.64523
-0.0296107
3.15396
-0.0329417
3.1434
-0.0336624
2.62079
-0.0329801
2.19328
-0.0313393
1.84146
-0.0290694
1.5499
-0.0253294
1.29295
-0.0178162
1.02952
-0.00804712
0.714153
-0.00218338
0.375066
0.101252
-0.00249077
0.122568
-0.00601045
0.415648
-0.00737315
0.755057
-0.00827362
1.06414
-0.0112384
1.32547
-0.0155277
1.58358
-0.0205105
1.8774
-0.0260359
2.22884
-0.0318241
2.65102
-0.0369341
3.15907
-0.0392521
3.14571
-0.0385209
2.62006
-0.0363752
2.19113
-0.033623
1.83871
-0.02979
1.54607
-0.0244418
1.2876
-0.0164622
1.02154
-0.00764467
0.705335
-0.00220998
0.369632
0.0990424
-0.00338173
0.12595
-0.0089441
0.42121
-0.0125275
0.758641
-0.0151795
1.06679
-0.0185519
1.32884
-0.023026
1.58806
-0.028481
1.88285
-0.0346034
2.23496
-0.0406976
2.65712
-0.0455735
3.16395
-0.0469719
3.14711
-0.0450791
2.61817
-0.0413583
2.18741
-0.0370306
1.83438
-0.0321365
1.54117
-0.0261105
1.28157
-0.0176065
1.01303
-0.00853583
0.696264
-0.00253102
0.363627
0.0965114
-0.00379282
0.129743
-0.0107128
0.42813
-0.0160464
0.763974
-0.0196056
1.07035
-0.0240196
1.33325
-0.029791
1.59383
-0.0365943
1.88965
-0.0442162
2.24258
-0.0517004
2.6646
-0.0572594
3.16951
-0.0582249
3.14808
-0.0557588
2.6157
-0.0510817
2.18273
-0.045311
1.82861
-0.0382214
1.53408
-0.0298559
1.27321
-0.0197879
1.00297
-0.0100843
0.686561
-0.00312148
0.356664
0.0933899
-0.00495366
0.134696
-0.014172
0.437348
-0.0220544
0.771857
-0.0269737
1.07527
-0.0315118
1.33779
-0.037752
1.60007
-0.0459166
1.89782
-0.0552982
2.25196
-0.0644526
2.67376
-0.0710696
3.17613
-0.0721723
3.14918
-0.0689597
2.61249
-0.0626627
2.17643
-0.0550084
1.82096
-0.046123
1.5252
-0.036037
1.26312
-0.0243196
0.991249
-0.0127905
0.675032
-0.00397901
0.347852
0.0894109
-0.00613794
0.140834
-0.0172432
0.448454
-0.0273358
0.781949
-0.034326
1.08226
-0.0407885
1.34425
-0.0491091
1.60839
-0.0594196
1.90813
-0.0707936
2.26334
-0.0816042
2.68457
-0.0887627
3.18328
-0.0891043
3.14952
-0.084319
2.6077
-0.0766878
2.1688
-0.0672112
1.81148
-0.0558606
1.51385
-0.042622
1.24988
-0.0283583
0.976985
-0.0151732
0.661847
-0.00480471
0.337484
0.0846062
-0.00827673
0.149111
-0.0232271
0.463404
-0.0367311
0.795453
-0.0460515
1.09158
-0.0541033
1.35231
-0.0642474
1.61853
-0.076678
1.92056
-0.0901885
2.27685
-0.10219
2.69657
-0.109228
3.19032
-0.108528
3.14882
-0.101953
2.60113
-0.0916673
2.15852
-0.0790196
1.79883
-0.0650081
1.49984
-0.0497226
1.2346
-0.0337651
0.961028
-0.018324
0.646406
-0.00570031
0.32486
0.0789059
-0.0103091
0.15942
-0.0290594
0.482154
-0.0469428
0.813337
-0.0602507
1.10489
-0.0718722
1.36393
-0.0853455
1.63201
-0.100879
1.93609
-0.116491
2.29246
-0.129387
2.70946
-0.135736
3.19667
-0.132363
3.14545
-0.122344
2.59111
-0.109167
2.14534
-0.0939203
1.78359
-0.077116
1.48303
-0.0588767
1.21636
-0.0398206
0.941972
-0.021604
0.628189
-0.00670879
0.309965
0.0721971
-0.0149766
0.174397
-0.0404633
0.507641
-0.0633956
0.836269
-0.0808693
1.12237
-0.0965556
1.37961
-0.11397
1.64942
-0.132325
1.95445
-0.149554
2.30969
-0.162311
2.72222
-0.166324
3.20068
-0.159379
3.13851
-0.145939
2.57767
-0.128945
2.12835
-0.109807
1.76445
-0.0896565
1.46288
-0.0689013
1.1956
-0.0476341
0.920705
-0.0261953
0.60675
-0.00794492
0.291715
0.0642522
-0.0190866
0.193484
-0.0521488
0.540703
-0.0832464
0.867367
-0.107747
1.14687
-0.129939
1.40181
-0.152126
1.67161
-0.17358
1.9759
-0.191732
2.32784
-0.203143
2.73363
-0.203818
3.20136
-0.192182
3.12687
-0.173447
2.55893
-0.151989
2.10689
-0.129567
1.74203
-0.106695
1.44001
-0.0828538
1.17176
-0.0570644
0.894915
-0.0306582
0.580344
-0.00903971
0.270096
0.0552125
-0.0333309
0.226814
-0.0784125
0.585785
-0.117799
0.906753
-0.148449
1.17752
-0.176566
1.42992
-0.20325
1.69829
-0.226548
1.9992
-0.24408
2.34538
-0.252519
2.74207
-0.24781
3.19665
-0.229304
3.10836
-0.205154
2.53479
-0.179094
2.08083
-0.152266
1.7152
-0.125292
1.41304
-0.0975389
1.14401
-0.0679084
0.865284
-0.0368641
0.5493
-0.0105063
0.243738
0.0447062
-0.0471207
0.273935
-0.115139
0.653803
-0.169106
0.960721
-0.20806
1.21647
-0.243039
1.4649
-0.271668
1.72692
-0.294048
2.02158
-0.307998
2.35932
-0.310285
2.74436
-0.297393
3.18376
-0.27203
3.083
-0.242159
2.50491
-0.210955
2.04962
-0.180485
1.68473
-0.150732
1.38328
-0.119256
1.11253
-0.0828339
0.828863
-0.0420068
0.508473
-0.0105094
0.212241
0.0341968
-0.0320906
0.306026
-0.0892044
0.710916
-0.139782
1.0113
-0.183863
1.26055
-0.225286
1.50632
-0.262351
1.76399
-0.296671
2.0559
-0.3255
2.38815
-0.345066
2.76392
-0.348903
3.1876
-0.331218
3.06532
-0.300149
2.47385
-0.26252
2.01199
-0.220984
1.64319
-0.177344
1.33964
-0.131299
1.06649
-0.0813131
0.778877
-0.0352563
0.462416
-0.007674
0.184659
0.0265228
-0.00997183
0.315997
-0.0393105
0.740255
-0.0769747
1.04896
-0.114228
1.2978
-0.150456
1.54255
-0.184846
1.79838
-0.216122
2.08718
-0.241329
2.41336
-0.256156
2.77875
-0.253261
3.1847
-0.230739
3.04279
-0.198551
2.44166
-0.160974
1.97442
-0.121747
1.60397
-0.082699
1.30059
-0.0455993
1.02939
-0.0155837
0.748861
0.000811377
0.446021
0.00272064
0.182749
0.0292435
0.00313691
0.312861
-0.0174446
0.760837
-0.0450106
1.07653
-0.074595
1.32739
-0.104611
1.57257
-0.134203
1.82797
-0.161413
2.11439
-0.183071
2.43502
-0.195015
2.79069
-0.191465
3.18115
-0.171134
3.02246
-0.139788
2.41031
-0.103354
1.93798
-0.0666163
1.56723
-0.0327593
1.26674
-0.00471376
1.00134
0.0137578
0.73039
0.0160373
0.443741
0.00695844
0.191828
0.0362019
0.00314603
0.309715
-0.0075176
0.7715
-0.0279199
1.09693
-0.0523287
1.3518
-0.0773269
1.59756
-0.102337
1.85298
-0.125617
2.13767
-0.144273
2.45367
-0.154075
2.8005
-0.149456
3.17653
-0.127681
3.00069
-0.097968
2.3806
-0.0676817
1.9077
-0.039207
1.53875
-0.0133359
1.24087
0.00751998
0.980486
0.0192547
0.718655
0.0178214
0.445174
0.00688368
0.202766
0.0430856
0.0054643
0.30425
-0.00192217
0.778887
-0.0196928
1.1147
-0.0402249
1.37233
-0.061419
1.61876
-0.0830434
1.8746
-0.103439
2.15806
-0.120074
2.47031
-0.129065
2.80949
-0.125469
3.17294
-0.107919
2.98314
-0.0849452
2.35762
-0.0596322
1.88238
-0.0337885
1.51291
-0.00962274
1.2167
0.00924887
0.961614
0.0177478
0.710156
0.0143852
0.448537
0.00503055
0.212121
0.0481161
0.00595398
0.298296
0.000743832
0.784097
-0.0148589
1.1303
-0.0333635
1.39083
-0.0524188
1.63781
-0.0717413
1.89393
-0.0900818
2.1764
-0.105138
2.48536
-0.11334
2.81769
-0.109792
3.16939
-0.093953
2.9673
-0.0721627
2.33583
-0.0479776
1.8582
-0.0249371
1.48987
-0.00634703
1.19811
0.00700399
0.948263
0.0133852
0.703775
0.0103789
0.451543
0.00342953
0.21907
0.0515457
0.0040118
0.294284
0.000281863
0.787827
-0.0132391
1.14382
-0.0299352
1.40753
-0.047553
1.65543
-0.0653731
1.91175
-0.0824358
2.19346
-0.0968349
2.49976
-0.105597
2.82645
-0.104399
3.16819
-0.0910136
2.95391
-0.071206
2.31603
-0.0513409
1.83833
-0.033876
1.47241
-0.0167977
1.18103
-0.00303186
0.934497
0.00293181
0.697811
0.00368882
0.450786
0.00144465
0.221314
0.0529903
0.0026483
0.291636
-0.00051131
0.790986
-0.0127307
1.15604
-0.0284328
1.42323
-0.0452246
1.67222
-0.0620925
1.92861
-0.0784357
2.20981
-0.0926689
2.514
-0.101777
2.83556
-0.101084
3.1675
-0.0882275
2.94106
-0.071426
2.29922
-0.0536256
1.82053
-0.0346964
1.45348
-0.0199964
1.16633
-0.00983669
0.924337
-0.00409281
0.692067
-0.00321537
0.449909
-0.00103182
0.219131
0.0519585
-9.59045e-05
0.291732
-0.00326899
0.79416
-0.01381
1.16659
-0.0283009
1.43772
-0.0442109
1.68813
-0.060587
1.94499
-0.076723
2.22594
-0.0911915
2.52847
-0.101319
2.84569
-0.102999
3.16918
-0.0933811
2.93144
-0.0767681
2.28261
-0.0580633
1.80183
-0.0427846
1.4382
-0.029674
1.15322
-0.0193589
0.914022
-0.0120184
0.684727
-0.00632458
0.444215
-0.00197332
0.214779
0.0499852
-0.00056702
0.292299
-0.00534838
0.798941
-0.0155501
1.17679
-0.0288027
1.45098
-0.0439961
1.70333
-0.0600162
1.96101
-0.0761355
2.24206
-0.0909334
2.54326
-0.101715
2.85647
-0.104046
3.17151
-0.0952763
2.92267
-0.0809574
2.26829
-0.0664011
1.78727
-0.0504041
1.4222
-0.035961
1.13878
-0.0235595
0.901621
-0.0148041
0.675971
-0.00855438
0.437965
-0.00266944
0.208894
0.0473157
-0.00254423
0.294843
-0.00783574
0.804232
-0.0173651
1.18632
-0.02976
1.46337
-0.0441366
1.7177
-0.059778
1.97665
-0.0760157
2.2583
-0.0914656
2.55871
-0.104107
2.86911
-0.110758
3.17816
-0.105371
2.91728
-0.0904863
2.25341
-0.0722317
1.76902
-0.0572429
1.40721
-0.0428014
1.12434
-0.0316441
0.890463
-0.0211178
0.665445
-0.010429
0.427277
-0.00322262
0.201688
0.0440931
-0.00387577
0.298719
-0.00928568
0.809642
-0.0185735
1.1956
-0.0305332
1.47533
-0.0444007
1.73157
-0.0597292
1.99198
-0.0760859
2.27466
-0.0923085
2.57494
-0.106231
2.88303
-0.112931
3.18486
-0.107511
2.91186
-0.0961517
2.24205
-0.0812557
1.75412
-0.0632076
1.38916
-0.048181
1.10931
-0.0337991
0.876082
-0.0217037
0.65335
-0.0118687
0.417442
-0.00355366
0.193373
0.0405395
-0.00444073
0.30316
-0.0107203
0.815922
-0.0198792
1.20476
-0.0313562
1.48681
-0.0446418
1.74486
-0.0595956
2.00693
-0.0760172
2.29108
-0.0928223
2.59174
-0.108113
2.89832
-0.118826
3.19557
-0.119265
2.9123
-0.10698
2.22977
-0.0879807
1.73512
-0.070835
1.37202
-0.0548277
1.0933
-0.0416156
0.862869
-0.0281204
0.639854
-0.0135028
0.402824
-0.00385944
0.18373
0.03668
-0.00445258
0.307612
-0.0110954
0.822565
-0.0202785
1.21395
-0.0315713
1.4981
-0.0446315
1.75792
-0.0593763
2.02168
-0.0758311
2.30753
-0.0933826
2.60929
-0.11065
2.91559
-0.124174
3.20909
-0.125206
2.91333
-0.115305
2.21986
-0.100248
1.72006
-0.0795936
1.35136
-0.0604096
1.07412
-0.0423511
0.844811
-0.0268352
0.624339
-0.0139815
0.38997
-0.00380586
0.173554
0.0328742
-0.00449538
0.312108
-0.0116879
0.829757
-0.0207626
1.22302
-0.0317284
1.50907
-0.0444272
1.77062
-0.058904
2.03616
-0.0753785
2.32401
-0.0934242
2.62734
-0.111482
2.93365
-0.126283
3.2239
-0.131432
2.91848
-0.124817
2.21325
-0.107133
1.70238
-0.0869964
1.33123
-0.0653943
1.05252
-0.0482312
0.827648
-0.0322228
0.60833
-0.0147824
0.37253
-0.00353489
0.162307
0.0293393
-0.00444631
0.316554
-0.0115589
0.83687
-0.0204686
1.23193
-0.0312507
1.51985
-0.0438074
1.78317
-0.0581401
2.05049
-0.0745758
2.34044
-0.0928752
2.64564
-0.112321
2.95309
-0.130528
3.2421
-0.139214
2.92717
-0.133062
2.2071
-0.118844
1.68816
-0.0963138
1.3087
-0.071644
1.02785
-0.0457324
0.801736
-0.0251237
0.587721
-0.0118755
0.359282
-0.00269115
0.153122
0.0266481
-0.00449293
0.321047
-0.0117407
0.844118
-0.020373
1.24056
-0.0307747
1.53025
-0.0429483
1.79535
-0.0569914
2.06453
-0.073351
2.3568
-0.0920637
2.66435
-0.112536
2.97357
-0.132209
3.26178
-0.144266
2.93922
-0.143728
2.20656
-0.128198
1.67263
-0.104909
1.28541
-0.0762018
0.999139
-0.0494992
0.775033
-0.0251835
0.563406
-0.00834262
0.342441
-0.00248092
0.14726
0.0241672
-0.00439211
0.325439
-0.0113533
0.851079
-0.0197086
1.24892
-0.0298131
1.54035
-0.0417125
1.80725
-0.0555515
2.07837
-0.0718189
2.37307
-0.0906109
2.68314
-0.111487
2.99444
-0.133024
3.28331
-0.148207
2.95441
-0.149666
2.20802
-0.140302
1.66327
-0.117089
1.26219
-0.0845315
0.966582
-0.0423808
0.732883
-0.00160159
0.522627
0.0205484
0.320291
0.0207585
0.14705
0.0449257
-0.00428894
0.329728
-0.0112241
0.858014
-0.0192613
1.25696
-0.0289249
1.55002
-0.0403515
1.81867
-0.0538018
2.09182
-0.0698152
2.38908
-0.0886819
2.70201
-0.110688
3.01645
-0.13482
3.30745
-0.152276
2.97186
-0.15955
2.21529
-0.14977
1.65349
-0.12834
1.24076
-0.0916156
0.929857
-0.0475454
0.688813
0.00612172
0.468959
0.0331298
0.293283
0.0149382
0.165242
0.0598639
-0.00405149
0.33378
-0.0106469
0.864609
-0.0183801
1.26469
-0.0276792
1.55932
-0.0387571
1.82975
-0.0518666
2.10493
-0.0676694
2.40489
-0.0865123
2.72085
-0.108532
3.03847
-0.13265
3.33156
-0.15267
2.99188
-0.162762
2.22539
-0.163914
1.65464
-0.146064
1.22291
-0.110875
0.894668
-0.0457337
0.623671
0.0549317
0.368294
0.157871
0.190343
0.170467
0.152646
0.230331
-0.00389945
0.337679
-0.0105035
0.871213
-0.0181277
1.27231
-0.027322
1.56851
-0.0384665
1.84089
-0.051932
2.1184
-0.0685225
2.42148
-0.0888913
2.74122
-0.113979
3.06355
-0.144475
3.36206
-0.171744
3.01915
-0.188685
2.24233
-0.189253
1.65521
-0.175957
1.20962
-0.141645
0.860356
-0.101184
0.583211
-0.123177
0.390287
-0.365622
0.432788
-0.923669
0.710693
0.892635
-1.58597
-0.00367704
0.341356
-0.00994967
0.877486
-0.0173635
1.27973
-0.0263956
1.57754
-0.0374216
1.85192
-0.0509371
2.13191
-0.0678984
2.43844
-0.0891006
2.76242
-0.115471
3.08992
-0.146976
3.39356
-0.17759
3.04977
-0.201518
2.26625
-0.223883
1.67757
-0.229002
1.21474
-0.225835
0.857189
-0.303686
0.661062
-0.68733
0.773931
-1.40425
1.14971
-2.01925
1.32569
1.2207
-2.34731
-0.00349117
0.344847
-0.00956869
0.883564
-0.0167167
1.28687
-0.0254752
1.5863
-0.036297
1.86274
-0.0498098
2.14542
-0.0670083
2.45564
-0.0889531
2.78437
-0.117438
3.11841
-0.155335
3.43146
-0.194858
3.08929
-0.227615
2.29901
-0.249041
1.699
-0.259421
1.22512
-0.347562
0.94533
-0.744371
1.05787
-1.5033
1.53286
-2.0877
1.73411
-2.3327
1.57068
1.33755
-2.44955
-0.00323124
0.348078
-0.00889279
0.889225
-0.0157595
1.29374
-0.0243025
1.59485
-0.0349462
1.87339
-0.048422
2.1589
-0.0658386
2.47305
-0.0884686
2.807
-0.118254
3.1482
-0.156806
3.47001
-0.198804
3.13129
-0.237785
2.33799
-0.282932
1.74415
-0.376589
1.31878
-0.697515
1.26626
-1.40909
1.76945
-2.00894
2.13271
-2.25357
1.97874
-2.36965
1.68677
1.40435
-2.43645
-0.00298799
0.351066
-0.00833535
0.894572
-0.014859
1.30027
-0.023065
1.60305
-0.0335091
1.88383
-0.0469048
2.1723
-0.0644319
2.49058
-0.0876165
2.83018
-0.119117
3.1797
-0.163563
3.51446
-0.216831
3.18456
-0.270591
2.39175
-0.322274
1.79583
-0.494004
1.49051
-1.06827
1.84052
-1.7599
2.46109
-2.09495
2.46776
-2.24874
2.13252
-2.33341
1.77145
1.47086
-2.39993
-0.00285133
0.353918
-0.00799116
0.899712
-0.0144852
1.30676
-0.0227533
1.61132
-0.0334291
1.89451
-0.0470341
2.1859
-0.0650086
2.50856
-0.0890395
2.85421
-0.121922
3.21258
-0.167685
3.56022
-0.222112
3.23898
-0.276372
2.44601
-0.372702
1.89216
-0.745776
1.86358
-1.46355
2.55829
-1.95232
2.94985
-2.15703
2.67247
-2.26587
2.24136
-2.34366
1.84923
1.53606
-2.40885
-0.00288259
0.3568
-0.00833342
0.905163
-0.0151403
1.31357
-0.0237578
1.61994
-0.0348772
1.90563
-0.0490782
2.2001
-0.0678253
2.5273
-0.092915
2.8793
-0.127728
3.24739
-0.178911
3.6114
-0.243202
3.30327
-0.315766
2.51858
-0.500094
2.07649
-1.02321
2.38669
-1.65275
3.18784
-1.94333
3.24043
-2.09439
2.82353
-2.21128
2.35825
-2.30636
1.94431
1.59997
-2.37027
-0.00284538
0.359646
-0.00840294
0.910721
-0.0156124
1.32078
-0.0247451
1.62907
-0.0363785
1.91726
-0.0511877
2.21491
-0.0707287
2.54684
-0.0970343
2.90561
-0.133464
3.28382
-0.185727
3.66367
-0.249465
3.36701
-0.337495
2.60661
-0.61005
2.34904
-1.23308
3.00973
-1.73762
3.69237
-1.94992
3.45274
-2.09565
2.96926
-2.22458
2.48718
-2.34046
2.06019
1.66116
-2.40166
-0.00273568
0.362381
-0.00868715
0.916672
-0.0162746
1.32836
-0.0258075
1.6386
-0.0379051
1.92936
-0.0533543
2.23036
-0.0737113
2.5672
-0.101016
2.93291
-0.139114
3.32192
-0.195728
3.72028
-0.270216
3.4415
-0.395711
2.7321
-0.759617
2.71295
-1.37994
3.63004
-1.74921
4.06164
-1.92947
3.633
-2.03872
3.07852
-2.1346
2.58306
-2.20751
2.1331
1.65595
-2.2023
-0.00258625
0.364968
-0.00852167
0.922608
-0.0165642
1.33641
-0.0267036
1.64874
-0.0394091
1.94206
-0.0554996
2.24645
-0.0766186
2.58832
-0.105138
2.96143
-0.144948
3.36173
-0.201704
3.77704
-0.279712
3.51951
-0.441161
2.89355
-0.874619
3.14641
-1.43354
4.18897
-1.70877
4.33686
-1.87286
3.79709
-1.97256
3.17822
-1.98066
2.59116
-1.92221
2.07466
1.63717
-1.90343
-0.00229729
0.367265
-0.00862132
0.928932
-0.0169762
1.34476
-0.0274201
1.65919
-0.0404547
1.9551
-0.0568978
2.26289
-0.0783635
2.60979
-0.106981
2.99005
-0.146626
3.40137
-0.204049
3.83446
-0.292174
3.60763
-0.489636
3.09101
-0.952017
3.60879
-1.40139
4.63835
-1.58078
4.51625
-1.6568
3.8731
-1.66825
3.18967
-1.52779
2.4507
-1.03416
1.58102
0.603011
-0.00179594
0.369061
-0.0079594
0.935095
-0.0168024
1.3536
-0.0280447
1.67043
-0.0420704
1.96912
-0.0596821
2.28051
-0.0827059
2.63281
-0.113729
3.02107
-0.15735
3.44499
-0.220172
3.89728
-0.318783
3.70625
-0.557956
3.33019
-1.07484
4.12567
-1.45338
5.01688
-1.56105
4.62393
-1.56841
3.88046
-1.47515
3.09641
-1.23562
2.21117
-0.654419
0.999822
-0.0514075
-0.00136544
0.370426
-0.00753352
0.941263
-0.0166376
1.36271
-0.0283571
1.68215
-0.043093
1.98386
-0.0618316
2.29924
-0.0865608
2.65754
-0.119949
3.05446
-0.166907
3.49195
-0.235432
3.96581
-0.35505
3.82586
-0.649959
3.6251
-1.19062
4.66633
-1.4756
5.30187
-1.54476
4.69309
-1.53073
3.86643
-1.32765
2.89333
-0.807502
1.69102
-0.123019
0.315339
-0.174427
-0.000545141
0.370971
-0.00595577
0.946674
-0.0154109
1.37216
-0.0279374
1.69467
-0.0435596
1.99948
-0.0633735
2.31906
-0.0895007
2.68367
-0.124962
3.08992
-0.175436
3.54243
-0.251619
4.04199
-0.389365
3.96361
-0.730584
3.96631
-1.26054
5.19629
-1.45648
5.49781
-1.49444
4.73105
-1.41438
3.78637
-1.11884
2.59779
-0.342757
0.914934
0.0360109
-0.0634292
-0.138416
0.000341105
0.37063
-0.00441035
0.951425
-0.013913
1.38167
-0.026843
1.7076
-0.0429089
2.01555
-0.0636609
2.33981
-0.091284
2.71129
-0.128877
3.12752
-0.181498
3.59505
-0.263469
4.12396
-0.42537
4.12551
-0.819706
4.36065
-1.30478
5.68136
-1.43393
5.62696
-1.44012
4.73724
-1.25085
3.5971
-0.732833
2.07977
-0.0709192
0.253021
0.0400982
-0.174447
-0.0983175
0.00234238
0.368288
-0.000617968
0.954386
-0.0107297
1.39178
-0.0243758
1.72125
-0.0410194
2.03219
-0.0625807
2.36137
-0.0911509
2.73986
-0.129893
3.16626
-0.184701
3.64986
-0.275173
4.21443
-0.457945
4.30828
-0.897985
4.80069
-1.29456
6.07794
-1.37167
5.70407
-1.34889
4.71446
-1.07369
3.3219
-0.37034
1.37642
-0.0214134
-0.0959059
0.00763875
-0.203499
-0.0906788
0.00382778
0.36446
0.00195681
0.956256
-0.0075343
1.40127
-0.0206363
1.73435
-0.0372639
2.04882
-0.0593746
2.38348
-0.0887249
2.76921
-0.128456
3.20599
-0.184368
3.70577
-0.27885
4.30891
-0.47817
4.5076
-0.941849
5.26437
-1.24655
6.38264
-1.29765
5.75516
-1.19633
4.61315
-0.838602
2.96417
-0.137023
0.674838
0.0158458
-0.248774
0.00867393
-0.196327
-0.0820048
0.00618198
0.358278
0.00624724
0.956191
-0.00143858
1.40895
-0.0144161
1.74733
-0.0313002
2.0657
-0.0535481
2.40573
-0.0827443
2.79841
-0.122557
3.2458
-0.179169
3.76238
-0.279084
4.40883
-0.494313
4.72283
-0.954527
5.72458
-1.16937
6.59748
-1.18113
5.76692
-1.01378
4.4458
-0.537588
2.48798
-0.00941848
0.146669
0.0207515
-0.278944
0.0170802
-0.192656
-0.0649246
0.00883051
0.349448
0.011627
0.953395
0.00568053
1.4149
-0.00574026
1.75875
-0.0225678
2.08253
-0.0445105
2.42767
-0.0730811
2.82698
-0.111635
3.28436
-0.166414
3.81716
-0.267688
4.5101
-0.487655
4.9428
-0.904756
6.14169
-1.05836
6.75108
-1.06931
5.77788
-0.837414
4.2139
-0.305282
1.95585
-0.0362855
-0.122328
-0.0172884
-0.297942
0.00270921
-0.212653
-0.0622154
0.0129645
0.336483
0.0199914
0.946368
0.0163478
1.41854
0.00604148
1.76906
-0.0103493
2.09892
-0.0304337
2.44776
-0.0569474
2.85349
-0.0935084
3.32092
-0.145169
3.86882
-0.243477
4.60841
-0.460717
5.16004
-0.819523
6.50049
-0.919614
6.85117
-0.908554
5.76682
-0.684514
3.98986
-0.161469
1.43281
-0.0488082
-0.234988
-0.022392
-0.324358
0.008097
-0.243142
-0.0541184
0.0176567
0.318827
0.029827
0.934198
0.0294902
1.41888
0.0209174
1.77763
0.00700772
2.11283
-0.0106782
2.46544
-0.0352802
2.87809
-0.0676232
3.35326
-0.113537
3.91473
-0.203936
4.69881
-0.400788
5.35689
-0.656647
6.75635
-0.733541
6.92806
-0.69464
5.72791
-0.439186
3.73441
-0.0111286
1.00475
-0.0327075
-0.213409
-0.018552
-0.338513
0.0187515
-0.280446
-0.0353669
0.0238806
0.294946
0.0431658
0.914912
0.0474094
1.41464
0.0416327
1.78341
0.0308839
2.12358
0.0157145
2.48061
-0.00456049
2.89837
-0.0321901
3.38089
-0.0688818
3.95143
-0.134989
4.76492
-0.287764
5.50967
-0.462717
6.9313
-0.545602
7.01095
-0.608857
5.79117
-0.536327
3.66188
-0.368394
0.836814
-0.428093
-0.15371
-0.291111
-0.475495
-0.128058
-0.4435
-0.163424
0.0307672
0.264179
0.0590156
0.886664
0.0700022
1.40365
0.0689808
1.78443
0.0618626
2.1307
0.0504799
2.492
0.0357317
2.91312
0.0167581
3.39986
-0.0119247
3.98011
-0.0481891
4.80118
-0.127533
5.58901
-0.204516
7.00829
-0.278782
7.08521
-0.394035
5.90642
-0.535811
3.80365
-0.744437
1.04544
-0.776668
-0.121479
-0.576061
-0.676101
-0.280427
-0.739134
-0.443852
0.0388038
0.225375
0.0786652
0.846803
0.0979321
1.38438
0.102197
1.78016
0.0999131
2.13298
0.0938626
2.49805
0.0865542
2.92042
0.0780728
3.40834
0.0709193
3.98726
0.0667773
4.80532
0.0986593
5.55713
0.133536
6.97341
0.132119
7.08663
0.0883703
5.95017
-0.0787184
3.97074
-0.475599
1.44232
-0.686836
0.0897579
-0.63061
-0.732328
-0.320973
-1.04877
-0.764825
0.0463094
0.179066
0.101006
0.792106
0.132413
1.35298
0.144478
1.7681
0.148807
2.12865
0.148054
2.4988
0.149917
2.91856
0.15289
3.40537
0.168261
3.97189
0.205829
4.76775
0.340268
5.42269
0.630659
6.68302
0.884211
6.83308
1.18956
5.64483
1.12454
4.03576
0.575296
1.99156
0.15745
0.507604
-0.113375
-0.461502
-0.171221
-0.990925
-0.936045
0.0510202
0.128045
0.124222
0.718904
0.170748
1.30645
0.192824
1.74602
0.205309
2.11617
0.212076
2.49203
0.223044
2.90759
0.241071
3.38734
0.280591
3.93237
0.369461
4.67888
0.629708
5.16244
1.2188
6.09393
1.63645
6.41543
2.00075
5.28053
2.0451
3.99141
1.61631
2.42035
1.13848
0.985429
0.649282
0.0276983
0.233901
-0.575544
-0.702145
0.0479884
0.0800569
0.147005
0.619887
0.216279
1.23718
0.251621
1.71068
0.272635
2.09515
0.287336
2.47733
0.308216
2.88671
0.340255
3.35531
0.396662
3.87597
0.531465
4.54408
0.847659
4.84625
1.56873
5.37286
1.98904
5.99511
2.26517
5.0044
2.33704
3.91955
2.00586
2.75153
1.46046
1.53083
0.910954
0.577202
0.409843
-0.0744335
-0.292301
0.0379132
0.0421436
0.165398
0.492402
0.262479
1.1401
0.31641
1.65675
0.34824
2.06332
0.371262
2.45431
0.399914
2.85806
0.438539
3.31668
0.500155
3.81435
0.64132
4.40292
0.935592
4.55198
1.57434
4.73411
1.9655
5.60395
2.16144
4.80846
2.18621
3.89478
1.96252
2.97522
1.49353
1.99982
0.955108
1.11563
0.398665
0.482009
0.106364
0.0294802
0.0126634
0.190971
0.330912
0.315524
1.01554
0.389357
1.58292
0.431497
2.02118
0.465203
2.4206
0.494052
2.82921
0.536453
3.27428
0.590639
3.76016
0.698791
4.29476
0.877161
4.37361
1.31903
4.29225
1.72515
5.19783
1.80085
4.73275
1.76088
3.93475
1.57977
3.15633
1.21283
2.36676
0.766052
1.5624
0.321931
0.92613
0.428295
0.0316463
-0.0189829
0.192548
0.170009
0.368946
0.839145
0.470556
1.48131
0.524009
1.96773
0.565835
2.37878
0.59494
2.80011
0.635749
3.23347
0.664149
3.73176
0.713687
4.24523
0.810777
4.27652
1.08245
4.02057
1.45643
4.82385
1.48365
4.70553
1.37984
4.03856
1.20443
3.33173
0.928567
2.64263
0.567913
1.92306
0.219929
1.27411
0.648224
0.0352977
-0.0542806
0.135742
0.0695649
0.319153
0.655734
0.441509
1.35895
0.501106
1.90813
0.53037
2.34951
0.54034
2.79014
0.542295
3.23152
0.527734
3.74632
0.513782
4.25918
0.510202
4.2801
0.598803
3.93197
0.774556
4.6481
0.780169
4.69992
0.698846
4.11989
0.592129
3.43845
0.454405
2.78035
0.277865
2.0996
0.104925
1.44705
0.753149
0.0186478
-0.0729284
0.0414813
0.0467314
0.140877
0.556339
0.241538
1.25829
0.313216
1.83645
0.357712
2.30502
0.383908
2.76394
0.393576
3.22185
0.397279
3.74262
0.386768
4.26969
0.360866
4.306
0.387975
3.90486
0.505376
4.5307
0.51125
4.69405
0.455688
4.17545
0.368558
3.52558
0.263451
2.88546
0.140043
2.223
0.0343145
1.55278
0.787464
-0.00247673
-0.0704516
-0.0186311
0.0628858
0.0138505
0.523857
0.0784676
1.19367
0.142039
1.77288
0.197414
2.24964
0.244054
2.7173
0.27311
3.19279
0.293745
3.72199
0.278847
4.28459
0.248924
4.33592
0.245887
3.9079
0.311493
4.46509
0.307558
4.69798
0.263762
4.21924
0.194926
3.59442
0.123021
2.95736
0.0554624
2.29056
-0.00819606
1.61644
0.779267
-0.0221739
-0.0482778
-0.0647868
0.105499
-0.0769415
0.536012
-0.0403377
1.15707
0.0161301
1.71641
0.0740957
2.19168
0.12879
2.66261
0.170637
3.15094
0.193803
3.69882
0.17502
4.30337
0.147437
4.3635
0.138884
3.91645
0.171164
4.43281
0.160172
4.70897
0.11937
4.26005
0.0744903
3.6393
0.0280275
3.00383
-0.0193375
2.33793
-0.0401261
1.63723
0.739141
-0.0349038
-0.013374
-0.0946841
0.165279
-0.126389
0.567717
-0.107697
1.13838
-0.0587377
1.66746
-0.00510768
2.13805
0.0440571
2.61344
0.0812792
3.11372
0.0991948
3.6809
0.0824742