/*--------------------------------*- C++ -*----------------------------------*\
| =========                 |                                                 |
| \\      /  F ield         | OpenFOAM: The Open Source CFD Toolbox           |
|  \\    /   O peration     | Version:  4.0                                   |
|   \\  /    A nd           | Web:      www.OpenFOAM.org                      |
|    \\/     M anipulation  |                                                 |
\*---------------------------------------------------------------------------*/
FoamFile
{
    version     2.0;
    format      ascii;
    class       volScalarField;
    location    "55";
    object      p;
}
// * * * * * * * * * * * * * * * * * * * * * * * * * * * * * * * * * * * * * //

dimensions      [0 2 -2 0 0 0 0];

internalField   nonuniform List<scalar> 
2200
(
0.773467
0.751967
0.736059
0.720392
0.705785
0.693265
0.682911
0.674809
0.669106
0.666166
0.666636
0.670441
0.676793
0.685354
0.696038
0.708806
0.723593
0.739512
0.755551
0.777051
0.705887
0.702628
0.699706
0.695589
0.690124
0.683652
0.677038
0.671085
0.666582
0.664192
0.664684
0.667984
0.673165
0.679624
0.686603
0.693356
0.699019
0.703119
0.705974
0.709332
0.665979
0.6662
0.668251
0.66959
0.66998
0.669127
0.667141
0.664467
0.661931
0.660449
0.661019
0.663477
0.666751
0.669965
0.672302
0.673298
0.673025
0.672024
0.670375
0.670127
0.643456
0.644904
0.647509
0.649976
0.652423
0.654444
0.655601
0.655833
0.655462
0.655174
0.655814
0.657195
0.658397
0.658788
0.65811
0.656438
0.654277
0.652072
0.649457
0.648052
0.629127
0.631101
0.633922
0.636756
0.639612
0.642444
0.644909
0.646775
0.648008
0.64881
0.64954
0.650021
0.649782
0.648674
0.646808
0.644436
0.64189
0.639167
0.636369
0.634445
0.621796
0.623395
0.625595
0.62812
0.630783
0.633449
0.636039
0.63846
0.640478
0.641994
0.642861
0.642889
0.642067
0.640557
0.638665
0.636522
0.63419
0.631847
0.629751
0.628176
0.618359
0.619381
0.620648
0.622511
0.624657
0.62683
0.629025
0.631313
0.633536
0.635388
0.636419
0.636425
0.635657
0.634454
0.633064
0.631514
0.629828
0.628257
0.627139
0.626122
0.615707
0.616377
0.617009
0.618313
0.619929
0.621615
0.623371
0.625304
0.627376
0.629339
0.630599
0.630919
0.630591
0.629975
0.629193
0.62824
0.627183
0.626254
0.625806
0.62513
0.61247
0.612918
0.613313
0.614307
0.615568
0.616953
0.618451
0.620117
0.621973
0.623946
0.62546
0.626252
0.626518
0.626465
0.626184
0.625712
0.625126
0.624587
0.624398
0.623934
0.608407
0.608705
0.609062
0.609932
0.611045
0.612318
0.613755
0.615365
0.61717
0.619183
0.621056
0.622376
0.623153
0.623533
0.623614
0.623472
0.623174
0.622846
0.622716
0.622392
0.603702
0.603903
0.604275
0.605105
0.606195
0.607499
0.609021
0.610762
0.612734
0.614982
0.61726
0.619083
0.62029
0.620993
0.621317
0.621398
0.621266
0.621079
0.620971
0.620735
0.598522
0.598667
0.599039
0.59985
0.601
0.60244
0.604157
0.60615
0.608456
0.611136
0.613925
0.616216
0.617783
0.618754
0.619297
0.619536
0.619602
0.619562
0.619484
0.619297
0.592928
0.593039
0.593418
0.594237
0.595454
0.597048
0.59901
0.601346
0.604096
0.607323
0.610736
0.613579
0.615555
0.616855
0.617653
0.618115
0.618384
0.618467
0.618431
0.618266
0.58692
0.58699
0.587369
0.588215
0.589549
0.591323
0.593547
0.596273
0.599604
0.60357
0.607722
0.611201
0.61366
0.615337
0.616501
0.617262
0.617734
0.617954
0.617959
0.617806
0.580399
0.580437
0.580857
0.581765
0.583243
0.585233
0.587769
0.590956
0.594938
0.599751
0.604833
0.609029
0.612117
0.614346
0.615938
0.617045
0.61777
0.618141
0.618191
0.618038
0.573308
0.573279
0.573698
0.574696
0.576387
0.578644
0.581527
0.58522
0.589925
0.595704
0.601873
0.607111
0.611008
0.613886
0.616015
0.617529
0.61853
0.619056
0.619158
0.619004
0.565277
0.565257
0.565716
0.566831
0.568753
0.571312
0.574649
0.578976
0.584529
0.591456
0.598952
0.605444
0.61039
0.614073
0.616821
0.618807
0.620131
0.620822
0.620979
0.620816
0.556239
0.556263
0.55669
0.557915
0.560138
0.563128
0.567084
0.572235
0.57888
0.58725
0.596376
0.604264
0.610362
0.615006
0.618479
0.620972
0.622655
0.623523
0.623734
0.623557
0.545739
0.545717
0.54626
0.54771
0.550328
0.553928
0.558725
0.564971
0.573013
0.583116
0.594149
0.603748
0.611145
0.616789
0.621017
0.624137
0.626219
0.627265
0.627526
0.62733
0.533315
0.533249
0.533924
0.535749
0.538898
0.543279
0.549171
0.556832
0.566672
0.578967
0.592311
0.603883
0.612761
0.619528
0.62464
0.628404
0.63091
0.632144
0.632447
0.632225
0.518624
0.518518
0.51929
0.521498
0.525394
0.530841
0.538165
0.547722
0.559944
0.574987
0.590974
0.604675
0.615211
0.623253
0.629353
0.633859
0.636824
0.638224
0.63856
0.638309
0.500668
0.500584
0.501582
0.504334
0.509222
0.516134
0.525445
0.537508
0.552723
0.571035
0.590133
0.606241
0.618562
0.628023
0.635227
0.640545
0.643991
0.645564
0.645914
0.64563
0.478472
0.478326
0.479634
0.483232
0.489641
0.498715
0.51076
0.526112
0.544975
0.567127
0.589737
0.608623
0.622999
0.633981
0.64235
0.648532
0.652431
0.65414
0.654483
0.654162
0.449821
0.449828
0.451906
0.456966
0.465673
0.477863
0.493673
0.513166
0.536342
0.562908
0.589596
0.611666
0.628331
0.641021
0.650697
0.657726
0.662038
0.663865
0.664171
0.663812
0.412013
0.412251
0.415751
0.423621
0.436253
0.453285
0.474313
0.49918
0.527704
0.559426
0.590514
0.61577
0.634753
0.649224
0.660221
0.66816
0.672808
0.674638
0.674863
0.674474
0.361618
0.361989
0.368925
0.382097
0.401162
0.425354
0.453416
0.484988
0.519791
0.557232
0.592827
0.621333
0.642598
0.658768
0.671079
0.679687
0.684356
0.685906
0.685965
0.685623
0.295185
0.297996
0.313012
0.334324
0.362296
0.395449
0.431693
0.470744
0.512463
0.556272
0.597141
0.629333
0.653404
0.671789
0.68554
0.695038
0.699753
0.700957
0.700909
0.700736
0.219672
0.22906
0.254091
0.285234
0.323322
0.365542
0.409993
0.45679
0.505874
0.556529
0.603127
0.639933
0.667573
0.688444
0.70428
0.714743
0.719406
0.720173
0.720111
0.720067
0.152114
0.166765
0.198069
0.23805
0.285659
0.336655
0.389113
0.443518
0.499637
0.556792
0.608983
0.650438
0.681268
0.704713
0.722082
0.733421
0.738198
0.738807
0.739012
0.738987
0.100575
0.113709
0.150297
0.196367
0.251282
0.309737
0.369508
0.431106
0.494131
0.557935
0.616115
0.661291
0.694857
0.720307
0.73903
0.751266
0.756297
0.757454
0.757582
0.757621
0.0579997
0.0703948
0.110706
0.160703
0.221086
0.285534
0.351771
0.419973
0.489589
0.559582
0.62265
0.671445
0.707841
0.735133
0.755339
0.768135
0.77389
0.775331
0.775409
0.775493
0.021577
0.0342319
0.0771987
0.130071
0.194827
0.264153
0.335911
0.409818
0.485071
0.560408
0.628175
0.68092
0.719557
0.748547
0.770232
0.783696
0.789805
0.791446
0.791568
0.791643
-0.0101952
0.00267278
0.0478012
0.103271
0.171684
0.245032
0.321399
0.400109
0.480308
0.560962
0.633776
0.689476
0.730263
0.760823
0.783281
0.797381
0.803935
0.80575
0.80595
0.806025
-0.0385048
-0.0255981
0.0212316
0.0791847
0.150707
0.227452
0.307777
0.390758
0.475634
0.561224
0.637951
0.696634
0.739627
0.77126
0.79448
0.809298
0.816063
0.818076
0.818326
0.81837
-0.0643336
-0.0514133
-0.00333515
0.056989
0.131259
0.210994
0.294813
0.381648
0.470761
0.560681
0.641393
0.703306
0.747759
0.780599
0.804154
0.819368
0.826503
0.828674
0.828981
0.828998
-0.0884498
-0.0752133
-0.0263455
0.0361688
0.11288
0.195317
0.282269
0.372519
0.465388
0.559404
0.644264
0.708787
0.754929
0.78875
0.81281
0.82829
0.835536
0.837837
0.838144
0.83813
-0.111118
-0.0976548
-0.0479821
0.0164236
0.0952557
0.180145
0.269876
0.363111
0.459386
0.557345
0.646173
0.71346
0.761483
0.796286
0.820769
0.836032
0.843478
0.845615
0.846025
0.84589
-0.132472
-0.118963
-0.0685111
-0.00248311
0.0781493
0.165191
0.257375
0.353315
0.45278
0.55445
0.647092
0.717657
0.767758
0.803338
0.82807
0.843139
0.850239
0.852501
0.852777
0.852641
-0.152894
-0.139251
-0.0881415
-0.0207672
0.0613829
0.150319
0.244705
0.343137
0.445522
0.550576
0.647082
0.721201
0.773474
0.810367
0.835025
0.849582
0.856491
0.858534
0.858797
0.858694
-0.172799
-0.158663
-0.107095
-0.0385716
0.0448957
0.1355
0.231852
0.33253
0.437519
0.545817
0.646393
0.724201
0.779243
0.817447
0.842069
0.856058
0.862313
0.864068
0.864265
0.864168
-0.192393
-0.177493
-0.125506
-0.0559571
0.0286603
0.120736
0.21883
0.321511
0.428896
0.540357
0.644833
0.726476
0.784867
0.825026
0.849867
0.862792
0.868131
0.869152
0.869252
0.869195
-0.211535
-0.195886
-0.143466
-0.0729519
0.0126893
0.106055
0.205667
0.310138
0.419738
0.53406
0.642165
0.728076
0.790266
0.833082
0.858747
0.87068
0.874049
0.873916
0.873789
0.87366
-0.230162
-0.213906
-0.160973
-0.0895375
-0.00299828
0.0914748
0.192397
0.298464
0.410069
0.526913
0.638407
0.728712
0.795188
0.841732
0.86934
0.880224
0.881041
0.878643
0.878259
0.879122
-0.248162
-0.231457
-0.177996
-0.105702
-0.0183706
0.0770463
0.179081
0.286548
0.399944
0.518989
0.633514
0.728138
0.799516
0.850639
0.881717
0.893028
0.890944
0.88438
0.879368
0.878094
-0.265562
-0.24848
-0.194472
-0.121399
-0.0333796
0.0628262
0.165791
0.274456
0.389391
0.510316
0.627403
0.726017
0.802521
0.859547
0.895774
0.909898
0.908512
0.897081
0.896375
0.900543
-0.282317
-0.264876
-0.210352
-0.136592
-0.0479723
0.0488947
0.152619
0.26226
0.378459
0.500977
0.620205
0.722282
0.803958
0.86733
0.910579
0.930808
0.932086
0.903123
0.863532
0.828584
-0.298407
-0.280684
-0.225664
-0.151332
-0.0622311
0.0351389
0.139421
0.249778
0.366925
0.490738
0.611701
0.716464
0.802608
0.873017
0.925322
0.954861
0.971101
0.950325
0.967386
1.02692
-0.313761
-0.295916
-0.240504
-0.165765
-0.0763367
0.0213402
0.125928
0.236679
0.354386
0.479073
0.601278
0.707816
0.797494
0.873609
0.931742
0.965839
0.974514
0.951219
0.909211
0.924657
-0.328374
-0.310577
-0.254822
-0.179826
-0.0902077
0.0075889
0.112254
0.223111
0.340998
0.466047
0.588831
0.696102
0.786558
0.86459
0.923616
0.95748
0.943275
0.888227
0.823727
0.811265
-0.342212
-0.324622
-0.26862
-0.193529
-0.103855
-0.00611547
0.0984213
0.209118
0.326804
0.451661
0.57428
0.680999
0.769666
0.843266
0.896856
0.903833
0.867796
0.789966
0.714982
0.691989
-0.355329
-0.338077
-0.281904
-0.206883
-0.117296
-0.0197868
0.0844321
0.194715
0.31183
0.435931
0.557546
0.662281
0.745398
0.807542
0.83638
0.822792
0.763592
0.661415
0.573699
0.551114
-0.368165
-0.351305
-0.295068
-0.220267
-0.130889
-0.0337339
0.0700241
0.17968
0.295889
0.418682
0.538374
0.639346
0.715107
0.76137
0.75622
0.720946
0.609098
0.486187
0.378451
0.350955
-0.381613
-0.36515
-0.308805
-0.234281
-0.145191
-0.0484341
0.0547845
0.163663
0.278704
0.399711
0.516527
0.611864
0.680433
0.702284
0.668825
0.580512
0.424167
0.27121
0.141609
0.113727
-0.396182
-0.37994
-0.323435
-0.249183
-0.160389
-0.0640179
0.0386255
0.14662
0.260276
0.379005
0.491907
0.580656
0.638755
0.632345
0.580078
0.430089
0.230357
0.0178271
-0.162265
-0.210925
-0.412015
-0.395868
-0.339016
-0.264964
-0.176449
-0.0804581
0.0215665
0.128577
0.240661
0.356675
0.464543
0.547295
0.590588
0.552497
0.465425
0.27776
0.0469725
-0.241288
-0.562051
-0.710205
-0.429158
-0.412921
-0.355679
-0.281759
-0.193453
-0.0978257
0.00354241
0.109483
0.219828
0.332732
0.434759
0.511162
0.536712
0.468211
0.332063
0.127131
-0.106242
-0.44926
-1.03495
-1.60634
-0.447732
-0.431324
-0.373484
-0.299582
-0.2114
-0.116113
-0.0154166
0.0894073
0.197927
0.307614
0.403745
0.472206
0.479074
0.39407
0.203308
-0.0294521
-0.231445
-0.465141
-1.01889
-2.53037
-0.467716
-0.450992
-0.392555
-0.318627
-0.230489
-0.135528
-0.035546
0.0680804
0.17463
0.280925
0.371111
0.43004
0.41652
0.336121
0.11053
-0.126845
-0.273917
-0.310458
-0.299358
-0.686275
-0.489084
-0.47228
-0.413042
-0.339116
-0.25108
-0.156562
-0.0574733
0.0447189
0.148987
0.251318
0.335949
0.384543
0.355211
0.286832
0.0608302
-0.140523
-0.250622
-0.258074
-0.204655
-0.244723
-0.511639
-0.494781
-0.434976
-0.361212
-0.273318
-0.179358
-0.0813565
0.0191625
0.120802
0.218644
0.298355
0.337121
0.30131
0.233674
0.0291872
-0.130659
-0.212227
-0.219967
-0.267959
-0.27197
-0.535546
-0.518667
-0.458232
-0.384786
-0.297117
-0.203924
-0.107245
-0.00866536
0.090045
0.183249
0.258247
0.287603
0.254599
0.173224
0.0012968
-0.120586
-0.190363
-0.167443
-0.187833
-0.189413
-0.560324
-0.543261
-0.482762
-0.409894
-0.322441
-0.230206
-0.13506
-0.0386345
0.0568426
0.145492
0.215834
0.234512
0.213925
0.105796
-0.033393
-0.115611
-0.153978
-0.201758
-0.176492
-0.184968
-0.585808
-0.568406
-0.508334
-0.436179
-0.348928
-0.258024
-0.164623
-0.070558
0.0213197
0.105732
0.172138
0.180405
0.171466
0.0453992
-0.0703304
-0.134138
-0.110863
-0.170662
-0.151552
-0.1564
-0.610978
-0.593422
-0.534828
-0.463487
-0.376415
-0.287168
-0.195644
-0.104071
-0.0162626
0.064366
0.128108
0.128944
0.11963
-0.00616649
-0.0969091
-0.148248
-0.136788
-0.15151
-0.156998
-0.155138
-0.635592
-0.61815
-0.561485
-0.490859
-0.404327
-0.317237
-0.22773
-0.138811
-0.0553749
0.0217057
0.0840727
0.0812233
0.0625892
-0.0489496
-0.111014
-0.141566
-0.180526
-0.152374
-0.158033
-0.152534
-0.658508
-0.6418
-0.587157
-0.51768
-0.432565
-0.347747
-0.260343
-0.174184
-0.0951626
-0.0219178
0.0399857
0.0381275
0.00558304
-0.0851522
-0.124483
-0.114843
-0.187303
-0.132681
-0.147651
-0.140076
-0.679168
-0.663587
-0.610901
-0.542619
-0.460408
-0.377828
-0.292816
-0.209656
-0.134707
-0.0661243
-0.00497059
-0.00288496
-0.0397182
-0.104371
-0.134893
-0.0944559
-0.138767
-0.120377
-0.126925
-0.123998
-0.695866
-0.681942
-0.63186
-0.565586
-0.487106
-0.406619
-0.324332
-0.244346
-0.173005
-0.109978
-0.0501646
-0.0422415
-0.0728552
-0.107209
-0.128256
-0.105245
-0.118047
-0.119481
-0.120503
-0.120821
-0.70785
-0.696062
-0.649204
-0.585366
-0.510655
-0.433036
-0.353906
-0.277418
-0.209276
-0.152323
-0.0943373
-0.0792316
-0.100995
-0.103974
-0.118821
-0.131861
-0.123244
-0.128907
-0.124189
-0.125061
-0.713605
-0.70425
-0.661612
-0.601165
-0.53029
-0.456048
-0.380483
-0.307631
-0.242528
-0.19125
-0.135225
-0.116053
-0.133953
-0.109355
-0.102619
-0.133102
-0.115638
-0.135933
-0.129123
-0.133097
-0.713216
-0.705992
-0.66766
-0.610951
-0.544195
-0.474181
-0.402773
-0.333774
-0.271847
-0.224772
-0.171041
-0.152666
-0.172587
-0.131221
-0.0552349
-0.0896445
-0.0754371
-0.0995522
-0.106424
-0.115634
-0.705565
-0.698221
-0.665093
-0.613883
-0.552123
-0.486581
-0.419456
-0.354174
-0.295287
-0.25077
-0.200714
-0.188933
-0.208731
-0.22013
-0.173117
-0.222758
-0.234426
-0.231068
-0.229277
-0.227255
-0.685628
-0.677319
-0.652114
-0.608086
-0.552257
-0.491977
-0.429572
-0.367534
-0.310539
-0.266808
-0.220312
-0.21055
-0.270007
-0.416704
-0.676379
-0.803157
-0.838026
-0.808087
-0.740595
-0.686426
-0.644308
-0.636474
-0.626609
-0.594254
-0.54577
-0.490571
-0.432478
-0.372533
-0.315134
-0.269109
-0.224036
-0.197924
-0.301209
-0.500381
-0.753103
-0.854445
-0.846182
-0.77384
-0.717684
-0.68167
-0.602221
-0.599195
-0.598235
-0.572842
-0.532889
-0.483825
-0.429047
-0.369416
-0.307925
-0.254366
-0.202415
-0.132829
-0.0915429
-0.0463527
-0.0327752
0.0418568
0.140577
0.210212
0.275041
0.327196
-0.57906
-0.580378
-0.571386
-0.554422
-0.521108
-0.474722
-0.419947
-0.359251
-0.290682
-0.219536
-0.148545
-0.0108892
0.168265
0.46512
0.758381
1.0032
1.17718
1.27658
1.31911
1.33953
-0.547762
-0.548
-0.543941
-0.539207
-0.510877
-0.466975
-0.411013
-0.346637
-0.270334
-0.180466
-0.0842658
0.0646852
0.302682
0.649178
0.990407
1.27265
1.47002
1.58617
1.64058
1.66072
-0.528379
-0.526897
-0.529144
-0.523291
-0.500743
-0.459011
-0.402123
-0.333859
-0.252636
-0.151995
-0.0424015
0.0852041
0.331407
0.645263
0.956079
1.22275
1.42428
1.54732
1.60274
1.61895
-0.513205
-0.511712
-0.515312
-0.508014
-0.494523
-0.455053
-0.396445
-0.324461
-0.240378
-0.137065
-0.0269913
0.0678576
0.280328
0.550182
0.811156
1.03688
1.21728
1.32633
1.37467
1.38756
-0.492742
-0.491493
-0.491311
-0.484663
-0.485549
-0.451446
-0.393969
-0.320366
-0.236212
-0.137382
-0.0330705
0.0368987
0.203649
0.430411
0.641709
0.819776
0.963731
1.0515
1.08959
1.09916
-0.489873
-0.488034
-0.483352
-0.481716
-0.483171
-0.450265
-0.392988
-0.319055
-0.236764
-0.147308
-0.0491439
0.00733022
0.128957
0.314415
0.482071
0.617424
0.725294
0.792863
0.82208
0.82964
-0.50643
-0.505069
-0.503268
-0.512924
-0.504005
-0.46132
-0.394984
-0.317533
-0.236972
-0.158362
-0.0665297
-0.0159617
0.0677017
0.215169
0.345833
0.446537
0.524624
0.574731
0.595481
0.599681
-0.528162
-0.529891
-0.534494
-0.543462
-0.529239
-0.47464
-0.39412
-0.312369
-0.23309
-0.164785
-0.0804377
-0.0335159
0.02126
0.136399
0.235243
0.30804
0.364322
0.401029
0.415376
0.42011
-0.511945
-0.51567
-0.524344
-0.53458
-0.516657
-0.455809
-0.376703
-0.297723
-0.221903
-0.16301
-0.0891846
-0.0455252
-0.0111956
0.0774175
0.150359
0.202192
0.243726
0.273604
0.283709
0.286423
-0.415743
-0.420997
-0.432049
-0.438072
-0.426104
-0.382823
-0.325432
-0.264138
-0.200666
-0.151364
-0.0917851
-0.053408
-0.0302905
0.0376546
0.0902517
0.126604
0.157526
0.17649
0.185172
0.187745
-0.269755
-0.273782
-0.278453
-0.28304
-0.278523
-0.262386
-0.237787
-0.206127
-0.165362
-0.129451
-0.0874071
-0.0567029
-0.0392409
0.0128023
0.0491101
0.074515
0.0942479
0.105147
0.109723
0.1107
-0.135016
-0.136843
-0.140161
-0.145476
-0.148076
-0.149287
-0.147266
-0.138942
-0.120861
-0.101368
-0.076583
-0.0546649
-0.0398084
-0.00362673
0.020638
0.0368993
0.047885
0.0531968
0.0543168
0.053716
-0.0364177
-0.0374167
-0.0396732
-0.0460288
-0.056425
-0.0676961
-0.0765478
-0.0809561
-0.0784255
-0.0729875
-0.0611344
-0.0480729
-0.0362837
-0.0138374
0.000686448
0.00956369
0.0144506
0.0154124
0.0144208
0.0131761
0.0211413
0.0203438
0.018435
0.0118638
-0.000925793
-0.0163986
-0.030108
-0.0403747
-0.045638
-0.0487909
-0.0447658
-0.0384396
-0.0316658
-0.0197424
-0.0128415
-0.00957998
-0.0085598
-0.00988559
-0.01196
-0.0134151
0.0483662
0.0477801
0.0460866
0.0400987
0.028209
0.0126232
-0.00231252
-0.0150787
-0.0237971
-0.0307354
-0.0304211
-0.0286789
-0.0274661
-0.0227476
-0.021085
-0.0211944
-0.0225215
-0.0249448
-0.0270931
-0.0284903
0.0573896
0.0569262
0.0555398
0.0506074
0.040671
0.0271335
0.0132064
8.17801e-05
-0.00981526
-0.0182576
-0.0194452
-0.0204803
-0.023151
-0.0226963
-0.0239324
-0.0259329
-0.0285589
-0.0314105
-0.0334336
-0.0347123
0.0566587
0.0563167
0.0552326
0.0514489
0.0437646
0.0329766
0.0211655
0.00903799
-0.00064938
-0.00969413
-0.0118892
-0.0141249
-0.0182571
-0.0198107
-0.0225836
-0.0258294
-0.0289782
-0.0317417
-0.0335386
-0.0346618
0.0513984
0.0511575
0.0503393
0.0475395
0.0418662
0.0337273
0.024315
0.0140279
0.00556159
-0.00336788
-0.00652454
-0.00931165
-0.0132828
-0.0154023
-0.0188654
-0.0224751
-0.0256704
-0.0281443
-0.0295963
-0.0305729
0.0445708
0.0444252
0.0438535
0.0418925
0.0378519
0.0319121
0.0247258
0.0164989
0.00962181
0.00122045
-0.00227633
-0.00522331
-0.00857342
-0.0104928
-0.0140808
-0.0175865
-0.0204471
-0.02254
-0.0235957
-0.0244108
0.0373493
0.037263
0.0368511
0.0354811
0.0326722
0.0284812
0.0232162
0.0169079
0.0117623
0.00445279
0.00128021
-0.00126944
-0.00415256
-0.00618165
-0.00938727
-0.012238
-0.0144823
-0.0160358
-0.0166503
-0.0173416
0.0305555
0.0305029
0.0302287
0.0292796
0.0272904
0.0242527
0.0203606
0.0155099
0.0119887
0.00623816
0.00390905
0.00205635
-0.000370941
-0.00253388
-0.0052594
-0.00738211
-0.00895059
-0.00989165
-0.0102138
-0.0108455
0.0243965
0.0243804
0.024212
0.0236027
0.0222736
0.0201005
0.017216
0.0134249
0.0110398
0.00669756
0.00530752
0.00400629
0.00200964
0.00034311
-0.00174985
-0.00341843
-0.00453442
-0.00518482
-0.00534291
-0.00587926
0.0186429
0.0186203
0.0185109
0.0181141
0.0172693
0.0158925
0.0140024
0.01123
0.00968936
0.00644118
0.00557497
0.00464742
0.00304032
0.0017363
0.000271303
-0.000741716
-0.00142692
-0.00188489
-0.00200463
-0.00248078
0.0135324
0.0135001
0.0134173
0.0132017
0.0127137
0.011881
0.010782
0.00888293
0.00803962
0.00551825
0.00495925
0.00435586
0.00316565
0.00221312
0.00107774
0.00077661
0.000569616
0.000367567
0.00034482
-9.13503e-05
0.00913226
0.00910062
0.00904809
0.00893387
0.00869934
0.0082645
0.0076667
0.00633007
0.00603293
0.00411154
0.00395788
0.00353177
0.00246945
0.00208315
0.00126205
0.00136745
0.00154815
0.00158756
0.00159677
0.00113624
0.00522073
0.00518851
0.00517527
0.00512988
0.00501797
0.00476222
0.00456286
0.00368088
0.00381343
0.00240661
0.00253401
0.00248718
0.00162397
0.00167727
0.00117079
0.0011562
0.00137252
0.00144377
0.0015884
0.00125772
0.00184338
0.0018334
0.00185337
0.00186768
0.00183608
0.00165748
0.00167978
0.00116991
0.0015235
0.000717811
0.000968165
0.00129665
0.000877035
0.00110404
0.000383662
-0.000112345
-0.000710248
-0.00120252
-0.000912398
-0.000925955
-1.07469
-0.235852
0.0341704
0.310084
0.491244
0.646726
0.772264
0.900285
1.04134
1.12425
-0.0953406
0.310927
0.327034
0.515037
0.638453
0.749202
0.844452
0.929373
0.956675
0.914755
0.280781
0.494268
0.528995
0.66522
0.750747
0.830237
0.895824
0.945065
0.947085
0.96123
0.509697
0.652291
0.687228
0.788683
0.845477
0.902904
0.947594
0.979872
0.988893
1.01259
0.687223
0.788348
0.818088
0.885452
0.929868
0.970725
1.00277
1.02701
1.03676
1.06835
0.830223
0.898878
0.929168
0.971934
1.00795
1.03801
1.06225
1.08297
1.09708
1.12538
0.949209
0.999688
1.02522
1.05314
1.08074
1.10448
1.12442
1.14365
1.15852
1.18504
1.05288
1.08984
1.11089
1.13151
1.15227
1.17164
1.18903
1.20713
1.22201
1.24568
1.1468
1.17588
1.19221
1.20746
1.22355
1.2396
1.25515
1.27206
1.28568
1.308
1.23502
1.25547
1.27032
1.28347
1.29704
1.31081
1.32431
1.3389
1.35045
1.37009
1.32044
1.33623
1.35005
1.36186
1.37378
1.38541
1.39655
1.40823
1.41591
1.43271
1.40567
1.41821
1.43192
1.44367
1.45431
1.46411
1.47293
1.4812
1.48476
1.496
1.49442
1.50524
1.51871
1.52824
1.53582
1.5431
1.55029
1.55678
1.55787
1.56524
1.59283
1.59744
1.60563
1.61038
1.61377
1.61826
1.62425
1.63193
1.63582
1.6457
1.70614
1.69303
1.68574
1.68002
1.67729
1.67864
1.68498
1.69735
1.71217
1.74183
1.82813
1.77209
1.74107
1.72387
1.71565
1.71559
1.72442
1.74402
1.77584
1.8451
)
;

boundaryField
{
    wall-4
    {
        type            zeroGradient;
    }
    pressure-outlet-7
    {
        type            fixedValue;
        value           uniform 0;
    }
    velocity-inlet-6
    {
        type            zeroGradient;
    }
    velocity-inlet-5
    {
        type            zeroGradient;
    }
    frontAndBackPlanes
    {
        type            empty;
    }
}


// ************************************************************************* //
