/*--------------------------------*- C++ -*----------------------------------*\
| =========                 |                                                 |
| \\      /  F ield         | OpenFOAM: The Open Source CFD Toolbox           |
|  \\    /   O peration     | Version:  4.0                                   |
|   \\  /    A nd           | Web:      www.OpenFOAM.org                      |
|    \\/     M anipulation  |                                                 |
\*---------------------------------------------------------------------------*/
FoamFile
{
    version     2.0;
    format      ascii;
    class       surfaceScalarField;
    location    "55";
    object      phi;
}
// * * * * * * * * * * * * * * * * * * * * * * * * * * * * * * * * * * * * * //

dimensions      [0 3 -1 0 0 0 0];

internalField   nonuniform List<scalar> 
4262
(
0.10714
0.470849
0.0955719
0.705154
0.0693961
0.858479
0.0474162
1.02074
0.0310567
1.21488
0.0198319
1.44944
0.0124112
1.73328
0.00719825
2.07625
0.00326679
2.48917
-0.000433982
2.98599
-0.00407781
2.98594
-0.0078683
2.48903
-0.0128883
2.07606
-0.0200782
1.73305
-0.0310819
1.44922
-0.0471766
1.21461
-0.0689361
1.02052
-0.0952043
0.858571
-0.107069
0.705451
0.470919
0.112879
0.357969
0.135308
0.682725
0.120411
0.873375
0.0978261
1.04333
0.0745671
1.23813
0.0528578
1.47115
0.0344644
1.75168
0.02026
2.09045
0.00896931
2.50047
-0.0011706
2.99613
-0.0113232
2.99609
-0.0225339
2.50024
-0.0366008
2.09012
-0.0548494
1.7513
-0.0765992
1.47097
-0.100282
1.23829
-0.123426
1.04367
-0.136978
0.872123
-0.11355
0.682023
0.357369
0.0920381
0.265931
0.12496
0.649804
0.121089
0.877246
0.104858
1.05956
0.0862054
1.25679
0.0670869
1.49027
0.0481411
1.77062
0.0300697
2.10852
0.0134997
2.51704
-0.00241137
3.01204
-0.0180065
3.01168
-0.0340601
2.5163
-0.0516149
2.10768
-0.0700736
1.76976
-0.0884224
1.48932
-0.105677
1.25555
-0.119832
1.05782
-0.125203
0.877494
-0.0923266
0.649146
0.265043
0.064054
0.201877
0.104951
0.608907
0.106751
0.875446
0.0953708
1.07094
0.081448
1.27071
0.0666967
1.50502
0.0505711
1.78675
0.0334265
2.12567
0.015781
2.53468
-0.00290591
3.03073
-0.0215322
3.03031
-0.0388673
2.53363
-0.0553249
2.12414
-0.0706229
1.78506
-0.0844997
1.5032
-0.0982089
1.26926
-0.109966
1.06958
-0.107014
0.874542
-0.0648978
0.60703
0.200145
0.0374641
0.164413
0.080673
0.565698
0.0909602
0.865159
0.0837278
1.07817
0.071127
1.28331
0.0593022
1.51685
0.0463464
1.79971
0.0314263
2.14059
0.0144087
2.5517
-0.00475315
3.04989
-0.0233114
3.04887
-0.0391953
2.54952
-0.0531557
2.1381
-0.0653131
1.79722
-0.0766007
1.51449
-0.088537
1.28119
-0.0949342
1.07598
-0.0831204
0.862728
-0.0383641
0.562274
0.161781
0.0194714
0.144942
0.0572598
0.52791
0.0727199
0.849699
0.0706576
1.08023
0.0618638
1.2921
0.0509653
1.52775
0.0397575
1.81091
0.0271498
2.1532
0.012225
2.56662
-0.0052618
3.06738
-0.0226477
3.06625
-0.0370143
2.56388
-0.0485168
2.1496
-0.0585524
1.80725
-0.0684783
1.52441
-0.0762086
1.28892
-0.0770737
1.07684
-0.0599617
0.845616
-0.0203634
0.522675
0.141417
0.0106538
0.134288
0.0424216
0.496142
0.0585594
0.833561
0.0588694
1.07992
0.052769
1.2982
0.0434383
1.53708
0.0330691
1.82128
0.0216925
2.16457
0.00834292
2.57997
-0.00775055
3.08347
-0.0231142
3.08162
-0.0350175
2.57579
-0.0449377
2.15952
-0.053718
1.81603
-0.0615421
1.53224
-0.0660658
1.29345
-0.0641568
1.07493
-0.0458318
0.827291
-0.0116807
0.488524
0.129736
0.00658585
0.127702
0.0330153
0.469713
0.0493224
0.817254
0.0508518
1.0784
0.0457876
1.30327
0.037486
1.54538
0.0278872
1.83088
0.0169853
2.17548
0.00494541
2.59201
-0.00876808
3.09719
-0.0222229
3.09507
-0.0331677
2.58673
-0.0424121
2.16876
-0.0502005
1.82382
-0.056786
1.53882
-0.0599939
1.29666
-0.0563218
1.07126
-0.0371937
0.808163
-0.00786609
0.459197
0.12187
0.004744
0.122958
0.0266554
0.447801
0.0425229
0.801386
0.0446871
1.07623
0.0400873
1.30787
0.0324506
1.55302
0.0233804
1.83995
0.0129379
2.18592
0.0012515
2.6037
-0.0119588
3.1104
-0.0239866
3.1071
-0.0336925
2.59644
-0.0418635
2.17693
-0.0486131
1.83057
-0.0539706
1.54418
-0.0562966
1.29898
-0.0513926
1.06636
-0.0318515
0.788622
-0.00632377
0.433669
0.115547
0.00379798
0.11916
0.0218498
0.429749
0.0370895
0.786146
0.0398544
1.07347
0.0354647
1.31226
0.0280926
1.56039
0.0193251
1.84872
0.00925699
2.19599
-0.00197905
2.61494
-0.0138979
3.12232
-0.0252502
3.11845
-0.034629
2.60582
-0.0421058
2.18441
-0.0482329
1.8367
-0.053073
1.54902
-0.0543643
1.30027
-0.0479966
1.05999
-0.0281253
0.76875
-0.00571413
0.411258
0.109832
0.00306622
0.116094
0.0176108
0.415205
0.0316383
0.772119
0.0347264
1.07038
0.0306872
1.3163
0.0236113
1.56746
0.0151555
1.85717
0.00538651
2.20576
-0.00579802
2.62612
-0.018153
3.13467
-0.0290382
3.12934
-0.0370938
2.61387
-0.0436581
2.19098
-0.0489493
1.84199
-0.0527504
1.55282
-0.0529476
1.30047
-0.045314
1.05236
-0.0253807
0.748817
-0.00545803
0.391335
0.104374
0.0024129
0.113681
0.0139742
0.403643
0.0266989
0.759394
0.0299415
1.06714
0.0260408
1.3202
0.0190611
1.57444
0.010594
1.86564
0.00088461
2.21546
-0.00985265
2.63686
-0.0214602
3.14628
-0.0319173
3.1398
-0.0400184
2.62197
-0.045835
2.19679
-0.0501885
1.84634
-0.0529542
1.55559
-0.0523532
1.29987
-0.0432678
1.04327
-0.0232991
0.728848
-0.00526539
0.373302
0.0991091
0.00171902
0.111962
0.0106099
0.394753
0.0214791
0.748525
0.0242
1.06441
0.0203019
1.3241
0.0134755
1.58127
0.00508093
1.87404
-0.00457807
2.22512
-0.0155599
2.64784
-0.0274207
3.15814
-0.0374386
3.14981
-0.0440112
2.62855
-0.0487246
2.20151
-0.0522987
1.84992
-0.0540203
1.55731
-0.0525945
1.29844
-0.0422516
1.03293
-0.022065
0.708662
-0.00521217
0.356449
0.0938969
0.000898219
0.111064
0.00727812
0.388373
0.0166024
0.7392
0.0189935
1.06202
0.0146727
1.32842
0.0073713
1.58857
-0.00120456
1.88261
-0.0108526
2.23477
-0.0213525
2.65834
-0.0324846
3.16927
-0.0416771
3.15901
-0.0479501
2.63482
-0.0519894
2.20554
-0.054679
1.85261
-0.0555203
1.55815
-0.0530149
1.29594
-0.0415282
1.02144
-0.0211438
0.688277
-0.00513451
0.34044
0.0887624
0.000182027
0.110882
0.00435258
0.384202
0.0112392
0.732314
0.0123456
1.06092
0.00763982
1.33312
0.00014051
1.59607
-0.00899908
1.89175
-0.0191713
2.24494
-0.0301048
2.66927
-0.0411011
3.18027
-0.0495244
3.16743
-0.0541255
2.63942
-0.0568431
2.20826
-0.0588466
1.85461
-0.0588753
1.55818
-0.0549135
1.29198
-0.0418237
1.00835
-0.0208356
0.667289
-0.00516205
0.324766
0.0836003
-0.000778477
0.11166
0.000655247
0.382768
0.00557823
0.727391
0.00607829
1.06042
0.000588424
1.33861
-0.00798489
1.60464
-0.0177102
1.90148
-0.0279709
2.2552
-0.0385063
2.67981
-0.0487784
3.19054
-0.0562209
3.17487
-0.0604502
2.64365
-0.0626511
2.21046
-0.0636942
1.85565
-0.0628049
1.55729
-0.0574505
1.28662
-0.0426843
0.993585
-0.0209763
0.645581
-0.00530119
0.309091
0.0782992
-0.00160095
0.113261
-0.00236795
0.383535
-0.000275828
0.725299
-0.0018715
1.06201
-0.00815514
1.3449
-0.01708
1.61357
-0.0275558
1.91195
-0.0390446
2.26669
-0.0508123
2.69158
-0.0612376
3.20096
-0.0678405
3.18147
-0.0708771
2.64669
-0.071692
2.21128
-0.0712944
1.85525
-0.0687019
1.5547
-0.0613442
1.27926
-0.0444946
0.976736
-0.0216512
0.622738
-0.00554361
0.292983
0.0727556
-0.00296519
0.116226
-0.00609077
0.386661
-0.0075599
0.726768
-0.0103959
1.06485
-0.0176288
1.35213
-0.0278139
1.62375
-0.0392645
1.9234
-0.0512528
2.27868
-0.0629457
2.70327
-0.0729873
3.21101
-0.0790249
3.18751
-0.0810106
2.64867
-0.0804231
2.21069
-0.0791483
1.85398
-0.0756207
1.55117
-0.0663141
1.26996
-0.0472007
0.957622
-0.0228451
0.598382
-0.00591364
0.276052
0.0668419
-0.00426244
0.120489
-0.0103391
0.392738
-0.0152219
0.731651
-0.0211301
1.07076
-0.0296753
1.36067
-0.0408552
1.63493
-0.053478
1.93603
-0.0671037
2.29231
-0.080416
2.71658
-0.0909222
3.22151
-0.0954023
3.19199
-0.0957695
2.64904
-0.0945717
2.20949
-0.0909879
1.8504
-0.0848122
1.54499
-0.0728537
1.258
-0.0509249
0.935693
-0.0245167
0.571974
-0.00637321
0.257908
0.0604687
-0.00573353
0.126222
-0.0153937
0.402398
-0.0242495
0.740507
-0.033041
1.07955
-0.0436298
1.37126
-0.0567192
1.64802
-0.0709655
1.95027
-0.0854331
2.30678
-0.0986245
2.72977
-0.108153
3.23104
-0.111909
3.19575
-0.111191
2.64832
-0.107374
2.20568
-0.10283
1.84585
-0.0956882
1.53785
-0.0808903
1.2432
-0.055532
0.910335
-0.0266114
0.543053
-0.00690841
0.238205
0.0535603
-0.00801629
0.134239
-0.0221625
0.416544
-0.0363712
0.754715
-0.048636
1.09181
-0.0613701
1.384
-0.0766553
1.66331
-0.0929718
1.96659
-0.109353
2.32316
-0.123844
2.74426
-0.13389
3.24109
-0.135485
3.19734
-0.131965
2.6448
-0.12676
2.20047
-0.119433
1.83852
-0.108792
1.52721
-0.0904787
1.22489
-0.0611725
0.881029
-0.0290784
0.510959
-0.00748831
0.216615
0.046072
-0.0104498
0.144689
-0.0293884
0.435483
-0.0496614
0.774988
-0.0667314
1.10888
-0.0826426
1.39991
-0.100607
1.68127
-0.119293
1.98527
-0.137006
2.34087
-0.151393
2.75865
-0.159426
3.24912
-0.159335
3.19725
-0.153819
2.63928
-0.145638
2.19229
-0.136631
1.82952
-0.124116
1.5147
-0.101539
1.20231
-0.0673892
0.846879
-0.0316555
0.475225
-0.0080253
0.192985
0.0380467
-0.0150999
0.159788
-0.0414466
0.461829
-0.0684925
0.802034
-0.0906465
1.13104
-0.110549
1.41981
-0.132539
1.70326
-0.15412
2.00686
-0.17371
2.36046
-0.188335
2.77327
-0.194792
3.25558
-0.190922
3.19338
-0.18199
2.63035
-0.171735
2.18204
-0.159386
1.81717
-0.142073
1.49738
-0.114545
1.17478
-0.0747368
0.807071
-0.0344834
0.434972
-0.0085322
0.167034
0.0295145
-0.019351
0.179139
-0.0549089
0.497387
-0.0920343
0.83916
-0.121808
1.16081
-0.147095
1.4451
-0.172784
1.72895
-0.196371
2.03044
-0.215632
2.37972
-0.228056
2.7857
-0.231147
3.25867
-0.224454
3.18669
-0.212352
2.61825
-0.197812
2.1675
-0.182502
1.80186
-0.162079
1.47696
-0.12813
1.14083
-0.081582
0.760523
-0.0368199
0.39021
-0.00871496
0.138929
0.0207995
-0.0325014
0.211641
-0.0816445
0.54653
-0.129112
0.886627
-0.165303
1.197
-0.195928
1.47572
-0.225652
1.75868
-0.250288
2.05508
-0.269454
2.39889
-0.280474
2.79672
-0.278758
3.25695
-0.264942
3.17287
-0.247844
2.60115
-0.231406
2.15106
-0.212207
1.78266
-0.184608
1.44936
-0.143539
1.09977
-0.0896082
0.706592
-0.03917
0.339772
-0.00868764
0.108447
0.0121119
-0.0469031
0.258544
-0.120316
0.619943
-0.183332
0.949644
-0.228064
1.24173
-0.264677
1.51234
-0.295113
1.78911
-0.317561
2.07753
-0.33201
2.41334
-0.335473
2.80018
-0.32656
3.24804
-0.309098
3.15541
-0.288793
2.58085
-0.265866
2.12813
-0.241551
1.75834
-0.209188
1.417
-0.158515
1.04909
-0.0945839
0.642661
-0.0394262
0.284614
-0.00855919
0.0775795
0.0035527
-0.0338853
0.292429
-0.0972203
0.683278
-0.155687
1.00811
-0.202819
1.28887
-0.245323
1.55484
-0.283239
1.82703
-0.318479
2.11277
-0.350078
2.44493
-0.374654
2.82476
-0.387331
3.26072
-0.380214
3.14829
-0.361548
2.56218
-0.341381
2.10797
-0.311742
1.7287
-0.261819
1.36707
-0.188938
0.976212
-0.105295
0.559017
-0.0410718
0.220391
-0.0092619
0.0457696
-0.0057092
-0.0128375
0.305267
-0.0478595
0.7183
-0.0893327
1.04958
-0.128516
1.32805
-0.167382
1.59371
-0.20169
1.86133
-0.233378
2.14445
-0.260242
2.4718
-0.277704
2.84222
-0.278078
3.26109
-0.264207
3.13442
-0.245693
2.54367
-0.217872
2.08014
-0.184411
1.69524
-0.144082
1.32674
-0.0927645
0.924895
-0.0428078
0.509061
-0.0147812
0.192365
-0.00352615
0.0345146
-0.00923535
7.38644e-05
0.305193
-0.0249196
0.743293
-0.0546047
1.07927
-0.0846086
1.35805
-0.115865
1.62496
-0.146203
1.89167
-0.17407
2.17232
-0.196725
2.49445
-0.210312
2.85581
-0.211577
3.26236
-0.198482
3.12133
-0.172537
2.51772
-0.143209
2.05082
-0.11048
1.66251
-0.0713499
1.28761
-0.0322434
0.885788
-0.00648445
0.483302
0.000292976
0.185587
-0.000111282
0.0349188
-0.00934662
0.000697369
0.304496
-0.0126707
0.756662
-0.0341408
1.10074
-0.0588036
1.38272
-0.0846836
1.65084
-0.110196
1.91719
-0.133512
2.19564
-0.152091
2.51303
-0.162275
2.86599
-0.159474
3.25956
-0.139888
3.10174
-0.113324
2.49116
-0.0846459
2.02214
-0.0516237
1.62949
-0.0217678
1.25776
0.00066985
0.86335
0.0106131
0.473358
0.00750682
0.188693
0.00200352
0.0404221
-0.0073431
0.00399403
0.300501
-0.00544483
0.7661
-0.0234302
1.11872
-0.0440248
1.40331
-0.0655627
1.67238
-0.0869829
1.93861
-0.107098
2.21575
-0.123378
2.52931
-0.132141
2.87475
-0.128381
3.2558
-0.109398
3.08276
-0.0833625
2.46512
-0.0526436
1.99142
-0.0252424
1.60209
0.00229387
1.23022
0.0212049
0.844439
0.0227114
0.471852
0.0130896
0.198315
0.00366028
0.0498515
-0.00368281
0.00516569
0.295336
-0.000916556
0.772183
-0.0168393
1.13465
-0.035118
1.42159
-0.0542667
1.69153
-0.0732446
1.95758
-0.0910023
2.23351
-0.105253
2.54356
-0.11219
2.88169
-0.106638
3.25024
-0.0883339
3.06445
-0.0635765
2.44037
-0.0368866
1.96473
-0.00745933
1.57266
0.0137992
1.20896
0.0254751
0.832764
0.0249364
0.472391
0.0142343
0.209017
0.00411935
0.0599664
0.000436539
0.00405864
0.291277
-0.000295588
0.776537
-0.0136625
1.14801
-0.030347
1.43827
-0.0475775
1.70876
-0.0647417
1.97475
-0.0809029
2.24967
-0.0938284
2.55649
-0.100422
2.88828
-0.0959089
3.24573
-0.0788318
3.04738
-0.0550204
2.41656
-0.0283316
1.93804
-0.006102
1.55043
0.0145152
1.18835
0.0261183
0.82116
0.0234723
0.475037
0.0135218
0.218968
0.00398243
0.0695058
0.00441897
0.00251445
0.288763
-0.00118157
0.780233
-0.0131651
1.16
-0.028065
1.45317
-0.044213
1.72491
-0.0602193
1.99075
-0.0753629
2.26482
-0.0880167
2.56914
-0.0952718
2.89554
-0.0914281
3.24189
-0.0752152
3.03116
-0.0533313
2.39467
-0.0309577
1.91567
-0.0065805
1.52606
0.0108888
1.17088
0.0198535
0.812196
0.0192991
0.475591
0.0110194
0.227247
0.00332141
0.0772038
0.00774037
0.000358179
0.288405
-0.00326769
0.783859
-0.013894
1.17062
-0.0273356
1.46662
-0.0423903
1.73996
-0.0576491
2.00601
-0.0724554
2.27962
-0.0851498
2.58184
-0.0924917
2.90288
-0.0898825
3.23928
-0.0754587
3.01674
-0.0546939
2.37391
-0.0328662
1.89384
-0.0149333
1.50812
0.0027605
1.15318
0.0139083
0.801048
0.0132643
0.476235
0.00787689
0.232635
0.00244793
0.0826328
0.0101883
-0.000571996
0.288977
-0.00557541
0.788862
-0.015311
1.18036
-0.0277538
1.47906
-0.0421179
1.75433
-0.0568628
2.02076
-0.0714849
2.29424
-0.0845626
2.59491
-0.0932432
2.91156
-0.0932704
3.2393
-0.0801318
3.0036
-0.0613432
2.35512
-0.0430355
1.87553
-0.0216326
1.48672
-0.0060831
1.13763
0.00330628
0.791658
0.00640358
0.473138
0.00399632
0.235042
0.00153692
0.0850922
0.0117252
-0.00204495
0.291021
-0.00724997
0.794067
-0.0167104
1.18982
-0.0285311
1.49088
-0.0421531
1.76795
-0.0565379
2.03514
-0.0712368
2.30894
-0.0848153
2.60849
-0.0944637
2.92121
-0.0958762
3.24072
-0.0851065
2.99283
-0.0683775
2.33839
-0.0485852
1.85574
-0.0326844
1.47082
-0.0161352
1.12109
-0.00384945
0.779373
-0.000329372
0.469618
0.000450062
0.234263
0.000363576
0.0851787
0.0120888
-0.00348661
0.294508
-0.00912868
0.799709
-0.0181876
1.19888
-0.0295793
1.50227
-0.0428123
1.78118
-0.0568542
2.04918
-0.071555
2.32364
-0.0858422
2.62278
-0.0971945
2.93256
-0.101193
3.24472
-0.0928852
2.98452
-0.0777101
2.32321
-0.0610213
1.83905
-0.0404644
1.45026
-0.0241962
1.10482
-0.0126621
0.767839
-0.00517083
0.462126
-0.00211694
0.231209
-0.000304511
0.0833662
0.0117843
-0.00412832
0.298636
-0.0101856
0.805767
-0.0193152
1.20801
-0.0303507
1.51331
-0.0430636
1.7939
-0.0568897
2.06301
-0.0718305
2.33858
-0.0868104
2.63776
-0.0994411
2.94519
-0.105713
3.25099
-0.101433
2.98024
-0.0880294
2.30981
-0.0671076
1.81813
-0.0494512
1.43261
-0.0311806
1.08655
-0.0166849
0.753343
-0.00936778
0.454809
-0.00365841
0.225499
-0.000759079
0.0804669
0.0110252
-0.00439659
0.303033
-0.011209
0.812579
-0.020222
1.21702
-0.030976
1.52406
-0.0434816
1.8064
-0.0571245
2.07665
-0.0721383
2.3536
-0.0877169
2.65334
-0.101921
2.9594
-0.111075
3.26014
-0.108668
2.97784
-0.0960064
2.29715
-0.0790753
1.8012
-0.0554604
1.40899
-0.0359419
1.06703
-0.0215991
0.739
-0.0107525
0.443963
-0.00445825
0.219205
-0.000946375
0.076955
0.0100788
-0.00442732
0.30746
-0.0115427
0.819694
-0.0206612
1.22614
-0.0311944
1.53459
-0.0433169
1.81852
-0.0567847
2.09012
-0.0719596
2.36877
-0.0881137
2.66949
-0.103804
2.97509
-0.115682
3.27202
-0.117408
2.97956
-0.106603
2.28635
-0.0840507
1.77864
-0.0619436
1.38688
-0.0390492
1.04413
-0.0212309
0.721182
-0.0110917
0.433824
-0.00393491
0.212048
-0.000847938
0.0738681
0.0092309
-0.00455587
0.312016
-0.0120028
0.827141
-0.0208808
1.23502
-0.0311743
1.54489
-0.0431423
1.83049
-0.0564515
2.10343
-0.0716388
2.38396
-0.0883252
2.68618
-0.105363
2.99212
-0.119602
3.28626
-0.123404
2.98336
-0.113628
2.27657
-0.0961119
1.76113
-0.0670947
1.35787
-0.0400747
1.01711
-0.0204635
0.701571
-0.00664395
0.420004
-0.000925414
0.20633
0.000558105
0.0723845
0.009789
-0.00455582
0.316572
-0.011933
0.834518
-0.0207434
1.24383
-0.0308178
1.55496
-0.0424168
1.84209
-0.0555045
2.11652
-0.0707452
2.3992
-0.0878516
2.70328
-0.106024
3.0103
-0.122847
3.30308
-0.131161
2.99168
-0.124157
2.26957
-0.10127
1.73824
-0.0732203
1.32982
-0.0399514
0.983845
-0.0131157
0.674735
0.00128085
0.405607
0.0041827
0.203428
-0.00113437
0.0777016
0.00865463
-0.00460332
0.321175
-0.0120286
0.841944
-0.02049
1.25229
-0.0302497
1.56472
-0.0416301
1.85347
-0.0545309
2.12942
-0.0697037
2.41437
-0.0871435
2.72072
-0.106295
3.02945
-0.125011
3.3218
-0.135353
3.00202
-0.130796
2.26501
-0.114379
1.72182
-0.0798909
1.29533
-0.0397024
0.943656
-0.00185656
0.636889
0.0282292
0.375522
0.0390169
0.19264
0.0261027
0.0906158
0.0347573
-0.00446815
0.325643
-0.0116569
0.849132
-0.0199697
1.2606
-0.0294526
1.5742
-0.0404179
1.86444
-0.0530292
2.14203
-0.0681149
2.42946
-0.0857322
2.73834
-0.105609
3.04933
-0.126331
3.34252
-0.140394
3.01608
-0.140869
2.26548
-0.120742
1.7017
-0.0884218
1.26301
-0.0404893
0.895724
0.00806122
0.588338
0.0496781
0.333905
0.048428
0.19389
0.0213312
0.117713
0.0560885
-0.00434691
0.32999
-0.0114734
0.856259
-0.0193915
1.26852
-0.0284797
1.58329
-0.0391916
1.87515
-0.0515702
2.15441
-0.0664897
2.44438
-0.0842183
2.75607
-0.104755
3.06986
-0.127005
3.36477
-0.14267
3.03175
-0.146221
2.26903
-0.135541
1.69102
-0.100676
1.22815
-0.0491791
0.844226
0.0232504
0.515909
0.121967
0.235188
0.195122
0.120736
0.182479
0.130355
0.238568
-0.00418728
0.334178
-0.0111046
0.863176
-0.019062
1.27648
-0.0282027
1.59243
-0.0390412
1.88599
-0.0518396
2.16721
-0.0676659
2.46021
-0.0869466
2.77535
-0.110079
3.09299
-0.136678
3.39137
-0.15902
3.05409
-0.169173
2.27919
-0.157576
1.67942
-0.127108
1.19768
-0.067718
0.784836
-0.0106586
0.458849
-0.0650186
0.289548
-0.356846
0.412563
-0.942273
0.715782
0.9005
-1.6042
-0.00403784
0.338215
-0.0108923
0.870031
-0.0185492
1.28413
-0.0274837
1.60137
-0.0382897
1.89679
-0.0512594
2.18018
-0.067526
2.47647
-0.0877928
2.79562
-0.112888
3.11809
-0.143106
3.42159
-0.169921
3.0809
-0.184373
2.29364
-0.190898
1.68594
-0.170322
1.1771
-0.141764
0.756279
-0.235366
0.552452
-0.693309
0.74749
-1.44422
1.16348
-2.05139
1.32295
1.21666
-2.36755
-0.00379897
0.342014
-0.0102896
0.876521
-0.0178122
1.29166
-0.0266206
1.61018
-0.0372639
1.90744
-0.0502765
2.19319
-0.0669184
2.49311
-0.0880423
2.81674
-0.114902
3.14495
-0.148581
3.45527
-0.182046
3.11437
-0.206888
2.31848
-0.214328
1.69338
-0.202045
1.16482
-0.287904
0.842138
-0.753341
1.01789
-1.54686
1.54101
-2.11111
1.72773
-2.35006
1.5619
1.33081
-2.46421
-0.00365696
0.345671
-0.00991487
0.882779
-0.0170582
1.2988
-0.0255906
1.61871
-0.0361195
1.91796
-0.0492302
2.2063
-0.0662135
2.5101
-0.0882122
2.83874
-0.116951
3.17369
-0.154531
3.49285
-0.193792
3.15363
-0.22371
2.3484
-0.249997
1.71967
-0.328296
1.24312
-0.683681
1.19752
-1.43859
1.7728
-2.02769
2.13011
-2.26721
1.96724
-2.38028
1.67497
1.39492
-2.44439
-0.00334357
0.349015
-0.00913264
0.888568
-0.0160512
1.30572
-0.0243897
1.62705
-0.0347606
1.92834
-0.0478322
2.21937
-0.0650452
2.52731
-0.0877241
2.86142
-0.118066
3.20403
-0.159061
3.53384
-0.205621
3.20019
-0.249101
2.39188
-0.29016
1.76073
-0.470886
1.42384
-1.09417
1.82081
-1.78874
2.46737
-2.1087
2.45007
-2.2567
2.11525
-2.33869
1.75696
1.46081
-2.40457
-0.00331901
0.352334
-0.00912695
0.894376
-0.0159188
1.31251
-0.0242365
1.63536
-0.0348838
1.93898
-0.0483241
2.23281
-0.0661002
2.54509
-0.089805
2.88512
-0.122072
3.2363
-0.166973
3.57874
-0.219786
3.253
-0.265901
2.438
-0.354442
1.84927
-0.746092
1.81549
-1.4906
2.56531
-1.96319
2.93996
-2.16299
2.64987
-2.26912
2.22139
-2.3462
1.83403
1.52423
-2.40962
-0.00337864
0.355713
-0.00930675
0.900304
-0.0165933
1.3198
-0.0254432
1.64421
-0.0365822
1.95012
-0.0506256
2.24686
-0.0692432
2.5637
-0.0941381
2.91002
-0.128348
3.27051
-0.177006
3.6274
-0.234317
3.31031
-0.296327
2.50001
-0.484662
2.0376
-1.0462
2.37704
-1.67845
3.19756
-1.95348
3.215
-2.10025
2.79664
-2.214
2.33513
-2.30751
1.92754
1.58584
-2.36911
-0.00349064
0.359203
-0.00992171
0.906736
-0.0174824
1.32736
-0.0267176
1.65345
-0.0384233
1.96183
-0.0532147
2.26165
-0.0727862
2.58328
-0.0990809
2.93631
-0.13541
3.30684
-0.187944
3.67994
-0.250838
3.37321
-0.336355
2.58552
-0.617861
2.31911
-1.26389
3.02306
-1.7526
3.68627
-1.95957
3.42197
-2.09929
2.93636
-2.22294
2.45878
-2.33325
2.03785
1.64439
-2.39181
-0.00341739
0.362621
-0.00990444
0.913223
-0.0181374
1.33559
-0.0280699
1.66338
-0.0403361
1.97409
-0.0557672
2.27708
-0.0762213
2.60373
-0.103723
2.96382
-0.141922
3.34503
-0.19751
3.73552
-0.264915
3.44061
-0.389149
2.70976
-0.775402
2.70536
-1.41028
3.65794
-1.76265
4.03864
-1.93541
3.59472
-2.03718
3.03813
-2.12559
2.54719
-2.19267
2.10493
1.63712
-2.1854
-0.00341526
0.366036
-0.0105086
0.920316
-0.0189901
1.34407
-0.0293078
1.6737
-0.042226
1.98701
-0.0584864
2.29334
-0.0799598
2.6252
-0.108914
2.99277
-0.149136
3.38526
-0.206491
3.79288
-0.284816
3.51894
-0.454711
2.87965
-0.906818
3.15747
-1.46257
4.2137
-1.72412
4.30019
-1.87562
3.74622
-1.96874
3.13125
-1.96998
2.54844
-1.90069
2.03564
1.60127
-1.86485
-0.00316982
0.369206
-0.0100896
0.927236
-0.019323
1.35331
-0.0303817
1.68476
-0.0437703
2.0004
-0.0604075
2.30998
-0.0822556
2.64705
-0.111485
3.022
-0.151955
3.42573
-0.208899
3.84982
-0.294486
3.60452
-0.498713
3.08388
-0.988477
3.64723
-1.42951
4.65473
-1.59441
4.46509
-1.66138
3.81319
-1.66574
3.13561
-1.51801
2.4007
-1.0179
1.53554
0.583373
-0.00274639
0.371952
-0.0105214
0.935011
-0.0199236
1.36271
-0.0314228
1.69626
-0.0458382
2.01482
-0.0639338
2.32807
-0.0877662
2.67088
-0.119887
3.05412
-0.164529
3.47037
-0.22782
3.91312
-0.330453
3.70716
-0.584784
3.33821
-1.12422
4.18667
-1.48238
5.01289
-1.5815
4.5642
-1.57922
3.81091
-1.47536
3.03175
-1.23636
2.16171
-0.632258
0.931434
-0.0488844
-0.00237555
0.374328
-0.00930602
0.941941
-0.0195919
1.37299
-0.0322457
1.70891
-0.0476667
2.03024
-0.0669762
2.34738
-0.0925893
2.6965
-0.127208
3.08874
-0.17597
3.51913
-0.245685
3.98283
-0.368436
3.82991
-0.68258
3.65235
-1.24238
4.74647
-1.50295
5.27347
-1.56112
4.62237
-1.53899
3.78878
-1.33704
2.8298
-0.783362
1.60802
-0.108972
0.257044
-0.157856
-0.0017215
0.376049
-0.00933368
0.949553
-0.0194358
1.3831
-0.0322912
1.72177
-0.0486125
2.04656
-0.0693799
2.36815
-0.0970451
2.72416
-0.134773
3.12647
-0.187455
3.57181
-0.264905
4.06028
-0.412954
3.97796
-0.785486
4.02489
-1.32089
5.28187
-1.49694
5.44952
-1.52822
4.65364
-1.44006
3.70062
-1.10243
2.49218
-0.313498
0.819087
0.0249592
-0.0814131
-0.132897
-0.000469088
0.376518
-0.00659765
0.955682
-0.0175765
1.39407
-0.0317617
1.73595
-0.049041
2.06384
-0.0709021
2.39001
-0.100217
2.75348
-0.140106
3.16635
-0.195572
3.62728
-0.281759
4.14647
-0.456834
4.15303
-0.894993
4.46304
-1.36585
5.75273
-1.48229
5.56596
-1.4849
4.65626
-1.25997
3.47569
-0.687033
1.91924
-0.0625597
0.194614
0.030481
-0.174454
-0.102416
0.000207664
0.376311
-0.00542358
0.961313
-0.015737
1.40439
-0.0297631
1.74998
-0.0475136
2.08159
-0.0707309
2.41323
-0.10191
2.78466
-0.144486
3.20893
-0.203132
3.68592
-0.298448
4.24178
-0.499012
4.3536
-0.987052
4.95108
-1.36152
6.12719
-1.42567
5.63011
-1.37915
4.60974
-1.09039
3.18693
-0.322941
1.15179
0.00512332
-0.133451
0.0152901
-0.18462
-0.0871261
0.00331047
0.373
0.000378744
0.964245
-0.0110281
1.41579
-0.0265328
1.76548
-0.0449459
2.1
-0.0690216
2.4373
-0.101343
2.81698
-0.145268
3.25285
-0.206459
3.74711
-0.309822
4.34515
-0.537419
4.58119
-1.05034
5.46401
-1.32536
6.40221
-1.36574
5.67049
-1.2259
4.4699
-0.773023
2.73406
-0.0695682
0.448335
0.0449931
-0.248012
0.0246095
-0.164237
-0.0625166
0.00467364
0.368326
0.00285705
0.966061
-0.00676453
1.42542
-0.0206373
1.77936
-0.0387578
2.11812
-0.0638505
2.46239
-0.0974257
2.85055
-0.14337
3.2988
-0.207198
3.81094
-0.318593
4.45654
-0.575636
4.83824
-1.07046
5.95883
-1.26087
6.59262
-1.27059
5.68021
-1.05135
4.25066
-0.460506
2.14322
-0.0172654
0.00509511
-0.00551306
-0.259764
0.00560667
-0.175357
-0.0569099
0.00867119
0.359655
0.009988
0.964745
0.00230521
1.4331
-0.0121568
1.79382
-0.0309878
2.13695
-0.0561881
2.4876
-0.0898061
2.88417
-0.135433
3.34443
-0.200599
3.87611
-0.317965
4.57391
-0.596796
5.11707
-1.04914
6.41117
-1.17164
6.71512
-1.15694
5.66551
-0.897146
3.99086
-0.26391
1.50998
-0.0705844
-0.188231
-0.0384888
-0.29186
-0.0136946
-0.200151
-0.0706045
0.0116772
0.347978
0.016621
0.959801
0.0118747
1.43785
0.00137918
1.80431
-0.017325
2.15566
-0.0421045
2.51237
-0.0756095
2.91768
-0.121924
3.39074
-0.187896
3.94208
-0.309432
4.69544
-0.59597
5.40361
-0.982703
6.7979
-1.0489
6.78132
-0.97812
5.59473
-0.679744
3.69249
-0.075173
0.905409
0.0118075
-0.275211
-0.00327068
-0.276782
-0.00267121
-0.20075
-0.0732757
0.0184904
0.329488
0.0300717
0.94822
0.0282537
1.43966
0.0167042
1.81586
-0.00136234
2.17372
-0.0238003
2.53481
-0.0555971
2.94947
-0.0994642
3.43461
-0.163184
4.0058
-0.283412
4.81567
-0.560745
5.68094
-0.870059
7.10722
-0.905009
6.81627
-0.807229
5.49695
-0.451662
3.33692
0.060047
0.3937
0.0710759
-0.28624
0.0523793
-0.258085
0.0197304
-0.168101
-0.0535453
0.0244962
0.304991
0.0430008
0.929715
0.0465193
1.43614
0.0399412
1.82244
0.0272055
2.18646
0.00549032
2.55653
-0.0243567
2.97932
-0.0661229
3.47637
-0.127118
4.0668
-0.242257
4.93081
-0.488694
5.92738
-0.710496
7.32902
-0.741516
6.84728
-0.631071
5.38651
-0.305808
3.01165
-0.00480669
0.0926993
0.0160326
-0.307079
0.0315208
-0.273574
0.0165684
-0.153149
-0.036977
0.035005
0.269986
0.0650044
0.899716
0.0753943
1.42575
0.0713178
1.82652
0.0603235
2.19745
0.0416071
2.57524
0.0153806
3.00555
-0.0214535
3.51321
-0.0749825
4.12032
-0.172119
5.02795
-0.37085
6.12611
-0.525362
7.48353
-0.552581
6.8745
-0.458303
5.29223
-0.180135
2.73349
-0.0589533
-0.0284828
-0.0400971
-0.325935
-0.0117019
-0.301969
-0.000313437
-0.164537
-0.0372904
0.0444981
0.225488
0.087331
0.856883
0.108059
1.40503
0.113008
1.82157
0.10876
2.2017
0.0947224
2.58928
0.0741028
3.02617
0.0430543
3.54426
-0.0065029
4.16988
-0.0791582
5.1006
-0.213616
6.26057
-0.299605
7.56952
-0.319345
6.89424
-0.256002
5.22889
-0.0432963
2.52078
-0.0707985
-0.000980597
-0.074172
-0.322562
-0.0331661
-0.342975
0.0109728
-0.208676
-0.0263175
0.0573812
0.168107
0.119695
0.794568
0.155489
1.36923
0.166855
1.8102
0.166711
2.20185
0.157314
2.59868
0.143828
3.03965
0.123644
3.56444
0.0922406
4.20129
0.0495043
5.14334
0.0036553
6.30641
-0.0329543
7.60613
-0.030761
6.89205
-0.0496666
5.24779
-0.0438349
2.51495
-0.257827
0.213011
-0.255758
-0.32463
-0.150619
-0.448114
-0.00922263
-0.350072
-0.0355402
0.0599249
0.108182
0.149812
0.704681
0.206693
1.31235
0.234186
1.78271
0.245807
2.19022
0.245105
2.59938
0.239892
3.04487
0.229682
3.57465
0.215717
4.21525
0.199984
5.15907
0.26623
6.24017
0.323182
7.54918
0.28269
6.93254
0.0794002
5.45108
-0.258047
2.8524
-0.615581
0.570546
-0.611643
-0.328568
-0.455062
-0.604696
-0.204568
-0.600566
-0.240108
0.0506062
0.057576
0.182013
0.573275
0.275642
1.21872
0.319449
1.7389
0.338978
2.17069
0.346974
2.59139
0.349036
3.0428
0.354725
3.56896
0.36526
4.20472
0.392995
5.13134
0.552444
6.08072
0.72975
7.37187
0.748036
6.91426
0.650842
5.54828
0.175707
3.32753
-0.378877
1.12513
-0.675308
-0.0321365
-0.613193
-0.666811
-0.336194
-0.877565
-0.576302
0.035086
0.02249
0.216327
0.392033
0.341935
1.09312
0.418927
1.66191
0.459469
2.13015
0.482836
2.56802
0.493088
3.03255
0.510951
3.5511
0.544362
4.17131
0.615939
5.05976
0.908331
5.78833
1.35494
6.92527
1.69232
6.57687
1.92884
5.31175
1.59889
3.65748
0.894319
1.8297
0.289197
0.572985
-0.058736
-0.318878
-0.152261
-0.78404
-0.728563
0.0311307
-0.00864062
0.235302
0.187862
0.437906
0.89051
0.548204
1.55161
0.599455
2.0789
0.633189
2.53429
0.655374
3.01037
0.686172
3.5203
0.747765
4.10971
0.880077
4.92745
1.27573
5.39268
1.99093
6.21006
2.36788
6.19992
2.57609
5.10354
2.42199
3.81159
1.85738
2.39431
1.29996
1.1304
0.712793
0.268291
0.248186
-0.319434
-0.480377
0.0272583
-0.0358989
0.168858
0.0462625
0.486472
0.572896
0.67527
1.36281
0.771336
1.98284
0.821961
2.48366
0.859772
2.97256
0.889017
3.49105
0.964094
4.03464
1.11007
4.78147
1.48953
5.01322
2.27508
5.4245
2.64408
5.83093
2.83504
4.91258
2.73548
3.91115
2.25605
2.87374
1.6112
1.77525
0.988098
0.891397
0.429714
0.23895
-0.0506626
0.00730345
-0.0432023
0.0876065
-0.0340405
0.411682
0.248821
0.687973
1.08652
0.815578
1.85523
0.853139
2.4461
0.864452
2.96124
0.853557
3.50195
0.851979
4.03621
0.895416
4.73803
1.03118
4.87746
1.44415
5.01154
1.62986
5.64521
1.65273
4.88972
1.57449
3.98939
1.35982
3.08842
1.00337
2.13169
0.637061
1.25771
0.260577
0.615434
0.209915
0.00105749
-0.0442598
0.0407284
-0.0737113
0.226921
0.0626283
0.51618
0.797264
0.679508
1.6919
0.73291
2.3927
0.745674
2.94848
0.740493
3.50713
0.72479
4.05192
0.744144
4.71868
0.803761
4.81784
1.06541
4.74989
1.27852
5.4321
1.28408
4.88415
1.22273
4.05074
1.0714
3.23975
0.799986
2.4031
0.499803
1.55789
0.208334
0.906903
0.418249
0.00104863
-0.0453084
0.0232374
-0.0959001
0.103455
-0.017589
0.358718
0.542001
0.525623
1.525
0.601984
2.31634
0.621649
2.92881
0.621687
3.50709
0.597823
4.07578
0.589519
4.72698
0.615987
4.79137
0.773095
4.59278
0.95577
5.24942
0.952636
4.88729
0.890976
4.1124
0.774986
3.35574
0.587905
2.59018
0.359292
1.7865
0.140838
1.12536
0.559087
-0.0090511
-0.0362573
-0.00146433
-0.103487
0.0423669
-0.0614202
0.249055
0.335312
0.399351
1.3747
0.467875
2.24781
0.486077
2.91061
0.490709
3.50246
0.475846
4.09064
0.461856
4.74097
0.463528
4.7897
0.557711
4.4986
0.690086
5.11705
0.686853
4.89052
0.622944
4.17631
0.528781
3.44991
0.397107
2.72186
0.233512
1.9501
0.0817074
1.27716
0.640794
0.0108319
-0.0470892
0.0481269
-0.140782
0.0894151
-0.102708
0.197164
0.227563
0.307342