/*--------------------------------*- C++ -*----------------------------------*\
| =========                 |                                                 |
| \\      /  F ield         | OpenFOAM: The Open Source CFD Toolbox           |
|  \\    /   O peration     | Version:  4.0                                   |
|   \\  /    A nd           | Web:      www.OpenFOAM.org                      |
|    \\/     M anipulation  |                                                 |
\*---------------------------------------------------------------------------*/
FoamFile
{
    version     2.0;
    format      ascii;
    class       volVectorField;
    location    "55";
    object      U;
}
// * * * * * * * * * * * * * * * * * * * * * * * * * * * * * * * * * * * * * //

dimensions      [0 1 -1 0 0 0 0];

internalField   nonuniform List<vector> 
2200
(
(0.878846 -0.0304128 0)
(1.00579 -0.0512837 0)
(1.00329 -0.0353945 0)
(1.0003 -0.0244536 0)
(0.99987 -0.016691 0)
(0.999997 -0.0107544 0)
(1.00003 -0.00686125 0)
(1.00003 -0.00420772 0)
(1.00002 -0.00221252 0)
(1.00018 -0.000691265 0)
(0.999994 0.00107128 0)
(0.999867 0.00254933 0)
(1.00007 0.00446602 0)
(1.0001 0.00703371 0)
(1.00008 0.0108128 0)
(1.00007 0.0166592 0)
(1.00039 0.0243852 0)
(1.0035 0.0348941 0)
(1.00598 0.051376 0)
(0.879046 0.0303049 0)
(0.711992 -0.0327651 0)
(0.996634 -0.063015 0)
(1.03328 -0.0561796 0)
(1.02481 -0.0464112 0)
(1.01584 -0.0361011 0)
(1.0097 -0.0263785 0)
(1.00592 -0.0181387 0)
(1.00374 -0.0114381 0)
(1.00254 -0.006081 0)
(1.00208 -0.00157913 0)
(1.00217 0.00259904 0)
(1.0026 0.0071106 0)
(1.00353 0.0124061 0)
(1.00565 0.0190171 0)
(1.00944 0.0272427 0)
(1.01547 0.0369619 0)
(1.02455 0.0474255 0)
(1.03312 0.0579215 0)
(0.996691 0.0631444 0)
(0.711763 0.0330259 0)
(0.535567 -0.0238896 0)
(0.969906 -0.0569341 0)
(1.05645 -0.0546932 0)
(1.05235 -0.0487732 0)
(1.03629 -0.0404303 0)
(1.02441 -0.0322551 0)
(1.01591 -0.0239907 0)
(1.01041 -0.0161175 0)
(1.00719 -0.00879769 0)
(1.00566 -0.00214553 0)
(1.0055 0.00418807 0)
(1.00694 0.0106319 0)
(1.01028 0.017719 0)
(1.01565 0.0253577 0)
(1.02412 0.033397 0)
(1.0362 0.0413564 0)
(1.05226 0.0493714 0)
(1.05633 0.0533245 0)
(0.969219 0.0576223 0)
(0.534426 0.0239316 0)
(0.392253 -0.0136636 0)
(0.911717 -0.0464129 0)
(1.05747 -0.0470041 0)
(1.0694 -0.0443297 0)
(1.05482 -0.0382326 0)
(1.03935 -0.0315453 0)
(1.02757 -0.0247628 0)
(1.01909 -0.0175217 0)
(1.01372 -0.0100825 0)
(1.01107 -0.00253029 0)
(1.01091 0.00499197 0)
(1.01329 0.0125303 0)
(1.01827 0.01975 0)
(1.02669 0.0266487 0)
(1.03842 0.0330517 0)
(1.05387 0.0395141 0)
(1.06811 0.0456084 0)
(1.05552 0.048294 0)
(0.909909 0.0469857 0)
(0.389974 0.0137758 0)
(0.307656 -0.00450745 0)
(0.846772 -0.0323699 0)
(1.04952 -0.0399 0)
(1.07957 -0.0381416 0)
(1.06825 -0.033488 0)
(1.05166 -0.0279007 0)
(1.03827 -0.0225 0)
(1.02805 -0.0164959 0)
(1.02098 -0.00954774 0)
(1.01718 -0.00188232 0)
(1.01704 0.00593952 0)
(1.02056 0.0131371 0)
(1.02744 0.0196066 0)
(1.03731 0.0252966 0)
(1.05038 0.0302966 0)
(1.0668 0.0356236 0)
(1.07786 0.0399479 0)
(1.04744 0.0416701 0)
(0.84312 0.0329337 0)
(0.303869 0.00472671 0)
(0.264191 9.99795e-05 0)
(0.788831 -0.0200822 0)
(1.03319 -0.0314966 0)
(1.08343 -0.0321087 0)
(1.07724 -0.0288487 0)
(1.06084 -0.0239222 0)
(1.04723 -0.0194395 0)
(1.03637 -0.0143071 0)
(1.02858 -0.00831906 0)
(1.02405 -0.00140505 0)
(1.02349 0.00590591 0)
(1.0272 0.0127389 0)
(1.03448 0.0183851 0)
(1.04514 0.022975 0)
(1.0586 0.0269618 0)
(1.07485 0.0314181 0)
(1.08033 0.0342017 0)
(1.02915 0.0332653 0)
(0.782752 0.0207213 0)
(0.258905 0.000113123 0)
(0.240267 0.00106325 0)
(0.738318 -0.0123124 0)
(1.0137 -0.0250176 0)
(1.08411 -0.0268203 0)
(1.08306 -0.0245317 0)
(1.06781 -0.0204397 0)
(1.05423 -0.0164209 0)
(1.04334 -0.0119282 0)
(1.03514 -0.00649854 0)
(1.03027 -5.4435e-05 0)
(1.03004 0.00671721 0)
(1.03424 0.0125465 0)
(1.04168 0.017303 0)
(1.05192 0.0212469 0)
(1.06504 0.0245818 0)
(1.07971 0.0279993 0)
(1.08016 0.0295418 0)
(1.00792 0.0271724 0)
(0.729271 0.0131132 0)
(0.233347 -0.000844595 0)
(0.22586 0.000959258 0)
(0.695241 -0.00805172 0)
(0.992852 -0.0207803 0)
(1.08206 -0.0231674 0)
(1.08674 -0.0213232 0)
(1.07332 -0.0177665 0)
(1.0599 -0.0140202 0)
(1.04932 -0.00969765 0)
(1.04138 -0.0047524 0)
(1.03643 0.000869439 0)
(1.03537 0.00668282 0)
(1.03883 0.0121095 0)
(1.04591 0.0164293 0)
(1.0559 0.0198753 0)
(1.06915 0.0229434 0)
(1.08193 0.0257293 0)
(1.07559 0.0266933 0)
(0.983374 0.0233645 0)
(0.68217 0.00909637 0)
(0.216932 -0.000716632 0)
(0.216283 0.000617376 0)
(0.659853 -0.00570218 0)
(0.972429 -0.0176772 0)
(1.07946 -0.0202989 0)
(1.09017 -0.0187411 0)
(1.07811 -0.0156151 0)
(1.06475 -0.0119448 0)
(1.0543 -0.00781779 0)
(1.04637 -0.00303843 0)
(1.04128 0.002378 0)
(1.04076 0.00792796 0)
(1.04434 0.012529 0)
(1.05087 0.016293 0)
(1.06026 0.019485 0)
(1.07282 0.0221114 0)
(1.08368 0.0242797 0)
(1.07141 0.0248279 0)
(0.959909 0.0208895 0)
(0.642449 0.0070238 0)
(0.204961 -0.000345082 0)
(0.208996 0.000289481 0)
(0.631088 -0.00425292 0)
(0.953337 -0.0151077 0)
(1.07618 -0.0180563 0)
(1.09323 -0.0167113 0)
(1.08282 -0.0137547 0)
(1.06935 -0.0101864 0)
(1.05892 -0.00610324 0)
(1.05121 -0.00142931 0)
(1.04631 0.00354461 0)
(1.04467 0.00836765 0)
(1.04722 0.0129386 0)
(1.05333 0.016579 0)
(1.06265 0.0194292 0)
(1.07558 0.0219135 0)
(1.0846 0.0237119 0)
(1.06411 0.0236729 0)
(0.934869 0.0189867 0)
(0.607505 0.00587065 0)
(0.194558 2.92751e-05 0)
(0.203132 8.07396e-05 0)
(0.607748 -0.003171 0)
(0.935411 -0.0126201 0)
(1.0732 -0.0157048 0)
(1.09663 -0.0145988 0)
(1.08754 -0.0118829 0)
(1.07403 -0.00833669 0)
(1.06331 -0.0043784 0)
(1.05522 0.00018559 0)
(1.0498 0.0052575 0)
(1.0486 0.0103191 0)
(1.05137 0.0142382 0)
(1.05721 0.0173599 0)
(1.06621 0.0200254 0)
(1.07833 0.0221249 0)
(1.08511 0.0233302 0)
(1.0578 0.0227675 0)
(0.91168 0.017412 0)
(0.577717 0.00520221 0)
(0.185125 0.000311223 0)
(0.198487 -9.98769e-07 0)
(0.589363 -0.00232813 0)
(0.919708 -0.0103309 0)
(1.06986 -0.0136012 0)
(1.09976 -0.0126074 0)
(1.09228 -0.00991958 0)
(1.07861 -0.00640268 0)
(1.06766 -0.0024339 0)
(1.05942 0.00210266 0)
(1.054 0.00689996 0)
(1.05158 0.0114852 0)
(1.05317 0.0155054 0)
(1.05877 0.0186172 0)
(1.06796 0.0207226 0)
(1.08044 0.0225142 0)
(1.08487 0.0233357 0)
(1.04861 0.0221202 0)
(0.88704 0.0161137 0)
(0.550258 0.00478069 0)
(0.175801 0.000471897 0)
(0.194875 2.46024e-05 0)
(0.574611 -0.00158289 0)
(0.905162 -0.00817098 0)
(1.06715 -0.0111186 0)
(1.10327 -0.0100907 0)
(1.09715 -0.00749554 0)
(1.08352 -0.00400209 0)
(1.07214 -8.93818e-05 0)
(1.06325 0.00444617 0)
(1.05685 0.00942877 0)
(1.05457 0.0140798 0)
(1.05676 0.0176783 0)
(1.06218 0.0199764 0)
(1.07092 0.0219221 0)
(1.08202 0.0232096 0)
(1.08414 0.0236288 0)
(1.03985 0.0219256 0)
(0.863812 0.0152321 0)
(0.525783 0.00460783 0)
(0.166921 0.000566066 0)
(0.192672 5.51155e-05 0)
(0.563888 -0.000825868 0)
(0.893695 -0.00603405 0)
(1.06456 -0.00894813 0)
(1.10672 -0.00776427 0)
(1.10226 -0.00489923 0)
(1.08858 -0.00125432 0)
(1.07698 0.00263174 0)
(1.06783 0.00704475 0)
(1.06132 0.0117055 0)
(1.05787 0.0161439 0)
(1.05822 0.0193312 0)
(1.06305 0.0218011 0)
(1.07196 0.023091 0)
(1.08309 0.0240148 0)
(1.0825 0.0240866 0)
(1.02818 0.0217778 0)
(0.838774 0.0145837 0)
(0.501837 0.00449578 0)
(0.157876 0.000599383 0)
(0.19173 9.8782e-05 0)
(0.556322 -0.000234551 0)
(0.883241 -0.00402225 0)
(1.06295 -0.00615832 0)
(1.11074 -0.00473177 0)
(1.10752 -0.00178043 0)
(1.09379 0.00198694 0)
(1.08157 0.00610883 0)
(1.07147 0.0107145 0)
(1.06355 0.0155457 0)
(1.05969 0.0196626 0)
(1.06108 0.0226777 0)
(1.06608 0.0239268 0)
(1.0744 0.0250765 0)
(1.08325 0.0256611 0)
(1.07975 0.0252004 0)
(1.01685 0.022243 0)
(0.81484 0.014334 0)
(0.47963 0.00451432 0)
(0.149167 0.000621315 0)
(0.192251 9.37854e-05 0)
(0.551839 0.000772306 0)
(0.87685 -0.00161749 0)
(1.06203 -0.00358358 0)
(1.11492 -0.00179967 0)
(1.1132 0.00154685 0)
(1.0994 0.00570467 0)
(1.08692 0.00990727 0)
(1.07658 0.0144472 0)
(1.06853 0.0189565 0)
(1.06349 0.0228955 0)
(1.06228 0.0251886 0)
(1.06572 0.0268588 0)
(1.07411 0.0273312 0)
(1.08317 0.0275022 0)
(1.07576 0.026669 0)
(1.0019 0.0229595 0)
(0.788292 0.0143657 0)
(0.456603 0.00464113 0)
(0.139984 0.000648045 0)
(0.194212 0.000200612 0)
(0.551996 0.00148755 0)
(0.871826 0.000374438 0)
(1.06271 -0.000236137 0)
(1.12008 0.00187855 0)
(1.1194 0.00537988 0)
(1.10535 0.00968057 0)
(1.09201 0.0144426 0)
(1.0805 0.0195074 0)
(1.07081 0.0244909 0)
(1.06488 0.0280533 0)
(1.06438 0.030114 0)
(1.06853 0.0308871 0)
(1.07595 0.0310813 0)
(1.08177 0.0304378 0)
(1.07064 0.0287806 0)
(0.987271 0.0241681 0)
(0.762695 0.0147625 0)
(0.434457 0.00487671 0)
(0.13085 0.000675755 0)
(0.198221 0.000650587 0)
(0.55451 0.00227347 0)
(0.871932 0.00324733 0)
(1.06489 0.00304638 0)
(1.12572 0.00575395 0)
(1.12626 0.00969808 0)
(1.11206 0.0146159 0)
(1.09843 0.0196338 0)
(1.08656 0.0248424 0)
(1.0762 0.0295261 0)
(1.06869 0.0330559 0)
(1.06528 0.0347691 0)
(1.06632 0.0350515 0)
(1.07358 0.0344309 0)
(1.07994 0.0337843 0)
(1.06353 0.031435 0)
(0.968058 0.0257702 0)
(0.733306 0.0155377 0)
(0.410079 0.00522614 0)
(0.12076 0.000716079 0)
(0.2045 0.000866771 0)
(0.560983 0.00338408 0)
(0.87548 0.005721 0)
(1.06935 0.00729219 0)
(1.13235 0.0106689 0)
(1.13363 0.0151281 0)
(1.11885 0.0203852 0)
(1.10391 0.0261369 0)
(1.09011 0.0320479 0)
(1.07759 0.0374121 0)
(1.06872 0.0405917 0)
(1.06583 0.0413808 0)
(1.06841 0.0411529 0)
(1.0745 0.0405387 0)
(1.07617 0.0382081 0)
(1.05497 0.0348117 0)
(0.94908 0.0280143 0)
(0.704232 0.0166264 0)
(0.385688 0.00566945 0)
(0.110417 0.000755161 0)
(0.212837 0.00104702 0)
(0.572208 0.00471134 0)
(0.883555 0.00882772 0)
(1.07657 0.0118806 0)
(1.1403 0.0163741 0)
(1.14218 0.0214774 0)
(1.12679 0.0276961 0)
(1.11126 0.0338988 0)
(1.09685 0.0399964 0)
(1.08315 0.0450296 0)
(1.07202 0.0477505 0)
(1.06563 0.0484827 0)
(1.06452 0.0475763 0)
(1.06936 0.0452821 0)
(1.07225 0.0434052 0)
(1.04367 0.0390736 0)
(0.924041 0.0306595 0)
(0.669804 0.0180791 0)
(0.357734 0.00619061 0)
(0.0987002 0.000794347 0)
(0.224986 0.00137733 0)
(0.590035 0.00664564 0)
(0.897904 0.0131236 0)
(1.08714 0.0180695 0)
(1.15014 0.0234841 0)
(1.15211 0.02967 0)
(1.13563 0.0367307 0)
(1.11804 0.0437893 0)
(1.1006 0.0505904 0)
(1.08353 0.0560955 0)
(1.07046 0.0589186 0)
(1.0647 0.0579987 0)
(1.06497 0.0560931 0)
(1.06908 0.053451 0)
(1.06515 0.0497915 0)
(1.03022 0.0438832 0)
(0.898545 0.0340675 0)
(0.634884 0.0198164 0)
(0.328981 0.00675876 0)
(0.0865579 0.000830278 0)
(0.240607 0.00192628 0)
(0.613463 0.00845442 0)
(0.918767 0.0177711 0)
(1.10222 0.0249864 0)
(1.16232 0.0321013 0)
(1.16384 0.03929 0)
(1.1455 0.0476547 0)
(1.12613 0.0554822 0)
(1.10712 0.0625764 0)
(1.0886 0.0677945 0)
(1.0726 0.0692434 0)
(1.06293 0.0682703 0)
(1.05908 0.0649984 0)
(1.06077 0.0609919 0)
(1.05841 0.0569518 0)
(1.01332 0.0498299 0)
(0.865301 0.0377297 0)
(0.592766 0.0217487 0)
(0.295574 0.00731204 0)
(0.072851 0.000841681 0)
(0.26224 0.00277732 0)
(0.645842 0.0122001 0)
(0.947226 0.0245074 0)
(1.12157 0.0345371 0)
(1.17709 0.0429445 0)
(1.17732 0.0523891 0)
(1.15659 0.0620139 0)
(1.13428 0.0709968 0)
(1.11146 0.0787035 0)
(1.08828 0.0835322 0)
(1.06944 0.0842102 0)
(1.05949 0.0808998 0)
(1.05734 0.0767092 0)
(1.05879 0.0720189 0)
(1.04714 0.0656809 0)
(0.992753 0.0565031 0)
(0.830688 0.0423387 0)
(0.549369 0.0239239 0)
(0.261099 0.00786404 0)
(0.0588928 0.00082575 0)
(0.293393 0.00367897 0)
(0.691013 0.0154515 0)
(0.985848 0.0329088 0)
(1.1476 0.0465298 0)
(1.1955 0.0577007 0)
(1.19322 0.0688584 0)
(1.16879 0.0799841 0)
(1.14309 0.0893764 0)
(1.11722 0.096548 0)
(1.09186 0.100082 0)
(1.07005 0.0992292 0)
(1.05604 0.0951833 0)
(1.0487 0.0893015 0)
(1.04644 0.0822212 0)
(1.03536 0.0752162 0)
(0.967686 0.0641642 0)
(0.785562 0.0466243 0)
(0.496173 0.0259754 0)
(0.220853 0.00818022 0)
(0.0433922 0.000730608 0)
(0.329703 0.00707599 0)
(0.749168 0.0246428 0)
(1.03536 0.0465591 0)
(1.17959 0.0643304 0)
(1.21768 0.0770119 0)
(1.21117 0.0912636 0)
(1.18225 0.103183 0)
(1.15258 0.112858 0)
(1.12249 0.119817 0)
(1.09215 0.122513 0)
(1.06606 0.118968 0)
(1.05052 0.111872 0)
(1.0447 0.103952 0)
(1.04196 0.0966191 0)
(1.01841 0.0865711 0)
(0.936664 0.0721158 0)
(0.738493 0.0521537 0)
(0.442796 0.0282543 0)
(0.180849 0.00829782 0)
(0.0290579 0.000610902 0)
(0.409465 0.0106088 0)
(0.836349 0.0357038 0)
(1.10042 0.0670941 0)
(1.21907 0.0896166 0)
(1.24377 0.105496 6.33056e-34)
(1.23016 0.121453 -2.85222e-34)
(1.19474 0.133476 0)
(1.15978 0.141922 0)
(1.12449 0.146381 0)
(1.08951 0.14513 0)
(1.06096 0.139115 0)
(1.04314 0.130589 0)
(1.03295 0.121157 0)
(1.02457 0.109814 0)
(0.998578 0.0985564 0)
(0.89952 0.0814819 0)
(0.676767 0.0564228 0)
(0.373556 0.0291599 0)
(0.131608 0.0079193 0)
(0.0127694 0.000738835 0)
(0.480347 0.0258768 4.68228e-20)
(0.938576 0.0594674 -3.54464e-20)
(1.17163 0.101784 0)
(1.25999 0.128462 2.73961e-20)
(1.27125 0.14367 -2.2217e-20)
(1.24824 0.161678 3.00935e-34)
(1.2059 0.17176 0)
(1.16577 0.177995 1.60236e-20)
(1.12558 0.180195 -5.26235e-20)
(1.08682 0.17741 1.0739e-20)
(1.05438 0.168516 0)
(1.03305 0.155107 -2.72414e-20)
(1.02205 0.141913 -3.26767e-20)
(1.01298 0.131262 5.71741e-20)
(0.966908 0.115379 -4.51615e-20)
(0.840526 0.0914521 0)
(0.593921 0.0610685 -1.62775e-20)
(0.293872 0.0289919 0)
(0.0811568 0.00757429 -8.97741e-20)
(-0.00429119 0.000554577 1.05801e-19)
(0.516677 0.0534548 -6.13348e-21)
(1.00286 0.102562 1.06098e-19)
(1.22138 0.151718 -5.94798e-21)
(1.29342 0.176033 -6.76739e-20)
(1.29567 0.193325 -4.70791e-20)
(1.26354 0.209525 7.65952e-20)
(1.21479 0.216787 0)
(1.16899 0.220404 0)
(1.123 0.219709 8.37359e-20)
(1.07742 0.212277 0)
(1.03823 0.197434 9.83693e-20)
(1.01453 0.183369 2.923e-20)
(1.00143 0.170718 4.48728e-22)
(0.979923 0.154267 -6.2297e-20)
(0.927643 0.135719 0)
(0.78478 0.108056 0)
(0.524692 0.0678921 -2.65669e-19)
(0.236292 0.0294289 6.67828e-19)
(0.0515664 0.00652732 -3.94705e-19)
(-0.0149195 -0.000974066 -4.65292e-19)
(0.524557 0.0759996 -6.01648e-20)
(1.04064 0.159383 2.30279e-20)
(1.25824 0.212356 1.25793e-20)
(1.3196 0.235414 1.18039e-19)
(1.31455 0.251049 1.44514e-20)
(1.27511 0.262824 -1.99675e-19)
(1.22078 0.266168 6.80919e-20)
(1.16963 0.266393 0)
(1.11805 0.262083 -1.77029e-19)
(1.06769 0.251356 1.57175e-19)
(1.02817 0.237037 -2.65469e-19)
(1.00087 0.220175 1.24433e-19)
(0.979881 0.202403 -8.06992e-20)
(0.961646 0.185668 1.81845e-19)
(0.896048 0.163269 0)
(0.742473 0.12494 -6.64454e-20)
(0.485465 0.077322 0)
(0.221686 0.0321237 3.66643e-19)
(0.0474117 0.00717742 -8.6671e-19)
(-0.0168538 -0.00256207 5.43254e-19)
(0.52029 0.107776 1.65667e-19)
(1.06103 0.215863 -7.27502e-20)
(1.28003 0.277132 -1.55357e-20)
(1.3368 0.299667 0)
(1.32683 0.313296 -8.7407e-20)
(1.28209 0.320004 1.07862e-19)
(1.22312 0.318509 -7.2856e-20)
(1.16726 0.314298 0)
(1.11146 0.305931 1.25774e-19)
(1.05729 0.291295 -1.10444e-19)
(1.00959 0.27136 2.30188e-19)
(0.976577 0.250159 0)
(0.957848 0.231779 -1.7157e-19)
(0.926215 0.212329 9.66396e-20)
(0.863937 0.18554 2.43723e-19)
(0.714591 0.146544 -2.14452e-19)
(0.469288 0.0911681 3.39867e-19)
(0.220185 0.0405047 -7.53528e-19)
(0.0524648 0.00921025 4.75659e-19)
(-0.014719 -0.00308687 -5.94965e-19)
(0.508877 0.131982 -5.59522e-20)
(1.06879 0.269699 3.99565e-20)
(1.29099 0.342941 -5.16794e-20)
(1.34585 0.365364 1.03629e-19)
(1.3324 0.376713 -9.82598e-20)
(1.28399 0.378288 3.40752e-20)
(1.22139 0.37211 3.62708e-21)
(1.16137 0.363798 -1.42465e-19)
(1.10023 0.351048 -1.31984e-19)
(1.03977 0.332393 -2.37449e-19)
(0.989344 0.309084 -4.94971e-19)
(0.95672 0.286007 -1.52598e-19)
(0.931655 0.265092 2.26667e-21)
(0.908944 0.243794 -3.31425e-19)
(0.839361 0.216761 -5.66098e-21)
(0.691405 0.167607 3.12334e-19)
(0.459878 0.105943 -9.40972e-20)
(0.225625 0.0501841 -5.44703e-20)
(0.0627184 0.0129969 0)
(-0.00971775 -0.00272808 1.26603e-18)
(0.492586 0.152806 0)
(1.0642 0.3196 -3.01029e-21)
(1.2935 0.406151 -8.50014e-21)
(1.34816 0.429211 -1.2831e-20)
(1.33223 0.439475 9.48077e-20)
(1.28118 0.436735 -7.95063e-20)
(1.21559 0.42622 7.95224e-20)
(1.15216 0.413567 2.33965e-19)
(1.08805 0.396656 -7.34726e-20)
(1.02622 0.373819 1.17398e-19)
(0.973262 0.346182 2.66076e-19)
(0.933852 0.31996 3.32706e-19)
(0.908069 0.29769 -2.00457e-19)
(0.873161 0.272985 3.58909e-19)
(0.810245 0.240614 -2.84488e-19)
(0.672141 0.193013 0)
(0.456106 0.125222 -7.14512e-19)
(0.237083 0.0634516 9.61655e-19)
(0.0772105 0.0198971 7.17881e-20)
(-0.00255072 -0.00113063 -1.33964e-18)
(0.47779 0.172811 -5.08182e-21)
(1.0556 0.367258 -2.0668e-21)
(1.29043 0.466753 6.18649e-20)
(1.34543 0.491135 -8.41131e-20)
(1.32733 0.5003 7.89667e-20)
(1.27438 0.493542 -7.69662e-20)
(1.20679 0.479123 1.57589e-19)
(1.14112 0.462612 -7.01686e-20)
(1.07414 0.441417 -2.96377e-19)
(1.00728 0.414178 -1.95645e-22)
(0.948768 0.382257 -2.89431e-19)
(0.908779 0.354325 -3.58081e-19)
(0.881114 0.328166 2.21476e-19)
(0.854865 0.304836 -1.29197e-19)
(0.788279 0.272825 3.09465e-19)
(0.654357 0.215254 0)
(0.450797 0.144818 -4.4401e-19)
(0.245071 0.0769633 6.55792e-19)
(0.089193 0.0276749 1.24093e-18)
(0.00407073 0.00104736 -1.45952e-18)
(0.463929 0.190606 -6.63792e-20)
(1.04402 0.412282 2.74229e-20)
(1.28368 0.524535 -4.04817e-20)
(1.33879 0.550207 8.69876e-20)
(1.31912 0.55891 1.20237e-20)
(1.26487 0.548704 -1.50846e-19)
(1.19564 0.53075 -9.146e-20)
(1.12786 0.510432 -8.98192e-20)
(1.05845 0.485848 -1.67397e-19)
(0.989218 0.455104 2.69308e-19)
(0.929809 0.419976 2.92503e-19)
(0.887614 0.38809 5.68189e-19)
(0.85714 0.360451 0)
(0.820398 0.333328 6.4861e-21)
(0.760745 0.295622 -8.50715e-19)
(0.636445 0.24172 1.99124e-19)
(0.446677 0.164683 9.62062e-19)
(0.2523 0.0918217 -2.83912e-19)
(0.0999127 0.0362999 5.89874e-19)
(0.0101482 0.00365522 -4.91715e-20)
(0.453798 0.208575 5.83882e-21)
(1.03186 0.454585 4.81316e-20)
(1.27418 0.579217 -1.60862e-20)
(1.32958 0.606711 9.3594e-20)
(1.30841 0.614535 -1.55807e-19)
(1.253 0.601165 1.49672e-19)
(1.18258 0.580187 9.46751e-20)
(1.11329 0.556764 2.68322e-19)
(1.0416 0.528579 3.35897e-19)
(0.969388 0.49349 -3.11181e-19)
(0.906905 0.454707 0)
(0.861248 0.418975 -2.15068e-19)
(0.830243 0.389879 2.46923e-19)
(0.803814 0.362716 3.119e-19)
(0.739918 0.327755 -1.80397e-19)
(0.618585 0.262561 -4.39846e-19)
(0.439437 0.183961 -1.31204e-19)
(0.255946 0.106047 -1.83503e-21)
(0.107284 0.0445018 0)
(0.0146554 0.00611973 0)
(0.445736 0.224727 -7.39283e-20)
(1.02039 0.49525 0)
(1.26332 0.631181 -1.38652e-21)
(1.31816 0.660304 -1.23696e-20)
(1.29585 0.667667 1.77411e-19)
(1.23966 0.651512 -4.49693e-20)
(1.16814 0.627754 9.62169e-20)
(1.09734 0.60126 -1.81561e-19)
(1.02389 0.570213 2.5476e-19)
(0.949862 0.532319 -1.02316e-19)
(0.884174 0.490216 1.67611e-19)
(0.838407 0.451463 6.82077e-19)
(0.807602 0.420841 1.43425e-20)
(0.769672 0.389075 -3.25235e-19)
(0.713178 0.347057 6.02903e-19)
(0.599151 0.287385 3.97047e-21)
(0.430914 0.201789 1.40368e-19)
(0.255181 0.119265 -6.69364e-19)
(0.110464 0.0513198 6.90034e-19)
(0.0175387 0.00815446 -8.1298e-19)
(0.438836 0.242619 2.63264e-23)
(1.0082 0.53284 0)
(1.25102 0.679722 0)
(1.30551 0.711196 -2.07671e-21)
(1.28211 0.717645 -5.24379e-20)
(1.22506 0.6989 7.00316e-20)
(1.15275 0.672797 -1.79066e-19)
(1.08111 0.643897 0)
(1.00616 0.610011 -3.75719e-19)
(0.92966 0.568607 4.50764e-19)
(0.861928 0.522825 4.78113e-19)
(0.813591 0.481456 -2.50389e-19)
(0.780198 0.447694 -3.03219e-19)
(0.752854 0.415765 7.11096e-19)
(0.691489 0.376208 -2.14254e-19)
(0.579483 0.303889 -2.55732e-19)
(0.417944 0.217957 -1.53027e-19)
(0.250739 0.129356 -7.22545e-19)
(0.109398 0.0567267 1.05815e-19)
(0.0186541 0.00931573 8.78955e-19)
(0.434665 0.260716 -3.67201e-20)
(0.997994 0.569746 -4.84137e-20)
(1.23831 0.72585 2.36249e-20)
(1.29171 0.759051 -1.99934e-22)
(1.26748 0.765151 -5.43213e-20)
(1.20993 0.744201 1.13008e-19)
(1.13705 0.715844 0)
(1.06441 0.684492 1.09749e-19)
(0.98787 0.648382 -8.65373e-20)
(0.909403 0.604791 7.51923e-19)
(0.83877 0.555695 -1.08747e-19)
(0.789681 0.511428 1.24057e-19)
(0.756983 0.4761 0)
(0.718654 0.439248 -3.85088e-19)
(0.663687 0.390161 4.66705e-19)
(0.55818 0.324374 0)
(0.405793 0.231217 -3.29642e-19)
(0.243714 0.138581 9.69712e-19)
(0.106294 0.0598181 1.14769e-19)
(0.0182437 0.0101086 -1.08184e-18)
(0.432027 0.277691 -9.30091e-20)
(0.987413 0.603586 1.19244e-19)
(1.22501 0.768776 0)
(1.27765 0.80424 1.49799e-20)
(1.25264 0.809562 0)
(1.19451 0.786542 -1.46459e-19)
(1.12116 0.756367 0)
(1.04788 0.723207 0)
(0.969964 0.68499 -1.14601e-19)
(0.889311 0.638784 -7.14773e-19)
(0.81733 0.587162 -8.83417e-19)
(0.764397 0.540891 1.45166e-19)
(0.728387 0.500005 5.23949e-19)
(0.700816 0.460948 4.24246e-19)
(0.641676 0.415335 -1.49732e-18)
(0.537496 0.334573 -6.00178e-19)
(0.38963 0.242118 3.51608e-19)
(0.234035 0.144202 0)
(0.101339 0.0614194 9.84064e-19)
(0.016982 0.0102749 -1.16504e-18)
(0.430482 0.293349 1.1152e-19)
(0.9785 0.636853 -1.38875e-19)
(1.21204 0.809516 0)
(1.26324 0.846469 -1.11346e-20)
(1.23753 0.851591 -2.63058e-22)
(1.17907 0.82692 0)
(1.10538 0.794998 5.50897e-20)
(1.03129 0.759904 7.61049e-20)
(0.952105 0.720048 -2.15477e-19)
(0.869869 0.672214 9.46778e-20)
(0.794435 0.617866 0)
(0.740609 0.56719 6.0118e-19)
(0.705507 0.524893 5.41784e-21)
(0.665506 0.481037 2.28871e-19)
(0.613448 0.422262 2.71834e-19)
(0.515396 0.350089 0)
(0.375277 0.249211 -5.73725e-19)
(0.223419 0.147599 1.12478e-18)
(0.0954961 0.0617195 -1.19023e-18)
(0.0153488 0.0099728 2.50849e-18)
(0.429199 0.308366 0)
(0.969037 0.667244 0)
(1.19905 0.847211 -6.77761e-20)
(1.24911 0.886278 0)
(1.22272 0.890776 0)
(1.16383 0.864465 -1.20415e-19)
(1.08987 0.831159 5.63578e-20)
(1.01538 0.794754 1.768e-20)
(0.93507 0.753414 -4.92252e-20)
(0.850193 0.703783 0)
(0.772398 0.647767 -1.34565e-19)
(0.715068 0.595303 -4.90402e-19)
(0.674785 0.545858 -5.90869e-19)
(0.646511 0.496845 -2.37715e-19)
(0.590364 0.442378 2.94361e-19)
(0.493851 0.352918 -6.9373e-19)
(0.357744 0.253705 1.2346e-18)
(0.212869 0.14813 1.94764e-21)
(0.0897977 0.0611128 -1.13849e-18)
(0.0138828 0.0095851 -1.69139e-19)
(0.428222 0.322905 0)
(0.961227 0.69758 -1.13442e-19)
(1.18672 0.883109 8.30415e-20)
(1.23503 0.92336 0)
(1.20798 0.927735 0)
(1.14883 0.900199 2.40964e-19)
(1.07472 0.865583 0)
(0.999612 0.827685 0)
(0.918021 0.785217 -4.72432e-19)
(0.831535 0.734576 1.30942e-19)
(0.750682 0.676675 -1.19285e-18)
(0.691149 0.619571 0)
(0.651231 0.568458 -6.41802e-19)
(0.60929 0.513882 1.05683e-20)
(0.560072 0.441273 -9.46413e-19)
(0.471151 0.361229 3.73201e-19)
(0.344127 0.252921 1.40761e-21)
(0.203897 0.145563 -1.29525e-18)
(0.0856148 0.0591265 6.12466e-19)
(0.0116419 0.00794079 1.80923e-19)
(0.427213 0.337154 0)
(0.952913 0.725106 -1.57114e-19)
(1.1745 0.916244 8.76987e-20)
(1.22146 0.958331 1.15179e-19)
(1.1938 0.962169 -1.08072e-20)
(1.13436 0.933321 2.40462e-20)
(1.06015 0.897659 -3.33263e-20)
(0.984757 0.858869 4.51682e-19)
(0.902153 0.815374 5.05369e-19)
(0.813267 0.763744 9.97139e-19)
(0.729433 0.70522 9.91087e-19)
(0.665194 0.646614 1.74302e-19)
(0.618692 0.588042 9.23381e-19)
(0.587463 0.524721 5.70756e-19)
(0.534243 0.456331 6.79382e-19)
(0.448796 0.353534 -4.08413e-19)
(0.326991 0.246404 -4.73347e-19)
(0.199137 0.138629 5.55313e-19)
(0.0880622 0.0627944 -3.29222e-19)
(0.0166894 0.0151432 5.85751e-19)
(0.426435 0.350916 2.21288e-19)
(0.946154 0.752708 2.4605e-19)
(1.163 0.947973 5.09587e-20)
(1.20813 0.990831 1.59309e-20)
(1.17991 0.994539 1.14214e-21)
(1.12031 0.964789 -6.67684e-20)
(1.04609 0.9282 3.20215e-20)
(0.970191 0.888291 -1.98455e-20)
(0.886412 0.844083 -5.88051e-19)
(0.796141 0.792163 -1.08219e-18)
(0.709182 0.732447 6.88062e-20)
(0.641608 0.669889 0)
(0.593955 0.609753 0)
(0.546537 0.540936 -2.97596e-19)
(0.49857 0.447005 -1.1122e-18)
(0.423253 0.351153 8.79834e-19)
(0.320882 0.227129 5.17561e-19)
(0.207538 0.119638 0)
(0.10291 0.0359376 1.05414e-18)
(0.0105367 -0.010455 -6.251e-19)
(0.42558 0.364173 -1.1736e-19)
(0.938731 0.777312 1.03824e-19)
(1.1516 0.977083 -1.22602e-19)
(1.19541 1.02149 -9.99341e-20)
(1.1667 1.0247 -1.54987e-20)
(1.10694 0.993886 -2.13497e-20)
(1.03275 0.956524 0)
(0.956662 0.916078 -5.67566e-19)
(0.872055 0.871205 7.18241e-20)
(0.779604 0.818736 0)
(0.689563 0.75918 0)
(0.616378 0.697018 1.11342e-19)
(0.559628 0.62945 1.49803e-19)
(0.520206 0.548988 -3.21488e-19)
(0.466251 0.459809 7.98314e-19)
(0.392171 0.328019 -9.58756e-19)
(0.297266 0.203363 -1.10825e-18)
(0.220593 0.103222 9.81848e-19)
(0.163636 0.0815662 -3.74954e-19)
(0.112707 0.078491 2.18165e-19)
(0.424849 0.376598 1.47219e-19)
(0.932687 0.802112 0)
(1.14094 1.00507 0)
(1.18303 1.04989 -2.75753e-20)
(1.15387 1.05294 2.23247e-20)
(1.09405 1.02146 -2.04162e-20)
(1.01995 0.983484 1.43353e-19)
(0.94349 0.942256 5.80816e-19)
(0.857942 0.897045 1.0667e-18)
(0.764385 0.844866 -8.14898e-20)
(0.671499 0.785297 1.6855e-19)
(0.594166 0.720317 -9.95741e-19)
(0.534782 0.651881 -9.93477e-19)
(0.474326 0.568569 -1.72627e-19)
(0.416727 0.445367 0)
(0.35239 0.323569 -6.06908e-21)
(0.274611 0.133211 6.11041e-19)
(0.2546 0.00134615 -1.02747e-18)
(0.219059 -0.0964817 7.81006e-19)
(0.0863821 -0.0971773 6.46962e-19)
(0.423847 0.38868 -3.25271e-19)
(0.925769 0.823842 -1.46735e-19)
(1.13026 1.03064 6.94247e-21)
(1.17118 1.07689 5.75814e-20)
(1.1416 1.07955 0)
(1.08166 1.04728 -6.4455e-20)
(1.00764 1.00882 -2.06763e-19)
(0.93111 0.967465 -1.97977e-21)
(0.844955 0.922058 -5.58848e-19)
(0.749323 0.869693 -7.99714e-20)
(0.653285 0.810679 7.42798e-20)
(0.569894 0.748099 8.74784e-19)
(0.498103 0.674722 9.69381e-19)
(0.44244 0.577283 1.68241e-19)
(0.376531 0.467206 8.5964e-19)
(0.285191 0.290534 0)
(0.162732 0.118284 0)
(-0.00213822 0.194045 7.05544e-19)
(-0.0781986 0.630087 -2.87648e-20)
(0.0080437 1.53941 -8.71294e-19)
(0.42305 0.400018 1.79741e-19)
(0.920271 0.846287 4.11988e-19)
(1.1203 1.05568 -5.66033e-19)
(1.15956 1.10221 2.84675e-19)
(1.12952 1.10491 -8.20284e-21)
(1.06952 1.07236 -1.65464e-20)
(0.995572 1.03378 0)
(0.918701 0.992197 -4.83812e-19)
(0.831672 0.947124 0)
(0.734994 0.895909 1.1254e-18)
(0.635948 0.838417 -9.05743e-20)
(0.547932 0.774924 1.0156e-19)
(0.473808 0.702982 1.11141e-18)
(0.388526 0.6122 -3.65134e-19)
(0.284809 0.457863 -4.37076e-19)
(0.191992 0.344257 0)
(0.0827952 0.487298 0)
(0.0254441 1.34169 0)
(0.0719955 2.46661 -4.00644e-19)
(0.0990629 2.91236 -2.46929e-19)
(0.421699 0.410821 0)
(0.913764 0.86544 0)
(1.11029 1.07835 2.06455e-19)
(1.1485 1.12641 -2.31303e-19)
(1.11803 1.12899 1.03645e-19)
(1.0579 1.09602 2.41141e-20)
(0.98405 1.05737 2.67801e-20)
(0.907164 1.01621 -2.08503e-20)
(0.819677 0.971618 7.89163e-20)
(0.720986 0.920935 -1.29156e-18)
(0.618844 0.864549 1.64065e-19)
(0.524939 0.805332 8.75228e-19)
(0.434349 0.733786 -1.10703e-18)
(0.353077 0.62384 -1.2183e-18)
(0.266271 0.517267 4.09748e-19)
(0.18662 0.655643 0)
(0.118876 1.56869 5.64148e-19)
(0.121401 2.6962 6.15253e-19)
(0.129307 3.08893 -6.87684e-19)
(0.121338 3.22268 7.36277e-19)
(0.420627 0.421361 0)
(0.908758 0.885602 3.63949e-19)
(1.10106 1.10074 -5.17539e-20)
(1.13772 1.14899 3.23882e-19)
(1.10681 1.15178 -1.08793e-19)
(1.04663 1.11887 0)
(0.972878 1.08051 0)
(0.895699 1.03958 0)
(0.807443 0.995913 4.43529e-19)
(0.708044 0.94726 5.95168e-20)
(0.603339 0.894001 0)
(0.504881 0.835639 -8.70185e-19)
(0.418153 0.767254 0)
(0.301104 0.671529 8.717e-19)
(0.203133 0.730232 -5.88653e-19)
(0.151096 1.46355 -4.7301e-19)
(0.153919 2.68358 -1.10007e-18)
(0.176362 3.12659 -5.79371e-19)
(0.167133 3.26661 -7.8403e-19)
(0.153577 3.30684 5.83675e-19)
(0.419106 0.430863 -1.27155e-19)
(0.902605 0.902212 1.52436e-20)
(1.09173 1.1207 -5.75944e-20)
(1.12754 1.17064 -2.50469e-19)
(1.0962 1.17354 0)
(1.03593 1.1405 0)
(0.962267 1.10235 0)
(0.885144 1.06225 3.38656e-20)
(0.796664 1.0196 -5.60753e-19)
(0.695543 0.972181 0)
(0.588142 0.920523 0)
(0.486453 0.867353 0)
(0.375869 0.798331 0)
(0.30711 0.7635 6.37737e-19)
(0.269288 1.15521 1.56744e-18)
(0.244624 2.3908 4.62787e-19)
(0.259625 3.0827 9.30422e-19)
(0.254249 3.28148 -7.12981e-19)
(0.205664 3.34703 2.62621e-19)
(0.173482 3.35989 0)
(0.41787 0.440175 1.30886e-19)
(0.897902 0.920786 -8.0821e-19)
(1.08301 1.1413 -2.17292e-19)
(1.1174 1.19134 -4.7871e-20)
(1.08565 1.1946 2.53027e-20)
(1.02537 1.16185 -9.14074e-20)
(0.95184 1.12429 -2.26818e-21)
(0.874506 1.08473 -3.75363e-19)
(0.785423 1.04343 0)
(0.684084 0.998711 -7.56375e-20)
(0.57531 0.951402 6.8807e-20)
(0.469793 0.899612 0)
(0.377897 0.844778 0)
(0.32034 0.952499 -7.9838e-19)
(0.270359 1.85452 9.88853e-20)
(0.266825 2.94423 -3.47561e-19)
(0.290323 3.28528 7.26244e-19)
(0.262263 3.3836 5.24402e-19)
(0.19714 3.40804 -7.11348e-19)
(0.172533 3.41782 3.5212e-19)
(0.415851 0.449722 2.57183e-19)
(0.891171 0.936699 7.87904e-19)
(1.07326 1.16089 2.61035e-19)
(1.10702 1.21285 0)
(1.07493 1.21631 0)
(1.01465 1.18344 7.11647e-20)
(0.941308 1.14611 6.37775e-20)
(0.86425 1.1075 3.34553e-19)
(0.775353 1.06746 2.18677e-20)
(0.672802 1.02439 9.66076e-19)
(0.562277 0.978939 -1.14421e-18)
(0.450473 0.928788 0)
(0.37384 0.916818 0)
(0.333742 1.32314 -5.44036e-19)
(0.332714 2.49183 -6.5413e-19)
(0.376302 3.19682 0)
(0.400894 3.36674 -7.3398e-19)
(0.330684 3.42943 4.97349e-20)
(0.261781 3.47447 3.42159e-19)
(0.239459 3.4998 -1.1228e-19)
(0.41396 0.459595 -4.89267e-19)
(0.885705 0.957163 -3.78353e-19)
(1.06336 1.18331 0)
(1.09566 1.23491 0)
(1.06327 1.23861 0)
(1.00316 1.20594 0)
(0.930195 1.16914 -7.56436e-20)
(0.853203 1.13099 2.92747e-19)
(0.764044 1.09234 0)
(0.662109 1.05215 -8.79555e-19)
(0.552127 1.01127 2.05213e-18)
(0.44316 0.972798 8.38714e-20)
(0.394592 1.04501 1.12254e-19)
(0.385756 1.7477 8.86667e-19)
(0.398373 2.90172 -4.76908e-19)
(0.437105 3.31775 0)
(0.420436 3.44011 2.05775e-19)
(0.334882 3.52872 9.14604e-20)
(0.260127 3.59245 1.49379e-19)
(0.184752 3.57191 -1.36541e-20)
(0.410965 0.47 2.32742e-19)
(0.877139 0.974157 -3.86655e-19)
(1.05172 1.20462 0)
(1.08365 1.25839 -7.01273e-20)
(1.05104 1.26216 2.41091e-19)
(0.9911 1.22911 0)
(0.918587 1.19225 0)
(0.842257 1.15491 -5.07718e-19)
(0.753883 1.11742 -5.62605e-20)
(0.651594 1.07893 8.61935e-19)
(0.537201 1.03935 -9.75171e-19)
(0.446606 1.0173 5.70116e-19)
(0.40776 1.22382 0)
(0.420577 2.18727 -4.70097e-19)
(0.463988 3.1449 3.08405e-19)
(0.527973 3.4206 1.93281e-19)
(0.519504 3.51647 0)