/*--------------------------------*- C++ -*----------------------------------*\
| =========                 |                                                 |
| \\      /  F ield         | OpenFOAM: The Open Source CFD Toolbox           |
|  \\    /   O peration     | Version:  4.0                                   |
|   \\  /    A nd           | Web:      www.OpenFOAM.org                      |
|    \\/     M anipulation  |                                                 |
\*---------------------------------------------------------------------------*/
FoamFile
{
    version     2.0;
    format      ascii;
    class       volScalarField;
    location    "3";
    object      T;
}
// * * * * * * * * * * * * * * * * * * * * * * * * * * * * * * * * * * * * * //

dimensions      [0 0 0 1 0 0 0];

internalField   nonuniform List<scalar> 
1000
(
0
0
0
0
0
0
0
0
0
0
0
0
0
0
0
0
0
0
0
0
0
0
0
0
0
0
0
0
0
0
0
0
0
0
0
0
0
0
0
0
0
0
0
0
0
0
0
0
0
0
0
0
0
0
0
0
0
0
0
0
0
0
0
0
0
0
0
0
0
0
0
0
0
0
0
0
0
0
0
0
0
0
0
0
0
0
0
0
0
0
0
0
0
0
0
0
0
0
0
0
0
0
0
0
0
0
0
0
0
0
0
0
0
0
0
0
0
0
0
0
0
0
0
0
0
0
0
0
0
0
0
0
0
0
0
0
0
0
0
0
0
0
0
0
0
0
0
0
0
0
0
0
0
0
0
0
0
0
0
0
0
0
0
0
0
0
0
0
0
0
0
0
0
0
0
0
0
0
0
0
0
0
0
0
0
0
0
0
0
0
0
0
0
0
0
0
0
0
0
0
0
0
0
0
0
0
0
0
0
0
0
0
0
0
0
0
0
0
0
0
0
0
0
0
0
0
0
0
0
0
0
0
0
0
0
0
0
0
0
0
0
0
0
0
0
0
0
0
0
0
0
0
0
0
0
0
0
0
0
0
0
0
0
0
0
0
0
0
0
0
0
0
0
0
0
0
0
0
0
0
0
0
0
0
0
0
0
0
0
0
0
0
0
0
0
0
0
0
0
0
0
0
0
0
0
0
0
0
0
0
0
0
0
0
0
0
0
0
0
0
0
0
0
0
0
0
0
0
0
0
0
0
0
0
0
0
0
0
0
0
0
0
0
0
0
0
0
0
0
0
0
0
0
0
0
0
0
0
0
0
0
0
0
0
0
0
0
0
0
0
0
0
0
0
0
0
0
0
0
0
0
0
0
0
0
0
0
0
0
0
0
0
0
0
0
0
0
0
0
0
0
0
0
0
0
0
0
0
0
0
0
0
0
0
0
0
0
0
0
0
0
0
0
0
0
0
0
0
0
0
0
0
0
0
0
0
0
0
0
0
0
0
0
0
0
0
0
0
0
0
2.21434e-106
4.45083e-104
4.48057e-102
3.01204e-100
1.52116e-98
6.15602e-97
2.07954e-95
6.03126e-94
1.53312e-92
3.46987e-91
7.07959e-90
1.31531e-88
2.24374e-87
3.53892e-86
5.19156e-85
7.11988e-84
9.16916e-83
1.11319e-81
1.27847e-80
1.39329e-79
1.44484e-78
1.42927e-77
1.3518e-76
1.22491e-75
1.06541e-74
8.91053e-74
7.1772e-73
5.5759e-72
4.18388e-71
3.03598e-70
2.13301e-69
1.45258e-68
9.59824e-68
6.15988e-67
3.84308e-66
2.33286e-65
1.37896e-64
7.94338e-64
4.46235e-63
2.4464e-62
1.30973e-61
6.85164e-61
3.5045e-60
1.75356e-59
8.58843e-59
4.11932e-58
1.93585e-57
8.91779e-57
4.0288e-56
1.78573e-55
7.76887e-55
3.31874e-54
1.39261e-53
5.74229e-53
2.32753e-52
9.27696e-52
3.63715e-51
1.40313e-50
5.32782e-50
1.99179e-49
7.33339e-49
2.65982e-48
9.50606e-48
3.3486e-47
1.16292e-46
3.98256e-46
1.34526e-45
4.48308e-45
1.47425e-44
4.78504e-44
1.53322e-43
4.85089e-43
1.51572e-42
4.67819e-42
1.42653e-41
4.29841e-41
1.28007e-40
3.76818e-40
1.09667e-39
3.15599e-39
8.98215e-39
2.52858e-38
7.04191e-38
1.94037e-37
5.29082e-37
1.42779e-36
3.81389e-36
1.00854e-35
2.64056e-35
6.84592e-35
1.75774e-34
4.47008e-34
1.12608e-33
2.81036e-33
6.9494e-33
1.70283e-32
4.13507e-32
9.95239e-32
2.37438e-31
5.61559e-31
1.31676e-30
3.06145e-30
7.05828e-30
1.61384e-29
3.65979e-29
8.23232e-29
1.83695e-28
4.06651e-28
8.93162e-28
1.94652e-27
4.20966e-27
9.03496e-27
1.92456e-26
4.06911e-26
8.54005e-26
1.77929e-25
3.68039e-25
7.55841e-25
1.54131e-24
3.12103e-24
6.2761e-24
1.25341e-23
2.4862e-23
4.89832e-23
9.5864e-23
1.86375e-22
3.59975e-22
6.90771e-22
1.31704e-21
2.49515e-21
4.6973e-21
8.7878e-21
1.63387e-20
3.01915e-20
5.54505e-20
1.01228e-19
1.83696e-19
3.31375e-19
5.94273e-19
1.05955e-18
1.8782e-18
3.31037e-18
5.80153e-18
1.01103e-17
1.75209e-17
3.01956e-17
5.17541e-17
8.82228e-17
1.49579e-16
2.52251e-16
4.23142e-16
7.06076e-16
1.17205e-15
1.93547e-15
3.17975e-15
5.19735e-15
8.45224e-15
1.36767e-14
2.20203e-14
3.52791e-14
5.62447e-14
8.9234e-14
1.4089e-13
2.21385e-13
3.46217e-13
5.38887e-13
8.34857e-13
1.28738e-12
1.97603e-12
3.01921e-12
4.59215e-12
6.95309e-12
1.04808e-11
1.57281e-11
2.34986e-11
3.49546e-11
5.17697e-11
7.63431e-11
1.12099e-10
1.63901e-10
2.38631e-10
3.45978e-10
4.99528e-10
7.18245e-10
1.02849e-09
1.46675e-09
2.08329e-09
2.94711e-09
4.15248e-09
5.82766e-09
8.14646e-09
1.13434e-08
1.57337e-08
2.1739e-08
2.99215e-08
4.10274e-08
5.6043e-08
7.6267e-08
1.03403e-07
1.39674e-07
1.87976e-07
2.52058e-07
3.36761e-07
4.48306e-07
5.94665e-07
7.86001e-07
1.03523e-06
1.35872e-06
1.77706e-06
2.31618e-06
3.00847e-06
3.89434e-06
5.02397e-06
6.45943e-06
8.27722e-06
1.05713e-05
1.34566e-05
1.70732e-05
2.15912e-05
2.72164e-05
3.41967e-05
4.28299e-05
5.34724e-05
6.65489e-05
8.25636e-05
0.000102113
0.000125902
0.000154756
0.000189641
0.000231687
0.000282203
0.000342706
0.000414944
0.000500927
0.000602955
0.000723652
0.000865999
0.00103337
0.00122958
0.0014589
0.00172612
0.00203658
0.00239622
0.00281161
0.00328998
0.0038393
0.00446826
0.00518635
0.00600385
0.00693188
0.00798241
0.00916827
0.0105031
0.0120016
0.013679
0.0155515
0.0176362
0.0199506
0.0225133
0.0253431
0.0284596
0.0318825
0.035632
0.0397284
0.0441921
0.0490432
0.0543015
0.0599866
0.0661172
0.0727111
0.0797854
0.0873556
0.0954361
0.104039
0.113177
0.122857
0.133086
0.143869
0.155208
0.167103
0.17955
0.192543
0.206074
0.220131
0.234699
0.249761
0.265298
0.281285
0.297698
0.314508
0.331686
0.349198
0.36701
0.385086
0.403387
0.421874
0.440506
0.459244
0.478044
0.496865
0.515665
0.534403
0.553037
0.571528
0.589836
0.607924
0.625756
0.643297
0.660516
0.677381
0.693866
0.709944
0.725592
0.74079
0.75552
0.769766
0.783515
0.796757
0.809485
0.821693
0.833378
0.844539
0.855178
0.865298
0.874904
0.884003
0.892604
0.900716
0.908351
0.91552
0.922236
0.928513
0.934365
0.939805
0.944849
0.949511
0.953804
0.957744
0.961343
0.964614
0.967569
0.97022
0.972576
0.974646
0.976439
0.977962
0.979219
0.980215
0.980953
0.981432
0.981654
0.981616
0.981315
0.980746
0.979903
0.978777
0.977361
0.975643
0.973611
0.971254
0.968557
0.965506
0.962086
0.95828
0.954073
0.949448
0.944388
0.938877
0.932899
0.926438
0.91948
0.912012
0.904019
0.895493
0.886422
0.8768
0.86662
0.85588
0.844577
0.832715
0.820295
0.807325
0.793814
0.779775
0.765221
0.750171
0.734646
0.718667
0.702262
0.685458
0.668286
0.650778
0.63297
0.614898
0.5966
0.578115
0.559484
0.540748
0.52195
0.50313
0.48433
0.465593
0.44696
0.428469
0.410161
0.392073
0.374242
0.3567
0.339481
0.322615
0.30613
0.290052
0.274402
0.259203
0.244472
0.230224
0.216471
0.203225
0.190493
0.17828
0.166588
0.155418
0.144769
0.134636
0.125014
0.115895
0.10727
0.099129
0.0914595
0.0842485
0.0774817
0.0711443
0.0652205
0.059694
0.054548
0.0497656
0.0453295
0.0412225
0.0374274
0.0339271
0.0307047
0.0277438
0.0250282
0.0225422
0.0202706
0.0181987
0.0163125
0.0145984
0.0130435
0.0116357
0.0103632
0.00921529
0.00818148
0.00725213
0.00641816
0.00567111
0.0050031
0.00440682
0.0038755
0.00340289
0.00298322
0.00261122
0.00228204
0.00199125
0.0017348
0.00150904
0.00131063
0.00113654
0.000984054
0.000850717
0.000734317
0.000632872
0.000544608
0.000467939
0.000401452
0.000343888
0.000294133
0.000251196
0.000214204
0.000182384
0.000155059
0.00013163
0.000111575
9.44344e-05
7.98085e-05
6.73479e-05
5.67489e-05
4.77475e-05
4.01149e-05
3.3653e-05
2.81908e-05
2.35807e-05
1.96959e-05
1.64272e-05
1.36812e-05
1.13778e-05
9.44859e-06
7.83525e-06
6.4881e-06
5.36491e-06
4.42985e-06
3.65258e-06
3.00744e-06
2.47275e-06
2.03027e-06
1.66463e-06
1.36293e-06
1.11435e-06
9.09847e-07
7.41842e-07
6.04024e-07
4.91132e-07
3.9879e-07
3.23367e-07
2.6185e-07
2.11747e-07
1.70998e-07
1.37904e-07
1.11064e-07
8.93281e-08
7.17492e-08
5.75525e-08
4.61032e-08
3.68824e-08
2.94666e-08
2.35107e-08
1.87339e-08
1.4908e-08
1.18478e-08
9.40349e-09
7.45372e-09
5.90054e-09
4.66494e-09
3.68331e-09
2.9045e-09
2.28741e-09
1.79912e-09
1.41325e-09
1.10873e-09
8.68719e-10
6.79802e-10
5.31295e-10
4.14707e-10
3.23297e-10
2.51719e-10
1.95744e-10
1.52027e-10
1.17926e-10
9.13618e-11
7.06937e-11
)
;

boundaryField
{
    sides
    {
        type            inletOutlet;
        inletValue      uniform 0;
        value           nonuniform List<scalar> 2(7.06937e-11 0);
    }
    empty
    {
        type            empty;
    }
}


// ************************************************************************* //
