/*--------------------------------*- C++ -*----------------------------------*\
| =========                 |                                                 |
| \\      /  F ield         | OpenFOAM: The Open Source CFD Toolbox           |
|  \\    /   O peration     | Version:  4.0                                   |
|   \\  /    A nd           | Web:      www.OpenFOAM.org                      |
|    \\/     M anipulation  |                                                 |
\*---------------------------------------------------------------------------*/
FoamFile
{
    version     2.0;
    format      ascii;
    class       volScalarField;
    location    "45";
    object      p;
}
// * * * * * * * * * * * * * * * * * * * * * * * * * * * * * * * * * * * * * //

dimensions      [0 2 -2 0 0 0 0];

internalField   nonuniform List<scalar> 
918
(
0.565563
1.2124
0.00269017
0.564939
-0.0117765
1.17942
-0.490625
0.714182
0.54572
-0.0871759
-0.018386
0.542131
1.04018
0.807034
-1.1139
-0.00403536
0.667221
-0.369288
0.544776
-0.0295336
0.748596
0.552297
0.555327
0.545911
0.611182
0.784008
0.921396
0.0188782
0.00479401
0.00174873
-0.0110354
-0.0378815
-0.0293583
1.06305
1.11415
1.13685
0.513853
0.341948
-0.356856
-0.423786
-0.416452
-0.534323
0.708209
0.707439
-0.179055
0.717053
0.723226
0.532863
0.545084
0.545993
0.547056
0.546015
0.547407
0.422689
-0.0898269
-0.122139
-0.0664638
-0.0586179
0.0747636
-0.0206513
-0.0221045
-0.0170907
-0.0180202
0.464061
0.537563
0.534651
0.54738
0.556523
1.15195
1.12386
1.15
1.06375
1.0802
1.01814
0.990761
0.826967
0.84884
0.793128
0.779329
-1.55075
-2.51092
-0.519222
-0.26595
-0.010896
0.00317606
0.0139482
0.660535
0.659914
0.669147
0.678245
1.09355
-0.36791
-0.474184
0.544907
0.543706
0.55208
0.552776
0.54879
0.547883
-0.027696
-0.0263883
-0.026653
-0.0300855
-0.0294992
0.737606
0.735346
0.546448
0.543463
0.563206
0.584173
0.575906
0.291985
0.614523
0.627938
0.611297
0.774145
0.769196
0.777483
0.894994
0.859197
0.958291
0.981431
0.0156845
0.00165854
-0.0108357
-0.0161392
-0.0147329
0.509754
0.502413
0.529028
0.517232
0.519689
0.257749
0.122903
0.427583
0.452741
-0.271543
-0.331901
-0.419532
-0.444576
-0.557205
0.613927
0.698749
0.69655
-0.195476
-0.12163
-0.251084
-0.0482675
-0.109072
0.523217
0.530163
0.5252
0.540653
0.535142
0.537095
0.549341
0.546419
0.547975
0.485062
0.608663
0.349145
0.314865
-0.228855
-0.140419
-0.231349
-0.0455952
-0.0396425
0.0889717
0.114918
0.0619265
0.0508771
-0.0334934
-0.0255058
-0.0297399
-0.0175775
-0.0215576
0.456958
0.44604
0.47654
0.48393
0.527303
0.528519
0.531993
0.53039
0.941466
0.963881
0.971457
0.945141
-3.51004
-6.30967
0.0621499
0.200142
-0.00567793
-0.0081492
0.00208971
-0.00423919
0.00150182
-0.00098859
0.0119458
0.00937436
0.014818
0.0170945
0.650617
0.650667
1.01303
1.0151
0.992842
0.94375
0.53303
0.535134
0.54067
0.536533
-0.0216107
-0.0251618
-0.0247113
0.724896
0.731699
0.729697
0.254455
0.166806
0.341857
0.370176
0.642827
0.6313
0.641113
0.672803
0.71014
0.988861
1.00713
1.00532
1.01368
1.05764
1.07399
1.03946
0.489604
0.499363
0.494439
0.532202
0.529927
0.530852
0.526428
0.527881
0.525716
-0.0288155
-0.411991
0.502124
0.520504
0.501902
0.507389
0.693413
0.770681
0.679892
0.689166
0.687026
0.0187091
-0.0389256
0.271081
0.237381
0.39779
0.433503
0.412831
0.912802
0.872967
0.923134
0.896361
0.857567
0.883613
-0.36363
-1.8741
-0.987306
0.553642
0.365924
0.454284
0.0331988
0.0148691
0.0217702
1.00797
1.08452
0.664528
0.83434
0.84064
0.744834
0.773869
0.833482
0.760541
0.79447
0.827242
0.805056
0.570905
0.514552
0.525859
0.840538
0.897143
0.138822
0.0808486
0.036636
0.13396
0.190477
0.165165
1.04636
0.952921
1.02483
0.543215
0.543919
0.00403248
-0.00324667
0.548102
0.548151
-0.00884017
0.000906871
0.436592
-0.823272
0.12249
0.536607
0.52674
0.543731
-0.0693246
0.376918
-0.0196592
0.0720817
0.0131527
0.539901
0.474812
0.434857
0.00845963
-0.0124297
-0.0247767
-0.19891
0.540886
0.539194
0.543202
0.544169
0.544835
-0.00981437
-0.00395303
-0.0051321
-0.0259163
-0.0235196
-0.0293913
0.508077
0.526118
-0.154355
0.543344
0.545469
0.545294
0.538497
0.544152
0.542385
-0.00341218
-0.0104858
-0.0137306
0.2377
0.364011
0.680386
0.771281
0.650299
0.423601
0.185826
0.58128
0.645692
0.54984
0.705594
0.69402
0.710876
0.187929
0.0381608
0.196012
0.137732
0.534467
0.533155
0.524997
0.522024
0.5386
0.53671
0.541264
0.538259
0.541206
0.542601
-0.0278456
-0.0522967
-0.065431
-0.131924
0.333016
0.593446
0.273604
0.30402
0.1641
-0.0147152
-0.0139521
-0.0179648
-0.0245065
0.0252076
-0.00174249
0.0662773
0.0669566
0.0351215
0.00864741
0.016963
0.00385428
0.00865997
0.533129
0.531514
0.537853
0.546739
0.484231
0.48798
0.453535
0.473911
0.459363
0.399734
0.434083
0.409597
0.00286636
0.0124116
0.00449436
-0.00660038
-0.000941423
-0.0183733
-0.0150188
-0.0162526
-0.00958184
-0.0146753
-0.0207962
-0.0258512
-0.158607
-0.272757
0.999156
0.930034
0.140204
0.530072
0.536498
0.533277
0.538113
0.541237
0.542075
0.539812
0.536377
0.526591
0.528256
0.524845
0.525551
-0.0894982
-0.226406
-0.0555844
-0.126687
0.151779
0.63369
0.375793
0.313928
0.308342
0.53375
0.941223
0.731739
0.714055
0.732626
-0.329208
0.0659914
-0.262854
0.356428
0.179177
0.679462
0.727818
0.748534
0.697318
0.650199
-0.0984865
0.565374
-0.051232
-0.00190255
0.196722
0.0799006
0.714436
0.677474
0.681542
0.700263
0.71832
0.683832
0.666695
0.661327
0.695772
0.699434
0.50805
0.268859
0.221814
0.183356
0.660456
0.545415
0.600711
0.512844
0.529526
0.532236
0.530836
0.512818
0.5203
0.515902
0.522081
0.525428
0.534314
0.534707
0.530067
0.532228
-0.0325489
-0.035432
-0.0106125
-0.12056
-0.110978
-0.171073
-0.047319
0.0918837
0.0552215
0.248867
0.354894
0.0674579
-0.0461426
-0.0172863
0.0187258
0.193431
0.218958
0.0969012
0.184088
0.173138
0.156767
0.258341
0.263448
-0.0028927
-0.00665801
-0.00783005
-0.0104875
0.0424844
0.113337
0.123179
0.0167024
0.0122029
-0.0121793
-0.0142806
0.00114012
-0.00351892
-0.000376697
0.0358832
-0.0396724
-0.00706027
0.00781548
0.0185187
0.01473
0.00972924
0.525652
0.527866
0.527526
0.535159
0.553048
0.569095
0.526251
0.506085
0.497023
0.500008
0.473499
0.483663
0.479538
0.492941
0.513526
0.522666
0.520247
0.522926
0.505703
0.507346
0.494316
0.497917
0.473388
0.45451
0.443004
-0.0303201
0.00749249
0.000606774
-0.0276271
0.00283497
-0.0104155
0.0062455
0.0228916
0.00916122
0.00540529
-0.00430697
-0.0131841
-0.0103982
-0.0627549
0.0208551
-0.171532
-0.206916
-0.276315
0.902299
1.02367
0.824984
0.599782
0.614609
0.85588
0.942461
0.56231
0.748857
0.772875
0.588672
0.855687
0.534878
0.534492
0.53209
0.531568
0.53279
0.000727391
0.103225
0.10941
0.166827
0.28328
0.396569
0.319304
0.195148
0.327708
0.331528
0.626933
0.640424
0.595177
0.618216
0.618832
0.439252
0.51536
0.568609
0.524666
0.5746
0.595586
0.552972
0.584413
0.534343
0.489753
0.48629
0.435539
0.456626
0.433462
0.415341
0.524764
0.50234
0.512767
0.502961
0.522527
0.546663
0.543441
0.57569
0.586731
0.5071
0.463736
0.473592
0.503446
0.463955
0.478564
0.494489
0.234868
0.134747
0.219605
-0.0691848
0.00842205
-0.00616921
-0.053441
-0.00634602
0.278995
-0.416213
-0.391119
-1.02253
0.506319
0.971751
0.665897
0.639194
0.715271
0.695888
0.700802
0.721112
0.725654
0.650916
0.66795
0.671204
0.633112
0.656234
0.67848
0.675442
0.535484
0.402923
0.397796
0.351082
0.222578
0.259196
0.460912
0.382756
0.307752
0.309276
0.473698
0.360378
0.42914
0.466614
0.398003
0.352004
0.556933
0.62171
0.611878
0.586603
0.504508
0.519019
0.543173
0.578882
0.605323
0.636815
0.52174
0.52755
0.528803
0.526328
0.523539
0.526515
0.526666
0.529198
0.529962
0.532905
0.53192
-0.0199658
-0.00820529
-0.0220424
-0.0288236
0.00103219
-0.00346015
0.0407609
0.0267001
0.0117823
0.0182262
-0.00842098
-0.0128465
-0.00757923
0.00178573
0.118112
0.131246
0.115222
0.075634
0.262549
0.393353
0.464284
0.342189
0.235409
0.259375
0.28165
0.0104533
0.0372063
0.0242154
0.0636933
0.0555947
-0.0100888
-0.014184
-0.0127956
-0.00630452
0.0042103
-0.0149641
-0.0215306
-0.0109928
-0.0161136
-0.0182891
-0.0233765
0.508293
0.50184
0.503354
0.497382
0.496125
0.510158
0.514396
0.516295
0.521653
0.523767
0.514152
0.519695
0.52336
0.00490233
-0.0191158
-0.0233023
-0.00706311
-0.0133606
-0.012373
-0.0109259
0.129077
0.058553
0.0630144
0.0176798
-0.110697
-0.0532134
0.494293
0.493036
0.488124
0.724166
0.574413
0.493757
0.590001
0.695269
0.279672
0.478479
0.311519
0.895133
0.788501
0.935056
0.549165
0.248365
0.407022
0.456653
0.264191
0.336995
0.337776
0.224713
0.257084
0.290783
0.392613
0.270211
0.245336
0.00257669
0.19074
0.306957
0.287911
0.416267
0.478667
0.266792
0.187828
0.142456
0.617533
0.635187
0.651154
0.624762
0.646932
0.58505
0.573277
0.591442
0.60125
0.596974
-0.749743
-0.4566
-1.40158
-0.717267
-0.265412
0.537434
0.502023
0.777758
0.66023
0.718449
0.702764
0.659561
0.626464
0.642922
0.672344
0.365313
0.477261
0.451834
0.456885
0.357632
0.289228
0.591286
0.585318
0.620601
0.644091
0.612522
0.644218
0.519487
0.519155
0.518736
0.515058
0.513355
0.515628
0.0795077
0.0485676
0.0832321
0.0640362
0.041508
0.0301316
0.0138233
0.00458513
-0.00449717
-0.00581438
0.0077083
0.013557
0.172107
0.112612
0.0349214
0.0639828
0.00470997
-0.0621227
-0.0801124
0.0208519
0.114469
0.104888
0.411232
0.663189
0.483532
0.652033
0.491785
0.547583
0.478323
0.471022
0.497808
0.385332
0.464653
0.24182
-0.265124
-0.173003
0.794411
0.810342
0.593169
0.410828
0.179924
0.365425
0.558528
0.492035
0.530142
0.599671
0.589957
0.0231695
0.086606
0.356604
0.583892
0.241168
0.233109
0.227231
0.405012
0.326678
)
;

boundaryField
{
    wall-4
    {
        type            zeroGradient;
    }
    velocity-inlet-5
    {
        type            zeroGradient;
    }
    velocity-inlet-6
    {
        type            zeroGradient;
    }
    pressure-outlet-7
    {
        type            fixedValue;
        value           uniform 0;
    }
    wall-8
    {
        type            zeroGradient;
    }
    frontAndBackPlanes
    {
        type            empty;
    }
}


// ************************************************************************* //
