/*--------------------------------*- C++ -*----------------------------------*\
| =========                 |                                                 |
| \\      /  F ield         | OpenFOAM: The Open Source CFD Toolbox           |
|  \\    /   O peration     | Version:  4.0                                   |
|   \\  /    A nd           | Web:      www.OpenFOAM.org                      |
|    \\/     M anipulation  |                                                 |
\*---------------------------------------------------------------------------*/
FoamFile
{
    version     2.0;
    format      ascii;
    class       surfaceScalarField;
    location    "45";
    object      phi;
}
// * * * * * * * * * * * * * * * * * * * * * * * * * * * * * * * * * * * * * //

dimensions      [0 3 -1 0 0 0 0];

internalField   nonuniform List<scalar> 
1300
(
3.75095
5.62643
-3.2014
3.75095
-7.7153
5.62643
-4.36372
4.36372
-0.748494
0.748494
1.8764
1.87455
-2.85041
2.85041
-2.32932
2.32932
-2.54688
2.54688
-5.24644
5.24644
-5.06827
5.06827
4.6637
-4.6637
-6.26503
6.26503
-1.0897
1.0897
-3.75728
3.75728
3.16973
-3.16973
-2.21523
2.21523
-0.164343
0.164343
-0.553501
4.30445
3.19745
3.19745
-2.0138
2.0138
-4.86603
4.86603
6.2181
-6.2181
5.19476
-5.19476
-1.99335
-2.36756
1.81712
-11.5773
-5.89818
-5.89818
-8.4404
8.4404
-2.81397
2.81246
2.94476
-2.94476
-1.78316
1.78316
-4.29846
-0.0652576
-4.29846
4.35903
0.00469274
4.35903
-0.831879
0.0833842
-0.831879
3.89973
-3.89973
0.632136
0.116359
0.632136
3.06507
-3.06507
-1.8771
3.75351
1.87385
-1.87187
6.17633
-1.87908
3.75363
-5.99033
5.99033
-3.07423
0.223824
-3.07423
2.66689
0.183516
2.66689
-6.82403
6.82403
-2.38087
0.0515516
-2.38087
2.28421
0.0451089
2.28421
2.87375
-2.87375
-2.65245
0.105573
-2.65245
2.43246
0.114417
2.43246
0.353541
5.27289
-5.97997
8.79243
-5.27289
0.0264526
5.20841
0.0380305
5.20841
-5.10585
0.0375736
-5.10585
5.01222
0.0560532
5.01222
4.75351
-0.0898071
4.75351
-4.77892
0.11522
-4.77892
-3.39331
-4.07436
-6.42302
0.157988
-6.42302
-1.12349
0.0337866
-1.12349
1.03412
0.0555829
1.03412
-3.65129
3.65129
-4.14939
0.392106
-4.14939
3.12414
0.0455875
3.12414
1.8685
1.88245
5.61945
-5.61945
2.44973
-2.1904
-0.0248387
-2.1904
-2.23995
-2.95481
2.23995
-0.0247115
-0.398495
0.234152
-0.398495
3.15934
0.0381084
3.15934
2.27181
0.160651
-2.27181
0.258012
3.24928
-3.24928
1.35098
0.662815
1.35098
-5.56606
5.56606
4.95451
0.0577048
-4.95451
0.0884838
6.15635
0.0617484
6.15635
-6.19951
-0.0185861
-6.19951
2.62405
-4.99161
-2.55792
6.07847
0.18656
-6.07847
0.180293
2.91572
0.0290445
2.91572
-2.92022
2.92022
-2.98381
0.0390533
-2.98381
-2.18351
0.40035
-2.18351
1.48248
0.300677
1.48248
-4.17256
-0.125901
-4.17256
-4.27551
0.126115
4.27551
0.0835235
1.10745
-1.10745
-0.931855
0.0999769
-0.931855
-4.02333
-0.149231
4.02333
-0.1236
-3.80041
-0.0993194
-3.80041
-3.02398
0.0401699
3.02398
0.0410857
3.11272
0.0466271
-3.11272
0.0476478
-1.87083
3.75328
-1.88013
3.75398
-5.60834
-0.381986
-5.60834
6.30069
-0.310362
6.30069
3.43238
0.324909
-3.43238
0.358146
2.53481
0.132082
2.53481
-6.78543
-0.0385987
-6.78543
6.80791
0.0161231
6.80791
2.43918
0.0956309
-2.43918
0.058308
2.23237
0.0518372
2.23237
2.89116
-0.0174116
2.89116
-2.87004
-0.0037089
-2.87004
2.79785
-2.79785
2.72918
0.0686748
-2.72918
0.076723
-11.133
11.1144
-0.0351973
-11.0978
5.17321
5.17321
4.1833
0.570209
4.1833
-4.99432
0.215403
-4.99432
2.73528
-5.2932
3.07542
-6.46873
4.689
-16.2663
4.32616
-8.40052
6.67061
-6.67061
6.55891
0.111698
-6.55891
0.135894
-1.20197
0.0784808
-1.20197
-3.04613
-0.605167
-3.04613
4.29916
-0.647866
4.29916
-3.02861
3.02861
-3.07774
0.0491334
3.07774
0.046398
2.1852
0.0471667
-2.1852
-0.00519171
0.514948
0.117187
-0.514948
0.116454
3.4503
-0.201014
3.4503
-3.05832
-0.190963
-3.05832
-1.27877
0.0767993
1.27877
0.072214
-5.81551
0.249447
-5.81551
-11.1908
0.0929567
-11.1527
-6.10655
-6.10655
2.33385
11.1263
-2.88977
0.0197284
2.88977
0.0259503
2.9756
0.0530081
-2.9756
0.0553807
-2.86148
0.0636283
2.86148
0.0587397
-2.55963
0.376119
-2.55963
-1.073
1.073
-1.24524
0.172245
1.24524
0.23724
1.37047
-0.263021
1.37047
0.99044
0.0436813
-0.99044
0.0585841
-3.71724
-0.0831727
-3.71724
6.53393
-0.233237
6.53393
-2.94932
-0.109004
2.94932
-0.0581582
-0.0333336
11.1478
-5.13988
0.0340304
5.13988
-11.2095
11.2435
-3.23186
0.672226
3.23186
0.951442
5.28627
0.279787
-5.28627
0.291949
6.757
0.0509099
-6.757
0.0863855
-2.55393
-0.492197
-2.55393
-5.02579
-0.582548
5.02579
-0.726632
-11.4754
-0.202584
11.678
-11.4194
6.01809
0.138256
-6.01809
11.3818
-1.01904
-0.0884022
1.01904
0.0539543
1.69483
-0.324367
1.69483
3.63169
-0.181397
-3.63169
-0.085548
-6.68802
-0.0974116
6.68802
-0.154093
-2.11039
-0.443537
2.11039
-0.415558
-4.26703
4.30514
1.9093
-2.45674
-2.53487
-5.41155
1.85191
1.90137
4.30164
-10.2044
-6.06192
-10.0241
7.26386
-6.97191
-9.26185
9.17204
7.76756
-7.86688
-5.78514
5.83154
6.48244
-6.44135
1.87877
1.87474
7.94537
-7.72155
-15.6367
15.2547
7.48221
-7.43066
15.7824
-15.821
-17.8826
17.9335
-5.70574
5.81131
-6.7311
6.72739
-6.95748
6.89933
-2.86218
-3.60655
13.1855
-13.0275
8.44553
-8.47037
-8.55351
8.94562
3.3825
0.922643
3.42912
-1.88226
3.76103
-1.87137
3.78067
2.68501
-5.54719
2.60819
-5.14306
4.22611
4.21942
-4.2014
-1.21015
-5.92184
5.95089
-5.81835
5.87709
9.00299
-9.06824
-1.88513
3.75986
-1.86885
3.77022
-3.42507
-2.36007
3.37948
0.922154
8.11319
5.07227
-8.29975
-1.72438
-7.97495
7.79355
-8.19546
8.0045
-0.437414
5.81892
-5.3815
4.42862
-1.55897
7.37789
5.7049
5.9203
5.86638
-5.58659
1.10554
-6.48704
-6.39856
-2.42186
2.52183
2.36442
-2.24806
6.03664
1.73092
5.91304
-5.69711
-2.16977
-5.78028
3.82094
2.01059
3.87008
4.07758
2.40486
4.11775
3.03067
-3.03572
0.00505076
-3.05645
6.08712
0.724143
-5.41652
-4.49437
4.96229
2.98308
5.14581
-5.50664
-2.21491
-5.14849
-9.54917
-6.08754
-10.1317
10.0955
5.15926
9.7851
-11.969
11.8149
4.77583
2.70638
4.82094
-4.90821
-2.52245
-4.84991
11.621
-2.61285
-9.00819
-10.3342
-7.54839
10.3181
5.46435
10.9894
6.94405
11.0758
4.43093
7.1901
-9.89528
2.34689
-3.86353
-1.84221
-3.78681
3.67681
2.13451
3.79123
-4.21464
-2.51646
-4.19491
-4.28995
-2.66753
4.30736
2.42003
-4.40597
-3.78949
4.51498
2.38435
4.05657
-10.1185
4.34395
-7.9505
-9.23846
-3.78901
-9.10257
3.47565
2.62774
-6.10339
-2.07154
8.42475
-4.20533
7.2146
-5.14882
-3.32155
-5.15401
-6.81606
-1.73745
-6.68994
-8.89137
8.39918
-9.18918
8.54132
12.6006
-5.67476
-6.92586
-3.96826
-2.47309
3.92061
-0.491487
-3.71088
3.71594
0.0501442
3.83081
4.75345
4.26197
-3.88604
-1.93231
-3.83066
3.82929
2.0478
3.89292
6.7767
2.22628
6.78139
-6.49494
-2.5733
-6.62084
9.06962
-8.66927
2.89492
-2.81812
5.35582
2.64868
-5.15481
-2.82014
6.20334
-3.19334
-3.00999
-12.2027
10.5472
1.65543
-4.82478
-0.396166
-0.231823
-5.49503
-3.76682
5.37981
0.540491
11.0877
7.32091
-5.51231
5.76176
6.16568
6.22339
-0.175169
5.82894
-5.15671
5.32409
-2.5201
-2.80399
5.36903
-5.51827
-1.2518
-5.43133
4.17953
0.394772
1.6498
-1.41565
-1.88104
-0.540815
-1.82246
1.42273
0.941685
1.53992
0.922476
1.59936
-2.93908
0.565317
2.37377
-2.01661
-1.68274
-3.7109
-1.1317
4.8426
5.67521
2.11834
-5.58966
-0.190617
2.609
-2.55341
-0.720887
-2.99002
2.20289
-2.92377
-3.66799
-1.96099
5.62898
-3.37035
-0.460302
3.31735
0.55273
-3.82637
-2.09547
3.78732
0.330428
-3.12624
6.19048
-3.06424
-5.05855
2.52823
3.55889
4.53882
-4.78975
2.44687
2.34287
-1.23086
4.24397
0.901837
4.37605
-6.8308
4.61589
5.76917
3.17645
-6.09408
0.945582
-5.88521
8.49995
-7.31267
-1.18728
4.11365
4.38629
7.11163
5.48899
-5.70386
12.8155
-1.16113
-6.15155
7.04634
-3.86989
4.7956
-8.66549
-10.2846
4.13305
-9.16236
10.9374
-1.77506
-3.62615
-8.34289
12.7885
-1.20897
-11.5795
8.57613
-4.19103
-4.2833
8.47433
-6.80388
6.80575
-1.96694
-4.83881
-10.1126
-5.70837
10.2101
1.60489
-9.85627
12.2032
-2.66617
4.09075
0.73019
4.14259
3.25583
-5.43007
2.17425
3.54805
-5.51499
2.07164
-7.50172
-6.74916
12.0934
-5.34421
-10.5382
-9.54344
-0.994723
2.54366
9.65951
-9.4877
7.45848
2.02922
3.30657
0.586352
-3.37524
-0.411566
0.238587
4.53704
-4.77563
4.02981
4.19046
3.32203
1.21501
3.8426
2.10829
-3.86855
-0.326361
-4.157
1.48947
-1.73697
-3.68111
5.17058
-4.06581
0.384701
-2.74052
-3.50499
6.24552
-4.58273
3.03798
3.1525
5.08577
-4.9124
1.40741
-2.39709
-2.51531
2.6584
-4.39537
1.97953
3.19105
4.36388
0.574389
5.88299
6.21037
-8.51073
0.560222
11.2826
-9.55827
2.46642
8.60942
-9.9249
0.381456
-8.72111
1.0068
-5.21213
-5.09659
5.12235
-6.85981
-3.54314
6.16897
0.612428
-6.25249
-0.437453
-6.04111
-2.85026
-6.48465
-3.05008
-6.1391
-8.75394
-1.65491
-7.09903
6.74427
-6.68702
-3.4447
7.41365
1.12767
-7.42027
7.33187
-7.49875
7.17438
0.0950833
3.62085
4.35705
1.88396
-2.38999
4.27396
-5.11851
7.3448
-8.66254
3.54402
4.11788
-6.69118
-4.54466
5.03765
4.03197
5.33833
8.92828
-10.4229
1.49463
-10.7263
12.0553
-1.32895
-16.5047
5.77842
-7.57645
2.5478
0.347119
2.62628
0.586481
2.49408
-3.08056
-2.23164
-2.15942
-2.39798
-3.46053
5.85852
1.13023
-3.47423
2.344
-3.5547
4.68493
-0.146721
-3.3275
5.29947
-2.8054
5.64659
-3.70142
1.94517
3.39794
5.72549
-2.32755
4.3895
-1.74082
1.89117
-4.21872
-1.56936
-2.9645
5.09901
-3.28101
3.66571
-0.32338
3.98909
-4.08184
0.888497
-0.759807
3.43066
3.68867
4.29501
-3.08
2.93371
-4.67454
-1.28501
-4.10015
-0.909098
-0.285222
-3.7602
4.04542
6.02771
-6.31293
-5.25088
9.5582
-4.30732
7.7151
-5.39613
-2.31897
-4.2692
-4.40007
3.89308
1.93585
9.65095
0.211705
-5.60783
-4.945
-3.99356
3.18125
2.14284
-1.87083
3.52627
2.10266
-0.452856
0.505973
1.03394
1.82943
-1.32345
0.26525
1.56418
-1.1504
1.87296
0.736034
-1.91664
0.094187
-1.30452
3.50741
1.06924
-2.01093
0.687474
1.00843
-3.52853
4.95807
-2.61889
-2.33918
5.9665
1.13753
-3.75642
4.2938
-3.89903
2.34158
-3.47327
-1.41485
-5.31388
-3.58295
-2.53854
4.88254
-3.31998
5.43832
1.21455
-5.2477
6.46225
-3.65513
1.69414
-3.08163
3.81766
-1.0298
-2.05182
2.86674
2.76224
-2.99152
0.00150533
-0.124786
2.3674
-2.49219
-0.556376
-2.57298
-4.57238
4.90281
-2.10643
4.55331
2.16752
-1.91557
6.46888
1.81028
-3.72585
-3.24827
-3.70857
-1.38298
3.15584
-0.59483
-4.25508
-5.43364
4.15944
0.216608
-6.94819
7.75854
-0.810356
-3.96511
-0.650781
4.76444
-5.99567
0.480683
-3.92403
3.83451
4.73635
4.95296
-11.3756
-0.203894
-6.21639
1.1403
-7.35668
5.52659
-3.5764
7.70944
-10.3668
6.92206
-9.23909
6.52217
-0.834515
6.24331
-4.06907
2.76487
-8.47325
-6.86835
5.43458
-2.7282
6.16477
-3.07997
9.24473
-5.74614
5.19385
4.05088
-0.981601
-4.17241
-5.2112
4.2296
-0.0173429
4.12525
4.97699
-2.86871
4.65063
2.2612
-4.65829
-2.13417
-6.49577
1.83748
-3.34327
-1.91808
3.75556
3.16769
3.75405
1.24025
-3.34248
7.16602
-8.16074
-1.82181
-3.27477
5.18703
-0.957433
3.34665
-6.62143
-1.86548
4.84441
-0.802811
-4.0416
0.830355
-4.37349
1.67741
-6.0509
5.1824
-5.61985
2.21801
-9.79446
-5.20226
-5.14831
-2.25688
-5.24187
-7.6054
5.34852
-1.82698
5.50489
-8.56402
7.76121
-3.49124
8.83976
-5.43562
-1.04903
5.85118
1.32321
10.163
0.185036
-4.72969
-1.9064
3.94156
-2.03516
1.27485
-3.57516
0.366399
2.47888
3.48762
-6.65841
-0.0327702
-4.76246
-3.92534
7.95731
5.63286
11.6606
1.23765
9.14633
-1.18903
10.384
4.1493
4.38654
-3.02985
4.52449
1.01557
4.55959
-0.883135
2.82831
1.74314
1.77693
0.776483
2.31026
1.37841
3.19876
0.118203
-2.04122
4.63156
-8.62513
-0.976269
-8.05492
1.11712
5.72006
-4.60294
3.07731
-0.934468
1.04215
0.01739
-1.49449
1.4771
-2.7866
-1.94735
-0.383172
-1.65403
2.34151
1.85338
-1.95834
-0.828262
0.370608
-3.95356
3.10266
-3.10116
-0.338915
6.12333
-2.78386
0.291676
-1.08973
-2.28131
-2.82212
2.72793
6.17662
0.292265
3.11238
5.19508
3.0996
0.230897
3.90241
-5.67747
-3.59931
-5.88136
-0.354773
4.40966
1.71689
7.94262
5.76777
4.81033
-1.81109
-9.97184
6.56115
-2.03666
5.2322
-1.1906
-4.8603
5.01983
2.32496
-5.63226
0.0124058
-4.8479
-6.88455
-0.522873
8.28408
-9.64009
8.59106
5.7408
1.35823
-4.41598
-0.732327
4.24373
0.142811
10.5268
-1.12559
-6.78687
7.91246
-4.59447
3.6182
0.803172
2.72309
2.28027
1.34581
-5.44106
-10.044
-1.99113
-1.5374
-4.33031
0.512287
-2.36566
6.24465
-2.62645
3.92568
5.28601
6.32816
-2.14794
-4.16499
6.45526
-2.52958
3.79859
)
;

boundaryField
{
    wall-4
    {
        type            calculated;
        value           uniform 0;
    }
    velocity-inlet-5
    {
        type            calculated;
        value           uniform -3.75095;
    }
    velocity-inlet-6
    {
        type            calculated;
        value           uniform -5.62643;
    }
    pressure-outlet-7
    {
        type            calculated;
        value           nonuniform List<scalar> 8(3.2014 7.7153 4.36091 9.76022 7.46768 5.18197 5.8107 9.01516);
    }
    wall-8
    {
        type            calculated;
        value           uniform 0;
    }
    frontAndBackPlanes
    {
        type            empty;
        value           nonuniform 0();
    }
}


// ************************************************************************* //
