/*--------------------------------*- C++ -*----------------------------------*\
| =========                 |                                                 |
| \\      /  F ield         | OpenFOAM: The Open Source CFD Toolbox           |
|  \\    /   O peration     | Version:  4.0                                   |
|   \\  /    A nd           | Web:      www.OpenFOAM.org                      |
|    \\/     M anipulation  |                                                 |
\*---------------------------------------------------------------------------*/
FoamFile
{
    version     2.0;
    format      ascii;
    class       volScalarField;
    location    "49";
    object      p;
}
// * * * * * * * * * * * * * * * * * * * * * * * * * * * * * * * * * * * * * //

dimensions      [0 2 -2 0 0 0 0];

internalField   nonuniform List<scalar> 
8800
(
0.900488
0.8527
0.814009
0.785011
0.764144
0.749309
0.738706
0.731219
0.726389
0.724319
0.725573
0.729751
0.736387
0.745696
0.75847
0.776199
0.800974
0.834912
0.87746
0.936162
0.731742
0.739421
0.746892
0.750199
0.748692
0.743611
0.737119
0.731035
0.726302
0.723446
0.723153
0.725644
0.730121
0.736057
0.742819
0.749094
0.752731
0.751993
0.746569
0.737877
0.710153
0.716312
0.720437
0.723378
0.725422
0.726021
0.724907
0.722793
0.720766
0.719844
0.72079
0.723156
0.725943
0.728114
0.728714
0.727509
0.725162
0.721766
0.717206
0.713445
0.704359
0.707009
0.709757
0.712156
0.713785
0.714939
0.715671
0.715777
0.715468
0.715402
0.716135
0.717288
0.718113
0.718166
0.717547
0.716448
0.714626
0.712051
0.709645
0.708141
0.699
0.700424
0.702199
0.704225
0.706002
0.707334
0.708312
0.709096
0.709694
0.710238
0.710867
0.711342
0.711422
0.711119
0.710409
0.70915
0.707446
0.705592
0.704281
0.70345
0.693951
0.694871
0.696108
0.697667
0.699291
0.700805
0.702076
0.703126
0.70407
0.704939
0.7056
0.705901
0.705836
0.705376
0.704478
0.703265
0.701926
0.700657
0.699831
0.69928
0.68908
0.689749
0.690706
0.692
0.693398
0.694843
0.696266
0.697568
0.698742
0.699818
0.700604
0.700937
0.700822
0.700286
0.699457
0.698492
0.697464
0.69653
0.69594
0.695535
0.68434
0.684856
0.685634
0.686755
0.688019
0.689377
0.690803
0.692251
0.693648
0.694945
0.695906
0.696332
0.696265
0.695844
0.695211
0.694462
0.693667
0.69297
0.692532
0.692216
0.679663
0.680073
0.680723
0.681718
0.682909
0.684217
0.685638
0.687163
0.688746
0.690295
0.691482
0.69208
0.69219
0.691974
0.691551
0.691003
0.690406
0.689895
0.689566
0.68931
0.674964
0.675298
0.675859
0.676773
0.677912
0.679202
0.680653
0.682268
0.684026
0.685845
0.687328
0.688198
0.688564
0.688583
0.688375
0.688037
0.687624
0.687267
0.687022
0.686808
0.670158
0.670434
0.670933
0.671801
0.67292
0.67423
0.675747
0.677491
0.679461
0.681593
0.68345
0.684673
0.685348
0.685633
0.685657
0.685527
0.685294
0.685071
0.684893
0.684709
0.665161
0.665393
0.665852
0.666703
0.667841
0.669214
0.67084
0.672765
0.675011
0.677531
0.679847
0.681493
0.682527
0.683116
0.683397
0.68348
0.683424
0.683322
0.683198
0.683036
0.659885
0.660083
0.660522
0.661385
0.662584
0.664064
0.665852
0.668027
0.670629
0.673641
0.676514
0.678663
0.680112
0.681044
0.68161
0.681911
0.682044
0.682056
0.681978
0.681831
0.654237
0.654405
0.654842
0.655746
0.657047
0.658685
0.660704
0.663206
0.666264
0.669891
0.67344
0.676186
0.678123
0.679448
0.680335
0.680903
0.681218
0.681334
0.681295
0.681158
0.648105
0.648249
0.648698
0.649673
0.651122
0.652977
0.655301
0.658221
0.661849
0.666231
0.670605
0.67407
0.676588
0.678375
0.679625
0.680477
0.681001
0.681228
0.681226
0.681095
0.64136
0.641478
0.641953
0.643032
0.64468
0.64682
0.649535
0.652989
0.657332
0.662641
0.668015
0.672344
0.675551
0.677884
0.67956
0.680734
0.68149
0.681831
0.681863
0.681735
0.633836
0.633929
0.634446
0.635661
0.637565
0.640072
0.643288
0.647417
0.652652
0.659099
0.665686
0.671049
0.675074
0.678043
0.680227
0.68178
0.682794
0.683255
0.683321
0.683192
0.625306
0.625404
0.625973
0.627344
0.629577
0.632556
0.636415
0.641401
0.647754
0.655607
0.663654
0.670242
0.675227
0.678947
0.681737
0.683731
0.685034
0.685624
0.685722
0.68559
0.615485
0.615562
0.616219
0.617811
0.62047
0.624056
0.628726
0.634785
0.64252
0.65209
0.6619
0.669953
0.676083
0.680698
0.684192
0.686705
0.688341
0.689072
0.689202
0.689061
0.604009
0.604069
0.604821
0.606724
0.60993
0.614298
0.620011
0.627436
0.636906
0.648579
0.660504
0.670281
0.677749
0.683412
0.687716
0.690846
0.692857
0.693737
0.693895
0.693744
0.590345
0.590391
0.591287
0.593597
0.597527
0.602923
0.609994
0.619179
0.630834
0.645083
0.659525
0.671319
0.680327
0.687205
0.692461
0.696291
0.698712
0.699747
0.699929
0.699763
0.573734
0.573768
0.574879
0.577766
0.582689
0.589479
0.59837
0.609854
0.62427
0.641655
0.65905
0.673166
0.683938
0.692195
0.698542
0.70316
0.706023
0.707207
0.707405
0.70722
0.553067
0.553098
0.554543
0.55829
0.56464
0.573391
0.584769
0.599281
0.617168
0.638326
0.659161
0.675906
0.688673
0.698487
0.706028
0.711546
0.714861
0.716177
0.716377
0.716169
0.526605
0.526655
0.528679
0.533823
0.542384
0.554028
0.568929
0.587492
0.609761
0.635408
0.660121
0.679738
0.694655
0.706179
0.715021
0.721479
0.725224
0.726629
0.726809
0.726576
0.491331
0.49148
0.494697
0.502424
0.514737
0.530793
0.550707
0.574571
0.602178
0.632999
0.662018
0.684738
0.701937
0.715239
0.725511
0.732891
0.736982
0.738403
0.73853
0.73827
0.441485
0.442442
0.448859
0.461903
0.480744
0.503635
0.53047
0.561056
0.594986
0.631589
0.665154
0.691048
0.710555
0.72567
0.737361
0.745559
0.74984
0.751168
0.751213
0.750926
0.36817
0.37535
0.390243
0.413264
0.441857
0.473917
0.509227
0.547564
0.588529
0.63144
0.669952
0.699325
0.72139
0.738553
0.751776
0.760763
0.7652
0.766454
0.766453
0.7662
0.289127
0.306169
0.330343
0.363982
0.402736
0.444121
0.488007
0.534337
0.582804
0.632807
0.677298
0.711122
0.736517
0.756241
0.771421
0.781225
0.785618
0.786694
0.786723
0.786585
0.2233
0.243412
0.275293
0.317898
0.36563
0.415807
0.468016
0.522189
0.57801
0.634898
0.685098
0.723083
0.751562
0.773582
0.790197
0.800411
0.804662
0.80575
0.805884
0.805817
0.169371
0.191146
0.22853
0.277535
0.332344
0.389923
0.449496
0.510868
0.573602
0.637043
0.692652
0.734528
0.765799
0.789816
0.80773
0.818632
0.823455
0.824555
0.824673
0.824648
0.124375
0.147345
0.188522
0.242612
0.303125
0.366817
0.432708
0.500476
0.569529
0.639081
0.699775
0.745294
0.779175
0.805141
0.824431
0.836272
0.841472
0.842595
0.842765
0.842777
0.08606
0.109718
0.153754
0.2119
0.277202
0.346097
0.417474
0.49092
0.565711
0.640908
0.70634
0.755253
0.791571
0.81935
0.839835
0.852533
0.85818
0.859497
0.859726
0.859765
0.0524298
0.07656
0.122874
0.184338
0.253689
0.327102
0.40334
0.481896
0.561941
0.642382
0.712245
0.764309
0.802844
0.832151
0.853709
0.867047
0.873084
0.874707
0.875006
0.875051
0.0220189
0.0465685
0.0947511
0.159047
0.231886
0.30925
0.389842
0.473053
0.557962
0.643333
0.717388
0.772399
0.812926
0.843585
0.86601
0.879874
0.886216
0.888084
0.888422
0.888458
-0.0061101
0.0188312
0.0686366
0.135341
0.211249
0.292111
0.376613
0.464084
0.553539
0.643603
0.721696
0.779516
0.821896
0.853801
0.876916
0.891089
0.89768
0.899698
0.900041
0.900053
-0.0327381
-0.00735993
0.0439514
0.112751
0.191379
0.275361
0.363394
0.454782
0.548502
0.643072
0.725112
0.78569
0.82987
0.862889
0.886491
0.900869
0.907556
0.909675
0.910005
0.909985
-0.0582002
-0.0323794
0.0200821
0.0909547
0.171995
0.258777
0.350008
0.445003
0.542732
0.641652
0.727604
0.790977
0.836974
0.871023
0.895025
0.909482
0.91624
0.918391
0.918716
0.918668
-0.0829002
-0.0565024
-0.00296843
0.0697169
0.152913
0.242207
0.336342
0.434654
0.536144
0.639265
0.729152
0.795434
0.843333
0.878409
0.90275
0.917265
0.92402
0.926123
0.926439
0.926371
-0.106957
-0.080109
-0.0253806
0.0489019
0.13403
0.225578
0.322336
0.423692
0.528694
0.635871
0.729743
0.799114
0.849056
0.885182
0.909849
0.924382
0.931081
0.933115
0.933353
0.933246
-0.130475
-0.103075
-0.0473
0.0284387
0.115303
0.208865
0.307978
0.412101
0.520365
0.631436
0.729351
0.802037
0.854217
0.89148
0.916483
0.930978
0.937496
0.939389
0.939548
0.939397
-0.153567
-0.125566
-0.0687795
0.00830386
0.096716
0.192076
0.293294
0.399912
0.511169
0.625942
0.727936
0.804184
0.858881
0.897449
0.922802
0.937139
0.943352
0.945015
0.945085
0.944906
-0.176232
-0.147549
-0.0898119
-0.0114942
0.0783088
0.175248
0.278337
0.387177
0.501144
0.619383
0.725445
0.805497
0.863063
0.903238
0.929009
0.943004
0.948701
0.950047
0.950022
0.949826
-0.198307
-0.168982
-0.110335
-0.0309199
0.060119
0.158451
0.263172
0.373974
0.490356
0.611791
0.721819
0.805878
0.866721
0.908979
0.935384
0.948823
0.953648
0.954513
0.954383
0.954187
-0.219767
-0.189833
-0.130331
-0.0499168
0.0422082
0.141749
0.247893
0.360385
0.478889
0.603202
0.717014
0.805194
0.869746
0.914725
0.942283
0.9551
0.958517
0.958497
0.958193
0.95805
-0.240676
-0.210061
-0.149768
-0.0684495
0.0246417
0.125226
0.232588
0.346517
0.46684
0.593686
0.710985
0.803303
0.871939
0.920348
0.949993
0.962688
0.964264
0.962444
0.961567
0.961682
-0.260859
-0.229641
-0.168586
-0.0864531
0.0074801
0.108968
0.217355
0.332483
0.454326
0.58334
0.703725
0.800043
0.873023
0.925462
0.958381
0.972517
0.972983
0.968539
0.965538
0.964941
-0.280409
-0.248565
-0.186803
-0.103955
-0.00930948
0.0929287
0.202137
0.318222
0.44128
0.57209
0.695097
0.79514
0.872676
0.92949
0.966665
0.984678
0.98693
0.981208
0.972419
0.957753
-0.299251
-0.266818
-0.204539
-0.121154
-0.0260163
0.0767735
0.186517
0.303252
0.427162
0.559293
0.684446
0.787797
0.870285
0.931588
0.972878
0.996439
1.00141
0.989629
0.970246
0.957534
-0.317205
-0.284535
-0.221597
-0.137827
-0.0423065
0.0608502
0.170721
0.287899
0.412282
0.545215
0.671862
0.777586
0.865128
0.930628
0.97254
0.995698
1.00399
0.981914
0.913813
0.883011
-0.333605
-0.302949
-0.237641
-0.15342
-0.0574272
0.0456648
0.155058
0.272393
0.396858
0.529983
0.657293
0.764239
0.855918
0.92602
0.960874
0.977696
0.970523
0.917862
0.848772
0.806163
-0.390022
-0.319185
-0.252293
-0.169011
-0.0729559
0.0297698
0.139466
0.256454
0.380527
0.51315
0.640152
0.747194
0.838979
0.915731
0.921507
0.927369
0.881873
0.813412
0.737345
0.694934
-0.35121
-0.334973
-0.274094
-0.190385
-0.0956956
0.0069069
0.115619
0.231947
0.355013
0.486139
0.610964
0.715974
0.799593
0.879762
0.869565
0.759898
0.656461
0.584423
0.511637
0.543155
-0.38274
-0.353044
-0.291149
-0.208202
-0.113476
-0.011079
0.0979078
0.213607
0.335614
0.464939
0.586894
0.687621
0.762801
0.80505
0.7579
0.612102
0.486127
0.395808
0.297514
0.348481
-0.407071
-0.374422
-0.311222
-0.228041
-0.133218
-0.0309004
0.0780307
0.192916
0.313553
0.440498
0.558715
0.653441
0.719667
0.728597
0.623897
0.452686
0.30128
0.183398
0.0526838
0.0859608
-0.430931
-0.396699
-0.332286
-0.248187
-0.153192
-0.0509757
0.0574786
0.171435
0.290522
0.414727
0.528337
0.615983
0.666909
0.644956
0.488335
0.293314
0.103847
-0.0635333
-0.252079
-0.269801
-0.454187
-0.419495
-0.354161
-0.26927
-0.174046
-0.0719903
0.03587
0.14879
0.266087
0.38719
0.495532
0.575803
0.608179
0.55045
0.359381
0.150008
-0.0666138
-0.255558
-0.497657
-0.798183
-0.477756
-0.443053
-0.377143
-0.291721
-0.196245
-0.0942894
0.0130582
0.124923
0.240342
0.358107
0.460919
0.532885
0.545463
0.436944
0.247298
0.0385072
-0.165089
-0.336907
-0.405262
-0.485281
-0.502589
-0.467826
-0.401591
-0.315887
-0.220293
-0.11852
-0.0117675
0.098886
0.212128
0.326053
0.422956
0.484255
0.472415
0.330288
0.14786
-0.0419133
-0.20379
-0.295972
-0.319802
-0.335807
-0.529009
-0.494135
-0.427681
-0.341858
-0.246326
-0.144895
-0.0389636
0.0701956
0.180865
0.29032
0.380805
0.428526
0.399116
0.231316
0.0578009
-0.106864
-0.232473
-0.271091
-0.284072
-0.285382
-0.557227
-0.522157
-0.455481
-0.36963
-0.274291
-0.173416
-0.068546
0.038806
0.146488
0.250903
0.334077
0.367733
0.31961
0.139732
-0.0247128
-0.17207
-0.247538
-0.264432
-0.265817
-0.265642
-0.587307
-0.551946
-0.485017
-0.3992
-0.304204
-0.204072
-0.100516
0.00470585
0.109013
0.207876
0.282853
0.304799
0.22109
0.0558247
-0.100265
-0.22168
-0.257678
-0.256065
-0.255029
-0.254434
-0.618968
-0.583354
-0.516189
-0.430482
-0.335976
-0.236808
-0.13484
-0.0320741
0.0684852
0.161353
0.227941
0.233054
0.130251
-0.0223987
-0.159973
-0.235181
-0.245116
-0.2476
-0.248225
-0.247846
-0.651651
-0.615899
-0.548745
-0.463253
-0.369424
-0.271467
-0.171363
-0.0713982
0.0250911
0.11168
0.169767
0.159201
0.0475401
-0.0890955
-0.2034
-0.233736
-0.242318
-0.244229
-0.244051
-0.243683
-0.684903
-0.649053
-0.58223
-0.497123
-0.404205
-0.307732
-0.209808
-0.112974
-0.0208871
0.059571
0.107487
0.0888384
-0.0309189
-0.145344
-0.232434
-0.249151
-0.24167
-0.240655
-0.240657
-0.240524
-0.717844
-0.682138
-0.615783
-0.531494
-0.439785
-0.345137
-0.249733
-0.156318
-0.0689842
0.00569556
0.0438917
0.0246516
-0.103406
-0.195077
-0.23448
-0.24644
-0.242806
-0.2391
-0.237741
-0.237478
-0.748885
-0.713952
-0.648471
-0.56545
-0.475413
-0.382991
-0.290498
-0.200761
-0.118366
-0.049265
-0.0146246
-0.0439911
-0.165777
-0.261095
-0.244223
-0.253749
-0.248318
-0.238965
-0.234677
-0.233136
-0.776491
-0.74261
-0.679173
-0.597852
-0.510063
-0.420376
-0.331251
-0.245491
-0.167883
-0.104371
-0.0693599
-0.105283
-0.208756
-0.341531
-0.350565
-0.302455
-0.263203
-0.243937
-0.235958
-0.232993
-0.798542
-0.766456
-0.705751
-0.627313
-0.542463
-0.456162
-0.370933
-0.289524
-0.216461
-0.158146
-0.123514
-0.145062
-0.204862
-0.381446
-0.469347
-0.339157
-0.281785
-0.26257
-0.25369
-0.24901
-0.81285
-0.7835
-0.726484
-0.651908
-0.571111
-0.489042
-0.40834
-0.331705
-0.263188
-0.209086
-0.173012
-0.160206
-0.107052
-0.126982
-0.175538
-0.241318
-0.289665
-0.301527
-0.297786
-0.297273
-0.816773
-0.791513
-0.739363
-0.669863
-0.594308
-0.517604
-0.442184
-0.370853
-0.307097
-0.257736
-0.213316
-0.175513
0.0124045
0.321148
0.109151
-0.155777
-0.285001
-0.317997
-0.32763
-0.331398
-0.808239
-0.787828
-0.742204
-0.679533
-0.610532
-0.540245
-0.471025
-0.405619
-0.347861
-0.303649
-0.252735
-0.278048
-0.214494
-0.0125198
-0.177775
-0.356225
-0.428322
-0.442933
-0.447749
-0.452431
-0.785119
-0.769612
-0.733154
-0.679643
-0.618686
-0.555779
-0.493433
-0.434418
-0.383727
-0.348036
-0.323933
-0.535227
-1.00051
-1.56704
-1.62382
-1.15325
-0.82264
-0.69759
-0.669601
-0.665111
-0.749578
-0.739503
-0.712776
-0.670138
-0.618459
-0.563624
-0.50822
-0.455275
-0.410708
-0.384065
-0.393214
-0.66101
-1.11221
-1.55982
-1.54248
-1.09097
-0.765946
-0.651048
-0.611763
-0.598409
-0.707781
-0.702094
-0.685563
-0.653536
-0.611464
-0.564076
-0.514687
-0.466422
-0.424053
-0.396637
-0.393695
-0.417399
-0.26932
0.0103487
0.311344
0.2258
-0.0588934
-0.251643
-0.282109
-0.286983
-0.668876
-0.665562
-0.65734
-0.634902
-0.600389
-0.558856
-0.513782
-0.466814
-0.422667
-0.386338
-0.379889
-0.307972
-0.18556
-0.143839
-0.335691
-0.644245
-0.788319
-0.732035
-0.570138
-0.516841
-0.639632
-0.637635
-0.63353
-0.618588
-0.589822
-0.551261
-0.507553
-0.459644
-0.41004
-0.368156
-0.35122
-0.363082
-0.361666
-0.440039
-0.530559
-0.615988
-0.643349
-0.580864
-0.469611
-0.423693
-0.615742
-0.614993
-0.613761
-0.605844
-0.582146
-0.544889
-0.499152
-0.446872
-0.391692
-0.334959
-0.293596
-0.254375
-0.142972
-0.0200328
0.0376292
0.0814146
0.165791
0.259385
0.337217
0.369688
-0.600326
-0.599884
-0.599379
-0.595899
-0.577401
-0.540009
-0.489949
-0.431652
-0.364499
-0.288814
-0.213679
-0.105984
0.077132
0.311298
0.529835
0.719565
0.894708
1.04235
1.13667
1.1719
-0.590135
-0.58992
-0.589523
-0.588755
-0.575032
-0.537364
-0.482815
-0.415773
-0.336072
-0.245566
-0.139809
-0.0154527
0.242774
0.571172
0.898633
1.21213
1.47113
1.64734
1.74298
1.77474
-0.582895
-0.582635
-0.581787
-0.581179
-0.57261
-0.53827
-0.479702
-0.404207
-0.313666
-0.210161
-0.0954279
0.00882789
0.261307
0.60605
1.00031
1.35857
1.64071
1.81925
1.90488
1.92998
-0.583563
-0.581256
-0.575358
-0.571564
-0.572269
-0.546269
-0.482742
-0.397889
-0.298982
-0.188181
-0.0693725
0.0576788
0.238114
0.579296
0.924981
1.24255
1.49163
1.64446
1.71518
1.73446
-0.612417
-0.608445
-0.602284
-0.601977
-0.605493
-0.573323
-0.493353
-0.393643
-0.286816
-0.171708
-0.0551972
0.0667498
0.206954
0.438385
0.742847
1.00077
1.20492
1.32294
1.37479
1.38733
-0.674897
-0.677373
-0.690359
-0.698474
-0.689711
-0.621354
-0.504811
-0.385029
-0.272308
-0.15901
-0.0521697
0.0495558
0.143138
0.304126
0.529294
0.726479
0.882174
0.971012
1.00825
1.01616
-0.711773
-0.726584
-0.75068
-0.76092
-0.734455
-0.631172
-0.489376
-0.361068
-0.250354
-0.147336
-0.0565422
0.0225829
0.0894093
0.192481
0.352824
0.492531
0.599134
0.657751
0.682279
0.684398
-0.607961
-0.62381
-0.645406
-0.653883
-0.623058
-0.529689
-0.415353
-0.308412
-0.215304
-0.131391
-0.0597293
-0.00251271
0.0451136
0.107519
0.212096
0.307698
0.376207
0.413125
0.42613
0.427917
-0.368376
-0.378019
-0.392343
-0.401699
-0.389228
-0.344467
-0.286899
-0.22614
-0.166477
-0.107521
-0.057233
-0.0188359
0.012481
0.0572262
0.119341
0.173803
0.213187
0.233417
0.240918
0.240335
-0.119383
-0.123545
-0.13279
-0.146653
-0.158217
-0.162188
-0.155071
-0.137575
-0.11207
-0.0806882
-0.0527902
-0.0322563
-0.014176
0.0145455
0.0535416
0.0851681
0.103794
0.110853
0.112992
0.112256
0.0452707
0.0430759
0.0352675
0.0179452
-0.00891855
-0.0359604
-0.0553713
-0.0644991
-0.063418
-0.0544603
-0.0458512
-0.0419532
-0.0369122
-0.0176671
0.00495236
0.022114
0.030649
0.0333334
0.0336689
0.0330608
0.121555
0.119947
0.113078
0.0961973
0.0685462
0.0371298
0.00890262
-0.012054
-0.0242224
-0.0298644
-0.0361341
-0.0482548
-0.0550276
-0.0373724
-0.0191013
-0.0103062
-0.00778414
-0.00838213
-0.00895315
-0.00953859
0.143761
0.142517
0.137131
0.123664
0.101113
0.0738941
0.0468443
0.0235224
0.00578765
-0.0076778
-0.0225135
-0.0426894
-0.0556154
-0.0402765
-0.0255706
-0.0205575
-0.0210447
-0.0229811
-0.0238825
-0.0242659
0.141216
0.140331
0.136533
0.12693
0.110534
0.0897391
0.0674944
0.046652
0.0289313
0.0140121
-0.00167724
-0.0220082
-0.0334421
-0.020193
-0.0107747
-0.00907498
-0.0118039
-0.0142503
-0.0151818
-0.0155128
0.129739
0.129187
0.126725
0.120345
0.109149
0.0943598
0.077756
0.0615319
0.0473288
0.035751
0.0254235
0.0132425
0.00886915
0.0193592
0.0233861
0.0207541
0.0153044
0.0117413
0.0105602
0.0102822
0.115975
0.115686
0.114222
0.110243
0.103011
0.09315
0.0817922
0.0706079
0.0614202
0.0561263
0.0556029
0.0572873
0.0630035
0.0721658
0.0680398
0.0607745
0.054242
0.0508874
0.0498474
0.0495136
0.102081
0.102005
0.10125
0.098986
0.0946523
0.0885882
0.0816144
0.0751763
0.0712056
0.07287
0.083956
0.101962
0.123573
0.126516
0.115433
0.104772
0.0982183
0.0960116
0.0951842
0.0946111
0.088661
0.0886564
0.0883738
0.0872907
0.0850336
0.0818016
0.0782494
0.0756424
0.0761413
0.0838439
0.104087
0.134544
0.162981
0.163076
0.149297
0.139687
0.13689
0.136218
0.135617
0.134599
0.0755064
0.0755671
0.0755683
0.0752829
0.0744646
0.0732268
0.0721086
0.0722645
0.0758119
0.0870462
0.111356
0.145271
0.174749
0.173666
0.162037
0.156959
0.156384
0.157776
0.15772
0.156517
0.0625579
0.0626448
0.0628009
0.062992
0.0631071
0.0631644
0.0635873
0.0653404
0.0702572
0.0821654
0.105226
0.135116
0.159283
0.156273
0.150026
0.150398
0.154257
0.157178
0.15692
0.155743
0.0498446
0.0499155
0.0501374
0.0505781
0.0511883
0.0519529
0.0531462
0.055478
0.0603205
0.0703838
0.0879774
0.109198
0.123065
0.120937
0.121417
0.12737
0.134295
0.137861
0.137758
0.136653
0.0374546
0.0375043
0.0377024
0.0381896
0.0389585
0.0399686
0.041353
0.043559
0.0472751
0.0540687
0.0635437
0.0717785
0.0744275
0.0732648
0.0806565
0.0915946
0.100698
0.104711
0.105045
0.104144
0.0254568
0.0254716
0.0256107
0.0260207
0.0267066
0.0276355
0.0288183
0.0303061
0.0327335
0.0359602
0.0372282
0.0319508
0.0198718
0.0185337
0.0345034
0.0511372
0.0613669
0.064707
0.0649017
0.0643191
0.0138348
0.013821
0.0138851
0.0141492
0.0146049
0.0152015
0.0159265
0.0169741
0.0180446
0.0188173
0.015409
0.000143478
-0.0160698
-0.0139359
0.00370187
0.0190809
0.0257482
0.0278237
0.027862
0.027563
0.00280353
0.00278798
0.00278411
0.00277005
0.00281178
0.00298898
0.00318063
0.00333956
0.00352703
0.00366362
0.00303675
-0.0007096
-0.00683605
-0.00666736
-0.00341632
-0.000232406
-0.00249224
-0.00248418
0.000390952
0.00195539
-0.0218558
0.145745
0.341688
0.512659
0.649563
0.757743
0.847394
0.923619
0.958186
0.934889
0.282915
0.40422
0.534782
0.647747
0.743101
0.822124
0.886115
0.931511
0.954239
0.966292
0.503141
0.586413
0.675674
0.7546
0.822529
0.879377
0.924579
0.957593
0.981434
0.999399
0.664817
0.724345
0.786487
0.843893
0.893857
0.936289
0.971134
0.998922
1.02179
1.04008
0.790885
0.834251
0.88044
0.924466
0.963359
0.997326
1.02639
1.05058
1.07101
1.08884
0.895598
0.928624
0.966888
1.00258
1.03533
1.06468
1.09033
1.11188
1.12977
1.14711
0.988392
1.01717
1.05125
1.08347
1.1135
1.14074
1.16454
1.1843
1.19983
1.21691
1.07713
1.10639
1.14046
1.17256
1.20222
1.22884
1.25174
1.27026
1.28365
1.30068
1.17254
1.20578
1.24246
1.27608
1.30615
1.33237
1.35434
1.37164
1.38352
1.40092
1.28759
1.32544
1.36411
1.39838
1.42774
1.4525
1.47289
1.48879
1.50027
1.51834
1.43257
1.47112
1.50728
1.53798
1.56367
1.58578
1.60484
1.62038
1.63281
1.65081
1.60767
1.6393
1.66548
1.68794
1.70792
1.72665
1.74437
1.76086
1.77621
1.79428
1.7963
1.8135
1.82854
1.84478
1.86069
1.87522
1.88843
1.90236
1.9199
1.94006
1.97802
1.98756
1.99911
2.00992
2.0192
2.02879
2.03957
2.05094
2.06231
2.07766
2.18527
2.18893
2.17398
2.15917
2.1529
2.15858
2.17706
2.20737
2.23954
2.2662
2.49158
2.35672
2.28008
2.23771
2.22028
2.22425
2.25165
2.30806
2.41068
2.63505
0.791088
0.788959
0.784475
0.775848
0.76362
0.751486
0.74125
0.733345
0.727714
0.724442
0.724065
0.726782
0.731868
0.739076
0.748453
0.759986
0.772631
0.783662
0.789773
0.792825
0.715548
0.721394
0.727726
0.732215
0.73468
0.73435
0.731606
0.727786
0.724261
0.721983
0.721812
0.723985
0.727628
0.731902
0.735697
0.737572
0.736629
0.733142
0.727977
0.721356
0.707132
0.709428
0.71283
0.715822
0.717892
0.719381
0.720127
0.719799
0.718758
0.717854
0.718002
0.719402
0.721195
0.722483
0.722649
0.721748
0.720191
0.717848
0.714581
0.711658
0.701635
0.702721
0.704552
0.706925
0.708942
0.710362
0.711372
0.712109
0.712493
0.712691
0.713151
0.713927
0.714497
0.714542
0.714112
0.71325
0.71177
0.709678
0.707586
0.706201
0.696451
0.697113
0.698219
0.699918
0.701692
0.703314
0.704597
0.705596
0.706457
0.707218
0.707911
0.708424
0.708584
0.70839
0.707801
0.706729
0.705287
0.703734
0.702409
0.701627
0.691499
0.691959
0.692742
0.694034
0.695512
0.697017
0.698467
0.699745
0.700854
0.701875
0.702746
0.703266
0.70337
0.703062
0.702337
0.701325
0.700181
0.699035
0.698112
0.697593
0.6867
0.687045
0.687653
0.688714
0.689997
0.691356
0.692777
0.694199
0.695541
0.696779
0.697834
0.698467
0.698592
0.698272
0.697638
0.696832
0.695957
0.695073
0.694391
0.694011
0.682001
0.68227
0.68276
0.68366
0.684817
0.686097
0.68747
0.68893
0.690433
0.691902
0.693183
0.693979
0.694214
0.694038
0.693599
0.693001
0.692322
0.69166
0.691157
0.690867
0.677324
0.677537
0.677944
0.678734
0.679809
0.681038
0.682397
0.683898
0.685523
0.687217
0.688767
0.689803
0.690258
0.690306
0.690083
0.689694
0.689211
0.688735
0.688368
0.688141
0.672582
0.672754
0.673102
0.673818
0.674845
0.676049
0.677432
0.679009
0.680779
0.682711
0.684581
0.685948
0.686703
0.687017
0.687028
0.686853
0.686568
0.686256
0.686003
0.685822
0.667692
0.667831
0.668137
0.668808
0.669816
0.671041
0.672484
0.674177
0.676143
0.678365
0.680627
0.682409
0.683525
0.684146
0.684422
0.684472
0.684382
0.684226
0.684067
0.683921
0.662567
0.662679
0.662958
0.663608
0.664632
0.665922
0.66747
0.669335
0.671564
0.674157
0.676904
0.679185
0.680722
0.681697
0.682267
0.682556
0.682663
0.682664
0.682587
0.682469
0.657118
0.657206
0.657468
0.658123
0.6592
0.660599
0.662306
0.664408
0.666979
0.670045
0.673391
0.676268
0.678303
0.679684
0.680584
0.681153
0.681475
0.681618
0.681613
0.681517
0.651242
0.65131
0.651565
0.652247
0.653414
0.654968
0.656897
0.659316
0.662323
0.665986
0.670066
0.673661
0.676287
0.678145
0.679422
0.680299
0.680857
0.681153
0.681216
0.681138
0.64482
0.644868
0.645124
0.645855
0.647153
0.648915
0.651139
0.653961
0.657519
0.661916
0.666892
0.67136
0.674696
0.67712
0.678837
0.680057
0.680886
0.681346
0.681477
0.681414
0.637705
0.637734
0.637994
0.638798
0.64027
0.642307
0.64491
0.648251
0.652504
0.65781
0.663879
0.669398
0.673578
0.676666
0.678905
0.680528
0.681666
0.682303
0.682501
0.682451
0.629718
0.629735
0.629995
0.630896
0.632596
0.634973
0.638063
0.642063
0.647192
0.65363
0.661035
0.667811
0.672991
0.676862
0.679714
0.681823
0.68331
0.68414
0.684407
0.684368
0.620554
0.620539
0.620861
0.621897
0.623881
0.626706
0.630422
0.635256
0.641481
0.649316
0.658345
0.666628
0.672994
0.67779
0.681368
0.684051
0.685938
0.686984
0.687323
0.687292
0.609947
0.609906
0.610271
0.611497
0.613844
0.617246
0.621756
0.627646
0.635245
0.644808
0.655808
0.665891
0.673659
0.679549
0.683985
0.687333
0.689688
0.690973
0.691387
0.691361
0.597424
0.597356
0.597797
0.599269
0.602095
0.606252
0.611793
0.619044
0.628388
0.640089
0.653468
0.66569
0.675096
0.682259
0.687695
0.691813
0.694701
0.696246
0.696734
0.696709
0.582355
0.582258
0.58282
0.584637
0.588101
0.593266
0.600176
0.609214
0.620799
0.635173
0.651413
0.666115
0.677405
0.686026
0.692626
0.69762
0.701102
0.702921
0.703478
0.70345
0.563812
0.563687
0.564443
0.566765
0.571132
0.577701
0.586485
0.597902
0.612358
0.630011
0.649649
0.667237
0.680682
0.690958
0.698871
0.70486
0.708997
0.711091
0.711704
0.711665
0.540414
0.54027
0.541353
0.544459
0.55018
0.558801
0.57024
0.584901
0.603091
0.624795
0.648414
0.669238
0.685057
0.697159
0.706507
0.713619
0.718434
0.720782
0.721426
0.721366
0.509852
0.509727
0.511415
0.515882
0.523875
0.535695
0.55104
0.570163
0.593133
0.619704
0.647869
0.672268
0.690649
0.704719
0.715608
0.723908
0.72937
0.731913
0.732545
0.732454
0.468001
0.468037
0.471063
0.478379
0.49057
0.507611
0.528733
0.553858
0.582782
0.615047
0.648256
0.676464
0.697514
0.713612
0.726128
0.735628
0.741618
0.744224
0.744787
0.744654
0.40716
0.408337
0.415764
0.429433
0.449324
0.474689
0.503959
0.536747
0.572735
0.611366
0.649927
0.682014
0.705728
0.723815
0.737875
0.748411
0.754756
0.757208
0.757596
0.757423
0.334692
0.336425
0.350674
0.374229
0.404927
0.440138
0.478319
0.519305
0.562902
0.608611
0.653468
0.690467
0.717758
0.738521
0.754561
0.766372
0.77306
0.775473
0.775863
0.775788
0.259775
0.265897
0.286972
0.320666
0.361674
0.406454
0.453528
0.502784
0.554108
0.60704
0.658406
0.700513
0.731505
0.755165
0.773442
0.786352
0.793071
0.795199
0.795437
0.795428
0.198517
0.206927
0.232585
0.273274
0.322309
0.375246
0.430339
0.487332
0.54602
0.605901
0.663493
0.710413
0.744823
0.770982
0.790997
0.804868
0.81166
0.813701
0.814213
0.814285
0.14864
0.157644
0.186849
0.232762
0.287903
0.347414
0.409283
0.473108
0.538518
0.604897
0.668368
0.719819
0.757396
0.785877
0.807531
0.822404
0.829725
0.832326
0.832951
0.833057
0.106767
0.11606
0.147728
0.197646
0.257789
0.322762
0.390374
0.460166
0.531611
0.603957
0.672909
0.728595
0.769137
0.799815
0.823154
0.839077
0.847206
0.850175
0.850899
0.851009
0.0705639
0.0799826
0.113517
0.166646
0.230912
0.300542
0.373156
0.448227
0.525118
0.602944
0.676996
0.736627
0.77992
0.812569
0.837317
0.854232
0.863116
0.866362
0.86718
0.867282
0.0383867
0.0478609
0.0828331
0.138671
0.206396
0.280033
0.357069
0.436884
0.518754
0.601664
0.680502
0.743832
0.789642
0.824035
0.849978
0.867678
0.877143
0.880731
0.881601
0.88171
0.0089852
0.01852
0.0546691
0.112843
0.18355
0.260686
0.341648
0.425761
0.512219
0.599903
0.683296
0.750145
0.798293
0.83427
0.861237
0.879547
0.889431
0.893232
0.894157
0.894254
-0.0184824
-0.00888703
0.0283292
0.0884935
0.161854
0.242085
0.326555
0.414572
0.505283
0.597488
0.685281
0.755545
0.80594
0.843387
0.871251
0.88996
0.900029
0.904009
0.904974
0.905046
-0.0445746
-0.0348846
0.00332746
0.0651839
0.140936
0.223921
0.31155
0.403128
0.49779
0.594294
0.686374
0.760028
0.812664
0.851528
0.880125
0.899088
0.909242
0.913288
0.914269
0.914333
-0.0697551
-0.0598709
-0.0208066
0.04268
0.120542
0.20599
0.29647
0.391296
0.489635
0.590228
0.686514
0.763614
0.818566
0.858856
0.88811
0.907271
0.917479
0.921514
0.922459
0.922459
-0.0942465
-0.0841268
-0.044276
0.0207867
0.100516
0.188164
0.281215
0.379007
0.480748
0.585229
0.685664
0.766318
0.823735
0.865512
0.895399
0.914711
0.924923
0.928897
0.929787
0.929774
-0.118137
-0.107791
-0.067083
-0.000646813
0.0807689
0.170394
0.265747
0.366226
0.471104
0.579253
0.683787
0.768154
0.828235
0.871606
0.902147
0.921592
0.931749
0.935594
0.93639
0.936342
-0.141551
-0.130885
-0.0894162
-0.0216724
0.061265
0.152655
0.250064
0.352965
0.460709
0.572297
0.680849
0.769098
0.832102
0.87725
0.908513
0.928037
0.93802
0.941655
0.942317
0.942221
-0.164457
-0.153498
-0.11126
-0.0423097
0.0420085
0.134969
0.234208
0.339268
0.449597
0.564364
0.676823
0.769096
0.835334
0.882542
0.914666
0.934196
0.94382
0.947106
0.947602
0.947464
-0.186892
-0.17561
-0.132557
-0.0625291
0.0230307
0.117378
0.218229
0.325202
0.437831
0.555491
0.671683
0.768077
0.837865
0.887548
0.920816
0.94029
0.949277
0.952005
0.952293
0.952121
-0.208669
-0.197137
-0.153298
-0.08228
0.00438676
0.0999568
0.202199
0.310843
0.425492
0.545744
0.665419
0.765948
0.839591
0.892268
0.927189
0.946694
0.954667
0.956453
0.956413
0.956217
-0.229927
-0.218036
-0.173458
-0.101536
-0.0138863
0.0827511
0.186214
0.296278
0.412672
0.535211
0.658046
0.762607
0.84035
0.896584
0.933923
0.953967
0.96067
0.960818
0.960034
0.959794
-0.250496
-0.238279
-0.193003
-0.120245
-0.0317062
0.0658486
0.170357
0.28163
0.399485
0.523963
0.649608
0.757957
0.839944
0.900233
0.940888
0.962653
0.968622
0.966439
0.96373
0.962631
-0.270435
-0.257905
-0.211875
-0.138354
-0.0490331
0.0493203
0.154716
0.266982
0.386047
0.512141
0.64018
0.751911
0.838155
0.902808
0.947498
0.97264
0.980009
0.97663
0.969932
0.961106
-0.289658
-0.276873
-0.230171
-0.156016
-0.0660766
0.0328858
0.138951
0.251927
0.3719
0.499232
0.629217
0.743885
0.834443
0.903846
0.952908
0.982918
0.994915
0.992622
0.982507
0.976296
-0.308114
-0.295101
-0.247882
-0.173193
-0.082833
0.0165465
0.123079
0.236448
0.357004
0.485122
0.61653
0.733515
0.828073
0.902568
0.955
0.988692
1.00324
1.00568
0.968169
0.915981
-0.32551
-0.311803
-0.264882
-0.189811
-0.0994055