/*--------------------------------*- C++ -*----------------------------------*\
| =========                 |                                                 |
| \\      /  F ield         | OpenFOAM: The Open Source CFD Toolbox           |
|  \\    /   O peration     | Version:  4.0                                   |
|   \\  /    A nd           | Web:      www.OpenFOAM.org                      |
|    \\/     M anipulation  |                                                 |
\*---------------------------------------------------------------------------*/
FoamFile
{
    version     2.0;
    format      ascii;
    class       volScalarField;
    location    "68";
    object      p;
}
// * * * * * * * * * * * * * * * * * * * * * * * * * * * * * * * * * * * * * //

dimensions      [0 2 -2 0 0 0 0];

internalField   nonuniform List<scalar> 
2200
(
0.771497
0.749999
0.734095
0.718433
0.70383
0.691322
0.680983
0.672898
0.667219
0.664305
0.66484
0.668676
0.675047
0.683625
0.69432
0.707104
0.721905
0.737842
0.753889
0.775387
0.703918
0.700661
0.697739
0.693626
0.688172
0.681709
0.675106
0.669176
0.664705
0.662375
0.662882
0.666244
0.671449
0.67793
0.684931
0.691693
0.697358
0.701455
0.704306
0.70767
0.663979
0.664201
0.666266
0.667617
0.668015
0.667173
0.665206
0.662552
0.660039
0.658588
0.659193
0.661699
0.665021
0.668277
0.670627
0.671638
0.671374
0.670373
0.66873
0.668483
0.641471
0.642924
0.645522
0.647979
0.650433
0.652468
0.653643
0.653902
0.653565
0.65332
0.654013
0.655438
0.656682
0.657102
0.65644
0.654784
0.652639
0.650467
0.647866
0.646461
0.627084
0.629057
0.631881
0.634727
0.6376
0.640447
0.64293
0.644823
0.646091
0.646943
0.647746
0.648273
0.64808
0.647017
0.645185
0.64283
0.640291
0.637572
0.634785
0.632862
0.619705
0.621304
0.623514
0.626054
0.628735
0.631423
0.634042
0.636495
0.638564
0.64015
0.641088
0.641184
0.640403
0.638929
0.63707
0.634957
0.632645
0.630308
0.628211
0.626637
0.616228
0.61725
0.618527
0.620406
0.622569
0.624761
0.626992
0.629333
0.631612
0.633529
0.634649
0.634742
0.634036
0.632884
0.631533
0.630007
0.628333
0.626772
0.625665
0.624647
0.613506
0.614175
0.614814
0.61613
0.617766
0.619481
0.621274
0.623255
0.625397
0.627452
0.628808
0.629219
0.628976
0.628416
0.627685
0.626778
0.625752
0.624846
0.624409
0.623731
0.610187
0.610631
0.611036
0.612048
0.613334
0.614752
0.616297
0.61803
0.619973
0.622057
0.623694
0.624591
0.624943
0.624966
0.624743
0.624317
0.623772
0.623266
0.623088
0.622623
0.60605
0.606346
0.606709
0.607593
0.608726
0.610031
0.611514
0.613192
0.615092
0.617249
0.619269
0.620723
0.621614
0.622085
0.622245
0.62217
0.62192
0.621623
0.621508
0.621182
0.601232
0.601433
0.601811
0.602656
0.603775
0.60512
0.606695
0.608511
0.610588
0.612975
0.615429
0.61742
0.618771
0.619598
0.620028
0.620189
0.620126
0.619985
0.619895
0.619654
0.595906
0.59605
0.596428
0.597254
0.598422
0.599893
0.601661
0.603729
0.606136
0.60897
0.611973
0.614488
0.616255
0.61741
0.618092
0.618442
0.618593
0.618601
0.618544
0.618351
0.590148
0.590256
0.590639
0.591475
0.592729
0.594365
0.596378
0.598797
0.601678
0.605101
0.608747
0.611847
0.614071
0.615568
0.616548
0.617158
0.617524
0.617673
0.617661
0.617488
0.583974
0.58404
0.584431
0.585299
0.586657
0.588473
0.590753
0.593562
0.597014
0.601162
0.605635
0.609434
0.61219
0.614142
0.615517
0.616447
0.617063
0.617364
0.617394
0.617227
0.577213
0.57725
0.577675
0.578595
0.580115
0.582161
0.584767
0.588056
0.592196
0.59725
0.602656
0.607261
0.610712
0.61323
0.615081
0.616394
0.617278
0.617739
0.617817
0.61765
0.569841
0.569799
0.570237
0.571268
0.573009
0.57533
0.578317
0.582156
0.587054
0.593124
0.59969
0.605349
0.609653
0.6129
0.615335
0.617091
0.618283
0.61891
0.619038
0.618864
0.561536
0.561537
0.561969
0.563078
0.565067
0.567704
0.571163
0.575672
0.581492
0.588788
0.596746
0.603689
0.609046
0.613164
0.616268
0.618558
0.620102
0.620908
0.621093
0.620907
0.552097
0.552114
0.552572
0.55384
0.556128
0.559211
0.563311
0.568676
0.575631
0.584444
0.594039
0.602481
0.609098
0.614173
0.618055
0.620914
0.62286
0.623859
0.624095
0.623889
0.541154
0.541127
0.541702
0.543194
0.545829
0.549487
0.554404
0.56085
0.5692
0.579772
0.59148
0.601714
0.609719
0.615919
0.620662
0.624218
0.626617
0.627803
0.628086
0.627854
0.528085
0.528013
0.5287
0.530575
0.533804
0.53827
0.544274
0.552153
0.562338
0.575114
0.589128
0.60142
0.611049
0.618522
0.624271
0.628555
0.631435
0.632818
0.633132
0.632872
0.512706
0.512598
0.513371
0.515593
0.519564
0.525127
0.532584
0.54233
0.55485
0.570397
0.587113
0.601732
0.613116
0.621998
0.628836
0.633983
0.637384
0.638933
0.639258
0.638963
0.493963
0.49389
0.494913
0.497691
0.502622
0.509616
0.519045
0.531315
0.546835
0.565678
0.585553
0.602666
0.615994
0.62639
0.63445
0.640499
0.64439
0.646102
0.646408
0.646083
0.47078
0.470627
0.47196
0.47561
0.482092
0.49128
0.503479
0.519072
0.538286
0.560988
0.584469
0.604412
0.619864
0.631831
0.64113
0.648074
0.652424
0.65423
0.654472
0.654124
0.441025
0.441053
0.443163
0.448247
0.45705
0.469408
0.485465
0.505341
0.529031
0.556267
0.583758
0.606746
0.624386
0.638102
0.64875
0.656582
0.661276
0.663123
0.663265
0.6629
0.401731
0.401984
0.40555
0.413576
0.426401
0.443698
0.465073
0.490411
0.519512
0.551921
0.5838
0.609956
0.629913
0.645334
0.657242
0.665831
0.670717
0.672467
0.672487
0.672128
0.349413
0.349871
0.356979
0.370336
0.389755
0.414371
0.442823
0.474844
0.510176
0.548254
0.584679
0.61411
0.63631
0.653415
0.666533
0.675633
0.680323
0.681669
0.681543
0.681251
0.281039
0.283792
0.29907
0.320837
0.349218
0.382757
0.419422
0.458905
0.501085
0.545488
0.587028
0.620099
0.645052
0.664211
0.678557
0.688092
0.692414
0.693177
0.693075
0.692863
0.203184
0.212948
0.238499
0.269999
0.308591
0.351331
0.396248
0.443488
0.492984
0.544074
0.591195
0.628512
0.656574
0.677744
0.693515
0.703197
0.706967
0.707185
0.707204
0.707075
0.13389
0.148554
0.180611
0.221234
0.269547
0.321174
0.374224
0.429237
0.485957
0.543613
0.596195
0.637559
0.668181
0.691293
0.70797
0.717517
0.720911
0.720871
0.721013
0.720952
0.0811027
0.0946829
0.131455
0.178162
0.23397
0.293283
0.353807
0.416051
0.479634
0.543795
0.601747
0.646816
0.679968
0.704706
0.7223
0.732198
0.73509
0.735334
0.735526
0.735521
0.0373967
0.050183
0.0909698
0.141679
0.202964
0.268236
0.335192
0.403987
0.47396
0.544111
0.607001
0.655674
0.691545
0.718039
0.736815
0.747094
0.750545
0.75116
0.751245
0.751293
0.000429146
0.0132629
0.0566938
0.110306
0.175952
0.246097
0.318577
0.393068
0.46867
0.544216
0.611979
0.664387
0.702674
0.730839
0.750913
0.76197
0.765681
0.766263
0.76629
0.766355
-0.0319314
-0.0188437
0.026767
0.0829868
0.152302
0.226482
0.303603
0.382952
0.463617
0.544477
0.617166
0.672908
0.713328
0.743177
0.764458
0.775746
0.779819
0.780454
0.780514
0.780562
-0.0604134
-0.0474506
-0.000107623
0.0585465
0.131047
0.208699
0.289857
0.373551
0.459016
0.545041
0.622118
0.68079
0.723398
0.754473
0.776622
0.78847
0.79275
0.793493
0.793539
0.793573
-0.0864336
-0.0734291
-0.0247983
0.0362178
0.111552
0.192291
0.277059
0.364745
0.454629
0.545139
0.626122
0.687838
0.732525
0.764875
0.787408
0.799712
0.804343
0.805169
0.805224
0.80524
-0.110347
-0.0972712
-0.0478224
0.0154208
0.0932585
0.176798
0.26485
0.356091
0.449794
0.544323
0.629446
0.694286
0.740765
0.774034
0.796949
0.809823
0.814544
0.815488
0.815541
0.815536
-0.132926
-0.119498
-0.069429
-0.00419794
0.0758334
0.161914
0.252858
0.347155
0.444299
0.5429
0.632243
0.700023
0.748173
0.782624
0.805699
0.818739
0.823574
0.82457
0.824612
0.824585
-0.15419
-0.140522
-0.0898389
-0.0228962
0.0589916
0.147297
0.240761
0.337813
0.438236
0.540755
0.634082
0.705109
0.755266
0.790545
0.813822
0.826753
0.831534
0.832542
0.832552
0.832501
-0.174297
-0.160651
-0.109242
-0.0408847
0.0425474
0.132799
0.228519
0.328125
0.431594
0.537758
0.635132
0.709629
0.76201
0.798382
0.821621
0.833892
0.838603
0.839446
0.839497
0.839406
-0.193597
-0.179771
-0.127833
-0.0583229
0.0264169
0.118375
0.216125
0.318096
0.42438
0.533962
0.635362
0.713537
0.768662
0.806129
0.829157
0.840836
0.844849
0.845551
0.845468
0.845382
-0.212512
-0.198146
-0.145783
-0.0752935
0.0105808
0.104054
0.203636
0.307747
0.41656
0.529302
0.63471
0.716919
0.775182
0.8144
0.837147
0.847576
0.850562
0.850791
0.850777
0.85083
-0.230989
-0.215903
-0.163197
-0.0918191
-0.00493224
0.0898685
0.191042
0.297027
0.408104
0.523786
0.633098
0.719621
0.781673
0.823226
0.846084
0.855145
0.856025
0.85559
0.855273
0.855106
-0.249043
-0.23326
-0.180136
-0.107897
-0.0201111
0.0758305
0.178357
0.285959
0.399066
0.517436
0.630446
0.721494
0.787877
0.832892
0.85697
0.864179
0.862508
0.860855
0.860734
0.861793
-0.266464
-0.250164
-0.196591
-0.123526
-0.0349426
0.0619586
0.165598
0.274584
0.38952
0.510288
0.626648
0.722271
0.793702
0.843204
0.870069
0.876719
0.872153
0.865182
0.860502
0.859697
-0.283309
-0.266615
-0.212538
-0.138696
-0.0494214
0.0482746
0.152833
0.263011
0.379565
0.502432
0.621693
0.721735
0.798458
0.853926
0.885655
0.893682
0.888722
0.878399
0.878891
0.883059
-0.299499
-0.28247
-0.227913
-0.153387
-0.0635157
0.0348385
0.140146
0.25133
0.369275
0.49391
0.615573
0.719594
0.801908
0.864051
0.902646
0.915403
0.909557
0.880374
0.843253
0.811121
-0.315046
-0.297775
-0.242755
-0.167657
-0.0773168
0.0215426
0.127425
0.239398
0.358434
0.484497
0.608121
0.715455
0.80285
0.872682
0.920502
0.941037
0.948466
0.921692
0.939313
1.00181
-0.329872
-0.312501
-0.257126
-0.181646
-0.0909919
0.00818637
0.11441
0.226862
0.34658
0.473623
0.598705
0.708434
0.800273
0.876825
0.930991
0.956459
0.955592
0.926164
0.88138
0.899048
-0.343986
-0.32668
-0.270997
-0.195283
-0.104452
-0.00513274
0.101215
0.213845
0.333828
0.461348
0.587247
0.698263
0.791901
0.871832
0.927735
0.953905
0.931926
0.871752
0.805195
0.792015
-0.357349
-0.340244
-0.284344
-0.208569
-0.117694
-0.0184078
0.087845
0.200353
0.320192
0.44763
0.573589
0.684539
0.777371
0.854014
0.904972
0.904848
0.864127
0.78208
0.705012
0.678903
-0.370021
-0.353248
-0.297202
-0.221516
-0.130738
-0.0316642
0.0742882
0.186404
0.305718
0.432508
0.557642
0.666973
0.755119
0.820419
0.84667
0.828548
0.762924
0.657702
0.568009
0.543344
-0.382419
-0.366019
-0.309926
-0.234489
-0.143936
-0.0452087
0.0602791
0.171773
0.290224
0.415782
0.539118
0.644922
0.725925
0.774858
0.767519
0.728471
0.61076
0.484737
0.37491
0.345496
-0.395406
-0.379411
-0.323232
-0.248082
-0.157832
-0.0595141
0.045419
0.156141
0.273463
0.397279
0.51782
0.617964
0.691715
0.715
0.680316
0.586986
0.426985
0.271303
0.139458
0.109855
-0.409472
-0.393684
-0.337365
-0.262534
-0.172609
-0.0746973
0.0296345
0.139464
0.255425
0.376992
0.493636
0.586971
0.649949
0.643844
0.590599
0.436228
0.233814
0.0191164
-0.16249
-0.212788
-0.424758
-0.40909
-0.352465
-0.277851
-0.18823
-0.0907327
0.0129516
0.121782
0.236169
0.355025
0.466579
0.553389
0.601062
0.563074
0.473831
0.283313
0.0509479
-0.238814
-0.559903
-0.70981
-0.441315
-0.425544
-0.368562
-0.294152
-0.204781
-0.107681
-0.00469226
0.103026
0.21564
0.331381
0.436877
0.516949
0.546237
0.477782
0.338688
0.1321
-0.101889
-0.445751
-1.0304
-1.60099
-0.459258
-0.443346
-0.385834
-0.311468
-0.222259
-0.125542
-0.0232726
0.0832736
0.194
0.306448
0.405699
0.477578
0.487333
0.402734
0.208976
-0.0248948
-0.227374
-0.461363
-1.01243
-2.51291
-0.478584
-0.462331
-0.404263
-0.329967
-0.240861
-0.144516
-0.0430256
0.0622447
0.170913
0.27985
0.372875
0.434866
0.423393
0.343661
0.115387
-0.122084
-0.270143
-0.307555
-0.296483
-0.680531
-0.499249
-0.482936
-0.424167
-0.349894
-0.260939
-0.165099
-0.0645766
0.0391749
0.145447
0.250289
0.337455
0.38858
0.360735
0.292788
0.0656598
-0.13631
-0.247253
-0.25562
-0.202898
-0.242893
-0.521121
-0.504696
-0.445373
-0.371381
-0.282652
-0.18744
-0.0880982
0.0138766
0.11738
0.21757
0.29955
0.340372
0.305774
0.238089
0.0331349
-0.126903
-0.209485
-0.21777
-0.2655
-0.269545
-0.544161
-0.527902
-0.467999
-0.394347
-0.30591
-0.211545
-0.113633
-0.0137135
0.0866953
0.182064
0.258974
0.289991
0.257916
0.176362
0.00475111
-0.117758
-0.188278
-0.165335
-0.18579
-0.187448
-0.568075
-0.551556
-0.491681
-0.418792
-0.330685
-0.237383
-0.141134
-0.0434935
0.0535107
0.144135
0.216093
0.236219
0.216507
0.108348
-0.0307548
-0.113163
-0.152314
-0.200557
-0.174686
-0.183351
-0.592823
-0.575904
-0.516504
-0.444424
-0.35661
-0.264752
-0.17039
-0.0752545
0.0179946
0.104176
0.17181
0.181363
0.173218
0.0471841
-0.0678805
-0.131528
-0.109199
-0.168875
-0.149472
-0.154499
-0.617198
-0.600066
-0.542132
-0.471002
-0.383532
-0.293503
-0.20118
-0.108672
-0.019639
0.0625192
0.127287
0.129186
0.121085
-0.00381925
-0.0946439
-0.146012
-0.133572
-0.149174
-0.154405
-0.152677
-0.641021
-0.624011
-0.568077
-0.497713
-0.410907
-0.323178
-0.23302
-0.143336
-0.0588515
0.0195926
0.0828503
0.081054
0.0637889
-0.0464742
-0.108416
-0.13996
-0.178264
-0.149767
-0.155447
-0.149839
-0.663057
-0.646779
-0.592888
-0.523768
-0.438672
-0.353393
-0.265525
-0.178752
-0.0988537
-0.0244154
0.0384147
0.0374102
0.0078948
-0.0808955
-0.120942
-0.114578
-0.187184
-0.129908
-0.145003
-0.137138
-0.682864
-0.667713
-0.615922
-0.548092
-0.466087
-0.383182
-0.297863
-0.214271
-0.138653
-0.0688731
-0.00654106
-0.00289264
-0.0368736
-0.100049
-0.129007
-0.0883433
-0.134193
-0.11615
-0.122241
-0.118976
-0.698658
-0.685119
-0.63599
-0.570364
-0.492338
-0.411836
-0.32949
-0.249263
-0.177331
-0.113115
-0.0517716
-0.0407284
-0.0684296
-0.101289
-0.117244
-0.0944156
-0.108147
-0.112164
-0.113403
-0.11358
-0.709771
-0.698379
-0.652636
-0.589614
-0.515521
-0.438143
-0.359192
-0.282668
-0.214065
-0.155847
-0.0961066
-0.0758105
-0.089939
-0.0968987
-0.108256
-0.118834
-0.111501
-0.115218
-0.113462
-0.1146
-0.714679
-0.705681
-0.664116
-0.604702
-0.534799
-0.461258
-0.386255
-0.313638
-0.248118
-0.195489
-0.136807
-0.109817
-0.11822
-0.0954142
-0.107615
-0.141193
-0.119264
-0.12472
-0.117984
-0.119006
-0.713546
-0.706658
-0.669494
-0.614069
-0.548557
-0.479552
-0.409079
-0.340726
-0.278733
-0.230161
-0.173077
-0.141829
-0.140357
-0.100755
-0.101536
-0.130259
-0.109178
-0.126752
-0.123788
-0.125843
-0.705391
-0.698114
-0.666015
-0.616363
-0.55634
-0.492418
-0.426808
-0.362698
-0.304168
-0.258187
-0.203602
-0.170079
-0.155361
-0.112867
-0.0560465
-0.0453049
-0.057748
-0.0670188
-0.0706739
-0.0743568
-0.684495
-0.676159
-0.652327
-0.610238
-0.556605
-0.498356
-0.438258
-0.378203
-0.322414
-0.277819
-0.226396
-0.188943
-0.170995
-0.173748
-0.186099
-0.23124
-0.243299
-0.235516
-0.224917
-0.215845
-0.641672
-0.633848
-0.62552
-0.595674
-0.550375
-0.498395
-0.443224
-0.386207
-0.33145
-0.286241
-0.236711
-0.193366
-0.238979
-0.339198
-0.541862
-0.713061
-0.726533
-0.707491
-0.645498
-0.587698
-0.601178
-0.59844
-0.597093
-0.574186
-0.537912
-0.492897
-0.442326
-0.387261
-0.330614
-0.281147
-0.232165
-0.164983
-0.187014
-0.274505
-0.391721
-0.424203
-0.368295
-0.299608
-0.258387
-0.235878
-0.578183
-0.579982
-0.569731
-0.556251
-0.527625
-0.48659
-0.437131
-0.381939
-0.320267
-0.259453
-0.202294
-0.0913269
0.0416145
0.238477
0.428172
0.615359
0.753234
0.833518
0.876663
0.914161
-0.547003
-0.546646
-0.543668
-0.542454
-0.518381
-0.480836
-0.432052
-0.374783
-0.307119
-0.230052
-0.150908
-0.0180293
0.189935
0.502824
0.803298
1.05489
1.23125
1.33372
1.38239
1.39808
-0.535088
-0.533203
-0.536175
-0.528631
-0.511967
-0.47728
-0.427158
-0.366568
-0.294806
-0.205783
-0.108055
0.0181068
0.250315
0.568021
0.876193
1.13474
1.32553
1.4367
1.48632
1.50251
-0.522254
-0.520596
-0.523823
-0.515634
-0.511075
-0.477131
-0.425745
-0.361786
-0.285967
-0.190464
-0.084573
0.020639
0.239561
0.51786
0.790581
1.02623
1.21036
1.32161
1.37117
1.3848
-0.512218
-0.512202
-0.511833
-0.511092
-0.50879
-0.47574
-0.425545
-0.361385
-0.283781
-0.187547
-0.0832687
-0.000616593
0.184403
0.420762
0.646212
0.840644
0.997425
1.09321
1.13478
1.14496
-0.506902
-0.508051
-0.506775
-0.511749
-0.506793
-0.477727
-0.428608
-0.364457
-0.287885
-0.196097
-0.0968783
-0.0313644
0.115282
0.313846
0.494772
0.645186
0.765935
0.840712
0.872349
0.880081
-0.49641
-0.497054
-0.494515
-0.497614
-0.491212
-0.476105
-0.434078
-0.370528
-0.295936
-0.210618
-0.116874
-0.0618792
0.0477156
0.210919
0.353227
0.466385
0.55578
0.612207
0.636041
0.641188
-0.491562
-0.489314
-0.484167
-0.479457
-0.474034
-0.473261
-0.436687
-0.375352
-0.303343
-0.225833
-0.137844
-0.0887803
-0.0115622
0.119738
0.230734
0.315656
0.381407
0.42356
0.439649
0.443906
-0.513127
-0.509591
-0.505532
-0.502014
-0.502365
-0.497638
-0.444609
-0.379103
-0.307151
-0.237325
-0.156063
-0.110717
-0.0591613
0.0450505
0.130838
0.194325
0.242965
0.274298
0.28591
0.290064
-0.561753
-0.562514
-0.566493
-0.575011
-0.57161
-0.54101
-0.46112
-0.383311
-0.306779
-0.242658
-0.169483
-0.126828
-0.0928027
-0.0108151
0.0541327
0.101257
0.138347
0.162314
0.171682
0.174114
-0.58703
-0.592447
-0.6067
-0.618536
-0.614253
-0.561079
-0.467227
-0.380649
-0.299296
-0.239974
-0.176196
-0.136715
-0.11243
-0.048314
-0.000628642
0.0336884
0.0613387
0.0780343
0.0852766
0.0871613
-0.522227
-0.527147
-0.545938
-0.557133
-0.555446
-0.509439
-0.43234
-0.355425
-0.281696
-0.226724
-0.174709
-0.140419
-0.119617
-0.0711369
-0.0369267
-0.0122408
0.00623313
0.0166478
0.0206452
0.0211195
-0.366839
-0.37404
-0.384125
-0.392701
-0.393114
-0.372433
-0.335568
-0.29276
-0.243668
-0.201133
-0.163838
-0.137054
-0.11784
-0.083071
-0.0593386
-0.0433227
-0.0326004
-0.0273367
-0.0260904
-0.026754
-0.198359
-0.201642
-0.207245
-0.215995
-0.222926
-0.223315
-0.217875
-0.206935
-0.18662
-0.164963
-0.143562
-0.125997
-0.110346
-0.0875398
-0.0725504
-0.063309
-0.0582253
-0.0567606
-0.0575613
-0.0587952
-0.0651207
-0.0668851
-0.0709532
-0.0791461
-0.0910946
-0.10427
-0.116956
-0.12631
-0.127295
-0.124779
-0.116746
-0.108453
-0.0993164
-0.0862567
-0.0781365
-0.0743101
-0.0732908
-0.0742242
-0.0759653
-0.0773858
0.0192435
0.0180454
0.0152048
0.00707792
-0.00808695
-0.0276692
-0.0475937
-0.065498
-0.0774255
-0.0870643
-0.087849
-0.0869284
-0.0854445
-0.0789789
-0.077022
-0.0775187
-0.0791769
-0.0815554
-0.0835759
-0.0849684
0.0600614
0.0593562
0.0572676
0.0499401
0.0347745
0.0139776
-0.00770464
-0.0278952
-0.0431191
-0.0569674
-0.062018
-0.0654547
-0.0696409
-0.0681152
-0.0710423
-0.074629
-0.0780259
-0.0810497
-0.0830374
-0.0842999
0.0739448
0.0733929
0.0717236
0.0656728
0.0526911
0.0340414
0.0134439
-0.006669
-0.0224649
-0.0366846
-0.0426747
-0.0478866
-0.0541489
-0.0572229
-0.0626278
-0.0676644
-0.0718772
-0.0750949
-0.076918
-0.0780058
0.0728734
0.0724768
0.071182
0.0665449
0.0564808
0.0415314
0.0239262
0.0054085
-0.00990998
-0.0238713
-0.029781
-0.0352023
-0.0416789
-0.0471226
-0.0535194
-0.0588193
-0.0630241
-0.0660568
-0.0675727
-0.0684799
0.0649519
0.0646887
0.063724
0.0603178
0.0529074
0.0416952
0.0279052
0.012317
-0.00134428
-0.0149251
-0.0210959
-0.0260917
-0.0320147
-0.0378583
-0.0441978
-0.0492195
-0.053066
-0.0557046
-0.0568411
-0.0575742
0.0546019
0.0544518
0.0537646
0.0513666
0.0460842
0.0379292
0.0276711
0.0155266
0.00463519
-0.00779809
-0.014262
-0.0189719
-0.0241288
-0.0293188
-0.0350254
-0.0394956
-0.0428834
-0.0451551
-0.0460269
-0.0466144
0.0438926
0.0438222
0.0433441
0.0417388
0.0380845
0.0322975
0.0248526
0.0156861
0.00774889
-0.00258301
-0.00835752
-0.0125639
-0.0171838
-0.0217016
-0.0266081
-0.0303892
-0.0332433
-0.0351392
-0.0357799
-0.0362434
0.0338785
0.0338484
0.0335227
0.0324821
0.0300118
0.0260229
0.0207317
0.0139123
0.00839046
0.00045003
-0.00386663
-0.00725554
-0.0111645
-0.0150253
-0.0192221
-0.0223639
-0.0246603
-0.0261574
-0.0266674
-0.027054
0.0248727
0.0248778
0.0246537
0.024017
0.0223983
0.0197428
0.0161341
0.0111701
0.00753318
0.00166754
-0.00115331
-0.00361262
-0.00664463
-0.00971501
-0.0131076
-0.0155322
-0.0172765
-0.0184067
-0.0187625
-0.0190691
0.0168001
0.0168082
0.0166668
0.0163218
0.0153141
0.0136323
0.0113678
0.00789543
0.00572876
0.00160809
3.36458e-05
-0.00146834
-0.00357377
-0.00571519
-0.00824189
-0.0099437
-0.0111091
-0.0117984
-0.0120231
-0.0123154
0.00946033
0.00946684
0.00942757
0.00931298
0.00880896
0.00790391
0.00677536
0.00458945
0.0035927
0.000918932
0.000197996
-0.000590157
-0.0017568
-0.00290012
-0.00462749
-0.0055821
-0.00617486
-0.00649399
-0.00648444
-0.00670452
0.00303156
0.00303951
0.00306458
0.00311721
0.00304031
0.00276653
0.00252436
0.00151366
0.00139895
0.000190135
0.000117383
6.57663e-06
-0.000639767
-0.000863725
-0.0019324
-0.0024798
-0.00301574
-0.0033941
-0.00314775
-0.00313548
-1.07669
-0.241543
0.0283124
0.302683
0.481597
0.634349
0.755789
0.879925
1.01832
1.10354
-0.101384
0.302925
0.317121
0.503882
0.624767
0.7332
0.826075
0.909183
0.935885
0.894694
0.270933
0.482936
0.515777
0.651164
0.734808
0.812743
0.877087
0.925486
0.92719
0.94176
0.497265
0.638197
0.67247
0.77232
0.828604
0.884747
0.928854
0.960819
0.969701
0.993555
0.672705
0.772482
0.802119
0.868126
0.912398
0.95243
0.98413
1.00824
1.01788
1.0496
0.814256
0.882112
0.912219
0.954302
0.990004
1.0197
1.04372
1.06444
1.07843
1.10682
0.932298
0.982331
1.00769
1.03529
1.06262
1.08618
1.106
1.12523
1.14004
1.16662
1.03538
1.07211
1.09303
1.11349
1.13409
1.15336
1.17071
1.18881
1.20367
1.22735
1.12895
1.15793
1.17417
1.18934
1.20536
1.22137
1.2369
1.25379
1.26741
1.28974
1.21699
1.23739
1.25219
1.26531
1.27885
1.2926
1.30609
1.32068
1.33222
1.35186
1.30233
1.31809
1.33189
1.34369
1.35559
1.36723
1.37836
1.39003
1.39771
1.4145
1.38752
1.40006
1.41376
1.4255
1.43614
1.44593
1.45475
1.46301
1.46657
1.4778
1.47625
1.48708
1.50056
1.51007
1.51764
1.52493
1.53211
1.53857
1.53968
1.54703
1.57466
1.57927
1.58746
1.59219
1.59558
1.60006
1.60605
1.6137
1.61761
1.62748
1.68794
1.67482
1.66754
1.66183
1.6591
1.66044
1.66675
1.67912
1.69395
1.72362
1.8099
1.75386
1.72284
1.70565
1.69743
1.69735
1.70622
1.72585
1.75762
1.8269
)
;

boundaryField
{
    wall-4
    {
        type            zeroGradient;
    }
    pressure-outlet-7
    {
        type            fixedValue;
        value           uniform 0;
    }
    velocity-inlet-6
    {
        type            zeroGradient;
    }
    velocity-inlet-5
    {
        type            zeroGradient;
    }
    frontAndBackPlanes
    {
        type            empty;
    }
}


// ************************************************************************* //
