/*--------------------------------*- C++ -*----------------------------------*\
| =========                 |                                                 |
| \\      /  F ield         | OpenFOAM: The Open Source CFD Toolbox           |
|  \\    /   O peration     | Version:  4.0                                   |
|   \\  /    A nd           | Web:      www.OpenFOAM.org                      |
|    \\/     M anipulation  |                                                 |
\*---------------------------------------------------------------------------*/
FoamFile
{
    version     2.0;
    format      ascii;
    class       surfaceScalarField;
    location    "68";
    object      phi;
}
// * * * * * * * * * * * * * * * * * * * * * * * * * * * * * * * * * * * * * //

dimensions      [0 3 -1 0 0 0 0];

internalField   nonuniform List<scalar> 
4262
(
0.107135
0.470853
0.0955715
0.705149
0.0693882
0.858486
0.0473763
1.02078
0.0309955
1.2149
0.0197794
1.44944
0.0123601
1.73328
0.00715412
2.07624
0.00321962
2.48918
-0.000568079
2.98608
-0.00428137
2.98601
-0.00805949
2.48902
-0.0130501
2.07603
-0.0201847
1.733
-0.0311072
1.44914
-0.0471583
1.21457
-0.0689059
1.02051
-0.0951807
0.858578
-0.10706
0.705465
0.470928
0.112857
0.357996
0.13525
0.682756
0.120343
0.873393
0.0977903
1.04333
0.0745371
1.23815
0.0528051
1.47117
0.0344131
1.75167
0.0201947
2.09046
0.008903
2.50047
-0.000998852
2.99598
-0.0110984
2.99611
-0.0223753
2.5003
-0.0364967
2.09015
-0.054809
1.75131
-0.076658
1.47099
-0.100399
1.23831
-0.123562
1.04367
-0.137051
0.872067
-0.113578
0.681993
0.35735
0.0920372
0.265959
0.124953
0.64984
0.121068
0.877278
0.104765
1.05963
0.0860994
1.25682
0.0669569
1.49031
0.0479611
1.77067
0.029855
2.10857
0.0132025
2.51712
-0.00286861
3.01205
-0.0185562
3.01179
-0.0343963
2.51614
-0.0518537
2.10761
-0.0702585
1.76972
-0.0885489
1.48928
-0.105719
1.25548
-0.119818
1.05777
-0.125238
0.877487
-0.0923628
0.649118
0.264987
0.063971
0.201988
0.104775
0.609036
0.106538
0.875515
0.0951474
1.07102
0.0811984
1.27077
0.0664318
1.50508
0.0503089
1.78679
0.033163
2.12571
0.0155325
2.53475
-0.003118
3.0307
-0.0215906
3.03027
-0.0390177
2.53357
-0.0555196
2.12411
-0.07075
1.78495
-0.0845713
1.5031
-0.0982855
1.26919
-0.110044
1.06953
-0.107038
0.87448
-0.0649012
0.606981
0.200086
0.0374619
0.164526
0.0806647
0.565833
0.0908999
0.86528
0.0836578
1.07826
0.0710132
1.28341
0.0591325
1.51696
0.0460557
1.79987
0.0309981
2.14077
0.0139014
2.55185
-0.00530848
3.04991
-0.0240075
3.04896
-0.0398414
2.5494
-0.0536514
2.13792
-0.0657352
1.79703
-0.0769779
1.51435
-0.0889073
1.28112
-0.0952299
1.07585
-0.0833574
0.862608
-0.0384545
0.562079
0.161631
0.0194387
0.145088
0.0571294
0.528143
0.072494
0.849916
0.0703808
1.08038
0.0615725
1.29222
0.0506897
1.52784
0.0395381
1.81102
0.026959
2.15335
0.0119912
2.56682
-0.00569828
3.0676
-0.0231203
3.06639
-0.037574
2.56385
-0.0491658
2.14951
-0.0590581
1.80692
-0.0688526
1.52414
-0.0764635
1.28873
-0.0772643
1.07665
-0.0601007
0.845444
-0.0204143
0.522392
0.141217
0.0106004
0.134487
0.0422729
0.49647
0.0583298
0.833859
0.0585563
1.08015
0.0523538
1.29842
0.0429256
1.53727
0.0324554
1.82149
0.0209236
2.16488
0.00741154
2.58033
-0.00857606
3.08359
-0.0238527
3.08166
-0.0355437
2.57554
-0.0452126
2.15918
-0.0541159
1.81583
-0.0620316
1.53206
-0.0665533
1.29326
-0.0645297
1.07463
-0.0460408
0.826955
-0.0117415
0.488093
0.129475
0.00653884
0.127948
0.0328416
0.470167
0.0490355
0.817665
0.0504859
1.0787
0.045356
1.30355
0.0369422
1.54568
0.027281
1.83115
0.0164928
2.17567
0.00457153
2.59225
-0.00935867
3.09752
-0.0230235
3.09533
-0.034023
2.58654
-0.0432319
2.16839
-0.0508119
1.82341
-0.0572666
1.53851
-0.0604055
1.29639
-0.0567004
1.07093
-0.0374432
0.807698
-0.00793842
0.458588
0.121537
0.00467715
0.123271
0.0264354
0.448409
0.0421648
0.801935
0.0442073
1.07666
0.0394722
1.30829
0.0317034
1.55345
0.0224376
1.84042
0.0116849
2.18642
-0.000201492
2.60414
-0.0133336
3.11065
-0.0250412
3.10704
-0.034446
2.59595
-0.0425831
2.17652
-0.0495064
1.83033
-0.0549171
1.54392
-0.0570965
1.29857
-0.0519626
1.06579
-0.0321675
0.787903
-0.00641215
0.432833
0.115125
0.00370163
0.11957
0.0215323
0.430578
0.0365508
0.786917
0.0392252
1.07398
0.0348385
1.31267
0.0274602
1.56083
0.0186343
1.84925
0.00857559
2.19648
-0.00267083
2.61538
-0.0149167
3.1229
-0.026615
3.11873
-0.036255
2.60559
-0.0436917
2.18396
-0.0495037
1.83614
-0.054055
1.54847
-0.0551791
1.2997
-0.0486864
1.0593
-0.0285408
0.767757
-0.00583776
0.41013
0.109287
0.00300063
0.116569
0.0173832
0.416196
0.0311909
0.773109
0.0340214
1.07115
0.0297248
1.31697
0.0224191
1.56814
0.013666
1.858
0.00346428
2.20668
-0.00805929
2.62691
-0.0203253
3.13516
-0.0309533
3.12936
-0.0388033
2.61344
-0.0452589
2.19042
-0.0505058
1.84139
-0.0542104
1.55218
-0.0541994
1.29969
-0.0462251
1.05133
-0.0258925
0.747425
-0.00560109
0.389838
0.103686
0.00232104
0.114248
0.0136472
0.40487
0.0260843
0.760672
0.0290954
1.06814
0.0250639
1.321
0.0179929
1.57521
0.00951468
1.86648
-0.00013933
2.21634
-0.0110262
2.63779
-0.023118
3.14726
-0.0340213
3.14026
-0.042311
2.62173
-0.0480417
2.19615
-0.0521285
1.84547
-0.0546934
1.55474
-0.0539631
1.29896
-0.0445478
1.04191
-0.0240362
0.726913
-0.00547864
0.371281
0.0982071
0.00163555
0.112612
0.0103257
0.39618
0.0209578
0.75004
0.0234049
1.06569
0.0191004
1.32531
0.0118021
1.5825
0.00295307
1.87533
-0.00726572
2.22656
-0.0185817
2.64911
-0.0302346
3.15891
-0.0397851
3.14982
-0.0462075
2.62815
-0.0509406
2.20088
-0.0546052
1.84914
-0.0563088
1.55645
-0.0545731
1.29722
-0.0437901
1.03113
-0.0229095
0.706033
-0.00544162
0.353813
0.0927655
0.000757924
0.111854
0.00685755
0.39008
0.0157813
0.741116
0.0178004
1.06368
0.0132848
1.32982
0.00583105
1.58996
-0.00295862
1.88412
-0.012624
2.23622
-0.0232365
2.65972
-0.0351551
3.17083
-0.045224
3.15988
-0.0516752
2.6346
-0.0554235
2.20463
-0.0579732
1.85169
-0.0586338
1.55711
-0.0558403
1.29443
-0.0436146
1.0189
-0.0222625
0.684681
-0.00542698
0.336977
0.0873385
0.000113921
0.11174
0.00404095
0.386153
0.0107023
0.734455
0.0116659
1.06271
0.00663739
1.33485
-0.00131316
1.59791
-0.0109718
1.89377
-0.0219866
2.24724
-0.0339679
2.6717
-0.0452775
3.18214
-0.0533157
3.16792
-0.0580973
2.63938
-0.0611547
2.20769
-0.0630948
1.85363
-0.0627752
1.55679
-0.0583565
1.29001
-0.0443565
1.0049
-0.0221913
0.662515
-0.00551696
0.320303
0.0818215
-0.000888854
0.112629
0.000315842
0.384948
0.00476072
0.73001
0.00460984
1.06286
-0.00117037
1.34063
-0.00995807
1.6067
-0.0200991
1.90391
-0.0307758
2.25791
-0.04155
2.68248
-0.0525085
3.1931
-0.0614259
3.17684
-0.0661399
2.6441
-0.0679929
2.20954
-0.0688742
1.85451
-0.067681
1.55559
-0.0616048
1.28393
-0.0457489
0.989045
-0.0225445
0.639311
-0.00566652
0.303425
0.076155
-0.00182017
0.114449
-0.00292667
0.386055
-0.00136798
0.728451
-0.00309533
1.06459
-0.00973026
1.34726
-0.0191171
1.61608
-0.0300675
1.91487
-0.0423738
2.27022
-0.0555505
2.69565
-0.0673667
3.20491
-0.0739622
3.18344
-0.0768715
2.64701
-0.0783259
2.21099
-0.0778585
1.85404
-0.0748267
1.55256
-0.0667115
1.27582
-0.0483992
0.970733
-0.0235845
0.614496
-0.00599098
0.285831
0.0701641
-0.00313492
0.117584
-0.0066122
0.389532
-0.0085595
0.730399
-0.0122389
1.06827
-0.0201361
1.35516
-0.0309883
1.62694
-0.0432916
1.92717
-0.0561
2.28303
-0.0682069
2.70776
-0.0784422
3.21515
-0.0854327
3.19043
-0.0883998
2.64997
-0.0880126
2.21061
-0.0867804
1.85281
-0.0830045
1.54879
-0.0726576
1.26547
-0.0516747
0.94975
-0.024971
0.587793
-0.00635365
0.267214
0.0638104
-0.00448571
0.12207
-0.010909
0.395955
-0.0161882
0.735678
-0.0227292
1.07481
-0.0320073
1.36444
-0.0440279
1.63896
-0.0573539
1.94049
-0.071635
2.29731
-0.0861032
2.72223
-0.0988855
3.22793
-0.104688
3.19623
-0.105366
2.65065
-0.104086
2.20933
-0.100496
1.84922
-0.0941468
1.54244
-0.0810655
1.25239
-0.0565715
0.925256
-0.0270682
0.558289
-0.00687403
0.24702
0.0569364
-0.00587044
0.127941
-0.0158131
0.405898
-0.025154
0.745019
-0.0345551
1.08421
-0.0460593
1.37594
-0.0603444
1.65324
-0.0759328
1.95608
-0.0919386
2.31331
-0.10663
2.73692
-0.116795
3.2381
-0.120898
3.20033
-0.121261
2.65102
-0.118501
2.20657
-0.114389
1.84511
-0.10691
1.53496
-0.0903705
1.23585
-0.0618806
0.896766
-0.0293221
0.525731
-0.00736624
0.225064
0.0495701
-0.00825869
0.136199
-0.0229303
0.42057
-0.0378941
0.759982
-0.0507124
1.09703
-0.0639336
1.38917
-0.0799692
1.66928
-0.0972735
1.97339
-0.114811
2.33085
-0.130726
2.75284
-0.14316
3.25053
-0.148037
3.20521
-0.145798
2.64878
-0.141088
2.20186
-0.133969
1.83799
-0.122803
1.52379
-0.102316
1.21536
-0.0688561
0.863306
-0.0320494
0.488924
-0.00789674
0.200911
0.0416734
-0.0106617
0.146861
-0.0298509
0.439759
-0.0504801
0.780612
-0.0684618
1.11501
-0.0855965
1.4063
-0.104809
1.68849
-0.125079
1.99366
-0.145014
2.35079
-0.162113
2.76993
-0.172551
3.26097
-0.173083
3.20574
-0.16911
2.6448
-0.162795
2.19554
-0.154374
1.82957
-0.141107
1.51052
-0.115456
1.18971
-0.0758606
0.823711
-0.0345668
0.44763
-0.00829351
0.174638
0.0333799
-0.0153934
0.162254
-0.042327
0.466693
-0.0700123
0.808297
-0.0927297
1.13773
-0.113306
1.42688
-0.1363
1.71148
-0.159304
2.01666
-0.180441
2.37192
-0.196694
2.78619
-0.205462
3.26973
-0.205861
3.20614
-0.200371
2.63931
-0.191746
2.18692
-0.180469
1.81829
-0.162146
1.4922
-0.130615
1.15818
-0.0840402
0.777136
-0.0370525
0.400643
-0.00856918
0.146155
0.0248107
-0.0196311
0.181885
-0.055524
0.502585
-0.0931632
0.845936
-0.123951
1.16852
-0.150698
1.45362
-0.177957
1.73874
-0.203495
2.0422
-0.225437
2.39386
-0.24139
2.80214
-0.248358
3.2767
-0.244024
3.2018
-0.233551
2.62884
-0.221404
2.17477
-0.207176
1.80406
-0.185462
1.47049
-0.146215
1.11893
-0.090697
0.721619
-0.0383334
0.348279
-0.00835785
0.116179
0.0164529
-0.0328633
0.214749
-0.0821959
0.551918
-0.130236
0.893976
-0.167561
1.20584
-0.1997
1.48576
-0.231293
1.77034
-0.257899
2.06881
-0.278826
2.41479
-0.291341
2.81466
-0.292277
3.27764
-0.282959
3.19249
-0.270796
2.61668
-0.257772
2.16175
-0.240477
1.78677
-0.211053
1.44106
-0.162618
1.0705
-0.097894
0.656894
-0.0394235
0.289809
-0.00806308
0.0848187
0.00838977
-0.0472383
0.261987
-0.12129
0.62597
-0.185336
0.958022
-0.231172
1.25168
-0.26947
1.52406
-0.301896
1.80276
-0.326363
2.09327
-0.343438
2.43187
-0.351109
2.82233
-0.347139
3.27367
-0.333544
3.17889
-0.315594
2.59873
-0.295721
2.14188
-0.272477
1.76352
-0.236588
1.40518
-0.176539
1.01045
-0.0996954
0.58005
-0.0376941
0.227807
-0.00773126
0.0548558
0.000658517
-0.0343427
0.29633
-0.0984918
0.690119
-0.157389
1.01692
-0.205814
1.3001
-0.250089
1.56834
-0.289829
1.8425
-0.327255
2.1307
-0.361513
2.46612
-0.388889
2.8497
-0.405901
3.29068
-0.407039
3.18003
-0.399154
2.59084
-0.386709
2.12943
-0.361092
1.7379
-0.306298
1.35038
-0.21672
0.92087
-0.113234
0.476564
-0.0415416
0.156115
-0.00904855
0.0223628
-0.00839003
-0.012473
0.308803
-0.0476225
0.725268
-0.0901514
1.05945
-0.13032
1.34027
-0.17024
1.60826
-0.206309
1.87857
-0.240251
2.16464
-0.270211
2.49608
-0.292644
2.87214
-0.301901
3.29994
-0.296775
3.1749
-0.284729
2.5788
-0.26407
2.10877
-0.232283
1.70612
-0.185014
1.30311
-0.119144
0.855
-0.054606
0.412026
-0.0205555
0.122064
-0.00482224
0.00662952
-0.0132123
-0.000198174
0.309001
-0.0244636
0.749534
-0.0542529
1.08924
-0.0853082
1.37132
-0.117951
1.6409
-0.149458
1.91008
-0.178898
2.19408
-0.203909
2.5211
-0.220798
2.88903
-0.225868
3.30501
-0.219012
3.16805
-0.200713
2.5605
-0.177066
2.08512
-0.148422
1.67747
-0.106596
1.26129
-0.0568762
0.805281
-0.021848
0.376998
-0.00922342
0.10944
-0.00279684
0.00020293
-0.0160091
0.000970598
0.30803
-0.0134097
0.763914
-0.034607
1.11044
-0.0588884
1.39561
-0.0850038
1.66701
-0.111811
1.93689
-0.137064
2.21933
-0.158099
2.54213
-0.171655
2.90258
-0.172886
3.30624
-0.159
3.15416
-0.138383
2.53988
-0.1133
2.06004
-0.0799588
1.64413
-0.045764
1.22709
-0.0169889
0.776506
-0.00284322
0.362852
-0.00141508
0.108012
-0.00117642
-3.57279e-05
-0.0171855
0.00491808
0.303112
-0.00329947
0.772132
-0.0218005
1.12894
-0.04351
1.41732
-0.0660385
1.68954
-0.088175
1.95902
-0.109108
2.24027
-0.126549
2.55957
-0.136724
2.91276
-0.134978
3.30449
-0.120076
3.13926
-0.0965522
2.51636
-0.0684315
2.03192
-0.0421992
1.6179
-0.0128995
1.19779
0.00943625
0.75417
0.0118178
0.360471
0.00565625
0.114173
0.00117232
0.00444819
-0.0160132
0.00517964
0.297933
-0.000776059
0.778087
-0.016232
1.14439
-0.033998
1.43508
-0.0529969
1.70854
-0.0725548
1.97858
-0.0912888
2.259
-0.106601
2.57488
-0.114874
2.92103
-0.111593
3.30121
-0.0943756
3.12204
-0.0703983
2.49238
-0.0455541
2.00708
-0.0161369
1.58848
0.00728185
1.17437
0.0188079
0.742644
0.0176548
0.361624
0.00908152
0.122746
0.00222607
0.0113036
-0.0137871
0.00501655
0.292916
0.00146779
0.781636
-0.0116454
1.15751
-0.0286449
1.45208
-0.0464153
1.72631
-0.0638221
1.99599
-0.0800536
2.27523
-0.0931735
2.588
-0.100009
2.92787
-0.0960672
3.29727
-0.0790451
3.10502
-0.0549917
2.46833
-0.0280722
1.98016
-0.00628977
1.5667
0.0132445
1.15484
0.0244046
0.731484
0.0200256
0.366003
0.010478
0.132294
0.00279406
0.0189876
-0.0109931
0.00273979
0.290176
-0.000509977
0.784886
-0.0117261
1.16872
-0.0259958
1.46635
-0.0416816
1.742
-0.0577675
2.01207
-0.0731569
2.29062
-0.0858522
2.6007
-0.0927448
2.93476
-0.0889376
3.29346
-0.0718066
3.08789
-0.0504005
2.44692
-0.0278378
1.95759
-0.00165979
1.54052
0.0167038
1.13648
0.0231789
0.725009
0.0196359
0.369546
0.0105112
0.141419
0.00294857
0.0265503
-0.0080445
0.001748
0.288428
-0.000605366
0.787239
-0.0112187
1.17933
-0.0248951
1.48003
-0.0401385
1.75724
-0.0552647
2.0272
-0.0696521
2.30501
-0.0818411
2.61289
-0.0888429
2.94176
-0.0857456
3.29036
-0.0700527
3.07219
-0.0486529
2.42552
-0.0247301
1.93367
-0.00586086
1.52165
0.0111252
1.11949
0.0205857
0.715548
0.0169812
0.37315
0.00936819
0.149032
0.00271952
0.0331989
-0.00532498
-0.000490956
0.288919
-0.00446974
0.791218
-0.0134767
1.18834
-0.0252795
1.49183
-0.0390576
1.77102
-0.0535209
2.04166
-0.0679146
2.3194
-0.080502
2.62547
-0.0880362
2.9493
-0.0857504
3.28808
-0.0716704
3.05811
-0.0529648
2.40681
-0.0334319
1.91414
-0.00991857
1.49814
0.00709805
1.10247
0.0136308
0.709016
0.0129106
0.37387
0.00728857
0.154654
0.00224291
0.0382446
-0.00308207
-0.000941837
0.289861
-0.00510588
0.795382
-0.0140996
1.19734
-0.025807
1.50354
-0.0394299
1.78464
-0.0535152
2.05575
-0.0675001
2.33339
-0.0800089
2.63798
-0.088462
2.95775
-0.0884946
3.28811
-0.0766772
3.0463
-0.0569661
2.3871
-0.0346811
1.89185
-0.0179055
1.48136
-0.0021841
1.08675
0.00821036
0.698621
0.00831243
0.373768
0.00519838
0.157768
0.00173037
0.0417126
-0.0013517
-0.00256787
0.292429
-0.00797175
0.800786
-0.0164388
1.2058
-0.0271108
1.51421
-0.0396941
1.79723
-0.053254
2.06931
-0.0673388
2.34747
-0.080677
2.65132
-0.0905766
2.96765
-0.0920965
3.28963
-0.081376
3.03558
-0.0646783
2.37041
-0.0465709
1.87375
-0.024272
1.45907
-0.00780305
1.07028
0.000209846
0.690608
0.00403202
0.369946
0.00299516
0.158805
0.00118229
0.0435255
-0.000169419
-0.00353979
0.295969
-0.00841947
0.805666
-0.0169324
1.21432
-0.0277265
1.525
-0.0402635
1.80976
-0.0536249
2.08267
-0.0676667
2.36151
-0.0813325
2.66499
-0.0923571
2.97867
-0.0965576
3.29383
-0.0891097
3.02813
-0.0722996
2.3536
-0.0494824
1.85093
-0.0322982
1.44188
-0.0160887
1.05407
-0.00359323
0.678113
9.20016e-05
0.366261
0.00130202
0.157595
0.000699787
0.0441277
0.000530367
-0.00412786
0.300097
-0.0103117
0.81185
-0.0186749
1.22268
-0.0287419
1.53507
-0.0405542
1.82158
-0.0535475
2.09566
-0.0677289
2.37569
-0.0822063
2.67947
-0.0948671
2.99133
-0.101402
3.30037
-0.0959331
3.02266
-0.0807121
2.33837
-0.0620668
1.83228
-0.0377334
1.41755
-0.019153
1.03549
-0.00841779
0.667378
-0.00217339
0.360017
-8.52047e-05
0.155507
0.00034338
0.0436991
0.000873745
-0.00409505
0.304192
-0.0101853
0.81794
-0.018638
1.23113
-0.0288126
1.54525
-0.0406403
1.8334
-0.0535555
2.10858
-0.0678215
2.38996
-0.0826802
2.69432
-0.0965021
3.00516
-0.105734
3.3096
-0.10402
3.02095
-0.0895874
2.32394
-0.0654275
1.80812
-0.0438918
1.39601
-0.0234472
1.01505
-0.00813659
0.652067
-0.00237402
0.354254
-0.000358729
0.153491
-0.000429096
0.0437695
0.000444646
-0.00427821
0.30847
-0.0112573
0.824919
-0.0195948
1.23947
-0.02922
1.55487
-0.0405171
1.8447
-0.0531533
2.12121
-0.0674666
2.40427
-0.0829378
2.7098
-0.0982525
3.02047
-0.109927
3.32127
-0.110187
3.02121
-0.0977949
2.31155
-0.0781356
1.78846
-0.047965
1.36584
-0.0222657
0.989349
-0.0064864
0.636288
0.00273506
0.345032
0.00429554
0.151931
0.00233841
0.0457266
0.00278305
-0.00419497
0.312665
-0.0108042
0.831528
-0.0190376
1.2477
-0.0287161
1.56455
-0.0399851
1.85597
-0.0525242
2.13375
-0.0668853
2.41863
-0.0826905
2.7256
-0.0990224
3.0368
-0.113113
3.33536
-0.117721
3.02581
-0.107363
2.30119
-0.0820996
1.7632
-0.0533798
1.33712
-0.0217692
0.957738
0.00215137
0.612367
0.0119071
0.335277
0.00740015
0.156438
-0.00140874
0.0545355
0.00137431
-0.00433737
0.317002
-0.0113959
0.838587
-0.0194129
1.25572
-0.0285772
1.57371
-0.0393473
1.86674
-0.0515968
2.146
-0.0658893
2.43293
-0.0821049
2.74182
-0.099594
3.05429
-0.115727
3.35149
-0.122625
3.03271
-0.114921
2.29349
-0.0956781
1.74396
-0.0585483
1.29999
-0.0168905
0.916081
0.0171434
0.578333
0.0413134
0.311107
0.0471727
0.150578
0.0289337
0.0727746
0.030308
-0.00419209
0.321194
-0.0107523
0.845147
-0.0185386
1.26351
-0.0276383
1.58281
-0.0382644
1.87736
-0.0503356
2.15807
-0.0645925
2.44718
-0.0810258
2.75825
-0.0992344
3.0725
-0.117396
3.36966
-0.128468
3.04378
-0.124899
2.28992
-0.10148
1.72054
-0.0663796
1.26489
-0.0170622
0.866763
0.0304341
0.530837
0.0654578
0.276083
0.054755
0.161281
0.0237991
0.10373
0.0541071
-0.00415533
0.32535
-0.0109881
0.85198
-0.0185204
1.27104
-0.0270782
1.59137
-0.0372273
1.88751
-0.0489851
2.16983
-0.063078
2.46128
-0.0796975
2.77487
-0.0986959
3.0915
-0.118511
3.38947
-0.130991
3.05626
-0.131148
2.29008
-0.117003
1.70639
-0.0773878
1.22528
-0.0215418
0.810917
0.04948
0.459815
0.144691
0.180872
0.207324
0.098649
0.18641
0.124644
0.240518
-0.00399398
0.329344
-0.0104012
0.858387
-0.0178714
1.27851
-0.0266307
1.60013
-0.0371091
1.89799
-0.0493605
2.18208
-0.0643991
2.47632
-0.0825871
2.79306
-0.104105
3.11302
-0.128284
3.41365
-0.147585
3.07557
-0.15432
2.29681
-0.137755
1.68983
-0.10151
1.18903
-0.0353607
0.744768
0.02399
0.400464
-0.0441067
0.248968
-0.352766
0.407308
-0.945574
0.717452
0.902344
-1.6074
-0.00389641
0.33324
-0.0105333
0.865024
-0.0178586
1.28583
-0.0262948
1.60857
-0.036554
1.90825
-0.048899
2.19443
-0.064346
2.49176
-0.0835041
2.81221
-0.107006
3.13652
-0.134695
3.44134
-0.15812
3.09899
-0.169236
2.30793
-0.171138
1.69173
-0.141092
1.15899
-0.103788
0.707463
-0.206436
0.503113
-0.693962
0.736494
-1.4548
1.16815
-2.05929
1.32194
1.21556
-2.37251
-0.00366
0.3369
-0.00974006
0.871104
-0.0168195
1.29291
-0.0252585
1.61701
-0.0355486
1.91854
-0.0480254
2.20691
-0.0639265
2.50766
-0.08403
2.83232
-0.109362
3.16185
-0.140878
3.47285
-0.171831
3.12994
-0.192893
2.32899
-0.194728
1.69356
-0.173179
1.13744
-0.25873
0.793015
-0.752792
0.997174
-1.55994
1.54364
-2.11719
1.7254
-2.35446
1.55921
1.32904
-2.46794
-0.0035575
0.340457
-0.00965342
0.8772
-0.0165195
1.29978
-0.0245986
1.62508
-0.0346227
1.92857
-0.0471405
2.21942
-0.0633482
2.52387
-0.0842859
2.85326
-0.11151
3.18908
-0.146715
3.50806
-0.182915
3.16614
-0.210399
2.35647
-0.231726
1.71489
-0.303665
1.20938
-0.673702
1.16305
-1.44684
1.77032
-2.03206
2.12886
-2.27041
1.96374
-2.3828
1.6716
1.39236
-2.44612
-0.0032417
0.343699
-0.00870198
0.88266
-0.015218
1.30629
-0.0232111
1.63308
-0.0332465
1.9386
-0.0458073
2.23198
-0.0623314
2.5404
-0.0840775
2.875
-0.113029
3.21803
-0.152179
3.54721
-0.196932
3.2109
-0.238132
2.39767
-0.273554
1.75031
-0.45548
1.3913
-1.0973
1.80487
-1.79446
2.46747
-2.11065
2.44506
-2.25764
2.11073
-2.33938
1.75334
1.45848
-2.4055
-0.00324914
0.346948
-0.00894215
0.888353
-0.0154957
1.31285
-0.0233841
1.64097
-0.0335317
1.94875
-0.0464095
2.24486
-0.0634538
2.55744
-0.086159
2.89771
-0.117026
3.24889
-0.159841
3.59002
-0.210361
3.26142
-0.253929
2.44124
-0.339157
1.83554
-0.73781
1.78996
-1.49382
2.56088
-1.96316
2.93682
-2.16275
2.64465
-2.26858
2.21657
-2.34581
1.83057
1.52162
-2.40895
-0.00330715
0.350255
-0.00889161
0.893938
-0.0157341
1.31969
-0.0242334
1.64947
-0.0350344
1.95955
-0.048576
2.2584
-0.0665362
2.5754
-0.0905781
2.92175
-0.123531
3.28185
-0.170629
3.63712
-0.22747
3.31826
-0.288114
2.50189
-0.473921
2.02135
-1.04529
2.36133
-1.68052
3.1961
-1.95246
3.20875
-2.09874
2.79093
-2.21256
2.33039
-2.30625
1.92426
1.58316
-2.36778
-0.00344898
0.353704
-0.00980977
0.900298
-0.0171589
1.32704
-0.0259194
1.65823
-0.0370721
1.9707
-0.0512804
2.27261
-0.0701294
2.59425
-0.0954581
2.94708
-0.130525
3.31691
-0.181304
3.6879
-0.242994
3.37995
-0.326579
2.58547
-0.609499
2.30427
-1.26358
3.01541
-1.75037
3.68289
-1.95744
3.41582
-2.09662
2.93011
-2.22053
2.45429
-2.33066
2.0344
1.64182
-2.38933
-0.00338393
0.357088
-0.00948734
0.906402
-0.017186
1.33474
-0.0267555
1.6678
-0.0387044
1.98265
-0.0536324
2.28754
-0.0734583
2.61408
-0.100206
2.97383
-0.137365
3.35407
-0.191901
3.74244
-0.259725
3.44777
-0.383712
2.70946
-0.771734
2.69229
-1.40981
3.65349
-1.75984
4.03292
-1.93228
3.58826
-2.03383
3.03166
-2.12246
2.54292
-2.1891
2.10103
1.63443
-2.18171
-0.00341001
0.360498
-0.0104912
0.913483
-0.0188221
1.34307
-0.0286206
1.67759
-0.0409277
1.99496
-0.0565892
2.3032
-0.0773585
2.63484
-0.105395
3.00186
-0.144578
3.39326
-0.201181
3.79904
-0.278559
3.52515
-0.44792
2.87882
-0.903099
3.14747
-1.45997
4.21036
-1.72055
4.2935
-1.87177
3.73947
-1.96535
3.12524
-1.96606
2.54363
-1.89612
2.0311
1.59679
-1.85849
-0.00318725
0.363686
-0.00969755
0.919993
-0.0182785
1.35165
-0.0289695
1.68828
-0.0420786
2.00807
-0.0582385
2.31936
-0.0795122
2.65612
-0.108141
3.03049
-0.147928
3.43304
-0.204725
3.85584
-0.290433
3.61086
-0.494575
3.08296
-0.98662
3.63951
-1.42675
4.65049
-1.591
4.45775
-1.6576
3.80606
-1.66193
3.12958
-1.51433
2.39603
-1.01503
1.5318
0.581762
-0.00280038
0.366486
-0.0106047
0.927798
-0.019975
1.36102
-0.030916
1.69923
-0.0446368
2.02179
-0.0621181
2.33684
-0.0852724
2.67927
-0.116527
3.06175
-0.16029
3.47681
-0.223401
3.91895
-0.325739
3.71319
-0.57996
3.33718
-1.12128
4.18083
-1.47829
5.0075
-1.57728
4.55675
-1.57538
3.80417
-1.47189
3.02608
-1.23314
2.15728
-0.63021
0.928865
-0.0484475
-0.00251137
0.368997
-0.00897403
0.93426
-0.0184141
1.37046
-0.0306615
1.71147
-0.0458357
2.03696
-0.064666
2.35567
-0.0897085
2.70431
-0.123821
3.09586
-0.172069
3.52505
-0.242123
3.989
-0.365141
3.83621
-0.679431
3.65147
-1.23965
4.74105
-1.49886
5.26671
-1.55763
4.61552
-1.5351
3.78164
-1.33331
2.82429
-0.780934
1.60491
-0.108395
0.256326
-0.156842
-0.00152387
0.370521
-0.0095092
0.942246
-0.0197943
1.38075
-0.0320618
1.72374
-0.047582
2.05248
-0.0676835
2.37577
-0.0946907
2.73132
-0.131544
3.13271
-0.183446
3.57696
-0.260766
4.06632
-0.409149
3.9846
-0.781676
4.024
-1.3169
5.27627
-1.49275
5.44256
-1.52354
4.6463
-1.43546
3.69356
-1.09942
2.48825
-0.312454
0.817944
0.0247768
-0.0809055
-0.132065
-0.000993989
0.371515
-0.00642252
0.947674
-0.0162651
1.39059
-0.0299828
1.73746
-0.0470841
2.06958
-0.068498
2.39719
-0.0972737
2.7601
-0.136769
3.17221
-0.192078
3.63227
-0.278773
4.15302
-0.454067
4.15989
-0.891744
4.46168
-1.36217
5.7467
-1.47759
5.55798
-1.4804
4.64911
-1.25649
3.46965
-0.685166
1.91693
-0.0629692
0.195747
0.0300539
-0.173929
-0.102011
9.39909e-05
0.371421
-0.00605388
0.953822
-0.0165334
1.40107
-0.0299373
1.75086
-0.0467572
2.0864
-0.0692578
2.41969
-0.0998475
2.79069
-0.141606
3.21397
-0.19969
3.69035
-0.294696
4.24802
-0.495571
4.36077
-0.983421
4.94953
-1.3565
6.11978
-1.42148
5.62297
-1.37516
4.60279
-1.08735
3.18184
-0.322771
1.15235
0.00401369
-0.131037
0.0144564
-0.184371
-0.087555
0.00323194
0.368189
0.000742092
0.956312
-0.00954967
1.41136
-0.0245179
1.76583
-0.0428271
2.10471
-0.0665839
2.44345
-0.0984474
2.82255
-0.142121
3.25764
-0.203555
3.75178
-0.30773
4.3522
-0.535068
4.5881
-1.04648
5.46094
-1.32164
6.39494
-1.36101
5.66234
-1.22197
4.46375
-0.770293
2.73017
-0.0691345
0.451192
0.0438961
-0.244068
0.0238971
-0.164372
-0.0636579
0.00426091
0.363928
0.0021683
0.958404
-0.00780274
1.42133
-0.0213058
1.77933
-0.0383346
2.12174
-0.0627037
2.46781
-0.0957813
2.85563
-0.141036
3.30289
-0.20447
3.81522
-0.315417
4.46314
-0.572374
4.84506
-1.06703
5.95559
-1.2563
6.58421
-1.26676
5.6728
-1.04768
4.24466
-0.459733
2.14222
-0.0183145
0.0097734
-0.00665848
-0.255724
0.00474041
-0.175771
-0.0589175
0.00871082
0.355218
0.0104809
0.956634
0.00400977
1.4278
-0.00971247
1.79306
-0.0286481
2.14068
-0.0537636
2.49293
-0.0871074
2.88897
-0.132775
3.34856
-0.198501
3.88094
-0.316965
4.58161
-0.595554
5.12365
-1.04536
6.4054
-1.17025
6.70911
-1.15299
5.65553
-0.893692
3.98537
-0.264117
1.51265
-0.0699817
-0.184362
-0.0387609
-0.286945
-0.0143826
-0.20015
-0.0733001
0.0112348
0.343983
0.0156503
0.952219
0.0104894
1.43296
0.000537942
1.80301
-0.0173095
2.15853
-0.0413342
2.51695
-0.0744715
2.92211
-0.120309
3.3944
-0.185983
3.94662
-0.306838
4.70246
-0.593029
5.40984
-0.980417
6.79279
-1.04311
6.7718
-0.976307
5.58873
-0.675987
3.68505
-0.0704662
0.907125
0.0152708
-0.270099
0.000327797
-0.272002
-0.00163119
-0.198191
-0.0749313
0.0185197
0.325463
0.0305999
0.940139
0.0302086
1.43335
0.0193405
1.81388
0.00146994
2.1764
-0.0213028
2.53973
-0.0532496
2.95406
-0.0975318
3.43868
-0.162258
4.01134
-0.284349
4.82455
-0.563486
5.68898
-0.869544
7.09885
-0.906585
6.80884
-0.801711
5.48385
-0.44244
3.32577
0.0683927
0.396293
0.0793021
-0.281008
0.0590518
-0.251752
0.0221266
-0.161265
-0.0528047
0.0241789
0.301284
0.0420708
0.922247
0.0449163
1.43051
0.0385758
1.82022
0.0268437
2.18813
0.00582482
2.56075
-0.0237361
2.98362
-0.0652955
3.48024
-0.126425
4.07247
-0.240925
4.93905
-0.489506
5.93756
-0.711222
7.32056
-0.733794
6.83141
-0.635064
5.38512
-0.301631
2.99234
0.00548471
0.0891771
0.0218091
-0.297333
0.033099
-0.263041
0.0158
-0.143966
-0.0370047
0.0352145
0.26607
0.0658696
0.891592
0.0779618
1.41842
0.0749617
1.82322
0.0638466
2.19924
0.0445789
2.58001
0.0175978
3.0106
-0.0205828
3.51842
-0.0758506
4.12774
-0.176502
5.0397
-0.378344
6.1394
-0.53192
7.47414
-0.559554
6.85905
-0.463032
5.2886
-0.191097
2.72041
-0.0756925
-0.0262271
-0.0529467
-0.320079
-0.0185358
-0.297452
-0.000484018
-0.162018
-0.0374887
0.0446499
0.22142
0.087075
0.849167
0.106997
1.39849
0.111948
1.81827
0.108583
2.20261
0.0951531
2.59344
0.0744228
3.03133
0.0430043
3.54984
-0.00755151
4.1783
-0.0816876
5.11384
-0.220483
6.2782
-0.310157
7.56381
-0.318131
6.86702
-0.255346
5.22582
-0.0886355
2.5537
-0.104538
-0.0103246
-0.0772577
-0.347359
-0.0415209
-0.333189
-0.0102499
-0.193289
-0.0477386
0.0581468
0.163273
0.121353
0.78596
0.159421
1.36043
0.172492
1.80519
0.172321
2.20278
0.162115
2.60365
0.146954
3.04649
0.123719
3.57308
0.0881382
4.21388
0.0386476
5.16333
-0.0160617
6.33291
-0.0474069
7.59516
-0.0474005
6.86701
-0.00292871
5.18134
0.0567162
2.49405
-0.0764124
0.122804
-0.0908778
-0.332894
-0.0565789
-0.367488
-0.00470083
-0.245167
-0.0524395
0.0600213
0.103251
0.150996
0.694986
0.207656
1.30377
0.2353
1.77755
0.247776
2.1903
0.247558
2.60387
0.241405
3.05264
0.230209
3.58427
0.211997
4.23209
0.190577
5.18475
0.232702
6.29078
0.279522
7.54834
0.309534
6.837
0.241546
5.24933
0.0371733
2.69842
-0.198731
0.358709
-0.260092
-0.271533
-0.190783
-0.436797
-0.066199
-0.369751
-0.118638
0.0494753
0.0537762
0.184649
0.559812
0.282207
1.20621
0.329355
1.7304
0.349401
2.17026
0.357446
2.59582
0.356382
3.05371
0.356628
3.58403
0.357659
4.23106
0.370813
5.1716
0.519443
6.14215
0.655555
7.41223
0.644091
6.84847
0.422039
5.47138
-0.0774545
3.19792
-0.513397
0.794651
-0.570693
-0.214237
-0.443496
-0.563994
-0.217812
-0.595435
-0.33645
0.0343178
0.0194584
0.219117
0.375012
0.347189
1.07814
0.426149
1.65144
0.468519
2.12789
0.491447
2.57289
0.500922
3.04423
0.515965
3.56898
0.540411
4.20661
0.5913
5.12071
0.81402
5.91943
1.15132
7.07492
1.30358
6.69621
1.33526
5.4397
0.87
3.66318
0.11375
1.5509
-0.351373
0.250885
-0.49079
-0.424577
-0.278886
-0.807339
-0.615337
0.0305432
-0.0110848
0.234755
0.170801
0.450728
0.862164
0.568553
1.53362
0.622589
2.07385
0.655414
2.54007
0.674576
3.02507
0.697627
3.54593
0.74522
4.15902
0.850317
5.01561
1.19175
5.578
1.78303
6.48364
2.13706
6.34219
2.3977
5.17906
2.29617
3.7647
1.55395
2.29313
0.830381
0.974451
0.304044
0.10176
0.0335742
-0.536869
-0.581762
0.0234253
-0.0345101
0.156753
0.037473
0.494355
0.524561
0.694257
1.33371
0.797716
1.97039
0.850856
2.48693
0.888729
2.9872
0.915007
3.51965
0.980381
4.09364
1.11075
4.88524
1.49654
5.19222
2.26842
5.71176
2.65449
5.95611
2.83449
4.99906
2.67896
3.92023
2.17773
2.79436
1.5372
1.61499
0.987774
0.651184
0.388044
0.0628616
-0.193718
0.00170232
-0.0362125
0.0765712
-0.0373959
0.409629
0.191504
0.718824
1.02452
0.864266
1.82495
0.901636
2.44956
0.908355
2.98048
0.892736
3.53527
0.892366
4.09402
0.931359
4.84625
1.09273
5.03084
1.53764
5.26685
1.71099
5.78276
1.75031
4.95974
1.65976
4.01078
1.41241
3.04171
1.00863
2.01876
0.583404
1.07641
0.244818
0.401448
0.0510994
0.00379397
-0.0400064
0.0430024
-0.0766043
0.209866
0.0246404
0.550341
0.684044
0.729647
1.64565
0.797004
2.3822
0.810219
2.96726
0.802715
3.54278
0.783791
4.11294
0.802897
4.82714
0.883409
4.95033
1.19202
4.95824
1.37755
5.59723
1.39315
4.94414
1.33541
4.06852
1.17289
3.20423
0.885646
2.306
0.557205
1.40485
0.232075
0.726578
0.283175
0.00180113
-0.0418076
0.0152916
-0.0900947
0.0845349
-0.044603
0.381299
0.38728
0.58608
1.44087
0.677812
2.29047
0.701369
2.94371
0.70093
3.54322
0.674136
4.13973
0.668693
4.83258
0.697841
4.92118
0.885423
4.77066
1.06267
5.41998
1.06383
4.94298
1.00884
4.12351
0.885189
3.32788
0.677938
2.51326
0.421237
1.66156
0.170684
0.977131
0.453859
-0.00287954
-0.038928
0.000387982
-0.0933623
0.0355398
-0.0797547
0.243451
0.179369
0.46523
1.21909
0.568373
2.18732
0.588495
2.92359
0.585296
3.54641
0.557678
4.16735
0.536652
4.85361
0.54199
4.91585
0.649665
4.66298
0.791026
5.27862
0.781608
4.9524
0.7228
4.18232
0.625713
3.42497
0.477947
2.66102
0.290523
1.84898
0.11007
1.15758
0.563928
-0.00308097
-0.035847
0.00502415
-0.101467
0.0362164
-0.110947
0.150053
0.0655323
0.334327