/*--------------------------------*- C++ -*----------------------------------*\
| =========                 |                                                 |
| \\      /  F ield         | OpenFOAM: The Open Source CFD Toolbox           |
|  \\    /   O peration     | Version:  4.0                                   |
|   \\  /    A nd           | Web:      www.OpenFOAM.org                      |
|    \\/     M anipulation  |                                                 |
\*---------------------------------------------------------------------------*/
FoamFile
{
    version     2.0;
    format      ascii;
    class       volScalarField;
    location    "5";
    object      T;
}
// * * * * * * * * * * * * * * * * * * * * * * * * * * * * * * * * * * * * * //

dimensions      [0 0 0 1 0 0 0];

internalField   nonuniform List<scalar> 
1000
(
0
0
0
0
0
0
0
0
0
0
0
0
0
0
0
0
0
0
0
0
0
0
0
0
0
0
0
0
0
0
0
0
0
0
0
0
0
0
0
0
0
0
0
0
0
0
0
0
0
0
0
0
0
0
0
0
0
0
0
0
0
0
0
0
0
0
0
0
0
0
0
0
0
0
0
0
0
0
0
0
0
0
0
0
0
0
0
0
0
0
0
0
0
0
0
0
0
0
0
0
0
0
0
0
0
0
0
0
0
0
0
0
0
0
0
0
0
0
0
0
0
0
0
0
0
0
0
0
0
0
0
0
0
0
0
0
0
0
0
0
0
0
0
0
0
0
0
0
0
0
0
0
0
0
0
0
0
0
0
0
0
0
0
0
0
0
0
0
0
0
0
0
0
0
0
0
0
0
0
0
0
0
0
0
0
0
0
0
0
0
0
0
0
0
0
0
0
0
0
0
0
0
0
0
0
0
0
0
0
0
0
0
0
0
0
0
0
0
0
0
0
0
0
0
0
0
0
0
0
0
0
0
0
0
0
0
0
0
0
0
0
0
0
0
0
0
0
0
0
0
0
0
0
0
0
0
0
0
0
0
0
0
0
0
0
0
0
0
0
0
0
0
0
0
0
0
0
0
0
0
0
0
0
0
0
0
0
0
0
0
0
0
0
0
0
0
0
0
0
0
0
0
0
0
0
0
0
0
0
0
0
0
0
0
0
0
0
0
0
0
0
0
0
0
0
0
0
0
0
0
0
0
0
0
0
0
0
0
0
0
0
0
0
0
0
0
0
0
0
0
0
0
0
0
0
0
0
0
0
0
0
0
0
0
0
0
0
0
0
0
0
0
0
0
0
0
0
0
0
0
0
0
0
0
0
0
0
0
0
0
0
0
0
0
0
0
0
0
0
0
0
0
0
0
0
0
0
0
0
0
0
0
0
0
0
0
0
0
0
0
0
0
0
0
0
0
0
0
0
0
0
0
0
0
0
0
0
0
0
0
0
0
0
0
0
0
0
0
0
0
8.10477e-177
2.7097e-174
4.53425e-172
5.06331e-170
4.24482e-168
2.84975e-166
1.59591e-164
7.66825e-163
3.22719e-161
1.20846e-159
4.07676e-158
1.25152e-156
3.52534e-155
9.17559e-154
2.21979e-152
5.01716e-151
1.06415e-149
2.12642e-148
4.01699e-147
7.19613e-146
1.22588e-144
1.99084e-143
3.08921e-142
4.58967e-141
6.54119e-140
8.95838e-139
1.18085e-137
1.50035e-136
1.84002e-135
2.18091e-134
2.50122e-133
2.77875e-132
2.99352e-131
3.1302e-130
3.17995e-129
3.14124e-128
3.01973e-127
2.82721e-126
2.5798e-125
2.2959e-124
1.99409e-123
1.69134e-122
1.40176e-121
1.13583e-120
9.00299e-120
6.98424e-119
5.30546e-118
3.94825e-117
2.87978e-116
2.05957e-115
1.44489e-114
9.94735e-114
6.723e-113
4.46232e-112
2.90974e-111
1.86464e-110
1.17469e-109
7.27739e-109
4.43496e-108
2.65945e-107
1.56966e-106
9.12126e-106
5.21979e-105
2.94247e-104
1.63434e-103
8.94646e-103
4.82768e-102
2.56864e-101
1.34786e-100
6.97676e-100
3.56306e-99
1.79572e-98
8.93283e-98
4.38688e-97
2.12726e-96
1.01874e-95
4.81901e-95
2.25207e-94
1.03994e-93
4.74577e-93
2.14066e-92
9.54545e-92
4.20844e-91
1.83479e-90
7.91137e-90
3.37428e-89
1.42375e-88
5.94385e-88
2.4555e-87
1.00394e-86
4.06277e-86
1.62757e-85
6.45521e-85
2.53505e-84
9.85864e-84
3.7971e-83
1.44856e-82
5.47421e-82
2.04951e-81
7.60268e-81
2.79458e-80
1.01799e-79
3.67524e-79
1.31519e-78
4.66545e-78
1.64073e-77
5.72083e-77
1.97788e-76
6.781e-76
2.30558e-75
7.77491e-75
2.6006e-74
8.62879e-74
2.84027e-73
9.27546e-73
3.00546e-72
9.66314e-72
3.08312e-71
9.7624e-71
3.06796e-70
9.56972e-70
2.96303e-69
9.10725e-69
2.77897e-68
8.41886e-68
2.53235e-67
7.56349e-67
2.24324e-66
6.60712e-66
1.93266e-65
5.6148e-65
1.62021e-64
4.64401e-64
1.32228e-63
3.74014e-63
1.05101e-62
2.93433e-62
8.13981e-62
2.2436e-61
6.14506e-61
1.67254e-60
4.524e-60
1.21613e-59
3.2492e-59
8.62834e-59
2.27749e-58
5.97561e-58
1.55857e-57
4.04118e-57
1.04171e-56
2.66969e-56
6.80254e-56
1.72344e-55
4.34162e-55
1.08757e-54
2.70916e-54
6.71115e-54
1.65334e-53
4.0509e-53
9.87137e-53
2.39254e-52
5.76783e-52
1.3831e-51
3.29914e-51
7.82832e-51
1.84787e-50
4.33939e-50
1.0138e-49
2.35646e-49
5.44959e-49
1.25396e-48
2.87096e-48
6.54057e-48
1.48272e-47
3.34484e-47
7.50889e-47
1.67755e-46
3.72981e-46
8.25324e-46
1.81761e-45
3.98412e-45
8.69217e-45
1.88757e-44
4.08009e-44
8.77892e-44
1.88031e-43
4.00909e-43
8.50952e-43
1.79812e-42
3.78265e-42
7.92233e-42
1.65196e-41
3.42961e-41
7.08931e-41
1.45911e-40
2.99023e-40
6.10196e-40
1.23991e-39
2.50889e-39
5.05534e-39
1.0144e-38
2.02707e-38
4.03403e-38
7.99521e-38
1.57817e-37
3.10254e-37
6.07481e-37
1.18471e-36
2.30123e-36
4.45236e-36
8.58048e-36
1.64715e-35
3.14968e-35
5.99953e-35
1.13841e-34
2.15187e-34
4.05211e-34
7.60157e-34
1.42066e-33
2.64515e-33
4.90676e-33
9.06838e-33
1.6698e-32
3.06344e-32
5.59977e-32
1.0199e-31
1.85088e-31
3.34689e-31
6.03051e-31
1.08274e-30
1.93716e-30
3.45364e-30
6.13582e-30
1.08632e-29
1.91664e-29
3.37e-29
5.90517e-29
1.03123e-28
1.79476e-28
3.1131e-28
5.38175e-28
9.27266e-28
1.59236e-27
2.72549e-27
4.64965e-27
7.90631e-27
1.34003e-26
2.26384e-26
3.81223e-26
6.39909e-26
1.07071e-25
1.78585e-25
2.96923e-25
4.92126e-25
8.1311e-25
1.33927e-24
2.19908e-24
3.59976e-24
5.8745e-24
9.55741e-24
1.5502e-23
2.5068e-23
4.0415e-23
6.49625e-23
1.04108e-22
1.66347e-22
2.6501e-22
4.20948e-22
6.66687e-22
1.0528e-21
1.65772e-21
2.60267e-21
4.07453e-21
6.36048e-21
9.90065e-21
1.53675e-20
2.37857e-20
3.67119e-20
5.65041e-20
8.67245e-20
1.32739e-19
2.02606e-19
3.08398e-19
4.68144e-19
7.08702e-19
1.06996e-18
1.61101e-18
2.41912e-18
3.62287e-18
5.41114e-18
8.06066e-18
1.19758e-17
1.77456e-17
2.62264e-17
3.86592e-17
5.68378e-17
8.33482e-17
1.21909e-16
1.77852e-16
2.58804e-16
3.75645e-16
5.43854e-16
7.854e-16
1.13138e-15
1.62568e-15
2.33014e-15
3.33157e-15
4.75162e-15
6.76029e-15
9.59452e-15
1.35838e-14
1.9185e-14
2.70303e-14
3.7992e-14
5.32708e-14
7.45157e-14
1.03985e-13
1.44765e-13
2.01062e-13
2.78595e-13
3.85123e-13
5.31142e-13
7.30822e-13
1.00324e-12
1.37404e-12
1.87757e-12
2.55974e-12
3.48183e-12
4.72533e-12
6.39846e-12
8.6445e-12
1.16528e-11
1.56729e-11
2.10331e-11
2.81639e-11
3.76291e-11
5.01649e-11
6.67304e-11
8.85728e-11
1.17309e-10
1.55033e-10
2.04446e-10
2.6903e-10
3.5326e-10
4.62872e-10
6.05209e-10
7.89644e-10
1.02812e-09
1.3358e-09
1.73194e-09
2.24088e-09
2.89337e-09
3.72814e-09
4.79388e-09
6.15163e-09
7.87783e-09
1.00679e-08
1.28408e-08
1.63443e-08
2.07619e-08
2.63207e-08
3.33013e-08
4.20496e-08
5.2991e-08
6.66477e-08
8.36592e-08
1.04808e-07
1.31046e-07
1.63535e-07
2.03684e-07
2.53202e-07
3.14153e-07
3.89031e-07
4.80839e-07
5.93185e-07
7.30397e-07
8.97654e-07
1.10114e-06
1.34824e-06
1.64771e-06
2.00996e-06
2.44732e-06
2.97437e-06
3.6083e-06
4.36934e-06
5.28128e-06
6.37198e-06
7.67405e-06
9.22558e-06
1.10709e-05
1.32617e-05
1.58577e-05
1.89284e-05
2.25538e-05
2.68264e-05
3.18525e-05
3.77544e-05
4.46722e-05
5.27661e-05
6.22191e-05
7.32398e-05
8.60652e-05
0.000100964
0.000118242
0.000138242
0.000161354
0.000188014
0.000218713
0.000254002
0.000294497
0.000340884
0.000393931
0.000454489
0.000523502
0.000602017
0.00069119
0.000792295
0.000906736
0.00103605
0.00118193
0.00134622
0.00153093
0.00173825
0.00197057
0.00223047
0.00252075
0.00284441
0.00320471
0.00360513
0.00404942
0.00454159
0.0050859
0.00568692
0.00634946
0.00707867
0.00787997
0.00875906
0.00972198
0.010775
0.0119248
0.0131783
0.0145426
0.0160252
0.0176339
0.0193767
0.0212617
0.0232975
0.0254927
0.0278561
0.0303967
0.0331237
0.0360461
0.0391733
0.0425145
0.0460789
0.0498758
0.0539141
0.0582027
0.0627505
0.0675657
0.0726566
0.078031
0.0836961
0.089659
0.095926
0.102503
0.109395
0.116607
0.124143
0.132005
0.140196
0.148718
0.157571
0.166754
0.176267
0.186107
0.19627
0.206753
0.217551
0.228656
0.240062
0.251761
0.263743
0.275997
0.288513
0.301278
0.31428
0.327504
0.340935
0.354559
0.368358
0.382316
0.396415
0.410638
0.424966
0.439379
0.45386
0.468389
0.482945
0.49751
0.512063
0.526586
0.541058
0.555461
0.569775
0.583982
0.598063
0.612002
0.625779
0.63938
0.652788
0.665987
0.678963
0.691702
0.704191
0.716416
0.728367
0.740033
0.751404
0.76247
0.773222
0.783655
0.793759
0.803529
0.812961
0.822047
0.830786
0.839173
0.847205
0.854879
0.862194
0.869148
0.87574
0.88197
0.887835
0.893337
0.898475
0.903249
0.907659
0.911706
0.915389
0.918708
0.921665
0.924258
0.926489
0.928355
0.929858
0.930997
0.931771
0.932179
)
;

boundaryField
{
    sides
    {
        type            inletOutlet;
        inletValue      uniform 0;
        value           nonuniform List<scalar> 2(0.932179 0);
    }
    empty
    {
        type            empty;
    }
}


// ************************************************************************* //
