/*--------------------------------*- C++ -*----------------------------------*\
| =========                 |                                                 |
| \\      /  F ield         | OpenFOAM: The Open Source CFD Toolbox           |
|  \\    /   O peration     | Version:  4.0                                   |
|   \\  /    A nd           | Web:      www.OpenFOAM.org                      |
|    \\/     M anipulation  |                                                 |
\*---------------------------------------------------------------------------*/
FoamFile
{
    version     2.0;
    format      ascii;
    class       volScalarField;
    location    "0.006";
    object      mag(U);
}
// * * * * * * * * * * * * * * * * * * * * * * * * * * * * * * * * * * * * * //

dimensions      [0 1 -1 0 0 0 0];

internalField   nonuniform List<scalar> 
100
(
4.65772e-12
2.71703e-11
1.19403e-10
5.13218e-10
2.17429e-09
8.95161e-09
3.58856e-08
1.40026e-07
5.31312e-07
1.9586e-06
7.00681e-06
2.42984e-05
8.15752e-05
0.000264767
0.000829496
0.00250419
0.00727061
0.0202567
0.0540186
0.137467
0.332657
0.762336
1.64714
3.3368
6.2554
10.6675
16.6028
23.9883
32.6488
42.3226
52.7424
63.6831
74.9769
86.5041
98.183
109.947
121.762
133.552
145.36
157.011
168.642
180.09
191.303
202.384
213.129
223.497
233.515
243.038
251.956
260.217
267.818
274.417
279.933
284.594
288.171
290.748
292.294
292.943
293.118
293.115
293.242
293.417
293.522
293.692
294.062
294.099
293.522
292.897
292.607
292.725
293.047
293.324
293.378
293.094
292.63
292.187
291.757
291.144
290.074
288.191
284.583
276.954
258.689
201.826
86.6071
16.6155
2.66588
0.399173
0.059091
0.00874144
0.00129426
0.000191877
2.84739e-05
4.22771e-06
6.2754e-07
9.30312e-08
1.37572e-08
2.02574e-09
2.97193e-10
3.82348e-11
)
;

boundaryField
{
    sides
    {
        type            calculated;
        value           nonuniform List<scalar> 2(3.82348e-11 4.65772e-12);
    }
    empty
    {
        type            empty;
    }
}


// ************************************************************************* //
