/*--------------------------------*- C++ -*----------------------------------*\
| =========                 |                                                 |
| \\      /  F ield         | OpenFOAM: The Open Source CFD Toolbox           |
|  \\    /   O peration     | Version:  4.0                                   |
|   \\  /    A nd           | Web:      www.OpenFOAM.org                      |
|    \\/     M anipulation  |                                                 |
\*---------------------------------------------------------------------------*/
FoamFile
{
    version     2.0;
    format      ascii;
    class       volScalarField;
    location    "0.006";
    object      p;
}
// * * * * * * * * * * * * * * * * * * * * * * * * * * * * * * * * * * * * * //

dimensions      [1 -1 -2 0 0 0 0];

internalField   nonuniform List<scalar> 
100
(
100000
100000
100000
100000
100000
100000
100000
100000
100000
100000
100000
100000
100000
99999.9
99999.7
99999.1
99997.4
99992.7
99980.5
99950.2
99879
99721.8
99397
98774.3
97684.4
96036.2
93876.3
91252.9
88264.6
85034.6
81677.1
78280.9
74907.6
71597.3
68375.5
65257.4
62255.3
59368.9
56618.2
53974.3
51490
49107.7
46869.5
44768.7
42793.5
40953.3
39253
37695.5
36286.5
35019.1
33906.8
32926.2
32137.1
31520.9
31013.4
30706.6
30459.9
30377.8
30326
30309.1
30314.2
30319.4
30329.3
30345.2
30388.9
30366.9
30337.8
30329.4
30322.5
30324.6
30284.1
30258.5
30267.6
30252
30219.2
30217.1
30213.2
30201.4
30062.3
29871.6
29568.2
28890.3
27327.7
23105.3
13256.5
10647.3
10101.3
10015.1
10002.2
10000.3
10000
10000
10000
10000
10000
10000
10000
10000
10000
10000
)
;

boundaryField
{
    sides
    {
        type            zeroGradient;
    }
    empty
    {
        type            empty;
    }
}


// ************************************************************************* //
