/*--------------------------------*- C++ -*----------------------------------*\
| =========                 |                                                 |
| \\      /  F ield         | OpenFOAM: The Open Source CFD Toolbox           |
|  \\    /   O peration     | Version:  4.0                                   |
|   \\  /    A nd           | Web:      www.OpenFOAM.org                      |
|    \\/     M anipulation  |                                                 |
\*---------------------------------------------------------------------------*/
FoamFile
{
    version     2.0;
    format      ascii;
    class       volScalarField;
    location    "0.006";
    object      T;
}
// * * * * * * * * * * * * * * * * * * * * * * * * * * * * * * * * * * * * * //

dimensions      [0 0 0 1 0 0 0];

internalField   nonuniform List<scalar> 
100
(
348.432
348.432
348.432
348.432
348.432
348.432
348.432
348.432
348.432
348.432
348.432
348.432
348.432
348.432
348.432
348.431
348.429
348.425
348.413
348.382
348.311
348.154
347.83
347.205
346.107
344.429
342.201
339.445
336.237
332.682
328.884
324.928
320.876
316.773
312.649
308.521
304.437
300.281
296.52
291.869
289.228
283.92
280.828
278.174
273.357
269.568
267.877
265.38
261.238
257.751
256.406
255.935
254.697
251.915
250.176
250.046
250.527
251.765
252.129
251.839
250.602
249.569
249.2
249.563
254.288
274.646
309.545
341.377
366.062
383.022
393.678
399.451
402.065
402.465
401.612
399.262
397.341
396.363
395.545
394.815
393.666
390.82
384.414
369.413
306.009
284.034
279.558
278.867
278.764
278.749
278.746
278.746
278.746
278.746
278.746
278.746
278.746
278.746
278.746
278.746
)
;

boundaryField
{
    sides
    {
        type            zeroGradient;
    }
    empty
    {
        type            empty;
    }
}


// ************************************************************************* //
