/*--------------------------------*- C++ -*----------------------------------*\
| =========                 |                                                 |
| \\      /  F ield         | OpenFOAM: The Open Source CFD Toolbox           |
|  \\    /   O peration     | Version:  4.0                                   |
|   \\  /    A nd           | Web:      www.OpenFOAM.org                      |
|    \\/     M anipulation  |                                                 |
\*---------------------------------------------------------------------------*/
FoamFile
{
    version     2.0;
    format      ascii;
    class       volVectorField;
    location    "0.006";
    object      U;
}
// * * * * * * * * * * * * * * * * * * * * * * * * * * * * * * * * * * * * * //

dimensions      [0 1 -1 0 0 0 0];

internalField   nonuniform List<vector> 
100
(
(4.65772e-12 0 0)
(2.71703e-11 0 0)
(1.19403e-10 0 0)
(5.13218e-10 0 0)
(2.17429e-09 0 0)
(8.95161e-09 0 0)
(3.58856e-08 0 0)
(1.40026e-07 0 0)
(5.31312e-07 0 0)
(1.9586e-06 0 0)
(7.00681e-06 0 0)
(2.42984e-05 0 0)
(8.15752e-05 0 0)
(0.000264767 0 0)
(0.000829496 0 0)
(0.00250419 0 0)
(0.00727061 0 0)
(0.0202567 0 0)
(0.0540186 0 0)
(0.137467 0 0)
(0.332657 0 0)
(0.762336 0 0)
(1.64714 0 0)
(3.3368 0 0)
(6.2554 0 0)
(10.6675 0 0)
(16.6028 0 0)
(23.9883 0 0)
(32.6488 0 0)
(42.3226 0 0)
(52.7424 0 0)
(63.6831 0 0)
(74.9769 0 0)
(86.5041 0 0)
(98.183 0 0)
(109.947 0 0)
(121.762 0 0)
(133.552 0 0)
(145.36 0 0)
(157.011 0 0)
(168.642 0 0)
(180.09 0 0)
(191.303 0 0)
(202.384 0 0)
(213.129 0 0)
(223.497 0 0)
(233.515 0 0)
(243.038 0 0)
(251.956 0 0)
(260.217 0 0)
(267.818 0 0)
(274.417 0 0)
(279.933 0 0)
(284.594 0 0)
(288.171 0 0)
(290.748 0 0)
(292.294 0 0)
(292.943 0 0)
(293.118 0 0)
(293.115 0 0)
(293.242 0 0)
(293.417 0 0)
(293.522 0 0)
(293.692 0 0)
(294.062 0 0)
(294.099 0 0)
(293.522 0 0)
(292.897 0 0)
(292.607 0 0)
(292.725 0 0)
(293.047 0 0)
(293.324 0 0)
(293.378 0 0)
(293.094 0 0)
(292.63 0 0)
(292.187 0 0)
(291.757 0 0)
(291.144 0 0)
(290.074 0 0)
(288.191 0 0)
(284.583 0 0)
(276.954 0 0)
(258.689 0 0)
(201.826 0 0)
(86.6071 0 0)
(16.6155 0 0)
(2.66588 0 0)
(0.399173 0 0)
(0.059091 0 0)
(0.00874144 0 0)
(0.00129426 0 0)
(0.000191877 0 0)
(2.84739e-05 0 0)
(4.22771e-06 0 0)
(6.2754e-07 0 0)
(9.30312e-08 0 0)
(1.37572e-08 0 0)
(2.02574e-09 0 0)
(2.97193e-10 0 0)
(3.82348e-11 0 0)
)
;

boundaryField
{
    sides
    {
        type            zeroGradient;
    }
    empty
    {
        type            empty;
    }
}


// ************************************************************************* //
