/*--------------------------------*- C++ -*----------------------------------*\
| =========                 |                                                 |
| \\      /  F ield         | OpenFOAM: The Open Source CFD Toolbox           |
|  \\    /   O peration     | Version:  4.0                                   |
|   \\  /    A nd           | Web:      www.OpenFOAM.org                      |
|    \\/     M anipulation  |                                                 |
\*---------------------------------------------------------------------------*/
FoamFile
{
    version     2.0;
    format      ascii;
    class       volScalarField;
    location    "0.004";
    object      p;
}
// * * * * * * * * * * * * * * * * * * * * * * * * * * * * * * * * * * * * * //

dimensions      [1 -1 -2 0 0 0 0];

internalField   nonuniform List<scalar> 
1000
(
100000
100000
100000
100000
100000
100000
100000
100000
100000
100000
100000
100000
100000
100000
100000
100000
100000
100000
100000
100000
100000
100000
100000
100000
100000
100000
100000
100000
100000
100000
100000
100000
100000
100000
100000
100000
100000
100000
100000
100000
100000
100000
100000
100000
100000
100000
100000
100000
100000
100000
100000
100000
100000
100000
100000
100000
100000
100000
100000
100000
100000
100000
100000
100000
100000
100000
100000
100000
100000
100000
100000
100000
100000
100000
100000
100000
100000
100000
100000
100000
100000
100000
100000
100000
100000
100000
100000
100000
100000
100000
100000
100000
100000
100000
100000
100000
100000
100000
100000
100000
100000
100000
100000
100000
100000
100000
100000
100000
100000
100000
100000
100000
100000
100000
100000
100000
100000
100000
100000
100000
100000
100000
100000
100000
100000
100000
100000
100000
100000
100000
100000
100000
100000
100000
100000
100000
100000
100000
100000
100000
100000
100000
100000
100000
100000
100000
100000
100000
100000
100000
100000
100000
100000
100000
100000
100000
100000
100000
100000
100000
100000
100000
100000
100000
100000
100000
100000
100000
100000
100000
100000
100000
100000
100000
100000
100000
100000
100000
100000
100000
100000
100000
100000
100000
100000
100000
100000
100000
100000
100000
100000
100000
100000
100000
100000
100000
100000
100000
100000
100000
100000
100000
100000
100000
100000
100000
100000
100000
100000
100000
100000
100000
100000
100000
100000
100000
100000
100000
100000
100000
100000
100000
100000
100000
100000
100000
100000
100000
100000
100000
100000
100000
100000
100000
100000
100000
100000
100000
100000
100000
100000
100000
100000
100000
100000
100000
100000
100000
100000
100000
100000
100000
100000
100000
100000
100000
100000
100000
100000
100000
100000
100000
100000
100000
100000
100000
100000
100000
100000
100000
100000
100000
100000
100000
100000
100000
100000
100000
100000
100000
100000
100000
100000
100000
100000
100000
100000
100000
100000
100000
100000
100000
100000
100000
100000
100000
100000
100000
100000
100000
100000
100000
100000
100000
100000
100000
100000
100000
100000
100000
99999.9
99999.9
99999.9
99999.8
99999.7
99999.5
99999.2
99998.8
99998.3
99997.4
99996.2
99994.4
99991.9
99988.4
99983.6
99977
99968
99955.9
99939.8
99918.7
99891.5
99856.6
99812.4
99757.2
99689.1
99606.2
99506.3
99387.5
99248
99085.9
98899.9
98688.8
98451.7
98188.1
97898
97581.4
97239.1
96871.8
96480.6
96066.8
95631.8
95177.1
94704.3
94214.9
93710.5
93192.5
92662.3
92121.3
91570.7
91011.7
90445.3
89872.5
89294.2
88711.2
88124.3
87534
86941
86345.9
85749
85151
84552
83952.6
83353
82753.5
82154.4
81556
80958.4
80361.9
79766.6
79172.8
78580.6
77990.2
77401.6
76815
76230.6
75648.4
75068.5
74491.1
73916.2
73343.9
72774.3
72207.5
71643.4
71082.2
70523.9
69968.6
69416.3
68867.1
68320.9
67777.9
67238
66701.3
66167.8
65637.5
65110.4
64586.6
64066.1
63548.8
63034.9
62524.2
62016.8
61512.8
61012
60514.6
60020.5
59529.8
59042.3
58558.2
58077.4
57599.9
57125.7
56654.9
56187.3
55723.1
55262.1
54804.4
54350.1
53899
53451.2
53006.6
52565.3
52127.3
51692.5
51261
50832.7
50407.6
49985.8
49567.1
49151.7
48739.5
48330.5
47924.7
47522
47122.6
46726.4
46333.3
45943.4
45556.7
45173.2
44792.9
44415.7
44041.8
43671
43303.5
42939.2
42578.1
42220.2
41865.6
41514.2
41166.2
40821.4
40480
40142
39807.4
39476.2
39148.5
38824.4
38503.8
38186.9
37873.8
37564.4
37258.9
36957.4
36659.9
36366.7
36077.8
35793.3
35513.4
35238.3
34968.2
34703.2
34443.5
34189.5
33941.3
33699.3
33463.7
33234.8
33012.9
32798.5
32591.7
32393.1
32203
32021.8
31849.7
31687.2
31534.5
31391.9
31259.7
31137.9
31026.6
30925.8
30835.4
30755.1
30684.6
30623.3
30570.8
30526.4
30489.4
30459
30434.4
30414.9
30399.6
30387.8
30378.9
30372.3
30367.4
30363.8
30361.2
30359.4
30357.9
30356.8
30355.9
30355.2
30354.5
30353.9
30353.3
30352.8
30352.3
30351.9
30351.5
30351.1
30350.8
30350.6
30350.4
30350.2
30350.1
30350
30349.9
30349.8
30349.8
30349.8
30349.8
30349.7
30349.7
30349.7
30349.7
30349.7
30349.7
30349.7
30349.6
30349.6
30349.6
30349.6
30349.6
30349.5
30349.5
30349.5
30349.5
30349.4
30349.4
30349.4
30349.4
30349.3
30349.3
30349.3
30349.3
30349.2
30349.2
30349.2
30349.2
30349.1
30349.1
30349.1
30349
30349
30349
30349
30348.9
30348.9
30348.9
30348.9
30348.8
30348.8
30348.8
30348.7
30348.7
30348.7
30348.7
30348.6
30348.6
30348.6
30348.6
30348.5
30348.5
30348.4
30348.5
30348.3
30348.4
30348.3
30348.5
30348.3
30348
30348.2
30348.5
30349.4
30346.5
30347.3
30347.4
30347.2
30346.9
30346.8
30346.7
30346.7
30346.8
30346.9
30347.2
30347.4
30347.7
30347.9
30348.1
30348.2
30348.3
30348.4
30348.3
30348.3
30348.2
30348.1
30348
30347.9
30347.8
30347.7
30347.6
30347.5
30347.4
30347.3
30347.3
30347.2
30347.2
30347.2
30347.2
30347.2
30347.2
30347.2
30347.2
30347.2
30347.1
30347
30347
30346.9
30346.8
30346.7
30346.6
30346.6
30346.5
30346.5
30346.5
30346.5
30346.5
30346.5
30346.5
30346.5
30346.5
30346.4
30346.4
30346.3
30346.1
30346
30345.9
30345.8
30345.7
30345.6
30345.5
30345.5
30345.5
30345.5
30345.5
30345.5
30345.5
30345.5
30345.5
30345.5
30345.4
30345.3
30345.1
30344.8
30344.6
30344.4
30344.3
30344.2
30344.2
30344.2
30344.1
30344.1
30344
30344
30344
30344
30344
30344
30344
30343.8
30343.5
30342.9
30342.3
30341.8
30341.3
30340.7
30339.8
30338.3
30336.2
30331.9
30324.3
30314.3
30292.4
30256.7
30190.5
29984.9
29647.3
28649
26689.1
22647
17726.7
13658.6
11334.9
10395.7
10104.4
10026.3
10006.6
10001.6
10000.4
10000.1
10000
10000
10000
10000
10000
10000
10000
10000
10000
10000
10000
10000
10000
10000
10000
10000
10000
10000
10000
10000
10000
10000
10000
10000
10000
10000
10000
10000
10000
10000
10000
10000
10000
10000
10000
10000
10000
10000
10000
10000
10000
10000
10000
10000
10000
10000
10000
10000
10000
10000
10000
10000
10000
10000
10000
10000
10000
10000
10000
10000
10000
10000
10000
10000
10000
10000
10000
10000
10000
10000
10000
10000
10000
10000
10000
10000
10000
10000
10000
10000
10000
10000
10000
10000
10000
10000
10000
10000
10000
10000
10000
10000
10000
10000
10000
10000
10000
10000
10000
10000
10000
10000
10000
10000
10000
10000
10000
10000
10000
10000
10000
10000
10000
10000
10000
10000
10000
10000
10000
10000
10000
10000
10000
10000
10000
10000
10000
10000
10000
10000
10000
10000
10000
10000
10000
10000
10000
10000
10000
10000
10000
10000
10000
10000
10000
10000
10000
10000
10000
10000
10000
10000
10000
10000
10000
10000
10000
10000
10000
10000
10000
10000
10000
10000
10000
10000
10000
10000
10000
10000
10000
10000
10000
10000
10000
10000
10000
10000
10000
10000
10000
10000
10000
10000
10000
10000
10000
10000
10000
10000
10000
10000
10000
10000
10000
10000
10000
10000
10000
10000
10000
10000
10000
10000
10000
10000
10000
10000
10000
10000
10000
10000
10000
10000
10000
10000
10000
10000
10000
10000
10000
10000
10000
10000
10000
10000
10000
10000
10000
10000
10000
10000
10000
10000
10000
10000
10000
10000
10000
10000
10000
10000
10000
10000
10000
10000
10000
10000
10000
10000
10000
10000
10000
10000
10000
10000
10000
10000
10000
10000
10000
10000
10000
10000
10000
10000
10000
10000
10000
)
;

boundaryField
{
    sides
    {
        type            zeroGradient;
    }
    empty
    {
        type            empty;
    }
}


// ************************************************************************* //
