/*--------------------------------*- C++ -*----------------------------------*\
| =========                 |                                                 |
| \\      /  F ield         | OpenFOAM: The Open Source CFD Toolbox           |
|  \\    /   O peration     | Version:  4.0                                   |
|   \\  /    A nd           | Web:      www.OpenFOAM.org                      |
|    \\/     M anipulation  |                                                 |
\*---------------------------------------------------------------------------*/
FoamFile
{
    version     2.0;
    format      ascii;
    class       surfaceScalarField;
    location    "0.004";
    object      phi;
}
// * * * * * * * * * * * * * * * * * * * * * * * * * * * * * * * * * * * * * //

dimensions      [1 0 -1 0 0 0 0];

internalField   nonuniform List<scalar> 
999
(
-3.63798e-12
-2.78533e-12
-2.6148e-12
-2.04636e-12
-2.16005e-12
-2.50111e-12
-2.67164e-12
-2.38742e-12
-2.89901e-12
-2.55795e-12
-2.33058e-12
-2.67164e-12
-3.18323e-12
-3.75167e-12
-3.9222e-12
-4.03588e-12
-3.97904e-12
-3.86535e-12
-3.29692e-12
-3.52429e-12
-3.86535e-12
-3.41061e-12
-2.72848e-12
-2.38742e-12
-1.7053e-12
-1.76215e-12
-2.38742e-12
-2.38742e-12
-2.55795e-12
-3.18323e-12
-2.95586e-12
-2.44427e-12
-3.18323e-12
-3.9222e-12
-4.03588e-12
-4.14957e-12
-3.97904e-12
-3.46745e-12
-3.41061e-12
-4.03588e-12
-4.20641e-12
-5.11591e-12
-5.22959e-12
-4.88853e-12
-4.54747e-12
-3.97904e-12
-3.46745e-12
-3.0127e-12
-3.41061e-12
-3.52429e-12
-3.46745e-12
-3.86535e-12
-4.37694e-12
-3.58114e-12
-3.69482e-12
-4.3201e-12
-4.20641e-12
-3.80851e-12
-3.80851e-12
-3.97904e-12
-4.09273e-12
-4.20641e-12
-4.20641e-12
-4.94538e-12
-5.51381e-12
-5.40012e-12
-5.28644e-12
-5.05906e-12
-6.30962e-12
-6.76437e-12
-6.99174e-12
-7.16227e-12
-6.76437e-12
-6.0254e-12
-5.79803e-12
-5.40012e-12
-4.77485e-12
-4.3201e-12
-4.20641e-12
-4.43379e-12
-4.37694e-12
-4.718e-12
-4.49063e-12
-4.60432e-12
-4.60432e-12
-3.29692e-12
-4.26326e-12
-4.03588e-12
-3.69482e-12
-4.26326e-12
-4.09273e-12
-4.60432e-12
-5.34328e-12
-4.94538e-12
-5.17275e-12
-6.36646e-12
-6.53699e-12
-6.99174e-12
-6.65068e-12
-6.36646e-12
-6.48015e-12
-6.65068e-12
-7.67386e-12
-7.61702e-12
-7.3328e-12
-7.50333e-12
-7.04858e-12
-7.10543e-12
-6.70752e-12
-6.13909e-12
-5.00222e-12
-4.3201e-12
-3.9222e-12
-3.41061e-12
-3.58114e-12
-3.24007e-12
-3.0127e-12
-3.29692e-12
-3.12639e-12
-2.84217e-12
-3.0127e-12
-2.16005e-12
-2.21689e-12
-1.53477e-12
-1.76215e-12
-1.98952e-12
-2.04636e-12
-1.98952e-12
-2.33058e-12
-2.21689e-12
-1.47793e-12
-1.93268e-12
-3.52429e-12
-3.52429e-12
-3.80851e-12
-3.58114e-12
-3.58114e-12
-2.89901e-12
-3.58114e-12
-3.86535e-12
-3.41061e-12
-2.89901e-12
-2.72848e-12
-2.50111e-12
-1.98952e-12
-1.25056e-12
-1.42109e-12
-1.42109e-12
-1.3074e-12
-3.41061e-13
5.68434e-14
3.41061e-13
-5.68434e-14
1.13687e-13
-1.7053e-13
-3.41061e-13
-1.25056e-12
-2.33058e-12
-2.50111e-12
-3.0127e-12
-3.0127e-12
-2.67164e-12
-1.93268e-12
-2.44427e-12
-2.50111e-12
-3.0127e-12
-3.41061e-12
-3.75167e-12
-2.72848e-12
-2.84217e-12
-2.95586e-12
-2.95586e-12
-3.41061e-12
-3.52429e-12
-3.52429e-12
-3.86535e-12
-3.63798e-12
-3.75167e-12
-3.35376e-12
-3.18323e-12
-3.06954e-12
-3.0127e-12
-2.78533e-12
-2.27374e-12
-2.55795e-12
-2.78533e-12
-3.06954e-12
-3.29692e-12
-3.12639e-12
-3.06954e-12
-3.52429e-12
-3.12639e-12
-3.58114e-12
-3.18323e-12
-3.35376e-12
-3.18323e-12
-2.95586e-12
-2.84217e-12
-1.76215e-12
-1.02318e-12
-1.87583e-12
-2.55795e-12
-3.46745e-12
-4.09273e-12
-4.14957e-12
-4.60432e-12
-4.37694e-12
-4.03588e-12
-3.86535e-12
-4.26326e-12
-3.9222e-12
-3.58114e-12
-3.69482e-12
-3.0127e-12
-2.84217e-12
-2.44427e-12
-2.50111e-12
-2.16005e-12
-2.55795e-12
-2.6148e-12
-2.27374e-12
-2.27374e-12
-2.38742e-12
-1.87583e-12
-1.36424e-12
-7.38964e-13
-3.41061e-13
-3.41061e-13
-2.84217e-13
-9.09495e-13
-7.38964e-13
-6.25278e-13
-7.38964e-13
-1.47793e-12
-1.87583e-12
-2.21689e-12
-2.84217e-12
-3.06954e-12
-3.0127e-12
-3.58114e-12
-4.14957e-12
-5.51381e-12
-5.79803e-12
-5.51381e-12
-4.14957e-12
-4.09273e-12
-3.97904e-12
-4.43379e-12
-4.3201e-12
-3.86535e-12
-3.29692e-12
-2.95586e-12
-2.84217e-12
-2.04636e-12
-2.72848e-12
-3.06954e-12
-3.46745e-12
-4.43379e-12
-4.60432e-12
-4.20641e-12
-5.17275e-12
-4.77485e-12
-5.05906e-12
-5.00222e-12
-5.85487e-12
-5.40012e-12
-5.34328e-12
-5.91172e-12
-5.96856e-12
-5.34328e-12
-4.94538e-12
-4.77485e-12
-4.54747e-12
-4.09273e-12
-3.58114e-12
-2.38742e-12
-7.95808e-13
1.02318e-12
4.66116e-12
1.09708e-11
2.48974e-11
5.19549e-11
1.02773e-10
2.00146e-10
3.84603e-10
7.30438e-10
1.37504e-09
2.56841e-09
4.76689e-09
8.79106e-09
1.61115e-08
2.93451e-08
5.31139e-08
9.55285e-08
1.70722e-07
3.03146e-07
5.34789e-07
9.37238e-07
1.63163e-06
2.82137e-06
4.84542e-06
8.26415e-06
1.39966e-05
2.35376e-05
3.9299e-05
6.51383e-05
0.000107173
0.000175019
0.000283656
0.000456203
0.00072801
0.00115261
0.00181025
0.00282006
0.004357
0.00667533
0.0101404
0.0152716
0.0227978
0.0337305
0.0494554
0.0718459
0.103401
0.147405
0.208116
0.290963
0.402759
0.551911
0.748602
1.00494
1.33502
1.75492
2.28256
2.93742
3.74013
4.71194
5.87399
7.24664
8.84865
10.6964
12.8034
15.1796
17.8309
20.7594
23.9633
27.4369
31.1712
35.1542
39.3718
43.8078
48.4451
53.2658
58.252
63.3859
68.6501
74.0283
79.5047
85.0648
90.6949
96.3827
102.117
107.886
113.683
119.497
125.321
131.148
136.973
142.789
148.592
154.376
160.139
165.876
171.585
177.261
182.904
188.509
194.075
199.601
205.084
210.522
215.914
221.259
226.556
231.803
237
242.145
247.238
252.277
257.263
262.195
267.071
271.892
276.658
281.367
286.02
290.616
295.156
299.638
304.063
308.431
312.742
316.995
321.191
325.33
329.412
333.437
337.404
341.315
345.17
348.967
352.709
356.394
360.024
363.598
367.116
370.58
373.988
377.342
380.642
383.887
387.079
390.217
393.303
396.335
399.316
402.241
405.122
407.938
410.725
413.427
416.126
418.717
421.318
423.822
426.294
428.746
431.072
433.461
435.69
437.947
440.143
442.252
444.373
446.414
448.402
450.376
452.283
454.141
455.974
457.754
459.482
461.179
462.833
464.434
466
467.528
469.009
470.448
471.849
473.212
474.53
475.809
477.052
478.254
479.417
480.54
481.628
482.678
483.688
484.662
485.6
486.502
487.366
488.195
488.988
489.747
490.471
491.159
491.814
492.435
493.023
493.578
494.1
494.59
495.048
495.475
495.871
496.238
496.574
496.883
497.163
497.416
497.644
497.845
498.024
498.179
498.313
498.426
498.522
498.6
498.663
498.712
498.75
498.777
498.795
498.806
498.811
498.812
498.809
498.804
498.797
498.789
498.78
498.771
498.763
498.754
498.746
498.737
498.729
498.721
498.713
498.705
498.697
498.689
498.681
498.672
498.663
498.654
498.645
498.635
498.625
498.615
498.604
498.594
498.583
498.572
498.56
498.548
498.536
498.524
498.511
498.498
498.484
498.471
498.457
498.442
498.427
498.412
498.397
498.38
498.364
498.347
498.329
498.311
498.292
498.273
498.253
498.232
498.211
498.189
498.166
498.142
498.118
498.092
498.066
498.039
498.01
497.981
497.95
497.918
497.884
497.85
497.813
497.775
497.735
497.694
497.649
497.604
497.555
497.505
497.45
497.394
497.333
497.27
497.201
497.129
497.049
496.967
496.876
496.781
496.674
496.563
496.438
496.307
496.159
496.007
495.837
495.666
495.491
495.32
495.161
494.99
494.708
494.135
492.868
490.413
486.687
481.498
474.755
466.475
456.781
445.897
434.128
421.823
409.348
397.055
385.252
374.191
364.057
354.967
346.975
340.077
334.23
329.36
325.368
322.149
319.594
317.597
316.061
314.896
314.026
313.387
312.924
312.593
312.361
312.2
312.089
312.014
311.963
311.929
311.906
311.889
311.877
311.868
311.861
311.855
311.849
311.845
311.84
311.836
311.832
311.829
311.825
311.822
311.819
311.816
311.813
311.81
311.808
311.806
311.804
311.802
311.8
311.798
311.797
311.795
311.794
311.793
311.792
311.79
311.789
311.788
311.786
311.785
311.783
311.782
311.78
311.779
311.778
311.776
311.775
311.774
311.773
311.772
311.771
311.77
311.768
311.767
311.765
311.763
311.761
311.76
311.758
311.756
311.754
311.752
311.749
311.746
311.744
311.742
311.74
311.738
311.736
311.73
311.724
311.714
311.701
311.679
311.649
311.591
311.514
311.353
311.131
310.721
309.831
308.092
303.656
293.806
271.062
221.585
150.946
79.9343
32.063
10.0328
2.68933
0.679538
0.169136
0.0419799
0.0104159
0.00258439
0.000641253
0.000159113
3.94809e-05
9.79646e-06
2.43082e-06
6.03166e-07
1.49666e-07
3.71374e-08
9.21541e-09
2.28697e-09
5.67809e-10
1.41171e-10
3.53637e-11
9.08784e-12
2.57216e-12
1.08002e-12
8.2423e-13
7.10543e-13
7.17648e-13
6.53699e-13
7.10543e-13
7.88702e-13
7.60281e-13
6.89226e-13
5.7554e-13
6.46594e-13
5.61329e-13
5.8975e-13
5.40012e-13
4.61853e-13
3.62377e-13
2.84217e-13
2.77112e-13
2.84217e-13
3.83693e-13
5.04485e-13
4.26326e-13
4.26326e-13
4.26326e-13
4.68958e-13
4.90274e-13
5.11591e-13
5.7554e-13
6.18172e-13
6.11067e-13
5.82645e-13
5.82645e-13
6.03961e-13
5.8975e-13
5.11591e-13
5.47118e-13
5.25802e-13
4.76064e-13
3.48166e-13
2.41585e-13
1.84741e-13
1.91847e-13
1.06581e-13
1.35003e-13
1.42109e-13
7.10543e-14
8.52651e-14
1.49214e-13
1.84741e-13
2.06057e-13
2.77112e-13
3.97904e-13
2.4869e-13
2.55795e-13
3.12639e-13
3.19744e-13
2.70006e-13
2.55795e-13
1.63425e-13
9.23706e-14
4.9738e-14
7.10543e-15
7.10543e-14
2.13163e-14
-3.55271e-14
-1.56319e-13
-7.10543e-14
-1.35003e-13
-3.55271e-14
-4.9738e-14
-1.42109e-14
0
9.23706e-14
9.23706e-14
5.68434e-14
9.23706e-14
1.42109e-13
1.35003e-13
1.35003e-13
2.20268e-13
1.98952e-13
3.41061e-13
3.41061e-13
2.98428e-13
2.84217e-13
1.91847e-13
2.13163e-13
1.06581e-13
6.39488e-14
1.06581e-13
7.10543e-14
1.20792e-13
1.42109e-13
7.81597e-14
9.23706e-14
7.81597e-14
7.10543e-15
2.84217e-14
-2.13163e-14
-1.20792e-13
-1.20792e-13
-1.13687e-13
-1.35003e-13
-9.23706e-14
-8.52651e-14
0
-1.42109e-14
1.42109e-14
-1.06581e-13
-1.42109e-13
-1.06581e-13
-3.55271e-14
-2.13163e-14
-2.84217e-14
-3.55271e-14
-1.27898e-13
-6.39488e-14
-3.55271e-14
-4.26326e-14
-7.10543e-15
5.68434e-14
8.52651e-14
4.9738e-14
-7.10543e-14
-7.10543e-15
1.42109e-14
0
-3.55271e-14
-3.55271e-14
-2.13163e-14
0
-2.13163e-14
-1.06581e-13
-2.13163e-14
-4.9738e-14
0
-7.10543e-15
9.23706e-14
9.23706e-14
3.55271e-14
9.23706e-14
1.13687e-13
6.39488e-14
9.23706e-14
1.13687e-13
2.13163e-14
2.13163e-14
-2.84217e-14
4.9738e-14
2.84217e-14
4.26326e-14
4.26326e-14
7.81597e-14
1.35003e-13
1.63425e-13
1.84741e-13
1.98952e-13
1.42109e-13
7.81597e-14
5.68434e-14
-1.42109e-14
2.13163e-14
2.84217e-14
-2.84217e-14
-5.68434e-14
-5.68434e-14
0
2.84217e-14
4.26326e-14
4.9738e-14
4.26326e-14
-3.55271e-14
-2.84217e-14
-5.68434e-14
1.42109e-14
-5.68434e-14
-5.68434e-14
-3.55271e-14
-1.27898e-13
-7.81597e-14
4.9738e-14
4.9738e-14
3.55271e-14
4.9738e-14
9.9476e-14
7.10543e-14
8.52651e-14
7.10543e-15
-7.10543e-15
-6.39488e-14
-7.81597e-14
-1.42109e-13
-1.35003e-13
-1.35003e-13
-7.10543e-14
2.13163e-14
4.9738e-14
-2.13163e-14
7.81597e-14
3.55271e-14
-4.26326e-14
-5.68434e-14
-7.81597e-14
-1.20792e-13
-1.7053e-13
-1.56319e-13
-1.7053e-13
-9.9476e-14
-4.26326e-14
-4.26326e-14
-5.68434e-14
4.9738e-14
7.10543e-15
-1.42109e-14
-1.42109e-14
-7.10543e-14
-7.81597e-14
-7.81597e-14
-2.06057e-13
-1.77636e-13
-1.35003e-13
-9.9476e-14
-8.52651e-14
-4.26326e-14
-3.55271e-14
0
-1.42109e-14
-3.55271e-14
5.68434e-14
2.13163e-14
-4.26326e-14
-7.10543e-15
3.55271e-14
7.81597e-14
2.84217e-14
4.26326e-14
-5.68434e-14
-1.42109e-14
-7.10543e-15
-2.13163e-14
-2.13163e-14
1.42109e-14
4.9738e-14
-7.10543e-15
-5.68434e-14
7.10543e-15
2.13163e-14
1.42109e-14
5.68434e-14
9.9476e-14
1.56319e-13
1.91847e-13
2.84217e-13
2.41585e-13
)
;

boundaryField
{
    sides
    {
        type            calculated;
        value           nonuniform List<scalar> 2(2.32831e-13 3.60887e-12);
    }
    empty
    {
        type            empty;
        value           nonuniform 0();
    }
}


// ************************************************************************* //
