/*--------------------------------*- C++ -*----------------------------------*\
| =========                 |                                                 |
| \\      /  F ield         | OpenFOAM: The Open Source CFD Toolbox           |
|  \\    /   O peration     | Version:  4.0                                   |
|   \\  /    A nd           | Web:      www.OpenFOAM.org                      |
|    \\/     M anipulation  |                                                 |
\*---------------------------------------------------------------------------*/
FoamFile
{
    version     2.0;
    format      ascii;
    class       volScalarField;
    location    "0.004";
    object      T;
}
// * * * * * * * * * * * * * * * * * * * * * * * * * * * * * * * * * * * * * //

dimensions      [0 0 0 1 0 0 0];

internalField   nonuniform List<scalar> 
1000
(
348.432
348.432
348.432
348.432
348.432
348.432
348.432
348.432
348.432
348.432
348.432
348.432
348.432
348.432
348.432
348.432
348.432
348.432
348.432
348.432
348.432
348.432
348.432
348.432
348.432
348.432
348.432
348.432
348.432
348.432
348.432
348.432
348.432
348.432
348.432
348.432
348.432
348.432
348.432
348.432
348.432
348.432
348.432
348.432
348.432
348.432
348.432
348.432
348.432
348.432
348.432
348.432
348.432
348.432
348.432
348.432
348.432
348.432
348.432
348.432
348.432
348.432
348.432
348.432
348.432
348.432
348.432
348.432
348.432
348.432
348.432
348.432
348.432
348.432
348.432
348.432
348.432
348.432
348.432
348.432
348.432
348.432
348.432
348.432
348.432
348.432
348.432
348.432
348.432
348.432
348.432
348.432
348.432
348.432
348.432
348.432
348.432
348.432
348.432
348.432
348.432
348.432
348.432
348.432
348.432
348.432
348.432
348.432
348.432
348.432
348.432
348.432
348.432
348.432
348.432
348.432
348.432
348.432
348.432
348.432
348.432
348.432
348.432
348.432
348.432
348.432
348.432
348.432
348.432
348.432
348.432
348.432
348.432
348.432
348.432
348.432
348.432
348.432
348.432
348.432
348.432
348.432
348.432
348.432
348.432
348.432
348.432
348.432
348.432
348.432
348.432
348.432
348.432
348.432
348.432
348.432
348.432
348.432
348.432
348.432
348.432
348.432
348.432
348.432
348.432
348.432
348.432
348.432
348.432
348.432
348.432
348.432
348.432
348.432
348.432
348.432
348.432
348.432
348.432
348.432
348.432
348.432
348.432
348.432
348.432
348.432
348.432
348.432
348.432
348.432
348.432
348.432
348.432
348.432
348.432
348.432
348.432
348.432
348.432
348.432
348.432
348.432
348.432
348.432
348.432
348.432
348.432
348.432
348.432
348.432
348.432
348.432
348.432
348.432
348.432
348.432
348.432
348.432
348.432
348.432
348.432
348.432
348.432
348.432
348.432
348.432
348.432
348.432
348.432
348.432
348.432
348.432
348.432
348.432
348.432
348.432
348.432
348.432
348.432
348.432
348.432
348.432
348.432
348.432
348.432
348.432
348.432
348.432
348.432
348.432
348.432
348.432
348.432
348.432
348.432
348.432
348.432
348.432
348.432
348.432
348.432
348.432
348.432
348.432
348.432
348.432
348.432
348.432
348.432
348.432
348.432
348.432
348.432
348.432
348.432
348.432
348.432
348.432
348.432
348.432
348.432
348.432
348.432
348.432
348.432
348.432
348.432
348.432
348.432
348.432
348.432
348.432
348.432
348.432
348.432
348.432
348.432
348.432
348.432
348.432
348.432
348.432
348.432
348.432
348.432
348.432
348.432
348.432
348.432
348.432
348.432
348.432
348.432
348.432
348.432
348.431
348.431
348.431
348.43
348.429
348.428
348.426
348.424
348.42
348.416
348.409
348.4
348.388
348.372
348.351
348.324
348.289
348.245
348.19
348.122
348.039
347.939
347.82
347.68
347.518
347.331
347.118
346.88
346.614
346.32
346
345.652
345.278
344.879
344.455
344.008
343.54
343.051
342.543
342.018
341.477
340.92
340.35
339.767
339.173
338.568
337.954
337.331
336.7
336.062
335.417
334.765
334.109
333.447
332.781
332.11
331.435
330.757
330.075
329.39
328.702
328.012
327.319
326.624
325.927
325.228
324.528
323.826
323.122
322.417
321.711
321.004
320.296
319.588
318.878
318.168
317.457
316.746
316.035
315.323
314.611
313.898
313.186
312.474
311.761
311.049
310.337
309.625
308.913
308.202
307.49
306.779
306.069
305.359
304.649
303.94
303.231
302.523
301.815
301.108
300.402
299.696
298.991
298.286
297.583
296.88
296.177
295.476
294.775
294.077
293.374
292.684
291.972
291.303
290.561
289.942
289.136
288.599
287.712
287.243
286.335
285.83
285.027
284.377
283.724
282.979
282.345
281.655
280.951
280.305
279.615
278.93
278.272
277.595
276.917
276.255
275.59
274.916
274.255
273.597
272.932
272.274
271.62
270.967
270.313
269.663
269.019
268.373
267.731
267.093
266.457
265.826
265.194
264.57
263.948
263.331
262.717
262.107
261.505
260.905
260.313
259.725
259.145
258.571
258.005
257.447
256.897
256.358
255.827
255.309
254.801
254.306
253.825
253.358
252.907
252.472
252.056
251.657
251.279
250.92
250.584
250.27
249.979
249.712
249.468
249.248
249.051
248.878
248.726
248.596
248.485
248.392
248.316
248.254
248.206
248.168
248.14
248.118
248.104
248.094
248.088
248.084
248.083
248.083
248.084
248.085
248.087
248.09
248.092
248.096
248.098
248.102
248.104
248.109
248.112
248.117
248.12
248.126
248.129
248.136
248.139
248.146
248.15
248.158
248.161
248.17
248.174
248.183
248.187
248.196
248.2
248.211
248.214
248.226
248.23
248.241
248.246
248.258
248.263
248.276
248.281
248.295
248.3
248.316
248.321
248.338
248.343
248.361
248.367
248.386
248.393
248.413
248.42
248.442
248.45
248.474
248.483
248.509
248.518
248.547
248.557
248.589
248.6
248.635
248.647
248.686
248.7
248.743
248.759
248.808
248.826
248.882
248.902
248.967
248.99
249.066
249.093
249.182
249.214
249.319
249.356
249.478
249.519
249.654
249.69
249.822
249.857
249.995
250.144
250.588
251.463
253.027
255.333
258.506
262.63
267.757
273.89
280.982
288.938
297.612
306.817
316.331
325.911
335.315
344.315
352.716
360.368
367.174
373.089
378.117
382.3
385.71
388.435
390.573
392.219
393.465
394.392
395.07
395.558
395.903
396.144
396.31
396.423
396.499
396.55
396.585
396.608
396.625
396.637
396.646
396.653
396.659
396.665
396.67
396.674
396.678
396.682
396.685
396.688
396.691
396.694
396.697
396.699
396.701
396.702
396.704
396.705
396.706
396.707
396.708
396.708
396.709
396.709
396.709
396.709
396.709
396.709
396.71
396.71
396.71
396.711
396.711
396.711
396.711
396.712
396.712
396.712
396.711
396.711
396.71
396.709
396.709
396.708
396.709
396.709
396.709
396.709
396.709
396.708
396.708
396.709
396.709
396.709
396.709
396.709
396.708
396.707
396.704
396.703
396.701
396.701
396.697
396.699
396.686
396.687
396.655
396.65
396.579
396.549
396.328
396.198
395.141
393.941
389.197
381.214
360.578
332.195
305.734
288.784
281.717
279.536
278.948
278.797
278.759
278.749
278.747
278.746
278.746
278.746
278.746
278.746
278.746
278.746
278.746
278.746
278.746
278.746
278.746
278.746
278.746
278.746
278.746
278.746
278.746
278.746
278.746
278.746
278.746
278.746
278.746
278.746
278.746
278.746
278.746
278.746
278.746
278.746
278.746
278.746
278.746
278.746
278.746
278.746
278.746
278.746
278.746
278.746
278.746
278.746
278.746
278.746
278.746
278.746
278.746
278.746
278.746
278.746
278.746
278.746
278.746
278.746
278.746
278.746
278.746
278.746
278.746
278.746
278.746
278.746
278.746
278.746
278.746
278.746
278.746
278.746
278.746
278.746
278.746
278.746
278.746
278.746
278.746
278.746
278.746
278.746
278.746
278.746
278.746
278.746
278.746
278.746
278.746
278.746
278.746
278.746
278.746
278.746
278.746
278.746
278.746
278.746
278.746
278.746
278.746
278.746
278.746
278.746
278.746
278.746
278.746
278.746
278.746
278.746
278.746
278.746
278.746
278.746
278.746
278.746
278.746
278.746
278.746
278.746
278.746
278.746
278.746
278.746
278.746
278.746
278.746
278.746
278.746
278.746
278.746
278.746
278.746
278.746
278.746
278.746
278.746
278.746
278.746
278.746
278.746
278.746
278.746
278.746
278.746
278.746
278.746
278.746
278.746
278.746
278.746
278.746
278.746
278.746
278.746
278.746
278.746
278.746
278.746
278.746
278.746
278.746
278.746
278.746
278.746
278.746
278.746
278.746
278.746
278.746
278.746
278.746
278.746
278.746
278.746
278.746
278.746
278.746
278.746
278.746
278.746
278.746
278.746
278.746
278.746
278.746
278.746
278.746
278.746
278.746
278.746
278.746
278.746
278.746
278.746
278.746
278.746
278.746
278.746
278.746
278.746
278.746
278.746
278.746
278.746
278.746
278.746
278.746
278.746
278.746
278.746
278.746
278.746
278.746
278.746
278.746
278.746
278.746
278.746
278.746
278.746
278.746
278.746
278.746
278.746
278.746
278.746
278.746
278.746
278.746
278.746
278.746
278.746
278.746
278.746
278.746
278.746
278.746
278.746
278.746
278.746
278.746
278.746
278.746
278.746
278.746
278.746
278.746
278.746
278.746
278.746
278.746
278.746
278.746
278.746
278.746
278.746
278.746
278.746
278.746
278.746
278.746
278.746
278.746
278.746
278.746
278.746
278.746
278.746
278.746
278.746
278.746
)
;

boundaryField
{
    sides
    {
        type            zeroGradient;
    }
    empty
    {
        type            empty;
    }
}


// ************************************************************************* //
