/*--------------------------------*- C++ -*----------------------------------*\
| =========                 |                                                 |
| \\      /  F ield         | OpenFOAM: The Open Source CFD Toolbox           |
|  \\    /   O peration     | Version:  4.0                                   |
|   \\  /    A nd           | Web:      www.OpenFOAM.org                      |
|    \\/     M anipulation  |                                                 |
\*---------------------------------------------------------------------------*/
FoamFile
{
    version     2.0;
    format      ascii;
    class       surfaceScalarField;
    location    "26";
    object      phi;
}
// * * * * * * * * * * * * * * * * * * * * * * * * * * * * * * * * * * * * * //

dimensions      [0 3 -1 0 0 0 0];

internalField   nonuniform List<scalar> 
4262
(
0.107141
0.470847
0.0955782
0.705149
0.0693855
0.858496
0.0473994
1.02075
0.0310702
1.21485
0.0198583
1.44943
0.0124295
1.73329
0.00725475
2.07621
0.00333209
2.48917
-0.00029478
2.98592
-0.00390092
2.9859
-0.00782339
2.48917
-0.01296
2.07617
-0.0203055
1.73321
-0.031362
1.44928
-0.0475627
1.21472
-0.0694378
1.02064
-0.0955706
0.858436
-0.107183
0.705198
0.470805
0.112859
0.357989
0.135254
0.682753
0.12031
0.87344
0.0976112
1.04345
0.0741636
1.23829
0.0523867
1.47121
0.0341407
1.75154
0.0202246
2.09013
0.00921196
2.50018
-0.00082443
2.99596
-0.0108941
2.99597
-0.0217514
2.50002
-0.0354448
2.08987
-0.0534824
1.75125
-0.0752123
1.47101
-0.0987312
1.23824
-0.121568
1.04348
-0.136041
0.872909
-0.11321
0.682367
0.357595
0.0920289
0.26596
0.124982
0.6498
0.121217
0.877205
0.105046
1.05962
0.0864234
1.25692
0.06738
1.49025
0.0486018
1.77032
0.0305705
2.10816
0.0141193
2.51663
-0.00148142
3.01156
-0.0169804
3.01147
-0.0330663
2.51611
-0.0507954
2.1076
-0.0692703
1.76972
-0.0879114
1.48965
-0.105911
1.25624
-0.121224
1.05879
-0.125395
0.877081
-0.0922667
0.649239
0.265329
0.0639296
0.20203
0.104722
0.609007
0.106601
0.875326
0.0954999
1.07072
0.0818739
1.27054
0.0673047
1.50482
0.0510312
1.78659
0.0338388
2.12535
0.0162808
2.53419
-0.00228354
3.03012
-0.0205762
3.02976
-0.0376744
2.53321
-0.0543254
2.12425
-0.0701502
1.78555
-0.0842531
1.50375
-0.0976009
1.26958
-0.108617
1.0698
-0.105997
0.874461
-0.0644594
0.607701
0.200869
0.037258
0.164772
0.0802036
0.566061
0.0903041
0.865226
0.08315
1.07787
0.0709439
1.28275
0.0593185
1.51645
0.0465018
1.79941
0.0317638
2.14009
0.0153767
2.55058
-0.00292463
3.04842
-0.02108
3.04791
-0.0371736
2.5493
-0.0514581
2.13853
-0.0635181
1.79761
-0.0745012
1.51473
-0.0861814
1.28126
-0.0927285
1.07635
-0.0817719
0.863504
-0.0378217
0.563751
0.163048
0.0193182
0.145454
0.0569339
0.528446
0.0721636
0.849996
0.0697875
1.08025
0.0608404
1.2917
0.050286
1.527
0.0395051
1.81019
0.0274901
2.1521
0.0130283
2.56504
-0.00395846
3.06541
-0.0206337
3.06459
-0.0343477
2.56302
-0.0452911
2.14947
-0.0553449
1.80766
-0.0652865
1.52467
-0.0734678
1.28944
-0.0750385
1.07792
-0.058715
0.847181
-0.0199074
0.524943
0.14314
0.0105246
0.134929
0.0418271
0.497143
0.0579515
0.833872
0.0582362
1.07997
0.051953
1.29798
0.0425673
1.53639
0.0326438
1.82011
0.0220336
2.16271
0.0099439
2.57713
-0.00482189
3.08017
-0.0191859
3.07895
-0.030457
2.57429
-0.0402425
2.15926
-0.0490969
1.81651
-0.0574363
1.53301
-0.0627301
1.29474
-0.0614228
1.07661
-0.0439268
0.829685
-0.0111895
0.492206
0.131951
0.00615455
0.128775
0.0313584
0.471939
0.0470337
0.818196
0.0488057
1.07819
0.0442179
1.30257
0.0364247
1.54418
0.0274674
1.82907
0.017533
2.17265
0.00640316
2.58826
-0.00647379
3.09305
-0.0188364
3.09132
-0.0289282
2.58438
-0.0374706
2.1678
-0.0447923
1.82384
-0.0513216
1.53954
-0.0546399
1.29806
-0.0514646
1.07344
-0.0339732
0.812194
-0.00696329
0.465196
0.124987
0.00404542
0.124729
0.0246268
0.451358
0.0396546
0.803168
0.042073
1.07578
0.038293
1.30635
0.0316533
1.55082
0.023657
1.83706
0.0143401
2.18197
0.00383505
2.59876
-0.00777535
3.10466
-0.0188048
3.10235
-0.0279805
2.59355
-0.0355716
2.17539
-0.042284
1.83055
-0.0475321
1.54479
-0.0496179
1.30014
-0.0452322
1.06905
-0.0279197
0.794881
-0.00511157
0.442388
0.119876
0.00304902
0.12168
0.0193024
0.435104
0.0332538
0.789217
0.0362289
1.0728
0.0330739
1.3095
0.0271155
1.55678
0.0198507
1.84433
0.0109973
2.19082
0.000910576
2.60885
-0.00984539
3.11542
-0.0199203
3.11242
-0.0281668
2.6018
-0.0351049
2.18233
-0.0400626
1.83551
-0.0435778
1.54831
-0.0447931
1.30136
-0.0397589
1.06402
-0.0230734
0.778196
-0.0042379
0.423552
0.115638
0.00191948
0.119761
0.0130438
0.42398
0.0248613
0.7774
0.027692
1.06997
0.0250616
1.31213
0.0203725
1.56147
0.0144185
1.85028
0.00697431
2.19826
-0.00192295
2.61775
-0.0121286
3.12562
-0.0214254
3.12172
-0.0283087
2.60868
-0.0332493
2.18727
-0.0367209
1.83898
-0.0392485
1.55083
-0.0393809
1.30149
-0.0334449
1.05808
-0.0179411
0.762692
-0.0035608
0.409172
0.112077
0.000754408
0.119006
0.00720756
0.417527
0.0163838
0.768223
0.0189046
1.06745
0.0163907
1.31465
0.0120057
1.56585
0.00648518
1.8558
0.000258031
2.20449
-0.00699327
2.625
-0.0152
3.13383
-0.0222112
3.12873
-0.0266078
2.61308
-0.0292936
2.18996
-0.0318011
1.84149
-0.0332433
1.55228
-0.0323679
1.30062
-0.0260415
1.05176
-0.0127232
0.749373
-0.00268848
0.399137
0.109389
-0.000116419
0.119123
0.00239445
0.415016
0.00863755
0.76198
0.0106421
1.06544
0.0084004
1.31689
0.00441632
1.56984
-0.000516909
1.86074
-0.00617862
2.21015
-0.0122913
2.63111
-0.0186755
3.14021
-0.0236414
3.1337
-0.0266794
2.61612
-0.0284699
2.19175
-0.0291848
1.8422
-0.0291189
1.55221
-0.0275208
1.29902
-0.0208896
1.04513
-0.00942797
0.737912
-0.00213421
0.391843
0.107254
-0.000891478
0.120014
-0.000862934
0.414988
0.00295614
0.758161
0.00435967
1.06404
0.00218348
1.31906
-0.00179204
1.57381
-0.00677289
1.86572
-0.012309
2.21569
-0.0181983
2.637
-0.0239454
3.14596
-0.0279151
3.13766
-0.029686
2.61789
-0.029936
2.192
-0.0289735
1.84124
-0.0274394
1.55068
-0.024487
1.29606
-0.0176349
1.03827
-0.00783992
0.728117
-0.00198811
0.385992
0.105266
-0.00177122
0.121786
-0.00344898
0.416665
-0.00282804
0.75754
-0.00275807
1.06397
-0.00500451
1.32131
-0.00844018
1.57725
-0.0128031
1.87008
-0.017962
2.22085
-0.0236708
2.64271
-0.0291198
3.15141
-0.0323014
3.14085
-0.0327481
2.61834
-0.0318427
2.19109
-0.0300021
1.8394
-0.027504
1.54818
-0.0235521
1.29211
-0.0163525
1.03107
-0.00737299
0.719137
-0.00202349
0.380642
0.103243
-0.00250153
0.124287
-0.00626592
0.42043
-0.0078521
0.759126
-0.00879478
1.06491
-0.0114455
1.32396
-0.015348
1.58115
-0.0200561
1.87479
-0.0254734
2.22626
-0.0312671
2.6485
-0.036476
3.15662
-0.0389206
3.14329
-0.0382602
2.61768
-0.0358966
2.18873
-0.0327987
1.8363
-0.028611
1.54399
-0.0230351
1.28654
-0.0152903
1.02333
-0.00709763
0.710945
-0.00206231
0.375607
0.101181
-0.00332598
0.127613
-0.00893218
0.426036
-0.0124856
0.76268
-0.014734
1.06716
-0.0175796
1.32681
-0.0216629
1.58523
-0.0269869
1.88011
-0.0332672
2.23254
-0.0397407
2.65497
-0.0450905
3.16197
-0.0469252
3.14513
-0.0454358
2.61619
-0.0417934
2.18509
-0.0372721
1.83178
-0.0319353
1.53865
-0.0255012
1.2801
-0.0169894
1.01482
-0.0082848
0.70224
-0.00248089
0.369803
0.0986997
-0.00371534
0.131328
-0.0104612
0.432782
-0.0156029
0.767822
-0.0186821
1.07024
-0.0223866
1.33051
-0.0276702
1.59052
-0.0344294
1.88687
-0.0423684
2.24048
-0.0504607
2.66307
-0.0567681
3.16828
-0.0585096
3.14687
-0.0566493
2.61433
-0.0522138
2.18065
-0.0463197
1.82588
-0.0386569
1.53099
-0.0296647
1.27111
-0.0194335
1.00459
-0.00996881
0.692775
-0.00312454
0.362959
0.0955751
-0.00492756
0.136256
-0.0140231
0.441877
-0.021654
0.775453
-0.0260958
1.07468
-0.0299314
1.33435
-0.0357319
1.59632
-0.0439045
1.89505
-0.0535733
2.25015
-0.0632603
2.67275
-0.0705194
3.17554
-0.0722807
3.14863
-0.0694698
2.61151
-0.063405
2.17459
-0.0556186
1.8181
-0.0463064
1.52168
-0.0356794
1.26048
-0.0238841
0.992791
-0.0126294
0.681521
-0.00397418
0.354303
0.0916009
-0.0060754
0.142331
-0.0170015
0.452803
-0.0268032
0.785254
-0.0334133
1.08129
-0.039461
1.34039
-0.0475001
1.60436
-0.0577518
1.9053
-0.069305
2.26171
-0.0804127
2.68386
-0.0879562
3.18308
-0.0887359
3.14941
-0.0842282
2.60701
-0.0766846
2.16704
-0.0669043
1.80832
-0.055103
1.50988
-0.0415726
1.24695
-0.027526
0.978744
-0.0148197
0.668814
-0.0047384
0.344222
0.0868625
-0.00822128
0.150553
-0.0230808
0.467663
-0.0364121
0.798586
-0.0455471
1.09043
-0.053345
1.34819
-0.0632629
1.61427
-0.0756305
1.91766
-0.0891455
2.27522
-0.101214
2.69593
-0.108408
3.19027
-0.10777
3.14877
-0.10108
2.60032
-0.0906125
2.15658
-0.0777241
1.79543
-0.0635025
1.49566
-0.0483635
1.23181
-0.0329017
0.963282
-0.0179844
0.653897
-0.00564214
0.33188
0.0812204
-0.0102812
0.160834
-0.0289171
0.486299
-0.0466091
0.816278
-0.0598682
1.10369
-0.0715978
1.35992
-0.0851297
1.62781
-0.100576
1.93311
-0.116007
2.29065
-0.128698
2.70862
-0.134769
3.19634
-0.131027
3.14503
-0.120672
2.58996
-0.107235
2.14314
-0.091814
1.78001
-0.0750238
1.47887
-0.0572012
1.21399
-0.0388499
0.944931
-0.0212556
0.636303
-0.00667219
0.317296
0.0745482
-0.0149828
0.175817
-0.0402863
0.511602
-0.0629303
0.838922
-0.0804741
1.12123
-0.0965005
1.37595
-0.114044
1.64535
-0.132292
1.95136
-0.14925
2.30761
-0.161551
2.72092
-0.165025
3.19982
-0.15758
3.13758
-0.143623
2.576
-0.126215
2.12573
-0.106976
1.76077
-0.0871198
1.45901
-0.0670772
1.19395
-0.0466717
0.924526
-0.0258817
0.615513
-0.00792731
0.299342
0.0666209
-0.0191345
0.194951
-0.051941
0.544409
-0.0827806
0.869761
-0.107333
1.14578
-0.129843
1.39846
-0.152268
1.66777
-0.173735
1.97283
-0.191636
2.32551
-0.202576
2.73186
-0.202622
3.19987
-0.190143
3.12511
-0.170719
2.55658
-0.148894
2.10391
-0.126463
1.73834
-0.103986
1.43653
-0.0809269
1.17089
-0.0560393
0.899638
-0.0303226
0.589796
-0.0090302
0.278049
0.0575907
-0.0334159
0.228367
-0.0781686
0.589161
-0.117134
0.908727
-0.14777
1.17642
-0.176393
1.42708
-0.203397
1.69478
-0.22671
1.99614
-0.243943
2.34274
-0.251789
2.73971
-0.246188
3.19426
-0.226951
3.10587
-0.202387
2.53202
-0.176031
2.07755
-0.149265
1.71157
-0.122762
1.41003
-0.0958127
1.14394
-0.0670959
0.870921
-0.0367397
0.55944
-0.0105688
0.251879
0.0470219
-0.0470753
0.275442
-0.114686
0.656772
-0.168124
0.962165
-0.20725
1.21554
-0.242734
1.46256
-0.271561
1.72361
-0.293984
2.01856
-0.307684
2.35644
-0.309569
2.74159
-0.296146
3.18084
-0.270094
3.07982
-0.23956
2.50148
-0.208025
2.04602
-0.177619
1.68117
-0.148332
1.38074
-0.117734
1.11334
-0.0822894
0.835476
-0.0420586
0.519209
-0.0106129
0.220433
0.036409
-0.0319212
0.307364
-0.0886812
0.713532
-0.138969
1.01245
-0.183114
1.25969
-0.224577
1.50403
-0.262006
1.76103
-0.296458
2.05301
-0.325142
2.38513
-0.344264
2.76071
-0.347143
3.18372
-0.328379
3.06105
-0.296932
2.47003
-0.259207
2.00829
-0.217831
1.63979
-0.174624
1.33754
-0.129256
1.06797
-0.0801927
0.786412
-0.034933
0.473949
-0.00759051
0.19309
0.0288185
-0.00971576
0.317079
-0.0386778
0.742494
-0.0762294
1.05
-0.113639
1.2971
-0.150062
1.54045
-0.184603
1.79558
-0.215893
2.0843
-0.240973
2.41021
-0.255447
2.77519
-0.252075
3.18035
-0.229627
3.0386
-0.19728
2.43769
-0.159316
1.97033
-0.119873
1.60035
-0.080917
1.29858
-0.0441752
1.03123
-0.0145208
0.756758
0.00160941
0.457819
0.00312123
0.191578
0.0319398
0.00332741
0.313752
-0.0169383
0.76276
-0.0443983
1.07746
-0.0740975
1.3268
-0.104255
1.57061
-0.133951
1.82527
-0.161157
2.11151
-0.182756
2.43181
-0.194527
2.78696
-0.191005
3.17683
-0.170179
3.01778
-0.138114
2.40562
-0.101803
1.93402
-0.0657046
1.56425
-0.0324284
1.2653
-0.00479857
1.0036
0.0136428
0.738317
0.0161676
0.455294
0.00715856
0.200588
0.0390983
0.00327683
0.310475
-0.00730234
0.773339
-0.0276506
1.09781
-0.052065
1.35121
-0.0770758
1.59562
-0.102146
1.85034
-0.125481
2.13485
-0.144194
2.45052
-0.15401
2.79678
-0.149357
3.17217
-0.127517
2.99594
-0.0985965
2.3767
-0.0690245
1.90444
-0.040763
1.53599
-0.0148583
1.2394
0.0062832
0.982462
0.0184669
0.726133
0.0175457
0.456216
0.006855
0.211278
0.0459533
0.00561564
0.304859
-0.00162241
0.780577
-0.0194078
1.1156
-0.0400143
1.37182
-0.061248
1.61685
-0.082958
1.87205
-0.103419
2.15531
-0.120055
2.46715
-0.129063
2.80578
-0.125387
3.1685
-0.108292
2.97884
-0.0855678
2.35398
-0.0599633
1.87884
-0.034101
1.51012
-0.0103542
1.21565
0.00822578
0.963882
0.0169053
0.717453
0.0139695
0.459151
0.00492735
0.22032
0.0508807
0.00602317
0.298836
0.000882242
0.785718
-0.0147096
1.13119
-0.0331969
1.39031
-0.0522734
1.63593
-0.0716753
1.89145
-0.0900734
2.1737
-0.105145
2.48223
-0.113438
2.81408
-0.110082
3.16514
-0.0942926
2.96305
-0.0723116
2.332
-0.0487516
1.85528
-0.0266376
1.48801
-0.00838937
1.1974
0.0051466
0.950346
0.0118484
0.710752
0.00961685
0.461383
0.00321553
0.226722
0.0540962
0.00407194
0.294764
0.00041049
0.78938
-0.0131203
1.14472
-0.0298362
1.40702
-0.0474865
1.65358
-0.0653501
1.90932
-0.0824578
2.19081
-0.0969303
2.4967
-0.10582
2.82297
-0.104859
3.16418
-0.0915028
2.9497
-0.0722648
2.31276
-0.0529347
1.83595
-0.0353776
1.47045
-0.0183453
1.18037
-0.00475123
0.936752
0.00151762
0.704483
0.0027132
0.460187
0.00111809
0.228317
0.0552143
0.0026615
0.292103
-0.000430549
0.792472
-0.01263
1.15692
-0.0283482
1.42274
-0.0451778
1.67041
-0.0620947
1.92623
-0.0784961
2.20721
-0.0928096
2.51101
-0.102013
2.83217
-0.101438
3.1636
-0.0889692
2.93723
-0.072342
2.29613
-0.0542285
1.81784
-0.0351841
1.45141
-0.0208616
1.16605
-0.0109146
0.926805
-0.00505951
0.698628
-0.0037733
0.458901
-0.0012077
0.225751
0.0540066
-7.20212e-05
0.292175
-0.00315128
0.795551
-0.0136836
1.16745
-0.0282068
1.43726
-0.0441575
1.68636
-0.0606009
1.94268
-0.0767898
2.2234
-0.0913081
2.52553
-0.101434
2.8423
-0.103061
3.16523
-0.0938263
2.92799
-0.0773489
2.27965
-0.0591671
1.79965
-0.0445311
1.43677
-0.0312881
1.15281
-0.0205604
0.916077
-0.0128499
0.690917
-0.00672271
0.452774
-0.00210275
0.221131
0.0519038
-0.000541756
0.292717
-0.00528218
0.800291
-0.0154503
1.17762
-0.0287399
1.45055
-0.0439254
1.70155
-0.0599874
1.95874
-0.0761535
2.23957
-0.0910118
2.54039
-0.10201
2.85329
-0.104991
3.16821
-0.0963956
2.9194
-0.0820238
2.26528
-0.0674321
1.78506
-0.0515076
1.42085
-0.0367334
1.13803
-0.0243057
0.903649
-0.0153333
0.681945
-0.00882943
0.44627
-0.00277377
0.215076
0.0491301
-0.00252028
0.295237
-0.00776367
0.805535
-0.0172661
1.18712
-0.0296444
1.46293
-0.0440346
1.71594
-0.0597307
1.97444
-0.0760335
2.25587
-0.0915954
2.55595
-0.104412
2.86611
-0.110762
3.17456
-0.104934
2.91357
-0.0907036
2.25105
-0.0726418
1.767
-0.0572977
1.4055
-0.0432988
1.12403
-0.0322528
0.892603
-0.0215118
0.671204
-0.0106138
0.435372
-0.00328197
0.207744
0.0458481
-0.00388734
0.299124
-0.00929604
0.810944
-0.0185643
1.19639
-0.0304889
1.47486
-0.0443158
1.72976
-0.0596437
1.98976
-0.0760399
2.27227
-0.0922975
2.57221
-0.106144
2.87996
-0.112861
3.18128
-0.108258
2.90897
-0.096748
2.23954
-0.0817505
1.752
-0.0639125
1.38767
-0.0488778
1.109
-0.0342229
0.877948
-0.0219827
0.658964
-0.0120647
0.425454
-0.00362575
0.199305
0.0422224
-0.00444165
0.303566
-0.0106558
0.817158
-0.0197672
1.2055
-0.0312271
1.48632
-0.0445146
1.74305
-0.0595032
2.00475
-0.0759615
2.28873
-0.0928979
2.58914
-0.108579
2.89564
-0.120396
3.1931
-0.121124
2.9097
-0.108439
2.22686
-0.0892567
1.73282
-0.0719907
1.3704
-0.0556059
1.09261
-0.0422555
0.864598
-0.0286777
0.645386
-0.0138365
0.410613
-0.00398605
0.189454
0.0382363
-0.00444871
0.308015
-0.011082
0.823791
-0.0202359
1.21466
-0.0315113
1.49759
-0.0445485
1.75609
-0.0593021
2.01951
-0.0758025
2.30523
-0.093469
2.60681
-0.110706
2.91288
-0.123478
3.20587
-0.123869
2.91009
-0.115324
2.21831
-0.101097
1.71859
-0.080405
1.34971
-0.0609166
1.07313
-0.0427355
0.846417
-0.0271299
0.62978
-0.0142547
0.397738
-0.00393129
0.179131
0.034305
-0.00447268
0.312487
-0.0116003
0.830919
-0.0206334
1.22369
-0.0315927
1.50855
-0.0443093
1.7688
-0.0588201
2.03402
-0.0753243
2.32173
-0.093315
2.6248
-0.111399
2.93096
-0.126694
3.22116
-0.132965
2.91636
-0.12578
2.21113
-0.107524
1.70034
-0.0875635
1.32975
-0.0662004
1.05176
-0.0490692
0.829286
-0.0329012
0.613612
-0.015279
0.380116
-0.00369025
0.167542
0.0306148
-0.00442623
0.316913
-0.0115055
0.837998
-0.0203776
1.23256
-0.0311443
1.51932
-0.0436972
1.78136
-0.0580404
2.04836
-0.0744886
2.33818
-0.0929176
2.64323
-0.11265
2.95069
-0.131151
3.23967
-0.139857
2.92506
-0.134113
2.20538
-0.120093
1.68632
-0.0972548
1.30691
-0.0726734
1.02718
-0.0464323
0.803044
-0.0256492
0.592829
-0.0122322
0.366699
-0.00281982
0.15813
0.027795
-0.00446877
0.321382
-0.0116579
0.845187
-0.0202445
1.24115
-0.0306244
1.5297
-0.0428019
1.79353
-0.0568846
2.06244
-0.0732969
2.35459
-0.0920482
2.66198
-0.112306
2.97095
-0.131669
3.25903
-0.144049
2.93744
-0.14369
2.20502
-0.128557
1.67119
-0.105843
1.28419
-0.0772958
0.998634
-0.0506613
0.77641
-0.0262313
0.568399
-0.00890962
0.349377
-0.00251859
0.151739
0.0252764
-0.00436776
0.32575
-0.0112811
0.8521
-0.0195913
1.24946
-0.0296725
1.53978
-0.0415706
1.80543
-0.0554238
2.07629
-0.0716909
2.37086
-0.0904667
2.68076
-0.111671
2.99215
-0.134048
3.28141
-0.149152
2.95255
-0.150342
2.20621
-0.14108
1.66192
-0.118393
1.26151
-0.0859477
0.966188
-0.0438255
0.734288
-0.00271955
0.527293
0.0197048
0.326953
0.0205116
0.150932
0.045788
-0.0042627
0.330013
-0.0111493
0.858987
-0.0191425
1.25745
-0.0287771
1.54941
-0.0401829
1.81684
-0.0536348
2.08975
-0.0696863
2.38691
-0.0886308
2.6997
-0.110589
3.01411
-0.134184
3.305
-0.151438
2.9698
-0.159915
2.21469
-0.151102
1.65311
-0.129797
1.2402
-0.0935877
0.929979
-0.0499231
0.690623
0.00373071
0.47364
0.0322471
0.298436
0.0147149
0.168464
0.0605029
-0.00401954
0.334032
-0.0105626
0.86553
-0.0182488
1.26514
-0.0275182
1.55868
-0.0385907
1.82791
-0.0517188
2.10288
-0.0675349
2.40273
-0.0863986
2.71857
-0.108565
3.03628
-0.133418
3.32985
-0.154425
2.99081
-0.164047
2.22431
-0.164895
1.65396
-0.147704
1.22301
-0.113306
0.895581
-0.0489295
0.626247
0.0512754
0.373435
0.155343
0.194368
0.169498
0.15431
0.23
-0.00386832
0.337901
-0.01043
0.872092
-0.0180127
1.27272
-0.0271781
1.56785
-0.0382962
1.83903
-0.0517405
2.11632
-0.0683445
2.41933
-0.0887422
2.73896
-0.113828
3.06137
-0.14392
3.35995
-0.170708
3.0176
-0.188991
2.2426
-0.190516
1.65548
-0.177461
1.20996
-0.144349
0.862469
-0.105083
0.586981
-0.126391
0.394743
-0.366196
0.434173
-0.922417
0.710531
0.892135
-1.58455
-0.00364125
0.341542
-0.00985714
0.878308
-0.0172224
1.28009
-0.026222
1.57685
-0.0372386
1.85005
-0.0507682
2.12985
-0.067741
2.4363
-0.0889494
2.76017
-0.115398
3.08781
-0.147643
3.39219
-0.17941
3.04936
-0.202703
2.26589
-0.224743
1.67752
-0.230978
1.21619
-0.228941
0.860431
-0.306598
0.664638
-0.686913
0.775059
-1.4019
1.14915
-2.01722
1.32585
1.22097
-2.34605
-0.00346199
0.345004
-0.00949536
0.884341
-0.0166031
1.28719
-0.0253341
1.58558
-0.0361319
1.86084
-0.049612
2.14333
-0.0667888
2.45348
-0.088718
2.7821
-0.1173
3.1164
-0.154979
3.42987
-0.194059
3.08844
-0.227689
2.29952
-0.250258
1.70009
-0.261286
1.22722
-0.349446
0.948592
-0.743614
1.05881
-1.50103
1.53247
-2.08634
1.73447
-2.33168
1.57119
1.33799
-2.4487
-0.00319495
0.348199
-0.00879729
0.889943
-0.0156154
1.29401
-0.0241241
1.59409
-0.0347539
1.87147
-0.0482281
2.1568
-0.0656429
2.47089
-0.0882716
2.80473
-0.118048
3.14617
-0.156585
3.46841
-0.199386
3.13124
-0.238745
2.33888
-0.283979
1.74533
-0.378039
1.32128
-0.69754
1.26809
-1.40747
1.76873
-2.00782
2.13282
-2.25277
1.97942
-2.36905
1.68747
1.40493
-2.43599
-0.00295782
0.351157
-0.00826257
0.895248
-0.0147481
1.3005
-0.0229257
1.60227
-0.0333445
1.88189
-0.046701
2.17016
-0.0641898
2.48838
-0.0873451
2.82788
-0.118868
3.1777
-0.163811
3.51335
-0.216921
3.18435
-0.27034
2.3923
-0.322652
1.79764
-0.49407
1.4927
-1.0663
1.84032
-1.7581
2.46054
-2.09406
2.46878
-2.2482
2.13357
-2.33308
1.77235
1.47153
-2.39969
-0.00281386
0.35397
-0.00789028
0.900325
-0.0143351
1.30694
-0.0225647
1.6105
-0.033217
1.89254
-0.0468031
2.18375
-0.0647635
2.50634
-0.0887628
2.85188
-0.121646
3.21058
-0.16704
3.55874
-0.221556
3.23887
-0.276271
2.44701
-0.3731
1.89447
-0.744965
1.86456
-1.46163
2.55698
-1.9514
2.95031
-2.15653
2.67391
-2.26555
2.24259
-2.34342
1.85022
1.53684
-2.40873
-0.00284118
0.356812
-0.00825013
0.905733
-0.0150162
1.31371
-0.0235995
1.61908
-0.0346867
1.90363
-0.0488416
2.1979
-0.067533
2.52504
-0.092607
2.87696
-0.127393
3.24536
-0.178876
3.61023
-0.243225
3.30322
-0.315276
2.51906
-0.499576
2.07877
-1.02081
2.3858
-1.65065
3.18682
-1.94237
3.24203
-2.09375
2.82528
-2.21094
2.35977
-2.30616
1.94545
1.60093
-2.37025
-0.00279536
0.359607
-0.00827378
0.911212
-0.0154247
1.32086
-0.0245105
1.62816
-0.0361109
1.91523
-0.0508849
2.21267
-0.0703994
2.54455
-0.0966254
2.90318
-0.133008
3.28175
-0.185056
3.66227
-0.248784
3.36695
-0.337644
2.60792
-0.609416
2.35054
-1.23061
3.00699
-1.73621
3.69242
-1.94888
3.4547
-2.095
2.97141
-2.22447
2.48925
-2.34082
2.06179
1.66238
-2.40227
-0.00267607
0.362283
-0.00858559
0.917121
-0.0161242
1.3284
-0.0256145
1.63765
-0.037672
1.92729
-0.0530698
2.22807
-0.0733407
2.56482
-0.100632
2.93048
-0.13881
3.31993
-0.195625
3.71909
-0.270497
3.44182
-0.395064
2.73249
-0.757443
2.71292
-1.37742
3.62697
-1.74789
4.06289
-1.9287
3.63551
-2.03853
3.08124
-2.13506
2.58577
-2.20842
2.13515
1.65734
-2.20338
-0.0025213
0.364804
-0.00836323
0.922963
-0.0163345
1.33637
-0.0264202
1.64774
-0.0390816
1.93995
-0.0551148
2.24411
-0.0761984
2.5859
-0.104635
2.95891
-0.144246
3.35954
-0.20072
3.77556
-0.278599
3.5197
-0.440279
2.89417
-0.871559
3.1442
-1.43013
4.18554
-1.70676
4.33953
-1.87219
3.80094
-1.97256
3.1816
-1.98109
2.5943
-1.92358
2.07765
1.63987
-1.90611
-0.00224584
0.36705
-0.00849841
0.929216
-0.016791
1.34466
-0.0271826
1.65813
-0.0401647
1.95293
-0.0565465
2.26049
-0.0778862
2.60724
-0.106374
2.9874
-0.146125
3.39929
-0.204036
3.83347
-0.291829
3.60749
-0.488077
3.09042
-0.948169
3.60429
-1.39956
4.63693
-1.57993
4.51989
-1.65604
3.87706
-1.66808
3.19365
-1.52821
2.45443
-1.03524
1.58467
0.604631
-0.00171802
0.368768
-0.00776818
0.935266
-0.0165316
1.35342
-0.027715
1.66932
-0.0416787
1.9669
-0.0591989
2.27801
-0.0821712
2.63022
-0.113193
3.01842
-0.156595
3.44269
-0.218834
3.89571
-0.317192
3.70585
-0.555338
3.32856
-1.06944
4.11839
-1.44894
5.01643
-1.55784
4.6288
-1.56667
3.88589
-1.47481
3.10179
-1.2352
2.21481
-0.655964
1.00544
-0.051333
-0.00130024
0.370068
-0.00737015
0.941336
-0.0163998
1.36245
-0.028049
1.68096
-0.0427061
1.98155
-0.0613561
2.29666
-0.0859214
2.65478
-0.118994
3.05149
-0.165818
3.48951
-0.235186
3.96508
-0.355202
3.82587
-0.647069
3.62043
-1.18654
4.65786
-1.47421
5.3041
-1.54434
4.69894
-1.53005
3.87159
-1.32612
2.89787
-0.808833
1.69752
-0.123611
0.320217
-0.174944
-0.00047711
0.370546
-0.00572452
0.946583
-0.0151044
1.37183
-0.0275666
1.69343
-0.0430967
1.99708
-0.0627762
2.31634
-0.0887666
2.68077
-0.124248
3.08698
-0.174685
3.53995
-0.249944
4.04034
-0.385681
3.9616
-0.724366
3.95911
-1.25275
5.18625
-1.44936
5.5007
-1.48891
4.73849
-1.41114
3.79382
-1.12022
2.60695
-0.344935
0.922238
0.0369362
-0.0616538
-0.138008
0.000468425
0.370077
-0.00417523
0.951227
-0.0136039
1.38126
-0.0264408
1.70626
-0.042388
2.01303
-0.0630001
2.33695
-0.0904432
2.70821
-0.127695
3.12423
-0.179851
3.59211
-0.261585
4.12207
-0.423052
4.12307
-0.813786
4.34985
-1.30006
5.67253
-1.43278
5.63342
-1.4376
4.74331
-1.25259
3.60881
-0.738086
2.09244
-0.0731266
0.257279
0.0401932
-0.174974
-0.0978145
0.00241791
0.367659
-0.000411178
0.954056
-0.0104351
1.39129
-0.0239783
1.71981
-0.0404984
2.02955
-0.0618908
2.35834
-0.0901867
2.73651
-0.128549
3.16259
-0.182968
3.64652
-0.272846
4.21195
-0.452528
4.30275
-0.887174
4.78449
-1.28555
6.0709
-1.36238
5.71025
-1.34001
4.72093
-1.0718
3.3406
-0.377797
1.39844
-0.0264412
-0.0940776
0.0059896
-0.207404
-0.0918249
0.00388051
0.363779
0.00211978
0.955817
-0.00722832
1.40063
-0.0201539
1.73273
-0.0366234
2.04602
-0.0584897
2.38021
-0.0875603
2.76558
-0.127106
3.20214
-0.182575
3.70199
-0.276171
4.30555
-0.47246
4.49904
-0.932945
5.24498
-1.24102
6.37898
-1.29138
5.76062
-1.19485
4.6244
-0.844989
2.99074
-0.146683
0.700137
0.00906978
-0.24983
0.00455729
-0.202892
-0.0872676
0.00625093
0.357528
0.00644444
0.955623
-0.0010857
1.40816
-0.0140006
1.74565
-0.030744
2.06276
-0.052806
2.40227
-0.0816432
2.79442
-0.120585
3.24108
-0.176173
3.75758
-0.275563
4.40494
-0.486473
4.70995
-0.939207
5.69771
-1.15483
6.5946
-1.16447
5.77026
-1.0054
4.46533
-0.538589
2.52392
-0.0066296
0.168178
0.0243621
-0.280822
0.0181702
-0.1967
-0.0690974
0.00886631
0.348661
0.0117673
0.952722
0.005915
1.41402
-0.00528448
1.75685
-0.0219407
2.07942
-0.0435258
2.42386
-0.0715224
2.82242
-0.109764
3.27932
-0.163452
3.81127
-0.261779
4.50327
-0.476788
4.92496
-0.889623
6.11055
-1.04749
6.75246
-1.06892
5.79169
-0.833134
4.22954
-0.302858
1.99365
-0.0243526
-0.110328
-0.00993848
-0.295236
0.00711099
-0.213749
-0.0619864
0.0130069
0.335654
0.0201622
0.945567
0.0166409
1.41754
0.00641791
1.76707
-0.00976581
2.0956
-0.0295035
2.44359
-0.055649
2.84856
-0.0912312
3.3149
-0.141967
3.862
-0.23836
4.59966
-0.452179
5.13878
-0.801921
6.46029
-0.903347
6.85389
-0.889721
5.77807
-0.667666
4.00749
-0.145524
1.4715
-0.0326213
-0.22323
-0.0154766
-0.312381
0.0146165
-0.243843
-0.04737
0.0175705
0.318084
0.0297372
0.9334
0.0294222
1.41785
0.0209833
1.77551
0.00737906
2.10921
-0.00989225
2.46086
-0.033818
2.87249
-0.0654884
3.34657
-0.109405
3.90592
-0.194382
4.68464
-0.385899
5.3303
-0.636376
6.71077
-0.717341
6.93485
-0.699999
5.76072
-0.480839
3.78833
-0.0635162
1.05418
-0.0905407
-0.196206
-0.0524324
-0.350489
0.00205234
-0.298327
-0.0453176
0.0237759
0.294308
0.0431034
0.914073
0.0475339
1.41342
0.0419467
1.7811
0.0313854
2.11977
0.0165988
2.47565
-0.00301047
2.8921
-0.0296819
3.37324
-0.0649309
3.94117
-0.12826
4.74797
-0.271713
5.47375
-0.440626
6.87968
-0.527133
7.02136
-0.611785
5.84538
-0.568833
3.74537
-0.449991
0.935338
-0.506542
-0.139654
-0.35507
-0.501961
-0.173519
-0.479878
-0.218837
0.0304048
0.263903
0.0584173
0.88606
0.0692382
1.4026
0.068292
1.78204
0.0614173
2.12664
0.0505411
2.48653
0.0362976
2.90634
0.0191586
3.39038
-0.00787963
3.96821
-0.0400551
4.78014
-0.107974
5.54167
-0.173659
6.94536
-0.241642
7.08934
-0.353763
5.9575
-0.505706
3.89732
-0.741473
1.17111
-0.787319
-0.0938083
-0.594149
-0.695131
-0.29872
-0.775307
-0.517557
0.0383165
0.225587
0.0779239
0.846453
0.0972421
1.38328
0.101653
1.77763
0.0994937
2.1288
0.0939069
2.49211
0.0878546
2.91239
0.0796701
3.39857
0.0753644
3.97251
0.076713
4.77879
0.119262
5.49912
0.177292
6.88733
0.192068
7.07457
0.173613
5.97595
0.0203354
4.05059
-0.357225
1.54867
-0.610095
0.159062
-0.608224
-0.697002
-0.300645
-1.08289
-0.818202
0.045481
0.180106
0.0994396
0.792494
0.130367
1.35236
0.14239
1.76561
0.146922
2.12427
0.146845
2.49219
0.149267
2.90997
0.154194
3.39364
0.172737
3.95397
0.214771
4.73676
0.363068
5.35082
0.713283
6.53712
1.01375
6.7741
1.39645
5.59326
1.37405
4.07299
0.803479
2.11924
0.356237
0.606304
0.0151747
-0.35594
-0.100499
-0.967212
-0.918701
0.050286
0.12982
0.122353
0.720428
0.168102
1.30661
0.189819
1.74389
0.202321
2.11177
0.209506
2.48501
0.221361
2.89811
0.241715
3.37329
0.281718
3.91397
0.379185
4.63929
0.64414
5.08587
1.26097
5.92028
1.68798
6.34709
2.03524
5.246
2.09744
4.01079
1.69732
2.51936
1.22255
1.08107
0.760797
0.105814
0.281834
-0.488249
-0.636867
0.047559
0.0822607
0.14412
0.623867
0.211969
1.23876
0.246845
1.70901
0.267833
2.09078
0.28264
2.4702
0.304952
2.8758
0.336237
3.342
0.392537
3.85767
0.532472
4.49936
0.841795
4.77654
1.54683
5.21525
1.96013
5.93379
2.23007
4.97605
2.31492
3.92594
2.02172
2.81256
1.47203
1.63076
0.908196
0.669652
0.404013
0.0159335
-0.232854
0.0379639
0.0442968
0.162244
0.499586
0.256458
1.14454
0.308943
1.65653
0.340658
2.05907
0.363607
2.44725
0.391704
2.8477
0.431369
3.30234
0.492907
3.79613
0.628834
4.36343
0.908358
4.49702
1.50597
4.61764
1.89632
5.54345
2.06989
4.80249
2.08699
3.90884
1.88186
3.01769
1.43734
2.07528
0.917503
1.18949
0.388082
0.545354
0.155228
0.0300908
0.0142061
0.186723
0.342954
0.307686
1.02358
0.379113
1.5851
0.420547
2.01763
0.453989
2.41381
0.482157
2.81954
0.526581
3.25791
0.574185
3.74852
0.668866
4.26875
0.831359
4.33453
1.23129
4.2177
1.63126
5.14348
1.69895
4.7348
1.65534
3.95244
1.48665
3.18638
1.15145
2.41048
0.727619
1.61332
0.301346
0.971628
0.456574
0.0321158
-0.0179098
0.189808
0.185262
0.359521
0.853867
0.458498
1.48613
0.510993
1.96514
0.55138
2.37342
0.580094
2.79082
0.616775
3.22123
0.638306
3.72699
0.678272
4.22878
0.756057
4.25674
0.997843
3.97592
1.36265
4.77868
1.39521
4.70223
1.29834
4.04931
1.13729
3.34743
0.882289
2.66548
0.542277
1.95333
0.209132
1.30477
0.665707
0.0347514
-0.0526612
0.134179
0.0858344
0.307735
0.680311
0.4253
1.36856
0.484801
1.90564
0.515323
2.3429
0.524902
2.78124
0.522609
3.22353
0.511788
3.73781
0.493791
4.24678
0.480563
4.26997
0.553679
3.9028
0.727813
4.60454
0.739001
4.69105
0.666808
4.1215
0.564054
3.45019
0.430477
2.79906
0.259895
2.12391
0.0960302
1.46864
0.761737
0.0160533
-0.0687144
0.0341293
0.0677584
0.128303
0.586137
0.225245
1.27162
0.296014
1.83487
0.342801
2.29611
0.371185
2.75286
0.384499
3.21021
0.393481
3.72883
0.370805
4.26946
0.341783
4.29899
0.359887
3.88469
0.474332
4.4901
0.482025
4.68335
0.425298
4.17823
0.337043
3.53844
0.23604
2.90006
0.122918
2.23703
0.0239393
1.56762
0.785676
-0.0070711
-0.0616433
-0.0270603
0.0877476
0.00358548
0.555491
0.0674079
1.2078
0.130598
1.77168
0.187186
2.23952
0.235654
2.70439
0.268825
3.17704
0.28415
3.71351
0.255031
4.29857
0.223571
4.33045
0.22226
3.88601
0.284
4.42836
0.278601
4.68875
0.230785
4.22605
0.167401
3.60183
0.10386
2.9636
0.0421157
2.29878
-0.0132758
1.62301
0.7724
-0.0259738
-0.0356695
-0.0714934
0.133267
-0.0828393
0.566837
-0.0430989
1.16806
0.0156256
1.71295
0.0727837
2.18237
0.125656
2.65152
0.161684
3.14101
0.174189
3.701
0.146876
4.32589
0.119133
4.35819
0.122688
3.88245
0.156111
4.39494
0.139536
4.70533
0.099143
4.26644
0.0581536
3.64282
0.0125383
3.00922
-0.0351196
2.34644
-0.0477454
1.63563
0.724655
-0.0361691
0.000499571
-0.0968151
0.193913
-0.125837
0.595859
-0.101587
1.14381
-0.0484899
1.65986
0.00493072
2.12895
0.052867
2.60358
0.0790071
3.11487
0.0911595
3.68885
0.0649412
4.35211
0.0394693
4.38367