/*--------------------------------*- C++ -*----------------------------------*\
| =========                 |                                                 |
| \\      /  F ield         | OpenFOAM: The Open Source CFD Toolbox           |
|  \\    /   O peration     | Version:  4.0                                   |
|   \\  /    A nd           | Web:      www.OpenFOAM.org                      |
|    \\/     M anipulation  |                                                 |
\*---------------------------------------------------------------------------*/
FoamFile
{
    version     2.0;
    format      ascii;
    class       volScalarField;
    location    "51";
    object      p;
}
// * * * * * * * * * * * * * * * * * * * * * * * * * * * * * * * * * * * * * //

dimensions      [0 2 -2 0 0 0 0];

internalField   nonuniform List<scalar> 
2200
(
0.777681
0.756181
0.740273
0.724606
0.709996
0.697473
0.687116
0.679008
0.673297
0.670344
0.670797
0.674586
0.680927
0.689485
0.700163
0.712925
0.727704
0.74361
0.759644
0.781144
0.710114
0.706856
0.703932
0.69981
0.694342
0.687865
0.681243
0.675284
0.670774
0.668374
0.668856
0.67214
0.677305
0.68375
0.690724
0.697469
0.703134
0.707242
0.710102
0.713456
0.670201
0.670421
0.672473
0.673815
0.674208
0.673351
0.671363
0.668679
0.666129
0.66463
0.665178
0.667618
0.670878
0.674087
0.67642
0.67742
0.677143
0.676134
0.674475
0.674227
0.647703
0.649151
0.651755
0.654219
0.656656
0.65867
0.659823
0.660048
0.659665
0.659358
0.659971
0.661337
0.662525
0.662907
0.662213
0.660539
0.65837
0.656157
0.653541
0.652136
0.633389
0.635364
0.638178
0.641001
0.643849
0.646672
0.649123
0.650976
0.652193
0.652979
0.653692
0.654148
0.653898
0.652772
0.650902
0.648521
0.645973
0.643249
0.640452
0.638526
0.626042
0.62764
0.629837
0.632362
0.635029
0.637693
0.640275
0.64268
0.64468
0.646172
0.64701
0.647005
0.646161
0.644638
0.642731
0.640583
0.63825
0.635907
0.633811
0.632235
0.622649
0.623672
0.624937
0.626796
0.628932
0.631091
0.633276
0.635554
0.637762
0.639586
0.64059
0.640582
0.639777
0.638554
0.637138
0.635562
0.633863
0.632284
0.631162
0.630146
0.620006
0.620677
0.621308
0.622607
0.624217
0.625893
0.627634
0.629544
0.631583
0.633516
0.634731
0.635011
0.634665
0.634025
0.633236
0.632268
0.631192
0.630255
0.629803
0.629127
0.616772
0.617217
0.61761
0.618603
0.619863
0.621243
0.622728
0.624371
0.626191
0.628114
0.629586
0.630331
0.630569
0.630491
0.630187
0.629704
0.629107
0.628559
0.628364
0.6279
0.61278
0.613077
0.613435
0.6143
0.615402
0.616659
0.618077
0.61967
0.621446
0.62342
0.625236
0.626516
0.627242
0.627581
0.627626
0.62745
0.627121
0.626772
0.626636
0.626313
0.60813
0.608333
0.608702
0.609527
0.610615
0.611919
0.613428
0.615141
0.617079
0.619287
0.62149
0.623229
0.624372
0.625015
0.625301
0.625342
0.62519
0.624984
0.624868
0.624633
0.602977
0.603123
0.603494
0.604302
0.605445
0.606874
0.608579
0.610548
0.6128
0.615396
0.618114
0.620342
0.621842
0.622757
0.623243
0.623443
0.623475
0.623409
0.623324
0.623138
0.597436
0.597545
0.597922
0.598737
0.599946
0.601524
0.603467
0.605784
0.608512
0.611689
0.615003
0.617743
0.619635
0.620837
0.621557
0.621965
0.622177
0.622237
0.62219
0.622031
0.591516
0.591585
0.591963
0.592808
0.594145
0.595916
0.598129
0.600843
0.604151
0.608065
0.612134
0.615424
0.617728
0.619309
0.620375
0.621058
0.621483
0.621672
0.621665
0.621516
0.585086
0.585128
0.585546
0.586451
0.587917
0.589892
0.592408
0.595556
0.599466
0.604175
0.609125
0.613208
0.616153
0.618266
0.619757
0.620765
0.621425
0.621751
0.621794
0.621649
0.578062
0.578032
0.578447
0.579433
0.581111
0.583336
0.586175
0.589805
0.594425
0.6001
0.606121
0.611241
0.615005
0.617749
0.619779
0.621193
0.622116
0.622595
0.622688
0.622544
0.570182
0.570154
0.570605
0.571724
0.57362
0.576146
0.579441
0.583707
0.58918
0.596
0.603347
0.609636
0.614413
0.617938
0.620542
0.622419
0.623658
0.624305
0.62445
0.624298
0.561334
0.561359
0.56178
0.562993
0.56522
0.5682
0.572119
0.577196
0.583733
0.591937
0.600863
0.608598
0.614486
0.618896
0.622186
0.624559
0.626127
0.626945
0.627145
0.626984
0.55103
0.551008
0.551546
0.552977
0.555571
0.55914
0.563886
0.570044
0.577938
0.587851
0.598691
0.608122
0.61535
0.62077
0.624792
0.627729
0.629674
0.630662
0.630914
0.630733
0.53882
0.538752
0.539425
0.541241
0.544352
0.548681
0.55451
0.562109
0.571867
0.584022
0.597154
0.608421
0.617037
0.623577
0.628482
0.632009
0.634365
0.63553
0.635828
0.635626
0.524351
0.52424
0.525008
0.52722
0.531112
0.536545
0.543851
0.553388
0.565572
0.580475
0.596201
0.609507
0.619692
0.627465
0.633269
0.637542
0.640341
0.641676
0.642013
0.641784
0.506702
0.506613
0.507604
0.510363
0.515257
0.522173
0.531477
0.543482
0.558593
0.57674
0.595558
0.61136
0.623339
0.632461
0.639346
0.644395
0.647647
0.649168
0.649536
0.649275
0.4849
0.484742
0.486042
0.489624
0.495979
0.504967
0.516891
0.532053
0.550679
0.572597
0.595011
0.613735
0.627902
0.638613
0.646717
0.652629
0.656374
0.658059
0.658441
0.65814
0.456785
0.456788
0.458837
0.463801
0.472363
0.484384
0.50003
0.51934
0.542324
0.568691
0.595183
0.61703
0.633468
0.645944
0.655397
0.662254
0.666489
0.668319
0.668676
0.668325
0.419431
0.419668
0.423171
0.431002
0.443533
0.460446
0.481351
0.506116
0.534523
0.566061
0.596817
0.621794
0.640513
0.654715
0.665495
0.673285
0.677902
0.679762
0.680049
0.679649
0.369504
0.369877
0.376806
0.389924
0.408914
0.433019
0.460967
0.492411
0.527066
0.564316
0.599722
0.627927
0.648922
0.664862
0.676956
0.685468
0.690191
0.691845
0.691961
0.691602
0.303531
0.306355
0.321379
0.342607
0.370429
0.403398
0.43947
0.478374
0.519979
0.563689
0.604338
0.636389
0.660358
0.678576
0.692278
0.701889
0.706845
0.708262
0.708224
0.708052
0.228406
0.237778
0.262789
0.293857
0.331759
0.373717
0.417902
0.464435
0.513204
0.563623
0.610128
0.647105
0.674754
0.695745
0.711766
0.722626
0.727787
0.728827
0.72874
0.728712
0.161137
0.175833
0.207128
0.246949
0.294327
0.345077
0.397255
0.451433
0.507422
0.564552
0.617212
0.65843
0.689198
0.712742
0.730246
0.742159
0.747602
0.748594
0.748883
0.748859
0.109785
0.122961
0.159631
0.205575
0.260259
0.318494
0.378083
0.439613
0.502746
0.566594
0.624486
0.669576
0.703379
0.728878
0.747998
0.760863
0.766718
0.768267
0.768436
0.768489
0.0674674
0.0798875
0.120213
0.170132
0.230336
0.294588
0.360652
0.428701
0.498048
0.567744
0.630528
0.679818
0.716126
0.743727
0.76442
0.777999
0.784564
0.786498
0.786631
0.786719
0.0311196
0.0438228
0.0868518
0.139646
0.204195
0.273254
0.34472
0.418332
0.493248
0.568711
0.636983
0.68943
0.728024
0.757252
0.779141
0.793505
0.800358
0.802531
0.802733
0.802828
-0.000556109
0.0123587
0.0575476
0.112906
0.180984
0.253983
0.330032
0.40855
0.488721
0.569458
0.641849
0.697422
0.73847
0.769113
0.791803
0.806731
0.814058
0.816385
0.816689
0.816762
-0.0288656
-0.0158793
0.0309658
0.0887802
0.159972
0.23636
0.316391
0.399244
0.48402
0.56924
0.645804
0.704799
0.747418
0.779102
0.802433
0.817939
0.825458
0.828042
0.828415
0.828465
-0.0547298
-0.0416873
0.00633911
0.0665178
0.140493
0.219895
0.303422
0.390012
0.478805
0.568512
0.64947
0.710772
0.75508
0.787938
0.811519
0.827358
0.835254
0.837989
0.838427
0.838446
-0.078967
-0.0655993
-0.0166916
0.0456458
0.122047
0.204133
0.290716
0.380611
0.473189
0.567147
0.651646
0.715722
0.761933
0.795465
0.81974
0.835585
0.843638
0.846476
0.846941
0.846898
-0.101743
-0.0882156
-0.0384066
0.0258286
0.104293
0.188735
0.278027
0.370952
0.467014
0.564715
0.653017
0.720417
0.768095
0.802636
0.827169
0.842833
0.850912
0.853705
0.854149
0.853967
-0.123244
-0.109659
-0.0590812
0.00675911
0.0869947
0.173547
0.265286
0.360947
0.460091
0.561307
0.653654
0.724154
0.773817
0.809347
0.833999
0.849519
0.85725
0.860024
0.860431
0.860337
-0.143889
-0.130112
-0.0789221
-0.0117384
0.070037
0.158489
0.252424
0.350499
0.452418
0.557136
0.653576
0.727391
0.779528
0.816093
0.840658
0.855732
0.863279
0.865804
0.866206
0.866106
-0.164071
-0.149762
-0.0981173
-0.0297667
0.0533556
0.143496
0.23938
0.339622
0.444149
0.552192
0.652493
0.730015
0.785017
0.822887
0.84758
0.862108
0.868994
0.871231
0.871529
0.87143
-0.183925
-0.168877
-0.116784
-0.0473683
0.0369292
0.128542
0.226136
0.328362
0.435314
0.546399
0.650584
0.732167
0.790213
0.830197
0.855221
0.86884
0.874863
0.8763
0.876461
0.876367
-0.203319
-0.187541
-0.134983
-0.0645718
0.0207474
0.113634
0.212744
0.316793
0.425975
0.539868
0.647678
0.733387
0.795261
0.837952
0.863988
0.876704
0.880937
0.881041
0.880877
0.880765
-0.222168
-0.205792
-0.15271
-0.0813717
0.00484518
0.0988403
0.19928
0.304952
0.416124
0.532494
0.643578
0.733576
0.79972
0.84618
0.874392
0.886275
0.888154
0.885517
0.885073
0.885914
-0.240387
-0.223554
-0.169937
-0.0977371
-0.0107257
0.0842216
0.185798
0.292861
0.405762
0.52431
0.638371
0.73258
0.803604
0.85463
0.886483
0.899083
0.898259
0.891592
0.886521
0.885119
-0.257988
-0.240777
-0.18661
-0.113624
-0.025908
0.0698449
0.172353
0.280573
0.394964
0.51542
0.632039
0.730112
0.806079
0.862911
0.900166
0.916044
0.9161
0.904301
0.903243
0.907458
-0.27494
-0.257377
-0.202683
-0.128985
-0.0406513
0.0557607
0.15901
0.268176
0.38382
0.505873
0.624568
0.725926
0.806897
0.870011
0.91441
0.936879
0.940304
0.911631
0.871355
0.835623
-0.29121
-0.273378
-0.218185
-0.143892
-0.05506
0.041852
0.145641
0.255518
0.372138
0.495468
0.615796
0.719687
0.804917
0.874813
0.92823
0.96056
0.979055
0.9607
0.977634
1.03613
-0.306734
-0.288795
-0.233208
-0.158486
-0.0693145
0.0278968
0.131986
0.242273
0.359464
0.483613
0.605108
0.71061
0.799063
0.874455
0.933357
0.970086
0.981671
0.960363
0.919284
0.934011
-0.321503
-0.303621
-0.247698
-0.172711
-0.0833367
0.0140035
0.118183
0.22858
0.345929
0.470435
0.592518
0.69851
0.787538
0.864406
0.923927
0.960008
0.948245
0.894716
0.830869
0.818614
-0.335485
-0.317821
-0.261652
-0.186562
-0.0971185
0.000174103
0.104237
0.214462
0.331576
0.455902
0.577829
0.683118
0.770098
0.842359
0.896185
0.905163
0.870463
0.793881
0.7195
0.697442
-0.348732
-0.331409
-0.275076
-0.200053
-0.110683
-0.0136065
0.0901471
0.199942
0.316466
0.440044
0.560954
0.664137
0.745481
0.806111
0.835331
0.822889
0.765486
0.664124
0.576933
0.554948
-0.361695
-0.344771
-0.288372
-0.213556
-0.124381
-0.027655
0.075637
0.184802
0.30043
0.422704
0.54165
0.641128
0.714972
0.760033
0.755209
0.720696
0.61036
0.488224
0.381018
0.354055
-0.375277
-0.35874
-0.302238
-0.227692
-0.138793
-0.0424572
0.0603001
0.168706
0.283192
0.403638
0.519677
0.613438
0.680266
0.701466
0.667873
0.580635
0.425076
0.272732
0.14369
0.116254
-0.38999
-0.373677
-0.317007
-0.242713
-0.154096
-0.058142
0.0440471
0.151597
0.264727
0.382872
0.495068
0.582334
0.639033
0.631991
0.579458
0.430336
0.231
0.0188157
-0.160996
-0.20925
-0.405962
-0.389738
-0.332731
-0.258632
-0.170278
-0.0746817
0.0269096
0.133503
0.245079
0.360462
0.467589
0.549096
0.59103
0.552373
0.465379
0.278039
0.0472806
-0.240963
-0.56191
-0.709576
-0.42325
-0.406943
-0.349542
-0.275553
-0.187387
-0.0921388
0.00881254
0.114353
0.224215
0.336514
0.4378
0.513328
0.537371
0.468266
0.33241
0.127352
-0.106289
-0.449636
-1.03614
-1.60797
-0.441952
-0.425471
-0.36749
-0.293517
-0.205454
-0.110514
-0.0102103
0.0942298
0.202305
0.311421
0.406761
0.474718
0.480141
0.394323
0.203801
-0.0294152
-0.231797
-0.46611
-1.02151
-2.53718
-0.462067
-0.445286
-0.386702
-0.312677
-0.224635
-0.130007
-0.0304045
0.0728522
0.179014
0.284834
0.374213
0.432666
0.418142
0.336559
0.110918
-0.127042
-0.274542
-0.311497
-0.301214
-0.68914
-0.483548
-0.466697
-0.407314
-0.3333
-0.245343
-0.151124
-0.0523865
0.0494675
0.153393
0.255318
0.339167
0.387317
0.357295
0.287811
0.0613457
-0.140892
-0.251383
-0.25907
-0.205725
-0.246007
-0.506203
-0.489371
-0.429368
-0.355492
-0.267651
-0.173983
-0.0763121
0.0238973
0.125219
0.222669
0.301832
0.340009
0.303507
0.234967
0.0298272
-0.130961
-0.21301
-0.220686
-0.268535
-0.272782
-0.530137
-0.51332
-0.452721
-0.379199
-0.291556
-0.198615
-0.102223
-0.00390784
0.0944872
0.18733
0.261949
0.290814
0.257051
0.174852
0.00198116
-0.120986
-0.191235
-0.167843
-0.188402
-0.189955
-0.554952
-0.537969
-0.477345
-0.404386
-0.316904
-0.22493
-0.130039
-0.0338358
0.0613623
0.149679
0.219652
0.238029
0.216329
0.107452
-0.0325554
-0.115781
-0.155269
-0.202117
-0.177131
-0.185519
-0.580464
-0.563086
-0.503003
-0.430777
-0.343468
-0.252783
-0.159583
-0.0656811
0.0259592
0.110037
0.176081
0.18431
0.174053
0.0471893
-0.0692848
-0.13367
-0.111874
-0.17162
-0.152122
-0.156934
-0.605704
-0.588134
-0.529602
-0.458083
-0.370923
-0.281918
-0.190554
-0.0990991
-0.0114798
0.0688059
0.132073
0.132878
0.122804
-0.00467504
-0.0960431
-0.147551
-0.135609
-0.151682
-0.157105
-0.155386
-0.630351
-0.612921
-0.55627
-0.485459
-0.398899
-0.311974
-0.222554
-0.133709
-0.0504401
0.0262902
0.0881781
0.0850465
0.0663949
-0.0480416
-0.110729
-0.140668
-0.179121
-0.152248
-0.158681
-0.153371
-0.653327
-0.636636
-0.581968
-0.512212
-0.427066
-0.342408
-0.255029
-0.168905
-0.0900334
-0.0172155
0.0440386
0.0411446
0.0110695
-0.0857618
-0.127152
-0.115476
-0.186563
-0.135217
-0.15004
-0.142902
-0.674011
-0.658441
-0.605672
-0.537206
-0.454913
-0.372392
-0.287283
-0.204104
-0.129312
-0.0612546
-0.000562566
-6.57588e-05
-0.0365103
-0.105221
-0.140752
-0.10124
-0.144876
-0.126041
-0.132058
-0.129153
-0.690763
-0.676836
-0.626684
-0.560175
-0.481517
-0.400916
-0.318513
-0.23847
-0.167254
-0.104847
-0.0455927
-0.0400341
-0.0720477
-0.109876
-0.137148
-0.116526
-0.126955
-0.126565
-0.125807
-0.125839
-0.702783
-0.690956
-0.643947
-0.579971
-0.505023
-0.427057
-0.347727
-0.271071
-0.20297
-0.146774
-0.0894975
-0.0783031
-0.102108
-0.105942
-0.123404
-0.138656
-0.12519
-0.133266
-0.128018
-0.12831
-0.708631
-0.699215
-0.656392
-0.595644
-0.524361
-0.449736
-0.373872
-0.300715
-0.235557
-0.185011
-0.129988
-0.115975
-0.139544
-0.109219
-0.0843263
-0.123878
-0.104196
-0.136944
-0.137565
-0.139489
-0.708245
-0.700954
-0.662347
-0.605318
-0.538078
-0.46747
-0.395517
-0.326006
-0.263881
-0.217481
-0.164872
-0.152339
-0.181859
-0.147453
-0.0239816
-0.0547242
-0.0707333
-0.0907217
-0.0970342
-0.103912
-0.700651
-0.693374
-0.660002
-0.608166
-0.54565
-0.479335
-0.411431
-0.345307
-0.285975
-0.241843
-0.193291
-0.189576
-0.227856
-0.27379
-0.264336
-0.338321
-0.350743
-0.3334
-0.317651
-0.307389
-0.681034
-0.67287
-0.647044
-0.602247
-0.545488
-0.484102
-0.420452
-0.357221
-0.299266
-0.255414
-0.210016
-0.208139
-0.308316
-0.525403
-0.880946
-1.07038
-1.09881
-1.06135
-0.969748
-0.892402
-0.640786
-0.633128
-0.622134
-0.588495
-0.538627
-0.48199
-0.42234
-0.360469
-0.301026
-0.253925
-0.210917
-0.186491
-0.309147
-0.544392
-0.815664
-0.898461
-0.855776
-0.762101
-0.690049
-0.656124
-0.597583
-0.594331
-0.592929
-0.566801
-0.525121
-0.474052
-0.417191
-0.355274
-0.290684
-0.233358
-0.180995
-0.102071
-0.0280252
0.0891265
0.187187
0.330184
0.460464
0.545527
0.609442
0.663254
-0.573441
-0.574445
-0.566261
-0.548045
-0.512587
-0.463883
-0.406577
-0.342912
-0.270164
-0.191558
-0.111578
0.0343345
0.251725
0.602267
0.939781
1.21283
1.40205
1.50923
1.55591
1.5707
-0.542078
-0.542685
-0.537883
-0.530981
-0.500379
-0.453823
-0.395086
-0.32787
-0.247449
-0.150946
-0.0449873
0.103539
0.362549
0.718589
1.06604
1.35223
1.5546
1.67225
1.72524
1.74344
-0.518822
-0.517602
-0.518977
-0.513996
-0.489525
-0.445341
-0.385072
-0.313471
-0.228689
-0.124211
-0.00923348
0.110553
0.352696
0.659864
0.964486
1.22709
1.42885
1.55229
1.60776
1.6238
-0.501197
-0.49923
-0.502031
-0.495237
-0.481219
-0.440926
-0.378954
-0.303507
-0.216773
-0.112731
-0.0028502
0.0829077
0.282711
0.541639
0.793501
1.01202
1.18814
1.29599
1.3432
1.35499
-0.486341
-0.484437
-0.482543
-0.478635
-0.475868
-0.437047
-0.37466
-0.298013
-0.212995
-0.116857
-0.0142216
0.049177
0.202329
0.419138
0.620997
0.78966
0.925121
1.00854
1.04426
1.05321
-0.491237
-0.489527
-0.48717
-0.491346
-0.485447
-0.43792
-0.37183
-0.294312
-0.212313
-0.127903
-0.0313798
0.0210095
0.130729
0.306369
0.464718
0.589494
0.687082
0.749319
0.776254
0.782318
-0.507402
-0.508045
-0.510463
-0.519047
-0.502524
-0.443211
-0.368827
-0.288799
-0.209617
-0.137351
-0.0474628
-0.000382613
0.0721806
0.209537
0.330905
0.422647
0.493362
0.539479
0.557821
0.562914
-0.499136
-0.502034
-0.509301
-0.515283
-0.493643
-0.43116
-0.355034
-0.276776
-0.201347
-0.14033
-0.0595272
-0.0155392
0.0294853
0.133964
0.225018
0.291934
0.343667
0.377551
0.390746
0.395393
-0.425109
-0.429128
-0.439084
-0.443208
-0.425441
-0.376123
-0.315625
-0.250894
-0.184222
-0.133808
-0.0658058
-0.0261633
0.00338736
0.0832659
0.14869
0.19557
0.23366
0.258811
0.268891
0.271551
-0.294452
-0.298547
-0.302903
-0.306066
-0.297537
-0.274233
-0.241883
-0.202778
-0.155373
-0.116911
-0.0654877
-0.0323426
-0.0116825
0.0506453
0.0966136
0.128423
0.154808
0.171116
0.178232
0.180145
-0.165444
-0.167311
-0.170127
-0.174061
-0.172571
-0.167792
-0.158837
-0.142828
-0.117459
-0.0925997
-0.0596708
-0.0338339
-0.0177022
0.0284682
0.0602092
0.082002
0.0981164
0.10711
0.110419
0.110755
-0.0641058
-0.0651684
-0.0673206
-0.0724821
-0.0790052
-0.0857441
-0.0896531
-0.087911
-0.0789947
-0.0675272
-0.0491866
-0.0320896
-0.0183781
0.0134154
0.0341764
0.0475949
0.0559323
0.059489
0.0596264
0.0587401
0.00122484
0.000431183
-0.00136495
-0.00725716
-0.0184258
-0.0310514
-0.0408306
-0.046625
-0.0472275
-0.0454282
-0.0365352
-0.0265272
-0.0167491
0.00223921
0.0141657
0.0208688
0.0240741
0.0242301
0.0227128
0.0213795
0.0351097
0.0345181
0.0328931
0.0271704
0.0160013
0.00230104
-0.00986747
-0.0194143
-0.0246383
-0.0282241
-0.0244004
-0.0196634
-0.0143278
-0.00530935
-0.000415263
0.0017768
0.00226172
0.000690472
-0.00151409
-0.00297363
0.0493363
0.0488435
0.0474158
0.0423885
0.032651
0.0200544
0.00783736
-0.00287687
-0.0100181
-0.015982
-0.0145304
-0.0128655
-0.0122359
-0.00952465
-0.00876864
-0.00912305
-0.010607
-0.0129258
-0.0150654
-0.0164579
0.0521037
0.0517307
0.0505962
0.0466056
0.0388069
0.0283336
0.017307
0.00680228
-0.000914499
-0.00769993
-0.00769057
-0.00768459
-0.00950941
-0.0100785
-0.0113266
-0.0129965
-0.0153944
-0.0178566
-0.0197811
-0.0211277
0.0490539
0.0487891
0.047932
0.0449355
0.0390729
0.0310055
0.0218916
0.0125545
0.00525018
-0.00184781
-0.00292892
-0.0045617
-0.0070695
-0.00794632
-0.0101929
-0.0128787
-0.0154103
-0.0176752
-0.0192615
-0.0204502
0.0434974
0.0433286
0.0427206
0.0405766
0.0363445
0.0304024
0.0233456
0.0156007
0.00941835
0.00225765
0.000310139
-0.00169082
-0.00458402
-0.00594555
-0.00829777
-0.0108572
-0.0131661
-0.015094
-0.0161964
-0.0172374
0.0369968
0.0368947
0.0364682
0.0349849
0.0320147
0.0277169
0.0225006
0.0163586
0.011569
0.0048095
0.00246977
0.000740542
-0.00199703
-0.00370403
-0.00625169
-0.0086153
-0.010529
-0.01199
-0.0126562
-0.0135251
0.0305382
0.0304681
0.0301662
0.029129
0.027008
0.0238765
0.0199374
0.0150639
0.0116675
0.00597046
0.00370683
0.00194597
-0.000403463
-0.00163353
-0.00400576
-0.00597474
-0.00744014
-0.00846549
-0.00878373
-0.00951644
0.024544
0.0245019
0.0242983
0.0236127
0.0221644
0.0199008
0.0169322
0.0130706
0.010528
0.00590709
0.00374048
0.00214622
-7.0114e-05
-0.000967774
-0.00245219
-0.00351963
-0.00442034
-0.005125
-0.00531857
-0.00594621
0.01907
0.019011
0.0188365
0.0183609
0.0174309
0.0159568
0.0139094
0.0109808
0.00914747
0.00525639
0.00315172
0.00152577
-0.000833729
-0.00122802
-0.00163239
-0.00206105
-0.00245373
-0.0027444
-0.00275773
-0.00328458
0.0145479
0.0144997
0.0143895
0.0140744
0.013442
0.0124301
0.0110482
0.00882528
0.00754461
0.00411052
0.00231077
0.000302699
-0.00193635
-0.00148261
-0.00123317
-0.0010352
-0.000955003
-0.00102847
-0.00103568
-0.00152509
0.0107409
0.0107017
0.0106403
0.0104609
0.0100834
0.00935601
0.00841426
0.00676364
0.00582111
0.00288225
0.00135546
-0.000768823
-0.00250699
-0.00164615
-0.000987724
-0.000258603
0.000218264
0.000300804
0.00032872
-8.49881e-05
0.00724126
0.00719787
0.00714123
0.00702394
0.00678573
0.00632589
0.00579536
0.00458327
0.00404964
0.00174944
0.000557902
-0.0012949
-0.00249921
-0.00145711
-0.000658295
0.000332067
0.00113828
0.00147426
0.00154025
0.00104737
0.00414024
0.00409767
0.0040645
0.00404324
0.00391552
0.00366258
0.00340489
0.00255415
0.00249286
0.00100099
0.000161558
-0.00145763
-0.00221485
-0.000882468
-0.000355357
0.0003241
0.00105331
0.00150833
0.00171896
0.00132059
0.00153083
0.00151172
0.00150454
0.00150935
0.00149236
0.00142977
0.00134992
0.000884551
0.00116504
0.000441345
0.000287624
-0.000336748
-0.000797956
-5.77027e-05
-0.000564795
-0.00100049
-0.00136435
-0.00155441
-0.00116875
-0.00117456
-1.07329
-0.232844
0.0372342
0.313701
0.495609
0.651945
0.778738
0.90796
1.0498
1.13192
-0.0923841
0.314646
0.331387
0.519816
0.644043
0.755517
0.851499
0.936976
0.964457
0.922347
0.285039
0.499053
0.534397
0.670907
0.757017
0.837001
0.902972
0.952476
0.954605
0.968632
0.514815
0.657961
0.693102
0.795094
0.852015
0.909872
0.954743
0.987124
0.996198
1.01986
0.693016
0.794581
0.824343
0.892159
0.9366
0.977737
1.0099
1.03419
1.04397
1.07553
0.83648
0.905394
0.93574
0.978737
1.01486
1.04504
1.06935
1.09008
1.10422
1.13249
0.95577
1.0064
1.03199
1.06001
1.08771
1.11151
1.13148
1.15072
1.16562
1.19211
1.05963
1.09667
1.11777
1.13844
1.15926
1.17866
1.19607
1.21417
1.22905
1.25271
1.15368
1.1828
1.19915
1.21443
1.23055
1.24662
1.26217
1.27908
1.29269
1.31501
1.24198
1.26244
1.2773
1.29047
1.30404
1.31781
1.33131
1.3459
1.35744
1.37708
1.32743
1.34322
1.35704
1.36885
1.38076
1.3924
1.40353
1.41522
1.42289
1.4397
1.41266
1.4252
1.43891
1.45066
1.46129
1.47109
1.47991
1.48818
1.49174
1.50299
1.5014
1.51221
1.52568
1.53522
1.54279
1.55008
1.55727
1.56377
1.56485
1.57223
1.59981
1.6044
1.6126
1.61736
1.62076
1.62524
1.63124
1.63892
1.64281
1.65268
1.71312
1.70002
1.69273
1.687
1.68427
1.68562
1.69198
1.70435
1.71916
1.74882
1.83511
1.77908
1.74806
1.73086
1.72264
1.72258
1.7314
1.751
1.78284
1.85209
)
;

boundaryField
{
    wall-4
    {
        type            zeroGradient;
    }
    pressure-outlet-7
    {
        type            fixedValue;
        value           uniform 0;
    }
    velocity-inlet-6
    {
        type            zeroGradient;
    }
    velocity-inlet-5
    {
        type            zeroGradient;
    }
    frontAndBackPlanes
    {
        type            empty;
    }
}


// ************************************************************************* //
