/*--------------------------------*- C++ -*----------------------------------*\
| =========                 |                                                 |
| \\      /  F ield         | OpenFOAM: The Open Source CFD Toolbox           |
|  \\    /   O peration     | Version:  4.0                                   |
|   \\  /    A nd           | Web:      www.OpenFOAM.org                      |
|    \\/     M anipulation  |                                                 |
\*---------------------------------------------------------------------------*/
FoamFile
{
    version     2.0;
    format      ascii;
    class       surfaceScalarField;
    location    "51";
    object      phi;
}
// * * * * * * * * * * * * * * * * * * * * * * * * * * * * * * * * * * * * * //

dimensions      [0 3 -1 0 0 0 0];

internalField   nonuniform List<scalar> 
4262
(
0.107142
0.470846
0.0955831
0.705145
0.0694106
0.858476
0.0474218
1.02075
0.0310549
1.21488
0.0198534
1.44942
0.0124536
1.73326
0.00725741
2.07623
0.0033423
2.48916
-0.000343277
2.98598
-0.00402813
2.98598
-0.00791393
2.48913
-0.0129802
2.0761
-0.0202011
1.73308
-0.0311993
1.44922
-0.0472665
1.21458
-0.069005
1.0205
-0.095245
0.858543
-0.107081
0.705422
0.470907
0.112878
0.357968
0.135292
0.682731
0.120388
0.873379
0.097807
1.04333
0.0745464
1.23814
0.0528362
1.47113
0.0344562
1.75164
0.0202388
2.09045
0.00889394
2.5005
-0.00122997
2.9961
-0.0112487
2.996
-0.0223427
2.50022
-0.0363832
2.09014
-0.0546799
1.75138
-0.0764083
1.47095
-0.100074
1.23825
-0.123222
1.04365
-0.136879
0.8722
-0.113515
0.682058
0.357392
0.0920669
0.265901
0.125019
0.649779
0.121181
0.877218
0.104981
1.05953
0.0863444
1.25678
0.0671798
1.4903
0.048221
1.7706
0.0301963
2.10847
0.0137434
2.51696
-0.00206389
3.01191
-0.0177374
3.01167
-0.0338174
2.5163
-0.0513689
2.10769
-0.0698405
1.76985
-0.0883395
1.48945
-0.105734
1.25564
-0.119978
1.05789
-0.125253
0.877475
-0.092341
0.649146
0.265051
0.0640346
0.201867
0.104908
0.608906
0.106656
0.87547
0.0952153
1.07097
0.0813087
1.27069
0.0666153
1.50499
0.0504878
1.78673
0.0333269
2.12564
0.0155915
2.53469
-0.0031638
3.03066
-0.021658
3.03016
-0.0388992
2.53354
-0.0554153
2.12421
-0.0706786
1.78512
-0.0844846
1.50325
-0.0981418
1.2693
-0.109874
1.06963
-0.106946
0.874548
-0.0648737
0.607074
0.200177
0.0374821
0.164385
0.0807504
0.565637
0.0911381
0.865082
0.0839735
1.07814
0.071382
1.28328
0.0595593
1.51681
0.0465832
1.79971
0.031652
2.14057
0.0147584
2.55159
-0.00432868
3.04975
-0.0230449
3.04888
-0.039177
2.54968
-0.0531194
2.13815
-0.0652165
1.79721
-0.0764621
1.5145
-0.0884066
1.28125
-0.0948029
1.07602
-0.0830364
0.862781
-0.0383261
0.562363
0.161851
0.0195025
0.144882
0.0573028
0.527837
0.0727503
0.849635
0.0707189
1.08017
0.0619788
1.29202
0.0511388
1.52765
0.0400017
1.81084
0.027404
2.15316
0.0123502
2.56664
-0.00535401
3.06746
-0.0228415
3.06637
-0.0371473
2.56398
-0.0486914
2.1497
-0.0586472
1.80717
-0.0684829
1.52433
-0.0761524
1.28891
-0.077017
1.07689
-0.0599325
0.845697
-0.0203516
0.522783
0.1415
0.0106465
0.134236
0.0424394
0.496044
0.058559
0.833515
0.0588293
1.0799
0.0526949
1.29815
0.0433724
1.53697
0.0330947
1.82112
0.0218052
2.16445
0.00854118
2.5799
-0.00735289
3.08335
-0.0226192
3.08163
-0.0345096
2.57587
-0.0443633
2.15955
-0.053282
1.81609
-0.0612957
1.53235
-0.0659492
1.29357
-0.0640642
1.075
-0.0457642
0.827397
-0.0116648
0.488683
0.129835
0.0066288
0.127607
0.0331477
0.469525
0.0495747
0.817088
0.051178
1.0783
0.0460793
1.30325
0.037666
1.54539
0.028008
1.83078
0.0171923
2.17527
0.00530712
2.59179
-0.00843354
3.09709
-0.02183
3.09503
-0.0326708
2.58671
-0.0418675
2.16875
-0.0497094
1.82393
-0.0563753
1.53901
-0.0596538
1.29685
-0.056102
1.07145
-0.0370746
0.808369
-0.00783262
0.459441
0.122002
0.00476905
0.122838
0.0266957
0.447599
0.0425829
0.801201
0.0448043
1.07607
0.0403208
1.30774
0.0328013
1.55291
0.0237329
1.83985
0.0132377
2.18576
0.00147867
2.60355
-0.0115806
3.11015
-0.0234622
3.10691
-0.0331684
2.59642
-0.0415456
2.17712
-0.0484893
1.83087
-0.0538638
1.54439
-0.0561483
1.29913
-0.051242
1.06654
-0.0317339
0.788861
-0.00628812
0.433995
0.115714
0.00378092
0.119057
0.0218567
0.429523
0.037157
0.785901
0.0400317
1.0732
0.0357776
1.31199
0.0285561
1.56013
0.0198547
1.84855
0.00981215
2.19581
-0.0013269
2.61469
-0.0133336
3.12216
-0.0248476
3.11843
-0.0342652
2.60584
-0.0417722
2.18463
-0.0479138
1.83701
-0.0526797
1.54915
-0.0539668
1.30042
-0.0476428
1.06022
-0.0279313
0.76915
-0.00566463
0.411729
0.11005
0.00309145
0.115965
0.0176754
0.414939
0.0317395
0.771836
0.0348856
1.07005
0.030951
1.31592
0.0239854
1.56709
0.015617
1.85692
0.00585621
2.20557
-0.00535018
2.62589
-0.0176709
3.13448
-0.0285493
3.1293
-0.03676
2.61405
-0.043314
2.19119
-0.048385
1.84209
-0.0520588
1.55283
-0.052333
1.30069
-0.0448208
1.05271
-0.0250998
0.749429
-0.00536654
0.391996
0.104683
0.00245332
0.113512
0.0140862
0.403306
0.0268464
0.759076
0.0300191
1.06688
0.0260653
1.31988
0.0191232
1.57404
0.0108243
1.86522
0.00131613
2.21508
-0.00921647
2.63643
-0.0205938
3.14585
-0.0309708
3.13968
-0.03892
2.622
-0.0446799
2.19695
-0.0490858
1.84649
-0.0521169
1.55586
-0.0516197
1.3002
-0.0427613
1.04385
-0.0230179
0.729685
-0.0051896
0.374167
0.0994934
0.00172645
0.111786
0.0106478
0.394385
0.0216307
0.748093
0.0244542
1.06406
0.0205194
1.32381
0.0136126
1.58094
0.00534779
1.87348
-0.00393298
2.22436
-0.0145779
2.64707
-0.0264391
3.15772
-0.0361926
3.14943
-0.0425911
2.6284
-0.0472738
2.20163
-0.0509172
1.85014
-0.0528497
1.55779
-0.0515252
1.29887
-0.041504
1.03383
-0.0216572
0.709839
-0.00510452
0.357615
0.0943888
0.000902244
0.110883
0.00730341
0.387983
0.0167071
0.73869
0.0191846
1.06158
0.014969
1.32803
0.00776557
1.58815
-0.000762486
1.88201
-0.0104009
2.234
-0.0207892
2.65746
-0.031489
3.16842
-0.0405802
3.15853
-0.0467922
2.63461
-0.0506404
2.20548
-0.0534705
1.85297
-0.0543406
1.55866
-0.0520505
1.29658
-0.0406615
1.02244
-0.0206186
0.689796
-0.00498683
0.341983
0.089402
0.000203888
0.110679
0.00436032
0.383827
0.0112604
0.73179
0.0125724
1.06027
0.00812909
1.33247
0.000840783
1.59544
-0.00808811
1.89094
-0.0179925
2.2439
-0.0287372
2.6682
-0.0396254
3.1793
-0.0478913
3.16679
-0.0524928
2.63921
-0.0553879
2.20837
-0.0572692
1.85485
-0.0572126
1.5586
-0.0535111
1.29288
-0.0407292
1.00966
-0.0202779
0.669344
-0.00504464
0.32675
0.0843574
-0.000742753
0.111422
0.00072378
0.382361
0.00574608
0.726767
0.00638481
1.05963
0.00115546
1.3377
-0.0070314
1.60362
-0.0165174
1.90042
-0.0268642
2.25425
-0.0374689
2.67881
-0.0473266
3.18916
-0.0544087
3.17387
-0.0585686
2.64337
-0.060695
2.2105
-0.0616704
1.85582
-0.0606793
1.55761
-0.0553472
1.28755
-0.0411281
0.995438
-0.020181
0.648397
-0.00510875
0.311677
0.0792486
-0.00159322
0.113015
-0.00238517
0.383152
-0.000362841
0.724745
-0.00195541
1.06122
-0.00800767
1.34375
-0.0165854
1.6122
-0.0267431
1.91058
-0.0378378
2.26534
-0.0490712
2.69004
-0.0591462
3.19924
-0.0657205
3.18045
-0.0685189
2.64617
-0.0691573
2.21114
-0.0686298
1.85529
-0.0660893
1.55507
-0.0589529
1.28041
-0.0428088
0.979294
-0.0208081
0.626397
-0.005358
0.296227
0.0738906
-0.00297317
0.115989
-0.00614896
0.386328
-0.00755957
0.726156
-0.0102237
1.06389
-0.0174254
1.35095
-0.0275224
1.6223
-0.0386765
1.92174
-0.0502256
2.27689
-0.0614599
2.70128
-0.0709289
3.20871
-0.0759023
3.18542
-0.077349
2.64761
-0.0768983
2.21069
-0.0756235
1.85402
-0.0722915
1.55174
-0.0633859
1.27151
-0.0450886
0.960996
-0.0218227
0.603131
-0.00570172
0.280106
0.0681889
-0.00425969
0.120248
-0.0103671
0.392436
-0.0152794
0.731068
-0.0212405
1.06985
-0.02966
1.35937
-0.0406094
1.63325
-0.0528844
1.93401
-0.0657965
2.2898
-0.0782256
2.7137
-0.0880252
3.2185
-0.0924225
3.18982
-0.0927982
2.64799
-0.0908307
2.20872
-0.0870671
1.85026
-0.0809036
1.54558
-0.0693981
1.26
-0.0484288
0.940027
-0.0233874
0.578089
-0.00615816
0.262877
0.0620308
-0.00570772
0.125956
-0.0153423
0.40207
-0.0241375
0.739863
-0.0326876
1.0784
-0.0431749
1.36986
-0.0561897
1.64626
-0.0699703
1.94779
-0.0837005
2.30353
-0.0962282
2.72623
-0.105678
3.22795
-0.108789
3.19293
-0.106708
2.64591
-0.101975
2.20399
-0.0974
1.84568
-0.0905643
1.53874
-0.0765363
1.24597
-0.0525797
0.916071
-0.0253497
0.550859
-0.00670242
0.24423
0.0553283
-0.00798111
0.133937
-0.0221554
0.416245
-0.0363856
0.754093
-0.0483629
1.09037
-0.060502
1.382
-0.0750887
1.66085
-0.0909141
1.96362
-0.106977
2.3196
-0.121151
2.74041
-0.130196
3.237
-0.13105
3.19378
-0.127122
2.64198
-0.121754
2.19862
-0.113731
1.83766
-0.102888
1.5279
-0.0852621
1.22835
-0.057692
0.8885
-0.0276544
0.520822
-0.00728144
0.223857
0.0480469
-0.0104778
0.144415
-0.0295963
0.435363
-0.0499528
0.77445
-0.0667581
1.10718
-0.0822003
1.39744
-0.0997697
1.67842
-0.118046
1.98189
-0.135244
2.33679
-0.148606
2.75377
-0.155275
3.24367
-0.154234
3.19274
-0.148051
2.6358
-0.139139
2.18971
-0.129561
1.82808
-0.117004
1.51534
-0.0954969
1.20684
-0.0634949
0.856498
-0.0302185
0.487545
-0.00787087
0.201509
0.040176
-0.0151864
0.159601
-0.0419029
0.46208
-0.0691451
0.801692
-0.091129
1.12916
-0.110429
1.41674
-0.131455
1.69944
-0.152054
2.00249
-0.170741
2.35548
-0.184588
2.76762
-0.190262
3.24934
-0.185232
3.18771
-0.175299
2.62586
-0.164083
2.17849
-0.151024
1.81502
-0.133528
1.49784
-0.10723
1.18054
-0.0703113
0.81958
-0.0330967
0.450331
-0.00841077
0.176823
0.0317653
-0.0195059
0.179107
-0.0554156
0.497989
-0.0926067
0.838883
-0.121969
1.15853
-0.146566
1.44134
-0.171518
1.7244
-0.194447
2.02542
-0.21327
2.3743
-0.225085
2.77943
-0.226218
3.25048
-0.21766
3.17916
-0.204325
2.61253
-0.188823
2.16299
-0.172942
1.79914
-0.152599
1.4775
-0.120644
1.14859
-0.0775508
0.776487
-0.0358065
0.408586
-0.00869439
0.149711
0.0230709
-0.0325071
0.211614
-0.0815043
0.546986
-0.128555
0.885933
-0.164553
1.19452
-0.195149
1.47194
-0.224574
1.75382
-0.248714
2.04956
-0.266821
2.39241
-0.276085
2.78869
-0.273652
3.24804
-0.259125
3.16463
-0.240757
2.59416
-0.222638
2.14487
-0.202201
1.7787
-0.175222
1.45052
-0.136469
1.10983
-0.0861955
0.726213
-0.0387916
0.361182
-0.00884909
0.119769
0.0142218
-0.0470303
0.258645
-0.120576
0.620533
-0.183474
0.948831
-0.22776
1.23881
-0.263888
1.50806
-0.293705
1.78364
-0.315351
2.07121
-0.328919
2.40598
-0.331929
2.7917
-0.321839
3.23795
-0.301655
3.14445
-0.278867
2.57137
-0.255101
2.1211
-0.230779
1.75438
-0.199487
1.41923
-0.151987
1.06233
-0.0925681
0.666794
-0.0397618
0.308376
-0.0087597
0.0887664
0.00546208
-0.0339468
0.292591
-0.0971634
0.683749
-0.155265
1.00693
-0.202271
1.28582
-0.244758
1.55055
-0.282341
1.82122
-0.316975
2.10584
-0.34772
2.43672
-0.370569
2.81455
-0.379258
3.24664
-0.36978
3.13497
-0.350333
2.55193
-0.327456
2.09823
-0.29616
1.72309
-0.247743
1.37081
-0.179957
0.994547
-0.102227
0.589063
-0.0401284
0.246278
-0.00894571
0.0575838
-0.00348362
-0.0128276
0.305419
-0.0478484
0.71877
-0.089157
1.04824
-0.128147
1.32481
-0.166727
1.58913
-0.200636
1.85513
-0.231716
2.13692
-0.257441
2.46245
-0.273054
2.83017
-0.274643
3.24823
-0.261628
3.12195
-0.239689
2.52999
-0.209204
2.06774
-0.17346
1.68734
-0.133956
1.33131
-0.0863981
0.946989
-0.0400945
0.54276
-0.0133069
0.21949
-0.0030928
0.0473697
-0.00657642
0.00014141
0.305278
-0.0247222
0.743634
-0.0543117
1.07783
-0.0841325
1.35463
-0.114987
1.61998
-0.144952
1.88509
-0.172187
2.16416
-0.194241
2.4845
-0.208123
2.84405
-0.209215
3.24932
-0.191092
3.10383
-0.161194
2.50009
-0.13143
2.03798
-0.0998638
1.65578
-0.0622463
1.29369
-0.025556
0.910299
-0.00187782
0.519082
0.00309131
0.214521
0.000801523
0.0496595
-0.0057749
0.000763001
0.304515
-0.012451
0.756848
-0.0338704
1.09925
-0.0584594
1.37922
-0.0840973
1.64562
-0.109219
1.91022
-0.132338
2.18727
-0.150929
2.50309
-0.161128
2.85425
-0.155551
3.24375
-0.13512
3.0834
-0.110599
2.47557
-0.0792191
2.0066
-0.0452798
1.62184
-0.0166599
1.26507
0.00495826
0.888681
0.0144549
0.509585
0.0103565
0.218619
0.00306235
0.0569537
-0.00271255
0.00388195
0.300633
-0.0056959
0.766426
-0.0235967
1.11715
-0.0439713
1.39959
-0.0653528
1.667
-0.0867497
1.93161
-0.107008
2.20753
-0.12341
2.51949
-0.132172
2.86301
-0.128013
3.23959
-0.110238
3.06562
-0.0822046
2.44753
-0.0518082
1.9762
-0.0237646
1.59379
0.00409383
1.23721
0.0229816
0.869793
0.024868
0.507699
0.0149166
0.228571
0.0043368
0.0675335
0.00162425
0.00520249
0.29543
-0.000882539
0.772511
-0.0169994
1.13327
-0.0354095
1.418
-0.0545003
1.68609
-0.0733227
1.95044
-0.0909802
2.22519
-0.105062
2.53358
-0.111654
2.8696
-0.105936
3.23387
-0.0862991
3.04599
-0.0606191
2.42185
-0.0350389
1.95062
-0.00764447
1.5664
0.0134527
1.21612
0.0257009
0.857545
0.0258297
0.50757
0.0151882
0.239212
0.0045414
0.0781803
0.00616565
0.00378781
0.291642
-0.000773189
0.777072
-0.0142359
1.14673
-0.0309765
1.43474
-0.0481038
1.70322
-0.0651634
1.9675
-0.0814643
2.24149
-0.094977
2.54709
-0.102427
2.87705
-0.0990433
3.23049
-0.0810149
3.02796
-0.0575119
2.39835
-0.0318346
1.92494
-0.00949781
1.54406
0.0113622
1.19526
0.0242282
0.844679
0.0227853
0.509013
0.0135437
0.248454
0.00412703
0.087597
0.0102927
0.00239564
0.289247
-0.00151433
0.780982
-0.0136141
1.15883
-0.0285601
1.44969
-0.0448033
1.71946
-0.0609833
1.98368
-0.0764995
2.25701
-0.089545
2.56013
-0.0963637
2.88387
-0.0920313
3.22615
-0.0764879
3.01241
-0.0564961
2.37836
-0.0358176
1.90426
-0.0116436
1.51989
0.00627033
1.17734
0.0165971
0.834352
0.0175656
0.508044
0.0101399
0.255879
0.00309034
0.0946466
0.013383
0.00011602
0.289131
-0.00390613
0.785004
-0.0147008
1.16962
-0.0282258
1.46321
-0.0433392
1.73458
-0.058786
1.99912
-0.0740082
2.27223
-0.0871345
2.57326
-0.0952772
2.89201
-0.0943247
3.2252
-0.081784
2.99987
-0.0630975
2.35967
-0.0403016
1.88147
-0.0212984
1.50088
-0.00219639
1.15824
0.00991836
0.822237
0.0103853
0.507577
0.00645778
0.259807
0.00210359
0.0990007
0.0154866
-0.000672802
0.289803
-0.00573262
0.790064
-0.0157715
1.17966
-0.0284922
1.47593
-0.0431049
1.74919
-0.0581635
2.01418
-0.0731801
2.28725
-0.0867098
2.58679
-0.0959911
2.90129
-0.09598
3.22519
-0.0848884
2.98878
-0.0684603
2.34324
-0.0502447
1.86325
-0.0287353
1.47937
-0.0119515
1.14146
-0.00137677
0.811662
0.00293687
0.503264
0.00190453
0.260839
0.000935396
0.0999699
0.016422
-0.00220976
0.292013
-0.0077219
0.795576
-0.0174085
1.18935
-0.0295061
1.48803
-0.0433561
1.76304
-0.0579642
2.02879
-0.0730773
2.30236
-0.0872956
2.60101
-0.0978609
2.91186
-0.100839
3.22817
-0.0926613
2.9806
-0.0761942
2.32678
-0.0562338
1.84329
-0.039092
1.46223
-0.0213656
1.12373
-0.00845084
0.798748
-0.00364414
0.498457
-0.00141748
0.258613
-0.000272229
0.0988246
0.0161498
-0.00356357
0.295577
-0.00930504
0.801317
-0.0186378
1.19868
-0.0302948
1.49969
-0.043805
1.77655
-0.0582543
2.04324
-0.0735012
2.31761
-0.0883392
2.61585
-0.100321
2.92384
-0.105986
3.23383
-0.0992743
2.97389
-0.0843862
2.31189
-0.067434
1.82634
-0.0461035
1.4409
-0.0291353
1.10676
-0.0168828
0.786495
-0.00834115
0.489915
-0.0038961
0.254168
-0.00085373
0.0957822
0.015296
-0.00418766
0.299764
-0.0104853
0.807615
-0.0198508
1.20805
-0.0311669
1.51101
-0.0441844
1.78957
-0.0583622
2.05742
-0.0737274
2.33297
-0.0891824
2.6313
-0.102706
2.93736
-0.110894
3.24202
-0.10717
2.97017
-0.0937723
2.29849
-0.0727835
1.80535
-0.0543633
1.42248
-0.0353894
1.08779
-0.0207024
0.771808
-0.0123675
0.48158
-0.00521061
0.247011
-0.00126445
0.0918361
0.0140316
-0.00440243
0.304167
-0.0112725
0.814485
-0.0205375
1.21731
-0.0315874
1.52206
-0.0443927
1.80237
-0.0584294
2.07145
-0.0738921
2.34843
-0.0900191
2.64743
-0.10521
2.95256
-0.116064
3.25287
-0.115626
2.96973
-0.10291
2.28578
-0.084363
1.7868
-0.0599153
1.39803
-0.0405492
1.06842
-0.0257513
0.75701
-0.0136179
0.469447
-0.00597075
0.239364
-0.00134165
0.087207
0.0126899
-0.00444856
0.308615
-0.0116904
0.821727
-0.0210062
1.22663
-0.031841
1.53289
-0.0442917
1.81482
-0.0580892
2.08525
-0.0736213
2.36397
-0.0902905
2.6641
-0.106707
2.96897
-0.119669
3.26584
-0.122109
2.97217
-0.111239
2.27491
-0.0890397
1.76461
-0.066405
1.3754
-0.0432302
1.04525
-0.0255555
0.739336
-0.0142505
0.458142
-0.0053427
0.230456
-0.00109873
0.082963
0.0115912
-0.00453169
0.313147
-0.0119941
0.829189
-0.0210869
1.23572
-0.0316734
1.54348
-0.0439136
1.82706
-0.0575406
2.09888
-0.0731113
2.37954
-0.0902849
2.68127
-0.108158
2.98685
-0.123859
3.28154
-0.129178
2.97749
-0.119434
2.26516
-0.100746
1.74592
-0.0716999
1.34635
-0.045232
1.01878
-0.0248463
0.71895
-0.00983821
0.443134
-0.00263033
0.223248
9.49704e-05
0.0802377
0.0116862
-0.0045445
0.317692
-0.0119876
0.836632
-0.0209575
1.24469
-0.0312906
1.55381
-0.0431874
1.83896
-0.056586
2.11228
-0.0721441
2.39509
-0.0896839
2.69881
-0.108488
3.00565
-0.125863
3.29891
-0.134596
2.98622
-0.128053
2.25862
-0.105708
1.72357
-0.0781553
1.3188
-0.0451303
0.985753
-0.0182017
0.692021
-0.00224693
0.427179
0.00271378
0.218287
-0.00142395
0.0843754
0.0102622
-0.00456274
0.322254
-0.0119621
0.844032
-0.0205936
1.25332
-0.0306156
1.56383
-0.042245
1.85059
-0.0554139
2.12544
-0.0708898
2.41057
-0.0887098
2.71663
-0.108517
3.02546
-0.128213
3.31861
-0.13928
2.99729
-0.13474
2.25408
-0.118353
1.70719
-0.0851109
1.28556
-0.0459525
0.946594
-0.00725585
0.653325
0.0244955
0.395428
0.0367339
0.206049
0.0253994
0.09571
0.0356616
-0.00444336
0.326698
-0.0116429
0.851231
-0.0200661
1.26175
-0.0297635
1.57353
-0.0409957
1.86182
-0.0538861
2.13834
-0.069227
2.42591
-0.0871946
2.7346
-0.107616
3.04588
-0.128671
3.33966
-0.142696
3.01131
-0.14387
2.25525
-0.124848
1.68816
-0.0939085
1.25462
-0.0471098
0.899796
0.00159743
0.604617
0.0448735
0.352152
0.0466946
0.204228
0.0205476
0.121857
0.0562092
-0.00430098
0.330999
-0.0113662
0.858296
-0.0194059
1.26979
-0.0287243
1.58285
-0.0396576
1.87276
-0.052243
2.15092
-0.0673876
2.44106
-0.0854322
2.75264
-0.106454
3.0669
-0.129315
3.36253
-0.145219
3.02722
-0.148588
2.25862
-0.138948
1.67852
-0.106554
1.22223
-0.0573272
0.850568
0.0155003
0.53179
0.115192
0.25246
0.191844
0.127576
0.181576
0.132124
0.237786
-0.00414908
0.335148
-0.0110503
0.865198
-0.0190789
1.27781
-0.0283891
1.59216
-0.0394506
1.88382
-0.0524902
2.16396
-0.0685433
2.45711
-0.0881485
2.77225
-0.111763
3.09051
-0.138685
3.38945
-0.160801
3.04933
-0.171515
2.26934
-0.161817
1.66883
-0.133892
1.1943
-0.0780696
0.794746
-0.0220438
0.475764
-0.0712411
0.301657
-0.357902
0.414237
-0.941064
0.715286
0.899907
-1.60319
-0.0039823
0.33913
-0.0107596
0.871975
-0.0185039
1.28556
-0.0276342
1.60129
-0.0386285
1.89481
-0.0517654
2.1771
-0.0682222
2.47357
-0.0887747
2.7928
-0.114267
3.11601
-0.144891
3.42007
-0.171577
3.07602
-0.186029
2.28379
-0.194536
1.67733
-0.178105
1.17787
-0.152666
0.769307
-0.243815
0.566913
-0.693156
0.750999
-1.44095
1.16203
-2.04892
1.32326
1.21699
-2.36601
-0.00375059
0.342881
-0.0102097
0.878434
-0.0177753
1.29312
-0.0267079
1.61022
-0.0375257
1.90563
-0.0507471
2.19032
-0.0675894
2.49041
-0.0889886
2.8142
-0.116289
3.14331
-0.150344
3.45413
-0.183571
3.10925
-0.209452
2.30967
-0.218902
1.68678
-0.20994
1.16891
-0.296345
0.855711
-0.7535
1.02407
-1.54284
1.54034
-2.10923
1.72842
-2.34868
1.56271
1.33135
-2.46303
-0.00359219
0.346473
-0.00976424
0.884606
-0.0169667
1.30033
-0.0256628
1.61892
-0.0363504
1.91632
-0.0495908
2.20356
-0.0667129
2.50753
-0.0889428
2.83643
-0.118015
3.17238
-0.155776
3.49189
-0.194577
3.14805
-0.224504
2.3396
-0.253542
1.71582
-0.335026
1.25039
-0.686693
1.20738
-1.43623
1.7736
-2.02632
2.13043
-2.26619
1.96829
-2.37947
1.67599
1.39571
-2.44383
-0.0032945
0.349767
-0.00903692
0.890348
-0.0159744
1.30726
-0.0244004
1.62734
-0.0349047
1.92682
-0.0481454
2.2168
-0.0655213
2.52491
-0.0884341
2.85934
-0.119154
3.2031
-0.160459
3.53319
-0.207027
3.19462
-0.251831
2.3844
-0.294715
1.7587
-0.475441
1.43112
-1.09329
1.82523
-1.78686
2.46717
-2.10799
2.45156
-2.25634
2.11663
-2.33843
1.75808
1.46153
-2.40424
-0.00324807
0.353015
-0.00895458
0.896055
-0.0157857
1.3141
-0.0242492
1.63581
-0.0350374
1.93761
-0.0485655
2.23033
-0.0664353
2.54278
-0.0903332
2.88324
-0.122845
3.23561
-0.167799
3.57814
-0.220064
3.24688
-0.266308
2.43064
-0.357102
1.8495
-0.748135
1.82215
-1.48936
2.56646
-1.96305
2.94086
-2.16295
2.65147
-2.26919
2.22287
-2.34623
1.83512
1.52506
-2.40976
-0.00331394
0.356329
-0.00919009
0.901931
-0.0164744
1.32138
-0.0253816
1.64471
-0.0366255
1.94885
-0.0508124
2.24451
-0.06958
2.56154
-0.0946811
2.90834
-0.129145
3.27008
-0.177985
3.62698
-0.235368
3.30426
-0.298746
2.49402
-0.488115
2.03887
-1.04636
2.3804
-1.67756
3.19766
-1.95352
3.21681
-2.10047
2.79842
-2.21427
2.33667
-2.30776
1.92862
1.58673
-2.36943
-0.00339642
0.359726
-0.00968686
0.908222
-0.0172768
1.32897
-0.0266679
1.6541
-0.0385106
1.9607
-0.0533555
2.25936
-0.0729856
2.58117
-0.0994294
2.93479
-0.135876
3.30652
-0.188326
3.67943
-0.251118
3.36706
-0.337121
2.58003
-0.61868
2.32043
-1.26323
3.02494
-1.75269
3.68712
-1.95983
3.42395
-2.0998
2.93839
-2.2235
2.46037
-2.33397
2.03909
1.64531
-2.39255
-0.0033432
0.363069
-0.00976811
0.914646
-0.0179677
1.33717
-0.0279086
1.66405
-0.0402333
1.97302
-0.0557921
2.27492
-0.0763946
2.60178
-0.104072
2.96246
-0.142398
3.34485
-0.197665
3.7347
-0.264991
3.43438
-0.390426
2.70546
-0.776332
2.70633
-1.4099
3.65851
-1.76304
4.04026
-1.93599
3.5969
-2.03791
3.04031
-2.12645
2.54891
-2.19376
2.1064
1.63812
-2.18657
-0.00330252
0.366372
-0.0101996
0.921544
-0.0186917
1.34566
-0.0291752
1.67453
-0.0422301
1.98608
-0.0585085
2.2912
-0.0799914
2.62326
-0.109038
2.99151
-0.149262
3.38507
-0.206337
3.79178
-0.28541
3.51346
-0.455492
2.87554
-0.90662
3.15746
-1.46227
4.21416
-1.72435
4.30235
-1.87626
3.74881
-1.9695
3.13355
-1.97103
2.55044
-1.90215
2.03752
1.60306
-1.8671
-0.00309026
0.369462
-0.00994
0.928393
-0.0190999
1.35482
-0.0300964
1.68553
-0.0434792
1.99946
-0.0602157
2.30793
-0.0822008
2.64524
-0.111583
3.02089
-0.152115
3.42561
-0.208459
3.84812
-0.293657
3.59865
-0.498375
3.08026
-0.988086
3.64717
-1.42958
4.65565
-1.5949
4.46766
-1.66204
3.81595
-1.66656
3.13807
-1.519
2.40288
-1.01889
1.53741
0.584176
-0.00261199
0.372074
-0.0101223
0.935904
-0.0195066
1.36421
-0.0311857
1.6972
-0.0457506
2.01402
-0.0638209
2.326
-0.0876015
2.66903
-0.119747
3.05304
-0.164323
3.47018
-0.227238
3.91103
-0.330953
3.70237
-0.585686
3.33499
-1.12381
4.18529
-1.48218
5.01402
-1.58166
4.56715
-1.57963
3.81391
-1.47617
3.03462
-1.23687
2.16358
-0.63323
0.933771
-0.0490544
-0.00220309
0.374277
-0.0091527
0.942853
-0.0193094
1.37436
-0.0317943
1.70969
-0.0471026
2.02933
-0.0664715
2.34537
-0.0922237
2.69478
-0.126986
3.0878
-0.175753
3.51895
-0.244804
3.98008
-0.366607
3.82417
-0.680861
3.64925
-1.24111
4.74554
-1.5031
5.27601
-1.56155
4.62559
-1.53959
3.79196
-1.33732
2.83234
-0.78454
1.6108
-0.109498
0.258729
-0.158552
-0.00163646
0.375913
-0.00883175
0.950048
-0.0188518
1.38438
-0.0319173
1.72276
-0.048414
2.04583
-0.0691173
2.36608
-0.0966697
2.72233
-0.134322
3.12545
-0.186799
3.57143
-0.264089
4.05737
-0.413241
3.97332
-0.786205
4.02221
-1.32077
5.28011
-1.49674
5.45199
-1.52813
4.65698
-1.43987
3.7037
-1.10344
2.4959
-0.314619
0.821986
0.0252228
-0.0811131
-0.133329
-0.000466129
0.376379
-0.006475
0.956057
-0.0172395
1.39515
-0.0311176
1.73663
-0.0481073
2.06282
-0.0699722
2.38794
-0.0994226
2.75178
-0.139415
3.16544
-0.194714
3.62673
-0.280527
4.14319
-0.454525
4.14732
-0.891839
4.45952
-1.3639
5.75216
-1.48185
5.56994
-1.48425
4.65939
-1.26057
3.48001
-0.689001
1.92434
-0.0626777
0.195663
0.0307909
-0.174582
-0.102538
0.000415535
0.375964
-0.00476567
0.961239
-0.0149805
1.40536
-0.0292325
1.75089
-0.0471948
2.08078
-0.0703181
2.41106
-0.101318
2.78278
-0.143713
3.20784
-0.202067
3.68508
-0.297282
4.2384
-0.49929
4.34933
-0.986909
4.94714
-1.36191
6.12716
-1.42494
5.63297
-1.37911
4.61356
-1.0903
3.1912
-0.324357
1.15839
0.00497804
-0.133672
0.0153633
-0.184967
-0.0871751
0.00329024
0.372674
0.000476529
0.964052
-0.0107134
1.41655
-0.0256821
1.76585
-0.0435743
2.09867
-0.0675719
2.43506
-0.0999929
2.8152
-0.14403
3.25188
-0.204992
3.74604
-0.30821
4.34162
-0.534961
4.57608
-1.04641
5.45859
-1.32227
6.40303
-1.36433
5.67503
-1.22561
4.47484
-0.775032
2.74063
-0.070954
0.454312
0.0458064
-0.250433
0.0251396
-0.1643
-0.0620355
0.00485556
0.367818
0.00333748
0.96557
-0.00588554
1.42578
-0.019919
1.77989
-0.0383824
2.11714
-0.0633295
2.46001
-0.0966475
2.84852
-0.142294
3.29752
-0.205792
3.80954
-0.31697
4.4528
-0.574294
4.83341
-1.0692
5.95349
-1.2608
6.59464
-1.26976
5.68398
-1.05074
4.25582
-0.461524
2.15141
-0.0145827
0.00737131
-0.00338915
-0.261626
0.00697291
-0.174662
-0.0550626
0.00859195
0.359226
0.0100426
0.96412
0.00257333
1.43324
-0.011093
1.79355
-0.0292063
2.13525
-0.0541757
2.48498
-0.0878189
2.88216
-0.133557
3.34326
-0.198522
3.8745
-0.315804
4.57008
-0.593267
5.11087
-1.04554
6.40576
-1.16622
6.71532
-1.15386
5.67163
-0.897976
3.99994
-0.265873
1.5193
-0.0705767
-0.187925
-0.0377993
-0.294404
-0.0129669
-0.199495
-0.0680295
0.0118085
0.347418
0.0171329
0.958795
0.0128397
1.43754
0.00203147
1.80436
-0.0169952
2.15428
-0.0415771
2.50956
-0.0747287
2.91531
-0.120587
3.38912
-0.186099
3.94002
-0.307072
4.69105
-0.592602
5.3964
-0.9787
6.79186
-1.04942
6.78603
-0.978715
5.60092
-0.683192
3.70442
-0.0836197
0.919731
-0.000351224
-0.271193
-0.0112074
-0.283547
-0.00531378
-0.205388
-0.0733432
0.0183092
0.329108
0.0298917
0.947213
0.0282633
1.43917
0.0176482
1.81498
0.000758802
2.17117
-0.0212874
2.53161
-0.052964
2.94699
-0.0968745
3.43303
-0.160364
4.00351
-0.280526
4.81122
-0.554903
5.67078
-0.864871
7.10183
-0.898572
6.81973
-0.804017
5.50637
-0.460244
3.36064
0.0453435
0.414144
0.0606112
-0.286461
0.0421719
-0.265108
0.015386
-0.178602
-0.0579572
0.0244363
0.304672
0.0431998
0.928449
0.0473341
1.43503
0.0406087
1.8217
0.0272856
2.18449
0.00587636
2.55302
-0.023558
2.97642
-0.0645957
3.47407
-0.124799
4.06371
-0.238896
4.92531
-0.480826
5.91271
-0.703445
7.32445
-0.738457
6.85475
-0.622881
5.39079
-0.301282
3.03904
-0.00539221
0.118254
0.0178408
-0.309694
0.030304
-0.277571
0.015026
-0.163324
-0.0429312
0.0345694
0.270103
0.0643315
0.898687
0.0748759
1.42449
0.0719118
1.82467
0.062348
2.19405
0.0444597
2.5709
0.0186324
3.00225
-0.0181015
3.5108
-0.0711722
4.11678
-0.167364
5.0215
-0.361536
6.10688
-0.514149
7.47706
-0.543472
6.88407
-0.45212
5.29944
-0.161089
2.74801
-0.0383788
-0.00445623
-0.0176377
-0.330435
0.0130956
-0.308304
0.012886
-0.163115
-0.0300452
0.0440697
0.226033
0.0868108
0.855946
0.107945
1.40335
0.112851
1.81976
0.108219
2.19868
0.0943109
2.58481
0.074367
3.0222
0.0447034
3.54046
-0.00380781
4.16529
-0.0733639
5.09106
-0.202691
6.23621
-0.284966
7.55934
-0.304005
6.90311
-0.247174
5.24261
-0.0280281
2.52887
-0.052786
0.0203016
-0.0574293
-0.325792
-0.0138576
-0.351876
0.0186397
-0.195612
-0.0114054
0.0565191
0.169514
0.11803
0.794435
0.153554
1.36783
0.165854
1.80746
0.167438
2.1971
0.159417
2.59283
0.146792
3.03482
0.12733
3.55993
0.0976591
4.19496
0.0568022
5.13192
0.0175715
6.27544
-0.0193126
7.59622
-0.0328258
6.91662
-0.0914787
5.30126
-0.1445
2.58189
-0.383802
0.259603
-0.405545
-0.304049
-0.279999
-0.477422
-0.0958919
-0.379719
-0.107297
0.0595222
0.109992
0.148092
0.705865
0.204682
1.31124
0.232155
1.77999
0.243314
2.18594
0.242522
2.59363
0.238292
3.03905
0.23023
3.56799
0.219838
4.20535
0.207733
5.14402
0.282453
6.20072
0.346768
7.53191
0.281413
6.98198
0.0442497
5.53843
-0.354317
2.98045
-0.731234
0.636521
-0.742126
-0.293156
-0.562591
-0.656957
-0.260839
-0.681471
-0.368137
0.0508322
0.0591596
0.179295
0.577402
0.270905
1.21963
0.314612
1.73628
0.336033
2.16452
0.345949
2.58371
0.349787
3.03521
0.357018
3.56076
0.371486
4.19089
0.404375
5.11113
0.573293
6.0318
0.780564
7.32463
0.841677
6.92086
0.811615
5.56849
0.361728
3.43034
-0.237706
1.23595
-0.595431
0.0645691
-0.620655
-0.631734
-0.335186
-0.966939
-0.703323
0.0356272
0.0235324
0.212827
0.400203
0.336787
1.09567
0.412958
1.66011
0.452104
2.12537
0.4752
2.56061
0.487366
3.02305
0.508546
3.53958
0.5474
4.15203
0.633967
5.02457
0.954539
5.71123
1.47182
6.80736
1.87914
6.51354
2.19484
5.25278
1.96991
3.65528
1.23373
1.97214
0.608727
0.689567
0.169216
-0.192223
-0.0340051
-0.763718
-0.737328
0.0312531
-0.0077207
0.232873
0.198583
0.427951
0.900592
0.534434
1.55363
0.588047
2.07176
0.624369
2.52429
0.648791
2.99862
0.681434
3.50693
0.74934
4.08413
0.895522
4.87838
1.32427
5.28248
2.0927
6.03892
2.49131
6.11494
2.69201
5.05208
2.5307
3.81659
2.02318
2.47966
1.46836
1.24439
0.939308
0.336824
0.368472
-0.192881
-0.368857
0.0279601
-0.0356808
0.173697
0.0528459
0.479068
0.595221
0.662568
1.37013
0.752872
1.98146
0.803119
2.47404
0.843356
2.95839
0.878461
3.47183
0.956201
4.00639
1.10512
4.72947
1.46721
4.92039
2.2417
5.26443
2.60866
5.74798
2.78177
4.87898
2.69069
3.90767
2.2516
2.91874
1.61822
1.87777
0.962684
0.992362
0.411361
0.358442
0.0425043
0.00881011
-0.0444909
0.0906533
-0.0289972
0.407554
0.27832
0.66786
1.10982
0.7922
1.85712
0.828258
2.43799
0.838206
2.94844
0.828625
3.48141
0.827531
4.00748
0.871812
4.68519
0.985796
4.8064
1.36293
4.8873
1.56934
5.54157
1.58801
4.8603
1.51214
3.98354
1.31022
3.12065
0.971587
2.21641
0.610352
1.3536
0.251081
0.717713
0.293585
-0.00133186
-0.0431591
0.0371393
-0.0674684
0.23144
0.0840189
0.500281
0.840978
0.649653
1.70775
0.701374
2.38627
0.716305
2.93351
0.711122
3.48659
0.694703
4.0239
0.708761
4.67113
0.756958
4.75821
0.988373
4.65589
1.20786
5.32208
1.21327
4.85489
1.14958
4.04724
1.00647
3.26376
0.759542
2.46334
0.471408
1.64173
0.191099
0.998022
0.484684
-0.000512294
-0.0426468
0.0238308
-0.0918115
0.111438
-0.00358847
0.354083
0.598334
0.496205
1.56562
0.557754
2.32472
0.577609
2.91365
0.581135
3.48307
0.564276
4.04076
0.555284
4.68012
0.575532
4.73796
0.716503
4.51492
0.889044
5.14954
0.886372
4.85756
0.818927
4.11468
0.705016
3.37767
0.532408
2.63594
0.320169
1.85397
0.121601
1.19659
0.606285
0.00476444
-0.0474112
0.0319873
-0.119034
0.0835188
-0.05512
0.259258
0.422595
0.378566
1.44631
0.429295
2.27399
0.442105
2.90084
0.447344
3.47783
0.439419
4.04868
0.430071
4.68947
0.431456
4.73657
0.513081
4.43329
0.631132
5.03149
0.624849
4.86384
0.558291
4.18124
0.467245
3.46872
0.346226
2.75696
0.200071
2.00013
0.0653213
1.33134
0.671607
0.0334384
-0.0808496
0.0861262
-0.171722
0.121001
-0.0899947
0.17946
0.364135
0.258795
1.36698
0.296143
2.23664