/*--------------------------------*- C++ -*----------------------------------*\
| =========                 |                                                 |
| \\      /  F ield         | OpenFOAM: The Open Source CFD Toolbox           |
|  \\    /   O peration     | Version:  4.0                                   |
|   \\  /    A nd           | Web:      www.OpenFOAM.org                      |
|    \\/     M anipulation  |                                                 |
\*---------------------------------------------------------------------------*/
FoamFile
{
    version     2.0;
    format      ascii;
    class       volVectorField;
    location    "1";
    object      U;
}
// * * * * * * * * * * * * * * * * * * * * * * * * * * * * * * * * * * * * * //

dimensions      [0 1 -1 0 0 0 0];

internalField   nonuniform List<vector> 
2200
(
(0.803343 -0.0172135 0)
(0.895913 -0.0287857 0)
(0.896642 -0.0203611 0)
(0.893863 -0.0158537 0)
(0.891639 -0.011898 0)
(0.890084 -0.00862879 0)
(0.889063 -0.00602485 0)
(0.888427 -0.00391375 0)
(0.888051 -0.00211572 0)
(0.887859 -0.000442981 0)
(0.887844 0.00117864 0)
(0.888015 0.00276729 0)
(0.888376 0.00446602 0)
(0.889004 0.0064741 0)
(0.890021 0.0089776 0)
(0.891575 0.0121573 0)
(0.893799 0.0160356 0)
(0.896578 0.0204804 0)
(0.895845 0.0288376 0)
(0.803283 0.0172194 0)
(0.881976 -0.00637253 0)
(1.02478 -0.0121233 0)
(1.02637 -0.0102439 0)
(1.02247 -0.0102427 0)
(1.01905 -0.00931071 0)
(1.01648 -0.00790746 0)
(1.01463 -0.00617148 0)
(1.01337 -0.00428905 0)
(1.01258 -0.00236467 0)
(1.01217 -0.000375349 0)
(1.01209 0.00157586 0)
(1.01245 0.00341126 0)
(1.01321 0.00518453 0)
(1.01443 0.00690169 0)
(1.01625 0.00847503 0)
(1.01881 0.00972656 0)
(1.02221 0.0105215 0)
(1.02609 0.0104127 0)
(1.02448 0.012189 0)
(0.881804 0.0063885 0)
(0.870053 -0.00327317 0)
(1.03796 -0.00566328 0)
(1.04395 -0.0054451 0)
(1.04243 -0.00576855 0)
(1.04071 -0.00561484 0)
(1.039 -0.00514235 0)
(1.03746 -0.00431533 0)
(1.03621 -0.00316609 0)
(1.0353 -0.00175566 0)
(1.03478 -0.000187664 0)
(1.03459 0.00153823 0)
(1.03502 0.00308535 0)
(1.03584 0.00432909 0)
(1.03703 0.00529045 0)
(1.03852 0.00589158 0)
(1.04018 0.00615448 0)
(1.04187 0.00614515 0)
(1.04342 0.00571834 0)
(1.03747 0.0058806 0)
(0.869758 0.00336516 0)
(0.8295 -0.000881226 0)
(1.00707 -0.00236295 0)
(1.01402 -0.00279797 0)
(1.01328 -0.00336083 0)
(1.01218 -0.00354438 0)
(1.01098 -0.00342259 0)
(1.00977 -0.00297185 0)
(1.00867 -0.00223028 0)
(1.00778 -0.00118318 0)
(1.00718 1.21053e-05 0)
(1.00721 0.00134693 0)
(1.00755 0.00262611 0)
(1.00827 0.00348588 0)
(1.00928 0.00403096 0)
(1.01043 0.00430736 0)
(1.0116 0.00427119 0)
(1.01269 0.00392279 0)
(1.01352 0.00320697 0)
(1.0066 0.0026173 0)
(0.828709 0.00099144 0)
(0.826751 0.000121482 0)
(1.00041 -0.000105465 0)
(1.00727 -0.000641799 0)
(1.00693 -0.00109857 0)
(1.00631 -0.00142493 0)
(1.00557 -0.00153893 0)
(1.00474 -0.00142063 0)
(1.00388 -0.0010321 0)
(1.00308 -0.000370591 0)
(1.00245 0.000486477 0)
(1.00246 0.00139622 0)
(1.0026 0.00214033 0)
(1.00307 0.00254521 0)
(1.0037 0.00266505 0)
(1.00437 0.00253516 0)
(1.00502 0.00219702 0)
(1.00557 0.00168744 0)
(1.00585 0.00105241 0)
(0.998675 0.000319359 0)
(0.824672 -6.98558e-05 0)
(0.828524 -4.65354e-05 0)
(1.00223 -0.00015674 0)
(1.00926 -0.000349304 0)
(1.00911 -0.000525578 0)
(1.00879 -0.000675705 0)
(1.00833 -0.000730534 0)
(1.00775 -0.000640146 0)
(1.00707 -0.000357058 0)
(1.00638 0.000144005 0)
(1.00578 0.00085718 0)
(1.00557 0.0015308 0)
(1.00559 0.00195282 0)
(1.00587 0.00213874 0)
(1.00626 0.00207623 0)
(1.00665 0.00182646 0)
(1.00701 0.001468 0)
(1.00728 0.0010747 0)
(1.00729 0.000679986 0)
(0.999964 0.00030721 0)
(0.826264 6.19569e-05 0)
(0.828374 -4.64412e-05 0)
(1.00227 -0.000121736 0)
(1.00947 -0.000149855 0)
(1.00948 -0.000144814 0)
(1.00931 -0.00011532 0)
(1.00903 -4.04083e-05 0)
(1.00864 0.000115375 0)
(1.00814 0.000381414 0)
(1.00756 0.00077453 0)
(1.00699 0.00129434 0)
(1.00666 0.0017179 0)
(1.00648 0.00192915 0)
(1.00648 0.00190858 0)
(1.0066 0.00173851 0)
(1.00677 0.00148007 0)
(1.00694 0.00118379 0)
(1.00706 0.000864107 0)
(1.00697 0.000565887 0)
(0.999609 0.000299033 0)
(0.825979 8.70255e-05 0)
(0.828154 5.89772e-06 0)
(1.00213 1.75922e-05 0)
(1.00942 7.93328e-05 0)
(1.00946 0.000164701 0)
(1.00931 0.000285479 0)
(1.00908 0.000444954 0)
(1.00875 0.000661912 0)
(1.0083 0.000949986 0)
(1.00775 0.00130786 0)
(1.00713 0.00170618 0)
(1.00664 0.00198287 0)
(1.00633 0.00200877 0)
(1.0062 0.00189027 0)
(1.00617 0.00166623 0)
(1.00617 0.00137798 0)
(1.00617 0.00106693 0)
(1.00617 0.00076744 0)
(1.00602 0.000496983 0)
(0.998642 0.000261443 0)
(0.825136 7.65089e-05 0)
(0.828317 3.94689e-05 0)
(1.00233 0.000126356 0)
(1.0097 0.000262852 0)
(1.00977 0.000425263 0)
(1.00964 0.000624954 0)
(1.00942 0.00086716 0)
(1.0091 0.00115783 0)
(1.00866 0.00149683 0)
(1.00807 0.00186605 0)
(1.00736 0.00221132 0)
(1.00668 0.00239149 0)
(1.00616 0.00232341 0)
(1.00585 0.00209519 0)
(1.00567 0.00177341 0)
(1.00556 0.0014221 0)
(1.0055 0.0010807 0)
(1.00547 0.000769617 0)
(1.0053 0.000495876 0)
(0.99792 0.000260226 0)
(0.824517 7.65489e-05 0)
(0.828775 6.75625e-05 0)
(1.00286 0.000224316 0)
(1.01021 0.000426847 0)
(1.01028 0.000666222 0)
(1.01015 0.000951273 0)
(1.00993 0.00128541 0)
(1.00959 0.00166737 0)
(1.0091 0.00208463 0)
(1.00844 0.00250174 0)
(1.00758 0.00283912 0)
(1.00668 0.00295106 0)
(1.00597 0.00278731 0)
(1.00548 0.00244988 0)
(1.00516 0.00203737 0)
(1.00496 0.00161443 0)
(1.00484 0.00121725 0)
(1.00476 0.000862141 0)
(1.00457 0.000553747 0)
(0.997171 0.000290307 0)
(0.823875 8.57238e-05 0)
(0.829412 9.28446e-05 0)
(1.00359 0.00030969 0)
(1.01094 0.000588316 0)
(1.011 0.000917612 0)
(1.01085 0.00130326 0)
(1.0106 0.00174717 0)
(1.01021 0.00224258 0)
(1.00964 0.00276606 0)
(1.00883 0.00326386 0)
(1.00778 0.00362757 0)
(1.00662 0.00369248 0)
(1.00566 0.00342902 0)
(1.00498 0.00297616 0)
(1.00452 0.00245478 0)
(1.00423 0.00193545 0)
(1.00404 0.001455 0)
(1.00392 0.00102894 0)
(1.0037 0.000660457 0)
(0.996297 0.000345933 0)
(0.823126 0.000102274 0)
(0.830262 0.000121698 0)
(1.00457 0.000407653 0)
(1.01191 0.000775644 0)
(1.01196 0.00121009 0)
(1.01178 0.00171625 0)
(1.01147 0.00229433 0)
(1.011 0.00293198 0)
(1.0103 0.00359417 0)
(1.0093 0.00420653 0)
(1.00798 0.00462648 0)
(1.00649 0.00465764 0)
(1.00524 0.00428549 0)
(1.00434 0.00369396 0)
(1.00372 0.003032 0)
(1.00331 0.00238233 0)
(1.00305 0.00178671 0)
(1.0029 0.00126169 0)
(1.00266 0.000809409 0)
(0.995238 0.00042415 0)
(0.82222 0.000125696 0)
(0.831375 0.000158299 0)
(1.00585 0.000529279 0)
(1.01318 0.00100627 0)
(1.01321 0.001569 0)
(1.01298 0.00222334 0)
(1.0126 0.00296826 0)
(1.01201 0.00378542 0)
(1.01113 0.00462632 0)
(1.00988 0.00539174 0)
(1.0082 0.00589688 0)
(1.0063 0.00590085 0)
(1.00468 0.00540192 0)
(1.00351 0.00463949 0)
(1.0027 0.00379891 0)
(1.00217 0.00298021 0)
(1.00183 0.00223272 0)
(1.00163 0.00157536 0)
(1.00136 0.00100979 0)
(0.993923 0.000528457 0)
(0.821096 0.000156193 0)
(0.832813 0.000203881 0)
(1.00751 0.000682315 0)
(1.01483 0.00129694 0)
(1.01482 0.0020216 0)
(1.01453 0.00286274 0)
(1.01405 0.00381817 0)
(1.0133 0.00486268 0)
(1.01218 0.00593164 0)
(1.01059 0.00689515 0)
(1.00845 0.00751533 0)
(1.00603 0.00749234 0)
(1.00396 0.00683711 0)
(1.00246 0.00585861 0)
(1.00142 0.00478944 0)
(1.00074 0.00375328 0)
(1.0003 0.00281013 0)
(1.00004 0.00198224 0)
(0.999733 0.00127075 0)
(0.992281 0.000665294 0)
(0.819691 0.000197039 0)
(0.834663 0.000262021 0)
(1.00963 0.000876503 0)
(1.01694 0.00166599 0)
(1.01688 0.00259673 0)
(1.01651 0.00367619 0)
(1.0159 0.0049004 0)
(1.01494 0.00623511 0)
(1.01351 0.00759506 0)
(1.01148 0.00881147 0)
(1.00875 0.00957934 0)
(1.00566 0.00952381 0)
(1.00302 0.00867115 0)
(1.00111 0.00741829 0)
(0.999791 0.00605776 0)
(0.998917 0.00474357 0)
(0.998361 0.00354967 0)
(0.998023 0.00250295 0)
(0.997678 0.00160405 0)
(0.990205 0.000839581 0)
(0.817917 0.000248452 0)
(0.837044 0.000337635 0)
(1.01237 0.00112744 0)
(1.01966 0.00214108 0)
(1.01954 0.0033358 0)
(1.01906 0.00471997 0)
(1.01827 0.00628766 0)
(1.01704 0.00799287 0)
(1.01521 0.00972337 0)
(1.0126 0.01126 0)
(1.00911 0.012212 0)
(1.00518 0.0121109 0)
(1.00183 0.0110046 0)
(0.999397 0.0094019 0)
(0.997723 0.00767079 0)
(0.996613 0.00600325 0)
(0.995908 0.00449073 0)
(0.995479 0.00316584 0)
(0.995082 0.00202862 0)
(0.987582 0.00106192 0)
(0.815675 0.000314315 0)
(0.840107 0.000434659 0)
(1.01588 0.00145131 0)
(1.02315 0.00275583 0)
(1.02295 0.00429236 0)
(1.02233 0.00606988 0)
(1.0213 0.00807898 0)
(1.01971 0.0102576 0)
(1.01735 0.0124579 0)
(1.01401 0.0143954 0)
(1.00954 0.0155708 0)
(1.00454 0.0154005 0)
(1.00029 0.0139651 0)
(0.997212 0.0119158 0)
(0.995094 0.00971383 0)
(0.993691 0.00759832 0)
(0.992799 0.0056821 0)
(0.992258 0.00400483 0)
(0.991797 0.00256575 0)
(0.984264 0.00134291 0)
(0.812841 0.000397587 0)
(0.844061 0.000562253 0)
(1.02041 0.00187301 0)
(1.02764 0.00355403 0)
(1.02733 0.00553321 0)
(1.02652 0.00781983 0)
(1.02519 0.0103986 0)
(1.02312 0.0131844 0)
(1.02007 0.0159804 0)
(1.01576 0.0184163 0)
(1.01005 0.0198551 0)
(1.00369 0.0195766 0)
(0.998308 0.0177121 0)
(0.994428 0.0150924 0)
(0.991758 0.0122936 0)
(0.98999 0.00961177 0)
(0.988867 0.00718603 0)
(0.988186 0.00506429 0)
(0.987645 0.00324433 0)
(0.980069 0.00169796 0)
(0.80926 0.000502472 0)
(0.849184 0.000730609 0)
(1.02627 0.0024286 0)
(1.03346 0.00460484 0)
(1.033 0.00716329 0)
(1.03193 0.0101124 0)
(1.03018 0.0134273 0)
(1.02747 0.0169895 0)
(1.02349 0.0205352 0)
(1.01793 0.0235807 0)
(1.01062 0.025317 0)
(1.00256 0.024867 0)
(0.995768 0.022441 0)
(0.990887 0.0190946 0)
(0.987529 0.0155409 0)
(0.985307 0.0121445 0)
(0.983895 0.00907615 0)
(0.983039 0.0063943 0)
(0.982397 0.00409517 0)
(0.974769 0.00214267 0)
(0.804737 0.000633903 0)
(0.855855 0.000954708 0)
(1.03389 0.00316443 0)
(1.04101 0.00599673 0)
(1.04034 0.00931975 0)
(1.03891 0.0131396 0)
(1.03658 0.0174124 0)
(1.03301 0.0219686 0)
(1.0278 0.0264499 0)
(1.0206 0.0302242 0)
(1.01124 0.032273 0)
(1.00104 0.0315508 0)
(0.992511 0.0283898 0)
(0.986392 0.0241222 0)
(0.982182 0.0196206 0)
(0.979394 0.0153291 0)
(0.97762 0.0114556 0)
(0.976544 0.00807076 0)
(0.975775 0.00516876 0)
(0.968084 0.00270362 0)
(0.799033 0.000799538 0)
(0.864615 0.00126273 0)
(1.04386 0.00416388 0)
(1.05087 0.00787866 0)
(1.04991 0.0122222 0)
(1.04796 0.0171943 0)
(1.04482 0.0227163 0)
(1.04004 0.0285384 0)
(1.03316 0.0341675 0)
(1.0238 0.03878 0)
(1.01183 0.0411136 0)
(0.998993 0.0399618 0)
(0.988338 0.0358417 0)
(0.980701 0.030415 0)
(0.975435 0.0247307 0)
(0.971937 0.0193221 0)
(0.969706 0.0144413 0)
(0.96835 0.0101753 0)
(0.967421 0.00651703 0)
(0.959648 0.00340934 0)
(0.791838 0.00100816 0)
(0.876335 0.00168435 0)
(1.05711 0.00552743 0)
(1.06395 0.0104683 0)
(1.0625 0.0162064 0)
(1.05977 0.0227324 0)
(1.05541 0.0298919 0)
(1.04891 0.0373066 0)
(1.03974 0.0442959 0)
(1.02755 0.0498046 0)
(1.01231 0.0523111 0)
(0.996245 0.0504894 0)
(0.983024 0.0451281 0)
(0.973543 0.0382659 0)
(0.966974 0.0311302 0)
(0.962577 0.0243447 0)
(0.95975 0.0182104 0)
(0.958022 0.0128375 0)
(0.956873 0.00822312 0)
(0.948991 0.00430012 0)
(0.782746 0.00127108 0)
(0.891954 0.00236301 0)
(1.07479 0.00764147 0)
(1.08132 0.0142754 0)
(1.07912 0.0219509 0)
(1.07514 0.0305618 0)
(1.06893 0.0398289 0)
(1.05991 0.0491705 0)
(1.0476 0.0576614 0)
(1.03172 0.0639944 0)
(1.01242 0.0664127 0)
(0.992507 0.0635627 0)
(0.976254 0.0566152 0)
(0.964573 0.0480132 0)
(0.956403 0.039139 0)
(0.950862 0.0306922 0)
(0.947249 0.0230218 0)
(0.945014 0.0162683 0)
(0.943566 0.0104405 0)
(0.935536 0.00547827 0)
(0.771288 0.00162274 0)
(0.915356 0.00326102 0)
(1.09985 0.0103295 0)
(1.10547 0.0198769 0)
(1.10164 0.0304006 0)
(1.09537 0.0419393 0)
(1.08614 0.0538875 0)
(1.0734 0.0654132 0)
(1.05677 0.0753451 0)
(1.03618 0.0821799 0)
(1.01198 0.0840232 0)
(0.987596 0.0796389 0)
(0.967879 0.0706989 0)
(0.953631 0.0600484 0)
(0.943505 0.0491634 0)
(0.936463 0.0387723 0)
(0.931714 0.0292456 0)
(0.928644 0.0207495 0)
(0.926604 0.0133356 0)
(0.918207 0.00691129 0)
(0.756234 0.00204417 0)
(0.943581 0.00573314 0)
(1.13367 0.0184334 0)
(1.13774 0.0307718 0)
(1.13093 0.0451409 0)
(1.12075 0.0599519 0)
(1.10679 0.0746069 0)
(1.08871 0.0879885 0)
(1.06639 0.0987424 0)
(1.04 0.10528 0)
(1.01013 0.105698 0)
(0.980749 0.0990664 0)
(0.957182 0.0876842 0)
(0.940057 0.0747398 0)
(0.927655 0.0617011 0)
(0.918763 0.0492575 0)
(0.912519 0.0377568 0)
(0.908296 0.0273639 0)
(0.90543 0.0180834 0)
(0.896529 0.0101391 0)
(0.7389 0.00301248 0)
(1.01724 0.0127978 0)
(1.18619 0.0251684 0)
(1.18317 0.0488629 0)
(1.16983 0.0685212 0)
(1.15266 0.0873243 1.72152e-33)
(1.13142 0.104422 -7.35706e-34)
(1.10603 0.11876 0)
(1.07659 0.129149 0)
(1.04343 0.134168 0)
(1.00721 0.132076 0)
(0.972626 0.122372 0)
(0.94519 0.108062 0)
(0.925018 0.092633 0)
(0.909995 0.0774045 0)
(0.898697 0.0628956 0)
(0.890155 0.0492882 0)
(0.883683 0.0366268 0)
(0.878561 0.0248597 0)
(0.866858 0.0128109 0)
(0.704268 0.00529945 0)
(1.07124 0.0399894 1.42278e-19)
(1.25028 0.0624585 -1.10761e-19)
(1.23619 0.0926836 0)
(1.21255 0.11243 7.92144e-20)
(1.18576 0.131403 -6.39924e-20)
(1.15558 0.147794 7.76211e-34)
(1.12185 0.160652 0)
(1.08456 0.168859 3.68169e-20)
(1.04398 0.171032 -1.17747e-19)
(1.00071 0.165474 2.34465e-20)
(0.959844 0.152158 0)
(0.927337 0.134807 -5.33645e-20)
(0.903058 0.117055 -6.25996e-20)
(0.884373 0.100091 1.09217e-19)
(0.869579 0.0843519 -8.53819e-20)
(0.857552 0.0700009 0)
(0.847538 0.0570923 -3.00734e-20)
(0.838845 0.0457928 0)
(0.824458 0.0344258 -1.68904e-19)
(0.670578 0.0220736 1.961e-19)
(1.11554 0.0966606 -2.09779e-20)
(1.30177 0.143483 3.86851e-19)
(1.28106 0.158165 -3.81296e-20)
(1.24875 0.172901 -2.32158e-19)
(1.21339 0.188098 -1.35544e-19)
(1.17503 0.201296 2.18488e-19)
(1.13342 0.211326 0)
(1.08852 0.216759 0)
(1.04053 0.215992 1.87611e-19)
(0.98997 0.207199 0)
(0.942251 0.1907 1.96787e-19)
(0.904109 0.170926 5.72414e-20)
(0.875454 0.151795 9.86541e-22)
(0.853131 0.134429 -1.16883e-19)
(0.835185 0.11917 0)
(0.820391 0.106049 0)
(0.807968 0.0949207 -4.87902e-19)
(0.797267 0.0856133 1.23088e-18)
(0.781948 0.0790935 -7.29667e-19)
(0.638855 0.0557215 -8.50865e-19)
(1.14319 0.160724 -2.93878e-19)
(1.33398 0.227343 1.10648e-19)
(1.31165 0.230189 4.85941e-20)
(1.2744 0.241848 4.11655e-19)
(1.23358 0.252308 1.35447e-20)
(1.18923 0.261149 -5.77861e-19)
(1.14128 0.267259 1.88542e-19)
(1.08982 0.269033 0)
(1.03514 0.264651 -3.97532e-19)
(0.977855 0.252109 3.26213e-19)
(0.924018 0.23206 -5.27095e-19)
(0.881214 0.209642 2.41992e-19)
(0.849301 0.188973 -1.45292e-19)
(0.824696 0.170953 3.34014e-19)
(0.805213 0.155688 0)
(0.789479 0.142982 -1.16916e-19)
(0.776605 0.132495 0)
(0.765871 0.123681 6.61007e-19)
(0.750921 0.118175 -1.56698e-18)
(0.614445 0.0878813 9.65118e-19)
(1.1619 0.224904 1.07429e-18)
(1.35334 0.306 -4.87019e-19)
(1.33057 0.302098 -9.32018e-20)
(1.29036 0.311936 0)
(1.2462 0.318659 -2.89296e-19)
(1.19767 0.323675 3.50865e-19)
(1.14481 0.325984 -2.00632e-19)
(1.08783 0.323967 0)
(1.02721 0.315708 2.82643e-19)
(0.963782 0.299052 -2.31112e-19)
(0.904425 0.274982 4.47689e-19)
(0.857694 0.249379 0)
(0.823362 0.226561 -3.07704e-19)
(0.797372 0.207183 1.77582e-19)
(0.777212 0.191114 4.24567e-19)
(0.761281 0.177966 -3.72402e-19)
(0.748519 0.167261 5.93745e-19)
(0.738112 0.158272 -1.31716e-18)
(0.723618 0.152543 8.32431e-19)
(0.592565 0.116342 -1.02954e-18)
(1.17469 0.285879 -5.49766e-19)
(1.36532 0.382315 4.3383e-19)
(1.34274 0.372452 -3.0179e-19)
(1.29983 0.381429 5.08685e-19)
(1.25309 0.385046 -4.24941e-19)
(1.20124 0.386876 1.20253e-19)
(1.1443 0.38581 4.01458e-21)
(1.08256 0.380209 -3.55988e-19)
(1.01662 0.368084 -2.97261e-19)
(0.947536 0.34712 -4.89574e-19)
(0.883089 0.318592 -9.56214e-19)
(0.832905 0.289188 -2.77729e-19)
(0.796673 0.263532 3.32628e-21)
(0.769797 0.242096 -5.7155e-19)
(0.749387 0.224555 -4.02106e-21)
(0.733579 0.210357 5.28649e-19)
(0.721143 0.198897 -1.56225e-19)
(0.71118 0.189333 -9.35559e-20)
(0.697202 0.182932 0)
(0.571415 0.141278 2.11776e-18)
(1.18363 0.345305 0)
(1.37304 0.455997 -1.12178e-19)
(1.3503 0.44152 -9.72234e-20)
(1.30494 0.449768 -1.18094e-20)
(1.25598 0.450685 4.44382e-19)
(1.20119 0.44982 -2.64142e-19)
(1.14066 0.445787 2.25403e-19)
(1.07464 0.436901 5.75435e-19)
(1.00378 0.421063 -1.59853e-19)
(0.92934 0.395735 2.56279e-19)
(0.859988 0.362393 5.10587e-19)
(0.806547 0.328585 5.96153e-19)
(0.768673 0.299405 -3.4434e-19)
(0.741196 0.275252 6.08282e-19)
(0.720801 0.255655 -4.74297e-19)
(0.70534 0.239908 0)
(0.693408 0.227279 -1.16677e-18)
(0.684014 0.216844 1.57381e-18)
(0.67066 0.209477 1.16108e-19)
(0.550237 0.162875 -2.17088e-18)
(1.19013 0.403664 -2.25087e-20)
(1.37768 0.526193 6.7842e-19)
(1.35434 0.509205 7.25837e-19)
(1.30696 0.51637 -7.02282e-19)
(1.25596 0.515089 3.25459e-19)
(1.19851 0.511943 -2.74417e-19)
(1.13468 0.505322 4.68352e-19)
(1.06469 0.493485 -1.92698e-19)
(0.98916 0.474183 -6.70864e-19)
(0.90947 0.444561 2.17249e-21)
(0.835154 0.40615 -5.42447e-19)
(0.77839 0.367373 -6.29316e-19)
(0.738934 0.333988 3.68895e-19)
(0.711011 0.30647 -2.15917e-19)
(0.690825 0.284259 5.01926e-19)
(0.675904 0.266509 0)
(0.664649 0.252347 -7.03385e-19)
(0.655957 0.240783 1.03581e-18)
(0.643367 0.23221 1.97583e-18)
(0.528541 0.181229 -2.28118e-18)
(1.19504 0.460239 9.94074e-19)
(1.37979 0.593194 -5.71592e-19)
(1.35594 0.574973 -6.47185e-19)
(1.30677 0.580922 7.44843e-19)
(1.25384 0.57791 9.74502e-21)
(1.19391 0.572846 -5.70274e-19)
(1.12701 0.564 -2.56006e-19)
(1.05326 0.549576 -2.17853e-19)
(0.973204 0.527137 -3.62716e-19)
(0.888232 0.493425 5.79342e-19)
(0.808685 0.449814 5.71239e-19)
(0.748279 0.405548 1.00586e-18)
(0.70712 0.367257 0)
(0.678811 0.335695 -1.56942e-21)
(0.658994 0.310302 -1.32503e-18)
(0.644806 0.2901 3.06635e-19)
(0.634418 0.274064 1.4752e-18)
(0.626584 0.261122 -4.33144e-19)
(0.614935 0.251128 9.11054e-19)
(0.506027 0.196383 -7.11335e-20)
(1.19878 0.514498 2.7453e-20)
(1.38004 0.65759 -4.53935e-19)
(1.35596 0.638457 -4.45711e-19)
(1.30499 0.643337 1.14159e-18)
(1.25021 0.638927 -9.98632e-19)
(1.18796 0.632246 5.96063e-19)
(1.11818 0.621519 2.70041e-19)
(1.04085 0.604889 6.81677e-19)
(0.956357 0.579719 7.63014e-19)
(0.865982 0.54226 -6.32411e-19)
(0.780753 0.493478 0)
(0.71613 0.443263 -3.58563e-19)
(0.672945 0.399317 4.11653e-19)
(0.644215 0.362952 4.78679e-19)
(0.624916 0.333747 -2.76585e-19)
(0.611681 0.31062 -6.53813e-19)
(0.602384 0.292362 -1.90196e-19)
(0.595602 0.277793 6.03876e-21)
(0.585106 0.266182 0)
(0.48253 0.208358 0)
(1.20153 0.566409 3.61064e-19)
(1.37902 0.719683 0)
(1.35487 0.699579 -4.56714e-19)
(1.3021 0.703588 1.70903e-19)
(1.24555 0.69799 1.06938e-18)
(1.18111 0.68994 -2.85214e-19)
(1.10863 0.677644 2.81866e-19)
(1.0279 0.659198 -4.7667e-19)
(0.939055 0.631772 5.97588e-19)
(0.843115 0.591062 -1.8052e-19)
(0.751611 0.537334 3.23479e-19)
(0.681927 0.480807 1.14154e-18)
(0.636143 0.430388 -1.04699e-21)
(0.60685 0.388323 -5.05237e-19)
(0.588231 0.35457 8.72562e-19)
(0.576234 0.327991 -2.13464e-21)
(0.56832 0.307157 2.03476e-19)
(0.562848 0.290713 -9.40905e-19)
(0.553763 0.277324 9.84369e-19)
(0.458017 0.217174 -1.13658e-18)
(1.20344 0.616171 3.34741e-22)
(1.37708 0.779498 0)
(1.35295 0.758354 0)
(1.29838 0.76163 -1.97326e-19)
(1.24018 0.754981 -3.69515e-19)
(1.17371 0.74576 3.2076e-19)
(1.09872 0.732173 -5.79765e-19)
(1.01478 0.712302 0)
(0.921712 0.683152 -8.62347e-19)
(0.820057 0.639846 9.06704e-19)
(0.721591 0.581642 8.85519e-19)
(0.645721 0.518591 -4.09828e-19)
(0.596437 0.4608 -4.60621e-19)
(0.566275 0.411907 1.05896e-18)
(0.548542 0.372671 -3.08872e-19)
(0.538204 0.342029 -3.59698e-19)
(0.532102 0.318264 -2.02619e-19)
(0.528296 0.299731 -9.66033e-19)
(0.520961 0.284431 1.45578e-19)
(0.432615 0.222866 1.15948e-18)
(1.20464 0.663957 1.25209e-19)
(1.37445 0.836979 2.60335e-19)
(1.35036 0.814788 2.54473e-20)
(1.29408 0.817403 1.26535e-21)
(1.23435 0.809798 -2.20104e-19)
(1.16602 0.799563 6.43937e-19)
(1.08874 0.78493 0)
(1.00184 0.76401 2.759e-19)
(0.904714 0.733709 -2.17538e-19)
(0.797254 0.688613 1.53947e-18)
(0.69111 0.626693 -1.87922e-19)
(0.607654 0.557161 2.16058e-19)
(0.553526 0.491043 0)
(0.521906 0.433839 -5.62171e-19)
(0.505318 0.387829 6.24115e-19)
(0.497323 0.352356 0)
(0.493724 0.325334 -4.22673e-19)
(0.492104 0.304599 1.25199e-18)
(0.486949 0.287415 1.41502e-19)
(0.407063 0.225676 -1.34957e-18)
(1.2052 0.709842 2.58836e-19)
(1.37121 0.892057 -3.46349e-19)
(1.34721 0.868867 0)
(1.28932 0.870841 -4.22631e-19)
(1.22821 0.862345 0)
(1.15822 0.851219 -7.15014e-19)
(1.0789 0.835748 0)
(0.989322 0.814134 0)
(0.888403 0.783271 -2.51635e-19)
(0.775159 0.737321 -1.45023e-18)
(0.660673 0.672774 -1.62138e-18)
(0.567994 0.597187 2.30509e-19)
(0.507106 0.521831 7.84797e-19)
(0.472927 0.454335 5.74038e-19)
(0.457757 0.399598 -1.98229e-18)
(0.453276 0.358204 -7.35215e-19)
(0.453431 0.32772 4.39172e-19)
(0.454874 0.305042 0)
(0.452378 0.286534 1.15741e-18)
(0.38275 0.226462 -1.34321e-18)
(1.20519 0.753815 -2.56769e-19)
(1.36744 0.944718 3.51418e-19)
(1.34361 0.920554 0)
(1.28422 0.921898 -9.33795e-21)
(1.22189 0.912551 1.8604e-19)
(1.15046 0.900625 0)
(1.06937 0.884489 1.74541e-19)
(0.977441 0.86249 1.70146e-19)
(0.873064 0.831637 -5.11123e-19)
(0.754203 0.785859 2.09431e-19)
(0.630863 0.720121 0)
(0.527183 0.639455 1.00567e-18)
(0.456914 0.554209 3.51202e-21)
(0.41819 0.473843 2.9939e-19)
(0.404488 0.407207 3.41352e-19)
(0.405502 0.357949 0)
(0.41191 0.323874 -6.14406e-19)
(0.418281 0.300358 1.21219e-18)
(0.419289 0.282057 -1.28015e-18)
(0.360361 0.226057 2.59542e-18)
(1.20458 0.795942 0)
(1.36323 0.994972 0)
(1.33958 0.969852 2.22096e-19)
(1.27885 0.970544 0)
(1.21548 0.960362 0)
(1.14283 0.947698 -7.48939e-19)
(1.06026 0.931032 1.83128e-19)
(0.966342 0.908911 1.76105e-20)
(0.858929 0.878591 -1.2853e-19)
(0.734795 0.834044 0)
(0.602342 0.768867 -2.36081e-19)
(0.485892 0.684821 -8.07943e-19)
(0.402856 0.589665 -9.12418e-19)
(0.356186 0.493377 -3.37995e-19)
(0.343143 0.409676 3.33727e-19)
(0.352716 0.348539 -7.50149e-19)
(0.370549 0.310269 1.17196e-18)
(0.386596 0.288522 -7.50877e-20)
(0.393289 0.274151 -1.06104e-18)
(0.343054 0.225647 -1.31857e-19)
(1.20348 0.836203 0)
(1.35854 1.04271 2.59549e-19)
(1.33519 1.01672 -2.2803e-19)
(1.27326 1.01672 0)
(1.20902 1.00572 0)
(1.13538 0.992362 1.57697e-18)
(1.05162 0.975269 0)
(0.956084 0.95323 0)
(0.846112 0.923881 -1.14588e-18)
(0.717228 0.881577 2.58546e-19)
(0.575777 0.818971 -2.25241e-18)
(0.445057 0.734106 0)
(0.345172 0.630176 -1.00738e-18)
(0.285026 0.514916 -3.401e-20)
(0.269634 0.406143 -1.10468e-18)
(0.291378 0.324317 3.83991e-19)
(0.330371 0.278089 -5.0139e-20)
(0.36611 0.262191 -1.0211e-18)
(0.381079 0.257594 4.46766e-19)
(0.338291 0.226782 1.41677e-19)
(1.20205 0.874362 0)
(1.35341 1.08805 2.25353e-19)
(1.33053 1.06119 -2.37095e-19)
(1.26749 1.06051 -6.83373e-19)
(1.2026 1.0487 -2.25884e-19)
(1.12819 1.03468 1.91323e-19)
(1.04353 1.01722 -1.74689e-19)
(0.946775 0.995408 1.35595e-18)
(0.834781 0.967361 1.22588e-18)
(0.701844 0.92818 2.11437e-18)
(0.55191 0.870226 1.87603e-18)
(0.405945 0.788011 3.11055e-19)
(0.284802 0.678372 1.4135e-18)
(0.202994 0.542368 7.75691e-19)
(0.177965 0.397932 7.69833e-19)
(0.214742 0.278812 -3.36196e-19)
(0.299073 0.21651 -2.83957e-19)
(0.384511 0.222681 3.32174e-19)
(0.421008 0.251406 -9.33091e-20)
(0.393304 0.255724 2.94899e-19)
(1.19988 0.910605 -1.90777e-19)
(1.34809 1.13113 -3.6679e-19)
(1.32555 1.10321 -1.15229e-19)
(1.26155 1.10181 2.65309e-20)
(1.19617 1.08914 6.93554e-19)
(1.12116 1.07445 -4.4907e-19)
(1.03587 1.05665 1.81324e-19)
(0.938261 1.03514 -2.86694e-20)
(0.824772 1.00861 -1.44567e-18)
(0.688582 0.973233 -2.27657e-18)
(0.531208 0.921986 1.37937e-19)
(0.369975 0.846629 0)
(0.223398 0.736606 0)
(0.108486 0.580369 -4.46937e-19)
(0.0575067 0.38573 -1.27633e-18)
(0.104011 0.188591 6.75438e-19)
(0.252353 0.0562536 1.42113e-19)
(0.390113 0.0587073 0)
(0.44814 0.118846 1.81611e-19)
(0.426674 0.213852 -3.93478e-20)
(1.197 0.946135 1.18077e-19)
(1.34273 1.1715 -9.15216e-20)
(1.3202 1.14294 2.33163e-19)
(1.25558 1.14075 3.46824e-19)
(1.18984 1.12728 2.25539e-19)
(1.11446 1.11197 -1.29862e-19)
(1.0288 1.0939 0)
(0.930705 1.07278 -1.72099e-18)
(0.816281 1.04793 1.78576e-19)
(0.677759 1.01683 0)
(0.514326 0.973968 0)
(0.338871 0.910301 1.86345e-19)
(0.163996 0.809657 2.04359e-19)
(0.00290602 0.643205 -4.83784e-19)
(-0.0996285 0.39161 8.87576e-19)
(-0.0753431 0.0837038 -6.08153e-19)
(0.195218 -0.0569364 -1.09312e-19)
(0.606825 0.148882 -3.29646e-19)
(0.795524 0.308798 2.82604e-19)
(0.9204 0.616516 -1.50221e-19)
(1.1938 0.979132 -7.42268e-20)
(1.33714 1.2093 0)
(1.31467 1.18044 0)
(1.24957 1.17742 1.27891e-19)
(1.18354 1.16311 -1.03341e-19)
(1.10792 1.14713 -3.19666e-20)
(1.02211 1.12871 7.24416e-19)
(0.923822 1.10791 1.85627e-18)
(0.808979 1.08467 2.68061e-18)
(0.669072 1.0579 -1.6606e-19)
(0.501429 1.02432 3.25418e-19)
(0.31458 0.975721 -1.78322e-18)
(0.113157 0.892006 -1.66825e-18)
(-0.100988 0.722865 -2.69453e-19)
(-0.315735 0.396743 0)
(-0.458577 -0.0408361 3.83157e-19)
(-0.321237 -0.180011 -1.1789e-19)
(0.0235154 -0.00465851 1.19494e-18)
(0.343808 0.248206 -8.21572e-19)
(0.45217 0.523629 -7.99106e-19)
(1.19035 1.01008 1.42226e-19)
(1.33109 1.24485 7.29894e-20)
(1.30889 1.21576 1.15063e-20)
(1.24334 1.21196 -9.84977e-20)
(1.17708 1.1969 0)
(1.10141 1.18035 -9.12923e-19)
(1.01561 1.16168 -9.75144e-19)
(0.917419 1.14131 5.38115e-20)
(0.80261 1.11986 -1.42285e-18)
(0.662207 1.09782 -1.64156e-19)
(0.492182 1.07515 1.52347e-19)
(0.296165 1.04809 1.56144e-18)
(0.0625316 1.00833 1.62024e-18)
(-0.260089 0.943548 2.71142e-19)
(-0.726307 0.842968 1.14647e-18)
(-1.13378 0.881539 0)
(-1.20164 1.57821 0)
(-0.927328 2.41508 -9.52318e-19)
(-0.555867 2.56349 2.85629e-19)
(-0.512237 2.85246 4.31026e-19)
(1.1867 1.03927 -6.72942e-20)
(1.32479 1.27866 -3.07294e-19)
(1.30316 1.24935 6.18034e-19)
(1.23713 1.24495 -5.30111e-19)
(1.17077 1.22932 1.27359e-19)
(1.09518 1.21238 -9.87534e-19)
(1.00958 1.19368 0)
(0.911759 1.17399 -1.60403e-18)
(0.797512 1.15464 0)
(0.657748 1.13782 2.48685e-18)
(0.488066 1.12691 -1.69163e-19)
(0.291995 1.12291 1.89495e-19)
(0.0645965 1.12572 1.86648e-18)
(-0.210369 1.14412 -5.19128e-19)
(-0.536843 1.20687 -5.58974e-19)
(-0.904294 1.39137 0)
(-1.18934 1.84182 0)
(-1.0039 2.56031 0)
(-0.587611 2.94765 3.61483e-19)
(-0.396879 3.06425 1.33144e-19)
(1.18283 1.06671 0)
(1.31843 1.31077 0)
(1.29749 1.28122 -2.06976e-19)
(1.23087 1.27628 4.58079e-19)
(1.16453 1.26016 -4.47358e-19)
(1.08911 1.24293 9.26946e-19)
(1.00384 1.22431 1.17277e-19)
(0.906644 1.20542 -9.13045e-20)
(0.793456 1.18826 1.91312e-19)
(0.655436 1.1767 -2.85667e-18)
(0.48869 1.17731 3.22404e-19)
(0.298033 1.19517 1.56272e-18)
(0.0809439 1.23474 -1.87737e-18)
(-0.176998 1.30987 -1.85745e-18)
(-0.476675 1.44373 6.07281e-19)
(-0.770231 1.69437 0)
(-0.970221 2.15606 4.42229e-19)
(-0.904405 2.61663 1.4515e-19)
(-0.608418 2.83069 -1.63178e-19)
(-0.513327 2.90778 3.75694e-20)
(1.17842 1.09215 0)
(1.31183 1.34083 -1.41161e-19)
(1.29159 1.31106 5.63202e-20)
(1.22439 1.30571 -4.6287e-19)
(1.15822 1.28925 4.69604e-19)
(1.08306 1.27189 0)
(0.998248 1.25352 0)
(0.901897 1.23549 0)
(0.790203 1.22049 1.23309e-18)
(0.654921 1.2139 1.46392e-19)
(0.493486 1.22514 0)
(0.313062 1.2624 -1.56872e-18)
(0.115098 1.33214 0)
(-0.105914 1.44908 1.32527e-18)
(-0.335029 1.62737 -8.76437e-19)
(-0.520231 1.86977 -6.97312e-19)
(-0.635217 2.23267 -1.10334e-18)
(-0.614101 2.55707 -4.52043e-19)
(-0.4418 2.67869 -4.17693e-19)
(-0.369744 2.74296 3.17938e-19)
(1.17397 1.11621 7.46443e-21)
(1.30548 1.36929 2.71814e-20)
(1.28577 1.33941 5.38833e-20)
(1.21801 1.3338 3.95355e-19)
(1.15208 1.31708 0)
(1.07715 1.29967 0)
(0.992849 1.28153 0)
(0.897495 1.26431 1.08513e-19)
(0.787664 1.25126 -1.54415e-18)
(0.656008 1.24914 0)
(0.501886 1.26971 0)
(0.335304 1.32298 0)
(0.161486 1.41459 0)
(-0.0192551 1.55489 9.73918e-19)
(-0.188634 1.74959 2.1677e-18)
(-0.298691 1.97486 5.70176e-19)
(-0.354026 2.25022 8.91815e-19)
(-0.359575 2.49502 -6.59344e-19)
(-0.292083 2.58604 1.64419e-19)
(-0.267256 2.64307 0)
(1.16908 1.13964 1.32004e-21)
(1.2991 1.39709 2.13196e-19)
(1.27956 1.36712 9.25106e-20)
(1.21132 1.36121 3.82368e-20)
(1.14568 1.34414 -1.20224e-19)
(1.07106 1.32663 1.05942e-18)
(0.987446 1.30867 -9.3372e-20)
(0.893367 1.29217 -1.53515e-18)
(0.785858 1.28092 0)
(0.658681 1.28279 -1.61558e-19)
(0.513368 1.31111 1.46863e-19)
(0.36279 1.3767 0)
(0.21466 1.48368 0)
(0.071087 1.63851 -1.19982e-18)
(-0.0536979 1.84104 1.71406e-19)
(-0.123577 2.05229 -4.42499e-19)
(-0.167104 2.25627 9.2569e-19)
(-0.227056 2.43736 4.78289e-19)
(-0.210441 2.52002 -6.88882e-19)
(-0.185053 2.59359 2.99313e-19)
(1.1629 1.16336 2.81176e-20)
(1.29185 1.42528 -1.46813e-19)
(1.27221 1.39516 -1.32127e-19)
(1.2039 1.38891 0)
(1.13875 1.37142 0)
(1.06465 1.35374 -8.07259e-19)
(0.981954 1.33589 7.59793e-19)
(0.88941 1.31997 1.38549e-18)
(0.784605 1.31019 7.58785e-20)
(0.662579 1.31525 2.29321e-18)
(0.527259 1.34942 -2.32756e-18)
(0.394245 1.4234 0)
(0.27292 1.53836 0)
(0.166088 1.69447 -8.44377e-19)
(0.0839937 1.88379 -9.51673e-19)
(0.0568088 2.06807 0)
(0.0521813 2.25086 -1.05209e-18)
(0.00151436 2.44867 3.39698e-20)
(-0.00656612 2.54614 4.85367e-19)
(0.0194907 2.61507 -1.39156e-19)
(1.15583 1.18901 -7.06818e-20)
(1.28412 1.45542 5.62617e-20)
(1.26411 1.42499 0)
(1.19602 1.41821 0)
(1.13135 1.4001 0)
(1.0578 1.38201 0)
(0.97606 1.36391 -8.29588e-19)
(0.885176 1.34811 1.4171e-18)
(0.783355 1.33913 0)
(0.667044 1.34621 -2.09874e-18)
(0.54264 1.38409 4.22396e-18)
(0.427809 1.46293 1.61675e-19)
(0.331759 1.58173 1.81685e-19)
(0.254177 1.73963 1.41111e-18)
(0.196032 1.9347 -7.72639e-19)
(0.17592 2.13439 0)
(0.169085 2.3263 3.35004e-19)
(0.0983009 2.50218 7.52713e-20)
(0.0294484 2.57995 8.58806e-20)
(-0.0919253 2.62884 -1.75645e-20)
(1.14726 1.21668 4.15619e-20)
(1.2756 1.48771 -1.73271e-21)
(1.25463 1.45695 0)
(1.18696 1.44905 7.3574e-20)
(1.12275 1.42996 -3.39204e-19)
(1.04984 1.41104 0)
(0.969238 1.39225 0)
(0.880308 1.37607 -2.54176e-18)
(0.781885 1.36721 -1.57111e-19)
(0.671873 1.37517 2.17932e-18)
(0.559132 1.41481 -2.03819e-18)
(0.462887 1.49534 1.07138e-18)
(0.392273 1.61335 0)
(0.346963 1.76565 -7.75163e-19)