/*--------------------------------*- C++ -*----------------------------------*\
| =========                 |                                                 |
| \\      /  F ield         | OpenFOAM: The Open Source CFD Toolbox           |
|  \\    /   O peration     | Version:  4.0                                   |
|   \\  /    A nd           | Web:      www.OpenFOAM.org                      |
|    \\/     M anipulation  |                                                 |
\*---------------------------------------------------------------------------*/
FoamFile
{
    version     2.0;
    format      ascii;
    class       surfaceScalarField;
    location    "25";
    object      phi;
}
// * * * * * * * * * * * * * * * * * * * * * * * * * * * * * * * * * * * * * //

dimensions      [0 3 -1 0 0 0 0];

internalField   nonuniform List<scalar> 
17370
(
-0.0916069
0.0960081
0.28461
-0.0775923
0.0594164
0.364951
-0.043038
0.0316179
0.427588
-0.0223122
0.0162568
0.505307
-0.0116595
0.00878134
0.60228
-0.00656571
0.00507866
0.720545
-0.00384362
0.00297002
0.86378
-0.0022099
0.00164618
1.03601
-0.00113096
0.00072316
1.24291
-0.000321192
-6.30441e-05
1.49158
0.000442642
-0.000849022
1.4916
0.00125261
-0.00176008
1.2432
0.00231612
-0.00306778
1.03639
0.00393414
-0.00516147
0.864134
0.00664083
-0.00884693
0.721264
0.0117151
-0.0162995
0.603799
0.0223423
-0.0316343
0.508731
0.0430404
-0.0594106
0.432538
0.0775887
-0.0960046
0.365191
0.0916167
0.197394
-0.127089
0.0880212
0.0390679
-0.364352
0.354027
-0.0714754
0.0818012
-0.446654
0.454249
-0.0791669
0.0715713
-0.521006
0.529111
-0.0637172
0.0556115
-0.612983
0.620762
-0.0482175
0.0404385
-0.727155
0.733685
-0.0338169
0.0272873
-0.867576
0.87241
-0.0220839
0.0172493
-1.03856
1.04186
-0.0135812
0.0102829
-1.24471
1.24708
-0.00776754
0.0053955
-1.49283
1.49482
-0.0034561
0.00146617
-1.49268
1.49448
0.000334847
-0.00213864
-1.2441
1.24601
0.00410696
-0.00601803
-1.03761
1.04009
0.00835365
-0.0108319
-0.866195
0.869824
0.0140879
-0.0177177
-0.724602
0.729768
0.022511
-0.0276774
-0.609072
0.615659
0.034168
-0.0407547
-0.515126
0.522483
0.0484951
-0.0558515
-0.43988
0.447682
0.0639035
-0.0717055
-0.37472
0.377368
0.0792264
-0.0818736
-0.25692
0.224476
0.071532
-0.0390885
-0.0688057
0.0591966
0.00960911
-0.0520952
0.0589248
-0.374834
0.368004
-0.0580794
0.0542434
-0.453941
0.457777
-0.0487661
0.0442167
-0.52761
0.532159
-0.0396766
0.0357868
-0.620786
0.624676
-0.0315794
0.0275912
-0.734639
0.738627
-0.0232452
0.0193736
-0.873925
0.877797
-0.0153556
0.011929
-1.04332
1.04675
-0.00845059
0.00546203
-1.2486
1.25159
-0.00231025
-0.000619299
-1.49689
1.49982
0.00353473
-0.00665062
-1.49738
1.5005
0.00959023
-0.0130037
-1.25005
1.25347
0.0163656
-0.020309
-1.04566
1.0496
0.0241098
-0.028377
-0.87716
0.881428
0.032295
-0.0364295
-0.739017
0.743152
0.0402583
-0.0447387
-0.626013
0.630493
0.0492393
-0.0546695
-0.535055
0.540485
0.0584525
-0.0592378
-0.458116
0.458902
0.0523242
-0.0319929
-0.336828
0.316497
0.00964982
-0.0687048
0.059055
-0.0534098
0.0493031
0.00410668
-0.0332128
0.0436267
-0.358557
0.348143
-0.0472944
0.0467012
-0.45956
0.460153
-0.0437639
0.0405411
-0.536095
0.539318
-0.0368527
0.0334926
-0.628348
0.631708
-0.0298663
0.026652
-0.74199
0.745204
-0.0232444
0.0201048
-0.881283
0.884423
-0.0165913
0.0133151
-1.05016
1.05344
-0.00970057
0.00636607
-1.25483
1.25816
-0.00263775
-0.000934281
-1.50315
1.50672
0.00448709
-0.00815695
-1.50397
1.50764
0.0114162
-0.0149299
-1.25701
1.26053
0.0181043
-0.0215009
-1.0533
1.0567
0.024533
-0.0278267
-0.885052
0.888346
0.0309413
-0.0344634
-0.746856
0.750378
0.0377345
-0.0413328
-0.634624
0.638222
0.0444805
-0.0473357
-0.544643
0.547498
0.047846
-0.044065
-0.457052
0.453271
0.0335139
-0.0162902
-0.297245
0.280021
0.00415174
-0.0532273
0.0490755
-0.0461395
0.043594
0.00254556
-0.0229761
0.0333013
-0.337565
0.32724
-0.0390252
0.0399775
-0.459904
0.458951
-0.038734
0.0364155
-0.541971
0.544289
-0.0337792
0.0312386
-0.634655
0.637195
-0.0282729
0.0254482
-0.74825
0.751075
-0.0222545
0.0193005
-0.887439
0.890393
-0.016025
0.0129693
-1.05657
1.05963
-0.00950638
0.00620217
-1.26151
1.26481
-0.00240675
-0.0012802
-1.51039
1.51408
0.00494123
-0.00865881
-1.51138
1.51509
0.0118578
-0.0151816
-1.26395
1.26728
0.0181003
-0.0212207
-1.05989
1.06301
0.024033
-0.0270745
-0.891535
0.894576
0.0297663
-0.0325946
-0.753584
0.756412
0.0350156
-0.0375305
-0.641221
0.643736
0.0397489
-0.0408652
-0.549381
0.550498
0.0397847
-0.0338792
-0.448221
0.442316
0.0233576
-0.0102478
-0.264944
0.251834
0.00260112
-0.0458619
0.0432608
-0.0414865
0.0397063
0.00178021
-0.0167886
0.0259991
-0.31741
0.3082
-0.032539
0.0346403
-0.457373
0.455272
-0.0342152
0.0325446
-0.546263
0.547933
-0.0303571
0.0282664
-0.639451
0.641542
-0.0258762
0.0235547
-0.753649
0.75597
-0.0208189
0.0181572
-0.893235
0.895897
-0.015082
0.0121609
-1.06263
1.06555
-0.00882788
0.00563931
-1.26805
1.27124
-0.00193847
-0.00168554
-1.51774
1.52137
0.00527255
-0.00886964
-1.51876
1.52235
0.0119205
-0.0150733
-1.27052
1.27367
0.0178133
-0.0206827
-1.06604
1.06891
0.0231565
-0.0256935
-0.897401
0.899938
0.0278419
-0.0300564
-0.758883
0.761098
0.0319969
-0.034034
-0.645961
0.647998
0.0355671
-0.0358252
-0.551104
0.551362
0.0335328
-0.0267318
-0.435849
0.429048
0.0172613
-0.00728839
-0.240428
0.230455
0.00184826
-0.0410928
0.0392446
-0.0381789
0.0368555
0.00132342
-0.0127025
0.0205781
-0.299653
0.291777
-0.0272434
0.0301069
-0.452754
0.449891
-0.0302765
0.0291262
-0.54936
0.55051
-0.0271167
0.0252026
-0.643538
0.645452
-0.0230479
0.0210051
-0.758126
0.760169
-0.0186545
0.0163566
-0.898356
0.900654
-0.0136387
0.0109636
-1.06835
1.07102
-0.00782846
0.00478915
-1.27435
1.27739
-0.00125749
-0.00217683
-1.5249
1.52834
0.00556597
-0.00896237
-1.52586
1.52926
0.0118208
-0.0147248
-1.27671
1.27962
0.0171713
-0.0196296
-1.07157
1.07403
0.0216945
-0.0238019
-0.902211
0.904318
0.0256285
-0.0275543
-0.763145
0.765071
0.0292737
-0.0310942
-0.649913
0.651733
0.0320391
-0.0316335
-0.551295
0.550889
0.0284982
-0.0214806
-0.422079
0.415061
0.0132774
-0.0055217
-0.221684
0.213929
0.00140596
-0.0376438
0.0362379
-0.0357072
0.0347131
0.00099403
-0.00970403
0.0162477
-0.284577
0.278033
-0.0225733
0.0258805
-0.446755
0.443448
-0.0266785
0.0260526
-0.551368
0.551994
-0.0243889
0.0226982
-0.64727
0.648961
-0.0207393
0.0188447
-0.762156
0.764051
-0.0166333
0.0144727
-0.902875
0.905036
-0.011945
0.00947833
-1.07357
1.07604
-0.00658798
0.00376613
-1.28032
1.28314
-0.000465222
-0.00275507
-1.53165
1.53487
0.00591653
-0.00904294
-1.53253
1.53566
0.0116343
-0.0142284
-1.28237
1.28496
0.0164041
-0.0186007
-1.07634
1.07854
0.0204646
-0.0223671
-0.906321
0.908223
0.0239955
-0.0256771
-0.766883
0.768565
0.0271298
-0.0285398
-0.65338
0.65479
0.028914
-0.0277947
-0.550115
0.548996
0.0241257
-0.0173487
-0.408113
0.401336
0.0104019
-0.0042865
-0.207055
0.20094
0.00109462
-0.0350009
0.0339063
-0.0338502
0.0331017
0.000748491
-0.00742159
0.0127604
-0.272106
0.266767
-0.0184586
0.0218541
-0.44006
0.436664
-0.0230561
0.0226554
-0.552495
0.552896
-0.0212779
0.0197392
-0.65057
0.652109
-0.0179479
0.016229
-0.765884
0.767603
-0.0142331
0.0122821
-0.907122
0.909073
-0.00998832
0.00774173
-1.07838
1.08063
-0.00510322
0.00251992
-1.28581
1.28839
0.000515555
-0.00349613
-1.53797
1.54095
0.00640058
-0.00920883
-1.53863
1.54144
0.011491
-0.0137509
-1.28739
1.28965
0.0156257
-0.0175027
-1.0806
1.08247
0.0190866
-0.0207056
-0.909994
0.911613
0.0220921
-0.0235319
-0.770109
0.771549
0.0247664
-0.0258128
-0.655995
0.657042
0.025882
-0.024245
-0.547589
0.545952
0.0203725
-0.0141039
-0.394792
0.388524
0.00827161
-0.0033906
-0.195483
0.190602
0.000872062
-0.0329363
0.0320643
-0.0324602
0.0319149
0.000545283
-0.00553772
0.00978042
-0.261989
0.257746
-0.0147181
0.0180106
-0.433304
0.430011
-0.0194791
0.0192862
-0.553215
0.553408
-0.0181272
0.0166843
-0.653621
0.655064
-0.0150335
0.0134923
-0.769266
0.770807
-0.0117235
0.00998274
-0.910905
0.912646
-0.00789674
0.00582742
-1.08273
1.0848
-0.00338262
0.00100692
-1.29083
1.2932
0.00174781
-0.00439769
-1.54376
1.54641
0.00695405
-0.00942004
-1.54411
1.54657
0.0114161
-0.0133777
-1.29175
1.29371
0.0149686
-0.0165135
-1.08417
1.08571
0.0177743
-0.0190511
-0.913044
0.91432
0.0201837
-0.0214181
-0.772876
0.774111
0.022499
-0.0232126
-0.657949
0.658663
0.0229747
-0.0209417
-0.54412
0.542087
0.0170465
-0.0114087
-0.382566
0.376928
0.00656929
-0.00268343
-0.186254
0.182368
0.000696095
-0.0312923
0.0305962
-0.0314602
0.0310826
0.000377607
-0.00394436
0.00717895
-0.254018
0.250783
-0.0112562
0.0142802
-0.426838
0.423814
-0.0159331
0.0160319
-0.553472
0.553373
-0.0152407
0.0140243
-0.656421
0.657638
-0.0125662
0.0111431
-0.772321
0.773744
-0.00946693
0.00779961
-0.914343
0.91601
-0.00582093
0.00387521
-1.08674
1.08869
-0.00160644
-0.000588336
-1.29544
1.29763
0.00311284
-0.00551299
-1.5489
1.5513
0.00779874
-0.00996425
-1.54891
1.55108
0.0116777
-0.0133169
-1.29554
1.29718
0.0146418
-0.0159371
-1.08714
1.08843
0.017025
-0.0181166
-0.915481
0.916573
0.0190362
-0.0199764
-0.775162
0.776102
0.0207375
-0.0209441
-0.659146
0.659352
0.02027
-0.017875
-0.539886
0.537491
0.0140916
-0.00916011
-0.371644
0.366713
0.00520464
-0.00213256
-0.178918
0.175846
0.000564859
-0.0299815
0.0294167
-0.0307859
0.030567
0.000218886
-0.00244701
0.00470001
-0.248049
0.245796
-0.00780601
0.0103401
-0.421017
0.418483
-0.011945
0.0122386
-0.553154
0.552861
-0.0116895
0.0106926
-0.658751
0.659748
-0.00938739
0.008089
-0.77519
0.776488
-0.00653967
0.00499507
-0.917621
0.919165
-0.00317013
0.0014151
-1.09047
1.09222
0.000611622
-0.00255527
-1.29965
1.30159
0.00478833
-0.00690683
-1.55354
1.55566
0.00887103
-0.0106519
-1.55309
1.55487
0.0119956
-0.0132581
-1.29868
1.29994
0.0142623
-0.0152112
-1.08962
1.09057
0.0159868
-0.0167586
-0.917505
0.918277
0.0174053
-0.0180427
-0.776812
0.777449
0.018442
-0.0182787
-0.659326
0.659163
0.0172513
-0.0147207
-0.535031
0.5325
0.0112548
-0.00711075
-0.362199
0.358055
0.0039844
-0.0016426
-0.173168
0.170826
0.000449207
-0.0289233
0.0284741
-0.030434
0.0303802
5.37799e-05
-0.00105424
0.00241301
-0.244016
0.242657
-0.00458501
0.00655397
-0.416251
0.414282
-0.0079152
0.00819398
-0.552572
0.552293
-0.00768079
0.00682399
-0.660695
0.661551
-0.00572371
0.00465923
-0.777752
0.778816
-0.00338679
0.00207404
-0.920556
0.921869
-0.000479514
-0.00110671
-1.09379
1.09538
0.00296364
-0.00474017
-1.30337
1.30515
0.00675599
-0.00861712
-1.55759
1.55945
0.0102971
-0.0117664
-1.55649
1.55796
0.0128165
-0.0136907
-1.30103
1.3019
0.0142912
-0.0147916
-1.09129
1.09179
0.0151109
-0.0154034
-0.91881
0.919102
0.0156637
-0.0159661
-0.777861
0.778163
0.0160773
-0.0156921
-0.658871
0.658485
0.0144754
-0.0119376
-0.530033
0.527495
0.00881186
-0.0053759
-0.354322
0.350886
0.00295665
-0.00122111
-0.168833
0.167098
0.000341465
-0.0280973
0.0277558
-0.0303959
0.0304803
-8.44177e-05
7.00836e-05
0.00052332
-0.241715
0.241122
-0.00183596
0.00327478
-0.412593
0.411154
-0.00445989
0.00482108
-0.551988
0.551627
-0.00449109
0.00381741
-0.662363
0.663036
-0.00286441
0.00190112
-0.77993
0.780893
-0.000700719
-0.000571311
-0.923072
0.924344
0.002125
-0.00366165
-1.0968
1.09834
0.00545305
-0.00716286
-1.3068
1.30851
0.00905508
-0.0107355
-1.56118
1.56286
0.0121996
-0.0134219
-1.55931
1.56054
0.0142247
-0.0148506
-1.30271
1.30334
0.0152265
-0.0154533
-1.09217
1.0924
0.0155438
-0.015508
-0.919237
0.919201
0.0154269
-0.0153055
-0.778101
0.77798
0.0150237
-0.0141716
-0.65786
0.657008
0.0125872
-0.00992817
-0.524972
0.522313
0.00707917
-0.00422956
-0.347817
0.344967
0.00232218
-0.000967605
-0.16562
0.164266
0.000272448
-0.027474
0.0272016
-0.0306155
0.0307932
-0.00017767
0.000762976
-0.000742369
-0.240851
0.240831
0.00018224
0.000681136
-0.410022
0.409159
-0.00157369
0.00194242
-0.551237
0.550868
-0.00174303
0.00121905
-0.663679
0.664203
-0.000379142
-0.000585307
-0.781958
0.782923
0.00187777
-0.00324761
-0.925562
0.926932
0.00490237
-0.00651373
-1.0998
1.10141
0.00835694
-0.0100591
-1.31015
1.31185
0.0118844
-0.0134458
-1.56442
1.56598
0.0147276
-0.0157194
-1.56165
1.56264
0.0162838
-0.0166115
-1.30388
1.3042
0.016714
-0.0166418
-1.0925
1.09243
0.0164476
-0.0161827
-0.919023
0.918758
0.0158965
-0.0154768
-0.777613
0.777193
0.0147589
-0.0134837
-0.655893
0.654617
0.011625
-0.00894808
-0.519712
0.517035
0.00637019
-0.00390352
-0.342409
0.339943
0.0022144
-0.000947017
-0.163031
0.161764
0.00026863
-0.0269618
0.0266932
-0.0310005
0.0312449
-0.00024435
0.00126256
-0.00161549
-0.24098
0.241333
0.00166868
-0.0014296
-0.408656
0.408417
0.00110035
-0.00103272
-0.550611
0.550543
0.00134292
-0.00191333
-0.664811
0.665382
0.00284771
-0.00394414
-0.784028
0.785125
0.00540536
-0.00690943
-0.928248
0.929752
0.00866289
-0.0103052
-1.10294
1.10458
0.0121087
-0.0137278
-1.31344
1.31506
0.0154162
-0.0167997
-1.56742
1.56881
0.017823
-0.0184576
-1.56348
1.56411
0.0186789
-0.0186531
-1.3044
1.30438
0.0184473
-0.0180809
-1.0922
1.09183
0.0176548
-0.0171062
-0.918306
0.917757
0.0165424
-0.0158365
-0.77651
0.775804
0.0148917
-0.0134321
-0.653227
0.651767
0.0115282
-0.00898177
-0.514531
0.511984
0.00658561
-0.00420937
-0.337649
0.335273
0.00246695
-0.00107839
-0.160509
0.159121
0.000309063
-0.0264376
0.0261285
-0.0315241
0.0318354
-0.000311203
0.00170039
-0.00232918
-0.241828
0.242457
0.00280259
-0.00306949
-0.408508
0.408775
0.00335055
-0.00381277
-0.55077
0.551232
0.00463144
-0.00559656
-0.666234
0.6672
0.00683856
-0.00816375
-0.786415
0.78774
0.00980263
-0.0114072
-0.931135
0.93274
0.0132217
-0.0148834
-1.10608
1.10774
0.0166759
-0.018226
-1.31653
1.31808
0.0197624
-0.0209155
-1.57
1.57116
0.0216408
-0.0219146
-1.56457
1.56485
0.0217984
-0.0213917
-1.30421
1.30381
0.0208841
-0.0202129
-1.09131
1.09064
0.0195035
-0.0186731
-0.916973
0.916142
0.017881
-0.0169435
-0.774841
0.773903
0.0158703
-0.0143716
-0.650292
0.648793
0.0125107
-0.00997834
-0.509644
0.507112
0.00747629
-0.00486688
-0.33293
0.33032
0.00288952
-0.0012804
-0.157697
0.156088
0.000372087
-0.0258255
0.0254534
-0.0321914
0.0325889
-0.000397504
0.0022835
-0.00320629
-0.243233
0.244156
0.00397478
-0.00450576
-0.409204
0.409735
0.00508925
-0.00585949
-0.551966
0.552736
0.00705671
-0.0084045
-0.668562
0.66991
0.0100426
-0.0116919
-0.789267
0.790916
0.0136687
-0.0155442
-0.93425
0.936125
0.0176138
-0.0195017
-1.10931
1.1112
0.0215223
-0.0232519
-1.31957
1.3213
0.0249074
-0.0260702
-1.5722
1.57337
0.0267178
-0.0268018
-1.56496
1.56504
0.0264516
-0.0256897
-1.30325
1.30248
0.0247721
-0.0236615
-1.08976
1.08865
0.0226908
-0.0216842
-0.915165
0.914159
0.0207586
-0.0197532
-0.772765
0.77176
0.0186107
-0.016934
-0.647272
0.645595
0.0147393
-0.0116969
-0.504593
0.501551
0.00870725
-0.00565467
-0.327637
0.324585
0.00337756
-0.00151991
-0.154436
0.152578
0.000451471
-0.0250852
0.0246337
-0.0330398
0.0335612
-0.000521405
0.00313877
-0.00451283
-0.24529
0.246664
0.00569918
-0.00642921
-0.410356
0.411086
0.00702182
-0.00774906
-0.553676
0.554403
0.00890879
-0.0103082
-0.671514
0.672913
0.0121648
-0.0141593
-0.792752
0.794747
0.0165818
-0.0189009
-0.93796
0.940279
0.0215351
-0.0239699
-1.11313
1.11556
0.0265991
-0.0288644
-1.32313
1.32539
0.0310441
-0.0325969
-1.5746
1.57615
0.0335246
-0.0338094
-1.56514
1.56543
0.0335228
-0.0328157
-1.3017
1.301
0.0318493
-0.030579
-1.08733
1.08606
0.0292494
-0.0277034
-0.912816
0.91127
0.0263593
-0.0249114
-0.770498
0.76905
0.0231872
-0.0206101
-0.643648
0.641071
0.0174707
-0.0134821
-0.498309
0.494321
0.00988816
-0.00642029
-0.321489
0.318021
0.00387266
-0.00176878
-0.150703
0.148599
0.000533406
-0.0241943
0.0236609
-0.0341515
0.0348453
-0.000693742
0.00431684
-0.00634977
-0.24833
0.250363
0.00822439
-0.00935535
-0.411987
0.413118
0.00997011
-0.0104632
-0.555276
0.555769
0.0113592
-0.0126728
-0.6745
0.675813
0.014643
-0.0168917
-0.796828
0.799076
0.0197865
-0.0227215
-0.942607
0.945542
0.0261399
-0.0293356
-1.11815
1.12134
0.0327948
-0.0357696
-1.32786
1.33083
0.0386569
-0.0407676
-1.5779
1.58001
0.0421083
-0.0426918
-1.56584
1.56642
0.0425801
-0.0419274
-1.30032
1.29967
0.0409594
-0.0395562
-1.08466
1.08325
0.0380104
-0.0361151
-0.909385
0.907489
0.0341589
-0.0315318
-0.766905
0.764277
0.0285154
-0.0243957
-0.637876
0.633756
0.0200663
-0.0151872
-0.490161
0.485282
0.0111215
-0.00731128
-0.3146
0.31079
0.00447513
-0.00207067
-0.14648
0.144075
0.000631014
-0.0231448
0.0225138
-0.035627
0.0365761
-0.000949159
0.00594677
-0.00887857
-0.252768
0.255699
0.011769
-0.0136919
-0.414654
0.416577
0.0148333
-0.0153961
-0.55667
0.557233
0.0161427
-0.0174086
-0.677309
0.678575
0.0195002
-0.0220988
-0.80132
0.803918
0.0256329
-0.0292412
-0.948505
0.952113
0.0334416
-0.037334
-1.12466
1.12855
0.0414896
-0.0450107
-1.33394
1.33746
0.0483725
-0.0507652
-1.58221
1.5846
0.0521956
-0.0526895
-1.56697
1.56746
0.052403
-0.0514573
-1.29889
1.29794
0.0501356
-0.0482706
-1.08157
1.0797
0.0462436
-0.0436353
-0.905072
0.902464
0.040715
-0.0367812
-0.76076
0.756826
0.0325763
-0.0273238
-0.629096
0.623844
0.0223027
-0.0169888
-0.480513
0.475199
0.0126328
-0.00846097
-0.307109
0.302937
0.00524053
-0.00243677
-0.14165
0.138847
0.000742112
-0.0219102
0.0211681
-0.0376188
0.0389271
-0.00130824
0.00811714
-0.012184
-0.259044
0.26311
0.0163537
-0.0193832
-0.419185
0.422215
0.0215257
-0.0227682
-0.558733
0.559975
0.024031
-0.0257153
-0.680161
0.681845
0.0284967
-0.0317951
-0.806599
0.809897
0.0360071
-0.0401786
-0.955673
0.959844
0.0449305
-0.0492416
-1.13241
1.13672
0.0537367
-0.0574256
-1.34091
1.3446
0.0607697
-0.0629231
-1.5868
1.58896
0.0639086
-0.0637642
-1.56763
1.56749
0.0627908
-0.0610024
-1.29659
1.2948
0.0588597
-0.0560872
-1.07732
1.07455
0.0531765
-0.0495053
-0.899077
0.895406
0.045629
-0.0407841
-0.752109
0.747264
0.0358951
-0.0302067
-0.618381
0.612692
0.0249888
-0.0194793
-0.470225
0.464716
0.0147813
-0.010044
-0.298908
0.294171
0.00625498
-0.00290142
-0.136012
0.132658
0.00087567
-0.0204608
0.0195851
-0.0403163
0.0421495
-0.00183316
0.0111623
-0.016702
-0.267589
0.273129
0.0224437
-0.0268464
-0.426293
0.430696
0.030434
-0.0330053
-0.562814
0.565385
0.0356326
-0.0384993
-0.684241
0.687108
0.0423716
-0.0464473
-0.813156
0.817231
0.051325
-0.0559652
-0.963865
0.968505
0.0610721
-0.0655486
-1.14084
1.14531
0.0700227
-0.0734736
-1.34797
1.35143
0.076274
-0.0776437
-1.59061
1.59198
0.0776369
-0.0763006
-1.56672
1.56538
0.0741805
-0.0711152
-1.29235
1.28929
0.0678296
-0.0638203
-1.07104
1.06703
0.0598272
-0.0551264
-0.890884
0.886183
0.0505319
-0.0451848
-0.741783
0.736436
0.0400406
-0.0342276
-0.606978
0.601165
0.0288591
-0.0229642
-0.459553
0.453658
0.0176563
-0.0120745
-0.289582
0.284001
0.00750979
-0.00346139
-0.129269
0.12522
0.00103448
-0.0187421
0.0177077
-0.0440412
0.0467013
-0.00266002
0.0157033
-0.023205
-0.279071
0.286573
0.0308554
-0.0368561
-0.436686
0.442686
0.042094
-0.0462046
-0.569981
0.574092
0.0506424
-0.0551314
-0.690902
0.695391
0.0604926
-0.0656315
-0.821325
0.826464
0.0713731
-0.0765354
-0.972971
0.978134
0.0819241
-0.0863902
-1.14946
1.15392
0.0905475
-0.0934211
-1.35436
1.35723
0.095248
-0.0954047
-1.59259
1.59275
0.0939903
-0.0910744
-1.56318
1.56026
0.0875343
-0.0829903
-1.28542
1.28088
0.0784295
-0.0731128
-1.06221
1.0569
0.068074
-0.0624608
-0.880634
0.875021
0.0572769
-0.0515427
-0.730429
0.724694
0.0461871
-0.040139
-0.59525
0.589201
0.0343563
-0.0276863
-0.448011
0.441341
0.0214012
-0.0146166
-0.278538
0.271753
0.00903425
-0.00411929
-0.121153
0.116238
0.00121339
-0.016723
0.0155096
-0.0493558
0.0534627
-0.00410695
0.0230493
-0.0333118
-0.294572
0.304834
0.0434025
-0.0513219
-0.451132
0.459051
0.0583335
-0.064171
-0.580725
0.586562
0.0707299
-0.0770236
-0.70078
0.707074
0.0840327
-0.0903133
-0.831627
0.837908
0.0969089
-0.102497
-0.983069
0.988658
0.107973
-0.112179
-1.15792
1.16213
0.115683
-0.117637
-1.35938
1.36134
0.118102
-0.1167
-1.59193
1.59053
0.113585
-0.108869
-1.55632
1.5516
0.103782
-0.0976643
-1.27546
1.26934
0.0917849
-0.0851871
-1.05077
1.04417
0.0791576
-0.0726612
-0.868526
0.86203
0.0668626
-0.060628
-0.718108
0.711873
0.0548521
-0.0482214
-0.582754
0.576123
0.0416148
-0.0337119
-0.434754
0.426851
0.0260679
-0.0177249
-0.26512
0.256777
0.0108556
-0.00487806
-0.111369
0.105392
0.00140906
-0.014364
0.012955
-0.0573405
0.0645418
-0.00720126
0.0364503
-0.0509161
-0.31621
0.330676
0.0646301
-0.0747243
-0.470725
0.480819
0.0834128
-0.0909791
-0.595482
0.603049
0.0997369
-0.107596
-0.713991
0.72185
0.115826
-0.1228
-0.844018
0.850992
0.129732
-0.135253
-0.993797
0.999318
0.140267
-0.143698
-1.1656
1.16903
0.146011
-0.14655
-1.3623
1.36284
0.145185
-0.141844
-1.58793
1.58459
0.136757
-0.130073
-1.54574
1.53905
0.12334
-0.115601
-1.2623
1.25456
0.108393
-0.100531
-1.03674
1.02888
0.0935108
-0.0861006
-0.854564
0.847154
0.079607
-0.0727111
-0.704485
0.697589
0.0662863
-0.0586419
-0.568704
0.56106
0.0507702
-0.0411428
-0.41879
0.409163
0.0317115
-0.0214353
-0.248606
0.238329
0.0129954
-0.00574033
-0.0996628
0.0924078
0.0016092
-0.0116594
0.0100502
-0.0713874
0.0751548
-0.00376736
0.0268566
-0.0393646
-0.347954
0.360462
0.0513607
-0.0606271
-0.495981
0.505248
0.0696681
-0.0790319
-0.614055
0.623418
0.0895684
-0.0989383
-0.729464
0.738834
0.10935
-0.118558
-0.857236
0.866444
0.128144
-0.136406
-1.00388
1.01214
0.144676
-0.151368
-1.17128
1.17797
0.157417
-0.161482
-1.36205
1.36612
0.163851
-0.1636
-1.57982
1.57957
0.160566
-0.155127
-1.53107
1.52563
0.148569
-0.140141
-1.24583
1.2374
0.131873
-0.121944
-1.02017
1.01024
0.112921
-0.103132
-0.838688
0.828899
0.094483
-0.0852509
-0.689198
0.679966
0.0763817
-0.0660403
-0.552265
0.541924
0.0553681
-0.0424113
-0.399033
0.386076
0.0305364
-0.0187364
-0.228087
0.216287
0.0101728
-0.00392394
-0.0857895
0.0795406
0.000888906
-0.00872823
0.00783932
-0.0821863
0.0798838
0.00230242
0.0049281
-0.0127859
-0.375977
0.383834
0.0216409
-0.0287637
-0.519235
0.526358
0.0369974
-0.0452039
-0.634338
0.642545
0.0548013
-0.0635277
-0.748106
0.756832
0.0727868
-0.0811782
-0.8752
0.883592
0.0899
-0.0971052
-1.02013
1.02733
0.104494
-0.110105
-1.18446
1.19007
0.115075
-0.118049
-1.3698
1.37278
0.118978
-0.117494
-1.5783
1.57682
0.113313
-0.106835
-1.51912
1.51264
0.0992983
-0.0900201
-1.22827
1.21899
0.0811212
-0.0709937
-0.999763
0.989636
0.0615919
-0.0512891
-0.817639
0.807336
0.0422658
-0.0332416
-0.667505
0.658481
0.0256137
-0.0175657
-0.52868
0.520632
0.0105133
-0.00427585
-0.372333
0.366095
0.000503424
0.00171089
-0.204184
0.20197
-0.00225983
0.00164108
-0.0728738
0.0734925
-0.000709092
-0.00649944
0.00720853
-0.0827831
0.0797421
0.00304098
-0.00359917
-0.000461581
-0.394664
0.398725
0.00621972
-0.0117371
-0.537449
0.542966
0.0185796
-0.0256836
-0.651839
0.658943
0.0339169
-0.0414523
-0.76503
0.772566
0.0496771
-0.0569772
-0.891349
0.898649
0.0643441
-0.0707915
-1.0344
1.04085
0.0772097
-0.0821638
-1.19529
1.20024
0.0861106
-0.0882117
-1.3751
1.3772
0.0886193
-0.0865977
-1.57464
1.57261
0.0820418
-0.0754054
-1.50552
1.49888
0.0680068
-0.0592478
-1.20963
1.20087
0.050576
-0.0410464
-0.979191
0.969662
0.0322569
-0.0227036
-0.796922
0.787369
0.0145446
-0.00633522
-0.647584
0.639374
-0.000223002
0.00645766
-0.509964
0.503729
-0.0106329
0.0127172
-0.357519
0.355435
-0.0122458
0.0100112
-0.197007
0.199242
-0.00707765
0.00370101
-0.0729865
0.0763631
-0.00125827
-0.00719556
0.00845382
-0.081142
0.0782709
0.0028711
-0.00662548
0.00489666
-0.406642
0.408371
-0.0014896
-0.00276579
-0.551494
0.555749
0.00885675
-0.0148327
-0.666379
0.672355
0.0218871
-0.0283827
-0.779819
0.786315
0.0354318
-0.0417123
-0.905545
0.911826
0.048441
-0.0539596
-1.04694
1.05245
0.0596538
-0.0636363
-1.20487
1.20885
0.0671004
-0.0688838
-1.37917
1.38096
0.0689447
-0.0666321
-1.57026
1.56795
0.0624014
-0.0563329
-1.49187
1.4858
0.049604
-0.041411
-1.19209
1.18389
0.0337124
-0.0253078
-0.960079
0.951675
0.0174509
-0.00924454
-0.777868
0.769662
0.00189757
0.00518445
-0.629779
0.622697
-0.010643
0.0151422
-0.495239
0.49074
-0.0176595
0.017998
-0.349929
0.34959
-0.0158217
0.0118317
-0.19827
0.20226
-0.00807305
0.00401513
-0.0781158
0.0821737
-0.00129319
-0.00894898
0.0102422
-0.079422
0.0769709
0.0024511
-0.00727067
0.00692914
-0.414534
0.414876
-0.00435914
0.00115423
-0.562985
0.56619
0.00387109
-0.00927329
-0.678677
0.68408
0.0152383
-0.0209914
-0.792391
0.798144
0.0271368
-0.0326412
-0.917789
0.923294
0.0384873
-0.0434873
-1.05792
1.06292
0.0484117
-0.0522118
-1.21279
1.21659
0.0553215
-0.0569293
-1.3825
1.38411
0.0569874
-0.054885
-1.56564
1.56354
0.0510931
-0.0455105
-1.47931
1.47373
0.0395444
-0.0324699
-1.17592
1.16885
0.0257874
-0.0184134
-0.94327
0.935896
0.0117744
-0.0047502
-0.761405
0.754381
-0.0013028
0.00719584
-0.614842
0.608949
-0.011548
0.0149112
-0.483856
0.480493
-0.0166707
0.016591
-0.345985
0.346065
-0.0142568
0.0105914
-0.202521
0.206187
-0.00714796
0.00348762
-0.0841161
0.0877764
-0.00114095
-0.01076
0.0119009
-0.0779695
0.0759139
0.00205556
-0.00683169
0.0068087
-0.419879
0.419902
-0.00528983
0.00253466
-0.571989
0.574744
0.00214202
-0.00677246
-0.689214
0.693844
0.0119617
-0.0170143
-0.803335
0.808388
0.0225342
-0.0275178
-0.928575
0.933558
0.0329556
-0.0374347
-1.06772
1.0722
0.0419997
-0.0455611
-1.2202
1.22376
0.0484685
-0.0500164
-1.38557
1.38712
0.0501621
-0.0487014
-1.5615
1.56004
0.0453529
-0.0405934
-1.46795
1.46319
0.0353501
-0.029153
-1.16188
1.15568
0.0235572
-0.0171044
-0.928665
0.922212
0.0114195
-0.00561344
-0.747504
0.741698
0.000601423
0.00421994
-0.602691
0.59787
-0.00776194
0.0105642
-0.475107
0.472304
-0.0117105
0.0115749
-0.343306
0.343441
-0.0099665
0.00717963
-0.206018
0.208805
-0.00469239
0.00231947
-0.0888598
0.0912327
-0.00077878
-0.0121824
0.0129612
-0.076945
0.0753671
0.00157793
-0.00574575
0.00592436
-0.423861
0.423682
-0.00454589
0.00238847
-0.580001
0.582159
0.00184386
-0.00605006
-0.698449
0.702655
0.0110233
-0.0154444
-0.813228
0.817649
0.0203705
-0.0248671
-0.938619
0.943115
0.030117
-0.0342862
-1.07679
1.08096
0.0384688
-0.041977
-1.22723
1.23074
0.0452143
-0.0468169
-1.38879
1.39039
0.0472931
-0.0461048
-1.55832
1.55713
0.0435299
-0.0391571
-1.45839
1.45402
0.034707
-0.0294068
-1.14954
1.14424
0.0244015
-0.0189546
-0.915992
0.910545
0.014005
-0.00885828
-0.735802
0.730655
0.00479451
-0.00057085
-0.592614
0.58839
-0.00260067
0.00487338
-0.467882
0.465609
-0.00600328
0.00623489
-0.340923
0.340692
-0.00536101
0.00375052
-0.207913
0.209524
-0.00238031
0.00119402
-0.0912954
0.0924817
-0.000434689
-0.0129063
0.013341
-0.0764633
0.0752337
0.00122954
-0.00456261
0.00478167
-0.427067
0.426848
-0.00341017
0.00132276
-0.587054
0.589142
0.00259326
-0.00638993
-0.706826
0.710623
0.0107136
-0.0150206
-0.822157
0.826464
0.0196357
-0.0243198
-0.947519
0.952203
0.0289325
-0.0329998
-1.08529
1.08936
0.0374069
-0.0407883
-1.23421
1.23759
0.0437063
-0.0458709
-1.39199
1.39416
0.046727
-0.0460341
-1.55609
1.5554
0.0438549
-0.0402882
-1.44992
1.44635
0.0363745
-0.0316364
-1.13874
1.13401
0.0272138
-0.0222873
-0.90507
0.900143
0.0178369
-0.0133501
-0.725567
0.72108
0.00940691
-0.00563122
-0.583748
0.579972
0.00276865
-0.000312627
-0.461715
0.459259
-0.00106372
0.00152494
-0.337971
0.33751
-0.00154108
0.00119055
-0.20779
0.20814
-0.000841157
0.000503161
-0.0917083
0.0920463
-0.000252359
-0.0130492
0.0133016
-0.076515
0.0754908
0.00102419
-0.00325342
0.0032568
-0.430037
0.430034
-0.00207262
-2.14589e-05
-0.593567
0.595661
0.00371322
-0.0074229
-0.714673
0.718383
0.0116011
-0.0155488
-0.830682
0.834629
0.0203196
-0.0242837
-0.956408
0.960372
0.028919
-0.0328687
-1.09363
1.09758
0.0372418
-0.0408978
-1.24102
1.24467
0.0442023
-0.0462714
-1.39616
1.39823
0.0476062
-0.0474494
-1.55471
1.55455
0.046017
-0.0428513
-1.44271
1.43954
0.0394163
-0.0351085
-1.12936
1.12505
0.0310897
-0.026479
-0.895033
0.890422
0.0224204
-0.0180843
-0.716341
0.712005
0.0143556
-0.0106742
-0.575742
0.572061
0.00773945
-0.00537684
-0.455548
0.453185
0.00364578
-0.00263315
-0.334275
0.333263
0.00176747
-0.00103892
-0.205837
0.205109
0.000468339
6.04807e-06
-0.0904396
0.0899652
-0.000123617
-0.0127436
0.0128672
-0.0768337
0.0761246
0.000709135
-0.00209847
0.00171659
-0.433197
0.433579
-0.000698647
-0.00168897
-0.599228
0.601615
0.00496434
-0.00853385
-0.722057
0.725627
0.0125615
-0.0166576
-0.838541
0.842637
0.020868
-0.02502
-0.964603
0.968755
0.0296601
-0.0334531
-1.102
1.10579
0.0379723
-0.0416476
-1.24819
1.25186
0.0450932
-0.0477662
-1.40075
1.40342
0.0496794
-0.0498903
-1.55448
1.55469
0.0487702
-0.0463278
-1.43655
1.43411
0.0433983
-0.039374
-1.12057
1.11654
0.0355086
-0.0313103
-0.885661
0.881463
0.027087
-0.0230266
-0.70738
0.703319
0.0193715
-0.0156154
-0.568146
0.56439
0.0127161
-0.00995692
-0.449302
0.446543
0.00788464
-0.00607364
-0.329773
0.327962
0.00459703
-0.00296159
-0.202242
0.200607
0.00154943
-0.000453362
-0.0878384
0.0867423
8.84892e-06
-0.0121038
0.0120949
-0.077557
0.0769889
0.000568142
-0.00115109
0.000845833
-0.436584
0.436889
0.000765044
-0.00300635
-0.605056
0.607297
0.00640707
-0.009849
-0.72895
0.732392
0.013737
-0.0174626
-0.84649
0.850216
0.0218163
-0.0256876
-0.972967
0.976838
0.0303088
-0.0345577
-1.11007
1.11432
0.0387705
-0.0428139
-1.25563
1.25967
0.0467308
-0.0495585
-1.40605
1.40888
0.0519152
-0.0529588
-1.55515
1.5562
0.0523173
-0.0504931
-1.43153
1.42971
0.0477398
-0.0440856
-1.1125
1.10884
0.0404948
-0.0362873
-0.876774
0.872567
0.0322564
-0.0281277
-0.698686
0.694557
0.0244402
-0.020514
-0.560256
0.55633
0.0173192
-0.0142882
-0.442668
0.439637
0.0116011
-0.00913425
-0.324024
0.321558
0.00693829
-0.00456317
-0.197074
0.194699
0.00258957
-0.000960887
-0.0842259
0.0825972
0.000171594
-0.011254
0.0110824
-0.0785186
0.0781165
0.000402108
-0.000172195
-0.000326852
-0.440103
0.440602
0.00190818
-0.00438403
-0.610528
0.613004
0.00767916
-0.0109597
-0.735612
0.738892
0.0149304
-0.0185198
-0.853981
0.857571
0.0227397
-0.0267464
-0.981221
0.985228
0.0312937
-0.0355304
-1.11846
1.1227
0.0399879
-0.0440893
-1.26368
1.26778
0.0482334
-0.0518422
-1.41203
1.41564
0.0546982
-0.0560899
-1.55722
1.55861
0.0561674
-0.0546698
-1.42778
1.42628
0.0524245
-0.0491996
-1.10506
1.10183
0.0455701
-0.0414441
-0.867995
0.863869
0.0374497
-0.033136
-0.689986
0.685673
0.0294342
-0.0253013
-0.552295
0.548162
0.0219113