/*--------------------------------*- C++ -*----------------------------------*\
| =========                 |                                                 |
| \\      /  F ield         | OpenFOAM: The Open Source CFD Toolbox           |
|  \\    /   O peration     | Version:  4.0                                   |
|   \\  /    A nd           | Web:      www.OpenFOAM.org                      |
|    \\/     M anipulation  |                                                 |
\*---------------------------------------------------------------------------*/
FoamFile
{
    version     2.0;
    format      ascii;
    class       volScalarField;
    location    "29";
    object      p;
}
// * * * * * * * * * * * * * * * * * * * * * * * * * * * * * * * * * * * * * //

dimensions      [0 2 -2 0 0 0 0];

internalField   nonuniform List<scalar> 
2200
(
0.778301
0.7568
0.740891
0.72522
0.710606
0.698078
0.687711
0.679589
0.673844
0.670795
0.671153
0.674842
0.681055
0.689511
0.700111
0.712828
0.72756
0.743377
0.759367
0.780877
0.710733
0.707474
0.704547
0.700428
0.694964
0.688483
0.681851
0.675866
0.671324
0.668836
0.669199
0.672356
0.677403
0.683762
0.69066
0.697323
0.702935
0.707062
0.709966
0.713284
0.670853
0.671074
0.673134
0.674471
0.67485
0.673989
0.671977
0.669243
0.666622
0.665042
0.665457
0.667754
0.67092
0.674057
0.676337
0.677328
0.677051
0.675949
0.674148
0.673909
0.648397
0.649853
0.652439
0.654876
0.657312
0.659319
0.660452
0.660665
0.660217
0.659799
0.660266
0.661498
0.662558
0.662804
0.662035
0.660297
0.658063
0.655798
0.653215
0.651788
0.63404
0.636002
0.638832
0.64169
0.644556
0.647368
0.649817
0.651657
0.652842
0.653527
0.654076
0.654347
0.653901
0.652618
0.650608
0.648121
0.645467
0.642689
0.639891
0.637963
0.626868
0.628461
0.630668
0.633199
0.635849
0.638488
0.641018
0.643354
0.64527
0.646615
0.647261
0.647056
0.646033
0.644369
0.642318
0.640059
0.637663
0.635278
0.633153
0.631577
0.623632
0.624659
0.625929
0.627789
0.629916
0.632048
0.634153
0.636321
0.638384
0.640026
0.640806
0.640567
0.63957
0.638187
0.636658
0.634946
0.633132
0.631477
0.630315
0.629298
0.621016
0.621669
0.622327
0.623686
0.625356
0.627071
0.628798
0.630639
0.632545
0.63428
0.635231
0.635205
0.634603
0.633728
0.632711
0.631528
0.63027
0.62918
0.628645
0.627991
0.618077
0.618495
0.618938
0.620012
0.621352
0.62278
0.62427
0.625864
0.627546
0.629225
0.63038
0.630772
0.630676
0.630305
0.629705
0.628947
0.62808
0.627328
0.62703
0.626601
0.614571
0.614856
0.615264
0.61623
0.617448
0.618802
0.620252
0.621768
0.623338
0.624982
0.626418
0.627335
0.62771
0.627678
0.627322
0.626756
0.62611
0.625532
0.625289
0.624997
0.610304
0.610476
0.61088
0.611855
0.613136
0.614639
0.616324
0.618101
0.619917
0.621788
0.62359
0.624885
0.625522
0.625552
0.625209
0.62468
0.624111
0.62359
0.623359
0.623167
0.605598
0.605682
0.60608
0.607052
0.608394
0.610034
0.611969
0.614146
0.616505
0.618947
0.62115
0.62258
0.623209
0.623257
0.622995
0.62259
0.622099
0.621669
0.62148
0.621382
0.600849
0.600871
0.601264
0.602187
0.60349
0.60512
0.607063
0.609363
0.612103
0.615105
0.617808
0.619621
0.620581
0.62107
0.621178
0.621006
0.620714
0.620435
0.620308
0.620264
0.596193
0.596115
0.59652
0.597326
0.598634
0.600235
0.60213
0.604434
0.607295
0.610702
0.614091
0.616746
0.618547
0.619674
0.620231
0.620401
0.620382
0.620307
0.620242
0.62022
0.59146
0.591362
0.591719
0.592538
0.593872
0.595622
0.59773
0.60032
0.603518
0.607438
0.611609
0.615092
0.61758
0.619204
0.620204
0.620772
0.621037
0.621127
0.621124
0.621104
0.586316
0.586323
0.586597
0.587406
0.588933
0.590877
0.59338
0.596564
0.600515
0.605333
0.610459
0.614684
0.617669
0.61971
0.621121
0.621987
0.622467
0.622712
0.622791
0.622773
0.58035
0.580313
0.580693
0.581605
0.583138
0.58526
0.588133
0.59193
0.596789
0.602815
0.609214
0.614484
0.618248
0.620925
0.622829
0.624063
0.624822
0.625251
0.625399
0.625369
0.573066
0.572995
0.573408
0.57444
0.576121
0.57848
0.581736
0.586135
0.591945
0.599335
0.607337
0.614062
0.619004
0.622604
0.625163
0.626917
0.628062
0.628711
0.628939
0.628887
0.564241
0.564166
0.5646
0.565747
0.56773
0.570574
0.574513
0.579862
0.586926
0.59595
0.605833
0.614192
0.620442
0.625018
0.628334
0.630677
0.632253
0.633119
0.633409
0.633327
0.553455
0.553394
0.55396
0.555399
0.557865
0.561455
0.566464
0.573212
0.582075
0.59324
0.605296
0.615434
0.623019
0.628593
0.632657
0.635517
0.637435
0.638471
0.638831
0.638732
0.540292
0.540199
0.540927
0.542764
0.545934
0.550555
0.55694
0.565556
0.576767
0.590631
0.605305
0.617578
0.626679
0.633401
0.638227
0.641646
0.643963
0.645189
0.645609
0.645483
0.523599
0.52354
0.52456
0.526996
0.531142
0.537155
0.54546
0.556512
0.570622
0.587758
0.605572
0.620353
0.631256
0.639326
0.645157
0.649299
0.652028
0.65346
0.653952
0.653797
0.50263
0.502501
0.503885
0.507192
0.512783
0.520902
0.53189
0.546146
0.563898
0.584924
0.606366
0.624011
0.637025
0.646615
0.653587
0.658564
0.661845
0.663559
0.664124
0.663908
0.475073
0.475188
0.477461
0.482259
0.490179
0.501415
0.516139
0.534674
0.556909
0.582502
0.608079
0.628863
0.644151
0.655431
0.663691
0.66959
0.673455
0.675443
0.676075
0.675819
0.438429
0.438798
0.442591
0.45038
0.46223
0.478276
0.498314
0.522252
0.549912
0.580819
0.610955
0.635104
0.652803
0.665889
0.675527
0.682478
0.687054
0.689407
0.690113
0.689743
0.389602
0.39013
0.397427
0.410295
0.42852
0.451669
0.478532
0.509102
0.543097
0.579884
0.614871
0.642566
0.662844
0.677861
0.689035
0.697169
0.702544
0.705156
0.705809
0.705364
0.324117
0.327124
0.342839
0.364564
0.391545
0.422839
0.457574
0.495665
0.536765
0.580174
0.62078
0.652781
0.676351
0.694034
0.707339
0.717299
0.724112
0.727212
0.727764
0.7275
0.248715
0.258932
0.285424
0.317013
0.353761
0.393949
0.436726
0.482627
0.531131
0.581612
0.628456
0.665467
0.693096
0.71416
0.730357
0.742591
0.751542
0.755639
0.756564
0.756842
0.182344
0.19812
0.231253
0.271082
0.316956
0.365755
0.416651
0.470322
0.52607
0.583401
0.636264
0.677958
0.709083
0.732862
0.751212
0.765304
0.775213
0.780673
0.782345
0.782332
0.132624
0.146593
0.184946
0.230554
0.283449
0.339363
0.397593
0.458473
0.521128
0.585129
0.643652
0.689517
0.723419
0.749318
0.769485
0.785003
0.795536
0.801124
0.802742
0.80286
0.0916853
0.104697
0.146361
0.195791
0.253938
0.315489
0.379967
0.447247
0.516253
0.586385
0.649923
0.699238
0.735524
0.762978
0.783802
0.799657
0.810768
0.816566
0.818459
0.818611
0.0562872
0.0695621
0.113581
0.165848
0.228029
0.29412
0.363823
0.436592
0.511147
0.586652
0.654824
0.707323
0.745471
0.773625
0.795048
0.81128
0.822631
0.828798
0.830875
0.83104
0.02539
0.0387973
0.0847512
0.139386
0.204891
0.274776
0.348852
0.426256
0.505671
0.586088
0.658438
0.71356
0.753013
0.782228
0.804136
0.82053
0.832277
0.83868
0.840995
0.841118
-0.00249686
0.0109732
0.0585722
0.115404
0.183833
0.256908
0.334662
0.416077
0.499878
0.584905
0.661133
0.71868
0.759568
0.789484
0.811848
0.828515
0.840225
0.846984
0.849081
0.848941
-0.0279967
-0.0145631
0.0342644
0.0931959
0.164237
0.240033
0.320968
0.405958
0.493733
0.5829
0.662672
0.722725
0.76532
0.796123
0.818858
0.835732
0.847346
0.85383
0.856064
0.855936
-0.0521095
-0.0383804
0.0114096
0.0723488
0.145724
0.22389
0.307581
0.395707
0.486951
0.579753
0.663336
0.726495
0.770698
0.802403
0.825602
0.84247
0.854058
0.860471
0.862676
0.862661
-0.0747858
-0.0609173
-0.0103259
0.0524546
0.127884
0.208201
0.29433
0.385189
0.479606
0.576251
0.664016
0.730129
0.776094
0.808886
0.83231
0.849215
0.860827
0.867031
0.869329
0.869301
-0.096198
-0.0823561
-0.0310969
0.0332354
0.11041
0.192718
0.281079
0.37443
0.471846
0.57211
0.6634
0.732728
0.78129
0.815158
0.839156
0.856193
0.867785
0.873912
0.876018
0.876009
-0.11685
-0.102819
-0.051119
0.0144912
0.0931362
0.177277
0.267732
0.363403
0.463474
0.566914
0.66233
0.735389
0.786216
0.821565
0.846336
0.863501
0.874986
0.880819
0.882902
0.882814
-0.137204
-0.122537
-0.0705217
-0.00385411
0.0760058
0.1618
0.254195
0.351981
0.454605
0.561383
0.660774
0.737089
0.790872
0.82842
0.854051
0.871301
0.882373
0.888018
0.889742
0.889577
-0.157244
-0.141778
-0.0894305
-0.0218009
0.0590831
0.146309
0.240433
0.340232
0.44525
0.554783
0.657138
0.737558
0.795173
0.8354
0.862482
0.879861
0.890212
0.895006
0.896416
0.896166
-0.176838
-0.160626
-0.107865
-0.0393133
0.0424435
0.130879
0.226513
0.32809
0.435038
0.546921
0.652917
0.737716
0.79906
0.842542
0.871836
0.889607
0.898736
0.902206
0.90273
0.902492
-0.195816
-0.179064
-0.125812
-0.0563623
0.026175
0.115614
0.212462
0.315465
0.4242
0.538425
0.647497
0.735775
0.801847
0.849783
0.882206
0.901347
0.909258
0.908823
0.908058
0.908595
-0.214155
-0.197001
-0.143219
-0.072908
0.010333
0.10057
0.198373
0.302579
0.412898
0.529043
0.640527
0.733028
0.803776
0.856433
0.893466
0.915453
0.923289
0.918648
0.913255
0.911031
-0.231819
-0.214341
-0.160037
-0.0889369
-0.00505244
0.0858498
0.184424
0.289605
0.401135
0.518906
0.632653
0.728556
0.803628
0.86226
0.905331
0.932532
0.944624
0.934172
0.929783
0.934456
-0.24882
-0.231021
-0.176215
-0.104412
-0.0199402
0.0715286
0.170706
0.276606
0.389104
0.508196
0.623865
0.722109
0.801488
0.86591
0.916276
0.951501
0.972255
0.95105
0.906713
0.863941
-0.265089
-0.247045
-0.19179
-0.119416
-0.0344644
0.0574506
0.157061
0.263454
0.376684
0.49688
0.613871
0.713627
0.796205
0.866285
0.924838
0.971284
1.0074
1.01128
1.02969
1.08123
-0.280591
-0.262471
-0.206851
-0.134085
-0.0488155
0.0433714
0.143221
0.249869
0.363444
0.484193
0.601596
0.7024
0.786994
0.860818
0.923245
0.972146
1.00119
0.999112
0.968199
0.977385
-0.29529
-0.277261
-0.221356
-0.148364
-0.0629209
0.0293765
0.129291
0.235949
0.349464
0.470049
0.587597
0.68847
0.772132
0.845423
0.906594
0.951506
0.953615
0.911384
0.853608
0.84378
-0.309209
-0.291421
-0.235299
-0.162242
-0.0767645
0.0154704
0.115263
0.221674
0.334732
0.454692
0.571654
0.67099
0.751864
0.818996
0.872999
0.891027
0.861946
0.792129
0.720972
0.706578
-0.32238
-0.304937
-0.248696
-0.175733
-0.0903588
0.00163849
0.101114
0.207011
0.319267
0.438125
0.553563
0.650371
0.724996
0.779585
0.809177
0.801253
0.752757
0.65376
0.567906
0.549995
-0.335263
-0.318233
-0.261941
-0.189201
-0.104049
-0.0124264
0.086568
0.191742
0.302915
0.420118
0.533204
0.626095
0.693453
0.732001
0.727603
0.694677
0.590535
0.469891
0.363581
0.339866
-0.348751
-0.332082
-0.275736
-0.203275
-0.11841
-0.0272022
0.0712238
0.175537
0.28539
0.400497
0.510426
0.598666
0.658731
0.674034
0.638006
0.553049
0.397203
0.245156
0.11762
0.0924188
-0.363356
-0.346924
-0.290397
-0.218189
-0.133621
-0.0428084
0.0550094
0.158365
0.266734
0.379367
0.485216
0.567815
0.615961
0.604484
0.546814
0.397739
0.194179
-0.0214685
-0.203045
-0.249253
-0.379157
-0.362806
-0.305982
-0.233965
-0.149656
-0.0592047
0.0379808
0.140307
0.247016
0.356716
0.457641
0.534481
0.568323
0.524921
0.433001
0.238996
-0.00105744
-0.298478
-0.627545
-0.770939
-0.396218
-0.37986
-0.322586
-0.250675
-0.166558
-0.076442
0.0200948
0.121301
0.226213
0.332822
0.428083
0.498578
0.515191
0.439776
0.297093
0.0800578
-0.16724
-0.525939
-1.13039
-1.71157
-0.414565
-0.398104
-0.340272
-0.268372
-0.184333
-0.0944974
0.00140411
0.101476
0.204547
0.307835
0.397106
0.459846
0.459391
0.363144
0.164824
-0.0858556
-0.304885
-0.559627
-1.14816
-2.73041
-0.434214
-0.417658
-0.359104
-0.287164
-0.203135
-0.113565
-0.0183169
0.0805279
0.181583
0.281526
0.365117
0.418856
0.400288
0.301992
0.0644634
-0.197535
-0.359234
-0.412464
-0.425739
-0.828128
-0.455081
-0.438541
-0.379258
-0.307341
-0.223324
-0.134094
-0.0396525
0.0577588
0.156519
0.252605
0.330615
0.374093
0.33748
0.254007
0.0151518
-0.215579
-0.344231
-0.360321
-0.31413
-0.358233
-0.47714
-0.460612
-0.400692
-0.328941
-0.244967
-0.156207
-0.0627311
0.0330353
0.129124
0.220757
0.294048
0.32789
0.281662
0.200225
-0.0232859
-0.207108
-0.303078
-0.313114
-0.359267
-0.36948
-0.500292
-0.483629
-0.423392
-0.351971
-0.267995
-0.179852
-0.0875196
0.00638023
0.0994772
0.186652
0.255377
0.280317
0.231735
0.137505
-0.0551954
-0.199339
-0.285395
-0.25154
-0.275966
-0.278157
-0.52431
-0.507234
-0.447242
-0.376287
-0.292255
-0.204949
-0.113919
-0.0219946
0.0678987
0.15036
0.214173
0.229677
0.187776
0.0692757
-0.0930349
-0.200161
-0.25877
-0.292689
-0.272211
-0.278831
-0.548651
-0.531257
-0.472211
-0.401697
-0.317469
-0.231221
-0.141594
-0.0518091
0.0345662
0.112468
0.171799
0.176088
0.144613
0.00394356
-0.134197
-0.209466
-0.206839
-0.269517
-0.243335
-0.251441
-0.572809
-0.555358
-0.49781
-0.427599
-0.343314
-0.258392
-0.17026
-0.0826253
-0.000178797
0.0733472
0.129759
0.123637
0.0957293
-0.0484891
-0.169204
-0.238707
-0.205382
-0.242667
-0.240588
-0.242502
-0.596288
-0.579232
-0.523239
-0.453367
-0.369445
-0.285978
-0.199316
-0.113925
-0.0354961
0.0336044
0.0889113
0.0735577
0.0357716
-0.0942501
-0.182746
-0.24031
-0.257781
-0.242827
-0.247573
-0.243451
-0.618406
-0.602079
-0.547414
-0.478098
-0.395456
-0.313361
-0.228162
-0.144926
-0.0704978
-0.00642716
0.0497354
0.0241588
-0.0290878
-0.136145
-0.187217
-0.216331
-0.280295
-0.238425
-0.249134
-0.240745
-0.638213
-0.622966
-0.569764
-0.501234
-0.420755
-0.339737
-0.255992
-0.17486
-0.103578
-0.0458043
0.0121982
-0.0213849
-0.102069
-0.191232
-0.199791
-0.153376
-0.235769
-0.213069
-0.243251
-0.238567
-0.654591
-0.640758
-0.589438
-0.522137
-0.444093
-0.363956
-0.281753
-0.202735
-0.133786
-0.0829682
-0.0241806
-0.0627931
-0.176946
-0.255256
-0.218598
-0.102238
-0.153184
-0.191982
-0.218818
-0.235863
-0.666455
-0.654439
-0.605761
-0.540013
-0.46399
-0.385074
-0.304531
-0.227106
-0.159707
-0.115385
-0.0598211
-0.0908279
-0.25624
-0.392773
-0.406698
-0.40133
-0.406004
-0.400667
-0.40042
-0.393683
-0.672793
-0.662794
-0.617315
-0.553493
-0.479248
-0.401733
-0.322829
-0.246949
-0.179852
-0.139079
-0.0932254
-0.111319
-0.32821
-0.630026
-0.94001
-1.1014
-1.12416
-1.07599
-1.00857
-0.940309
-0.672769
-0.664684
-0.623006
-0.561193
-0.488646
-0.412814
-0.335353
-0.260391
-0.193172
-0.149998
-0.116406
-0.121626
-0.35199
-0.744366
-1.28996
-1.60088
-1.63595
-1.55316
-1.44432
-1.36254
-0.665409
-0.658287
-0.621017
-0.562019
-0.491537
-0.417277
-0.340811
-0.265495
-0.195421
-0.145398
-0.113004
-0.102724
-0.268132
-0.516498
-0.840412
-0.988971
-0.934971
-0.838731
-0.6951
-0.621319
-0.647791
-0.640551
-0.609499
-0.554815
-0.486928
-0.41406
-0.338001
-0.261388
-0.185219
-0.121467
-0.074627
-0.00809229
0.0176562
0.148404
0.275199
0.410777
0.556427
0.659206
0.722974
0.779538
-0.615441
-0.608793
-0.587179
-0.539469
-0.475011
-0.403505
-0.32718
-0.247832
-0.162986
-0.0779084
-0.00324555
0.142041
0.347534
0.712255
1.08754
1.39745
1.61924
1.75912
1.83154
1.85715
-0.568752
-0.564179
-0.555978
-0.517009
-0.456652
-0.385876
-0.309296
-0.22665
-0.134886
-0.0292689
0.0762593
0.23111
0.537584
0.957449
1.37601
1.7293
1.98824
2.14224
2.20942
2.22535
-0.529587
-0.528598
-0.524683
-0.49199
-0.435636
-0.365656
-0.28771
-0.203421
-0.110401
0.00329442
0.122954
0.234618
0.514515
0.862436
1.21462
1.51803
1.74913
1.88981
1.95491
1.97418
-0.499812
-0.501674
-0.495424
-0.468208
-0.413138
-0.344539
-0.267117
-0.18436
-0.0959632
0.00754048
0.118242
0.194831
0.393519
0.663567
0.934061
1.15947
1.33584
1.45055
1.50568
1.52359
-0.461071
-0.462779
-0.460742
-0.439409
-0.386408
-0.321265
-0.247707
-0.169558
-0.0894861
-0.00398035
0.0951385
0.155249
0.281605
0.491802
0.709243
0.878022
1.00929
1.10232
1.14493
1.15625
-0.407894
-0.408889
-0.411223
-0.394458
-0.349218
-0.29203
-0.227217
-0.157427
-0.0876765
-0.0183798
0.0684291
0.121211
0.191276
0.347202
0.5176
0.642642
0.736572
0.805316
0.835402
0.841527
-0.335021
-0.336765
-0.338026
-0.326918
-0.294102
-0.251413
-0.200422
-0.14313
-0.0837648
-0.0267339
0.0462163
0.0932916
0.132285
0.243842
0.370167
0.459401
0.525589
0.573394
0.596525
0.603903
-0.24915
-0.250843
-0.251441
-0.244641
-0.225447
-0.19847
-0.163104
-0.12144
-0.0723035
-0.0275335
0.029933
0.0704951
0.0943789
0.176869
0.266904
0.32585
0.374682
0.413493
0.429465
0.434246
-0.165846
-0.167103
-0.167869
-0.164841
-0.155682
-0.141151
-0.120121
-0.0938802
-0.0560909
-0.0241898
0.0170621
0.0536434
0.0665471
0.131946
0.198116
0.237028
0.273603
0.300109
0.313808
0.318937
-0.0986856
-0.0995726
-0.100517
-0.0999997
-0.0971631
-0.0914815
-0.0809707
-0.0666458
-0.0404672
-0.0192561
0.00872895
0.0392283
0.0480091
0.0997005
0.145809
0.17794
0.202665
0.21905
0.227283
0.229094
-0.0527208
-0.0532733
-0.054351
-0.0562953
-0.0578022
-0.0568287
-0.0522407
-0.0447709
-0.0290215
-0.0131641
0.00648886
0.0249328
0.0379673
0.0738663
0.104631
0.128575
0.144885
0.152365
0.154592
0.153882
-0.0261792
-0.0266407
-0.0278696
-0.0304543
-0.033705
-0.0353005
-0.0339747
-0.0301748
-0.0202552
-0.00727624
0.00751307
0.0168612
0.0269188
0.0524141
0.0731504
0.0879877
0.0964745
0.0971641
0.0954947
0.0945113
-0.0130456
-0.0133651
-0.0144347
-0.0166942
-0.0201286
-0.022542
-0.0226237
-0.0205637
-0.012625
-0.00186274
0.0103974
0.015713
0.0200336
0.0384384
0.0541978
0.0621924
0.0653863
0.066861
0.0652576
0.0628148
-0.00899213
-0.00911375
-0.00976803
-0.0114593
-0.0141365
-0.0162876
-0.0165123
-0.014868
-0.00672068
0.00321365
0.0172428
0.0218705
0.0249363
0.0372114
0.0487648
0.0539243
0.056018
0.0569902
0.0556854
0.0526921
-0.0123428
-0.012254
-0.0124114
-0.0132734
-0.0147328
-0.0158087
-0.014828
-0.0118153
-0.00400131
0.00789532
0.028565
0.0358477
0.0400221
0.0455983
0.0530932
0.0556032
0.0530417
0.0463724
0.0438626
0.0429882
-0.0228982
-0.0225521
-0.0221895
-0.0220579
-0.022287
-0.0217234
-0.019818
-0.0136795
-0.00386077
0.0110497
0.0343134
0.0514077
0.0568665
0.0597373
0.0611373
0.0588447
0.0576007
0.0532809
0.0507974
0.0513513
-0.0423033
-0.0413847
-0.0410512
-0.0393229
-0.0384454
-0.036415
-0.0333124
-0.0257325
-0.0146809
0.00432374
0.0355552
0.0582148
0.0700565
0.0689324
0.0745281
0.078706
0.0939868
0.10785
0.109455
0.107368
-0.0690875
-0.0683137
-0.0675115
-0.0661547
-0.0645757
-0.0613788
-0.057437
-0.0492318
-0.0385872
-0.017967
0.0161544
0.0463903
0.0692271
0.0635381
0.0893492
0.108
0.132722
0.157411
0.168614
0.157404
-0.105338
-0.104479
-0.10376
-0.102396
-0.100653
-0.0979685
-0.0950657
-0.0897976
-0.0832149
-0.0653505
-0.0301218
0.00497571
0.0165602
0.0186425
0.057446
0.0911723
0.110489
0.12341
0.135849
0.128423
-0.151095
-0.150272
-0.149519
-0.148768
-0.148122
-0.147831
-0.1489
-0.151644
-0.154382
-0.14526
-0.105222
-0.0520733
-0.0500654
-0.039517
-0.00440802
0.0261914
0.0468342
0.0464213
0.0543086
0.0551441
-0.205129
-0.204702
-0.204552
-0.204727
-0.206101
-0.210255
-0.219583
-0.23615
-0.255446
-0.261978
-0.21356
-0.127337
-0.106082
-0.0834661
-0.0477811
-0.0180774
0.0198928
0.0282453
0.017364
0.0222557
-0.259807
-0.259907
-0.260832
-0.26303
-0.268377
-0.279925
-0.302113
-0.338533
-0.38482
-0.420771
-0.367519
-0.232262
-0.191072
-0.137004
-0.0787259
-0.0437533
-0.00935136
0.0148511
-0.0028784
-0.00205096
-0.307174
-0.308066
-0.310466
-0.315189
-0.325344
-0.346224
-0.385045
-0.447887
-0.539742
-0.609684
-0.548608
-0.377248
-0.309094
-0.22466
-0.14789
-0.0915145
-0.0857913
-0.0685006
-0.0676867
-0.0688154
-0.331189
-0.332847
-0.337162
-0.345324
-0.360719
-0.39105
-0.44719
-0.540448
-0.677882
-0.775203
-0.711914
-0.533752
-0.420429
-0.294829
-0.213053
-0.147336
-0.122377
-0.143199
-0.130323
-0.132002
-0.325901
-0.327889
-0.331287
-0.340281
-0.359739
-0.39515
-0.455849
-0.562165
-0.723509
-0.862315
-0.818541
-0.606912
-0.463754
-0.326993
-0.235389
-0.202943
-0.161522
-0.169433
-0.166944
-0.167042
-0.280664
-0.282982
-0.286254
-0.293063
-0.309347
-0.344119
-0.407201
-0.513801
-0.67121
-0.80982
-0.776961
-0.569196
-0.398078
-0.30661
-0.237849
-0.193393
-0.204352
-0.190594
-0.188323
-0.186973
-0.21028
-0.211961
-0.214971
-0.220658
-0.232966
-0.259203
-0.308914
-0.391862
-0.513167
-0.625442
-0.599707
-0.423562
-0.281299
-0.231413
-0.224718
-0.181493
-0.18808
-0.18259
-0.180396
-0.178914
-0.122303
-0.123452
-0.125063
-0.1278
-0.134418
-0.150049
-0.181556
-0.237899
-0.316574
-0.38433
-0.36285
-0.250547
-0.195776
-0.16943
-0.14675
-0.162709
-0.148074
-0.14447
-0.138305
-0.135917
-0.0292473
-0.0291715
-0.0279924
-0.026628
-0.0270444
-0.0318843
-0.0430838
-0.0663809
-0.0992121
-0.124691
-0.122634
-0.108792
-0.126196
-0.135723
-0.0869148
-0.0765997
-0.0582998
-0.0529703
-0.0502537
-0.0490443
-1.12581
-0.255573
0.0167967
0.302133
0.493622
0.659197
0.797408
0.937689
1.08794
1.16516
-0.119368
0.302131
0.326745
0.520986
0.653985
0.772886
0.876099
0.967045
0.997013
0.953164
0.278438
0.500564
0.541985
0.681746
0.773833
0.85861
0.928547
0.980667
0.984414
0.99702
0.518237
0.66935
0.705573
0.81315
0.871617
0.933137
0.980039
1.01342
1.02322
1.04638
0.706702
0.810062
0.840413
0.913091
0.957568
1.00125
1.03456
1.05942
1.06975
1.10087
0.851939
0.924067
0.954557
1.00012
1.03704
1.06837
1.09348
1.11447
1.12908
1.15704
0.973948
1.02621
1.05236
1.08161
1.11027
1.13471
1.15519
1.17467
1.18983
1.21613
1.07932
1.11767
1.13913
1.16041
1.18195
1.20184
1.21952
1.23782
1.25278
1.27639
1.17475
1.2038
1.22107
1.23681
1.25341
1.26979
1.28551
1.30257
1.31618
1.33848
1.26376
1.28465
1.29984
1.31328
1.32711
1.34106
1.35462
1.36925
1.38078
1.40044
1.35011
1.366
1.37998
1.39197
1.40402
1.4157
1.42684
1.43853
1.44619
1.463
1.43567
1.44861
1.46242
1.4741
1.48467
1.49442
1.50318
1.51142
1.51499
1.52628
1.52502
1.53602
1.54949
1.5587
1.56613
1.57332
1.58051
1.58707
1.58807
1.59551
1.62346
1.62819
1.63623
1.64073
1.644
1.64847
1.65447
1.66223
1.66606
1.67595
1.73677
1.72307
1.71562
1.71
1.70734
1.70874
1.71524
1.72764
1.7424
1.77205
1.85768
1.80196
1.7711
1.75403
1.74588
1.74587
1.75456
1.77408
1.80609
1.87527
)
;

boundaryField
{
    wall-4
    {
        type            zeroGradient;
    }
    pressure-outlet-7
    {
        type            fixedValue;
        value           uniform 0;
    }
    velocity-inlet-6
    {
        type            zeroGradient;
    }
    velocity-inlet-5
    {
        type            zeroGradient;
    }
    frontAndBackPlanes
    {
        type            empty;
    }
}


// ************************************************************************* //
