/*--------------------------------*- C++ -*----------------------------------*\
| =========                 |                                                 |
| \\      /  F ield         | OpenFOAM: The Open Source CFD Toolbox           |
|  \\    /   O peration     | Version:  4.0                                   |
|   \\  /    A nd           | Web:      www.OpenFOAM.org                      |
|    \\/     M anipulation  |                                                 |
\*---------------------------------------------------------------------------*/
FoamFile
{
    version     2.0;
    format      ascii;
    class       surfaceScalarField;
    location    "29";
    object      phi;
}
// * * * * * * * * * * * * * * * * * * * * * * * * * * * * * * * * * * * * * //

dimensions      [0 3 -1 0 0 0 0];

internalField   nonuniform List<scalar> 
4262
(
0.107148
0.470841
0.0955908
0.705143
0.0694396
0.858454
0.0474695
1.02073
0.0311205
1.21487
0.0199571
1.44938
0.0125786
1.73324
0.00731154
2.0763
0.00329408
2.48926
-0.000237098
2.98582
-0.0037829
2.98584
-0.00778349
2.48924
-0.0130013
2.07625
-0.0202822
1.73314
-0.0313074
1.44924
-0.0475084
1.21472
-0.069322
1.02058
-0.095458
0.858439
-0.107154
0.705282
0.470834
0.112885
0.357956
0.135318
0.682709
0.120424
0.873349
0.0979246
1.04323
0.0748001
1.23799
0.0530462
1.47114
0.0345205
1.75177
0.0203519
2.09047
0.00919496
2.50042
-0.000987706
2.99601
-0.0110939
2.99594
-0.022042
2.50019
-0.0359975
2.09021
-0.0544583
1.75161
-0.076167
1.47095
-0.0994278
1.23798
-0.122201
1.04335
-0.136385
0.872623
-0.11334
0.682237
0.357494
0.0920331
0.265923
0.124947
0.649795
0.121035
0.877261
0.104593
1.05967
0.0858198
1.25676
0.0667636
1.49019
0.0480196
1.77051
0.0302516
2.10824
0.0140137
2.51666
-0.00152884
3.01155
-0.0170723
3.01149
-0.0331776
2.5163
-0.0507009
2.10773
-0.0688629
1.76977
-0.0873137
1.4894
-0.105286
1.25595
-0.120589
1.05865
-0.125252
0.877286
-0.0922366
0.649221
0.265258
0.0639987
0.201924
0.104898
0.608895
0.106763
0.875396
0.0953743
1.07106
0.0811892
1.27095
0.0664892
1.50489
0.0507029
1.7863
0.0338455
2.1251
0.0163069
2.53419
-0.00243217
3.03029
-0.0209255
3.02998
-0.0378608
2.53323
-0.0539496
2.12382
-0.0692753
1.78509
-0.08364
1.50377
-0.0976288
1.26994
-0.109045
1.07007
-0.106296
0.874537
-0.0645666
0.607492
0.200691
0.0374747
0.164449
0.0807016
0.565669
0.0911003
0.864997
0.0842066
1.07796
0.071893
1.28326
0.0598689
1.51692
0.0467993
1.79937
0.0320653
2.13983
0.0156763
2.55058
-0.00306151
3.04903
-0.021464
3.04838
-0.037277
2.54905
-0.0515477
2.13809
-0.0641012
1.79765
-0.0755461
1.51521
-0.0873256
1.28172
-0.0936135
1.07636
-0.0823012
0.863225
-0.0380704
0.563261
0.162621
0.0193327
0.145117
0.0568258
0.528176
0.0720347
0.849788
0.0701452
1.07985
0.0618905
1.29152
0.0515425
1.52727
0.0403662
1.81054
0.0278126
2.15238
0.012943
2.56545
-0.00427325
3.06624
-0.0212425
3.06535
-0.0354807
2.56328
-0.0471577
2.14977
-0.0572185
1.80771
-0.0667191
1.52471
-0.0741725
1.28917
-0.0751852
1.07737
-0.0587637
0.846804
-0.0199563
0.524454
0.142664
0.0105641
0.134552
0.0422942
0.496445
0.0584891
0.833594
0.0587947
1.07954
0.0528405
1.29747
0.0439313
1.53617
0.034022
1.82045
0.0228219
2.16359
0.010002
2.57827
-0.00511755
3.08136
-0.0199238
3.08016
-0.0319836
2.57534
-0.0420438
2.15983
-0.0511022
1.81677
-0.0591319
1.53274
-0.063912
1.29395
-0.0624104
1.07587
-0.0447033
0.829097
-0.011335
0.491085
0.131329
0.00657542
0.127977
0.0327009
0.47032
0.0489083
0.817386
0.0503812
1.07807
0.0453891
1.30246
0.0373449
1.54422
0.0281333
1.82966
0.017764
2.17395
0.00628455
2.58975
-0.00665172
3.0943
-0.0190108
3.09252
-0.0293574
2.58569
-0.0384107
2.16888
-0.0459758
1.82433
-0.0524846
1.53925
-0.0562437
1.29771
-0.0534717
1.0731
-0.0354013
0.811026
-0.00739769
0.463082
0.123932
0.00436714
0.12361
0.025353
0.449334
0.0407968
0.801942
0.0429783
1.07589
0.0385842
1.30686
0.0315213
1.55128
0.0232961
1.83789
0.014036
2.18321
0.0035481
2.60024
-0.00824219
3.10609
-0.0194747
3.10375
-0.0286451
2.59486
-0.0364033
2.17664
-0.0429158
1.83084
-0.0485568
1.54489
-0.0513024
1.30046
-0.0470186
1.06881
-0.0289582
0.792966
-0.00550753
0.439631
0.118424
0.00320459
0.120405
0.0200901
0.432449
0.0346379
0.787395
0.0376397
1.07288
0.0338258
1.31067
0.0270356
1.55807
0.019251
1.84567
0.0104099
2.19206
0.000544568
2.61011
-0.0104778
3.11711
-0.0207112
3.11398
-0.0287055
2.60286
-0.0352341
2.18317
-0.0410672
1.83668
-0.0457084
1.54954
-0.0472452
1.30199
-0.0417525
1.06332
-0.0242432
0.775457
-0.00454424
0.419932
0.11388
0.00247716
0.117928
0.0153684
0.419557
0.0282288
0.774534
0.0314928
1.06962
0.0284542
1.31371
0.0226796
1.56385
0.0158432
1.85251
0.00770178
2.2002
-0.00190953
2.61972
-0.0127712
3.12797
-0.0226854
3.1239
-0.0302114
2.61038
-0.0358375
2.1888
-0.0400761
1.84091
-0.0432822
1.55274
-0.0437715
1.30248
-0.0373558
1.0569
-0.0205474
0.758648
-0.00409186
0.403476
0.109788
0.00161563
0.116313
0.0106427
0.41053
0.0215563
0.763621
0.024564
1.06661
0.021808
1.31647
0.0166227
1.56903
0.0101715
1.85896
0.00260839
2.20776
-0.00626474
2.62859
-0.0162489
3.13796
-0.0250555
3.1327
-0.0311275
2.61645
-0.0352127
2.19288
-0.0381673
1.84387
-0.039998
1.55457
-0.0392744
1.30176
-0.032339
1.04997
-0.0168678
0.743177
-0.00372594
0.390335
0.106062
0.000639454
0.115673
0.0058032
0.405367
0.013849
0.755575
0.0161049
1.06436
0.0135488
1.31902
0.00902606
1.57355
0.00315622
1.86483
-0.00373359
2.21465
-0.0113852
2.63624
-0.0193589
3.14593
-0.0259025
3.13925
-0.0303015
2.62085
-0.0332525
2.19583
-0.0353812
1.846
-0.0363328
1.55552
-0.0348943
1.30032
-0.027472
1.04255
-0.0133715
0.729076
-0.00316275
0.380126
0.102899
-0.000319437
0.115992
0.00134355
0.403704
0.00715747
0.749761
0.00894145
1.06257
0.00630853
1.32165
0.00166853
1.57819
-0.00424027
1.87074
-0.0109512
2.22136
-0.0179626
2.64325
-0.0246592
3.15263
-0.0296529
3.14424
-0.0325601
2.62376
-0.0341357
2.19741
-0.0343588
1.84622
-0.033515
1.55468
-0.0307867
1.29759
-0.0229566
1.03472
-0.0105792
0.716699
-0.00262618
0.372173
0.100273
-0.00117821
0.117171
-0.00180847
0.404334
0.000889539
0.747063
0.00148273
1.06198
-0.00126249
1.3244
-0.00568797
1.58262
-0.011279
1.87633
-0.0176109
2.22769
-0.0242804
2.64992
-0.0304987
3.15884
-0.034523
3.14827
-0.0360141
2.62525
-0.0358085
2.1972
-0.034643
1.84506
-0.032749
1.55279
-0.0291681
1.29401
-0.0209215
1.02647
-0.00949434
0.705272
-0.00250441
0.365183
0.0977686
-0.00235975
0.11953
-0.00519855
0.407173
-0.00570448
0.747569
-0.00603241
1.06231
-0.00925233
1.32762
-0.0141729
1.58754
-0.0198426
1.882
-0.0259927
2.23384
-0.0323549
2.65628
-0.0379481
3.16444
-0.0406987
3.15102
-0.0405035
2.62506
-0.03887
2.19557
-0.0366975
1.84288
-0.0332829
1.54937
-0.0280823
1.28881
-0.019302
1.01769
-0.0089501
0.69492
-0.00254531
0.358778
0.0952233
-0.00336788
0.122898
-0.00855089
0.412356
-0.0118271
0.750845
-0.0146858
1.06517
-0.0185568
1.33149
-0.0236199
1.5926
-0.029513
1.88789
-0.0357841
2.24011
-0.0418317
2.66233
-0.0465657
3.16917
-0.0479055
3.15236
-0.0459859
2.62314
-0.0426184
2.1922
-0.0388171
1.83908
-0.0343802
1.54493
-0.0285772
1.28301
-0.0195335
1.00865
-0.00936716
0.684754
-0.00274032
0.352151
0.092483
-0.00394271
0.126841
-0.0111462
0.419559
-0.0167504
0.756449
-0.0209565
1.06937
-0.0262426
1.33678
-0.0327565
1.59912
-0.0398274
1.89497
-0.0471194
2.24741
-0.0538233
2.66904
-0.0583428
3.17369
-0.0582783
3.15229
-0.0549354
2.61979
-0.050151
2.18742
-0.044774
1.8337
-0.0385966
1.53876
-0.0309752
1.27539
-0.0208447
0.998515
-0.0104701
0.674379
-0.00317786
0.344859
0.0893051
-0.00504326
0.131884
-0.0145306
0.429046
-0.0229129
0.764831
-0.0287674
1.07523
-0.0346523
1.34266
-0.0418193
1.60628
-0.0500315
1.90318
-0.0588692
2.25624
-0.0668916
2.67706
-0.0720956
3.1789
-0.0717928
3.15199
-0.0676474
2.61565
-0.0609334
2.1807
-0.0534767
1.82625
-0.0455064
1.53079
-0.0364912
1.26637
-0.024993
0.987017
-0.0130087
0.662395
-0.0039615
0.335812
0.0853436
-0.00623865
0.138123
-0.0177182
0.440526
-0.0285207
0.775634
-0.0365707
1.08328
-0.04424
1.35033
-0.0532899
1.61533
-0.0636168
1.9135
-0.0743893
2.26702
-0.0841758
2.68685
-0.0901738
3.18489
-0.0891779
3.15099
-0.0834504
2.60992
-0.0754012
2.17265
-0.0663982
1.81725
-0.0560793
1.52047
-0.0439625
1.25426
-0.0296778
0.972732
-0.0157247
0.648442
-0.00487919
0.324966
0.0804644
-0.0084224
0.146545
-0.0236612
0.455765
-0.0377751
0.789748
-0.0479735
1.09348
-0.0571223
1.35948
-0.0680415
1.62625
-0.08052
1.92598
-0.0935776
2.28007
-0.10485
2.69812
-0.110879
3.19092
-0.109164
3.14928
-0.102102
2.60286
-0.0917817
2.16233
-0.0798109
1.80527
-0.0667263
1.50738
-0.0518943
1.23942
-0.035396
0.956234
-0.0189963
0.632042
-0.00581722
0.311787
0.0746472
-0.0104112
0.156957
-0.0294132
0.474767
-0.0478011
0.808136
-0.061707
1.10738
-0.0739465
1.37172
-0.0877843
1.64009
-0.103375
1.94157
-0.118868
2.29557
-0.131392
2.71064
-0.137313
3.19684
-0.133884
3.14585
-0.123978
2.59295
-0.111052
2.14941
-0.0963568
1.79058
-0.0802054
1.49123
-0.0618263
1.22104
-0.0417144
0.936122
-0.0223071
0.612635
-0.00678999
0.29627
0.0678572
-0.0149985
0.171955
-0.0407697
0.500538
-0.0643701
0.831736
-0.0821475
1.12516
-0.0977077
1.38728
-0.11517
1.65755
-0.133742
1.96015
-0.151212
2.31304
-0.164328
2.72376
-0.168786
3.2013
-0.16213
3.13919
-0.149151
2.57997
-0.132797
2.13305
-0.114121
1.7719
-0.0939746
1.47108
-0.0723
1.19937
-0.0494977
0.91332
-0.0267677
0.589905
-0.0079603
0.277463
0.0598969
-0.0190166
0.190972
-0.0525106
0.534032
-0.08419
0.863415
-0.10871
1.14968
-0.130602
1.40917
-0.152668
1.67962
-0.174157
1.98163
-0.192678
2.33156
-0.204681
2.73576
-0.205995
3.20262
-0.195528
3.12873
-0.178131
2.56258
-0.157517
2.11244
-0.13538
1.74977
-0.112042
1.44775
-0.0867606
1.17409
-0.0591323
0.885691
-0.0313084
0.562081
-0.00904304
0.255197
0.0508539
-0.0330834
0.224055
-0.0787301
0.579679
-0.118852
0.903537
-0.1497
1.18053
-0.177158
1.43663
-0.203273
1.70574
-0.22658
2.00494
-0.244611
2.34959
-0.254106
2.74526
-0.251002
3.19951
-0.233994
3.11172
-0.210717
2.5393
-0.185294
2.08702
-0.158477
1.72295
-0.13065
1.41992
-0.101222
1.14466
-0.0696236
0.854093
-0.0371463
0.529603
-0.0103906
0.228442
0.0404633
-0.04715
0.271205
-0.115938
0.648467
-0.170945
0.958545
-0.209578
1.21916
-0.243323
1.47037
-0.271608
1.73402
-0.294015
2.02735
-0.308575
2.36415
-0.311832
2.74851
-0.300155
3.18783
-0.276033
3.0876
-0.247515
2.51078
-0.217217
2.05672
-0.186717
1.69245
-0.155903
1.38911
-0.1224
1.11116
-0.0838563
0.815549
-0.041863
0.48761
-0.0103156
0.196894
0.0301478
-0.0323742
0.303579
-0.090137
0.706229
-0.141309
1.00972
-0.185178
1.26303
-0.226341
1.51154
-0.262602
1.77028
-0.296727
2.06147
-0.326034
2.39346
-0.346648
2.76913
-0.352436
3.19362
-0.337603
3.07276
-0.308096
2.48127
-0.27078
2.0194
-0.228575
1.65025
-0.18354
1.34407
-0.135617
1.06324
-0.0835154
0.763447
-0.0358241
0.439919
-0.00782019
0.16889
0.0223276
-0.0104167
0.313996
-0.0403968
0.736209
-0.078123
1.04744
-0.114958
1.29986
-0.150762
1.54734
-0.184821
1.80434
-0.216084
2.09274
-0.241679
2.41905
-0.257417
2.78486
-0.25614
3.19235
-0.233914
3.05054
-0.201449
2.44881
-0.164403
1.98236
-0.12572
1.61156
-0.0864406
1.30479
-0.0485028
1.0253
-0.0177132
0.732657
-0.000693233
0.422899
0.00199124
0.166206
0.0243188
0.00276068
0.311235
-0.0183624
0.757333
-0.0459825
1.07506
-0.0751992
1.32908
-0.104821
1.57696
-0.134152
1.83367
-0.161433
2.12002
-0.183446
2.44106
-0.196026
2.79744
-0.19296
3.18928
-0.173296
3.03087
-0.143671
2.41919
-0.107726
1.94641
-0.0698316
1.57367
-0.0345181
1.26948
-0.00529482
0.996074
0.0135254
0.713837
0.0154946
0.42093
0.00647044
0.17523
0.0307892
0.00284752
0.308388
-0.00806519
0.768245
-0.0285
1.0955
-0.0527362
1.35332
-0.077526
1.60175
-0.102363
1.85851
-0.125605
2.14326
-0.144293
2.45975
-0.154327
2.80748
-0.149758
3.18471
-0.128786
3.0099
-0.0984777
2.38888
-0.0662389
1.91417
-0.0364676
1.5439
-0.0104537
1.24346
0.00981308
0.975807
0.0205726
0.703077
0.018181
0.423321
0.00687615
0.186535
0.0376654
0.00518744
0.3032
-0.00241847
0.775851
-0.0201411
1.11322
-0.0404518
1.37363
-0.0615022
1.6228
-0.0829523
1.87996
-0.103245
2.16355
-0.119867
2.47637
-0.12899
2.8166
-0.12557
3.18129
-0.107379
2.99171
-0.0831208
2.36462
-0.0581018
1.88915
-0.0328558
1.51865
-0.00819551
1.2188
0.0111109
0.956501
0.019191
0.694997
0.0150859
0.427426
0.0052051
0.196416
0.0428705
0.00588145
0.297319
0.000582406
0.78115
-0.0150233
1.12883
-0.0335064
1.39211
-0.0524628
1.64176
-0.0716192
1.89911
-0.0898816
2.18181
-0.10498
2.49147
-0.113104
2.82473
-0.109415
3.1776
-0.0930449
2.97534
-0.0717094
2.34328
-0.0472568
1.8647
-0.0226998
1.49409
-0.00310507
1.19921
0.0100811
0.943315
0.0159351
0.689143
0.011544
0.431818
0.00373556
0.204224
0.0466061
0.00390078
0.293418
3.6666e-05
0.785014
-0.0134756
1.14234
-0.0301218
1.40876
-0.0475966
1.65923
-0.0652589
1.91678
-0.0822437
2.1988
-0.0965679
2.5058
-0.105155
2.83331
-0.103859
3.17631
-0.0906279
2.96211
-0.0700929
2.32275
-0.0484872
1.84309
-0.0301325
1.47574
-0.0130067
1.18208
0.000773792
0.929534
0.00594267
0.683974
0.00559016
0.43217
0.00205629
0.207758
0.0486623
0.00259724
0.290821
-0.000677468
0.788289
-0.0128679
1.15453
-0.0284866
1.42438
-0.0451962
1.67594
-0.0619739
1.93355
-0.0782139
2.21504
-0.0923086
2.51989
-0.10115
2.84215
-0.0997087
3.17486
-0.0864663
2.94887
-0.0693607
2.30564
-0.0519911
1.82573
-0.0336575
1.4574
-0.0184344
1.16686
-0.00769917
0.918799
-0.002034
0.678309
-0.00190991
0.432046
-0.000607211
0.206455
0.0480551
-0.000178709
0.290999
-0.00361252
0.791723
-0.0141942
1.16511
-0.0285479
1.43873
-0.0442794
1.69168
-0.0604483
1.94972
-0.0764412
2.23103
-0.0908097
2.53426
-0.10086
2.8522
-0.102944
3.17695
-0.093055
2.93898
-0.0756925
2.28828
-0.0563813
1.80641
-0.0406754
1.4417
-0.0270745
1.15326
-0.0171387
0.908863
-0.0104353
0.671606
-0.00552095
0.427132
-0.00170534
0.20264
0.0463498
-0.000579911
0.291579
-0.00537708
0.79652
-0.0156185
1.17535
-0.0288263
1.45194
-0.0440196
1.70687
-0.0599548
1.96566
-0.0759819
2.24706
-0.0907496
2.54903
-0.101599
2.86305
-0.103464
3.17881
-0.0933892
2.9289
-0.0792269
2.27412
-0.0643846
1.79157
-0.0473957
1.42471
-0.033826
1.13969
-0.0219113
0.896948
-0.013597
0.663291
-0.0079563
0.421491
-0.00244472
0.197128
0.0439051
-0.00257979
0.294159
-0.00799832
0.801939
-0.0175637
1.18492
-0.0299474
1.46432
-0.0442833
1.72121
-0.059805
1.98118
-0.0759175
2.26317
-0.0911792
2.56429
-0.103189
2.87506
-0.10847
3.18409
-0.103222
2.92365
-0.0882402
2.25914
-0.0703146
1.77365
-0.0559239
1.41032
-0.0414893
1.12525
-0.0302143
0.885673
-0.0201404
0.653218
-0.00995086
0.411302
-0.00306921
0.190246
0.0408359
-0.00389033
0.298049
-0.00929904
0.807347
-0.0186214
1.19424
-0.0306198
1.47632
-0.0445189
1.7351
-0.0597873
1.99645
-0.076051
2.27944
-0.0920773
2.58031
-0.10599
2.88898
-0.114124
3.19223
-0.109348
2.91888
-0.096533
2.24632
-0.0806097
1.75772
-0.0626364
1.39235
-0.0471409
1.10976
-0.0329714
0.871504
-0.0212036
0.64145
-0.0115267
0.401625
-0.00343001
0.18215
0.0374058
-0.00443794
0.302487
-0.0107974
0.813707
-0.0200017
1.20344
-0.0315003
1.48782
-0.0448097
1.74841
-0.0597262
2.01136
-0.0760652
2.29578
-0.0928573
2.59711
-0.10805
2.90417
-0.117621
3.2018
-0.116081
2.91734
-0.105027
2.23527
-0.0869131
1.73961
-0.0693716
1.3748
-0.0532866
1.09367
-0.0402134
0.858431
-0.0269902
0.628227
-0.0128297
0.387464
-0.00362482
0.172945
0.033781
-0.00446321
0.306951
-0.0111844
0.820428
-0.0204397
1.2127
-0.0317478
1.49913
-0.0448055
1.76147
-0.0595073
2.02607
-0.0758915
2.31216
-0.0931692
2.61438
-0.109721
2.92072
-0.122312
3.21439
-0.124006
2.91903
-0.113069
2.22433
-0.0974573
1.724
-0.0774032
1.35475
-0.0591019
1.07537
-0.0415514
0.84088
-0.0261664
0.612842
-0.0134288
0.374726
-0.00356428
0.16308
0.0302167
-0.00452301
0.311474
-0.0117804
0.827685
-0.0209093
1.22183
-0.03189
1.51011
-0.0446059
1.77419
-0.0590504
2.04051
-0.0754481
2.32856
-0.0933981
2.63233
-0.111862
2.93918
-0.127434
3.22996
-0.132073
2.92367
-0.124646
2.2169
-0.106115
1.70547
-0.0853219
1.33396
-0.0638164
1.05387
-0.0465543
0.823618
-0.030804
0.597091
-0.0138113
0.357734
-0.00324792
0.152517
0.0269688
-0.00449979
0.315973
-0.0117253
0.834911
-0.020716
1.23082
-0.0315105
1.5209
-0.044027
1.7867
-0.0582901
2.05477
-0.0747031
2.34497
-0.0929304
2.65056
-0.111684
2.95794
-0.128309
3.24659
-0.136346
2.93171
-0.130624
2.21118
-0.116906
1.69175
-0.094366
1.31142
-0.0695821
1.02908
-0.0442398
0.798276
-0.0239921
0.576844
-0.0111433
0.344885
-0.00242972
0.143803
0.0245391
-0.00453997
0.320513
-0.0118565
0.842227
-0.0205549
1.23952
-0.0309815
1.53133
-0.0431751
1.7989
-0.0572178
2.06882
-0.0735226
2.36127
-0.0921055
2.66914
-0.112691
2.97852
-0.133513
3.26741
-0.145292
2.94349
-0.142602
2.20849
-0.125864
1.67501
-0.10283
1.28838
-0.073563
0.999817
-0.0468934
0.771606
-0.023046
0.552996
-0.00720801
0.329047
-0.00239753
0.138993
0.0221416
-0.00445039
0.324964
-0.0115332
0.84931
-0.019983
1.24797
-0.0301309
1.54148
-0.0420194
1.81079
-0.0557798
2.08258
-0.0719755
2.37747
-0.0906954
2.68786
-0.111389
2.99922
-0.131379
3.2874
-0.144936
2.95705
-0.148034
2.21159
-0.139336
1.66631
-0.11463
1.26368
-0.0815641
0.966751
-0.0394198
0.729462
0.000606242
0.51297
0.0221901
0.307463
0.0212427
0.13994
0.0433843
-0.00433712
0.329301
-0.0113453
0.856318
-0.0194601
1.25608
-0.0291663
1.55118
-0.0406204
1.82224
-0.0540727
2.09603
-0.0700804
2.39348
-0.0888871
2.70667
-0.110737
3.02107
-0.135311
3.31197
-0.15376
2.9755
-0.159115
2.21694
-0.147734
1.65493
-0.125665
1.24161
-0.0879286
0.929015
-0.0429917
0.684525
0.0104872
0.459491
0.0347518
0.283199
0.0154149
0.159277
0.0587992
-0.00410995
0.333411
-0.010822
0.86303
-0.0186486
1.26391
-0.0280031
1.56054
-0.0391047
1.83334
-0.0521857
2.10911
-0.0679315
2.40922
-0.0867078
2.72545
-0.108595
3.04295
-0.132192
3.33557
-0.150953
2.99426
-0.161435
2.22743
-0.162314
1.65581
-0.142798
1.22209
-0.106222
0.892438
-0.0395854
0.617888
0.0620378
0.357868
0.162575
0.182661
0.172241
0.149611
0.231041
-0.00395701
0.337368
-0.0106353
0.869709
-0.0183388
1.27161
-0.0275863
1.56978
-0.0387705
1.84453
-0.0522492
2.12259
-0.0688451
2.42582
-0.0891248
2.74573
-0.114033
3.06786
-0.144301
3.36584
-0.171994
3.02195
-0.187779
2.24321
-0.186811
1.65484
-0.173051
1.20833
-0.136404
0.855792
-0.0936713
0.575155
-0.117126
0.381323
-0.364663
0.430198
-0.92613
0.711078
0.893601
-1.58869
-0.00374185
0.34111
-0.0101263
0.876093
-0.0176317
1.27912
-0.0267262
1.57888
-0.0377902
1.85559
-0.0513078
2.13611
-0.068231
2.44274
-0.0894253
2.76692
-0.115837
3.09427
-0.147383
3.39738
-0.176963
3.05153
-0.199793
2.26604
-0.221669
1.67672
-0.225101
1.21176
-0.219631
0.850321
-0.298049
0.653573
-0.688306
0.77158
-1.40897
1.15086
-2.02324
1.32535
1.22017
-2.3498
-0.0035501
0.34466
-0.0097135
0.882256
-0.0169414
1.28634
-0.0257577
1.58769
-0.0366178
1.86645
-0.0501502
2.14964
-0.0673862
2.45998
-0.0893097
2.78884
-0.117568
3.12253
-0.154595
3.43441
-0.194057
3.09099
-0.226613
2.2986
-0.24693
1.69704
-0.255706
1.22054
-0.34377
0.938386
-0.746009
1.05581
-1.50792
1.53349
-2.09045
1.73339
-2.33475
1.56965
1.33667
-2.45125
-0.00330117
0.347961
-0.00906924
0.888025
-0.0160231
1.2933
-0.024629
1.5963
-0.0353151
1.87714
-0.0488192
2.16314
-0.0662376
2.4774
-0.0888925
2.8115
-0.118707
3.15235
-0.157554
3.47326
-0.198728
3.13217
-0.236747
2.33662
-0.280844
1.74113
-0.373914
1.31361
-0.697645
1.26212
-1.41233
1.7705
-2.01116
2.13231
-2.25514
1.97738
-2.37085
1.68536
1.4032
-2.43739
-0.00305188
0.351013
-0.00848644
0.893459
-0.0150883
1.2999
-0.023357
1.60457
-0.033846
1.88762
-0.0472788
2.17658
-0.0648716
2.49499
-0.0880863
2.83471
-0.119398
3.18366
-0.163197
3.51706
-0.216024
3.18499
-0.269387
2.38998
-0.320264
1.79201
-0.492947
1.48629
-1.07192
1.84109
-1.76335
2.46192
-2.09672
2.46569
-2.24978
2.13043
-2.33406
1.76964
1.46954
-2.40039
-0.00292398
0.353937
-0.00817329
0.898708
-0.0147533
1.30648
-0.0230881
1.6129
-0.0338183
1.89836
-0.0474769
2.19024
-0.0654753
2.51299
-0.0895413
2.85878
-0.122558
3.21668
-0.16861
3.56311
-0.222755
3.23914
-0.275975
2.4432
-0.373474
1.88951
-0.748607
1.86142
-1.46732
2.5598
-1.95408
2.94869
-2.15801
2.66961
-2.26644
2.23887
-2.34408
1.84728
1.53451
-2.40905
-0.0029669
0.356904
-0.00851201
0.904253
-0.0154069
1.31338
-0.0241017
1.6216
-0.0352827
1.90954
-0.0495448
2.2045
-0.0683797
2.53182
-0.09358
2.88398
-0.128268
3.25136
-0.178683
3.61352
-0.242298
3.30275
-0.315055
2.51596
-0.498538
2.07299
-1.02591
2.3888
-1.65627
3.19016
-1.94506
3.23748
-2.09552
2.82007
-2.21193
2.35527
-2.30672
1.94207
1.59806
-2.37027
-0.00293835
0.359842
-0.00862759
0.909943
-0.0159369
1.32068
-0.0251491
1.63081
-0.0368522
1.92124
-0.0517347
2.21938
-0.0713313
2.55142
-0.0976674
2.91032
-0.134283
3.28798
-0.18727
3.66651
-0.251639
3.36712
-0.340379
2.6047
-0.614579
2.34719
-1.23948
3.0137
-1.74061
3.69129
-1.95192
3.44878
-2.09685
2.965
-2.22475
2.48318
-2.33974
2.05705
1.65875
-2.40043
-0.00284965
0.362692
-0.0089077
0.916001
-0.0166039
1.32838
-0.0262368
1.64044
-0.0384176
1.93342
-0.0539543
2.23492
-0.074433
2.5719
-0.101946
2.93783
-0.140071
3.3261
-0.195929
3.72237
-0.269629
3.44082
-0.395202
2.73027
-0.761579
2.71357
-1.38393
3.63606
-1.75192
4.05927
-1.931
3.62786
-2.03908
3.07309
-2.13363
2.57773
-2.20569
2.12911
1.65323
-2.20017
-0.00270665
0.365398
-0.00879537
0.922089
-0.0169595
1.33655
-0.0271906
1.65068
-0.0399807
1.94621
-0.0561643
2.2511
-0.0774016
2.59314
-0.105997
2.96642
-0.145908
3.36601
-0.203813
3.78027
-0.283418
3.52043
-0.44651
2.89336
-0.882271
3.14933
-1.43943
4.19322
-1.71202
4.33187
-1.87391
3.78975
-1.97262
3.1718
-1.97976
2.58487
-1.91957
2.06892
1.63194
-1.89828
-0.00240054
0.367799
-0.00888541
0.928574
-0.0173753
1.34504
-0.0279408
1.66124
-0.0410848
1.95935
-0.0576538
2.26767
-0.0792684
2.61475
-0.108129
2.99529
-0.148098
3.40598
-0.20474
3.83692
-0.291192
3.60688
-0.489434
3.0916
-0.956527
3.61642
-1.40575
4.64244
-1.58405
4.51017
-1.65877
3.86447
-1.6688
3.18182
-1.52704
2.4431
-1.03206
1.57394
0.599881
-0.00193616
0.369735
-0.00829787
0.934936
-0.0172874
1.35402
-0.0286332
1.67259
-0.0427634
1.97348
-0.0605
2.28541
-0.0837218
2.63797
-0.114996
3.02656
-0.158612
3.4496
-0.222266
3.90057
-0.324038
3.70865
-0.566469
3.33403
-1.08631
4.13626
-1.46023
5.01637
-1.56433
4.61427
-1.57071
3.87084
-1.47518
3.0863
-1.23734
2.20526
-0.65103
0.987635
-0.0511491
-0.00149947
0.371235
-0.0078535
0.94129
-0.0171073
1.36328
-0.0289799
1.68446
-0.0438824
1.98839
-0.062827
2.30435
-0.0877726
2.66292
-0.12136
3.06015
-0.168938
3.49718
-0.237281
3.96891
-0.354873
3.82624
-0.650666
3.62983
-1.19592
4.68152
-1.47995
5.30039
-1.54984
4.68416
-1.53381
3.85481
-1.33298
2.88548
-0.805011
1.67729
-0.120967
0.30359
-0.172116
-0.00069781
0.371932
-0.00640831
0.947001
-0.0160279
1.3729
-0.0286771
1.69711
-0.0444396
2.00415
-0.0644281
2.32434
-0.0908303
2.68932
-0.12684
3.09616
-0.177579
3.54792
-0.254107
4.04544
-0.395562
3.9677
-0.744648
3.97891
-1.27656
5.21344
-1.4678
5.49163
-1.49935
4.71571
-1.41851
3.77397
-1.11889
2.58586
-0.338396
0.896793
0.0334874
-0.0682936
-0.138628
0.000176031
0.371756
-0.00478518
0.951962
-0.0144284
1.38254
-0.0275343
1.71021
-0.04385
2.02047
-0.0649151
2.3454
-0.0929126
2.71732
-0.130677
3.13392
-0.183722
3.60096
-0.266975
4.12869
-0.429696
4.13042
-0.828693
4.37791
-1.30871
5.69345
-1.43737
5.62029
-1.44763
4.72597
-1.25243
3.57876
-0.725366
2.0588
-0.070484
0.241911
0.0373346
-0.176112
-0.101294
0.00213019
0.369626
-0.001149
0.955241
-0.0114657
1.39286
-0.0253248
1.72407
-0.0421443
2.03728
-0.0639579
2.36722
-0.0928785
2.74624
-0.132374
3.17342
-0.187584
3.65617
-0.27782
4.21893
-0.465424
4.31802
-0.915899
4.82838
-1.31195
6.0895
-1.38666
5.695
-1.35401
4.69333
-1.07402
3.29877
-0.363322
1.3481
-0.0171543
-0.104256
0.0080295
-0.201296
-0.0932642
0.00376352
0.365863
0.00175015
0.957254
-0.00791073
1.40252
-0.0213031
1.73747
-0.0382575
2.05424
-0.0608196
2.38978
-0.0907873
2.77621
-0.131092
3.21372
-0.188227
3.71331
-0.285547
4.31625
-0.489802
4.52228
-0.960011
5.29859
-1.25604
6.38553
-1.29749
5.73645
-1.19417
4.59001
-0.827848
2.93244
-0.117329
0.637582
0.0308646
-0.25245
0.0174697
-0.187901
-0.0757945
0.00602071
0.359842
0.00576543
0.95751
-0.00237505
1.41066
-0.0155997
1.75069
-0.032656
2.0713
-0.055273
2.4124
-0.085124
2.80606
-0.125885
3.25448
-0.183253
3.77067
-0.283612
4.41661
-0.506586
4.74525
-0.976441
5.76845
-1.18934
6.59843
-1.20945
5.75656
-1.03265
4.41321
-0.523484
2.42327
-0.00459728
0.118695
0.0208358
-0.277883
0.0177959
-0.184861
-0.0579985
0.00878937
0.351053
0.0114477
0.954851
0.00545457
1.41665
-0.00622315
1.76237
-0.0234268
2.0885
-0.0459919
2.43496
-0.0753686
2.83543
-0.115167
3.29428
-0.17231
3.82782
-0.277804
4.5221
-0.508126
4.97557
-0.934053
6.19437
-1.07881
6.74318
-1.07115
5.74891
-0.837414
4.17947
-0.303764
1.88962
-0.0474932
-0.137576
-0.0249947
-0.300382
-0.00213977
-0.207716
-0.0601383
0.012861
0.338192
0.0195913
0.948121
0.0155862
1.42066
0.00502007
1.77293
-0.0117289
2.10525
-0.0324385
2.45567
-0.0601485
2.86314
-0.0979516
3.33209
-0.151653
3.88152
-0.253164
4.62361
-0.47895
5.20136
-0.851064
6.56649
-0.950796
6.84291
-0.942786
5.7409
-0.709078
3.94576
-0.16176
1.34231
-0.0531887
-0.246147
-0.0254954
-0.328075
0.000402582
-0.233614
-0.0597357
0.0177984
0.320393
0.0299793
0.93594
0.0296697
1.42097
0.0208795
1.78172
0.00640153
2.11973
-0.0121869
2.47426
-0.0375414
2.8885
-0.0722112
3.36676
-0.121254
3.93056
-0.217955
4.72031
-0.428087
5.41149
-0.700993
6.83939
-0.775754
6.91768
-0.724549
5.6897
-0.433904
3.65512
0.0146001
0.893803
0.00394259
-0.23549
0.00404969
-0.328182
0.0289065
-0.258471
-0.0308292
0.0240909
0.296302
0.0432905
0.916741
0.0472176
1.41704
0.0411506
1.78779
0.030089
2.13079
0.0142368
2.49011
-0.00757895
2.91031
-0.0361495
3.39533
-0.0768864
3.9713
-0.154624
4.79805
-0.320575
5.57744
-0.50372
7.02254
-0.584084
6.99804
-0.605154
5.71077
-0.455004
3.50497
-0.240043
0.678843
-0.278135
-0.197399
-0.166293
-0.440024
-0.0420754
-0.382688
-0.0729046
0.0313833
0.264919
0.0600144
0.88811
0.0712075
1.40585
0.0698982
1.7891
0.0622416
2.13844
0.0499778
2.50238
0.0338864
2.92641
0.0121675
3.41704
-0.0204092
4.00388
-0.0648078
4.84245
-0.167304
5.67994
-0.268709
7.12394
-0.345576
7.07491
-0.44785
5.81304
-0.531624
3.58874
-0.673462
0.820681
-0.703069
-0.167792
-0.505537
-0.637556
-0.246027
-0.642198
-0.318932
0.0397193
0.2252
0.0800058
0.847823
0.0993056
1.38655
0.103716
1.78469
0.101353
2.14081
0.0941802
2.50955
0.0855743
2.93501
0.0739498
3.42867
0.0613314
4.01649
0.0494146
4.85436
0.0608664
5.66849
0.0694691
7.11534
0.0376429
7.10673
-0.0549207
5.9056
-0.266378
3.8002
-0.660182
1.21449
-0.762092
-0.0658822
-0.615473
-0.784176
-0.344655
-0.913015
-0.663587
0.0477925
0.177407
0.103857
0.791758
0.135937
1.35447
0.147909
1.77272
0.151787
2.13693
0.150321
2.51101
0.149917
2.93541
0.151827
3.42676
0.163267
4.00505
0.18897
4.82866
0.307159
5.5503
0.511472
6.91103
0.673204
6.945
0.845671
5.73314
0.686844
3.95902
0.159534
1.7418
-0.22212
0.315771
-0.379354
-0.626941
-0.258459
-1.03391
-0.922046
0.0523569
0.12505
0.127668
0.716447
0.175715
1.30642
0.198579
1.74985
0.210947
2.12456
0.21682
2.50514
0.227023
2.92521
0.242032
3.41175
0.277487
3.9696
0.357136
4.74901
0.599316
5.30812
1.12197
6.38837
1.52774
6.53923
1.91564
5.34524
1.91888
3.95579
1.40493
2.25575
0.90086
0.819837
0.382951
-0.109032
0.120199
-0.771158
-0.801847
0.0486223
0.076428
0.152078
0.612991
0.224437
1.23406
0.260915
1.71338
0.282104
2.10337
0.296167
2.49108
0.315644
2.90573
0.344887
3.38251
0.404544
3.90994
0.53624
4.61732
0.864338
4.98002
1.57613
5.67659
1.99721
6.11815
2.2731
5.06934
2.31486
3.91403
1.93319
2.63742
1.42112
1.33191
0.92866
0.383428
0.39463
-0.237128
-0.407217
0.0377485
0.0386795
0.171838
0.478902
0.273072
1.13283
0.329236
1.65721
0.361662
2.07095
0.385773
2.46697
0.412794
2.87871
0.453721
3.34158
0.518951
3.84471
0.663008
4.47326
0.989214
4.65382
1.69144
4.97436
2.0767
5.73288
2.29525
4.85079
2.33036
3.87892
2.07425
2.89354
1.56263
1.84352
0.98987
0.956189
0.405461
0.347282
-0.00175647
0.02884
0.00983948
0.196242
0.311499
0.330913
0.998157
0.409683
1.57844
0.452594
2.02804
0.486053
2.43351
0.515395
2.84937
0.556912
3.30006
0.613148
3.78848
0.731534
4.35487
0.939156
4.44619
1.46408
4.44944
1.86629
5.33067
1.96965
4.74743
1.94088
3.90769
1.74099
3.09343
1.32601
2.2585
0.84355
1.43865
0.366794
0.824037
0.365037
0.0306999
-0.0208604
0.195268
0.146931
0.386798
0.806627
0.495112
1.47013
0.551187
1.97196
0.594171
2.39053
0.624559
2.81898
0.65935
3.26527
0.69334
3.75449
0.761889
4.28633
0.872206
4.33588
1.19219
4.12946
1.59791
4.92494
1.63516
4.71018
1.5405
4.00235
1.35282
3.28111
1.03773
2.57359
0.631016
1.84536
0.249257
1.2058
0.614294
0.0350686
-0.055929
0.138272
0.0437276
0.338962
0.605938
0.471711
1.33738
0.533074
1.9106
0.561053
2.36255
0.571023
2.80901
0.574721
3.26158
0.566242
3.76296
0.555381
4.29719
0.564171
4.32709
0.678594
4.01504
0.87302
4.73052
0.874133
4.70907
0.785885
4.0906
0.669319
3.39767
0.512745
2.73017
0.312092
2.04602
0.117438
1.40045
0.731732
0.0217571
-0.0776861
0.054131
0.0113538
0.165161
0.494907
0.274814
1.22773
0.347222
1.83819
0.388743
2.32103
0.412807
2.78495
0.427998
3.24638
0.427032
3.76393
0.417839
4.30638
0.404451
4.34048
0.453682
3.96581
0.590399
4.5938
0.598214
4.70125
0.531657
4.15716
0.434187
3.49514
0.313644
2.85071
0.17494
2.18472
0.0525101
1.52288
0.784243
0.00586571
-0.0835518
-0.00182856
0.019048
0.034381
0.458698
0.10409
1.15802
0.170104
1.77217
0.22278
2.26835
0.264939
2.74279
0.291183
3.22014
0.303572
3.75154
0.304049
4.3059
0.284515
4.36001
0.298214
3.95211
0.377649
4.51436
0.378096
4.70081
0.323602
4.21165
0.244576
3.57417
0.159535
2.93575
0.0738096
2.27045
0.000228183
1.59646
0.784471
-0.0135922
-0.0699596
-0.0494704
0.0549263
-0.0627811
0.472008
-0.0273741
1.12261
0.0296772
1.71512
0.0879279
2.2101
0.1421
2.68862
0.178729
3.18351
0.207472
3.7228
0.213571
4.2998
0.192295
4.38129
0.192178
3.95223
0.225587
4.48095
0.207428
4.71896
0.164678
4.2544
0.113793
3.62505
0.0622555
2.98729
0.00840154
2.3243
-0.026291
1.63116
0.75818
-0.0302215
-0.0397381
-0.0862294
0.110934
-0.123532
0.509311
-0.113682
1.11276
-0.0660795
1.66752
-0.00758329
2.1516
0.0478626
2.63317
0.0949046
3.13647
0.130081
3.68762
0.133359
4.29653
0.113489
4.40116