/*--------------------------------*- C++ -*----------------------------------*\
| =========                 |                                                 |
| \\      /  F ield         | OpenFOAM: The Open Source CFD Toolbox           |
|  \\    /   O peration     | Version:  4.0                                   |
|   \\  /    A nd           | Web:      www.OpenFOAM.org                      |
|    \\/     M anipulation  |                                                 |
\*---------------------------------------------------------------------------*/
FoamFile
{
    version     2.0;
    format      ascii;
    class       volScalarField;
    location    "51";
    object      p;
}
// * * * * * * * * * * * * * * * * * * * * * * * * * * * * * * * * * * * * * //

dimensions      [0 2 -2 0 0 0 0];

internalField   nonuniform List<scalar> 
918
(
0.560311
1.19705
0.001505
0.559706
-0.0112945
1.16408
-0.499849
0.695415
0.540484
-0.0979825
-0.0308297
0.538064
1.0246
0.790565
-1.12041
-0.00194686
0.657454
-0.378834
0.539556
-0.0433599
0.723623
0.547047
0.550075
0.540657
0.607289
0.767683
0.905485
0.0205146
0.0074129
0.00381053
-0.0106025
-0.0367371
-0.0303954
1.04774
1.09882
1.12151
0.508493
0.336953
-0.366538
-0.435795
-0.428651
-0.543656
0.690432
0.68909
-0.193913
0.698174
0.702497
0.527587
0.539851
0.540757
0.541806
0.540775
0.542163
0.412639
-0.101213
-0.133846
-0.0777654
-0.0691426
0.0665449
-0.0328125
-0.0351775
-0.0286787
-0.0289179
0.45825
0.533032
0.530054
0.543343
0.552789
1.1366
1.10852
1.13466
1.04829
1.06483
1.00259
0.975257
0.811272
0.833037
0.775875
0.764436
-1.55499
-2.51135
-0.527857
-0.275749
-0.0103364
0.00112172
0.00759994
0.652782
0.652962
0.658376
0.664016
1.08624
-0.377852
-0.475643
0.539692
0.538495
0.546846
0.547543
0.54356
0.542651
-0.0341481
-0.0314587
-0.041299
-0.0416196
-0.0395975
0.71271
0.71161
0.541192
0.538203
0.559586
0.580655
0.572872
0.28451
0.611263
0.625184
0.59647
0.760641
0.753616
0.762829
0.878931
0.842618
0.942756
0.965844
0.0165884
0.000713932
-0.00908567
-0.0168953
-0.0146499
0.504367
0.496984
0.523873
0.511888
0.514366
0.252889
0.118444
0.422626
0.447929
-0.283328
-0.345701
-0.424755
-0.453399
-0.564951
0.613855
0.682336
0.679527
-0.207967
-0.134838
-0.265972
-0.0614381
-0.122764
0.517914
0.524879
0.519902
0.53539
0.529872
0.531828
0.544106
0.541182
0.542739
0.475112
0.598933
0.339069
0.304412
-0.23984
-0.151313
-0.240812
-0.0571358
-0.0528022
0.0801995
0.105464
0.0537333
0.0419523
-0.0457281
-0.0384652
-0.0418065
-0.0275486
-0.0278663
0.451123
0.440093
0.470836
0.478308
0.522305
0.523594
0.527296
0.52558
0.926039
0.948283
0.955951
0.929822
-3.50625
-6.29801
0.0509642
0.188174
-0.00549035
-0.00862366
0.00215382
-0.00399737
0.00130879
-0.00127953
0.00597582
0.0038906
0.00749448
0.00992053
0.645531
0.645899
1.00622
1.00984
0.984731
0.93649
0.527849
0.52994
0.535463
0.531334
-0.0269469
-0.0287444
-0.0264933
0.704478
0.709398
0.707785
0.246663
0.158252
0.334868
0.363519
0.638579
0.627499
0.63729
0.656311
0.692989
0.973243
0.991521
0.989735
0.998224
1.04232
1.05877
1.02405
0.484052
0.493907
0.488923
0.52703
0.524771
0.525692
0.521363
0.522757
0.52064
-0.0328519
-0.414776
0.497185
0.515289
0.497601
0.502253
0.693273
0.770576
0.665203
0.673623
0.671102
0.00684819
-0.0512257
0.260522
0.227194
0.391428
0.42741
0.406594
0.897156
0.857768
0.907821
0.881054
0.842583
0.867909
-0.366445
-1.87241
-0.988108
0.539313
0.352707
0.440066
0.0239336
0.00675611
0.0118855
1.00323
1.07852
0.654746
0.826937
0.831622
0.731147
0.760889
0.815879
0.742501
0.776361
0.810604
0.791418
0.570683
0.510443
0.524251
0.83969
0.895489
0.129477
0.0702736
0.0260831
0.123966
0.18044
0.154991
1.03987
0.950205
1.02117
0.537957
0.538667
-0.000422803
-0.011572
0.542867
0.542916
-0.0083383
0.00326938
0.423633
-0.829048
0.111915
0.531408
0.521451
0.538499
-0.0814606
0.365378
-0.0330485
0.0613327
0.00582087
0.535394
0.469177
0.428877
0.00655809
-0.0113458
-0.03715
-0.20992
0.535629
0.533935
0.537967
0.538926
0.539596
-0.0115988
-0.00777148
-0.00573452
-0.0352958
-0.0311068
-0.0415099
0.502683
0.521142
-0.163624
0.538106
0.540233
0.540055
0.533285
0.538927
0.53717
-0.00240904
-0.00967936
-0.0111051
0.228569
0.357098
0.665472
0.754255
0.636597
0.410878
0.174449
0.567259
0.631365
0.536169
0.69086
0.678629
0.693582
0.177181
0.0272593
0.186217
0.127792
0.529267
0.527957
0.51971
0.51672
0.533362
0.531466
0.536032
0.533032
0.535982
0.537374
-0.0392517
-0.0627941
-0.076824
-0.143591
0.320338
0.581995
0.2624
0.293014
0.15353
-0.0260771
-0.026379
-0.0319807
-0.0386168
0.0156151
-0.00897232
0.0564831
0.0572321
0.0297774
0.00276657
0.00762529
-0.00360524
-0.000265155
0.528454
0.526849
0.533261
0.542488
0.478707
0.482464
0.447786
0.46825
0.453661
0.393194
0.428154
0.403415
0.000967858
0.011052
0.00283066
-0.00726931
-0.00320146
-0.0215354
-0.0196659
-0.0155458
-0.012142
-0.0191401
-0.0313896
-0.0293901
-0.168646
-0.284033
0.992652
0.919124
0.135418
0.524801
0.531236
0.528012
0.532881
0.536006
0.536827
0.534554
0.531109
0.521546
0.523137
0.519863
0.520637
-0.0956535
-0.236095
-0.0648103
-0.136729
0.147466
0.629944
0.369014
0.305966
0.300875
0.527802
0.930296
0.717467
0.694036
0.708432
-0.337192
0.0556056
-0.272007
0.346274
0.170284
0.663407
0.713213
0.735541
0.682955
0.635631
-0.101674
0.559568
-0.061398
-0.0115127
0.188302
0.0688626
0.691872
0.663059
0.66646
0.683455
0.700416
0.669141
0.652718
0.647345
0.679772
0.683271
0.497233
0.259832
0.211986
0.173268
0.647986
0.533442
0.587334
0.502848
0.524384
0.527043
0.525662
0.507471
0.51499
0.510566
0.516902
0.520312
0.529076
0.529504
0.524831
0.526981
-0.0435876
-0.0467945
-0.0212263
-0.13097
-0.121879
-0.183464
-0.0569369
0.0811211
0.0430915
0.240467
0.346184
0.0579009
-0.0538522
-0.026143
0.0130018
0.184462
0.21039
0.0845544
0.173218
0.161499
0.144937
0.246562
0.251318
-0.0127045
-0.0169557
-0.0201082
-0.0218642
0.0324687
0.102281
0.112138
0.0104233
0.0046074
-0.02515
-0.024645
-0.0106486
-0.0148586
-0.0112004
0.0229232
-0.0401175
-0.00806229
0.00754716
0.0131972
0.0100417
0.00499865
0.52077
0.523077
0.522707
0.530013
0.548418
0.564556
0.520938
0.50069
0.491575
0.494566
0.467786
0.477992
0.473669
0.487322
0.508373
0.517682
0.515054
0.517806
0.500518
0.502187
0.488747
0.492443
0.467575
0.448781
0.436984
-0.0308663
0.0069541
-3.49821e-05
-0.0285513
0.000459407
-0.0121393
0.00300737
0.0221431
0.00612318
0.00294605
-0.00717921
-0.01394
-0.0130006
-0.0702344
0.0149116
-0.178435
-0.216222
-0.286024
0.894227
1.01792
0.81626
0.589617
0.607156
0.850014
0.935525
0.551814
0.741381
0.765395
0.588918
0.854398
0.52962
0.529227
0.52683
0.526306
0.527526
-0.00308462
0.100576
0.102161
0.162819
0.279443
0.392189
0.319148
0.193911
0.325132
0.328299
0.62234
0.635043
0.590595
0.61446
0.614902
0.431748
0.507567
0.559916
0.516964
0.568813
0.589693
0.545591
0.577808
0.528054
0.482665
0.478825
0.429387
0.449155
0.425802
0.408444
0.519699
0.49696
0.507522
0.497813
0.517301
0.541638
0.538255
0.570446
0.581415
0.501346
0.457569
0.466836
0.497231
0.458018
0.472965
0.489145
0.234007
0.135075
0.217873
-0.0705157
0.00462802
-0.00944615
-0.0572123
-0.00820299
0.27695
-0.417223
-0.392949
-1.02279
0.503635
0.962145
0.639965
0.613098
0.6973
0.679217
0.684166
0.701232
0.705414
0.638235
0.654358
0.656429
0.619207
0.642579
0.66261
0.659768
0.529503
0.393943
0.390348
0.341487
0.211782
0.24995
0.450136
0.37258
0.297459
0.298543
0.46518
0.352454
0.421454
0.45736
0.388493
0.342369
0.54617
0.611306
0.603139
0.577367
0.493506
0.507153
0.531249
0.566425
0.592355
0.623521
0.516446
0.52231
0.523554
0.521048
0.518304
0.521306
0.521503
0.524038
0.524747
0.527714
0.526741
-0.0336257
-0.0215094
-0.0345569
-0.0426626
-0.0109796
-0.0148556
0.0286591
0.015056
-0.000468492
0.00561018
-0.0207207
-0.0249965
-0.0200862
-0.0109151
0.106994
0.119617
0.103287
0.0637579
0.253831
0.384379
0.457458
0.333476
0.226328
0.249948
0.270998
-0.00121483
0.0266876
0.0137467
0.0522274
0.0433928
-0.0187869
-0.0233021
-0.0208821
-0.0138335
-0.00477562
-0.0213228
-0.023549
-0.015418
-0.0194856
-0.0196006
-0.0229994
0.502916
0.496449
0.498133
0.492022
0.490748
0.504945
0.509159
0.511123
0.516542
0.518777
0.508985
0.514655
0.5184
0.00395264
-0.0202914
-0.0237253
-0.0112494
-0.0155677
-0.0146296
-0.0167039
0.124651
0.0530729
0.0576174
0.011607
-0.118264
-0.0607565
0.492719
0.492662
0.485086
0.72221
0.571817
0.492349
0.589714
0.694889
0.276148
0.474589
0.308369
0.890668
0.785734
0.932166
0.544482
0.246135
0.405984
0.45362
0.263987
0.337036
0.33141
0.219005
0.250646
0.286091
0.38711
0.267519
0.243487
0.00101402
0.190382
0.304052
0.285643
0.412087
0.474065
0.26625
0.187585
0.141605
0.609121
0.627979
0.643355
0.615988
0.636738
0.580111
0.568907
0.587226
0.59697
0.591811
-0.750404
-0.456989
-1.40282
-0.721301
-0.268264
0.534436
0.501667
0.770732
0.652773
0.702279
0.687082
0.645319
0.613139
0.632681
0.659302
0.354622
0.465947
0.441013
0.446093
0.347485
0.278854
0.578853
0.57345
0.607902
0.631489
0.601236
0.632176
0.51425
0.513933
0.513476
0.509764
0.508022
0.510331
0.0674655
0.0365851
0.0718937
0.0525099
0.0297773
0.0183198
0.00780467
-0.00191515
-0.00841948
-0.00944203
0.00441624
0.00794719
0.170918
0.110257
0.0305248
0.060277
0.000479656
-0.0681674
-0.0857774
0.0159916
0.110969
0.101627
0.406624
0.657725
0.477658
0.644987
0.486425
0.542248
0.474248
0.466041
0.492454
0.382614
0.462335
0.24222
-0.264917
-0.173473
0.790739
0.804855
0.586449
0.406588
0.174976
0.357475
0.550419
0.483161
0.520132
0.589212
0.578245
0.0233339
0.0850595
0.360544
0.587895
0.240503
0.231467
0.225642
0.405496
0.326179
)
;

boundaryField
{
    wall-4
    {
        type            zeroGradient;
    }
    velocity-inlet-5
    {
        type            zeroGradient;
    }
    velocity-inlet-6
    {
        type            zeroGradient;
    }
    pressure-outlet-7
    {
        type            fixedValue;
        value           uniform 0;
    }
    wall-8
    {
        type            zeroGradient;
    }
    frontAndBackPlanes
    {
        type            empty;
    }
}


// ************************************************************************* //
