/*--------------------------------*- C++ -*----------------------------------*\
| =========                 |                                                 |
| \\      /  F ield         | OpenFOAM: The Open Source CFD Toolbox           |
|  \\    /   O peration     | Version:  4.0                                   |
|   \\  /    A nd           | Web:      www.OpenFOAM.org                      |
|    \\/     M anipulation  |                                                 |
\*---------------------------------------------------------------------------*/
FoamFile
{
    version     2.0;
    format      ascii;
    class       surfaceScalarField;
    location    "51";
    object      phi;
}
// * * * * * * * * * * * * * * * * * * * * * * * * * * * * * * * * * * * * * //

dimensions      [0 3 -1 0 0 0 0];

internalField   nonuniform List<scalar> 
1300
(
3.75095
5.62643
-3.28358
3.75095
-7.7781
5.62643
-4.34231
4.34231
-0.637767
0.637767
1.8764
1.87456
-2.80322
2.80322
-2.27609
2.27609
-2.54223
2.54223
-5.24649
5.24649
-5.06918
5.06918
4.65977
-4.65977
-6.30137
6.30137
-1.01121
1.01121
-3.70543
3.70543
3.16968
-3.16968
-2.16413
2.16413
-0.0997825
0.0997825
-0.553493
4.30445
3.19746
3.19746
-2.00165
2.00165
-4.86753
4.86753
6.21812
-6.21812
5.28036
-5.28036
-1.99678
-2.4231
1.82568
-11.5638
-5.95242
-5.95242
-8.44038
8.44038
-2.81395
2.81248
2.94523
-2.94523
-1.78078
1.78078
-4.29844
-0.0438705
-4.29844
4.3196
0.0227111
4.3196
-0.710837
0.0730704
-0.710837
3.94368
-3.94368
0.530447
0.10732
0.530447
3.06515
-3.06515
-1.8771
3.7535
1.87385
-1.87188
6.17633
-1.87907
3.75363
-6.00206
6.00206
-3.02226
0.219042
-3.02226
2.61899
0.184229
2.61899
-6.82151
6.82151
-2.31047
0.0343834
-2.31047
2.2444
0.0316901
2.2444
2.87644
-2.87644
-2.64988
0.107647
-2.64988
2.42556
0.116675
2.42556
0.35352
5.27291
-5.97995
8.79243
-5.27291
0.0264196
5.20838
0.0381131
5.20838
-5.10605
0.0368743
-5.10605
5.01177
0.0574023
5.01177
4.74788
-0.0881024
4.74788
-4.7765
0.11673
-4.7765
-3.3886
-4.03179
-6.4459
0.144524
-6.4459
-1.0758
0.0645889
-1.0758
0.930664
0.0805419
0.930664
-3.6664
3.6664
-4.0973
0.391869
-4.0973
3.12409
0.0455916
3.12409
1.8685
1.88245
5.61945
-5.61945
2.44977
-2.15998
-0.00415116
-2.15998
-2.20211
-3.07825
2.20211
-0.0379759
-0.329268
0.229486
-0.329268
3.15937
0.038088
3.15937
2.26172
0.163833
-2.26172
0.260071
3.25858
-3.25858
1.34034
0.661315
1.34034
-5.56424
5.56424
4.95554
0.0562383
-4.95554
0.0880035
6.15686
0.06126
6.15686
-6.19955
-0.0185746
-6.19955
2.557
-4.98009
-2.58176
6.12583
0.175547
-6.12583
0.173404
2.91652
0.028713
2.91652
-2.92007
2.92007
-2.98408
0.038853
-2.98408
-2.17985
0.399065
-2.17985
1.48181
0.298976
1.48181
-4.19856
-0.0998796
-4.19856
-4.22081
0.123511
4.22081
0.0987864
1.12082
-1.12082
-0.805968
0.0951307
-0.805968
-4.06501
-0.133549
4.06501
-0.121327
-3.8362
-0.107482
-3.8362
-3.02414
0.0400599
3.02414
0.0410115
3.11277
0.0466002
-3.11277
0.0476177
-1.87083
3.75328
-1.88013
3.75398
-5.62185
-0.380215
-5.62185
6.31044
-0.308382
6.31044
3.38108
0.324349
-3.38108
0.358818
2.47674
0.142249
2.47674
-6.78572
-0.0357913
-6.78572
6.80547
0.016037
6.80547
2.37463
0.102115
-2.37463
0.0641582
2.21189
0.0325078
2.21189
2.89478
-0.0183414
2.89478
-2.8719
-0.00454343
-2.8719
2.79726
-2.79726
2.72765
0.0696037
-2.72765
0.0777771
-11.1331
11.1145
-0.0352926
-11.0978
5.17308
5.17308
4.17705
0.570824
4.17705
-4.99319
0.216684
-4.99319
2.70371
-5.28547
3.0451
-6.4337
4.66345
-16.2272
4.32227
-8.35406
6.67644
-6.67644
6.56952
0.106923
-6.56952
0.12362
-1.17618
0.100387
-1.17618
-3.06128
-0.605115
-3.06128
4.31252
-0.646128
4.31252
-3.02847
3.02847
-3.07766
0.0491903
3.07766
0.0464259
2.19123
0.020661
-2.19123
0.0312448
0.429734
0.100712
-0.429734
0.100466
3.46377
-0.205192
3.46377
-3.06551
-0.193072
-3.06551
-1.26351
0.0873282
1.26351
0.076826
-5.81452
0.250282
-5.81452
-11.1907
0.0929276
-11.1526
-6.10662
-6.10662
2.33376
11.1262
-2.89102
0.0191224
2.89102
0.025495
2.97544
0.0530304
-2.97544
0.0553669
-2.86131
0.0640565
2.86131
0.058758
-2.5551
0.375251
-2.5551
-1.07629
1.07629
-1.2457
0.16941
1.2457
0.23611
1.38647
-0.265646
1.38647
0.868384
0.0622808
-0.868384
0.0624158
-3.74299
-0.0932094
-3.74299
6.54148
-0.231038
6.54148
-2.95434
-0.111171
2.95434
-0.0595552
-0.0333006
11.1478
-5.13978
0.033734
5.13978
-11.2091
11.2428
-3.22655
0.671447
3.22655
0.950506
5.28522
0.27902
-5.28522
0.29203
6.75762
0.0478462
-6.75762
0.0811844
-2.56916
-0.492123
-2.56916
-5.0395
-0.582346
5.0395
-0.726978
-11.4751
-0.204338
11.6794
-11.4177
6.01886
0.138004
-6.01886
11.3808
-1.02807
-0.0927575
1.02807
0.0482209
1.71085
-0.324379
1.71085
3.65038
-0.186604
-3.65038
-0.0926133
-6.69225
-0.0934651
6.69225
-0.150768
-2.12597
-0.443188
2.12597
-0.41512
-4.26707
4.30515
1.90926
-2.42535
-2.55475
-5.5036
1.8519
1.90138
4.30167
-10.1735
-6.05378
-10.0001
7.2628
-6.97077
-9.25403
9.16593
7.8137
-7.92118
-5.78509
5.83151
6.48256
-6.44154
1.87874
1.87476
7.94655
-7.72751
-15.6445
15.2642
7.49178
-7.4574
15.7792
-15.815
-17.8552
17.9031
-5.70045
5.80809
-6.73408
6.72954
-6.96393
6.90438
-2.86455
-3.56915
13.1312
-12.9867
8.54206
-8.54621
-8.56762
8.95949
3.38253
0.922621
3.42913
-1.88222
3.76096
-1.87141
3.78067
2.6816
-5.54615
2.60387
-5.15861
4.31069
4.23136
-4.27272
-1.23088
-5.92282
5.95154
-5.81701
5.87576
9.05969
-9.10356
-1.88513
3.75989
-1.86885
3.77023
-3.42505
-2.36004
3.37946
0.922214
8.09316
5.03803
-8.26871
-1.73136
-7.99674
7.81013
-8.20786
8.01479
-0.436163
5.81837
-5.3822
4.43137
-1.56028
7.37864
5.70252
5.91921
5.86578
-5.58676
1.10498
-6.48719
-6.39919
-2.38231
2.47744
2.28899
-2.18167
6.08229
1.73141
5.96097
-5.71556
-2.20562
-5.80877
3.82087
2.01064
3.87006
4.07778
2.40477
4.11784
3.03063
-3.03581
0.00517737
-3.05649
6.08712
0.724076
-5.41652
-4.49431
4.95934
2.98722
5.14356
-5.5067
-2.22081
-5.14788
-9.55833
-6.08613
-10.1407
10.1016
5.16264
9.79321
-11.9726
11.8219
4.78814
2.70365
4.81983
-4.91794
-2.53946
-4.85378
11.6278
-2.60337
-9.02443
-10.3235
-7.5317
10.3075
5.47166
10.9674
6.93565
11.0486
4.41955
7.20825
-9.89121
2.35951
-3.86204
-1.8384
-3.78427
3.67005
2.13804
3.78672
-4.21553
-2.51855
-4.19641
-4.29211
-2.67182
4.31045
2.41909
-4.41014
-3.79772
4.52131
2.38306
4.02111
-10.0749
4.33295
-7.90211
-9.20285
-3.78382
-9.07923
3.47563
2.62256
-6.09819
-2.07052
8.46001
-4.22865
7.22913
-5.17933
-3.36688
-5.14809
-6.8219
-1.74572
-6.69839
-8.89773
8.4056
-9.19511
8.54898
12.5863
-5.68005
-6.90629
-3.96831
-2.47323
3.9207
-0.491563
-3.7107
3.71588
0.0502557
3.83092
4.75354
4.26198
-3.88552
-1.93149
-3.83015
3.82789
2.04788
3.89194
6.78759
2.27211
6.8103
-6.55445
-2.54911
-6.65433
9.0579
-8.65883
2.87368
-2.78635
5.37187
2.64292
-5.16668
-2.83006
6.2094
-3.20929
-3.00011
-12.1997
10.5389
1.66085
-4.82111
-0.389736
-0.289954
-5.49241
-3.76162
5.37568
0.54353
11.0824
7.3208
-5.51159
5.76187
6.16784
6.22408
-0.175106
5.8204
-5.14895
5.28329
-2.5374
-2.74589
5.42342
-5.55697
-1.23091
-5.46926
4.23835
0.403996
1.60069
-1.37121
-1.85341
-0.5289
-1.79099
1.36777
0.921218
1.46848
0.925588
1.55185
-2.93775
0.556745
2.38101
-2.01216
-1.62492
-3.74096
-1.12031
4.86127
5.69619
2.11394
-5.60358
-0.205193
2.60298
-2.52244
-0.745511
-2.99545
2.21311
-2.95862
-3.66298
-1.99891
5.66189
-3.37019
-0.459958
3.31716
0.552898
-3.82657
-2.09625
3.78772
0.330121
-3.12671
6.19053
-3.06382
-5.0582
2.52805
3.55907
4.53869
-4.78961
2.44707
2.34254
-1.23054
4.2386
0.904967
4.38085
-6.85115
4.63034
5.77414
3.18536
-6.09849
0.950608
-5.90054
8.51328
-7.3313
-1.18198
4.1245
4.38879
7.10476
5.48158
-5.69566
12.8004
-1.17238
-6.15892
7.07292
-3.88756
4.81735
-8.70492
-10.2989
4.14001
-9.17608
10.9446
-1.76852
-3.62365
-8.34897
12.7997
-1.21321
-11.5865
8.58001
-4.21836
-4.29864
8.517
-6.82173
6.8381
-1.98014
-4.85796
-10.1144
-5.70059
10.2078
1.61402
-9.86426
12.2238
-2.65601
4.10348
0.716349
4.13598
3.27052
-5.43692
2.1664
3.55121
-5.53136
2.08174
-7.51866
-6.71701
12.0478
-5.33074
-10.5008
-9.51036
-0.990477
2.53478
9.68899
-9.47043
7.43404
2.03639
3.3048
0.587145
-3.3744
-0.409863
0.233977
4.53714
-4.77112
4.0207
4.18453
3.3117
1.22544
3.84358
2.10796
-3.86907
-0.327332
-4.15971
1.48789
-1.74062
-3.68707
5.17495
-4.06554
0.378476
-2.74342
-3.50173
6.24516
-4.58183
3.03724
3.15329
5.08511
-4.91177
1.41003
-2.39492
-2.51684
2.65551
-4.39613
1.98458
3.19037
4.36764
0.569922
5.84806
6.19969
-8.47062
0.568518
11.2377
-9.50637
2.4615
8.58713
-9.89553
0.385177
-8.69405
1.00361
-5.23226
-5.09458
5.14694
-6.89266
-3.55797
6.17264
0.637654
-6.27143
-0.426965
-6.04657
-2.85116
-6.48976
-3.05066
-6.14445
-8.74632
-1.65604
-7.09028
6.74956
-6.69345
-3.44722
7.42043
1.12855
-7.4196
7.32685
-7.4999
7.17552
0.0951439
3.62074
4.35712
1.88389
-2.3902
4.27409
-5.10977
7.38187
-8.69577
3.58601
4.17007
-6.71918
-4.5257
5.03298
4.02492
5.33195
8.91365
-10.3926
1.47899
-10.6963
12.033
-1.33671
-16.4693
5.77294
-7.55561
2.50934
0.364344
2.60973
0.570615
2.4988
-3.06942
-2.21574
-2.13891
-2.41171
-3.46199
5.8737
1.12451
-3.4971
2.3726
-3.56413
4.68863
-0.165023
-3.33208
5.29147
-2.79267
5.65582
-3.72915
1.92667
3.41673
5.74379
-2.32706
4.389
-1.74608
1.90305
-4.23011
-1.55894
-2.96293
5.10097
-3.28223
3.6607
-0.329856
3.99056
-4.08112
0.871836
-0.769426
3.41511
3.67518
4.30064
-3.0752
2.92958
-4.67566
-1.30052
-4.10574
-0.915365
-0.274244
-3.74542
4.01966
6.01227
-6.28651
-5.24272
9.54496
-4.30224
7.70591
-5.38974
-2.31616
-4.2628
-4.39603
3.88755
1.93285
9.63875
0.211038
-5.60078
-4.93791
-3.9874
3.1431
2.14019
-1.83219
3.49304
2.12214
-0.521446
0.478356
0.990126
1.80181
-1.32346
0.280617
1.5212
-1.09059
1.8437
0.759286
-1.90598
0.114984
-1.30807
3.52118
1.07294
-1.99415
0.670697
0.991019
-3.52842
4.98741
-2.64156
-2.34585
5.97843
1.13591
-3.77747
4.33335
-3.92935
2.36047
-3.48078
-1.41701
-5.34636
-3.61495
-2.53657
4.90917
-3.33713
5.45106
1.24619
-5.24587
6.49206
-3.68626
1.68735
-3.08091
3.8402
-1.00237
-2.07854
2.87199
2.78991
-3.01484
0.0193834
-0.142848
2.38152
-2.52437
-0.577099
-2.58926
-4.5728
4.90292
-2.10607
4.55314
2.16802
-1.91598
6.46912
1.80985
-3.72582
-3.24835
-3.70831
-1.38328
3.15541
-0.593752
-4.26003
-5.45171
4.15791
0.222932
-6.96021
7.77342
-0.813214
-3.973
-0.657345
4.78184
-6.01486
0.483501
-3.93311
3.84031
4.74528
4.96821
-11.3806
-0.205874
-6.21801
1.13564
-7.35365
5.52443
-3.56522
7.70522
-10.3638
6.91654
-9.23521
6.52324
-0.830413
6.24573
-4.07933
2.7787
-8.47929
-6.86527
5.45459
-2.75094
6.17094
-3.11005
9.28099
-5.76606
5.2394
4.04158
-0.9931
-4.15499
-5.24106
4.24796
-0.00165906
4.13432
4.97793
-2.86997
4.6506
2.26408
-4.65901
-2.13205
-6.49528
1.83628
-3.342
-1.91877
3.75504
3.16635
3.75349
1.2382
-3.34363
7.15991
-8.15039
-1.82917
-3.2654
5.22864
-0.980679
3.37049
-6.6359
-1.86177
4.83786
-0.790185
-4.04767
0.842196
-4.40017
1.68188
-6.08204
5.21079
-5.63775
2.22077
-9.77638
-5.19883
-5.15061
-2.25886
-5.24105
-7.5931
5.33424
-1.82015
5.50669
-8.54277
7.75258
-3.49026
8.8245
-5.43892
-1.05084
5.85404
1.32148
10.146
0.204572
-4.73028
-1.91043
3.90706
-1.99663
1.23267
-3.54084
0.366214
2.475
3.50344
-6.71334
-0.00583484
-4.73611
-3.92323
7.94815
5.62174
11.634
1.24137
9.13277
-1.18462
10.3741
4.14733
4.38344
-3.02738
4.50636
0.992283
4.57829
-0.901293
2.82796
1.70843
1.77302
0.749421
2.30753
1.36765
3.17937
0.109947
-2.02897
4.62701
-8.61441
-0.973771
-8.04359
1.12234
5.71569
-4.59335
3.02874
-0.888556
1.03211
-0.0192504
-1.41349
1.43274
-2.76514
-1.93494
-0.413739
-1.66229
2.33299
1.85889
-1.91925
-0.845886
0.35695
-3.9719
3.12383
-3.10444
-0.314539
6.17752
-2.80087
0.276498
-1.11352
-2.31277
-2.84167
2.72668
6.17636
0.292758
3.11255
5.19567
3.09942
0.22945
3.90595
-5.67448
-3.61271
-5.88035
-0.35592
4.42592
1.74291
7.94608
5.78449
4.80381
-1.83208
-9.98247
6.56737
-2.06101
5.23066
-1.18299
-4.89906
5.02549
2.35639
-5.66314
0.0253859
-4.87367
-6.93468
-0.517194
8.26978
-9.62879
8.57795
5.72679
1.36349
-4.414
-0.736612
4.24459
0.138856
10.513
-1.12673
-6.76468
7.89141
-4.58895
3.61518
0.785037
2.70801
2.21778
1.32922
-5.43545
-10.0288
-2.00066
-1.52776
-4.34651
0.514761
-2.37365
6.23591
-2.62073
3.91974
5.27068
6.3028
-2.14127
-4.14524
6.44351
-2.52377
3.77903
)
;

boundaryField
{
    wall-4
    {
        type            calculated;
        value           uniform 0;
    }
    velocity-inlet-5
    {
        type            calculated;
        value           uniform -3.75095;
    }
    velocity-inlet-6
    {
        type            calculated;
        value           uniform -5.62643;
    }
    pressure-outlet-7
    {
        type            calculated;
        value           nonuniform List<scalar> 8(3.28358 7.7781 4.41988 9.73812 7.42039 5.13875 5.74881 8.98572);
    }
    wall-8
    {
        type            calculated;
        value           uniform 0;
    }
    frontAndBackPlanes
    {
        type            empty;
        value           nonuniform 0();
    }
}


// ************************************************************************* //
