/*--------------------------------*- C++ -*----------------------------------*\
| =========                 |                                                 |
| \\      /  F ield         | OpenFOAM: The Open Source CFD Toolbox           |
|  \\    /   O peration     | Version:  4.0                                   |
|   \\  /    A nd           | Web:      www.OpenFOAM.org                      |
|    \\/     M anipulation  |                                                 |
\*---------------------------------------------------------------------------*/
FoamFile
{
    version     2.0;
    format      ascii;
    class       volScalarField;
    location    "33";
    object      p;
}
// * * * * * * * * * * * * * * * * * * * * * * * * * * * * * * * * * * * * * //

dimensions      [0 2 -2 0 0 0 0];

internalField   nonuniform List<scalar> 
918
(
0.561017
1.21152
0.0023279
0.560312
-0.0145765
1.17858
-0.495
0.730848
0.541137
-0.085362
-0.0199143
0.535371
1.03904
0.80544
-1.12531
0.0988963
0.681771
-0.374877
0.540135
-0.093391
0.763722
0.547744
0.55078
0.541371
0.601827
0.787306
0.919747
-0.0578319
-0.0143846
-0.0330132
-0.00930477
-0.0114402
0.0173457
1.06223
1.11331
1.13598
0.509573
0.335151
-0.355377
-0.427134
-0.419112
-0.534608
0.722296
0.724268
-0.16481
0.731632
0.741296
0.528395
0.5405
0.541391
0.5425
0.541443
0.542845
0.41756
-0.0930172
-0.123795
-0.0642767
-0.0555452
0.0919722
-0.0228075
-0.0276975
-0.0167362
-0.02148
0.461236
0.531529
0.528634
0.540141
0.547938
1.15107
1.123
1.14914
1.06274
1.07929
1.01703
0.989623
0.825986
0.847375
0.790257
0.779403
-1.56328
-2.52642
-0.529062
-0.274533
-0.0414294
0.0902702
0.0897583
0.672707
0.672443
0.682801
0.69524
1.08311
-0.369727
-0.492084
0.540277
0.539069
0.547456
0.548149
0.544159
0.543254
-0.0886406
-0.075933
-0.10062
-0.0969997
-0.0955159
0.752776
0.751637
0.541915
0.538936
0.555297
0.575449
0.567485
0.294991
0.606427
0.620566
0.607909
0.776746
0.770969
0.7798
0.893249
0.856352
0.957102
0.980321
-0.052665
-0.0553688
0.113765
0.0738904
0.0898502
0.505536
0.498303
0.524233
0.512919
0.515322
0.250468
0.115071
0.421355
0.446819
-0.266888
-0.329836
-0.428588
-0.448456
-0.551076
0.60686
0.710905
0.711641
-0.184435
-0.105391
-0.242026
-0.0321421
-0.0932956
0.518828
0.525719
0.520795
0.536133
0.530654
0.53259
0.544723
0.541805
0.543365
0.481603
0.606192
0.344901
0.312325
-0.236037
-0.141977
-0.238431
-0.0435959
-0.0375748
0.0983437
0.117296
0.0813315
0.073401
-0.0351974
-0.028288
-0.0335915
-0.0251624
-0.0307617
0.45424
0.443745
0.473312
0.480308
0.52217
0.523222
0.526219
0.524905
0.940456
0.962744
0.970289
0.944154
-3.52823
-6.33271
0.0550792
0.194331
-0.108995
-0.10483
-0.0570054
-0.0248507
-0.0412218
-0.0129913
0.0567257
0.0509594
0.0609586
0.0663437
0.657233
0.656856
0.999969
0.997193
0.984078
0.933795
0.528329
0.530452
0.536018
0.531859
-0.0427799
-0.0681714
-0.0516342
0.739947
0.747143
0.746755
0.258643
0.174153
0.343401
0.370686
0.643004
0.625766
0.640058
0.66893
0.705392
0.987733
1.00597
1.00425
1.0127
1.05681
1.07328
1.0385
0.485778
0.495331
0.490557
0.527487
0.525146
0.526111
0.521461
0.523055
0.520786
-0.0373003
-0.421328
0.504641
0.520746
0.495975
0.504816
0.683669
0.755764
0.694467
0.703518
0.703526
0.0337677
-0.0233919
0.268804
0.234848
0.397138
0.431577
0.411693
0.911471
0.872179
0.922123
0.89554
0.856988
0.882557
-0.373113
-1.88785
-0.998391
0.549865
0.360585
0.44914
0.058028
0.050111
0.0550183
0.990059
1.06962
0.661938
0.826229
0.836009
0.744677
0.775505
0.829269
0.754927
0.789508
0.824676
0.806717
0.563909
0.517642
0.522607
0.823645
0.878696
0.147959
0.0939847
0.0499169
0.138468
0.19136
0.169633
1.0359
0.93547
1.00718
0.538682
0.539369
-0.103767
-0.109875
0.543485
0.543516
-0.0257896
0.0285749
0.431761
-0.83489
0.137117
0.531944
0.522269
0.539146
-0.0700382
0.376158
-0.0289587
0.0835684
0.050977
0.53267
0.471106
0.432665
-0.166662
0.0774731
-0.0816785
-0.198521
0.536355
0.534668
0.53861
0.53961
0.540266
-0.195173
-0.146219
-0.165886
-0.124852
-0.120508
-0.112037
0.50398
0.520964
-0.151423
0.538724
0.540868
0.540675
0.533829
0.539498
0.537729
0.0331658
0.0336874
0.0762214
0.244281
0.362998
0.67943
0.775206
0.644402
0.41759
0.178764
0.578844
0.644823
0.546754
0.705764
0.70428
0.72317
0.199832
0.0521478
0.207893
0.150884
0.529812
0.528468
0.520507
0.517624
0.534016
0.532112
0.536651
0.533599
0.536577
0.538011
-0.0285868
-0.0483219
-0.0681444
-0.126839
0.33333
0.592783
0.270029
0.301261
0.172971
-0.0155771
-0.0208631
-0.0285051
-0.0350712
0.0260127
0.0305529
0.0781149
0.0861288
0.0687053
0.0452543
0.0241009
0.0199211
0.0117628
0.52662
0.525377
0.531251
0.539552
0.480221
0.484083
0.450631
0.470346
0.456371
0.397375
0.431957
0.407211
-0.0490555
-0.120653
-0.0659819
0.0556242
0.0488051
-0.10716
-0.164037
-0.14293
-0.146332
-0.160099
-0.0641059
-0.0665592
-0.159405
-0.273578
0.987138
0.927713
0.125626
0.525581
0.531974
0.528784
0.53357
0.536651
0.537514
0.535269
0.531834
0.521586
0.523364
0.519693
0.52029
-0.0911451
-0.228272
-0.0531005
-0.120244
0.144311
0.636046
0.376355
0.317056
0.310736
0.531883
0.928408
0.724472
0.721367
0.744373
-0.339278
0.0571824
-0.272393
0.346029
0.168233
0.677019
0.727997
0.751303
0.69771
0.648898
-0.107736
0.551751
-0.0406079
0.00431586
0.196427
0.089002
0.722488
0.687733
0.69315
0.710457
0.729264
0.693361
0.672957
0.667614
0.70678
0.711714
0.507277
0.277253
0.232661
0.194192
0.671527
0.548295
0.606151
0.519142
0.524731
0.527541
0.526115
0.508643
0.515929
0.511656
0.517453
0.52061
0.529734
0.530076
0.525501
0.527669
-0.0325385
-0.0355616
-0.0139963
-0.123515
-0.111072
-0.170025
-0.0531429
0.0819032
0.0467393
0.238548
0.345156
0.05792
-0.0557156
-0.0252508
0.00331161
0.182885
0.208111
0.0904442
0.187727
0.166829
0.153972
0.255509
0.264307
-0.000724932
-0.00720079
-0.014449
-0.0135806
0.0510165
0.124453
0.135002
0.0246778
0.0224696
-0.011298
-0.0167476
-0.00240664
-0.00633146
-0.00258409
0.035795
-0.0539933
0.0220604
0.0241986
0.0286175
0.035915
0.028546
0.520276
0.522154
0.521946
0.528919
0.545555
0.560472
0.521621
0.502019
0.493056
0.496049
0.469986
0.479879
0.476392
0.488708
0.509013
0.51733
0.515632
0.518082
0.501441
0.502923
0.49052
0.493938
0.470664
0.452218
0.440663
-0.081776
-0.0943554
-0.0867794
-0.065338
-0.0622224
-0.0437742
0.0479451
0.0521875
0.044348
0.043609
0.0387749
-0.0877589
-0.0785403
-0.0696814
0.00815711
-0.178051
-0.211278
-0.283257
0.892451
1.00993
0.818351
0.595733
0.605014
0.843273
0.930398
0.558634
0.739678
0.764953
0.579104
0.839399
0.530388
0.529945
0.527548
0.527042
0.528269
-0.00326658
0.0967877
0.107161
0.161139
0.276673
0.390371
0.3129
0.18518
0.318938
0.324724
0.630993
0.646909
0.59386
0.617493
0.614906
0.44323
0.520785
0.576498
0.528892
0.574921
0.597188
0.557763
0.588159
0.53403
0.490904
0.489572
0.436298
0.456958
0.435291
0.417459
0.519938
0.497797
0.508315
0.49884
0.518571
0.544611
0.539672
0.566718
0.577945
0.503813
0.463892
0.473581
0.502039
0.462436
0.475362
0.490975
0.228099
0.12843
0.21185
-0.0807681
5.39398e-05
-0.0152913
-0.0622801
-0.0163739
0.26988
-0.429115
-0.402211
-1.03528
0.492023
0.95964
0.676343
0.647743
0.724935
0.703518
0.706114
0.728868
0.736129
0.661171
0.679015
0.683088
0.638412
0.662358
0.684146
0.682453
0.525643
0.400373
0.39127
0.352123
0.227823
0.261043
0.46357
0.385791
0.312789
0.316847
0.479042
0.368348
0.434521
0.472834
0.404545
0.35968
0.56277
0.629603
0.619852
0.595451
0.510758
0.523671
0.548995
0.585009
0.612179
0.643891
0.517206
0.523004
0.524275
0.521796
0.518937
0.521856
0.521935
0.524472
0.525319
0.528227
0.527225
-0.0284584
-0.0166943
-0.0236441
-0.0315133
-0.00336482
-0.01095
0.0320999
0.0199639
0.00945483
0.0169465
-0.0112389
-0.0166165
-0.00923322
-0.000155939
0.111323
0.125282
0.107215
0.0662924
0.251062
0.383292
0.451845
0.330287
0.224416
0.247441
0.272931
0.00720914
0.0402352
0.0241046
0.0665078
0.0517212
-0.00720731
-0.0140574
-0.01716
0.00162726
0.0100903
-0.0204621
-0.0421725
-0.0233515
-0.0243926
-0.0273487
-0.0434244
0.504131
0.497726
0.499029
0.493169
0.492006
0.505609
0.509834
0.511539
0.516788
0.51865
0.509336
0.514689
0.518175
0.0110905
-0.0556472
-0.0291357
-0.0183642
-0.0428723
-0.0566813
-0.0432652
0.119788
0.0454382
0.0511872
0.00943595
-0.115285
-0.058856
0.486473
0.485641
0.489158
0.712335
0.563936
0.484279
0.581177
0.686019
0.267656
0.467724
0.300074
0.881191
0.77346
0.918329
0.53752
0.240536
0.395129
0.44502
0.254319
0.327067
0.331499
0.221632
0.253404
0.284634
0.384403
0.264329
0.239076
-0.0030232
0.185039
0.301312
0.282194
0.410823
0.474455
0.258747
0.180314
0.134206
0.623176
0.642842
0.662215
0.631981
0.656709
0.579349
0.570831
0.588855
0.596653
0.590988
-0.763655
-0.47158
-1.41599
-0.731384
-0.282022
0.521425
0.485764
0.761362
0.650563
0.715409
0.700961
0.661896
0.627955
0.639369
0.671895
0.37271
0.482506
0.457108
0.462996
0.365639
0.298989
0.598104
0.591986
0.627598
0.651965
0.619584
0.652894
0.514879
0.514592
0.514149
0.510698
0.509207
0.51131
0.0720713
0.0436726
0.0747236
0.0549286
0.0341962
0.0236601
0.0247908
0.0105634
0.00170918
-0.00665159
0.0235539
0.0301892
0.162271
0.103807
0.0264851
0.0567137
-0.00105865
-0.0675737
-0.0862147
0.012667
0.104864
0.0959907
0.399408
0.650437
0.472468
0.641394
0.480171
0.535892
0.479593
0.469991
0.499662
0.380255
0.45866
0.221035
-0.281572
-0.190712
0.776899
0.795629
0.577993
0.391602
0.162383
0.351233
0.552678
0.489257
0.527956
0.59664
0.588728
0.00824692
0.0755931
0.335438
0.563785
0.232882
0.223787
0.218977
0.393313
0.31766
)
;

boundaryField
{
    wall-4
    {
        type            zeroGradient;
    }
    velocity-inlet-5
    {
        type            zeroGradient;
    }
    velocity-inlet-6
    {
        type            zeroGradient;
    }
    pressure-outlet-7
    {
        type            fixedValue;
        value           uniform 0;
    }
    wall-8
    {
        type            zeroGradient;
    }
    frontAndBackPlanes
    {
        type            empty;
    }
}


// ************************************************************************* //
