/*--------------------------------*- C++ -*----------------------------------*\
| =========                 |                                                 |
| \\      /  F ield         | OpenFOAM: The Open Source CFD Toolbox           |
|  \\    /   O peration     | Version:  4.0                                   |
|   \\  /    A nd           | Web:      www.OpenFOAM.org                      |
|    \\/     M anipulation  |                                                 |
\*---------------------------------------------------------------------------*/
FoamFile
{
    version     2.0;
    format      ascii;
    class       surfaceScalarField;
    location    "33";
    object      phi;
}
// * * * * * * * * * * * * * * * * * * * * * * * * * * * * * * * * * * * * * //

dimensions      [0 3 -1 0 0 0 0];

internalField   nonuniform List<scalar> 
1300
(
3.75095
5.62643
-3.52343
3.75095
-5.10144
5.62643
-4.44642
4.44642
-1.00857
1.00857
1.87644
1.87451
-2.97129
2.97129
-2.40987
2.40987
-2.56093
2.56093
-5.24646
5.24646
-5.06903
5.06903
4.6675
-4.6675
-5.71531
5.71531
-1.37138
1.37138
-3.82898
3.82898
3.16977
-3.16977
-2.2814
2.2814
-0.266467
0.266467
-0.553532
4.30449
3.19742
3.19742
-2.0589
2.0589
-4.86302
4.86302
6.21812
-6.21812
4.94999
-4.94999
-1.42656
-2.80217
0.781961
-10.1622
-4.31947
-4.31947
-8.44038
8.44038
-2.81395
2.81248
2.94341
-2.94341
-1.78084
1.78084
-4.38865
-0.0577721
-4.38865
4.43625
0.0101723
4.43625
-1.10529
0.0967272
-1.10529
3.93453
-3.93453
0.86544
0.143126
0.86544
3.06472
-3.06472
-1.87705
3.75349
1.8739
-1.87186
6.17635
-1.87909
3.7536
-5.94024
5.94024
-3.18331
0.212026
-3.18331
2.77604
0.195252
2.77604
-6.71912
6.71912
-2.40454
-0.00533055
-2.40454
2.40584
0.00403371
2.40584
2.86618
-2.86618
-2.65935
0.0984251
-2.65935
2.45253
0.108395
2.45253
0.353527
5.2729
-5.97996
8.79244
-5.2729
0.0264407
5.20838
0.0380831
5.20838
-5.10611
0.0370874
-5.10611
5.01137
0.0576568
5.01137
4.7583
-0.0907976
4.7583
-4.78285
0.115349
-4.78285
-3.30278
-5.44832
-6.08848
0.373168
-6.08848
-1.37341
0.00202908
-1.37341
1.32987
0.0415094
1.32987
-3.58906
3.58906
-4.21133
0.382349
-4.21133
3.1242
0.0455762
3.1242
1.86851
1.88244
5.61946
-5.61946
2.44969
-2.31057
0.0291659
-2.31057
-2.28898
-2.66101
2.28898
-0.00757914
-0.533224
0.266757
-0.533224
3.15926
0.0381618
3.15926
2.29631
0.156224
-2.29631
0.23741
3.20385
-3.20385
1.42555
0.633354
1.42555
-5.56612
5.56612
4.95388
0.0574863
-4.95388
0.0908633
6.15712
0.0609986
6.15712
-6.19959
-0.0185293
-6.19959
1.5984
-4.40057
-3.51769
5.09956
0.615753
-5.09956
0.780083
2.91388
0.0295327
2.91388
-2.9211
2.9211
-2.98299
0.0395821
-2.98299
-2.18251
0.401663
-2.18251
1.47985
0.300994
1.47985
-4.26119
-0.127458
-4.26119
-4.35442
0.143091
4.35442
0.0818326
1.0848
-1.0848
-1.21373
0.10844
-1.21373
-4.08903
-0.172165
4.08903
-0.154497
-3.80844
-0.126087
-3.80844
-3.02338
0.0403833
3.02338
0.041338
3.11256
0.0466994
-3.11256
0.0478447
-1.87084
3.75328
-1.88012
3.75402
-5.55734
-0.382902
-5.55734
6.24926
-0.30902
6.24926
3.52466
0.304317
-3.52466
0.341348
2.62483
0.151202
2.62483
-6.70072
-0.0183978
-6.70072
6.69016
0.0289552
6.69016
2.49532
0.12951
-2.49532
0.0907853
2.35439
0.0514475
2.35439
2.88105
-0.0148722
2.88105
-2.86409
-0.00208411
-2.86409
2.80159
-2.80159
2.73465
0.066941
-2.73465
0.0752924
-11.1329
11.1144
-0.035159
-11.0978
5.17322
5.17322
4.18765
0.570648
4.18765
-4.998
0.21515
-4.998
2.31288
-5.83057
4.86947
-8.17224
5.45794
-15.6201
3.77204
-9.22036
6.50343
-6.50343
6.3227
0.180732
-6.3227
0.234218
-1.39707
0.0236575
-1.39707
-2.98188
-0.607172
-2.98188
4.24468
-0.655628
4.24468
-3.02908
3.02908
-3.07795
0.0488713
3.07795
0.0462444
2.29744
0.0569446
-2.29744
-0.0131267
0.702435
0.163005
-0.702435
0.169211
3.40113
-0.197279
3.40113
-3.02486
-0.178987
-3.02486
-1.41206
0.0149926
1.41206
0.0134817
-5.81496
0.248837
-5.81496
-11.1907
0.0929878
-11.1527
-6.1066
-6.1066
2.33378
11.1262
-2.88638
0.0222893
2.88638
0.0274955
2.97624
0.0528463
-2.97624
0.055131
-2.86312
0.0615337
2.86312
0.0579838
-2.56011
0.377608
-2.56011
-1.07177
1.07177
-1.24493
0.173152
1.24493
0.234922
1.33213
-0.24733
1.33213
1.28297
0.0469092
-1.28297
0.0692315
-3.69744
-0.111008
-3.69744
6.4749
-0.225637
6.4749
-2.93113
-0.093731
2.93113
-0.0500798
-0.0333213
11.1477
-5.1399
0.0337849
5.1399
-11.2087
11.2425
-3.23425
0.674136
3.23425
0.953402
5.2887
0.277424
-5.2887
0.2907
6.62275
0.0674073
-6.62275
0.119326
-2.49157
-0.49031
-2.49157
-4.97357
-0.583766
4.97357
-0.728886
-11.4748
-0.20458
11.6794
-11.4172
6.01954
0.13758
-6.01954
11.3801
-1.00547
-0.0793339
1.00547
0.0663046
1.64613
-0.313993
1.64613
3.58994
-0.188816
-3.58994
-0.107492
-6.62529
-0.0754335
6.62529
-0.150391
-2.05391
-0.437662
2.05391
-0.407786
-4.26698
4.30514
1.90937
-1.68269
-2.71788
-4.34369
1.85205
1.90123
4.30174
-10.2269
-5.39327
-9.44678
7.26656
-6.97586
-9.27054
9.17974
7.61876
-7.74485
-5.78536
5.8316
6.48204
-6.4407
1.87865
1.87484
7.88573
-7.6737
-15.6999
15.317
7.45456
-7.45989
15.7916
-15.81
-17.8053
17.8727
-5.72274
5.82116
-6.72576
6.72368
-6.93888
6.8888
-2.87856
-5.29368
13.0906
-12.7174
7.55064
-7.52147
-8.50492
8.88727
3.38244
0.922701
3.42914
-1.88231
3.76096
-1.8713
3.78066
3.59946
-6.47802
2.23111
-4.94899
3.41773
4.13291
-3.41015
-0.933544
-5.91871
5.94824
-5.82182
5.87981
8.96158
-9.01936
-1.88516
3.76
-1.86886
3.77009
-3.4252
-2.36016
3.37963
0.922112
7.6868
5.40378
-8.30255
-1.14423
-7.86178
7.67297
-8.1378
7.95881
-0.441941
5.82008
-5.37814
4.42108
-1.55863
7.37871
5.70793
5.92308
5.8665
-5.58908
1.10936
-6.4875
-6.39664
-2.53639
2.64483
2.47952
-2.33639
5.98465
1.63411
5.83016
-5.57938
-2.16547
-5.69039
3.82122
2.01038
3.8701
4.07674
2.4053
4.11712
3.03078
-3.03575
0.00496128
-3.0563
6.08708
0.724254
-5.41646
-4.49435
4.93061
2.95512
5.12586
-5.47754
-2.19616
-5.13619
-9.572
-6.12791
-10.1558
10.1276
5.18939
9.81859
-11.9864
11.836
4.75249
2.70207
4.75653
-4.92478
-2.53511
-4.834
11.6455
-2.55433
-9.0912
-10.3025
-7.50274
10.2736
5.51802
10.9157
6.95698
11.035
4.42638
7.21915
-9.9444
2.44166
-3.86913
-1.85361
-3.79383
3.6941
2.12706
3.80249
-4.21297
-2.5128
-4.19068
-4.28568
-2.6532
4.30055
2.42313
-4.39535
-3.74245
4.48908
2.39972
5.14159
-10.5349
4.07878
-9.37246
-9.17353
-3.54389
-8.93931
4.07853
3.03188
-7.11041
-2.39948
8.28202
-4.14911
7.34848
-4.47117
-3.0503
-4.4843
-6.79777
-1.70715
-6.65468
-8.89913
8.40882
-9.21027
8.55465
12.666
-5.71171
-6.95424
-3.96808
-2.47262
3.92024
-0.491098
-3.71109
3.71605
0.0498717
3.83054
4.75324
4.26214
-3.88722
-1.9346
-3.83209
3.83265
2.04716
3.89418
6.74493
2.21666
6.7551
-6.46363
-2.55572
-6.59109
9.07187
-8.67021
2.90175
-2.88675
5.29218
2.66664
-5.0949
-2.76689
6.20891
-3.14553
-3.06338
-12.2101
10.558
1.65206
-4.83136
-0.410279
-0.143812
-5.49909
-3.77145
5.38375
0.539335
11.0973
7.32589
-5.51255
5.76139
6.16684
6.22432
-0.172314
5.83312
-5.15898
5.32004
-2.42131
-2.89873
5.32194
-5.4941
-1.26916
-5.34034
4.07118
0.336057
1.72834
-1.46158
-2.00479
-0.531596
-1.93556
1.47935
1.00017
1.64235
0.96045
1.68438
-2.95187
0.555288
2.39659
-1.99142
-1.78111
-3.69301
-1.03354
4.72654
5.58846
2.08451
-5.48097
-0.209423
2.69535
-2.65384
-0.780351
-2.91266
2.12753
-2.90788
-3.62485
-1.89493
5.51978
-3.37079
-0.461299
3.31794
0.552153
-3.82516
-2.09355
3.78558
0.33154
-3.12485
6.1901
-3.06525
-5.05946
2.52878
3.55831
4.53915
-4.78994
2.44623
2.34371
-1.23164
4.22096
0.904898
4.37216
-6.72671
4.53056
5.74085
3.14642
-6.04517
0.908974
-5.81774
8.45549
-7.27562
-1.17987
4.07912
4.37637
7.16445
5.5015
-5.7338
12.8983
-1.1548
-6.12082
6.97254
-3.82613
4.77189
-8.59802
-10.2734
4.15257
-9.24819
11.0081
-1.75991
-3.61615
-8.37024
12.8643
-1.22272
-11.6416
8.59587
-4.22154
-4.27114
8.49268
-6.77587
6.80624
-1.98372
-4.82253
-10.126
-5.68398
10.2014
1.63455
-9.84521
12.2869
-2.62607
3.92965
0.826874
3.9811
3.26497
-5.3975
2.13252
3.5109
-5.49461
2.07606
-7.47356
-7.02622
12.6159
-5.58967
-10.5701
-9.63095
-0.939158
2.49314
9.79374
-9.45012
7.35451
2.09562
3.31012
0.584068
-3.37706
-0.416778
0.262148
4.54228
-4.80443
4.06464
4.22087
3.36375
1.17853
3.83959
2.10866
-3.86708
-0.323595
-4.1547
1.5015
-1.73157
-3.65885
5.16035
-4.06457
0.405715
-2.73136
-3.50818
6.23954
-4.58497
3.03934
3.15076
5.0865
-4.9109
1.40272
-2.40055
-2.51034
2.66185
-4.39342
1.95061
3.20974
4.35033
0.607879
6.42823
6.18766
-9.46011
0.0876491
11.5914
-10.4472
2.52508
8.50994
-9.87959
0.248641
-8.69067
1.44671
-5.59582
-5.6637
5.09236
-6.79951
-3.50566
6.13831
0.616784
-6.22015
-0.434532
-6.04616
-2.85297
-6.48382
-3.06277
-6.1475
-8.79657
-1.65414
-7.14243
6.75467
-6.69835
-3.45741
7.42724
1.12741
-7.40931
7.32997
-7.49402
7.18003
0.0948465
3.6212
4.35699
1.88437
-2.38957
4.27393
-5.07691
7.29357
-8.59011
3.5132
4.05595
-6.61167
-4.53416
5.03644
4.03543
5.33743
8.93812
-10.44
1.50187
-10.753
12.0913
-1.33836
-16.5332
5.78027
-7.5951
2.63525
0.266493
2.65891
0.652398
2.43658
-3.08897
-2.23436
-2.22087
-2.35243
-3.43714
5.78958
1.16036
-3.43668
2.27633
-3.49576
4.65612
-0.0732379
-3.36345
5.29288
-2.8563
5.55937
-3.569
1.99037
3.35261
5.71588
-2.36326
4.36094
-1.69431
1.84309
-4.20635
-1.59406
-2.96812
5.09518
-3.27142
3.67714
-0.29075
3.96789
-4.0861
0.940564
-0.722345
3.49852
3.73593
4.28874
-3.11021
2.98099
-4.6753
-1.22536
-4.06742
-0.857679
-0.299964
-3.7654
4.06536
6.03408
-6.33405
-5.25766
9.56307
-4.30541
7.71714
-5.40249
-2.31464
-4.27125
-4.39896
3.89364
1.93948
9.65661
0.209351
-5.61184
-4.94963
-3.99623
3.21274
2.1073
-1.92507
3.57713
2.06888
-0.340548
0.56723
1.07512
1.85786
-1.29063
0.217243
1.64062
-1.24433
1.97912
0.716233
-2.02603
0.0904691
-1.35782
3.48535
1.03877
-2.03894
0.748309
1.06573
-3.48703
4.84682
-2.48854
-2.35828
5.91255
1.16422
-3.65276
4.17612
-3.84006
2.33432
-3.36785
-1.31844
-5.1585
-3.52439
-2.54503
4.82136
-3.24454
5.32905
1.19651
-5.11963
6.31614
-3.58052
1.68559
-3.07306
3.7893
-1.0756
-1.99747
2.80787
2.71191
-2.94233
0.02967
-0.134455
2.33499
-2.46944
-0.572893
-2.56432
-4.57141
4.90295
-2.10783
4.55407
2.1661
-1.91426
6.46833
1.81158
-3.72584
-3.24788
-3.70918
-1.38213
3.15703
-0.57054
-4.26346
-5.39307
4.13395
0.238215
-6.85967
7.66851
-0.808835
-3.90455
-0.626002
4.70512
-5.96849
0.47388
-3.89243
3.77607
4.68097
4.91919
-11.4492
-0.192413
-6.25982
1.15323
-7.41305
5.5296
-3.5978
7.75037
-10.4279
6.97045
-9.30045
6.57051
-0.842543
6.2536
-4.12108
2.83759
-8.52157
-6.88702
5.44958
-2.74751
6.27645
-3.1191
9.39556
-5.74517
5.09946
4.2961
-0.673143
-3.81116
-5.32634
4.6532
-0.226888
3.75421
4.97357
-2.86491
4.64998
2.25624
-4.65679
-2.13718
-6.49832
1.84153
-3.34756
-1.91552
3.75705
3.17097
3.75504
1.24671
-3.33826
7.41582
-8.35498
-1.82615
-3.83755
5.36163
-0.708432
3.28449
-7.12204
-2.31133
4.87006
-0.798978
-4.07109
0.841649
-4.34731
1.65525
-6.00256
5.14426
-5.57879
2.20926
-9.80435
-5.20005
-5.13374
-2.24814
-5.24588
-7.61703
5.36889
-1.83676
5.49321
-8.59454
7.79556
-3.49677
8.86565
-5.44036
-1.04346
5.84815
1.33188
10.1975
0.170811
-4.70497
-1.87982
3.94703
-2.06721
1.33292
-3.59459
0.352437
2.47761
3.43493
-6.5488
-0.0628768
-4.76785
-3.92304
7.95847
5.64003
11.6741
1.23412
9.15006
-1.19159
10.3842
4.14584
4.38076
-3.05138
4.55325
1.01399
4.52719
-0.836474
2.82685
1.82244
1.82446
0.829378
2.31321
1.42272
3.25377
0.164799
-2.05607
4.63775
-8.63398
-0.974098
-8.06333
1.11642
5.72728
-4.61086
3.10069
-0.993395
1.03349
0.102105
-1.61833
1.51622
-2.79663
-1.95888
-0.31826
-1.61075
2.35906
1.87459
-2.0408
-0.755822
0.32327
-3.84766
3.04458
-3.01491
-0.303004
6.01313
-2.74997
0.280524
-1.06438
-2.28379
-2.81539
2.72492
6.17732
0.291008
3.11207
5.19395
3.1004
0.235489
3.92023
-5.68014
-3.55333
-5.87256
-0.342961
4.36216
1.74216
8.05157
6.03826
5.32983
-1.79221
-10.1472
6.59334
-2.04009
5.25499
-1.1839
-4.81866
4.97066
2.3229
-5.58745
0.00865673
-4.81
-6.85009
-0.525722
8.32129
-9.67181
8.62835
5.77538
1.36705
-4.40811
-0.725635
4.23495
0.145808
10.53
-1.12928
-6.815
7.94428
-4.598
3.6239
0.835307
2.74183
2.35153
1.35814
-5.45686
-10.0677
-1.91167
-1.57536
-4.26995
0.456592
-2.33118
6.24979
-2.62589
3.93515
5.31839
6.35187
-2.15833
-4.17572
6.46374
-2.5286
3.82328
)
;

boundaryField
{
    wall-4
    {
        type            calculated;
        value           uniform 0;
    }
    velocity-inlet-5
    {
        type            calculated;
        value           uniform -3.75095;
    }
    velocity-inlet-6
    {
        type            calculated;
        value           uniform -5.62643;
    }
    pressure-outlet-7
    {
        type            calculated;
        value           nonuniform List<scalar> 8(3.52343 5.10144 4.22873 9.38024 8.7511 5.11609 7.18234 9.22998);
    }
    wall-8
    {
        type            calculated;
        value           uniform 0;
    }
    frontAndBackPlanes
    {
        type            empty;
        value           nonuniform 0();
    }
}


// ************************************************************************* //
