/*--------------------------------*- C++ -*----------------------------------*\
| =========                 |                                                 |
| \\      /  F ield         | OpenFOAM: The Open Source CFD Toolbox           |
|  \\    /   O peration     | Version:  4.0                                   |
|   \\  /    A nd           | Web:      www.OpenFOAM.org                      |
|    \\/     M anipulation  |                                                 |
\*---------------------------------------------------------------------------*/
FoamFile
{
    version     2.0;
    format      ascii;
    class       surfaceScalarField;
    location    "41";
    object      phi;
}
// * * * * * * * * * * * * * * * * * * * * * * * * * * * * * * * * * * * * * //

dimensions      [0 3 -1 0 0 0 0];

internalField   nonuniform List<scalar> 
17370
(
-0.091607
0.096007
0.284611
-0.0775907
0.0594144
0.364952
-0.0430365
0.0316173
0.427587
-0.0223131
0.0162595
0.505305
-0.0116644
0.00878829
0.602278
-0.00657577
0.00509271
0.720541
-0.00386212
0.00298968
0.863779
-0.00222479
0.00165185
1.03602
-0.00112386
0.000704735
1.24292
-0.000294183
-9.79155e-05
1.49158
0.000484253
-0.000893367
1.4916
0.00129527
-0.00180002
1.2432
0.00235318
-0.00310103
1.03639
0.00396383
-0.0051885
0.864131
0.00666651
-0.00887054
0.721262
0.0117351
-0.0163143
0.603794
0.0223527
-0.0316413
0.508728
0.0430446
-0.0594122
0.432536
0.07759
-0.0960046
0.36519
0.0916199
0.197391
-0.127087
0.0880179
0.0390694
-0.364351
0.354025
-0.0714787
0.0818048
-0.446655
0.454248
-0.0791688
0.071576
-0.521009
0.529106
-0.0637265
0.0556294
-0.612987
0.620758
-0.048242
0.0404711
-0.72716
0.733681
-0.0338575
0.0273369
-0.86758
0.872421
-0.0221379
0.0172972
-1.03856
1.04189
-0.0136115
0.0102838
-1.24472
1.24712
-0.00774002
0.00533988
-1.49284
1.49485
-0.00338024
0.0013704
-1.49269
1.49451
0.000447626
-0.00226604
-1.24411
1.24602
0.00423759
-0.00614733
-1.03761
1.04009
0.00848417
-0.0109674
-0.866189
0.869826
0.0142326
-0.0178696
-0.724596
0.729758
0.0226661
-0.0278287
-0.609067
0.61564
0.0343084
-0.0408811
-0.515126
0.522465
0.0486036
-0.0559423
-0.43988
0.447664
0.06397
-0.0717541
-0.374711
0.377357
0.0792583
-0.081904
-0.256903
0.224446
0.0715556
-0.0390982
-0.0688011
0.0591867
0.00961444
-0.0521224
0.0589572
-0.374832
0.367997
-0.0581125
0.0542728
-0.45394
0.457779
-0.0487861
0.0442263
-0.527608
0.532167
-0.039675
0.0357791
-0.620791
0.624686
-0.0315696
0.0275834
-0.734651
0.738638
-0.0232415
0.0193685
-0.873947
0.87782
-0.0153364
0.0118883
-1.04335
1.0468
-0.00837756
0.00535268
-1.24864
1.25167
-0.00215304
-0.000822749
-1.49694
1.49992
0.00377745
-0.00692026
-1.49742
1.50056
0.00986465
-0.0132689
-1.25007
1.25348
0.0166123
-0.0205307
-1.04566
1.04958
0.0243094
-0.0285605
-0.877145
0.881396
0.0324715
-0.0366008
-0.738991
0.74312
0.0404245
-0.044901
-0.625982
0.630458
0.0493988
-0.0548257
-0.535025
0.540452
0.0585995
-0.0593661
-0.458086
0.458852
0.0524287
-0.0320515
-0.336779
0.316402
0.00966929
-0.0686733
0.059004
-0.0533948
0.0492803
0.00411456
-0.0332644
0.0436971
-0.358541
0.348109
-0.0473794
0.0467971
-0.459564
0.460147
-0.0438723
0.0406622
-0.536115
0.539325
-0.0369875
0.0336356
-0.628375
0.631727
-0.0300075
0.0267763
-0.742014
0.745245
-0.0233395
0.0201574
-0.881315
0.884497
-0.0165803
0.0132421
-1.05022
1.05356
-0.00955835
0.00616635
-1.25492
1.25831
-0.00238646
-0.00122345
-1.50327
1.50688
0.00480456
-0.00850193
-1.50406
1.50776
0.0117825
-0.0153169
-1.25704
1.26058
0.0185051
-0.0219151
-1.05329
1.0567
0.0249565
-0.0282579
-0.885001
0.888303
0.0313775
-0.0348904
-0.746803
0.750316
0.0381385
-0.0417008
-0.634585
0.638148
0.0448133
-0.0476309
-0.544602
0.54742
0.0481049
-0.0442738
-0.456977
0.453146
0.033661
-0.0163636
-0.297099
0.279802
0.00417399
-0.053159
0.048985
-0.0461075
0.0435483
0.00255924
-0.0230726
0.0334352
-0.337505
0.327143
-0.0391805
0.0401366
-0.459888
0.458932
-0.0388913
0.0365665
-0.541972
0.544297
-0.033927
0.0313851
-0.634683
0.637225
-0.028418
0.0255858
-0.748324
0.751156
-0.0223698
0.0193749
-0.887547
0.890542
-0.0160412
0.0129214
-1.05672
1.05984
-0.00938111
0.00599702
-1.2617
1.26508
-0.00210418
-0.00167819
-1.5106
1.51438
0.00542425
-0.00920742
-1.51154
1.51533
0.0124441
-0.0157865
-1.26404
1.26739
0.0187063
-0.0218159
-1.05991
1.06302
0.0246171
-0.0276433
-0.891497
0.894523
0.0303207
-0.0331301
-0.753498
0.756307
0.0355322
-0.0380249
-0.641112
0.643604
0.0402249
-0.041308
-0.549266
0.55035
0.0401864
-0.0342021
-0.448038
0.442054
0.0235792
-0.0103541
-0.264635
0.25141
0.0026326
-0.0457473
0.0431147
-0.0414266
0.0396222
0.00180435
-0.0169725
0.0262736
-0.31726
0.307959
-0.0328859
0.0350183
-0.457359
0.455227
-0.0345944
0.0329043
-0.546315
0.548005
-0.030685
0.0285667
-0.639521
0.64164
-0.0261436
0.0237833
-0.753747
0.756107
-0.0209912
0.0182638
-0.893389
0.896116
-0.0150984
0.0120818
-1.06287
1.06589
-0.00863741
0.00534191
-1.26839
1.27168
-0.00152282
-0.00220738
-1.51814
1.52187
0.00589066
-0.00956991
-1.51907
1.52275
0.0126761
-0.0158671
-1.27067
1.27386
0.0186294
-0.0215088
-1.06605
1.06893
0.0239856
-0.0265271
-0.897308
0.899849
0.0286825
-0.0309011
-0.75875
0.760969
0.0328431
-0.0348767
-0.645843
0.647877
0.0363887
-0.0365934
-0.550946
0.551151
0.0342086
-0.0272496
-0.43549
0.42853
0.017602
-0.00744675
-0.239864
0.229709
0.00189382
-0.0409134
0.0390195
-0.038069
0.0367132
0.00135575
-0.0129743
0.0209901
-0.299303
0.291287
-0.0277767
0.0307134
-0.452658
0.449721
-0.0309323
0.0298175
-0.549429
0.550543
-0.0278256
0.0259085
-0.643681
0.645598
-0.0237129
0.021593
-0.758339
0.760459
-0.0191142
0.0166735
-0.898648
0.901089
-0.0137841
0.010957
-1.06876
1.07159
-0.00765857
0.00447049
-1.2749
1.27808
-0.000767616
-0.00283718
-1.52552
1.52912
0.00638349
-0.00991203
-1.52636
1.52989
0.0128646
-0.0158487
-1.27698
1.27997
0.0183593
-0.020889
-1.07165
1.07418
0.0230106
-0.0251644
-0.902168
0.904322
0.0270163
-0.0289485
-0.76302
0.764952
0.0306448
-0.0324194
-0.649756
0.651531
0.0332797
-0.0327574
-0.551001
0.550479
0.0294633
-0.0222051
-0.421368
0.41411
0.0137468
-0.00573484
-0.220729
0.212717
0.00146444
-0.0373691
0.0359047
-0.0355287
0.034483
0.00104579
-0.0101502
0.016942
-0.283907
0.277115
-0.0234838
0.0268915
-0.446528
0.44312
-0.0276992
0.0270261
-0.551427
0.552101
-0.0252796
0.0235158
-0.647474
0.649238
-0.0214808
0.0195044
-0.762513
0.764489
-0.0171778
0.0148897
-0.903391
0.905679
-0.0121951
0.00955242
-1.07425
1.0769
-0.00644402
0.00340901
-1.28116
1.28419
0.000139957
-0.00359239
-1.53263
1.53608
0.00697437
-0.0103054
-1.53333
1.53666
0.0130475
-0.0157647
-1.28285
1.28556
0.0180144
-0.0202631
-1.07658
1.07882
0.0221541
-0.0240762
-0.906355
0.908277
0.0257204
-0.0274288
-0.766754
0.768462
0.0289186
-0.0303636
-0.653163
0.654608
0.0307145
-0.0294904
-0.54962
0.548396
0.0255945
-0.018437
-0.40688
0.399723
0.011093
-0.00459392
-0.205533
0.199034
0.00117767
-0.0346019
0.0334243
-0.0335647
0.0327484
0.000816338
-0.00805539
0.0137728
-0.270891
0.265173
-0.01984
0.0234571
-0.439598
0.435981
-0.0247552
0.0243389
-0.552673
0.55309
-0.0228759
0.0212311
-0.650985
0.65263
-0.0193005
0.0174208
-0.76642
0.768299
-0.0152054
0.0130259
-0.90785
0.91003
-0.0104589
0.00794952
-1.07939
1.0819
-0.0050093
0.00213556
-1.28709
1.28997
0.00123061
-0.0045095
-1.53943
1.54271
0.00770101
-0.0108023
-1.53988
1.54299
0.0133175
-0.0157809
-1.28818
1.29065
0.0178086
-0.0198246
-1.08098
1.083
0.0215084
-0.0232151
-0.910091
0.911797
0.0246769
-0.0262004
-0.770054
0.771578
0.0275086
-0.0285944
-0.655848
0.656934
0.0285924
-0.0267205
-0.546856
0.544984
0.0224579
-0.0156064
-0.392715
0.385864
0.00920621
-0.00379568
-0.193132
0.187722
0.000976864
-0.0323619
0.031385
-0.0320314
0.031392
0.000639324
-0.00644008
0.011238
-0.259946
0.255148
-0.0167229
0.0203545
-0.432361
0.42873
-0.0219922
0.0218115
-0.55343
0.553611
-0.0205904
0.019012
-0.654289
0.655867
-0.0171463
0.015327
-0.770145
0.771964
-0.0131867
0.0110853
-0.912086
0.914188
-0.00861326
0.0062
-1.08428
1.08669
-0.00337841
0.000637157
-1.29272
1.29546
0.00254768
-0.00562636
-1.54586
1.54893
0.00859783
-0.0114623
-1.54597
1.54883
0.0137696
-0.0160133
-1.29303
1.29527
0.0178441
-0.0196456
-1.08493
1.08673
0.0211357
-0.0226385
-0.913416
0.914918
0.0239316
-0.025291
-0.773005
0.774365
0.026465
-0.0271625
-0.657807
0.658504
0.0268058
-0.0244111
-0.542875
0.54048
0.0199457
-0.0134776
-0.379217
0.372749
0.00784106
-0.00322587
-0.182751
0.178136
0.000834142
-0.0304933
0.0296592
-0.0308341
0.0303386
0.000495516
-0.00513596
0.00913648
-0.250778
0.246778
-0.0139868
0.017479
-0.425182
0.42169
-0.0193197
0.0193538
-0.553732
0.553698
-0.0183611
0.0168463
-0.657478
0.658992
-0.0150304
0.0132459
-0.773753
0.775537
-0.0111408
0.00907684
-0.916177
0.918241
-0.0066589
0.004312
-1.08899
1.09133
-0.00158359
-0.00104823
-1.29808
1.30071
0.00408502
-0.00699133
-1.55188
1.55479
0.00976653
-0.0124116
-1.55158
1.55422
0.0145154
-0.0165381
-1.29745
1.29947
0.0181723
-0.0197705
-1.08847
1.09007
0.0210887
-0.0224154
-0.916355
0.917682
0.0235527
-0.0247386
-0.775619
0.776805
0.0257241
-0.0260502
-0.658987
0.659313
0.0253282
-0.022504
-0.537891
0.535067
0.0179491
-0.0118759
-0.366498
0.360425
0.00684647
-0.00281774
-0.17385
0.169821
0.000733499
-0.0288885
0.028155
-0.0299119
0.0295383
0.000373659
-0.00403895
0.00733525
-0.243157
0.23986
-0.0115337
0.0147686
-0.41835
0.415115
-0.0166713
0.0168648
-0.553641
0.553448
-0.0159636
0.014531
-0.660536
0.661969
-0.012726
0.0109463
-0.777298
0.779078
-0.00885703
0.0068232
-0.920185
0.922218
-0.0044554
0.00216781
-1.09355
1.09584
0.000474869
-0.00301566
-1.30323
1.30577
0.00592066
-0.00866554
-1.55758
1.56032
0.0112519
-0.0136784
-1.55675
1.55918
0.0155758
-0.0173696
-1.30141
1.3032
0.0187998
-0.0201837
-1.09159
1.09298
0.0213152
-0.0224533
-0.918939
0.920077
0.0234327
-0.0244465
-0.777914
0.778927
0.0251916
-0.0252533
-0.659502
0.659564
0.0241514
-0.0209793
-0.532091
0.528919
0.016402
-0.0106887
-0.354561
0.348848
0.00613043
-0.00253083
-0.166042
0.162442
0.000664839
-0.0274704
0.0268056
-0.0292255
0.0289604
0.000265038
-0.00307274
0.00572867
-0.236909
0.234253
-0.00927097
0.012167
-0.412077
0.409181
-0.0140304
0.0143292
-0.553271
0.552972
-0.0134979
0.0121337
-0.663452
0.664816
-0.010328
0.00852886
-0.780838
0.782637
-0.00641782
0.0043708
-0.924136
0.926183
-0.00200235
-0.000264445
-1.09801
1.10028
0.00287175
-0.0053403
-1.30819
1.31066
0.0081236
-0.0107118
-1.56294
1.56553
0.0131065
-0.0153083
-1.56148
1.56368
0.0169925
-0.0185489
-1.30492
1.30648
0.0197686
-0.020933
-1.09429
1.09545
0.0218784
-0.0228352
-0.921151
0.922108
0.023665
-0.024497
-0.779869
0.780701
0.024987
-0.0247847
-0.659461
0.659258
0.0233064
-0.0198199
-0.525621
0.522134
0.0152417
-0.00982989
-0.343327
0.337915
0.00562788
-0.00233621
-0.159033
0.155741
0.000620559
-0.026179
0.0255585
-0.0287528
0.0285915
0.00016122
-0.00216804
0.00421473
-0.231925
0.229878
-0.00708615
0.00956402
-0.406527
0.404049
-0.0112755
0.0116062
-0.55274
0.552409
-0.0108274
0.00951453
-0.666249
0.667562
-0.00770342
0.00586762
-0.784408
0.786244
-0.00370303
0.00160825
-0.928116
0.930211
0.000796288
-0.00308204
-1.10244
1.10472
0.0056679
-0.00808774
-1.31302
1.31544
0.0107769
-0.0132308
-1.56799
1.57045
0.0154494
-0.0174321
-1.56576
1.56774
0.0189066
-0.0202353
-1.30797
1.30929
0.0212509
-0.0221956
-1.09656
1.0975
0.0229426
-0.0236777
-0.922994
0.923729
0.0243012
-0.0249215
-0.78145
0.78207
0.0250942
-0.0245861
-0.658834
0.658326
0.0227413
-0.0189729
-0.518553
0.514784
0.0144012
-0.00923081
-0.332675
0.327504
0.00529182
-0.00221428
-0.152595
0.149518
0.000596132
-0.0249676
0.0243715
-0.0284868
0.028431
5.57667e-05
-0.00127417
0.00271958
-0.228148
0.226703
-0.0048994
0.00688685
-0.401855
0.399868
-0.00832796
0.00858813
-0.552218
0.551958
-0.00779064
0.00647103
-0.66899
0.670309
-0.004603
0.00270239
-0.788054
0.789955
-0.000471701
-0.00167055
-0.932173
0.934315
0.00411436
-0.00642004
-1.10689
1.10919
0.00900871
-0.0113986
-1.31775
1.32014
0.0140024
-0.0163149
-1.57277
1.57508
0.0183385
-0.020077
-1.56958
1.57132
0.0213086
-0.0223561
-1.31052
1.31157
0.0231053
-0.0237586
-1.09836
1.09901
0.0242517
-0.0247451
-0.924402
0.924896
0.0251983
-0.025669
-0.782601
0.783071
0.0255511
-0.0246951
-0.657526
0.65667
0.0224754
-0.0184456
-0.510962
0.506932
0.0138645
-0.00886212
-0.322489
0.317487
0.00509928
-0.00215435
-0.146553
0.143608
0.000588197
-0.0238007
0.0232125
-0.0284323
0.0284835
-5.12721e-05
-0.000364549
0.00119585
-0.225571
0.22474
-0.00264974
0.00408061
-0.398194
0.396763
-0.0051605
0.00528292
-0.551902
0.55178
-0.00442772
0.00306592
-0.671796
0.673158
-0.00112777
-0.000857789
-0.791828
0.793814
0.00319224
-0.00542907
-0.936323
0.93856
0.00797297
-0.0103529
-1.11138
1.11376
0.0129885
-0.0153759
-1.32243
1.32481
0.017913
-0.020093
-1.57726
1.57944
0.0219266
-0.0234177
-1.57291
1.5744
0.0244029
-0.0251698
-1.31252
1.31329
0.0256637
-0.0260385
-1.09959
1.09997
0.0262663
-0.0264752
-0.925325
0.925534
0.0266939
-0.026861
-0.783284
0.783451
0.0264859
-0.0251883
-0.65549
0.654192
0.0225659
-0.0182433
-0.502872
0.49855
0.0136107
-0.00870165
-0.312617
0.307708
0.00503712
-0.0021526
-0.140746
0.137861
0.000597013
-0.0226432
0.0220462
-0.0286031
0.028778
-0.000174965
0.000587974
-0.000418169
-0.22422
0.22405
-0.000248519
0.00104036
-0.395672
0.39488
-0.00165158
0.00156401
-0.551926
0.552014
-0.000622816
-0.000820214
-0.674723
0.676166
0.00285956
-0.00498103
-0.795782
0.797904
0.00748761
-0.00988056
-0.940679
0.943072
0.0125746
-0.0150607
-1.11603
1.11851
0.0177705
-0.0201795
-1.32709
1.3295
0.0226749
-0.0247408
-1.58148
1.58355
0.0263707
-0.0275843
-1.57572
1.57694
0.0282809
-0.0287013
-1.31393
1.31435
0.028883
-0.0289362
-1.10025
1.1003
0.0288884
-0.028805
-0.925678
0.925594
0.0287598
-0.028572
-0.783253
0.783065
0.0278789
-0.0260484
-0.652606
0.650775
0.0229966
-0.0183693
-0.494227
0.4896
0.0136449
-0.00874781
-0.302912
0.298015
0.00510141
-0.0022057
-0.135034
0.132138
0.000620686
-0.021465
0.0208443
-0.0290314
0.0293581
-0.000326642
0.00168794
-0.0021681
-0.224219
0.2247
0.00237401
-0.00234172
-0.39445
0.394418
0.00236923
-0.00281886
-0.552513
0.552963
0.00397199
-0.00557471
-0.677874
0.679477
0.00778892
-0.0100817
-0.800002
0.802295
0.0127753
-0.0153277
-0.945327
0.947879
0.0181822
-0.020795
-1.12087
1.12348
0.0236077
-0.0260572
-1.33179
1.33424
0.0285096
-0.0304278
-1.58546
1.58737
0.0318218
-0.0327036
-1.57794
1.57882
0.0330849
-0.033123
-1.31463
1.31467
0.0329469
-0.0326135
-1.10021
1.09987
0.0322259
-0.0317941
-0.925389
0.924958
0.0314584
-0.0308576
-0.782443
0.781842
0.0297528
-0.0273544
-0.648741
0.646342
0.0238516
-0.0188729
-0.485008
0.480029
0.0139838
-0.00900313
-0.293208
0.288227
0.00529222
-0.00231381
-0.129276
0.126298
0.00065939
-0.0202365
0.0195771
-0.0297528
0.0302523
-0.000499521
0.00297454
-0.00424836
-0.225589
0.226863
0.00538211
-0.006166
-0.394745
0.395529
0.00691572
-0.0078019
-0.553948
0.554834
0.00922663
-0.0110464
-0.681432
0.683252
0.0135078
-0.0160356
-0.804569
0.807097
0.0189905
-0.0217754
-0.950289
0.953074
0.0248693
-0.0276724
-1.12598
1.12878
0.0306438
-0.0331704
-1.33657
1.33909
0.0356062
-0.0373868
-1.58911
1.5909
0.0385329
-0.0390644
-1.57947
1.58
0.0390765
-0.0386965
-1.31451
1.31413
0.0381131
-0.0373405
-1.09932
1.09855
0.0365625
-0.035716
-0.924325
0.923478
0.0350191
-0.0339079
-0.780727
0.779616
0.0323203
-0.0292974
-0.643817
0.640795
0.025254
-0.0198232
-0.475088
0.469657
0.014672
-0.00949261
-0.283307
0.278128
0.00562105
-0.00248033
-0.123327
0.120186
0.000713984
-0.0189269
0.0182129
-0.0308269
0.0315512
-0.000724275
0.00450961
-0.00670166
-0.228573
0.230765
0.00891106
-0.0106078
-0.396729
0.398426
0.0121875
-0.0136096
-0.55639
0.557812
0.0153917
-0.0174812
-0.685486
0.687575
0.0202638
-0.0231193
-0.809612
0.812467
0.0264587
-0.0295912
-0.955748
0.95888
0.0330366
-0.0361084
-1.13149
1.13456
0.0392896
-0.0419084
-1.3415
1.34412
0.0443107
-0.0459171
-1.59247
1.59408
0.0467507
-0.046856
-1.58025
1.58036
0.0464202
-0.0455673
-1.3135
1.31264
0.0445413
-0.0432895
-1.0975
1.09624
0.0420855
-0.0407738
-0.922345
0.921034
0.0396034
-0.0379193
-0.777949
0.776265
0.0356919
-0.0319259
-0.637665
0.633898
0.0272622
-0.0212861
-0.464285
0.458309
0.0157566
-0.0102381
-0.272979
0.26746
0.00609332
-0.00270157
-0.117026
0.113634
0.00078045
-0.0175076
0.0167271
-0.0323518
0.0333684
-0.00101661
0.00641329
-0.00967802
-0.233388
0.236652
0.013138
-0.0158997
-0.400666
0.403428
0.0184463
-0.0205527
-0.560103
0.562209
0.0228781
-0.0253963
-0.690195
0.692713
0.0286592
-0.0319553
-0.815319
0.818615
0.0357676
-0.0393028
-0.961903
0.965438
0.043138
-0.0464985
-1.13753
1.14089
0.0498987
-0.0526028
-1.34658
1.34929
0.0549478
-0.0563319
-1.59544
1.59682
0.0567911
-0.0563873
-1.58012
1.57972
0.0554437
-0.0540057
-1.31143
1.30999
0.0524628
-0.0506451
-1.09462
1.0928
0.0489483
-0.0471052
-0.919335
0.917492
0.0453927
-0.0430736
-0.773997
0.771678
0.0401308
-0.0355338
-0.630065
0.625468
0.0301371
-0.0234469
-0.452392
0.445702
0.0173635
-0.0113149
-0.261922
0.255873
0.00674777
-0.00298994
-0.110186
0.106428
0.000860626
-0.0159541
0.0150935
-0.03445
0.0358545
-0.00140447
0.00883529
-0.0133963
-0.240317
0.244878
0.0182999
-0.0222582
-0.40689
0.410848
0.0259123
-0.028861
-0.565461
0.56841
0.0319477
-0.0351056
-0.695916
0.699074
0.0390532
-0.0429291
-0.82191
0.825786
0.0473189
-0.051328
-0.968855
0.972864
0.0556132
-0.0593015
-1.14413
1.14782
0.0629392
-0.065716
-1.35182
1.35459
0.067937
-0.0689973
-1.5979
1.59896
0.068971
-0.06794
-1.5789
1.57787
0.0663782
-0.0642346
-1.30807
1.30593
0.0620762
-0.0596386
-1.0905
1.08806
0.0573962
-0.0550008
-0.915177
0.912782
0.0527047
-0.0497136
-0.768762
0.765771
0.0459838
-0.0404096
-0.620825
0.615251
0.0341038
-0.0264794
-0.439059
0.431434
0.0196178
-0.0127917
-0.249741
0.242915
0.00761563
-0.00335556
-0.102569
0.0983087
0.000956776
-0.0142392
0.0132824
-0.0373025
0.0392584
-0.00195589
0.0121146
-0.018304
-0.249781
0.25597
0.0249185
-0.0302541
-0.415797
0.421132
0.0351839
-0.0391262
-0.572825
0.576767
0.0431364
-0.0471072
-0.703051
0.707022
0.0519433
-0.0565659
-0.829661
0.834284
0.0616953
-0.066299
-0.976786
0.98139
0.0711275
-0.0751762
-1.15138
1.15543
0.079023
-0.0817903
-1.35714
1.35991
0.0837568
-0.0843414
-1.59963
1.60021
0.0836671
-0.0818473
-1.57635
1.57453
0.0795424
-0.076602
-1.30324
1.30029
0.0737538
-0.0706082
-1.08497
1.08182
0.0677936
-0.0648074
-0.909791
0.906805
0.0618447
-0.0580884
-0.76214
0.758384
0.0534221
-0.046683
-0.609635
0.602896
0.0392721
-0.0304514
-0.423855
0.415035
0.0225339
-0.0146444
-0.235941
0.228051
0.00866736
-0.00378095
-0.0939114
0.089025
0.00106329
-0.0123331
0.0112699
-0.041215
0.0440184
-0.00280339
0.0168724
-0.0251977
-0.262439
0.270764
0.0339137
-0.0409081
-0.42798
0.434974
0.0473695
-0.0525055
-0.582585
0.587721
0.0577317
-0.062795
-0.711948
0.717011
0.0687118
-0.0742211
-0.838896
0.844405
0.0802055
-0.0854501
-0.985923
0.991168
0.0907854
-0.0950837
-1.1593
1.16359
0.0989448
-0.101481
-1.36232
1.36486
0.102921
-0.102775
-1.60027
1.60012
0.101205
-0.0983671
-1.5721
1.56926
0.0951571
-0.0912802
-1.29674
1.29287
0.0876513
-0.0837535
-1.07791
1.07401
0.0803189
-0.0766658
-0.902969
0.899316
0.0730077
-0.0683122
-0.75384
0.749145
0.0625762
-0.0544817
-0.596101
0.588006
0.045713
-0.0353393
-0.406249
0.395875
0.0260273
-0.0167751
-0.219977
0.210725
0.00982828
-0.00422996
-0.0839952
0.0783969
0.00116993
-0.0102212
0.0090513
-0.0467421
0.0509868
-0.00424469
0.0243366
-0.0356016
-0.279384
0.290649
0.0470763
-0.0562974
-0.444488
0.453709
0.0646488
-0.0712274
-0.59534
0.601918
0.0780228
-0.0845381
-0.723048
0.729563
0.0916776
-0.0980537
-0.849886
0.856262
0.104748
-0.110402
-0.99624
1.00189
0.115904
-0.120091
-1.16752
1.17171
0.123535
-0.125435
-1.36682
1.36872
0.125901
-0.124624
-1.59923
1.59795
0.121819
-0.11769
-1.56568
1.56155
0.113378
-0.108403
-1.28831
1.28333
0.103875
-0.0991092
-1.06923
1.06446
0.0950142
-0.0906474
-0.894503
0.890136
0.0862774
-0.0804853
-0.74347
0.737678
0.0734642
-0.0637018
-0.579745
0.569983
0.0532173
-0.0408828
-0.385504
0.37317
0.0298464
-0.0189843
-0.201344
0.190482
0.0109608
-0.00463481
-0.0727167
0.0663907
0.0012551
-0.00791348
0.00665837
-0.0549492
0.0622583
-0.00730914
0.037707
-0.0533329
-0.302758
0.318383
0.0686654
-0.0808136
-0.466853
0.479001
0.0911591
-0.0991968
-0.611626
0.619664
0.107641
-0.11545
-0.736761
0.74457
0.12352
-0.130315
-0.862404
0.869199
0.137101
-0.142545
-1.00709
1.01253
0.147533
-0.150989
-1.17521
1.17867
0.153389
-0.154084
-1.36975
1.37044
0.153023
-0.150159
-1.59563
1.59277
0.145772
-0.140076
-1.55647
1.55077
0.134455
-0.128193
-1.27756
1.2713
0.122623
-0.116883
-1.05872
1.05298
0.112021
-0.106852
-0.884376
0.879207
0.101698
-0.0945464
-0.730667
0.723515
0.0858653
-0.0739182
-0.559746
0.547799
0.0612856
-0.0466613
-0.360757
0.346132
0.0336985
-0.0211194
-0.179714
0.167135
0.0119852
-0.00496131
-0.0601802
0.0531564
0.00130243
-0.00546757
0.00416514
-0.0691072
0.0731515
-0.0040443
0.0286502
-0.0421278
-0.336553
0.35003
0.0556818
-0.0666343
-0.49632
0.507272
0.0764506
-0.0857575
-0.631201
0.640508
0.0962513
-0.105551
-0.752067
0.761367
0.115802
-0.12487
-0.875145
0.884214
0.1344
-0.142732
-1.01702
1.02535
0.151218
-0.158238
-1.181
1.18802
0.164809
-0.169533
-1.36992
1.37465
0.172879
-0.173853
-1.58862
1.5896
0.172374
-0.168903
-1.54391
1.54044
0.164398
-0.158526
-1.26407
1.2582
0.15293
-0.146353
-1.04612
1.03954
0.140716
-0.134464
-0.872302
0.86605
0.127838
-0.11788
-0.714677
0.704719
0.105352
-0.0886686
-0.535019
0.518336
0.0716533
-0.052398
-0.331162
0.311907
0.0362786
-0.0216186
-0.155007
0.140347
0.0116606
-0.00457148
-0.0467947
0.0397056
0.00111395
-0.00300609
0.00189213
-0.0802493
0.0783322
0.00191707
0.00691395
-0.0156849
-0.366365
0.375136
0.0259243
-0.0336891
-0.522944
0.530708
0.0415677
-0.0495683
-0.652119
0.66012
0.0591665
-0.0679234
-0.77038
0.779137
0.0771436
-0.0855238
-0.892763
0.901143
0.0943259
-0.101715
-1.03341
1.0408
0.109439
-0.115473
-1.19487
1.2009
0.12105
-0.124729
-1.37905
1.38273
0.126642
-0.126302
-1.58966
1.58932
0.123449
-0.118562
-1.53603
1.53114
0.112637
-0.105307
-1.25168
1.24435
0.0983284
-0.0903758
-1.03183
1.02388
0.0829548
-0.074676
-0.856032
0.847753
0.0670324
-0.0582792
-0.690765
0.682012
0.0488622
-0.0373648
-0.499619
0.488122
0.026844
-0.0169196
-0.292347
0.282423
0.010184
-0.00522876
-0.126411
0.121456
0.00247244
-0.000873016
-0.0331547
0.0315553
0.000218359
-0.00077508
0.000556721
-0.0815414
0.0786451
0.00289635
-0.00206447
-0.00292801
-0.386391
0.391383
0.00981471
-0.0155829
-0.542546
0.548315
0.021612
-0.0284653
-0.669968
0.676821
0.036728
-0.0443156
-0.787045
0.794632
0.0525793
-0.0599647
-0.908831
0.916217
0.0675134
-0.0742225
-1.04806
1.05477
0.0810274
-0.0864166
-1.20653
1.21192
0.090913
-0.093575
-1.38571
1.38837
0.0946546
-0.0932981
-1.58811
1.58675
0.0894127
-0.0834763
-1.52533
1.51939
0.0767429
-0.0688242
-1.23654
1.22862
0.0610771
-0.0527739
-1.01513
1.00683
0.0452573
-0.0370865
-0.838188
0.830017
0.0298971
-0.0220854
-0.669302
0.66149
0.0145853
-0.00639088
-0.47454
0.466345
0.000888934
0.00235372
-0.271493
0.26825
-0.00332404
0.00299549
-0.115441
0.11577
-0.00207903
0.000974213
-0.0295063
0.0306111
-0.000245647
-0.000279556
0.000525203
-0.0802394
0.0775205
0.00271894
-0.00548954
0.00312041
-0.399669
0.402038
0.00124043
-0.0056689
-0.557245
0.561674
0.0108714
-0.0166536
-0.684658
0.69044
0.0237559
-0.0303321
-0.801669
0.808245
0.0374975
-0.0439423
-0.923143
0.929588
0.050925
-0.0567328
-1.06111
1.06691
0.0628003
-0.0671455
-1.21694
1.22128
0.0710259
-0.0731957
-1.39081
1.39298
0.0736705
-0.0717212
-1.58492
1.58297
0.0678274
-0.0620993
-1.51291
1.50719
0.0556676
-0.0478082
-1.22054
1.21268
0.0404519
-0.0324521
-0.99815
0.99015
0.0248423
-0.0166077
-0.820639
0.812404
0.0088316
-0.00114412
-0.6497
0.642013
-0.00499123
0.01012
-0.456543
0.451414
-0.0120598
0.0115088
-0.262324
0.262875
-0.00971303
0.00695112
-0.114721
0.117482
-0.00445329
0.00203068
-0.0310039
0.0334265
-0.000569378
-0.000665371
0.00123475
-0.0787513
0.0763712
0.00238015
-0.00648372
0.00563443
-0.408551
0.4094
-0.00237689
-0.000877224
-0.569182
0.572436
0.00522564
-0.0105399
-0.697055
0.702369
0.0165809
-0.022451
-0.814199
0.82007
0.0287735
-0.0344829
-0.935661
0.94137
0.0405925
-0.0458634
-1.07263
1.07791
0.0511012
-0.0551875
-1.22552
1.22961
0.0586072
-0.0605048
-1.39485
1.39675
0.0609144
-0.0592007
-1.58103
1.57932
0.0558481
-0.0507389
-1.50116
1.49605
0.0451505
-0.0383239
-1.20517
1.19834
0.0315855
-0.0237105
-0.981821
0.973946
0.0160488
-0.00728251
-0.802713
0.793947
-0.000692576
0.00826233
-0.631101
0.623532
-0.0134275
0.0167545
-0.44384
0.440513
-0.0172318
0.0151108
-0.259862
0.261983
-0.0121333
0.00859597
-0.118727
0.122264
-0.00545191
0.00248451
-0.0351175
0.0380849
-0.000732725
-0.00165955
0.00239227
-0.0774149
0.0753865
0.00202835
-0.00631104
0.0059244
-0.41469
0.415076
-0.00397404
0.00124762
-0.578493
0.581219
0.00303999
-0.0076654
-0.707731
0.712357
0.012975
-0.0181782
-0.825216
0.83042
0.0239097
-0.0291012
-0.946794
0.951986
0.0347728
-0.0394649
-1.08293
1.08762
0.0442619
-0.0480392
-1.23345
1.23723
0.0512055
-0.0530404
-1.39849
1.40032
0.0536022
-0.0526641
-1.57777
1.57684
0.04992
-0.0457543
-1.49092
1.48675
0.0408525
-0.0346468
-1.19163
1.18543
0.0285221
-0.0207328
-0.965856
0.958067
0.0130714
-0.00451398
-0.78433
0.775773
-0.00305749
0.0100065
-0.613717
0.606768
-0.014411
0.0171362
-0.434566
0.431841
-0.0170821
0.0148604
-0.260421
0.262643
-0.0119578
0.00841351
-0.12425
0.127794
-0.00529427
0.00243584
-0.0400449
0.0429033
-0.0007294
-0.0028677
0.0035971
-0.0764263
0.0748484
0.00157791
-0.00543852
0.00537369
-0.419273
0.419338
-0.00377577
0.00166278
-0.586756
0.588869
0.00241031
-0.00667113
-0.717156
0.721416
0.0117982
-0.0163754
-0.835277
0.839854
0.0215
-0.0261659
-0.957187
0.961853
0.0315895
-0.0359036
-1.09237
1.09668
0.0402447
-0.0439206
-1.24087
1.24455
0.0473982
-0.0493082
-1.40229
1.4042
0.0502667
-0.0496639
-1.57573
1.57513
0.0476961
-0.0437852
-1.48259
1.47868
0.0394252
-0.0337046
-1.17914
1.17342
0.0276936
-0.0203572
-0.950193
0.942857
0.012987
-0.00479063
-0.766528
0.758332
-0.00188549
0.00806388
-0.598146
0.591968
-0.0118765
0.0138743
-0.426876
0.424879
-0.0140374
0.0124845
-0.261618
0.263171
-0.0100729
0.00707104
-0.129524
0.132526
-0.00444709
0.0020626
-0.0445665
0.0469509
-0.000630147
-0.0039781
0.00460825
-0.0759319
0.0746891
0.00124282
-0.00440705
0.00448218
-0.422902
0.422827
-0.00305915
0.00103732
-0.594018
0.596039
0.00288964
-0.00675412
-0.725775
0.729639
0.0112291
-0.0156932
-0.844405
0.848869
0.0204751
-0.0252842
-0.966351
0.97116
0.0299939
-0.0341423
-1.1011
1.10525
0.0386534
-0.042167
-1.24815
1.25166
0.0453104
-0.0477894
-1.40611
1.40859
0.0491234
-0.0489552
-1.57469
1.57452
0.0472253
-0.0438523
-1.47499
1.47161
0.0397159
-0.0342048
-1.16733
1.16182
0.0285322
-0.0216314
-0.935328
0.928427
0.0149159
-0.00776242
-0.750038
0.742884
0.00161695
0.00372161
-0.5845
0.579161
-0.0070508
0.00901178
-0.420507
0.418546
-0.00944015
0.0084479
-0.262076
0.263069
-0.00686031
0.00482467
-0.133457
0.135492
-0.00306847
0.00144891
-0.0480429
0.0496624
-0.000465472
-0.00485705
0.00532252
-0.0759441
0.0749048
0.00103929
-0.00318001
0.00303896
-0.426109
0.42625
-0.00182078
-0.000144977
-0.600723
0.602688
0.00381793
-0.00757044
-0.733875
0.737628
0.0118783
-0.0159481
-0.853127
0.857197
0.0208412
-0.0248634
-0.975411
0.979433
0.0295373
-0.0335202
-1.10956
1.11354
0.0379597
-0.0417298
-1.25519
1.25896
0.0452468
-0.0476026
-1.4109
1.41326
0.0493413
-0.0495591
-1.57431
1.57453
0.0483572
-0.0451205
-1.46806
1.46482
0.0412583
-0.036038
-1.15633
1.15111
0.0307825
-0.024431
-0.921348
0.914997
0.0185595
-0.012224
-0.735555
0.729219
0.00692796
-0.00210835
-0.572884
0.568065
-0.00114504
0.00305445
-0.414219
0.412309
-0.0038649
0.00370846
-0.261438
0.261595
-0.00315683
0.00220027
-0.135507
0.136464
-0.00137874
0.00068385
-0.049942
0.0506369
-0.000231892
-0.00539335
0.00562524
-0.0762179
0.0754952
0.000722642
-0.00206323
0.00152064
-0.429372
0.429915
-0.000511996
-0.00166937
-0.606556
0.608738
0.00491561
-0.00851209
-0.741443
0.74504
0.0126272
-0.0168045
-0.861123
0.8653
0.0210673
-0.0252317
-0.983661
0.987825
0.029866
-0.033661
-1.11796
1.12175
0.0382292
-0.0420047
-1.26257
1.26635
0.0456388
-0.0485514
-1.41605
1.41897
0.0507591
-0.0511737
-1.57477
1.57518
0.0500745
-0.0473687
-1.46167
1.45897
0.0439237
-0.0390296
-1.14573
1.14083
0.0341125
-0.0285522
-0.908633
0.903073
0.0229887
-0.0175288
-0.722698
0.717238
0.0128168
-0.00829699
-0.562722
0.558202
0.005175
-0.00274564
-0.407954
0.405524
0.00144108
-0.000669328
-0.259369
0.258597
0.000326838
-0.000117936
-0.135452
0.135243
-4.89776e-05
0.000132666
-0.0502194
0.0501357
-9.16032e-05
-0.00550943
0.00560103
-0.0769005
0.0763298
0.000570693
-0.00110745
0.000679478
-0.432813
0.433241
0.000910445
-0.00293165
-0.612488
0.614509
0.00627667
-0.00971395
-0.748454
0.751892
0.0136381
-0.0173875
-0.869132
0.872882
0.0217458
-0.0255862
-0.991993
0.995833
0.0301747
-0.0344189
-1.12601
1.13025
0.0386688
-0.0428067
-1.2702
1.27434
0.0468861
-0.0498908
-1.4218
1.42481
0.052417
-0.0535066
-1.57578
1.57687
0.0527187
-0.05051
-1.45607
1.45386
0.0472148
-0.0427974
-1.13595
1.13153
0.0384007
-0.033238
-0.897178
0.892015
0.0283257
-0.0232994
-0.711318
0.706291
0.0189381
-0.0145218
-0.553051
0.548635
0.01118
-0.00836807
-0.401311
0.398499
0.00630509
-0.00466802
-0.255649
0.254012
0.00333875
-0.00203406
-0.133332
0.132028
0.00103702
-0.000304382
-0.0489853
0.0482527
1.73532e-05
-0.0052716
0.00525424
-0.0778467
0.0774559
0.000390776
-8.79279e-05
-0.000555459
-0.436346
0.43699
0.0020483
-0.00432549
-0.617963
0.62024
0.00753673
-0.0107718
-0.755152
0.758387
0.0147294
-0.0182922
-0.876588
0.880151
0.0224702
-0.0264242
-1.00015
1.0041
0.0309261
-0.0351571
-1.13436
1.13859
0.039656
-0.0438434
-1.27842
1.28261
0.0481158
-0.0518384
-1.4281
1.43183
0.0547412
-0.056032
-1.57786
1.57915
0.0558308
-0.0538677
-1.4515
1.44954
0.0511055
-0.0472566
-1.12705
1.1232
0.0430343
-0.0382775
-0.886625
0.881868
0.033749
-0.0289227
-0.700907
0.696081
0.0248454
-0.02043
-0.543898
0.539483
0.0169454
-0.0135242
-0.394058
0.390636
0.0108543