/*--------------------------------*- C++ -*----------------------------------*\
| =========                 |                                                 |
| \\      /  F ield         | OpenFOAM: The Open Source CFD Toolbox           |
|  \\    /   O peration     | Version:  4.0                                   |
|   \\  /    A nd           | Web:      www.OpenFOAM.org                      |
|    \\/     M anipulation  |                                                 |
\*---------------------------------------------------------------------------*/
FoamFile
{
    version     2.0;
    format      ascii;
    class       volScalarField;
    location    "2";
    object      p;
}
// * * * * * * * * * * * * * * * * * * * * * * * * * * * * * * * * * * * * * //

dimensions      [0 2 -2 0 0 0 0];

internalField   nonuniform List<scalar> 
8800
(
1.16892
1.12231
1.08805
1.06209
1.04339
1.02986
1.01989
1.01255
1.00752
1.00512
1.00615
1.01016
1.0165
1.02518
1.03682
1.05272
1.07478
1.10509
1.14351
1.2024
1.00829
1.01561
1.02275
1.02541
1.02384
1.0191
1.01306
1.00716
1.0023
0.999083
0.99846
1.00078
1.0051
1.01071
1.01691
1.02257
1.02599
1.02547
1.0209
1.01161
1.00124
1.00504
1.00764
1.00922
1.00917
1.0075
1.00461
1.00135
0.998552
0.99709
0.997798
1.0003
1.00363
1.00693
1.00937
1.01036
1.00955
1.00746
1.00449
1.00224
0.998433
0.998794
0.999389
0.999923
1.00004
0.999658
0.998671
0.997162
0.995613
0.994788
0.995324
0.996902
0.998733
1.00018
1.00095
1.00114
1.00083
1.00024
0.999755
0.999594
0.990104
0.990234
0.990323
0.99033
0.990176
0.989779
0.989102
0.988219
0.987345
0.986899
0.987347
0.988432
0.989609
0.990582
0.991235
0.991573
0.991672
0.99163
0.991526
0.991444
0.982415
0.982491
0.982556
0.982592
0.982559
0.982413
0.982122
0.981711
0.981306
0.981176
0.981579
0.982323
0.98307
0.983647
0.984008
0.984185
0.984232
0.984209
0.984158
0.984114
0.974758
0.974796
0.974826
0.974843
0.974832
0.974778
0.974669
0.974521
0.974409
0.974494
0.974908
0.97549
0.976027
0.976432
0.976693
0.976836
0.976898
0.976909
0.976894
0.976871
0.967199
0.96722
0.967244
0.967267
0.967288
0.967303
0.967315
0.967346
0.967432
0.967691
0.968158
0.96868
0.969124
0.96945
0.969661
0.969784
0.969844
0.969864
0.969861
0.969847
0.959652
0.959661
0.959684
0.959717
0.959764
0.959833
0.959935
0.960092
0.960345
0.960763
0.961322
0.961861
0.962286
0.962591
0.96279
0.962909
0.962972
0.962999
0.963003
0.962994
0.952047
0.952059
0.952084
0.952129
0.952203
0.95232
0.952501
0.952773
0.953177
0.953762
0.954452
0.955059
0.955526
0.95585
0.956062
0.95619
0.956262
0.956295
0.956305
0.956298
0.944349
0.944356
0.944388
0.944448
0.944552
0.944721
0.944981
0.945372
0.945936
0.946715
0.947583
0.948317
0.948857
0.94923
0.949474
0.949625
0.94971
0.949753
0.949768
0.949762
0.936502
0.936509
0.936549
0.936628
0.936766
0.936992
0.937344
0.937869
0.938619
0.939633
0.940734
0.941642
0.942303
0.942756
0.943052
0.943235
0.94334
0.943393
0.943414
0.943408
0.92845
0.928457
0.928508
0.92861
0.928791
0.929088
0.929551
0.930239
0.931217
0.932525
0.933926
0.935067
0.935891
0.936455
0.936823
0.93705
0.937182
0.93725
0.937277
0.93727
0.920124
0.920132
0.920197
0.92033
0.920566
0.920952
0.921554
0.922447
0.92371
0.925392
0.927178
0.928624
0.929662
0.93037
0.930832
0.931118
0.931284
0.931371
0.931405
0.931397
0.911438
0.91145
0.911534
0.911706
0.912011
0.912513
0.913293
0.914448
0.916077
0.918234
0.920514
0.922349
0.923663
0.924558
0.925141
0.925502
0.925712
0.925822
0.925866
0.925856
0.902284
0.902299
0.902409
0.902633
0.90303
0.903682
0.904693
0.906187
0.908285
0.911052
0.91396
0.916292
0.917957
0.919089
0.919826
0.920282
0.920546
0.920684
0.92074
0.920727
0.892514
0.892535
0.892679
0.892973
0.893492
0.894342
0.895656
0.897591
0.900295
0.903843
0.90755
0.91051
0.912619
0.914049
0.914978
0.915554
0.915888
0.916063
0.916134
0.916117
0.881935
0.881965
0.882156
0.882543
0.883226
0.884339
0.886054
0.888567
0.892059
0.896608
0.90133
0.905082
0.907746
0.909552
0.910724
0.911449
0.91187
0.912089
0.912178
0.912157
0.870284
0.870327
0.870584
0.8711
0.872006
0.873475
0.875727
0.879005
0.883522
0.889352
0.895354
0.900097
0.903458
0.905733
0.907209
0.908121
0.908651
0.908927
0.909037
0.90901
0.857194
0.857258
0.857609
0.858307
0.859523
0.861485
0.864466
0.868764
0.87462
0.882087
0.889694
0.895669
0.899894
0.902752
0.904608
0.905757
0.906423
0.906769
0.906908
0.906873
0.84214
0.842242
0.842733
0.843696
0.84536
0.848017
0.852009
0.857683
0.865293
0.87484
0.884437
0.891928
0.897219
0.900806
0.903139
0.904587
0.905428
0.905866
0.906041
0.905996
0.824347
0.824515
0.825227
0.826598
0.828934
0.832609
0.838034
0.845591
0.855499
0.86766
0.879689
0.889017
0.895614
0.900109
0.903052
0.904888
0.905959
0.906518
0.906742
0.906686
0.802596
0.802893
0.803979
0.806023
0.80943
0.814663
0.822181
0.832336
0.845239
0.860632
0.875562
0.88707
0.895248
0.900881
0.904617
0.906977
0.90837
0.909105
0.909403
0.909335
0.774851
0.775416
0.777209
0.78048
0.785737
0.793483
0.804125
0.817867
0.834609
0.853887
0.872165
0.886181
0.896236
0.903297
0.908101
0.911223
0.913115
0.914138
0.914563
0.914488
0.737389
0.738585
0.741998
0.747854
0.756574
0.7685
0.783796
0.802379
0.823869
0.847622
0.86959
0.886364
0.898569
0.907392
0.913654
0.917949
0.920724
0.922325
0.92303
0.922962
0.682324
0.685942
0.694162
0.70596
0.721208
0.739857
0.76174
0.786483
0.813507
0.842101
0.867872
0.887484
0.902001
0.912877
0.921038
0.927104
0.931483
0.934445
0.936028
0.936066
0.591038
0.612373
0.633149
0.656206
0.681485
0.709145
0.739037
0.770718
0.803613
0.837119
0.866635
0.8891
0.906113
0.919401
0.930035
0.93872
0.945948
0.951982
0.957014
0.96013
0.497753
0.540117
0.573531
0.607785
0.64316
0.679762
0.717428
0.755788
0.794317
0.832511
0.865632
0.890877
0.910336
0.926017
0.93907
0.950238
0.959997
0.968537
0.97735
0.983743
0.438859
0.483404
0.524118
0.566326
0.60966
0.653824
0.69837
0.742703
0.786104
0.827944
0.863311
0.889894
0.910354
0.926889
0.940638
0.952268
0.962227
0.970802
0.979051
0.984187
0.395241
0.44261
0.486871
0.533518
0.582129
0.631967
0.682102
0.731458
0.778856
0.823292
0.859592
0.886128
0.906245
0.922389
0.935754
0.947008
0.956599
0.964799
0.972613
0.97735
0.360497
0.409645
0.456853
0.507106
0.559885
0.61426
0.668968
0.72247
0.773021
0.818984
0.854889
0.880053
0.898708
0.913595
0.925972
0.936467
0.945469
0.953239
0.960531
0.964885
0.331336
0.382205
0.431838
0.485086
0.541417
0.599693
0.658378
0.715465
0.768557
0.815197
0.849529
0.872097
0.888253
0.901121
0.911987
0.921399
0.929628
0.93687
0.94364
0.947653
0.305813
0.358387
0.410197
0.466179
0.52571
0.587535
0.649863
0.710228
0.765525
0.812247
0.843969
0.862717
0.875283
0.885302
0.894095
0.902058
0.909322
0.91592
0.922142
0.925898
0.282423
0.336872
0.390731
0.449314
0.511885
0.577109
0.642945
0.706527
0.763952
0.810447
0.838698
0.852363
0.860114
0.866291
0.872316
0.878416
0.884465
0.890357
0.895814
0.899407
0.260575
0.31659
0.372575
0.433714
0.499263
0.567824
0.637191
0.70409
0.763827
0.810129
0.834271
0.841541
0.843014
0.844116
0.846481
0.850117
0.854579
0.85946
0.864425
0.867721
0.239095
0.297025
0.355091
0.418774
0.487272
0.559196
0.632183
0.702639
0.765083
0.811579
0.831286
0.830841
0.824296
0.818759
0.816293
0.816711
0.819152
0.822821
0.82712
0.83014
0.217981
0.277641
0.337852
0.404041
0.475508
0.550799
0.627531
0.701838
0.76758
0.815007
0.830419
0.821004
0.804372
0.79017
0.781361
0.777567
0.777429
0.779596
0.783112
0.785845
0.196618
0.258183
0.320488
0.389184
0.4636
0.542303
0.622882
0.701369
0.771077
0.820539
0.83233
0.812939
0.783796
0.75832
0.741147
0.731894
0.728472
0.728818
0.731397
0.733866
0.175005
0.238494
0.302858
0.374021
0.45133
0.533422
0.617927
0.70086
0.775229
0.828106
0.837655
0.807746
0.763329
0.72317
0.694957
0.678646
0.671244
0.669205
0.670953
0.673267
0.1527
0.218332
0.284801
0.358402
0.438554
0.52398
0.612401
0.699966
0.779647
0.837485
0.84689
0.80673
0.744023
0.6846
0.64167
0.616317
0.604188
0.600355
0.601184
0.60351
0.130013
0.197795
0.266334
0.342311
0.425215
0.513855
0.606136
0.698396
0.783871
0.848211
0.860277
0.811314
0.727288
0.642249
0.579351
0.542571
0.526119
0.521168
0.52174
0.52451
0.10695
0.176886
0.24747
0.325771
0.411304
0.503004
0.598995
0.695885
0.787445
0.859658
0.877673
0.822987
0.715184
0.595344
0.503008
0.453633
0.434781
0.430984
0.433515
0.437881
0.0837805
0.155767
0.228316
0.308841
0.396879
0.491465
0.590908
0.692276
0.789965
0.871048
0.898493
0.842981
0.710525
0.54388
0.405483
0.338346
0.323349
0.329814
0.340132
0.348489
0.0606527
0.134562
0.209023
0.291651
0.382035
0.479291
0.581942
0.687468
0.791109
0.881576
0.921545
0.871907
0.717101
0.483567
0.269823
0.172928
0.180798
0.219908
0.252911
0.270256
0.0372303
0.113365
0.189736
0.274369
0.366887
0.466551
0.57212
0.681452
0.790664
0.890488
0.945204
0.909121
0.739789
0.417798
0.0559752
-0.104108
-0.0228271
0.114052
0.206487
0.24044
0.0141436
0.092324
0.170616
0.257157
0.351595
0.453409
0.561556
0.674269
0.788466
0.897151
0.96759
0.95217
0.783008
0.34921
-0.337912
-0.690256
-0.379984
0.0365459
0.248587
0.285695
-0.00896162
0.0716163
0.151839
0.240032
0.336183
0.439952
0.550355
0.665939
0.784508
0.901212
0.987148
0.997547
0.849435
0.285081
-1.11671
-1.98614
-1.02062
-0.0744448
0.407499
0.565014
-0.0319477
0.0514174
0.133481
0.222933
0.320422
0.425874
0.538214
0.656189
0.778434
0.902145
1.00262
1.04123
0.936601
0.30399
-1.63404
-3.09783
-1.84674
-0.559383
-0.0374437
0.0707834
-0.0544479
0.0323734
0.115793
0.206094
0.304663
0.411527
0.525231
0.645291
0.770464
0.899576
1.01147
1.07356
1.01527
0.507225
-1.08659
-2.16013
-1.58024
-0.9412
-0.508879
-0.246064
-0.0771103
0.0157554
0.0996228
0.190176
0.28964
0.397526
0.511807
0.633502
0.761003
0.893907
1.01301
1.08905
1.0613
0.72909
-0.21152
-0.86655
-0.752892
-0.548692
-0.421786
-0.310433
-0.189425
0.00218687
0.0840064
0.174046
0.273971
0.382539
0.49825
0.621005
0.749506
0.88419
1.00646
1.09049
1.09115
0.871028
0.326183
-0.109894
-0.311147
-0.318189
-0.300073
-0.276026
-0.029579
-0.0143994
0.0600696
0.149819
0.250661
0.360391
0.476918
0.600682
0.729408
0.863528
0.983244
1.0575
1.04854
0.891074
0.562875
0.219111
-0.0280462
-0.175666
-0.279329
-0.300952
-0.103041
-0.0363634
0.0398869
0.130602
0.232411
0.342832
0.460534
0.584077
0.712027
0.843865
0.957747
1.02164
1.00595
0.863766
0.588713
0.26088
-0.0098124
-0.209192
-0.367045
-0.397874
-0.143514
-0.0666417
0.0153521
0.108568
0.211669
0.322824
0.440836
0.564648
0.693795
0.825335
0.933427
0.985414
0.954726
0.810329
0.560698
0.230369
-0.0748283
-0.334904
-0.57862
-0.591636
-0.185169
-0.0986249
-0.0108916
0.0853844
0.189733
0.302316
0.42205
0.546892
0.673727
0.799161
0.898015
0.937541
0.895238
0.744667
0.496242
0.150027
-0.215796
-0.560737
-0.951585
-0.98613
-0.224457
-0.130949
-0.038662
0.0605964
0.167194
0.28121
0.400767
0.524452
0.650726
0.774989
0.868519
0.898697
0.84748
0.697037
0.450073
0.10122
-0.349601
-0.810593
-1.37641
-1.80192
-0.261135
-0.163708
-0.0679542
0.0337835
0.142613
0.258113
0.37932
0.50437
0.629903
0.749624
0.835407
0.857734
0.801746
0.656232
0.406927
0.0763023
-0.405175
-1.00417
-1.41045
-1.89435
-0.296712
-0.197254
-0.0988071
0.00590575
0.117132
0.234238
0.355963
0.480221
0.604037
0.721116
0.802643
0.821197
0.76722
0.634285
0.404083
0.0970638
-0.319281
-0.856184
-1.25963
-1.30636
-0.330736
-0.230692
-0.130591
-0.0242573
0.0885514
0.206943
0.329737
0.4546
0.578061
0.692849
0.770803
0.788184
0.741454
0.62827
0.448716
0.190746
-0.137611
-0.560806
-0.927126
-0.916031
-0.363413
-0.264221
-0.163797
-0.0558966
0.058699
0.178592
0.302327
0.427415
0.550276
0.663578
0.740239
0.760535
0.726927
0.645553
0.5232
0.359622
0.155786
-0.061253
-0.175584
-0.154456
-0.39701
-0.298423
-0.197818
-0.0888935
0.0268854
0.148031
0.272953
0.398872
0.521997
0.634984
0.712576
0.739527
0.723856
0.678021
0.615781
0.549409
0.491596
0.461921
0.472947
0.498283
-0.433535
-0.334843
-0.233953
-0.123922
-0.00662972
0.116239
0.242638
0.369708
0.49349
0.607524
0.688256
0.725146
0.729349
0.715868
0.699029
0.690436
0.697639
0.724979
0.764705
0.783744
-0.474257
-0.373778
-0.271627
-0.160093
-0.0410857
0.0835909
0.211619
0.340115
0.465287
0.581741
0.667789
0.716497
0.739894
0.752245
0.764509
0.783105
0.809815
0.842514
0.874952
0.890092
-0.518374
-0.415384
-0.310873
-0.197299
-0.0762744
0.0504261
0.180304
0.310622
0.437938
0.557869
0.651151
0.711851
0.752046
0.783424
0.813224
0.844264
0.876352
0.907589
0.935014
0.948444
-0.564065
-0.458264
-0.350922
-0.234965
-0.111625
0.0172136
0.149184
0.281703
0.411808
0.536018
0.638148
0.710065
0.763698
0.808424
0.848721
0.886181
0.920697
0.951626
0.977688
0.98979
-0.609629
-0.500941
-0.390806
-0.272271
-0.14651
-0.0153888
0.118892
0.253903
0.38722
0.516686
0.626711
0.709058
0.773226
0.827008
0.873723
0.914769
0.950565
0.981388
1.00667
1.01819
-0.652721
-0.541856
-0.429237
-0.308132
-0.179976
-0.0465501
0.0900557
0.227686
0.364438
0.49931
0.616581
0.707698
0.779685
0.839458
0.890101
0.93316
0.969637
1.00026
1.02488
1.03628
-0.692004
-0.579319
-0.464449
-0.341184
-0.210859
-0.0753351
0.0634222
0.203518
0.343529
0.483226
0.607098
0.704911
0.782418
0.846078
0.898998
0.943159
0.979859
1.01029
1.03416
1.04544
-0.725535
-0.611582
-0.494844
-0.369738
-0.237794
-0.100647
0.0397678
0.181771
0.324389
0.468031
0.596991
0.699603
0.780852
0.846858
0.90107
0.945671
0.982363
1.01253
1.03559
1.04712
-0.750588
-0.636122
-0.518145
-0.392052
-0.259142
-0.121237
0.0198712
0.162846
0.306975
0.453083
0.585373
0.69093
0.774347
0.841628
0.896405
0.941129
0.977654
1.00751
1.02992
1.04162
-0.763944
-0.649873
-0.531787
-0.405719
-0.273102
-0.13579
0.00470214
0.14711
0.291087
0.437782
0.571291
0.677986
0.762174
0.829864
0.884739
0.929382
0.965717
0.995356
1.01736
1.02906
-0.762138
-0.648963
-0.532209
-0.407787
-0.277335
-0.142559
-0.00485383
0.134891
0.276565
0.421453
0.553793
0.659719
0.743351
0.810618
0.865174
0.909593
0.945764
0.975202
0.996805
1.00861
-0.738115
-0.629274
-0.515347
-0.394831
-0.269086
-0.13964
-0.00753234
0.126683
0.263232
0.403448
0.531894
0.634884
0.716429
0.782264
0.83594
0.879875
0.915861
0.945303
0.966883
0.97863
-0.683596
-0.58241
-0.475206
-0.362429
-0.245369
-0.125181
-0.00236493
0.122908
0.251024
0.383202
0.504611
0.602083
0.679472
0.742306
0.793987
0.836708
0.872087
0.90133
0.92287
0.935021
-0.590806
-0.499512
-0.405733
-0.306389
-0.20367
-0.0977441
0.0113529
0.123745
0.239785
0.360308
0.471194
0.559984
0.630315
0.687485
0.734773
0.774233
0.807206
0.834945
0.857372
0.869948
-0.440232
-0.374357
-0.301724
-0.224709
-0.143229
-0.0571238
0.0337654
0.12942
0.229801
0.335019
0.431733
0.508331
0.567946
0.615499
0.654148
0.685848
0.711492
0.731516
0.747237
0.755772
-0.217823
-0.195007
-0.161162
-0.118355
-0.0665869
-0.00602783
0.0628769
0.139635
0.223579
0.31392
0.397795
0.463789
0.514114
0.552793
0.582604
0.60573
0.624172
0.63914
0.650247
0.655261
-0.0510587
-0.0462392
-0.035712
-0.0175444
0.00979458
0.0472854
0.0952402
0.153366
0.22087
0.296497
0.368207
0.424598
0.466767
0.498108
0.521066
0.537337
0.548063
0.554407
0.557684
0.558975
0.0332524
0.0350427
0.0404105
0.0506168
0.0670276
0.0911739
0.124408
0.167496
0.220376
0.282035
0.341741
0.388708
0.423227
0.448015
0.465248
0.476762
0.484106
0.488461
0.490637
0.491314
0.0833009
0.0846017
0.0879748
0.0944717
0.105375
0.122077
0.145956
0.17816
0.219241
0.268723
0.317576
0.356097
0.384097
0.403848
0.417332
0.426179
0.431671
0.434817
0.436388
0.436935
0.116041
0.117042
0.119469
0.124017
0.131649
0.143552
0.161032
0.185302
0.217153
0.256487
0.295953
0.327183
0.349751
0.36549
0.376081
0.382932
0.38715
0.389573
0.3908
0.39124
0.137154
0.13791
0.139693
0.143008
0.148584
0.157351
0.170399
0.188847
0.213554
0.244646
0.276257
0.30138
0.319485
0.332037
0.340432
0.345833
0.349146
0.351046
0.352011
0.352358
0.150146
0.150721
0.152061
0.154537
0.158701
0.165279
0.175158
0.189294
0.20849
0.232991
0.258168
0.278263
0.292735
0.30274
0.309409
0.313687
0.316307
0.31781
0.318574
0.318849
0.157195
0.157636
0.158654
0.160531
0.16369
0.168695
0.176251
0.187147
0.202092
0.221366
0.241338
0.257345
0.26888
0.276847
0.282149
0.285546
0.287624
0.288816
0.289422
0.289639
0.159809
0.160148
0.160929
0.162368
0.164788
0.168629
0.17445
0.182891
0.194547
0.209697
0.2255
0.238211
0.247382
0.253715
0.257927
0.260626
0.262278
0.263224
0.263703
0.263874
0.159061
0.159324
0.159926
0.161035
0.162903
0.165871
0.170379
0.176942
0.186048
0.197951
0.210432
0.220503
0.22778
0.232808
0.236152
0.238292
0.239599
0.240347
0.240728
0.240863
0.155743
0.155947
0.156414
0.157274
0.158721
0.161024
0.164529
0.169644
0.176767
0.186119
0.195964
0.203931
0.209694
0.213678
0.216327
0.218023
0.219061
0.219653
0.219953
0.220058
0.150443
0.150601
0.150964
0.151632
0.152758
0.154551
0.157283
0.161279
0.166857
0.174204
0.181962
0.188254
0.19281
0.195963
0.198061
0.199403
0.200222
0.200692
0.20093
0.201013
0.143607
0.143731
0.144014
0.144535
0.145413
0.146811
0.148945
0.152069
0.156439
0.162209
0.168318
0.173282
0.176882
0.179372
0.18103
0.182092
0.182742
0.183112
0.183299
0.183364
0.135579
0.135675
0.135896
0.136302
0.136988
0.138081
0.139749
0.142194
0.14562
0.150151
0.154957
0.158868
0.161707
0.163674
0.164982
0.165818
0.166327
0.166618
0.166766
0.166817
0.126621
0.126696
0.126868
0.127186
0.127722
0.128576
0.129881
0.131794
0.134479
0.138035
0.141813
0.14489
0.147126
0.148673
0.149703
0.150363
0.150767
0.150998
0.151114
0.151154
0.116937
0.116996
0.117131
0.117379
0.117797
0.118465
0.119485
0.120984
0.123088
0.125875
0.128841
0.131259
0.133015
0.134232
0.135044
0.135563
0.13588
0.136061
0.136153
0.136184
0.106688
0.106734
0.106838
0.107032
0.107359
0.107881
0.108678
0.109848
0.111493
0.113675
0.115999
0.117895
0.119275
0.120232
0.120868
0.121274
0.121522
0.121662
0.121733
0.121757
0.0959968
0.0960325
0.0961143
0.0962651
0.0965194
0.0969257
0.0975473
0.0984598
0.0997428
0.101447
0.103263
0.104746
0.105825
0.106572
0.10707
0.107389
0.107583
0.107693
0.107749
0.107769
0.0849616
0.0849892
0.0850527
0.0851693
0.0853663
0.0856817
0.0861647
0.0868741
0.0878713
0.0891959
0.0906069
0.091759
0.092596
0.093176
0.0935629
0.093811
0.0939632
0.0940502
0.0940932
0.0941077
0.0736599
0.0736809
0.0737294
0.0738199
0.0739726
0.0742153
0.0745863
0.0751323
0.0759
0.0769204
0.0780092
0.0788995
0.0795481
0.0799988
0.0802993
0.0804905
0.080606
0.0806721
0.0807057
0.080717
0.0621511
0.0621678
0.0622056
0.0622745
0.0623902
0.0625749
0.0628575
0.0632731
0.0638573
0.0646338
0.0654627
0.0661404
0.0666342
0.0669759
0.0672026
0.0673488
0.0674389
0.0674898
0.0675155
0.0675248
0.0504888
0.0505006
0.0505283
0.0505795
0.0506659
0.0508039
0.0510147
0.051324
0.051759
0.0523369
0.0529531
0.0534563
0.0538222
0.0540763
0.0542458
0.0543541
0.0544202
0.0544581
0.0544765
0.0544826
0.038708
0.038717
0.0387374
0.0387748
0.0388369
0.0389354
0.0390854
0.0393058
0.0396155
0.0400272
0.0404669
0.0408277
0.0410921
0.0412764
0.0413988
0.0414763
0.0415233
0.0415502
0.0415638
0.0415684
0.0268479
0.026856
0.0268703
0.0268953
0.0269363
0.0270016
0.0271007
0.027245
0.0274474
0.0277169
0.0280054
0.028242
0.0284131
0.0285318
0.0286126
0.0286659
0.0286985
0.0287165
0.0287252
0.0287284
0.0149357
0.0149395
0.0149485
0.0149622
0.0149861
0.0150217
0.0150746
0.0151518
0.01526
0.0154032
0.0155556
0.0156802
0.0157717
0.0158348
0.0158754
0.0159011
0.0159177
0.0159286
0.0159352
0.015938
0.00298579
0.00298454
0.0029838
0.00298523
0.00298789
0.00299222
0.00299991
0.00301186
0.00302924
0.00305366
0.00308456
0.00311364
0.00313566
0.00315117
0.00316302
0.00317162
0.00317714
0.00318056
0.0031828
0.00318426
-0.822178
-0.626595
-0.44487
-0.329732
-0.243226
-0.167414
-0.0668229
0.105408
0.361614
0.352658
-0.502308
-0.37369
-0.269702
-0.17569
-0.0872603
0.00765213
0.118554
0.235877
0.326687
0.320142
-0.254709
-0.172543
-0.0943751
-0.0161048
0.0608787
0.138768
0.214311
0.276939
0.311768
0.323079
-0.0586428
-0.00154408
0.0569788
0.116698
0.174282
0.228289
0.275104
0.310203
0.333546
0.35285
0.094848
0.135432
0.177932
0.220943
0.261355
0.297781
0.329019
0.35389
0.375106
0.39592
0.215527
0.243821
0.275642
0.306683
0.335593
0.361988
0.385527
0.406213
0.425538
0.445993
0.314509
0.336145
0.359417
0.382705
0.404832
0.425673
0.445048
0.462871
0.47971
0.497881
0.400407
0.417133
0.435448
0.453985
0.472234
0.489804
0.505999
0.520738
0.534234
0.547071
0.479602
0.493012
0.509378
0.526445
0.543243
0.558381
0.57111
0.581036
0.586535
0.588895
0.547477
0.561772
0.578589
0.59522
0.610752
0.624216
0.634683
0.640359
0.640272
0.636906
0.607266
0.630171
0.656729
0.682174
0.704207
0.720775
0.730437
0.731478
0.724119
0.720731
0.697489
0.743672
0.780124
0.804738
0.821644
0.834004
0.843325
0.849319
0.849042
0.855734
0.854063
0.880613
0.899676
0.917482
0.934575
0.949601
0.962121
0.973601
0.988526
1.00744
1.05406
1.06583
1.07973
1.0923
1.10176
1.11005
1.11884
1.12886
1.13927
1.15396
1.26051
1.26488
1.25184
1.23813
1.23204
1.23778
1.25633
1.2855
1.31566
1.34177
1.5688
1.43457
1.3576
1.3148
1.29741
1.30138
1.32792
1.3839
1.48677
1.71087
1.05758
1.06015
1.05897
1.052
1.04178
1.03145
1.02235
1.01488
1.00917
1.00551
1.0048
1.00741
1.01233
1.01908
1.02748
1.03735
1.04791
1.05704
1.06101
1.05839
1.0003
1.00439
1.00858
1.01042
1.01034
1.00855
1.00519
1.0011
0.997254
0.9946
0.99408
0.996063
0.999629
1.00386
1.0078
1.0105
1.01145
1.01067
1.00773
1.00294
1.00195
1.00293
1.00472
1.00619
1.0069
1.00658
1.00522
1.0032
1.00094
0.999256
0.998979
1.00038
1.00267
1.00507
1.00692
1.00791
1.00771
1.00661
1.00489
1.00337
0.993936
0.993962
0.994046
0.994152
0.994146
0.993888
0.993267
0.992235
0.991023
0.99005
0.98996
0.990952
0.992392
0.993739
0.994701
0.995204
0.995383
0.995337
0.995234
0.995183
0.986309
0.986382
0.986484
0.986561
0.986557
0.986407
0.986062
0.985518
0.984872
0.984371
0.984426
0.985142
0.986093
0.986948
0.987556
0.9879
0.988028
0.988017
0.987935
0.987846
0.978562
0.978591
0.978634
0.978666
0.978667
0.978611
0.97847
0.978238
0.977966
0.977803
0.977989
0.978561
0.979218
0.979775
0.980162
0.980387
0.980491
0.980517
0.980502
0.980473
0.970975
0.97099
0.971016
0.97104
0.971054
0.971049
0.971018
0.970966
0.970924
0.970993
0.9713
0.97182
0.972343
0.972764
0.973056
0.973232
0.973323
0.973359
0.97336
0.973346
0.963427
0.963432
0.963452
0.963478
0.963509
0.963547
0.963597
0.96367
0.963796
0.964042
0.964475
0.965016
0.965497
0.965865
0.966117
0.966274
0.966362
0.966402
0.966413
0.966407
0.955861
0.955866
0.955882
0.955911
0.955959
0.956034
0.956149
0.956323
0.956588
0.956995
0.95757
0.958188
0.95869
0.959066
0.959319
0.959478
0.95957
0.959616
0.959633
0.959633
0.948212
0.948212
0.948233
0.948273
0.948342
0.948454
0.948632
0.948902
0.949302
0.949878
0.950626
0.951369
0.951952
0.952368
0.952649
0.952827
0.952932
0.952988
0.953012
0.953015
0.940447
0.940446
0.940469
0.940519
0.940611
0.940766
0.941012
0.941386
0.941933
0.942701
0.943666
0.94459
0.945292
0.945789
0.946122
0.946333
0.94646
0.946529
0.94656
0.946566
0.932506
0.932502
0.932531
0.932595
0.932716
0.93292
0.933246
0.933743
0.934466
0.935469
0.936706
0.93787
0.938741
0.939355
0.939765
0.940026
0.940182
0.940268
0.940308
0.940317
0.924326
0.924321
0.924356
0.92444
0.924597
0.924864
0.92529
0.925937
0.926877
0.928173
0.929758
0.931233
0.93233
0.933098
0.933611
0.933937
0.934133
0.934242
0.934294
0.934306
0.915832
0.915825
0.915871
0.91598
0.916183
0.916529
0.917082
0.917922
0.919137
0.920806
0.922834
0.92471
0.926099
0.927069
0.927715
0.928125
0.928372
0.92851
0.928575
0.928591
0.906928
0.906919
0.906979
0.907119
0.907384
0.907834
0.908551
0.909638
0.911207
0.913353
0.915947
0.918336
0.920097
0.921324
0.92214
0.922659
0.922972
0.923145
0.923228
0.923248
0.897487
0.897476
0.897554
0.897738
0.898083
0.898669
0.899601
0.901009
0.903036
0.905794
0.909111
0.912151
0.914385
0.915938
0.916969
0.917624
0.918019
0.918238
0.918342
0.918367
0.88734
0.887327
0.887431
0.887673
0.888126
0.888892
0.890107
0.891938
0.89456
0.898107
0.902347
0.906212
0.90904
0.911003
0.912305
0.913132
0.913629
0.913905
0.914037
0.914069
0.876264
0.876248
0.876387
0.876709
0.877308
0.878317
0.879912
0.882301
0.885701
0.890268
0.895683
0.900586
0.904162
0.906638
0.90828
0.909321
0.909947
0.910294
0.910459
0.910498
0.863947
0.86393
0.864119
0.864552
0.865353
0.866697
0.868805
0.871942
0.876368
0.882251
0.889155
0.895358
0.899864
0.902981
0.905047
0.906357
0.907145
0.907581
0.907788
0.907837
0.849953
0.849936
0.850199
0.850794
0.851883
0.853696
0.856517
0.860669
0.866453
0.874035
0.882813
0.89063
0.896288
0.900199
0.902794
0.904443
0.905434
0.905984
0.906245
0.906305
0.83365
0.833638
0.834015
0.834854
0.836371
0.838865
0.842697
0.848249
0.855847
0.865616
0.87673
0.88652
0.893587
0.898482
0.901742
0.903821
0.905076
0.905773
0.906104
0.906181
0.814074
0.814081
0.814651
0.815882
0.818065
0.821595
0.82691
0.834434
0.844464
0.857023
0.870997
0.883157
0.891925
0.898033
0.902136
0.904777
0.906382
0.907278
0.907707
0.907808
0.789663
0.789728
0.790661
0.79258
0.795887
0.801085
0.808663
0.819008
0.832289
0.84835
0.865734
0.88066
0.891436
0.899029
0.904217
0.907617
0.909721
0.910916
0.911498
0.911644
0.757561
0.757833
0.759599
0.762916
0.768326
0.776391
0.78752
0.801904
0.819458
0.83978
0.861081
0.87911
0.892181
0.901561
0.908156
0.912637
0.915521
0.917229
0.918105
0.918366
0.711858
0.712972
0.717244
0.723896
0.733575
0.746705
0.763353
0.783342
0.806277
0.831549
0.857126
0.878458
0.894025
0.905473
0.913859
0.919896
0.924093
0.926857
0.92851
0.929184
0.643186
0.646565
0.658284
0.672773
0.690832
0.712341
0.736897
0.764056
0.793277
0.823909
0.853838
0.878436
0.896528
0.910201
0.920692
0.928794
0.935045
0.939869
0.943734
0.945327
0.554041
0.564895
0.589566
0.616967
0.64644
0.677779
0.710833
0.745338
0.780839
0.816774
0.851024
0.879007
0.899921
0.916274
0.929464
0.940308
0.949349
0.956977
0.963231
0.965415
0.472291
0.493123
0.528633
0.566533
0.605712
0.645922
0.68694
0.728401
0.769767
0.810437
0.848239
0.878678
0.90144
0.919471
0.93429
0.94672
0.957184
0.965968
0.973153
0.97678
0.422059
0.444044
0.483294
0.526439
0.571846
0.618656
0.666122
0.713481
0.75985
0.80433
0.844466
0.875944
0.899143
0.9174
0.932335
0.94477
0.955154
0.963782
0.970763
0.974491
0.382378
0.405959
0.448282
0.495132
0.544858
0.596491
0.64902
0.701233
0.751725
0.799059
0.840296
0.871403
0.893718
0.911071
0.925233
0.93705
0.946959
0.955222
0.961954
0.965797
0.350196
0.374825
0.419533
0.469371
0.522672
0.578348
0.635139
0.69145
0.745348
0.794716
0.835932
0.865362
0.885621
0.901152
0.913876
0.924635
0.933795
0.941549
0.947963
0.951855
0.322348
0.348216
0.39509
0.447573
0.503992
0.563208
0.623785
0.683757
0.740629
0.791469
0.831737
0.858261
0.875318
0.888108
0.898744
0.908008
0.91616
0.923243
0.929267
0.933112
0.297488
0.324513
0.373456
0.428419
0.487724
0.550259
0.614367
0.677806
0.737471
0.789491
0.828123
0.850585
0.863218
0.872225
0.880017
0.887297
0.894121
0.900367
0.905896
0.909604
0.274439
0.302692
0.353571
0.410929
0.47305
0.538757
0.606348
0.673229
0.735747
0.788964
0.825543
0.842854
0.849694
0.853689
0.857693
0.862345
0.867461
0.872656
0.877559
0.881093
0.252498
0.281886
0.334701
0.394409
0.459283
0.528166
0.59923
0.669678
0.735292
0.790002
0.824466
0.835666
0.835181
0.832634
0.83164
0.832827
0.835705
0.839539
0.843692
0.846954
0.230837
0.261478
0.316252
0.378317
0.445929
0.517973
0.5926
0.666782
0.73589
0.792661
0.825376
0.829718
0.820214
0.80921
0.801654
0.798285
0.798256
0.800361
0.803573
0.806527
0.209247
0.24106
0.297866
0.362259
0.4326
0.507825
0.586047
0.664195
0.737236
0.796908
0.828671
0.825813
0.805465
0.783645
0.767463
0.758128
0.754318
0.754229
0.756268
0.758815
0.187446
0.220543
0.279309
0.345979
0.419023
0.497408
0.57929
0.661564
0.739025
0.802541
0.834717
0.82488
0.791846
0.756253
0.728729
0.711556
0.702944
0.700142
0.700779
0.702921
0.165322
0.19963
0.26038
0.329331
0.405032
0.486528
0.572043
0.658558
0.74086
0.809282
0.843631
0.827876
0.780538
0.72745
0.684926
0.657474
0.642838
0.636913
0.636099
0.637989
0.142618
0.178302
0.241029
0.31222
0.390525
0.475057
0.564141
0.654926
0.742354
0.816663
0.855357
0.835746
0.773026
0.69782
0.635131
0.594001
0.572402
0.563429
0.56172
0.563213
0.119658
0.156607
0.221301
0.294673
0.375496
0.462941
0.555456
0.650423
0.743151
0.824159
0.86952
0.849257
0.771202
0.668129
0.577236
0.518004
0.489394
0.479003
0.477458
0.479561
0.0963656
0.134595
0.201253
0.276776
0.359991
0.45018
0.545971
0.644961
0.742934
0.831165
0.885438
0.868805
0.777294
0.639778
0.507049
0.423016
0.387891
0.380438
0.383879
0.389672
0.0731731
0.112496
0.181035
0.258615
0.344134
0.436877
0.535655
0.638432
0.741464
0.837133
0.902094
0.894152
0.793813
0.614785
0.419636
0.293239
0.255004
0.265018
0.286269
0.302462
0.0497827
0.0903621
0.160737
0.240316
0.327984
0.423108
0.524649
0.630851
0.738614
0.84156
0.918338
0.924181
0.823001
0.597547
0.302448
0.0927419
0.0602787
0.128901
0.201128
0.238217
0.0264174
0.0682963
0.140561
0.222048
0.31169
0.40898
0.513044
0.622327
0.734336
0.844104
0.932972
0.956755
0.865841
0.595325
0.131134
-0.271322
-0.276788
-0.0490984
0.149838
0.235773
0.00319635
0.0464177
0.120691
0.204044
0.295432
0.394619
0.500911
0.612943
0.72873
0.844559
0.94492
0.988903
0.920425
0.617472
-0.144827
-1.07831
-1.00441
-0.285781
0.197879
0.37921
-0.0198884
0.0247717
0.1012
0.186202
0.27907
0.379911
0.488092
0.602443
0.721549
0.842766
0.953776
1.01893
0.984283
0.681938
-0.486399
-2.49177
-2.26155
-0.747184
0.110324
0.397442
-0.0427387
0.00366958
0.0825185
0.168677
0.262637
0.364841
0.474674
0.590879
0.712677
0.838312
0.95836
1.04263
1.04393
0.788587
-0.383993
-2.46155
-2.44877
-1.36143
-0.601997
-0.255742
-0.0652672
-0.0159932
0.0648889
0.15151
0.246152
0.349371
0.460674
0.578477
0.702135
0.830812
0.95767
1.05624
1.08541
0.90912
0.0833034
-1.22095
-1.33656
-0.928577
-0.614357
-0.400196
-0.0911984
-0.0314308
0.0486558
0.134745
0.229841
0.333997
0.445871
0.565282
0.69033
0.820927
0.951347
1.05708
1.1013
0.993656
0.498544
-0.215689
-0.496517
-0.459923
-0.364545
-0.324833
-0.0295389
-0.00420007
0.0728206
0.162523
0.262782
0.371917
0.490182
0.613368
0.742227
0.876949
0.999219
1.08231
1.08518
0.903939
0.466062
0.081001
-0.136823
-0.236229
-0.270006
-0.273479
-0.0580277
-0.0377287
0.0250386
0.108004
0.203532
0.308757
0.422322
0.54275
0.669003
0.800993
0.931931
1.03617
1.08075