/*--------------------------------*- C++ -*----------------------------------*\
| =========                 |                                                 |
| \\      /  F ield         | OpenFOAM: The Open Source CFD Toolbox           |
|  \\    /   O peration     | Version:  4.0                                   |
|   \\  /    A nd           | Web:      www.OpenFOAM.org                      |
|    \\/     M anipulation  |                                                 |
\*---------------------------------------------------------------------------*/
FoamFile
{
    version     2.0;
    format      ascii;
    class       volVectorField;
    location    "2";
    object      U;
}
// * * * * * * * * * * * * * * * * * * * * * * * * * * * * * * * * * * * * * //

dimensions      [0 1 -1 0 0 0 0];

internalField   nonuniform List<vector> 
8800
(
(0.972721 -0.0883204 0)
(1.01148 -0.0593983 0)
(1.00163 -0.0322376 0)
(0.998407 -0.0176386 0)
(0.997197 -0.00997876 0)
(0.996678 -0.00600724 0)
(0.996447 -0.00378996 0)
(0.996371 -0.00236832 0)
(0.996386 -0.00125733 0)
(0.996452 -0.000227109 0)
(0.996396 0.000819264 0)
(0.996353 0.00185489 0)
(0.996386 0.0030625 0)
(0.996536 0.00479664 0)
(0.996882 0.00771716 0)
(0.997663 0.0132197 0)
(0.999575 0.0238521 0)
(1.00507 0.043146 0)
(1.01883 0.0765054 0)
(0.765861 0.0484438 0)
(0.434864 -0.0100088 0)
(1.05105 -0.0389015 0)
(1.06969 -0.0390174 0)
(1.04405 -0.0366753 0)
(1.02631 -0.0310701 0)
(1.01564 -0.0238498 0)
(1.00975 -0.016977 0)
(1.00665 -0.0113123 0)
(1.00508 -0.00668563 0)
(1.00442 -0.00264274 0)
(1.0043 0.00123129 0)
(1.00465 0.00513722 0)
(1.00572 0.00934337 0)
(1.00794 0.0143551 0)
(1.01224 0.0205819 0)
(1.02027 0.0277449 0)
(1.03425 0.0343636 0)
(1.05616 0.0384563 0)
(1.0764 0.0385093 0)
(0.899002 0.0340427 0)
(0.356827 0.000232176 0)
(1.04825 -0.0136038 0)
(1.04689 -0.0205358 0)
(1.03587 -0.0230215 0)
(1.02604 -0.0220752 0)
(1.01838 -0.0191767 0)
(1.01298 -0.0150387 0)
(1.00946 -0.0104226 0)
(1.00742 -0.00572043 0)
(1.00652 -0.000652998 0)
(1.00676 0.00441019 0)
(1.00814 0.00916761 0)
(1.01082 0.0137032 0)
(1.01517 0.0180052 0)
(1.02161 0.0214919 0)
(1.03036 0.0233475 0)
(1.04109 0.0227532 0)
(1.05125 0.0178804 0)
(1.00508 0.00885781 0)
(0.356531 -0.000219551 0)
(0.358216 4.83029e-05 0)
(1.02775 -0.00306488 0)
(1.03353 -0.00685562 0)
(1.03019 -0.0100371 0)
(1.02544 -0.0119757 0)
(1.02021 -0.0123602 0)
(1.01552 -0.0110165 0)
(1.0119 -0.00832607 0)
(1.00946 -0.00474621 0)
(1.00843 -0.000382534 0)
(1.00868 0.00407068 0)
(1.01036 0.00801113 0)
(1.01311 0.0110254 0)
(1.01724 0.012885 0)
(1.02228 0.0131926 0)
(1.02728 0.0117208 0)
(1.03125 0.00899059 0)
(1.03313 0.00526166 0)
(0.985749 0.00146331 0)
(0.357765 -3.75386e-05 0)
(0.356531 -5.67389e-05 0)
(1.02038 -0.0016792 0)
(1.02681 -0.00337814 0)
(1.02563 -0.00503128 0)
(1.02365 -0.0063193 0)
(1.02122 -0.00685684 0)
(1.01856 -0.00648151 0)
(1.01602 -0.00511354 0)
(1.01398 -0.00280386 0)
(1.01305 0.000184605 0)
(1.01318 0.00324543 0)
(1.01459 0.00567146 0)
(1.01651 0.00728582 0)
(1.01904 0.00788597 0)
(1.02155 0.00751317 0)
(1.0237 0.00633005 0)
(1.02524 0.00463825 0)
(1.02547 0.00277232 0)
(0.978955 0.00104926 0)
(0.355782 6.3188e-05 0)
(0.355512 -2.70504e-05 0)
(1.01694 -0.000856315 0)
(1.02363 -0.00165316 0)
(1.02306 -0.00248697 0)
(1.02204 -0.00321944 0)
(1.02065 -0.00364658 0)
(1.01895 -0.00358349 0)
(1.01716 -0.00286524 0)
(1.01558 -0.00142356 0)
(1.01463 0.000596994 0)
(1.01466 0.00268402 0)
(1.01564 0.00416502 0)
(1.01699 0.00490875 0)
(1.01856 0.00496771 0)
(1.01998 0.00444941 0)
(1.02109 0.0035631 0)
(1.02183 0.00252363 0)
(1.02156 0.00148667 0)
(0.975283 0.000573442 0)
(0.354646 3.47808e-05 0)
(0.354958 -1.07236e-05 0)
(1.01526 -0.000397567 0)
(1.02208 -0.000786197 0)
(1.0218 -0.00119368 0)
(1.02124 -0.00156161 0)
(1.02042 -0.00178732 0)
(1.01935 -0.00174493 0)
(1.01811 -0.00129767 0)
(1.01692 -0.000364779 0)
(1.01606 0.000999579 0)
(1.01592 0.00236565 0)
(1.01646 0.0032336 0)
(1.01727 0.00353071 0)
(1.01815 0.00337481 0)
(1.01891 0.00289825 0)
(1.01947 0.00225803 0)
(1.01982 0.00157292 0)
(1.01934 0.000928229 0)
(0.973184 0.000366253 0)
(0.353877 2.55328e-05 0)
(0.354751 -1.80206e-06 0)
(1.0145 -0.00013677 0)
(1.02137 -0.000288575 0)
(1.02121 -0.000445725 0)
(1.02087 -0.000573529 0)
(1.02034 -0.000620278 0)
(1.01961 -0.000509507 0)
(1.01872 -0.000155008 0)
(1.01777 0.00050435 0)
(1.01698 0.00142795 0)
(1.01665 0.00229002 0)
(1.01682 0.00274903 0)
(1.01721 0.00279076 0)
(1.01765 0.00253763 0)
(1.01802 0.00210852 0)
(1.01829 0.00160678 0)
(1.01846 0.00111249 0)
(1.01788 0.000654828 0)
(0.971795 0.000266035 0)
(0.353336 2.01986e-05 0)
(0.354746 5.62361e-06 0)
(1.01431 2.29126e-05 0)
(1.02118 2.47044e-05 0)
(1.02109 4.04233e-05 0)
(1.02085 8.44777e-05 0)
(1.02047 0.000188425 0)
(1.01992 0.000392249 0)
(1.01921 0.000743423 0)
(1.01839 0.00126724 0)
(1.01758 0.00191719 0)
(1.01707 0.00243773 0)
(1.01692 0.00263366 0)
(1.01699 0.00248973 0)
(1.01713 0.00216804 0)
(1.01726 0.00175383 0)
(1.01737 0.00131942 0)
(1.01743 0.000906018 0)
(1.01679 0.000537117 0)
(0.970743 0.000221332 0)
(0.352904 1.82378e-05 0)
(0.35489 1.11123e-05 0)
(1.01448 0.000148055 0)
(1.02137 0.000264086 0)
(1.02131 0.00040763 0)
(1.02111 0.000589469 0)
(1.02079 0.000824704 0)
(1.02032 0.00113303 0)
(1.01967 0.00153006 0)
(1.01887 0.00200999 0)
(1.01798 0.00250266 0)
(1.01726 0.00279193 0)
(1.01685 0.00275066 0)
(1.01664 0.00250284 0)
(1.01656 0.00211239 0)
(1.01653 0.00167477 0)
(1.01652 0.0012453 0)
(1.01652 0.00085138 0)
(1.01584 0.000508593 0)
(0.969818 0.000213036 0)
(0.352506 1.85658e-05 0)
(0.355157 1.70704e-05 0)
(1.01497 0.000258658 0)
(1.02185 0.000474862 0)
(1.0218 0.000731725 0)
(1.0216 0.00103974 0)
(1.0213 0.00140457 0)
(1.02083 0.00183062 0)
(1.02017 0.00231143 0)
(1.0193 0.00280961 0)
(1.01826 0.00322587 0)
(1.01729 0.00336046 0)
(1.01661 0.00317163 0)
(1.01618 0.00277808 0)
(1.01592 0.00229427 0)
(1.01576 0.00179517 0)
(1.01567 0.00132519 0)
(1.01561 0.000904584 0)
(1.0149 0.000540769 0)
(0.968893 0.000229461 0)
(0.352091 2.0714e-05 0)
(0.355553 2.32783e-05 0)
(1.01574 0.000371193 0)
(1.02262 0.000687597 0)
(1.02255 0.00106276 0)
(1.02235 0.001501 0)
(1.02201 0.00200671 0)
(1.0215 0.00257212 0)
(1.02075 0.00317063 0)
(1.01974 0.00373619 0)
(1.01846 0.0041338 0)
(1.01719 0.00415663 0)
(1.01623 0.00381835 0)
(1.01557 0.0032822 0)
(1.01514 0.0026766 0)
(1.01487 0.00207895 0)
(1.0147 0.00152829 0)
(1.0146 0.00104345 0)
(1.01387 0.000625263 0)
(0.967861 0.000268193 0)
(0.351616 2.478e-05 0)
(0.35609 3.08672e-05 0)
(1.01682 0.000499821 0)
(1.02369 0.000929392 0)
(1.0236 0.00143456 0)
(1.02336 0.00202411 0)
(1.02296 0.00269459 0)
(1.02235 0.00343043 0)
(1.02146 0.00418487 0)
(1.02023 0.00486291 0)
(1.01863 0.00528456 0)
(1.01699 0.00521766 0)
(1.0157 0.00472473 0)
(1.01479 0.00402197 0)
(1.01419 0.00325836 0)
(1.01379 0.0025198 0)
(1.01355 0.00184799 0)
(1.0134 0.0012601 0)
(1.01264 0.000755267 0)
(0.966638 0.000324571 0)
(0.351047 3.03459e-05 0)
(0.356799 4.02672e-05 0)
(1.01826 0.000656065 0)
(1.02511 0.00122003 0)
(1.02499 0.0018849 0)
(1.02469 0.0026549 0)
(1.0242 0.00352753 0)
(1.02345 0.00447471 0)
(1.02235 0.00543218 0)
(1.0208 0.00626785 0)
(1.01878 0.00674931 0)
(1.01667 0.00660019 0)
(1.01499 0.00593125 0)
(1.0138 0.0050217 0)
(1.01299 0.00405369 0)
(1.01246 0.00312787 0)
(1.01213 0.00229211 0)
(1.01193 0.00156169 0)
(1.01115 0.000937421 0)
(0.96514 0.000403368 0)
(0.350344 3.80936e-05 0)
(0.357722 5.23273e-05 0)
(1.02014 0.000851586 0)
(1.02696 0.00158436 0)
(1.0268 0.00244458 0)
(1.02642 0.00344228 0)
(1.02581 0.00456721 0)
(1.02486 0.00578349 0)
(1.02346 0.00700076 0)
(1.0215 0.00804452 0)
(1.01892 0.00861734 0)
(1.01623 0.00838112 0)
(1.01407 0.00749933 0)
(1.01252 0.00632953 0)
(1.01147 0.00509874 0)
(1.01078 0.00392885 0)
(1.01036 0.00287708 0)
(1.0101 0.00195977 0)
(1.00928 0.00117752 0)
(0.963266 0.000507329 0)
(0.349463 4.7644e-05 0)
(0.358918 6.78728e-05 0)
(1.02257 0.00110075 0)
(1.02936 0.00204678 0)
(1.02913 0.00315786 0)
(1.02865 0.00444278 0)
(1.02787 0.00588988 0)
(1.02665 0.00744673 0)
(1.02487 0.00899532 0)
(1.02237 0.010308 0)
(1.01908 0.0110018 0)
(1.01563 0.0106609 0)
(1.01287 0.00951183 0)
(1.01089 0.00801238 0)
(1.00955 0.00644635 0)
(1.00867 0.00496431 0)
(1.00812 0.00363267 0)
(1.00779 0.00247488 0)
(1.00693 0.00148567 0)
(0.960906 0.00064047 0)
(0.348355 6.01159e-05 0)
(0.360468 8.82019e-05 0)
(1.02571 0.00142222 0)
(1.03245 0.00264295 0)
(1.03214 0.00407534 0)
(1.03152 0.0057298 0)
(1.03051 0.00758765 0)
(1.02895 0.00957999 0)
(1.02665 0.0115497 0)
(1.02344 0.0132018 0)
(1.01924 0.0140457 0)
(1.01485 0.0135689 0)
(1.01133 0.0120794 0)
(1.00882 0.01016 0)
(1.00711 0.0081653 0)
(1.00599 0.00628298 0)
(1.00529 0.00459552 0)
(1.00487 0.00313069 0)
(1.00396 0.00187825 0)
(0.957923 0.000809341 0)
(0.346953 7.59502e-05 0)
(0.36248 0.000115216 0)
(1.02976 0.00184183 0)
(1.03644 0.00341845 0)
(1.03602 0.00526593 0)
(1.03521 0.00739708 0)
(1.0339 0.00978449 0)
(1.03187 0.0123334 0)
(1.02891 0.014836 0)
(1.02478 0.0169095 0)
(1.01941 0.0179305 0)
(1.01382 0.0172686 0)
(1.00936 0.0153387 0)
(1.00617 0.0128834 0)
(1.00401 0.0103459 0)
(1.00259 0.00795653 0)
(1.0017 0.00581869 0)
(1.00118 0.00396123 0)
(1.0002 0.00237748 0)
(0.954151 0.00102359 0)
(0.345185 9.61126e-05 0)
(0.365105 0.000151531 0)
(1.035 0.0023935 0)
(1.0416 0.00443607 0)
(1.04104 0.00682588 0)
(1.03997 0.00957655 0)
(1.03824 0.012646 0)
(1.0356 0.0159055 0)
(1.03175 0.0190787 0)
(1.02644 0.0216681 0)
(1.01957 0.0228841 0)
(1.01246 0.0219627 0)
(1.00682 0.0194649 0)
(1.0028 0.0163262 0)
(1.00006 0.0130996 0)
(0.998277 0.01007 0)
(0.99716 0.00736135 0)
(0.996498 0.00500909 0)
(0.995444 0.00300495 0)
(0.949378 0.00129204 0)
(0.342952 0.000120417 0)
(0.368554 0.000201175 0)
(1.04181 0.00312898 0)
(1.04829 0.00578619 0)
(1.04752 0.00888909 0)
(1.04611 0.0124488 0)
(1.04382 0.0164032 0)
(1.04035 0.0205693 0)
(1.03533 0.0245771 0)
(1.02847 0.0277821 0)
(1.01968 0.0291927 0)
(1.01068 0.0279021 0)
(1.00356 0.0246675 0)
(0.998509 0.0206653 0)
(0.995069 0.0165701 0)
(0.99282 0.0127325 0)
(0.991413 0.00930527 0)
(0.990581 0.00633274 0)
(0.989428 0.00379697 0)
(0.943346 0.00163179 0)
(0.34014 0.000151618 0)
(0.373128 0.000271346 0)
(1.05071 0.00412518 0)
(1.05702 0.00760733 0)
(1.05596 0.0116592 0)
(1.05405 0.0162861 0)
(1.05099 0.0213865 0)
(1.04638 0.0267027 0)
(1.03979 0.0317316 0)
(1.0309 0.0356422 0)
(1.01968 0.0372078 0)
(1.00832 0.035388 0)
(0.9994 0.0312037 0)
(0.993065 0.0261117 0)
(0.988749 0.0209316 0)
(0.985922 0.0160854 0)
(0.984151 0.011756 0)
(0.983101 0.00799966 0)
(0.981819 0.00479572 0)
(0.93572 0.00205947 0)
(0.336595 0.000190686 0)
(0.37929 0.000373834 0)
(1.06243 0.00551131 0)
(1.0685 0.0101187 0)
(1.067 0.0154515 0)
(1.06436 0.0214969 0)
(1.06018 0.0280885 0)
(1.05397 0.0348439 0)
(1.04526 0.0410829 0)
(1.03374 0.0457464 0)
(1.01946 0.0473527 0)
(1.00521 0.0447704 0)
(0.994089 0.0393739 0)
(0.986187 0.0329309 0)
(0.98078 0.0264084 0)
(0.97722 0.0203066 0)
(0.97498 0.0148523 0)
(0.973648 0.0101115 0)
(0.972201 0.0060622 0)
(0.926082 0.00260121 0)
(0.332128 0.000240303 0)
(0.387785 0.0005325 0)
(1.07806 0.00752056 0)
(1.08373 0.0137106 0)
(1.08154 0.0208051 0)
(1.07778 0.0287537 0)
(1.07193 0.0372668 0)
(1.06344 0.0457763 0)
(1.05183 0.0533616 0)
(1.03688 0.0587108 0)
(1.01882 0.0601149 0)
(1.0011 0.056446 0)
(0.987352 0.0495248 0)
(0.97755 0.0414401 0)
(0.970786 0.0332917 0)
(0.966286 0.0256537 0)
(0.963425 0.0187968 0)
(0.961712 0.0128148 0)
(0.96004 0.00769252 0)
(0.913885 0.00330312 0)
(0.326479 0.000305448 0)
(0.399966 0.000804925 0)
(1.09921 0.0106972 0)
(1.1042 0.0191879 0)
(1.10084 0.0287368 0)
(1.0952 0.0392239 0)
(1.08673 0.0501447 0)
(1.07489 0.0606408 0)
(1.05933 0.0695219 0)
(1.04003 0.0752689 0)
(1.01741 0.0760228 0)
(0.995657 0.0708215 0)
(0.978863 0.062029 0)
(0.966806 0.0520213 0)
(0.958351 0.0419745 0)
(0.952609 0.0325102 0)
(0.94888 0.0239414 0)
(0.946614 0.0164013 0)
(0.944615 0.00989018 0)
(0.898385 0.00426708 0)
(0.319254 0.000397361 0)
(0.41875 0.00139635 0)
(1.12856 0.0165976 0)
(1.13228 0.0284691 0)
(1.12653 0.0413354 0)
(1.11747 0.0550202 0)
(1.10472 0.0686518 0)
(1.08797 0.0810168 0)
(1.06716 0.0907318 0)
(1.0425 0.0962032 0)
(1.01462 0.0955841 0)
(0.98838 0.0882739 0)
(0.968218 0.0772566 0)
(0.953584 0.0651103 0)
(0.943074 0.0529966 0)
(0.935678 0.0415153 0)
(0.930671 0.0309793 0)
(0.92751 0.0215582 0)
(0.924966 0.0132624 0)
(0.878573 0.00590155 0)
(0.309774 0.000564697 0)
(0.449267 0.00324983 0)
(1.17154 0.0298728 0)
(1.17178 0.0460094 0)
(1.16047 0.0626465 0)
(1.14498 0.079634 0)
(1.12541 0.0954894 0)
(1.10181 0.108774 0)
(1.07435 0.118168 0)
(1.04343 0.122201 0)
(1.00979 0.119193 0)
(0.978854 0.109089 0)
(0.955186 0.0955247 0)
(0.937775 0.0811692 0)
(0.924871 0.0670546 0)
(0.915328 0.0536994 0)
(0.908378 0.0413277 0)
(0.903534 0.0301178 0)
(0.899643 0.0198461 0)
(0.853173 0.00988786 0)
(0.297413 0.000991902 0)
(0.494933 0.0163002 8.58327e-20)
(1.23317 0.0619884 7.68428e-20)
(1.22278 0.0800692 -2.66219e-20)
(1.201 0.0993797 0)
(1.1759 0.117817 -6.2299e-34)
(1.14747 0.133678 8.9498e-21)
(1.11563 0.145872 -1.51702e-20)
(1.08055 0.153326 0)
(1.04266 0.1547 2.90688e-34)
(1.00266 0.148432 -1.67407e-20)
(0.96657 0.135109 0)
(0.938973 0.118963 -1.89279e-20)
(0.91827 0.102647 -5.51926e-20)
(0.902304 0.0870284 -2.58872e-20)
(0.889704 0.0725926 -7.68601e-21)
(0.879527 0.0596058 -4.54992e-21)
(0.871142 0.0483856 0)
(0.863432 0.0387359 3.20143e-21)
(0.816863 0.0288978 3.78404e-21)
(0.282795 0.00895797 6.84265e-20)
(0.517545 0.0471632 7.11833e-20)
(1.28894 0.121757 5.13788e-22)
(1.26837 0.136916 7.59358e-21)
(1.23731 0.153555 0)
(1.20349 0.169344 -3.31496e-20)
(1.16676 0.182782 -3.65628e-20)
(1.12708 0.19257 -1.56881e-20)
(1.0845 0.197489 -5.27917e-20)
(1.03932 0.196068 0)
(0.992105 0.186754 7.11642e-20)
(0.949509 0.170637 6.87552e-20)
(0.91661 0.152529 1.99742e-20)
(0.89145 0.135082 7.1142e-20)
(0.871481 0.119101 9.86594e-20)
(0.855052 0.104933 0)
(0.841088 0.0929851 1.38319e-19)
(0.828883 0.0834164 1.99409e-19)
(0.817542 0.0766205 2.22182e-19)
(0.772473 0.0683316 -2.54443e-19)
(0.271118 0.0250971 -4.59238e-21)
(0.5151 0.0778379 0)
(1.3253 0.198572 1.60036e-20)
(1.30065 0.208041 0)
(1.26362 0.218895 -5.09071e-20)
(1.22339 0.229711 0)
(1.18016 0.238803 -7.49894e-20)
(1.13393 0.244733 3.27312e-20)
(1.08482 0.245981 -1.09142e-19)
(1.03319 0.240961 -1.18499e-21)
(0.979665 0.228027 3.71697e-20)
(0.931638 0.208888 1.48099e-19)
(0.894624 0.188908 5.94494e-23)
(0.866344 0.170704 -5.0923e-20)
(0.843985 0.154794 -9.06754e-20)
(0.825824 0.141316 1.07308e-19)
(0.810774 0.130356 -1.89597e-19)
(0.798029 0.121981 -2.50669e-20)
(0.786635 0.11607 0)
(0.74358 0.107042 1.23191e-21)
(0.265003 0.0392554 0)
(0.516264 0.106961 2.58167e-19)
(1.34499 0.274073 -1.25137e-19)
(1.31903 0.280383 -8.41982e-20)
(1.27931 0.28709 2.59954e-20)
(1.23544 0.293521 -4.2826e-20)
(1.18774 0.298269 1.59178e-19)
(1.1364 0.300019 6.90956e-20)
(1.08179 0.297196 0)
(1.02449 0.288131 -1.93895e-19)
(0.965352 0.271124 0)
(0.912686 0.248537 -7.77072e-20)
(0.872518 0.226334 -9.22443e-20)
(0.842228 0.206937 -5.42894e-20)
(0.818651 0.190559 -6.46697e-20)
(0.799858 0.177055 0)
(0.784566 0.166232 0)
(0.771901 0.157975 -1.60764e-19)
(0.760715 0.152169 3.16399e-20)
(0.719078 0.141605 -1.87921e-20)
(0.258222 0.0519526 -2.18526e-20)
(0.517623 0.134714 -1.51086e-19)
(1.35704 0.347644 0)
(1.32969 0.351713 2.01651e-19)
(1.28782 0.355059 8.03297e-20)
(1.24118 0.357818 9.50726e-20)
(1.19 0.358751 0)
(1.13453 0.3566 7.10046e-20)
(1.07527 0.349737 1.2251e-19)
(1.01302 0.336445 1.0128e-19)
(0.948976 0.31499 1.70246e-19)
(0.892438 0.288474 0)
(0.849913 0.263517 -1.95329e-19)
(0.818365 0.242374 -1.14474e-19)
(0.794219 0.22497 -6.65591e-20)
(0.775287 0.210849 4.0082e-19)
(0.760136 0.199617 4.73689e-20)
(0.747733 0.191023 2.25357e-19)
(0.736914 0.184799 -1.07357e-18)
(0.696684 0.172634 6.36681e-19)
(0.251856 0.0634124 -7.69144e-19)
(0.518676 0.161231 -1.30995e-19)
(1.36346 0.418256 3.22068e-20)
(1.33479 0.420998 -2.88461e-20)
(1.29127 0.42176 -1.03725e-19)
(1.24236 0.421523 -9.37093e-20)
(1.18828 0.419174 1.63373e-21)
(1.12926 0.413436 -7.65702e-20)
(1.06588 0.402713 1.29162e-19)
(0.999143 0.385138 -2.16986e-19)
(0.93064 0.358969 0)
(0.870748 0.327996 -9.00569e-20)
(0.826429 0.299693 -3.37296e-22)
(0.794165 0.276282 -1.22012e-19)
(0.769884 0.257347 0)
(0.751144 0.242207 -8.48451e-20)
(0.736362 0.230179 -1.99695e-19)
(0.724397 0.220988 5.35291e-19)
(0.714032 0.214127 -5.30575e-19)
(0.675228 0.200335 7.52946e-19)
(0.245619 0.0737144 -7.84067e-19)
(0.519739 0.186761 -1.72538e-21)
(1.3662 0.486219 -3.12741e-20)
(1.33619 0.487938 -1.14944e-19)
(1.29113 0.486645 5.20053e-20)
(1.24021 0.483958 -4.96405e-20)
(1.18353 0.478817 0)
(1.12128 0.469891 -7.73709e-20)
(1.0541 0.455553 -1.37217e-19)
(0.983125 0.433752 -1.14611e-19)
(0.910404 0.402608 0)
(0.847461 0.366641 -9.35599e-20)
(0.801771 0.33441 -1.09309e-19)
(0.769197 0.308222 1.28764e-19)
(0.745168 0.28732 -7.67534e-20)
(0.726909 0.270812 -3.54597e-19)
(0.712678 0.257859 2.10148e-19)
(0.701289 0.247797 6.27227e-20)
(0.691465 0.240229 0)
(0.654133 0.22486 -7.00185e-19)
(0.239572 0.0830007 -2.53945e-20)
(0.520919 0.211549 -1.63696e-20)
(1.36646 0.551483 3.14463e-20)
(1.33505 0.552482 6.11953e-20)
(1.28851 0.549534 1.73639e-19)
(1.23569 0.544858 -2.04302e-19)
(1.17655 0.537299 1.86283e-19)
(1.11129 0.525581 1.67372e-19)
(1.04043 0.50786 -2.20601e-19)
(0.965331 0.481968 6.52384e-20)
(0.888395 0.445676 -4.12993e-19)
(0.822475 0.404185 -1.01317e-19)
(0.775685 0.367401 0)
(0.743188 0.33787 1.35392e-19)
(0.719773 0.314691 1.5719e-19)
(0.702278 0.296612 1.8599e-19)
(0.688822 0.282456 -2.18842e-19)
(0.678153 0.271535 -6.41395e-20)
(0.668952 0.26322 7.72667e-20)
(0.633118 0.246325 0)
(0.233943 0.0914615 -5.31517e-20)
(0.522262 0.235645 1.56795e-19)
(1.36506 0.614105 -1.23205e-19)
(1.33216 0.614644 -6.54679e-20)
(1.28417 0.610376 1.20665e-19)
(1.22952 0.603995 -1.04968e-19)
(1.16804 0.59442 -3.14742e-21)
(1.09982 0.580261 -1.82046e-19)
(1.02537 0.559505 -7.95068e-20)
(0.946074 0.529725 -1.98744e-19)
(0.864718 0.488143 4.96194e-22)
(0.795684 0.440552 -3.19385e-19)
(0.74795 0.398464 2.462e-19)
(0.715933 0.365041 -1.41382e-19)
(0.69357 0.339197 1.6426e-19)
(0.677208 0.319355 0)
(0.664779 0.304019 -1.11995e-19)
(0.654966 0.292278 -2.02349e-21)
(0.646497 0.283213 -3.14982e-19)
(0.612266 0.264978 -4.72988e-20)
(0.228771 0.0991824 0)
(0.523539 0.258835 0)
(1.36257 0.674297 -1.34269e-19)
(1.32814 0.674485 -1.30774e-19)
(1.27868 0.669128 -1.25957e-19)
(1.22223 0.661346 -1.18465e-19)
(1.15848 0.650052 0)
(1.08741 0.633787 -9.16382e-20)
(1.00936 0.610354 -1.25294e-22)
(0.925729 0.576945 4.27566e-19)
(0.839561 0.530052 -5.83986e-20)
(0.767006 0.475792 -2.277e-19)
(0.718323 0.427492 1.30535e-19)
(0.687213 0.389471 1.18884e-21)
(0.666486 0.360548 1.70562e-19)
(0.651787 0.338846 9.98742e-20)
(0.640732 0.322385 -2.35135e-19)
(0.632014 0.309856 2.74472e-19)
(0.624378 0.300257 8.0112e-20)
(0.591818 0.280906 3.36127e-19)
(0.224253 0.106363 -9.00349e-19)
(0.52513 0.281676 2.95084e-20)
(1.35938 0.732141 -6.43017e-20)
(1.32333 0.732041 5.94411e-20)
(1.27248 0.725757 1.29271e-19)
(1.21425 0.716793 0)
(1.14833 0.704062 -1.063e-19)
(1.07443 0.686006 3.02873e-19)
(0.992852 0.660351 1.81991e-19)
(0.904621 0.623688 0)
(0.813113 0.571694 -8.25527e-19)
(0.736252 0.51014 6.07603e-19)
(0.686467 0.454454 0)
(0.656782 0.410777 1.53484e-19)
(0.638514 0.378378 2.44854e-21)
(0.62619 0.354767 -3.02779e-19)
(0.617007 0.337443 1.20213e-19)
(0.60966 0.324411 0)
(0.603017 0.314479 4.09803e-19)
(0.572235 0.29449 0)
(0.221048 0.1135 -4.00145e-19)
(0.52703 0.304286 -2.9675e-20)
(1.35564 0.787791 -6.04785e-20)
(1.31808 0.787346 6.57377e-20)
(1.26584 0.780245 0)
(1.20593 0.770304 -1.2803e-19)
(1.13786 0.756407 0)
(1.06128 0.736906 -3.15955e-19)
(0.976143 0.709417 -9.23716e-20)
(0.883175 0.670024 8.04856e-20)
(0.785647 0.613162 -4.09882e-19)
(0.703457 0.543922 6.51114e-20)
(0.65191 0.479469 0)
(0.624186 0.428664 -3.19523e-19)
(0.609539 0.391985 -3.13097e-21)
(0.6008 0.366481 0)
(0.594328 0.348644 -1.0204e-21)
(0.588774 0.335787 3.47618e-19)
(0.583258 0.326049 -3.29285e-19)
(0.554439 0.305993 9.70721e-20)
(0.219685 0.120859 0)
(0.528648 0.325928 0)
(1.35147 0.841142 -5.93162e-20)
(1.3125 0.840361 -6.19747e-20)
(1.25893 0.832574 -2.3901e-21)
(1.19743 0.821815 -6.24121e-20)
(1.12739 0.806943 -2.4734e-19)
(1.04824 0.78633 1.16269e-19)
(0.959629 0.757448 -1.04051e-19)
(0.861851 0.715942 3.53195e-19)
(0.757525 0.6549 -6.66444e-19)
(0.66847 0.577688 -1.79902e-21)
(0.614069 0.502769 -1.53735e-19)
(0.588644 0.442706 4.97722e-19)
(0.579335 0.400447 4.79469e-21)
(0.576041 0.373004 -2.02676e-19)
(0.573645 0.355497 -3.56046e-19)
(0.570593 0.343743 0)
(0.566399 0.335233 0)
(0.539657 0.316191 9.60392e-20)
(0.220939 0.129197 -5.46327e-20)
(0.530702 0.347297 -2.63716e-20)
(1.34715 0.892321 1.23455e-19)
(1.30679 0.891138 6.689e-20)
(1.25195 0.882714 0)
(1.18895 0.87125 -1.1307e-21)
(1.11706 0.855614 -2.54839e-19)
(1.03554 0.834196 3.0134e-19)
(0.943622 0.804377 4.33713e-19)
(0.840929 0.761518 4.72612e-19)
(0.729143 0.69721 -5.60402e-19)
(0.631395 0.612095 -5.32645e-19)
(0.572151 0.524867 4.1249e-19)
(0.549032 0.452371 0)
(0.547341 0.402234 -8.84533e-20)
(0.552577 0.372618 -2.01348e-19)
(0.556575 0.356676 -2.29246e-19)
(0.557128 0.34786 -2.64082e-19)
(0.554422 0.342359 7.50419e-20)
(0.529734 0.325946 -4.70891e-20)
(0.226026 0.139482 -3.26048e-21)
(0.532264 0.368017 0)
(1.34265 0.941284 0)
(1.301 0.939672 2.27032e-21)
(1.24497 0.930613 0)
(1.18059 0.918528 2.04896e-19)
(1.10706 0.902267 1.97212e-19)
(1.02339 0.880256 0)
(0.928371 0.850007 5.5899e-20)
(0.820899 0.80659 8.12919e-19)
(0.701117 0.740255 -1.29887e-18)
(0.592477 0.648086 0)
(0.525348 0.546821 -2.68817e-19)
(0.503466 0.457402 5.80006e-21)
(0.512279 0.395312 5.72826e-21)
(0.531128 0.362507 1.95159e-19)
(0.545512 0.350264 -2.22948e-21)
(0.551279 0.347381 -4.87587e-19)
(0.550402 0.347834 1.42817e-19)
(0.527464 0.336843 4.07203e-20)
(0.236414 0.152925 0)
(0.533545 0.387976 6.04142e-20)
(1.33799 0.988046 5.87834e-20)
(1.29522 0.985976 1.30739e-19)
(1.23808 0.976311 -2.81369e-19)
(1.17245 0.963614 3.53388e-19)
(1.09752 0.946825 0)
(1.01189 0.924467 2.02205e-19)
(0.91412 0.894224 -1.2292e-19)
(0.802087 0.85105 2.82155e-21)
(0.673972 0.784176 9.46548e-20)
(0.552324 0.686622 7.22649e-19)
(0.472797 0.570226 -9.80007e-20)
(0.449147 0.457874 -2.93784e-19)
(0.471755 0.376551 -8.07799e-20)
(0.512825 0.33827 8.84904e-20)
(0.543903 0.333383 -4.27774e-21)
(0.557697 0.342317 1.07575e-19)
(0.558622 0.352721 -2.60801e-19)
(0.53761 0.351196 2.94171e-19)
(0.254367 0.171563 4.67329e-20)
(0.534228 0.407058 -1.71674e-20)
(1.33317 1.03263 2.96345e-20)
(1.28944 1.03007 6.40203e-21)
(1.23137 1.0198 -1.39816e-19)
(1.16463 1.00649 -6.94868e-20)
(1.08846 0.989259 -3.71651e-19)
(1.00125 0.966699 6.74234e-20)
(0.901002 0.936805 -5.24577e-19)
(0.784774 0.894662 -9.38668e-19)
(0.648337 0.828933 -8.09487e-19)
(0.51171 0.728508 0)
(0.414158 0.597365 -4.23506e-19)
(0.382353 0.455162 4.07958e-19)
(0.421051 0.341557 0)
(0.497347 0.291793 -1.6741e-19)
(0.559318 0.300432 6.86774e-20)
(0.586281 0.331676 -8.71251e-20)
(0.587289 0.361739 -1.05083e-19)
(0.562912 0.374304 -1.94074e-19)
(0.280584 0.196935 -1.50944e-19)
(0.535266 0.425736 1.45231e-20)
(1.32815 1.07502 -3.16611e-20)
(1.28357 1.07196 -9.01882e-20)
(1.22476 1.06104 -1.78185e-19)
(1.15721 1.04711 1.52808e-19)
(1.07996 1.02949 -2.31132e-19)
(0.991508 1.00696 2.20367e-19)
(0.889215 0.977587 -5.56929e-19)
(0.769222 0.93712 -5.69007e-19)
(0.624812 0.874258 8.80695e-19)
(0.471927 0.77449 1.67094e-18)
(0.349872 0.631373 0)
(0.29848 0.452768 0)
(0.350826 0.286043 -8.05605e-20)
(0.484268 0.20752 0)
(0.607048 0.24192 9.4548e-20)
(0.653517 0.320447 1.12486e-19)
(0.642622 0.384025 0)
(0.59834 0.415909 0)
(0.305419 0.228848 1.23794e-19)
(0.535561 0.443086 -8.68635e-21)
(1.32297 1.11521 -1.68995e-20)
(1.27759 1.11163 -6.25697e-20)
(1.21813 1.10006 1.41398e-19)
(1.15003 1.08558 1.56921e-19)
(1.07208 1.06756 2.7791e-19)
(0.982763 1.0452 -3.12618e-19)
(0.878825 1.01661 -2.85843e-21)
(0.755692 0.978196 -4.32726e-21)
(0.604019 0.919742 4.09051e-21)
(0.434502 0.82475 8.80806e-19)
(0.281632 0.675683 0)
(0.192885 0.457801 4.15787e-19)
(0.243364 0.205537 1.65161e-19)
(0.468361 0.0531701 1.85762e-20)
(0.723123 0.13524 -2.12673e-20)
(0.787345 0.329266 -4.94441e-21)
(0.719222 0.456981 -3.52195e-20)
(0.641417 0.480805 0)
(0.33044 0.2686 1.15179e-19)
(0.53638 0.460452 5.66492e-21)
(1.31757 1.15342 0)
(1.27163 1.14908 -5.70277e-20)
(1.21163 1.13678 1.08485e-19)
(1.14302 1.12182 -1.57294e-19)
(1.06461 1.10354 -3.66155e-19)
(0.974876 1.08126 6.52563e-19)
(0.869865 1.05376 -4.07378e-20)
(0.744411 1.01787 0)
(0.586676 0.964834 -1.02235e-18)
(0.401207 0.878791 -2.0032e-18)
(0.213058 0.733382 7.32371e-20)
(0.0633899 0.48227 6.1893e-19)
(0.0688419 0.0993408 0)
(0.416653 -0.243449 -2.57634e-19)
(0.976629 -0.112282 0)
(1.11964 0.30443 0)
(0.897297 0.545538 -2.74195e-21)
(0.672309 0.553506 0)
(0.326658 0.268394 3.44829e-20)
(0.536469 0.47656 -4.42811e-21)
(1.31186 1.18977 0)
(1.2656 1.18447 -8.02989e-20)
(1.20534 1.17146 0)
(1.13637 1.15598 7.7302e-20)
(1.0575 1.13749 0)
(0.967478 1.11552 3.88214e-20)
(0.862041 1.08922 8.10773e-20)
(0.735152 1.05642 7.41465e-20)
(0.572983 1.00987 -1.14819e-18)
(0.373682 0.936564 6.37937e-20)
(0.14844 0.807433 5.8802e-19)
(-0.0895422 0.546475 6.30662e-19)
(-0.2411 0.0024151 4.58363e-20)
(0.0457578 -0.476265 -5.94037e-19)
(0.936833 0.0122128 0)
(1.22626 0.717465 -4.88017e-19)
(0.970201 1.06364 1.02488e-19)
(0.443688 0.839351 1.31904e-19)
(-0.0584662 0.999123 -2.84289e-19)
(0.536692 0.492395 1.19323e-20)
(1.30582 1.22438 -3.20408e-20)
(1.25938 1.21801 0)
(1.19906 1.20452 5.1779e-21)
(1.12996 1.18883 -1.92588e-19)
(1.05077 1.17029 6.23456e-19)
(0.960489 1.14882 2.5176e-19)
(0.854776 1.12417 0)
(0.727397 1.09497 5.16544e-19)
(0.562591 1.05703 -6.30808e-20)
(0.35332 1.00069 0)
(0.0946948 0.903124 0)
(-0.254827 0.695311 6.30474e-19)
(-0.741722 0.329212 -2.45805e-20)
(-0.841611 0.474946 7.15493e-19)
(-0.0117088 1.47065 0)
(0.638016 1.99137 -4.4831e-19)
(0.485891 2.08947 1.34154e-19)
(0.214157 2.81082 -7.70774e-20)
(0.127941 3.18807 -2.19045e-20)
(0.537 0.507345 -1.81457e-20)
(1.29921 1.2572 2.60609e-20)
(1.25314 1.24959 -3.89664e-20)
(1.19289 1.23573 -6.66961e-20)
(1.12371 1.21998 0)
(1.04436 1.20165 4.23433e-19)
(0.954366 1.18091 3.7923e-19)
(0.848413 1.15779 -4.21033e-20)
(0.720841 1.13246 7.72137e-20)
(0.555496 1.10396 1.13336e-18)
(0.342015 1.06897 1.09942e-18)
(0.0666975 1.01562 7.40101e-19)
(-0.340471 0.924331 6.92416e-19)
(-0.949946 0.908993 -3.35412e-19)
(-1.36728 1.56657 7.43876e-19)
(-0.823201 2.68304 0)
(-0.24231 3.19999 0)
(-0.0596826 3.43165 -1.10815e-19)
(-0.000332059 3.45525 0)
(0.0110896 3.36798 -1.63286e-19)
(0.539103 0.524978 0)
(1.29156 1.28781 0)
(1.24664 1.27881 0)
(1.18668 1.26495 -1.41922e-20)
(1.11735 1.24925 -1.65402e-19)
(1.03791 1.23127 2.96436e-19)
(0.948853 1.21157 2.56655e-19)
(0.843195 1.19026 -4.24802e-20)
(0.715786 1.16855 6.80101e-19)
(0.551012 1.14927 -4.67428e-21)
(0.338455 1.13747 2.22704e-18)
(0.0647364 1.13628 -8.39836e-20)
(-0.319313 1.1659 9.40697e-20)
(-0.855142 1.34914 5.07006e-20)
(-1.28172 2.12393 -7.0243e-20)
(-0.913918 2.99714 -7.86001e-20)
(-0.527819 3.32199 6.21935e-19)
(-0.283916 3.36051 2.19804e-19)
(-0.150921 3.34893 -8.75808e-20)
(-0.0901709 3.31571 7.94525e-20)
(0.400413 0.453763 1.8162e-20)
(1.28332 1.31575 0)
(1.24058 1.30609 5.17064e-20)
(1.18101 1.29275 1.45823e-19)
(1.11165 1.27741 -2.91938e-19)
(1.03239 1.25983 -3.03316e-19)
(0.943985 1.23987 -2.81692e-19)
(0.839228 1.22012 5.33273e-19)
(0.713795 1.20243 -5.72249e-19)
(0.552096 1.19225 0)
(0.347406 1.20132 1.11693e-18)
(0.0955218 1.24365 -6.2187e-19)
(-0.217861 1.3538 0)
(-0.625482 1.65536 9.46549e-20)
(-0.930794 2.2901 4.22709e-20)
(-0.737265 2.90153 4.9014e-20)
(-0.465222 3.14373 -9.84938e-20)
(-0.283114 3.20506 -5.15217e-20)
(-0.179546 3.21639 -6.96373e-20)
(-0.115313 3.21933 -1.16115e-19)
(0.642072 0.637002 -3.21352e-21)
(1.2717 1.34084 0)
(1.231 1.34597 -3.35214e-20)
(1.17051 1.334 -1.18531e-19)
(1.10062 1.31917 2.6483e-19)
(1.02119 1.30218 2.77829e-19)
(0.931908 1.28379 3.62922e-19)
(0.828027 1.26667 4.15895e-20)
(0.704945 1.25555 5.87799e-19)
(0.548685 1.25914 1.06255e-18)
(0.355658 1.29722 6.67396e-20)
(0.134207 1.39642 5.71042e-19)
(-0.102447 1.59355 9.32219e-20)
(-0.308955 1.92435 -9.49645e-20)
(-0.392198 2.34251 -1.09135e-19)
(-0.309159 2.68727 3.9955e-20)
(-0.213316 2.87159 -3.82962e-21)
(-0.133448 2.9931 1.92307e-20)
(-0.0881425 3.07703 5.06253e-20)
(-0.0912625 3.15335 8.58668e-21)
(0.637615 0.637388 0)
(1.27069 1.3689 6.71925e-21)
(1.22605 1.37416 2.09104e-21)
(1.1645 1.36272 9.04781e-21)
(1.0943 1.34781 1.56634e-19)
(1.01521 1.33092 -2.61091e-19)
(0.926231 1.31295 -2.25918e-19)
(0.823865 1.2977 3.93917e-20)
(0.704165 1.28991 -6.32325e-19)
(0.55548 1.30132 -1.22609e-20)
(0.378122 1.35605 -2.11554e-18)
(0.190592 1.4764 7.90057e-20)
(0.0142294 1.68478 -8.89382e-20)
(-0.112257 1.98757 -8.00372e-20)
(-0.15374 2.32119 1.86791e-21)
(-0.10596 2.61178 -2.03048e-20)
(-0.0491913 2.82195 -2.45672e-20)
(-0.00469024 2.93324 -6.02254e-20)
(0.00937915 3.03364 9.67556e-20)
(-0.0339692 3.1086 7.43818e-20)
(0.608479 0.626451 4.08236e-20)
(1.26979 1.40217 5.98182e-20)
(1.22085 1.40547 4.20801e-21)
(1.15807 1.39334 3.47483e-20)
(1.08762 1.37811 0)
(1.00904 1.36131 -3.23754e-19)
(0.921265 1.34417 -3.11589e-19)
(0.821172 1.32987 3.69953e-20)
(0.703903 1.32284 -6.96444e-20)
(0.560226 1.33784 -1.03025e-18)
(0.398135 1.40086 -1.00571e-18)
(0.243051 1.53037 -6.82016e-19)
(0.123009 1.73924 -6.52206e-19)
(0.0567018 2.02075 5.61077e-19)
(0.043679 2.30867 3.73615e-19)
(0.0824453 2.56513 0)
(0.122205 2.77293 0)
(0.147778 2.92859 7.66149e-20)
(0.126484 3.0359 0)
(0.039536 3.09994 1.79496e-19)
(0.581478 0.620138 -8.25915e-20)
(1.26578 1.43868 -7.34688e-20)
(1.21396 1.43893 0)
(1.15025 1.42561 7.21275e-21)
(1.08018 1.41 1.15607e-19)
(1.00209 1.3924 -4.39212e-19)
(0.914643 1.37412 -1.92069e-19)
(0.816019 1.3593 3.10671e-20)
(0.703994 1.35526 -5.00992e-19)
(0.571192 1.37788 5.55056e-20)