/*--------------------------------*- C++ -*----------------------------------*\
| =========                 |                                                 |
| \\      /  F ield         | OpenFOAM: The Open Source CFD Toolbox           |
|  \\    /   O peration     | Version:  4.0                                   |
|   \\  /    A nd           | Web:      www.OpenFOAM.org                      |
|    \\/     M anipulation  |                                                 |
\*---------------------------------------------------------------------------*/
FoamFile
{
    version     2.0;
    format      ascii;
    class       volScalarField;
    location    "9";
    object      p;
}
// * * * * * * * * * * * * * * * * * * * * * * * * * * * * * * * * * * * * * //

dimensions      [0 2 -2 0 0 0 0];

internalField   nonuniform List<scalar> 
918
(
0.234555
0.936907
0.00563251
0.232561
0.00135873
0.904389
-0.812018
0.428756
0.213657
-0.12986
0.0240545
0.203063
0.764926
0.531991
-1.41014
0.0182625
0.375655
-0.649493
0.209455
0.00868481
0.513339
0.221346
0.224574
0.21566
0.269592
0.529293
0.645016
-0.00300173
-0.00302954
-0.00138929
0.00203219
-0.000232988
0.00942741
0.787888
0.839168
0.861777
0.183401
0.0860084
-0.657652
-0.749725
-0.691854
-0.824259
0.413561
0.421004
-0.486766
0.427572
0.439765
0.205058
0.212971
0.213832
0.216322
0.214095
0.216049
0.294578
-0.131297
-0.191358
-0.0777224
-0.054025
0.0903829
0.0260808
0.0223707
0.0254759
0.0281767
0.145763
0.200803
0.201159
0.206429
0.216889
0.876479
0.84807
0.874221
0.789024
0.805212
0.742747
0.715179
0.55161
0.572733
0.51838
0.509143
-1.83709
-2.7824
-0.822386
-0.573179
0.000541997
0.0243422
0.0329391
0.355616
0.362645
0.369866
0.38708
0.771048
-0.574804
-0.754675
0.210096
0.206762
0.220063
0.22055
0.216063
0.215581
0.0165924
0.020682
-0.00255616
0.00717771
0.00540013
0.483296
0.484091
0.215745
0.211568
0.225717
0.247896
0.232888
-0.01166
0.281435
0.313319
0.323959
0.507295
0.506097
0.512689
0.618423
0.581359
0.681932
0.705155
0.00502466
0.000474888
0.0185715
0.0119191
0.0149685
0.182876
0.177547
0.197625
0.187843
0.189625
0.057579
-0.0772029
0.121303
0.0509474
-0.574666
-0.653349
-0.631426
-0.677009
-0.803226
0.367945
0.402606
0.408753
-0.486432
-0.403622
-0.561266
-0.340855
-0.418502
0.190664
0.198352
0.194616
0.209974
0.207864
0.208062
0.217103
0.214088
0.215637
0.328533
0.398886
0.256302
0.230805
-0.386352
-0.233957
-0.405295
-0.0250587
-0.020171
0.102689
0.11257
0.0810002
0.0730399
-0.00511797
0.0142898
0.00330808
0.0285419
0.0318933
0.13599
0.12682
0.154646
0.159862
0.194333
0.193041
0.197762
0.193431
0.665202
0.687737
0.695663
0.669456
-3.76375
-6.54706
-0.247539
-0.10379
0.00327339
0.0024942
0.00167154
0.00327756
0.00347293
0.00242756
0.0467926
0.0452007
0.0369168
0.0418613
0.341969
0.348546
0.768272
0.833626
0.691076
0.678872
0.199324
0.202323
0.205564
0.200876
0.0271608
0.0232805
0.0246325
0.440115
0.461936
0.45945
-0.0510926
-0.140271
0.035641
0.059631
0.331799
0.31403
0.333147
0.387821
0.426713
0.713176
0.731852
0.729805
0.738823
0.782558
0.798818
0.764585
0.164649
0.171957
0.169147
0.197577
0.197822
0.194993
0.19203
0.193461
0.192786
-0.230137
-0.639267
-0.252965
-0.267012
-0.0400159
-0.14746
0.452464
0.614395
0.381427
0.393419
0.400151
-0.271079
-0.347707
0.20017
0.178807
0.0854099
0.116306
0.100468
0.637634
0.596964
0.647592
0.620585
0.582133
0.608106
-0.611852
-2.12904
-1.25262
0.263535
0.0658792
0.159327
0.0675862
0.0520708
0.0594976
0.816887
0.856471
0.438292
0.572716
0.547158
0.470932
0.502248
0.55426
0.478824
0.513622
0.55037
0.532297
0.169691
-0.179819
0.043986
0.677382
0.791643
-0.161304
-0.210628
-0.273088
0.122092
0.15259
0.13875
0.82299
0.788587
0.843849
0.211581
0.213643
0.0100607
0.0142556
0.21575
0.215379
0.00799148
0.0102488
0.133533
-1.10748
-0.183067
0.203445
0.196197
0.211911
-0.076005
0.291397
0.027119
0.0962631
0.0638525
0.202025
0.151795
0.116097
0.00617782
0.0259567
0.0174043
-0.357321
0.208036
0.207563
0.211058
0.213718
0.212984
0.00674755
0.00960425
0.00676537
0.0150098
0.00989895
0.00972473
0.181092
0.192624
-0.487852
0.211588
0.213362
0.213027
0.205364
0.212004
0.209166
0.0199592
0.0120056
0.0181142
-0.0525389
0.0572868
0.388501
0.51925
0.314804
0.104352
-0.132984
0.292727
0.360731
0.256233
0.429675
0.382387
0.414359
-0.124366
-0.264105
-0.103285
-0.155919
0.201798
0.201503
0.194809
0.189461
0.207536
0.205969
0.209884
0.205984
0.208831
0.210536
-0.0355116
-0.0557474
-0.0920356
-0.174107
0.311823
0.400138
0.242035
0.239067
0.14488
0.029394
0.0277945
0.028353
0.0212629
0.0719811
0.0696971
0.0805643
0.0803573
0.0546381
0.0526676
0.0694124
0.0655095
0.0732165
0.19715
0.195864
0.20057
0.205538
0.158387
0.164045
0.132965
0.15161
0.138602
0.0877688
0.114627
0.0947702
0.0103845
0.0101968
0.0075354
0.0312091
0.0346685
0.0159966
0.0120549
0.0159822
0.0117248
0.0109583
0.0207137
0.0246113
-0.305629
-0.449556
0.760593
0.612129
0.366885
0.200502
0.205497
0.201465
0.205819
0.208235
0.211344
0.209104
0.208044
0.193465
0.194976
0.191871
0.191313
-0.484163
-0.517701
-0.38561
-0.437803
-0.0920079
0.31261
0.0666752
0.0073739
-0.0014896
0.208094
0.489001
0.344475
0.47087
0.494561
-0.615608
-0.256473
-0.563192
0.00274135
-0.115146
0.397805
0.454084
0.479528
0.423377
0.368342
-0.367256
0.252878
-0.363314
-0.324838
-0.145784
-0.243827
0.43476
0.365488
0.374053
0.402124
0.419204
0.372287
0.350886
0.349006
0.391653
0.392678
0.184634
-0.021802
-0.0721672
-0.107201
0.349915
0.226228
0.28806
0.200103
0.19597
0.199777
0.196985
0.184084
0.190529
0.188697
0.190285
0.192952
0.202962
0.200453
0.198046
0.200445
-0.0331678
-0.0201573
-0.0396756
-0.238984
-0.196534
-0.275878
-0.114205
0.135939
0.106085
0.363644
0.403477
0.0784225
-0.112221
-0.0725649
-0.0261612
0.172132
0.160399
0.118213
0.161138
0.180692
0.153056
0.208239
0.192231
0.0493781
0.0639334
0.0374551
0.0383616
0.102076
0.119849
0.122464
0.0550693
0.053836
0.0335915
0.0299504
0.0839172
0.0528127
0.0709044
0.0724819
0.0282969
0.0315032
0.0348203
0.0484435
0.0460477
0.0498754
0.191955
0.192851
0.192605
0.20764
0.217568
0.230602
0.198778
0.177711
0.169059
0.172212
0.152222
0.161319
0.159729
0.166183
0.182202
0.18981
0.188486
0.190249
0.176685
0.178855
0.168928
0.170435
0.154566
0.13566
0.123997
0.0214061
0.0147022
0.0172228
0.0174123
0.0139888
0.0141679
0.0483769
0.0392722
0.0442069
0.03927
0.0442274
0.0207438
0.0219613
-0.165318
-0.03453
-0.434842
-0.388267
-0.496123
0.721978
0.769687
0.607661
0.50579
0.529145
0.655861
0.695042
0.433778
0.521111
0.518506
0.304722
0.779452
0.203305
0.205037
0.201197
0.199343
0.20093
-0.440043
-0.370719
-0.264892
-0.19646
-0.0590082
0.0414606
-0.495876
-0.0490914
0.0665333
-0.0808101
0.306136
0.321823
0.269747
0.295727
0.299989
0.132929
0.196114
0.255246
0.210972
0.250572
0.273237
0.239765
0.267028
0.21224
0.173689
0.173551
0.119455
0.141445
0.119177
0.0963714
0.191992
0.171376
0.181222
0.174056
0.195519
0.220546
0.21285
0.23222
0.251348
0.180521
0.146921
0.155211
0.17898
0.143247
0.156493
0.16931
-0.514466
-0.557026
-0.234468
-0.389273
-0.242179
-0.284423
-0.287936
-0.357602
-0.0567626
-0.68151
-0.649341
-1.26756
0.205859
0.561405
0.38452
0.32524
0.417509
0.397557
0.400594
0.430563
0.438305
0.341182
0.358821
0.361485
0.324137
0.338692
0.378867
0.373383
0.220546
0.0596446
0.0398974
0.0145381
-0.105689
-0.073032
0.137571
0.0549538
-0.0119858
-0.00595178
0.163166
0.0616282
0.130427
0.15449
0.0907142
0.0525723
0.246292
0.305613
0.292961
0.277187
0.195319
0.204209
0.236372
0.273135
0.296526
0.326525
0.190578
0.19754
0.197143
0.195083
0.194056
0.195073
0.194931
0.196361
0.197956
0.198587
0.198087
0.0195597
0.0318817
-0.00547806
0.00264711
0.030325
0.0115202
0.0574376
0.0319799
0.0435561
0.0438276
0.019001
-0.00685898
0.0106274
0.0336379
0.178624
0.211419
0.193878
0.140168
0.256607
0.378983
0.437394
0.381894
0.220702
0.241428
0.280246
0.0937814
0.0933854
0.0863878
0.101267
0.102644
0.0399225
0.03994
0.0411201
0.0464807
0.0477899
0.0356043
0.0262294
0.0271625
0.0313073
0.0304094
0.0301993
0.179889
0.174739
0.176003
0.170599
0.169139
0.181808
0.18325
0.185742
0.189164
0.19021
0.183433
0.187647
0.189386
0.035375
0.0290263
0.03227
0.0282848
0.0290248
0.0236802
0.0234119
0.0192409
0.0522984
0.156422
-0.10401
-0.299851
-0.171463
0.0168849
0.128478
-0.153588
0.628961
0.38795
0.163393
0.310617
0.544389
0.224335
0.499777
0.332115
0.723713
0.668159
0.758726
0.557739
-0.198658
0.079928
0.127211
-0.267331
-0.046109
-0.0342355
-0.15395
-0.102791
-0.118156
0.0102109
-0.206905
-0.322774
-0.663304
-0.585765
-0.146562
-0.175272
-0.0739728
-0.170853
-0.59777
-0.703088
-0.544986
0.300332
0.319465
0.337002
0.306731
0.332022
0.256831
0.251319
0.269374
0.279263
0.268793
-0.985369
-0.679487
-1.66581
-0.998676
-0.508846
0.28178
0.241994
0.453984
0.343491
0.409667
0.391905
0.357286
0.325524
0.326322
0.361185
0.0541187
0.161162
0.133567
0.148884
0.0587467
-0.00533707
0.28358
0.273312
0.313289
0.334449
0.296009
0.332549
0.190508
0.189268
0.186722
0.185117
0.182631
0.183607
0.110154
0.0805949
0.132218
0.114092
0.0742277
0.0595251
0.0425712
0.0384576
0.0361478
0.0349068
0.0372929
0.0421584
-0.401302
-0.242549
-0.228434
-0.175152
-0.446689
-0.3573
-0.403317
-0.391441
-0.454188
-0.481699
0.397216
0.644409
0.528346
0.651638
0.481879
0.503324
-0.247468
-0.327412
-0.370168
-0.153659
-0.0503841
0.0433125
-0.481012
-0.384854
0.442018
0.507625
0.370114
0.208795
-0.0664034
0.064424
0.239598
0.166557
0.211017
0.28617
0.281733
-0.218881
-0.194871
0.130351
0.345178
-0.143524
-0.0744003
-0.137428
0.142391
0.0699998
)
;

boundaryField
{
    wall-4
    {
        type            zeroGradient;
    }
    velocity-inlet-5
    {
        type            zeroGradient;
    }
    velocity-inlet-6
    {
        type            zeroGradient;
    }
    pressure-outlet-7
    {
        type            fixedValue;
        value           uniform 0;
    }
    wall-8
    {
        type            zeroGradient;
    }
    frontAndBackPlanes
    {
        type            empty;
    }
}


// ************************************************************************* //
