/*--------------------------------*- C++ -*----------------------------------*\
| =========                 |                                                 |
| \\      /  F ield         | OpenFOAM: The Open Source CFD Toolbox           |
|  \\    /   O peration     | Version:  4.0                                   |
|   \\  /    A nd           | Web:      www.OpenFOAM.org                      |
|    \\/     M anipulation  |                                                 |
\*---------------------------------------------------------------------------*/
FoamFile
{
    version     2.0;
    format      ascii;
    class       surfaceScalarField;
    location    "9";
    object      phi;
}
// * * * * * * * * * * * * * * * * * * * * * * * * * * * * * * * * * * * * * //

dimensions      [0 3 -1 0 0 0 0];

internalField   nonuniform List<scalar> 
1300
(
3.75095
5.62643
-6.34297
3.75095
-6.21801
5.62643
-4.53865
4.53865
-1.54466
1.54466
1.8772
1.87375
-5.10696
5.10696
-5.16839
5.16839
-2.92717
2.92717
-5.24635
5.24635
-5.06922
5.06922
4.6594
-4.6594
-5.05299
5.05299
-1.99091
1.99091
-5.38965
5.38965
3.17207
-3.17207
-5.28182
5.28182
-0.634816
0.634816
-0.550306
4.30126
3.20065
3.20065
-2.6735
2.6735
-4.85028
4.85028
6.21819
-6.21819
9.5897
-9.5897
-3.24673
-3.37394
1.3546
-8.10515
-4.86341
-4.86341
-8.44058
8.44058
-2.81415
2.81228
3.03568
-3.03568
-1.67995
1.67995
-4.45801
-0.0806439
-4.45801
4.66868
-0.130032
4.66868
-1.70021
0.155547
-1.70021
4.10443
-4.10443
1.35799
0.186671
1.35799
3.03263
-3.03263
-1.87775
3.75495
1.87321
-1.8701
6.17136
-1.88085
3.7546
-4.84229
4.84229
-5.22991
0.12295
-5.22991
5.04411
0.0628514
5.04411
-5.28964
5.28964
-5.1245
-0.0438919
-5.1245
5.2144
-0.0460085
5.2144
3.1223
-3.1223
-2.95319
0.0260198
-2.95319
2.86555
0.0616201
2.86555
0.353872
5.27256
-5.9803
8.79258
-5.27256
0.0262051
5.20868
0.0376695
5.20868
-5.10736
0.0381346
-5.10736
5.00961
0.0596093
5.00961
4.73951
-0.0801181
4.73951
-4.78509
0.125696
-4.78509
-3.33393
-3.2787
-5.12133
0.0683368
-5.12133
-2.02926
0.0383467
-2.02926
1.9768
0.0141123
1.9768
-3.81165
3.81165
-5.29757
-0.0920754
-5.29757
3.11919
0.0528793
3.11919
1.86896
1.88199
5.61992
-5.61992
2.44784
-5.27298
-0.00884087
-5.27298
-5.30187
-4.28783
5.30187
-0.0200464
-0.934127
0.299311
-0.934127
3.16074
0.0399064
3.16074
2.7834
0.0821444
-2.7834
0.109901
3.51012
-3.51012
2.06022
0.613282
2.06022
-5.56953
5.56953
4.94983
0.0597775
-4.94983
0.0995565
6.15743
0.0607596
6.15743
-6.19956
-0.0186327
-6.19956
3.34689
-6.72083
-3.32982
4.96446
0.0885321
-4.96446
0.101044
3.05393
-0.0182431
3.05393
-2.98677
2.98677
-3.02339
-0.0122978
-3.02339
-2.19282
0.512866
-2.19282
1.13302
0.546925
1.13302
-4.34553
-0.112473
-4.34553
-4.948
-0.349567
4.948
-0.279322
1.17412
-1.17412
-1.82925
0.129047
-1.82925
-4.21448
-0.131052
4.21448
-0.11005
-4.01978
-0.084651
-4.01978
-3.01699
-0.00639688
3.01699
0.0156355
3.09258
0.0681653
-3.09258
0.0599502
-1.87039
3.75238
-1.88056
3.75377
-4.67607
-0.166217
-4.67607
4.96137
-0.119087
4.96137
5.40675
-0.017098
-5.40675
0.176832
5.01518
0.0289316
5.01518
-5.29305
0.00340915
-5.29305
5.28891
0.000728759
5.28891
5.06014
-0.0449625
-5.06014
-0.0643543
5.25264
-0.0382419
5.25264
3.16766
-0.0453598
3.16766
-3.09485
-0.0274524
-3.09485
2.98564
-2.98564
2.96588
0.0197585
-2.96588
0.0126934
-11.1324
11.1138
-0.0349323
-11.0975
5.17375
5.17375
4.1804
0.559112
4.1804
-5.00451
0.219417
-5.00451
3.33407
-6.66389
3.26587
-6.5998
3.33472
-11.4399
3.35715
-6.63585
5.23786
-5.23786
5.17838
0.059481
-5.17838
0.0570571
-2.02805
-0.00120692
-2.02805
-3.52562
-0.28603
-3.52562
4.091
-0.279346
4.091
-2.99937
2.99937
-3.05752
0.0581499
3.05752
0.0616714
5.26729
-0.0146518
-5.26729
-0.00568745
1.14657
0.211419
-1.14657
0.212442
3.70467
-0.19455
3.70467
-3.31761
-0.192503
-3.31761
-2.05549
0.0274439
2.05549
0.00472931
-5.81814
0.248614
-5.81814
-11.1907
0.0932602
-11.1531
-6.1063
-6.1063
2.33428
11.1269
-3.07522
-0.0196237
3.07522
-0.0212942
2.97546
0.0239108
-2.97546
-0.0113103
-2.99609
0.0104525
2.99609
-0.00932198
-2.60084
0.408022
-2.60084
-0.475241
0.475241
-0.682134
0.206893
0.682134
0.450891
1.71641
-0.542287
1.71641
1.9316
0.0451946
-1.9316
0.102348
-3.93744
-0.0823433
-3.93744
5.09767
-0.136294
5.09767
-3.21484
-0.102769
3.21484
-0.0471852
-0.0326809
11.1465
-5.14107
0.0337141
5.14107
-11.2072
11.2409
-3.25692
0.656084
3.25692
0.923481
5.29378
0.275749
-5.29378
0.289268
5.27501
0.0139007
-5.27501
0.0371423
-3.13378
-0.391841
-3.13378
-4.39465
-0.281422
4.39465
-0.303649
-11.4753
-0.202626
11.678
-11.4157
6.02077
0.136666
-6.02077
11.3776
-0.743307
-0.430811
0.743307
-0.268066
2.20446
-0.488055
2.20446
3.85911
-0.154445
-3.85911
-0.078328
-5.23467
-0.0583784
5.23467
-0.136999
-2.67873
-0.455052
2.67873
-0.47427
-4.27161
4.31152
1.89975
-3.34249
-3.37834
-7.63032
1.84644
1.90594
4.29428
-7.03935
-4.40052
-6.9383
7.27496
-6.98569
-9.23053
9.15042
7.41341
-7.49806
-5.76505
5.82672
6.3633
-6.34766
1.88086
1.87409
10.5023
-10.3794
-10.571
10.4047
10.2078
-10.2517
10.7276
-10.7242
-12.3684
12.3823
-5.72184
5.74786
-6.61081
6.58336
-6.75441
6.70723
-3.35551
-3.24429
9.01368
-8.94534
11.7523
-11.7612
-10.4596
10.3675
3.36086
0.950657
3.42902
-1.88705
3.76791
-1.86755
3.7673
3.31758
-6.67308
3.34631
-6.72465
6.04837
5.70396
-6.02832
-1.602
-5.87045
5.85221
-5.84504
5.83572
8.30723
-8.38787
-1.88753
3.76163
-1.86624
3.77218
-3.40873
-2.35632
3.35585
0.938434
5.55955
3.45413
-5.64808
-1.29022
-7.56173
7.40728
-7.8559
7.66339
-0.466952
5.84293
-5.37597
4.38333
-1.5742
7.41713
5.70076
5.92017
5.86993
-5.59418
1.11576
-6.49174
-6.39218
-2.67006
2.79911
2.6353
-2.44863
5.80206
1.61136
5.69201
-5.42217
-2.0759
-5.50451
3.79912
2.0276
3.85727
4.0315
2.3318
4.0251
3.04236
-3.027
-0.0153568
-3.08891
6.13127
0.734622
-5.44523
-4.5068
6.85672
3.64558
6.91957
-6.99201
-3.38735
-6.81518
-6.41961
-4.15135
-6.70103
6.69501
3.70974
6.57592
-7.9903
7.8533
6.80893
3.3989
6.76292
-6.748
-3.50372
-6.81235
10.4628
-2.69098
-7.77185
-6.92525
-5.44312
6.92452
3.80308
7.51674
4.86553
7.55388
3.57025
6.89258
-7.37333
1.93021
-3.8312
-1.89064
-3.81851
3.70887
2.03899
3.77049
-4.13883
-2.47198
-4.15845
-4.1936
-2.56081
4.23896
2.3444
-4.30129
-3.5546
4.40406
2.30316
2.97163
-7.37216
3.66422
-6.90851
-6.27209
-2.67326
-6.21503
4.07218
2.64972
-6.7219
-2.6009
10.9276
-5.2236
9.32555
-7.31966
-4.4415
-7.32535
-7.01317
-3.4464
-7.36273
-6.04978
5.65794
-6.07887
5.79953
11.6785
-5.14405
-6.53447
-3.91381
-2.43385
3.85386
-0.424834
-3.75322
3.73786
0.0146894
3.78199
4.73265
4.30781
-3.86019
-1.98485
-3.8715
3.84122
1.9945
3.85167
6.19808
2.10915
6.06805
-6.01076
-2.37711
-6.12324
9.31846
-8.8056
2.94339
-2.91595
5.11479
2.54861
-4.92024
-2.64149
5.94989
-2.96969
-2.9802
-12.3172
10.5812
1.73593
-4.90003
-0.516709
0.118107
-5.49004
-3.7405
5.36434
0.555835
11.1371
7.39657
-5.51354
5.76216
6.16443
6.2242
-0.167977
5.84576
-5.18968
5.42826
-2.32159
-3.10667
5.09037
-5.22142
-1.03287
-5.18792
4.15506
0.470583
1.86891
-1.56959
-2.17204
-0.498018
-2.0697
1.60968
1.02563
1.8211
1.00208
1.79703
-2.86518
0.496055
2.36912
-1.8631
-1.95258
-3.60606
-0.911138
4.5172
5.39847
2.00881
-5.32014
-0.184372
2.81359
-2.79948
-0.876568
-2.72949
1.90563
-2.78219
-3.3758
-1.85815
5.23395
-3.35142
-0.520086
3.32751
0.529763
-3.75491
-2.11555
3.7672
0.257898
-3.0769
6.13704
-3.06014
-5.06175
2.53716
3.5941
4.56477
-4.87028
2.47935
2.39093
-1.27617
5.91952
1.00005
5.94846
-9.07471
5.68736
7.40942
2.95807
-7.39233
0.577149
-8.49756
9.74285
-8.21801
-1.52483
5.24466
4.49819
5.52722
6.1513
-4.12158
9.6488
-0.592559
-7.62546
9.09012
-6.13205
4.93353
-11.0656
-11.0848
3.45937
-6.98597
8.58488
-1.59891
-2.47824
-5.51206
9.46421
-0.927573
-8.53664
5.64835
-5.37624
-5.28081
10.6571
-8.06722
8.78454
-2.65656
-6.12797
-6.69415
-4.03005
6.75253
1.10077
-9.90056
11.8308
-3.00798
5.92369
0.839227
5.88545
3.92498
-6.04123
2.11625
4.14224
-6.7988
2.54668
-8.58791
-4.82636
9.46703
-4.64067
-7.49962
-6.70282
-0.796802
2.02536
9.80541
-6.89089
5.30448
1.58641
3.31716
0.534507
-3.33692
-0.481588
0.335871
4.43478
-4.77065
4.10636
4.1885
3.29059
1.14419
3.81649
2.03572
-3.7952
-0.363253
-4.0185
1.45768
-1.6741
-3.41523
4.87291
-3.88369
0.468459
-2.62801
-3.44115
6.06916
-4.51864
3.05019
3.08686
5.04469
-4.77134
1.33019
-2.35432
-2.41702
2.5535
-4.22759
1.81877
3.05414
4.12194
0.567336
4.78934
4.67769
-7.43906
0.530555
8.13182
-6.8416
1.68242
5.87146
-6.98691
0.28409
-5.93094
1.1293
-6.3529
-5.5926
4.63794
-8.08434
-6.42764
6.05403
0.0140232
-5.77471
-1.58803
-3.87378
-2.176
-4.32883
-1.88908
-4.1898
-6.01065
-1.18211
-4.82854
4.47583
-4.50861
-2.19242
4.81226
0.987265
-6.73344
6.30263
-5.46629
4.97824
0.0442185
3.69365
4.35203
1.91818
-2.41747
4.33565
-3.64413
5.75327
-7.30682
3.6627
4.04164
-6.41875
-3.26518
5.05766
4.2608
5.60458
8.73602
-12.3559
3.61989
-12.0695
11.0408
1.0287
-17.2479
5.17841
-8.51192
2.70786
0.23553
2.70665
0.642529
2.32137
-2.9639
-2.27342
-2.26869
-2.15542
-3.24444
5.39986
1.04875
-3.19656
2.14781
-3.39661
4.44536
0.0236979
-3.22026
5.14968
-2.8283
5.38521
-3.37291
2.0123
3.12158
5.37568
-2.2541
4.18003
-1.63142
1.7059
-3.96
-1.53854
-2.94907
4.98806
-3.12009
3.58854
-0.217408
3.80595
-3.90946
0.939771
-0.618867
3.56964
3.67954
4.16283
-3.01863
2.77737
-4.40879
-1.18263
-3.84146
-0.787319
0.837442
-4.85351
4.01607
7.39506
-6.55761
-5.28653
9.9511
-4.66458
7.83834
-5.36056
-2.47777
-4.3356
-4.47
3.92758
1.91819
9.75652
0.261609
-5.62217
-4.92807
-4.00459
3.25679
2.17147
-2.10991
3.84584
1.9918
-0.122896
0.622459
1.19864
1.86245
-1.23999
0.158515
1.70394
-1.41108
2.11836
0.695229
-2.16356
0.0938618
-1.3898
3.29543
0.979322
-2.00495
0.764953
1.10845
-3.43004
4.83502
-2.59856
-2.23646
5.94347
0.964897
-3.56346
4.22303
-3.75244
2.28043
-3.19157
-1.28303
-5.03547
-3.42411
-2.36605
4.51386
-3.03381
5.04262
1.13806
-4.85825
5.99631
-3.34806
1.48991
-3.05511
3.75034
-1.09729
-1.95782
2.6297
2.60425
-2.82051
0.0910134
-0.190802
2.17847
-2.36928
-0.603721
-2.46682
-4.57909
4.83698
-2.08836
4.56772
2.24729
-1.90362
6.47134
1.84801
-3.75163
-3.21374
-3.73382
-1.36071
3.20406
-1.00568
-5.80667
-7.13366
5.85163
0.0968243
-9.09089
10.2889
-1.19802
-5.4453
-0.242059
5.48671
-7.52248
0.723675
-4.9758
5.31311
6.31316
6.40998
-8.54638
0.00974356
-4.83664
1.39019
-6.22683
5.88838
-3.23439
6.69377
-7.40167
5.20925
-6.41441
5.16893
-1.0579
5.59254
-3.4763
2.1793
-6.20935
-5.10858
6.97541
-3.57651
7.81463
-4.07257
11.8872
-7.08055
6.91886
4.96834
-1.37933
-5.94603
-6.84364
5.46431
0.0752249
5.96068
4.86095
-2.82523
4.49769
2.20188
-4.55621
-2.02571
-6.39426
1.83805
-3.3074
-1.85988
3.69794
3.18481
3.71931
1.28092
-3.23772
6.6333
-7.4301
-1.99263
-3.59998
6.76266
-1.29835
4.03173
-7.63171
-2.32116
7.13697
-3.14941
-3.98756
-1.99292
-4.43472
4.02423
-8.45895
4.06011
-5.64814
1.99402
-10.5059
-4.73942
-5.00749
-1.6021
-3.86419
-7.07456
5.47246
-1.89615
4.40648
-8.88562
5.73621
-2.15521
7.62767
-3.49026
-0.838572
3.96453
1.01371
8.64138
1.41152
-4.67671
-2.25986
4.61454
-2.35468
0.996931
-3.44199
1.17255
2.40716
3.53631
-6.56221
0.143466
-4.53324
-4.02334
8.28415
5.92776
13.3228
0.96691
9.70439
-1.42024
10.6713
4.18434
4.63523
-3.54546
7.16534
0.470615
4.13331
-0.834977
2.84727
1.87168
1.91002
0.889457
2.22146
1.45808
3.16123
0.197329
-2.07136
4.58703
-8.59162
-1.03515
-8.0325
1.11791
5.6811
-4.56319
3.50314
-1.33167
1.14846
0.407334
-1.79279
1.38545
-2.69934
-1.91568
-0.211744
-1.49475
2.25971
1.80067
-2.04796
-0.651377
0.257513
-3.68163
2.93405
-2.84304
-0.238791
5.75752
-2.57055
0.201277
-1.08064
-2.26554
-2.76356
2.6697
6.14873
0.322608
3.08859
5.15959
3.04405
0.218815
4.48677
-6.08567
-4.10114
-6.07593
-0.18755
5.29916
2.0371
7.76831
7.00544
5.70709
-1.92462
-9.35472
7.08159
0.0837515
8.11029
-4.12273
-4.33622
4.07867
1.67461
-4.09269
-1.55545
-5.89167
-5.80792
-1.22901
6.96522
-7.41237
6.5738
4.3978
0.430745
-4.4704
-0.537091
4.26351
0.371725
11.043
-1.08434
-6.73301
7.81735
-4.59676
3.56161
1.18651
2.65933
2.57197
1.2403
-5.49271
-10.0559
-1.86061
-1.56943
-4.09707
0.420131
-2.22081
6.18207
-2.62046
3.7043
5.19688
6.34534
-1.76563
-4.79199
6.4302
-2.7259
3.61944
)
;

boundaryField
{
    wall-4
    {
        type            calculated;
        value           uniform 0;
    }
    velocity-inlet-5
    {
        type            calculated;
        value           uniform -3.75095;
    }
    velocity-inlet-6
    {
        type            calculated;
        value           uniform -5.62643;
    }
    pressure-outlet-7
    {
        type            calculated;
        value           nonuniform List<scalar> 8(6.34297 6.21801 6.62067 6.75055 6.61262 6.67671 6.59993 6.69188);
    }
    wall-8
    {
        type            calculated;
        value           uniform 0;
    }
    frontAndBackPlanes
    {
        type            empty;
        value           nonuniform 0();
    }
}


// ************************************************************************* //
