/*--------------------------------*- C++ -*----------------------------------*\
| =========                 |                                                 |
| \\      /  F ield         | OpenFOAM: The Open Source CFD Toolbox           |
|  \\    /   O peration     | Version:  4.0                                   |
|   \\  /    A nd           | Web:      www.OpenFOAM.org                      |
|    \\/     M anipulation  |                                                 |
\*---------------------------------------------------------------------------*/
FoamFile
{
    version     2.0;
    format      ascii;
    class       volScalarField;
    location    "12";
    object      p;
}
// * * * * * * * * * * * * * * * * * * * * * * * * * * * * * * * * * * * * * //

dimensions      [0 2 -2 0 0 0 0];

internalField   nonuniform List<scalar> 
2200
(
0.432792
0.411333
0.395535
0.379941
0.365533
0.353365
0.343308
0.335485
0.329974
0.327103
0.327347
0.330656
0.336479
0.344535
0.354758
0.367048
0.381537
0.397179
0.413006
0.43448
0.365113
0.361901
0.359133
0.355234
0.350095
0.34385
0.33747
0.331813
0.327492
0.325108
0.325342
0.328208
0.332868
0.338773
0.345325
0.351681
0.356899
0.360857
0.363665
0.366889
0.324522
0.324928
0.327389
0.329203
0.330095
0.329591
0.327958
0.325505
0.323055
0.32143
0.32174
0.323871
0.326687
0.329405
0.331227
0.331865
0.331071
0.329321
0.326904
0.326517
0.301442
0.303034
0.306067
0.30897
0.311908
0.31442
0.316139
0.316779
0.316689
0.316337
0.316706
0.317604
0.318105
0.317772
0.316285
0.313936
0.311117
0.308293
0.305314
0.303734
0.287614
0.289436
0.292575
0.295837
0.298956
0.302028
0.30478
0.306989
0.308563
0.309481
0.309854
0.309613
0.308595
0.306754
0.304254
0.301358
0.298352
0.295174
0.292099
0.290286
0.28255
0.283874
0.286358
0.289387
0.292416
0.295198
0.29751
0.299638
0.301491
0.302863
0.303321
0.302801
0.301619
0.299961
0.297934
0.295356
0.292469
0.289524
0.287089
0.28578
0.282972
0.283682
0.285196
0.287617
0.290227
0.292536
0.29446
0.296231
0.297755
0.298942
0.299497
0.299285
0.298511
0.297326
0.29581
0.293792
0.291382
0.289083
0.287611
0.286915
0.284611
0.284879
0.285594
0.28701
0.2887
0.290405
0.292073
0.293668
0.295039
0.296157
0.296822
0.296858
0.296395
0.295525
0.294405
0.293066
0.291618
0.290358
0.289706
0.28942
0.284058
0.284123
0.284322
0.284845
0.285593
0.286539
0.287771
0.289191
0.290617
0.291924
0.292849
0.293116
0.292875
0.292267
0.291625
0.291073
0.290578
0.290226
0.290102
0.290056
0.281153
0.281161
0.281221
0.28143
0.281805
0.282302
0.283107
0.284219
0.285536
0.286962
0.288182
0.288861
0.289002
0.288914
0.288768
0.28871
0.288642
0.28862
0.288652
0.288643
0.277721
0.277683
0.277812
0.278082
0.278495
0.279047
0.2798
0.280756
0.281982
0.283449
0.28485
0.285909
0.286533
0.286898
0.287069
0.287143
0.287133
0.287108
0.287113
0.287118
0.274273
0.274295
0.274434
0.274751
0.275227
0.275877
0.276751
0.277851
0.27926
0.280937
0.282628
0.283987
0.284947
0.285503
0.28586
0.286031
0.286079
0.286082
0.286085
0.286086
0.270393
0.270415
0.27053
0.270781
0.271226
0.271873
0.272827
0.274111
0.275795
0.277882
0.28008
0.28183
0.28311
0.283934
0.284464
0.284797
0.284996
0.285114
0.285174
0.285173
0.265742
0.265739
0.265896
0.266147
0.266576
0.267261
0.268288
0.26975
0.271753
0.274335
0.277165
0.279496
0.281123
0.282298
0.283099
0.283634
0.283985
0.284204
0.284315
0.28432
0.260422
0.260419
0.260596
0.260932
0.261472
0.262299
0.26353
0.265294
0.267734
0.270933
0.274491
0.277488
0.279647
0.28121
0.282255
0.282956
0.283407
0.283679
0.28381
0.283816
0.254417
0.254419
0.25464
0.255087
0.255801
0.256866
0.258426
0.260639
0.263691
0.267699
0.272163
0.275963
0.278746
0.28069
0.282007
0.282886
0.28345
0.283787
0.283946
0.283947
0.247695
0.247706
0.247979
0.248513
0.249384
0.250718
0.252683
0.255485
0.259339
0.264396
0.270011
0.274781
0.278264
0.280692
0.282349
0.283449
0.284151
0.284567
0.284762
0.284764
0.239734
0.23975
0.240119
0.240827
0.241958
0.24366
0.246149
0.249695
0.254572
0.260951
0.267998
0.273958
0.278294
0.28133
0.283404
0.284787
0.285682
0.286221
0.286475
0.286475
0.230481
0.230496
0.230941
0.231807
0.233235
0.235427
0.238632
0.243182
0.249391
0.257448
0.266269
0.273687
0.279072
0.282847
0.285422
0.287132
0.288227
0.288873
0.289172
0.289169
0.219158
0.219209
0.219847
0.221042
0.222934
0.225785
0.229928
0.235782
0.243712
0.25388
0.264875
0.274057
0.280704
0.285358
0.288531
0.290643
0.292009
0.292834
0.293222
0.293221
0.205542
0.205573
0.206362
0.207903
0.210415
0.214232
0.219706
0.227342
0.237505
0.250313
0.263947
0.27524
0.283403
0.289135
0.293058
0.295678
0.297361
0.298351
0.298803
0.298783
0.188311
0.188464
0.189656
0.191855
0.195293
0.200393
0.207695
0.217707
0.230746
0.246805
0.263578
0.277351
0.287296
0.294298
0.299109
0.302325
0.304414
0.305676
0.306263
0.306256
0.166783
0.166902
0.168489
0.171603
0.176486
0.183639
0.193567
0.206761
0.223445
0.243432
0.263884
0.280525
0.292548
0.301076
0.307016
0.311065
0.313708
0.315276
0.315986
0.315931
0.13805
0.13865
0.141287
0.146021
0.153295
0.163464
0.177132
0.194588
0.215802
0.240443
0.265103
0.284979
0.299353
0.309647
0.31691
0.321924
0.325287
0.327346
0.328312
0.328242
0.100201
0.10106
0.105423
0.113345
0.12466
0.139591
0.158449
0.18129
0.207974
0.237969
0.267279
0.290675
0.307632
0.319911
0.328791
0.335144
0.339545
0.342349
0.343711
0.343488
0.0497782
0.0505057
0.0587271
0.0721501
0.0902595
0.112095
0.13774
0.167251
0.200342
0.236295
0.270608
0.297738
0.317491
0.331999
0.342687
0.350593
0.35634
0.360032
0.361459
0.361094
-0.0203481
-0.0157932
0.00225364
0.0254146
0.0523624
0.0823588
0.115892
0.152976
0.193136
0.235735
0.27574
0.307326
0.330651
0.348221
0.361632
0.37195
0.380006
0.386108
0.388607
0.388639
-0.104194
-0.0879739
-0.0565292
-0.0225914
0.0136736
0.0522142
0.0940871
0.138893
0.186308
0.235966
0.282299
0.319095
0.346721
0.368065
0.385015
0.39872
0.409691
0.418198
0.425085
0.426098
-0.168847
-0.151166
-0.11098
-0.0691937
-0.0242981
0.0230494
0.0731516
0.125425
0.179974
0.236429
0.288701
0.330155
0.361328
0.385465
0.404528
0.419974
0.432552
0.441758
0.447776
0.448623
-0.216937
-0.201
-0.15674
-0.110304
-0.0586231
-0.00382212
0.0533953
0.11259
0.173887
0.236645
0.294235
0.339466
0.373067
0.398719
0.418599
0.434176
0.446877
0.456112
0.461999
0.462941
-0.256365
-0.240508
-0.194314
-0.145119
-0.0881942
-0.0278653
0.0350834
0.100364
0.167627
0.235933
0.29804
0.346185
0.381403
0.407847
0.428078
0.44363
0.456273
0.465287
0.471579
0.472259
-0.290191
-0.274009
-0.225649
-0.174255
-0.113485
-0.04931
0.0181691
0.0885617
0.160931
0.234197
0.30042
0.351197
0.387821
0.414945
0.435543
0.451239
0.463811
0.472891
0.47885
0.479802
-0.319776
-0.303655
-0.252818
-0.199059
-0.13536
-0.0685492
0.00253526
0.0771614
0.153976
0.23184
0.301989
0.355318
0.393455
0.421431
0.442452
0.458354
0.470854
0.479974
0.485693
0.486613
-0.346306
-0.330416
-0.277678
-0.221345
-0.15508
-0.0860374
-0.0119197
0.0662518
0.146994
0.22915
0.303191
0.359295
0.39905
0.42786
0.449277
0.465387
0.477817
0.486926
0.492534
0.493386
-0.37079
-0.354861
-0.30136
-0.242599
-0.173904
-0.102504
-0.0255439
0.0557216
0.140019
0.226255
0.304225
0.363081
0.404468
0.434243
0.456103
0.472349
0.484783
0.493815
0.499369
0.500193
-0.393792
-0.377386
-0.323856
-0.26322
-0.192528
-0.118685
-0.0389585
0.0451466
0.132724
0.22272
0.304389
0.366194
0.409598
0.440505
0.462971
0.479615
0.492087
0.501122
0.506586
0.507328
-0.415163
-0.398702
-0.344852
-0.28298
-0.210906
-0.134895
-0.0526489
0.0340964
0.124755
0.218384
0.30408
0.369286
0.414912
0.447207
0.470347
0.487172
0.499699
0.508618
0.514046
0.514856
-0.435283
-0.418901
-0.364551
-0.301817
-0.228765
-0.151037
-0.066672
0.0224893
0.116099
0.213323
0.303014
0.371536
0.419754
0.45367
0.477839
0.495265
0.50802
0.516926
0.522287
0.522974
-0.454909
-0.438153
-0.383434
-0.319961
-0.246026
-0.166926
-0.0808311
0.0104572
0.106735
0.207201
0.300569
0.373018
0.424582
0.460931
0.486257
0.504178
0.516925
0.525674
0.530956
0.531635
-0.474383
-0.456844
-0.401869
-0.337645
-0.262791
-0.182512
-0.0949798
-0.00188745
0.0967087
0.200189
0.29766
0.374135
0.428895
0.467683
0.494763
0.513423
0.526534
0.535418
0.540371
0.540854
-0.493555
-0.47524
-0.419971
-0.354969
-0.279207
-0.197867
-0.109096
-0.0144587
0.0861877
0.192458
0.293509
0.373854
0.432601
0.474814
0.504185
0.524061
0.537221
0.545357
0.55005
0.5504
-0.51219
-0.493348
-0.437675
-0.371918
-0.295332
-0.213051
-0.123198
-0.0272317
0.0751388
0.183697
0.287804
0.372392
0.435441
0.481596
0.514101
0.535545
0.548823
0.556802
0.560643
0.560505
-0.530155
-0.510978
-0.454866
-0.388428
-0.311146
-0.228063
-0.137287
-0.0401994
0.063579
0.174088
0.281364
0.369693
0.436742
0.487313
0.5239
0.548562
0.562924
0.568971
0.570528
0.569862
-0.547414
-0.528002
-0.471444
-0.40442
-0.326563
-0.242826
-0.151293
-0.0532927
0.0516885
0.163871
0.273576
0.365263
0.436906
0.492199
0.533838
0.563066
0.579767
0.584151
0.581262
0.578238
-0.563949
-0.544318
-0.487352
-0.419824
-0.341498
-0.257246
-0.165124
-0.066401
0.039547
0.153021
0.264477
0.359163
0.434612
0.49508
0.542806
0.578658
0.6012
0.604777
0.596496
0.600193
-0.579754
-0.559952
-0.502556
-0.434583
-0.355878
-0.271229
-0.178663
-0.079388
0.0272513
0.141659
0.254513
0.351292
0.430148
0.495309
0.548795
0.592777
0.626408
0.630423
0.590431
0.535195
-0.594718
-0.574925
-0.517111
-0.448781
-0.369804
-0.28489
-0.192055
-0.0924675
0.0146077
0.129608
0.243374
0.341423
0.422636
0.491678
0.550998
0.603425
0.652117
0.689615
0.722324
0.775281
-0.608876
-0.58923
-0.531101
-0.462567
-0.383455
-0.298454
-0.205585
-0.105975
0.00117111
0.116294
0.230191
0.328447
0.411294
0.483176
0.543142
0.592801
0.630963
0.659764
0.652233
0.655482
-0.62229
-0.602824
-0.544493
-0.475905
-0.39677
-0.311844
-0.21913
-0.11974
-0.0128915
0.101819
0.215027
0.312572
0.393554
0.464699
0.522179
0.563272
0.571385
0.542489
0.494658
0.48942
-0.635003
-0.615776
-0.557303
-0.488806
-0.40975
-0.325057
-0.232676
-0.133756
-0.0275112
0.086343
0.198212
0.294142
0.371889
0.435983
0.487289
0.502093
0.470202
0.403765
0.332591
0.326722
-0.64701
-0.628131
-0.56956
-0.501294
-0.422413
-0.338103
-0.246208
-0.147961
-0.0426384
0.0698507
0.179499
0.272793
0.345146
0.396208
0.423626
0.408123
0.359986
0.254683
0.163208
0.148631
-0.658704
-0.640282
-0.581636
-0.513706
-0.435086
-0.351261
-0.259972
-0.162573
-0.0584824
0.0521904
0.158795
0.24781
0.312761
0.349735
0.339734
0.293814
0.183882
0.0526096
-0.0626793
-0.0849669
-0.670871
-0.652908
-0.594154
-0.52659
-0.448285
-0.364972
-0.274368
-0.177962
-0.0752485
0.0334472
0.136339
0.220366
0.276883
0.290606
0.24156
0.142962
-0.0328514
-0.199065
-0.334701
-0.360115
-0.683959
-0.666351
-0.607356
-0.540135
-0.462158
-0.379341
-0.289462
-0.194085
-0.0928831
0.0134203
0.112184
0.18977
0.235994
0.219942
0.136019
-0.0340871
-0.266538
-0.504841
-0.701166
-0.750209
-0.697985
-0.680615
-0.621224
-0.554346
-0.476648
-0.394305
-0.305192
-0.21093
-0.111429
-0.0078079
0.0863393
0.156464
0.187323
0.133848
0.00997563
-0.219879
-0.501047
-0.841695
-1.20365
-1.34215
-0.712961
-0.695754
-0.635785
-0.569297
-0.491764
-0.409894
-0.321604
-0.228538
-0.1308
-0.0300623
0.0589523
0.121252
0.133079
0.0366625
-0.146217
-0.415239
-0.714386
-1.1349
-1.79976
-2.41232
-0.728853
-0.711712
-0.651029
-0.585037
-0.50745
-0.426052
-0.338601
-0.2467
-0.150722
-0.0530915
0.0309418
0.0838032
0.0757088
-0.0586361
-0.304134
-0.622139
-0.90461
-1.23039
-1.92814
-3.71148
-0.745646
-0.728406
-0.666999
-0.601656
-0.523745
-0.442919
-0.356352
-0.26573
-0.171601
-0.0770276
0.00217203
0.0450962
0.0199951
-0.140556
-0.438278
-0.786194
-1.01772
-1.12783
-1.19336
-1.66403
-0.763224
-0.745748
-0.683888
-0.619314
-0.540866
-0.460863
-0.375319
-0.286104
-0.194021
-0.10263
-0.0285097
0.00304226
-0.0466854
-0.203446
-0.516809
-0.841001
-1.04095
-1.09324
-1.05166
-1.10586
-0.781423
-0.763536
-0.701786
-0.637855
-0.558754
-0.479919
-0.395459
-0.307807
-0.218045
-0.129894
-0.0601209
-0.0351583
-0.113687
-0.262877
-0.571154
-0.855903
-1.03111
-1.0909
-1.1072
-1.13476
-0.799913
-0.781752
-0.720698
-0.656931
-0.57736
-0.499972
-0.41669
-0.330852
-0.243687
-0.15851
-0.0930947
-0.068948
-0.165124
-0.328745
-0.621946
-0.86892
-1.02293
-1.04581
-1.07042
-1.06262
-0.818423
-0.799973
-0.74017
-0.676029
-0.596549
-0.520814
-0.438671
-0.354914
-0.270293
-0.187793
-0.126336
-0.101443
-0.21867
-0.406036
-0.679251
-0.881026
-1.01443
-1.01389
-1.02699
-1.02189
-0.836652
-0.818067
-0.759383
-0.694606
-0.616045
-0.542029
-0.460963
-0.379994
-0.297413
-0.216926
-0.156864
-0.126569
-0.270205
-0.485065
-0.74881
-0.901788
-0.968921
-0.990048
-0.985335
-0.992535
-0.853998
-0.835444
-0.777492
-0.712108
-0.635646
-0.562955
-0.483477
-0.406077
-0.325472
-0.245258
-0.181665
-0.136378
-0.292737
-0.565576
-0.83352
-0.928068
-0.896239
-0.949131
-0.966147
-0.975899
-0.869782
-0.851277
-0.793925
-0.728354
-0.654713
-0.581901
-0.505782
-0.432404
-0.35435
-0.27359
-0.20434
-0.147167
-0.298193
-0.612682
-0.907768
-1.06038
-1.05346
-1.06216
-1.06999
-1.07061
-0.883247
-0.865028
-0.808084
-0.742833
-0.671086
-0.599236
-0.526612
-0.458221
-0.38508
-0.306803
-0.232759
-0.178786
-0.312433
-0.651689
-1.01533
-1.35618
-1.47813
-1.43767
-1.39843
-1.36393
-0.892878
-0.874991
-0.818612
-0.754021
-0.68352
-0.613763
-0.544992
-0.482531
-0.422328
-0.35221
-0.269955
-0.210197
-0.322653
-0.691422
-1.05695
-1.50168
-1.74155
-1.66873
-1.5795
-1.51943
-0.897832
-0.880197
-0.824539
-0.760642
-0.691361
-0.624056
-0.559937
-0.504041
-0.457791
-0.416307
-0.329198
-0.291752
-0.358395
-0.598677
-0.848342
-1.1361
-1.28657
-1.2459
-1.12838
-1.06134
-0.896466
-0.879192
-0.82442
-0.761556
-0.693743
-0.629157
-0.570854
-0.525598
-0.498708
-0.501493
-0.469793
-0.435233
-0.374745
-0.37378
-0.323488
-0.314115
-0.319382
-0.275163
-0.233431
-0.188822
-0.887497
-0.870703
-0.817029
-0.755492
-0.689116
-0.627782
-0.576048
-0.544938
-0.554596
-0.612871
-0.686809
-0.600475
-0.355801
-0.115534
0.184305
0.439911
0.561178
0.622137
0.64919
0.665719
-0.869013
-0.853367
-0.801478
-0.74127
-0.676371
-0.618794
-0.573302
-0.558101
-0.609514
-0.755231
-0.953649
-0.775548
-0.348063
0.0953947
0.556867
0.955644
1.1585
1.21234
1.23413
1.2436
-0.840458
-0.825974
-0.775122
-0.716893
-0.654999
-0.600579
-0.559276
-0.555415
-0.63771
-0.850776
-1.21509
-1.0148
-0.347733
0.280622
0.80756
1.17356
1.37216
1.42616
1.44781
1.45402
-0.799121
-0.786587
-0.737716
-0.682789
-0.623651
-0.570302
-0.529214
-0.525232
-0.603171
-0.792987
-1.20049
-0.971857
-0.237032
0.353551
0.837482
1.14283
1.3016
1.35915
1.38579
1.39438
-0.745332
-0.735246
-0.690207
-0.638325
-0.579614
-0.527648
-0.482634
-0.464947
-0.504574
-0.62885
-0.855624
-0.554626
0.0105099
0.452665
0.797226
1.0073
1.11961
1.17883
1.21271
1.22445
-0.682958
-0.675738
-0.633032
-0.583056
-0.526201
-0.472865
-0.421215
-0.383165
-0.37352
-0.40099
-0.419738
-0.110027
0.245747
0.537995
0.748647
0.876189
0.95627
1.008
1.04173
1.05401
-0.616258
-0.608663
-0.567001
-0.519421
-0.465518
-0.410442
-0.352875
-0.298016
-0.24777
-0.198206
-0.0967575
0.149921
0.368654
0.550876
0.669031
0.748752
0.805269
0.845919
0.874539
0.885664
-0.524801
-0.518115
-0.485618
-0.445493
-0.39627
-0.344013
-0.287081
-0.2258
-0.157265
-0.0675733
0.0369755
0.213447
0.373602
0.492136
0.570069
0.62503
0.664947
0.693865
0.71401
0.721328
-0.404709
-0.401706
-0.38364
-0.357614
-0.317277
-0.275857
-0.226777
-0.169498
-0.101722
-0.0126561
0.0902848
0.231272
0.343548
0.425601
0.481757
0.521421
0.549926
0.567741
0.580472
0.582806
-0.28677
-0.285767
-0.277723
-0.26175
-0.237628
-0.207615
-0.169469
-0.121779
-0.0618447
0.0173588
0.110733
0.219934
0.299991
0.358031
0.397705
0.424766
0.443006
0.453825
0.459262
0.460719
-0.183942
-0.183415
-0.179701
-0.172066
-0.159118
-0.140804
-0.114337
-0.0778893
-0.029048
0.0369181
0.114445
0.196273
0.255166
0.296964
0.324932
0.343281
0.35506
0.362065
0.366025
0.367715
-0.103058
-0.103771
-0.10231
-0.0986236
-0.0921802
-0.0818867
-0.0647702
-0.0385515
-0.00131963
0.0503351
0.111706
0.172237
0.21576
0.246188
0.266267
0.279245
0.287626
0.292736
0.295619
0.296377
-0.0450277
-0.0461315
-0.0467658
-0.045717
-0.0422124
-0.035635
-0.0242779
-0.0061522
0.0209827
0.0601572
0.1073
0.152067
0.184325
0.20674
0.221482
0.230812
0.236535
0.239514
0.240676
0.240549
-0.00595784
-0.00684021
-0.00857301
-0.00944238
-0.00795367
-0.00361012
0.00474398
0.0179552
0.0379237
0.0673965
0.103025
0.136233
0.160183
0.176755
0.187493
0.193832
0.197119
0.198186
0.198178
0.197767
0.0183676
0.0177129
0.0159911
0.0143369
0.0143594
0.0167608
0.0228721
0.0332618
0.0489243
0.0714948
0.0984835
0.123238
0.141085
0.153288
0.160893
0.164954
0.166588
0.166606
0.166149
0.165721
0.0322983
0.0318055
0.0305736
0.0292212
0.0287291
0.0296954
0.0337195
0.0415031
0.0539332
0.0717151
0.0926755
0.111464
0.12489
0.133814
0.139092
0.141653
0.142527
0.142352
0.141952
0.141579
0.0404033
0.0400107
0.039291
0.0385418
0.0382479
0.0387132
0.0412412
0.0465242
0.0558153
0.0696162
0.0860177
0.100436
0.11053
0.117003
0.120726
0.122486
0.123118
0.123062
0.122825
0.122535
0.0460649
0.0457754
0.0453587
0.0449441
0.0448896
0.0454213
0.0472031
0.0507128
0.0571986
0.067328
0.0797225
0.0905577
0.0980097
0.102712
0.105445
0.106769
0.10725
0.107221
0.107075
0.106855
0.0500891
0.0498753
0.0495493
0.0491084
0.0489749
0.0494614
0.0508608
0.0534761
0.0580426
0.0652116
0.0741596
0.0820433
0.0874655
0.0909195
0.0929428
0.0939067
0.094186
0.0940798
0.0939469
0.0937742
0.051886
0.0517102
0.0513786
0.050825
0.0505063
0.0507186
0.0516843
0.0537413
0.057179
0.062449
0.0689146
0.0746185
0.0785818
0.0811197
0.0825573
0.0831947
0.083303
0.0831326
0.0829974
0.0828565
0.0514568
0.0513114
0.0510076
0.0504588
0.0500867
0.0500764
0.0506088
0.0520891
0.0546757
0.0587199
0.0635807
0.0678221
0.0707456
0.0725831
0.0735654
0.0739709
0.0739954
0.0738206
0.0737012
0.0735872
0.0495378
0.0494284
0.0491968
0.0487549
0.0484551
0.0483847
0.0486595
0.0496491
0.0514768
0.054512
0.0581885
0.0613811
0.063534
0.0648567
0.0655314
0.0657992
0.0657946
0.0656453
0.0655501
0.065462
0.0467934
0.0467181
0.046552
0.0462202
0.0460047
0.0459451
0.0461151
0.0468011
0.0480536
0.0502423
0.0529349
0.0552807
0.0568397
0.057789
0.0582613
0.0584425
0.0584247
0.0583017
0.0582255
0.0581576
0.0434619
0.043409
0.0432822
0.0430281
0.0428611
0.0428054
0.0429162
0.0434175
0.0442951
0.045861
0.047787
0.0494766
0.0505937
0.051272
0.0515995
0.0517146
0.0516837
0.0515774
0.0515126
0.0514599
0.0396447
0.0396044
0.0395009
0.0393055
0.039169
0.0391119
0.0391734
0.0395344
0.0401624
0.0413016
0.0426866
0.0439036
0.0447025
0.0451811
0.0454001
0.0454637
0.0454228
0.0453298
0.0452734
0.0452322
0.0354819
0.0354517
0.0353685
0.0352209
0.0351094
0.0350549
0.0350816
0.035331
0.035775
0.036606
0.037611
0.0384885
0.0390529
0.0393842
0.0395283
0.0395607
0.0395191
0.0394419
0.0393948
0.0393618
0.0310736
0.0310503
0.0309859
0.0308787
0.0307918
0.0307453
0.0307529
0.0309203
0.0312266
0.0318193
0.0325441
0.0331734
0.033571
0.0338007
0.033894
0.0339059
0.0338653
0.0338007
0.0337615
0.0337356
0.0265118
0.0264944
0.0264445
0.0263653
0.0262975
0.02626
0.0262599
0.0263723
0.0265841
0.0270003
0.0275102
0.0279532
0.0282291
0.0283823
0.0284374
0.0284348
0.0283958
0.028341
0.0283084
0.0282888
0.0218386
0.0218253
0.0217871
0.0217281
0.0216741
0.0216419
0.0216371
0.021711
0.0218555
0.0221441
0.0224967
0.0227996
0.0229843
0.0230843
0.0231167
0.023108
0.0230739
0.0230297
0.0230034
0.0229877
0.0170816
0.0170712
0.0170401
0.0169939
0.0169506
0.0169223
0.016912
0.016955
0.0170486
0.0172424
0.0174839
0.0176891
0.0178113
0.0178739
0.0178885
0.0178745
0.0178436
0.0178063
0.0177846
0.0177723
0.0122554
0.0122486
0.0122267
0.0121933
0.012161
0.0121389
0.0121295
0.0121539
0.0122096
0.0123298
0.0124826
0.0126125
0.0126874
0.0127226
0.0127258
0.0127105
0.0126847
0.0126554
0.012639
0.0126309
0.00738252
0.00737716
0.00736201
0.00733983
0.00731863
0.00730404
0.00729637
0.00730679
0.00733572
0.00740511
0.00749321
0.00756615
0.00760402
0.00761887
0.00761789
0.00760693
0.00758892
0.00756806
0.00755612
0.00754942
0.00247615
0.00247364
0.00246511
0.0024531
0.00244332
0.00243737
0.00243259
0.00243647
0.0024466
0.00246875
0.00249656
0.00251989
0.00253319
0.00253838
0.00253673
0.00253198
0.00252352
0.00251209
0.00250612
0.00250279
-1.67439
-0.713057
-0.433935
-0.122248
0.0917905
0.278212
0.436988
0.598375
0.769546
0.84909
-0.592028
-0.129289
-0.0850129
0.124027
0.275287
0.410615
0.529455
0.633492
0.672119
0.624556
-0.147001
0.0974328
0.157406
0.303411
0.410093
0.505931
0.585573
0.644778
0.653477
0.663178
0.123761
0.289969
0.331768
0.448497
0.516761
0.58488
0.637412
0.674158
0.686178
0.708487
0.329608
0.445746
0.47457
0.559885
0.606151
0.654917
0.691516
0.718196
0.729996
0.76023
0.486738
0.566684
0.597105
0.650455
0.689015
0.722954
0.749948
0.771572
0.787068
0.814313
0.616756
0.673081
0.700468
0.733087
0.763672
0.789453
0.810906
0.830637
0.846014
0.87216
0.727221
0.767942
0.790486
0.812938
0.835584
0.856221
0.87442
0.893186
0.908671
0.932226
0.826123
0.856221
0.874043
0.890042
0.907194
0.924116
0.940482
0.958435
0.972123
0.994354
0.91674
0.938093
0.953652
0.967397
0.981527
0.995905
1.00977
1.02455
1.03617
1.05586
1.00452
1.0206
1.03468
1.04687
1.0591
1.07074
1.08176
1.09344
1.10115
1.11805
1.09028
1.10332
1.11723
1.12902
1.13975
1.14965
1.15847
1.16662
1.17028
1.18158
1.17954
1.19041
1.20424
1.21378
1.22139
1.22866
1.23583
1.24243
1.24342
1.25069
1.27851
1.28342
1.29144
1.29592
1.29916
1.30356
1.30952
1.31723
1.32104
1.33091
1.39191
1.37819
1.37071
1.36486
1.36209
1.36349
1.37005
1.38257
1.39742
1.42705
1.51241
1.45674
1.42584
1.40889
1.4008
1.40083
1.40956
1.42892
1.4608
1.52997
)
;

boundaryField
{
    wall-4
    {
        type            zeroGradient;
    }
    pressure-outlet-7
    {
        type            fixedValue;
        value           uniform 0;
    }
    velocity-inlet-6
    {
        type            zeroGradient;
    }
    velocity-inlet-5
    {
        type            zeroGradient;
    }
    frontAndBackPlanes
    {
        type            empty;
    }
}


// ************************************************************************* //
