/*--------------------------------*- C++ -*----------------------------------*\
| =========                 |                                                 |
| \\      /  F ield         | OpenFOAM: The Open Source CFD Toolbox           |
|  \\    /   O peration     | Version:  4.0                                   |
|   \\  /    A nd           | Web:      www.OpenFOAM.org                      |
|    \\/     M anipulation  |                                                 |
\*---------------------------------------------------------------------------*/
FoamFile
{
    version     2.0;
    format      ascii;
    class       volVectorField;
    location    "12";
    object      U;
}
// * * * * * * * * * * * * * * * * * * * * * * * * * * * * * * * * * * * * * //

dimensions      [0 1 -1 0 0 0 0];

internalField   nonuniform List<vector> 
2200
(
(0.879074 -0.030091 0)
(1.00588 -0.0512173 0)
(1.00292 -0.0348689 0)
(1.00019 -0.0243044 0)
(1.00023 -0.0168546 0)
(0.999712 -0.0107673 0)
(0.999448 -0.00696163 0)
(0.999787 -0.00434322 0)
(1.00001 -0.00243257 0)
(1.00018 -0.000749965 0)
(1.0001 0.000919881 0)
(0.999991 0.00262034 0)
(0.999735 0.00445805 0)
(0.999374 0.00702748 0)
(0.999685 0.0108152 0)
(1.00024 0.016886 0)
(1.00021 0.0243436 0)
(1.00294 0.0349078 0)
(1.00589 0.0512296 0)
(0.879074 0.0301061 0)
(0.713663 -0.0331304 0)
(0.997299 -0.0624335 0)
(1.03338 -0.0558453 0)
(1.02436 -0.0457908 0)
(1.01579 -0.0352339 0)
(1.01036 -0.0257876 0)
(1.00655 -0.0177524 0)
(1.00392 -0.0110392 0)
(1.00255 -0.00569676 0)
(1.00199 -0.00149562 0)
(1.002 0.00196748 0)
(1.00251 0.00611635 0)
(1.00387 0.0114579 0)
(1.00657 0.0181848 0)
(1.01035 0.0261987 0)
(1.01576 0.0355873 0)
(1.0243 0.0460401 0)
(1.03327 0.0559977 0)
(0.997187 0.0625662 0)
(0.713526 0.0331597 0)
(0.534797 -0.023383 0)
(0.971454 -0.0563196 0)
(1.05692 -0.0532466 0)
(1.05186 -0.0466586 0)
(1.03476 -0.0376087 0)
(1.02343 -0.0299308 0)
(1.01558 -0.0217879 0)
(1.01047 -0.0143491 0)
(1.00734 -0.00790698 0)
(1.00592 -0.00230666 0)
(1.00582 0.00319435 0)
(1.00724 0.00882619 0)
(1.01034 0.0151666 0)
(1.01538 0.0224749 0)
(1.02318 0.0304315 0)
(1.03448 0.0379983 0)
(1.05159 0.0469779 0)
(1.05667 0.0535523 0)
(0.971058 0.0564842 0)
(0.534226 0.0234332 0)
(0.399542 -0.0117523 0)
(0.91585 -0.0436934 0)
(1.06097 -0.0439558 0)
(1.07188 -0.0410956 0)
(1.0556 -0.0344803 0)
(1.03903 -0.0282993 0)
(1.02641 -0.0222017 0)
(1.01757 -0.0161707 0)
(1.01208 -0.00960669 0)
(1.00977 -0.00291866 0)
(1.00961 0.00435858 0)
(1.01183 0.0108004 0)
(1.01724 0.0171622 0)
(1.02597 0.0230081 0)
(1.03857 0.0290255 0)
(1.05514 0.0351045 0)
(1.07139 0.0416269 0)
(1.06024 0.0442978 0)
(0.914932 0.0439226 0)
(0.398503 0.0117998 0)
(0.325875 -0.00330337 0)
(0.856581 -0.0276597 0)
(1.05367 -0.0347542 0)
(1.08211 -0.0332133 0)
(1.07043 -0.0292634 0)
(1.05296 -0.0239494 0)
(1.03916 -0.0190966 0)
(1.02861 -0.0141197 0)
(1.02105 -0.00867377 0)
(1.01741 -0.00253512 0)
(1.01728 0.00444883 0)
(1.02073 0.0103295 0)
(1.02812 0.0155705 0)
(1.03863 0.0204801 0)
(1.05236 0.0250881 0)
(1.06979 0.0302087 0)
(1.08136 0.0339594 0)
(1.05264 0.0353124 0)
(0.854937 0.0279291 0)
(0.32432 0.00337085 0)
(0.291949 0.000874956 0)
(0.809916 -0.0139498 0)
(1.03844 -0.0218845 0)
(1.08361 -0.0234333 0)
(1.0765 -0.021848 0)
(1.0599 -0.0183916 0)
(1.04665 -0.0153446 0)
(1.03635 -0.0117226 0)
(1.02879 -0.00704205 0)
(1.02481 -0.00165328 0)
(1.02455 0.00406207 0)
(1.02813 0.00937638 0)
(1.03545 0.0138266 0)
(1.04546 0.0169605 0)
(1.05865 0.0197682 0)
(1.07517 0.0228949 0)
(1.08209 0.0242172 0)
(1.03653 0.0224641 0)
(0.807307 0.0142306 0)
(0.289824 -0.000781194 0)
(0.281471 0.00177388 0)
(0.779916 -0.00452899 0)
(1.02266 -0.0107134 0)
(1.07807 -0.0136587 0)
(1.07428 -0.0144395 0)
(1.05953 -0.0140856 0)
(1.04702 -0.0128963 0)
(1.03759 -0.00997713 0)
(1.03103 -0.00598237 0)
(1.02748 -0.000952377 0)
(1.0272 0.00396271 0)
(1.03025 0.00881508 0)
(1.03634 0.0123628 0)
(1.0454 0.0147923 0)
(1.05781 0.0155237 0)
(1.07243 0.0155679 0)
(1.07594 0.0145266 0)
(1.01999 0.0113143 0)
(0.776497 0.00483175 0)
(0.278522 -0.00168706 0)
(0.28179 0.00141288 0)
(0.765113 3.36077e-05 0)
(1.00969 -0.00348412 0)
(1.06971 -0.00680446 0)
(1.0689 -0.0088253 0)
(1.05689 -0.0103871 0)
(1.04647 -0.0101104 0)
(1.03849 -0.00811875 0)
(1.03264 -0.00493201 0)
(1.02926 -0.000359814 0)
(1.0289 0.00426854 0)
(1.03168 0.00851501 0)
(1.03707 0.0112498 0)
(1.04467 0.0127078 0)
(1.05474 0.0125853 0)
(1.06654 0.0105526 0)
(1.06701 0.00815687 0)
(1.00623 0.00436393 0)
(0.760623 0.000397775 0)
(0.278242 -0.00128704 0)
(0.285197 0.000639701 0)
(0.761043 0.000701528 0)
(1.00221 -0.00105754 0)
(1.06361 -0.00411779 0)
(1.06572 -0.00620476 0)
(1.05721 -0.00788293 0)
(1.04874 -0.00796046 0)
(1.04174 -0.00650274 0)
(1.03645 -0.00378177 0)
(1.03314 0.000312409 0)
(1.03251 0.00463898 0)
(1.03484 0.0084963 0)
(1.03936 0.0108271 0)
(1.04592 0.011842 0)
(1.05394 0.0109431 0)
(1.06218 0.00864185 0)
(1.05966 0.00591839 0)
(0.997292 0.00222599 0)
(0.754931 -0.000196882 0)
(0.280436 -0.000476791 0)
(0.287048 6.60162e-05 0)
(0.760137 0.000324032 0)
(0.998092 -0.000755 0)
(1.05915 -0.00332777 0)
(1.06336 -0.00511058 0)
(1.0577 -0.00629375 0)
(1.05168 -0.00609687 0)
(1.04631 -0.00465622 0)
(1.04193 -0.00214228 0)
(1.03884 0.00145777 0)
(1.0379 0.00513208 0)
(1.03937 0.0082808 0)
(1.04268 0.00994399 0)
(1.04718 0.0103146 0)
(1.05305 0.00982313 0)
(1.05839 0.0078509 0)
(1.05358 0.00534036 0)
(0.991166 0.00210569 0)
(0.752356 0.000362424 0)
(0.280964 3.15371e-05 0)
(0.287752 6.81838e-05 0)
(0.760021 0.00041563 0)
(0.994071 -0.000149816 0)
(1.05448 -0.0020306 0)
(1.06002 -0.00348224 0)
(1.05638 -0.0045007 0)
(1.05186 -0.00421589 0)
(1.04768 -0.00291253 0)
(1.04407 -0.000586921 0)
(1.0413 0.00256054 0)
(1.04031 0.0057987 0)
(1.04101 0.00815485 0)
(1.04318 0.00933071 0)
(1.0466 0.00955579 0)
(1.05043 0.00871113 0)
(1.05346 0.00675932 0)
(1.04718 0.00445128 0)
(0.98545 0.00178681 0)
(0.749541 0.000473305 0)
(0.280161 8.57981e-05 0)
(0.288951 0.00026801 0)
(0.760426 0.000647711 0)
(0.99159 0.000830152 0)
(1.05081 -0.000292639 0)
(1.05729 -0.00119668 0)
(1.05497 -0.00195487 0)
(1.05161 -0.00177225 0)
(1.04819 -0.000751568 0)
(1.04499 0.00118784 0)
(1.04231 0.00376778 0)
(1.04106 0.00650998 0)
(1.04139 0.00823471 0)
(1.04273 0.00881038 0)
(1.04476 0.00855575 0)
(1.04708 0.00735631 0)
(1.04864 0.00548081 0)
(1.04137 0.00342213 0)
(0.98046 0.00132835 0)
(0.747005 0.000342648 0)
(0.279102 6.73755e-05 0)
(0.290762 0.00026807 0)
(0.761818 0.000836917 0)
(0.991476 0.00135355 0)
(1.04936 0.00102889 0)
(1.05617 0.000664263 0)
(1.05485 0.000428869 0)
(1.05248 0.00078593 0)
(1.04977 0.00170538 0)
(1.0469 0.00331334 0)
(1.04418 0.00537317 0)
(1.04238 0.00743626 0)
(1.04195 0.008539 0)
(1.04239 0.00857221 0)
(1.04347 0.00779685 0)
(1.04466 0.00647155 0)
(1.0451 0.0047534 0)
(1.03712 0.0030076 0)
(0.976759 0.0013589 0)
(0.744968 0.000472862 0)
(0.278258 0.000128655 0)
(0.292806 0.000231798 0)
(0.764351 0.00096704 0)
(0.992097 0.00158187 0)
(1.04953 0.00174398 0)
(1.05651 0.00192115 0)
(1.05575 0.00227015 0)
(1.05398 0.00300891 0)
(1.05173 0.00411259 0)
(1.04906 0.00562882 0)
(1.04621 0.00736859 0)
(1.04384 0.00876172 0)
(1.04245 0.00931981 0)
(1.04201 0.00883399 0)
(1.04226 0.00771461 0)
(1.04256 0.00628573 0)
(1.0422 0.0046722 0)
(1.0338 0.00313595 0)
(0.973685 0.00173098 0)
(0.742703 0.000766958 0)
(0.276893 0.000214587 0)
(0.295113 0.000292638 0)
(0.767382 0.00114638 0)
(0.993696 0.00203797 0)
(1.0505 0.00267201 0)
(1.05752 0.00336497 0)
(1.05696 0.00420094 0)
(1.0554 0.00528876 0)
(1.05327 0.00662207 0)
(1.05055 0.00815328 0)
(1.04736 0.00967229 0)
(1.04436 0.0105228 0)
(1.04212 0.0104368 0)
(1.041 0.00950123 0)
(1.04031 0.00824212 0)
(1.04001 0.00665294 0)
(1.03921 0.0050397 0)
(1.03057 0.00352798 0)
(0.97045 0.00214968 0)
(0.739709 0.00101919 0)
(0.274881 0.000271883 0)
(0.297894 0.000393061 0)
(0.770985 0.001433 0)
(0.99651 0.00267346 0)
(1.05273 0.00366014 0)
(1.05962 0.00478765 0)
(1.05902 0.00607786 0)
(1.05736 0.0076283 0)
(1.05503 0.00933559 0)
(1.05196 0.0110674 0)
(1.04815 0.0125189 0)
(1.04433 0.0130063 0)
(1.04128 0.0123357 0)
(1.03931 0.0109996 0)
(1.03805 0.00925664 0)
(1.03722 0.00740427 0)
(1.03603 0.00562646 0)
(1.02715 0.00400351 0)
(0.966846 0.00254354 0)
(0.7361 0.00122977 0)
(0.272404 0.000319155 0)
(0.301789 0.000536551 0)
(0.776178 0.00194229 0)
(1.0002 0.00365665 0)
(1.05553 0.00524734 0)
(1.06226 0.00680561 0)
(1.0616 0.00857528 0)
(1.05976 0.0104927 0)
(1.05709 0.0125329 0)
(1.05345 0.0144809 0)
(1.04878 0.0159191 0)
(1.04384 0.0161228 0)
(1.03981 0.0149402 0)
(1.03705 0.0131128 0)
(1.03518 0.0109371 0)
(1.03393 0.00879377 0)
(1.03246 0.00677816 0)
(1.02333 0.00492972 0)
(0.962608 0.00321416 0)
(0.731537 0.00156087 0)
(0.269283 0.00040451 0)
(0.306371 0.000674613 0)
(0.782112 0.00234414 0)
(1.00531 0.00443883 0)
(1.06 0.00633124 0)
(1.06634 0.00850221 0)
(1.06533 0.0109473 0)
(1.06306 0.0136253 0)
(1.05979 0.0163389 0)
(1.05532 0.0187813 0)
(1.04953 0.0203805 0)
(1.04331 0.0203313 0)
(1.03821 0.0185951 0)
(1.03458 0.0161041 0)
(1.03206 0.0133058 0)
(1.03033 0.0105897 0)
(1.02847 0.00808171 0)
(1.01894 0.00583821 0)
(0.957609 0.00381335 0)
(0.72614 0.00188573 0)
(0.265548 0.000490638 0)
(0.313109 0.000896093 0)
(0.790983 0.00329954 0)
(1.01186 0.00617926 0)
(1.0653 0.00889232 0)
(1.07136 0.0115273 0)
(1.07004 0.0145528 0)
(1.06722 0.0177249 0)
(1.06311 0.0209965 0)
(1.05746 0.0238938 0)
(1.05014 0.0256648 0)
(1.0422 0.0253576 0)
(1.03564 0.0230359 0)
(1.03095 0.019834 0)
(1.02768 0.016419 0)
(1.02545 0.0131895 0)
(1.02329 0.0102545 0)
(1.01344 0.0075997 0)
(0.951416 0.00507005 0)
(0.719201 0.00246914 0)
(0.260682 0.000624755 0)
(0.320642 0.00119984 0)
(0.800925 0.00386344 0)
(1.0203 0.0073682 0)
(1.07265 0.0106556 0)
(1.07801 0.01442 0)
(1.07597 0.018547 0)
(1.07228 0.0228943 0)
(1.06702 0.0271181 0)
(1.05985 0.0307009 0)
(1.05066 0.0326891 0)
(1.04078 0.0320009 0)
(1.03265 0.0289036 0)
(1.02682 0.0247723 0)
(1.0228 0.0204001 0)
(1.02006 0.0161988 0)
(1.01746 0.0123667 0)
(1.00692 0.00892029 0)
(0.94355 0.00581841 0)
(0.710498 0.00287911 0)
(0.254881 0.000752844 0)
(0.332347 0.00157116 0)
(0.815269 0.00576694 0)
(1.03145 0.0104443 0)
(1.08183 0.0148013 0)
(1.08669 0.0191192 0)
(1.08381 0.0241835 0)
(1.07896 0.0293969 0)
(1.07208 0.0346242 0)
(1.06287 0.0389484 0)
(1.05123 0.0411564 0)
(1.03885 0.0400086 0)
(1.02866 0.0359754 0)
(1.02133 0.0307517 0)
(1.01619 0.0253558 0)
(1.01266 0.0203124 0)
(1.00951 0.0157738 0)
(0.998524 0.0117468 0)
(0.934467 0.00787816 0)
(0.700418 0.00383448 0)
(0.247538 0.000935515 0)
(0.345795 0.00222238 0)
(0.833227 0.00670919 0)
(1.04545 0.0128684 0)
(1.09384 0.0183876 0)
(1.09756 0.0249337 0)
(1.09343 0.0315546 0)
(1.08684 0.0384136 0)
(1.07778 0.0448145 0)
(1.0659 0.0498153 0)
(1.05126 0.0520378 0)
(1.03598 0.0501205 0)
(1.02351 0.0448487 0)
(1.01459 0.0382952 0)
(1.00839 0.0315544 0)
(1.00416 0.025125 0)
(1.00043 0.0192863 0)
(0.988271 0.0139109 0)
(0.921536 0.00904683 0)
(0.685841 0.00439161 0)
(0.238413 0.00114233 0)
(0.366452 0.0031833 0)
(0.856447 0.0107674 0)
(1.06421 0.0185566 0)
(1.10921 0.0257873 0)
(1.11163 0.0333294 0)
(1.10549 0.0415808 0)
(1.09659 0.050003 0)
(1.08467 0.0576204 0)
(1.06952 0.063299 0)
(1.05131 0.065315 0)
(1.03266 0.0623686 0)
(1.01751 0.0556032 0)
(1.0066 0.0474206 0)
(0.9989 0.0390985 0)
(0.993517 0.0312769 0)
(0.988865 0.0242104 0)
(0.975937 0.0180583 0)
(0.908354 0.0121077 0)
(0.671629 0.00592859 0)
(0.227743 0.00141216 0)
(0.394496 0.00443415 0)
(0.890936 0.0127178 0)
(1.08883 0.0242407 0)
(1.12966 0.0337464 0)
(1.12945 0.0449748 0)
(1.1204 0.0556731 0)
(1.10806 0.0658449 0)
(1.09216 0.074714 0)
(1.07281 0.0806373 0)
(1.05024 0.0819878 0)
(1.02762 0.0775046 0)
(1.00939 0.0688295 0)
(0.996231 0.0588184 0)
(0.98685 0.0487572 0)
(0.9802 0.0392542 0)
(0.974499 0.0304548 0)
(0.959555 0.0220433 0)
(0.887532 0.0143332 0)
(0.647362 0.00672416 0)
(0.213084 0.00161706 0)
(0.429806 0.00876714 0)
(0.930022 0.0232063 0)
(1.12094 0.0365195 0)
(1.15534 0.0494081 0)
(1.15097 0.062716 0)
(1.13776 0.0753901 0)
(1.12069 0.0871994 0)
(1.10004 0.0964168 0)
(1.07576 0.101795 0)
(1.04839 0.101729 0)
(1.02157 0.095131 0)
(1.00014 0.0841493 0)
(0.984628 0.0719449 0)
(0.973446 0.0598502 0)
(0.96529 0.0483671 0)
(0.958067 0.038004 0)
(0.941458 0.0287735 0)
(0.867645 0.0194343 0)
(0.627427 0.00950729 0)
(0.19973 0.0018889 0)
(0.515846 0.0124362 0)
(0.999889 0.0318406 0)
(1.16306 0.0553609 0)
(1.18726 0.0712147 0)
(1.17683 0.0893185 1.17596e-34)
(1.15711 0.103661 -6.7354e-35)
(1.13417 0.115744 0)
(1.10763 0.124312 0)
(1.07766 0.128301 0)
(1.04497 0.125879 0)
(1.01357 0.116459 0)
(0.98859 0.102817 0)
(0.970298 0.0883828 0)
(0.956787 0.0744002 0)
(0.946687 0.0613875 0)
(0.937533 0.0489183 0)
(0.917272 0.036763 0)
(0.834778 0.025019 0)
(0.580659 0.0112496 0)
(0.172242 0.00183728 0)
(0.574963 0.0279504 -3.71623e-21)
(1.07865 0.0573751 2.16695e-21)
(1.21078 0.0867783 0)
(1.22336 0.108284 2.98606e-21)
(1.20301 0.128517 -2.4162e-21)
(1.17639 0.141654 7.10604e-35)
(1.14679 0.152608 0)
(1.11357 0.159755 5.59847e-21)
(1.07743 0.161425 -1.96714e-20)
(1.03874 0.156151 4.2839e-21)
(1.00206 0.143655 0)
(0.97284 0.127199 -1.34515e-20)
(0.951058 0.11041 -1.67606e-20)
(0.93449 0.0942219 2.94646e-20)
(0.921478 0.0789508 -2.36435e-20)
(0.909041 0.0653004 0)
(0.883355 0.0515175 -9.06098e-21)
(0.789944 0.0353558 0)
(0.539566 0.0218836 -4.92093e-20)
(0.155227 0.00415862 5.85648e-20)
(0.59331 0.0544655 -1.02644e-21)
(1.12055 0.104825 -3.568e-20)
(1.25159 0.139759 1.12375e-20)
(1.25607 0.159194 1.09707e-20)
(1.22708 0.175828 -4.27198e-21)
(1.19362 0.187151 7.53787e-21)
(1.15692 0.196734 0)
(1.11715 0.201908 0)
(1.07472 0.201164 3.07221e-20)
(1.02967 0.193422 0)
(0.987059 0.178441 4.63475e-20)
(0.952616 0.1601 1.44307e-20)
(0.926206 0.142185 4.2603e-22)
(0.905294 0.125582 -3.28981e-20)
(0.888059 0.110416 0)
(0.871545 0.0961918 0)
(0.843907 0.0840533 -1.53327e-19)
(0.75946 0.0685007 3.87402e-19)
(0.526877 0.0426335 -2.29824e-19)
(0.157632 0.0151847 -2.75406e-19)
(0.593217 0.08876 7.19961e-20)
(1.14675 0.166719 -2.03706e-20)
(1.28217 0.207184 -4.74079e-21)
(1.28256 0.220382 -2.20463e-20)
(1.24692 0.231739 1.35263e-20)
(1.20692 0.239496 -1.44937e-20)
(1.16374 0.245961 8.62513e-21)
(1.11812 0.24776 0)
(1.06965 0.244042 -6.34916e-20)
(1.01855 0.233437 6.80883e-20)
(0.970219 0.215996 -1.26379e-19)
(0.930842 0.196265 6.13112e-20)
(0.900293 0.17798 -4.46368e-20)
(0.875781 0.161694 9.81062e-20)
(0.855488 0.14777 0)
(0.836936 0.135155 -3.82376e-20)
(0.80941 0.122097 0)
(0.733229 0.10717 2.21061e-19)
(0.522602 0.0721314 -5.24478e-19)
(0.170499 0.0261127 3.29677e-19)
(0.577416 0.119356 -3.42282e-19)
(1.15811 0.229062 1.36122e-19)
(1.30065 0.27838 2.11099e-20)
(1.30002 0.285604 0)
(1.25996 0.292613 1.06626e-20)
(1.21489 0.296398 -1.06266e-20)
(1.16674 0.298529 -8.88051e-21)
(1.11601 0.296258 0)
(1.06208 0.289164 4.47631e-20)
(1.0057 0.275338 -4.6866e-20)
(0.952559 0.255292 1.10053e-19)
(0.909413 0.233983 0)
(0.876083 0.215054 -9.36811e-20)
(0.849628 0.198686 5.19386e-20)
(0.82819 0.184824 1.39576e-19)
(0.809495 0.173753 -1.22639e-19)
(0.784186 0.15974 2.03584e-19)
(0.715588 0.143967 -4.53671e-19)
(0.519832 0.101151 2.88546e-19)
(0.177077 0.0367196 -3.63597e-19)
(0.556255 0.144683 2.12484e-19)
(1.15533 0.285714 -1.56563e-19)
(1.30913 0.34679 6.56653e-20)
(1.309 0.351007 -8.80656e-20)
(1.26582 0.355166 5.72543e-20)
(1.21737 0.354907 -8.34384e-21)
(1.16576 0.352457 3.80456e-21)
(1.11079 0.346122 -3.23772e-20)
(1.05247 0.335335 -4.44639e-20)
(0.991749 0.317855 -9.96487e-20)
(0.93473 0.294733 -2.3672e-19)
(0.888965 0.271456 -7.86838e-20)
(0.854359 0.251533 2.8566e-21)
(0.82751 0.234667 -1.83831e-19)
(0.806012 0.220327 -6.18827e-21)
(0.787516 0.209857 1.78865e-19)
(0.764502 0.19566 -5.54505e-20)
(0.700431 0.179103 -3.27577e-20)
(0.514275 0.127187 0)
(0.177297 0.0465161 7.69092e-19)
(0.535684 0.168415 0)
(1.14619 0.339181 4.86259e-20)
(1.30989 0.411697 3.28688e-20)
(1.31084 0.414338 -1.19597e-20)
(1.26541 0.41699 -7.11318e-20)
(1.21516 0.412888 1.1281e-20)
(1.16121 0.406226 6.09557e-21)
(1.10302 0.396106 5.68992e-20)
(1.04152 0.381483 -2.61547e-20)
(0.977548 0.360292 4.49021e-20)
(0.917955 0.334062 1.27291e-19)
(0.870667 0.308338 1.73748e-19)
(0.834889 0.286522 -1.07762e-19)
(0.807188 0.268617 1.98822e-19)
(0.785597 0.253687 -1.5943e-19)
(0.767182 0.242817 0)
(0.745524 0.228638 -4.24145e-19)
(0.684336 0.209438 5.70374e-19)
(0.504848 0.150764 4.33625e-20)
(0.174464 0.0540761 -8.07245e-19)
(0.51783 0.190379 -6.36718e-21)
(1.13428 0.390292 -3.33861e-19)
(1.30505 0.473652 -2.47241e-19)
(1.30705 0.474739 2.03751e-19)
(1.26013 0.476216 -4.0553e-20)
(1.20912 0.468721 1.98598e-20)
(1.15357 0.458609 -8.15022e-23)
(1.09304 0.445127 -7.10876e-21)
(1.02904 0.426797 -9.32457e-20)
(0.96193 0.401935 1.22752e-21)
(0.89909 0.372072 -1.37713e-19)
(0.849328 0.343587 -1.84589e-19)
(0.813054 0.320199 1.21161e-19)
(0.785957 0.301032 -7.12754e-20)
(0.764605 0.285204 1.73265e-19)
(0.746653 0.273163 0)
(0.726319 0.258885 -2.62535e-19)
(0.667465 0.236379 3.88416e-19)
(0.492375 0.171089 7.48208e-19)
(0.169864 0.0606558 -8.74506e-19)
(0.503583 0.210595 -6.39408e-19)
(1.11995 0.438544 3.22026e-19)
(1.29679 0.532771 2.41772e-19)
(1.29948 0.532248 -2.20746e-19)
(1.25155 0.532188 1.09659e-20)
(1.20015 0.521628 5.70744e-20)
(1.14327 0.508818 -6.17305e-21)
(1.08101 0.492464 -2.06817e-20)
(1.01505 0.470766 -5.63831e-20)
(0.945598 0.442493 9.8417e-20)
(0.881292 0.409387 1.30846e-19)
(0.831321 0.377959 2.89655e-19)
(0.793619 0.351683 0)
(0.76468 0.330674 5.41417e-21)
(0.743254 0.313517 -4.81351e-19)
(0.725677 0.300374 1.10593e-19)
(0.705536 0.285245 5.63718e-19)
(0.648683 0.259936 -1.64573e-19)
(0.478295 0.188474 3.56946e-19)
(0.164238 0.0661243 -2.87299e-20)
(0.493258 0.229765 7.19929e-21)
(1.10651 0.484372 2.99266e-19)
(1.2865 0.589106 1.84559e-19)
(1.28984 0.587319 -3.97941e-19)
(1.24107 0.585318 2.47104e-19)
(1.18922 0.571673 -7.28727e-20)
(1.13102 0.556543 3.13789e-21)
(1.06742 0.537682 4.75029e-20)
(0.999765 0.513097 1.01792e-19)
(0.927839 0.481809 -1.24695e-19)
(0.860075 0.445045 0)
(0.80628 0.410344 -1.13966e-19)
(0.768908 0.382122 1.30842e-19)
(0.742268 0.358984 1.75346e-19)
(0.721386 0.340756 -1.00674e-19)
(0.704466 0.32538 -2.53714e-19)
(0.685512 0.309582 -7.71424e-20)
(0.630051 0.281339 -1.3235e-21)
(0.463085 0.203593 0)
(0.157612 0.0705138 0)
(0.485102 0.249195 -3.17876e-19)
(1.09293 0.527201 0)
(1.27466 0.641698 2.12957e-19)
(1.27856 0.639838 -9.91419e-20)
(1.22937 0.635975 -2.57233e-19)
(1.17714 0.61931 7.11038e-20)
(1.11762 0.60202 -2.83548e-21)
(1.05297 0.580811 -2.4204e-20)
(0.983659 0.55368 6.47993e-20)
(0.909664 0.519509 -5.01243e-20)
(0.840786 0.479742 7.33259e-20)
(0.788479 0.442235 3.55919e-19)
(0.749085 0.410552 1.33105e-20)
(0.719514 0.385268 -1.79295e-19)
(0.698696 0.363833 3.45813e-19)
(0.682455 0.348041 4.47806e-21)
(0.663737 0.330752 8.25335e-20)
(0.610319 0.299442 -4.03335e-19)
(0.446928 0.216055 4.11619e-19)
(0.150148 0.0737428 -4.88101e-19)
(0.479548 0.269984 2.28369e-23)
(1.08013 0.567525 0)
(1.26159 0.690499 0)
(1.2661 0.689159 9.14201e-20)
(1.2168 0.683875 1.02069e-19)
(1.16433 0.66462 -5.81699e-20)
(1.1038 0.645382 2.98782e-20)
(1.03833 0.621913 0)
(0.967649 0.592537 -1.04512e-19)
(0.892051 0.556082 1.81694e-19)
(0.820499 0.513399 2.21943e-19)
(0.763085 0.471626 -1.34082e-19)
(0.723765 0.437286 -1.67997e-19)
(0.696415 0.408994 3.9725e-19)
(0.675965 0.38791 -1.22409e-19)
(0.65976 0.368349 -1.48577e-19)
(0.641148 0.348997 -9.10907e-20)
(0.588113 0.315725 -4.37999e-19)
(0.429597 0.226025 6.08014e-20)
(0.141541 0.0759195 5.30503e-19)
(0.47592 0.289156 -1.27508e-19)
(1.06792 0.605311 -1.98577e-19)
(1.24749 0.735742 2.38866e-20)
(1.25272 0.735083 3.54762e-22)
(1.20354 0.728739 3.20363e-20)
(1.15104 0.707454 -1.60294e-19)
(1.08981 0.686578 0)
(1.02369 0.661063 1.78111e-20)
(0.951509 0.629852 -1.40446e-20)
(0.873423 0.591276 2.86016e-19)
(0.798707 0.545171 -5.65094e-20)
(0.741577 0.501941 6.1557e-20)
(0.70053 0.464344 0)
(0.671254 0.432977 -2.16855e-19)
(0.650721 0.405753 2.7056e-19)
(0.636273 0.3861 0)
(0.61995 0.366417 -2.00096e-19)
(0.568552 0.328902 5.84971e-19)
(0.41132 0.233713 7.03103e-20)
(0.13242 0.076582 -6.58625e-19)
(0.473234 0.306456 -2.83415e-19)
(1.05612 0.640636 3.61574e-19)
(1.23327 0.777742 0)
(1.23902 0.777717 2.28848e-19)
(1.18987 0.770505 0)
(1.13739 0.747627 1.4805e-19)
(1.07576 0.725472 0)
(1.0091 0.698253 0)
(0.935653 0.665539 -3.53216e-20)
(0.856072 0.625096 -2.78356e-19)
(0.780228 0.578126 -4.11911e-19)
(0.719702 0.53035 7.76445e-20)
(0.676343 0.48858 2.90414e-19)
(0.647195 0.454171 2.44421e-19)
(0.627467 0.427333 -8.68914e-19)
(0.611408 0.403709 -3.59506e-19)
(0.592629 0.378789 2.08912e-19)
(0.541692 0.339045 0)
(0.391736 0.23886 6.08882e-19)
(0.122163 0.076118 -7.15801e-19)
(0.470853 0.322505 3.14105e-19)
(1.04476 0.674013 -3.97745e-19)
(1.21913 0.816805 0)
(1.22525 0.817523 -9.668e-21)
(1.17611 0.809467 -9.39764e-20)
(1.12368 0.785235 0)
(1.06181 0.762001 -1.0538e-20)
(0.994767 0.733365 2.17702e-20)
(0.920301 0.699457 -4.62001e-20)
(0.839063 0.65787 2.78858e-20)
(0.759273 0.60766 0)
(0.695077 0.557533 3.09907e-19)
(0.649595 0.513688 3.80462e-21)
(0.616821 0.474113 1.32859e-19)
(0.596481 0.441498 1.60192e-19)
(0.584986 0.415113 0)
(0.57162 0.390202 -3.54869e-19)
(0.52193 0.347951 6.96032e-19)
(0.371367 0.241594 -7.44687e-19)
(0.111633 0.0741786 1.5587e-18)
(0.468432 0.337812 0)
(1.03399 0.70562 0)
(1.20545 0.853222 -2.15789e-19)
(1.21158 0.85466 0)
(1.16243 0.845781 0)
(1.11007 0.820384 2.18867e-19)
(1.0481 0.79623 -1.41257e-20)
(0.980752 0.766487 1.64194e-20)
(0.90532 0.731767 -4.10308e-21)
(0.821973 0.689089 0)
(0.739573 0.637766 -6.58045e-20)
(0.673453 0.586412 -2.5685e-19)
(0.626636 0.538115 -3.22537e-19)
(0.597271 0.496737 -1.34203e-19)
(0.574878 0.460112 1.76882e-19)
(0.558287 0.428764 -4.20574e-19)
(0.539653 0.401951 7.70082e-19)
(0.491193 0.35257 9.99047e-21)
(0.349243 0.241708 -7.20957e-19)
(0.100211 0.0707412 -1.07095e-19)
(0.465903 0.352476 0)
(1.02373 0.735486 -3.08504e-19)
(1.19202 0.887215 2.42393e-19)
(1.19817 0.889437 0)
(1.14912 0.879751 0)
(1.09685 0.853292 -4.85415e-19)
(1.03486 0.828304 0)
(0.967239 0.797665 0)
(0.890998 0.762282 -7.87731e-20)
(0.806263 0.71908 5.24118e-20)
(0.721875 0.667544 -5.24565e-19)
(0.650428 0.613163 0)
(0.596111 0.562594 -3.49432e-19)
(0.555806 0.513568 1.22177e-20)
(0.535991 0.470227 -5.649e-19)
(0.526314 0.440506 2.28173e-19)
(0.517704 0.402059 5.0374e-21)
(0.469811 0.352477 -8.29187e-19)
(0.328363 0.238241 3.94059e-19)
(0.0912629 0.0665456 1.14578e-19)
(0.463264 0.36642 0)
(1.01397 0.763576 -3.6628e-19)
(1.17902 0.91896 2.56834e-19)
(1.18499 0.921846 5.36517e-19)
(1.1361 0.911367 1.07789e-19)
(1.084 0.884052 -7.5061e-20)
(1.02213 0.858341 4.55071e-20)
(0.954391 0.826963 -7.25634e-20)
(0.877614 0.79129 8.42641e-20)
(0.7916 0.747957 3.21923e-19)
(0.703005 0.696187 4.3502e-19)
(0.62841 0.642081 8.34634e-20)
(0.573797 0.589731 5.07823e-19)
(0.538796 0.539134 3.30195e-19)
(0.512029 0.49608 4.07712e-19)
(0.496621 0.444018 -2.56058e-19)
(0.478942 0.409043 -3.06726e-19)
(0.436542 0.351997 3.61891e-19)
(0.303475 0.232874 -2.16294e-19)
(0.0837788 0.0611504 3.76167e-19)
(0.460518 0.379562 4.93774e-19)
(1.00443 0.789744 5.80914e-19)
(1.16629 0.948512 1.40509e-19)
(1.17226 0.952108 1.56959e-20)
(1.12364 0.940888 -3.75305e-19)
(1.07174 0.912791 1.40589e-19)
(1.01005 0.886421 -5.24236e-20)
(0.942219 0.854514 -2.16489e-20)
(0.864868 0.818626 -7.58124e-20)
(0.777207 0.775599 -3.59144e-19)
(0.686711 0.723294 2.60713e-20)
(0.608278 0.667039 0)
(0.546024 0.610335 0)
(0.494784 0.557621 -1.67578e-19)
(0.465523 0.497161 -6.68448e-19)
(0.453854 0.452208 5.55151e-19)
(0.45098 0.398285 3.42369e-19)
(0.415143 0.335171 0)
(0.291343 0.211664 6.87919e-19)
(0.0774898 0.0469032 -4.11169e-19)
(0.457714 0.391789 -2.63836e-19)
(0.995283 0.814274 2.23562e-19)
(1.15398 0.976068 -3.15419e-19)
(1.15981 0.980208 -3.38374e-19)
(1.11147 0.968245 -1.48908e-19)
(1.05989 0.939549 3.30496e-20)
(0.998502 0.912644 0)
(0.930781 0.880349 1.10299e-19)
(0.853102 0.844407 1.37717e-20)
(0.764269 0.801764 0)
(0.671091 0.750727 0)
(0.58703 0.696753 5.80285e-20)
(0.520733 0.642948 8.90499e-20)
(0.476199 0.582896 -1.80109e-19)
(0.440688 0.526862 4.83538e-19)
(0.414901 0.461118 -6.0943e-19)
(0.400836 0.398548 -7.39879e-19)
(0.380344 0.317451 6.61038e-19)
(0.297634 0.210096 -2.48642e-19)
(0.143958 0.108657 1.42535e-19)
(0.4546 0.403241 3.05134e-19)
(0.986223 0.836886 0)
(1.14203 1.00162 0)
(1.14792 1.00636 -1.13982e-19)
(1.09996 0.993721 9.22274e-20)
(1.0487 0.96445 -2.03736e-20)
(0.987659 0.937065 -2.00363e-19)
(0.920003 0.904464 -1.8537e-19)
(0.842069 0.868749 8.62874e-20)
(0.752395 0.82649 -2.87378e-20)
(0.656816 0.776354 6.88073e-20)
(0.569576 0.722327 -4.76575e-19)
(0.495342 0.666877 -5.23669e-19)
(0.428575 0.608974 -9.57482e-20)
(0.382088 0.541608 0)
(0.356781 0.475693 -1.41251e-20)
(0.349535 0.370821 4.01965e-19)
(0.328655 0.230649 -7.00694e-19)
(0.306377 0.0620394 5.17765e-19)
(0.09684 -0.0608108 4.17222e-19)
(0.451434 0.414455 -6.60794e-19)
(0.977606 0.858269 -2.81336e-19)
(1.13041 1.0256 5.04804e-21)
(1.13622 1.03079 1.45785e-19)
(1.08856 1.01752 0)
(1.03769 0.987887 4.2787e-19)
(0.977031 0.960184 2.48532e-19)
(0.909641 0.927557 -4.3287e-20)
(0.831573 0.892111 -3.13358e-20)
(0.740954 0.850902 -2.69904e-20)
(0.642867 0.802951 2.50699e-20)
(0.551489 0.752425 4.21198e-19)
(0.471971 0.699411 5.12152e-19)
(0.411678 0.637946 9.20192e-20)
(0.356912 0.582569 5.0747e-19)
(0.302331 0.491385 0)
(0.213154 0.385365 0)
(0.0859529 0.359872 5.1541e-19)
(-0.0417108 0.63661 -3.10512e-20)
(-0.00440352 1.4459 -6.63553e-19)
(0.448171 0.424584 3.56716e-19)
(0.969039 0.877954 8.39643e-19)
(1.11912 1.04802 -1.2538e-18)
(1.12502 1.05385 7.53313e-19)
(1.0777 1.04014 -8.75279e-20)
(1.02714 1.01025 5.61408e-19)
(0.966893 0.982435 0)
(0.899727 0.94999 1.97662e-19)
(0.821601 0.915222 0)
(0.729951 0.875668 2.59548e-19)
(0.629324 0.829894 -3.89395e-20)
(0.533383 0.780947 4.36609e-20)
(0.448852 0.730326 5.64576e-19)
(0.36358 0.682177 -2.07939e-19)
(0.278172 0.613658 -2.67453e-19)
(0.203868 0.560374 0)
(0.114709 0.64167 0)
(0.0580093 1.17302 0)
(0.0906468 2.3845 -2.91407e-19)
(0.122248 2.87228 -1.79946e-19)
(0.444965 0.433946 0)
(0.960858 0.896544 0)
(1.10816 1.06911 4.48391e-19)
(1.11402 1.07547 -6.27759e-19)
(1.06693 1.06137 4.29946e-19)
(1.01682 1.03143 -5.14359e-19)
(0.957011 1.00364 -2.88371e-20)
(0.890206 0.971611 2.24537e-20)
(0.812167 0.937965 7.64277e-21)
(0.720249 0.900092 -2.95291e-19)
(0.618837 0.857232 5.94671e-20)
(0.520375 0.814567 3.92626e-19)
(0.424202 0.771695 -5.56485e-19)
(0.343132 0.714769 -6.49984e-19)
(0.283463 0.676521 2.26966e-19)
(0.217786 0.783184 0)
(0.165674 1.42731 3.24485e-19)
(0.169365 2.63916 3.73398e-19)
(0.170022 3.06955 -4.17673e-19)
(0.160987 3.215 4.721e-19)
(0.441633 0.442445 0)
(0.952704 0.913479 6.83231e-19)
(1.09762 1.08872 -1.16136e-19)
(1.10362 1.0958 7.91084e-19)
(1.05682 1.08149 -4.51286e-19)
(1.00706 1.05153 0)
(0.947691 1.02392 0)
(0.881273 0.992498 0)
(0.803454 0.959911 -6.22564e-20)
(0.711169 0.924032 3.63835e-21)
(0.607942 0.884367 0)
(0.505182 0.842856 -3.83324e-19)
(0.419473 0.804825 0)
(0.310367 0.773293 4.62915e-19)
(0.233042 0.843561 -3.0062e-19)
(0.183193 1.39663 -2.51037e-19)
(0.204849 2.62775 -6.13694e-19)
(0.22317 3.12025 -3.04499e-19)
(0.211937 3.27605 -3.46977e-19)
(0.195645 3.31928 3.08589e-19)
(0.438354 0.450326 -2.31561e-19)
(0.945018 0.929633 1.40042e-20)
(1.08741 1.10722 -1.25178e-19)
(1.09341 1.11489 -6.32958e-19)
(1.04678 1.10039 0)
(0.997511 1.07061 0)
(0.93867 1.04327 0)
(0.872803 1.01254 -1.38194e-20)
(0.795467 0.981275 6.94916e-20)
(0.702804 0.948093 0)
(0.598239 0.912821 0)
(0.494624 0.879811 0)
(0.386831 0.852365 0)
(0.32414 0.848514 3.03794e-19)
(0.303268 1.16333 7.88893e-19)
(0.307209 2.2637 2.44093e-19)
(0.319443 3.07057 4.38422e-19)
(0.31014 3.29795 -2.71603e-19)
(0.25475 3.37155 1.00259e-19)
(0.218835 3.38546 0)
(0.434863 0.45763 2.34588e-19)
(0.937108 0.944645 -1.47295e-18)
(1.07739 1.1249 -4.14017e-19)
(1.0836 1.13333 -1.00999e-19)
(1.03723 1.11878 1.15274e-19)
(0.988375 1.08912 -8.1246e-19)
(0.930012 1.0621 5.49186e-20)
(0.864619 1.03217 3.71711e-19)
(0.787681 1.00273 0)
(0.695857 0.972113 -1.65723e-20)
(0.591908 0.940866 1.50765e-20)
(0.484287 0.910044 0)
(0.395863 0.888238 0)
(0.349291 0.999211 -3.75876e-19)
(0.327867 1.76242 -4.54592e-21)
(0.32584 2.8872 -1.24167e-19)
(0.344272 3.29527 1.9104e-19)
(0.314644 3.41135 4.88845e-20)
(0.243664 3.44272 1.42269e-19)
(0.215456 3.45157 -7.25077e-20)
(0.431016 0.464925 4.51762e-19)
(0.928928 0.960402 1.40867e-18)
(1.06673 1.1431 5.08993e-19)
(1.07305 1.15203 0)
(1.02692 1.13731 0)
(0.978715 1.10781 6.22581e-19)
(0.921093 1.08111 -3.83476e-19)
(0.856642 1.05204 -3.42025e-19)
(0.780795 1.02389 -1.34108e-20)
(0.68895 0.995925 5.83953e-20)
(0.583928 0.969262 -2.82151e-19)
(0.478323 0.945322 0)
(0.397954 0.962465 0)
(0.379001 1.30728 -2.07798e-19)
(0.402757 2.34197 -2.67721e-19)
(0.443631 3.18927 0)
(0.471752 3.40346 1.21948e-19)
(0.400975 3.47627 2.40047e-19)
(0.317064 3.52068 -5.38702e-19)
(0.287471 3.54723 3.10785e-19)
(0.426437 0.472187 -8.56739e-19)
(0.919481 0.976117 -6.70165e-19)
(1.05521 1.16187 0)
(1.06196 1.17142 0)
(1.01628 1.15654 0)
(0.968745 1.12696 0)
(0.911928 1.1004 4.09455e-19)
(0.848393 1.07194 -4.45188e-19)
(0.773448 1.04551 0)
(0.682991 1.02038 -4.77292e-20)
(0.580169 0.99805 4.69215e-19)
(0.475717 0.981036 2.4003e-20)
(0.420539 1.0498 4.01686e-20)
(0.438542 1.63813 3.04021e-19)
(0.47899 2.81385 -6.70751e-20)
(0.515103 3.33486 0)
(0.5015 3.48046 -9.44848e-20)
(0.401301 3.57374 1.15678e-19)
(0.297504 3.65752 3.95444e-19)
(0.21689 3.6447 -3.42094e-19)
(0.421294 0.479783 4.05977e-19)
(0.909351 0.993333 -6.58275e-19)
(1.04243 1.18171 0)
(1.04955 1.19146 -1.61988e-19)
(1.00433 1.17618 6.14235e-19)
(0.957742 1.14647 0)
(0.902069 1.12005 0)
(0.839807 1.09231 8.33655e-19)
(0.766397 1.06747 1.24949e-20)
(0.677523 1.04527 -5.42671e-20)
(0.573394 1.02748 -2.0065e-19)
(0.480482 1.02425 1.51631e-19)
(0.451301 1.19948 0)
(0.502201 2.02523 -1.41191e-19)
(0.56582 3.09295 1.19025e-19)