/*--------------------------------*- C++ -*----------------------------------*\
| =========                 |                                                 |
| \\      /  F ield         | OpenFOAM: The Open Source CFD Toolbox           |
|  \\    /   O peration     | Version:  4.0                                   |
|   \\  /    A nd           | Web:      www.OpenFOAM.org                      |
|    \\/     M anipulation  |                                                 |
\*---------------------------------------------------------------------------*/
FoamFile
{
    version     2.0;
    format      ascii;
    class       surfaceScalarField;
    location    "62";
    object      phi;
}
// * * * * * * * * * * * * * * * * * * * * * * * * * * * * * * * * * * * * * //

dimensions      [0 3 -1 0 0 0 0];

internalField   nonuniform List<scalar> 
4262
(
0.107129
0.470859
0.0955523
0.705163
0.0693513
0.858504
0.0473202
1.02079
0.0309304
1.21491
0.019723
1.44943
0.0123169
1.73327
0.0070959
2.07626
0.00308511
2.48925
-0.000652359
2.98603
-0.00422381
2.98586
-0.00799279
2.48901
-0.0130399
2.07608
-0.0201977
1.73302
-0.0311239
1.44915
-0.0471651
1.21456
-0.0688988
1.0205
-0.0951751
0.858579
-0.107059
0.70547
0.470929
0.112876
0.357983
0.135294
0.682745
0.120412
0.873386
0.09787
1.04334
0.0746165
1.23816
0.0528737
1.47117
0.0344496
1.75169
0.0202161
2.09049
0.0089956
2.50047
-0.000923369
2.99595
-0.0111067
2.99605
-0.0223205
2.50023
-0.0363511
2.09011
-0.054686
1.75136
-0.0765435
1.471
-0.100333
1.23835
-0.123559
1.04372
-0.137042
0.872061
-0.11357
0.681998
0.357359
0.092045
0.265938
0.124968
0.649822
0.121096
0.877258
0.104836
1.0596
0.0862069
1.25679
0.067081
1.4903
0.0481287
1.77065
0.0300776
2.10854
0.013484
2.51707
-0.00263321
3.01207
-0.0183794
3.01179
-0.0343465
2.51619
-0.051862
2.10763
-0.0702223
1.76972
-0.0885118
1.48929
-0.105671
1.25551
-0.119722
1.05777
-0.125187
0.877527
-0.0923354
0.649146
0.265024
0.0639813
0.201957
0.104808
0.608995
0.106579
0.875487
0.0951794
1.071
0.0812374
1.27073
0.0664912
1.50504
0.0503609
1.78678
0.0331862
2.12572
0.0155135
2.53474
-0.00307279
3.03065
-0.0215802
3.0303
-0.0389561
2.53357
-0.0554167
2.12409
-0.070712
1.78501
-0.0845917
1.50317
-0.0983237
1.26924
-0.110087
1.06954
-0.107085
0.874526
-0.0649278
0.606989
0.200096
0.0374873
0.164469
0.0807319
0.565751
0.091015
0.865204
0.0838108
1.0782
0.0711857
1.28336
0.0593005
1.51693
0.0462581
1.79982
0.0313122
2.14066
0.0143488
2.5517
-0.00500682
3.05001
-0.0237278
3.04902
-0.039562
2.5494
-0.0534234
2.13795
-0.0654739
1.79706
-0.0767004
1.5144
-0.0886453
1.28118
-0.0950485
1.07594
-0.0832226
0.8627
-0.0384055
0.562172
0.16169
0.0194593
0.14501
0.0571811
0.528029
0.0725564
0.849829
0.0704455
1.08031
0.0616379
1.29216
0.0507669
1.5278
0.0395946
1.81099
0.0269192
2.15334
0.0118375
2.56679
-0.00567789
3.06752
-0.0229864
3.06633
-0.0374392
2.56386
-0.0490223
2.14953
-0.0590033
1.80704
-0.0688732
1.52427
-0.0764878
1.2888
-0.0772496
1.0767
-0.0600548
0.845505
-0.0203874
0.522504
0.141303
0.0106028
0.134407
0.0423
0.496332
0.0583888
0.83374
0.0586613
1.08004
0.0525123
1.29831
0.0431308
1.53718
0.0327246
1.8214
0.0213528
2.16471
0.00801933
2.58012
-0.00811837
3.08366
-0.0236057
3.08182
-0.0354083
2.57566
-0.0451525
2.15928
-0.0539679
1.81586
-0.0618131
1.53211
-0.0663418
1.29333
-0.0644103
1.07477
-0.0459826
0.827077
-0.0117319
0.488254
0.129571
0.00656888
0.127838
0.0329353
0.469966
0.0491897
0.817485
0.0506813
1.07855
0.0455679
1.30343
0.0371887
1.54556
0.027547
1.83104
0.0166484
2.17561
0.00458155
2.59219
-0.00924272
3.09749
-0.0225903
3.09517
-0.0335471
2.58662
-0.0428017
2.16853
-0.0505028
1.82356
-0.0570082
1.53862
-0.0601765
1.29649
-0.0564771
1.07107
-0.037295
0.807895
-0.00788822
0.458847
0.121683
0.00470435
0.123134
0.0265232
0.448147
0.0422959
0.801713
0.0443591
1.07648
0.0396881
1.3081
0.0320098
1.55324
0.0228498
1.8402
0.0122423
2.18622
0.000449425
2.60398
-0.0126183
3.11055
-0.0246164
3.10716
-0.0342322
2.59623
-0.042362
2.17666
-0.0492457
1.83044
-0.054642
1.54402
-0.0568796
1.29873
-0.0517813
1.06597
-0.0320534
0.788167
-0.006383
0.433176
0.1153
0.00374145
0.119393
0.0216739
0.430214
0.0368245
0.786562
0.0395683
1.07374
0.0351516
1.31251
0.0276959
1.56069
0.0188489
1.84905
0.00883592
2.19623
-0.00232123
2.61514
-0.0145019
3.12273
-0.0258566
3.11852
-0.035253
2.60563
-0.0428224
2.18423
-0.0488205
1.83644
-0.0535369
1.54873
-0.0547307
1.29993
-0.0483368
1.05958
-0.0283575
0.768188
-0.0057884
0.410607
0.109511
0.00303607
0.116357
0.0174914
0.415759
0.0313795
0.772674
0.0343145
1.0708
0.0301784
1.31665
0.0230582
1.56781
0.0144497
1.85765
0.0043187
2.20636
-0.00719056
2.62665
-0.0193604
3.1349
-0.0301469
3.1293
-0.0381658
2.61365
-0.0445844
2.19065
-0.0498904
1.84175
-0.0536273
1.55247
-0.0537188
1.30002
-0.0458618
1.05172
-0.0256762
0.748003
-0.00553142
0.390462
0.10398
0.00235884
0.113998
0.0138023
0.404315
0.0263573
0.760119
0.0294366
1.06773
0.0254036
1.32068
0.0182903
1.57493
0.00977862
1.86617
0.00017632
2.21596
-0.0104866
2.63731
-0.0223617
3.14678
-0.0330729
3.14002
-0.0413183
2.62189
-0.0472164
2.19655
-0.0513475
1.84588
-0.0539974
1.55512
-0.0533245
1.29934
-0.0440734
1.04247
-0.0237836
0.727713
-0.00541446
0.372093
0.0985656
0.00170056
0.112297
0.010534
0.395482
0.0213361
0.749317
0.0239183
1.06514
0.0197961
1.3248
0.0127468
1.58198
0.00415807
1.87476
-0.00583825
2.22596
-0.017192
2.64866
-0.0291761
3.15876
-0.0390238
3.14986
-0.0454444
2.62831
-0.0500646
2.20117
-0.0536601
1.84947
-0.0553791
1.55684
-0.0537431
1.29771
-0.0431617
1.03189
-0.0225618
0.707113
-0.00534174
0.354873
0.0932239
0.000817003
0.11148
0.00702424
0.389275
0.0161278
0.740214
0.0183427
1.06293
0.0139335
1.32921
0.00652033
1.58939
-0.00225842
1.88353
-0.0120298
2.23573
-0.022653
2.65929
-0.033907
3.17002
-0.0435802
3.15954
-0.0501602
2.63489
-0.0541032
2.20511
-0.0567133
1.85208
-0.0574115
1.55754
-0.0548074
1.2951
-0.0428587
1.01994
-0.0218482
0.686102
-0.00531924
0.338344
0.0879046
0.000137557
0.111343
0.00418512
0.385227
0.0109119
0.733487
0.011863
1.06198
0.00686636
1.33421
-0.000960871
1.59722
-0.0103463
1.89292
-0.0208021
2.24619
-0.0320909
2.67057
-0.0434996
3.18143
-0.0518735
3.16791
-0.0564061
2.63943
-0.0592568
2.20796
-0.061211
1.85404
-0.061122
1.55745
-0.0569301
1.29091
-0.0433158
1.00633
-0.0216387
0.664425
-0.00537292
0.322078
0.0825317
-0.000835271
0.112178
0.000491265
0.383901
0.00525144
0.728727
0.00553891
1.06169
4.74274e-05
1.3397
-0.00850975
1.60577
-0.0184285
1.90284
-0.0290878
2.25684
-0.0402236
2.68171
-0.0510874
3.19229
-0.0592687
3.17609
-0.063908
2.64406
-0.0659253
2.20998
-0.0669437
1.85506
-0.0658415
1.55634
-0.0600173
1.28509
-0.0445498
0.990859
-0.0219317
0.641807
-0.00552128
0.305668
0.0770104
-0.00168973
0.113868
-0.0025754
0.384786
-0.000686683
0.726838
-0.00242492
1.06343
-0.00905429
1.34633
-0.0184765
1.6152
-0.0294773
1.91384
-0.0415057
2.26887
-0.05366
2.69386
-0.064482
3.20311
-0.0712395
3.18285
-0.0743471
2.64717
-0.0755096
2.21114
-0.0750927
1.85464
-0.0722617
1.55351
-0.0644588
1.27729
-0.046796
0.973197
-0.0227953
0.617807
-0.00580255
0.288675
0.0712079
-0.00306503
0.116933
-0.00635355
0.388075
-0.00808435
0.728569
-0.0113733
1.06672
-0.0188469
1.35381
-0.0291558
1.6255
-0.0408299
1.92551
-0.0531481
2.28119
-0.0654076
2.70612
-0.0763699
3.21407
-0.083158
3.18964
-0.0855672
2.64958
-0.0851799
2.21076
-0.0838395
1.8533
-0.0801684
1.54984
-0.0702093
1.26733
-0.0499651
0.952952
-0.0241564
0.591998
-0.00618335
0.270702
0.0650245
-0.00434928
0.121282
-0.0105557
0.394281
-0.0156425
0.733655
-0.0218527
1.07293
-0.0308923
1.36285
-0.0427416
1.63735
-0.0560482
1.93882
-0.070409
2.29555
-0.084428
2.72014
-0.0952244
3.22487
-0.0998391
3.19425
-0.100553
2.6503
-0.0997437
2.20995
-0.096529
1.85009
-0.090319
1.54363
-0.07775
1.25476
-0.0543125
0.929515
-0.0260649
0.56375
-0.00667895
0.251316
0.0583456
-0.00579146
0.127073
-0.0155877
0.404077
-0.0247613
0.742829
-0.0339371
1.0821
-0.0450473
1.37396
-0.0587746
1.65108
-0.0736137
1.95366
-0.0884565
2.3104
-0.101962
2.73365
-0.112857
3.23576
-0.118179
3.19957
-0.118119
2.65024
-0.114319
2.20615
-0.109707
1.84547
-0.102417
1.53634
-0.0866071
1.23895
-0.0594014
0.902309
-0.0282658
0.532615
-0.00718392
0.230234
0.0511617
-0.00810493
0.135178
-0.0223605
0.418333
-0.0367385
0.757207
-0.0492594
1.09462
-0.0623495
1.38705
-0.0781283
1.66686
-0.0951199
1.97065
-0.112673
2.32795
-0.12896
2.74994
-0.140219
3.24702
-0.14198
3.20134
-0.138961
2.64722
-0.13484
2.20202
-0.128126
1.83876
-0.117296
1.52551
-0.0977968
1.21945
-0.0659341
0.870447
-0.030935
0.497616
-0.00775304
0.207052
0.0434086
-0.0105406
0.145719
-0.0296232
0.437416
-0.0500434
0.777627
-0.0675889
1.11217
-0.0842575
1.40371
-0.103131
1.68573
-0.122876
1.99039
-0.141515
2.34659
-0.156287
2.76471
-0.164766
3.2555
-0.166704
3.20327
-0.163082
2.64359
-0.155529
2.19447
-0.14694
1.83017
-0.134155
1.51273
-0.109791
1.19508
-0.0724739
0.83313
-0.0334463
0.458588
-0.00819217
0.181798
0.0352165
-0.0152869
0.161006
-0.0419812
0.46411
-0.0694469
0.805093
-0.0918659
1.13459
-0.111957
1.4238
-0.134204
1.70798
-0.156266
2.01246
-0.176813
2.36713
-0.19344
2.78133
-0.203241
3.2653
-0.20147
3.2015
-0.193039
2.63516
-0.183911
2.18534
-0.171964
1.81822
-0.154039
1.4948
-0.124306
1.16535
-0.0805045
0.789328
-0.0361338
0.414217
-0.00857372
0.154238
0.0266427
-0.0193563
0.180362
-0.0546776
0.499431
-0.0917471
0.842162
-0.12206
1.1649
-0.14827
1.45001
-0.175042
1.73475
-0.200107
2.03752
-0.221342
2.38837
-0.235594
2.79559
-0.238644
3.26835
-0.232479
3.19534
-0.223146
2.62583
-0.210921
2.17312
-0.196938
1.80424
-0.176015
1.47388
-0.139026
1.12836
-0.0871916
0.737493
-0.0378628
0.364888
-0.00853001
0.124905
0.0181127
-0.032613
0.212975
-0.0818095
0.548628
-0.129622
0.889975
-0.16633
1.20161
-0.197697
1.48138
-0.22852
1.76558
-0.254322
2.06332
-0.274238
2.40829
-0.28572
2.80707
-0.287108
3.26974
-0.278054
3.18628
-0.263277
2.61105
-0.24772
2.15756
-0.228986
1.78551
-0.200338
1.44523
-0.155122
1.08315
-0.0949228
0.677294
-0.039639
0.309605
-0.00840765
0.0936741
0.00970508
-0.0470008
0.259976
-0.120723
0.62235
-0.184416
0.953668
-0.230009
1.2472
-0.267624
1.519
-0.298964
1.79692
-0.322267
2.08663
-0.338253
2.42427
-0.344792
2.81361
-0.338427
3.26338
-0.320381
3.16824
-0.300974
2.59165
-0.281284
2.13787
-0.258664
1.76289
-0.224878
1.41145
-0.169181
1.02745
-0.0979163
0.606029
-0.0386561
0.250344
-0.00816962
0.0631876
0.00153546
-0.033999
0.293975
-0.0976177
0.685969
-0.156275
1.01232
-0.204029
1.29496
-0.247434
1.5624
-0.286529
1.83601
-0.323154
2.12325
-0.356133
2.45725
-0.381282
2.83876
-0.394699
3.27679
-0.395216
3.16875
-0.385145
2.58157
-0.368062
2.12079
-0.340027
1.73485
-0.287354
1.35877
-0.205059
0.945155
-0.110588
0.511558
-0.042041
0.181797
-0.00945074
0.0305973
-0.00791529
-0.0126227
0.306598
-0.0476258
0.720972
-0.0897788
1.05448
-0.129578
1.33475
-0.169095
1.60192
-0.204305
1.87122
-0.237004
2.15595
-0.265225
2.48547
-0.285643
2.85917
-0.294501
3.28565
-0.287021
3.16128
-0.268388
2.56294
-0.244033
2.09643
-0.210473
1.70129
-0.166147
1.31445
-0.107129
0.886138
-0.0491146
0.453544
-0.0180715
0.150754
-0.00439321
0.0169191
-0.0123085
0.000128229
0.306469
-0.0245259
0.745626
-0.0540669
1.08402
-0.0844973
1.36519
-0.116479
1.6339
-0.14746
1.9022
-0.176058
2.18455
-0.199889
2.5093
-0.215604
2.87489
-0.218147
3.28819
-0.203049
3.14618
-0.180659
2.54055
-0.155721
2.0715
-0.127247
1.67282
-0.0877472
1.27495
-0.0442487
0.842639
-0.0146512
0.423946
-0.00501103
0.141114
-0.00165818
0.0135663
-0.0139667
0.000673784
0.305796
-0.0129955
0.759295
-0.0342858
1.10531
-0.0588573
1.38976
-0.0849277
1.65997
-0.111032
1.92831
-0.135316
2.20883
-0.155496
2.52948
-0.167844
2.88724
-0.166202
3.28655
-0.14983
3.12981
-0.126831
2.51755
-0.0989458
2.04361
-0.0654812
1.63935
-0.0332582
1.24272
-0.00733498
0.816716
0.00445756
0.412154
0.00319775
0.142374
0.000471684
0.0162923
-0.013495
0.00445644
0.301339
-0.00439855
0.76815
-0.0225574
1.12347
-0.0434946
1.41069
-0.0654029
1.68188
-0.0872995
1.9502
-0.108019
2.22955
-0.124675
2.54614
-0.133346
2.89591
-0.129529
3.28273
-0.112773
3.11305
-0.0883212
2.4931
-0.0600922
2.01538
-0.0333892
1.61265
-0.00491081
1.21425
0.0154577
0.796347
0.0171707
0.410441
0.00923879
0.150306
0.00231294
0.0232182
-0.0111821
0.00520171
0.296138
-0.000708625
0.774061
-0.0162848
1.13904
-0.0344097
1.42882
-0.0535893
1.70106
-0.072755
1.96937
-0.0906223
2.24742
-0.105065
2.56058
-0.112817
2.90366
-0.108258
3.27818
-0.0898778
3.09467
-0.0663426
2.46957
-0.039874
1.98891
-0.0101634
1.58294
0.0118434
1.19224
0.0228133
0.785377
0.0216148
0.411639
0.0117045
0.160216
0.00313735
0.0317854
-0.00804471
0.00447272
0.291665
0.00051298
0.77802
-0.0127045
1.15226
-0.0292622
1.44538
-0.0464503
1.71825
-0.063532
1.98645
-0.0797961
2.26368
-0.0931448
2.57393
-0.0999722
2.91049
-0.0950224
3.27323
-0.0787631
3.07841
-0.0550086
2.44581
-0.0278234
1.96173
-0.00552924
1.56064
0.0150271
1.17168
0.0262477
0.774157
0.0223493
0.415538
0.0122166
0.170349
0.00341999
0.040582
-0.00462472
0.00269332
0.288972
-0.00073448
0.781448
-0.0121631
1.16369
-0.0266226
1.45984
-0.0425497
1.73418
-0.0586859
2.00259
-0.074056
2.27905
-0.086715
2.58659
-0.0932025
2.91698
-0.0885538
3.26858
-0.0715853
3.06144
-0.0495595
2.42379
-0.0276834
1.93985
-0.00235661
1.53532
0.0153073
1.15402
0.0226209
0.766843
0.0202069
0.417952
0.0111945
0.179361
0.00326779
0.0485086
-0.00135693
0.00103341
0.287938
-0.00189146
0.784373
-0.012511
1.17431
-0.0260333
1.47336
-0.0410469
1.74919
-0.0561155
2.01765
-0.0706972
2.29364
-0.082975
2.59887
-0.0897763
2.92378
-0.0872159
3.26602
-0.0730331
3.04726
-0.0520106
2.40276
-0.0275499
1.91539
-0.00845678
1.51622
0.00871086
1.13685
0.0187796
0.756774
0.0161883
0.420543
0.00919721
0.186352
0.00273766
0.0549682
0.00138073
-0.00048701
0.288425
-0.00495662
0.788843
-0.014203
1.18356
-0.0262223
1.48538
-0.0403178
1.76328
-0.0550023
2.03234
-0.0694551
2.30809
-0.0821309
2.61154
-0.0900964
2.93174
-0.0888266
3.26475
-0.0744521
3.03288
-0.0555959
2.38391
-0.0369732
1.89677
-0.0142714
1.49352
0.00243976
1.12014
0.00979116
0.749423
0.0107834
0.419551
0.00628663
0.190849
0.00204852
0.0592063
0.00342925
-0.00151148
0.289937
-0.00627512
0.793606
-0.015528
1.19281
-0.027286
1.49714
-0.0407902
1.77679
-0.0547871
2.04634
-0.0689626
2.32226
-0.0819258
2.62451
-0.0907394
2.94056
-0.0914675
3.26547
-0.0807058
3.02212
-0.0622886
2.36549
-0.0402047
1.87468
-0.0236134
1.47693
-0.00797678
1.1045
0.00331426
0.738132
0.00500348
0.417862
0.00356199
0.19229
0.00135182
0.0614165
0.00478107
-0.00308266
0.293019
-0.00859005
0.799114
-0.0172661
1.20149
-0.0281148
1.50798
-0.0409236
1.7896
-0.0547776
2.06019
-0.0692217
2.33671
-0.0829452
2.63823
-0.093319
2.95093
-0.0963647
3.26852
-0.0866345
3.01239
-0.0696462
2.3485
-0.0523774
1.85742
-0.0310487
1.4556
-0.0150308
1.08849
-0.00544813
0.728549
-9.64392e-05
0.41251
0.000690061
0.191504
0.000505106
0.0616014
0.00528618
-0.0038605
0.29688
-0.00937149
0.804625
-0.0182289
1.21034
-0.0291685
1.51892
-0.0417445
1.80217
-0.0551768
2.07362
-0.0695043
2.35103
-0.0836407
2.65237
-0.0952617
2.96255
-0.100504
3.27376
-0.0940366
3.00592
-0.0785074
2.33297
-0.0565979
1.83551
-0.039638
1.43864
-0.0231093
1.07196
-0.00966594
0.715106
-0.0041327
0.406977
-0.000951908
0.188323
7.10886e-05
0.0605784
0.00535727
-0.00427149
0.301151
-0.0107806
0.811134
-0.0194012
1.21896
-0.0296688
1.52919
-0.0417526
1.81426
-0.055132
2.087
-0.0697568
2.36566
-0.0846369
2.66725
-0.0978533
2.97577
-0.105622
3.28153
-0.10177
3.00207
-0.087237
2.31844
-0.0690706
1.81734
-0.0456184
1.41519
-0.0270399
1.05338
-0.01462
0.702686
-0.00619221
0.398549
-0.00202376
0.184155
-0.000270114
0.0588248
0.00508716
-0.00424603
0.305397
-0.0108799
0.817768
-0.0197198
1.2278
-0.0301574
1.53963
-0.0421724
1.82627
-0.0552381
2.10007
-0.0697249
2.38015
-0.0849898
2.68251
-0.0996022
2.99038
-0.110002
3.29193
-0.109329
3.0014
-0.095858
2.30497
-0.072983
1.79447
-0.0520306
1.39424
-0.0308982
1.03225
-0.0140186
0.685807
-0.00627998
0.39081
-0.00197712
0.179852
-0.000537259
0.0573849
0.0045499
-0.00442459
0.309822
-0.011667
0.82501
-0.0202373
1.23637
-0.0300878
1.54948
-0.0416358
1.83782
-0.0546164
2.11305
-0.0693549
2.39488
-0.0853078
2.69846
-0.101267
3.00634
-0.113823
3.30449
-0.115659
3.00324
-0.104428
2.29374
-0.08592
1.77596
-0.0567629
1.36508
-0.030804
1.00629
-0.0129806
0.667983
-0.00146783
0.379297
0.00193003
0.176454
0.00141607
0.0578989
0.00596597
-0.0043841
0.314206
-0.0114049
0.832031
-0.0199807
1.24495
-0.0299362
1.55944
-0.0414152
1.8493
-0.0541239
2.12576
-0.0686986
2.40946
-0.0849065
2.71467
-0.102012
3.02344
-0.117204
3.31968
-0.122846
3.00888
-0.113522
2.28441
-0.0902749
1.75271
-0.0628035
1.33761
-0.0303342
0.973818
-0.004761
0.64241
0.00753539
0.367001
0.00634579
0.177644
-0.00103057
0.0652753
0.0049354
-0.00450807
0.318714
-0.011786
0.839309
-0.0199948
1.25316
-0.0293526
1.56879
-0.0403252
1.86027
-0.0528803
2.13831
-0.0676005
2.42418
-0.0843235
2.73139
-0.102451
3.04157
-0.119346
3.33657
-0.12759
3.01712
-0.121782
2.2786
-0.104404
1.73533
-0.0688595
1.30206
-0.0278529
0.932811
0.0083905
0.606167
0.0351943
0.340197
0.043278
0.16956
0.0275352
0.081018
0.0324706
-0.00435644
0.32307
-0.0112523
0.846205
-0.0193428
1.26125
-0.0287001
1.57815
-0.0395498
1.87112
-0.05182
2.15058
-0.066287
2.43865
-0.0830695
2.74818
-0.101996
3.0605
-0.121175
3.35575
-0.132894
3.02884
-0.131198
2.27691
-0.1103
1.71443
-0.0771535
1.26892
-0.028305
0.883963
0.0197759
0.558086
0.0582886
0.301685
0.0518265
0.176022
0.0227228
0.110122
0.0551934
-0.00428938
0.32736
-0.0113069
0.853222
-0.0190094
1.26895
-0.027747
1.58689
-0.0380832
1.88146
-0.0501133
2.16261
-0.0645928
2.45313
-0.0817007
2.76528
-0.101328
3.08013
-0.121829
3.37625
-0.135508
3.04252
-0.138098
2.2795
-0.126269
1.70261
-0.0888458
1.23149
-0.0343079
0.829425
0.037296
0.486482
0.13441
0.20457
0.201644
0.108788
0.184542
0.127224
0.239735
-0.00411243
0.331472
-0.0107931
0.859903
-0.0185449
1.2767
-0.027562
1.5959
-0.0382876
1.89218
-0.0507626
2.17509
-0.0660068
2.46837
-0.0845238
2.7838
-0.106724
3.10233
-0.131903
3.40143
-0.152255
3.06287
-0.160871
2.28812
-0.147441
1.68918
-0.114031
1.19808
-0.0499843
0.765378
0.00856789
0.42793
-0.053821
0.266959
-0.354809
0.409777
-0.944264
0.716678
0.901567
-1.6061
-0.00399681
0.335469
-0.0107833
0.866689
-0.0182641
1.28418
-0.0268796
1.60452
-0.0373173
1.90262
-0.0499148
2.18768
-0.065742
2.4842
-0.0854268
2.80349
-0.109599
3.1265
-0.138064
3.4299
-0.162927
3.08774
-0.176796
2.30198
-0.181552
1.69393
-0.155306
1.17184
-0.121551
0.731623
-0.219787
0.526165
-0.693865
0.741038
-1.45021
1.16612
-2.05586
1.32234
1.21606
-2.37036
-0.00374892
0.339218
-0.0100513
0.872992
-0.0173884
1.29152
-0.0260773
1.61321
-0.0366174
1.91316
-0.0493333
2.2004
-0.0654465
2.50031
-0.0858576
2.8239
-0.111798
3.15244
-0.144242
3.46234
-0.176404
3.1199
-0.199738
2.32532
-0.204651
1.69884
-0.187154
1.15434
-0.272424
0.816894
-0.752995
1.00674
-1.55421
1.54225
-2.11453
1.72644
-2.35256
1.56036
1.32982
-2.46631
-0.00363685
0.342855
-0.00985439
0.879209
-0.0168557
1.29852
-0.0251013
1.62145
-0.035284
1.92334
-0.0480273
2.21314
-0.0645918
2.51688
-0.0860491
2.84535
-0.113951
3.18034
-0.150046
3.49844
-0.187841
3.15769
-0.217794
2.35527
-0.24172
1.72277
-0.315701
1.22832
-0.678355
1.17955
-1.44299
1.77137
-2.03013
2.12939
-2.26899
1.9653
-2.3817
1.67307
1.39349
-2.44537
-0.0033105
0.346165
-0.00895443
0.884853
-0.015702
1.30527
-0.0239275
1.62968
-0.0342084
1.93362
-0.0470174
2.22595
-0.0637556
2.53361
-0.085785
2.86738
-0.115281
3.20984
-0.155177
3.53833
-0.20112
3.20364
-0.24411
2.39826
-0.282132
1.76079
-0.462969
1.40916
-1.09588
1.81246
-1.79192
2.4674
-2.10981
2.44729
-2.25724
2.11273
-2.33908
1.75491
1.45949
-2.40508
-0.00331684
0.349482
-0.00911147
0.890648
-0.015782
1.31194
-0.0238254
1.63772
-0.0341214
1.94392
-0.0471992
2.23903
-0.0645779
2.55099
-0.0877958
2.8906
-0.119325
3.24137
-0.163103
3.58211
-0.215318
3.25585
-0.260977
2.44392
-0.347529
1.84734
-0.741929
1.80356
-1.49243
2.56296
-1.96324
2.93821
-2.16289
2.64694
-2.26885
2.21869
-2.34601
1.83207
1.52275
-2.40927
-0.00336805
0.35285
-0.00914086
0.896421
-0.016236
1.31904
-0.024982
1.64647
-0.036053
1.95499
-0.0498593
2.25284
-0.0680247
2.56916
-0.0923123
2.91489
-0.125747
3.2748
-0.173382
3.62975
-0.231098
3.31357
-0.29311
2.50593
-0.479598
2.03383
-1.0458
2.36976
-1.67969
3.19685
-1.95304
3.21156
-2.09953
2.79343
-2.21327
2.33243
-2.30685
1.92565
1.58429
-2.3684
-0.00351633
0.356367
-0.00997091
0.902875
-0.0174219
1.32649
-0.0263405
1.65539
-0.0376323
1.96628
-0.0520221
2.26723
-0.0712065
2.58834
-0.0970771
2.94076
-0.132782
3.31051
-0.184584
3.68155
-0.247951
3.37693
-0.332484
2.59047
-0.61405
2.3154
-1.26405
3.01976
-1.75165
3.68445
-1.95858
3.41849
-2.09796
2.93281
-2.22167
2.45614
-2.33183
2.03581
1.64287
-2.39041
-0.00343263
0.359799
-0.00974354
0.909186
-0.0177408
1.33448
-0.0275824
1.66523
-0.039829
1.97853
-0.0550494
2.28245
-0.0750751
2.60837
-0.102012
2.9677
-0.139559
3.34805
-0.194415
3.7364
-0.262602
3.44512
-0.387337
2.7152
-0.774133
2.70219
-1.4103
3.65594
-1.76135
4.0355
-1.93389
3.59103
-2.03547
3.03439
-2.12388
2.54456
-2.19067
2.1026
1.63551
-2.1833
-0.00347347
0.363273
-0.0106399
0.916352
-0.0190465
1.34289
-0.0290064
1.67519
-0.041439
1.99096
-0.0572522
2.29826
-0.0783484
2.62946
-0.106952
2.9963
-0.146714
3.38781
-0.204271
3.79396
-0.283253
3.5241
-0.452351
2.8843
-0.905188
3.15503
-1.46166
4.2124
-1.7226
4.29644
-1.87376
3.74219
-1.967
3.12763
-1.96787
2.54543
-1.8981
2.03282
1.59853
-1.86112
-0.00321744
0.36649
-0.00994939
0.923084
-0.0188828
1.35182
-0.0298635
1.68617
-0.0432886
2.00439
-0.0597649
2.31474
-0.0812367
2.65094
-0.109978
3.02504
-0.150002
3.42784
-0.206734
3.85069
-0.292581
3.60995
-0.497437
3.08916
-0.98833
3.64592
-1.42856
4.65264
-1.59288
4.46075
-1.65959
3.80891
-1.66383
3.13186
-1.51603
2.39764
-1.01623
1.53302
0.582295
-0.0028591
0.369349
-0.0107428
0.930968
-0.0201469
1.36123
-0.0312529
1.69728
-0.0450906
2.01823
-0.0626829
2.33233
-0.0861418
2.67439
-0.117998
3.0569
-0.162289
3.47213
-0.226584
3.91499
-0.329982
3.71335
-0.583588
3.34276
-1.12328
4.18562
-1.48074
5.01009
-1.57985
4.55986
-1.57754
3.80661
-1.47365
3.02796
-1.23485
2.15884
-0.630896
0.929071
-0.0486016
-0.00252833
0.371878
-0.0092127
0.937653
-0.0190873
1.3711
-0.0316529
1.70984
-0.0471808
2.03375
-0.0664034
2.35155
-0.0917013
2.69969
-0.125879
3.09108
-0.174329
3.52058
-0.244098
3.98476
-0.366644
3.83589
-0.681636
3.65775
-1.24202
4.746
-1.50172
5.26979
-1.55991
4.61806
-1.53732
3.78402
-1.33546
2.8261
-0.781733
1.60511
-0.108412
0.25575
-0.157013
-0.00161153
0.373489
-0.00964335
0.945684
-0.0199044
1.38136
-0.0323402
1.72228
-0.0479791
2.04939
-0.0681466
2.37172
-0.0954109
2.72696
-0.13293
3.1286
-0.185462
3.57311
-0.264215
4.06351
-0.413684
3.98536
-0.785591
4.02966
-1.31992
5.28033
-1.49548
5.44535
-1.52667
4.64924
-1.43823
3.69559
-1.10066
2.48854
-0.312465
0.816909
0.0247238
-0.0814389
-0.132289
-0.000907987
0.374397
-0.00663201
0.951408
-0.0170092
1.39174
-0.0310508
1.73632
-0.0485151
2.06686
-0.0703963
2.3936
-0.0995269
2.75609
-0.139054
3.16812
-0.194265
3.62832
-0.280653
4.1499
-0.45573
4.16044
-0.893985
4.46792
-1.36519
5.75153
-1.48132
5.56148
-1.4836
4.65152
-1.25852
3.47051
-0.68531
1.91532
-0.0626574
0.194256
0.0301154
-0.174212
-0.102174
1.93481e-05
0.374378
-0.00616725
0.957595
-0.0165736
1.40215
-0.030153
1.7499
-0.047146
2.08385
-0.0696656
2.41612
-0.100419
2.78684
-0.142845
3.21055
-0.201863
3.68734
-0.298251
4.24629
-0.50024
4.36243
-0.988256
4.95593
-1.36088
6.12416
-1.4244
5.625
-1.37804
4.60516
-1.08962
3.18209
-0.321789
1.14749
0.00493727
-0.13247
0.0149832
-0.184258
-0.0871907
0.00331183
0.371066
0.000576354
0.96033
-0.0103271
1.41305
-0.0256475
1.76522
-0.0442737
2.10248
-0.0685221
2.44037
-0.100895
2.81921
-0.144686
3.25434
-0.205977
3.74863
-0.309497
4.34981
-0.536916
4.58985
-1.0493
5.46831
-1.32457
6.39943
-1.36561
5.66605
-1.22503
4.46458
-0.769983
2.72705
-0.0678349
0.445339
0.0445991
-0.244904
0.0242756
-0.163934
-0.0629152
0.00429899
0.366767
0.00223104
0.962398
-0.00769722
1.42298
-0.0214879
1.77901
-0.0387942
2.11978
-0.0631879
2.46476
-0.096353
2.85238
-0.142216
3.30021
-0.206602
3.81302
-0.319165
4.46237
-0.577364
4.84804
-1.07251
5.96346
-1.26204
6.58896
-1.27032
5.67432
-1.05033
4.24459
-0.459589
2.13631
-0.0186308
0.00438101
-0.00677989
-0.256755
0.00474656
-0.175461
-0.0581686
0.00869309
0.358074
0.0101442
0.960947
0.00310812
1.43001
-0.0109775
1.7931
-0.0299432
2.13875
-0.0555655
2.49038
-0.0895697
2.88638
-0.135504
3.34614
-0.201071
3.87858
-0.318838
4.58014
-0.598037
5.12724
-1.04869
6.41411
-1.17215
6.71242
-1.15705
5.65922
-0.896635
3.98417
-0.262775
1.50245
-0.0706109
-0.187783
-0.038939
-0.288427
-0.0144279
-0.199972
-0.0725966
0.0113121
0.346762
0.0156864
0.956573
0.0105362
1.43516
0.000366125
1.80327
-0.0179123
2.15703
-0.04217
2.51464
-0.0752986
2.91951
-0.121593
3.39243
-0.188168
3.94516
-0.310906
4.70288
-0.59806
5.4144
-0.985632
6.80168
-1.05065
6.77744
-0.979735
5.5883
-0.675744
3.68018
-0.0700911
0.896794
0.0150787
-0.272953
0.000361539
-0.273709
-0.001614
-0.197996
-0.0742105
0.0185255
0.328236
0.0302759
0.944823
0.0291935
1.43625
0.0180516
1.81441
-4.39709e-05
2.17512
-0.022853
2.53745
-0.0552967
2.95196
-0.0998375
3.43698
-0.164569
4.00989
-0.286139
4.82445
-0.566167
5.69443
-0.872736
7.10825
-0.906739
6.81144
-0.80489
5.48645
-0.444663
3.31996
0.0683582
0.383773
0.0786156
-0.28321
0.0582377
-0.253332
0.0224432
-0.162202
-0.0517674
0.0241988
0.304037
0.0420632
0.926958
0.0449458
1.43336
0.0381901
1.82116
0.0258471
2.18746
0.00447497
2.55882
-0.0251795
2.98161
-0.067171
3.47897
-0.128958
4.07168
-0.245034
4.94052
-0.494274
5.94367
-0.714744
7.32872
-0.744239
6.84094
-0.638714
5.38093
-0.306404
2.98765
-0.000840098
0.0782098
0.0188659
-0.302916
0.0297523
-0.264218
0.0151636
-0.147613
-0.0366038
0.0352424
0.268795
0.0654975
0.896703
0.0767278
1.42213
0.0734911
1.8244
0.0626489
2.19831
0.0433845
2.57809
0.0160939
3.0089
-0.0220551
3.51712
-0.077344
4.12696
-0.176859
5.04004
-0.380516
6.14732
-0.53695
7.48516
-0.557535
6.86152
-0.459675
5.28307
-0.181674
2.70965
-0.070867
-0.0325971
-0.0541962
-0.319587
-0.0218024
-0.296612
-0.00342843
-0.165987
-0.0400322
0.044652
0.224143
0.0869169
0.854438
0.106852
1.4022
0.111274
1.81998
0.107002
2.20258
0.0930617
2.59203
0.0720612
3.0299
0.0402492
3.54893
-0.0100847
4.1773
-0.0853061
5.11526
-0.222095
6.28411
-0.312442
7.5755
-0.324505
6.87359
-0.265249
5.22381
-0.0707436
2.51514
-0.0874116
-0.0159291
-0.0695629
-0.337436
-0.0261459
-0.340029
0.00397951
-0.196112
-0.0360527
0.0582119
0.165931
0.120941
0.791709
0.157875
1.36526
0.170559
1.80729
0.170727
2.20241
0.160765
2.60199
0.14598
3.04469
0.1236
3.57131
0.0885677
4.21233
0.0412335
5.16259
-0.0143698
6.33972
-0.0484538
7.60959
-0.0525346
6.87767
-0.0259476
5.19722
0.0291307
2.46006
-0.113027
0.126228
-0.106839
-0.343624
-0.0440604
-0.402807
0.0171724
-0.257345
-0.0188802
0.0602811
0.10565
0.150658
0.701332
0.20692
1.309
0.233723
1.78049
0.245359
2.19077
0.244485
2.60286
0.237945
3.05123
0.226247
3.58301
0.209228
4.22935
0.189608
5.18221
0.242479
6.28684
0.286932
7.56514
0.281711
6.88289
0.148553
5.33038
-0.119125
2.72774
-0.387517
0.39462
-0.409947
-0.321193
-0.304099
-0.508655
-0.129385
-0.432059
-0.148265
0.050182
0.0554681
0.184192
0.567322
0.280298
1.2129
0.326501
1.73429
0.346638
2.17064
0.354141
2.59536
0.354771
3.0506
0.35716
3.58062
0.360794
4.22572
0.37737
5.16564
0.524247
6.13997
0.673386
7.416
0.665923
6.89035
0.48757
5.50873
-0.0262655
3.24158
-0.556333
0.924688
-0.690899
-0.186628
-0.53956
-0.659994
-0.287398
-0.684222
-0.435662
0.0344485
0.0210196
0.21907
0.382701
0.345116
1.08685
0.422127
1.65728
0.464147
2.12862
0.487246
2.57226
0.494821
3.04302
0.510167
3.56527
0.53884
4.19704
0.599649
5.10483
0.856906
5.88271
1.23619
7.03671
1.47078
6.65576
1.59481
5.3847
1.17631
3.66008
0.405968
1.69503
-0.152261
0.371601
-0.395827
-0.416428
-0.267821
-0.812227
-0.703484
0.030743
-0.00972335
0.236878
0.176566
0.448728
0.875001
0.563625
1.54238
0.614272
2.07797
0.648158
2.53838
0.67002
3.02116
0.696237
3.53905
0.748316
4.14496
0.865247
4.9879
1.23515
5.51281
1.88231
6.38955
2.25023
6.28785
2.48544
5.14949
2.3566
3.78892
1.72616
2.32546
1.06974
1.02803
0.458042
0.195268
0.127916
-0.4821
-0.575568
0.0252447
-0.0349681
0.16177
0.0400407
0.494511
0.54226
0.691116
1.34578
0.791711
1.97737
0.840496
2.48959
0.875614
2.98604
0.904417
3.51025
0.979267
4.07011
1.11954
4.84762
1.50839
5.12396
2.29561
5.60233
2.68963
5.89383
2.87292
4.9662
2.75151
3.91033
2.25501
2.82196
1.61718
1.66585
1.05742
0.755028
0.439725
0.135598
-0.135843
0.00382447
-0.0387926
0.0815693
-0.037704
0.414225
0.209604
0.709625
1.05038
0.845511
1.84149
0.887612
2.44749
0.895408
2.97824
0.879042
3.52662
0.877488
4.07167
0.920489
4.80462
1.07397
4.97048
1.51586
5.16044
1.69255
5.71714
1.7334
4.92535
1.65023
3.9935
1.41555
3.05664
1.03133
2.05006
0.631778
1.15458
0.259646
0.50773
0.123803
0.00411745
-0.04291
0.0455788
-0.0791654
0.221754
0.0334292
0.542697
0.729432
0.712595
1.67159
0.770093
2.38999
0.787719
2.96062
0.7834
3.53094
0.765937
4.08913
0.785711
4.78484
0.859321
4.89687
1.15445
4.86531
1.34257
5.52902
1.35291
4.91501
1.29031
4.0561
1.12895
3.218
0.839822
2.3392
0.524518
1.46989
0.222311
0.809937
0.346114
0.00505412
-0.0479641
0.0240818
-0.098193
0.0965808
-0.0390698
0.373671
0.452342
0.568051
1.47721
0.65274
2.3053
0.668563
2.9448
0.665769
3.53373
0.642204
4.1127
0.640711
4.78634
0.670073
4.86751
0.841516
4.69387
1.01925
5.35129
1.01561
4.91865
0.955918
4.11579
0.834695
3.33922
0.63229
2.5416
0.39047
1.71171
0.156926
1.04348
0.503039
-0.00658636
-0.0413778
-0.0060907
-0.0986887
0.0275302
-0.0726907
0.235328
0.244544
0.427397
1.28514
0.528476
2.20422
0.5543
2.91897
0.554396
3.53363
0.526682
4.14041
0.507089
4.80593
0.512078
4.86252
0.612475
4.59347
0.745704
5.21806
0.73692
4.92743
0.674207
4.1785
0.578296
3.43514
0.435994
2.6839
0.258845
1.88886
0.0939139
1.20841
0.596953
-0.0150728
-0.026305
-0.0122219
-0.101539
0.0136488
-0.0985614
0.145433
0.11276
0.321506
1.10907
0.401229