/*--------------------------------*- C++ -*----------------------------------*\
| =========                 |                                                 |
| \\      /  F ield         | OpenFOAM: The Open Source CFD Toolbox           |
|  \\    /   O peration     | Version:  4.0                                   |
|   \\  /    A nd           | Web:      www.OpenFOAM.org                      |
|    \\/     M anipulation  |                                                 |
\*---------------------------------------------------------------------------*/
FoamFile
{
    version     2.0;
    format      ascii;
    class       volVectorField;
    location    "62";
    object      U;
}
// * * * * * * * * * * * * * * * * * * * * * * * * * * * * * * * * * * * * * //

dimensions      [0 1 -1 0 0 0 0];

internalField   nonuniform List<vector> 
2200
(
(0.878851 -0.0304103 0)
(1.0058 -0.0512774 0)
(1.00329 -0.035384 0)
(1.00029 -0.0244213 0)
(0.999902 -0.0166327 0)
(1.00003 -0.0107064 0)
(1.00001 -0.00681069 0)
(0.999983 -0.00417724 0)
(0.999929 -0.00215033 0)
(1.0002 -0.000582117 0)
(1.00007 0.00113516 0)
(1.00022 0.00261219 0)
(1.00031 0.00452042 0)
(1.00022 0.00710918 0)
(1.00015 0.0108478 0)
(1.00007 0.0166641 0)
(1.00037 0.0243752 0)
(1.00347 0.0348573 0)
(1.00599 0.0513811 0)
(0.879055 0.030295 0)
(0.712022 -0.0327654 0)
(0.996653 -0.0630122 0)
(1.03333 -0.0561659 0)
(1.0249 -0.0464329 0)
(1.01587 -0.0361289 0)
(1.00964 -0.0263844 0)
(1.00592 -0.0181476 0)
(1.0038 -0.0114153 0)
(1.00268 -0.00606236 0)
(1.0021 -0.00163788 0)
(1.00186 0.00247328 0)
(1.00213 0.0070252 0)
(1.00329 0.0123113 0)
(1.0055 0.0188985 0)
(1.00931 0.0272042 0)
(1.01543 0.0369514 0)
(1.02455 0.0474643 0)
(1.03315 0.0580116 0)
(0.996709 0.0631373 0)
(0.711776 0.0330376 0)
(0.535562 -0.0238919 0)
(0.969926 -0.0569289 0)
(1.05645 -0.0547189 0)
(1.05228 -0.0487471 0)
(1.03629 -0.0404232 0)
(1.02448 -0.0322647 0)
(1.01592 -0.0239844 0)
(1.01039 -0.016109 0)
(1.00711 -0.00881509 0)
(1.00556 -0.00212063 0)
(1.00585 0.00436017 0)
(1.00744 0.0107944 0)
(1.0105 0.0177999 0)
(1.01582 0.0254724 0)
(1.02419 0.0334295 0)
(1.03623 0.0414008 0)
(1.05229 0.0493938 0)
(1.05633 0.0532327 0)
(0.969219 0.0576481 0)
(0.53441 0.0239364 0)
(0.39235 -0.0136462 0)
(0.911844 -0.0463812 0)
(1.05752 -0.0468867 0)
(1.06954 -0.0442839 0)
(1.05485 -0.0381442 0)
(1.03933 -0.0314546 0)
(1.02756 -0.0246671 0)
(1.0191 -0.0174412 0)
(1.01378 -0.0099536 0)
(1.01116 -0.00243079 0)
(1.01066 0.00502522 0)
(1.01281 0.0125445 0)
(1.01806 0.0198113 0)
(1.02652 0.0266669 0)
(1.0384 0.0331023 0)
(1.05392 0.0395801 0)
(1.06812 0.045666 0)
(1.05547 0.0483301 0)
(0.909883 0.0470047 0)
(0.389916 0.0137811 0)
(0.307739 -0.00451499 0)
(0.846766 -0.0323822 0)
(1.04942 -0.0399322 0)
(1.07951 -0.0381848 0)
(1.06825 -0.0335219 0)
(1.05172 -0.0279085 0)
(1.03835 -0.0224872 0)
(1.02811 -0.0164238 0)
(1.02099 -0.00952472 0)
(1.01705 -0.00185837 0)
(1.01716 0.0061258 0)
(1.02082 0.0133196 0)
(1.02752 0.0197343 0)
(1.03738 0.0254064 0)
(1.0503 0.0303282 0)
(1.06672 0.0356487 0)
(1.07778 0.040002 0)
(1.04736 0.0417375 0)
(0.843021 0.0329587 0)
(0.303746 0.00473685 0)
(0.264322 0.000101839 0)
(0.789056 -0.0200681 0)
(1.03344 -0.0314506 0)
(1.08359 -0.0320174 0)
(1.07733 -0.0287324 0)
(1.06088 -0.0238378 0)
(1.04724 -0.0193625 0)
(1.03637 -0.0142529 0)
(1.02858 -0.00817089 0)
(1.02425 -0.00120748 0)
(1.02355 0.00605777 0)
(1.02701 0.0128726 0)
(1.03436 0.0186236 0)
(1.04499 0.0231659 0)
(1.05863 0.0271598 0)
(1.07489 0.0315776 0)
(1.08032 0.0342649 0)
(1.02918 0.0333521 0)
(0.782588 0.0207334 0)
(0.258732 0.000121702 0)
(0.240406 0.00107139 0)
(0.738462 -0.01227 0)
(1.01377 -0.0249634 0)
(1.08411 -0.0267251 0)
(1.08308 -0.0244403 0)
(1.06787 -0.0203054 0)
(1.05433 -0.0162921 0)
(1.04342 -0.0117576 0)
(1.03516 -0.00637204 0)
(1.03008 9.28558e-05 0)
(1.02985 0.00690066 0)
(1.03417 0.0127721 0)
(1.04161 0.017401 0)
(1.05177 0.0213534 0)
(1.06477 0.0246816 0)
(1.07947 0.0281035 0)
(1.07993 0.0297127 0)
(1.00757 0.0272466 0)
(0.728903 0.0131527 0)
(0.233097 -0.000833801 0)
(0.226098 0.000958983 0)
(0.695607 -0.00803296 0)
(0.99318 -0.0207312 0)
(1.08226 -0.0230974 0)
(1.08688 -0.0212432 0)
(1.0734 -0.0176679 0)
(1.05996 -0.0138569 0)
(1.04941 -0.00956465 0)
(1.0415 -0.00459243 0)
(1.03674 0.00101931 0)
(1.03576 0.00693855 0)
(1.03888 0.0121932 0)
(1.04579 0.0166423 0)
(1.05584 0.0200242 0)
(1.06919 0.023063 0)
(1.08191 0.0258066 0)
(1.07568 0.0267574 0)
(0.983295 0.0234375 0)
(0.68181 0.00911683 0)
(0.216647 -0.000713871 0)
(0.216536 0.00062243 0)
(0.660242 -0.00566473 0)
(0.972695 -0.0176051 0)
(1.07961 -0.0201697 0)
(1.09033 -0.0185793 0)
(1.0783 -0.0154172 0)
(1.06488 -0.011761 0)
(1.05434 -0.007553 0)
(1.04631 -0.0026993 0)
(1.04105 0.00276613 0)
(1.04025 0.00809186 0)
(1.04413 0.0128901 0)
(1.0508 0.0164462 0)
(1.06013 0.0197313 0)
(1.07258 0.0224172 0)
(1.08345 0.024567 0)
(1.07091 0.0250441 0)
(0.959268 0.0210133 0)
(0.641748 0.00707437 0)
(0.204565 -0.000334802 0)
(0.209367 0.000298855 0)
(0.631714 -0.00420707 0)
(0.953864 -0.0149973 0)
(1.07654 -0.0179339 0)
(1.09346 -0.0165894 0)
(1.08301 -0.0136216 0)
(1.06961 -0.0099605 0)
(1.05921 -0.00590428 0)
(1.05153 -0.00127701 0)
(1.0467 0.00366729 0)
(1.04523 0.00878807 0)
(1.04726 0.0130659 0)
(1.05313 0.0169555 0)
(1.06254 0.0197062 0)
(1.07554 0.0221323 0)
(1.0844 0.0238916 0)
(1.06388 0.0238102 0)
(0.934457 0.0191278 0)
(0.606799 0.00593268 0)
(0.194102 4.1781e-05 0)
(0.203542 8.49492e-05 0)
(0.608432 -0.00314451 0)
(0.935876 -0.0125413 0)
(1.07341 -0.015549 0)
(1.09684 -0.0143934 0)
(1.08774 -0.0116341 0)
(1.07414 -0.00811364 0)
(1.06327 -0.00400041 0)
(1.055 0.000750212 0)
(1.04943 0.00592823 0)
(1.04789 0.0106567 0)
(1.05103 0.0148463 0)
(1.0572 0.0177119 0)
(1.06612 0.0204309 0)
(1.07802 0.0225263 0)
(1.08475 0.0237056 0)
(1.05719 0.0230403 0)
(0.91074 0.0176037 0)
(0.576562 0.00527166 0)
(0.184493 0.000320099 0)
(0.199009 9.37592e-06 0)
(0.590316 -0.00228554 0)
(0.920602 -0.0102191 0)
(1.0705 -0.013412 0)
(1.10014 -0.0123451 0)
(1.09261 -0.00962141 0)
(1.07909 -0.00601371 0)
(1.06828 -0.00210616 0)
(1.06016 0.00236956 0)
(1.05476 0.00715814 0)
(1.05241 0.0120167 0)
(1.05354 0.0159548 0)
(1.05863 0.0192735 0)
(1.06773 0.0212729 0)
(1.08022 0.0229301 0)
(1.08447 0.0237888 0)
(1.04789 0.0225145 0)
(0.885971 0.0163957 0)
(0.548836 0.00491157 0)
(0.175016 0.000493687 0)
(0.195416 2.528e-05 0)
(0.575557 -0.00156292 0)
(0.905995 -0.00812482 0)
(1.06771 -0.0110364 0)
(1.10376 -0.00993413 0)
(1.0976 -0.00719542 0)
(1.08386 -0.0036583 0)
(1.07231 0.000394315 0)
(1.06315 0.00506648 0)
(1.05662 0.0102275 0)
(1.05416 0.0147873 0)
(1.05643 0.0183581 0)
(1.06216 0.0205411 0)
(1.07076 0.0224851 0)
(1.08168 0.0238082 0)
(1.08368 0.0242084 0)
(1.03904 0.0223183 0)
(0.862229 0.0155504 0)
(0.523791 0.00473198 0)
(0.165873 0.000578184 0)
(0.19334 6.55299e-05 0)
(0.565129 -0.000761576 0)
(0.894833 -0.00587422 0)
(1.0655 -0.00868963 0)
(1.1074 -0.00744272 0)
(1.10278 -0.00458154 0)
(1.08908 -0.000826157 0)
(1.07758 0.00311803 0)
(1.06862 0.00759875 0)
(1.06204 0.0122877 0)
(1.05831 0.0167784 0)
(1.05851 0.0202811 0)
(1.06284 0.0227526 0)
(1.07163 0.0239851 0)
(1.08275 0.0248707 0)
(1.08168 0.0248613 0)
(1.02688 0.0224677 0)
(0.836605 0.0150343 0)
(0.499253 0.00466968 0)
(0.156574 0.00061805 0)
(0.192486 0.000107627 0)
(0.557658 -0.000209727 0)
(0.884524 -0.00389407 0)
(1.06381 -0.00598694 0)
(1.11144 -0.00447753 0)
(1.10818 -0.00135198 0)
(1.09438 0.00251209 0)
(1.08202 0.00675232 0)
(1.07167 0.0114841 0)
(1.0636 0.0165156 0)
(1.05985 0.0208032 0)
(1.06092 0.0235124 0)
(1.06603 0.0249997 0)
(1.07422 0.0261534 0)
(1.08274 0.0266178 0)
(1.07921 0.0261154 0)
(1.01519 0.0230331 0)
(0.811819 0.0148347 0)
(0.476202 0.00471746 0)
(0.147505 0.000637855 0)
(0.193096 8.59976e-05 0)
(0.553442 0.000843324 0)
(0.878395 -0.00153961 0)
(1.06332 -0.00336953 0)
(1.11597 -0.00151929 0)
(1.1141 0.00176035 0)
(1.10019 0.00593713 0)
(1.0877 0.010299 0)
(1.07751 0.0150407 0)
(1.06948 0.0198629 0)
(1.06395 0.0239484 0)
(1.06249 0.0267841 0)
(1.06549 0.0282561 0)
(1.07371 0.0287262 0)
(1.08271 0.0289036 0)
(1.07452 0.0278865 0)
(0.999552 0.0239143 0)
(0.784486 0.0150087 0)
(0.452327 0.00486626 0)
(0.137983 0.000656983 0)
(0.195175 0.000237055 0)
(0.553701 0.00152931 0)
(0.873562 0.000529308 0)
(1.06397 -5.55861e-05 0)
(1.12102 0.00215636 0)
(1.1203 0.00588926 0)
(1.10634 0.0104078 0)
(1.09302 0.015387 0)
(1.08129 0.0206923 0)
(1.07106 0.0257643 0)
(1.06511 0.0295912 0)
(1.06456 0.0315111 0)
(1.06845 0.0325072 0)
(1.07567 0.0327671 0)
(1.08087 0.0320271 0)
(1.06935 0.0302199 0)
(0.98419 0.0253755 0)
(0.757435 0.0155425 0)
(0.428867 0.00514044 0)
(0.128388 0.000685731 0)
(0.199373 0.000674007 0)
(0.556389 0.00235378 0)
(0.873962 0.00337939 0)
(1.06657 0.00338257 0)
(1.12702 0.00626454 0)
(1.12731 0.0102429 0)
(1.11291 0.0152185 0)
(1.09903 0.0203824 0)
(1.08693 0.0257393 0)
(1.07663 0.0308031 0)
(1.06886 0.0346965 0)
(1.06508 0.0366549 0)
(1.06609 0.0371103 0)
(1.07316 0.036432 0)
(1.07925 0.0358244 0)
(1.06153 0.033277 0)
(0.96411 0.0272395 0)
(0.726798 0.0164688 0)
(0.403314 0.00551773 0)
(0.117906 0.000714589 0)
(0.205799 0.000876189 0)
(0.563195 0.003464 0)
(0.877778 0.00582421 0)
(1.07128 0.00753869 0)
(1.13386 0.0110687 0)
(1.1351 0.0158156 0)
(1.12047 0.021361 0)
(1.10581 0.027398 0)
(1.09226 0.0336499 0)
(1.0795 0.0392539 0)
(1.07003 0.0424733 0)
(1.06668 0.0433996 0)
(1.06862 0.04325 0)
(1.0741 0.0428258 0)
(1.0751 0.0406194 0)
(1.05266 0.0371268 0)
(0.943725 0.0298553 0)
(0.695413 0.0177551 0)
(0.377041 0.00600255 0)
(0.106985 0.000750227 0)
(0.214232 0.00105745 0)
(0.574399 0.00475487 0)
(0.886054 0.0089907 0)
(1.07898 0.0121669 0)
(1.14238 0.0168464 0)
(1.14407 0.0222573 0)
(1.12849 0.0287502 0)
(1.11251 0.0351514 0)
(1.09739 0.0413665 0)
(1.08305 0.0465436 0)
(1.07198 0.0502935 0)
(1.06586 0.0513781 0)
(1.06481 0.0506352 0)
(1.06941 0.0481899 0)
(1.07136 0.0464511 0)
(1.04059 0.041764 0)
(0.917159 0.0328013 0)
(0.659029 0.0193562 0)
(0.347505 0.00651727 0)
(0.0948582 0.000769431 0)
(0.2266 0.00140935 0)
(0.5928 0.00669183 0)
(0.901118 0.0132491 0)
(1.08992 0.0182899 0)
(1.15258 0.0237909 0)
(1.1545 0.0302016 0)
(1.13789 0.0374787 0)
(1.12041 0.0449462 0)
(1.10348 0.0523932 0)
(1.08721 0.0588272 0)
(1.0734 0.0616139 0)
(1.06625 0.0608895 0)
(1.06536 0.0591957 0)
(1.06881 0.0573185 0)
(1.06422 0.0534558 0)
(1.02645 0.0473933 0)
(0.889477 0.0368124 0)
(0.620638 0.021302 0)
(0.316293 0.00709438 0)
(0.0821381 0.000788667 0)
(0.242206 0.00194514 0)
(0.615768 0.00852919 0)
(0.92149 0.0178619 0)
(1.10516 0.0252294 0)
(1.1651 0.0326134 0)
(1.16643 0.0401993 0)
(1.14795 0.0489918 0)
(1.12836 0.0572688 0)
(1.10878 0.0647414 0)
(1.08891 0.0698561 0)
(1.07228 0.0718941 0)
(1.06347 0.071827 0)
(1.06036 0.0693779 0)
(1.06144 0.0652677 0)
(1.05716 0.0614422 0)
(1.00818 0.0539174 0)
(0.853414 0.0407032 0)
(0.575171 0.0233189 0)
(0.280849 0.00756805 0)
(0.0681453 0.000778746 0)
(0.264345 0.00281878 0)
(0.649313 0.0123339 0)
(0.950956 0.0248658 0)
(1.12505 0.0350452 0)
(1.18037 0.0434895 0)
(1.1807 0.0530585 0)
(1.15994 0.0627908 0)
(1.13759 0.0720763 0)
(1.11493 0.0803302 0)
(1.09276 0.0864227 0)
(1.07442 0.0886705 0)
(1.06254 0.08568 0)
(1.05802 0.0816401 0)
(1.05886 0.0775015 0)
(1.04565 0.071035 0)
(0.986052 0.0613095 0)
(0.815242 0.045901 0)
(0.527121 0.0255971 0)
(0.243655 0.00798171 0)
(0.0538701 0.000759731 0)
(0.295432 0.00370756 0)
(0.693991 0.0154114 0)
(0.989441 0.0327369 0)
(1.15146 0.0464765 0)
(1.19932 0.0580038 0)
(1.19695 0.0696086 0)
(1.17254 0.0812306 0)
(1.14688 0.0913579 0)
(1.12088 0.0995405 0)
(1.09433 0.103667 0)
(1.07064 0.102321 0)
(1.05729 0.0991054 0)
(1.05191 0.0946109 0)
(1.048 0.088302 0)
(1.03366 0.0814515 0)
(0.958919 0.0697596 0)
(0.7657 0.0504646 0)
(0.468744 0.0273484 0)
(0.201531 0.00806761 0)
(0.0385457 0.000653999 0)
(0.331878 0.00709239 0)
(0.752042 0.0247448 0)
(1.03886 0.0466313 0)
(1.18371 0.0646636 0)
(1.2218 0.0775352 0)
(1.21514 0.0922726 0)
(1.18605 0.10471 0)
(1.15601 0.114911 0)
(1.12512 0.122 0)
(1.09441 0.124973 0)
(1.07012 0.123833 0)
(1.0545 0.118332 0)
(1.0461 0.110956 0)
(1.0428 0.103631 0)
(1.01551 0.0938884 0)
(0.924488 0.0783036 0)
(0.712267 0.0560594 0)
(0.409397 0.0293129 0)
(0.159657 0.00799141 0)
(0.0245592 0.000595577 0)
(0.411932 0.0106848 0)
(0.839662 0.0356944 0)
(1.10513 0.0674718 0)
(1.22415 0.0902401 0)
(1.24887 0.106513 6.22581e-34)
(1.23512 0.122977 -2.81e-34)
(1.19966 0.135346 0)
(1.16481 0.144245 0)
(1.13004 0.149726 0)
(1.09586 0.150171 0)
(1.06566 0.144372 0)
(1.04666 0.13527 0)
(1.03762 0.126843 0)
(1.02669 0.117297 0)
(0.995639 0.105723 0)
(0.884125 0.0877152 0)
(0.644454 0.0597505 0)
(0.33456 0.029158 0)
(0.110234 0.00744019 0)
(0.00901419 0.000759078 0)
(0.482916 0.025869 4.56428e-20)
(0.941933 0.0598784 -3.45796e-20)
(1.17614 0.10194 0)
(1.26572 0.12908 2.68578e-20)
(1.27725 0.14461 -2.17801e-20)
(1.25415 0.163134 2.96481e-34)
(1.21175 0.173676 0)
(1.17154 0.180515 1.58276e-20)
(1.13073 0.183014 -5.19992e-20)
(1.09016 0.179971 1.06233e-20)
(1.05764 0.171634 0)
(1.03847 0.161829 -2.70136e-20)
(1.02652 0.150609 -3.24751e-20)
(1.0162 0.13917 5.68639e-20)
(0.961469 0.123777 -4.491e-20)
(0.817765 0.0971258 0)
(0.549604 0.0629718 -1.6152e-20)
(0.248034 0.0278609 0)
(0.0604758 0.00708488 -8.92203e-20)
(-0.00765578 0.000440133 1.0515e-19)
(0.519255 0.0537422 -6.01221e-21)
(1.00725 0.10246 1.02496e-19)
(1.22729 0.152589 -5.46171e-21)
(1.29979 0.177018 -6.56288e-20)
(1.30216 0.194544 -4.60576e-20)
(1.26999 0.211193 7.49389e-20)
(1.22106 0.218867 0)
(1.17516 0.222897 0)
(1.12937 0.222861 8.26585e-20)
(1.08544 0.21719 0)
(1.04941 0.206798 9.74077e-20)
(1.02418 0.192608 2.89859e-20)
(1.00814 0.17868 4.87324e-22)
(0.982123 0.163575 -6.17347e-20)
(0.919541 0.142445 0)
(0.75427 0.111588 0)
(0.473015 0.0664205 -2.63029e-19)
(0.189071 0.0261843 6.61428e-19)
(0.0284886 0.00516288 -3.90984e-19)
(-0.0192876 -0.00138245 -4.60496e-19)
(0.526489 0.0763325 -5.63018e-20)
(1.04299 0.159624 2.17871e-20)
(1.26334 0.212732 1.21042e-20)
(1.3264 0.236201 1.14224e-19)
(1.32168 0.252217 1.45715e-20)
(1.2821 0.264374 -1.9507e-19)
(1.22749 0.268047 6.6645e-20)
(1.17638 0.268596 0)
(1.12505 0.264928 -1.7464e-19)
(1.07493 0.255451 1.55412e-19)
(1.03236 0.240089 -2.62876e-19)
(1.00466 0.222428 1.23244e-19)
(0.987519 0.206928 -7.98992e-20)
(0.964832 0.191494 1.80109e-19)
(0.886155 0.167523 0)
(0.707899 0.125202 -6.5637e-20)
(0.426818 0.0718601 0)
(0.169174 0.0269988 3.6106e-19)
(0.0194078 0.00387239 -8.55863e-19)
(-0.0232569 -0.00323699 5.35748e-19)
(0.523085 0.108105 1.49872e-19)
(1.06597 0.217187 -6.62983e-20)
(1.28624 0.27845 -1.43523e-20)
(1.3438 0.301096 0)
(1.33401 0.314769 -8.47142e-20)
(1.28919 0.32174 1.04621e-19)
(1.22988 0.320595 -7.12289e-20)
(1.17369 0.316928 0)
(1.11745 0.309373 1.24057e-19)
(1.06337 0.29583 -1.09149e-19)
(1.01801 0.276308 2.27295e-19)
(0.988195 0.257085 0)
(0.966458 0.239593 -1.69726e-19)
(0.93139 0.21824 9.56522e-20)
(0.852881 0.18824 2.40765e-19)
(0.675547 0.14209 -2.11844e-19)
(0.408197 0.081705 3.34729e-19)
(0.165927 0.0310539 -7.40239e-19)
(0.0195749 0.00376362 4.68467e-19)
(-0.0239647 -0.00490071 -5.85854e-19)
(0.510113 0.132107 -4.71383e-20)
(1.07085 0.269825 3.34852e-20)
(1.29613 0.343558 -4.78641e-20)
(1.35285 0.36671 9.76067e-20)
(1.33996 0.378395 -9.3472e-20)
(1.29154 0.380209 3.28053e-20)
(1.2286 0.374377 3.74011e-21)
(1.1688 0.366431 -1.3959e-19)
(1.1089 0.354111 -1.29736e-19)
(1.05058 0.335517 -2.34018e-19)
(1.00093 0.312574 -4.88761e-19)
(0.965468 0.29042 -1.50808e-19)
(0.942028 0.269996 2.21318e-21)
(0.913618 0.248328 -3.27446e-19)
(0.828742 0.216988 -5.27933e-21)
(0.653229 0.160694 3.0821e-19)
(0.400648 0.0934922 -9.25967e-20)
(0.170577 0.0380765 -5.3615e-20)
(0.0269607 0.00495546 0)
(-0.0211734 -0.00547002 1.24576e-18)
(0.494488 0.153315 0)
(1.06795 0.320798 -1.20635e-21)
(1.29922 0.407509 -7.05258e-21)
(1.35517 0.430893 -1.29219e-20)
(1.33971 0.441213 8.95544e-20)
(1.28884 0.438684 -7.69148e-20)
(1.22331 0.428374 7.75386e-20)
(1.16036 0.415854 2.29307e-19)
(1.0968 0.399373 -7.2229e-20)
(1.03416 0.376726 1.15397e-19)
(0.979981 0.349323 2.62742e-19)
(0.944881 0.324212 3.28838e-19)
(0.919201 0.301964 -1.98166e-19)
(0.879076 0.276368 3.54699e-19)
(0.799835 0.238109 -2.8112e-19)
(0.633552 0.182569 0)
(0.396538 0.109025 -7.03125e-19)
(0.180629 0.0476034 9.46395e-19)
(0.0387539 0.009076 7.0634e-20)
(-0.0159284 -0.00505842 -1.31796e-18)
(0.478372 0.172834 -5.09903e-21)
(1.05706 0.367362 -1.37889e-20)
(1.2952 0.467499 5.09762e-20)
(1.35232 0.492731 -7.41635e-20)
(1.3351 0.502279 7.52231e-20)
(1.28255 0.495534 -7.40059e-20)
(1.21499 0.481199 1.53088e-19)
(1.14947 0.46485 -6.84238e-20)
(1.08259 0.444118 -2.91459e-19)
(1.01614 0.416963 -2.4748e-22)
(0.960397 0.386043 -2.85828e-19)
(0.921036 0.358461 -3.54087e-19)
(0.892193 0.332034 2.19019e-19)
(0.86081 0.306526 -1.27615e-19)
(0.777554 0.268805 3.05976e-19)
(0.61785 0.202597 0)
(0.394525 0.125883 -4.37196e-19)
(0.189996 0.0583513 6.45738e-19)
(0.0501349 0.0145306 1.22127e-18)
(-0.0103139 -0.00393685 -1.43624e-18)
(0.46494 0.19088 -8.6843e-20)
(1.04678 0.413287 3.79685e-20)
(1.28881 0.525848 -3.03711e-20)
(1.34571 0.551958 7.62836e-20)
(1.32678 0.560605 1.21715e-20)
(1.27284 0.550549 -1.44614e-19)
(1.20348 0.532837 -8.91854e-20)
(1.13569 0.512633 -8.81852e-20)
(1.06648 0.488105 -1.64901e-19)
(0.998185 0.456938 2.65294e-19)
(0.939638 0.421963 2.88596e-19)
(0.898468 0.38985 5.61832e-19)
(0.868925 0.363226 0)
(0.827064 0.334193 6.50143e-21)
(0.751041 0.289494 -8.41602e-19)
(0.601123 0.225715 1.97464e-19)
(0.391959 0.142854 9.48796e-19)
(0.198315 0.0702991 -2.80014e-19)
(0.061056 0.0210656 5.81029e-19)
(-0.00459374 -0.00216897 -4.84133e-20)
(0.453308 0.208035 5.8288e-21)
(1.03239 0.45426 5.72159e-20)
(1.27839 0.579835 -8.90478e-21)
(1.3361 0.608398 7.64474e-20)
(1.31585 0.616751 -1.42563e-19)
(1.26086 0.603324 1.43112e-19)
(1.19034 0.582308 9.23022e-20)
(1.12127 0.558791 2.629e-19)
(1.05012 0.530542 3.30361e-19)
(0.978454 0.495295 -3.07109e-19)
(0.916464 0.457329 0)
(0.872805 0.422842 -2.12976e-19)
(0.841736 0.392151 2.44521e-19)
(0.809103 0.361763 3.09005e-19)
(0.730446 0.319756 -1.78834e-19)
(0.585938 0.24528 -4.3494e-19)
(0.388211 0.160055 -1.29604e-19)
(0.204295 0.0822862 -1.97735e-21)
(0.0698383 0.0279052 0)
(0.000344627 -0.000198529 0)
(0.445386 0.224473 -8.26112e-20)
(1.02146 0.495609 0)
(1.26759 0.632345 6.24586e-21)
(1.32451 0.66212 -1.55198e-20)
(1.30308 0.669484 1.63732e-19)
(1.24729 0.653434 -4.12469e-20)
(1.17578 0.629827 9.37729e-20)
(1.10525 0.603212 -1.77683e-19)
(1.03213 0.571968 2.50528e-19)
(0.958765 0.533771 -1.01548e-19)
(0.894917 0.491824 1.65657e-19)
(0.850705 0.453095 6.76027e-19)
(0.818064 0.421861 1.4368e-20)
(0.775613 0.388367 -3.22551e-19)
(0.70473 0.337824 5.9746e-19)
(0.568129 0.267974 3.6265e-21)
(0.382461 0.176027 1.38658e-19)
(0.207052 0.0941681 -6.61017e-19)
(0.0756656 0.0341333 6.81209e-19)
(0.00411295 0.00166973 -8.0252e-19)
(0.437782 0.241167 2.55289e-23)
(1.00777 0.532029 0)
(1.25447 0.680284 0)
(1.3114 0.712967 1.11949e-21)
(1.2891 0.720103 -4.75388e-20)
(1.23268 0.701288 6.63918e-20)
(1.16047 0.674938 -1.73596e-19)
(1.0891 0.645634 0)
(1.01439 0.611412 -3.69687e-19)
(0.938381 0.569723 4.4528e-19)
(0.871524 0.524316 4.73585e-19)
(0.824285 0.483737 -2.4821e-19)
(0.790894 0.447875 -3.00975e-19)
(0.757789 0.412172 7.05967e-19)
(0.683146 0.366171 -2.12483e-19)
(0.550703 0.284427 -2.53279e-19)
(0.373328 0.190867 -1.51464e-19)
(0.205843 0.103854 -7.14272e-19)
(0.0783317 0.0392932 1.04719e-19)
(0.0066847 0.00316667 8.68804e-19)
(0.433062 0.258863 -4.01189e-20)
(0.997746 0.569414 -5.37706e-20)
(1.24187 0.726933 2.37065e-20)
(1.29754 0.761011 -1.9976e-22)
(1.27446 0.767092 -5.19863e-20)
(1.21751 0.746192 1.05222e-19)
(1.14464 0.717884 0)
(1.07207 0.686177 1.07764e-19)
(0.99564 0.649603 -8.49725e-20)
(0.918207 0.60573 7.43595e-19)
(0.849639 0.557258 -1.07051e-19)
(0.801568 0.512532 1.23031e-19)
(0.767286 0.475091 0)
(0.724763 0.436242 -3.82384e-19)
(0.656951 0.379456 4.63482e-19)
(0.531204 0.303723 0)
(0.362833 0.203188 -3.26085e-19)
(0.202167 0.112043 9.59881e-19)
(0.0779221 0.0431667 1.1403e-19)
(0.00790152 0.00410221 -1.07086e-18)
(0.429745 0.275961 -1.00193e-19)
(0.985991 0.602209 1.27703e-19)
(1.22789 0.769121 0)
(1.28308 0.806074 2.21577e-20)
(1.25933 0.812166 0)
(1.20185 0.789088 -1.38277e-19)
(1.12846 0.758498 0)
(1.05528 0.724623 0)
(0.977676 0.68581 -1.1316e-19)
(0.89785 0.639239 -7.0699e-19)
(0.826277 0.587215 -8.75818e-19)
(0.774823 0.539995 1.44219e-19)
(0.739692 0.497915 5.20965e-19)
(0.706312 0.456019 4.21544e-19)
(0.635156 0.404159 -1.48747e-18)
(0.512045 0.314592 -5.95016e-19)
(0.350136 0.213841 3.48801e-19)
(0.195757 0.118124 0)
(0.075964 0.0452303 9.77741e-19)
(0.00808014 0.00468679 -1.15418e-18)
(0.427978 0.29153 1.18906e-19)
(0.977426 0.635998 -1.47763e-19)
(1.21496 0.810399 0)
(1.26853 0.848496 -1.12865e-20)
(1.24412 0.853621 -3.21985e-21)
(1.18625 0.828935 0)
(1.11244 0.796906 5.36643e-20)
(1.03844 0.761242 7.52072e-20)
(0.959501 0.720743 -2.12446e-19)
(0.878261 0.672539 9.35587e-20)
(0.804809 0.618268 0)
(0.752035 0.567446 5.97716e-19)
(0.715625 0.522464 5.86399e-21)
(0.672738 0.476837 2.27504e-19)
(0.608821 0.411214 2.69974e-19)
(0.491612 0.328586 0)
(0.337266 0.220757 -5.68297e-19)
(0.188036 0.122076 1.11346e-18)
(0.0727595 0.0463175 -1.18053e-18)
(0.00764143 0.0049237 2.48531e-18)
(0.426401 0.306401 0)
(0.966978 0.665287 0)
(1.20126 0.847316 -7.27247e-20)
(1.25394 0.888063 0)
(1.2289 0.893431 0)
(1.1706 0.867084 -1.11992e-19)
(1.09652 0.833194 5.49036e-20)
(1.0222 0.795815 1.78091e-20)
(0.942256 0.75374 -4.84163e-20)
(0.85831 0.703616 0)
(0.781353 0.646695 -1.33764e-19)
(0.724987 0.592288 -4.87606e-19)
(0.686271 0.542119 -5.87726e-19)
(0.653407 0.491481 -2.36518e-19)
(0.586267 0.431275 2.92348e-19)
(0.472031 0.332209 -6.88727e-19)
(0.323996 0.225321 1.22316e-18)
(0.180124 0.123204 1.65017e-21)
(0.0692038 0.0467235 -1.12945e-18)
(0.00713858 0.0051097 -1.67617e-19)
(0.425329 0.320645 0)
(0.9594 0.696047 -1.1983e-19)
(1.1889 0.883776 8.84393e-20)
(1.23965 0.925353 0)
(1.21402 0.9298 0)
(1.1555 0.902207 2.23268e-19)
(1.08128 0.867325 0)
(1.00631 0.82869 0)
(0.925024 0.785472 -4.66592e-19)
(0.839666 0.734286 1.30008e-19)
(0.760862 0.675688 -1.18615e-18)
(0.702252 0.618018 0)
(0.661928 0.565573 -6.39542e-19)
(0.617872 0.509018 1.02853e-20)
(0.558231 0.430328 -9.41118e-19)
(0.451251 0.338845 3.70392e-19)
(0.312245 0.224593 1.2727e-21)
(0.1754 0.120912 -1.2742e-18)
(0.0671761 0.0450422 6.07706e-19)
(0.00521523 0.00306029 1.79291e-19)
(0.424093 0.334682 0)
(0.950173 0.722505 -1.63573e-19)
(1.17604 0.916083 9.31653e-20)
(1.22567 0.959998 1.27451e-19)
(1.19948 0.964805 -7.90455e-21)
(1.14065 0.935955 2.22097e-20)
(1.06628 0.899599 -3.15969e-20)
(0.991062 0.859628 4.42948e-19)
(0.908844 0.815319 4.99121e-19)
(0.820899 0.762949 9.89711e-19)
(0.737967 0.702812 9.85502e-19)
(0.674847 0.642125 1.73572e-19)
(0.630267 0.583276 9.19929e-19)
(0.595937 0.519044 5.68917e-19)
(0.532638 0.44471 6.75402e-19)
(0.431071 0.331474 -4.05271e-19)
(0.299498 0.217424 -4.67534e-19)
(0.175091 0.11727 5.48475e-19)
(0.073788 0.051858 -3.267e-19)
(0.0120881 0.0120015 5.80932e-19)
(0.423249 0.348222 2.29012e-19)
(0.943631 0.750579 2.56343e-19)
(1.16456 0.948397 5.36516e-20)
(1.21217 0.99275 1.5661e-20)
(1.18548 0.996604 -8.56871e-21)
(1.12654 0.966755 -6.1691e-20)
(1.05217 0.929764 3.02422e-20)
(0.976401 0.889003 -1.93566e-20)
(0.892956 0.844001 -5.81528e-19)
(0.803701 0.791146 -1.07438e-18)
(0.718665 0.730061 6.84303e-20)
(0.65235 0.666911 0)
(0.605253 0.606535 0)
(0.556137 0.535347 -2.96854e-19)
(0.499078 0.434671 -1.1074e-18)
(0.408128 0.326483 8.73079e-19)
(0.296424 0.198997 5.11815e-19)
(0.185983 0.0969851 0)
(0.0902591 0.0229408 1.04561e-18)
(0.00595835 -0.014458 -6.19382e-19)
(0.422222 0.36135 -1.21504e-19)
(0.935486 0.774242 1.07269e-19)
(1.15263 0.976657 -1.28447e-19)
(1.19912 1.02302 -1.06885e-19)
(1.17196 1.02728 -1.88563e-20)
(1.11277 0.996474 -1.96754e-20)
(1.03833 0.958325 0)
(0.962436 0.916572 -5.57033e-19)
(0.878271 0.870881 7.05248e-20)
(0.786602 0.817403 0)
(0.697291 0.756 0)
(0.625653 0.691737 1.11211e-19)
(0.570869 0.62416 1.49608e-19)
(0.529613 0.542343 -3.21091e-19)
(0.466616 0.445481 7.94803e-19)
(0.379083 0.303715 -9.51682e-19)
(0.277748 0.17411 -1.09761e-18)
(0.205524 0.0839647 9.72668e-19)
(0.156601 0.0735976 -3.71716e-19)
(0.11116 0.0762673 2.16255e-19)
(0.421505 0.373609 1.51291e-19)
(0.929716 0.799548 0)
(1.14203 1.00528 0)
(1.18658 1.05172 -2.98186e-20)
(1.159 1.05498 2.41401e-20)
(1.09981 1.02334 -2.00115e-20)
(1.0255 0.984834 1.37453e-19)
(0.949228 0.942697 5.7011e-19)
(0.863986 0.8967 1.05572e-18)
(0.771123 0.843221 -8.11884e-20)
(0.679781 0.781788 1.68167e-19)
(0.604207 0.716208 -9.95891e-19)
(0.546055 0.64863 -9.94795e-19)
(0.483973 0.561499 -1.72671e-19)
(0.418518 0.428936 0)
(0.342297 0.294432 -4.99951e-21)
(0.258135 0.101353 6.05991e-19)
(0.247119 -0.0194796 -1.01749e-18)
(0.213203 -0.105117 7.7321e-19)
(0.0877433 -0.0987008 6.40082e-19)
(0.420372 0.385593 -3.33791e-19)
(0.922212 0.820412 -1.50294e-19)
(1.13088 1.02997 6.92281e-21)
(1.17443 1.07827 6.00036e-20)
(1.14644 1.08207 0)
(1.08703 1.04979 -5.43929e-20)
(1.01268 1.01047 -1.99105e-19)
(0.936356 0.967715 -2.00175e-21)
(0.85054 0.921453 -5.53158e-19)
(0.755473 0.867864 -7.97423e-20)
(0.659983 0.807284 7.40682e-20)
(0.578522 0.743123 8.75036e-19)
(0.508336 0.669237 9.70398e-19)
(0.451116 0.568548 1.68588e-19)
(0.377403 0.447628 8.60514e-19)
(0.278473 0.260166 0)
(0.151748 0.0841253 0)
(-0.00801924 0.181982 6.96077e-19)
(-0.0786666 0.630013 -2.76387e-20)
(0.00912861 1.54291 -8.62713e-19)
(0.419655 0.396784 1.84185e-19)
(0.917005 0.843366 4.23576e-19)
(1.12101 1.0557 -5.84759e-19)
(1.16265 1.10397 2.96671e-19)
(1.13423 1.10691 -9.88096e-21)
(1.07481 1.07413 -5.498e-21)
(1.00064 1.03491 0)
(0.923935 0.992378 -4.74919e-19)
(0.837059 0.946489 0)
(0.740876 0.893819 1.12133e-18)
(0.64311 0.834389 -9.06632e-20)
(0.556808 0.770343 1.01662e-19)
(0.483892 0.699788 1.11661e-18)
(0.396235 0.602369 -3.66301e-19)
(0.286306 0.43331 -4.36993e-19)
(0.186573 0.311141 0)
(0.0770301 0.46957 0)
(0.024813 1.35429 0)
(0.0712883 2.47124 -3.95132e-19)
(0.0979989 2.91454 -2.43928e-19)
(0.418184 0.407507 0)
(0.909976 0.861695 0)
(1.11054 1.07743 2.12999e-19)
(1.15131 1.12764 -2.41352e-19)
(1.12248 1.13144 1.1073e-19)
(1.06282 1.09846 1.39544e-20)
(0.988563 1.05888 2.60283e-20)
(0.911824 1.01625 -2.02647e-20)
(0.824564 0.97076 7.84636e-20)
(0.726372 0.918752 -1.28695e-18)
(0.624531 0.861272 1.64156e-19)
(0.532455 0.801913 8.78864e-19)
(0.4426 0.728461 -1.11195e-18)
(0.358868 0.611323 -1.22741e-18)
(0.265087 0.490932 4.12398e-19)
(0.182443 0.63409 0)
(0.114925 1.58122 5.63278e-19)
(0.119164 2.69949 6.09893e-19)
(0.126671 3.09002 -6.8149e-19)
(0.119248 3.22318 7.27091e-19)
(0.41722 0.417947 0)
(0.905276 0.882386 3.7185e-19)
(1.10143 1.10058 -5.3371e-20)
(1.1404 1.15066 3.35112e-19)
(1.11112 1.15374 -1.16229e-19)
(1.0515 1.12053 0)
(0.977458 1.08144 0)
(0.900429 1.03955 0)
(0.812254 0.995082 4.39887e-19)
(0.713132 0.94494 5.92119e-20)
(0.60911 0.89003 0)
(0.511904 0.831512 -8.73531e-19)
(0.425529 0.763743 0)
(0.303875 0.657244 8.78137e-19)
(0.201177 0.708427 -5.94755e-19)
(0.146905 1.46531 -4.76921e-19)
(0.150544 2.68628 -1.10077e-18)
(0.173745 3.12624 -5.78831e-19)
(0.16438 3.26573 -7.79912e-19)
(0.15129 3.30594 5.72118e-19)
(0.415618 0.42735 -1.29579e-19)
(0.898641 0.898211 1.49718e-20)
(1.09166 1.11953 -5.92472e-20)
(1.12997 1.1717 -2.59581e-19)
(1.1003 1.17592 0)
(1.04043 1.14287 0)
(0.966283 1.10377 0)
(0.889277 1.06215 3.34537e-20)
(0.800935 1.01861 -5.56292e-19)
(0.700157 0.969794 0)
(0.59299 0.917576 0)
(0.492779 0.866148 0)
(0.381732 0.793728 0)
(0.308744 0.749263 6.44314e-19)
(0.266882 1.14498 1.58158e-18)
(0.240409 2.39726 4.65069e-19)
(0.256836 3.08192 9.3201e-19)
(0.251486 3.27957 -7.14157e-19)
(0.203149 3.345 2.61849e-19)
(0.171332 3.35809 0)
(0.414485 0.436616 1.33222e-19)
(0.894287 0.917371 -8.24e-19)
(1.08311 1.14103 -2.22058e-19)
(1.11969 1.19295 -4.91305e-20)
(1.0896 1.1965 2.69646e-20)
(1.02983 1.1634 -1.03188e-19)
(0.955977 1.12505 -1.41247e-21)
(0.878805 1.08456 -3.68277e-19)
(0.789732 1.0425 0)
(0.688468 0.996365 -7.56922e-20)
(0.579865 0.948198 6.88577e-20)
(0.474629 0.896656 0)
(0.381518 0.838689 0)
(0.320956 0.940067 -8.07185e-19)
(0.267502 1.85304 1.00924e-19)
(0.263952 2.94468 -3.49832e-19)
(0.288429 3.28292 7.31481e-19)
(0.259984 3.38114 5.2567e-19)
(0.195335 3.40566 -7.12258e-19)
(0.170893 3.41572 3.51764e-19)
(0.412409 0.44614 2.61173e-19)
(0.887034 0.932418 8.02225e-19)
(1.07286 1.15937 2.6702e-19)
(1.10908 1.21366 0)
(1.07867 1.21863 0)
(1.01873 1.18579 8.01243e-20)
(0.944844 1.14747 5.82958e-20)
(0.867882 1.10733 3.28043e-19)
(0.779008 1.06639 2.16034e-20)
(0.676629 1.02196 9.65343e-19)
(0.566405 0.976604 -1.14799e-18)
(0.455727 0.929414 0)
(0.377721 0.913875 0)
(0.33358 1.31366 -5.50576e-19)
(0.330086 2.49453 -6.61379e-19)
(0.374389 3.1951 0)
(0.399295 3.3637 -7.40347e-19)
(0.328737 3.4265 4.97135e-20)
(0.260311 3.47191 3.44112e-19)
(0.23816 3.49732 -1.12772e-19)
(0.410641 0.455979 -4.96402e-19)
(0.882045 0.953637 -3.84961e-19)
(1.06321 1.18304 0)
(1.09758 1.23652 0)
(1.06684 1.24042 0)
(1.0072 1.20731 0)
(0.933917 1.16969 -6.97951e-20)
(0.857088 1.13072 2.86421e-19)
(0.767836 1.09135 0)
(0.665875 1.04997 -8.78722e-19)
(0.555677 1.00938 2.06017e-18)
(0.445981 0.970938 8.43928e-20)
(0.395766 1.03724 1.13549e-19)
(0.385305 1.74433 8.97155e-19)
(0.39641 2.90172 -4.8287e-19)
(0.435991 3.31496 0)
(0.419184 3.43664 2.08143e-19)
(0.333497 3.52559 9.12063e-20)
(0.259502 3.58957 1.48128e-19)
(0.184061 3.56904 -1.35697e-20)
(0.407636 0.466378 2.359e-19)
(0.872844 0.969589 -3.92353e-19)
(1.05097 1.20264 0)
(1.08533 1.25887 -7.19244e-20)
(1.05441 1.26439 2.47864e-19)
(0.994751 1.23144 0)
(0.921624 1.1936 0)
(0.845357 1.15473 -4.96693e-19)
(0.756892 1.11634 -5.60934e-20)
(0.654605 1.07661 8.61921e-19)
(0.541325 1.03801 -9.78775e-19)
(0.450218 1.01866 5.74562e-19)
(0.411012 1.2232 0)
(0.420113 2.18689 -4.75739e-19)
(0.462527 3.14341 3.11951e-19)
(0.527213 3.41717 1.96194e-19)