/*--------------------------------*- C++ -*----------------------------------*\
| =========                 |                                                 |
| \\      /  F ield         | OpenFOAM: The Open Source CFD Toolbox           |
|  \\    /   O peration     | Version:  4.0                                   |
|   \\  /    A nd           | Web:      www.OpenFOAM.org                      |
|    \\/     M anipulation  |                                                 |
\*---------------------------------------------------------------------------*/
FoamFile
{
    version     2.0;
    format      ascii;
    class       volScalarField;
    location    "0.006";
    object      p;
}
// * * * * * * * * * * * * * * * * * * * * * * * * * * * * * * * * * * * * * //

dimensions      [1 -1 -2 0 0 0 0];

internalField   nonuniform List<scalar> 
10000
(
100000
100000
100000
100000
100000
100000
100000
100000
100000
100000
100000
100000
100000
100000
100000
100000
100000
100000
100000
100000
100000
100000
100000
100000
100000
100000
100000
100000
100000
100000
100000
100000
100000
100000
100000
100000
100000
100000
100000
100000
100000
100000
100000
100000
100000
100000
100000
100000
100000
100000
100000
100000
100000
100000
100000
100000
100000
100000
100000
100000
100000
100000
100000
100000
100000
100000
100000
100000
100000
100000
100000
100000
100000
100000
100000
100000
100000
100000
100000
100000
100000
100000
100000
100000
100000
100000
100000
100000
100000
100000
100000
100000
100000
100000
100000
100000
100000
100000
100000
100000
100000
100000
100000
100000
100000
100000
100000
100000
100000
100000
100000
100000
100000
100000
100000
100000
100000
100000
100000
100000
100000
100000
100000
100000
100000
100000
100000
100000
100000
100000
100000
100000
100000
100000
100000
100000
100000
100000
100000
100000
100000
100000
100000
100000
100000
100000
100000
100000
100000
100000
100000
100000
100000
100000
100000
100000
100000
100000
100000
100000
100000
100000
100000
100000
100000
100000
100000
100000
100000
100000
100000
100000
100000
100000
100000
100000
100000
100000
100000
100000
100000
100000
100000
100000
100000
100000
100000
100000
100000
100000
100000
100000
100000
100000
100000
100000
100000
100000
100000
100000
100000
100000
100000
100000
100000
100000
100000
100000
100000
100000
100000
100000
100000
100000
100000
100000
100000
100000
100000
100000
100000
100000
100000
100000
100000
100000
100000
100000
100000
100000
100000
100000
100000
100000
100000
100000
100000
100000
100000
100000
100000
100000
100000
100000
100000
100000
100000
100000
100000
100000
100000
100000
100000
100000
100000
100000
100000
100000
100000
100000
100000
100000
100000
100000
100000
100000
100000
100000
100000
100000
100000
100000
100000
100000
100000
100000
100000
100000
100000
100000
100000
100000
100000
100000
100000
100000
100000
100000
100000
100000
100000
100000
100000
100000
100000
100000
100000
100000
100000
100000
100000
100000
100000
100000
100000
100000
100000
100000
100000
100000
100000
100000
100000
100000
100000
100000
100000
100000
100000
100000
100000
100000
100000
100000
100000
100000
100000
100000
100000
100000
100000
100000
100000
100000
100000
100000
100000
100000
100000
100000
100000
100000
100000
100000
100000
100000
100000
100000
100000
100000
100000
100000
100000
100000
100000
100000
100000
100000
100000
100000
100000
100000
100000
100000
100000
100000
100000
100000
100000
100000
100000
100000
100000
100000
100000
100000
100000
100000
100000
100000
100000
100000
100000
100000
100000
100000
100000
100000
100000
100000
100000
100000
100000
100000
100000
100000
100000
100000
100000
100000
100000
100000
100000
100000
100000
100000
100000
100000
100000
100000
100000
100000
100000
100000
100000
100000
100000
100000
100000
100000
100000
100000
100000
100000
100000
100000
100000
100000
100000
100000
100000
100000
100000
100000
100000
100000
100000
100000
100000
100000
100000
100000
100000
100000
100000
100000
100000
100000
100000
100000
100000
100000
100000
100000
100000
100000
100000
100000
100000
100000
100000
100000
100000
100000
100000
100000
100000
100000
100000
100000
100000
100000
100000
100000
100000
100000
100000
100000
100000
100000
100000
100000
100000
100000
100000
100000
100000
100000
100000
100000
100000
100000
100000
100000
100000
100000
100000
100000
100000
100000
100000
100000
100000
100000
100000
100000
100000
100000
100000
100000
100000
100000
100000
100000
100000
100000
100000
100000
100000
100000
100000
100000
100000
100000
100000
100000
100000
100000
100000
100000
100000
100000
100000
100000
100000
100000
100000
100000
100000
100000
100000
100000
100000
100000
100000
100000
100000
100000
100000
100000
100000
100000
100000
100000
100000
100000
100000
100000
100000
100000
100000
100000
100000
100000
100000
100000
100000
100000
100000
100000
100000
100000
100000
100000
100000
100000
100000
100000
100000
100000
100000
100000
100000
100000
100000
100000
100000
100000
100000
100000
100000
100000
100000
100000
100000
100000
100000
100000
100000
100000
100000
100000
100000
100000
100000
100000
100000
100000
100000
100000
100000
100000
100000
100000
100000
100000
100000
100000
100000
100000
100000
100000
100000
100000
100000
100000
100000
100000
100000
100000
100000
100000
100000
100000
100000
100000
100000
100000
100000
100000
100000
100000
100000
100000
100000
100000
100000
100000
100000
100000
100000
100000
100000
100000
100000
100000
100000
100000
100000
100000
100000
100000
100000
100000
100000
100000
100000
100000
100000
100000
100000
100000
100000
100000
100000
100000
100000
100000
100000
100000
100000
100000
100000
100000
100000
100000
100000
100000
100000
100000
100000
100000
100000
100000
100000
100000
100000
100000
100000
100000
100000
100000
100000
100000
100000
100000
100000
100000
100000
100000
100000
100000
100000
100000
100000
100000
100000
100000
100000
100000
100000
100000
100000
100000
100000
100000
100000
100000
100000
100000
100000
100000
100000
100000
100000
100000
100000
100000
100000
100000
100000
100000
100000
100000
100000
100000
100000
100000
100000
100000
100000
100000
100000
100000
100000
100000
100000
100000
100000
100000
100000
100000
100000
100000
100000
100000
100000
100000
100000
100000
100000
100000
100000
100000
100000
100000
100000
100000
100000
100000
100000
100000
100000
100000
100000
100000
100000
100000
100000
100000
100000
100000
100000
100000
100000
100000
100000
100000
100000
100000
100000
100000
100000
100000
100000
100000
100000
100000
100000
100000
100000
100000
100000
100000
100000
100000
100000
100000
100000
100000
100000
100000
100000
100000
100000
100000
100000
100000
100000
100000
100000
100000
100000
100000
100000
100000
100000
100000
100000
100000
100000
100000
100000
100000
100000
100000
100000
100000
100000
100000
100000
100000
100000
100000
100000
100000
100000
100000
100000
100000
100000
100000
100000
100000
100000
100000
100000
100000
100000
100000
100000
100000
100000
100000
100000
100000
100000
100000
100000
100000
100000
100000
100000
100000
100000
100000
100000
100000
100000
100000
100000
100000
100000
100000
100000
100000
100000
100000
100000
100000
100000
100000
100000
100000
100000
100000
100000
100000
100000
100000
100000
100000
100000
100000
100000
100000
100000
100000
100000
100000
100000
100000
100000
100000
100000
100000
100000
100000
100000
100000
100000
100000
100000
100000
100000
100000
100000
100000
100000
100000
100000
100000
100000
100000
100000
100000
100000
100000
100000
100000
100000
100000
100000
100000
100000
100000
100000
100000
100000
100000
100000
100000
100000
100000
100000
100000
100000
100000
100000
100000
100000
100000
100000
100000
100000
100000
100000
100000
100000
100000
100000
100000
100000
100000
100000
100000
100000
100000
100000
100000
100000
100000
100000
100000
100000
100000
100000
100000
100000
100000
100000
100000
100000
100000
100000
100000
100000
100000
100000
100000
100000
100000
100000
100000
100000
100000
100000
100000
100000
100000
100000
100000
100000
100000
100000
100000
100000
100000
100000
100000
100000
100000
100000
100000
100000
100000
100000
100000
100000
100000
100000
100000
100000
100000
100000
100000
100000
100000
100000
100000
100000
100000
100000
100000
100000
100000
100000
100000
100000
100000
100000
100000
100000
100000
100000
100000
100000
100000
100000
100000
100000
100000
100000
100000
100000
100000
100000
100000
100000
100000
100000
100000
100000
100000
100000
100000
100000
100000
100000
100000
100000
100000
100000
100000
100000
100000
100000
100000
100000
100000
100000
100000
100000
100000
100000
100000
100000
100000
100000
100000
100000
100000
100000
100000
100000
100000
100000
100000
100000
100000
100000
100000
100000
100000
100000
100000
100000
100000
100000
100000
100000
100000
100000
100000
100000
100000
100000
100000
100000
100000
100000
100000
100000
100000
100000
100000
100000
100000
100000
100000
100000
100000
100000
100000
100000
100000
100000
100000
100000
100000
100000
100000
100000
100000
100000
100000
100000
100000
100000
100000
100000
100000
100000
100000
100000
100000
100000
100000
100000
100000
100000
100000
100000
100000
100000
100000
100000
100000
100000
100000
100000
100000
100000
100000
100000
100000
100000
100000
100000
100000
100000
100000
100000
100000
100000
100000
100000
100000
100000
100000
100000
100000
100000
100000
100000
100000
100000
100000
100000
100000
100000
100000
100000
100000
100000
100000
100000
100000
100000
100000
100000
100000
100000
100000
100000
100000
100000
100000
100000
100000
100000
100000
100000
100000
100000
100000
100000
100000
100000
100000
100000
100000
100000
100000
100000
100000
100000
100000
100000
100000
100000
100000
100000
100000
100000
100000
100000
100000
100000
100000
100000
100000
100000
100000
100000
100000
100000
100000
100000
100000
100000
100000
100000
100000
100000
100000
100000
100000
100000
100000
100000
100000
100000
100000
100000
100000
100000
100000
100000
100000
100000
100000
100000
100000
100000
100000
100000
100000
100000
100000
100000
100000
100000
100000
100000
100000
100000
100000
100000
100000
100000
100000
100000
100000
100000
100000
100000
100000
100000
100000
100000
100000
100000
100000
100000
100000
100000
100000
100000
100000
100000
100000
100000
100000
100000
100000
100000
100000
100000
100000
100000
100000
100000
100000
100000
100000
100000
100000
100000
100000
100000
100000
100000
100000
100000
100000
100000
100000
100000
100000
100000
100000
100000
100000
100000
100000
100000
100000
100000
100000
100000
100000
100000
100000
100000
100000
100000
100000
100000
100000
100000
100000
100000
100000
100000
100000
100000
100000
100000
100000
100000
100000
100000
100000
100000
100000
100000
100000
100000
100000
100000
100000
100000
100000
100000
100000
100000
100000
100000
100000
100000
100000
100000
100000
100000
100000
100000
100000
100000
100000
100000
100000
100000
100000
100000
100000
100000
100000
100000
100000
100000
100000
100000
100000
100000
100000
100000
100000
100000
100000
100000
100000
100000
100000
100000
100000
100000
100000
100000
100000
100000
100000
100000
100000
100000
100000
100000
100000
100000
100000
100000
100000
100000
100000
100000
100000
100000
100000
100000
100000
100000
100000
100000
100000
100000
100000
100000
100000
100000
100000
100000
100000
100000
100000
100000
100000
100000
100000
100000
100000
100000
100000
100000
100000
100000
100000
100000
100000
100000
100000
100000
100000
100000
100000
100000
100000
100000
100000
100000
100000
100000
100000
100000
100000
100000
100000
100000
100000
100000
100000
100000
100000
100000
100000
100000
100000
100000
100000
100000
100000
100000
100000
100000
100000
100000
100000
100000
100000
100000
100000
100000
100000
100000
100000
100000
100000
100000
100000
100000
100000
100000
100000
100000
100000
100000
100000
100000
100000
100000
100000
100000
100000
100000
100000
100000
100000
100000
100000
100000
100000
100000
100000
100000
100000
100000
100000
100000
100000
100000
100000
100000
100000
100000
100000
100000
100000
100000
100000
100000
100000
100000
100000
100000
100000
100000
100000
100000
100000
100000
100000
100000
100000
100000
100000
100000
100000
100000
100000
100000
100000
100000
100000
100000
100000
100000
100000
100000
100000
100000
100000
100000
100000
100000
100000
100000
100000
100000
100000
100000
100000
100000
100000
100000
100000
100000
100000
100000
100000
100000
100000
100000
100000
100000
100000
100000
100000
100000
100000
100000
100000
100000
100000
100000
100000
100000
100000
100000
100000
100000
100000
100000
100000
100000
100000
100000
100000
100000
100000
100000
100000
100000
100000
100000
100000
100000
100000
100000
100000
100000
100000
100000
100000
100000
100000
100000
100000
100000
100000
100000
100000
100000
100000
100000
100000
100000
100000
100000
100000
100000
100000
100000
100000
100000
100000
100000
100000
100000
100000
100000
100000
100000
100000
100000
100000
100000
100000
100000
100000
100000
100000
100000
100000
100000
100000
100000
100000
100000
100000
100000
100000
100000
100000
100000
100000
100000
100000
100000
100000
100000
100000
100000
100000
100000
100000
100000
100000
100000
100000
100000
100000
100000
100000
100000
100000
100000
100000
100000
100000
100000
100000
100000
100000
100000
100000
100000
100000
100000
100000
100000
100000
100000
100000
100000
100000
100000
100000
100000
100000
100000
100000
100000
100000
100000
100000
100000
100000
100000
100000
100000
100000
100000
100000
100000
100000
100000
100000
100000
100000
100000
100000
100000
100000
100000
100000
100000
100000
100000
100000
100000
100000
100000
100000
100000
100000
100000
100000
100000
100000
100000
100000
100000
100000
100000
100000
100000
100000
100000
100000
100000
100000
100000
100000
100000
100000
100000
100000
100000
100000
100000
100000
100000
100000
100000
100000
100000
100000
100000
100000
100000
100000
100000
100000
100000
100000
100000
100000
100000
100000
100000
100000
100000
100000
100000
100000
100000
100000
100000
100000
100000
100000
100000
100000
100000
100000
100000
100000
100000
100000
100000
100000
100000
100000
100000
100000
100000
100000
100000
100000
100000
100000
100000
100000
100000
100000
100000
100000
100000
100000
100000
100000
100000
100000
100000
100000
100000
100000
100000
100000
100000
100000
100000
100000
100000
100000
100000
100000
100000
100000
100000
100000
100000
100000
100000
100000
100000
100000
100000
100000
100000
100000
100000
100000
100000
100000
100000
100000
100000
100000
100000
100000
100000
100000
100000
100000
100000
100000
100000
100000
100000
100000
100000
100000
100000
100000
100000
100000
100000
100000
100000
100000
100000
100000
100000
100000
100000
100000
100000
100000
100000
100000
100000
100000
100000
100000
100000
100000
100000
100000
100000
100000
100000
100000
100000
100000
100000
100000
100000
100000
100000
100000
100000
100000
100000
100000
100000
100000
100000
100000
100000
100000
100000
100000
100000
100000
100000
100000
100000
100000
100000
100000
100000
100000
100000
100000
100000
100000
100000
100000
100000
100000
100000
100000
100000
100000
100000
100000
100000
100000
100000
100000
100000
100000
100000
100000
100000
100000
100000
100000
100000
100000
100000
100000
100000
100000
100000
100000
100000
100000
100000
100000
100000
100000
100000
100000
100000
100000
100000
100000
100000
100000
100000
100000
100000
100000
100000
100000
100000
100000
100000
100000
100000
100000
100000
100000
100000
100000
100000
100000
100000
100000
100000
100000
100000
100000
100000
100000
100000
100000
100000
100000
100000
100000
100000
100000
100000
100000
100000
100000
100000
100000
100000
100000
100000
100000
100000
100000
100000
100000
100000
100000
100000
100000
100000
100000
100000
100000
100000
100000
100000
100000
100000
100000
100000
100000
100000
100000
100000
100000
100000
100000
100000
100000
100000
100000
100000
100000
100000
100000
100000
100000
100000
100000
100000
100000
100000
100000
100000
100000
100000
100000
100000
100000
100000
100000
100000
100000
100000
100000
100000
100000
100000
100000
100000
100000
100000
100000
100000
100000
100000
100000
100000
100000
100000
100000
100000
100000
100000
100000
100000
100000
100000
100000
100000
100000
100000
100000
100000
100000
100000
100000
100000
100000
100000
100000
100000
100000
100000
100000
100000
100000
100000
100000
100000
100000
100000
100000
100000
100000
100000
100000
100000
100000
100000
100000
100000
100000
100000
100000
100000
100000
100000
100000
100000
100000
100000
100000
100000
100000
100000
100000
100000
100000
100000
100000
100000
100000
100000
100000
100000
100000
100000
100000
100000
100000
100000
100000
100000
100000
100000
100000
100000
100000
100000
100000
100000
100000
100000
100000
100000
100000
100000
100000
100000
100000
100000
100000
100000
100000
100000
100000
100000
100000
100000
100000
100000
100000
100000
100000
100000
100000
100000
100000
100000
100000
100000
100000
100000
100000
100000
100000
100000
100000
100000
100000
100000
100000
100000
100000
100000
100000
100000
100000
100000
100000
100000
100000
100000
100000
100000
100000
100000
100000
100000
100000
100000
100000
100000
100000
100000
100000
100000
100000
100000
100000
100000
100000
100000
100000
100000
100000
100000
100000
100000
100000
100000
100000
100000
100000
100000
100000
100000
100000
100000
100000
100000
100000
100000
100000
100000
100000
100000
100000
100000
100000
100000
100000
100000
100000
100000
100000
100000
100000
100000
100000
100000
100000
100000
100000
100000
100000
100000
100000
100000
100000
100000
100000
100000
100000
100000
100000
100000
100000
100000
100000
100000
100000
100000
100000
100000
100000
100000
100000
100000
100000
100000
100000
100000
100000
100000
100000
100000
100000
100000
100000
100000
100000
100000
100000
100000
100000
100000
100000
100000
100000
100000
100000
100000
100000
100000
100000
100000
100000
100000
100000
100000
100000
100000
100000
100000
100000
100000
100000
100000
100000
100000
100000
100000
100000
100000
100000
100000
100000
100000
100000
100000
100000
100000
100000
100000
100000
100000
100000
100000
100000
100000
100000
100000
100000
100000
100000
100000
100000
100000
100000
100000
100000
100000
100000
100000
100000
100000
100000
100000
100000
100000
100000
100000
100000
100000
100000
100000
100000
100000
100000
100000
100000
100000
100000
100000
100000
100000
100000
100000
100000
100000
100000
100000
100000
100000
100000
100000
100000
100000
100000
100000
100000
100000
100000
100000
100000
100000
100000
100000
100000
100000
100000
100000
100000
100000
100000
100000
100000
100000
100000
100000
100000
100000
100000
100000
100000
100000
100000
100000
100000
100000
100000
100000
100000
100000
100000
100000
100000
100000
100000
100000
100000
100000
100000
100000
100000
100000
100000
100000
100000
100000
100000
100000
100000
100000
100000
100000
100000
100000
100000
100000
100000
100000
100000
100000
100000
100000
100000
100000
100000
100000
100000
100000
100000
100000
100000
100000
100000
100000
100000
100000
100000
100000
100000
100000
100000
100000
100000
100000
100000
100000
100000
100000
100000
100000
100000
100000
100000
100000
100000
100000
100000
100000
100000
100000
100000
100000
99999.9
99999.9
99999.9
99999.9
99999.9
99999.9
99999.9
99999.9
99999.8
99999.8
99999.8
99999.8
99999.7
99999.7
99999.7
99999.6
99999.6
99999.5
99999.5
99999.4
99999.3
99999.2
99999.1
99999
99998.9
99998.8
99998.6
99998.5
99998.3
99998.1
99997.8
99997.6
99997.3
99997
99996.7
99996.3
99995.9
99995.5
99995
99994.5
99993.9
99993.3
99992.6
99991.8
99991
99990.1
99989.1
99988.1
99986.9
99985.7
99984.3
99982.9
99981.3
99979.6
99977.8
99975.8
99973.7
99971.4
99969
99966.4
99963.6
99960.6
99957.5
99954.1
99950.4
99946.6
99942.5
99938.1
99933.5
99928.6
99923.5
99918
99912.2
99906.1
99899.7
99892.9
99885.8
99878.3
99870.5
99862.2
99853.6
99844.6
99835.2
99825.3
99815
99804.3
99793.2
99781.5
99769.5
99756.9
99743.9
99730.5
99716.5
99702
99687.1
99671.7
99655.7
99639.3
99622.4
99604.9
99587
99568.5
99549.5
99530.1
99510.1
99489.6
99468.6
99447.1
99425.1
99402.6
99379.6
99356.2
99332.2
99307.7
99282.8
99257.4
99231.5
99205.2
99178.4
99151.2
99123.5
99095.3
99066.7
99037.7
99008.3
98978.5
98948.2
98917.6
98886.5
98855.1
98823.3
98791.1
98758.5
98725.6
98692.3
98658.7
98624.8
98590.5
98555.9
98520.9
98485.7
98450.1
98414.3
98378.1
98341.7
98305
98268
98230.8
98193.2
98155.5
98117.5
98079.2
98040.7
98002
97963.1
97923.9
97884.5
97844.9
97805.2
97765.2
97725
97684.6
97644.1
97603.3
97562.4
97521.3
97480.1
97438.7
97397.1
97355.4
97313.5
97271.5
97229.4
97187.1
97144.7
97102.1
97059.4
97016.6
96973.7
96930.7
96887.5
96844.2
96800.9
96757.4
96713.8
96670.1
96626.3
96582.5
96538.5
96494.4
96450.3
96406.1
96361.8
96317.4
96272.9
96228.4
96183.7
96139.1
96094.3
96049.5
96004.6
95959.6
95914.6
95869.5
95824.4
95779.2
95734
95688.6
95643.3
95597.9
95552.4
95506.9
95461.4
95415.8
95370.1
95324.5
95278.7
95233
95187.2
95141.3
95095.5
95049.5
95003.6
94957.6
94911.6
94865.6
94819.5
94773.4
94727.3
94681.1
94634.9
94588.7
94542.5
94496.2
94449.9
94403.6
94357.3
94310.9
94264.6
94218.2
94171.8
94125.4
94078.9
94032.5
93986
93939.5
93893
93846.5
93799.9
93753.4
93706.9
93660.3
93613.7
93567.1
93520.5
93473.9
93427.3
93380.7
93334
93287.4
93240.8
93194.1
93147.4
93100.8
93054.1
93007.4
92960.8
92914.1
92867.4
92820.7
92774
92727.3
92680.6
92633.9
92587.2
92540.5
92493.8
92447.1
92400.4
92353.7
92307
92260.3
92213.6
92166.9
92120.2
92073.5
92026.9
91980.2
91933.5
91886.8
91840.1
91793.5
91746.8
91700.1
91653.5
91606.8
91560.2
91513.5
91466.9
91420.3
91373.6
91327
91280.4
91233.8
91187.2
91140.6
91094
91047.5
91000.9
90954.3
90907.8
90861.2
90814.7
90768.2
90721.6
90675.1
90628.6
90582.1
90535.6
90489.2
90442.7
90396.2
90349.8
90303.4
90256.9
90210.5
90164.1
90117.7
90071.3
90025
89978.6
89932.3
89885.9
89839.6
89793.3
89747
89700.7
89654.4
89608.1
89561.9
89515.6
89469.4
89423.2
89377
89330.8
89284.6
89238.4
89192.3
89146.1
89100
89053.9
89007.8
88961.7
88915.6
88869.5
88823.5
88777.4
88731.4
88685.4
88639.4
88593.4
88547.4
88501.5
88455.6
88409.6
88363.7
88317.8
88271.9
88226.1
88180.2
88134.4
88088.5
88042.7
87996.9
87951.2
87905.4
87859.6
87813.9
87768.2
87722.5
87676.8
87631.1
87585.5
87539.8
87494.2
87448.6
87403
87357.4
87311.8
87266.3
87220.7
87175.2
87129.7
87084.2
87038.7
86993.3
86947.8
86902.4
86857
86811.6
86766.2
86720.9
86675.5
86630.2
86584.9
86539.6
86494.3
86449.1
86403.8
86358.6
86313.4
86268.2
86223
86177.8
86132.7
86087.6
86042.4
85997.3
85952.3
85907.2
85862.2
85817.1
85772.1
85727.1
85682.1
85637.2
85592.2
85547.3
85502.4
85457.5
85412.6
85367.8
85322.9
85278.1
85233.3
85188.5
85143.7
85099
85054.2
85009.5
84964.8
84920.1
84875.4
84830.8
84786.2
84741.5
84696.9
84652.4
84607.8
84563.2
84518.7
84474.2
84429.7
84385.2
84340.8
84296.3
84251.9
84207.5
84163.1
84118.7
84074.4
84030
83985.7
83941.4
83897.1
83852.9
83808.6
83764.4
83720.2
83676
83631.8
83587.6
83543.5
83499.4
83455.3
83411.2
83367.1
83323.1
83279
83235
83191
83147
83103.1
83059.1
83015.2
82971.3
82927.4
82883.5
82839.7
82795.8
82752
82708.2
82664.4
82620.7
82576.9
82533.2
82489.5
82445.8
82402.1
82358.5
82314.8
82271.2
82227.6
82184
82140.4
82096.9
82053.4
82009.9
81966.4
81922.9
81879.4
81836
81792.6
81749.2
81705.8
81662.4
81619.1
81575.8
81532.4
81489.2
81445.9
81402.6
81359.4
81316.2
81273
81229.8
81186.6
81143.5
81100.3
81057.2
81014.1
80971.1
80928
80885
80842
80799
80756
80713
80670.1
80627.1
80584.2
80541.3
80498.5
80455.6
80412.8
80370
80327.2
80284.4
80241.6
80198.9
80156.2
80113.4
80070.8
80028.1
79985.4
79942.8
79900.2
79857.6
79815
79772.5
79729.9
79687.4
79644.9
79602.4
79559.9
79517.5
79475
79432.6
79390.2
79347.9
79305.5
79263.2
79220.8
79178.5
79136.3
79094
79051.7
79009.5
78967.3
78925.1
78882.9
78840.8
78798.6
78756.5
78714.4
78672.3
78630.3
78588.2
78546.2
78504.2
78462.2
78420.2
78378.3
78336.3
78294.4
78252.5
78210.7
78168.8
78126.9
78085.1
78043.3
78001.5
77959.8
77918
77876.3
77834.6
77792.9
77751.2
77709.5
77667.9
77626.3
77584.6
77543.1
77501.5
77459.9
77418.4
77376.9
77335.4
77293.9
77252.5
77211
77169.6
77128.2
77086.8
77045.5
77004.1
76962.8
76921.5
76880.2
76838.9
76797.6
76756.4
76715.2
76674
76632.8
76591.6
76550.5
76509.4
76468.2
76427.2
76386.1
76345
76304
76263
76222
76181
76140
76099.1
76058.1
76017.2
75976.3
75935.5
75894.6
75853.8
75813
75772.2
75731.4
75690.6
75649.9
75609.1
75568.4
75527.7
75487.1
75446.4
75405.8
75365.2
75324.6
75284
75243.4
75202.9
75162.4
75121.8
75081.4
75040.9
75000.4
74960
74919.6
74879.2
74838.8
74798.4
74758.1
74717.8
74677.4
74637.2
74596.9
74556.6
74516.4
74476.2
74436
74395.8
74355.6
74315.5
74275.4
74235.3
74195.2
74155.1
74115
74075
74035
73995
73955
73915
73875.1
73835.2
73795.2
73755.3
73715.5
73675.6
73635.8
73596
73556.2
73516.4
73476.6
73436.9
73397.1
73357.4
73317.7
73278
73238.4
73198.8
73159.1
73119.5
73079.9
73040.4
73000.8
72961.3
72921.8
72882.3
72842.8
72803.3
72763.9
72724.5
72685.1
72645.7
72606.3
72567
72527.6
72488.3
72449
72409.7
72370.5
72331.2
72292
72252.8
72213.6
72174.4
72135.3
72096.1
72057
72017.9
71978.8
71939.7
71900.7
71861.7
71822.7
71783.7
71744.7
71705.7
71666.8
71627.9
71588.9
71550.1
71511.2
71472.3
71433.5
71394.7
71355.9
71317.1
71278.3
71239.6
71200.9
71162.2
71123.5
71084.8
71046.1
71007.5
70968.9
70930.3
70891.7
70853.1
70814.6
70776
70737.5
70699
70660.5
70622.1
70583.6
70545.2
70506.8
70468.4
70430
70391.7
70353.3
70315
70276.7
70238.4
70200.1
70161.9
70123.7
70085.4
70047.2
70009.1
69970.9
69932.8
69894.6
69856.5
69818.4
69780.3
69742.3
69704.2
69666.2
69628.2
69590.2
69552.3
69514.3
69476.4
69438.5
69400.6
69362.7
69324.8
69287
69249.1
69211.3
69173.5
69135.8
69098
69060.2
69022.5
68984.8
68947.1
68909.5
68871.8
68834.2
68796.5
68758.9
68721.3
68683.8
68646.2
68608.7
68571.2
68533.7
68496.2
68458.7
68421.3
68383.9
68346.4
68309.1
68271.7
68234.3
68197
68159.7
68122.3
68085.1
68047.8
68010.5
67973.3
67936.1
67898.9
67861.7
67824.5
67787.3
67750.2
67713.1
67676
67638.9
67601.8
67564.8
67527.8
67490.8
67453.8
67416.8
67379.8
67342.9
67305.9
67269
67232.1
67195.3
67158.4
67121.6
67084.7
67047.9
67011.1
66974.4
66937.6
66900.9
66864.1
66827.4
66790.7
66754.1
66717.4
66680.8
66644.2
66607.6
66571
66534.4
66497.9
66461.3
66424.8
66388.3
66351.8
66315.4
66278.9
66242.5
66206.1
66169.7
66133.3
66096.9
66060.6
66024.2
65987.9
65951.6
65915.4
65879.1
65842.8
65806.6
65770.4
65734.2
65698
65661.9
65625.7
65589.6
65553.5
65517.4
65481.3
65445.3
65409.2
65373.2
65337.2
65301.2
65265.2
65229.3
65193.3
65157.4
65121.5
65085.6
65049.7
65013.9
64978
64942.2
64906.4
64870.6
64834.8
64799.1
64763.4
64727.6
64691.9
64656.2
64620.6
64584.9
64549.3
64513.7
64478
64442.5
64406.9
64371.3
64335.8
64300.3
64264.8
64229.3
64193.8
64158.4
64122.9
64087.5
64052.1
64016.7
63981.3
63946
63910.6
63875.3
63840
63804.7
63769.5
63734.2
63699
63663.7
63628.5
63593.4
63558.2
63523
63487.9
63452.8
63417.7
63382.6
63347.5
63312.4
63277.4
63242.4
63207.4
63172.4
63137.4
63102.5
63067.5
63032.6
62997.7
62962.8
62927.9
62893.1
62858.2
62823.4
62788.6
62753.8
62719
62684.3
62649.5
62614.8
62580.1
62545.4
62510.7
62476.1
62441.4
62406.8
62372.2
62337.6
62303
62268.5
62233.9
62199.4
62164.9
62130.4
62095.9
62061.4
62027
61992.5
61958.1
61923.7
61889.4
61855
61820.6
61786.3
61752
61717.7
61683.4
61649.1
61614.9
61580.6
61546.4
61512.2
61478
61443.9
61409.7
61375.6
61341.5
61307.3
61273.3
61239.2
61205.1
61171.1
61137.1
61103.1
61069.1
61035.1
61001.1
60967.2
60933.3
60899.3
60865.4
60831.6
60797.7
60763.9
60730
60696.2
60662.4
60628.6
60594.9
60561.1
60527.4
60493.7
60460
60426.3
60392.6
60359
60325.3
60291.7
60258.1
60224.5
60190.9
60157.4
60123.8
60090.3
60056.8
60023.3
59989.8
59956.3
59922.9
59889.5
59856.1
59822.7
59789.3
59755.9
59722.6
59689.2
59655.9
59622.6
59589.3
59556
59522.8
59489.6
59456.3
59423.1
59389.9
59356.8
59323.6
59290.5
59257.3
59224.2
59191.1
59158
59125
59091.9
59058.9
59025.9
58992.9
58959.9
58926.9
58894
58861
58828.1
58795.2
58762.3
58729.4
58696.6
58663.7
58630.9
58598.1
58565.3
58532.5
58499.7
58467
58434.3
58401.5
58368.8
58336.1
58303.5
58270.8
58238.2
58205.6
58172.9
58140.4
58107.8
58075.2
58042.7
58010.1
57977.6
57945.1
57912.6
57880.2
57847.7
57815.3
57782.9
57750.5
57718.1
57685.7
57653.3
57621
57588.7
57556.4
57524.1
57491.8
57459.5
57427.3
57395
57362.8
57330.6
57298.4
57266.2
57234.1
57201.9
57169.8
57137.7
57105.6
57073.5
57041.5
57009.4
56977.4
56945.4
56913.4
56881.4
56849.4
56817.4
56785.5
56753.6
56721.7
56689.8
56657.9
56626
56594.2
56562.3
56530.5
56498.7
56466.9
56435.2
56403.4
56371.7
56339.9
56308.2
56276.5
56244.9
56213.2
56181.5
56149.9
56118.3
56086.7
56055.1
56023.5
55992
55960.4
55928.9
55897.4
55865.9
55834.4
55802.9
55771.5
55740
55708.6
55677.2
55645.8
55614.5
55583.1
55551.8
55520.4
55489.1
55457.8
55426.5
55395.3
55364
55332.8
55301.5
55270.3
55239.1
55208
55176.8
55145.6
55114.5
55083.4
55052.3
55021.2
54990.1
54959.1
54928
54897
54866
54835
54804
54773
54742.1
54711.1
54680.2
54649.3
54618.4
54587.5
54556.7
54525.8
54495
54464.2
54433.4
54402.6
54371.8
54341.1
54310.3
54279.6
54248.9
54218.2
54187.5
54156.8
54126.2
54095.5
54064.9
54034.3
54003.7
53973.1
53942.6
53912
53881.5
53851
53820.5
53790
53759.5
53729
53698.6
53668.2
53637.8
53607.4
53577
53546.6
53516.2
53485.9
53455.6
53425.3
53395
53364.7
53334.4
53304.2
53273.9
53243.7
53213.5
53183.3
53153.1
53122.9
53092.8
53062.7
53032.5
53002.4
52972.3
52942.3
52912.2
52882.2
52852.1
52822.1
52792.1
52762.1
52732.1
52702.2
52672.2
52642.3
52612.4
52582.5
52552.6
52522.7
52492.9
52463
52433.2
52403.4
52373.6
52343.8
52314
52284.3
52254.6
52224.8
52195.1
52165.4
52135.7
52106.1
52076.4
52046.8
52017.2
51987.5
51957.9
51928.4
51898.8
51869.3
51839.7
51810.2
51780.7
51751.2
51721.7
51692.2
51662.8
51633.4
51603.9
51574.5
51545.1
51515.8
51486.4
51457
51427.7
51398.4
51369.1
51339.8
51310.5
51281.3
51252
51222.8
51193.6
51164.3
51135.2
51106
51076.8
51047.7
51018.5
50989.4
50960.3
50931.2
50902.1
50873.1
50844
50815
50786
50757
50728
50699
50670
50641.1
50612.2
50583.2