/*--------------------------------*- C++ -*----------------------------------*\
| =========                 |                                                 |
| \\      /  F ield         | OpenFOAM: The Open Source CFD Toolbox           |
|  \\    /   O peration     | Version:  4.0                                   |
|   \\  /    A nd           | Web:      www.OpenFOAM.org                      |
|    \\/     M anipulation  |                                                 |
\*---------------------------------------------------------------------------*/
FoamFile
{
    version     2.0;
    format      ascii;
    class       surfaceScalarField;
    location    "0.006";
    object      phi;
}
// * * * * * * * * * * * * * * * * * * * * * * * * * * * * * * * * * * * * * //

dimensions      [1 0 -1 0 0 0 0];

internalField   nonuniform List<scalar> 
9999
(
-1.02318e-12
-3.97904e-13
-7.38964e-13
-3.97904e-13
-1.19371e-12
-1.53477e-12
-1.64846e-12
-2.38742e-12
-3.18323e-12
-3.46745e-12
-5.11591e-12
-6.19593e-12
-6.30962e-12
-6.30962e-12
-7.16227e-12
-7.78755e-12
-8.35598e-12
-8.35598e-12
-8.41283e-12
-8.81073e-12
-9.0381e-12
-9.0381e-12
-8.18545e-12
-8.41283e-12
-8.2423e-12
-8.41283e-12
-7.67386e-12
-7.04858e-12
-6.53699e-12
-6.99174e-12
-6.25278e-12
-6.53699e-12
-7.27596e-12
-7.38964e-12
-6.48015e-12
-6.19593e-12
-5.40012e-12
-5.28644e-12
-5.28644e-12
-5.22959e-12
-4.83169e-12
-4.14957e-12
-4.14957e-12
-3.63798e-12
-2.89901e-12
-2.6148e-12
-2.44427e-12
-1.81899e-12
-1.64846e-12
-1.76215e-12
-1.42109e-12
-1.93268e-12
-2.50111e-12
-3.29692e-12
-2.95586e-12
-3.06954e-12
-2.67164e-12
-2.27374e-12
-2.04636e-12
-2.27374e-12
-2.50111e-12
-2.10321e-12
-1.93268e-12
-2.50111e-12
-1.76215e-12
-1.7053e-12
-2.33058e-12
-1.7053e-12
-1.08002e-12
-6.82121e-13
-5.68434e-13
2.84217e-13
1.08002e-12
2.44427e-12
2.84217e-12
3.29692e-12
3.06954e-12
2.6148e-12
3.24007e-12
3.97904e-12
4.66116e-12
5.17275e-12
5.6275e-12
6.48015e-12
6.87805e-12
6.82121e-12
6.36646e-12
5.96856e-12
5.74119e-12
5.05906e-12
5.45697e-12
5.40012e-12
4.718e-12
4.43379e-12
4.43379e-12
5.17275e-12
4.83169e-12
5.45697e-12
5.91172e-12
5.57066e-12
5.45697e-12
4.718e-12
4.83169e-12
5.00222e-12
4.43379e-12
4.03588e-12
3.58114e-12
2.27374e-12
1.81899e-12
1.53477e-12
1.53477e-12
6.82121e-13
5.11591e-13
1.25056e-12
6.82121e-13
4.54747e-13
6.25278e-13
6.25278e-13
-5.68434e-14
5.68434e-14
2.27374e-13
-5.68434e-14
-5.11591e-13
5.68434e-14
0
2.84217e-13
9.66338e-13
1.3074e-12
1.76215e-12
2.38742e-12
2.78533e-12
3.69482e-12
3.69482e-12
3.58114e-12
3.58114e-12
4.60432e-12
5.05906e-12
5.68434e-12
6.36646e-12
7.56017e-12
8.07177e-12
8.18545e-12
1.00613e-11
1.02887e-11
1.00613e-11
1.00613e-11
1.04023e-11
1.19371e-11
1.11413e-11
1.14255e-11
1.10276e-11
1.14255e-11
1.1255e-11
1.05729e-11
1.06297e-11
1.05729e-11
9.60654e-12
9.32232e-12
8.86757e-12
8.07177e-12
8.12861e-12
7.38964e-12
7.27596e-12
6.25278e-12
6.13909e-12
5.00222e-12
5.05906e-12
4.03588e-12
4.26326e-12
3.80851e-12
2.50111e-12
2.84217e-12
2.72848e-12
2.38742e-12
2.21689e-12
1.98952e-12
1.08002e-12
1.81899e-12
1.81899e-12
1.7053e-12
1.93268e-12
2.72848e-12
2.78533e-12
2.38742e-12
2.04636e-12
2.27374e-12
2.6148e-12
1.7053e-12
1.13687e-12
1.19371e-12
9.66338e-13
1.25056e-12
1.42109e-12
1.87583e-12
1.25056e-12
1.98952e-12
1.59162e-12
2.38742e-12
2.04636e-12
2.16005e-12
1.42109e-12
1.87583e-12
1.93268e-12
1.59162e-12
1.42109e-12
8.52651e-13
5.11591e-13
2.84217e-13
-2.27374e-13
2.84217e-13
6.25278e-13
4.54747e-13
5.68434e-13
1.47793e-12
2.44427e-12
3.80851e-12
4.20641e-12
4.66116e-12
5.11591e-12
5.34328e-12
5.45697e-12
5.74119e-12
6.87805e-12
6.9349e-12
7.27596e-12
7.44649e-12
8.2423e-12
8.18545e-12
8.01492e-12
7.10543e-12
6.99174e-12
7.3328e-12
6.87805e-12
7.38964e-12
7.84439e-12
8.46967e-12
8.75389e-12
8.18545e-12
7.04858e-12
7.21911e-12
6.65068e-12
7.10543e-12
7.21911e-12
6.87805e-12
7.84439e-12
8.12861e-12
8.35598e-12
9.0381e-12
8.52651e-12
9.66338e-12
1.01181e-11
9.89075e-12
9.54969e-12
9.0381e-12
8.52651e-12
8.98126e-12
9.0381e-12
8.92442e-12
8.98126e-12
8.46967e-12
8.35598e-12
9.0381e-12
9.83391e-12
9.83391e-12
1.02887e-11
1.14255e-11
1.20508e-11
1.1994e-11
1.18803e-11
1.17097e-11
1.30171e-11
1.36993e-11
1.48361e-11
1.56319e-11
1.62004e-11
1.63141e-11
1.65414e-11
1.71667e-11
1.75646e-11
1.80194e-11
1.80194e-11
1.71667e-11
1.76215e-11
1.79057e-11
1.71667e-11
1.68825e-11
1.67688e-11
1.64277e-11
1.58025e-11
1.54614e-11
1.39835e-11
1.27898e-11
1.21645e-11
1.13118e-11
1.08571e-11
1.0175e-11
9.43601e-12
9.0381e-12
8.52651e-12
8.07177e-12
8.2423e-12
7.7307e-12
7.7307e-12
7.44649e-12
7.95808e-12
8.98126e-12
9.09495e-12
9.72022e-12
1.01181e-11
1.0175e-11
1.10845e-11
1.13118e-11
1.2335e-11
1.31308e-11
1.3813e-11
1.49498e-11
1.55183e-11
1.61435e-11
1.67688e-11
1.64277e-11
1.71099e-11
1.76215e-11
1.68825e-11
1.72236e-11
1.79057e-11
1.82467e-11
1.89857e-11
1.97247e-11
2.09184e-11
2.06342e-11
2.09752e-11
2.04636e-11
2.09752e-11
2.11458e-11
2.20552e-11
2.251e-11
2.31921e-11
2.3249e-11
2.38742e-11
2.38174e-11
2.359e-11
2.28511e-11
2.35332e-11
2.39311e-11
2.47837e-11
2.51816e-11
2.56932e-11
2.50679e-11
2.46132e-11
2.42721e-11
2.42721e-11
2.39879e-11
2.30216e-11
2.29079e-11
2.33626e-11
2.25668e-11
2.25668e-11
2.13731e-11
2.02363e-11
1.94404e-11
1.87583e-11
1.84173e-11
1.84173e-11
1.79057e-11
1.76783e-11
1.83036e-11
1.91562e-11
1.90994e-11
1.98952e-11
1.9952e-11
2.10889e-11
2.1771e-11
2.22258e-11
2.21689e-11
2.33058e-11
2.37605e-11
2.30784e-11
2.38174e-11
2.42721e-11
2.48406e-11
2.46132e-11
2.52385e-11
2.6148e-11
2.6148e-11
2.67733e-11
2.70006e-11
2.76827e-11
2.81943e-11
2.75122e-11
2.89901e-11
2.95586e-11
2.98428e-11
3.03544e-11
3.12639e-11
3.15481e-11
3.1946e-11
3.24576e-11
3.1946e-11
3.21734e-11
3.15481e-11
3.07523e-11
3.02407e-11
3.02407e-11
2.98428e-11
3.00702e-11
3.01839e-11
2.95586e-11
2.96723e-11
2.95017e-11
2.85354e-11
2.88196e-11
3.00133e-11
2.98428e-11
2.95586e-11
2.91607e-11
2.85922e-11
2.87059e-11
2.85922e-11
2.88765e-11
2.96154e-11
2.84786e-11
2.74554e-11
2.87059e-11
2.9388e-11
2.95017e-11
2.91607e-11
2.87628e-11
2.8308e-11
2.7967e-11
2.7228e-11
2.7228e-11
2.6148e-11
2.62048e-11
2.48974e-11
2.49543e-11
2.50111e-11
2.44995e-11
2.48974e-11
2.50111e-11
2.51816e-11
2.58638e-11
2.6148e-11
2.65459e-11
2.63185e-11
2.63185e-11
2.62048e-11
2.58638e-11
2.65459e-11
2.70006e-11
2.79101e-11
2.91607e-11
2.88765e-11
2.89901e-11
2.9388e-11
2.96723e-11
2.98996e-11
3.0127e-11
3.02407e-11
2.9047e-11
2.97291e-11
3.01839e-11
3.05249e-11
3.02975e-11
3.10365e-11
3.02975e-11
3.09228e-11
3.18892e-11
3.22302e-11
3.31397e-11
3.35945e-11
3.31966e-11
3.38218e-11
3.46176e-11
3.43334e-11
3.4504e-11
3.4845e-11
3.50724e-11
3.51861e-11
3.55271e-11
3.52998e-11
3.56408e-11
3.49587e-11
3.47313e-11
3.39924e-11
3.37081e-11
3.23439e-11
3.16049e-11
3.06386e-11
3.05249e-11
3.07523e-11
2.98428e-11
2.88196e-11
2.73985e-11
2.56364e-11
2.48406e-11
2.39879e-11
2.34763e-11
2.31921e-11
2.27374e-11
2.21121e-11
2.18279e-11
2.22826e-11
2.22826e-11
2.34195e-11
2.33626e-11
2.35332e-11
2.359e-11
2.40448e-11
2.38742e-11
2.5409e-11
2.62048e-11
2.7228e-11
2.88765e-11
2.96723e-11
3.09797e-11
3.17755e-11
3.1946e-11
3.36513e-11
3.42766e-11
3.42766e-11
3.49019e-11
3.54703e-11
3.49019e-11
3.53566e-11
3.52998e-11
3.51292e-11
3.56977e-11
3.44471e-11
3.4845e-11
3.39355e-11
3.39924e-11
3.42197e-11
3.43334e-11
3.4845e-11
3.41061e-11
3.42197e-11
3.31397e-11
3.3026e-11
3.22302e-11
3.23439e-11
3.29123e-11
3.26281e-11
3.25713e-11
3.27987e-11
3.27987e-11
3.1946e-11
3.08091e-11
3.04112e-11
3.05818e-11
3.00133e-11
2.96154e-11
2.88765e-11
2.88196e-11
2.82512e-11
2.78533e-11
2.84786e-11
2.87059e-11
2.84217e-11
2.73985e-11
2.72848e-11
2.69438e-11
2.65459e-11
2.67164e-11
2.67164e-11
2.70006e-11
2.75122e-11
2.82512e-11
2.77964e-11
2.85922e-11
2.91607e-11
2.87628e-11
2.87059e-11
2.98996e-11
2.97291e-11
3.02975e-11
3.12639e-11
3.09797e-11
3.17755e-11
3.22302e-11
3.27418e-11
3.30829e-11
3.39355e-11
3.41629e-11
3.45608e-11
3.49019e-11
3.55271e-11
3.5925e-11
3.58682e-11
3.62093e-11
3.64366e-11
3.6664e-11
3.72324e-11
3.78577e-11
3.90514e-11
4.03588e-11
4.08136e-11
4.18368e-11
4.37694e-11
4.45084e-11
4.43379e-11
4.53042e-11
4.5361e-11
4.5361e-11
4.56453e-11
4.55316e-11
4.59863e-11
4.58726e-11
4.47358e-11
4.45084e-11
4.4281e-11
4.4281e-11
4.502e-11
4.43947e-11
4.45652e-11
4.51905e-11
4.55884e-11
4.47358e-11
4.45084e-11
4.47358e-11
4.45652e-11
4.41673e-11
4.35989e-11
4.24052e-11
4.19504e-11
4.11546e-11
4.08136e-11
4.15525e-11
4.06999e-11
3.99041e-11
4.02451e-11
3.97904e-11
3.93925e-11
3.8483e-11
3.76303e-11
3.59819e-11
3.55271e-11
3.44471e-11
3.35945e-11
3.26281e-11
3.25144e-11
3.24576e-11
3.20597e-11
3.27418e-11
3.31966e-11
3.31966e-11
3.29692e-11
3.25144e-11
3.31397e-11
3.38218e-11
3.3026e-11
3.39924e-11
3.44471e-11
3.50724e-11
3.47882e-11
3.47313e-11
3.49587e-11
3.40492e-11
3.41629e-11
3.43903e-11
3.43334e-11
3.51861e-11
3.49019e-11
3.52429e-11
3.41629e-11
3.43334e-11
3.41061e-11
3.42197e-11
3.45608e-11
3.4504e-11
3.57545e-11
3.63229e-11
3.78577e-11
3.81988e-11
3.81988e-11
3.76872e-11
3.81988e-11
3.78577e-11
3.8483e-11
3.80282e-11
3.80282e-11
3.8483e-11
3.90514e-11
3.94493e-11
4.00178e-11
4.01883e-11
4.08136e-11
4.1382e-11
4.18368e-11
4.29168e-11
4.36557e-11
4.47926e-11
4.64979e-11
4.70664e-11
4.78053e-11
4.84306e-11
4.87148e-11
4.92264e-11
4.91127e-11
4.83169e-11
4.83737e-11
4.82601e-11
4.88285e-11
4.93969e-11
4.95106e-11
4.87717e-11
4.83737e-11
4.83737e-11
4.83737e-11
4.84306e-11
4.88853e-11
4.87148e-11
4.90559e-11
4.87148e-11
4.83737e-11
4.83169e-11
4.73506e-11
4.66684e-11
4.61569e-11
4.54747e-11
4.49063e-11
4.49631e-11
4.48495e-11
4.44516e-11
4.41673e-11
4.44516e-11
4.41673e-11
4.32578e-11
4.24052e-11
4.20073e-11
4.09841e-11
4.02451e-11
3.9222e-11
3.78009e-11
3.84262e-11
3.79714e-11
3.73461e-11
3.83125e-11
3.87672e-11
3.88241e-11
3.88241e-11
3.9222e-11
3.91083e-11
4.00178e-11
3.99041e-11
3.91651e-11
4.01883e-11
4.05862e-11
4.09273e-11
4.16094e-11
4.16094e-11
4.20641e-11
4.2121e-11
4.14389e-11
4.08136e-11
4.10978e-11
4.12683e-11
4.09273e-11
4.09273e-11
4.0302e-11
4.03588e-11
4.05294e-11
4.02451e-11
4.01315e-11
4.06999e-11
4.02451e-11
4.05862e-11
4.08136e-11
4.16662e-11
4.25757e-11
4.21778e-11
4.25189e-11
4.36557e-11
4.30305e-11
4.37126e-11
4.4281e-11
4.47358e-11
4.51905e-11
4.56453e-11
4.49063e-11
4.60432e-11
4.70095e-11
4.68958e-11
4.77485e-11
4.82601e-11
4.7919e-11
4.85443e-11
4.87148e-11
4.82601e-11
4.77485e-11
4.72369e-11
4.65548e-11
4.62705e-11
4.60432e-11
4.54179e-11
4.43947e-11
4.30873e-11
4.21778e-11
4.14389e-11
4.0643e-11
4.05862e-11
4.01315e-11
4.07567e-11
4.17799e-11
4.07567e-11
4.0302e-11
3.97904e-11
3.88241e-11
3.81419e-11
3.78577e-11
3.8483e-11
3.91083e-11
3.97904e-11
4.07567e-11
4.20073e-11
4.25757e-11
4.35421e-11
4.36557e-11
4.35421e-11
4.38263e-11
4.34852e-11
4.34284e-11
4.34852e-11
4.38263e-11
4.48495e-11
4.54179e-11
4.52474e-11
4.63274e-11
4.62705e-11
4.67821e-11
4.78053e-11
4.83169e-11
4.87148e-11
4.8658e-11
4.94538e-11
4.99085e-11
5.12728e-11
5.16707e-11
5.30918e-11
5.41718e-11
5.49107e-11
5.55929e-11
5.5536e-11
5.55929e-11
5.5536e-11
5.63318e-11
5.66729e-11
5.69571e-11
5.6616e-11
5.65024e-11
5.59339e-11
5.55929e-11
5.51381e-11
5.53086e-11
5.53086e-11
5.48539e-11
5.41149e-11
5.34328e-11
5.32623e-11
5.32623e-11
5.24096e-11
5.22391e-11
5.25802e-11
5.20117e-11
5.24096e-11
5.28644e-11
5.23528e-11
5.21254e-11
5.13296e-11
5.07612e-11
5.15001e-11
5.16138e-11
5.18412e-11
5.14433e-11
5.16707e-11
5.13296e-11
5.03633e-11
5.00222e-11
4.95675e-11
4.9738e-11
4.94538e-11
4.98517e-11
4.92832e-11
4.84306e-11
4.82601e-11
4.80327e-11
4.75211e-11
4.74643e-11
4.7919e-11
4.89422e-11
4.97948e-11
4.98517e-11
4.96811e-11
5.03633e-11
5.03633e-11
5.0818e-11
5.16138e-11
5.24096e-11
5.30349e-11
5.29781e-11
5.34328e-11
5.38876e-11
5.45128e-11
5.50813e-11
5.56497e-11
5.56497e-11
5.63887e-11
5.67866e-11
5.65592e-11
5.65024e-11
5.61045e-11
5.57634e-11
5.38876e-11
5.28644e-11
5.28075e-11
5.32623e-11
5.3376e-11
5.30349e-11
5.22391e-11
5.23528e-11
5.19549e-11
5.22959e-11
5.29212e-11
5.36602e-11
5.41149e-11
5.41718e-11
5.43992e-11
5.43992e-11
5.49676e-11
5.45128e-11
5.42286e-11
5.5195e-11
5.5536e-11
5.48539e-11
5.50244e-11
5.5536e-11
5.50244e-11
5.4456e-11
5.46834e-11
5.39444e-11
5.33191e-11
5.36033e-11
5.32054e-11
5.30349e-11
5.37739e-11
5.42855e-11
5.30918e-11
5.37739e-11
5.35465e-11
5.3376e-11
5.3717e-11
5.46834e-11
5.49107e-11
5.47971e-11
5.5195e-11
5.59339e-11
5.78666e-11
5.90603e-11
6.04814e-11
6.05382e-11
6.1732e-11
6.24709e-11
6.24709e-11
6.29825e-11
6.32667e-11
6.41194e-11
6.50857e-11
6.645e-11
6.62794e-11
6.59952e-11
6.59952e-11
6.55405e-11
6.63363e-11
6.69047e-11
6.57678e-11
6.57678e-11
6.59384e-11
6.51426e-11
6.45741e-11
6.40625e-11
6.29257e-11
6.26414e-11
6.24141e-11
6.19025e-11
6.19025e-11
6.12204e-11
6.16183e-11
6.23572e-11
6.25846e-11
6.32667e-11
6.38352e-11
6.40057e-11
6.47447e-11
6.61089e-11
6.62226e-11
6.6791e-11
6.63363e-11
6.645e-11
6.55973e-11
6.53131e-11
6.42899e-11
6.37215e-11
6.40625e-11
6.3892e-11
6.29257e-11
6.2073e-11
6.19593e-11
6.14477e-11
6.15614e-11
6.18456e-11
6.16751e-11
6.10498e-11
6.12204e-11
6.04814e-11
6.01972e-11
5.92308e-11
5.8435e-11
5.79234e-11
5.79803e-11
5.75255e-11
5.77529e-11
5.81508e-11
5.88329e-11
5.8435e-11
5.82645e-11
5.98561e-11
6.12204e-11
6.2073e-11
6.29257e-11
6.30962e-11
6.39488e-11
6.48583e-11
6.51994e-11
6.50857e-11
6.4631e-11
6.47447e-11
6.53699e-11
6.52562e-11
6.52562e-11
6.54836e-11
6.4972e-11
6.50857e-11
6.48583e-11
6.47447e-11
6.46878e-11
6.36646e-11
6.32099e-11
6.23572e-11
6.23004e-11
6.2073e-11
6.24141e-11
6.33804e-11
6.30962e-11
6.29257e-11
6.23572e-11
6.25278e-11
6.2073e-11
6.15046e-11
6.08225e-11
6.24141e-11
6.30394e-11
6.36646e-11
6.45741e-11
6.47447e-11
6.45741e-11
6.51426e-11
6.44036e-11
6.53131e-11
6.54268e-11
6.61089e-11
6.6791e-11
6.71889e-11
6.71889e-11
6.63931e-11
6.69615e-11
6.62226e-11
6.53131e-11
6.53131e-11
6.54836e-11
6.62794e-11
6.71889e-11
6.7871e-11
6.9349e-11
6.90648e-11
6.94627e-11
7.00879e-11
7.07132e-11
7.03153e-11
7.03722e-11
7.17932e-11
7.24185e-11
7.28733e-11
7.28164e-11
7.32712e-11
7.4408e-11
7.53744e-11
7.50902e-11
7.50902e-11
7.48628e-11
7.61133e-11
7.58291e-11
7.54881e-11
7.5886e-11
7.47491e-11
7.38964e-11
7.37259e-11
7.28733e-11
7.21911e-11
7.16227e-11
6.99174e-11
6.969e-11
6.90079e-11
6.77005e-11
6.73026e-11
6.79279e-11
6.753e-11
6.72458e-11
6.85532e-11
6.861e-11
6.78142e-11
6.80984e-11
6.80416e-11
6.85532e-11
6.90079e-11
6.97469e-11
6.9349e-11
6.94627e-11
6.94627e-11
7.03722e-11
7.03153e-11
7.00311e-11
7.0429e-11
6.99742e-11
7.0429e-11
7.02585e-11
6.95195e-11
6.95195e-11
7.03153e-11
6.98606e-11
6.98037e-11
7.15659e-11
7.11111e-11
7.06564e-11
7.00311e-11
6.94058e-11
6.92353e-11
6.87805e-11
6.80984e-11
6.74731e-11
6.75868e-11
6.753e-11
6.66205e-11
6.62794e-11
6.61089e-11
6.60521e-11
6.50857e-11
6.47447e-11
6.3892e-11
6.28688e-11
6.18456e-11
6.1334e-11
6.07656e-11
5.90603e-11
5.79803e-11
5.75824e-11
5.69003e-11
5.6275e-11
5.56497e-11
5.46834e-11
5.51381e-11
5.42855e-11
5.48539e-11
5.5195e-11
5.45697e-11
5.4456e-11
5.4456e-11
5.58771e-11
5.49107e-11
5.54792e-11
5.55929e-11
5.52518e-11
5.46834e-11
5.40581e-11
5.3376e-11
5.35465e-11
5.42286e-11
5.5195e-11
5.59908e-11
5.71276e-11
5.75255e-11
5.79803e-11
5.78098e-11
5.89466e-11
5.95151e-11
5.9913e-11
6.04814e-11
6.07088e-11
6.07088e-11
6.17888e-11
6.2073e-11
6.26983e-11
6.34941e-11
6.3892e-11
6.4972e-11
6.55973e-11
6.55973e-11
6.58247e-11
6.61657e-11
6.71889e-11
6.73595e-11
6.74163e-11
6.76437e-11
6.71321e-11
6.71889e-11
6.70752e-11
6.68479e-11
6.69615e-11
6.65068e-11
6.51426e-11
6.53131e-11
6.44036e-11
6.33804e-11
6.3892e-11
6.33236e-11
6.2812e-11
6.3153e-11
6.3892e-11
6.36078e-11
6.27551e-11
6.20162e-11
6.21299e-11
6.18456e-11
6.22435e-11
6.26983e-11
6.24141e-11
6.29825e-11
6.32667e-11
6.37215e-11
6.33236e-11
6.32667e-11
6.29825e-11
6.2073e-11
6.20162e-11
6.13909e-11
6.12772e-11
6.23572e-11
6.24709e-11
6.20162e-11
6.2073e-11
6.25278e-11
6.27551e-11
6.3153e-11
6.37215e-11
6.39488e-11
6.37215e-11
6.41762e-11
6.45173e-11
6.40057e-11
6.3892e-11
6.30962e-11
6.24141e-11
6.23004e-11
6.16183e-11
6.10498e-11
6.05382e-11
6.00835e-11
5.99698e-11
5.97424e-11
5.94014e-11
5.90603e-11
5.81508e-11
5.7355e-11
5.71845e-11
5.7355e-11
5.78098e-11
5.74687e-11
5.71276e-11
5.67866e-11
5.71845e-11
5.7355e-11
5.74687e-11
5.74119e-11
5.65024e-11
5.71276e-11
5.72982e-11
5.81508e-11
5.85487e-11
5.85487e-11
6.0254e-11
6.07088e-11
6.11067e-11
6.1732e-11
6.22435e-11
6.26983e-11
6.32099e-11
6.38352e-11
6.4972e-11
6.54836e-11
6.56541e-11
6.645e-11
6.67342e-11
6.68479e-11
6.61657e-11
6.72458e-11
6.79279e-11
6.86668e-11
6.95195e-11
7.00311e-11
7.01448e-11
7.07132e-11
7.09406e-11
7.1168e-11
7.08837e-11
7.03722e-11
7.03153e-11
7.05427e-11
6.98037e-11
7.04858e-11
7.03153e-11
6.98037e-11
6.94627e-11
6.861e-11
6.7871e-11
6.77574e-11
6.72458e-11
6.6791e-11
6.63363e-11
6.54268e-11
6.44604e-11
6.26983e-11
6.21867e-11
6.17888e-11
6.12772e-11
6.08793e-11
6.05382e-11
6.00267e-11
5.91172e-11
5.94582e-11
5.91172e-11
5.83213e-11
5.92308e-11
5.82077e-11
5.86056e-11
5.8094e-11
5.70139e-11
5.78666e-11
5.82077e-11
5.77529e-11
5.82645e-11
5.88329e-11
5.92308e-11
5.96856e-11
5.9913e-11
6.0254e-11
6.08225e-11
6.19025e-11
6.2073e-11
6.16751e-11
6.15046e-11
6.1334e-11
6.28688e-11
6.42899e-11
6.4972e-11
6.58247e-11
6.65636e-11
6.66205e-11
6.73595e-11
6.79847e-11
6.7871e-11
6.84395e-11
6.90079e-11
6.95195e-11
6.98606e-11
7.07132e-11
7.08269e-11
7.05427e-11
7.02016e-11
6.98606e-11
6.861e-11
6.73026e-11
6.71321e-11
6.65068e-11
6.62226e-11
6.53699e-11
6.51994e-11
6.49152e-11
6.3892e-11
6.37783e-11
6.40625e-11
6.30962e-11
6.34373e-11
6.29257e-11
6.30394e-11
6.32099e-11
6.37783e-11
6.32099e-11
6.29257e-11
6.29257e-11
6.23572e-11
6.20162e-11
6.06519e-11
6.06519e-11
6.01403e-11
5.92308e-11
5.87761e-11
5.82645e-11
5.83782e-11
5.88898e-11
5.98561e-11
5.95151e-11
5.97993e-11
6.03109e-11
6.08793e-11
6.13909e-11
6.1732e-11
6.25278e-11
6.3153e-11
6.30962e-11
6.36646e-11
6.41194e-11
6.43468e-11
6.4631e-11
6.50857e-11
6.46878e-11
6.44036e-11
6.40625e-11
6.45741e-11
6.47447e-11
6.62226e-11
6.59384e-11
6.53699e-11
6.59384e-11
6.5711e-11
6.53131e-11
6.46878e-11
6.45173e-11
6.46878e-11
6.33236e-11
6.2812e-11
6.21867e-11
6.14477e-11
6.11067e-11
6.12772e-11
6.15614e-11
6.07088e-11
6.07088e-11
6.01972e-11
6.05951e-11
6.05951e-11
6.04814e-11
5.97424e-11
5.91172e-11
5.88329e-11
5.91172e-11
5.82077e-11
5.8435e-11
5.86624e-11
5.97993e-11
5.96856e-11
5.96287e-11
6.1334e-11
6.19593e-11
6.22435e-11
6.3153e-11
6.44604e-11
6.50289e-11
6.58247e-11
6.48583e-11
6.54268e-11
6.51994e-11
6.56541e-11
6.62794e-11
6.6791e-11
6.73595e-11
6.74731e-11
6.81553e-11
6.79279e-11
6.75868e-11
6.74731e-11
6.753e-11
6.74731e-11
6.69047e-11
6.70752e-11
6.65068e-11
6.65068e-11
6.59952e-11
6.65636e-11
6.63363e-11
6.55405e-11
6.61657e-11
6.62226e-11
6.58815e-11
6.53699e-11
6.49152e-11
6.55973e-11
6.47447e-11
6.34941e-11
6.23004e-11
6.23004e-11
6.17888e-11
6.12204e-11
5.99698e-11
5.97424e-11
5.96287e-11
5.88329e-11
5.91172e-11
5.92877e-11
5.90603e-11
5.80371e-11
5.8435e-11
5.79803e-11
5.75255e-11
5.79803e-11
5.76392e-11
5.80371e-11
5.74119e-11
5.67297e-11
5.64455e-11
5.61613e-11
5.54792e-11
5.46834e-11
5.53655e-11
5.52518e-11
5.53086e-11
5.62181e-11
5.63318e-11
5.71276e-11
5.65592e-11
5.67866e-11
5.61045e-11
5.56497e-11
5.68434e-11
5.79803e-11
5.81508e-11
5.83213e-11
5.75824e-11
5.76961e-11
5.78666e-11
5.81508e-11
5.85487e-11
5.87193e-11
5.87761e-11
5.86624e-11
5.92877e-11
6.00835e-11
6.08793e-11
6.14477e-11
6.19025e-11
6.17888e-11
6.20162e-11
6.35509e-11
6.47447e-11
6.51994e-11
6.52562e-11
6.53131e-11
6.48015e-11
6.53131e-11
6.55973e-11
6.62794e-11
6.61657e-11
6.645e-11
6.5711e-11
6.5711e-11
6.54268e-11
6.65636e-11
6.58247e-11
6.60521e-11
6.58247e-11
6.53131e-11
6.52562e-11
6.44604e-11
6.35509e-11
6.29257e-11
6.28688e-11
6.20162e-11
6.12204e-11
6.15046e-11
6.13909e-11
6.1334e-11
6.16751e-11
6.23004e-11
6.26983e-11
6.26983e-11
6.37783e-11
6.42899e-11
6.53699e-11
6.65068e-11
6.73026e-11
6.92353e-11
6.99742e-11
7.05427e-11
7.05995e-11
6.99174e-11
6.98037e-11
6.99174e-11
7.0429e-11
7.09406e-11
7.06564e-11
7.05427e-11
7.08837e-11
7.02016e-11
7.04858e-11
7.07132e-11
7.03153e-11
6.99174e-11
6.96332e-11
6.95195e-11
6.94058e-11
6.98606e-11
7.05427e-11
6.95763e-11
6.94058e-11
6.90648e-11
6.85532e-11
6.80416e-11
6.71889e-11
6.74163e-11
6.60521e-11
6.51426e-11
6.37215e-11
6.34941e-11
6.25278e-11
6.21299e-11
6.15046e-11
6.2073e-11
6.18456e-11
6.12772e-11
6.10498e-11
6.09361e-11
6.03677e-11
6.01972e-11
5.92877e-11
5.90603e-11
5.94582e-11
5.87761e-11
5.84919e-11
5.83782e-11
5.94014e-11
6.0254e-11
6.01972e-11
6.07656e-11
6.08793e-11
6.07656e-11
6.10498e-11
6.01972e-11
5.96856e-11
5.97993e-11
6.03109e-11
6.1334e-11
6.19025e-11
6.27551e-11
6.36078e-11
6.41194e-11
6.51426e-11
6.54268e-11
6.61657e-11
6.70752e-11
6.74163e-11
6.69047e-11
6.70752e-11
6.78142e-11
6.71889e-11
6.77574e-11
6.85532e-11
6.88942e-11
6.82121e-11
6.91784e-11
6.89511e-11
6.82689e-11
6.80416e-11
6.71321e-11
6.62226e-11
6.63363e-11
6.55973e-11
6.60521e-11
6.51994e-11
6.53699e-11
6.3153e-11
6.26414e-11
6.2073e-11
6.16183e-11
6.0993e-11
6.16183e-11
6.19593e-11
6.17888e-11
6.2073e-11
6.1732e-11
5.97424e-11
5.9913e-11
5.97424e-11
5.96287e-11
5.93445e-11
5.88329e-11
5.86624e-11
5.74687e-11
5.77529e-11
5.72982e-11
5.67297e-11
5.65592e-11
5.68434e-11
5.61045e-11
5.70139e-11
5.78666e-11
5.8094e-11
5.81508e-11
5.75255e-11
5.79803e-11
5.76961e-11
5.8094e-11
5.89466e-11
5.98561e-11
6.06519e-11
6.15614e-11
6.24709e-11
6.29825e-11
6.33804e-11
6.44036e-11
6.51426e-11
6.66773e-11
6.75868e-11
6.88942e-11
6.95763e-11
6.94058e-11
6.99742e-11
7.00311e-11
7.10543e-11
7.17932e-11
7.21343e-11
7.17364e-11
7.10543e-11
7.09406e-11
7.03722e-11
7.09974e-11
7.05427e-11
7.00879e-11
7.00311e-11
7.00879e-11
6.96332e-11
6.90648e-11
6.85532e-11
6.84395e-11
6.83826e-11
6.80416e-11
6.61657e-11
6.4631e-11
6.37215e-11
6.27551e-11
6.30962e-11
6.25278e-11
6.11635e-11
6.06519e-11
5.97424e-11
5.92877e-11
5.86056e-11
5.8094e-11
5.79803e-11
5.88329e-11
5.88898e-11
5.95151e-11
6.03109e-11
6.1334e-11
6.14477e-11
6.21299e-11
6.2812e-11
6.29825e-11
6.45173e-11
6.41194e-11
6.34941e-11
6.45741e-11
6.54268e-11
6.68479e-11
6.71889e-11
6.73026e-11
6.71321e-11
6.753e-11
6.69615e-11
6.6791e-11
6.61657e-11
6.58815e-11
6.52562e-11
6.51426e-11
6.50857e-11
6.42899e-11
6.52562e-11
6.51994e-11
6.54836e-11
6.57678e-11
6.45741e-11
6.52562e-11
6.45173e-11
6.49152e-11
6.41194e-11
6.32099e-11
6.23572e-11
6.1732e-11
6.06519e-11
6.07656e-11
6.05951e-11
5.95151e-11
5.88329e-11
5.78098e-11
5.65592e-11
5.6616e-11
5.61045e-11
5.49107e-11
5.33191e-11
5.29781e-11
5.20117e-11
5.10454e-11
5.0477e-11
4.93401e-11
4.82601e-11
4.75211e-11
4.82032e-11
4.74074e-11
4.75779e-11
4.74074e-11
4.71232e-11
4.64979e-11
4.66116e-11
4.71232e-11
4.69527e-11
4.75779e-11
4.88285e-11
4.88285e-11
4.98517e-11
5.11022e-11
5.05906e-11
5.14433e-11
5.23528e-11
5.22959e-11
5.23528e-11
5.3376e-11
5.39444e-11
5.48539e-11
5.61613e-11
5.67866e-11
5.71845e-11
5.83782e-11
5.87193e-11
5.9174e-11
6.07088e-11
6.20162e-11
6.25278e-11
6.32667e-11
6.37783e-11
6.45173e-11
6.54836e-11
6.60521e-11
6.59952e-11
6.65636e-11
6.71889e-11
6.69047e-11
6.753e-11
6.80984e-11
6.88942e-11
6.9349e-11
6.98606e-11
7.12816e-11
7.24754e-11
7.34985e-11
7.39533e-11
7.41807e-11
7.37828e-11
7.34417e-11
7.3328e-11
7.25322e-11
7.19069e-11
7.20775e-11
7.08837e-11
6.98037e-11
6.86668e-11
6.83258e-11
6.74163e-11
6.69047e-11
6.58247e-11
6.53699e-11
6.44604e-11
6.40057e-11
6.34941e-11
6.24709e-11
6.25278e-11
6.19593e-11
6.04246e-11
5.92877e-11
5.88329e-11
5.83213e-11
5.94014e-11
5.87761e-11
5.93445e-11
5.96287e-11
5.97993e-11
6.05951e-11
6.1732e-11
6.3153e-11
6.37215e-11
6.48015e-11
6.52562e-11
6.58815e-11
6.59952e-11
6.63363e-11
6.60521e-11
6.55973e-11
6.5711e-11
6.6791e-11
6.61089e-11
6.58247e-11
6.61657e-11
6.59952e-11
6.60521e-11
6.61089e-11
6.62794e-11
6.61657e-11
6.55973e-11
6.48583e-11
6.44036e-11
6.39488e-11
6.35509e-11
6.29825e-11
6.27551e-11
6.17888e-11
6.11067e-11
6.04814e-11
5.9913e-11
5.99698e-11
5.95151e-11
5.88329e-11
5.78098e-11
5.76392e-11
5.69003e-11
5.63318e-11
5.61613e-11
5.50244e-11
5.38876e-11
5.3717e-11
5.31486e-11
5.31486e-11
5.33191e-11
5.36602e-11
5.32054e-11
5.21823e-11
5.14433e-11
5.03064e-11
4.93969e-11
4.89422e-11
4.83737e-11
4.74074e-11
4.72369e-11
4.64979e-11
4.59295e-11
4.51337e-11
4.46789e-11
4.34284e-11
4.29168e-11
4.2462e-11
4.21778e-11
4.2121e-11
4.18936e-11
4.2121e-11
4.18368e-11
4.20073e-11
4.09841e-11
4.14957e-11
4.20641e-11
4.25757e-11
4.29168e-11
4.37126e-11
4.4281e-11
4.54179e-11
4.50768e-11
4.56453e-11
4.72369e-11
4.74643e-11
4.82601e-11
4.95675e-11
5.05338e-11
5.08749e-11
5.12159e-11
5.1557e-11
5.21254e-11
5.31486e-11
5.4456e-11
5.40012e-11
5.60476e-11
5.65024e-11
5.67297e-11
5.70139e-11
5.75824e-11
5.79234e-11
5.85487e-11
5.84919e-11
5.71845e-11
5.69571e-11
5.6275e-11
5.57634e-11
5.49107e-11
5.43992e-11
5.40012e-11
5.34897e-11
5.26938e-11
5.17844e-11
5.14433e-11
5.02496e-11
4.92264e-11
4.84306e-11
4.7919e-11
4.7919e-11
4.78053e-11
4.67821e-11
4.63842e-11
4.57021e-11
4.49063e-11
4.38831e-11
4.41105e-11
4.34284e-11
4.37126e-11
4.26326e-11
4.18368e-11
4.13252e-11
4.09841e-11
4.06999e-11
4.01883e-11
4.01315e-11
4.01315e-11
4.10978e-11
4.17231e-11
4.28031e-11
4.46221e-11
4.53042e-11
4.47926e-11
4.52474e-11
4.61569e-11
4.60432e-11
4.64411e-11
4.69527e-11
4.76348e-11
4.84306e-11
4.96811e-11
5.01927e-11
5.00791e-11
5.09317e-11
5.17844e-11
5.24096e-11
5.31486e-11
5.39444e-11
5.37739e-11
5.37739e-11
5.47402e-11
5.46834e-11
5.52518e-11
5.61045e-11
5.70139e-11
5.74687e-11
5.79234e-11
5.8094e-11
5.70708e-11
5.65592e-11
5.65592e-11
5.5536e-11
5.50244e-11
5.4456e-11
5.39444e-11
5.3376e-11
5.29212e-11
5.22959e-11
5.22391e-11
5.16138e-11
5.12159e-11
5.01359e-11
5.04201e-11
4.96243e-11
4.80327e-11
4.82601e-11
4.69527e-11
4.6839e-11
4.61e-11
4.57021e-11
4.55316e-11
4.45652e-11
4.45084e-11
4.37694e-11
4.26326e-11
4.16662e-11
4.20641e-11
4.06999e-11
4.04157e-11
4.04725e-11
4.06999e-11
4.05862e-11
3.93925e-11
3.84262e-11
3.75167e-11
3.69482e-11
3.63798e-11
3.63229e-11
3.71756e-11
3.75735e-11
3.79714e-11
3.81419e-11
3.83125e-11
3.93356e-11
3.85967e-11
3.98472e-11
4.02451e-11
4.10978e-11
4.22347e-11
4.28031e-11
4.34852e-11
4.46221e-11
4.45084e-11
4.57021e-11
4.64411e-11
4.76348e-11
4.76348e-11
4.76916e-11
4.82601e-11
4.82601e-11
4.7919e-11
4.7919e-11
4.66684e-11
4.62705e-11
4.58158e-11
4.54179e-11
4.47358e-11
4.39968e-11
4.38831e-11
4.38831e-11
4.38831e-11
4.33715e-11
4.33715e-11
4.28031e-11
4.16094e-11
4.09273e-11
4.01883e-11
3.97904e-11
3.93356e-11
3.85398e-11
3.89946e-11
3.81988e-11
3.7403e-11
3.79146e-11
3.70051e-11
3.63798e-11
3.50724e-11
3.50155e-11
3.54134e-11
3.59819e-11
3.67777e-11
3.6664e-11
3.72324e-11
3.76872e-11
3.79146e-11
3.93356e-11
3.99609e-11
4.09273e-11
4.18368e-11
4.22347e-11
4.28599e-11
4.35421e-11
4.45084e-11
4.51905e-11
4.56453e-11
4.60432e-11
4.66116e-11
4.82032e-11
4.87148e-11
4.96811e-11
5.01927e-11
5.0477e-11
5.13296e-11
5.13296e-11
5.13296e-11
5.20686e-11
5.16138e-11
5.21823e-11
5.22959e-11
5.25233e-11
5.2637e-11
5.20117e-11
5.15001e-11
5.07612e-11
4.99654e-11
4.88853e-11
4.78053e-11
4.70664e-11
4.62137e-11
4.62137e-11
4.54179e-11
4.43379e-11
4.33715e-11
4.25189e-11
4.17799e-11
4.14389e-11
4.06999e-11
3.90514e-11
3.83693e-11
3.75735e-11
3.71756e-11
3.68345e-11
3.66072e-11
3.62661e-11
3.71188e-11
3.58682e-11
3.60956e-11
3.58682e-11
3.45608e-11
3.39355e-11
3.37081e-11
3.35376e-11
3.29123e-11
3.27418e-11
3.27418e-11
3.24576e-11
3.22871e-11
3.22302e-11
3.18323e-11
3.22302e-11
3.22302e-11
3.18323e-11
3.22302e-11
3.18892e-11
3.25713e-11
3.34808e-11
3.44471e-11
3.43334e-11
3.4845e-11
3.58114e-11
3.56977e-11
3.64366e-11
3.78577e-11
3.88241e-11
3.92788e-11
3.89946e-11
3.99609e-11
4.04157e-11
4.09841e-11
4.04157e-11
4.0643e-11
4.10409e-11
4.14957e-11
4.22915e-11
4.17231e-11
4.17231e-11
4.13252e-11
4.04157e-11
3.97904e-11
3.99041e-11
3.97335e-11
3.95062e-11
3.88241e-11
3.81419e-11
3.76872e-11
3.78577e-11
3.73461e-11
3.65503e-11
3.68914e-11
3.72893e-11
3.74598e-11
3.71756e-11
3.7403e-11
3.81988e-11
3.82556e-11
3.91651e-11
3.98472e-11
4.06999e-11
4.09273e-11
4.09841e-11
4.28031e-11
4.38263e-11
4.47926e-11
4.48495e-11
4.50768e-11
4.66116e-11
4.76916e-11
4.84306e-11
4.75211e-11
4.71232e-11
4.76916e-11
4.83169e-11
4.75211e-11
4.79758e-11
4.82601e-11
4.74643e-11
4.66684e-11
4.58726e-11
4.52474e-11
4.49631e-11
4.47926e-11
4.394e-11
4.30873e-11
4.22915e-11
4.18368e-11
4.1382e-11
4.05294e-11
3.93925e-11
3.9222e-11
3.88809e-11
3.84262e-11
3.80851e-11
3.67777e-11
3.66072e-11
3.58114e-11
3.45608e-11
3.42766e-11
3.30829e-11
3.29692e-11
3.26281e-11
3.18892e-11
2.99565e-11
2.94449e-11
2.82512e-11
2.77964e-11
2.67733e-11
2.62048e-11
2.59774e-11
2.51816e-11
2.46132e-11
2.45564e-11
2.42153e-11
2.38742e-11
2.34195e-11
2.30784e-11
2.36469e-11
2.42153e-11
2.46132e-11
2.42153e-11
2.39879e-11
2.34763e-11
2.29079e-11
2.251e-11
2.14868e-11
2.08047e-11
2.13163e-11
2.1771e-11
2.19416e-11
2.23395e-11
2.21121e-11
2.09184e-11
2.10889e-11
2.04636e-11
2.01794e-11
1.9611e-11
1.85878e-11
1.83036e-11
1.83036e-11
1.95541e-11
1.90994e-11
1.94973e-11
1.9952e-11
2.00657e-11
1.93836e-11
1.94404e-11
1.97247e-11
2.10321e-11
2.02363e-11
2.00089e-11
2.05773e-11
2.09184e-11
2.18279e-11
2.29647e-11
2.42721e-11
2.50111e-11
2.49543e-11
2.56364e-11
2.64322e-11
2.72848e-11
2.92175e-11
3.07523e-11
3.1946e-11
3.31397e-11
3.41629e-11
3.47313e-11
3.46176e-11
3.54703e-11
3.58114e-11
3.50155e-11
3.60956e-11
3.69482e-11
3.69482e-11
3.67208e-11
3.69482e-11
3.75735e-11
3.67777e-11
3.5925e-11
3.58682e-11
3.49019e-11
3.38218e-11
3.3026e-11
3.24007e-11
3.18323e-11
3.13207e-11
3.0866e-11
3.10934e-11
3.12639e-11
3.02407e-11
3.05249e-11
3.02407e-11
2.94449e-11
2.87059e-11
2.75691e-11
2.65459e-11
2.51816e-11
2.4329e-11
2.359e-11
2.22258e-11
2.18279e-11
2.10321e-11
1.97247e-11
1.93268e-11
1.8531e-11
1.85878e-11
1.85878e-11
1.84741e-11
1.8872e-11
1.94404e-11
1.96678e-11
2.03499e-11
2.08615e-11
2.18847e-11
2.22826e-11
2.25668e-11
2.42153e-11
2.56932e-11
2.6489e-11
2.74554e-11
2.81375e-11
2.85922e-11
2.9388e-11
3.00702e-11
3.1207e-11
3.08091e-11
3.14913e-11
3.23439e-11
3.2685e-11
3.22302e-11
3.14913e-11
3.1946e-11
3.13776e-11
3.10365e-11
3.07523e-11
3.07523e-11
3.06954e-11
2.98996e-11
2.93312e-11
2.91038e-11
2.87059e-11