/*--------------------------------*- C++ -*----------------------------------*\
| =========                 |                                                 |
| \\      /  F ield         | OpenFOAM: The Open Source CFD Toolbox           |
|  \\    /   O peration     | Version:  4.0                                   |
|   \\  /    A nd           | Web:      www.OpenFOAM.org                      |
|    \\/     M anipulation  |                                                 |
\*---------------------------------------------------------------------------*/
FoamFile
{
    version     2.0;
    format      ascii;
    class       volVectorField;
    location    "0.006";
    object      U;
}
// * * * * * * * * * * * * * * * * * * * * * * * * * * * * * * * * * * * * * //

dimensions      [0 1 -1 0 0 0 0];

internalField   nonuniform List<vector> 
10000
(
(-3.50095e-13 0 0)
(-8.75238e-14 0 0)
(-1.6046e-13 0 0)
(-1.02111e-13 0 0)
(-1.75048e-13 0 0)
(-3.20921e-13 0 0)
(-4.81381e-13 0 0)
(-4.37619e-13 0 0)
(-8.02302e-13 0 0)
(-6.85603e-13 0 0)
(-1.16698e-12 0 0)
(-1.40038e-12 0 0)
(-1.57543e-12 0 0)
(-1.61919e-12 0 0)
(-1.64836e-12 0 0)
(-1.89635e-12 0 0)
(-2.17351e-12 0 0)
(-1.88176e-12 0 0)
(-2.4069e-12 0 0)
(-2.02763e-12 0 0)
(-2.29021e-12 0 0)
(-2.15892e-12 0 0)
(-2.20268e-12 0 0)
(-2.01305e-12 0 0)
(-2.24644e-12 0 0)
(-1.86717e-12 0 0)
(-2.1881e-12 0 0)
(-1.80883e-12 0 0)
(-1.67754e-12 0 0)
(-1.59002e-12 0 0)
(-1.89635e-12 0 0)
(-1.41497e-12 0 0)
(-1.838e-12 0 0)
(-1.79424e-12 0 0)
(-1.76506e-12 0 0)
(-1.51708e-12 0 0)
(-1.54625e-12 0 0)
(-1.18157e-12 0 0)
(-1.37121e-12 0 0)
(-1.29827e-12 0 0)
(-1.41497e-12 0 0)
(-9.19e-13 0 0)
(-1.28368e-12 0 0)
(-7.87714e-13 0 0)
(-1.00652e-12 0 0)
(-6.12667e-13 0 0)
(-7.14778e-13 0 0)
(-5.68905e-13 0 0)
(-3.35508e-13 0 0)
(-4.66794e-13 0 0)
(-2.77159e-13 0 0)
(-4.66794e-13 0 0)
(-4.52206e-13 0 0)
(-7.73127e-13 0 0)
(-6.41841e-13 0 0)
(-8.46063e-13 0 0)
(-6.85603e-13 0 0)
(-7.0019e-13 0 0)
(-4.37619e-13 0 0)
(-6.85603e-13 0 0)
(-3.93857e-13 0 0)
(-7.29365e-13 0 0)
(-4.52206e-13 0 0)
(-5.98079e-13 0 0)
(-4.66794e-13 0 0)
(-4.95968e-13 0 0)
(-5.10556e-13 0 0)
(-4.81381e-13 0 0)
(-3.93857e-13 0 0)
(-7.29365e-14 0 0)
(-2.04222e-13 0 0)
(3.50185e-25 0 0)
(1.75048e-13 0 0)
(4.08444e-13 0 0)
(8.16889e-13 0 0)
(5.98079e-13 0 0)
(9.77349e-13 0 0)
(6.12667e-13 0 0)
(7.87714e-13 0 0)
(7.87714e-13 0 0)
(1.31286e-12 0 0)
(9.62762e-13 0 0)
(1.67754e-12 0 0)
(1.25451e-12 0 0)
(1.77965e-12 0 0)
(1.59002e-12 0 0)
(1.86717e-12 0 0)
(1.32744e-12 0 0)
(1.70671e-12 0 0)
(9.77349e-13 0 0)
(1.61919e-12 0 0)
(1.0357e-12 0 0)
(1.47332e-12 0 0)
(8.60651e-13 0 0)
(1.28368e-12 0 0)
(1.13781e-12 0 0)
(1.29827e-12 0 0)
(1.29827e-12 0 0)
(1.50249e-12 0 0)
(1.21075e-12 0 0)
(1.57543e-12 0 0)
(1.12322e-12 0 0)
(1.21075e-12 0 0)
(1.25451e-12 0 0)
(1.19616e-12 0 0)
(1.0357e-12 0 0)
(9.77349e-13 0 0)
(7.5854e-13 0 0)
(3.64683e-13 0 0)
(5.83492e-13 0 0)
(2.1881e-13 0 0)
(3.93857e-13 0 0)
(-1.45873e-14 0 0)
(3.50095e-13 0 0)
(5.83492e-14 0 0)
(3.20921e-13 0 0)
(-2.91746e-14 0 0)
(2.91746e-13 0 0)
(2.91746e-14 0 0)
(-2.91746e-14 0 0)
(1.02111e-13 0 0)
(5.83492e-14 0 0)
(-1.02111e-13 0 0)
(-8.75238e-14 0 0)
(4.37619e-14 0 0)
(2.91746e-14 0 0)
(1.31286e-13 0 0)
(2.91746e-13 0 0)
(5.3973e-13 0 0)
(2.47984e-13 0 0)
(9.04413e-13 0 0)
(5.68905e-13 0 0)
(1.13781e-12 0 0)
(5.98079e-13 0 0)
(1.21075e-12 0 0)
(6.41841e-13 0 0)
(1.59002e-12 0 0)
(1.00652e-12 0 0)
(1.96929e-12 0 0)
(1.32744e-12 0 0)
(2.24644e-12 0 0)
(1.88176e-12 0 0)
(2.46525e-12 0 0)
(2.49443e-12 0 0)
(2.6403e-12 0 0)
(2.31938e-12 0 0)
(2.85911e-12 0 0)
(2.50902e-12 0 0)
(3.15086e-12 0 0)
(2.71324e-12 0 0)
(2.88829e-12 0 0)
(2.59654e-12 0 0)
(3.18003e-12 0 0)
(2.4069e-12 0 0)
(2.757e-12 0 0)
(2.66948e-12 0 0)
(2.58195e-12 0 0)
(2.17351e-12 0 0)
(2.55278e-12 0 0)
(1.88176e-12 0 0)
(2.17351e-12 0 0)
(1.86717e-12 0 0)
(1.99846e-12 0 0)
(1.45873e-12 0 0)
(1.6046e-12 0 0)
(1.25451e-12 0 0)
(1.35662e-12 0 0)
(1.21075e-12 0 0)
(1.02111e-12 0 0)
(1.07946e-12 0 0)
(7.14778e-13 0 0)
(7.0019e-13 0 0)
(6.85603e-13 0 0)
(7.43952e-13 0 0)
(3.64683e-13 0 0)
(7.5854e-13 0 0)
(2.77159e-13 0 0)
(4.81381e-13 0 0)
(3.64683e-13 0 0)
(5.25143e-13 0 0)
(3.35508e-13 0 0)
(5.98079e-13 0 0)
(6.41841e-13 0 0)
(7.87714e-13 0 0)
(4.37619e-13 0 0)
(6.27254e-13 0 0)
(5.10556e-13 0 0)
(5.98079e-13 0 0)
(4.23032e-13 0 0)
(1.6046e-13 0 0)
(4.08444e-13 0 0)
(1.6046e-13 0 0)
(3.64683e-13 0 0)
(3.64683e-13 0 0)
(4.81381e-13 0 0)
(2.91746e-13 0 0)
(5.25143e-13 0 0)
(4.23032e-13 0 0)
(5.98079e-13 0 0)
(5.10556e-13 0 0)
(4.66794e-13 0 0)
(4.95968e-13 0 0)
(4.37619e-13 0 0)
(3.93857e-13 0 0)
(4.81381e-13 0 0)
(2.33397e-13 0 0)
(2.04222e-13 0 0)
(4.37619e-14 0 0)
(1.31286e-13 0 0)
(-1.89635e-13 0 0)
(2.62571e-13 0 0)
(2.91746e-14 0 0)
(1.16698e-13 0 0)
(2.33397e-13 0 0)
(5.3973e-13 0 0)
(7.43952e-13 0 0)
(9.91936e-13 0 0)
(1.07946e-12 0 0)
(1.25451e-12 0 0)
(1.21075e-12 0 0)
(1.53167e-12 0 0)
(1.32744e-12 0 0)
(1.73589e-12 0 0)
(1.77965e-12 0 0)
(1.64836e-12 0 0)
(2.05681e-12 0 0)
(1.92552e-12 0 0)
(2.02763e-12 0 0)
(2.15892e-12 0 0)
(1.77965e-12 0 0)
(1.82341e-12 0 0)
(1.75048e-12 0 0)
(1.80883e-12 0 0)
(1.79424e-12 0 0)
(1.838e-12 0 0)
(2.10057e-12 0 0)
(2.05681e-12 0 0)
(2.21727e-12 0 0)
(1.77965e-12 0 0)
(1.88176e-12 0 0)
(1.75048e-12 0 0)
(1.54625e-12 0 0)
(1.96929e-12 0 0)
(1.6046e-12 0 0)
(2.04222e-12 0 0)
(1.76506e-12 0 0)
(2.15892e-12 0 0)
(1.92552e-12 0 0)
(2.42149e-12 0 0)
(2.15892e-12 0 0)
(2.49443e-12 0 0)
(2.50902e-12 0 0)
(2.36314e-12 0 0)
(2.4069e-12 0 0)
(2.11516e-12 0 0)
(2.37773e-12 0 0)
(2.08598e-12 0 0)
(2.46525e-12 0 0)
(1.94011e-12 0 0)
(2.47984e-12 0 0)
(1.76506e-12 0 0)
(2.56736e-12 0 0)
(2.11516e-12 0 0)
(2.6403e-12 0 0)
(2.36314e-12 0 0)
(2.68406e-12 0 0)
(2.96122e-12 0 0)
(2.93205e-12 0 0)
(2.9904e-12 0 0)
(2.9904e-12 0 0)
(3.06333e-12 0 0)
(3.5593e-12 0 0)
(3.20921e-12 0 0)
(4.15738e-12 0 0)
(3.73435e-12 0 0)
(4.30325e-12 0 0)
(3.74894e-12 0 0)
(4.65335e-12 0 0)
(3.85105e-12 0 0)
(4.79922e-12 0 0)
(4.27408e-12 0 0)
(4.84298e-12 0 0)
(3.86563e-12 0 0)
(4.88675e-12 0 0)
(4.15738e-12 0 0)
(4.39078e-12 0 0)
(4.15738e-12 0 0)
(4.28867e-12 0 0)
(3.82187e-12 0 0)
(4.11362e-12 0 0)
(3.41343e-12 0 0)
(3.60306e-12 0 0)
(2.97581e-12 0 0)
(3.13627e-12 0 0)
(2.68406e-12 0 0)
(2.62571e-12 0 0)
(2.49443e-12 0 0)
(2.31938e-12 0 0)
(2.12975e-12 0 0)
(2.21727e-12 0 0)
(1.92552e-12 0 0)
(2.15892e-12 0 0)
(1.88176e-12 0 0)
(1.838e-12 0 0)
(1.99846e-12 0 0)
(2.02763e-12 0 0)
(2.20268e-12 0 0)
(2.58195e-12 0 0)
(2.21727e-12 0 0)
(2.62571e-12 0 0)
(2.71324e-12 0 0)
(2.8737e-12 0 0)
(2.84452e-12 0 0)
(3.29673e-12 0 0)
(3.22379e-12 0 0)
(3.70517e-12 0 0)
(3.82187e-12 0 0)
(4.15738e-12 0 0)
(3.95316e-12 0 0)
(4.25949e-12 0 0)
(4.14279e-12 0 0)
(4.46371e-12 0 0)
(4.34702e-12 0 0)
(4.17197e-12 0 0)
(4.4783e-12 0 0)
(4.41995e-12 0 0)
(4.84298e-12 0 0)
(4.7117e-12 0 0)
(5.14932e-12 0 0)
(5.09097e-12 0 0)
(5.32436e-12 0 0)
(5.00344e-12 0 0)
(5.57235e-12 0 0)
(4.88675e-12 0 0)
(5.64529e-12 0 0)
(5.33895e-12 0 0)
(5.98079e-12 0 0)
(5.77657e-12 0 0)
(5.96621e-12 0 0)
(5.80575e-12 0 0)
(5.95162e-12 0 0)
(5.73281e-12 0 0)
(5.79116e-12 0 0)
(5.7474e-12 0 0)
(6.0829e-12 0 0)
(6.33089e-12 0 0)
(6.22878e-12 0 0)
(6.60805e-12 0 0)
(6.02455e-12 0 0)
(6.27254e-12 0 0)
(5.79116e-12 0 0)
(6.33089e-12 0 0)
(5.6307e-12 0 0)
(5.90786e-12 0 0)
(5.73281e-12 0 0)
(5.76198e-12 0 0)
(5.65987e-12 0 0)
(5.44106e-12 0 0)
(5.14932e-12 0 0)
(5.04721e-12 0 0)
(4.72629e-12 0 0)
(4.74087e-12 0 0)
(4.44913e-12 0 0)
(4.7117e-12 0 0)
(4.34702e-12 0 0)
(4.79922e-12 0 0)
(4.49289e-12 0 0)
(4.7117e-12 0 0)
(5.10556e-12 0 0)
(4.95968e-12 0 0)
(5.17849e-12 0 0)
(5.45565e-12 0 0)
(5.35354e-12 0 0)
(5.61611e-12 0 0)
(5.64529e-12 0 0)
(5.95162e-12 0 0)
(5.68905e-12 0 0)
(6.02455e-12 0 0)
(6.09749e-12 0 0)
(5.92244e-12 0 0)
(6.30171e-12 0 0)
(6.21419e-12 0 0)
(6.3163e-12 0 0)
(6.68098e-12 0 0)
(6.34548e-12 0 0)
(6.94355e-12 0 0)
(6.50594e-12 0 0)
(7.43952e-12 0 0)
(6.76851e-12 0 0)
(7.39576e-12 0 0)
(7.04567e-12 0 0)
(7.9209e-12 0 0)
(7.13319e-12 0 0)
(8.08136e-12 0 0)
(7.33741e-12 0 0)
(8.28559e-12 0 0)
(7.77503e-12 0 0)
(8.41687e-12 0 0)
(7.77503e-12 0 0)
(8.37311e-12 0 0)
(7.5854e-12 0 0)
(7.70209e-12 0 0)
(7.55622e-12 0 0)
(7.42494e-12 0 0)
(7.5854e-12 0 0)
(7.51246e-12 0 0)
(7.64375e-12 0 0)
(7.32282e-12 0 0)
(7.45411e-12 0 0)
(7.30824e-12 0 0)
(7.07484e-12 0 0)
(7.39576e-12 0 0)
(7.65833e-12 0 0)
(7.42494e-12 0 0)
(7.22071e-12 0 0)
(7.42494e-12 0 0)
(6.72475e-12 0 0)
(7.43952e-12 0 0)
(6.91438e-12 0 0)
(7.45411e-12 0 0)
(7.01649e-12 0 0)
(7.38117e-12 0 0)
(6.53511e-12 0 0)
(7.90632e-12 0 0)
(6.92897e-12 0 0)
(7.4687e-12 0 0)
(7.0019e-12 0 0)
(7.54163e-12 0 0)
(6.85603e-12 0 0)
(7.2353e-12 0 0)
(6.63722e-12 0 0)
(6.94355e-12 0 0)
(6.46217e-12 0 0)
(6.63722e-12 0 0)
(5.89327e-12 0 0)
(6.41841e-12 0 0)
(6.12667e-12 0 0)
(6.22878e-12 0 0)
(6.17043e-12 0 0)
(6.37465e-12 0 0)
(6.17043e-12 0 0)
(6.6664e-12 0 0)
(6.62263e-12 0 0)
(6.33089e-12 0 0)
(6.84144e-12 0 0)
(6.71016e-12 0 0)
(6.28713e-12 0 0)
(6.62263e-12 0 0)
(6.69557e-12 0 0)
(6.85603e-12 0 0)
(7.1186e-12 0 0)
(7.33741e-12 0 0)
(7.13319e-12 0 0)
(7.32282e-12 0 0)
(7.352e-12 0 0)
(7.27906e-12 0 0)
(7.49787e-12 0 0)
(7.65833e-12 0 0)
(7.38117e-12 0 0)
(7.55622e-12 0 0)
(7.2353e-12 0 0)
(7.96467e-12 0 0)
(7.24989e-12 0 0)
(7.97925e-12 0 0)
(7.57081e-12 0 0)
(7.71668e-12 0 0)
(7.86255e-12 0 0)
(8.12513e-12 0 0)
(8.1543e-12 0 0)
(8.46063e-12 0 0)
(8.3877e-12 0 0)
(8.46063e-12 0 0)
(8.69403e-12 0 0)
(8.78155e-12 0 0)
(8.46063e-12 0 0)
(8.72321e-12 0 0)
(8.8399e-12 0 0)
(8.53357e-12 0 0)
(8.92743e-12 0 0)
(8.78155e-12 0 0)
(8.76697e-12 0 0)
(8.78155e-12 0 0)
(8.76697e-12 0 0)
(8.54816e-12 0 0)
(8.66486e-12 0 0)
(8.13971e-12 0 0)
(8.0376e-12 0 0)
(7.87714e-12 0 0)
(7.55622e-12 0 0)
(7.81879e-12 0 0)
(7.57081e-12 0 0)
(7.22071e-12 0 0)
(7.14778e-12 0 0)
(6.25795e-12 0 0)
(6.87062e-12 0 0)
(5.35354e-12 0 0)
(6.56429e-12 0 0)
(5.25143e-12 0 0)
(5.96621e-12 0 0)
(5.48482e-12 0 0)
(5.79116e-12 0 0)
(4.94509e-12 0 0)
(6.12667e-12 0 0)
(5.32436e-12 0 0)
(5.96621e-12 0 0)
(5.70363e-12 0 0)
(6.28713e-12 0 0)
(5.45565e-12 0 0)
(6.33089e-12 0 0)
(6.06832e-12 0 0)
(6.37465e-12 0 0)
(6.73933e-12 0 0)
(7.20613e-12 0 0)
(7.06025e-12 0 0)
(7.81879e-12 0 0)
(7.61457e-12 0 0)
(8.34394e-12 0 0)
(7.81879e-12 0 0)
(8.76697e-12 0 0)
(8.37311e-12 0 0)
(8.78155e-12 0 0)
(8.82532e-12 0 0)
(8.62109e-12 0 0)
(8.85449e-12 0 0)
(8.8399e-12 0 0)
(8.67944e-12 0 0)
(8.89825e-12 0 0)
(8.73779e-12 0 0)
(8.76697e-12 0 0)
(8.48981e-12 0 0)
(8.54816e-12 0 0)
(8.8399e-12 0 0)
(8.3877e-12 0 0)
(8.88367e-12 0 0)
(8.41687e-12 0 0)
(8.65027e-12 0 0)
(8.56275e-12 0 0)
(8.1543e-12 0 0)
(8.13971e-12 0 0)
(8.18348e-12 0 0)
(8.51898e-12 0 0)
(7.68751e-12 0 0)
(8.59192e-12 0 0)
(7.76044e-12 0 0)
(8.65027e-12 0 0)
(7.81879e-12 0 0)
(8.24182e-12 0 0)
(7.26448e-12 0 0)
(8.0376e-12 0 0)
(7.20613e-12 0 0)
(7.87714e-12 0 0)
(7.0019e-12 0 0)
(7.29365e-12 0 0)
(7.06025e-12 0 0)
(7.20613e-12 0 0)
(6.95814e-12 0 0)
(7.33741e-12 0 0)
(7.04567e-12 0 0)
(7.24989e-12 0 0)
(6.52052e-12 0 0)
(7.19154e-12 0 0)
(6.12667e-12 0 0)
(7.39576e-12 0 0)
(6.17043e-12 0 0)
(7.36659e-12 0 0)
(6.3163e-12 0 0)
(7.33741e-12 0 0)
(6.76851e-12 0 0)
(7.26448e-12 0 0)
(6.81227e-12 0 0)
(7.70209e-12 0 0)
(6.92897e-12 0 0)
(7.38117e-12 0 0)
(7.41035e-12 0 0)
(7.54163e-12 0 0)
(7.5854e-12 0 0)
(7.77503e-12 0 0)
(7.78962e-12 0 0)
(8.12513e-12 0 0)
(8.30017e-12 0 0)
(8.02302e-12 0 0)
(8.40228e-12 0 0)
(8.56275e-12 0 0)
(8.54816e-12 0 0)
(8.72321e-12 0 0)
(8.97119e-12 0 0)
(9.00036e-12 0 0)
(8.98578e-12 0 0)
(9.02954e-12 0 0)
(9.05871e-12 0 0)
(9.01495e-12 0 0)
(9.48175e-12 0 0)
(9.20459e-12 0 0)
(9.56927e-12 0 0)
(9.81725e-12 0 0)
(1.03278e-11 0 0)
(1.00069e-11 0 0)
(1.08384e-11 0 0)
(1.11447e-11 0 0)
(1.07654e-11 0 0)
(1.17282e-11 0 0)
(1.09405e-11 0 0)
(1.14219e-11 0 0)
(1.13635e-11 0 0)
(1.1451e-11 0 0)
(1.11301e-11 0 0)
(1.18886e-11 0 0)
(1.10718e-11 0 0)
(1.15531e-11 0 0)
(1.08967e-11 0 0)
(1.10863e-11 0 0)
(1.08821e-11 0 0)
(1.14656e-11 0 0)
(1.08967e-11 0 0)
(1.1451e-11 0 0)
(1.09551e-11 0 0)
(1.13927e-11 0 0)
(1.14948e-11 0 0)
(1.07363e-11 0 0)
(1.1451e-11 0 0)
(1.0605e-11 0 0)
(1.15386e-11 0 0)
(1.03132e-11 0 0)
(1.11301e-11 0 0)
(1.00361e-11 0 0)
(1.0532e-11 0 0)
(1.02695e-11 0 0)
(1.02111e-11 0 0)
(1.02403e-11 0 0)
(1.00652e-11 0 0)
(9.91936e-12 0 0)
(9.89019e-12 0 0)
(1.00215e-11 0 0)
(9.4234e-12 0 0)
(9.19e-12 0 0)
(8.79614e-12 0 0)
(8.72321e-12 0 0)
(8.5044e-12 0 0)
(8.12513e-12 0 0)
(8.28559e-12 0 0)
(8.1543e-12 0 0)
(7.96467e-12 0 0)
(8.06678e-12 0 0)
(8.3877e-12 0 0)
(8.25641e-12 0 0)
(8.35852e-12 0 0)
(8.24182e-12 0 0)
(8.37311e-12 0 0)
(8.16889e-12 0 0)
(8.75238e-12 0 0)
(8.12513e-12 0 0)
(8.91284e-12 0 0)
(8.41687e-12 0 0)
(8.9566e-12 0 0)
(8.62109e-12 0 0)
(8.89825e-12 0 0)
(8.56275e-12 0 0)
(8.59192e-12 0 0)
(8.31476e-12 0 0)
(8.73779e-12 0 0)
(8.70862e-12 0 0)
(8.67944e-12 0 0)
(8.78155e-12 0 0)
(8.70862e-12 0 0)
(8.46063e-12 0 0)
(8.56275e-12 0 0)
(8.37311e-12 0 0)
(8.82532e-12 0 0)
(8.35852e-12 0 0)
(9.20459e-12 0 0)
(8.3877e-12 0 0)
(9.67138e-12 0 0)
(9.17541e-12 0 0)
(1.00652e-11 0 0)
(9.02954e-12 0 0)
(9.90478e-12 0 0)
(9.11706e-12 0 0)
(1.00215e-11 0 0)
(9.24835e-12 0 0)
(9.94854e-12 0 0)
(8.92743e-12 0 0)
(1.01819e-11 0 0)
(9.46716e-12 0 0)
(9.97771e-12 0 0)
(1.01236e-11 0 0)
(1.02111e-11 0 0)
(1.01965e-11 0 0)
(1.04883e-11 0 0)
(1.05029e-11 0 0)
(1.11739e-11 0 0)
(1.09551e-11 0 0)
(1.18303e-11 0 0)
(1.13927e-11 0 0)
(1.23409e-11 0 0)
(1.15531e-11 0 0)
(1.25743e-11 0 0)
(1.21512e-11 0 0)
(1.27785e-11 0 0)
(1.18886e-11 0 0)
(1.24284e-11 0 0)
(1.19324e-11 0 0)
(1.21075e-11 0 0)
(1.24284e-11 0 0)
(1.24138e-11 0 0)
(1.21366e-11 0 0)
(1.24576e-11 0 0)
(1.18886e-11 0 0)
(1.23117e-11 0 0)
(1.18011e-11 0 0)
(1.22825e-11 0 0)
(1.20491e-11 0 0)
(1.23846e-11 0 0)
(1.23846e-11 0 0)
(1.22679e-11 0 0)
(1.20491e-11 0 0)
(1.19908e-11 0 0)
(1.20637e-11 0 0)
(1.17136e-11 0 0)
(1.13635e-11 0 0)
(1.12322e-11 0 0)
(1.11301e-11 0 0)
(1.1451e-11 0 0)
(1.11593e-11 0 0)
(1.12176e-11 0 0)
(1.09988e-11 0 0)
(1.1203e-11 0 0)
(1.08238e-11 0 0)
(1.07654e-11 0 0)
(1.05612e-11 0 0)
(1.03278e-11 0 0)
(1.02111e-11 0 0)
(9.91936e-12 0 0)
(9.71514e-12 0 0)
(9.49633e-12 0 0)
(9.49633e-12 0 0)
(9.55468e-12 0 0)
(9.55468e-12 0 0)
(9.49633e-12 0 0)
(9.72973e-12 0 0)
(9.81725e-12 0 0)
(9.56927e-12 0 0)
(1.00069e-11 0 0)
(9.64221e-12 0 0)
(1.00944e-11 0 0)
(9.72973e-12 0 0)
(1.01382e-11 0 0)
(9.9923e-12 0 0)
(1.01965e-11 0 0)
(1.03424e-11 0 0)
(1.05612e-11 0 0)
(1.02986e-11 0 0)
(1.05466e-11 0 0)
(1.03862e-11 0 0)
(1.03716e-11 0 0)
(1.01673e-11 0 0)
(1.01236e-11 0 0)
(1.0532e-11 0 0)
(1.01673e-11 0 0)
(1.04883e-11 0 0)
(9.8756e-12 0 0)
(1.05029e-11 0 0)
(9.56927e-12 0 0)
(1.05612e-11 0 0)
(9.67138e-12 0 0)
(1.04737e-11 0 0)
(9.8756e-12 0 0)
(1.05758e-11 0 0)
(1.00798e-11 0 0)
(1.078e-11 0 0)
(1.04883e-11 0 0)
(1.07946e-11 0 0)
(1.05029e-11 0 0)
(1.12322e-11 0 0)
(1.06341e-11 0 0)
(1.10572e-11 0 0)
(1.12322e-11 0 0)
(1.11301e-11 0 0)
(1.1451e-11 0 0)
(1.12176e-11 0 0)
(1.15969e-11 0 0)
(1.14802e-11 0 0)
(1.20053e-11 0 0)
(1.18011e-11 0 0)
(1.21075e-11 0 0)
(1.18011e-11 0 0)
(1.2443e-11 0 0)
(1.22533e-11 0 0)
(1.22096e-11 0 0)
(1.18157e-11 0 0)
(1.20637e-11 0 0)
(1.1772e-11 0 0)
(1.14364e-11 0 0)
(1.18449e-11 0 0)
(1.12176e-11 0 0)
(1.15823e-11 0 0)
(1.04591e-11 0 0)
(1.12176e-11 0 0)
(1.02111e-11 0 0)
(1.03716e-11 0 0)
(9.97771e-12 0 0)
(1.04007e-11 0 0)
(9.97771e-12 0 0)
(1.05612e-11 0 0)
(1.03132e-11 0 0)
(9.96313e-12 0 0)
(1.02549e-11 0 0)
(9.83184e-12 0 0)
(9.71514e-12 0 0)
(9.46716e-12 0 0)
(9.49633e-12 0 0)
(9.74432e-12 0 0)
(9.94854e-12 0 0)
(9.90478e-12 0 0)
(1.08821e-11 0 0)
(1.03278e-11 0 0)
(1.07217e-11 0 0)
(1.11593e-11 0 0)
(1.0532e-11 0 0)
(1.11155e-11 0 0)
(1.11009e-11 0 0)
(1.09988e-11 0 0)
(1.04299e-11 0 0)
(1.12614e-11 0 0)
(1.07654e-11 0 0)
(1.14219e-11 0 0)
(1.11885e-11 0 0)
(1.14656e-11 0 0)
(1.14802e-11 0 0)
(1.17865e-11 0 0)
(1.15531e-11 0 0)
(1.20929e-11 0 0)
(1.19324e-11 0 0)
(1.25159e-11 0 0)
(1.22096e-11 0 0)
(1.24138e-11 0 0)
(1.26034e-11 0 0)
(1.28514e-11 0 0)
(1.31577e-11 0 0)
(1.34933e-11 0 0)
(1.33766e-11 0 0)
(1.41643e-11 0 0)
(1.38871e-11 0 0)
(1.39455e-11 0 0)
(1.39455e-11 0 0)
(1.38579e-11 0 0)
(1.43101e-11 0 0)
(1.41497e-11 0 0)
(1.45144e-11 0 0)
(1.4208e-11 0 0)
(1.396e-11 0 0)
(1.41934e-11 0 0)
(1.38579e-11 0 0)
(1.38579e-11 0 0)
(1.396e-11 0 0)
(1.38433e-11 0 0)
(1.35808e-11 0 0)
(1.3362e-11 0 0)
(1.34057e-11 0 0)
(1.31432e-11 0 0)
(1.35078e-11 0 0)
(1.28222e-11 0 0)
(1.32453e-11 0 0)
(1.27931e-11 0 0)
(1.32744e-11 0 0)
(1.29389e-11 0 0)
(1.34057e-11 0 0)
(1.30265e-11 0 0)
(1.29243e-11 0 0)
(1.26326e-11 0 0)
(1.2866e-11 0 0)
(1.27055e-11 0 0)
(1.32453e-11 0 0)
(1.25013e-11 0 0)
(1.32744e-11 0 0)
(1.24576e-11 0 0)
(1.29098e-11 0 0)
(1.2195e-11 0 0)
(1.26764e-11 0 0)
(1.22971e-11 0 0)
(1.22387e-11 0 0)
(1.25451e-11 0 0)
(1.25159e-11 0 0)
(1.21075e-11 0 0)
(1.22242e-11 0 0)
(1.16844e-11 0 0)
(1.22387e-11 0 0)
(1.17865e-11 0 0)
(1.21658e-11 0 0)
(1.21075e-11 0 0)
(1.24721e-11 0 0)
(1.237e-11 0 0)
(1.27201e-11 0 0)
(1.22096e-11 0 0)
(1.29243e-11 0 0)
(1.24867e-11 0 0)
(1.27201e-11 0 0)
(1.31577e-11 0 0)
(1.30994e-11 0 0)
(1.3114e-11 0 0)
(1.33182e-11 0 0)
(1.36683e-11 0 0)
(1.3289e-11 0 0)
(1.40184e-11 0 0)
(1.37412e-11 0 0)
(1.38288e-11 0 0)
(1.40038e-11 0 0)
(1.42518e-11 0 0)
(1.42518e-11 0 0)
(1.39309e-11 0 0)
(1.47332e-11 0 0)
(1.35516e-11 0 0)
(1.41351e-11 0 0)
(1.32015e-11 0 0)
(1.35662e-11 0 0)
(1.29098e-11 0 0)
(1.34933e-11 0 0)
(1.31869e-11 0 0)
(1.34933e-11 0 0)
(1.28222e-11 0 0)
(1.34641e-11 0 0)
(1.26326e-11 0 0)
(1.361e-11 0 0)
(1.29389e-11 0 0)
(1.3785e-11 0 0)
(1.34641e-11 0 0)
(1.35954e-11 0 0)
(1.34203e-11 0 0)
(1.40038e-11 0 0)
(1.34203e-11 0 0)
(1.41497e-11 0 0)
(1.3289e-11 0 0)
(1.44268e-11 0 0)
(1.3289e-11 0 0)
(1.44998e-11 0 0)
(1.32161e-11 0 0)
(1.43247e-11 0 0)
(1.32744e-11 0 0)
(1.37996e-11 0 0)
(1.32307e-11 0 0)
(1.38579e-11 0 0)
(1.30119e-11 0 0)
(1.39746e-11 0 0)
(1.29098e-11 0 0)
(1.33766e-11 0 0)
(1.35662e-11 0 0)
(1.35662e-11 0 0)
(1.33328e-11 0 0)
(1.32015e-11 0 0)
(1.34349e-11 0 0)
(1.31723e-11 0 0)
(1.38725e-11 0 0)
(1.35808e-11 0 0)
(1.37121e-11 0 0)
(1.38433e-11 0 0)
(1.40038e-11 0 0)
(1.43685e-11 0 0)
(1.45435e-11 0 0)
(1.51854e-11 0 0)
(1.50687e-11 0 0)
(1.53167e-11 0 0)
(1.54771e-11 0 0)
(1.57543e-11 0 0)
(1.57689e-11 0 0)
(1.57835e-11 0 0)
(1.58856e-11 0 0)
(1.63086e-11 0 0)
(1.65858e-11 0 0)
(1.69796e-11 0 0)
(1.62357e-11 0 0)
(1.69796e-11 0 0)
(1.6119e-11 0 0)
(1.6717e-11 0 0)
(1.69067e-11 0 0)
(1.67462e-11 0 0)
(1.61481e-11 0 0)
(1.68337e-11 0 0)
(1.60314e-11 0 0)
(1.66441e-11 0 0)
(1.56813e-11 0 0)
(1.62503e-11 0 0)
(1.54188e-11 0 0)
(1.58856e-11 0 0)
(1.52583e-11 0 0)
(1.58564e-11 0 0)
(1.51124e-11 0 0)
(1.57689e-11 0 0)
(1.50249e-11 0 0)
(1.59731e-11 0 0)
(1.53021e-11 0 0)
(1.64545e-11 0 0)
(1.58272e-11 0 0)
(1.64253e-11 0 0)
(1.63524e-11 0 0)
(1.64836e-11 0 0)
(1.67754e-11 0 0)
(1.63232e-11 0 0)
(1.70671e-11 0 0)
(1.59439e-11 0 0)
(1.70234e-11 0 0)
(1.54188e-11 0 0)
(1.67608e-11 0 0)
(1.52875e-11 0 0)
(1.68192e-11 0 0)
(1.51562e-11 0 0)
(1.66149e-11 0 0)
(1.46311e-11 0 0)
(1.63524e-11 0 0)
(1.48207e-11 0 0)
(1.59585e-11 0 0)
(1.53167e-11 0 0)
(1.55646e-11 0 0)
(1.50249e-11 0 0)
(1.53313e-11 0 0)
(1.48207e-11 0 0)
(1.50103e-11 0 0)
(1.48061e-11 0 0)
(1.42664e-11 0 0)
(1.46748e-11 0 0)
(1.44268e-11 0 0)
(1.41643e-11 0 0)
(1.45435e-11 0 0)
(1.47769e-11 0 0)
(1.44852e-11 0 0)
(1.50103e-11 0 0)
(1.45581e-11 0 0)
(1.53313e-11 0 0)
(1.50979e-11 0 0)
(1.58272e-11 0 0)
(1.57397e-11 0 0)
(1.59731e-11 0 0)
(1.58564e-11 0 0)
(1.66441e-11 0 0)
(1.60169e-11 0 0)
(1.63232e-11 0 0)
(1.58272e-11 0 0)
(1.64982e-11 0 0)
(1.62211e-11 0 0)
(1.65128e-11 0 0)
(1.62648e-11 0 0)
(1.64107e-11 0 0)
(1.62648e-11 0 0)
(1.60898e-11 0 0)
(1.6367e-11 0 0)
(1.59293e-11 0 0)
(1.66879e-11 0 0)
(1.53458e-11 0 0)
(1.63232e-11 0 0)
(1.47769e-11 0 0)
(1.61919e-11 0 0)
(1.49812e-11 0 0)
(1.6294e-11 0 0)
(1.55063e-11 0 0)
(1.59439e-11 0 0)
(1.59002e-11 0 0)
(1.54188e-11 0 0)
(1.60606e-11 0 0)
(1.50687e-11 0 0)
(1.56084e-11 0 0)
(1.5375e-11 0 0)
(1.56813e-11 0 0)
(1.5623e-11 0 0)
(1.60606e-11 0 0)
(1.63378e-11 0 0)
(1.6119e-11 0 0)
(1.60606e-11 0 0)
(1.63961e-11 0 0)
(1.63232e-11 0 0)
(1.62211e-11 0 0)
(1.65566e-11 0 0)
(1.65712e-11 0 0)
(1.69359e-11 0 0)
(1.68629e-11 0 0)
(1.69213e-11 0 0)
(1.64836e-11 0 0)
(1.71693e-11 0 0)
(1.62357e-11 0 0)
(1.64253e-11 0 0)
(1.61627e-11 0 0)
(1.64399e-11 0 0)
(1.63378e-11 0 0)
(1.679e-11 0 0)
(1.69796e-11 0 0)
(1.7461e-11 0 0)
(1.71255e-11 0 0)
(1.79132e-11 0 0)
(1.6965e-11 0 0)
(1.83654e-11 0 0)
(1.67754e-11 0 0)
(1.87009e-11 0 0)
(1.72714e-11 0 0)
(1.85405e-11 0 0)
(1.80007e-11 0 0)
(1.838e-11 0 0)
(1.82195e-11 0 0)
(1.90802e-11 0 0)
(1.87739e-11 0 0)
(1.88468e-11 0 0)
(1.90656e-11 0 0)
(1.87301e-11 0 0)
(1.91677e-11 0 0)
(1.87155e-11 0 0)
(1.90364e-11 0 0)
(1.87739e-11 0 0)
(1.90073e-11 0 0)
(1.81466e-11 0 0)
(1.89051e-11 0 0)
(1.80591e-11 0 0)
(1.82487e-11 0 0)
(1.7461e-11 0 0)
(1.76798e-11 0 0)
(1.73297e-11 0 0)
(1.70234e-11 0 0)
(1.70526e-11 0 0)
(1.69504e-11 0 0)
(1.69213e-11 0 0)
(1.67608e-11 0 0)
(1.71401e-11 0 0)
(1.679e-11 0 0)
(1.76215e-11 0 0)
(1.63815e-11 0 0)
(1.74026e-11 0 0)
(1.67608e-11 0 0)
(1.75193e-11 0 0)
(1.72276e-11 0 0)
(1.73005e-11 0 0)
(1.75193e-11 0 0)
(1.71838e-11 0 0)
(1.77236e-11 0 0)
(1.74318e-11 0 0)
(1.77382e-11 0 0)
(1.69504e-11 0 0)
(1.8132e-11 0 0)
(1.69067e-11 0 0)
(1.81028e-11 0 0)
(1.67462e-11 0 0)
(1.82779e-11 0 0)
(1.6965e-11 0 0)
(1.78694e-11 0 0)
(1.7213e-11 0 0)
(1.80299e-11 0 0)
(1.75485e-11 0 0)
(1.82341e-11 0 0)
(1.72568e-11 0 0)
(1.80007e-11 0 0)
(1.68192e-11 0 0)
(1.78549e-11 0 0)
(1.68921e-11 0 0)
(1.73881e-11 0 0)
(1.63086e-11 0 0)
(1.76944e-11 0 0)
(1.6294e-11 0 0)
(1.70671e-11 0 0)
(1.62503e-11 0 0)
(1.67754e-11 0 0)
(1.62065e-11 0 0)
(1.62211e-11 0 0)
(1.59877e-11 0 0)
(1.5798e-11 0 0)
(1.56813e-11 0 0)
(1.53458e-11 0 0)
(1.56084e-11 0 0)
(1.4952e-11 0 0)
(1.44852e-11 0 0)
(1.44123e-11 0 0)
(1.46456e-11 0 0)
(1.39455e-11 0 0)
(1.41934e-11 0 0)
(1.38579e-11 0 0)
(1.39163e-11 0 0)
(1.39163e-11 0 0)
(1.33182e-11 0 0)
(1.41789e-11 0 0)
(1.35954e-11 0 0)
(1.40038e-11 0 0)
(1.33766e-11 0 0)
(1.41789e-11 0 0)
(1.33766e-11 0 0)
(1.43977e-11 0 0)
(1.36975e-11 0 0)
(1.41497e-11 0 0)
(1.31723e-11 0 0)
(1.39746e-11 0 0)
(1.30265e-11 0 0)
(1.37996e-11 0 0)
(1.31286e-11 0 0)
(1.40184e-11 0 0)
(1.38725e-11 0 0)
(1.43247e-11 0 0)
(1.44852e-11 0 0)
(1.45581e-11 0 0)
(1.41934e-11 0 0)
(1.47623e-11 0 0)
(1.44998e-11 0 0)
(1.53896e-11 0 0)
(1.46165e-11 0 0)
(1.55063e-11 0 0)
(1.47769e-11 0 0)
(1.61044e-11 0 0)
(1.47332e-11 0 0)
(1.62648e-11 0 0)
(1.52e-11 0 0)
(1.66441e-11 0 0)
(1.54334e-11 0 0)
(1.72276e-11 0 0)
(1.56376e-11 0 0)
(1.71255e-11 0 0)
(1.56959e-11 0 0)
(1.73151e-11 0 0)
(1.63524e-11 0 0)
(1.71547e-11 0 0)
(1.65858e-11 0 0)
(1.73297e-11 0 0)
(1.64107e-11 0 0)
(1.72568e-11 0 0)
(1.64253e-11 0 0)
(1.71109e-11 0 0)
(1.65858e-11 0 0)
(1.66149e-11 0 0)
(1.60752e-11 0 0)
(1.63378e-11 0 0)
(1.61627e-11 0 0)
(1.59439e-11 0 0)
(1.57543e-11 0 0)
(1.59147e-11 0 0)
(1.56522e-11 0 0)
(1.61481e-11 0 0)
(1.56959e-11 0 0)
(1.61627e-11 0 0)
(1.50979e-11 0 0)
(1.58856e-11 0 0)
(1.49082e-11 0 0)
(1.59439e-11 0 0)
(1.53604e-11 0 0)
(1.58856e-11 0 0)
(1.54042e-11 0 0)
(1.61336e-11 0 0)
(1.57251e-11 0 0)
(1.64107e-11 0 0)
(1.52291e-11 0 0)
(1.64399e-11 0 0)
(1.50687e-11 0 0)
(1.6046e-11 0 0)
(1.5127e-11 0 0)
(1.58856e-11 0 0)
(1.4952e-11 0 0)
(1.63086e-11 0 0)
(1.50687e-11 0 0)
(1.59002e-11 0 0)
(1.53313e-11 0 0)
(1.57835e-11 0 0)
(1.59439e-11 0 0)
(1.57105e-11 0 0)
(1.61481e-11 0 0)
(1.59293e-11 0 0)
(1.61773e-11 0 0)
(1.56813e-11 0 0)
(1.66879e-11 0 0)
(1.57251e-11 0 0)
(1.62794e-11 0 0)
(1.53896e-11 0 0)
(1.59002e-11 0 0)
(1.52146e-11 0 0)
(1.55792e-11 0 0)
(1.51854e-11 0 0)
(1.52437e-11 0 0)
(1.48645e-11 0 0)
(1.52437e-11 0 0)
(1.46019e-11 0 0)
(1.53021e-11 0 0)
(1.44123e-11 0 0)
(1.49082e-11 0 0)
(1.40038e-11 0 0)
(1.48499e-11 0 0)
(1.396e-11 0 0)
(1.5127e-11 0 0)
(1.37121e-11 0 0)
(1.46019e-11 0 0)
(1.38142e-11 0 0)
(1.44268e-11 0 0)
(1.40622e-11 0 0)
(1.47769e-11 0 0)
(1.39892e-11 0 0)
(1.44268e-11 0 0)
(1.42956e-11 0 0)
(1.4456e-11 0 0)
(1.45727e-11 0 0)
(1.45873e-11 0 0)
(1.4529e-11 0 0)
(1.5127e-11 0 0)
(1.52146e-11 0 0)
(1.52437e-11 0 0)
(1.56668e-11 0 0)
(1.5798e-11 0 0)
(1.55938e-11 0 0)
(1.63961e-11 0 0)
(1.59002e-11 0 0)
(1.68921e-11 0 0)
(1.58856e-11 0 0)
(1.70963e-11 0 0)
(1.58564e-11 0 0)
(1.74172e-11 0 0)
(1.58856e-11 0 0)
(1.76506e-11 0 0)
(1.63524e-11 0 0)
(1.79278e-11 0 0)
(1.679e-11 0 0)
(1.81466e-11 0 0)
(1.68337e-11 0 0)
(1.80591e-11 0 0)
(1.75048e-11 0 0)
(1.77965e-11 0 0)
(1.79132e-11 0 0)
(1.7636e-11 0 0)
(1.73151e-11 0 0)
(1.7709e-11 0 0)
(1.75193e-11 0 0)
(1.74464e-11 0 0)
(1.77236e-11 0 0)
(1.75048e-11 0 0)
(1.73881e-11 0 0)
(1.71547e-11 0 0)
(1.70671e-11 0 0)
(1.70963e-11 0 0)
(1.66149e-11 0 0)
(1.71401e-11 0 0)
(1.63378e-11 0 0)
(1.67025e-11 0 0)
(1.60898e-11 0 0)
(1.63378e-11 0 0)
(1.52e-11 0 0)
(1.59002e-11 0 0)
(1.48061e-11 0 0)
(1.60314e-11 0 0)
(1.48207e-11 0 0)
(1.52729e-11 0 0)
(1.47623e-11 0 0)
(1.52291e-11 0 0)
(1.43685e-11 0 0)
(1.52875e-11 0 0)
(1.42956e-11 0 0)
(1.50979e-11 0 0)
(1.42664e-11 0 0)
(1.48061e-11 0 0)
(1.40184e-11 0 0)
(1.46894e-11 0 0)
(1.41205e-11 0 0)
(1.48499e-11 0 0)
(1.43393e-11 0 0)
(1.4529e-11 0 0)
(1.49812e-11 0 0)
(1.47186e-11 0 0)
(1.53167e-11 0 0)
(1.4529e-11 0 0)
(1.56084e-11 0 0)
(1.48936e-11 0 0)
(1.59731e-11 0 0)
(1.5375e-11 0 0)
(1.54771e-11 0 0)
(1.5448e-11 0 0)
(1.54042e-11 0 0)
(1.6119e-11 0 0)
(1.58272e-11 0 0)
(1.68921e-11 0 0)
(1.57105e-11 0 0)
(1.78694e-11 0 0)
(1.59731e-11 0 0)
(1.76798e-11 0 0)
(1.62211e-11 0 0)
(1.78257e-11 0 0)
(1.64399e-11 0 0)
(1.80445e-11 0 0)
(1.67025e-11 0 0)
(1.83071e-11 0 0)
(1.75923e-11 0 0)
(1.78986e-11 0 0)
(1.74026e-11 0 0)
(1.76798e-11 0 0)
(1.73151e-11 0 0)
(1.6965e-11 0 0)
(1.73297e-11 0 0)
(1.59731e-11 0 0)
(1.74026e-11 0 0)
(1.60023e-11 0 0)
(1.65858e-11 0 0)
(1.6046e-11 0 0)
(1.64107e-11 0 0)
(1.55792e-11 0 0)
(1.64399e-11 0 0)
(1.55209e-11 0 0)
(1.63524e-11 0 0)
(1.50979e-11 0 0)
(1.66149e-11 0 0)
(1.50395e-11 0 0)
(1.679e-11 0 0)
(1.5127e-11 0 0)
(1.62648e-11 0 0)
(1.52437e-11 0 0)
(1.60314e-11 0 0)
(1.51708e-11 0 0)
(1.6119e-11 0 0)
(1.47478e-11 0 0)
(1.55792e-11 0 0)
(1.47332e-11 0 0)
(1.46456e-11 0 0)
(1.47478e-11 0 0)
(1.43247e-11 0 0)
(1.50249e-11 0 0)
(1.45581e-11 0 0)
(1.53313e-11 0 0)
(1.47478e-11 0 0)
(1.51708e-11 0 0)
(1.50395e-11 0 0)
(1.51708e-11 0 0)
(1.54771e-11 0 0)
(1.56959e-11 0 0)
(1.57397e-11 0 0)
(1.57543e-11 0 0)
(1.59147e-11 0 0)
(1.5798e-11 0 0)
(1.60898e-11 0 0)
(1.60752e-11 0 0)
(1.65566e-11 0 0)
(1.58418e-11 0 0)
(1.67316e-11 0 0)
(1.5448e-11 0 0)
(1.64399e-11 0 0)
(1.59877e-11 0 0)
(1.66441e-11 0 0)
(1.60606e-11 0 0)
(1.67608e-11 0 0)
(1.60898e-11 0 0)
(1.679e-11 0 0)
(1.59731e-11 0 0)
(1.65858e-11 0 0)
(1.5871e-11 0 0)
(1.63232e-11 0 0)
(1.61627e-11 0 0)
(1.57689e-11 0 0)
(1.55355e-11 0 0)
(1.57251e-11 0 0)
(1.54188e-11 0 0)
(1.50103e-11 0 0)
(1.56813e-11 0 0)
(1.51854e-11 0 0)
(1.49812e-11 0 0)
(1.52e-11 0 0)
(1.4879e-11 0 0)
(1.50249e-11 0 0)
(1.50103e-11 0 0)
(1.52875e-11 0 0)
(1.44852e-11 0 0)
(1.52437e-11 0 0)
(1.45435e-11 0 0)
(1.51124e-11 0 0)
(1.44998e-11 0 0)
(1.46894e-11 0 0)
(1.43831e-11 0 0)
(1.54917e-11 0 0)
(1.46165e-11 0 0)
(1.55209e-11 0 0)
(1.50687e-11 0 0)
(1.61919e-11 0 0)
(1.51562e-11 0 0)
(1.64836e-11 0 0)
(1.57689e-11 0 0)
(1.68046e-11 0 0)
(1.62357e-11 0 0)
(1.66003e-11 0 0)
(1.63086e-11 0 0)
(1.6367e-11 0 0)
(1.65566e-11 0 0)
(1.62503e-11 0 0)
(1.70963e-11 0 0)
(1.68921e-11 0 0)
(1.68775e-11 0 0)
(1.70671e-11 0 0)
(1.64691e-11 0 0)
(1.76798e-11 0 0)
(1.64253e-11 0 0)
(1.74172e-11 0 0)
(1.62648e-11 0 0)
(1.7709e-11 0 0)
(1.5798e-11 0 0)
(1.71693e-11 0 0)
(1.61481e-11 0 0)
(1.7286e-11 0 0)
(1.64253e-11 0 0)
(1.65858e-11 0 0)
(1.59439e-11 0 0)
(1.72422e-11 0 0)
(1.62211e-11 0 0)
(1.67608e-11 0 0)
(1.60023e-11 0 0)
(1.6965e-11 0 0)
(1.59439e-11 0 0)
(1.66003e-11 0 0)
(1.54917e-11 0 0)
(1.6046e-11 0 0)
(1.55792e-11 0 0)
(1.53604e-11 0 0)
(1.5375e-11 0 0)
(1.48353e-11 0 0)
(1.50833e-11 0 0)
(1.47915e-11 0 0)
(1.48936e-11 0 0)
(1.45873e-11 0 0)
(1.52146e-11 0 0)
(1.41789e-11 0 0)
(1.50979e-11 0 0)
(1.42956e-11 0 0)
(1.49812e-11 0 0)
(1.39309e-11 0 0)
(1.49957e-11 0 0)
(1.40184e-11 0 0)
(1.46602e-11 0 0)
(1.37996e-11 0 0)
(1.44414e-11 0 0)
(1.39892e-11 0 0)
(1.41059e-11 0 0)
(1.34787e-11 0 0)
(1.40913e-11 0 0)
(1.34203e-11 0 0)
(1.42664e-11 0 0)
(1.36391e-11 0 0)
(1.44268e-11 0 0)
(1.37996e-11 0 0)
(1.47623e-11 0 0)
(1.35078e-11 0 0)
(1.43393e-11 0 0)
(1.35224e-11 0 0)
(1.44414e-11 0 0)
(1.4281e-11 0 0)
(1.4529e-11 0 0)
(1.42664e-11 0 0)
(1.4704e-11 0 0)
(1.43101e-11 0 0)
(1.43539e-11 0 0)
(1.43247e-11 0 0)
(1.48207e-11 0 0)
(1.43831e-11 0 0)
(1.47478e-11 0 0)
(1.48936e-11 0 0)
(1.46456e-11 0 0)
(1.4952e-11 0 0)
(1.49228e-11 0 0)
(1.55938e-11 0 0)
(1.52146e-11 0 0)
(1.5798e-11 0 0)
(1.52e-11 0 0)
(1.5871e-11 0 0)
(1.61627e-11 0 0)
(1.6294e-11 0 0)
(1.63961e-11 0 0)
(1.62065e-11 0 0)
(1.67754e-11 0 0)
(1.57105e-11 0 0)
(1.71255e-11 0 0)
(1.5871e-11 0 0)
(1.68483e-11 0 0)
(1.65712e-11 0 0)
(1.64253e-11 0 0)
(1.65712e-11 0 0)
(1.67462e-11 0 0)
(1.62211e-11 0 0)
(1.72568e-11 0 0)
(1.6046e-11 0 0)
(1.67462e-11 0 0)
(1.63086e-11 0 0)
(1.66879e-11 0 0)
(1.60752e-11 0 0)
(1.63815e-11 0 0)
(1.55938e-11 0 0)
(1.5871e-11 0 0)
(1.52437e-11 0 0)
(1.53021e-11 0 0)
(1.55792e-11 0 0)
(1.52437e-11 0 0)
(1.55501e-11 0 0)
(1.52875e-11 0 0)
(1.54042e-11 0 0)
(1.5871e-11 0 0)
(1.56668e-11 0 0)
(1.60606e-11 0 0)
(1.59585e-11 0 0)
(1.63524e-11 0 0)
(1.62794e-11 0 0)
(1.73735e-11 0 0)
(1.62503e-11 0 0)
(1.80591e-11 0 0)
(1.72714e-11 0 0)
(1.81612e-11 0 0)
(1.73589e-11 0 0)
(1.78257e-11 0 0)
(1.73735e-11 0 0)
(1.7709e-11 0 0)
(1.79424e-11 0 0)
(1.73735e-11 0 0)
(1.79861e-11 0 0)
(1.75777e-11 0 0)
(1.79424e-11 0 0)
(1.73297e-11 0 0)
(1.75485e-11 0 0)
(1.80299e-11 0 0)
(1.7213e-11 0 0)
(1.78549e-11 0 0)
(1.70963e-11 0 0)
(1.81466e-11 0 0)
(1.69796e-11 0 0)
(1.78403e-11 0 0)
(1.72714e-11 0 0)
(1.7957e-11 0 0)
(1.71255e-11 0 0)
(1.7884e-11 0 0)
(1.63232e-11 0 0)
(1.77527e-11 0 0)
(1.60023e-11 0 0)
(1.77819e-11 0 0)
(1.53896e-11 0 0)
(1.71401e-11 0 0)
(1.49228e-11 0 0)
(1.65128e-11 0 0)
(1.47769e-11 0 0)
(1.60169e-11 0 0)
(1.53896e-11 0 0)
(1.55355e-11 0 0)