/*--------------------------------*- C++ -*----------------------------------*\
| =========                 |                                                 |
| \\      /  F ield         | OpenFOAM: The Open Source CFD Toolbox           |
|  \\    /   O peration     | Version:  4.0                                   |
|   \\  /    A nd           | Web:      www.OpenFOAM.org                      |
|    \\/     M anipulation  |                                                 |
\*---------------------------------------------------------------------------*/
FoamFile
{
    version     2.0;
    format      ascii;
    class       volScalarField;
    location    "32";
    object      p;
}
// * * * * * * * * * * * * * * * * * * * * * * * * * * * * * * * * * * * * * //

dimensions      [0 2 -2 0 0 0 0];

internalField   nonuniform List<scalar> 
2200
(
1.19845
1.17694
1.16104
1.14536
1.13074
1.11821
1.10784
1.09971
1.09395
1.09093
1.0913
1.09499
1.10125
1.10973
1.12035
1.13308
1.14783
1.16366
1.17966
1.20117
1.13088
1.12762
1.12469
1.12056
1.1151
1.10861
1.10198
1.096
1.09146
1.08898
1.08937
1.09255
1.09761
1.10398
1.11089
1.11758
1.12319
1.12733
1.13023
1.13356
1.09097
1.09119
1.09325
1.09459
1.09498
1.09412
1.09212
1.08939
1.0868
1.08524
1.08568
1.08799
1.09116
1.09431
1.09658
1.09758
1.09729
1.09619
1.0944
1.09416
1.06857
1.07002
1.07261
1.07505
1.07747
1.07947
1.08059
1.08076
1.08031
1.0799
1.08039
1.08165
1.08275
1.08306
1.0823
1.08058
1.07839
1.07614
1.07355
1.07213
1.05427
1.05625
1.05905
1.06187
1.06471
1.06751
1.06993
1.07177
1.07293
1.07361
1.07418
1.0745
1.07411
1.07286
1.07091
1.06844
1.06582
1.06308
1.0603
1.05836
1.04693
1.04852
1.05072
1.05326
1.05594
1.05859
1.06114
1.06351
1.06546
1.06685
1.06753
1.06734
1.06633
1.06466
1.06263
1.06038
1.05798
1.05559
1.05347
1.0519
1.04371
1.04473
1.04599
1.04785
1.04997
1.05209
1.05421
1.05639
1.05847
1.06015
1.06096
1.06074
1.05979
1.05845
1.05694
1.05529
1.0535
1.05187
1.05072
1.04971
1.04124
1.04191
1.04254
1.04385
1.04545
1.04711
1.04879
1.05059
1.05247
1.0542
1.05519
1.05526
1.05473
1.05394
1.053
1.05189
1.05071
1.04969
1.04919
1.04852
1.03809
1.03853
1.03894
1.03999
1.04129
1.0427
1.04419
1.04579
1.04749
1.0492
1.05041
1.05088
1.05085
1.05051
1.04997
1.04925
1.04846
1.04776
1.04749
1.04704
1.03435
1.03462
1.03502
1.03597
1.03716
1.03848
1.03993
1.04148
1.04313
1.04486
1.04635
1.04726
1.04765
1.04766
1.04738
1.04691
1.04633
1.0458
1.04558
1.04529
1.03014
1.03032
1.03073
1.03163
1.03282
1.03422
1.03579
1.03746
1.03923
1.04114
1.04298
1.04436
1.04511
1.04534
1.04519
1.04482
1.04437
1.04395
1.04374
1.04354
1.02543
1.02555
1.02594
1.02682
1.02807
1.02962
1.03145
1.0335
1.03572
1.03809
1.04038
1.04206
1.04298
1.04325
1.04316
1.04289
1.04255
1.04224
1.04207
1.04192
1.02033
1.02039
1.02078
1.02168
1.02297
1.02463
1.02666
1.02906
1.03184
1.03487
1.03767
1.03956
1.04062
1.0411
1.04125
1.04118
1.04099
1.04078
1.04065
1.04057
1.01505
1.01506
1.01544
1.01633
1.0177
1.01941
1.02148
1.02399
1.0271
1.03069
1.03414
1.0367
1.03833
1.03937
1.03999
1.04013
1.04011
1.04003
1.03996
1.03991
1.00978
1.00964
1.01007
1.01093
1.01236
1.01419
1.01638
1.01906
1.02241
1.02651
1.03081
1.03437
1.0369
1.0386
1.03958
1.04009
1.04033
1.0404
1.04038
1.04034
1.00415
1.00412
1.00444
1.00535
1.00698
1.00902
1.01159
1.01479
1.01877
1.02366
1.02893
1.03339
1.03659
1.03876
1.04015
1.04105
1.04154
1.04176
1.04182
1.04178
0.997918
0.997907
0.998245
0.999236
1.00103
1.00338
1.00646
1.01043
1.01541
1.02151
1.02799
1.03337
1.0372
1.03988
1.04177
1.04301
1.04373
1.04412
1.04425
1.04421
0.990623
0.990551
0.991003
0.992165
0.994086
0.996706
1.00026
1.00495
1.01101
1.01856
1.02662
1.03333
1.03821
1.04173
1.04424
1.04589
1.04694
1.04752
1.04773
1.04768
0.981952
0.981863
0.982332
0.983574
0.985719
0.988738
0.992859
0.99839
1.00566
1.01487
1.02487
1.03332
1.03959
1.04418
1.04747
1.04976
1.05128
1.05211
1.05239
1.05231
0.971204
0.971127
0.971676
0.973159
0.975736
0.97943
0.984534
0.991377
1.00032
1.01161
1.02384
1.03416
1.04189
1.04761
1.05178
1.05474
1.05672
1.05778
1.05813
1.05801
0.958126
0.958023
0.958724
0.960581
0.963824
0.968545
0.975056
0.983751
0.995041
1.00901
1.02383
1.03623
1.04552
1.05238
1.05741
1.061
1.06343
1.0647
1.06511
1.06496
0.941584
0.941519
0.942521
0.944961
0.949195
0.955328
0.963714
0.974883
0.989111
1.00634
1.02427
1.03914
1.05018
1.05843
1.06443
1.06869
1.07156
1.07303
1.0735
1.07333
0.92061
0.920477
0.921818
0.925153
0.930824
0.93904
0.950153
0.964525
0.982384
1.00352
1.02508
1.04281
1.05592
1.0657
1.07285
1.078
1.08141
1.08312
1.08365
1.08342
0.892958
0.893042
0.895251
0.900023
0.908048
0.919457
0.934303
0.952915
0.975233
1.00091
1.02657
1.04747
1.0629
1.07439
1.08287
1.08899
1.09297
1.09493
1.09551
1.09523
0.856048
0.856381
0.860128
0.867976
0.879981
0.89618
0.916342
0.940389
0.968118
0.999066
1.02928
1.05353
1.07137
1.08466
1.09453
1.10167
1.10629
1.10855
1.10919
1.10881
0.806947
0.80744
0.814655
0.827578
0.846025
0.869433
0.896542
0.927263
0.961311
0.998136
1.03316
1.06092
1.08131
1.09651
1.10788
1.11611
1.12141
1.12383
1.12438
1.12394
0.741447
0.744429
0.75997
0.781591
0.808807
0.840528
0.875593
0.913828
0.954957
0.998361
1.03894
1.07097
1.09463
1.11242
1.12583
1.1358
1.14235
1.14514
1.14555
1.14529
0.666343
0.676334
0.702424
0.733944
0.771007
0.811612
0.854659
0.900666
0.949248
0.999745
1.04658
1.08364
1.11126
1.1324
1.14865
1.16074
1.16907
1.17247
1.17298
1.17322
0.599994
0.615449
0.648117
0.687905
0.73414
0.783414
0.834554
0.888376
0.944244
1.00157
1.05432
1.09597
1.12711
1.15089
1.16911
1.18291
1.1922
1.19697
1.19828
1.19824
0.549996
0.563741
0.601688
0.647302
0.700591
0.757027
0.815539
0.876627
0.93936
1.00328
1.06181
1.10766
1.14163
1.16743
1.18747
1.20281
1.21271
1.21762
1.21885
1.21895
0.509007
0.521827
0.563079
0.612504
0.671028
0.733119
0.79791
0.865409
0.934493
1.00465
1.0683
1.11769
1.15404
1.18159
1.20245
1.21829
1.22877
1.23386
1.23532
1.23544
0.473542
0.486628
0.530308
0.582546
0.645113
0.711726
0.781752
0.854785
0.929532
1.00525
1.07352
1.12614
1.16439
1.1928
1.21421
1.23036
1.24114
1.24662
1.24829
1.24842
0.442564
0.455778
0.501408
0.556069
0.621991
0.692388
0.766848
0.844633
0.924345
1.00505
1.07754
1.1328
1.17254
1.2019
1.22379
1.24015
1.25144
1.2572
1.25905
1.25917
0.414662
0.427991
0.475251
0.532098
0.600933
0.67456
0.752781
0.834619
0.918695
1.00382
1.08019
1.13811
1.17929
1.20945
1.23202
1.2486
1.26007
1.26603
1.26789
1.26783
0.389109
0.4024
0.450927
0.509904
0.58139
0.657769
0.739181
0.82456
0.912592
1.00202
1.08237
1.14276
1.18537
1.21643
1.23926
1.25608
1.26741
1.27331
1.2752
1.27503
0.36506
0.378652
0.428042
0.489064
0.562831
0.641616
0.72585
0.814419
0.906143
0.999631
1.08342
1.14648
1.19097
1.22278
1.24606
1.26291
1.27409
1.27998
1.28183
1.28176
0.342425
0.356143
0.406352
0.469186
0.544947
0.625911
0.712657
0.804076
0.898991
0.99581
1.08339
1.14992
1.19619
1.22906
1.25269
1.26954
1.2808
1.28646
1.2884
1.28833
0.320997
0.334718
0.385617
0.450004
0.527504
0.610455
0.699451
0.793367
0.891132
0.991651
1.08379
1.15329
1.20154
1.23555
1.25949
1.2764
1.28753
1.29312
1.29487
1.29483
0.300324
0.314266
0.365645
0.431328
0.510317
0.595094
0.686149
0.782349
0.883001
0.987141
1.0826
1.15539
1.20659
1.24203
1.26656
1.28351
1.29449
1.29978
1.30151
1.30139
0.279981
0.294543
0.346292
0.413079
0.493321
0.579735
0.672697
0.77106
0.874231
0.981263
1.08058
1.15758
1.21133
1.24859
1.27413
1.29105
1.30159
1.30666
1.30804
1.30788
0.259964
0.275334
0.32744
0.395217
0.476513
0.564362
0.659056
0.75939
0.864792
0.974816
1.07809
1.15842
1.21568
1.25574
1.28245
1.29934
1.30906
1.31332
1.31438
1.31415
0.240399
0.256518
0.309046
0.377745
0.459946
0.549031
0.645233
0.747337
0.854877
0.967488
1.07373
1.15824
1.21977
1.26294
1.29172
1.30879
1.31714
1.32001
1.32028
1.3201
0.221429
0.238093
0.29111
0.360706
0.443708
0.533824
0.631286
0.734929
0.84435
0.959074
1.06833
1.15723
1.22288
1.27033
1.30211
1.32028
1.32708
1.3261
1.32532
1.32595
0.203086
0.220158
0.2737
0.344141
0.427856
0.518822
0.617321
0.722236
0.833178
0.949843
1.0618
1.15441
1.22494
1.27734
1.31358
1.33423
1.34055
1.33527
1.3298
1.32769
0.185401
0.202804
0.256872
0.328096
0.412463
0.504129
0.603441
0.709346
0.821497
0.939883
1.05422
1.1501
1.22526
1.28351
1.3258
1.35137
1.36151
1.35025
1.34647
1.35106
0.168376
0.186114
0.240692
0.312613
0.397562
0.489803
0.589726
0.696373
0.809593
0.929413
1.0455
1.14399
1.22356
1.28771
1.33742
1.37093
1.38902
1.36579
1.32173
1.28037
0.152073
0.170068
0.225115
0.297614
0.383039
0.475712
0.576064
0.683246
0.797252
0.918111
1.03552
1.13609
1.21875
1.28877
1.34694
1.39171
1.42515
1.42447
1.44219
1.49463
0.136536
0.154625
0.21005
0.282953
0.368691
0.46162
0.562206
0.669656
0.784008
0.90544
1.02368
1.12488
1.20974
1.28389
1.34634
1.39411
1.42063
1.41463
1.38148
1.39159
0.121791
0.1398
0.195531
0.268677
0.354598
0.447628
0.548268
0.655721
0.770023
0.891464
1.00992
1.1112
1.19557
1.26908
1.33049
1.3752
1.37517
1.33096
1.27197
1.2616
0.107832
0.125609
0.181567
0.254793
0.34076
0.433725
0.53423
0.641433
0.75535
0.876314
0.9941
1.094
1.17531
1.2432
1.29765
1.31514
1.28544
1.21475
1.14315
1.12742
0.0946187
0.11205
0.168138
0.241281
0.32716
0.419893
0.520083
0.626798
0.739981
0.859793
0.975951
1.07375
1.14896
1.20446
1.23421
1.22604
1.17677
1.07774
0.991917
0.973358
0.0816937
0.0987168
0.154859
0.227781
0.313447
0.405817
0.505544
0.611577
0.723683
0.841824
0.955919
1.04988
1.11736
1.15729
1.15292
1.12039
1.01585
0.895485
0.789429
0.765243
0.0681601
0.0848144
0.14102
0.213664
0.29905
0.391022
0.490207
0.595405
0.706198
0.822254
0.933022
1.02148
1.08266
1.09915
1.06381
0.979284
0.824389
0.672909
0.545467
0.520031
0.0535037
0.0699309
0.126314
0.198702
0.283792
0.375381
0.473973
0.578229
0.687527
0.801083
0.907888
0.990927
1.04105
1.02979
0.973582
0.825542
0.623703
0.409412
0.228642
0.182201
0.0376322
0.0539844
0.110667
0.182866
0.267701
0.358934
0.456898
0.560109
0.667778
0.778542
0.880337
0.957471
0.992784
0.950316
0.860302
0.668685
0.431543
0.136889
-0.190027
-0.334267
0.0204759
0.0368781
0.0939938
0.166088
0.25073
0.341621
0.438926
0.541025
0.64691
0.754483
0.850397
0.921216
0.938755
0.864566
0.725153
0.512356
0.268918
-0.085599
-0.685763
-1.26467
0.00198456
0.0185347
0.0762096
0.148301
0.232863
0.323462
0.420127
0.521088
0.62513
0.729515
0.819499
0.883108
0.882671
0.787899
0.593652
0.349334
0.134532
-0.114795
-0.695324
-2.26193
-0.0178016
-0.00113559
0.0572595
0.129404
0.213951
0.304271
0.400272
0.500028
0.602073
0.703035
0.787158
0.841753
0.823004
0.726453
0.493236
0.242224
0.0834579
0.0342061
0.0282579
-0.371696
-0.038829
-0.0221779
0.036955
0.109089
0.193618
0.283583
0.378773
0.477117
0.57687
0.67393
0.752597
0.796726
0.761492
0.678458
0.441192
0.222189
0.100124
0.0864389
0.134893
0.0917438
-0.0610609
-0.0444408
0.0153487
0.0873371
0.171809
0.261298
0.355506
0.452204
0.549337
0.641892
0.71571
0.75037
0.706229
0.627141
0.405713
0.22742
0.138345
0.130243
0.0827242
0.0743812
-0.0844186
-0.067702
-0.00754114
0.0641315
0.148571
0.23742
0.330452
0.425289
0.519484
0.60731
0.676816
0.70226
0.656029
0.565297
0.377816
0.237374
0.156014
0.188402
0.164949
0.162788
-0.108697
-0.0916023
-0.0315833
0.0396241
0.124054
0.212058
0.303757
0.39651
0.487472
0.570699
0.635906
0.651676
0.612461
0.494911
0.339016
0.240341
0.185549
0.148227
0.169711
0.162333
-0.133348
-0.11594
-0.0567012
0.0139917
0.098533
0.185419
0.275637
0.366221
0.45359
0.53244
0.593249
0.598372
0.569682
0.428452
0.294048
0.223476
0.233284
0.170367
0.196085
0.189355
-0.157823
-0.140314
-0.082527
-0.0122602
0.0722966
0.157804
0.24648
0.334794
0.418237
0.493029
0.550699
0.54681
0.521734
0.375265
0.25553
0.193729
0.227527
0.193766
0.193634
0.192645
-0.18158
-0.1644
-0.108274
-0.0384392
0.0457752
0.129675
0.21677
0.302807
0.382031
0.452718
0.508897
0.497405
0.465405
0.333237
0.238581
0.185469
0.17043
0.187435
0.184758
0.188828
-0.203958
-0.18751
-0.132885
-0.0637004
0.0192687
0.101634
0.18712
0.27088
0.346118
0.412097
0.468226
0.449532
0.406809
0.302807
0.238417
0.198618
0.149604
0.193072
0.186522
0.195476
-0.223951
-0.208598
-0.155562
-0.0872425
-0.00654947
0.0745341
0.158405
0.239786
0.311491
0.371887
0.429346
0.403927
0.344938
0.269412
0.241658
0.250296
0.175264
0.22445
0.210306
0.216233
-0.240516
-0.226631
-0.175581
-0.108581
-0.0306069
0.0493635
0.131463
0.210685
0.279707
0.333303
0.392302
0.361352
0.279364
0.239977
0.264107
0.360664
0.294411
0.267206
0.244602
0.238535
-0.252378
-0.240363
-0.192057
-0.126868
-0.0512757
0.0272952
0.107491
0.184551
0.25165
0.298469
0.355501
0.326087
0.209399
0.183438
0.253685
0.273277
0.257533
0.228122
0.210078
0.20527
-0.25873
-0.248838
-0.203924
-0.140815
-0.0673234
0.00934247
0.0875894
0.162939
0.22882
0.270788
0.321026
0.298949
0.121609
-0.0385669
-0.128579
-0.194929
-0.192628
-0.161331
-0.128818
-0.106613
-0.258597
-0.250633
-0.209592
-0.148973
-0.0776912
-0.0029811
0.073282
0.147266
0.213029
0.254677
0.292169
0.280376
0.0433376
-0.331105
-0.814775
-1.10114
-1.13074
-1.0738
-0.940463
-0.842344
-0.251241
-0.244079
-0.207658
-0.15013
-0.0813824
-0.00878907
0.0659625
0.139259
0.20648
0.253556
0.284464
0.286755
0.0650429
-0.321981
-0.809313
-1.01495
-0.996723
-0.875622
-0.771368
-0.717482
-0.233254
-0.225865
-0.195798
-0.143201
-0.0776228
-0.00707177
0.0665581
0.140764
0.212446
0.270129
0.31058
0.344523
0.316666
0.310382
0.264385
0.298031
0.397219
0.494558
0.593381
0.678645
-0.199408
-0.192601
-0.172839
-0.127913
-0.0662838
0.00241664
0.075479
0.152015
0.231532
0.307819
0.376165
0.491599
0.666772
0.977683
1.26297
1.51185
1.71689
1.84541
1.91189
1.93555
-0.153023
-0.148805
-0.141943
-0.10576
-0.0488248
0.0186852
0.0919787
0.171636
0.260573
0.35948
0.462528
0.615438
0.901134
1.32571
1.7434
2.09791
2.34682
2.49046
2.55333
2.57352
-0.115386
-0.114723
-0.110042
-0.0813393
-0.028914
0.0379382
0.113321
0.195814
0.289606
0.401103
0.521117
0.645899
0.943148
1.32067
1.69284
2.01476
2.25306
2.39349
2.45572
2.47313
-0.0850909
-0.0862413
-0.080538
-0.0590991
-0.00897695
0.0574905
0.133949
0.216818
0.307782
0.415357
0.529505
0.611909
0.842231
1.13912
1.42131
1.66504
1.85754
1.9758
2.03077
2.04777
-0.0533982
-0.0537294
-0.0536599
-0.0374596
0.0122267
0.0772428
0.152118
0.232319
0.316269
0.409599
0.515023
0.573782
0.734296
0.968929
1.19172
1.37459
1.51944
1.61548
1.65943
1.6718
-0.01659
-0.0173039
-0.020645
-0.00624445
0.0401082
0.100766
0.170756
0.245036
0.320305
0.396526
0.4911
0.541443
0.640276
0.817444
0.993138
1.12887
1.23241
1.30539
1.3381
1.34484
0.0418662
0.0408153
0.0371594
0.0478275
0.0845432
0.134379
0.194758
0.259233
0.324082
0.386169
0.467679
0.516107
0.57172
0.700224
0.836087
0.935764
1.00964
1.06152
1.0852
1.09322
0.121461
0.119685
0.117948
0.125521
0.149452
0.184035
0.22836
0.278792
0.332087
0.383317
0.450254
0.495294
0.529577
0.621947
0.721057
0.79055
0.844679
0.884499
0.902008
0.90767
0.209975
0.208542
0.20723
0.211206
0.224012
0.244371
0.271411
0.305883
0.347739
0.386748
0.438831
0.477809
0.501588
0.571108
0.641228
0.687189
0.728698
0.759732
0.77292
0.776517
0.29042
0.289306
0.288251
0.289292
0.294023
0.303181
0.317029
0.336986
0.366673
0.392642
0.429079
0.463597
0.475425
0.53297
0.584053
0.61598
0.643686
0.662665
0.672596
0.675615
0.35297
0.352133
0.350867
0.349392
0.348957
0.350754
0.356201
0.365268
0.383081
0.398767
0.421073
0.448541
0.453358
0.499626
0.535617
0.560553
0.57912
0.588834
0.592841
0.593448
0.393635
0.393093
0.391779
0.388859
0.38502
0.382549
0.383001
0.385871
0.394819
0.404253
0.417495
0.432092
0.441312
0.469288
0.495183
0.513711
0.52549
0.531171
0.531839
0.530526
0.416267
0.415808
0.414549
0.411417
0.406375
0.402006
0.399604
0.399103
0.403131
0.408479
0.41682
0.422911
0.430735
0.447015
0.464361
0.476436
0.482818
0.484804
0.484258
0.482465
0.427283
0.426888
0.425721
0.423015
0.418257
0.413735
0.410152
0.408008
0.409285
0.411899
0.416608
0.419533
0.422002
0.433046
0.443055
0.44853
0.45131
0.448738
0.445845
0.444565
0.431603
0.431295
0.430305
0.428173
0.424295
0.420608
0.417254
0.414597
0.41471
0.415424
0.416586
0.416902
0.415728
0.425506
0.431756
0.433602
0.43322
0.431122
0.428142
0.426785
0.432406
0.432196
0.43149
0.429857
0.426984
0.424212
0.421625
0.419113
0.419075
0.41826
0.417132
0.4143
0.410445
0.423058
0.430746
0.433178
0.43596
0.439184
0.439479
0.436289
0.430805
0.430673
0.430252
0.429115
0.427181
0.425166
0.423812
0.422004
0.422649
0.420997
0.420421
0.416356
0.412891
0.42468
0.43627
0.443951
0.448172
0.449127
0.449603
0.44746
0.427405
0.427383
0.427275
0.426611
0.425612
0.424376
0.424013
0.424155
0.426998
0.425657
0.430273
0.427275
0.426919
0.435301
0.443796
0.448521
0.447069
0.443224
0.442079
0.442202
0.421281
0.42146
0.421801
0.422124
0.422076
0.422283
0.421669
0.425406
0.430921
0.428668
0.443379
0.443216
0.442591
0.447706
0.45167
0.45473
0.456241
0.45807
0.458775
0.459292
0.410306
0.410582
0.411303
0.412665
0.413391
0.415249
0.415545
0.419943
0.427291
0.436768
0.450568
0.459162
0.455864
0.460318
0.468293
0.482276
0.502642
0.516944
0.52113
0.517203
0.393782
0.39452
0.394822
0.395706
0.397224
0.400616
0.404672
0.411529
0.419931
0.432255
0.450195
0.465953
0.467902
0.471817
0.485755
0.502348
0.523922
0.541349
0.54799
0.538809
0.370424
0.371375
0.372449
0.374014
0.376059
0.379512
0.384539
0.39188
0.40107
0.417544
0.440694
0.455355
0.466374
0.455874
0.463025
0.472427
0.47592
0.478026
0.483542
0.480408
0.336272
0.337227
0.338533
0.340803
0.343759
0.347878
0.352915
0.358555
0.366567
0.379776
0.400563
0.417463
0.417984
0.404281
0.408239
0.414182
0.412188
0.402099
0.403303
0.404782
0.291938
0.292938
0.294304
0.296455
0.299481
0.302979
0.305855
0.306856
0.307882
0.315518
0.340873
0.362542
0.342369
0.344886
0.361372
0.37334
0.394439
0.397993
0.383798
0.390845
0.235731
0.236616
0.238039
0.240462
0.243232
0.245333
0.24415
0.239177
0.229703
0.228945
0.261196
0.296475
0.279977
0.295689
0.331992
0.345067
0.369381
0.393486
0.369738
0.374763
0.17322
0.173649
0.174455
0.176136
0.17751
0.176429
0.168829
0.152874
0.123985
0.11469
0.156819
0.218371
0.221892
0.230531
0.264554
0.284471
0.275926
0.288823
0.286153
0.284604
0.109539
0.10916
0.10957
0.111421
0.112008
0.106926
0.0906115
0.0593607
0.0143668
0.00908537
0.0609854
0.120334
0.13133
0.152112
0.17486
0.207932
0.193564
0.172982
0.188489
0.184752
0.0577298
0.0572041
0.0582038
0.0573909
0.0527046
0.0416852
0.0205801
-0.0158382
-0.0632542
-0.0733431
-0.0271497
0.0212538
0.0239465
0.0963394
0.11895
0.126538
0.164279
0.118304
0.134716
0.125834
0.0240221
0.0233004
0.0230937
0.0229428
0.0209452
0.0136755
-0.00323501
-0.0346675
-0.0764907
-0.0847902
-0.0378321
0.0263018
0.0114492
0.0217005
0.0133198
0.00426837
0.0458507
0.0461032
0.0455538
0.0440796
-0.691148
0.172015
0.443884
0.727254
0.91664
1.08028
1.21629
1.35435
1.50272
1.58049
0.309301
0.727666
0.750446
0.943543
1.07467
1.19197
1.29368
1.38345
1.41277
1.36926
0.703104
0.923372
0.963154
1.1023
1.19305
1.2768
1.34586
1.39739
1.40072
1.41361
0.940211
1.08995
1.12583
1.23218
1.29007
1.35098
1.39734
1.43049
1.4401
1.46336
1.12717
1.22941
1.25987
1.33133
1.37574
1.41896
1.45194
1.47668
1.48687
1.51809
1.27136
1.34281
1.37326
1.41818
1.45495
1.48603
1.51094
1.53188
1.5464
1.57442
1.39264
1.44456
1.4706
1.49957
1.52806
1.55236
1.57273
1.59217
1.6073
1.63362
1.49759
1.53575
1.5571
1.57826
1.59968
1.61949
1.63713
1.65539
1.67034
1.69396
1.59274
1.6217
1.6389
1.65459
1.67112
1.68745
1.70315
1.72018
1.73379
1.75609
1.6816
1.70244
1.7176
1.731
1.7448
1.75873
1.77228
1.78689
1.79842
1.81808
1.76786
1.78373
1.7977
1.80967
1.8217
1.83337
1.8445
1.85617
1.86383
1.88065
1.85337
1.86631
1.8801
1.89178
1.90234
1.91208
1.92085
1.92909
1.93265
1.94393
1.94269
1.95369
1.96716
1.97637
1.9838
1.99099
1.99818
2.00472
2.00574
2.01316
2.04113
2.04586
2.0539
2.05839
2.06167
2.06613
2.07213
2.07988
2.08371
2.0936
2.15443
2.14073
2.1333
2.12768
2.12501
2.12642
2.13289
2.14529
2.16006
2.18972
2.27536
2.21961
2.18876
2.17168
2.16354
2.16351
2.17223
2.19177
2.22375
2.29294
)
;

boundaryField
{
    wall-4
    {
        type            zeroGradient;
    }
    pressure-outlet-7
    {
        type            fixedValue;
        value           uniform 0;
    }
    velocity-inlet-6
    {
        type            zeroGradient;
    }
    velocity-inlet-5
    {
        type            zeroGradient;
    }
    frontAndBackPlanes
    {
        type            empty;
    }
}


// ************************************************************************* //
