/*--------------------------------*- C++ -*----------------------------------*\
| =========                 |                                                 |
| \\      /  F ield         | OpenFOAM: The Open Source CFD Toolbox           |
|  \\    /   O peration     | Version:  4.0                                   |
|   \\  /    A nd           | Web:      www.OpenFOAM.org                      |
|    \\/     M anipulation  |                                                 |
\*---------------------------------------------------------------------------*/
FoamFile
{
    version     2.0;
    format      ascii;
    class       surfaceScalarField;
    location    "32";
    object      phi;
}
// * * * * * * * * * * * * * * * * * * * * * * * * * * * * * * * * * * * * * //

dimensions      [0 3 -1 0 0 0 0];

internalField   nonuniform List<scalar> 
4262
(
0.107138
0.47085
0.0955683
0.705156
0.0693699
0.858502
0.0473241
1.02081
0.0309012
1.21494
0.0197213
1.4494
0.012378
1.73321
0.00720996
2.0762
0.00329105
2.48916
-0.000207748
2.98579
-0.00377133
2.98586
-0.00774337
2.48922
-0.0128877
2.07618
-0.020007
1.73298
-0.0309905
1.4492
-0.0472508
1.21478
-0.0691507
1.02066
-0.0953746
0.858527
-0.107115
0.705326
0.470873
0.112906
0.357944
0.135342
0.68272
0.120501
0.873342
0.0980123
1.0433
0.0747821
1.23817
0.0530745
1.47111
0.0347491
1.75153
0.020524
2.09043
0.00916712
2.50052
-0.0010463
2.996
-0.0111886
2.996
-0.0222133
2.50024
-0.0361253
2.09009
-0.0544713
1.75133
-0.0762717
1.471
-0.0996872
1.23819
-0.122434
1.04341
-0.136493
0.872586
-0.113397
0.68223
0.357476
0.0920885
0.265856
0.125066
0.649743
0.121263
0.877145
0.105098
1.05946
0.0866572
1.25661
0.0675349
1.49023
0.0483957
1.77067
0.0303359
2.10849
0.0140256
2.51683
-0.00162759
3.01166
-0.0170838
3.01145
-0.0331669
2.51632
-0.051032
2.10796
-0.0698192
1.77012
-0.0882948
1.48948
-0.105842
1.25574
-0.120792
1.05836
-0.12541
0.877205
-0.0923427
0.649162
0.265134
0.0639605
0.201895
0.104787
0.608916
0.106494
0.875438
0.095056
1.0709
0.0811531
1.27051
0.066667
1.50472
0.0507096
1.78663
0.0336748
2.12552
0.016014
2.53449
-0.00261414
3.03029
-0.0211116
3.02995
-0.0384056
2.53362
-0.0547778
2.12433
-0.0698588
1.7852
-0.0837178
1.50334
-0.0974239
1.26945
-0.108946
1.06988
-0.106268
0.874527
-0.064539
0.607433
0.200595
0.0375278
0.164368
0.0809326
0.565511
0.0913927
0.864978
0.0841748
1.07812
0.0714066
1.28328
0.0594003
1.51672
0.0467041
1.79933
0.032222
2.14001
0.0157438
2.55097
-0.00323109
3.04926
-0.0219266
3.04865
-0.0378171
2.54951
-0.0515586
2.13807
-0.0638703
1.79751
-0.0754929
1.51496
-0.0876513
1.2816
-0.0941437
1.07637
-0.0826927
0.863076
-0.0381868
0.562928
0.162408
0.0195072
0.14486
0.0572177
0.5278
0.0726418
0.849554
0.0706543
1.08011
0.0619102
1.29203
0.0509743
1.52766
0.039791
1.81051
0.027506
2.15229
0.0129037
2.56557
-0.00441479
3.06658
-0.0213591
3.06559
-0.0350505
2.5632
-0.0464498
2.14947
-0.0565676
1.80763
-0.0665949
1.52499
-0.0745688
1.28958
-0.0757347
1.07754
-0.0591261
0.846467
-0.0201251
0.523927
0.142283
0.01054
0.13432
0.0421496
0.496191
0.0582525
0.833451
0.0587754
1.07958
0.0529718
1.29783
0.0439519
1.53668
0.0338805
1.82058
0.0227298
2.16344
0.00996505
2.57834
-0.00547867
3.08202
-0.0206281
3.08074
-0.032663
2.57523
-0.0428394
2.15965
-0.0517404
1.81653
-0.0597941
1.53304
-0.0644151
1.2942
-0.0625931
1.07572
-0.0447834
0.828658
-0.0113624
0.490506
0.13092
0.00658583
0.127735
0.0330407
0.469736
0.0494393
0.817052
0.0512085
1.07781
0.0465714
1.30247
0.0386664
1.54458
0.0292046
1.83004
0.0183397
2.17431
0.00636379
2.59031
-0.00708624
3.09547
-0.0199434
3.0936
-0.0307506
2.58604
-0.0400002
2.1689
-0.0480816
1.82461
-0.0545507
1.53951
-0.0576932
1.29734
-0.0544061
1.07243
-0.036046
0.810298
-0.00752617
0.461986
0.123394
0.00472693
0.123008
0.0264024
0.448061
0.0422018
0.801253
0.0444821
1.07553
0.0402837
1.30666
0.0333488
1.55152
0.0248894
1.8385
0.0149071
2.18429
0.00360392
2.60161
-0.00853671
3.10761
-0.0201125
3.10517
-0.0300299
2.59596
-0.0385012
2.17737
-0.0451536
1.83126
-0.050413
1.54477
-0.053015
1.29994
-0.0486909
1.06811
-0.0301372
0.791744
-0.00586485
0.437713
0.117529
0.00349061
0.119517
0.0208553
0.430696
0.0358222
0.786286
0.038675
1.07268
0.0346262
1.31071
0.027816
1.55833
0.0197896
1.84653
0.0105086
2.19357
0.000151003
2.61197
-0.0110688
3.11883
-0.0215742
3.11568
-0.0301005
2.60448
-0.0371967
2.18446
-0.0428474
1.83691
-0.0473544
1.54928
-0.0490699
1.30166
-0.0435996
1.06264
-0.0253959
0.77354
-0.0049505
0.417268
0.112579
0.00260659
0.116911
0.0160962
0.417206
0.0294218
0.77296
0.0325465
1.06956
0.0289603
1.3143
0.022682
1.56461
0.0153712
1.85384
0.00700242
2.20194
-0.00253521
2.62151
-0.0132043
3.1295
-0.0228866
3.12536
-0.030337
2.61194
-0.0360667
2.19019
-0.041083
1.84193
-0.0450709
1.55327
-0.0459955
1.30258
-0.0393552
1.056
-0.0216728
0.755858
-0.00435961
0.399955
0.108219
0.00194355
0.114967
0.0121113
0.407038
0.0239203
0.761151
0.0271147
1.06636
0.02372
1.31769
0.0176103
1.57072
0.0105431
1.86091
0.0026518
2.20983
-0.00646623
2.63063
-0.01706
3.1401
-0.0263792
3.13468
-0.0327151
2.61827
-0.0371487
2.19463
-0.0406019
1.84538
-0.0431825
1.55585
-0.0428283
1.30223
-0.0354238
1.04859
-0.0187482
0.739182
-0.0040563
0.385263
0.104163
0.00118656
0.11378
0.0082822
0.399943
0.0177346
0.751699
0.0202997
1.0638
0.0171409
1.32085
0.0114677
1.57639
0.00478083
1.86759
-0.00271895
2.21733
-0.0112578
2.63917
-0.0206859
3.14952
-0.0286286
3.14262
-0.0337357
2.62338
-0.0370023
2.19789
-0.0398343
1.84821
-0.0413433
1.55735
-0.04029
1.30118
-0.0323352
1.04064
-0.0164204
0.723268
-0.00388248
0.372725
0.100281
0.000292061
0.113488
0.00391803
0.396317
0.0109994
0.744618
0.01319
1.06161
0.0101158
1.32393
0.00462904
1.58188
-0.0021297
1.87435
-0.00971568
2.22492
-0.017733
2.64718
-0.0255348
3.15733
-0.031575
3.14866
-0.0354621
2.62727
-0.0380944
2.20053
-0.0395721
1.84969
-0.0395566
1.55734
-0.0372329
1.29885
-0.0285462
1.03195
-0.0138693
0.708591
-0.00349261
0.362348
0.0967879
-0.000644746
0.114133
9.31303e-05
0.395579
0.00466557
0.740045
0.00545104
1.06082
0.00243982
1.32694
-0.0025619
1.58688
-0.00904937
1.88084
-0.0165229
2.23239
-0.0243153
2.65498
-0.0314285
3.16444
-0.0365073
3.15374
-0.0392188
2.62998
-0.040388
2.2017
-0.0400569
1.84936
-0.038858
1.55614
-0.035214
1.29521
-0.0259029
1.02264
-0.0120893
0.694777
-0.00313451
0.353393
0.0936534
-0.00186651
0.116
-0.00355758
0.39727
-0.00225628
0.738744
-0.00185952
1.06042
-0.00534127
1.33042
-0.0108066
1.59234
-0.0174365
1.88747
-0.024862
2.23982
-0.0326255
2.66274
-0.0394875
3.1713
-0.0434684
3.15772
-0.0445264
2.63103
-0.0438154
2.20098
-0.0421567
1.8477
-0.0394474
1.55343
-0.0341338
1.28989
-0.0240155
1.01252
-0.0111591
0.681921
-0.00306212
0.345296
0.0905913
-0.00302866
0.119028
-0.00704476
0.401286
-0.00923832
0.740937
-0.0113159
1.0625
-0.0152294
1.33433
-0.0207915
1.5979
-0.0274508
1.89413
-0.0348043
2.24717
-0.0421091
2.67004
-0.0481393
3.17733
-0.0508549
3.16044
-0.050262
2.63044
-0.0476924
2.19842
-0.0446368
1.84465
-0.0404194
1.54921
-0.034273
1.28375
-0.0237035
1.00195
-0.0112239
0.669441
-0.00320373
0.337276
0.0873876
-0.00400687
0.123035
-0.0110886
0.408368
-0.0161634
0.746012
-0.020178
1.06652
-0.0254852
1.33964
-0.0324121
1.60483
-0.0401179
1.90183
-0.0478923
2.25494
-0.0550568
2.67721
-0.0600378
3.18231
-0.0605532
3.16095
-0.0576741
2.62756
-0.0536658
2.19441
-0.0491381
1.84012
-0.0432742
1.54335
-0.0354385
1.27591
-0.0239757
0.990488
-0.0117538
0.657219
-0.00349196
0.329014
0.0838956
-0.00523998
0.128275
-0.0150336
0.418161
-0.0235853
0.754564
-0.0299126
1.07284
-0.0364366
1.34616
-0.0444416
1.61284
-0.0531461
1.91054
-0.0619952
2.26379
-0.0696003
2.68481
-0.0739279
3.18664
-0.0728774
3.1599
-0.0683605
2.62305
-0.0619361
2.18798
-0.055006
1.83319
-0.047672
1.53602
-0.0388074
1.26705
-0.0266327
0.978313
-0.0135672
0.644154
-0.00403924
0.319486
0.0798564
-0.00634953
0.134625
-0.0182924
0.430104
-0.0299806
0.766252
-0.0391098
1.08197
-0.04794
1.35499
-0.0578386
1.62274
-0.0683304
1.92103
-0.0786525
2.27411
-0.0872398
2.6934
-0.09184
3.19124
-0.0895396
3.1576
-0.0829114
2.61642
-0.0745703
2.17964
-0.0659399
1.82456
-0.0567154
1.52679
-0.0456692
1.256
-0.0311974
0.963842
-0.0162719
0.629228
-0.0049038
0.308118
0.0749526
-0.00860197
0.143227
-0.024399
0.445901
-0.0397646
0.781618
-0.0515391
1.09375
-0.0622448
1.3657
-0.0742537
1.63474
-0.0868093
1.93359
-0.0990279
2.28633
-0.108979
2.70335
-0.113433
3.19569
-0.109537
3.15371
-0.101044
2.60792
-0.0904021
2.169
-0.0792137
1.81337
-0.0674852
1.51506
-0.0540115
1.24253
-0.0373047
0.947135
-0.0197707
0.611694
-0.00591164
0.294259
0.0690409
-0.0106809
0.153908
-0.0302659
0.465486
-0.0498104
0.801162
-0.0653633
1.1093
-0.0795998
1.37994
-0.0946462
1.64979
-0.11006
1.949
-0.124579
2.30085
-0.135347
2.71412
-0.139067
3.19941
-0.134025
3.14867
-0.123326
2.59723
-0.110241
2.15591
-0.0967045
1.79983
-0.0823674
1.50073
-0.0651312
1.22529
-0.0443133
0.926317
-0.0233487
0.59073
-0.00692503
0.277836
0.0621159
-0.0151603
0.169068
-0.0414563
0.491782
-0.0664383
0.826144
-0.085894
1.12876
-0.102886
1.39693
-0.121103
1.66801
-0.139725
1.96762
-0.156447
2.31757
-0.168445
2.72612
-0.17181
3.20278
-0.163938
3.14079
-0.149962
2.58325
-0.13371
2.13966
-0.11618
1.7823
-0.0975929
1.48214
-0.0762959
1.204
-0.0520775
0.902098
-0.0275659
0.566218
-0.0079795
0.258249
0.0541364
-0.0190233
0.188091
-0.0531588
0.525918
-0.086169
0.859154
-0.111687
1.15427
-0.134408
1.41965
-0.157288
1.69089
-0.178733
1.98907
-0.196931
2.33577
-0.208309
2.7375
-0.208635
3.20311
-0.197554
3.12971
-0.180792
2.56649
-0.161265
2.12014
-0.140428
1.76147
-0.117965
1.45968
-0.0918249
1.17786
-0.061959
0.872233
-0.0321036
0.536363
-0.0089831
0.235129
0.0451533
-0.0327005
0.220792
-0.07905
0.572267
-0.120384
0.900489
-0.152378
1.18627
-0.180356
1.44763
-0.206329
1.71686
-0.22953
2.01227
-0.247554
2.3538
-0.257276
2.74722
-0.254745
3.20057
-0.23913
3.1141
-0.216959
2.54432
-0.192323
2.0955
-0.166142
1.73529
-0.138134
1.43167
-0.106885
1.14661
-0.0723578
0.837705
-0.037609
0.501614
-0.0102223
0.207742
0.0349309
-0.0470633
0.267855
-0.116828
0.642033
-0.173417
0.957077
-0.212183
1.22503
-0.24488
1.48032
-0.273095
1.74508
-0.295542
2.03471
-0.310593
2.36885
-0.314782
2.75141
-0.304383
3.19018
-0.281056
3.09077
-0.253764
2.51702
-0.225118
2.06685
-0.19545
1.70562
-0.163707
1.39992
-0.127219
1.11012
-0.0853313
0.795818
-0.0416411
0.457923
-0.0100623
0.176163
0.0248687
-0.032679
0.300534
-0.0913395
0.700693
-0.143486
1.00922
-0.187227
1.26878
-0.228026
1.52112
-0.263359
1.78041
-0.297422
2.06878
-0.327589
2.39901
-0.349677
2.7735
-0.357667
3.19817
-0.347009
3.08011
-0.321639
2.49165
-0.285954
2.03117
-0.242545
1.66221
-0.194591
1.35197
-0.142722
1.05825
-0.0866928
0.739788
-0.0364991
0.40773
-0.00798146
0.147646
0.0168872
-0.0109575
0.311491
-0.0417825
0.731518
-0.0796095
1.04705
-0.115827
1.30499
-0.15101
1.55631
-0.18464
1.81404
-0.216018
2.10016
-0.24231
2.42531
-0.259569
2.79075
-0.261028
3.19962
-0.241253
3.06034
-0.208378
2.45878
-0.170771
1.99356
-0.132193
1.62363
-0.0922494
1.31203
-0.0528428
1.01884
-0.0208589
0.707805
-0.00271048
0.389581
0.00103086
0.143904
0.0179181
0.00227355
0.309218
-0.0193246
0.753116
-0.0468213
1.07455
-0.0754044
1.33358
-0.104343
1.58525
-0.133286
1.84298
-0.160796
2.12767
-0.183636
2.44815
-0.197663
2.80478
-0.19673
3.19869
-0.177492
3.0411
-0.148927
2.43021
-0.115
1.95964
-0.0767799
1.58541
-0.0390529
1.2743
-0.00734295
0.987133
0.0124236
0.688038
0.0142475
0.387757
0.00567676
0.152475
0.0235948
0.00256536
0.306652
-0.00857318
0.764255
-0.0287677
1.09474
-0.0524459
1.35725
-0.0767494
1.60955
-0.101327
1.86756
-0.124815
2.15115
-0.144169
2.4675
-0.155096
2.81571
-0.151384
3.19498
-0.131767
3.02148
-0.103088
2.40153
-0.0688894
1.92544
-0.0355648
1.55209
-0.00807547
1.24681
0.0119806
0.967077
0.0216244
0.678394
0.018107
0.391275
0.0066353
0.163947
0.0302301
0.0047482
0.301904
-0.0032186
0.772222
-0.0206484
1.11217
-0.0403857
1.37699
-0.0608895
1.63005
-0.0819688
1.88864
-0.102274
2.17146
-0.119176
2.4844
-0.12897
2.8255
-0.126365
3.19237
-0.109005
3.00412
-0.0827999
2.37533
-0.0557572
1.8984
-0.030222
1.52655
-0.00526277
1.22185
0.0140886
0.947725
0.0212079
0.671275
0.0160173
0.396465
0.00545291
0.174511
0.0356831
0.00577167
0.296133
0.000486795
0.777507
-0.0148776
1.12754
-0.0330352
1.39515
-0.0516823
1.6487
-0.0705988
1.90755
-0.0888064
2.18967
-0.104076
2.49967
-0.112668
2.83409
-0.108666
3.18837
-0.0913379
2.9868
-0.0699209
2.35391
-0.0464231
1.8749
-0.0215912
1.50172
-0.000558184
1.20082
0.0132698
0.933897
0.018432
0.666113
0.0126174
0.40228
0.00399062
0.183138
0.0396737
0.00380496
0.292328
-0.000244071
0.781556
-0.01359
1.14088
-0.0299262
1.41149
-0.0469616
1.66574
-0.064308
1.9249
-0.0812484
2.20661
-0.0957754
2.5142
-0.104428
2.84275
-0.103334
3.18728
-0.0900308
2.97349
-0.0688955
2.33278
-0.0456117
1.85161
-0.0253602
1.48147
-0.00727181
1.18273
0.00587479
0.920751
0.0101167
0.661871
0.00786685
0.40453
0.00267116
0.188334
0.0423448
0.00256281
0.289765
-0.000755698
0.784874
-0.0128478
1.15297
-0.0282683
1.42691
-0.044638
1.68211
-0.0611843
1.94145
-0.0773958
2.22282
-0.0914785
2.52828
-0.100329
2.8516
-0.0993061
3.18626
-0.0857131
2.9599
-0.0680415
2.31511
-0.0493935
1.83297
-0.0297807
1.46185
-0.0146217
1.16757
-0.00356179
0.909691
0.00169094
0.656618
0.000508506
0.405712
0.000255234
0.188587
0.0426001
-0.000207619
0.289972
-0.00383857
0.788505
-0.0144231
1.16356
-0.0283477
1.44083
-0.0438296
1.69759
-0.0598098
1.95743
-0.0756548
2.23866
-0.0898887
2.54252
-0.0996733
2.86138
-0.10021
3.18679
-0.0897406
2.94943
-0.0723671
2.29773
-0.0536573
1.81426
-0.038855
1.44705
-0.0242156
1.15293
-0.0139336
0.899409
-0.00796443
0.650649
-0.00417616
0.401924
-0.00124972
0.18566
0.0413503
-0.000697536
0.29067
-0.00568563
0.793493
-0.0158878
1.17376
-0.028907
1.45385
-0.0437962
1.71248
-0.0593833
1.97301
-0.0751756
2.25446
-0.0897743
2.55711
-0.100336
2.87194
-0.10301
3.18947
-0.0940108
2.94043
-0.0785522
2.28227
-0.0620914
1.79779
-0.0447458
1.42971
-0.0309853
1.13917
-0.0195365
0.88796
-0.0117052
0.642818
-0.00699114
0.39721
-0.00210951
0.180779
0.0392408
-0.00262379
0.293294
-0.00804165
0.798911
-0.0175832
1.1833
-0.0298548
1.46612
-0.0440769
1.7267
-0.0594117
1.98835
-0.0754271
2.27047
-0.0907987
2.57249
-0.103193
2.88434
-0.108503
3.19478
-0.100832
2.93276
-0.0859676
2.26741
-0.0683654
1.78019
-0.0526609
1.414
-0.0387735
1.12528
-0.0276591
0.876845
-0.0183123
0.633471
-0.00899515
0.387893
-0.00274826
0.174532
0.0364926
-0.00389582
0.29719
-0.00947075
0.804486
-0.0188328
1.19266
-0.0307564
1.47805
-0.0445157
1.74046
-0.0595618
2.0034
-0.0756129
2.28652
-0.0912742
2.58815
-0.104044
2.89711
-0.109812
3.20054
-0.104785
2.92773
-0.0919261
2.25455
-0.076687
1.76495
-0.0597944
1.39711
-0.045155
1.11064
-0.0315826
0.863273
-0.0202393
0.622127
-0.0109497
0.378603
-0.00322127
0.166803
0.0332713
-0.00442409
0.301614
-0.0108103
0.810872
-0.0200389
1.20189
-0.0314975
1.4895
-0.0447638
1.75372
-0.0595602
2.01819
-0.0757459
2.30271
-0.0924008
2.6048
-0.108049
2.91275
-0.119143
3.21164
-0.117853
2.92644
-0.105277
2.24197
-0.0853795
1.74506
-0.0677403
1.37947
-0.0510631
1.09397
-0.0378439
0.850054
-0.0252818
0.609565
-0.0118553
0.365177
-0.00331467
0.158263
0.0299566
-0.00448504
0.306099
-0.0113351
0.817722
-0.0206425
1.2112
-0.0319236
1.50078
-0.0449095
1.76671
-0.0594495
2.03273
-0.075698
2.31896
-0.0928701
2.62197
-0.108769
2.92865
-0.119381
3.22225
-0.119835
2.9269
-0.110511
2.23265
-0.0958727
1.73042
-0.0752106
1.35881
-0.0569972
1.07575
-0.0400108
0.833067
-0.0249917
0.594546
-0.0125374
0.352723
-0.0032255
0.148951
0.0267311
-0.00455292
0.310652
-0.0118753
0.825044
-0.0210589
1.22038
-0.0320094
1.51174
-0.0446689
1.77937
-0.0590237
2.04709
-0.0753321
2.33526
-0.0929821
2.63962
-0.111113
2.94679
-0.127706
3.23884
-0.132554
2.93174
-0.12214
2.22224
-0.102416
1.71069
-0.0824663
1.33886
-0.0610479
1.05433
-0.0439127
0.815932
-0.0285501
0.579184
-0.012453
0.336625
-0.00285898
0.139357
0.0238721
-0.0045651
0.315217
-0.0119202
0.8324
-0.0209835
1.22945
-0.0317587
1.52251
-0.0442113
1.79182
-0.0583431
2.06122
-0.0745911
2.35151
-0.0927358
2.65777
-0.111522
2.96557
-0.127061
3.25438
-0.133224
2.93791
-0.128521
2.21753
-0.115055
1.69723
-0.0909263
1.31473
-0.0665311
1.02994
-0.0419698
0.791371
-0.0223427
0.559556
-0.0100431
0.324326
-0.00205195
0.131366
0.0218202
-0.00460486
0.319822
-0.0120142
0.839809
-0.0207865
1.23822
-0.0312101
1.53293
-0.0433519
1.80396
-0.0572929
2.07516
-0.0735298
2.36775
-0.0919516
2.67619
-0.111964
2.98558
-0.131972
3.27439
-0.144515
2.95045
-0.140236
2.21325
-0.12215
1.67914
-0.0992555
1.29184
-0.0696038
1.00029
-0.0427234
0.764491
-0.0199261
0.536759
-0.0055291
0.309929
-0.00225158
0.128088
0.0195686
-0.004531
0.324353
-0.011755
0.847033
-0.0202945
1.24676
-0.0304447
1.54308
-0.0422882
1.81581
-0.0559563
2.08883
-0.0720536
2.38385
-0.0906553
2.69479
-0.11132
3.00625
-0.131447
3.29452
-0.143449
2.96245
-0.145538
2.21534
-0.13603
1.66963
-0.110205
1.26601
-0.0764129
0.966495
-0.0346705
0.722748
0.00453897
0.49755
0.0246083
0.28986
0.0219317
0.130765
0.0415003
-0.00441048
0.328763
-0.0115237
0.854146
-0.0197248
1.25496
-0.0294604
1.55282
-0.0409113
1.82726
-0.0543057
2.10222
-0.070241
2.39978
-0.0888901
2.71344
-0.110279
3.02764
-0.133784
3.31802
-0.151917
2.98058
-0.156838
2.22026
-0.144243
1.65704
-0.121361
1.24313
-0.0818434
0.926977
-0.0361552
0.67706
0.0162248
0.44517
0.0369541
0.26913
0.0161974
0.151522
0.0576978
-0.00419349
0.332957
-0.01105
0.861003
-0.018978
1.26289
-0.0283625
1.5622
-0.0394574
1.83835
-0.0524772
2.11524
-0.0681384
2.41544
-0.0867992
2.7321
-0.108665
3.0495
-0.132378
3.34174
-0.150119
2.99833
-0.15918
2.22932
-0.159158
1.65702
-0.137776
1.22175
-0.0991508
0.888351
-0.0306955
0.608605
0.0720726
0.342402
0.168712
0.172491
0.174464
0.14577
0.232162
-0.00403785
0.336994
-0.0108195
0.867784
-0.0186164
1.27069
-0.0279173
1.57151
-0.0391354
1.84957
-0.0525954
2.1287
-0.0691465
2.43199
-0.0893267
2.75228
-0.113802
3.07398
-0.14295
3.37088
-0.169915
3.02529
-0.185575
2.24498
-0.183966
1.65541
-0.168335
1.20612
-0.128485
0.848501
-0.0827668
0.562886
-0.10893
0.368565
-0.363382
0.426943
-0.929337
0.711725
0.89491
-1.59209
-0.00383145
0.340826
-0.0103627
0.874315
-0.0179774
1.2783
-0.0271209
1.58065
-0.0382015
1.86065
-0.0516951
2.1422
-0.0685801
2.44888
-0.0896553
2.77336
-0.115991
3.10031
-0.147961
3.40285
-0.17695
3.05428
-0.198363
2.2664
-0.218106
1.67515
-0.219047
1.20706
-0.210217
0.839671
-0.289758
0.642428
-0.689527
0.768333
-1.41536
1.15277
-2.02856
1.32493
1.2195
-2.35315
-0.00362745
0.344453
-0.00990376
0.880592
-0.017226
1.28562
-0.0261065
1.58953
-0.0370203
1.87157
-0.0505724
2.15575
-0.0677967
2.4661
-0.089654
2.79522
-0.117672
3.12833
-0.153511
3.43869
-0.191391
3.09216
-0.224061
2.29907
-0.243379
1.69447
-0.25
1.21368
-0.337991
0.927662
-0.748128
1.05256
-1.5145
1.53471
-2.09421
1.73249
-2.33756
1.56827
1.33553
-2.45358
-0.00339756
0.347851
-0.0093133
0.886507
-0.0163785
1.29269
-0.025046
1.5982
-0.0357608
1.88228
-0.0492668
2.16925
-0.0666867
2.48352
-0.0892936
2.81782
-0.119054
3.15809
-0.158492
3.47813
-0.200821
3.13449
-0.236854
2.3351
-0.278856
1.73647
-0.369731
1.30455
-0.697198
1.25513
-1.41708
1.77245
-2.01429
2.13192
-2.25737
1.97556
-2.37258
1.68348
1.40168
-2.43873
-0.00313526
0.350986
-0.00868
0.892052
-0.0153741
1.29938
-0.0237145
1.60654
-0.0342691
1.89283
-0.0477474
2.18273
-0.0653737
2.50115
-0.0885987
2.84105
-0.119813
3.18931
-0.162324
3.52064
-0.212245
3.18441
-0.263404
2.38626
-0.315058
1.78812
-0.491707
1.4812
-1.07754
1.84096
-1.76831
2.46322
-2.09926
2.46287
-2.25132
2.12762
-2.33505
1.76721
1.46777
-2.40114
-0.00302664
0.354013
-0.00843588
0.897461
-0.0151324
1.30608
-0.0235413
1.61495
-0.0343131
1.90361
-0.0480015
2.19642
-0.0660487
2.5192
-0.0901329
2.86513
-0.123001
3.22217
-0.169768
3.56741
-0.227019
3.24166
-0.279713
2.43895
-0.375351
1.88376
-0.750849
1.8567
-1.47251
2.56262
-1.95664
2.94735
-2.15944
2.66567
-2.26727
2.23545
-2.34471
1.84465
1.53244
-2.40938
-0.00307801
0.357091
-0.00873511
0.903118
-0.0157307
1.31307
-0.0245128
1.62373
-0.0357856
1.91488
-0.0501313
2.21077
-0.0690366
2.5381
-0.0942785
2.89037
-0.129078
3.25697
-0.178586
3.61692
-0.237435
3.30051
-0.307569
2.50909
-0.496293
2.07249
-1.03212
2.39253
-1.66185
3.19235
-1.94741
3.23291
-2.09698
2.81524
-2.21281
2.35128
-2.30722
1.93907
1.59551
-2.37029
-0.00307465
0.360165
-0.00896836
0.909012
-0.016422
1.32053
-0.0257315
1.63304
-0.0374936
1.92664
-0.0524288
2.2257
-0.0721086
2.55778
-0.0985223
2.91679
-0.134944
3.2934
-0.188178
3.67015
-0.256609
3.36894
-0.349331
2.60181
-0.621419
2.34457
-1.24613
3.01724
-1.74394
3.69016
-1.95447
3.44344
-2.0983
2.95907
-2.22489
2.47786
-2.33871
2.05289
1.65561
-2.39881
-0.00300381
0.363169
-0.00917104
0.915179
-0.0169874
1.32834
-0.0267338
1.64278
-0.0390475
1.93896
-0.0547092
2.24136
-0.0752961
2.57837
-0.102899
2.94439
-0.141345
3.33184
-0.196965
3.72577
-0.266062
3.43804
-0.38983
2.72558
-0.762562
2.71731
-1.3901
3.64477
-1.75587
4.05593
-1.93315
3.62072
-2.03938
3.06531
-2.1323
2.57077
-2.20319
2.12378
1.6497
-2.19728
-0.00287648
0.366046
-0.00922759
0.92153
-0.0175793
1.3367
-0.0279397
1.65314
-0.0408107
1.95183
-0.0570718
2.25762
-0.0784435
2.59974
-0.10719
2.97314
-0.146942
3.37159
-0.20455
3.78338
-0.286647
3.52014
-0.455288
2.89422
-0.893186
3.15521
-1.44732
4.19891
-1.71588
4.3245
-1.87489
3.77973
-1.97237
3.16279
-1.97814
2.57654
-1.91584
2.06148
1.62513
-1.89126
-0.00253548
0.368581
-0.00918709
0.928182
-0.0178271
1.34534
-0.0285347
1.66385
-0.041856
1.96515
-0.0586012
2.27437
-0.0803798
2.62152
-0.109412
3.00217
-0.149786
3.41197
-0.206795
3.84039
-0.291907
3.60525
-0.489557
3.09187
-0.961683
3.62733
-1.41169
4.64891
-1.58833
4.50114
-1.66064
3.85203
-1.66886
3.17102
-1.52551
2.43319
-1.02914
1.56511
0.595988
-0.00215811
0.370739
-0.00884472
0.934869
-0.0180689
1.35456
-0.0295846
1.67537
-0.0438237
1.97939
-0.0616811
2.29223
-0.0851274
2.64497
-0.116637
3.03368
-0.160298
3.45563
-0.223075
3.90316
-0.32638
3.70855
-0.575074
3.34056
-1.09959
4.15185
-1.46877
5.01809
-1.57095
4.60332
-1.573
3.85409
-1.47499
3.07301
-1.23898
2.19717
-0.646346
0.972476
-0.0503575
-0.00166724
0.372406
-0.00821688
0.941418
-0.0176482
1.36399
-0.0297018
1.68742
-0.0448535
1.99454
-0.0640679
2.31144
-0.0892805
2.67018
-0.123268
3.06767
-0.171224
3.50358
-0.241273
3.97321
-0.361058
3.82834
-0.658152
3.63766
-1.20495
4.69865
-1.48252
5.29567
-1.54921
4.67001
-1.53435
3.83922
-1.33596
2.87462
-0.79984
1.66105
-0.117152
0.289788
-0.167509
-0.000941226
0.373348
-0.00709802
0.947575
-0.0170101
1.3739
-0.0298796
1.70029
-0.0458037
2.01046
-0.0659904
2.33163
-0.092786
2.69697
-0.129178
3.10406
-0.180199
3.55461
-0.255413
4.04843
-0.397859
3.97078
-0.754424
3.99422
-1.291
5.23522
-1.47929
5.48395
-1.50849
4.69921
-1.42661
3.75734
-1.11714
2.56515
-0.330383
0.874289
0.0311624
-0.0717574
-0.136347
-3.39423e-05
0.373382
-0.00523725
0.952778
-0.0151186
1.38378
-0.0284047
1.71358
-0.0450745
2.02713
-0.0665331
2.35309
-0.0949213
2.72536
-0.133471
3.14261
-0.187468
3.6086
-0.272675
4.13363
-0.440093
4.1382
-0.846801
4.40093
-1.32208
5.7105
-1.44744
5.60932
-1.45902
4.7108
-1.25727
3.55559
-0.716445
2.02433
-0.0691129
0.226957
0.0342859
-0.175156
-0.102061
0.00177279
0.371609
-0.00220307
0.956754
-0.0126663
1.39425
-0.026774
1.72768
-0.0438322
2.04419
-0.0659783
2.37523
-0.0955287
2.75491
-0.135656
3.18273
-0.191591
3.66454
-0.282589
4.22463
-0.472271
4.32788
-0.932458
4.86112
-1.32617
6.10421
-1.40051
5.68366
-1.36311
4.67339
-1.07767
3.27015
-0.35489
1.30155
-0.0129364
-0.114997
0.0087148
-0.196807
-0.0933464
0.00361053
0.367998
0.00145844
0.958906
-0.00849856
1.4042
-0.0223301
1.74152
-0.039757
2.06162
-0.0628648
2.39834
-0.0934447
2.78549
-0.134853
3.22414
-0.193004
3.72269
-0.292176
4.3238
-0.504838
4.54055
-0.984679
5.34096
-1.27171
6.39124
-1.31224
5.72418
-1.20505
4.5662
-0.822411
2.88752
-0.105962
0.5851
0.0389155
-0.259874
0.0226288
-0.180521
-0.0707176
0.00583471
0.362164
0.00516257
0.959578
-0.00362357
1.41299
-0.0172367
1.75513
-0.0345327
2.07891
-0.0577169
2.42152
-0.0884716
2.81625
-0.130396
3.26607
-0.189542
3.78183
-0.292884
4.42715
-0.521929
4.76959
-0.99675
5.81578
-1.20612
6.60061
-1.22544
5.74351
-1.04018
4.38094
-0.50901
2.35635
-0.00532919
0.0814197
0.0151635
-0.280367
0.0161181
-0.181475
-0.0545995
0.00868594
0.353478
0.0110361
0.957228
0.00484062
1.41919
-0.00732181
1.76729
-0.0250341
2.09663
-0.0482624
2.44475
-0.0788552
2.84684
-0.120163
3.30737
-0.179175
3.84085
-0.286873
4.53484
-0.53036
5.01308
-0.965655
6.25107
-1.09869
6.73364
-1.08043
5.72525
-0.851108
4.15162
-0.311129
1.81637
-0.0644026
-0.165307
-0.0369692
-0.3078
-0.00901537
-0.209429
-0.0636149
0.0127275
0.34075
0.0190441
0.950912
0.014571
1.42366
0.00372792
1.77813
-0.0134878
2.11384
-0.0352645
2.46653
-0.0640533
2.87563
-0.103859
3.34718
-0.160785
3.89777
-0.268237
4.6423
-0.506465
5.25131
-0.88079
6.6254
-0.971131
6.82399
-0.949956
5.70407
-0.691325
3.89299
-0.150524
1.27557
-0.060047
-0.255783
-0.0350639
-0.332783
-0.00885425
-0.235639
-0.0724692
0.0178547
0.322895
0.0298858
0.938881
0.0294484
1.4241
0.0202079
1.78738
0.00485441
2.12919
-0.0146653
2.48605
-0.0417532
2.90272
-0.0783042
3.38373
-0.130469
3.94994
-0.233068
4.74489
-0.45362
5.47186
-0.744938
6.91672
-0.807986
6.88703
-0.72716
5.62325
-0.435728
3.60155
0.0268625
0.812975
0.0332381
-0.262159
0.0246393
-0.324184
0.0262209
-0.23722
-0.0462482
0.0244014
0.298494
0.0434836
0.919798
0.0469331
1.42065
0.0403246
1.79398
0.0288085
2.14071
0.0117561
2.5031
-0.0114794
2.92595
-0.0430636
3.41531
-0.0892327
3.99611
-0.177786
4.83345
-0.362868
5.65694
-0.556665
7.11051
-0.616928
6.9473
-0.568499
5.57482
-0.287647
3.3207
0.0210129
0.504315
-0.0131008
-0.228045
0.00687445
-0.34416
0.0324553
-0.262801
-0.0137929
0.0320152
0.266479
0.0608659
0.890948
0.0721228
1.40939
0.0705576
1.79555
0.0622129
2.14906
0.0484725
2.51684
0.029958
2.94447
0.00501584
3.44026
-0.0319228
4.03304
-0.091494
4.89302
-0.221057
5.7865
-0.341245
7.2307
-0.428742
7.03479
-0.511375
5.65745
-0.450743
3.26007
-0.514691
0.568263
-0.529166
-0.21357
-0.363427
-0.509899
-0.166668
-0.45956
-0.180461
0.0410043
0.225474
0.081998
0.849954
0.101275
1.39011
0.105189
1.79163
0.10222
2.15202
0.0938869
2.52517
0.0828674
2.95549
0.0673078
3.45582
0.0452181
4.05513
0.0204254
4.91781
-0.00853057
5.81546
-0.0610708
7.28324
-0.133039
7.10676
-0.277009
5.80142
-0.504559
3.48762
-0.824232
0.887935
-0.830685
-0.207117
-0.626525
-0.714058
-0.308094
-0.777991
-0.488555
0.0495822
0.175892
0.106819
0.792717
0.1397
1.35723
0.15211
1.77922
0.155543
2.14859
0.152172
2.52855
0.149345
2.95831
0.146353
3.45881
0.148088
4.0534
0.157794
4.90811
0.235201
5.73805
0.337727
7.18071
0.361003
7.08349
0.325584
5.83684
0.0697689
3.74344
-0.391208
1.34891
-0.658557
0.0602317
-0.648011
-0.724604
-0.326532
-1.09947
-0.815087
0.0541712
0.121721
0.132846
0.714042
0.182697
1.30738
0.205903
1.75602
0.217712
2.13678
0.222766
2.52349
0.230155
2.95092
0.241767
3.4472
0.269293
4.02587
0.325492
4.85191
0.538569
5.52497
0.950822
6.76846
1.32393
6.71038
1.71997
5.44079
1.58285
3.88056
0.951154
1.98061
0.435717
0.575669
0.0701098
-0.358997
-0.0826983
-0.946662
-0.897786
0.0494536
0.0722674
0.157907
0.605589
0.234176
1.23111
0.27261
1.71759
0.294133
2.11526
0.307355
2.51027
0.324336
2.93394
0.351136
3.4204
0.407789
3.96922
0.528608
4.73109
0.871117
5.18247
1.55415
6.08543
1.98481
6.27972
2.27283
5.15277
2.27101
3.88238
1.84057
2.41105
1.35743
1.05881
0.863547
0.134891
0.328814
-0.411929
-0.568972
0.0376098
0.0346576
0.181339
0.461859
0.287904
1.12455
0.347754
1.65773
0.381046
2.08197
0.40588
2.48544
0.431962
2.90786
0.471165
3.38119
0.543434
3.89695
0.701481
4.57304
1.07271
4.81124
1.80173
5.35641
2.21585
5.8656
2.4577
4.91093
2.48774
3.85234
2.13122
2.76757
1.55858
1.63144
0.960343
0.733132
0.427885
0.120529
-0.141087
0.0289468
0.00571079
0.202926
0.28788
0.35055
0.976924
0.435372
1.57291
0.480582
2.03676
0.515525
2.45049
0.545462
2.87792
0.590441
3.33621
0.659655
3.82774
0.798078
4.43462
1.06078
4.54854
1.69875
4.71843
2.0831
5.48126
2.22528
4.76874
2.19455
3.88307
1.94441
3.01771
1.4675
2.10835
0.938088
1.26255
0.396823
0.661794
0.255736
0.0290211
-0.0233103
0.19301
0.12389
0.407227
0.762707
0.529094
1.45105
0.590285
1.97557
0.63488
2.4059
0.66686
2.84594
0.704381
3.29869
0.74753
3.78459
0.834986
4.34716
0.975338
4.40819
1.39151
4.30226
1.80401
5.06875
1.84331
4.72944
1.75478
3.97159
1.54505
3.22744
1.17336
2.48004
0.726627
1.70928
0.298178
1.09024
0.553914
0.0311663
-0.0544766
0.135941
0.0191156
0.364948
0.5337
0.515732
1.30026
0.582094
1.9092
0.608022
2.37997
0.617517
2.83645
0.614008
3.3022
0.601198
3.7974
0.594645
4.35372
0.615063
4.38777
0.772727
4.1446
0.981569
4.85991
0.974655
4.73635
0.886979
4.05927
0.762361
3.35206
0.581551
2.66085
0.351816
1.93902
0.135178
1.30688
0.689092
0.022757
-0.0772337
0.0676692
-0.0257965
0.20081
0.400559
0.326171
1.1749
0.401506
1.83387
0.437842
2.34363
0.459124
2.81517
0.464236
3.29709
0.46121
3.80042
0.455247
4.35968
0.444595
4.39842
0.524637
4.06456
0.673197
4.71135
0.67799
4.73156
0.604591
4.13267
0.50676
3.44989
0.37965
2.78796
0.220265
2.0984
0.0734
1.45375
0.762492
0.0166389
-0.0938726
0.0257684
-0.034926
0.0700119
0.356316
0.150112
1.0948
0.219273
1.76471
0.268972
2.29393
0.306424
2.77771
0.329911
3.27361
0.342692
3.78764
0.339958
4.36241
0.318436
4.41994
0.347384
4.03561
0.443289
4.61545
0.448143
4.72671
0.395625
4.18519
0.315004
3.53051
0.22004
2.88292
0.109651
2.20879
0.0171098
1.54629
0.779602
0.000197324
-0.0940699
-0.0236911
-0.0110376
-0.0370242
0.369649
0.00208824
1.05569
0.0579864
1.70881
0.115572
2.23635
0.167032
2.72625
0.209827
3.23081
0.235009
3.76246
0.236909
4.36051
0.219488
4.43736
0.225851
4.02924
0.281532
4.55977
0.274914
4.73332
0.231528
4.22857
0.17364
3.5884
0.110149
2.94641
0.0442942
2.27465
-0.0136316
1.60421
0.76597
-0.0201436
-0.0739263
-0.0676239
0.0364428
-0.110732
0.412757
-0.108709
1.05367
-0.0598339
1.65994
0.00113802
2.17538
0.0565173
2.67088
0.105313
3.18201
0.135741
3.73203
0.149642
4.34661
0.140782
4.44622
0.141175