/*--------------------------------*- C++ -*----------------------------------*\
| =========                 |                                                 |
| \\      /  F ield         | OpenFOAM: The Open Source CFD Toolbox           |
|  \\    /   O peration     | Version:  4.0                                   |
|   \\  /    A nd           | Web:      www.OpenFOAM.org                      |
|    \\/     M anipulation  |                                                 |
\*---------------------------------------------------------------------------*/
FoamFile
{
    version     2.0;
    format      ascii;
    class       volVectorField;
    location    "32";
    object      U;
}
// * * * * * * * * * * * * * * * * * * * * * * * * * * * * * * * * * * * * * //

dimensions      [0 1 -1 0 0 0 0];

internalField   nonuniform List<vector> 
2200
(
(0.878851 -0.0304142 0)
(1.0058 -0.0512801 0)
(1.00329 -0.0353965 0)
(1.00022 -0.0244267 0)
(0.999792 -0.0166268 0)
(1.00002 -0.0106864 0)
(1.00005 -0.00683316 0)
(1.00003 -0.00421174 0)
(1.00003 -0.00221846 0)
(1.00016 -0.0007064 0)
(1.00005 0.000887704 0)
(1.00001 0.00245118 0)
(1.00003 0.0044497 0)
(1.00003 0.00704571 0)
(1 0.0107486 0)
(0.999791 0.0166351 0)
(1.00024 0.0244266 0)
(1.0035 0.0351173 0)
(1.00592 0.0513401 0)
(0.878985 0.0303579 0)
(0.711993 -0.0327691 0)
(0.996629 -0.0630352 0)
(1.03332 -0.0561831 0)
(1.02499 -0.0464896 0)
(1.01603 -0.0362025 0)
(1.00961 -0.0264501 0)
(1.00582 -0.0182595 0)
(1.00371 -0.0115629 0)
(1.00256 -0.00619439 0)
(1.00201 -0.00162969 0)
(1.00205 0.00254893 0)
(1.00259 0.00704127 0)
(1.00368 0.0122159 0)
(1.00563 0.018793 0)
(1.00947 0.0271065 0)
(1.0159 0.0368288 0)
(1.02485 0.0471599 0)
(1.03307 0.0572775 0)
(0.996614 0.0631741 0)
(0.711774 0.0329475 0)
(0.535432 -0.0239001 0)
(0.96984 -0.056956 0)
(1.05633 -0.0547855 0)
(1.05211 -0.0488219 0)
(1.03616 -0.0405787 0)
(1.02445 -0.0325126 0)
(1.01586 -0.0241206 0)
(1.0104 -0.0161816 0)
(1.00715 -0.00897837 0)
(1.00562 -0.00244736 0)
(1.0055 0.0038215 0)
(1.00691 0.0102347 0)
(1.0101 0.0173508 0)
(1.01573 0.0251936 0)
(1.02423 0.0333783 0)
(1.03589 0.0412196 0)
(1.05185 0.0492667 0)
(1.05627 0.0540729 0)
(0.969254 0.0574513 0)
(0.534477 0.0239272 0)
(0.392241 -0.0136372 0)
(0.911777 -0.0463798 0)
(1.05738 -0.0468642 0)
(1.06938 -0.0442276 0)
(1.05464 -0.0380775 0)
(1.03923 -0.0314859 0)
(1.02764 -0.0247936 0)
(1.01915 -0.0176331 0)
(1.01377 -0.0101729 0)
(1.01112 -0.00263544 0)
(1.01101 0.00485577 0)
(1.01356 0.0123127 0)
(1.01883 0.0195627 0)
(1.02703 0.0263951 0)
(1.03849 0.0326557 0)
(1.05402 0.039149 0)
(1.06864 0.0452334 0)
(1.05596 0.0478221 0)
(0.910344 0.0467915 0)
(0.390489 0.0137074 0)
(0.307558 -0.00451883 0)
(0.846475 -0.0324247 0)
(1.04931 -0.0400669 0)
(1.07939 -0.0383954 0)
(1.06801 -0.0336315 0)
(1.05146 -0.0278854 0)
(1.03821 -0.0226135 0)
(1.02802 -0.0167219 0)
(1.02105 -0.0100288 0)
(1.01731 -0.00255666 0)
(1.01716 0.0053124 0)
(1.02058 0.0125675 0)
(1.02725 0.0190023 0)
(1.03724 0.0245677 0)
(1.05039 0.0297364 0)
(1.06676 0.0352137 0)
(1.07778 0.0396924 0)
(1.04734 0.0412824 0)
(0.843532 0.032851 0)
(0.304708 0.00467286 0)
(0.264098 8.6359e-05 0)
(0.788626 -0.0200885 0)
(1.03296 -0.0314716 0)
(1.08351 -0.0321026 0)
(1.07738 -0.0288541 0)
(1.06079 -0.0239444 0)
(1.04695 -0.0193961 0)
(1.03604 -0.0144097 0)
(1.02819 -0.00855119 0)
(1.02376 -0.00176632 0)
(1.02346 0.00554134 0)
(1.02738 0.0120409 0)
(1.0348 0.0174232 0)
(1.0456 0.022124 0)
(1.05914 0.0261335 0)
(1.07559 0.0306487 0)
(1.08144 0.0335773 0)
(1.03032 0.0327136 0)
(0.7843 0.0205407 0)
(0.260262 5.85049e-05 0)
(0.240238 0.00108789 0)
(0.73839 -0.0122282 0)
(1.0137 -0.0248686 0)
(1.08386 -0.0267122 0)
(1.08283 -0.0245641 0)
(1.06771 -0.0206027 0)
(1.05405 -0.0166819 0)
(1.04318 -0.0122791 0)
(1.0352 -0.00706192 0)
(1.0306 -0.000947803 0)
(1.03021 0.00565071 0)
(1.0341 0.0114922 0)
(1.0416 0.0163665 0)
(1.05188 0.0203007 0)
(1.06542 0.0237738 0)
(1.08025 0.027296 0)
(1.08054 0.0288814 0)
(1.00871 0.026494 0)
(0.731349 0.0128712 0)
(0.235037 -0.000914475 0)
(0.225838 0.000946143 0)
(0.695036 -0.00803859 0)
(0.992304 -0.0208222 0)
(1.08139 -0.0232428 0)
(1.08618 -0.0215789 0)
(1.0728 -0.0182403 0)
(1.05942 -0.0145445 0)
(1.04887 -0.0102545 0)
(1.04101 -0.00533548 0)
(1.03631 0.000201956 0)
(1.03576 0.00588764 0)
(1.03944 0.0110262 0)
(1.0466 0.0153093 0)
(1.05668 0.0188488 0)
(1.0698 0.0220992 0)
(1.08253 0.0247092 0)
(1.07695 0.0257204 0)
(0.985804 0.0226808 0)
(0.685693 0.00880062 0)
(0.219273 -0.000767211 0)
(0.216329 0.000594841 0)
(0.66005 -0.00563711 0)
(0.972407 -0.0175534 0)
(1.07885 -0.0201725 0)
(1.08926 -0.018714 0)
(1.0773 -0.0158325 0)
(1.06401 -0.0125169 0)
(1.05363 -0.00854925 0)
(1.04582 -0.00391602 0)
(1.04099 0.00116111 0)
(1.04023 0.00616256 0)
(1.04372 0.0108356 0)
(1.05047 0.0147357 0)
(1.06032 0.0180703 0)
(1.0731 0.0205426 0)
(1.08422 0.0227806 0)
(1.07226 0.023534 0)
(0.962432 0.0198749 0)
(0.646855 0.00658216 0)
(0.207813 -0.000393365 0)
(0.209269 0.000332847 0)
(0.631792 -0.00396424 0)
(0.953101 -0.0145725 0)
(1.07537 -0.017517 0)
(1.09208 -0.0162679 0)
(1.08149 -0.0135514 0)
(1.06817 -0.0102371 0)
(1.05778 -0.00643155 0)
(1.04997 -0.00217723 0)
(1.04499 0.0024534 0)
(1.04404 0.00703436 0)
(1.04729 0.0111024 0)
(1.05387 0.0144698 0)
(1.06303 0.0172447 0)
(1.07574 0.0195439 0)
(1.08536 0.0213384 0)
(1.06665 0.0215207 0)
(0.939918 0.0173457 0)
(0.61488 0.00517218 0)
(0.198657 -7.43795e-05 0)
(0.204072 0.000144341 0)
(0.609697 -0.00275505 0)
(0.935827 -0.0117125 0)
(1.07219 -0.01471 0)
(1.09485 -0.0137508 0)
(1.08544 -0.01129 0)
(1.07199 -0.00821671 0)
(1.06145 -0.00476236 0)
(1.05357 -0.000832622 0)
(1.04853 0.00346301 0)
(1.04726 0.00783728 0)
(1.05004 0.0113884 0)
(1.05625 0.0143354 0)
(1.06571 0.0166078 0)
(1.07842 0.0188439 0)
(1.08623 0.0201695 0)
(1.06049 0.0199477 0)
(0.918106 0.0151751 0)
(0.587689 0.00421425 0)
(0.190605 0.000167191 0)
(0.200206 3.68515e-05 0)
(0.592999 -0.00181848 0)
(0.921137 -0.00920244 0)
(1.06904 -0.0123423 0)
(1.09791 -0.0114427 0)
(1.08981 -0.00906623 0)
(1.0759 -0.00606357 0)
(1.06469 -0.00284437 0)
(1.05632 0.000889889 0)
(1.05097 0.00512403 0)
(1.04925 0.00946796 0)
(1.05166 0.0128123 0)
(1.05778 0.015098 0)
(1.06744 0.016954 0)
(1.08023 0.0181398 0)
(1.08631 0.0191917 0)
(1.053 0.0183045 0)
(0.897336 0.0132921 0)
(0.564923 0.00361195 0)
(0.183442 0.0003694 0)
(0.19746 -2.18702e-05 0)
(0.5806 -0.000986321 0)
(0.90794 -0.00678373 0)
(1.06651 -0.00927307 0)
(1.10101 -0.00854844 0)
(1.0943 -0.00627256 0)
(1.08015 -0.00343535 0)
(1.06842 -0.000431199 0)
(1.05938 0.00301814 0)
(1.05334 0.00695185 0)
(1.05118 0.0107611 0)
(1.05358 0.0136086 0)
(1.05989 0.0154167 0)
(1.06974 0.0164225 0)
(1.08252 0.0177913 0)
(1.0862 0.018123 0)
(1.04625 0.0171202 0)
(0.878348 0.011753 0)
(0.545504 0.0032115 0)
(0.17659 0.000490972 0)
(0.196308 -8.99082e-05 0)
(0.572794 -9.50608e-05 0)
(0.898779 -0.00377257 0)
(1.06413 -0.00626007 0)
(1.10389 -0.00542969 0)
(1.09867 -0.00326344 0)
(1.08475 -0.000445541 0)
(1.07302 0.00260155 0)
(1.06381 0.00595523 0)
(1.05738 0.00948348 0)
(1.05478 0.0124082 0)
(1.05655 0.0145403 0)
(1.06224 0.0158877 0)
(1.07169 0.0168607 0)
(1.08304 0.0172233 0)
(1.0849 0.0171953 0)
(1.03742 0.0154201 0)
(0.859563 0.0100028 0)
(0.529219 0.00276458 0)
(0.170329 0.000510745 0)
(0.196679 -0.000177043 0)
(0.570226 0.000998679 0)
(0.891387 -0.00132764 0)
(1.063 -0.00289223 0)
(1.10662 -0.00199822 0)
(1.10256 -1.20217e-05 0)
(1.08905 0.00249945 0)
(1.07743 0.00559699 0)
(1.06816 0.00889886 0)
(1.06117 0.0122127 0)
(1.05767 0.01471 0)
(1.05847 0.0164418 0)
(1.06336 0.0171687 0)
(1.07185 0.0176027 0)
(1.08257 0.0171749 0)
(1.0826 0.016475 0)
(1.02916 0.014315 0)
(0.843246 0.00869992 0)
(0.515733 0.00247424 0)
(0.164691 0.000502541 0)
(0.19864 0.000337377 0)
(0.571054 0.00156379 0)
(0.887547 0.00158487 0)
(1.06214 0.000119312 0)
(1.10925 0.00140314 0)
(1.10589 0.00343076 0)
(1.09239 0.00606992 0)
(1.08045 0.00915733 0)
(1.07074 0.0125099 0)
(1.06325 0.0157663 0)
(1.05921 0.0180304 0)
(1.05922 0.0191315 0)
(1.0633 0.0192028 0)
(1.07132 0.0187626 0)
(1.08135 0.017701 0)
(1.07831 0.0164087 0)
(1.01818 0.013481 0)
(0.825976 0.00774298 0)
(0.503146 0.00243943 0)
(0.159314 0.000514522 0)
(0.203265 0.000620233 0)
(0.57495 0.00238244 0)
(0.888493 0.00381155 0)
(1.06288 0.00395542 0)
(1.11195 0.00556277 0)
(1.10944 0.00771057 0)
(1.09578 0.0103345 0)
(1.08318 0.0134598 0)
(1.07248 0.0166845 0)
(1.06366 0.0196445 0)
(1.05827 0.0215464 0)
(1.05764 0.0220426 0)
(1.06163 0.0213807 0)
(1.06962 0.0200058 0)
(1.07863 0.0184361 0)
(1.07387 0.0165852 0)
(1.00912 0.0132983 0)
(0.812469 0.00752939 0)
(0.492399 0.00260274 0)
(0.154115 0.000529868 0)
(0.208865 0.000659656 0)
(0.582474 0.00339384 0)
(0.892306 0.00622968 0)
(1.06561 0.00749198 0)
(1.11596 0.00976279 0)
(1.11387 0.012396 0)
(1.1 0.0157256 0)
(1.08695 0.0190284 0)
(1.07545 0.0223232 0)
(1.0656 0.0250271 0)
(1.05934 0.0263424 0)
(1.05742 0.0257064 0)
(1.05991 0.0241294 0)
(1.06697 0.0222843 0)
(1.07466 0.0201452 0)
(1.06732 0.017393 0)
(0.996462 0.0133939 0)
(0.79565 0.00760463 0)
(0.479862 0.00289914 0)
(0.148172 0.000559515 0)
(0.217497 0.000846741 0)
(0.596278 0.00441123 0)
(0.901495 0.008766 0)
(1.07109 0.0114784 0)
(1.12076 0.0141103 0)
(1.11937 0.0174644 0)
(1.1054 0.0210714 0)
(1.09181 0.0249225 0)
(1.07942 0.0285955 0)
(1.06798 0.0312155 0)
(1.05935 0.032011 0)
(1.05575 0.0307051 0)
(1.05771 0.0283547 0)
(1.06402 0.0252714 0)
(1.07039 0.022364 0)
(1.06101 0.0189303 0)
(0.986481 0.0145796 0)
(0.783299 0.00867597 0)
(0.468633 0.00343803 0)
(0.142081 0.000608651 0)
(0.226802 0.00112609 0)
(0.610546 0.0051938 0)
(0.913181 0.0109281 0)
(1.0792 0.0148635 0)
(1.12801 0.0187125 0)
(1.12606 0.0227898 0)
(1.11109 0.0272535 0)
(1.09641 0.0318455 0)
(1.08269 0.0359768 0)
(1.06985 0.0389916 0)
(1.05986 0.039586 0)
(1.05472 0.0375721 0)
(1.05439 0.0341264 0)
(1.05937 0.0304623 0)
(1.06457 0.0266248 0)
(1.05209 0.0224596 0)
(0.971299 0.0169604 0)
(0.763538 0.0102813 0)
(0.451904 0.00420236 0)
(0.133903 0.000728235 0)
(0.240276 0.00151006 0)
(0.631769 0.0070384 0)
(0.930407 0.014401 0)
(1.08972 0.0198917 0)
(1.13568 0.0243429 0)
(1.13339 0.0294458 0)
(1.1174 0.0348088 0)
(1.10129 0.0401541 0)
(1.08559 0.0451117 0)
(1.0703 0.0485364 0)
(1.05729 0.0486575 0)
(1.05022 0.0458032 0)
(1.04965 0.0416615 0)
(1.05409 0.0366293 0)
(1.05757 0.0320539 0)
(1.04283 0.0264325 0)
(0.95808 0.0200759 0)
(0.747972 0.0125068 0)
(0.436146 0.0051073 0)
(0.125222 0.000845993 0)
(0.256295 0.00201828 0)
(0.656175 0.00855585 0)
(0.950671 0.0179798 0)
(1.10341 0.0250424 0)
(1.14644 0.0310895 0)
(1.14279 0.0376898 0)
(1.12522 0.0440992 0)
(1.10724 0.0508102 0)
(1.08926 0.0564031 0)
(1.07143 0.0598882 0)
(1.05616 0.0594202 0)
(1.04705 0.0561714 0)
(1.04352 0.0507933 0)
(1.04611 0.0446344 0)
(1.04822 0.0391683 0)
(1.02948 0.0321356 0)
(0.937284 0.0240211 0)
(0.720814 0.0147791 0)
(0.411628 0.00600319 0)
(0.11335 0.000974935 0)
(0.278561 0.00280297 0)
(0.689671 0.0122281 0)
(0.977979 0.0240007 0)
(1.12102 0.0332575 0)
(1.15921 0.0405055 0)
(1.1541 0.0481251 0)
(1.13469 0.0563411 0)
(1.11445 0.0641038 0)
(1.09361 0.0705354 0)
(1.07238 0.0743019 0)
(1.05365 0.0733537 0)
(1.04163 0.0682877 0)
(1.03734 0.0617735 0)
(1.0385 0.054121 0)
(1.03758 0.0466708 0)
(1.01433 0.0377393 0)
(0.917198 0.0280674 0)
(0.698602 0.0174942 0)
(0.389498 0.00705686 0)
(0.101573 0.00102709 0)
(0.309004 0.00371747 0)
(0.733353 0.0150546 0)
(1.0128 0.0312231 0)
(1.14338 0.0432852 0)
(1.1754 0.0524597 0)
(1.16778 0.0631279 0)
(1.14569 0.0724707 0)
(1.12252 0.0814498 0)
(1.09834 0.088189 0)
(1.07346 0.0911113 0)
(1.0511 0.0884952 0)
(1.03613 0.0824778 0)
(1.02808 0.0744796 0)
(1.02629 0.0654697 0)
(1.02312 0.0562479 0)
(0.994287 0.0457104 0)
(0.888382 0.0335604 0)
(0.661001 0.0207108 0)
(0.354471 0.00800551 0)
(0.0855558 0.001116 0)
(0.344786 0.00736248 0)
(0.788625 0.0244882 0)
(1.05576 0.0438511 0)
(1.17087 0.0592588 0)
(1.19509 0.0714933 0)
(1.18324 0.0833685 0)
(1.15765 0.0943658 0)
(1.13063 0.103621 0)
(1.10216 0.109949 0)
(1.07281 0.111881 0)
(1.04688 0.108042 0)
(1.02915 0.0995758 0)
(1.01959 0.0891473 0)
(1.01529 0.0779274 0)
(1.00679 0.0662328 0)
(0.971309 0.0531471 0)
(0.858561 0.0391124 0)
(0.628762 0.024198 0)
(0.324508 0.00941915 0)
(0.0710115 0.0010479 0)
(0.426444 0.0111472 0)
(0.871734 0.0351848 0)
(1.1139 0.0640651 0)
(1.20532 0.0843423 0)
(1.21832 0.0971623 1.37422e-33)
(1.20054 0.112756 -5.94461e-34)
(1.16986 0.123598 0)
(1.13824 0.132088 0)
(1.10519 0.136783 0)
(1.07121 0.135983 0)
(1.04057 0.128513 0)
(1.01852 0.116789 0)
(1.00476 0.104483 0)
(0.99668 0.0915755 0)
(0.985615 0.0781415 0)
(0.943606 0.0634296 0)
(0.820002 0.0463961 0)
(0.577116 0.0285369 0)
(0.274924 0.0096018 0)
(0.0500779 0.000778833 0)
(0.495901 0.0262187 1.18293e-19)
(0.967486 0.0591055 -8.86489e-20)
(1.17566 0.096886 0)
(1.24072 0.119931 6.29854e-20)
(1.24362 0.136512 -5.10328e-20)
(1.21721 0.152041 6.27194e-34)
(1.18115 0.161396 0)
(1.14439 0.167932 3.05171e-20)
(1.10583 0.170221 -9.83106e-20)
(1.06639 0.166599 1.9665e-20)
(1.03165 0.156422 0)
(1.00728 0.142714 -4.62425e-20)
(0.991414 0.127137 -5.44006e-20)
(0.979324 0.11107 9.48411e-20)
(0.958123 0.0943955 -7.44557e-20)
(0.903068 0.0760052 0)
(0.764174 0.0558585 -2.65023e-20)
(0.510139 0.0328059 0)
(0.221655 0.0119548 -1.46228e-19)
(0.0321982 0.00114623 1.72792e-19)
(0.528737 0.054138 -1.46536e-20)
(1.02496 0.102305 3.05556e-19)
(1.22074 0.14734 -2.92273e-20)
(1.27166 0.167764 -1.81933e-19)
(1.26591 0.184984 -1.08526e-19)
(1.23188 0.198707 1.75321e-19)
(1.19057 0.205915 0)
(1.1483 0.210416 0)
(1.10418 0.210177 1.57323e-19)
(1.05919 0.20333 0)
(1.01835 0.189335 1.7049e-19)
(0.985653 0.17063 4.96144e-20)
(0.961174 0.152259 3.46068e-22)
(0.941249 0.135214 -1.03103e-19)
(0.919339 0.11867 0)
(0.862334 0.100561 0)
(0.719946 0.074326 -4.32133e-19)
(0.471808 0.0466758 1.08181e-18)
(0.206369 0.0172141 -6.41468e-19)
(0.0276328 0.00312555 -7.57893e-19)
(0.534266 0.0769345 -2.43736e-19)
(1.05834 0.159003 8.4437e-20)
(1.25462 0.208516 3.76891e-20)
(1.2968 0.227019 3.2218e-19)
(1.28341 0.242003 1.39996e-20)
(1.24305 0.251604 -4.63815e-19)
(1.19661 0.255278 1.52396e-19)
(1.14877 0.256818 0)
(1.09901 0.25332 -3.34829e-19)
(1.04806 0.242967 2.80803e-19)
(1.00147 0.225976 -4.58614e-19)
(0.966217 0.206053 2.12215e-19)
(0.941884 0.188173 -1.31296e-19)
(0.922217 0.170192 2.98717e-19)
(0.890616 0.150543 0)
(0.82708 0.128407 -1.06773e-19)
(0.689177 0.0995245 0)
(0.460462 0.0612237 5.92271e-19)
(0.208744 0.0283017 -1.40642e-18)
(0.0346287 0.00423801 8.80756e-19)
(0.525069 0.108786 8.86077e-19)
(1.07313 0.215902 -3.69708e-19)
(1.27369 0.273693 -6.96258e-20)
(1.31312 0.291047 0)
(1.2947 0.303563 -2.28533e-19)
(1.24978 0.308529 2.77902e-19)
(1.19899 0.308049 -1.63038e-19)
(1.14632 0.305798 0)
(1.09176 0.298177 2.38406e-19)
(1.03603 0.283677 -1.98627e-19)
(0.984459 0.262411 3.95775e-19)
(0.943514 0.240014 0)
(0.91093 0.218294 -2.79771e-19)
(0.881329 0.197154 1.59321e-19)
(0.854493 0.178719 3.90853e-19)
(0.799219 0.159148 -3.43717e-19)
(0.673173 0.127486 5.47479e-19)
(0.460568 0.0840496 -1.21175e-18)
(0.224351 0.0413273 7.65146e-19)
(0.0460271 0.00854574 -9.57632e-19)
(0.511984 0.133189 -4.42621e-19)
(1.07984 0.271017 3.2338e-19)
(1.28413 0.340438 -2.25473e-19)
(1.32159 0.356684 3.8553e-19)
(1.29952 0.366604 -3.25913e-19)
(1.25158 0.366971 9.46706e-20)
(1.19748 0.362417 3.64887e-21)
(1.14089 0.356132 -2.95382e-19)
(1.08195 0.344345 -2.52425e-19)
(1.02072 0.326075 -4.26098e-19)
(0.964173 0.302008 -8.49235e-19)
(0.920133 0.276847 -2.5315e-19)
(0.888073 0.254032 2.48508e-21)
(0.864472 0.23564 -5.32316e-19)
(0.830733 0.216909 -6.3437e-21)
(0.771688 0.191231 4.96235e-19)
(0.652177 0.155778 -1.48827e-19)
(0.457397 0.106798 -8.71273e-20)
(0.236535 0.0561858 0)
(0.0554662 0.0134561 2.01707e-18)
(0.493443 0.153702 0)
(1.07122 0.320052 -7.90893e-20)
(1.28528 0.403278 -7.06617e-20)
(1.32364 0.420094 -1.24255e-20)
(1.2991 0.428596 3.38579e-19)
(1.24892 0.425111 -2.09136e-19)
(1.19222 0.41686 1.82738e-19)
(1.13245 0.406641 4.79303e-19)
(1.06986 0.390707 -1.37903e-19)
(1.00513 0.368128 2.18475e-19)
(0.946029 0.339236 4.55558e-19)
(0.898527 0.311022 5.47702e-19)
(0.861656 0.287562 -3.23504e-19)
(0.827991 0.265229 5.7306e-19)
(0.800672 0.244712 -4.50656e-19)
(0.751767 0.223168 0)
(0.644787 0.185097 -1.12384e-18)
(0.462672 0.131727 1.51353e-18)
(0.248309 0.0719649 1.12679e-19)
(0.0629198 0.0185699 -2.11366e-18)
(0.479509 0.17444 -5.21842e-21)
(1.06389 0.369331 4.86532e-19)
(1.28259 0.464846 5.27501e-19)
(1.32094 0.481974 -5.16071e-19)
(1.29428 0.488965 2.5206e-19)
(1.24255 0.481876 -2.15872e-19)
(1.18391 0.470361 3.78357e-19)
(1.12165 0.456538 -1.57668e-19)
(1.05619 0.436857 -5.7143e-19)
(0.987535 0.410281 3.57117e-22)
(0.923576 0.379011 -4.91018e-19)
(0.87437 0.348352 -5.86557e-19)
(0.838678 0.321744 3.52407e-19)
(0.814338 0.300298 -2.05248e-19)
(0.78066 0.279489 4.85905e-19)
(0.728078 0.252133 0)
(0.626239 0.212818 -6.92175e-19)
(0.458602 0.154512 1.02175e-18)
(0.254644 0.0865702 1.93791e-18)
(0.0678125 0.0233476 -2.28087e-18)
(0.464518 0.191871 7.79198e-19)
(1.04959 0.413154 -4.08567e-19)
(1.27529 0.521908 -4.67694e-19)
(1.3147 0.540446 5.48761e-19)
(1.28634 0.546708 1.13949e-20)
(1.23331 0.536657 -4.47329e-19)
(1.17304 0.522224 -2.09229e-19)
(1.10883 0.505051 -1.82855e-19)
(1.04079 0.48152 -3.13583e-19)
(0.969906 0.451477 4.99637e-19)
(0.905167 0.415673 5.08331e-19)
(0.854085 0.38134 9.34714e-19)
(0.814945 0.354044 0)
(0.779655 0.327963 5.84311e-21)
(0.753564 0.306042 -1.31944e-18)
(0.71046 0.283588 3.07347e-19)
(0.616465 0.240837 1.48642e-18)
(0.454703 0.177655 -4.38063e-19)
(0.254041 0.0999672 9.12575e-19)
(0.0689952 0.0267114 -7.64842e-20)
(0.455808 0.21091 6.00608e-21)
(1.03898 0.457218 -3.25189e-19)
(1.26637 0.577161 -3.20766e-19)
(1.30591 0.596613 8.34881e-19)
(1.27589 0.601832 -7.52492e-19)
(1.22194 0.589001 4.6665e-19)
(1.16062 0.57206 2.20463e-19)
(1.09494 0.551878 5.67192e-19)
(1.0252 0.525432 6.49992e-19)
(0.951873 0.491895 -5.56079e-19)
(0.88313 0.451791 0)
(0.829592 0.415672 -3.44677e-19)
(0.791873 0.383803 3.9572e-19)
(0.766704 0.361239 4.83024e-19)
(0.734219 0.338378 -2.79957e-19)
(0.685553 0.3073 -6.74389e-19)
(0.595053 0.265146 -2.00645e-19)
(0.442843 0.195352 -1.29654e-21)
(0.246808 0.109854 0)
(0.0669779 0.0287723 0)
(0.447371 0.226626 2.8903e-19)
(1.02594 0.497042 0)
(1.25528 0.628426 -3.27344e-19)
(1.29509 0.649615 1.20328e-19)
(1.26386 0.654131 8.14081e-19)
(1.20921 0.638801 -2.15696e-19)
(1.14682 0.619524 2.3006e-19)
(1.07977 0.59671 -3.94642e-19)
(1.00781 0.567069 5.0545e-19)
(0.931247 0.529581 -1.66681e-19)
(0.861198 0.487412 2.90144e-19)
(0.808247 0.44718 1.09666e-18)
(0.768828 0.414611 1.36701e-20)
(0.733015 0.385212 -5.08113e-19)
(0.70736 0.359279 9.21662e-19)
(0.668372 0.334727 4.45581e-21)
(0.583415 0.28572 2.14665e-19)
(0.432252 0.212232 -1.02215e-18)
(0.23792 0.116523 1.04313e-18)
(0.0631214 0.0303226 -1.23962e-18)
(0.441353 0.245593 4.1637e-23)
(1.01496 0.536218 0)
(1.24356 0.677434 0)
(1.28302 0.700008 -1.4344e-19)
(1.25065 0.703489 -2.79721e-19)
(1.19541 0.685895 2.50969e-19)
(1.13228 0.664743 -4.66711e-19)
(1.06405 0.639677 0)
(0.990518 0.607868 -7.33445e-19)
(0.913188 0.569026 7.9981e-19)
(0.841723 0.52322 8.03708e-19)
(0.784599 0.477914 -3.98351e-19)
(0.742582 0.441974 -4.71668e-19)
(0.719373 0.413276 1.10071e-18)
(0.688109 0.388089 -3.2768e-19)
(0.643255 0.352399 -3.89119e-19)
(0.559632 0.304678 -2.32082e-19)
(0.415537 0.22337 -1.0991e-18)
(0.226459 0.12097 1.58913e-19)
(0.058164 0.0306561 1.33397e-18)
(0.437749 0.26411 9.90538e-20)
(1.00375 0.572373 1.80168e-19)
(1.23082 0.722937 2.34173e-20)
(1.27008 0.747385 -5.04632e-23)
(1.23682 0.750168 -1.74317e-19)
(1.18111 0.730491 5.00621e-19)
(1.11726 0.707509 0)
(1.04814 0.680331 2.30853e-19)
(0.973742 0.646143 -1.82031e-19)
(0.894458 0.60318 1.3465e-18)
(0.818424 0.551799 -1.794e-19)
(0.760522 0.506257 2.02993e-19)
(0.721992 0.467234 0)
(0.683614 0.434177 -5.93218e-19)
(0.660601 0.403844 7.08794e-19)
(0.624531 0.375649 0)
(0.544493 0.318545 -5.00126e-19)
(0.398591 0.23375 1.47038e-18)
(0.213708 0.123279 1.72727e-19)
(0.0525277 0.0301651 -1.63866e-18)
(0.435836 0.280969 1.93224e-19)
(0.994237 0.607567 -2.47059e-19)
(1.21818 0.766227 0)
(1.25672 0.792138 -3.08165e-19)
(1.22263 0.794 0)
(1.16653 0.772441 -5.60221e-19)
(1.10213 0.747957 0)
(1.03217 0.719026 0)
(0.955693 0.683131 -2.16252e-19)
(0.872489 0.639165 -1.27135e-18)
(0.794834 0.588493 -1.47868e-18)
(0.735794 0.537203 2.29123e-19)
(0.691812 0.493354 8.12189e-19)
(0.669575 0.458683 6.46442e-19)
(0.640242 0.428831 -2.27455e-18)
(0.597827 0.386547 -9.06997e-19)
(0.518019 0.332342 5.31264e-19)
(0.378131 0.238476 0)
(0.199858 0.123711 1.4864e-18)
(0.0467523 0.0287264 -1.76215e-18)
(0.43448 0.296733 -1.9121e-19)
(0.984418 0.639946 2.52684e-19)
(1.20531 0.806242 0)
(1.24325 0.834055 -1.04941e-20)
(1.20848 0.835421 1.39018e-19)
(1.15202 0.81218 0)
(1.08708 0.786172 1.42483e-19)
(1.01629 0.75566 1.44835e-19)
(0.938764 0.718174 -4.32911e-19)
(0.855864 0.671498 1.79606e-19)
(0.777212 0.615437 0)
(0.713505 0.562242 9.59648e-19)
(0.670049 0.51732 4.31905e-21)
(0.63273 0.476208 3.47732e-19)
(0.610126 0.438759 4.10523e-19)
(0.57711 0.405836 0)
(0.500361 0.339117 -8.67091e-19)
(0.358871 0.242907 1.70241e-18)
(0.185454 0.122284 -1.8022e-18)
(0.0411937 0.0268286 3.78942e-18)
(0.433455 0.311806 0)
(0.97589 0.671648 0)
(1.19292 0.844233 1.59838e-19)
(1.22981 0.873455 0)
(1.19438 0.874131 0)
(1.13768 0.849453 -5.92122e-19)
(1.07229 0.822267 1.49716e-19)
(1.00073 0.790337 1.73112e-20)
(0.921976 0.751471 -1.07387e-19)
(0.835071 0.704171 0)
(0.749617 0.648729 -2.19031e-19)
(0.68489 0.591049 -7.78017e-19)
(0.640816 0.538571 -9.20273e-19)
(0.616259 0.496957 -3.64605e-19)
(0.588765 0.460021 4.43669e-19)
(0.54873 0.4094 -1.04478e-18)
(0.471926 0.34764 1.86306e-18)
(0.335815 0.241831 4.6691e-21)
(0.170929 0.119169 -1.72829e-18)
(0.0360717 0.0246167 -2.55195e-19)
(0.432415 0.326541 0)
(0.967203 0.701001 1.84682e-19)
(1.18067 0.879371 -1.60464e-19)
(1.21665 0.910302 0)
(1.18069 0.910646 0)
(1.12374 0.884723 1.24942e-18)
(1.05798 0.856363 0)
(0.985783 0.823163 0)
(0.905771 0.783332 -9.67581e-19)
(0.818303 0.734335 2.27328e-19)
(0.734362 0.674645 -2.00301e-18)
(0.667114 0.615378 0)
(0.616548 0.563623 -9.91333e-19)
(0.577116 0.512613 1.11512e-20)
(0.55512 0.464058 -1.42299e-18)
(0.525733 0.423362 5.61525e-19)
(0.453555 0.345109 2.76375e-21)
(0.318523 0.240003 -1.96303e-18)
(0.158378 0.114934 9.30157e-19)
(0.0317288 0.0225983 2.73304e-19)
(0.431505 0.340838 0)
(0.959683 0.729728 1.61214e-19)
(1.16898 0.912775 -1.72351e-19)
(1.20375 0.944831 -5.15691e-19)
(1.16721 0.944608 -1.79036e-19)
(1.11013 0.917641 1.57487e-19)
(1.0441 0.888464 -1.40546e-19)
(0.971339 0.854244 1.12547e-18)
(0.890142 0.813363 1.03504e-18)
(0.800032 0.763906 1.82004e-18)
(0.710063 0.705487 1.66516e-18)
(0.635513 0.643754 2.83114e-19)
(0.585418 0.583407 1.42231e-18)
(0.557816 0.530932 8.58768e-19)
(0.530882 0.483238 1.01959e-18)
(0.494484 0.416628 -6.11363e-19)
(0.423546 0.345125 -7.17431e-19)
(0.296595 0.229318 8.40251e-19)
(0.146525 0.108527 -4.96966e-19)
(0.0306704 0.0247954 8.82795e-19)
(0.430548 0.354677 -1.7398e-19)
(0.952032 0.756176 -2.64421e-19)
(1.15749 0.943717 -8.77908e-20)
(1.19125 0.977133 1.63029e-20)
(1.15429 0.976594 5.42661e-19)
(1.09711 0.948716 -3.55364e-19)
(1.03093 0.91871 1.46543e-19)
(0.9577 0.883651 -2.11462e-20)
(0.875603 0.842148 -1.22235e-18)
(0.784516 0.792053 -1.96209e-18)
(0.694305 0.730854 1.20147e-19)
(0.619357 0.6674 0)
(0.561921 0.608704 0)
(0.514749 0.547517 -4.50933e-19)
(0.49023 0.481485 -1.65492e-18)
(0.46512 0.42372 1.31488e-18)
(0.406493 0.322466 7.81265e-19)
(0.297143 0.209952 0)
(0.155237 0.0864463 1.58503e-18)
(0.0246235 0.00188922 -9.44449e-19)
(0.429709 0.367828 9.5062e-20)
(0.945262 0.781861 -7.78271e-20)
(1.14653 0.973088 1.74177e-19)
(1.1791 1.00731 2.6132e-19)
(1.1417 1.00622 1.77582e-19)
(1.0845 0.977564 -9.92053e-20)
(1.01818 0.947044 0)
(0.944659 0.911303 -1.43279e-18)
(0.861865 0.869347 1.48847e-19)
(0.768498 0.818825 0)
(0.672687 0.759959 0)
(0.589861 0.696865 1.72741e-19)
(0.528295 0.629973 2.20294e-19)
(0.492581 0.565429 -4.84523e-19)
(0.460201 0.501808 1.18564e-18)
(0.42441 0.406805 -1.4241e-18)
(0.365932 0.306864 -1.66999e-18)
(0.286735 0.185336 1.47389e-18)
(0.195256 0.11424 -5.66021e-19)
(0.115922 0.0855875 3.31962e-19)
(0.428656 0.380212 -8.1144e-20)
(0.938267 0.80534 0)
(1.13578 1.00026 0)
(1.16741 1.03556 1.0025e-19)
(1.12971 1.03411 -8.11559e-20)
(1.07254 1.00474 -2.0951e-20)
(1.00627 0.973664 5.97589e-19)
(0.932554 0.937448 1.55248e-18)
(0.848982 0.895153 2.26897e-18)
(0.754477 0.844814 -1.43613e-19)
(0.657954 0.783851 2.84545e-19)
(0.574409 0.718847 -1.58231e-18)
(0.506678 0.656754 -1.513e-18)
(0.445222 0.58733 -2.5896e-19)
(0.406134 0.498101 0)
(0.376304 0.415626 -1.08535e-20)
(0.331197 0.247822 9.05462e-19)
(0.28726 0.0854993 -1.55213e-18)
(0.246826 -0.0561893 1.1916e-18)
(0.0800044 -0.0939905 1.00925e-18)
(0.427645 0.392045 1.65948e-19)
(0.931912 0.828106 5.90242e-20)
(1.12548 1.02611 6.71554e-21)
(1.15604 1.06207 -7.72998e-20)
(1.11798 1.06016 0)
(1.06086 1.03025 -7.42513e-19)
(0.994559 0.998951 -8.05799e-19)
(0.920654 0.962468 4.91389e-20)
(0.836364 0.920027 -1.20478e-18)
(0.739958 0.869558 -1.41804e-19)
(0.639354 0.811745 1.31709e-19)
(0.54765 0.750881 1.38626e-18)
(0.470965 0.682889 1.47728e-18)
(0.42059 0.607774 2.51278e-19)
(0.371403 0.531185 1.24662e-18)
(0.306049 0.39669 0)
(0.197235 0.237696 0)
(0.0264693 0.246438 1.05035e-18)
(-0.073026 0.628815 -3.26312e-20)
(0.00309678 1.5195 -1.24172e-18)
(0.426337 0.403265 -8.46223e-20)
(0.925391 0.849054 -2.44805e-19)
(1.11536 1.05027 4.96253e-19)
(1.14501 1.0873 -4.26152e-19)
(1.10668 1.08525 1.04148e-19)
(1.04959 1.05494 -8.15143e-19)
(0.983322 1.02347 0)
(0.909151 0.986958 -1.34593e-18)
(0.824231 0.944941 0)
(0.726821 0.895614 2.1398e-18)
(0.623978 0.837073 -1.48249e-19)
(0.530729 0.773892 1.66226e-19)
(0.452576 0.714583 1.68748e-18)
(0.366969 0.64668 -5.31169e-19)
(0.280533 0.540491 -6.30609e-19)
(0.208367 0.457348 0)
(0.10143 0.552546 0)
(0.0320072 1.28449 0)
(0.0755856 2.44315 -6.01334e-19)
(0.104962 2.90093 -3.64921e-19)
(0.425 0.413948 0)
(0.91944 0.869287 0)
(1.10571 1.07327 -1.6872e-19)
(1.13437 1.11099 3.68505e-19)
(1.09571 1.10874 -3.70492e-19)
(1.03864 1.07825 7.65898e-19)
(0.972297 1.04694 9.85923e-20)
(0.897996 1.01069 -7.67633e-20)
(0.812564 0.969163 1.63884e-19)
(0.713429 0.920448 -2.45852e-18)
(0.608085 0.865303 2.81681e-19)
(0.509941 0.811885 1.39131e-18)
(0.414949 0.750773 -1.68943e-18)
(0.343012 0.671881 -1.78386e-18)
(0.271781 0.604956 5.95029e-19)
(0.20274 0.728109 0)
(0.135458 1.51745 8.27809e-19)
(0.133928 2.67953 9.36709e-19)
(0.141312 3.08312 -1.04811e-18)
(0.132106 3.21988 1.1432e-18)
(0.423384 0.42405 0)
(0.913354 0.887764 -1.30205e-19)
(1.09625 1.0947 4.73033e-20)
(1.12411 1.13354 -3.87229e-19)
(1.0852 1.13136 3.88891e-19)
(1.02817 1.10076 0)
(0.961871 1.06959 0)
(0.887377 1.03367 0)
(0.801468 0.993145 1.05638e-18)
(0.701682 0.94652 1.25905e-19)
(0.593079 0.892779 0)
(0.48868 0.835291 -1.39343e-18)
(0.404469 0.783371 0)
(0.292579 0.727005 1.2804e-18)
(0.213058 0.800778 -8.64384e-19)
(0.165903 1.45199 -6.87875e-19)
(0.169456 2.66889 -1.61811e-18)
(0.189523 3.12621 -8.74485e-19)
(0.180004 3.2698 -1.27819e-18)
(0.16512 3.31048 1.0063e-18)
(0.421831 0.433413 3.38594e-20)
(0.907796 0.905564 1.53626e-20)
(1.08729 1.11508 4.66789e-20)
(1.1143 1.15465 3.29363e-19)
(1.07507 1.1525 0)
(1.01809 1.12203 0)
(0.951722 1.09131 0)
(0.877193 1.05607 9.28418e-20)
(0.790912 1.01647 -1.32355e-18)
(0.689618 0.970985 0)
(0.581303 0.920799 0)
(0.481368 0.876003 0)
(0.370203 0.826658 0)
(0.309955 0.814511 9.60787e-19)
(0.279116 1.18142 2.31918e-18)
(0.264907 2.35511 6.80967e-19)
(0.275564 3.0821 1.43627e-18)
(0.268883 3.28811 -1.15731e-18)
(0.218937 3.3552 4.34374e-19)
(0.185291 3.36774 0)
(0.420054 0.442352 -2.90612e-20)
(0.901899 0.922175 2.2699e-19)
(1.07828 1.1346 9.3047e-20)
(1.10461 1.17538 3.43831e-20)
(1.06516 1.17348 -1.02952e-19)
(1.00826 1.1431 9.08652e-19)
(0.941995 1.11273 -7.97465e-20)
(0.867375 1.07805 -1.31885e-18)
(0.780919 1.03985 0)
(0.679979 0.997305 -1.42219e-19)
(0.567707 0.95061 1.29374e-19)
(0.453563 0.900909 0)
(0.370805 0.866871 0)
(0.320178 0.993048 -1.20396e-18)
(0.287364 1.84499 1.9037e-19)
(0.282867 2.93551 -5.60736e-19)
(0.302052 3.29296 1.22183e-18)
(0.275475 3.39354 9.74688e-19)
(0.208137 3.41872 -1.50401e-18)
(0.18253 3.42755 7.52956e-19)
(0.418023 0.451414 -4.05675e-20)
(0.895938 0.93967 -1.82944e-19)
(1.06897 1.15479 -1.28174e-19)
(1.09457 1.19623 0)
(1.05491 1.19442 0)
(0.998155 1.16425 -6.93176e-19)
(0.931949 1.13442 6.56331e-19)
(0.857524 1.10054 1.19013e-18)
(0.771068 1.0635 6.55522e-20)
(0.668735 1.02249 2.01363e-18)
(0.558238 0.978262 -2.08858e-18)
(0.455472 0.939476 0)
(0.378197 0.950322 0)
(0.346674 1.348 -8.66973e-19)
(0.348541 2.46287 -1.018e-18)
(0.390429 3.19932 0)
(0.416006 3.37808 -1.47665e-18)
(0.345944 3.44239 -9.68879e-20)
(0.27332 3.48661 1.09961e-18)
(0.249513 3.51236 -4.72442e-19)
(0.415418 0.460884 6.64049e-20)
(0.888863 0.957385 7.88636e-20)
(1.05865 1.17576 0)
(1.08369 1.2184 0)
(1.04395 1.21677 0)
(0.987427 1.18649 0)
(0.921555 1.15686 -7.16948e-19)
(0.847367 1.12344 1.23046e-18)
(0.761217 1.08774 0)
(0.660389 1.04955 -1.84121e-18)
(0.548472 1.01067 3.79312e-18)
(0.436813 0.979108 1.48205e-19)
(0.379823 1.06016 1.82866e-19)
(0.391748 1.7345 1.44861e-18)
(0.415449 2.88811 -8.38036e-19)
(0.453117 3.32648 0)
(0.434814 3.45482 4.55285e-19)
(0.347308 3.54262 9.58443e-20)
(0.266738 3.60935 -8.03346e-21)
(0.191142 3.58902 2.5777e-19)
(0.412424 0.470608 -2.66484e-20)
(0.881402 0.976723 4.3725e-20)
(1.0476 1.198 0)
(1.07202 1.24101 6.89215e-20)
(1.03219 1.23928 -3.14881e-19)
(0.976038 1.20905 0)
(0.910513 1.17983 0)
(0.836916 1.14703 -2.21316e-18)
(0.751199 1.11235 -1.37922e-19)
(0.649536 1.07606 1.92615e-18)
(0.537271 1.03908 -1.82707e-18)
(0.451882 1.02497 1.00899e-18)
(0.419761 1.24034 0)
(0.443045 2.16627 -7.86304e-19)
(0.483011 3.14382 4.87876e-19)
(0.542218 3.43347 4.02235e-19)
(0.536103 3.53272 0)
(0.469969 3.62059 9.21195e-20)