/*--------------------------------*- C++ -*----------------------------------*\
| =========                 |                                                 |
| \\      /  F ield         | OpenFOAM: The Open Source CFD Toolbox           |
|  \\    /   O peration     | Version:  4.0                                   |
|   \\  /    A nd           | Web:      www.OpenFOAM.org                      |
|    \\/     M anipulation  |                                                 |
\*---------------------------------------------------------------------------*/
FoamFile
{
    version     2.0;
    format      ascii;
    class       volScalarField;
    location    "5";
    object      p;
}
// * * * * * * * * * * * * * * * * * * * * * * * * * * * * * * * * * * * * * //

dimensions      [0 2 -2 0 0 0 0];

internalField   nonuniform List<scalar> 
918
(
0.240519
1.04743
0.0064426
0.241312
0.00146225
1.01435
-0.691494
0.384927
0.223319
-0.103908
0.0239156
0.206554
0.878379
0.644563
-1.51472
0.022705
0.352003
-0.773426
0.203674
0.0125663
0.611091
0.234327
0.23265
0.210749
0.25963
0.669574
0.758629
0.00206664
0.00157579
0.0053
-0.00158319
0.00114893
0.00794312
0.898
0.949062
0.971779
0.194184
-0.310472
-0.473482
-0.601066
-0.526351
-0.800207
0.371371
0.375556
-0.421569
0.39075
0.414413
0.201564
0.220455
0.221427
0.223794
0.225255
0.226327
0.27428
-0.131267
-0.20521
-0.0574563
-0.0386626
0.0836412
0.0240852
0.0316414
0.0281202
0.0320871
0.148424
0.203384
0.203285
0.213883
0.217113
0.986938
0.958724
0.984509
0.900316
0.915365
0.856098
0.827616
0.667478
0.686477
0.633956
0.621286
-1.96749
-2.91155
-0.922042
-0.61327
0.00273848
0.0283087
0.0333975
0.341525
0.3525
0.347571
0.363617
0.676983
-0.669739
-0.894044
0.213883
0.208368
0.226884
0.22878
0.218711
0.220067
0.0175283
0.0265826
0.0048143
0.0125506
0.0108812
0.55478
0.523937
0.204337
0.20428
0.228083
0.23353
0.232031
-0.00366808
0.269166
0.293654
0.418186
0.616759
0.629256
0.635611
0.734172
0.698703
0.794943
0.819528
0.0062167
0.00157623
0.0126247
0.00969527
0.0145183
0.184793
0.18203
0.200255
0.196132
0.192287
-0.35752
-0.427291
-0.21549
-0.0695611
-0.403366
-0.522697
-0.716387
-0.645316
-0.895834
0.767101
0.356603
0.370893
-0.349428
-0.321376
-0.453932
-0.296809
-0.384514
0.198765
0.202958
0.201184
0.204987
0.198146
0.208691
0.224358
0.221597
0.222291
0.295942
0.355131
0.23787
0.213037
-0.418663
-0.210837
-0.401613
-0.021985
-0.0109683
0.0970992
0.108733
0.0714728
0.0686245
0.0121461
0.0221034
0.01999
0.0361409
0.0295342
0.143198
0.132973
0.155057
0.17019
0.196387
0.20073
0.198327
0.200646
0.778172
0.802003
0.808673
0.782277
-3.87001
-6.42933
-0.25613
-0.0780541
0.000207827
0.00309446
0.00198712
-0.000476711
0.00575976
0.000552164
0.0500126
0.0447828
0.0369551
0.0348837
0.327785
0.333902
0.657871
0.718554
0.604673
0.589596
0.201154
0.203729
0.21229
0.208105
0.0287835
0.0264073
0.0255509
0.416695
0.473932
0.453807
-0.0408123
-0.129198
0.0428266
0.0655
0.316607
0.304915
0.318471
0.497638
0.540297
0.828458
0.846689
0.843543
0.849696
0.892779
0.908338
0.875353
0.172507
0.17695
0.171247
0.206187
0.196097
0.204729
0.196928
0.1995
0.199916
-0.489457
-0.735781
0.53059
0.371448
0.0553126
0.266377
0.753287
0.805896
0.350964
0.357126
0.361935
-0.235068
-0.325267
0.186436
0.16298
0.0888892
0.119669
0.102832
0.748988
0.712055
0.758765
0.732962
0.70015
0.723889
-0.645365
-1.9825
-1.12936
0.352051
0.132144
0.226325
0.0647104
0.0490419
0.0536534
0.703773
0.763086
0.387418
0.492162
0.483549
0.586767
0.621521
0.668979
0.592799
0.630291
0.666825
0.651142
0.698145
0.579706
0.679723
0.768135
0.786124
-0.14752
-0.186071
-0.259299
0.116664
0.151491
0.133222
0.736529
0.7536
0.784288
0.202218
0.210371
0.00991448
0.0179342
0.224034
0.227042
0.00630428
0.0093391
0.223546
-1.34011
-0.106385
0.209343
0.201572
0.216253
-0.068978
0.261955
0.0349575
0.0937988
0.0656498
0.20124
0.157806
0.129287
0.0104817
0.0182183
0.017405
-0.316627
0.21
0.200463
0.217507
0.220268
0.22393
0.0130493
0.0116775
0.005813
0.014311
0.0160046
0.0184885
0.186413
0.1946
-0.219951
0.214541
0.218114
0.219703
0.208862
0.221744
0.214531
0.0175721
0.0114966
0.00803516
-0.0470265
0.0677195
0.540493
0.657264
0.513664
0.190628
-0.150258
0.400729
0.468948
0.34802
0.534285
0.33161
0.363495
-0.0537654
-0.166136
-0.0743503
-0.129459
0.206087
0.203117
0.196586
0.198717
0.21469
0.212445
0.212425
0.21441
0.215091
0.212854
-0.0229611
-0.0377215
-0.0858811
-0.145888
0.286367
0.34787
0.211011
0.222327
0.13627
0.0395454
0.034315
0.0344594
0.0223293
0.0644926
0.0685328
0.0770465
0.0729297
0.047648
0.0492238
0.061848
0.0631934
0.0686661
0.199776
0.197897
0.203247
0.214793
0.164518
0.166991
0.140552
0.157889
0.144228
0.101905
0.122643
0.102542
0.00943709
0.00932919
0.00941253
0.0188294
0.0309461
0.0192779
0.0159208
0.0108825
0.0108278
0.0137938
0.0244504
0.0261106
-0.262512
-0.385129
0.63405
0.542474
0.327679
0.206818
0.211287
0.200127
0.206227
0.216547
0.224542
0.220211
0.20808
0.198267
0.196987
0.195169
0.196318
-0.0895237
-0.281295
-0.129658
-0.230034
-0.350734
0.297824
0.0701907
0.0285454
0.0129087
0.203526
0.770979
0.651848
0.626113
0.624521
-0.877475
-0.352038
-0.723401
-0.0902841
-0.485512
0.514676
0.563592
0.579267
0.521749
0.481122
-0.467448
-0.07359
-0.20459
-0.150537
-0.0307464
-0.106081
0.459571
0.323428
0.337403
0.3537
0.392978
0.322968
0.294563
0.296308
0.339607
0.348837
0.129774
-0.0224776
-0.0587323
-0.0919124
0.32619
0.177491
0.23196
0.179169
0.200494
0.201984
0.204518
0.194797
0.194878
0.196496
0.195671
0.198417
0.206042
0.204304
0.204961
0.206827
-0.0182556
-0.0130912
-0.0212387
-0.189241
-0.175353
-0.26379
-0.0971336
0.127946
0.0980086
0.283196
0.378478
0.068887
-0.0851468
-0.0527122
0.0238313
0.146485
0.135106
0.106304
0.149177
0.169653
0.140923
0.195523
0.181557
0.042603
0.0582826
0.0404412
0.0340265
0.0978326
0.116611
0.112873
0.0495664
0.0550339
0.0388219
0.0404119
0.0763182
0.0556188
0.0676025
0.0731463
0.0227536
0.0233439
0.0341312
0.0379528
0.040876
0.0367435
0.193671
0.196132
0.198913
0.205375
0.21253
0.229559
0.204262
0.181841
0.170855
0.177459
0.15625
0.172657
0.161168
0.174428
0.182924
0.194493
0.193409
0.194513
0.182069
0.18075
0.180737
0.18207
0.156058
0.13777
0.131341
0.0217463
0.0159549
0.0180003
0.020989
0.0123013
0.0123296
0.048799
0.0359494
0.0440215
0.033733
0.0467347
0.0236119
0.024689
-0.0837806
0.042181
-0.231788
-0.286429
-0.367749
0.623932
0.677005
0.541362
0.45973
0.475947
0.566418
0.599051
0.375405
0.464766
0.444024
0.684355
0.709446
0.187876
0.195066
0.203052
0.194632
0.193995
0.0320063
0.126518
0.0291072
0.0698712
-0.0817858
-0.150067
0.522202
0.457618
0.513594
0.444023
0.289314
0.306628
0.248777
0.27994
0.286435
0.12564
0.197332
0.235613
0.201556
0.231577
0.251851
0.221253
0.24333
0.209856
0.182368
0.179034
0.126949
0.136698
0.117489
0.112508
0.191352
0.179915
0.181246
0.17844
0.198027
0.227599
0.218163
0.229248
0.242102
0.180698
0.152571
0.156411
0.17616
0.148992
0.157901
0.169234
0.252353
0.195779
-0.0311651
-0.61764
-0.515694
-0.462026
-0.57259
-0.480618
-0.220232
-1.01468
-0.806818
-1.3185
-0.278357
0.722969
0.410134
0.478781
0.395052
0.343649
0.339544
0.432092
0.437874
0.312786
0.322485
0.331134
0.24204
0.281193
0.305016
0.312061
0.0164532
0.0604575
0.0159352
0.0497254
-0.0278042
-0.0155412
0.116901
0.0796041
0.0224852
0.0166585
0.159751
0.0565516
0.10493
0.153337
0.110097
0.0759432
0.21109
0.284179
0.268281
0.237216
0.169958
0.170178
0.200801
0.235594
0.251374
0.279535
0.194344
0.198968
0.198821
0.198202
0.195621
0.198079
0.198149
0.201145
0.202638
0.206202
0.205628
0.0259647
0.0357986
0.00735336
0.0139649
0.0383229
0.0155141
0.0600154
0.0487252
0.0472966
0.0485836
0.0334543
0.00462955
0.0174231
0.0348187
0.161301
0.184021
0.188463
0.138097
0.233482
0.34279
0.383019
0.332083
0.209402
0.240671
0.282131
0.0808693
0.0918179
0.0797065
0.102503
0.0915377
0.039525
0.0364853
0.0354019
0.0472792
0.0430692
0.0332973
0.029181
0.0284102
0.0297325
0.034634
0.0319725
0.184118
0.17607
0.167805
0.164365
0.163748
0.181519
0.188134
0.186693
0.191991
0.193492
0.186585
0.192219
0.19319
0.0383058
0.0241328
0.0255451
0.0277435
0.0232513
0.0343441
0.0305634
0.284009
0.156769
0.246509
0.0997744
-0.138575
-0.0464748
0.522104
0.622258
0.61175
0.664369
0.594855
0.576024
0.620543
0.711733
0.429939
0.554799
0.502131
0.658167
0.657496
0.700326
0.559841
0.12121
-0.458287
-0.124866
0.0755156
-0.348126
-0.000820956
-0.000275125
-0.0181182
-0.00731797
-0.0706408
0.175809
0.240973
0.300602
0.426602
0.213652
0.342018
0.0501597
0.136917
0.347197
0.335727
0.333197
0.285632
0.305762
0.321645
0.289911
0.315853
0.251497
0.246421
0.253995
0.269872
0.260048
-1.13101
-1.12636
-1.81967
-1.33709
-1.05895
-0.596503
-0.629859
0.134018
0.0335358
0.307568
0.278719
0.251155
0.208043
0.140548
0.225653
0.0605698
0.15419
0.133707
0.132904
0.061614
-0.00955658
0.2501
0.247169
0.274217
0.295128
0.278125
0.299829
0.192729
0.189576
0.195599
0.189773
0.177982
0.179239
0.109773
0.0848951
0.124906
0.107572
0.0647281
0.0552422
0.0405503
0.0378581
0.0284204
0.0261684
0.0412807
0.0414918
0.300436
0.314965
0.148189
0.250471
0.0107541
-0.0653704
-0.109178
0.0858146
0.141714
0.175744
0.471173
0.572035
0.51508
0.536287
0.436968
0.461416
0.52322
0.312744
0.430227
0.402172
0.499268
-0.979143
-1.07104
-1.05067
0.129121
0.00238495
-0.541601
-0.823983
-0.824069
-0.455174
0.0945817
0.0813188
0.11868
0.131915
0.146147
-0.812134
-0.573231
-0.913743
-0.697937
-0.0511003
-0.368751
-0.139063
-0.523089
-0.330153
)
;

boundaryField
{
    wall-4
    {
        type            zeroGradient;
    }
    velocity-inlet-5
    {
        type            zeroGradient;
    }
    velocity-inlet-6
    {
        type            zeroGradient;
    }
    pressure-outlet-7
    {
        type            fixedValue;
        value           uniform 0;
    }
    wall-8
    {
        type            zeroGradient;
    }
    frontAndBackPlanes
    {
        type            empty;
    }
}


// ************************************************************************* //
