/*--------------------------------*- C++ -*----------------------------------*\
| =========                 |                                                 |
| \\      /  F ield         | OpenFOAM: The Open Source CFD Toolbox           |
|  \\    /   O peration     | Version:  4.0                                   |
|   \\  /    A nd           | Web:      www.OpenFOAM.org                      |
|    \\/     M anipulation  |                                                 |
\*---------------------------------------------------------------------------*/
FoamFile
{
    version     2.0;
    format      ascii;
    class       surfaceScalarField;
    location    "5";
    object      phi;
}
// * * * * * * * * * * * * * * * * * * * * * * * * * * * * * * * * * * * * * //

dimensions      [0 3 -1 0 0 0 0];

internalField   nonuniform List<scalar> 
1300
(
3.75095
5.62643
-6.44968
3.75095
-6.33006
5.62643
-5.48731
5.48731
-1.66133
1.66133
1.88117
1.86979
-5.49448
5.49448
-5.46402
5.46402
-2.99578
2.99578
-5.24493
5.24493
-5.06679
5.06679
4.76223
-4.76223
-5.2077
5.2077
-2.15351
2.15351
-6.09816
6.09816
3.16581
-3.16581
-5.49471
5.49471
-0.570677
0.570677
-0.554841
4.30579
3.19611
3.19611
-2.81094
2.81094
-4.85568
4.85568
6.219
-6.219
9.73447
-9.73447
-3.28479
-3.32227
1.36737
-8.09149
-4.96269
-4.96269
-8.44076
8.44076
-2.81433
2.8121
3.138
-3.138
-1.07819
1.07819
-5.11922
-0.368099
-5.11922
5.88688
-0.399565
5.88688
-1.80863
0.147298
-1.80863
4.24563
-4.24563
1.52154
0.139784
1.52154
3.10301
-3.10301
-1.88026
3.76143
1.87069
-1.86236
6.16815
-1.88859
3.75838
-4.94228
4.94228
-5.58092
0.0864401
-5.58092
5.47938
0.0151013
5.47938
-5.36925
5.36925
-5.47546
0.0114394
-5.47546
5.45086
0.01316
5.45086
3.19132
-3.19132
-3.03531
0.0395294
-3.03531
2.9547
0.0410822
2.9547
0.354389
5.27204
-5.98082
8.79292
-5.27204
0.0271106
5.20857
0.0363554
5.20857
-5.10384
0.037051
-5.10384
5.02026
0.0465359
5.02026
4.81311
-0.0508786
4.81311
-4.87891
0.116681
-4.87891
-3.28755
-3.29203
-5.28375
0.0760462
-5.28375
-2.14446
-0.00904885
-2.14446
2.1254
0.0281074
2.1254
-3.87957
3.87957
-6.30019
0.202036
-6.30019
3.08201
0.0837985
3.08201
1.86541
1.88554
5.61636
-5.61636
2.45055
-5.46925
-0.0254687
-5.46925
-5.51046
-4.22401
5.51046
-0.0157454
-1.05533
0.484652
-1.05533
3.12894
0.0671705
3.12894
2.9383
0.0164062
-2.9383
0.127352
3.60396
-3.60396
2.11103
0.699916
2.11103
-5.58652
5.58652
4.9564
0.0638539
-4.9564
0.100722
6.16049
0.0585099
6.16049
-6.19961
-0.0193875
-6.19961
3.322
-6.64427
-3.30438
5.09486
0.112843
-5.09486
0.132169
3.15973
-0.0217216
3.15973
-3.09529
3.09529
-3.1276
-0.0104018
-3.1276
-1.38883
0.310634
-1.38883
1.07979
-0.00159883
1.07979
-4.77716
-0.342055
-4.77716
-6.19241
-0.107784
6.19241
-0.305529
2.64198
-2.64198
-1.94862
0.139997
-1.94862
-4.44464
-0.332519
4.44464
-0.199009
-4.11538
-0.130251
-4.11538
-3.1125
-0.0151001
3.1125
-0.00949627
3.09844
0.0304995
-3.09844
-0.00456322
-1.87336
3.7589
-1.8776
3.74829
-4.65891
-0.283372
-4.65891
5.10032
-0.158038
5.10032
5.83114
0.267016
-5.83114
0.250222
5.44883
0.0305452
5.44883
-5.34736
-0.0218901
-5.34736
5.3985
-0.0292541
5.3985
5.44573
0.00310446
-5.44573
-0.029732
5.46042
-0.00955856
5.46042
3.23461
-0.0432918
3.23461
-3.17187
-0.0194514
-3.17187
3.08314
-3.08314
3.07995
0.00319303
-3.07995
0.0446375
-11.1307
11.1113
-0.0331807
-11.0975
5.17539
5.17539
3.95179
0.861322
3.95179
-5.051
0.172082
-5.051
3.28125
-6.58563
3.29772
-6.58527
3.29971
-11.3912
3.31779
-6.60982
5.40611
-5.40611
5.35627
0.0498387
-5.35627
0.0725285
-2.15681
0.012346
-2.15681
-3.69222
-0.187344
-3.69222
4.08822
-0.208652
4.08822
-3.08246
3.08246
-3.07427
-0.00818433
3.07427
0.00773508
5.46898
-0.00855887
-5.46898
-0.000266783
1.33244
0.189107
-1.33244
0.277108
3.77318
-0.169223
3.77318
-3.42392
-0.180041
-3.42392
-2.1226
-0.0342024
2.1226
-0.0115754
-5.82591
0.23939
-5.82591
-11.1898
0.0923112
-11.1535
-6.1073
-6.1073
2.33346
11.1264
-3.16446
-0.00740627
3.16446
-0.00473879
3.10681
-0.0243538
-3.10681
0.0115187
-3.0869
0.00375853
3.0869
0.00839095
-1.88704
0.498212
-1.88704
-1.83425
1.83425
-1.38069
-0.453566
1.38069
-0.300893
2.95856
-0.31658
2.95856
2.04999
0.0754151
-2.04999
0.101364
-3.99052
-0.124864
-3.99052
5.15551
-0.0551889
5.15551
-3.31948
-0.104442
3.31948
-0.0848632
-0.0345805
11.1459
-5.14081
0.0369685
5.14081
-11.2044
11.2414
-2.77637
0.889328
2.77637
1.17542
5.31595
0.270564
-5.31595
0.264956
5.39327
0.00523539
-5.39327
-0.0128445
-3.47371
-0.218516
-3.47371
-4.31476
-0.344147
4.31476
-0.226542
-11.4588
-0.200742
11.6596
-11.4123
6.02665
0.13384
-6.02665
11.3752
-2.2795
-0.362476
2.2795
-0.44525
3.1567
-0.198145
3.1567
3.90467
-0.131488
-3.90467
-0.0858467
-5.26138
-0.0859758
5.26138
-0.105876
-3.28754
-0.186168
3.28754
-0.130839
-4.19855
4.26572
1.96961
-3.34174
-3.30253
-7.56575
1.81334
1.94556
4.2639
-7.03268
-4.35852
-6.90051
7.29859
-7.03363
-9.61645
9.56557
7.22083
-7.35108
-5.78912
5.79685
6.39243
-6.40193
1.8581
1.90333
10.6042
-10.5178
-10.2734
9.98998
10.2173
-10.2059
10.5938
-10.6157
-12.1805
12.1858
-5.6872
5.72673
-6.61302
6.59357
-6.70493
6.62007
-3.22942
-3.35585
9.03476
-8.95871
11.6691
-11.6946
-11.2099
11.4119
3.30231
0.963413
3.3328
-1.90815
3.76625
-1.85023
3.81984
3.28118
-6.5106
3.30445
-6.60698
6.01122
5.65786
-5.99547
-1.57028
-5.86202
5.8403
-5.7914
5.7998
9.40292
-9.77102
-1.87842
3.78175
-1.86987
3.81542
-3.40219
-2.38693
3.31839
0.94551
5.55192
3.48284
-5.66476
-1.23575
-7.51838
7.38689
-7.81875
7.63871
-0.481408
5.78186
-5.30045
4.37427
-1.45507
7.23693
5.84352
6.0156
5.86282
-5.59226
1.17081
-6.47126
-6.37054
-2.66148
2.80148
2.692
-2.55222
5.71814
1.50268
5.51913
-5.42085
-1.93023
-5.54571
3.85435
1.94251
3.84616
4.0698
2.32264
4.0547
3.05617
-3.05353
-0.00264701
-3.10222
6.1584
0.728223
-5.48916
-4.54365
6.97043
3.63379
6.98553
-7.24752
-3.27026
-6.9973
-6.04258
-4.23077
-6.38673
6.53673
3.45325
6.3787
-7.84831
7.74244
6.74238
3.47491
6.75554
-6.81598
-3.38987
-6.84572
10.277
-2.65909
-7.61789
-6.81734
-5.36319
6.84659
3.74725
7.45111
4.73465
7.43827
3.50539
6.77159
-7.25264
1.88944
-3.82597
-1.86124
-3.78133
3.67301
2.05373
3.71409
-4.16649
-2.44654
-4.17389
-4.20043
-2.5045
4.24372
2.34985
-4.25505
-3.5637
4.35949
2.26057
3.05346
-7.41198
3.55636
-6.91221
-6.2723
-2.68641
-6.19978
3.93718
2.64995
-6.58713
-2.57341
10.7507
-5.09281
9.18039
-7.26834
-4.42621
-7.26861
-8.50788
-2.702
-8.61567
-5.59543
5.37692
-5.61064
5.40199
10.3591
-5.56628
-4.79283
-3.84308
-2.55885
3.84764
-0.514835
-3.82619
3.82355
-0.0599408
3.75989
4.72331
4.20847
-3.85483
-1.93657
-3.84331
3.83834
1.96146
3.84209
8.05847
1.34445
7.6589
-6.39003
-3.38099
-6.73209
7.33303
-7.02239
2.96923
-3.00343
5.03833
2.60038
-4.86911
-2.64927
5.90939
-2.8473
-3.06209
-12.0633
11.0392
1.02405
-4.82632
-0.452049
0.118628
-5.67218
-3.94427
5.5555
0.460106
11.4993
7.55503
-5.50675
5.74614
6.15281
6.21666
-0.153879
5.39645
-4.50712
3.87146
-2.14353
-1.72793
5.10047
-5.43299
-1.63162
-4.98163
3.35001
0.086147
2.21428
-1.72963
-2.14918
-0.512303
-2.04782
1.65689
1.03511
1.846
0.981555
1.81993
-2.87787
0.584995
2.29287
-1.89631
-1.96722
-3.34413
-1.1819
4.52603
5.39374
1.99315
-5.30789
-0.23782
2.81741
-2.78931
-0.569788
-2.77434
2.11653
-2.68632
-3.32189
-1.84894
5.17082
-3.3402
-0.503115
3.36455
0.481612
-3.76683
-2.09518
3.77723
0.277463
-3.03176
6.09846
-3.06671
-4.96833
2.59941
3.55898
4.54192
-4.78458
2.42688
2.3577
-1.2256
6.01474
0.970794
6.04528
-9.1687
5.89844
7.6881
3.72381
-7.95512
0.957816
-8.21088
9.55059
-8.38196
-1.16863
4.94568
4.60491
5.08531
5.2738
-3.81748
8.90279
-1.19317
-7.18879
9.40405
-5.68024
5.65624
-11.3365
-10.93
3.74126
-6.79839
8.47282
-1.67443
-2.41833
-5.42998
9.21672
-0.893524
-8.32319
5.48517
-5.27931
-5.31265
10.592
-7.93839
8.70252
-2.5596
-6.14292
-6.62126
-3.99447
6.70724
1.0352
-9.79705
11.6865
-3.02546
5.86305
0.892497
5.85349
3.82134
-5.92568
2.10435
4.11706
-6.67666
2.51788
-8.44357
-4.72324
9.42715
-4.70391
-7.40965
-6.563
-0.846644
2.04584
9.64066
-6.78049
5.27467
1.50582
3.3321
0.509993
-3.33529
-0.446036
0.33105
4.36476
-4.69582
4.04514
4.06155
3.31645
1.04831
3.82939
2.0109
-3.82465
-0.349241
-3.94686
1.44235
-1.597
-3.39282
4.83517
-3.79756
0.404745
-2.62644
-3.4792
6.10565
-4.48768
3.05342
3.04505
5.01488
-4.73669
1.25749
-2.35237
-2.38432
2.54007
-4.13708
1.87317
2.962
4.13375
0.570048
4.72963
4.69752
-7.37958
0.467373
8.18036
-6.94461
1.61139
5.82688
-6.88606
0.323056
-5.87672
1.15318
-6.24598
-5.43396
6.03812
-8.74012
-5.29836
7.77564
-0.116736
-7.47011
-1.14556
-3.87769
-1.71774
-4.06386
-1.65746
-3.95318
-5.47494
-1.2364
-4.23854
4.14052
-4.22013
-2.16659
4.44668
0.955311
-4.928
4.56552
-4.7903
4.59215
0.14892
3.67463
4.35739
1.79854
-2.44903
4.24757
-6.60541
7.94986
-8.54861
1.9432
2.70279
-6.08378
-5.84582
3.94243
3.39059
3.94083
6.77751
-9.67926
2.90175
-7.31811
7.96472
-0.646608
-11.207
3.8889
-4.4295
2.75261
0.216618
2.76495
0.715725
2.34297
-3.05869
-2.2877
-2.29928
-2.19757
-3.17425
5.37182
1.04285
-3.19942
2.15657
-3.21856
4.26141
-0.153227
-3.0462
5.17202
-2.82905
5.38863
-3.37178
2.01685
3.08034
5.24376
-2.16342
4.16554
-1.56516
1.65799
-3.82141
-1.51627
-2.93718
4.99091
-3.16846
3.57321
-0.295096
3.8683
-3.89588
1.04858
-0.579426
3.48212
3.60947
4.0905
-3.04218
2.793
-4.35817
-1.0284
-3.78812
-0.826117
-4.34917
-3.40907
7.75824
4.5068
-8.85597
-5.71936
8.39824
-2.67888
6.84709
-5.76821
-1.07889
-3.62979
-3.39261
3.13157
2.26487
9.11196
-0.322812
-5.44539
-4.82993
-3.65451
1.91661
1.95484
-2.70404
3.7281
2.58541
-0.371134
0.578546
1.26745
1.96324
-1.3847
0.185068
1.77818
-1.54456
2.07748
0.73993
-2.1529
0.105081
-1.23786
3.35439
1.05501
-2.09012
0.705421
0.860817
-3.00435
4.30829
-1.99939
-2.3089
5.16911
1.24777
-3.24716
3.73386
-3.64771
1.96578
-3.14768
-1.28138
-4.92909
-3.42641
-2.34489
4.50146
-3.02693
5.02008
1.17958
-4.78226
5.96184
-3.34883
1.49989
-2.89603
3.63596
-0.912583
-1.98345
2.59871
2.57211
-2.74471
-0.0296307
-0.146
2.14702
-2.29302
-0.539294
-2.43561
-4.49858
4.77604
-2.07163
4.4985
2.17594
-1.90979
6.40829
1.79833
-3.70812
-3.17
-3.67311
-1.35042
3.1915
-0.917732
-5.92798
-7.06065
5.92488
0.120404
-8.97739
10.1282
-1.15084
-5.3436
-0.554838
5.50052
-7.38254
0.705881
-4.86466
5.26357
6.23437
6.35477
-8.26342
-0.0597716
-4.81017
1.22318
-6.03336
5.82809
-2.80489
6.54615
-7.0532
4.88661
-6.09789
5.37752
-0.655838
5.49355
-3.3892
2.12434
-6.11881
-5.08361
6.98621
-3.5113
7.87871
-4.0552
11.9339
-7.08066
6.91412
5.01979
-1.36049
-5.90812
-6.85093
5.49044
0.0631952
5.91668
4.80171
-2.7908
4.45246
2.13115
-4.48352
-2.00593
-6.27669
1.79317
-3.23164
-1.85294
3.6461
3.16194
3.67193
1.26178
-3.2259
6.48612
-7.33276
-1.78221
-3.65175
6.74229
-1.25185
3.9299
-7.58165
-2.31609
5.41269
-0.960601
-4.45209
0.15359
-5.45195
2.73915
-8.1911
6.00097
-7.14652
1.70516
-6.13466
-3.22284
-3.66809
-1.48617
-3.30412
-4.83371
3.34754
-0.944819
3.62071
-5.75141
4.79081
-2.21331
5.56085
-3.52899
-0.534864
3.65983
0.932319
6.49317
-2.12772
-3.7181
-0.633849
3.50303
-2.86919
1.28276
-5.53679
-2.03376
2.36384
2.80526
-5.71385
-0.369928
-4.08803
-2.55136
5.94196
5.84688
10.3537
0.67442
6.66928
-0.727324
7.3437
3.21351
2.91261
-3.16485
6.06661
4.59339
6.53659
-0.834985
2.85184
1.92997
1.92092
0.868387
2.22772
1.38175
3.27631
0.217614
-2.08166
5.1161
-8.7706
-0.329298
-7.90928
1.65629
6.46151
-4.80522
2.99146
-1.03662
0.122273
-1.03354
-1.91818
2.95172
-2.76146
-2.28931
-0.511138
-1.59305
2.29847
1.76135
-1.78733
-0.974131
0.382325
-3.80874
2.76535
-2.79498
-0.222872
5.73896
-2.54351
0.250489
-1.04362
-2.18512
-2.69742
2.59234
6.12035
0.287938
3.05365
5.06398
2.9688
0.177994
4.36885
-6.04328
-4.07471
-6.10305
-0.27496
5.22556
1.98302
7.65763
7.00281
5.75096
-1.83069
-9.16346
7.28436
-1.21776
6.63775
-2.18567
-6.00543
6.41415
1.53571
-6.29742
-0.849105
-6.85454
-8.07229
-0.485963
5.27677
-6.00721
5.47234
3.7546
0.483942
-2.74207
-0.926023
3.19563
-0.283016
7.06068
-1.81903
-8.39301
10.212
-4.64247
4.31317
0.00236309
3.72573
2.95408
1.91746
-6.47555
-11.2808
-1.77499
-1.22935
-4.08389
0.442139
-2.20348
6.27568
-1.96251
5.1968
8.24954
8.37181
-3.92716
-4.92881
6.60604
-1.40924
6.96257
)
;

boundaryField
{
    wall-4
    {
        type            calculated;
        value           uniform 0;
    }
    velocity-inlet-5
    {
        type            calculated;
        value           uniform -3.75095;
    }
    velocity-inlet-6
    {
        type            calculated;
        value           uniform -5.62643;
    }
    pressure-outlet-7
    {
        type            calculated;
        value           nonuniform List<scalar> 8(6.44968 6.33006 6.60706 6.72411 6.57957 6.62638 6.57897 6.61751);
    }
    wall-8
    {
        type            calculated;
        value           uniform 0;
    }
    frontAndBackPlanes
    {
        type            empty;
        value           nonuniform 0();
    }
}


// ************************************************************************* //
