/*--------------------------------*- C++ -*----------------------------------*\
| =========                 |                                                 |
| \\      /  F ield         | OpenFOAM: The Open Source CFD Toolbox           |
|  \\    /   O peration     | Version:  4.0                                   |
|   \\  /    A nd           | Web:      www.OpenFOAM.org                      |
|    \\/     M anipulation  |                                                 |
\*---------------------------------------------------------------------------*/
FoamFile
{
    version     2.0;
    format      ascii;
    class       volVectorField;
    location    "5";
    object      U;
}
// * * * * * * * * * * * * * * * * * * * * * * * * * * * * * * * * * * * * * //

dimensions      [0 1 -1 0 0 0 0];

internalField   nonuniform List<vector> 
918
(
(0.987417 -0.00715876 0)
(0.00483014 2.96639 0)
(-0.0104858 1.71342 0)
(0.967621 0.013831 0)
(-0.00946122 1.68813 -2.10031e-21)
(-0.00695364 2.94866 -2.16361e-18)
(1.0404 1.42164 6.07574e-19)
(0.558435 0.295252 -8.39667e-21)
(0.999421 -0.00180214 0)
(0.0143577 1.64318 0)
(0.0121005 1.65313 0)
(0.906707 0.015817 0)
(0.0117714 2.92918 0)
(-0.00511767 2.79598 0)
(-0.0352717 3.23294 1.16969e-18)
(0.0108979 1.65124 -2.35763e-20)
(0.694157 0.135434 5.38584e-19)
(0.25366 1.92848 5.85668e-19)
(0.966729 0.0256754 0)
(0.00121857 1.66668 0)
(0.174851 0.285758 -6.08053e-19)
(0.991918 -0.00468607 0)
(0.993327 -0.00997605 0)
(0.967937 -0.0069252 0)
(0.846371 0.00389153 0)
(0.0148705 2.63897 0)
(-0.0140932 2.91131 7.75719e-19)
(-0.00748101 1.72445 0)
(-0.0015681 1.76246 0)
(-0.000354351 1.73226 0)
(0.00850711 1.78917 0)
(-0.00258546 1.7009 1.66514e-21)
(-0.00393429 1.63653 0)
(-0.0208483 2.9876 -7.68477e-23)
(-0.0167779 3.00544 1.68376e-18)
(0.00219925 3.00039 0)
(0.950062 0.00709542 0)
(0.223985 0.378849 -2.34902e-19)
(0.962683 1.47768 -6.42417e-19)
(1.09629 1.19615 7.43628e-19)
(0.838857 1.68696 -1.38196e-19)
(0.920874 1.66082 8.51078e-19)
(0.599218 0.343516 8.19282e-21)
(0.58194 0.280928 0)
(1.22604 0.601223 0)
(0.582941 0.350183 3.94215e-20)
(0.530889 0.307957 -4.09055e-20)
(0.941945 0.00229034 0)
(0.999932 -7.78403e-05 0)
(1.00023 0.00099384 0)
(0.986181 -0.0156137 0)
(0.999802 -0.00321791 0)
(1.0023 0.000131418 0)
(0.0304068 1.60881 -5.07169e-19)
(0.0177436 1.74012 0)
(0.0798195 1.68297 0)
(-0.00282016 1.72837 0)
(-0.00315276 1.6424 0)
(0.000214551 1.64518 0)
(0.00225078 1.713 0)
(-0.00230565 1.65482 0)
(0.00561814 1.71386 0)
(0.0125726 1.64464 0)
(0.962666 -0.00136778 0)
(0.944639 0.0106236 0)
(0.911833 0.0126006 0)
(0.929995 0.018259 0)
(0.894474 0.00419767 0)
(0.0149746 3.0002 7.97822e-19)
(0.0120565 3.00739 0)
(0.00646855 3.0034 0)
(0.0136623 2.99697 9.02188e-24)
(0.00843529 2.95803 -1.18577e-18)
(0.0140379 2.98105 0)
(0.0105198 2.90425 0)
(0.0228222 2.92754 1.73824e-24)
(0.00504679 2.824 0)
(0.0243525 2.91236 0)
(-0.0260689 2.75359 0)
(0.277706 3.59106 0)
(-0.126066 3.68603 0)
(0.132566 3.31609 -1.0866e-18)
(-0.00982422 3.03327 0)
(0.00243012 1.75413 0)
(0.0057268 1.71039 2.32618e-20)
(0.0151685 1.65351 -3.18355e-20)
(0.724405 0.168961 -1.86038e-19)
(0.696949 0.102924 -1.86296e-19)
(0.725391 0.206477 -5.60389e-19)
(0.669299 0.182335 -3.74562e-19)
(0.202704 1.34664 0)
(0.344403 2.00458 -6.44156e-19)
(0.497518 1.96774 1.08318e-18)
(0.979354 0.0194755 0)
(0.93379 0.0227595 0)
(1.00178 0.000136848 0)
(0.994163 0.0135675 0)
(0.998234 0.0223965 -1.11642e-18)
(0.985349 0.0348755 8.62349e-19)
(-0.00236458 1.71079 0)
(-0.00419145 1.65759 0)
(0.00346554 1.74186 0)
(0.000171339 1.72302 0)
(0.00936375 1.66826 0)
(0.284178 0.395372 1.79973e-19)
(0.393207 0.328133 0)
(0.989754 -0.0014141 0)
(0.954041 0.00822474 0)
(0.915211 -0.00507496 0)
(0.905084 0.0107747 0)
(0.893123 -0.0118797 0)
(1.08239 -0.00169719 0)
(0.850914 0.0615577 0)
(0.763804 0.033666 7.33625e-19)
(-0.0417968 2.87715 4.60943e-19)
(0.0356189 2.90939 0)
(0.0543404 2.88538 0)
(-0.02296 2.70931 0)
(-0.0119479 2.9853 7.28541e-19)
(-0.0159206 2.89745 0)
(-0.0149649 2.9881 -2.27245e-18)
(-0.0126291 2.9254 7.81734e-19)
(0.000319802 1.77331 0)
(0.000417913 1.76628 0)
(0.00188693 1.71528 -3.06329e-22)
(-0.00752137 1.70172 0)
(-0.00868534 1.64247 0)
(0.98398 0.00711191 0)
(0.952785 0.0064342 0)
(0.934333 -0.00553753 0)
(0.9797 0.0134436 0)
(0.948945 0.00265555 0)
(0.412683 0.750943 2.80497e-19)
(0.254559 0.729059 0)
(0.498287 0.655406 -2.48468e-20)
(0.247421 0.257519 0)
(1.04673 1.25024 -2.06239e-19)
(1.1559 0.965507 4.50244e-19)
(0.532628 1.97919 0)
(0.690216 1.87149 0)
(0.743545 1.8646 0)
(0.545431 0.987654 -3.54226e-19)
(0.649917 0.311504 0)
(0.627395 0.231415 1.05691e-19)
(1.11225 1.03757 0)
(1.16375 0.845609 0)
(1.18194 0.773089 -3.97426e-19)
(1.20917 0.663012 0)
(1.26538 0.424352 6.4694e-20)
(0.976967 -0.00405908 0)
(0.973238 -0.000153627 0)
(0.940534 -0.0099203 0)
(0.971001 0.0101577 0)
(0.967271 0.00691254 0)
(0.937335 0.0114687 0)
(0.999878 0.00119102 0)
(0.999129 0.00182545 0)
(0.999743 0.00110057 0)
(0.0262363 1.6266 2.72715e-19)
(0.056187 1.54153 0)
(0.00152757 1.66972 4.57069e-19)
(-0.00551862 1.62596 -3.9056e-19)
(0.186379 1.90871 -4.87399e-19)
(0.0638264 1.77398 0)
(0.123756 1.77813 0)
(0.00314747 1.73021 0)
(0.007174 1.63887 0)
(-0.00463711 1.6959 -1.29678e-21)
(-0.00257599 1.64796 0)
(0.00118164 1.70238 -6.04326e-20)
(-0.00708272 1.655 1.17679e-19)
(-0.0107104 1.71671 0)
(-0.0180159 1.71172 0)
(-0.0158059 1.63814 0)
(0.0054929 1.70779 0)
(-0.00082784 1.65186 0)
(1.00898 0.00450482 0)
(0.973816 0.00818471 0)
(0.99783 0.00926844 0)
(0.956627 0.0116985 0)
(0.928029 -0.00197101 0)
(0.967546 0.000886993 0)
(0.967069 0.00716267 0)
(0.930355 -0.0112592 0)
(0.00599771 3.06501 -7.26754e-21)
(0.0153248 3.0576 0)
(0.0139098 2.96958 0)
(0.00884559 2.87753 0)
(0.819307 3.95167 0)
(1.096 3.20023 9.71513e-19)
(0.0807461 3.13404 0)
(-0.0238065 2.92887 0)
(-0.00349294 1.75514 0)
(-0.00383556 1.75453 0)
(-0.00111844 1.75386 0)
(0.00619071 1.78308 2.94071e-21)
(-0.000363215 1.75786 0)
(0.00732739 1.76483 0)
(0.00268848 1.66442 1.85211e-21)
(-0.00853621 1.71502 4.07189e-20)
(-0.000915585 1.71779 3.24613e-20)
(-0.00345411 1.65873 0)
(0.756563 0.129396 2.80381e-19)
(0.717534 0.0624467 -2.69891e-19)
(0.188768 1.42393 0)
(0.291325 1.30394 -2.21362e-19)
(0.124325 1.43689 -6.53257e-19)
(0.148632 1.38265 6.52577e-19)
(0.927783 -0.00459129 0)
(0.968727 0.000626444 0)
(0.962984 0.00372479 0)
(0.921631 0.00297118 0)
(-0.00256293 1.71292 0)
(-0.000912746 1.70954 0)
(0.00188301 1.65617 0)
(0.531501 0.381745 3.63687e-19)
(0.460285 0.391575 -4.83263e-19)
(0.490741 0.310519 0)
(1.18989 0.0815129 -1.89734e-21)
(1.18038 0.037997 0)
(1.10885 0.0388704 0)
(1.02969 0.00988407 0)
(0.773972 0.0864421 0)
(0.787675 0.0713064 -1.18436e-18)
(0.735942 0.0222469 4.54081e-19)
(0.00293413 2.98485 5.60233e-19)
(-0.0396935 2.87285 5.19009e-20)
(0.00201521 3.0501 -1.55555e-20)
(0.0192099 3.04253 5.44911e-19)
(-0.014623 2.99636 2.58452e-20)
(-0.0126494 2.94975 -1.03647e-22)
(-0.0174801 3.01213 -4.80161e-19)
(0.0150353 3.0235 3.53849e-19)
(0.00768465 3.03794 -5.5488e-19)
(0.994563 0.0153935 0)
(0.995484 0.00240369 0)
(0.956947 0.00820068 0)
(0.972159 -0.0110246 0)
(0.977445 -0.00520439 0)
(0.935733 -0.0202821 0)
(0.969235 0.00908842 0)
(0.967349 -0.000655645 0)
(0.931618 0.00233314 0)
(0.453594 1.02919 4.69861e-19)
(0.49774 1.16997 0)
(0.471663 0.62106 7.87533e-20)
(0.5791 0.829636 4.66896e-19)
(0.561861 0.716232 -1.45936e-19)
(0.339937 0.390594 2.22397e-19)
(0.498817 1.22334 1.72289e-18)
(0.507508 1.12317 3.57548e-19)
(0.691829 0.250137 4.02652e-19)
(0.674413 0.27149 9.57651e-20)
(0.653503 0.211122 1.99271e-19)
(1.25074 0.48457 2.62837e-19)
(1.26415 0.265136 2.90305e-19)
(-0.0162322 1.6759 1.82832e-19)
(-0.00385662 1.61917 0)
(1.05654 0.0228866 0)
(1.02678 0.0173396 0)
(1.00606 0.00344623 0)
(0.0124382 3.07447 0)
(0.0202829 2.9431 9.89892e-19)
(0.0168536 2.95759 0)
(0.00855649 2.85144 -9.80764e-19)
(0.00918142 3.08721 2.39064e-19)
(0.00783933 3.08217 0)
(0.502685 1.53311 -2.11242e-19)
(1.06362 2.34531 4.96046e-19)
(0.508093 1.731 -1.32703e-18)
(0.0166836 2.99451 -4.21835e-19)
(0.0434195 3.03233 0)
(-0.0342967 2.89592 0)
(-0.00480801 1.69488 -6.1993e-21)
(0.00661909 1.70946 -8.72471e-20)
(0.00592544 1.65595 -6.71983e-21)
(0.258049 1.36491 7.03386e-19)
(0.347737 1.26367 -4.9583e-19)
(0.0434493 1.55836 4.35361e-19)
(0.0757393 1.49543 -5.3759e-19)
(0.07759 1.43781 5.65554e-20)
(0.0101686 3.11241 -1.31132e-18)
(0.0147067 3.11396 1.42237e-18)
(-0.00744703 2.98289 6.52345e-19)
(-0.00736993 2.98033 -5.97469e-19)
(-0.023727 2.88728 -6.64364e-19)
(0.00890973 3.09914 -1.76923e-18)
(0.00578031 3.1021 1.76335e-18)
(0.531878 1.10572 0)
(0.56865 0.976539 -1.42848e-18)
(0.534433 0.847721 6.45737e-19)
(0.424476 1.27895 9.58874e-19)
(0.454122 1.17896 -1.49797e-18)
(1.26437 0.167861 -4.78093e-20)
(1.26221 0.312985 0)
(1.25288 0.120873 1.14833e-19)
(0.00553951 1.69817 -1.57823e-21)
(0.000733782 1.67764 0)
(0.0143335 1.63136 0)
(0.313981 1.32707 -2.5511e-19)
(0.364838 1.32205 -6.15063e-19)
(0.403941 1.20854 1.12005e-18)
(0.999895 -0.0380885 0)
(1.00457 -0.0354392 2.07256e-19)
(0.00229158 1.77236 0)
(-0.00386517 1.77984 0)
(1.00544 0.00843608 5.67416e-21)
(0.994882 0.0113576 4.20113e-19)
(-0.00559733 1.78142 -3.78967e-21)
(-0.0074503 1.78159 0)
(0.0623056 3.20822 2.1387e-19)
(0.410013 3.62013 0)
(1.09233 0.629246 3.44362e-20)
(1.00978 -0.00170894 -1.45817e-21)
(1.00763 0.00848439 0)
(1.00574 -0.00379889 -1.57479e-21)
(0.0322936 1.83885 0)
(0.0962457 1.69562 0)
(0.00643756 1.79034 0)
(0.00482522 1.76548 8.7241e-20)
(0.0126166 1.75925 4.44491e-20)
(0.994401 0.011308 1.81197e-21)
(1.04103 -0.00465244 0)
(1.05853 0.0298289 0)
(-0.0105223 1.75299 0)
(-0.00602665 1.78453 0)
(-0.014234 1.78273 0)
(0.221359 1.94684 -2.54193e-19)
(0.991938 -0.0323366 0)
(0.986038 -0.0250372 0)
(1.01595 -0.00646879 2.63965e-19)
(1.00921 -0.016498 -3.02331e-19)
(1.00754 -0.00457515 0)
(-0.0034367 1.73895 0)
(0.00714339 1.76093 0)
(-0.000328586 1.75459 0)
(-0.00887383 1.78624 0)
(-0.00264158 1.77886 0)
(-0.00767175 1.78393 0)
(1.01861 0.00204108 0)
(1.01343 0.00667433 -1.56304e-21)
(0.700729 1.44623 3.30122e-19)
(1.00684 -0.00257964 -2.56942e-19)
(1.01549 0.0123027 3.17846e-19)
(0.998994 0.00161477 0)
(1.015 0.00916736 2.48582e-19)
(0.997089 0.0105353 -3.1687e-19)
(0.988164 0.022314 0)
(-0.00873277 1.788 0)
(-0.0126201 1.78445 1.21357e-20)
(-0.0113414 1.78659 -8.38771e-21)
(1.16267 0.248862 -1.56969e-20)
(1.09958 0.071323 0)
(0.0701967 3.05022 -7.35222e-19)
(0.0806756 2.84976 -5.72256e-20)
(0.213223 3.1789 1.27254e-18)
(0.167224 3.22498 -3.56394e-20)
(0.188237 3.31921 0)
(0.0275288 3.13285 1.63827e-19)
(0.111864 3.15361 7.11051e-19)
(0.0958651 3.19558 -3.30184e-19)
(0.0300996 3.11867 0)
(0.704506 0.355189 0)
(0.645057 0.400429 0)
(1.00128 0.659079 -1.41335e-19)
(1.06966 0.820201 2.18973e-19)
(1.12444 0.525263 0)
(1.16331 0.528578 0)
(1.01638 -0.00553915 -4.82891e-19)
(1.01965 -0.00512767 5.98299e-19)
(1.01543 0.00872215 0)
(1.01586 0.0136607 0)
(1.01044 0.00699715 0)
(1.02082 0.0032107 0)
(1.01254 -0.00365623 0)
(1.02705 0.0046648 0)
(1.02155 0.018196 0)
(1.02502 0.0107102 0)
(0.0197764 1.8338 0)
(0.0105531 1.84081 0)
(0.0651455 1.86732 0)
(0.0583358 1.87547 0)
(0.103017 1.69097 0)
(0.101711 1.66665 -2.95289e-19)
(0.0754591 1.72632 0)
(0.0370607 1.71495 1.57637e-19)
(0.0335024 1.75801 -1.61948e-19)
(0.00869594 1.79059 0)
(0.00161504 1.78862 0)
(0.00666349 1.79333 0)
(0.0046205 1.81141 0)
(-0.00187399 1.758 -5.07577e-20)
(0.00692712 1.76488 6.42126e-20)
(0.00186015 1.77065 7.83031e-20)
(0.00801514 1.7691 0)
(0.0133193 1.77069 -9.28915e-20)
(0.014188 1.76937 -6.25261e-20)
(-0.00173288 1.75606 3.94489e-20)
(0.000780116 1.75723 -8.44936e-20)
(-0.00120623 1.76391 -9.63874e-20)
(1.00238 0.0226612 4.51493e-19)
(1.00325 0.0174309 -5.77426e-19)
(0.998602 0.00605107 -4.82284e-19)
(0.970328 0.00392459 6.06821e-19)
(1.0391 0.0046528 0)
(1.04742 -0.0134899 0)
(1.05359 0.030476 0)
(1.04807 0.00382752 0)
(1.06389 0.0217318 0)
(1.07656 0.0749468 0)
(1.06427 0.0321481 0)
(1.08763 0.034115 0)
(-0.00684541 1.78171 -1.7488e-21)
(-0.0156491 1.75819 0)
(-0.0113933 1.76574 0)
(0.00346721 1.78467 1.35572e-20)
(-0.00337482 1.78571 -8.30328e-22)
(0.00708836 1.72263 2.00902e-20)
(0.00116549 1.73277 -1.98394e-20)
(-0.00107136 1.76771 0)
(0.00304423 1.76262 0)
(0.00274585 1.7615 0)
(-0.00496045 1.78394 0)
(0.000977382 1.77969 0)
(0.368514 1.91886 3.96613e-19)
(0.364792 1.93445 1.87386e-19)
(0.304374 1.5528 -1.75807e-19)
(0.12509 1.57753 4.54178e-19)
(0.266208 1.64736 1.13922e-19)
(1.00084 0.0161478 0)
(0.987225 -0.0127378 0)
(0.988637 -0.00625331 0)
(1.03465 -0.00991375 0)
(1.0178 -0.0225417 0)
(1.01469 -0.0235342 0)
(0.993178 -0.00121614 0)
(1.01464 0.0229398 0)
(1.0113 0.00911794 4.33222e-19)
(1.01648 0.013817 -5.65651e-19)
(1.01299 -0.00259671 -4.39566e-19)
(1.01494 -0.0081039 5.59752e-19)
(0.695525 1.558 0)
(0.61636 1.67135 2.96773e-19)
(0.799045 1.32629 1.61089e-19)
(0.851728 1.25175 -2.13152e-19)
(0.786327 2.17562 -8.52475e-19)
(0.842459 0.111199 2.79073e-19)
(1.10479 0.0818783 0)
(1.12595 0.164632 1.28148e-20)
(1.13224 0.138046 1.39732e-21)
(0.967696 0.106805 0)
(0.235664 2.93107 6.83206e-20)
(0.179233 2.8445 -1.03125e-18)
(0.0352928 2.33153 7.17738e-19)
(0.101134 0.214789 -2.86751e-19)
(0.338176 3.52784 -5.53839e-19)
(0.230953 3.38146 0)
(0.262922 3.4893 7.21207e-19)
(0.339276 3.11486 -7.48527e-19)
(0.473926 3.32981 0)
(0.0151575 3.11321 3.59899e-20)
(0.0249165 3.12557 -4.36154e-19)
(0.0246279 3.12214 6.41976e-19)
(0.0474202 3.13508 0)
(0.0455668 3.14879 0)
(0.826342 2.42099 0)
(0.462872 0.609797 5.85792e-21)
(0.967459 1.04451 -1.05566e-19)
(0.910257 1.0706 0)
(0.685031 0.998908 1.26149e-20)
(0.959546 0.837635 1.295e-20)
(0.44279 0.600076 -5.92818e-19)
(0.715382 0.34202 -2.39684e-20)
(0.719097 0.31332 2.0033e-19)
(0.624287 0.439201 1.68504e-20)
(0.591548 0.428207 -7.12585e-19)
(0.703739 0.365292 0)
(0.703362 0.418586 3.15776e-19)
(0.703787 0.402189 0)
(0.664709 0.389291 0)
(0.673934 0.367175 0)
(0.746648 0.574023 9.47326e-20)
(1.17006 0.264226 1.43528e-20)
(1.14946 0.408302 0)
(1.1746 0.367597 0)
(0.793764 0.227354 3.1732e-19)
(0.79357 0.475378 -1.60031e-19)
(0.720361 0.450846 2.51765e-19)
(0.867173 0.410694 -2.63244e-19)
(1.01622 0.00765139 3.0877e-19)
(1.01956 -0.00837177 -3.09702e-19)
(1.01905 -0.00258907 0)
(1.01753 0.00139575 0)
(1.02089 0.00590284 -2.94034e-19)
(1.02114 -0.00903721 2.8661e-19)
(1.01013 -0.000568149 0)
(1.00406 0.00111515 0)
(1.02524 -0.00407471 0)
(1.02007 -0.00926767 0)
(1.01275 0.00325919 0)
(1.01658 0.00582692 0)
(0.00948794 1.83892 0)
(0.0122043 1.83399 0)
(0.140242 1.8454 -1.56824e-20)
(0.216562 1.91882 1.26001e-19)
(0.119756 1.9217 2.68195e-19)
(0.127905 1.94445 -4.32202e-19)
(0.180764 1.86654 0)
(0.151458 1.75107 -1.10468e-19)
(0.127693 1.77624 0)
(0.262464 1.67072 -1.6413e-19)
(0.18469 1.61752 5.35763e-19)
(0.19152 1.78312 9.59946e-20)
(0.231755 1.85825 3.75189e-20)
(0.196288 1.86192 -3.01229e-20)
(0.275837 1.80318 -8.71896e-20)
(0.222628 1.75346 0)
(0.225047 1.75722 8.13704e-20)
(0.0391849 1.76724 -4.63608e-20)
(0.0204854 1.74393 0)
(0.0315492 1.72303 1.84055e-19)
(0.0337244 1.74032 0)
(0.0154651 1.71865 -1.75172e-19)
(0.00279375 1.72959 0)
(0.00259318 1.76562 -3.72066e-20)
(0.00490371 1.7601 0)
(0.00797447 1.76861 0)
(0.00892768 1.76501 4.14999e-20)
(0.00601143 1.76648 -1.77519e-21)
(0.0286267 1.77036 1.92544e-19)
(0.0144432 1.77125 1.29225e-21)
(-0.00502433 1.75537 3.02929e-20)
(-0.0063749 1.75342 2.1469e-20)
(-0.00048764 1.78805 0)
(-0.00995878 1.78133 0)
(0.0120842 1.75313 1.08525e-19)
(0.0189116 1.76093 8.44937e-20)
(0.0119929 1.75202 -1.13685e-19)
(0.0239236 1.76654 0)
(0.0225915 1.76313 -5.69023e-20)
(0.0157179 1.7612 2.74585e-20)
(0.00437392 1.75415 -8.35872e-21)
(-0.00472031 1.75424 -3.66688e-20)
(0.0098244 1.75903 -1.40682e-20)
(0.0125842 1.7664 5.64389e-20)
(1.01487 -0.00585957 -2.90377e-19)
(1.00779 0.0144539 3.0054e-19)
(1.0118 0.000631811 0)
(0.981093 0.0619041 4.39038e-19)
(0.964652 0.0238 -4.98441e-19)
(0.935984 0.0180515 5.7699e-19)
(0.974316 0.0646775 -5.73122e-20)
(1.03061 0.0103467 0)
(1.0401 -0.00608787 2.62336e-19)
(1.03388 -0.000193368 -2.6135e-19)
(1.01037 0.0249339 -1.50807e-20)
(1.01723 0.0184889 1.34795e-19)
(0.995782 0.0421729 0)
(0.983815 0.034735 -4.71645e-20)
(1.0129 0.0282629 0)
(1.00066 0.0240309 0)
(1.01217 0.00378176 0)
(1.01635 -0.000558602 0)
(1.00538 0.0123929 9.89689e-20)
(1.00163 0.0119476 -2.11554e-19)
(0.968726 0.0126312 -1.05037e-19)
(0.973136 0.00986752 -1.15379e-19)
(0.991306 0.0591061 2.08924e-19)
(1.04594 0.0565744 0)
(1.02962 0.0918224 0)
(0.020324 1.7676 -2.81797e-20)
(-0.00994459 1.75694 -2.34483e-21)
(0.00725356 1.74853 0)
(-0.00284671 1.78013 2.87981e-20)
(-0.0111805 1.78354 3.6791e-21)
(-0.010537 1.78479 -3.5527e-21)
(0.0120145 1.76987 5.4853e-20)
(-0.00135701 1.75764 -3.03729e-21)
(0.000639473 1.75799 1.65596e-20)
(0.00854394 1.77709 -2.94202e-20)
(0.00465492 1.76673 3.36434e-20)
(0.00530722 1.74152 2.05309e-21)
(0.0194542 1.73037 3.0905e-20)
(0.359387 1.80627 -1.64011e-19)
(0.282919 1.79751 1.08069e-19)
(0.619568 1.77268 -2.85335e-19)
(0.504156 1.88823 -1.87476e-19)
(0.521574 1.85068 0)
(0.343614 1.55081 1.82011e-19)
(0.359262 1.54152 2.60865e-19)
(0.180482 1.57586 3.91501e-20)
(0.174268 1.57566 -6.01716e-19)
(0.251472 1.57175 4.79665e-19)
(0.275335 1.58447 0)
(0.202473 1.58026 -3.80682e-19)
(0.105465 1.64575 7.55642e-19)
(0.113059 1.60122 -5.25535e-20)
(0.0626267 1.61167 -1.0454e-18)
(0.747063 1.46954 8.70048e-19)
(0.52548 1.50848 0)
(1.03511 -0.00558302 9.01108e-21)
(1.02338 0.0356747 -7.79707e-21)
(1.01786 0.0352487 -1.4074e-19)
(1.01201 0.0218083 1.47191e-19)
(1.02451 0.00363873 0)
(0.443122 1.52311 0)
(0.324353 1.4124 0)
(0.523398 1.1246 0)
(0.298442 1.31586 0)
(0.779818 2.11116 2.27354e-19)
(0.865348 1.84804 0)
(0.563162 2.01285 7.21205e-21)
(0.523611 1.67866 0)
(0.638571 1.70839 -6.70006e-19)
(0.638976 1.78799 4.21267e-19)
(0.857523 0.143373 0)
(0.835816 0.165846 8.11016e-20)
(0.918282 0.104782 4.03142e-19)
(0.864889 0.0994672 -1.58529e-19)
(0.857235 0.0694748 -5.04841e-19)
(0.989632 0.20024 -2.55028e-19)
(0.924948 0.270706 -1.28613e-20)
(0.838781 0.262661 3.55556e-19)
(0.915345 0.211594 2.86349e-19)
(0.938347 0.142153 -5.0718e-19)
(0.907263 0.143063 6.52179e-20)
(0.857677 0.227827 -1.32908e-19)
(0.908469 0.185286 0)
(0.957642 0.153207 2.44869e-19)
(0.953858 0.153657 0)
(0.956316 0.200146 0)
(1.06042 0.0921625 9.16309e-20)
(0.977324 0.139022 -1.35037e-20)
(0.988836 0.192673 -4.75967e-20)
(1.03758 0.199514 0)
(1.014 0.0403731 2.24368e-19)
(1.00703 0.0469006 2.79844e-19)
(1.01268 0.0462476 -2.21337e-19)
(1.01524 0.0589369 -1.87869e-19)
(0.992352 0.0655669 -3.09047e-19)
(0.952945 0.0681422 0)
(0.948505 0.0582094 0)
(0.927878 0.0618777 -2.06629e-19)
(0.909562 0.0680619 8.60298e-20)
(1.00726 0.0810077 2.53932e-19)
(0.986472 0.0919303 -2.73096e-19)
(0.996021 0.0978423 2.40517e-19)
(0.99474 0.108372 0)
(0.999206 0.0821305 0)
(0.99781 0.0795462 -1.14596e-19)
(1.00964 0.0824121 -2.04037e-19)
(0.0403997 1.79695 1.99567e-19)
(0.163769 2.43465 -1.72047e-19)
(0.664394 2.74001 1.14419e-19)
(0.812495 3.17287 -1.24734e-19)
(0.866859 2.48059 1.04346e-18)
(0.900428 2.54719 -4.7644e-19)
(0.839326 1.933 -1.28304e-20)
(0.777536 2.95363 3.15963e-19)
(0.799004 2.85908 -3.36493e-19)
(0.855751 3.33122 -3.22415e-19)
(1.08202 2.9494 4.49577e-19)
(1.0837 2.82878 0)
(0.478011 0.532057 2.07297e-20)
(0.463477 1.26098 4.47606e-19)
(0.581133 0.626862 3.70706e-19)
(0.536962 0.446864 5.07434e-19)
(0.588746 0.450621 3.99297e-19)
(0.599205 0.468773 -5.71142e-19)
(0.577255 0.542177 4.59719e-19)
(0.54517 0.502092 -2.25406e-19)
(0.523389 0.48965 5.19095e-19)
(0.793931 0.261526 -1.78818e-19)
(0.758585 0.291409 0)
(0.763274 0.271214 1.13459e-20)
(0.688191 0.479441 1.58294e-19)
(0.663933 0.441078 -5.89565e-19)
(0.614143 0.477622 3.64428e-20)
(0.646688 0.462113 0)
(0.59625 0.590126 4.70906e-20)
(0.717737 0.776283 3.51553e-20)
(0.630821 0.764627 -4.62381e-20)
(0.737893 0.746362 -2.85406e-20)
(0.801448 0.850772 3.68627e-21)
(0.79982 0.835522 -3.7549e-21)
(0.809158 0.542869 -1.82419e-19)
(0.850294 0.606096 2.68727e-20)
(0.908447 0.6767 0)
(0.914551 0.654979 -2.63304e-20)
(0.946658 0.286194 6.59801e-20)
(1.07986 0.276997 1.74067e-20)
(0.990188 0.234698 1.03277e-19)
(0.923908 0.349883 -1.49562e-19)
(0.972899 0.398366 0)
(1.01112 0.379888 0)
(0.849954 0.337158 1.34201e-20)
(0.801437 0.301368 0)
(0.822119 0.285812 1.88049e-19)
(0.842447 0.269471 -1.26662e-20)
(0.855425 0.410079 7.20501e-19)
(0.830365 0.454995 1.79214e-19)
(0.816095 0.435856 -2.30194e-19)
(0.751286 0.39194 2.48894e-19)
(0.733608 0.395865 1.61793e-19)
(0.71673 0.402855 -1.59051e-19)
(1.00374 0.00679508 2.40362e-19)
(1.00624 -0.0076182 0)
(1.00586 0.00800029 1.62382e-19)
(1.01161 0.00626449 -3.55703e-19)
(1.00992 0.000216126 1.75582e-19)
(1.01396 0.0182049 -3.6762e-19)
(1.00849 0.00351236 0)
(1.00374 -0.00940147 -7.77582e-20)
(1.00778 0.00301772 1.97716e-19)
(1.01354 -0.000211206 -9.89139e-20)
(1.00948 -0.00312833 7.32518e-20)
(0.00676486 1.81723 0)
(0.0087011 1.77178 0)
(0.0114257 1.83076 0)
(0.0119126 1.82647 0)
(0.028815 1.77733 6.7027e-20)
(0.02521 1.79939 -1.40497e-20)
(0.0885689 1.7784 -3.66508e-20)
(0.0765454 1.77956 -7.13068e-22)
(0.0204189 1.76589 -7.2087e-20)
(0.0186997 1.76742 5.32601e-20)
(0.029339 1.77569 -2.16622e-20)
(0.0148497 1.78725 -2.30219e-20)
(0.0159131 1.78611 -2.08888e-21)
(0.00967952 1.77479 -7.67647e-21)
(0.0408499 1.72408 -1.99642e-19)
(0.0648136 1.7227 0)
(0.0792462 1.71787 1.26878e-19)
(0.0951201 1.76891 7.98331e-20)
(0.184423 1.70766 -8.50013e-20)
(0.138769 1.66307 0)
(0.128307 1.63812 -5.4794e-19)
(0.168104 1.64686 3.98833e-19)
(0.165344 1.72282 -2.3879e-19)
(0.124919 1.71306 1.30757e-19)
(0.10533 1.6826 0)
(0.0161508 1.75244 -1.26007e-19)
(0.00296013 1.75422 -1.72537e-19)
(0.00524864 1.75282 0)
(0.024962 1.75984 -4.30967e-21)
(0.0364043 1.76408 6.03335e-20)
(0.00693478 1.78068 6.9112e-21)
(0.00746864 1.78651 -1.048e-19)
(0.00341748 1.78465 2.60349e-20)
(-0.00404211 1.76606 4.13211e-20)
(0.00289483 1.76463 0)
(-0.00185087 1.78711 0)
(0.00266086 1.78241 3.21914e-20)
(0.00121798 1.78647 -9.85798e-21)
(-0.00038337 1.78711 0)
(-0.00511423 1.7848 2.71139e-20)
(-0.00164632 1.77931 -5.22753e-20)
(0.997358 0.0177875 0)
(1.00352 0.0281773 -2.32972e-20)
(1.00782 0.00910739 -1.68679e-19)
(1.01293 0.0147343 0)
(1.01925 0.0307011 0)
(0.995308 0.00363926 -9.09226e-21)
(0.994065 0.00606063 2.76212e-19)
(1.00092 0.0116943 3.50941e-19)
(1.01363 0.0113479 0)
(1.00973 0.0108159 0)
(1.00106 0.0134505 1.76462e-19)
(1.00193 0.0136157 0)
(1.00121 0.0150876 0)
(0.0151085 1.74348 0)
(0.0227056 1.74763 2.16652e-22)
(0.0217007 1.75891 1.2904e-20)
(0.00253797 1.78324 0)
(0.00726178 1.75591 1.56586e-20)
(0.0066004 1.76118 -1.21312e-20)
(-0.00378745 1.78452 0)
(0.3818 1.68062 0)
(0.320123 1.76001 -2.51892e-19)
(0.291224 1.73182 0)
(0.411346 1.74664 1.95797e-19)
(0.435429 1.79291 0)
(0.424712 1.7995 -3.98358e-20)
(0.759148 1.63019 -2.0311e-20)
(0.774693 1.45127 -1.04267e-18)
(0.829415 1.42842 1.18827e-18)
(0.583414 1.50989 2.7239e-19)
(0.53941 1.56422 0)
(0.619641 1.57272 0)
(0.712153 1.47859 0)
(0.64295 1.49125 -9.57801e-19)
(0.386693 1.63764 -5.32314e-19)
(0.482559 1.56209 -1.38131e-19)
(0.518611 1.63072 1.12744e-19)
(0.384514 1.53848 0)
(0.478015 1.5381 0)
(0.408078 1.53911 -3.08914e-19)
(0.460168 1.5786 0)
(0.172641 1.15876 0)
(0.0575622 0.838692 5.89307e-19)
(0.348086 0.593446 3.40908e-20)
(-0.119141 1.44773 0)
(-0.0322262 1.56061 -8.37406e-19)
(0.620649 0.76828 3.2025e-21)
(0.598479 0.999827 0)
(0.637207 0.961892 -1.46871e-20)
(0.44103 0.817943 0)
(0.472106 0.81802 0)
(0.764457 2.22339 -3.24036e-20)
(0.653965 2.57078 -1.7659e-19)
(0.455086 2.40288 3.03837e-19)
(0.512881 2.21591 -1.39381e-19)
(0.82463 1.98497 0)
(0.84026 1.90245 1.77469e-19)
(0.869055 1.77627 -6.21659e-20)
(0.908223 1.59418 -2.78795e-21)
(0.441292 1.84749 0)
(0.178753 1.773 -1.76564e-19)
(0.255788 1.71214 0)
(0.881481 0.202241 0)
(0.837178 0.165308 0)
(0.802906 0.173046 0)
(0.859218 0.218208 -2.95745e-19)
(0.811085 0.212798 1.86812e-19)
(0.900574 0.0712299 -1.78717e-19)
(0.920656 0.0853234 0)
(0.922139 0.0876092 7.86768e-20)
(0.87099 0.0738129 3.15069e-19)
(0.87411 0.071882 -1.95493e-19)
(0.925045 3.4686 -7.74161e-19)
(0.89179 3.42328 0)
(0.959771 3.45298 -1.81407e-18)
(0.555191 3.65395 1.78632e-18)
(0.694117 3.31448 7.23325e-19)
(0.473505 0.659994 -6.07766e-19)
(0.150973 1.13152 0)
(0.647861 0.458043 -4.91839e-20)
(0.616952 0.494306 -9.63824e-21)
(0.67578 0.567205 -1.0943e-19)
(0.603525 0.542169 9.28225e-20)
(0.625593 0.514362 2.16039e-19)
(0.664149 0.500313 0)
(0.67633 0.553287 0)
(0.62722 0.52256 0)
(0.979395 0.550496 -3.61025e-20)
(0.824712 0.464413 -1.74109e-19)
(0.819981 0.511227 9.73095e-20)
(0.855414 0.48824 -1.31774e-19)
(1.00083 0.448134 0)
(1.04181 0.513727 -1.03595e-20)
(0.769083 0.366786 -3.77271e-19)
(0.785068 0.359691 -4.31191e-19)
(0.750977 0.367245 2.93257e-19)
(0.754483 0.341425 -3.24635e-19)
(0.783959 0.310245 -2.50134e-19)
(0.757236 0.315776 3.08305e-19)
(1.01352 -0.00647609 -1.87252e-19)
(1.01973 -0.00227859 3.7405e-19)
(0.995118 0.0126766 2.3754e-19)
(1.00088 0.0284496 -2.79565e-19)
(0.988542 0.0237907 0)
(0.995079 0.00357968 -4.40698e-19)
(0.0485848 1.78401 2.706e-20)
(0.0467879 1.76943 0)
(0.0581253 1.77097 2.46974e-19)
(0.0663188 1.779 -2.23896e-19)
(0.0663217 1.78632 6.78219e-20)
(0.0529725 1.76736 0)
(0.0029359 1.74638 0)
(0.0025002 1.77226 -1.07767e-20)
(0.00281257 1.77884 9.81183e-21)
(0.00326259 1.76965 5.05976e-21)
(0.00728883 1.74085 -1.89166e-20)
(0.00550095 1.74428 1.19517e-20)
(0.448377 1.75624 -6.24401e-19)
(0.429944 1.70024 6.40506e-19)
(0.40749 1.72204 -1.58933e-19)
(0.428959 1.70673 2.5559e-20)
(0.471383 1.61947 0)
(0.477645 1.75992 1.1315e-19)
(0.478559 1.70496 -1.11239e-19)
(0.413677 1.73586 1.54072e-19)
(0.420784 1.72501 0)
(0.376994 1.72642 0)
(0.375994 1.58924 8.20758e-19)
(0.385399 1.56029 1.24736e-18)
(0.418216 1.58359 -8.47886e-19)
(0.358434 1.57094 -1.54007e-19)
(0.309075 1.58393 2.56404e-19)
(0.248551 1.56745 -6.28815e-19)
(0.8598 1.43916 -6.59332e-19)
(0.903334 1.52684 0)
(0.893437 1.44525 -5.14465e-19)
(0.80128 1.78205 0)
(0.810826 1.70213 0)
(0.582011 2.83926 8.24953e-19)
(0.742703 3.39219 9.20209e-19)
(0.65715 3.33358 -8.0328e-19)
(0.639083 1.07527 0)
(0.678844 0.926257 1.53218e-19)
(0.515151 0.927855 5.80136e-19)
(0.651269 2.57795 0)
(0.66157 3.02542 -5.70267e-19)
(0.598096 2.77758 0)
(0.604752 0.536292 -1.07042e-19)
(0.709882 0.641541 2.2106e-19)
(0.725063 0.620397 -2.34816e-19)
(0.667234 0.513162 -2.12281e-20)
(0.681636 0.556072 -1.06577e-19)
(0.611159 3.17513 -6.77402e-19)
(0.594398 3.10407 6.24368e-19)
(0.558859 2.81494 -1.22328e-18)
(0.378951 2.67053 7.8957e-19)
(0.1862 2.54934 2.45977e-19)
(0.461942 2.91555 -1.59437e-19)
(0.403056 2.77906 -2.7139e-19)
(0.317964 2.61205 -3.538e-20)
(0.175467 2.57449 -1.01709e-20)
)
;

boundaryField
{
    wall-4
    {
        type            noSlip;
    }
    velocity-inlet-5
    {
        type            fixedValue;
        value           uniform (1 0 0);
    }
    velocity-inlet-6
    {
        type            fixedValue;
        value           uniform (0 3 0);
    }
    pressure-outlet-7
    {
        type            zeroGradient;
    }
    wall-8
    {
        type            noSlip;
    }
    frontAndBackPlanes
    {
        type            empty;
    }
}


// ************************************************************************* //
