/*--------------------------------*- C++ -*----------------------------------*\
| =========                 |                                                 |
| \\      /  F ield         | OpenFOAM: The Open Source CFD Toolbox           |
|  \\    /   O peration     | Version:  4.0                                   |
|   \\  /    A nd           | Web:      www.OpenFOAM.org                      |
|    \\/     M anipulation  |                                                 |
\*---------------------------------------------------------------------------*/
FoamFile
{
    version     2.0;
    format      ascii;
    class       surfaceScalarField;
    location    "12";
    object      phi;
}
// * * * * * * * * * * * * * * * * * * * * * * * * * * * * * * * * * * * * * //

dimensions      [0 3 -1 0 0 0 0];

internalField   nonuniform List<scalar> 
17370
(
-0.0915962
0.0960486
0.284559
-0.0776571
0.0594893
0.364943
-0.0430786
0.031601
0.427646
-0.0222395
0.0161429
0.505348
-0.011527
0.0086528
0.602276
-0.0064584
0.00499967
0.720516
-0.00379437
0.00294038
0.86376
-0.0021946
0.00163991
1.036
-0.00113229
0.000732377
1.2429
-0.000338728
-5.28008e-05
1.49158
0.00043213
-0.000822885
1.49158
0.00121924
-0.00172109
1.24319
0.00227158
-0.00301418
1.03638
0.00386607
-0.00506829
0.864109
0.00652279
-0.0087088
0.721244
0.0115702
-0.0161733
0.603818
0.0222596
-0.0316111
0.508791
0.0430796
-0.0594847
0.432573
0.0776537
-0.0960459
0.365168
0.0916035
0.197407
-0.127171
0.0881336
0.0390371
-0.364455
0.354109
-0.0713929
0.0817392
-0.446639
0.454305
-0.0792416
0.0715755
-0.521078
0.529185
-0.0637146
0.0556068
-0.613012
0.620833
-0.048223
0.0404017
-0.727099
0.733738
-0.0336847
0.0270455
-0.867505
0.872368
-0.0217781
0.0169153
-1.03849
1.04178
-0.0132338
0.00994328
-1.24465
1.24697
-0.00744931
0.00513525
-1.49279
1.49466
-0.00327048
0.00139761
-1.49264
1.4943
0.000257481
-0.00191698
-1.24406
1.24589
0.00377291
-0.00560795
-1.03756
1.04002
0.0078875
-0.0103474
-0.866132
0.869783
0.0136011
-0.0172516
-0.724543
0.729792
0.022086
-0.027335
-0.609063
0.615753
0.0339587
-0.0406493
-0.515192
0.522545
0.0484358
-0.0557881
-0.439905
0.447726
0.0638544
-0.0716755
-0.374805
0.37731
0.0792888
-0.0817943
-0.257035
0.224653
0.0714349
-0.0390523
-0.069022
0.0595497
0.00947229
-0.0513652
0.0579431
-0.374925
0.368348
-0.0568819
0.0528836
-0.45387
0.457868
-0.0473449
0.0428047
-0.527587
0.532127
-0.0383223
0.034499
-0.620872
0.624695
-0.0304153
0.0265327
-0.734733
0.738616
-0.0222721
0.0184903
-0.87388
0.877662
-0.0146198
0.0113621
-1.04319
1.04645
-0.00809281
0.00529871
-1.24837
1.25116
-0.00233333
-0.000460446
-1.49654
1.49934
0.00323712
-0.00616714
-1.49704
1.49997
0.00893017
-0.0121553
-1.24985
1.25308
0.0153679
-0.0191834
-1.04557
1.04938
0.0229116
-0.0271099
-0.877211
0.881409
0.0309404
-0.0349736
-0.739176
0.743209
0.0387534
-0.0431849
-0.626092
0.630524
0.0476871
-0.0531907
-0.534988
0.540491
0.0571499
-0.0581647
-0.45819
0.459205
0.0515251
-0.0315483
-0.337173
0.317196
0.00950078
-0.0689512
0.0594504
-0.0538838
0.0499565
0.00392737
-0.0319029
0.0418917
-0.359192
0.349203
-0.045353
0.0446475
-0.45992
0.460626
-0.0415842
0.0382539
-0.536249
0.539579
-0.0345255
0.0312386
-0.628318
0.631604
-0.0277488
0.0247324
-0.741778
0.744794
-0.0215633
0.0186822
-0.880887
0.883768
-0.0154613
0.0124458
-1.04961
1.05262
-0.00909374
0.00600288
-1.25415
1.25725
-0.00256302
-0.000702756
-1.50249
1.50576
0.00395548
-0.00734777
-1.50323
1.50662
0.0103744
-0.0136447
-1.25637
1.25964
0.0165793
-0.0197059
-1.05282
1.05595
0.0225016
-0.0255877
-0.884765
0.887851
0.0285311
-0.0319306
-0.74678
0.75018
0.0351378
-0.0387926
-0.634754
0.638409
0.0420664
-0.0450679
-0.544968
0.54797
0.0457136
-0.0421756
-0.457652
0.454114
0.0320977
-0.015577
-0.298359
0.281838
0.00395639
-0.0537567
0.0498003
-0.0470646
0.0448276
0.00223709
-0.0206751
0.0300469
-0.339313
0.329942
-0.0352348
0.0361706
-0.460311
0.459375
-0.035206
0.0333279
-0.54202
0.543898
-0.0310895
0.0287937
-0.634417
0.636713
-0.0260285
0.0233716
-0.747654
0.750311
-0.0203682
0.0176138
-0.886616
0.88937
-0.0145654
0.0117588
-1.05554
1.05835
-0.00861236
0.00565158
-1.26032
1.26328
-0.00228787
-0.000928298
-1.50902
1.51223
0.00413294
-0.00744805
-1.51003
1.51334
0.0103285
-0.0133595
-1.26283
1.26586
0.0160466
-0.0189567
-1.05899
1.0619
0.0215934
-0.0244717
-0.890884
0.893762
0.0270197
-0.029704
-0.753235
0.75592
0.0319045
-0.034044
-0.641297
0.643436
0.0358481
-0.0367315
-0.549672
0.550556
0.0357139
-0.0304113
-0.449392
0.444089
0.0209161
-0.00907579
-0.267787
0.255947
0.00227418
-0.0468733
0.0445991
-0.0430606
0.0417455
0.00131507
-0.0125728
0.0199347
-0.321407
0.314045
-0.0252862
0.0270703
-0.458025
0.456241
-0.0268521
0.0256136
-0.54544
0.546679
-0.0239689
0.022389
-0.638508
0.640088
-0.0206673
0.0189746
-0.752544
0.754237
-0.0169425
0.0149126
-0.891903
0.893932
-0.0125292
0.0102002
-1.06098
1.06331
-0.00750805
0.00488898
-1.26609
1.26871
-0.00179989
-0.00128943
-1.5154
1.51849
0.00434125
-0.00733227
-1.51651
1.5195
0.00983228
-0.0123799
-1.26869
1.27123
0.0145684
-0.0167925
-1.0646
1.06682
0.0186663
-0.020509
-0.896259
0.898102
0.0220362
-0.0236316
-0.757989
0.759584
0.0250859
-0.0266221
-0.645105
0.646641
0.0277468
-0.0278271
-0.551021
0.551101
0.0259036
-0.0203814
-0.43855
0.433028
0.0128624
-0.00527604
-0.246213
0.238627
0.00136123
-0.0427931
0.0414319
-0.0408868
0.040401
0.000485827
-0.00588442
0.0105647
-0.308062
0.303381
-0.0150425
0.0172744
-0.454142
0.45191
-0.017841
0.0175256
-0.547483
0.547798
-0.0167873
0.0160312
-0.641396
0.642152
-0.0150527
0.0140577
-0.755549
0.756544
-0.0128009
0.0114905
-0.895453
0.896764
-0.0098351
0.00811508
-1.06526
1.06698
-0.00597642
0.00378892
-1.27109
1.27328
-0.0011039
-0.00160164
-1.5214
1.52411
0.00426393
-0.00683746
-1.52227
1.52484
0.00889239
-0.0108521
-1.27343
1.27539
0.0123842
-0.0138226
-1.0685
1.06993
0.0149336
-0.0159883
-0.899425
0.90048
0.01681
-0.0175657
-0.760852
0.761607
0.0181376
-0.0186957
-0.647841
0.648399
0.018869
-0.0181407
-0.550754
0.550026
0.0157429
-0.0110689
-0.42784
0.423166
0.0062141
-0.00228478
-0.233072
0.229142
0.000538659
-0.0405235
0.0399849
-0.040157
0.0400556
0.000101334
-0.00256308
0.00548799
-0.299726
0.296801
-0.00915238
0.0116988
-0.449569
0.447022
-0.0131734
0.0137621
-0.547689
0.5471
-0.0139179
0.0138802
-0.642417
0.642455
-0.0135184
0.0129135
-0.757282
0.757887
-0.0120021
0.0109213
-0.897961
0.899042
-0.0094188
0.00775431
-1.06863
1.0703
-0.00560905
0.00337569
-1.27542
1.27765
-0.000670265
-0.00200428
-1.52673
1.5294
0.00464028
-0.00721911
-1.52735
1.52993
0.00927656
-0.0111927
-1.27728
1.2792
0.012639
-0.0138949
-1.07128
1.07254
0.0147643
-0.015441
-0.90132
0.901996
0.0157959
-0.0158703
-0.761888
0.761962
0.0156826
-0.0153199
-0.648405
0.648042
0.0145124
-0.0128035
-0.548865
0.547156
0.0100346
-0.00612249
-0.418948
0.415035
0.0029809
-0.000924866
-0.226344
0.224288
0.000168538
-0.0396809
0.0395123
-0.040031
0.0400299
1.0304e-06
-0.00133183
0.00340169
-0.294377
0.292307
-0.00670387
0.00976434
-0.444213
0.441152
-0.0123662
0.0139642
-0.546012
0.544414
-0.0146997
0.0149614
-0.642396
0.642134
-0.0148885
0.0143766
-0.758399
0.758911
-0.0134159
0.0121695
-0.900124
0.901371
-0.0104212
0.00848739
-1.07204
1.07397
-0.00600918
0.00344969
-1.28003
1.28259
-0.000367504
-0.00265773
-1.53222
1.53525
0.00562866
-0.00852906
-1.53265
1.53555
0.0108317
-0.0129742
-1.28118
1.28332
0.014584
-0.0159728
-1.07376
1.07515
0.0168834
-0.0175007
-0.902542
0.903159
0.0176874
-0.0174135
-0.761909
0.761635
0.0169408
-0.0158935
-0.647421
0.646374
0.0140248
-0.0111332
-0.544884
0.541992
0.00779868
-0.00419143
-0.411307
0.4077
0.00185201
-0.0005316
-0.222695
0.221375
8.42564e-05
-0.0394131
0.0393288
-0.0400293
0.0400354
-6.09973e-06
-0.000758951
0.00221079
-0.290539
0.289087
-0.0049804
0.00813869
-0.437933
0.434775
-0.0115187
0.014002
-0.542293
0.53981
-0.0157407
0.0162885
-0.641711
0.641163
-0.0162643
0.0158521
-0.759456
0.759868
-0.0147761
0.0133113
-0.902774
0.904239
-0.0112551
0.00902484
-1.0761
1.07833
-0.00622919
0.00338465
-1.28533
1.28817
6.10114e-05
-0.00348103
-1.5385
1.54192
0.00681683
-0.0100337
-1.53864
1.54186
0.0125832
-0.014969
-1.28563
1.28801
0.0167671
-0.0183258
-1.07669
1.07825
0.0193168
-0.0198796
-0.903857
0.90442
0.0199278
-0.019626
-0.761301
0.760999
0.0186203
-0.0164611
-0.644737
0.642578
0.013615
-0.00984481
-0.538534
0.534763
0.00633381
-0.00318487
-0.404254
0.401105
0.00140247
-0.000448467
-0.220243
0.219289
9.70579e-05
-0.0392352
0.0391381
-0.0400566
0.0400974
-4.07208e-05
-0.000181953
0.000962122
-0.287975
0.287195
-0.00275666
0.00514319
-0.431913
0.429526
-0.00808757
0.0105117
-0.537204
0.53478
-0.0125538
0.0137399
-0.640223
0.639037
-0.0141228
0.0137554
-0.76028
0.760647
-0.012803
0.0115001
-0.905692
0.906995
-0.00962701
0.00755244
-1.08054
1.08262
-0.00491235
0.00218925
-1.29101
1.29374
0.00114316
-0.00445616
-1.54536
1.54867
0.00765627
-0.0106846
-1.54506
1.54809
0.0130456
-0.0152067
-1.29035
1.29251
0.016758
-0.0180185
-1.07971
1.08097
0.0187875
-0.0191536
-0.904845
0.905212
0.0189461
-0.0179423
-0.760504
0.7595
0.0162255
-0.0136108
-0.640059
0.637445
0.0107049
-0.00725936
-0.531009
0.527563
0.00443556
-0.00217469
-0.398373
0.396112
0.000982394
-0.000344711
-0.218505
0.217868
8.6775e-05
-0.0390458
0.038959
-0.0401597
0.0402412
-8.15689e-05
0.000251464
-1.35679e-05
-0.2867
0.286462
-0.000831252
0.00215461
-0.427686
0.426363
-0.00397678
0.0056166
-0.532716
0.531076
-0.00710773
0.00804422
-0.63796
0.637023
-0.00855703
0.00855633
-0.760784
0.760785
-0.00807528
0.00721998
-0.908064
0.908919
-0.00585117
0.00423902
-1.08447
1.08608
-0.00210319
-0.000147257
-1.29625
1.2985
0.00290863
-0.00562391
-1.55173
1.55444
0.00820682
-0.0105862
-1.55083
1.55321
0.0123486
-0.0138149
-1.29436
1.29583
0.0147395
-0.0153236
-1.08191
1.08249
0.0154493
-0.0151474
-0.905242
0.90494
0.0144346
-0.0131467
-0.75825
0.756962
0.0115644
-0.00940343
-0.635017
0.632856
0.00718808
-0.00476988
-0.524616
0.522198
0.00292075
-0.00150389
-0.394309
0.392893
0.000744008
-0.000294085
-0.217342
0.216893
8.17112e-05
-0.0388765
0.0387948
-0.0403407
0.0404535
-0.000112756
0.000575483
-0.000652104
-0.286418
0.286495
0.000461387
5.68225e-05
-0.425483
0.424964
-0.000895198
0.00171713
-0.529864
0.529042
-0.00251012
0.00303941
-0.636276
0.635747
-0.00334347
0.00334924
-0.760747
0.760741
-0.00303475
0.00245011
-0.909609
0.910194
-0.00147856
0.000296215
-1.08746
1.08865
0.00130886
-0.00300841
-1.30047
1.30217
0.00506104
-0.00703098
-1.55678
1.55875
0.00884158
-0.0103888
-1.55517
1.55672
0.0114054
-0.0121538
-1.29693
1.29768
0.0124956
-0.0124817
-1.08275
1.08273
0.0121456
-0.011466
-0.904407
0.903727
0.0105793
-0.00935223
-0.755687
0.75446
0.00803327
-0.00642821
-0.630981
0.629376
0.00491253
-0.00335363
-0.520254
0.518695
0.00218833
-0.00126655
-0.391768
0.390846
0.000710239
-0.000313885
-0.216483
0.216087
9.35805e-05
-0.0387093
0.0386157
-0.0405821
0.040724
-0.000141949
0.000811754
-0.00113117
-0.286695
0.287014
0.00130874
-0.00129995
-0.424735
0.424726
0.00112073
-0.000905937
-0.528549
0.528334
0.000702965
-0.000605907
-0.635439
0.635342
0.000637297
-0.000815734
-0.760814
0.760992
0.00119947
-0.00173683
-0.910732
0.911269
0.00254216
-0.00347505
-1.08968
1.09061
0.00470039
-0.00596546
-1.30363
1.3049
0.00743743
-0.00878228
-1.56039
1.56173
0.00992517
-0.0108066
-1.55791
1.5588
0.0112648
-0.0113585
-1.29806
1.29816
0.0111949
-0.0107642
-1.0825
1.08207
0.0101686
-0.00932316
-0.902954
0.902108
0.00841436
-0.00731009
-0.753297
0.752193
0.00623619
-0.00503159
-0.627999
0.626794
0.00395833
-0.00288073
-0.517422
0.516345
0.00205049
-0.00132625
-0.390052
0.389328
0.000812827
-0.000383329
-0.215682
0.215253
0.000118993
-0.0385108
0.0383918
-0.0408843
0.0410611
-0.000176803
0.00105686
-0.00154158
-0.287416
0.287901
0.0019993
-0.00231214
-0.424882
0.425195
0.00255652
-0.00275393
-0.528344
0.528541
0.00298918
-0.00325534
-0.635438
0.635704
0.00362443
-0.00404863
-0.761292
0.761717
0.00462399
-0.00526032
-0.911843
0.912479
0.00608467
-0.00694708
-1.09149
1.09235
0.00799358
-0.00900132
-1.30601
1.30702
0.0100877
-0.0109796
-1.56283
1.56372
0.0116151
-0.0119268
-1.55937
1.55969
0.0118963
-0.0116324
-1.29807
1.29781
0.0111493
-0.0104369
-1.08148
1.08076
0.00965316
-0.00869873
-0.901203
0.900248
0.0077728
-0.00673061
-0.751131
0.750088
0.00577865
-0.00476133
-0.625709
0.624692
0.00387934
-0.00298814
-0.515391
0.5145
0.00226061
-0.00155698
-0.388631
0.387927
0.00099583
-0.000483364
-0.214787
0.214274
0.000152895
-0.0382571
0.0381042
-0.0412637
0.0414872
-0.000223516
0.00135877
-0.00201791
-0.288469
0.289128
0.00270102
-0.00326168
-0.425624
0.426185
0.00381934
-0.00431986
-0.528896
0.529397
0.0048943
-0.00546337
-0.636134
0.636703
0.00614652
-0.00683431
-0.762278
0.762966
0.007662
-0.00848557
-0.9132
0.914024
0.00945366
-0.01038
-1.09323
1.09415
0.0114093
-0.0123137
-1.30796
1.30886
0.0131864
-0.0137813
-1.56445
1.56504
0.0140569
-0.0139724
-1.55979
1.5597
0.0136071
-0.012959
-1.29734
1.29669
0.0122048
-0.0112497
-1.07993
1.07897
0.0103021
-0.00922212
-0.899236
0.898156
0.00822579
-0.00714836
-0.749041
0.747964
0.00619431
-0.00519607
-0.623706
0.622708
0.00433583
-0.00345142
-0.513634
0.51275
0.00269332
-0.00190925
-0.387195
0.386411
0.00124384
-0.00061119
-0.213708
0.213075
0.000195011
-0.0379327
0.0377377
-0.0417435
0.0420295
-0.00028596
0.0017449
-0.00260927
-0.28988
0.290744
0.00353661
-0.00433529
-0.426844
0.427642
0.00516179
-0.00591991
-0.530039
0.530797
0.0067888
-0.00763586
-0.637438
0.638286
0.00862906
-0.00960043
-0.763808
0.764779
0.0107287
-0.0118059
-0.914957
0.916034
0.0130119
-0.0141034
-1.09513
1.09622
0.0152381
-0.0161566
-1.30975
1.31067
0.0169422
-0.0173509
-1.56553
1.56594
0.0173571
-0.0169434
-1.55944
1.55903
0.0162714
-0.0153037
-1.29588
1.29491
0.0142798
-0.0130633
-1.07788
1.07667
0.0119118
-0.0106426
-0.896981
0.895712
0.00950177
-0.00829105
-0.746829
0.745618
0.00723238
-0.0061315
-0.621681
0.620581
0.00518046
-0.00418847
-0.511837
0.510845
0.00331398
-0.00237865
-0.385564
0.384629
0.0015622
-0.000771981
-0.212371
0.211581
0.000247597
-0.0375217
0.0372741
-0.0423556
0.0427257
-0.00037006
0.00225032
-0.00336873
-0.291718
0.292837
0.00457815
-0.00562739
-0.428551
0.4296
0.00673092
-0.00774399
-0.531731
0.532744
0.00890554
-0.0100464
-0.639343
0.640484
0.011388
-0.0126948
-0.765926
0.767233
0.0141924
-0.0155896
-0.917228
0.918626
0.0171123
-0.0184513
-1.09738
1.09872
0.0197883
-0.0208084
-1.31159
1.31261
0.0215946
-0.0218848
-1.56626
1.56655
0.0216689
-0.0209486
-1.55845
1.55773
0.0199695
-0.0186584
-1.29377
1.29246
0.0173311
-0.0158024
-1.07529
1.07376
0.0143885
-0.0128573
-0.894297
0.892766
0.0114987
-0.0100684
-0.744297
0.742866
0.00882175
-0.00752361
-0.619412
0.618114
0.00639513
-0.00520495
-0.5098
0.50861
0.00414103
-0.00298683
-0.383607
0.382453
0.001969
-0.000976395
-0.210705
0.209713
0.00031488
-0.0370061
0.0366912
-0.0431456
0.0436268
-0.000481195
0.00290921
-0.00434739
-0.2941
0.295538
0.00589558
-0.00723233
-0.430816
0.432153
0.00862666
-0.00991467
-0.534032
0.53532
0.011415
-0.0129187
-0.641895
0.643398
0.0147122
-0.0164605
-0.768705
0.770453
0.018445
-0.0202586
-0.920129
0.921943
0.022175
-0.023812
-1.10013
1.10177
0.0254151
-0.0265966
-1.31364
1.31482
0.0274356
-0.0276361
-1.56676
1.56696
0.0272031
-0.0261548
-1.55683
1.55579
0.0248316
-0.0231217
-1.29094
1.28923
0.021428
-0.0195102
-1.07201
1.07009
0.01776
-0.0158855
-0.891021
0.889146
0.0142357
-0.0125069
-0.74126
0.739531
0.011
-0.00942323
-0.616715
0.615138
0.00803945
-0.00656212
-0.507365
0.505888
0.00522909
-0.00377466
-0.381203
0.379749
0.00249183
-0.00123867
-0.208624
0.207371
0.000402025
-0.0363636
0.0359615
-0.0441752
0.044803
-0.000627847
0.00377213
-0.00562457
-0.297183
0.299035
0.00760771
-0.00930475
-0.433773
0.43547
0.011062
-0.0126918
-0.537056
0.538686
0.0146077
-0.0165536
-0.645229
0.647175
0.0189065
-0.0211833
-0.772297
0.774574
0.0237378
-0.0260556
-0.923807
0.926125
0.0284997
-0.0305608
-1.10349
1.10555
0.0325223
-0.0339119
-1.31601
1.3174
0.0348228
-0.0349225
-1.56705
1.56715
0.0342346
-0.0327945
-1.55452
1.55308
0.0310548
-0.0288567
-1.28725
1.28506
0.0267086
-0.0243015
-1.06789
1.06548
0.022124
-0.0198111
-0.886963
0.88465
0.0177902
-0.0156838
-0.737529
0.735423
0.0138494
-0.0119215
-0.613414
0.611486
0.0102106
-0.00835574
-0.50438
0.502525
0.00666182
-0.004801
-0.378223
0.376363
0.00316155
-0.00157078
-0.206026
0.204435
0.00051166
-0.0355658
0.0350542
-0.0455308
0.0463654
-0.000834573
0.00495944
-0.00738031
-0.301182
0.303603
0.00995668
-0.0121402
-0.437592
0.439775
0.0143792
-0.0164683
-0.540973
0.543062
0.0189513
-0.0214806
-0.649532
0.652061
0.0245178
-0.0274442
-0.776897
0.779823
0.0307075
-0.0336416
-0.928447
0.931381
0.0366973
-0.0392317
-1.10763
1.11016
0.0415802
-0.0431837
-1.31876
1.32036
0.0441452
-0.0440922
-1.56711
1.56705
0.0430709
-0.0411362
-1.55136
1.54943
0.0388753
-0.0360671
-1.28253
1.27973
0.03335
-0.030326
-1.06271
1.05968
0.0276057
-0.0247336
-0.881913
0.879041
0.0222405
-0.0196606
-0.732902
0.730322
0.0174237
-0.0150733
-0.60932
0.60697
0.0129706
-0.0106573
-0.50067
0.498357
0.0085114
-0.00611438
-0.374511
0.372114
0.00400242
-0.00196794
-0.202788
0.200754
0.000636981
-0.0345746
0.0339376
-0.0473328
0.048485
-0.00115221
0.00671838
-0.00994822
-0.306395
0.309625
0.0133214
-0.0161264
-0.442552
0.445357
0.0189683
-0.021647
-0.546053
0.548732
0.0248739
-0.0281737
-0.655046
0.658345
0.0321006
-0.0358308
-0.78276
0.786491
0.0399305
-0.0435531
-0.934274
0.937897
0.0472714
-0.0503024
-1.11269
1.11572
0.0530531
-0.0548568
-1.32191
1.32371
0.0558143
-0.0555186
-1.5668
1.5665
0.0540475
-0.0514796
-1.54715
1.54458
0.0485654
-0.045
-1.27652
1.27296
0.0415779
-0.0377862
-1.05621
1.05242
0.0343842
-0.0308011
-0.875629
0.872046
0.0277018
-0.0245121
-0.727159
0.723969
0.0217617
-0.0188826
-0.604228
0.601349
0.0162959
-0.0134177
-0.496038
0.493159
0.0107057
-0.00768997
-0.369853
0.366837
0.00504761
-0.00248163
-0.198737
0.196171
0.000799818
-0.0333453
0.0325455
-0.049772
0.05143
-0.00165794
0.00944152
-0.0138347
-0.313265
0.317658
0.0182741
-0.0218907
-0.449042
0.452659
0.0255328
-0.0290126
-0.552667
0.556147
0.0332354
-0.0375144
-0.662152
0.666431
0.0425114
-0.0471611
-0.790216
0.794866
0.0521848
-0.0565679
-0.941503
0.945886
0.0610025
-0.0645416
-1.11872
1.12226
0.0676491
-0.0695626
-1.32538
1.32729
0.0703722
-0.0696736
-1.5659
1.5652
0.0675822
-0.0642037
-1.54157
1.53819
0.0604836
-0.0559998
-1.26892
1.26443
0.0517287
-0.0470126
-1.04811
1.04339
0.0427847
-0.0383294
-0.867829
0.863374
0.0344753
-0.0305174
-0.720039
0.716081
0.0271184
-0.0235807
-0.597898
0.594361
0.0204073
-0.016868
-0.490228
0.486689
0.0135001
-0.00968396
-0.364008
0.360192
0.00633551
-0.00311164
-0.193666
0.190442
0.000996946
-0.031823
0.0308261
-0.0531843
0.0556597
-0.00247543
0.0137073
-0.0197529
-0.322481
0.328527
0.0255989
-0.0302853
-0.457612
0.462298
0.0350339
-0.0396261
-0.561307
0.565899
0.0451937
-0.0507261
-0.671289
0.676822
0.057032
-0.0627612
-0.799592
0.805321
0.0688252
-0.0740003
-0.950286
0.955461
0.0790924
-0.083013
-1.12569
1.12961
0.0862719
-0.0880708
-1.32894
1.33073
0.0884593
-0.0870963
-1.56403
1.56267
0.0841395
-0.0797256
-1.53423
1.52981
0.0750247
-0.0694533
-1.25937
1.2538
0.0641936
-0.0584091
-1.03807
1.03229
0.0532271
-0.0477579
-0.858199
0.85273
0.0430175
-0.0381431
-0.711239
0.706365
0.033959
-0.0296157
-0.590044
0.5857
0.0257213
-0.0213618
-0.482956
0.478596
0.0171716
-0.0123715
-0.356623
0.351823
0.00807138
-0.0039191
-0.187348
0.183196
0.00123985
-0.0299385
0.0286987
-0.0581754
0.0621282
-0.00395276
0.0208253
-0.0292888
-0.335211
0.343674
0.0370443
-0.0431506
-0.469126
0.475232
0.0493872
-0.0554935
-0.572644
0.57875
0.0628019
-0.0698343
-0.682962
0.689995
0.0775804
-0.0844068
-0.811106
0.817933
0.0914201
-0.0972086
-0.96055
0.966339
0.102681
-0.106681
-1.13327
1.13727
0.109725
-0.111055
-1.33209
1.33342
0.110629
-0.108247
-1.56065
1.55827
0.104114
-0.0983966
-1.52466
1.51895
0.0925218
-0.0856929
-1.24755
1.24072
0.0793162
-0.0723404
-1.02581
1.01884
0.0661031
-0.059513
-0.846444
0.839853
0.0537868
-0.0478777
-0.700445
0.694536
0.0427959
-0.0375226
-0.58033
0.575056
0.0327798
-0.0273983
-0.47385
0.468469
0.0221348
-0.0159921
-0.347294
0.341151
0.0104276
-0.00503824
-0.179337
0.173948
0.00157429
-0.027602
0.0260277
-0.0658915
0.0731572
-0.00726575
0.0347295
-0.0470818
-0.353638
0.36599
0.0574962
-0.065193
-0.484755
0.492452
0.0731576
-0.0810319
-0.587404
0.595279
0.0901746
-0.0985338
-0.697473
0.705832
0.107336
-0.114782
-0.824618
0.832064
0.122132
-0.127927
-0.971777
0.977572
0.133108
-0.136569
-1.14071
1.14417
0.138766
-0.139069
-1.334
1.33431
0.137291
-0.133443
-1.55498
1.55113
0.12778
-0.120489
-1.51233
1.50504
0.113257
-0.105038
-1.23312
1.2249
0.0974544
-0.0892226
-1.01111
1.00288
0.0818858
-0.0741398
-0.832375
0.824629
0.0673934
-0.0604067
-0.687429
0.680443
0.0543806
-0.0481198
-0.56843
0.562169
0.0424727
-0.0359506
-0.462416
0.455894
0.0293009
-0.021302
-0.335264
0.327265
0.0138324
-0.00652443
-0.169034
0.161726
0.00193896
-0.024684
0.022745
-0.0801412
0.0834389
-0.00329775
0.0235814
-0.0340118
-0.381263
0.391694
0.0435148
-0.0513055
-0.505472
0.513263
0.060383
-0.0700388
-0.605342
0.614998
0.0807172
-0.0902789
-0.713943
0.723505
0.100938
-0.110372
-0.838835
0.848268
0.120166
-0.12856
-0.982517
0.990911
0.136889
-0.143544
-1.14661
1.15327
0.14945
-0.153292
-1.33346
1.3373
0.155296
-0.154589
-1.54607
1.54536
0.151033
-0.14502
-1.49669
1.49067
0.137957
-0.128986
-1.21584
1.20687
0.120198
-0.109646
-0.993901
0.983349
0.0999543
-0.0892924
-0.816004
0.805342
0.0797543
-0.0696308
-0.672225
0.662101
0.0604681
-0.0510361
-0.554279
0.544847
0.0427961
-0.0332339
-0.448133
0.438571
0.0241856
-0.0148831
-0.319338
0.310036
0.00788792
-0.00276794
-0.155125
0.150005
0.000418864
-0.0210445
0.0206256
-0.0906592
0.0872351
0.00342411
0.000238426
-0.00637278
-0.404979
0.411113
0.0141974
-0.0209253
-0.525586
0.532314
0.0295595
-0.0379547
-0.624998
0.633394
0.0475613
-0.0563545
-0.733061
0.741854
0.0657531
-0.0742879
-0.857252
0.865786
0.083172
-0.0905182
-0.999057
1.0064
0.0980337
-0.10373
-1.15986
1.16555
0.108759
-0.111771
-1.34099
1.344
0.112756
-0.11135
-1.54398
1.54257
0.10727
-0.100934
-1.484
1.47767
0.0935703
-0.0845051
-1.19754
1.18848
0.0757842
-0.0658121
-0.97264
0.962667
0.0564793
-0.0461288
-0.79395
0.783599
0.0368812
-0.0273978
-0.650098
0.640614
0.0192985
-0.0109647
-0.53279
0.524456
0.00387692
0.00278699
-0.426733
0.420069
-0.00715509
0.00901842
-0.29943
0.297567
-0.008139
0.00518582
-0.143417
0.14637
-0.00214381
-0.0192528
0.0213966
-0.0895887
0.085948
0.00364067
-0.00742382
0.00476213
-0.420427
0.423089
0.000130627
-0.00571107
-0.542353
0.547933
0.0128176
-0.0200001
-0.642206
0.649389
0.0281809
-0.0357095
-0.750189
0.757717
0.0439646
-0.0513172
-0.87367
0.881022
0.0587738
-0.0653214
-1.0136
1.02014
0.07188
-0.0770013
-1.17092
1.17605
0.081175
-0.0835332
-1.34655
1.34891
0.0843035
-0.0827492
-1.54076
1.5392
0.0787892
-0.0728881
-1.4711
1.4652
0.0662448
-0.0583855
-1.17973
1.17187
0.0506066
-0.0420848
-0.952865
0.944343
0.034242
-0.0257022
-0.773876
0.765337
0.0183937
-0.0109323
-0.630712
0.623251
0.00481149
0.00138058
-0.514458
0.508266
-0.00609202
0.0100958
-0.411394
0.40739
-0.012019
0.011302
-0.291648
0.292365
-0.00851012
0.0048239
-0.145576
0.149262
-0.00180568
-0.0217354
0.023541
-0.0868974
0.0834541
0.00344333
-0.00985019
0.00916378
-0.430008
0.430695
-0.00598497
0.0016509
-0.555662
0.559996
0.00442873
-0.0103958
-0.656437
0.662404
0.0173386
-0.023747
-0.765
0.771408
0.03075
-0.0370338
-0.887966
0.89425
0.0438078
-0.049405
-1.02634
1.03193
0.0552333
-0.0594081
-1.18087
1.18504
0.0631723
-0.0653432
-1.35125
1.35342
0.0659787
-0.0643912
-1.53754
1.53596
0.0610595
-0.0560964
-1.45924
1.45427
0.050486
-0.0436239
-1.16435
1.15749
0.037237
-0.0303599
-0.936196
0.929319
0.0239767
-0.0173996
-0.757463
0.750886
0.0114939
-0.0057377
-0.615507
0.609751
0.00109682
0.0031328
-0.500955
0.496726
-0.00607927
0.00833597
-0.401059
0.398802
-0.00918422
0.00782582
-0.288205
0.289563
-0.00567741
0.00311987
-0.148721
0.151278
-0.0011741
-0.0235343
0.0247084
-0.0843153
0.0814866
0.0028287
-0.00984847
0.0103942
-0.436099
0.435553
-0.00792076
0.00451148
-0.566534
0.569943
0.000400625
-0.00573836
-0.668416
0.673753
0.0115514
-0.0171668
-0.777455
0.78307
0.023207
-0.0286539
-0.900208
0.905655
0.0344825
-0.0395173
-1.03747
1.0425
0.0445566
-0.0485425
-1.18919
1.19317
0.0519744
-0.0540039
-1.3554
1.35743
0.0547093
-0.0534158
-1.53448
1.53319
0.0506157
-0.0462619
-1.44906
1.44471
0.0415312
-0.0359078
-1.15107
1.14545
0.030617
-0.0248353
-0.922678
0.916896
0.0197054
-0.0143562
-0.744558
0.739209
0.00977005
-0.00522833
-0.603954
0.599412
0.00168234
0.0014765
-0.491202
0.488043
-0.00375943
0.00530349
-0.39408
0.392536
-0.00571219
0.00500007
-0.286132
0.286844
-0.00368686
0.00196882
-0.149875
0.151593
-0.000824643
-0.0242797
0.0251043
-0.0822671
0.0799431
0.00232396
-0.00889945
0.00967274
-0.439964
0.439191
-0.00828544
0.00532299
-0.575008
0.577971
-0.000744788
-0.0037854
-0.678628
0.683158
0.00878353
-0.0136686
-0.788183
0.793068
0.0190502
-0.0239442
-0.910878
0.915772
0.0293229
-0.0337948
-1.04736
1.05183
0.0384253
-0.0421339
-1.19699
1.2007
0.0453269
-0.0472741
-1.35933
1.36128
0.0480573
-0.0474057
-1.53201
1.53136
0.0450457
-0.0414708
-1.44024
1.43666
0.0373834
-0.0325105
-1.13998
1.1351
0.0281484
-0.02306
-0.91133
0.906241
0.018619
-0.0141476
-0.734066
0.729595
0.0102603
-0.00640408
-0.594896
0.59104
0.00334884
-0.000470194
-0.483716
0.480838
-0.00130622
0.00262047
-0.388581
0.387267
-0.00339374
0.0031815
-0.283547
0.283759
-0.00238482
0.00135642
-0.149501
0.15053
-0.000599776
-0.0244129
0.0250127
-0.0808286
0.0790492
0.00177948
-0.00743119
0.00838486
-0.442729
0.441775
-0.00714386
0.00474279
-0.58245
0.584851
-0.000629682
-0.00343069
-0.687478
0.691539
0.00815964
-0.0123689
-0.797773
0.801982
0.0171044
-0.0214669
-0.920719
0.925082
0.0266116
-0.0307413
-1.05642
1.06055
0.0349561
-0.0385758
-1.20434
1.20796
0.0420562
-0.0440267
-1.36337
1.36534
0.045087
-0.0446464
-1.53046
1.53002
0.0429582
-0.0396166
-1.43303
1.42969
0.0361335
-0.0319056
-1.13023
1.126
0.0278678
-0.0234484
-0.901339
0.89692
0.0193941
-0.0151702
-0.724999
0.720775
0.0118519
-0.00824142
-0.587006
0.583396
0.00529553
-0.00272798
-0.477109
0.474541
0.000843344
0.000705127
-0.383796
0.382247
-0.0015643
0.00177177
-0.280639
0.280431
-0.00145935
0.000922992
-0.148179
0.148715
-0.000456699
-0.0241808
0.0246375
-0.0800301
0.0786277
0.00140248
-0.00601879
0.00703052
-0.444879
0.443867
-0.00580666
0.00342314
-0.588902
0.591286
0.000288519
-0.00391108
-0.695403
0.699025
0.00796983
-0.0120287
-0.806301
0.810359
0.0164149
-0.0209231
-0.929335
0.933843
0.0254041
-0.0293997
-1.06484
1.06883
0.0338019
-0.0372643
-1.21157
1.21503
0.040383
-0.0428546
-1.36734
1.36981
0.044221
-0.0441795
-1.52973
1.52969
0.0427667
-0.0400673
-1.42658
1.42388
0.036924
-0.0330011
-1.1215
1.11758
0.0292914
-0.0251067
-0.8924
0.888215
0.0212803
-0.0174027
-0.716598
0.71272
0.0139281
-0.0104908
-0.579571
0.576134
0.00769033
-0.00491262
-0.471118
0.46834
0.00282993
-0.00130935
-0.378866
0.377345
0.000183459
0.000483866
-0.277254
0.276587
-0.000663927
0.000541245
-0.146261
0.146384
-0.000341818
-0.0237478
0.0240896
-0.0798077
0.0786283
0.00117943
-0.00451504
0.00520682
-0.446826
0.446134
-0.00414823
0.00182833
-0.594804
0.597124
0.0015124
-0.00495344
-0.702736
0.706177
0.00882705
-0.0125019
-0.814348
0.818023
0.0170022
-0.0207663
-0.937861
0.941625
0.0252281
-0.0290704
-1.07303
1.07687
0.0334002
-0.0371077
-1.21855
1.22226
0.0405878
-0.0429393
-1.37218
1.37453
0.0447302
-0.0451416
-1.52969
1.5301
0.0443608
-0.0419233
-1.42106
1.41862
0.0391078
-0.0354099
-1.11369
1.10999
0.0318749
-0.027741
-0.883769
0.879635
0.0240731
-0.020112
-0.708554
0.704593
0.0166505
-0.0131129
-0.572406
0.568869
0.0101124
-0.00739791
-0.464926
0.462211
0.00508403
-0.0032678
-0.373802
0.371986
0.00183791
-0.000818676
-0.273374
0.272355
0.00020804
0.000214607
-0.143758
0.143335
-0.000234739
-0.0230966
0.0233313
-0.0798658
0.0790178
0.000848029
-0.00324656
0.00342317
-0.448995
0.448819
-0.00256465
0.000318615
-0.599939
0.602185
0.00268146
-0.00596971
-0.709509
0.712797
0.00966242
-0.0134488
-0.821668
0.825455
0.0173603
-0.0212719
-0.945626
0.949538
0.0257019
-0.0293593
-1.08117
1.08482
0.0338029
-0.0375067
-1.22583
1.22954
0.0411125
-0.0440562
-1.37738
1.38032
0.0464088
-0.0471546
-1.53067
1.53142
0.046622
-0.0447995
-1.41635
1.41453
0.0423819
-0.0388344
-1.1061
1.10255
0.0353042
-0.0313795
-0.87534
0.871415
0.0273539
-0.0234585
-0.700288
0.696393
0.0199062
-0.0161636
-0.565201
0.561458
0.0131492
-0.0101014
-0.458533
0.455485
0.00763863
-0.00532502
-0.368581
0.366267
0.0036801
-0.00224692
-0.269006
0.267573
0.00104932
-0.000155659
-0.140682
0.139788
-0.000143212
-0.0222237
0.022367
-0.0803199
0.0796188
0.000701095
-0.00225237
0.00240784
-0.451399
0.451243
-0.00105421
-0.000943224
-0.605018
0.607015
0.00400628
-0.00712413
-0.715757
0.718874
0.0106467
-0.0140426
-0.829006
0.832402
0.0180594
-0.0216592
-0.953488
0.957088
0.0260299
-0.0301024
-1.08894
1.09302
0.0342158
-0.0382624
-1.23333
1.23737
0.0423197
-0.0454189
-1.38324
1.38634
0.0482329
-0.0498196
-1.5325
1.53409
0.0497585
-0.0485143
-1.41265
1.41141
0.0462165
-0.0429461
-1.09897
1.0957
0.0395996
-0.0355553
-0.867012
0.862968
0.0316007
-0.0274796
-0.691908
0.687787
0.023755
-0.0197466
-0.557399
0.553391
0.0164082
-0.0131679
-0.451782
0.448542
0.010282
-0.00763496
-0.362718
0.360071
0.00554726
-0.00364505
-0.263927
0.262025
0.00203985
-0.000638671
-0.13699
0.135589
1.04222e-05
-0.0211794
0.0211689
-0.0810113
0.0804601
0.000551243
-0.00123104
0.00115531
-0.453948
0.454024
-4.80275e-05
-0.00220909
-0.609603
0.611861
0.00512621
-0.00805085
-0.721708
0.724633
0.0116207
-0.014851
-0.83583
0.83906
0.0186987
-0.0223946
-0.961171
0.964867
0.0266513
-0.0306788
-1.09697
1.101
0.0350055
-0.0390956
-1.24138
1.24547
0.0433709
-0.0472419
-1.38978
1.39365
0.0505635
-0.0525283
-1.53573
1.5377
0.0532261
-0.0523584
-1.41016
1.40929
0.0505826
-0.0477278
-1.09233
1.08948
0.0443162
-0.0402984