/*--------------------------------*- C++ -*----------------------------------*\
| =========                 |                                                 |
| \\      /  F ield         | OpenFOAM: The Open Source CFD Toolbox           |
|  \\    /   O peration     | Version:  4.0                                   |
|   \\  /    A nd           | Web:      www.OpenFOAM.org                      |
|    \\/     M anipulation  |                                                 |
\*---------------------------------------------------------------------------*/
FoamFile
{
    version     2.0;
    format      ascii;
    class       surfaceScalarField;
    location    "10";
    object      phi;
}
// * * * * * * * * * * * * * * * * * * * * * * * * * * * * * * * * * * * * * //

dimensions      [0 3 -1 0 0 0 0];

internalField   nonuniform List<scalar> 
4262
(
0.106676
0.471312
0.0945374
0.705725
0.0681615
0.858679
0.0466419
1.02028
0.0310541
1.2141
0.0200707
1.4492
0.0126304
1.7333
0.00740297
2.07626
0.00334592
2.4893
-9.5548e-05
2.98573
-0.00358752
2.98578
-0.00760886
2.48926
-0.0127832
2.07621
-0.0202094
1.73329
-0.0311679
1.44918
-0.0467403
1.21409
-0.0682428
1.02027
-0.0945861
0.858646
-0.106708
0.705708
0.47128
0.113188
0.358124
0.134569
0.684344
0.118161
0.875086
0.093661
1.04478
0.0696932
1.23807
0.0483113
1.47058
0.0307022
1.75091
0.0173856
2.08958
0.00757438
2.49911
-0.00053836
2.99385
-0.00863254
2.99388
-0.0184229
2.49906
-0.0317631
2.08955
-0.0492764
1.7508
-0.0705091
1.47041
-0.0942917
1.23787
-0.118618
1.04459
-0.134883
0.874912
-0.113352
0.684176
0.357929
0.0882254
0.269899
0.120642
0.651928
0.11599
0.879738
0.0991649
1.06161
0.0800257
1.25721
0.0613304
1.48928
0.0437348
1.76851
0.027651
2.10566
0.0135861
2.51318
-0.00112964
3.00856
-0.0157022
3.00845
-0.0294765
2.51283
-0.0451643
2.10524
-0.0623858
1.76802
-0.0808189
1.48884
-0.0998283
1.25688
-0.116586
1.06135
-0.121116
0.879442
-0.0884407
0.6515
0.269488
0.0543244
0.215574
0.0907892
0.615463
0.094316
0.876211
0.0851969
1.07073
0.0722986
1.27011
0.0598043
1.50177
0.0463034
1.78201
0.0315772
2.12039
0.0158198
2.52893
-0.00160892
3.02599
-0.0187059
3.02555
-0.0339133
2.52804
-0.0484055
2.11973
-0.0617383
1.78136
-0.0740174
1.50112
-0.0865869
1.26945
-0.0953233
1.07009
-0.0914291
0.875548
-0.0545684
0.61464
0.21492
0.0268891
0.188685
0.0565655
0.585787
0.0651299
0.867647
0.0624592
1.0734
0.055667
1.2769
0.0471147
1.51033
0.0372656
1.79186
0.026273
2.13138
0.0131238
2.54208
-0.00199302
3.04111
-0.0170682
3.04062
-0.0299519
2.54092
-0.0404538
2.13023
-0.049735
1.79064
-0.0576872
1.50908
-0.0640251
1.27579
-0.066256
1.07232
-0.0573049
0.866597
-0.0271892
0.584524
0.18773
0.00862795
0.180057
0.0270362
0.567378
0.0367564
0.857927
0.0402394
1.06992
0.0401512
1.27699
0.036792
1.51369
0.0310034
1.79765
0.0224159
2.13997
0.0108437
2.55366
-0.00258662
3.05454
-0.0158983
3.05393
-0.0270124
2.55203
-0.0346537
2.13787
-0.0395277
1.79551
-0.0422388
1.51179
-0.041849
1.2754
-0.0379618
1.06843
-0.0278312
0.856466
-0.00900597
0.565699
0.178724
-0.000218413
0.180275
0.00786988
0.55929
0.0163563
0.84944
0.0235294
1.06274
0.0282571
1.27226
0.0288861
1.51306
0.025522
1.80101
0.0185375
2.14695
0.00870556
2.56349
-0.00350024
3.06674
-0.0153028
3.06574
-0.0243057
2.56104
-0.0302588
2.14383
-0.0327993
1.79805
-0.0314029
1.51039
-0.0259432
1.26994
-0.0181299
1.06062
-0.00889507
0.847231
-0.000207572
0.557011
0.178517
-0.00197088
0.182246
0.000569921
0.556749
0.00666636
0.843344
0.0136537
1.05575
0.0190303
1.26689
0.0211095
1.51098
0.0196038
1.80252
0.0146581
2.1519
0.00644872
2.5717
-0.00450801
3.0777
-0.015119
3.07635
-0.0227967
2.56872
-0.0268574
2.14789
-0.0273041
1.7985
-0.0240044
1.50709
-0.0174025
1.26334
-0.00925397
1.05247
-0.00202584
0.840003
0.00148757
0.553498
0.180004
-0.00078799
0.183034
0.000189854
0.555771
0.00435148
0.839182
0.00959556
1.05051
0.0136104
1.26287
0.0150189
1.50957
0.0137535
1.80378
0.00978808
2.15587
0.00311727
2.57837
-0.00582419
3.08664
-0.0144548
3.08498
-0.0201657
2.57443
-0.0226389
2.15036
-0.0222216
1.79808
-0.0192452
1.50411
-0.0137947
1.25789
-0.00726639
1.04594
-0.00192778
0.834665
0.000185085
0.551385
0.180189
-0.000200181
0.183235
0.000150088
0.555421
0.00290042
0.836432
0.00650414
1.04691
0.00924247
1.26013
0.0101441
1.50867
0.00892181
1.805
0.00541343
2.15937
-0.000162869
2.58394
-0.00740819
3.09389
-0.0139075
3.09148
-0.017405
2.57792
-0.0189785
2.15193
-0.0182048
1.79731
-0.015496
1.50141
-0.0111694
1.25356
-0.0062019
1.04097
-0.00226385
0.830727
-0.000555054
0.549676
0.179634
-0.000600299
0.183835
-0.000897361
0.555718
0.000300369
0.835234
0.00240892
1.0448
0.00417709
1.25836
0.00485996
1.50799
0.00395193
1.80591
0.00116738
2.16216
-0.00341713
2.58853
-0.00927933
3.09975
-0.0141527
3.09635
-0.0163369
2.58011
-0.0167183
2.15232
-0.0152187
1.79581
-0.0123156
1.4985
-0.00854259
1.24979
-0.00462698
1.03706
-0.00166513
0.827765
-0.000408579
0.54842
0.179226
-0.000920187
0.184755
-0.00176734
0.556565
-0.00174223
0.835209
-0.00103239
1.04409
-0.000312329
1.25764
-0.000247039
1.50792
-0.00124763
1.80691
-0.00354977
2.16446
-0.00710632
2.59208
-0.011525
3.10417
-0.0148026
3.09963
-0.0158968
2.5812
-0.0150924
2.15151
-0.0130822
1.7938
-0.0101974
1.49562
-0.00694783
1.24654
-0.00385692
1.03397
-0.00152598
0.825434
-0.000380433
0.547274
0.178845
-0.000950911
0.185706
-0.00216669
0.557781
-0.00268029
0.835723
-0.00300133
1.04441
-0.00346611
1.25811
-0.00438275
1.50884
-0.0059323
1.80846
-0.00823991
2.16677
-0.0112305
2.59508
-0.0144147
3.10735
-0.0163273
3.10154
-0.0163866
2.58126
-0.0148129
2.14994
-0.012406
1.79139
-0.00960094
1.49281
-0.00674435
1.24368
-0.00414983
1.03137
-0.00206838
0.823352
-0.000688945
0.545895
0.178156
-0.00105478
0.186761
-0.00262074
0.559347
-0.00372593
0.836828
-0.0048078
1.04549
-0.00621511
1.25952
-0.00800489
1.51063
-0.0102337
1.81069
-0.0128768
2.16941
-0.0157234
2.59792
-0.018096
3.10972
-0.0187796
3.10223
-0.0178146
2.5803
-0.0156951
2.14782
-0.012964
1.78866
-0.01008
1.48993
-0.00730616
1.24091
-0.00482258
1.02889
-0.00268763
0.821217
-0.000979087
0.544186
0.177177
-0.00137137
0.188132
-0.0034331
0.561409
-0.00533538
0.83873
-0.00724341
1.0474
-0.00942594
1.2617
-0.0119724
1.51317
-0.0148605
1.81358
-0.0179567
2.17251
-0.0208912
2.60086
-0.0228068
3.11164
-0.0224944
3.10191
-0.0206342
2.57844
-0.0178137
2.145
-0.0145837
1.78543
-0.011364
1.48671
-0.00836373
1.23791
-0.00567779
1.0262
-0.00327399
0.818814
-0.00120656
0.542119
0.175971
-0.00179525
0.189927
-0.00450081
0.564114
-0.00706539
0.841295
-0.00972347
1.05006
-0.0127576
1.26473
-0.016209
1.51662
-0.0199885
1.81736
-0.0238147
2.17633
-0.0271329
2.60417
-0.0288932
3.1134
-0.027871
3.10089
-0.0249757
2.57554
-0.0211968
2.14122
-0.0171942
1.78143
-0.0133643
1.48288
-0.00989258
1.23443
-0.0068111
1.02312
-0.00399455
0.815997
-0.00147778
0.539602
0.174493
-0.0023541
0.192281
-0.00591158
0.567672
-0.00942692
0.84481
-0.0130791
1.05371
-0.0171126
1.26877
-0.0215664
1.52108
-0.0263035
1.8221
-0.0309657
2.181
-0.0347971
2.60801
-0.0364819
3.11509
-0.034738
3.09915
-0.030797
2.5716
-0.0259786
2.1364
-0.0210569
1.77651
-0.0164339
1.47826
-0.0122653
1.23027
-0.00852731
1.01938
-0.00504225
0.812512
-0.00187459
0.536434
0.172618
-0.00294117
0.195223
-0.00736255
0.572093
-0.0116706
0.849118
-0.0162735
1.05831
-0.0215916
1.27408
-0.0275165
1.527
-0.0337848
1.82836
-0.0397972
2.18701
-0.0445192
2.61273
-0.0462839
3.11685
-0.0437043
3.09657
-0.038472
2.56637
-0.0322478
2.13018
-0.0259803
1.77024
-0.0201521
1.47243
-0.0149679
1.22508
-0.0103944
1.01481
-0.00616766
0.808285
-0.00229967
0.532566
0.170319
-0.00402905
0.199252
-0.01008
0.578144
-0.0160088
0.855047
-0.0221226
1.06443
-0.0288009
1.28076
-0.0360822
1.53428
-0.0437028
1.83599
-0.0509635
2.19427
-0.0565156
2.61828
-0.0582546
3.11859
-0.0546596
3.09297
-0.0479602
2.55967
-0.0401967
2.12241
-0.0325108
1.76255
-0.0254349
1.46535
-0.0191231
1.21877
-0.0134351
1.00912
-0.00800029
0.80285
-0.00295978
0.527526
0.167359
-0.00494644
0.204198
-0.0121231
0.585321
-0.0193239
0.862248
-0.0271217
1.07222
-0.0361234
1.28976
-0.0459865
1.54415
-0.0561305
1.84613
-0.0654677
2.20361
-0.0722736
2.62509
-0.0739752
3.12029
-0.0689986
3.088
-0.0603168
2.55099
-0.0503564
2.11245
-0.040445
1.75264
-0.03126
1.45617
-0.0230997
1.21061
-0.0159286
1.00195
-0.00940246
0.796324
-0.00350688
0.52163
0.163852
-0.00718991
0.211388
-0.0176558
0.595787
-0.0273646
0.871957
-0.0373275
1.08219
-0.0482304
1.30067
-0.0601326
1.55605
-0.0723773
1.85837
-0.0835842
2.21481
-0.0914485
2.63295
-0.0928357
3.12168
-0.0861225
3.08128
-0.0751084
2.53997
-0.0627514
2.1001
-0.050683
1.74057
-0.039682
1.44517
-0.0299589
1.20089
-0.0212006
0.993191
-0.0126702
0.787794
-0.00463437
0.513594
0.159218
-0.00880158
0.22019
-0.0211492
0.608134
-0.033824
0.884632
-0.0473895
1.09575
-0.0625675
1.31585
-0.0785284
1.57201
-0.0942451
1.87409
-0.107812
2.22838
-0.116646
2.64178
-0.117181
3.12221
-0.108029
3.07213
-0.0940265
2.52597
-0.0784873
2.08456
-0.0631337
1.72522
-0.0488585
1.43089
-0.0360458
1.18807
-0.0246981
0.981844
-0.0144325
0.777528
-0.00533853
0.5045
0.153879
-0.0138645
0.234054
-0.0322684
0.626538
-0.0485541
0.900917
-0.0653659
1.11256
-0.0836609
1.33414
-0.103196
1.59155
-0.12211
1.893
-0.137965
2.24424
-0.147428
2.65125
-0.146542
3.12133
-0.134331
3.05992
-0.116744
2.50838
-0.0975953
2.06541
-0.0789531
1.70658
-0.0618546
1.41379
-0.0467387
1.17296
-0.0331235
0.968228
-0.0198405
0.764245
-0.00723284
0.491893
0.146646
-0.0175354
0.251589
-0.0407826
0.649785
-0.0639531
0.924088
-0.0879662
1.13658
-0.113225
1.3594
-0.137902
1.61622
-0.160226
1.91533
-0.177548
2.26156
-0.18641
2.66011
-0.182811
3.11773
-0.166437
3.04355
-0.144589
2.48653
-0.121322
2.04214
-0.0986277
1.68388
-0.0773866
1.39255
-0.0577654
1.15334
-0.0398605
0.950323
-0.0231356
0.747521
-0.0081357
0.476893
0.138511
-0.0331905
0.28478
-0.0677802
0.684375
-0.0969516
0.953259
-0.126579
1.1662
-0.156395
1.38922
-0.184994
1.64482
-0.209626
1.93996
-0.226884
2.27882
-0.233578
2.6668
-0.225799
3.10995
-0.2043
3.02205
-0.177526
2.45976
-0.149539
2.01415
-0.122361
1.65671
-0.097263
1.36745
-0.0747525
1.13083
-0.0537414
0.929312
-0.033026
0.726805
-0.0112749
0.455142
0.127236
-0.044288
0.329068
-0.100398
0.740485
-0.143625
0.996486
-0.183397
1.20598
-0.218915
1.42473
-0.249985
1.67589
-0.274219
1.96419
-0.288924
2.29352
-0.291207
2.66909
-0.277225
3.09597
-0.24933
2.99415
-0.217237
2.42767
-0.184771
1.98169
-0.153593
1.62553
-0.124162
1.33802
-0.0965824
1.10325
-0.070129
0.902859
-0.0410893
0.697765
-0.013191
0.427243
0.114045
-0.0270498
0.356118
-0.0724099
0.785845
-0.116885
1.04096
-0.160657
1.24975
-0.202809
1.46688
-0.242503
1.71559
-0.277604
1.99929
-0.306471
2.32239
-0.324709
2.68732
-0.325589
3.09685
-0.305594
2.97416
-0.272767
2.39484
-0.232979
1.9419
-0.190086
1.58264
-0.146672
1.29461
-0.104038
1.06061
-0.0637749
0.862596
-0.0293718
0.663362
-0.00656578
0.404437
0.107479
0.000406307
0.355711
-0.023725
0.809976
-0.0577504
1.07499
-0.0952962
1.2873
-0.132583
1.50417
-0.167969
1.75097
-0.200012
2.03134
-0.225781
2.34816
-0.240859
2.7024
-0.23935
3.09534
-0.218588
2.95339
-0.187022
2.36327
-0.150528
1.9054
-0.112821
1.54493
-0.0764287
1.25822
-0.0433528
1.02754
-0.0137367
0.83298
0.00501418
0.644612
0.00723175
0.40222
0.114711
0.00324084
0.352471
-0.00960405
0.822821
-0.0332655
1.09865
-0.0610151
1.31505
-0.0912119
1.53437
-0.1211
1.78086
-0.149022
2.05926
-0.171493
2.37063
-0.184579
2.71549
-0.182875
3.09363
-0.164505
2.93502
-0.137804
2.33657
-0.1084
1.876
-0.0794234
1.51595
-0.0523264
1.23112
-0.028074
1.00328
-0.00885843
0.813764
0.00401414
0.631739
0.00528614
0.400948
0.119997
0.00617394
0.346297
-0.00362803
0.832623
-0.0228566
1.11788
-0.0449758
1.33716
-0.0683365
1.55773
-0.0928997
1.80542
-0.116646
2.08301
-0.136126
2.39011
-0.147886
2.72725
-0.146829
3.09258
-0.131492
2.91969
-0.109523
2.3146
-0.0859319
1.85241
-0.0632661
1.49329
-0.0426186
1.21047
-0.0243844
0.98505
-0.00982785
0.799208
-0.000669206
0.62258
0.00159404
0.398685
0.121591
0.00774007
0.338557
0.000724321
0.839639
-0.0169359
1.13554
-0.0358859
1.35611
-0.055691
1.57753
-0.0765232
1.82626
-0.0967446
2.10323
-0.113742
2.40711
-0.124407
2.73791
-0.123994
3.09216
-0.111122
2.90682
-0.0925512
2.29603
-0.0727186
1.83258
-0.0538752
1.47444
-0.03711
1.19371
-0.0227873
0.970728
-0.0115622
0.787983
-0.00364599
0.614664
-0.000563015
0.395602
0.121028
0.00635093
0.332206
0.00197655
0.844013
-0.0131621
1.15068
-0.0304684
1.37342
-0.0484683
1.59553
-0.066949
1.84474
-0.0845726
2.12085
-0.0997751
2.42231
-0.109745
2.74788
-0.110142
3.09256
-0.0991863
2.89586
-0.0827931
2.27964
-0.0652837
1.81507
-0.0488495
1.45801
-0.0343794
1.17924
-0.0221625
0.958511
-0.0124457
0.778266
-0.00538173
0.6076
-0.00113585
0.391356
0.119892
0.00396527
0.32824
0.00112398
0.846855
-0.0116414
1.16344
-0.0270997
1.38888
-0.043718
1.61215
-0.0608418
1.86186
-0.0769993
2.13701
-0.091363
2.43667
-0.101253
2.75777
-0.10264
3.09395
-0.0933406
2.88656
-0.0787908
2.26509
-0.0629398
1.79922
-0.0477983
1.44287
-0.0344291
1.16587
-0.0230711
0.947153
-0.0136516
0.768846
-0.00642003
0.600369
-0.00174445
0.38668
0.118148
0.00130481
0.326936
-0.00155629
0.849716
-0.0123854
1.17427
-0.0255843
1.40208
-0.0407257
1.62729
-0.0567324
1.87787
-0.0722342
2.15251
-0.0864631
2.4509
-0.0967698
2.76808
-0.0994585
3.09664
-0.0915869
2.87869
-0.0778495
2.25135
-0.0627066
1.78407
-0.0483115
1.42847
-0.0353613
1.15292
-0.0241574
0.935949
-0.0148036
0.759493
-0.00737065
0.592936
-0.00217584
0.381485
0.115972
-0.000807557
0.327743
-0.00505592
0.853964
-0.0141715
1.18339
-0.0255813
1.41349
-0.0392782
1.64099
-0.0541359
1.89272
-0.0692475
2.16762
-0.0836592
2.46531
-0.0949106
2.77933
-0.0994981
3.10122
-0.0937334
2.87292
-0.0815807
2.2392
-0.0667839
1.76928
-0.0519492
1.41364
-0.0384841
1.13945
-0.0268522
0.924317
-0.0169253
0.749566
-0.00888171
0.584892
-0.00288171
0.375485
0.11309
-0.00233642
0.33008
-0.00708271
0.85871
-0.0155723
1.19187
-0.0260499
1.42397
-0.0387453
1.65369
-0.0526513
1.90663
-0.0674693
2.18244
-0.0821534
2.48
-0.0944979
2.79168
-0.100845
3.10757
-0.0962523
2.86833
-0.0841606
2.22711
-0.069762
1.75488
-0.0551007
1.39898
-0.0415604
1.12591
-0.0295598
0.912316
-0.0190265
0.739032
-0.0100704
0.575936
-0.00334385
0.368759
0.109746
-0.00348219
0.333562
-0.00838185
0.86361
-0.016341
1.19983
-0.0263059
1.43393
-0.0383841
1.66576
-0.0516781
1.91992
-0.0663162
2.19708
-0.0813713
2.49505
-0.0951028
2.80541
-0.104135
3.1166
-0.103213
2.86741
-0.0934209
2.21732
-0.0779752
1.73943
-0.0619899
1.38299
-0.046852
1.11077
-0.0333559
0.89882
-0.0221608
0.727837
-0.0124419
0.566217
-0.00427695
0.360594
0.105469
-0.00379139
0.337353
-0.00904822
0.868867
-0.0166691
1.20745
-0.0262729
1.44353
-0.0378755
1.67737
-0.0508117
1.93286
-0.0654268
2.21169
-0.0809793
2.5106
-0.0961028
2.82053
-0.107451
3.12795
-0.108097
2.86805
-0.0986926
2.20791
-0.0847717
1.72551
-0.0676097
1.36583
-0.0514767
1.09464
-0.0374053
0.884749
-0.0242445
0.714677
-0.0131678
0.55514
-0.00473605
0.352162
0.100733
-0.00375836
0.341111
-0.00932152
0.87443
-0.0166734
1.21481
-0.0259385
1.4528
-0.0371056
1.68853
-0.0497947
1.94555
-0.064401
2.2263
-0.080411
2.52661
-0.0968434
2.83696
-0.110791
3.1419
-0.114972
2.87224
-0.107829
2.20077
-0.0929738
1.71066
-0.0765291
1.34938
-0.05914
1.07725
-0.0424505
0.868059
-0.029
0.701226
-0.0167544
0.542895
-0.0058581
0.341266
0.0948751
-0.00368767
0.344799
-0.00935813
0.8801
-0.0164611
1.22191
-0.0254049
1.46174
-0.0361226
1.69925
-0.0485515
1.95798
-0.0631192
2.24087
-0.0796331
2.54313
-0.0975978
2.85493
-0.114412
3.15871
-0.122233
2.88006
-0.118016
2.19655
-0.104597
1.69724
-0.0848403
1.32963
-0.0641177
1.05653
-0.046926
0.850868
-0.031289
0.685589
-0.0173135
0.528919
-0.00630593
0.330258
0.0885692
-0.00360391
0.348403
-0.0092104
0.885707
-0.016028
1.22873
-0.024625
1.47034
-0.0349153
1.70954
-0.0470548
1.97012
-0.0615248
2.25534
-0.078457
2.56006
-0.0976185
2.87409
-0.117251
3.17835
-0.128431
2.89124
-0.126133
2.19425
-0.114124
1.68523
-0.0956914
1.3112
-0.0757981
1.03663
-0.0552684
0.830338
-0.0371169
0.667438
-0.0209647
0.512767
-0.00717887
0.316472
0.0813904
-0.00348461
0.351888
-0.00895073
0.891173
-0.0154838
1.23526
-0.0237077
1.47856
-0.0335398
1.71937
-0.0453232
1.9819
-0.0596054
2.26962
-0.0767776
2.57723
-0.0970963
2.89441
-0.119081
3.20033
-0.134081
2.90624
-0.136459
2.19663
-0.127374
1.67614
-0.109754
1.29357
-0.0843753
1.01126
-0.0562772
0.80224
-0.0350373
0.646198
-0.0189562
0.496686
-0.00584255
0.303359
0.0755478
-0.00329907
0.355187
-0.00854087
0.896415
-0.0147745
1.24149
-0.0226043
1.48639
-0.0319869
1.72876
-0.043365
1.99328
-0.0573859
2.28364
-0.074686
2.59453
-0.0959382
2.91566
-0.120359
3.22475
-0.139339
2.92522
-0.144411
2.2017
-0.136463
1.6682
-0.118396
1.27551
-0.0934805
0.986341
-0.0697355
0.778495
-0.0451831
0.621645
-0.0232471
0.47475
-0.00514783
0.285259
0.0704
-0.00310332
0.35829
-0.00810604
0.901417
-0.0140259
1.24741
-0.0214289
1.4938
-0.0303165
1.73764
-0.0412277
2.00419
-0.0548973
2.29731
-0.0721798
2.61182
-0.0940893
2.93757
-0.120825
3.25149
-0.143684
2.94808
-0.155082
2.2131
-0.15399
1.6671
-0.137811
1.25933
-0.114302
0.962832
-0.0779454
0.742138
-0.0359956
0.579695
-0.00538875
0.444143
0.00958207
0.270288
0.079982
-0.00289725
0.361187
-0.00759187
0.906112
-0.013176
1.253
-0.0201464
1.50077
-0.0285429
1.74604
-0.0389567
2.0146
-0.0522145
2.31057
-0.0693417
2.62894
-0.0917998
2.96003
-0.120662
3.28035
-0.147607
2.97502
-0.162685
2.22818
-0.161875
1.66629
-0.153608
1.25106
-0.130606
0.939831
-0.0952415
0.706774
-0.0478854
0.532339
0.000481632
0.395776
0.00880634
0.261964
0.0887884
-0.00273947
0.363927
-0.00710918
0.910482
-0.0123557
1.25824
-0.0188484
1.50726
-0.0267461
1.75394
-0.036625
2.02448
-0.0493866
2.32333
-0.0662192
2.64577
-0.0889914
2.9828
-0.119095
3.31045
-0.148517
3.00444
-0.167113
2.24678
-0.176993
1.67617
-0.172631
1.2467
-0.153616
0.920816
-0.111804
0.664961
-0.030051
0.450586
0.0822074
0.283518
0.137317
0.206855
0.226105
-0.00258945
0.366516
-0.00675034
0.914643
-0.0118203
1.26331
-0.0181119
1.51355
-0.0258928
1.76172
-0.035786
2.03438
-0.0488682
2.33641
-0.066675
2.66358
-0.0914866
3.00761
-0.126198
3.34516
-0.163638
3.04188
-0.192368
2.27551
-0.206994
1.6908
-0.204282
1.24399
-0.19029
0.906825
-0.17809
0.652762
-0.202453
0.474949
-0.380493
0.461558
-0.883985
0.710347
0.875747
-1.53363
-0.00242883
0.368945
-0.00636214
0.918576
-0.011154
1.26811
-0.0171158
1.51951
-0.0245585
1.76916
-0.034177
2.044
-0.0471531
2.34939
-0.065261
2.68169
-0.0915102
3.03386
-0.12976
3.38341
-0.172224
3.08435
-0.206156
2.30944
-0.236199
1.72084
-0.257819
1.26561
-0.277971
0.926977
-0.352614
0.727404
-0.665234
0.787569
-1.3393
1.13562
-1.95888
1.32993
1.22731
-2.31044
-0.0022436
0.371189
-0.00590752
0.92224
-0.0104053
1.2726
-0.0160425
1.52515
-0.0231358
1.77626
-0.0324369
2.0533
-0.0452073
2.36216
-0.0635096
2.69999
-0.0909099
3.06126
-0.132714
3.42522
-0.183313
3.13495
-0.229503
2.35563
-0.259322
1.75066
-0.285194
1.29148
-0.374707
1.01649
-0.708243
1.06094
-1.43781
1.51714
-2.04527
1.74308
-2.30058
1.58524
1.35165
-2.42492
-0.00205129
0.37324
-0.00546609
0.925655
-0.00963058
1.27677
-0.0149172
1.53044
-0.0215971
1.78294
-0.0305196
2.06222
-0.0430006
2.37464
-0.0613333
2.71832
-0.0896537
3.08958
-0.13427
3.46983
-0.191056
3.19173
-0.242255
2.40683
-0.292757
1.80117
-0.381045
1.37977
-0.669468
1.30491
-1.34926
1.74073
-1.97059
2.13847
-2.22766
2.00015
-2.35055
1.70813
1.42228
-2.42119
-0.00184393
0.375084
-0.00494248
0.928753
-0.00879252
1.28062
-0.0136998
1.53534
-0.0199904
1.78923
-0.0284985
2.07073
-0.0405706
2.38671
-0.058675
2.73643
-0.0877174
3.11862
-0.135417
3.51753
-0.199697
3.25601
-0.261182
2.46831
-0.325594
1.86558
-0.489026
1.5432
-1.005
1.82089
-1.70416
2.43989
-2.06318
2.49749
-2.22768
2.16464
-2.31962
1.80008
1.49388
-2.39122
-0.00174655
0.37683
-0.00469497
0.931702
-0.00841076
1.28433
-0.0130692
1.54
-0.0191542
1.79531
-0.0273982
2.07897
-0.0392424
2.39855
-0.0574381
2.75462
-0.0873913
3.14858
-0.138588
3.56873
-0.210109
3.32754
-0.276785
2.53499
-0.370809
1.9596
-0.702753
1.87514
-1.38689
2.50503
-1.90841
2.9614
-2.13045
2.71953
-2.24946
2.28365
-2.33262
1.88324
1.56244
-2.40118
-0.00173302
0.378563
-0.00471481
0.934683
-0.0084552
1.28807
-0.0131243
1.54467
-0.0191521
1.80134
-0.02732
2.08714
-0.0390785
2.41031
-0.0573354
2.77288
-0.0881099
3.17935
-0.142694
3.62331
-0.221217
3.40606
-0.308679
2.62245
-0.476978
2.1279
-0.94179
2.33995
-1.58003
3.14327
-1.90702
3.2884
-2.07219
2.8847
-2.19665
2.40811
-2.29631
1.9829
1.63374
-2.36761
-0.00170106
0.380265
-0.00476077
0.937743
-0.00849735
1.29181
-0.0131409
1.54932
-0.0190251
1.80722
-0.0269902
2.0951
-0.0385063
2.42183
-0.0566731
2.79105
-0.0880727
3.21075
-0.146713
3.68195
-0.232563
3.49191
-0.336637
2.72652
-0.572217
2.36348
-1.14067
2.90841
-1.67452
3.67712
-1.90287
3.51675
-2.06229
3.04412
-2.21509
2.56092
-2.34949
2.1173
1.70675
-2.4225
-0.00165569
0.38192
-0.00476844
0.940856
-0.00850472
1.29555
-0.0131161
1.55393
-0.0188257
1.81293
-0.0265188
2.1028
-0.0376373
2.43295
-0.0556631
2.80907
-0.0874091
3.2425
-0.149417
3.74396
-0.244533
3.58703
-0.378198
2.86019
-0.690654
2.67594
-1.27628
3.49403
-1.68424
4.08507
-1.88718
3.71969
-2.01939
3.17632
-2.14511
2.68664
-2.23623
2.20843
1.70724
-2.23672
-0.00160084
0.383521
-0.0047557
0.944011
-0.00843967
1.29923
-0.0129148
1.5584
-0.0183288
1.81835
-0.0255812
2.11005
-0.0360569
2.44342
-0.053241
2.82626
-0.0847756
3.27403
-0.149274
3.80846
-0.257172
3.69492
-0.423001
3.02602
-0.780442
3.03338
-1.32042
4.03401
-1.63385
4.39851
-1.83685
3.92269
-1.96572
3.30519
-1.98898
2.7099
-1.96622
2.18566
1.73733
-1.99631
-0.00156961
0.385091
-0.00478143
0.947223
-0.00834491
1.3028
-0.0126421
1.5627
-0.0176039
1.82331
-0.0241236
2.11657
-0.0334462
2.45275
-0.0489035
2.84172
-0.0788816
3.30401
-0.143478
3.87305
-0.263191
3.81464
-0.452581
3.21541
-0.826087
3.40688
-1.28491
4.49283
-1.50189
4.61548
-1.60166
4.02247
-1.64228
3.3458
-1.53398
2.60161
-1.06879
1.72048
0.668534
-0.00148995
0.386581
-0.00459834
0.950331
-0.00799938
1.3062
-0.0119897
1.56669
-0.0164806
1.8278
-0.0223566
2.12245
-0.0308003
2.46119
-0.0454925
2.85641
-0.0752624
3.33378
-0.145895
3.94369
-0.284033
3.95277
-0.508135
3.43951
-0.909602
3.80835
-1.31476
4.898
-1.45667
4.75739
-1.48468
4.05048
-1.42483
3.28595
-1.22801
2.40479
-0.719053
1.21152
-0.0505191
-0.00151285
0.388093
-0.00456503
0.953383
-0.00763953
1.30927
-0.0112391
1.57029
-0.0150036
1.83156
-0.0197751
2.12722
-0.0264728
2.46789
-0.0383324
2.86827
-0.0656152
3.36106
-0.143677
4.02175
-0.299703
4.1088
-0.55426
3.69407
-0.974122
4.22821
-1.31327
5.23715
-1.40337
4.84748
-1.4025
4.0496
-1.26613
3.14959
-0.869194
2.00785
-0.17196
0.514286
-0.222479
-0.00145932
0.389553
-0.00420156
0.956125
-0.00688626
1.31196
-0.00981012
1.57321
-0.0125373
1.83429
-0.0157236
2.1304
-0.019844
2.47201
-0.0275309
2.87595
-0.0490915
3.38262
-0.123486
4.09614
-0.300763
4.28608
-0.59147
3.98478
-1.00156
4.6383
-1.25244
5.48803
-1.31295
4.90799
-1.28569
4.02235
-1.03229
2.89619
-0.460745
1.43631
0.0234353
0.0301056
-0.199044
-0.00145763
0.39101
-0.00419351
0.958861
-0.00633651
1.3141
-0.00845408
1.57533
-0.00981217
1.83565
-0.0107495
2.13134
-0.0108601
2.47212
-0.0117678
2.87686
-0.021954
3.39281
-0.0706661
4.14486
-0.250432
4.46584
-0.581275
4.31562
-0.966747
5.02377
-1.15697
5.67825
-1.20788
4.9589
-1.11248
3.92694
-0.81367
2.59738
-0.169751
0.79239
0.0208378
-0.160483
-0.178206
-0.00131624
0.392327
-0.00352628
0.961071
-0.0052095
1.31578
-0.0062276
1.57635
-0.00587955
1.8353
-0.00395485
2.12942
0.00197479
2.46619
0.0129566
2.86588
0.0258272
3.37994
0.0309592
4.13972
-0.134439
4.63124
-0.514772
4.69595
-0.875308
5.38431
-1.02393
5.82687
-1.05439
4.98937
-0.942905
3.81545
-0.530881
2.18536
-0.00595937
0.267468
0.0201281
-0.186571
-0.158078
-0.00133577
0.393662
-0.00380633
0.963542
-0.00485424
1.31683
-0.00472066
1.57622
-0.00243989
1.83302
0.00323554
2.12374
0.0170371
2.45239
0.0440511
2.83887
0.10474
3.31925
0.178573
4.06589
0.00698615
4.80283
-0.431842
5.13478
-0.74364
5.69611
-0.881614
5.96484
-0.945862
5.05362
-0.863217
3.73281
-0.421876
1.74402
-0.137639
-0.0167693
-0.0670794
-0.25713
-0.225158
-0.00130076
0.394963
-0.00323859
0.96548
-0.00399842
1.31759
-0.00260525
1.57482
0.000967951
1.82945
0.0109597
2.11375
0.0326616
2.43069
0.0830465
2.78848
0.202263
3.20003
0.335264
3.93289
0.188167
4.94992
-0.272044
5.59499
-0.577752
6.00181
-0.706709
6.0938
-0.790375
5.13728
-0.734491
3.67692
-0.447164
1.45669
-0.309944
-0.15399
-0.143256
-0.423818
-0.368414
-0.00150535
0.396468
-0.00437399
0.968348
-0.00481351
1.31803
-0.00269705
1.57271
0.00273266
1.82402
0.0161363
2.10035
0.046397
2.40042
0.122827
2.71205
0.284639
3.03822
0.461164
3.75636
0.409544
5.00154
0.0088623
5.99567
-0.327706
6.33838
-0.49657
6.26266
-0.550148
5.19086
-0.464649
3.59142
-0.389818
1.38186
-0.359291
-0.184517
-0.16618
-0.616928
-0.534594
-0.00137342
0.397842
-0.00446761
0.971443
-0.00581297
1.31937
-0.00404477
1.57094
0.00141736
1.81856
0.0163126
2.08545
0.053033
2.3637
0.142735
2.62235
0.313073
2.86788
0.535175
3.53426
0.578622
4.9581
0.235193
6.3391
-0.0478802
6.62145
-0.129324
6.34411
-0.100103
5.16164
-0.0284082
3.51973
-0.047654
1.40111
-0.113853
-0.118318
-0.0791766
-0.651605
-0.61377
-0.000883716
0.398726
-0.00667864
0.977238
-0.00935992
1.32206
-0.00982883
1.57141
-0.00611452
1.81484
0.00573071
2.0736
0.0409022
2.32853
0.118904
2.54435
0.251981
2.73481
0.463214
3.32303
0.582568
4.83874
0.335868
6.5858
0.117768
6.83955
0.193033
6.26884
0.356721
4.99795
0.445212
3.43124
0.398903
1.44742
0.260532
0.0200535
0.0944718
-0.485545
-0.519299
-0.000465462
0.399191
-0.00884323
0.985615
-0.0150039
1.32822
-0.0196889
1.57609
-0.0223465
1.8175
-0.0203317
2.07159
-0.00483135
2.31303
0.0327357
2.50678
0.0846478
2.68289
0.161027
3.24665
0.321759
4.67801
0.26049
6.64707
0.194389
6.90566
0.365619
6.09761
0.538473
4.8251
0.653191
3.31652
0.673395
1.42721
0.480116
0.213333
0.201199
-0.206628
-0.318099
0.00022028
0.398971
-0.0111435
0.996979
-0.0221452
1.33922
-0.0348438
1.58879
-0.0494303
1.83208
-0.0657858
2.08795
-0.0859218
2.33317
-0.117668
2.53853
-0.175774
2.741
-0.240077
3.31095
-0.156783
4.59472
-0.105112
6.5954
0.0423577
6.75819
0.278902
5.86107
0.545801
4.5582
0.780902
3.08142
0.812151
1.39596
0.551749
0.473735
0.229522
0.115598
-0.0885772
0.00114951
0.397821
-0.0133139
1.01144
-0.0304461
1.35635
-0.0528205
1.61116
-0.082704
1.86197
-0.124575
2.12982
-0.189649
2.39824
-0.303757
2.65263
-0.490529
2.92777
-0.729317
3.54974
-0.842412
4.70781
-0.770126
6.52311
-0.467952
6.45601
-0.102332
5.49545
0.37843
4.07744
0.766269
2.69358
0.761114
1.40112
0.49387
0.740979
0.196758
0.41271
0.108181
0.00554895
0.392272
-0.0105956
1.02759
-0.0372911
1.38305
-0.0727703
1.64664
-0.118046
1.90724
-0.185259
2.19703
-0.292536
2.50552
-0.474066
2.83416
-0.767822
3.22153
-1.15174
3.93366
-1.39022
4.9463
-1.18967
6.32256
-0.762234
6.02857
-0.229359
4.96257
0.30558
3.5425
0.627879
2.37128
0.567007
1.46199
0.34254
0.965446
0.125376
0.629874
0.233558
0.0126427
0.37963
0.000298554
1.03993
-0.0333961
1.41674
-0.0765812
1.68983
-0.135449
1.96611
-0.223937
2.28552
-0.35994
2.64152
-0.577537
3.05176
-0.920103
3.56409
-1.36305
4.37661
-1.58518
5.16843
-1.21693
5.95431
-0.669369
5.48101
-0.0743411
4.36755
0.335635
3.13252
0.490059
2.21685
0.394638
1.55741
0.217576
1.14251
0.0687654
0.778684
0.302323
0.0238763
0.355753
0.0164225
1.04738
-0.0171655
1.45033
-0.0647765
1.73744
-0.132392
2.03373
-0.229742
2.38287
-0.372668
2.78445
-0.589272
3.26837
-0.914124
3.88895
-1.32808
4.79056
-1.49322
5.33357
-1.03559
5.49668
-0.449405
4.89483
0.0537747
3.86437
0.300775
2.88552
0.345463
2.17217
0.252983
1.64989
0.129121
1.26637
0.0359374
0.871867
0.33826
0.0454779
0.310276
0.0567872
1.03608
0.0292161
1.4779
-0.0200695
1.78673
-0.0895652
2.10322
-0.183769
2.47707
-0.31679
2.91747
-0.505823
3.4574
-0.76577
4.14889
-1.07462
5.09941
-1.18043
5.43938
-0.78126
5.09751
-0.292187
4.40575
0.0505736
3.52161
0.18838
2.74772
0.199625
2.16092
0.14007
1.70945
0.0690439
1.3374
0.0196596
0.921252
0.35792
0.0719801
0.238295
0.107908
1.00015
0.0915712
1.49424
0.0495042
1.82879
-0.0103277
2.16306
-0.0879186
2.55466
-0.195652
3.0252
-0.340673
3.60242
-0.52141
4.32963
-0.706327
5.28433
-0.74717
5.48022
-0.483369
4.83371
-0.163891
4.08627
0.0391587
3.31856
0.118936
2.66794
0.127601
2.15226
0.0972454
1.7398
0.0571381
1.3775
0.0223083
0.956081
0.380228
0.0885133
0.149782
0.173415
0.915246
0.191698
1.47595
0.170469
1.85002
0.127293
2.20623
0.069463
2.61249
-0.00835609
3.10302
-0.107226
3.70129
-0.219205
4.44161
-0.315871
5.381
-0.315926
5.48028
-0.158956
4.67674
0.0177713
3.90955
0.123082
3.21325
0.159687
2.63133
0.155071
2.15687
0.126411
1.76846
0.0865315
1.41738
0.0383094
1.0043
0.418538
0.0463624
0.10342
0.139462
0.822146
0.182319
1.4331
0.18293
1.84941
0.163396
2.22576
0.128671
2.64722
0.0824623
3.14923
0.0252925
3.75846
-0.0315686
4.49847
-0.0679166
5.41734
-0.057888
5.47025
0.00657352
4.61228
0.0695929
3.84653
0.102497
3.18034
0.108625
2.6252
0.0986111
2.16689
0.0787487
1.78832
0.0517008
1.44443
0.0194128
1.03659
0.437951
-0.0101204
0.11354
0.0246258
0.7874
0.0521582
1.40556
0.0668971
1.83467
0.0687345
2.22393
0.0571713
2.65878
0.0368493
3.16955
0.0103666
3.78494
-0.0195026
4.52834
-0.0399099
5.43775
-0.0357549
5.46609
-0.00414561
4.58067
0.0264917
3.81589
0.0417356
3.1651
0.0430534
2.62389
0.0351596
2.17478
0.0227994
1.80068
0.00809121
1.45914
-0.00377059
1.04845
0.43418
-0.0359676
0.149508
-0.0366056
0.788038
-0.0192408
1.3882
-0.00486566
1.8203
0.00216165
2.2169
0.00548199
2.65546
0.00256844
3.17247
-0.00717437
3.79468
-0.021246
4.54241
-0.0310205
5.44753
-0.0281217
5.4632
-0.0124077
4.56495
0.00228628
3.8012
0.00846905
3.15891
0.007769
2.62459
0.00262833
2.17992
-0.00506322
1.80838
-0.0112554
1.46533
-0.0115389
1.04874
0.422641
-0.0419208
0.191428
-0.0558414
0.801959
-0.0469448
1.3793
-0.0383089
1.81166
-0.0303452
2.20894
-0.0232303
2.64835
-0.0196759
3.16891
-0.0204385
3.79545
-0.0249063
4.54688
-0.0291284
5.45175
-0.0265428
5.46061
-0.018087
4.5565
-0.011086
3.7942
-0.00887198
3.1567