/*--------------------------------*- C++ -*----------------------------------*\
| =========                 |                                                 |
| \\      /  F ield         | OpenFOAM: The Open Source CFD Toolbox           |
|  \\    /   O peration     | Version:  4.0                                   |
|   \\  /    A nd           | Web:      www.OpenFOAM.org                      |
|    \\/     M anipulation  |                                                 |
\*---------------------------------------------------------------------------*/
FoamFile
{
    version     2.0;
    format      ascii;
    class       volVectorField;
    location    "10";
    object      U;
}
// * * * * * * * * * * * * * * * * * * * * * * * * * * * * * * * * * * * * * //

dimensions      [0 1 -1 0 0 0 0];

internalField   nonuniform List<vector> 
2200
(
(0.880784 -0.030012 0)
(1.00663 -0.0513344 0)
(1.00246 -0.0344319 0)
(0.999726 -0.023983 0)
(1.00053 -0.016711 0)
(1.00015 -0.0107839 0)
(0.999774 -0.00701177 0)
(1 -0.00426551 0)
(1.00019 -0.00231575 0)
(1.00017 -0.000660886 0)
(1.00011 0.000750411 0)
(1.00017 0.00242855 0)
(0.999952 0.00434086 0)
(0.999744 0.00707212 0)
(1.00017 0.0108441 0)
(1.00057 0.0167522 0)
(0.999756 0.0240228 0)
(1.00248 0.0344665 0)
(1.00664 0.0513442 0)
(0.880782 0.0300262 0)
(0.711767 -0.0335134 0)
(0.997441 -0.0623979 0)
(1.0345 -0.0563878 0)
(1.02484 -0.0453167 0)
(1.01475 -0.0336829 0)
(1.00978 -0.0243546 0)
(1.00658 -0.0162977 0)
(1.00398 -0.00997934 0)
(1.00246 -0.0050288 0)
(1.00192 -0.00145273 0)
(1.00191 0.00192008 0)
(1.00246 0.00547828 0)
(1.004 0.0104415 0)
(1.00662 0.0167451 0)
(1.00973 0.0247357 0)
(1.01466 0.0340123 0)
(1.02475 0.0455474 0)
(1.03439 0.0565374 0)
(0.997341 0.062518 0)
(0.711648 0.0335399 0)
(0.533728 -0.0222194 0)
(0.971643 -0.055574 0)
(1.05852 -0.0525499 0)
(1.0539 -0.0462912 0)
(1.03614 -0.037694 0)
(1.02299 -0.0297346 0)
(1.01419 -0.0216737 0)
(1.00912 -0.0146226 0)
(1.00608 -0.00832956 0)
(1.00512 -0.00260925 0)
(1.00496 0.00354402 0)
(1.00595 0.00922141 0)
(1.00894 0.0153282 0)
(1.0139 0.0222052 0)
(1.02272 0.0301249 0)
(1.03589 0.0379861 0)
(1.05366 0.0465637 0)
(1.05827 0.0528017 0)
(0.971272 0.0557366 0)
(0.533203 0.0222564 0)
(0.407695 -0.0105753 0)
(0.916253 -0.0401887 0)
(1.06136 -0.0415767 0)
(1.07277 -0.0389743 0)
(1.05783 -0.0341214 0)
(1.04075 -0.0281305 0)
(1.02746 -0.0223839 0)
(1.01814 -0.0163742 0)
(1.0122 -0.0097869 0)
(1.01001 -0.00291282 0)
(1.00992 0.00430697 0)
(1.012 0.010869 0)
(1.01786 0.0173155 0)
(1.02717 0.023244 0)
(1.04044 0.0289303 0)
(1.05748 0.0348211 0)
(1.07237 0.0395185 0)
(1.0608 0.0419284 0)
(0.915381 0.0403819 0)
(0.40677 0.010625 0)
(0.342077 -0.00270671 0)
(0.865559 -0.0236402 0)
(1.05252 -0.0276878 0)
(1.07958 -0.0282302 0)
(1.06892 -0.0257432 0)
(1.05264 -0.0217657 0)
(1.03981 -0.0180037 0)
(1.02989 -0.0135427 0)
(1.02282 -0.00833491 0)
(1.01917 -0.00227705 0)
(1.019 0.00399557 0)
(1.02237 0.00999476 0)
(1.02935 0.0150231 0)
(1.03915 0.0192835 0)
(1.05193 0.0227799 0)
(1.06816 0.0265123 0)
(1.0787 0.0288019 0)
(1.05145 0.028133 0)
(0.864066 0.0238487 0)
(0.340724 0.00277913 0)
(0.315428 0.00116655 0)
(0.830277 -0.0101984 0)
(1.03938 -0.0146916 0)
(1.07677 -0.0177389 0)
(1.06915 -0.0176458 0)
(1.0548 -0.0164463 0)
(1.0431 -0.014705 0)
(1.03406 -0.0115959 0)
(1.02765 -0.00716643 0)
(1.02405 -0.00159766 0)
(1.02385 0.00381182 0)
(1.02704 0.0093109 0)
(1.03308 0.0134015 0)
(1.04186 0.0160692 0)
(1.05349 0.017507 0)
(1.06782 0.018416 0)
(1.07532 0.0183239 0)
(1.03767 0.0151426 0)
(0.82809 0.0104713 0)
(0.313512 -0.00107851 0)
(0.310956 0.0017096 0)
(0.81001 -0.00192934 0)
(1.02508 -0.0054627 0)
(1.06735 -0.0095708 0)
(1.06271 -0.0114675 0)
(1.05113 -0.0127697 0)
(1.04156 -0.012113 0)
(1.03418 -0.00955128 0)
(1.02886 -0.00596816 0)
(1.02574 -0.00100151 0)
(1.02553 0.0040146 0)
(1.02823 0.00868093 0)
(1.03316 0.0118109 0)
(1.04018 0.0139716 0)
(1.04962 0.0142623 0)
(1.06113 0.0126725 0)
(1.06557 0.0105018 0)
(1.02285 0.00608376 0)
(0.807113 0.00223617 0)
(0.308201 -0.00165593 0)
(0.313015 0.00108663 0)
(0.802372 0.000575939 0)
(1.0149 -0.00124646 0)
(1.05891 -0.00503149 0)
(1.0577 -0.00732421 0)
(1.04963 -0.00922622 0)
(1.04218 -0.0092538 0)
(1.03595 -0.00768917 0)
(1.0312 -0.00471953 0)
(1.02829 -0.000420724 0)
(1.02793 0.00426307 0)
(1.03025 0.00835341 0)
(1.03456 0.011019 0)
(1.04037 0.0122071 0)
(1.04742 0.0116589 0)
(1.05527 0.00925033 0)
(1.05624 0.00643943 0)
(1.01166 0.00213895 0)
(0.798225 -0.000194984 0)
(0.309708 -0.00097683 0)
(0.316076 0.000267335 0)
(0.801244 0.000390657 0)
(1.01012 -0.000607634 0)
(1.05423 -0.00343855 0)
(1.0557 -0.00522066 0)
(1.05092 -0.00661184 0)
(1.04576 -0.00656417 0)
(1.04084 -0.00538816 0)
(1.03676 -0.00297061 0)
(1.03393 0.000556259 0)
(1.03323 0.00438304 0)
(1.03497 0.00773028 0)
(1.03816 0.00963833 0)
(1.04262 0.0100798 0)
(1.04745 0.0094086 0)
(1.05201 0.00738912 0)
(1.05021 0.00497351 0)
(1.00532 0.00164464 0)
(0.795779 4.1619e-05 0)
(0.311652 -0.000154991 0)
(0.316871 -9.32465e-06 0)
(0.800902 0.000239112 0)
(1.00668 -0.000438586 0)
(1.0503 -0.00228799 0)
(1.05322 -0.00356401 0)
(1.05038 -0.00448325 0)
(1.04691 -0.00437308 0)
(1.04342 -0.00330987 0)
(1.04026 -0.00125777 0)
(1.03777 0.00163279 0)
(1.03693 0.00470232 0)
(1.03768 0.00698508 0)
(1.03981 0.00812463 0)
(1.04275 0.00828728 0)
(1.04583 0.00758071 0)
(1.04833 0.00593115 0)
(1.04499 0.00401507 0)
(1.00053 0.00159974 0)
(0.793864 0.000431383 0)
(0.311431 7.39591e-05 0)
(0.317509 0.000163235 0)
(0.800984 0.000421096 0)
(1.00385 0.000324476 0)
(1.04684 -0.000698207 0)
(1.05049 -0.0014988 0)
(1.04866 -0.00216011 0)
(1.04614 -0.00209154 0)
(1.04347 -0.00126808 0)
(1.04088 0.000392521 0)
(1.03867 0.00269483 0)
(1.03776 0.00525885 0)
(1.03806 0.00676759 0)
(1.03931 0.00734531 0)
(1.04096 0.00709006 0)
(1.04276 0.00615371 0)
(1.04406 0.00462364 0)
(1.03994 0.00298746 0)
(0.996047 0.00121317 0)
(0.791527 0.000329275 0)
(0.310408 5.28587e-05 0)
(0.318806 0.000247177 0)
(0.801628 0.000605835 0)
(1.0033 0.000932223 0)
(1.04533 0.000561634 0)
(1.04923 0.000247851 0)
(1.0481 -7.16812e-06 0)
(1.0463 0.000202422 0)
(1.04418 0.000899353 0)
(1.0419 0.0022175 0)
(1.03977 0.00399403 0)
(1.03846 0.00584029 0)
(1.03828 0.00687643 0)
(1.0387 0.00679787 0)
(1.03946 0.00625797 0)
(1.04038 0.00517389 0)
(1.04087 0.0037756 0)
(1.03624 0.00239289 0)
(0.992714 0.00105615 0)
(0.78969 0.000308875 0)
(0.309725 6.52163e-05 0)
(0.320435 0.000210018 0)
(0.803192 0.000720887 0)
(1.00363 0.00111002 0)
(1.04539 0.00124145 0)
(1.04939 0.00136152 0)
(1.04872 0.00162567 0)
(1.04741 0.00215536 0)
(1.04569 0.00297518 0)
(1.04361 0.00414564 0)
(1.0414 0.00556721 0)
(1.03962 0.00672158 0)
(1.03857 0.007269 0)
(1.03832 0.00686825 0)
(1.03851 0.00598496 0)
(1.03873 0.00484149 0)
(1.03863 0.00356836 0)
(1.03368 0.00237388 0)
(0.990285 0.00128296 0)
(0.787991 0.000525072 0)
(0.308852 0.000147961 0)
(0.322173 0.00021852 0)
(0.805333 0.000829506 0)
(1.00467 0.00139835 0)
(1.04624 0.00182119 0)
(1.05042 0.00237348 0)
(1.04989 0.00303652 0)
(1.04873 0.00390507 0)
(1.04711 0.00495482 0)
(1.04502 0.00615486 0)
(1.04255 0.00737871 0)
(1.04027 0.00805671 0)
(1.03854 0.00803789 0)
(1.03766 0.00733957 0)
(1.03717 0.00627288 0)
(1.0369 0.00502883 0)
(1.03643 0.00377886 0)
(1.0313 0.00262906 0)
(0.987897 0.00159759 0)
(0.785844 0.000745668 0)
(0.307424 0.000207098 0)
(0.324264 0.00029877 0)
(0.807943 0.00104415 0)
(1.00661 0.00191279 0)
(1.0478 0.00271544 0)
(1.0519 0.00359494 0)
(1.05136 0.00460917 0)
(1.05014 0.00578187 0)
(1.04841 0.00708157 0)
(1.04607 0.00840481 0)
(1.04314 0.00953618 0)
(1.0402 0.00993082 0)
(1.03786 0.0093666 0)
(1.0363 0.00841605 0)
(1.03532 0.00705287 0)
(1.03469 0.00564018 0)
(1.03398 0.00428206 0)
(1.0287 0.0030415 0)
(0.98518 0.00192605 0)
(0.783117 0.000927162 0)
(0.305534 0.000249927 0)
(0.326975 0.000397646 0)
(0.811353 0.0013537 0)
(1.00938 0.00252371 0)
(1.05022 0.00362242 0)
(1.05421 0.00485646 0)
(1.05355 0.00625158 0)
(1.05214 0.0078218 0)
(1.0501 0.0094783 0)
(1.04732 0.0110539 0)
(1.04372 0.0122265 0)
(1.03991 0.0124301 0)
(1.03683 0.0114908 0)
(1.03467 0.010066 0)
(1.0332 0.00833179 0)
(1.03221 0.00662982 0)
(1.03125 0.00504058 0)
(1.02578 0.00361402 0)
(0.982026 0.00233434 0)
(0.779822 0.00114015 0)
(0.303226 0.00030632 0)
(0.33059 0.000516808 0)
(0.815921 0.00177223 0)
(1.01293 0.00332844 0)
(1.05326 0.00489463 0)
(1.05707 0.00651904 0)
(1.05624 0.00836992 0)
(1.05457 0.0103503 0)
(1.05212 0.0124017 0)
(1.0487 0.0142825 0)
(1.04423 0.0155541 0)
(1.03935 0.0155752 0)
(1.03535 0.0142603 0)
(1.0325 0.0123405 0)
(1.03053 0.0101958 0)
(1.02922 0.00812604 0)
(1.02804 0.00621908 0)
(1.02239 0.00450484 0)
(0.978263 0.00294047 0)
(0.77572 0.00144524 0)
(0.300327 0.000388179 0)
(0.335037 0.000666241 0)
(0.821583 0.00219704 0)
(1.01789 0.00414543 0)
(1.05772 0.00601107 0)
(1.06125 0.00818594 0)
(1.06007 0.0106215 0)
(1.05793 0.0132722 0)
(1.05482 0.0159535 0)
(1.05052 0.0183335 0)
(1.04487 0.0198279 0)
(1.03872 0.0196714 0)
(1.03362 0.0178883 0)
(1.02995 0.0153578 0)
(1.02739 0.0126223 0)
(1.02566 0.00999504 0)
(1.02417 0.00760324 0)
(1.01821 0.00548455 0)
(0.973615 0.00358126 0)
(0.770688 0.00177493 0)
(0.296764 0.000479185 0)
(0.341273 0.000873634 0)
(0.829329 0.00304133 0)
(1.02386 0.00566035 0)
(1.06291 0.00829671 0)
(1.0662 0.0109975 0)
(1.06466 0.01404 0)
(1.06195 0.0172542 0)
(1.05798 0.0205122 0)
(1.0525 0.0233669 0)
(1.04535 0.0250592 0)
(1.03753 0.0246707 0)
(1.03102 0.0223323 0)
(1.02635 0.0191256 0)
(1.02314 0.0157476 0)
(1.02099 0.0125443 0)
(1.01925 0.00964998 0)
(1.01305 0.00706007 0)
(0.96787 0.00466764 0)
(0.764312 0.00229461 0)
(0.292191 0.000602676 0)
(0.34856 0.00118483 0)
(0.83872 0.00360209 0)
(1.03211 0.00684075 0)
(1.07028 0.00995612 0)
(1.07299 0.0136972 0)
(1.07075 0.0177694 0)
(1.06715 0.0221177 0)
(1.06201 0.0263734 0)
(1.05499 0.0299709 0)
(1.04594 0.0319512 0)
(1.03619 0.031239 0)
(1.02811 0.0281435 0)
(1.02231 0.02402 0)
(1.01829 0.0196824 0)
(1.01559 0.0155356 0)
(1.01341 0.011771 0)
(1.00669 0.00843549 0)
(0.960571 0.00545756 0)
(0.756289 0.00270207 0)
(0.286684 0.000737364 0)
(0.35966 0.00154333 0)
(0.851514 0.0054475 0)
(1.04225 0.00978138 0)
(1.0792 0.0139983 0)
(1.08149 0.0184671 0)
(1.0785 0.0234106 0)
(1.07374 0.0286392 0)
(1.06698 0.0338105 0)
(1.0579 0.0380859 0)
(1.04639 0.0402645 0)
(1.03411 0.0391042 0)
(1.02397 0.035088 0)
(1.0167 0.0299013 0)
(1.01165 0.024554 0)
(1.00823 0.0195434 0)
(1.00562 0.0150617 0)
(0.99854 0.0110928 0)
(0.951831 0.00740062 0)
(0.746811 0.00363071 0)
(0.279657 0.000918267 0)
(0.372582 0.00220703 0)
(0.868495 0.00624033 0)
(1.05584 0.0119864 0)
(1.09117 0.0173999 0)
(1.09233 0.0238713 0)
(1.08805 0.0304914 0)
(1.08161 0.037416 0)
(1.0727 0.0438265 0)
(1.06101 0.0488646 0)
(1.04655 0.0511033 0)
(1.03143 0.0492088 0)
(1.01906 0.0439724 0)
(1.01021 0.0374367 0)
(1.00408 0.0306913 0)
(0.999934 0.0242488 0)
(0.996746 0.018393 0)
(0.988787 0.0131235 0)
(0.939986 0.00842059 0)
(0.733345 0.00410696 0)
(0.270982 0.00113065 0)
(0.39245 0.00315677 0)
(0.889383 0.0102609 0)
(1.07366 0.0174809 0)
(1.10656 0.0245241 0)
(1.10651 0.0320524 0)
(1.10033 0.0403645 0)
(1.09155 0.0487315 0)
(1.07973 0.0564518 0)
(1.0647 0.0621798 0)
(1.0466 0.0642685 0)
(1.02802 0.0613824 0)
(1.01289 0.0546632 0)
(1.00198 0.046518 0)
(0.994269 0.0382233 0)
(0.988918 0.0304418 0)
(0.984836 0.0234159 0)
(0.976242 0.0172812 0)
(0.927124 0.0115375 0)
(0.72003 0.00570558 0)
(0.260664 0.00142562 0)
(0.419704 0.00443566 0)
(0.922145 0.0121478 0)
(1.09701 0.0229691 0)
(1.12684 0.0324335 0)
(1.12412 0.0436524 0)
(1.11525 0.054271 0)
(1.10296 0.0645699 0)
(1.08722 0.0734037 0)
(1.06797 0.0793379 0)
(1.04554 0.0807482 0)
(1.02302 0.0763399 0)
(1.00486 0.0677208 0)
(0.991777 0.0577319 0)
(0.982487 0.0476654 0)
(0.975981 0.0380854 0)
(0.970979 0.0293115 0)
(0.960809 0.0210683 0)
(0.907688 0.0135645 0)
(0.69712 0.00643045 0)
(0.246377 0.00165629 0)
(0.454243 0.00881633 0)
(0.958191 0.022582 0)
(1.12799 0.0353137 0)
(1.1522 0.0477266 0)
(1.14594 0.0611795 0)
(1.13268 0.0738341 0)
(1.11581 0.0857333 0)
(1.0953 0.0949592 0)
(1.07116 0.10048 0)
(1.04394 0.100515 0)
(1.01719 0.0940564 0)
(0.995755 0.0832119 0)
(0.980179 0.0710798 0)
(0.968904 0.0589969 0)
(0.960741 0.0475328 0)
(0.954184 0.0370129 0)
(0.942633 0.0278272 0)
(0.888393 0.018871 0)
(0.678224 0.00935185 0)
(0.233279 0.00204213 0)
(0.540225 0.0126318 0)
(1.02489 0.0307393 0)
(1.16819 0.053177 0)
(1.18501 0.0695485 0)
(1.17187 0.0875757 1.12025e-34)
(1.1523 0.102004 -6.49473e-35)
(1.12951 0.11404 0)
(1.10294 0.122838 0)
(1.07309 0.126921 0)
(1.04045 0.124639 0)
(1.00906 0.115376 0)
(0.984036 0.101861 0)
(0.965669 0.0875016 0)
(0.952066 0.0735035 0)
(0.94195 0.0604171 0)
(0.933627 0.0480456 0)
(0.919035 0.035796 0)
(0.858147 0.0242986 0)
(0.633042 0.0114121 0)
(0.205416 0.00203422 0)
(0.596159 0.0283869 -4.48228e-21)
(1.09981 0.0569858 2.72347e-21)
(1.2146 0.0845798 0)
(1.22089 0.10747 2.71144e-21)
(1.19808 0.126401 -2.19143e-21)
(1.17186 0.139671 6.8521e-35)
(1.14215 0.150852 0)
(1.10902 0.158108 5.47406e-21)
(1.07301 0.159779 -1.9263e-20)
(1.03443 0.154703 4.20599e-21)
(0.997839 0.142422 0)
(0.968615 0.126173 -1.32791e-20)
(0.946768 0.109543 -1.65749e-20)
(0.93009 0.0934842 2.91498e-20)
(0.917049 0.0782512 -2.33985e-20)
(0.905554 0.0645961 0)
(0.88653 0.0517618 -8.98062e-21)
(0.815571 0.03549 0)
(0.593314 0.0236768 -4.88504e-20)
(0.188266 0.00518202 5.82023e-20)
(0.61303 0.0552711 -1.16112e-21)
(1.13924 0.105903 -3.80838e-20)
(1.25525 0.138807 1.16185e-20)
(1.25301 0.158469 1.19892e-20)
(1.22252 0.173437 -3.71168e-21)
(1.18923 0.185209 6.62515e-21)
(1.15243 0.195017 0)
(1.11295 0.200057 0)
(1.07059 0.199454 3.00018e-20)
(1.02567 0.191951 0)
(0.983073 0.177307 4.563e-20)
(0.948511 0.159369 1.42457e-20)
(0.921884 0.141816 4.54907e-22)
(0.900689 0.125505 -3.25219e-20)
(0.883239 0.110748 0)
(0.867579 0.0967847 0)
(0.845896 0.0852088 -1.52014e-19)
(0.783041 0.0720428 3.84622e-19)
(0.578594 0.0476028 -2.2782e-19)
(0.189734 0.0181584 -2.73963e-19)
(0.612385 0.0919844 7.47232e-20)
(1.16589 0.16969 -2.11055e-20)
(1.28566 0.207375 -4.97688e-21)
(1.27902 0.219705 -2.39873e-20)
(1.24252 0.229438 1.35149e-20)
(1.2024 0.237853 -1.19343e-20)
(1.15937 0.244224 7.80004e-21)
(1.11395 0.245869 0)
(1.06554 0.242409 -6.18247e-20)
(1.01462 0.232046 6.67616e-20)
(0.966368 0.215004 -1.24421e-19)
(0.926962 0.195713 6.04142e-20)
(0.896297 0.177829 -4.41008e-20)
(0.871644 0.161922 9.692e-20)
(0.851293 0.148258 0)
(0.833572 0.136635 -3.77826e-20)
(0.811608 0.123488 0)
(0.755168 0.113207 2.19145e-19)
(0.571399 0.0788515 -5.19836e-19)
(0.200631 0.031378 3.27372e-19)
(0.595839 0.122632 -3.51706e-19)
(1.17658 0.232631 1.3983e-19)
(1.30386 0.279298 2.15816e-20)
(1.29618 0.284988 0)
(1.25543 0.290523 1.20777e-20)
(1.21008 0.294938 -1.23385e-20)
(1.16233 0.296567 -7.88787e-21)
(1.11166 0.294285 0)
(1.05802 0.287378 4.35456e-20)
(1.00199 0.273747 -4.59027e-20)
(0.949123 0.254086 1.08063e-19)
(0.906185 0.233238 0)
(0.873052 0.214756 -9.24119e-20)
(0.846788 0.198865 5.12364e-20)
(0.825557 0.185351 1.37804e-19)
(0.807561 0.175163 -1.21049e-19)
(0.787402 0.161867 2.01142e-19)
(0.735306 0.150857 -4.48595e-19)
(0.564436 0.1103 2.85515e-19)
(0.204818 0.0428315 -3.60409e-19)
(0.574276 0.14902 2.17066e-19)
(1.17369 0.290191 -1.59877e-19)
(1.31204 0.348283 6.71773e-20)
(1.3046 0.350155 -9.06866e-20)
(1.26071 0.353361 5.94131e-20)
(1.21232 0.353398 -8.99205e-21)
(1.1613 0.350163 3.86497e-21)
(1.1065 0.343935 -3.05073e-20)
(1.04883 0.333162 -4.29167e-20)
(0.988697 0.315942 -9.71973e-20)
(0.932271 0.293331 -2.32317e-19)
(0.886924 0.270533 -7.74072e-20)
(0.852489 0.250961 2.85559e-21)
(0.825706 0.234549 -1.8126e-19)
(0.804433 0.220759 -6.16863e-21)
(0.786607 0.210617 1.76515e-19)
(0.768018 0.197969 -5.47576e-20)
(0.71866 0.185264 -3.23649e-20)
(0.555533 0.137575 0)
(0.203119 0.0535072 7.60766e-19)
(0.553675 0.174105 0)
(1.16502 0.344879 4.93042e-20)
(1.31218 0.413142 3.32715e-20)
(1.30537 0.412765 -1.18839e-20)
(1.25947 0.414764 -7.32561e-20)
(1.20981 0.410807 1.26321e-20)
(1.15662 0.403392 4.89455e-21)
(1.09888 0.393433 5.38403e-20)
(1.03822 0.378736 -2.5256e-20)
(0.974801 0.357933 4.36646e-20)
(0.915549 0.332206 1.24857e-19)
(0.868348 0.307043 1.71009e-19)
(0.832879 0.285805 -1.06183e-19)
(0.805587 0.268341 1.96088e-19)
(0.784266 0.253966 -1.57321e-19)
(0.766658 0.243036 0)
(0.748833 0.230808 -4.19034e-19)
(0.701628 0.215375 5.63481e-19)
(0.543607 0.162403 4.2927e-20)
(0.199289 0.0617406 -7.98328e-19)
(0.536026 0.197086 -6.80991e-21)
(1.15209 0.396923 -3.38505e-19)
(1.30697 0.47499 -2.50226e-19)
(1.3008 0.472323 2.06731e-19)
(1.25343 0.473053 -4.21354e-20)
(1.20341 0.46554 2.12362e-20)
(1.14857 0.454968 -2.67682e-21)
(1.08886 0.441734 -6.01819e-21)
(1.02583 0.423446 -8.94273e-20)
(0.959518 0.399138 1.25746e-21)
(0.897485 0.369993 -1.35077e-19)
(0.848369 0.342161 -1.81741e-19)
(0.812108 0.319122 1.19553e-19)
(0.78477 0.300319 -7.03097e-20)
(0.763545 0.284973 1.71102e-19)
(0.746351 0.272938 0)
(0.729197 0.26058 -2.59538e-19)
(0.68395 0.242456 3.84029e-19)
(0.529932 0.183919 7.41957e-19)
(0.194101 0.0692739 -8.65544e-19)
(0.522629 0.218527 -6.4786e-19)
(1.13851 0.446677 3.26029e-19)
(1.2984 0.534761 2.44551e-19)
(1.29295 0.529294 -2.24048e-19)
(1.24443 0.528373 1.07717e-20)
(1.19419 0.517296 6.01632e-20)
(1.13784 0.504308 -4.70269e-21)
(1.07678 0.488202 -1.93292e-20)
(1.01187 0.466762 -5.42716e-20)
(0.943333 0.439222 9.51977e-20)
(0.879356 0.406889 1.27943e-19)
(0.829092 0.376204 2.85071e-19)
(0.791903 0.350622 0)
(0.763736 0.329939 5.46194e-21)
(0.742526 0.313297 -4.75899e-19)
(0.725673 0.299999 1.09362e-19)
(0.708679 0.286854 5.57678e-19)
(0.664947 0.266528 -1.6253e-19)
(0.515242 0.202599 3.55491e-19)
(0.18803 0.0757478 -2.81119e-20)
(0.512998 0.239679 7.7945e-21)
(1.12506 0.493222 3.02299e-19)
(1.28752 0.591 1.86662e-19)
(1.28264 0.583961 -4.03492e-19)
(1.23365 0.581053 2.52248e-19)
(1.18308 0.566495 -7.63323e-20)
(1.1254 0.551324 1.50911e-21)
(1.06331 0.532521 4.32564e-20)
(0.996721 0.508352 9.73405e-20)
(0.925917 0.477875 -1.21197e-19)
(0.859071 0.442199 0)
(0.80633 0.408488 -1.12409e-19)
(0.768717 0.380811 1.29054e-19)
(0.741621 0.358195 1.73433e-19)
(0.720845 0.339977 -9.95821e-20)
(0.704629 0.325084 -2.51199e-19)
(0.68869 0.311167 -7.64441e-20)
(0.646475 0.288442 -1.41647e-21)
(0.499859 0.219206 0)
(0.18109 0.0810369 0)
(0.50591 0.260786 -3.2051e-19)
(1.11156 0.53669 0)
(1.27466 0.642791 2.14956e-19)
(1.27045 0.635514 -9.9767e-20)
(1.22165 0.630892 -2.63433e-19)
(1.17077 0.613377 7.27e-20)
(1.11213 0.596142 -4.88488e-21)
(1.04921 0.574802 -2.11616e-20)
(0.981189 0.548295 6.08631e-20)
(0.90877 0.515252 -4.92506e-20)
(0.840796 0.476752 7.16449e-20)
(0.788073 0.439949 3.51264e-19)
(0.74902 0.408917 1.34226e-20)
(0.719647 0.383915 -1.77395e-19)
(0.698764 0.363504 3.42716e-19)
(0.682814 0.347521 4.50591e-21)
(0.666642 0.331925 8.17865e-20)
(0.625742 0.307083 -4.00422e-19)
(0.483444 0.232878 4.0998e-19)
(0.17326 0.0851655 -4.84414e-19)
(0.500969 0.281529 9.32204e-23)
(1.09882 0.577544 0)
(1.26064 0.690649 0)
(1.25713 0.683595 9.23414e-20)
(1.20874 0.67754 1.04227e-19)
(1.15763 0.657771 -6.041e-20)
(1.09848 0.638669 3.38635e-20)
(1.03488 0.61508 0)
(0.965579 0.586588 -9.89718e-20)
(0.891153 0.551295 1.7669e-19)
(0.819585 0.50978 2.17735e-19)
(0.762245 0.46992 -1.32476e-19)
(0.722939 0.436531 -1.66352e-19)
(0.696083 0.408526 3.93662e-19)
(0.675685 0.386825 -1.21338e-19)
(0.660331 0.367952 -1.47353e-19)
(0.645449 0.351172 -9.0499e-20)
(0.605061 0.324139 -4.35456e-19)
(0.465787 0.244515 6.01948e-20)
(0.164413 0.0879794 5.2704e-19)
(0.497233 0.30046 -1.28574e-19)
(1.08646 0.615695 -1.99389e-19)
(1.24601 0.73495 2.37521e-20)
(1.24312 0.728323 3.31152e-22)
(1.19513 0.720985 3.37314e-20)
(1.14395 0.699509 -1.64865e-19)
(1.08458 0.678825 0)
(1.02044 0.653371 1.58083e-20)
(0.949925 0.623197 -1.24655e-20)
(0.873673 0.585938 2.77118e-19)
(0.800695 0.542382 -5.53504e-20)
(0.744481 0.49981 6.06299e-20)
(0.702509 0.462553 0)
(0.671956 0.432063 -2.15056e-19)
(0.651519 0.405504 2.68935e-19)
(0.63687 0.386199 0)
(0.622392 0.367614 -1.99035e-19)
(0.584028 0.337205 5.81682e-19)
(0.447333 0.253388 7.03099e-20)
(0.154915 0.0893724 -6.5535e-19)
(0.493969 0.317899 -2.86605e-19)
(1.07445 0.651535 3.63556e-19)
(1.23139 0.776114 0)
(1.22891 0.769982 2.31013e-19)
(1.18119 0.761372 0)
(1.12997 0.738541 1.53266e-19)
(1.07062 0.716492 0)
(1.0061 0.689533 0)
(0.934781 0.658021 -3.36845e-20)
(0.85727 0.619483 -2.70118e-19)
(0.78167 0.57376 -4.04693e-19)
(0.71935 0.527473 7.69476e-20)
(0.676269 0.487325 2.88417e-19)
(0.646837 0.452595 2.42988e-19)
(0.626459 0.426666 -8.64117e-19)
(0.611709 0.402627 -3.57832e-19)
(0.597175 0.380732 2.07868e-19)
(0.558829 0.349344 0)
(0.427507 0.260052 6.08959e-19)
(0.144053 0.0894979 -7.13023e-19)
(0.490776 0.334379 3.18965e-19)
(1.06276 0.685235 -3.99933e-19)
(1.2168 0.814333 0)
(1.21459 0.808809 -9.39822e-21)
(1.16713 0.798969 -9.50477e-20)
(1.11603 0.774985 0)
(1.05678 0.751742 -1.20192e-20)
(0.992031 0.723588 2.0509e-20)
(0.919892 0.691126 -4.25342e-20)
(0.840181 0.651456 2.65216e-20)
(0.760763 0.603687 0)
(0.697641 0.556758 3.07007e-19)
(0.651984 0.513676 4.21281e-21)
(0.620485 0.475539 1.3225e-19)
(0.598988 0.440919 1.59419e-19)
(0.586043 0.415616 0)
(0.574516 0.394334 -3.54077e-19)
(0.537774 0.358016 6.94447e-19)
(0.406747 0.263784 -7.45079e-19)
(0.132832 0.0880277 1.55521e-18)
(0.487533 0.350091 0)
(1.05151 0.716909 0)
(1.20255 0.84996 -2.1688e-19)
(1.20052 0.84498 0)
(1.15325 0.833955 0)
(1.10231 0.808968 2.25512e-19)
(1.04327 0.784667 -1.57774e-20)
(0.978395 0.755589 1.63811e-20)
(0.905639 0.722487 -3.03864e-21)
(0.824814 0.682347 0)
(0.744299 0.635292 -6.50341e-20)
(0.676767 0.584621 -2.54623e-19)
(0.627048 0.537386 -3.20312e-19)
(0.593557 0.495381 -1.33579e-19)
(0.573031 0.460617 1.76497e-19)
(0.558164 0.431463 -4.1982e-19)
(0.543736 0.402681 7.6956e-19)
(0.507742 0.36304 1.09799e-20)
(0.383801 0.265132 -7.21661e-19)
(0.1204 0.0848158 -1.0717e-19)
(0.484221 0.365008 0)
(1.04058 0.746553 -3.09696e-19)
(1.18845 0.883113 2.43755e-19)
(1.18663 0.878662 0)
(1.13962 0.866524 0)
(1.08899 0.84065 -4.99931e-19)
(1.03022 0.815407 0)
(0.965398 0.785613 0)
(0.892302 0.752174 -6.94202e-20)
(0.810209 0.712209 5.13058e-20)
(0.725589 0.662905 -5.17925e-19)
(0.653789 0.611775 0)
(0.600767 0.563349 -3.48121e-19)
(0.561381 0.516177 1.23458e-20)
(0.537325 0.474515 -5.63671e-19)
(0.526994 0.437608 2.27849e-19)
(0.52029 0.405857 5.45464e-21)
(0.485846 0.36518 -8.30444e-19)
(0.362328 0.26269 3.94922e-19)
(0.109894 0.0806355 1.14655e-19)
(0.480824 0.379057 0)
(1.02998 0.774171 -3.67488e-19)
(1.17479 0.913997 2.58055e-19)
(1.17315 0.909933 5.41474e-19)
(1.12637 0.896765 1.10009e-19)
(1.07611 0.870093 -7.75637e-20)
(1.01774 0.844061 4.72922e-20)
(0.953093 0.813741 -8.66521e-20)
(0.879698 0.780177 7.42588e-20)
(0.795971 0.740152 3.10783e-19)
(0.708827 0.691827 4.29568e-19)
(0.633503 0.640047 8.28503e-20)
(0.576982 0.587708 5.05846e-19)
(0.540376 0.539789 3.29539e-19)
(0.513612 0.491833 4.07346e-19)
(0.496006 0.446513 -2.56233e-19)
(0.481812 0.41482 -3.07656e-19)
(0.452052 0.365908 3.62986e-19)
(0.335837 0.258374 -2.18127e-19)
(0.100224 0.0740426 3.77208e-19)
(0.477318 0.392243 5.02088e-19)
(1.01957 0.79991 5.82752e-19)
(1.16133 0.942698 1.40948e-19)
(1.15995 0.938974 1.56216e-20)
(1.11349 0.924827 -3.81472e-19)
(1.06373 0.897442 1.44701e-19)
(1.00584 0.870704 -5.43994e-20)
(0.941483 0.839977 -2.22447e-20)
(0.867918 0.80649 -6.33179e-20)
(0.783407 0.76728 -3.47619e-19)
(0.693894 0.720433 2.55675e-20)
(0.613189 0.667768 0)
(0.548081 0.615901 0)
(0.495595 0.559722 -1.67115e-19)
(0.465752 0.502391 -6.67997e-19)
(0.452021 0.460929 5.55389e-19)
(0.45276 0.406093 3.43276e-19)
(0.427956 0.349852 0)
(0.321753 0.238955 7.04657e-19)
(0.0938991 0.0610005 -4.14009e-19)
(0.473736 0.404663 -2.6722e-19)
(1.00945 0.823832 2.24382e-19)
(1.14839 0.969379 -3.166e-19)
(1.14719 0.965839 -3.40682e-19)
(1.10104 0.950777 -1.50928e-19)
(1.05181 0.92273 3.3886e-20)
(0.994497 0.895414 0)
(0.930566 0.864469 1.29098e-19)
(0.857133 0.831302 1.25398e-20)
(0.77169 0.793396 0)
(0.678655 0.747512 0)
(0.594175 0.69714 5.79533e-20)
(0.52614 0.644012 8.87442e-20)
(0.478829 0.587033 -1.79784e-19)
(0.439779 0.538776 4.83276e-19)
(0.41521 0.46718 -6.092e-19)
(0.398672 0.406539 -7.42754e-19)
(0.38923 0.334698 6.65417e-19)
(0.31927 0.233033 -2.55207e-19)
(0.153873 0.115733 1.43755e-19)
(0.47 0.416373 3.07185e-19)
(0.999489 0.846087 0)
(1.13567 0.994129 0)
(1.13477 0.99075 -1.15124e-19)
(1.08904 0.974791 9.3032e-20)
(1.04041 0.946128 -2.05156e-20)
(0.983781 0.918295 -2.0992e-19)
(0.920438 0.887217 -2.08113e-19)
(0.847256 0.854446 6.10177e-20)
(0.760956 0.817893 -2.83096e-20)
(0.666316 0.773534 6.8449e-20)
(0.57667 0.72303 -4.78504e-19)
(0.501331 0.667488 -5.23875e-19)
(0.434049 0.614903 -9.56311e-20)
(0.382989 0.546941 0)
(0.355466 0.48093 -1.44968e-20)
(0.347857 0.386422 4.02072e-19)
(0.333444 0.251353 -7.0847e-19)
(0.317834 0.0871737 5.22821e-19)
(0.104108 -0.0494182 4.23188e-19)
(0.466346 0.427279 -6.62934e-19)
(0.98977 0.866795 -2.81471e-19)
(1.12342 1.0172 4.53473e-21)
(1.12268 1.01392 1.46327e-19)
(1.07732 0.997175 0)
(1.02931 0.968015 4.38797e-19)
(0.973419 0.939811 2.61299e-19)
(0.910729 0.908777 -4.52686e-20)
(0.837978 0.876819 -1.74783e-20)
(0.751547 0.841602 -2.66486e-20)
(0.654275 0.800296 2.47532e-20)
(0.55963 0.753914 4.23039e-19)
(0.477158 0.704729 5.12358e-19)
(0.414221 0.647607 9.18517e-20)
(0.361632 0.587969 5.03129e-19)
(0.305896 0.504987 0)
(0.216787 0.405325 0)
(0.0949685 0.378649 5.19723e-19)
(-0.031362 0.639538 -2.96858e-20)
(-0.00503421 1.42814 -6.71631e-19)
(0.462727 0.437454 3.57779e-19)
(0.980223 0.886219 8.40103e-19)
(1.11136 1.03878 -1.25612e-18)
(1.11084 1.03573 7.57031e-19)
(1.06592 1.01831 -8.89848e-20)
(1.01852 0.988771 5.74228e-19)
(0.963395 0.960347 0)
(0.901445 0.929618 2.18901e-19)
(0.829199 0.898511 0)
(0.742072 0.865935 2.48532e-19)
(0.643158 0.827827 -3.93399e-20)
(0.545439 0.782938 4.411e-20)
(0.458312 0.733952 5.66516e-19)
(0.367593 0.682474 -2.06499e-19)
(0.285006 0.620722 -2.67462e-19)
(0.208082 0.574872 0)
(0.119848 0.653089 0)
(0.0628465 1.1559 0)
(0.0964436 2.3732 -2.9392e-19)
(0.125432 2.86711 -1.81401e-19)
(0.459092 0.446933 0)
(0.970993 0.904316 0)
(1.0998 1.05891 4.48907e-19)
(1.09934 1.05607 -6.31156e-19)
(1.05479 1.03806 4.34519e-19)
(1.00803 1.0083 -5.26546e-19)
(0.95374 0.979791 -3.05792e-20)
(0.892675 0.949481 2.38108e-20)
(0.821246 0.919862 6.13409e-21)
(0.734378 0.889962 -2.82785e-19)
(0.632946 0.856436 6.00812e-20)
(0.529093 0.817363 4.0155e-19)
(0.431763 0.777812 -5.59276e-19)
(0.358007 0.717788 -6.47227e-19)
(0.285957 0.686118 2.27603e-19)
(0.223343 0.79222 0)
(0.173008 1.41423 3.19153e-19)
(0.17728 2.63267 3.70331e-19)
(0.176878 3.06771 -4.13905e-19)
(0.166909 3.21487 4.69095e-19)
(0.455471 0.455723 0)
(0.961979 0.921223 6.82229e-19)
(1.08845 1.07767 -1.1637e-19)
(1.0882 1.07517 7.93979e-19)
(1.04408 1.05665 -4.56079e-19)
(0.997941 1.02671 0)
(0.944512 0.998165 0)
(0.884387 0.968456 0)
(0.814048 0.940394 -7.83583e-20)
(0.727739 0.913592 2.4346e-21)
(0.625416 0.884621 0)
(0.518659 0.850095 -3.92474e-19)
(0.41611 0.807429 0)
(0.315308 0.773254 4.58704e-19)
(0.246268 0.849497 -2.93895e-19)
(0.192785 1.38779 -2.44644e-19)
(0.211895 2.62207 -6.00539e-19)
(0.230634 3.12018 -2.96927e-19)
(0.218727 3.27786 -3.32804e-19)
(0.201702 3.32135 2.92388e-19)
(0.451863 0.46382 -2.31725e-19)
(0.953337 0.93699 1.34228e-20)
(1.07763 1.0952 -1.25329e-19)
(1.07737 1.09298 -6.35775e-19)
(1.03358 1.07402 0)
(0.988109 1.04404 0)
(0.935605 1.01557 0)
(0.876667 0.986505 -1.54264e-20)
(0.807653 0.959922 8.88496e-20)
(0.721878 0.9368 0)
(0.618971 0.914124 0)
(0.508189 0.886263 0)
(0.401926 0.853417 0)
(0.320839 0.861598 3.0292e-19)
(0.308977 1.17559 7.6541e-19)
(0.309426 2.25865 2.37255e-19)
(0.328485 3.0714 4.20942e-19)
(0.318443 3.3008 -2.53858e-19)
(0.261126 3.37491 9.48189e-20)
(0.22515 3.38909 0)
(0.448254 0.471571 2.34526e-19)
(0.944626 0.952072 -1.46878e-18)
(1.06671 1.11198 -4.12805e-19)
(1.0667 1.11018 -1.01002e-19)
(1.02332 1.09081 1.16799e-19)
(0.978542 1.06074 -8.2857e-19)
(0.927029 1.03231 5.64622e-20)
(0.869211 1.00388 4.00329e-19)
(0.801568 0.979406 0)
(0.717105 0.960174 -1.71072e-20)
(0.613042 0.944044 1.55637e-20)
(0.494669 0.92 0)
(0.398142 0.893522 0)
(0.345507 1.01223 -3.71232e-19)
(0.337385 1.75991 -6.54084e-21)
(0.337542 2.88265 -1.14304e-19)
(0.353808 3.29589 1.66009e-19)
(0.320111 3.41516 2.56157e-20)
(0.250269 3.44801 1.88457e-19)
(0.221593 3.45659 -9.45978e-20)
(0.444214 0.4793 4.50947e-19)
(0.935464 0.967464 1.40325e-18)
(1.05536 1.12906 5.07879e-19)
(1.05536 1.12746 0)
(1.01242 1.1076 0)
(0.968462 1.07743 6.34974e-19)
(0.918087 1.049 -3.98478e-19)
(0.861908 1.02124 -3.67998e-19)
(0.796449 0.998432 -1.47245e-20)
(0.714065 0.983701 5.00996e-20)
(0.610926 0.974469 -3.16288e-19)
(0.490988 0.960261 0)
(0.391252 0.975796 0)
(0.373081 1.30981 -2.0648e-19)
(0.403102 2.329 -2.56149e-19)
(0.447351 3.18627 0)
(0.478917 3.40865 1.69433e-19)
(0.409839 3.48558 2.5572e-19)
(0.325167 3.52759 -5.97408e-19)
(0.294655 3.55476 3.39195e-19)
(0.439678 0.487368 -8.54674e-19)
(0.925187 0.983401 -6.67209e-19)
(1.04274 1.14675 0)
(1.04315 1.14539 0)
(1.00086 1.12492 0)
(0.957864 1.09438 0)
(0.908921 1.06573 4.25945e-19)
(0.854526 1.03835 -4.76756e-19)
(0.791659 1.01718 0)
(0.711665 1.00713 -3.86107e-20)
(0.608847 1.00668 5.40853e-19)
(0.490788 1.00285 2.76021e-20)
(0.403293 1.07181 4.13658e-20)
(0.433173 1.63413 3.02605e-19)
(0.490001 2.80194 -5.84821e-20)
(0.5315 3.33869 0)
(0.514173 3.48798 -1.11705e-19)
(0.414306 3.57736 1.19293e-19)
(0.304148 3.66709 4.16054e-19)
(0.221455 3.65624 -3.64994e-19)
(0.434543 0.495731 4.04757e-19)
(0.91399 1.00027 -6.53543e-19)
(1.0291 1.16521 0)
(1.0296 1.16369 -1.6227e-19)
(0.988022 1.14239 6.16144e-19)
(0.946206 1.11141 0)
(0.898872 1.08236 0)
(0.846777 1.05528 8.93699e-19)
(0.786535 1.03606 1.43511e-20)
(0.710799 1.03097 -6.5712e-20)
(0.608995 1.03946 -2.38363e-19)
(0.493207 1.05294 1.9908e-19)
(0.427853 1.22322 0)
(0.495705 2.01794 -1.4295e-19)
(0.566933 3.07972 1.1771e-19)
(0.626254 3.44282 -6.95515e-20)