/*--------------------------------*- C++ -*----------------------------------*\
| =========                 |                                                 |
| \\      /  F ield         | OpenFOAM: The Open Source CFD Toolbox           |
|  \\    /   O peration     | Version:  4.0                                   |
|   \\  /    A nd           | Web:      www.OpenFOAM.org                      |
|    \\/     M anipulation  |                                                 |
\*---------------------------------------------------------------------------*/
FoamFile
{
    version     2.0;
    format      ascii;
    class       surfaceScalarField;
    location    "30";
    object      phi;
}
// * * * * * * * * * * * * * * * * * * * * * * * * * * * * * * * * * * * * * //

dimensions      [0 3 -1 0 0 0 0];

internalField   nonuniform List<scalar> 
1300
(
3.75095
5.62643
-4.67794
3.75095
-5.01547
5.62643
-4.45644
4.45644
-1.06897
1.06897
1.87646
1.8745
-2.98601
2.98601
-2.41385
2.41385
-2.56339
2.56339
-5.2465
5.2465
-5.06893
5.06893
4.66916
-4.66916
-4.60028
4.60028
-1.4492
1.4492
-3.87702
3.87702
3.16977
-3.16977
-2.47489
2.47489
-0.285074
0.285074
-0.553552
4.30451
3.1974
3.1974
-2.10497
2.10497
-4.86269
4.86269
6.21823
-6.21823
6.56574
-6.56574
-1.8878
-3.33436
1.53921
-10.0497
-3.47626
-3.47626
-8.44039
8.44039
-2.81396
2.81247
2.94285
-2.94285
-1.78603
1.78603
-4.39808
-0.0583614
-4.39808
4.44953
0.00691245
4.44953
-1.1853
0.116334
-1.1853
3.95909
-3.95909
0.907467
0.1615
0.907467
3.06459
-3.06459
-1.87709
3.75355
1.87386
-1.87185
6.17635
-1.87911
3.7536
-5.91205
5.91205
-3.20974
0.223731
-3.20974
2.77812
0.207885
2.77812
-6.69962
6.69962
-2.46688
0.0530314
-2.46688
2.31402
0.0998313
2.31402
2.86332
-2.86332
-2.66119
0.0978013
-2.66119
2.45407
0.109323
2.45407
0.353534
5.2729
-5.97996
8.79244
-5.2729
0.026399
5.20844
0.0380516
5.20844
-5.1061
0.037171
-5.1061
5.01089
0.0580433
5.01089
4.76053
-0.0913704
4.76053
-4.78407
0.114909
-4.78407
-2.87506
-5.08861
-5.3749
0.774614
-5.3749
-1.45144
0.00223133
-1.45144
1.40623
0.0429743
1.40623
-3.55966
3.55966
-4.24368
0.366662
-4.24368
3.12429
0.0454815
3.12429
1.86854
1.88242
5.61949
-5.61949
2.44972
-2.28596
-0.18893
-2.28596
-2.72907
-3.83667
2.72907
-0.254178
-0.555026
0.269951
-0.555026
3.15919
0.0382123
3.15919
2.31296
0.141106
-2.31296
0.207991
3.20659
-3.20659
1.48681
0.618158
1.48681
-5.56629
5.56629
4.95346
0.0574297
-4.95346
0.0907695
6.15713
0.0611003
6.15713
-6.19959
-0.0186365
-6.19959
1.8227
-5.15705
-4.03556
3.87745
0.722836
-3.87745
0.401187
2.91277
0.030086
2.91277
-2.92158
2.92158
-2.98283
0.0399776
-2.98283
-2.18767
0.401643
-2.18767
1.48407
0.301955
1.48407
-4.27257
-0.125505
-4.27257
-4.37627
0.132595
4.37627
0.0732506
1.06092
-1.06092
-1.29033
0.105028
-1.29033
-4.10888
-0.163695
4.10888
-0.149789
-3.83518
-0.123905
-3.83518
-3.02333
0.0404963
3.02333
0.0412633
3.11242
0.0467712
-3.11242
0.0478268
-1.87084
3.75326
-1.88011
3.75398
-5.53234
-0.379705
-5.53234
6.22334
-0.311294
6.22334
3.54512
0.331901
-3.54512
0.335375
2.59581
0.182319
2.59581
-6.68593
-0.0136887
-6.68593
6.65147
0.0481507
6.65147
2.50037
0.0954395
-2.50037
0.033488
2.25109
0.0629239
2.25109
2.87348
-0.0101586
2.87348
-2.86276
-0.00055569
-2.86276
2.80345
-2.80345
2.73645
0.0669948
-2.73645
0.0752599
-11.1329
11.1143
-0.0352343
-11.0977
5.17321
5.17321
4.19114
0.569388
4.19114
-4.99851
0.214439
-4.99851
2.09799
-6.13355
4.81656
-7.69162
4.88228
-14.9319
3.46859
-8.5572
6.35486
-6.35486
5.98228
0.372579
-5.98228
0.60738
-1.47523
0.0237912
-1.47523
-2.95046
-0.609192
-2.95046
4.21631
-0.656655
4.21631
-3.02935
3.02935
-3.07823
0.0488779
3.07823
0.0460631
2.21401
0.0370767
-2.21401
-0.0719471
0.734488
0.172979
-0.734488
0.179462
3.42309
-0.216493
3.42309
-3.01547
-0.191121
-3.01547
-1.48474
0.00950928
1.48474
0.00207844
-5.81569
0.249401
-5.81569
-11.1907
0.0929776
-11.1526
-6.10662
-6.10662
2.33377
11.1262
-2.88546
0.0226996
2.88546
0.0273055
2.97642
0.0529363
-2.97642
0.054833
-2.86434
0.0608947
2.86434
0.0572393
-2.56492
0.377252
-2.56492
-1.07124
1.07124
-1.24872
0.17748
1.24872
0.235357
1.30067
-0.239752
1.30067
1.35406
0.0521684
-1.35406
0.0637321
-3.72523
-0.10995
-3.72523
6.46102
-0.237672
6.46102
-2.91703
-0.09844
2.91703
-0.0435553
-0.0332904
11.1476
-5.13992
0.0338153
5.13992
-11.2087
11.2425
-3.23843
0.673502
3.23843
0.952718
5.2887
0.277591
-5.2887
0.290188
6.54918
0.102285
-6.54918
0.194327
-2.45864
-0.491825
-2.45864
-4.9474
-0.584942
4.9474
-0.731091
-11.4754
-0.203738
11.6791
-11.4174
6.01943
0.137703
-6.01943
11.3802
-0.992427
-0.0684961
0.992427
0.0788091
1.61179
-0.311113
1.61179
3.61813
-0.195044
-3.61813
-0.107102
-6.60791
-0.0780145
6.60791
-0.1469
-2.01988
-0.438764
2.01988
-0.408088
-4.26696
4.30517
1.9094
-1.27147
-3.88559
-5.10814
1.852
1.90126
4.30171
-9.68631
-5.24562
-9.28512
7.26677
-6.97659
-9.2729
9.18153
7.59955
-7.72345
-5.78537
5.83144
6.48163
-6.44037
1.87885
1.8747
7.90276
-7.67903
-15.6713
15.2916
7.323
-7.26997
15.7824
-15.796
-17.8227
17.925
-5.72887
5.82667
-6.72083
6.72027
-6.91022
6.86666
-1.74287
-5.94875
13.3223
-12.5476
6.73698
-6.92591
-8.49621
8.86287
3.38237
0.9228
3.42914
-1.88233
3.76117
-1.87128
3.78067
4.43255
-6.17541
1.701
-5.58659
3.45283
3.28416
-3.19865
-1.90949
-5.91817
5.94826
-5.82239
5.87963
8.92824
-8.9866
-1.88504
3.75974
-1.86893
3.7702
-3.42525
-2.36013
3.37976
0.921947
7.5221
5.80015
-8.24494
-1.04019
-7.83107
7.63603
-8.10221
7.91109
-0.442933
5.82068
-5.37775
4.41976
-1.55779
7.37847
5.70898
5.92342
5.86645
-5.58886
1.11013
-6.48788
-6.39711
-2.54837
2.6534
2.50195
-2.34045
5.97112
1.62842
5.82134
-5.55943
-2.16402
-5.66938
3.82124
2.01019
3.87012
4.07635
2.40528
4.11685
3.0308
-3.03554
0.00474019
-3.05622
6.08702
0.724201
-5.41634
-4.4944
4.91974
2.98302
5.12762
-5.48503
-2.19401
-5.14965
-9.5495
-6.12182
-10.1344
10.1136
5.17805
9.80228
-11.9608
11.8139
4.35482
2.96819
4.45465
-4.85389
-2.41608
-4.8204
11.6008
-2.53355
-9.06725
-10.3058
-7.51687
10.2577
5.5247
10.8884
7.03652
11.0828
4.41702
7.18379
-9.94172
2.42485
-3.87148
-1.85739
-3.79622
3.70026
2.12641
3.80958
-4.21246
-2.50837
-4.18976
-4.28046
-2.62976
4.29062
2.42966
-4.37102
-3.73119
4.46946
2.3972
5.0104
-10.256
3.5468
-9.49555
-9.37164
-3.176
-8.76426
5.46917
1.75586
-7.22503
-0.706245
8.20232
-4.91816
6.29283
-4.01761
-2.9083
-4.08956
-6.78661
-1.7096
-6.65401
-8.8893
8.39748
-9.19959
8.54294
12.7047
-5.71333
-6.99136
-3.96794
-2.47243
3.92011
-0.490975
-3.71158
3.71632
0.0495958
3.83027
4.75307
4.26209
-3.88739
-1.935
-3.83255
3.83337
2.04626
3.89426
6.72799
2.20025
6.7349
-6.44316
-2.54344
-6.56866
9.08393
-8.68229
2.9233
-2.91379
5.27744
2.63365
-5.06095
-2.77013
6.18405
-3.11433
-3.06973
-12.2116
10.5605
1.65117
-4.83317
-0.413407
-0.128332
-5.49993
-3.77297
5.38502
0.538401
11.0989
7.3259
-5.5122
5.7616
6.16694
6.22437
-0.172734
5.83891
-5.16541
5.34301
-2.44039
-2.90262
5.31068
-5.47438
-1.25798
-5.3224
4.06441
0.346961
1.73363
-1.46367
-2.01412
-0.534247
-1.95039
1.48327
1.01868
1.65625
0.965432
1.68796
-2.94148
0.536151
2.40533
-1.97605
-1.8043
-3.69246
-1.01391
4.70637
5.56828
2.06775
-5.46118
-0.208202
2.72048
-2.67751
-0.803811
-2.88865
2.09603
-2.89984
-3.58723
-1.89402
5.48125
-3.37086
-0.461697
3.31792
0.5522
-3.82505
-2.09312
3.78507
0.331778
-3.12433
6.19004
-3.06571
-5.05933
2.52902
3.55799
4.53922
-4.7903
2.44625
2.34406
-1.23231
4.21423
0.913397
4.39655
-6.71935
4.52535
5.72587
3.137
-6.05777
0.908123
-5.81123
8.46975
-7.26732
-1.20243
4.10909
4.36067
7.18475
5.51993
-5.75034
12.9351
-1.13219
-6.13513
6.94342
-3.80642
4.75276
-8.55919
-10.2727
4.13756
-9.23694
10.9697
-1.73278
-3.61282
-8.34798
12.8498
-1.21663
-11.6331
8.58565
-4.24268
-4.45104
8.69372
-6.77623
6.86712
-1.98858
-4.87854
-10.1033
-5.69276
10.1813
1.63259
-10.3111
12.736
-3.12734
3.41694
1.03771
3.47986
3.2602
-5.4179
2.15771
3.51603
-5.50461
2.11508
-7.53298
-7.65434
13.2357
-5.5814
-10.8303
-10.0807
-0.749665
2.55268
10.1833
-9.5892
7.38959
2.19961
3.3104
0.583859
-3.3774
-0.418825
0.269062
4.55648
-4.82554
4.07865
4.21975
3.39789
1.15859
3.83942
2.10884
-3.86672
-0.323037
-4.14702
1.51726
-1.71736
-3.64515
5.16241
-4.07171
0.426554
-2.7284
-3.5165
6.2449
-4.58579
3.04035
3.14969
5.08661
-4.90793
1.39143
-2.40144
-2.50649
2.68028
-4.39764
1.93688
3.22552
4.33409
0.602899
7.33737
5.89837
-9.09324
-0.402315
11.6985
-10.6583
2.68045
8.40232
-10.07
-0.0106394
-8.7749
0.619732
-5.5379
-6.6053
5.07063
-6.78023
-3.48856
6.13391
0.600988
-6.20716
-0.44685
-6.03643
-2.85287
-6.47519
-3.06399
-6.1356
-8.81433
-1.65268
-7.16165
6.74479
-6.68135
-3.45309
7.41244
1.1305
-7.41009
7.3416
-7.49313
7.18202
0.0945422
3.62178
4.35664
1.88421
-2.38947
4.27368
-5.06288
7.26313
-8.54055
3.47767
4.03975
-6.5832
-4.50079
5.0443
4.03963
5.34625
8.96208
-10.4712
1.50914
-10.8035
12.1288
-1.32529
-16.5914
5.78789
-7.62932
2.66293
0.260369
2.68672
0.666408
2.41775
-3.08416
-2.24738
-2.2453
-2.33757
-3.40685
5.74442
1.15242
-3.40828
2.25587
-3.47943
4.63185
-0.0730488
-3.33523
5.27529
-2.85754
5.53566
-3.55248
1.98318
3.32652
5.67281
-2.34629
4.33728
-1.70363
1.8397
-4.18599
-1.56715
-2.97817
5.10458
-3.26673
3.69329
-0.279039
3.97233
-4.08531
0.970982
-0.68742
3.53233
3.74032
4.28771
-3.12911
2.96801
-4.67164
-1.21798
-4.06874
-0.843215
-0.287349
-3.79772
4.08507
6.05947
-6.34682
-5.25872
9.57363
-4.31491
7.72484
-5.40363
-2.32121
-4.27698
-4.40531
3.89973
1.93919
9.66403
0.212087
-5.61572
-4.95332
-4.00061
3.21778
2.12523
-1.93377
3.58494
2.0621
-0.328474
0.580745
1.07551
1.85485
-1.27411
0.208705
1.64615
-1.25497
1.99478
0.725704
-2.04695
0.0965571
-1.38685
3.48288
1.01848
-2.03716
0.763055
1.05825
-3.49864
4.83448
-2.48483
-2.34965
5.89273
1.15637
-3.6412
4.16603
-3.81906
2.32866
-3.34257
-1.31254
-5.1316
-3.50318
-2.51844
4.77431
-3.22598
5.29373
1.18708
-5.08553
6.27261
-3.56539
1.67137
-3.06108
3.78678
-1.06646
-1.99462
2.78213
2.69912
-2.9267
0.0380527
-0.14457
2.32177
-2.46634
-0.578071
-2.55412
-4.57092
4.9027
-2.10803
4.55428
2.16564
-1.91444
6.46872
1.81158
-3.72602
-3.24776
-3.70945
-1.38196
3.15725
-0.558833
-4.26157
-5.43738
4.16613
0.230415
-6.88475
7.68309
-0.798341
-3.90173
-0.623619
4.7327
-6.00986
0.505248
-3.89478
3.78832
4.70171
4.93213
-11.4381
-0.195046
-6.26003
1.16578
-7.42581
5.52644
-3.62847
7.76603
-10.4371
6.98403
-9.30662
6.5636
-0.862205
6.23752
-4.07981
2.82973
-8.52249
-6.8899
5.54635
-2.57816
6.58406
-2.98821
9.57227
-6.11555
4.87511
4.69716
-0.83959
-3.24997
-5.14208
4.30249
-0.266969
3.21289
4.97397
-2.86512
4.65093
2.25508
-4.65652
-2.14256
-6.49716
1.84064
-3.34747
-1.91447
3.7551
3.17214
3.756
1.24861
-3.33718
8.37139
-9.12105
-2.78999
-3.81531
4.89419
-0.591695
3.55201
-7.36732
-1.98589
4.88343
-0.818259
-4.06517
0.829892
-4.31845
1.65397
-5.97242
5.12626
-5.57311
2.20174
-9.83106
-5.20835
-5.12954
-2.2426
-5.25053
-7.63921
5.3966
-1.85131
5.49028
-8.63197
7.81371
-3.49683
8.89343
-5.43614
-1.03906
5.84422
1.3378
10.2312
0.184682
-4.68548
-1.90625
3.98066
-2.07441
1.31153
-3.61304
0.367624
2.4634
3.42933
-6.52781
-0.0553848
-4.74086
-3.92866
7.96829
5.64497
11.7044
1.23322
9.16398
-1.19569
10.3972
4.15056
4.38592
-3.06717
4.57631
1.01789
4.49556
-0.843391
2.82657
1.84333
1.84556
0.831949
2.29915
1.44117
3.27013
0.185973
-2.05933
4.63738
-8.63798
-0.978346
-8.06859
1.11293
5.72727
-4.61433
3.12355
-0.998312
1.04914
0.106674
-1.62574
1.51906
-2.79595
-1.95421
-0.308067
-1.5998
2.36285
1.88308
-2.05479
-0.741162
0.311843
-3.81503
3.03073
-2.99268
-0.293559
5.97905
-2.74304
0.276707
-1.07167
-2.27742
-2.81166
2.71511
6.17628
0.292445
3.11057
5.19514
3.10202
0.236897
3.94093
-5.67371
-3.59205
-5.86875
-0.342309
4.3904
1.46987
8.71343
6.16703
5.57533
-1.79199
-10.913
6.58468
-2.00837
5.25939
-1.19422
-4.7782
4.9665
2.29663
-5.56749
-0.00562191
-4.78382
-6.79219
-0.536751
8.35046
-9.69448
8.65542
5.80255
1.3591
-4.41222
-0.717315
4.23474
0.151175
10.5484
-1.12623
-6.81726
7.94349
-4.60104
3.62269
0.840068
2.74487
2.35913
1.36082
-5.45643
-10.0708
-1.90867
-1.58996
-4.25832
0.448047
-2.33113
6.25472
-2.63203
3.93351
5.31145
6.36059
-2.15478
-4.19204
6.46969
-2.53618
3.82441
)
;

boundaryField
{
    wall-4
    {
        type            calculated;
        value           uniform 0;
    }
    velocity-inlet-5
    {
        type            calculated;
        value           uniform -3.75095;
    }
    velocity-inlet-6
    {
        type            calculated;
        value           uniform -5.62643;
    }
    pressure-outlet-7
    {
        type            calculated;
        value           nonuniform List<scalar> 8(4.67794 5.01547 5.22215 8.51045 7.96367 5.85826 6.91455 8.35087);
    }
    wall-8
    {
        type            calculated;
        value           uniform 0;
    }
    frontAndBackPlanes
    {
        type            empty;
        value           nonuniform 0();
    }
}


// ************************************************************************* //
