/*--------------------------------*- C++ -*----------------------------------*\
| =========                 |                                                 |
| \\      /  F ield         | OpenFOAM: The Open Source CFD Toolbox           |
|  \\    /   O peration     | Version:  4.0                                   |
|   \\  /    A nd           | Web:      www.OpenFOAM.org                      |
|    \\/     M anipulation  |                                                 |
\*---------------------------------------------------------------------------*/
FoamFile
{
    version     2.0;
    format      ascii;
    class       volVectorField;
    location    "74";
    object      U;
}
// * * * * * * * * * * * * * * * * * * * * * * * * * * * * * * * * * * * * * //

dimensions      [0 1 -1 0 0 0 0];

internalField   nonuniform List<vector> 
2200
(
(0.878836 -0.0304115 0)
(1.00578 -0.051277 0)
(1.00326 -0.0353981 0)
(1.00021 -0.0244271 0)
(0.999827 -0.0166433 0)
(1.00003 -0.0107051 0)
(1.00001 -0.00681603 0)
(0.999913 -0.00414 0)
(0.999752 -0.0021091 0)
(1.00019 -0.000610649 0)
(0.999981 0.00127435 0)
(1.00023 0.00275376 0)
(1.0004 0.00453093 0)
(1.00025 0.00714702 0)
(1.00004 0.0108611 0)
(0.999963 0.0166836 0)
(1.0003 0.0243898 0)
(1.00346 0.034872 0)
(1.00598 0.0513842 0)
(0.87904 0.0302969 0)
(0.712039 -0.0327599 0)
(0.996651 -0.0630021 0)
(1.03335 -0.0561258 0)
(1.02499 -0.0464068 0)
(1.01595 -0.0361036 0)
(1.00965 -0.026375 0)
(1.00596 -0.0181303 0)
(1.00393 -0.0114771 0)
(1.00291 -0.00611822 0)
(1.00233 -0.0016905 0)
(1.00232 0.00245651 0)
(1.00225 0.006941 0)
(1.00319 0.012441 0)
(1.0055 0.0189495 0)
(1.00944 0.0272368 0)
(1.01553 0.0369714 0)
(1.02462 0.047467 0)
(1.03315 0.0580033 0)
(0.996694 0.0631477 0)
(0.711778 0.0330375 0)
(0.535579 -0.0238901 0)
(0.969941 -0.0569175 0)
(1.05643 -0.0547243 0)
(1.05218 -0.0487128 0)
(1.0362 -0.0403656 0)
(1.02447 -0.0321684 0)
(1.01588 -0.02388 0)
(1.01022 -0.0159372 0)
(1.00678 -0.00859322 0)
(1.00536 -0.0018315 0)
(1.00519 0.00436581 0)
(1.00714 0.010833 0)
(1.01051 0.0177208 0)
(1.01576 0.0254644 0)
(1.02402 0.0334663 0)
(1.03609 0.0414581 0)
(1.05217 0.0494533 0)
(1.05628 0.0532896 0)
(0.969171 0.0576716 0)
(0.534326 0.0239422 0)
(0.392451 -0.0136337 0)
(0.911954 -0.0463596 0)
(1.05757 -0.0468018 0)
(1.06972 -0.0442598 0)
(1.05498 -0.0381081 0)
(1.03938 -0.0314478 0)
(1.02764 -0.0246391 0)
(1.01931 -0.0174613 0)
(1.01416 -0.0100112 0)
(1.01163 -0.00252489 0)
(1.0113 0.00507435 0)
(1.01308 0.0126365 0)
(1.01798 0.0200374 0)
(1.02652 0.0267832 0)
(1.0385 0.033169 0)
(1.05396 0.0395934 0)
(1.06816 0.0456681 0)
(1.05543 0.0483223 0)
(0.909853 0.0470024 0)
(0.389844 0.0137832 0)
(0.307878 -0.0045096 0)
(0.846844 -0.032356 0)
(1.0494 -0.0398864 0)
(1.07943 -0.0381125 0)
(1.06822 -0.033422 0)
(1.05175 -0.0277701 0)
(1.03834 -0.0223437 0)
(1.02797 -0.0162021 0)
(1.02064 -0.00920727 0)
(1.01657 -0.00149042 0)
(1.01663 0.00625467 0)
(1.02061 0.0134514 0)
(1.02757 0.0197429 0)
(1.03731 0.025492 0)
(1.05015 0.0304509 0)
(1.0666 0.0357818 0)
(1.07765 0.0401066 0)
(1.04719 0.0418063 0)
(0.842838 0.0329979 0)
(0.303599 0.00474586 0)
(0.264552 0.000105403 0)
(0.789369 -0.0200411 0)
(1.03372 -0.0313979 0)
(1.08384 -0.0319408 0)
(1.07749 -0.0286536 0)
(1.06096 -0.0237893 0)
(1.04735 -0.0193144 0)
(1.03657 -0.0142859 0)
(1.02896 -0.00826728 0)
(1.02465 -0.00127388 0)
(1.02399 0.00619761 0)
(1.02721 0.0131069 0)
(1.03428 0.0188924 0)
(1.04492 0.0233387 0)
(1.05861 0.0272614 0)
(1.07484 0.0316308 0)
(1.08026 0.0343541 0)
(1.02908 0.0334257 0)
(0.782376 0.0207789 0)
(0.258531 0.00012979 0)
(0.240628 0.00107364 0)
(0.738707 -0.0122449 0)
(1.01386 -0.024909 0)
(1.0841 -0.0266437 0)
(1.08309 -0.0243018 0)
(1.06791 -0.0200835 0)
(1.05437 -0.0160133 0)
(1.04343 -0.0113654 0)
(1.03503 -0.00587788 0)
(1.02977 0.00058259 0)
(1.02955 0.00717661 0)
(1.034 0.0129104 0)
(1.0416 0.0174552 0)
(1.05172 0.0214597 0)
(1.0646 0.0248289 0)
(1.0793 0.0282867 0)
(1.07977 0.0298293 0)
(1.00729 0.0273328 0)
(0.728503 0.0131882 0)
(0.232794 -0.000826815 0)
(0.226453 0.000967971 0)
(0.696187 -0.00798739 0)
(0.993663 -0.020622 0)
(1.08268 -0.0229435 0)
(1.0872 -0.0210762 0)
(1.07362 -0.0175272 0)
(1.06009 -0.0137175 0)
(1.04945 -0.00949399 0)
(1.04157 -0.00459337 0)
(1.03679 0.00108635 0)
(1.03578 0.00723544 0)
(1.03882 0.0126047 0)
(1.04562 0.0170303 0)
(1.05568 0.0203149 0)
(1.06914 0.0232867 0)
(1.08182 0.0259726 0)
(1.07546 0.0269471 0)
(0.982957 0.0235596 0)
(0.681269 0.00917395 0)
(0.216269 -0.000704468 0)
(0.216905 0.000630118 0)
(0.66078 -0.00562456 0)
(0.973028 -0.0175076 0)
(1.07974 -0.0200464 0)
(1.09044 -0.0184181 0)
(1.07845 -0.0151894 0)
(1.06509 -0.0114584 0)
(1.0546 -0.00710106 0)
(1.04659 -0.00208503 0)
(1.04125 0.00337127 0)
(1.04041 0.0085116 0)
(1.04407 0.0130805 0)
(1.05073 0.0167066 0)
(1.06 0.0200347 0)
(1.07235 0.0226919 0)
(1.08317 0.0248417 0)
(1.07058 0.0252174 0)
(0.95868 0.0211623 0)
(0.640939 0.00713759 0)
(0.204058 -0.000324913 0)
(0.209925 0.000309949 0)
(0.63268 -0.00413706 0)
(0.954652 -0.014835 0)
(1.0771 -0.0176558 0)
(1.09386 -0.0162609 0)
(1.08327 -0.0132956 0)
(1.06977 -0.00964689 0)
(1.05921 -0.00561911 0)
(1.05129 -0.00110156 0)
(1.04621 0.00386243 0)
(1.04472 0.00928986 0)
(1.04703 0.0138432 0)
(1.05297 0.0175451 0)
(1.06237 0.0201583 0)
(1.07535 0.0225143 0)
(1.08414 0.0241546 0)
(1.0635 0.0241083 0)
(0.93376 0.01932 0)
(0.605762 0.00600771 0)
(0.193479 5.28202e-05 0)
(0.204134 9.26905e-05 0)
(0.609422 -0.00310145 0)
(0.936675 -0.0124228 0)
(1.07388 -0.0154248 0)
(1.09717 -0.0142289 0)
(1.08809 -0.0113931 0)
(1.07458 -0.00780317 0)
(1.06386 -0.00359234 0)
(1.05579 0.0013783 0)
(1.05043 0.00677023 0)
(1.04876 0.0113084 0)
(1.05121 0.0152351 0)
(1.05701 0.0182772 0)
(1.06574 0.0209913 0)
(1.0776 0.0229837 0)
(1.08429 0.0241758 0)
(1.05644 0.0233849 0)
(0.909521 0.0178435 0)
(0.57507 0.00538129 0)
(0.183665 0.000338647 0)
(0.199808 3.05616e-05 0)
(0.591761 -0.00218314 0)
(0.921764 -0.00999887 0)
(1.07129 -0.0130021 0)
(1.10071 -0.0118429 0)
(1.09296 -0.00904356 0)
(1.07929 -0.00534641 0)
(1.0683 -0.00138106 0)
(1.05984 0.00303358 0)
(1.05378 0.00756163 0)
(1.0514 0.0125876 0)
(1.05307 0.0167017 0)
(1.05841 0.0197651 0)
(1.06747 0.0217214 0)
(1.0799 0.0234792 0)
(1.08393 0.0243114 0)
(1.04722 0.0229148 0)
(0.884692 0.0166986 0)
(0.547064 0.00502615 0)
(0.174021 0.000508366 0)
(0.196339 4.17365e-05 0)
(0.577242 -0.00148784 0)
(0.907515 -0.00790669 0)
(1.06866 -0.0108092 0)
(1.10441 -0.00965218 0)
(1.09824 -0.00684394 0)
(1.08455 -0.00324656 0)
(1.0731 0.000845836 0)
(1.06414 0.00565594 0)
(1.05813 0.011197 0)
(1.05546 0.0157694 0)
(1.05676 0.0192113 0)
(1.06189 0.0215347 0)
(1.07035 0.0234338 0)
(1.08115 0.0245908 0)
(1.08305 0.0249439 0)
(1.03764 0.0229576 0)
(0.859946 0.0159553 0)
(0.521196 0.00490308 0)
(0.164541 0.000602721 0)
(0.194441 6.69751e-05 0)
(0.56716 -0.000676718 0)
(0.896483 -0.00569929 0)
(1.06662 -0.00826537 0)
(1.10825 -0.00690106 0)
(1.1034 -0.0039214 0)
(1.08956 1.46149e-07 0)
(1.07787 0.00417486 0)
(1.06858 0.00880632 0)
(1.0612 0.0133006 0)
(1.05737 0.0178942 0)
(1.05802 0.0213322 0)
(1.06264 0.0236605 0)
(1.07137 0.0249054 0)
(1.08232 0.0258877 0)
(1.08089 0.0257016 0)
(1.0255 0.0231354 0)
(0.834176 0.0154872 0)
(0.496245 0.0048535 0)
(0.155004 0.000634061 0)
(0.193817 0.000109766 0)
(0.560117 -0.00011321 0)
(0.886972 -0.00352051 0)
(1.0654 -0.00559731 0)
(1.11247 -0.00402516 0)
(1.10912 -0.000878203 0)
(1.09538 0.00298047 0)
(1.08305 0.00723947 0)
(1.07276 0.0120666 0)
(1.06516 0.0175076 0)
(1.06121 0.0221793 0)
(1.06122 0.0251628 0)
(1.06561 0.0267163 0)
(1.07366 0.0277187 0)
(1.08189 0.027947 0)
(1.07791 0.0273173 0)
(1.01274 0.0239891 0)
(0.807933 0.0154575 0)
(0.471963 0.00495426 0)
(0.14546 0.000657768 0)
(0.194547 7.23704e-05 0)
(0.556334 0.000939277 0)
(0.880789 -0.00142508 0)
(1.06498 -0.00290479 0)
(1.11715 -0.00089081 0)
(1.11501 0.00257034 0)
(1.10106 0.00699313 0)
(1.08848 0.0116651 0)
(1.07807 0.0168076 0)
(1.06939 0.0217986 0)
(1.06327 0.025456 0)
(1.06213 0.0281805 0)
(1.06536 0.0297893 0)
(1.07326 0.0303305 0)
(1.08194 0.0304975 0)
(1.07315 0.0292866 0)
(0.99694 0.0250275 0)
(0.780049 0.0157693 0)
(0.44733 0.00514014 0)
(0.135597 0.000676363 0)
(0.196934 0.000338028 0)
(0.556943 0.00162223 0)
(0.876949 0.00110905 0)
(1.06631 0.000552128 0)
(1.12253 0.00292494 0)
(1.12155 0.00672358 0)
(1.10752 0.0112779 0)
(1.09417 0.0162596 0)
(1.08227 0.0214835 0)
(1.07202 0.0266699 0)
(1.06619 0.0314767 0)
(1.06471 0.0339347 0)
(1.06779 0.0345697 0)
(1.07479 0.0348434 0)
(1.07956 0.0340064 0)
(1.06721 0.0320492 0)
(0.980121 0.0268808 0)
(0.750945 0.0164766 0)
(0.422137 0.00545675 0)
(0.125372 0.000700537 0)
(0.201375 0.000691184 0)
(0.560104 0.00249021 0)
(0.877875 0.00368028 0)
(1.0692 0.00384935 0)
(1.12883 0.00703747 0)
(1.1288 0.0112961 0)
(1.11434 0.016626 0)
(1.10039 0.0221723 0)
(1.0882 0.0281516 0)
(1.07765 0.0338054 0)
(1.06909 0.0375241 0)
(1.06509 0.0389154 0)
(1.06606 0.0395658 0)
(1.07272 0.0390189 0)
(1.07824 0.0382474 0)
(1.05922 0.0355763 0)
(0.959296 0.0289681 0)
(0.719 0.0175622 0)
(0.395325 0.00586914 0)
(0.114443 0.00072221 0)
(0.208296 0.000910597 0)
(0.567903 0.00367894 0)
(0.882405 0.00623987 0)
(1.07459 0.0083123 0)
(1.13621 0.0119574 0)
(1.1371 0.0168852 0)
(1.12225 0.022636 0)
(1.10735 0.028815 0)
(1.09336 0.0349569 0)
(1.08014 0.0405648 0)
(1.07021 0.0443066 0)
(1.06653 0.046282 0)
(1.06791 0.0463675 0)
(1.07307 0.0456901 0)
(1.07338 0.0436495 0)
(1.04926 0.0397562 0)
(0.936772 0.0320372 0)
(0.68485 0.0190385 0)
(0.366845 0.0063732 0)
(0.102827 0.000740703 0)
(0.217008 0.00110494 0)
(0.57945 0.00497959 0)
(0.891302 0.00933657 0)
(1.08269 0.0128168 0)
(1.14497 0.0177684 0)
(1.14636 0.0234869 0)
(1.13056 0.0302524 0)
(1.11444 0.0371916 0)
(1.09933 0.0442835 0)
(1.08503 0.0504911 0)
(1.07365 0.054614 0)
(1.06662 0.0552151 0)
(1.06499 0.0543177 0)
(1.06893 0.0522698 0)
(1.07005 0.0501296 0)
(1.03673 0.0452293 0)
(0.908826 0.0353621 0)
(0.646058 0.0208291 0)
(0.335459 0.00689397 0)
(0.0902305 0.000746445 0)
(0.229898 0.00142663 0)
(0.598472 0.00691651 0)
(0.906784 0.0137695 0)
(1.09422 0.0191559 0)
(1.15569 0.0247408 0)
(1.15729 0.0315377 0)
(1.14063 0.0391584 0)
(1.12311 0.0470115 0)
(1.10579 0.0546607 0)
(1.08852 0.061005 0)
(1.07352 0.0643048 0)
(1.06617 0.0646078 0)
(1.0652 0.0638963 0)
(1.06782 0.0617792 0)
(1.06184 0.0581164 0)
(1.02073 0.0514162 0)
(0.877703 0.0398607 0)
(0.603686 0.0229705 0)
(0.301535 0.00744061 0)
(0.0768705 0.000749097 0)
(0.246021 0.00201465 0)
(0.62294 0.00871706 0)
(0.928951 0.0183852 0)
(1.11043 0.0260848 0)
(1.16885 0.033692 0)
(1.16987 0.0417915 0)
(1.15118 0.0508351 0)
(1.13143 0.059708 0)
(1.11173 0.068105 0)
(1.09215 0.0745334 0)
(1.07555 0.0776454 0)
(1.0657 0.0774612 0)
(1.06098 0.0749092 0)
(1.0611 0.0711328 0)
(1.05503 0.0668817 0)
(1.00149 0.0588336 0)
(0.839207 0.0442781 0)
(0.554486 0.0250498 0)
(0.263868 0.00779822 0)
(0.0625962 0.000715639 0)
(0.268487 0.00287929 0)
(0.656307 0.0126162 0)
(0.957921 0.0253019 0)
(1.13073 0.0359783 0)
(1.18478 0.0447697 0)
(1.18467 0.0548434 0)
(1.16396 0.0650159 0)
(1.14175 0.0748775 0)
(1.11884 0.083593 0)
(1.09558 0.089972 0)
(1.0754 0.09252 0)
(1.063 0.0907388 0)
(1.05906 0.0879482 0)
(1.05816 0.0840548 0)
(1.04229 0.0778637 0)
(0.976377 0.0671795 0)
(0.795365 0.0499632 0)
(0.500465 0.0273106 0)
(0.223742 0.0080218 0)
(0.0480386 0.000694874 0)
(0.300467 0.00380264 0)
(0.702961 0.0156766 0)
(0.9987 0.0334581 0)
(1.15832 0.0473708 0)
(1.20465 0.0590925 0)
(1.20191 0.0715521 0)
(1.17713 0.0837066 0)
(1.15107 0.0945528 0)
(1.12465 0.103573 0)
(1.0981 0.109019 0)
(1.07489 0.109558 0)
(1.06107 0.106819 0)
(1.05292 0.102568 0)
(1.04814 0.0964068 0)
(1.0301 0.089249 0)
(0.946806 0.0763964 0)
(0.741244 0.0548352 0)
(0.436804 0.0286763 0)
(0.180029 0.00776076 0)
(0.0331136 0.000591644 0)
(0.337528 0.007184 0)
(0.761328 0.0252743 0)
(1.04722 0.0471932 0)
(1.19102 0.0658588 0)
(1.22814 0.0793208 0)
(1.22077 0.0945382 0)
(1.19153 0.107376 0)
(1.16158 0.118263 0)
(1.13074 0.126234 0)
(1.09952 0.130272 0)
(1.07295 0.129932 0)
(1.05603 0.125458 0)
(1.04854 0.119294 0)
(1.04253 0.112816 0)
(1.01015 0.103027 0)
(0.907442 0.0859166 0)
(0.678994 0.0603864 0)
(0.369647 0.0298729 0)
(0.136624 0.0072922 0)
(0.0198316 0.000564728 0)
(0.418801 0.0110076 0)
(0.850425 0.0358902 0)
(1.11652 0.0685301 0)
(1.23287 0.091404 0)
(1.25629 0.107656 6.09418e-34)
(1.24212 0.125138 -2.75742e-34)
(1.20614 0.138317 0)
(1.17076 0.1482 0)
(1.1353 0.154655 0)
(1.10045 0.156366 0)
(1.07061 0.152376 0)
(1.05184 0.144928 0)
(1.04016 0.137664 0)
(1.02753 0.128229 0)
(0.988879 0.115996 0)
(0.861643 0.0954007 0)
(0.602876 0.0634859 0)
(0.288817 0.0283709 0)
(0.0886326 0.00654972 0)
(0.0058532 0.000696045 0)
(0.490959 0.0261227 4.40513e-20)
(0.952938 0.0611335 -3.34111e-20)
(1.18532 0.102725 0)
(1.27442 0.130313 2.6182e-20)
(1.28548 0.146892 -2.12304e-20)
(1.26147 0.166026 2.90937e-34)
(1.21878 0.176988 0)
(1.17861 0.184659 1.55945e-20)
(1.13793 0.188319 -5.12538e-20)
(1.09744 0.186589 1.04908e-20)
(1.06367 0.180067 0)
(1.04261 0.171502 -2.67686e-20)
(1.03104 0.161538 -3.2309e-20)
(1.01537 0.151288 5.66441e-20)
(0.949915 0.135083 -4.47378e-20)
(0.784723 0.105147 0)
(0.492061 0.0647052 -1.6057e-20)
(0.194816 0.0254682 0)
(0.0411944 0.00609845 -8.88974e-20)
(-0.00881971 0.000215992 1.04768e-19)
(0.527986 0.0545036 -5.84701e-21)
(1.02186 0.103718 9.74718e-20)
(1.24028 0.154945 -4.75703e-21)
(1.30991 0.179315 -6.28436e-20)
(1.31147 0.196737 -4.46988e-20)
(1.27878 0.213884 7.27068e-20)
(1.22968 0.222437 0)
(1.1836 0.227647 0)
(1.13754 0.228709 8.12347e-20)
(1.09321 0.224546 0)
(1.0566 0.215408 9.60573e-20)
(1.03196 0.203091 2.87234e-20)
(1.014 0.191612 6.56996e-22)
(0.983447 0.177167 -6.11685e-20)
(0.903848 0.153872 0)
(0.707619 0.117036 0)
(0.399509 0.0649856 -2.60626e-19)
(0.132195 0.0221428 6.55429e-19)
(0.00807738 0.00382649 -3.87398e-19)
(-0.0197068 -0.00153512 -4.56243e-19)
(0.535056 0.0791683 -5.05453e-20)
(1.05344 0.160331 1.99656e-20)
(1.27377 0.2141 1.14464e-20)
(1.33696 0.237894 1.08923e-19)
(1.33177 0.254926 1.47276e-20)
(1.29138 0.267821 -1.88649e-19)
(1.23669 0.272009 6.46113e-20)
(1.18574 0.273408 0)
(1.1345 0.270837 -1.71108e-19)
(1.08433 0.262681 1.52684e-19)
(1.04234 0.249465 -2.5905e-19)
(1.01486 0.234646 1.21464e-19)
(0.996369 0.221055 -7.88164e-20)
(0.965139 0.204646 1.77898e-19)
(0.864742 0.17732 0)
(0.650712 0.127694 -6.4579e-20)
(0.343416 0.0654609 0)
(0.103463 0.0202323 3.55916e-19)
(-0.00812199 0.00107466 -8.42755e-19)
(-0.0257801 -0.00358404 5.2744e-19)
(0.533566 0.108791 1.25272e-19)
(1.08203 0.220855 -5.64963e-20)
(1.30015 0.282452 -1.26017e-20)
(1.35543 0.304211 0)
(1.34478 0.317789 -8.07687e-20)
(1.29961 0.325109 9.98448e-20)
(1.2405 0.32457 -6.87678e-20)
(1.18443 0.321899 0)
(1.12842 0.315311 1.21427e-19)
(1.07471 0.303016 -1.0716e-19)
(1.03 0.285976 2.23285e-19)
(1.00056 0.268923 0)
(0.976851 0.252771 -1.67097e-19)
(0.933443 0.231531 9.43074e-20)
(0.829987 0.195137 2.36552e-19)
(0.610157 0.138421 -2.08028e-19)
(0.314532 0.0695958 3.27478e-19)
(0.0940991 0.0209942 -7.24428e-19)
(-0.0166246 -0.00157241 4.58524e-19)
(-0.0305826 -0.0059235 -5.73254e-19)
(0.516438 0.133313 -3.32252e-20)
(1.08072 0.271383 2.32704e-20)
(1.30812 0.345348 -4.20873e-20)
(1.36498 0.368985 8.85862e-20)
(1.3515 0.381587 -8.6294e-20)
(1.30243 0.383942 3.08707e-20)
(1.23944 0.378517 3.89442e-21)
(1.17973 0.371272 -1.35367e-19)
(1.11978 0.359858 -1.26522e-19)
(1.06127 0.342752 -2.29042e-19)
(1.0121 0.321721 -4.79683e-19)
(0.979302 0.300898 -1.48012e-19)
(0.955383 0.281212 2.27346e-21)
(0.915768 0.257634 -3.21226e-19)
(0.802701 0.219114 -4.65111e-21)
(0.583879 0.150373 3.01699e-19)
(0.306645 0.0756353 -8.98701e-20)
(0.0932138 0.0229134 -5.22741e-20)
(-0.0176598 -0.00432667 0)
(-0.032849 -0.00797161 1.21373e-18)
(0.502783 0.155829 0)
(1.08276 0.325525 1.68137e-21)
(1.31348 0.412021 -4.78819e-21)
(1.36764 0.43476 -1.3071e-20)
(1.35134 0.444983 8.16046e-20)
(1.30018 0.44256 -7.30076e-20)
(1.23482 0.432618 7.45561e-20)
(1.17191 0.420825 2.22511e-19)
(1.10859 0.405178 -7.03311e-20)
(1.04727 0.383728 1.13045e-19)
(0.995812 0.358157 2.5762e-19)
(0.96138 0.334319 3.22631e-19)
(0.933685 0.312402 -1.94152e-19)
(0.884232 0.284168 3.47522e-19)
(0.776454 0.236366 -2.7528e-19)
(0.565104 0.166201 0)
(0.302676 0.0840335 -6.8262e-19)
(0.0993833 0.0262996 9.21071e-19)
(-0.0120395 -0.00486217 6.86726e-20)
(-0.0315645 -0.00945265 -1.2825e-18)
(0.482981 0.174201 -5.24871e-21)
(1.06706 0.369602 -3.27787e-20)
(1.30763 0.470111 3.39562e-20)
(1.36494 0.49581 -5.87873e-20)
(1.34732 0.505858 6.95543e-20)
(1.29428 0.499443 -6.96013e-20)
(1.22662 0.485426 1.46297e-19)
(1.1614 0.469621 -6.57844e-20)
(1.0953 0.449343 -2.83289e-19)
(1.03016 0.423039 -2.10026e-23)
(0.975347 0.393417 -2.79775e-19)
(0.93782 0.366304 -3.47048e-19)
(0.908328 0.339641 2.14699e-19)
(0.86528 0.310081 -1.24798e-19)
(0.752792 0.262478 2.99606e-19)
(0.549082 0.181951 0)
(0.302178 0.0963391 -4.25279e-19)
(0.107937 0.0320388 6.28125e-19)
(-0.00364783 -0.00312756 1.1873e-18)
(-0.028237 -0.00998097 -1.39672e-18)
(0.471029 0.193516 -1.20617e-19)
(1.05972 0.418074 5.52652e-20)
(1.30224 0.530622 -1.45471e-20)
(1.35834 0.556427 5.97496e-20)
(1.33882 0.564793 1.23099e-20)
(1.28467 0.554672 -1.34901e-19)
(1.21564 0.537064 -8.55086e-20)
(1.14841 0.517101 -8.536e-20)
(1.0799 0.493066 -1.60405e-19)
(1.01266 0.462695 2.58475e-19)
(0.956096 0.428918 2.82183e-19)
(0.916971 0.398156 5.50563e-19)
(0.885093 0.370925 0)
(0.832997 0.337327 6.24922e-21)
(0.728322 0.280312 -8.23943e-19)
(0.535101 0.199748 1.93976e-19)
(0.302082 0.108584 9.24148e-19)
(0.116505 0.0393076 -2.727e-19)
(0.00568992 -6.73391e-05 5.65163e-19)
(-0.0240581 -0.00972657 -4.70906e-20)
(0.45628 0.208852 5.92945e-21)
(1.04132 0.456793 7.22869e-20)
(1.29033 0.583046 2.49883e-21)
(1.34881 0.611971 4.93593e-20)
(1.32843 0.620478 -1.21657e-19)
(1.27323 0.607127 1.32565e-19)
(1.20275 0.586205 8.8335e-20)
(1.13402 0.563042 2.53794e-19)
(1.06355 0.535048 3.20914e-19)
(0.993529 0.500419 -3.00021e-19)
(0.93354 0.463087 0)
(0.891159 0.429188 -2.09021e-19)
(0.858368 0.396467 2.3998e-19)
(0.813875 0.36179 3.03104e-19)
(0.706599 0.307074 -1.75587e-19)
(0.521933 0.216111 -4.25053e-19)
(0.302419 0.122004 -1.26395e-19)
(0.124438 0.0474928 -2.07389e-21)
(0.0147124 0.0039499 0)
(-0.0196243 -0.00890165 0)
(0.448389 0.226263 -9.73469e-20)
(1.03127 0.499682 0)
(1.27998 0.637225 1.85415e-20)
(1.33717 0.666837 -2.06556e-20)
(1.31539 0.673835 1.4162e-19)
(1.25948 0.657496 -3.52765e-20)
(1.18815 0.633777 8.97045e-20)
(1.11816 0.607075 -1.71146e-19)
(1.04588 0.5759 2.43395e-19)
(0.973605 0.537914 -1.00157e-19)
(0.911588 0.496365 1.622e-19)
(0.868805 0.458253 6.64427e-19)
(0.835255 0.425416 1.41619e-20)
(0.782112 0.387421 -3.17001e-19)
(0.683754 0.322768 5.85775e-19)
(0.507725 0.234213 2.93084e-21)
(0.299891 0.134386 1.35226e-19)
(0.130089 0.0559447 -6.44436e-19)
(0.0223121 0.00828488 6.63905e-19)
(-0.0155119 -0.00776087 -7.82123e-19)
(0.439877 0.241154 3.32118e-23)
(1.01502 0.5344 0)
(1.26559 0.683753 0)
(1.32397 0.716715 6.33857e-21)
(1.30165 0.723892 -3.95923e-20)
(1.24511 0.704934 6.0462e-20)
(1.17289 0.678453 -1.64509e-19)
(1.10179 0.649238 0)
(1.02754 0.615026 -3.59474e-19)
(0.952735 0.573504 4.35743e-19)
(0.88853 0.528879 4.65248e-19)
(0.842754 0.487762 -2.44029e-19)
(0.807485 0.449019 -2.96142e-19)
(0.763403 0.408605 6.94797e-19)
(0.662162 0.348079 -2.08631e-19)
(0.493168 0.248897 -2.47938e-19)
(0.296671 0.146896 -1.48048e-19)
(0.133599 0.0639779 -6.97199e-19)
(0.0281731 0.0124576 1.02179e-19)
(-0.0119881 -0.00654174 8.47847e-19)
(0.433983 0.257267 -4.60622e-20)
(1.00479 0.572436 -6.27728e-20)
(1.25315 0.731734 2.40161e-20)
(1.30981 0.765824 -1.993e-22)
(1.28652 0.771554 -4.82255e-20)
(1.22949 0.75014 9.2647e-20)
(1.15663 0.721507 0)
(1.08445 0.689475 1.04424e-19)
(1.00885 0.65271 -8.2339e-20)
(0.932839 0.60853 7.28819e-19)
(0.866691 0.55986 -1.04309e-19)
(0.819731 0.514128 1.21041e-19)
(0.784706 0.475873 0)
(0.731933 0.431998 -3.76431e-19)
(0.639049 0.360121 4.55887e-19)
(0.477395 0.265061 0)
(0.290363 0.156899 -3.18621e-19)
(0.134464 0.0709999 9.38138e-19)
(0.0320832 0.016044 1.11527e-19)
(-0.00918207 -0.00541459 -1.04618e-18)
(0.428865 0.274476 -1.13139e-19)
(0.990769 0.603736 1.4235e-19)
(1.23802 0.7725 0)
(1.29502 0.809967 3.38954e-20)
(1.27138 0.816027 0)
(1.21389 0.792631 -1.25018e-19)
(1.14045 0.761745 0)
(1.06759 0.7277 0)
(0.990683 0.688712 -1.10622e-19)
(0.912315 0.641929 -6.93168e-19)
(0.842845 0.590469 -8.61346e-19)
(0.793354 0.542287 1.42235e-19)
(0.756062 0.497249 5.144e-19)
(0.712783 0.449138 4.1519e-19)
(0.616598 0.382468 -1.46409e-18)
(0.461019 0.275403 -5.83186e-19)
(0.28299 0.166289 3.42259e-19)
(0.133641 0.0766899 0)
(0.0344316 0.0190349 9.59483e-19)
(-0.00703416 -0.00445626 -1.12905e-18)
(0.426294 0.290147 1.32519e-19)
(0.982117 0.638151 -1.6326e-19)
(1.22497 0.814946 0)
(1.28002 0.853421 -1.15578e-20)
(1.25563 0.858192 -8.03969e-21)
(1.19781 0.832831 0)
(1.12402 0.800307 5.12547e-20)
(1.05051 0.764133 7.35977e-20)
(0.972526 0.723218 -2.07109e-19)
(0.892536 0.674346 9.15571e-20)
(0.820837 0.619273 0)
(0.770025 0.566422 5.90517e-19)
(0.73307 0.521292 6.70156e-21)
(0.680545 0.469537 2.2425e-19)
(0.593183 0.388658 2.65418e-19)
(0.444837 0.287026 0)
(0.27461 0.172306 -5.56557e-19)
(0.131493 0.081104 1.09336e-18)
(0.0356255 0.0211919 -1.16193e-18)
(-0.00545966 -0.00369276 2.434e-18)
(0.423999 0.30496 0)
(0.970079 0.666158 0)
(1.21012 0.850603 -8.1122e-20)
(1.26501 0.89208 0)
(1.24034 0.897354 0)
(1.18221 0.870596 -9.79349e-20)
(1.10819 0.836313 5.2411e-20)
(1.03427 0.798534 1.79913e-20)
(0.954949 0.756047 -4.69994e-20)
(0.87231 0.705333 0)
(0.7972 0.648321 -1.3215e-19)
(0.743387 0.59328 -4.81732e-19)
(0.702843 0.539942 -5.80895e-19)
(0.660505 0.481371 -2.33752e-19)
(0.57036 0.406352 2.87565e-19)
(0.427745 0.29159 -6.76901e-19)
(0.265587 0.177631 1.19403e-18)
(0.128264 0.0837202 1.42303e-21)
(0.036099 0.0236465 -1.11101e-18)
(-0.0040147 -0.00236589 -1.6424e-19)
(0.422614 0.31875 0)
(0.962307 0.697082 -1.3093e-19)
(1.19748 0.888072 9.77477e-20)
(1.25026 0.930323 0)
(1.22495 0.934431 0)
(1.16666 0.906081 1.93621e-19)
(1.0925 0.870574 0)
(1.01798 0.831279 0)
(0.937491 0.787392 -4.56283e-19)
(0.853354 0.73525 1.28285e-19)
(0.775992 0.675234 -1.1733e-18)
(0.719591 0.615785 0)
(0.679109 0.561678 -6.34271e-19)
(0.626453 0.498288 9.5056e-21)
(0.545948 0.404618 -9.28021e-19)
(0.412234 0.295803 3.63769e-19)
(0.259001 0.176208 1.17714e-21)
(0.127725 0.0828426 -1.25708e-18)
(0.0369747 0.0211583 5.96644e-19)
(-0.00585403 -0.00526966 1.75719e-19)
(0.420959 0.332279 0)
(0.951683 0.72227 -1.75046e-19)
(1.18358 0.919099 1.02515e-19)
(1.23585 0.963994 1.4817e-19)
(1.2103 0.968721 -3.06198e-21)
(1.15178 0.939428 1.90513e-20)
(1.07748 0.902613 -2.86639e-20)
(1.0026 0.862046 4.2788e-19)
(0.920929 0.817087 4.88094e-19)
(0.834315 0.763858 9.7636e-19)
(0.753099 0.702853 9.74852e-19)
(0.692633 0.641871 1.72019e-19)
(0.646748 0.578451 9.11813e-19)
(0.604029 0.504874 5.63606e-19)
(0.521055 0.415869 6.65653e-19)
(0.396653 0.290164 -3.97746e-19)
(0.254477 0.170444 -4.53921e-19)
(0.135039 0.0838586 5.42322e-19)
(0.0486414 0.0338754 -3.20829e-19)
(0.00362232 0.00631993 5.70034e-19)
(0.419801 0.34529 2.43072e-19)
(0.944832 0.750342 2.74548e-19)
(1.17185 0.952222 5.81984e-20)
(1.2219 0.997591 1.5226e-20)
(1.19576 1.0012 -2.48568e-20)
(1.13714 0.970569 -5.31273e-20)
(1.06281 0.932841 2.72267e-20)
(0.987455 0.891289 -1.84249e-20)
(0.904767 0.845438 -5.70202e-19)
(0.81673 0.791415 -1.06029e-18)
(0.733095 0.728405 6.77242e-20)
(0.668783 0.663262 0)
(0.621795 0.599096 0)
(0.565765 0.520013 -2.94651e-19)
(0.491663 0.404213 -1.09389e-18)
(0.379121 0.281186 8.56947e-19)
(0.257145 0.153766 4.9996e-19)
(0.151957 0.0590536 0)
(0.0676732 5.31157e-05 1.02708e-18)
(-0.00333619 -0.0221928 -6.07206e-19)
(0.418356 0.357995 -1.29053e-19)
(0.935563 0.772992 1.13442e-19)
(1.15904 0.979214 -1.3851e-19)
(1.20842 1.02683 -1.18672e-19)
(1.18207 1.03109 -2.45103e-20)
(1.12327 0.999858 -1.68628e-20)
(1.04889 0.961214 0)
(0.973316 0.918717 -5.38966e-19)
(0.889701 0.872198 6.82632e-20)
(0.799348 0.817677 0)
(0.711729 0.754774 0)
(0.642207 0.689299 1.10722e-19)
(0.586762 0.615681 1.48585e-19)
(0.538496 0.523191 -3.19256e-19)
(0.459948 0.411409 7.84699e-19)
(0.355042 0.259418 -9.34597e-19)
(0.246938 0.127865 -1.0755e-18)
(0.181397 0.052576 9.5334e-19)
(0.14435 0.060217 -3.64905e-19)
(0.107526 0.0720746 2.12282e-19)
(0.417354 0.369864 1.5889e-19)
(0.929577 0.798313 0)
(1.14826 1.00859 0)
(1.19546 1.05635 -3.35984e-20)
(1.16857 1.05947 2.71974e-20)
(1.10976 1.02706 -1.93431e-20)
(1.0355 0.987745 1.27389e-19)
(0.95966 0.944724 5.5178e-19)
(0.875172 0.897743 1.03662e-18)
(0.783473 0.842935 -8.05786e-20)
(0.693409 0.779197 1.67277e-19)
(0.619201 0.710474 -9.94453e-19)
(0.561253 0.637104 -9.94401e-19)
(0.493672 0.540573 -1.72086e-19)
(0.414996 0.392016 0)
(0.323557 0.244226 -3.47423e-21)
(0.234035 0.0515862 5.94851e-19)
(0.234894 -0.0545049 -9.96978e-19)
(0.203769 -0.119926 7.57208e-19)
(0.0887891 -0.102784 6.26458e-19)
(0.415886 0.381512 -3.49811e-19)
(0.921212 0.818362 -1.568e-19)
(1.13636 1.03208 6.84054e-21)
(1.18289 1.08186 6.41461e-20)
(1.15584 1.08574 0)
(1.0969 1.05307 -3.73996e-20)
(1.02264 1.01325 -1.86036e-19)
(0.946636 0.969657 -2.14142e-21)
(0.861335 0.92243 -5.43218e-19)
(0.767376 0.86766 -7.92595e-20)
(0.673314 0.805154 7.36213e-20)
(0.593218 0.738279 8.73963e-19)
(0.522616 0.656653 9.696e-19)
(0.459165 0.543497 1.68504e-19)
(0.373432 0.406271 8.56766e-19)
(0.264751 0.207026 0)
(0.139503 0.0259263 0)
(-0.0186355 0.161802 6.78397e-19)
(-0.0785541 0.628725 -2.60978e-20)
(0.0106831 1.54852 -8.45521e-19)
(0.414975 0.392366 1.92598e-19)
(0.91588 0.841322 4.44255e-19)
(1.12635 1.05858 -6.17239e-19)
(1.17073 1.10841 3.17049e-19)
(1.14312 1.11131 -1.27051e-20)
(1.08415 1.07778 1.31973e-20)
(1.01003 1.03769 0)
(0.933776 0.994198 -4.59589e-19)
(0.847583 0.947219 0)
(0.752306 0.892981 1.11341e-18)
(0.655675 0.831015 -9.0711e-20)
(0.570068 0.762372 1.01718e-19)
(0.496435 0.684133 1.12217e-18)
(0.403525 0.574794 -3.6607e-19)
(0.28574 0.386215 -4.34259e-19)
(0.175992 0.253505 0)
(0.0698504 0.440887 0)
(0.0234959 1.37385 0)
(0.0708648 2.47811 -3.84651e-19)
(0.0960702 2.9179 -2.38077e-19)
(0.413272 0.402779 0)
(0.908148 0.858944 0)
(1.11521 1.07912 2.24342e-19)
(1.159 1.131 -2.58382e-19)
(1.13124 1.13497 1.22623e-19)
(1.07211 1.10164 -3.25008e-21)
(0.997961 1.06159 2.47288e-20)
(0.921496 1.01803 -1.92529e-20)
(0.834593 0.97144 7.76305e-20)
(0.737153 0.91813 -1.27798e-18)
(0.63626 0.858605 1.6416e-19)
(0.544586 0.794933 8.83991e-19)
(0.453473 0.711869 -1.11737e-18)
(0.363678 0.579633 -1.2367e-18)
(0.260538 0.441282 4.14683e-19)
(0.175412 0.597888 0)
(0.109663 1.60237 5.58492e-19)
(0.115595 2.70472 5.97796e-19)
(0.122945 3.09171 -6.67497e-19)
(0.11593 3.22398 7.07853e-19)
(0.412163 0.412933 0)
(0.903382 0.879625 3.8617e-19)
(1.10601 1.10307 -5.61588e-20)
(1.14777 1.15495 3.54243e-19)
(1.11942 1.15807 -1.28713e-19)
(1.06026 1.12414 0)
(0.98626 1.08411 0)
(0.909621 1.04118 0)
(0.821959 0.995532 4.33501e-19)
(0.723507 0.943668 5.86571e-20)
(0.62046 0.886065 0)
(0.523268 0.821951 -8.7831e-19)
(0.433896 0.745307 0)
(0.305675 0.62296 8.84452e-19)
(0.196134 0.668561 -6.01667e-19)
(0.140097 1.46996 -4.80333e-19)
(0.145625 2.69095 -1.09505e-18)
(0.169555 3.12584 -5.7417e-19)
(0.160223 3.26444 -7.67218e-19)
(0.147697 3.30459 5.47784e-19)
(0.41042 0.422058 -1.34026e-19)
(0.896147 0.894825 1.45077e-20)
(1.09561 1.12083 -6.21008e-20)
(1.13698 1.17484 -2.75046e-19)
(1.10848 1.17932 0)
(1.04919 1.14598 0)
(0.975125 1.10641 0)
(0.898281 1.06379 3.2741e-20)
(0.81013 1.01905 -5.48448e-19)
(0.709829 0.968915 0)
(0.602819 0.914705 0)
(0.501643 0.858014 0)
(0.387845 0.77402 0)
(0.308637 0.716083 6.52932e-19)
(0.261752 1.12793 1.59609e-18)
(0.233775 2.40858 4.65841e-19)
(0.252538 3.08076 9.28303e-19)
(0.247014 3.27664 -7.10706e-19)
(0.199278 3.34185 2.58532e-19)
(0.168002 3.35528 0)
(0.409186 0.431058 1.37533e-19)
(0.891779 0.913974 -8.52655e-19)
(1.08703 1.1432 -2.30422e-19)
(1.12643 1.19712 -5.13068e-20)
(1.09734 1.2008 2.97741e-20)
(1.03804 1.16699 -1.2323e-19)
(0.964166 1.12761 4.83898e-23)
(0.887311 1.08602 -3.56305e-19)
(0.798617 1.04276 0)
(0.69777 0.994862 -7.5782e-20)
(0.589763 0.943905 6.89414e-20)
(0.483915 0.886412 0)
(0.385229 0.817699 0)
(0.319986 0.91186 -8.18575e-19)
(0.262526 1.85116 1.04471e-19)
(0.259382 2.9455 -3.512e-19)
(0.285411 3.27912 7.3451e-19)
(0.256342 3.37727 5.224e-19)
(0.192567 3.40202 -7.04532e-19)
(0.168363 3.41248 3.46538e-19)
(0.407006 0.440318 2.68858e-19)
(0.883928 0.928402 8.28215e-19)
(1.07614 1.16014 2.77478e-19)
(1.11544 1.21645 0)
(1.08631 1.2218 0)
(1.02696 1.18879 9.53737e-20)
(0.953135 1.15008 4.89809e-20)
(0.876225 1.1089 3.17037e-19)
(0.787412 1.06673 2.11622e-20)
(0.685289 1.02103 9.64418e-19)
(0.574381 0.973751 -1.1551e-18)
(0.461176 0.919986 0)
(0.380076 0.893265 0)
(0.332414 1.29476 -5.59825e-19)
(0.325302 2.49939 -6.70416e-19)
(0.371445 3.19207 0)
(0.396906 3.35871 -7.42525e-19)
(0.325824 3.42183 5.16314e-20)
(0.258148 3.4679 3.38173e-19)
(0.236255 3.49349 -1.09201e-19)
(0.405148 0.449894 -5.10579e-19)
(0.878984 0.949605 -3.96974e-19)
(1.06651 1.18494 0)
(1.10368 1.24065 0)
(1.07398 1.24475 0)
(1.01479 1.21092 0)
(0.94143 1.17217 -5.98694e-20)
(0.864904 1.13206 2.76019e-19)
(0.775949 1.09154 0)
(0.674079 1.04841 -8.77577e-19)
(0.56392 1.00502 2.07475e-18)
(0.453141 0.959878 8.52995e-20)
(0.39739 1.01925 1.15519e-19)
(0.383455 1.73651 9.12214e-19)
(0.393471 2.90146 -4.90638e-19)
(0.434685 3.31016 0)
(0.417485 3.43095 2.093e-19)
(0.331557 3.52051 9.08946e-20)
(0.258684 3.58525 1.48348e-19)
(0.183114 3.56467 -1.68314e-20)
(0.402073 0.460019 2.42451e-19)
(0.869126 0.964895 -4.02735e-19)
(1.05355 1.20278 0)
(1.09097 1.26119 -7.49737e-20)
(1.06144 1.26727 2.59258e-19)
(1.00241 1.23429 0)
(0.929346 1.19621 0)
(0.853039 1.15629 -4.78738e-19)
(0.764503 1.11667 -5.5855e-20)
(0.662278 1.07578 8.62647e-19)
(0.548299 1.03523 -9.8584e-19)
(0.452248 1.00907 5.82872e-19)
(0.411195 1.20554 0)
(0.418965 2.18491 -4.8416e-19)
(0.46056 3.14038 3.1706e-19)