/*--------------------------------*- C++ -*----------------------------------*\
| =========                 |                                                 |
| \\      /  F ield         | OpenFOAM: The Open Source CFD Toolbox           |
|  \\    /   O peration     | Version:  4.0                                   |
|   \\  /    A nd           | Web:      www.OpenFOAM.org                      |
|    \\/     M anipulation  |                                                 |
\*---------------------------------------------------------------------------*/
FoamFile
{
    version     2.0;
    format      ascii;
    class       volVectorField;
    location    "33";
    object      U;
}
// * * * * * * * * * * * * * * * * * * * * * * * * * * * * * * * * * * * * * //

dimensions      [0 1 -1 0 0 0 0];

internalField   nonuniform List<vector> 
8800
(
(0.980156 -0.0915211 0)
(1.00234 -0.058722 0)
(0.999611 -0.0321229 0)
(0.999998 -0.0165134 0)
(1.00005 -0.00882671 0)
(1.00002 -0.0050754 0)
(0.999991 -0.00298138 0)
(0.999977 -0.00169343 0)
(0.999973 -0.000812247 0)
(1.00006 -0.000123833 0)
(0.999982 0.000575421 0)
(1 0.00133159 0)
(1.00001 0.00236573 0)
(1.00002 0.003977 0)
(1.00004 0.00672598 0)
(1.00003 0.0120339 0)
(0.999862 0.0230874 0)
(0.999064 0.0431542 0)
(1.00723 0.0790276 0)
(0.775024 0.0478396 0)
(0.358976 -0.0147491 0)
(1.04649 -0.0724944 0)
(1.08849 -0.0660312 0)
(1.04946 -0.0509238 0)
(1.02553 -0.0377013 0)
(1.01267 -0.0258884 0)
(1.00649 -0.0167003 0)
(1.00355 -0.0102479 0)
(1.00213 -0.00565481 0)
(1.00148 -0.00208297 0)
(1.00136 0.00110771 0)
(1.00173 0.0044147 0)
(1.00271 0.00831449 0)
(1.00473 0.013641 0)
(1.00897 0.0213321 0)
(1.01797 0.0318346 0)
(1.03585 0.0446234 0)
(1.06748 0.0580819 0)
(1.09473 0.0699581 0)
(0.845682 0.0555001 0)
(0.217755 -0.00138165 0)
(1.07567 -0.0506685 0)
(1.09942 -0.0489561 0)
(1.06438 -0.0400413 0)
(1.03984 -0.0325813 0)
(1.02371 -0.0253745 0)
(1.01393 -0.0181885 0)
(1.00844 -0.0116091 0)
(1.0056 -0.0058854 0)
(1.00444 -0.000629494 0)
(1.00478 0.00445111 0)
(1.00664 0.00973443 0)
(1.01057 0.0157354 0)
(1.01788 0.022523 0)
(1.03051 0.0296427 0)
(1.05053 0.036743 0)
(1.08012 0.0445381 0)
(1.10575 0.0518807 0)
(0.943394 0.0409828 0)
(0.217272 0.00140162 0)
(0.176598 -0.000629197 0)
(1.01935 -0.0354794 0)
(1.10569 -0.0414339 0)
(1.07794 -0.0364241 0)
(1.05236 -0.0303827 0)
(1.0351 -0.0245137 0)
(1.02326 -0.0187655 0)
(1.01546 -0.0128315 0)
(1.01087 -0.00678504 0)
(1.00886 -0.000585236 0)
(1.00942 0.00554745 0)
(1.01253 0.0114471 0)
(1.01849 0.0172309 0)
(1.02808 0.0228384 0)
(1.0423 0.0284195 0)
(1.06313 0.0342227 0)
(1.09396 0.0401305 0)
(1.09459 0.0416875 0)
(0.830485 0.022736 0)
(0.175775 0.000645182 0)
(0.154673 -0.000463053 0)
(0.958082 -0.025704 0)
(1.10436 -0.0351439 0)
(1.08803 -0.0327029 0)
(1.06113 -0.0281986 0)
(1.04305 -0.0232602 0)
(1.03069 -0.0180263 0)
(1.02211 -0.0125521 0)
(1.01659 -0.00669525 0)
(1.01397 -0.000307126 0)
(1.01466 0.00609622 0)
(1.01848 0.0119443 0)
(1.02526 0.0172829 0)
(1.0354 0.0223317 0)
(1.05019 0.0271908 0)
(1.07214 0.031661 0)
(1.10117 0.0355744 0)
(1.06999 0.0338315 0)
(0.743071 0.014393 0)
(0.153444 0.000481135 0)
(0.139978 -0.000334689 0)
(0.901021 -0.0193286 0)
(1.0967 -0.0302384 0)
(1.09609 -0.0293836 0)
(1.06876 -0.0256294 0)
(1.04991 -0.0215844 0)
(1.03698 -0.0169692 0)
(1.02801 -0.0118015 0)
(1.0221 -0.00616102 0)
(1.01915 0.000116708 0)
(1.01983 0.00643484 0)
(1.0239 0.0120457 0)
(1.03095 0.0170419 0)
(1.04147 0.0215674 0)
(1.05688 0.0255647 0)
(1.07969 0.0291065 0)
(1.10355 0.0318466 0)
(1.03845 0.0279197 0)
(0.676626 0.0102199 0)
(0.138252 0.000356153 0)
(0.129239 -0.000252925 0)
(0.851136 -0.0149132 0)
(1.0843 -0.0261123 0)
(1.10171 -0.0264657 0)
(1.0755 -0.0231484 0)
(1.05613 -0.0195434 0)
(1.04277 -0.0154837 0)
(1.03343 -0.0107567 0)
(1.02725 -0.00537931 0)
(1.02412 0.000668243 0)
(1.02471 0.00672509 0)
(1.02881 0.012034 0)
(1.03603 0.0165858 0)
(1.04686 0.0204714 0)
(1.0627 0.0238656 0)
(1.08596 0.0269666 0)
(1.10295 0.028852 0)
(1.0042 0.0232823 0)
(0.625114 0.00778343 0)
(0.126908 0.000279119 0)
(0.121065 -0.000193987 0)
(0.80868 -0.0116971 0)
(1.06892 -0.0224734 0)
(1.10513 -0.0238234 0)
(1.08163 -0.021012 0)
(1.06178 -0.0176757 0)
(1.04813 -0.0139039 0)
(1.03853 -0.00949698 0)
(1.03208 -0.00443017 0)
(1.02873 0.00132555 0)
(1.0292 0.00706513 0)
(1.03331 0.0119912 0)
(1.04064 0.0160912 0)
(1.05161 0.0195443 0)
(1.06774 0.02256 0)
(1.09142 0.0253269 0)
(1.09956 0.0262932 0)
(0.969753 0.0195762 0)
(0.584097 0.00617148 0)
(0.117998 0.000225906 0)
(0.114752 -0.000148739 0)
(0.773011 -0.00926757 0)
(1.05204 -0.0192205 0)
(1.1073 -0.0212771 0)
(1.08729 -0.0188463 0)
(1.06706 -0.0157053 0)
(1.05317 -0.0121632 0)
(1.04337 -0.00804033 0)
(1.0367 -0.00330273 0)
(1.03312 0.00212683 0)
(1.03343 0.00750779 0)
(1.03747 0.0119944 0)
(1.04478 0.0156322 0)
(1.05581 0.0186729 0)
(1.07218 0.0213326 0)
(1.09559 0.0237937 0)
(1.09351 0.0240278 0)
(0.936594 0.0166305 0)
(0.550652 0.00503616 0)
(0.110791 0.000187732 0)
(0.109856 -0.000113544 0)
(0.743238 -0.00736073 0)
(1.03476 -0.0163045 0)
(1.10857 -0.0188878 0)
(1.09266 -0.0167833 0)
(1.07206 -0.0137729 0)
(1.05787 -0.010379 0)
(1.04791 -0.00644886 0)
(1.04105 -0.00195924 0)
(1.03722 0.00310711 0)
(1.03732 0.00804373 0)
(1.0412 0.012105 0)
(1.04841 0.0153493 0)
(1.05948 0.0180216 0)
(1.07617 0.0203762 0)
(1.09866 0.0225085 0)
(1.08528 0.0220293 0)
(0.905403 0.0142799 0)
(0.522808 0.00420776 0)
(0.10481 0.00016057 0)
(0.106093 -8.4225e-05 0)
(0.718613 -0.00579176 0)
(1.01791 -0.0136167 0)
(1.10885 -0.0165241 0)
(1.09778 -0.0148073 0)
(1.0769 -0.0119233 0)
(1.06242 -0.0086065 0)
(1.05226 -0.00478199 0)
(1.04519 -0.000488508 0)
(1.04111 0.00427097 0)
(1.04092 0.00881571 0)
(1.04457 0.0124531 0)
(1.05165 0.0152942 0)
(1.06274 0.0176392 0)
(1.07963 0.0197269 0)
(1.10036 0.0214175 0)
(1.07526 0.020256 0)
(0.876449 0.0124038 0)
(0.4992 0.00359231 0)
(0.0997208 0.000142081 0)
(0.103286 -5.82031e-05 0)
(0.698588 -0.004439 0)
(1.00226 -0.0110884 0)
(1.1084 -0.0140596 0)
(1.10255 -0.0125588 0)
(1.08159 -0.00972096 0)
(1.0668 -0.00650729 0)
(1.05635 -0.00285043 0)
(1.04898 0.00122824 0)
(1.04457 0.00568925 0)
(1.04403 0.00982968 0)
(1.04743 0.0130244 0)
(1.0544 0.015439 0)
(1.06549 0.0173676 0)
(1.08255 0.0190663 0)
(1.10106 0.0203948 0)
(1.06393 0.0186314 0)
(0.849824 0.0108843 0)
(0.478888 0.00312392 0)
(0.0952952 0.000128731 0)
(0.10132 -3.42352e-05 0)
(0.682781 -0.00321721 0)
(0.988325 -0.00866913 0)
(1.10754 -0.0115282 0)
(1.10709 -0.010185 0)
(1.08617 -0.00740609 0)
(1.071 -0.00426094 0)
(1.06029 -0.000695491 0)
(1.05263 0.00323385 0)
(1.04781 0.00740525 0)
(1.04684 0.0111203 0)
(1.04987 0.0138434 0)
(1.05661 0.0157768 0)
(1.06774 0.0172736 0)
(1.08502 0.0185977 0)
(1.10089 0.0195485 0)
(1.05167 0.017226 0)
(0.825396 0.00965752 0)
(0.461152 0.00277145 0)
(0.0913476 0.00012147 0)
(0.100148 -1.01263e-05 0)
(0.671012 -0.00204525 0)
(0.976492 -0.00623388 0)
(1.10637 -0.00883741 0)
(1.11129 -0.007725 0)
(1.0907 -0.00505579 0)
(1.07522 -0.00183959 0)
(1.0642 0.00177146 0)
(1.05614 0.00559456 0)
(1.0508 0.00949971 0)
(1.04932 0.0128043 0)
(1.05197 0.0150546 0)
(1.05844 0.0165828 0)
(1.06947 0.0177286 0)
(1.08672 0.0186313 0)
(1.09962 0.0189935 0)
(1.03858 0.0160007 0)
(0.803 0.00866299 0)
(0.445472 0.00251201 0)
(0.0877365 0.000119078 0)
(0.0997629 9.83992e-06 0)
(0.663159 -0.000903589 0)
(0.967243 -0.00378624 0)
(1.10525 -0.0058423 0)
(1.1152 -0.0047359 0)
(1.09525 -0.00207154 0)
(1.07944 0.0011467 0)
(1.06798 0.00467003 0)
(1.05943 0.00837863 0)
(1.05352 0.0120686 0)
(1.05135 0.0149757 0)
(1.05341 0.0166608 0)
(1.05959 0.017558 0)
(1.07053 0.018044 0)
(1.0877 0.0184907 0)
(1.09706 0.0183412 0)
(1.02497 0.0148801 0)
(0.78253 0.00787204 0)
(0.43142 0.0023225 0)
(0.0843508 0.000118641 0)
(0.100187 5.16124e-05 0)
(0.659259 0.000264192 0)
(0.960922 -0.00124096 0)
(1.10483 -0.002635 0)
(1.11922 -0.00141991 0)
(1.09975 0.00127297 0)
(1.08355 0.004512 0)
(1.07167 0.00805318 0)
(1.06255 0.0117303 0)
(1.05585 0.0152139 0)
(1.05289 0.0176841 0)
(1.05432 0.0188396 0)
(1.05998 0.019132 0)
(1.07075 0.0190432 0)
(1.08767 0.0188953 0)
(1.0934 0.018176 0)
(1.01108 0.0141411 0)
(0.76363 0.00731178 0)
(0.41859 0.00221512 0)
(0.0810834 0.000122983 0)
(0.101573 7.30578e-05 0)
(0.659448 0.0014659 0)
(0.957638 0.00135506 0)
(1.10511 0.00070689 0)
(1.12334 0.0019285 0)
(1.10441 0.00467595 0)
(1.08788 0.00814487 0)
(1.07558 0.0119087 0)
(1.06586 0.0157092 0)
(1.05827 0.0190823 0)
(1.05427 0.0211491 0)
(1.05476 0.0217512 0)
(1.05978 0.0214611 0)
(1.07018 0.0207967 0)
(1.08669 0.0199414 0)
(1.08839 0.0184821 0)
(0.996517 0.0137046 0)
(0.745901 0.00702656 0)
(0.406531 0.00219286 0)
(0.0778552 0.000125484 0)
(0.103915 0.000115967 0)
(0.663516 0.00269977 0)
(0.957819 0.00404007 0)
(1.10641 0.00437788 0)
(1.12754 0.0058352 0)
(1.10929 0.00882204 0)
(1.09245 0.0126249 0)
(1.0795 0.0166911 0)
(1.06883 0.0206116 0)
(1.06004 0.0238573 0)
(1.05484 0.025476 0)
(1.05435 0.0254185 0)
(1.05867 0.0244312 0)
(1.06853 0.0231089 0)
(1.08441 0.0216597 0)
(1.08162 0.0192247 0)
(0.981434 0.0138846 0)
(0.728773 0.00720753 0)
(0.394529 0.00232197 0)
(0.0745475 0.000131621 0)
(0.107358 0.000164215 0)
(0.67169 0.00392637 0)
(0.961502 0.00660297 0)
(1.10957 0.00823069 0)
(1.13244 0.0103445 0)
(1.11478 0.013847 0)
(1.09758 0.0180655 0)
(1.08387 0.0224509 0)
(1.07214 0.0265674 0)
(1.06197 0.0297224 0)
(1.05518 0.0308503 0)
(1.05341 0.0301031 0)
(1.05674 0.0283264 0)
(1.06599 0.0262495 0)
(1.0808 0.0240779 0)
(1.07353 0.0208989 0)
(0.965695 0.0149743 0)
(0.711269 0.00796221 0)
(0.381623 0.00263229 0)
(0.0709372 0.000146284 0)
(0.111975 0.000219386 0)
(0.683815 0.00528392 0)
(0.968984 0.00938092 0)
(1.11513 0.0122477 0)
(1.13866 0.0151776 0)
(1.12105 0.019421 0)
(1.10318 0.0242386 0)
(1.08849 0.0291812 0)
(1.07538 0.0337258 0)
(1.06341 0.0369439 0)
(1.05479 0.0376365 0)
(1.05153 0.0361475 0)
(1.05375 0.0335184 0)
(1.06232 0.0306436 0)
(1.07587 0.0277428 0)
(1.06406 0.0237376 0)
(0.948637 0.0169486 0)
(0.692221 0.00921833 0)
(0.366863 0.00308809 0)
(0.0667738 0.000169064 0)
(0.118005 0.000293857 0)
(0.700278 0.00700296 0)
(0.980508 0.0127622 0)
(1.12311 0.0169336 0)
(1.14634 0.0206379 0)
(1.12845 0.0257268 0)
(1.10975 0.0314804 0)
(1.09385 0.037335 0)
(1.07903 0.0425102 0)
(1.06483 0.0458468 0)
(1.05398 0.0460693 0)
(1.04886 0.0437311 0)
(1.04974 0.0402194 0)
(1.05751 0.0365405 0)
(1.06955 0.0327812 0)
(1.05266 0.0276226 0)
(0.929482 0.0197271 0)
(0.670483 0.0108967 0)
(0.3495 0.00365904 0)
(0.0618808 0.000199428 0)
(0.125939 0.000401978 0)
(0.721964 0.00935017 0)
(0.99666 0.0171222 0)
(1.13392 0.0228836 0)
(1.15569 0.0276597 0)
(1.13739 0.0339471 0)
(1.11767 0.0409364 0)
(1.10008 0.0478359 0)
(1.08294 0.0535804 0)
(1.06596 0.0568099 0)
(1.05245 0.0562475 0)
(1.04525 0.0528768 0)
(1.04459 0.0483201 0)
(1.05138 0.0435756 0)
(1.06145 0.038853 0)
(1.03893 0.0323496 0)
(0.907681 0.023187 0)
(0.645074 0.0128387 0)
(0.329053 0.00427235 0)
(0.05615 0.000229212 0)
(0.136577 0.000569628 0)
(0.750211 0.0127232 0)
(1.01867 0.0229849 0)
(1.14871 0.0308386 0)
(1.16771 0.0374275 0)
(1.14837 0.0453279 0)
(1.12707 0.0537127 0)
(1.10704 0.0615469 0)
(1.08685 0.0675454 0)
(1.06649 0.0701873 0)
(1.04989 0.0682836 0)
(1.04043 0.0633396 0)
(1.03814 0.057465 0)
(1.0436 0.0517622 0)
(1.05148 0.0460259 0)
(1.02281 0.0382653 0)
(0.882278 0.027483 0)
(0.615062 0.0150367 0)
(0.305224 0.00494085 0)
(0.0495725 0.000258238 0)
(0.151174 0.000838226 0)
(0.787001 0.0177177 0)
(1.04815 0.0310714 0)
(1.16887 0.0414201 0)
(1.18359 0.050494 0)
(1.16182 0.0603693 0)
(1.13788 0.0702561 0)
(1.11442 0.0788155 0)
(1.09042 0.08474 0)
(1.06606 0.0864335 0)
(1.0459 0.0828675 0)
(1.03394 0.0760552 0)
(1.03013 0.0683808 0)
(1.03447 0.0613382 0)
(1.03991 0.0547597 0)
(1.00378 0.0458195 0)
(0.85163 0.0325074 0)
(0.579779 0.0174846 0)
(0.277741 0.00565946 0)
(0.0421457 0.000283818 0)
(0.171841 0.00130128 0)
(0.835369 0.0254981 0)
(1.08709 0.0429241 0)
(1.19515 0.0561776 0)
(1.20387 0.0678865 0)
(1.17795 0.0798749 0)
(1.14983 0.0910091 0)
(1.12192 0.0999819 0)
(1.09337 0.105516 0)
(1.06449 0.106036 0)
(1.04045 0.100829 0)
(1.0257 0.0923152 0)
(1.02011 0.0829619 0)
(1.02359 0.0743464 0)
(1.02629 0.0663219 0)
(0.979635 0.0549095 0)
(0.81431 0.0380844 0)
(0.538983 0.0202479 0)
(0.246459 0.00642034 0)
(0.0339388 0.000303111 0)
(0.201858 0.00233647 0)
(0.900894 0.0388426 0)
(1.13811 0.062383 0)
(1.22722 0.0785338 0)
(1.22796 0.0926822 0)
(1.19591 0.105878 0)
(1.16232 0.117332 0)
(1.12913 0.12595 0)
(1.09547 0.130455 0)
(1.06174 0.129334 0)
(1.0337 0.122273 0)
(1.01601 0.112117 0)
(1.00832 0.101277 0)
(1.01019 0.0908927 0)
(1.0081 0.0800832 0)
(0.947624 0.0646791 0)
(0.770148 0.0441784 0)
(0.492779 0.0234432 0)
(0.211905 0.00725057 0)
(0.0252805 0.000312516 0)
(0.242768 0.0086113 1.19834e-19)
(0.987743 0.0658461 1.03271e-19)
(1.19898 0.095679 -3.52681e-20)
(1.26235 0.112674 0)
(1.25248 0.128812 -8.1182e-34)
(1.21349 0.141187 1.16404e-20)
(1.17414 0.151447 -1.96377e-20)
(1.13531 0.158545 0)
(1.09618 0.161158 3.74157e-34)
(1.05726 0.157805 -2.15788e-20)
(1.02486 0.148507 0)
(1.00377 0.136493 -2.4405e-20)
(0.993127 0.123946 -7.11772e-20)
(0.991121 0.111267 -3.3354e-20)
(0.980709 0.0969713 -9.91172e-21)
(0.905617 0.0779806 -5.85125e-21)
(0.715659 0.0535803 0)
(0.437521 0.0284596 4.08807e-21)
(0.174667 0.00929297 4.8301e-21)
(0.0172842 0.000674199 8.7118e-20)
(0.270405 0.0242208 1.06052e-19)
(1.05843 0.108361 5.13828e-22)
(1.24753 0.143679 1.02393e-20)
(1.2933 0.160807 0)
(1.27341 0.175631 -4.38639e-20)
(1.22872 0.185914 -4.81461e-20)
(1.18403 0.19434 -2.04728e-20)
(1.13958 0.199557 -6.86264e-20)
(1.09471 0.200069 0)
(1.0499 0.19423 9.23872e-20)
(1.012 0.182179 8.93463e-20)
(0.985885 0.167427 2.60731e-20)
(0.969755 0.152035 9.27805e-20)
(0.959261 0.135923 1.28196e-19)
(0.936386 0.118178 0)
(0.850582 0.0966504 1.7878e-19)
(0.654351 0.0676957 2.56273e-19)
(0.382676 0.0369356 2.84641e-19)
(0.143024 0.0129159 -3.25202e-19)
(0.011102 0.000993897 -6.1235e-21)
(0.269921 0.0394921 0)
(1.10153 0.16382 2.28483e-20)
(1.2793 0.203136 0)
(1.3161 0.219998 -6.90492e-20)
(1.28921 0.23115 0)
(1.24027 0.237925 -9.9525e-20)
(1.19084 0.24307 4.29396e-20)
(1.14107 0.24515 -1.42719e-19)
(1.09067 0.242368 -1.57217e-21)
(1.04008 0.232851 4.86544e-20)
(0.996603 0.217024 1.94609e-19)
(0.965241 0.198876 -3.11406e-22)
(0.943428 0.180637 -6.70388e-20)
(0.925973 0.162553 -1.19957e-19)
(0.896745 0.14382 1.41344e-19)
(0.811078 0.120614 -2.49713e-19)
(0.621794 0.086515 -3.28338e-20)
(0.36508 0.0492269 0)
(0.141142 0.0186922 1.76167e-23)
(0.011729 0.00165526 0)
(0.262848 0.0529403 4.07852e-19)
(1.12358 0.222582 -1.82544e-19)
(1.29822 0.267486 -1.18812e-19)
(1.32993 0.284309 3.5495e-20)
(1.29859 0.291723 -5.81392e-20)
(1.24692 0.294567 2.11362e-19)
(1.19374 0.295755 9.09847e-20)
(1.13941 0.29388 0)
(1.08395 0.287026 -2.54754e-19)
(1.02791 0.273137 0)
(0.979136 0.25315 -1.03205e-19)
(0.942958 0.231757 -1.23052e-19)
(0.916447 0.211254 -7.2659e-20)
(0.894538 0.191864 -8.66687e-20)
(0.863009 0.172409 0)
(0.782407 0.147654 0)
(0.606132 0.109646 -2.14067e-19)
(0.368154 0.0661789 4.21615e-20)
(0.152095 0.0274098 -2.48474e-20)
(0.015554 0.00299488 -2.90482e-20)
(0.255313 0.0649649 -2.42753e-19)
(1.1325 0.281194 0)
(1.30805 0.332817 2.83636e-19)
(1.33626 0.350068 1.09559e-19)
(1.30193 0.354133 1.27741e-19)
(1.24848 0.353143 0)
(1.19242 0.350281 9.36669e-20)
(1.13433 0.344203 1.61095e-19)
(1.07451 0.332967 1.33437e-19)
(1.01359 0.314512 2.26896e-19)
(0.96009 0.290423 0)
(0.919871 0.266048 -2.64915e-19)
(0.889794 0.243717 -1.56606e-19)
(0.864941 0.223474 -9.18341e-20)
(0.832555 0.203474 5.53302e-19)
(0.75822 0.177516 6.57089e-20)
(0.597436 0.135742 3.08997e-19)
(0.376667 0.0859863 -1.45867e-18)
(0.166353 0.0384149 8.6661e-19)
(0.0204282 0.00498262 -1.0445e-18)
(0.248569 0.0759047 -2.16044e-19)
(1.1333 0.337769 4.70496e-20)
(1.31129 0.397216 -4.06759e-20)
(1.33687 0.415198 -1.43176e-19)
(1.30035 0.416316 -1.26743e-19)
(1.24558 0.411784 1.74637e-21)
(1.18723 0.405032 -1.00793e-19)
(1.12606 0.394814 1.69737e-19)
(1.06251 0.379246 -2.86527e-19)
(0.997394 0.356294 0)
(0.93984 0.328275 -1.2189e-19)
(0.896338 0.301143 -1.6026e-21)
(0.863659 0.277123 -1.69846e-19)
(0.836972 0.256038 0)
(0.804725 0.235485 -1.19287e-19)
(0.735539 0.208253 -2.8287e-19)
(0.589449 0.163363 7.548e-19)
(0.3841 0.107027 -7.42194e-19)
(0.178283 0.0503568 1.05547e-18)
(0.0246105 0.00724187 -1.09671e-18)
(0.243194 0.0861282 -4.0469e-22)
(1.1292 0.39169 -4.61027e-20)
(1.31002 0.459949 -1.63943e-19)
(1.33324 0.478529 7.2231e-20)
(1.29497 0.477075 -6.65832e-20)
(1.2391 0.469321 0)
(1.17887 0.458961 -1.01733e-19)
(1.1151 0.444836 -1.79768e-19)
(1.04838 0.425134 -1.51085e-19)
(0.979627 0.397886 0)
(0.918661 0.36607 -1.28134e-19)
(0.872506 0.336248 -1.53168e-19)
(0.837931 0.310514 1.83151e-19)
(0.810065 0.288376 -1.09253e-19)
(0.77818 0.267059 -5.16335e-19)
(0.713699 0.238411 3.06923e-19)
(0.579795 0.190716 9.16361e-20)
(0.386897 0.127815 0)
(0.185513 0.0619473 -1.0135e-18)
(0.027499 0.00942996 -3.71045e-20)
(0.239137 0.0959362 -2.77879e-20)
(1.12219 0.442826 4.66266e-20)
(1.30544 0.520485 8.638e-20)
(1.3265 0.539427 2.36379e-19)
(1.28672 0.535727 -2.73515e-19)
(1.2299 0.525092 2.45791e-19)
(1.16807 0.51144 2.18118e-19)
(1.10208 0.493706 -2.87809e-19)
(1.0326 0.470152 8.70106e-20)
(0.960662 0.438827 -5.56959e-19)
(0.896732 0.403319 -1.41504e-19)
(0.848441 0.370754 0)
(0.81245 0.343156 1.97388e-19)
(0.783864 0.319788 2.3336e-19)
(0.752501 0.297563 2.76838e-19)
(0.691758 0.267293 -3.30921e-19)
(0.56745 0.216872 -9.77874e-20)
(0.383998 0.147132 1.15219e-19)
(0.18679 0.0720153 0)
(0.0287307 0.0112095 -7.99181e-20)
(0.236219 0.105467 2.74702e-19)
(1.11371 0.491296 -1.88161e-19)
(1.29843 0.578161 -9.06264e-20)
(1.3175 0.597573 1.63219e-19)
(1.27638 0.59191 -1.4022e-19)
(1.21869 0.5787 -4.02303e-21)
(1.15548 0.562097 -2.35177e-19)
(1.08755 0.541092 -1.0328e-19)
(1.01562 0.513985 -2.60786e-19)
(0.940816 0.478823 2.40691e-22)
(0.874247 0.439692 -4.47278e-19)
(0.824137 0.404274 3.61104e-19)
(0.78711 0.374605 -2.14259e-19)
(0.758115 0.349758 2.53881e-19)
(0.727346 0.326151 0)
(0.669688 0.294112 -1.78071e-19)
(0.552239 0.240291 -8.01101e-22)
(0.375847 0.163262 -4.97429e-19)
(0.183483 0.0796267 -7.32639e-20)
(0.0285097 0.0123701 0)
(0.234275 0.114812 0)
(1.10451 0.537294 -1.97723e-19)
(1.28975 0.632933 -1.82539e-19)
(1.30688 0.652879 -1.69765e-19)
(1.26455 0.645447 -1.56171e-19)
(1.20606 0.629951 0)
(1.14164 0.61072 -1.17914e-19)
(1.07199 0.586785 -1.1712e-21)
(0.997833 0.556453 5.57912e-19)
(0.920387 0.517701 -7.783e-20)
(0.851365 0.475006 -3.21113e-19)
(0.799611 0.436615 1.89901e-19)
(0.761721 0.40461 -2.03837e-21)
(0.732498 0.377989 2.7035e-19)
(0.702267 0.352744 1.63518e-19)
(0.646816 0.318363 -3.83175e-19)
(0.534206 0.260338 4.53776e-19)
(0.362939 0.176145 1.33987e-19)
(0.175976 0.0846121 5.52464e-19)
(0.026937 0.0128246 -1.47953e-18)
(0.233214 0.1241 5.50272e-20)
(1.09515 0.580996 -9.77244e-20)
(1.28005 0.684854 8.54436e-20)
(1.29514 0.705348 1.73324e-19)
(1.25171 0.696285 0)
(1.19249 0.678754 -1.37269e-19)
(1.12698 0.657204 3.84465e-19)
(1.05579 0.630672 2.31168e-19)
(0.979587 0.597442 0)
(0.899625 0.555369 -1.10189e-18)
(0.828211 0.509191 8.63146e-19)
(0.774867 0.467706 0)
(0.736168 0.43314 2.47762e-19)
(0.706768 0.404417 -2.02114e-21)
(0.676964 0.377171 -5.224e-19)
(0.623021 0.339929 2.04541e-19)
(0.513607 0.276901 0)
(0.346308 0.185369 7.20505e-19)
(0.165146 0.0871229 0)
(0.0244855 0.0127002 -6.96727e-19)
(0.232853 0.133382 -5.54507e-20)
(1.08604 0.622501 -9.66303e-20)
(1.2695 0.733988 9.30182e-20)
(1.28266 0.754977 0)
(1.23825 0.74444 -1.65928e-19)
(1.17836 0.725104 0)
(1.11188 0.701507 -3.98664e-19)
(1.03928 0.672695 -1.16057e-19)
(0.96117 0.636902 1.02142e-19)
(0.87876 0.591795 -5.44233e-19)
(0.804913 0.542257 9.04068e-20)
(0.749887 0.497579 0)
(0.710335 0.460201 -5.29161e-19)
(0.680738 0.429077 2.06495e-21)
(0.651191 0.399472 0)
(0.598033 0.358829 2.23132e-21)
(0.490457 0.290037 6.55424e-19)
(0.326312 0.1909 -6.20496e-19)
(0.151839 0.0871859 1.82922e-19)
(0.0214543 0.0120334 0)
(0.232858 0.142525 0)
(1.07731 0.66197 -9.71393e-20)
(1.25846 0.780467 -9.00931e-20)
(1.26977 0.801816 -2.30093e-21)
(1.22446 0.789953 -8.17141e-20)
(1.16397 0.769021 -3.11243e-19)
(1.09663 0.743633 1.44555e-19)
(1.02274 0.71284 -1.29413e-19)
(0.942826 0.674805 4.45709e-19)
(0.857985 0.626985 -8.69797e-19)
(0.781582 0.574253 -3.42646e-21)
(0.7247 0.526319 -2.37286e-19)
(0.684154 0.485904 8.54208e-19)
(0.654282 0.452098 -2.42712e-21)
(0.624815 0.419755 -4.02338e-19)
(0.571808 0.375098 -7.16079e-19)
(0.465007 0.299783 0)
(0.303519 0.192924 0)
(0.136583 0.0848552 1.97118e-19)
(0.0180776 0.0108614 -1.15349e-19)
(0.233371 0.151636 -5.52114e-20)
(1.06902 0.699196 2.00436e-19)
(1.24722 0.824357 9.58395e-20)
(1.2567 0.84596 0)
(1.21058 0.832892 -1.55968e-21)
(1.14957 0.810548 -3.18962e-19)
(1.08146 0.783607 3.71873e-19)
(1.0064 0.75111 5.33224e-19)
(0.924763 0.711159 5.8685e-19)
(0.837491 0.660968 -7.15567e-19)
(0.758373 0.605274 -7.38275e-19)
(0.699379 0.554076 6.34179e-19)
(0.657617 0.510411 0)
(0.627314 0.473587 -1.83174e-19)
(0.59775 0.438069 -4.33678e-19)
(0.544309 0.388695 -5.12926e-19)
(0.437186 0.305941 -6.08134e-19)
(0.278457 0.191403 1.79763e-19)
(0.119814 0.0801541 -1.05841e-19)
(0.0143931 0.00922632 3.19942e-22)
(0.233956 0.16062 0)
(1.0613 0.734739 0)
(1.23593 0.865754 2.60488e-21)
(1.24364 0.887508 0)
(1.1968 0.873352 2.64664e-19)
(1.13534 0.849758 2.45515e-19)
(1.06655 0.821468 0)
(0.99043 0.78753 6.77154e-20)
(0.907162 0.745973 9.90351e-19)
(0.817464 0.693776 -1.64125e-18)
(0.735463 0.635425 0)
(0.674013 0.581026 -4.07059e-19)
(0.630677 0.533897 -2.95218e-21)
(0.599731 0.493673 -2.40805e-21)
(0.569885 0.454439 4.6333e-19)
(0.515517 0.39952 -3.97219e-22)
(0.407229 0.308474 -1.30651e-18)
(0.251263 0.186287 3.86183e-19)
(0.102351 0.0734928 1.14097e-19)
(0.010727 0.0073125 0)
(0.234525 0.169418 1.62997e-19)
(1.05387 0.768575 1.015e-19)
(1.22468 0.904716 1.93378e-19)
(1.23072 0.926562 -3.81823e-19)
(1.18326 0.911403 4.55077e-19)
(1.12141 0.886717 0)
(1.05205 0.857272 2.43305e-19)
(0.974973 0.822129 -1.47048e-19)
(0.890171 0.779272 3.86188e-21)
(0.798078 0.725449 1.18955e-19)
(0.712999 0.664798 9.57352e-19)
(0.648695 0.607354 -1.43589e-19)
(0.60335 0.556609 -5.24069e-19)
(0.571403 0.512506 -2.11952e-19)
(0.541071 0.468786 2.50766e-19)
(0.485439 0.407282 -2.37633e-22)
(0.375733 0.307149 3.5154e-19)
(0.222984 0.177795 -8.29437e-19)
(0.0848572 0.0652728 9.80484e-19)
(0.00721705 0.00523798 1.42989e-19)
(0.234928 0.177905 -5.38566e-20)
(1.04677 0.800796 5.15856e-20)
(1.21358 0.94136 6.11774e-21)
(1.21804 0.963237 -1.91742e-19)
(1.17005 0.947153 -9.04688e-20)
(1.1079 0.921501 -4.57479e-19)
(1.03807 0.891071 8.12742e-20)
(0.960136 0.854937 -6.21535e-19)
(0.873912 0.811059 -1.10942e-18)
(0.77946 0.755991 -9.86059e-19)
(0.691142 0.693468 0)
(0.623578 0.633243 -6.22809e-19)
(0.575663 0.578824 7.51316e-19)
(0.542152 0.530295 0)
(0.511002 0.480981 -5.36409e-19)
(0.454002 0.411472 3.19418e-19)
(0.343161 0.301512 -3.77135e-19)
(0.194775 0.166132 -4.45857e-19)
(0.0682711 0.0560323 -7.88949e-19)
(0.00407477 0.003175 -6.15043e-19)
(0.235619 0.186219 5.28482e-20)
(1.03984 0.831373 -5.5016e-20)
(1.2027 0.975764 -1.43005e-19)
(1.20569 0.997615 -2.46906e-19)
(1.15726 0.980691 1.96554e-19)
(1.09489 0.954198 -2.8256e-19)
(1.02467 0.922922 2.63294e-19)
(0.945999 0.885999 -6.52835e-19)
(0.858461 0.841362 -6.61232e-19)
(0.761726 0.785418 1.03996e-18)
(0.670054 0.72149 2.10458e-18)
(0.598838 0.658857 0)
(0.547693 0.60084 0)
(0.511756 0.547389 -2.43318e-19)
(0.479121 0.490953 0)
(0.420806 0.411249 6.86491e-19)
(0.310155 0.290568 8.10709e-19)
(0.16834 0.151212 0)
(0.0539418 0.0463694 0)
(0.00150051 0.00133751 6.6034e-19)
(0.235922 0.19405 -5.12686e-20)
(1.03313 0.860298 -4.41657e-20)
(1.19209 1.00804 -9.97605e-20)
(1.1937 1.02982 1.9891e-19)
(1.14494 1.01212 2.02447e-19)
(1.08241 0.984881 3.39731e-19)
(1.01191 0.952889 -3.70325e-19)
(0.932613 0.915348 1.55356e-22)
(0.843887 0.870187 -4.99493e-21)
(0.744969 0.813726 -5.61861e-21)
(0.649904 0.748895 1.08453e-18)
(0.57467 0.684314 0)
(0.519606 0.622971 7.54993e-19)
(0.480049 0.564281 5.18643e-19)
(0.444576 0.498935 1.24354e-18)
(0.384753 0.405631 3.68489e-19)
(0.277093 0.272118 -4.36537e-19)
(0.146906 0.131171 -2.56615e-19)
(0.0463302 0.0359338 0)
(0.000898106 0.000338362 7.08845e-19)
(0.236498 0.201858 9.76065e-20)
(1.02661 0.887668 0)
(1.18175 1.03825 -9.68028e-20)
(1.18212 1.05994 1.53927e-19)
(1.13313 1.04152 -2.04501e-19)
(1.0705 1.01364 -4.48667e-19)
(0.999823 0.98103 7.68343e-19)
(0.920007 0.943022 -4.9624e-20)
(0.830224 0.897547 0)
(0.729265 0.840888 -1.16302e-18)
(0.630834 0.775672 -2.36905e-18)
(0.551298 0.709697 9.26995e-20)
(0.491688 0.645483 1.03662e-18)
(0.447043 0.581596 0)
(0.406393 0.50573 8.3526e-19)
(0.343527 0.394362 0)
(0.241518 0.242557 0)
(0.133167 0.0955516 -2.77264e-19)
(0.0640721 0.0135191 0)
(0.0261229 0.0104857 1.89885e-19)
(0.236675 0.209035 9.40326e-20)
(1.02025 0.913836 0)
(1.17167 1.0666 -1.43883e-19)
(1.17089 1.08819 0)
(1.12179 1.06916 1.01383e-19)
(1.05911 1.04074 0)
(0.98834 1.00765 4.59569e-20)
(0.908084 0.969361 9.21677e-20)
(0.817358 0.923809 8.32841e-20)
(0.71446 0.867296 -1.28613e-18)
(0.612706 0.802254 7.2796e-20)
(0.528578 0.735582 7.36962e-19)
(0.463721 0.669015 1.00947e-18)
(0.412201 0.600319 1.33884e-19)
(0.362902 0.513106 6.50997e-19)
(0.292853 0.379441 0)
(0.191966 0.20158 9.16404e-19)
(0.0980052 0.0347802 -5.3711e-19)
(0.0448187 0.0447854 6.24842e-19)
(-0.0687513 0.423788 -7.39127e-19)
(0.236815 0.215978 -6.92458e-20)
(1.01382 0.938579 -1.31198e-19)
(1.16179 1.0934 0)
(1.1599 1.115 5.19458e-21)
(1.11074 1.0956 -2.55593e-19)
(1.04797 1.06688 7.65136e-19)
(0.977162 1.03356 2.94731e-19)
(0.896453 0.995301 0)
(0.804779 0.950059 5.76835e-19)
(0.699915 0.894244 -6.99115e-20)
(0.594646 0.8301 0)
(0.505405 0.763729 0)
(0.434326 0.695349 9.02091e-19)
(0.374039 0.622162 -4.09953e-19)
(0.311332 0.524147 -6.55682e-19)
(0.228131 0.366511 0)
(0.110438 0.186053 4.59817e-19)
(0.0085789 0.432133 -5.33986e-19)
(0.0376401 1.86161 -3.00073e-19)
(0.0681134 2.79604 -3.78832e-19)
(0.236785 0.222063 4.13617e-20)
(1.00751 0.962075 1.4862e-19)
(1.1521 1.11863 -7.39947e-20)
(1.14914 1.14023 -1.01911e-19)
(1.10002 1.12061 0)
(1.03714 1.09176 5.20375e-19)
(0.966471 1.05842 4.43662e-19)
(0.885289 1.02041 -4.72949e-20)
(0.792739 0.975778 8.51222e-20)
(0.685994 0.921117 1.24314e-18)
(0.577245 0.858522 1.21193e-18)
(0.482753 0.793688 8.29726e-19)
(0.40459 0.724149 9.05094e-19)
(0.334631 0.645713 -9.57249e-19)
(0.25769 0.541713 -9.85416e-19)
(0.151366 0.392786 0)
(0.054373 0.821069 0)
(0.110895 2.53115 2.59101e-19)
(0.112364 3.1889 0)
(0.115329 3.38323 6.37595e-19)
(0.239276 0.227614 0)
(1.00192 0.984485 0)
(1.1424 1.14217 0)
(1.13836 1.16365 -2.36425e-20)
(1.08933 1.14396 -2.19569e-19)
(1.02639 1.11524 3.65413e-19)
(0.95616 1.08215 3.01108e-19)
(0.874543 1.04459 -4.77462e-20)
(0.781202 1.00083 7.51429e-19)
(0.672726 0.947774 -9.98496e-21)
(0.560652 0.887404 2.41658e-18)
(0.460995 0.825274 -9.43903e-20)
(0.374994 0.756233 1.10865e-19)
(0.296268 0.668079 1.37281e-19)
(0.197055 0.56663 -9.56133e-22)
(0.115973 0.95361 1.75833e-21)
(0.153266 2.68266 -1.33347e-18)
(0.165265 3.28427 -5.1068e-19)
(0.151906 3.42531 2.75379e-19)
(0.136786 3.44884 -3.12405e-19)
(0.156804 0.183985 -1.59695e-20)
(0.990879 1.00863 0)
(1.13243 1.16422 1.16235e-19)
(1.12818 1.18575 2.30591e-19)
(1.07943 1.16642 -4.00391e-19)
(1.01663 1.13796 -3.76203e-19)
(0.946124 1.10484 -3.31527e-19)
(0.864315 1.06796 6.03686e-19)
(0.770341 1.02537 -6.32228e-19)
(0.660415 0.97433 0)
(0.545298 0.916881 1.20446e-18)
(0.440716 0.8583 -6.83287e-19)
(0.346096 0.794471 0)
(0.259677 0.692972 1.28987e-19)
(0.168086 0.813741 3.05941e-19)
(0.168824 2.4353 -3.65927e-19)
(0.233817 3.31914 4.15258e-19)
(0.210864 3.44178 2.31868e-19)
(0.175009 3.46429 2.65745e-19)
(0.151257 3.47499 4.4273e-19)
(0.282292 0.266027 3.70087e-20)
(0.975741 1.01827 0)
(1.11439 1.18903 -1.00555e-19)
(1.11372 1.21816 -2.07709e-19)
(1.06346 1.19946 3.71678e-19)
(1.00013 1.17149 3.47833e-19)
(0.92879 1.13979 4.25357e-19)
(0.846374 1.10406 4.62073e-20)
(0.751153 1.06354 6.38992e-19)
(0.63869 1.01617 1.13633e-18)
(0.518886 0.964765 7.09193e-20)
(0.406647 0.913587 6.19488e-19)
(0.295838 0.859039 1.06229e-19)
(0.225338 0.975645 -1.28971e-19)
(0.242858 2.2804 -2.9661e-19)
(0.30895 3.32309 3.04128e-19)
(0.293573 3.47536 -3.47764e-19)
(0.255771 3.49788 -2.03435e-19)
(0.216671 3.5258 -1.95773e-19)
(0.162744 3.51883 -2.2379e-20)
(0.27001 0.262689 0)
(0.97332 1.04062 -1.24418e-20)
(1.10655 1.21217 1.55232e-20)
(1.10404 1.24127 1.8808e-20)
(1.05348 1.22245 2.24937e-19)
(0.990215 1.19471 -3.28116e-19)
(0.918539 1.16318 -2.65209e-19)
(0.836014 1.12823 4.36941e-20)
(0.74046 1.08914 -6.86322e-19)
(0.627083 1.04449 -1.43834e-20)
(0.505242 0.997693 -2.25124e-18)
(0.389771 0.952533 8.77923e-20)
(0.283312 0.92536 -1.02103e-19)
(0.265717 1.45495 -1.2276e-19)
(0.345699 3.06963 1.78251e-20)
(0.371408 3.47208 8.82724e-22)
(0.329157 3.53426 5.81527e-19)
(0.290272 3.55874 3.11537e-19)
(0.239393 3.58287 -1.2922e-19)
(0.17739 3.5784 -1.29754e-19)
(0.253384 0.260814 -1.69734e-20)
(0.969263 1.06556 -6.92112e-20)
(1.09823 1.23737 4.26321e-20)
(1.09381 1.2658 7.18953e-20)
(1.04302 1.24677 0)
(0.979886 1.21905 -4.16315e-19)
(0.908167 1.18776 -3.68515e-19)
(0.825814 1.15355 4.10656e-20)
(0.730247 1.11597 -7.50477e-20)
(0.616461 1.07421 -1.09305e-18)
(0.493342 1.03228 -1.06961e-18)
(0.37645 0.994029 -7.46705e-19)
(0.286297 1.0489 -7.82798e-19)
(0.335326 2.12267 8.01685e-19)
(0.434728 3.37189 7.12677e-19)
(0.417696 3.53517 0)
(0.369181 3.58062 0)
(0.331133 3.62343 -1.09128e-19)
(0.274836 3.68635 0)
(0.18972 3.65968 -1.81796e-19)
(0.242223 0.262297 9.44972e-21)
(0.963214 1.09152 3.86766e-20)
(1.08849 1.26373 0)
(1.08227 1.29114 6.18044e-21)
(1.03137 1.27169 1.80092e-19)
(0.968475 1.24386 -5.72867e-19)
(0.897046 1.21281 -2.27514e-19)
(0.815069 1.17925 3.514e-20)
(0.719729 1.14307 -5.41644e-19)
(0.605918 1.10414 5.91863e-20)
(0.48231 1.06718 0)
(0.366489 1.0384 0)
(0.313145 1.27541 -7.41526e-19)