/*--------------------------------*- C++ -*----------------------------------*\
| =========                 |                                                 |
| \\      /  F ield         | OpenFOAM: The Open Source CFD Toolbox           |
|  \\    /   O peration     | Version:  4.0                                   |
|   \\  /    A nd           | Web:      www.OpenFOAM.org                      |
|    \\/     M anipulation  |                                                 |
\*---------------------------------------------------------------------------*/
FoamFile
{
    version     2.0;
    format      ascii;
    class       volScalarField;
    location    "4";
    object      T;
}
// * * * * * * * * * * * * * * * * * * * * * * * * * * * * * * * * * * * * * //

dimensions      [0 0 0 1 0 0 0];

internalField   nonuniform List<scalar> 
1000
(
0
0
0
0
0
0
0
0
0
0
0
0
0
0
0
0
0
0
0
0
0
0
0
0
0
0
0
0
0
0
0
0
0
0
0
0
0
0
0
0
0
0
0
0
0
0
0
0
0
0
0
0
0
0
0
0
0
0
0
0
0
0
0
0
0
0
0
0
0
0
0
0
0
0
0
0
0
0
0
0
0
0
0
0
0
0
0
0
0
0
0
0
0
0
0
0
0
0
0
0
0
0
0
0
0
0
0
0
0
0
0
0
0
0
0
0
0
0
0
0
0
0
0
0
0
0
0
0
0
0
0
0
0
0
0
0
0
0
0
0
0
0
0
0
0
0
0
0
0
0
0
0
0
0
0
0
0
0
0
0
0
0
0
0
0
0
0
0
0
0
0
0
0
0
0
0
0
0
0
0
0
0
0
0
0
0
0
0
0
0
0
0
0
0
0
0
0
0
0
0
0
0
0
0
0
0
0
0
0
0
0
0
0
0
0
0
0
0
0
0
0
0
0
0
0
0
0
0
0
0
0
0
0
0
0
0
0
0
0
0
0
0
0
0
0
0
0
0
0
0
0
0
0
0
0
0
0
0
0
0
0
0
0
0
0
0
0
0
0
0
0
0
0
0
0
0
0
0
0
0
0
0
0
0
0
0
0
0
0
0
0
0
0
0
0
0
0
0
0
0
0
0
0
0
0
0
0
0
0
0
0
0
0
0
0
0
0
0
0
0
0
0
0
0
0
0
0
0
0
0
0
0
0
0
0
0
0
0
0
0
0
0
0
0
0
0
0
0
0
0
0
0
0
0
0
0
0
0
0
0
0
0
0
0
0
0
0
0
0
0
0
0
0
0
0
0
0
0
0
0
0
0
0
0
0
0
0
0
0
0
0
0
0
0
0
0
0
0
0
0
0
0
0
0
0
0
0
0
0
0
0
0
0
0
0
0
0
0
0
0
0
0
0
0
0
0
0
0
0
0
0
0
0
0
0
0
0
0
0
0
0
0
0
0
0
0
0
0
0
0
1.33965e-141
3.58581e-139
4.80503e-137
4.29791e-135
2.88684e-133
1.55318e-131
6.97238e-130
2.68618e-128
9.06644e-127
2.72349e-125
7.37221e-124
1.81642e-122
4.10754e-121
8.58468e-120
1.66809e-118
3.0289e-117
5.16249e-116
8.29161e-115
1.2593e-113
1.81414e-112
2.48582e-111
3.24797e-110
4.05586e-109
4.85041e-108
5.56573e-107
6.13855e-106
6.51787e-105
6.67243e-104
6.59471e-103
6.30078e-102
5.82635e-101
5.22017e-100
4.53638e-99
3.82733e-98
3.13791e-97
2.50219e-96
1.94218e-95
1.46852e-94
1.08246e-93
7.78364e-93
5.46361e-92
3.74604e-91
2.51026e-90
1.645e-89
1.05474e-88
6.6204e-88
4.07e-87
2.45177e-86
1.4479e-85
8.38607e-85
4.76561e-84
2.65823e-83
1.45595e-82
7.83324e-82
4.14124e-81
2.1521e-80
1.09972e-79
5.52742e-79
2.73351e-78
1.33047e-77
6.37528e-77
3.00831e-76
1.39828e-75
6.40355e-75
2.89012e-74
1.28583e-73
5.64062e-73
2.44031e-72
1.04143e-71
4.38514e-71
1.82217e-70
7.47372e-70
3.02631e-69
1.21004e-68
4.77838e-68
1.86394e-67
7.1834e-67
2.73559e-66
1.0296e-65
3.83045e-65
1.40886e-64
5.12373e-64
1.84278e-63
6.55531e-63
2.30679e-62
8.03114e-62
2.7667e-61
9.43236e-61
3.1828e-60
1.06312e-59
3.51558e-59
1.15108e-58
3.73214e-58
1.19841e-57
3.81155e-57
1.20085e-56
3.74818e-56
1.15915e-55
3.55216e-55
1.07876e-54
3.24698e-54
9.68723e-54
2.86502e-53
8.40049e-53
2.44214e-52
7.03989e-52
2.01247e-51
5.70556e-51
1.60439e-50
4.47511e-50
1.23826e-49
3.39918e-49
9.25808e-49
2.50201e-48
6.70982e-48
1.78575e-47
4.71681e-47
1.2366e-46
3.21803e-46
8.31315e-46
2.13199e-45
5.42845e-45
1.37237e-44
3.44504e-44
8.58773e-44
2.12593e-43
5.22678e-43
1.27632e-42
3.09567e-42
7.45834e-42
1.78504e-41
4.24425e-41
1.00259e-40
2.35308e-40
5.48742e-40
1.27158e-39
2.92807e-39
6.70053e-39
1.52387e-38
3.44444e-38
7.73829e-38
1.72802e-37
3.83574e-37
8.4639e-37
1.85666e-36
4.04905e-36
8.77921e-36
1.8926e-35
4.05679e-35
8.64662e-35
1.83261e-34
3.86251e-34
8.09593e-34
1.68764e-33
3.49884e-33
7.21472e-33
1.47973e-32
3.0188e-32
6.12615e-32
1.23669e-31
2.48354e-31
4.96176e-31
9.86209e-31
1.95024e-30
3.83716e-30
7.51189e-30
1.46326e-29
2.83623e-29
5.47049e-29
1.05e-28
2.00561e-28
3.81251e-28
7.2127e-28
1.35807e-27
2.54505e-27
4.74719e-27
8.81363e-27
1.62879e-26
2.99628e-26
5.48679e-26
1.0002e-25
1.8151e-25
3.27923e-25
5.89813e-25
1.05619e-24
1.88305e-24
3.34266e-24
5.90804e-24
1.03975e-23
1.82203e-23
3.17935e-23
5.52448e-23
9.55922e-23
1.6472e-22
2.82664e-22
4.83068e-22
8.22187e-22
1.3937e-21
2.35295e-21
3.95652e-21
6.62647e-21
1.10543e-20
1.83681e-20
3.04018e-20
5.01236e-20
8.23199e-20
1.34678e-19
2.19496e-19
3.56375e-19
5.76428e-19
9.28862e-19
1.4912e-18
2.3851e-18
3.8008e-18
6.03459e-18
9.54633e-18
1.5047e-17
2.36317e-17
3.69813e-17
5.76661e-17
8.96022e-17
1.38735e-16
2.14056e-16
3.29122e-16
5.04288e-16
7.70023e-16
1.17176e-15
1.77702e-15
2.68579e-15
4.04565e-15
6.07361e-15
9.08774e-15
1.35526e-14
2.01446e-14
2.98447e-14
4.40716e-14
6.48694e-14
9.51738e-14
1.39187e-13
2.02906e-13
2.94855e-13
4.2712e-13
6.16772e-13
8.87852e-13
1.2741e-12
1.82274e-12
2.5996e-12
3.69623e-12
5.23946e-12
7.40453e-12
1.04327e-11
1.46553e-11
2.05257e-11
2.86621e-11
3.99058e-11
5.53971e-11
7.66775e-11
1.05824e-10
1.45628e-10
1.99826e-10
2.73411e-10
3.73028e-10
5.07498e-10
6.88496e-10
9.31426e-10
1.25656e-09
1.69047e-09
2.26794e-09
3.0343e-09
4.04852e-09
5.38705e-09
7.14869e-09
9.46086e-09
1.24873e-08
1.64378e-08
2.15807e-08
2.82578e-08
3.69034e-08
4.80681e-08
6.24475e-08
8.09181e-08
1.04582e-07
1.34818e-07
1.73353e-07
2.22336e-07
2.84438e-07
3.6297e-07
4.62024e-07
5.86645e-07
7.43032e-07
9.38785e-07
1.1832e-06
1.48759e-06
1.86575e-06
2.33438e-06
2.91368e-06
3.62801e-06
4.5067e-06
5.58491e-06
6.90473e-06
8.51637e-06
1.04796e-05
1.28654e-05
1.57578e-05
1.92559e-05
2.34765e-05
2.85569e-05
3.46578e-05
4.1967e-05
5.07034e-05
6.11213e-05
7.35155e-05
8.82271e-05
0.000105649
0.000126234
0.000150499
0.00017904
0.000212532
0.000251747
0.000297559
0.000350959
0.000413065
0.000485135
0.000568586
0.000665
0.000776149
0.000904003
0.00105076
0.00121884
0.00141093
0.00162999
0.00187927
0.00216235
0.00248311
0.0028458
0.00325505
0.00371586
0.00423365
0.00481425
0.00546392
0.00618939
0.00699783
0.00789688
0.00889467
0.00999977
0.0112213
0.0125687
0.014052
0.0156816
0.0174685
0.0194238
0.0215592
0.0238868
0.0264188
0.0291677
0.0321463
0.0353676
0.0388446
0.0425902
0.0466175
0.0509395
0.0555687
0.0605176
0.0657983
0.0714223
0.0774007
0.0837439
0.0904616
0.0975626
0.105055
0.112946
0.12124
0.129944
0.139059
0.148589
0.158534
0.168894
0.179666
0.190846
0.202429
0.214409
0.226776
0.239521
0.252632
0.266096
0.279898
0.294021
0.308449
0.323162
0.33814
0.353361
0.368802
0.38444
0.400251
0.416208
0.432287
0.44846
0.464702
0.480983
0.497278
0.513559
0.5298
0.545972
0.56205
0.578009
0.593822
0.609465
0.624915
0.64015
0.655146
0.669885
0.684347
0.698514
0.712369
0.725897
0.739084
0.751917
0.764385
0.776479
0.78819
0.799511
0.810435
0.82096
0.83108
0.840794
0.850102
0.859001
0.867495
0.875583
0.883269
0.890556
0.897446
0.903945
0.910056
0.915785
0.921135
0.926113
0.930722
0.934968
0.938856
0.942389
0.945572
0.948409
0.950902
0.953055
0.954869
0.956347
0.957488
0.958294
0.958763
0.958895
0.958688
0.95814
0.957247
0.956006
0.954413
0.952463
0.95015
0.947469
0.944415
0.940981
0.937161
0.932948
0.928335
0.923318
0.917889
0.912044
0.905775
0.89908
0.891953
0.884391
0.876392
0.867954
0.859077
0.84976
0.840005
0.829815
0.819195
0.80815
0.796687
0.784814
0.772541
0.75988
0.746843
0.733445
0.7197
0.705628
0.691245
0.676571
0.661628
0.646437
0.631022
0.615407
0.599616
0.583676
0.567612
0.551451
0.535221
0.518948
0.502661
0.486386
0.47015
0.453981
0.437905
0.421947
0.406133
0.390488
0.375035
0.359795
0.344792
0.330044
0.315571
0.301391
0.28752
0.273972
0.260762
0.247901
0.235399
0.223267
0.21151
0.200137
0.18915
0.178554
0.16835
0.15854
0.149122
0.140094
0.131454
0.123197
0.115319
0.107814
0.100674
0.0938923
0.0874603
0.0813693
0.0756096
0.0701713
0.0650442
0.0602175
0.0556803
0.0514216
0.04743
0.0436943
0.0402032
0.0369453
0.0339095
0.0310847
0.02846
0.0260247
0.0237685
)
;

boundaryField
{
    sides
    {
        type            inletOutlet;
        inletValue      uniform 0;
        value           nonuniform List<scalar> 2(0.0237685 0);
    }
    empty
    {
        type            empty;
    }
}


// ************************************************************************* //
