/*--------------------------------*- C++ -*----------------------------------*\
| =========                 |                                                 |
| \\      /  F ield         | OpenFOAM: The Open Source CFD Toolbox           |
|  \\    /   O peration     | Version:  4.0                                   |
|   \\  /    A nd           | Web:      www.OpenFOAM.org                      |
|    \\/     M anipulation  |                                                 |
\*---------------------------------------------------------------------------*/
FoamFile
{
    version     2.0;
    format      ascii;
    class       volScalarField;
    location    "11";
    object      p;
}
// * * * * * * * * * * * * * * * * * * * * * * * * * * * * * * * * * * * * * //

dimensions      [0 2 -2 0 0 0 0];

internalField   nonuniform List<scalar> 
8800
(
0.434915
0.387192
0.348613
0.319728
0.299003
0.284332
0.27392
0.266615
0.261907
0.259826
0.260816
0.264624
0.270862
0.2798
0.292272
0.309762
0.334354
0.368155
0.410544
0.469235
0.265929
0.273613
0.281402
0.284809
0.283456
0.278589
0.272347
0.26648
0.261896
0.259067
0.258617
0.260801
0.26489
0.270427
0.2768
0.282725
0.286107
0.285227
0.279516
0.270639
0.244169
0.250408
0.254697
0.257911
0.260229
0.261098
0.26024
0.258352
0.256439
0.255443
0.25614
0.258121
0.26046
0.262187
0.262374
0.260788
0.258089
0.254381
0.249703
0.245898
0.237977
0.240725
0.24388
0.246708
0.248709
0.25015
0.251139
0.251479
0.251316
0.251235
0.251648
0.252326
0.252654
0.252222
0.251164
0.249606
0.247285
0.244196
0.241449
0.23996
0.232499
0.234004
0.236413
0.239176
0.241598
0.243428
0.244683
0.245572
0.246186
0.246605
0.246922
0.246987
0.24665
0.245897
0.244583
0.242596
0.240061
0.237379
0.235596
0.23483
0.2283
0.229094
0.231091
0.233488
0.235779
0.237921
0.239727
0.241067
0.241997
0.242642
0.242974
0.242877
0.242261
0.241046
0.239291
0.237244
0.234996
0.232731
0.231419
0.231111
0.226681
0.227082
0.228252
0.229765
0.231295
0.232729
0.234118
0.235461
0.23663
0.237499
0.237868
0.237677
0.237037
0.236119
0.235043
0.233743
0.232331
0.231
0.230276
0.230138
0.225329
0.225536
0.226169
0.227078
0.228134
0.229445
0.230813
0.232108
0.23328
0.234238
0.234744
0.234698
0.234223
0.233407
0.232425
0.23156
0.230757
0.230056
0.229692
0.229621
0.223172
0.223286
0.223645
0.224231
0.224938
0.225665
0.226677
0.227818
0.228986
0.230051
0.230725
0.230892
0.230696
0.230336
0.229966
0.22952
0.229099
0.22874
0.228565
0.228523
0.220264
0.220323
0.220587
0.221058
0.221614
0.222443
0.223313
0.224338
0.225484
0.226659
0.22756
0.228018
0.228134
0.228014
0.227801
0.227602
0.227318
0.227077
0.226984
0.226965
0.217046
0.217081
0.217279
0.21767
0.218185
0.218853
0.219676
0.220708
0.221936
0.223296
0.224477
0.225233
0.225639
0.225817
0.225828
0.225739
0.225604
0.22549
0.225457
0.225447
0.213517
0.213543
0.213697
0.214015
0.214477
0.215106
0.215943
0.217033
0.2184
0.220015
0.221543
0.222645
0.223351
0.22377
0.223988
0.224077
0.224085
0.224075
0.224079
0.22407
0.209589
0.209617
0.209752
0.210041
0.210489
0.211137
0.212045
0.213276
0.214878
0.216853
0.21881
0.220299
0.221313
0.221982
0.222396
0.222638
0.222769
0.22284
0.222872
0.222863
0.205181
0.205203
0.205357
0.205658
0.206138
0.206858
0.207897
0.209346
0.211281
0.213725
0.216208
0.218155
0.219539
0.220479
0.221095
0.221485
0.221721
0.221855
0.221909
0.2219
0.20023
0.200256
0.200431
0.200777
0.201336
0.202186
0.203433
0.205195
0.207579
0.210632
0.213777
0.216286
0.218094
0.219334
0.220164
0.220702
0.221037
0.221229
0.221305
0.221294
0.194625
0.194655
0.194869
0.195289
0.195971
0.197015
0.198553
0.20074
0.203717
0.20755
0.211527
0.214718
0.217019
0.218618
0.219694
0.220396
0.220838
0.221091
0.22119
0.221177
0.188207
0.188246
0.188515
0.189042
0.189898
0.191209
0.193143
0.195892
0.19964
0.204469
0.20948
0.213503
0.216413
0.218438
0.219804
0.220699
0.221262
0.221584
0.22171
0.221695
0.180768
0.180818
0.181163
0.181837
0.182932
0.184604
0.187062
0.190549
0.195291
0.201383
0.207685
0.212734
0.216384
0.218925
0.220641
0.221764
0.222472
0.222876
0.223033
0.223014
0.17201
0.172076
0.172523
0.173401
0.174829
0.176996
0.180145
0.184587
0.19061
0.198297
0.206204
0.212514
0.217068
0.220239
0.222379
0.223779
0.22466
0.225161
0.225356
0.225333
0.161527
0.161614
0.162203
0.163359
0.165234
0.168038
0.172119
0.177855
0.185526
0.195227
0.20512
0.212974
0.21863
0.222566
0.225226
0.226966
0.228056
0.228674
0.228914
0.228885
0.148762
0.148881
0.149665
0.151211
0.153703
0.157415
0.162764
0.170169
0.179969
0.192201
0.204533
0.214262
0.221254
0.226124
0.229421
0.231584
0.232939
0.233703
0.233998
0.233956
0.132932
0.133102
0.134167
0.136282
0.139661
0.144627
0.151687
0.161342
0.173897
0.189281
0.204572
0.216549
0.22515
0.231154
0.235238
0.237933
0.239628
0.240575
0.240937
0.240881
0.112858
0.113105
0.11461
0.117607
0.122298
0.129087
0.138585
0.151269
0.167343
0.18659
0.205399
0.220026
0.230537
0.237915
0.242973
0.246345
0.248489
0.249688
0.250127
0.250054
0.0866402
0.0870201
0.0893025
0.0938007
0.100596
0.110191
0.12318
0.139917
0.160436
0.184317
0.207205
0.224877
0.237616
0.246646
0.252922
0.257175
0.259929
0.261492
0.262067
0.261967
0.0510421
0.0517337
0.055618
0.062931
0.0733287
0.0873187
0.105303
0.127402
0.153403
0.182685
0.210159
0.231224
0.246494
0.257484
0.265297
0.27074
0.274372
0.276474
0.277245
0.277108
-0.000166373
0.00191112
0.00988383
0.0229157
0.039645
0.0603876
0.0852733
0.11416
0.146632
0.181951
0.214373
0.239071
0.257107
0.270343
0.280053
0.287126
0.29211
0.295199
0.296374
0.29618
-0.0773685
-0.066781
-0.048474
-0.0251336
0.00113854
0.0308834
0.0641828
0.100854
0.140491
0.182406
0.220241
0.249015
0.270302
0.286334
0.298594
0.308106
0.315447
0.32056
0.322965
0.323253
-0.15957
-0.136171
-0.107109
-0.0734831
-0.0374632
0.00134786
0.0430679
0.0876496
0.134813
0.184026
0.228282
0.26218
0.287693
0.30742
0.323071
0.335771
0.34613
0.355148
0.360084
0.360525
-0.222831
-0.197267
-0.159964
-0.118153
-0.073687
-0.0266026
0.0230818
0.0752447
0.129605
0.185666
0.235739
0.274031
0.302897
0.325304
0.343115
0.357542
0.369234
0.378752
0.38331
0.383987
-0.273845
-0.246199
-0.204292
-0.156647
-0.105756
-0.0519507
0.00454853
0.0634411
0.124331
0.186624
0.241791
0.283586
0.314776
0.338677
0.357386
0.37232
0.38434
0.393733
0.398496
0.399177
-0.314903
-0.286712
-0.241468
-0.189519
-0.133767
-0.0746377
-0.0124788
0.0522447
0.118929
0.186768
0.246384
0.291099
0.324054
0.348971
0.368209
0.38333
0.395323
0.404476
0.409359
0.410058
-0.349621
-0.321215
-0.273631
-0.218304
-0.158576
-0.0950119
-0.0280702
0.0417002
0.113572
0.186533
0.250274
0.297594
0.332037
0.357727
0.377274
0.392417
0.404301
0.413214
0.418093
0.418813
-0.380007
-0.351601
-0.302197
-0.244181
-0.181176
-0.113843
-0.0427068
0.0315993
0.108215
0.185898
0.253473
0.303245
0.339096
0.365515
0.38538
0.400591
0.412395
0.42115
0.425953
0.426689
-0.407497
-0.379014
-0.328286
-0.268007
-0.202238
-0.131663
-0.0568464
0.0215052
0.102459
0.18465
0.256057
0.308359
0.345698
0.372928
0.393175
0.40851
0.420287
0.428936
0.433629
0.43438
-0.432963
-0.404381
-0.352521
-0.290341
-0.222223
-0.14887
-0.0708304
0.0111978
0.0962521
0.182852
0.258144
0.313124
0.35211
0.380282
0.401013
0.416547
0.428345
0.436898
0.441461
0.442275
-0.457065
-0.428313
-0.375467
-0.311648
-0.241502
-0.165706
-0.0847785
0.000605639
0.0895034
0.18039
0.259684
0.317583
0.35846
0.387772
0.40913
0.424956
0.436836
0.445331
0.449753
0.450596
-0.480044
-0.451088
-0.397366
-0.332219
-0.260286
-0.182344
-0.0988596
-0.0104401
0.0820538
0.177165
0.260606
0.321716
0.364794
0.395496
0.417663
0.433906
0.445939
0.454424
0.458703
0.459514
-0.502258
-0.472982
-0.418514
-0.352227
-0.278751
-0.19895
-0.113198
-0.022015
0.0738435
0.173074
0.260794
0.325426
0.371067
0.403477
0.426687
0.443506
0.455806
0.46433
0.468462
0.469198
-0.523742
-0.494179
-0.439157
-0.371748
-0.296948
-0.215533
-0.12779
-0.0341397
0.0648211
0.168011
0.260104
0.328566
0.377172
0.411669
0.43622
0.453818
0.466506
0.475126
0.479144
0.479719
-0.544578
-0.514693
-0.459178
-0.390815
-0.314888
-0.232089
-0.14263
-0.0468092
0.0549681
0.161912
0.258379
0.330936
0.382922
0.419956
0.446205
0.464836
0.478059
0.486851
0.490792
0.49116
-0.564825
-0.534596
-0.478605
-0.409438
-0.332573
-0.248597
-0.157676
-0.0599763
0.0443078
0.154736
0.255483
0.332317
0.38806
0.428105
0.456493
0.476481
0.490451
0.499484
0.503348
0.503496
-0.58453
-0.553958
-0.497441
-0.427599
-0.349932
-0.264996
-0.172856
-0.0735719
0.0328912
0.146463
0.251305
0.332461
0.392251
0.435797
0.466903
0.488651
0.503579
0.512903
0.516605
0.51656
-0.603518
-0.572629
-0.515632
-0.445245
-0.366919
-0.281197
-0.188092
-0.0875024
0.0207973
0.137133
0.245736
0.331121
0.395155
0.44271
0.477205
0.501294
0.517419
0.52698
0.530387
0.530101
-0.621781
-0.590581
-0.533185
-0.462314
-0.383467
-0.297136
-0.203278
-0.101674
0.00812811
0.126805
0.238749
0.328108
0.396407
0.448332
0.486958
0.514312
0.53207
0.541586
0.54432
0.543755
-0.639348
-0.607781
-0.550052
-0.478778
-0.399512
-0.312731
-0.218321
-0.115966
-0.00500313
0.115578
0.230374
0.323296
0.395592
0.451953
0.495441
0.527449
0.548089
0.557219
0.557975
0.556943
-0.656083
-0.624249
-0.566186
-0.494568
-0.414999
-0.327906
-0.233128
-0.130259
-0.0184508
0.103589
0.22067
0.316634
0.392444
0.45279
0.501442
0.53975
0.566035
0.576401
0.57263
0.569544
-0.672078
-0.639937
-0.581598
-0.509709
-0.429959
-0.342706
-0.247757
-0.144615
-0.0322844
0.0907835
0.209541
0.307883
0.386707
0.450123
0.503244
0.54887
0.584557
0.60384
0.599217
0.575062
-0.687294
-0.654901
-0.596398
-0.524364
-0.444655
-0.357431
-0.262595
-0.159503
-0.0470479
0.0764953
0.196284
0.296207
0.377554
0.442808
0.497635
0.54883
0.592044
0.613448
0.60133
0.572856
-0.701615
-0.669294
-0.610426
-0.538292
-0.458811
-0.371754
-0.277413
-0.174591
-0.0624026
0.06107
0.181148
0.28156
0.364588
0.430827
0.480945
0.530007
0.565918
0.573798
0.50796
0.462166
-0.714435
-0.683666
-0.623232
-0.550928
-0.47182
-0.385261
-0.291942
-0.189674
-0.078125
0.0446882
0.164179
0.264045
0.347301
0.415118
0.455467
0.482305
0.503234
0.463759
0.386288
0.33487
-0.766691
-0.69467
-0.634763
-0.563712
-0.485035
-0.399231
-0.306284
-0.205003
-0.0945361
0.0269932
0.144992
0.243265
0.324186
0.396219
0.412541
0.412388
0.384096
0.315602
0.225384
0.175384
-0.722289
-0.70861
-0.650687
-0.581919
-0.503663
-0.418833
-0.327579
-0.227882
-0.119416
-0.000515869
0.113623
0.20751
0.2815
0.34008
0.346736
0.217536
0.0932636
0.00701496
-0.0822871
-0.0320267
-0.748889
-0.721959
-0.665033
-0.595736
-0.518291
-0.434221
-0.343407
-0.245061
-0.138305
-0.0217783
0.08865
0.177436
0.244413
0.276282
0.21703
0.0365132
-0.130112
-0.247982
-0.377761
-0.292898
-0.768327
-0.737629
-0.680879
-0.611132
-0.534171
-0.450757
-0.36075
-0.263993
-0.159305
-0.0457562
0.0603489
0.142829
0.200354
0.205552
0.0741041
-0.170237
-0.378854
-0.53881
-0.723917
-0.647493
-0.786388
-0.754228
-0.696627
-0.626531
-0.54984
-0.467099
-0.378294
-0.283227
-0.180785
-0.0706195
0.0305042
0.106304
0.151735
0.116693
-0.0963958
-0.384807
-0.657623
-0.898378
-1.16949
-1.14112
-0.802849
-0.770751
-0.712564
-0.642254
-0.565858
-0.483885
-0.396439
-0.303161
-0.203209
-0.0965924
-0.000929925
0.0674259
0.0960217
0.011737
-0.264
-0.587673
-0.921588
-1.22656
-1.58914
-1.96299
-0.818764
-0.787085
-0.728854
-0.658553
-0.582489
-0.501315
-0.415206
-0.323845
-0.226516
-0.12355
-0.0336767
0.0262549
0.0376133
-0.0994812
-0.415854
-0.751562
-1.09905
-1.39488
-1.52872
-1.74396
-0.834757
-0.803491
-0.745562
-0.675543
-0.599954
-0.519741
-0.435146
-0.345974
-0.25155
-0.152763
-0.0693488
-0.0192622
-0.0283978
-0.231477
-0.551577
-0.873414
-1.17569
-1.36727
-1.40053
-1.43718
-0.851059
-0.820203
-0.762629
-0.693089
-0.61816
-0.539125
-0.456394
-0.369849
-0.278861
-0.184758
-0.108253
-0.0692553
-0.109429
-0.366073
-0.672322
-0.96632
-1.23117
-1.35133
-1.36566
-1.36766
-0.867785
-0.837213
-0.77996
-0.710954
-0.636848
-0.55925
-0.478716
-0.39528
-0.308284
-0.21914
-0.149915
-0.12332
-0.198618
-0.494976
-0.789249
-1.04294
-1.28771
-1.36944
-1.34178
-1.32987
-0.88469
-0.85431
-0.79734
-0.728895
-0.655788
-0.579837
-0.501958
-0.422199
-0.339724
-0.255909
-0.194374
-0.182779
-0.299298
-0.625726
-0.911359
-1.07674
-1.20921
-1.26836
-1.28498
-1.2847
-0.901381
-0.871143
-0.814403
-0.74651
-0.674537
-0.600561
-0.525756
-0.450312
-0.373162
-0.294642
-0.240338
-0.245682
-0.412503
-0.770369
-1.05682
-1.10994
-1.06028
-1.22008
-1.29763
-1.31672
-0.917127
-0.887141
-0.830562
-0.763259
-0.692541
-0.620782
-0.549509
-0.479244
-0.40818
-0.335139
-0.286782
-0.306482
-0.535798
-0.96516
-1.32677
-1.48919
-1.39976
-1.44772
-1.48672
-1.50179
-0.931289
-0.901384
-0.845111
-0.778478
-0.709038
-0.639751
-0.5726
-0.50851
-0.444739
-0.378159
-0.332176
-0.363252
-0.652851
-1.21791
-1.73968
-2.14058
-1.9592
-1.82547
-1.78715
-1.78454
-0.942934
-0.913378
-0.857209
-0.791109
-0.72309
-0.656557
-0.594223
-0.537697
-0.484439
-0.425473
-0.375446
-0.417026
-0.761905
-1.36979
-1.93224
-2.27119
-2.19268
-2.07951
-2.04503
-2.04268
-0.950749
-0.921259
-0.865552
-0.800041
-0.733552
-0.670015
-0.61315
-0.566302
-0.528288
-0.482843
-0.430429
-0.485427
-0.833654
-1.3857
-1.93447
-2.27827
-2.39818
-2.38342
-2.307
-2.29134
-0.95338
-0.924195
-0.868873
-0.804034
-0.739121
-0.678762
-0.628207
-0.593901
-0.580026
-0.567787
-0.529744
-0.575216
-0.891997
-1.4051
-1.98004
-2.51608
-2.77978
-2.76317
-2.58833
-2.47971
-0.949566
-0.92064
-0.865573
-0.801721
-0.738402
-0.68125
-0.6378
-0.619738
-0.643571
-0.712131
-0.743889
-0.752769
-0.918439
-1.27162
-1.70387
-2.2077
-2.43008
-2.35262
-2.12415
-1.98574
-0.938083
-0.90929
-0.855072
-0.791845
-0.730002
-0.675808
-0.639582
-0.640988
-0.72268
-0.958593
-1.17486
-1.02979
-0.878255
-0.823572
-0.780626
-0.778721
-0.731303
-0.579965
-0.395295
-0.302958
-0.917577
-0.888934
-0.835504
-0.773313
-0.712607
-0.660623
-0.630405
-0.651639
-0.809101
-1.31184
-1.83143
-1.38039
-0.80976
-0.197394
0.379866
0.822345
1.13851
1.33578
1.44888
1.48896
-0.887127
-0.858704
-0.806323
-0.745214
-0.685099
-0.633888
-0.607063
-0.638666
-0.852826
-1.59678
-2.48851
-1.63945
-0.669787
0.27521
1.05187
1.61935
1.98499
2.13691
2.19628
2.20974
-0.846261
-0.818373
-0.767071
-0.706935
-0.646666
-0.593474
-0.562029
-0.585285
-0.784414
-1.48959
-2.25775
-1.33892
-0.359416
0.55231
1.21117
1.63423
1.87787
1.9928
2.0437
2.05526
-0.794494
-0.767208
-0.71788
-0.658844
-0.598032
-0.540872
-0.497613
-0.493221
-0.601543
-0.979019
-1.20984
-0.571153
0.130131
0.743851
1.15132
1.40783
1.55958
1.64687
1.69351
1.69928
-0.730582
-0.705584
-0.659231
-0.602209
-0.541632
-0.481013
-0.425962
-0.388216
-0.392716
-0.456239
-0.384942
0.0281309
0.466415
0.801683
1.02981
1.18299
1.28482
1.35279
1.38575
1.39105
-0.656951
-0.633979
-0.592462
-0.538728
-0.480012
-0.418142
-0.355094
-0.293476
-0.234174
-0.155932
0.00923463
0.270517
0.535745
0.73042
0.870688
0.972324
1.04586
1.0966
1.12517
1.13427
-0.572449
-0.556894
-0.518131
-0.469322
-0.414669
-0.354889
-0.289692
-0.217854
-0.13392
-0.0192606
0.140139
0.319108
0.480412
0.603537
0.695267
0.764342
0.816734
0.853972
0.874875
0.880261
-0.465033
-0.457215
-0.429737
-0.390328
-0.344388
-0.292077
-0.232242
-0.163016
-0.0792996
0.0308333
0.166452
0.301128
0.415667
0.503881
0.569321
0.616767
0.65087
0.675741
0.690754
0.694035
-0.357959
-0.354431
-0.33593
-0.306985
-0.271719
-0.229789
-0.179546
-0.118934
-0.0438151
0.0533651
0.165464
0.269546
0.354679
0.419242
0.466012
0.49888
0.521179
0.535082
0.541884
0.543478
-0.255576
-0.253796
-0.243243
-0.224318
-0.199674
-0.1686
-0.129399
-0.0797847
-0.0164519
0.0653096
0.156311
0.237022
0.300838
0.348169
0.381525
0.403964
0.418223
0.426568
0.430439
0.430841
-0.162568
-0.162351
-0.157376
-0.147149
-0.132173
-0.111355
-0.0828792
-0.0445417
0.00622748
0.07242
0.145131
0.207914
0.256162
0.290992
0.314866
0.330266
0.339449
0.344335
0.346262
0.346251
-0.0863563
-0.0869951
-0.0864736
-0.0829113
-0.0755508
-0.0627525
-0.0430606
-0.0146076
0.0247981
0.0771399
0.134281
0.182663
0.219039
0.244768
0.261794
0.27233
0.278318
0.2812
0.282172
0.282023
-0.0318333
-0.0327442
-0.0343451
-0.0349411
-0.032248
-0.0250645
-0.0119052
0.00877043
0.0386422
0.0791277
0.12339
0.1605
0.187878
0.206758
0.219051
0.226479
0.230409
0.232095
0.232578
0.232399
0.0033203
0.00249391
0.000507596
-0.00105852
-0.000622744
0.00307968
0.011491
0.0261749
0.0485233
0.0794887
0.113414
0.141576
0.162159
0.176238
0.185141
0.190239
0.192782
0.193717
0.193896
0.193722
0.0246765
0.0240861
0.0224665
0.0209427
0.0208134
0.0230427
0.0286666
0.0389854
0.0553948
0.0787614
0.104622
0.126042
0.141456
0.15169
0.158
0.161536
0.163156
0.163595
0.163594
0.163445
0.0373201
0.0369363
0.0358481
0.034732
0.0344974
0.0359256
0.0399384
0.04753
0.0597069
0.0772171
0.0966682
0.112659
0.124057
0.131618
0.13622
0.13867
0.139681
0.139848
0.139774
0.139655
0.0448913
0.0446438
0.0439467
0.0432139
0.0430715
0.0440579
0.046857
0.0523389
0.0613712
0.0744957
0.0891181
0.101156
0.109696
0.115253
0.118539
0.120238
0.120886
0.12093
0.120841
0.120746
0.0492493
0.0490839
0.0486122
0.0481166
0.0480486
0.0488114
0.0509054
0.0549463
0.061616
0.0714042
0.0823538
0.0913102
0.0975992
0.101652
0.104023
0.105211
0.10562
0.105601
0.105511
0.105435
0.0512568
0.0511417
0.0507974
0.0504291
0.0503736
0.0509228
0.052457
0.0554551
0.0604223
0.0677104
0.0758621
0.0825239
0.0871881
0.0901665
0.0918767
0.0927068
0.0929643
0.0929152
0.0928338
0.0927724
0.0514482
0.0513673
0.0511178
0.0508478
0.0508113
0.0512229
0.0523584
0.0545713
0.0582537
0.0636805
0.0697554
0.0746998
0.0781348
0.0803051
0.0815324
0.0821079
0.0822627
0.0821988
0.0821265
0.0820775
0.0502795
0.0502208
0.0500412
0.0498454
0.0498221
0.0501306
0.0509763
0.0526226
0.055358
0.0593861
0.0638913
0.0675486
0.0700757
0.0716584
0.0725388
0.0729367
0.0730252
0.0729582
0.0728958
0.0728566
0.048114
0.0480699
0.0479406
0.047801
0.0477889
0.0480213
0.04865
0.0498703
0.0518993
0.0548887
0.0582274
0.0609285
0.0627837
0.0639344
0.0645638
0.0648365
0.0648828
0.0648192
0.0647661
0.0647347
0.0452245
0.0451906
0.0450959
0.0449956
0.04499
0.0451651
0.0456326
0.0465381
0.0480409
0.0502544
0.0527215
0.05471
0.0560677
0.0569017
0.0573498
0.0575354
0.0575555
0.0574973
0.0574525
0.0574274
0.0418031
0.0417767
0.0417054
0.0416312
0.0416271
0.0417564
0.0421021
0.042771
0.0438817
0.0455164
0.0473361
0.0487956
0.0497853
0.0503875
0.0507047
0.0508289
0.0508325
0.0507809
0.0507433
0.0507233
0.0379866
0.0379658
0.0379108
0.0378535
0.0378481
0.0379415
0.0381947
0.0386872
0.0395049
0.0407083
0.0420441
0.0431109
0.0438302
0.0442624
0.044485
0.0445663
0.0445598
0.0445146
0.0444833
0.0444673
0.0338735
0.0338569
0.0338136
0.0337681
0.0337607
0.0338263
0.0340098
0.0343688
0.0349668
0.0358477
0.0368241
0.0376012
0.0381205
0.0384283
0.038582
0.0386325
0.0386197
0.0385805
0.0385545
0.0385419
0.0295385
0.0295252
0.0294906
0.0294534
0.029444
0.029488
0.0296182
0.029877
0.030311
0.0309512
0.0316596
0.0322206
0.0325925
0.032809
0.0329132
0.0329427
0.0329267
0.0328927
0.0328712
0.0328613
0.0250385
0.0250279
0.0249999
0.0249689
0.0249575
0.0249848
0.0250747
0.0252583
0.0255691
0.0260287
0.0265362
0.0269361
0.0271985
0.0273487
0.027418
0.0274334
0.0274163
0.0273875
0.0273697
0.027362
0.0204157
0.0204072
0.0203846
0.0203585
0.0203463
0.0203616
0.0204216
0.0205486
0.0207663
0.0210899
0.0214476
0.0217276
0.021909
0.0220099
0.0220529
0.0220579
0.0220405
0.0220159
0.0220013
0.0219953
0.0157019
0.0156952
0.0156771
0.0156554
0.0156429
0.0156493
0.015687
0.0157711
0.0159178
0.0161376
0.0163804
0.0165696
0.0166907
0.0167557
0.0167805
0.0167791
0.0167624
0.0167417
0.0167298
0.0167253
0.0109222
0.0109173
0.0109028
0.0108848
0.0108728
0.0108736
0.0108949
0.0109466
0.0110388
0.0111777
0.0113312
0.0114497
0.0115237
0.0115617
0.0115739
0.0115691
0.0115544
0.0115377
0.0115286
0.0115253
0.00609302
0.00608953
0.00607896
0.0060663
0.00605762
0.00605599
0.00606547
0.00609156
0.00613974
0.0062124
0.00629267
0.0063539
0.00639179
0.00641052
0.00641487
0.00640971
0.00639835
0.00638591
0.00637912
0.00637709
0.00122606
0.00122566
0.00122444
0.00121962
0.00121546
0.00121335
0.00121396
0.00121721
0.00122389
0.00123499
0.00124981
0.00126375
0.00127324
0.00127864
0.00128081
0.00128033
0.00127758
0.00127312
0.00126922
0.00126841
-0.833964
-0.578063
-0.292229
-0.0634776
0.121948
0.272161
0.400137
0.508499
0.55951
0.536694
-0.377199
-0.205586
-0.0285156
0.1229
0.251471
0.359729
0.448351
0.512174
0.545658
0.55637
-0.0712005
0.0410845
0.158264
0.262398
0.352346
0.427972
0.488208
0.532236
0.562726
0.579383
0.13912
0.215355
0.297267
0.370823
0.434955
0.489238
0.533444
0.568029
0.594877
0.612332
0.295732
0.350462
0.407934
0.462318
0.510291
0.551753
0.586717
0.615203
0.638074
0.655401
0.419369
0.459363
0.504199
0.546794
0.585301
0.61938
0.648747
0.672993
0.69247
0.70957
0.523385
0.556147
0.594995
0.631352
0.665009
0.695229
0.721402
0.742878
0.759479
0.776477
0.619158
0.650905
0.687941
0.722618
0.754509
0.783036
0.807443
0.827054
0.841186
0.85824
0.718927
0.753693
0.792181
0.827418
0.858874
0.886261
0.909198
0.9272
0.939614
0.957071
0.836665
0.875497
0.91521
0.950436
0.98068
1.00617
1.02716
1.04353
1.05536
1.0735
0.983255
1.02239
1.05919
1.09045
1.11666
1.13924
1.15869
1.17453
1.18722
1.20529
1.1594
1.19133
1.21788
1.24071
1.26102
1.28001
1.29798
1.31465
1.33015
1.34827
1.34864
1.36601
1.38127
1.39773
1.41383
1.4285
1.44182
1.45586
1.47352
1.49373
1.53063
1.54029
1.55196
1.56284
1.5722
1.58194
1.5929
1.60434
1.61574
1.63112
1.73818
1.74185
1.72695
1.71222
1.70607
1.7118
1.73031
1.76068
1.79289
1.81956
2.0445
1.90965
1.83312
1.79089
1.77345
1.77746
1.8049
1.86131
1.96396
2.18834
0.325494
0.323429
0.31894
0.310432
0.298373
0.286441
0.276418
0.268708
0.263223
0.259991
0.259482
0.26187
0.266573
0.273398
0.282422
0.293642
0.306023
0.316852
0.322897
0.325873
0.249749
0.255636
0.262049
0.266735
0.2694
0.269276
0.26676
0.263191
0.259868
0.257641
0.257309
0.259151
0.262357
0.266177
0.26957
0.271118
0.269894
0.266134
0.260772
0.25409
0.240855
0.243158
0.24681
0.250163
0.252597
0.254429
0.255497
0.255429
0.254532
0.253633
0.253604
0.25467
0.256059
0.25689
0.256574
0.255203
0.253191
0.250408
0.246759
0.24368
0.235236
0.236298
0.238439
0.241323
0.243819
0.245603
0.246865
0.247792
0.248369
0.248675
0.248968
0.249263
0.249299
0.24887
0.24801
0.246682
0.244651
0.241947
0.239342
0.237797
0.230041
0.230548
0.232167
0.234815
0.237455
0.239863
0.241767
0.243061
0.24392
0.244497
0.244916
0.245139
0.244956
0.244282
0.242959
0.240947
0.238535
0.235935
0.233707
0.232782
0.227308
0.227503
0.228532
0.230395
0.232332
0.234106
0.235781
0.237352
0.238663
0.239643
0.240224
0.240268
0.239784
0.238807
0.237521
0.236051
0.234326
0.232479
0.230966
0.230487
0.226068
0.226163
0.22672
0.227788
0.229007
0.230429
0.231812
0.233138
0.234347
0.235378
0.236069
0.236234
0.235907
0.235219
0.23429
0.233092
0.23202
0.230988
0.230192
0.229949
0.224378
0.224429
0.224723
0.225333
0.226118
0.226991
0.228118
0.229359
0.230604
0.231735
0.232565
0.232862
0.232667
0.232153
0.231476
0.230861
0.23026
0.229695
0.22931
0.229188
0.221773
0.221797
0.221978
0.222411
0.223017
0.223644
0.224435
0.225454
0.226563
0.227701
0.228683
0.229235
0.229364
0.229216
0.228968
0.22876
0.2284
0.228049
0.227831
0.227774
0.21869
0.218696
0.218818
0.21916
0.219659
0.220301
0.221102
0.222035
0.223146
0.224386
0.225571
0.226398
0.226809
0.226961
0.226909
0.226659
0.226538
0.226334
0.226218
0.226197
0.215326
0.215327
0.215418
0.215682
0.216101
0.216655
0.217377
0.218308
0.219477
0.220869
0.222328
0.223484
0.22421
0.224625
0.224832
0.224886
0.224856
0.224786
0.224752
0.224747
0.211608
0.211609
0.211684
0.211906
0.21228
0.212815
0.213558
0.214563
0.215874
0.217508
0.219324
0.220865
0.221927
0.222609
0.223026
0.223259
0.223371
0.223417
0.223444
0.22345
0.20745
0.207446
0.207532
0.207745
0.208113
0.208671
0.209483
0.21062
0.212156
0.214136
0.216408
0.218422
0.219846
0.220834
0.221476
0.221882
0.222126
0.222266
0.222339
0.222354
0.202781
0.202774
0.202866
0.203106
0.203517
0.204153
0.205096
0.206446
0.208305
0.210744
0.213598
0.216167
0.218046
0.219368
0.220257
0.220836
0.221202
0.221421
0.221533
0.221557
0.197522
0.197513
0.197624
0.197908
0.198397
0.19916
0.200303
0.201955
0.204252
0.207294
0.210886
0.214155
0.216579
0.218278
0.219439
0.220207
0.220699
0.220999
0.221149
0.221182
0.191534
0.191521
0.191661
0.192014
0.19262
0.193567
0.194989
0.197052
0.199928
0.203749
0.208274
0.212406
0.215471
0.217639
0.219123
0.220109
0.220744
0.221132
0.221326
0.221368
0.184634
0.184617
0.184797
0.185246
0.186015
0.187213
0.18901
0.191619
0.195254
0.200076
0.205777
0.210977
0.214831
0.217562
0.219433
0.220679
0.221484
0.221976
0.222222
0.222274
0.176571
0.176551
0.176786
0.177369
0.178356
0.179886
0.182181
0.185512
0.190137
0.196239
0.203418
0.209941
0.214765
0.218181
0.220521
0.222082
0.223093
0.223714
0.224023
0.224087
0.167005
0.166981
0.167293
0.168055
0.169338
0.171316
0.174301
0.178592
0.18448
0.192211
0.20124
0.209395
0.215405
0.219656
0.222569
0.224514
0.225779
0.22656
0.226947
0.227025
0.155465
0.155437
0.155861
0.156875
0.158563
0.161168
0.165056
0.170592
0.178164
0.187978
0.199308
0.209459
0.216913
0.222181
0.225792
0.228205
0.229782
0.230763
0.231251
0.231347
0.141271
0.141238
0.141833
0.143214
0.145479
0.148951
0.154088
0.161345
0.171104
0.183552
0.197717
0.210285
0.219478
0.225976
0.230438
0.233425
0.23538
0.236603
0.237211
0.237334
0.12343
0.123398
0.124268
0.126204
0.129326
0.134079
0.141008
0.150586
0.163205
0.178975
0.196586
0.212036
0.2233
0.231279
0.236784
0.240484
0.242914
0.244439
0.245213
0.245366
0.100447
0.100442
0.101772
0.104583
0.109043
0.115737
0.125243
0.138037
0.154424
0.174332
0.19606
0.214876
0.228565
0.238312
0.245101
0.249714
0.25277
0.254703
0.255693
0.255893
0.0698973
0.0699908
0.0721596
0.0765058
0.0832397
0.0930262
0.106383
0.123643
0.144888
0.169819
0.196326
0.218965
0.235419
0.24724
0.255605
0.261407
0.265329
0.267852
0.26914
0.269396
0.0272648
0.0276559
0.0317671
0.0393492
0.050332
0.0652882
0.0843912
0.107678
0.134971
0.165779
0.197623
0.22444
0.243936
0.258114
0.268376
0.275719
0.280866
0.284324
0.286117
0.286444
-0.0356922
-0.0336226
-0.0239786
-0.00946044
0.00948863
0.0326842
0.0598299
0.0907773
0.12522
0.162584
0.200127
0.231308
0.254001
0.270733
0.283166
0.29243
0.299276
0.30411
0.306838
0.307186
-0.110875
-0.107437
-0.0896716
-0.063832
-0.0343108
-0.00162055
0.034291
0.0734217
0.115536
0.16016
0.204386
0.241097
0.268178
0.288654
0.304437
0.316776
0.326571
0.333882
0.33688
0.338304
-0.188095
-0.178037
-0.151577
-0.115631
-0.0766022
-0.0347866
0.00970726
0.0568713
0.106571
0.158429
0.20935
0.251561
0.282887
0.306885
0.325759
0.340895
0.353144
0.362724
0.368194
0.370467
-0.245979
-0.23476
-0.203346
-0.160962
-0.114592
-0.0652724
-0.013284
0.0412221
0.0979793
0.156559
0.213582
0.26054
0.295199
0.321596
0.342178
0.358478
0.37149
0.381608
0.38777
0.390229
-0.292497
-0.280881
-0.246028
-0.199019
-0.147335
-0.0922415
-0.0341458
0.0266025
0.0895854
0.154217
0.21663
0.267529
0.304688
0.332623
0.354113
0.370927
0.384186
0.394405
0.400624
0.403045
-0.330524
-0.318992
-0.282202
-0.2317
-0.175862
-0.116164
-0.0530392
0.013039
0.0814771
0.151514
0.218825
0.273271
0.312553
0.3417
0.363811
0.380863
0.394121
0.40427
0.410476
0.412797
-0.363334
-0.351949
-0.313704
-0.260506
-0.201298
-0.137743
-0.0703483
0.000355713
0.073686
0.148709
0.220566
0.278244
0.319423
0.349599
0.372195
0.389411
0.402666
0.412741
0.418957
0.421172
-0.39246
-0.381223
-0.34199
-0.286613
-0.224627
-0.157817
-0.0866942
-0.0118622
0.0658984
0.145495
0.221649
0.282503
0.325587
0.356829
0.379957
0.39739
0.41069
0.420709
0.426952
0.429076
-0.419099
-0.40795
-0.367889
-0.310711
-0.246417
-0.176826
-0.102483
-0.0240184
0.0577727
0.141741
0.22217
0.286291
0.331401
0.363816
0.387569
0.405285
0.418681
0.428689
0.43495
0.436979
-0.444018
-0.432916
-0.392129
-0.333404
-0.267144
-0.195177
-0.118016
-0.036257
0.0492846
0.137434
0.222121
0.289654
0.336997
0.370775
0.395292
0.413393
0.426945
0.436963
0.443248
0.445159
-0.467639
-0.456548
-0.415145
-0.355115
-0.287145
-0.213074
-0.133413
-0.0487066
0.04028
0.132412
0.221395
0.292571
0.342428
0.377827
0.403303
0.421918
0.435704
0.445794
0.452044
0.453899
-0.490335
-0.479187
-0.437195
-0.376069
-0.306623
-0.230728
-0.148868
-0.0615259
0.0306429
0.126591
0.219882
0.294956
0.347668
0.385004
0.411688
0.430988
0.445113
0.455318
0.461548
0.463363
-0.5123
-0.501007
-0.45844
-0.396452
-0.325688
-0.248234
-0.16445
-0.074743
0.0203285
0.119897
0.21747
0.296677
0.352615
0.392253
0.420454
0.440662
0.455275
0.465683
0.471887
0.473686
-0.533558
-0.522104
-0.479075
-0.416285
-0.344391
-0.265585
-0.180139
-0.0883655
0.00932165
0.112263
0.214055
0.297577
0.357094
0.399442
0.429525
0.450923
0.466223
0.476944
0.483157
0.484925
-0.554241
-0.542575
-0.499154
-0.435576
-0.362744
-0.282795
-0.195929
-0.102368
-0.00236359
0.103677
0.209529
0.297459
0.36088
0.406392
0.438804
0.461732
0.47794
0.489113
0.495385
0.49703
-0.574268
-0.562412
-0.518647
-0.45435
-0.380728
-0.299813
-0.211756
-0.116686
-0.0146794
0.094139
0.203802
0.296117
0.3637
0.41288
0.448137
0.473014
0.49037
0.5021
0.508454
0.509937
-0.593696
-0.581614
-0.537448
-0.472576
-0.398288
-0.316582
-0.227549
-0.131233
-0.0275417
0.0836925
0.196847
0.293394
0.365263
0.418517
0.457188
0.484568
0.503441
0.515829
0.522199
0.523454
-0.612335
-0.600151
-0.555552
-0.490202
-0.41536
-0.333017
-0.243231
-0.14592
-0.0408513
0.0724291
0.188658
0.289177
0.365255
0.422764
0.465495
0.496183
0.517131
0.530214
0.53634
0.537243
-0.630315
-0.61794
-0.572967
-0.507201
-0.431909
-0.349069
-0.258704
-0.16065
-0.0544999
0.0604563
0.179277
0.283349
0.363408
0.425145
0.472441
0.507499
0.53159
0.545575
0.550743
0.550841
-0.647496
-0.634929
-0.589657
-0.523517
-0.447855
-0.364657
-0.273882
-0.175298
-0.0683667
0.0478707
0.168815
0.27587
0.359527
0.425242
0.477233
0.51774
0.546872
0.563096
0.566042
0.563535
-0.66393
-0.6512
-0.605571
-0.539104
-0.46316
-0.379718
-0.288684
-0.189782
-0.0823232
0.034838
0.1574
0.266807
0.353522
0.422615
0.478712
0.525157
0.561831
0.584486
0.587362
0.575817
-0.679552
-0.66669
-0.6208
-0.554087
-0.47801
-0.394517
-0.303433
-0.2045
-0.0968377
0.020825
0.144432
0.255516
0.3447