/*--------------------------------*- C++ -*----------------------------------*\
| =========                 |                                                 |
| \\      /  F ield         | OpenFOAM: The Open Source CFD Toolbox           |
|  \\    /   O peration     | Version:  4.0                                   |
|   \\  /    A nd           | Web:      www.OpenFOAM.org                      |
|    \\/     M anipulation  |                                                 |
\*---------------------------------------------------------------------------*/
FoamFile
{
    version     2.0;
    format      ascii;
    class       surfaceScalarField;
    location    "11";
    object      phi;
}
// * * * * * * * * * * * * * * * * * * * * * * * * * * * * * * * * * * * * * //

dimensions      [0 3 -1 0 0 0 0];

internalField   nonuniform List<scalar> 
17370
(
-0.0915955
0.0960546
0.284552
-0.0776696
0.0595151
0.36493
-0.0431042
0.0316072
0.427665
-0.0222187
0.0160986
0.505372
-0.0114587
0.00857136
0.602289
-0.00637698
0.0049359
0.720499
-0.00375906
0.00292841
0.863737
-0.00220153
0.00165835
1.03599
-0.00115688
0.000753442
1.24291
-0.00034625
-5.22677e-05
1.49159
0.000445478
-0.000848054
1.49159
0.001247
-0.00174362
1.24319
0.00228242
-0.00300389
1.03636
0.0038287
-0.00499873
0.864077
0.00643352
-0.00861997
0.721244
0.011498
-0.0161285
0.603845
0.02224
-0.0316197
0.508819
0.0431077
-0.0595127
0.432573
0.0776675
-0.0960526
0.365161
0.0916029
0.197408
-0.127191
0.0881765
0.0390141
-0.36447
0.354151
-0.0713251
0.0816444
-0.446536
0.454327
-0.0791412
0.0713507
-0.520951
0.529069
-0.0634231
0.0553048
-0.613032
0.620771
-0.0479509
0.0402121
-0.727235
0.733815
-0.0335807
0.0270012
-0.86759
0.87247
-0.0217407
0.0168608
-1.03852
1.04182
-0.0131595
0.00985972
-1.24465
1.24695
-0.00736595
0.0050655
-1.49275
1.49457
-0.00322803
0.00140538
-1.49257
1.4942
0.000240924
-0.00187556
-1.24404
1.24585
0.0036833
-0.00549516
-1.03757
1.04003
0.007763
-0.0102281
-0.866177
0.86986
0.0135037
-0.0171871
-0.724658
0.729901
0.0220488
-0.0272912
-0.60916
0.615755
0.0338452
-0.040441
-0.51513
0.522454
0.0481435
-0.0554673
-0.439772
0.447664
0.0635488
-0.0714405
-0.374779
0.377291
0.0791818
-0.0816935
-0.257052
0.224717
0.071363
-0.0390275
-0.0691118
0.0596406
0.00947122
-0.0513474
0.0579094
-0.375027
0.368465
-0.0568058
0.0526938
-0.454034
0.458146
-0.0469579
0.0422391
-0.527639
0.532358
-0.0376013
0.033688
-0.620747
0.62466
-0.0296405
0.0259076
-0.734611
0.738344
-0.0218503
0.0182298
-0.873809
0.87743
-0.0144884
0.0113084
-1.0431
1.04628
-0.00808975
0.00531375
-1.24829
1.25106
-0.00233465
-0.000475595
-1.49653
1.49934
0.00327397
-0.0062113
-1.49698
1.49992
0.00895326
-0.0121279
-1.24977
1.25294
0.015258
-0.0189309
-1.04549
1.04916
0.0224855
-0.0264713
-0.877115
0.881101
0.0301532
-0.0341601
-0.738997
0.743004
0.0380272
-0.0426101
-0.626048
0.63063
0.0472901
-0.0529892
-0.535139
0.540839
0.057061
-0.0581183
-0.458374
0.459432
0.0514985
-0.0315248
-0.337319
0.317345
0.0094988
-0.0690437
0.0595449
-0.0540277
0.0502122
0.00381544
-0.0312419
0.0410407
-0.359339
0.34954
-0.0445501
0.0441061
-0.459981
0.460425
-0.0414725
0.038486
-0.536402
0.539389
-0.0349628
0.0317493
-0.628328
0.631541
-0.0282341
0.0251047
-0.741602
0.744732
-0.0217588
0.0187405
-0.880666
0.883684
-0.0154171
0.0123529
-1.04947
1.05254
-0.00897377
0.0058846
-1.25407
1.25716
-0.00249929
-0.000656658
-1.50238
1.50553
0.00380571
-0.00715335
-1.50313
1.50648
0.0101757
-0.0134667
-1.25626
1.25955
0.01645
-0.019688
-1.05262
1.05586
0.0226312
-0.025901
-0.884517
0.887787
0.0289689
-0.0324176
-0.746689
0.750138
0.0355724
-0.0390248
-0.634873
0.638326
0.0419515
-0.044522
-0.545102
0.547673
0.0449065
-0.0413226
-0.457712
0.454128
0.0314361
-0.0152335
-0.298687
0.282485
0.00384476
-0.0539064
0.0500616
-0.0473982
0.0452247
0.00217345
-0.0199312
0.0289996
-0.339892
0.330824
-0.0339128
0.0346422
-0.460129
0.459399
-0.0335156
0.0316324
-0.541568
0.543452
-0.0295281
0.0274052
-0.634239
0.636361
-0.0247921
0.0222547
-0.747639
0.750177
-0.0193958
0.0167733
-0.886557
0.889179
-0.0138884
0.0112423
-1.0554
1.05805
-0.00828615
0.00548742
-1.26015
1.26295
-0.0022502
-0.000927396
-1.50876
1.51193
0.0040852
-0.00726728
-1.50982
1.513
0.00999124
-0.0128463
-1.26265
1.26551
0.0153859
-0.0181419
-1.05888
1.06163
0.0206443
-0.023381
-0.890875
0.893612
0.02581
-0.0283053
-0.753189
0.755684
0.0303066
-0.0323077
-0.640946
0.642947
0.0341204
-0.035168
-0.549252
0.550299
0.0343584
-0.0293339
-0.449598
0.444574
0.0201498
-0.0087183
-0.26871
0.257278
0.00220717
-0.0472139
0.0450068
-0.0436285
0.0426118
0.00101671
-0.0104555
0.0170461
-0.322818
0.316228
-0.0220284
0.0237939
-0.458155
0.45639
-0.0236942
0.02261
-0.545068
0.546152
-0.021111
0.019683
-0.638081
0.639509
-0.0182631
0.0169611
-0.752041
0.753343
-0.0153862
0.0137508
-0.891394
0.893029
-0.0117184
0.0096389
-1.06045
1.06253
-0.00715754
0.0046922
-1.26557
1.26804
-0.00173864
-0.0012361
-1.51502
1.518
0.00416852
-0.0070206
-1.516
1.51886
0.00937112
-0.0117089
-1.26812
1.27045
0.0136424
-0.0155045
-1.06404
1.0659
0.0169835
-0.0183745
-0.895706
0.897097
0.0195099
-0.0208505
-0.757439
0.75878
0.022156
-0.0235429
-0.644697
0.646084
0.0245145
-0.0244854
-0.550823
0.550794
0.0225926
-0.0174561
-0.439317
0.434181
0.0107243
-0.0042301
-0.248342
0.241848
0.00106081
-0.0433719
0.0423111
-0.042057
0.0417783
0.000278747
-0.00449358
0.00859698
-0.311033
0.30693
-0.0128574
0.0152768
-0.454291
0.451872
-0.0163116
0.0164742
-0.546577
0.546415
-0.016401
0.0162236
-0.640285
0.640462
-0.0156545
0.0148122
-0.754383
0.755225
-0.0135953
0.0122698
-0.894372
0.895698
-0.0105574
0.00875378
-1.06436
1.06617
-0.00647933
0.00414531
-1.27038
1.27271
-0.00130974
-0.00150059
-1.52084
1.52365
0.00428165
-0.00702573
-1.5216
1.52435
0.00923696
-0.0113452
-1.27259
1.2747
0.0129835
-0.0145132
-1.06744
1.06897
0.0156783
-0.0167154
-0.898213
0.89925
0.0173963
-0.0177234
-0.759667
0.759994
0.0177284
-0.0176396
-0.646669
0.64658
0.0173276
-0.0161184
-0.550228
0.549019
0.0135314
-0.00908213
-0.42941
0.424961
0.0048129
-0.00161425
-0.237318
0.234119
0.000330896
-0.0417097
0.0413788
-0.0416522
0.0416167
3.54717e-05
-0.00203272
0.00476048
-0.303614
0.300886
-0.00860221
0.0117708
-0.449059
0.445891
-0.0142172
0.0155962
-0.545654
0.544275
-0.0161709
0.0163169
-0.640431
0.640285
-0.0160821
0.0155309
-0.755918
0.756469
-0.0145589
0.0132888
-0.896969
0.898239
-0.0114913
0.00949191
-1.06805
1.07005
-0.0069282
0.0042791
-1.27518
1.27783
-0.00110402
-0.00201399
-1.52658
1.52969
0.00509301
-0.00813248
-1.52721
1.53025
0.0105794
-0.0128799
-1.27689
1.27919
0.0146346
-0.0161561
-1.07049
1.07201
0.0171743
-0.0178986
-0.900101
0.900826
0.0182155
-0.0181523
-0.760041
0.759978
0.0178131
-0.017027
-0.646138
0.645352
0.0154515
-0.0128014
-0.547063
0.544413
0.00943431
-0.00536617
-0.420723
0.416654
0.0024348
-0.000682068
-0.231791
0.230039
9.99194e-05
-0.0411952
0.0410953
-0.0416146
0.0416119
2.68358e-06
-0.0011239
0.00301971
-0.298604
0.296709
-0.0063379
0.00981202
-0.442471
0.438997
-0.0132478
0.015685
-0.542297
0.53986
-0.0172004
0.0176628
-0.639927
0.639465
-0.0176449
0.0171361
-0.757029
0.757538
-0.0159874
0.0144772
-0.899643
0.901153
-0.0123787
0.0101061
-1.0722
1.07447
-0.00725208
0.00433994
-1.28063
1.28355
-0.000808395
-0.00269153
-1.53302
1.53652
0.0061295
-0.00947351
-1.53346
1.53681
0.0121444
-0.0146748
-1.28162
1.28415
0.0166117
-0.0183287
-1.07364
1.07536
0.0194779
-0.0202246
-0.901608
0.902355
0.020408
-0.0201674
-0.759788
0.759547
0.0194204
-0.0175823
-0.644033
0.642195
0.0148677
-0.0111364
-0.541136
0.537405
0.007392
-0.0037792
-0.412765
0.409152
0.00162405
-0.000471556
-0.228643
0.227491
8.31161e-05
-0.0410198
0.0409367
-0.0416137
0.0416336
-1.98443e-05
-0.000485811
0.0016098
-0.295197
0.294073
-0.00391641
0.00674269
-0.435726
0.432899
-0.0100053
0.0125899
-0.537197
0.534613
-0.0146767
0.0158062
-0.638719
0.63759
-0.0160915
0.0156679
-0.758
0.758423
-0.0146281
0.0132442
-0.902663
0.904047
-0.0112749
0.00910458
-1.07676
1.07893
-0.00634827
0.0035075
-1.28648
1.28932
-2.01514e-05
-0.00347463
-1.54009
1.54359
0.00687907
-0.0101381
-1.54018
1.54344
0.0127154
-0.0150982
-1.28667
1.28906
0.016844
-0.0183286
-1.07702
1.07851
0.0192856
-0.0198438
-0.902982
0.90354
0.0198066
-0.0190751
-0.75927
0.758538
0.0175104
-0.014993
-0.63989
0.637373
0.0120334
-0.00837736
-0.533537
0.529881
0.00520777
-0.00253835
-0.405958
0.403289
0.00109947
-0.000353522
-0.22655
0.225804
7.94935e-05
-0.0408497
0.0407702
-0.0416741
0.041732
-5.79202e-05
3.93687e-05
0.000443142
-0.293306
0.292824
-0.00165074
0.00333162
-0.430646
0.428965
-0.00548569
0.00733466
-0.532355
0.530506
-0.00896951
0.00998722
-0.63646
0.635443
-0.0105403
0.010547
-0.758594
0.758588
-0.010048
0.00915811
-0.90518
0.90607
-0.00773207
0.00604942
-1.08088
1.08256
-0.00381349
0.0014466
-1.29196
1.29433
0.00148411
-0.00440243
-1.54684
1.54976
0.00721024
-0.00983541
-1.54643
1.54906
0.0118118
-0.0135435
-1.29116
1.2929
0.0147096
-0.0155158
-1.07967
1.08048
0.0158325
-0.015714
-0.903781
0.903662
0.0151536
-0.0139734
-0.757456
0.756276
0.0124496
-0.0102783
-0.634964
0.632792
0.00797025
-0.00534389
-0.526695
0.524068
0.00325023
-0.00160258
-0.401162
0.399514
0.000735401
-0.000263121
-0.225218
0.224745
6.65077e-05
-0.0406997
0.0406332
-0.0418052
0.0418932
-8.80376e-05
0.000348479
-0.000288346
-0.292578
0.292518
-0.000169537
0.000939049
-0.427788
0.427018
-0.00203279
0.00305265
-0.529085
0.528065
-0.00402445
0.00468336
-0.634588
0.633929
-0.00510299
0.00519152
-0.758501
0.758413
-0.00494097
0.00439181
-0.906761
0.90731
-0.00343199
0.00223725
-1.08398
1.08518
-0.000593459
-0.00118811
-1.29639
1.29817
0.00337089
-0.00551014
-1.55229
1.55443
0.0075255
-0.00931916
-1.55128
1.55307
0.0105893
-0.0115587
-1.29422
1.29519
0.0120596
-0.0122356
-1.08095
1.08112
0.0120523
-0.0115109
-0.903292
0.90275
0.0107232
-0.00956927
-0.755088
0.753934
0.00828318
-0.00666965
-0.630899
0.629285
0.00510231
-0.00344378
-0.521968
0.520309
0.00217755
-0.00118233
-0.398244
0.397249
0.000617499
-0.000255145
-0.224344
0.223982
7.23071e-05
-0.0405656
0.0404933
-0.041992
0.0421034
-0.000111339
0.000591592
-0.000745751
-0.292568
0.292722
0.000743637
-0.000541563
-0.42657
0.426368
0.000159391
0.000228877
-0.527392
0.527004
-0.00060803
0.000856894
-0.633478
0.633229
-0.000980226
0.000931865
-0.758376
0.758425
-0.000674493
0.000235173
-0.907778
0.908217
0.000491727
-0.00137638
-1.08619
1.08708
0.00258152
-0.00386664
-1.29968
1.30097
0.00540738
-0.00686479
-1.55621
1.55767
0.00816338
-0.00922211
-1.55446
1.55552
0.00982347
-0.0101328
-1.29583
1.29614
0.0101841
-0.00994331
-1.08106
1.08082
0.00949177
-0.00878204
-0.902104
0.901395
0.00797261
-0.00695276
-0.752843
0.751823
0.00593465
-0.00476835
-0.62792
0.626754
0.00370998
-0.00263365
-0.51899
0.517914
0.00180742
-0.00111198
-0.396439
0.395744
0.000653634
-0.000298525
-0.223633
0.223278
9.06675e-05
-0.0404132
0.0403225
-0.0422265
0.0423628
-0.000136351
0.000785637
-0.00111745
-0.292976
0.293308
0.00137829
-0.00151281
-0.426355
0.42649
0.00157271
-0.00160512
-0.526849
0.526881
0.00166219
-0.00176505
-0.633166
0.633269
0.00195646
-0.00222084
-0.758578
0.758842
0.00262759
-0.00311998
-0.908669
0.909162
0.00380423
-0.00456166
-1.08788
1.08863
0.00552732
-0.00650105
-1.30208
1.30305
0.00760391
-0.00857254
-1.55886
1.55983
0.00934014
-0.00984565
-1.55629
1.5568
0.0100204
-0.00992888
-1.2962
1.29611
0.00960504
-0.00906674
-1.08042
1.07988
0.0084379
-0.00763549
-0.900635
0.899833
0.00683352
-0.00591122
-0.750862
0.74994
0.00505493
-0.00412877
-0.625732
0.624806
0.00331963
-0.00250275
-0.516999
0.516182
0.00184811
-0.00123963
-0.39511
0.394502
0.000778442
-0.000373446
-0.222903
0.222498
0.00011734
-0.0402193
0.040102
-0.0425173
0.0426892
-0.000171893
0.00102225
-0.00149852
-0.293711
0.294187
0.00196883
-0.00233587
-0.426745
0.427112
0.00269165
-0.00301449
-0.527067
0.52739
0.00339345
-0.00377978
-0.63352
0.633906
0.00425766
-0.00475303
-0.759222
0.759718
0.00536838
-0.00600141
-0.909717
0.91035
0.00677365
-0.00754224
-1.08938
1.09015
0.00843393
-0.00925658
-1.30393
1.30475
0.0101014
-0.0107415
-1.56061
1.56125
0.0111291
-0.0112139
-1.55707
1.55716
0.0110276
-0.0106089
-1.29587
1.29545
0.0100541
-0.00931347
-1.07924
1.0785
0.00855032
-0.00766053
-0.89899
0.898101
0.00682607
-0.00591321
-0.749034
0.748121
0.00509871
-0.00424293
-0.623933
0.623078
0.00350561
-0.00275352
-0.515417
0.514664
0.00212142
-0.00148615
-0.393891
0.393256
0.000961661
-0.000471239
-0.222054
0.221564
0.000150251
-0.0399691
0.0398189
-0.0428851
0.0431022
-0.000217094
0.00131066
-0.00194692
-0.29474
0.295376
0.00261558
-0.00318714
-0.427575
0.428146
0.00378961
-0.00435237
-0.527831
0.528394
0.00500508
-0.00564394
-0.634422
0.635061
0.0063949
-0.00713055
-0.760335
0.761071
0.00798976
-0.00881837
-0.911075
0.911904
0.00976197
-0.0106363
-1.09096
1.09183
0.0115742
-0.0123649
-1.30555
1.30634
0.0130851
-0.01352
-1.56178
1.56221
0.0136382
-0.0134131
-1.55708
1.55686
0.0129513
-0.0122367
-1.29487
1.29416
0.0114523
-0.0104951
-1.07765
1.07669
0.00957271
-0.00854353
-0.897148
0.896118
0.00761061
-0.00661596
-0.747178
0.746184
0.005745
-0.0048409
-0.622212
0.621308
0.00406397
-0.00326193
-0.513901
0.513099
0.00256559
-0.00183336
-0.39258
0.391848
0.00120203
-0.000594359
-0.221019
0.220412
0.000190689
-0.0396499
0.0394592
-0.0433518
0.0436295
-0.000277687
0.00168329
-0.0025138
-0.296101
0.296931
0.00340812
-0.00419558
-0.428808
0.429595
0.00504398
-0.00584055
-0.529068
0.529865
0.00676009
-0.00765149
-0.635836
0.636728
0.00868657
-0.00968549
-0.761943
0.762942
0.0108292
-0.0119046
-0.912848
0.913923
0.0130898
-0.0141447
-1.09278
1.09384
0.0152198
-0.0160656
-1.30714
1.30799
0.0167538
-0.0170612
-1.56257
1.56288
0.0169701
-0.0164725
-1.55649
1.55599
0.0157459
-0.0147422
-1.2933
1.2923
0.0137071
-0.0124975
-1.07561
1.0744
0.0113667
-0.0101324
-0.894991
0.893757
0.00903224
-0.00787307
-0.745115
0.743956
0.00686597
-0.00582462
-0.62035
0.619309
0.00492875
-0.00399626
-0.512248
0.511316
0.00317247
-0.00228682
-0.391049
0.390163
0.00150788
-0.000748419
-0.219734
0.218975
0.000240822
-0.0392465
0.0390057
-0.0439491
0.0443095
-0.00036042
0.00217611
-0.00325339
-0.297869
0.298947
0.00442253
-0.00545798
-0.430479
0.431514
0.00657341
-0.00761855
-0.530798
0.531843
0.00882186
-0.00998984
-0.637792
0.63896
0.0113477
-0.0126569
-0.764106
0.765415
0.014148
-0.0155361
-0.91513
0.916518
0.0170415
-0.0183506
-1.09499
1.0963
0.0196422
-0.0206117
-1.30887
1.30984
0.0213328
-0.0215575
-1.56314
1.56336
0.0212813
-0.0205106
-1.55536
1.55459
0.0195016
-0.0181724
-1.29113
1.2898
0.0168402
-0.0153172
-1.07304
1.07151
0.0139156
-0.0124041
-0.892381
0.89087
0.0110682
-0.00966783
-0.742679
0.741279
0.00845376
-0.00719752
-0.61818
0.616924
0.00611303
-0.00497719
-0.51031
0.509174
0.00396551
-0.00286806
-0.389187
0.38809
0.00189587
-0.000942944
-0.218128
0.217176
0.00030434
-0.0387404
0.0384361
-0.0447199
0.045193
-0.00047314
0.00283152
-0.00422595
-0.300157
0.301551
0.00573403
-0.00705821
-0.432679
0.434003
0.00847152
-0.00979349
-0.533104
0.534426
0.0113216
-0.0128252
-0.640376
0.641879
0.0145929
-0.0163039
-0.766919
0.76863
0.0182427
-0.0200235
-0.918041
0.919822
0.0219291
-0.0235656
-1.0977
1.09933
0.0251483
-0.0262973
-1.31085
1.312
0.0270941
-0.027253
-1.56353
1.56369
0.0267827
-0.0257045
-1.55366
1.55258
0.0243647
-0.0226462
-1.28828
1.28656
0.0209505
-0.0190351
-1.06979
1.06787
0.0172895
-0.0154212
-0.889158
0.88729
0.0137789
-0.0120622
-0.739708
0.737992
0.0105731
-0.00902667
-0.61555
0.614003
0.0076832
-0.00626552
-0.507956
0.506538
0.00499627
-0.00361558
-0.386886
0.385505
0.00239272
-0.0011924
-0.21612
0.21492
0.000386805
-0.0381094
0.0377226
-0.0457259
0.0463496
-0.000623784
0.00369818
-0.00550161
-0.303121
0.304925
0.00743275
-0.00910436
-0.435547
0.437218
0.0108683
-0.0125227
-0.536119
0.537773
0.0144589
-0.0164046
-0.643714
0.645659
0.0187247
-0.0209739
-0.770517
0.772766
0.0235008
-0.0257862
-0.921722
0.924007
0.0281809
-0.0302041
-1.10106
1.10308
0.0321362
-0.0335017
-1.31318
1.31454
0.0343881
-0.0344654
-1.56376
1.56384
0.0337581
-0.0323034
-1.5513
1.54984
0.030556
-0.0283557
-1.28459
1.28239
0.0262081
-0.023802
-1.06568
1.06328
0.0216245
-0.0193086
-0.885139
0.882823
0.0172832
-0.0151727
-0.736025
0.733915
0.0133411
-0.0114303
-0.612301
0.61039
0.00975471
-0.00796552
-0.505049
0.50326
0.00635054
-0.00458906
-0.384023
0.382262
0.00303622
-0.00151515
-0.213609
0.212088
0.000494602
-0.0373262
0.0368316
-0.0470553
0.0478836
-0.000828263
0.00486342
-0.00721369
-0.306978
0.309329
0.00970585
-0.0118339
-0.439264
0.441392
0.0140529
-0.0161431
-0.540028
0.542119
0.0186197
-0.0211289
-0.64802
0.65053
0.0241451
-0.0270524
-0.77511
0.778017
0.0302896
-0.0331977
-0.926355
0.929263
0.0362294
-0.0387491
-1.10518
1.1077
0.0410876
-0.0426827
-1.31591
1.3175
0.0436344
-0.0435734
-1.56379
1.56373
0.0425459
-0.0406077
-1.54812
1.54619
0.0383469
-0.035542
-1.27987
1.27707
0.0328289
-0.0298084
-1.06051
1.05749
0.0270892
-0.0242133
-0.880113
0.877237
0.0217126
-0.0191208
-0.73143
0.728838
0.0168763
-0.0145296
-0.608249
0.605902
0.0124518
-0.0101988
-0.501426
0.499173
0.00813562
-0.00586699
-0.380454
0.378185
0.00386705
-0.001925
-0.210477
0.208535
0.00062972
-0.0363556
0.0357259
-0.0488315
0.0499641
-0.00113255
0.00655144
-0.0096785
-0.312018
0.315145
0.0129406
-0.0156766
-0.444086
0.446822
0.0184957
-0.0211797
-0.545084
0.547768
0.0244104
-0.0277011
-0.653532
0.656823
0.0316077
-0.0353242
-0.780972
0.784689
0.0394155
-0.0430402
-0.932166
0.935791
0.0467629
-0.0497908
-1.11023
1.11326
0.052532
-0.0543266
-1.31905
1.32085
0.0552745
-0.0549736
-1.56347
1.56317
0.0535
-0.0509331
-1.5439
1.54134
0.0480226
-0.0444626
-1.27386
1.2703
0.0410464
-0.0372611
-1.05403
1.05024
0.0338641
-0.0302836
-0.873839
0.870259
0.0271842
-0.0239913
-0.725699
0.722506
0.0212407
-0.0183727
-0.603185
0.600317
0.0158203
-0.0130171
-0.496887
0.494084
0.0104061
-0.00749445
-0.375985
0.373073
0.00492579
-0.00242691
-0.20657
0.204071
0.000787882
-0.0351495
0.0343616
-0.0512413
0.0528672
-0.00162585
0.00918691
-0.0134303
-0.318671
0.322914
0.0177056
-0.0212108
-0.450416
0.453921
0.0248034
-0.0282715
-0.551675
0.555144
0.0324982
-0.0367868
-0.660625
0.664913
0.0418081
-0.0464884
-0.788407
0.793088
0.0515465
-0.0559531
-0.939396
0.943803
0.0604002
-0.0639455
-1.11627
1.11982
0.0670576
-0.0689752
-1.32253
1.32445
0.0697891
-0.0690927
-1.56258
1.56188
0.0670036
-0.0636275
-1.53833
1.53496
0.0599089
-0.0554266
-1.26627
1.26178
0.0511568
-0.0464417
-1.04593
1.04121
0.0422143
-0.0377587
-0.86604
0.861585
0.0339043
-0.0299451
-0.718579
0.71462
0.0265493
-0.0230268
-0.596872
0.593349
0.0198914
-0.0164284
-0.491191
0.487728
0.0131576
-0.00946441
-0.370361
0.366668
0.00621544
-0.00307005
-0.201663
0.198517
0.000990503
-0.0336499
0.0326594
-0.0546084
0.0570607
-0.00245225
0.0134396
-0.0192954
-0.327611
0.333467
0.0249317
-0.0294758
-0.458796
0.46334
0.0341598
-0.0387424
-0.560281
0.564864
0.0443184
-0.0498669
-0.669764
0.675312
0.0561925
-0.06194
-0.797798
0.803546
0.0680217
-0.0732115
-0.948198
0.953388
0.0783227
-0.0822659
-1.12326
1.1272
0.0855536
-0.0873783
-1.3261
1.32793
0.0877931
-0.086451
-1.56074
1.5594
0.0835112
-0.0791078
-1.53101
1.52661
0.0744105
-0.0688383
-1.25673
1.25116
0.0635735
-0.0577792
-1.03589
1.0301
0.0525847
-0.0470987
-0.856404
0.850918
0.042341
-0.0374482
-0.70977
0.704877
0.0332548
-0.0289194
-0.589027
0.584691
0.0250672
-0.020806
-0.484042
0.479781
0.0167431
-0.0121073
-0.363237
0.358601
0.00793744
-0.00387792
-0.19552
0.19146
0.00123499
-0.0317832
0.0305482
-0.0595505
0.0634838
-0.00393324
0.0205528
-0.0287665
-0.33998
0.348193
0.0362557
-0.0421921
-0.470067
0.476003
0.0483721
-0.0544836
-0.571571
0.577682
0.0618261
-0.068886
-0.681459
0.688519
0.0766574
-0.0835041
-0.809351
0.816198
0.0905379
-0.0963478
-0.958499
0.964309
0.101846
-0.105869
-1.13088
1.1349
0.108939
-0.110295
-1.3293
1.33066
0.1099
-0.107551
-1.5574
1.55505
0.103448
-0.0977576
-1.52147
1.51578
0.0918979
-0.085076
-1.24491
1.23809
0.078698
-0.0717123
-1.02362
1.01664
0.0654573
-0.0588387
-0.844626
0.838008
0.0530806
-0.0471344
-0.698947
0.693001
0.0420227
-0.0367354
-0.579311
0.574024
0.0320295
-0.0267703
-0.475078
0.469819
0.0216664
-0.0157265
-0.354219
0.348279
0.0103144
-0.00502124
-0.187711
0.182418
0.0015813
-0.0294554
0.0278741
-0.0672359
0.0744966
-0.0072607
0.0344429
-0.0463601
-0.357932
0.369849
0.0563936
-0.0639734
-0.485399
0.492979
0.0719231
-0.0798335
-0.586294
0.594204
0.0890237
-0.0974167
-0.696001
0.704394
0.106252
-0.113734
-0.822891
0.830372
0.121126
-0.126962
-0.969757
0.975592
0.132189
-0.13569
-1.13836
1.14186
0.137928
-0.138266
-1.33128
1.33162
0.136529
-0.132721
-1.5518
1.54799
0.127097
-0.119843
-1.5092
1.50194
0.112636
-0.104435
-1.2305
1.2223
0.0968599
-0.0886262
-1.00891
1.00068
0.0812773
-0.0735057
-0.830517
0.822746
0.0667274
-0.0596979
-0.685877
0.678847
0.0536328
-0.0473512
-0.567392
0.56111
0.0417498
-0.0353899
-0.463812
0.457452
0.0289439
-0.0211571
-0.342572
0.334785
0.0138064
-0.00654986
-0.1776
0.170344
0.0019605
-0.0265288
0.0245683
-0.0815122
0.084759
-0.00324688
0.0230854
-0.0332135
-0.384807
0.394935
0.0424514
-0.0502076
-0.505815
0.513571
0.0593701
-0.069065
-0.604224
0.613919
0.0797623
-0.0893293
-0.712539
0.722106
0.0999851
-0.109408
-0.837181
0.846604
0.119189
-0.127575
-0.98057
0.988956
0.135906
-0.142578
-1.14433
1.151
0.148516
-0.152392
-1.33081
1.33469
0.154438
-0.153772
-1.54298
1.54232
0.150258
-0.144285
-1.49363
1.48766
0.137259
-0.128321
-1.21326
1.20432
0.119554
-0.109014
-0.991699
0.981158
0.0993165
-0.0886303
-0.814109
0.803422
0.0790523
-0.0688665
-0.670605
0.660419
0.0596431
-0.0501596
-0.553215
0.543732
0.0419289
-0.0325159
-0.449786
0.440373
0.0236726
-0.0144956
-0.327104
0.317927
0.00761908
-0.00262154
-0.163757
0.15876
0.000353982
-0.0228068
0.0224528
-0.0919911
0.0884084
0.00358276
-0.000386336
-0.00554656
-0.408023
0.413956
0.0132589
-0.0200932
-0.525712
0.532547
0.0287929
-0.037203
-0.623886
0.632296
0.0468026
-0.0555862
-0.731668
0.740452
0.0649724
-0.0734957
-0.855604
0.864127
0.082368
-0.0897051
-0.997125
1.00446
0.0972109
-0.102904
-1.15761
1.16331
0.107947
-0.11099
-1.3384
1.34144
0.112031
-0.110695
-1.54098
1.53965
0.106697
-0.100454
-1.48107
1.47483
0.0931741
-0.0842007
-1.19507
1.1861
0.0755623
-0.0656752
-0.970503
0.960616
0.0564163
-0.0461415
-0.792068
0.781793
0.0369546
-0.0275276
-0.648443
0.639016
0.0194733
-0.0111787
-0.531701
0.523407
0.00410788
0.00259021
-0.428523
0.421825
-0.00713621
0.00928209
-0.3075
0.305354
-0.00848569
0.0054575
-0.152146
0.155174
-0.00227681
-0.0210852
0.023362
-0.0906842
0.0869386
0.00374559
-0.00793601
0.00540181
-0.42319
0.425725
-0.000513146
-0.00508011
-0.542476
0.548069
0.0121932
-0.0193672
-0.641076
0.64825
0.0275279
-0.0350355
-0.748781
0.756289
0.0432745
-0.0506186
-0.872001
0.879345
0.0580699
-0.0646138
-1.01166
1.0182
0.0711683
-0.0762876
-1.16871
1.17383
0.0804674
-0.0828533
-1.34404
1.34642
0.083677
-0.082198
-1.53791
1.53643
0.0783358
-0.0725509
-1.46837
1.46258
0.0660285
-0.058311
-1.17748
1.16976
0.0506718
-0.0423149
-0.950953
0.942596
0.0346314
-0.0262696
-0.772231
0.763869
0.0191238
-0.0118298
-0.629317
0.622023
0.00585247
0.00020933
-0.513621
0.507559
-0.00483964
0.0088139
-0.413168
0.409194
-0.0109104
0.0105899
-0.29917
0.299491
-0.00810915
0.00461168
-0.153942
0.15744
-0.00176587
-0.0236336
0.0253995
-0.0878252
0.084297
0.00352814
-0.0102776
0.00969204
-0.432574
0.43316
-0.00653253
0.00211762
-0.555666
0.560081
0.00396553
-0.00990969
-0.655284
0.661228
0.0168223
-0.0232048
-0.763559
0.769942
0.0301813
-0.0364371
-0.886278
0.892533
0.0431797
-0.0487548
-1.02438
1.02996
0.054569
-0.0587408
-1.17866
1.18283
0.0625131
-0.0647
-1.3488
1.35099
0.0653824
-0.0638687
-1.53486
1.53335
0.0606349
-0.0558023
-1.45676
1.45193
0.0503252
-0.0436214
-1.16241
1.1557
0.0373887
-0.0306814
-0.934633
0.927925
0.0244575
-0.0180535
-0.756191
0.749787
0.0123007
-0.00669896
-0.614493
0.608891
0.00217622
0.00196219
-0.500454
0.496315
-0.00487932
0.00717308
-0.402861
0.400567
-0.0082027
0.00723894
-0.295143
0.296107
-0.00533564
0.00296392
-0.156409
0.158781
-0.00115127
-0.0252352
0.0263864
-0.0851191
0.0822504
0.00286871
-0.0101048
0.0107552
-0.43854
0.437889
-0.0082933
0.00477366
-0.566476
0.569996
0.000133353
-0.00541752
-0.66721
0.672494
0.0111597
-0.0167126
-0.77595
0.781503
0.0226909
-0.0280879
-0.898444
0.903841
0.0338735
-0.0388759
-1.03546
1.04046
0.0438888
-0.0478626
-1.18697
1.19094
0.0512948
-0.0533367
-1.35301
1.35505
0.0540762
-0.052851
-1.53196
1.53074
0.0501564
-0.0459363
-1.44687
1.44265
0.0413359
-0.0358561
-1.14945
1.14397
0.0306958
-0.0250547
-0.921456
0.915815
0.0200496
-0.0148358
-0.74363
0.738416
0.0103672
-0.0059405
-0.603268
0.598841
0.00248177
0.00061574
-0.490946
0.487849
-0.00289055
0.00449459
-0.395824
0.39422
-0.00505295
0.00464692
-0.292502
0.292909
-0.00351112
0.00189509
-0.156993
0.15861
-0.000814589
-0.0258404
0.026655
-0.0830309
0.0806814
0.00234956
-0.0090816
0.00996069
-0.44237
0.441491
-0.0085519
0.00547595
-0.574849
0.577925
-0.00090767
-0.00355324
-0.677297
0.681758
0.0084596
-0.0132632
-0.786554
0.791358
0.018556
-0.0233737
-0.909005
0.913822
0.0286805
-0.0331037
-1.04527
1.04969
0.0376957
-0.0413814
-1.19473
1.19842
0.0445712
-0.0465442
-1.35697
1.35894
0.0473829
-0.046804
-1.52966
1.52908
0.0445335
-0.0410631
-1.43832
1.43485
0.0370765
-0.0323116
-1.13864
1.13387
0.028042
-0.023058
-0.910381
0.905397
0.0187099
-0.0143354
-0.733397
0.729023
0.0105309
-0.00675603
-0.594447
0.590672
0.00376023
-0.000917345
-0.483638
0.480795
-0.000861824
0.00222496
-0.390251
0.388888
-0.00309305
0.00307538
-0.28951
0.289528
-0.00237704
0.00138018
-0.156262
0.157259
-0.000615969
-0.0258759
0.0264919
-0.0815651
0.07977
0.00179515
-0.00755338
0.00858099
-0.445073
0.444045
-0.00730265
0.00484588
-0.582236
0.584693
-0.000774262
-0.00319434
-0.686005
0.689974
0.0078148
-0.0119345
-0.795977
0.800097
0.0165781
-0.0208618
-0.918699
0.922983
0.025924
-0.0299873
-1.05422
1.05828
0.034147
-0.0377379
-1.20202
1.20561
0.0412074
-0.0431949
-1.36104
1.36303
0.0443058
-0.0439365
-1.52827
1.5279
0.04233
-0.039082
-1.43134
1.42809
0.0356817
-0.031549
-1.12912
1.12499
0.027597
-0.0232661
-0.900604
0.896273
0.0192873
-0.0151384
-0.724523
0.720374
0.0118809
-0.00832495
-0.586725
0.583169
0.00541203
-0.00285538
-0.477143
0.474586
0.000956948
0.000648973
-0.385435
0.383829
-0.0015592
0.00185045
-0.286381
0.28609
-0.00154263
0.000974077
-0.154777
0.155346
-0.000476516
-0.0256031
0.0260796
-0.080759
0.0793537
0.00140531
-0.00606468
0.00708329
-0.447142
0.446123
-0.00585578
0.00351352
-0.588601
0.590943
0.000124621
-0.00364678
-0.693754
0.697276
0.00759612
-0.0115596
-0.804325
0.808288
0.0158466
-0.0202657
-0.927157
0.931576
0.0246529
-0.0285684
-1.06251
1.06643
0.0328901
-0.0362996
-1.20918
1.21259
0.0393993
-0.041883
-1.36503
1.36752
0.0432963
-0.0433329
-1.52767
1.5277
0.0420143
-0.0394099
-1.42509
1.42249
0.0363522
-0.0325247
-1.12059
1.11677
0.0288983
-0.0247947
-0.89185
0.887746
0.0210341
-0.0172176
-0.716278
0.712462
0.013788
-0.010391
-0.579411
0.576014
0.00761637
-0.00484846
-0.47122
0.468452
0.00275864
-0.00120948
-0.380487
0.378938
5.74867e-05
0.000623863
-0.282916
0.282234
-0.000774727
0.000596621
-0.152826
0.153004
-0.000361393
-0.0251511
0.0255125
-0.0805483
0.0793644
0.00118388
-0.00454206
0.00524466
-0.449048
0.448345
-0.0042211
0.00195335
-0.594357
0.596625
0.00130573
-0.0046499
-0.700902
0.704246
0.00841213
-0.0119857
-0.812182
0.815755
0.0163731
-0.0200341
-0.9355
0.939161
0.0243847
-0.0281347
-1.07054
1.07429
0.0323799
-0.0360241
-1.21607
1.21971
0.0394609
-0.0418124
-1.36988
1.37223
0.0436464
-0.044136
-1.52775
1.52824
0.043463
-0.041146
-1.41978
1.41746
0.0384272
-0.034828
-1.11299
1.10939
0.0313781
-0.0273244
-0.883388
0.879334
0.023716
-0.0198082
-0.708372
0.704464
0.0163832
-0.0128769
-0.572348
0.568842
0.00989639
-0.00718885
-0.465094
0.462387
0.00487034
-0.00303945
-0.375451
0.37362
0.00159663
-0.000608198
-0.279043
0.278055
6.96292e-05
0.0002752
-0.150338
0.149993
-0.000249691
-0.024492
0.0247417
-0.0806157
0.0797631
0.000852614
-0.00326078
0.00344857
-0.451162
0.450974
-0.00262348
0.000434187
-0.599334
0.601523
0.00245733
-0.00563393
-0.707479
0.710656
0.00920192
-0.0128744
-0.819294
0.822967
0.0166608
-0.0204577
-0.943054
0.946851
0.0247645
-0.0283183
-1.07849
1.08205
0.0326669
-0.0363063
-1.22324
1.22688
0.0398631
-0.0427863
-1.37509
1.37802
0.0451668
-0.0459902
-1.52888
1.52971
0.0455736
-0.0438945
-1.41529
1.41361
0.0415944
-0.038157
-1.1056
1.10216
0.0347116
-0.0308639
-0.875122
0.871274
0.0268955
-0.0230557
-0.700225
0.696385
0.0195449
-0.015833
-0.565232
0.56152
0.0128379
-0.00980099
-0.458771
0.455734
0.0073426
-0.0050342
-0.370293
0.367984
0.00340401
-0.00203245
-0.27473
0.273358
0.000915468
-9.9833e-05
-0.147323
0.146507
-0.000158255
-0.0236053
0.0237636
-0.0810806
0.0803708
0.000709845
-0.00226451
0.00242843
-0.453509
0.453345
-0.00110894
-0.000809307
-0.604244
0.606163
0.00375943
-0.0067543
-0.713501
0.716496
0.0101358
-0.0134007
-0.826394
0.829659
0.0172724
-0.020745
-0.950672
0.954145
0.0249853
-0.0289482
-1.08606
1.09002
0.0329604
-0.0369392
-1.23061
1.23459
0.040953
-0.044044
-1.38095
1.38404
0.0468847
-0.0485448
-1.53089
1.53255
0.0486092
-0.0475133
-1.41184
1.41075
0.0453369
-0.042181
-1.09869
1.09553
0.0389159
-0.0349449
-0.866959
0.862987
0.0310427
-0.026974
-0.691956
0.687887
0.0232903
-0.0193058
-0.557513
0.553528
0.0159888
-0.0127724
-0.452083
0.448867
0.0099058
-0.00728531
-0.36451
0.361889
0.00523814
-0.00341643
-0.269777
0.267955
0.00190388
-0.000580619
-0.143721
0.142397
-5.34856e-06
-0.0225471
0.0225524
-0.081774
0.0812117
0.000562288
-0.00125825
0.00119075
-0.456007
0.456074
-0.000108192
-0.00204736
-0.608645
0.610801
0.00483823
-0.00762622
-0.7192
0.721988
0.0110396
-0.0141253
-0.832944
0.83603
0.0178142
-0.0213719
-0.958083
0.961641
0.0254928
-0.0294086
-1.09386
1.09778
0.0336322
-0.037651
-1.23853
1.24255
0.0418851
-0.0457614
-1.38749
1.39137
0.049148
-0.0512166
-1.5343
1.53637
0.0520379
-0.0513012
-1.40967
1.40893
0.0496474
-0.0469156
-1.09229
1.08956
0.0435809