/*--------------------------------*- C++ -*----------------------------------*\
| =========                 |                                                 |
| \\      /  F ield         | OpenFOAM: The Open Source CFD Toolbox           |
|  \\    /   O peration     | Version:  4.0                                   |
|   \\  /    A nd           | Web:      www.OpenFOAM.org                      |
|    \\/     M anipulation  |                                                 |
\*---------------------------------------------------------------------------*/
FoamFile
{
    version     2.0;
    format      ascii;
    class       volScalarField;
    location    "57";
    object      p;
}
// * * * * * * * * * * * * * * * * * * * * * * * * * * * * * * * * * * * * * //

dimensions      [0 2 -2 0 0 0 0];

internalField   nonuniform List<scalar> 
918
(
0.556673
1.18736
0.00116277
0.556096
-0.0125427
1.15437
-0.507824
0.680064
0.536861
-0.108909
-0.0431551
0.536201
1.01499
0.78019
-1.1252
-0.0094104
0.652038
-0.383975
0.535953
-0.0536625
0.70523
0.543411
0.546437
0.537017
0.601397
0.756032
0.895807
0.0215724
0.00908313
0.0047911
-0.0123283
-0.0397743
-0.0334133
1.03803
1.08909
1.11178
0.504728
0.33187
-0.373408
-0.444435
-0.435336
-0.546116
0.675416
0.673456
-0.20422
0.683141
0.686487
0.523921
0.536228
0.537136
0.538171
0.537148
0.538531
0.404481
-0.111796
-0.143896
-0.0891863
-0.0804049
0.0561976
-0.0436626
-0.0462903
-0.041504
-0.041305
0.4541
0.530525
0.527456
0.541484
0.552096
1.12691
1.09885
1.12498
1.03858
1.05511
0.993009
0.965601
0.801579
0.823181
0.76437
0.752282
-1.55814
-2.51178
-0.534233
-0.283213
-0.0104449
-0.00655363
-0.000246648
0.648413
0.649054
0.651755
0.655524
1.08015
-0.381146
-0.481037
0.536092
0.534898
0.543233
0.543933
0.539951
0.539042
-0.0435633
-0.0393727
-0.0466384
-0.0494714
-0.049189
0.694255
0.694354
0.537548
0.534555
0.559167
0.580021
0.571613
0.278995
0.609232
0.62407
0.586105
0.749018
0.74222
0.751509
0.86942
0.83227
0.933039
0.956354
0.0168069
0.000278751
-0.0140231
-0.0191829
-0.0174119
0.500576
0.493146
0.520353
0.508149
0.510645
0.248235
0.114368
0.417132
0.442219
-0.291117
-0.355361
-0.43094
-0.459903
-0.567593
0.610993
0.668544
0.665518
-0.216839
-0.144277
-0.276245
-0.0705832
-0.132874
0.51421
0.521205
0.516214
0.53174
0.526213
0.528174
0.540492
0.537564
0.539123
0.466898
0.590693
0.330668
0.295585
-0.246798
-0.161077
-0.247598
-0.067943
-0.0630957
0.0699321
0.0952549
0.0432946
0.0316971
-0.0570033
-0.0488773
-0.0526145
-0.0403814
-0.0390164
0.446889
0.435743
0.466761
0.474288
0.518876
0.52025
0.524357
0.522486
0.916505
0.938859
0.946318
0.920144
-3.50378
-6.28973
0.0423686
0.17926
-0.00642048
-0.00867182
0.00241754
-0.00571645
0.000864562
-0.00184609
-0.00415538
-0.00558753
-0.000836265
0.00088648
0.641906
0.642737
1.00147
1.00718
0.978298
0.930649
0.524279
0.526359
0.531871
0.527747
-0.0388856
-0.0394399
-0.0393803
0.688874
0.69291
0.691523
0.240845
0.151746
0.329675
0.358557
0.635396
0.623717
0.633801
0.6466
0.68178
0.963762
0.981892
0.980223
0.988513
1.0326
1.04905
1.01429
0.480091
0.490037
0.485007
0.523466
0.521235
0.52214
0.51793
0.519265
0.517201
-0.0364677
-0.417275
0.490422
0.507937
0.491842
0.495282
0.690981
0.769255
0.655958
0.66121
0.659742
-0.00209132
-0.0604356
0.251273
0.217672
0.386706
0.422979
0.402014
0.887612
0.848113
0.898125
0.871642
0.832958
0.859007
-0.368889
-1.87118
-0.988761
0.529027
0.343418
0.43044
0.0135646
-0.0034642
0.0011445
1.00037
1.07377
0.646533
0.820601
0.823917
0.719279
0.750149
0.805243
0.729956
0.765362
0.800982
0.782909
0.567374
0.503727
0.519452
0.838401
0.894079
0.122382
0.0620498
0.0180539
0.113807
0.170708
0.145024
1.03449
0.948148
1.01857
0.534314
0.535029
-0.00359621
-0.0177152
0.539253
0.539306
-0.0115017
-0.000359469
0.41386
-0.83353
0.104148
0.527815
0.517786
0.534877
-0.0915948
0.356179
-0.0438809
0.0507467
-0.00489703
0.532079
0.465154
0.424479
0.00325896
-0.0175824
-0.0440197
-0.216456
0.531984
0.530289
0.534344
0.535292
0.535969
-0.0162158
-0.0119831
-0.0089535
-0.0422019
-0.0376718
-0.0471804
0.498901
0.517739
-0.170111
0.534487
0.536618
0.536438
0.529683
0.535321
0.533567
-0.0079086
-0.01384
-0.0162742
0.222234
0.351965
0.65413
0.742168
0.625463
0.401075
0.165562
0.557135
0.620687
0.526091
0.679939
0.664653
0.679949
0.169581
0.0192965
0.178017
0.119207
0.525673
0.524376
0.51604
0.513018
0.52974
0.52785
0.532412
0.529423
0.532375
0.533761
-0.049388
-0.0742959
-0.0864895
-0.155666
0.310816
0.572647
0.253732
0.284217
0.143643
-0.0387635
-0.0397195
-0.0430643
-0.0489765
0.00408735
-0.0197109
0.0457391
0.0464804
0.0187179
-0.00762235
-0.00361263
-0.0144852
-0.0109297
0.525164
0.523908
0.529606
0.538625
0.474761
0.478538
0.443534
0.464191
0.449496
0.388452
0.423643
0.398847
-0.00315204
0.0064102
-0.000357764
-0.0148182
-0.0116772
-0.0297404
-0.0265488
-0.0227644
-0.018357
-0.025161
-0.0393223
-0.0408455
-0.173779
-0.28849
0.988294
0.910971
0.134151
0.521143
0.52759
0.524356
0.529253
0.532382
0.53319
0.530908
0.527462
0.518094
0.519642
0.516438
0.517295
-0.102239
-0.242675
-0.0706957
-0.143307
0.143159
0.627088
0.363898
0.300455
0.295402
0.522928
0.919549
0.704694
0.679452
0.690234
-0.343151
0.0475656
-0.278924
0.337714
0.163729
0.653929
0.70306
0.724776
0.672549
0.625492
-0.104661
0.554438
-0.0689533
-0.0180761
0.182311
0.0614394
0.675343
0.649976
0.65372
0.670688
0.68683
0.656294
0.641329
0.636314
0.666588
0.668841
0.489079
0.253107
0.204548
0.166042
0.642236
0.524503
0.577897
0.494431
0.520853
0.523469
0.5221
0.503717
0.51128
0.506819
0.513316
0.516787
0.525453
0.525904
0.521206
0.523338
-0.0542414
-0.058015
-0.0301376
-0.138993
-0.131995
-0.194647
-0.0644056
0.0740293
0.0346999
0.235411
0.340623
0.0515426
-0.0595884
-0.0324067
0.00919297
0.178875
0.205514
0.0753599
0.163649
0.153108
0.135903
0.237633
0.2418
-0.0239369
-0.0277652
-0.0305349
-0.0329269
0.0217929
0.0919732
0.101813
-0.00110849
-0.00711269
-0.0365525
-0.0360707
-0.0203904
-0.025002
-0.0213411
0.011951
-0.0494887
-0.0168341
-0.00248251
0.00199793
-0.000525457
-0.00613758
0.517476
0.519956
0.519506
0.525416
0.542906
0.557824
0.517648
0.496906
0.487722
0.490729
0.463671
0.473991
0.469656
0.483398
0.50456
0.514225
0.511453
0.514265
0.496687
0.498386
0.484878
0.488599
0.463356
0.444335
0.432485
-0.0387483
0.000114793
-0.00812447
-0.0342184
-0.00448839
-0.0167065
-0.00699585
0.0122018
-0.00387335
-0.00619807
-0.0168827
-0.0220759
-0.0215193
-0.0752477
0.0108437
-0.184178
-0.220454
-0.292539
0.890054
1.01411
0.810227
0.583333
0.602544
0.845839
0.930605
0.543729
0.735366
0.75887
0.586014
0.852886
0.525974
0.525577
0.523177
0.522656
0.523873
-0.00770385
0.0978899
0.0978425
0.159677
0.275079
0.387159
0.317198
0.192642
0.323101
0.3257
0.619349
0.631558
0.587071
0.611297
0.610853
0.425899
0.501747
0.553906
0.512105
0.564464
0.585554
0.540589
0.573071
0.523265
0.478051
0.47393
0.424701
0.444331
0.420517
0.4035
0.515511
0.492928
0.503462
0.493734
0.512775
0.539639
0.535021
0.562243
0.575548
0.497404
0.452895
0.462238
0.492602
0.453526
0.468634
0.48509
0.230247
0.131759
0.214531
-0.0725233
0.000716657
-0.0127077
-0.0608777
-0.0108634
0.273869
-0.418874
-0.394956
-1.02336
0.500416
0.954263
0.617561
0.590351
0.684193
0.666337
0.671092
0.687509
0.691094
0.630824
0.643597
0.646957
0.609474
0.631596
0.65061
0.647755
0.524459
0.386514
0.384004
0.334136
0.20429
0.243091
0.442053
0.365035
0.289709
0.290433
0.458705
0.345579
0.414819
0.449851
0.381325
0.335631
0.538678
0.603548
0.596114
0.570625
0.484919
0.498345
0.522243
0.556574
0.582197
0.612807
0.51277
0.518677
0.519913
0.517398
0.514662
0.517706
0.517937
0.52048
0.521147
0.524131
0.523172
-0.0437038
-0.0317339
-0.0450868
-0.053212
-0.0198759
-0.0229467
0.0199598
0.00565624
-0.010939
-0.00512588
-0.0303329
-0.0346549
-0.0300315
-0.0211679
0.0991885
0.111739
0.0949521
0.05537
0.248892
0.378795
0.453171
0.328344
0.221035
0.244206
0.264497
-0.0111885
0.0157613
0.00264912
0.0418822
0.0335246
-0.0311145
-0.0350233
-0.0323838
-0.0254858
-0.0163353
-0.0324808
-0.0352012
-0.0264919
-0.0312278
-0.0328467
-0.0364296
0.499166
0.492647
0.494367
0.488182
0.486891
0.501276
0.505515
0.507506
0.513008
0.515373
0.505344
0.511197
0.515061
-0.00729847
-0.0300245
-0.0341108
-0.0225595
-0.0254206
-0.0235329
-0.0251768
0.122296
0.0514016
0.0562062
0.00840391
-0.12273
-0.0650821
0.490096
0.489289
0.479329
0.719795
0.569133
0.48967
0.586841
0.692448
0.274625
0.471801
0.306479
0.887482
0.783497
0.929937
0.541269
0.243087
0.404538
0.449601
0.261386
0.336052
0.325954
0.214512
0.245608
0.282214
0.381602
0.263647
0.239981
-0.00270797
0.187477
0.30001
0.281842
0.406943
0.46812
0.264245
0.184144
0.139061
0.604746
0.623961
0.638361
0.610555
0.631692
0.5775
0.568193
0.585089
0.593892
0.589005
-0.751348
-0.458004
-1.40403
-0.724697
-0.270936
0.530683
0.500151
0.766902
0.647172
0.690272
0.675744
0.635008
0.60369
0.624711
0.649826
0.346377
0.457663
0.432827
0.437905
0.339674
0.27074
0.568933
0.564778
0.597981
0.621353
0.592804
0.622567
0.51059
0.510303
0.50978
0.50604
0.504314
0.506664
0.0583915
0.0269633
0.0634879
0.0439699
0.0207464
0.0089496
-0.00341485
-0.0131725
-0.0202173
-0.0203441
-0.00721972
-0.0031008
0.169597
0.108096
0.0277581
0.0578583
-0.00318351
-0.0722036
-0.0904298
0.013271
0.109524
0.099825
0.404091
0.654069
0.474047
0.641472
0.483541
0.539297
0.468016
0.459534
0.485088
0.378325
0.458736
0.241417
-0.265437
-0.174493
0.789639
0.802373
0.579903
0.402148
0.170997
0.352012
0.544046
0.475849
0.512209
0.581159
0.569513
0.0224949
0.0827
0.362117
0.589255
0.237312
0.228426
0.222251
0.403809
0.323701
)
;

boundaryField
{
    wall-4
    {
        type            zeroGradient;
    }
    velocity-inlet-5
    {
        type            zeroGradient;
    }
    velocity-inlet-6
    {
        type            zeroGradient;
    }
    pressure-outlet-7
    {
        type            fixedValue;
        value           uniform 0;
    }
    wall-8
    {
        type            zeroGradient;
    }
    frontAndBackPlanes
    {
        type            empty;
    }
}


// ************************************************************************* //
