/*--------------------------------*- C++ -*----------------------------------*\
| =========                 |                                                 |
| \\      /  F ield         | OpenFOAM: The Open Source CFD Toolbox           |
|  \\    /   O peration     | Version:  4.0                                   |
|   \\  /    A nd           | Web:      www.OpenFOAM.org                      |
|    \\/     M anipulation  |                                                 |
\*---------------------------------------------------------------------------*/
FoamFile
{
    version     2.0;
    format      ascii;
    class       surfaceScalarField;
    location    "57";
    object      phi;
}
// * * * * * * * * * * * * * * * * * * * * * * * * * * * * * * * * * * * * * //

dimensions      [0 3 -1 0 0 0 0];

internalField   nonuniform List<scalar> 
1300
(
3.75095
5.62643
-3.31892
3.75095
-7.76332
5.62643
-4.36959
4.36959
-0.537912
0.537912
1.87639
1.87456
-2.73891
2.73891
-2.21395
2.21395
-2.53639
2.53639
-5.24641
5.24641
-5.06911
5.06911
4.65694
-4.65694
-6.29132
6.29132
-0.97306
0.97306
-3.66003
3.66003
3.16965
-3.16965
-2.14806
2.14806
-0.048139
0.048139
-0.553483
4.30444
3.19747
3.19747
-2.00594
2.00594
-4.86748
4.86748
6.21796
-6.21796
5.32153
-5.32153
-2.00262
-2.44493
1.82491
-11.5305
-5.93841
-5.93841
-8.44037
8.44037
-2.81394
2.81249
2.94566
-2.94566
-1.77656
1.77656
-4.32984
-0.0397509
-4.32984
4.33925
0.0303348
4.33925
-0.603066
0.065154
-0.603066
3.96531
-3.96531
0.44382
0.0940922
0.44382
3.06524
-3.06524
-1.87711
3.7535
1.87385
-1.87189
6.17632
-1.87907
3.75363
-6.01231
6.01231
-2.95456
0.215658
-2.95456
2.55667
0.182237
2.55667
-6.83464
6.83464
-2.25503
0.0410821
-2.25503
2.18395
0.0300041
2.18395
2.87856
-2.87856
-2.64694
0.110549
-2.64694
2.41019
0.126204
2.41019
0.353518
5.27291
-5.97995
8.79243
-5.27291
0.0265065
5.20829
0.0381121
5.20829
-5.10603
0.0369208
-5.10603
5.0128
0.0563063
5.0128
4.74408
-0.0871431
4.74408
-4.77437
0.117428
-4.77437
-3.37015
-4.0387
-6.44014
0.148818
-6.44014
-1.05308
0.0800231
-1.05308
0.869628
0.103432
0.869628
-3.67863
3.67863
-4.07578
0.415749
-4.07578
3.12404
0.0456141
3.12404
1.86849
1.88246
5.61945
-5.61945
2.4498
-2.13571
-0.0123515
-2.13571
-2.1921
-3.12943
2.1921
-0.0440361
-0.280182
0.232043
-0.280182
3.1594
0.0380685
3.1594
2.24098
0.169211
-2.24098
0.235041
3.2661
-3.2661
1.33847
0.667466
1.33847
-5.56467
5.56467
4.95589
0.0569101
-4.95589
0.08841
6.15668
0.0612758
6.15668
-6.19956
-0.0183928
-6.19956
2.54208
-4.98701
-2.60503
6.11354
0.17778
-6.11354
0.175129
2.91722
0.0284378
2.91722
-2.9199
2.9199
-2.98436
0.0386999
-2.98436
-2.17558
0.399026
-2.17558
1.47773
0.298821
1.47773
-4.22808
-0.101754
-4.22808
-4.22757
0.151797
4.22757
0.111679
1.1267
-1.1267
-0.700386
0.0973205
-0.700386
-4.09027
-0.13781
4.09027
-0.124965
-3.85561
-0.109691
-3.85561
-3.02431
0.039958
3.02431
0.0409279
3.11282
0.0465831
-3.11282
0.0475773
-1.87082
3.75328
-1.88013
3.75398
-5.63221
-0.3801
-5.63221
6.32161
-0.309299
6.32161
3.31952
0.340508
-3.31952
0.364957
2.41968
0.136987
2.41968
-6.79977
-0.0348703
-6.79977
6.81687
0.0177683
6.81687
2.3221
0.0975786
-2.3221
0.0670716
2.1602
0.0237463
2.1602
2.89769
-0.0191348
2.89769
-2.87344
-0.00512289
-2.87344
2.79675
-2.79675
2.72599
0.0707555
-2.72599
0.0790487
-11.133
11.1146
-0.0350988
-11.0979
5.17319
5.17319
4.17226
0.571823
4.17226
-4.99235
0.217982
-4.99235
2.68634
-5.29137
3.07029
-6.44044
4.65859
-16.1891
4.30675
-8.34546
6.67983
-6.67983
6.5684
0.111433
-6.5684
0.128261
-1.1634
0.110321
-1.1634
-3.07503
-0.603597
-3.07503
4.32296
-0.644329
4.32296
-3.02831
3.02831
-3.07756
0.049244
3.07756
0.0464799
2.13449
0.0257119
-2.13449
-0.001225
0.362074
0.0817457
-0.362074
0.0818919
3.47447
-0.208371
3.47447
-3.07073
-0.195368
-3.07073
-1.25608
0.0926772
1.25608
0.0823879
-5.81338
0.248714
-5.81338
-11.1908
0.0929849
-11.1527
-6.10658
-6.10658
2.3338
11.1262
-2.89207
0.0186336
2.89207
0.0251475
2.9753
0.0530155
-2.9753
0.0553985
-2.86091
0.0641682
2.86091
0.0589842
-2.55069
0.37511
-2.55069
-1.07417
1.07417
-1.24159
0.167417
1.24159
0.236147
1.39636
-0.269656
1.39636
0.782667
0.0869617
-0.782667
0.0822806
-3.76033
-0.0952849
-3.76033
6.5544
-0.232794
6.5544
-2.95824
-0.112487
2.95824
-0.0605498
-0.0333548
11.1479
-5.13984
0.0338124
5.13984
-11.2092
11.243
-3.22193
0.671235
3.22193
0.950333
5.2856
0.279073
-5.2856
0.293248
6.76523
0.0516339
-6.76523
0.0853996
-2.58262
-0.492414
-2.58262
-5.04965
-0.582557
5.04965
-0.726695
-11.4741
-0.205483
11.6795
-11.4177
6.01887
0.137811
-6.01887
11.3808
-1.03009
-0.0966077
1.03009
0.0440756
1.7225
-0.326143
1.7225
3.66458
-0.190112
-3.66458
-0.0957476
-6.70597
-0.0937968
6.70597
-0.151566
-2.13856
-0.444054
2.13856
-0.416063
-4.26708
4.30515
1.90924
-2.40473
-2.58228
-5.53417
1.85188
1.9014
4.30167
-10.1547
-6.03439
-9.9796
7.26271
-6.96946
-9.24881
9.16166
7.83725
-7.94695
-5.78498
5.83146
6.4827
-6.44177
1.87878
1.87472
7.95997
-7.74431
-15.6332
15.2531
7.50277
-7.46169
15.7821
-15.817
-17.8616
17.9132
-5.69544
5.80599
-6.73677
6.73165
-6.96903
6.90848
-2.83295
-3.60749
13.1222
-12.9734
8.53804
-8.55039
-8.58263
8.99838
3.38256
0.922591
3.42915
-1.88218
3.76096
-1.87145
3.78068
2.70668
-5.53963
2.5847
-5.16698
4.32442
4.21362
-4.28038
-1.25378
-5.92362
5.95206
-5.81577
5.87475
9.10858
-9.14833
-1.88515
3.75988
-1.86883
3.77023
-3.42503
-2.35995
3.37942
0.922257
8.07966
5.04254
-8.25744
-1.72217
-8.01374
7.82363
-8.21866
8.02329
-0.435174
5.81836
-5.38318
4.43231
-1.56254
7.3809
5.70017
5.91815
5.86612
-5.58705
1.10334
-6.48652
-6.39811
-2.3619
2.45922
2.24612
-2.15203
6.10238
1.73488
5.97741
-5.73309
-2.21386
-5.82837
3.82077
2.01069
3.87001
4.07806
2.40463
4.11802
3.03058
-3.03586
0.00527733
-3.05655
6.08714
0.724017
-5.4165
-4.49425
4.96524
2.99472
5.14748
-5.51659
-2.22771
-5.15164
-9.55273
-6.08043
-10.1353
10.0977
5.15537
9.78838
-11.9713
11.8197
4.79116
2.71161
4.82117
-4.91843
-2.54326
-4.85136
11.6369
-2.6141
-9.02276
-10.3274
-7.53415
10.3096
5.47248
10.9692
6.94402
11.0546
4.42372
7.21314
-9.8962
2.36205
-3.86086
-1.83458
-3.78182
3.6634
2.14259
3.7896
-4.21637
-2.5204
-4.19774
-4.2936
-2.67542
4.31274
2.41891
-4.41364
-3.80502
4.52612
2.38235
4.03004
-10.0644
4.31542
-7.92291
-9.20191
-3.77147
-9.07365
3.49865
2.60329
-6.10194
-2.04098
8.46174
-4.24812
7.20796
-5.16737
-3.38301
-5.1686
-6.85736
-1.72527
-6.70557
-8.88775
8.39534
-9.18674
8.54241
12.557
-5.67266
-6.88437
-3.96837
-2.4734
3.9208
-0.49165
-3.7106
3.71588
0.0503532
3.83104
4.75363
4.26198
-3.88505
-1.93072
-3.82965
3.82666
2.04809
3.89083
6.81826
2.29032
6.8486
-6.58328
-2.56506
-6.68503
9.0479
-8.64887
2.85586
-2.76318
5.38282
2.64047
-5.17445
-2.83929
6.21418
-3.2152
-2.99899
-12.1999
10.5342
1.66569
-4.81896
-0.386655
-0.338516
-5.49031
-3.75849
5.37288
0.545265
11.0794
7.32093
-5.51275
5.76147
6.16678
6.22369
-0.174419
5.81363
-5.1424
5.26725
-2.54814
-2.71911
5.44116
-5.57897
-1.24387
-5.49119
4.24732
0.39844
1.55734
-1.3253
-1.83811
-0.523792
-1.75583
1.33325
0.912875
1.415
0.928375
1.53085
-2.94841
0.556033
2.39238
-2.02003
-1.596
-3.76933
-1.1247
4.89404
5.7122
2.11142
-5.61646
-0.211917
2.58344
-2.48001
-0.752486
-3.01685
2.22814
-2.98063
-3.67385
-2.02434
5.69819
-3.37001
-0.459644
3.31699
0.55302
-3.82683
-2.09679
3.78813
0.329891
-3.12718
6.19052
-3.06334
-5.05789
2.52788
3.55926
4.53857
-4.78958
2.44729
2.34229
-1.23032
4.24269
0.904791
4.37967
-6.89713
4.66942
5.78295
3.21543
-6.12345
0.971815
-5.92532
8.53582
-7.36063
-1.17518
4.13667
4.39915
7.08901
5.46802
-5.68394
12.773
-1.19202
-6.16862
7.11733
-3.9019
4.8467
-8.74861
-10.3147
4.14611
-9.16451
10.9386
-1.77408
-3.62567
-8.34558
12.7902
-1.21
-11.5802
8.57838
-4.23013
-4.31288
8.54301
-6.84422
6.85614
-1.98347
-4.87268
-10.1155
-5.70153
10.2093
1.61042
-9.87767
12.2397
-2.66453
4.10383
0.71734
4.12757
3.27963
-5.45491
2.17528
3.56459
-5.54806
2.08545
-7.54036
-6.73311
12.0637
-5.33056
-10.5046
-9.52375
-0.980828
2.53304
9.70667
-9.47706
7.43139
2.04568
3.30303
0.5878
-3.37379
-0.408029
0.235486
4.53403
-4.76952
4.02509
4.1943
3.29934
1.2347
3.84438
2.10768
-3.86952
-0.328212
-4.16167
1.48625
-1.74276
-3.69073
5.17698
-4.06593
0.375208
-2.74597
-3.50037
6.24634
-4.58055
3.03645
3.15407
5.08454
-4.91273
1.41237
-2.39381
-2.51893
2.65357
-4.39633
1.98827
3.18871
4.37062
0.565595
5.87203
6.19163
-8.47533
0.552421
11.2342
-9.51201
2.46898
8.5856
-9.90036
0.376614
-8.69703
0.993415
-5.24154
-5.10853
5.18526
-6.91053
-3.56334
6.19143
0.657164
-6.30311
-0.402454
-6.04006
-2.84769
-6.48411
-3.04812
-6.13861
-8.73206
-1.65312
-7.07894
6.74221
-6.68918
-3.4461
7.41588
1.12653
-7.41357
7.31696
-7.49264
7.1665
0.0952508
3.62063
4.35723
1.88383
-2.39031
4.27414
-5.10627
7.39659
-8.69261
3.58635
4.17637
-6.74143
-4.51624
5.02668
4.02122
5.3255
8.89759
-10.3724
1.47484
-10.6721
12.0074
-1.33532
-16.4381
5.76601
-7.54052
2.47845
0.377404
2.58878
0.558505
2.50015
-3.05866
-2.20468
-2.12229
-2.42255
-3.46431
5.88685
1.11183
-3.51119
2.39936
-3.56856
4.68039
-0.185336
-3.32585
5.28745
-2.78729
5.66485
-3.7539
1.91095
3.42689
5.7484
-2.32151
4.39229
-1.75181
1.91131
-4.23282
-1.55299
-2.96225
5.10485
-3.28409
3.65929
-0.335329
3.99462
-4.06807
0.852871
-0.76873
3.42557
3.66061
4.30687
-3.07217
2.92494
-4.67676
-1.30788
-4.11116
-0.922449
-0.268759
-3.71719
3.98595
5.99612
-6.26487
-5.23883
9.53604
-4.29721
7.69896
-5.3858
-2.31316
-4.25732
-4.39155
3.88221
1.93142
9.63038
0.209796
-5.5956
-4.9326
-3.98227
3.12784
2.13942
-1.79928
3.46497
2.13779
-0.580448
0.461645
0.953351
1.79058
-1.32893
0.290059
1.50052
-1.03524
1.80474
0.778701
-1.8917
0.135874
-1.31075
3.53889
1.08163
-1.9945
0.66557
0.995502
-3.54365
5.0001
-2.6427
-2.35741
5.9956
1.14586
-3.78856
4.34533
-3.94689
2.37233
-3.49703
-1.41623
-5.36312
-3.62824
-2.53188
4.93124
-3.35497
5.46639
1.25739
-5.25448
6.51187
-3.70587
1.68153
-3.07427
3.85297
-0.974523
-2.09974
2.8902
2.80799
-3.03612
0.0192743
-0.145917
2.39731
-2.54323
-0.583317
-2.60335
-4.57301
4.9029
-2.10576
4.55305
2.16838
-1.91634
6.46939
1.80948
-3.72582
-3.24841
-3.70806
-1.38353
3.15504
-0.594684
-4.25667
-5.46736
4.15909
0.22058
-6.98943
7.8046
-0.815166
-3.99471
-0.674713
4.81138
-6.03284
0.484787
-3.94739
3.8572
4.762
4.98258
-11.3694
-0.210751
-6.21405
1.12983
-7.34388
5.52898
-3.55041
7.69651
-10.3491
6.90298
-9.22255
6.52133
-0.822549
6.24972
-4.07444
2.77304
-8.47456
-6.86415
5.47015
-2.75854
6.18749
-3.11994
9.30743
-5.78446
5.25934
4.04809
-1.00876
-4.15984
-5.25278
4.24402
0.00655825
4.13413
4.97905
-2.87136
4.65083
2.2659
-4.65971
-2.13043
-6.49486
1.83516
-3.3408
-1.91966
3.75482
3.16488
3.75268
1.2359
-3.34465
7.18266
-8.16349
-1.8521
-3.25642
5.23965
-0.995626
3.3849
-6.64133
-1.85663
4.81715
-0.783406
-4.03374
0.855512
-4.41885
1.66931
-6.08816
5.24122
-5.64367
2.22194
-9.76246
-5.19162
-5.14755
-2.25909
-5.23355
-7.57976
5.32067
-1.81375
5.50321
-8.52129
7.73788
-3.48613
8.8068
-5.43302
-1.05109
5.84908
1.31741
10.1242
0.207424
-4.72367
-1.90567
3.87375
-1.96808
1.22217
-3.50977
0.363978
2.48834
3.50726
-6.73567
-0.00576085
-4.72943
-3.91952
7.94073
5.61653
11.6126
1.24021
9.12357
-1.18284
10.3638
4.14266
4.37881
-3.0046
4.47944
0.981355
4.5677
-0.910504
2.82146
1.67827
1.7583
0.721715
2.30706
1.35355
3.15993
0.101275
-2.02101
4.62453
-8.6068
-0.971069
-8.03497
1.12669
5.7121
-4.58541
2.99143
-0.852015
1.02335
-0.0488082
-1.3496
1.3984
-2.76792
-1.93004
-0.429528
-1.67276
2.33833
1.86613
-1.9088
-0.859119
0.356806
-3.98505
3.14022
-3.12095
-0.31296
6.19891
-2.81477
0.271547
-1.13325
-2.3318
-2.85559
2.71972
6.17615
0.293241
3.11281
5.19614
3.09935
0.227989
3.90454
-5.67863
-3.63582
-5.88938
-0.360395
4.45098
1.74681
7.95987
5.7949
4.79928
-1.84205
-10.0055
6.54325
-2.06381
5.20793
-1.17419
-4.91397
5.02977
2.36682
-5.68693
0.0432605
-4.87071
-6.93452
-0.513635
8.25152
-9.61058
8.55948
5.71179
1.36714
-4.40891
-0.738637
4.24149
0.137317
10.5011
-1.12774
-6.74689
7.87463
-4.58436
3.61329
0.770564
2.69441
2.16897
1.31695
-5.42993
-10.0153
-2.01461
-1.52903
-4.37202
0.522022
-2.38815
6.22959
-2.6163
3.91643
5.25833
6.28168
-2.13779
-4.12708
6.43501
-2.51858
3.7631
)
;

boundaryField
{
    wall-4
    {
        type            calculated;
        value           uniform 0;
    }
    velocity-inlet-5
    {
        type            calculated;
        value           uniform -3.75095;
    }
    velocity-inlet-6
    {
        type            calculated;
        value           uniform -5.62643;
    }
    pressure-outlet-7
    {
        type            calculated;
        value           nonuniform List<scalar> 8(3.31892 7.76332 4.44755 9.70563 7.40885 5.14711 5.75663 8.96534);
    }
    wall-8
    {
        type            calculated;
        value           uniform 0;
    }
    frontAndBackPlanes
    {
        type            empty;
        value           nonuniform 0();
    }
}


// ************************************************************************* //
