/*--------------------------------*- C++ -*----------------------------------*\
| =========                 |                                                 |
| \\      /  F ield         | OpenFOAM: The Open Source CFD Toolbox           |
|  \\    /   O peration     | Version:  4.0                                   |
|   \\  /    A nd           | Web:      www.OpenFOAM.org                      |
|    \\/     M anipulation  |                                                 |
\*---------------------------------------------------------------------------*/
FoamFile
{
    version     2.0;
    format      ascii;
    class       volScalarField;
    location    "32";
    object      p;
}
// * * * * * * * * * * * * * * * * * * * * * * * * * * * * * * * * * * * * * //

dimensions      [0 2 -2 0 0 0 0];

internalField   nonuniform List<scalar> 
918
(
0.510183
1.1608
0.0023571
0.509465
-0.0284084
1.12783
-0.548524
0.681133
0.490296
-0.133638
-0.0710425
0.484246
0.988519
0.756297
-1.17612
0.0430638
0.632149
-0.425873
0.489292
-0.169468
0.713913
0.496909
0.499946
0.490537
0.55056
0.736523
0.869629
-0.0742657
-0.0074304
-0.0458371
-0.0614313
-0.0939754
-0.0790893
1.01146
1.06257
1.08526
0.45878
0.285122
-0.407422
-0.479216
-0.470192
-0.597362
0.672811
0.674851
-0.21535
0.681639
0.691486
0.477562
0.48966
0.490555
0.491665
0.490606
0.492009
0.368904
-0.142311
-0.171778
-0.111918
-0.104571
0.0427185
-0.0725368
-0.0778276
-0.0699279
-0.0793126
0.410733
0.480511
0.4776
0.488875
0.496409
1.10035
1.07225
1.09839
1.01214
1.0286
0.96647
0.939082
0.77567
0.79733
0.743101
0.730036
-1.61439
-2.57763
-0.579729
-0.324975
-0.0454709
0.0584964
0.0490299
0.622819
0.623084
0.632939
0.64537
1.03172
-0.421787
-0.547754
0.489436
0.488226
0.496611
0.497302
0.493311
0.492406
-0.171142
-0.153362
-0.136915
-0.168389
-0.152498
0.702666
0.701605
0.491082
0.488103
0.503902
0.523838
0.515977
0.245143
0.555559
0.570406
0.558176
0.724868
0.720317
0.72843
0.843158
0.807371
0.9066
0.929718
-0.0494222
-0.0433214
0.0777574
-0.00208664
0.0304222
0.454749
0.447518
0.47336
0.46212
0.464522
0.200319
0.0646803
0.371535
0.397022
-0.318012
-0.381244
-0.482153
-0.501201
-0.612737
0.553805
0.660952
0.661899
-0.234876
-0.155283
-0.292916
-0.0818497
-0.143578
0.468021
0.474883
0.469971
0.485298
0.479816
0.481748
0.493881
0.490968
0.492523
0.431983
0.556261
0.295859
0.262524
-0.286205
-0.190413
-0.28785
-0.0931375
-0.0873114
0.0473828
0.0657731
0.0349537
0.0252845
-0.0853259
-0.0794393
-0.0847108
-0.0892965
-0.0957324
0.403623
0.393107
0.422701
0.429649
0.471253
0.472288
0.475216
0.47391
0.889751
0.91216
0.919756
0.893466
-3.57975
-6.38512
0.00450496
0.143617
-0.0964172
-0.101291
-0.0520012
-0.0616755
-0.0469779
-0.0180489
0.0169184
0.0128714
0.0260711
0.0367689
0.607618
0.607531
0.948563
0.945187
0.932871
0.883057
0.477471
0.479602
0.485165
0.481011
-0.112807
-0.140649
-0.123889
0.689691
0.696973
0.696703
0.208997
0.124978
0.29317
0.320396
0.593406
0.575836
0.590442
0.620032
0.658047
0.937186
0.955496
0.953643
0.962074
1.00606
1.02242
0.987876
0.435108
0.444565
0.439829
0.476633
0.474282
0.475255
0.470552
0.47218
0.469902
-0.087842
-0.47227
0.456098
0.471986
0.446217
0.455629
0.630033
0.701448
0.64455
0.653279
0.653699
-0.0157937
-0.0733438
0.217943
0.184496
0.346626
0.381096
0.361201
0.861024
0.821381
0.871459
0.844701
0.805873
0.831691
-0.424214
-1.93942
-1.04988
0.499946
0.310313
0.399512
0.0126398
0.00418152
0.0142755
0.937074
1.01674
0.613006
0.776249
0.7866
0.693615
0.723615
0.78151
0.709147
0.742597
0.775172
0.753797
0.511219
0.468651
0.471389
0.769286
0.824452
0.0984536
0.0446712
0.000357863
0.085457
0.141867
0.119217
0.983622
0.881661
0.953787
0.487847
0.488534
-0.129165
-0.153917
0.492644
0.492666
-0.0865204
-0.0717001
0.381084
-0.885864
0.0872169
0.481091
0.471428
0.488303
-0.121127
0.32541
-0.0728864
0.0365488
0.000322309
0.481558
0.420368
0.382155
-0.198381
0.0113555
-0.1593
-0.249031
0.48552
0.483833
0.487769
0.488777
0.489429
-0.243348
-0.196896
-0.179596
-0.212498
-0.197776
-0.189956
0.453173
0.470062
-0.202551
0.487887
0.490031
0.489839
0.482994
0.488646
0.486892
-0.0328067
-0.049854
-0.000174121
0.194939
0.312743
0.628573
0.724543
0.593652
0.366781
0.127821
0.528097
0.593723
0.495968
0.654817
0.654294
0.672754
0.149672
0.00191257
0.157916
0.101336
0.478965
0.477621
0.46968
0.466801
0.48318
0.481274
0.485818
0.482767
0.48573
0.487171
-0.0769789
-0.094987
-0.118653
-0.176556
0.284121
0.544369
0.219771
0.251679
0.12238
-0.0630463
-0.0668846
-0.0731737
-0.0822588
-0.0202282
-0.0225695
0.0258936
0.0375404
0.0212975
-0.00313948
-0.0243292
-0.034676
-0.0453025
0.475498
0.474331
0.480228
0.488211
0.429435
0.433357
0.399969
0.419653
0.405555
0.347007
0.381379
0.356498
-0.0958945
-0.171276
-0.103979
-0.00916177
0.00759501
-0.226092
-0.275644
-0.240842
-0.217811
-0.235905
-0.14274
-0.146548
-0.209581
-0.323827
0.93547
0.876646
0.0731564
0.474753
0.481134
0.477956
0.482723
0.48581
0.486688
0.484438
0.480971
0.470689
0.472481
0.468807
0.469358
-0.142465
-0.279605
-0.104036
-0.171182
0.09386
0.586027
0.326239
0.267217
0.260826
0.481342
0.876591
0.673169
0.671013
0.694493
-0.390217
0.00630983
-0.323068
0.29473
0.117419
0.627061
0.676479
0.698423
0.646306
0.598053
-0.158668
0.500435
-0.0910589
-0.0464552
0.14544
0.0383252
0.671991
0.637603
0.64278
0.660009
0.67867
0.6433
0.622378
0.616997
0.656516
0.661933
0.456193
0.227753
0.183156
0.14493
0.621431
0.497397
0.555532
0.468874
0.473863
0.476692
0.475269
0.457867
0.465082
0.460846
0.46655
0.469705
0.478898
0.479234
0.474677
0.476852
-0.0812757
-0.0859325
-0.0623159
-0.174016
-0.161292
-0.219133
-0.103177
0.0309231
-0.00206489
0.187392
0.2941
0.00596235
-0.107104
-0.0768351
-0.0483026
0.131659
0.157119
0.040968
0.138582
0.117688
0.105291
0.205785
0.21435
-0.0496539
-0.055263
-0.0633351
-0.061203
0.00477322
0.0741186
0.0861016
-0.0342086
-0.0239836
-0.0605751
-0.0790429
-0.0505655
-0.0547241
-0.0501368
-0.0136697
-0.135782
-0.0497263
-0.0370153
-0.0325801
-0.0153246
-0.0219305
0.469342
0.471161
0.470979
0.478086
0.49429
0.509053
0.470985
0.451237
0.442316
0.44529
0.419499
0.429297
0.425887
0.438096
0.458206
0.466397
0.46475
0.467222
0.450586
0.452132
0.439778
0.44305
0.420021
0.401665
0.390241
-0.159132
-0.145489
-0.16246
-0.117158
-0.112836
-0.0980701
0.000352237
-0.00404855
-0.00703517
-0.00526404
-0.00267831
-0.190429
-0.19301
-0.120269
-0.0430391
-0.227979
-0.260517
-0.330682
0.841538
0.957769
0.767732
0.546068
0.553987
0.791351
0.879505
0.509826
0.688967
0.715422
0.525979
0.785271
0.479552
0.479096
0.47674
0.476232
0.477455
-0.0548668
0.0447938
0.0556138
0.109543
0.226101
0.340215
0.259494
0.13141
0.265567
0.271748
0.580721
0.596869
0.543487
0.567353
0.564885
0.393137
0.470456
0.526115
0.478819
0.524582
0.54689
0.507427
0.537815
0.483853
0.441053
0.439792
0.386042
0.406796
0.384921
0.367125
0.469095
0.447155
0.457551
0.448144
0.467788
0.49415
0.488857
0.515467
0.52682
0.453261
0.413523
0.423123
0.451352
0.41202
0.424873
0.440458
0.176948
0.0772836
0.161233
-0.131401
-0.0504852
-0.0659707
-0.112761
-0.0670176
0.219358
-0.479783
-0.453195
-1.08645
0.4411
0.908105
0.626176
0.597283
0.674238
0.652611
0.655275
0.678239
0.68557
0.611157
0.628745
0.63308
0.587631
0.611658
0.633497
0.63205
0.473773
0.348826
0.339734
0.300719
0.176934
0.209963
0.412677
0.334667
0.261981
0.266491
0.428798
0.318469
0.3845
0.422736
0.354471
0.309764
0.512182
0.579102
0.569505
0.545073
0.460541
0.47305
0.498628
0.534405
0.561546
0.593404
0.46635
0.472179
0.473446
0.470993
0.468145
0.471013
0.471058
0.473605
0.474472
0.477388
0.476374
-0.0782979
-0.0678611
-0.073101
-0.081719
-0.0525692
-0.0601586
-0.0147523
-0.0271332
-0.0394543
-0.0315734
-0.0596341
-0.0646503
-0.0557741
-0.0478934
0.0609822
0.0762665
0.0617208
0.0180511
0.199923
0.332594
0.400278
0.279692
0.173253
0.197358
0.223029
-0.040557
-0.00352386
-0.0203199
0.0185316
0.00234866
-0.0602114
-0.0684346
-0.0750329
-0.0420564
-0.0398954
-0.0857439
-0.127566
-0.09973
-0.0960885
-0.0831829
-0.108243
0.453444
0.447057
0.448288
0.44243
0.441268
0.454807
0.458965
0.460706
0.465917
0.467722
0.45847
0.46381
0.467236
-0.0640549
-0.142652
-0.109663
-0.0953234
-0.127573
-0.152637
-0.132419
0.0675124
-0.00655065
-0.00053793
-0.0418598
-0.1655
-0.109841
0.43363
0.433202
0.43939
0.659039
0.510995
0.431334
0.528138
0.632403
0.214481
0.414992
0.246841
0.828523
0.720095
0.864646
0.485007
0.189318
0.344083
0.393682
0.203107
0.275913
0.280137
0.170162
0.202239
0.23328
0.332652
0.213343
0.188162
-0.0546498
0.132641
0.250254
0.230914
0.360688
0.424875
0.205589
0.128281
0.0821757
0.573016
0.592855
0.611946
0.58164
0.606426
0.528751
0.520477
0.538518
0.546442
0.540514
-0.814537
-0.522149
-1.46711
-0.782281
-0.332422
0.471152
0.435468
0.709419
0.599368
0.664475
0.650088
0.610953
0.576897
0.588453
0.62096
0.322374
0.432003
0.406537
0.412676
0.315499
0.24892
0.54776
0.54137
0.577516
0.601761
0.568896
0.602389
0.464165
0.463838
0.463266
0.459904
0.458485
0.460545
0.0247871
-0.00381711
0.0276607
0.00527334
-0.0167136
-0.0259174
-0.0362072
-0.0498861
-0.0663881
-0.0844202
-0.0605456
-0.0364461
0.108963
0.0511247
-0.0251679
0.00446825
-0.0527572
-0.117865
-0.13694
-0.038526
0.0524688
0.0440802
0.346884
0.59793
0.420446
0.589586
0.428067
0.483862
0.430192
0.420737
0.450946
0.329289
0.40687
0.171388
-0.332036
-0.240955
0.725626
0.744346
0.527805
0.341396
0.11184
0.300534
0.501026
0.438048
0.47693
0.545498
0.537721
-0.0422341
0.0247439
0.286191
0.514492
0.182257
0.172961
0.168301
0.342974
0.266975
)
;

boundaryField
{
    wall-4
    {
        type            zeroGradient;
    }
    velocity-inlet-5
    {
        type            zeroGradient;
    }
    velocity-inlet-6
    {
        type            zeroGradient;
    }
    pressure-outlet-7
    {
        type            fixedValue;
        value           uniform 0;
    }
    wall-8
    {
        type            zeroGradient;
    }
    frontAndBackPlanes
    {
        type            empty;
    }
}


// ************************************************************************* //
