/*--------------------------------*- C++ -*----------------------------------*\
| =========                 |                                                 |
| \\      /  F ield         | OpenFOAM: The Open Source CFD Toolbox           |
|  \\    /   O peration     | Version:  4.0                                   |
|   \\  /    A nd           | Web:      www.OpenFOAM.org                      |
|    \\/     M anipulation  |                                                 |
\*---------------------------------------------------------------------------*/
FoamFile
{
    version     2.0;
    format      ascii;
    class       surfaceScalarField;
    location    "32";
    object      phi;
}
// * * * * * * * * * * * * * * * * * * * * * * * * * * * * * * * * * * * * * //

dimensions      [0 3 -1 0 0 0 0];

internalField   nonuniform List<scalar> 
1300
(
3.75095
5.62643
-3.86748
3.75095
-4.90207
5.62643
-4.44953
4.44953
-1.03078
1.03078
1.87645
1.87451
-2.98194
2.98194
-2.43277
2.43277
-2.56209
2.56209
-5.24646
5.24646
-5.06835
5.06835
4.66817
-4.66817
-5.43511
5.43511
-1.39683
1.39683
-3.84277
3.84277
3.16976
-3.16976
-2.29683
2.29683
-0.272055
0.272055
-0.553537
4.30449
3.19742
3.19742
-2.07075
2.07075
-4.86317
4.86317
6.2182
-6.2182
5.38191
-5.38191
-1.51443
-3.04319
1.04318
-10.1711
-3.85889
-3.85889
-8.4404
8.4404
-2.81397
2.81246
2.94323
-2.94323
-1.78255
1.78255
-4.39201
-0.0575196
-4.39201
4.4392
0.0103247
4.4392
-1.13169
0.100911
-1.13169
3.94298
-3.94298
0.880374
0.150408
0.880374
3.06466
-3.06466
-1.87706
3.7535
1.8739
-1.87186
6.17635
-1.87909
3.7536
-5.9308
5.9308
-3.19247
0.210525
-3.19247
2.77965
0.202292
2.77965
-6.71227
6.71227
-2.41942
-0.0133546
-2.41942
2.39174
0.0410292
2.39174
2.86538
-2.86538
-2.66012
0.0980346
-2.66012
2.45315
0.108935
2.45315
0.353543
5.27289
-5.97997
8.79243
-5.27289
0.0264242
5.20845
0.0380099
5.20845
-5.10591
0.0375582
-5.10591
5.01141
0.0569363
5.01141
4.7589
-0.0907341
4.7589
-4.78304
0.11487
-4.78304
-3.10832
-5.43188
-5.97287
0.537768
-5.97287
-1.39993
0.00309557
-1.39993
1.35585
0.0409774
1.35585
-3.57905
3.57905
-4.22016
0.377393
-4.22016
3.12421
0.0455577
3.12421
1.86852
1.88244
5.61947
-5.61947
2.44971
-2.29204
-0.00479049
-2.29204
-2.33979
-3.04212
2.33979
-0.0429581
-0.540589
0.268534
-0.540589
3.15924
0.0381782
3.15924
2.29985
0.153304
-2.29985
0.229102
3.20137
-3.20137
1.44408
0.62667
1.44408
-5.56694
5.56694
4.95331
0.0580964
-4.95331
0.0901398
6.15663
0.0615705
6.15663
-6.19955
-0.0186554
-6.19955
1.55092
-4.5941
-3.81626
4.67463
0.760479
-4.67463
0.81574
2.91357
0.0296509
2.91357
-2.9212
2.9212
-2.98293
0.0397065
-2.98293
-2.18397
0.401424
-2.18397
1.48163
0.30092
1.48163
-4.26636
-0.12565
-4.26636
-4.36024
0.140077
4.36024
0.0789618
1.07821
-1.07821
-1.2374
0.105711
-1.2374
-4.09665
-0.169705
4.09665
-0.153675
-3.81708
-0.125892
-3.81708
-3.02333
0.0403975
3.02333
0.0413352
3.11253
0.046709
-3.11253
0.0478644
-1.87084
3.75328
-1.88011
3.75401
-5.54652
-0.384279
-5.54652
6.24181
-0.311006
6.24181
3.53286
0.309907
-3.53286
0.340394
2.61605
0.163599
2.61605
-6.69951
-0.0127631
-6.69951
6.67096
0.0413093
6.67096
2.49428
0.121772
-2.49428
0.0748628
2.33536
0.0563825
2.33536
2.87962
-0.0142349
2.87962
-2.86359
-0.00179301
-2.86359
2.80222
-2.80222
2.73527
0.0669504
-2.73527
0.0751459
-11.1329
11.1143
-0.0352109
-11.0977
5.17324
5.17324
4.1881
0.570805
4.1881
-4.9973
0.214255
-4.9973
2.09842
-5.91468
5.01029
-8.11861
5.35892
-15.53
3.68329
-9.11517
6.4766
-6.4766
6.26698
0.209615
-6.26698
0.29411
-1.42264
0.0227097
-1.42264
-2.97154
-0.607515
-2.97154
4.2357
-0.656645
4.2357
-3.0292
3.0292
-3.07802
0.0488244
3.07802
0.0461828
2.25163
0.0837336
-2.25163
-0.0404147
0.713643
0.16673
-0.713643
0.173054
3.40552
-0.204147
3.40552
-3.01967
-0.181703
-3.01967
-1.43566
0.0130289
1.43566
0.00841335
-5.81619
0.249249
-5.81619
-11.1907
0.0929772
-11.1527
-6.10657
-6.10657
2.33383
11.1263
-2.88605
0.0224601
2.88605
0.0275261
2.97631
0.0528857
-2.97631
0.055115
-2.86346
0.0612428
2.86346
0.0577367
-2.56129
0.377323
-2.56129
-1.0728
1.0728
-1.24686
0.174067
1.24686
0.234761
1.32259
-0.244385
1.32259
1.30675
0.0491021
-1.30675
0.0693466
-3.70671
-0.110372
-3.70671
6.46829
-0.226476
6.46829
-2.92689
-0.0927765
2.92689
-0.047278
-0.0333207
11.1476
-5.13992
0.034016
5.13992
-11.2092
11.2432
-3.23499
0.673693
3.23499
0.953114
5.28813
0.278811
-5.28813
0.290835
6.60349
0.0674703
-6.60349
0.126891
-2.48073
-0.490813
-2.48073
-4.96473
-0.581789
4.96473
-0.729037
-11.4757
-0.202463
11.6781
-11.4187
6.01866
0.137979
-6.01866
11.3812
-1.00237
-0.0758395
1.00237
0.0704303
1.6354
-0.312812
1.6354
3.59827
-0.192746
-3.59827
-0.108447
-6.62024
-0.0792708
6.62024
-0.15195
-2.04295
-0.437777
2.04295
-0.407544
-4.26698
4.30516
1.90937
-1.37298
-3.22112
-4.4151
1.85206
1.90121
4.30177
-10.1865
-5.3435
-9.37075
7.26636
-6.97552
-9.27108
9.18035
7.61098
-7.73687
-5.78538
5.83157
6.48189
-6.44055
1.87869
1.87481
7.88736
-7.67684
-15.6985
15.3142
7.42625
-7.43961
15.7867
-15.7994
-17.8005
17.868
-5.72462
5.82265
-6.72524
6.72345
-6.93146
6.88418
-2.39091
-5.72769
13.1922
-12.6544
7.24776
-7.25255
-8.50174
8.87914
3.38242
0.922737
3.42913
-1.88231
3.761
-1.87129
3.78066
4.04325
-6.43416
1.87143
-5.09255
3.31381
3.93396
-3.27085
-1.14425
-5.9186
5.94825
-5.82203
5.87977
8.9515
-9.00902
-1.88512
3.75994
-1.86889
3.7701
-3.42522
-2.36017
3.37966
0.922109
7.59768
5.5945
-8.35816
-1.01259
-7.852
7.65925
-8.12562
7.94391
-0.441918
5.82081
-5.37889
4.42126
-1.55787
7.37868
5.70849
5.92275
5.86674
-5.58792
1.10879
-6.48768
-6.39754
-2.54022
2.64593
2.48889
-2.33848
5.98198
1.629
5.82831
-5.57312
-2.16375
-5.6835
3.82127
2.0103
3.87009
4.07667
2.40522
4.11707
3.03075
-3.0357
0.00494375
-3.05628
6.08703
0.72424
-5.41645
-4.49434
4.92588
2.96148
5.12818
-5.47891
-2.19793
-5.13851
-9.56841
-6.13011
-10.1502
10.125
5.18928
9.81396
-11.9796
11.8276
4.67718
2.74907
4.71821
-4.91048
-2.52913
-4.83562
11.6252
-2.54517
-9.08004
-10.3094
-7.49117
10.2681
5.5186
10.9143
6.95367
11.0412
4.42073
7.20448
-9.93933
2.44815
-3.86972
-1.8549
-3.79457
3.69599
2.12666
3.80493
-4.21298
-2.51226
-4.19052
-4.28444
-2.64702
4.29868
2.42477
-4.38935
-3.73627
4.48213
2.40206
5.21173
-10.5552
3.90344
-9.63113
-9.19208
-3.46234
-8.89797
4.59617
2.69197
-7.28814
-1.83799
8.0748
-4.14084
6.93055
-4.29471
-2.95784
-4.33513
-6.79317
-1.70858
-6.65309
-8.89779
8.40698
-9.2089
8.55226
12.6795
-5.71293
-6.96656
-3.96804
-2.47251
3.92018
-0.491046
-3.71121
3.71615
0.0497946
3.83045
4.75319
4.26215
-3.88733
-1.93471
-3.83221
3.83296
2.04681
3.89421
6.73863
2.21287
6.74896
-6.45745
-2.55157
-6.5831
9.07461
-8.67319
2.90885
-2.89582
5.28624
2.65767
-5.08209
-2.76991
6.2044
-3.13602
-3.06837
-12.2111
10.5595
1.65154
-4.83239
-0.411136
-0.139081
-5.4993
-3.77179
5.38443
0.538319
11.0978
7.32606
-5.51244
5.76169
6.16568
6.22377
-0.173767
5.83417
-5.16047
5.32544
-2.42236
-2.90308
5.32001
-5.48971
-1.2631
-5.33364
4.07054
0.338597
1.73009
-1.46155
-2.01047
-0.529749
-1.94112
1.48077
1.00813
1.6475
0.959208
1.68672
-2.94875
0.55085
2.3979
-1.98954
-1.78763
-3.69303
-1.02506
4.71809
5.58253
2.07673
-5.47408
-0.209418
2.70328
-2.66231
-0.788822
-2.90421
2.1163
-2.90512
-3.61266
-1.89304
5.50571
-3.37085
-0.461356
3.31797
0.552121
-3.825
-2.0936
3.78529
0.33178
-3.12489
6.18995
-3.06506
-5.05959
2.52885
3.55819
4.53915
-4.79007
2.44616
2.34391
-1.23189
4.2178
0.91038
4.38139
-6.71803
4.52009
5.73625
3.14289
-6.04616
0.907643
-5.81038
8.46469
-7.27358
-1.19111
4.08863
4.37606
7.17219
5.5073
-5.74032
12.9125
-1.14989
-6.12369
6.96028
-3.81739
4.76628
-8.58367
-10.2736
4.14989
-9.24454
10.9987
-1.75413
-3.61637
-8.36323
12.8609
-1.22425
-11.6367
8.58971
-4.23047
-4.29972
8.53019
-6.77564
6.82884
-1.99959
-4.82926
-10.114
-5.68538
10.1933
1.63434
-9.91159
12.3597
-2.70711
3.79533
0.922884
3.85171
3.27414
-5.40656
2.13242
3.50149
-5.50108
2.08397
-7.49053
-7.20251
12.9125
-5.70997
-10.6649
-9.7108
-0.954055
2.50478
9.85496
-9.45845
7.35792
2.10053
3.31031
0.583897
-3.37726
-0.417312
0.263497
4.54728
-4.81078
4.06842
4.22173
3.37385
1.17343
3.83938
2.10887
-3.86691
-0.323614
-4.15309
1.50607
-1.72832
-3.65347
5.15954
-4.06614
0.412677
-2.73011
-3.50949
6.23959
-4.58501
3.03965
3.1503
5.08645
-4.90953
1.40005
-2.39987
-2.50966
2.6661
-4.39442
1.94373
3.21581
4.34579
0.60952
6.79091
6.12158
-9.48288
-0.148258
11.7161
-10.7035
2.55482
8.48641
-9.91274
0.201946
-8.69602
1.41918
-5.56003
-5.86895
5.08452
-6.7931
-3.49915
6.13559
0.613363
-6.21456
-0.438534
-6.04476
-2.85303
-6.48254
-3.06352
-6.14539
-8.80383
-1.65408
-7.14976
6.7529
-6.69474
-3.45546
7.42378
1.12848
-7.4104
7.33456
-7.49544
7.18262
0.094762
3.62139
4.35691
1.8844
-2.3895
4.2739
-5.07007
7.28294
-8.57827
3.50819
4.05426
-6.60583
-4.52401
5.03875
4.03586
5.33967
8.94616
-10.4457
1.4995
-10.7675
12.1041
-1.33661
-16.5506
5.78305
-7.60439
2.64546
0.263387
2.66817
0.659052
2.42792
-3.08697
-2.23677
-2.22836
-2.34841
-3.42733
5.77574
1.1571
-3.42799
2.27089
-3.48987
4.64697
-0.0724949
-3.35549
5.28738
-2.85946
5.55077
-3.56237
1.9884
3.34493
5.7039
-2.35897
4.35395
-1.69627
1.84329
-4.20226
-1.58404
-2.97019
5.09685
-3.26941
3.68208
-0.286068
3.96815
-4.08718
0.951158
-0.71333
3.5084
3.7375
4.29069
-3.11726
2.97994
-4.67622
-1.22232
-4.0667
-0.85089
-0.294552
-3.77667
4.07123
6.04097
-6.33552
-5.25708
9.5647
-4.30762
7.71878
-5.40225
-2.31653
-4.27252
-4.40067
3.89519
1.93897
9.65775
0.21028
-5.61253
-4.95019
-3.99708
3.21465
2.11079
-1.92668
3.57822
2.06576
-0.335673
0.572214
1.07528
1.85689
-1.28468
0.213215
1.64368
-1.24834
1.98529
0.717992
-2.03439
0.0932707
-1.36619
3.48248
1.03171
-2.03984
0.755158
1.06671
-3.48907
4.84239
-2.48607
-2.35632
5.9091
1.16141
-3.64748
4.17223
-3.83364
2.33353
-3.35859
-1.31395
-5.14758
-3.51859
-2.53574
4.80663
-3.24
5.31673
1.19397
-5.10731
6.30128
-3.57471
1.68167
-3.06962
3.78762
-1.07226
-1.99737
2.79869
2.70701
-2.93684
0.0326316
-0.138146
2.33163
-2.46978
-0.573485
-2.56303
-4.571
4.90278
-2.10811
4.55427
2.16578
-1.91423
6.46851
1.81169
-3.72592
-3.2479
-3.70926
-1.38201
3.15714
-0.571859
-4.26376
-5.40112
4.14199
0.239407
-6.86754
7.66844
-0.800901
-3.90606
-0.614035
4.70267
-5.98155
0.480468
-3.89758
3.77086
4.68124
4.92065
-11.4491
-0.187518
-6.25986
1.15435
-7.41421
5.53041
-3.60843
7.75832
-10.4326
6.9771
-9.30408
6.56722
-0.846993
6.25471
-4.1223
2.82533
-8.5107
-6.87637
5.4859
-2.73683
6.40879
-3.08625
9.49503
-5.79336
5.02758
4.46746
-0.690605
-3.64452
-5.3185
4.62789
-0.290921
3.56079
4.97352
-2.86466
4.64991
2.25677
-4.65664
-2.13765
-6.49827
1.84163
-3.34797
-1.91497
3.75659
3.17149
3.75538
1.24694
-3.33807
7.59639
-8.55044
-1.88642
-3.98254
5.28108
-0.653187
3.23679
-7.21933
-2.32324
4.87532
-0.805096
-4.07022
0.837612
-4.33676
1.65509
-5.99185
5.13801
-5.57654
2.20709
-9.81148
-5.20331
-5.13288
-2.24661
-5.24882
-7.6244
5.37779
-1.84135
5.49321
-8.60661
7.80151
-3.49751
8.8753
-5.44071
-1.04183
5.84825
1.33437
10.2097
0.177022
-4.70103
-1.88744
3.95608
-2.06864
1.32721
-3.59965
0.356424
2.47438
3.43472
-6.54493
-0.0609033
-4.76193
-3.92477
7.96063
5.63994
11.6809
1.23524
9.15282
-1.19219
10.3881
4.14748
4.38224
-3.06104
4.56054
1.01018
4.51838
-0.838415
2.82682
1.82976
1.83285
0.829452
2.30863
1.42887
3.25978
0.172813
-2.05554
4.63738
-8.63446
-0.97515
-8.06366
1.11669
5.7274
-4.61071
3.10506
-0.994272
1.03643
0.10639
-1.62165
1.51526
-2.79669
-1.95733
-0.313647
-1.60488
2.36004
1.8776
-2.04639
-0.750296
0.318529
-3.83712
3.04006
-3.00743
-0.300419
6.00086
-2.74785
0.278073
-1.06618
-2.28496
-2.8147
2.72143
6.17691
0.291594
3.11185
5.19437
3.10077
0.236115
3.92144
-5.67556
-3.56909
-5.86308
-0.332676
4.36999
1.66116
8.1938
6.12862
5.47543
-1.74389
-10.2943
6.5951
-2.03455
5.25849
-1.18826
-4.80359
4.96577
2.31718
-5.57913
0.00258782
-4.801
-6.83555
-0.529376
8.33089
-9.6803
8.63847
5.78544
1.36432
-4.40941
-0.723471
4.23534
0.146893
10.5349
-1.12883
-6.81456
7.94339
-4.59857
3.62342
0.836293
2.74193
2.35155
1.35728
-5.45728
-10.068
-1.90898
-1.58009
-4.2653
0.452788
-2.33039
6.25071
-2.62728
3.93418
5.31611
6.35254
-2.15663
-4.17889
6.46425
-2.53007
3.82246
)
;

boundaryField
{
    wall-4
    {
        type            calculated;
        value           uniform 0;
    }
    velocity-inlet-5
    {
        type            calculated;
        value           uniform -3.75095;
    }
    velocity-inlet-6
    {
        type            calculated;
        value           uniform -5.62643;
    }
    pressure-outlet-7
    {
        type            calculated;
        value           nonuniform List<scalar> 8(3.86748 4.90207 4.55762 9.1279 8.54019 5.36717 7.10871 9.0422);
    }
    wall-8
    {
        type            calculated;
        value           uniform 0;
    }
    frontAndBackPlanes
    {
        type            empty;
        value           nonuniform 0();
    }
}


// ************************************************************************* //
