/*--------------------------------*- C++ -*----------------------------------*\
| =========                 |                                                 |
| \\      /  F ield         | OpenFOAM: The Open Source CFD Toolbox           |
|  \\    /   O peration     | Version:  4.0                                   |
|   \\  /    A nd           | Web:      www.OpenFOAM.org                      |
|    \\/     M anipulation  |                                                 |
\*---------------------------------------------------------------------------*/
FoamFile
{
    version     2.0;
    format      ascii;
    class       surfaceScalarField;
    location    "55";
    object      phi;
}
// * * * * * * * * * * * * * * * * * * * * * * * * * * * * * * * * * * * * * //

dimensions      [0 3 -1 0 0 0 0];

internalField   nonuniform List<scalar> 
1300
(
3.75095
5.62643
-3.31036
3.75095
-7.77475
5.62643
-4.36032
4.36032
-0.570674
0.570674
1.8764
1.87456
-2.76202
2.76202
-2.23352
2.23352
-2.53871
2.53871
-5.24638
5.24638
-5.06826
5.06826
4.65792
-4.65792
-6.29325
6.29325
-0.983186
0.983186
-3.6687
3.6687
3.16966
-3.16966
-2.15517
2.15517
-0.0636943
0.0636943
-0.553486
4.30444
3.19747
3.19747
-2.00204
2.00204
-4.86744
4.86744
6.21795
-6.21795
5.31377
-5.31377
-2.00342
-2.43932
1.82926
-11.542
-5.94549
-5.94549
-8.44039
8.44039
-2.81396
2.81247
2.94551
-2.94551
-1.77769
1.77769
-4.32181
-0.0385072
-4.32181
4.32962
0.0306979
4.32962
-0.637619
0.066945
-0.637619
3.95932
-3.95932
0.471878
0.0987962
0.471878
3.06521
-3.06521
-1.8771
3.7535
1.87385
-1.87189
6.17632
-1.87907
3.75363
-6.00936
6.00936
-2.97794
0.215919
-2.97794
2.57929
0.182735
2.57929
-6.8298
6.8298
-2.27232
0.0388015
-2.27232
2.20073
0.0327836
2.20073
2.87788
-2.87788
-2.64812
0.109413
-2.64812
2.41693
0.12178
2.41693
0.35353
5.2729
-5.97996
8.79243
-5.2729
0.0265173
5.20833
0.0380483
5.20833
-5.10582
0.0375512
-5.10582
5.01326
0.0550075
5.01326
4.74541
-0.0874915
4.74541
-4.77468
0.116762
-4.77468
-3.37437
-4.02961
-6.4391
0.145855
-6.4391
-1.05885
0.075659
-1.05885
0.885827
0.097359
0.885827
-3.67512
3.67512
-4.07427
0.405567
-4.07427
3.12405
0.0456087
3.12405
1.86849
1.88246
5.61945
-5.61945
2.44979
-2.14638
-0.00878412
-2.14638
-2.19648
-3.11729
2.19648
-0.0413136
-0.294894
0.231199
-0.294894
3.15939
0.0380746
3.15939
2.24787
0.169061
-2.24787
0.24583
3.26385
-3.26385
1.33832
0.663719
1.33832
-5.56571
5.56571
4.95543
0.0578238
-4.95543
0.0879943
6.15614
0.061814
6.15613
-6.19952
-0.0184241
-6.19952
2.55008
-4.9894
-2.59821
6.11805
0.175198
-6.11805
0.172553
2.91698
0.0285246
2.91698
-2.91998
2.91998
-2.98427
0.0387578
-2.98427
-2.17675
0.399055
-2.17675
1.47887
0.29882
1.47887
-4.22151
-0.100298
-4.22151
-4.21812
0.143851
4.21812
0.111499
1.12565
-1.12565
-0.732439
0.0948199
-0.732439
-4.08413
-0.137381
4.08413
-0.124816
-3.84967
-0.109651
-3.84967
-3.02426
0.0399918
3.02426
0.0409546
3.1128
0.0465897
-3.1128
0.0475907
-1.87082
3.75328
-1.88013
3.75398
-5.62923
-0.380131
-5.62923
6.31846
-0.309101
6.31846
3.33734
0.331361
-3.33734
0.359403
2.44026
0.13903
2.44026
-6.79513
-0.0346624
-6.79513
6.812
0.0177913
6.812
2.33997
0.100283
-2.33997
0.0676572
2.1813
0.0194302
2.1813
2.89678
-0.0188951
2.89678
-2.87296
-0.00491904
-2.87296
2.79687
-2.79687
2.72663
0.0702394
-2.72663
0.0785079
-11.1329
11.1145
-0.0350731
-11.0979
5.17326
5.17326
4.17351
0.5719
4.17351
-4.99198
0.217302
-4.99198
2.69419
-5.2924
3.05966
-6.43402
4.65517
-16.1972
4.31145
-8.34106
6.6758
-6.6758
6.56557
0.110232
-6.56557
0.12647
-1.16694
0.108099
-1.16694
-3.07122
-0.603895
-3.07122
4.31992
-0.644809
4.31992
-3.02836
3.02836
-3.07759
0.0492248
3.07759
0.0464634
2.15565
0.0256491
-2.15565
0.00926851
0.38347
0.0884074
-0.38347
0.0885764
3.47123
-0.207372
3.47123
-3.06913
-0.19473
-3.06913
-1.25804
0.0910937
1.25804
0.0802807
-5.81421
0.248502
-5.81421
-11.1909
0.0929902
-11.1528
-6.10653
-6.10653
2.33385
11.1263
-2.89173
0.018773
2.89173
0.0252484
2.97535
0.0530103
-2.97535
0.055372
-2.86105
0.0641853
2.86105
0.0589268
-2.55185
0.375103
-2.55185
-1.07492
1.07492
-1.24289
0.167964
1.24289
0.235985
1.39417
-0.268521
1.39417
0.806648
0.0791788
-0.806648
0.0742098
-3.75515
-0.0945215
-3.75515
6.55087
-0.232411
6.55087
-2.95704
-0.11208
2.95704
-0.0602686
-0.0333715
11.1479
-5.13989
0.0340735
5.13989
-11.2097
11.2438
-3.22305
0.671202
3.22305
0.950457
5.28547
0.280245
-5.28547
0.293482
6.76071
0.0512914
-6.76071
0.0849106
-2.57899
-0.492229
-2.57899
-5.04678
-0.582448
5.04678
-0.726856
-11.4746
-0.203685
11.6782
-11.4196
6.0179
0.138237
-6.0179
11.382
-1.02996
-0.0956845
1.02996
0.0449607
1.71968
-0.325516
1.71968
3.66022
-0.188991
-3.66022
-0.0949279
-6.70191
-0.09322
6.70191
-0.151041
-2.13535
-0.443644
2.13535
-0.415663
-4.26708
4.30515
1.90925
-2.41333
-2.57607
-5.53062
1.85189
1.90139
4.30168
-10.1567
-6.04051
-9.98413
7.26265
-6.96916
-9.2505
9.16301
7.82892
-7.93857
-5.78501
5.83148
6.48264
-6.44169
1.87876
1.87474
7.95361
-7.73769
-15.6387
15.2585
7.49832
-7.45952
15.784
-15.8186
-17.8609
17.9122
-5.69701
5.80642
-6.73589
6.73098
-6.96736
6.90709
-2.84051
-3.59352
13.1208
-12.975
8.54092
-8.54971
-8.57696
8.98253
3.38255
0.9226
3.42914
-1.88219
3.76095
-1.87143
3.78068
2.70125
-5.54175
2.59115
-5.16722
4.32349
4.21743
-4.28218
-1.24844
-5.92336
5.95188
-5.81615
5.87508
9.09774
-9.13625
-1.88515
3.75989
-1.86883
3.77023
-3.42504
-2.35998
3.37943
0.922248
8.08249
5.03832
-8.25769
-1.72644
-8.00833
7.81934
-8.21593
8.0212
-0.434866
5.81852
-5.38365
4.43257
-1.5619
7.38041
5.70075
5.91805
5.86646
-5.58622
1.1027
-6.48635
-6.39836
-2.37021
2.46503
2.25751
-2.15871
6.09705
1.73187
5.97224
-5.72771
-2.21087
-5.82223
3.82081
2.01067
3.87003
4.07797
2.40467
4.11796
3.03061
-3.03585
0.00524009
-3.05654
6.08715
0.724043
-5.41652
-4.49427
4.9627
2.9909
5.14544
-5.51076
-2.22692
-5.15136
-9.55597
-6.0827
-10.1384
10.1002
5.15831
9.79113
-11.9732
11.8221
4.78834
2.70998
4.82113
-4.91974
-2.53978
-4.85208
11.6344
-2.61013
-9.02429
-10.3276
-7.53336
10.3098
5.4742
10.9686
6.94362
11.0535
4.42236
7.21206
-9.89657
2.36321
-3.86117
-1.83584
-3.78266
3.66553
2.14089
3.78731
-4.2161
-2.5198
-4.19733
-4.29311
-2.67425
4.312
2.41897
-4.4127
-3.80323
4.52478
2.38231
4.0219
-10.0624
4.31916
-7.91268
-9.20067
-3.77429
-9.0742
3.49511
2.60667
-6.10177
-2.04665
8.46231
-4.24488
7.21387
-5.17238
-3.37733
-5.16311
-6.84438
-1.73258
-6.70053
-8.89198
8.39975
-9.19083
8.54602
12.5687
-5.67801
-6.89064
-3.96835
-2.47334
3.92076
-0.491621
-3.71062
3.71586
0.050326
3.83101
4.75361
4.26199
-3.8852
-1.93096
-3.82982
3.82706
2.04802
3.89125
6.8088
2.28894
6.8395
-6.57773
-2.55852
-6.67803
9.05058
-8.65152
2.86115
-2.77005
5.37978
2.64142
-5.17241
-2.83593
6.21315
-3.2141
-2.99905
-12.2003
10.5364
1.66389
-4.81989
-0.387318
-0.323624
-5.49077
-3.75973
5.37401
0.544044
11.0805
7.32073
-5.51306
5.76156
6.16519
6.22301
-0.17535
5.81544
-5.14424
5.26848
-2.54232
-2.72616
5.43697
-5.57435
-1.24107
-5.48662
4.24556
0.397889
1.56993
-1.33873
-1.84361
-0.5266
-1.7694
1.3415
0.916011
1.4299
0.927211
1.53782
-2.94487
0.553947
2.39093
-2.01766
-1.60476
-3.76158
-1.11935
4.88094
5.70753
2.11181
-5.61261
-0.209623
2.59024
-2.49288
-0.75233
-3.00925
2.22186
-2.97419
-3.67196
-2.01468
5.68664
-3.37007
-0.459752
3.31706
0.55297
-3.82675
-2.09661
3.78799
0.329975
-3.12703
6.19052
-3.06349
-5.05799
2.52794
3.5592
4.53861
-4.78959
2.44722
2.34237
-1.23039
4.24094
0.904495
4.37997
-6.87952
4.6526
5.77992
3.20261
-6.11128
0.959917
-5.91961
8.52913
-7.35087
-1.17827
4.13407
4.39507
7.09524
5.47341
-5.68818
12.7834
-1.18378
-6.16709
7.10338
-3.90077
4.83857
-8.73934
-10.312
4.14489
-9.16863
10.9415
-1.77282
-3.62554
-8.34763
12.7942
-1.21109
-11.5831
8.58004
-4.22516
-4.30818
8.53333
-6.83529
6.84796
-1.9813
-4.86666
-10.1169
-5.70175
10.2101
1.61203
-9.87228
12.2355
-2.66022
4.10554
0.715589
4.12497
3.2753
-5.44786
2.17256
3.55999
-5.54129
2.08333
-7.53119
-6.72745
12.0565
-5.32909
-10.5017
-9.5203
-0.981443
2.53277
9.70272
-9.47639
7.43078
2.04561
3.30371
0.587535
-3.37395
-0.408711
0.233285
4.53629
-4.76957
4.02059
4.18966
3.30462
1.23166
3.84413
2.10776
-3.86937
-0.327953
-4.16107
1.48682
-1.7421
-3.68952
5.17634
-4.06578
0.376259
-2.74509
-3.50066
6.24576
-4.58093
3.03671
3.15381
5.08473
-4.91223
1.41156
-2.39408
-2.51814
2.65422
-4.39632
1.98746
3.18889
4.36977
0.566542
5.8642
6.19234
-8.47087
0.558189
11.2307
-9.50422
2.46812
8.58537
-9.8989
0.378595
-8.6956
0.99488
-5.23976
-5.1069
5.17541
-6.90799
-3.56393
6.18272
0.656781
-6.29422
-0.406312
-6.04297
-2.84901
-6.48661
-3.04927
-6.14156
-8.73744
-1.6543
-7.08315
6.74545
-6.69163
-3.44678
7.41849
1.12753
-7.41542
7.31974
-7.49519
7.16968
0.0952093
3.62065
4.3572
1.88386
-2.39027
4.27413
-5.10375
7.39269
-8.69262
3.58887
4.17636
-6.73487
-4.51627
5.02833
4.02225
5.32715
8.90211
-10.378
1.47587
-10.678
12.015
-1.337
-16.4461
5.76807
-7.54398
2.48747
0.373675
2.59557
0.562152
2.49995
-3.06211
-2.2079
-2.12762
-2.41949
-3.46389
5.88338
1.11618
-3.50739
2.39121
-3.56703
4.68322
-0.179295
-3.32809
5.28851
-2.78855
5.66218
-3.74633
1.91585
3.4246
5.74758
-2.32298
4.39112
-1.74971
1.90869
-4.23168
-1.5552
-2.96218
5.10308
-3.28357
3.65983
-0.333507
3.99334
-4.07381
0.859704
-0.769184
3.42047
3.6663
4.30464
-3.07298
2.92608
-4.67579
-1.3056
-4.10925
-0.92036
-0.270615
-3.72471
3.99533
6.00064
-6.27125
-5.23996
9.53842
-4.29847
7.70094
-5.3869
-2.31403
-4.25879
-4.39273
3.88369
1.93175
9.63269
0.210163
-5.59706
-4.93407
-3.98362
3.12994
2.13854
-1.80866
3.47255
2.13229
-0.56236
0.466499
0.963405
1.7925
-1.326
0.286744
1.50576
-1.05198
1.8188
0.771437
-1.89798
0.128576
-1.31352
3.53538
1.07741
-1.99342
0.667417
0.995399
-3.53772
4.99429
-2.63942
-2.35487
5.98969
1.14511
-3.78453
4.34151
-3.94362
2.37077
-3.49012
-1.41376
-5.35738
-3.62551
-2.53436
4.92557
-3.34902
5.46083
1.2536
-5.2512
6.50481
-3.70008
1.68541
-3.07733
3.84877
-0.983131
-2.0942
2.88477
2.80187
-3.02907
0.0198188
-0.144306
2.39297
-2.53727
-0.58122
-2.59888
-4.57293
4.9029
-2.10587
4.55309
2.16826
-1.91622
6.46931
1.8096
-3.72582
-3.24839
-3.70814
-1.38344
3.15517
-0.593977
-4.25811
-5.46063
4.15782
0.22215
-6.97727
7.79195
-0.814673
-3.98637
-0.66623
4.8003
-6.02499
0.483704
-3.94166
3.85028
4.75478
4.97693
-11.3741
-0.208975
-6.21579
1.13229
-7.34809
5.52736
-3.55576
7.70065
-10.3552
6.9084
-9.22766
6.52239
-0.825699
6.24862
-4.07605
2.77568
-8.47743
-6.8654
5.46592
-2.75594
6.1815
-3.11717
9.29867
-5.77739
5.2567
4.04197
-1.0049
-4.15821
-5.24911
4.24421
0.00759356
4.13256
4.97868
-2.87092
4.65072
2.26539
-4.65947
-2.13093
-6.495
1.83553
-3.34118
-1.91936
3.75488
3.16537
3.75291
1.23674
-3.34419
7.17982
-8.16127
-1.85073
-3.25616
5.23623
-0.992016
3.38086
-6.63702
-1.8589
4.82467
-0.783704
-4.04097
0.853341
-4.41727
1.67291
-6.09018
5.23508
-5.64139
2.22184
-9.76582
-5.19358
-5.14862
-2.25926
-5.23593
-7.58335
5.32409
-1.81528
5.50445
-8.52711
7.7434
-3.48791
8.812
-5.43544
-1.05117
5.8511
1.31858
10.1306
0.207626
-4.72389
-1.90642
3.88125
-1.97483
1.22352
-3.51709
0.364163
2.48481
3.50488
-6.73037
-0.00450509
-4.7284
-3.92041
7.94266
5.61801
11.6186
1.24067
9.12588
-1.18322
10.3666
4.14393
4.37991
-3.01216
4.48802
0.983174
4.57205
-0.907482
2.82333
1.68809
1.76375
0.72913
2.30721
1.35909
3.16692
0.10481
-2.02281
4.62538
-8.609
-0.97168
-8.0371
1.1259
5.71335
-4.58745
3.00017
-0.861629
1.02534
-0.0398612
-1.36852
1.40838
-2.76602
-1.93088
-0.425119
-1.66968
2.3371
1.86569
-1.91198
-0.854039
0.355184
-3.9807
3.13494
-3.11512
-0.313247
6.19156
-2.81161
0.274333
-1.1262
-2.32455
-2.85115
2.72257
6.17621
0.293092
3.11272
5.196
3.09938
0.228463
3.90388
-5.6767
-3.62731
-5.88568
-0.358317
4.44198
1.74601
7.95672
5.78798
4.79596
-1.84106
-10.0023
6.55365
-2.06563
5.21666
-1.17569
-4.91449
5.02535
2.36734
-5.68213
0.0407378
-4.87376
-6.93939
-0.513976
8.25738
-9.6166
8.56542
5.71641
1.36674
-4.41033
-0.738287
4.24237
0.137548
10.5041
-1.12775
-6.75258
7.88033
-4.58561
3.61393
0.773942
2.69861
2.18232
1.32069
-5.43189
-10.0193
-2.0079
-1.52982
-4.36277
0.518168
-2.38386
6.23157
-2.61764
3.91753
5.26269
6.28803
-2.1391
-4.13216
6.43757
-2.52003
3.76799
)
;

boundaryField
{
    wall-4
    {
        type            calculated;
        value           uniform 0;
    }
    velocity-inlet-5
    {
        type            calculated;
        value           uniform -3.75095;
    }
    velocity-inlet-6
    {
        type            calculated;
        value           uniform -5.62643;
    }
    pressure-outlet-7
    {
        type            calculated;
        value           nonuniform List<scalar> 8(3.31036 7.77475 4.44273 9.71277 7.40398 5.14829 5.75384 8.96663);
    }
    wall-8
    {
        type            calculated;
        value           uniform 0;
    }
    frontAndBackPlanes
    {
        type            empty;
        value           nonuniform 0();
    }
}


// ************************************************************************* //
