/*--------------------------------*- C++ -*----------------------------------*\
| =========                 |                                                 |
| \\      /  F ield         | OpenFOAM: The Open Source CFD Toolbox           |
|  \\    /   O peration     | Version:  4.0                                   |
|   \\  /    A nd           | Web:      www.OpenFOAM.org                      |
|    \\/     M anipulation  |                                                 |
\*---------------------------------------------------------------------------*/
FoamFile
{
    version     2.0;
    format      ascii;
    class       surfaceScalarField;
    location    "74";
    object      phi;
}
// * * * * * * * * * * * * * * * * * * * * * * * * * * * * * * * * * * * * * //

dimensions      [0 3 -1 0 0 0 0];

internalField   nonuniform List<scalar> 
17370
(
-0.0916059
0.0960093
0.284607
-0.0775944
0.0594197
0.36495
-0.0430414
0.031621
0.427589
-0.0223164
0.0162631
0.505305
-0.0116693
0.00879486
0.602277
-0.00658298
0.00509752
0.720543
-0.00386033
0.00298004
0.863787
-0.00220728
0.00162921
1.03603
-0.00109767
0.00067653
1.24292
-0.000264622
-0.000131356
1.49159
0.000520842
-0.00093492
1.49161
0.00134098
-0.00184575
1.2432
0.00239373
-0.00313238
1.03638
0.00398656
-0.00520401
0.864124
0.00667792
-0.00887969
0.721259
0.011743
-0.0163203
0.603792
0.0223561
-0.0316414
0.508725
0.0430411
-0.0594071
0.432534
0.0775864
-0.0960023
0.365191
0.0916216
0.197389
-0.127094
0.0880268
0.0390669
-0.364359
0.354034
-0.0714713
0.0817959
-0.446654
0.454259
-0.0791651
0.0715601
-0.521012
0.529115
-0.0637038
0.0556012
-0.612992
0.620765
-0.0482114
0.0404391
-0.727166
0.73369
-0.0338246
0.0273008
-0.867583
0.872438
-0.0220941
0.0172389
-1.03857
1.04191
-0.013538
0.0101961
-1.24472
1.24713
-0.00764268
0.00523365
-1.49284
1.49486
-0.00326641
0.00124901
-1.49269
1.49452
0.000572917
-0.00239464
-1.2441
1.24602
0.004371
-0.00628502
-1.03761
1.04008
0.00862031
-0.0110949
-0.866185
0.869807
0.0143452
-0.0179671
-0.724591
0.729743
0.0227494
-0.0279011
-0.609062
0.615629
0.0343719
-0.0409389
-0.515121
0.522454
0.048656
-0.0559886
-0.43988
0.447653
0.0640059
-0.0717789
-0.374703
0.377355
0.079265
-0.0819168
-0.256892
0.224428
0.0715661
-0.0391018
-0.0688177
0.0592093
0.00960849
-0.052089
0.0589096
-0.374844
0.368023
-0.0580573
0.0542114
-0.453952
0.457798
-0.0487211
0.0441581
-0.527625
0.532188
-0.0396036
0.0357029
-0.62081
0.624711
-0.031484
0.0274831
-0.734669
0.73867
-0.0231199
0.0192267
-0.873966
0.877859
-0.0151751
0.0117123
-1.04337
1.04684
-0.00818652
0.00514835
-1.24866
1.2517
-0.00193538
-0.00104957
-1.49695
1.49993
0.00401208
-0.00716294
-1.49741
1.50057
0.0101098
-0.0135089
-1.25006
1.25346
0.0168387
-0.0207348
-1.04564
1.04954
0.0244918
-0.0287221
-0.877123
0.881354
0.0326158
-0.036728
-0.738969
0.743081
0.04054
-0.0450072
-0.625958
0.630425
0.0494972
-0.0549163
-0.535006
0.540425
0.0586791
-0.0594338
-0.458065
0.458819
0.0524762
-0.0320771
-0.336747
0.316347
0.00967743
-0.0686508
0.0589734
-0.0534236
0.0493161
0.00410752
-0.0332166
0.0436281
-0.358586
0.348175
-0.0472939
0.0466999
-0.459596
0.46019
-0.0437647
0.0405459
-0.53615
0.539368
-0.0368615
0.0334995
-0.628416
0.631778
-0.0298571
0.0266077
-0.742057
0.745307
-0.0231454
0.0199391
-0.881362
0.884568
-0.0163363
0.0129757
-1.05027
1.05363
-0.00926703
0.00585442
-1.25497
1.25838
-0.00205632
-0.0015647
-1.50329
1.50691
0.00515304
-0.00885642
-1.50406
1.50776
0.0121394
-0.0156678
-1.25701
1.26054
0.0188396
-0.0222212
-1.05324
1.05662
0.0252333
-0.0285052
-0.884952
0.888224
0.0316005
-0.0350896
-0.746754
0.750243
0.038321
-0.0418696
-0.634536
0.638085
0.0449707
-0.0477742
-0.54456
0.547364
0.0482315
-0.0443762
-0.456925
0.453069
0.033732
-0.0163978
-0.297013
0.279679
0.00418409
-0.0531185
0.0489344
-0.046151
0.0436005
0.00255052
-0.023012
0.0333432
-0.337598
0.327267
-0.0390602
0.0399975
-0.459949
0.459012
-0.0387352
0.0363983
-0.542031
0.544368
-0.0337454
0.0311885
-0.634754
0.637311
-0.0281992
0.0253397
-0.748402
0.751261
-0.0220891
0.0190636
-0.887636
0.890661
-0.0156997
0.0125538
-1.05682
1.05996
-0.00898425
0.00557368
-1.26178
1.26519
-0.00165399
-0.00214878
-1.51065
1.51445
0.00590913
-0.00970027
-1.51153
1.51532
0.0129378
-0.0162697
-1.26398
1.26731
0.0191672
-0.022242
-1.05982
1.0629
0.0250112
-0.0280051
-0.891406
0.8944
0.0306531
-0.0334305
-0.753409
0.756186
0.0358084
-0.03828
-0.641026
0.643498
0.0404623
-0.0415214
-0.549186
0.550245
0.0403723
-0.0343462
-0.447926
0.4419
0.0236748
-0.0103988
-0.264467
0.251191
0.00264555
-0.0456834
0.0430379
-0.0414876
0.0396934
0.00179415
-0.0169
0.0261602
-0.31742
0.308159
-0.0327312
0.0348331
-0.457465
0.455363
-0.0343822
0.0326698
-0.546408
0.54812
-0.0304266
0.0282836
-0.639633
0.641776
-0.0258286
0.0234338
-0.753875
0.75627
-0.0206009
0.0178379
-0.893534
0.896297
-0.0146356
0.0115848
-1.06302
1.06607
-0.00810317
0.00477408
-1.26853
1.27186
-0.000922998
-0.00283051
-1.51822
1.52197
0.00652914
-0.0102175
-1.51906
1.52275
0.0133266
-0.0165073
-1.27057
1.27375
0.0192428
-0.0220748
-1.06592
1.06875
0.0245063
-0.0270066
-0.897165
0.899665
0.0291283
-0.0313114
-0.758609
0.760792
0.0332261
-0.0352356
-0.645709
0.647719
0.0367233
-0.0368967
-0.550808
0.550982
0.0344693
-0.0274453
-0.435279
0.428255
0.0177285
-0.00750509
-0.239582
0.229359
0.00191054
-0.0408197
0.0389091
-0.0381503
0.0368062
0.00134414
-0.0128914
0.0208582
-0.299548
0.291581
-0.0275915
0.0304874
-0.45283
0.449934
-0.0306714
0.0295272
-0.549572
0.550716
-0.0275087
0.0255627
-0.643848
0.645794
-0.0233284
0.021166
-0.758532
0.760694
-0.0186348
0.0161452
-0.898868
0.901358
-0.0132019
0.0103258
-1.06899
1.07187
-0.00697509
0.00374184
-1.27511
1.27834
5.87855e-06
-0.00364317
-1.52565
1.52929
0.00721271
-0.0107548
-1.52635
1.52989
0.0137126
-0.0166869
-1.27685
1.27982
0.0191677
-0.0216462
-1.07147
1.07395
0.023722
-0.0258369
-0.901954
0.904068
0.0276544
-0.0295429
-0.762812
0.764701
0.0311998
-0.0329374
-0.649569
0.651307
0.0337541
-0.033183
-0.550785
0.550213
0.0298215
-0.022467
-0.421008
0.413653
0.0139132
-0.00581084
-0.220296
0.212194
0.00148609
-0.0372374
0.0357513
-0.0356331
0.0346007
0.00103236
-0.0100564
0.0167911
-0.284253
0.277518
-0.0232655
0.0266164
-0.446788
0.443437
-0.0273709
0.0266554
-0.551635
0.552351
-0.0248663
0.023061
-0.647706
0.649511
-0.0209734
0.0189434
-0.762789
0.764819
-0.0165557
0.0142132
-0.903713
0.906055
-0.0114586
0.00875863
-1.07459
1.07729
-0.0055844
0.00248963
-1.28147
1.28456
0.00111836
-0.00462174
-1.53284
1.53634
0.00803964
-0.0113942
-1.53332
1.53668
0.0141468
-0.0168554
-1.28267
1.28538
0.0190686
-0.0212505
-1.07633
1.07851
0.0230815
-0.0249531
-0.906064
0.907935
0.0265554
-0.0282138
-0.766464
0.768122
0.0296607
-0.0310626
-0.652898
0.654299
0.0313701
-0.0300663
-0.54929
0.547986
0.0260736
-0.0187812
-0.406303
0.399011
0.0113089
-0.00469137
-0.204903
0.198286
0.00120503
-0.0344217
0.0332167
-0.0336948
0.0328934
0.000801377
-0.0079524
0.0136065
-0.271351
0.265697
-0.0195957
0.0231437
-0.439974
0.436426
-0.0243738
0.0239023
-0.552971
0.553442
-0.0223822
0.0206844
-0.651309
0.653006
-0.018691
0.0167484
-0.766804
0.768747
-0.0144591
0.0122091
-0.908291
0.910541
-0.00955944
0.00697007
-1.07987
1.08246
-0.00393835
0.000980773
-1.28754
1.2905
0.00246527
-0.00580579
-1.53974
1.54308
0.00904249
-0.0121782
-1.5399
1.54304
0.0147138
-0.0171767
-1.28797
1.29043
0.0191695
-0.0211158
-1.08066
1.0826
0.022738
-0.0243941
-0.909703
0.91136
0.0258118
-0.0272771
-0.769677
0.771142
0.0285278
-0.0295461
-0.655495
0.656513
0.0294794
-0.0274996
-0.546347
0.544368
0.0230938
-0.0160545
-0.391839
0.3848
0.00948392
-0.00391976
-0.192245
0.186681
0.00101131
-0.0321205
0.0311092
-0.0321898
0.0315671
0.000622699
-0.0063293
0.0110583
-0.260531
0.255802
-0.0164537
0.0200004
-0.432874
0.429327
-0.0215515
0.0213027
-0.553833
0.554081
-0.0200123
0.0183754
-0.654719
0.656356
-0.0164365
0.0145416
-0.770663
0.772558
-0.0123092
0.0101171
-0.912692
0.914884
-0.00753737
0.00501962
-1.08494
1.08745
-0.00207928
-0.000766252
-1.29334
1.29619
0.00406905
-0.00724505
-1.5463
1.54948
0.010293
-0.013214
-1.54604
1.54896
0.0155533
-0.0178018
-1.29279
1.29504
0.0195929
-0.0213144
-1.08454
1.08626
0.0227403
-0.0241989
-0.912917
0.914376
0.0254506
-0.0267399
-0.772513
0.773802
0.0278416
-0.0284354
-0.657318
0.657912
0.0279942
-0.0254424
-0.542115
0.539563
0.0207781
-0.0140582
-0.377929
0.371209
0.00819805
-0.00338395
-0.181529
0.176715
0.000877614
-0.0301745
0.0292968
-0.031024
0.0305461
0.000477896
-0.00502203
0.00895199
-0.251496
0.247567
-0.013707
0.0171019
-0.425859
0.422464
-0.0188326
0.0187707
-0.554272
0.554334
-0.0176742
0.0160702
-0.658039
0.659643
-0.0141529
0.0122714
-0.774441
0.776322
-0.0100549
0.0078836
-0.916984
0.919155
-0.00533777
0.00286453
-1.08987
1.09234
4.84842e-06
-0.00278144
-1.29894
1.30171
0.00596771
-0.00899676
-1.55254
1.55557
0.0118704
-0.0145918
-1.55175
1.55447
0.0167446
-0.0187845
-1.29718
1.29922
0.0203779
-0.021881
-1.08799
1.0895
0.0231219
-0.0244002
-0.915739
0.917017
0.0255028
-0.026631
-0.775004
0.776132
0.0275384
-0.0277533
-0.658313
0.658528
0.0268995
-0.0238618
-0.536779
0.533741
0.0190357
-0.0126253
-0.364661
0.358251
0.00730296
-0.00301781
-0.172197
0.167912
0.000787843
-0.028473
0.0276852
-0.0301357
0.0297805
0.000355268
-0.00392553
0.00715244
-0.244009
0.240782
-0.0112539
0.0143861
-0.41921
0.416078
-0.0161691
0.0162555
-0.554365
0.554278
-0.0152404
0.0137058
-0.661287
0.662822
-0.0117819
0.00988117
-0.778204
0.780105
-0.00764231
0.00545624
-0.92124
0.923426
-0.00290632
0.000444498
-1.09472
1.09718
0.00240382
-0.00512548
-1.30439
1.30712
0.00822307
-0.0111322
-1.5585
1.56141
0.0138534
-0.0163889
-1.55706
1.5596
0.0183614
-0.0201965
-1.30115
1.30298
0.0215948
-0.0228828
-1.09104
1.09233
0.0239432
-0.025048
-0.918198
0.919302
0.0260075
-0.0269699
-0.777167
0.77813
0.0276134
-0.0275352
-0.658609
0.658531
0.0262311
-0.0227504
-0.530492
0.527011
0.0178025
-0.0116442
-0.351991
0.345833
0.00670722
-0.00278089
-0.163835
0.159909
0.000731863
-0.026934
0.0262022
-0.0294855
0.0292397
0.000245774
-0.00296314
0.0055545
-0.237892
0.2353
-0.009002
0.0117874
-0.413133
0.410348
-0.0135078
0.0136708
-0.554201
0.554038
-0.0126936
0.0112002
-0.66442
0.665913
-0.00924631
0.00729632
-0.782015
0.783965
-0.00499854
0.00276288
-0.925529
0.927764
-0.000172741
-0.00232193
-1.09955
1.10205
0.00517772
-0.00788169
-1.30976
1.31246
0.0109234
-0.0137379
-1.56423
1.56704
0.0163249
-0.0186864
-1.562
1.56436
0.0204858
-0.022121
-1.30471
1.30634
0.0233235
-0.0243907
-1.09369
1.09476
0.0252664
-0.0261945
-0.920302
0.92123
0.0270088
-0.0278038
-0.778975
0.77977
0.0281577
-0.0277793
-0.658307
0.657929
0.0260133
-0.0221024
-0.523338
0.519428
0.0170316
-0.0110397
-0.339791
0.333799
0.00635181
-0.00264676
-0.156121
0.152416
0.000702805
-0.0254937
0.0247909
-0.0290512
0.0289093
0.00014183
-0.00207122
0.00406553
-0.233024
0.231029
-0.00685412
0.00922229
-0.40779
0.405422
-0.0107708
0.01093
-0.553935
0.553776
-0.00995586
0.00846381
-0.667508
0.669
-0.00645188
0.00442175
-0.785931
0.787961
-0.00202745
-0.000289477
-0.929918
0.932235
0.00297064
-0.00552616
-1.10446
1.10701
0.00842877
-0.0111477
-1.31509
1.31781
0.0141645
-0.0169067
-1.56977
1.57251
0.0193746
-0.0215715
-1.56659
1.56879
0.0232037
-0.0246412
-1.30786
1.3093
0.0256422
-0.0264761
-1.09594
1.09678
0.0271539
-0.027888
-0.922037
0.922771
0.0285462
-0.029198
-0.780423
0.781075
0.0292336
-0.0284592
-0.657352
0.656577
0.0262306
-0.0218924
-0.51535
0.511011
0.0166708
-0.0107488
-0.327881
0.321959
0.00619083
-0.00259498
-0.148793
0.145197
0.000695257
-0.0241009
0.0234057
-0.028825
0.0287881
3.69599e-05
-0.00120209
0.00261419
-0.22934
0.227928
-0.00473
0.00661641
-0.403315
0.401429
-0.0078876
0.00795979
-0.55373
0.553658
-0.00694174
0.00541329
-0.670634
0.672163
-0.00330487
0.00116047
-0.79001
0.792154
0.00137096
-0.00381521
-0.934479
0.936923
0.00662157
-0.00927979
-1.10949
1.11215
0.0122726
-0.0150432
-1.32047
1.32324
0.0180696
-0.0207639
-1.57518
1.57787
0.0231277
-0.0251661
-1.57085
1.57289
0.02663
-0.0278654
-1.3106
1.31183
0.0286593
-0.029257
-1.09776
1.09836
0.0297322
-0.0302615
-0.923379
0.923909
0.0307491
-0.0311834
-0.781504
0.781938
0.0309218
-0.0296722
-0.655605
0.654356
0.0269435
-0.0221426
-0.506509
0.501708
0.0167092
-0.0107441
-0.316062
0.310097
0.00620227
-0.00261565
-0.141634
0.138048
0.000706696
-0.0227145
0.0220078
-0.0288104
0.0288808
-7.04115e-05
-0.000318546
0.00113952
-0.226821
0.226
-0.00255112
0.00388778
-0.399836
0.398499
-0.00477617
0.00467561
-0.553758
0.553859
-0.00355543
0.00193763
-0.673887
0.675505
0.000305059
-0.00260475
-0.794323
0.796623
0.00532052
-0.00793404
-0.939289
0.941902
0.0109177
-0.013723
-1.11474
1.11754
0.0168512
-0.0197108
-1.32596
1.32882
0.0227811
-0.0254506
-1.58049
1.58316
0.0277234
-0.0296058
-1.57479
1.57667
0.0308978
-0.0319229
-1.31291
1.31394
0.0325057
-0.0328609
-1.09914
1.0995
0.0331228
-0.033434
-0.924301
0.924612
0.0337259
-0.0338572
-0.78205
0.782181
0.0332813
-0.0314763
-0.652921
0.651116
0.0281921
-0.0228675
-0.496734
0.491409
0.0171383
-0.0110072
-0.304103
0.297972
0.00637132
-0.0027017
-0.13445
0.130781
0.00073509
-0.0212971
0.020562
-0.0290224
0.0292133
-0.000190825
0.000610228
-0.000414625
-0.225489
0.225294
-0.000238378
0.000948986
-0.397479
0.396768
-0.00134928
0.000988978
-0.554201
0.554561
0.000289976
-0.00207239
-0.677382
0.679165
0.00451014
-0.0070159
-0.798958
0.801464
0.00997018
-0.0128018
-0.944439
0.947271
0.0160172
-0.0190182
-1.12029
1.12329
0.0223316
-0.0253197
-1.33163
1.33462
0.0284686
-0.0311346
-1.58576
1.58843
0.033324
-0.0350467
-1.57841
1.58013
0.0361623
-0.0369681
-1.31477
1.31558
0.0373307
-0.0374288
-1.10003
1.10013
0.0374603
-0.037537
-0.924767
0.924844
0.0376309
-0.037372
-0.781951
0.781692
0.0363998
-0.0339619
-0.649142
0.646704
0.0300427
-0.0240975
-0.485885
0.479939
0.0179615
-0.0115279
-0.29175
0.285317
0.00668733
-0.00284708
-0.127057
0.123217
0.000778417
-0.019816
0.0190376
-0.0294888
0.0298297
-0.000340984
0.0016658
-0.0021101
-0.22544
0.225885
0.00230754
-0.00233126
-0.396383
0.396407
0.00255434
-0.00328489
-0.55528
0.556011
0.00480483
-0.00679258
-0.681262
0.68325
0.00947891
-0.0122447
-0.804001
0.806767
0.0155009
-0.0186098
-0.95003
0.953139
0.0221202
-0.0253711
-1.12624
1.12949
0.0289228
-0.0320802
-1.33757
1.34073
0.0353407
-0.0380201
-1.59103
1.59371
0.0401287
-0.0416801
-1.58169
1.58324
0.0425961
-0.0431719
-1.31615
1.31673
0.043305
-0.0431224
-1.10039
1.10021
0.0428985
-0.0427242
-0.924724
0.92455
0.0426095
-0.0418615
-0.781037
0.780288
0.0404031
-0.0372198
-0.644113
0.64093
0.0325517
-0.0258531
-0.473754
0.467055
0.0191761
-0.0122932
-0.278727
0.271844
0.00713782
-0.00304467
-0.119284
0.115191
0.000834273
-0.0182424
0.0174081
-0.0302405
0.0307624
-0.000521938
0.00297102
-0.00419187
-0.226735
0.227956
0.00526835
-0.00610307
-0.396761
0.397595
0.00705489
-0.00825585
-0.557228
0.558429
0.0101074
-0.0123806
-0.685637
0.68791
0.0154047
-0.0185069
-0.809571
0.812673
0.022144
-0.0255984
-0.956183
0.959637
0.0294737
-0.0330326
-1.13271
1.13626
0.0368772
-0.040242
-1.34385
1.34722
0.04364
-0.0463394
-1.59631
1.59901
0.0483571
-0.0497203
-1.58461
1.58597
0.0504111
-0.0507425
-1.317
1.31733
0.0506237
-0.0501368
-1.10017
1.09968
0.0496403
-0.0492009
-0.924116
0.923677
0.0487532
-0.0475351
-0.779183
0.777965
0.0454269
-0.0413512
-0.637594
0.633518
0.0357839
-0.0281595
-0.460059
0.452435
0.0207812
-0.0132899
-0.264734
0.257243
0.00770924
-0.00328624
-0.110968
0.106545
0.000899722
-0.0165527
0.0156529
-0.0313528
0.0321004
-0.000747598
0.00449599
-0.00661337
-0.229585
0.231702
0.0087692
-0.0105254
-0.398825
0.400581
0.0123128
-0.0141049
-0.560296
0.562088
0.0164234
-0.0190837
-0.690673
0.693333
0.0225566
-0.0260802
-0.815821
0.819345
0.0301895
-0.034069
-0.963037
0.966916
0.0383892
-0.042319
-1.1398
1.14373
0.0465093
-0.0501122
-1.35055
1.35416
0.0536603
-0.0563703
-1.60163
1.60434
0.0582714
-0.0594084
-1.58712
1.58826
0.0598355
-0.0598821
-1.31726
1.31731
0.0594896
-0.0586764
-1.09931
1.0985
0.0578832
-0.0571498
-0.9229
0.922166
0.0562892
-0.0545306
-0.776431
0.774673
0.0516281
-0.0464571
-0.629277
0.624106
0.0397892
-0.0310195
-0.44444
0.43567
0.0227547
-0.0144872
-0.249449
0.241181
0.00837564
-0.00355729
-0.101961
0.0971422
0.000969848
-0.0147297
0.0137599
-0.0329099
0.0339507
-0.00104087
0.00640543
-0.00959077
-0.234231
0.237417
0.0130299
-0.015857
-0.402843
0.40567
0.0186268
-0.0211364
-0.564763
0.567273
0.0240671
-0.0272379
-0.696589
0.69976
0.0312921
-0.0353517
-0.822923
0.826982
0.0400428
-0.0444359
-0.970754
0.975147
0.0492833
-0.0536408
-1.14763
1.15199
0.0582153
-0.0620667
-1.35772
1.36157
0.0657468
-0.0684255
-1.60694
1.60962
0.070154
-0.0710033
-1.58915
1.59
0.0711104
-0.0708191
-1.31681
1.31652
0.0701324
-0.0689515
-1.09774
1.09656
0.0678247
-0.0668046
-0.921034
0.920014
0.0654099
-0.0630144
-0.772615
0.770219
0.0591266
-0.0525951
-0.618749
0.612217
0.0445701
-0.0343909
-0.426444
0.416265
0.0250347
-0.0158249
-0.232539
0.223329
0.00909214
-0.00383467
-0.0921403
0.0868828
0.00103725
-0.0127676
0.0117304
-0.0350388
0.0364836
-0.00144479
0.00889416
-0.0134486
-0.241
0.245555
0.0183899
-0.0224626
-0.409185
0.413258
0.0263827
-0.0297637
-0.57096
0.574341
0.033485
-0.0373284
-0.703654
0.707497
0.0421329
-0.0468612
-0.831098
0.835826
0.0522555
-0.0572521
-0.979514
0.98451
0.0626986
-0.0675192
-1.15633
1.16115
0.0724801
-0.0765488
-1.36535
1.36942
0.0802932
-0.0828543
-1.61213
1.61469
0.0843159
-0.0847787
-1.59055
1.59101
0.084503
-0.0837943
-1.31555
1.31485
0.082753
-0.0811921
-1.09537
1.09381
0.0797519
-0.0783038
-0.918481
0.917033
0.0763929
-0.0731106
-0.767481
0.764199
0.067994
-0.0597624
-0.605458
0.597226
0.050058
-0.0381588
-0.405535
0.393635
0.0274977
-0.0171999
-0.213683
0.203385
0.00978822
-0.00408461
-0.0814371
0.0757335
0.00109182
-0.0106765
0.00958471
-0.0379416
0.0399554
-0.00201381
0.0123555
-0.0186404
-0.250418
0.256703
0.0253871
-0.0309163
-0.418346
0.423876
0.0361989
-0.0406508
-0.579277
0.583729
0.0453677
-0.0500831
-0.712213
0.716928
0.0558477
-0.0613951
-0.840604
0.846152
0.0676124
-0.0732817
-0.98949
0.99516
0.0793562
-0.0846205
-1.16592
1.17118
0.0898977
-0.0940801
-1.37335
1.37753
0.0977406
-0.100027
-1.617
1.61929
0.101066
-0.100998
-1.59109
1.59102
0.100249
-0.0990069
-1.31337
1.31212
0.097568
-0.0956121
-1.09215
1.09019
0.0938165
-0.0918276
-0.914921
0.912932
0.0893694
-0.0849355
-0.760486
0.756052
0.07824
-0.0678565
-0.588687
0.578303
0.0560737
-0.0421067
-0.381097
0.36713
0.0299393
-0.0184567
-0.192618
0.181135
0.0103648
-0.00426272
-0.0698636
0.0637615
0.00112102
-0.00848791
0.00736689
-0.0419422
0.0448403
-0.00289803
0.0173666
-0.0259197
-0.263219
0.271772
0.0349111
-0.0422047
-0.430991
0.438285
0.0491303
-0.0548554
-0.590207
0.595932
0.0608978
-0.0667853
-0.722686
0.728574
0.0736992
-0.0801718
-0.851721
0.858193
0.087266
-0.0935924
-1.00079
1.00712
0.100207
-0.105778
-1.17631
1.18188
0.111166
-0.115239
-1.38146
1.38553
0.118542
-0.120293
-1.62119
1.62294
0.120676
-0.119876
-1.59046
1.58966
0.118503
-0.116639
-1.31004
1.30817
0.114761
-0.112378
-1.08799
1.0856
0.110194
-0.107562
-0.910095
0.907463
0.104373
-0.0983946
-0.751036
0.745058
0.0896531
-0.0765582
-0.567497
0.554402
0.0622396
-0.0458585
-0.352477
0.336096
0.0320416
-0.0193767
-0.169211
0.156546
0.0106925
-0.00431519
-0.0575545
0.0511771
0.00111064
-0.00625867
0.00514803
-0.0476271
0.0520207
-0.0043936
0.0251335
-0.036774
-0.280567
0.292208
0.0486892
-0.0583234
-0.448171
0.457805
0.0672876
-0.0744942
-0.604348
0.611555
0.0821012
-0.0895244
-0.735447
0.74287
0.0976621
-0.104987
-0.864652
0.871977
0.112796
-0.119561
-1.01331
1.02007
0.1264
-0.131937
-1.18715
1.19269
0.137026
-0.140597
-1.38914
1.39271
0.14311
-0.143941
-1.6241
1.62493
0.143343
-0.141571
-1.58824
1.58646
0.139408
-0.136816
-1.30538
1.30279
0.134413
-0.131578
-1.08276
1.07992
0.128866
-0.125599
-0.903868
0.900602
0.121296
-0.113192
-0.738259
0.730154
0.101751
-0.0852723
-0.540706
0.524227
0.067949
-0.0488898
-0.319078
0.300018
0.0334049
-0.0197138
-0.143582
0.129891
0.0106381
-0.00419089
-0.0448087
0.0383615
0.00104729
-0.00407232
0.00302503
-0.0560847
0.0636244
-0.00753969
0.0388039
-0.0549418
-0.304635
0.320773
0.0709372
-0.0837836
-0.471509
0.484356
0.0949215
-0.103529
-0.622147
0.630755
0.112663
-0.121376
-0.750889
0.759602
0.130462
-0.138223
-0.879094
0.886855
0.146158
-0.152753
-1.02642
1.03302
0.15913
-0.163987
-1.1976
1.20246
0.168093
-0.170542
-1.3955
1.39795
0.171689
-0.171156
-1.62491
1.62437
0.169223
-0.166174
-1.58392
1.58087
0.163002
-0.159523
-1.29915
1.29567
0.156506
-0.153199
-1.07634
1.07303
0.14994
-0.145732
-0.895924
0.891716
0.139738
-0.12864
-0.720831
0.709734
0.113621
-0.0929981
-0.506841
0.486218
0.0723754
-0.0506331
-0.280548
0.258806
0.0336975
-0.0193374
-0.116242
0.101882
0.0101649
-0.00389301
-0.0321095
0.0258376
0.000935334
-0.0020369
0.00110157
-0.0706436
0.0748686
-0.00422495
0.029744
-0.0437283
-0.339455
0.353439
0.0579157
-0.0696583
-0.502452
0.514195
0.0802226
-0.0901169
-0.64322
0.653115
0.101229
-0.111393
-0.767888
0.778053
0.122713
-0.132853
-0.893746
0.903886
0.143718
-0.153439
-1.03868
1.0484
0.163656
-0.172488
-1.20624
1.21508
0.18137
-0.188588
-1.39927
1.40648
0.19522
-0.199839
-1.62268
1.62729
0.202429
-0.203597
-1.57684
1.57801
0.203585
-0.203065
-1.29104
1.29052
0.202749
-0.201901
-1.06846
1.06761
0.200383
-0.196064
-0.885406
0.881088
0.1874
-0.170177
-0.696803
0.67958
0.146802
-0.116127
-0.46441
0.433735
0.0872956
-0.058574
-0.237074
0.208352
0.037609
-0.0208196
-0.0882512
0.0714618
0.010581
-0.00389907
-0.0200902
0.0134083
0.000894169
-0.000253694
-0.000640475
-0.0821729
0.0803134
0.00185951
0.00772081
-0.0169919
-0.370296
0.379567
0.0277995
-0.0361545
-0.530703
0.539058
0.0446706
-0.0530913
-0.665587
0.674008
0.0633129
-0.0728438
-0.78788
0.797411
0.083022
-0.0923576
-0.913487
0.922823
0.102324
-0.110901
-1.05784
1.06642
0.12011
-0.127712
-1.22374
1.23134
0.135319
-0.141242
-1.41344
1.41936
0.146178
-0.14932
-1.63119
1.63433
0.150487
-0.150268
-1.57859
1.57837
0.148855
-0.146815
-1.28905
1.28701
0.145063
-0.143129
-1.06406
1.06212
0.14057
-0.134925
-0.872217
0.866572
0.125452
-0.109477
-0.658182
0.642207
0.0905406
-0.0679909
-0.40134
0.37879
0.0488615
-0.0316387
-0.180421
0.163198
0.0199092
-0.0109384
-0.0558502
0.0468794
0.00556875
-0.00203691
-0.00709737
0.00356554
0.000403678
0.00160146
-0.00200514
-0.0836632
0.0807004
0.00296281
-0.00169368
-0.00372241
-0.391171
0.396587
0.0111225
-0.0171989
-0.551669
0.557745
0.023532
-0.0308959
-0.684572
0.691936
0.0397465
-0.0480233
-0.806039
0.814315
0.0570879
-0.0652347
-0.931405
0.939552
0.0736796
-0.0813086
-1.07481
1.08243
0.0892784
-0.0959351
-1.23849
1.24514
0.102122
-0.106718
-1.42459
1.42919
0.110504
-0.11237
-1.63677
1.63864
0.112312
-0.110921
-1.57758
1.57619
0.108612
-0.105791
-1.28455
1.28173
0.102856
-0.0997978
-1.05754
1.05448
0.09631
-0.0903963
-0.856916
0.851002
0.0815971
-0.0681084
-0.623156
0.609667
0.0539474
-0.0387792
-0.354636
0.339468
0.0273794
-0.0178933
-0.145969
0.136483
0.0116007
-0.00672723
-0.0381444
0.0332709
0.00360862
-0.00130684
-0.00017728
-0.0021245
0.000286426
0.00263638
-0.0029228
-0.0823393
0.0795207
0.00281859
-0.00550235
0.0029041
-0.405113
0.407711
0.00189899
-0.00650907
-0.567187
0.571797
0.0118388
-0.0179938
-0.70024
0.706395
0.0255272
-0.032598
-0.821943
0.829014
0.0403307
-0.0473011
-0.947153
0.954124
0.0549021
-0.0613433
-1.0896
1.09604
0.0682473
-0.0735233
-1.25134
1.25662
0.0787009
-0.0823848
-1.43351
1.43719
0.0850028
-0.0855949
-1.64
1.64059
0.0847049
-0.0825156
-1.57419
1.572
0.0794994
-0.0755331
-1.27842
1.27445
0.0718075
-0.0677419
-1.04926
1.04519
0.0633271
-0.0576961
-0.840911
0.83528
0.0500471
-0.0398725
-0.593656
0.583482
0.0302631
-0.021233
-0.323281
0.314251
0.0151201
-0.0103735
-0.126301
0.121555
0.0072073
-0.00457096
-0.0279738
0.0253375
0.00257995
-0.00106287
0.00452956
-0.00604665
0.000268438
0.00346884
-0.00373727
-0.0807172
0.0781855
0.00253169
-0.00680546
0.00589531
-0.414348
0.415258
-0.00237636
-0.00093104
-0.579606
0.582913
0.00523865
-0.0107943
-0.713336
0.718891
0.0170868
-0.0232522
-0.835364
0.841529
0.0299039
-0.0359068
-0.960613
0.966616
0.0423636
-0.0480119
-1.10231
1.10796
0.0537677
-0.0584573
-1.2617
1.26639
0.062719
-0.0655847
-1.44043
1.4433
0.0673197
-0.0670968
-1.64091
1.64069
0.0654387
-0.0622884
-1.56899
1.56584
0.0586197
-0.0540863
-1.2702
1.26566
0.0496627
-0.0446111
-1.03949
1.03444
0.0397097
-0.0340859
-0.825392
0.819768
0.0278238
-0.0203074
-0.571015
0.563498
0.0142926
-0.00957467
-0.303946
0.299228
0.00693085
-0.00522302
-0.115865
0.114157
0.0041003
-0.00296859
-0.0221494
0.0210177
0.00176481
-0.000817192
0.0079011
-0.00884872
0.000237248
0.0042513
-0.00448854
-0.0791456
0.0769436
0.00220206
-0.00683644
0.00651268
-0.420565
0.420889
-0.00444759
0.00180334
-0.589076
0.59172
0.00229387
-0.00701379
-0.724365
0.729085
0.0123741
-0.0176868
-0.846881
0.852194
0.0235441
-0.0288408
-0.972236
0.977532
0.0346479
-0.0394987
-1.11327
1.11812
0.0445341
-0.0485901
-1.27072
1.27477
0.0521218
-0.0543365
-1.4458
1.44802
0.0553453
-0.0548356
-1.64024
1.63973
0.0525191
-0.0489
-1.56209
1.55847
0.0446735
-0.0395227
-1.2607
1.25554
0.0347612
-0.0289553
-1.02828
1.02248
0.0235891
-0.0181326
-0.81056
0.805103
0.0127834
-0.00716426
-0.554083
0.548464
0.00356671
-0.00158975
-0.292733
0.290756
0.0012169
-0.00128755
-0.111101
0.111171
0.00136313
-0.00129795
-0.0194032
0.019338
0.000883843
-0.00049377
0.0100366
-0.0104266
0.000172472
0.00489893
-0.0050714
-0.0778641
0.076112
0.00175212
-0.0060789
0.00616143
-0.42502
0.424938
-0.0045603
0.00262595
-0.597236
0.59917
0.00113434
-0.00537198
-0.733813
0.738051
0.0103939
-0.0149194
-0.857082
0.861607
0.020001
-0.0246253
-0.982764
0.987388
0.0300256
-0.0343225
-1.12296
1.12725
0.0386531
-0.0423124
-1.27857
1.28223
0.0457305
-0.047492
-1.45015
1.45191
0.0481534
-0.0471368
-1.63868
1.63767
0.0447208
-0.0404411
-1.55447
1.55019
0.0360235
-0.0306342
-1.25001
1.24462
0.0253534
-0.0193382
-1.016
1.00999
0.0136351
-0.00788356
-0.796356
0.790605
0.00340511
0.000939984
-0.540773
0.536428
-0.00326922
0.00369071
-0.286463
0.286042
-0.00303764
0.00205046
-0.110105
0.111092
-0.00112505
0.000336352
-0.0189856
0.0197743
-3.84597e-05
-0.000114002
0.0109353
-0.0107828
8.10477e-05
0.00532695
-0.00540799
-0.0770558
0.0756504
0.00140547
-0.00508916
0.00535654
-0.428377
0.428109
-0.00401264
0.0022121
-0.604215
0.606015
0.00133401
-0.00506795
-0.742204
0.745938
0.00931154
-0.0136151
-0.866047
0.87035
0.0182349
-0.0229092
-0.991781
0.996455
0.0274588
-0.031448
-1.13159
1.13558
0.0357494
-0.038987
-1.2857
1.28893
0.0416919
-0.0436192
-1.45349
1.45542
0.0441218
-0.0430062
-1.63658
1.63547
0.0403164
-0.0361209
-1.54595
1.54176
0.0315522
-0.0259592
-1.23873
1.23314
0.0205733
-0.0143439
-1.00333
0.997102
0.00853993
-0.00282093
-0.782604
0.776885
-0.0014835
0.0050225
-0.529721
0.526182
-0.00677737
0.00677366
-0.283064
0.283068
-0.00571274
0.0042038
-0.110969
0.112478
-0.00286497
0.00155645
-0.0202209
0.0215294
-0.000829927
0.000247561
0.0106809
-0.0100986
-2.17889e-05
0.00549201
-0.00547022
-0.0767614
0.0755712
0.00119026
-0.00386593
0.00394023
-0.431243
0.431169
-0.00292972
0.00118977
-0.610501
0.612241
0.00215486
-0.00570401
-0.749886
0.753435
0.00971915
-0.0135549
-0.874402
0.878238
0.0182171
-0.0220149
-1.00051
1.00431
0.0264332
-0.0301334
-1.13968
1.14338
0.0341834
-0.0374732
-1.29209
1.29538
0.0402762
-0.0417713
-1.45701
1.45851
0.0423394
-0.0413156
-1.63417
1.63314
0.0389215
-0.0346477
-1.53732
1.53304
0.0301647
-0.0245901
-1.22752
1.22194
0.0192504
-0.0129735
-0.990322
0.984045
0.00729176
-0.00137267
-0.769334
0.763415
-0.00280711
0.00606265
-0.520047
0.516791
-0.00781172
0.00778761
-0.280623
0.280647
-0.00681847
0.00530579
-0.112692
0.114204
-0.00390147
0.00238533
-0.0224151
0.0239313
-0.00134151
0.000498293
0.00958767
-0.00874445
-0.000102661
0.00541692
-0.00531426
-0.0767365
0.0758839
0.000852584
-0.00273456
0.00236938
-0.434104
0.434469
-0.0015331
-0.000214934
-0.615973
0.617721
0.00324129
-0.00660944
-0.756963
0.760332
0.0104057
-0.0143209
-0.881896
0.885811
0.0182961
-0.0221913
-1.00828
1.01217
0.0264911
-0.0298963
-1.14746
1.15087
0.0339281
-0.0370533
-1.2984
1.30153
0.0397632
-0.0416289
-1.46034
1.46221
0.0424731
-0.041495
-1.63207
1.63109
0.0390899
-0.0352708
-1.52886
1.52504
0.0311037
-0.025662
-1.21617
1.21073
0.0203774
-0.0144666
-0.977496
0.971585
0.00854755
-0.00286979
-0.756132
0.750454
-0.00149934
0.00480984
-0.511002
0.507691
-0.00653956
0.00709274
-0.278259
0.277706
-0.00658411
0.00548762
-0.114459
0.115555
-0.00421863
0.00275466
-0.0249317
0.0263956
-0.00162857
0.000677001
0.00799373
-0.00704216
-0.000168576
0.00515337
-0.0049848
-0.0771286
0.0764487
0.00067988
-0.00176698
0.00148013
-0.437125
0.437412
-0.000193185
-0.00157987
-0.621374
0.623147
0.00468578
-0.00787631
-0.763447
0.766638
0.0114803
-0.0149487
-0.889355
0.892824
0.0190003
-0.022527
-1.01604
1.01956
0.0267134
-0.0304935
-1.15469
1.15847
0.0340759
-0.0374451
-1.30464
1.30801
0.0404649
-0.0422969
-1.46391
1.46574
0.0433533
-0.0429909
-1.63026
1.6299
0.0408492
-0.0374753
-1.52102
1.51765
0.033378
-0.0282852
-1.2053
1.2002
0.023353
-0.0175563
-0.965158
0.959361
0.0119871
-0.00631173
-0.74341
0.737734
0.00170787
0.00199289
-0.501775
0.498074
-0.00403663
0.00503735
-0.275197
0.274197
-0.00516553
0.00458368
-0.115447
0.116029
-0.00370403
0.00256032
-0.0272304
0.0283741
-0.00158459
0.000707621
0.00624703
-0.00537006
-0.000195134
0.00477322
-0.00457808
-0.0778146
0.0773163
0.000498367
-0.000701091
0.000295196
-0.440293
0.440699
0.00101244
-0.00305392
-0.626472
0.628514
0.00604079
-0.00904647
-0.769621
0.772627
0.0127112
-0.0159946
-0.896238
0.899521
0.0198496
-0.0234637
-1.02355
1.02716
0.0275054
-0.0312019
-1.16206
1.16576
0.0349478
-0.0382778
-1.31125
1.31458
0.0414006
-0.0438957
-1.46781
1.4703
0.0452758
-0.0450768
-1.6294
1.62921
0.0434952
-0.0403135
-1.51411
1.51093
0.0366899
-0.0320974
-1.19504
1.19045
0.0272193
-0.0216728
-0.953237
0.947691
0.0163031
-0.0105607
-0.73099
0.725248
0.00590544
-0.00168593
-0.492436
0.488216
-0.000765396
0.00245637
-0.271234