/*--------------------------------*- C++ -*----------------------------------*\
| =========                 |                                                 |
| \\      /  F ield         | OpenFOAM: The Open Source CFD Toolbox           |
|  \\    /   O peration     | Version:  4.0                                   |
|   \\  /    A nd           | Web:      www.OpenFOAM.org                      |
|    \\/     M anipulation  |                                                 |
\*---------------------------------------------------------------------------*/
FoamFile
{
    version     2.0;
    format      ascii;
    class       volScalarField;
    location    "52";
    object      p;
}
// * * * * * * * * * * * * * * * * * * * * * * * * * * * * * * * * * * * * * //

dimensions      [0 2 -2 0 0 0 0];

internalField   nonuniform List<scalar> 
918
(
0.559465
1.19666
0.00144347
0.558865
-0.0114189
1.16365
-0.502446
0.692497
0.539642
-0.100232
-0.0335269
0.537457
1.02438
0.788719
-1.12155
-0.00315442
0.656171
-0.380578
0.538716
-0.0454057
0.719816
0.546201
0.549229
0.539811
0.606297
0.764786
0.905211
0.0209255
0.00777971
0.00407366
-0.0109227
-0.0372913
-0.0311837
1.0473
1.09837
1.12106
0.507621
0.335742
-0.368489
-0.437626
-0.430926
-0.544111
0.687617
0.686164
-0.19615
0.695252
0.699327
0.526735
0.539009
0.539914
0.540961
0.539931
0.541318
0.410856
-0.103526
-0.136063
-0.080167
-0.0714483
0.0643987
-0.0348179
-0.0375796
-0.0316387
-0.0317118
0.457304
0.532324
0.529325
0.542732
0.552355
1.1362
1.10814
1.13427
1.04791
1.06441
1.00239
0.974948
0.810574
0.832449
0.772562
0.759684
-1.55585
-2.51176
-0.529307
-0.27759
-0.0103384
-0.000489008
0.00588625
0.651743
0.651965
0.65677
0.662014
1.08472
-0.379387
-0.476594
0.538853
0.537656
0.546004
0.546702
0.542719
0.54181
-0.035658
-0.0327006
-0.0425228
-0.0438711
-0.0426028
0.708905
0.708024
0.540345
0.537355
0.559184
0.580245
0.572532
0.283304
0.610906
0.624885
0.594096
0.756246
0.7506
0.759424
0.878857
0.841663
0.942345
0.965709
0.0167665
0.0007486
-0.00958595
-0.0172625
-0.0147249
0.503489
0.496098
0.523042
0.511022
0.513503
0.251748
0.117378
0.421347
0.44664
-0.285507
-0.348107
-0.426133
-0.455389
-0.566456
0.613364
0.679703
0.676766
-0.21009
-0.136973
-0.268347
-0.0634417
-0.124893
0.517055
0.524026
0.519046
0.534542
0.529021
0.530979
0.543264
0.54034
0.541897
0.473322
0.597102
0.337204
0.302486
-0.241685
-0.153583
-0.242606
-0.0592829
-0.0549964
0.0780547
0.103332
0.0516141
0.0398557
-0.048124
-0.0411441
-0.0442972
-0.0299882
-0.0297208
0.45016
0.439107
0.469903
0.477387
0.521487
0.522788
0.526537
0.524809
0.925847
0.948273
0.955664
0.929405
-3.50624
-6.29692
0.0488901
0.186174
-0.00538333
-0.00832116
0.00240624
-0.0042456
0.00131738
-0.00138702
0.00405001
0.00213146
0.00595878
0.00836455
0.644634
0.645107
1.00494
1.00895
0.983178
0.935041
0.527013
0.529102
0.534625
0.530495
-0.0294091
-0.0303806
-0.0287782
0.701332
0.706021
0.704478
0.245404
0.15686
0.33372
0.362415
0.63781
0.626715
0.636519
0.655337
0.690171
0.973176
0.991297
0.989593
0.997831
1.04188
1.05829
1.0236
0.483143
0.493013
0.488021
0.526194
0.523938
0.524856
0.520547
0.52193
0.519822
-0.0338428
-0.415596
0.495744
0.513817
0.496323
0.500823
0.692859
0.770292
0.663169
0.671069
0.668673
0.00494047
-0.0532029
0.258584
0.225257
0.390359
0.426411
0.405556
0.897057
0.857253
0.907372
0.880879
0.84221
0.868559
-0.367282
-1.87244
-0.988512
0.536968
0.350958
0.438384
0.0218174
0.00471129
0.00957775
1.00237
1.07736
0.652881
0.825411
0.829882
0.727836
0.758108
0.814849
0.738098
0.774457
0.811077
0.792032
0.570125
0.5091
0.523379
0.839357
0.895073
0.127967
0.0685423
0.0243892
0.121772
0.178403
0.152804
1.03862
0.949626
1.02045
0.537111
0.537822
-0.000759591
-0.0128392
0.542025
0.542075
-0.00873967
0.00292035
0.421416
-0.830376
0.110278
0.530569
0.520599
0.537657
-0.0835482
0.363459
-0.0353743
0.0590902
0.00371796
0.534661
0.46825
0.427896
0.00641299
-0.0124004
-0.0387013
-0.211829
0.534781
0.533088
0.537124
0.538081
0.538753
-0.012026
-0.00826323
-0.0059833
-0.0366363
-0.0325464
-0.0428757
0.501806
0.520334
-0.164746
0.537263
0.539392
0.539212
0.532444
0.538085
0.53633
-0.00308643
-0.0101972
-0.0116835
0.227192
0.355925
0.662783
0.751399
0.634199
0.408753
0.172349
0.565077
0.628873
0.533945
0.688171
0.676099
0.690956
0.175524
0.0254849
0.184654
0.126058
0.528427
0.527119
0.518856
0.515861
0.532518
0.530622
0.535188
0.53219
0.535141
0.536533
-0.0413712
-0.0650259
-0.0789305
-0.146143
0.3183
0.58001
0.260463
0.290988
0.151437
-0.0291551
-0.0292467
-0.0342235
-0.0413076
0.013204
-0.0110586
0.0541968
0.0549623
0.0276442
0.000645617
0.00529308
-0.00576149
-0.0025541
0.527692
0.526095
0.532476
0.541741
0.477798
0.481561
0.446824
0.467312
0.452703
0.392115
0.427157
0.402375
0.00045893
0.010695
0.00254741
-0.00855258
-0.00463328
-0.0228296
-0.0207703
-0.0164439
-0.0128523
-0.0200761
-0.0332861
-0.0313039
-0.170251
-0.285754
0.991507
0.917219
0.134645
0.523951
0.530388
0.527162
0.532036
0.535163
0.535981
0.533706
0.530261
0.52073
0.522312
0.519049
0.519836
-0.097019
-0.23793
-0.0659543
-0.138136
0.146434
0.629256
0.367853
0.304783
0.299687
0.526693
0.928064
0.714964
0.690867
0.704721
-0.338822
0.0537443
-0.273757
0.344286
0.168348
0.662868
0.711749
0.732341
0.680666
0.633708
-0.102674
0.558146
-0.0630808
-0.0129635
0.186859
0.0671542
0.688415
0.660612
0.663828
0.680893
0.697675
0.666721
0.650402
0.645083
0.677262
0.68059
0.495465
0.258418
0.210291
0.171687
0.646508
0.531554
0.585372
0.501091
0.523552
0.526205
0.524825
0.5066
0.514129
0.509698
0.516059
0.519482
0.52823
0.528663
0.523986
0.526133
-0.0458129
-0.0491127
-0.0232887
-0.133019
-0.124135
-0.185879
-0.0588595
0.079352
0.0411434
0.238947
0.344706
0.0562124
-0.0554185
-0.0278706
0.0118573
0.1829
0.208855
0.0825523
0.171105
0.159564
0.142949
0.244498
0.249128
-0.0148
-0.0191465
-0.0224153
-0.0241177
0.0302997
0.100048
0.109953
0.00818536
0.00224971
-0.0273034
-0.0271584
-0.0128707
-0.0171028
-0.0134163
0.020626
-0.041233
-0.0093165
0.00612116
0.0111987
0.00814143
0.002928
0.519968
0.522302
0.521913
0.529029
0.547531
0.563549
0.519984
0.499813
0.490684
0.493677
0.466838
0.477067
0.472748
0.486435
0.507509
0.516872
0.514208
0.516969
0.499656
0.501325
0.487847
0.491554
0.466622
0.447805
0.435973
-0.0317891
0.00618313
-0.00117735
-0.029152
-0.000146515
-0.0126721
0.00116226
0.0206699
0.00443968
0.00144832
-0.0090052
-0.0150692
-0.0142448
-0.0716037
0.0137424
-0.179881
-0.217714
-0.287962
0.893118
1.01693
0.814741
0.588025
0.605852
0.848885
0.934212
0.549982
0.739866
0.763824
0.58844
0.854003
0.528771
0.528377
0.52598
0.525456
0.526676
-0.00418977
0.0999085
0.101185
0.162075
0.278431
0.391024
0.318863
0.193581
0.324622
0.327693
0.621637
0.634226
0.589773
0.613775
0.614066
0.430376
0.506269
0.558544
0.515716
0.567756
0.588649
0.544432
0.576666
0.52691
0.481476
0.477556
0.428301
0.447982
0.424565
0.407328
0.518801
0.496044
0.506622
0.496869
0.51633
0.540902
0.537287
0.568996
0.580128
0.500356
0.456518
0.465754
0.496157
0.457022
0.471988
0.488165
0.233346
0.134571
0.2171
-0.0710973
0.00362935
-0.0104092
-0.058188
-0.00896015
0.276139
-0.417789
-0.393696
-1.02319
0.502795
0.960577
0.635634
0.60865
0.694579
0.676544
0.681364
0.698251
0.702399
0.636489
0.65204
0.65432
0.61722
0.640342
0.660104
0.657271
0.528152
0.392273
0.388943
0.339841
0.210044
0.24837
0.448489
0.370985
0.295799
0.296816
0.463756
0.351026
0.419944
0.455721
0.386885
0.340856
0.544457
0.609587
0.601577
0.575879
0.491743
0.505298
0.529358
0.564394
0.590279
0.621297
0.51559
0.521462
0.522705
0.520197
0.517454
0.520463
0.520666
0.523203
0.523906
0.526876
0.525905
-0.0361314
-0.0239348
-0.0368726
-0.0449901
-0.0130795
-0.0168071
0.0265777
0.0128969
-0.00270154
0.00333492
-0.0229743
-0.0273102
-0.0223325
-0.013224
0.105173
0.117703
0.101273
0.0617961
0.252417
0.382891
0.45621
0.332052
0.224846
0.248394
0.269313
-0.00350034
0.0243222
0.0112757
0.0499324
0.0412095
-0.0210416
-0.0256729
-0.0230177
-0.0162202
-0.00690756
-0.0227704
-0.0248413
-0.0171228
-0.0209528
-0.0223689
-0.024968
0.502046
0.495568
0.497264
0.491135
0.489858
0.504089
0.508305
0.510274
0.515705
0.517962
0.508132
0.513836
0.517599
0.00217673
-0.0216439
-0.0251195
-0.0133213
-0.0169887
-0.0158566
-0.0181801
0.123868
0.0522531
0.0568054
0.010669
-0.119596
-0.062018
0.492208
0.49207
0.483946
0.721654
0.571167
0.49179
0.589202
0.694435
0.27557
0.473816
0.307765
0.889821
0.785129
0.931553
0.543584
0.245402
0.405452
0.452614
0.263388
0.33663
0.33019
0.218045
0.24949
0.285121
0.385792
0.266692
0.242774
0.000350894
0.189909
0.303202
0.284849
0.410938
0.472771
0.265901
0.187019
0.141122
0.607899
0.626924
0.642237
0.614611
0.6355
0.579265
0.568294
0.586531
0.596155
0.591023
-0.750818
-0.457472
-1.40332
-0.722484
-0.269394
0.53348
0.501172
0.76909
0.6513
0.699527
0.684563
0.643128
0.611103
0.630975
0.657329
0.352867
0.464235
0.439336
0.444417
0.345876
0.277205
0.57672
0.571536
0.60573
0.629369
0.599502
0.630261
0.513398
0.513084
0.512616
0.5089
0.507161
0.509474
0.0654247
0.0344512
0.0699205
0.0505352
0.027723
0.0162258
0.0058072
-0.00366171
-0.0105809
-0.0114291
0.00206033
0.00557685
0.170587
0.109687
0.0297254
0.0595586
-0.000353696
-0.0692984
-0.0868747
0.0151601
0.110349
0.100968
0.405807
0.656678
0.476602
0.643952
0.485463
0.54129
0.472983
0.464697
0.490981
0.381716
0.461606
0.241533
-0.265311
-0.174091
0.790016
0.803818
0.584728
0.405173
0.173803
0.355921
0.548859
0.481537
0.518419
0.587424
0.576359
0.0229153
0.0843867
0.360541
0.587954
0.239763
0.230699
0.224809
0.404984
0.325529
)
;

boundaryField
{
    wall-4
    {
        type            zeroGradient;
    }
    velocity-inlet-5
    {
        type            zeroGradient;
    }
    velocity-inlet-6
    {
        type            zeroGradient;
    }
    pressure-outlet-7
    {
        type            fixedValue;
        value           uniform 0;
    }
    wall-8
    {
        type            zeroGradient;
    }
    frontAndBackPlanes
    {
        type            empty;
    }
}


// ************************************************************************* //
