/*--------------------------------*- C++ -*----------------------------------*\
| =========                 |                                                 |
| \\      /  F ield         | OpenFOAM: The Open Source CFD Toolbox           |
|  \\    /   O peration     | Version:  4.0                                   |
|   \\  /    A nd           | Web:      www.OpenFOAM.org                      |
|    \\/     M anipulation  |                                                 |
\*---------------------------------------------------------------------------*/
FoamFile
{
    version     2.0;
    format      ascii;
    class       surfaceScalarField;
    location    "52";
    object      phi;
}
// * * * * * * * * * * * * * * * * * * * * * * * * * * * * * * * * * * * * * //

dimensions      [0 3 -1 0 0 0 0];

internalField   nonuniform List<scalar> 
1300
(
3.75095
5.62643
-3.29143
3.75095
-7.78121
5.62643
-4.34506
4.34506
-0.620631
0.620631
1.8764
1.87456
-2.79371
2.79371
-2.26417
2.26417
-2.54146
2.54146
-5.24638
5.24638
-5.06865
5.06865
4.65909
-4.65909
-6.30005
6.30005
-1.00284
1.00284
-3.69528
3.69528
3.16967
-3.16967
-2.16198
2.16198
-0.090079
0.090079
-0.553491
4.30444
3.19746
3.19746
-2.00074
2.00074
-4.86697
4.86697
6.21794
-6.21794
5.29032
-5.29032
-1.99889
-2.42726
1.82786
-11.5591
-5.95334
-5.95334
-8.44038
8.44038
-2.81395
2.81248
2.9453
-2.9453
-1.77999
1.77999
-4.30489
-0.0401708
-4.30489
4.31924
0.0258204
4.31924
-0.692082
0.0714503
-0.692082
3.94835
-3.94835
0.515296
0.105335
0.515296
3.06517
-3.06517
-1.8771
3.7535
1.87385
-1.87188
6.17633
-1.87907
3.75363
-6.00418
6.00418
-3.01192
0.218209
-3.01192
2.61008
0.183629
2.61008
-6.82294
6.82294
-2.30067
0.0364956
-2.30067
2.2339
0.0302725
2.2339
2.87681
-2.87681
-2.64949
0.108029
-2.64949
2.42394
0.117519
2.42394
0.353526
5.2729
-5.97996
8.79243
-5.2729
0.0265227
5.20831
0.0380729
5.20831
-5.10597
0.0373185
-5.10597
5.01309
0.0555581
5.01309
4.74734
-0.088254
4.74734
-4.77559
0.116497
-4.77559
-3.38517
-4.02763
-6.44398
0.143924
-6.44398
-1.07073
0.067896
-1.07073
0.917885
0.0849539
0.917885
-3.66865
3.66865
-4.08911
0.393833
-4.08911
3.12408
0.0455965
3.12408
1.8685
1.88246
5.61945
-5.61945
2.44978
-2.15697
-0.0050099
-2.15697
-2.20048
-3.08985
2.20048
-0.0384963
-0.319837
0.229758
-0.319837
3.15938
0.0380844
3.15938
2.25873
0.165212
-2.25873
0.25799
3.25999
-3.25999
1.33946
0.661287
1.33946
-5.5655
5.5655
4.9555
0.0575864
-4.9555
0.0885382
6.15644
0.0614932
6.15644
-6.19955
-0.0183812
-6.19955
2.55688
-4.98414
-2.58479
6.12564
0.174415
-6.12564
0.172292
2.91663
0.0286624
2.91663
-2.92006
2.92006
-2.98413
0.0388338
-2.98413
-2.17899
0.399006
-2.17899
1.48108
0.298905
1.48108
-4.20558
-0.0993153
-4.20558
-4.21636
0.127247
4.21636
0.102881
1.12244
-1.12244
-0.786722
0.0946404
-0.786722
-4.07102
-0.13456
4.07102
-0.122666
-3.83985
-0.108499
-3.83985
-3.02417
0.0400421
3.02417
0.0409966
3.11278
0.0465976
-3.11278
0.0476118
-1.87083
3.75328
-1.88013
3.75398
-5.62409
-0.380092
-5.62409
6.31245
-0.308272
6.31245
3.37046
0.324824
-3.37046
0.358539
2.46775
0.142334
2.46775
-6.78786
-0.0350808
-6.78786
6.80609
0.0168538
6.80609
2.36563
0.102119
-2.36563
0.0649604
2.20505
0.028852
2.20505
2.89529
-0.0184817
2.89529
-2.87218
-0.00463066
-2.87218
2.79716
-2.79716
2.7274
0.069762
-2.7274
0.0779086
-11.1329
11.1145
-0.035042
-11.0979
5.17327
5.17327
4.17617
0.571174
4.17617
-4.99291
0.217328
-4.99291
2.70386
-5.28866
3.04595
-6.43112
4.65919
-16.2183
4.31986
-8.34749
6.67508
-6.67508
6.56778
0.107297
-6.56778
0.123804
-1.17346
0.102721
-1.17346
-3.06388
-0.604772
-3.06388
4.31445
-0.645799
4.31445
-3.02844
3.02844
-3.07764
0.0491973
3.07764
0.0464346
2.18493
0.0201213
-2.18493
0.0279557
0.417558
0.0977388
-0.417558
0.0977207
3.46571
-0.205724
3.46571
-3.06649
-0.193496
-3.06649
-1.2619
0.0884434
1.2619
0.0775569
-5.81367
0.248166
-5.81367
-11.1909
0.0930025
-11.1528
-6.10655
-6.10655
2.33383
11.1263
-2.89121
0.0190245
2.89121
0.0254268
2.97542
0.0530242
-2.97542
0.0553628
-2.86126
0.064097
2.86126
0.058798
-2.55409
0.375094
-2.55409
-1.07609
1.07609
-1.24507
0.168985
1.24507
0.23601
1.38879
-0.266351
1.38879
0.851019
0.0668653
-0.851019
0.0642974
-3.74628
-0.0935686
-3.74628
6.54388
-0.231428
6.54388
-2.95505
-0.111442
2.95505
-0.0597578
-0.033359
11.1479
-5.13991
0.0339398
5.13991
-11.2094
11.2433
-3.2255
0.671413
3.2255
0.95067
5.28609
0.279414
-5.28609
0.293177
6.75712
0.0489672
-6.75712
0.0820454
-2.57181
-0.492067
-2.57181
-5.04153
-0.582559
5.04153
-0.727078
-11.4741
-0.204836
11.679
-11.4186
6.01851
0.137936
-6.01851
11.3812
-1.02885
-0.0935919
1.02885
0.0472389
1.71338
-0.324595
1.71338
3.65296
-0.187243
-3.65296
-0.0933257
-6.69467
-0.0931874
6.69467
-0.150797
-2.12857
-0.443239
2.12857
-0.415187
-4.26707
4.30515
1.90926
-2.4244
-2.55974
-5.51425
1.8519
1.90139
4.30168
-10.1677
-6.05059
-9.99539
7.2631
-6.96992
-9.25335
9.1651
7.81761
-7.92611
-5.78507
5.8315
6.48258
-6.44158
1.87874
1.87476
7.94775
-7.72954
-15.6435
15.2634
7.49481
-7.45832
15.7813
-15.8164
-17.8565
17.9055
-5.69959
5.80762
-6.73451
6.72988
-6.96481
6.90505
-2.85853
-3.57259
13.1261
-12.9822
8.54384
-8.54885
-8.56997
8.9638
3.38254
0.922616
3.42914
-1.88221
3.76095
-1.87141
3.78067
2.68629
-5.54482
2.60236
-5.16211
4.31665
4.2272
-4.27815
-1.2361
-5.92296
5.95162
-5.81678
5.87558
9.07145
-9.11162
-1.88514
3.75989
-1.86884
3.77023
-3.42505
-2.36002
3.37945
0.922226
8.09005
5.03609
-8.26447
-1.73092
-7.99985
7.81261
-8.21015
8.01665
-0.435322
5.81806
-5.38274
4.43164
-1.56156
7.37962
5.70154
5.91887
5.86636
-5.58694
1.10357
-6.48631
-6.39777
-2.37932
2.47396
2.27944
-2.17411
6.08707
1.73054
5.96441
-5.71841
-2.2077
-5.81198
3.82086
2.01065
3.87005
4.07783
2.40475
4.11787
3.03063
-3.03582
0.00519331
-3.0565
6.08713
0.724069
-5.41653
-4.4943
4.95968
2.98807
5.14331
-5.50744
-2.2221
-5.1489
-9.55811
-6.08535
-10.1407
10.1016
5.16173
9.79337
-11.9735
11.8227
4.78763
2.70718
4.81791
-4.91795
-2.54037
-4.85299
11.6298
-2.60447
-9.02532
-10.3249
-7.53166
10.308
5.47328
10.9674
6.93814
11.0494
4.41999
7.20981
-9.89327
2.36161
-3.86178
-1.83781
-3.78387
3.66893
2.13869
3.78645
-4.21567
-2.51884
-4.19665
-4.29238
-2.67243
4.31087
2.41902
-4.41088
-3.79927
4.52232
2.38273
4.01846
-10.0691
4.32903
-7.90162
-9.20078
-3.78144
-9.07698
3.48107
2.61839
-6.09945
-2.06376
8.46196
-4.23476
7.22586
-5.17838
-3.37048
-5.15042
-6.82577
-1.7442
-6.69852
-8.89678
8.40471
-9.19459
8.54879
12.5827
-5.68026
-6.90246
-3.96832
-2.47325
3.92071
-0.491577
-3.71068
3.71587
0.0502754
3.83095
4.75356
4.26199
-3.88543
-1.93135
-3.83007
3.82767
2.0479
3.89177
6.79276
2.27868
6.81859
-6.56201
-2.54961
-6.66133
9.05578
-8.65677
2.87034
-2.78189
5.37407
2.64258
-5.16834
-2.8315
6.21043
-3.2109
-2.99953
-12.2002
10.5387
1.66154
-4.82062
-0.388981
-0.298902
-5.49173
-3.76162
5.37524
0.543628
11.0823
7.32073
-5.5132
5.76137
6.16576
6.22334
-0.174424
5.81897
-5.14755
5.2776
-2.53829
-2.7393
5.42805
-5.56261
-1.23328
-5.47457
4.24129
0.401799
1.59236
-1.3626
-1.85084
-0.528479
-1.78654
1.35994
0.919505
1.45767
0.926278
1.54768
-2.93933
0.554972
2.38436
-2.01305
-1.61913
-3.74686
-1.11831
4.86517
5.69943
2.11318
-5.6061
-0.20588
2.60003
-2.51508
-0.748573
-2.99829
2.21465
-2.96323
-3.66547
-2.0028
5.66827
-3.37017
-0.459904
3.31714
0.552913
-3.82662
-2.09635
3.78778
0.330089
-3.1268
6.19053
-3.06373
-5.05814
2.52803
3.5591
4.53867
-4.78961
2.44711
2.3425
-1.2305
4.23864
0.90467
4.38097
-6.85715
4.63505
5.77582
3.18798
-6.10064
0.951741
-5.9054
8.51705
-7.33573
-1.18132
4.12679
4.39026
7.10271
5.48
-5.69406
12.7968
-1.17436
-6.16137
7.07977
-3.89178
4.82247
-8.71425
-10.3025
4.1411
-9.17472
10.9444
-1.76973
-3.62426
-8.34923
12.799
-1.21272
-11.5863
8.58066
-4.21983
-4.30051
8.52033
-6.8243
6.84087
-1.98065
-4.86022
-10.1156
-5.70082
10.2087
1.61395
-9.86571
12.2273
-2.6559
4.10502
0.712881
4.13388
3.27131
-5.43905
2.16775
3.55299
-5.53364
2.08182
-7.52087
-6.71775
12.0471
-5.32937
-10.4992
-9.51164
-0.987549
2.5336
9.69371
-9.47174
7.43192
2.03982
3.30453
0.58724
-3.37429
-0.409576
0.233246
4.53728
-4.77053
4.0197
4.18491
3.31029
1.22699
3.84372
2.1079
-3.86915
-0.3275
-4.16004
1.48762
-1.74102
-3.68778
5.17539
-4.06562
0.377841
-2.74385
-3.50136
6.24521
-4.58166
3.03711
3.15342
5.08501
-4.91176
1.4104
-2.39465
-2.51711
2.65521
-4.39624
1.98555
3.18984
4.36829
0.569016
5.84997
6.19714
-8.46836
0.566736
11.2332
-9.50231
2.46339
8.58601
-9.89531
0.383667
-8.69331
1.00088
-5.23564
-5.09857
5.15376
-6.89796
-3.56048
6.17383
0.644755
-6.27671
-0.421812
-6.04615
-2.85063
-6.48938
-3.05044
-6.14415
-8.7445
-1.65579
-7.08871
6.74892
-6.69333
-3.44734
7.42041
1.12838
-7.41869
7.3251
-7.49907
7.17447
0.0951564
3.62072
4.35714
1.88389
-2.39021
4.2741
-5.10695
7.38564
-8.69545
3.5885
4.17334
-6.72295
-4.52211
5.03169
4.02409
5.33059
8.91076
-10.3883
1.47754
-10.691
12.0285
-1.33756
-16.4628
5.77178
-7.552
2.50323
0.367108
2.60595
0.568186
2.49925
-3.06743
-2.21371
-2.13615
-2.4138
-3.46254
5.87634
1.12293
-3.50008
2.37715
-3.56475
4.68767
-0.168636
-3.33144
5.29049
-2.79124
5.6576
-3.73338
1.92421
3.41919
5.74524
-2.32605
4.38949
-1.74691
1.90456
-4.23061
-1.55799
-2.96267
5.10136
-3.28253
3.66037
-0.33083
3.9912
-4.07995
0.869051
-0.769653
3.41526
3.67325
4.30159
-3.0746
2.92855
-4.67546
-1.30206
-4.10644
-0.9166
-0.273394
-3.74014
4.01354
6.00908
-6.28247
-5.24183
9.54301
-4.30118
7.70454
-5.389
-2.31554
-4.26159
-4.39518
3.8865
1.93247
9.63701
0.210687
-5.59969
-4.93687
-3.9862
3.13832
2.13927
-1.82608
3.48762
2.12498
-0.532625
0.47485
0.982824
1.79856
-1.32371
0.282056
1.5165
-1.08054
1.83787
0.762159
-1.90474
0.118194
-1.31044
3.52509
1.07392
-1.99343
0.669719
0.991875
-3.53017
4.98896
-2.64052
-2.34844
5.98083
1.13873
-3.77925
4.33584
-3.93404
2.36398
-3.48229
-1.41527
-5.34931
-3.61877
-2.53663
4.91378
-3.33972
5.4529
1.24831
-5.24702
6.49533
-3.69028
1.68749
-3.08037
3.84253
-0.997392
-2.08298
2.87505
2.79321
-3.01851
0.0202215
-0.143453
2.38454
-2.528
-0.578683
-2.59174
-4.57283
4.90292
-2.10602
4.55313
2.16808
-1.91604
6.46916
1.80978
-3.72582
-3.24836
-3.70826
-1.38332
3.15535
-0.59315
-4.25984
-5.45338
4.15772
0.223248
-6.96372
7.77728
-0.813561
-3.97565
-0.659401
4.78619
-6.01674
0.483097
-3.93492
3.84236
4.74703
4.97028
-11.3793
-0.206939
-6.21759
1.13465
-7.35225
5.52491
-3.56313
7.70423
-10.362
6.91468
-9.23364
6.52291
-0.829333
6.24663
-4.07889
2.77869
-8.47951
-6.86556
5.45913
-2.75195
6.17201
-3.11248
9.28449
-5.76839
5.24459
4.03991
-0.995619
-4.1548
-5.24378
4.24816
0.000806129
4.13468
4.97812
-2.87022
4.65062
2.26446
-4.65911
-2.13178
-6.4952
1.83609
-3.34179
-1.9189
3.75499
3.16611
3.75335
1.23789
-3.34378
7.16565
-8.1532
-1.83628
-3.26229
5.23134
-0.983181
3.37478
-6.63707
-1.86087
4.83529
-0.788105
-4.04719
0.844963
-4.40545
1.68046
-6.08591
5.2175
-5.63931
2.22118
-9.77318
-5.19751
-5.15027
-2.25908
-5.23999
-7.59054
5.33146
-1.81876
5.50634
-8.53865
7.75054
-3.4899
8.82136
-5.43846
-1.05092
5.85365
1.32082
10.1422
0.205993
-4.72811
-1.9094
3.89964
-1.99025
1.22893
-3.53415
0.36549
2.47716
3.50367
-6.71845
-0.00449791
-4.7326
-3.92242
7.94651
5.62059
11.6297
1.24136
9.13067
-1.18416
10.372
4.14643
4.38244
-3.02418
4.50172
0.989358
4.57786
-0.902857
2.82707
1.70309
1.77099
0.744092
2.30729
1.36595
3.17634
0.108911
-2.02724
4.62677
-8.61296
-0.972925
-8.04179
1.12331
5.71509
-4.59179
3.02042
-0.881143
1.03017
-0.0250005
-1.40094
1.42594
-2.76431
-1.93357
-0.417068
-1.66418
2.3339
1.86091
-1.91683
-0.847474
0.355439
-3.97421
3.12685
-3.10663
-0.313417
6.18191
-2.80388
0.275884
-1.11639
-2.31585
-2.84433
2.72614
6.17632
0.292844
3.11259
5.19576
3.09942
0.229199
3.90501
-5.67474
-3.61586
-5.88168
-0.356767
4.42942
1.74406
7.94966
5.78396
4.80078
-1.83628
-9.98948
6.56563
-2.06391
5.22807
-1.18088
-4.90503
5.02431
2.36133
-5.66906
0.0297515
-4.87528
-6.93918
-0.51625
8.26679
-9.62594
8.57501
5.72438
1.36433
-4.41307
-0.737204
4.24408
0.138357
10.5104
-1.12722
-6.76135
7.88857
-4.58788
3.61495
0.782008
2.70561
2.20795
1.32681
-5.43454
-10.0263
-2.00159
-1.52858
-4.35003
0.515143
-2.37605
6.23465
-2.6197
3.91912
5.26887
6.29904
-2.14076
-4.14171
6.44193
-2.52282
3.77622
)
;

boundaryField
{
    wall-4
    {
        type            calculated;
        value           uniform 0;
    }
    velocity-inlet-5
    {
        type            calculated;
        value           uniform -3.75095;
    }
    velocity-inlet-6
    {
        type            calculated;
        value           uniform -5.62643;
    }
    pressure-outlet-7
    {
        type            calculated;
        value           nonuniform List<scalar> 8(3.29143 7.78121 4.42615 9.73122 7.41279 5.14167 5.74982 8.97905);
    }
    wall-8
    {
        type            calculated;
        value           uniform 0;
    }
    frontAndBackPlanes
    {
        type            empty;
        value           nonuniform 0();
    }
}


// ************************************************************************* //
