/*--------------------------------*- C++ -*----------------------------------*\
| =========                 |                                                 |
| \\      /  F ield         | OpenFOAM: The Open Source CFD Toolbox           |
|  \\    /   O peration     | Version:  4.0                                   |
|   \\  /    A nd           | Web:      www.OpenFOAM.org                      |
|    \\/     M anipulation  |                                                 |
\*---------------------------------------------------------------------------*/
FoamFile
{
    version     2.0;
    format      ascii;
    class       volScalarField;
    location    "0.007";
    object      mag(U);
}
// * * * * * * * * * * * * * * * * * * * * * * * * * * * * * * * * * * * * * //

dimensions      [0 1 -1 0 0 0 0];

internalField   nonuniform List<scalar> 
1000
(
4.95968e-13
4.95968e-13
4.95968e-13
5.54317e-13
3.93857e-13
5.98079e-13
1.45873e-13
1.45873e-13
2.91746e-14
4.37619e-14
1.45873e-14
2.91746e-14
2.91746e-14
1.02111e-13
1.02111e-13
1.45873e-13
7.73127e-13
5.3973e-13
9.62762e-13
8.31476e-13
1.12322e-12
1.44414e-12
1.61919e-12
1.59002e-12
1.57543e-12
1.61919e-12
1.67754e-12
1.54625e-12
1.94011e-12
1.45873e-12
1.88176e-12
1.53167e-12
1.35662e-12
1.28368e-12
1.22533e-12
1.25451e-12
1.0357e-12
1.44414e-12
1.00652e-12
1.4879e-12
7.29365e-13
1.1524e-12
5.25143e-13
8.31476e-13
5.54317e-13
9.19e-13
5.83492e-13
9.62762e-13
7.87714e-13
9.48175e-13
9.04413e-13
1.22533e-12
1.29827e-12
1.76506e-12
1.54625e-12
2.31938e-12
1.73589e-12
2.20268e-12
2.04222e-12
2.31938e-12
2.10057e-12
2.34856e-12
2.36314e-12
2.12975e-12
2.34856e-12
2.04222e-12
1.96929e-12
2.08598e-12
2.21727e-12
2.45067e-12
2.10057e-12
2.56736e-12
2.27562e-12
2.29021e-12
2.20268e-12
2.46525e-12
2.26103e-12
2.59654e-12
2.68406e-12
2.53819e-12
3.07792e-12
2.56736e-12
2.96122e-12
3.20921e-12
2.77159e-12
3.50095e-12
2.69865e-12
3.58848e-12
2.62571e-12
3.76352e-12
2.94663e-12
3.42802e-12
2.8737e-12
3.18003e-12
3.13627e-12
2.78617e-12
3.03416e-12
2.65489e-12
2.62571e-12
2.74241e-12
2.74241e-12
2.88829e-12
2.85911e-12
2.68406e-12
2.36314e-12
2.43608e-12
1.99846e-12
2.12975e-12
1.88176e-12
1.77965e-12
1.88176e-12
1.66295e-12
1.73589e-12
1.67754e-12
1.38579e-12
1.77965e-12
1.34203e-12
1.42956e-12
1.19616e-12
1.88176e-12
1.32744e-12
2.23186e-12
1.56084e-12
2.39232e-12
2.02763e-12
2.5236e-12
2.71324e-12
2.59654e-12
2.46525e-12
2.30479e-12
2.34856e-12
2.31938e-12
2.11516e-12
2.36314e-12
1.7213e-12
2.29021e-12
1.79424e-12
2.08598e-12
1.69213e-12
1.57543e-12
1.69213e-12
1.40038e-12
1.40038e-12
1.09405e-12
1.12322e-12
8.75238e-13
5.25143e-13
1.89635e-13
7.87714e-13
2.26103e-12
4.68252e-12
8.75238e-12
1.6046e-11
2.77159e-11
4.80797e-11
8.19952e-11
1.38448e-10
2.32609e-10
3.88066e-10
6.44423e-10
1.06423e-09
1.75005e-09
2.86503e-09
4.66853e-09
7.5743e-09
1.22337e-08
1.96718e-08
3.14917e-08
5.01866e-08
7.96199e-08
1.25741e-07
1.9767e-07
3.09311e-07
4.81752e-07
7.46811e-07
1.15223e-06
1.76924e-06
2.70359e-06
4.11131e-06
6.22139e-06
9.3679e-06
1.40354e-05
2.09226e-05
3.1031e-05
4.57871e-05
6.72104e-05
9.81421e-05
0.000142553
0.000205958
0.000295965
0.000422995
0.000601232
0.00084984
0.00119452
0.00166951
0.00232006
0.00320549
0.00440303
0.00601235
0.00816102
0.011011
0.014766
0.0196801
0.026067
0.0343109
0.0448767
0.0583222
0.0753091
0.0966139
0.123137
0.155912
0.196107
0.24503
0.304124
0.374957
0.459212
0.558666
0.675166
0.810599
0.966857
1.1458
1.34924
1.57884
1.83617
2.1226
2.43929
2.78722
3.16709
3.57939
4.02433
4.50194
5.01198
5.55402
6.12746
6.73151
7.36527
8.02771
8.71773
9.43416
10.1758
10.9414
11.7297
12.5396
13.3698
14.2192
15.0866
15.971
16.8713
17.7866
18.7159
19.6584
20.6133
21.5797
22.557
23.5446
24.5417
25.5479
26.5625
27.5851
28.6153
29.6525
30.6965
31.7467
32.803
33.8649
34.9322
36.0045
37.0817
38.1634
39.2496
40.3398
41.434
42.532
43.6335
44.7384
45.8466
46.9579
48.0721
49.1892
50.3089
51.4313
52.5561
53.6832
54.8127
55.9442
57.0778
58.2134
59.3508
60.4901
61.6311
62.7737
63.9179
65.0636
66.2108
67.3593
68.5092
69.6603
70.8127
71.9662
73.1209
74.2766
75.4334
76.5911
77.7498
78.9094
80.0698
81.2311
82.3932
83.5561
84.7197
85.8841
87.0491
88.2148
89.3811
90.548
91.7155
92.8835
94.0521
95.2212
96.3908
97.5609
98.7314
99.9024
101.074
102.246
103.418
104.59
105.763
106.936
108.11
109.284
110.458
111.633
112.807
113.982
115.158
116.333
117.509
118.685
119.861
121.037
122.214
123.391
124.568
125.745
126.922
128.099
129.277
130.454
131.632
132.81
133.988
135.166
136.344
137.522
138.7
139.878
141.056
142.235
143.413
144.591
145.77
146.948
148.127
149.305
150.483
151.662
152.84
154.018
155.197
156.375
157.553
158.731
159.909
161.087
162.265
163.443
164.62
165.798
166.975
168.153
169.33
170.507
171.683
172.86
174.037
175.213
176.389
177.565
178.741
179.917
181.092
182.267
183.442
184.617
185.791
186.965
188.139
189.312
190.485
191.658
192.831
194.003
195.174
196.346
197.517
198.687
199.857
201.027
202.196
203.365
204.533
205.7
206.867
208.034
209.2
210.365
211.53
212.694
213.857
215.019
216.181
217.342
218.502
219.661
220.819
221.976
223.133
224.288
225.442
226.595
227.746
228.897
230.046
231.194
232.34
233.485
234.628
235.77
236.909
238.047
239.183
240.317
241.449
242.578
243.705
244.83
245.952
247.071
248.187
249.3
250.409
251.515
252.618
253.716
254.81
255.9
256.985
258.066
259.14
260.21
261.273
262.33
263.38
264.423
265.459
266.486
267.505
268.515
269.515
270.505
271.484
272.451
273.405
274.347
275.274
276.187
277.084
277.964
278.827
279.671
280.496
281.3
282.082
282.841
283.576
284.287
284.971
285.629
286.259
286.86
287.431
287.973
288.483
288.963
289.412
289.829
290.216
290.571
290.897
291.193
291.461
291.701
291.916
292.106
292.273
292.419
292.546
292.655
292.748
292.827
292.893
292.949
292.995
293.033
293.064
293.089
293.109
293.126
293.139
293.15
293.158
293.165
293.171
293.175
293.179
293.182
293.185
293.187
293.188
293.19
293.191
293.192
293.193
293.193
293.194
293.194
293.195
293.195
293.195
293.196
293.196
293.196
293.196
293.196
293.196
293.196
293.196
293.196
293.196
293.197
293.197
293.197
293.197
293.197
293.197
293.197
293.197
293.197
293.197
293.197
293.197
293.197
293.197
293.197
293.197
293.197
293.197
293.197
293.197
293.197
293.197
293.197
293.197
293.197
293.197
293.197
293.198
293.198
293.198
293.198
293.198
293.198
293.198
293.198
293.198
293.198
293.198
293.198
293.198
293.198
293.198
293.198
293.198
293.198
293.198
293.198
293.198
293.198
293.198
293.198
293.198
293.199
293.199
293.199
293.199
293.199
293.199
293.199
293.199
293.199
293.199
293.199
293.199
293.199
293.199
293.199
293.199
293.199
293.199
293.199
293.199
293.199
293.199
293.199
293.199
293.199
293.199
293.199
293.199
293.199
293.199
293.198
293.198
293.198
293.198
293.198
293.198
293.198
293.198
293.198
293.198
293.198
293.198
293.198
293.198
293.198
293.198
293.198
293.198
293.198
293.198
293.198
293.198
293.198
293.198
293.198
293.198
293.198
293.198
293.198
293.198
293.198
293.198
293.198
293.198
293.198
293.198
293.198
293.198
293.198
293.198
293.198
293.198
293.198
293.198
293.198
293.198
293.198
293.198
293.198
293.198
293.198
293.198
293.198
293.198
293.198
293.197
293.197
293.197
293.197
293.196
293.195
293.193
293.191
293.189
293.186
293.183
293.179
293.176
293.173
293.171
293.169
293.168
293.168
293.169
293.171
293.173
293.176
293.179
293.182
293.184
293.187
293.189
293.191
293.192
293.193
293.194
293.195
293.195
293.195
293.196
293.196
293.196
293.196
293.196
293.196
293.196
293.196
293.196
293.196
293.196
293.196
293.196
293.196
293.195
293.195
293.195
293.195
293.195
293.195
293.195
293.195
293.195
293.195
293.195
293.195
293.195
293.195
293.195
293.195
293.195
293.194
293.194
293.194
293.194
293.194
293.193
293.193
293.193
293.193
293.193
293.193
293.193
293.193
293.193
293.193
293.193
293.193
293.193
293.192
293.192
293.192
293.192
293.192
293.191
293.191
293.191
293.191
293.192
293.192
293.192
293.192
293.192
293.192
293.191
293.191
293.191
293.191
293.19
293.19
293.19
293.189
293.189
293.189
293.189
293.189
293.189
293.189
293.19
293.19
293.19
293.189
293.189
293.189
293.189
293.188
293.188
293.187
293.187
293.186
293.186
293.186
293.186
293.186
293.186
293.187
293.187
293.187
293.187
293.187
293.186
293.186
293.185
293.185
293.184
293.183
293.183
293.182
293.182
293.182
293.182
293.182
293.183
293.183
293.183
293.184
293.184
293.183
293.183
293.182
293.181
293.18
293.179
293.178
293.178
293.177
293.177
293.176
293.176
293.177
293.177
293.178
293.179
293.179
293.18
293.179
293.179
293.178
293.176
293.174
293.172
293.17
293.169
293.168
293.167
293.168
293.169
293.169
293.168
293.165
293.161
293.155
293.146
293.131
293.106
293.05
292.983
292.812
292.656
292.125
291.33
289.246
284.638
274.097
249.285
200.412
129.014
61.6157
22.0933
6.55339
1.74594
0.442759
0.110469
0.0274432
0.00681057
0.00168979
0.000419238
0.000104012
2.58053e-05
6.40227e-06
1.5884e-06
3.94081e-07
9.77722e-08
2.42577e-08
6.0193e-09
1.49425e-09
3.71554e-10
9.29942e-11
2.37627e-11
6.65182e-12
2.08599e-12
1.12322e-12
7.73128e-13
7.29366e-13
7.58541e-13
8.46065e-13
9.48176e-13
8.46065e-13
1.21075e-12
1.06487e-12
1.48791e-12
1.31286e-12
1.21075e-12
1.23992e-12
9.33589e-13
7.73128e-13
6.27255e-13
7.87715e-13
8.31477e-13
5.68906e-13
4.81382e-13
4.66794e-13
5.54318e-13
6.12667e-13
4.08445e-13
4.66794e-13
5.10556e-13
5.54318e-13
4.52207e-13
5.10556e-13
5.54318e-13
4.23032e-13
5.83493e-13
5.10556e-13
2.47984e-13
3.35508e-13
2.47984e-13
3.20921e-13
1.89635e-13
7.29366e-14
8.75239e-14
1.31286e-13
1.02111e-13
7.29366e-14
2.91746e-14
2.33397e-13
3.64683e-13
4.66794e-13
4.08445e-13
1.75048e-13
2.91746e-13
2.1881e-13
3.35508e-13
1.60461e-13
3.35508e-13
3.93858e-13
3.35508e-13
3.20921e-13
1.75048e-13
1.45873e-13
2.1881e-13
2.1881e-13
4.3762e-14
2.91746e-13
2.33397e-13
2.91746e-13
2.33397e-13
5.54318e-13
6.56429e-13
6.41842e-13
9.04414e-13
5.68906e-13
8.89827e-13
5.68906e-13
7.58541e-13
4.08445e-13
7.73128e-13
3.35508e-13
6.85604e-13
5.54318e-13
5.25144e-13
3.50096e-13
2.91746e-13
5.10556e-13
2.47984e-13
3.93858e-13
3.64683e-13
3.20921e-13
1.45873e-14
)
;

boundaryField
{
    sides
    {
        type            calculated;
        value           nonuniform List<scalar> 2(1.45873e-14 4.95968e-13);
    }
    empty
    {
        type            empty;
    }
}


// ************************************************************************* //
