/*--------------------------------*- C++ -*----------------------------------*\
| =========                 |                                                 |
| \\      /  F ield         | OpenFOAM: The Open Source CFD Toolbox           |
|  \\    /   O peration     | Version:  4.0                                   |
|   \\  /    A nd           | Web:      www.OpenFOAM.org                      |
|    \\/     M anipulation  |                                                 |
\*---------------------------------------------------------------------------*/
FoamFile
{
    version     2.0;
    format      ascii;
    class       volScalarField;
    location    "0.007";
    object      p;
}
// * * * * * * * * * * * * * * * * * * * * * * * * * * * * * * * * * * * * * //

dimensions      [1 -1 -2 0 0 0 0];

internalField   nonuniform List<scalar> 
1000
(
100000
100000
100000
100000
100000
100000
100000
100000
100000
100000
100000
100000
100000
100000
100000
100000
100000
100000
100000
100000
100000
100000
100000
100000
100000
100000
100000
100000
100000
100000
100000
100000
100000
100000
100000
100000
100000
100000
100000
100000
100000
100000
100000
100000
100000
100000
100000
100000
100000
100000
100000
100000
100000
100000
100000
100000
100000
100000
100000
100000
100000
100000
100000
100000
100000
100000
100000
100000
100000
100000
100000
100000
100000
100000
100000
100000
100000
100000
100000
100000
100000
100000
100000
100000
100000
100000
100000
100000
100000
100000
100000
100000
100000
100000
100000
100000
100000
100000
100000
100000
100000
100000
100000
100000
100000
100000
100000
100000
100000
100000
100000
100000
100000
100000
100000
100000
100000
100000
100000
100000
100000
100000
100000
100000
100000
100000
100000
100000
100000
100000
100000
100000
100000
100000
100000
100000
100000
100000
100000
100000
100000
100000
100000
100000
100000
100000
100000
100000
100000
100000
100000
100000
100000
100000
100000
100000
100000
100000
100000
100000
100000
100000
100000
100000
100000
100000
100000
100000
100000
100000
100000
100000
100000
100000
100000
100000
100000
100000
100000
100000
100000
100000
100000
100000
100000
100000
100000
99999.9
99999.9
99999.9
99999.8
99999.8
99999.7
99999.6
99999.4
99999.1
99998.8
99998.4
99997.8
99997
99995.9
99994.5
99992.7
99990.3
99987.3
99983.3
99978.3
99972
99964.1
99954.2
99942
99927.1
99908.8
99886.8
99860.4
99829.1
99792
99748.6
99698.2
99640
99573.4
99497.7
99412.3
99316.7
99210.4
99092.9
98963.9
98823.2
98670.8
98506.4
98330.3
98142.4
97943.2
97732.7
97511.4
97279.7
97038.1
96786.9
96526.7
96258
95981.2
95697
95405.7
95108
94804.2
94494.8
94180.3
93861
93537.4
93209.8
92878.6
92544.1
92206.6
91866.4
91523.7
91178.9
90832
90483.4
90133.2
89781.7
89428.9
89075
88720.3
88364.7
88008.5
87651.7
87294.5
86936.9
86579.1
86221.1
85863.1
85505
85147
84789.1
84431.4
84074
83716.8
83360.1
83003.7
82647.8
82292.4
81937.5
81583.2
81229.4
80876.4
80524
80172.3
79821.4
79471.2
79121.8
78773.2
78425.5
78078.6
77732.6
77387.5
77043.3
76700.1
76357.8
76016.4
75676
75336.7
74998.3
74660.9
74324.6
73989.3
73655
73321.8
72989.7
72658.6
72328.7
71999.7
71671.9
71345.2
71019.6
70695.1
70371.7
70049.4
69728.2
69408.1
69089.2
68771.4
68454.7
68139.2
67824.7
67511.5
67199.3
66888.3
66578.5
66269.7
65962.2
65655.7
65350.4
65046.3
64743.2
64441.4
64140.6
63841.1
63542.6
63245.3
62949.1
62654.1
62360.2
62067.5
61775.9
61485.4
61196
60907.8
60620.8
60334.8
60050
59766.3
59483.7
59202.3
58922
58642.8
58364.7
58087.8
57811.9
57537.2
57263.6
56991.1
56719.7
56449.4
56180.2
55912.1
55645.1
55379.2
55114.4
54850.7
54588.1
54326.6
54066.1
53806.8
53548.5
53291.3
53035.2
52780.1
52526.2
52273.3
52021.4
51770.7
51521
51272.4
51024.8
50778.3
50532.8
50288.4
50045.1
49802.8
49561.5
49321.3
49082.1
48844
48606.9
48370.8
48135.8
47901.8
47668.9
47437
47206.1
46976.2
46747.4
46519.6
46292.8
46067
45842.3
45618.6
45395.9
45174.2
44953.5
44733.8
44515.2
44297.6
44081
43865.4
43650.8
43437.2
43224.7
43013.1
42802.6
42593.1
42384.6
42177.1
41970.7
41765.2
41560.8
41357.5
41155.1
40953.8
40753.5
40554.2
40356
40158.8
39962.7
39767.7
39573.6
39380.7
39188.8
38998.1
38808.3
38619.7
38432.2
38245.9
38060.6
37876.5
37693.5
37511.7
37331.1
37151.6
36973.4
36796.4
36620.6
36446.1
36272.9
36101.1
35930.5
35761.4
35593.6
35427.3
35262.4
35099
34937.2
34777
34618.4
34461.5
34306.3
34152.9
34001.4
33851.7
33704.1
33558.5
33415
33273.8
33134.8
32998.2
32864.1
32732.6
32603.8
32477.7
32354.6
32234.4
32117.4
32003.7
31893.3
31786.4
31683.2
31583.6
31488
31396.3
31308.6
31225.1
31145.8
31070.8
31000.2
30933.9
30872
30814.5
30761.3
30712.3
30667.5
30626.8
30590
30556.9
30527.3
30501.2
30478.1
30458
30440.6
30425.5
30412.7
30401.8
30392.6
30384.9
30378.5
30373.3
30369
30365.5
30362.6
30360.3
30358.5
30357
30355.8
30354.8
30354
30353.4
30352.9
30352.5
30352.1
30351.8
30351.6
30351.4
30351.2
30351.1
30351
30350.9
30350.8
30350.7
30350.7
30350.6
30350.6
30350.6
30350.5
30350.5
30350.5
30350.5
30350.5
30350.4
30350.4
30350.4
30350.4
30350.4
30350.4
30350.4
30350.3
30350.3
30350.3
30350.3
30350.3
30350.3
30350.3
30350.3
30350.3
30350.3
30350.3
30350.3
30350.2
30350.2
30350.2
30350.2
30350.2
30350.2
30350.2
30350.2
30350.2
30350.1
30350.1
30350.1
30350.1
30350.1
30350.1
30350.1
30350.1
30350.1
30350.1
30350
30350
30350
30350
30350
30350
30350
30350
30350
30350
30349.9
30349.9
30349.9
30349.9
30349.9
30349.9
30349.9
30349.9
30349.8
30349.8
30349.8
30349.8
30349.8
30349.8
30349.8
30349.8
30349.8
30349.8
30349.7
30349.7
30349.7
30349.7
30349.7
30349.7
30349.7
30349.7
30349.6
30349.6
30349.6
30349.6
30349.6
30349.6
30349.6
30349.6
30349.6
30349.6
30349.6
30349.7
30349.7
30349.7
30349.7
30349.7
30349.7
30349.7
30349.7
30349.7
30349.7
30349.7
30349.6
30349.6
30349.6
30349.6
30349.6
30349.6
30349.6
30349.6
30349.6
30349.6
30349.6
30349.6
30349.5
30349.5
30349.5
30349.5
30349.5
30349.5
30349.5
30349.5
30349.5
30349.5
30349.5
30349.4
30349.4
30349.4
30349.4
30349.4
30349.4
30349.4
30349.4
30349.4
30349.4
30349.4
30349.4
30349.3
30349.3
30349.3
30349.3
30349.3
30349.3
30349.3
30349.3
30349.2
30349.2
30349.1
30349.1
30349
30348.9
30348.9
30348.8
30348.7
30348.6
30348.5
30348.4
30348.4
30348.4
30348.4
30348.4
30348.5
30348.5
30348.7
30348.8
30348.9
30349
30349.1
30349.2
30349.2
30349.3
30349.3
30349.3
30349.3
30349.3
30349.3
30349.3
30349.2
30349.2
30349.2
30349.1
30349.1
30349.1
30349
30349
30349
30348.9
30348.9
30348.9
30348.9
30348.9
30348.8
30348.8
30348.8
30348.8
30348.8
30348.8
30348.8
30348.8
30348.8
30348.8
30348.8
30348.8
30348.8
30348.7
30348.7
30348.7
30348.7
30348.7
30348.7
30348.7
30348.7
30348.7
30348.7
30348.7
30348.7
30348.7
30348.7
30348.6
30348.6
30348.6
30348.6
30348.6
30348.5
30348.5
30348.5
30348.5
30348.5
30348.5
30348.5
30348.5
30348.5
30348.5
30348.5
30348.5
30348.5
30348.4
30348.4
30348.4
30348.3
30348.3
30348.3
30348.2
30348.2
30348.2
30348.2
30348.2
30348.2
30348.2
30348.2
30348.2
30348.2
30348.2
30348.2
30348.2
30348.2
30348.2
30348.1
30348.1
30348
30348
30347.9
30347.9
30347.9
30347.9
30347.9
30347.9
30348
30348
30348
30348
30348
30348
30347.9
30347.9
30347.8
30347.7
30347.7
30347.6
30347.6
30347.6
30347.6
30347.6
30347.6
30347.6
30347.6
30347.6
30347.6
30347.6
30347.6
30347.6
30347.6
30347.5
30347.4
30347.3
30347.2
30347.1
30347.1
30347.1
30347.1
30347.1
30347.1
30347.1
30347.2
30347.2
30347.2
30347.2
30347.2
30347.2
30347.1
30347
30346.9
30346.7
30346.6
30346.4
30346.3
30346.3
30346.3
30346.3
30346.3
30346.4
30346.6
30346.7
30346.7
30346.7
30346.5
30346.3
30346
30345.8
30345.6
30345.4
30344.9
30344.3
30343
30340.8
30338.1
30333.1
30323.8
30311.7
30285.8
30238.4
30154.3
29874.3
29404.3
28062.9
25445
20821.5
16041.3
12590.4
10867
10243.4
10062.8
10015.7
10003.9
10001
10000.2
10000.1
10000
10000
10000
10000
10000
10000
10000
10000
10000
10000
10000
10000
10000
10000
10000
10000
10000
10000
10000
10000
10000
10000
10000
10000
10000
10000
10000
10000
10000
10000
10000
10000
10000
10000
10000
10000
10000
10000
10000
10000
10000
10000
10000
10000
10000
10000
10000
10000
10000
10000
10000
10000
10000
10000
10000
10000
10000
10000
10000
10000
10000
10000
10000
10000
10000
10000
10000
10000
10000
10000
10000
10000
10000
10000
10000
10000
10000
10000
10000
10000
10000
10000
10000
10000
10000
10000
10000
10000
10000
10000
10000
10000
10000
10000
10000
10000
10000
10000
10000
10000
10000
10000
10000
)
;

boundaryField
{
    sides
    {
        type            zeroGradient;
    }
    empty
    {
        type            empty;
    }
}


// ************************************************************************* //
