/*--------------------------------*- C++ -*----------------------------------*\
| =========                 |                                                 |
| \\      /  F ield         | OpenFOAM: The Open Source CFD Toolbox           |
|  \\    /   O peration     | Version:  4.0                                   |
|   \\  /    A nd           | Web:      www.OpenFOAM.org                      |
|    \\/     M anipulation  |                                                 |
\*---------------------------------------------------------------------------*/
FoamFile
{
    version     2.0;
    format      ascii;
    class       surfaceScalarField;
    location    "0.007";
    object      phi;
}
// * * * * * * * * * * * * * * * * * * * * * * * * * * * * * * * * * * * * * //

dimensions      [1 0 -1 0 0 0 0];

internalField   nonuniform List<scalar> 
999
(
-2.10321e-12
-1.76215e-12
-2.44427e-12
-1.98952e-12
-2.27374e-12
-1.25056e-12
-6.25278e-13
-3.41061e-13
-5.68434e-14
2.27374e-13
0
1.7053e-13
3.41061e-13
-1.13687e-13
-3.97904e-13
-2.16005e-12
-2.50111e-12
-3.18323e-12
-3.63798e-12
-3.75167e-12
-5.05906e-12
-6.13909e-12
-6.53699e-12
-6.25278e-12
-6.13909e-12
-6.65068e-12
-6.53699e-12
-7.04858e-12
-6.9349e-12
-6.87805e-12
-6.53699e-12
-6.0254e-12
-5.05906e-12
-5.00222e-12
-4.54747e-12
-4.94538e-12
-4.718e-12
-4.94538e-12
-4.94538e-12
-4.26326e-12
-3.75167e-12
-3.29692e-12
-3.06954e-12
-2.89901e-12
-3.0127e-12
-2.84217e-12
-3.12639e-12
-3.58114e-12
-3.35376e-12
-4.09273e-12
-4.09273e-12
-5.00222e-12
-6.53699e-12
-6.9349e-12
-7.78755e-12
-8.01492e-12
-8.2423e-12
-8.58336e-12
-9.20863e-12
-8.41283e-12
-9.09495e-12
-9.37916e-12
-8.98126e-12
-9.26548e-12
-8.2423e-12
-8.2423e-12
-8.46967e-12
-8.07177e-12
-8.98126e-12
-8.98126e-12
-8.98126e-12
-1.01181e-11
-8.81073e-12
-8.92442e-12
-9.20863e-12
-9.26548e-12
-9.72022e-12
-1.0516e-11
-1.04023e-11
-1.15392e-11
-1.1255e-11
-1.1255e-11
-1.22213e-11
-1.18803e-11
-1.22213e-11
-1.21076e-11
-1.22213e-11
-1.27329e-11
-1.25624e-11
-1.37561e-11
-1.32445e-11
-1.22782e-11
-1.1994e-11
-1.22213e-11
-1.1994e-11
-1.19371e-11
-1.11982e-11
-1.08571e-11
-1.06866e-11
-1.10276e-11
-1.13118e-11
-1.15961e-11
-1.10276e-11
-1.04592e-11
-9.37916e-12
-8.52651e-12
-8.07177e-12
-7.95808e-12
-7.44649e-12
-7.04858e-12
-7.16227e-12
-7.10543e-12
-6.53699e-12
-6.25278e-12
-6.08225e-12
-6.25278e-12
-5.6275e-12
-5.17275e-12
-6.08225e-12
-6.42331e-12
-6.65068e-12
-7.38964e-12
-8.01492e-12
-8.58336e-12
-9.20863e-12
-1.02318e-11
-1.10276e-11
-9.89075e-12
-9.72022e-12
-9.0381e-12
-9.32232e-12
-8.81073e-12
-8.92442e-12
-8.35598e-12
-7.90124e-12
-8.18545e-12
-7.84439e-12
-7.27596e-12
-6.59384e-12
-6.30962e-12
-6.19593e-12
-5.74119e-12
-5.05906e-12
-4.03588e-12
-4.20641e-12
-2.89901e-12
-1.47793e-12
8.52651e-13
5.74119e-12
1.29035e-11
2.51248e-11
4.67253e-11
8.24798e-11
1.43132e-10
2.4562e-10
4.17401e-10
7.02357e-10
1.17626e-09
1.95911e-09
3.244e-09
5.34817e-09
8.77759e-09
1.43394e-08
2.33224e-08
3.77644e-08
6.08777e-08
9.77012e-08
1.56097e-07
2.48275e-07
3.931e-07
6.19568e-07
9.72017e-07
1.5179e-06
2.35927e-06
3.64974e-06
5.61924e-06
8.61008e-06
1.3129e-05
1.99221e-05
3.00812e-05
4.51953e-05
6.75633e-05
0.000100491
0.000148703
0.000218913
0.000320597
0.000467047
0.000676791
0.000975479
0.00139839
0.00199371
0.0028268
0.00398569
0.00558808
0.00779017
0.0107977
0.0148795
0.0203843
0.0277602
0.0375788
0.0505628
0.0676174
0.0898666
0.118693
0.155779
0.203154
0.263238
0.338889
0.433437
0.550726
0.695133
0.871579
1.08553
1.34296
1.65031
2.01444
2.44249
2.94182
3.51981
4.1838
4.94084
5.79759
6.76016
7.83395
9.02354
10.3326
11.7637
13.3186
14.9979
16.801
18.7268
20.7728
22.936
25.2125
27.5981
30.0877
32.6762
35.358
38.1274
40.9786
43.9058
46.9035
49.9658
53.0876
56.2634
59.4884
62.7577
66.0669
69.4116
72.788
76.1922
79.6208
83.0705
86.5384
90.0215
93.5173
97.0234
100.538
104.058
107.582
111.108
114.636
118.162
121.687
125.208
128.724
132.234
135.738
139.234
142.722
146.2
149.668
153.125
156.57
160.003
163.424
166.831
170.225
173.604
176.968
180.317
183.651
186.969
190.271
193.556
196.824
200.075
203.309
206.525
209.723
212.903
216.065
219.208
222.333
225.439
228.526
231.594
234.643
237.672
240.682
243.673
246.644
249.596
252.527
255.439
258.332
261.204
264.056
266.889
269.702
272.494
275.267
278.019
280.752
283.465
286.157
288.83
291.483
294.115
296.728
299.321
301.893
304.446
306.979
309.493
311.986
314.46
316.914
319.348
321.762
324.157
326.533
328.888
331.225
333.542
335.839
338.117
340.376
342.616
344.836
347.038
349.22
351.383
353.527
355.653
357.76
359.847
361.917
363.967
365.999
368.012
370.007
371.984
373.942
375.882
377.804
379.707
381.593
383.46
385.31
387.142
388.956
390.752
392.53
394.291
396.035
397.761
399.469
401.161
402.835
404.492
406.131
407.755
409.359
410.951
412.518
414.08
415.609
417.143
418.635
420.138
421.598
423.063
424.501
425.917
427.342
428.71
430.111
431.448
432.807
434.131
435.438
436.745
438.017
439.287
440.539
441.769
442.993
444.197
445.384
446.561
447.719
448.862
449.994
451.107
452.207
453.293
454.364
455.419
456.462
457.489
458.502
459.501
460.485
461.456
462.412
463.355
464.283
465.198
466.099
466.986
467.859
468.719
469.566
470.399
471.218
472.024
472.817
473.597
474.363
475.117
475.857
476.585
477.299
478.001
478.69
479.366
480.029
480.68
481.319
481.945
482.558
483.159
483.748
484.324
484.889
485.441
485.981
486.509
487.025
487.529
488.021
488.501
488.97
489.427
489.872
490.306
490.728
491.138
491.537
491.925
492.301
492.666
493.02
493.362
493.694
494.014
494.323
494.621
494.909
495.185
495.451
495.706
495.95
496.184
496.407
496.62
496.822
497.014
497.197
497.369
497.531
497.684
497.827
497.961
498.085
498.201
498.308
498.407
498.497
498.579
498.654
498.721
498.782
498.835
498.883
498.925
498.961
498.992
499.019
499.042
499.06
499.076
499.088
499.098
499.105
499.111
499.115
499.118
499.119
499.12
499.12
499.119
499.118
499.117
499.115
499.113
499.111
499.109
499.107
499.105
499.102
499.1
499.098
499.096
499.093
499.091
499.088
499.086
499.084
499.081
499.078
499.076
499.073
499.071
499.068
499.065
499.062
499.06
499.057
499.054
499.051
499.048
499.045
499.042
499.039
499.036
499.033
499.03
499.027
499.023
499.02
499.017
499.014
499.01
499.007
499.003
499
498.996
498.993
498.989
498.985
498.981
498.978
498.974
498.97
498.966
498.962
498.958
498.953
498.949
498.945
498.941
498.936
498.932
498.927
498.922
498.918
498.913
498.908
498.903
498.898
498.893
498.888
498.883
498.878
498.872
498.867
498.861
498.855
498.85
498.844
498.838
498.832
498.825
498.819
498.813
498.806
498.799
498.793
498.786
498.779
498.772
498.764
498.757
498.749
498.741
498.734
498.725
498.717
498.708
498.7
498.691
498.682
498.673
498.664
498.654
498.644
498.634
498.624
498.614
498.603
498.592
498.581
498.569
498.557
498.545
498.533
498.52
498.507
498.493
498.48
498.466
498.451
498.436
498.421
498.405
498.389
498.372
498.354
498.337
498.318
498.299
498.28
498.259
498.238
498.217
498.194
498.171
498.147
498.122
498.096
498.069
498.041
498.012
497.981
497.95
497.917
497.882
497.846
497.808
497.769
497.727
497.683
497.637
497.589
497.537
497.483
497.425
497.364
497.3
497.231
497.158
497.079
496.991
496.895
496.792
496.684
496.576
496.474
496.383
496.299
496.214
496.105
495.934
495.647
495.17
494.417
493.288
491.678
489.48
486.598
482.951
478.48
473.156
466.983
460
452.279
443.923
435.062
425.842
416.421
406.957
397.604
388.502
379.775
371.525
363.83
356.745
350.3
344.508
339.361
334.837
330.904
327.519
324.634
322.201
320.167
318.483
317.102
315.979
315.075
314.352
313.779
313.33
312.979
312.708
312.5
312.341
312.22
312.13
312.061
312.01
311.972
311.944
311.923
311.906
311.894
311.885
311.878
311.872
311.867
311.864
311.86
311.858
311.855
311.853
311.852
311.85
311.849
311.847
311.846
311.845
311.844
311.843
311.842
311.842
311.841
311.84
311.84
311.839
311.839
311.838
311.838
311.838
311.837
311.837
311.836
311.836
311.835
311.835
311.835
311.834
311.834
311.834
311.833
311.833
311.833
311.832
311.832
311.832
311.831
311.831
311.831
311.83
311.83
311.83
311.829
311.829
311.828
311.828
311.828
311.827
311.827
311.826
311.826
311.826
311.825
311.825
311.825
311.824
311.824
311.824
311.823
311.823
311.822
311.822
311.821
311.821
311.82
311.82
311.82
311.819
311.819
311.819
311.818
311.818
311.818
311.817
311.817
311.816
311.816
311.815
311.815
311.814
311.814
311.813
311.812
311.812
311.811
311.811
311.811
311.81
311.81
311.81
311.809
311.809
311.808
311.808
311.807
311.806
311.805
311.804
311.804
311.803
311.802
311.802
311.801
311.8
311.8
311.799
311.799
311.799
311.798
311.798
311.797
311.796
311.795
311.794
311.793
311.792
311.791
311.789
311.788
311.787
311.786
311.786
311.784
311.782
311.778
311.773
311.764
311.751
311.729
311.695
311.623
311.535
311.348
311.081
310.558
309.354
306.965
301.055
287.533
256.497
197.507
123.1
58.8271
21.3655
6.22899
1.61951
0.405769
0.100817
0.0250142
0.00620563
0.00153955
0.000381955
9.47618e-05
2.35102e-05
5.83285e-06
1.44712e-06
3.59031e-07
8.90756e-08
2.20999e-08
5.48329e-09
1.36078e-09
3.37955e-10
8.42135e-11
2.12239e-11
5.52802e-12
1.64846e-12
6.6791e-13
3.97904e-13
3.48166e-13
4.1922e-13
3.90799e-13
4.47642e-13
4.76064e-13
4.68958e-13
5.8975e-13
6.32383e-13
6.60805e-13
6.53699e-13
6.03961e-13
5.25802e-13
4.1922e-13
3.55271e-13
3.19744e-13
4.54747e-13
3.41061e-13
2.84217e-13
2.27374e-13
2.62901e-13
3.05533e-13
2.41585e-13
2.20268e-13
2.13163e-13
2.91323e-13
2.55795e-13
2.27374e-13
2.4869e-13
2.4869e-13
2.34479e-13
2.91323e-13
2.13163e-13
9.9476e-14
1.77636e-13
1.7053e-13
1.06581e-13
6.39488e-14
-7.10543e-14
2.13163e-14
3.55271e-14
5.68434e-14
3.55271e-14
4.9738e-14
1.42109e-13
2.34479e-13
1.98952e-13
1.56319e-13
1.13687e-13
1.35003e-13
1.63425e-13
1.20792e-13
1.35003e-13
1.49214e-13
1.77636e-13
1.63425e-13
1.06581e-13
4.9738e-14
1.20792e-13
9.9476e-14
5.68434e-14
7.81597e-14
1.42109e-13
1.20792e-13
1.56319e-13
1.63425e-13
2.91323e-13
3.48166e-13
3.69482e-13
3.41061e-13
3.76588e-13
3.55271e-13
2.98428e-13
3.2685e-13
2.77112e-13
2.70006e-13
2.62901e-13
2.62901e-13
2.98428e-13
2.27374e-13
1.49214e-13
2.34479e-13
1.84741e-13
1.63425e-13
1.84741e-13
1.91847e-13
6.39488e-14
)
;

boundaryField
{
    sides
    {
        type            calculated;
        value           nonuniform List<scalar> 2(1.45519e-14 1.86265e-12);
    }
    empty
    {
        type            empty;
        value           nonuniform 0();
    }
}


// ************************************************************************* //
