/*--------------------------------*- C++ -*----------------------------------*\
| =========                 |                                                 |
| \\      /  F ield         | OpenFOAM: The Open Source CFD Toolbox           |
|  \\    /   O peration     | Version:  4.0                                   |
|   \\  /    A nd           | Web:      www.OpenFOAM.org                      |
|    \\/     M anipulation  |                                                 |
\*---------------------------------------------------------------------------*/
FoamFile
{
    version     2.0;
    format      ascii;
    class       volScalarField;
    location    "0.007";
    object      T;
}
// * * * * * * * * * * * * * * * * * * * * * * * * * * * * * * * * * * * * * //

dimensions      [0 0 0 1 0 0 0];

internalField   nonuniform List<scalar> 
1000
(
348.432
348.432
348.432
348.432
348.432
348.432
348.432
348.432
348.432
348.432
348.432
348.432
348.432
348.432
348.432
348.432
348.432
348.432
348.432
348.432
348.432
348.432
348.432
348.432
348.432
348.432
348.432
348.432
348.432
348.432
348.432
348.432
348.432
348.432
348.432
348.432
348.432
348.432
348.432
348.432
348.432
348.432
348.432
348.432
348.432
348.432
348.432
348.432
348.432
348.432
348.432
348.432
348.432
348.432
348.432
348.432
348.432
348.432
348.432
348.432
348.432
348.432
348.432
348.432
348.432
348.432
348.432
348.432
348.432
348.432
348.432
348.432
348.432
348.432
348.432
348.432
348.432
348.432
348.432
348.432
348.432
348.432
348.432
348.432
348.432
348.432
348.432
348.432
348.432
348.432
348.432
348.432
348.432
348.432
348.432
348.432
348.432
348.432
348.432
348.432
348.432
348.432
348.432
348.432
348.432
348.432
348.432
348.432
348.432
348.432
348.432
348.432
348.432
348.432
348.432
348.432
348.432
348.432
348.432
348.432
348.432
348.432
348.432
348.432
348.432
348.432
348.432
348.432
348.432
348.432
348.432
348.432
348.432
348.432
348.432
348.432
348.432
348.432
348.432
348.432
348.432
348.432
348.432
348.432
348.432
348.432
348.432
348.432
348.432
348.432
348.432
348.432
348.432
348.432
348.432
348.432
348.432
348.432
348.432
348.432
348.432
348.432
348.432
348.432
348.432
348.432
348.432
348.432
348.432
348.432
348.432
348.432
348.432
348.432
348.432
348.432
348.432
348.432
348.432
348.432
348.432
348.432
348.432
348.432
348.432
348.432
348.432
348.432
348.432
348.432
348.432
348.432
348.432
348.432
348.431
348.431
348.431
348.43
348.43
348.429
348.428
348.427
348.425
348.422
348.419
348.415
348.41
348.404
348.396
348.386
348.374
348.359
348.341
348.319
348.293
348.261
348.224
348.181
348.131
348.073
348.006
347.93
347.845
347.749
347.642
347.524
347.395
347.254
347.1
346.935
346.757
346.567
346.366
346.153
345.928
345.693
345.447
345.191
344.925
344.65
344.367
344.075
343.775
343.467
343.153
342.833
342.506
342.173
341.835
341.493
341.145
340.793
340.437
340.078
339.714
339.348
338.978
338.605
338.23
337.852
337.472
337.089
336.705
336.318
335.93
335.54
335.148
334.755
334.36
333.964
333.567
333.169
332.769
332.368
331.967
331.564
331.161
330.756
330.351
329.946
329.539
329.132
328.724
328.316
327.907
327.498
327.088
326.678
326.267
325.856
325.445
325.033
324.621
324.209
323.797
323.384
322.971
322.558
322.145
321.732
321.319
320.905
320.491
320.078
319.664
319.25
318.836
318.422
318.009
317.595
317.181
316.767
316.353
315.939
315.526
315.112
314.699
314.285
313.872
313.458
313.045
312.632
312.219
311.806
311.393
310.981
310.568
310.156
309.744
309.332
308.92
308.508
308.096
307.685
307.274
306.863
306.452
306.042
305.631
305.221
304.811
304.401
303.991
303.582
303.173
302.764
302.355
301.947
301.538
301.13
300.723
300.315
299.908
299.501
299.094
298.687
298.281
297.875
297.469
297.064
296.658
296.253
295.849
295.444
295.04
294.636
294.233
293.829
293.426
293.023
292.621
292.218
291.818
291.413
291.018
290.606
290.223
289.796
289.436
288.979
288.656
288.161
287.876
287.352
287.082
286.566
286.264
285.803
285.435
285.04
284.623
284.254
283.839
283.45
283.061
282.656
282.27
281.876
281.478
281.091
280.696
280.302
279.914
279.521
279.129
278.741
278.35
277.96
277.571
277.182
276.794
276.406
276.019
275.632
275.245
274.859
274.474
274.088
273.704
273.32
272.936
272.553
272.171
271.789
271.407
271.027
270.647
270.267
269.888
269.509
269.132
268.755
268.378
268.003
267.628
267.254
266.88
266.507
266.135
265.764
265.394
265.025
264.657
264.289
263.923
263.558
263.194
262.83
262.468
262.108
261.748
261.39
261.034
260.678
260.325
259.973
259.622
259.274
258.927
258.582
258.239
257.899
257.56
257.225
256.891
256.561
256.233
255.908
255.586
255.268
254.953
254.642
254.335
254.033
253.734
253.441
253.152
252.869
252.591
252.319
252.053
251.794
251.541
251.295
251.058
250.827
250.605
250.392
250.187
249.991
249.804
249.627
249.459
249.302
249.154
249.016
248.888
248.769
248.661
248.562
248.472
248.391
248.319
248.254
248.198
248.148
248.105
248.068
248.036
248.009
247.986
247.968
247.952
247.939
247.929
247.921
247.915
247.91
247.906
247.903
247.901
247.9
247.899
247.898
247.898
247.898
247.899
247.899
247.9
247.9
247.901
247.902
247.903
247.904
247.905
247.906
247.908
247.908
247.91
247.911
247.913
247.914
247.916
247.916
247.918
247.919
247.921
247.922
247.924
247.925
247.927
247.928
247.93
247.932
247.934
247.935
247.937
247.938
247.941
247.942
247.944
247.945
247.948
247.949
247.952
247.952
247.955
247.956
247.959
247.96
247.963
247.964
247.968
247.969
247.972
247.973
247.976
247.977
247.981
247.982
247.986
247.987
247.991
247.992
247.996
247.997
248.001
248.002
248.006
248.007
248.012
248.013
248.018
248.019
248.023
248.025
248.03
248.031
248.036
248.038
248.043
248.044
248.05
248.051
248.057
248.059
248.064
248.067
248.071
248.075
248.079
248.083
248.087
248.092
248.096
248.101
248.105
248.11
248.115
248.12
248.125
248.13
248.136
248.141
248.147
248.153
248.159
248.165
248.171
248.177
248.184
248.191
248.197
248.205
248.212
248.219
248.227
248.235
248.243
248.252
248.26
248.269
248.279
248.288
248.298
248.308
248.319
248.33
248.341
248.353
248.365
248.378
248.391
248.404
248.418
248.433
248.449
248.465
248.481
248.499
248.517
248.537
248.557
248.578
248.6
248.624
248.649
248.675
248.703
248.733
248.764
248.797
248.832
248.87
248.911
248.957
249.007
249.061
249.116
249.169
249.217
249.261
249.301
249.346
249.41
249.517
249.699
249.997
250.459
251.141
252.102
253.4
255.095
257.24
259.882
263.058
266.795
271.103
275.979
281.402
287.334
293.719
300.483
307.54
314.788
322.12
329.424
336.588
343.51
350.096
356.269
361.97
367.16
371.818
375.942
379.545
382.653
385.3
387.529
389.384
390.911
392.156
393.159
393.96
394.594
395.091
395.478
395.776
396.004
396.178
396.309
396.408
396.482
396.537
396.578
396.609
396.632
396.65
396.663
396.673
396.681
396.687
396.693
396.697
396.7
396.703
396.706
396.708
396.71
396.711
396.713
396.714
396.715
396.716
396.717
396.718
396.719
396.719
396.72
396.72
396.721
396.721
396.721
396.722
396.722
396.722
396.722
396.723
396.723
396.723
396.723
396.723
396.724
396.724
396.724
396.724
396.724
396.724
396.724
396.724
396.724
396.724
396.724
396.724
396.725
396.725
396.725
396.725
396.725
396.725
396.726
396.726
396.726
396.726
396.726
396.726
396.726
396.726
396.726
396.726
396.726
396.726
396.727
396.727
396.727
396.727
396.727
396.727
396.728
396.728
396.728
396.728
396.728
396.728
396.728
396.728
396.727
396.727
396.727
396.727
396.727
396.727
396.727
396.728
396.728
396.728
396.728
396.728
396.728
396.728
396.728
396.728
396.728
396.728
396.728
396.727
396.727
396.727
396.727
396.727
396.727
396.728
396.728
396.728
396.728
396.728
396.729
396.729
396.729
396.728
396.728
396.728
396.727
396.727
396.726
396.726
396.726
396.726
396.726
396.726
396.726
396.727
396.727
396.728
396.728
396.728
396.726
396.725
396.723
396.723
396.721
396.722
396.717
396.717
396.702
396.702
396.667
396.659
396.568
396.533
396.264
396.074
394.638
392.872
386.686
375.618
350.139
321.688
298.097
285.261
280.577
279.223
278.867
278.776
278.753
278.748
278.746
278.746
278.746
278.746
278.746
278.746
278.746
278.746
278.746
278.746
278.746
278.746
278.746
278.746
278.746
278.746
278.746
278.746
278.746
278.746
278.746
278.746
278.746
278.746
278.746
278.746
278.746
278.746
278.746
278.746
278.746
278.746
278.746
278.746
278.746
278.746
278.746
278.746
278.746
278.746
278.746
278.746
278.746
278.746
278.746
278.746
278.746
278.746
278.746
278.746
278.746
278.746
278.746
278.746
278.746
278.746
278.746
278.746
278.746
278.746
278.746
278.746
278.746
278.746
278.746
278.746
278.746
278.746
278.746
278.746
278.746
278.746
278.746
278.746
278.746
278.746
278.746
278.746
278.746
278.746
278.746
278.746
278.746
278.746
278.746
278.746
278.746
278.746
278.746
278.746
278.746
278.746
278.746
278.746
278.746
278.746
278.746
278.746
278.746
278.746
278.746
278.746
278.746
278.746
)
;

boundaryField
{
    sides
    {
        type            zeroGradient;
    }
    empty
    {
        type            empty;
    }
}


// ************************************************************************* //
