/*--------------------------------*- C++ -*----------------------------------*\
| =========                 |                                                 |
| \\      /  F ield         | OpenFOAM: The Open Source CFD Toolbox           |
|  \\    /   O peration     | Version:  4.0                                   |
|   \\  /    A nd           | Web:      www.OpenFOAM.org                      |
|    \\/     M anipulation  |                                                 |
\*---------------------------------------------------------------------------*/
FoamFile
{
    version     2.0;
    format      ascii;
    class       volVectorField;
    location    "0.007";
    object      U;
}
// * * * * * * * * * * * * * * * * * * * * * * * * * * * * * * * * * * * * * //

dimensions      [0 1 -1 0 0 0 0];

internalField   nonuniform List<vector> 
1000
(
(-4.95968e-13 0 0)
(-4.95968e-13 0 0)
(-4.95968e-13 0 0)
(-5.54317e-13 0 0)
(-3.93857e-13 0 0)
(-5.98079e-13 0 0)
(-1.45873e-13 0 0)
(-1.45873e-13 0 0)
(-2.91746e-14 0 0)
(4.37619e-14 0 0)
(-1.45873e-14 0 0)
(2.91746e-14 0 0)
(2.91746e-14 0 0)
(1.02111e-13 0 0)
(-1.02111e-13 0 0)
(-1.45873e-13 0 0)
(-7.73127e-13 0 0)
(-5.3973e-13 0 0)
(-9.62762e-13 0 0)
(-8.31476e-13 0 0)
(-1.12322e-12 0 0)
(-1.44414e-12 0 0)
(-1.61919e-12 0 0)
(-1.59002e-12 0 0)
(-1.57543e-12 0 0)
(-1.61919e-12 0 0)
(-1.67754e-12 0 0)
(-1.54625e-12 0 0)
(-1.94011e-12 0 0)
(-1.45873e-12 0 0)
(-1.88176e-12 0 0)
(-1.53167e-12 0 0)
(-1.35662e-12 0 0)
(-1.28368e-12 0 0)
(-1.22533e-12 0 0)
(-1.25451e-12 0 0)
(-1.0357e-12 0 0)
(-1.44414e-12 0 0)
(-1.00652e-12 0 0)
(-1.4879e-12 0 0)
(-7.29365e-13 0 0)
(-1.1524e-12 0 0)
(-5.25143e-13 0 0)
(-8.31476e-13 0 0)
(-5.54317e-13 0 0)
(-9.19e-13 0 0)
(-5.83492e-13 0 0)
(-9.62762e-13 0 0)
(-7.87714e-13 0 0)
(-9.48175e-13 0 0)
(-9.04413e-13 0 0)
(-1.22533e-12 0 0)
(-1.29827e-12 0 0)
(-1.76506e-12 0 0)
(-1.54625e-12 0 0)
(-2.31938e-12 0 0)
(-1.73589e-12 0 0)
(-2.20268e-12 0 0)
(-2.04222e-12 0 0)
(-2.31938e-12 0 0)
(-2.10057e-12 0 0)
(-2.34856e-12 0 0)
(-2.36314e-12 0 0)
(-2.12975e-12 0 0)
(-2.34856e-12 0 0)
(-2.04222e-12 0 0)
(-1.96929e-12 0 0)
(-2.08598e-12 0 0)
(-2.21727e-12 0 0)
(-2.45067e-12 0 0)
(-2.10057e-12 0 0)
(-2.56736e-12 0 0)
(-2.27562e-12 0 0)
(-2.29021e-12 0 0)
(-2.20268e-12 0 0)
(-2.46525e-12 0 0)
(-2.26103e-12 0 0)
(-2.59654e-12 0 0)
(-2.68406e-12 0 0)
(-2.53819e-12 0 0)
(-3.07792e-12 0 0)
(-2.56736e-12 0 0)
(-2.96122e-12 0 0)
(-3.20921e-12 0 0)
(-2.77159e-12 0 0)
(-3.50095e-12 0 0)
(-2.69865e-12 0 0)
(-3.58848e-12 0 0)
(-2.62571e-12 0 0)
(-3.76352e-12 0 0)
(-2.94663e-12 0 0)
(-3.42802e-12 0 0)
(-2.8737e-12 0 0)
(-3.18003e-12 0 0)
(-3.13627e-12 0 0)
(-2.78617e-12 0 0)
(-3.03416e-12 0 0)
(-2.65489e-12 0 0)
(-2.62571e-12 0 0)
(-2.74241e-12 0 0)
(-2.74241e-12 0 0)
(-2.88829e-12 0 0)
(-2.85911e-12 0 0)
(-2.68406e-12 0 0)
(-2.36314e-12 0 0)
(-2.43608e-12 0 0)
(-1.99846e-12 0 0)
(-2.12975e-12 0 0)
(-1.88176e-12 0 0)
(-1.77965e-12 0 0)
(-1.88176e-12 0 0)
(-1.66295e-12 0 0)
(-1.73589e-12 0 0)
(-1.67754e-12 0 0)
(-1.38579e-12 0 0)
(-1.77965e-12 0 0)
(-1.34203e-12 0 0)
(-1.42956e-12 0 0)
(-1.19616e-12 0 0)
(-1.88176e-12 0 0)
(-1.32744e-12 0 0)
(-2.23186e-12 0 0)
(-1.56084e-12 0 0)
(-2.39232e-12 0 0)
(-2.02763e-12 0 0)
(-2.5236e-12 0 0)
(-2.71324e-12 0 0)
(-2.59654e-12 0 0)
(-2.46525e-12 0 0)
(-2.30479e-12 0 0)
(-2.34856e-12 0 0)
(-2.31938e-12 0 0)
(-2.11516e-12 0 0)
(-2.36314e-12 0 0)
(-1.7213e-12 0 0)
(-2.29021e-12 0 0)
(-1.79424e-12 0 0)
(-2.08598e-12 0 0)
(-1.69213e-12 0 0)
(-1.57543e-12 0 0)
(-1.69213e-12 0 0)
(-1.40038e-12 0 0)
(-1.40038e-12 0 0)
(-1.09405e-12 0 0)
(-1.12322e-12 0 0)
(-8.75238e-13 0 0)
(-5.25143e-13 0 0)
(-1.89635e-13 0 0)
(7.87714e-13 0 0)
(2.26103e-12 0 0)
(4.68252e-12 0 0)
(8.75238e-12 0 0)
(1.6046e-11 0 0)
(2.77159e-11 0 0)
(4.80797e-11 0 0)
(8.19952e-11 0 0)
(1.38448e-10 0 0)
(2.32609e-10 0 0)
(3.88066e-10 0 0)
(6.44423e-10 0 0)
(1.06423e-09 0 0)
(1.75005e-09 0 0)
(2.86503e-09 0 0)
(4.66853e-09 0 0)
(7.5743e-09 0 0)
(1.22337e-08 0 0)
(1.96718e-08 0 0)
(3.14917e-08 0 0)
(5.01866e-08 0 0)
(7.96199e-08 0 0)
(1.25741e-07 0 0)
(1.9767e-07 0 0)
(3.09311e-07 0 0)
(4.81752e-07 0 0)
(7.46811e-07 0 0)
(1.15223e-06 0 0)
(1.76924e-06 0 0)
(2.70359e-06 0 0)
(4.11131e-06 0 0)
(6.22139e-06 0 0)
(9.3679e-06 0 0)
(1.40354e-05 0 0)
(2.09226e-05 0 0)
(3.1031e-05 0 0)
(4.57871e-05 0 0)
(6.72104e-05 0 0)
(9.81421e-05 0 0)
(0.000142553 0 0)
(0.000205958 0 0)
(0.000295965 0 0)
(0.000422995 0 0)
(0.000601232 0 0)
(0.00084984 0 0)
(0.00119452 0 0)
(0.00166951 0 0)
(0.00232006 0 0)
(0.00320549 0 0)
(0.00440303 0 0)
(0.00601235 0 0)
(0.00816102 0 0)
(0.011011 0 0)
(0.014766 0 0)
(0.0196801 0 0)
(0.026067 0 0)
(0.0343109 0 0)
(0.0448767 0 0)
(0.0583222 0 0)
(0.0753091 0 0)
(0.0966139 0 0)
(0.123137 0 0)
(0.155912 0 0)
(0.196107 0 0)
(0.24503 0 0)
(0.304124 0 0)
(0.374957 0 0)
(0.459212 0 0)
(0.558666 0 0)
(0.675166 0 0)
(0.810599 0 0)
(0.966857 0 0)
(1.1458 0 0)
(1.34924 0 0)
(1.57884 0 0)
(1.83617 0 0)
(2.1226 0 0)
(2.43929 0 0)
(2.78722 0 0)
(3.16709 0 0)
(3.57939 0 0)
(4.02433 0 0)
(4.50194 0 0)
(5.01198 0 0)
(5.55402 0 0)
(6.12746 0 0)
(6.73151 0 0)
(7.36527 0 0)
(8.02771 0 0)
(8.71773 0 0)
(9.43416 0 0)
(10.1758 0 0)
(10.9414 0 0)
(11.7297 0 0)
(12.5396 0 0)
(13.3698 0 0)
(14.2192 0 0)
(15.0866 0 0)
(15.971 0 0)
(16.8713 0 0)
(17.7866 0 0)
(18.7159 0 0)
(19.6584 0 0)
(20.6133 0 0)
(21.5797 0 0)
(22.557 0 0)
(23.5446 0 0)
(24.5417 0 0)
(25.5479 0 0)
(26.5625 0 0)
(27.5851 0 0)
(28.6153 0 0)
(29.6525 0 0)
(30.6965 0 0)
(31.7467 0 0)
(32.803 0 0)
(33.8649 0 0)
(34.9322 0 0)
(36.0045 0 0)
(37.0817 0 0)
(38.1634 0 0)
(39.2496 0 0)
(40.3398 0 0)
(41.434 0 0)
(42.532 0 0)
(43.6335 0 0)
(44.7384 0 0)
(45.8466 0 0)
(46.9579 0 0)
(48.0721 0 0)
(49.1892 0 0)
(50.3089 0 0)
(51.4313 0 0)
(52.5561 0 0)
(53.6832 0 0)
(54.8127 0 0)
(55.9442 0 0)
(57.0778 0 0)
(58.2134 0 0)
(59.3508 0 0)
(60.4901 0 0)
(61.6311 0 0)
(62.7737 0 0)
(63.9179 0 0)
(65.0636 0 0)
(66.2108 0 0)
(67.3593 0 0)
(68.5092 0 0)
(69.6603 0 0)
(70.8127 0 0)
(71.9662 0 0)
(73.1209 0 0)
(74.2766 0 0)
(75.4334 0 0)
(76.5911 0 0)
(77.7498 0 0)
(78.9094 0 0)
(80.0698 0 0)
(81.2311 0 0)
(82.3932 0 0)
(83.5561 0 0)
(84.7197 0 0)
(85.8841 0 0)
(87.0491 0 0)
(88.2148 0 0)
(89.3811 0 0)
(90.548 0 0)
(91.7155 0 0)
(92.8835 0 0)
(94.0521 0 0)
(95.2212 0 0)
(96.3908 0 0)
(97.5609 0 0)
(98.7314 0 0)
(99.9024 0 0)
(101.074 0 0)
(102.246 0 0)
(103.418 0 0)
(104.59 0 0)
(105.763 0 0)
(106.936 0 0)
(108.11 0 0)
(109.284 0 0)
(110.458 0 0)
(111.633 0 0)
(112.807 0 0)
(113.982 0 0)
(115.158 0 0)
(116.333 0 0)
(117.509 0 0)
(118.685 0 0)
(119.861 0 0)
(121.037 0 0)
(122.214 0 0)
(123.391 0 0)
(124.568 0 0)
(125.745 0 0)
(126.922 0 0)
(128.099 0 0)
(129.277 0 0)
(130.454 0 0)
(131.632 0 0)
(132.81 0 0)
(133.988 0 0)
(135.166 0 0)
(136.344 0 0)
(137.522 0 0)
(138.7 0 0)
(139.878 0 0)
(141.056 0 0)
(142.235 0 0)
(143.413 0 0)
(144.591 0 0)
(145.77 0 0)
(146.948 0 0)
(148.127 0 0)
(149.305 0 0)
(150.483 0 0)
(151.662 0 0)
(152.84 0 0)
(154.018 0 0)
(155.197 0 0)
(156.375 0 0)
(157.553 0 0)
(158.731 0 0)
(159.909 0 0)
(161.087 0 0)
(162.265 0 0)
(163.443 0 0)
(164.62 0 0)
(165.798 0 0)
(166.975 0 0)
(168.153 0 0)
(169.33 0 0)
(170.507 0 0)
(171.683 0 0)
(172.86 0 0)
(174.037 0 0)
(175.213 0 0)
(176.389 0 0)
(177.565 0 0)
(178.741 0 0)
(179.917 0 0)
(181.092 0 0)
(182.267 0 0)
(183.442 0 0)
(184.617 0 0)
(185.791 0 0)
(186.965 0 0)
(188.139 0 0)
(189.312 0 0)
(190.485 0 0)
(191.658 0 0)
(192.831 0 0)
(194.003 0 0)
(195.174 0 0)
(196.346 0 0)
(197.517 0 0)
(198.687 0 0)
(199.857 0 0)
(201.027 0 0)
(202.196 0 0)
(203.365 0 0)
(204.533 0 0)
(205.7 0 0)
(206.867 0 0)
(208.034 0 0)
(209.2 0 0)
(210.365 0 0)
(211.53 0 0)
(212.694 0 0)
(213.857 0 0)
(215.019 0 0)
(216.181 0 0)
(217.342 0 0)
(218.502 0 0)
(219.661 0 0)
(220.819 0 0)
(221.976 0 0)
(223.133 0 0)
(224.288 0 0)
(225.442 0 0)
(226.595 0 0)
(227.746 0 0)
(228.897 0 0)
(230.046 0 0)
(231.194 0 0)
(232.34 0 0)
(233.485 0 0)
(234.628 0 0)
(235.77 0 0)
(236.909 0 0)
(238.047 0 0)
(239.183 0 0)
(240.317 0 0)
(241.449 0 0)
(242.578 0 0)
(243.705 0 0)
(244.83 0 0)
(245.952 0 0)
(247.071 0 0)
(248.187 0 0)
(249.3 0 0)
(250.409 0 0)
(251.515 0 0)
(252.618 0 0)
(253.716 0 0)
(254.81 0 0)
(255.9 0 0)
(256.985 0 0)
(258.066 0 0)
(259.14 0 0)
(260.21 0 0)
(261.273 0 0)
(262.33 0 0)
(263.38 0 0)
(264.423 0 0)
(265.459 0 0)
(266.486 0 0)
(267.505 0 0)
(268.515 0 0)
(269.515 0 0)
(270.505 0 0)
(271.484 0 0)
(272.451 0 0)
(273.405 0 0)
(274.347 0 0)
(275.274 0 0)
(276.187 0 0)
(277.084 0 0)
(277.964 0 0)
(278.827 0 0)
(279.671 0 0)
(280.496 0 0)
(281.3 0 0)
(282.082 0 0)
(282.841 0 0)
(283.576 0 0)
(284.287 0 0)
(284.971 0 0)
(285.629 0 0)
(286.259 0 0)
(286.86 0 0)
(287.431 0 0)
(287.973 0 0)
(288.483 0 0)
(288.963 0 0)
(289.412 0 0)
(289.829 0 0)
(290.216 0 0)
(290.571 0 0)
(290.897 0 0)
(291.193 0 0)
(291.461 0 0)
(291.701 0 0)
(291.916 0 0)
(292.106 0 0)
(292.273 0 0)
(292.419 0 0)
(292.546 0 0)
(292.655 0 0)
(292.748 0 0)
(292.827 0 0)
(292.893 0 0)
(292.949 0 0)
(292.995 0 0)
(293.033 0 0)
(293.064 0 0)
(293.089 0 0)
(293.109 0 0)
(293.126 0 0)
(293.139 0 0)
(293.15 0 0)
(293.158 0 0)
(293.165 0 0)
(293.171 0 0)
(293.175 0 0)
(293.179 0 0)
(293.182 0 0)
(293.185 0 0)
(293.187 0 0)
(293.188 0 0)
(293.19 0 0)
(293.191 0 0)
(293.192 0 0)
(293.193 0 0)
(293.193 0 0)
(293.194 0 0)
(293.194 0 0)
(293.195 0 0)
(293.195 0 0)
(293.195 0 0)
(293.196 0 0)
(293.196 0 0)
(293.196 0 0)
(293.196 0 0)
(293.196 0 0)
(293.196 0 0)
(293.196 0 0)
(293.196 0 0)
(293.196 0 0)
(293.196 0 0)
(293.197 0 0)
(293.197 0 0)
(293.197 0 0)
(293.197 0 0)
(293.197 0 0)
(293.197 0 0)
(293.197 0 0)
(293.197 0 0)
(293.197 0 0)
(293.197 0 0)
(293.197 0 0)
(293.197 0 0)
(293.197 0 0)
(293.197 0 0)
(293.197 0 0)
(293.197 0 0)
(293.197 0 0)
(293.197 0 0)
(293.197 0 0)
(293.197 0 0)
(293.197 0 0)
(293.197 0 0)
(293.197 0 0)
(293.197 0 0)
(293.197 0 0)
(293.197 0 0)
(293.197 0 0)
(293.198 0 0)
(293.198 0 0)
(293.198 0 0)
(293.198 0 0)
(293.198 0 0)
(293.198 0 0)
(293.198 0 0)
(293.198 0 0)
(293.198 0 0)
(293.198 0 0)
(293.198 0 0)
(293.198 0 0)
(293.198 0 0)
(293.198 0 0)
(293.198 0 0)
(293.198 0 0)
(293.198 0 0)
(293.198 0 0)
(293.198 0 0)
(293.198 0 0)
(293.198 0 0)
(293.198 0 0)
(293.198 0 0)
(293.198 0 0)
(293.198 0 0)
(293.199 0 0)
(293.199 0 0)
(293.199 0 0)
(293.199 0 0)
(293.199 0 0)
(293.199 0 0)
(293.199 0 0)
(293.199 0 0)
(293.199 0 0)
(293.199 0 0)
(293.199 0 0)
(293.199 0 0)
(293.199 0 0)
(293.199 0 0)
(293.199 0 0)
(293.199 0 0)
(293.199 0 0)
(293.199 0 0)
(293.199 0 0)
(293.199 0 0)
(293.199 0 0)
(293.199 0 0)
(293.199 0 0)
(293.199 0 0)
(293.199 0 0)
(293.199 0 0)
(293.199 0 0)
(293.199 0 0)
(293.199 0 0)
(293.199 0 0)
(293.198 0 0)
(293.198 0 0)
(293.198 0 0)
(293.198 0 0)
(293.198 0 0)
(293.198 0 0)
(293.198 0 0)
(293.198 0 0)
(293.198 0 0)
(293.198 0 0)
(293.198 0 0)
(293.198 0 0)
(293.198 0 0)
(293.198 0 0)
(293.198 0 0)
(293.198 0 0)
(293.198 0 0)
(293.198 0 0)
(293.198 0 0)
(293.198 0 0)
(293.198 0 0)
(293.198 0 0)
(293.198 0 0)
(293.198 0 0)
(293.198 0 0)
(293.198 0 0)
(293.198 0 0)
(293.198 0 0)
(293.198 0 0)
(293.198 0 0)
(293.198 0 0)
(293.198 0 0)
(293.198 0 0)
(293.198 0 0)
(293.198 0 0)
(293.198 0 0)
(293.198 0 0)
(293.198 0 0)
(293.198 0 0)
(293.198 0 0)
(293.198 0 0)
(293.198 0 0)
(293.198 0 0)
(293.198 0 0)
(293.198 0 0)
(293.198 0 0)
(293.198 0 0)
(293.198 0 0)
(293.198 0 0)
(293.198 0 0)
(293.198 0 0)
(293.198 0 0)
(293.198 0 0)
(293.198 0 0)
(293.198 0 0)
(293.197 0 0)
(293.197 0 0)
(293.197 0 0)
(293.197 0 0)
(293.196 0 0)
(293.195 0 0)
(293.193 0 0)
(293.191 0 0)
(293.189 0 0)
(293.186 0 0)
(293.183 0 0)
(293.179 0 0)
(293.176 0 0)
(293.173 0 0)
(293.171 0 0)
(293.169 0 0)
(293.168 0 0)
(293.168 0 0)
(293.169 0 0)
(293.171 0 0)
(293.173 0 0)
(293.176 0 0)
(293.179 0 0)
(293.182 0 0)
(293.184 0 0)
(293.187 0 0)
(293.189 0 0)
(293.191 0 0)
(293.192 0 0)
(293.193 0 0)
(293.194 0 0)
(293.195 0 0)
(293.195 0 0)
(293.195 0 0)
(293.196 0 0)
(293.196 0 0)
(293.196 0 0)
(293.196 0 0)
(293.196 0 0)
(293.196 0 0)
(293.196 0 0)
(293.196 0 0)
(293.196 0 0)
(293.196 0 0)
(293.196 0 0)
(293.196 0 0)
(293.196 0 0)
(293.196 0 0)
(293.195 0 0)
(293.195 0 0)
(293.195 0 0)
(293.195 0 0)
(293.195 0 0)
(293.195 0 0)
(293.195 0 0)
(293.195 0 0)
(293.195 0 0)
(293.195 0 0)
(293.195 0 0)
(293.195 0 0)
(293.195 0 0)
(293.195 0 0)
(293.195 0 0)
(293.195 0 0)
(293.195 0 0)
(293.194 0 0)
(293.194 0 0)
(293.194 0 0)
(293.194 0 0)
(293.194 0 0)
(293.193 0 0)
(293.193 0 0)
(293.193 0 0)
(293.193 0 0)
(293.193 0 0)
(293.193 0 0)
(293.193 0 0)
(293.193 0 0)
(293.193 0 0)
(293.193 0 0)
(293.193 0 0)
(293.193 0 0)
(293.193 0 0)
(293.192 0 0)
(293.192 0 0)
(293.192 0 0)
(293.192 0 0)
(293.192 0 0)
(293.191 0 0)
(293.191 0 0)
(293.191 0 0)
(293.191 0 0)
(293.192 0 0)
(293.192 0 0)
(293.192 0 0)
(293.192 0 0)
(293.192 0 0)
(293.192 0 0)
(293.191 0 0)
(293.191 0 0)
(293.191 0 0)
(293.191 0 0)
(293.19 0 0)
(293.19 0 0)
(293.19 0 0)
(293.189 0 0)
(293.189 0 0)
(293.189 0 0)
(293.189 0 0)
(293.189 0 0)
(293.189 0 0)
(293.189 0 0)
(293.19 0 0)
(293.19 0 0)
(293.19 0 0)
(293.189 0 0)
(293.189 0 0)
(293.189 0 0)
(293.189 0 0)
(293.188 0 0)
(293.188 0 0)
(293.187 0 0)
(293.187 0 0)
(293.186 0 0)
(293.186 0 0)
(293.186 0 0)
(293.186 0 0)
(293.186 0 0)
(293.186 0 0)
(293.187 0 0)
(293.187 0 0)
(293.187 0 0)
(293.187 0 0)
(293.187 0 0)
(293.186 0 0)
(293.186 0 0)
(293.185 0 0)
(293.185 0 0)
(293.184 0 0)
(293.183 0 0)
(293.183 0 0)
(293.182 0 0)
(293.182 0 0)
(293.182 0 0)
(293.182 0 0)
(293.182 0 0)
(293.183 0 0)
(293.183 0 0)
(293.183 0 0)
(293.184 0 0)
(293.184 0 0)
(293.183 0 0)
(293.183 0 0)
(293.182 0 0)
(293.181 0 0)
(293.18 0 0)
(293.179 0 0)
(293.178 0 0)
(293.178 0 0)
(293.177 0 0)
(293.177 0 0)
(293.176 0 0)
(293.176 0 0)
(293.177 0 0)
(293.177 0 0)
(293.178 0 0)
(293.179 0 0)
(293.179 0 0)
(293.18 0 0)
(293.179 0 0)
(293.179 0 0)
(293.178 0 0)
(293.176 0 0)
(293.174 0 0)
(293.172 0 0)
(293.17 0 0)
(293.169 0 0)
(293.168 0 0)
(293.167 0 0)
(293.168 0 0)
(293.169 0 0)
(293.169 0 0)
(293.168 0 0)
(293.165 0 0)
(293.161 0 0)
(293.155 0 0)
(293.146 0 0)
(293.131 0 0)
(293.106 0 0)
(293.05 0 0)
(292.983 0 0)
(292.812 0 0)
(292.656 0 0)
(292.125 0 0)
(291.33 0 0)
(289.246 0 0)
(284.638 0 0)
(274.097 0 0)
(249.285 0 0)
(200.412 0 0)
(129.014 0 0)
(61.6157 0 0)
(22.0933 0 0)
(6.55339 0 0)
(1.74594 0 0)
(0.442759 0 0)
(0.110469 0 0)
(0.0274432 0 0)
(0.00681057 0 0)
(0.00168979 0 0)
(0.000419238 0 0)
(0.000104012 0 0)
(2.58053e-05 0 0)
(6.40227e-06 0 0)
(1.5884e-06 0 0)
(3.94081e-07 0 0)
(9.77722e-08 0 0)
(2.42577e-08 0 0)
(6.0193e-09 0 0)
(1.49425e-09 0 0)
(3.71554e-10 0 0)
(9.29942e-11 0 0)
(2.37627e-11 0 0)
(6.65182e-12 0 0)
(2.08599e-12 0 0)
(1.12322e-12 0 0)
(7.73128e-13 0 0)
(7.29366e-13 0 0)
(7.58541e-13 0 0)
(8.46065e-13 0 0)
(9.48176e-13 0 0)
(8.46065e-13 0 0)
(1.21075e-12 0 0)
(1.06487e-12 0 0)
(1.48791e-12 0 0)
(1.31286e-12 0 0)
(1.21075e-12 0 0)
(1.23992e-12 0 0)
(9.33589e-13 0 0)
(7.73128e-13 0 0)
(6.27255e-13 0 0)
(7.87715e-13 0 0)
(8.31477e-13 0 0)
(5.68906e-13 0 0)
(4.81382e-13 0 0)
(4.66794e-13 0 0)
(5.54318e-13 0 0)
(6.12667e-13 0 0)
(4.08445e-13 0 0)
(4.66794e-13 0 0)
(5.10556e-13 0 0)
(5.54318e-13 0 0)
(4.52207e-13 0 0)
(5.10556e-13 0 0)
(5.54318e-13 0 0)
(4.23032e-13 0 0)
(5.83493e-13 0 0)
(5.10556e-13 0 0)
(2.47984e-13 0 0)
(3.35508e-13 0 0)
(2.47984e-13 0 0)
(3.20921e-13 0 0)
(1.89635e-13 0 0)
(-7.29366e-14 0 0)
(-8.75239e-14 0 0)
(1.31286e-13 0 0)
(1.02111e-13 0 0)
(7.29366e-14 0 0)
(2.91746e-14 0 0)
(2.33397e-13 0 0)
(3.64683e-13 0 0)
(4.66794e-13 0 0)
(4.08445e-13 0 0)
(1.75048e-13 0 0)
(2.91746e-13 0 0)
(2.1881e-13 0 0)
(3.35508e-13 0 0)
(1.60461e-13 0 0)
(3.35508e-13 0 0)
(3.93858e-13 0 0)
(3.35508e-13 0 0)
(3.20921e-13 0 0)
(1.75048e-13 0 0)
(1.45873e-13 0 0)
(2.1881e-13 0 0)
(2.1881e-13 0 0)
(4.3762e-14 0 0)
(2.91746e-13 0 0)
(2.33397e-13 0 0)
(2.91746e-13 0 0)
(2.33397e-13 0 0)
(5.54318e-13 0 0)
(6.56429e-13 0 0)
(6.41842e-13 0 0)
(9.04414e-13 0 0)
(5.68906e-13 0 0)
(8.89827e-13 0 0)
(5.68906e-13 0 0)
(7.58541e-13 0 0)
(4.08445e-13 0 0)
(7.73128e-13 0 0)
(3.35508e-13 0 0)
(6.85604e-13 0 0)
(5.54318e-13 0 0)
(5.25144e-13 0 0)
(3.50096e-13 0 0)
(2.91746e-13 0 0)
(5.10556e-13 0 0)
(2.47984e-13 0 0)
(3.93858e-13 0 0)
(3.64683e-13 0 0)
(3.20921e-13 0 0)
(1.45873e-14 0 0)
)
;

boundaryField
{
    sides
    {
        type            zeroGradient;
    }
    empty
    {
        type            empty;
    }
}


// ************************************************************************* //
