/*--------------------------------*- C++ -*----------------------------------*\
| =========                 |                                                 |
| \\      /  F ield         | OpenFOAM: The Open Source CFD Toolbox           |
|  \\    /   O peration     | Version:  4.0                                   |
|   \\  /    A nd           | Web:      www.OpenFOAM.org                      |
|    \\/     M anipulation  |                                                 |
\*---------------------------------------------------------------------------*/
FoamFile
{
    version     2.0;
    format      ascii;
    class       volScalarField;
    location    "59";
    object      p;
}
// * * * * * * * * * * * * * * * * * * * * * * * * * * * * * * * * * * * * * //

dimensions      [0 2 -2 0 0 0 0];

internalField   nonuniform List<scalar> 
2200
(
0.772455
0.750956
0.735048
0.71938
0.704772
0.692256
0.681904
0.673809
0.668114
0.665178
0.665681
0.669517
0.675864
0.684427
0.695115
0.707885
0.722678
0.738606
0.75465
0.776148
0.704862
0.701603
0.69868
0.694567
0.68911
0.682642
0.676033
0.670087
0.66559
0.663216
0.663691
0.667024
0.672224
0.678696
0.685688
0.692447
0.698113
0.702209
0.705059
0.708421
0.664946
0.665168
0.667226
0.66857
0.668961
0.668113
0.666138
0.663471
0.660946
0.659477
0.660055
0.662515
0.665805
0.669036
0.671373
0.672372
0.672101
0.67111
0.669474
0.669225
0.642447
0.643899
0.646497
0.648953
0.651401
0.653425
0.654584
0.654824
0.654467
0.6542
0.654873
0.656266
0.657475
0.657874
0.657201
0.655533
0.653373
0.651176
0.648558
0.647155
0.628074
0.630046
0.632868
0.635712
0.638579
0.64142
0.643891
0.645765
0.647009
0.64783
0.648583
0.649071
0.648852
0.647757
0.645908
0.643549
0.641011
0.638286
0.635487
0.633564
0.620732
0.62233
0.624536
0.62707
0.629739
0.632413
0.635018
0.637457
0.639495
0.641025
0.641921
0.641978
0.641164
0.63967
0.637784
0.635644
0.63332
0.630981
0.628885
0.62731
0.617303
0.618326
0.619597
0.621462
0.623608
0.625784
0.627987
0.630289
0.63253
0.634411
0.635467
0.63551
0.634765
0.633581
0.632208
0.630667
0.628974
0.6274
0.626287
0.62527
0.614612
0.61528
0.615915
0.617222
0.618846
0.620545
0.622315
0.624262
0.626356
0.628351
0.629642
0.629979
0.629685
0.629085
0.628326
0.627397
0.626363
0.625445
0.624999
0.624321
0.611348
0.611793
0.612192
0.613192
0.61446
0.615852
0.617364
0.619056
0.620944
0.622949
0.624517
0.625352
0.625646
0.625621
0.625353
0.624894
0.624322
0.623795
0.623612
0.623147
0.607274
0.607571
0.60793
0.608803
0.609923
0.61121
0.612661
0.614293
0.616136
0.618211
0.620123
0.621487
0.622299
0.622703
0.622812
0.622689
0.622405
0.622091
0.621965
0.621641
0.602526
0.602727
0.6031
0.603933
0.60503
0.606346
0.607886
0.60965
0.611646
0.613928
0.616273
0.618149
0.619409
0.62017
0.620536
0.620647
0.620548
0.620378
0.620277
0.620038
0.597287
0.597433
0.597805
0.598619
0.59977
0.601212
0.602936
0.604951
0.607293
0.610021
0.612876
0.615265
0.616908
0.61794
0.618536
0.618821
0.618911
0.618886
0.618818
0.618628
0.59163
0.591738
0.592119
0.592946
0.59418
0.595789
0.597771
0.600134
0.602935
0.60624
0.609741
0.612649
0.614708
0.616073
0.616935
0.617447
0.617749
0.617861
0.617831
0.617663
0.585585
0.585654
0.586037
0.586889
0.588231
0.590022
0.59227
0.595022
0.598384
0.602403
0.606667
0.610255
0.612811
0.614589
0.61582
0.616635
0.617164
0.617412
0.617426
0.617267
0.578981
0.579021
0.579443
0.580353
0.581837
0.583838
0.586382
0.589593
0.593617
0.598497
0.603675
0.608058
0.611282
0.613609
0.615295
0.616478
0.617257
0.617655
0.617716
0.617559
0.571778
0.571743
0.572162
0.573169
0.574868
0.577141
0.580057
0.583802
0.588583
0.594484
0.600793
0.606139
0.610167
0.613188
0.615437
0.617033
0.618104
0.618666
0.618777
0.618615
0.563657
0.56364
0.564104
0.565228
0.567179
0.56978
0.57317
0.577569
0.583225
0.590278
0.597919
0.604544
0.609606
0.613413
0.616274
0.618373
0.619777
0.62051
0.620677
0.620505
0.554496
0.554521
0.554961
0.556195
0.558432
0.561447
0.565448
0.570657
0.577385
0.585868
0.595172
0.603304
0.609576
0.614354
0.617964
0.620596
0.622369
0.623286
0.623505
0.623317
0.543816
0.543793
0.544342
0.545802
0.548422
0.55203
0.556851
0.56316
0.571311
0.581589
0.592821
0.60262
0.610263
0.616112
0.620529
0.623792
0.625984
0.62708
0.627349
0.62714
0.53116
0.531094
0.531769
0.533604
0.536782
0.541193
0.547117
0.55485
0.564806
0.577265
0.590836
0.602604
0.611729
0.61876
0.624099
0.62805
0.630703
0.63199
0.632298
0.632061
0.516236
0.516131
0.516905
0.519121
0.523048
0.528545
0.535934
0.545563
0.557877
0.573058
0.589293
0.603279
0.614093
0.622411
0.628746
0.633485
0.6366
0.638053
0.638388
0.63812
0.498019
0.497934
0.498943
0.501717
0.506631
0.513575
0.522917
0.535024
0.550307
0.568768
0.588096
0.604607
0.61728
0.62704
0.634538
0.640091
0.643687
0.645309
0.645644
0.645344
0.475547
0.475404
0.476706
0.480284
0.486677
0.495754
0.507833
0.523255
0.542243
0.564591
0.587482
0.606671
0.621377
0.632715
0.641412
0.647878
0.651945
0.653693
0.654002
0.653668
0.446492
0.44651
0.448608
0.453698
0.462453
0.474717
0.490648
0.510327
0.533732
0.560526
0.587386
0.609667
0.626593
0.639554
0.649525
0.656807
0.661247
0.663075
0.663326
0.662958
0.408175
0.408416
0.41194
0.419889
0.43265
0.449831
0.470996
0.495999
0.524654
0.556557
0.587867
0.613397
0.632647
0.647383
0.658612
0.666719
0.671438
0.673243
0.673404
0.673022
0.357195
0.357585
0.364554
0.37777
0.39693
0.421239
0.449409
0.481109
0.516067
0.553692
0.589589
0.618351
0.639915
0.656342
0.668866
0.677599
0.682245
0.683728
0.683724
0.6834
0.290181
0.292967
0.30803
0.329464
0.357559
0.390822
0.427186
0.46636
0.508199
0.55215
0.593129
0.625687
0.650004
0.668586
0.682491
0.691925
0.696456
0.697486
0.697425
0.697239
0.214031
0.223531
0.248674
0.279898
0.318153
0.360551
0.405167
0.452104
0.501297
0.552138
0.59904
0.635845
0.663387
0.684306
0.699993
0.710169
0.714481
0.715051
0.715037
0.714969
0.14597
0.160639
0.192072
0.232271
0.280147
0.331398
0.384103
0.438784
0.495266
0.552683
0.604997
0.646098
0.67695
0.700148
0.717249
0.727978
0.732218
0.732442
0.732537
0.732533
0.0942415
0.107359
0.143971
0.190249
0.245461
0.30423
0.364319
0.426163
0.489349
0.553038
0.610743
0.656177
0.689769
0.715039
0.733502
0.744985
0.749283
0.750159
0.75036
0.750347
0.0513996
0.0638344
0.104214
0.154373
0.215041
0.27977
0.346217
0.414474
0.483996
0.554074
0.617437
0.666333
0.702406
0.72958
0.749343
0.761292
0.766374
0.767455
0.767506
0.767578
0.0148191
0.0274756
0.0705059
0.123545
0.188551
0.258091
0.330012
0.404079
0.47956
0.555354
0.623222
0.675554
0.714243
0.743023
0.764289
0.776912
0.782235
0.783444
0.783523
0.783596
-0.0170653
-0.00419047
0.0409681
0.0965736
0.165229
0.238845
0.315519
0.394599
0.475172
0.555877
0.628242
0.68424
0.724991
0.755356
0.777617
0.790775
0.796561
0.79791
0.798041
0.798099
-0.0454086
-0.0325206
0.0143273
0.0724402
0.144293
0.221403
0.302096
0.385406
0.470466
0.555998
0.633029
0.691907
0.734743
0.766272
0.789225
0.80313
0.809132
0.810661
0.810818
0.810859
-0.0712608
-0.0583574
-0.0101982
0.0503268
0.124947
0.205058
0.289232
0.376296
0.465564
0.55567
0.63676
0.698388
0.743219
0.775957
0.799296
0.813744
0.820109
0.821756
0.821966
0.821976
-0.0952719
-0.0821271
-0.0331637
0.0295697
0.10662
0.189422
0.276698
0.367188
0.460353
0.554634
0.639625
0.704365
0.750897
0.784494
0.808229
0.823195
0.829589
0.831407
0.83161
0.831595
-0.117877
-0.104456
-0.0547639
0.00987416
0.0890134
0.17423
0.264325
0.357947
0.454644
0.552835
0.641775
0.709514
0.757591
0.792419
0.816572
0.831256
0.837934
0.839731
0.839964
0.839897
-0.139182
-0.12565
-0.0752639
-0.00902191
0.0719371
0.159371
0.252014
0.348413
0.448248
0.550121
0.643069
0.713974
0.764006
0.799735
0.824182
0.83871
0.845147
0.846983
0.847134
0.847013
-0.159504
-0.145895
-0.0948229
-0.0272129
0.0553029
0.144687
0.239571
0.338424
0.44112
0.546563
0.643512
0.717797
0.770199
0.80705
0.831469
0.845431
0.851684
0.853309
0.853452
0.853351
-0.179226
-0.165224
-0.113649
-0.0448744
0.0389819
0.130069
0.226919
0.327998
0.433378
0.542186
0.643064
0.721054
0.776221
0.814343
0.838702
0.85208
0.857617
0.858989
0.859092
0.859005
-0.198619
-0.183907
-0.131884
-0.0620746
0.0229258
0.115469
0.214048
0.317169
0.425023
0.536903
0.641695
0.7237
0.78208
0.8222
0.846593
0.858832
0.863411
0.864121
0.864181
0.864144
-0.217551
-0.202086
-0.149654
-0.0789043
0.00710229
0.100926
0.201035
0.305988
0.416065
0.530796
0.639423
0.725635
0.787848
0.830523
0.855582
0.866707
0.869199
0.8689
0.86878
0.868636
-0.235998
-0.219893
-0.16698
-0.0953319
-0.00843511
0.0864942
0.187926
0.294482
0.406567
0.523915
0.636049
0.726595
0.793208
0.839556
0.866327
0.876168
0.876073
0.87386
0.873513
0.874424
-0.253816
-0.23725
-0.183841
-0.111354
-0.0236583
0.0722323
0.174787
0.282731
0.396615
0.516267
0.631474
0.726411
0.798036
0.848952
0.879015
0.888882
0.886016
0.879258
0.874291
0.873164
-0.271051
-0.25411
-0.200169
-0.1269
-0.038503
0.0581911
0.161676
0.270807
0.386263
0.507872
0.625691
0.724823
0.801607
0.85853
0.893638
0.905771
0.903276
0.892054
0.891693
0.89584
-0.28764
-0.270352
-0.215906
-0.141947
-0.0529403
0.0444265
0.148672
0.258787
0.375547
0.498783
0.6188
0.721571
0.803678
0.867128
0.909225
0.926824
0.926115
0.896788
0.857909
0.823816
-0.303575
-0.286012
-0.231074
-0.156538
-0.0670488
0.0308221
0.135627
0.246484
0.364249
0.488817
0.610605
0.716249
0.803067
0.873827
0.925124
0.951437
0.96524
0.942016
0.959291
1.01982
-0.318775
-0.301088
-0.245769
-0.170834
-0.0810239
0.0171572
0.122278
0.233567
0.351936
0.477391
0.600432
0.708069
0.798771
0.875576
0.93297
0.964219
0.969543
0.94423
0.901296
0.917472
-0.333246
-0.315604
-0.259947
-0.184762
-0.094769
0.00353462
0.108746
0.220167
0.338742
0.46459
0.588284
0.69685
0.78866
0.867781
0.926276
0.957755
0.940746
0.884086
0.818899
0.806225
-0.346946
-0.329504
-0.273608
-0.198342
-0.1083
-0.0100445
0.0950504
0.206321
0.324703
0.45039
0.573991
0.682128
0.77247
0.847436
0.900566
0.905405
0.867801
0.788597
0.71293
0.688983
-0.359938
-0.342828
-0.286766
-0.211574
-0.121622
-0.0235901
0.0811879
0.192042
0.309858
0.434822
0.557478
0.663703
0.74879
0.812246
0.840569
0.825655
0.764505
0.661374
0.573036
0.54979
-0.372649
-0.355924
-0.299803
-0.224841
-0.135103
-0.0374193
0.0668926
0.177115
0.294035
0.417715
0.538473
0.64097
0.718701
0.766171
0.760519
0.724214
0.610683
0.48687
0.378516
0.350419
-0.385964
-0.369644
-0.313414
-0.238728
-0.14928
-0.0520033
0.0517542
0.161196
0.276971
0.398856
0.516725
0.613594
0.683988
0.706644
0.673037
0.583406
0.426106
0.272411
0.142171
0.11377
-0.400381
-0.384283
-0.327902
-0.253505
-0.164366
-0.0674805
0.0356909
0.144251
0.258656
0.378258
0.492201
0.582459
0.642181
0.636112
0.583879
0.432842
0.232532
0.0195094
-0.160949
-0.210084
-0.416057
-0.400064
-0.343341
-0.269149
-0.180297
-0.0838102
0.0187255
0.126295
0.239129
0.355996
0.464892
0.548922
0.593644
0.555845
0.468568
0.280396
0.0494132
-0.239048
-0.559731
-0.708406
-0.433025
-0.41694
-0.359842
-0.285812
-0.197187
-0.101073
0.000795904
0.107279
0.218351
0.332127
0.435184
0.512606
0.539299
0.471181
0.334681
0.129677
-0.103549
-0.44644
-1.03148
-1.60248
-0.451428
-0.435177
-0.377491
-0.303489
-0.215001
-0.119246
-0.018073
0.0872632
0.196475
0.306991
0.404094
0.473381
0.481259
0.396857
0.205715
-0.0268917
-0.228623
-0.461915
-1.01428
-2.52179
-0.471225
-0.454647
-0.396383
-0.322392
-0.233973
-0.138557
-0.0381174
0.0659877
0.173189
0.280306
0.371462
0.430961
0.418154
0.338607
0.112806
-0.124111
-0.270974
-0.307298
-0.295651
-0.681598
-0.492415
-0.47574
-0.416709
-0.342722
-0.254421
-0.159477
-0.0599681
0.0426662
0.147549
0.250658
0.336165
0.385273
0.356638
0.288987
0.0631646
-0.137723
-0.247657
-0.255047
-0.201598
-0.24155
-0.514815
-0.498032
-0.438446
-0.364663
-0.276542
-0.18218
-0.0837832
0.0171461
0.119349
0.217994
0.29848
0.337479
0.302357
0.235277
0.0312895
-0.127956
-0.209423
-0.217178
-0.265202
-0.269089
-0.538495
-0.521765
-0.461556
-0.388076
-0.300208
-0.206645
-0.109613
-0.0106586
0.0885591
0.18261
0.258102
0.287753
0.255515
0.174743
0.00329355
-0.118166
-0.187664
-0.164993
-0.185244
-0.186859
-0.563061
-0.546098
-0.48584
-0.413014
-0.325423
-0.232853
-0.137384
-0.0406182
0.0553198
0.144812
0.215438
0.234538
0.214653
0.106846
-0.0316061
-0.11317
-0.15127
-0.199564
-0.173953
-0.182521
-0.58845
-0.571116
-0.511236
-0.439147
-0.351796
-0.260585
-0.166922
-0.0725546
0.0197272
0.104892
0.171533
0.180212
0.172134
0.0466416
-0.0682975
-0.131829
-0.10806
-0.168032
-0.148963
-0.153877
-0.613441
-0.595987
-0.537532
-0.466304
-0.379172
-0.289685
-0.197953
-0.106125
-0.0179646
0.0633023
0.127369
0.12852
0.120251
-0.00490159
-0.0951124
-0.145777
-0.134447
-0.148945
-0.154499
-0.152631
-0.637886
-0.620546
-0.564061
-0.493601
-0.406998
-0.319725
-0.230079
-0.140949
-0.0572443
0.0204027
0.0832858
0.0808717
0.062869
-0.0470118
-0.108623
-0.139706
-0.17868
-0.149927
-0.15567
-0.150057
-0.660585
-0.643955
-0.589511
-0.520273
-0.435132
-0.350254
-0.262772
-0.176484
-0.0972219
-0.0234936
0.0389204
0.0372824
0.00734833
-0.0825126
-0.122642
-0.114079
-0.187498
-0.130134
-0.145412
-0.137557
-0.681076
-0.66556
-0.613133
-0.54511
-0.462995
-0.380415
-0.295368
-0.212121
-0.136953
-0.0680099
-0.00611906
-0.00326428
-0.038424
-0.101503
-0.130019
-0.0900989
-0.134293
-0.116955
-0.123358
-0.120284
-0.697547
-0.683689
-0.633865
-0.567912
-0.48964
-0.409246
-0.327028
-0.247077
-0.175551
-0.112188
-0.0516617
-0.0416303
-0.0704236
-0.103394
-0.121614
-0.0979544
-0.112059
-0.115273
-0.116415
-0.116724
-0.709346
-0.697645
-0.651105
-0.587651
-0.51328
-0.435828
-0.356883
-0.280482
-0.212208
-0.154875
-0.0962534
-0.0777373
-0.095726
-0.0989471
-0.112196
-0.12545
-0.117717
-0.122928
-0.11958
-0.120467
-0.714895
-0.705631
-0.663266
-0.603257
-0.53282
-0.458984
-0.383787
-0.31121
-0.246092
-0.194325
-0.137651
-0.114446
-0.124834
-0.100605
-0.098122
-0.134152
-0.113709
-0.127398
-0.121153
-0.123787
-0.714371
-0.707258
-0.669232
-0.613091
-0.546973
-0.477489
-0.406592
-0.337986
-0.276197
-0.228626
-0.17406
-0.151379
-0.159217
-0.122375
-0.0720731
-0.106196
-0.0912675
-0.115083
-0.120279
-0.124267
-0.706666
-0.699316
-0.666418
-0.615863
-0.554873
-0.490134
-0.423802
-0.35924
-0.300775
-0.255945
-0.204879
-0.186482
-0.195496
-0.183385
-0.126378
-0.148492
-0.165713
-0.177361
-0.180029
-0.180309
-0.686493
-0.678085
-0.6533
-0.610123
-0.555376
-0.496154
-0.434773
-0.373684
-0.317544
-0.273897
-0.226349
-0.212527
-0.250301
-0.354281
-0.525237
-0.621362
-0.643066
-0.609746
-0.564235
-0.527518
-0.644297
-0.63626
-0.627237
-0.595986
-0.549051
-0.4954
-0.438658
-0.380109
-0.324195
-0.279375
-0.233661
-0.207101
-0.300268
-0.476848
-0.723528
-0.844637
-0.855747
-0.794244
-0.743929
-0.695929
-0.603115
-0.600192
-0.599497
-0.574982
-0.536902
-0.489749
-0.436441
-0.378655
-0.31946
-0.268379
-0.218213
-0.151475
-0.134384
-0.142331
-0.195757
-0.169081
-0.0862846
-0.0217592
0.0517298
0.091087
-0.581059
-0.582671
-0.572883
-0.55727
-0.525815
-0.481558
-0.429187
-0.37056
-0.304979
-0.238095
-0.172177
-0.0437691
0.116732
0.381986
0.647943
0.87203
1.03483
1.12928
1.16919
1.19852
-0.54963
-0.549538
-0.545975
-0.543084
-0.516857
-0.474922
-0.421232
-0.359353
-0.286413
-0.201719
-0.112081
0.0345406
0.25573
0.594279
0.936723
1.21796
1.41223
1.52791
1.58324
1.60347
-0.534733
-0.533001
-0.535688
-0.529599
-0.509408
-0.469886
-0.414852
-0.348805
-0.270312
-0.173823
-0.0692336
0.0637014
0.304651
0.621453
0.939577
1.2104
1.41157
1.5329
1.587
1.60253
-0.521629
-0.520468
-0.524345
-0.51703
-0.504471
-0.465132
-0.409008
-0.340479
-0.259288
-0.157942
-0.0491875
0.0534847
0.272601
0.546182
0.813525
1.04426
1.22505
1.33379
1.38163
1.39482
-0.503167
-0.502763
-0.503937
-0.500177
-0.498386
-0.462912
-0.407969
-0.337552
-0.255041
-0.155684
-0.0510735
0.0247559
0.202766
0.434662
0.650135
0.83268
0.979507
1.06858
1.10711
1.11683
-0.489391
-0.488649
-0.48429
-0.481728
-0.481019
-0.458014
-0.407954
-0.337747
-0.257034
-0.164782
-0.0658873
-0.00640284
0.127003
0.31848
0.489679
0.628999
0.740341
0.809014
0.838551
0.846226
-0.498261
-0.495789
-0.490109
-0.490724
-0.48623
-0.463832
-0.409784
-0.338458
-0.259839
-0.177484
-0.0846733
-0.0332786
0.0596253
0.213497
0.348323
0.453143
0.534881
0.586913
0.608466
0.612777
-0.52537
-0.524398
-0.524767
-0.534483
-0.52834
-0.491484
-0.418182
-0.339572
-0.260561
-0.187573
-0.10174
-0.0538587
0.00760269
0.128364
0.232415
0.310228
0.370357
0.408819
0.423749
0.428836
-0.555827
-0.559203
-0.568205
-0.577329
-0.565716
-0.509857
-0.419298
-0.335417
-0.25574
-0.191143
-0.113573
-0.068563
-0.0284304
0.0665708
0.14445
0.20033
0.244973
0.275099
0.285321
0.28821
-0.52158
-0.526038
-0.536918
-0.548233
-0.535264
-0.476943
-0.39587
-0.316739
-0.241565
-0.184953
-0.118633
-0.0775095
-0.0511078
0.0241003
0.0808778
0.119811
0.153191
0.174245
0.183451
0.186111
-0.394945
-0.401396
-0.411878
-0.418433
-0.411481
-0.377266
-0.327187
-0.272978
-0.214506
-0.167211
-0.116635
-0.0816683
-0.062526
-0.00477077
0.0355404
0.0635676
0.0862014
0.0994838
0.105537
0.10703
-0.237409
-0.240912
-0.245786
-0.251582
-0.251745
-0.242958
-0.226812
-0.204353
-0.17138
-0.140174
-0.107041
-0.0808534
-0.0637018
-0.0231539
0.00471751
0.0240975
0.0379093
0.0451811
0.0475161
0.0472989
-0.102763
-0.104504
-0.108139
-0.11481
-0.121366
-0.127622
-0.132263
-0.131634
-0.121115
-0.108161
-0.0903898
-0.0735834
-0.0586603
-0.0327267
-0.0150794
-0.00357614
0.00336598
0.00570044
0.00537231
0.00435215
-0.0108858
-0.0119035
-0.0143152
-0.0215388
-0.0342083
-0.0491078
-0.0626543
-0.0724801
-0.0757846
-0.0764385
-0.0696298
-0.0609993
-0.0513117
-0.0365694
-0.0273846
-0.0222227
-0.02004
-0.0207412
-0.0225796
-0.0239441
0.0387417
0.0379425
0.0359188
0.0289845
0.0151128
-0.00271049
-0.0195084
-0.0335617
-0.0427437
-0.0501296
-0.0494908
-0.0458276
-0.0430768
-0.0367396
-0.0337699
-0.0330021
-0.0339131
-0.03629
-0.0385394
-0.0399529
0.0593278
0.0587454
0.057034
0.0509996
0.0386781
0.0218525
0.00494713
-0.0104938
-0.0219521
-0.0313927
-0.0332128
-0.0331538
-0.035004
-0.0339415
-0.0347624
-0.0370648
-0.0396934
-0.0426672
-0.0448443
-0.0461942
0.0636449
0.0632092
0.0618617
0.057077
0.047191
0.0331713
0.0180638
0.00306221
-0.0089274
-0.0189312
-0.0216685
-0.0240224
-0.0279727
-0.0299247
-0.0328851
-0.0364891
-0.0397256
-0.0425715
-0.0444432
-0.0456676
0.0597476
0.0594417
0.0584164
0.0548293
0.0473737
0.0365717
0.024227
0.0109723
-0.000188386
-0.0104071
-0.0139928
-0.0171429
-0.0218975
-0.0249881
-0.0288637
-0.0328378
-0.0362121
-0.0388582
-0.0403332
-0.0413921
0.0524234
0.0522178
0.0514671
0.048876
0.0434333
0.0353887
0.0258343
0.0149427
0.0056282
-0.00420574
-0.00862268
-0.011672
-0.0163226
-0.0197748
-0.0241152
-0.0281403
-0.0312797
-0.0335961
-0.0347003
-0.0355799
0.0441863
0.0440684
0.043536
0.0417406
0.0379147
0.0320801
0.0249069
0.0162764
0.00902193
6.90521e-05
-0.00456621
-0.00746257
-0.0115242
-0.0148709
-0.0191743
-0.0229058
-0.0256769
-0.0276766
-0.028461
-0.0291786
0.0360229
0.0359693
0.0355988
0.0343614
0.0317029
0.0275965
0.0223728
0.0157602
0.0104055
0.00273639
-0.00140056
-0.00434483
-0.00816032
-0.0109301
-0.0145779
-0.0177449
-0.0201372
-0.0218411
-0.0224387
-0.023017
0.0284655
0.0284233
0.028166
0.0273252
0.0254851
0.0225524
0.01873
0.0137385
0.00999029
0.00385106
0.000540293
-0.00198766
-0.00561586
-0.00793075
-0.010891
-0.013434
-0.0153077
-0.0166504
-0.0170544
-0.0174875
0.0218184
0.0217951
0.0216275
0.0210664
0.0198347
0.0178055
0.0150088
0.0111628
0.00855345
0.00375767
0.00129422
-0.000713511
-0.00367112
-0.00541507
-0.00774681
-0.00962154
-0.0109417
-0.0118632
-0.0121458
-0.012525
0.015898
0.0158813
0.0157915
0.0154387
0.0146515
0.0133248
0.0114911
0.00864822
0.00693443
0.00311742
0.00140048
-0.00033686
-0.00259433
-0.00350245
-0.00504723
-0.00619542
-0.00700625
-0.00758926
-0.00776528
-0.00809379
0.0105897
0.0105678
0.0105126
0.0103258
0.00988745
0.00911711
0.00810374
0.00617329
0.00525035
0.00224582
0.00101339
-0.000352912
-0.0018987
-0.00213649
-0.00305347
-0.00360105
-0.00390174
-0.00411213
-0.00417887
-0.00453388
0.00596901
0.00594558
0.00591235
0.00586082
0.00569599
0.00533572
0.0049321
0.00369947
0.00347168
0.00138928
0.000669739
-0.000292261
-0.00134043
-0.00121005
-0.00193112
-0.00204068
-0.00196242
-0.00189087
-0.00175878
-0.00204794
0.00201512
0.00202403
0.0020481
0.00207202
0.0020637
0.00189982
0.00185489
0.00123109
0.00144258
0.00044077
0.000454969
0.000278582
-0.000431817
-0.000191764
-0.00113275
-0.00140896
-0.00177698
-0.00208629
-0.0018135
-0.00182031
-1.07366
-0.236337
0.0335983
0.308946
0.489331
0.643903
0.768103
0.894832
1.03501
1.11868
-0.0958781
0.309626
0.325087
0.512644
0.635205
0.745183
0.839641
0.923948
0.951034
0.909325
0.278893
0.491833
0.525929
0.66185
0.746748
0.825713
0.890879
0.93983
0.941727
0.956009
0.506904
0.648917
0.683639
0.784532
0.84117
0.898148
0.94264
0.974808
0.983774
1.00752
0.68371
0.784371
0.814081
0.880975
0.925351
0.965918
0.997848
1.02204
1.03175
1.06338
0.82621
0.894593
0.92482
0.967351
1.00326
1.0332
1.05736
1.07807
1.09214
1.12048
0.944872
0.995199
1.02067
1.04848
1.07599
1.09967
1.11956
1.13879
1.15364
1.18019
1.04834
1.08522
1.10622
1.12679
1.14749
1.16683
1.18421
1.20231
1.21718
1.24085
1.14213
1.17118
1.18748
1.2027
1.21877
1.23481
1.25035
1.26726
1.28087
1.3032
1.2303
1.25073
1.26556
1.27871
1.29226
1.30602
1.31952
1.33411
1.34566
1.3653
1.31569
1.33146
1.34528
1.35709
1.369
1.38063
1.39177
1.40345
1.41112
1.42792
1.4009
1.41344
1.42715
1.4389
1.44954
1.45933
1.46816
1.47642
1.47998
1.49122
1.48965
1.50047
1.51394
1.52347
1.53104
1.53833
1.54552
1.552
1.55309
1.56046
1.58806
1.59267
1.60086
1.6056
1.60899
1.61348
1.61947
1.62714
1.63103
1.64091
1.70136
1.68825
1.68096
1.67524
1.67252
1.67386
1.68019
1.69256
1.70738
1.73705
1.82334
1.7673
1.73628
1.71908
1.71086
1.7108
1.71964
1.73925
1.77106
1.84032
)
;

boundaryField
{
    wall-4
    {
        type            zeroGradient;
    }
    pressure-outlet-7
    {
        type            fixedValue;
        value           uniform 0;
    }
    velocity-inlet-6
    {
        type            zeroGradient;
    }
    velocity-inlet-5
    {
        type            zeroGradient;
    }
    frontAndBackPlanes
    {
        type            empty;
    }
}


// ************************************************************************* //
