/*--------------------------------*- C++ -*----------------------------------*\
| =========                 |                                                 |
| \\      /  F ield         | OpenFOAM: The Open Source CFD Toolbox           |
|  \\    /   O peration     | Version:  4.0                                   |
|   \\  /    A nd           | Web:      www.OpenFOAM.org                      |
|    \\/     M anipulation  |                                                 |
\*---------------------------------------------------------------------------*/
FoamFile
{
    version     2.0;
    format      ascii;
    class       surfaceScalarField;
    location    "59";
    object      phi;
}
// * * * * * * * * * * * * * * * * * * * * * * * * * * * * * * * * * * * * * //

dimensions      [0 3 -1 0 0 0 0];

internalField   nonuniform List<scalar> 
4262
(
0.107133
0.470855
0.0955544
0.705164
0.0693595
0.858498
0.0473414
1.02078
0.0309595
1.2149
0.0197497
1.44943
0.0123351
1.73328
0.00710128
2.07627
0.00310589
2.48924
-0.000582526
2.98598
-0.00414513
2.98585
-0.0079163
2.48901
-0.0129515
2.07607
-0.0201376
1.73305
-0.0310859
1.44917
-0.0471483
1.21458
-0.0689003
1.02052
-0.0951801
0.858583
-0.10706
0.705466
0.470928
0.112884
0.357971
0.135321
0.682728
0.120454
0.873365
0.0979272
1.04331
0.0746961
1.23813
0.0529575
1.47117
0.0345448
1.75169
0.0203428
2.09047
0.00914432
2.50044
-0.000890718
2.99602
-0.011177
2.99614
-0.0224003
2.50024
-0.0364193
2.09009
-0.0547067
1.75134
-0.0765475
1.47101
-0.100312
1.23834
-0.123514
1.04372
-0.13702
0.87209
-0.113564
0.682009
0.357364
0.0920301
0.265941
0.124939
0.649819
0.121045
0.877258
0.104765
1.05959
0.0861142
1.25678
0.0669945
1.49029
0.0480561
1.77063
0.030008
2.10852
0.0133796
2.51707
-0.00269766
3.01209
-0.018303
3.01175
-0.0342464
2.51618
-0.0517999
2.10764
-0.0701963
1.76973
-0.0885179
1.48933
-0.105703
1.25553
-0.119773
1.05779
-0.125199
0.877515
-0.0923353
0.649146
0.265029
0.0640148
0.201926
0.104881
0.608953
0.106679
0.87546
0.0952902
1.07098
0.0813324
1.27074
0.066561
1.50506
0.0503983
1.78679
0.0332234
2.1257
0.0156113
2.53468
-0.00297969
3.03068
-0.0215223
3.03029
-0.0389112
2.53357
-0.0553471
2.12408
-0.070635
1.78502
-0.084511
1.50321
-0.0982541
1.26927
-0.11003
1.06956
-0.107057
0.874542
-0.0649156
0.607004
0.200113
0.0374937
0.164433
0.0807313
0.565716
0.0910148
0.865177
0.0838241
1.07817
0.0712313
1.28333
0.0593968
1.51689
0.0463985
1.79979
0.0314379
2.14066
0.0144102
2.55171
-0.00493549
3.05003
-0.023655
3.04901
-0.0395984
2.54951
-0.0535432
2.13802
-0.0655764
1.79705
-0.0767467
1.51438
-0.088639
1.28116
-0.0950162
1.07594
-0.0831795
0.862705
-0.0383847
0.56221
0.161729
0.019447
0.144986
0.0571699
0.527993
0.0725475
0.849799
0.0704408
1.08027
0.0616559
1.29212
0.0508217
1.52773
0.039682
1.81093
0.0270377
2.1533
0.0119676
2.56678
-0.00552053
3.06752
-0.022865
3.06635
-0.0372661
2.56391
-0.0488204
2.14958
-0.0588765
1.80711
-0.0687706
1.52427
-0.0764079
1.2888
-0.0772158
1.07675
-0.0600333
0.845523
-0.0203849
0.522561
0.141344
0.010623
0.134362
0.0423633
0.496252
0.0584934
0.833669
0.0587776
1.07999
0.0526166
1.29828
0.0432017
1.53714
0.0328128
1.82132
0.0214967
2.16462
0.00822794
2.58004
-0.00788449
3.08363
-0.0232735
3.08174
-0.035069
2.57571
-0.0448206
2.15933
-0.0536461
1.81594
-0.0615463
1.53217
-0.0661323
1.29339
-0.0642491
1.07487
-0.0458979
0.827171
-0.011705
0.488368
0.129639
0.00658892
0.127774
0.0329896
0.469852
0.0492749
0.817384
0.0507647
1.0785
0.045644
1.3034
0.0372549
1.54553
0.0275893
1.83098
0.0166627
2.17554
0.0045953
2.59211
-0.00905812
3.09728
-0.0223548
3.09504
-0.0332744
2.58663
-0.0425581
2.16861
-0.0503558
1.82373
-0.0569571
1.53877
-0.0601686
1.2966
-0.0564261
1.07112
-0.0372514
0.807997
-0.00787489
0.458992
0.121764
0.00471021
0.123063
0.0265554
0.448007
0.042374
0.801565
0.0445063
1.07637
0.0398967
1.30801
0.0322535
1.55317
0.0231128
1.84013
0.0125907
2.18606
0.000904993
2.6038
-0.0122678
3.11046
-0.0242958
3.10707
-0.0339121
2.59625
-0.0421499
2.17685
-0.0490276
1.83061
-0.0544026
1.54415
-0.0566323
1.29883
-0.0516278
1.06612
-0.0319846
0.788354
-0.00636832
0.433375
0.115395
0.00376352
0.1193
0.0217446
0.430025
0.0369276
0.786382
0.039702
1.07359
0.0353436
1.31237
0.0279807
1.56054
0.0191608
1.84895
0.00902439
2.1962
-0.00226648
2.61509
-0.0143687
3.12256
-0.0257423
3.11844
-0.0352096
2.60571
-0.0427169
2.18436
-0.0486808
1.83658
-0.0533485
1.54881
-0.0545549
1.30004
-0.0481731
1.05974
-0.0282487
0.768429
-0.00574959
0.410876
0.109646
0.00305504
0.116245
0.0175596
0.415521
0.0314842
0.772458
0.0344327
1.07065
0.0303271
1.31647
0.0232578
1.56761
0.0147532
1.85745
0.0047845
2.20617
-0.00661732
2.62649
-0.0188655
3.13481
-0.0298743
3.12945
-0.0380296
2.61387
-0.0444601
2.19079
-0.0496102
1.84173
-0.0533115
1.55252
-0.0534625
1.30019
-0.0456878
1.05196
-0.0255826
0.748324
-0.00551003
0.390804
0.104136
0.00239346
0.113851
0.0139088
0.404006
0.0265699
0.759797
0.0297152
1.0675
0.0256703
1.32052
0.0185391
1.57474
0.0100789
1.86591
0.000525616
2.21572
-0.0101389
2.63715
-0.0219808
3.14665
-0.0324736
3.13994
-0.040567
2.62196
-0.0464422
2.19666
-0.0507025
1.84599
-0.0534991
1.55531
-0.0528703
1.29956
-0.0437466
1.04284
-0.0235988
0.728176
-0.00536101
0.372566
0.0987748
0.00170266
0.112149
0.0105486
0.39516
0.0213803
0.748965
0.024013
1.06487
0.0199529
1.32458
0.0129464
1.58174
0.00440179
1.87445
-0.00546811
2.22559
-0.0166267
2.64831
-0.0284204
3.15844
-0.0383255
3.14985
-0.0447685
2.62841
-0.0493268
2.20122
-0.0530258
1.84969
-0.0548126
1.5571
-0.0533089
1.29805
-0.0428101
1.03234
-0.0223513
0.707717
-0.00527955
0.355494
0.0934953
0.00083795
0.111311
0.00710495
0.388893
0.0162851
0.739785
0.0185864
1.06257
0.0142008
1.32896
0.00677854
1.58917
-0.00194554
1.88318
-0.0115947
2.23524
-0.0220738
2.65879
-0.0333295
3.1697
-0.0427942
3.15931
-0.0491955
2.63481
-0.0532529
2.20528
-0.0559261
1.85236
-0.0567142
1.55789
-0.0541943
1.29553
-0.0423724
1.02052
-0.0215925
0.686937
-0.00525782
0.33916
0.0882374
0.000183202
0.111128
0.00432703
0.384749
0.011172
0.73294
0.012268
1.06147
0.00750873
1.33372
-4.98908e-05
1.59673
-0.00932948
1.89246
-0.0198142
2.24573
-0.0312012
2.67018
-0.0425559
3.18105
-0.0509777
3.16773
-0.0556399
2.63947
-0.0584739
2.20811
-0.0604414
1.85433
-0.0603047
1.55775
-0.0561217
1.29135
-0.0426918
1.00709
-0.0213118
0.665557
-0.00528633
0.323134
0.0829511
-0.000809369
0.111937
0.000571231
0.383368
0.00540291
0.728108
0.00579382
1.06108
0.000375446
1.33914
-0.00813934
1.60524
-0.0180305
1.90235
-0.0286528
2.25635
-0.0395449
2.68107
-0.0501059
3.19161
-0.058147
3.17577
-0.0627058
2.64403
-0.0648218
2.21023
-0.0657916
1.8553
-0.0646676
1.55663
-0.0589603
1.28564
-0.0438157
0.991943
-0.0215575
0.643299
-0.00543104
0.307008
0.0775201
-0.00166456
0.113601
-0.00250827
0.384212
-0.000557935
0.726158
-0.00230448
1.06283
-0.00883886
1.34567
-0.0180291
1.61443
-0.0287168
1.91304
-0.0404223
2.26805
-0.0523783
2.69303
-0.0632142
3.20245
-0.069833
3.18239
-0.0728249
2.64702
-0.0739562
2.21136
-0.0735137
1.85485
-0.0708269
1.55394
-0.0632037
1.27802
-0.0459084
0.974648
-0.0223529
0.619744
-0.00570195
0.290357
0.0718181
-0.00301699
0.116618
-0.00621364
0.387409
-0.00782142
0.727766
-0.0109713
1.06598
-0.0184325
1.35313
-0.0287532
1.62475
-0.0403696
1.92465
-0.0525382
2.28022
-0.0645395
2.70503
-0.0748067
3.21272
-0.0810915
3.18868
-0.0835007
2.64943
-0.0831165
2.21098
-0.0819282
1.85366
-0.0783865
1.5504
-0.0687428
1.26838
-0.0489036
0.954808
-0.0236537
0.594494
-0.00608032
0.272783
0.0657378
-0.00429133
0.12091
-0.0104088
0.393526
-0.0153695
0.732726
-0.0214561
1.07206
-0.0304799
1.36216
-0.0423335
1.6366
-0.0554549
1.93777
-0.0692956
2.29406
-0.0826471
2.71838
-0.0934852
3.22355
-0.0983386
3.19353
-0.0987231
2.64981
-0.0973907
2.20965
-0.0940836
1.85036
-0.0880515
1.54437
-0.0758184
1.25614
-0.0529776
0.931968
-0.0254595
0.566976
-0.00655898
0.253883
0.0591788
-0.00574674
0.126657
-0.0154364
0.403216
-0.0243966
0.741687
-0.0333136
1.08098
-0.0441131
1.37296
-0.0574794
1.64997
-0.0719894
1.95228
-0.0867714
2.30885
-0.100588
2.7322
-0.111239
3.23421
-0.115722
3.19802
-0.1152
2.64929
-0.111533
2.20598
-0.107019
1.84584
-0.0997992
1.53715
-0.0844021
1.24075
-0.0579235
0.905489
-0.0276309
0.536683
-0.00707851
0.23333
0.0521003
-0.00806723
0.134724
-0.0222694
0.417418
-0.0365341
0.755951
-0.0488801
1.09332
-0.0617437
1.38582
-0.0773161
1.66554
-0.0941946
1.96916
-0.111529
2.32618
-0.127035
2.7477
-0.13711
3.24428
-0.138943
3.19985
-0.136088
2.64644
-0.131687
2.20158
-0.124726
1.83888
-0.113943
1.52636
-0.0949112
1.22171
-0.064061
0.874639
-0.030211
0.502833
-0.00764906
0.210769
0.0444512
-0.0105091
0.145233
-0.0295623
0.436471
-0.0499671
0.776356
-0.0672985
1.11066
-0.0835056
1.40203
-0.101798
1.68384
-0.120948
1.98831
-0.13907
2.3443
-0.153682
2.76232
-0.162839
3.25344
-0.164426
3.20144
-0.160006
2.64202
-0.152121
2.19369
-0.143008
1.82977
-0.130199
1.51355
-0.106529
1.19804
-0.0704963
0.838607
-0.0327693
0.465106
-0.00813222
0.186132
0.036319
-0.0151826
0.160415
-0.0416299
0.462919
-0.0688444
0.803571
-0.0911179
1.13293
-0.111057
1.42197
-0.133083
1.70586
-0.154998
2.01023
-0.175511
2.36481
-0.191815
2.77862
-0.199622
3.26124
-0.196034
3.19785
-0.187674
2.63366
-0.178639
2.18466
-0.166948
1.81808
-0.149276
1.49588
-0.12048
1.16925
-0.0782831
0.796409
-0.0355077
0.422331
-0.00856012
0.159184
0.0277589
-0.0193096
0.179725
-0.0546131
0.498222
-0.0916513
0.840609
-0.121819
1.1631
-0.147814
1.44796
-0.174344
1.73239
-0.198941
2.03483
-0.219157
2.38503
-0.231942
2.7914
-0.234849
3.26415
-0.229476
3.19247
-0.219367
2.62355
-0.205697
2.17099
-0.191123
1.8035
-0.17056
1.47532
-0.134792
1.13348
-0.0850506
0.746668
-0.0375272
0.374807
-0.00863058
0.130287
0.0191283
-0.0325413
0.212266
-0.0817361
0.547417
-0.129512
0.888385
-0.166117
1.1997
-0.197277
1.47912
-0.227671
1.76279
-0.252785
2.05994
-0.272169
2.40441
-0.283798
2.80303
-0.284991
3.26534
-0.273155
3.18064
-0.25629
2.60668
-0.240651
2.15535
-0.221926
1.78478
-0.193921
1.44731
-0.150521
1.09008
-0.0928998
0.689047
-0.0395545
0.321462
-0.00855735
0.0992902
0.010571
-0.0468963
0.259163
-0.120387
0.620908
-0.183726
0.951724
-0.229034
1.24501
-0.266355
1.51644
-0.297442
1.79387
-0.320392
2.08289
-0.335757
2.41978
-0.340894
2.80817
-0.33207
3.25652
-0.313993
3.16256
-0.295136
2.58783
-0.27431
2.13452
-0.251321
1.76179
-0.218307
1.4143
-0.164743
1.03652
-0.0965764
0.620881
-0.0390066
0.263892
-0.00834182
0.0686254
0.00222915
-0.0339118
0.293074
-0.0973975
0.684393
-0.156034
1.01036
-0.203482
1.29246
-0.24646
1.55942
-0.285099
1.83251
-0.321133
2.11892
-0.353352
2.452
-0.377977
2.8328
-0.392716
3.27126
-0.392323
3.16217
-0.378
2.5735
-0.358752
2.11527
-0.328847
1.73188
-0.276887
1.36234
-0.198489
0.958118
-0.108579
0.530971
-0.0418527
0.197166
-0.00947434
0.036247
-0.00724519
-0.0127238
0.305798
-0.0476797
0.719349
-0.0894651
1.05215
-0.128951
1.33194
-0.168122
1.59859
-0.202856
1.86725
-0.23502
2.15109
-0.262694
2.47967
-0.282423
2.85252
-0.288208
3.27705
-0.274921
3.14888
-0.254844
2.55343
-0.230214
2.09064
-0.198022
1.69969
-0.155814
1.32013
-0.100421
0.902726
-0.0460383
0.476588
-0.0165178
0.167645
-0.00400367
0.0237329
-0.0112489
0.000159517
0.305639
-0.0246478
0.744156
-0.0541549
1.08165
-0.0842668
1.36206
-0.115831
1.63016
-0.146476
1.89789
-0.174858
2.17947
-0.198476
2.50329
-0.213358
2.86741
-0.213299
3.27699
-0.198586
3.13417
-0.176668
2.53151
-0.149226
2.0632
-0.11921
1.66967
-0.080231
1.28115
-0.0387446
0.861239
-0.0111422
0.448985
-0.00275584
0.159259
-0.00101743
0.0219945
-0.0122663
0.000609299
0.305029
-0.0129432
0.757709
-0.0343109
1.10302
-0.0588518
1.3866
-0.0847509
1.65606
-0.110554
1.92369
-0.13454
2.20346
-0.154077
2.52283
-0.165155
2.87848
-0.1626
3.27443
-0.146959
3.11853
-0.122966
2.50751
-0.0944419
2.03468
-0.059999
1.63523
-0.0284746
1.24963
-0.00386139
0.836626
0.00723543
0.437888
0.0051414
0.161353
0.00116626
0.0259697
-0.0111
0.00423806
0.300791
-0.00483182
0.766779
-0.0228354
1.12102
-0.0435546
1.40732
-0.0652589
1.67776
-0.086941
1.94538
-0.107334
2.22385
-0.123587
2.53908
-0.132081
2.88698
-0.128197
3.27055
-0.11027
3.1006
-0.0848325
2.48208
-0.0559784
2.00582
-0.0293406
1.60859
-0.00105044
1.22134
0.0181821
0.817393
0.0196312
0.436439
0.0108769
0.170107
0.00286806
0.0339785
-0.00823197
0.00515052
0.295641
-0.000906709
0.772836
-0.0166389
1.13676
-0.0347983
1.42548
-0.0538602
1.69682
-0.0727698
1.96429
-0.0905419
2.24162
-0.105099
2.55364
-0.112882
2.89476
-0.108314
3.26598
-0.0899993
3.08229
-0.0651496
2.45723
-0.0379863
1.97866
-0.00860685
1.57921
0.0129938
1.19974
0.0242749
0.806112
0.0232466
0.437467
0.0128813
0.180472
0.00357056
0.0432893
-0.00466141
0.00428254
0.291358
0.00013175
0.776987
-0.0131444
1.15003
-0.0296321
1.44196
-0.0467715
1.71396
-0.0639735
1.98149
-0.0803511
2.258
-0.0935555
2.56684
-0.0996831
2.90089
-0.0947246
3.26102
-0.0775062
3.06507
-0.0534276
2.43315
-0.0273341
1.95257
-0.00504785
1.55693
0.0152317
1.17946
0.0264934
0.794851
0.0230719
0.440889
0.012894
0.19065
0.00369284
0.0524904
-0.000968575
0.00263444
0.288724
-0.000907952
0.780529
-0.0126209
1.16175
-0.0273666
1.45671
-0.0434842
1.73008
-0.0595529
1.99756
-0.0747155
2.27316
-0.0871452
2.57927
-0.0936791
2.90742
-0.0902751
3.25762
-0.0734449
3.04824
-0.0518183
2.41152
-0.0289668
1.92972
-0.00337062
1.53133
0.0140732
1.16202
0.0218748
0.787049
0.0201165
0.442647
0.0113033
0.199463
0.00334657
0.0604472
0.00237799
0.000693184
0.288031
-0.00257839
0.783801
-0.0132111
1.17238
-0.0266725
1.47017
-0.041664
1.74507
-0.0568267
2.01272
-0.071484
2.28782
-0.0838806
2.59167
-0.0909989
2.91454
-0.088466
3.25509
-0.0743862
3.03416
-0.0540122
2.39115
-0.0301384
1.90584
-0.0112758
1.51247
0.00647832
1.14426
0.0170289
0.776498
0.0152267
0.444449
0.00879132
0.205899
0.00266165
0.0665769
0.00503964
-0.000517134
0.288548
-0.00526037
0.788544
-0.0147618
1.18188
-0.0270449
1.48245
-0.0413309
1.75936
-0.0560097
2.0274
-0.0703883
2.3022
-0.0830629
2.60434
-0.0911601
2.92264
-0.0898584
3.25378
-0.0765274
3.02083
-0.057444
2.37206
-0.0388708
1.88727
-0.0170679
1.49067
-0.000873895
1.12807
0.00722481
0.7684
0.00911575
0.442559
0.00544171
0.209573
0.00186067
0.0701579
0.00690031
-0.00175778
0.290306
-0.00677055
0.793557
-0.0161421
1.19125
-0.0279035
1.49421
-0.0414126
1.77287
-0.0555586
2.04154
-0.0699433
2.31658
-0.0831251
2.61752
-0.0924061
2.93192
-0.0935334
3.25491
-0.0835642
3.01086
-0.0650632
2.35356
-0.0433051
1.86551
-0.0269838
1.47435
-0.0114006
1.11248
0.00036771
0.756631
0.00283861
0.440088
0.00240021
0.210011
0.0010276
0.0715305
0.00792791
-0.00326918
0.293575
-0.00882639
0.799114
-0.0176882
1.20011
-0.0288237
1.50535
-0.0418885
1.78593
-0.0558617
2.05552
-0.0703585
2.33108
-0.0841782
2.63134
-0.0948957
2.94264
-0.097883
3.2579
-0.0879921
3.00097
-0.0715437
2.33712
-0.0552033
1.84917
-0.0346561
1.4538
-0.0188651
1.09669
-0.00846229
0.746229
-0.0021473
0.433773
-0.000542871
0.208407
0.000122702
0.070865
0.00805061
-0.00397775
0.297553
-0.00973114
0.804867
-0.0187309
1.20911
-0.0297326
1.51635
-0.0423724
1.79857
-0.0559659
2.06911
-0.0704946
2.34561
-0.0848769
2.64572
-0.0969726
2.95473
-0.10278
3.26371
-0.0967201
2.99491
-0.0815365
2.32193
-0.0600115
1.82765
-0.0433808
1.43717
-0.0265097
1.07982
-0.0126918
0.732411
-0.00638702
0.427468
-0.00209245
0.204112
-0.000259632
0.0690321
0.00779098
-0.00431973
0.301872
-0.0109509
0.811499
-0.0197547
1.21792
-0.0302854
1.52688
-0.0426176
1.8109
-0.0561176
2.08261
-0.0708196
2.36031
-0.0859402
2.66085
-0.0996737
2.96847
-0.107901
3.27193
-0.10354
2.99054
-0.0894276
2.30782
-0.072698
1.81092
-0.0496185
1.41409
-0.030819
1.06102
-0.0175222
0.719114
-0.00810496
0.418051
-0.00304759
0.199055
-0.000566273
0.0665508
0.0072247
-0.00432567
0.306198
-0.0111814
0.818354
-0.0201651
1.2269
-0.0306611
1.53738
-0.0427121
1.82295
-0.0559064
2.09581
-0.0706278
2.37503
-0.086239
2.67646
-0.10119
2.98342
-0.112051
3.28279
-0.111947
2.99044
-0.0997362
2.29561
-0.0774701
1.78865
-0.0562845
1.3929
-0.0344766
1.03921
-0.0170175
0.701655
-0.00827397
0.409307
-0.00276661
0.193547
-0.000652496
0.0644367
0.00657221
-0.0044899
0.310688
-0.0118181
0.825683
-0.0205221
1.2356
-0.0305779
1.54743
-0.0423362
1.83471
-0.0554641
2.10893
-0.0703457
2.38991
-0.0865573
2.69267
-0.102972
2.99983
-0.116439
3.29626
-0.118733
2.99274
-0.108252
2.28513
-0.0903968
1.77079
-0.061476
1.36398
-0.0349357
1.01267
-0.0161938
0.682913
-0.00365924
0.396772
0.000729159
0.189159
0.00104105
0.0641248
0.00761326
-0.00447294
0.315161
-0.0116541
0.832864
-0.0203408
1.24429
-0.0303524
1.55745
-0.0418708
1.84623
-0.0547046
2.12177
-0.0695094
2.40472
-0.0860468
2.70921
-0.103509
3.01729
-0.119078
3.31183
-0.125645
2.9993
-0.118074
2.27756
-0.0953054
1.74803
-0.0676521
1.33633
-0.0346685
0.979691
-0.00829813
0.656543
0.004988
0.383486
0.00551846
0.188629
-0.00101942
0.0706627
0.00659384
-0.00456318
0.319724
-0.0118977
0.840198
-0.020203
1.2526
-0.0297327
1.56698
-0.0409004
1.8574
-0.0536092
2.13448
-0.0684737
2.41958
-0.0854568
2.72619
-0.104002
3.03584
-0.121653
3.32948
-0.131234
3.00888
-0.126291
2.27261
-0.109183
1.73092
-0.0739996
1.30114
-0.0331518
0.938843
0.00378809
0.619603
0.0320934
0.355181
0.0413937
0.179328
0.0269017
0.0851547
0.0334955
-0.00441569
0.32414
-0.011444
0.847227
-0.0196355
1.26079
-0.0290538
1.57639
-0.0399428
1.86829
-0.0523126
2.14685
-0.0669901
2.43426
-0.0841061
2.7433
-0.103357
3.05509
-0.122854
3.34898
-0.135672
3.0217
-0.135378
2.27232
-0.115223
1.71076
-0.0823796
1.2683
-0.0336637
0.890127
0.0144293
0.57151
0.0545086
0.315102
0.0503071
0.18353
0.0221287
0.113333
0.0556242
-0.004324
0.328464
-0.0113888
0.854291
-0.0191703
1.26857
-0.0280484
1.58527
-0.0385507
1.87879
-0.0507286
2.15902
-0.0653659
2.4489
-0.0827155
2.76065
-0.10265
3.07502
-0.123748
3.37008
-0.138816
3.03677
-0.142231
2.27573
-0.130811
1.69934
-0.0942117
1.2317
-0.0406
0.836516
0.0309575
0.499952
0.129082
0.216977
0.198802
0.11381
0.183639
0.128496
0.239263
-0.00415316
0.332617
-0.0109475
0.861086
-0.0187952
1.27642
-0.0278707
1.59435
-0.0386307
1.88955
-0.0511946
2.17159
-0.0666476
2.46435
-0.0854754
2.77948
-0.108001
3.09755
-0.133606
3.39568
-0.15494
3.0581
-0.164471
2.28527
-0.152099
1.68697
-0.119815
1.19942
-0.0572033
0.773904
0.00136378
0.441385
-0.0586431
0.276984
-0.355728
0.410895
-0.943491
0.716259
0.901126
-1.60535
-0.00402626
0.336643
-0.0108485
0.867908
-0.0183896
1.28396
-0.0271219
1.60308
-0.0377113
1.90014
-0.0504693
2.18435
-0.0664727
2.48035
-0.0863889
2.7994
-0.110865
3.12203
-0.139848
3.42466
-0.165892
3.08415
-0.180586
2.29996
-0.186078
1.69246
-0.162
1.17534
-0.130626
0.74253
-0.22683
0.537589
-0.693592
0.743746
-1.44765
1.16496
-2.05399
1.3226
1.21631
-2.36918
-0.00378194
0.340425
-0.010178
0.874304
-0.0176025
1.29138
-0.0263473
1.61182
-0.0369198
1.91071
-0.0497167
2.19714
-0.0660253
2.49666
-0.0867358
2.82011
-0.11304
3.14833
-0.146055
3.45768
-0.179035
3.11713
-0.203085
2.32401
-0.209043
1.69842
-0.193763
1.16006
-0.279289
0.828056
-0.753175
1.01147
-1.5511
1.54167
-2.11308
1.72694
-2.3515
1.56101
1.33023
-2.46542
-0.00366188
0.344087
-0.00990503
0.880547
-0.0169491
1.29843
-0.025292
1.62017
-0.035611
1.92103
-0.0485169
2.21005
-0.0652654
2.51341
-0.0869568
2.8418
-0.115152
3.17653
-0.151673
3.4942
-0.190155
3.15561
-0.22064
2.35449
-0.245658
1.72344
-0.321258
1.23566
-0.680627
1.18743
-1.44104
1.77189
-2.02908
2.12971
-2.26824
1.96609
-2.3811
1.67388
1.39409
-2.44496
-0.00333532
0.347422
-0.00905667
0.886268
-0.0158862
1.30526
-0.0241665
1.62845
-0.034479
1.93134
-0.0473588
2.22293
-0.0642782
2.53033
-0.0865978
2.86412
-0.116477
3.2064
-0.157135
3.53486
-0.203798
3.20227
-0.246894
2.39759
-0.28586
1.76241
-0.466458
1.41626
-1.09511
1.81607
-1.79056
2.46734
-2.10933
2.44848
-2.25702
2.11378
-2.33892
1.75577
1.46003
-2.40486
-0.00333626
0.350758
-0.00914892
0.892081
-0.0158503
1.31196
-0.0239801
1.63658
-0.0344077
1.94177
-0.0476509
2.23617
-0.0652241
2.5479
-0.0886843
2.88758
-0.120516
3.23824
-0.164634
3.57898
-0.217042
3.25468
-0.263167
2.44371
-0.350752
1.84999
-0.743752
1.80926
-1.49165
2.56397
-1.96325
2.93894
-2.16294
2.64817
-2.26898
2.21982
-2.34609
1.83289
1.52336
-2.40942
-0.003387
0.354145
-0.00924285
0.897937
-0.0164355
1.31915
-0.025239
1.64538
-0.0363361
1.95287
-0.0501989
2.25003
-0.0685418
2.56625
-0.0931221
2.91216
-0.126949
3.27206
-0.175506
3.62753
-0.233705
3.31288
-0.295309
2.50532
-0.481971
2.03665
-1.04596
2.37324
-1.67918
3.1972
-1.95327
3.21304
-2.09988
2.79477
-2.21361
2.33355
-2.30715
1.92643
1.58493
-2.36871
-0.00353356
0.357679
-0.00999694
0.9044
-0.017462
1.32662
-0.0264688
1.65439
-0.0379063
1.9643
-0.0524899
2.26462
-0.0718961
2.58565
-0.0980203
2.93828
-0.134046
3.30809
-0.186151
3.67964
-0.249142
3.37587
-0.334328
2.59051
-0.615997
2.31832
-1.26417
3.02141
-1.75218
3.6852
-1.95908
3.41994
-2.09859
2.93428
-2.22224
2.45721
-2.33244
2.03663
1.64347
-2.39099
-0.00344072
0.36112
-0.00984736
0.910807
-0.0179765
1.33474
-0.0278829
1.66429
-0.0401451
1.97657
-0.0554072
2.27988
-0.0756016
2.60585
-0.102822
2.9655
-0.140741
3.34601
-0.196495
3.73539
-0.264894
3.44427
-0.388784
2.71439
-0.774704
2.70424
-1.41034
3.65705
-1.762
4.03687
-1.93463
3.59257
-2.03626
3.03591
-2.12462
2.54557
-2.19151
2.10352
1.63614
-2.18418
-0.00348848
0.364608
-0.0106556
0.917974
-0.0190428
1.34313
-0.0290859
1.67434
-0.0416764
1.98916
-0.0577182
2.29592
-0.0790677
2.6272
-0.107927
2.99436
-0.148022
3.3861
-0.205624
3.79299
-0.284232
3.52288
-0.453687
2.88385
-0.906347
3.1569
-1.46237
4.21307
-1.72346
4.29796
-1.87467
3.74378
-1.96781
3.12905
-1.96881
2.54657
-1.89919
2.0339
1.5996
-1.86265
-0.00320752
0.367816
-0.0100401
0.924807
-0.0191574
1.35225
-0.0302179
1.6854
-0.0436552
2.00259
-0.0601537
2.31242
-0.0817645
2.64881
-0.110752
3.02335
-0.151082
3.42643
-0.208348
3.85026
-0.294234
3.60877
-0.498278
3.08789
-0.988453
3.64708
-1.42907
4.65368
-1.59364
4.46254
-1.66049
3.81063
-1.66476
3.13331
-1.51692
2.39874
-1.01693
1.5339
0.582672
-0.00287022
0.370686
-0.0107569
0.932693
-0.0200805
1.36157
-0.0312546
1.69657
-0.0452603
2.0166
-0.0631177
2.33028
-0.0868692
2.67256
-0.118978
3.05546
-0.163587
3.47104
-0.227735
3.91441
-0.330838
3.71187
-0.584658
3.34171
-1.12423
4.18665
-1.48193
5.01138
-1.5809
4.56151
-1.57849
3.80822
-1.47445
3.02927
-1.23564
2.15993
-0.631401
0.929661
-0.048729
-0.00248883
0.373175
-0.00926924
0.939474
-0.0194148
1.37172
-0.0321
1.70926
-0.0476503
2.03215
-0.0668741
2.3495
-0.092266
2.69795
-0.126647
3.08984
-0.175351
3.51975
-0.245355
3.98441
-0.367802
3.83432
-0.682239
3.65615
-1.24239
4.74679
-1.50234
5.27134
-1.56053
4.6197
-1.5382
3.78589
-1.33644
2.82751
-0.782383
1.60587
-0.108582
0.255861
-0.157311
-0.00171895
0.374894
-0.00966392
0.947419
-0.0197487
1.3818
-0.032221
1.72173
-0.0480217
2.04795
-0.0684964
2.36998
-0.096117
2.72557
-0.133902
3.12763
-0.186652
3.5725
-0.26522
4.06298
-0.414305
3.9834
-0.786374
4.02822
-1.32096
5.28138
-1.49667
5.44704
-1.52784
4.65087
-1.43952
3.69757
-1.10148
2.48947
-0.312743
0.817135
0.0247566
-0.0816385
-0.132554
-0.000702183
0.375596
-0.00663011
0.953347
-0.0173914
1.39256
-0.031617
1.73596
-0.0491365
2.06547
-0.0710116
2.39185
-0.100157
2.75472
-0.139788
3.16726
-0.195206
3.62791
-0.281504
4.14928
-0.456291
4.15819
-0.894544
4.46647
-1.36585
5.75269
-1.482
5.56319
-1.48464
4.65352
-1.25927
3.4722
-0.685781
1.91598
-0.0625842
0.193938
0.0302181
-0.174441
-0.102336
6.56232e-05
0.37553
-0.00595443
0.959367
-0.0162634
1.40287
-0.0298696
1.74956
-0.0469898
2.08259
-0.0698283
2.41469
-0.100989
2.78588
-0.143713
3.20998
-0.202738
3.68694
-0.298927
4.24547
-0.500799
4.36006
-0.98901
4.95468
-1.36189
6.12557
-1.42556
5.62686
-1.37905
4.607
-1.09018
3.18333
-0.322061
1.14787
0.00505578
-0.13318
0.0151292
-0.184514
-0.0872071
0.00330859
0.372222
0.00041864
0.962257
-0.0107696
1.41406
-0.0263447
1.76514
-0.0451178
2.10136
-0.0693775
2.43895
-0.101654
2.81815
-0.14536
3.25369
-0.206619
3.7482
-0.309969
4.34882
-0.536891
4.58698
-1.0496
5.4674
-1.32527
6.40124
-1.36644
5.66803
-1.22567
4.46623
-0.770988
2.72865
-0.0682413
0.445123
0.0446826
-0.246103
0.0243759
-0.164208
-0.0628313
0.00441746
0.367804
0.00239013
0.964284
-0.00741576
1.42387
-0.0210308
1.77875
-0.0384087
2.11874
-0.0630378
2.46358
-0.0966079
2.85172
-0.142836
3.29992
-0.207157
3.81252
-0.319472
4.46113
-0.577875
4.84538
-1.07344
5.96296
-1.26279
6.59059
-1.27102
5.67625
-1.05116
4.24637
-0.45995
2.13743
-0.0184278
0.00360142
-0.00657155
-0.25796
0.00490928
-0.175688
-0.057922
0.00867007
0.359134
0.00997374
0.96298
0.00259441
1.43125
-0.0118702
1.79322
-0.0311136
2.13799
-0.0567613
2.48923
-0.0905717
2.88553
-0.136134
3.34548
-0.201419
3.8778
-0.318958
4.57867
-0.597458
5.12389
-1.04836
6.41386
-1.17223
6.71446
-1.15803
5.66205
-0.896999
3.98535
-0.263112
1.50354
-0.0707567
-0.188754
-0.0388692
-0.289847
-0.0142772
-0.20028
-0.0721992
0.0114327
0.347701
0.0159589
0.958454
0.0109138
1.43629
0.0007758
1.80335
-0.0173115
2.15607
-0.0415804
2.5135
-0.0750514
2.919
-0.121791
3.39222
-0.188434
3.94445
-0.310951
4.70119
-0.598436
5.41137
-0.986578
6.80201
-1.05151
6.77939
-0.97905
5.58959
-0.676604
3.6829
-0.0711066
0.898047
0.014782
-0.274642
-3.97307e-05
-0.275025
-0.0017184
-0.198602
-0.0739176
0.0185179
0.329183
0.0301194
0.946853
0.0286719
1.43774
0.0171727
1.81485
-0.00130131
2.17455
-0.0244352
2.53663
-0.0567393
2.95131
-0.100731
3.43621
-0.164831
4.00855
-0.285633
4.82199
-0.56433
5.69007
-0.871498
7.10917
-0.905388
6.81328
-0.806235
5.49043
-0.446756
3.32342
0.0673634
0.383927
0.0769253
-0.284204
0.0573374
-0.255437
0.0222135
-0.163478
-0.0517041
0.0243196
0.304864
0.0423525
0.92882
0.0453663
1.43473
0.0387963
1.82142
0.0266688
2.18667
0.00544684
2.55785
-0.0243348
2.98109
-0.0667486
3.47862
-0.12866
4.07046
-0.244855
4.93818
-0.494343
5.93956
-0.715227
7.33006
-0.746945
6.845
-0.638306
5.38179
-0.307437
2.99255
-0.00309131
0.0795812
0.0174571
-0.304752
0.0306412
-0.268621
0.016052
-0.148889
-0.0356521
0.0352277
0.269636
0.0653208
0.898726
0.0761293
1.42392
0.0723286
1.82522
0.0608381
2.19816
0.041279
2.57741
0.0141125
3.00826
-0.0232445
3.51598
-0.0776668
4.12488
-0.175709
5.03623
-0.377577
6.14142
-0.533893
7.48637
-0.554445
6.86555
-0.460248
5.2876
-0.181188
2.71349
-0.0667383
-0.0348689
-0.0511349
-0.320356
-0.0216131
-0.298143
-0.0032986
-0.167203
-0.0389507
0.0446613
0.224975
0.0870968
0.856291
0.107136
1.40388
0.111699
1.82066
0.107769
2.20209
0.0940866
2.59109
0.0733891
3.02895
0.0414226
3.54795
-0.00909573
4.1754
-0.0838372
5.11097
-0.220971
6.27856
-0.311116
7.57652
-0.326991
6.88143
-0.270156
5.23076
-0.0598163
2.50315
-0.0833473
-0.011338
-0.0748613
-0.328842
-0.0320742
-0.34093
0.00815575
-0.207433
-0.0307949
0.0580219
0.166953
0.120584
0.793729
0.157001
1.36746
0.169039
1.80862
0.168601
2.20253
0.158273
2.60142
0.143522
3.04371
0.122142
3.56933
0.0886591
4.20888
0.0438307
5.1558
-0.0074725
6.32986
-0.0448989
7.61395
-0.0509031
6.88743
-0.0396767
5.21954
-0.0110608
2.47454
-0.174177
0.151778
-0.157775
-0.345244
-0.0693689
-0.429337
0.0181671
-0.294969
-0.0126278
0.060233
0.10672
0.150562
0.7034
0.206878
1.31114
0.233625
1.78188
0.24528
2.19088
0.244734
2.60197
0.239121
3.04932
0.227794
3.58065
0.211484
4.22519
0.192812
5.17447
0.250349
6.27232
0.300913
7.56338
0.280556
6.90779
0.113704
5.38639
-0.194231
2.78247
-0.490603
0.448151
-0.497507
-0.338339
-0.364811
-0.562034
-0.160568
-0.499212
-0.173196
0.0504011
0.0563189
0.183723
0.570078
0.278947
1.21592
0.324201
1.73662
0.34364
2.17144
0.350983
2.59462
0.351609
3.04869
0.355536
3.57673
0.362373
4.21835
0.38369
5.15315
0.535948
6.12006
0.697946
7.40138
0.70226
6.90348
0.564009
5.52464
0.064202
3.28228
-0.495723
1.00808
-0.720056
-0.114006
-0.585902
-0.696188
-0.316478
-0.768635
-0.489674
0.0346122
0.0217068
0.218776
0.385914
0.344418
1.09028
0.420944
1.6601
0.461857
2.13053
0.485577
2.5709
0.494317
3.03995
0.510375
3.56067
0.541178
4.18755
0.606905
5.08743
0.882938
5.84403
1.28841
6.99591
1.57044
6.62144
1.74312
5.35196
1.36439
3.66102
0.615555
1.75691
0.0422375
0.459312
-0.247211
-0.406739
-0.227617
-0.788229
-0.717291
0.0309767
-0.0092699
0.237147
0.179743
0.445827
0.881599
0.559112
1.54681
0.609837
2.0798
0.642569
2.53817
0.664701
3.01782
0.693749
3.53162
0.750412
4.13089
0.873436
4.9644
1.25197
5.4655
1.93071
6.31718
2.30196
6.25019
2.52568
5.12823
2.38582
3.80088
1.78473
2.35799
1.18428
1.05976
0.545217
0.232326
0.169206
-0.412218
-0.548085
0.0262891
-0.035559
0.164267
0.0417652
0.491809
0.554056
0.684795
1.35383
0.783959
1.98064
0.833876
2.48825
0.868421
2.98327
0.896757
3.50329
0.972585
4.05506
1.11594
4.82105
1.50009
5.08135
2.28616
5.5311
2.66974
5.86662
2.85959
4.93839
2.75046
3.91001
2.26339
2.84507
1.61193
1.71122
1.02486
0.819396
0.445001
0.167639
-0.103084
0.00524155
-0.0408006
0.0841693
-0.0371625
0.414254
0.223972
0.70289
1.06519
0.833856
1.84967
0.874675
2.44743
0.885986
2.97196
0.871437
3.51783
0.869269
4.05723
0.911942
4.77837
1.05916
4.93413
1.48969
5.10057
1.66198
5.69432
1.69521
4.90516
1.61506
3.99016
1.39019
3.06993
1.01914
2.08227
0.642149
1.19639
0.258793
0.550995
0.155708
0.00336505
-0.0441656
0.0446407
-0.0784382
0.225282
0.043331
0.53258
0.757891
0.701471
1.68078
0.754354
2.39455
0.769558
2.95676
0.765246
3.52215
0.749702
4.07277
0.77092
4.75715
0.840038
4.86502
1.12065
4.81996
1.31313
5.50185
1.31716
4.90113
1.2549
4.05242
1.09881
3.22602
0.817472
2.3636
0.510497
1.50336
0.215799
0.845694
0.371507
0.00375044
-0.0479161
0.0237283
-0.0984161
0.0982484
-0.0311891
0.365427
0.490713
0.551929
1.49428
0.636774
2.30971
0.652616
2.94092
0.650084
3.52468
0.62392
4.09894
0.619176
4.7619
0.648375
4.83582
0.813145
4.65519
0.991751
5.32324
0.983921
4.90896
0.922748
4.11359
0.80517
3.3436
0.610258
2.55852
0.376053
1.73757
0.150342
1.0714
0.521849
-0.00997779
-0.0379383
-0.00975955
-0.0986343
0.0250419
-0.0659905
0.236705
0.27905
0.41406
1.31692
0.501888
2.22188
0.528112
2.91469
0.53151
3.52128
0.508399
4.12205
0.489847
4.78045
0.493114
4.83255
0.591441
4.55686
0.722081
5.1926
0.715796
4.91524
0.652395
4.177
0.556142
3.43985
0.417595
2.69706
0.246482
1.90868
0.0884939
1.22939
0.610343
-0.010426
-0.0275123
0.00215487