/*--------------------------------*- C++ -*----------------------------------*\
| =========                 |                                                 |
| \\      /  F ield         | OpenFOAM: The Open Source CFD Toolbox           |
|  \\    /   O peration     | Version:  4.0                                   |
|   \\  /    A nd           | Web:      www.OpenFOAM.org                      |
|    \\/     M anipulation  |                                                 |
\*---------------------------------------------------------------------------*/
FoamFile
{
    version     2.0;
    format      ascii;
    class       volVectorField;
    location    "59";
    object      U;
}
// * * * * * * * * * * * * * * * * * * * * * * * * * * * * * * * * * * * * * //

dimensions      [0 1 -1 0 0 0 0];

internalField   nonuniform List<vector> 
2200
(
(0.878857 -0.030411 0)
(1.0058 -0.0512798 0)
(1.00331 -0.0353827 0)
(1.00033 -0.0244301 0)
(0.999915 -0.0166459 0)
(1.00001 -0.0107174 0)
(1.00001 -0.00682356 0)
(1 -0.00418026 0)
(0.99998 -0.00215148 0)
(1.00018 -0.000602988 0)
(0.999994 0.00110487 0)
(1.00003 0.00257238 0)
(1.00021 0.00449008 0)
(1.00016 0.00706482 0)
(1.00011 0.0108329 0)
(1.00006 0.0166482 0)
(1.00038 0.0243718 0)
(1.00348 0.0348677 0)
(1.00599 0.0513771 0)
(0.879054 0.0302983 0)
(0.711997 -0.032767 0)
(0.996643 -0.063017 0)
(1.0333 -0.0561878 0)
(1.02484 -0.0464474 0)
(1.01584 -0.0361609 0)
(1.00966 -0.0264225 0)
(1.00594 -0.0181849 0)
(1.0038 -0.0114583 0)
(1.00263 -0.0061342 0)
(1.00206 -0.00169296 0)
(1.00202 0.00249637 0)
(1.00235 0.007069 0)
(1.00337 0.0123345 0)
(1.00558 0.0189327 0)
(1.00935 0.027199 0)
(1.01545 0.0369548 0)
(1.02457 0.0474516 0)
(1.03315 0.0579786 0)
(0.996707 0.0631412 0)
(0.711777 0.0330335 0)
(0.535572 -0.0238889 0)
(0.969918 -0.0569228 0)
(1.05645 -0.0546942 0)
(1.05229 -0.0487264 0)
(1.03629 -0.0403859 0)
(1.02446 -0.0322253 0)
(1.01589 -0.023944 0)
(1.01036 -0.0160914 0)
(1.00711 -0.00877224 0)
(1.00563 -0.00206382 0)
(1.00576 0.00434919 0)
(1.00725 0.010741 0)
(1.01043 0.0177716 0)
(1.01575 0.0254487 0)
(1.02421 0.0334279 0)
(1.03624 0.0414033 0)
(1.05229 0.0493941 0)
(1.05633 0.0532652 0)
(0.969223 0.0576421 0)
(0.534414 0.0239349 0)
(0.392315 -0.0136539 0)
(0.911789 -0.0464007 0)
(1.05749 -0.0469361 0)
(1.06949 -0.0443267 0)
(1.05483 -0.0381886 0)
(1.03933 -0.0314868 0)
(1.02758 -0.0246944 0)
(1.01912 -0.0174428 0)
(1.01379 -0.00998486 0)
(1.01111 -0.00248593 0)
(1.01066 0.00500238 0)
(1.01289 0.0125192 0)
(1.0181 0.0197925 0)
(1.02657 0.0266342 0)
(1.03839 0.0330649 0)
(1.05389 0.0395352 0)
(1.06811 0.0456311 0)
(1.05549 0.0483242 0)
(0.909889 0.0469924 0)
(0.389935 0.0137794 0)
(0.307693 -0.0045156 0)
(0.846749 -0.0323855 0)
(1.04945 -0.0399327 0)
(1.07953 -0.0381811 0)
(1.06828 -0.0335295 0)
(1.05173 -0.0279446 0)
(1.03833 -0.0225401 0)
(1.02808 -0.0164936 0)
(1.02095 -0.00956164 0)
(1.01713 -0.00186863 0)
(1.01723 0.00607749 0)
(1.02085 0.0132996 0)
(1.02753 0.0197837 0)
(1.03738 0.0254562 0)
(1.05038 0.0303729 0)
(1.06679 0.0356658 0)
(1.07783 0.0399834 0)
(1.04742 0.0417138 0)
(0.843071 0.0329458 0)
(0.303798 0.00473203 0)
(0.264266 0.000104926 0)
(0.788989 -0.0200609 0)
(1.03338 -0.031446 0)
(1.08352 -0.0320088 0)
(1.07727 -0.0287431 0)
(1.06084 -0.0238481 0)
(1.04723 -0.0193985 0)
(1.03638 -0.0142927 0)
(1.02859 -0.00823311 0)
(1.02417 -0.00125809 0)
(1.02343 0.00598014 0)
(1.027 0.0128382 0)
(1.03439 0.0185167 0)
(1.04495 0.0230975 0)
(1.05852 0.0271139 0)
(1.07482 0.0315306 0)
(1.08027 0.034264 0)
(1.02911 0.0333241 0)
(0.782619 0.0207342 0)
(0.258791 0.000119201 0)
(0.24035 0.00106736 0)
(0.738386 -0.0122868 0)
(1.01373 -0.0249997 0)
(1.08408 -0.0267761 0)
(1.08304 -0.0244952 0)
(1.06781 -0.0203434 0)
(1.05427 -0.0163115 0)
(1.04341 -0.0118119 0)
(1.0352 -0.00644543 0)
(1.0302 -2.17674e-05 0)
(1.03006 0.00680774 0)
(1.03428 0.0125999 0)
(1.04164 0.0172706 0)
(1.05186 0.0212016 0)
(1.06486 0.0245546 0)
(1.07953 0.0279989 0)
(1.08007 0.0296204 0)
(1.00773 0.027195 0)
(0.729072 0.013133 0)
(0.233201 -0.000840127 0)
(0.225999 0.000955761 0)
(0.69546 -0.0080487 0)
(0.993063 -0.0207639 0)
(1.0822 -0.0231395 0)
(1.08686 -0.0212749 0)
(1.0734 -0.0176939 0)
(1.0599 -0.0138868 0)
(1.04932 -0.00957772 0)
(1.0414 -0.00459262 0)
(1.03658 0.00101549 0)
(1.03549 0.0067722 0)
(1.03882 0.0121373 0)
(1.04583 0.0164877 0)
(1.05589 0.0199405 0)
(1.06923 0.0230217 0)
(1.08198 0.025808 0)
(1.07563 0.0267436 0)
(0.983319 0.0234107 0)
(0.681945 0.00910568 0)
(0.216761 -0.000715768 0)
(0.216426 0.000623525 0)
(0.660078 -0.00567294 0)
(0.972578 -0.0176231 0)
(1.07957 -0.0202222 0)
(1.0903 -0.0186576 0)
(1.07828 -0.0155282 0)
(1.06489 -0.0118582 0)
(1.05437 -0.00767753 0)
(1.04639 -0.00288294 0)
(1.04117 0.00253424 0)
(1.04051 0.00803982 0)
(1.04421 0.0126694 0)
(1.05082 0.0163681 0)
(1.06021 0.0196383 0)
(1.07271 0.0223126 0)
(1.08356 0.0244603 0)
(1.07106 0.0249484 0)
(0.959507 0.0209689 0)
(0.642037 0.00705966 0)
(0.204729 -0.000336381 0)
(0.209217 0.000295836 0)
(0.631452 -0.00422709 0)
(0.953609 -0.015037 0)
(1.07633 -0.0179844 0)
(1.09332 -0.0166555 0)
(1.08291 -0.0137181 0)
(1.06947 -0.0101207 0)
(1.05902 -0.00601392 0)
(1.05128 -0.00132061 0)
(1.04645 0.00367148 0)
(1.04489 0.00865442 0)
(1.04716 0.0130975 0)
(1.05326 0.0168972 0)
(1.06268 0.0196615 0)
(1.0756 0.0220628 0)
(1.08445 0.0238095 0)
(1.06403 0.0237317 0)
(0.934678 0.0190668 0)
(0.607106 0.00590116 0)
(0.19429 3.45663e-05 0)
(0.203375 8.22768e-05 0)
(0.60816 -0.00316169 0)
(0.935702 -0.0125847 0)
(1.07332 -0.0155983 0)
(1.09671 -0.014444 0)
(1.08761 -0.0117139 0)
(1.07412 -0.00820655 0)
(1.06338 -0.00416998 0)
(1.0552 0.000509408 0)
(1.04966 0.00566757 0)
(1.04823 0.0105027 0)
(1.05128 0.0147462 0)
(1.05723 0.0176928 0)
(1.06611 0.0203536 0)
(1.07805 0.0223826 0)
(1.08488 0.023559 0)
(1.05734 0.0229727 0)
(0.911066 0.0175351 0)
(0.576997 0.00525173 0)
(0.184743 0.000317798 0)
(0.198772 3.00738e-06 0)
(0.589878 -0.00231077 0)
(0.920235 -0.0102895 0)
(1.07027 -0.0135307 0)
(1.09998 -0.0124747 0)
(1.09247 -0.00972063 0)
(1.07891 -0.00613451 0)
(1.06805 -0.00224827 0)
(1.05987 0.0022121 0)
(1.05448 0.00701046 0)
(1.05222 0.0118422 0)
(1.05342 0.0156359 0)
(1.0587 0.0189341 0)
(1.06775 0.0209573 0)
(1.08029 0.0226843 0)
(1.08463 0.0236066 0)
(1.04825 0.0223208 0)
(0.886456 0.0162918 0)
(0.549418 0.00486281 0)
(0.175328 0.000486452 0)
(0.195176 2.54477e-05 0)
(0.575141 -0.00156492 0)
(0.90562 -0.00813602 0)
(1.06751 -0.0110648 0)
(1.10362 -0.00998635 0)
(1.09743 -0.00728471 0)
(1.08365 -0.00374876 0)
(1.07218 0.000263255 0)
(1.06316 0.00487878 0)
(1.05664 0.00993012 0)
(1.05413 0.0144167 0)
(1.05652 0.0181241 0)
(1.06214 0.0202022 0)
(1.07082 0.0221807 0)
(1.08185 0.0235736 0)
(1.08388 0.0239676 0)
(1.03941 0.0221704 0)
(0.86284 0.0154301 0)
(0.524559 0.00467345 0)
(0.166283 0.000571463 0)
(0.193057 6.60611e-05 0)
(0.564592 -0.000783422 0)
(0.894339 -0.00592027 0)
(1.06512 -0.00878312 0)
(1.10716 -0.00756346 0)
(1.10261 -0.00469276 0)
(1.0889 -0.000941034 0)
(1.07733 0.0029591 0)
(1.06828 0.00736657 0)
(1.06176 0.012017 0)
(1.05827 0.0165718 0)
(1.05843 0.0198132 0)
(1.06287 0.0223865 0)
(1.07177 0.0236234 0)
(1.08295 0.0245449 0)
(1.08207 0.0245746 0)
(1.02739 0.0222502 0)
(0.837427 0.0148539 0)
(0.500263 0.00461026 0)
(0.157089 0.000612739 0)
(0.192149 0.000102101 0)
(0.557055 -0.000239874 0)
(0.883947 -0.00399032 0)
(1.06342 -0.00612673 0)
(1.11121 -0.00469834 0)
(1.10799 -0.00169514 0)
(1.09414 0.0020772 0)
(1.08177 0.00631605 0)
(1.07154 0.0110715 0)
(1.06362 0.0161511 0)
(1.05976 0.0203421 0)
(1.06091 0.0232305 0)
(1.06608 0.0246371 0)
(1.07436 0.0258086 0)
(1.08303 0.026296 0)
(1.07951 0.0257635 0)
(1.01583 0.0227038 0)
(0.813018 0.0146252 0)
(0.477555 0.00463739 0)
(0.148157 0.000629025 0)
(0.192706 8.43824e-05 0)
(0.5527 0.000818377 0)
(0.87769 -0.00158848 0)
(1.06272 -0.0034577 0)
(1.11547 -0.0016672 0)
(1.1137 0.00160364 0)
(1.09995 0.00577518 0)
(1.08758 0.0101193 0)
(1.07737 0.014841 0)
(1.06917 0.0194626 0)
(1.06381 0.0235025 0)
(1.06258 0.0262598 0)
(1.06562 0.0277545 0)
(1.07389 0.0282712 0)
(1.08282 0.0283923 0)
(1.07495 0.0273861 0)
(1.00041 0.0235178 0)
(0.785978 0.0147665 0)
(0.453994 0.0047758 0)
(0.138769 0.00065251 0)
(0.194736 0.000228021 0)
(0.552908 0.00151772 0)
(0.872775 0.000469691 0)
(1.06336 -0.00010001 0)
(1.1205 0.00210426 0)
(1.11981 0.00575021 0)
(1.10584 0.0101436 0)
(1.09247 0.0149847 0)
(1.08067 0.0201508 0)
(1.07071 0.0252151 0)
(1.06491 0.0290465 0)
(1.06432 0.0308366 0)
(1.06849 0.031833 0)
(1.07575 0.0321119 0)
(1.08115 0.0313532 0)
(1.06983 0.02964 0)
(0.985483 0.0249 0)
(0.759524 0.0152443 0)
(0.431058 0.00503728 0)
(0.129362 0.000682171 0)
(0.198873 0.000665126 0)
(0.555515 0.00230982 0)
(0.873059 0.00330967 0)
(1.06589 0.00322116 0)
(1.12645 0.00608295 0)
(1.12681 0.0100722 0)
(1.11256 0.0150445 0)
(1.09896 0.0201573 0)
(1.08717 0.0254354 0)
(1.07695 0.0303284 0)
(1.06905 0.0338243 0)
(1.06533 0.0357721 0)
(1.06629 0.0361684 0)
(1.0733 0.0356214 0)
(1.07955 0.0349738 0)
(1.06226 0.0326071 0)
(0.965693 0.0266724 0)
(0.729326 0.0161108 0)
(0.405941 0.00540591 0)
(0.119026 0.000715265 0)
(0.205194 0.000868198 0)
(0.562124 0.0034133 0)
(0.876736 0.00575146 0)
(1.07053 0.00737944 0)
(1.13335 0.0108804 0)
(1.13459 0.0156471 0)
(1.1199 0.0211845 0)
(1.10501 0.0270468 0)
(1.09114 0.033021 0)
(1.07819 0.0383293 0)
(1.06921 0.0418821 0)
(1.06638 0.0426997 0)
(1.06865 0.0424032 0)
(1.0744 0.0416676 0)
(1.07554 0.0396574 0)
(1.05364 0.0361798 0)
(0.945846 0.0291383 0)
(0.698882 0.0173118 0)
(0.380414 0.00587203 0)
(0.108334 0.000752025 0)
(0.213572 0.00105036 0)
(0.57332 0.00471944 0)
(0.884874 0.00887836 0)
(1.07802 0.0119578 0)
(1.14174 0.0165213 0)
(1.1435 0.0217561 0)
(1.12781 0.0280953 0)
(1.11186 0.0344028 0)
(1.09714 0.0406644 0)
(1.08362 0.0461059 0)
(1.07241 0.0493199 0)
(1.06578 0.050213 0)
(1.06452 0.0493158 0)
(1.06944 0.0470843 0)
(1.07195 0.0452662 0)
(1.04191 0.040699 0)
(0.91988 0.0319951 0)
(0.663235 0.0188614 0)
(0.351477 0.00639278 0)
(0.0963628 0.000778697 0)
(0.225804 0.00139603 0)
(0.591359 0.00667319 0)
(0.899501 0.0131841 0)
(1.08863 0.0181585 0)
(1.15159 0.0235986 0)
(1.15354 0.0298678 0)
(1.13696 0.0371039 0)
(1.1195 0.0445214 0)
(1.10244 0.0518081 0)
(1.08547 0.0576764 0)
(1.07175 0.0601405 0)
(1.06549 0.0596565 0)
(1.06544 0.0579648 0)
(1.06915 0.0558486 0)
(1.0647 0.051974 0)
(1.02805 0.0460351 0)
(0.893085 0.035719 0)
(0.626186 0.0207204 0)
(0.321222 0.00696507 0)
(0.0838688 0.000803479 0)
(0.241459 0.00193736 0)
(0.614621 0.00850378 0)
(0.920109 0.0178533 0)
(1.10378 0.0251729 0)
(1.1639 0.0324159 0)
(1.1654 0.0397284 0)
(1.14702 0.0482781 0)
(1.12744 0.0562963 0)
(1.10791 0.0635765 0)
(1.08869 0.0687662 0)
(1.07294 0.0712702 0)
(1.0634 0.0705979 0)
(1.05961 0.0679772 0)
(1.06107 0.0636901 0)
(1.05768 0.0596843 0)
(1.01024 0.0523074 0)
(0.858081 0.0395211 0)
(0.582058 0.0227268 0)
(0.286562 0.00747352 0)
(0.0699836 0.00080333 0)
(0.26335 0.0028039 0)
(0.647646 0.0122444 0)
(0.949233 0.0246436 0)
(1.12348 0.0347361 0)
(1.17894 0.0431572 0)
(1.17933 0.0526104 0)
(1.15874 0.0622606 0)
(1.13662 0.0715066 0)
(1.11416 0.0797641 0)
(1.09177 0.0855714 0)
(1.07256 0.0863615 0)
(1.06154 0.0832898 0)
(1.0583 0.0792895 0)
(1.05888 0.0753168 0)
(1.04636 0.0689094 0)
(0.98889 0.0593821 0)
(0.821479 0.0445393 0)
(0.535841 0.0249538 0)
(0.250403 0.00794133 0)
(0.055826 0.000784155 0)
(0.294376 0.00368454 0)
(0.692215 0.0153997 0)
(0.987468 0.0326973 0)
(1.14963 0.0464106 0)
(1.19755 0.0578454 0)
(1.19519 0.0693631 0)
(1.17087 0.0808667 0)
(1.14518 0.0907259 0)
(1.11886 0.0982638 0)
(1.09203 0.101716 0)
(1.06966 0.100916 0)
(1.05677 0.0977948 0)
(1.0506 0.0927025 0)
(1.04762 0.0857097 0)
(1.03426 0.0790532 0)
(0.962399 0.0675601 0)
(0.773494 0.0489817 0)
(0.479396 0.0268375 0)
(0.208953 0.00813935 0)
(0.040398 0.000687133 0)
(0.330744 0.00708222 0)
(0.750383 0.0246794 0)
(1.03718 0.0466322 0)
(1.18193 0.064593 0)
(1.22006 0.0774197 0)
(1.21349 0.0920258 0)
(1.18451 0.104203 0)
(1.15463 0.114046 0)
(1.12424 0.121039 0)
(1.09447 0.124286 0)
(1.06962 0.122573 0)
(1.05333 0.115486 0)
(1.04551 0.107725 0)
(1.04234 0.100735 0)
(1.01694 0.0907852 0)
(0.929596 0.075877 0)
(0.722828 0.0545009 0)
(0.422576 0.0289503 0)
(0.167778 0.00814528 0)
(0.0262263 0.000608039 0)
(0.410593 0.0106254 0)
(0.837721 0.0356724 0)
(1.10288 0.0671939 0)
(1.22218 0.0898852 0)
(1.24705 0.106053 6.25577e-34)
(1.2333 0.122362 -2.82179e-34)
(1.19782 0.134607 0)
(1.16297 0.143311 0)
(1.12806 0.148377 0)
(1.09315 0.147998 0)
(1.06255 0.141077 0)
(1.04472 0.132857 0)
(1.03636 0.124255 0)
(1.02655 0.113959 0)
(0.997253 0.102728 0)
(0.890572 0.0851026 0)
(0.657421 0.0583919 0)
(0.34985 0.0291774 0)
(0.118313 0.00764835 0)
(0.0103282 0.000751602 0)
(0.481417 0.0258533 4.60108e-20)
(0.93994 0.0596399 -3.48464e-20)
(1.17402 0.101883 0)
(1.26339 0.128818 2.70174e-20)
(1.27488 0.144172 -2.19098e-20)
(1.25185 0.162494 2.97725e-34)
(1.20932 0.172855 0)
(1.16903 0.17943 1.5882e-20)
(1.1283 0.181669 -5.21753e-20)
(1.08846 0.178604 1.06543e-20)
(1.05763 0.171436 0)
(1.03749 0.16024 -2.70747e-20)
(1.02434 0.147665 -3.25136e-20)
(1.01483 0.136219 5.69119e-20)
(0.963909 0.120349 -4.49531e-20)
(0.827148 0.0947921 0)
(0.567666 0.062213 -1.61831e-20)
(0.266312 0.02838 0)
(0.0682431 0.00730608 -8.93255e-20)
(-0.00660997 0.000492581 1.05274e-19)
(0.517743 0.0535825 -6.04757e-21)
(1.00472 0.102465 1.03668e-19)
(1.22453 0.152122 -5.62929e-21)
(1.29719 0.176533 -6.62888e-20)
(1.29965 0.193933 -4.63799e-20)
(1.26748 0.210342 7.54666e-20)
(1.21848 0.21784 0)
(1.17266 0.22159 0)
(1.1272 0.221449 8.29975e-20)
(1.08353 0.215575 0)
(1.04505 0.202918 9.77146e-20)
(1.0192 0.187161 2.90515e-20)
(1.00595 0.173899 4.58682e-22)
(0.981071 0.159265 -6.18995e-20)
(0.923199 0.139119 0)
(0.767333 0.109927 0)
(0.494378 0.0668092 -2.63815e-19)
(0.208014 0.0273905 6.63291e-19)
(0.037148 0.00562845 -3.9206e-19)
(-0.0179008 -0.0012429 -4.61939e-19)
(0.525236 0.0760432 -5.76372e-20)
(1.04131 0.159445 2.22078e-20)
(1.26085 0.212449 1.22603e-20)
(1.32352 0.235759 1.1548e-19)
(1.31874 0.251526 1.45283e-20)
(1.27925 0.26348 -1.96577e-19)
(1.22466 0.267032 6.71201e-20)
(1.17343 0.267536 0)
(1.12176 0.263688 -1.75417e-19)
(1.07094 0.253575 1.55965e-19)
(1.02859 0.236967 -2.63693e-19)
(1.00259 0.220754 1.2361e-19)
(0.984435 0.205185 -8.0173e-20)
(0.964563 0.188418 1.80676e-19)
(0.890727 0.165766 0)
(0.722768 0.124779 -6.59172e-20)
(0.45134 0.0740404 0)
(0.190647 0.0291323 3.62509e-19)
(0.0304812 0.00512175 -8.59506e-19)
(-0.0209553 -0.00297963 5.38437e-19)
(0.521452 0.107934 1.55508e-19)
(1.06324 0.216522 -6.85702e-20)
(1.28318 0.277868 -1.47684e-20)
(1.34067 0.300495 0)
(1.33099 0.314127 -8.562e-20)
(1.28631 0.320917 1.05713e-19)
(1.22703 0.319667 -7.17693e-20)
(1.17098 0.315876 0)
(1.1151 0.307964 1.24615e-19)
(1.06135 0.293613 -1.0955e-19)
(1.01647 0.274454 2.28223e-19)
(0.984623 0.255348 0)
(0.96294 0.237215 -1.70313e-19)
(0.929627 0.216041 9.59437e-20)
(0.858095 0.187285 2.41777e-19)
(0.692144 0.143952 -2.12733e-19)
(0.433953 0.0856657 3.36558e-19)
(0.188013 0.0347887 -7.44044e-19)
(0.0326424 0.00592024 4.71091e-19)
(-0.0204487 -0.00422057 -5.89325e-19)
(0.509234 0.131978 -5.03207e-20)
(1.06922 0.269592 3.58229e-20)
(1.29346 0.343133 -4.9214e-20)
(1.34969 0.366013 9.97158e-20)
(1.33669 0.377516 -9.51337e-20)
(1.28836 0.379268 3.32368e-20)
(1.22569 0.373326 3.70392e-21)
(1.16603 0.365189 -1.40534e-19)
(1.10589 0.352644 -1.30482e-19)
(1.04627 0.333712 -2.35215e-19)
(0.995266 0.310463 -4.90853e-19)
(0.96117 0.288099 -1.51416e-19)
(0.9381 0.267019 2.23389e-21)
(0.911529 0.246403 -3.28849e-19)
(0.83378 0.216616 -5.42907e-21)
(0.66992 0.163727 3.0968e-19)
(0.425706 0.0987208 -9.31657e-20)
(0.193257 0.0430197 -5.39281e-20)
(0.0413551 0.00818288 0)
(-0.0166782 -0.00439744 1.25323e-18)
(0.493406 0.152996 0)
(1.06572 0.32017 -1.86577e-21)
(1.29625 0.406853 -7.57272e-21)
(1.35187 0.430145 -1.28802e-20)
(1.33639 0.440484 9.13868e-20)
(1.28571 0.437812 -7.77928e-20)
(1.22034 0.427372 7.81961e-20)
(1.15712 0.414808 2.30865e-19)
(1.09295 0.398237 -7.27277e-20)
(1.02971 0.375484 1.16104e-19)
(0.976687 0.348497 2.63918e-19)
(0.941156 0.322873 3.30154e-19)
(0.914541 0.299922 -1.98964e-19)
(0.876935 0.274828 3.56204e-19)
(0.804333 0.239059 -2.82335e-19)
(0.650414 0.187015 0)
(0.421796 0.115812 -7.07402e-19)
(0.20401 0.0540851 9.52117e-19)
(0.054402 0.0134471 7.10693e-20)
(-0.0106243 -0.00350934 -1.32596e-18)
(0.477916 0.17274 -5.08453e-21)
(1.05591 0.367164 -9.46887e-21)
(1.29274 0.467064 5.48848e-20)
(1.34917 0.491963 -7.77068e-20)
(1.33177 0.501286 7.65252e-20)
(1.27916 0.494593 -7.50246e-20)
(1.21156 0.48036 1.54678e-19)
(1.14586 0.463958 -6.90458e-20)
(1.07885 0.442962 -2.93184e-19)
(1.0128 0.415368 -1.52957e-22)
(0.956892 0.384771 -2.8706e-19)
(0.915988 0.355367 -3.55517e-19)
(0.887747 0.330423 2.19884e-19)
(0.859078 0.30547 -1.28173e-19)
(0.782542 0.270583 3.07233e-19)
(0.63403 0.207911 0)
(0.418588 0.133853 -4.39782e-19)
(0.212995 0.0660491 6.49559e-19)
(0.066176 0.0198903 1.22873e-18)
(-0.00455242 -0.00194052 -1.44497e-18)
(0.464225 0.190628 -7.92663e-20)
(1.04498 0.412602 3.40671e-20)
(1.28616 0.525084 -3.40368e-20)
(1.34242 0.55112 8.01345e-20)
(1.32325 0.55994 1.21202e-20)
(1.26928 0.549887 -1.46833e-19)
(1.2001 0.532066 -8.99947e-20)
(1.13237 0.51173 -8.87319e-20)
(1.06304 0.486943 -1.65655e-19)
(0.994339 0.455874 2.66601e-19)
(0.934007 0.421146 2.89903e-19)
(0.893189 0.388942 5.64117e-19)
(0.864258 0.362496 0)
(0.824376 0.333514 6.51785e-21)
(0.755837 0.291954 -8.44967e-19)
(0.616822 0.232496 1.98059e-19)
(0.415339 0.152043 9.5389e-19)
(0.220927 0.0791958 -2.81516e-19)
(0.0771454 0.0273242 5.84432e-19)
(0.00142699 0.000202257 -4.87057e-20)
(0.453348 0.208205 5.83118e-21)
(1.03173 0.454246 5.38404e-20)
(1.27619 0.579451 -1.15383e-20)
(1.33298 0.607639 8.27118e-20)
(1.3125 0.61576 -1.47354e-19)
(1.25748 0.602422 1.45449e-19)
(1.18709 0.581498 9.31229e-20)
(1.11796 0.557997 2.64743e-19)
(1.04651 0.529621 3.3222e-19)
(0.974812 0.494805 -3.08469e-19)
(0.912784 0.456306 0)
(0.868602 0.422147 -2.13677e-19)
(0.836616 0.39125 2.45326e-19)
(0.80658 0.362416 3.10033e-19)
(0.735009 0.323113 -1.79372e-19)
(0.600614 0.252827 -4.36817e-19)
(0.410227 0.170201 -1.30226e-19)
(0.22607 0.0921758 -1.92668e-21)
(0.0854785 0.034804 0)
(0.00626016 0.00240524 0)
(0.445353 0.224454 -7.93803e-20)
(1.02054 0.495252 0)
(1.26535 0.631684 3.44119e-21)
(1.32146 0.6613 -1.4358e-20)
(1.29976 0.668811 1.68612e-19)
(1.24391 0.652801 -4.25924e-20)
(1.17252 0.629084 9.45881e-20)
(1.10194 0.602369 -1.7899e-19)
(1.02856 0.570979 2.51985e-19)
(0.955055 0.532981 -1.01798e-19)
(0.890569 0.490345 1.66302e-19)
(0.845292 0.452409 6.78116e-19)
(0.81354 0.420892 1.43637e-20)
(0.773126 0.388344 -3.23493e-19)
(0.708492 0.341801 5.99449e-19)
(0.581956 0.27653 3.80967e-21)
(0.403362 0.187 1.39322e-19)
(0.227513 0.104744 -6.64273e-19)
(0.090353 0.0413506 6.84646e-19)
(0.0097129 0.00438146 -8.06588e-19)
(0.438073 0.241704 2.78858e-23)
(1.00759 0.53224 0)
(1.25266 0.679956 0)
(1.30863 0.712206 -3.2653e-23)
(1.28604 0.719066 -4.92794e-20)
(1.22951 0.700341 6.76496e-20)
(1.15731 0.674093 -1.75458e-19)
(1.0857 0.644881 0)
(1.01066 0.610641 -3.71752e-19)
(0.934458 0.56942 4.47111e-19)
(0.867814 0.523937 4.75008e-19)
(0.819398 0.483704 -2.48973e-19)
(0.786048 0.447325 -3.01719e-19)
(0.755907 0.413295 7.07686e-19)
(0.68721 0.370601 -2.13105e-19)
(0.563727 0.293114 -2.54213e-19)
(0.39251 0.202393 -1.52062e-19)
(0.224797 0.114619 -7.17516e-19)
(0.0916146 0.0466315 1.05201e-19)
(0.0117644 0.00578072 8.72805e-19)
(0.433608 0.259592 -3.88373e-20)
(0.997488 0.569367 -5.17975e-20)
(1.24006 0.72631 2.3651e-20)
(1.29486 0.760124 -1.95747e-22)
(1.27138 0.766342 -5.27864e-20)
(1.21421 0.745511 1.07961e-19)
(1.14125 0.717127 0)
(1.06855 0.685393 1.08444e-19)
(0.992112 0.648935 -8.55083e-20)
(0.914514 0.605236 7.46259e-19)
(0.845681 0.556071 -1.07606e-19)
(0.796663 0.511013 1.23365e-19)
(0.763279 0.474454 0)
(0.722299 0.437421 -3.83301e-19)
(0.660618 0.384122 4.64623e-19)
(0.543326 0.313011 0)
(0.381236 0.215239 -3.27495e-19)
(0.219827 0.123251 9.63858e-19)
(0.0899158 0.0502639 1.14245e-19)
(0.0123512 0.00662028 -1.07498e-18)
(0.430611 0.276624 -9.75026e-20)
(0.986318 0.602645 1.24595e-19)
(1.22644 0.768853 0)
(1.2806 0.805279 1.95782e-20)
(1.25641 0.811077 0)
(1.1987 0.788057 -1.41139e-19)
(1.12526 0.757596 0)
(1.05202 0.723919 0)
(0.974415 0.685321 -1.13618e-19)
(0.894154 0.638915 -7.09482e-19)
(0.822303 0.587336 -8.78259e-19)
(0.770552 0.539681 1.44524e-19)
(0.735024 0.497865 5.21909e-19)
(0.704579 0.457855 4.22482e-19)
(0.638838 0.409303 -1.49095e-18)
(0.523521 0.323532 -5.96997e-19)
(0.367045 0.225926 3.49871e-19)
(0.211972 0.129247 0)
(0.0868002 0.0520921 9.78953e-19)
(0.0118877 0.00708069 -1.15819e-18)
(0.428934 0.292225 1.16169e-19)
(0.977598 0.636173 -1.44516e-19)
(1.2135 0.809852 0)
(1.26612 0.847572 -1.12286e-20)
(1.2412 0.852808 -2.15886e-21)
(1.18305 0.82819 0)
(1.10922 0.796121 5.41456e-20)
(1.0352 0.760516 7.54805e-20)
(0.956215 0.720353 -2.1342e-19)
(0.874396 0.67236 9.39169e-20)
(0.800275 0.617924 0)
(0.747559 0.565516 5.98747e-19)
(0.711413 0.522832 5.65044e-21)
(0.67062 0.478768 2.27982e-19)
(0.611788 0.416595 2.70659e-19)
(0.502475 0.338151 0)
(0.353571 0.232991 -5.70414e-19)
(0.203071 0.132877 1.11779e-18)
(0.0824126 0.0528764 -1.18425e-18)
(0.0109457 0.00708664 2.4943e-18)
(0.427482 0.307157 0)
(0.967581 0.665952 0)
(1.20011 0.84716 -7.09379e-20)
(1.25173 0.887298 0)
(1.2262 0.892342 0)
(1.16769 0.866 -1.14886e-19)
(1.09361 0.832262 5.53837e-20)
(1.0192 0.79517 1.77565e-20)
(0.939103 0.753421 -4.86755e-20)
(0.854844 0.703344 0)
(0.777425 0.646547 -1.33993e-19)
(0.720713 0.592469 -4.88448e-19)
(0.682167 0.543966 -5.88651e-19)
(0.651291 0.494055 -2.36895e-19)
(0.589068 0.436939 2.93112e-19)
(0.481938 0.34149 -6.90655e-19)
(0.33852 0.237497 1.22766e-18)
(0.194121 0.133793 1.76978e-21)
(0.0779893 0.0528365 -1.13294e-18)
(0.0100205 0.00701656 -1.68213e-19)
(0.42645 0.321541 0)
(0.959875 0.696505 -1.17525e-19)
(1.18776 0.883339 8.64759e-20)
(1.23757 0.924451 0)
(1.21141 0.928955 0)
(1.1526 0.901419 2.293e-19)
(1.07831 0.866543 0)
(1.00323 0.828038 0)
(0.921869 0.785209 -4.6835e-19)
(0.83613 0.734336 1.30273e-19)
(0.755965 0.675986 -1.18799e-18)
(0.697304 0.618075 0)
(0.657444 0.566993 -6.40115e-19)
(0.615169 0.511888 1.04445e-20)
(0.559903 0.435982 -9.43099e-19)
(0.460176 0.348779 3.71488e-19)
(0.325934 0.236803 1.32919e-21)
(0.187436 0.131296 -1.28244e-18)
(0.0751069 0.0511108 6.09622e-19)
(0.00799206 0.00517478 1.7993e-19)
(0.425327 0.335684 0)
(0.951044 0.723434 -1.61265e-19)
(1.17519 0.91605 9.12082e-20)
(1.22378 0.959295 1.23171e-19)
(1.19706 0.963743 -8.88083e-21)
(1.13798 0.934841 2.27924e-20)
(1.06356 0.898643 -3.21707e-20)
(0.988242 0.859052 4.45662e-19)
(0.905953 0.815139 5.01002e-19)
(0.817713 0.762859 9.91699e-19)
(0.733995 0.702614 9.87052e-19)
(0.670509 0.643253 1.73742e-19)
(0.625871 0.58612 9.20861e-19)
(0.593005 0.522334 5.69478e-19)
(0.534081 0.450659 6.76913e-19)
(0.438941 0.341153 -4.06519e-19)
(0.311264 0.229861 -4.69931e-19)
(0.185435 0.126369 5.50816e-19)
(0.0799795 0.0565439 -3.27721e-19)
(0.0141085 0.0133406 5.82807e-19)
(0.424533 0.349332 2.26242e-19)
(0.944413 0.7513 2.52679e-19)
(1.16372 0.948063 5.27196e-20)
(1.21039 0.991877 1.57843e-20)
(1.18312 0.995727 -5.2549e-21)
(1.12383 0.965918 -6.34007e-20)
(1.04936 0.928976 3.08301e-20)
(0.973551 0.888435 -1.95706e-20)
(0.890057 0.843833 -5.8335e-19)
(0.800372 0.79128 -1.07646e-18)
(0.714235 0.730743 6.85221e-20)
(0.647627 0.668997 0)
(0.600529 0.608661 0)
(0.55277 0.538892 -2.97026e-19)
(0.499501 0.440803 -1.10916e-18)
(0.414745 0.33728 8.75804e-19)
(0.30678 0.211061 5.14152e-19)
(0.195055 0.106722 0)
(0.0957369 0.0285715 1.04895e-18)
(0.00799546 -0.0126738 -6.21646e-19)
(0.423604 0.362523 -1.20019e-19)
(0.936592 0.775372 1.06062e-19)
(1.15202 0.976732 -1.26401e-19)
(1.19747 1.02237 -1.04475e-19)
(1.16972 1.02624 -1.77152e-20)
(1.11026 0.995338 -2.02557e-20)
(1.03579 0.957355 0)
(0.959838 0.916063 -5.60219e-19)
(0.875547 0.870764 7.09374e-20)
(0.783565 0.817462 0)
(0.693872 0.756201 0)
(0.621398 0.693483 1.11194e-19)
(0.56647 0.627116 1.49659e-19)
(0.526123 0.546305 -3.21126e-19)
(0.466959 0.452356 7.9612e-19)
(0.384824 0.314299 -9.5448e-19)
(0.285849 0.186603 -1.10188e-18)
(0.211808 0.0921915 9.76333e-19)
(0.159628 0.0770378 -3.72981e-19)
(0.111892 0.0772578 2.16997e-19)
(0.4229 0.374859 1.49866e-19)
(0.930715 0.800471 0)
(1.14139 1.00503 0)
(1.18501 1.05087 -2.90555e-20)
(1.15683 1.05407 2.35226e-20)
(1.09728 1.02247 -2.01818e-20)
(1.0229 0.984066 1.3931e-19)
(0.946581 0.942207 5.73235e-19)
(0.861247 0.896574 1.05865e-18)
(0.768132 0.843429 -8.12273e-20)
(0.6763 0.782838 1.68165e-19)
(0.599958 0.719147 -9.95024e-19)
(0.541599 0.651185 -9.93665e-19)
(0.480341 0.565569 -1.72583e-19)
(0.418194 0.436465 0)
(0.346834 0.307217 -5.50134e-21)
(0.264451 0.114804 6.08029e-19)
(0.250135 -0.0106655 -1.02143e-18)
(0.215578 -0.101492 7.76285e-19)
(0.0872 -0.0980029 6.42749e-19)
(0.421836 0.386893 -3.30834e-19)
(0.923464 0.821697 -1.4908e-19)
(1.13043 1.03015 6.93842e-21)
(1.17295 1.07769 5.91774e-20)
(1.14436 1.08107 0)
(1.0847 1.04867 -5.76991e-20)
(1.01036 1.00952 -2.015e-19)
(0.933955 0.96728 -2.06001e-21)
(0.848019 0.921411 -5.54655e-19)
(0.752722 0.868118 -7.97512e-20)
(0.656968 0.807971 7.4076e-20)
(0.574638 0.745023 8.74233e-19)
(0.504367 0.672031 9.69405e-19)
(0.447864 0.573241 1.68383e-19)
(0.377452 0.456127 8.60114e-19)
(0.281697 0.274213 0)
(0.155735 0.098898 0)
(-0.00536835 0.186921 6.99895e-19)
(-0.0786119 0.630122 -2.81051e-20)
(0.00868711 1.54146 -8.66158e-19)
(0.421102 0.398157 1.82659e-19)
(0.918142 0.844464 4.19621e-19)
(1.12052 1.05553 -5.78412e-19)
(1.16126 1.10314 2.92657e-19)
(1.13224 1.10599 -9.33445e-21)
(1.07249 1.07326 -9.01183e-21)
(0.998245 1.0342 0)
(0.92149 0.991994 -4.7744e-19)
(0.834544 0.946453 0)
(0.738156 0.894071 1.12166e-18)
(0.640361 0.83565 -9.05401e-20)
(0.553594 0.773389 1.01523e-19)
(0.480077 0.702657 1.11381e-18)
(0.393315 0.607347 -3.65793e-19)
(0.285692 0.443948 -4.37007e-19)
(0.188403 0.32607 0)
(0.0796118 0.477144 0)
(0.0250555 1.34882 0)
(0.0715246 2.46931 -3.97365e-19)
(0.0984671 2.91361 -2.45142e-19)
(0.419686 0.408933 0)
(0.911334 0.863121 0)
(1.11023 1.07771 2.1079e-19)
(1.15 1.12712 -2.37996e-19)
(1.12056 1.13048 1.08447e-19)
(1.06068 1.09736 1.7175e-20)
(0.986449 1.05798 2.62422e-20)
(0.909645 1.01591 -2.04313e-20)
(0.822268 0.970822 7.85383e-20)
(0.723816 0.919206 -1.28729e-18)
(0.621759 0.862568 1.63946e-19)
(0.529067 0.803741 8.76621e-19)
(0.439259 0.731259 -1.10923e-18)
(0.356695 0.617321 -1.2232e-18)
(0.265698 0.502462 4.11198e-19)
(0.184008 0.643639 0)
(0.116723 1.57575 5.6353e-19)
(0.12003 2.69808 6.12047e-19)
(0.127786 3.08954 -6.83993e-19)
(0.120126 3.22296 7.30873e-19)
(0.418702 0.419438 0)
(0.90652 0.883644 3.69232e-19)
(1.10107 1.10048 -5.28373e-20)
(1.13917 1.14987 3.3145e-19)
(1.1093 1.15281 -1.13832e-19)
(1.04935 1.11966 0)
(0.975262 1.08079 0)
(0.898185 1.03929 0)
(0.809928 0.995151 4.40553e-19)
(0.71064 0.945288 5.92475e-20)
(0.606959 0.891349 0)
(0.509741 0.833982 -8.71385e-19)
(0.422896 0.766722 0)
(0.303015 0.663947 8.75105e-19)
(0.202083 0.717974 -5.92014e-19)
(0.148635 1.46441 -4.75169e-19)
(0.152036 2.68508 -1.10028e-18)
(0.174802 3.12638 -5.78956e-19)
(0.165556 3.2661 -7.81508e-19)
(0.152251 3.30631 5.76973e-19)
(0.417139 0.428888 -1.28804e-19)
(0.900092 0.899758 1.50939e-20)
(1.09147 1.11992 -5.87074e-20)
(1.12881 1.17124 -2.56614e-19)
(1.09851 1.175 0)
(1.03845 1.14181 0)
(0.96436 1.10291 0)
(0.8873 1.0619 3.35421e-20)
(0.798848 1.01877 -5.57091e-19)
(0.697828 0.9705 0)
(0.590239 0.919395 0)
(0.489853 0.86788 0)
(0.379145 0.796371 0)
(0.308383 0.755867 6.41217e-19)
(0.267915 1.14945 1.57516e-18)
(0.2422 2.39441 4.64016e-19)
(0.258034 3.08224 9.31163e-19)
(0.252618 3.28038 -7.13536e-19)
(0.204217 3.34586 2.6213e-19)
(0.172227 3.35884 0)
(0.415992 0.438201 1.32493e-19)
(0.895611 0.918757 -8.18862e-19)
(1.08285 1.14098 -2.20521e-19)
(1.11861 1.19217 -4.8725e-20)
(1.08793 1.19555 2.64556e-20)
(1.02783 1.16252 -9.96961e-20)
(0.95396 1.12446 -1.65987e-21)
(0.876737 1.0844 -3.69861e-19)
(0.787568 1.04268 0)
(0.686142 0.996879 -7.55671e-20)
(0.5781 0.949385 6.87434e-20)
(0.473378 0.898413 0)
(0.380498 0.842416 0)
(0.320878 0.945773 -8.031e-19)
(0.268679 1.85368 9.99323e-20)
(0.26518 2.94449 -3.48765e-19)
(0.289221 3.28393 7.29042e-19)
(0.260929 3.38218 5.25023e-19)
(0.196086 3.40666 -7.11727e-19)
(0.171569 3.4166 3.51844e-19)
(0.413937 0.447767 2.59914e-19)
(0.888582 0.93409 7.97628e-19)
(1.07279 1.1599 2.65088e-19)
(1.10804 1.21331 0)
(1.077 1.21776 0)
(1.0169 1.18477 7.74736e-20)
(0.943117 1.14667 5.97167e-20)
(0.866106 1.10716 3.29514e-19)
(0.777133 1.06664 2.16502e-20)
(0.674575 1.0229 9.64085e-19)
(0.563738 0.978736 -1.14476e-18)
(0.453058 0.931004 0)
(0.376004 0.915775 0)
(0.333743 1.31775 -5.47385e-19)
(0.33122 2.4934 -6.58013e-19)
(0.375185 3.19585 0)
(0.399933 3.36501 -7.374e-19)
(0.329516 3.42775 4.97131e-20)
(0.260902 3.47299 3.43164e-19)
(0.238682 3.49836 -1.1252e-19)
(0.412157 0.457645 -4.94125e-19)
(0.883416 0.955142 -3.82856e-19)
(1.06304 1.18298 0)
(1.09664 1.23571 0)
(1.06532 1.23943 0)
(1.00537 1.20644 0)
(0.932084 1.16919 -7.12961e-20)
(0.855192 1.13067 2.87646e-19)
(0.765826 1.09163 0)
(0.663687 1.05067 -8.77643e-19)
(0.554165 1.01032 2.05371e-18)
(0.445288 0.971966 8.40639e-20)
(0.395587 1.0418 1.12893e-19)
(0.385609 1.7462 8.91938e-19)
(0.39714 2.90182 -4.7999e-19)
(0.436393 3.31619 0)
(0.419645 3.43814 2.07058e-19)
(0.334034 3.52693 9.12865e-20)
(0.259734 3.59076 1.48625e-19)
(0.18433 3.57022 -1.3615e-20)
(0.409147 0.468085 2.34859e-19)
(0.874497 0.971375 -3.90605e-19)
(1.05103 1.20337 0)
(1.08441 1.25865 -7.13846e-20)
(1.05286 1.26363 2.45891e-19)
(0.993077 1.2305 0)
(0.920107 1.19287 0)
(0.84379 1.15463 -4.98685e-19)
(0.755254 1.11666 -5.60389e-20)
(0.652915 1.07772 8.60236e-19)
(0.538626 1.03994 -9.75729e-19)
(0.44814 1.01985 5.71837e-19)
(0.409403 1.22335 0)
(0.420263 2.18692 -4.72876e-19)
(0.463097 3.14412 3.10216e-19)
(0.527467 3.4187 1.94807e-19)