/*--------------------------------*- C++ -*----------------------------------*\
| =========                 |                                                 |
| \\      /  F ield         | OpenFOAM: The Open Source CFD Toolbox           |
|  \\    /   O peration     | Version:  4.0                                   |
|   \\  /    A nd           | Web:      www.OpenFOAM.org                      |
|    \\/     M anipulation  |                                                 |
\*---------------------------------------------------------------------------*/
FoamFile
{
    version     2.0;
    format      ascii;
    class       volVectorField;
    location    "34";
    object      U;
}
// * * * * * * * * * * * * * * * * * * * * * * * * * * * * * * * * * * * * * //

dimensions      [0 1 -1 0 0 0 0];

internalField   nonuniform List<vector> 
8800
(
(0.980155 -0.0915211 0)
(1.00234 -0.0587222 0)
(0.99961 -0.032123 0)
(0.999998 -0.0165132 0)
(1.00005 -0.00882604 0)
(1.00002 -0.00507475 0)
(0.999994 -0.00298227 0)
(0.999976 -0.00169587 0)
(0.999971 -0.000813318 0)
(1.00006 -0.00012339 0)
(0.99998 0.000577273 0)
(0.999999 0.00133313 0)
(1.00001 0.00236709 0)
(1.00002 0.0039775 0)
(1.00003 0.00672629 0)
(1.00002 0.0120341 0)
(0.999852 0.0230881 0)
(0.999059 0.043155 0)
(1.00723 0.0790277 0)
(0.775024 0.0478396 0)
(0.358975 -0.0147491 0)
(1.04649 -0.0724946 0)
(1.08849 -0.0660319 0)
(1.04946 -0.0509254 0)
(1.02553 -0.0377044 0)
(1.01268 -0.0258946 0)
(1.0065 -0.0167076 0)
(1.00356 -0.0102511 0)
(1.00213 -0.00565068 0)
(1.00148 -0.00207451 0)
(1.00136 0.00111576 0)
(1.00173 0.00441957 0)
(1.00271 0.00832077 0)
(1.00473 0.0136513 0)
(1.00897 0.0213439 0)
(1.01796 0.0318449 0)
(1.03583 0.0446296 0)
(1.06746 0.0580855 0)
(1.09472 0.0699596 0)
(0.845676 0.055501 0)
(0.217755 -0.00138172 0)
(1.07567 -0.0506695 0)
(1.09942 -0.0489562 0)
(1.06438 -0.0400404 0)
(1.03985 -0.0325782 0)
(1.02372 -0.0253678 0)
(1.01394 -0.0181831 0)
(1.00845 -0.0116052 0)
(1.0056 -0.00587861 0)
(1.00445 -0.000615197 0)
(1.00478 0.00447165 0)
(1.00664 0.00975077 0)
(1.01057 0.0157431 0)
(1.01788 0.0225256 0)
(1.03051 0.029646 0)
(1.05051 0.0367487 0)
(1.0801 0.0445437 0)
(1.10573 0.0518866 0)
(0.943379 0.0409862 0)
(0.217264 0.00140206 0)
(0.176596 -0.000629287 0)
(1.01935 -0.0354809 0)
(1.10569 -0.0414387 0)
(1.07795 -0.0364325 0)
(1.05237 -0.0303948 0)
(1.03511 -0.0245314 0)
(1.02328 -0.0187774 0)
(1.01548 -0.0128265 0)
(1.01089 -0.00676648 0)
(1.00887 -0.000565278 0)
(1.00943 0.00556286 0)
(1.01253 0.0114652 0)
(1.01849 0.0172571 0)
(1.02807 0.0228742 0)
(1.04229 0.0284544 0)
(1.06313 0.0342494 0)
(1.09394 0.0401493 0)
(1.09456 0.0416987 0)
(0.830452 0.0227406 0)
(0.175759 0.000645545 0)
(0.15467 -0.000463033 0)
(0.958076 -0.0257067 0)
(1.10435 -0.0351452 0)
(1.08801 -0.0327019 0)
(1.06113 -0.0281951 0)
(1.04307 -0.0232501 0)
(1.03071 -0.0180166 0)
(1.02213 -0.0125474 0)
(1.0166 -0.00669367 0)
(1.01399 -0.000289873 0)
(1.01466 0.00613451 0)
(1.01848 0.011984 0)
(1.02527 0.0173069 0)
(1.0354 0.0223439 0)
(1.05018 0.0272067 0)
(1.07211 0.0316805 0)
(1.10114 0.035591 0)
(1.06995 0.033846 0)
(0.743013 0.0143995 0)
(0.153421 0.000481404 0)
(0.139971 -0.000334758 0)
(0.901007 -0.0193349 0)
(1.09671 -0.0302508 0)
(1.09612 -0.0293937 0)
(1.06879 -0.0256299 0)
(1.04992 -0.021584 0)
(1.03699 -0.0169649 0)
(1.02803 -0.0117848 0)
(1.02212 -0.0061321 0)
(1.01917 0.000144307 0)
(1.01985 0.0064549 0)
(1.0239 0.0120737 0)
(1.03094 0.0170815 0)
(1.04145 0.0216067 0)
(1.05689 0.0255997 0)
(1.0797 0.0291432 0)
(1.10354 0.0318835 0)
(1.0384 0.0279451 0)
(0.676528 0.0102296 0)
(0.138216 0.000356591 0)
(0.129226 -0.0002531 0)
(0.851099 -0.0149229 0)
(1.08429 -0.0261255 0)
(1.1017 -0.0264893 0)
(1.07551 -0.0231928 0)
(1.05615 -0.0195941 0)
(1.0428 -0.015516 0)
(1.03347 -0.0107653 0)
(1.02727 -0.00537553 0)
(1.02413 0.000693445 0)
(1.02472 0.00678141 0)
(1.02881 0.0121027 0)
(1.03604 0.0166594 0)
(1.04687 0.0205539 0)
(1.06268 0.0239511 0)
(1.08593 0.0270348 0)
(1.10289 0.0288988 0)
(1.00409 0.0233146 0)
(0.62496 0.00779693 0)
(0.126855 0.000279713 0)
(0.121043 -0.000194279 0)
(0.808609 -0.0117164 0)
(1.06892 -0.0225052 0)
(1.10516 -0.0238356 0)
(1.08166 -0.020986 0)
(1.06181 -0.0176285 0)
(1.04816 -0.0138614 0)
(1.03857 -0.00947006 0)
(1.03212 -0.00440047 0)
(1.02878 0.00136881 0)
(1.02924 0.00711823 0)
(1.03332 0.0120486 0)
(1.04063 0.0161298 0)
(1.0516 0.019562 0)
(1.06772 0.0225725 0)
(1.0914 0.025372 0)
(1.09951 0.0263637 0)
(0.969589 0.0196312 0)
(0.583859 0.00619151 0)
(0.117924 0.000226723 0)
(0.114713 -0.000149439 0)
(0.772867 -0.00929643 0)
(1.05199 -0.0192738 0)
(1.10734 -0.0213631 0)
(1.08736 -0.0189613 0)
(1.06711 -0.0158167 0)
(1.05321 -0.0122256 0)
(1.04343 -0.00804805 0)
(1.03675 -0.00327233 0)
(1.03315 0.00217516 0)
(1.03346 0.00756772 0)
(1.03749 0.0120819 0)
(1.04479 0.0157633 0)
(1.05581 0.0188389 0)
(1.07218 0.0215078 0)
(1.09559 0.0239433 0)
(1.09341 0.0241388 0)
(0.936312 0.016701 0)
(0.550298 0.00506229 0)
(0.110686 0.000188687 0)
(0.109797 -0.000114132 0)
(0.742993 -0.00740104 0)
(1.03465 -0.0163737 0)
(1.10854 -0.0189574 0)
(1.09268 -0.0168532 0)
(1.07213 -0.0138387 0)
(1.05797 -0.0104234 0)
(1.048 -0.00647324 0)
(1.04113 -0.00195633 0)
(1.03731 0.00316443 0)
(1.03739 0.00815925 0)
(1.04125 0.0122452 0)
(1.04846 0.0154778 0)
(1.05951 0.0181502 0)
(1.07612 0.0205252 0)
(1.09859 0.0226514 0)
(1.0851 0.0221651 0)
(0.904967 0.0143762 0)
(0.522291 0.00424174 0)
(0.104665 0.000161691 0)
(0.106005 -8.50367e-05 0)
(0.718215 -0.00584958 0)
(1.01775 -0.013731 0)
(1.10891 -0.0166461 0)
(1.09789 -0.0148815 0)
(1.077 -0.0119463 0)
(1.06251 -0.00861769 0)
(1.05236 -0.00478182 0)
(1.0453 -0.000450062 0)
(1.04122 0.00434422 0)
(1.04102 0.00891153 0)
(1.04464 0.0125869 0)
(1.05169 0.0154637 0)
(1.06274 0.0178056 0)
(1.07963 0.0198838 0)
(1.10035 0.0216207 0)
(1.07505 0.0204612 0)
(0.875809 0.012541 0)
(0.498467 0.0036378 0)
(0.099529 0.00014332 0)
(0.103157 -5.91624e-05 0)
(0.697977 -0.00451437 0)
(1.00194 -0.0112407 0)
(1.10844 -0.0142663 0)
(1.10272 -0.0127933 0)
(1.08172 -0.00994695 0)
(1.06693 -0.00666175 0)
(1.05651 -0.00291405 0)
(1.04914 0.00123893 0)
(1.04471 0.00576351 0)
(1.04416 0.00997603 0)
(1.04753 0.0132236 0)
(1.05446 0.0157033 0)
(1.06556 0.0177127 0)
(1.08264 0.0194154 0)
(1.10104 0.020714 0)
(1.06356 0.0189128 0)
(0.84886 0.0110584 0)
(0.477861 0.0031809 0)
(0.0950354 0.000130417 0)
(0.101144 -3.52882e-05 0)
(0.681902 -0.00331496 0)
(0.987844 -0.00885864 0)
(1.10749 -0.01175 0)
(1.10722 -0.0104032 0)
(1.08639 -0.00756596 0)
(1.07126 -0.00434532 0)
(1.06053 -0.000724828 0)
(1.05286 0.00325504 0)
(1.04804 0.00750185 0)
(1.04704 0.0112973 0)
(1.05006 0.0140748 0)
(1.0568 0.0160514 0)
(1.06789 0.0175921 0)
(1.08504 0.0189919 0)
(1.10083 0.0199444 0)
(1.05107 0.0175666 0)
(0.824027 0.00988325 0)
(0.459753 0.00284309 0)
(0.0910103 0.000123357 0)
(0.0999091 -1.21919e-05 0)
(0.669745 -0.00217264 0)
(0.97582 -0.00650012 0)
(1.10643 -0.00913178 0)
(1.11159 -0.00791151 0)
(1.09101 -0.00513182 0)
(1.07549 -0.00189756 0)
(1.06445 0.00173049 0)
(1.05637 0.00562204 0)
(1.05102 0.00961533 0)
(1.04952 0.0129981 0)
(1.05213 0.0153238 0)
(1.05858 0.0168821 0)
(1.06962 0.0180048 0)
(1.08699 0.018976 0)
(1.09959 0.0193966 0)
(1.03784 0.0164526 0)
(0.80111 0.00894841 0)
(0.443604 0.00259784 0)
(0.0873103 0.000120773 0)
(0.0994462 1.22255e-05 0)
(0.661433 -0.00105864 0)
(0.966225 -0.00410164 0)
(1.10533 -0.00627513 0)
(1.11568 -0.00519471 0)
(1.09566 -0.00245787 0)
(1.07982 0.000895504 0)
(1.06838 0.00457457 0)
(1.05985 0.00840976 0)
(1.0539 0.0122003 0)
(1.05172 0.0151988 0)
(1.05376 0.0170002 0)
(1.05988 0.0180384 0)
(1.07079 0.0186652 0)
(1.08798 0.0191597 0)
(1.09717 0.0190782 0)
(1.02384 0.01548 0)
(0.779914 0.00822058 0)
(0.428967 0.00242922 0)
(0.0838045 0.000121838 0)
(0.0997762 4.84736e-05 0)
(0.65702 9.74994e-05 0)
(0.959549 -0.00157553 0)
(1.10474 -0.00303674 0)
(1.11968 -0.00182606 0)
(1.10033 0.000966638 0)
(1.08412 0.00435502 0)
(1.07217 0.00801992 0)
(1.06298 0.0117889 0)
(1.05622 0.0153704 0)
(1.05324 0.0179519 0)
(1.05469 0.019185 0)
(1.06042 0.0195656 0)
(1.07119 0.0195889 0)
(1.08808 0.0195803 0)
(1.09337 0.0188573 0)
(1.00949 0.0147635 0)
(0.76022 0.00770792 0)
(0.415454 0.00233433 0)
(0.080403 0.000126194 0)
(0.101046 7.0101e-05 0)
(0.656667 0.00131411 0)
(0.955956 0.00101142 0)
(1.10514 0.000344988 0)
(1.12404 0.00173061 0)
(1.10518 0.00463912 0)
(1.08857 0.00816271 0)
(1.07618 0.0119577 0)
(1.06638 0.015809 0)
(1.05876 0.0192605 0)
(1.05475 0.0214155 0)
(1.05525 0.0221181 0)
(1.0603 0.0218781 0)
(1.07079 0.0212626 0)
(1.08728 0.0205583 0)
(1.0884 0.0192077 0)
(0.994602 0.0144267 0)
(0.741586 0.00744151 0)
(0.402651 0.0023174 0)
(0.0770077 0.000131381 0)
(0.103271 0.000110948 0)
(0.660171 0.00257098 0)
(0.955734 0.00375114 0)
(1.10659 0.00397231 0)
(1.12859 0.00552235 0)
(1.11023 0.00863071 0)
(1.09319 0.0124966 0)
(1.08017 0.0166335 0)
(1.06945 0.0206794 0)
(1.06062 0.0240599 0)
(1.0554 0.0258031 0)
(1.05492 0.0258578 0)
(1.05928 0.0249708 0)
(1.06932 0.0237351 0)
(1.08524 0.0223376 0)
(1.08179 0.0200765 0)
(0.978925 0.0145485 0)
(0.723537 0.00754554 0)
(0.389994 0.00241841 0)
(0.073529 0.000137519 0)
(0.106635 0.000161906 0)
(0.668038 0.00389506 0)
(0.959053 0.00648708 0)
(1.10957 0.00799389 0)
(1.13357 0.0100176 0)
(1.11582 0.0135426 0)
(1.09845 0.0178869 0)
(1.08467 0.0224421 0)
(1.07286 0.0266946 0)
(1.0626 0.0299633 0)
(1.05581 0.0312067 0)
(1.05406 0.0305817 0)
(1.05746 0.0289135 0)
(1.06686 0.0269572 0)
(1.08181 0.0248446 0)
(1.07349 0.0215929 0)
(0.962513 0.0154491 0)
(0.705293 0.00817423 0)
(0.376652 0.00268424 0)
(0.0698009 0.000149056 0)
(0.111256 0.000220828 0)
(0.680153 0.00532962 0)
(0.966384 0.00944177 0)
(1.11492 0.0123208 0)
(1.13965 0.0152186 0)
(1.12222 0.0194783 0)
(1.10428 0.0244076 0)
(1.08945 0.0294341 0)
(1.0762 0.033992 0)
(1.06417 0.0372205 0)
(1.05553 0.0379359 0)
(1.05233 0.0364939 0)
(1.05465 0.0339645 0)
(1.06335 0.0311972 0)
(1.07685 0.028331 0)
(1.06374 0.024248 0)
(0.944897 0.0173069 0)
(0.685677 0.00935934 0)
(0.361629 0.00311991 0)
(0.0655779 0.00017047 0)
(0.117336 0.000296076 0)
(0.696771 0.00708089 0)
(0.97801 0.0128959 0)
(1.12311 0.0171657 0)
(1.14748 0.0210414 0)
(1.12974 0.0262551 0)
(1.11086 0.0320044 0)
(1.09474 0.0377815 0)
(1.07976 0.0428739 0)
(1.06551 0.0461404 0)
(1.05467 0.0463245 0)
(1.04967 0.0439819 0)
(1.05069 0.0405053 0)
(1.05866 0.0368506 0)
(1.07055 0.0332363 0)
(1.05223 0.0281106 0)
(0.925228 0.0200433 0)
(0.663484 0.0109965 0)
(0.344091 0.00367871 0)
(0.0606631 0.000197804 0)
(0.125332 0.000404472 0)
(0.718701 0.00944632 0)
(0.994267 0.0172929 0)
(1.13423 0.0230971 0)
(1.15719 0.0279783 0)
(1.13874 0.034339 0)
(1.11869 0.041258 0)
(1.1009 0.0480824 0)
(1.08367 0.0538347 0)
(1.06666 0.0571191 0)
(1.05316 0.056633 0)
(1.04605 0.053292 0)
(1.04562 0.0487276 0)
(1.05265 0.0441418 0)
(1.06271 0.039568 0)
(1.03838 0.0330214 0)
(0.902754 0.0235374 0)
(0.637666 0.0129848 0)
(0.323416 0.00431257 0)
(0.0549055 0.00022913 0)
(0.136016 0.000571357 0)
(0.747263 0.0128327 0)
(1.01625 0.0232128 0)
(1.14899 0.0309792 0)
(1.16923 0.0373315 0)
(1.14969 0.045202 0)
(1.12804 0.0535575 0)
(1.10789 0.0614642 0)
(1.08768 0.0676382 0)
(1.06731 0.0705268 0)
(1.05074 0.0689058 0)
(1.0413 0.0642357 0)
(1.03912 0.0584619 0)
(1.04507 0.0526759 0)
(1.0528 0.0469854 0)
(1.02167 0.03893 0)
(0.876706 0.0277939 0)
(0.607244 0.0152219 0)
(0.299265 0.00498337 0)
(0.0482843 0.000257688 0)
(0.150667 0.000841744 0)
(0.784481 0.0178811 0)
(1.04592 0.0314778 0)
(1.16875 0.0418324 0)
(1.18472 0.0505646 0)
(1.16302 0.060247 0)
(1.13893 0.0701195 0)
(1.11547 0.0788235 0)
(1.09144 0.0849107 0)
(1.06707 0.0867596 0)
(1.04699 0.0833355 0)
(1.03508 0.0767307 0)
(1.03124 0.069351 0)
(1.0357 0.062412 0)
(1.04081 0.0554774 0)
(1.00194 0.0462108 0)
(0.845841 0.0328731 0)
(0.571415 0.0176939 0)
(0.27141 0.00568759 0)
(0.0408246 0.000282179 0)
(0.171443 0.00130856 0)
(0.833438 0.0257187 0)
(1.08563 0.0435025 0)
(1.19493 0.0570538 0)
(1.20461 0.0686637 0)
(1.17897 0.0805134 0)
(1.15099 0.0916704 0)
(1.12305 0.100641 0)
(1.09439 0.106041 0)
(1.06544 0.106291 0)
(1.04147 0.10073 0)
(1.0269 0.0919621 0)
(1.02146 0.082584 0)
(1.02481 0.0741339 0)
(1.02681 0.066247 0)
(0.977994 0.0551844 0)
(0.808445 0.0385868 0)
(0.529801 0.0204165 0)
(0.239793 0.00641275 0)
(0.0326235 0.000299224 0)
(0.201641 0.00234659 0)
(0.899712 0.0390676 0)
(1.1379 0.063035 0)
(1.22759 0.079719 0)
(1.22881 0.0942539 0)
(1.19698 0.107625 0)
(1.16343 0.119043 0)
(1.13002 0.12736 0)
(1.09612 0.131362 0)
(1.06224 0.129554 0)
(1.03424 0.121749 0)
(1.01682 0.110976 0)
(1.00963 0.0998385 0)
(1.01196 0.0897348 0)
(1.00991 0.0799597 0)
(0.947089 0.0653957 0)
(0.763549 0.0447194 0)
(0.482655 0.0234907 0)
(0.205069 0.00718811 0)
(0.024033 0.000305482 0)
(0.24275 0.0086197 8.77942e-20)
(0.987396 0.066051 7.59036e-20)
(1.20029 0.096388 -2.60668e-20)
(1.26412 0.114058 0)
(1.25411 0.130942 -6.1502e-34)
(1.2147 0.143606 8.86028e-21)
(1.17488 0.153656 -1.51993e-20)
(1.13564 0.160257 0)
(1.09621 0.162215 2.95435e-34)
(1.05711 0.158103 -1.72517e-20)
(1.02475 0.14811 0)
(1.00405 0.135643 -1.97816e-20)
(0.99441 0.12307 -5.78777e-20)
(0.994365 0.111134 -2.71848e-20)
(0.985051 0.0980662 -8.11236e-21)
(0.90533 0.0791236 -4.79664e-21)
(0.707516 0.0538776 0)
(0.426661 0.0282584 3.35614e-21)
(0.167826 0.00911094 3.96537e-21)
(0.0160551 0.000638728 7.14414e-20)
(0.270493 0.0242206 7.46454e-20)
(1.05866 0.108482 5.16779e-22)
(1.2502 0.144377 7.42608e-21)
(1.29665 0.162129 0)
(1.27597 0.177631 -3.27445e-20)
(1.22995 0.188059 -3.62375e-20)
(1.18433 0.196177 -1.57189e-20)
(1.13933 0.200949 -5.35432e-20)
(1.09416 0.201002 0)
(1.04926 0.194812 7.38201e-20)
(1.01158 0.182721 7.19149e-20)
(0.986205 0.168257 2.11094e-20)
(0.971707 0.153427 7.56438e-20)
(0.963786 0.137944 1.05016e-19)
(0.941079 0.120195 0)
(0.848466 0.0975292 1.47094e-19)
(0.644103 0.0672826 2.11033e-19)
(0.37108 0.0361354 2.34453e-19)
(0.13607 0.0123935 -2.67945e-19)
(0.00986869 0.000892459 -5.03958e-21)
(0.270002 0.0394919 0)
(1.10196 0.163787 1.55081e-20)
(1.28281 0.203752 0)
(1.32064 0.220994 -4.94147e-20)
(1.29253 0.232508 0)
(1.24156 0.239199 -7.40307e-20)
(1.19092 0.24409 3.27642e-20)
(1.14059 0.24594 -1.10434e-19)
(1.08996 0.243055 -1.57148e-21)
(1.03947 0.233681 3.87174e-20)
(0.996451 0.218299 1.57287e-19)
(0.966028 0.200768 -3.09274e-22)
(0.945802 0.183064 -5.48126e-20)
(0.930102 0.165089 -9.86939e-20)
(0.899816 0.145582 1.16536e-19)
(0.807246 0.120715 -2.06101e-19)
(0.610762 0.0853741 -2.7157e-20)
(0.352985 0.0477631 0)
(0.133498 0.0177153 1.45231e-23)
(0.0102794 0.00145279 0)
(0.262809 0.0529093 2.64295e-19)
(1.12375 0.22239 -1.19695e-19)
(1.30186 0.267967 -7.99662e-20)
(1.33505 0.284988 2.49775e-20)
(1.30244 0.292387 -4.11383e-20)
(1.24842 0.294959 1.56803e-19)
(1.19393 0.295981 6.92051e-20)
(1.13903 0.294116 0)
(1.08344 0.287455 -2.00334e-19)
(1.0276 0.274005 0)
(0.979393 0.254593 -8.32342e-20)
(0.944117 0.2337 -1.00312e-19)
(0.918824 0.213471 -5.95759e-20)
(0.897837 0.193839 -7.14989e-20)
(0.864727 0.173516 0)
(0.777665 0.14722 0)
(0.594985 0.107864 -1.77526e-19)
(0.355807 0.0639745 3.50006e-20)
(0.143777 0.0258937 -2.05928e-20)
(0.0138065 0.00265604 -2.40742e-20)
(0.255121 0.0648991 -1.50592e-19)
(1.13223 0.280881 0)
(1.31132 0.333211 1.86542e-19)
(1.34144 0.350592 7.57804e-20)
(1.30603 0.354357 9.13873e-20)
(1.25027 0.35295 0)
(1.19291 0.349985 7.03672e-20)
(1.13427 0.344075 1.24132e-19)
(1.07434 0.333206 1.04327e-19)
(1.01366 0.315259 1.81383e-19)
(0.960676 0.291677 0)
(0.921191 0.267592 -2.16256e-19)
(0.89194 0.245267 -1.28616e-19)
(0.867495 0.224653 -7.56046e-20)
(0.833498 0.203753 4.58604e-19)
(0.753952 0.176148 5.45816e-20)
(0.586606 0.133108 2.56867e-19)
(0.364379 0.0830165 -1.213e-18)
(0.15779 0.036343 7.20912e-19)
(0.0185065 0.00450409 -8.68882e-19)
(0.248257 0.0757994 -1.28376e-19)
(1.13258 0.337363 2.90449e-20)
(1.31396 0.397569 -2.58113e-20)
(1.34171 0.415734 -9.49096e-20)
(1.30446 0.416401 -8.78064e-20)
(1.24762 0.41135 1.75262e-21)
(1.18807 0.404516 -7.58684e-20)
(1.12636 0.394529 1.30199e-19)
(1.0627 0.379367 -2.2425e-19)
(0.997764 0.356893 0)
(0.940642 0.329233 -9.90303e-20)
(0.897668 0.302245 -1.60686e-21)
(0.86551 0.278123 -1.39911e-19)
(0.838923 0.256677 0)
(0.805099 0.235341 -9.90377e-20)
(0.731295 0.206676 -2.35382e-19)
(0.579273 0.160203 6.29252e-19)
(0.372302 0.10349 -6.18857e-19)
(0.169908 0.0478686 8.80193e-19)
(0.022698 0.0066699 -9.146e-19)
(0.242823 0.0859927 -4.03809e-22)
(1.12812 0.391223 -2.68377e-20)
(1.312 0.460189 -1.00309e-19)
(1.33754 0.479141 4.63915e-20)
(1.29889 0.477222 -4.57606e-20)
(1.2413 0.468911 0)
(1.18002 0.458452 -7.50685e-20)
(1.11574 0.444547 -1.37485e-19)
(1.04887 0.425215 -1.17782e-19)
(0.980231 0.398353 0)
(0.919573 0.366778 -1.03696e-19)
(0.873798 0.336991 -1.25344e-19)
(0.839541 0.311121 1.51141e-19)
(0.811665 0.288659 -9.06912e-20)
(0.778338 0.266607 -4.29726e-19)
(0.709615 0.236477 2.56122e-19)
(0.570221 0.18706 7.66824e-20)
(0.375752 0.123784 0)
(0.177586 0.0591448 -8.46917e-19)
(0.025643 0.00878625 -3.10198e-20)
(0.23876 0.0957838 -1.52498e-20)
(1.1209 0.442313 2.60191e-20)
(1.30685 0.520758 5.23643e-20)
(1.33022 0.540148 1.53556e-19)
(1.29035 0.53604 -1.84411e-19)
(1.23215 0.524852 1.74313e-19)
(1.16944 0.511073 1.61088e-19)
(1.10298 0.493509 -2.19978e-19)
(1.03332 0.470247 6.9203e-20)
(0.961422 0.439206 -4.45619e-19)
(0.897696 0.403848 -1.1537e-19)
(0.84966 0.371259 0)
(0.813865 0.343513 1.63163e-19)
(0.785162 0.319818 1.9368e-19)
(0.752426 0.296839 2.30525e-19)
(0.687793 0.265055 -2.76616e-19)
(0.558504 0.212813 -8.18287e-20)
(0.373681 0.142747 9.64069e-20)
(0.179606 0.069069 0)
(0.0270613 0.010548 -6.69271e-20)
(0.235869 0.105312 1.40736e-19)
(1.11232 0.490759 -9.99991e-20)
(1.29939 0.578452 -5.42842e-20)
(1.32066 0.598402 1.0419e-19)
(1.27968 0.592419 -9.25587e-20)
(1.22092 0.578689 -4.03163e-21)
(1.15698 0.561933 -1.74195e-19)
(1.08863 0.541033 -7.91003e-20)
(1.01649 0.51413 -2.03654e-19)
(0.941674 0.479156 2.4608e-22)
(0.875231 0.440102 -3.6345e-19)
(0.825274 0.404638 2.97488e-19)
(0.788348 0.374823 -1.77667e-19)
(0.759174 0.349687 2.11453e-19)
(0.727053 0.325366 0)
(0.665731 0.291746 -1.49049e-19)
(0.543841 0.236073 -7.65167e-22)
(0.36631 0.158834 -4.17031e-19)
(0.176911 0.0766829 -6.13909e-20)
(0.0270386 0.0117318 0)
(0.233972 0.114665 0)
(1.10311 0.536755 -1.03483e-19)
(1.29037 0.633222 -1.04798e-19)
(1.30956 0.653791 -1.06652e-19)
(1.26752 0.646145 -1.0524e-19)
(1.20822 0.630178 0)
(1.14319 0.610774 -8.52942e-20)
(1.07317 0.586879 -1.16531e-21)
(0.998804 0.556666 4.35759e-19)
(0.921297 0.518017 -6.19169e-20)
(0.852338 0.475348 -2.61348e-19)
(0.800685 0.436897 1.55877e-19)
(0.762826 0.404773 -2.0432e-21)
(0.73338 0.37788 2.24971e-19)
(0.701823 0.351912 1.37043e-19)
(0.642926 0.315895 -3.21064e-19)
(0.526238 0.256065 3.80704e-19)
(0.354071 0.171614 1.12483e-19)
(0.170011 0.0816746 4.63833e-19)
(0.0256496 0.0122116 -1.24184e-18)
(0.232969 0.123972 2.43837e-20)
(1.0938 0.580471 -4.7345e-20)
(1.28045 0.685136 4.38989e-20)
(1.29742 0.706328 1.05831e-19)
(1.25438 0.697148 0)
(1.19454 0.679202 -9.35393e-20)
(1.12854 0.657465 2.79852e-19)
(1.05701 0.630915 1.75886e-19)
(0.980603 0.597731 0)
(0.900552 0.55569 -8.80726e-19)
(0.829164 0.509494 7.03437e-19)
(0.775873 0.467949 0)
(0.737179 0.433276 2.05914e-19)
(0.707526 0.404325 -2.02272e-21)
(0.67641 0.376349 -4.37427e-19)
(0.619165 0.33742 1.71346e-19)
(0.505956 0.272555 0)
(0.337976 0.180802 6.05351e-19)
(0.159688 0.0842077 0)
(0.0233568 0.0121113 -5.85446e-19)
(0.232673 0.133277 -2.26941e-20)
(1.08479 0.621989 -4.27354e-20)
(1.26974 0.734283 4.8611e-20)
(1.28463 0.75601 0)
(1.24065 0.745442 -1.07694e-19)
(1.18029 0.725744 0)
(1.11341 0.701953 -2.86776e-19)
(1.04051 0.673077 -8.64899e-20)
(0.962192 0.637267 7.88643e-20)
(0.87968 0.592133 -4.35082e-19)
(0.805835 0.54254 7.33271e-20)
(0.750849 0.497797 0)
(0.711286 0.460346 -4.39628e-19)
(0.681423 0.429014 2.06336e-21)
(0.650569 0.398651 0)
(0.594217 0.356249 2.20299e-21)
(0.483082 0.285577 5.50899e-19)
(0.318443 0.186271 -5.21893e-19)
(0.14682 0.0842937 1.53854e-19)
(0.0204613 0.0114749 0)
(0.23274 0.142455 0)
(1.07619 0.661477 -3.94869e-20)
(1.25861 0.78078 -4.26497e-20)
(1.27149 0.8029 -2.31468e-21)
(1.22663 0.791073 -5.05602e-20)
(1.16578 0.769827 -2.11306e-19)
(1.0981 0.744242 1.04701e-19)
(1.02395 0.713347 -9.78166e-20)
(0.943828 0.675244 3.46189e-19)
(0.858878 0.627345 -6.94816e-19)
(0.782471 0.574526 -3.44354e-21)
(0.725627 0.52652 -1.95687e-19)
(0.685077 0.486051 7.10586e-19)
(0.654933 0.452052 -2.42219e-21)
(0.62415 0.418919 -3.37489e-19)
(0.568005 0.372415 -6.01973e-19)
(0.457866 0.295191 0)
(0.296061 0.18823 0)
(0.131963 0.0820028 1.6596e-19)
(0.0172135 0.0103421 -9.71357e-20)
(0.233322 0.1516 -1.77608e-20)
(1.06803 0.698764 7.6951e-20)
(1.24732 0.824699 4.51606e-20)
(1.25824 0.847089 0)
(1.21256 0.834113 -1.55916e-21)
(1.15126 0.811495 -2.12124e-19)
(1.08286 0.784357 2.65313e-19)
(1.00756 0.751729 3.98076e-19)
(0.925726 0.711666 4.53858e-19)
(0.838343 0.661349 -5.70045e-19)
(0.759223 0.605535 -6.0165e-19)
(0.700273 0.554255 5.22962e-19)
(0.658529 0.510547 0)
(0.627964 0.473545 -1.53461e-19)
(0.597077 0.437191 -3.64294e-19)
(0.540547 0.385874 -4.31528e-19)
(0.430285 0.301197 -5.12286e-19)
(0.271377 0.186641 1.51501e-19)
(0.115569 0.0773562 -8.91673e-20)
(0.0136512 0.00875312 3.1199e-22)
(0.233963 0.160626 0)
(1.06043 0.734371 0)
(1.23602 0.866138 2.60166e-21)
(1.24503 0.888685 0)
(1.19862 0.874661 1.57937e-19)
(1.13692 0.850826 1.59857e-19)
(1.06788 0.822341 0)
(0.991528 0.788249 4.96609e-20)
(0.908072 0.746543 7.62919e-19)
(0.818263 0.694179 -1.30786e-18)
(0.73626 0.635669 0)
(0.67488 0.581173 -3.35709e-19)
(0.631595 0.534005 -2.94472e-21)
(0.600407 0.493602 -2.39901e-21)
(0.569226 0.453469 3.89094e-19)
(0.511804 0.396499 -3.93405e-22)
(0.40056 0.303523 -1.10134e-18)
(0.244591 0.181454 3.25675e-19)
(0.0985319 0.0707962 9.62365e-20)
(0.0101103 0.00689486 0)
(0.234591 0.169467 3.50588e-20)
(1.05312 0.76828 3.08986e-20)
(1.22477 0.905149 7.76784e-20)
(1.232 0.927787 -1.93527e-19)
(1.18494 0.912792 2.64935e-19)
(1.1229 0.887893 0)
(1.0533 0.858253 1.70283e-19)
(0.976004 0.822939 -1.0845e-19)
(0.891015 0.779901 3.86593e-21)
(0.798809 0.725871 9.52039e-20)
(0.713738 0.665022 7.78894e-19)
(0.649532 0.607454 -1.18167e-19)
(0.604279 0.556655 -4.36212e-19)
(0.572126 0.512367 -1.77934e-19)
(0.540447 0.467674 2.11038e-19)
(0.481795 0.404015 -2.30345e-22)
(0.369318 0.301979 2.96617e-19)
(0.216794 0.172953 -6.99897e-19)
(0.0815028 0.0627384 8.27515e-19)
(0.00673199 0.00489007 1.20648e-19)
(0.235051 0.178001 -8.24438e-21)
(1.04613 0.800581 1.38592e-20)
(1.21369 0.941849 6.12316e-21)
(1.21924 0.964514 -9.11283e-20)
(1.17161 0.948616 -4.98357e-20)
(1.10929 0.922772 -2.94441e-19)
(1.03924 0.89215 5.52568e-20)
(0.961096 0.85583 -4.56537e-19)
(0.874684 0.811745 -8.49618e-19)
(0.780115 0.756432 -7.82967e-19)
(0.691812 0.693666 0)
(0.624374 0.633279 -5.14111e-19)
(0.576603 0.578778 6.26096e-19)
(0.542932 0.530038 0)
(0.510438 0.479654 -4.51441e-19)
(0.45047 0.407897 2.69515e-19)
(0.337073 0.296117 -3.18367e-19)
(0.189148 0.161357 -3.7651e-19)
(0.0654137 0.0537209 -6.662e-19)
(0.00371607 0.00290404 -5.19365e-19)
(0.235795 0.186363 4.26113e-21)
(1.03932 0.831245 -1.47179e-20)
(1.20283 0.976315 -4.40605e-20)
(1.20681 0.998947 -1.12595e-19)
(1.15873 0.982224 1.09828e-19)
(1.09619 0.955556 -1.7806e-19)
(1.02577 0.924091 1.79916e-19)
(0.946884 0.88697 -4.76546e-19)
(0.859155 0.842101 -5.05067e-19)
(0.762297 0.785877 8.23011e-19)
(0.670642 0.721659 1.70967e-18)
(0.599576 0.658813 0)
(0.548633 0.600673 0)
(0.512591 0.546938 -2.04416e-19)
(0.478643 0.489307 0)
(0.417457 0.407285 5.79661e-19)
(0.304528 0.284967 6.84896e-19)
(0.163389 0.146612 0)
(0.0516059 0.0443464 0)
(0.00125823 0.00114762 5.57927e-19)
(0.23615 0.194246 7.27911e-22)
(1.03272 0.860261 -1.1061e-21)
(1.19225 1.00866 -2.9355e-20)
(1.19478 1.03121 8.4165e-20)
(1.14632 1.01372 1.09771e-19)
(1.08364 0.98632 2.0954e-19)
(1.01293 0.954141 -2.51582e-19)
(0.933424 0.916392 1.29392e-22)
(0.844501 0.870979 -5.00203e-21)
(0.74545 0.814204 -5.58229e-21)
(0.650397 0.749033 8.80374e-19)
(0.575333 0.68418 0)
(0.520523 0.622646 6.29799e-19)
(0.480925 0.563549 4.35515e-19)
(0.444201 0.496843 1.04908e-18)
(0.381689 0.401178 3.11369e-19)
(0.272132 0.266332 -3.69139e-19)
(0.142811 0.126855 -2.16894e-19)
(0.0445774 0.0342127 0)
(0.000767709 0.000229311 5.99219e-19)
(0.236777 0.202106 -1.30228e-20)
(1.0263 0.88773 0)
(1.18194 1.03894 -2.16271e-20)
(1.18315 1.06139 6.20786e-20)
(1.13444 1.04319 -1.05511e-19)
(1.07166 1.01515 -2.69893e-19)
(1.00078 0.98236 5.14754e-19)
(0.920744 0.944137 -3.70374e-20)
(0.830756 0.898391 0)
(0.729651 0.841386 -9.15369e-19)
(0.631222 0.77578 -1.91819e-18)
(0.551864 0.709468 7.61245e-20)
(0.492551 0.644968 8.64702e-19)
(0.447925 0.580494 0)
(0.406117 0.503053 7.05387e-19)
(0.34085 0.389273 0)
(0.237501 0.236519 0)
(0.130203 0.0914642 -2.34704e-19)
(0.0631416 0.0121271 0)
(0.0262466 0.0105416 1.60569e-19)
(0.237001 0.209336 -2.40929e-20)
(1.02004 0.913995 0)
(1.1719 1.06736 -2.52511e-20)
(1.17189 1.0897 0)
(1.12304 1.07089 4.9958e-20)
(1.0602 1.04233 0)
(0.989228 1.00906 2.97346e-20)
(0.908747 0.970544 6.66747e-20)
(0.817805 0.924705 6.33997e-20)
(0.714747 0.867816 -1.00903e-18)
(0.612977 0.802336 5.84627e-20)
(0.529024 0.735256 6.07102e-19)
(0.464486 0.668287 8.41973e-19)
(0.413024 0.598748 1.12354e-19)
(0.362695 0.509693 5.50459e-19)
(0.290611 0.373501 0)
(0.189193 0.19507 7.77162e-19)
(0.0965847 0.0310454 -4.55484e-19)
(0.0445473 0.0445636 5.29054e-19)
(-0.0688669 0.425195 -6.25118e-19)
(0.237187 0.216335 2.54406e-20)
(1.01369 0.938837 2.39623e-20)
(1.16205 1.09423 0)
(1.16087 1.11658 5.20048e-21)
(1.11193 1.09739 -1.20609e-19)
(1.049 1.06854 4.43904e-19)
(0.977985 1.03504 1.93492e-19)
(0.897042 0.996554 0)
(0.805138 0.95101 4.33604e-19)
(0.700094 0.894791 -5.41636e-20)
(0.594786 0.830162 0)
(0.505698 0.763306 0)
(0.434926 0.69438 7.51842e-19)
(0.374696 0.619969 -3.44895e-19)
(0.311121 0.519775 -5.54668e-19)
(0.226337 0.359404 0)
(0.108922 0.180393 3.90604e-19)
(0.00813626 0.433219 -4.53214e-19)
(0.0371226 1.86513 -2.52529e-19)
(0.0674914 2.79788 -3.20054e-19)
(0.237196 0.222473 -2.58016e-20)
(1.00747 0.962435 -4.32543e-20)
(1.15239 1.11953 -7.68544e-21)
(1.15008 1.14187 -3.07748e-20)
(1.10117 1.12246 0)
(1.03812 1.09349 2.96949e-19)
(0.967233 1.05998 2.8602e-19)
(0.885805 1.02174 -3.36806e-20)
(0.793008 0.976789 6.41182e-20)
(0.686059 0.921696 9.70007e-19)
(0.577242 0.858574 9.75159e-19)
(0.482863 0.793177 6.80253e-19)
(0.404952 0.722929 7.53659e-19)
(0.334986 0.642778 -8.04738e-19)
(0.257419 0.536152 -8.33424e-19)
(0.149917 0.386032 0)
(0.0534825 0.822837 0)
(0.10987 2.53392 2.18398e-19)
(0.111244 3.1904 0)
(0.114212 3.3838 5.33167e-19)
(0.239735 0.22806 0)
(1.00194 0.984953 0)
(1.14271 1.14314 0)
(1.13928 1.16536 -4.95015e-21)
(1.09043 1.14588 -1.01128e-19)
(1.02732 1.11704 2.02458e-19)
(0.956865 1.08378 1.92198e-19)
(0.87499 1.04599 -3.37042e-20)
(0.781383 1.00191 5.57542e-19)
(0.672674 0.948396 -9.95081e-21)
(0.560496 0.887463 1.93634e-18)
(0.460896 0.824693 -7.76097e-20)
(0.375036 0.754779 9.1818e-20)
(0.296237 0.664327 1.15475e-19)
(0.196427 0.559914 -1.22518e-21)
(0.114687 0.955652 1.76874e-21)
(0.151888 2.68703 -1.12666e-18)
(0.163475 3.28528 -4.29839e-19)
(0.150341 3.42545 2.28785e-19)
(0.135427 3.4488 -2.57834e-19)
(0.157232 0.184357 2.06077e-20)
(0.991029 1.0092 0)
(1.13278 1.16527 -5.78502e-21)
(1.12907 1.18752 5.57022e-20)
(1.08049 1.1684 -1.67059e-19)
(1.01751 1.13984 -2.05955e-19)
(0.946776 1.10655 -2.09079e-19)
(0.864699 1.06943 4.13658e-19)
(0.770442 1.02652 -4.65349e-19)
(0.660254 0.975009 0)
(0.544988 0.916967 9.59715e-19)
(0.440389 0.857686 -5.57289e-19)
(0.345687 0.792907 0)
(0.258737 0.688477 1.07909e-19)
(0.166516 0.812364 2.56681e-19)
(0.167298 2.44221 -3.06926e-19)
(0.231626 3.31991 3.47556e-19)
(0.208877 3.44167 1.91866e-19)
(0.173329 3.46399 2.19273e-19)
(0.14979 3.47461 3.59365e-19)
(0.282883 0.266684 -3.28124e-20)
(0.976009 1.019 0)
(1.11481 1.19021 2.13698e-20)
(1.11461 1.22 -3.24128e-20)
(1.06446 1.20156 1.41024e-19)
(1.00093 1.17348 1.79118e-19)
(0.929338 1.14162 2.56877e-19)
(0.846627 1.10565 3.17919e-20)
(0.751088 1.0648 4.62819e-19)
(0.638319 1.01694 8.69731e-19)
(0.518281 0.964899 5.57194e-20)
(0.405883 0.912918 5.01048e-19)
(0.294628 0.856732 8.7082e-20)
(0.223884 0.975407 -1.0711e-19)
(0.241177 2.28813 -2.46467e-19)
(0.306698 3.32392 2.47356e-19)
(0.291195 3.47486 -2.79919e-19)
(0.25362 3.49717 -1.63321e-19)
(0.214742 3.52495 -1.50463e-19)
(0.161214 3.51809 -1.73917e-20)
(0.270669 0.263402 0)
(0.973674 1.04148 1.63011e-20)
(1.10701 1.21344 -7.60142e-21)
(1.10492 1.24319 2.6403e-22)
(1.05446 1.22462 7.78495e-20)
(0.99097 1.19679 -1.66062e-19)
(0.919023 1.16509 -1.56771e-19)
(0.836182 1.1299 2.97012e-20)
(0.74028 1.09047 -4.92945e-19)
(0.626554 1.04532 -1.43682e-20)
(0.504422 0.997868 -1.77198e-18)
(0.388692 0.951859 7.10553e-20)
(0.282073 0.923533 -8.31591e-20)
(0.264056 1.46086 -1.00933e-19)
(0.343434 3.07385 1.77749e-20)
(0.368381 3.47191 8.728e-22)
(0.326626 3.53315 4.45472e-19)
(0.287981 3.55762 2.32001e-19)
(0.237325 3.5817 -8.44198e-20)
(0.175773 3.57728 -9.42666e-20)
(0.254076 0.261571 5.03303e-20)
(0.969714 1.06655 1.21134e-19)
(1.09872 1.23875 -2.31543e-20)
(1.09468 1.2678 1.28702e-21)
(1.04396 1.24902 0)
(0.980595 1.22122 -1.94025e-19)
(0.90859 1.18976 -2.1153e-19)
(0.8259 1.15533 2.74987e-20)
(0.72996 1.11739 -5.41059e-20)
(0.615786 1.07512 -8.20653e-19)
(0.492329 1.03253 -8.33566e-19)
(0.375048 0.9934 -5.97684e-19)
(0.284732 1.04831 -6.32807e-19)
(0.333255 2.1332 6.50485e-19)
(0.431848 3.37294 5.66767e-19)
(0.414227 3.53425 0)
(0.366282 3.57931 0)
(0.328437 3.62189 -6.99531e-20)
(0.272974 3.68421 0)
(0.188084 3.65811 -1.0875e-19)
(0.242953 0.263126 -8.54143e-20)
(0.963756 1.09266 -1.15421e-19)
(1.08902 1.26522 0)
(1.08314 1.29324 6.20135e-21)
(1.03228 1.27403 4.58951e-20)
(0.969137 1.24612 -2.53165e-19)
(0.897404 1.21492 -1.26673e-19)
(0.81507 1.18113 2.19921e-20)
(0.719329 1.14459 -3.78446e-19)
(0.605091 1.10514 4.34828e-20)
(0.481119 1.06753 0)
(0.364883 1.03793 0)