/*--------------------------------*- C++ -*----------------------------------*\
| =========                 |                                                 |
| \\      /  F ield         | OpenFOAM: The Open Source CFD Toolbox           |
|  \\    /   O peration     | Version:  4.0                                   |
|   \\  /    A nd           | Web:      www.OpenFOAM.org                      |
|    \\/     M anipulation  |                                                 |
\*---------------------------------------------------------------------------*/
FoamFile
{
    version     2.0;
    format      ascii;
    class       volScalarField;
    location    "0.003";
    object      mag(U);
}
// * * * * * * * * * * * * * * * * * * * * * * * * * * * * * * * * * * * * * //

dimensions      [0 1 -1 0 0 0 0];

internalField   nonuniform List<scalar> 
1000
(
6.56429e-13
5.54317e-13
7.43952e-13
7.73127e-13
7.5854e-13
8.31476e-13
7.5854e-13
5.3973e-13
8.16889e-13
6.12667e-13
7.5854e-13
6.27254e-13
7.5854e-13
5.10556e-13
7.5854e-13
4.95968e-13
5.68905e-13
5.83492e-13
4.95968e-13
3.64683e-13
4.66794e-13
4.66794e-13
5.10556e-13
5.25143e-13
5.25143e-13
7.0019e-13
7.43952e-13
6.41841e-13
8.46063e-13
7.73127e-13
8.60651e-13
6.71016e-13
7.29365e-13
9.91936e-13
6.85603e-13
9.77349e-13
5.54317e-13
9.62762e-13
4.95968e-13
9.77349e-13
5.10556e-13
8.89825e-13
7.0019e-13
9.04413e-13
9.04413e-13
8.16889e-13
1.02111e-12
8.60651e-13
9.48175e-13
1.29827e-12
1.22533e-12
1.22533e-12
1.13781e-12
1.25451e-12
9.19e-13
9.48175e-13
6.27254e-13
6.71016e-13
4.52206e-13
6.56429e-13
5.83492e-13
9.19e-13
8.16889e-13
8.46063e-13
8.16889e-13
8.16889e-13
1.06487e-12
9.48175e-13
8.16889e-13
1.02111e-12
8.60651e-13
1.1524e-12
8.75238e-13
1.1524e-12
1.1524e-12
1.19616e-12
9.91936e-13
1.12322e-12
1.19616e-12
1.00652e-12
1.1524e-12
9.19e-13
9.33587e-13
8.02302e-13
8.02302e-13
9.04413e-13
7.73127e-13
8.75238e-13
4.81381e-13
7.14778e-13
5.10556e-13
7.87714e-13
4.66794e-13
8.31476e-13
5.54317e-13
5.98079e-13
5.3973e-13
5.25143e-13
5.54317e-13
4.81381e-13
5.25143e-13
5.68905e-13
5.68905e-13
6.85603e-13
6.12667e-13
6.12667e-13
5.68905e-13
5.83492e-13
6.71016e-13
6.41841e-13
5.3973e-13
4.95968e-13
6.12667e-13
5.10556e-13
3.64683e-13
3.93857e-13
2.04222e-13
1.02111e-13
5.83492e-14
3.7927e-13
5.83492e-14
4.23032e-13
5.83492e-14
3.7927e-13
2.1881e-13
3.64683e-13
5.83492e-14
2.62571e-13
5.83492e-14
3.35508e-13
3.06333e-13
5.54317e-13
6.71016e-13
6.27254e-13
4.08444e-13
7.43952e-13
6.12667e-13
7.0019e-13
4.66794e-13
7.73127e-13
5.54317e-13
6.12667e-13
5.68905e-13
4.81381e-13
4.81381e-13
4.95968e-13
5.10556e-13
3.64683e-13
4.52206e-13
5.3973e-13
4.81381e-13
7.29365e-13
5.25143e-13
7.0019e-13
4.52206e-13
5.98079e-13
5.68905e-13
6.71016e-13
3.50095e-13
1.89635e-13
5.83492e-14
1.45873e-14
5.83492e-14
1.16698e-13
1.45873e-14
2.04222e-13
5.83492e-14
1.45873e-14
4.52206e-13
4.37619e-13
5.25143e-13
4.66794e-13
5.98079e-13
5.25143e-13
4.95968e-13
4.52206e-13
3.06333e-13
3.7927e-13
2.91746e-13
4.08444e-13
3.20921e-13
5.10556e-13
2.47984e-13
2.1881e-13
1.45873e-14
1.02111e-13
7.29365e-14
8.75238e-14
1.45873e-14
7.29365e-14
2.91746e-14
1.45873e-14
2.47984e-13
2.04222e-13
2.33397e-13
2.1881e-13
4.08444e-13
3.35508e-13
3.20921e-13
2.77159e-13
3.50095e-13
5.3973e-13
1.75048e-13
2.91746e-13
1.45873e-14
2.33397e-13
1.75048e-13
2.33397e-13
1.6046e-13
2.91746e-14
2.04222e-13
7.39636e-27
2.62571e-13
3.50095e-13
5.10556e-13
5.3973e-13
5.98079e-13
5.3973e-13
5.83492e-13
6.27254e-13
8.46063e-13
8.46063e-13
9.48175e-13
9.04413e-13
1.02111e-12
8.46063e-13
1.19616e-12
1.02111e-12
1.32744e-12
1.00652e-12
1.18157e-12
8.16889e-13
9.19e-13
6.41841e-13
5.25143e-13
1.6046e-13
7.29365e-14
1.89635e-13
1.45873e-13
2.47984e-13
4.23032e-13
3.64683e-13
4.08444e-13
4.95968e-13
3.50095e-13
6.27254e-13
4.52206e-13
4.95968e-13
4.23032e-13
2.47984e-13
2.91746e-13
3.06333e-13
4.08444e-13
5.3973e-13
6.27254e-13
7.43952e-13
3.50095e-13
3.93857e-13
2.33397e-13
2.04222e-13
1.02111e-13
7.29365e-14
1.31286e-13
3.7927e-13
1.31286e-13
2.91746e-14
1.75048e-13
5.83492e-14
2.62571e-13
3.64683e-13
5.98079e-13
5.98079e-13
7.0019e-13
5.68905e-13
8.46063e-13
1.02111e-12
1.16698e-12
1.07946e-12
1.42956e-12
1.16698e-12
1.29827e-12
1.12322e-12
1.38579e-12
1.05029e-12
1.10863e-12
8.60651e-13
8.89825e-13
7.0019e-13
5.68905e-13
4.23032e-13
5.25143e-13
4.52206e-13
6.27254e-13
5.83492e-13
6.71016e-13
6.41841e-13
7.87714e-13
6.71016e-13
7.5854e-13
7.43952e-13
9.19e-13
8.89825e-13
8.16889e-13
8.89825e-13
1.09405e-12
9.48175e-13
9.33587e-13
7.14778e-13
7.43952e-13
7.73127e-13
7.29365e-13
7.5854e-13
8.89825e-13
6.85603e-13
7.43952e-13
6.27254e-13
6.71016e-13
5.25143e-13
6.56429e-13
5.54317e-13
3.06333e-13
1.02111e-13
2.91746e-13
1.00652e-12
2.31938e-12
5.41189e-12
1.15094e-11
2.39378e-11
4.94509e-11
1.01178e-10
2.0431e-10
4.10589e-10
8.17735e-10
1.6177e-09
3.17668e-09
6.19203e-09
1.19827e-08
2.30156e-08
4.38759e-08
8.30052e-08
1.55819e-07
2.90215e-07
5.36234e-07
9.82821e-07
1.7866e-06
3.22076e-06
5.75722e-06
1.02031e-05
1.79251e-05
3.12131e-05
5.38634e-05
9.21021e-05
0.000156026
0.000261821
0.000435134
0.000716105
0.00116678
0.00188183
0.00300377
0.00474422
0.00741288
0.0114562
0.017508
0.026453
0.0395061
0.0583047
0.0850156
0.122449
0.174172
0.244617
0.339159
0.464155
0.626926
0.835662
1.09925
1.42702
1.8284
2.31256
2.88797
3.56207
4.3409
5.22885
6.22856
7.34084
8.56479
9.89791
11.3364
12.8754
14.5092
16.2317
18.0365
19.9174
21.8681
23.8827
25.9555
28.0813
30.2553
32.4733
34.7311
37.0252
39.3525
41.7101
44.0954
46.5062
48.9404
51.3961
53.8718
56.3659
58.8771
61.4041
63.9459
66.5015
69.0697
71.6499
74.2411
76.8426
79.4536
82.0736
84.7018
87.3377
89.9808
92.6304
95.2861
97.9474
100.614
103.285
105.961
108.641
111.324
114.011
116.701
119.393
122.088
124.786
127.485
130.186
132.888
135.592
138.296
141.002
143.708
146.415
149.121
151.828
154.535
157.241
159.947
162.652
165.357
168.058
170.761
173.46
176.159
178.855
181.549
184.241
186.929
189.615
192.298
194.977
197.652
200.322
202.988
205.649
208.304
210.952
213.595
216.23
218.857
221.475
224.084
226.683
229.27
231.846
234.407
236.954
239.485
241.998
244.492
246.964
249.412
251.834
254.228
256.59
258.917
261.205
263.452
265.651
267.799
269.891
271.922
273.885
275.774
277.585
279.309
280.942
282.476
283.908
285.231
286.441
287.537
288.517
289.381
290.132
290.774
291.313
291.757
292.114
292.396
292.613
292.775
292.893
292.975
293.032
293.069
293.092
293.107
293.115
293.121
293.124
293.128
293.131
293.136
293.14
293.145
293.151
293.156
293.161
293.166
293.17
293.174
293.177
293.179
293.181
293.182
293.183
293.183
293.183
293.183
293.183
293.182
293.182
293.182
293.182
293.182
293.181
293.181
293.181
293.181
293.181
293.181
293.181
293.18
293.18
293.18
293.18
293.18
293.18
293.18
293.18
293.18
293.18
293.18
293.18
293.18
293.18
293.181
293.181
293.181
293.181
293.182
293.182
293.183
293.181
293.181
293.186
293.201
293.206
293.193
293.175
293.159
293.147
293.135
293.124
293.114
293.108
293.107
293.109
293.115
293.124
293.133
293.142
293.149
293.155
293.159
293.162
293.164
293.164
293.165
293.164
293.164
293.164
293.163
293.163
293.162
293.163
293.163
293.163
293.162
293.162
293.161
293.16
293.159
293.157
293.156
293.155
293.155
293.154
293.153
293.152
293.152
293.152
293.152
293.151
293.151
293.151
293.151
293.15
293.149
293.147
293.145
293.143
293.141
293.139
293.137
293.136
293.135
293.134
293.133
293.132
293.13
293.129
293.128
293.127
293.126
293.125
293.123
293.12
293.115
293.109
293.1
293.089
293.074
293.057
293.03
292.993
292.915
292.827
292.545
292.25
291.339
289.722
285.78
276.191
254.891
210.308
141.43
71.1435
26.5954
8.08776
2.18392
0.556793
0.139158
0.0345905
0.00858693
0.00213103
0.000528825
0.000131228
3.25644e-05
8.0809e-06
2.00529e-06
4.97617e-07
1.23486e-07
3.06438e-08
7.6052e-09
1.88754e-09
4.69041e-10
1.16655e-10
2.93789e-11
7.68752e-12
2.49443e-12
1.29827e-12
7.58541e-13
9.04414e-13
5.9808e-13
6.85604e-13
4.23032e-13
7.14779e-13
5.83493e-13
4.66794e-13
6.41842e-13
6.85604e-13
6.85604e-13
9.33589e-13
9.77351e-13
9.77351e-13
9.77351e-13
1.00653e-12
6.85604e-13
1.07946e-12
9.62763e-13
1.28368e-12
1.18157e-12
1.40038e-12
1.09405e-12
1.42956e-12
1.05029e-12
1.37121e-12
1.21075e-12
1.22533e-12
9.91938e-13
1.10864e-12
8.02303e-13
8.1689e-13
7.73128e-13
9.04414e-13
7.58541e-13
7.43953e-13
6.85604e-13
7.58541e-13
5.83493e-13
5.68906e-13
4.66794e-13
6.71017e-13
7.87715e-13
8.31477e-13
8.31477e-13
8.46065e-13
9.19001e-13
8.60652e-13
1.21075e-12
9.48176e-13
1.0357e-12
8.60652e-13
9.19001e-13
8.02303e-13
6.56429e-13
7.00191e-13
6.85604e-13
8.31477e-13
8.1689e-13
8.1689e-13
9.91938e-13
7.87715e-13
8.1689e-13
6.27255e-13
8.46065e-13
5.68906e-13
5.54318e-13
5.9808e-13
3.50096e-13
5.10556e-13
2.33397e-13
6.27255e-13
3.7927e-13
7.58541e-13
2.62572e-13
5.68906e-13
3.35508e-13
4.3762e-13
2.33397e-13
2.62572e-13
1.02111e-13
1.45873e-14
3.06334e-13
2.33397e-13
2.77159e-13
1.89635e-13
3.35508e-13
7.29366e-14
4.3762e-14
1.75048e-13
1.60461e-13
2.33397e-13
2.77159e-13
1.45873e-14
1.31286e-13
5.83493e-14
1.45873e-14
5.83493e-14
1.16699e-13
7.29366e-14
7.29366e-14
1.45873e-14
7.29366e-14
4.81521e-27
1.89635e-13
2.47984e-13
4.08445e-13
3.64683e-13
1.75048e-13
3.50096e-13
1.60461e-13
2.47984e-13
1.75048e-13
2.33397e-13
3.90197e-27
3.64683e-13
2.04222e-13
1.75048e-13
1.02111e-13
2.62572e-13
2.77159e-13
1.89635e-13
2.77159e-13
1.89635e-13
2.33397e-13
1.31286e-13
5.83493e-14
7.29366e-14
5.83493e-14
2.62572e-13
1.75048e-13
3.35508e-13
7.29366e-14
1.60461e-13
1.45873e-14
1.02111e-13
8.75239e-14
1.02111e-13
2.04222e-13
2.91746e-14
4.96667e-27
3.64683e-13
4.3762e-14
3.64683e-13
7.29366e-14
3.93858e-13
1.45873e-14
1.02111e-13
7.29366e-14
6.45604e-27
2.04222e-13
7.29366e-14
5.83493e-14
1.45873e-14
1.89635e-13
1.16699e-13
3.06334e-13
4.3762e-14
2.91746e-14
2.91746e-14
2.91746e-14
2.47984e-13
1.02111e-13
2.1881e-13
1.89635e-13
2.47984e-13
2.91746e-14
3.93858e-13
3.50096e-13
4.08445e-13
5.25144e-13
5.9808e-13
3.50096e-13
4.66794e-13
1.89635e-13
5.25144e-13
3.64683e-13
5.39731e-13
2.62572e-13
2.47984e-13
8.75239e-14
1.31286e-13
1.45873e-14
1.02111e-13
2.77159e-13
1.02111e-13
2.62572e-13
2.91746e-14
1.45873e-14
5.83493e-14
4.3762e-14
5.83493e-14
1.45873e-14
4.3762e-14
1.75048e-13
5.83493e-14
1.45873e-14
4.3762e-14
1.89635e-13
7.29366e-14
2.77159e-13
3.06334e-13
4.52207e-13
2.91746e-13
1.75048e-13
2.33397e-13
8.75239e-14
2.77159e-13
7.29366e-14
1.16699e-13
1.89635e-13
1.60461e-13
1.02111e-13
2.91746e-14
7.29366e-14
1.02111e-13
1.16699e-13
1.45873e-14
1.02111e-13
8.75239e-14
7.29366e-14
2.91746e-14
1.45873e-14
5.83493e-14
1.89635e-13
1.60461e-13
1.60461e-13
4.3762e-14
1.16699e-13
5.83493e-14
2.1881e-13
2.1881e-13
3.06334e-13
4.95969e-13
3.64683e-13
5.25144e-13
2.1881e-13
2.77159e-13
2.91746e-13
3.93858e-13
4.23032e-13
3.50096e-13
2.62572e-13
2.33397e-13
5.83493e-14
4.3762e-14
1.45873e-14
8.75239e-14
5.83493e-14
1.45873e-14
1.45873e-13
2.47984e-13
1.89635e-13
2.91746e-14
7.29366e-14
4.3762e-14
3.8812e-28
8.75239e-14
1.45873e-14
1.60461e-13
8.75239e-14
1.16699e-13
7.29366e-14
3.50096e-13
1.16699e-13
1.31286e-13
8.75239e-14
2.91746e-14
1.31286e-13
5.83493e-14
7.29366e-14
2.62572e-13
2.33397e-13
4.08445e-13
3.35508e-13
5.10556e-13
3.93858e-13
4.66794e-13
3.20921e-13
4.66794e-13
4.23032e-13
3.7927e-13
2.47984e-13
2.77159e-13
2.91746e-14
2.1881e-13
2.62572e-13
2.04222e-13
1.02111e-13
3.12704e-27
4.3762e-14
2.91746e-14
2.62572e-13
1.75048e-13
1.45873e-13
1.45873e-13
1.16699e-13
2.91746e-13
1.60461e-13
2.47984e-13
2.47984e-13
4.3762e-14
5.83493e-14
5.83493e-14
1.45873e-14
1.45873e-14
1.02111e-13
1.02111e-13
)
;

boundaryField
{
    sides
    {
        type            calculated;
        value           nonuniform List<scalar> 2(1.02111e-13 6.56429e-13);
    }
    empty
    {
        type            empty;
    }
}


// ************************************************************************* //
