/*--------------------------------*- C++ -*----------------------------------*\
| =========                 |                                                 |
| \\      /  F ield         | OpenFOAM: The Open Source CFD Toolbox           |
|  \\    /   O peration     | Version:  4.0                                   |
|   \\  /    A nd           | Web:      www.OpenFOAM.org                      |
|    \\/     M anipulation  |                                                 |
\*---------------------------------------------------------------------------*/
FoamFile
{
    version     2.0;
    format      ascii;
    class       volScalarField;
    location    "0.003";
    object      p;
}
// * * * * * * * * * * * * * * * * * * * * * * * * * * * * * * * * * * * * * //

dimensions      [1 -1 -2 0 0 0 0];

internalField   nonuniform List<scalar> 
1000
(
100000
100000
100000
100000
100000
100000
100000
100000
100000
100000
100000
100000
100000
100000
100000
100000
100000
100000
100000
100000
100000
100000
100000
100000
100000
100000
100000
100000
100000
100000
100000
100000
100000
100000
100000
100000
100000
100000
100000
100000
100000
100000
100000
100000
100000
100000
100000
100000
100000
100000
100000
100000
100000
100000
100000
100000
100000
100000
100000
100000
100000
100000
100000
100000
100000
100000
100000
100000
100000
100000
100000
100000
100000
100000
100000
100000
100000
100000
100000
100000
100000
100000
100000
100000
100000
100000
100000
100000
100000
100000
100000
100000
100000
100000
100000
100000
100000
100000
100000
100000
100000
100000
100000
100000
100000
100000
100000
100000
100000
100000
100000
100000
100000
100000
100000
100000
100000
100000
100000
100000
100000
100000
100000
100000
100000
100000
100000
100000
100000
100000
100000
100000
100000
100000
100000
100000
100000
100000
100000
100000
100000
100000
100000
100000
100000
100000
100000
100000
100000
100000
100000
100000
100000
100000
100000
100000
100000
100000
100000
100000
100000
100000
100000
100000
100000
100000
100000
100000
100000
100000
100000
100000
100000
100000
100000
100000
100000
100000
100000
100000
100000
100000
100000
100000
100000
100000
100000
100000
100000
100000
100000
100000
100000
100000
100000
100000
100000
100000
100000
100000
100000
100000
100000
100000
100000
100000
100000
100000
100000
100000
100000
100000
100000
100000
100000
100000
100000
100000
100000
100000
100000
100000
100000
100000
100000
100000
100000
100000
100000
100000
100000
100000
100000
100000
100000
100000
100000
100000
100000
100000
100000
100000
100000
100000
100000
100000
100000
100000
100000
100000
100000
100000
100000
100000
100000
100000
100000
100000
100000
100000
100000
100000
100000
100000
100000
100000
100000
100000
100000
100000
100000
100000
100000
100000
100000
100000
100000
100000
100000
100000
100000
100000
100000
100000
100000
100000
100000
100000
100000
100000
100000
100000
100000
100000
100000
100000
100000
100000
100000
100000
100000
100000
100000
100000
100000
100000
100000
100000
100000
100000
100000
100000
100000
100000
100000
100000
100000
100000
100000
100000
100000
100000
100000
100000
100000
100000
100000
100000
100000
100000
100000
100000
100000
100000
100000
100000
100000
100000
100000
100000
100000
100000
100000
100000
100000
100000
100000
100000
100000
100000
100000
100000
99999.9
99999.9
99999.8
99999.7
99999.6
99999.3
99998.9
99998.3
99997.3
99995.8
99993.6
99990.3
99985.4
99978.5
99968.6
99954.8
99935.6
99909.5
99874.4
99828.1
99767.6
99690.1
99592.2
99470.6
99321.6
99142.1
98929.1
98679.8
98392.5
98065.6
97698.7
97291.7
96845.4
96361.4
95841.3
95287.6
94702.7
94089.5
93450.6
92788.9
92106.9
91407.1
90692
89963.7
89224.1
88475.1
87718.2
86955
86186.7
85414.4
84639.1
83861.9
83083.3
82304.3
81525.3
80747
79969.8
79194.3
78420.8
77649.7
76881.3
76115.9
75353.8
74595.4
73840.7
73090
72343.5
71601.4
70863.9
70131
69403
68679.9
67961.8
67249
66541.4
65839.1
65142.1
64450.7
63764.8
63084.4
62409.6
61740.5
61077
60419.2
59767.2
59120.8
58480.2
57845.4
57216.3
56593
55975.4
55363.6
54757.6
54157.3
53562.9
52974.1
52391.1
51813.8
51242.3
50676.4
50116.4
49562
49013.3
48470.3
47933
47401.5
46875.6
46355.4
45840.9
45332.1
44829
44331.7
43840.1
43354.3
42874.4
42400.2
41932
41469.6
41013.3
40563
40118.9
39681
39249.4
38824.2
38405.7
37993.8
37588.9
37191.1
36800.6
36417.6
36042.5
35675.5
35317
34967.3
34626.9
34296.2
33975.8
33666
33367.6
33081
32807
32546.1
32299.1
32066.5
31848.9
31646.9
31460.9
31291.2
31138.1
31001.5
30881.2
30776.7
30687.4
30612.4
30550.5
30500.6
30461.1
30430.7
30407.8
30391.1
30379.3
30371.2
30365.9
30362.5
30360.2
30359
30358.1
30357.6
30357.1
30356.6
30356
30355.3
30354.6
30353.8
30353.1
30352.4
30351.7
30351.1
30350.5
30350.1
30349.7
30349.5
30349.2
30349.1
30348.9
30348.9
30348.9
30348.9
30348.8
30348.8
30348.8
30348.8
30348.7
30348.7
30348.7
30348.7
30348.6
30348.6
30348.6
30348.5
30348.5
30348.5
30348.4
30348.4
30348.3
30348.3
30348.2
30348.2
30348.1
30348.1
30348
30348
30347.9
30347.9
30347.7
30347.7
30347.6
30347.7
30347.5
30347.4
30347.1
30347.2
30348
30348.1
30346.5
30348
30344.9
30345
30345.5
30345.3
30345.3
30345.2
30345.4
30345.6
30346
30346.3
30346.7
30346.9
30347.1
30347.2
30347.2
30347.1
30347.1
30346.9
30346.8
30346.6
30346.5
30346.4
30346.3
30346.1
30346
30345.9
30345.8
30345.7
30345.5
30345.4
30345.3
30345.2
30345.2
30345.2
30345.2
30345.1
30345.1
30345.1
30345.1
30345
30344.9
30344.8
30344.7
30344.6
30344.5
30344.3
30344.1
30343.9
30343.8
30343.7
30343.6
30343.6
30343.6
30343.6
30343.6
30343.5
30343.5
30343.3
30343.1
30342.9
30342.7
30342.5
30342.3
30342
30341.7
30341.3
30340.9
30340.6
30340.2
30340
30339.7
30339.5
30339.3
30338.8
30338
30336.2
30332.8
30327.5
30319.7
30304.4
30285.5
30247.7
30143.7
29977
29432
28404.1
26013.3
21643.6
16771
13034.4
11054.4
10302.8
10078.8
10019.8
10004.9
10001.2
10000.3
10000.1
10000
10000
10000
10000
10000
10000
10000
10000
10000
10000
10000
10000
10000
10000
10000
10000
10000
10000
10000
10000
10000
10000
10000
10000
10000
10000
10000
10000
10000
10000
10000
10000
10000
10000
10000
10000
10000
10000
10000
10000
10000
10000
10000
10000
10000
10000
10000
10000
10000
10000
10000
10000
10000
10000
10000
10000
10000
10000
10000
10000
10000
10000
10000
10000
10000
10000
10000
10000
10000
10000
10000
10000
10000
10000
10000
10000
10000
10000
10000
10000
10000
10000
10000
10000
10000
10000
10000
10000
10000
10000
10000
10000
10000
10000
10000
10000
10000
10000
10000
10000
10000
10000
10000
10000
10000
10000
10000
10000
10000
10000
10000
10000
10000
10000
10000
10000
10000
10000
10000
10000
10000
10000
10000
10000
10000
10000
10000
10000
10000
10000
10000
10000
10000
10000
10000
10000
10000
10000
10000
10000
10000
10000
10000
10000
10000
10000
10000
10000
10000
10000
10000
10000
10000
10000
10000
10000
10000
10000
10000
10000
10000
10000
10000
10000
10000
10000
10000
10000
10000
10000
10000
10000
10000
10000
10000
10000
10000
10000
10000
10000
10000
10000
10000
10000
10000
10000
10000
10000
10000
10000
10000
10000
10000
10000
10000
10000
10000
10000
10000
10000
10000
10000
10000
10000
10000
10000
10000
10000
10000
10000
10000
10000
10000
10000
10000
10000
10000
10000
10000
10000
10000
10000
10000
10000
10000
10000
10000
10000
10000
10000
10000
10000
10000
10000
10000
10000
10000
10000
10000
10000
10000
10000
10000
10000
10000
10000
10000
10000
10000
10000
10000
10000
10000
10000
10000
10000
10000
10000
10000
10000
10000
10000
10000
10000
10000
10000
10000
10000
10000
10000
10000
10000
10000
10000
10000
10000
10000
10000
10000
10000
10000
10000
10000
10000
10000
10000
10000
10000
10000
10000
10000
10000
10000
10000
10000
10000
10000
10000
10000
10000
10000
10000
10000
10000
10000
10000
10000
10000
10000
10000
10000
10000
10000
10000
10000
10000
10000
10000
10000
10000
10000
10000
10000
10000
)
;

boundaryField
{
    sides
    {
        type            zeroGradient;
    }
    empty
    {
        type            empty;
    }
}


// ************************************************************************* //
