/*--------------------------------*- C++ -*----------------------------------*\
| =========                 |                                                 |
| \\      /  F ield         | OpenFOAM: The Open Source CFD Toolbox           |
|  \\    /   O peration     | Version:  4.0                                   |
|   \\  /    A nd           | Web:      www.OpenFOAM.org                      |
|    \\/     M anipulation  |                                                 |
\*---------------------------------------------------------------------------*/
FoamFile
{
    version     2.0;
    format      ascii;
    class       volVectorField;
    location    "0.003";
    object      U;
}
// * * * * * * * * * * * * * * * * * * * * * * * * * * * * * * * * * * * * * //

dimensions      [0 1 -1 0 0 0 0];

internalField   nonuniform List<vector> 
1000
(
(-6.56429e-13 0 0)
(-5.54317e-13 0 0)
(-7.43952e-13 0 0)
(-7.73127e-13 0 0)
(-7.5854e-13 0 0)
(-8.31476e-13 0 0)
(-7.5854e-13 0 0)
(-5.3973e-13 0 0)
(-8.16889e-13 0 0)
(-6.12667e-13 0 0)
(-7.5854e-13 0 0)
(-6.27254e-13 0 0)
(-7.5854e-13 0 0)
(-5.10556e-13 0 0)
(-7.5854e-13 0 0)
(-4.95968e-13 0 0)
(-5.68905e-13 0 0)
(-5.83492e-13 0 0)
(-4.95968e-13 0 0)
(-3.64683e-13 0 0)
(-4.66794e-13 0 0)
(-4.66794e-13 0 0)
(-5.10556e-13 0 0)
(-5.25143e-13 0 0)
(-5.25143e-13 0 0)
(-7.0019e-13 0 0)
(-7.43952e-13 0 0)
(-6.41841e-13 0 0)
(-8.46063e-13 0 0)
(-7.73127e-13 0 0)
(-8.60651e-13 0 0)
(-6.71016e-13 0 0)
(-7.29365e-13 0 0)
(-9.91936e-13 0 0)
(-6.85603e-13 0 0)
(-9.77349e-13 0 0)
(-5.54317e-13 0 0)
(-9.62762e-13 0 0)
(-4.95968e-13 0 0)
(-9.77349e-13 0 0)
(-5.10556e-13 0 0)
(-8.89825e-13 0 0)
(-7.0019e-13 0 0)
(-9.04413e-13 0 0)
(-9.04413e-13 0 0)
(-8.16889e-13 0 0)
(-1.02111e-12 0 0)
(-8.60651e-13 0 0)
(-9.48175e-13 0 0)
(-1.29827e-12 0 0)
(-1.22533e-12 0 0)
(-1.22533e-12 0 0)
(-1.13781e-12 0 0)
(-1.25451e-12 0 0)
(-9.19e-13 0 0)
(-9.48175e-13 0 0)
(-6.27254e-13 0 0)
(-6.71016e-13 0 0)
(-4.52206e-13 0 0)
(-6.56429e-13 0 0)
(-5.83492e-13 0 0)
(-9.19e-13 0 0)
(-8.16889e-13 0 0)
(-8.46063e-13 0 0)
(-8.16889e-13 0 0)
(-8.16889e-13 0 0)
(-1.06487e-12 0 0)
(-9.48175e-13 0 0)
(-8.16889e-13 0 0)
(-1.02111e-12 0 0)
(-8.60651e-13 0 0)
(-1.1524e-12 0 0)
(-8.75238e-13 0 0)
(-1.1524e-12 0 0)
(-1.1524e-12 0 0)
(-1.19616e-12 0 0)
(-9.91936e-13 0 0)
(-1.12322e-12 0 0)
(-1.19616e-12 0 0)
(-1.00652e-12 0 0)
(-1.1524e-12 0 0)
(-9.19e-13 0 0)
(-9.33587e-13 0 0)
(-8.02302e-13 0 0)
(-8.02302e-13 0 0)
(-9.04413e-13 0 0)
(-7.73127e-13 0 0)
(-8.75238e-13 0 0)
(-4.81381e-13 0 0)
(-7.14778e-13 0 0)
(-5.10556e-13 0 0)
(-7.87714e-13 0 0)
(-4.66794e-13 0 0)
(-8.31476e-13 0 0)
(-5.54317e-13 0 0)
(-5.98079e-13 0 0)
(-5.3973e-13 0 0)
(-5.25143e-13 0 0)
(-5.54317e-13 0 0)
(-4.81381e-13 0 0)
(-5.25143e-13 0 0)
(-5.68905e-13 0 0)
(-5.68905e-13 0 0)
(-6.85603e-13 0 0)
(-6.12667e-13 0 0)
(-6.12667e-13 0 0)
(-5.68905e-13 0 0)
(-5.83492e-13 0 0)
(-6.71016e-13 0 0)
(-6.41841e-13 0 0)
(-5.3973e-13 0 0)
(-4.95968e-13 0 0)
(-6.12667e-13 0 0)
(-5.10556e-13 0 0)
(-3.64683e-13 0 0)
(-3.93857e-13 0 0)
(-2.04222e-13 0 0)
(-1.02111e-13 0 0)
(5.83492e-14 0 0)
(-3.7927e-13 0 0)
(-5.83492e-14 0 0)
(-4.23032e-13 0 0)
(5.83492e-14 0 0)
(-3.7927e-13 0 0)
(-2.1881e-13 0 0)
(-3.64683e-13 0 0)
(-5.83492e-14 0 0)
(-2.62571e-13 0 0)
(-5.83492e-14 0 0)
(-3.35508e-13 0 0)
(-3.06333e-13 0 0)
(-5.54317e-13 0 0)
(-6.71016e-13 0 0)
(-6.27254e-13 0 0)
(-4.08444e-13 0 0)
(-7.43952e-13 0 0)
(-6.12667e-13 0 0)
(-7.0019e-13 0 0)
(-4.66794e-13 0 0)
(-7.73127e-13 0 0)
(-5.54317e-13 0 0)
(-6.12667e-13 0 0)
(-5.68905e-13 0 0)
(-4.81381e-13 0 0)
(-4.81381e-13 0 0)
(-4.95968e-13 0 0)
(-5.10556e-13 0 0)
(-3.64683e-13 0 0)
(-4.52206e-13 0 0)
(-5.3973e-13 0 0)
(-4.81381e-13 0 0)
(-7.29365e-13 0 0)
(-5.25143e-13 0 0)
(-7.0019e-13 0 0)
(-4.52206e-13 0 0)
(-5.98079e-13 0 0)
(-5.68905e-13 0 0)
(-6.71016e-13 0 0)
(-3.50095e-13 0 0)
(-1.89635e-13 0 0)
(-5.83492e-14 0 0)
(-1.45873e-14 0 0)
(-5.83492e-14 0 0)
(-1.16698e-13 0 0)
(-1.45873e-14 0 0)
(-2.04222e-13 0 0)
(-5.83492e-14 0 0)
(-1.45873e-14 0 0)
(-4.52206e-13 0 0)
(-4.37619e-13 0 0)
(-5.25143e-13 0 0)
(-4.66794e-13 0 0)
(-5.98079e-13 0 0)
(-5.25143e-13 0 0)
(-4.95968e-13 0 0)
(-4.52206e-13 0 0)
(-3.06333e-13 0 0)
(-3.7927e-13 0 0)
(-2.91746e-13 0 0)
(-4.08444e-13 0 0)
(-3.20921e-13 0 0)
(-5.10556e-13 0 0)
(-2.47984e-13 0 0)
(-2.1881e-13 0 0)
(-1.45873e-14 0 0)
(-1.02111e-13 0 0)
(7.29365e-14 0 0)
(-8.75238e-14 0 0)
(1.45873e-14 0 0)
(-7.29365e-14 0 0)
(-2.91746e-14 0 0)
(-1.45873e-14 0 0)
(2.47984e-13 0 0)
(2.04222e-13 0 0)
(2.33397e-13 0 0)
(2.1881e-13 0 0)
(4.08444e-13 0 0)
(3.35508e-13 0 0)
(3.20921e-13 0 0)
(2.77159e-13 0 0)
(3.50095e-13 0 0)
(5.3973e-13 0 0)
(1.75048e-13 0 0)
(2.91746e-13 0 0)
(1.45873e-14 0 0)
(2.33397e-13 0 0)
(-1.75048e-13 0 0)
(2.33397e-13 0 0)
(-1.6046e-13 0 0)
(2.91746e-14 0 0)
(-2.04222e-13 0 0)
(-7.39636e-27 0 0)
(-2.62571e-13 0 0)
(-3.50095e-13 0 0)
(-5.10556e-13 0 0)
(-5.3973e-13 0 0)
(-5.98079e-13 0 0)
(-5.3973e-13 0 0)
(-5.83492e-13 0 0)
(-6.27254e-13 0 0)
(-8.46063e-13 0 0)
(-8.46063e-13 0 0)
(-9.48175e-13 0 0)
(-9.04413e-13 0 0)
(-1.02111e-12 0 0)
(-8.46063e-13 0 0)
(-1.19616e-12 0 0)
(-1.02111e-12 0 0)
(-1.32744e-12 0 0)
(-1.00652e-12 0 0)
(-1.18157e-12 0 0)
(-8.16889e-13 0 0)
(-9.19e-13 0 0)
(-6.41841e-13 0 0)
(-5.25143e-13 0 0)
(-1.6046e-13 0 0)
(-7.29365e-14 0 0)
(-1.89635e-13 0 0)
(-1.45873e-13 0 0)
(-2.47984e-13 0 0)
(-4.23032e-13 0 0)
(-3.64683e-13 0 0)
(-4.08444e-13 0 0)
(-4.95968e-13 0 0)
(-3.50095e-13 0 0)
(-6.27254e-13 0 0)
(-4.52206e-13 0 0)
(-4.95968e-13 0 0)
(-4.23032e-13 0 0)
(-2.47984e-13 0 0)
(-2.91746e-13 0 0)
(-3.06333e-13 0 0)
(-4.08444e-13 0 0)
(-5.3973e-13 0 0)
(-6.27254e-13 0 0)
(-7.43952e-13 0 0)
(-3.50095e-13 0 0)
(-3.93857e-13 0 0)
(-2.33397e-13 0 0)
(-2.04222e-13 0 0)
(-1.02111e-13 0 0)
(7.29365e-14 0 0)
(1.31286e-13 0 0)
(3.7927e-13 0 0)
(1.31286e-13 0 0)
(2.91746e-14 0 0)
(-1.75048e-13 0 0)
(-5.83492e-14 0 0)
(-2.62571e-13 0 0)
(-3.64683e-13 0 0)
(-5.98079e-13 0 0)
(-5.98079e-13 0 0)
(-7.0019e-13 0 0)
(-5.68905e-13 0 0)
(-8.46063e-13 0 0)
(-1.02111e-12 0 0)
(-1.16698e-12 0 0)
(-1.07946e-12 0 0)
(-1.42956e-12 0 0)
(-1.16698e-12 0 0)
(-1.29827e-12 0 0)
(-1.12322e-12 0 0)
(-1.38579e-12 0 0)
(-1.05029e-12 0 0)
(-1.10863e-12 0 0)
(-8.60651e-13 0 0)
(-8.89825e-13 0 0)
(-7.0019e-13 0 0)
(-5.68905e-13 0 0)
(-4.23032e-13 0 0)
(-5.25143e-13 0 0)
(-4.52206e-13 0 0)
(-6.27254e-13 0 0)
(-5.83492e-13 0 0)
(-6.71016e-13 0 0)
(-6.41841e-13 0 0)
(-7.87714e-13 0 0)
(-6.71016e-13 0 0)
(-7.5854e-13 0 0)
(-7.43952e-13 0 0)
(-9.19e-13 0 0)
(-8.89825e-13 0 0)
(-8.16889e-13 0 0)
(-8.89825e-13 0 0)
(-1.09405e-12 0 0)
(-9.48175e-13 0 0)
(-9.33587e-13 0 0)
(-7.14778e-13 0 0)
(-7.43952e-13 0 0)
(-7.73127e-13 0 0)
(-7.29365e-13 0 0)
(-7.5854e-13 0 0)
(-8.89825e-13 0 0)
(-6.85603e-13 0 0)
(-7.43952e-13 0 0)
(-6.27254e-13 0 0)
(-6.71016e-13 0 0)
(-5.25143e-13 0 0)
(-6.56429e-13 0 0)
(-5.54317e-13 0 0)
(-3.06333e-13 0 0)
(-1.02111e-13 0 0)
(2.91746e-13 0 0)
(1.00652e-12 0 0)
(2.31938e-12 0 0)
(5.41189e-12 0 0)
(1.15094e-11 0 0)
(2.39378e-11 0 0)
(4.94509e-11 0 0)
(1.01178e-10 0 0)
(2.0431e-10 0 0)
(4.10589e-10 0 0)
(8.17735e-10 0 0)
(1.6177e-09 0 0)
(3.17668e-09 0 0)
(6.19203e-09 0 0)
(1.19827e-08 0 0)
(2.30156e-08 0 0)
(4.38759e-08 0 0)
(8.30052e-08 0 0)
(1.55819e-07 0 0)
(2.90215e-07 0 0)
(5.36234e-07 0 0)
(9.82821e-07 0 0)
(1.7866e-06 0 0)
(3.22076e-06 0 0)
(5.75722e-06 0 0)
(1.02031e-05 0 0)
(1.79251e-05 0 0)
(3.12131e-05 0 0)
(5.38634e-05 0 0)
(9.21021e-05 0 0)
(0.000156026 0 0)
(0.000261821 0 0)
(0.000435134 0 0)
(0.000716105 0 0)
(0.00116678 0 0)
(0.00188183 0 0)
(0.00300377 0 0)
(0.00474422 0 0)
(0.00741288 0 0)
(0.0114562 0 0)
(0.017508 0 0)
(0.026453 0 0)
(0.0395061 0 0)
(0.0583047 0 0)
(0.0850156 0 0)
(0.122449 0 0)
(0.174172 0 0)
(0.244617 0 0)
(0.339159 0 0)
(0.464155 0 0)
(0.626926 0 0)
(0.835662 0 0)
(1.09925 0 0)
(1.42702 0 0)
(1.8284 0 0)
(2.31256 0 0)
(2.88797 0 0)
(3.56207 0 0)
(4.3409 0 0)
(5.22885 0 0)
(6.22856 0 0)
(7.34084 0 0)
(8.56479 0 0)
(9.89791 0 0)
(11.3364 0 0)
(12.8754 0 0)
(14.5092 0 0)
(16.2317 0 0)
(18.0365 0 0)
(19.9174 0 0)
(21.8681 0 0)
(23.8827 0 0)
(25.9555 0 0)
(28.0813 0 0)
(30.2553 0 0)
(32.4733 0 0)
(34.7311 0 0)
(37.0252 0 0)
(39.3525 0 0)
(41.7101 0 0)
(44.0954 0 0)
(46.5062 0 0)
(48.9404 0 0)
(51.3961 0 0)
(53.8718 0 0)
(56.3659 0 0)
(58.8771 0 0)
(61.4041 0 0)
(63.9459 0 0)
(66.5015 0 0)
(69.0697 0 0)
(71.6499 0 0)
(74.2411 0 0)
(76.8426 0 0)
(79.4536 0 0)
(82.0736 0 0)
(84.7018 0 0)
(87.3377 0 0)
(89.9808 0 0)
(92.6304 0 0)
(95.2861 0 0)
(97.9474 0 0)
(100.614 0 0)
(103.285 0 0)
(105.961 0 0)
(108.641 0 0)
(111.324 0 0)
(114.011 0 0)
(116.701 0 0)
(119.393 0 0)
(122.088 0 0)
(124.786 0 0)
(127.485 0 0)
(130.186 0 0)
(132.888 0 0)
(135.592 0 0)
(138.296 0 0)
(141.002 0 0)
(143.708 0 0)
(146.415 0 0)
(149.121 0 0)
(151.828 0 0)
(154.535 0 0)
(157.241 0 0)
(159.947 0 0)
(162.652 0 0)
(165.357 0 0)
(168.058 0 0)
(170.761 0 0)
(173.46 0 0)
(176.159 0 0)
(178.855 0 0)
(181.549 0 0)
(184.241 0 0)
(186.929 0 0)
(189.615 0 0)
(192.298 0 0)
(194.977 0 0)
(197.652 0 0)
(200.322 0 0)
(202.988 0 0)
(205.649 0 0)
(208.304 0 0)
(210.952 0 0)
(213.595 0 0)
(216.23 0 0)
(218.857 0 0)
(221.475 0 0)
(224.084 0 0)
(226.683 0 0)
(229.27 0 0)
(231.846 0 0)
(234.407 0 0)
(236.954 0 0)
(239.485 0 0)
(241.998 0 0)
(244.492 0 0)
(246.964 0 0)
(249.412 0 0)
(251.834 0 0)
(254.228 0 0)
(256.59 0 0)
(258.917 0 0)
(261.205 0 0)
(263.452 0 0)
(265.651 0 0)
(267.799 0 0)
(269.891 0 0)
(271.922 0 0)
(273.885 0 0)
(275.774 0 0)
(277.585 0 0)
(279.309 0 0)
(280.942 0 0)
(282.476 0 0)
(283.908 0 0)
(285.231 0 0)
(286.441 0 0)
(287.537 0 0)
(288.517 0 0)
(289.381 0 0)
(290.132 0 0)
(290.774 0 0)
(291.313 0 0)
(291.757 0 0)
(292.114 0 0)
(292.396 0 0)
(292.613 0 0)
(292.775 0 0)
(292.893 0 0)
(292.975 0 0)
(293.032 0 0)
(293.069 0 0)
(293.092 0 0)
(293.107 0 0)
(293.115 0 0)
(293.121 0 0)
(293.124 0 0)
(293.128 0 0)
(293.131 0 0)
(293.136 0 0)
(293.14 0 0)
(293.145 0 0)
(293.151 0 0)
(293.156 0 0)
(293.161 0 0)
(293.166 0 0)
(293.17 0 0)
(293.174 0 0)
(293.177 0 0)
(293.179 0 0)
(293.181 0 0)
(293.182 0 0)
(293.183 0 0)
(293.183 0 0)
(293.183 0 0)
(293.183 0 0)
(293.183 0 0)
(293.182 0 0)
(293.182 0 0)
(293.182 0 0)
(293.182 0 0)
(293.182 0 0)
(293.181 0 0)
(293.181 0 0)
(293.181 0 0)
(293.181 0 0)
(293.181 0 0)
(293.181 0 0)
(293.181 0 0)
(293.18 0 0)
(293.18 0 0)
(293.18 0 0)
(293.18 0 0)
(293.18 0 0)
(293.18 0 0)
(293.18 0 0)
(293.18 0 0)
(293.18 0 0)
(293.18 0 0)
(293.18 0 0)
(293.18 0 0)
(293.18 0 0)
(293.18 0 0)
(293.181 0 0)
(293.181 0 0)
(293.181 0 0)
(293.181 0 0)
(293.182 0 0)
(293.182 0 0)
(293.183 0 0)
(293.181 0 0)
(293.181 0 0)
(293.186 0 0)
(293.201 0 0)
(293.206 0 0)
(293.193 0 0)
(293.175 0 0)
(293.159 0 0)
(293.147 0 0)
(293.135 0 0)
(293.124 0 0)
(293.114 0 0)
(293.108 0 0)
(293.107 0 0)
(293.109 0 0)
(293.115 0 0)
(293.124 0 0)
(293.133 0 0)
(293.142 0 0)
(293.149 0 0)
(293.155 0 0)
(293.159 0 0)
(293.162 0 0)
(293.164 0 0)
(293.164 0 0)
(293.165 0 0)
(293.164 0 0)
(293.164 0 0)
(293.164 0 0)
(293.163 0 0)
(293.163 0 0)
(293.162 0 0)
(293.163 0 0)
(293.163 0 0)
(293.163 0 0)
(293.162 0 0)
(293.162 0 0)
(293.161 0 0)
(293.16 0 0)
(293.159 0 0)
(293.157 0 0)
(293.156 0 0)
(293.155 0 0)
(293.155 0 0)
(293.154 0 0)
(293.153 0 0)
(293.152 0 0)
(293.152 0 0)
(293.152 0 0)
(293.152 0 0)
(293.151 0 0)
(293.151 0 0)
(293.151 0 0)
(293.151 0 0)
(293.15 0 0)
(293.149 0 0)
(293.147 0 0)
(293.145 0 0)
(293.143 0 0)
(293.141 0 0)
(293.139 0 0)
(293.137 0 0)
(293.136 0 0)
(293.135 0 0)
(293.134 0 0)
(293.133 0 0)
(293.132 0 0)
(293.13 0 0)
(293.129 0 0)
(293.128 0 0)
(293.127 0 0)
(293.126 0 0)
(293.125 0 0)
(293.123 0 0)
(293.12 0 0)
(293.115 0 0)
(293.109 0 0)
(293.1 0 0)
(293.089 0 0)
(293.074 0 0)
(293.057 0 0)
(293.03 0 0)
(292.993 0 0)
(292.915 0 0)
(292.827 0 0)
(292.545 0 0)
(292.25 0 0)
(291.339 0 0)
(289.722 0 0)
(285.78 0 0)
(276.191 0 0)
(254.891 0 0)
(210.308 0 0)
(141.43 0 0)
(71.1435 0 0)
(26.5954 0 0)
(8.08776 0 0)
(2.18392 0 0)
(0.556793 0 0)
(0.139158 0 0)
(0.0345905 0 0)
(0.00858693 0 0)
(0.00213103 0 0)
(0.000528825 0 0)
(0.000131228 0 0)
(3.25644e-05 0 0)
(8.0809e-06 0 0)
(2.00529e-06 0 0)
(4.97617e-07 0 0)
(1.23486e-07 0 0)
(3.06438e-08 0 0)
(7.6052e-09 0 0)
(1.88754e-09 0 0)
(4.69041e-10 0 0)
(1.16655e-10 0 0)
(2.93789e-11 0 0)
(7.68752e-12 0 0)
(2.49443e-12 0 0)
(1.29827e-12 0 0)
(7.58541e-13 0 0)
(9.04414e-13 0 0)
(5.9808e-13 0 0)
(6.85604e-13 0 0)
(4.23032e-13 0 0)
(7.14779e-13 0 0)
(5.83493e-13 0 0)
(4.66794e-13 0 0)
(6.41842e-13 0 0)
(6.85604e-13 0 0)
(6.85604e-13 0 0)
(9.33589e-13 0 0)
(9.77351e-13 0 0)
(9.77351e-13 0 0)
(9.77351e-13 0 0)
(1.00653e-12 0 0)
(6.85604e-13 0 0)
(1.07946e-12 0 0)
(9.62763e-13 0 0)
(1.28368e-12 0 0)
(1.18157e-12 0 0)
(1.40038e-12 0 0)
(1.09405e-12 0 0)
(1.42956e-12 0 0)
(1.05029e-12 0 0)
(1.37121e-12 0 0)
(1.21075e-12 0 0)
(1.22533e-12 0 0)
(9.91938e-13 0 0)
(1.10864e-12 0 0)
(8.02303e-13 0 0)
(8.1689e-13 0 0)
(7.73128e-13 0 0)
(9.04414e-13 0 0)
(7.58541e-13 0 0)
(7.43953e-13 0 0)
(6.85604e-13 0 0)
(7.58541e-13 0 0)
(5.83493e-13 0 0)
(5.68906e-13 0 0)
(4.66794e-13 0 0)
(6.71017e-13 0 0)
(7.87715e-13 0 0)
(8.31477e-13 0 0)
(8.31477e-13 0 0)
(8.46065e-13 0 0)
(9.19001e-13 0 0)
(8.60652e-13 0 0)
(1.21075e-12 0 0)
(9.48176e-13 0 0)
(1.0357e-12 0 0)
(8.60652e-13 0 0)
(9.19001e-13 0 0)
(8.02303e-13 0 0)
(6.56429e-13 0 0)
(7.00191e-13 0 0)
(6.85604e-13 0 0)
(8.31477e-13 0 0)
(8.1689e-13 0 0)
(8.1689e-13 0 0)
(9.91938e-13 0 0)
(7.87715e-13 0 0)
(8.1689e-13 0 0)
(6.27255e-13 0 0)
(8.46065e-13 0 0)
(5.68906e-13 0 0)
(5.54318e-13 0 0)
(5.9808e-13 0 0)
(3.50096e-13 0 0)
(5.10556e-13 0 0)
(2.33397e-13 0 0)
(6.27255e-13 0 0)
(3.7927e-13 0 0)
(7.58541e-13 0 0)
(2.62572e-13 0 0)
(5.68906e-13 0 0)
(3.35508e-13 0 0)
(4.3762e-13 0 0)
(2.33397e-13 0 0)
(2.62572e-13 0 0)
(1.02111e-13 0 0)
(-1.45873e-14 0 0)
(-3.06334e-13 0 0)
(-2.33397e-13 0 0)
(-2.77159e-13 0 0)
(-1.89635e-13 0 0)
(-3.35508e-13 0 0)
(-7.29366e-14 0 0)
(-4.3762e-14 0 0)
(1.75048e-13 0 0)
(1.60461e-13 0 0)
(2.33397e-13 0 0)
(2.77159e-13 0 0)
(-1.45873e-14 0 0)
(1.31286e-13 0 0)
(5.83493e-14 0 0)
(1.45873e-14 0 0)
(5.83493e-14 0 0)
(-1.16699e-13 0 0)
(-7.29366e-14 0 0)
(-7.29366e-14 0 0)
(1.45873e-14 0 0)
(7.29366e-14 0 0)
(4.81521e-27 0 0)
(1.89635e-13 0 0)
(2.47984e-13 0 0)
(4.08445e-13 0 0)
(3.64683e-13 0 0)
(1.75048e-13 0 0)
(3.50096e-13 0 0)
(1.60461e-13 0 0)
(2.47984e-13 0 0)
(1.75048e-13 0 0)
(2.33397e-13 0 0)
(3.90197e-27 0 0)
(3.64683e-13 0 0)
(2.04222e-13 0 0)
(1.75048e-13 0 0)
(1.02111e-13 0 0)
(2.62572e-13 0 0)
(2.77159e-13 0 0)
(1.89635e-13 0 0)
(2.77159e-13 0 0)
(1.89635e-13 0 0)
(2.33397e-13 0 0)
(1.31286e-13 0 0)
(-5.83493e-14 0 0)
(-7.29366e-14 0 0)
(5.83493e-14 0 0)
(-2.62572e-13 0 0)
(-1.75048e-13 0 0)
(-3.35508e-13 0 0)
(-7.29366e-14 0 0)
(-1.60461e-13 0 0)
(1.45873e-14 0 0)
(-1.02111e-13 0 0)
(8.75239e-14 0 0)
(-1.02111e-13 0 0)
(2.04222e-13 0 0)
(-2.91746e-14 0 0)
(-4.96667e-27 0 0)
(-3.64683e-13 0 0)
(-4.3762e-14 0 0)
(-3.64683e-13 0 0)
(-7.29366e-14 0 0)
(-3.93858e-13 0 0)
(-1.45873e-14 0 0)
(-1.02111e-13 0 0)
(-7.29366e-14 0 0)
(6.45604e-27 0 0)
(2.04222e-13 0 0)
(-7.29366e-14 0 0)
(5.83493e-14 0 0)
(1.45873e-14 0 0)
(1.89635e-13 0 0)
(1.16699e-13 0 0)
(3.06334e-13 0 0)
(-4.3762e-14 0 0)
(-2.91746e-14 0 0)
(2.91746e-14 0 0)
(-2.91746e-14 0 0)
(2.47984e-13 0 0)
(1.02111e-13 0 0)
(2.1881e-13 0 0)
(1.89635e-13 0 0)
(2.47984e-13 0 0)
(2.91746e-14 0 0)
(3.93858e-13 0 0)
(3.50096e-13 0 0)
(4.08445e-13 0 0)
(5.25144e-13 0 0)
(5.9808e-13 0 0)
(3.50096e-13 0 0)
(4.66794e-13 0 0)
(1.89635e-13 0 0)
(5.25144e-13 0 0)
(3.64683e-13 0 0)
(5.39731e-13 0 0)
(2.62572e-13 0 0)
(2.47984e-13 0 0)
(8.75239e-14 0 0)
(1.31286e-13 0 0)
(1.45873e-14 0 0)
(-1.02111e-13 0 0)
(2.77159e-13 0 0)
(-1.02111e-13 0 0)
(2.62572e-13 0 0)
(2.91746e-14 0 0)
(1.45873e-14 0 0)
(-5.83493e-14 0 0)
(4.3762e-14 0 0)
(5.83493e-14 0 0)
(-1.45873e-14 0 0)
(4.3762e-14 0 0)
(-1.75048e-13 0 0)
(-5.83493e-14 0 0)
(1.45873e-14 0 0)
(4.3762e-14 0 0)
(1.89635e-13 0 0)
(7.29366e-14 0 0)
(2.77159e-13 0 0)
(3.06334e-13 0 0)
(4.52207e-13 0 0)
(2.91746e-13 0 0)
(1.75048e-13 0 0)
(2.33397e-13 0 0)
(8.75239e-14 0 0)
(2.77159e-13 0 0)
(7.29366e-14 0 0)
(1.16699e-13 0 0)
(1.89635e-13 0 0)
(1.60461e-13 0 0)
(-1.02111e-13 0 0)
(2.91746e-14 0 0)
(7.29366e-14 0 0)
(1.02111e-13 0 0)
(1.16699e-13 0 0)
(-1.45873e-14 0 0)
(1.02111e-13 0 0)
(8.75239e-14 0 0)
(7.29366e-14 0 0)
(-2.91746e-14 0 0)
(-1.45873e-14 0 0)
(-5.83493e-14 0 0)
(-1.89635e-13 0 0)
(-1.60461e-13 0 0)
(-1.60461e-13 0 0)
(-4.3762e-14 0 0)
(-1.16699e-13 0 0)
(5.83493e-14 0 0)
(-2.1881e-13 0 0)
(-2.1881e-13 0 0)
(-3.06334e-13 0 0)
(-4.95969e-13 0 0)
(-3.64683e-13 0 0)
(-5.25144e-13 0 0)
(-2.1881e-13 0 0)
(-2.77159e-13 0 0)
(-2.91746e-13 0 0)
(-3.93858e-13 0 0)
(-4.23032e-13 0 0)
(-3.50096e-13 0 0)
(-2.62572e-13 0 0)
(-2.33397e-13 0 0)
(-5.83493e-14 0 0)
(4.3762e-14 0 0)
(1.45873e-14 0 0)
(8.75239e-14 0 0)
(-5.83493e-14 0 0)
(-1.45873e-14 0 0)
(1.45873e-13 0 0)
(2.47984e-13 0 0)
(1.89635e-13 0 0)
(2.91746e-14 0 0)
(-7.29366e-14 0 0)
(4.3762e-14 0 0)
(-3.8812e-28 0 0)
(-8.75239e-14 0 0)
(-1.45873e-14 0 0)
(-1.60461e-13 0 0)
(8.75239e-14 0 0)
(-1.16699e-13 0 0)
(-7.29366e-14 0 0)
(-3.50096e-13 0 0)
(-1.16699e-13 0 0)
(-1.31286e-13 0 0)
(8.75239e-14 0 0)
(-2.91746e-14 0 0)
(-1.31286e-13 0 0)
(5.83493e-14 0 0)
(-7.29366e-14 0 0)
(-2.62572e-13 0 0)
(-2.33397e-13 0 0)
(-4.08445e-13 0 0)
(-3.35508e-13 0 0)
(-5.10556e-13 0 0)
(-3.93858e-13 0 0)
(-4.66794e-13 0 0)
(-3.20921e-13 0 0)
(-4.66794e-13 0 0)
(-4.23032e-13 0 0)
(-3.7927e-13 0 0)
(-2.47984e-13 0 0)
(-2.77159e-13 0 0)
(-2.91746e-14 0 0)
(-2.1881e-13 0 0)
(-2.62572e-13 0 0)
(-2.04222e-13 0 0)
(-1.02111e-13 0 0)
(-3.12704e-27 0 0)
(-4.3762e-14 0 0)
(-2.91746e-14 0 0)
(-2.62572e-13 0 0)
(1.75048e-13 0 0)
(-1.45873e-13 0 0)
(1.45873e-13 0 0)
(-1.16699e-13 0 0)
(2.91746e-13 0 0)
(1.60461e-13 0 0)
(2.47984e-13 0 0)
(2.47984e-13 0 0)
(-4.3762e-14 0 0)
(-5.83493e-14 0 0)
(-5.83493e-14 0 0)
(-1.45873e-14 0 0)
(-1.45873e-14 0 0)
(1.02111e-13 0 0)
(1.02111e-13 0 0)
)
;

boundaryField
{
    sides
    {
        type            zeroGradient;
    }
    empty
    {
        type            empty;
    }
}


// ************************************************************************* //
