/*--------------------------------*- C++ -*----------------------------------*\
| =========                 |                                                 |
| \\      /  F ield         | OpenFOAM: The Open Source CFD Toolbox           |
|  \\    /   O peration     | Version:  4.0                                   |
|   \\  /    A nd           | Web:      www.OpenFOAM.org                      |
|    \\/     M anipulation  |                                                 |
\*---------------------------------------------------------------------------*/
FoamFile
{
    version     2.0;
    format      ascii;
    class       volScalarField;
    location    "70";
    object      p;
}
// * * * * * * * * * * * * * * * * * * * * * * * * * * * * * * * * * * * * * //

dimensions      [0 2 -2 0 0 0 0];

internalField   nonuniform List<scalar> 
918
(
0.557647
1.18156
0.00128915
0.557098
-0.0125667
1.14857
-0.511053
0.658297
0.537849
-0.107173
-0.0519112
0.540239
1.00914
0.774619
-1.12351
-0.0104967
0.65208
-0.381219
0.536965
-0.0601133
0.687721
0.544386
0.547411
0.537989
0.598248
0.749434
0.889987
0.0245303
0.00986221
0.00532096
-0.0119441
-0.0387908
-0.0329126
1.03224
1.0833
1.10598
0.50559
0.334106
-0.376436
-0.44943
-0.436629
-0.544661
0.657125
0.656568
-0.212762
0.661209
0.662505
0.524867
0.537218
0.53813
0.539147
0.538134
0.539513
0.40429
-0.107553
-0.138842
-0.0880336
-0.081752
0.0527307
-0.0531102
-0.0556858
-0.0502109
-0.0494763
0.454684
0.534437
0.530889
0.544427
0.553802
1.12111
1.09306
1.11919
1.03276
1.0493
0.987158
0.959776
0.795772
0.817315
0.758866
0.74706
-1.55439
-2.50453
-0.534415
-0.284216
-0.010622
-0.00837136
-0.00294182
0.649271
0.650655
0.651513
0.653469
1.07985
-0.378794
-0.479372
0.537107
0.535918
0.544234
0.544935
0.540955
0.540045
-0.05121
-0.0478814
-0.0509352
-0.0560933
-0.054372
0.673446
0.674673
0.538516
0.535519
0.561476
0.581743
0.571812
0.277949
0.608981
0.624818
0.581468
0.743868
0.736259
0.745855
0.863577
0.826603
0.927257
0.950518
0.0171499
-4.60332e-05
-0.0152183
-0.0194951
-0.0181639
0.501417
0.493951
0.521487
0.509029
0.511539
0.250906
0.117625
0.419038
0.443832
-0.295635
-0.362476
-0.429117
-0.459831
-0.568356
0.612867
0.656093
0.654738
-0.222675
-0.150892
-0.284412
-0.0778025
-0.140861
0.515122
0.522144
0.517137
0.532702
0.527166
0.529131
0.54149
0.53856
0.54012
0.466402
0.589894
0.330534
0.295092
-0.242248
-0.154207
-0.241792
-0.0714809
-0.0692435
0.0668149
0.0924824
0.0394494
0.0276776
-0.0649227
-0.0587843
-0.0614981
-0.0476593
-0.0469679
0.447416
0.43618
0.467387
0.474957
0.520782
0.52229
0.526797
0.524611
0.910681
0.932978
0.940491
0.914352
-3.49272
-6.27204
0.040053
0.176287
-0.00673104
-0.00939385
0.00197646
-0.00586032
0.000208105
-0.00196028
-0.00773305
-0.00919235
-0.00428988
-0.0030146
0.64395
0.644921
1.00213
1.0091
0.977647
0.930559
0.525331
0.527401
0.532895
0.52878
-0.0466398
-0.0467188
-0.0463485
0.665623
0.67096
0.668475
0.239371
0.149449
0.329112
0.358314
0.637307
0.625905
0.635508
0.641336
0.676781
0.957885
0.976027
0.974369
0.982697
1.02681
1.04327
1.00849
0.480809
0.490821
0.485751
0.524525
0.522317
0.523204
0.519524
0.520492
0.518699
-0.0327158
-0.412316
0.491115
0.507922
0.493413
0.495719
0.692974
0.77156
0.653031
0.654423
0.654036
-0.00843998
-0.0669495
0.250234
0.216128
0.386839
0.423332
0.402264
0.881744
0.84232
0.892336
0.865787
0.82719
0.853022
-0.36386
-1.86198
-0.981865
0.524577
0.339631
0.426248
0.009467
-0.00720796
-0.00267398
1.00179
1.07404
0.645661
0.820496
0.823123
0.714213
0.744803
0.79957
0.725178
0.759987
0.794946
0.776856
0.568804
0.504204
0.5202
0.840608
0.896301
0.119137
0.0572478
0.0134537
0.111401
0.168906
0.142905
1.03402
0.950002
1.02016
0.53528
0.536003
-0.00518457
-0.0183934
0.540252
0.540308
-0.0124754
-0.00153138
0.409783
-0.831113
0.0979799
0.52884
0.518723
0.535866
-0.0927171
0.35585
-0.0516875
0.0480514
-0.0087431
0.530423
0.465831
0.424859
0.00051049
-0.0195742
-0.050947
-0.212724
0.53295
0.531255
0.535334
0.536274
0.536956
-0.0187057
-0.0143862
-0.0103004
-0.0477448
-0.0411099
-0.0533007
0.49975
0.519193
-0.170402
0.53548
0.537616
0.537434
0.5307
0.536329
0.534583
-0.0104399
-0.0154673
-0.017742
0.219481
0.351872
0.648696
0.734863
0.620956
0.397244
0.162775
0.552425
0.615533
0.521514
0.674704
0.651625
0.658059
0.163493
0.0131341
0.17234
0.1141
0.526702
0.525424
0.516975
0.513933
0.530733
0.528848
0.533406
0.53043
0.53338
0.53476
-0.0489709
-0.0756246
-0.0847413
-0.151769
0.310547
0.571575
0.255046
0.284462
0.142208
-0.0461985
-0.0478262
-0.0496102
-0.0584093
0.00117739
-0.0243095
0.0427294
0.0429127
0.0145373
-0.0111632
-0.00851579
-0.0195105
-0.0138864
0.523684
0.523744
0.528141
0.536857
0.475506
0.479292
0.444087
0.464857
0.450098
0.388723
0.424096
0.399286
-0.00547061
0.00308462
-0.00242685
-0.017561
-0.0142731
-0.0334649
-0.0303487
-0.0257622
-0.0217467
-0.028599
-0.0453776
-0.0477249
-0.170813
-0.286751
0.988483
0.909428
0.13726
0.522095
0.528554
0.525313
0.530245
0.533374
0.53417
0.531877
0.528423
0.519419
0.520841
0.517712
0.518795
-0.10169
-0.243257
-0.0716067
-0.146351
0.145951
0.628601
0.363768
0.299031
0.294396
0.523291
0.91706
0.699838
0.668629
0.667381
-0.343196
0.0453792
-0.279841
0.335186
0.162371
0.648451
0.697603
0.719671
0.667339
0.620403
-0.100033
0.556368
-0.0740094
-0.0216329
0.180047
0.0556571
0.660202
0.639538
0.646922
0.651581
0.664854
0.642752
0.625468
0.62542
0.646327
0.65022
0.483111
0.250146
0.200707
0.162251
0.643018
0.516783
0.566591
0.490095
0.522008
0.52453
0.523183
0.50459
0.512189
0.507702
0.514282
0.517925
0.526454
0.526934
0.52219
0.524318
-0.0560642
-0.0625789
-0.0248526
-0.135006
-0.127851
-0.189958
-0.0588319
0.0744745
0.0360164
0.237373
0.34148
0.0521521
-0.0565378
-0.0290341
0.012655
0.179853
0.20831
0.0743292
0.162291
0.153522
0.134464
0.237521
0.24084
-0.0292632
-0.0308544
-0.0357524
-0.0378074
0.0190492
0.0905642
0.0997448
-0.00710676
-0.0127624
-0.0444501
-0.0444258
-0.0220617
-0.0273531
-0.02225
0.00486309
-0.0526169
-0.0201098
-0.00618556
-0.0044551
-0.0054077
-0.0108953
0.518668
0.520264
0.520637
0.528049
0.540635
0.555234
0.52148
0.497752
0.488524
0.491542
0.464427
0.474721
0.470543
0.484123
0.505278
0.514002
0.512328
0.515169
0.497362
0.499143
0.48568
0.48933
0.46442
0.445014
0.433061
-0.0422952
-0.00363567
-0.0118216
-0.0376072
-0.00793768
-0.0199233
-0.0108912
0.00811206
-0.00832339
-0.00966618
-0.0198139
-0.0261013
-0.025756
-0.0727999
0.0139019
-0.184244
-0.219686
-0.292772
0.890719
1.01493
0.81005
0.583027
0.603331
0.846666
0.931124
0.543218
0.735571
0.758716
0.587626
0.854863
0.526945
0.52654
0.52414
0.52362
0.52484
-0.00675505
0.0996245
0.0975635
0.161132
0.277663
0.389282
0.320212
0.194923
0.324941
0.327416
0.621582
0.633789
0.588838
0.612891
0.613244
0.425383
0.501043
0.552673
0.513865
0.565678
0.587267
0.541336
0.57426
0.523745
0.479307
0.475485
0.425012
0.444684
0.420262
0.403384
0.516506
0.493728
0.50451
0.494929
0.515729
0.543751
0.54044
0.562261
0.577416
0.498328
0.453211
0.462598
0.49278
0.454253
0.469845
0.485878
0.233414
0.135504
0.218403
-0.066525
0.00406849
-0.00842138
-0.0571411
-0.00572444
0.278457
-0.412312
-0.38905
-1.01593
0.504664
0.954513
0.591319
0.567175
0.665855
0.651386
0.657632
0.674655
0.672832
0.63164
0.640761
0.645576
0.596377
0.617099
0.636644
0.632646
0.524927
0.382255
0.381637
0.329329
0.199432
0.239369
0.435316
0.359613
0.284711
0.284821
0.456766
0.343264
0.413319
0.446704
0.377954
0.332635
0.535315
0.601338
0.594978
0.568263
0.479004
0.491072
0.515599
0.549033
0.572778
0.60552
0.513699
0.519645
0.520876
0.518344
0.515614
0.518717
0.519009
0.521581
0.522162
0.525184
0.524252
-0.0524556
-0.0379834
-0.050769
-0.0629579
-0.0180414
-0.0202273
0.023318
0.0116952
-0.0152236
-0.0111463
-0.0328145
-0.0368386
-0.0334383
-0.0255288
0.102909
0.11569
0.101007
0.0611723
0.250833
0.380786
0.455187
0.330334
0.224151
0.248696
0.267092
-0.0118946
0.0136856
0.000931346
0.040685
0.0325233
-0.0387178
-0.0424965
-0.0385293
-0.0307271
-0.022451
-0.0378196
-0.0433564
-0.0344026
-0.0388607
-0.041558
-0.045182
0.500025
0.493484
0.495057
0.488977
0.487707
0.502028
0.506358
0.5083
0.513803
0.516239
0.506141
0.511577
0.515578
-0.0117949
-0.0349283
-0.0383952
-0.0295265
-0.031496
-0.0288809
-0.030479
0.123779
0.0546634
0.0584346
0.0112851
-0.120953
-0.0629893
0.492288
0.491093
0.480464
0.721487
0.570724
0.491591
0.588697
0.694342
0.276487
0.473201
0.308331
0.888688
0.785339
0.931639
0.542575
0.246325
0.410591
0.453018
0.266684
0.342527
0.324744
0.213826
0.244532
0.282906
0.381737
0.266454
0.243297
-0.000231459
0.19058
0.302456
0.284307
0.408819
0.469425
0.267414
0.187137
0.142119
0.606185
0.625776
0.638762
0.611485
0.633039
0.581633
0.57391
0.589044
0.597036
0.591358
-0.744257
-0.45064
-1.39747
-0.720354
-0.264824
0.535247
0.507432
0.770031
0.646052
0.680819
0.665497
0.624621
0.594457
0.619151
0.641536
0.340349
0.450893
0.426111
0.431876
0.334636
0.264845
0.563176
0.560218
0.593461
0.61674
0.588407
0.618661
0.511514
0.51124
0.510699
0.506933
0.505194
0.507556
0.0592296
0.0267808
0.0678707
0.0505638
0.0280683
0.0156299
-0.0105051
-0.0204877
-0.0276411
-0.0271719
-0.0128542
-0.00872589
0.172368
0.109681
0.0301885
0.0590172
-0.00171112
-0.0700719
-0.0892455
0.0162008
0.112298
0.102492
0.405633
0.655142
0.475188
0.64261
0.485175
0.540956
0.468927
0.460255
0.485174
0.380393
0.460773
0.251269
-0.256982
-0.166139
0.795396
0.80607
0.581805
0.407052
0.174737
0.351956
0.541396
0.471184
0.506565
0.57564
0.562671
0.0305776
0.0880113
0.375526
0.602298
0.241646
0.232716
0.226079
0.410662
0.328703
)
;

boundaryField
{
    wall-4
    {
        type            zeroGradient;
    }
    velocity-inlet-5
    {
        type            zeroGradient;
    }
    velocity-inlet-6
    {
        type            zeroGradient;
    }
    pressure-outlet-7
    {
        type            fixedValue;
        value           uniform 0;
    }
    wall-8
    {
        type            zeroGradient;
    }
    frontAndBackPlanes
    {
        type            empty;
    }
}


// ************************************************************************* //
