/*--------------------------------*- C++ -*----------------------------------*\
| =========                 |                                                 |
| \\      /  F ield         | OpenFOAM: The Open Source CFD Toolbox           |
|  \\    /   O peration     | Version:  4.0                                   |
|   \\  /    A nd           | Web:      www.OpenFOAM.org                      |
|    \\/     M anipulation  |                                                 |
\*---------------------------------------------------------------------------*/
FoamFile
{
    version     2.0;
    format      ascii;
    class       volScalarField;
    location    "69";
    object      p;
}
// * * * * * * * * * * * * * * * * * * * * * * * * * * * * * * * * * * * * * //

dimensions      [0 2 -2 0 0 0 0];

internalField   nonuniform List<scalar> 
918
(
0.557582
1.1818
0.0012744
0.557032
-0.0125549
1.14881
-0.510689
0.659683
0.537783
-0.10751
-0.0509174
0.54014
1.00948
0.776067
-1.12334
-0.0103645
0.652102
-0.381087
0.536898
-0.0594547
0.688859
0.544321
0.547345
0.537923
0.598333
0.750035
0.890652
0.0240454
0.00964749
0.00509594
-0.0119209
-0.0388049
-0.0329702
1.03245
1.08354
1.10624
0.50552
0.334016
-0.376071
-0.449001
-0.436339
-0.544723
0.658135
0.657312
-0.212155
0.662715
0.664317
0.5248
0.537153
0.538065
0.539082
0.538068
0.539448
0.404422
-0.107774
-0.139037
-0.08854
-0.0822294
0.0529578
-0.0524169
-0.0549051
-0.0490859
-0.0486688
0.454614
0.534323
0.530758
0.544286
0.55381
1.12135
1.09326
1.11941
1.0331
1.04959
0.987459
0.960151
0.796211
0.818112
0.762407
0.749548
-1.55456
-2.5049
-0.534027
-0.28352
-0.010622
-0.00815649
-0.00268455
0.649205
0.650597
0.651535
0.653554
1.08003
-0.378652
-0.479118
0.53704
0.53585
0.544168
0.544869
0.540889
0.539979
-0.0506773
-0.047415
-0.0503559
-0.0555884
-0.0538812
0.675407
0.676349
0.538451
0.535453
0.561482
0.58158
0.571661
0.277985
0.609019
0.624828
0.582789
0.744195
0.737103
0.746281
0.864149
0.828364
0.927676
0.950737
0.0170139
1.24509e-05
-0.0151228
-0.0195282
-0.0181388
0.501346
0.493879
0.521382
0.50896
0.511471
0.250811
0.117531
0.418929
0.44376
-0.29521
-0.3619
-0.428869
-0.459615
-0.568194
0.612712
0.656448
0.655024
-0.222174
-0.150378
-0.283786
-0.0773048
-0.140326
0.515054
0.522076
0.51707
0.532637
0.5271
0.529064
0.541425
0.538494
0.540054
0.466555
0.590076
0.33063
0.295207
-0.242159
-0.15428
-0.241757
-0.0718529
-0.069434
0.0670204
0.09267
0.0397071
0.0279585
-0.0648093
-0.0583638
-0.0612359
-0.0467845
-0.0461562
0.447349
0.43612
0.467317
0.474887
0.520687
0.522214
0.526712
0.52448
0.910859
0.933186
0.94087
0.914657
-3.49343
-6.27349
0.0406974
0.176792
-0.00670445
-0.00937863
0.00198786
-0.00580629
0.000245857
-0.00193507
-0.00749695
-0.00896259
-0.00407928
-0.00282789
0.643856
0.644888
1.00227
1.00918
0.977835
0.930748
0.525259
0.527331
0.532826
0.52871
-0.0459037
-0.0460664
-0.0455615
0.667577
0.672946
0.670448
0.239434
0.149571
0.329116
0.358297
0.637319
0.625752
0.635453
0.642731
0.680016
0.958132
0.976407
0.974591
0.983018
1.02704
1.04343
1.00883
0.480738
0.490749
0.48568
0.524452
0.522232
0.523126
0.519354
0.520369
0.518533
-0.0328278
-0.412569
0.49104
0.50789
0.493358
0.495701
0.692837
0.771442
0.653168
0.654574
0.654167
-0.00802408
-0.06654
0.250366
0.216241
0.386801
0.423276
0.402217
0.882132
0.84255
0.89268
0.865858
0.827184
0.852739
-0.364148
-1.86273
-0.982412
0.525824
0.340419
0.427519
0.00975147
-0.00694089
-0.00240862
1.00186
1.07414
0.645844
0.820683
0.82333
0.715511
0.745037
0.802276
0.730088
0.763312
0.796029
0.775162
0.568655
0.504118
0.520079
0.840526
0.896249
0.119325
0.0575525
0.0137278
0.111581
0.168982
0.143036
1.03414
0.949985
1.02017
0.535215
0.535937
-0.00516145
-0.018379
0.540187
0.540242
-0.012391
-0.00148396
0.410466
-0.831017
0.0984036
0.528771
0.518655
0.535801
-0.0928672
0.356028
-0.050703
0.0482447
-0.00849344
0.530387
0.465764
0.4248
0.000649318
-0.0193923
-0.0505387
-0.212585
0.532885
0.531189
0.535268
0.536208
0.53689
-0.0186122
-0.014354
-0.0103097
-0.0473064
-0.0407978
-0.0528322
0.499679
0.519104
-0.170184
0.535414
0.53755
0.537368
0.530633
0.536262
0.534515
-0.0102849
-0.0153855
-0.0176548
0.219623
0.351855
0.649315
0.73553
0.621675
0.397855
0.163228
0.552921
0.615874
0.522028
0.675236
0.652002
0.659711
0.163924
0.0136058
0.172725
0.114439
0.526632
0.525351
0.516907
0.513865
0.530667
0.52878
0.53334
0.530362
0.533313
0.534694
-0.0489425
-0.0759477
-0.0848917
-0.152032
0.310701
0.57176
0.255137
0.284557
0.142186
-0.0452865
-0.0466564
-0.0487882
-0.057733
0.00116095
-0.0239821
0.0430106
0.0431574
0.0147641
-0.0109088
-0.00817061
-0.0191109
-0.0135339
0.523691
0.523806
0.528049
0.536781
0.475434
0.479222
0.444027
0.46479
0.450037
0.38868
0.424032
0.399233
-0.00531842
0.00327371
-0.00230569
-0.0173485
-0.0140984
-0.0332057
-0.030066
-0.0254884
-0.0214747
-0.028362
-0.0449391
-0.0471541
-0.170692
-0.28665
0.988581
0.909669
0.137265
0.522028
0.528488
0.525247
0.530178
0.533307
0.534104
0.531811
0.528357
0.519334
0.520747
0.517664
0.518708
-0.101532
-0.243017
-0.0713685
-0.146004
0.145817
0.62864
0.363754
0.299087
0.29443
0.523228
0.917067
0.700023
0.669483
0.669423
-0.342965
0.0457714
-0.279337
0.33535
0.162865
0.648902
0.697378
0.718859
0.667359
0.620711
-0.100217
0.556376
-0.0735715
-0.0212736
0.180317
0.0561246
0.661394
0.639626
0.647008
0.653144
0.666868
0.643409
0.626631
0.626423
0.647805
0.651267
0.483536
0.250308
0.200935
0.162474
0.642966
0.517378
0.567617
0.490343
0.521921
0.524454
0.523104
0.504519
0.51212
0.507632
0.514217
0.517851
0.526385
0.526863
0.522121
0.524251
-0.056174
-0.0628153
-0.0252531
-0.13485
-0.127727
-0.18981
-0.0591343
0.0748497
0.036163
0.237546
0.341779
0.0524125
-0.0564749
-0.0289886
0.0127128
0.180083
0.208434
0.074503
0.162337
0.153714
0.134703
0.237683
0.240995
-0.0287883
-0.0306366
-0.0354556
-0.0373548
0.0191021
0.0905265
0.0998549
-0.00667678
-0.0124522
-0.0436938
-0.0437881
-0.0218967
-0.0272866
-0.0221497
0.0048423
-0.0525046
-0.0199408
-0.006012
-0.00396038
-0.00512211
-0.01062
0.518651
0.520315
0.520703
0.527802
0.540624
0.555289
0.521254
0.497678
0.488449
0.49147
0.464336
0.474642
0.470435
0.484048
0.505149
0.513967
0.512272
0.515124
0.497245
0.499035
0.485597
0.489255
0.464304
0.444934
0.432995
-0.0421255
-0.00340438
-0.0115808
-0.0374364
-0.00773209
-0.0197476
-0.0106475
0.00832203
-0.00806564
-0.00945841
-0.019601
-0.0258332
-0.0254786
-0.0726978
0.0139583
-0.184045
-0.219579
-0.292586
0.890815
1.01501
0.810226
0.583255
0.60351
0.846744
0.931274
0.543443
0.735756
0.758919
0.587474
0.854801
0.526878
0.526474
0.524073
0.523552
0.524773
-0.00672932
0.0995623
0.0977087
0.161112
0.277533
0.389164
0.319984
0.194783
0.324854
0.327341
0.621478
0.633738
0.588792
0.612886
0.613042
0.425354
0.501019
0.55264
0.513716
0.565576
0.587088
0.54116
0.57406
0.52368
0.47919
0.475344
0.424961
0.444618
0.420239
0.403362
0.516275
0.493603
0.504321
0.494809
0.515438
0.543598
0.540159
0.562012
0.577082
0.498237
0.453153
0.462533
0.492719
0.454166
0.469733
0.485807
0.233242
0.135257
0.218127
-0.0668693
0.00393126
-0.00854462
-0.0572364
-0.00601868
0.278154
-0.412747
-0.389451
-1.01651
0.504438
0.954612
0.593162
0.568706
0.667549
0.652562
0.658767
0.675758
0.674556
0.631577
0.640832
0.645673
0.59751
0.61835
0.637651
0.633838
0.524974
0.38266
0.381895
0.329738
0.199846
0.239713
0.435815
0.360042
0.285105
0.285223
0.456825
0.343381
0.413335
0.446875
0.378171
0.332824
0.535379
0.601494
0.595209
0.568328
0.479404
0.491544
0.516042
0.549395
0.573405
0.606281
0.513631
0.519576
0.520808
0.518276
0.515547
0.518648
0.518937
0.521504
0.522091
0.52511
0.524175
-0.0520711
-0.0376855
-0.0507546
-0.0627231
-0.0182783
-0.0203075
0.0231994
0.0114463
-0.0150386
-0.0108953
-0.0327335
-0.0366582
-0.0333498
-0.0253983
0.102841
0.115569
0.100328
0.061005
0.251178
0.380896
0.455364
0.330633
0.224448
0.248514
0.267104
-0.0118206
0.0136502
0.000934487
0.040622
0.0325195
-0.0381799
-0.0418998
-0.0379944
-0.0304082
-0.0219616
-0.0372865
-0.0427011
-0.0337594
-0.0382048
-0.0408946
-0.0444152
0.499947
0.493397
0.49499
0.488883
0.487612
0.501974
0.506302
0.50824
0.513761
0.516208
0.506065
0.511556
0.515555
-0.0115018
-0.0345923
-0.0381082
-0.0289929
-0.0311046
-0.0285346
-0.0301114
0.123746
0.0546506
0.058449
0.0112663
-0.120897
-0.0629422
0.492153
0.490936
0.480346
0.721427
0.570669
0.491474
0.588552
0.694216
0.276412
0.473199
0.308279
0.888716
0.78531
0.931623
0.542618
0.246188
0.41022
0.452846
0.266388
0.342125
0.324924
0.213976
0.244702
0.282938
0.381819
0.266319
0.243111
-0.000366242
0.190351
0.302318
0.284162
0.408742
0.469378
0.2672
0.186941
0.141956
0.606347
0.625824
0.63874
0.611649
0.632947
0.581452
0.573693
0.588883
0.596827
0.591292
-0.744758
-0.451067
-1.39792
-0.720337
-0.264961
0.53499
0.506956
0.769998
0.646254
0.681643
0.66642
0.625342
0.595098
0.619598
0.642209
0.340765
0.451356
0.42658
0.432283
0.334969
0.265239
0.563161
0.560238
0.593877
0.617141
0.588668
0.618945
0.511448
0.511174
0.510631
0.506863
0.505123
0.507489
0.0592183
0.0266782
0.0675794
0.0505483
0.0280478
0.0153564
-0.00999887
-0.0199519
-0.0271409
-0.0267334
-0.0124838
-0.00836974
0.172209
0.109605
0.0301438
0.0589896
-0.00169733
-0.070039
-0.089162
0.0161815
0.112251
0.102451
0.405628
0.655242
0.475273
0.642706
0.485212
0.541036
0.468835
0.460195
0.485124
0.380271
0.460655
0.25074
-0.25747
-0.166537
0.795296
0.806029
0.58174
0.406662
0.174476
0.352325
0.541639
0.471619
0.506999
0.576048
0.563137
0.0300945
0.087676
0.374726
0.601446
0.241343
0.232416
0.225812
0.410194
0.328363
)
;

boundaryField
{
    wall-4
    {
        type            zeroGradient;
    }
    velocity-inlet-5
    {
        type            zeroGradient;
    }
    velocity-inlet-6
    {
        type            zeroGradient;
    }
    pressure-outlet-7
    {
        type            fixedValue;
        value           uniform 0;
    }
    wall-8
    {
        type            zeroGradient;
    }
    frontAndBackPlanes
    {
        type            empty;
    }
}


// ************************************************************************* //
