/*--------------------------------*- C++ -*----------------------------------*\
| =========                 |                                                 |
| \\      /  F ield         | OpenFOAM: The Open Source CFD Toolbox           |
|  \\    /   O peration     | Version:  4.0                                   |
|   \\  /    A nd           | Web:      www.OpenFOAM.org                      |
|    \\/     M anipulation  |                                                 |
\*---------------------------------------------------------------------------*/
FoamFile
{
    version     2.0;
    format      ascii;
    class       volScalarField;
    location    "73";
    object      p;
}
// * * * * * * * * * * * * * * * * * * * * * * * * * * * * * * * * * * * * * //

dimensions      [0 2 -2 0 0 0 0];

internalField   nonuniform List<scalar> 
8800
(
0.813285
0.7655
0.726814
0.697824
0.676968
0.662149
0.65157
0.644116
0.639332
0.637325
0.638646
0.642881
0.649559
0.6589
0.671697
0.689443
0.714228
0.748174
0.790729
0.849431
0.644526
0.652205
0.659687
0.662998
0.661501
0.656433
0.649961
0.643907
0.639215
0.636416
0.636191
0.63875
0.643279
0.649255
0.656045
0.662339
0.665989
0.665258
0.659846
0.651161
0.622917
0.629078
0.633209
0.63616
0.638218
0.638836
0.637749
0.635673
0.633697
0.632844
0.633866
0.636298
0.639134
0.641343
0.641969
0.640784
0.638453
0.635068
0.630513
0.626752
0.617085
0.619737
0.622494
0.624904
0.62655
0.627726
0.628489
0.628638
0.628388
0.628398
0.629217
0.630443
0.631324
0.631421
0.630834
0.629759
0.627955
0.625394
0.622996
0.621492
0.611676
0.613102
0.614886
0.616927
0.618723
0.620081
0.621095
0.621929
0.622594
0.623228
0.623955
0.624514
0.624662
0.624411
0.62374
0.622512
0.620831
0.618994
0.617693
0.616861
0.606563
0.607484
0.608731
0.610308
0.611954
0.613498
0.614812
0.615921
0.616944
0.617917
0.618695
0.619097
0.619112
0.618716
0.617868
0.616692
0.615384
0.614137
0.613321
0.612769
0.60161
0.60228
0.603249
0.604562
0.605987
0.607468
0.60894
0.610311
0.611578
0.612778
0.613703
0.614159
0.614143
0.613687
0.61292
0.612003
0.611014
0.610107
0.609528
0.609122
0.59677
0.597286
0.598077
0.59922
0.600516
0.601916
0.603399
0.604926
0.606433
0.607879
0.609007
0.609584
0.609641
0.60932
0.608765
0.608077
0.607333
0.606669
0.606242
0.605924
0.591968
0.592379
0.593042
0.594063
0.59529
0.596647
0.598136
0.599755
0.601468
0.603192
0.604583
0.605366
0.60563
0.605539
0.605215
0.604745
0.604212
0.603743
0.603428
0.603168
0.587119
0.587453
0.588028
0.588971
0.590153
0.5915
0.59303
0.594756
0.596669
0.598699
0.600427
0.601524
0.60208
0.602254
0.602171
0.601934
0.601601
0.601296
0.601066
0.600847
0.582129
0.582406
0.582921
0.58382
0.584987
0.586364
0.587975
0.589851
0.592007
0.594391
0.596544
0.598043
0.59895
0.599429
0.599611
0.599611
0.59948
0.599318
0.599157
0.598967
0.57691
0.577142
0.577617
0.578504
0.579696
0.581146
0.582881
0.584963
0.587427
0.590253
0.592925
0.594906
0.596224
0.597056
0.597536
0.597777
0.597854
0.597828
0.597723
0.597553
0.571364
0.571561
0.572018
0.57292
0.57418
0.575748
0.577663
0.580018
0.582875
0.58625
0.589552
0.592107
0.593908
0.595142
0.595958
0.596468
0.596766
0.596868
0.59681
0.596653
0.565388
0.565556
0.566011
0.566958
0.568327
0.570065
0.572227
0.574935
0.57829
0.582342
0.586406
0.589647
0.592019
0.593718
0.59492
0.59575
0.596272
0.596497
0.59648
0.596331
0.558858
0.559003
0.559471
0.560493
0.562017
0.563983
0.56647
0.569629
0.573606
0.578487
0.583472
0.587534
0.590582
0.592831
0.594474
0.595656
0.596435
0.59679
0.59681
0.596664
0.551633
0.551753
0.552249
0.553376
0.555106
0.557372
0.560272
0.564002
0.56875
0.574644
0.580739
0.58578
0.589627
0.592526
0.59469
0.596278
0.597346
0.597835
0.59789
0.597743
0.543519
0.543628
0.544163
0.545428
0.547421
0.550066
0.553494
0.55794
0.563641
0.570769
0.578198
0.584402
0.589193
0.592855
0.595646
0.597712
0.599102
0.599731
0.599818
0.599665
0.534286
0.534384
0.534981
0.53641
0.538739
0.541874
0.54597
0.551309
0.558186
0.566816
0.575844
0.583427
0.589332
0.59389
0.597423
0.600047
0.601802
0.602579
0.602693
0.602531
0.523612
0.523691
0.524375
0.526032
0.528799
0.532561
0.537497
0.543955
0.552289
0.562744
0.573681
0.582885
0.590099
0.595714
0.600091
0.60338
0.605542
0.606472
0.606608
0.606434
0.511111
0.511176
0.511961
0.513929
0.517256
0.521821
0.527829
0.535703
0.545845
0.558517
0.57172
0.582821
0.591545
0.59839
0.603755
0.607803
0.610406
0.611485
0.611636
0.611445
0.496212
0.496266
0.497195
0.49958
0.503648
0.509267
0.516671
0.526357
0.538758
0.554117
0.569985
0.583278
0.593727
0.601976
0.608481
0.613377
0.61644
0.617653
0.617807
0.617598
0.478127
0.478169
0.479314
0.482287
0.48737
0.494415
0.503678
0.515716
0.530953
0.549555
0.568526
0.584309
0.596707
0.606532
0.614285
0.620122
0.623637
0.624952
0.625092
0.624862
0.455666
0.455707
0.457203
0.461066
0.467612
0.476664
0.488474
0.503617
0.522419
0.544902
0.567431
0.585983
0.600522
0.612084
0.62119
0.627998
0.631907
0.633266
0.633373
0.633123
0.427045
0.427107
0.429201
0.434498
0.44333
0.455329
0.470734
0.489999
0.513251
0.540309
0.566832
0.588386
0.605207
0.618603
0.629157
0.636879
0.641058
0.642375
0.642426
0.64216
0.389158
0.389326
0.392653
0.400602
0.413287
0.429811
0.45034
0.47502
0.503714
0.536031
0.566907
0.591616
0.610799
0.62606
0.638068
0.646535
0.650779
0.651946
0.651922
0.651648
0.336063
0.337078
0.343707
0.357121
0.376515
0.400044
0.42765
0.459172
0.494273
0.532415
0.567856
0.595759
0.617295
0.634384
0.647696
0.656613
0.66065
0.661566
0.661465
0.661193
0.258652
0.266136
0.281491
0.305163
0.33455
0.367459
0.40371
0.443099
0.485283
0.529701
0.569989
0.601265
0.625311
0.644333
0.658825
0.667929
0.671581
0.672237
0.672087
0.671853
0.175489
0.193173
0.218048
0.252592
0.292375
0.334785
0.37971
0.427108
0.4767
0.527973
0.573871
0.609159
0.636117
0.657343
0.673036
0.681792
0.684642
0.685004
0.684877
0.684715
0.106122
0.126967
0.15969
0.203461
0.2524
0.303753
0.357085
0.412324
0.469155
0.527041
0.578214
0.617153
0.646625
0.669491
0.685531
0.693547
0.695858
0.696159
0.696086
0.695959
0.0493016
0.0718248
0.110148
0.160441
0.216607
0.275478
0.336241
0.39867
0.462292
0.526446
0.582574
0.624882
0.656563
0.680658
0.696869
0.70447
0.706528
0.706818
0.706785
0.706687
0.00203249
0.0257472
0.0679074
0.123367
0.185339
0.250419
0.317557
0.386372
0.45621
0.526238
0.587068
0.63255
0.6663
0.691612
0.708165
0.715498
0.717418
0.717735
0.717743
0.717668
-0.0379579
-0.0135947
0.0314673
0.0910099
0.157866
0.22823
0.300913
0.37542
0.450947
0.526475
0.591804
0.640373
0.676196
0.702739
0.719685
0.727083
0.729055
0.729344
0.729376
0.729318
-0.0727266
-0.0479559
-0.000618897
0.0622989
0.133287
0.208256
0.28587
0.365531
0.446315
0.527042
0.596714
0.648333
0.686226
0.714044
0.731622
0.739326
0.741293
0.741584
0.741616
0.741583
-0.103797
-0.0786818
-0.0294946
0.0363025
0.110867
0.189883
0.27193
0.356313
0.442016
0.527714
0.601616
0.656251
0.696238
0.725425
0.74377
0.751786
0.753869
0.754142
0.754168
0.75414
-0.132168
-0.106754
-0.0559908
0.0122996
0.0900069
0.172624
0.258677
0.347416
0.437755
0.528235
0.606293
0.663933
0.706029
0.736578
0.755682
0.764068
0.766294
0.766569
0.766582
0.766566
-0.15867
-0.132917
-0.0807595
-0.0102693
0.070252
0.156095
0.245787
0.338552
0.433269
0.528384
0.610561
0.671197
0.715349
0.747259
0.767088
0.775836
0.778212
0.778498
0.778474
0.778457
-0.183701
-0.157612
-0.104131
-0.0317865
0.0512649
0.140012
0.233012
0.329506
0.428371
0.528
0.614277
0.677911
0.724109
0.757286
0.777751
0.7868
0.789273
0.789543
0.789489
0.789462
-0.207737
-0.181229
-0.126713
-0.0524959
0.032802
0.124162
0.220181
0.320127
0.422911
0.52693
0.617332
0.684017
0.732235
0.766594
0.787561
0.796772
0.799291
0.799539
0.79945
0.799408
-0.230919
-0.203953
-0.148499
-0.0725956
0.0147063
0.108419
0.207179
0.310307
0.416777
0.525073
0.619649
0.68949
0.739759
0.775182
0.796468
0.805742
0.808213
0.808424
0.808305
0.808248
-0.253407
-0.226051
-0.16957
-0.0922082
-0.00310665
0.0927113
0.193939
0.299976
0.409901
0.522342
0.621152
0.69432
0.746744
0.78317
0.80461
0.813724
0.816101
0.816261
0.816113
0.816042
-0.275339
-0.247508
-0.190061
-0.111392
-0.0206898
0.0770065
0.180446
0.289123
0.402248
0.518665
0.621767
0.698505
0.75331
0.790744
0.812119
0.820871
0.823032
0.823128
0.822953
0.822872
-0.296792
-0.268382
-0.210059
-0.130168
-0.0380378
0.0613065
0.166716
0.277757
0.393805
0.513985
0.621419
0.702026
0.75956
0.798122
0.819251
0.827348
0.829128
0.829113
0.828931
0.828844
-0.317634
-0.288672
-0.229503
-0.14853
-0.0551419
0.0456543
0.152783
0.265923
0.384603
0.508294
0.620019
0.704826
0.765553
0.805573
0.826365
0.833423
0.83452
0.834319
0.83414
0.834062
-0.337848
-0.308359
-0.248397
-0.166446
-0.0719637
0.0300902
0.138719
0.253678
0.374695
0.50159
0.617494
0.706787
0.771279
0.813325
0.833969
0.839647
0.839515
0.838862
0.838715
0.838705
-0.357512
-0.327421
-0.266735
-0.183901
-0.0884542
0.0146826
0.124594
0.241108
0.364151
0.493909
0.613767
0.707746
0.776608
0.82146
0.842635
0.847029
0.844969
0.843151
0.84295
0.843303
-0.376474
-0.345848
-0.28447
-0.200848
-0.104566
-0.000495875
0.110492
0.228311
0.35307
0.485323
0.608793
0.707496
0.781281
0.829762
0.852642
0.856839
0.853004
0.848876
0.847357
0.847572
-0.394828
-0.36364
-0.301627
-0.217326
-0.120334
-0.0154893
0.0963577
0.215233
0.34139
0.475763
0.602435
0.705758
0.785021
0.837837
0.863673
0.869751
0.866019
0.858603
0.851318
0.838207
-0.41251
-0.380786
-0.31832
-0.233534
-0.136037
-0.0306156
0.0817947
0.201418
0.328609
0.464642
0.594108
0.701842
0.787408
0.845211
0.874446
0.884283
0.881015
0.866902
0.845556
0.835944
-0.429359
-0.397451
-0.33437
-0.249282
-0.151319
-0.0455389
0.0670172
0.187174
0.315009
0.452174
0.583796
0.695153
0.787417
0.850605
0.880945
0.890985
0.888845
0.862696
0.795785
0.76609
-0.444721
-0.414921
-0.349479
-0.264099
-0.165375
-0.0597563
0.0523453
0.172728
0.3008
0.438468
0.571383
0.68527
0.783361
0.853116
0.877575
0.882559
0.865771
0.808373
0.738871
0.696438
-0.499082
-0.430297
-0.363109
-0.279121
-0.179896
-0.0747796
0.0377024
0.157783
0.285589
0.423023
0.556184
0.671368
0.771063
0.848032
0.847191
0.84413
0.787178
0.712768
0.634718
0.591303
-0.460671
-0.444741
-0.383421
-0.298323
-0.20138
-0.096283
0.0151789
0.134676
0.261619
0.397896
0.529576
0.643824
0.737063
0.820176
0.800088
0.678464
0.568308
0.491724
0.4165
0.444601
-0.49065
-0.461684
-0.399512
-0.315265
-0.218376
-0.113394
-0.00163283
0.117258
0.243187
0.377769
0.506828
0.61693
0.700247
0.744098
0.690275
0.533716
0.40116
0.306599
0.206298
0.254019
-0.513699
-0.481822
-0.418575
-0.334212
-0.237207
-0.132337
-0.0206491
0.0974202
0.221975
0.354201
0.479589
0.58336
0.657421
0.66615
0.553285
0.375245
0.218626
0.096862
-0.0359147
-0.00434893
-0.536167
-0.502837
-0.438495
-0.353246
-0.256178
-0.151473
-0.0403217
0.0767815
0.199745
0.329189
0.449858
0.545368
0.603469
0.580373
0.415613
0.215049
0.021849
-0.148114
-0.337629
-0.357889
-0.558024
-0.524298
-0.459128
-0.373144
-0.275968
-0.171511
-0.0610355
0.054961
0.176049
0.302262
0.417407
0.504393
0.542455
0.481664
0.2843
0.0701467
-0.149325
-0.339955
-0.582374
-0.877335
-0.580158
-0.54646
-0.480809
-0.394391
-0.297071
-0.19282
-0.0829594
0.0318772
0.150952
0.273617
0.382797
0.461162
0.476829
0.364087
0.169778
-0.0435091
-0.250033
-0.423723
-0.494491
-0.572409
-0.603508
-0.569788
-0.503886
-0.417299
-0.319975
-0.216032
-0.106891
0.00659638
0.123313
0.241848
0.344591
0.411522
0.401415
0.254763
0.0676935
-0.126531
-0.291896
-0.3864
-0.410842
-0.426605
-0.628379
-0.594571
-0.528526
-0.44194
-0.344806
-0.241356
-0.133186
-0.0213687
0.092546
0.206257
0.302082
0.354065
0.325871
0.153008
-0.0250223
-0.19405
-0.322919
-0.362822
-0.37561
-0.376906
-0.654969
-0.620979
-0.554793
-0.46831
-0.371516
-0.268795
-0.161865
-0.0520689
0.0585833
0.166863
0.254781
0.291946
0.242627
0.0589929
-0.109962
-0.261357
-0.338984
-0.356119
-0.357548
-0.357375
-0.683334
-0.649074
-0.582716
-0.496408
-0.400123
-0.298342
-0.192934
-0.0855196
0.0214372
0.123745
0.202815
0.227741
0.141524
-0.0269407
-0.18737
-0.312219
-0.349517
-0.347847
-0.346955
-0.346381
-0.713193
-0.67869
-0.612196
-0.526152
-0.430543
-0.329945
-0.226363
-0.121694
-0.0188507
0.0770192
0.147135
0.154545
0.049864
-0.106515
-0.248661
-0.326692
-0.336971
-0.339555
-0.340213
-0.339943
-0.744
-0.70936
-0.642979
-0.557322
-0.462594
-0.363451
-0.262003
-0.160459
-0.0620899
0.0270554
0.0882145
0.0803222
-0.0323479
-0.173867
-0.293492
-0.325706
-0.334425
-0.33589
-0.335645
-0.335347
-0.775296
-0.740559
-0.674608
-0.589528
-0.495937
-0.398544
-0.299577
-0.201526
-0.107988
-0.0254342
0.0251715
0.00998396
-0.107595
-0.228702
-0.323757
-0.342139
-0.333323
-0.332284
-0.332239
-0.332014
-0.806185
-0.771591
-0.706251
-0.62217
-0.530038
-0.434757
-0.33864
-0.244416
-0.156062
-0.0797828
-0.0391696
-0.0542261
-0.17324
-0.270576
-0.326392
-0.335587
-0.332758
-0.331359
-0.330776
-0.33054
-0.835152
-0.801282
-0.736937
-0.65434
-0.564145
-0.471402
-0.378545
-0.288449
-0.205498
-0.135385
-0.0984476
-0.124311
-0.225427
-0.309609
-0.314471
-0.331053
-0.333738
-0.331599
-0.3308
-0.330316
-0.860587
-0.827773
-0.765564
-0.684893
-0.597238
-0.507558
-0.418438
-0.332777
-0.25517
-0.191339
-0.154414
-0.191004
-0.268056
-0.329112
-0.350061
-0.341212
-0.338048
-0.336626
-0.33576
-0.335173
-0.880385
-0.849309
-0.789955
-0.712443
-0.628045
-0.542114
-0.457248
-0.376384
-0.303954
-0.246288
-0.211576
-0.243834
-0.297612
-0.35436
-0.383971
-0.357822
-0.345001
-0.342824
-0.341683
-0.341169
-0.892354
-0.863978
-0.808438
-0.735066
-0.655101
-0.57377
-0.493809
-0.41808
-0.350803
-0.298638
-0.266155
-0.286132
-0.305952
-0.341323
-0.336846
-0.33755
-0.339451
-0.340192
-0.340544
-0.34081
-0.893917
-0.869562
-0.818984
-0.751031
-0.676734
-0.601127
-0.526815
-0.456638
-0.394596
-0.347079
-0.311186
-0.321525
-0.308032
-0.297122
-0.310011
-0.32868
-0.33639
-0.339101
-0.340328
-0.340611
-0.882825
-0.863237
-0.819448
-0.758779
-0.691512
-0.622746
-0.554953
-0.490797
-0.434164
-0.390684
-0.349332
-0.355651
-0.344844
-0.333416
-0.347487
-0.351032
-0.352162
-0.35245
-0.352354
-0.352286
-0.857258
-0.842583
-0.808078
-0.75708
-0.698456
-0.637662
-0.577083
-0.519253
-0.468139
-0.428823
-0.383766
-0.385489
-0.400245
-0.438554
-0.420145
-0.386954
-0.371081
-0.365455
-0.363254
-0.362598
-0.819801
-0.810354
-0.785748
-0.7461
-0.697576
-0.645626
-0.592563
-0.540989
-0.494897
-0.459721
-0.428718
-0.405887
-0.392625
-0.419818
-0.406088
-0.372829
-0.356808
-0.351997
-0.349896
-0.348848
-0.777132
-0.771751
-0.757277
-0.728668
-0.690816
-0.647434
-0.601559
-0.555481
-0.513093
-0.479793
-0.449176
-0.399411
-0.32165
-0.277641
-0.290346
-0.3082
-0.313152
-0.316927
-0.319804
-0.320275
-0.738919
-0.735642
-0.728757
-0.710155
-0.68107
-0.644987
-0.605153
-0.563215
-0.522117
-0.487141
-0.45998
-0.399767
-0.318157
-0.188749
-0.0893177
-0.138979
-0.245265
-0.312256
-0.339118
-0.347445
-0.711593
-0.709549
-0.706034
-0.694783
-0.672156
-0.641353
-0.605404
-0.565515
-0.523395
-0.484231
-0.455494
-0.438738
-0.480634
-0.642796
-0.895017
-1.0755
-1.14546
-1.09648
-0.965325
-0.924272
-0.691118
-0.690372
-0.689221
-0.683646
-0.666714
-0.639161
-0.604305
-0.563945
-0.519216
-0.471301
-0.436864
-0.428152
-0.567547
-0.838997
-1.20268
-1.34371
-1.28204
-1.14379
-0.993429
-0.936972
-0.679285
-0.679016
-0.678409
-0.675854
-0.664124
-0.638401
-0.602807
-0.560475
-0.51092
-0.453952
-0.408165
-0.369333
-0.36746
-0.374302
-0.379047
-0.373413
-0.282932
-0.169035
-0.0684665
-0.0206146
-0.671372
-0.671186
-0.670617
-0.669709
-0.662784
-0.63915
-0.602392
-0.55635
-0.501436
-0.436937
-0.365923
-0.291111
-0.15016
0.103089
0.387293
0.675464
0.911503
1.0414
1.1052
1.12572
-0.666644
-0.66663
-0.666555
-0.666874
-0.66248
-0.641933
-0.603674
-0.553304
-0.493173
-0.417628
-0.325934
-0.234531
-0.0168677
0.354441
0.764427
1.16148
1.45546
1.6028
1.65495
1.66447
-0.662625
-0.662696
-0.662759
-0.662666
-0.661664
-0.64586
-0.607123
-0.552979
-0.486948
-0.404371
-0.303978
-0.198692
0.00440683
0.370767
0.753324
1.1081
1.37658
1.50643
1.54335
1.54744
-0.659578
-0.659668
-0.659575
-0.658711
-0.658043
-0.650204
-0.612799
-0.555982
-0.48591
-0.400687
-0.29947
-0.196684
-0.037454
0.269394
0.567195
0.822919
1.00391
1.08946
1.12071
1.12878
-0.658365
-0.659381
-0.662134
-0.667054
-0.672232
-0.66165
-0.620227
-0.561564
-0.492237
-0.406538
-0.310528
-0.214077
-0.0918111
0.143746
0.366323
0.537226
0.654298
0.716165
0.746988
0.75871
-0.658007
-0.659642
-0.663843
-0.673724
-0.685168
-0.66813
-0.62337
-0.571185
-0.50542
-0.419841
-0.33067
-0.246501
-0.153062
0.0302228
0.207552
0.344116
0.445559
0.504634
0.533607
0.542722
-0.68243
-0.68291
-0.677334
-0.6494
-0.611032
-0.59967
-0.606448
-0.585422
-0.523218
-0.437607
-0.354678
-0.278439
-0.203493
-0.0588792
0.0876509
0.205057
0.295987
0.351744
0.376577
0.382618
-0.731339
-0.729836
-0.71506
-0.664522
-0.600267
-0.588494
-0.629391
-0.616874
-0.547924
-0.457806
-0.37535
-0.309093
-0.251743
-0.135397
-0.0123795
0.0861876
0.164849
0.213316
0.233405
0.236613
-0.812294
-0.814398
-0.83867
-0.874984
-0.880561
-0.850282
-0.805879
-0.697447
-0.582769
-0.47637
-0.392445
-0.331603
-0.284417
-0.190476
-0.0899203
-0.0109645
0.051154
0.0876203
0.101462
0.103162
-0.976685
-1.00271
-1.06603
-1.1298
-1.1505
-1.10845
-0.983487
-0.784403
-0.616987
-0.488456
-0.399503
-0.341922
-0.297184
-0.227031
-0.149236
-0.0865888
-0.0387636
-0.0118182
-0.000993003
-0.000632395
-1.0731
-1.1006
-1.14923
-1.19328
-1.20978
-1.16676
-1.02091
-0.79983
-0.61574
-0.480857
-0.394683
-0.341774
-0.302693
-0.249195
-0.192141
-0.144517
-0.109494
-0.0895885
-0.0829648
-0.0836553
-0.971889
-0.994886
-1.03236
-1.07018
-1.08514
-1.0429
-0.895926
-0.713267
-0.559612
-0.445568
-0.372275
-0.328262
-0.298932
-0.263332
-0.222324
-0.188624
-0.164218
-0.151363
-0.147372
-0.148782
-0.68115
-0.700124
-0.736099
-0.778123
-0.802069
-0.774956
-0.675866
-0.561503
-0.462199
-0.386351
-0.334797
-0.303919
-0.285764
-0.262273
-0.238119
-0.220169
-0.208923
-0.20457
-0.203661
-0.204851
-0.3172
-0.328958
-0.353768
-0.388083
-0.421716
-0.432389
-0.417678
-0.38705
-0.351588
-0.315969
-0.287872
-0.269219
-0.25908
-0.249188
-0.242073
-0.24004
-0.241377
-0.244899
-0.246403
-0.246954
-0.0356878
-0.0417043
-0.0584325
-0.0889716
-0.131252
-0.176946
-0.21331
-0.236791
-0.247477
-0.245846
-0.238051
-0.228298
-0.221684
-0.224064
-0.231782
-0.242082
-0.252593
-0.259941
-0.262127
-0.262325
0.107876
0.104213
0.0920243
0.0656075
0.0221352
-0.0334794
-0.0885942
-0.134498
-0.167239
-0.187113
-0.194206
-0.192065
-0.189289
-0.200331
-0.215639
-0.230112
-0.241926
-0.248466
-0.250163
-0.250443
0.148694
0.146186
0.136969
0.115816
0.0794975
0.0309309
-0.0219883
-0.0722151
-0.113408
-0.143847
-0.1626
-0.171647
-0.176774
-0.188633
-0.200137
-0.21055
-0.218538
-0.221828
-0.222696
-0.22315
0.140135
0.138373
0.131729
0.116244
0.0892483
0.0519501
0.00851034
-0.0360412
-0.0772226
-0.113211
-0.142412
-0.167274
-0.182853
-0.185568
-0.188432
-0.190165
-0.191466
-0.191627
-0.191898
-0.192463
0.114933
0.113809
0.109297
0.0985829
0.0795627
0.0524539
0.018879
-0.0177938
-0.0544403
-0.090225
-0.12535
-0.162111
-0.184726
-0.179567
-0.17125
-0.167092
-0.165143
-0.164363
-0.164554
-0.165161
0.0873001
0.0866886
0.0838133
0.0767162
0.0637472
0.0446418
0.0199173
-0.00847147
-0.0388341
-0.070685
-0.103827
-0.138574
-0.156022
-0.150698
-0.144455
-0.142796
-0.142365
-0.142813
-0.143283
-0.143763
0.0620205
0.0617113
0.0600143
0.0555612
0.0470876
0.0341637
0.0168096
-0.0037163
-0.0266249
-0.0510846
-0.0751841
-0.0974385
-0.106405
-0.107338
-0.110317
-0.115586
-0.120313
-0.123283
-0.124152
-0.124304
0.040214
0.0400955
0.0392237
0.0366439
0.0314506
0.023299
0.0120398
-0.00146393
-0.0167234
-0.0326119
-0.0458748
-0.0532596
-0.0545988
-0.0614761
-0.0725913
-0.084182
-0.0928854
-0.0974831
-0.0984806
-0.0983159
0.0210968
0.0211517
0.0208336
0.0196106
0.017051
0.0128032
0.00681388
-0.000406759
-0.00846144
-0.0163371
-0.0205279
-0.0154764
-0.00982478
-0.0234386
-0.0365732
-0.0478183
-0.0559046
-0.0598781
-0.060653
-0.0603252
0.00361931
0.00370235
0.00371234
0.0039189
0.00386169
0.0033382
0.00234962
0.0010429
-0.000531058
-0.00222048
-0.00300049
-0.00139495
0.00154293
0.000717753
-0.00405756
-0.00801477
-0.0106152
-0.0119504
-0.0123725
-0.0121832
-0.113729
0.05134
0.243533
0.4112
0.544431
0.648423
0.733875
0.806708
0.840196
0.817014
0.183522
0.302697
0.430707
0.541006
0.633571
0.709817
0.771483
0.815335
0.83729
0.849542
0.398663
0.480241
0.567679
0.644671
0.710721
0.765936
0.809875
0.84204
0.86541
0.883512
0.557059
0.615529
0.67595
0.732213
0.781004
0.822469
0.856583
0.883861
0.906443
0.924816
0.680806
0.723265
0.768643
0.811825
0.850018
0.883404
0.912025
0.935897
0.956151
0.974029
0.78407
0.816564
0.854281
0.889441
0.921752
0.95075
0.976119
0.997474
1.01524
1.03261
0.875964
0.904436
0.938144
0.970054
0.99981
1.02683
1.05046
1.07009
1.08554
1.10263
0.964159
0.993224
1.02708
1.05898
1.08847
1.11496
1.13775
1.15619
1.16952
1.18655
1.05924
1.09236
1.12891
1.16241
1.19238
1.21851
1.24041
1.25766
1.2695
1.28689
1.17409
1.21187
1.25045
1.28465
1.31395
1.33866
1.35901
1.37487
1.38632
1.40439
1.31895
1.35746
1.39357
1.42422
1.44988
1.47195
1.49098
1.5065
1.51891
1.53691
1.49397
1.52558
1.55174
1.57417
1.59412
1.61283
1.63054
1.64701
1.66235
1.68041
1.68255
1.69975
1.71477
1.73099
1.74689
1.76141
1.77461
1.78853
1.80607
1.82622
1.86426
1.87379
1.88532
1.89613
1.90541
1.91499
1.92576
1.93713
1.94848
1.96384
2.07147
2.07514
2.06019
2.04538
2.0391
2.04477
2.06325
2.09356
2.12573
2.15238
2.3778
2.24294
2.16629
2.1239
2.10647
2.11044
2.13783
2.19425
2.29687
2.52123
0.703881
0.701754
0.697271
0.688651
0.676433
0.664313
0.654097
0.646221
0.640631
0.637414
0.637105
0.639886
0.645023
0.65227
0.661674
0.673225
0.685884
0.696924
0.703038
0.706095
0.628322
0.63417
0.640506
0.645003
0.64748
0.647165
0.644441
0.640652
0.637171
0.63495
0.63485
0.637093
0.640791
0.645105
0.64893
0.650826
0.649898
0.646423
0.641264
0.634643
0.619877
0.622174
0.62558
0.628582
0.630665
0.632172
0.632943
0.632648
0.631654
0.630814
0.631041
0.632517
0.634371
0.635704
0.635905
0.635029
0.633491
0.631162
0.627904
0.624986
0.614337
0.615424
0.61726
0.619644
0.621677
0.623117
0.624156
0.624933
0.62537
0.625641
0.62619
0.627053
0.627693
0.627792
0.627403
0.626572
0.625115
0.62304
0.620961
0.61958
0.609096
0.609758
0.61087
0.612582
0.614374
0.616021
0.617337
0.618382
0.619306
0.620152
0.620949
0.621564
0.621807
0.621678
0.621139
0.620106
0.618693
0.617162
0.615852
0.615074
0.604071
0.604531
0.60532
0.606627
0.608126
0.609661
0.611149
0.612481
0.613664
0.614785
0.615779
0.616422
0.616627
0.616398
0.615734
0.614771
0.613666
0.612548
0.611643
0.611128
0.599182
0.599525
0.60014
0.601217
0.602526
0.60392
0.605386
0.606871
0.608298
0.609654
0.610858
0.611639
0.611887
0.611667
0.61111
0.610366
0.609541
0.608693
0.608032
0.607655
0.594372
0.594639
0.595135
0.596055
0.597241
0.59856
0.599987
0.60152
0.603124
0.604732
0.60619
0.607167
0.607555
0.607503
0.607162
0.606644
0.606028
0.605412
0.604934
0.604647
0.589558
0.589769
0.590183
0.590993
0.592101
0.593377
0.594799
0.596386
0.598131
0.59999
0.601753
0.60301
0.603654
0.603856
0.603756
0.603468
0.603065
0.602646
0.60231
0.602086
0.58465
0.58482
0.585175
0.585913
0.586978
0.588236
0.589691
0.59137
0.593284
0.595413
0.59754
0.599176
0.600161
0.600666
0.600832
0.600785
0.600603
0.600364
0.600145
0.599967
0.579557
0.579694
0.580008
0.580703
0.581754
0.58304
0.584569
0.586383
0.588521
0.590979
0.59355
0.595656
0.597052
0.597909
0.598379
0.598591
0.598629
0.598566
0.598448
0.598305
0.574187
0.574297
0.574583
0.57526
0.576332
0.577693
0.579339
0.581344
0.583773
0.586647
0.589765
0.592436
0.594318
0.595584
0.596398
0.596894
0.597168
0.59728
0.597251
0.597135
0.56844
0.568527
0.568797
0.56948
0.57061
0.572087
0.573907
0.576171
0.578971
0.582369
0.586156
0.589506
0.591963
0.593705
0.59491
0.595739
0.596276
0.596557
0.596607
0.596511
0.562205
0.56227
0.562534
0.563246
0.564471
0.566112
0.568168
0.570771
0.574044
0.578092
0.582694
0.58686
0.590003
0.592305
0.593963
0.595167
0.595992
0.596459
0.596585
0.596506
0.555346
0.555391
0.555656
0.556419
0.55778
0.559642
0.562008
0.565043
0.568912
0.573761
0.579352
0.584498
0.588455
0.591421
0.593611
0.59524
0.596401
0.597067
0.597267
0.597201
0.54771
0.547731
0.547998
0.548836
0.550377
0.552522
0.555286
0.558869
0.563482
0.569314
0.576104
0.582422
0.587344
0.591091
0.593916
0.59605
0.597591
0.598476
0.59875
0.598693
0.539062
0.539074
0.539357
0.540295
0.54207
0.544564
0.547837
0.552112
0.557647
0.564686
0.572925
0.580641
0.586705
0.591371
0.594943
0.597688
0.599664
0.600784
0.601132
0.601082
0.529125
0.529107
0.52944
0.530524
0.53259
0.535546
0.539464
0.544605
0.551288
0.559807
0.569794
0.57917
0.58658
0.592331
0.596778
0.600232
0.602714
0.604092
0.604513
0.604464
0.517579
0.517537
0.517919
0.519196
0.521632
0.525182
0.529918
0.536154
0.544273
0.554608
0.566696
0.578033
0.587014
0.594032
0.599507
0.603775
0.606837
0.608487
0.608976
0.608924
0.503928
0.503859
0.504322
0.505853
0.508776
0.513097
0.518891
0.526531
0.536457
0.549027
0.563629
0.577263
0.588057
0.596528
0.603202
0.608408
0.612105
0.614033
0.614577
0.614515
0.487501
0.487402
0.487993
0.48988
0.493456
0.498808
0.506004
0.515473
0.527697
0.543019
0.560612
0.576903
0.589764
0.599883
0.607907
0.614171
0.618552
0.620743
0.621321
0.621243
0.46733
0.467205
0.468002
0.470408
0.474905
0.48169
0.490802
0.502707
0.517883
0.536589
0.557703
0.577017
0.592193
0.604145
0.613641
0.621073
0.62615
0.628557
0.629137
0.629035
0.441961
0.441822
0.442958
0.446171
0.452066
0.46095
0.47278
0.487999
0.506981
0.529818
0.555017
0.577704
0.595397
0.609331
0.620424
0.629079
0.634784
0.637318
0.637856
0.637722
0.409022
0.408907
0.410667
0.415284
0.423505
0.435673
0.451491
0.471259
0.495112
0.522907
0.552739
0.579086
0.599436
0.615449
0.628193
0.638055
0.644228
0.64675
0.647194
0.647026
0.364264
0.364321
0.367459
0.375007
0.38755
0.405077
0.426813
0.452716
0.482631
0.516199
0.551123
0.581303
0.604374
0.622477
0.636863
0.647777
0.654126
0.656448
0.656753
0.656553
0.299719
0.300976
0.30866
0.322759
0.343226
0.369288
0.399362
0.433082
0.470169
0.510158
0.550439
0.584483
0.610217
0.630334
0.646172
0.657782
0.66397
0.665854
0.665984
0.66577
0.223258
0.225109
0.239828
0.264072
0.295633
0.331753
0.3709
0.412909
0.457619
0.504595
0.550958
0.589626
0.618635
0.641187
0.65862
0.670779
0.676524
0.678025
0.678102
0.677968
0.144435
0.150806
0.172547
0.2072
0.249283
0.295178
0.343349
0.39368
0.446066
0.500088
0.552622
0.595946
0.628172
0.653072
0.672175
0.684258
0.689052
0.690021
0.690039
0.689971
0.0799054
0.0886688
0.115027
0.15681
0.207132
0.261339
0.317631
0.375738
0.435432
0.49621
0.554596
0.602223
0.637318
0.664075
0.683961
0.695733
0.700077
0.700938
0.700994
0.700979
0.027431
0.0367983
0.0667589
0.113845
0.170378
0.231279
0.294432
0.359399
0.425755
0.492843
0.556756
0.608431
0.646178
0.674619
0.695186
0.706846
0.710916
0.711687
0.711788
0.711825
-0.0164279
-0.00677656
0.0256612
0.0767849
0.138417
0.204871
0.273842
0.344807
0.417162
0.490087
0.559225
0.614765
0.655051
0.685152
0.706553
0.718216
0.722048
0.722942
0.723076
0.723169
-0.0540488
-0.0442962
-0.010013
0.0443371
0.110192
0.181389
0.255439
0.331731
0.409539
0.487889
0.561994
0.621296
0.664106
0.695869
0.718103
0.730012
0.734019
0.734959
0.735139
0.735255
-0.087131
-0.0773618
-0.0416724
0.015397
0.0847982
0.160092
0.238648
0.319749
0.402579
0.486028
0.564907
0.62789
0.673212
0.706682
0.729918
0.742353
0.746523
0.747501
0.747626
0.747766
-0.116985
-0.107202
-0.0703681
-0.0109525
0.0614936
0.140383
0.222959
0.308442
0.395939
0.484234
0.567738
0.634348
0.682185
0.717398
0.741708
0.754708
0.759148
0.760152
0.760277
0.760366
-0.14453
-0.134725
-0.0969174
-0.0354244
0.039705
0.121788
0.207976
0.297467
0.38932
0.482238
0.570262
0.64048
0.69082
0.727758
0.753106
0.766673
0.771401
0.772432
0.772525
0.772584
-0.170359
-0.160505
-0.121804
-0.058565
0.0189958
0.103943
0.193394
0.286558
0.382481
0.479832
0.572308
0.646122
0.698943
0.737549
0.763902
0.777965
0.782963
0.784003
0.784047
0.784069
-0.19497
-0.185017
-0.145444
-0.0806991
-0.000932793
0.0865767
0.178985
0.275519
0.375257
0.476859
0.573728
0.651174
0.706482
0.746698
0.773943
0.788378
0.793519
0.794565
0.794575
0.794564
-0.218679
-0.208543
-0.168226
-0.102021
-0.0202895
0.0695075
0.164596
0.264222
0.367512
0.473187
0.574413
0.655562
0.713405
0.755184
0.783181
0.797833
0.803031
0.804028
0.804002
0.803961
-0.241602
-0.23128
-0.190301
-0.122683
-0.0392185
0.0526381
0.150135
0.252575
0.35916
0.468716
0.574273
0.659248
0.719733
0.763059
0.791639
0.806354
0.811454
0.812404
0.812338
0.812272
-0.263946
-0.253371
-0.21168
-0.142797
-0.0577918
0.0359031
0.135554
0.240539
0.35016
0.46339
0.57322
0.662182
0.725514
0.770468
0.7995
0.814058
0.818928
0.819763
0.819658
0.819576
-0.285683
-0.274859
-0.232501
-0.162437
-0.0760374
0.0192872
0.120856
0.22812
0.340502
0.457161
0.571182
0.664312
0.73081
0.777571
0.806958
0.821102
0.82556
0.826219
0.826072
0.825974
-0.306875
-0.295787
-0.252723
-0.181606
-0.0939574
0.00279957
0.106059
0.21535
0.330205
0.450019
0.568094
0.665565
0.73563
0.784543
0.814316
0.82775
0.831492
0.831862
0.831666
0.831563
-0.327409
-0.316113
-0.272346
-0.200273
-0.111524
-0.0135074
0.0912091
0.202275
0.319321
0.441996
0.563907
0.665849
0.739933
0.791522
0.821943
0.834443
0.837007
0.836797
0.836524
0.836456
-0.347414
-0.335807
-0.291378
-0.218435
-0.128721
-0.0296093
0.0763827
0.188962
0.307917
0.433146
0.5586
0.66504
0.743593
0.798533
0.830214
0.841901
0.842791
0.841335
0.840788
0.840835
-0.366741
-0.35485
-0.309801
-0.236063
-0.145481
-0.0454322
0.0616495
0.175518
0.296088
0.423514
0.552186
0.663004
0.746407
0.805426
0.839296
0.850992
0.850227
0.846738
0.844829
0.844439
-0.385464
-0.3733
-0.327571
-0.253116
-0.161778
-0.0609146
0.0470849
0.162013
0.283934
0.413221
0.544708
0.659603
0.748106
0.811842
0.848856
0.862101
0.86124
0.85567
0.849593
0.842162
-0.403504
-0.391114
-0.344786
-0.26975
-0.177816
-0.076318
0.0323711
0.148073
0.271039
0.40181
0.535692
0.654361
0.748303
0.817619
0.858519
0.875032
0.876512
0.869925
0.858411
0.85428
-0.42082
-0.408217
-0.361432
-0.285942
-0.19361
-0.0916417
0.0175141
0.133672