/*--------------------------------*- C++ -*----------------------------------*\
| =========                 |                                                 |
| \\      /  F ield         | OpenFOAM: The Open Source CFD Toolbox           |
|  \\    /   O peration     | Version:  4.0                                   |
|   \\  /    A nd           | Web:      www.OpenFOAM.org                      |
|    \\/     M anipulation  |                                                 |
\*---------------------------------------------------------------------------*/
FoamFile
{
    version     2.0;
    format      ascii;
    class       surfaceScalarField;
    location    "73";
    object      phi;
}
// * * * * * * * * * * * * * * * * * * * * * * * * * * * * * * * * * * * * * //

dimensions      [0 3 -1 0 0 0 0];

internalField   nonuniform List<scalar> 
17370
(
-0.0916059
0.0960093
0.284607
-0.0775944
0.0594197
0.36495
-0.0430415
0.0316211
0.427589
-0.0223166
0.0162634
0.505305
-0.0116697
0.00879541
0.602276
-0.00658365
0.00509827
0.720543
-0.00386112
0.00298083
0.863787
-0.00220802
0.00162988
1.03603
-0.00109827
0.000677065
1.24292
-0.000265133
-0.000130668
1.49159
0.000520121
-0.000934361
1.49161
0.00134038
-0.00184519
1.2432
0.00239338
-0.00313233
1.03638
0.00398664
-0.0052041
0.864124
0.00667798
-0.00887972
0.721259
0.011743
-0.0163203
0.603792
0.0223561
-0.0316415
0.508725
0.0430413
-0.0594073
0.432534
0.0775865
-0.0960024
0.365191
0.0916215
0.197389
-0.127094
0.0880266
0.039067
-0.364359
0.354034
-0.0714716
0.0817962
-0.446654
0.454259
-0.0791654
0.0715606
-0.521012
0.529114
-0.0637045
0.0556022
-0.612992
0.620764
-0.0482126
0.0404406
-0.727166
0.733689
-0.0338262
0.0273025
-0.867583
0.872438
-0.0220959
0.0172409
-1.03857
1.04191
-0.0135401
0.0101983
-1.24472
1.24713
-0.00764495
0.00523595
-1.49284
1.49486
-0.00326873
0.00125125
-1.49269
1.49452
0.000570755
-0.0023927
-1.2441
1.24602
0.00436906
-0.00628301
-1.03761
1.04008
0.00861834
-0.0110932
-0.866185
0.869808
0.0143439
-0.0179661
-0.724591
0.729743
0.0227483
-0.0279
-0.609062
0.615629
0.0343708
-0.0409379
-0.515121
0.522454
0.0486551
-0.0559878
-0.43988
0.447653
0.0640053
-0.0717785
-0.374703
0.377355
0.0792651
-0.0819167
-0.256893
0.224428
0.071566
-0.0391018
-0.0688174
0.0592087
0.00960866
-0.0520899
0.0589108
-0.374844
0.368023
-0.0580588
0.0542132
-0.453952
0.457798
-0.048723
0.0441603
-0.527624
0.532187
-0.0396061
0.0357057
-0.620809
0.62471
-0.0314871
0.0274865
-0.734669
0.738669
-0.0231234
0.0192305
-0.873965
0.877858
-0.015179
0.0117164
-1.04337
1.04683
-0.00819068
0.00515261
-1.24866
1.2517
-0.0019397
-0.0010453
-1.49695
1.49993
0.00400782
-0.00715869
-1.49741
1.50057
0.0101055
-0.0135047
-1.25006
1.25346
0.0168346
-0.0207312
-1.04564
1.04954
0.0244885
-0.028719
-0.877124
0.881354
0.0326129
-0.0367255
-0.73897
0.743082
0.0405377
-0.0450051
-0.625958
0.630426
0.0494953
-0.0549145
-0.535006
0.540425
0.0586776
-0.0594325
-0.458065
0.45882
0.0524754
-0.0320767
-0.336747
0.316348
0.00967728
-0.0686513
0.058974
-0.0534229
0.0493152
0.0041077
-0.0332178
0.0436299
-0.358585
0.348173
-0.0472961
0.0467025
-0.459595
0.460189
-0.0437676
0.0405492
-0.536149
0.539367
-0.0368651
0.0335035
-0.628415
0.631776
-0.0298615
0.0266125
-0.742056
0.745305
-0.0231506
0.0199446
-0.881361
0.884567
-0.0163421
0.0129818
-1.05027
1.05363
-0.00927351
0.00586113
-1.25496
1.25838
-0.00206321
-0.00155769
-1.50329
1.50691
0.00514592
-0.0088493
-1.50406
1.50776
0.0121325
-0.0156616
-1.25701
1.26054
0.0188343
-0.0222169
-1.05324
1.05662
0.0252294
-0.0285013
-0.884954
0.888226
0.0315966
-0.035086
-0.746755
0.750245
0.0383177
-0.0418665
-0.634537
0.638086
0.0449678
-0.0477716
-0.544561
0.547365
0.0482292
-0.0443743
-0.456926
0.453071
0.0337307
-0.0163972
-0.297015
0.279681
0.00418392
-0.0531192
0.0489353
-0.04615
0.0435992
0.00255074
-0.0230135
0.0333456
-0.337596
0.327264
-0.0390633
0.0400011
-0.459948
0.45901
-0.0387394
0.0364028
-0.54203
0.544366
-0.0337505
0.031194
-0.634752
0.637309
-0.0282053
0.0253463
-0.7484
0.751259
-0.0220963
0.0190711
-0.887634
0.890659
-0.0157077
0.0125622
-1.05682
1.05996
-0.0089931
0.00558282
-1.26178
1.26519
-0.00166339
-0.00213923
-1.51065
1.51445
0.00589947
-0.00969052
-1.51153
1.51533
0.0129281
-0.0162604
-1.26398
1.26732
0.0191587
-0.0222347
-1.05983
1.0629
0.0250044
-0.0279986
-0.891408
0.894402
0.030647
-0.0334249
-0.75341
0.756188
0.0358033
-0.0382754
-0.641028
0.6435
0.040458
-0.0415175
-0.549188
0.550247
0.040369
-0.0343436
-0.447928
0.441903
0.0236731
-0.010398
-0.26447
0.251195
0.00264533
-0.0456846
0.0430393
-0.0414861
0.0396917
0.00179442
-0.016902
0.0261633
-0.317416
0.308154
-0.0327353
0.034838
-0.457463
0.45536
-0.0343878
0.0326759
-0.546406
0.548117
-0.0304333
0.0282909
-0.639631
0.641773
-0.0258365
0.0234423
-0.753873
0.756267
-0.0206101
0.0178476
-0.893531
0.896294
-0.014646
0.0115958
-1.06302
1.06607
-0.00811472
0.004786
-1.26853
1.27185
-0.000935143
-0.00281836
-1.51822
1.52197
0.00651708
-0.0102055
-1.51906
1.52275
0.0133147
-0.0164956
-1.27057
1.27376
0.019232
-0.0220652
-1.06592
1.06876
0.0244971
-0.0269975
-0.897168
0.899669
0.0291196
-0.0313034
-0.758612
0.760795
0.0332188
-0.0352289
-0.645712
0.647722
0.0367171
-0.0368912
-0.550811
0.550985
0.0344646
-0.0274418
-0.435283
0.42826
0.0177262
-0.00750407
-0.239587
0.229365
0.00191024
-0.0408214
0.0389111
-0.0381483
0.0368038
0.00134447
-0.0128938
0.020862
-0.299541
0.291573
-0.0275968
0.0304938
-0.452826
0.449929
-0.0306787
0.0295353
-0.549569
0.550712
-0.0275175
0.0255722
-0.643845
0.64579
-0.0233387
0.0211771
-0.758527
0.760689
-0.0186467
0.0161579
-0.898864
0.901353
-0.0132154
0.01034
-1.06899
1.07187
-0.0069901
0.00375742
-1.2751
1.27834
-1.01873e-05
-0.00362728
-1.52565
1.52929
0.00719706
-0.0107394
-1.52635
1.52989
0.0136974
-0.0166721
-1.27685
1.27983
0.019154
-0.021634
-1.07147
1.07395
0.0237101
-0.0258251
-0.901959
0.904073
0.0276431
-0.0295324
-0.762816
0.764706
0.0311903
-0.0329286
-0.649573
0.651311
0.0337459
-0.0331757
-0.550789
0.550219
0.0298154
-0.0224626
-0.421014
0.413661
0.0139105
-0.0058096
-0.220304
0.212203
0.00148575
-0.0372398
0.035754
-0.0356304
0.0345976
0.00103274
-0.0100592
0.0167957
-0.284244
0.277507
-0.023272
0.0266244
-0.446781
0.443429
-0.0273802
0.0266656
-0.551631
0.552345
-0.0248774
0.0230729
-0.647701
0.649505
-0.0209862
0.0189571
-0.762784
0.764813
-0.0165704
0.0142289
-0.903707
0.906048
-0.0114754
0.00877647
-1.07459
1.07729
-0.00560332
0.00250948
-1.28146
1.28456
0.00109767
-0.0046004
-1.53283
1.53634
0.00801792
-0.0113725
-1.53333
1.53668
0.0141255
-0.0168348
-1.28268
1.28539
0.0190495
-0.0212332
-1.07634
1.07852
0.0230649
-0.0249368
-0.90607
0.907942
0.0265399
-0.0281996
-0.76647
0.768129
0.0296477
-0.0310508
-0.652903
0.654306
0.0313593
-0.0300568
-0.549296
0.547994
0.0260659
-0.0187756
-0.406314
0.399023
0.0113054
-0.00468981
-0.204914
0.198299
0.0012046
-0.0344249
0.0332203
-0.0336913
0.0328895
0.000801836
-0.00795586
0.013612
-0.271338
0.265682
-0.0196037
0.0231537
-0.439964
0.436414
-0.0243855
0.0239153
-0.552964
0.553435
-0.0223963
0.0206994
-0.651302
0.652999
-0.0187071
0.0167656
-0.766797
0.768738
-0.0144775
0.0122289
-0.908283
0.910531
-0.0095807
0.0069927
-1.07986
1.08245
-0.00396239
0.00100599
-1.28753
1.29049
0.00243913
-0.00577889
-1.53973
1.54307
0.00901514
-0.0121509
-1.53991
1.54304
0.0146871
-0.0171515
-1.28797
1.29044
0.0191467
-0.0210954
-1.08066
1.08261
0.022718
-0.024374
-0.909713
0.911369
0.0257923
-0.0272589
-0.769685
0.771151
0.028511
-0.0295309
-0.655502
0.656522
0.0294652
-0.0274872
-0.546357
0.544379
0.0230837
-0.0160474
-0.391855
0.384818
0.00947955
-0.00391779
-0.19226
0.186698
0.00101075
-0.0321247
0.0311139
-0.0321854
0.0315622
0.000623239
-0.00633341
0.0110649
-0.260514
0.255783
-0.0164633
0.0200125
-0.43286
0.429311
-0.0215659
0.0213187
-0.553824
0.554071
-0.0200298
0.018394
-0.65471
0.656346
-0.0164565
0.0145628
-0.770653
0.772546
-0.012332
0.0101415
-0.91268
0.914871
-0.0075635
0.00504741
-1.08493
1.08744
-0.00210883
-0.000735518
-1.29333
1.29618
0.00403742
-0.00721265
-1.5463
1.54947
0.01026
-0.0131806
-1.54604
1.54896
0.0155195
-0.0177685
-1.2928
1.29505
0.0195621
-0.0212866
-1.08455
1.08627
0.0227132
-0.0241721
-0.912929
0.914388
0.0254248
-0.0267157
-0.772523
0.773814
0.0278192
-0.0284153
-0.657328
0.657924
0.0279755
-0.0254262
-0.542129
0.53958
0.0207652
-0.0140492
-0.377951
0.371235
0.00819253
-0.00338149
-0.18155
0.176739
0.000876928
-0.0301799
0.029303
-0.0310184
0.0305399
0.000478525
-0.00502688
0.00895989
-0.251474
0.247541
-0.0137185
0.0171166
-0.42584
0.422442
-0.01885
0.01879
-0.55426
0.55432
-0.0176954
0.0160927
-0.658028
0.65963
-0.0141768
0.012297
-0.774428
0.776308
-0.0100826
0.00791342
-0.916969
0.919139
-0.00536998
0.00289872
-1.08985
1.09232
-3.04629e-05
-0.00274334
-1.29892
1.3017
0.00592792
-0.00895625
-1.55254
1.55556
0.0118296
-0.014551
-1.55175
1.55447
0.0167039
-0.0187447
-1.29719
1.29923
0.020341
-0.021847
-1.08801
1.08951
0.0230883
-0.0243668
-0.915754
0.917033
0.0254702
-0.0266001
-0.775017
0.776147
0.0275095
-0.0277262
-0.658327
0.658544
0.0268759
-0.0238414
-0.536799
0.533765
0.0190195
-0.0126141
-0.364692
0.358287
0.00729616
-0.00301481
-0.172224
0.167943
0.000787019
-0.02848
0.027693
-0.0301288
0.0297728
0.000356
-0.00393124
0.00716176
-0.243981
0.24075
-0.0112676
0.0144036
-0.419185
0.416049
-0.0161902
0.0162791
-0.554348
0.554259
-0.0152662
0.0137335
-0.661273
0.662806
-0.0118116
0.00991289
-0.778188
0.780086
-0.00767648
0.00549285
-0.921221
0.923405
-0.00294578
0.000486446
-1.0947
1.09716
0.0023587
-0.0050778
-1.30438
1.3071
0.00817299
-0.0110803
-1.55849
1.5614
0.0138002
-0.0163351
-1.55707
1.5596
0.0183076
-0.0201444
-1.30116
1.303
0.0215473
-0.0228392
-1.09106
1.09235
0.0239002
-0.0250054
-0.918216
0.919322
0.0259657
-0.0269288
-0.777185
0.778148
0.0275749
-0.0274991
-0.658628
0.658552
0.0261994
-0.0227241
-0.53052
0.527045
0.0177821
-0.0116304
-0.352033
0.345881
0.00669884
-0.0027772
-0.16387
0.159949
0.000730844
-0.0269429
0.0262121
-0.029477
0.0292304
0.000246608
-0.00296982
0.00556547
-0.237856
0.23526
-0.00901811
0.0118081
-0.4131
0.41031
-0.0135327
0.0136987
-0.554179
0.554013
-0.0127241
0.0112327
-0.664401
0.665893
-0.00928117
0.00733362
-0.781994
0.783941
-0.00503891
0.00280638
-0.925505
0.927737
-0.000219577
-0.00227153
-1.09953
1.10202
0.00512374
-0.00782466
-1.30974
1.31244
0.0108632
-0.0136752
-1.56421
1.56703
0.0162604
-0.018621
-1.56201
1.56437
0.0204203
-0.0220574
-1.30472
1.30636
0.0232653
-0.0243369
-1.09371
1.09478
0.0252124
-0.0261407
-0.920326
0.921254
0.0269564
-0.0277517
-0.778997
0.779792
0.0281077
-0.0277334
-0.658331
0.657956
0.0259734
-0.0220696
-0.523378
0.519474
0.0170062
-0.0110226
-0.339847
0.333863
0.00634152
-0.00264229
-0.156166
0.152467
0.000701595
-0.0255049
0.0248033
-0.0290408
0.028898
0.000142775
-0.00207896
0.00407818
-0.232979
0.23098
-0.00687259
0.00924605
-0.407747
0.405373
-0.0107998
0.0109631
-0.553906
0.553743
-0.0099925
0.0085034
-0.667485
0.668974
-0.00649477
0.004468
-0.785904
0.78793
-0.0020781
-0.000235027
-0.929888
0.932201
0.00291215
-0.00546385
-1.10442
1.10698
0.00836238
-0.0110779
-1.31506
1.31778
0.0140914
-0.0168314
-1.56975
1.57249
0.0192978
-0.0214932
-1.5666
1.56879
0.0231238
-0.0245624
-1.30788
1.30931
0.0255693
-0.0264079
-1.09596
1.0968
0.0270857
-0.0278205
-0.922065
0.9228
0.0284806
-0.0291326
-0.78045
0.781102
0.0291701
-0.0284032
-0.657381
0.656614
0.0261805
-0.0218512
-0.515404
0.511075
0.0166392
-0.0107277
-0.327956
0.322044
0.00617826
-0.00258955
-0.148851
0.145262
0.000693792
-0.0241149
0.0234211
-0.0288125
0.0287745
3.80267e-05
-0.00121083
0.00262848
-0.229285
0.227867
-0.00475098
0.00664374
-0.403261
0.401368
-0.00792145
0.00799846
-0.553692
0.553615
-0.00698446
0.00545953
-0.670604
0.672129
-0.00335495
0.00121445
-0.789976
0.792117
0.00131207
-0.003752
-0.93444
0.93688
0.00655297
-0.009206
-1.10945
1.1121
0.0121931
-0.0149587
-1.32043
1.3232
0.0179798
-0.02067
-1.57515
1.57784
0.0230307
-0.0250671
-1.57085
1.57289
0.0265297
-0.0277664
-1.31062
1.31185
0.0285669
-0.0291692
-1.09779
1.09839
0.0296437
-0.0301735
-0.923413
0.923942
0.0306633
-0.0310996
-0.781535
0.781971
0.0308428
-0.0296013
-0.655647
0.654406
0.026881
-0.0220914
-0.506583
0.501793
0.0166701
-0.0107183
-0.31616
0.310208
0.00618703
-0.00260916
-0.141708
0.13813
0.000704984
-0.0227317
0.0220267
-0.0287952
0.0288648
-6.95681e-05
-0.000327688
0.00115536
-0.226754
0.225927
-0.00257534
0.00391995
-0.399768
0.398424
-0.00481623
0.00472111
-0.55371
0.553806
-0.00360519
0.00199115
-0.673849
0.675463
0.000246945
-0.00254146
-0.794282
0.796576
0.00525103
-0.00785848
-0.939241
0.941849
0.0108354
-0.0136343
-1.11469
1.11749
0.0167555
-0.0196087
-1.32591
1.32876
0.0226723
-0.0253363
-1.58046
1.58312
0.0276046
-0.029484
-1.57479
1.57667
0.030774
-0.0318008
-1.31293
1.31396
0.0323899
-0.0327491
-1.09917
1.09953
0.0330099
-0.0333218
-0.92434
0.924652
0.0336172
-0.0337533
-0.782087
0.782223
0.033183
-0.0313863
-0.652976
0.651179
0.0281129
-0.0228034
-0.496834
0.491525
0.0170898
-0.0109755
-0.30423
0.298116
0.00635274
-0.00269382
-0.134543
0.130884
0.000732995
-0.0213182
0.0205852
-0.0290043
0.0291934
-0.000189059
0.000599776
-0.000396084
-0.225409
0.225205
-0.000266915
0.000986305
-0.397396
0.396676
-0.00139491
0.00104149
-0.55414
0.554494
0.000230319
-0.00200806
-0.677335
0.679112
0.00444018
-0.00694009
-0.798906
0.801406
0.00988715
-0.0127118
-0.94438
0.947204
0.0159193
-0.0189126
-1.12023
1.12322
0.0222175
-0.025198
-1.33157
1.33455
0.0283392
-0.0309987
-1.58572
1.58838
0.0331826
-0.0349009
-1.5784
1.58012
0.0360127
-0.0368174
-1.3148
1.3156
0.0371852
-0.0372872
-1.10007
1.10017
0.0373177
-0.0373956
-0.924812
0.92489
0.037493
-0.0372416
-0.781996
0.781745
0.0362772
-0.0338501
-0.649215
0.646788
0.0299447
-0.0240191
-0.486019
0.480093
0.0179029
-0.0114902
-0.291914
0.285501
0.00666559
-0.00283808
-0.127173
0.123346
0.000776113
-0.0198416
0.0190655
-0.0294673
0.0298063
-0.000339008
0.00165117
-0.00208741
-0.225343
0.22578
0.00227477
-0.0022885
-0.396282
0.396296
0.00250161
-0.00322512
-0.555205
0.555928
0.00473906
-0.0067209
-0.681203
0.683185
0.00940022
-0.0121588
-0.803937
0.806696
0.0154063
-0.0185065
-0.949957
0.953057
0.0220066
-0.0252476
-1.12616
1.1294
0.0287882
-0.0319352
-1.33749
1.34064
0.0351846
-0.0378543
-1.59097
1.59364
0.0399547
-0.0414994
-1.58167
1.58322
0.0424109
-0.0429854
-1.31617
1.31675
0.043123
-0.0429436
-1.10043
1.10025
0.0427184
-0.0425447
-0.924775
0.924601
0.0424338
-0.0416949
-0.781093
0.780354
0.0402471
-0.0370791
-0.64421
0.641042
0.0324298
-0.0257568
-0.473932
0.467259
0.0191051
-0.0122483
-0.278935
0.272079
0.00711241
-0.00303438
-0.119427
0.115349
0.000831705
-0.0182731
0.0174414
-0.030215
0.0307346
-0.00051961
0.00295464
-0.00416569
-0.226621
0.227832
0.00523062
-0.0060547
-0.396639
0.397463
0.00699579
-0.00818832
-0.557135
0.558327
0.0100319
-0.0122972
-0.685565
0.68783
0.0153119
-0.0184048
-0.809493
0.812586
0.022031
-0.0254747
-0.956091
0.959535
0.0293378
-0.0328852
-1.13261
1.13615
0.0367166
-0.0400689
-1.34375
1.34711
0.0434535
-0.0461411
-1.59623
1.59892
0.0481486
-0.0495025
-1.58458
1.58593
0.0501857
-0.0505126
-1.31702
1.31735
0.0503975
-0.0499141
-1.10021
1.09973
0.0494158
-0.0489762
-0.924171
0.923731
0.048533
-0.0473254
-0.779251
0.778044
0.0452321
-0.0411765
-0.637724
0.633668
0.0356346
-0.0280436
-0.460295
0.452704
0.0206973
-0.0132379
-0.264999
0.25754
0.00768051
-0.00327494
-0.111143
0.106738
0.000897004
-0.0165889
0.0156919
-0.0313225
0.0320676
-0.000745121
0.00447842
-0.00658545
-0.229451
0.231558
0.00872757
-0.0104724
-0.398679
0.400424
0.0122479
-0.0140303
-0.560181
0.561964
0.0163391
-0.0189897
-0.690584
0.693234
0.0224505
-0.0259631
-0.815724
0.819237
0.0300595
-0.0339265
-0.962924
0.966791
0.0382321
-0.0421475
-1.13967
1.14359
0.0463214
-0.0499091
-1.35043
1.35401
0.0534402
-0.056135
-1.60153
1.60422
0.058022
-0.0591463
-1.58708
1.5882
0.0595629
-0.0596026
-1.31727
1.31731
0.0592122
-0.0584021
-1.09935
1.09854
0.0576061
-0.0568698
-0.922958
0.922222
0.0560157
-0.0542698
-0.776513
0.774767
0.0513869
-0.0462435
-0.629451
0.624308
0.0396093
-0.0308828
-0.44475
0.436024
0.0226581
-0.0144292
-0.249783
0.241554
0.00834467
-0.00354564
-0.102173
0.0973735
0.000967225
-0.0147717
0.0138045
-0.0328743
0.033912
-0.00103771
0.00638426
-0.00955787
-0.234076
0.237249
0.0129832
-0.0157977
-0.402672
0.405487
0.0185546
-0.0210537
-0.564626
0.567125
0.0239736
-0.0271334
-0.696479
0.699639
0.0311739
-0.0352204
-0.822804
0.826851
0.0398959
-0.0442734
-0.970615
0.974993
0.0491025
-0.0534422
-1.14748
1.15182
0.0579962
-0.0618281
-1.35756
1.36139
0.0654863
-0.0681456
-1.6068
1.60946
0.0698569
-0.0706901
-1.58909
1.58992
0.0707829
-0.0704794
-1.31681
1.31651
0.0697917
-0.0686144
-1.09778
1.0966
0.0674833
-0.0664587
-0.921092
0.920067
0.065072
-0.0626935
-0.772712
0.770333
0.0588318
-0.0523383
-0.618984
0.61249
0.0443583
-0.0342346
-0.426851
0.416727
0.0249277
-0.0157635
-0.232956
0.223792
0.00906094
-0.00382373
-0.0923926
0.0871554
0.00103505
-0.0128152
0.0117801
-0.0349966
0.0364377
-0.00144115
0.00887036
-0.0134102
-0.24082
0.24536
0.0183369
-0.0223965
-0.408986
0.413046
0.0263022
-0.0296707
-0.570798
0.574167
0.0333787
-0.0372087
-0.703521
0.707351
0.0419958
-0.0467074
-0.830953
0.835665
0.0520826
-0.0570606
-0.979343
0.984321
0.0624855
-0.0672852
-1.15613
1.16093
0.0722221
-0.076268
-1.36515
1.3692
0.079987
-0.0825247
-1.61195
1.61449
0.0839644
-0.0844063
-1.59045
1.59089
0.0841125
-0.0833852
-1.31554
1.31482
0.0823406
-0.080781
-1.0954
1.09384
0.0793336
-0.0778842
-0.918536
0.917086
0.075982
-0.0727239
-0.767601
0.764343
0.0676403
-0.0594609
-0.605777
0.597598
0.0498166
-0.0379879
-0.406066
0.394237
0.0273863
-0.0171401
-0.214197
0.203951
0.00976028
-0.00407603
-0.0817311
0.0760468
0.00109051
-0.0107286
0.00963811
-0.0378916
0.0399011
-0.0020095
0.0123267
-0.0185978
-0.250209
0.25648
0.0253296
-0.0308451
-0.418116
0.423632
0.0361122
-0.0405495
-0.579088
0.583526
0.0452508
-0.0499503
-0.712051
0.71675
0.0556939
-0.0612216
-0.840427
0.845955
0.0674167
-0.0730643
-0.989281
0.994929
0.0791128
-0.0843516
-1.16568
1.17092
0.0895995
-0.0937537
-1.3731
1.37726
0.0973819
-0.0996377
-1.61678
1.61903
0.100649
-0.100555
-1.59095
1.59086
0.0997846
-0.0985192
-1.31333
1.31206
0.0970725
-0.095115
-1.09216
1.0902
0.0933096
-0.0913194
-0.914977
0.912987
0.0888708
-0.0844713
-0.760643
0.756243
0.077824
-0.0675143
-0.589122
0.578813
0.0558114
-0.0419323
-0.381784
0.367905
0.029834
-0.0184068
-0.193241
0.181814
0.0103453
-0.00425879
-0.0701963
0.0641097
0.00112125
-0.00854245
0.0074212
-0.0418826
0.0447749
-0.00289225
0.017334
-0.0258722
-0.26298
0.271518
0.0348481
-0.042127
-0.430729
0.438008
0.0490371
-0.0547473
-0.589988
0.595698
0.060771
-0.0666365
-0.72249
0.728356
0.0735277
-0.0799783
-0.851505
0.857955
0.0870458
-0.0933456
-1.00054
1.00684
0.0999292
-0.105469
-1.17602
1.18156
0.110822
-0.114862
-1.38115
1.38519
0.118127
-0.119842
-1.6209
1.62261
0.120192
-0.11936
-1.59028
1.58944
0.117957
-0.116062
-1.30997
1.30807
0.114165
-0.111778
-1.08797
1.08558
0.109587
-0.10695
-0.910152
0.907514
0.103777
-0.09785
-0.751248
0.745321
0.0891799
-0.0761892
-0.568095
0.555104
0.0619753
-0.0457007
-0.353357
0.337083
0.0319596
-0.0193482
-0.16995
0.157339
0.0106881
-0.00431846
-0.0579167
0.051547
0.00111298
-0.00631234
0.00519936
-0.0475555
0.0519412
-0.00438571
0.0250935
-0.036718
-0.280295
0.291919
0.0486171
-0.0582355
-0.44787
0.457489
0.0671828
-0.0743711
-0.604099
0.611287
0.081954
-0.0893544
-0.735211
0.742611
0.0974643
-0.104762
-0.86439
0.871688
0.112539
-0.119273
-1.013
1.01973
0.126077
-0.13158
-1.1868
1.1923
0.136629
-0.140162
-1.38876
1.39229
0.142631
-0.143419
-1.62373
1.62452
0.142779
-0.140964
-1.58799
1.58617
0.138763
-0.136134
-1.30527
1.30264
0.133702
-0.130858
-1.08271
1.07987
0.128145
-0.124865
-0.903921
0.900641
0.120595
-0.112572
-0.738563
0.730539
0.101238
-0.0849058
-0.541528
0.525195
0.067718
-0.0487813
-0.320189
0.301252
0.0333711
-0.0197216
-0.14443
0.13078
0.0106562
-0.00420392
-0.0451829
0.0387306
0.00105228
-0.00412071
0.00306843
-0.0559974
0.0635236
-0.00752623
0.0387477
-0.0548679
-0.304325
0.320445
0.070848
-0.0836808
-0.47117
0.484003
0.0948038
-0.103387
-0.621862
0.630445
0.112491
-0.121178
-0.750608
0.759295
0.130233
-0.137964
-0.878777
0.886508
0.145864
-0.152425
-1.02605
1.03261
0.158762
-0.16358
-1.19718
1.202
0.167641
-0.170046
-1.39504
1.39745
0.17114
-0.170554
-1.62445
1.62386
0.168571
-0.165472
-1.58359
1.58049
0.162255
-0.158726
-1.29898
1.29545
0.155673
-0.152356
-1.07624
1.07293
0.149088
-0.144879
-0.895977
0.891768
0.13894
-0.12797
-0.721287
0.710318
0.113111
-0.0926839
-0.507971
0.487545
0.0722287
-0.0506152
-0.281919
0.260306
0.0337399
-0.0193958
-0.117171
0.102827
0.0102117
-0.00391721
-0.0324695
0.026175
0.000942753
-0.00207485
0.00113209
-0.0705303
0.0747469
-0.00421659
0.0296964
-0.0436647
-0.339101
0.35307
0.0578364
-0.0695688
-0.502074
0.513807
0.0801168
-0.0899871
-0.642891
0.652761
0.101063
-0.111199
-0.767556
0.777691
0.122483
-0.132588
-0.893368
0.903472
0.143408
-0.153082
-1.03824
1.04791
0.163242
-0.172015
-1.20574
1.21452
0.180824
-0.187966
-1.39871
1.40586
0.194505
-0.199025
-1.62211
1.62663
0.201511
-0.202568
-1.57641
1.57747
0.202453
-0.201814
-1.29079
1.29015
0.201392
-0.200468
-1.06832
1.06739
0.198923
-0.194612
-0.885489
0.881177
0.186068
-0.169103
-0.697512
0.680547
0.146036
-0.115712
-0.465952
0.435628
0.0871459
-0.0586077
-0.238706
0.210168
0.0377102
-0.0209227
-0.0892068
0.0724193
0.0106554
-0.00393538
-0.0204039
0.0136839
0.000905058
-0.000276168
-0.00062889
-0.0820387
0.0801798
0.00185882
0.00769512
-0.0169489
-0.369903
0.379156
0.0277412
-0.036085
-0.530295
0.538638
0.0445844
-0.0529799
-0.665211
0.673607
0.0631694
-0.0726695
-0.78749
0.79699
0.0828117
-0.0921105
-0.913034
0.922333
0.102031
-0.110562
-1.05731
1.06584
0.119714
-0.127256
-1.22312
1.23066
0.134787
-0.140629
-1.41273
1.41857
0.14546
-0.148488
-1.63042
1.63345
0.149532
-0.149179
-1.57792
1.57757
0.147644
-0.145468
-1.28858
1.2864
0.143595
-0.141553
-1.06376
1.06172
0.138932
-0.133317
-0.872372
0.866757
0.12399
-0.108308
-0.659416
0.643734
0.0897013
-0.0675049
-0.403605
0.381408
0.0486242
-0.0315805
-0.182401
0.165357
0.019935
-0.0109956
-0.0568025
0.0478631
0.00562313
-0.00207267
-0.00732841
0.00377795
0.000414224
0.00160284
-0.00201707
-0.0835228
0.0805643
0.00295854
-0.00170398
-0.00369586
-0.390743
0.396143
0.0110822
-0.0171431
-0.551229
0.55729
0.0234569
-0.0308006
-0.684147
0.69149
0.0396207
-0.0478694
-0.805592
0.81384
0.0569013
-0.0650146
-0.930878
0.938992
0.0734184
-0.081004
-1.07418
1.08176
0.0889189
-0.0955169
-1.23774
1.24434
0.101628
-0.106141
-1.42372
1.42823
0.109819
-0.111565
-1.63576
1.63751
0.111372
-0.109828
-1.57663
1.57509
0.10737
-0.10438
-1.28382
1.28083
0.101286
-0.0980559
-1.05705
1.05382
0.0944702
-0.0886285
-0.857157
0.851315
0.079982
-0.0667873
-0.62497
0.611776
0.0529455
-0.0381072
-0.357616
0.342777
0.0269432
-0.0176508
-0.148274
0.138981
0.0114803
-0.00668953
-0.0391575
0.0343667
0.00360963
-0.00132228
-0.000364223
-0.00192312
0.000294235
0.00265798
-0.00295221
-0.0822005
0.079386
0.00281451
-0.00550178
0.00291421
-0.404654
0.407242
0.00187666
-0.00647138
-0.566715
0.57131
0.0117834
-0.0179215
-0.69977
0.705908
0.0254281
-0.032474
-0.821444
0.82849
0.0401785
-0.0471201
-0.94656
0.953501
0.0546846
-0.0610872
-1.08888
1.09529
0.0679411
-0.0731633
-1.25048
1.2557
0.0782699
-0.0818756
-1.43247
1.43607
0.0843883
-0.0848601
-1.63874
1.63921
0.0838322
-0.0814838
-1.57292
1.57057
0.078315
-0.0741764
-1.27734
1.27321
0.0702937
-0.0660672
-1.04851
1.04428
0.0615378
-0.0558614
-0.841231
0.835554
0.0483243
-0.0383822
-0.596041
0.586099
0.0290272
-0.0202725
-0.326908
0.318154
0.0143935
-0.00987542
-0.128988
0.12447
0.00688267
-0.00439658
-0.0291527
0.0266666
0.00250397
-0.00103702
0.00430337
-0.00577032
0.000263981
0.00350513
-0.00376911
-0.080582
0.0780559
0.00252613
-0.00679468
0.00589038
-0.413868
0.414772
-0.00238044
-0.000913327
-0.579105
0.582399
0.00520687
-0.0107489
-0.712829
0.718371
0.0170199
-0.0231653
-0.834819
0.840964
0.0297939
-0.0357726
-0.959963
0.965941
0.0421981
-0.0478128
-1.10151
1.10713
0.0535251
-0.0581675
-1.26072
1.26537
0.0623671
-0.0651635
-1.43923
1.44203
0.0668035
-0.0664706
-1.63941
1.63907
0.0646848
-0.0613844
-1.5674
1.5641
0.0575677
-0.052862
-1.26878
1.26407
0.0482791
-0.0430614
-1.03845
1.03323
0.0380424
-0.032382
-0.825669
0.820008
0.0261862
-0.0188185
-0.573865
0.566497
0.0129885
-0.00849608
-0.308124
0.303631
0.00605955
-0.00455861
-0.118953
0.117452
0.00360823
-0.00264696
-0.0236042
0.0226429
0.00161268
-0.00075359
0.00755491
-0.008414
0.000221408
0.0042798
-0.00450121
-0.0790173
0.0768219
0.00219542
-0.00681671
0.00649458
-0.420071
0.420393
-0.00443433
0.00179943
-0.588554
0.591189
0.00228674
-0.00699636
-0.723829
0.728539
0.0123407
-0.017638
-0.8463
0.851597
0.0234765
-0.0287533
-0.971538
0.976814
0.0345347
-0.0393584
-1.11241
1.11724
0.0443589
-0.0483769
-1.26965
1.27367
0.0518581
-0.0540155
-1.44446
1.44662
0.0549452
-0.0543433
-1.63852
1.63792
0.0519184
-0.0481692
-1.5602
1.55645
0.0438141
-0.0385144
-1.25894
1.25364
0.033614
-0.0276619
-1.02695
1.021
0.0221836
-0.0166475
-0.810811
0.805275
0.0113263
-0.00581058
-0.55723
0.551714
0.00234592
-0.000544573
-0.297287
0.295485
0.000354478
-0.000611108
-0.11458
0.114836
0.000852214
-0.000982772
-0.0212085
0.021339
0.00064833
-0.000385795
0.00949078
-0.00975332
0.000139074
0.00489634
-0.00503541
-0.0777455
0.0760005
0.00174494
-0.00605173
0.00613154
-0.424521
0.424442
-0.00453233
0.00260355
-0.596699
0.598628
0.00115023
-0.00537984
-0.733257
0.737487
0.0103907
-0.0149048
-0.856472
0.860986
0.0199724
-0.0245819
-0.982027
0.986636
0.0299632
-0.0342404
-1.12204
1.12632
0.0385454
-0.0421764
-1.27743
1.28106
0.0455564
-0.047275
-1.4487
1.45042
0.0478771
-0.0467901
-1.63678
1.6357
0.0442887
-0.0399069
-1.55232
1.54794
0.035389
-0.0298841
-1.24797
1.24247
0.0244953
-0.0183673
-1.01441
1.00829
0.0125803
-0.00672992
-0.796554
0.790704
0.00225184
0.00201712
-0.544077
0.539808
-0.00430351
0.00462709
-0.29127
0.290947
-0.00386011
0.00273251
-0.113936
0.115064
-0.0016544
0.000677763
-0.0211359
0.0221125
-0.000298056
8.04687e-06
0.0101489
-0.00985888
4.19603e-05
0.00527139
-0.00531335
-0.0769489
0.0755509
0.001398
-0.00505601
0.00531666
-0.427882
0.427621
-0.00397197
0.00217357
-0.603671
0.605469
0.00136949
-0.00509735
-0.741634
0.745362
0.00933466
-0.0136305
-0.865416
0.869712
0.0182409
-0.0229052
-0.991016
0.99568
0.027443
-0.0314196
-1.13064
1.13462
0.0357045
-0.0389242
-1.28451
1.28772
0.0416049
-0.043504
-1.45196
1.45386
0.0439671
-0.0428036
-1.63455
1.63338
0.0400564
-0.0357931
-1.54362
1.53935
0.0311579
-0.0254886
-1.23648
1.23081
0.0200345
-0.0137343
-1.00156
0.995255
0.00786953
-0.00206401
-0.782759
0.776954
-0.00220904
0.00572623
-0.533085
0.529568
-0.00749467
0.00747076
-0.287982
0.288006
-0.00634655
0.00474478
-0.115036
0.116638
-0.00331759
0.00189134
-0.0226926
0.0241188
-0.00100483
0.000330162
0.00964402
-0.00896935
-4.6605e-05
0.00536902
-0.00532241
-0.0766676
0.075485
0.0011825
-0.00382828
0.00389273
-0.43076
0.430695
-0.0028789
0.00114029
-0.609957
0.611695
0.00220613
-0.00575285
-0.749308
0.752854
0.00976429
-0.0135956
-0.873758
0.877589
0.0182526
-0.022046
-0.999725
1.00352
0.0264588
-0.0301535
-1.13871
1.1424
0.0341957
-0.0374767
-1.29086
1.29415
0.0402675
-0.0417483
-1.45543
1.45691
0.0422952
-0.0412456
-1.63205
1.631
0.0388215
-0.0345134
-1.53486
1.53055
0.029996
-0.0243831
-1.22513
1.21952
0.0190109
-0.0127039
-0.988437
0.98213
0.00700012
-0.00105042
-0.769438
0.763488
-0.00317926
0.00644152
-0.523414
0.520152
-0.00821364
0.00824105
-0.285576
0.285548
-0.00727672
0.00571887
-0.116907
0.118465
-0.00425143
0.00264666
-0.0251101
0.0267149
-0.0014955
0.000578637
0.00835868
-0.00744182
-0.000129003
0.00524121
-0.0051122
-0.076657
0.0758116
0.000845423
-0.00269413
0.00231688
-0.433638
0.434016
-0.00147391
-0.000286163
-0.615428
0.617188
0.00330659
-0.00667395
-0.756382
0.759749
0.0104692
-0.014383
-0.881245
0.885159
0.0183575
-0.0222525
-1.00749
1.01138
0.0265521
-0.0299574
-1.14648
1.14989
0.0339884
-0.0371127
-1.29717
1.30029
0.0398211
-0.0416844
-1.45874
1.4606
0.0425242
-0.0415412
-1.6299
1.62892
0.0391295
-0.0352993
-1.52634
1.52251
0.0311195
-0.0256664
-1.21372
1.20827
0.0203774
-0.0144711
-0.975577
0.969671
0.0085641
-0.00289025
-0.756234
0.75056
-0.00153075
0.00489072
-0.51433
0.51097
-0.00663569
0.0072433
-0.283126
0.282518
-0.00676973
0.00567678
-0.118712
0.119805
-0.00439159
0.0028935
-0.0277617
0.0292598
-0.00171901
0.000729763
0.00662859
-0.00563934
-0.000187451
0.00493389
-0.00474644
-0.0770641
0.0763905
0.00067362
-0.00172568
0.0014266
-0.436683
0.436982
-0.000139528
-0.00165104
-0.620836
0.622627
0.00476021
-0.00795308
-0.762867
0.76606
0.0115586
-0.0150284
-0.888703
0.892173
0.0190826
-0.0226126
-1.01525
1.01878
0.026803
-0.0305871
-1.15371
1.1575
0.0341752
-0.0375501
-1.30341
1.30678
0.0405774
-0.0424173
-1.4623
1.46414
0.0434837
-0.043132
-1.62809
1.62774
0.0410004
-0.0376342
-1.51849
1.51512
0.0335451
-0.0284661
-1.20284
1.19776
0.0235522
-0.0177811
-0.963269
0.957497
0.0122369
-0.00657232
-0.743555
0.73789
0.00193643
0.00181665
-0.505038
0.501285
-0.00390143
0.00496842
-0.279938
0.278871
-0.00514555
0.00459849
-0.119655
0.120203
-0.00373916
0.00260239
-0.0300934
0.0312301
-0.00161705
0.000734502
0.00482086
-0.00393831
-0.00020656
0.00452882
-0.00432226
-0.0777642
0.0772724
0.000491838
-0.000660752
0.000244687
-0.439879
0.440295
0.00108573
-0.00313157
-0.625957
0.628003
0.00612259
-0.00913226
-0.769047
0.772056
0.0128004
-0.0160876
-0.895591
0.898878
0.0199478
-0.0235676
-1.02276
1.02638
0.0276167
-0.031321
-1.16109
1.1648
0.0350773
-0.0384184
-1.31003
1.31337
0.0415558
-0.0440667
-1.46622
1.46873
0.0454685
-0.0452931
-1.62726
1.62709
0.0437349
-0.0405788
-1.5116
1.50845
0.0369811
-0.0324199
-1.19262
1.18806
0.0275756
-0.0220718
-0.951413
0.945909
0.0167418
-0.0110282
-0.731194
0.72548
0.00636738
-0.00207743
-0.495629
0.491339
-0.000435934
0.00220425
-0.275835
0.274067
-0.00292136
0.00297102