/*--------------------------------*- C++ -*----------------------------------*\
| =========                 |                                                 |
| \\      /  F ield         | OpenFOAM: The Open Source CFD Toolbox           |
|  \\    /   O peration     | Version:  4.0                                   |
|   \\  /    A nd           | Web:      www.OpenFOAM.org                      |
|    \\/     M anipulation  |                                                 |
\*---------------------------------------------------------------------------*/
FoamFile
{
    version     2.0;
    format      ascii;
    class       volVectorField;
    location    "73";
    object      U;
}
// * * * * * * * * * * * * * * * * * * * * * * * * * * * * * * * * * * * * * //

dimensions      [0 1 -1 0 0 0 0];

internalField   nonuniform List<vector> 
8800
(
(0.980135 -0.0915199 0)
(1.00234 -0.0587303 0)
(0.999586 -0.032128 0)
(0.999989 -0.01652 0)
(1.0001 -0.0088382 0)
(1.00012 -0.00509194 0)
(1.00007 -0.00298739 0)
(1.00003 -0.00167649 0)
(0.999998 -0.000774738 0)
(1.00007 -7.53394e-05 0)
(0.999972 0.000634895 0)
(0.999984 0.00139353 0)
(1.00003 0.00241399 0)
(1.00006 0.00400981 0)
(1.00004 0.00675345 0)
(1.00001 0.0120539 0)
(0.999815 0.0230955 0)
(0.999036 0.0431549 0)
(1.00724 0.0790245 0)
(0.775027 0.0478395 0)
(0.359002 -0.0147478 0)
(1.04651 -0.072475 0)
(1.08848 -0.0660105 0)
(1.04945 -0.0509007 0)
(1.02556 -0.0376755 0)
(1.01278 -0.0258652 0)
(1.00661 -0.016664 0)
(1.00365 -0.0101693 0)
(1.00219 -0.00553367 0)
(1.00151 -0.001935 0)
(1.00137 0.00127928 0)
(1.00171 0.0045922 0)
(1.0027 0.0084795 0)
(1.00476 0.0137773 0)
(1.00898 0.0214459 0)
(1.01795 0.0319316 0)
(1.0358 0.0446982 0)
(1.06743 0.0581354 0)
(1.09468 0.069947 0)
(0.845604 0.0555092 0)
(0.217827 -0.00137925 0)
(1.07571 -0.0506258 0)
(1.09944 -0.0489028 0)
(1.06442 -0.0399791 0)
(1.03995 -0.0325112 0)
(1.02386 -0.0252867 0)
(1.01406 -0.0180553 0)
(1.00854 -0.0114225 0)
(1.00566 -0.00565554 0)
(1.00447 -0.000357114 0)
(1.00476 0.00475685 0)
(1.00661 0.0100456 0)
(1.01057 0.015999 0)
(1.01789 0.0227332 0)
(1.03047 0.0298247 0)
(1.05046 0.0369005 0)
(1.08003 0.0446665 0)
(1.10563 0.0519783 0)
(0.943202 0.041028 0)
(0.217137 0.00140719 0)
(0.176712 -0.000627353 0)
(1.0195 -0.0354293 0)
(1.10577 -0.0413569 0)
(1.07804 -0.0363283 0)
(1.05253 -0.0302694 0)
(1.03531 -0.0243765 0)
(1.02343 -0.0185633 0)
(1.01559 -0.0125477 0)
(1.01096 -0.0064357 0)
(1.0089 -0.000186232 0)
(1.0094 0.00597502 0)
(1.01247 0.0118888 0)
(1.01846 0.0176346 0)
(1.02804 0.0231791 0)
(1.04221 0.0287108 0)
(1.06303 0.0344739 0)
(1.09382 0.0403429 0)
(1.09436 0.0418464 0)
(0.830023 0.0228055 0)
(0.175533 0.000649857 0)
(0.154837 -0.00046101 0)
(0.958377 -0.0256471 0)
(1.10451 -0.035041 0)
(1.08818 -0.0325732 0)
(1.06138 -0.0280481 0)
(1.04334 -0.0230641 0)
(1.03093 -0.0177386 0)
(1.0223 -0.0121727 0)
(1.01671 -0.00623967 0)
(1.01402 0.000230375 0)
(1.01462 0.0066945 0)
(1.01838 0.012563 0)
(1.0252 0.017849 0)
(1.03532 0.0228166 0)
(1.05002 0.0276184 0)
(1.07194 0.0320346 0)
(1.10092 0.0358892 0)
(1.06953 0.0340653 0)
(0.74221 0.0144905 0)
(0.153068 0.000486257 0)
(0.140195 -0.000332699 0)
(0.9015 -0.0192729 0)
(1.097 -0.0301258 0)
(1.09636 -0.0292217 0)
(1.06913 -0.025416 0)
(1.0503 -0.021304 0)
(1.03731 -0.0165752 0)
(1.02828 -0.0112954 0)
(1.0223 -0.00554395 0)
(1.01925 0.000832666 0)
(1.01981 0.00721134 0)
(1.02377 0.0128559 0)
(1.03083 0.0177999 0)
(1.04131 0.0222205 0)
(1.05663 0.0261394 0)
(1.07941 0.0296239 0)
(1.10316 0.0323093 0)
(1.0376 0.0282559 0)
(0.675202 0.010354 0)
(0.1377 0.000362676 0)
(0.129506 -0.000250991 0)
(0.851791 -0.0148664 0)
(1.08475 -0.0260043 0)
(1.10211 -0.0263149 0)
(1.07601 -0.0229656 0)
(1.05667 -0.0192793 0)
(1.04324 -0.0150475 0)
(1.03384 -0.0101477 0)
(1.02757 -0.00461318 0)
(1.02429 0.00158134 0)
(1.02471 0.00774379 0)
(1.02868 0.0131037 0)
(1.03588 0.0176197 0)
(1.04663 0.02143 0)
(1.06231 0.0247465 0)
(1.08554 0.0277461 0)
(1.1023 0.0295225 0)
(1.00272 0.0237479 0)
(0.622916 0.00796274 0)
(0.126123 0.000287436 0)
(0.121377 -0.000191888 0)
(0.809493 -0.0116709 0)
(1.06957 -0.0223874 0)
(1.10571 -0.0236529 0)
(1.08232 -0.0207505 0)
(1.06252 -0.0172865 0)
(1.04882 -0.0133315 0)
(1.03915 -0.00874732 0)
(1.03259 -0.00348108 0)
(1.02906 0.00248453 0)
(1.0293 0.00837829 0)
(1.03321 0.0133831 0)
(1.04046 0.0174356 0)
(1.05129 0.020766 0)
(1.06721 0.0236836 0)
(1.09082 0.0263596 0)
(1.09855 0.0272189 0)
(0.967367 0.0202132 0)
(0.580855 0.00640842 0)
(0.116915 0.000236144 0)
(0.115094 -0.00014695 0)
(0.773889 -0.00927608 0)
(1.05288 -0.019198 0)
(1.10814 -0.0211866 0)
(1.08825 -0.0186601 0)
(1.06804 -0.0153518 0)
(1.05407 -0.0115593 0)
(1.04421 -0.00717008 0)
(1.03742 -0.002136 0)
(1.03361 0.00357465 0)
(1.03361 0.00916095 0)
(1.03737 0.0137854 0)
(1.04455 0.0174285 0)
(1.05539 0.0203751 0)
(1.07153 0.0229588 0)
(1.09482 0.0252795 0)
(1.09193 0.0253236 0)
(0.932874 0.0174885 0)
(0.546 0.00534705 0)
(0.10932 0.000200644 0)
(0.11021 -0.000111352 0)
(0.744057 -0.00741718 0)
(1.03575 -0.0163642 0)
(1.10963 -0.018861 0)
(1.09389 -0.016641 0)
(1.07338 -0.0134273 0)
(1.05913 -0.00972649 0)
(1.04907 -0.00545387 0)
(1.04205 -0.00058273 0)
(1.03794 0.00488614 0)
(1.03764 0.0101548 0)
(1.04116 0.0144177 0)
(1.0482 0.0176915 0)
(1.059 0.0202874 0)
(1.07536 0.0225775 0)
(1.09752 0.0245166 0)
(1.08284 0.0237851 0)
(0.89982 0.0154263 0)
(0.516276 0.00461076 0)
(0.102841 0.000176378 0)
(0.106435 -8.18611e-05 0)
(0.719178 -0.00591737 0)
(1.01902 -0.0138147 0)
(1.1103 -0.0166074 0)
(1.09943 -0.014662 0)
(1.07865 -0.0114611 0)
(1.0641 -0.00778901 0)
(1.0538 -0.0035738 0)
(1.04652 0.00119291 0)
(1.04207 0.0064602 0)
(1.04139 0.011432 0)
(1.0446 0.0153575 0)
(1.05144 0.0182777 0)
(1.06219 0.0205336 0)
(1.07873 0.0225585 0)
(1.09885 0.0240849 0)
(1.07163 0.022601 0)
(0.868322 0.0139136 0)
(0.490203 0.00410795 0)
(0.0971284 0.000160775 0)
(0.103576 -5.62825e-05 0)
(0.698611 -0.00465822 0)
(1.00331 -0.0114832 0)
(1.11032 -0.0143889 0)
(1.10483 -0.0126385 0)
(1.08392 -0.00940118 0)
(1.06904 -0.00569815 0)
(1.05848 -0.0014764 0)
(1.05088 0.00323779 0)
(1.04602 0.00835566 0)
(1.04486 0.013063 0)
(1.04769 0.0166654 0)
(1.0543 0.0192391 0)
(1.06496 0.0211616 0)
(1.08165 0.0229254 0)
(1.09913 0.0240557 0)
(1.05858 0.0217862 0)
(0.83821 0.0128625 0)
(0.466674 0.00378177 0)
(0.0919172 0.000151968 0)
(0.101515 -3.26789e-05 0)
(0.681886 -0.00355131 0)
(0.989081 -0.00929949 0)
(1.10989 -0.0121201 0)
(1.11006 -0.0104802 0)
(1.08929 -0.00718414 0)
(1.07405 -0.00338941 0)
(1.06316 0.000904396 0)
(1.05517 0.0056239 0)
(1.0498 0.010646 0)
(1.04809 0.0151203 0)
(1.05045 0.0184097 0)
(1.05678 0.0206335 0)
(1.06733 0.0222181 0)
(1.08407 0.023709 0)
(1.09838 0.0244135 0)
(1.04383 0.0213524 0)
(0.80914 0.0122015 0)
(0.444812 0.00359423 0)
(0.0870001 0.000148549 0)
(0.100188 -9.39272e-06 0)
(0.668697 -0.00252729 0)
(0.976698 -0.00718996 0)
(1.10932 -0.00974197 0)
(1.11525 -0.00812808 0)
(1.09482 -0.00473668 0)
(1.07919 -0.000785421 0)
(1.06792 0.00364331 0)
(1.05946 0.00843576 0)
(1.05347 0.0134146 0)
(1.05107 0.0176843 0)
(1.05289 0.0206686 0)
(1.05887 0.0225315 0)
(1.06927 0.0237642 0)
(1.08602 0.0249812 0)
(1.09639 0.0252224 0)
(1.02742 0.0212911 0)
(0.780669 0.0118773 0)
(0.423905 0.00351964 0)
(0.0822107 0.000149428 0)
(0.0995788 1.58155e-05 0)
(0.658888 -0.00153281 0)
(0.966481 -0.00508398 0)
(1.10896 -0.00719033 0)
(1.12055 -0.00550877 0)
(1.10061 -0.00197148 0)
(1.08456 0.00220726 0)
(1.07283 0.00684097 0)
(1.06379 0.0117777 0)
(1.05705 0.0167654 0)
(1.05384 0.0208536 0)
(1.05499 0.0235365 0)
(1.06056 0.0250243 0)
(1.07078 0.0258942 0)
(1.08744 0.0267952 0)
(1.09312 0.0264873 0)
(1.0093 0.0216474 0)
(0.7523 0.0118636 0)
(0.403351 0.003544 0)
(0.0774116 0.000154156 0)
(0.0997062 3.55923e-05 0)
(0.652435 -0.000524354 0)
(0.958737 -0.0029094 0)
(1.10915 -0.00439189 0)
(1.12611 -0.00253516 0)
(1.10676 0.00121238 0)
(1.09025 0.00569301 0)
(1.07796 0.0106145 0)
(1.06822 0.0157705 0)
(1.06058 0.0208239 0)
(1.05638 0.0247533 0)
(1.05674 0.0271271 0)
(1.06183 0.0282369 0)
(1.07181 0.0287157 0)
(1.08808 0.0292446 0)
(1.08824 0.0282821 0)
(0.989274 0.0224452 0)
(0.72347 0.0121436 0)
(0.3826 0.00365715 0)
(0.0724784 0.000162162 0)
(0.100635 7.19686e-05 0)
(0.649447 0.000521017 0)
(0.953787 -0.00058604 0)
(1.11024 -0.00126383 0)
(1.13215 0.00088609 0)
(1.11339 0.00492806 0)
(1.09636 0.00980443 0)
(1.08342 0.0151043 0)
(1.07282 0.02056 0)
(1.06407 0.0257365 0)
(1.0587 0.0295253 0)
(1.05812 0.0315727 0)
(1.06263 0.0322913 0)
(1.07233 0.0323554 0)
(1.0878 0.0324569 0)
(1.0815 0.0307005 0)
(0.967033 0.0237299 0)
(0.693555 0.0127111 0)
(0.361133 0.00385241 0)
(0.0673003 0.000172989 0)
(0.10254 0.000106678 0)
(0.650281 0.00170686 0)
(0.951987 0.00197137 0)
(1.1127 0.00229827 0)
(1.13887 0.00485375 0)
(1.12064 0.00933127 0)
(1.10301 0.014708 0)
(1.08928 0.020486 0)
(1.07765 0.0263273 0)
(1.06756 0.0316773 0)
(1.06078 0.0353288 0)
(1.0591 0.0370071 0)
(1.06291 0.0373264 0)
(1.07225 0.0369408 0)
(1.08633 0.0365526 0)
(1.07261 0.0338281 0)
(0.942136 0.0255318 0)
(0.661886 0.0135564 0)
(0.338465 0.00412043 0)
(0.0617824 0.000185802 0)
(0.105494 0.000155736 0)
(0.655385 0.00317786 0)
(0.953819 0.00491946 0)
(1.11699 0.00641207 0)
(1.1465 0.00953437 0)
(1.12868 0.0146008 0)
(1.11036 0.0205971 0)
(1.09566 0.0269706 0)
(1.08275 0.0332887 0)
(1.07107 0.0388581 0)
(1.06262 0.0423543 0)
(1.05965 0.0436296 0)
(1.06261 0.0435125 0)
(1.07153 0.0426262 0)
(1.08354 0.0417228 0)
(1.06118 0.0377798 0)
(0.913998 0.0278939 0)
(0.627738 0.0146716 0)
(0.314138 0.00445196 0)
(0.0558472 0.000199724 0)
(0.109783 0.000219347 0)
(0.665162 0.00488214 0)
(0.95973 0.00839366 0)
(1.1236 0.011245 0)
(1.15532 0.0151306 0)
(1.13772 0.020969 0)
(1.11857 0.0277348 0)
(1.10268 0.0348347 0)
(1.0882 0.0417147 0)
(1.07457 0.047524 0)
(1.06416 0.0508206 0)
(1.05969 0.0516287 0)
(1.06168 0.0510357 0)
(1.07009 0.0495788 0)
(1.0795 0.0480799 0)
(1.04667 0.0426683 0)
(0.881863 0.0308351 0)
(0.590329 0.0160296 0)
(0.287735 0.00482881 0)
(0.0494424 0.000213319 0)
(0.11575 0.000304893 0)
(0.680401 0.00699981 0)
(0.970361 0.0125923 0)
(1.13313 0.0170422 0)
(1.16573 0.021914 0)
(1.14803 0.0287623 0)
(1.12783 0.0364735 0)
(1.11043 0.0444333 0)
(1.09401 0.0519385 0)
(1.07804 0.0579591 0)
(1.06534 0.0609642 0)
(1.05906 0.06119 0)
(1.06003 0.0600787 0)
(1.06791 0.0580126 0)
(1.07392 0.0558197 0)
(1.02836 0.0485665 0)
(0.844812 0.0343426 0)
(0.548868 0.0175746 0)
(0.258933 0.00522146 0)
(0.0425578 0.000224553 0)
(0.123902 0.000427893 0)
(0.702047 0.00977109 0)
(0.98659 0.0178274 0)
(1.14621 0.0241482 0)
(1.1782 0.0302749 0)
(1.15993 0.0384328 0)
(1.13834 0.0472838 0)
(1.11901 0.0562242 0)
(1.10017 0.0643637 0)
(1.0814 0.0704918 0)
(1.06605 0.0730441 0)
(1.05774 0.072549 0)
(1.05758 0.0707912 0)
(1.06488 0.0680439 0)
(1.06641 0.0648886 0)
(1.00533 0.0555207 0)
(0.801769 0.0383402 0)
(0.502615 0.0192046 0)
(0.227574 0.00558587 0)
(0.0352431 0.000230922 0)
(0.134968 0.000602082 0)
(0.731335 0.0135716 0)
(1.00958 0.024574 0)
(1.16365 0.033119 0)
(1.19334 0.0408173 0)
(1.17378 0.0506617 0)
(1.15027 0.0608465 0)
(1.12841 0.0708205 0)
(1.10656 0.079483 0)
(1.08447 0.0854755 0)
(1.06612 0.0873078 0)
(1.05563 0.0859192 0)
(1.05428 0.0834503 0)
(1.06065 0.0798248 0)
(1.05621 0.075561 0)
(0.976358 0.0634897 0)
(0.75154 0.0426538 0)
(0.45101 0.0207579 0)
(0.193765 0.00586234 0)
(0.0276259 0.000229634 0)
(0.150223 0.000883305 0)
(0.770326 0.0190107 0)
(1.041 0.033626 0)
(1.18637 0.044906 0)
(1.21196 0.0547703 0)
(1.18989 0.0665018 0)
(1.16368 0.078126 0)
(1.1385 0.0890023 0)
(1.11292 0.0978583 0)
(1.08699 0.103274 0)
(1.06535 0.103986 0)
(1.05256 0.10144 0)
(1.05001 0.098139 0)
(1.05491 0.0937491 0)
(1.04242 0.0878651 0)
(0.939899 0.0722471 0)
(0.692953 0.0469578 0)
(0.393895 0.0219966 0)
(0.158009 0.00597657 0)
(0.0199293 0.000217754 0)
(0.171894 0.00136914 0)
(0.822311 0.0272679 0)
(1.08352 0.0465734 0)
(1.21553 0.061392 0)
(1.23458 0.0740455 0)
(1.20837 0.0875628 0)
(1.1783 0.100428 0)
(1.14883 0.111699 0)
(1.11881 0.120079 0)
(1.08856 0.124215 0)
(1.06344 0.123243 0)
(1.04836 0.119202 0)
(1.04463 0.114881 0)
(1.0477 0.109604 0)
(1.02375 0.101647 0)
(0.894022 0.0813338 0)
(0.625202 0.0507628 0)
(0.331912 0.0226394 0)
(0.121369 0.00585673 0)
(0.0124844 0.000192386 0)
(0.203439 0.0024507 0)
(0.893089 0.0410959 0)
(1.14065 0.0673017 0)
(1.25152 0.0861255 0)
(1.26099 0.101464 0)
(1.22859 0.116212 0)
(1.19332 0.129355 0)
(1.15858 0.139888 0)
(1.12351 0.146678 0)
(1.08866 0.148526 0)
(1.06007 0.145137 0)
(1.04285 0.139217 0)
(1.03804 0.133687 0)
(1.03838 0.127385 0)
(0.998408 0.116458 0)
(0.836502 0.089938 0)
(0.548561 0.0534433 0)
(0.267247 0.0224967 0)
(0.0857856 0.00549885 0)
(0.00581127 0.000155722 0)
(0.246406 0.00880333 3.79058e-20)
(0.98674 0.0687171 3.32923e-20)
(1.21013 0.102067 -1.17461e-20)
(1.29131 0.122703 0)
(1.28835 0.140652 -3.10848e-34)
(1.2484 0.154798 4.57182e-21)
(1.20716 0.166433 -8.38673e-21)
(1.16666 0.174798 0)
(1.12621 0.178899 1.75836e-34)
(1.08654 0.177656 -1.07013e-20)
(1.05432 0.171391 0)
(1.03493 0.163488 -1.28732e-20)
(1.02941 0.157089 -3.80951e-20)
(1.0256 0.150432 -1.80411e-20)
(0.961772 0.134688 -5.44793e-21)
(0.760526 0.0992444 -3.24082e-21)
(0.457784 0.0551305 0)
(0.198571 0.0218897 2.26478e-21)
(0.0513091 0.00512812 2.67341e-21)
(-0.000138355 0.000103448 4.82256e-20)
(0.27652 0.0245655 2.51006e-20)
(1.0641 0.111912 5.52497e-22)
(1.26741 0.151627 3.01076e-21)
(1.32703 0.17246 0)
(1.31242 0.190157 -1.53599e-20)
(1.26548 0.202135 -1.76701e-20)
(1.21835 0.211455 -8.36142e-21)
(1.17206 0.217358 -3.02642e-20)
(1.12607 0.218731 0)
(1.08127 0.214482 4.53916e-20)
(1.04508 0.205492 4.5303e-20)
(1.02337 0.195688 1.35066e-20)
(1.01558 0.187752 4.96109e-20)
(1.00192 0.179081 7.0057e-20)
(0.903042 0.155503 0)
(0.656343 0.108186 9.89906e-20)
(0.350982 0.0559441 1.41857e-19)
(0.127396 0.0204583 1.5746e-19)
(0.016913 0.00354741 -1.79958e-19)
(-0.0060555 -0.000512989 -3.39195e-21)
(0.277574 0.0406768 0)
(1.11309 0.167851 3.80051e-21)
(1.30612 0.212578 0)
(1.35485 0.23282 -1.82798e-20)
(1.33139 0.247354 0)
(1.27858 0.255438 -3.39296e-20)
(1.22596 0.261007 1.68802e-20)
(1.17421 0.263314 -6.01527e-20)
(1.12299 0.261056 -1.59395e-21)
(1.07335 0.25312 2.33014e-20)
(1.03349 0.240915 9.95932e-20)
(1.00964 0.228886 -1.87495e-22)
(0.999381 0.219178 -3.60187e-20)
(0.975762 0.207325 -6.58258e-20)
(0.849107 0.174928 7.80357e-20)
(0.579725 0.115574 -1.38139e-19)
(0.286676 0.0565676 -1.82056e-20)
(0.088897 0.0187823 0)
(-0.00156674 0.00118796 -1.60947e-23)
(-0.00945046 -0.00134074 0)
(0.270968 0.0545872 3.31117e-20)
(1.13954 0.227064 -1.86789e-20)
(1.33006 0.278008 -1.76422e-20)
(1.37336 0.298332 8.18594e-21)
(1.34381 0.308839 -1.39652e-20)
(1.28661 0.312351 7.04801e-20)
(1.22948 0.313465 3.4913e-20)
(1.17304 0.311496 0)
(1.11718 0.305012 -1.15088e-19)
(1.06315 0.292853 0)
(1.01994 0.276991 -5.19672e-20)
(0.994085 0.262344 -6.47811e-20)
(0.981337 0.250396 -3.91373e-20)
(0.949178 0.23446 -4.77452e-20)
(0.804774 0.193223 0)
(0.528587 0.123761 0)
(0.249996 0.0586424 -1.18236e-19)
(0.0666367 0.0172792 2.33195e-20)
(-0.0138427 -0.00164194 -1.36597e-20)
(-0.0122373 -0.00238623 -1.59805e-20)
(0.263006 0.0668288 -8.10163e-22)
(1.15107 0.286051 0)
(1.34322 0.344296 2.94772e-20)
(1.38355 0.365189 2.14243e-20)
(1.34977 0.371752 3.32347e-20)
(1.28938 0.370652 0)
(1.22872 0.367176 3.33912e-20)
(1.16843 0.360707 6.58214e-20)
(1.1086 0.349731 5.84175e-20)
(1.05068 0.333048 1.09537e-19)
(1.00439 0.313212 0)
(0.976612 0.295645 -1.39364e-19)
(0.961541 0.281092 -8.42874e-20)
(0.922424 0.260748 -4.99124e-20)
(0.769282 0.211316 3.06353e-19)
(0.496239 0.133156 3.63883e-20)
(0.230386 0.0620508 1.70842e-19)
(0.0543573 0.0160926 -8.06807e-19)
(-0.0222414 -0.00474809 4.76679e-19)
(-0.014711 -0.0036184 -5.74566e-19)
(0.255229 0.0778192 1.51475e-20)
(1.15294 0.342917 -3.1028e-22)
(1.34848 0.409503 -1.57919e-21)
(1.38701 0.431492 -1.6593e-20)
(1.35021 0.43435 -2.50413e-20)
(1.28746 0.428805 1.79903e-21)
(1.22402 0.420873 -3.62342e-20)
(1.16057 0.409952 6.74522e-20)
(1.09734 0.394466 -1.25607e-19)
(1.03596 0.373165 0)
(0.986822 0.349183 -6.2849e-20)
(0.957133 0.328464 -1.56926e-21)
(0.939806 0.311101 -9.22825e-20)
(0.895792 0.286395 0)
(0.740344 0.22972 -6.62762e-20)
(0.476023 0.144051 -1.56994e-19)
(0.221178 0.0669075 4.17687e-19)
(0.0496564 0.0157679 -4.11378e-19)
(-0.0264733 -0.00754 5.82976e-19)
(-0.0164655 -0.00487122 -6.05853e-19)
(0.248523 0.0879031 -4.26212e-22)
(1.14872 0.396978 4.85032e-21)
(1.34801 0.472623 3.97489e-21)
(1.38518 0.496035 4.23921e-21)
(1.34621 0.495585 -1.21257e-20)
(1.28167 0.485875 0)
(1.216 0.473732 -3.24843e-20)
(1.14991 0.458541 -7.02703e-20)
(1.08374 0.43867 -6.4927e-20)
(1.01924 0.412803 0)
(0.967433 0.38464 -6.48514e-20)
(0.935818 0.360671 -8.10375e-20)
(0.916386 0.340393 1.00103e-19)
(0.869166 0.311392 -6.08991e-20)
(0.715666 0.248609 -2.89189e-19)
(0.46271 0.15647 1.71251e-19)
(0.21901 0.0732418 5.07273e-20)
(0.0504471 0.0166004 0)
(-0.0269888 -0.00944467 -5.63402e-19)
(-0.0173129 -0.00595413 -2.06811e-20)
(0.243024 0.097395 5.46026e-21)
(1.14076 0.448045 -8.01197e-21)
(1.34333 0.533188 -3.48778e-21)
(1.37933 0.5581 1.86528e-20)
(1.33871 0.554795 -4.0144e-20)
(1.27282 0.541287 5.94931e-20)
(1.20534 0.525231 7.00793e-20)
(1.13702 0.506027 -1.12164e-19)
(1.06823 0.481983 4.09549e-20)
(1.00088 0.451692 -2.68906e-19)
(0.946528 0.41941 -7.37923e-20)
(0.912999 0.392194 0)
(0.891555 0.369009 1.08753e-19)
(0.842146 0.335941 1.30665e-19)
(0.69288 0.267958 1.55983e-19)
(0.452425 0.169932 -1.86367e-19)
(0.219316 0.0808597 -5.50483e-20)
(0.0543152 0.0189027 6.469e-20)
(-0.0244947 -0.0101537 0)
(-0.017202 -0.00668555 -4.49968e-20)
(0.238675 0.106464 -8.13183e-20)
(1.13074 0.496228 4.59715e-20)
(1.33569 0.59099 5.42308e-21)
(1.37047 0.617363 7.96578e-21)
(1.32855 0.611592 -1.5265e-20)
(1.26163 0.594655 -4.1185e-21)
(1.19266 0.575035 -7.71115e-20)
(1.1224 0.552127 -4.0722e-20)
(1.05128 0.524165 -1.13054e-19)
(0.981264 0.48966 3.26271e-22)
(0.924465 0.453379 -2.30634e-19)
(0.889027 0.422974 1.96662e-19)
(0.865622 0.396929 -1.19915e-19)
(0.814675 0.36006 1.44429e-19)
(0.670791 0.287067 0)
(0.442566 0.183942 -1.0165e-19)
(0.220128 0.089306 3.32234e-22)
(0.0594826 0.0224161 -2.83111e-19)
(-0.0202413 -0.00978893 -4.15058e-20)
(-0.0163942 -0.00709539 0)
(0.235369 0.115257 0)
(1.11968 0.541756 5.25516e-20)
(1.32606 0.646475 2.31912e-20)
(1.35944 0.673696 -3.75748e-21)
(1.31641 0.665775 -2.30356e-20)
(1.24869 0.645772 0)
(1.1785 0.622933 -3.3304e-20)
(1.10655 0.596649 -1.0394e-21)
(1.03329 0.565074 2.42584e-19)
(0.960751 0.526598 -3.678e-20)
(0.901561 0.486472 -1.66873e-19)
(0.864242 0.452947 1.02061e-19)
(0.839013 0.424115 -2.23144e-21)
(0.786833 0.383497 1.5395e-19)
(0.648249 0.305736 9.44351e-20)
(0.431515 0.197975 -2.19646e-19)
(0.219776 0.0979903 2.59768e-19)
(0.0643731 0.0266896 7.70103e-20)
(-0.015192 -0.00852874 3.17035e-19)
(-0.0150782 -0.00718116 -8.46986e-19)
(0.233031 0.123944 -2.64155e-20)
(1.1083 0.584819 3.61119e-20)
(1.31501 0.698946 -2.46887e-20)
(1.34687 0.727088 -4.09343e-21)
(1.30287 0.717255 0)
(1.23452 0.694515 -2.34959e-20)
(1.16331 0.668804 1.14022e-19)
(1.08987 0.639479 8.87577e-20)
(1.01462 0.60461 0)
(0.939639 0.56244 -5.33038e-19)
(0.878093 0.518624 4.52814e-19)
(0.838936 0.48205 0)
(0.811938 0.450434 1.40815e-19)
(0.758639 0.406077 -2.2043e-21)
(0.624696 0.323517 -3.04041e-19)
(0.418655 0.211261 1.1862e-19)
(0.217139 0.106474 0)
(0.0678493 0.0312605 4.16667e-19)
(-0.0103997 -0.00674232 0)
(-0.0135557 -0.00702765 -4.02024e-19)
(0.23153 0.132584 3.1511e-20)
(1.09704 0.625675 4.64905e-20)
(1.30317 0.748486 -2.45414e-20)
(1.33323 0.777555 0)
(1.28841 0.766016 -1.4176e-20)
(1.21957 0.740851 0)
(1.14749 0.712586 -1.0967e-19)
(1.0727 0.680555 -3.99377e-20)
(0.995586 0.642726 4.23536e-20)
(0.918219 0.597158 -2.64012e-19)
(0.854293 0.549819 4.66346e-20)
(0.813309 0.510241 0)
(0.78463 0.475779 -3.01331e-19)
(0.730154 0.427514 2.09734e-21)
(0.599826 0.340033 0)
(0.403862 0.223158 8.68357e-22)
(0.21196 0.11405 3.82071e-19)
(0.0691893 0.0354344 -3.60749e-19)
(-0.0066647 -0.00493846 1.0637e-19)
(-0.0121062 -0.00675279 0)
(0.23054 0.141093 0)
(1.08617 0.664449 5.57371e-20)
(1.29078 0.795254 3.54811e-20)
(1.31897 0.825152 -2.5653e-21)
(1.27341 0.812089 -3.38107e-22)
(1.20418 0.784782 -5.30041e-20)
(1.13137 0.754267 4.20448e-20)
(1.05535 0.719852 -4.84088e-20)
(0.976468 0.679398 1.90818e-19)
(0.896722 0.630752 -4.2305e-19)
(0.830348 0.580069 -4.25411e-21)
(0.787506 0.537483 -1.31373e-19)
(0.757172 0.500018 4.90143e-19)
(0.70149 0.447567 -2.55284e-21)
(0.574038 0.354858 -2.37261e-19)
(0.387009 0.233331 -4.20583e-19)
(0.204448 0.120194 0)
(0.0683014 0.0386783 0)
(-0.00429161 -0.00351185 1.15009e-19)
(-0.0108841 -0.00648143 -6.7476e-20)
(0.230277 0.149591 4.38647e-20)
(1.07593 0.701043 -1.26231e-19)
(1.27809 0.839391 -3.80156e-20)
(1.30442 0.869946 0)
(1.25816 0.855533 -1.49849e-21)
(1.18864 0.826339 -4.3378e-20)
(1.11521 0.793861 9.82035e-20)
(1.03808 0.757372 1.87345e-19)
(0.957496 0.71463 2.47405e-19)
(0.875358 0.663238 -3.45575e-19)
(0.806426 0.609416 -3.91525e-19)
(0.761629 0.563781 3.51891e-19)
(0.729624 0.523045 0)
(0.672643 0.465925 -1.08245e-19)
(0.547496 0.36759 -2.56642e-19)
(0.368552 0.241296 -3.02952e-19)
(0.1948 0.124557 -3.5722e-19)
(0.0655699 0.040617 1.05491e-19)
(-0.00316415 -0.00269069 -6.1985e-20)
(-0.00993132 -0.00628036 3.1901e-22)
(0.230188 0.158005 0)
(1.06644 0.735738 0)
(1.26536 0.880994 2.45745e-21)
(1.2898 0.912049 0)
(1.2429 0.896442 -1.24788e-20)
(1.17317 0.865584 2.50837e-20)
(1.09923 0.831399 0)
(1.02108 0.79313 2.16479e-20)
(0.938872 0.748429 4.12363e-19)
(0.854326 0.694648 -7.96236e-19)
(0.782675 0.637923 0)
(0.735733 0.589173 -2.27206e-19)
(0.701925 0.544788 -2.99629e-21)
(0.643549 0.48234 -2.21145e-21)
(0.520409 0.377877 2.7533e-19)
(0.348702 0.246685 2.21772e-23)
(0.183504 0.126815 -7.70408e-19)
(0.0613261 0.0412143 2.27107e-19)
(-0.00307399 -0.00248048 6.7143e-20)
(-0.00922273 -0.00615271 0)
(0.230222 0.166284 -1.74534e-19)
(1.05745 0.768784 -8.47191e-20)
(1.2527 0.920153 -1.10888e-19)
(1.2753 0.9516 1.09852e-19)
(1.22783 0.93489 -3.71707e-20)
(1.15796 0.902583 0)
(1.08359 0.86693 5.71904e-20)
(1.00453 0.827154 -4.89717e-20)
(0.920763 0.780819 3.93261e-21)
(0.833801 0.725023 5.90534e-20)
(0.759228 0.665666 5.08724e-19)
(0.70984 0.613758 -7.97064e-20)
(0.673989 0.565254 -3.03509e-19)
(0.614104 0.496581 -1.26469e-19)
(0.492846 0.385291 1.49366e-19)
(0.327931 0.249167 1.72409e-22)
(0.171197 0.126801 2.07671e-19)
(0.0560799 0.0404882 -4.89185e-19)
(-0.00362616 -0.00277444 5.78266e-19)
(-0.00867537 -0.00607591 8.42931e-20)
(0.230254 0.174329 6.61279e-20)
(1.04897 0.800256 -4.76153e-20)
(1.24026 0.956973 6.26039e-21)
(1.26104 0.988734 7.01559e-20)
(1.21308 0.970992 1.46624e-20)
(1.14314 0.93741 -3.98775e-20)
(1.06843 0.900506 1.49644e-20)
(0.988547 0.859469 -2.03367e-19)
(0.903311 0.811806 -4.54145e-19)
(0.813925 0.754378 -4.75252e-19)
(0.736227 0.692734 0)
(0.68398 0.637687 -3.51783e-19)
(0.645684 0.58452 4.38573e-19)
(0.584041 0.50845 0)
(0.464819 0.389389 -3.20399e-19)
(0.307086 0.248291 1.90101e-19)
(0.158884 0.124335 -2.23503e-19)
(0.0508683 0.0386522 -2.63368e-19)
(-0.00439508 -0.00334058 -4.65852e-19)
(-0.00826928 -0.00604236 -3.63341e-19)
(0.230623 0.18225 -7.47091e-20)
(1.04085 0.830155 5.09489e-20)
(1.2281 0.99153 1.16045e-19)
(1.24713 1.02354 1.02409e-19)
(1.19877 1.00484 -2.69098e-20)
(1.12881 0.970156 -1.60517e-20)
(1.05385 0.932181 5.14256e-20)
(0.973237 0.890119 -2.07497e-19)
(0.886611 0.841414 -2.69231e-19)
(0.79483 0.782739 4.97966e-19)
(0.713801 0.719211 1.12132e-18)
(0.658208 0.661141 0)
(0.616868 0.602751 0)
(0.55299 0.517883 -1.45765e-19)
(0.43606 0.389662 0)
(0.286581 0.243053 4.08546e-19)
(0.14831 0.118514 4.80523e-19)
(0.0478064 0.0354987 0)
(-0.00420493 -0.00399581 0)
(-0.00801961 -0.00606697 3.90668e-19)
(0.230712 0.189755 8.48443e-20)
(1.0331 0.858481 6.84477e-20)
(1.21628 1.02395 8.42651e-20)
(1.23361 1.05616 -9.84224e-20)
(1.18495 1.03655 -3.57733e-20)
(1.11504 1.0009 8.3773e-21)
(1.03992 0.962017 -6.96302e-20)
(0.958669 0.919133 -7.72016e-22)
(0.870753 0.869652 -5.12744e-21)
(0.776622 0.81011 -4.26269e-21)
(0.692096 0.745164 5.78393e-19)
(0.632626 0.684301 0)
(0.587441 0.620204 4.46303e-19)
(0.520482 0.525016 3.11907e-19)
(0.405793 0.385775 7.49103e-19)
(0.26606 0.231862 2.20428e-19)
(0.141241 0.106207 -2.58576e-19)
(0.0519691 0.0273289 -1.51814e-19)
(0.00384334 -0.00605844 0)
(-0.00563138 -0.00537599 4.19999e-19)
(0.231149 0.197285 -1.91111e-19)
(1.0257 0.885325 0)
(1.20479 1.0543 9.90382e-20)
(1.22055 1.08664 -8.33521e-20)
(1.1717 1.06622 4.907e-20)
(1.10187 1.02972 5.53099e-21)
(1.02668 0.990071 1.28302e-19)
(0.944887 0.946547 -1.72802e-20)
(0.855789 0.89653 0)
(0.759386 0.836469 -5.49775e-19)
(0.671258 0.770625 -1.25935e-18)
(0.60738 0.707343 5.21159e-20)
(0.557408 0.637216 6.18357e-19)
(0.48613 0.53029 0)
(0.372676 0.378021 5.06705e-19)
(0.243107 0.213207 0)
(0.135371 0.0803656 0)
(0.0686561 -0.00172168 -1.64184e-19)
(0.0427113 -0.0196062 0)
(0.0259579 0.00929076 1.12649e-19)
(0.23125 0.204246 -2.13419e-19)
(1.01859 0.911039 0)
(1.19363 1.08277 1.64866e-19)
(1.2079 1.11523 0)
(1.15896 1.0941 -2.99558e-20)
(1.08926 1.05692 0)
(1.01408 1.01665 5.04757e-21)
(0.931795 0.972694 2.84792e-20)
(0.841593 0.922404 3.39225e-20)
(0.742952 0.862195 -6.02837e-19)
(0.65109 0.796031 3.76447e-20)
(0.582213 0.730922 4.21421e-19)
(0.526276 0.654645 6.04328e-19)
(0.448939 0.534331 8.15886e-20)
(0.334517 0.367694 3.98281e-19)
(0.21206 0.188038 0)
(0.117859 0.0358012 5.45257e-19)
(0.0649291 -0.0428795 -3.18063e-19)
(0.0407731 0.0389634 3.70143e-19)
(-0.069091 0.439168 -4.35958e-19)
(0.231364 0.211028 1.76691e-19)
(1.01151 0.935392 2.72189e-19)
(1.1827 1.10969 0)
(1.19551 1.14238 4.86049e-21)
(1.14654 1.12079 8.88559e-20)
(1.07692 1.08316 -4.75156e-20)
(1.00179 1.04256 4.02935e-20)
(0.918971 0.998502 0)
(0.827622 0.948348 2.21677e-19)
(0.726636 0.888578 -3.11242e-20)
(0.630657 0.822851 0)
(0.555817 0.75669 0)
(0.491945 0.67391 5.43168e-19)
(0.406351 0.5376 -2.52899e-19)
(0.287895 0.35651 -4.05169e-19)
(0.16758 0.159264 0)
(0.0697947 0.0494843 2.75562e-19)
(0.00242663 0.435494 -3.17438e-19)
(0.0321534 1.8971 -1.72789e-19)
(0.0612417 2.81508 -2.21731e-19)
(0.231338 0.217018 -1.32544e-19)
(1.00468 0.958575 -3.49132e-19)
(1.17203 1.13504 9.78043e-20)
(1.18338 1.16796 8.0963e-20)
(1.13446 1.14604 0)
(1.06495 1.10817 -4.37842e-20)
(0.990015 1.06747 4.84307e-20)
(0.906615 1.02355 -1.34758e-20)
(0.814154 0.973854 3.33424e-20)
(0.710831 0.915019 5.74203e-19)
(0.610573 0.850472 6.38905e-19)
(0.529112 0.784315 4.74746e-19)
(0.455203 0.695305 5.48408e-19)
(0.359789 0.539259 -5.97327e-19)
(0.237831 0.348247 -6.14282e-19)
(0.114072 0.206176 0)
(0.0407324 0.836462 0)
(0.0980185 2.55545 1.5156e-19)
(0.0994003 3.20461 0)
(0.102857 3.38924 3.58871e-19)
(0.233845 0.222588 0)
(0.998695 0.980794 0)
(1.16137 1.15867 0)
(1.17132 1.19181 2.4428e-20)
(1.12238 1.16961 8.1069e-20)
(1.0531 1.13181 -4.46089e-20)
(0.978645 1.09129 2.86845e-20)
(0.894685 1.04772 -1.29574e-20)
(0.801158 0.998788 2.73841e-19)
(0.695574 0.941386 -8.6387e-21)
(0.591004 0.878817 1.26313e-18)
(0.502406 0.813679 -5.50681e-20)
(0.416228 0.720137 6.64878e-20)
(0.31175 0.537028 8.67682e-20)
(0.174249 0.359493 -6.06691e-21)
(0.0945988 0.962272 1.84329e-21)
(0.13606 2.72814 -8.09199e-19)
(0.143794 3.29359 -3.01567e-19)
(0.133547 3.42535 1.54098e-19)
(0.121756 3.4475 -1.70989e-19)
(0.15277 0.180134 7.83992e-20)
(0.98728 1.00478 0)
(1.15033 1.18078 -1.95238e-19)
(1.15982 1.21443 -2.19209e-19)
(1.11119 1.19234 1.90883e-19)
(1.04235 1.15479 5.18262e-20)
(0.967617 1.11412 -2.61009e-20)
(0.883297 1.07116 1.33758e-19)
(0.788809 1.02333 -2.22448e-19)
(0.681171 0.967867 0)
(0.572388 0.908109 6.20339e-19)
(0.476264 0.844705 -3.88479e-19)
(0.377427 0.751351 0)
(0.256512 0.531386 8.14271e-20)
(0.137301 0.718135 1.93779e-19)
(0.151845 2.50379 -2.23375e-19)
(0.207714 3.32168 2.49485e-19)
(0.18863 3.43679 1.32913e-19)
(0.157259 3.45861 1.47963e-19)
(0.136033 3.46911 2.32341e-19)
(0.276441 0.260044 -1.43256e-19)
(0.971532 1.01412 0)
(1.13185 1.20592 2.12559e-19)
(1.14446 1.24479 2.39256e-19)
(1.09357 1.2253 -2.11214e-19)
(1.02395 1.18811 -7.45549e-20)
(0.948293 1.14908 6.53985e-21)
(0.863435 1.10734 1.0706e-20)
(0.767566 1.0617 2.08475e-19)
(0.657026 1.01018 4.91826e-19)
(0.54264 0.956937 3.46841e-20)
(0.434711 0.89789 3.45866e-19)
(0.305078 0.784174 6.26902e-20)
(0.209455 0.897773 -8.01555e-20)
(0.226619 2.35139 -1.80199e-19)
(0.288311 3.32258 1.69272e-19)
(0.271142 3.46403 -1.84981e-19)
(0.236049 3.48655 -1.05949e-19)
(0.199349 3.51468 -8.57331e-20)
(0.148036 3.5094 -1.00654e-20)
(0.264188 0.256835 0)
(0.968882 1.0365 6.1425e-20)
(1.12328 1.22925 -4.38304e-20)
(1.13363 1.26837 -2.85268e-20)
(1.08257 1.24845 -1.45957e-19)
(1.01289 1.21149 7.72673e-20)
(0.936897 1.1726 3.67132e-21)
(0.851811 1.13166 9.31493e-21)
(0.755359 1.08751 -2.15022e-19)
(0.643408 1.0389 -1.3479e-20)
(0.525966 0.990608 -1.1191e-18)
(0.412336 0.935825 4.95655e-20)
(0.284857 0.848678 -5.90272e-20)
(0.253018 1.46995 -7.37799e-20)
(0.329097 3.09932 1.82176e-20)
(0.347796 3.46058 1.7808e-23)
(0.30771 3.51726 2.57563e-19)
(0.27052 3.54497 1.21449e-19)
(0.222039 3.56898 -2.22221e-20)
(0.163209 3.56552 -4.37895e-20)
(0.248031 0.255319 1.5555e-19)
(0.964639 1.06154 4.19038e-19)
(1.11431 1.25468 -1.25565e-19)
(1.12221 1.29336 -1.07614e-19)
(1.07092 1.27295 0)
(1.0014 1.23604 1.38421e-19)
(0.925368 1.19739 2.01609e-20)
(0.840337 1.15724 7.80563e-21)
(0.743627 1.1147 -2.42202e-20)
(0.630801 1.06929 -4.39395e-19)
(0.511165 1.02634 -5.13994e-19)
(0.393482 0.974974 -4.02785e-19)
(0.285872 0.97877 -4.46907e-19)
(0.324086 2.19968 4.61058e-19)
(0.417409 3.36985 3.78344e-19)
(0.392885 3.51745 0)
(0.347719 3.56369 0)
(0.309722 3.60547 -1.62268e-20)
(0.259112 3.6661 0)
(0.176119 3.64269 -7.06052e-21)
(0.2374 0.257178 -2.32801e-19)
(0.958482 1.08766 -3.55615e-19)
(1.1039 1.28129 0)
(1.10941 1.31906 5.8306e-21)
(1.05799 1.29804 -1.57532e-19)
(0.988752 1.26107 2.23756e-19)
(0.913037 1.22271 2.15454e-20)
(0.828268 1.18327 2.84155e-21)
(0.73154 1.14227 -1.45553e-19)