/*--------------------------------*- C++ -*----------------------------------*\
| =========                 |                                                 |
| \\      /  F ield         | OpenFOAM: The Open Source CFD Toolbox           |
|  \\    /   O peration     | Version:  4.0                                   |
|   \\  /    A nd           | Web:      www.OpenFOAM.org                      |
|    \\/     M anipulation  |                                                 |
\*---------------------------------------------------------------------------*/
FoamFile
{
    version     2.0;
    format      ascii;
    class       volScalarField;
    location    "30";
    object      p;
}
// * * * * * * * * * * * * * * * * * * * * * * * * * * * * * * * * * * * * * //

dimensions      [0 2 -2 0 0 0 0];

internalField   nonuniform List<scalar> 
2200
(
0.984603
0.963102
0.947193
0.931521
0.916904
0.904376
0.894005
0.885881
0.880129
0.877085
0.877446
0.881147
0.887373
0.895838
0.906445
0.919166
0.933904
0.94973
0.965724
0.987233
0.91703
0.91377
0.910843
0.906722
0.901259
0.894777
0.888147
0.882167
0.877627
0.875143
0.875508
0.878677
0.883729
0.89009
0.896991
0.903663
0.909269
0.913396
0.916301
0.919622
0.877146
0.877367
0.879428
0.880769
0.881149
0.880287
0.878279
0.875544
0.872934
0.871359
0.871787
0.874086
0.877253
0.880398
0.882678
0.88367
0.883396
0.882283
0.880477
0.880242
0.854724
0.856179
0.858764
0.861198
0.863623
0.865625
0.866748
0.866946
0.866489
0.866073
0.86655
0.867792
0.868871
0.869139
0.868383
0.86665
0.864433
0.862179
0.859601
0.858173
0.840362
0.842328
0.845149
0.847995
0.850858
0.853666
0.856108
0.857952
0.859131
0.859819
0.860375
0.860663
0.860232
0.858952
0.856962
0.854481
0.851831
0.849069
0.846282
0.84435
0.833128
0.834718
0.836926
0.839465
0.842125
0.844767
0.84731
0.849659
0.851588
0.852954
0.853611
0.853405
0.852386
0.850722
0.848672
0.846421
0.84402
0.841632
0.839508
0.837934
0.829937
0.830964
0.832229
0.834081
0.836196
0.83832
0.840422
0.842585
0.844648
0.846297
0.847087
0.84686
0.845882
0.844523
0.843004
0.841319
0.839523
0.837881
0.836727
0.835708
0.827349
0.828012
0.82866
0.829997
0.831644
0.833342
0.835053
0.836879
0.838774
0.840501
0.841467
0.841479
0.840906
0.840056
0.839069
0.837905
0.836676
0.835611
0.83509
0.834428
0.8243
0.82472
0.825156
0.826225
0.827562
0.82899
0.830486
0.832091
0.83379
0.835483
0.836658
0.83707
0.836989
0.836623
0.836036
0.835289
0.834442
0.833701
0.83341
0.832979
0.820744
0.821025
0.82143
0.822386
0.82359
0.824927
0.826369
0.827892
0.829486
0.831161
0.832611
0.833524
0.8339
0.833891
0.833565
0.833042
0.832422
0.831863
0.831627
0.831338
0.816526
0.816705
0.817107
0.818048
0.819286
0.820743
0.822373
0.824102
0.825886
0.827762
0.829579
0.830915
0.831608
0.831722
0.831455
0.830987
0.830472
0.829994
0.829774
0.829575
0.811776
0.811877
0.81227
0.813207
0.814522
0.816135
0.818043
0.820188
0.822503
0.82492
0.827157
0.82867
0.829401
0.829513
0.829302
0.828944
0.828506
0.828118
0.827935
0.82782
0.806852
0.806886
0.807275
0.808207
0.809522
0.811181
0.813175
0.815528
0.818302
0.821324
0.824053
0.825872
0.826833
0.827298
0.827413
0.827262
0.826991
0.826724
0.826598
0.826538
0.801965
0.801904
0.802313
0.803154
0.804491
0.806152
0.808112
0.810487
0.813435
0.816913
0.820321
0.822942
0.824679
0.825773
0.82633
0.82648
0.826443
0.826356
0.82629
0.826262
0.797041
0.796923
0.79733
0.798162
0.799515
0.801345
0.803464
0.806072
0.80931
0.813284
0.8175
0.821024
0.823546
0.825215
0.826183
0.826732
0.826983
0.827063
0.827052
0.827028
0.791789
0.791792
0.792068
0.792899
0.794486
0.796476
0.799009
0.802206
0.806168
0.811005
0.816174
0.820471
0.823521
0.825598
0.827012
0.827885
0.828361
0.828595
0.828663
0.828641
0.785747
0.785715
0.786095
0.787054
0.788678
0.790885
0.793844
0.797716
0.802628
0.808683
0.815103
0.820387
0.824152
0.826813
0.828721
0.829936
0.830672
0.831083
0.831223
0.831192
0.778498
0.778424
0.778851
0.779933
0.781692
0.78414
0.787493
0.791985
0.797881
0.805333
0.813355
0.820075
0.824995
0.828572
0.831107
0.832823
0.833931
0.834558
0.834779
0.834728
0.76974
0.769661
0.770101
0.771273
0.773303
0.776197
0.780183
0.785582
0.792701
0.801786
0.811717
0.820119
0.826384
0.830983
0.834296
0.836637
0.838206
0.839065
0.839352
0.839269
0.75897
0.758903
0.759463
0.760911
0.763406
0.767025
0.772064
0.77884
0.787724
0.798928
0.811048
0.821241
0.828883
0.834507
0.838624
0.841535
0.843483
0.844533
0.84489
0.844785
0.745845
0.74575
0.74647
0.74831
0.751502
0.756156
0.76258
0.771224
0.782467
0.796365
0.811091
0.823399
0.832562
0.839328
0.844223
0.847703
0.850064
0.851307
0.851722
0.85159
0.729186
0.729126
0.73014
0.732578
0.736753
0.742805
0.751136
0.76223
0.776382
0.793553
0.811409
0.826223
0.837169
0.845292
0.851181
0.855376
0.858152
0.859593
0.860078
0.859917
0.708185
0.708055
0.709422
0.71274
0.718362
0.726518
0.737556
0.751851
0.76964
0.790706
0.812189
0.829871
0.84292
0.852575
0.859615
0.86466
0.867982
0.869695
0.870248
0.870027
0.680583
0.680686
0.682939
0.687731
0.695695
0.706998
0.721767
0.740334
0.762599
0.788219
0.813826
0.834654
0.849997
0.861348
0.869689
0.875661
0.879566
0.881546
0.882162
0.881897
0.643849
0.644204
0.647979
0.655797
0.667714
0.683812
0.703905
0.727891
0.755578
0.786504
0.816669
0.840854
0.858599
0.871755
0.881468
0.88848
0.893067
0.895389
0.896071
0.895699
0.594962
0.595477
0.602744
0.61561
0.633908
0.657171
0.68413
0.714757
0.748773
0.785576
0.820576
0.848292
0.868611
0.883687
0.894922
0.903087
0.908434
0.910981
0.911601
0.911156
0.529509
0.532506
0.548156
0.569827
0.596872
0.628314
0.663166
0.701309
0.742427
0.78584
0.826442
0.858457
0.882057
0.899775
0.913108
0.923067
0.929789
0.932784
0.933287
0.933024
0.454235
0.464368
0.490711
0.522259
0.559098
0.599424
0.642288
0.688234
0.736779
0.787274
0.834116
0.871144
0.898771
0.91986
0.936066
0.948239
0.957017
0.960867
0.96163
0.961894
0.387886
0.403541
0.436504
0.476304
0.522285
0.571239
0.622217
0.675955
0.731751
0.789081
0.841916
0.883585
0.914722
0.93849
0.956788
0.970798
0.980481
0.985691
0.987242
0.987219
0.338101
0.351991
0.390184
0.43577
0.488776
0.544855
0.603176
0.664136
0.72682
0.790799
0.849342
0.895209
0.929132
0.954995
0.975121
0.990591
1.0009
1.00626
1.00774
1.00785
0.297154
0.310103
0.351606
0.401008
0.459255
0.520971
0.585546
0.652904
0.721948
0.792118
0.855691
0.905047
0.941335
0.968832
0.989667
1.00551
1.01642
1.02198
1.02372
1.02386
0.26171
0.274916
0.318809
0.371056
0.43335
0.499598
0.569406
0.642278
0.716919
0.792529
0.860736
0.913264
0.951448
0.979668
1.00109
1.01729
1.02846
1.0344
1.03633
1.03649
0.230784
0.244129
0.289955
0.344588
0.41021
0.480255
0.554466
0.632012
0.711535
0.792026
0.864416
0.919596
0.959174
0.98843
1.01034
1.02675
1.03835
1.04457
1.04671
1.04683
0.202871
0.216298
0.263774
0.320613
0.389164
0.462413
0.540317
0.62187
0.705757
0.790808
0.867139
0.924842
0.965785
0.995793
1.01823
1.03489
1.04648
1.05308
1.05502
1.0549
0.177368
0.190752
0.23946
0.298401
0.369581
0.44556
0.526654
0.611774
0.699669
0.789013
0.86898
0.929082
0.971674
1.00255
1.0253
1.04217
1.05368
1.05998
1.06209
1.06195
0.153284
0.166973
0.216606
0.277553
0.351035
0.429404
0.513284
0.601579
0.693006
0.786001
0.869546
0.932705
0.977069
1.0088
1.03205
1.04893
1.06039
1.06662
1.0687
1.06867
0.130588
0.144409
0.194868
0.257657
0.333187
0.413713
0.50005
0.59111
0.685657
0.782315
0.870175
0.936459
0.982439
1.01525
1.03874
1.05563
1.06713
1.07315
1.07533
1.07528
0.109157
0.122967
0.174096
0.238442
0.315722
0.398242
0.486814
0.580345
0.67792
0.7784
0.869967
0.939241
0.987702
1.02164
1.04557
1.06257
1.07401
1.07995
1.08193
1.08191
0.0884999
0.102494
0.15409
0.219723
0.298483
0.382832
0.47348
0.569345
0.669648
0.773276
0.86852
0.94162
0.992622
1.02798
1.0527
1.06978
1.08112
1.08676
1.08873
1.08863
0.0681505
0.0827746
0.134702
0.201412
0.281399
0.367394
0.459978
0.557981
0.660716
0.767538
0.867119
0.943662
0.997324
1.03476
1.06036
1.0775
1.0884
1.09385
1.09545
1.09529
0.0481084
0.0635459
0.115807
0.183483
0.264506
0.351946
0.446257
0.546215
0.651387
0.76118
0.863865
0.944042
1.00164
1.04183
1.06875
1.08597
1.09611
1.10072
1.102
1.10175
0.0285104
0.0446925
0.097372
0.165976
0.247886
0.336538
0.432354
0.534118
0.641353
0.753458
0.859371
0.944249
1.00561
1.04894
1.07808
1.09561
1.10447
1.10773
1.10816
1.10794
0.00952509
0.0262506
0.0794179
0.148919
0.231614
0.321283
0.418358
0.52162
0.630549
0.74492
0.854109
0.942659
1.00848
1.05628
1.08847
1.10726
1.11479
1.11415
1.11337
1.11394
-0.00882281
0.00830313
0.0620011
0.132359
0.215768
0.306266
0.404318
0.508764
0.619249
0.735596
0.847336
0.939698
1.01046
1.06304
1.0998
1.12136
1.12865
1.12373
1.11829
1.11611
-0.026498
-0.00904318
0.0451766
0.116321
0.200376
0.291546
0.390361
0.49577
0.607575
0.72559
0.839506
0.935394
1.01052
1.06897
1.11178
1.13845
1.14984
1.13906
1.13487
1.13951
-0.0435125
-0.0257327
0.0289951
0.10084
0.185475
0.277206
0.376638
0.482819
0.595598
0.714956
0.830648
0.929133
1.00851
1.07283
1.12294
1.15758
1.17742
1.15547
1.11121
1.06893
-0.0597988
-0.0417689
0.0134143
0.0858333
0.170946
0.263119
0.362997
0.469687
0.583154
0.703524
0.820738
0.920756
1.00332
1.07342
1.13182
1.17768
1.21288
1.21518
1.23333
1.28516
-0.0753199
-0.0572082
-0.00165511
0.0711616
0.156595
0.24904
0.349148
0.456071
0.569904
0.690889
0.808707
0.90949
0.994263
1.06811
1.13056
1.17907
1.20725
1.2038
1.1721
1.18161
-0.0900418
-0.0720173
-0.016171
0.0568808
0.142495
0.235046
0.335205
0.442131
0.555939
0.676912
0.79466
0.895659
0.979593
1.05297
1.1142
1.15903
1.1604
1.11749
1.05928
1.04927
-0.103981
-0.0861941
-0.0301277
0.0429943
0.128646
0.221132
0.321168
0.427857
0.541242
0.661545
0.778704
0.878329
0.959247
1.02664
1.08086
1.09868
1.06942
0.999306
0.928006
0.913127
-0.117173
-0.0997319
-0.0435417
0.0294892
0.115042
0.207293
0.307021
0.413224
0.525803
0.644939
0.760742
0.857993
0.932792
0.987428
1.01715
1.00912
0.960443
0.861427
0.775598
0.757455
-0.130076
-0.113046
-0.0568049
0.016002
0.101335
0.193221
0.29248
0.397965
0.50946
0.627013
0.740443
0.833522
0.901045
0.94009
0.935583
0.902973
0.798679
0.678138
0.571937
0.548052
-0.143585
-0.12692
-0.070621
0.00190763
0.0869587
0.178437
0.277134
0.381764
0.491955
0.607385
0.717584
0.805889
0.866791
0.882586
0.846287
0.761571
0.60601
0.454193
0.326691
0.301408
-0.158214
-0.141781
-0.0853034
-0.0130283
0.0717261
0.162813
0.260905
0.364578
0.473283
0.586276
0.692506
0.775258
0.823999
0.813143
0.755686
0.606846
0.403802
0.188658
0.00739523
-0.0388805
-0.174046
-0.157694
-0.100916
-0.0288299
0.0556679
0.146394
0.243853
0.346494
0.453561
0.563669
0.664751
0.741668
0.775485
0.732505
0.641839
0.44858
0.209562
-0.0867427
-0.415014
-0.558677
-0.191147
-0.174771
-0.117551
-0.0455717
0.0387314
0.129118
0.225929
0.327461
0.432725
0.539716
0.635171
0.70613
0.723481
0.647575
0.506009
0.290221
0.0444171
-0.312516
-0.915295
-1.4956
-0.209552
-0.19306
-0.135281
-0.0633093
0.020917
0.111021
0.207196
0.307588
0.411006
0.51475
0.60426
0.667114
0.666946
0.571765
0.374442
0.125076
-0.0923353
-0.344696
-0.930036
-2.50666
-0.229258
-0.212659
-0.154162
-0.0821472
0.00206634
0.0918996
0.187414
0.286601
0.388032
0.488305
0.572098
0.625744
0.606594
0.510833
0.274795
0.0149089
-0.14567
-0.197014
-0.207029
-0.608558
-0.250194
-0.233611
-0.174382
-0.102386
-0.0181821
0.0713098
0.166022
0.263771
0.362904
0.459348
0.53769
0.581522
0.544932
0.462956
0.226232
-0.00244662
-0.129559
-0.144747
-0.0974707
-0.141065
-0.272323
-0.255757
-0.195887
-0.124049
-0.0398903
0.0491291
0.142862
0.238974
0.335466
0.427459
0.500981
0.535232
0.489489
0.409104
0.187162
0.00512193
-0.0890304
-0.0985214
-0.145462
-0.154957
-0.29556
-0.278869
-0.218673
-0.147159
-0.0630074
0.0253902
0.117981
0.21221
0.305736
0.393197
0.462209
0.487292
0.439314
0.345752
0.155296
0.0130819
-0.0722986
-0.0388123
-0.062913
-0.0651533
-0.319681
-0.302591
-0.242604
-0.171543
-0.0873613
0.000192933
0.0914619
0.183683
0.273945
0.356843
0.421175
0.436591
0.396037
0.276961
0.115785
0.0122665
-0.0452527
-0.0803081
-0.0593719
-0.0663033
-0.344149
-0.326747
-0.267625
-0.197041
-0.11271
-0.0262376
0.0636093
0.153693
0.240472
0.318837
0.3788
0.38368
0.353412
0.212216
0.0732874
-0.00187518
0.00400388
-0.05868
-0.0315485
-0.0390312
-0.368437
-0.350963
-0.293315
-0.223081
-0.138699
-0.0535672
0.0347768
0.122672
0.205478
0.279538
0.336276
0.33088
0.304847
0.160552
0.0384704
-0.0309533
0.00327615
-0.0319667
-0.0303785
-0.0317366
-0.392028
-0.374927
-0.318891
-0.249023
-0.164995
-0.0813744
0.00544107
0.0911107
0.169863
0.239606
0.295084
0.280935
0.245667
0.116752
0.0270765
-0.0309951
-0.0482936
-0.0320339
-0.0357135
-0.0317124
-0.414245
-0.397875
-0.343235
-0.273961
-0.191196
-0.108996
-0.0236761
0.0597229
0.134514
0.199439
0.255685
0.232749
0.184111
0.079587
0.0255182
-0.0070054
-0.0677497
-0.0252862
-0.0338496
-0.0256804
-0.434146
-0.418864
-0.365721
-0.297244
-0.216688
-0.135657
-0.0518633
0.0294229
0.100823
0.159747
0.217759
0.187338
0.116453
0.0333576
0.0229335
0.0564911
-0.0238629
-0.0012985
-0.0228518
-0.0195561
-0.450597
-0.436744
-0.385523
-0.318335
-0.240336
-0.160236
-0.0780636
0.00103135
0.0700657
0.122066
0.181622
0.146275
0.0451863
-0.0171464
0.0245899
0.135774
0.0703129
0.0267246
-0.00190095
-0.0185826
-0.462489
-0.45048
-0.401939
-0.336374
-0.2605
-0.181726
-0.101301
-0.0240428
0.0431757
0.0884887
0.146314
0.113738
-0.035582
-0.135415
-0.113823
-0.105709
-0.112026
-0.118109
-0.131302
-0.127629
-0.468858
-0.458895
-0.413625
-0.350063
-0.276097
-0.198904
-0.120272
-0.044521
0.0220497
0.0628608
0.110633
0.0930239
-0.118014
-0.390635
-0.620983
-0.748092
-0.761053
-0.700118
-0.64201
-0.593355
-0.4688
-0.460757
-0.41932
-0.357938
-0.285839
-0.210397
-0.133386
-0.058921
0.007653
0.04966
0.0839307
0.0755429
-0.15959
-0.557124
-1.09486
-1.41729
-1.43604
-1.37666
-1.25173
-1.16135
-0.46149
-0.454369
-0.417389
-0.358894
-0.289036
-0.215385
-0.139559
-0.0650308
0.00369504
0.0521035
0.083432
0.0851851
-0.0962919
-0.394039
-0.784285
-0.965103
-0.912971
-0.819165
-0.6916
-0.612937
-0.443694
-0.43639
-0.405682
-0.351751
-0.284684
-0.212615
-0.137514
-0.0616965
0.0126779
0.0733075
0.117579
0.169414
0.182705
0.271727
0.346121
0.449576
0.574313
0.670248
0.738314
0.807642
-0.410904
-0.404211
-0.383227
-0.336468
-0.272963
-0.202443
-0.127206
-0.0489144
0.0342013
0.115729
0.188225
0.323197
0.526641
0.8753
1.21833
1.50965
1.72517
1.86219
1.93377
1.95638
-0.364178
-0.359745
-0.352007
-0.314067
-0.254898
-0.18523
-0.109641
-0.0279611
0.0631674
0.166549
0.270313
0.427132
0.72762
1.15165
1.57345
1.9304
2.18802
2.33967
2.40666
2.42531
-0.325475
-0.324529
-0.320372
-0.28929
-0.234232
-0.16514
-0.0879976
-0.00397596
0.0894209
0.202623
0.322492
0.439312
0.726167
1.08672
1.44557
1.7555
1.98938
2.12977
2.19365
2.21223
-0.296012
-0.297604
-0.291633
-0.266523
-0.212766
-0.144562
-0.0673303
0.0157245
0.105131
0.210841
0.323895
0.403269
0.615741
0.894127
1.16561
1.39782
1.57961
1.69493
1.74981
1.76746
-0.260378
-0.261519
-0.260293
-0.240378
-0.187878
-0.122419
-0.0480346
0.0308679
0.11275
0.201682
0.303798
0.365491
0.506012
0.72346
0.940443
1.11364
1.24872
1.34253
1.38613
1.39789
-0.213208
-0.214456
-0.215745
-0.199436
-0.153404
-0.0947606
-0.0277656
0.0436449
0.115542
0.187724
0.277252
0.331821
0.412237
0.574552
0.74697
0.874717
0.971901
1.04231
1.07329
1.07987
-0.142973
-0.144433
-0.146612
-0.135652
-0.101102
-0.0560155
-0.00200332
0.0579436
0.11885
0.178192
0.254205
0.303609
0.347266
0.463833
0.594284
0.686849
0.755899
0.805975
0.829268
0.836912
-0.0588494
-0.0605748
-0.0615845
-0.0545658
-0.0335938
-0.00408361
0.0338681
0.0786522
0.128876
0.17631
0.237325
0.279331
0.306021
0.391476
0.484258
0.547549
0.597626
0.639243
0.655127
0.659358
0.0268743
0.0255288
0.0245925
0.0278858
0.0383454
0.0545593
0.0772677
0.106128
0.145162
0.179416
0.224045
0.259993
0.274823
0.343107
0.411285
0.452418
0.490602
0.517712
0.531861
0.536945
0.0988444
0.0978639
0.0969169
0.0976725
0.101038
0.10759
0.119058
0.134737
0.161722
0.184508
0.213822
0.24406
0.251369
0.307508
0.357022
0.389147
0.415369
0.432616
0.441371
0.444034
0.150295
0.149663
0.148513
0.146731
0.145546
0.146558
0.151262
0.158827
0.174925
0.190062
0.209431
0.229709
0.241249
0.27865
0.313481
0.339106
0.356895
0.366646
0.37004
0.369378
0.181267
0.18077
0.179515
0.17669
0.173134
0.17118
0.172011
0.175355
0.184423
0.195632
0.209343
0.221096
0.232756
0.258011
0.280077
0.296173
0.306465
0.308868
0.308208
0.307078
0.197391
0.19698
0.195772
0.193188
0.189127
0.18606
0.185017
0.186057
0.191905
0.200725
0.210731
0.216996
0.222941
0.242397
0.255969
0.264243
0.267849
0.266169
0.263302
0.262136
0.204319
0.204045
0.203091
0.200974
0.197455
0.194508
0.193017
0.193211
0.198469
0.205364
0.213047
0.215701
0.216995
0.232745
0.244415
0.249249
0.250722
0.251842
0.250408
0.247614
0.204978
0.20486
0.204292
0.202776
0.200292
0.197982
0.197022
0.197288
0.202953
0.209775
0.219023
0.220722
0.221815
0.234231
0.244971
0.250085
0.25265
0.253716
0.253183
0.250344
0.200587
0.20064
0.20052
0.199769
0.198423
0.197127
0.197261
0.198447
0.204882
0.21505
0.230663
0.234374
0.237916
0.24523
0.253821
0.257424
0.254602
0.248993
0.247117
0.246671
0.190797
0.19107
0.191406
0.19153
0.191347
0.191871
0.193278
0.197884
0.205194
0.217958
0.237667
0.252098
0.256089
0.260036
0.263354
0.264445
0.263796
0.261388
0.259842
0.260491
0.173985
0.174442
0.175268
0.176426
0.177184
0.1791
0.181918
0.188722
0.198016
0.214591
0.239866
0.264739
0.26973
0.274172
0.280608
0.288487
0.306864
0.322235
0.325274
0.322323
0.149984
0.150699
0.15133
0.152529
0.15418
0.157486
0.16146
0.169597
0.180235
0.200073
0.231679
0.257059
0.277388
0.277394
0.298247
0.319776
0.346806
0.369527
0.379755
0.367783
0.117592
0.118522
0.119361
0.120734
0.122522
0.125605
0.129486
0.136054
0.144931
0.164124
0.19741
0.229451
0.245385
0.242986
0.273533
0.300832
0.315941
0.326469
0.336989
0.331016
0.0742689
0.0751706
0.0761319
0.0773882
0.0789075
0.0807152
0.0821054
0.0831761
0.0854072
0.0986607
0.135421
0.176131
0.178917
0.184466
0.212418
0.238106
0.25215
0.25022
0.256223
0.257243
0.0224768
0.023156
0.0237598
0.024345
0.0242713
0.0225946
0.017762
0.00780455
-0.00320091
-0.00211281
0.0439361
0.109653
0.118531
0.138864
0.1726
0.198277
0.232293
0.238815
0.227353
0.232693
-0.0357481
-0.0354845
-0.035633
-0.0363806
-0.0391006
-0.0463213
-0.0617002
-0.0864564
-0.120521
-0.13792
-0.0818885
0.024122
0.0568841
0.0961478
0.150323
0.179247
0.211516
0.235459
0.216079
0.218156
-0.0902598
-0.0906448
-0.0920265
-0.0949092
-0.10164
-0.116483
-0.146568
-0.197518
-0.268791
-0.30757
-0.240828
-0.0937433
-0.034402
0.0263391
0.0895676
0.134511
0.13709
0.155914
0.155377
0.154124
-0.132311
-0.13365
-0.13653
-0.1413
-0.15155
-0.174343
-0.218939
-0.296482
-0.419628
-0.490387
-0.405883
-0.231273
-0.144921
-0.041004
0.0235075
0.0826095
0.0983504
0.0762784
0.0906928
0.0873707
-0.146205
-0.14759
-0.150195
-0.158302
-0.174742
-0.204032
-0.253295
-0.338733
-0.510347
-0.61952
-0.543382
-0.334875
-0.221984
-0.0875097
-0.00663364
0.0223237
0.0648979
0.0461884
0.0492218
0.0484292
-0.132596
-0.1348
-0.137462
-0.143082
-0.157863
-0.188787
-0.24316
-0.334535
-0.484738
-0.606715
-0.557158
-0.357536
-0.204323
-0.101857
-0.00991567
0.0136821
0.00747167
0.014474
0.0136394
0.013804
-0.0870909
-0.0886494
-0.0906309
-0.0942208
-0.103501
-0.126892
-0.174631
-0.254223
-0.363197
-0.450454
-0.403019
-0.253572
-0.140899
-0.0994826
-0.0561272
0.00814369
-0.0175577
-0.0109363
-0.0105877
-0.00997163
-0.0158722
-0.0163346
-0.015731
-0.0152025
-0.0173342
-0.0263617
-0.0471602
-0.0869082
-0.134974
-0.169521
-0.144789
-0.0876176
-0.0915626
-0.107069
-0.10993
-0.0540933
-0.0314215
-0.0204374
-0.0163154
-0.0152676
-0.91422
-0.0465804
0.2256
0.510226
0.700961
0.86584
1.00327
1.14276
1.29235
1.36974
0.0900134
0.51036
0.534332
0.728157
0.860488
0.978819
1.0815
1.17203
1.20176
1.15803
0.486372
0.707819
0.748665
0.888202
0.979814
1.06422
1.13385
1.18576
1.18935
1.20206
0.725203
0.875817
0.911931
1.01906
1.07733
1.13862
1.18534
1.21863
1.22836
1.25156
0.91313
1.01609
1.04649
1.11872
1.16318
1.2067
1.23987
1.2647
1.27498
1.30614
1.05799
1.12988
1.16036
1.20569
1.24256
1.27379
1.29883
1.3198
1.33438
1.36236
1.17974
1.23188
1.25799
1.28714
1.31574
1.34013
1.36057
1.38004
1.39518
1.42149
1.28496
1.32325
1.34466
1.3659
1.3874
1.40726
1.42492
1.44321
1.45817
1.48178
1.38029
1.40931
1.42655
1.44227
1.45885
1.47521
1.49093
1.50798
1.52158
1.54389
1.46925
1.49012
1.5053
1.51873
1.53254
1.54649
1.56004
1.57467
1.5862
1.60586
1.55556
1.57145
1.58542
1.59741
1.60945
1.62113
1.63226
1.64394
1.6516
1.66842
1.64111
1.65405
1.66785
1.67953
1.6901
1.69984
1.7086
1.71685
1.72041
1.7317
1.73045
1.74144
1.75492
1.76413
1.77156
1.77875
1.78594
1.79249
1.7935
1.80093
1.82888
1.83362
1.84166
1.84615
1.84943
1.85389
1.85989
1.86765
1.87148
1.88137
1.9422
1.92849
1.92105
1.91543
1.91277
1.91417
1.92066
1.93306
1.94782
1.97748
2.06311
2.00738
1.97652
1.95945
1.9513
1.95129
1.95999
1.97951
2.01151
2.0807
)
;

boundaryField
{
    wall-4
    {
        type            zeroGradient;
    }
    pressure-outlet-7
    {
        type            fixedValue;
        value           uniform 0;
    }
    velocity-inlet-6
    {
        type            zeroGradient;
    }
    velocity-inlet-5
    {
        type            zeroGradient;
    }
    frontAndBackPlanes
    {
        type            empty;
    }
}


// ************************************************************************* //
