/*--------------------------------*- C++ -*----------------------------------*\
| =========                 |                                                 |
| \\      /  F ield         | OpenFOAM: The Open Source CFD Toolbox           |
|  \\    /   O peration     | Version:  4.0                                   |
|   \\  /    A nd           | Web:      www.OpenFOAM.org                      |
|    \\/     M anipulation  |                                                 |
\*---------------------------------------------------------------------------*/
FoamFile
{
    version     2.0;
    format      ascii;
    class       surfaceScalarField;
    location    "30";
    object      phi;
}
// * * * * * * * * * * * * * * * * * * * * * * * * * * * * * * * * * * * * * //

dimensions      [0 3 -1 0 0 0 0];

internalField   nonuniform List<scalar> 
4262
(
0.107145
0.470843
0.0955825
0.705149
0.0694163
0.858469
0.0474094
1.02077
0.0310084
1.21492
0.0198434
1.44938
0.0125094
1.7332
0.00728467
2.07626
0.00329412
2.48923
-0.000207823
2.98579
-0.00376424
2.98585
-0.00776439
2.48924
-0.0129412
2.07621
-0.020134
1.73306
-0.0311517
1.44924
-0.0474011
1.21477
-0.0692501
1.02061
-0.0954196
0.858473
-0.107139
0.705305
0.47085
0.112897
0.357946
0.135341
0.682704
0.120489
0.873321
0.0980453
1.04321
0.0749523
1.23801
0.0532132
1.47112
0.0346901
1.75172
0.0204414
2.09051
0.00919244
2.50048
-0.00102964
2.99602
-0.0111383
2.99596
-0.0220987
2.5002
-0.0361043
2.09022
-0.0546383
1.75159
-0.076381
1.47098
-0.0996259
1.23801
-0.122341
1.04333
-0.136453
0.872585
-0.113372
0.682224
0.357478
0.0920451
0.265901
0.124969
0.649781
0.121071
0.877219
0.104707
1.05958
0.086092
1.25663
0.0670361
1.49018
0.0481131
1.77064
0.0302405
2.10838
0.0139904
2.51673
-0.00157218
3.01158
-0.0170789
3.01146
-0.0332277
2.51635
-0.0509041
2.1079
-0.0692534
1.76994
-0.0876415
1.48937
-0.105421
1.25579
-0.120624
1.05853
-0.125293
0.877253
-0.0922655
0.649197
0.265212
0.0639799
0.201921
0.104855
0.608905
0.106642
0.875433
0.0951614
1.07106
0.0809584
1.27083
0.0663301
1.50481
0.050606
1.78637
0.0337813
2.12521
0.0162217
2.53429
-0.00248953
3.03029
-0.0210247
3.03
-0.0380719
2.5334
-0.0541212
2.12394
-0.069239
1.78506
-0.0834681
1.5036
-0.0974705
1.26979
-0.108984
1.07005
-0.106278
0.874547
-0.064549
0.607467
0.200663
0.0375234
0.164397
0.0808565
0.565572
0.0913104
0.864979
0.0842887
1.07808
0.0717115
1.28341
0.0595852
1.51693
0.046664
1.79929
0.0320847
2.13979
0.0157324
2.55065
-0.0030984
3.04912
-0.0215754
3.04848
-0.0372729
2.5491
-0.0512795
2.13795
-0.0637967
1.79757
-0.0754408
1.51524
-0.0874701
1.28182
-0.093862
1.07644
-0.082481
0.863166
-0.0381335
0.56312
0.16253
0.0193847
0.145013
0.0569059
0.528051
0.0721816
0.849703
0.0703441
1.07992
0.0620201
1.29173
0.0514741
1.52748
0.0402158
1.81055
0.0277112
2.15229
0.0129324
2.56542
-0.00433537
3.06639
-0.0213125
3.06545
-0.0353771
2.56316
-0.0470702
2.14964
-0.057163
1.80767
-0.0667991
1.52488
-0.0743466
1.28937
-0.0753294
1.07742
-0.0588455
0.846682
-0.0200072
0.524282
0.142522
0.0105347
0.134478
0.0422265
0.496359
0.0583869
0.833543
0.0588362
1.07947
0.053072
1.29749
0.0442451
1.53631
0.0342567
1.82054
0.0229554
2.16359
0.0100278
2.57835
-0.0052625
3.08168
-0.0202635
3.08045
-0.0324754
2.57537
-0.0426459
2.15981
-0.0517103
1.81673
-0.0596594
1.53283
-0.0642062
1.29392
-0.0624902
1.0757
-0.0447435
0.828935
-0.0113369
0.490875
0.131186
0.00661973
0.127858
0.0329453
0.470034
0.0492553
0.817233
0.0508046
1.07792
0.0459459
1.30235
0.0379945
1.54426
0.0287051
1.82982
0.018074
2.17422
0.00632236
2.5901
-0.00676245
3.09476
-0.0192658
3.09296
-0.0298619
2.58597
-0.0390531
2.16901
-0.0468183
1.8245
-0.053246
1.53925
-0.0567954
1.29747
-0.0539049
1.07281
-0.0357207
0.810751
-0.00747067
0.462625
0.123715
0.00451445
0.123344
0.025742
0.448806
0.0413156
0.801659
0.0434544
1.07578
0.0390387
1.30677
0.0319974
1.5513
0.0237119
1.83811
0.0142414
2.18369
0.00351196
2.60083
-0.00833379
3.10661
-0.0196326
3.10426
-0.0290361
2.59537
-0.0370797
2.17705
-0.0435241
1.83094
-0.0490167
1.54475
-0.0518402
1.30029
-0.0476452
1.06862
-0.0293938
0.7925
-0.00565226
0.438883
0.118063
0.00327367
0.12007
0.0202876
0.431792
0.034976
0.786971
0.0378762
1.07288
0.0338704
1.31077
0.0269888
1.55818
0.0191106
1.84599
0.0102297
2.19257
0.000354827
2.61071
-0.0106724
3.11764
-0.0209206
3.1145
-0.0289419
2.6034
-0.0355279
2.18364
-0.0413809
1.83679
-0.0461541
1.54952
-0.0478437
1.30198
-0.0423572
1.06313
-0.0245929
0.774736
-0.0046676
0.418958
0.113395
0.00252441
0.117546
0.0156738
0.418643
0.0287298
0.773915
0.0319781
1.06963
0.0286927
1.31406
0.0226261
1.56425
0.0155909
1.85302
0.00742919
2.20074
-0.0020939
2.62023
-0.0129254
3.12847
-0.0227761
3.12436
-0.0301937
2.61081
-0.0357709
2.18921
-0.0403532
1.84138
-0.0439487
1.55312
-0.0446172
1.30265
-0.0380841
1.0566
-0.0209645
0.757616
-0.0041726
0.402166
0.109222
0.00178531
0.11576
0.011337
0.409091
0.0226467
0.762605
0.0257852
1.06649
0.0228272
1.31702
0.0172506
1.56982
0.010544
1.85973
0.002804
2.20848
-0.00626065
2.6293
-0.0166003
3.13881
-0.0257394
3.13349
-0.0320054
2.61708
-0.0362578
2.19346
-0.0393511
1.84447
-0.0413871
1.55515
-0.0407656
1.30203
-0.033652
1.04949
-0.0177055
0.741669
-0.0038882
0.388349
0.105334
0.000864651
0.114896
0.00680621
0.40315
0.0153598
0.754051
0.017752
1.0641
0.015063
1.31971
0.0102014
1.57469
0.0040354
1.8659
-0.00315215
2.21566
-0.0112324
2.63738
-0.01976
3.14734
-0.0268445
3.14058
-0.0316219
2.62186
-0.0347993
2.19664
-0.037203
1.84687
-0.0383447
1.55629
-0.0370246
1.30071
-0.0293954
1.04186
-0.0145857
0.72686
-0.00347392
0.377237
0.10186
-0.00010396
0.115
0.00221997
0.400826
0.0085224
0.747749
0.0104306
1.06219
0.00767892
1.32246
0.00287541
1.57949
-0.00329954
1.87207
-0.0103786
2.22274
-0.0178029
2.6448
-0.0248663
3.1544
-0.0302293
3.14594
-0.033555
2.62518
-0.0356452
2.19873
-0.0363013
1.84753
-0.0357216
1.55571
-0.0330615
1.29805
-0.0248973
1.03369
-0.0116896
0.713652
-0.00291836
0.368466
0.0989419
-0.000986532
0.115986
-0.00120628
0.401046
0.00219514
0.744348
0.00287871
1.06151
9.70135e-05
1.32524
-0.00450978
1.5841
-0.010426
1.87799
-0.0171916
2.22951
-0.0242863
2.65189
-0.0308469
3.16096
-0.0352638
3.15036
-0.0371834
2.6271
-0.0373669
2.19892
-0.0364555
1.84662
-0.0347874
1.55405
-0.0311623
1.29442
-0.0225456
1.02508
-0.010297
0.701403
-0.00268825
0.360857
0.0962536
-0.00223321
0.118219
-0.004693
0.403505
-0.00461706
0.744272
-0.00461455
1.06151
-0.00791646
1.32854
-0.0130431
1.58922
-0.0190496
1.88399
-0.025627
2.23609
-0.0324511
2.65872
-0.0384774
3.16699
-0.0416405
3.15352
-0.0418666
2.62733
-0.0404959
2.19755
-0.038526
1.84465
-0.0352991
1.55082
-0.030084
1.2892
-0.0208474
1.01584
-0.00965909
0.690215
-0.00271435
0.353912
0.0935393
-0.00328845
0.121508
-0.00812295
0.40834
-0.011073
0.747222
-0.0137666
1.0642
-0.0176948
1.33247
-0.0229665
1.59449
-0.0291203
1.89015
-0.0356756
2.24264
-0.0420278
2.66507
-0.0470728
3.17203
-0.0487617
3.15521
-0.0471891
2.62575
-0.0440968
2.19445
-0.0405833
1.84114
-0.0362029
1.54644
-0.0303208
1.28332
-0.0208068
1.00632
-0.00992784
0.679336
-0.00288482
0.346869
0.0906545
-0.00399187
0.1255
-0.0112544
0.415602
-0.0168407
0.752808
-0.0211111
1.06847
-0.026512
1.33787
-0.03324
1.60122
-0.0405173
1.89743
-0.0478536
2.24998
-0.0545107
2.67173
-0.0589182
3.17644
-0.058772
3.15506
-0.0553494
2.62233
-0.0507469
2.18985
-0.0456352
1.83602
-0.0396828
1.54049
-0.0321121
1.27575
-0.0216736
0.995886
-0.0107982
0.668461
-0.00325319
0.339324
0.0874013
-0.00510825
0.130608
-0.014729
0.425223
-0.0232845
0.761363
-0.0294478
1.07463
-0.0357504
1.34417
-0.0432924
1.60876
-0.0516161
1.90575
-0.0603273
2.25869
-0.0679805
2.67938
-0.0726483
3.18111
-0.0718475
3.15426
-0.067379
2.61786
-0.060619
2.18309
-0.053293
1.8287
-0.0456768
1.53287
-0.036934
1.26701
-0.025386
0.984338
-0.0131318
0.656207
-0.00396357
0.330156
0.0834377
-0.00627957
0.136887
-0.0179366
0.43688
-0.0290893
0.772516
-0.0376393
1.08318
-0.0458658
1.3524
-0.0552662
1.61817
-0.0656068
1.91609
-0.0761122
2.26919
-0.0853635
2.68863
-0.0907728
3.18652
-0.0891343
3.15263
-0.082942
2.61167
-0.0746976
2.17485
-0.0658416
1.81984
-0.0559921
1.52302
-0.0444366
1.25545
-0.0301934
0.970095
-0.0159246
0.641938
-0.0048908
0.319122
0.0785469
-0.0084953
0.145383
-0.0239181
0.452303
-0.0384393
0.787037
-0.0492127
1.09396
-0.0590049
1.36219
-0.0703544
1.62951
-0.0828354
1.92857
-0.0955587
2.28192
-0.106323
2.6994
-0.111717
3.19191
-0.109225
3.15013
-0.101684
2.60413
-0.0912302
2.16439
-0.0795922
1.8082
-0.0670484
1.51048
-0.0526946
1.2411
-0.0361084
0.953509
-0.0192948
0.625124
-0.00586268
0.30569
0.0726842
-0.0104908
0.155873
-0.0296606
0.471473
-0.0483908
0.805768
-0.0628123
1.10838
-0.0756928
1.37507
-0.0899037
1.64373
-0.105453
1.94412
-0.120664
2.29713
-0.132668
2.7114
-0.13795
3.19719
-0.134118
3.1463
-0.12401
2.59402
-0.111066
2.15145
-0.0967326
1.79387
-0.0811641
1.49491
-0.0630611
1.223
-0.0426236
0.933071
-0.022663
0.605164
-0.00683603
0.289863
0.0658482
-0.0150315
0.170905
-0.0409494
0.497391
-0.0649596
0.829778
-0.0831628
1.12658
-0.0990226
1.39093
-0.116673
1.66138
-0.135308
1.96275
-0.152663
2.31448
-0.1656
2.72434
-0.169899
3.20149
-0.163002
3.1394
-0.149879
2.5809
-0.133675
2.13524
-0.115353
1.77555
-0.0955614
1.47512
-0.0737862
1.20122
-0.0503849
0.90967
-0.0270349
0.581813
-0.00796362
0.270792
0.0578846
-0.0190004
0.189905
-0.0526928
0.531083
-0.0847412
0.861826
-0.109444
1.15129
-0.131433
1.41292
-0.153649
1.68359
-0.175151
1.98426
-0.193708
2.33304
-0.205719
2.73635
-0.206954
3.20273
-0.196634
3.12908
-0.179704
2.56397
-0.159504
2.11504
-0.137684
1.75373
-0.114402
1.45183
-0.0886109
1.17543
-0.06013
0.881189
-0.0316025
0.553286
-0.00903203
0.248221
0.0488526
-0.032945
0.22285
-0.0788305
0.576969
-0.119312
0.902308
-0.150414
1.18239
-0.177816
1.44032
-0.203765
1.70954
-0.227068
2.00756
-0.24523
2.3512
-0.255038
2.74616
-0.252437
3.20012
-0.236076
3.11272
-0.213226
2.54112
-0.188107
2.08993
-0.161409
1.72703
-0.133322
1.42375
-0.103135
1.14524
-0.0705259
0.84858
-0.037302
0.520062
-0.0103364
0.221256
0.0385162
-0.0471344
0.269985
-0.11627
0.646104
-0.17179
0.957828
-0.21034
1.22094
-0.243543
1.47353
-0.271733
1.73773
-0.29418
2.03001
-0.309009
2.36603
-0.312719
2.74987
-0.301618
3.18902
-0.277937
3.08904
-0.24999
2.51317
-0.220242
2.06018
-0.189865
1.69665
-0.158578
1.39246
-0.124011
1.11068
-0.0843511
0.808921
-0.041786
0.477497
-0.0102265
0.189696
0.0282897
-0.0324926
0.302477
-0.0905723
0.704184
-0.142056
1.00931
-0.185813
1.26469
-0.226803
1.51452
-0.262679
1.77361
-0.296761
2.06409
-0.326369
2.39564
-0.347538
2.77103
-0.354207
3.19569
-0.340935
3.07577
-0.312642
2.48488
-0.275658
2.02319
-0.232995
1.65399
-0.187029
1.34649
-0.137908
1.06155
-0.0845975
0.75561
-0.0360774
0.428977
-0.00788175
0.161501
0.0204079
-0.0106097
0.313087
-0.0408747
0.734449
-0.0786197
1.04706
-0.115224
1.3013
-0.150793
1.55009
-0.184681
1.8075
-0.215959
2.09537
-0.241787
2.42147
-0.258049
2.7873
-0.257745
3.19539
-0.236053
3.05408
-0.203316
2.45214
-0.16628
1.98616
-0.127796
1.61551
-0.0883487
1.30705
-0.0499357
1.02314
-0.0187492
0.724423
-0.00137559
0.411603
0.00166038
0.158465
0.0220683
0.0025923
0.310495
-0.0187204
0.755762
-0.0462951
1.07463
-0.0752912
1.33029
-0.104693
1.57949
-0.133884
1.83669
-0.161232
2.12271
-0.183517
2.44375
-0.196534
2.80031
-0.194042
3.1929
-0.174525
3.03456
-0.145558
2.42317
-0.110221
1.95082
-0.0719959
1.57728
-0.0358719
1.27092
-0.00590457
0.993174
0.013212
0.705307
0.0151044
0.409711
0.00620103
0.167368
0.0282693
0.00271694
0.307778
-0.00831695
0.766796
-0.0287072
1.09502
-0.0527759
1.35436
-0.0774016
1.60411
-0.102137
1.86142
-0.125418
2.146
-0.144256
2.46259
-0.154525
2.81058
-0.150113
3.18848
-0.129693
3.01414
-0.0996762
2.39316
-0.0664803
1.91763
-0.0356168
1.54642
-0.00929819
1.2446
0.010766
0.97311
0.0210653
0.695008
0.0182463
0.41253
0.00683025
0.178784
0.0350996
0.00502927
0.302749
-0.00269632
0.774521
-0.0203464
1.11267
-0.0404955
1.37451
-0.0614039
1.62502
-0.0827428
1.88276
-0.103001
2.16625
-0.119647
2.47924
-0.12895
2.81989
-0.125662
3.1852
-0.107505
2.99599
-0.0824718
2.36812
-0.0571268
1.89228
-0.0321074
1.5214
-0.00734365
1.21984
0.0120676
0.953699
0.0198701
0.687205
0.0154088
0.416991
0.00528991
0.188903
0.0403895
0.00585361
0.296895
0.000537714
0.779837
-0.0150222
1.12823
-0.0334281
1.39292
-0.0523089
1.6439
-0.0713932
1.90185
-0.0896304
2.18449
-0.104776
2.49438
-0.112965
2.82808
-0.109156
3.18139
-0.0923818
2.97921
-0.0711358
2.34688
-0.0470017
1.86815
-0.0221344
1.49653
-0.00198121
1.19969
0.0113439
0.940374
0.0169325
0.681617
0.011974
0.42195
0.00383993
0.197037
0.0442294
0.00386235
0.293033
-6.4658e-05
0.783764
-0.0135791
1.14175
-0.0301743
1.40951
-0.0475175
1.66125
-0.065068
1.9194
-0.0820325
2.20146
-0.0963802
2.50873
-0.104937
2.83663
-0.103843
3.18029
-0.0906485
2.96602
-0.0698484
2.32608
-0.0473914
1.84569
-0.0282666
1.47741
-0.0110021
1.18242
0.00252547
0.926846
0.00738358
0.676758
0.00642733
0.422906
0.00229959
0.201165
0.046529
0.00259203
0.290441
-0.000689015
0.787045
-0.0128487
1.15391
-0.0284259
1.42509
-0.0450851
1.6779
-0.0618255
1.93614
-0.0780391
2.21767
-0.0920809
2.52277
-0.100866
2.84542
-0.0991472
3.17858
-0.0857084
2.95258
-0.0685362
2.30891
-0.0510481
1.8282
-0.0326719
1.45903
-0.0174036
1.16715
-0.00642626
0.915869
-0.000840446
0.671173
-0.00114595
0.423211
-0.000341157
0.20036
0.0461878
-0.000225094
0.290666
-0.00379356
0.790614
-0.0143835
1.1645
-0.0286098
1.43932
-0.0442428
1.69354
-0.060317
1.95221
-0.0762337
2.23359
-0.0905366
2.53707
-0.1004
2.85528
-0.102168
3.18034
-0.0924197
2.94283
-0.0748308
2.29132
-0.0555351
1.80891
-0.0401429
1.44364
-0.0260951
1.15311
-0.016088
0.905862
-0.00966288
0.664747
-0.00510162
0.41865
-0.00156378
0.196822
0.0446241
-0.000614228
0.29128
-0.00545141
0.795451
-0.0157057
1.17475
-0.0288796
1.45249
-0.0440052
1.70866
-0.059836
1.96804
-0.0758115
2.24956
-0.0905638
2.55183
-0.101495
2.86621
-0.103971
3.18282
-0.0937143
2.93257
-0.0790897
2.27669
-0.0637021
1.79352
-0.0461962
1.42613
-0.0327643
1.13968
-0.0210912
0.894189
-0.0129704
0.656627
-0.00764646
0.413326
-0.00233217
0.191508
0.0422919
-0.00258093
0.293861
-0.00802644
0.800896
-0.0175917
1.18432
-0.0299586
1.46486
-0.0442818
1.72299
-0.0597589
1.98352
-0.0758166
2.26562
-0.0910787
2.56709
-0.103041
2.87817
-0.107451
3.18723
-0.1012
2.92632
-0.0866386
2.26213
-0.0692346
1.77611
-0.0546975
1.41159
-0.040593
1.12557
-0.0293922
0.882988
-0.019557
0.646792
-0.00965091
0.40342
-0.00297114
0.184828
0.0393208
-0.00389679
0.297758
-0.00935831
0.806358
-0.0187078
1.19367
-0.0307007
1.47685
-0.0445649
1.73685
-0.0597661
1.99872
-0.0759549
2.28181
-0.0918438
2.58298
-0.105412
2.89174
-0.113224
3.19504
-0.109084
2.92218
-0.0958205
2.24887
-0.0795344
1.75983
-0.0620018
1.39406
-0.0465675
1.11014
-0.0325272
0.868947
-0.0209203
0.635185
-0.0113508
0.393851
-0.0033661
0.176844
0.0359547
-0.00443876
0.302196
-0.0107945
0.812713
-0.0200079
1.20288
-0.0315145
1.48836
-0.0448414
1.75018
-0.0597356
2.01361
-0.0760481
2.29812
-0.0928115
2.59974
-0.10824
2.90717
-0.118541
3.20534
-0.11671
2.92035
-0.105414
2.23757
-0.0869391
1.74135
-0.0690402
1.37616
-0.0525995
1.0937
-0.039454
0.855802
-0.0264275
0.622158
-0.0124985
0.379922
-0.00351699
0.167862
0.0324377
-0.00447421
0.306671
-0.0112493
0.819489
-0.0205349
1.21216
-0.031843
1.49966
-0.0448817
1.76322
-0.0595373
2.02827
-0.0758838
2.31447
-0.0930766
2.61693
-0.109207
2.9233
-0.120964
3.2171
-0.1222
2.92159
-0.111552
2.22692
-0.0964511
1.72625
-0.0765184
1.35623
-0.0583935
1.07557
-0.0410948
0.838503
-0.0257997
0.606863
-0.0131425
0.367264
-0.00344834
0.158168
0.0289893
-0.0045326
0.311203
-0.0118068
0.826763
-0.0209581
1.22132
-0.0319376
1.51064
-0.0446564
1.77593
-0.0590937
2.04271
-0.0754469
2.33082
-0.0933521
2.63484
-0.111879
2.94183
-0.127849
3.23307
-0.132532
2.92627
-0.124117
2.21851
-0.104992
1.70713
-0.0842991
1.33554
-0.0629405
1.05421
-0.0457101
0.821273
-0.0300746
0.591228
-0.0133524
0.350542
-0.00311588
0.147931
0.0258734
-0.00452273
0.315726
-0.0118013
0.834041
-0.020824
1.23034
-0.0316246
1.52144
-0.0441301
1.78844
-0.05835
2.05693
-0.0747141
2.34718
-0.0929103
2.65303
-0.111583
2.9605
-0.127331
3.24882
-0.134874
2.93381
-0.129939
2.21357
-0.116369
1.69356
-0.0932567
1.31242
-0.0686004
1.02956
-0.0435032
0.796176
-0.0234484
0.571173
-0.0107818
0.337876
-0.00230281
0.139452
0.0235706
-0.00456327
0.320289
-0.0119144
0.841393
-0.0206425
1.23907
-0.0310715
1.53187
-0.0432527
1.80062
-0.0572745
2.07095
-0.0735847
2.36349
-0.0920872
2.67154
-0.112502
2.98092
-0.133574
3.26989
-0.145729
2.94597
-0.141849
2.20969
-0.124389
1.6761
-0.101627
1.28966
-0.0721707
1.0001
-0.0454917
0.769497
-0.0220287
0.54771
-0.00663692
0.322484
-0.00234814
0.135164
0.0212225
-0.0044795
0.324769
-0.0116143
0.848527
-0.0200978
1.24755
-0.0302565
1.54203
-0.0421482
1.81251
-0.0558959
2.0847
-0.0720506
2.37965
-0.0907425
2.69023
-0.11141
3.00158
-0.131334
3.28981
-0.144105
2.95874
-0.147166
2.21275
-0.138414
1.66734
-0.113252
1.2645
-0.0798542
0.966702
-0.0377986
0.727441
0.00199642
0.507915
0.0230395
0.301441
0.02149
0.136713
0.0427125
-0.00436531
0.329134
-0.0114146
0.855577
-0.0195657
1.2557
-0.0292888
1.55176
-0.0407472
1.82397
-0.0541811
2.09813
-0.070173
2.39564
-0.0889145
2.70897
-0.110621
3.02329
-0.134755
3.31395
-0.153134
2.97712
-0.15836
2.21798
-0.146696
1.65568
-0.124331
1.24214
-0.0859958
0.928367
-0.040727
0.682172
0.0124738
0.454714
0.035521
0.278393
0.0156755
0.156559
0.0583881
-0.00413959
0.333274
-0.0109011
0.862338
-0.0187657
1.26357
-0.0281386
1.56113
-0.0392495
1.83508
-0.0523222
2.1112
-0.0680468
2.41137
-0.0868051
2.72773
-0.108709
3.0452
-0.132392
3.33763
-0.150707
2.99543
-0.160788
2.22806
-0.1615
1.65639
-0.141164
1.2218
-0.103912
0.891115
-0.0365823
0.614843
0.0654648
0.352667
0.164738
0.17912
0.173035
0.148262
0.231423
-0.0039872
0.337261
-0.0107079
0.869059
-0.0184505
1.27131
-0.0277217
1.5704
-0.038921
1.84628
-0.0524014
2.12468
-0.0689981
2.42796
-0.0892462
2.74798
-0.113979
3.06993
-0.143931
3.36758
-0.171527
3.02303
-0.187368
2.2439
-0.185916
1.65494
-0.17153
1.20741
-0.133793
0.853378
-0.0899759
0.571026
-0.114282
0.376973
-0.364232
0.42907
-0.927279
0.711309
0.894068
-1.58992
-0.00377229
0.341033
-0.0102058
0.875492
-0.0177509
1.27885
-0.0268682
1.57952
-0.0379497
1.85736
-0.051471
2.1382
-0.0683809
2.44487
-0.0895283
2.76912
-0.115984
3.09638
-0.147624
3.39922
-0.176885
3.05229
-0.199334
2.26635
-0.220468
1.67608
-0.223147
1.21009
-0.216509
0.84674
-0.295269
0.649785
-0.688796
0.7705
-1.41124
1.15151
-2.02513
1.3252
1.21993
-2.35099
-0.00357826
0.344611
-0.00978753
0.881702
-0.0170551
1.28612
-0.0259003
1.58836
-0.0367821
1.86825
-0.0503257
2.15175
-0.0675651
2.46211
-0.0894957
2.79105
-0.117664
3.12455
-0.154352
3.43591
-0.193737
3.09167
-0.225998
2.29861
-0.245755
1.69583
-0.253813
1.21815
-0.341873
0.9348
-0.746849
1.05476
-1.51024
1.5339
-2.09179
1.73306
-2.33575
1.56916
1.33626
-2.45208
-0.00333354
0.347945
-0.00915107
0.887519
-0.0161455
1.29312
-0.0247772
1.59699
-0.0354808
1.87895
-0.0489922
2.16526
-0.0664206
2.47954
-0.0890591
2.81369
-0.118886
3.15438
-0.157945
3.47497
-0.199077
3.1328
-0.236418
2.33595
-0.280021
1.73944
-0.372707
1.31084
-0.697594
1.25969
-1.41405
1.77122
-2.01228
2.13212
-2.25594
1.97673
-2.37147
1.68469
1.40265
-2.43787
-0.00308225
0.351027
-0.00856082
0.892998
-0.0152007
1.29976
-0.0235009
1.60529
-0.034015
1.88946
-0.0474692
2.17871
-0.06508
2.49715
-0.0883165
2.83693
-0.119574
3.18564
-0.162965
3.51836
-0.215286
3.18513
-0.268203
2.38887
-0.318375
1.78961
-0.492336
1.4848
-1.074
1.84135
-1.76509
2.46231
-2.09762
2.46465
-2.25033
2.12943
-2.3344
1.76876
1.4689
-2.40065
-0.00295974
0.353987
-0.00826179
0.8983
-0.0148835
1.30638
-0.023247
1.61366
-0.0339985
1.90021
-0.0476743
2.19239
-0.0657005
2.51518
-0.0897751
2.861
-0.122774
3.21864
-0.169057
3.56464
-0.223613
3.23968
-0.276441
2.4417
-0.374525
1.88769
-0.749773
1.86005
-1.4692
2.56078
-1.95499
2.9481
-2.15853
2.66819
-2.26672
2.23763
-2.3443
1.84634
1.53377
-2.40916
-0.00300708
0.356994
-0.00859695
0.90389
-0.0155326
1.31331
-0.0242654
1.62239
-0.0354822
1.91143
-0.0497791
2.20669
-0.0686393
2.53404
-0.0938609
2.88623
-0.128564
3.25334
-0.17855
3.61463
-0.241172
3.3023
-0.31352
2.51405
-0.498922
2.07309
-1.02844
2.38957
-1.65823
3.19057
-1.94584
3.23571
-2.096
2.81835
-2.21223
2.35385
-2.30689
1.94099
1.59715
-2.37027
-0.00298622
0.35998
-0.00874255
0.909646
-0.0161034
1.32067
-0.0253521
1.63164
-0.0370822
1.92316
-0.0519888
2.22159
-0.0716257
2.55367
-0.0980161
2.91262
-0.134595
3.28992
-0.187732
3.66777
-0.253169
3.36774
-0.342292
2.60317
-0.615566
2.34637
-1.24102
3.01502
-1.74155
3.69111
-1.95283
3.44699
-2.09742
2.96294
-2.22481
2.48125
-2.33937
2.05555
1.65762
-2.39984
-0.00290372
0.362884
-0.00900587
0.915748
-0.0167491
1.32842
-0.0264303
1.64132
-0.038662
1.93539
-0.0542479
2.23718
-0.0747706
2.5742
-0.102301
2.94015
-0.140528
3.32814
-0.196025
3.72326
-0.267777
3.43949
-0.393561
2.72895
-0.762343
2.71515
-1.38645
3.63912
-1.75334
4.05801
-1.93174
3.62538
-2.03919
3.07039
-2.13316
2.57522
-2.2048
2.1272
1.65196
-2.19914
-0.00276868
0.365653
-0.00894391
0.921923
-0.0171755
1.33665
-0.0274538
1.6516
-0.0402763
1.94822
-0.056494
2.2534
-0.077784
2.59549
-0.106477
2.96884
-0.146346
3.36801
-0.204526
3.78144
-0.285793
3.52076
-0.451052
2.89421
-0.886617
3.15071
-1.44234
4.19485
-1.71333
4.32899
-1.87421
3.78626
-1.97259
3.16877
-1.97926
2.58188
-1.91827
2.06622
1.62948
-1.8958
-0.00244691
0.3681
-0.00899262
0.928469
-0.0175379
1.34519
-0.0281611
1.66222
-0.0413736
1.96143
-0.0580097
2.27003
-0.0797025
2.61718
-0.108611
2.99775
-0.148747
3.40815
-0.205316
3.83801
-0.290489
3.60593
-0.487594
3.09132
-0.957074
3.62019
-1.40709
4.64486
-1.58542
4.50732
-1.65961
3.86045
-1.66897
3.17812
-1.5266
2.43952
-1.03104
1.57066
0.598437
-0.0020117
0.370111
-0.00848981
0.934947
-0.0175657
1.35427
-0.0289746
1.67363
-0.0431453
1.9756
-0.0609323
2.28782
-0.0842235
2.64047
-0.115638
3.02916
-0.159274
3.45179
-0.223061
3.9018
-0.326392
3.70926
-0.571414
3.33634
-1.09319
4.14196
-1.46442
5.01609
-1.56645
4.60935
-1.5719
3.8659
-1.47531
3.08153
-1.23835
2.20255
-0.649343
0.981659
-0.0509057
-0.00155628
0.371668
-0.00797296
0.941364
-0.0172882
1.36358
-0.0292293
1.68557
-0.044229
1.9906
-0.0632738
2.30686
-0.0883517
2.66555
-0.122089
3.0629
-0.169925
3.49962
-0.238725
3.9706
-0.356307
3.82685
-0.65204
3.63207
-1.19793
4.68786
-1.48093
5.29909
-1.55115
4.67958
-1.53524
3.84999
-1.33504
2.88133
-0.803367
1.67088
-0.119585
0.297877
-0.17049
-0.000782285
0.37245
-0.00665407
0.947236
-0.0163842
1.37331
-0.0291218
1.69831
-0.0449421
2.00642
-0.0650086
2.32693
-0.0915313
2.69207
-0.127711
3.09908
-0.178479
3.55039
-0.254639
4.04676
-0.397211
3.96942
-0.749287
3.98415
-1.28311
5.22168
-1.47364
5.48962
-1.50357
4.70951
-1.42102
3.76744
-1.1186
2.57891
-0.335254
0.887533
0.0325971
-0.0699747
-0.137893
0.000104095
0.372346
-0.00492344
0.952263
-0.0146516
1.38304
-0.0278132
1.71147
-0.0442614
2.02287
-0.0654781
2.34815
-0.093638
2.72023
-0.131693
3.13714
-0.185271
3.60397
-0.269435
4.13092
-0.433004
4.13299
-0.834916
4.38606
-1.31296
5.69972
-1.4393
5.61596
-1.45044
4.72065
-1.25301
3.57001
-0.722318
2.04822
-0.0702691
0.235485
0.0359373
-0.176181
-0.101956
0.00199899
0.370347
-0.0015401
0.955802
-0.0119081
1.39341
-0.0258695
1.72543
-0.042776
2.03977
-0.0647013
2.37007
-0.0938638
2.74939
-0.13358
3.17685
-0.18895
3.65934
-0.279247
4.22122
-0.468257
4.322
-0.922443
4.84025
-1.31731
6.09459
-1.39194
5.69059
-1.35708
4.68578
-1.07549
3.28842
-0.361082
1.33381
-0.0167996
-0.108798
0.00765038
-0.200631
-0.0943054
0.00372449
0.366622
0.00167001
0.957857
-0.00808689
1.40317
-0.0216217
1.73897
-0.0387399
2.05689
-0.0615274
2.39286
-0.0916676
2.77953
-0.132389
3.21757
-0.190055
3.717
-0.288378
4.31954
-0.495731
4.52935
-0.969016
5.31353
-1.26145
6.38703
-1.30154
5.73068
-1.1968
4.58104
-0.827978
2.9196
-0.113377
0.619206
0.0342879
-0.256463
0.019649
-0.185992
-0.0746563
0.00595593
0.360666
0.00555171
0.958261
-0.00281785
1.41154
-0.0161913
1.75234
-0.0333382
2.07404
-0.0561155
2.41564
-0.0863825
2.8098
-0.127463
3.25865
-0.185257
3.7748
-0.286078
4.42037
-0.510179
4.75345
-0.982144
5.7855
-1.19441
6.5993
-1.21519
5.75146
-1.03411
4.39996
-0.517051
2.40255
-0.00347863
0.105634
0.0198942
-0.279836
0.0176706
-0.183769
-0.0569857
0.00875787
0.351908
0.0113217
0.955697
0.00526849
1.41759
-0.00657043
1.76418
-0.0239529
2.09142
-0.0468145
2.4385
-0.076512
2.8395
-0.116983
3.29912
-0.174811
3.83263
-0.281346
4.5269
-0.51764
4.98975
-0.947423
6.21528
-1.08653
6.73841
-1.07378
5.7387
-0.839865
4.16604
-0.302957
1.86564
-0.0503571
-0.146966
-0.0275823
-0.30261
-0.00389596
-0.207455
-0.0608817
0.0128094
0.339099
0.0194025
0.949104
0.0152375
1.42176
0.00458999
1.77483
-0.0123142
2.10833
-0.0333669
2.45955
-0.0615627
2.86769
-0.0998752
3.33744
-0.154693
3.88744
-0.258831
4.63104
-0.488164
5.21908
-0.861272
6.58839
-0.958999
6.83614
-0.946296
5.726
-0.704171
3.92392
-0.154795
1.31626
-0.0495641
-0.252196
-0.0256007
-0.326574
-0.00126562
-0.23179
-0.0621473
0.0178427
0.321256
0.0299996
0.936947
0.0296473
1.42211
0.0206545
1.78382
0.00584929
2.12313
-0.0130537
2.47846
-0.0389854
2.89363
-0.0744505
3.3729
-0.124812
3.9378
-0.223177
4.7294
-0.438203
5.4341
-0.720317
6.8705
-0.788402
6.90422
-0.728386
5.66598
-0.434245
3.62978
0.0269965
0.855019
0.0171643
-0.242364
0.0144942
-0.323904
0.0321062
-0.249402
-0.0300411
0.0241841
0.297072
0.043323
0.917808
0.0470971
1.41833
0.04094
1.78998
0.029767
2.1343
0.0133877
2.49483
-0.00889708
2.91591
-0.0387198
3.40272
-0.0814798
3.98056
-0.163708
4.81163
-0.339127
5.60952
-0.527008
7.05838
-0.606982
6.98419
-0.607887
5.66689
-0.402715
3.42461
-0.155374
0.607679
-0.185014
-0.212724
-0.100711
-0.408207
-0.00750159
-0.342611
-0.0375427
0.0316416
0.265431
0.06043
0.88902
0.0716723
1.40709
0.070182
1.79147
0.0622262
2.14226
0.0496056
2.50746
0.0324813
2.93303
0.00987928
3.42533
-0.0241909
4.01463
-0.0747168
4.86216
-0.187559
5.72237
-0.299228
7.17005
-0.382324
7.06729
-0.485596
5.77016
-0.527606
3.46662
-0.63867
0.718742
-0.659705
-0.191689
-0.464826
-0.603087
-0.230795
-0.576642
-0.268338
0.0401567
0.225274
0.0806237
0.848553
0.0999164
1.3878
0.104292
1.78709
0.101803
2.14475
0.0941253
2.51513
0.0849333
2.94223
0.0717937
3.43847
0.0551213
4.03131
0.0387295
4.87855
0.0359681
5.72513
0.0244395
7.18158
-0.0221834
7.11391
-0.130963
5.87894
-0.36894
3.70459
-0.741197
1.091
-0.794025
-0.138861
-0.616609
-0.780503
-0.34451
-0.84874
-0.612848
0.0484376
0.176836
0.105055
0.791936
0.13753
1.35532
0.149622
1.775
0.153312
2.14106
0.151266
2.51718
0.150034
2.94346
0.150317
3.43818
0.159363
4.02226
0.179461
4.85845
0.289523
5.61506
0.461927
7.00918
0.572512
7.00333
0.676844
5.7746
0.477776
3.90366
-0.0390177
1.60779
-0.395179
0.2173
-0.517531
-0.658151
-0.290333
-1.07594
-0.90318
0.0530084
0.123828
0.129422
0.715523
0.177971
1.30677
0.200989
1.75198
0.213315
2.12873
0.219126
2.51137
0.228273
2.93431
0.242986
3.42347
0.276538
3.98871
0.349752
4.78524
0.586035
5.37878
1.07664
6.51857
1.48188
6.59809
1.88043
5.37606
1.85224
3.93186
1.2848
2.17523
0.762046
0.740055
0.282946
-0.179051
0.0656757
-0.858668
-0.837505
0.048884
0.0749438
0.154139
0.610268
0.228104
1.23281
0.265461
1.71462
0.286742
2.10745
0.300292
2.49782
0.319459
2.91514
0.347489
3.39544
0.407124
3.92907
0.538589
4.65377
0.871807
5.04556
1.57008
5.8203
2.00149
6.16667
2.28153
5.09601
2.3062
3.90719
1.90846
2.57297
1.41403
1.23449
0.93949
0.295484
0.376889
-0.296067
-0.460616
0.0377384
0.0372054
0.175262
0.472744
0.278249
1.12982
0.335457
1.65742
0.368232
2.07468
0.392846
2.4732
0.419684
2.88831
0.460132
3.35499
0.529041
3.86016
0.67907
4.50374
1.02007
4.70456
1.73561
5.10475
2.12633
5.77595
2.35168
4.87066
2.38791
3.87097
2.10653
2.85435
1.56828
1.77274
0.984356
0.879405
0.413276
0.275012
-0.0473392
0.028743
0.00846236
0.198288
0.303199
0.337569
0.99054
0.418556
1.57643
0.462179
2.03105
0.496126
2.43926
0.525177
2.85926
0.569085
3.31108
0.629454
3.79979
0.751477
4.38172
0.978714
4.47733
1.54925
4.53422
1.9384
5.3868
2.04943
4.75963
2.01888
3.90152
1.80398
3.06924
1.36961
2.20711
0.872178
1.37684
0.377416
0.769774
0.330077
0.0300758
-0.0216135
0.194962
0.138313
0.394685
0.790817
0.507347
1.46377
0.564835
1.97356
0.608034
2.39606
0.638823
2.82847
0.672992
3.27691
0.706316
3.76647
0.780059
4.30798
0.897238
4.36015
1.24749
4.18397
1.65471
4.97958
1.69615
4.71819
1.60907
3.98859
1.41653
3.26178
1.08301
2.54063
0.661854
1.798
0.265196
1.16643
0.595273
0.0342986
-0.0559121
0.13867
0.0339419
0.34848
0.581008
0.486727
1.32552
0.549608
1.91068
0.576652
2.36901
0.586517
2.8186
0.585423
3.27801
0.575985
3.77591
0.568204
4.31576
0.57761
4.35074
0.703565
4.05801
0.903485
4.77966
0.904242
4.71744
0.817491
4.07534
0.701002
3.37827
0.53788
2.70375
0.326812
2.00907
0.123567
1.36968
0.718839
0.0222707
-0.0781828
0.059549
-0.00333641
0.176949
0.463608
0.291557
1.21091
0.364576
1.83766
0.404663
2.32893
0.428002
2.79526
0.441601
3.26441
0.443115
3.77439
0.433242
4.32563
0.419476
4.36451
0.476296
4.00119
0.619179
4.63678
0.625513
4.7111
0.557693
4.14316
0.462678
3.47328
0.342533
2.8239
0.194338
2.15726
0.0606249
1.50339
0.779464
0.0100567
-0.0882395
0.00692247
-0.000202193
0.0453188
0.425212
0.118033
1.1382
0.184706
1.77099
0.236683
2.27695
0.277295
2.75465
0.306579
3.23513
0.317947
3.76303
0.315131
4.32845
0.297656
4.38198
0.315638
3.98321
0.407105
4.54531
0.411732
4.70648
0.35732
4.19758
0.275427
3.55518
0.182766
2.91656
0.0867429
2.25328
0.00568936
1.58444
0.785154
-0.0092178
-0.0790216
-0.0413426
0.0319227
-0.0548393
0.438708
-0.0186837
1.10204
0.0383921
1.71392
0.0959116
2.21943
0.148537
2.70202
0.186024
3.19764
0.210342
3.73871
0.219587
4.3192
0.204818
4.39675
0.208402
3.97963
0.254647
4.49907
0.246044
4.71508
0.199922
4.2437
0.140998
3.6141
0.0794448
2.97811
0.0207039
2.31203
-0.02141
1.62656
0.763744
-0.0271764
-0.0518453
-0.0805391
0.0852854
-0.120107
0.478277
-0.113068
1.095
-0.0643327
1.66518
-0.00448164
2.15958
0.0514918
2.64605
0.0955233
3.15361
0.130739
3.70349
0.145229
4.30471
0.128773
4.41321
0.128801