/*--------------------------------*- C++ -*----------------------------------*\
| =========                 |                                                 |
| \\      /  F ield         | OpenFOAM: The Open Source CFD Toolbox           |
|  \\    /   O peration     | Version:  4.0                                   |
|   \\  /    A nd           | Web:      www.OpenFOAM.org                      |
|    \\/     M anipulation  |                                                 |
\*---------------------------------------------------------------------------*/
FoamFile
{
    version     2.0;
    format      ascii;
    class       volVectorField;
    location    "30";
    object      U;
}
// * * * * * * * * * * * * * * * * * * * * * * * * * * * * * * * * * * * * * //

dimensions      [0 1 -1 0 0 0 0];

internalField   nonuniform List<vector> 
2200
(
(0.878851 -0.0304148 0)
(1.00579 -0.0512856 0)
(1.00329 -0.0354043 0)
(1.00025 -0.0244589 0)
(0.999858 -0.0166756 0)
(0.999983 -0.0107294 0)
(0.999984 -0.00690192 0)
(1.00003 -0.00425743 0)
(1.00009 -0.00224008 0)
(1.00016 -0.000678453 0)
(1.00009 0.000855412 0)
(1.00008 0.00246879 0)
(1.00004 0.00445597 0)
(0.999913 0.00708438 0)
(0.999976 0.0108215 0)
(0.999868 0.0166993 0)
(1.00025 0.0244935 0)
(1.00348 0.0351539 0)
(1.00591 0.0513467 0)
(0.878979 0.0303689 0)
(0.711964 -0.0327668 0)
(0.996611 -0.0630306 0)
(1.03325 -0.0561874 0)
(1.02489 -0.0464786 0)
(1.01594 -0.0362432 0)
(1.00964 -0.0265692 0)
(1.00588 -0.0182496 0)
(1.00374 -0.0115077 0)
(1.0025 -0.00618597 0)
(1.00198 -0.00166373 0)
(1.00195 0.0025698 0)
(1.00248 0.00698599 0)
(1.00367 0.0121706 0)
(1.00584 0.0188062 0)
(1.00955 0.0272224 0)
(1.01579 0.0368457 0)
(1.02474 0.0470818 0)
(1.03297 0.0572531 0)
(0.996578 0.0631607 0)
(0.711704 0.0329416 0)
(0.535499 -0.0238939 0)
(0.969851 -0.0569256 0)
(1.05637 -0.0547296 0)
(1.05205 -0.0486975 0)
(1.03598 -0.040361 0)
(1.02442 -0.0322477 0)
(1.016 -0.0239576 0)
(1.01048 -0.0161197 0)
(1.00723 -0.00894517 0)
(1.0057 -0.00246655 0)
(1.00559 0.0037992 0)
(1.00704 0.0102472 0)
(1.01025 0.0173779 0)
(1.01579 0.0250833 0)
(1.0241 0.0330168 0)
(1.03574 0.0410057 0)
(1.05183 0.0491317 0)
(1.0563 0.054021 0)
(0.969253 0.0574144 0)
(0.53457 0.0239006 0)
(0.392276 -0.0136364 0)
(0.911797 -0.0464105 0)
(1.05743 -0.046877 0)
(1.06961 -0.0443433 0)
(1.05482 -0.0380665 0)
(1.03919 -0.0312898 0)
(1.02751 -0.024709 0)
(1.01903 -0.0176481 0)
(1.01375 -0.010253 0)
(1.01119 -0.00273285 0)
(1.01114 0.00484888 0)
(1.0136 0.0122449 0)
(1.0187 0.0193569 0)
(1.02684 0.0260648 0)
(1.03849 0.0324355 0)
(1.05421 0.0390948 0)
(1.06881 0.0453192 0)
(1.05602 0.0477929 0)
(0.910341 0.0468134 0)
(0.390589 0.0137078 0)
(0.307603 -0.00452255 0)
(0.846436 -0.0323962 0)
(1.04927 -0.0400464 0)
(1.07951 -0.0383766 0)
(1.06834 -0.0337315 0)
(1.05168 -0.0280521 0)
(1.03806 -0.0226063 0)
(1.02781 -0.0166658 0)
(1.02081 -0.00998239 0)
(1.01712 -0.00259964 0)
(1.01692 0.00523614 0)
(1.02024 0.012359 0)
(1.02696 0.018757 0)
(1.03727 0.0245134 0)
(1.05072 0.0297669 0)
(1.06711 0.0351503 0)
(1.07798 0.0395785 0)
(1.04746 0.0411795 0)
(0.843718 0.0327833 0)
(0.304895 0.00467415 0)
(0.264306 0.000115264 0)
(0.789025 -0.0200019 0)
(1.03316 -0.0312811 0)
(1.0834 -0.0318875 0)
(1.07731 -0.0288089 0)
(1.06087 -0.024132 0)
(1.04708 -0.019626 0)
(1.03613 -0.0145583 0)
(1.02828 -0.00857659 0)
(1.02394 -0.00175185 0)
(1.02365 0.0054564 0)
(1.02752 0.0120666 0)
(1.03506 0.0176704 0)
(1.04565 0.0224223 0)
(1.05922 0.0263425 0)
(1.07562 0.0306727 0)
(1.08141 0.0333794 0)
(1.0305 0.0325533 0)
(0.784761 0.0204543 0)
(0.26059 3.28951e-05 0)
(0.240447 0.0010839 0)
(0.738519 -0.0122236 0)
(1.01366 -0.0249514 0)
(1.08346 -0.0267467 0)
(1.08236 -0.0245904 0)
(1.06738 -0.0206657 0)
(1.05406 -0.016867 0)
(1.04332 -0.0124078 0)
(1.03533 -0.00712188 0)
(1.0307 -0.000952592 0)
(1.03034 0.00546653 0)
(1.03428 0.0113659 0)
(1.04177 0.0163191 0)
(1.05202 0.0201996 0)
(1.06525 0.0237883 0)
(1.07986 0.0272156 0)
(1.08025 0.0287761 0)
(1.00889 0.0265079 0)
(0.731746 0.012844 0)
(0.235432 -0.00091373 0)
(0.226074 0.000919806 0)
(0.695311 -0.00802495 0)
(0.99251 -0.0207766 0)
(1.08151 -0.0231366 0)
(1.08605 -0.0213342 0)
(1.07255 -0.0179191 0)
(1.05931 -0.0142864 0)
(1.04888 -0.0100805 0)
(1.04092 -0.00526888 0)
(1.03602 0.000155504 0)
(1.03546 0.00565167 0)
(1.03937 0.0107106 0)
(1.04655 0.0148368 0)
(1.05675 0.0184635 0)
(1.06961 0.0214365 0)
(1.08245 0.0241793 0)
(1.07721 0.0254696 0)
(0.986295 0.0225049 0)
(0.686349 0.00872036 0)
(0.219765 -0.000761127 0)
(0.216739 0.00063942 0)
(0.6609 -0.00546294 0)
(0.972873 -0.0171714 0)
(1.07911 -0.0197773 0)
(1.08934 -0.0182134 0)
(1.07718 -0.0152502 0)
(1.06389 -0.011929 0)
(1.05352 -0.00811635 0)
(1.04568 -0.00377316 0)
(1.04073 0.00107347 0)
(1.04003 0.00607469 0)
(1.04371 0.0105039 0)
(1.05059 0.0142115 0)
(1.06009 0.0173567 0)
(1.07294 0.0198422 0)
(1.08451 0.0222597 0)
(1.07279 0.0230731 0)
(0.963125 0.019417 0)
(0.648175 0.00640543 0)
(0.208548 -0.000436431 0)
(0.209983 0.000380534 0)
(0.632981 -0.00381119 0)
(0.95345 -0.0142153 0)
(1.07543 -0.0171387 0)
(1.09205 -0.0159623 0)
(1.08123 -0.0132156 0)
(1.0678 -0.00987914 0)
(1.05738 -0.00620092 0)
(1.04965 -0.00216994 0)
(1.04482 0.00225595 0)
(1.04389 0.0068831 0)
(1.04705 0.0106865 0)
(1.0536 0.0138656 0)
(1.06297 0.0164325 0)
(1.0759 0.019067 0)
(1.08562 0.020831 0)
(1.06713 0.0209523 0)
(0.941013 0.0168443 0)
(0.616925 0.00495857 0)
(0.199797 -0.000132216 0)
(0.205073 0.000144209 0)
(0.611471 -0.00264053 0)
(0.936933 -0.0114331 0)
(1.07232 -0.0144148 0)
(1.09477 -0.0135723 0)
(1.08522 -0.0112233 0)
(1.07144 -0.00826587 0)
(1.06064 -0.00493967 0)
(1.05278 -0.00103458 0)
(1.04797 0.00330188 0)
(1.04666 0.00774203 0)
(1.04924 0.0113761 0)
(1.05536 0.0142221 0)
(1.06526 0.0165309 0)
(1.07827 0.0183412 0)
(1.08627 0.0196308 0)
(1.06077 0.0193232 0)
(0.919661 0.0147309 0)
(0.590298 0.00402351 0)
(0.192112 0.000164367 0)
(0.201409 1.19631e-05 0)
(0.595435 -0.00160584 0)
(0.922426 -0.0087886 0)
(1.06918 -0.0116636 0)
(1.09765 -0.0109539 0)
(1.08949 -0.00878692 0)
(1.07527 -0.00600922 0)
(1.06382 -0.00289442 0)
(1.05532 0.000770314 0)
(1.04995 0.00502425 0)
(1.04827 0.00917448 0)
(1.05078 0.0125699 0)
(1.05712 0.0148299 0)
(1.06696 0.0164361 0)
(1.08007 0.017526 0)
(1.08632 0.0182796 0)
(1.05394 0.017444 0)
(0.900013 0.0126611 0)
(0.568673 0.00334581 0)
(0.185307 0.00038218 0)
(0.199115 -5.13898e-05 0)
(0.584249 -0.000645365 0)
(0.91036 -0.00583582 0)
(1.06677 -0.00811938 0)
(1.10032 -0.00748924 0)
(1.09354 -0.00554389 0)
(1.07954 -0.00303702 0)
(1.06798 -0.000172162 0)
(1.05901 0.00309389 0)
(1.05295 0.00681113 0)
(1.05091 0.0101244 0)
(1.05342 0.0127285 0)
(1.05973 0.014453 0)
(1.06955 0.0154295 0)
(1.08205 0.0165685 0)
(1.08618 0.0167646 0)
(1.04743 0.0156646 0)
(0.881984 0.0106389 0)
(0.550956 0.00274709 0)
(0.17898 0.000450911 0)
(0.19867 -0.00015594 0)
(0.578465 0.000346961 0)
(0.90217 -0.00271099 0)
(1.06468 -0.00504815 0)
(1.10291 -0.00424308 0)
(1.0974 -0.00233746 0)
(1.08393 0.000114096 0)
(1.07263 0.00301435 0)
(1.0637 0.00612258 0)
(1.05729 0.00935652 0)
(1.05466 0.0119593 0)
(1.0563 0.0138452 0)
(1.06176 0.0148756 0)
(1.07061 0.0157815 0)
(1.08212 0.0156315 0)
(1.08432 0.0153971 0)
(1.03891 0.0135857 0)
(0.86477 0.0085998 0)
(0.536989 0.00223499 0)
(0.173608 0.000440044 0)
(0.199561 -3.12155e-05 0)
(0.57771 0.00117354 0)
(0.895509 -0.00041439 0)
(1.06367 -0.00169478 0)
(1.10528 -0.000863238 0)
(1.10066 0.000927682 0)
(1.08746 0.00319838 0)
(1.07615 0.00601824 0)
(1.06708 0.00904765 0)
(1.06025 0.0120278 0)
(1.05686 0.0143795 0)
(1.05762 0.0157354 0)
(1.06227 0.0161679 0)
(1.07039 0.0161667 0)
(1.0813 0.0154211 0)
(1.0818 0.0146741 0)
(1.03102 0.0126049 0)
(0.850042 0.00743306 0)
(0.525481 0.00209406 0)
(0.1688 0.000450332 0)
(0.202171 0.000461965 0)
(0.579226 0.00173957 0)
(0.893707 0.00249665 0)
(1.06277 0.00125977 0)
(1.10752 0.00253735 0)
(1.1036 0.00448994 0)
(1.09019 0.00690996 0)
(1.07832 0.00964172 0)
(1.06862 0.012637 0)
(1.06118 0.0154306 0)
(1.05717 0.0174835 0)
(1.05731 0.0181635 0)
(1.06149 0.0179657 0)
(1.06963 0.017192 0)
(1.07962 0.0160294 0)
(1.0777 0.0145672 0)
(1.02112 0.0117807 0)
(0.835067 0.00662352 0)
(0.514882 0.00214855 0)
(0.164167 0.000469434 0)
(0.207472 0.000622545 0)
(0.584864 0.00266744 0)
(0.895574 0.00434995 0)
(1.06422 0.00505875 0)
(1.11034 0.0066547 0)
(1.10708 0.00870706 0)
(1.09349 0.0112103 0)
(1.08103 0.0139961 0)
(1.07044 0.0168511 0)
(1.06175 0.0193346 0)
(1.05646 0.0209303 0)
(1.05579 0.0209084 0)
(1.05964 0.0199039 0)
(1.06746 0.0183225 0)
(1.07647 0.0166526 0)
(1.07324 0.0147368 0)
(1.0128 0.0116653 0)
(0.823304 0.00658227 0)
(0.505518 0.00235049 0)
(0.159497 0.000480337 0)
(0.213116 0.000651133 0)
(0.592817 0.00338073 0)
(0.900166 0.00639705 0)
(1.06747 0.00793787 0)
(1.11439 0.0101789 0)
(1.1115 0.012869 0)
(1.0978 0.0159756 0)
(1.08501 0.0191088 0)
(1.07382 0.0221995 0)
(1.0642 0.0246564 0)
(1.0578 0.0257275 0)
(1.05558 0.024809 0)
(1.05805 0.0230112 0)
(1.06488 0.0208859 0)
(1.0728 0.0185876 0)
(1.06713 0.015826 0)
(1.00146 0.0120266 0)
(0.808535 0.00691241 0)
(0.494361 0.00271616 0)
(0.154084 0.000522144 0)
(0.221684 0.000839493 0)
(0.606699 0.00427096 0)
(0.909991 0.00865497 0)
(1.07319 0.0113405 0)
(1.11947 0.0138869 0)
(1.11689 0.0170864 0)
(1.10286 0.0204231 0)
(1.08948 0.0242441 0)
(1.07738 0.02783 0)
(1.06631 0.030614 0)
(1.05771 0.0314931 0)
(1.05393 0.0303329 0)
(1.05552 0.0278563 0)
(1.06153 0.0246777 0)
(1.06837 0.0214833 0)
(1.06093 0.0180924 0)
(0.992155 0.0137919 0)
(0.797243 0.00833885 0)
(0.483683 0.00336821 0)
(0.148178 0.000608225 0)
(0.230775 0.00113655 0)
(0.620588 0.00510562 0)
(0.921184 0.0106482 0)
(1.08083 0.0143815 0)
(1.12612 0.0179604 0)
(1.12295 0.0217248 0)
(1.10805 0.0260953 0)
(1.09371 0.0306514 0)
(1.08028 0.0349649 0)
(1.06778 0.0384277 0)
(1.05774 0.0392514 0)
(1.05248 0.037505 0)
(1.05199 0.0342092 0)
(1.05678 0.0304708 0)
(1.0622 0.0265618 0)
(1.05204 0.0219848 0)
(0.977623 0.0163967 0)
(0.778481 0.00997452 0)
(0.467546 0.0041594 0)
(0.140121 0.000749413 0)
(0.244093 0.00149405 0)
(0.641184 0.00695156 0)
(0.937319 0.0140002 0)
(1.09036 0.0191304 0)
(1.13306 0.0230878 0)
(1.12987 0.0279048 0)
(1.1144 0.0329854 0)
(1.09888 0.0385348 0)
(1.08365 0.0437648 0)
(1.06865 0.0476157 0)
(1.0556 0.0481191 0)
(1.04825 0.0459439 0)
(1.04709 0.0420752 0)
(1.05097 0.0368971 0)
(1.05458 0.0321754 0)
(1.04198 0.0260051 0)
(0.964298 0.0194355 0)
(0.763599 0.0121048 0)
(0.452261 0.00503038 0)
(0.131462 0.000862573 0)
(0.259877 0.00199114 0)
(0.665181 0.00840043 0)
(0.956733 0.017567 0)
(1.10314 0.024169 0)
(1.14312 0.0297826 0)
(1.13893 0.0355968 0)
(1.12238 0.0420457 0)
(1.10532 0.048931 0)
(1.08799 0.0549436 0)
(1.0705 0.0590679 0)
(1.05537 0.0592885 0)
(1.04587 0.0563217 0)
(1.0416 0.0511452 0)
(1.04311 0.0450404 0)
(1.04471 0.0388557 0)
(1.02788 0.0314281 0)
(0.943794 0.0230777 0)
(0.737441 0.0142118 0)
(0.428478 0.00589016 0)
(0.119737 0.000991135 0)
(0.281839 0.00278618 0)
(0.697975 0.0121279 0)
(0.98306 0.0235565 0)
(1.11952 0.0324343 0)
(1.15455 0.0389499 0)
(1.14969 0.0463217 0)
(1.13194 0.0543447 0)
(1.11297 0.0622718 0)
(1.09293 0.0691306 0)
(1.072 0.0732774 0)
(1.05301 0.0727183 0)
(1.04034 0.0680604 0)
(1.03499 0.061808 0)
(1.03462 0.0541107 0)
(1.03299 0.046028 0)
(1.01201 0.0367443 0)
(0.924119 0.0269946 0)
(0.716576 0.0169978 0)
(0.407253 0.00700394 0)
(0.108058 0.00105778 0)
(0.312045 0.00375337 0)
(0.74121 0.0149846 0)
(1.0164 0.0308244 0)
(1.14064 0.0423705 0)
(1.17015 0.0515135 0)
(1.1629 0.0615343 0)
(1.14295 0.0708739 0)
(1.12117 0.0799349 0)
(1.09778 0.0869335 0)
(1.07324 0.0901285 0)
(1.05108 0.0879924 0)
(1.03575 0.0821445 0)
(1.02628 0.0738378 0)
(1.02242 0.064617 0)
(1.01794 0.0548182 0)
(0.991953 0.0441749 0)
(0.896533 0.0323732 0)
(0.680344 0.020191 0)
(0.372743 0.00798148 0)
(0.0919642 0.0011745 0)
(0.348127 0.00749815 0)
(0.795792 0.024553 0)
(1.05868 0.0435037 0)
(1.16755 0.0587161 0)
(1.18897 0.0703818 0)
(1.17814 0.0822648 0)
(1.15485 0.0932923 0)
(1.12933 0.102553 0)
(1.10177 0.108959 0)
(1.0727 0.110892 0)
(1.04632 0.107009 0)
(1.02737 0.0979612 0)
(1.01644 0.0874322 0)
(1.01017 0.076043 0)
(1.0011 0.0641106 0)
(0.969622 0.051239 0)
(0.868404 0.037785 0)
(0.650187 0.0237438 0)
(0.344118 0.00948422 0)
(0.0774697 0.00109579 0)
(0.430313 0.0112585 0)
(0.87817 0.0351165 0)
(1.11537 0.0635604 0)
(1.20116 0.0834108 0)
(1.21251 0.0965956 1.02204e-33)
(1.19543 0.112199 -4.46826e-34)
(1.16713 0.122982 0)
(1.13699 0.131399 0)
(1.10471 0.135975 0)
(1.07099 0.134915 0)
(1.04023 0.127103 0)
(1.01777 0.115434 0)
(1.0025 0.10258 0)
(0.992213 0.0893094 0)
(0.980249 0.0757114 0)
(0.943033 0.0615207 0)
(0.831936 0.0454641 0)
(0.599964 0.0283598 0)
(0.294183 0.00973719 0)
(0.0559988 0.000820227 0)
(0.499486 0.026277 8.43225e-20)
(0.972867 0.059131 -6.33347e-20)
(1.17585 0.0961841 0)
(1.23636 0.118985 4.61774e-20)
(1.23782 0.136047 -3.74147e-20)
(1.21232 0.151607 4.71428e-34)
(1.17856 0.160966 0)
(1.14307 0.167476 2.35608e-20)
(1.1052 0.169537 -7.6381e-20)
(1.06597 0.165517 1.53761e-20)
(1.03084 0.154932 0)
(1.00472 0.140081 -3.71232e-20)
(0.986974 0.123818 -4.39273e-20)
(0.973272 0.107796 7.66459e-20)
(0.953477 0.0917128 -6.03144e-20)
(0.905313 0.0743556 0)
(0.779362 0.0552223 -2.16355e-20)
(0.534805 0.0332452 0)
(0.241538 0.012586 -1.19082e-19)
(0.0380754 0.00127909 1.40751e-19)
(0.531746 0.0543151 -1.06626e-20)
(1.02968 0.102238 2.10897e-19)
(1.22088 0.146874 -1.81525e-20)
(1.26784 0.166971 -1.28032e-19)
(1.26058 0.184596 -7.93726e-20)
(1.22725 0.198299 1.28437e-19)
(1.18787 0.205615 0)
(1.1466 0.210172 0)
(1.10306 0.20969 1.22076e-19)
(1.05816 0.202268 0)
(1.0165 0.187545 1.36016e-19)
(0.983072 0.16831 3.98298e-20)
(0.958204 0.150479 3.37924e-22)
(0.937933 0.13357 -8.35895e-20)
(0.916418 0.117194 0)
(0.865728 0.0999349 0)
(0.736567 0.0749698 -3.54189e-19)
(0.498436 0.0483605 8.86528e-19)
(0.226846 0.0188258 -5.25664e-19)
(0.0341959 0.00368747 -6.2133e-19)
(0.536765 0.0772308 -1.5682e-19)
(1.0622 0.159158 5.54323e-20)
(1.25454 0.208257 2.58598e-20)
(1.29336 0.226263 2.25991e-19)
(1.27844 0.241584 1.39162e-20)
(1.2386 0.251202 -3.38403e-19)
(1.19376 0.255108 1.12288e-19)
(1.14676 0.256665 0)
(1.09748 0.252797 -2.59404e-19)
(1.04662 0.241951 2.2178e-19)
(0.999671 0.224227 -3.66404e-19)
(0.964118 0.204821 1.70358e-19)
(0.938353 0.186212 -1.07272e-19)
(0.91698 0.167618 2.43063e-19)
(0.887654 0.148668 0)
(0.831682 0.12845 -8.77879e-20)
(0.706494 0.101779 0)
(0.486855 0.0647732 4.88072e-19)
(0.229954 0.031164 -1.15863e-18)
(0.0423229 0.00533146 7.25731e-19)
(0.527202 0.109267 5.46552e-19)
(1.07719 0.216459 -2.29819e-19)
(1.27403 0.273773 -4.43134e-20)
(1.31009 0.29045 0)
(1.29006 0.303137 -1.61812e-19)
(1.24554 0.308062 1.97431e-19)
(1.19613 0.307884 -1.20103e-19)
(1.14421 0.305591 0)
(1.09007 0.297629 1.84605e-19)
(1.03406 0.282831 -1.56524e-19)
(0.982091 0.261275 3.16802e-19)
(0.939937 0.238207 0)
(0.906268 0.215829 -2.28334e-19)
(0.877368 0.195908 1.29555e-19)
(0.852262 0.1787 3.21468e-19)
(0.803519 0.160475 -2.82736e-19)
(0.689051 0.131091 4.52177e-19)
(0.485597 0.0889823 -1.00115e-18)
(0.245209 0.0454405 6.32501e-19)
(0.0541399 0.0101617 -7.91713e-19)
(0.513499 0.133572 -2.61068e-19)
(1.08308 0.271466 1.90345e-19)
(1.28454 0.340458 -1.44198e-19)
(1.31905 0.355885 2.53385e-19)
(1.29528 0.365939 -2.18986e-19)
(1.24752 0.366314 6.59604e-20)
(1.19451 0.362144 3.64705e-21)
(1.13848 0.355862 -2.22386e-19)
(1.07977 0.343901 -1.94844e-19)
(1.01844 0.32532 -3.35942e-19)
(0.961963 0.300946 -6.80179e-19)
(0.917635 0.275389 -2.05147e-19)
(0.885567 0.253775 2.51001e-21)
(0.861408 0.235823 -4.3656e-19)
(0.829304 0.217221 -6.34093e-21)
(0.776465 0.193373 4.0905e-19)
(0.667923 0.160413 -1.23221e-19)
(0.481705 0.113157 -7.20892e-20)
(0.257012 0.0614596 0)
(0.0635416 0.0155294 1.67169e-18)
(0.494819 0.154213 0)
(1.0747 0.320882 -4.35206e-20)
(1.28603 0.403695 -4.16662e-20)
(1.3214 0.419514 -1.23701e-20)
(1.29514 0.427932 2.24174e-19)
(1.24506 0.424352 -1.47692e-19)
(1.18927 0.41651 1.3359e-19)
(1.12992 0.406354 3.6214e-19)
(1.06757 0.390316 -1.07078e-19)
(1.00278 0.367455 1.70349e-19)
(0.94292 0.338732 3.65083e-19)
(0.895155 0.310583 4.44943e-19)
(0.857719 0.286922 -2.64435e-19)
(0.824729 0.264423 4.70505e-19)
(0.799079 0.244495 -3.70909e-19)
(0.756252 0.225297 0)
(0.659602 0.190426 -9.32157e-19)
(0.485918 0.13902 1.2551e-18)
(0.267918 0.077989 9.36157e-20)
(0.0706524 0.0209174 -1.75477e-18)
(0.480572 0.174994 -5.27048e-21)
(1.06687 0.370078 2.58175e-19)
(1.28347 0.465199 3.10341e-19)
(1.31904 0.481326 -3.14414e-19)
(1.29062 0.488137 1.70346e-19)
(1.23882 0.480993 -1.50158e-19)
(1.18091 0.4699 2.73175e-19)
(1.11904 0.456111 -1.15888e-19)
(1.05375 0.436241 -4.39411e-19)
(0.985347 0.409911 4.23618e-22)
(0.921619 0.378459 -3.94039e-19)
(0.872022 0.347981 -4.76408e-19)
(0.835995 0.321438 2.89121e-19)
(0.811507 0.300403 -1.68619e-19)
(0.780061 0.281017 4.0045e-19)
(0.732868 0.255507 0)
(0.639971 0.2192 -5.74755e-19)
(0.479707 0.162728 8.48629e-19)
(0.272842 0.0931632 1.61124e-18)
(0.0749598 0.0259009 -1.89617e-18)
(0.465616 0.192452 3.84136e-19)
(1.05256 0.414127 -2.04948e-19)
(1.27622 0.522393 -2.68531e-19)
(1.31305 0.539754 3.32923e-19)
(1.28293 0.545736 1.13221e-20)
(1.22974 0.535653 -3.06627e-19)
(1.17021 0.521637 -1.52899e-19)
(1.1064 0.504501 -1.38056e-19)
(1.0387 0.481098 -2.42889e-19)
(0.967983 0.450919 3.89026e-19)
(0.902951 0.414373 4.04605e-19)
(0.851236 0.380681 7.57958e-19)
(0.812361 0.353059 0)
(0.777317 0.328707 5.78259e-21)
(0.75271 0.307219 -1.09054e-18)
(0.714427 0.286392 2.53643e-19)
(0.629683 0.247481 1.23445e-18)
(0.474354 0.186359 -3.63691e-19)
(0.270115 0.107007 7.58703e-19)
(0.0751982 0.0290874 -6.36694e-20)
(0.45681 0.211577 6.04814e-21)
(1.04196 0.458322 -1.50963e-19)
(1.26741 0.577822 -1.78731e-19)
(1.30441 0.596073 4.88512e-19)
(1.27268 0.600841 -4.72105e-19)
(1.21859 0.58788 3.1608e-19)
(1.15783 0.571283 1.60178e-19)
(1.09241 0.55122 4.23464e-19)
(1.02257 0.524749 4.9882e-19)
(0.94851 0.490966 -4.37544e-19)
(0.879486 0.452441 0)
(0.826995 0.41573 -2.81498e-19)
(0.789431 0.384337 3.23185e-19)
(0.765102 0.361332 3.98933e-19)
(0.733949 0.338998 -2.30932e-19)
(0.690145 0.310589 -5.59551e-19)
(0.607899 0.271751 -1.66906e-19)
(0.461459 0.2041 -1.26038e-21)
(0.261834 0.116718 0)
(0.0723915 0.031216 0)
(0.448326 0.227157 1.19552e-19)
(1.02858 0.497985 0)
(1.25624 0.628866 -1.75422e-19)
(1.29383 0.648813 5.86012e-20)
(1.26086 0.65288 5.13922e-19)
(1.20597 0.637531 -1.35286e-19)
(1.14411 0.618727 1.6551e-19)
(1.07725 0.596022 -2.92135e-19)
(1.00534 0.566653 3.83987e-19)
(0.929785 0.530123 -1.34715e-19)
(0.860865 0.487237 2.30571e-19)
(0.806877 0.445961 8.93888e-19)
(0.765917 0.414583 1.36336e-20)
(0.73089 0.384779 -4.18138e-19)
(0.707109 0.360476 7.64294e-19)
(0.672796 0.337808 4.48261e-21)
(0.595808 0.292418 1.78569e-19)
(0.449924 0.221238 -8.52124e-19)
(0.252133 0.123466 8.68329e-19)
(0.0679989 0.0327853 -1.0332e-18)
(0.44224 0.246111 3.36657e-23)
(1.0177 0.537492 0)
(1.24462 0.678152 0)
(1.28187 0.699364 -7.73691e-20)
(1.24774 0.702249 -1.72711e-19)
(1.19232 0.684527 1.6478e-19)
(1.12969 0.663796 -3.28722e-19)
(1.06176 0.638779 0)
(0.988851 0.60722 -5.60136e-19)
(0.911779 0.567615 6.30041e-19)
(0.838559 0.520411 6.44454e-19)
(0.781155 0.477896 -3.25972e-19)
(0.741736 0.440775 -3.88608e-19)
(0.717011 0.413834 9.08297e-19)
(0.688117 0.389395 -2.71563e-19)
(0.647533 0.355753 -3.23379e-19)
(0.571229 0.311711 -1.93487e-19)
(0.432136 0.232343 -9.17253e-19)
(0.239801 0.128063 1.32204e-19)
(0.0626159 0.0331015 1.11317e-18)
(0.438514 0.264758 3.57433e-20)
(1.00614 0.573494 7.35819e-20)
(1.23181 0.723498 2.34616e-20)
(1.26903 0.746574 -2.69064e-23)
(1.23405 0.74873 -1.16932e-19)
(1.17816 0.728928 3.16264e-19)
(1.11471 0.70641 0)
(1.04585 0.679414 1.721e-19)
(0.971036 0.645302 -1.35704e-19)
(0.890323 0.602713 1.05582e-18)
(0.814729 0.554163 -1.4582e-19)
(0.758132 0.507312 1.64263e-19)
(0.718163 0.468429 0)
(0.681786 0.434642 -4.9027e-19)
(0.659716 0.404948 5.88769e-19)
(0.628378 0.378504 0)
(0.55584 0.325396 -4.17719e-19)
(0.414733 0.243022 1.22731e-18)
(0.226494 0.130544 1.44323e-19)
(0.0566703 0.0325686 -1.36885e-18)
(0.436618 0.281638 5.97742e-20)
(0.996684 0.608893 -7.5941e-20)
(1.2192 0.766956 0)
(1.25579 0.791453 -1.56905e-19)
(1.22 0.792619 0)
(1.16373 0.770855 -3.62877e-19)
(1.09974 0.746793 0)
(1.02991 0.718008 0)
(0.953732 0.682507 -1.66577e-19)
(0.872273 0.638981 -9.99235e-19)
(0.795789 0.587615 -1.1866e-18)
(0.734788 0.535951 1.87703e-19)
(0.689556 0.493236 6.69429e-19)
(0.667709 0.458698 5.36263e-19)
(0.639583 0.429556 -1.88935e-18)
(0.601444 0.390131 -7.56805e-19)
(0.528579 0.339557 4.42873e-19)
(0.393254 0.24796 0)
(0.211938 0.131109 1.24327e-18)
(0.0505365 0.0311142 -1.47368e-18)
(0.43524 0.297399 -4.98886e-20)
(0.986616 0.641127 6.96642e-20)
(1.20624 0.806848 0)
(1.24236 0.833238 -1.04386e-20)
(1.20596 0.83389 7.34956e-20)
(1.14941 0.810446 0)
(1.08473 0.784889 1.00179e-19)
(1.01405 0.754467 1.11121e-19)
(0.93684 0.717211 -3.26689e-19)
(0.853238 0.670469 1.38009e-19)
(0.771718 0.614517 0)
(0.708983 0.561935 7.82169e-19)
(0.66915 0.516035 4.28191e-21)
(0.630619 0.476269 2.88842e-19)
(0.609479 0.43955 3.41858e-19)
(0.580395 0.409163 0)
(0.510628 0.346129 -7.25791e-19)
(0.373591 0.252733 1.42472e-18)
(0.196796 0.129776 -1.50908e-18)
(0.0446318 0.0290972 3.1727e-18)
(0.434211 0.312434 0)
(0.978092 0.672942 0)
(1.1939 0.844907 5.34299e-20)
(1.22908 0.872714 0)
(1.19204 0.872651 0)
(1.1352 0.847729 -3.66036e-19)
(1.07011 0.820962 1.04441e-19)
(0.998779 0.789161 1.72588e-20)
(0.919815 0.750737 -7.89996e-20)
(0.833039 0.70394 0)
(0.750021 0.648641 -1.77177e-19)
(0.68578 0.591406 -6.35659e-19)
(0.637293 0.540054 -7.56881e-19)
(0.614342 0.497177 -3.01535e-19)
(0.588163 0.461432 3.70324e-19)
(0.55191 0.413238 -8.73007e-19)
(0.48147 0.35536 1.56089e-18)
(0.349484 0.251884 5.0599e-21)
(0.181431 0.126637 -1.44891e-18)
(0.0391039 0.0267176 -2.14019e-19)
(0.433121 0.327136 0)
(0.969254 0.702195 4.51581e-20)
(1.18157 0.879915 -4.66276e-20)
(1.21593 0.909421 0)
(1.17839 0.909032 0)
(1.12141 0.882891 7.65653e-19)
(1.05588 0.854957 0)
(0.983735 0.82192 0)
(0.903788 0.782209 -7.2419e-19)
(0.816694 0.73319 1.79591e-19)
(0.732295 0.673684 -1.6001e-18)
(0.66227 0.615201 0)
(0.615068 0.562925 -8.16303e-19)
(0.574796 0.513149 1.12342e-20)
(0.55389 0.465741 -1.18742e-18)
(0.528438 0.426845 4.69703e-19)
(0.46266 0.35261 2.94176e-21)
(0.331741 0.250075 -1.64726e-18)
(0.168061 0.122295 7.80568e-19)
(0.0345312 0.0245763 2.29169e-19)
(0.432156 0.341391 0)
(0.961708 0.730991 1.19572e-20)
(1.1699 0.913372 -5.06465e-20)
(1.20313 0.943996 -2.18442e-19)
(1.16506 0.942993 -9.86607e-20)
(1.10794 0.915796 9.2699e-20)
(1.04214 0.887049 -8.8802e-20)
(0.969466 0.85296 7.9573e-19)
(0.88853 0.81254 7.74679e-19)
(0.798246 0.763764 1.41151e-18)
(0.707623 0.706597 1.32996e-18)
(0.635108 0.644276 2.28739e-19)
(0.582996 0.584088 1.17276e-18)
(0.555567 0.532003 7.14437e-19)
(0.529744 0.484974 8.51643e-19)
(0.49671 0.421077 -5.13289e-19)
(0.431654 0.35356 -6.02832e-19)
(0.308336 0.239935 7.06467e-19)
(0.154847 0.11515 -4.17543e-19)
(0.0328463 0.0261346 7.41257e-19)
(0.431117 0.355195 1.17426e-20)
(0.95389 0.757304 -2.50667e-20)
(1.15832 0.944155 -2.27459e-20)
(1.19063 0.976139 1.62967e-20)
(1.15216 0.974834 2.84892e-19)
(1.09498 0.946756 -2.17007e-19)
(1.02898 0.917207 9.11882e-20)
(0.95597 0.882306 -2.13653e-20)
(0.874112 0.841223 -9.08646e-19)
(0.783313 0.791127 -1.52506e-18)
(0.693227 0.729836 9.45266e-20)
(0.617403 0.667535 0)
(0.559726 0.609661 0)
(0.512344 0.549088 -3.7369e-19)
(0.488381 0.483957 -1.3851e-18)
(0.466711 0.428829 1.10574e-18)
(0.413629 0.330655 6.59053e-19)
(0.307479 0.220092 0)
(0.16269 0.0933847 1.33184e-18)
(0.0268835 0.0038577 -7.94044e-19)
(0.430214 0.368296 -4.73885e-21)
(0.947083 0.783049 7.48647e-21)
(1.14735 0.973592 3.5035e-20)
(1.17852 1.00637 9.14506e-20)
(1.13965 1.00443 8.57172e-20)
(1.08251 0.975561 -6.22732e-20)
(1.0165 0.945522 0)
(0.94317 0.910017 -1.00811e-18)
(0.860405 0.868275 1.1165e-19)
(0.766789 0.818586 0)
(0.670781 0.760445 0)
(0.588047 0.696921 1.41591e-19)
(0.525838 0.631034 1.84566e-19)
(0.490288 0.567183 -4.01764e-19)
(0.458657 0.504916 9.9357e-19)
(0.425119 0.413126 -1.20038e-18)
(0.371888 0.316384 -1.40956e-18)
(0.295125 0.195408 1.24409e-18)
(0.200375 0.119095 -4.76128e-19)
(0.116916 0.0868263 2.78514e-19)
(0.429075 0.380635 2.63544e-20)
(0.939915 0.806355 0)
(1.13652 1.00058 0)
(1.16685 1.03445 3.97255e-20)
(1.12772 1.03219 -3.21584e-20)
(1.07063 1.00263 -2.09571e-20)
(1.00457 0.972021 3.76148e-19)
(0.930994 0.935965 1.07409e-18)
(0.847545 0.89418 1.67203e-18)
(0.753429 0.843865 -1.12374e-19)
(0.657483 0.783457 2.25946e-19)
(0.573375 0.719843 -1.2826e-18)
(0.505187 0.658704 -1.24511e-18)
(0.442982 0.589337 -2.14713e-19)
(0.404229 0.502492 0)
(0.376147 0.422615 -1.12708e-20)
(0.335713 0.258813 7.6628e-19)
(0.291107 0.0958353 -1.30885e-18)
(0.250532 -0.0497805 1.00057e-18)
(0.0797662 -0.0930146 8.41402e-19)
(0.428017 0.392398 -6.53988e-20)
(0.933546 0.829203 -3.77464e-20)
(1.12621 1.02653 6.67632e-21)
(1.1555 1.06103 -1.38294e-20)
(1.11604 1.05822 0)
(1.05905 1.02807 -4.15437e-19)
(0.992994 0.997246 -5.13465e-19)
(0.919229 0.960984 2.35211e-20)
(0.835217 0.918977 -8.83789e-19)
(0.738866 0.869371 -1.10616e-19)
(0.637077 0.812228 1.02741e-19)
(0.544888 0.75152 1.12471e-18)
(0.469159 0.683591 1.21583e-18)
(0.418788 0.610281 2.08215e-19)
(0.370322 0.536259 1.04719e-18)
(0.306622 0.406064 0)
(0.200505 0.250155 0)
(0.030354 0.253589 8.96818e-19)
(-0.0718262 0.628895 -3.29269e-20)
(0.00250206 1.51603 -1.07369e-18)
(0.42661 0.403559 3.98534e-20)
(0.92685 0.849932 6.39229e-20)
(1.11602 1.05048 -3.07815e-21)
(1.14452 1.08609 -9.07523e-20)
(1.10483 1.08318 5.02883e-20)
(1.04786 1.05267 -4.29761e-19)
(0.981773 1.02166 0)
(0.907848 0.985363 -9.20904e-19)
(0.823095 0.943818 0)
(0.725809 0.894704 1.62876e-18)
(0.624071 0.836193 -1.18663e-19)
(0.532308 0.775662 1.33052e-19)
(0.452126 0.716791 1.38477e-18)
(0.365938 0.650118 -4.44198e-19)
(0.279935 0.547761 -5.3207e-19)
(0.208746 0.467283 0)
(0.103234 0.559867 0)
(0.0332737 1.27688 0)
(0.0762663 2.43969 -5.121e-19)
(0.105942 2.89925 -3.11825e-19)
(0.425234 0.414203 0)
(0.920905 0.870268 0)
(1.10636 1.07359 7.603e-21)
(1.13387 1.10987 8.53343e-20)
(1.09386 1.10666 -1.44351e-19)
(1.03697 1.07592 4.07635e-19)
(0.970873 1.04507 6.33367e-20)
(0.896737 1.00902 -4.93137e-20)
(0.811502 0.967985 1.21283e-19)
(0.712498 0.919803 -1.87053e-18)
(0.606198 0.86656 2.21508e-19)
(0.505032 0.811867 1.12199e-18)
(0.41262 0.750816 -1.38392e-18)
(0.342078 0.675512 -1.48006e-18)
(0.272665 0.612383 4.96136e-19)
(0.203864 0.734162 0)
(0.137825 1.51137 6.93755e-19)
(0.135819 2.67715 7.83138e-19)
(0.143069 3.08231 -8.76323e-19)
(0.133742 3.21955 9.56904e-19)
(0.423519 0.424194 0)
(0.914638 0.888485 1.02276e-19)
(1.09685 1.09478 6.25239e-22)
(1.12368 1.13223 -5.13373e-20)
(1.08347 1.12916 1.5152e-19)
(1.02662 1.09837 0)
(0.960509 1.06763 0)
(0.886271 1.03196 0)
(0.800523 0.991829 7.50202e-19)
(0.70098 0.945681 9.25553e-20)
(0.594185 0.891787 0)
(0.493715 0.836211 -1.12094e-18)
(0.406918 0.787186 0)
(0.29416 0.731039 1.06178e-18)
(0.213096 0.806783 -7.13055e-19)
(0.167871 1.4496 -5.71154e-19)
(0.171451 2.66674 -1.35093e-18)
(0.191463 3.12605 -7.23173e-19)
(0.181875 3.27024 -1.03109e-18)
(0.16685 3.31102 8.20936e-19)
(0.421932 0.433508 -4.19305e-20)
(0.909098 0.906411 1.53397e-20)
(1.08787 1.11529 -2.47135e-21)
(1.11383 1.15344 5.5296e-20)
(1.07331 1.1503 0)
(1.01656 1.11957 0)
(0.950421 1.08929 0)
(0.876059 1.05418 6.35339e-20)
(0.790108 1.01517 -9.42335e-19)
(0.689483 0.970311 0)
(0.579406 0.92175 0)
(0.473963 0.876895 0)
(0.364677 0.828569 0)
(0.309639 0.818453 7.84725e-19)
(0.281795 1.18202 1.90976e-18)
(0.26726 2.34995 5.64837e-19)
(0.278043 3.08169 1.17238e-18)
(0.27121 3.28886 -9.24684e-19)
(0.220937 3.35627 3.46474e-19)
(0.187143 3.36883 0)
(0.420055 0.442353 4.62819e-20)
(0.903007 0.922721 -2.60103e-19)
(1.0788 1.13454 -5.28709e-20)
(1.10422 1.17394 -4.39815e-21)
(1.06354 1.17114 -4.13662e-20)
(1.00687 1.14059 4.25028e-19)
(0.940798 1.11064 -4.20809e-20)
(0.866495 1.07624 -8.52101e-19)
(0.780311 1.03843 0)
(0.679271 0.996342 -1.08145e-19)
(0.56893 0.949219 9.83783e-20)
(0.462182 0.900887 0)
(0.377373 0.869536 0)
(0.321249 0.995415 -9.81872e-19)
(0.289236 1.84149 1.3941e-19)
(0.285099 2.93354 -4.46303e-19)
(0.304248 3.29364 9.5377e-19)
(0.277453 3.39487 7.36096e-19)
(0.209963 3.42022 -1.08436e-18)
(0.184214 3.42897 5.42228e-19)
(0.418006 0.451301 1.00157e-19)
(0.897087 0.940393 2.7388e-19)
(1.06948 1.1549 5.4953e-20)
(1.09412 1.19493 0)
(1.05321 1.19209 0)
(0.996743 1.16165 -3.2346e-19)
(0.93078 1.13227 3.66348e-19)
(0.856617 1.09851 7.67041e-19)
(0.770521 1.06203 4.38127e-20)
(0.669022 1.0214 1.48072e-18)
(0.55787 0.97921 -1.59984e-18)
(0.449469 0.943692 0)
(0.370617 0.952325 0)
(0.347691 1.34783 -6.90559e-19)
(0.351949 2.45721 -8.18388e-19)
(0.393039 3.19931 0)
(0.418802 3.37961 -1.07091e-18)
(0.348717 3.44421 -1.62292e-20)
(0.275446 3.48842 6.90609e-19)
(0.251365 3.51429 -2.78124e-19)
(0.415261 0.460671 -1.96888e-19)
(0.889762 0.957699 -1.36293e-19)
(1.05908 1.17551 0)
(1.08333 1.21679 0)
(1.04243 1.21425 0)
(0.986203 1.18384 0)
(0.920564 1.15464 -4.02927e-19)
(0.846734 1.1215 7.66455e-19)
(0.760835 1.08619 0)
(0.659957 1.04874 -1.35229e-18)
(0.548692 1.00962 2.89182e-18)
(0.443751 0.975288 1.14635e-19)
(0.387122 1.05697 1.44558e-19)
(0.394958 1.72781 1.14269e-18)
(0.41803 2.88484 -6.38798e-19)
(0.455974 3.32729 0)
(0.437918 3.45653 3.17598e-19)
(0.349645 3.54463 9.67526e-20)
(0.26809 3.61204 8.43279e-20)
(0.192381 3.59185 1.10132e-19)
(0.412275 0.470223 9.66313e-20)
(0.882376 0.977301 -1.58781e-19)
(1.04802 1.198 0)
(1.07158 1.2396 2.8928e-21)
(1.03057 1.2368 -4.97649e-20)
(0.974755 1.20628 0)
(0.909477 1.17748 0)
(0.836213 1.14484 -1.369e-18)
(0.750938 1.11067 -9.6682e-20)
(0.649916 1.0744 1.38443e-18)
(0.538075 1.03864 -1.38737e-18)
(0.45066 1.02915 7.79162e-19)
(0.417939 1.24528 0)
(0.446027 2.16233 -6.13904e-19)
(0.48708 3.143 3.89784e-19)
(0.545965 3.43486 2.85605e-19)
(0.539597 3.53505 0)
(0.472592 3.62456 1.7228e-20)