/*--------------------------------*- C++ -*----------------------------------*\
| =========                 |                                                 |
| \\      /  F ield         | OpenFOAM: The Open Source CFD Toolbox           |
|  \\    /   O peration     | Version:  4.0                                   |
|   \\  /    A nd           | Web:      www.OpenFOAM.org                      |
|    \\/     M anipulation  |                                                 |
\*---------------------------------------------------------------------------*/
FoamFile
{
    version     2.0;
    format      ascii;
    class       surfaceScalarField;
    location    "1";
    object      phi;
}
// * * * * * * * * * * * * * * * * * * * * * * * * * * * * * * * * * * * * * //

dimensions      [0 3 -1 0 0 0 0];

internalField   nonuniform List<scalar> 
1300
(
3.75095
5.62643
-7.08754
3.75095
-6.37262
5.62643
-6.42152
6.42152
-1.43604
1.43604
1.88804
1.86292
-5.83115
5.83115
-5.67673
5.67673
-3.0751
3.0751
-5.40494
5.40494
-5.25425
5.25425
3.93717
-3.93717
-5.33932
5.33932
-2.13427
2.13427
-6.44631
6.44631
3.20819
-3.20819
-5.65561
5.65561
-1.72058
1.72058
-0.453516
4.20447
3.29744
3.29744
-2.7532
2.7532
-5.41292
5.41292
6.14267
-6.14267
9.92857
-9.92857
-2.84103
-3.24997
1.24538
-8.00981
-5.12724
-5.12724
-8.48429
8.48429
-2.85786
2.76857
3.21425
-3.21425
-2.64716
2.64716
-6.16767
-0.253845
-6.16767
6.57741
-0.155889
6.57741
-1.64509
0.209053
-1.64509
4.78694
-4.78694
1.2254
0.210633
1.2254
3.2103
-3.2103
-1.88645
3.77449
1.8645
-1.84585
6.05032
-1.90511
3.76802
-4.92483
4.92483
-5.99403
0.162879
-5.99403
5.87289
-0.0417324
5.87289
-5.55962
5.55962
-5.6997
0.0229718
-5.6997
5.58028
0.0964461
5.58028
3.31006
-3.31006
-3.13456
0.0594652
-3.13456
3.08182
-0.00672093
3.08182
0.25854
5.36789
-5.88497
8.65354
-5.36789
-0.0370473
5.35276
0.052177
5.35276
-5.23049
-0.0237633
-5.23049
5.18145
0.0727971
5.18145
3.74345
0.193723
3.74345
-4.24422
0.307051
-4.24422
-3.17357
-3.29007
-5.42258
0.0832584
-5.42258
-2.20244
0.0681676
-2.20244
2.07088
0.0633861
2.07088
-3.97428
3.97428
-6.66047
0.214166
-6.66047
3.16482
0.0433687
3.16482
1.88461
1.86635
5.63556
-5.63556
2.42737
-5.68454
0.0289268
-5.68454
-5.70956
-4.21902
5.70956
-0.0539405
-1.05993
-0.660657
-1.05993
3.27168
0.0257574
3.27168
2.9415
0.140323
-2.9415
0.188299
3.70208
-3.70208
2.22352
0.529678
2.22352
-5.5278
5.5278
5.2511
-0.0696427
-5.2511
-0.161822
6.11373
0.0289356
6.11373
-6.11339
-0.0292811
-6.11339
3.27816
-6.52813
-3.32443
5.21908
0.120244
-5.21908
0.0918374
3.22796
-0.0137083
3.22796
-3.19561
3.19561
-3.19118
-0.0230693
-3.19118
-2.51911
-0.128057
-2.51911
2.71608
-0.0689188
2.71608
-5.69723
-0.470442
-5.69723
-6.66894
0.00846152
6.66894
-0.0915286
3.07245
-3.07245
-1.77749
0.132399
-1.77749
-5.18449
-0.512739
5.18449
-0.397548
-4.59023
-0.196716
-4.59023
-3.22758
0.0363996
3.22758
-0.0172807
3.16582
0.105861
-3.16582
-0.0444843
-1.87256
3.73891
-1.87839
3.74289
-4.71305
-0.211778
-4.71305
5.17078
-0.245946
5.17078
6.32985
0.116459
-6.32985
0.335816
5.69564
0.177249
5.69564
-5.49984
-0.0597851
-5.49984
5.60367
-0.0440438
5.60367
5.63714
0.0584973
-5.63714
-0.0625596
5.74483
-0.164544
5.74483
3.33726
-0.0272034
3.33726
-3.22083
-0.0892266
-3.22083
3.17105
-3.17105
3.07276
0.0982952
-3.07276
-0.0618072
-11.1564
11.1271
-0.11685
-11.0396
5.23591
5.23591
3.11096
0.632493
3.11096
-4.6762
0.431978
-4.6762
3.29579
-6.62022
3.22867
-6.40224
3.1784
-11.1882
3.42867
-6.71874
5.56276
-5.56276
5.3988
0.16396
-5.3988
-0.0237772
-2.19815
-0.00428356
-2.19815
-3.75228
-0.222003
-3.75228
4.3272
-0.352924
4.3272
-3.22313
3.22313
-3.17512
-0.0480106
3.17512
-0.010297
5.63955
0.105278
-5.63955
-0.0449936
1.06729
0.158117
-1.06729
0.00736269
3.87088
-0.168801
3.87088
-3.51045
-0.191632
-3.51045
-2.18087
-0.0172839
2.18087
0.0426485
-5.86893
0.341127
-5.86893
-11.0963
0.0567099
-11.0441
-6.05668
-6.05668
2.42761
11.0812
-3.2211
0.000264246
3.2211
0.00686534
3.12586
0.0972693
-3.12586
-0.0697421
-3.17947
0.00841975
3.17947
0.0161335
-2.38417
-0.134932
-2.38417
-2.88551
2.88551
-2.83827
-0.0472446
2.83827
-0.122185
3.21612
-0.143669
3.21612
1.96798
0.102904
-1.96798
0.19049
-4.18156
-0.408662
-4.18156
5.26105
-0.090272
5.26105
-3.40174
-0.108715
3.40174
-0.0644746
-0.022978
11.1501
-5.21293
-0.0175543
5.21293
-11.1791
11.1615
-2.5148
0.130623
2.5148
0.596159
5.11198
0.415822
-5.11198
0.435779
5.51244
0.0912291
-5.51244
-0.0503238
-3.55041
-0.201865
-3.55041
-4.53234
-0.180715
4.53234
-0.205133
-11.3111
-0.144225
11.4553
-11.2383
6.01315
0.100578
-6.01315
11.2621
-2.917
-0.155455
2.917
-0.0314861
3.31893
-0.10281
3.31893
4.11401
-0.243127
-4.11401
-0.0675538
-5.41051
-0.0893308
5.41051
-0.14946
-3.49883
-0.0515787
3.49883
-0.179902
-4.14577
4.17153
1.90454
-3.31727
-3.21085
-7.53629
1.79026
1.94865
4.21763
-7.06705
-4.12116
-6.97522
6.81947
-6.38369
-6.71984
6.91357
7.6533
-7.85001
-5.79042
5.78013
6.30352
-6.3208
1.84883
1.92565
10.7787
-10.6158
-10.1011
9.88932
10.0809
-10.058
10.4065
-10.4663
-11.9532
12.0445
-5.58734
5.6468
-6.56624
6.47701
-6.63433
6.56986
-3.20786
-3.19438
8.81953
-8.73627
11.5633
-11.5343
-11.1897
11.4039
3.26785
0.903681
3.37371
-1.92334
3.77218
-1.84468
3.74923
3.29562
-6.50348
3.32459
-6.53545
5.92937
5.63389
-5.87543
-1.66086
-5.80853
5.79482
-5.72529
5.74142
10.9836
-11.2375
-1.83556
3.76121
-1.90733
3.85598
-3.38947
-2.40096
3.3461
0.871529
5.49048
3.32905
-5.61072
-1.36449
-7.54993
7.3068
-7.68186
7.49023
0.0205069
5.57663
-5.59713
5.43342
-1.86816
7.44479
4.9513
5.38328
5.65227
-5.23645
0.731415
-6.32855
-6.49037
-2.33888
2.47128
2.13502
-1.92438
6.55094
1.10235
6.1534
-5.27268
-2.57734
-5.68134
3.81871
1.96141
3.7707
4.02241
2.28111
4.05881
2.9794
-3.06399
0.0845896
-3.02378
6.00318
0.697222
-5.42473
-4.5532
6.94318
3.83551
6.90145
-7.35848
-3.25733
-7.02266
-6.1417
-3.9594
-6.32242
6.59802
3.29131
6.35207
-7.72184
7.57238
6.63418
3.44675
6.73063
-6.61404
-3.44392
-6.67659
10.2955
-2.8944
-7.40106
-6.96972
-4.98351
7.01376
3.39271
7.42243
4.62202
7.37211
3.60425
6.69121
-6.99696
2.01346
-3.72601
-1.86133
-3.78781
3.5731
2.0737
3.56638
-4.23026
-2.33598
-4.22999
-4.1806
-2.45373
4.20781
2.2692
-4.25993
-3.42194
4.36864
2.20122
3.23764
-7.3588
3.4811
-6.67547
-6.19235
-2.54393
-6.21613
4.00629
2.65452
-6.66081
-2.49719
10.6935
-5.05961
9.03264
-7.1965
-4.33784
-7.24149
-8.82885
-2.36087
-8.82039
-5.16427
4.96241
-5.63757
5.28464
10.5404
-5.91235
-4.62804
-4.00513
-2.31566
4.04962
-0.675909
-3.6339
3.71849
0.138273
3.8875
4.79118
4.11527
-3.78253
-1.94276
-3.85227
3.76207
1.97935
3.77049
8.53538
2.44824
8.37949
-7.57408
-3.66339
-8.04452
5.51547
-5.64353
2.94897
-2.96626
5.1164
2.37384
-4.9476
-2.60233
5.85735
-3.05115
-2.8062
-12.3033
7.89524
4.40806
-4.85851
0.574918
2.2955
-4.62122
-2.09862
4.31417
1.06911
8.96435
6.86573
-5.25725
5.59838
6.19809
6.12844
-0.361926
3.8655
-3.73488
5.92954
-0.911843
-5.0177
5.78305
-6.29578
-2.26148
-5.95049
3.68901
-0.142388
0.0840967
-0.744754
-1.94431
-0.394577
-1.75382
1.17612
0.958898
1.33423
1.01524
1.45604
-2.50686
0.259284
2.24758
-1.49163
-1.6651
-3.95997
-0.23333
4.1933
5.50087
1.80593
-5.43331
-0.248025
2.65238
-2.589
-1.52553
-2.43444
1.23029
-2.75583
-3.07568
-2.15136
5.22703
-3.31858
-0.533688
3.22131
0.549389
-3.78468
-2.02385
3.80775
0.251061
-2.91573
5.96459
-3.04885
-4.85849
2.5286
3.47458
4.49001
-4.62743
2.31056
2.31687
-1.15285
5.82413
1.07731
6.00138
-8.96464
5.70731
7.82013
3.58376
-7.93659
0.913924
-8.05072
9.3517
-8.36264
-0.989068
4.81075
4.54096
5.31034
5.23005
-3.36627
8.67661
-1.23198
-7.13065
9.2827
-5.69893
5.4457
-11.1446
-10.6758
3.5451
-6.73542
8.38866
-1.65324
-2.37342
-5.34843
9.10884
-0.913374
-8.19546
5.4387
-5.0772
-5.41693
10.4941
-7.9716
8.86086
-2.57676
-6.2841
-6.53473
-3.93152
6.62406
0.948322
-9.6443
11.6578
-2.9531
5.84031
0.890316
5.67576
3.94969
-5.94529
1.9956
4.02191
-6.59867
2.37297
-8.31826
-4.74455
9.4152
-4.67064
-7.28848
-6.6388
-0.649682
1.98642
9.67134
-6.60844
5.31885
1.28959
3.20862
0.561875
-3.30691
-0.480899
0.312495
4.45257
-4.76507
3.87887
4.0192
3.48976
0.962817
3.77219
2.02263
-3.77906
-0.450937
-3.844
1.39026
-1.57479
-3.45118
4.84144
-3.93229
0.48111
-2.59832
-3.39326
5.99158
-4.45965
2.84824
3.11635
4.82758
-4.75063
1.35737
-2.35629
-2.39434
2.57491
-4.1497
1.83855
3.00289
4.03977
0.617833
4.61112
4.80408
-7.26564
0.590164
8.13313
-6.76864
1.5676
5.80451
-6.88645
0.247657
-5.96847
1.13295
-6.19256
-5.52786
6.41391
-8.77479
-4.73072
8.1248
0.254692
-8.03327
-0.787116
-3.6896
-1.47468
-3.74118
-1.90541
-3.73215
-5.27168
-1.00825
-4.26343
3.95415
-4.22859
-2.09383
4.43372
0.850918
-4.45888
4.30343
-4.44754
4.34473
0.140817
3.57767
4.25609
1.94043
-2.42482
4.36525
-6.61454
9.06278
-10.6754
4.06088
4.4182
-8.08158
-6.25723
3.40024
2.11524
3.33132
5.57957
-6.95136
1.3718
-6.28708
7.25206
-0.964978
-9.79655
3.50947
-4.21698
2.6072
0.341775
2.60292
0.697692
2.25217
-2.94986
-2.26857
-2.22592
-2.20077
-3.25838
5.45915
0.911916
-3.19965
2.28773
-3.31839
4.2303
-0.130174
-3.06947
4.91106
-2.65889
5.25283
-3.44856
1.80427
3.19847
5.27024
-2.07177
4.09684
-1.72301
1.76387
-3.83565
-1.49451
-2.89726
4.97096
-3.09432
3.57543
-0.205888
3.78132
-3.9809
0.929749
-0.491143
3.52805
3.71635
3.97578
-3.01296
2.66607
-4.38908
-1.16958
-3.77125
-0.768358
-0.833254
-5.0553
5.88855
4.83752
-5.67077
-2.78758
5.54407
-2.75649
4.70054
-3.32586
-1.37468
-2.80541
-2.83812
2.94034
0.925161
5.6257
0.299915
-3.62578
-3.43496
-2.8388
4.70821
1.22133
-0.91061
5.31867
-1.38489
1.46899
0.529436
0.804798
1.134
-0.604565
-0.0674073
1.20141
-0.812161
1.88577
0.766612
-1.98868
0.23486
-1.7422
2.97249
0.505384
-1.46428
0.859717
2.32909
-3.24094
4.77729
-1.54526
-3.23203
7.10638
1.83925
-3.38451
4.11124
-4.25363
2.78694
-3.02027
-0.59757
-4.8512
-3.74885
-2.15293
4.44066
-3.30622
5.11216
1.36499
-4.86413
6.22912
-3.47111
1.31975
-2.64555
3.41216
-0.759196
-1.88636
2.48172
2.74531
-2.80647
0.372026
-0.324744
1.97219
-2.29694
-0.783635
-2.27526
-4.45416
4.70523
-2.19219
4.50275
2.17306
-1.96409
6.46684
1.76106
-3.72515
-3.09743
-3.63112
-1.40829
3.08173
-0.744784
-5.93181
-7.02888
5.87331
0.128068
-8.97764
10.0492
-1.07156
-5.14213
-0.565176
5.37592
-7.24631
0.647636
-4.87334
5.17587
6.25318
6.38125
-8.06491
-0.13055
-4.77361
1.25673
-6.03034
5.79769
-2.76464
6.30974
-6.76289
4.66906
-5.91198
5.32067
-0.709667
5.25391
-3.2583
2.14715
-6.07867
-5.13035
6.9616
-3.51485
7.85192
-4.02618
11.8781
-6.97928
7.02287
4.85523
-1.28531
-5.95618
-6.84773
5.56242
0.175139
5.8509
4.88244
-2.85981
4.4315
2.05418
-4.41047
-2.09552
-6.3559
1.94543
-3.23955
-1.69841
3.64385
3.12917
3.69105
1.2495
-3.21015
6.61778
-7.26746
-1.94714
-3.58072
6.80835
-1.24592
3.72205
-7.30277
-2.47051
5.16655
-0.531256
-4.63529
0.745806
-5.47653
2.51411
-7.99065
6.26067
-7.04779
1.22439
-5.44138
-3.23449
-3.26597
-1.28241
-3.16513
-4.50409
3.22169
-0.994623
3.3088
-5.40875
4.8775
-1.8433
5.06499
-3.32795
-0.413228
3.50785
0.83688
5.90187
-0.37853
-5.8787
-1.54332
5.66144
-4.11811
3.16489
-5.43383
0.227612
3.48692
3.61947
-7.17593
-0.905657
-6.78436
-2.37678
4.49202
3.16729
8.00481
1.05344
4.9947
-0.502686
6.04815
2.82863
2.70645
-3.80456
5.17636
2.08399
6.14487
-0.816268
2.62054
1.78665
1.85482
0.734183
2.22452
1.49183
3.15427
0.20441
-2.02151
3.10605
-5.94485
-0.519729
-5.31236
1.60121
3.98885
-2.38764
4.71062
-3.48929
0.592503
2.63103
-1.83627
-0.794754
-2.38667
-0.367287
0.834121
-1.04879
1.9085
1.9237
-2.74262
0.355956
-0.0646506
-3.6842
3.08492
-2.7129
0.0324158
6.26153
-2.35405
0.057113
-1.0343
-2.21815
-2.61272
2.37786
6.05279
0.414059
3.00393
5.11928
3.09544
0.235623
4.23619
-5.88943
-4.08207
-6.01998
-0.222291
5.15363
1.73295
7.93838
6.58818
5.34226
-1.96051
-9.22797
7.30933
-2.13297
6.34435
-1.70906
-6.28159
6.49831
2.56448
-6.753
-0.294792
-6.57638
-8.70935
-0.325921
5.20342
-5.57595
5.16272
3.68805
0.57538
-2.77063
-0.495338
2.81788
-0.111431
5.93672
-1.0979
-5.51271
6.61061
-2.89095
2.37122
4.96568
0.352989
4.17092
0.681631
-4.83108
-7.21872
-1.14648
-2.09445
-4.37851
-0.185207
-1.7385
3.93495
-1.56373
2.56027
5.04688
5.63938
-1.59854
-4.07223
4.35503
-1.79477
3.84462
)
;

boundaryField
{
    wall-4
    {
        type            calculated;
        value           uniform 0;
    }
    velocity-inlet-5
    {
        type            calculated;
        value           uniform -3.75095;
    }
    velocity-inlet-6
    {
        type            calculated;
        value           uniform -5.62643;
    }
    pressure-outlet-7
    {
        type            calculated;
        value           nonuniform List<scalar> 8(7.08754 6.37262 6.091 6.76443 6.46363 6.60258 6.52446 6.60707);
    }
    wall-8
    {
        type            calculated;
        value           uniform 0;
    }
    frontAndBackPlanes
    {
        type            empty;
        value           nonuniform 0();
    }
}


// ************************************************************************* //
