/*--------------------------------*- C++ -*----------------------------------*\
| =========                 |                                                 |
| \\      /  F ield         | OpenFOAM: The Open Source CFD Toolbox           |
|  \\    /   O peration     | Version:  4.0                                   |
|   \\  /    A nd           | Web:      www.OpenFOAM.org                      |
|    \\/     M anipulation  |                                                 |
\*---------------------------------------------------------------------------*/
FoamFile
{
    version     2.0;
    format      ascii;
    class       volVectorField;
    location    "1";
    object      U;
}
// * * * * * * * * * * * * * * * * * * * * * * * * * * * * * * * * * * * * * //

dimensions      [0 1 -1 0 0 0 0];

internalField   nonuniform List<vector> 
918
(
(0.82153 -0.191723 0)
(0.0219159 2.97228 0)
(-0.21668 1.78693 0)
(0.688637 0.196231 0)
(0.0440386 1.72492 -1.05271e-19)
(-0.0860061 2.87389 -1.41617e-18)
(1.13659 1.76188 2.75256e-19)
(0.476426 0.284507 -2.81366e-20)
(0.887192 -0.00195959 0)
(0.0417864 1.7773 0)
(0.0168702 1.74172 0)
(0.941137 0.0123521 0)
(-0.0631186 3.05874 0)
(0.0292338 2.92697 0)
(-0.0882818 2.71486 1.67429e-19)
(-0.0235278 1.71761 -9.85416e-20)
(0.689439 0.161369 2.28857e-18)
(0.236941 2.05279 2.59419e-19)
(0.980634 0.0334056 0)
(0.0398869 1.72913 0)
(0.742868 0.128913 8.40842e-20)
(0.682216 -0.0571847 0)
(0.856271 0.000852234 0)
(1.05482 0.0540475 0)
(0.850345 0.0589119 0)
(0.0378468 2.98682 0)
(-0.0362417 2.86183 4.47531e-19)
(-0.195422 1.74731 0)
(-0.0489199 1.66463 0)
(-0.240146 1.73419 0)
(0.0483291 1.73923 0)
(-0.0669389 1.68816 8.28307e-20)
(-0.0329752 1.71764 0)
(-0.0539537 3.02651 -4.08509e-23)
(-0.00750942 2.97918 1.19658e-18)
(0.0221346 3.01158 0)
(0.9821 -0.00519569 0)
(0.81807 1.27469 5.76375e-19)
(1.16796 1.67602 2.28934e-20)
(1.26463 1.55354 8.39462e-20)
(0.972374 1.87203 -6.67944e-20)
(0.932295 1.94029 4.59362e-19)
(0.526155 0.302453 2.69104e-20)
(0.535991 0.281407 0)
(1.37084 0.785906 0)
(0.462641 0.31692 1.13878e-19)
(0.417395 0.286128 -1.18195e-19)
(0.982345 -0.0164081 0)
(1.00719 -0.000316028 0)
(0.891365 -0.0027779 0)
(0.939252 -0.0846623 0)
(0.970539 -0.00302592 0)
(0.929807 0.0176296 0)
(-0.00259567 1.60401 -1.05578e-18)
(0.0344273 1.83071 0)
(0.0271612 1.83051 0)
(-0.0202382 1.79798 0)
(-0.0139952 1.80153 0)
(-0.0148786 1.71974 0)
(0.0285205 1.76183 0)
(0.0112194 1.74591 0)
(-0.00131069 1.74225 0)
(-0.00890258 1.70579 0)
(1.00895 -0.00254756 0)
(0.965272 0.0266367 0)
(0.958432 0.00344587 0)
(0.94944 -0.00751067 0)
(0.942746 -0.00219085 0)
(-0.00510625 2.9729 4.58237e-19)
(0.0284701 2.92085 0)
(-0.035773 2.94967 0)
(-0.0707143 3.08703 2.46144e-24)
(-0.0930678 2.94416 -7.54475e-19)
(-0.0149339 3.06783 0)
(0.028853 2.97804 0)
(0.0202962 2.9852 6.0325e-25)
(0.0249987 2.92025 0)
(0.078689 2.98414 0)
(0.0919603 2.90026 0)
(0.139037 2.85302 0)
(-0.117301 2.88664 0)
(-0.00535837 2.76593 -1.55573e-19)
(-0.123968 2.65603 0)
(-0.00272957 1.73014 0)
(-0.0237179 1.74184 9.72202e-20)
(0.0069838 1.71532 -1.16758e-19)
(0.7235 0.165394 -7.83786e-19)
(0.729056 0.148446 -7.60687e-19)
(0.69158 0.221231 -2.36094e-18)
(0.660206 0.203835 -1.506e-18)
(0.201129 1.39474 0)
(0.355876 2.11292 -2.97921e-19)
(0.465871 2.10045 5.30077e-19)
(0.987602 -0.00431772 0)
(0.970097 -0.00174841 0)
(0.895186 -0.0157967 0)
(1.01695 0.0303349 0)
(0.951011 0.0739807 -8.10279e-18)
(1.02277 0.114957 6.02498e-18)
(0.0288296 1.76661 0)
(0.00799586 1.73579 0)
(0.0228439 1.7088 0)
(-0.024131 1.74339 0)
(-0.0234589 1.75198 0)
(0.815466 0.155759 5.42717e-20)
(0.379494 0.354099 0)
(1.03653 0.0220193 0)
(0.996074 -0.0051861 0)
(0.94053 0.0285741 0)
(0.888644 0.095818 0)
(0.892963 0.0200271 0)
(1.1383 -0.0164466 0)
(0.837995 0.0351127 0)
(0.817285 0.0281081 3.59719e-18)
(-0.058397 2.85531 2.57153e-19)
(-0.026433 2.96882 0)
(-0.0493972 3.06313 0)
(-0.00635039 2.91946 0)
(-0.00750366 2.94261 3.79527e-19)
(0.0405968 2.87639 0)
(-0.0257636 2.95021 -1.26392e-18)
(-0.113933 2.88567 4.43283e-19)
(0.0419881 1.73579 0)
(-0.00825701 1.74861 0)
(-0.0084772 1.7262 -3.83791e-21)
(-0.0500949 1.74067 0)
(0.0249728 1.70065 0)
(1.00116 0.00225242 0)
(0.986788 -0.0161209 0)
(0.974602 -0.00468874 0)
(0.996223 -0.00266675 0)
(0.975148 0.0175142 0)
(0.908317 1.32904 -7.19479e-19)
(0.883322 1.23058 0)
(0.820157 1.33335 9.1668e-20)
(0.781838 1.24777 0)
(1.2136 1.43664 9.83612e-21)
(1.36414 1.26128 -1.27286e-19)
(0.570916 2.11102 0)
(0.791121 2.01609 0)
(0.712745 2.05185 0)
(0.533749 1.26429 -5.5551e-19)
(0.563 0.305624 0)
(0.56869 0.250353 4.02296e-19)
(1.2338 1.21012 0)
(1.26921 0.952535 0)
(1.37697 1.01437 3.17551e-19)
(1.32425 0.753921 0)
(1.38183 0.611807 8.07156e-20)
(0.990044 0.0252475 0)
(0.996009 -0.0134923 0)
(0.989349 -0.00947108 0)
(0.995921 0.00373383 0)
(0.992523 -0.0267116 0)
(0.965702 0.00981076 0)
(0.984783 0.0035416 0)
(0.950201 -0.00190515 0)
(0.897643 0.00860957 0)
(-0.00822148 1.62524 5.46987e-19)
(0.00481874 1.56327 0)
(0.0255288 1.65851 1.05101e-18)
(0.0321298 1.66285 -9.27072e-19)
(0.113943 2.01858 -2.11607e-19)
(0.00901679 1.91434 0)
(0.0315982 1.95235 0)
(-0.00924621 1.80046 0)
(-0.00131571 1.74548 0)
(-0.0294685 1.73474 -3.81085e-21)
(-0.0119648 1.71345 0)
(0.00891215 1.74374 -2.7594e-19)
(0.0191532 1.72838 5.13247e-19)
(0.0288973 1.74991 0)
(0.0248643 1.75565 0)
(0.00585887 1.72168 0)
(0.00132503 1.75133 0)
(-0.00467542 1.75893 0)
(1.03082 0.0172283 0)
(1.01884 0.00617733 0)
(1.01203 0.00131439 0)
(0.982683 -0.00692818 0)
(0.969479 -0.00788728 0)
(0.973992 0.00427642 0)
(0.963181 0.0184668 0)
(0.935798 -0.00142672 0)
(0.0411632 3.07292 -4.05566e-21)
(0.0584226 3.04334 0)
(0.0529056 3.01009 0)
(0.0264736 2.93327 0)
(0.643621 3.05994 0)
(0.914534 2.49143 4.23588e-19)
(-0.0394069 2.80947 0)
(-0.0674585 2.73828 0)
(-0.00816531 1.79845 0)
(-0.0164621 1.68328 0)
(-0.00309857 1.73916 0)
(0.0691131 1.76409 -4.29315e-20)
(0.00402349 1.79492 0)
(0.0508614 1.77347 0)
(0.0318162 1.72615 4.25761e-20)
(0.0200295 1.74857 1.73433e-19)
(-0.00234311 1.72404 1.19537e-19)
(0.0140904 1.6856 0)
(0.752889 0.153352 1.24523e-18)
(0.74642 0.0853128 -1.23002e-18)
(0.212372 1.41643 0)
(0.233962 1.34667 -3.29966e-19)
(0.144384 1.49798 -1.00942e-18)
(0.102177 1.47824 1.00958e-18)
(0.987783 -0.0104318 0)
(0.986504 -0.0242377 0)
(0.985907 0.00187478 0)
(0.967648 0.00996149 0)
(0.00509959 1.76792 0)
(0.027163 1.74782 0)
(0.00754921 1.73013 0)
(0.424982 0.293685 9.57955e-19)
(0.459838 0.263752 -9.08228e-19)
(0.379597 0.289576 0)
(1.18862 0.102918 1.21733e-19)
(1.24288 0.0400895 0)
(1.12443 0.0437905 0)
(1.06927 0.00193625 0)
(0.777268 0.1011 0)
(0.815776 0.0581755 -5.74341e-18)
(0.762364 0.0500346 2.19593e-18)
(-0.030328 2.97351 2.16936e-19)
(0.0505167 2.91294 -1.38932e-20)
(0.0881596 3.01289 -8.60944e-21)
(0.116491 3.02515 1.7994e-19)
(-0.092829 2.96376 1.8677e-20)
(-0.151117 2.91964 -6.04259e-23)
(-0.104994 3.05338 -2.29766e-19)
(0.110887 3.01411 1.64137e-19)
(0.12184 3.06938 -2.08577e-19)
(1.00699 -0.000704985 0)
(0.990873 0.0414816 0)
(0.981976 0.0285017 0)
(0.98676 -0.0111564 0)
(0.978364 -0.00381931 0)
(0.954893 -0.00295304 0)
(0.979441 -0.0136726 0)
(0.993026 0.0139911 0)
(0.971864 0.00842462 0)
(0.966733 1.29099 -6.00958e-19)
(0.889188 1.2731 0)
(0.670682 1.24662 1.65349e-19)
(0.69543 1.33441 1.28223e-18)
(0.776526 1.32902 -7.81107e-19)
(0.728462 1.26369 1.49874e-18)
(0.508337 1.31845 2.7288e-18)
(0.507702 1.27326 5.01433e-19)
(0.661788 0.238425 1.57644e-18)
(0.613859 0.272888 3.96389e-19)
(0.627105 0.23743 7.50697e-19)
(1.28325 0.553503 -6.28678e-19)
(1.33623 0.372963 -7.41979e-19)
(0.000616499 1.69599 4.097e-19)
(0.00324155 1.66767 0)
(1.0741 0.0289641 0)
(1.04951 0.0075627 0)
(1.03503 -0.00476922 0)
(0.0241636 3.08154 0)
(-0.00617838 2.98638 4.18834e-19)
(-4.91027e-05 2.9898 0)
(-0.0120767 2.89971 -4.521e-19)
(-0.00262135 3.07682 9.16821e-20)
(0.0221 3.08137 0)
(0.856881 1.36896 4.71507e-20)
(0.919643 1.82477 -2.70594e-19)
(0.713178 1.47739 -2.20487e-19)
(-0.0486433 2.91555 -2.34628e-19)
(-0.0373496 2.84665 0)
(-0.0675027 2.79716 0)
(-0.0300449 1.7587 -1.59696e-20)
(0.031148 1.72049 -4.3945e-19)
(-0.0469397 1.69669 1.33664e-20)
(0.249369 1.38013 1.05208e-18)
(0.27897 1.31733 -7.11078e-19)
(0.0207392 1.60396 7.7293e-19)
(0.0800133 1.5481 -8.64878e-19)
(0.0594188 1.53305 6.87744e-20)
(-0.0815342 3.09319 -2.30505e-19)
(-0.07617 3.10347 2.93523e-19)
(0.00746082 2.95376 2.37485e-19)
(0.0730699 2.97607 -1.8578e-19)
(0.102467 2.90992 -2.4167e-19)
(0.00405291 3.06612 -6.99e-19)
(-0.0631451 3.05958 7.83806e-19)
(0.534452 1.30756 0)
(0.595627 1.32733 -2.74062e-18)
(0.567974 1.22828 1.21984e-18)
(0.42634 1.35933 1.43731e-18)
(0.42162 1.288 -2.24759e-18)
(1.25511 0.185012 4.45678e-19)
(1.2987 0.366349 0)
(1.32244 0.245329 -3.99953e-19)
(-0.00069573 1.73034 -4.92329e-21)
(-0.0123009 1.70345 0)
(0.0121532 1.6926 0)
(0.299067 1.38295 -3.72812e-19)
(0.359343 1.35526 -8.37144e-19)
(0.380095 1.33242 1.5625e-18)
(0.983522 -0.0490373 0)
(1.05311 -0.0853113 1.49593e-18)
(0.0420671 1.74484 0)
(-0.0235791 1.74188 0)
(1.05673 -0.0171396 5.13448e-20)
(0.911681 -0.0180214 3.18963e-18)
(0.0180447 1.8019 5.66055e-20)
(0.0847278 1.80374 0)
(-0.0711336 2.94451 2.08609e-19)
(-0.0193766 2.57326 0)
(1.1803 0.634834 -4.19896e-19)
(1.03599 -0.0128186 -2.11739e-20)
(1.00631 0.0423773 0)
(0.998504 0.00135213 -4.03475e-21)
(0.0414829 1.90057 0)
(0.133244 1.73589 0)
(-0.0374542 1.78238 0)
(0.0921644 1.79884 2.57831e-19)
(0.00572612 1.79364 1.66383e-19)
(0.997691 -0.00806827 1.39098e-20)
(1.05466 0.075181 0)
(1.08018 0.0447252 0)
(-0.015183 1.71331 0)
(0.0406874 1.76902 0)
(-0.0408117 1.78101 0)
(0.227255 1.9664 6.98379e-20)
(0.981586 -0.0850464 0)
(0.984885 -0.0619852 0)
(0.966971 0.0500175 1.912e-18)
(1.00237 0.0289643 -2.25242e-18)
(1.10891 -0.0542603 0)
(0.004088 1.72636 0)
(0.0153825 1.73332 0)
(-0.00407229 1.75694 0)
(-0.0162352 1.81124 0)
(-0.0531025 1.76592 0)
(0.00192161 1.7142 0)
(1.01524 0.00670229 0)
(1.02838 -0.0153489 -2.71288e-21)
(0.867713 1.69747 -1.126e-20)
(0.971764 -0.0738811 -1.90807e-18)
(1.04722 0.0388847 2.27925e-18)
(1.11083 0.0285682 0)
(0.978457 0.000415289 1.85723e-18)
(1.02031 0.0623115 -2.30111e-18)
(0.995274 0.0292843 0)
(0.0212127 1.78924 0)
(0.0575997 1.76399 1.36079e-19)
(-0.0154117 1.7362 -9.44669e-20)
(1.15904 0.292968 2.50886e-18)
(1.11329 0.0815441 0)
(-0.298415 3.00092 -3.27419e-19)
(-0.0554373 3.1346 -8.02389e-21)
(-0.151246 2.97383 8.46662e-19)
(-0.030066 2.93201 -7.75317e-20)
(-0.0225088 2.89146 0)
(-0.0516249 2.96997 1.14927e-19)
(-0.0899552 3.09415 2.9956e-19)
(-0.0701583 3.01408 -2.08856e-19)
(-0.10472 3.08554 0)
(0.64587 0.281149 0)
(0.494643 0.348234 0)
(1.0819 0.81523 1.22941e-18)
(1.14619 0.935216 -1.54348e-18)
(1.12099 0.580978 0)
(1.12854 0.616599 0)
(1.03073 0.0201862 -3.4709e-18)
(0.98114 0.00157877 4.49164e-18)
(1.03824 -0.0620115 0)
(1.00248 -0.055664 0)
(0.926338 0.0604785 0)
(1.03085 -0.0278397 0)
(1.00592 0.0206626 0)
(0.996429 -0.0473567 0)
(1.01773 -0.096274 0)
(0.960053 0.000945593 0)
(0.0341145 1.88525 0)
(0.00415077 1.81055 0)
(0.118576 1.85092 0)
(0.178702 1.89296 0)
(0.109184 1.6534 0)
(0.0300612 1.66849 -5.47864e-19)
(0.133142 1.72532 0)
(0.058085 1.68391 3.54633e-19)
(0.0898012 1.76458 -3.68203e-19)
(-0.0119782 1.80671 0)
(0.0604745 1.74344 0)
(-0.0445264 1.76405 0)
(-0.0629735 1.75913 0)
(-0.0292331 1.76167 -1.53771e-19)
(-0.0514192 1.74642 3.35733e-19)
(0.067253 1.80503 2.62568e-19)
(0.00663721 1.76528 0)
(0.00911173 1.77882 -4.51272e-19)
(0.00883038 1.73601 -3.37836e-19)
(0.0250592 1.79763 9.40227e-20)
(-0.124939 1.62719 -4.17027e-19)
(0.0795989 1.72994 -3.31055e-19)
(0.988313 -0.0254766 3.13978e-18)
(0.9887 -0.0595699 -4.034e-18)
(0.991504 0.0274793 -3.28035e-18)
(0.915953 0.00556656 4.26929e-18)
(1.04911 0.0501964 0)
(1.03631 0.00068348 0)
(1.03543 0.026857 0)
(1.06374 0.00586297 0)
(1.02186 -0.00843219 0)
(1.08009 0.0657889 0)
(1.07862 0.0316408 0)
(1.04994 0.0261326 0)
(-0.171055 1.70801 -1.05549e-20)
(0.0490546 1.76572 0)
(-0.0519811 1.7322 0)
(0.0395587 1.74427 6.86041e-20)
(0.052141 1.78184 -3.48117e-21)
(0.00991571 1.81741 5.10615e-20)
(-0.0728658 1.7218 -4.99338e-20)
(-0.0539258 1.75908 0)
(-0.0272304 1.77625 0)
(0.0804648 1.73563 0)
(-0.0507601 1.76197 0)
(-0.0693625 1.7912 0)
(0.391045 1.90058 -2.71721e-19)
(0.44326 1.99867 1.90263e-21)
(0.315473 1.47343 -2.49498e-19)
(0.2352 1.5974 6.65296e-19)
(0.317538 1.74215 1.58696e-19)
(1.02867 0.0209646 0)
(0.993656 0.0257522 0)
(1.02441 0.0618907 0)
(0.967196 -0.0446506 0)
(1.00025 -0.013436 0)
(0.928703 0.0451531 0)
(0.982206 0.117371 0)
(1.00341 0.0826487 0)
(0.991316 -0.0312817 3.39263e-18)
(1.00545 -0.0369449 -4.36271e-18)
(1.01815 0.0111366 -3.31136e-18)
(0.978154 0.0221797 4.33159e-18)
(0.859654 1.69997 0)
(0.806365 1.71978 -2.2466e-19)
(0.874038 1.56839 -3.05288e-19)
(0.9748 1.50998 4.09007e-19)
(0.876073 1.5489 2.50543e-18)
(0.85892 0.105204 1.37065e-18)
(1.11992 0.0933779 0)
(1.1513 0.227018 -2.05395e-18)
(1.11842 0.102259 -8.46425e-20)
(0.969682 0.139695 0)
(-0.649908 2.76301 6.48378e-19)
(-0.398805 2.77004 -5.97427e-19)
(-0.368737 3.1338 1.01303e-19)
(-0.373607 1.40924 1.7338e-19)
(-0.10008 2.71778 9.78407e-20)
(0.0208431 2.86855 0)
(0.0738805 2.76228 -1.28961e-19)
(-0.518769 2.75797 -1.6656e-18)
(-0.515316 2.62759 0)
(-0.0566293 3.02563 1.21651e-20)
(-0.080758 3.07847 -2.00403e-19)
(-0.0512385 3.07066 3.3093e-19)
(-0.0471678 3.09625 0)
(-0.0689862 3.01067 0)
(1.0555 1.79174 0)
(0.202709 1.08436 -1.1494e-18)
(1.08955 1.17239 4.76211e-19)
(0.927143 1.41354 0)
(0.797251 1.14891 -4.93082e-19)
(1.02322 1.12083 5.91599e-20)
(0.246516 -0.153922 -7.13815e-19)
(0.642394 0.274975 -1.1347e-20)
(0.628107 0.309809 8.41618e-19)
(0.462532 0.394684 4.85472e-20)
(0.399978 0.326477 -1.8947e-18)
(0.589127 0.391808 0)
(0.60006 0.454575 1.33555e-18)
(0.59197 0.361156 0)
(0.478299 0.371531 0)
(0.514336 0.35212 0)
(0.602338 0.731777 1.1077e-18)
(1.19573 0.250523 -1.99742e-18)
(1.15255 0.440589 0)
(1.20555 0.278691 0)
(0.767304 0.213257 1.31018e-18)
(0.623595 0.661443 -8.63112e-19)
(0.56124 0.528596 1.62318e-18)
(0.833995 0.39983 -1.84991e-18)
(0.992027 -0.00291478 2.35723e-18)
(1.00677 0.106206 -2.40645e-18)
(0.995412 0.0671578 0)
(1.0186 -0.0266427 0)
(1.0064 -0.0423025 -2.21779e-18)
(1.01014 0.0182555 2.19617e-18)
(0.978249 0.0496553 0)
(0.958902 -0.00128201 0)
(1.02665 -0.0151946 0)
(0.982181 -0.0160806 0)
(1.02503 -0.0207201 0)
(0.9805 -0.0453046 0)
(0.0816931 1.80933 0)
(0.112388 1.79459 0)
(0.0781483 1.82862 -3.25942e-19)
(0.235105 1.96145 -8.03603e-20)
(0.232845 1.92023 -2.58298e-19)
(0.159553 1.93815 3.74751e-19)
(0.0115958 1.78939 0)
(0.236594 1.72878 -4.50162e-19)
(0.0705401 1.81815 0)
(0.301264 1.7222 -2.20963e-19)
(0.221988 1.6048 9.01657e-19)
(0.252387 1.73447 3.9721e-19)
(0.186078 1.83641 -1.56619e-19)
(0.123919 1.74082 1.26807e-19)
(0.208204 1.82944 -4.91764e-19)
(0.215185 1.73777 0)
(0.238769 1.71001 3.52364e-19)
(0.0317783 1.69396 -1.70186e-19)
(0.0475077 1.7097 0)
(-0.00343173 1.72337 4.2918e-19)
(-0.034211 1.71183 0)
(0.0194751 1.7106 -3.98913e-19)
(0.00364566 1.68614 0)
(0.0378655 1.7447 -2.14166e-19)
(0.0876787 1.75186 0)
(0.0613941 1.73794 0)
(0.0381024 1.78227 2.56003e-19)
(0.0396359 1.71714 6.19519e-20)
(0.0632432 1.77157 4.46356e-19)
(0.0165763 1.70685 4.18449e-21)
(0.114955 1.67141 9.14842e-20)
(0.0664637 1.63879 8.20801e-20)
(-0.00912263 1.73415 0)
(-0.0979917 1.76912 0)
(-0.0179379 1.7448 3.45007e-19)
(-0.0723158 1.76423 4.42894e-19)
(0.0166578 1.7924 -5.22902e-19)
(-0.000930489 1.76459 0)
(0.0437009 1.72534 -3.57597e-19)
(-0.0690967 1.68788 6.54905e-20)
(-0.0319713 1.80945 -9.50508e-21)
(0.121981 1.83191 -1.06e-19)
(0.0772745 1.63869 -9.79328e-20)
(-0.031267 1.70453 3.83736e-19)
(0.991069 0.0468795 -2.34838e-18)
(0.992473 -0.0673534 2.17386e-18)
(0.986379 0.051025 0)
(0.966391 -0.0545217 3.06126e-18)
(0.910883 0.127235 -3.38685e-18)
(0.943001 0.0539845 3.65655e-18)
(0.964321 -0.0245834 -3.86079e-19)
(1.05292 -0.0724766 0)
(1.02392 -0.0173421 2.16661e-18)
(1.00637 -0.0519475 -2.15573e-18)
(0.967774 0.00388901 -1.21451e-19)
(0.985532 0.066616 1.01884e-18)
(0.962125 0.077953 0)
(0.972744 0.0800735 -3.67796e-19)
(0.983022 0.0425415 0)
(0.967882 0.0577538 0)
(1.02066 0.0816893 0)
(0.969502 0.00847778 0)
(1.02292 0.0683189 7.64781e-19)
(1.03307 0.0253148 -1.73635e-18)
(0.980297 -0.0146541 -8.05111e-19)
(1.00653 -0.000946621 -8.92419e-19)
(1.05493 0.0568778 1.72394e-18)
(1.00494 0.059821 0)
(0.979077 0.0201897 0)
(0.0331436 1.83042 -1.83104e-20)
(0.139091 1.70958 -1.67706e-20)
(0.038667 1.69708 0)
(0.0407398 1.7935 1.90346e-20)
(-0.114688 1.73355 2.73656e-20)
(-0.00527275 1.71435 -3.65222e-20)
(-0.0808309 1.77825 3.11274e-19)
(0.0384144 1.76566 -1.51591e-20)
(0.142928 1.71967 8.24493e-20)
(-0.0436658 1.76823 -1.42334e-19)
(-0.0852397 1.778 1.74162e-19)
(0.0224768 1.71181 -2.07456e-20)
(-0.0173428 1.76209 2.25078e-19)
(0.474461 1.78568 1.87552e-19)
(0.379834 1.7592 5.70009e-19)
(0.758816 1.785 2.17237e-19)
(0.59202 1.9241 -1.82944e-21)
(0.649454 1.93005 0)
(0.279387 1.45644 2.89669e-19)
(0.270508 1.42162 3.60217e-19)
(0.227956 1.49869 5.41592e-20)
(0.354897 1.52963 -1.03845e-18)
(0.363657 1.48629 9.36088e-19)
(0.288838 1.50043 0)
(0.181412 1.47049 -6.04345e-19)
(0.0723457 1.62345 1.39462e-18)
(0.157156 1.637 1.83931e-20)
(0.0334017 1.56904 -1.80934e-18)
(0.636013 1.40914 1.5987e-18)
(0.466558 1.45185 0)
(1.01356 0.0947454 7.33016e-20)
(1.00161 -0.0935472 -6.4307e-20)
(0.966355 -0.110221 -1.15004e-18)
(1.01651 0.00860616 1.12945e-18)
(0.992361 0.0579912 0)
(0.797194 1.5964 0)
(0.785798 1.59251 0)
(0.911192 1.32541 0)
(0.638447 1.40626 0)
(0.865564 1.54425 -3.03338e-21)
(0.830942 1.52445 0)
(0.580952 1.48967 1.33955e-20)
(0.463332 1.49455 0)
(0.568952 1.50041 -1.12907e-18)
(0.560487 1.47527 7.57797e-19)
(0.826515 0.118937 0)
(0.786763 0.11965 3.69996e-19)
(0.888198 0.0982709 2.25286e-18)
(0.844022 0.0912685 -8.03043e-19)
(0.841559 0.116497 -2.55312e-18)
(1.05 0.169481 -2.65152e-18)
(0.806224 0.347166 -6.18254e-20)
(0.877885 0.229517 1.98248e-18)
(0.924936 0.12542 2.00514e-18)
(0.858569 0.179349 -3.09504e-18)
(0.872505 0.260549 3.69208e-19)
(0.744171 0.297872 -9.2339e-19)
(0.826401 0.259085 0)
(0.949042 0.124752 1.48491e-18)
(0.983164 0.187638 0)
(0.968818 0.166091 0)
(1.01467 0.178957 8.62382e-19)
(0.963013 0.274184 -1.49944e-20)
(0.907388 0.144784 -4.88255e-19)
(0.983605 0.130013 0)
(0.9878 0.0581011 1.69203e-18)
(0.968316 -0.0364833 2.08862e-18)
(1.04225 0.0588412 -1.59776e-18)
(0.996302 0.0980141 -1.40971e-18)
(0.941688 -0.0187364 -2.1908e-18)
(0.911 0.187901 0)
(0.95878 0.00858586 0)
(0.907737 0.0913731 -1.30055e-18)
(0.8948 -0.0159079 4.87096e-19)
(1.01155 0.119141 1.91112e-18)
(1.0366 0.111959 -2.44781e-18)
(0.954537 0.117331 2.13644e-18)
(0.922036 0.167237 0)
(0.99618 0.126295 0)
(0.941455 0.0755238 -9.74813e-19)
(0.975983 0.0756051 -1.56466e-18)
(0.643016 1.51973 5.55743e-19)
(0.611349 1.56053 -6.03415e-19)
(0.759051 1.57713 -8.62403e-19)
(0.737192 1.76457 2.18419e-19)
(0.907646 1.60821 -2.13004e-18)
(1.0717 1.76211 5.55029e-19)
(1.07098 1.64261 -5.10811e-20)
(0.872633 1.70632 -9.01887e-19)
(0.814522 1.67115 1.34049e-18)
(0.867829 2.05952 2.54149e-19)
(1.01428 1.98932 -2.46494e-19)
(1.03256 2.00562 0)
(0.387199 1.32643 -1.24371e-19)
(-0.812563 1.74164 4.40202e-19)
(-0.292518 0.253715 5.83348e-19)
(-0.409657 0.602354 -9.20026e-20)
(0.351718 0.372893 1.07165e-18)
(0.298958 0.34765 -1.94004e-18)
(0.263152 0.370242 1.53903e-18)
(0.241533 0.283652 -3.90925e-19)
(0.346701 0.227614 9.82227e-19)
(0.742667 0.281482 -7.73617e-19)
(0.649698 0.324974 0)
(0.664402 0.262897 6.63471e-21)
(0.521853 0.481334 7.2639e-19)
(0.395222 0.530548 -2.62105e-18)
(0.360105 0.422205 -4.96836e-20)
(0.424565 0.394594 0)
(0.461147 1.00151 1.02818e-18)
(0.71784 0.939959 1.15186e-18)
(0.617913 1.08356 -1.34691e-18)
(0.703512 0.950797 -5.11657e-19)
(0.912706 0.92016 -1.67446e-19)
(0.907428 1.05045 1.72068e-19)
(0.722846 0.67299 -1.84116e-18)
(0.76327 0.929433 4.8158e-19)
(0.96229 0.833618 0)
(0.869486 0.769705 -6.74577e-19)
(0.850996 0.323292 6.21992e-19)
(1.00463 0.376635 1.0969e-18)
(1.05601 0.25619 1.06057e-18)
(0.881437 0.424599 -1.22905e-18)
(1.04474 0.362153 0)
(1.01456 0.369354 0)
(0.736779 0.424434 -1.5995e-20)
(0.767921 0.258186 0)
(0.686112 0.291403 9.29478e-19)
(0.883025 0.255508 -2.79041e-20)
(0.865643 0.494154 4.99487e-18)
(0.740655 0.536185 1.39977e-18)
(0.761132 0.501973 -1.32815e-18)
(0.712624 0.408104 1.40471e-18)
(0.661992 0.521661 8.07456e-19)
(0.613207 0.411558 -7.7758e-19)
(0.995172 0.0934084 1.83934e-18)
(0.96214 -0.0798695 0)
(0.988631 -0.0119544 1.2398e-18)
(0.904718 0.0990384 -2.77152e-18)
(1.02838 -0.0244556 1.31617e-18)
(0.970562 0.050943 -2.78889e-18)
(1.03231 -0.00744227 0)
(0.975389 -0.0373537 -5.89092e-19)
(1.00287 0.0662497 1.50203e-18)
(0.964961 0.00733229 -7.87301e-19)
(0.946521 -0.087719 5.61134e-19)
(-0.0603787 1.79058 0)
(0.190896 1.7122 0)
(0.0297611 1.78185 0)
(-0.00316059 1.82644 0)
(0.057482 1.79575 6.13703e-19)
(0.0674711 1.78175 -1.72192e-19)
(0.0722008 1.69231 -1.91877e-19)
(0.140304 1.70203 1.90788e-19)
(-0.0530215 1.74325 -5.45628e-19)
(0.0547145 1.71471 4.02026e-19)
(0.0176523 1.80337 1.8084e-20)
(0.0282261 1.76089 -4.12396e-19)
(0.00184829 1.74974 -6.71407e-20)
(0.141245 1.77752 -6.02047e-20)
(0.012017 1.68833 -4.63857e-19)
(0.0980264 1.68186 0)
(0.116486 1.71361 2.5798e-19)
(0.0139529 1.77948 1.63837e-19)
(0.142068 1.63981 -2.35717e-19)
(0.140965 1.62153 0)
(0.156285 1.58343 -9.83195e-19)
(0.150034 1.60552 7.32136e-19)
(0.176184 1.64298 -6.09669e-19)
(0.189835 1.67021 4.10172e-19)
(0.0129932 1.52167 0)
(0.0461811 1.67238 -3.7963e-19)
(-0.0103462 1.65988 -5.88369e-19)
(-0.0333888 1.64934 0)
(0.0479791 1.80321 1.0151e-20)
(0.0322618 1.76806 1.93907e-19)
(-0.00278527 1.80122 3.54631e-20)
(0.0437852 1.72908 -5.71169e-19)
(-0.00983329 1.74917 1.55284e-19)
(-0.0472433 1.66 2.11732e-19)
(0.0466482 1.79957 0)
(-0.0283681 1.84681 0)
(0.00249056 1.76416 1.89722e-19)
(0.0526349 1.7481 -6.25185e-20)
(-0.0381217 1.80548 0)
(-0.0317761 1.7855 1.30497e-19)
(0.0609398 1.74439 -2.68066e-19)
(0.952451 0.165501 0)
(1.0601 0.120716 -1.99402e-19)
(0.971925 0.0502898 -1.36853e-18)
(0.913114 0.0115207 0)
(0.950454 -0.0819236 0)
(1.05336 -0.0865308 -5.06541e-20)
(0.966886 -0.103527 2.30536e-18)
(0.971419 -0.0117521 2.73411e-18)
(0.986086 0.0015543 0)
(1.00881 -0.00852985 0)
(0.971094 -0.0296491 1.37465e-18)
(0.975056 0.0350281 0)
(0.959565 0.0783548 0)
(-0.0988865 1.8167 0)
(-0.0228071 1.65784 6.02035e-20)
(-0.0353838 1.67737 5.4883e-20)
(0.00471017 1.78268 0)
(0.142689 1.75274 1.36312e-19)
(0.0854554 1.76945 -3.07813e-20)
(0.0238898 1.75011 0)
(0.428485 1.63023 0)
(0.354813 1.56844 -1.04831e-18)
(0.371428 1.55562 0)
(0.45028 1.77361 1.18615e-18)
(0.539875 1.76436 0)
(0.523082 1.78489 -4.61653e-19)
(0.570829 1.51064 -3.52073e-20)
(0.575135 1.42397 -1.94881e-18)
(0.590238 1.42244 2.44716e-18)
(0.469529 1.42097 4.33016e-19)
(0.489835 1.45902 0)
(0.566783 1.48207 0)
(0.63012 1.43006 0)
(0.495957 1.39115 -1.64386e-18)
(0.397889 1.51941 -1.02721e-18)
(0.354793 1.47063 -2.30998e-19)
(0.456478 1.51805 1.80626e-19)
(0.367498 1.46378 0)
(0.469111 1.44916 0)
(0.435608 1.42693 -4.27031e-19)
(0.392984 1.42671 0)
(0.472495 1.49929 0)
(0.535555 1.40852 -1.28502e-18)
(0.446792 1.27118 -8.87057e-20)
(0.718309 1.51159 0)
(0.641666 1.57547 2.06058e-18)
(0.685858 1.28639 -4.29077e-19)
(0.912736 1.1847 0)
(0.760803 1.097 7.34379e-19)
(0.406283 1.48737 0)
(0.44667 1.25857 0)
(0.741083 1.50511 -8.66692e-19)
(0.711023 1.54984 -5.97895e-19)
(0.701628 1.53176 9.94087e-19)
(0.708241 1.54245 -3.18361e-19)
(0.725045 1.46695 0)
(0.690119 1.49072 4.46047e-19)
(0.769607 1.50198 -7.07408e-19)
(0.765903 1.45588 -1.88153e-20)
(0.579402 1.52468 0)
(0.578579 1.57611 -4.87515e-19)
(0.636066 1.53843 0)
(0.808255 0.171801 0)
(0.804178 0.182531 0)
(0.729603 0.20639 0)
(0.789223 0.255125 -1.4538e-18)
(0.753501 0.207403 8.01208e-19)
(0.958838 -0.0258308 -9.96555e-19)
(0.899605 0.0460267 0)
(0.880062 0.0273532 4.30283e-19)
(0.839891 0.122377 1.71355e-18)
(0.82949 0.0252668 -1.10862e-18)
(0.834228 2.31115 1.05559e-19)
(0.852348 2.13669 0)
(0.790358 2.39021 2.03017e-19)
(0.151581 2.50261 -1.75541e-19)
(0.32809 2.08551 -7.01905e-19)
(0.16277 1.50725 1.4797e-18)
(0.243966 1.55 0)
(-0.146053 0.829999 -2.43294e-19)
(-0.0279476 1.01901 1.83696e-18)
(-0.233974 0.496793 -3.20894e-19)
(0.12526 0.48497 3.75847e-19)
(0.392159 0.533128 9.42205e-19)
(0.550699 0.535403 0)
(0.242457 0.775381 0)
(0.152682 0.720674 0)
(0.842687 0.729746 5.37721e-19)
(0.780799 0.555979 -1.34138e-18)
(0.868747 0.63368 1.13052e-18)
(0.820481 0.49239 -1.04476e-18)
(1.01783 0.614156 0)
(0.958752 0.65019 -3.44394e-19)
(0.756401 0.342793 -1.86907e-18)
(0.729727 0.306564 -2.32199e-18)
(0.616818 0.446556 1.47838e-18)
(0.653909 0.384628 -1.41509e-18)
(0.750029 0.333599 -1.10222e-18)
(0.715077 0.328963 1.39615e-18)
(1.03051 -0.00457734 -1.39699e-18)
(1.05508 0.0207754 2.90745e-18)
(1.04609 0.0694427 1.76891e-18)
(1.05491 -0.0581589 -2.11848e-18)
(0.852142 0.00425515 0)
(0.833288 -0.0130614 -3.64048e-18)
(0.100318 1.68963 1.18964e-19)
(-0.00959802 1.73445 0)
(0.118369 1.77028 7.27454e-19)
(0.0408227 1.73055 -6.50383e-19)
(0.0552873 1.71934 3.58606e-19)
(0.0780365 1.79198 0)
(0.0815258 1.8267 0)
(0.0406197 1.71379 -6.9203e-20)
(-0.000941761 1.58997 6.18939e-20)
(0.0756591 1.61113 1.15013e-20)
(-0.168803 1.78895 -1.27671e-19)
(0.0245966 1.71685 7.90751e-20)
(0.531209 1.59744 -1.41049e-18)
(0.573427 1.61337 1.50697e-18)
(0.46769 1.6983 -6.87231e-19)
(0.607181 1.62007 6.81004e-20)
(0.621141 1.69126 0)
(0.592927 1.76882 -4.30403e-19)
(0.546298 1.75772 4.3457e-19)
(0.556456 1.70273 6.49828e-19)
(0.612 1.72313 0)
(0.650169 1.62281 0)
(0.547762 1.45057 1.53774e-18)
(0.253802 1.5214 2.19096e-18)
(0.264725 1.49086 -1.46725e-18)
(0.222149 1.52858 -2.47461e-19)
(0.360572 1.46819 5.25346e-19)
(0.250752 1.42902 -1.23112e-18)
(0.613096 1.44823 -1.36389e-18)
(0.726799 1.46323 0)
(0.627147 1.42289 -1.5361e-18)
(0.682111 1.46846 0)
(0.687535 1.50188 0)
(0.490375 1.84886 -8.80305e-19)
(0.50733 2.00525 -6.74553e-19)
(0.406878 2.05015 8.28959e-19)
(-0.568355 1.52636 0)
(-0.365617 1.45716 -7.28436e-19)
(0.00578438 1.56964 -9.63208e-19)
(0.348085 1.77037 0)
(0.0448416 2.16299 4.94552e-19)
(-0.302396 2.19425 0)
(0.469577 0.901664 -2.15812e-18)
(0.619509 0.93193 2.87654e-18)
(0.66482 0.737938 -2.74212e-18)
(0.331813 0.738308 -2.5663e-19)
(0.439705 0.710382 -1.01733e-18)
(0.565986 1.80825 4.9605e-19)
(0.635092 1.70812 -1.17261e-18)
(0.523818 1.83806 1.4812e-18)
(0.522298 1.73429 -9.97132e-19)
(0.603463 1.58982 -1.40883e-18)
(0.635771 1.70588 -1.1441e-19)
(0.666338 1.66141 1.18208e-18)
(0.534158 1.68779 8.83076e-20)
(0.536802 1.57217 6.32662e-19)
)
;

boundaryField
{
    wall-4
    {
        type            noSlip;
    }
    velocity-inlet-5
    {
        type            fixedValue;
        value           uniform (1 0 0);
    }
    velocity-inlet-6
    {
        type            fixedValue;
        value           uniform (0 3 0);
    }
    pressure-outlet-7
    {
        type            zeroGradient;
    }
    wall-8
    {
        type            noSlip;
    }
    frontAndBackPlanes
    {
        type            empty;
    }
}


// ************************************************************************* //
