/*--------------------------------*- C++ -*----------------------------------*\
| =========                 |                                                 |
| \\      /  F ield         | OpenFOAM: The Open Source CFD Toolbox           |
|  \\    /   O peration     | Version:  4.0                                   |
|   \\  /    A nd           | Web:      www.OpenFOAM.org                      |
|    \\/     M anipulation  |                                                 |
\*---------------------------------------------------------------------------*/
FoamFile
{
    version     2.0;
    format      ascii;
    class       volScalarField;
    location    "4";
    object      p;
}
// * * * * * * * * * * * * * * * * * * * * * * * * * * * * * * * * * * * * * //

dimensions      [0 2 -2 0 0 0 0];

internalField   nonuniform List<scalar> 
8800
(
0.654774
0.60763
0.569971
0.542078
0.522357
0.508604
0.498967
0.492266
0.487926
0.486
0.486848
0.490293
0.495966
0.504144
0.515727
0.532232
0.555808
0.588621
0.630091
0.688618
0.484779
0.49305
0.502246
0.506792
0.506641
0.503011
0.497844
0.492616
0.488311
0.485487
0.484968
0.48711
0.49096
0.495997
0.50144
0.50613
0.508258
0.506206
0.499178
0.489028
0.467392
0.473832
0.479042
0.482623
0.48467
0.485238
0.484451
0.482855
0.4812
0.480358
0.48087
0.482522
0.484502
0.485965
0.486253
0.484994
0.482256
0.477823
0.472125
0.46863
0.471189
0.472914
0.475496
0.477799
0.479545
0.48027
0.480261
0.479657
0.478831
0.478363
0.478816
0.479872
0.480879
0.481374
0.481168
0.480048
0.478049
0.475547
0.473274
0.472581
0.469291
0.469547
0.470088
0.470748
0.471445
0.472157
0.472665
0.472859
0.472827
0.472843
0.473189
0.473665
0.473914
0.473775
0.473273
0.472642
0.47202
0.471423
0.471047
0.47094
0.465716
0.465904
0.466256
0.466699
0.467169
0.467607
0.467958
0.468199
0.468364
0.468571
0.46891
0.469246
0.469425
0.469389
0.469163
0.468811
0.468411
0.468036
0.467778
0.467696
0.461295
0.46137
0.461514
0.461727
0.462003
0.462331
0.462681
0.463023
0.463356
0.463719
0.464104
0.464394
0.464517
0.464489
0.46436
0.464193
0.464031
0.463897
0.463812
0.463779
0.456526
0.456575
0.456672
0.456815
0.457006
0.457252
0.457553
0.457907
0.458315
0.45879
0.459263
0.459611
0.459807
0.45988
0.459874
0.459827
0.459764
0.459704
0.459659
0.459638
0.451566
0.451595
0.451664
0.451772
0.451931
0.452155
0.452456
0.452848
0.453339
0.453935
0.454532
0.454981
0.455266
0.455425
0.4555
0.455525
0.455522
0.455507
0.455491
0.455478
0.446423
0.446445
0.446499
0.446596
0.446747
0.446974
0.447298
0.447745
0.448336
0.449082
0.449842
0.450432
0.450828
0.451082
0.451233
0.451316
0.451356
0.45137
0.451371
0.451363
0.441084
0.441103
0.44116
0.44126
0.441423
0.441676
0.44205
0.442583
0.443309
0.444244
0.44521
0.445968
0.44651
0.446867
0.447093
0.447229
0.447306
0.447343
0.447357
0.447351
0.435538
0.435555
0.435617
0.435731
0.435921
0.436221
0.436674
0.437328
0.438232
0.439411
0.440643
0.441631
0.44233
0.442804
0.443112
0.443303
0.443415
0.443475
0.4435
0.443495
0.429737
0.429754
0.429827
0.429964
0.430196
0.430565
0.431127
0.431945
0.433083
0.434576
0.436145
0.437406
0.43831
0.438927
0.439332
0.439586
0.439737
0.439819
0.439854
0.43985
0.423615
0.423635
0.423725
0.423897
0.424187
0.424651
0.425359
0.426393
0.427836
0.429733
0.431729
0.433336
0.434491
0.435282
0.435803
0.436132
0.436328
0.436437
0.436484
0.43648
0.41709
0.417115
0.417229
0.417447
0.417815
0.418406
0.419306
0.420624
0.422461
0.424875
0.427412
0.429456
0.430925
0.431932
0.432596
0.433015
0.433266
0.433406
0.433466
0.433462
0.41005
0.410081
0.410228
0.410507
0.41098
0.411737
0.412892
0.414577
0.416922
0.419998
0.423223
0.425814
0.427675
0.428951
0.429792
0.430324
0.430643
0.43082
0.430897
0.430891
0.402341
0.402383
0.402573
0.402934
0.403547
0.404524
0.406011
0.408175
0.411178
0.415098
0.419193
0.422473
0.424824
0.426435
0.427496
0.428167
0.42857
0.428793
0.42889
0.428883
0.393764
0.39382
0.394069
0.394541
0.395339
0.396609
0.398535
0.401326
0.405178
0.410177
0.415368
0.419511
0.422474
0.424502
0.425838
0.426682
0.427188
0.427469
0.427591
0.427581
0.384047
0.384122
0.384453
0.385077
0.386127
0.38779
0.390299
0.393913
0.398864
0.405238
0.411808
0.417027
0.420752
0.4233
0.424976
0.426036
0.426672
0.427023
0.427176
0.427163
0.372812
0.372917
0.373363
0.374199
0.375596
0.377796
0.381091
0.385796
0.392175
0.400296
0.408587
0.415139
0.419806
0.422998
0.4251
0.42643
0.427228
0.42767
0.427861
0.427844
0.35953
0.359682
0.360295
0.361435
0.363327
0.366279
0.370651
0.376815
0.38505
0.395378
0.405798
0.413984
0.419812
0.423804
0.426439
0.42811
0.429114
0.429671
0.429912
0.429889
0.343432
0.34366
0.344526
0.346124
0.348746
0.352781
0.358663
0.366799
0.377447
0.390537
0.403551
0.413716
0.420963
0.425949
0.42926
0.43137
0.432643
0.43335
0.433656
0.433628
0.323362
0.323717
0.324986
0.327314
0.331077
0.336743
0.344792
0.355616
0.369378
0.385865
0.401973
0.414488
0.423449
0.429676
0.43386
0.436555
0.438196
0.439109
0.439504
0.439472
0.297446
0.298014
0.300006
0.303635
0.309323
0.317555
0.328773
0.34325
0.360962
0.381517
0.4012
0.416427
0.427423
0.435195
0.440532
0.444053
0.446237
0.44746
0.447985
0.44795
0.262209
0.263218
0.26688
0.273174
0.282339
0.29471
0.310554
0.329892
0.352455
0.377695
0.401348
0.419586
0.43292
0.442586
0.449466
0.454211
0.4573
0.459099
0.45988
0.459838
0.210392
0.21345
0.221833
0.233892
0.2493
0.268157
0.290464
0.315953
0.344175
0.374546
0.402388
0.423806
0.439707
0.451593
0.460469
0.467028
0.47174
0.474881
0.476493
0.476489
0.129261
0.144904
0.164716
0.187168
0.212001
0.239548
0.269683
0.302084
0.336358
0.372072
0.404262
0.429094
0.447921
0.462524
0.474072
0.483349
0.490903
0.496993
0.501838
0.503536
0.0433883
0.076388
0.108267
0.141443
0.176107
0.212295
0.249984
0.289022
0.329162
0.370221
0.407033
0.435691
0.457865
0.475601
0.490171
0.502444
0.512959
0.522114
0.531826
0.53429
-0.0140543
0.0208086
0.0604168
0.101809
0.144363
0.187993
0.232451
0.277445
0.322718
0.368198
0.408525
0.439842
0.464132
0.483584
0.499482
0.512672
0.523742
0.533124
0.541577
0.543933
-0.0555447
-0.0184045
0.0250852
0.0710993
0.118903
0.167919
0.217542
0.267222
0.316518
0.36531
0.408051
0.440987
0.466353
0.486476
0.50273
0.516027
0.527034
0.536276
0.544391
0.546791
-0.0848839
-0.0472067
-0.00123164
0.0479002
0.0992681
0.152134
0.205642
0.258886
0.311133
0.362123
0.406213
0.439893
0.465669
0.485984
0.502271
0.515492
0.52635
0.535379
0.543085
0.545449
-0.107657
-0.0692498
-0.0216002
0.0298635
0.0840175
0.139901
0.196361
0.252201
0.306404
0.358537
0.403045
0.436836
0.462636
0.482916
0.499122
0.51224
0.522866
0.531725
0.539122
0.541471
-0.125876
-0.0867027
-0.0375789
0.0157651
0.0721277
0.130397
0.189168
0.246907
0.302251
0.354594
0.398694
0.432109
0.457698
0.47786
0.493964
0.506938
0.517524
0.526204
0.533334
0.535684
-0.140885
-0.100939
-0.0504177
0.00460347
0.0628944
0.12317
0.183792
0.242871
0.298649
0.350329
0.393232
0.425846
0.451126
0.471219
0.487319
0.500283
0.510812
0.519422
0.526379
0.528751
-0.153509
-0.112758
-0.0609912
-0.00436716
0.0556799
0.117752
0.179946
0.239968
0.295604
0.345762
0.386637
0.418057
0.443028
0.463238
0.479554
0.492685
0.503291
0.511904
0.518737
0.52112
-0.164648
-0.122928
-0.0698509
-0.0116812
0.0500401
0.1138
0.177409
0.238127
0.293131
0.340926
0.378824
0.408613
0.433372
0.454057
0.470971
0.484574
0.495463
0.504206
0.511015
0.513449
-0.174554
-0.131733
-0.0774917
-0.0178078
0.0455876
0.111027
0.17601
0.237294
0.2913
0.335878
0.369662
0.397232
0.421963
0.443708
0.461846
0.476416
0.487932
0.497011
0.503909
0.506416
-0.18373
-0.14009
-0.0843363
-0.0231014
0.0420145
0.109166
0.175578
0.237432
0.290213
0.330712
0.358988
0.383488
0.408409
0.432092
0.452414
0.468728
0.481397
0.491124
0.498303
0.500946
-0.192434
-0.147832
-0.0906624
-0.0278431
0.0390431
0.107999
0.175963
0.238507
0.289986
0.325619
0.346649
0.366781
0.392064
0.418931
0.442881
0.4621
0.476753
0.487585
0.495281
0.498095
-0.200998
-0.155261
-0.0967142
-0.0322568
0.0364529
0.10732
0.176998
0.240464
0.290751
0.320858
0.332552
0.346332
0.371938
0.403699
0.433419
0.457112
0.475131
0.487684
0.496212
0.499283
-0.209669
-0.162646
-0.102681
-0.0365442
0.0340486
0.106936
0.178529
0.243219
0.292619
0.316779
0.316721
0.321246
0.346654
0.38553
0.424255
0.45518
0.477478
0.493004
0.502794
0.506205
-0.218618
-0.170149
-0.108725
-0.0408785
0.0316607
0.106674
0.180396
0.246669
0.295655
0.313764
0.299351
0.290496
0.314409
0.362723
0.415214
0.456523
0.485974
0.505336
0.517044
0.521007
-0.227713
-0.177844
-0.114911
-0.0453482
0.0291501
0.106361
0.182413
0.250682
0.29989
0.312248
0.280896
0.252729
0.272683
0.334472
0.405461
0.46237
0.502028
0.527161
0.541526
0.546183
-0.236994
-0.185791
-0.121322
-0.0500297
0.0264332
0.105868
0.18441
0.255094
0.305298
0.312634
0.262113
0.20682
0.218221
0.296354
0.394713
0.474083
0.528019
0.560689
0.577809
0.581944
-0.24666
-0.193966
-0.127956
-0.0549639
0.0234342
0.105112
0.186236
0.259683
0.31176
0.315287
0.243936
0.151904
0.145519
0.243889
0.3851
0.494169
0.567043
0.608729
0.627141
0.628963
-0.256485
-0.202362
-0.134776
-0.0601269
0.020113
0.104
0.187788
0.264268
0.319059
0.32047
0.227395
0.0872307
0.0476446
0.170013
0.368494
0.522143
0.620768
0.675029
0.692541
0.6827
-0.266719
-0.210944
-0.141728
-0.0655337
0.0164433
0.102503
0.188963
0.268759
0.327079
0.328397
0.213416
0.0144254
-0.0900681
0.0591971
0.343199
0.558214
0.684483
0.754984
0.781402
0.759146
-0.277222
-0.219601
-0.148775
-0.0712669
0.0123025
0.100508
0.189657
0.273058
0.335882
0.339684
0.203789
-0.0764453
-0.306084
-0.130136
0.305316
0.584922
0.732895
0.778398
0.787541
0.73201
-0.287608
-0.227951
-0.155673
-0.0772436
0.00783065
0.098108
0.189769
0.276988
0.34509
0.354238
0.202459
-0.183091
-0.669434
-0.52896
0.170664
0.570289
0.731014
0.724287
0.612343
0.531858
-0.296958
-0.235239
-0.161836
-0.0828319
0.00362684
0.095706
0.189465
0.280561
0.354418
0.371899
0.212923
-0.310814
-1.241
-1.20782
-0.14666
0.415865
0.544002
0.495398
0.374935
0.295749
-0.379449
-0.239042
-0.168686
-0.0890047
-0.00156921
0.0920826
0.188754
0.28351
0.364051
0.393664
0.243298
-0.385052
-1.86322
-2.03839
-0.683828
-0.0209643
0.101846
0.116228
0.0399082
-0.00488423
-0.263658
-0.244673
-0.179171
-0.098758
-0.00975962
0.0863431
0.185869
0.285743
0.375205
0.422624
0.304524
-0.42117
-2.33702
-2.60711
-1.31218
-0.830111
-0.592484
-0.496516
-0.511145
-0.359859
-0.307024
-0.258
-0.188986
-0.108024
-0.017665
0.0800076
0.182314
0.285725
0.381851
0.444714
0.362871
-0.300921
-1.95213
-2.21426
-1.49495
-1.10184
-0.960063
-0.888679
-0.918673
-0.73146
-0.332154
-0.276015
-0.202638
-0.119695
-0.0276372
0.0718682
0.176676
0.2835
0.385412
0.461569
0.41674
-0.089343
-1.28696
-1.5709
-1.32368
-1.21643
-1.23219
-1.25437
-1.35101
-1.16563
-0.357549
-0.295036
-0.217768
-0.132162
-0.038071
0.0632902
0.170376
0.280162
0.386868
0.474687
0.466876
0.131561
-0.644961
-0.993609
-1.07972
-1.22718
-1.42996
-1.61134
-1.83084
-1.73902
-0.381175
-0.314723
-0.234133
-0.145826
-0.049609
0.0537039
0.162903
0.275055
0.386089
0.484111
0.506528
0.309534
-0.168335
-0.545446
-0.863169
-1.21731
-1.58915
-1.92073
-2.30261
-2.67293
-0.403993
-0.335262
-0.252023
-0.161174
-0.0627728
0.0426433
0.153641
0.268227
0.382952
0.486773
0.532252
0.425944
0.115151
-0.27714
-0.703951
-1.18663
-1.69792
-2.11162
-2.25497
-2.5138
-0.427289
-0.357017
-0.271647
-0.178521
-0.0779027
0.0294535
0.142432
0.259117
0.375883
0.48547
0.547243
0.494484
0.278622
-0.0961256
-0.564303
-1.12733
-1.75503
-2.17274
-2.16249
-2.21448
-0.45164
-0.380333
-0.293186
-0.197908
-0.0952601
0.0140595
0.128852
0.247189
0.366386
0.478634
0.549267
0.527408
0.363603
0.0301843
-0.433687
-1.05289
-1.82164
-2.43549
-2.36015
-2.32862
-0.477888
-0.405482
-0.316694
-0.219432
-0.114791
-0.00358237
0.112837
0.23255
0.352727
0.467129
0.544173
0.541919
0.416749
0.144432
-0.275493
-0.91215
-1.73607
-2.51032
-2.52552
-2.35979
-0.506516
-0.432858
-0.342349
-0.24314
-0.136605
-0.0237229
0.0942158
0.215422
0.337143
0.45281
0.533282
0.544416
0.45656
0.258043
-0.0592986
-0.545306
-1.12379
-1.55111
-1.5966
-1.49296
-0.537525
-0.462512
-0.370247
-0.2692
-0.160757
-0.045922
0.0737398
0.196149
0.31866
0.435608
0.520912
0.546986
0.500586
0.381946
0.203145
-0.0278504
-0.239864
-0.351338
-0.360029
-0.330786
-0.570672
-0.494469
-0.400324
-0.29725
-0.1868
-0.070255
0.0508957
0.174781
0.298594
0.417752
0.509376
0.552884
0.547151
0.504221
0.445957
0.387956
0.356714
0.371951
0.408801
0.423534
-0.606131
-0.528587
-0.43247
-0.327417
-0.214952
-0.0963333
0.0267428
0.152176
0.277453
0.39995
0.499302
0.560419
0.589542
0.599802
0.608026
0.627172
0.663864
0.712997
0.752088
0.76249
-0.643635
-0.564606
-0.466258
-0.358929
-0.24421
-0.123503
0.00140917
0.128642
0.256365
0.383267
0.491134
0.568256
0.622865
0.666745
0.709707
0.756744
0.807714
0.856546
0.8902
0.898545
-0.68262
-0.601814
-0.501144
-0.39138
-0.274266
-0.151338
-0.0242627
0.105306
0.236358
0.367963
0.484849
0.57514
0.646511
0.707715
0.763838
0.816418
0.864762
0.906297
0.935275
0.94331
-0.721956
-0.639441
-0.53616
-0.423773
-0.304121
-0.178836
-0.0493021
0.0830074
0.217549
0.354475
0.47894
0.579533
0.66119
0.730583
0.790579
0.842519
0.886723
0.923088
0.949382
0.9573
-0.760315
-0.675525
-0.569913
-0.45482
-0.332608
-0.204828
-0.0727114
0.0624439
0.200368
0.342218
0.473913
0.581079
0.668558
0.741334
0.802236
0.85295
0.894867
0.929048
0.952907
0.961055
-0.794805
-0.708273
-0.600385
-0.482679
-0.358082
-0.227946
-0.0935328
0.0441018
0.185032
0.331106
0.467376
0.57913
0.669464
0.743475
0.804217
0.854005
0.894621
0.927681
0.950722
0.958792
-0.821749
-0.734753
-0.624859
-0.505085
-0.378663
-0.246821
-0.110864
0.0284386
0.171428
0.320194
0.459121
0.573072
0.664325
0.738368
0.798568
0.84748
0.887191
0.919285
0.941559
0.949636
-0.837178
-0.751377
-0.640415
-0.519631
-0.392331
-0.259964
-0.123733
0.0158338
0.159338
0.308823
0.448331
0.562434
0.65323
0.72649
0.785807
0.833887
0.872882
0.904385
0.92624
0.934296
-0.837836
-0.753948
-0.643452
-0.523245
-0.396876
-0.265826
-0.131186
0.00674918
0.148611
0.296343
0.434108
0.546383
0.635538
0.707335
0.765485
0.812664
0.850993
0.881962
0.903456
0.911681
-0.81717
-0.737111
-0.629589
-0.512263
-0.389351
-0.262358
-0.132014
0.00155706
0.13901
0.282054
0.415555
0.52388
0.609969
0.679485
0.736026
0.782123
0.819787
0.850102
0.871522
0.880064
-0.76845
-0.694523
-0.593657
-0.482527
-0.366816
-0.247448
-0.124911
0.00084527
0.130557
0.265862
0.391723
0.493623
0.574753
0.640598
0.694583
0.738971
0.775496
0.805358
0.827048
0.835746
-0.683695
-0.619096
-0.528949
-0.429918
-0.326457
-0.219507
-0.10901
0.00515014
0.123548
0.247351
0.362158
0.454627
0.528007
0.587649
0.636945
0.677863
0.711619
0.739342
0.761629
0.770313
-0.554997
-0.506788
-0.432715
-0.351866
-0.267125
-0.177776
-0.083857
0.0147658
0.118278
0.227075
0.327486
0.407232
0.469349
0.518846
0.559145
0.592586
0.619891
0.641019
0.656367
0.662367
-0.360499
-0.338597
-0.297451
-0.247348
-0.189325
-0.12386
-0.0510152
0.0290201
0.116
0.209552
0.296752
0.365654
0.418333
0.458953
0.490148
0.51387
0.532526
0.548092
0.560202
0.564113
-0.179821
-0.174193
-0.159623
-0.137062
-0.105575
-0.06438
-0.0132324
0.0476954
0.117801
0.196054
0.270189
0.328554
0.372258
0.404738
0.428759
0.446343
0.458457
0.465825
0.469734
0.47092
-0.0675221
-0.0667344
-0.0621123
-0.0521275
-0.035625
-0.0109385
0.0232725
0.0676809
0.122154
0.185696
0.247348
0.295914
0.331637
0.357329
0.375089
0.386671
0.393821
0.397996
0.399938
0.400225
-0.00487018
-0.00513673
-0.00365101
0.00151494
0.0116798
0.0280855
0.0520183
0.0846306
0.126494
0.177109
0.22719
0.266694
0.295342
0.315423
0.329028
0.337902
0.343281
0.346098
0.347179
0.347364
0.0327542
0.0329116
0.0341493
0.0375257
0.0441473
0.0553557
0.0725273
0.096847
0.129068
0.169069
0.209321
0.241188
0.264175
0.280146
0.290787
0.297505
0.30147
0.303591
0.304516
0.304712
0.0579
0.0581394
0.0591831
0.061729
0.0665641
0.0746792
0.0872498
0.105473
0.130241
0.161667
0.193726
0.219198
0.23749
0.250073
0.258373
0.263606
0.266709
0.268375
0.269106
0.269263
0.0744992
0.0747459
0.0756185
0.0775711
0.0811912
0.0872555
0.0967058
0.110555
0.129654
0.154263
0.179653
0.199904
0.214428
0.224391
0.230945
0.235061
0.237496
0.238807
0.239389
0.239513
0.0852315
0.08545
0.0861595
0.0876823
0.0904517
0.0950572
0.102244
0.112849
0.127621
0.146871
0.166903
0.182938
0.194437
0.202309
0.207476
0.210717
0.212634
0.213669
0.214128
0.214225
0.0915955
0.0917744
0.0923364
0.0935198
0.0956534
0.0991894
0.104707
0.112877
0.124335
0.139382
0.155144
0.167804
0.176888
0.183103
0.187179
0.189735
0.191246
0.19206
0.19242
0.192495
0.0946477
0.0947912
0.095233
0.0961533
0.0978039
0.100532
0.104791
0.111115
0.120019
0.131779
0.144164
0.154136
0.161298
0.166199
0.169412
0.171424
0.172613
0.173253
0.173535
0.173593
0.0951639
0.0952775
0.0956234
0.0963396
0.0976199
0.0997344
0.103035
0.107943
0.114875
0.124066
0.133783
0.141627
0.147265
0.151123
0.153653
0.155236
0.156169
0.156671
0.156891
0.156935
0.0937282
0.0938175
0.0940874
0.0946447
0.0956398
0.0972821
0.0998464
0.103663
0.109065
0.116251
0.123869
0.13003
0.134462
0.137495
0.139482
0.140726
0.141459
0.141853
0.142025
0.142059
0.0907816
0.0908516
0.0910624
0.0914966
0.0922708
0.0935478
0.0955429
0.0985158
0.102729
0.108345
0.114312
0.119145
0.122624
0.125007
0.126569
0.127545
0.12812
0.128427
0.12856
0.128586
0.0866648
0.0867195
0.0868837
0.0872217
0.0878245
0.0888192
0.0903731
0.0926892
0.0959756
0.100363
0.105035
0.108823
0.111552
0.11342
0.114644
0.115409
0.115859
0.1161
0.116204
0.116224
0.0816374
0.08168
0.0818081
0.0820713
0.0825407
0.0833152
0.0845255
0.0863307
0.0888949
0.0923225
0.0959754
0.0989401
0.101077
0.102541
0.103499
0.104097
0.104448
0.104636
0.104716
0.104731
0.075903
0.075936
0.0760354
0.0762401
0.0766054
0.0772084
0.0781506
0.0795568
0.0815556
0.0842296
0.0870831
0.0894
0.0910696
0.0922129
0.0929625
0.0934316
0.0937068
0.093853
0.0939158
0.0939277
0.0696169
0.0696426
0.0697199
0.0698791
0.0701629
0.0706315
0.0713645
0.0724591
0.0740152
0.076098
0.0783231
0.0801308
0.0814338
0.0823267
0.0829109
0.0832753
0.0834893
0.083603
0.0836516
0.0836607
0.0629038
0.0629235
0.062983
0.0631063
0.0633265
0.0636901
0.0642583
0.0651066
0.0663143
0.067933
0.0696622
0.0710683
0.0720835
0.0727788
0.0732328
0.0735153
0.0736805
0.073768
0.0738049
0.0738119
0.0558578
0.055873
0.055919
0.0560138
0.0561832
0.0564635
0.0569029
0.0575593
0.0584933
0.0597456
0.0610839
0.0621721
0.0629562
0.0634921
0.063843
0.0640626
0.0641914
0.0642597
0.064289
0.0642944
0.0485548
0.0485663
0.0486015
0.0486742
0.0488038
0.0490181
0.0493545
0.0498577
0.0505744
0.0515352
0.0525621
0.0533967
0.0539985
0.054411
0.0546812
0.0548494
0.0549477
0.0549997
0.0550214
0.0550255
0.0410561
0.0410645
0.0410904
0.0411448
0.0412427
0.0414048
0.0416587
0.0420391
0.0425809
0.0433082
0.0440872
0.0447216
0.0451798
0.0454936
0.0456978
0.0458241
0.0458976
0.0459361
0.0459514
0.0459545
0.0334082
0.0334144
0.0334332
0.0334727
0.0335441
0.0336641
0.033853
0.0341352
0.0345372
0.0350766
0.0356536
0.0361221
0.0364592
0.036689
0.0368393
0.036934
0.0369894
0.0370185
0.0370313
0.0370335
0.0256485
0.0256523
0.0256647
0.0256928
0.0257446
0.0258305
0.0259645
0.0261648
0.026451
0.0268349
0.0272451
0.0275779
0.0278171
0.0279811
0.0280876
0.0281527
0.0281905
0.0282102
0.0282175
0.0282188
0.0178073
0.01781
0.017819
0.0178375
0.0178714
0.017927
0.018014
0.0181447
0.0183315
0.0185824
0.0188508
0.0190694
0.0192271
0.0193338
0.0194033
0.0194461
0.0194699
0.0194811
0.0194851
0.0194859
0.00991291
0.00991482
0.00992057
0.00993133
0.00994876
0.00997755
0.0100235
0.010093
0.0101919
0.0103257
0.0104687
0.0105834
0.0106655
0.0107219
0.0107589
0.0107814
0.0107944
0.0108015
0.0108049
0.010806
0.00198384
0.00198263
0.00198134
0.00198147
0.00198392
0.00198912
0.0019974
0.00200969
0.0020276
0.00205306
0.00208133
0.00210864
0.00212872
0.00214241
0.00215094
0.00215623
0.00215978
0.00216184
0.00216206
0.00216068
-1.31669
-0.984928
-0.616237
-0.299832
-0.0223749
0.220128
0.424893
0.596737
0.705027
0.67029
-0.646982
-0.425523
-0.190362
0.0193758
0.205491
0.365231
0.495692
0.591917
0.641096
0.639683
-0.204789
-0.0597914
0.0903561
0.227051
0.347713
0.44963
0.529449
0.584899
0.616188
0.623685
0.0830315
0.176727
0.274299
0.362953
0.441091
0.506134
0.556722
0.591962
0.614023
0.623188
0.275877
0.337765
0.401706
0.459375
0.509731
0.551398
0.584138
0.609553
0.625716
0.631846
0.411838
0.451266
0.492414
0.531098
0.56551
0.595835
0.620167
0.637436
0.645705
0.649296
0.51165
0.538317
0.568308
0.599447
0.627228
0.649777
0.66656
0.675826
0.681236
0.686107
0.583573
0.607132
0.635952
0.661927
0.6852
0.705643
0.722732
0.735102
0.741609
0.750255
0.642709
0.672521
0.705159
0.736511
0.766176
0.791631
0.810686
0.823303
0.828158
0.841112
0.726766
0.770886
0.814745
0.852092
0.881456
0.903746
0.920954
0.933231
0.940999
0.956276
0.872285
0.913549
0.951716
0.981807
1.00717
1.02907
1.04723
1.06089
1.07118
1.08828
1.0444
1.07705
1.10457
1.12812
1.148
1.1661
1.18317
1.19931
1.21451
1.23202
1.23474
1.25254
1.26742
1.28348
1.29956
1.31434
1.32753
1.3412
1.35826
1.37816
1.41622
1.42595
1.43788
1.44883
1.45804
1.46737
1.47799
1.4893
1.50072
1.51607
1.62344
1.62698
1.61224
1.59775
1.59161
1.59729
1.61578
1.64596
1.67793
1.70451
1.93031
1.79555
1.71871
1.67586
1.65836
1.6625
1.68969
1.74612
1.84894
2.07334
0.544917
0.543345
0.539935
0.532679
0.521793
0.510928
0.501758
0.494669
0.489511
0.48638
0.485823
0.488091
0.492502
0.498776
0.507005
0.517222
0.528443
0.538118
0.542771
0.545112
0.469435
0.475318
0.483292
0.488744
0.492069
0.4927
0.490969
0.48804
0.485141
0.483137
0.482808
0.484376
0.487181
0.490413
0.493051
0.493763
0.491811
0.487347
0.480849
0.472876
0.469304
0.471026
0.475149
0.478797
0.481095
0.482195
0.482318
0.481648
0.480484
0.479451
0.479331
0.480362
0.481815
0.48298
0.483408
0.482926
0.481307
0.478424
0.474313
0.471082
0.470905
0.471137
0.472033
0.473329
0.474582
0.475806
0.476603
0.476734
0.476443
0.476105
0.476185
0.4768
0.477477
0.477818
0.477527
0.476544
0.475399
0.474152
0.473013
0.472461
0.467557
0.467653
0.467989
0.468476
0.468986
0.469468
0.469866
0.470134
0.470251
0.470308
0.470521
0.470938
0.471268
0.471358
0.471213
0.470889
0.470462
0.469998
0.469581
0.46938
0.463595
0.463646
0.463807
0.46408
0.464433
0.464835
0.465239
0.465593
0.465884
0.466157
0.466494
0.466832
0.467042
0.467067
0.46692
0.466666
0.466381
0.466119
0.465922
0.46583
0.458932
0.458958
0.459043
0.459185
0.459377
0.459621
0.459915
0.460245
0.4606
0.46099
0.461421
0.461807
0.462043
0.462132
0.462113
0.462035
0.461937
0.461841
0.461763
0.461723
0.454069
0.454084
0.454143
0.454244
0.454391
0.454593
0.454858
0.455192
0.455601
0.456093
0.456641
0.457116
0.457429
0.457599
0.457668
0.457677
0.457654
0.45762
0.457586
0.457565
0.449018
0.449025
0.449066
0.449146
0.44927
0.449455
0.449718
0.450078
0.450554
0.451157
0.451848
0.452458
0.452883
0.453149
0.453304
0.453384
0.45342
0.453429
0.453425
0.453417
0.443779
0.443785
0.443823
0.443896
0.444019
0.444212
0.444499
0.444911
0.445479
0.446223
0.447097
0.447885
0.44844
0.448822
0.449063
0.449208
0.449289
0.44933
0.449346
0.449346
0.438339
0.43834
0.43838
0.438461
0.438599
0.438819
0.439156
0.43965
0.440344
0.441274
0.44238
0.443384
0.444126
0.444629
0.444962
0.445172
0.445297
0.445366
0.445399
0.445406
0.432674
0.432674
0.432717
0.43281
0.432973
0.433238
0.433648
0.434258
0.435123
0.436293
0.437697
0.438986
0.439936
0.440596
0.441037
0.441319
0.44149
0.441588
0.441636
0.441649
0.42672
0.426719
0.426772
0.426885
0.427086
0.427415
0.427928
0.428692
0.429784
0.431266
0.43305
0.434692
0.435907
0.436757
0.437327
0.437694
0.43792
0.43805
0.438116
0.438134
0.420409
0.420407
0.420473
0.420615
0.420868
0.421284
0.421934
0.422904
0.424291
0.426174
0.428442
0.430532
0.432079
0.433164
0.433892
0.434362
0.434652
0.43482
0.434906
0.43493
0.413643
0.41364
0.413723
0.413905
0.414228
0.41476
0.415589
0.416828
0.418598
0.420998
0.423884
0.426539
0.428502
0.429879
0.430804
0.431402
0.431771
0.431985
0.432094
0.432125
0.40629
0.406286
0.406394
0.406628
0.407045
0.40773
0.408796
0.410386
0.412653
0.415716
0.419388
0.422756
0.425241
0.426982
0.428152
0.428908
0.429374
0.429645
0.429783
0.429822
0.398177
0.398172
0.398312
0.398618
0.39916
0.400048
0.401427
0.403477
0.406388
0.410304
0.414974
0.419238
0.422377
0.424573
0.426047
0.426999
0.427587
0.427928
0.428103
0.428151
0.389069
0.389064
0.389249
0.389653
0.390363
0.391522
0.393318
0.395974
0.399724
0.404735
0.41067
0.416059
0.420014
0.422776
0.424629
0.425826
0.426564
0.426992
0.427211
0.427272
0.378648
0.378644
0.378893
0.379431
0.380372
0.381902
0.384258
0.38772
0.392567
0.398985
0.406516
0.413307
0.418274
0.42174
0.424065
0.425566
0.426492
0.42703
0.427304
0.42738
0.366472
0.36647
0.366811
0.367541
0.368808
0.370852
0.373975
0.37852
0.38481
0.393034
0.402565
0.411091
0.417306
0.421641
0.424553
0.426435
0.427599
0.428274
0.428619
0.428714
0.351902
0.351908
0.352391
0.353408
0.355149
0.357929
0.362127
0.36815
0.376351
0.386882
0.398895
0.409537
0.417277
0.422686
0.42633
0.428695
0.43016
0.431013
0.43145
0.43157
0.333977
0.334002
0.334723
0.336196
0.338663
0.34254
0.348291
0.356369
0.367105
0.380562
0.395603
0.408785
0.418363
0.425091
0.429659
0.432645
0.43451
0.435603
0.436167
0.436323
0.311149
0.31123
0.312403
0.314658
0.318309
0.323907
0.331982
0.342957
0.357047
0.374155
0.392808
0.408963
0.420715
0.429054
0.434799
0.438617
0.441038
0.442484
0.443251
0.443471
0.280795
0.281069
0.283201
0.286916
0.292663
0.301127
0.312774
0.32783
0.346281
0.367815
0.390634
0.410152
0.424407
0.434686
0.441948
0.446924
0.45019
0.452221
0.453358
0.453715
0.238149
0.239026
0.243528
0.25036
0.26018
0.273601
0.290685
0.311303
0.33518
0.361835
0.389232
0.412384
0.429396
0.441929
0.451102
0.457706
0.462327
0.465439
0.467369
0.468002
0.174587
0.177288
0.188236
0.202408
0.220337
0.241878
0.266622
0.294266
0.324431
0.356629
0.388742
0.41557
0.435429
0.450407
0.46182
0.470542
0.477194
0.482273
0.485893
0.486679
0.095137
0.102096
0.123357
0.14985
0.17855
0.209406
0.242358
0.27727
0.313846
0.351765
0.388934
0.420009
0.443453
0.461735
0.476331
0.488186
0.497957
0.50616
0.511918
0.514116
0.0167385
0.032464
0.0650604
0.101635
0.139823
0.179385
0.220145
0.261906
0.304454
0.347601
0.389339
0.424145
0.450571
0.471448
0.488405
0.502411
0.514046
0.523743
0.531076
0.535006
-0.0326796
-0.0161235
0.0206965
0.0632241
0.10796
0.154056
0.201021
0.248438
0.295933
0.343263
0.388385
0.425693
0.453921
0.476115
0.49397
0.508504
0.520379
0.530099
0.537395
0.541228
-0.068087
-0.0511465
-0.0114113
0.0346737
0.0833791
0.133876
0.185384
0.23714
0.28846
0.338927
0.38637
0.425179
0.454308
0.477031
0.495159
0.509795
0.52166
0.531286
0.538588
0.542528
-0.0938481
-0.0770362
-0.0357267
0.0128355
0.0645421
0.118334
0.173249
0.228247
0.282332
0.334838
0.383496
0.422898
0.452308
0.475151
0.493284
0.507851
0.519597
0.52909
0.536387
0.540377
-0.114558
-0.0974363
-0.0546478
-0.00419053
0.0497928
0.106185
0.163781
0.22124
0.277236
0.330844
0.379771
0.419053
0.44833
0.471077
0.489119
0.503578
0.515211
0.524583
0.531883
0.535902
-0.131379
-0.113924
-0.069764
-0.017628
0.0382915
0.0968066
0.156558
0.215887
0.273112
0.326987
0.375288
0.413801
0.442662
0.465237
0.483198
0.497603
0.509194
0.51851
0.525757
0.529823
-0.145421
-0.127554
-0.0821148
-0.0284647
0.0291982
0.0896103
0.151186
0.211982
0.269882
0.323273
0.370055
0.407185
0.435427
0.45788
0.475911
0.490404
0.502053
0.511391
0.518655
0.522812
-0.157441
-0.139173
-0.0924633
-0.0373527
0.0219672
0.0841132
0.147343
0.209344
0.26751
0.319729
0.364074
0.399131
0.4266
0.449121
0.467516
0.482366
0.494262
0.503737
0.511074
0.515304
-0.168154
-0.149367
-0.101367
-0.04479
0.0161186
0.0799689
0.144773
0.207852
0.266
0.316429
0.357305
0.389465
0.416011
0.438945
0.458207
0.473856
0.486328
0.496153
0.503684
0.508077
-0.17789
-0.158457
-0.109311
-0.0512359
0.0112941
0.0768535
0.14325
0.207382
0.26538
0.313478
0.349747
0.377908
0.403306
0.427181
0.448098
0.465267
0.478833
0.489326
0.497216
0.501779
-0.187002
-0.167028
-0.116573
-0.0570204
0.00718539
0.0745158
0.142574
0.207858
0.265674
0.311048
0.341416
0.364086
0.387913
0.413464
0.437218
0.456994
0.472462
0.484139
0.492661
0.497551
-0.195802
-0.175258
-0.123466
-0.0624125
0.00352195
0.0727094
0.142566
0.209159
0.266943
0.309315
0.332434
0.347585
0.369016
0.397156
0.425473
0.449469
0.468076
0.481672
0.491219
0.496585
-0.204569
-0.183326
-0.130199
-0.0675995
9.32685e-05
0.0712169
0.143022
0.211166
0.269182
0.308539
0.323006
0.32796
0.34548
0.377234
0.412642
0.443224
0.466587
0.483244
0.494438
0.500472
-0.213376
-0.191446
-0.136951
-0.0727581
-0.00326646
0.069861
0.14376
0.213743
0.272403
0.308951
0.313519
0.304815
0.31579
0.352255
0.398359
0.438821
0.469288
0.49045
0.50412
0.51119
-0.222511
-0.199742
-0.143842
-0.0780328
-0.0066982
0.0684893
0.144611
0.216722
0.276533
0.310787
0.304498
0.277849
0.27809
0.320185
0.381264
0.436453
0.47751
0.505115
0.52225
0.530301
-0.231718
-0.208283
-0.150934
-0.0834892
-0.0103115
0.06698
0.145425
0.219915
0.281446
0.314205
0.296604
0.247052
0.230667
0.278281
0.360235
0.436458
0.492965
0.529489
0.5511
0.56102
-0.241243
-0.217061
-0.158254
-0.0891754
-0.0141747
0.0652052
0.146064
0.223177
0.286984
0.319292
0.290531
0.212994
0.170431
0.22151
0.330367
0.43999
0.518477
0.567302
0.593764
0.604266
-0.251019
-0.226032
-0.165788
-0.0950896
-0.018301
0.0631193
0.146399
0.226341
0.292971
0.326007
0.287021
0.176358
0.0935354
0.143214
0.290733
0.447317
0.554128
0.619346
0.651318
0.658213
-0.261141
-0.23529
-0.173478
-0.10118
-0.0227243
0.0606745
0.146378
0.229233
0.299177
0.334256
0.286755
0.136543
-0.00417422
0.032703
0.231209
0.459551
0.604956
0.688776
0.729802
0.722868
-0.271549
-0.244824
-0.18127
-0.10746
-0.0274958
0.0578015
0.145924
0.231826
0.30562
0.344292
0.290697
0.0923535
-0.139503
-0.14238
0.142283
0.462834
0.654231
0.751034
0.802259
0.81432
-0.282125
-0.254496
-0.188954
-0.113895
-0.0326598
0.0544379
0.144953
0.233925
0.31203
0.355885
0.300156
0.0466747
-0.33521
-0.452523
-0.0363763
0.454404
0.683646
0.770469
0.744167
0.653199
-0.292177
-0.263677
-0.196227
-0.120608
-0.0382844
0.0503987
0.143299
0.235379
0.318082
0.368535
0.316288
0.00729105
-0.628204
-1.04008
-0.409173