/*--------------------------------*- C++ -*----------------------------------*\
| =========                 |                                                 |
| \\      /  F ield         | OpenFOAM: The Open Source CFD Toolbox           |
|  \\    /   O peration     | Version:  4.0                                   |
|   \\  /    A nd           | Web:      www.OpenFOAM.org                      |
|    \\/     M anipulation  |                                                 |
\*---------------------------------------------------------------------------*/
FoamFile
{
    version     2.0;
    format      ascii;
    class       surfaceScalarField;
    location    "4";
    object      phi;
}
// * * * * * * * * * * * * * * * * * * * * * * * * * * * * * * * * * * * * * //

dimensions      [0 3 -1 0 0 0 0];

internalField   nonuniform List<scalar> 
17370
(
-0.0916194
0.0964564
0.284174
-0.0778808
0.0590888
0.365568
-0.0421289
0.0305821
0.427715
-0.0213446
0.0153892
0.505207
-0.0108291
0.00790852
0.602323
-0.00559472
0.00406243
0.72059
-0.00286954
0.00213952
0.863637
-0.00156875
0.00117274
1.03585
-0.000806277
0.000496761
1.24281
-0.000202778
-1.12259e-05
1.4914
0.000245999
-0.000553636
1.4915
0.000852701
-0.0012079
1.24305
0.00159692
-0.00215847
1.0362
0.00287794
-0.00406523
0.864094
0.00559866
-0.00791419
0.721373
0.010838
-0.0154028
0.603779
0.0213608
-0.030599
0.508677
0.0421439
-0.0590997
0.433124
0.0778875
-0.0964583
0.365346
0.0916248
0.197386
-0.128239
0.0917332
0.0365057
-0.365213
0.355546
-0.0658968
0.0755636
-0.447808
0.454345
-0.073745
0.0672083
-0.521147
0.528822
-0.0599253
0.0522505
-0.612464
0.619791
-0.0451798
0.0378533
-0.726496
0.732376
-0.0316801
0.0258003
-0.867049
0.871186
-0.0212456
0.0171081
-1.03804
1.04101
-0.0138756
0.0109103
-1.24428
1.24662
-0.0085071
0.0061582
-1.49246
1.49469
-0.00408739
0.00185799
-1.49241
1.49446
0.000209066
-0.00225944
-1.24374
1.24577
0.00447027
-0.00649923
-1.0372
1.03957
0.00881044
-0.0111726
-0.865736
0.868924
0.0140958
-0.0172844
-0.724108
0.728646
0.0213887
-0.0259263
-0.608531
0.614705
0.0318023
-0.0379762
-0.514874
0.521938
0.0452981
-0.0523627
-0.440604
0.447873
0.0600333
-0.0673027
-0.3757
0.377505
0.0738139
-0.0756188
-0.257714
0.228301
0.0659331
-0.0365201
-0.0759609
0.0703094
0.00565154
-0.0313302
0.0372498
-0.374419
0.368499
-0.0396064
0.0398009
-0.451115
0.450921
-0.0385169
0.0368983
-0.525494
0.527112
-0.0347378
0.0325498
-0.618933
0.621121
-0.0297639
0.0268176
-0.733071
0.736018
-0.0232236
0.0198455
-0.872748
0.876126
-0.0161339
0.0128637
-1.04272
1.04599
-0.00935383
0.00622555
-1.24843
1.25156
-0.00282561
-0.000363193
-1.49696
1.50014
0.00357119
-0.00695497
-1.49733
1.50072
0.0100673
-0.0135328
-1.2496
1.25306
0.016774
-0.0204293
-1.04468
1.04834
0.0237649
-0.0272892
-0.875624
0.879148
0.030176
-0.0328858
-0.737216
0.739926
0.0350123
-0.0371201
-0.623899
0.626007
0.0386974
-0.0399472
-0.532526
0.533775
0.0397338
-0.0373632
-0.455607
0.453236
0.0314191
-0.0188259
-0.341823
0.32923
0.00567017
-0.0759159
0.0702458
-0.0690631
0.069239
-0.00017596
-0.00713133
0.0129497
-0.361623
0.355804
-0.0189956
0.0235731
-0.447494
0.442916
-0.0269668
0.0286669
-0.526876
0.525176
-0.0292138
0.0286305
-0.622616
0.623199
-0.0271558
0.0252812
-0.738409
0.740283
-0.0227859
0.0201677
-0.87908
0.881699
-0.0170067
0.0139114
-1.04921
1.05231
-0.0103502
0.00695432
-1.25495
1.25835
-0.00302621
-0.000806737
-1.50387
1.5077
0.00461622
-0.00847128
-1.50455
1.5084
0.0117943
-0.0152676
-1.25666
1.26013
0.0182609
-0.021305
-1.05166
1.05471
0.0238077
-0.026185
-0.882029
0.884407
0.0279582
-0.0293448
-0.742024
0.743411
0.0298575
-0.0292312
-0.626891
0.626265
0.0274514
-0.0239716
-0.532032
0.528552
0.0193117
-0.0131729
-0.447705
0.441566
0.00727535
-0.00196253
-0.320378
0.315065
-0.000152397
-0.0689748
0.0691272
-0.0692805
0.0691074
0.000173096
-0.00290556
0.00569162
-0.351698
0.348911
-0.00919062
0.012241
-0.438934
0.435884
-0.0150436
0.0170029
-0.523054
0.521094
-0.0184567
0.0192058
-0.622781
0.622032
-0.0193529
0.0189157
-0.741318
0.741755
-0.0178371
0.0163709
-0.883813
0.885279
-0.0142844
0.0120063
-1.05513
1.05741
-0.00913895
0.00621711
-1.26162
1.26454
-0.00260805
-0.00101608
-1.51154
1.51516
0.00460639
-0.00814592
-1.51222
1.51576
0.0110459
-0.0138694
-1.2634
1.26622
0.0160132
-0.0179445
-1.05734
1.05927
0.0192797
-0.0202195
-0.886083
0.887023
0.0205384
-0.0202686
-0.743678
0.743408
0.0194039
-0.0178
-0.624752
0.623148
0.0157075
-0.0127706
-0.525027
0.522091
0.00960945
-0.00600003
-0.43661
0.433001
0.00311828
-0.00102998
-0.311886
0.309798
0.000208317
-0.0691442
0.0689359
-0.0689954
0.0689562
3.91362e-05
-0.00117591
0.00240668
-0.347039
0.345809
-0.004097
0.00572247
-0.433605
0.431979
-0.00742938
0.00882648
-0.519378
0.517981
-0.0101048
0.0109784
-0.621135
0.620261
-0.0115544
0.011706
-0.741819
0.741668
-0.0114363
0.0107924
-0.886282
0.886926
-0.00964726
0.00821873
-1.05923
1.06066
-0.00624202
0.0040949
-1.26708
1.26922
-0.00141133
-0.00130614
-1.51839
1.5211
0.00399303
-0.00658535
-1.51886
1.52145
0.00861004
-0.01044
-1.26856
1.27039
0.0117275
-0.0126733
-1.06066
1.0616
0.0131294
-0.0131954
-0.887456
0.887522
0.0128611
-0.0120931
-0.742795
0.742027
0.0110575
-0.0096233
-0.621563
0.620129
0.00809541
-0.00625668
-0.519715
0.517876
0.00451914
-0.00271227
-0.430415
0.428609
0.0013773
-0.000443013
-0.308401
0.307467
7.05072e-05
-0.0687839
0.0687134
-0.0689132
0.0688692
4.40155e-05
-0.000629178
0.00119188
-0.344992
0.344429
-0.00195815
0.00272161
-0.430867
0.430104
-0.00357286
0.00432546
-0.516936
0.516184
-0.00507901
0.00565095
-0.619525
0.618953
-0.00610827
0.00633856
-0.741435
0.741205
-0.00634455
0.00609405
-0.887322
0.887573
-0.00550867
0.00467781
-1.06175
1.06258
-0.00343514
0.00201528
-1.27099
1.27241
-0.000221723
-0.00160556
-1.52333
1.52516
0.0034029
-0.00508262
-1.52355
1.52523
0.00630626
-0.00729388
-1.27175
1.27274
0.00791915
-0.00827438
-1.06221
1.06256
0.00830704
-0.00806189
-0.887375
0.88713
0.00761652
-0.00693134
-0.741264
0.740579
0.00616581
-0.00522524
-0.618947
0.618006
0.0043154
-0.00330299
-0.516514
0.515502
0.00240256
-0.00149907
-0.427354
0.426451
0.00082636
-0.000319122
-0.306802
0.306294
7.65873e-05
-0.0686424
0.0685658
-0.0688426
0.068833
9.56165e-06
-0.000271004
0.00053716
-0.344037
0.343771
-0.000901456
0.00126819
-0.429572
0.429205
-0.00168456
0.00206121
-0.515646
0.515269
-0.00244964
0.00275708
-0.618525
0.618218
-0.0030161
0.00315675
-0.741013
0.740872
-0.00317374
0.00303699
-0.887745
0.887882
-0.00269062
0.00217796
-1.06322
1.06374
-0.00138792
0.000466328
-1.27355
1.27447
0.000720029
-0.00193431
-1.52666
1.52787
0.00310397
-0.00414905
-1.52656
1.52761
0.0048577
-0.00535912
-1.27345
1.27395
0.00561076
-0.00567243
-1.06274
1.06281
0.00554617
-0.00524431
-0.886843
0.886541
0.00485097
-0.00432795
-0.73998
0.739457
0.0037947
-0.00317983
-0.617252
0.616637
0.0026122
-0.00200217
-0.514727
0.514117
0.00147245
-0.000944776
-0.425772
0.425244
0.000543331
-0.000223607
-0.305896
0.305576
5.74441e-05
-0.0684988
0.0684413
-0.0688349
0.0688461
-1.1135e-05
-4.94777e-05
0.000151179
-0.343598
0.343497
-0.000300697
0.00045371
-0.428961
0.428808
-0.000627373
0.000783188
-0.515017
0.514861
-0.000941203
0.0010619
-0.618012
0.617891
-0.00115359
0.00118434
-0.740787
0.740756
-0.00113992
0.00100949
-0.888008
0.888138
-0.000747009
0.000384844
-1.06416
1.06452
0.000155938
-0.000776267
-1.27522
1.27584
0.00156975
-0.00236307
-1.52885
1.52965
0.00309701
-0.0037114
-1.52842
1.52903
0.00408446
-0.00430104
-1.27429
1.27451
0.00435371
-0.00426482
-1.06278
1.06269
0.00407361
-0.00377155
-0.886237
0.885935
0.00343557
-0.00302557
-0.738998
0.738588
0.00263146
-0.00219463
-0.616125
0.615689
0.00180272
-0.00139023
-0.513623
0.513211
0.00103659
-0.000684164
-0.42482
0.424468
0.000409808
-0.000179865
-0.305311
0.305081
5.03158e-05
-0.0683889
0.0683385
-0.0688664
0.068895
-2.86173e-05
8.74171e-05
-8.99184e-05
-0.343453
0.343455
7.324e-05
-5.26745e-05
-0.428727
0.428706
3.1792e-05
-1.87459e-05
-0.514782
0.514769
1.62072e-05
-3.06325e-05
-0.617843
0.617857
7.27843e-05
-0.000144473
-0.740778
0.740849
0.000270517
-0.000439624
-0.888284
0.888454
0.000695367
-0.00100067
-1.06485
1.06515
0.00141757
-0.0018675
-1.27636
1.27681
0.00241634
-0.00293411
-1.53029
1.5308
0.00337881
-0.00371251
-1.52949
1.52983
0.00387966
-0.00390275
-1.27461
1.27464
0.00381797
-0.00363511
-1.06255
1.06237
0.0034025
-0.00309694
-0.885634
0.885328
0.00278874
-0.00243507
-0.738213
0.737859
0.00210877
-0.00175746
-0.615304
0.614952
0.00144857
-0.00112771
-0.512854
0.512533
0.000854249
-0.000580369
-0.424163
0.423889
0.000361461
-0.000168054
-0.304874
0.30468
5.03739e-05
-0.068289
0.0682386
-0.0689307
0.0689737
-4.29658e-05
0.000208882
-0.000280052
-0.343489
0.343561
0.00035555
-0.000428811
-0.428737
0.428811
0.000517573
-0.000609031
-0.514813
0.514904
0.000723406
-0.000844059
-0.617928
0.618048
0.000998145
-0.00116299
-0.740969
0.741133
0.00137535
-0.00160276
-0.88865
0.888877
0.00189296
-0.00219609
-1.06545
1.06575
0.00256742
-0.00293184
-1.27721
1.27757
0.00333758
-0.00367972
-1.53122
1.53157
0.00392887
-0.00405561
-1.53005
1.53017
0.00405162
-0.00396468
-1.27461
1.27452
0.00378653
-0.00352841
-1.06215
1.06189
0.00325212
-0.00292281
-0.885013
0.884684
0.00261036
-0.00226627
-0.737515
0.737171
0.00195792
-0.00163267
-0.61462
0.614295
0.00135087
-0.00106088
-0.512233
0.511943
0.000814742
-0.000566905
-0.423633
0.423385
0.000364097
-0.000176709
-0.304493
0.304306
5.55588e-05
-0.0681862
0.0681306
-0.0690253
0.069086
-6.06705e-05
0.000323565
-0.000461542
-0.343668
0.343806
0.000615735
-0.000766293
-0.428923
0.429073
0.000945996
-0.00112541
-0.51504
0.51522
0.00134048
-0.00155539
-0.618216
0.618431
0.00181248
-0.00206872
-0.741343
0.7416
0.00237382
-0.00267472
-0.889139
0.88944
0.00302684
-0.00336433
-1.06607
1.06641
0.00374203
-0.00407847
-1.27792
1.27826
0.00441191
-0.00464819
-1.53185
1.53208
0.00476835
-0.00475711
-1.53023
1.53021
0.00463736
-0.00440917
-1.27436
1.27413
0.00414655
-0.00381055
-1.0616
1.06126
0.00347829
-0.00310113
-0.884334
0.883957
0.00275568
-0.0023846
-0.736818
0.736447
0.00205815
-0.0017184
-0.613967
0.613627
0.00142673
-0.00112851
-0.511653
0.511355
0.000875917
-0.000620385
-0.423137
0.422882
0.000407243
-0.000203433
-0.304113
0.303909
6.58629e-05
-0.0680705
0.0680047
-0.069156
0.0692361
-8.01117e-05
0.000444241
-0.000646096
-0.343975
0.344177
0.000878149
-0.0011058
-0.429262
0.42949
0.00137604
-0.00164336
-0.515442
0.51571
0.00196003
-0.00227163
-0.618693
0.619005
0.00263758
-0.00299336
-0.741904
0.74226
0.00340492
-0.00379669
-0.889784
0.890176
0.00423676
-0.00463829
-1.06677
1.06718
0.00506187
-0.0054119
-1.27859
1.27894
0.0057223
-0.00589827
-1.53229
1.53246
0.00592759
-0.00580192
-1.53014
1.53002
0.00557618
-0.00523684
-1.27385
1.27351
0.00487294
-0.00443883
-1.06088
1.06044
0.00402663
-0.00357219
-0.883545
0.883091
0.00316434
-0.00273285
-0.736049
0.735618
0.00235744
-0.00196972
-0.613267
0.61288
0.00163869
-0.00130145
-0.511041
0.510704
0.0010163
-0.00072689
-0.422612
0.422323
0.000482641
-0.000244552
-0.30369
0.303452
8.02766e-05
-0.0679321
0.0678518
-0.0693277
0.0694322
-0.000104522
0.000588527
-0.000862153
-0.344413
0.344687
0.00117937
-0.00149113
-0.429758
0.43007
0.00186097
-0.00222584
-0.516024
0.516389
0.0026562
-0.00307718
-0.619369
0.61979
0.00356748
-0.00403954
-0.742671
0.743143
0.00457849
-0.00508347
-0.890621
0.891126
0.0056392
-0.00613339
-1.06762
1.06811
0.00663706
-0.00703328
-1.27931
1.27971
0.00735583
-0.00749975
-1.53262
1.53276
0.00745727
-0.00722566
-1.52984
1.52961
0.0068897
-0.00642667
-1.27311
1.27265
0.00594943
-0.00539459
-1.05995
1.0594
0.00487766
-0.00431567
-0.882586
0.882024
0.00381641
-0.00329255
-0.735144
0.73462
0.00283934
-0.00237353
-0.612456
0.611991
0.00197701
-0.00157402
-0.510337
0.509934
0.00123351
-0.000887224
-0.422008
0.421662
0.000592924
-0.000302845
-0.30319
0.3029
0.000100199
-0.0677623
0.0676621
-0.0695512
0.0696867
-0.000135499
0.000767438
-0.0011276
-0.345001
0.345362
0.00154662
-0.00195858
-0.430429
0.430841
0.00244669
-0.00292743
-0.516809
0.51729
0.00349333
-0.00404538
-0.620273
0.620825
0.00468607
-0.00529994
-0.743682
0.744296
0.0059965
-0.00664391
-0.891698
0.892346
0.00734894
-0.00796722
-1.06867
1.06928
0.00858502
-0.0090568
-1.28014
1.28061
0.00941911
-0.00954898
-1.5329
1.53303
0.00944231
-0.0090999
-1.52932
1.52898
0.00864051
-0.00802934
-1.27211
1.2715
0.00741221
-0.00670404
-1.05877
1.05806
0.00605097
-0.00534609
-0.881396
0.880691
0.00472362
-0.0040728
-0.734038
0.733387
0.00351145
-0.00293554
-0.611474
0.610898
0.00244626
-0.00194957
-0.509487
0.508991
0.00153006
-0.00110319
-0.421278
0.420851
0.000739353
-0.000378944
-0.302577
0.302217
0.000125741
-0.0675499
0.0674241
-0.0698409
0.0700163
-0.00017547
0.000995013
-0.00146318
-0.345772
0.346241
0.00200835
-0.00254434
-0.431311
0.431847
0.00317929
-0.00380407
-0.517838
0.518463
0.00453856
-0.00525383
-0.621454
0.62217
0.00608219
-0.00687355
-0.744994
0.745785
0.00776827
-0.00859589
-0.893078
0.893905
0.00949163
-0.0102706
-1.06998
1.07076
0.0110399
-0.0116162
-1.28113
1.28171
0.0120415
-0.0121674
-1.53316
1.53328
0.0119924
-0.0115221
-1.52858
1.52811
0.0109139
-0.01012
-1.2708
1.27001
0.00932711
-0.00842405
-1.05726
1.05636
0.0075957
-0.00670509
-0.879899
0.879008
0.00592098
-0.00510321
-0.732658
0.73184
0.00439921
-0.00367815
-0.610255
0.609534
0.00306608
-0.00244488
-0.508436
0.507815
0.0019201
-0.00138572
-0.420374
0.41984
0.000929595
-0.000476818
-0.301813
0.30136
0.000158256
-0.0672832
0.0671249
-0.0702162
0.0704441
-0.000227884
0.00128944
-0.00189541
-0.346773
0.347379
0.00260105
-0.0032947
-0.432457
0.433151
0.00411586
-0.00492323
-0.519173
0.519981
0.00587146
-0.00679377
-0.622982
0.623904
0.00786006
-0.00887672
-0.746682
0.747699
0.0100229
-0.0110795
-0.894841
0.895897
0.0122176
-0.0132013
-1.07163
1.07262
0.0141641
-0.0148753
-1.28235
1.28306
0.0153841
-0.0155094
-1.53341
1.53353
0.0152525
-0.014624
-1.52756
1.52693
0.0138305
-0.0128063
-1.26911
1.26808
0.0117904
-0.0106391
-1.05534
1.05419
0.00958641
-0.00845767
-0.878006
0.876877
0.00746546
-0.00643222
-0.730921
0.729888
0.00554368
-0.00463426
-0.608724
0.607814
0.00386278
-0.00308029
-0.507118
0.506336
0.00241963
-0.00174687
-0.419241
0.418568
0.00117223
-0.000601317
-0.300852
0.300281
0.00019947
-0.0669472
0.0667477
-0.0707041
0.0710012
-0.000297107
0.00167431
-0.00245859
-0.348069
0.348853
0.00337129
-0.00426829
-0.43394
0.434837
0.00532929
-0.0063717
-0.520898
0.521941
0.0075946
-0.00878235
-0.624951
0.626139
0.0101531
-0.0114571
-0.74885
0.750154
0.0129234
-0.0142702
-0.89709
0.898437
0.0157147
-0.0169559
-1.07372
1.07496
0.0181607
-0.0190389
-1.28385
1.28473
0.0196491
-0.0197693
-1.53366
1.53378
0.0194054
-0.018574
-1.52621
1.52538
0.0175438
-0.0162263
-1.26692
1.2656
0.014927
-0.0134597
-1.05289
1.05142
0.0121218
-0.0106898
-0.875606
0.874174
0.00943297
-0.00812547
-0.728726
0.727418
0.00700181
-0.00585228
-0.606792
0.605643
0.00487735
-0.00388881
-0.505456
0.504468
0.00305435
-0.00220461
-0.417812
0.416962
0.00147882
-0.000757982
-0.29964
0.298919
0.000251126
-0.066524
0.0662728
-0.0713414
0.0717313
-0.000389899
0.00218397
-0.00320158
-0.349746
0.350763
0.00438438
-0.00554627
-0.435857
0.437019
0.00691904
-0.00826622
-0.523125
0.524472
0.00984443
-0.0113747
-0.627487
0.629017
0.0131371
-0.0148094
-0.751631
0.753303
0.0166834
-0.0183978
-0.899957
0.901671
0.020227
-0.0217882
-1.07635
1.07792
0.0232893
-0.024367
-1.2857
1.28678
0.0250902
-0.0251901
-1.53389
1.53399
0.0246796
-0.0235831
-1.52442
1.52333
0.0222489
-0.0205575
-1.26411
1.26242
0.018898
-0.0170302
-1.04976
1.0479
0.0153309
-0.0135149
-0.872561
0.870745
0.0119229
-0.0102678
-0.725947
0.724292
0.0088462
-0.00739244
-0.60435
0.602897
0.00615999
-0.00491052
-0.503357
0.502107
0.00385581
-0.00278185
-0.416007
0.414933
0.00186473
-0.000954606
-0.298109
0.297199
0.000315682
-0.065991
0.0656753
-0.0721802
0.0726969
-0.000516733
0.00287001
-0.00419702
-0.351924
0.353251
0.00573639
-0.00724719
-0.438343
0.439853
0.00902926
-0.0107754
-0.526006
0.527752
0.0128169
-0.0147918
-0.630755
0.63273
0.0170596
-0.0192038
-0.755197
0.757341
0.0215963
-0.0237734
-0.903604
0.905781
0.0260804
-0.0280324
-1.07966
1.08162
0.0298864
-0.0311919
-1.28797
1.28927
0.0320283
-0.0320762
-1.53407
1.53412
0.0313591
-0.0299132
-1.52207
1.52062
0.0281877
-0.0260206
-1.26051
1.25834
0.0239058
-0.0215328
-1.04579
1.04342
0.0193782
-0.0170785
-0.868701
0.866402
0.015064
-0.0129707
-0.722431
0.720337
0.0111735
-0.00933603
-0.601262
0.599424
0.00777843
-0.00619921
-0.500702
0.499123
0.00486605
-0.0035086
-0.413726
0.412368
0.00234993
-0.00120127
-0.296176
0.295028
0.000396436
-0.0653217
0.0649253
-0.0732965
0.0739899
-0.000693496
0.00381074
-0.00555625
-0.354767
0.356513
0.00757511
-0.00955271
-0.441578
0.443555
0.0118782
-0.0141505
-0.529743
0.532015
0.0167991
-0.0193529
-0.634977
0.637531
0.0222736
-0.0250218
-0.75977
0.762518
0.0280699
-0.0308227
-0.908231
0.910984
0.0337124
-0.0361282
-1.08379
1.08621
0.0383847
-0.0399319
-1.2907
1.29225
0.0408583
-0.0407954
-1.53412
1.53406
0.0397844
-0.0378773
-1.51896
1.51705
0.0356498
-0.0328817
-1.25589
1.25312
0.030195
-0.0271905
-1.04075
1.03774
0.0244673
-0.0215635
-0.863816
0.860912
0.0190207
-0.0163788
-0.717984
0.715343
0.0141102
-0.0117903
-0.597359
0.595039
0.0098231
-0.00782796
-0.497348
0.495353
0.0061431
-0.00442707
-0.410843
0.409127
0.00296253
-0.00151211
-0.293738
0.292287
0.000497906
-0.064481
0.063983
-0.0748053
0.0757576
-0.000952246
0.0051527
-0.00748472
-0.358505
0.360837
0.0101647
-0.0127756
-0.445816
0.448427
0.0158262
-0.0187935
-0.53462
0.537587
0.022237
-0.0255433
-0.640447
0.643753
0.0293047
-0.0328203
-0.765632
0.769148
0.0366856
-0.0401393
-0.914071
0.917525
0.0437157
-0.0466554
-1.08888
1.09182
0.0493374
-0.0511065
-1.29391
1.29568
0.0520561
-0.0517822
-1.5339
1.53363
0.0503523
-0.0478392
-1.51486
1.51235
0.0449764
-0.0414593
-1.25
1.24648
0.0380669
-0.0342838
-1.03437
1.03058
0.0308594
-0.0272086
-0.857652
0.854001
0.0240113
-0.0206876
-0.712375
0.709051
0.0178319
-0.0149089
-0.592432
0.589509
0.0124274
-0.00990721
-0.493112
0.490592
0.00777544
-0.00560116
-0.407202
0.405027
0.00374474
-0.00190846
-0.290659
0.288822
0.000627386
-0.0634246
0.0627972
-0.0768881
0.0782574
-0.00136932
0.00721272
-0.010409
-0.363468
0.366664
0.0140195
-0.0174858
-0.451427
0.454893
0.0214896
-0.025362
-0.541035
0.544907
0.0298352
-0.0341117
-0.64756
0.651837
0.038945
-0.04342
-0.773129
0.777604
0.048277
-0.0525484
-0.921369
0.925641
0.056885
-0.0603635
-1.09502
1.0985
0.0634303
-0.0653374
-1.29753
1.29944
0.0661722
-0.065527
-1.53319
1.53255
0.0635062
-0.0602082
-1.50947
1.50617
0.0565543
-0.0521257
-1.24253
1.2381
0.0478822
-0.0431637
-1.02635
1.02163
0.0388954
-0.034342
-0.849911
0.845358
0.0303492
-0.0261919
-0.705316
0.701159
0.0226138
-0.0189442
-0.586218
0.582548
0.0158208
-0.0126379
-0.487762
0.484579
0.00993312
-0.00716136
-0.402599
0.399827
0.00478716
-0.00243889
-0.286767
0.284419
0.000803144
-0.062094
0.0612908
-0.0798477
0.0819894
-0.00214175
0.0107282
-0.0152126
-0.370174
0.374658
0.0200894
-0.0246458
-0.458995
0.463552
0.0298445
-0.0348697
-0.549575
0.5546
0.0406678
-0.046189
-0.65683
0.662351
0.0523733
-0.0580128
-0.782636
0.788276
0.0640093
-0.0691568
-0.930311
0.935459
0.0742349
-0.0781662
-1.10219
1.10613
0.0814603
-0.0833166
-1.30133
1.30319
0.0837966
-0.0825426
-1.53162
1.53037
0.0797049
-0.0754122
-1.5024
1.49811
0.0708014
-0.0653002
-1.23315
1.22765
0.0600697
-0.0542707
-1.01638
1.01058
0.0490277
-0.0434268
-0.840267
0.834666
0.0385052
-0.0333667
-0.69647
0.691331
0.0289313
-0.0243683
-0.57838
0.573817
0.0204666
-0.0164634
-0.480986
0.476983
0.0130249
-0.00945268
-0.396768
0.393195
0.00634676
-0.00324739
-0.281836
0.278736
0.00108044
-0.0604071
0.0593267
-0.0842762
0.0880188
-0.00374262
0.0173357
-0.0235984
-0.379598
0.385861
0.0300251
-0.0358992
-0.469482
0.475356
0.0426049
-0.0491415
-0.561034
0.56757
0.0566929
-0.0637955
-0.668804
0.675907
0.0715829
-0.0784875
-0.79442
0.801324
0.0855912
-0.0914771
-0.940855
0.946741
0.0970541
-0.101153
-1.11008
1.11418
0.104317
-0.105777
-1.30482
1.30628
0.105522
-0.103327
-1.52864
1.52645
0.0993931
-0.0938758
-1.4932
1.48768
0.0881502
-0.0814461
-1.22153
1.21483
0.0751344
-0.0681672
-1.00417
0.997206
0.0618739
-0.0551436
-0.82842
0.82169
0.0492147
-0.0430027
-0.685483
0.679271
0.0376189
-0.0320588
-0.568508
0.562947
0.0272731
-0.0223076
-0.472347
0.467381
0.0179609
-0.0133023
-0.389302
0.384643
0.00907338
-0.00471215
-0.275535
0.271174
0.00159274
-0.0582373
0.0566446
-0.0915396
0.0990323
-0.00749278
0.0315123
-0.0401339
-0.393661
0.402282
0.048244
-0.055733
-0.484216
0.491705
0.0644635
-0.0729445
-0.576169
0.58465
0.0825298
-0.0912053
-0.683765
0.69244
0.100308
-0.10802
-0.808323
0.816035
0.115611
-0.121604
-0.952457
0.95845
0.126968
-0.130589
-1.11789
1.12151
0.132949
-0.133428
-1.30716
1.30764
0.131871
-0.128283
-1.52349
1.5199
0.122908
-0.115925
-1.48138
1.4744
0.108946
-0.100963
-1.20743
1.19945
0.0935457
-0.085425
-0.989579
0.981459
0.0781136
-0.0702988
-0.814228
0.806413
0.0634056
-0.0561652
-0.672137
0.664896
0.049867
-0.043328
-0.556242
0.549703
0.0376541
-0.0317063
-0.461308
0.45536
0.0263548
-0.0201945
-0.37954
0.373379
0.0140344
-0.00723532
-0.267121
0.260322
0.00237289
-0.0553171
0.0529442
-0.106935
0.109362
-0.0024268
0.0183001
-0.0265245
-0.41483
0.423055
0.0349049
-0.0432643
-0.504
0.512359
0.0532874
-0.0634603
-0.59475
0.604923
0.0744682
-0.0842339
-0.700915
0.71068
0.0950365
-0.104545
-0.823092
0.832601
0.114369
-0.122755
-0.963639
0.972025
0.131053
-0.137661
-1.12419
1.1308
0.143518
-0.147339
-1.30708
1.3109
0.149378
-0.148804
-1.51522
1.51464
0.145501
-0.139849
-1.46645
1.4608
0.133172
-0.124634
-1.19072
1.18219
0.116237
-0.106084
-0.972685
0.962532
0.096659
-0.0861533
-0.797894
0.787389
0.0766266
-0.0663705
-0.656664
0.646408
0.0570194
-0.0473725
-0.541747
0.5321
0.0391778
-0.0302898
-0.447776
0.438888
0.022421
-0.0139699
-0.366614
0.358163
0.00693926
-0.00169971
-0.254262
0.249023
-0.000339352
-0.0506557
0.0509951
-0.11645
0.110957
0.00549286
-0.0047445
-0.000826654
-0.435258
0.440829
0.0085692
-0.0161324
-0.523819
0.531383
0.0254416
-0.0341062
-0.615068
0.623733
0.0438304
-0.0526547
-0.720421
0.729246
0.0620299
-0.0704931
-0.841649
0.850112
0.0792525
-0.0864613
-0.980133
0.987341
0.0937874
-0.0993333
-1.13731
1.14286
0.104212
-0.107162
-1.31461
1.31756
0.108163
-0.106945
-1.51358
1.51237
0.103252
-0.0975162
-1.45478
1.44904
0.090849
-0.0826544
-1.17365
1.16546
0.0748168
-0.0658657
-0.952641
0.94369
0.057503
-0.0482153
-0.776873
0.767586
0.0399256
-0.0314278
-0.635345
0.626848
0.0242294
-0.0168963
-0.520893
0.51356
0.0107873
-0.00491355
-0.427506
0.421633
0.000309833
0.00371157
-0.347489
0.343468
-0.0056212
0.00509354
-0.240692
0.24122
-0.00263219
-0.0488642
0.0514964
-0.112717
0.108519
0.00419785
-0.00834313
0.00541964
-0.450298
0.453222
-0.000525272
-0.00518896
-0.540751
0.546465
0.0123129
-0.0193148
-0.632392
0.639394
0.0272269
-0.034487
-0.737472
0.744732
0.042435
-0.0494929
-0.857803
0.864861
0.0566079
-0.0628096
-0.994301
1.0005
0.0689595
-0.0737151
-1.14802
1.15277
0.0775293
-0.0796304
-1.32001
1.32211
0.0802607
-0.0787763
-1.5108
1.50932
0.0751497
-0.0698682
-1.44322
1.43794
0.0639924
-0.0571584
-1.1578
1.15096
0.0504577
-0.043223
-0.935217
0.927982
0.0366433
-0.029521
-0.759427
0.752305
0.0235037
-0.017374
-0.618851
0.612721
0.0124149
-0.007376
-0.505657
0.500618
0.00358863
-0.000258229
-0.413954
0.410623
-0.00215367
0.00408329
-0.336544
0.334614
-0.00465968
0.00345731
-0.235291
0.236493
-0.00171383
-0.0500584
0.0517722
-0.109888
0.106656
0.00323119
-0.00793851
0.00648107
-0.460608
0.462066
-0.00312319
-0.00139143
-0.553328
0.557843
0.0071677
-0.0126096
-0.645943
0.651385
0.0189304
-0.0247745
-0.751553
0.757397
0.031175
-0.0368963
-0.871325
0.877046
0.0430361
-0.0480412
-1.0062
1.0112
0.0532083
-0.0567778
-1.1571
1.16067
0.0598996
-0.0615341
-1.32408
1.32571
0.0617396
-0.0599815
-1.50768
1.50593
0.0567773
-0.0522775
-1.43266
1.42816
0.0473319
-0.0414108
-1.14454
1.13862
0.036008
-0.030304
-0.921187
0.915483
0.0250587
-0.019756
-0.745937
0.740634
0.0149849
-0.0103608
-0.606728
0.602104
0.00659047
-0.00305273
-0.495188
0.491651
0.000464737
0.00184232
-0.405153
0.402846
-0.00346418
0.00431344
-0.32938
0.328531
-0.00452481
0.00319743
-0.231477
0.232805
-0.00150675
-0.0501721
0.0516788
-0.108695
0.106344
0.00235117
-0.0063126
0.0056452
-0.468087
0.468755
-0.00277751
-0.000725402
-0.563318
0.566821
0.00514504
-0.00978633
-0.656714
0.661356
0.0148272
-0.0197453
-0.762748
0.767666
0.0250246
-0.029761
-0.88228
0.887017
0.034782
-0.0390365
-1.01598
1.02024
0.0431839
-0.0463179
-1.16404
1.16718
0.0488002
-0.0499919
-1.32703
1.32822
0.0499046
-0.0481074
-1.50416
1.50237
0.0451381
-0.0409757
-1.42339
1.41923
0.0367013
-0.0318145
-1.13313
1.12824
0.027343
-0.0225551
-0.910023
0.905235
0.0183739
-0.0140657
-0.735569
0.731261
0.0103882
-0.00671654
-0.59762
0.593948
0.00380372
-0.00109228
-0.487471
0.48476
-0.00102811
0.00276872
-0.398751
0.397011
-0.00369077
0.00433211
-0.324389
0.323747
-0.00440597
0.00288355
-0.228528
0.230051
-0.0013676
-0.0502637
0.0516313
-0.108575
0.106531
0.00204426
-0.00520496
0.00439403
-0.474036
0.474847
-0.00222079
-0.00091687
-0.570903
0.574041
0.00506546
-0.00890705
-0.665499
0.66934
0.013127
-0.017285
-0.772002
0.77616
0.0218389
-0.025939
-0.891407
0.895507
0.0303884
-0.0339501
-1.02416
1.02772
0.0374978
-0.0401363
-1.16995
1.17259
0.0420863
-0.0428631
-1.3291
1.32988
0.0424217
-0.0408163
-1.5005
1.4989
0.0378638
-0.0341207
-1.41487
1.41112
0.0302395
-0.0258918
-1.12349
1.11914
0.0222046
-0.0179907
-0.900674
0.89646
0.0144046
-0.0108887
-0.727174
0.723658
0.00784256
-0.00481381
-0.590488
0.587459
0.00238548
2.63859e-05
-0.481513
0.479102
-0.00158977
0.00294891
-0.393746
0.392387
-0.00387213
0.00425866
-0.320256
0.319869
-0.0040939
0.00273599
-0.226304
0.227662
-0.00125276
-0.0503534
0.0516061
-0.108793
0.107168
0.00162476
-0.00399486
0.00320803
-0.479394
0.48018
-0.000902625
-0.00175018
-0.577797
0.58045
0.00555426
-0.00903866
-0.673048
0.676532
0.0130971
-0.0166618
-0.780123
0.783687
0.0206296
-0.0242061
-0.899587
0.903163
0.0283706
-0.0314972
-1.03125
1.03437
0.034455
-0.0367732
-1.17494
1.17726
0.0386629
-0.039083
-1.33054
1.33096
0.0384083
-0.0364971
-1.49681
1.4949
0.0337324
-0.0298184
-1.40721
1.4033
0.0262881
-0.0224074
-1.11481
1.11093
0.0189574
-0.0153767
-0.892504
0.888923
0.0121978
-0.00897009
-0.720104
0.716876
0.00655176
-0.00386378
-0.58445
0.581762
0.00165367
0.000290523
-0.476411
0.474467
-0.00177386
0.00310548
-0.389766
0.388434
-0.00379683
0.00405684
-0.317053
0.316793
-0.00380106
0.00254929
-0.224513
0.225764
-0.00118923
-0.0504739
0.0516631
-0.10946
0.108123
0.00133703
-0.00291477
0.00212832
-0.484329
0.485115
0.00038974
-0.0030718
-0.584036
0.586718
0.00662153
-0.00980808
-0.679947
0.683134
0.0133587
-0.0168931
-0.787375
0.790909
0.0206147
-0.0243793
-0.906596
0.91036
0.0278904
-0.0308214
-1.03753
1.04046
0.0338095
-0.0357497
-1.17935
1.18129
0.036939
-0.0374207
-1.33107
1.33155
0.0364631
-0.034342
-1.49279
1.49067
0.0312711
-0.0274912
-1.39944
1.39566
0.0239876
-0.0202299
-1.1068
1.10304
0.0170448
-0.0137119
-0.885352
0.882019
0.0108303
-0.00807579
-0.713843
0.711088
0.0056491
-0.00333199
-0.579086
0.576769
0.00147524
0.000416374
-0.472195
0.470304
-0.00184633
0.00283858
-0.386147
0.385155
-0.00351926
0.00381754
-0.314282
0.313984
-0.00359816
0.00239973
-0.223085
0.224283
-0.00114508
-0.050725
0.0518701
-0.110555
0.109368
0.00118751
-0.00172893
0.000687495
-0.489156
0.490197
0.00181298
-0.00456708
-0.590024
0.592779
0.00789388
-0.0111099
-0.68656
0.689776
0.0146729
-0.0179835
-0.794411
0.797721
0.0219462
-0.0250748
-0.913644
0.916773
0.028616
-0.0313761
-1.04349
1.04625
0.0341835
-0.0361443
-1.18307
1.18503
0.0373004
-0.0371769
-1.33153
1.33141
0.035943
-0.0335234
-1.4881
1.48568
0.0303563
-0.0262239
-1.3915
1.38737
0.0226562
-0.0188773
-1.09931
1.09553
0.0158044
-0.0125775
-0.878562
0.875335
0.00997538
-0.00733511
-0.708254
0.705614
0.00512698
-0.00296941
-0.574418
0.57226
0.00117666
0.000345309
-0.468263
0.466741
-0.00171962
0.00268014
-0.382976
0.382015
-0.00341698
0.00364172
-0.311786
0.311562
-0.00335985
0.00234947
-0.221851
0.222861
-0.00106151
-0.0510587
0.0521202
-0.111787
0.110948
0.000838851
-0.000729388
-0.000867758
-0.494111
0.495708
0.00325879
-0.00608467
-0.59559
0.598416
0.00922137
-0.0124815
-0.693
0.696261
0.0160763
-0.0196742
-0.801056
0.804654
0.0232373
-0.026634
-0.920144
0.923541
0.0302314
-0.0328337
-1.04938
1.05199
0.0356718
-0.0374423
-1.18665
1.18842
0.0383387
-0.0382555
-1.33135
1.33127
0.0367601
-0.0337623
-1.48279
1.4798
0.0299434
-0.0256136
-1.38298
1.37865
0.0219212
-0.017981
-1.0915
1.08756
0.0148108
-0.0118633
-0.872101
0.869154
0.00907398
-0.0067595
-0.702885
0.70057
0.00474425
-0.00269996
-0.570295
0.568251
0.00120297
0.000297488
-0.464743
0.463242
-0.00148131
0.0025627
-0.380313
0.379232
-0.00315168
0.00337643
-0.3096
0.309375
-0.00325608
0.00229518
-0.220856
0.221816
-0.00104874
-0.0514039
0.0524526
-0.113354
0.112708
0.000645819
0.00010494
-0.0016965
-0.499283
0.500874
0.004723
-0.00737477
-0.601481
0.604133
0.0107921
-0.0140957
-0.699318
0.702621
0.0177508
-0.0211684
-0.808082
0.811499
0.0250327
-0.028291
-0.927005
0.930263
0.0319721
-0.0350411
-1.05498
1.05804
0.0375367
-0.0394911
-1.19008
1.19204
0.0404776
-0.040009
-1.33073
1.33026
0.0380823
-0.0348191
-1.47639
1.47312
0.0303099
-0.0255073
-1.37367
1.36887
0.0212509
-0.0171235
-1.08345
1.07932
0.0139908
-0.0109823
-0.865895
0.862887
0.00846907
-0.00626381
-0.697974
0.695769
0.00443029
-0.00251719
-0.566287
0.564374
0.00106306
0.000214756
-0.461595
0.460317
-0.00144563
0.0024125
-0.377715
0.376748
-0.00302049
0.00327827
-0.307571
0.307313
-0.00308659
0.0021577
-0.220159
0.221088
-0.000976845
-0.0518757
0.0528525
-0.115148
0.114762
0.000385892
0.00126037
-0.00301094
-0.504641
0.506392
0.00588594
-0.00880866
-0.607253
0.610176
0.0122808
-0.0156045
-0.705762
0.709086
0.0195372
-0.0230056
-0.815019
0.818487
0.0269366
-0.030484
-0.934036
0.937583