/*--------------------------------*- C++ -*----------------------------------*\
| =========                 |                                                 |
| \\      /  F ield         | OpenFOAM: The Open Source CFD Toolbox           |
|  \\    /   O peration     | Version:  4.0                                   |
|   \\  /    A nd           | Web:      www.OpenFOAM.org                      |
|    \\/     M anipulation  |                                                 |
\*---------------------------------------------------------------------------*/
FoamFile
{
    version     2.0;
    format      ascii;
    class       volScalarField;
    location    "16";
    object      p;
}
// * * * * * * * * * * * * * * * * * * * * * * * * * * * * * * * * * * * * * //

dimensions      [0 2 -2 0 0 0 0];

internalField   nonuniform List<scalar> 
918
(
0.229739
0.909855
0.00853215
0.229056
-0.000640003
0.876962
-0.840945
0.412826
0.209797
-0.295722
0.0174284
0.201106
0.737604
0.505317
-1.46691
0.010337
0.36735
-0.730828
0.20851
0.0056506
0.484726
0.216512
0.219499
0.210044
0.26793
0.496681
0.618414
0.00304012
-0.00270835
-0.00215996
0.0034645
-0.00409593
0.00177671
0.760579
0.811695
0.83436
0.180262
0.0114283
-0.690866
-0.769303
-0.757117
-0.902472
0.402219
0.405785
-0.486759
0.415341
0.430901
0.197263
0.209118
0.210087
0.211268
0.210124
0.211538
0.19784
-0.348268
-0.399686
-0.212583
-0.155324
0.0607318
0.0177252
0.00981711
0.0247998
0.0212014
0.138698
0.197562
0.196044
0.207044
0.215274
0.849404
0.821285
0.847423
0.761257
0.777689
0.71552
0.688011
0.524792
0.546363
0.491829
0.479608
-1.90902
-2.87903
-0.866164
-0.606594
0.00122365
0.0165762
0.0215598
0.351813
0.359461
0.360262
0.373185
0.786291
-0.718668
-0.839619
0.208475
0.207388
0.216258
0.216907
0.21292
0.212036
0.0120977
0.017187
-0.00454878
0.00322789
0.0025037
0.464842
0.462023
0.210527
0.207436
0.223296
0.245371
0.235329
-0.0182484
0.281144
0.304613
0.298783
0.475899
0.475547
0.482219
0.591927
0.555501
0.655496
0.678735
0.00934701
0.00254085
0.00786891
0.00604478
0.00817136
0.175016
0.168789
0.191551
0.182743
0.184699
-0.0693777
-0.205009
0.0926497
0.110972
-0.59156
-0.661992
-0.786347
-0.789099
-0.911374
0.207409
0.38744
0.392028
-0.500266
-0.417226
-0.567123
-0.343081
-0.41593
0.188585
0.195074
0.190235
0.204628
0.199144
0.201084
0.213466
0.210507
0.212043
0.231762
0.32499
0.116703
0.130429
-0.601688
-0.462505
-0.563469
-0.0959708
-0.0691585
0.0645234
0.0714766
0.0507809
0.0477289
-0.0350473
0.000953876
-0.0190446
0.0227242
0.0217983
0.132358
0.123505
0.147475
0.153917
0.189049
0.190186
0.19337
0.192616
0.638603
0.661055
0.668607
0.642207
-3.88704
-6.70538
-0.273615
-0.129459
0.00233766
0.00265518
0.00107915
0.00305733
0.00317751
0.00139055
0.027625
0.0259011
0.024033
0.0268055
0.336283
0.342083
0.73685
0.724607
0.702689
0.676577
0.196739
0.19882
0.204215
0.199991
0.0220897
0.0191238
0.0224009
0.429662
0.44845
0.448093
-0.0522804
-0.141171
0.0295189
0.0564984
0.3231
0.30839
0.325852
0.363915
0.402198
0.686145
0.704527
0.702766
0.711228
0.75518
0.771507
0.736952
0.158581
0.166001
0.162144
0.196174
0.192863
0.193859
0.189088
0.191038
0.188246
-0.359307
-0.747418
0.159163
0.168462
0.147047
0.149756
0.291811
0.378601
0.367912
0.37721
0.380719
-0.277725
-0.345313
0.111876
0.110371
0.0810389
0.111739
0.0955358
0.609904
0.570166
0.620166
0.593529
0.554882
0.58093
-0.701025
-2.22867
-1.33237
0.238419
0.0417692
0.134507
0.0439685
0.0281187
0.0358059
0.68226
0.759502
0.39552
0.572674
0.53308
0.441304
0.472034
0.529489
0.453998
0.48925
0.52477
0.503584
0.164302
0.158925
0.139691
0.463015
0.521942
-0.167149
-0.214741
-0.27332
0.0745376
0.0901046
0.0937449
0.72695
0.590254
0.68179
0.207448
0.208107
0.0122945
0.0227354
0.212215
0.212359
0.0064657
0.00694627
0.112971
-1.18124
-0.171672
0.200691
0.190994
0.207685
-0.365967
0.240985
0.0109422
0.0775957
0.0494369
0.199939
0.148769
0.114625
0.00642537
0.0164257
0.0118325
-0.547879
0.20512
0.203431
0.207303
0.208266
0.208995
0.00770942
0.0101352
0.00698536
0.00990611
0.0101411
0.0072542
0.174551
0.187969
-0.48875
0.207318
0.209518
0.209346
0.202695
0.208044
0.206047
0.0142185
0.0088049
0.00833077
-0.0666093
0.0483413
0.372288
0.486685
0.318777
0.0924973
-0.152448
0.268185
0.337441
0.233219
0.403262
0.370253
0.399738
-0.11302
-0.26018
-0.105543
-0.161729
0.198134
0.197053
0.189461
0.187767
0.202895
0.201085
0.205376
0.202479
0.20507
0.206374
-0.287872
-0.210864
-0.419755
-0.466555
0.162626
0.354358
0.114294
0.102527
0.119659
0.0159874
0.0208428
0.00790026
0.00529108
0.0356732
0.049282
0.0721869
0.0536973
0.0494168
0.0312773
0.0327043
0.0419852
0.0425775
0.19466
0.19198
0.199151
0.206041
0.155937
0.15932
0.130805
0.146148
0.136436
0.0807335
0.112432
0.0916523
0.00729532
0.00742606
0.00518755
0.0195575
0.0234305
0.0119048
0.00936506
0.0127483
0.0102189
0.00912445
0.0144306
0.0172159
-0.518836
-0.60817
0.665813
0.550279
-0.274413
0.194032
0.200483
0.197049
0.202263
0.205386
0.206011
0.203755
0.200664
0.188639
0.190954
0.186722
0.186457
-0.430382
-0.566538
-0.384643
-0.450257
-0.180574
0.313
0.059608
0.00104433
-0.00325496
0.205208
0.572023
0.386249
0.439233
0.465797
-0.680512
-0.280304
-0.61007
0.000424662
-0.175632
0.37323
0.425849
0.448499
0.394618
0.342558
-0.437171
0.201062
-0.359453
-0.32256
-0.131231
-0.230819
0.417073
0.354134
0.362313
0.387551
0.410561
0.363554
0.343998
0.343103
0.378144
0.383105
0.176619
-0.0325792
-0.0800881
-0.114834
0.339533
0.218258
0.273548
0.192288
0.192922
0.196284
0.195083
0.179063
0.18525
0.180291
0.186309
0.188732
0.198631
0.19818
0.194137
0.196637
-0.128057
-0.0865314
-0.379272
-0.527431
-0.509305
-0.545789
-0.479363
-0.577143
-0.451733
-0.298994
-0.00736095
-0.663847
-0.544719
-0.573316
-0.540748
-0.479864
-0.441588
0.0581553
0.132113
0.0631497
0.105862
0.131632
0.142143
0.022712
0.0185525
-0.00597169
0.0122864
0.068147
0.0765369
0.0906219
0.0342506
0.031065
0.0210898
0.0205608
-0.0109772
-0.0189828
-0.00797859
-0.00311224
0.0196868
0.0210933
0.0249732
0.0324438
0.0322655
0.0376803
0.186854
0.188174
0.18761
0.201356
0.211878
0.226361
0.196068
0.173783
0.166699
0.167474
0.146012
0.152627
0.150932
0.160977
0.179082
0.186533
0.184223
0.186961
0.173395
0.174572
0.161355
0.165285
0.147028
0.129735
0.119179
0.0157489
0.010033
0.0123167
0.0130262
0.0093415
0.0106215
0.0357515
0.0291657
0.0332363
0.0270569
0.0285941
0.0159943
0.0157219
-0.452588
-0.398713
-0.519868
-0.546579
-0.618795
0.566711
0.688148
0.489556
0.291503
0.298494
0.520637
0.650114
0.308596
0.366273
0.483841
0.181598
0.486617
0.19908
0.199202
0.196852
0.196073
0.196799
-0.338968
-0.23929
-0.228004
-0.174207
-0.0559535
0.0575353
-0.0626766
-0.133284
-0.0021192
0.0131558
0.308276
0.323646
0.26727
0.293215
0.292039
0.120224
0.195655
0.24713
0.204663
0.245861
0.267031
0.232481
0.259556
0.208108
0.168797
0.168161
0.116971
0.133382
0.111607
0.0966553
0.189336
0.169266
0.178723
0.170741
0.190452
0.218077
0.212915
0.236227
0.250403
0.178582
0.140033
0.14949
0.176776
0.138779
0.150962
0.163885
-0.136213
-0.229494
-0.146421
-0.424833
-0.329316
-0.3467
-0.390185
-0.361183
-0.0740085
-0.773679
-0.738284
-1.37478
0.13859
0.605272
0.368075
0.335812
0.406109
0.380792
0.380829
0.415915
0.42512
0.330262
0.347541
0.349878
0.306637
0.331716
0.357079
0.357127
0.180964
0.0678211
0.0542824
0.0251284
-0.0971065
-0.0658958
0.140827
0.0628137
-0.010289
-0.00455835
0.156437
0.0529381
0.112624
0.149481
0.0837035
0.0414537
0.229754
0.299991
0.289762
0.263391
0.184257
0.197648
0.220413
0.25246
0.28
0.31741
0.187876
0.190925
0.192899
0.191304
0.18687
0.190211
0.190313
0.192489
0.193502
0.196108
0.195194
-0.00681859
-0.0155192
-0.0586874
-0.0279235
-0.256234
-0.295513
-0.372737
-0.32704
-0.0260308
-0.0564815
-0.178705
-0.0941041
-0.0593603
-0.0386409
-0.0523135
-0.0670986
-0.20409
-0.261166
-0.261199
-0.0631245
0.0727572
-0.0258409
-0.326477
-0.216938
-0.163743
0.0155347
0.0530634
0.0465595
0.0408825
0.0408666
0.0255598
0.0221879
0.0197529
0.0233738
0.0237153
0.01997
0.0198014
0.0205282
0.0213372
0.0206953
0.020444
0.174496
0.168964
0.170215
0.165436
0.16496
0.17574
0.179592
0.181116
0.18571
0.187642
0.179235
0.18349
0.186236
0.0242488
0.0197694
0.0220955
0.0202187
0.0202381
0.0177096
0.0176636
-0.119561
-0.29757
-0.239508
-0.353777
-0.451705
-0.407881
0.144287
0.105541
0.131165
0.34899
0.213631
0.104512
0.179728
0.303062
0.00404712
0.17668
0.0206079
0.551741
0.420169
0.568145
0.223057
-0.10346
0.0455607
0.0917502
-0.0993206
-0.0158357
-0.00531346
-0.116458
-0.0820451
-0.0530796
0.0410038
-0.0819633
-0.119619
-0.369571
-0.199092
-0.0413566
-0.0619697
0.0691605
0.124565
-0.10689
-0.175761
-0.210186
0.294955
0.316714
0.333945
0.304006
0.326919
0.254352
0.244959
0.262367
0.272806
0.267571
-1.10853
-0.819159
-1.76634
-1.0862
-0.635938
0.170292
0.131147
0.400963
0.302747
0.380748
0.364412
0.330514
0.296454
0.302016
0.337656
0.0514285
0.15877
0.135752
0.137519
0.0447987
-0.0178371
0.265376
0.257476
0.29833
0.321646
0.288827
0.322354
0.183193
0.182923
0.185729
0.182396
0.180003
0.181832
-0.0560138
-0.0369977
-0.158265
-0.206085
-0.216982
-0.160845
0.0313148
0.0257303
0.0220267
0.0232462
0.0286038
0.0306773
-0.16115
-0.200042
-0.313122
-0.218839
-0.333009
-0.397365
-0.418474
-0.337713
-0.239626
-0.240895
0.103377
0.356103
0.195899
0.331606
0.165267
0.205394
0.132653
0.123538
0.151784
0.0355847
0.115598
-0.134928
-0.6329
-0.544258
0.410724
0.436737
0.227272
0.0359827
-0.190318
0.000495429
0.213969
0.155605
0.196572
0.261765
0.257055
-0.341846
-0.267468
-0.029403
0.193674
-0.105734
-0.117528
-0.127435
0.0455195
-0.013073
)
;

boundaryField
{
    wall-4
    {
        type            zeroGradient;
    }
    velocity-inlet-5
    {
        type            zeroGradient;
    }
    velocity-inlet-6
    {
        type            zeroGradient;
    }
    pressure-outlet-7
    {
        type            fixedValue;
        value           uniform 0;
    }
    wall-8
    {
        type            zeroGradient;
    }
    frontAndBackPlanes
    {
        type            empty;
    }
}


// ************************************************************************* //
