/*--------------------------------*- C++ -*----------------------------------*\
| =========                 |                                                 |
| \\      /  F ield         | OpenFOAM: The Open Source CFD Toolbox           |
|  \\    /   O peration     | Version:  4.0                                   |
|   \\  /    A nd           | Web:      www.OpenFOAM.org                      |
|    \\/     M anipulation  |                                                 |
\*---------------------------------------------------------------------------*/
FoamFile
{
    version     2.0;
    format      ascii;
    class       volScalarField;
    location    "72";
    object      p;
}
// * * * * * * * * * * * * * * * * * * * * * * * * * * * * * * * * * * * * * //

dimensions      [0 2 -2 0 0 0 0];

internalField   nonuniform List<scalar> 
8800
(
0.807895
0.76011
0.721424
0.692434
0.671578
0.656758
0.646179
0.638723
0.633938
0.631928
0.633248
0.637481
0.644158
0.653498
0.666294
0.68404
0.708824
0.74277
0.785324
0.844027
0.639137
0.646816
0.654297
0.657609
0.656111
0.651043
0.64457
0.638515
0.633822
0.631021
0.630794
0.63335
0.637878
0.643852
0.650642
0.656935
0.660585
0.659854
0.654442
0.645757
0.617528
0.623689
0.62782
0.630771
0.632829
0.633446
0.632358
0.63028
0.628303
0.627448
0.628467
0.630897
0.633732
0.63594
0.636565
0.63538
0.633048
0.629663
0.625107
0.621347
0.611698
0.61435
0.617107
0.619516
0.621161
0.622337
0.623099
0.623247
0.622994
0.623003
0.623819
0.625042
0.625922
0.626017
0.625429
0.624354
0.622549
0.619987
0.617589
0.616086
0.606291
0.607716
0.6095
0.611541
0.613336
0.614693
0.615706
0.616538
0.617202
0.617832
0.618556
0.619113
0.619258
0.619006
0.618334
0.617105
0.615423
0.613586
0.612284
0.611452
0.601179
0.6021
0.603347
0.604923
0.606569
0.608112
0.609425
0.610531
0.611552
0.612522
0.613296
0.613695
0.613708
0.61331
0.61246
0.611283
0.609974
0.608727
0.60791
0.607358
0.596229
0.5969
0.597868
0.599181
0.600605
0.602084
0.603555
0.604923
0.606187
0.607384
0.608304
0.608756
0.608737
0.608279
0.60751
0.606591
0.605601
0.604693
0.604114
0.603708
0.591392
0.591909
0.592699
0.593841
0.595136
0.596534
0.598016
0.599541
0.601044
0.602485
0.603608
0.60418
0.604233
0.603909
0.603352
0.602662
0.601917
0.601252
0.600825
0.600506
0.586595
0.587006
0.587669
0.588689
0.589914
0.59127
0.592756
0.594372
0.59608
0.597799
0.599183
0.599961
0.60022
0.600125
0.599799
0.599326
0.598791
0.598321
0.598006
0.597746
0.58175
0.582085
0.582659
0.583601
0.584781
0.586126
0.587654
0.589376
0.591284
0.593307
0.595027
0.596117
0.596667
0.596837
0.596751
0.59651
0.596175
0.595869
0.595638
0.59542
0.576767
0.577044
0.577558
0.578456
0.579621
0.580995
0.582603
0.584475
0.586624
0.589001
0.591145
0.592635
0.593534
0.594008
0.594186
0.594182
0.594047
0.593884
0.593722
0.593533
0.571555
0.571787
0.572262
0.573147
0.574337
0.575784
0.577515
0.579591
0.582049
0.584865
0.587526
0.589496
0.590806
0.59163
0.592104
0.592341
0.592414
0.592386
0.592281
0.592111
0.566018
0.566215
0.566671
0.567571
0.568829
0.570393
0.572304
0.574653
0.577502
0.580865
0.584153
0.586696
0.588486
0.589711
0.59052
0.591024
0.591317
0.591416
0.591358
0.591202
0.560052
0.560221
0.560675
0.56162
0.562986
0.564719
0.566876
0.569578
0.572922
0.57696
0.581008
0.584234
0.586592
0.588281
0.589473
0.590296
0.590812
0.591035
0.591017
0.590868
0.553535
0.553679
0.554147
0.555167
0.556687
0.55865
0.56113
0.564281
0.568246
0.573111
0.578076
0.58212
0.585152
0.587387
0.589018
0.590192
0.590963
0.591314
0.591334
0.591189
0.546324
0.546444
0.54694
0.548064
0.549791
0.552052
0.554946
0.558666
0.5634
0.569275
0.575346
0.580364
0.584193
0.587075
0.589225
0.590801
0.59186
0.592345
0.592399
0.592253
0.538228
0.538337
0.538872
0.540134
0.542124
0.544763
0.548184
0.552618
0.558303
0.565408
0.57281
0.578988
0.583755
0.587396
0.590169
0.59222
0.5936
0.594225
0.59431
0.594159
0.529017
0.529116
0.529711
0.531138
0.533462
0.536591
0.540679
0.546005
0.552864
0.561467
0.570463
0.578014
0.583891
0.588424
0.591935
0.594541
0.596283
0.597055
0.597169
0.597008
0.518369
0.518449
0.519132
0.520785
0.523548
0.527304
0.53223
0.538674
0.546986
0.557411
0.56831
0.577478
0.584657
0.590242
0.594592
0.597859
0.600006
0.600931
0.601067
0.600893
0.5059
0.505966
0.50675
0.508715
0.512037
0.516594
0.522592
0.53045
0.540568
0.553205
0.566363
0.57742
0.586105
0.592913
0.598246
0.602267
0.604854
0.605927
0.606078
0.605889
0.49104
0.491094
0.492022
0.494404
0.498468
0.504078
0.511471
0.521139
0.533512
0.54883
0.564648
0.577891
0.588292
0.596498
0.602965
0.60783
0.610875
0.612084
0.612238
0.61203
0.473002
0.473045
0.474188
0.477158
0.482236
0.489272
0.498522
0.51054
0.525745
0.544301
0.563215
0.57894
0.591283
0.601057
0.608767
0.614569
0.618065
0.619377
0.619519
0.61929
0.450602
0.450643
0.452137
0.455996
0.462536
0.471579
0.483374
0.498493
0.517259
0.53969
0.562154
0.58064
0.595116
0.60662
0.615676
0.622447
0.626339
0.627698
0.627807
0.627558
0.422055
0.422118
0.424209
0.429501
0.438325
0.450314
0.465701
0.484939
0.508151
0.53515
0.561599
0.583078
0.599829
0.61316
0.623659
0.631342
0.63551
0.636831
0.636885
0.636619
0.384267
0.384435
0.387758
0.395698
0.408372
0.424882
0.445389
0.470035
0.498683
0.530935
0.561729
0.586354
0.605458
0.62065
0.632596
0.641029
0.645271
0.646447
0.646426
0.646152
0.331307
0.33232
0.338937
0.352336
0.371712
0.395219
0.422795
0.454278
0.489325
0.527395
0.562746
0.590556
0.612006
0.629016
0.642267
0.65116
0.655205
0.656135
0.656037
0.655764
0.254084
0.261551
0.276877
0.300518
0.329876
0.362753
0.398967
0.43831
0.480435
0.524776
0.564969
0.596145
0.620093
0.639031
0.653464
0.662559
0.666235
0.666909
0.666762
0.666527
0.171127
0.188767
0.213596
0.248094
0.287837
0.330208
0.375091
0.422441
0.471975
0.523175
0.568983
0.604175
0.631034
0.652153
0.667806
0.676577
0.679468
0.679848
0.679725
0.679562
0.101937
0.122726
0.155391
0.199106
0.247997
0.299305
0.35259
0.40778
0.464558
0.522379
0.573475
0.612327
0.641704
0.664484
0.680497
0.688556
0.690914
0.691234
0.691167
0.691041
0.0452634
0.0677292
0.105985
0.156214
0.212327
0.271149
0.331864
0.394247
0.457823
0.521928
0.578001
0.620248
0.651859
0.675893
0.692118
0.699801
0.701913
0.702218
0.702192
0.702094
-0.00188256
0.0217722
0.0638591
0.119251
0.181167
0.246196
0.313286
0.382058
0.45186
0.521856
0.582658
0.628106
0.661822
0.687123
0.703754
0.71119
0.713189
0.713521
0.713531
0.713458
-0.0417753
-0.0174718
0.0275136
0.0869846
0.153783
0.224094
0.29673
0.371199
0.446699
0.522212
0.587539
0.63611
0.671935
0.698514
0.715592
0.723185
0.725203
0.725487
0.725524
0.725467
-0.0764693
-0.0517573
-0.00449873
0.058345
0.129274
0.204189
0.281757
0.361381
0.442144
0.522872
0.592565
0.644213
0.682141
0.710042
0.727815
0.735724
0.737783
0.73808
0.738111
0.738072
-0.107486
-0.0824271
-0.0333193
0.0324014
0.106903
0.185864
0.267864
0.352213
0.437902
0.523609
0.597546
0.652227
0.692276
0.721571
0.740147
0.7484
0.7506
0.750886
0.750912
0.750888
-0.135822
-0.110461
-0.0597777
0.00843372
0.0860755
0.168636
0.254641
0.343345
0.43367
0.524162
0.602265
0.659964
0.702127
0.732808
0.752149
0.760801
0.76316
0.763462
0.763472
0.763458
-0.162305
-0.136603
-0.0845185
-0.0141154
0.0663377
0.152122
0.241761
0.334489
0.42919
0.52432
0.606542
0.667235
0.711458
0.743504
0.763592
0.772609
0.775125
0.775444
0.77542
0.775402
-0.187332
-0.161289
-0.107884
-0.0356255
0.0473534
0.136037
0.228981
0.325435
0.42428
0.52392
0.61024
0.673929
0.720193
0.753503
0.774231
0.78355
0.786171
0.78648
0.786428
0.786398
-0.211375
-0.184911
-0.130481
-0.0563408
0.0288808
0.120173
0.216133
0.316033
0.41879
0.522814
0.613253
0.679989
0.72827
0.762764
0.783983
0.793478
0.796142
0.796432
0.796344
0.796299
-0.234575
-0.207649
-0.152278
-0.0764552
0.0107664
0.104407
0.203102
0.306177
0.412614
0.520906
0.615511
0.685398
0.735728
0.771285
0.792833
0.802375
0.804996
0.805255
0.805137
0.805076
-0.25709
-0.229768
-0.173365
-0.0960897
-0.00707208
0.0886691
0.189826
0.295804
0.405687
0.518112
0.616939
0.690149
0.742637
0.77921
0.800918
0.810292
0.81281
0.813022
0.812882
0.812804
-0.279057
-0.251256
-0.193882
-0.115302
-0.0246864
0.0729276
0.176291
0.284901
0.397974
0.514361
0.617469
0.694244
0.749121
0.78672
0.808376
0.817389
0.819685
0.819818
0.819659
0.81957
-0.30055
-0.272164
-0.213912
-0.134112
-0.0420704
0.0571875
0.162516
0.273482
0.389467
0.509602
0.617026
0.697663
0.755279
0.794036
0.815469
0.82383
0.825735
0.825752
0.825572
0.82548
-0.321434
-0.292493
-0.233392
-0.152509
-0.059213
0.0414928
0.148535
0.261592
0.380199
0.503828
0.615524
0.700349
0.761167
0.801418
0.822549
0.829878
0.831086
0.830907
0.830724
0.830641
-0.341693
-0.31222
-0.252324
-0.170464
-0.0760751
0.0258847
0.134421
0.249291
0.370223
0.497039
0.612891
0.702184
0.766772
0.809088
0.83012
0.836089
0.836052
0.835404
0.835248
0.83523
-0.361403
-0.331324
-0.270701
-0.187957
-0.092607
0.0104328
0.120247
0.236665
0.359612
0.489274
0.609052
0.703006
0.771959
0.817115
0.838741
0.843466
0.841482
0.839654
0.839406
0.839749
-0.380411
-0.349794
-0.288476
-0.204944
-0.108759
-0.0047893
0.106097
0.223814
0.348466
0.480605
0.603966
0.702612
0.776468
0.825275
0.848664
0.853271
0.849526
0.845361
0.843744
0.843917
-0.398811
-0.367629
-0.305673
-0.221461
-0.124569
-0.0198259
0.0919163
0.210683
0.336722
0.470965
0.597497
0.700722
0.780021
0.833162
0.859545
0.866079
0.86255
0.85517
0.847854
0.834673
-0.416539
-0.384817
-0.322407
-0.237709
-0.140312
-0.0349952
0.0773065
0.196815
0.323879
0.459762
0.589057
0.696642
0.782191
0.840291
0.870077
0.880421
0.877458
0.863441
0.842224
0.832479
-0.433432
-0.401523
-0.338497
-0.253496
-0.155635
-0.0499613
0.0624833
0.182519
0.310217
0.447215
0.578634
0.689785
0.781964
0.845391
0.876243
0.886756
0.885029
0.859075
0.792122
0.762389
-0.448836
-0.419028
-0.353644
-0.268352
-0.169734
-0.0642216
0.0477662
0.168022
0.295948
0.433432
0.566115
0.679737
0.777673
0.847577
0.872491
0.87796
0.861525
0.804331
0.734865
0.692429
-0.503255
-0.434439
-0.367313
-0.28341
-0.184292
-0.0792843
0.0330792
0.153029
0.28068
0.417915
0.550821
0.665686
0.765154
0.842215
0.841738
0.839054
0.782547
0.708373
0.630404
0.587034
-0.464877
-0.44895
-0.387688
-0.302675
-0.205835
-0.100849
0.0104926
0.129852
0.256631
0.392689
0.524087
0.637971
0.730866
0.813984
0.794349
0.673245
0.563376
0.486987
0.411868
0.440116
-0.494911
-0.465938
-0.403819
-0.319658
-0.22287
-0.118
-0.00636248
0.112387
0.238147
0.372504
0.501273
0.611014
0.694009
0.737879
0.684425
0.528359
0.396085
0.301706
0.201491
0.249356
-0.51801
-0.486126
-0.422923
-0.338645
-0.241742
-0.136984
-0.0254216
0.0925044
0.216886
0.348884
0.47398
0.577413
0.651177
0.659959
0.547529
0.369825
0.213447
0.0918525
-0.0408383
-0.00919601
-0.540535
-0.507193
-0.44289
-0.357724
-0.260757
-0.156165
-0.0451392
0.0718195
0.194609
0.323825
0.444212
0.539428
0.597305
0.574274
0.409941
0.209656
0.0166405
-0.153202
-0.342683
-0.362837
-0.562451
-0.52871
-0.463575
-0.377671
-0.280595
-0.17625
-0.0658992
0.0499528
0.170867
0.296857
0.411734
0.498497
0.536373
0.475777
0.278739
0.0648296
-0.154496
-0.345037
-0.587439
-0.882694
-0.584649
-0.550932
-0.485313
-0.398972
-0.301748
-0.197607
-0.08787
0.0268234
0.145727
0.268176
0.377115
0.455295
0.470892
0.3584
0.164336
-0.0487212
-0.255087
-0.428669
-0.499307
-0.577328
-0.608068
-0.574325
-0.50845
-0.421936
-0.324705
-0.22087
-0.11185
0.00149615
0.118046
0.236376
0.338912
0.405702
0.395615
0.249215
0.0623841
-0.13162
-0.296797
-0.391156
-0.41556
-0.43134
-0.633012
-0.599177
-0.533155
-0.446637
-0.349593
-0.246247
-0.138196
-0.0265157
0.0872378
0.200756
0.296405
0.348337
0.320183
0.147595
-0.0301914
-0.199021
-0.327732
-0.367531
-0.380327
-0.38163
-0.659679
-0.625659
-0.559492
-0.47307
-0.376363
-0.273743
-0.166927
-0.0572634
0.0532348
0.161336
0.249102
0.286273
0.237122
0.0536819
-0.115007
-0.266231
-0.34381
-0.360889
-0.362296
-0.362118
-0.688128
-0.653834
-0.587489
-0.501237
-0.405032
-0.303348
-0.19805
-0.0907622
0.0160489
0.118194
0.197144
0.222093
0.136117
-0.0321572
-0.192304
-0.316965
-0.354256
-0.352587
-0.351692
-0.351115
-0.718074
-0.683533
-0.617047
-0.531053
-0.435518
-0.335012
-0.231534
-0.126986
-0.0242791
0.0714434
0.141437
0.148936
0.0444562
-0.111658
-0.253523
-0.331232
-0.341602
-0.344245
-0.344921
-0.344657
-0.748973
-0.714294
-0.647911
-0.562297
-0.467639
-0.368581
-0.267231
-0.165801
-0.0675593
0.0214558
0.0824978
0.0747214
-0.0377186
-0.179055
-0.298423
-0.330383
-0.339127
-0.34061
-0.340369
-0.340073
-0.780365
-0.745586
-0.679625
-0.59458
-0.501053
-0.403739
-0.304864
-0.20692
-0.1135
-0.0310523
0.0194396
0.00440599
-0.112797
-0.23416
-0.329309
-0.347243
-0.338214
-0.337066
-0.336972
-0.336731
-0.81135
-0.77671
-0.711355
-0.627302
-0.535227
-0.440019
-0.343988
-0.249864
-0.161618
-0.0854243
-0.0448884
-0.0595653
-0.178064
-0.276191
-0.332686
-0.341105
-0.337612
-0.335991
-0.335289
-0.335013
-0.840414
-0.806493
-0.742125
-0.659554
-0.569407
-0.476732
-0.383956
-0.293954
-0.211106
-0.141059
-0.104134
-0.12937
-0.229119
-0.314013
-0.32041
-0.33593
-0.337913
-0.335454
-0.33454
-0.334018
-0.865941
-0.833079
-0.770828
-0.690184
-0.602571
-0.512957
-0.423916
-0.338349
-0.260841
-0.197066
-0.160116
-0.195941
-0.270125
-0.329499
-0.35356
-0.344182
-0.340704
-0.339419
-0.338655
-0.338065
-0.885824
-0.854697
-0.795313
-0.717802
-0.633446
-0.547577
-0.462795
-0.382032
-0.309714
-0.252131
-0.217296
-0.24921
-0.298666
-0.347207
-0.380967
-0.357193
-0.347499
-0.346488
-0.345684
-0.34521
-0.897865
-0.869438
-0.813862
-0.740492
-0.660562
-0.579291
-0.499422
-0.423811
-0.356691
-0.304654
-0.272117
-0.293484
-0.311017
-0.333516
-0.33158
-0.340016
-0.345715
-0.347469
-0.348
-0.348437
-0.899475
-0.875074
-0.824459
-0.756506
-0.682241
-0.606696
-0.532481
-0.462452
-0.400629
-0.353403
-0.317831
-0.334051
-0.331489
-0.323929
-0.332813
-0.345289
-0.349396
-0.350657
-0.351408
-0.351625
-0.888409
-0.868782
-0.824951
-0.764279
-0.697044
-0.628343
-0.560657
-0.496666
-0.440302
-0.397262
-0.35738
-0.370867
-0.386737
-0.410013
-0.399544
-0.378247
-0.367498
-0.363638
-0.361949
-0.361303
-0.86282
-0.848114
-0.813575
-0.762574
-0.703983
-0.643257
-0.582788
-0.525131
-0.474273
-0.435378
-0.391021
-0.389229
-0.396439
-0.447272
-0.418159
-0.380737
-0.364953
-0.360421
-0.358497
-0.357624
-0.825288
-0.815821
-0.791192
-0.751551
-0.70306
-0.651176
-0.598229
-0.546792
-0.500894
-0.46593
-0.433392
-0.389228
-0.323221
-0.289734
-0.293882
-0.313848
-0.329736
-0.337285
-0.339657
-0.339854
-0.782494
-0.777105
-0.762625
-0.734034
-0.696216
-0.652902
-0.607145
-0.561191
-0.518971
-0.48557
-0.455136
-0.395262
-0.300233
-0.225145
-0.254734
-0.311055
-0.336689
-0.351144
-0.359199
-0.361792
-0.744145
-0.740866
-0.733995
-0.715411
-0.686353
-0.650333
-0.610597
-0.568871
-0.527932
-0.494282
-0.469276
-0.437184
-0.425563
-0.400382
-0.360946
-0.382043
-0.437695
-0.471628
-0.480061
-0.487866
-0.716705
-0.714668
-0.711165
-0.699904
-0.677284
-0.646499
-0.610632
-0.570786
-0.529325
-0.491061
-0.466102
-0.475467
-0.607963
-0.845598
-1.1434
-1.28804
-1.29251
-1.21186
-1.05748
-1.005
-0.696006
-0.695264
-0.694116
-0.688533
-0.671595
-0.644034
-0.609135
-0.569006
-0.524246
-0.475608
-0.439778
-0.420083
-0.508697
-0.677092
-0.898249
-0.97666
-0.913309
-0.816178
-0.692401
-0.643386
-0.683913
-0.683626
-0.682991
-0.680424
-0.668701
-0.642998
-0.607254
-0.565005
-0.515063
-0.45857
-0.410184
-0.366045
-0.304744
-0.191111
-0.0768413
0.0417313
0.147796
0.225361
0.289613
0.319144
-0.675885
-0.675707
-0.675166
-0.674308
-0.667358
-0.643628
-0.606633
-0.560324
-0.505641
-0.440347
-0.367878
-0.294802
-0.124734
0.188963
0.517721
0.844547
1.05906
1.15708
1.19499
1.20051
-0.670825
-0.670855
-0.670885
-0.671369
-0.666917
-0.64613
-0.60749
-0.557059
-0.496528
-0.420651
-0.330841
-0.237882
-0.0148062
0.345858
0.725685
1.07692
1.31428
1.41105
1.4305
1.42926
-0.666191
-0.666244
-0.666233
-0.665999
-0.664924
-0.649344
-0.610572
-0.556205
-0.489603
-0.408349
-0.308469
-0.207733
-0.00835232
0.306902
0.619212
0.895481
1.08161
1.16782
1.20521
1.21755
-0.662922
-0.663022
-0.662954
-0.662024
-0.661247
-0.653187
-0.615384
-0.558174
-0.488474
-0.403113
-0.303097
-0.20431
-0.0426092
0.237709
0.497831
0.712311
0.862938
0.948021
0.995572
1.01387
-0.661703
-0.662795
-0.665896
-0.672108
-0.678081
-0.665027
-0.622072
-0.563978
-0.494769
-0.407876
-0.311998
-0.217701
-0.0922554
0.143706
0.376857
0.571566
0.726233
0.821762
0.868254
0.882271
-0.663811
-0.665326
-0.66833
-0.673729
-0.680392
-0.663568
-0.624281
-0.57491
-0.507427
-0.41963
-0.330068
-0.244898
-0.146312
0.0563062
0.258369
0.426699
0.564457
0.651126
0.689997
0.699598
-0.693347
-0.693565
-0.68506
-0.648563
-0.599666
-0.59275
-0.612665
-0.59164
-0.525303
-0.436435
-0.349496
-0.269622
-0.191641
-0.0389106
0.131267
0.27016
0.381801
0.449733
0.478617
0.48406
-0.745362
-0.742852
-0.730054
-0.68867
-0.639888
-0.630375
-0.658789
-0.629469
-0.550701
-0.45473
-0.367743
-0.296545
-0.234911
-0.116832
0.0177677
0.125778
0.210969
0.260326
0.279842
0.282525
-0.845024
-0.852556
-0.889547
-0.938049
-0.949705
-0.91659
-0.846124
-0.71217
-0.584832
-0.471476
-0.383203
-0.317351
-0.265513
-0.178282
-0.0760056
0.00669651
0.0695271
0.104024
0.117976
0.118456
-1.00789
-1.0357
-1.09782
-1.15548
-1.17321
-1.12931
-0.994918
-0.785175
-0.611691
-0.479974
-0.389263
-0.331255
-0.287129
-0.222831
-0.148503
-0.0876042
-0.0437767
-0.0194938
-0.011466
-0.0117631
-1.06293
-1.08831
-1.13179
-1.17321
-1.18594
-1.14132
-0.991136
-0.776125
-0.598653
-0.467454
-0.38373
-0.333668
-0.300356
-0.254473
-0.203003
-0.1614
-0.132365
-0.117933
-0.113237
-0.114511
-0.915411
-0.936479
-0.973911
-1.01243
-1.02754
-0.98409
-0.839235
-0.673172
-0.532203
-0.427459
-0.359444
-0.319417
-0.294098
-0.26415
-0.235001
-0.21422
-0.202926
-0.199098
-0.198305
-0.199116
-0.593871
-0.611171
-0.644719
-0.683971
-0.707442
-0.686512
-0.608003
-0.514497
-0.431736
-0.366866
-0.321655
-0.292568
-0.273246
-0.258042
-0.248991
-0.246982
-0.249425
-0.253176
-0.254433
-0.254713
-0.238696
-0.248867
-0.271123
-0.304526
-0.339823
-0.35991
-0.360069
-0.345637
-0.324011
-0.298425
-0.276915
-0.259011
-0.245028
-0.242748
-0.247072
-0.255203
-0.264729
-0.271179
-0.272671
-0.272749
0.0103139
0.00513736
-0.010314
-0.0399303
-0.0835554
-0.133155
-0.176596
-0.208171
-0.226581
-0.233466
-0.234288
-0.231379
-0.227579
-0.230816
-0.237149
-0.246178
-0.254584
-0.258447
-0.259027
-0.259219
0.1247
0.121359
0.109778
0.0842134
0.0416823
-0.0133781
-0.0692791
-0.117518
-0.15407
-0.180324
-0.198799
-0.214182
-0.22391
-0.223168
-0.22393
-0.225038
-0.227482
-0.227835
-0.227836
-0.228314
0.150515
0.14816
0.139484
0.11952
0.0852311
0.0392925
-0.0115532
-0.061041
-0.10364
-0.138701
-0.168936
-0.199947
-0.219743
-0.21223
-0.202744
-0.197421
-0.194307
-0.192759
-0.192828
-0.193558
0.137169
0.135573
0.129482
0.115198
0.0902413
0.0556388
0.0147377
-0.0275157
-0.0673758
-0.103748
-0.136757
-0.17003
-0.188423
-0.180815
-0.171612
-0.166601
-0.163253
-0.162182
-0.162585
-0.163389
0.111813
0.110857
0.106847
0.0971869
0.0799082
0.0551846
0.0243584
-0.0092224
-0.0425256
-0.0734006
-0.10055
-0.123102
-0.13268
-0.132721
-0.133673
-0.135936
-0.137662
-0.139224
-0.140148
-0.140785
0.0852671
0.0847958
0.0823463
0.0761351
0.0646278
0.0475859
0.0255312
0.000763418
-0.0245741
-0.047219
-0.0629492
-0.0727718
-0.0752282
-0.0831783
-0.0952148
-0.106585
-0.114705
-0.119468
-0.121051
-0.121388
0.0611071
0.060885
0.0595174
0.0557264
0.0484097
0.0372214
0.0222791
0.0052393
-0.01225
-0.0267368
-0.0327868
-0.0269333
-0.0215415
-0.0402913
-0.0608047
-0.0776304
-0.0894818
-0.0961024
-0.0981177
-0.0982298
0.0398693
0.0398037
0.0391559
0.0370669
0.0327636
0.0259366
0.0166094
0.00591664
-0.0048454
-0.0125155
-0.0113125
-0.00135683
0.00435666
-0.0134913
-0.0339339
-0.0496401
-0.0605022
-0.0664684
-0.0683721
-0.0684123
0.0209759
0.0210529
0.0208391
0.0198889
0.0178545
0.0144548
0.00967009
0.00423246
-0.00117117
-0.00419157
-0.000958707
0.00815253
0.0115993
-0.000792566
-0.0145919
-0.0245025
-0.0303435
-0.033547
-0.034789
-0.034926
0.00360784
0.0036879
0.00369668
0.00391107
0.00392156
0.00351848
0.00272377
0.0016796
0.000381905
-0.00041806
-0.000382231
0.00226022
0.00478852
0.00159921
-0.00121873
-0.0026152
-0.00453457
-0.00598277
-0.00616617
-0.00597116
-0.118514
0.046665
0.239028
0.40684
0.540231
0.644405
0.730043
0.803037
0.836584
0.813396
0.179069
0.298337
0.426463
0.536879
0.629566
0.705936
0.767709
0.811635
0.833627
0.84587
0.394437
0.47609
0.563611
0.640685
0.706819
0.762108
0.806106
0.838311
0.861702
0.879798
0.552977
0.611505
0.67199
0.728305
0.777149
0.818659
0.852807
0.880108
0.902703
0.921072
0.676827
0.719326
0.764739
0.807961
0.846186
0.879598
0.90824
0.932126
0.952388
0.970264
0.780156
0.812673
0.850414
0.885599
0.91793
0.946944
0.972326
0.99369
1.01146
1.02883
0.872089
0.900575
0.9343
0.966224
0.995993
1.02302
1.04666
1.0663
1.08175
1.09884
0.960308
0.989382
1.02324
1.05516
1.08465
1.11115
1.13395
1.15239
1.16572
1.18275
1.0554
1.08852
1.12508
1.15859
1.18857
1.2147
1.2366
1.25385
1.26569
1.28309
1.17026
1.20804
1.24663
1.28083
1.31014
1.33485
1.35519
1.37106
1.38251
1.40058
1.31512
1.35364
1.38975
1.42041
1.44606
1.46813
1.48717
1.50269
1.5151
1.5331
1.49015
1.52176
1.54792
1.57035
1.59031
1.60902
1.62672
1.64319
1.65853
1.6766
1.67873
1.69593
1.71095
1.72717
1.74307
1.7576
1.77079
1.78472
1.80225
1.8224
1.86044
1.86997
1.8815
1.89231
1.90159
1.91117
1.92195
1.93331
1.94467
1.96002
2.06766
2.07132
2.05637
2.04156
2.03528
2.04095
2.05943
2.08974
2.12191
2.14857
2.37398
2.23912
2.16247
2.12008
2.10266
2.10662
2.13402
2.19043
2.29305
2.51741
0.698491
0.696364
0.691882
0.683261
0.671043
0.658922
0.648706
0.640829
0.635237
0.632019
0.631707
0.634486
0.639622
0.646868
0.656271
0.667822
0.68048
0.69152
0.697634
0.700691
0.622933
0.628781
0.635117
0.639614
0.64209
0.641775
0.639051
0.63526
0.631777
0.629555
0.629453
0.631694
0.63539
0.639703
0.643527
0.645422
0.644494
0.641019
0.635859
0.629238
0.614489
0.616786
0.620192
0.623194
0.625276
0.626783
0.627553
0.627257
0.626262
0.62542
0.625644
0.627118
0.628969
0.630302
0.630501
0.629625
0.628085
0.625756
0.622498
0.61958
0.608951
0.610037
0.611873
0.614257
0.61629
0.617729
0.618767
0.619543
0.619978
0.620246
0.620793
0.621653
0.622291
0.622388
0.621998
0.621166
0.619708
0.617633
0.615553
0.614173
0.603711
0.604374
0.605485
0.607197
0.608989
0.610634
0.611949
0.612993
0.613915
0.614758
0.615551
0.616164
0.616404
0.616273
0.615733
0.614698
0.613285
0.611753
0.610442
0.609665
0.598689
0.599149
0.599938
0.601244
0.602743
0.604276
0.605764
0.607093
0.608274
0.609392
0.610382
0.611021
0.611223
0.610991
0.610326
0.609362
0.608255
0.607137
0.606231
0.605715
0.593803
0.594146
0.594761
0.595838
0.597145
0.598538
0.600002
0.601485
0.60291
0.604262
0.605461
0.606237
0.606482
0.606259
0.605699
0.604954
0.604127
0.603278
0.602616
0.60224
0.588996
0.589263
0.58976
0.590678
0.591863
0.593181
0.594606
0.596137
0.597738
0.599341
0.600794
0.601765
0.602148
0.602092
0.601749
0.601228
0.60061
0.599994
0.599514
0.599227
0.584187
0.584399
0.584812
0.585621
0.586728
0.588002
0.589422
0.591006
0.592748
0.594601
0.596357
0.597607
0.598245
0.598442
0.598339
0.598048
0.597643
0.597223
0.596885
0.596661
0.579284
0.579455
0.579809
0.580547
0.58161
0.582866
0.584319
0.585994
0.587903
0.590026
0.592144
0.593772
0.594751
0.595249
0.595411
0.59536
0.595176
0.594934
0.594714
0.594536
0.574198
0.574335
0.574649
0.575343
0.576392
0.577676
0.579202
0.581012
0.583144
0.585594
0.588155
0.590251
0.591639
0.592489
0.592953
0.59316
0.593195
0.593129
0.59301
0.592867
0.568836
0.568946
0.569232
0.569908
0.570978
0.572336
0.573979
0.575979
0.578401
0.581266
0.584372
0.587031
0.588902
0.590159
0.590966
0.591456
0.591726
0.591835
0.591804
0.591688
0.563099
0.563185
0.563456
0.564137
0.565265
0.566739
0.568554
0.570813
0.573605
0.576992
0.580765
0.5841
0.586545
0.588276
0.589472
0.590294
0.590824
0.591101
0.591149
0.591054
0.556874
0.55694
0.557203
0.557914
0.559137
0.560775
0.562826
0.565422
0.568686
0.572721
0.577306
0.581454
0.584581
0.58687
0.588517
0.589711
0.59053
0.590992
0.591115
0.591037
0.55003
0.550075
0.550339
0.551101
0.552459
0.554317
0.556678
0.559705
0.563564
0.568398
0.573969
0.579093
0.58303
0.58598
0.588157
0.589774
0.590926
0.591586
0.591784
0.591719
0.542409
0.542431
0.542697
0.543534
0.545072
0.547213
0.549971
0.553546
0.558146
0.56396
0.570727
0.577019
0.581918
0.585645
0.588453
0.590572
0.592102
0.592979
0.593252
0.593195
0.533781
0.533794
0.534076
0.535013
0.536784
0.539274
0.54254
0.546805
0.552326
0.559344
0.567556
0.575242
0.581278
0.58592
0.58947
0.592197
0.59416
0.595271
0.595617
0.595567
0.523868
0.523851
0.524184
0.525265
0.527328
0.530278
0.534189
0.539319
0.545986
0.554481
0.564436
0.573776
0.581153
0.586875
0.591296
0.594728
0.597192
0.598561
0.59898
0.598931
0.512352
0.51231
0.512691
0.513966
0.516399
0.519943
0.524671
0.530895
0.538995
0.549303
0.561353
0.572649
0.58159
0.588574
0.594017
0.598258
0.601299
0.60294
0.603426
0.603374
0.498736
0.498667
0.499129
0.500658
0.503578
0.507892
0.513678
0.521303
0.531208
0.543747
0.558306
0.571892
0.58264
0.591069
0.597706
0.602879
0.606553
0.60847
0.609013
0.608952
0.482351
0.482253
0.482843
0.484727
0.4883
0.493645
0.500832
0.510285
0.522485
0.537772
0.555315
0.571551
0.584358
0.594429
0.602408
0.608635
0.612991
0.615171
0.615748
0.615671
0.462233
0.462109
0.462905
0.465308
0.469802
0.47658
0.48568
0.497568
0.512716
0.531382
0.55244
0.571691
0.586806
0.598702
0.608147
0.615536
0.620585
0.622984
0.623565
0.623464
0.436931
0.436792
0.437927
0.441137
0.447028
0.455904
0.46772
0.482919
0.50187
0.524662
0.549796
0.572412
0.590035
0.603906
0.614941
0.62355
0.629228
0.631758
0.632299
0.632167
0.404079
0.403964
0.405721
0.410334
0.418549
0.430706
0.446508
0.466252
0.490069
0.517812
0.547572
0.573839
0.594111
0.610054
0.622734
0.632545
0.638698
0.641222
0.641671
0.641505
0.359436
0.359492
0.362624
0.370164
0.382697
0.400208
0.421922
0.447794
0.477667
0.511176
0.546022
0.576113
0.599098
0.617123
0.631437
0.642304
0.648643
0.650975
0.651287
0.651089
0.295053
0.296305
0.303972
0.318053
0.338499
0.364535
0.39458
0.428261
0.465298
0.505222
0.545417
0.579365
0.605004
0.625035
0.640796
0.652365
0.658558
0.660459
0.660597
0.660384
0.218783
0.220626
0.235312
0.259519
0.291043
0.327129
0.366238
0.408204
0.452862
0.499772
0.546051
0.58462
0.613529
0.635988
0.653338
0.665472
0.671241
0.672769
0.672854
0.672722
0.140154
0.146509
0.168198
0.2028
0.244836
0.290688
0.338815
0.389099
0.441433
0.495393
0.54785
0.591083
0.623212
0.648007
0.667043
0.679123
0.683963
0.684963
0.684991
0.684925
0.0757913
0.0845287
0.11083
0.15255
0.202818
0.256976
0.31322
0.371279
0.430925
0.49165
0.549974
0.597531
0.632549
0.65923
0.679057
0.690855
0.695258
0.696151
0.696219
0.696209
0.0234526
0.0327933
0.0626912
0.109707
0.166182
0.22703
0.290134
0.355054
0.421368
0.488415
0.552288
0.603917
0.641609
0.669996
0.69056
0.702317
0.706454
0.707251
0.707364
0.707407
-0.0202951
-0.0106712
0.0217003
0.0727496
0.13432
0.20072
0.269641
0.340561
0.412881
0.485779
0.554898
0.610425
0.650693
0.680792
0.702246
0.714031
0.717965
0.718906
0.719062
0.719149
-0.0578291
-0.0481038
-0.0138889
0.0403842
0.106175
0.177315
0.251316
0.327566
0.405343
0.483676
0.557784
0.617101
0.659928
0.691725
0.714062
0.726167
0.730306
0.731278
0.731443
0.731565
-0.0908464
-0.0811035
-0.0454832
0.0115079
0.080842
0.156078
0.234583
0.315642
0.398445
0.481888
0.560786
0.623804
0.669168
0.702702
0.726097
0.73877
0.743116
0.744155
0.74431
0.744417
-0.120656
-0.110897
-0.074132
-0.0147958
0.0575794
0.136409
0.218932
0.304374
0.391846
0.480139
0.563669
0.63033
0.678226
0.713533
0.738023
0.75128
0.755909
0.756979
0.757112
0.757192
-0.148173
-0.138391
-0.100651
-0.0392407
0.0358164
0.117837
0.203971
0.293418
0.385244
0.47816
0.566216
0.63649
0.68689
0.723916
0.749459
0.76331
0.768255
0.769358
0.769455
0.769507
-0.173989
-0.164159
-0.125525
-0.0623674
0.0151187
0.0999996
0.189393
0.282509
0.378403
0.475752
0.568259
0.642126
0.695008
0.733706
0.760252
0.774603
0.779819
0.78094
0.780994
0.781011
-0.198603
-0.188669
-0.149157
-0.0845017
-0.00481157
0.0826276
0.174974
0.271457
0.371162
0.472755
0.569649
0.647144
0.702508
0.742813
0.770261
0.784988
0.790331
0.79147
0.791493
0.791477
-0.222325
-0.212203
-0.17195
-0.105834
-0.024181
0.0655421
0.160565
0.260134
0.363384
0.469042
0.570287
0.651479
0.709376
0.75124
0.779434
0.794371
0.799791
0.800874
0.800865
0.800818
-0.245272
-0.234963
-0.194046
-0.126509
-0.0431307
0.0486485
0.146074
0.248451
0.354989
0.464519
0.570084
0.655095
0.71563
0.759046
0.787833
0.802837
0.808143
0.809179
0.809136
0.809064
-0.267646
-0.257082
-0.215447
-0.146647
-0.0617306
0.0318825
0.131456
0.236373
0.345938
0.459131
0.568955
0.657946
0.721329
0.766384
0.795634
0.810477
0.815555
0.816473
0.816393
0.816305
-0.28942
-0.278604
-0.236297
-0.166318
-0.0800083
0.0152303
0.116717
0.223906
0.336223
0.452833
0.566833
0.659981
0.726531
0.773411
0.803041
0.817481
0.822141
0.822875
0.822743
0.822639
-0.310653
-0.299571
-0.256554
-0.185521
-0.0979641
-0.00129679
0.101876
0.211085
0.325867
0.445619
0.563656
0.661129
0.731245
0.7803
0.810353
0.8241
0.828034
0.828466
0.828278
0.828172
-0.33123
-0.319939
-0.276215
-0.204224
-0.115569
-0.0176451
0.0869802
0.197958
0.314921
0.437521
0.559373
0.661298
0.735428
0.787183
0.81793
0.830772
0.833524
0.83336
0.833084
0.833008
-0.35128
-0.339676
-0.295287
-0.222425
-0.132805
-0.0337895
0.0721074
0.184593
0.303457
0.428596
0.55397
0.660367
0.738952
0.794076
0.826137
0.838213
0.839301
0.837883
0.837298
0.837326
-0.370654
-0.358763
-0.31375
-0.240092
-0.149606
-0.0496549
0.0573282
0.171098
0.291567
0.41889
0.54746
0.658204
0.741616
0.800826
0.835125
0.847274
0.84674
0.843258
0.841298
0.840861
-0.389423
-0.377257
-0.331562
-0.257186
-0.165942
-0.0651792
0.0427185
0.157543
0.279355
0.408526
0.539887
0.654674
0.743152
0.80707
0.844543
0.858301
0.857716
0.852214
0.8461
0.838589
-0.40751
-0.395116
-0.348817
-0.273859
-0.18202
-0.0806246
0.0279598
0.143553
0.266403
0.397044
0.530777
0.649296
0.743166
0.812631
0.853996
0.87106
0.872912
0.866477
0.855047
0.850853
-0.424871
-0.412264
-0.365505
-0.290091
-0.197854