/*--------------------------------*- C++ -*----------------------------------*\
| =========                 |                                                 |
| \\      /  F ield         | OpenFOAM: The Open Source CFD Toolbox           |
|  \\    /   O peration     | Version:  4.0                                   |
|   \\  /    A nd           | Web:      www.OpenFOAM.org                      |
|    \\/     M anipulation  |                                                 |
\*---------------------------------------------------------------------------*/
FoamFile
{
    version     2.0;
    format      ascii;
    class       volScalarField;
    location    "6";
    object      p;
}
// * * * * * * * * * * * * * * * * * * * * * * * * * * * * * * * * * * * * * //

dimensions      [0 2 -2 0 0 0 0];

internalField   nonuniform List<scalar> 
918
(
0.237616
1.07727
0.00490634
0.236423
0.00111588
1.04433
-0.669014
0.434859
0.219299
-0.108765
0.0241347
0.209955
0.904699
0.669672
-1.40344
0.0257935
0.370428
-0.719193
0.202737
0.0148309
0.613673
0.228667
0.228375
0.214552
0.266604
0.662132
0.786513
0.000939187
0.000660005
0.00195568
-0.00100481
0.000867574
0.00628747
0.927907
0.979099
1.00183
0.193356
-0.353836
-0.476129
-0.60426
-0.521791
-0.76154
0.4154
0.416754
-0.438624
0.440704
0.466729
0.206693
0.217104
0.218239
0.222707
0.220654
0.221908
0.283015
-0.131667
-0.200293
-0.0558308
-0.0388471
0.0858003
0.024019
0.0333913
0.025944
0.0310344
0.149699
0.205479
0.202152
0.213075
0.217099
1.01682
0.988673
1.01485
0.928752
0.945266
0.882208
0.854674
0.690999
0.712829
0.655177
0.645517
-1.88206
-2.90136
-0.78219
-0.497034
0.00273015
0.0318919
0.0272262
0.356378
0.364079
0.366136
0.384661
0.697499
-0.645387
-0.865966
0.213296
0.208155
0.224337
0.225428
0.21705
0.219606
0.0198046
0.0217404
0.00330661
0.0106349
0.00972486
0.590981
0.568524
0.211287
0.208474
0.228918
0.239158
0.233356
-0.00323318
0.276461
0.305288
0.468615
0.645039
0.638221
0.645379
0.759679
0.724199
0.823003
0.844888
0.00653939
0.000456525
0.0170739
0.00779631
0.0165881
0.183965
0.180525
0.200941
0.196622
0.19257
-0.329882
-0.34947
-0.341765
-0.258467
-0.43384
-0.545182
-0.66977
-0.62268
-0.849175
0.730163
0.393429
0.403984
-0.391276
-0.344725
-0.485978
-0.308968
-0.394757
0.197769
0.203332
0.200974
0.211003
0.206104
0.213595
0.222124
0.218785
0.220135
0.307188
0.362609
0.249225
0.228733
-0.404405
-0.215266
-0.403163
-0.0230886
-0.0101997
0.0987706
0.11646
0.0818247
0.0773164
0.0097475
0.0281375
0.0172343
0.0322174
0.0294529
0.141837
0.133902
0.158396
0.169807
0.195144
0.200333
0.197187
0.199438
0.805045
0.828107
0.83547
0.809171
-3.95566
-6.7612
-0.13063
0.02329
0.00123233
0.000907985
0.00191803
-0.000273501
0.00547229
0.00209123
0.0507189
0.0422395
0.0347225
0.040989
0.338545
0.347311
0.675188
0.740744
0.621853
0.61248
0.201145
0.204697
0.210158
0.206754
0.0308077
0.0234666
0.0267603
0.473548
0.528368
0.509388
-0.0428284
-0.131793
0.0448569
0.0675305
0.328897
0.31326
0.326813
0.53125
0.5697
0.852876
0.871774
0.868389
0.877766
0.922482
0.939062
0.90509
0.171484
0.176672
0.171938
0.204388
0.198841
0.203102
0.194602
0.19883
0.199422
-0.438813
-0.716661
0.336721
0.148248
-0.174384
0.0227006
0.729348
0.790622
0.375206
0.387235
0.39045
-0.242896
-0.330625
0.198735
0.17354
0.0902357
0.12187
0.103947
0.775776
0.73788
0.787535
0.761196
0.724053
0.746588
-0.615407
-2.11274
-1.18346
0.409788
0.209862
0.300665
0.0641517
0.055094
0.0541631
0.727218
0.788351
0.396097
0.518434
0.504926
0.607523
0.640173
0.698806
0.618571
0.656245
0.696443
0.675527
0.623702
0.434258
0.585485
0.773439
0.813852
-0.151212
-0.194528
-0.264268
0.126903
0.154895
0.136412
0.76582
0.776157
0.800334
0.20846
0.214364
0.0115406
0.0175466
0.222056
0.222261
0.00464533
0.00681853
0.313512
-1.1896
-0.139106
0.208693
0.201528
0.213542
-0.067439
0.268061
0.0316081
0.094488
0.0645145
0.204738
0.15834
0.128185
0.00102324
0.0199168
0.0195632
-0.30697
0.209653
0.204896
0.213786
0.215924
0.218808
0.00864828
0.0116474
0.00795716
0.0182448
0.0146482
0.0144366
0.186072
0.195333
-0.234911
0.213163
0.216975
0.217811
0.208798
0.217429
0.21334
0.0175427
0.0132349
0.0149833
-0.0453671
0.0667207
0.569339
0.651248
0.565751
0.297345
0.0145107
0.449761
0.520362
0.428996
0.573843
0.369128
0.417691
-0.0755838
-0.205437
-0.0924581
-0.141502
0.206081
0.203212
0.197596
0.198309
0.214723
0.210274
0.211382
0.2124
0.212332
0.210898
-0.022029
-0.0325421
-0.0833811
-0.155418
0.292084
0.353577
0.220215
0.234224
0.146286
0.0416921
0.0349138
0.0315768
0.0246547
0.0650477
0.0690689
0.0790835
0.0805284
0.0542495
0.054912
0.0626376
0.0637806
0.0684164
0.201782
0.196908
0.204767
0.212288
0.163491
0.168224
0.140331
0.157971
0.142101
0.0979153
0.123023
0.102341
0.00652292
0.00535948
0.00676669
0.0191785
0.03382
0.0223105
0.0137762
0.0187025
0.0138374
0.0113424
0.0241731
0.0277884
-0.252568
-0.374141
0.655571
0.550128
0.323897
0.206543
0.207592
0.202305
0.204728
0.211676
0.219856
0.217682
0.2094
0.19753
0.198044
0.195818
0.19571
-0.113181
-0.298533
-0.175703
-0.267552
-0.433275
0.310374
0.0714928
0.0230402
0.00878769
0.202766
0.902424
0.709497
0.615387
0.59735
-0.658694
-0.155299
-0.541358
0.176101
-0.0987567
0.541494
0.593505
0.619057
0.561162
0.516039
-0.432159
0.0447036
-0.246126
-0.196885
-0.095187
-0.170098
0.534928
0.354004
0.365096
0.41108
0.452326
0.363269
0.33874
0.337281
0.389214
0.391126
0.148218
-0.0234839
-0.0641598
-0.100737
0.347264
0.203756
0.258098
0.191401
0.200347
0.203175
0.204539
0.18994
0.194937
0.195075
0.195363
0.198181
0.2043
0.203598
0.204362
0.206477
-0.0152441
-0.0130316
-0.0412293
-0.174787
-0.172323
-0.240691
-0.107277
0.147439
0.110311
0.295515
0.384296
0.0712917
-0.0815429
-0.0588818
0.0306327
0.152014
0.156945
0.113475
0.161388
0.168088
0.142775
0.205219
0.19618
0.0464501
0.0576413
0.0414347
0.0356846
0.102852
0.118721
0.115621
0.0501286
0.0524754
0.0376604
0.0366852
0.0803983
0.0546182
0.0650501
0.0708075
0.0224765
0.0232959
0.0342855
0.0417551
0.0388584
0.0431239
0.19656
0.195442
0.1996
0.209551
0.215483
0.23192
0.206933
0.181377
0.17246
0.177269
0.158969
0.173075
0.163283
0.175908
0.18358
0.194461
0.193744
0.194756
0.181974
0.182447
0.179585
0.182692
0.158001
0.137623
0.130283
0.0176456
0.0168732
0.0209725
0.0161397
0.0129055
0.0139531
0.0488808
0.0390635
0.0414522
0.0402807
0.0451958
0.0212125
0.0225168
-0.0951792
0.0331084
-0.239935
-0.27765
-0.362391
0.644799
0.709898
0.552224
0.472257
0.494807
0.585796
0.616301
0.387974
0.470691
0.465584
0.649277
0.720317
0.197555
0.20449
0.203791
0.198298
0.198599
-0.0150981
-0.0172365
-0.0809348
-0.111614
-0.259384
-0.33321
0.415487
0.520002
0.501047
0.292578
0.302428
0.31977
0.259483
0.290494
0.295382
0.126342
0.199878
0.246014
0.206268
0.242002
0.26106
0.233688
0.256178
0.213499
0.180304
0.178048
0.12461
0.135261
0.116741
0.105465
0.195844
0.179025
0.182652
0.178344
0.200084
0.227674
0.217755
0.232431
0.249095
0.184705
0.152779
0.157106
0.176372
0.149752
0.160396
0.171697
-0.341161
-0.346756
-0.276312
-0.733144
-0.594255
-0.449789
-0.55528
-0.644047
-0.397448
-1.09056
-0.825406
-1.39
-0.134427
0.887142
0.519052
0.5394
0.455737
0.415856
0.419777
0.503613
0.496011
0.3339
0.347945
0.354701
0.283528
0.322348
0.379661
0.367265
0.0571651
0.0344867
-0.0396334
0.0153434
-0.0858568
-0.0671404
0.11031
0.0557209
-0.00448663
0.0028702
0.166571
0.0556647
0.113316
0.159878
0.102408
0.0680375
0.230022
0.300583
0.2834
0.256338
0.179658
0.187509
0.220234
0.259367
0.279574
0.314399
0.194234
0.200374
0.201882
0.197823
0.196946
0.198545
0.199473
0.20008
0.201549
0.202229
0.203027
0.0260363
0.0354455
0.00866698
0.0176644
0.0338612
0.0180577
0.0574921
0.0330804
0.0479863
0.049745
0.0266904
0.00469552
0.0174121
0.0337885
0.156312
0.18452
0.186147
0.137713
0.239837
0.348792
0.387374
0.341039
0.215423
0.244377
0.287837
0.0878332
0.0959622
0.0808416
0.106577
0.0972422
0.0403115
0.0377006
0.0374376
0.0466855
0.0447247
0.0333064
0.0290156
0.0274266
0.0308251
0.0352509
0.0331422
0.182139
0.175804
0.173836
0.166883
0.168098
0.184719
0.188224
0.188523
0.191366
0.193401
0.188541
0.193109
0.193687
0.0370803
0.0210664
0.0266346
0.0279416
0.0225575
0.0225499
0.0250411
0.260646
0.141334
0.236203
0.0991338
-0.151879
-0.0532139
0.403859
0.574991
0.51516
0.671399
0.610327
0.546748
0.577611
0.683281
0.422221
0.577585
0.529733
0.681392
0.673433
0.72466
0.582665
-0.192927
-0.580292
-0.231232
-0.466573
-0.656851
-0.104921
-0.0979321
-0.0927623
-0.160917
-0.21578
-0.00395893
0.0243986
0.00997039
0.259663
0.0654768
0.206638
-0.160808
-0.103874
0.247178
-0.0273697
0.110034
0.29914
0.319291
0.335341
0.304471
0.33307
0.256763
0.25245
0.262104
0.278007
0.266653
-1.17686
-1.11375
-1.75988
-1.12905
-0.816581
-0.186689
-0.478901
0.375122
0.221877
0.441418
0.383922
0.330942
0.271121
0.245506
0.31628
0.0505716
0.15084
0.124784
0.134149
0.0574115
-0.0137537
0.271503
0.264074
0.302354
0.322895
0.29683
0.326152
0.194513
0.191019
0.195807
0.190673
0.181552
0.182069
0.110495
0.0823104
0.121175
0.101916
0.0556989
0.0534955
0.0395369
0.038125
0.0314027
0.0306812
0.0399719
0.0399209
0.284936
0.284606
0.126725
0.228785
-0.0361752
-0.101538
-0.148916
0.0474235
0.0838437
0.0795904
0.47492
0.585339
0.530279
0.553361
0.450671
0.47568
0.3821
0.1045
0.219494
0.264063
0.375922
-0.759466
-0.952165
-0.829462
0.579074
0.414333
-0.0433311
-0.361292
-0.388658
0.0429086
0.138525
0.100695
0.152817
0.207858
0.212188
-0.789354
-0.622169
-0.900173
-0.765148
-0.575517
-0.514639
-0.454603
-0.737377
-0.732086
)
;

boundaryField
{
    wall-4
    {
        type            zeroGradient;
    }
    velocity-inlet-5
    {
        type            zeroGradient;
    }
    velocity-inlet-6
    {
        type            zeroGradient;
    }
    pressure-outlet-7
    {
        type            fixedValue;
        value           uniform 0;
    }
    wall-8
    {
        type            zeroGradient;
    }
    frontAndBackPlanes
    {
        type            empty;
    }
}


// ************************************************************************* //
