/*--------------------------------*- C++ -*----------------------------------*\
| =========                 |                                                 |
| \\      /  F ield         | OpenFOAM: The Open Source CFD Toolbox           |
|  \\    /   O peration     | Version:  4.0                                   |
|   \\  /    A nd           | Web:      www.OpenFOAM.org                      |
|    \\/     M anipulation  |                                                 |
\*---------------------------------------------------------------------------*/
FoamFile
{
    version     2.0;
    format      ascii;
    class       volVectorField;
    location    "6";
    object      U;
}
// * * * * * * * * * * * * * * * * * * * * * * * * * * * * * * * * * * * * * //

dimensions      [0 1 -1 0 0 0 0];

internalField   nonuniform List<vector> 
918
(
(0.986708 -0.00399569 0)
(0.00500631 2.96624 0)
(-0.00396023 1.7063 0)
(0.97435 0.00816854 0)
(-0.00551517 1.67631 -1.59688e-21)
(-0.00702741 2.94883 -2.22951e-18)
(0.973987 1.34039 5.89308e-19)
(0.5393 0.285251 -9.45006e-21)
(0.999924 -0.00158867 0)
(0.0305793 1.59649 0)
(0.0021235 1.63337 0)
(0.894601 0.0114167 0)
(0.0109975 2.93081 0)
(-0.00126548 2.79728 0)
(-0.0224187 3.23154 1.02152e-18)
(0.00823992 1.63472 -2.67756e-20)
(0.677857 0.129925 5.6902e-19)
(0.246762 1.88418 5.53965e-19)
(0.968626 0.0216776 0)
(-3.21255e-05 1.64135 0)
(0.161136 0.286591 -6.07231e-19)
(0.998988 -0.00358054 0)
(0.999702 -0.00794732 0)
(0.971935 -0.00684261 0)
(0.841727 -0.0118453 0)
(-0.000387779 2.63993 0)
(-0.0149373 2.90998 8.04281e-19)
(-0.00619452 1.71965 0)
(-0.000501829 1.76489 0)
(0.00112568 1.73129 0)
(0.0029602 1.79178 0)
(-0.00299187 1.68894 1.26602e-21)
(-0.00867141 1.63033 0)
(-0.0207361 2.98757 -7.94076e-23)
(-0.0166968 3.00525 1.73282e-18)
(0.00207292 3.00016 0)
(0.939514 0.00797344 0)
(0.169629 0.405853 -2.31845e-19)
(0.901433 1.39639 -6.54836e-19)
(1.04995 1.1266 7.55228e-19)
(0.785164 1.60994 -1.33855e-19)
(0.865918 1.58069 8.14032e-19)
(0.586611 0.344489 9.22067e-21)
(0.581664 0.265463 0)
(1.20586 0.581248 0)
(0.555187 0.347192 4.42932e-20)
(0.518314 0.287132 -4.59559e-20)
(0.929851 0.00423721 0)
(1.00079 -0.000253632 0)
(1.00018 0.000633522 0)
(0.993855 -0.00799481 0)
(1.00011 -0.00249477 0)
(1.00094 -0.000219281 0)
(0.0341716 1.57901 -5.26283e-19)
(0.0319327 1.716 0)
(0.0915554 1.64524 0)
(-0.00194015 1.69351 0)
(-0.00127505 1.59247 0)
(-0.0030219 1.63692 0)
(-0.00785986 1.69417 0)
(-0.0106496 1.62292 0)
(-7.29233e-06 1.70479 0)
(0.00854883 1.62643 0)
(0.957753 0.00452163 0)
(0.942677 0.0110822 0)
(0.910798 0.00817965 0)
(0.928862 0.0194974 0)
(0.879968 0.0117128 0)
(0.014679 3.00043 8.23085e-19)
(0.0114354 3.008 0)
(0.00610297 3.00269 0)
(0.0134292 2.99721 9.28133e-24)
(0.00807779 2.9586 -1.22331e-18)
(0.0145159 2.98237 0)
(0.0112678 2.90392 0)
(0.0252072 2.93022 1.79708e-24)
(0.00322763 2.82661 0)
(0.033069 2.91522 0)
(-0.0110936 2.74524 0)
(0.321759 3.63756 0)
(-0.130272 3.7326 0)
(0.147911 3.31758 -9.50844e-19)
(0.00729473 3.03245 0)
(-0.00631096 1.76027 0)
(0.00318084 1.70059 2.64168e-20)
(0.00390143 1.6437 -2.78983e-20)
(0.713856 0.167425 -1.95971e-19)
(0.685675 0.0966291 -1.91822e-19)
(0.714786 0.200735 -5.90266e-19)
(0.665493 0.170428 -3.97837e-19)
(0.219035 1.33762 0)
(0.332284 1.96317 -6.36021e-19)
(0.489252 1.92099 1.0352e-18)
(0.981357 0.0161148 0)
(0.935258 0.023042 0)
(1.00074 0.000546244 0)
(1.00039 0.00825921 0)
(0.997352 0.0232015 -1.10591e-18)
(0.984441 0.026502 8.47507e-19)
(-0.00303067 1.69601 0)
(-0.000424623 1.63938 0)
(8.37242e-05 1.73864 0)
(-0.00571942 1.70991 0)
(0.00278012 1.65038 0)
(0.291895 0.354898 1.86147e-19)
(0.351677 0.309997 0)
(0.991434 -0.00691895 0)
(0.953327 0.00127216 0)
(0.907797 0.00199775 0)
(0.896842 0.00544967 0)
(0.876858 -0.0153089 0)
(1.07419 0.000852825 0)
(0.852073 0.0488519 0)
(0.762862 0.0306305 7.58006e-19)
(-0.0399745 2.8728 5.27015e-19)
(0.0435681 2.90504 0)
(0.0551728 2.88009 0)
(-0.0168241 2.69902 0)
(-0.0128971 2.98576 7.54492e-19)
(-0.0192587 2.89531 0)
(-0.0151027 2.98884 -2.35328e-18)
(-0.0129594 2.92541 8.06535e-19)
(0.0015403 1.77725 0)
(0.00146206 1.76779 0)
(0.00614844 1.70655 -4.74816e-22)
(-0.00601303 1.69929 0)
(0.00178181 1.63354 0)
(0.977402 0.0065193 0)
(0.943822 0.00744966 0)
(0.92766 -0.00731533 0)
(0.974653 0.0102934 0)
(0.936895 -0.00337144 0)
(0.290846 0.768108 2.73009e-19)
(0.295815 0.871646 0)
(0.37803 0.544025 -3.27746e-20)
(0.144149 0.132945 0)
(1.0014 1.18778 -2.13449e-19)
(1.11021 0.928647 4.70343e-19)
(0.483912 1.92587 0)
(0.650372 1.80262 0)
(0.71643 1.7901 0)
(0.485838 0.821404 -3.41107e-19)
(0.640412 0.306052 0)
(0.620088 0.223897 1.1485e-19)
(1.0735 0.996564 0)
(1.1369 0.814046 0)
(1.15625 0.748071 -4.25919e-19)
(1.19633 0.64298 0)
(1.25544 0.42106 6.57614e-20)
(0.971136 -0.00503364 0)
(0.965342 0.00229394 0)
(0.931987 -0.00466324 0)
(0.972205 0.00431437 0)
(0.96026 0.00461175 0)
(0.931143 0.00807925 0)
(0.999528 0.0010931 0)
(1.00033 0.00197044 0)
(0.99978 0.00110667 0)
(0.0254699 1.60206 2.82464e-19)
(0.045916 1.52125 0)
(0.014941 1.65451 4.80916e-19)
(0.0135268 1.62186 -4.17269e-19)
(0.17584 1.87737 -4.59604e-19)
(0.0622817 1.76115 0)
(0.120201 1.75795 0)
(-0.00945625 1.7006 0)
(0.00424127 1.60678 0)
(-0.00244309 1.69288 -1.31117e-21)
(0.00514642 1.63342 0)
(0.000884444 1.69729 -6.91017e-20)
(-0.0017495 1.63994 1.30221e-19)
(-0.00383241 1.70247 0)
(-0.0183223 1.69122 0)
(-0.00467418 1.60761 0)
(0.00702571 1.7 0)
(0.00611595 1.62618 0)
(1.00749 0.00452752 0)
(0.96514 0.000974102 0)
(0.991169 0.00945382 0)
(0.948687 0.0100363 0)
(0.917317 0.00141749 0)
(0.960713 0.00384419 0)
(0.960719 0.000701965 0)
(0.917526 -0.00952465 0)
(0.00482891 3.06662 -7.52194e-21)
(0.0179168 3.0563 0)
(0.0149887 2.96869 0)
(0.0089625 2.87606 0)
(0.902838 4.05666 0)
(1.2012 3.33741 1.00904e-18)
(0.0797876 3.11462 0)
(-0.0180243 2.93048 0)
(-0.000382054 1.75176 0)
(-0.00801552 1.75248 0)
(-0.00442921 1.75414 0)
(-0.0077381 1.78675 2.10556e-21)
(-0.0115361 1.76997 0)
(-0.00103598 1.77187 0)
(0.00769455 1.63933 5.62222e-21)
(0.000786249 1.70389 4.01175e-20)
(-0.00837142 1.70792 2.85672e-20)
(-0.000629824 1.64325 0)
(0.74797 0.129467 2.89588e-19)
(0.705907 0.0535419 -2.79976e-19)
(0.197127 1.41736 0)
(0.298065 1.2757 -2.30573e-19)
(0.129752 1.44339 -6.75966e-19)
(0.151653 1.38453 6.74681e-19)
(0.915553 -0.00113596 0)
(0.962545 0.0035902 0)
(0.966254 0.0114901 0)
(0.912453 0.00592558 0)
(-0.00218878 1.69949 0)
(-0.00062007 1.70079 0)
(-0.00146022 1.63539 0)
(0.500355 0.370155 4.16248e-19)
(0.434067 0.371656 -5.43022e-19)
(0.466896 0.289157 0)
(1.186 0.0808744 -2.19566e-21)
(1.17239 0.03751 0)
(1.10082 0.0393499 0)
(1.02053 0.00896513 0)
(0.762602 0.0840489 0)
(0.781565 0.0798353 -1.22086e-18)
(0.72226 0.029469 4.66083e-19)
(0.0105653 2.983 5.95535e-19)
(-0.0328878 2.87199 4.76616e-20)
(0.00360485 3.05108 -1.60133e-20)
(0.020097 3.04278 5.70234e-19)
(-0.0150589 2.99703 2.65696e-20)
(-0.012896 2.94961 -1.07356e-22)
(-0.0169959 3.01197 -4.96953e-19)
(0.0144907 3.02427 3.58449e-19)
(0.00718634 3.03625 -5.61927e-19)
(0.992488 0.0108879 0)
(0.988406 0.00423445 0)
(0.949248 0.00446386 0)
(0.964801 -0.00528138 0)
(0.968483 -0.00880428 0)
(0.922141 -0.017828 0)
(0.96448 0.00859014 0)
(0.963788 -0.00119367 0)
(0.920884 -0.0011033 0)
(0.473816 1.17315 4.35773e-19)
(0.565366 1.34657 0)
(0.314522 0.358732 5.46529e-20)
(0.517654 0.672608 2.1891e-19)
(0.468096 0.567415 1.45473e-20)
(0.170176 0.147308 -9.26253e-20)
(0.474686 1.11045 1.66154e-18)
(0.493297 1.02062 3.58204e-19)
(0.685376 0.249341 4.2956e-19)
(0.664185 0.273624 1.03331e-19)
(0.643047 0.205974 2.1616e-19)
(1.23783 0.475059 2.70471e-19)
(1.25257 0.258844 2.95181e-19)
(-0.00603537 1.68301 1.94716e-19)
(-0.00686178 1.62983 0)
(1.04926 0.0233052 0)
(1.0161 0.0156468 0)
(0.996436 0.00704853 0)
(0.010531 3.07338 0)
(0.0195928 2.94347 1.02635e-18)
(0.0162993 2.95568 0)
(0.00624553 2.85084 -1.01858e-18)
(0.0045785 3.09006 2.48333e-19)
(0.00623426 3.08418 0)
(0.605344 1.70968 -2.12254e-19)
(1.1833 2.50005 5.30161e-19)
(0.618737 1.89667 -1.40104e-18)
(0.0221264 2.98847 -4.83523e-19)
(0.0436274 3.02161 0)
(-0.0347587 2.88948 0)
(-0.00600136 1.69056 -9.70177e-21)
(0.00235304 1.69548 -9.38904e-20)
(-0.0027838 1.63718 -3.87903e-21)
(0.258955 1.35208 7.34868e-19)
(0.346975 1.2308 -5.13202e-19)
(0.0334567 1.54783 4.50783e-19)
(0.0767705 1.50646 -5.65564e-19)
(0.0768882 1.44149 6.60597e-20)
(0.00213604 3.11866 -1.51018e-18)
(0.0163061 3.11742 1.61996e-18)
(-0.00787278 2.97964 6.81919e-19)
(-0.00161459 2.97813 -6.27148e-19)
(-0.0197646 2.88337 -6.94515e-19)
(0.00882808 3.09701 -1.84086e-18)
(0.00136659 3.10468 1.79752e-18)
(0.508791 0.987412 0)
(0.541305 0.818109 -1.13843e-18)
(0.450433 0.61848 5.21702e-19)
(0.431185 1.21174 9.883e-19)
(0.457984 1.12945 -1.53444e-18)
(1.26121 0.169105 -4.8628e-20)
(1.25721 0.309863 0)
(1.24844 0.119668 1.17045e-19)
(0.00448227 1.68822 -1.68282e-21)
(-0.0124164 1.68278 0)
(0.00062466 1.61783 0)
(0.303237 1.32822 -2.66933e-19)
(0.36444 1.30061 -6.16545e-19)
(0.404029 1.19827 1.13192e-18)
(1.00215 -0.0331229 0)
(1.00485 -0.0206438 2.04929e-19)
(0.00175906 1.77601 0)
(-0.00693577 1.78353 0)
(1.00303 0.00609051 3.56082e-21)
(0.996635 0.0119217 4.19067e-19)
(-0.00896868 1.78651 -2.72495e-21)
(-0.00885287 1.78611 0)
(0.0621078 3.1932 3.13425e-19)
(0.446683 3.59002 0)
(1.11058 0.619713 4.66215e-20)
(1.011 0.00924774 -1.42022e-21)
(1.00441 0.0125058 0)
(1.0038 -0.00302902 -3.31901e-22)
(0.0535557 1.84042 0)
(0.0892501 1.70713 0)
(0.00216083 1.79379 0)
(0.0108424 1.77398 9.35107e-20)
(0.00306719 1.76761 4.64359e-20)
(0.994697 0.0210796 1.57816e-21)
(1.04058 -0.000704403 0)
(1.06331 0.0311878 0)
(-0.0052715 1.74902 0)
(-0.000435545 1.78029 0)
(-0.00368838 1.78543 0)
(0.214789 1.92722 -2.44095e-19)
(0.998951 -0.0320133 0)
(0.991373 -0.0285866 0)
(1.01229 -0.00187952 2.59071e-19)
(1.005 -0.0136383 -3.04361e-19)
(1.00361 -0.00263758 0)
(0.00284941 1.73859 0)
(0.00496733 1.76574 0)
(0.00382985 1.75025 0)
(-0.00860067 1.78786 0)
(-0.00670666 1.78239 0)
(-0.0105291 1.7867 0)
(1.01813 -0.0011809 0)
(1.01389 0.00849495 -8.8075e-22)
(0.662816 1.32108 3.33278e-19)
(1.00389 -1.20232e-05 -2.54605e-19)
(1.0082 0.0113651 3.16113e-19)
(1 0.00205198 0)
(1.01332 0.0143151 2.45804e-19)
(1.00179 0.00898438 -3.16988e-19)
(0.989564 0.0187038 0)
(-0.00247992 1.7875 0)
(-0.00721415 1.78727 1.72792e-20)
(-0.00725237 1.78704 -1.28083e-20)
(1.15652 0.24947 -1.85032e-20)
(1.09979 0.0810062 0)
(0.0316218 3.0667 -7.8317e-19)
(0.07298 2.83761 -5.85342e-20)
(0.181843 3.17252 1.36643e-18)
(0.1799 3.20888 -1.11665e-19)
(0.162366 3.26688 0)
(0.0148446 3.1445 1.93699e-19)
(0.0877974 3.15113 7.66229e-19)
(0.0853263 3.17235 -3.8107e-19)
(0.0239265 3.13216 0)
(0.699937 0.356141 0)
(0.637608 0.390307 0)
(1.02071 0.636845 -1.81659e-19)
(1.05044 0.805117 2.85923e-19)
(1.12021 0.537014 0)
(1.15845 0.532604 0)
(1.01421 0.000754649 -4.82602e-19)
(1.01879 -0.0026658 5.99354e-19)
(1.01241 0.00883538 0)
(1.01326 0.0108667 0)
(1.01104 0.00436734 0)
(1.01992 0.00865655 0)
(1.00987 -0.00395005 0)
(1.02381 0.0125724 0)
(1.02007 0.0168886 0)
(1.02098 0.00785272 0)
(0.0310434 1.82671 0)
(0.00686516 1.83129 0)
(0.0920713 1.86965 0)
(0.0696161 1.88197 0)
(0.0831077 1.69989 0)
(0.0686612 1.67785 -3.03025e-19)
(0.0845779 1.73113 0)
(0.0600712 1.72926 1.6152e-19)
(0.0078434 1.75198 -1.68681e-19)
(0.00313929 1.79318 0)
(0.00158359 1.79163 0)
(0.00397513 1.79927 0)
(0.00444999 1.81517 0)
(0.00202595 1.76356 -5.32667e-20)
(-0.00140483 1.77187 6.3276e-20)
(0.00189774 1.77877 8.02861e-20)
(0.00155722 1.77632 0)
(0.00474516 1.7731 -1.03727e-19)
(0.00866011 1.77118 -6.7365e-20)
(-0.000684878 1.76092 4.34753e-20)
(-0.00738561 1.76361 -8.46788e-20)
(-0.00312028 1.77183 -9.99537e-20)
(1.00144 0.0212629 4.54051e-19)
(1.00541 0.0114183 -5.52829e-19)
(1.00097 0.0123685 -4.84114e-19)
(0.976996 0.00768186 6.04749e-19)
(1.03998 0.00616135 0)
(1.04595 -0.00947382 0)
(1.05683 0.0285044 0)
(1.04405 0.000351328 0)
(1.06288 0.0163112 0)
(1.08031 0.0743243 0)
(1.0643 0.0363728 0)
(1.08855 0.0324828 0)
(-0.0075318 1.78684 -1.57437e-21)
(-0.00585624 1.75666 0)
(-0.0116315 1.77246 0)
(0.00323934 1.7824 1.34394e-20)
(0.00396764 1.78172 -8.49406e-22)
(0.015634 1.73669 2.09135e-20)
(0.0043812 1.74038 -2.14099e-20)
(-0.00384975 1.77447 0)
(-0.0012878 1.7711 0)
(-0.000520408 1.76833 0)
(0.000424027 1.7864 0)
(0.000654124 1.78198 0)
(0.348778 1.90625 3.87476e-19)
(0.345323 1.91026 1.81547e-19)
(0.308667 1.5767 -1.81697e-19)
(0.144196 1.60599 4.58357e-19)
(0.246382 1.68136 1.18889e-19)
(1.00174 0.0116054 0)
(0.990687 -0.0173925 0)
(0.987096 -0.0137765 0)
(1.03153 -0.0112575 0)
(1.01831 -0.0221382 0)
(1.01233 -0.0229219 0)
(1.00037 -0.0166712 0)
(1.01116 0.00450669 0)
(1.01396 0.00736528 4.44876e-19)
(1.01801 0.00762262 -5.66632e-19)
(1.01296 0.00679248 -4.34685e-19)
(1.01373 -0.00273965 5.68388e-19)
(0.660557 1.46221 0)
(0.573576 1.58955 3.13411e-19)
(0.775559 1.21873 1.95153e-19)
(0.834849 1.16257 -2.59731e-19)
(0.810309 2.46672 -1.05491e-18)
(0.839226 0.109286 2.90183e-19)
(1.10468 0.0846019 0)
(1.13105 0.163779 1.6591e-20)
(1.13716 0.141162 1.61683e-21)
(0.971175 0.0961026 0)
(0.172226 2.9235 3.71619e-19)
(0.132155 2.82766 -1.10393e-18)
(-0.0170381 2.39212 7.37716e-19)
(0.0867965 0.187477 -2.98928e-19)
(0.388077 3.4945 -4.15234e-19)
(0.248515 3.34089 0)
(0.271585 3.44039 5.40663e-19)
(0.295707 3.01834 -1.44242e-18)
(0.426362 3.22875 0)
(0.0102195 3.11974 3.81239e-20)
(0.018329 3.12813 -4.63313e-19)
(0.0172183 3.12455 6.81943e-19)
(0.040182 3.13842 0)
(0.0378804 3.14708 0)
(0.96395 2.60154 0)
(0.589343 0.711846 -1.29532e-19)
(0.943444 0.971577 -1.39945e-19)
(0.899026 1.01263 0)
(0.713924 0.955941 4.86892e-20)
(0.981408 0.822916 1.31747e-20)
(0.390457 0.538776 -7.28746e-19)
(0.71748 0.341142 -2.38344e-20)
(0.731163 0.308779 2.187e-19)
(0.621231 0.441113 1.93099e-20)
(0.566888 0.428867 -8.17986e-19)
(0.697258 0.371573 0)
(0.699562 0.425634 3.62765e-19)
(0.694123 0.407039 0)
(0.652964 0.40349 0)
(0.666941 0.377003 0)
(0.773073 0.552024 1.00188e-19)
(1.16433 0.263253 1.50226e-20)
(1.14664 0.397557 0)
(1.18221 0.353656 0)
(0.797664 0.220745 3.38144e-19)
(0.798302 0.494863 -1.80474e-19)
(0.712644 0.461326 2.84395e-19)
(0.876234 0.407478 -2.7922e-19)
(1.01944 -0.0030108 3.03795e-19)
(1.01888 -0.00658716 -3.10423e-19)
(1.01955 -0.00487596 0)
(1.01851 0.00355164 0)
(1.01893 0.0115078 -2.90767e-19)
(1.02138 -0.00152232 2.82146e-19)
(1.0119 0.00122089 0)
(1.00766 0.00223711 0)
(1.02655 0.00102207 0)
(1.02111 -0.00603678 0)
(1.01958 0.00549864 0)
(1.0236 0.0041137 0)
(-0.00116228 1.83158 0)
(-0.0012949 1.82807 0)
(0.145439 1.85331 3.23146e-21)
(0.207029 1.90264 1.14982e-19)
(0.104545 1.92228 2.51868e-19)
(0.108577 1.92453 -4.08756e-19)
(0.152703 1.86933 0)
(0.137731 1.75811 -1.17699e-19)
(0.131955 1.77114 0)
(0.24575 1.67801 -1.73128e-19)
(0.186586 1.63578 5.56138e-19)
(0.160204 1.79581 1.06913e-19)
(0.20966 1.85478 3.80292e-20)
(0.168625 1.86417 -3.04369e-20)
(0.254019 1.80189 -9.99595e-20)
(0.200901 1.76248 0)
(0.204893 1.75525 9.54676e-20)
(0.0214537 1.76771 -4.93566e-20)
(0.00364846 1.7441 0)
(0.0354659 1.73178 1.83157e-19)
(0.0147943 1.73633 0)
(0.0462642 1.73273 -1.79516e-19)
(0.0149763 1.73699 0)
(0.00177808 1.76385 -3.9799e-20)
(0.00540327 1.76121 0)
(0.00312635 1.77025 0)
(0.00437539 1.76646 4.57222e-20)
(0.0129587 1.77349 -2.10107e-22)
(0.0192116 1.76838 2.03343e-19)
(0.0162465 1.77541 1.37516e-21)
(-0.00715666 1.76044 3.32567e-20)
(-0.00629372 1.75958 2.13058e-20)
(0.00359242 1.79075 0)
(-0.00231712 1.78658 0)
(0.0143537 1.76585 1.11968e-19)
(0.0113316 1.76423 8.21759e-20)
(0.00824459 1.75975 -1.1562e-19)
(0.0294901 1.7827 0)
(0.011241 1.75779 -5.63338e-20)
(0.00446267 1.75941 2.6095e-20)
(0.00133638 1.76064 -8.18437e-21)
(-0.00786438 1.76286 -4.17246e-20)
(0.00778925 1.76741 -1.33723e-20)
(0.00385224 1.77256 6.63768e-20)
(1.01347 -0.00430368 -2.9988e-19)
(1.01158 0.00662248 2.93643e-19)
(1.01282 -0.00112563 0)
(0.985575 0.0660248 4.46155e-19)
(0.973151 0.0232339 -5.01275e-19)
(0.943965 0.0122316 5.78975e-19)
(0.980138 0.0785413 -5.83234e-20)
(1.02684 0.00826562 0)
(1.03595 0.0042381 2.63368e-19)
(1.03358 0.00425864 -2.62542e-19)
(1.01548 0.0274332 -1.52276e-20)
(1.01974 0.0173219 1.34974e-19)
(0.998449 0.0348107 0)
(0.985315 0.0280935 -4.69664e-20)
(1.00901 0.0186568 0)
(1.00104 0.0236963 0)
(1.01394 0.0029325 0)
(1.01581 0.00176341 0)
(1.00314 0.0120765 9.9197e-20)
(1.00209 0.0170088 -2.17306e-19)
(0.988114 0.0196823 -1.05255e-19)
(0.980462 0.0121805 -1.16757e-19)
(0.993377 0.052621 2.11697e-19)
(1.0415 0.0466876 0)
(1.03215 0.0966545 0)
(0.022854 1.76124 -2.23375e-20)
(0.0154575 1.75315 -2.3849e-21)
(0.0216031 1.74916 0)
(0.0117425 1.77522 2.28018e-20)
(-0.00472233 1.78301 3.91465e-21)
(0.00248821 1.78147 -4.18201e-21)
(0.00933266 1.77346 5.89405e-20)
(0.00105663 1.76465 -3.49632e-21)
(0.00810021 1.76588 1.56753e-20)
(0.011371 1.77226 -3.01594e-20)
(0.00867759 1.77215 3.55872e-20)
(0.00467245 1.76121 9.95483e-24)
(0.0206177 1.75422 2.72575e-20)
(0.331199 1.80448 -1.66424e-19)
(0.268717 1.79243 9.64345e-20)
(0.576103 1.71129 -2.99524e-19)
(0.461209 1.85637 -1.8146e-19)
(0.490318 1.7914 0)
(0.334869 1.58064 1.87926e-19)
(0.344724 1.56097 2.72414e-19)
(0.198064 1.60452 3.99268e-20)
(0.19127 1.59987 -6.24462e-19)
(0.264785 1.60177 4.95561e-19)
(0.289387 1.60611 0)
(0.216761 1.60742 -3.81192e-19)
(0.0730635 1.65804 7.82478e-19)
(0.128469 1.6373 -4.38788e-20)
(0.0531568 1.63353 -1.07e-18)
(0.771114 1.46783 8.13503e-19)
(0.596627 1.50519 0)
(1.0367 -0.00776318 9.77976e-21)
(1.02279 0.0192902 -8.41511e-21)
(1.02023 0.0282632 -1.46712e-19)
(1.02223 0.0180016 1.481e-19)
(1.03165 -0.00233274 0)
(0.327317 1.38672 0)
(0.237097 1.25644 0)
(0.530943 1.00765 0)
(0.306414 1.0622 0)
(0.82483 2.41871 1.84152e-19)
(0.832184 2.09309 0)
(0.460677 2.37377 4.83076e-21)
(0.516067 1.81405 0)
(0.617322 1.93305 -5.8224e-19)
(0.582935 2.06344 3.59144e-19)
(0.851562 0.138846 0)
(0.830885 0.167347 8.41366e-20)
(0.919242 0.107434 4.20996e-19)
(0.863704 0.105557 -1.66711e-19)
(0.849772 0.0796211 -5.21729e-19)
(0.99683 0.200966 -2.59436e-19)
(0.919745 0.277422 -1.24063e-20)
(0.842721 0.262108 3.84838e-19)
(0.916434 0.205224 2.95822e-19)
(0.941567 0.145023 -5.352e-19)
(0.912125 0.146761 6.83208e-20)
(0.883358 0.219494 -1.385e-19)
(0.912969 0.177901 0)
(0.961347 0.144348 2.55209e-19)
(0.961736 0.142614 0)
(0.963218 0.189721 0)
(1.05316 0.0924197 9.07578e-20)
(0.98586 0.128426 -1.37979e-20)
(0.992968 0.193871 -4.67814e-20)
(1.05154 0.185079 0)
(1.01308 0.0326585 2.28099e-19)
(1.0049 0.0424413 2.78984e-19)
(1.0116 0.0383451 -2.24637e-19)
(1.01553 0.0569949 -1.87788e-19)
(0.998685 0.0652397 -3.14148e-19)
(0.947852 0.0748737 0)
(0.948084 0.0706855 0)
(0.932805 0.0517553 -2.08152e-19)
(0.910049 0.0630516 8.80509e-20)
(1.00862 0.0872579 2.63424e-19)
(0.991814 0.100179 -2.72628e-19)
(1.00168 0.10685 2.39836e-19)
(0.999162 0.115119 0)
(1.00543 0.0873445 0)
(0.99967 0.0817658 -1.15354e-19)
(1.01098 0.0849106 -2.10971e-19)
(0.0199269 1.81779 -1.28572e-19)
(0.189835 2.6816 1.04993e-19)
(0.762256 3.04512 3.31593e-19)
(0.996582 3.3318 -1.38131e-19)
(0.937968 2.74107 1.20245e-18)
(1.01825 2.76233 -4.57438e-19)
(0.870841 2.13842 5.00547e-21)
(0.938427 3.19025 4.43327e-19)
(0.932014 3.13943 -5.75791e-19)
(1.03668 3.46091 -3.34656e-19)
(1.22748 3.11241 4.71681e-19)
(1.25059 2.95189 0)
(0.620179 0.689459 1.80288e-20)
(0.258457 1.20769 5.38971e-19)
(0.460814 0.650033 4.53217e-19)
(0.334681 0.40833 5.45148e-19)
(0.56337 0.451513 4.58669e-19)
(0.568382 0.485882 -6.97927e-19)
(0.547544 0.553458 5.72814e-19)
(0.502717 0.505013 -2.66337e-19)
(0.492663 0.470312 5.81339e-19)
(0.799955 0.257246 -1.89945e-19)
(0.759247 0.294908 0)
(0.765357 0.274669 1.2272e-20)
(0.693385 0.490968 1.83036e-19)
(0.660146 0.46557 -6.81429e-19)
(0.595894 0.507612 3.36719e-20)
(0.638637 0.475838 0)
(0.661484 0.614559 7.79527e-20)
(0.776674 0.759052 -1.39677e-20)
(0.70053 0.790873 2.87717e-21)
(0.79576 0.697721 -1.53684e-20)
(0.839253 0.81635 1.29545e-20)
(0.833297 0.790004 -1.32547e-20)
(0.806981 0.545968 -1.86289e-19)
(0.877508 0.60888 1.44213e-20)
(0.94606 0.653554 0)
(0.939542 0.636184 -1.94757e-20)
(0.945609 0.2887 7.05769e-20)
(1.07638 0.282518 1.65086e-20)
(0.982053 0.23714 1.05646e-19)
(0.93057 0.333323 -1.55795e-19)
(0.974511 0.393133 0)
(1.02266 0.374721 0)
(0.842513 0.335818 1.18119e-20)
(0.810813 0.302816 0)
(0.832169 0.282078 1.97884e-19)
(0.835994 0.270815 -7.80244e-21)
(0.865327 0.41004 7.6101e-19)
(0.825976 0.47093 1.90232e-19)
(0.817522 0.44346 -2.52558e-19)
(0.752336 0.407163 2.73029e-19)
(0.733542 0.408936 1.82675e-19)
(0.717461 0.407232 -1.78825e-19)
(1.01309 0.00826576 2.45945e-19)
(1.01098 -0.000567272 0)
(1.00918 0.0143318 1.62787e-19)
(1.01245 0.0105468 -3.63773e-19)
(1.0114 0.0041142 1.76288e-19)
(1.01354 0.0102941 -3.68106e-19)
(1.0109 0.00161419 0)
(1.01001 -0.00617592 -7.65022e-20)
(1.01328 0.00121659 1.93511e-19)
(1.01804 -0.00403069 -9.77135e-20)
(1.01691 -0.00243112 7.20366e-20)
(0.00347716 1.81733 0)
(0.00189391 1.772 0)
(0.000456667 1.82332 0)
(0.00412695 1.82147 0)
(0.0273851 1.79184 6.02218e-20)
(0.0404012 1.80704 -1.70924e-20)
(0.0949273 1.78137 -3.2822e-20)
(0.0983167 1.79478 -1.78057e-20)
(0.0131958 1.7721 -7.77511e-20)
(0.0132379 1.77616 5.6539e-20)
(0.0223314 1.78824 -1.88848e-20)
(0.00553826 1.79078 -1.91876e-20)
(0.00590584 1.78603 -2.11091e-21)
(0.00183731 1.77797 -7.64764e-21)
(0.0609517 1.74184 -1.9547e-19)
(0.0834951 1.74326 0)
(0.0890832 1.73645 1.23884e-19)
(0.112853 1.76754 7.68287e-20)
(0.147562 1.71762 -8.59791e-20)
(0.109749 1.65909 0)
(0.10956 1.64557 -5.68484e-19)
(0.163063 1.64052 3.99311e-19)
(0.145001 1.72407 -2.40438e-19)
(0.117504 1.7259 1.33207e-19)
(0.0810801 1.68938 0)
(0.0192705 1.76443 -1.29437e-19)
(0.0142554 1.76371 -1.77535e-19)
(0.0123094 1.76254 0)
(0.0291723 1.77089 -3.86212e-21)
(0.0284528 1.77224 6.79004e-20)
(0.00322639 1.77742 7.17991e-21)
(0.00650231 1.78399 -1.1291e-19)
(0.00512882 1.78063 2.87116e-20)
(-0.00652024 1.76162 4.19679e-20)
(0.00249624 1.76323 0)
(0.00068278 1.78607 0)
(-0.0020637 1.78707 3.35353e-20)
(0.000640613 1.78863 -9.33524e-21)
(0.000199187 1.78883 0)
(-0.00269797 1.78803 2.84106e-20)
(-0.00723698 1.78436 -5.45331e-20)
(1.00459 0.0171032 0)
(1.00583 0.0221405 -2.35099e-20)
(1.00483 0.0126673 -1.72417e-19)
(1.01361 0.0199795 0)
(1.01494 0.0271871 0)
(1.00034 0.00780924 -7.18457e-21)
(1.00168 0.00816086 2.84872e-19)
(1.00369 0.00963026 3.53722e-19)
(1.0174 0.00512863 0)
(1.01625 0.00656029 0)
(1.00218 0.0163875 1.79463e-19)
(1.00162 0.0145735 0)
(1.00693 0.0135867 0)
(0.00549811 1.74537 0)
(0.0117396 1.76024 1.12038e-21)
(0.010388 1.75202 1.33649e-20)
(0.000921928 1.78614 0)
(0.000571243 1.77018 1.71899e-20)
(0.00408601 1.78102 -9.25403e-21)
(-0.000280824 1.78626 0)
(0.352022 1.72624 0)
(0.290239 1.76484 -2.28653e-19)
(0.268687 1.74579 0)
(0.341517 1.75577 1.76347e-19)
(0.361046 1.77356 0)
(0.357609 1.79447 -3.55208e-20)
(0.782398 1.81927 -1.76591e-20)
(0.785089 1.45999 -9.7651e-19)
(0.856947 1.44749 9.4064e-19)
(0.639031 1.50371 2.81274e-19)
(0.612843 1.62765 0)
(0.676906 1.66748 0)
(0.743095 1.46472 0)
(0.703258 1.45941 -1.006e-18)
(0.408001 1.73438 -5.26541e-19)
(0.532171 1.61781 -1.45854e-19)
(0.531493 1.74545 1.17684e-19)
(0.401885 1.55648 0)
(0.546933 1.53444 0)
(0.466484 1.54531 -3.18555e-19)
(0.495766 1.60963 0)
(0.328094 0.927952 0)
(0.429531 0.609397 9.0106e-19)
(0.61834 0.565147 5.64039e-20)
(0.00754091 1.15201 0)
(0.332649 1.26704 -1.36397e-18)
(0.709792 0.789491 4.19521e-20)
(0.664855 0.898546 0)
(0.663381 0.91325 -7.55353e-20)
(0.551484 0.696073 0)
(0.590414 0.744283 0)
(0.752971 2.65899 1.29899e-19)
(0.726126 2.93384 -1.26296e-20)
(0.434324 2.75997 -1.105e-19)
(0.395325 2.56406 -8.08695e-20)
(0.802044 2.33431 0)
(0.792566 2.24129 1.05036e-19)
(0.841537 2.03187 8.58105e-20)
(0.880156 1.77469 3.74936e-21)
(0.236539 2.02706 0)
(0.0202428 1.71639 1.11748e-19)
(0.0859115 1.68498 0)
(0.889131 0.193847 0)
(0.833939 0.174389 0)
(0.800689 0.175529 0)
(0.873336 0.213238 -3.10824e-19)
(0.818221 0.209629 1.97552e-19)
(0.902001 0.0675353 -1.83324e-19)
(0.91145 0.0895437 0)
(0.913933 0.0896703 7.82067e-20)
(0.866631 0.0845158 3.34066e-19)
(0.873508 0.0717063 -2.06787e-19)
(1.08441 3.53623 -7.72193e-19)
(1.08117 3.50532 0)
(1.10812 3.50603 -1.62319e-18)
(0.673624 3.65458 1.65428e-18)
(0.896168 3.21602 4.8685e-19)
(0.666432 0.723138 -1.16162e-19)
(0.553762 0.816009 0)
(0.597969 0.580729 -8.61918e-20)
(0.593144 0.641969 2.15184e-19)
(0.55555 0.639685 -1.28291e-19)
(0.527669 0.578525 1.4111e-19)
(0.610528 0.532191 2.75943e-19)
(0.669645 0.514451 0)
(0.649528 0.622327 0)
(0.579852 0.592455 0)
(0.976819 0.55548 -4.19161e-20)
(0.82684 0.488349 -1.83082e-19)
(0.833947 0.52268 8.86421e-20)
(0.857534 0.499827 -1.36648e-19)
(0.995364 0.461153 0)
(1.01936 0.522553 -7.95521e-21)
(0.779344 0.374142 -4.10837e-19)
(0.792449 0.368235 -4.64824e-19)
(0.760195 0.368597 3.20866e-19)
(0.752265 0.35006 -3.56251e-19)
(0.79406 0.317848 -2.7012e-19)
(0.754088 0.319011 3.32652e-19)
(1.01241 -0.00469967 -1.87748e-19)
(1.01876 -0.00212668 3.7374e-19)
(1.002 0.00468138 2.3517e-19)
(1.00381 0.0175452 -2.81486e-19)
(0.996139 0.0209474 0)
(1.00541 0.0061603 -4.43964e-19)
(0.041031 1.78501 2.96784e-20)
(0.0392908 1.78012 0)
(0.0583263 1.76917 2.39304e-19)
(0.0842191 1.78441 -2.11847e-19)
(0.0708129 1.79552 6.13907e-20)
(0.0538574 1.78078 0)
(-0.00740355 1.75573 0)
(-0.00293972 1.77294 -1.1321e-20)
(0.000847663 1.77991 1.03355e-20)
(0.000712018 1.77239 5.01991e-21)
(0.000210031 1.74816 -2.0439e-20)
(0.00256983 1.75409 1.13112e-20)
(0.319453 1.89118 -5.72732e-19)
(0.337947 1.80043 6.02414e-19)
(0.33368 1.75323 -1.11499e-19)
(0.36316 1.77867 2.40853e-20)
(0.361304 1.51005 0)
(0.390054 1.72122 1.63947e-19)
(0.383743 1.63147 -1.58779e-19)
(0.306176 1.75155 1.16427e-19)
(0.285049 1.74498 0)
(0.211598 1.71278 0)
(0.389899 1.64712 8.11664e-19)
(0.393694 1.57955 1.28506e-18)
(0.450013 1.61118 -8.72148e-19)
(0.364153 1.60176 -1.59011e-19)
(0.316825 1.63536 2.63665e-19)
(0.259118 1.60197 -6.4953e-19)
(0.867152 1.53151 -5.14869e-19)
(0.88058 1.69611 0)
(0.904759 1.53399 -2.36867e-19)
(0.813163 2.04951 0)
(0.811142 1.96047 0)
(0.889229 2.54713 7.75342e-19)
(0.951832 3.39461 8.29171e-19)
(0.851804 3.235 -6.39764e-19)
(0.529719 0.97947 0)
(0.65466 0.934761 -6.44937e-20)
(0.757491 0.792294 2.44152e-19)
(0.818667 2.08375 0)
(0.67763 2.85002 -3.79063e-19)
(0.584255 2.52796 0)
(0.673171 0.611884 -1.6743e-19)
(0.742466 0.656412 2.80565e-19)
(0.751053 0.611271 -2.86594e-19)
(0.668168 0.5879 -3.27006e-20)
(0.678028 0.590348 -1.51306e-19)
(0.856553 3.1025 -6.29116e-19)
(0.811105 3.22691 7.52048e-19)
(0.855052 2.61486 -1.33082e-18)
(0.765035 2.42955 8.86135e-19)
(0.473015 2.64344 9.59632e-19)
(0.723309 2.87753 -5.21353e-21)
(0.562516 3.00307 -5.70124e-19)
(0.700927 2.44275 -5.533e-20)
(0.482737 2.48196 -3.75561e-19)
)
;

boundaryField
{
    wall-4
    {
        type            noSlip;
    }
    velocity-inlet-5
    {
        type            fixedValue;
        value           uniform (1 0 0);
    }
    velocity-inlet-6
    {
        type            fixedValue;
        value           uniform (0 3 0);
    }
    pressure-outlet-7
    {
        type            zeroGradient;
    }
    wall-8
    {
        type            noSlip;
    }
    frontAndBackPlanes
    {
        type            empty;
    }
}


// ************************************************************************* //
