/*--------------------------------*- C++ -*----------------------------------*\
| =========                 |                                                 |
| \\      /  F ield         | OpenFOAM: The Open Source CFD Toolbox           |
|  \\    /   O peration     | Version:  4.0                                   |
|   \\  /    A nd           | Web:      www.OpenFOAM.org                      |
|    \\/     M anipulation  |                                                 |
\*---------------------------------------------------------------------------*/
FoamFile
{
    version     2.0;
    format      ascii;
    class       surfaceScalarField;
    location    "45";
    object      phi;
}
// * * * * * * * * * * * * * * * * * * * * * * * * * * * * * * * * * * * * * //

dimensions      [0 3 -1 0 0 0 0];

internalField   nonuniform List<scalar> 
17370
(
-0.0916069
0.0960079
0.28461
-0.0775922
0.0594166
0.364951
-0.0430388
0.0316193
0.427588
-0.0223149
0.0162613
0.505305
-0.0116666
0.00879111
0.602278
-0.00657885
0.00509489
0.720541
-0.00386167
0.0029859
0.863782
-0.00221754
0.00164256
1.03603
-0.00111395
0.00069535
1.24292
-0.000286191
-0.000105379
1.49158
0.000492013
-0.000901561
1.4916
0.00130326
-0.00180629
1.24319
0.00235696
-0.0031025
1.03638
0.00396428
-0.00518908
0.864131
0.00666801
-0.00887306
0.721263
0.0117378
-0.0163165
0.603793
0.0223542
-0.0316421
0.508727
0.0430449
-0.0594122
0.432535
0.0775901
-0.0960046
0.36519
0.0916202
0.197391
-0.127088
0.0880186
0.0390698
-0.364352
0.354026
-0.0714791
0.0818056
-0.446655
0.454249
-0.0791721
0.071578
-0.52101
0.529106
-0.0637286
0.0556323
-0.612988
0.620758
-0.048246
0.0404764
-0.727161
0.733681
-0.033864
0.0273436
-0.86758
0.872425
-0.0221429
0.0172973
-1.03856
1.0419
-0.0136054
0.0102707
-1.24472
1.24712
-0.00772253
0.00531936
-1.49284
1.49485
-0.0033577
0.00134626
-1.49269
1.49451
0.00047279
-0.00229034
-1.24411
1.24602
0.00426253
-0.00617315
-1.03761
1.04009
0.00850926
-0.0109905
-0.866188
0.869823
0.0142532
-0.0178881
-0.724594
0.729756
0.0226832
-0.0278448
-0.609066
0.615638
0.0343234
-0.0408949
-0.515125
0.522462
0.048616
-0.0559531
-0.43988
0.447662
0.0639784
-0.0717603
-0.37471
0.377356
0.0792621
-0.0819077
-0.256901
0.224442
0.0715584
-0.0390994
-0.0688039
0.0591893
0.00961456
-0.0521223
0.0589554
-0.374833
0.368
-0.0581114
0.0542725
-0.453942
0.457781
-0.0487875
0.0442295
-0.527611
0.532169
-0.0396804
0.0357858
-0.620794
0.624689
-0.031576
0.0275869
-0.734654
0.738643
-0.0232388
0.0193587
-0.873948
0.877829
-0.015319
0.011865
-1.04335
1.04681
-0.00834857
0.00531883
-1.24864
1.25167
-0.00211384
-0.000864213
-1.49694
1.49992
0.00382165
-0.00696734
-1.49742
1.50057
0.00991212
-0.0133149
-1.25007
1.25347
0.0166562
-0.0205721
-1.04566
1.04957
0.0243479
-0.0285953
-0.877141
0.881389
0.0325028
-0.0366285
-0.738987
0.743113
0.0404497
-0.0449242
-0.625977
0.630452
0.0494202
-0.054845
-0.535022
0.540447
0.0586163
-0.0593799
-0.458082
0.458846
0.0524394
-0.0320573
-0.336773
0.316391
0.0096711
-0.0686695
0.0589984
-0.0533984
0.0492843
0.00411408
-0.0332608
0.0436924
-0.358548
0.348116
-0.0473747
0.0467926
-0.45957
0.460152
-0.0438687
0.04066
-0.536121
0.53933
-0.036987
0.0336363
-0.628383
0.631733
-0.0300083
0.0267742
-0.74202
0.745254
-0.0233306
0.0201405
-0.88132
0.884511
-0.0165543
0.0132081
-1.05023
1.05357
-0.00951535
0.00611582
-1.25493
1.25833
-0.00232961
-0.00128343
-1.50327
1.50688
0.00486635
-0.00856501
-1.50407
1.50776
0.0118464
-0.0153812
-1.25704
1.26057
0.0185698
-0.0219793
-1.05328
1.05669
0.025017
-0.0283107
-0.884995
0.888289
0.0314223
-0.0349281
-0.746796
0.750302
0.0381727
-0.0417333
-0.634576
0.638137
0.0448444
-0.0476596
-0.544594
0.547409
0.0481304
-0.0442942
-0.456968
0.453132
0.033675
-0.0163703
-0.297083
0.279778
0.00417595
-0.0531512
0.0489753
-0.0461127
0.0435541
0.00255861
-0.0230679
0.0334278
-0.337517
0.327157
-0.0391712
0.0401268
-0.459897
0.458941
-0.0388819
0.0365586
-0.541982
0.544305
-0.0339217
0.0313808
-0.634694
0.637235
-0.0284119
0.0255737
-0.748336
0.751174
-0.0223476
0.0193432
-0.88756
0.890565
-0.0160009
0.0128742
-1.05674
1.05987
-0.00932611
0.00593468
-1.26172
1.26511
-0.00203377
-0.00175656
-1.51061
1.5144
0.00550877
-0.00929428
-1.51155
1.51534
0.0125307
-0.0158716
-1.26404
1.26738
0.0187898
-0.0218973
-1.05989
1.063
0.0246955
-0.027715
-0.891484
0.894504
0.0303844
-0.0331857
-0.753484
0.756285
0.0355829
-0.038072
-0.641096
0.643585
0.0402695
-0.0413484
-0.549251
0.55033
0.0402221
-0.0342301
-0.448017
0.442025
0.0235979
-0.0103628
-0.264602
0.251367
0.00263507
-0.0457349
0.0430998
-0.0414334
0.0396294
0.00180399
-0.0169687
0.0262671
-0.317278
0.307979
-0.032877
0.0350081
-0.457374
0.455243
-0.0345833
0.0328922
-0.54633
0.548021
-0.0306721
0.0285515
-0.639539
0.64166
-0.0261231
0.0237547
-0.753766
0.756135
-0.0209511
0.0182138
-0.893412
0.896149
-0.0150394
0.0120147
-1.0629
1.06592
-0.00856114
0.00525694
-1.26842
1.27172
-0.00142925
-0.00230864
-1.51816
1.5219
0.00599745
-0.00967944
-1.51908
1.52276
0.0127867
-0.0159774
-1.27066
1.27385
0.0187372
-0.021611
-1.06603
1.06891
0.0240806
-0.0266136
-0.897287
0.89982
0.0287618
-0.0309742
-0.758728
0.76094
0.032913
-0.0349447
-0.645819
0.647851
0.036454
-0.036654
-0.55092
0.55112
0.0342616
-0.02729
-0.435449
0.428477
0.0176284
-0.00745908
-0.239808
0.229639
0.0018974
-0.0408951
0.0389977
-0.0380774
0.0367218
0.00135556
-0.0129727
0.0209871
-0.299328
0.291313
-0.0277723
0.0307085
-0.45268
0.449744
-0.0309282
0.0298138
-0.549452
0.550566
-0.0278227
0.0259035
-0.643708
0.645627
-0.0237003
0.0215685
-0.758368
0.7605
-0.0190731
0.0166175
-0.898684
0.90114
-0.0137135
0.0108748
-1.06881
1.07164
-0.00756441
0.00436538
-1.27494
1.27814
-0.000650001
-0.00296696
-1.52556
1.52918
0.00652317
-0.0100582
-1.52638
1.52991
0.0130146
-0.0160011
-1.27697
1.27996
0.0185116
-0.0210381
-1.07163
1.07415
0.023153
-0.0252985
-0.902137
0.904283
0.0271433
-0.0290682
-0.762986
0.764911
0.0307586
-0.0325278
-0.649724
0.651493
0.0333804
-0.0328483
-0.550962
0.550429
0.0295404
-0.0222621
-0.421297
0.414019
0.0137834
-0.00575168
-0.220642
0.21261
0.00146929
-0.037343
0.0358737
-0.0355381
0.0344927
0.00104536
-0.0101498
0.0169411
-0.283937
0.277146
-0.0234814
0.0268867
-0.446558
0.443153
-0.0276913
0.0270144
-0.551458
0.552135
-0.0252628
0.0234919
-0.64751
0.649281
-0.0214448
0.0194543
-0.762557
0.764547
-0.0171116
0.0148109
-0.903447
0.905748
-0.012104
0.00945025
-1.07432
1.07697
-0.00632783
0.00327817
-1.28123
1.28428
0.000288081
-0.00375809
-1.53269
1.53616
0.00715476
-0.0104981
-1.53335
1.5367
0.0132478
-0.0159687
-1.28284
1.28556
0.018218
-0.0204609
-1.07655
1.07879
0.0223417
-0.0242495
-0.906317
0.908224
0.0258813
-0.0275801
-0.766708
0.768407
0.0290654
-0.0305071
-0.653116
0.654558
0.0308517
-0.0296147
-0.549556
0.54832
0.025699
-0.0185129
-0.406764
0.399578
0.011141
-0.00461557
-0.205404
0.198878
0.0011837
-0.0345654
0.0333817
-0.0335744
0.0327584
0.000816009
-0.00805822
0.0137776
-0.270922
0.265202
-0.0198453
0.0234608
-0.439637
0.436021
-0.0247552
0.0243335
-0.552718
0.55314
-0.0228633
0.0212097
-0.651039
0.652693
-0.0192658
0.0173703
-0.766483
0.768379
-0.0151359
0.0129401
-0.907928
0.910124
-0.0103554
0.00782896
-1.07949
1.08202
-0.00486727
0.00197198
-1.2872
1.29009
0.00141796
-0.00471687
-1.53952
1.54282
0.00792591
-0.0110447
-1.53993
1.54304
0.0135733
-0.0160467
-1.28818
1.29065
0.0180798
-0.0200974
-1.08094
1.08296
0.0217776
-0.0234741
-0.91004
0.911736
0.0249221
-0.0264299
-0.770001
0.771509
0.0277274
-0.0288035
-0.655791
0.656867
0.0287898
-0.0268962
-0.546761
0.544867
0.0226029
-0.0157096
-0.392535
0.385641
0.00927049
-0.00382432
-0.192944
0.187498
0.000984734
-0.032312
0.0313272
-0.0320405
0.0314013
0.000639233
-0.00644796
0.0112511
-0.259972
0.255168
-0.0167384
0.0203674
-0.432404
0.428775
-0.0219983
0.0218096
-0.553486
0.553675
-0.0205793
0.0189907
-0.65436
0.655949
-0.0171099
0.0152735
-0.770235
0.772072
-0.0131127
0.0109923
-0.912202
0.914322
-0.00849756
0.00606105
-1.08442
1.08685
-0.00321136
0.000443387
-1.29287
1.29564
0.00277573
-0.00588455
-1.54599
1.5491
0.00888301
-0.0117712
-1.54604
1.54893
0.0140947
-0.0163496
-1.29304
1.29529
0.0181859
-0.0199905
-1.08489
1.0867
0.0214795
-0.0229788
-0.913354
0.914853
0.0242633
-0.0256045
-0.772937
0.774278
0.0267644
-0.027446
-0.657726
0.658408
0.027076
-0.0246495
-0.542728
0.540302
0.0201403
-0.0136143
-0.378944
0.372418
0.00792526
-0.0032628
-0.182485
0.177823
0.000844087
-0.0304259
0.0295819
-0.0308419
0.0303454
0.000496466
-0.00515345
0.00916563
-0.250789
0.246777
-0.0140249
0.0175181
-0.425226
0.421733
-0.0193509
0.0193716
-0.553806
0.553785
-0.0183603
0.0168256
-0.657575
0.65911
-0.0149867
0.0131802
-0.773878
0.775684
-0.0110512
0.00896506
-0.916335
0.918421
-0.00651963
0.00414379
-1.08917
1.09155
-0.00137972
-0.00128746
-1.29829
1.30096
0.00436604
-0.00731101
-1.55209
1.55503
0.0101215
-0.0127983
-1.5517
1.55438
0.0149252
-0.0169655
-1.29747
1.29951
0.01861
-0.0202129
-1.08844
1.09004
0.0215289
-0.0228503
-0.916285
0.917607
0.0239801
-0.0251503
-0.775541
0.776711
0.0261191
-0.0264334
-0.658877
0.659191
0.0256943
-0.0228274
-0.537671
0.534804
0.0182108
-0.0120572
-0.366098
0.359945
0.00695665
-0.00286538
-0.173481
0.16939
0.000746089
-0.0287991
0.028053
-0.0299165
0.029541
0.000375535
-0.00406768
0.00738336
-0.243139
0.239824
-0.0115991
0.0148416
-0.418385
0.415142
-0.0167421
0.0169259
-0.553739
0.553556
-0.0160084
0.0145569
-0.660676
0.662127
-0.0127267
0.0109191
-0.777471
0.779278
-0.00879395
0.00672303
-0.920397
0.922468
-0.00430966
0.001977
-1.09381
1.09614
0.000717313
-0.0033052
-1.30352
1.3061
0.00626324
-0.00905713
-1.55786
1.56065
0.0116887
-0.0141572
-1.55694
1.5594
0.0160869
-0.0179084
-1.30147
1.30329
0.0193541
-0.0207456
-1.09157
1.09296
0.0218793
-0.0230207
-0.918869
0.92001
0.0240033
-0.0250104
-0.777829
0.778836
0.0257351
-0.0257721
-0.659362
0.659399
0.024646
-0.0214101
-0.531766
0.52853
0.0167462
-0.0109242
-0.353987
0.348165
0.00627185
-0.00259106
-0.165538
0.161857
0.000680458
-0.0273529
0.0266725
-0.0292246
0.0289564
0.00026826
-0.00311502
0.00579963
-0.236845
0.23416
-0.00936959
0.0122795
-0.412088
0.409178
-0.0141415
0.0144275
-0.553388
0.553102
-0.0135748
0.012188
-0.663636
0.665023
-0.010354
0.00852346
-0.781074
0.782904
-0.00637053
0.00427878
-0.924429
0.926521
-0.00185318
-0.000471318
-1.09836
1.10068
0.00314426
-0.00567613
-1.30858
1.31112
0.0085327
-0.0111902
-1.56333
1.56598
0.0136497
-0.0159109
-1.56175
1.56401
0.0176443
-0.0192473
-1.30503
1.30664
0.0204958
-0.0216761
-1.0943
1.09548
0.0226252
-0.0235854
-0.921094
0.922054
0.0244215
-0.0252577
-0.779775
0.780612
0.0257278
-0.0255021
-0.659283
0.659057
0.0239727
-0.0203896
-0.525148
0.521565
0.0156918
-0.0101345
-0.342517
0.336959
0.00580914
-0.00241271
-0.158353
0.154957
0.000640273
-0.0260269
0.0253866
-0.0287443
0.0285773
0.000166943
-0.00223214
0.00432277
-0.23179
0.229699
-0.00723968
0.00974331
-0.406497
0.403993
-0.0114563
0.0117676
-0.552881
0.55257
-0.0109533
0.00960297
-0.666496
0.667846
-0.00774877
0.0058719
-0.784725
0.786602
-0.00365822
0.0015129
-0.928506
0.930651
0.000956488
-0.00331053
-1.1029
1.10525
0.00598015
-0.00848149
-1.31355
1.31605
0.0112638
-0.013806
-1.56853
1.57107
0.0161079
-0.0181694
-1.56615
1.56821
0.0197056
-0.0210858
-1.30816
1.30954
0.0221346
-0.0231001
-1.09661
1.09758
0.0238522
-0.0245978
-0.922962
0.923707
0.0252475
-0.0259041
-0.781364
0.78202
0.0260693
-0.025519
-0.658609
0.658059
0.0235968
-0.0197035
-0.517872
0.513979
0.0149753
-0.00961535
-0.331552
0.326192
0.00551778
-0.00230794
-0.151691
0.148482
0.000619614
-0.0247728
0.0241532
-0.0284673
0.028403
6.42623e-05
-0.00137024
0.0028801
-0.227914
0.226404
-0.00512741
0.00715757
-0.401755
0.399725
-0.00861144
0.00885625
-0.552389
0.552144
-0.00802076
0.00665757
-0.669326
0.670689
-0.00473378
0.00277659
-0.788474
0.790431
-0.000473497
-0.00174455
-0.932678
0.934896
0.0042801
-0.006676
-1.10749
1.10989
0.00936947
-0.0118607
-1.31844
1.32093
0.0145801
-0.0170022
-1.57349
1.57591
0.0191324
-0.020974
-1.57014
1.57198
0.0222906
-0.0234142
-1.31082
1.31195
0.0242219
-0.0249255
-1.09848
1.09918
0.0254474
-0.0259707
-0.924415
0.924938
0.0264562
-0.026948
-0.782562
0.783053
0.0268295
-0.025915
-0.657239
0.656324
0.0235941
-0.0193843
-0.51
0.50579
0.0145918
-0.00934355
-0.320955
0.315707
0.00537962
-0.00226963
-0.145366
0.142256
0.000617092
-0.0235546
0.0229375
-0.0283963
0.0284425
-4.61165e-05
-0.000481259
0.00140135
-0.225202
0.224282
-0.00294623
0.00443674
-0.397992
0.396501
-0.0055354
0.00564099
-0.552088
0.551982
-0.00474326
0.00332909
-0.672231
0.673645
-0.00131944
-0.000743986
-0.792385
0.794448
0.00317511
-0.00550646
-0.936995
0.939326
0.00815915
-0.0106431
-1.11217
1.11466
0.0134011
-0.01591
-1.32332
1.32583
0.0185907
-0.0209098
-1.5782
1.58052
0.0228739
-0.0244927
-1.57367
1.57529
0.0255843
-0.0264508
-1.31297
1.31384
0.0270185
-0.0274546
-1.09984
1.10027
0.0277243
-0.0279832
-0.925429
0.925688
0.0282569
-0.0284672
-0.783284
0.783495
0.0281004
-0.0267286
-0.655106
0.653734
0.0239714
-0.0194152
-0.501521
0.496965
0.0145113
-0.00928991
-0.310557
0.305336
0.00537475
-0.00228877
-0.13921
0.136124
0.000630144
-0.0223365
0.0217063
-0.0285442
0.0287055
-0.000161275
0.000457217
-0.000165264
-0.223682
0.22339
-0.000623612
0.0014934
-0.39534
0.39447
-0.00212357
0.00200975
-0.552134
0.552248
-0.00100069
-0.000516882
-0.675285
0.676802
0.00264872
-0.00486188
-0.79651
0.798723
0.00747593
-0.00997332
-0.941547
0.944045
0.0127914
-0.0154003
-1.11704
1.11965
0.0182559
-0.0208084
-1.32824
1.33079
0.0234708
-0.0256953
-1.58271
1.58494
0.0274847
-0.028853
-1.57674
1.57811
0.0296856
-0.0302414
-1.31458
1.31514
0.0305264
-0.030664
-1.10065
1.10078
0.030672
-0.0306591
-0.925913
0.9259
0.030697
-0.0305707
-0.783346
0.78322
0.0298721
-0.0279673
-0.652084
0.650179
0.0247395
-0.019806
-0.492374
0.487441
0.0147343
-0.0094485
-0.300185
0.294899
0.00549792
-0.00236301
-0.133074
0.129939
0.000658117
-0.0210876
0.0204295
-0.0289491
0.0292563
-0.000307181
0.00148827
-0.0018525
-0.223453
0.223817
0.00192541
-0.00179405
-0.393937
0.393805
0.00177735
-0.00223846
-0.552749
0.55321
0.00345769
-0.00514708
-0.678614
0.680303
0.00747775
-0.00988858
-0.800935
0.803346
0.0127214
-0.0154069
-0.946416
0.949102
0.0184145
-0.021175
-1.12214
1.1249
0.0241588
-0.0267746
-1.33323
1.33585
0.0294241
-0.0315365
-1.58701
1.58912
0.0331248
-0.0342005
-1.57927
1.58035
0.0347468
-0.0349502
-1.31554
1.31575
0.0349092
-0.0346978
-1.10082
1.10061
0.0343925
-0.0340604
-0.925811
0.925479
0.0338518
-0.0333173
-0.782646
0.782111
0.0322231
-0.0297178
-0.64806
0.645554
0.0259758
-0.0205994
-0.482492
0.477115
0.0152766
-0.00982238
-0.289653
0.284198
0.00574904
-0.00249192
-0.126812
0.123554
0.000700855
-0.0197791
0.0190782
-0.0296337
0.0301171
-0.000483455
0.00278821
-0.00392318
-0.22458
0.225715
0.00487856
-0.00555019
-0.394009
0.39468
0.00624271
-0.00713911
-0.55419
0.555086
0.00863356
-0.0105545
-0.68236
0.684281
0.0131565
-0.0158283
-0.805752
0.808424
0.018954
-0.0219025
-0.951661
0.95461
0.0251818
-0.0281586
-1.12756
1.13054
0.0313241
-0.0340322
-1.33836
1.34107
0.036676
-0.0386653
-1.59107
1.59306
0.0400186
-0.040764
-1.58119
1.58194
0.0409624
-0.0407802
-1.31576
1.31558
0.0403744
-0.0397731
-1.10022
1.09962
0.0391159
-0.038413
-0.925007
0.924305
0.0378847
-0.0368534
-0.781056
0.780024
0.0352619
-0.0320714
-0.642905
0.639715
0.0277251
-0.0218135
-0.471724
0.465812
0.0161471
-0.0104148
-0.278752
0.27302
0.0061284
-0.00267464
-0.120279
0.116825
0.000757762
-0.0183812
0.0176234
-0.0306725
0.0313751
-0.000702599
0.00429235
-0.00632034
-0.227273
0.229301
0.00837448
-0.0099589
-0.395762
0.397346
0.0114751
-0.0129252
-0.55666
0.55811
0.0148088
-0.0170309
-0.686631
0.688853
0.019985
-0.0230016
-0.811091
0.814108
0.0265174
-0.0298116
-0.957451
0.960746
0.0334362
-0.0366782
-1.13342
1.13667
0.040059
-0.042876
-1.34366
1.34648
0.0455187
-0.0473678
-1.59487
1.59672
0.0484473
-0.0487974
-1.58242
1.58277
0.0485715
-0.0479429
-1.31515
1.31452
0.0471178
-0.046075
-1.09877
1.09773
0.0450312
-0.0439074
-0.92338
0.922256
0.0429066
-0.0413583
-0.778433
0.776885
0.0391117
-0.0351321
-0.636434
0.632454
0.0300901
-0.0235301
-0.459893
0.453333
0.017397
-0.0112507
-0.267258
0.261111
0.00664655
-0.00291379
-0.113324
0.109591
0.000828988
-0.0168665
0.0160375
-0.0321481
0.0331367
-0.000988549
0.00617735
-0.00929645
-0.231764
0.234883
0.0125986
-0.0152461
-0.399471
0.402118
0.017739
-0.0198977
-0.560447
0.562605
0.0223586
-0.0250389
-0.691612
0.694293
0.0284963
-0.0319623
-0.817119
0.820585
0.035947
-0.0396391
-0.963931
0.967624
0.0436554
-0.047196
-1.13981
1.14335
0.0508114
-0.0537289
-1.34916
1.35208
0.0563206
-0.0579461
-1.59834
1.59996
0.0586528
-0.0585098
-1.5828
1.58266
0.0577955
-0.0566127
-1.31354
1.31236
0.0552952
-0.0537252
-1.09632
1.09475
0.0522325
-0.0506232
-0.920811
0.919202
0.0490994
-0.0469412
-0.774728
0.77257
0.04396
-0.0390658
-0.628418
0.623524
0.0331849
-0.0258047
-0.446758
0.439377
0.0190491
-0.0123326
-0.254895
0.248178
0.00729708
-0.0032022
-0.105784
0.101689
0.000911165
-0.0152082
0.014297
-0.0341882
0.03557
-0.00138177
0.00866809
-0.0131225
-0.238417
0.242872
0.0178991
-0.0217684
-0.40548
0.40935
0.0253894
-0.0283889
-0.565899
0.568898
0.0315917
-0.0348828
-0.697631
0.700923
0.0389954
-0.0430279
-0.824045
0.828077
0.0475919
-0.0517692
-0.971217
0.975394
0.056253
-0.0601337
-1.14679
1.15067
0.0639936
-0.0669849
-1.35483
1.35782
0.0694624
-0.0707797
-1.6013
1.60261
0.0710184
-0.0702664
-1.58214
1.58139
0.0689575
-0.067095
-1.31071
1.30885
0.0651931
-0.0630204
-1.09269
1.09052
0.0610019
-0.0588602
-0.917167
0.915025
0.0567122
-0.0538498
-0.769751
0.766889
0.0499912
-0.043999
-0.618587
0.612594
0.0371004
-0.0286994
-0.431983
0.423582
0.021136
-0.0136649
-0.24135
0.233879
0.00807036
-0.00352794
-0.097496
0.0929536
0.000998125
-0.0133874
0.0123892
-0.0369956
0.0389414
-0.00194582
0.0120458
-0.0181879
-0.247691
0.253833
0.0247467
-0.0300478
-0.414232
0.419534
0.0349823
-0.0389853
-0.57335
0.577353
0.0431083
-0.0471853
-0.704994
0.709071
0.0521424
-0.0568999
-0.83211
0.836868
0.0622001
-0.0669733
-0.979503
0.984276
0.0719938
-0.0762193
-1.15443
1.15866
0.0802644
-0.0832255
-1.36058
1.36354
0.0854319
-0.0862752
-1.60354
1.60439
0.085873
-0.0843489
-1.58015
1.57863
0.0823211
-0.0796888
-1.30645
1.30382
0.0771196
-0.0742726
-1.08772
1.08488
0.0716845
-0.068911
-0.912309
0.909535
0.0660568
-0.0623273
-0.763306
0.759577
0.0574139
-0.0501242
-0.606555
0.599266
0.0420015
-0.0323232
-0.415169
0.405491
0.0237128
-0.0152588
-0.226254
0.2178
0.00895723
-0.00387924
-0.0882925
0.0832145
0.00108403
-0.0113984
0.0103143
-0.0408877
0.0436942
-0.00280653
0.016921
-0.0252771
-0.260274
0.268631
0.034027
-0.0410511
-0.426378
0.433402
0.0475872
-0.0528305
-0.583253
0.588496
0.0581821
-0.0633416
-0.714083
0.719243
0.0693762
-0.0749953
-0.841628
0.847247
0.0810984
-0.0864518
-0.98897
0.994323
0.0919096
-0.0963288
-1.16268
1.1671
0.100341
-0.103042
-1.36613
1.36883
0.1047
-0.104797
-1.60468
1.60478
0.103503
-0.100981
-1.57649
1.57396
0.098065
-0.0945181
-1.30056
1.29701
0.0911998
-0.0876184
-1.08127
1.07769
0.0844168
-0.0809321
-0.905994
0.902509
0.0773677
-0.0726029
-0.754973
0.750208
0.0664661
-0.057627
-0.591895
0.583056
0.0480086
-0.036727
-0.395802
0.384521
0.0267767
-0.017076
-0.209167
0.199467
0.00991654
-0.00423207
-0.0780153
0.0723309
0.00116094
-0.00924741
0.00808647
-0.0464217
0.0506823
-0.0042606
0.024485
-0.0358422
-0.277289
0.288646
0.0474162
-0.0567074
-0.442945
0.452236
0.0652089
-0.0719117
-0.596246
0.602949
0.0788169
-0.0854529
-0.725371
0.732007
0.0926651
-0.0990813
-0.852823
0.859239
0.105813
-0.111512
-0.999481
1.00518
0.117087
-0.121373
-1.17114
1.17542
0.124968
-0.127041
-1.37097
1.37304
0.127738
-0.12672
-1.60413
1.60312
0.124211
-0.120409
-1.57068
1.56688
0.116399
-0.111746
-1.29272
1.28807
0.107532
-0.103142
-1.07319
1.0688
0.099346
-0.0951279
-0.898032
0.893813
0.0908423
-0.084863
-0.744374
0.738395
0.0772359
-0.0664999
-0.574034
0.563298
0.0550541
-0.0418026
-0.373233
0.359981
0.0301924
-0.0189866
-0.18963
0.178424
0.0108522
-0.00454001
-0.0665745
0.0602623
0.00121483
-0.00695962
0.00574479
-0.0546544
0.061978
-0.00732352
0.0378673
-0.0536197
-0.300836
0.316589
0.0691294
-0.0814633
-0.465486
0.47782
0.0920024
-0.100087
-0.612795
0.62088
0.108546
-0.116428
-0.739261
0.747143
0.124533
-0.131342
-0.865424
0.872232
0.138152
-0.143644
-1.01043
1.01592
0.148719
-0.152287
-1.17904
1.18261
0.15484
-0.155704
-1.37426
1.37512
0.15487
-0.152269
-1.60109
1.59849
0.14818
-0.142827
-1.56217
1.55682
0.137536
-0.131643
-1.28262
1.27673
0.126426
-0.1211
-1.06331
1.05798
0.116589
-0.111626
-0.888287
0.883325
0.106394
-0.0988457
-0.731091
0.723543
0.0893911
-0.0763449
-0.552161
0.539115
0.0626918
-0.0471486
-0.346701
0.331157
0.0336497
-0.0208133
-0.167289
0.154452
0.0116696
-0.0047667
-0.0540548
0.047152
0.00123012
-0.00459134
0.00336122
-0.0688333
0.0729191
-0.00408583
0.0289086
-0.0425139
-0.334877
0.348482
0.0562231
-0.0673923
-0.495313
0.506482
0.077347
-0.0866877
-0.632493
0.641834
0.0971169
-0.10644
-0.754642
0.763965
0.11672
-0.125829
-0.878195
0.887304
0.135437
-0.143866
-1.02048
1.02891
0.152474
-0.159614
-1.18506
1.1922
0.166329
-0.171213
-1.37477
1.37965
0.17479
-0.176037
-1.5946
1.59584
0.174884
-0.171851
-1.55033
1.5473
0.167834
-0.162605
-1.26993
1.2647
0.157691
-0.15191
-1.05145
1.04567
0.146957
-0.141259
-0.876524
0.870826
0.134801
-0.124347
-0.714282
0.703828
0.110789
-0.0926115
-0.525304
0.507126
0.0742369
-0.0538012
-0.31531
0.294874
0.0369585
-0.0218496
-0.142101
0.126992
0.0117156
-0.00456975
-0.0408678
0.033722
0.0011136
-0.00225118
0.00113757
-0.080035
0.0781779
0.00185702
0.00725877
-0.0161904
-0.364953
0.373885
0.0265783
-0.0344758
-0.522387
0.530284
0.0424337
-0.0504224
-0.653489
0.661478
0.0600269
-0.0688224
-0.772983
0.781778
0.0780943
-0.0865295
-0.89591
0.904345
0.0953963
-0.102831
-1.03707
1.0445
0.110583
-0.116623
-1.19913
1.20517
0.122195
-0.125879
-1.38415
1.38783
0.127825
-0.127578
-1.59608
1.59583
0.124898
-0.120278
-1.54322
1.5386
0.114673
-0.107795
-1.25871
1.25184
0.101391
-0.0943072
-1.03866
1.03158
0.0878703
-0.0806338
-0.861292
0.854056
0.0734849
-0.0642829
-0.689417
0.680215
0.0541451
-0.0418244
-0.48719
0.47487
0.0306634
-0.0199765
-0.274346
0.263659
0.012468
-0.0067425
-0.112651
0.106926
0.00342039
-0.00133003
-0.0270599
0.0249695
0.00037449
-5.77458e-05
-0.000316744
-0.0814304
0.0785586
0.00287184
-0.00180042
-0.00336328
-0.385232
0.390396
0.0104133
-0.016259
-0.542338
0.548184
0.0223119
-0.0292209
-0.671408
0.678317
0.0375484
-0.0452066
-0.789721
0.797379
0.053522
-0.0609259
-0.912081
0.919485
0.0684555
-0.0751096
-1.05177
1.05842
0.0818234
-0.0871199
-1.21076
1.21606
0.0915311
-0.0941649
-1.3908
1.39343
0.0953128
-0.0941826
-1.59479
1.59366
0.0907044
-0.0853441
-1.53326
1.52789
0.0791876
-0.0718891
-1.24466
1.23736
0.0646322
-0.0566985
-1.0235
1.01556
0.0492977
-0.0410392
-0.844503
0.836245
0.033764
-0.025835
-0.667242
0.659313
0.0181844
-0.0101075
-0.460662
0.452585
0.00452896
-0.000839128
-0.252152
0.248462
-0.00072088
0.00109675
-0.100495
0.100119
-0.000825368
0.000369484
-0.0225208
0.0229766
-9.37576e-05
0.000711063
-0.000617305
-0.0801876
0.0774904
0.00269725
-0.00530109
0.00281295
-0.398758
0.401246
0.00171499
-0.00619898
-0.55727
0.561754
0.0113984
-0.0172319
-0.686251
0.692085
0.0244069
-0.0310268
-0.80445
0.811069
0.0381847
-0.0445677
-0.926392
0.932775
0.0514263
-0.0570869
-1.06465
1.07032
0.0629833
-0.0671886
-1.22095
1.22515
0.0709649
-0.0731058
-1.39586
1.398
0.0736511
-0.0718741
-1.59212
1.59035
0.0682213
-0.062746
-1.52202
1.51654
0.0564864
-0.0487094
-1.22978
1.22201
0.0412883
-0.0330462
-1.00686
0.998617
0.0252035
-0.0169991
-0.826268
0.818064
0.00969898
-0.00277272
-0.647865
0.640939
-0.00287872
0.00747076
-0.442954
0.438362
-0.00925165
0.00898845
-0.242246
0.24251
-0.00759907
0.00534847
-0.0985282
0.100779
-0.00334162
0.00145143
-0.0228887
0.0247789
-0.000375545
0.000645561
-0.000270016
-0.0787388
0.0763683
0.00237047
-0.00634148
0.00540906
-0.407817
0.408749
-0.00206568
-0.00123636
-0.569347
0.572649
0.0055411
-0.0108686
-0.698781
0.704108
0.0169372
-0.0227931
-0.817016
0.822872
0.0290322
-0.0346041
-0.938733
0.944305
0.0405184
-0.0456008
-1.07586
1.08094
0.0506464
-0.0545871
-1.22925
1.23319
0.0578802
-0.0596665
-1.39982
1.40161
0.0599088
-0.0579009
-1.5884
1.58639
0.0540615
-0.0482391
-1.51033
1.5045
0.0419004
-0.0342696
-1.21411
1.20648
0.0269686
-0.0188549
-0.989919
0.981806
0.0115595
-0.00392594
-0.80874
0.801107
-0.00249342
0.00830672
-0.630959
0.625146
-0.0125378
0.0154185
-0.431269
0.428388
-0.015663
0.013629
-0.239535
0.241569
-0.0108926
0.00759856
-0.101762
0.105056
-0.00470588
0.00205962
-0.0261231
0.0287693
-0.000547376
-0.000102983
0.00065036
-0.0774264
0.0754081
0.0020183
-0.00616188
0.00570371
-0.414087
0.414545
-0.00371796
0.00103272
-0.578733
0.581419
0.00320511
-0.00778603
-0.709482
0.714063
0.0130449
-0.0181654
-0.827951
0.833072
0.0237532
-0.0287752
-0.949557
0.954579
0.0342484
-0.0387729
-1.08577
1.0903
0.0434128
-0.0470584
-1.2369
1.24054
0.0500528
-0.0516389
-1.40317
1.40476
0.051716
-0.0500006
-1.58429
1.58257
0.046162
-0.040664
-1.49824
1.49274
0.0346176
-0.0274656
-1.19875
1.1916
0.020981
-0.0135222
-0.973745
0.966286
0.00684766
0.000140523
-0.792913
0.785924
-0.00609746
0.0116345
-0.616476
0.610939
-0.0152217
0.0175484
-0.422873
0.420547
-0.0171627
0.0146876
-0.240282
0.242757
-0.0117367
0.00816607
-0.107113
0.110684
-0.00506774
0.00229193
-0.0306633
0.0334391
-0.00066256
-0.00111659
0.00177915
-0.0764648
0.0749048
0.00155997
-0.00524197
0.00509335
-0.418798
0.418946
-0.00348434
0.0014368
-0.586961
0.589009
0.00254787
-0.00670211
-0.718802
0.722956
0.0117134
-0.0161589
-0.837801
0.842247
0.0211159
-0.0256261
-0.9596
0.964111
0.0309024
-0.0351105
-1.09489
1.0991
0.0393545
-0.0429208
-1.24406
1.24762
0.0461908
-0.0477485
-1.40641
1.40797
0.0480347
-0.0464844
-1.58053
1.57898
0.0433807
-0.0383239
-1.48722
1.48216
0.0332153
-0.0271651
-1.18462
1.17857
0.021406
-0.0149487
-0.959125
0.952667
0.00872606
-0.00179253
-0.778204
0.771271
-0.00399919
0.00972835
-0.60285
0.597121
-0.0133595
0.0152877
-0.415824
0.413896
-0.0151666
0.0132137
-0.242102
0.244055
-0.0105733
0.00735932
-0.112751
0.115965
-0.00459089
0.0021175
-0.0352823
0.0377557
-0.000639213
-0.00222592
0.00286514
-0.0760143
0.0747993
0.00121492
-0.00414752
0.00410835
-0.422589
0.422628
-0.00267168
0.000730141
-0.594149
0.596091
0.00310934
-0.00684148
-0.727206
0.730938
0.0111615
-0.0154744
-0.846635
0.850948
0.0201033
-0.0248054
-0.968465
0.973167
0.029444
-0.0335581
-1.10345
1.10756
0.0380313
-0.0414544
-1.25112
1.25454
0.0443706
-0.0464664
-1.4095
1.41159
0.0471416
-0.0461947
-1.57762
1.57668
0.0437248
-0.0398556
-1.47761
1.47374
0.0356551
-0.0305025
-1.17257
1.16741
0.0254806
-0.019469
-0.946181
0.940169
0.0134622
-0.00674886
-0.763852
0.757139
0.000593187
0.00494695
-0.589414
0.583874
-0.00842751
0.0104508
-0.409456
0.407433
-0.0107624
0.00947386
-0.243342
0.24463
-0.00766597
0.00539199
-0.117333
0.119607
-0.00340748
0.00159219
-0.0391176
0.0409329
-0.000497354
-0.00320005
0.0036974
-0.076092
0.0750828
0.00100914
-0.0028743
0.00258307
-0.426021
0.426312
-0.00131004
-0.000693454
-0.600736
0.60274
0.00420496
-0.00781354
-0.735043
0.738652
0.0119683
-0.0159015
-0.855047
0.858981
0.0206854
-0.0246608
-0.977333
0.981309
0.0293375
-0.0333412
-1.11187
1.11587
0.0377765
-0.0414638
-1.25799
1.26168
0.0447549
-0.046761
-1.41351
1.41552
0.0479933
-0.0477636
-1.57582
1.57559
0.0463352
-0.0432225
-1.47004
1.46692
0.0397777
-0.0352166
-1.16255
1.15799
0.0305726
-0.0246754
-0.933857
0.92796
0.0188267
-0.0120593
-0.749729
0.742961
0.00608113
-0.000500203
-0.57679
0.571209
-0.00309425
0.00501423
-0.402982
0.401062
-0.00571118
0.00527235
-0.243311
0.243749
-0.00439934
0.00310401
-0.120096
0.121392
-0.00197943
0.000971986
-0.041578
0.0425855
-0.000318593
-0.00386554
0.00418414
-0.0764489
0.0757513
0.000697601
-0.00174415
0.00104669
-0.429582
0.430279
3.17056e-06
-0.00230146
-0.60655
0.608848
0.00547143
-0.00896221
-0.742355
0.745846
0.0129543
-0.0170329
-0.862776
0.866855
0.0212423
-0.0254173
-0.985517
0.989692
0.0301068
-0.0339497
-1.12032
1.12417
0.0385186
-0.0422058
-1.2652
1.26889
0.045625
-0.048256
-1.41798
1.42062
0.0501532
-0.0504404
-1.57555
1.57584
0.0495031
-0.0472743
-1.46414
1.46192
0.0444055
-0.0401096
-1.15332
1.14903
0.0355247
-0.0299253
-0.921828
0.916229
0.0238726
-0.0175185
-0.735635
0.729281
0.0118908
-0.00655869
-0.564834
0.559502
0.00305743
-0.000610751
-0.396462
0.394016
-0.000499917
0.00098112
-0.241965
0.241483
-0.000987581
0.000791653
-0.120928
0.121124
-0.000600956
0.000359883
-0.0425333
0.0427744
-0.000147089
-0.00418871
0.0043358
-0.0772125
0.0766682
0.000544289
-0.000802564
0.000223157
-0.43338
0.433959
0.00160213
-0.00366464
-0.612627
0.61469
0.00698714
-0.0103689
-0.749186
0.752568
0.0142192
-0.01792
-0.87061
0.874311
0.0222806
-0.0261728
-0.993894
0.997786
0.0308416
-0.0351337
-1.12847
1.13277
0.0393651
-0.0433998
-1.27263
1.27667
0.0472784
-0.0500742
-1.42319
1.42599
0.0524603
-0.0536419
-1.57644
1.57762
0.0532103
-0.0515593
-1.4596
1.45795
0.0487585
-0.0447011
-1.14468
1.14063
0.0403308
-0.0347845
-0.910104
0.904558
0.0291667
-0.0231629
-0.722304
0.7163
0.0179472
-0.0128463
-0.553442
0.548341
0.00920406
-0.00637589
-0.389567
0.386739
0.00443309
-0.00304392
-0.238892
0.237503
0.00204163
-0.00115274
-0.119698
0.118809
0.000513059
-8.15686e-05
-0.0420441
0.0416126
-4.06369e-05
-0.00414811
0.00418875
-0.0782355
0.0778728
0.000362694
0.00021859
-0.00106785
-0.437264
0.438114
0.00270871
-0.00508916
-0.618257
0.620638
0.00835576
-0.0115958
-0.755807
0.759048
0.0155389
-0.0191043
-0.877995
0.88156
0.0233296
-0.0273594
-1.00217
1.0062
0.0319399
-0.0361972
-1.13692
1.14117
0.0406447
-0.0447095
-1.28063
1.28469
0.0487953
-0.0523706
-1.4291
1.43268
0.0552486
-0.0567356
-1.57878
1.58026
0.0569206
-0.0554198
-1.45615
1.45465
0.0529704
-0.0492252
-1.1364
1.13266
0.0448012
-0.0394952
-0.898673
0.893367
0.0342325
-0.0285102
-0.709885
0.704163
0.0237049
-0.0187107
-0.542852
0.537858
0.0149428
-0.011469
-0.382107