/*--------------------------------*- C++ -*----------------------------------*\
| =========                 |                                                 |
| \\      /  F ield         | OpenFOAM: The Open Source CFD Toolbox           |
|  \\    /   O peration     | Version:  4.0                                   |
|   \\  /    A nd           | Web:      www.OpenFOAM.org                      |
|    \\/     M anipulation  |                                                 |
\*---------------------------------------------------------------------------*/
FoamFile
{
    version     2.0;
    format      ascii;
    class       volScalarField;
    location    "53";
    object      p;
}
// * * * * * * * * * * * * * * * * * * * * * * * * * * * * * * * * * * * * * //

dimensions      [0 2 -2 0 0 0 0];

internalField   nonuniform List<scalar> 
8800
(
0.790418
0.74263
0.70394
0.674944
0.65408
0.639248
0.628651
0.62117
0.616349
0.614291
0.615559
0.619749
0.626394
0.635709
0.648488
0.666221
0.690998
0.724938
0.767488
0.82619
0.62167
0.629348
0.636822
0.64013
0.638625
0.633547
0.627059
0.62098
0.616255
0.613411
0.613132
0.615637
0.620125
0.626069
0.632837
0.639116
0.642756
0.642019
0.636599
0.627907
0.600078
0.606236
0.610363
0.613305
0.615353
0.615955
0.614846
0.61274
0.610722
0.609815
0.610776
0.613156
0.615954
0.618133
0.618738
0.617538
0.615194
0.6118
0.607242
0.603481
0.594276
0.596926
0.599676
0.602077
0.603709
0.604867
0.605606
0.60572
0.605423
0.605372
0.606124
0.607291
0.608128
0.60819
0.607578
0.606485
0.604666
0.602094
0.59969
0.598186
0.588907
0.590331
0.592108
0.594137
0.595917
0.597254
0.598239
0.599033
0.599644
0.600206
0.600855
0.601348
0.601443
0.601151
0.60045
0.599197
0.597499
0.595648
0.59434
0.593508
0.583846
0.584766
0.586004
0.587567
0.589194
0.590714
0.591993
0.593055
0.594015
0.594905
0.59559
0.595912
0.595864
0.595417
0.594531
0.593326
0.591994
0.59073
0.589906
0.589355
0.578958
0.579628
0.580587
0.581884
0.583287
0.584738
0.58617
0.587485
0.588677
0.589778
0.590593
0.590952
0.590858
0.59034
0.589525
0.58857
0.587552
0.586623
0.586036
0.585631
0.574199
0.574715
0.575495
0.576619
0.577889
0.579254
0.58069
0.582152
0.583571
0.584898
0.585894
0.586351
0.586312
0.585913
0.585298
0.584563
0.58378
0.58309
0.582654
0.582337
0.569497
0.569907
0.570559
0.571558
0.572755
0.574071
0.575504
0.577046
0.578654
0.580238
0.581467
0.582105
0.582249
0.58206
0.58166
0.58113
0.580547
0.580047
0.579721
0.579464
0.564768
0.565102
0.565665
0.566583
0.567729
0.569028
0.570493
0.572128
0.573915
0.575777
0.57731
0.578228
0.578637
0.57869
0.57851
0.578196
0.577801
0.577457
0.577215
0.577
0.559925
0.560202
0.560703
0.561574
0.5627
0.564021
0.565554
0.567323
0.569329
0.571511
0.573428
0.57471
0.575435
0.575763
0.575824
0.575723
0.575514
0.575307
0.575132
0.574946
0.554882
0.555115
0.555576
0.556431
0.557576
0.558961
0.560605
0.56256
0.564848
0.567429
0.569818
0.571535
0.57263
0.573273
0.5736
0.57372
0.573694
0.573611
0.573491
0.573327
0.54955
0.549748
0.55019
0.551057
0.552263
0.553757
0.555567
0.557773
0.560423
0.563507
0.566468
0.568702
0.570228
0.571228
0.571851
0.572201
0.572374
0.572407
0.572334
0.572184
0.543832
0.544002
0.54444
0.545349
0.546659
0.548311
0.550353
0.552892
0.556004
0.559714
0.563368
0.566219
0.56825
0.569658
0.570618
0.571247
0.571612
0.571754
0.57172
0.57158
0.537615
0.53776
0.538211
0.539191
0.540649
0.54252
0.544871
0.547834
0.551528
0.556008
0.560505
0.564094
0.566726
0.568613
0.569952
0.570881
0.571465
0.571722
0.571725
0.571591
0.530764
0.530884
0.531362
0.532445
0.534103
0.536263
0.539009
0.542513
0.546932
0.552353
0.557871
0.562346
0.56569
0.568145
0.56993
0.571198
0.572029
0.572405
0.572442
0.572309
0.52311
0.523205
0.523726
0.524947
0.526863
0.52939
0.532643
0.53683
0.542152
0.54873
0.555482
0.561014
0.565199
0.568318
0.570638
0.572309
0.573409
0.573909
0.573978
0.573843
0.514423
0.514524
0.515097
0.516476
0.518721
0.521725
0.525624
0.530672
0.537118
0.545115
0.553353
0.560143
0.565319
0.569219
0.572173
0.574306
0.575715
0.576349
0.576449
0.576309
0.504412
0.504492
0.505155
0.506756
0.509432
0.51305
0.517769
0.523902
0.53175
0.541486
0.551508
0.559781
0.566125
0.570946
0.57463
0.577316
0.579071
0.579848
0.579977
0.579828
0.492708
0.492771
0.493533
0.495446
0.498676
0.503081
0.508849
0.516356
0.525947
0.5378
0.54996
0.559988
0.567703
0.573604
0.578134
0.581461
0.583603
0.584528
0.584683
0.584521
0.478776
0.478829
0.479732
0.482057
0.486016
0.49146
0.498598
0.507877
0.519664
0.534106
0.548798
0.560864
0.570148
0.57729
0.582805
0.586858
0.58942
0.590494
0.590668
0.59049
0.461857
0.461896
0.463015
0.465922
0.470884
0.477732
0.486698
0.498283
0.51284
0.530428
0.548092
0.562497
0.573562
0.582119
0.588734
0.593606
0.596608
0.597821
0.598005
0.597807
0.440832
0.44087
0.442328
0.446102
0.452507
0.461334
0.472807
0.48744
0.505489
0.526862
0.547956
0.564992
0.57805
0.588173
0.595998
0.601763
0.6052
0.606525
0.606703
0.606483
0.413967
0.414024
0.416063
0.421244
0.429877
0.44161
0.456612
0.475293
0.497708
0.523562
0.54855
0.568468
0.583689
0.595521
0.604646
0.611328
0.615151
0.616538
0.616689
0.616446
0.378254
0.378407
0.381641
0.389419
0.401825
0.417998
0.438039
0.462052
0.489835
0.520869
0.550126
0.573102
0.590572
0.604182
0.614687
0.622222
0.626316
0.627681
0.627779
0.627513
0.327952
0.328909
0.335341
0.348449
0.367412
0.390444
0.417423
0.448153
0.48224
0.519031
0.552831
0.578972
0.598733
0.614116
0.625986
0.634232
0.638419
0.639658
0.639678
0.639394
0.254193
0.261366
0.276261
0.299342
0.328094
0.360315
0.395784
0.43428
0.475406
0.518489
0.557182
0.586745
0.609022
0.626386
0.639709
0.648613
0.652833
0.653944
0.653914
0.653671
0.174761
0.191787
0.21595
0.24967
0.288598
0.330163
0.374216
0.420693
0.469283
0.519396
0.56399
0.59792
0.623423
0.643264
0.658441
0.667949
0.671953
0.672827
0.672815
0.672668
0.10859
0.128672
0.160514
0.20324
0.251163
0.301529
0.353901
0.40821
0.464134
0.521089
0.57132
0.609331
0.637849
0.659884
0.676312
0.686005
0.689807
0.690613
0.690671
0.690588
0.0543927
0.0761266
0.113466
0.162592
0.21762
0.275409
0.335157
0.396662
0.459474
0.522937
0.578518
0.620347
0.651565
0.67548
0.693058
0.703209
0.707291
0.708171
0.70821
0.708159
0.00922319
0.0321492
0.0732758
0.127486
0.188231
0.252147
0.318217
0.386108
0.455221
0.524764
0.58539
0.630817
0.664604
0.690385
0.709177
0.720164
0.724578
0.725436
0.725558
0.725551
-0.0291684
-0.00555911
0.0384229
0.0966791
0.162225
0.231353
0.302918
0.376489
0.451336
0.526517
0.591878
0.640703
0.67692
0.704512
0.724499
0.736265
0.741049
0.742019
0.742165
0.742181
-0.0627892
-0.0387179
0.00753946
0.0691127
0.138717
0.212376
0.288808
0.367492
0.447596
0.528029
0.597846
0.649867
0.688363
0.71759
0.738657
0.751107
0.756298
0.757483
0.757676
0.7577
-0.0931163
-0.0686348
-0.0205148
0.0438912
0.116993
0.194615
0.275405
0.358749
0.443724
0.529104
0.603145
0.658169
0.698759
0.729396
0.751435
0.764466
0.769993
0.771407
0.771617
0.771637
-0.121096
-0.0962366
-0.0465124
0.0203199
0.0965001
0.177631
0.262337
0.349948
0.439474
0.52955
0.607644
0.665537
0.708065
0.739997
0.762781
0.776254
0.782029
0.7836
0.783833
0.783842
-0.147514
-0.122232
-0.071008
-0.00208895
0.0768274
0.161086
0.24933
0.340862
0.43465
0.529223
0.611277
0.671985
0.716358
0.749463
0.772845
0.786623
0.792572
0.794248
0.794479
0.794464
-0.172726
-0.147007
-0.0946053
-0.0236521
0.0576828
0.144746
0.236192
0.331332
0.429124
0.528041
0.614025
0.677557
0.723767
0.757978
0.781936
0.795852
0.801848
0.803571
0.803767
0.803721
-0.197134
-0.170849
-0.117395
-0.0446192
0.0388722
0.128451
0.222802
0.321261
0.42281
0.525929
0.615864
0.682298
0.7304
0.765731
0.790144
0.804109
0.810106
0.811795
0.811986
0.811912
-0.220866
-0.194152
-0.139516
-0.0651407
0.0202812
0.112115
0.209091
0.310592
0.415654
0.522842
0.616772
0.686254
0.736389
0.772886
0.79767
0.811593
0.817515
0.819133
0.819277
0.819181
-0.244039
-0.216786
-0.161115
-0.0852921
0.00186006
0.0957048
0.195036
0.299303
0.407631
0.518736
0.616705
0.689443
0.741835
0.779573
0.80466
0.818456
0.824201
0.8257
0.825774
0.825641
-0.266775
-0.238931
-0.182258
-0.105105
-0.016414
0.0792225
0.180659
0.287418
0.398749
0.513579
0.615607
0.691854
0.746815
0.785926
0.811257
0.824794
0.83022
0.831519
0.831516
0.831357
-0.289083
-0.260566
-0.202953
-0.124574
-0.0345087
0.0627004
0.166003
0.274981
0.389032
0.507347
0.613416
0.693442
0.751353
0.792075
0.817642
0.830726
0.835636
0.836659
0.83658
0.836408
-0.310805
-0.281651
-0.22314
-0.143672
-0.0523893
0.0462048
0.151131
0.262066
0.378542
0.500064
0.610069
0.694123
0.755404
0.79815
0.824113
0.836519
0.840577
0.841174
0.84101
0.840838
-0.33192
-0.302161
-0.242804
-0.162349
-0.0699972
0.0297947
0.136132
0.248751
0.367356
0.491757
0.605523
0.693766
0.758859
0.804215
0.831049
0.84268
0.845369
0.845157
0.844845
0.844719
-0.352493
-0.322057
-0.261918
-0.180572
-0.0872698
0.0135531
0.121093
0.235141
0.355566
0.482493
0.599736
0.692222
0.761512
0.81016
0.838772
0.850073
0.850937
0.849036
0.848215
0.848349
-0.372351
-0.341317
-0.280423
-0.198277
-0.104148
-0.00243726
0.106111
0.221345
0.343289
0.472368
0.592703
0.689322
0.76308
0.815623
0.847202
0.859657
0.859323
0.854909
0.852052
0.851497
-0.391589
-0.359931
-0.298339
-0.215493
-0.120665
-0.0182191
0.0911301
0.207309
0.330459
0.461311
0.584292
0.68479
0.763243
0.820058
0.855621
0.871613
0.872843
0.866889
0.858399
0.844043
-0.410131
-0.377883
-0.315782
-0.232417
-0.137105
-0.0341221
0.0757381
0.192552
0.316543
0.448691
0.573855
0.677832
0.761407
0.822676
0.862173
0.883459
0.88709
0.87506
0.855604
0.843362
-0.4278
-0.395307
-0.332556
-0.248838
-0.153127
-0.0498031
0.0601609
0.177401
0.301847
0.434771
0.56147
0.667997
0.756808
0.822354
0.8625
0.883595
0.890331
0.867741
0.799842
0.769249
-0.443928
-0.413439
-0.348328
-0.26423
-0.167967
-0.0647602
0.0447088
0.162082
0.286589
0.419675
0.547079
0.654991
0.748111
0.818468
0.851805
0.867017
0.858226
0.804908
0.735873
0.693353
-0.499938
-0.429422
-0.362689
-0.279688
-0.183213
-0.0804412
0.029318
0.146317
0.270403
0.402957
0.53009
0.638214
0.731567
0.808508
0.814398
0.818471
0.770826
0.701654
0.62539
0.582918
-0.460998
-0.444866
-0.384106
-0.300447
-0.205636
-0.102976
0.00574852
0.122053
0.245071
0.376084
0.501077
0.607188
0.692443
0.773275
0.761497
0.650098
0.546049
0.473639
0.400665
0.43181
-0.492201
-0.462641
-0.400899
-0.318019
-0.223209
-0.120737
-0.0117661
0.103873
0.225782
0.35494
0.477079
0.57882
0.655399
0.697816
0.650282
0.502973
0.376149
0.285456
0.187092
0.237712
-0.516218
-0.483705
-0.420672
-0.337589
-0.242692
-0.140327
-0.0314505
0.0833352
0.203817
0.330549
0.448937
0.544518
0.611952
0.62074
0.515218
0.343429
0.191572
0.0734131
-0.0572619
-0.0241309
-0.539737
-0.505651
-0.441406
-0.357404
-0.262381
-0.160158
-0.0518041
0.062005
0.180871
0.304806
0.418541
0.506613
0.558622
0.536564
0.379033
0.183656
-0.00594512
-0.173262
-0.361427
-0.379376
-0.562639
-0.528086
-0.462925
-0.37814
-0.282931
-0.180914
-0.0732078
0.0395052
0.156507
0.277275
0.385671
0.466107
0.499229
0.441178
0.2496
0.0399607
-0.176647
-0.36541
-0.607054
-0.9054
-0.585823
-0.551254
-0.485527
-0.400229
-0.304807
-0.202944
-0.0958101
0.0157789
0.13082
0.24818
0.350949
0.423123
0.43579
0.326784
0.137003
-0.0720239
-0.27566
-0.447475
-0.516306
-0.595601
-0.610238
-0.575601
-0.509557
-0.424001
-0.328504
-0.226885
-0.120414
-0.0101187
0.102653
0.216097
0.312882
0.37422
0.362216
0.219631
0.0370177
-0.153059
-0.315163
-0.40761
-0.431598
-0.447548
-0.636196
-0.601435
-0.535184
-0.449538
-0.35415
-0.252943
-0.147374
-0.0386707
0.0714217
0.180321
0.270618
0.318086
0.288652
0.12025
-0.0535717
-0.218599
-0.344462
-0.383407
-0.396307
-0.397617
-0.663895
-0.628927
-0.562467
-0.476824
-0.381687
-0.281116
-0.176701
-0.0699218
0.0370603
0.140851
0.223776
0.257083
0.208442
0.0284037
-0.136409
-0.284131
-0.359743
-0.377008
-0.378371
-0.378182
-0.693389
-0.658126
-0.591419
-0.505849
-0.411119
-0.311384
-0.208392
-0.103883
-0.000420445
0.0977461
0.172402
0.194286
0.109744
-0.0555989
-0.212267
-0.333984
-0.370601
-0.368895
-0.367886
-0.367282
-0.724384
-0.688851
-0.621926
-0.536512
-0.442347
-0.343681
-0.242404
-0.14052
-0.0409876
0.0511039
0.117329
0.122485
0.0195539
-0.13404
-0.272689
-0.34731
-0.357916
-0.360901
-0.36172
-0.361391
-0.756305
-0.720624
-0.653717
-0.568571
-0.475169
-0.377833
-0.278574
-0.179694
-0.0844732
0.00126834
0.0589095
0.0494535
-0.061579
-0.201058
-0.316927
-0.348376
-0.356486
-0.358227
-0.358147
-0.357868
-0.788672
-0.752887
-0.686318
-0.60161
-0.50922
-0.4135
-0.316604
-0.221108
-0.130608
-0.051139
-0.00389627
-0.0198975
-0.135812
-0.256353
-0.349312
-0.363246
-0.356563
-0.355573
-0.355501
-0.355342
-0.820582
-0.784906
-0.718831
-0.635002
-0.543928
-0.450179
-0.356019
-0.264275
-0.178922
-0.105611
-0.068042
-0.0842935
-0.199682
-0.3009
-0.355534
-0.36456
-0.358975
-0.355509
-0.354187
-0.353792
-0.850388
-0.815461
-0.750269
-0.667795
-0.57849
-0.487132
-0.396126
-0.30849
-0.228588
-0.161685
-0.127513
-0.15797
-0.249677
-0.334601
-0.353571
-0.362978
-0.360848
-0.356105
-0.354294
-0.353416
-0.876509
-0.842652
-0.779473
-0.69877
-0.611822
-0.523369
-0.436002
-0.352841
-0.278497
-0.218562
-0.184849
-0.231603
-0.294188
-0.326628
-0.376413
-0.367376
-0.365782
-0.366025
-0.366248
-0.365717
-0.896763
-0.864672
-0.804279
-0.72646
-0.642573
-0.557663
-0.474466
-0.396186
-0.32751
-0.274875
-0.245077
-0.302225
-0.341314
-0.31703
-0.34072
-0.380545
-0.405926
-0.417493
-0.418499
-0.416905
-0.908878
-0.879521
-0.822818
-0.748921
-0.669156
-0.588583
-0.510152
-0.437125
-0.374358
-0.329202
-0.305044
-0.382908
-0.444923
-0.419645
-0.409207
-0.467752
-0.5016
-0.509829
-0.504836
-0.50376
-0.910155
-0.884886
-0.833052
-0.764269
-0.689779
-0.614561
-0.54148
-0.474011
-0.417354
-0.379489
-0.358884
-0.46971
-0.66109
-0.825523
-0.751113
-0.639364
-0.576497
-0.548606
-0.538284
-0.536177
-0.898481
-0.878083
-0.832759
-0.770828
-0.702851
-0.633939
-0.566841
-0.504969
-0.454153
-0.422527
-0.408837
-0.520723
-0.728032
-1.11947
-1.00802
-0.68788
-0.543119
-0.49755
-0.48309
-0.477772
-0.871712
-0.856259
-0.820128
-0.767319
-0.7073
-0.645551
-0.584722
-0.528166
-0.481493
-0.452951
-0.429996
-0.413224
-0.354786
-0.401601
-0.399039
-0.331947
-0.307521
-0.301267
-0.298212
-0.294112
-0.832186
-0.822144
-0.795774
-0.753872
-0.703076
-0.649062
-0.594364
-0.542195
-0.497196
-0.467335
-0.435079
-0.231142
0.132494
0.540549
0.448838
0.134592
-0.0962974
-0.176208
-0.194863
-0.197153
-0.786382
-0.780668
-0.764472
-0.733213
-0.692143
-0.645398
-0.596231
-0.54686
-0.501617
-0.466184
-0.428483
-0.295795
-0.0783136
0.189438
0.0591951
-0.195197
-0.310491
-0.32966
-0.340337
-0.364197
-0.743882
-0.740444
-0.732381
-0.710861
-0.677653
-0.636957
-0.591889
-0.544124
-0.496163
-0.458097
-0.434373
-0.531268
-0.986068
-1.79001
-2.35619
-2.57725
-2.45976
-2.18097
-1.8131
-1.65494
-0.711995
-0.709761
-0.705688
-0.691796
-0.664405
-0.627172
-0.583785
-0.534623
-0.482691
-0.431094
-0.405622
-0.54285
-1.07537
-1.70206
-2.02951
-1.93001
-1.63526
-1.32521
-1.06661
-0.947312
-0.687353
-0.686484
-0.685191
-0.677904
-0.655525
-0.619725
-0.574606
-0.521907
-0.460858
-0.386605
-0.320514
-0.282108
-0.289701
-0.17144
-0.0027551
0.27901
0.580359
0.769303
0.876097
0.91514
-0.672379
-0.672015
-0.671516
-0.668277
-0.650973
-0.615041
-0.566408
-0.508291
-0.438034
-0.354817
-0.253499
-0.134198
0.0615741
0.475075
0.967266
1.42748
1.76952
1.94468
2.0117
2.02656
-0.661992
-0.661767
-0.661227
-0.660463
-0.648396
-0.61295
-0.560884
-0.496649
-0.419167
-0.319716
-0.198748
-0.0727636
0.18933
0.670961
1.19279
1.65789
1.98087
2.14203
2.19758
2.20823
-0.65468
-0.654798
-0.654934
-0.654863
-0.646032
-0.613236
-0.559518
-0.490235
-0.403502
-0.296664
-0.177089
-0.0491255
0.152967
0.587091
1.02879
1.41538
1.67863
1.81047
1.85608
1.86568
-0.649769
-0.649248
-0.647227
-0.644305
-0.639751
-0.616329
-0.565112
-0.490604
-0.397909
-0.29027
-0.174818
-0.0571422
0.0946088
0.429524
0.765394
1.04219
1.23589
1.33263
1.36873
1.37749
-0.663307
-0.659253
-0.646806
-0.633741
-0.635592
-0.631981
-0.581252
-0.497634
-0.39837
-0.290105
-0.185332
-0.0824556
0.0304321
0.268071
0.510532
0.699747
0.830612
0.898153
0.925978
0.9338
-0.72239
-0.718458
-0.713311
-0.714495
-0.718058
-0.696503
-0.613739
-0.508351
-0.398548
-0.290108
-0.197739
-0.117753
-0.0321304
0.140267
0.310651
0.438673
0.528839
0.577152
0.598886
0.605308
-0.820398
-0.830721
-0.857042
-0.873942
-0.862986
-0.789224
-0.650406
-0.512395
-0.392758
-0.288522
-0.212214
-0.154815
-0.0968704
0.0372726
0.167645
0.263594
0.330501
0.367604
0.384467
0.388769
-0.855948
-0.876064
-0.907285
-0.925234
-0.90417
-0.802355
-0.637926
-0.49104
-0.372899
-0.278639
-0.216371
-0.179869
-0.147637
-0.0403409
0.0613149
0.138449
0.192736
0.223056
0.235713
0.238432
-0.70868
-0.727187
-0.755469
-0.773476
-0.751518
-0.660553
-0.538935
-0.425779
-0.330621
-0.254265
-0.205065
-0.182866
-0.165743
-0.0695549
0.0126238
0.0677739
0.107501
0.129374
0.13838
0.139508
-0.42037
-0.43132
-0.449543
-0.466779
-0.465965
-0.431659
-0.379906
-0.323036
-0.267823
-0.215341
-0.176285
-0.153572
-0.124386
-0.0621486
-0.0092947
0.0285476
0.0528113
0.0670614
0.0731244
0.0740852
-0.14835
-0.152949
-0.164887
-0.18469
-0.206119
-0.221815
-0.226209
-0.218023
-0.198434
-0.169123
-0.137307
-0.106693
-0.0693212
-0.0314304
-0.00190301
0.0180906
0.0335002
0.0437028
0.0482135
0.0482719
0.0133835
0.0110168
0.00201978
-0.0188025
-0.0521718
-0.0883735
-0.117315
-0.134449
-0.137486
-0.125041
-0.0989979
-0.063582
-0.028272
-0.00650164
0.00830715
0.0208491
0.0324688
0.0404363
0.0438133
0.0431076
0.0755932
0.074013
0.0667844
0.0485717
0.0179153
-0.0184343
-0.0525957
-0.0784706
-0.09195
-0.0895474
-0.0695844
-0.0379615
-0.00740096
0.00183038
0.00760631
0.0169092
0.0273482
0.0345927
0.0362329
0.0347277
0.0841981
0.0829962
0.0776332
0.0639963
0.0405415
0.0112054
-0.0189861
-0.0450207
-0.0625156
-0.0670178
-0.0546875
-0.0317574
-0.0118779
-0.0115401
-0.00732087
0.0016417
0.0113193
0.0172578
0.01843
0.0165488
0.0708383
0.0700002
0.0662923
0.0568067
0.0401521
0.0182783
-0.0060376
-0.0290573
-0.0471591
-0.0564042
-0.0523544
-0.0405384
-0.0331185
-0.0403913
-0.039304
-0.0293093
-0.0211892
-0.0171911
-0.0173649
-0.019101
0.0510476
0.0504909
0.0479909
0.0415485
0.0299635
0.014038
-0.00485577
-0.0243526
-0.0420664
-0.0553625
-0.0602654
-0.0596659
-0.0617068
-0.0727095
-0.0746667
-0.0691513
-0.0646214
-0.0643876
-0.0648824
-0.0659199
0.0313507
0.0309761
0.0292769
0.0248789
0.0167936
0.0051503
-0.00957877
-0.0262679
-0.0438684
-0.0612519
-0.0759413
-0.0882903
-0.101234
-0.113416
-0.112898
-0.109071
-0.107502
-0.108791
-0.109948
-0.110558
0.0143529
0.0140705
0.0128996
0.00983793
0.00407556
-0.00462687
-0.016339
-0.0309227
-0.048539
-0.0700056
-0.0948648
-0.120515
-0.141184
-0.149593
-0.147431
-0.14406
-0.143752
-0.144976
-0.145826
-0.146224
0.00111279
0.000877593
5.53526e-06
-0.00216928
-0.0063608
-0.012986
-0.0225137
-0.0355107
-0.0530964
-0.0780308
-0.111963
-0.150582
-0.177512
-0.18014
-0.17336
-0.169328
-0.16905
-0.170625
-0.171146
-0.171335
-0.00813543
-0.00832537
-0.00899138
-0.010544
-0.0135903
-0.0186989
-0.0264995
-0.0379242
-0.0549966
-0.0816574
-0.121764
-0.169018
-0.198805
-0.194541
-0.184215
-0.180582
-0.181625
-0.183497
-0.18379
-0.18371
-0.0134414
-0.0136126
-0.014108
-0.0151946
-0.0173401
-0.0211698
-0.0274183
-0.0372487
-0.0525981
-0.0781965
-0.118248
-0.166971
-0.193055
-0.183894
-0.175301
-0.173571
-0.176706
-0.179217
-0.179328
-0.179014
-0.0149535
-0.0151074
-0.0154674
-0.0161645
-0.0175794
-0.0202756
-0.0249876
-0.032771
-0.0455156
-0.0672154
-0.101041
-0.141227
-0.158531
-0.14891
-0.143669
-0.147306
-0.152323
-0.155084
-0.155184
-0.154882
-0.0131086
-0.0132382
-0.0134802
-0.0138665
-0.0146665
-0.0163558
-0.0195161
-0.0249594
-0.0340745
-0.0495877
-0.072654
-0.0983666
-0.106706
-0.100277
-0.100529
-0.107177
-0.113361
-0.115925
-0.115875
-0.115602
-0.00849261
-0.00859035
-0.00872431
-0.0088794
-0.00920828
-0.0100295
-0.0117129
-0.0147035
-0.0197397
-0.0281569
-0.0398009
-0.0499356
-0.0464962
-0.0448891
-0.0505365
-0.0591009
-0.0645342
-0.0660513
-0.0657452
-0.0655656
-0.00184345
-0.00186583
-0.00188625
-0.00191322
-0.00185589
-0.00184231
-0.00201939
-0.00243922
-0.00317516
-0.00431893
-0.00565201
-0.0053971
-0.00554039
-0.00854242
-0.00975255
-0.0120743
-0.0127106
-0.0123533
-0.0122569
-0.0123282
-0.131828
0.0353438
0.230578
0.401063
0.537461
0.645096
0.734223
0.810085
0.844609
0.821329
0.171828
0.292769
0.422949
0.535532
0.630511
0.709178
0.772893
0.818124
0.840768
0.852838
0.391349
0.474362
0.563367
0.642016
0.709695
0.766333
0.811379
0.844288
0.868062
0.886039
0.552601
0.612004
0.673855
0.731102
0.780909
0.823213
0.85796
0.885676
0.908495
0.926792
0.678355
0.721583
0.767651
0.811562
0.850352
0.88424
0.913244
0.937381
0.957783
0.975618
0.782869
0.815813
0.853997
0.889607
0.922295
0.951595
0.977199
0.99872
1.01658
1.03393
0.875536
0.904269
0.938286
0.970463
1.00045
1.02766
1.05143
1.07117
1.08668
1.10376
0.964196
0.993424
1.02746
1.05953
1.08916
1.11576
1.13864
1.15715
1.17052
1.18756
1.05955
1.09277
1.12943
1.16303
1.19309
1.21929
1.24125
1.25854
1.27041
1.28781
1.17457
1.21241
1.25106
1.28532
1.31467
1.33943
1.3598
1.3757
1.38717
1.40524
1.31953
1.35808
1.39422
1.42492
1.4506
1.4727
1.49176
1.50729
1.51972
1.53772
1.49462
1.52624
1.55242
1.57487
1.59485
1.61358
1.6313
1.64778
1.66313
1.68119
1.68324
1.70044
1.71547
1.73171
1.74762
1.76215
1.77536
1.78928
1.80683
1.82698
1.86495
1.87449
1.88604
1.89685
1.90613
1.91572
1.9265
1.93787
1.94923
1.96459
2.0722
2.07586
2.06091
2.0461
2.03983
2.0455
2.06398
2.09429
2.12647
2.15313
2.37851
2.24365
2.16701
2.12463
2.10721
2.11117
2.13857
2.19499
2.29761
2.52197
0.681018
0.678889
0.674405
0.66578
0.653554
0.641422
0.63119
0.623291
0.617668
0.614407
0.614044
0.616774
0.621871
0.629088
0.638471
0.650007
0.662655
0.673688
0.679799
0.682853
0.605474
0.611321
0.617653
0.622143
0.624611
0.624284
0.621544
0.617729
0.614214
0.611947
0.611791
0.613979
0.617633
0.621915
0.625717
0.627596
0.626657
0.623173
0.618008
0.611387
0.597052
0.599348
0.602751
0.605745
0.607817
0.60931
0.610061
0.60974
0.608708
0.607817
0.607982
0.609397
0.611202
0.6125
0.612673
0.611778
0.610225
0.607885
0.60462
0.601698
0.591547
0.592633
0.594465
0.59684
0.59886
0.600284
0.601299
0.602045
0.602439
0.602652
0.60313
0.603923
0.604509
0.604565
0.604144
0.603289
0.601814
0.599725
0.597636
0.596252
0.586352
0.587014
0.588121
0.589822
0.591599
0.593226
0.594515
0.595523
0.596396
0.597175
0.597889
0.598424
0.598601
0.598421
0.597843
0.596779
0.595344
0.593795
0.592473
0.591693
0.581385
0.581846
0.58263
0.583924
0.585406
0.586916
0.588373
0.589661
0.590785
0.591826
0.592722
0.593268
0.593394
0.593103
0.592391
0.59139
0.590255
0.589115
0.588196
0.587678
0.576569
0.576913
0.577522
0.578586
0.579873
0.581239
0.582667
0.584101
0.585459
0.586721
0.587807
0.58847
0.588622
0.588324
0.587706
0.586915
0.586051
0.585176
0.584498
0.584119
0.571848
0.572117
0.572608
0.573511
0.574672
0.575959
0.577341
0.578815
0.580337
0.581833
0.58315
0.583984
0.584252
0.584103
0.583686
0.583106
0.582442
0.581791
0.581294
0.581004
0.567144
0.567357
0.567765
0.568557
0.569637
0.570873
0.572243
0.57376
0.575407
0.577133
0.578726
0.579809
0.580306
0.580387
0.580192
0.579826
0.579362
0.578899
0.57854
0.578313
0.562369
0.562541
0.56289
0.563608
0.56464
0.565853
0.567247
0.568843
0.57064
0.57261
0.574532
0.575957
0.576761
0.577117
0.577163
0.577016
0.576757
0.576462
0.576217
0.576037
0.557437
0.557576
0.557883
0.558557
0.559571
0.560805
0.562262
0.563978
0.565976
0.568244
0.570569
0.572418
0.573594
0.574267
0.574586
0.574673
0.574614
0.574479
0.57433
0.574185
0.552262
0.552374
0.552653
0.553306
0.554337
0.555638
0.557201
0.55909
0.561357
0.564003
0.566825
0.569187
0.570798
0.571838
0.572463
0.5728
0.572946
0.572973
0.572908
0.57279
0.54675
0.546839
0.547102
0.54776
0.548843
0.550252
0.551977
0.554107
0.55672
0.55985
0.563284
0.566259
0.568385
0.569846
0.570814
0.571444
0.571816
0.571992
0.572001
0.571904
0.540797
0.540865
0.541121
0.541806
0.54298
0.544545
0.546495
0.548945
0.551999
0.555735
0.559918
0.563632
0.566369
0.568325
0.569687
0.570641
0.571261
0.571597
0.571675
0.571596
0.534279
0.534328
0.534585
0.53532
0.536624
0.538401
0.540648
0.543509
0.547124
0.551608
0.556706
0.561311
0.564775
0.567316
0.569138
0.570451
0.571357
0.571867
0.572014
0.57195
0.527048
0.527077
0.52734
0.528148
0.529628
0.53168
0.534309
0.537691
0.54201
0.547416
0.553627
0.559307
0.563639
0.566869
0.569237
0.570975
0.572208
0.572903
0.573118
0.573065
0.518918
0.518935
0.519198
0.520103
0.521812
0.524208
0.527329
0.531377
0.536579
0.543128
0.550692
0.557657
0.563018
0.567057
0.570065
0.572318
0.573917
0.574814
0.575099
0.575055
0.509581
0.509567
0.509892
0.510935
0.51293
0.515775
0.519525
0.524414
0.530722
0.538684
0.547894
0.556389
0.562965
0.56796
0.571721
0.574575
0.576598
0.57772
0.578077
0.57804
0.498763
0.498724
0.499093
0.500328
0.502691
0.506121
0.510674
0.516629
0.524324
0.534028
0.545227
0.555546
0.563549
0.569669
0.574319
0.577867
0.580378
0.581746
0.582175
0.582141
0.485993
0.485927
0.486373
0.487856
0.490701
0.494892
0.500483
0.507808
0.517257
0.529117
0.542716
0.555191
0.564857
0.572277
0.577967
0.582314
0.585379
0.587008
0.587507
0.587472
0.470632
0.470537
0.471106
0.472938
0.47643
0.481639
0.48861
0.49773
0.509426
0.523957
0.540428
0.555416
0.566992
0.575895
0.582779
0.588029
0.591705
0.593604
0.594164
0.594122
0.451756
0.451634
0.452399
0.454741
0.459144
0.465768
0.474624
0.486138
0.500729
0.518567
0.538445
0.55631
0.570045
0.580623
0.588823
0.595099
0.599426
0.601587
0.602191
0.602135
0.427977
0.427837
0.428931
0.432063
0.437835
0.446528
0.458058
0.472827
0.49115
0.513026
0.536883
0.557999
0.574122
0.586536
0.596179
0.603569
0.608554
0.610939
0.611559
0.611481
0.39699
0.396869
0.398569
0.403073
0.411127
0.423033
0.438484
0.457726
0.480844
0.507602
0.536006
0.560676
0.579341
0.593706
0.60489
0.613443
0.619014
0.621543
0.622136
0.622028
0.354689
0.354727
0.35776
0.365118
0.377397
0.394561
0.415816
0.441087
0.470169
0.502613
0.536042
0.564494
0.585804
0.60218
0.614935
0.624618
0.630619
0.633148
0.633659
0.633515
0.293386
0.294564
0.30199
0.315713
0.335701
0.361213
0.39063
0.423567
0.459708
0.498507
0.537269
0.569583
0.593529
0.611877
0.626131
0.636757
0.642989
0.645293
0.645631
0.645455
0.220518
0.222241
0.23647
0.260066
0.290886
0.326266
0.36462
0.405768
0.449518
0.495369
0.540364
0.577506
0.604941
0.62587
0.642008
0.653783
0.660207
0.662398
0.662707
0.662618
0.145237
0.151344
0.172377
0.206125
0.247275
0.292239
0.339488
0.388894
0.440339
0.49337
0.544811
0.586983
0.618043
0.641762
0.660051
0.672743
0.678982
0.680814
0.68105
0.681019
0.0836646
0.0920612
0.117656
0.158383
0.2076
0.260743
0.31602
0.373167
0.431971
0.491921
0.549533
0.596441
0.63084
0.656983
0.676872
0.690246
0.696496
0.69817
0.698517
0.698548
0.0335638
0.0425554
0.0716903
0.117636
0.172971
0.232709
0.294776
0.358755
0.424263
0.490676
0.554121
0.605502
0.643004
0.671381
0.692801
0.707024
0.713527
0.715618
0.716086
0.716154
-0.00843375
0.000844896
0.0324358
0.0823756
0.142725
0.207934
0.275753
0.3457
0.417235
0.489603
0.558507
0.614103
0.654546
0.685078
0.708048
0.723273
0.730447
0.732921
0.733435
0.733519
-0.0446701
-0.035269
-0.0018222
0.0513195
0.115805
0.18568
0.258515
0.333745
0.410729
0.488576
0.562586
0.622147
0.665366
0.697926
0.72238
0.738567
0.74643
0.749126
0.749732
0.74982
-0.0768001
-0.067348
-0.03247
0.0233746
0.09133
0.165223
0.242487
0.322465
0.404431
0.48737
0.566189
0.62949
0.675304
0.709689
0.735424
0.752456
0.760996
0.763947
0.764577
0.76466
-0.106086
-0.0965781
-0.0605272
-0.00234819
0.0685908
0.145995
0.227193
0.311474
0.398034
0.485758
0.569146
0.63601
0.684239
0.7203
0.747108
0.764819
0.773859
0.777025
0.777688
0.777748
-0.13338
-0.123812
-0.0867073
-0.026539
0.0470619
0.127572
0.212284
0.300477
0.391295
0.483536
0.571322
0.641638
0.69218
0.72977
0.757523
0.775767
0.785079
0.788421
0.78913
0.789178
-0.159237
-0.149592
-0.111499
-0.0496346
0.0263596
0.109632
0.197508
0.289265
0.384034
0.480565
0.572639
0.646378
0.699205
0.738246
0.766873
0.785495
0.794944
0.798382
0.799114
0.799132
-0.184144
-0.174314
-0.135369
-0.0718838
0.00621956
0.0919596
0.18269
0.277698
0.376141
0.476756
0.573043
0.650245
0.705393
0.745889
0.775307
0.794216
0.803707
0.807124
0.807832
0.807827
-0.208325
-0.198261
-0.158546
-0.0934956
-0.0135256
0.0744185
0.167721
0.265697
0.36754
0.472043
0.572494
0.653246
0.710826
0.752853
0.783029
0.802106
0.811561
0.814922
0.815579
0.815535
-0.231877
-0.221597
-0.181041
-0.114621
-0.0329736
0.056948
0.152552
0.253216
0.358195
0.466375
0.570945
0.655381
0.715582
0.759278
0.790188
0.809335
0.818683
0.821923
0.822506
0.822441
-0.254943
-0.244349
-0.203035
-0.135321
-0.0521651
0.0395169
0.137175
0.24026
0.348105
0.45974
0.568345
0.656617
0.719711
0.765277
0.796926
0.816045
0.825176
0.828212
0.828682
0.828573
-0.27749
-0.266609
-0.224538
-0.155624
-0.0711026
0.0221404
0.121625
0.226865
0.337297
0.452132
0.564648
0.656899
0.72323
0.770945
0.803392
0.822362
0.831082
0.833797
0.834124
0.83398
-0.299568
-0.288368
-0.245492
-0.175507
-0.0897621
0.00485553
0.105948
0.213093
0.325828
0.443573
0.559818
0.656155
0.726091
0.776339
0.809788
0.828512
0.836548
0.838751
0.838902
0.838731
-0.320995
-0.309549
-0.265891
-0.194926
-0.108093
-0.0122636
0.0902091
0.199017
0.313772
0.434123
0.553836
0.654303
0.728187
0.78146
0.816356
0.834889
0.841867
0.843195
0.843062
0.842875
-0.341911
-0.330109
-0.285718
-0.213859
-0.126062
-0.0291765
0.0745039
0.18472
0.301219
0.423863
0.546717
0.651241
0.729352
0.786192
0.823261
0.842064
0.84771
0.847488
0.846679
0.846467
-0.362149
-0.350023
-0.304939
-0.232256
-0.143586
-0.0457974
0.0589143
0.170324
0.288281
0.412861
0.538506
0.646873
0.729379
0.790277
0.830408
0.850617
0.855401
0.852917
0.850302
0.849257
-0.381769
-0.369332
-0.323499
-0.250063
-0.160629
-0.0620558
0.0435251
0.155911
0.27507
0.401257
0.529279
0.641107
0.728037
0.793315
0.837249
0.860515
0.866463
0.862701
0.85613
0.847474
-0.400686
-0.387994
-0.341492
-0.267436
-0.177398
-0.0782257
0.0280034
0.141081
0.261138
0.388547
0.5185
0.63337
0.724799
0.794882
0.843009