/*--------------------------------*- C++ -*----------------------------------*\
| =========                 |                                                 |
| \\      /  F ield         | OpenFOAM: The Open Source CFD Toolbox           |
|  \\    /   O peration     | Version:  4.0                                   |
|   \\  /    A nd           | Web:      www.OpenFOAM.org                      |
|    \\/     M anipulation  |                                                 |
\*---------------------------------------------------------------------------*/
FoamFile
{
    version     2.0;
    format      ascii;
    class       surfaceScalarField;
    location    "53";
    object      phi;
}
// * * * * * * * * * * * * * * * * * * * * * * * * * * * * * * * * * * * * * //

dimensions      [0 3 -1 0 0 0 0];

internalField   nonuniform List<scalar> 
17370
(
-0.091607
0.0960098
0.284608
-0.0775956
0.0594214
0.36495
-0.0430445
0.0316259
0.427587
-0.0223234
0.0162721
0.505303
-0.0116801
0.0088067
0.602276
-0.00659557
0.00511061
0.720542
-0.0038738
0.00299347
0.863787
-0.00222027
0.00164177
1.03603
-0.00111007
0.000689048
1.24292
-0.000277994
-0.000115012
1.49158
0.00050288
-0.00091536
1.4916
0.00131842
-0.00182213
1.24319
0.0023726
-0.00311659
1.03638
0.00397553
-0.00519654
0.864128
0.00667258
-0.00887573
0.721261
0.0117397
-0.0163178
0.603793
0.0223549
-0.0316421
0.508726
0.043044
-0.0594109
0.432535
0.0775891
-0.0960039
0.36519
0.0916207
0.19739
-0.12709
0.0880206
0.0390694
-0.364354
0.354028
-0.0714776
0.0818041
-0.446654
0.454252
-0.0791738
0.0715757
-0.521011
0.529107
-0.0637253
0.0556297
-0.61299
0.620759
-0.0482445
0.0404763
-0.727163
0.733684
-0.0338649
0.0273442
-0.86758
0.872432
-0.0221403
0.017288
-1.03856
1.0419
-0.0135892
0.010249
-1.24472
1.24712
-0.00769781
0.00529183
-1.49284
1.49486
-0.0033274
0.00131236
-1.49269
1.49451
0.000508549
-0.00232911
-1.24411
1.24602
0.00430284
-0.00621434
-1.03761
1.04009
0.00855092
-0.0110321
-0.866187
0.869817
0.0142929
-0.0179229
-0.724595
0.729749
0.02271
-0.0278647
-0.609065
0.615634
0.0343389
-0.0409088
-0.515124
0.52246
0.0486289
-0.055965
-0.43988
0.447659
0.0639881
-0.0717673
-0.374708
0.377355
0.0792645
-0.0819117
-0.256898
0.224437
0.0715617
-0.0391005
-0.0688087
0.0591958
0.0096129
-0.0521136
0.0589419
-0.374835
0.368007
-0.0580965
0.0542564
-0.453945
0.457785
-0.0487717
0.0442142
-0.527616
0.532174
-0.0396662
0.0357714
-0.6208
0.624695
-0.031559
0.027564
-0.734658
0.738653
-0.023207
0.0193193
-0.873954
0.877842
-0.0152734
0.0118157
-1.04336
1.04682
-0.00829559
0.00526219
-1.24865
1.25168
-0.00205324
-0.000928985
-1.49695
1.49993
0.00388985
-0.00703869
-1.49742
1.50057
0.00998427
-0.0133865
-1.25007
1.25347
0.0167254
-0.0206366
-1.04565
1.04956
0.0244058
-0.0286447
-0.877137
0.881375
0.0325444
-0.0366633
-0.738982
0.743101
0.0404808
-0.0449528
-0.62597
0.630442
0.0494469
-0.0548699
-0.535016
0.540439
0.0586386
-0.0593992
-0.458076
0.458836
0.0524533
-0.0320648
-0.336764
0.316375
0.00967348
-0.0686629
0.0589894
-0.0534062
0.0492941
0.00411214
-0.0332475
0.0436732
-0.35856
0.348134
-0.0473513
0.0467667
-0.459578
0.460163
-0.0438409
0.0406308
-0.536132
0.539342
-0.036956
0.0336025
-0.628394
0.631748
-0.0299693
0.0267281
-0.742032
0.745273
-0.0232748
0.0200768
-0.881334
0.884532
-0.0164836
0.0131322
-1.05024
1.0536
-0.00943355
0.00602875
-1.25494
1.25835
-0.00223701
-0.00138047
-1.50328
1.5069
0.00496692
-0.00866853
-1.50407
1.50777
0.0119512
-0.0154855
-1.25703
1.26056
0.0186708
-0.0220733
-1.05326
1.05667
0.0251015
-0.0283842
-0.884982
0.888265
0.031487
-0.0349852
-0.746782
0.750281
0.0382252
-0.0417823
-0.634562
0.638119
0.0448905
-0.0477018
-0.544582
0.547393
0.0481678
-0.0443247
-0.456952
0.453109
0.0336963
-0.0163807
-0.297057
0.279741
0.00417907
-0.0531392
0.0489602
-0.0461244
0.0435682
0.00255619
-0.0230516
0.0334034
-0.337542
0.32719
-0.0391398
0.0400909
-0.459914
0.458963
-0.038842
0.0365159
-0.541999
0.544325
-0.0338757
0.0313306
-0.634714
0.63726
-0.0283544
0.0255066
-0.748357
0.751205
-0.0222685
0.0192544
-0.887586
0.8906
-0.0159035
0.0127701
-1.05677
1.0599
-0.00921427
0.00581503
-1.26174
1.26514
-0.00190529
-0.00189185
-1.51063
1.51442
0.00564945
-0.00943925
-1.51155
1.51534
0.0126776
-0.0160177
-1.26402
1.26736
0.0189324
-0.022033
-1.05987
1.06297
0.0248217
-0.0278285
-0.89146
0.894466
0.030486
-0.0332755
-0.753459
0.756248
0.0356652
-0.0381487
-0.641071
0.643554
0.0403412
-0.0414131
-0.549228
0.5503
0.0402785
-0.0342738
-0.447984
0.441979
0.023627
-0.0103764
-0.264552
0.251302
0.00263903
-0.0457159
0.0430769
-0.0414496
0.0396486
0.00180091
-0.0169489
0.0262366
-0.31732
0.308033
-0.0328352
0.0349575
-0.457403
0.45528
-0.0345245
0.0328263
-0.546355
0.548053
-0.0305991
0.0284714
-0.639571
0.641699
-0.026034
0.0236555
-0.753803
0.756182
-0.0208404
0.0180935
-0.893455
0.896202
-0.014909
0.0118745
-1.06295
1.06598
-0.0084099
0.00509526
-1.26846
1.27178
-0.00125708
-0.0024889
-1.51819
1.52193
0.00618425
-0.00987148
-1.51908
1.52277
0.0129814
-0.0161713
-1.27063
1.27382
0.0189274
-0.0217925
-1.06599
1.06886
0.0242497
-0.026766
-0.897249
0.899766
0.0288982
-0.0310949
-0.758689
0.760886
0.0330241
-0.0350492
-0.645779
0.647804
0.0365519
-0.0367436
-0.550879
0.551071
0.0343389
-0.0273482
-0.435386
0.428395
0.017666
-0.00747631
-0.239724
0.229534
0.00190224
-0.0408669
0.0389647
-0.0380985
0.0367464
0.0013521
-0.0129501
0.0209513
-0.299392
0.291391
-0.0277213
0.0306449
-0.452726
0.449803
-0.0308529
0.0297289
-0.549491
0.550615
-0.0277304
0.0258047
-0.643757
0.645682
-0.0235936
0.0214524
-0.758425
0.760566
-0.0189443
0.016476
-0.89875
0.901218
-0.0135565
0.010702
-1.06888
1.07173
-0.00737371
0.00415884
-1.27501
1.27822
-0.00042818
-0.00320052
-1.5256
1.52923
0.00676605
-0.0103079
-1.52638
1.52992
0.0132678
-0.0162533
-1.27694
1.27992
0.0187588
-0.0212764
-1.07157
1.07409
0.0233807
-0.0255126
-0.902079
0.904211
0.0273422
-0.0292472
-0.76293
0.764835
0.0309228
-0.032681
-0.64967
0.651428
0.0335202
-0.0329753
-0.550897
0.550352
0.0296476
-0.0223407
-0.421189
0.413882
0.0138334
-0.00577454
-0.220511
0.212452
0.00147578
-0.0373033
0.0358275
-0.035565
0.0345232
0.00104182
-0.0101264
0.016903
-0.284026
0.277249
-0.0234243
0.0268122
-0.446626
0.443238
-0.0275995
0.0269096
-0.551515
0.552205
-0.0251469
0.0233669
-0.647577
0.649357
-0.0213084
0.0193054
-0.762639
0.764642
-0.0169476
0.0146326
-0.903544
0.905859
-0.011908
0.00923535
-1.07442
1.0771
-0.00609004
0.00301955
-1.28132
1.28439
0.000566987
-0.00405518
-1.53276
1.53625
0.0074655
-0.0108182
-1.53336
1.53672
0.0135731
-0.0162936
-1.28279
1.28551
0.0185354
-0.0207637
-1.07648
1.07871
0.022628
-0.0245192
-0.906237
0.908128
0.026136
-0.0278154
-0.766627
0.768307
0.0292863
-0.0307179
-0.653037
0.654469
0.0310516
-0.0297897
-0.54946
0.548198
0.0258458
-0.0186188
-0.40659
0.399363
0.0112075
-0.0046456
-0.205213
0.198651
0.00119213
-0.0345109
0.0333188
-0.0336076
0.032795
0.00081258
-0.0080351
0.0137394
-0.271037
0.265333
-0.0197869
0.0233832
-0.439735
0.436138
-0.0246578
0.0242208
-0.552801
0.553238
-0.0227359
0.0210703
-0.651134
0.6528
-0.0191125
0.0172025
-0.766597
0.768507
-0.014949
0.0127328
-0.90806
0.910276
-0.0101214
0.00756768
-1.07963
1.08219
-0.0045741
0.00164968
-1.28734
1.29026
0.00176829
-0.00508968
-1.53962
1.54295
0.00831675
-0.0114502
-1.53995
1.54308
0.0139891
-0.0164667
-1.28812
1.2906
0.0184948
-0.0204976
-1.08086
1.08286
0.0221586
-0.0238354
-0.909935
0.911612
0.0252673
-0.0267545
-0.769896
0.771383
0.0280332
-0.0290922
-0.655687
0.656746
0.0290604
-0.0271365
-0.546607
0.544683
0.0227999
-0.0158487
-0.392269
0.385318
0.00935672
-0.00386279
-0.192674
0.18718
0.000995374
-0.0322387
0.0312433
-0.0320801
0.0314443
0.000635736
-0.00642567
0.011214
-0.260114
0.255325
-0.0166802
0.0202879
-0.432535
0.428927
-0.0218963
0.0216906
-0.553598
0.553804
-0.0204441
0.0188428
-0.654486
0.656087
-0.0169451
0.0150894
-0.770388
0.772244
-0.0129023
0.0107538
-0.912383
0.914531
-0.00822363
0.00575194
-1.08462
1.08709
-0.00286258
6.05335e-05
-1.29307
1.29587
0.00320358
-0.00635002
-1.54614
1.54929
0.00937914
-0.0122911
-1.54609
1.549
0.0146291
-0.0168893
-1.29299
1.29525
0.0187183
-0.0205038
-1.08479
1.08658
0.0219721
-0.0234542
-0.913219
0.914701
0.0247263
-0.0260475
-0.772797
0.774118
0.0271844
-0.0278379
-0.657582
0.658235
0.0274439
-0.0249717
-0.542499
0.540027
0.0204015
-0.013797
-0.378551
0.371947
0.00803777
-0.00331266
-0.182111
0.177386
0.000857827
-0.0303287
0.0294709
-0.0308878
0.0303949
0.000492988
-0.00513343
0.0091327
-0.250957
0.246958
-0.0139723
0.0174431
-0.425395
0.421924
-0.0192477
0.0192422
-0.553955
0.553961
-0.0182026
0.0166432
-0.657739
0.659298
-0.0147771
0.0129446
-0.774081
0.775914
-0.0107841
0.00866611
-0.916577
0.918695
-0.00618087
0.00376391
-1.08944
1.09186
-0.000949239
-0.00176511
-1.29856
1.30128
0.00489617
-0.00788622
-1.55231
1.5553
0.0107347
-0.0134427
-1.55178
1.55449
0.0155923
-0.0176449
-1.29742
1.29947
0.0192856
-0.0208669
-1.08831
1.0899
0.0221545
-0.0234539
-0.916122
0.917422
0.0245744
-0.0257338
-0.775366
0.776526
0.0266824
-0.0269663
-0.65868
0.658964
0.0261885
-0.0232566
-0.537335
0.534403
0.0185556
-0.0122956
-0.365535
0.359275
0.00710205
-0.00292914
-0.172972
0.168799
0.000763442
-0.0286719
0.0279085
-0.029969
0.0295963
0.000372701
-0.0040538
0.00736098
-0.243327
0.24002
-0.0115618
0.0147844
-0.418592
0.41537
-0.0166571
0.0168133
-0.553938
0.553782
-0.0158648
0.0143852
-0.660897
0.662376
-0.0125221
0.0106801
-0.77774
0.779582
-0.00850989
0.0063916
-0.920714
0.922832
-0.00392058
0.00153
-1.09417
1.09656
0.00123268
-0.00388093
-1.30389
1.30654
0.00690681
-0.00976133
-1.55818
1.56103
0.0124438
-0.0149551
-1.55708
1.55959
0.0169163
-0.0187579
-1.30143
1.30327
0.0202068
-0.0215823
-1.09144
1.09281
0.0226918
-0.0238164
-0.918676
0.9198
0.0247937
-0.0257911
-0.77762
0.778617
0.0264949
-0.0264802
-0.659103
0.659088
0.0253032
-0.021972
-0.531282
0.527951
0.0171919
-0.011229
-0.353193
0.34723
0.00645596
-0.00267079
-0.164853
0.161068
0.000701777
-0.0271878
0.026486
-0.0292833
0.0290175
0.000265835
-0.00311024
0.00579379
-0.237046
0.234362
-0.00935616
0.0122485
-0.412332
0.40944
-0.0140779
0.0143271
-0.553639
0.55339
-0.0134309
0.0120042
-0.663919
0.665346
-0.0101243
0.00824726
-0.781424
0.783301
-0.00603586
0.00388481
-0.924851
0.927002
-0.00138785
-0.00100718
-1.09884
1.10123
0.00375887
-0.00636912
-1.30909
1.3117
0.00931446
-0.0120521
-1.56377
1.56651
0.0145813
-0.0169042
-1.56198
1.5643
0.0186845
-0.0203225
-1.30503
1.30667
0.0215837
-0.0227513
-1.09416
1.09533
0.0236765
-0.0246218
-0.920882
0.921827
0.0254538
-0.0262798
-0.779534
0.78036
0.0267104
-0.0264417
-0.658941
0.658672
0.0248288
-0.0211163
-0.524451
0.520739
0.0162639
-0.0105221
-0.341417
0.335675
0.0060411
-0.00251197
-0.157444
0.153915
0.000666436
-0.0258147
0.0251483
-0.028808
0.0286434
0.000164583
-0.00223796
0.00433641
-0.231991
0.229893
-0.00725491
0.00974631
-0.406772
0.40428
-0.0114255
0.0116923
-0.553201
0.552935
-0.0108211
0.00941513
-0.666867
0.668273
-0.00749666
0.00555691
-0.785181
0.78712
-0.00326847
0.0010509
-0.929053
0.931271
0.00150696
-0.00394448
-1.10353
1.10597
0.00671529
-0.00931498
-1.31422
1.31682
0.0122084
-0.0148508
-1.56914
1.57179
0.0172408
-0.0193805
-1.5665
1.56864
0.0209778
-0.0224055
-1.30821
1.30964
0.0234726
-0.0244233
-1.09649
1.09744
0.0251472
-0.025893
-0.922729
0.923474
0.026565
-0.0272382
-0.781093
0.781766
0.0273664
-0.0267469
-0.658177
0.657557
0.0247157
-0.0206452
-0.51689
0.512819
0.0157093
-0.0101068
-0.330052
0.324449
0.00580876
-0.00243084
-0.150496
0.147118
0.000651461
-0.0245034
0.023852
-0.0285347
0.0284723
6.24091e-05
-0.00138779
0.0029161
-0.228097
0.226569
-0.00517706
0.00720384
-0.402047
0.400021
-0.00862768
0.00882694
-0.552787
0.552588
-0.00792917
0.00650204
-0.669814
0.671241
-0.00450072
0.00246579
-0.789066
0.791101
-6.7802e-05
-0.00224747
-0.933384
0.935699
0.00489828
-0.00740681
-1.10831
1.11082
0.0102307
-0.0128471
-1.31933
1.32194
0.0157097
-0.0182653
-1.57432
1.57688
0.0205157
-0.0224674
-1.57065
1.5726
0.0238739
-0.0250784
-1.31096
1.31216
0.0259342
-0.0266476
-1.09839
1.0991
0.0271561
-0.0276846
-0.92419
0.924718
0.0281953
-0.0286798
-0.78229
0.782775
0.0285243
-0.0275022
-0.656682
0.65566
0.0250281
-0.0205756
-0.508626
0.504173
0.0155102
-0.00995094
-0.31893
0.313371
0.00573477
-0.00241725
-0.14381
0.140493
0.000654574
-0.0232151
0.0225605
-0.0284659
0.028512
-4.61238e-05
-0.000514064
0.00146711
-0.225345
0.224392
-0.0030425
0.00454014
-0.398285
0.396787
-0.00560844
0.00566082
-0.552566
0.552514
-0.00468715
0.00319122
-0.67285
0.674346
-0.0010809
-0.00108365
-0.793144
0.795308
0.00363565
-0.00608611
-0.937912
0.940363
0.00887829
-0.0114991
-1.11323
1.11586
0.0144177
-0.0170827
-1.32448
1.32714
0.0199424
-0.0224294
-1.57933
1.58182
0.0245483
-0.0263083
-1.57441
1.57617
0.0275132
-0.0284816
-1.31325
1.31422
0.0291165
-0.0295792
-1.09983
1.10029
0.0298538
-0.0301467
-0.925228
0.925521
0.0304654
-0.0306819
-0.782988
0.783205
0.0302601
-0.028749
-0.654362
0.652851
0.0257869
-0.0209129
-0.499615
0.494741
0.015656
-0.0100378
-0.307857
0.302239
0.00580654
-0.00246546
-0.137209
0.133868
0.000674106
-0.0219143
0.0212402
-0.0286131
0.0287749
-0.000161836
0.000409632
-6.26756e-05
-0.223758
0.223411
-0.000776814
0.00166338
-0.39561
0.394724
-0.002269
0.00208627
-0.552709
0.552892
-0.000979225
-0.000647843
-0.676076
0.677703
0.00291552
-0.00525375
-0.797483
0.799822
0.00800746
-0.0106401
-0.942717
0.945349
0.0136205
-0.0163928
-1.11839
1.12116
0.019444
-0.0221876
-1.32972
1.33247
0.0250712
-0.0275044
-1.5842
1.58663
0.0294926
-0.0310464
-1.57778
1.57933
0.0320306
-0.0327279
-1.31505
1.31575
0.0331112
-0.0333054
-1.10075
1.10095
0.0333365
-0.0333747
-0.925792
0.92583
0.0334825
-0.0333735
-0.783054
0.782946
0.0326166
-0.0305255
-0.65109
0.648999
0.0270262
-0.0216702
-0.48977
0.484414
0.0161407
-0.0103535
-0.296625
0.290838
0.00601254
-0.00256969
-0.130525
0.127082
0.000708309
-0.020569
0.0198607
-0.029016
0.0293173
-0.000301274
0.00140109
-0.00170419
-0.223424
0.223727
0.00170535
-0.00153775
-0.394156
0.393988
0.00152756
-0.00205572
-0.553428
0.553956
0.00338667
-0.00520293
-0.679627
0.681444
0.00769069
-0.0102554
-0.80217
0.804735
0.0132658
-0.0161268
-0.947885
0.950746
0.0193429
-0.0223079
-1.12385
1.12682
0.0255312
-0.0283791
-1.33513
1.33798
0.0312969
-0.0336684
-1.58894
1.59131
0.0355045
-0.0368178
-1.58071
1.58202
0.0375578
-0.0379578
-1.31629
1.31669
0.0380662
-0.0379612
-1.10111
1.101
0.0377177
-0.037475
-0.925819
0.925577
0.0373706
-0.0368374
-0.782372
0.781838
0.0356593
-0.0329128
-0.646723
0.643977
0.0288014
-0.0228728
-0.478956
0.473028
0.0169702
-0.0108946
-0.28501
0.278934
0.00634835
-0.00272733
-0.123606
0.119985
0.000756339
-0.0191503
0.018394
-0.0296904
0.0301678
-0.000477454
0.0026832
-0.0037307
-0.224414
0.225461
0.00460106
-0.00522734
-0.394145
0.394771
0.00593151
-0.00690447
-0.554969
0.555942
0.00853082
-0.0105971
-0.683621
0.685688
0.0133763
-0.0162301
-0.80731
0.810164
0.019566
-0.0227206
-0.953514
0.956669
0.0262426
-0.0294572
-1.12971
1.13292
0.0329014
-0.0358833
-1.34075
1.34373
0.0388505
-0.0411558
-1.59355
1.59586
0.0428172
-0.043859
-1.58313
1.58418
0.0442981
-0.0443706
-1.31689
1.31696
0.0441703
-0.0437306
-1.1008
1.10036
0.0431796
-0.0426197
-0.925232
0.924672
0.0422105
-0.0412258
-0.780793
0.779808
0.0395072
-0.036
-0.641099
0.637592
0.0311715
-0.0245506
-0.466983
0.460362
0.018155
-0.0116608
-0.272771
0.266277
0.00681072
-0.00293578
-0.1163
0.112425
0.000817141
-0.0176315
0.0168144
-0.0307156
0.0314108
-0.000695121
0.00416944
-0.00610547
-0.226929
0.228865
0.00804255
-0.00956916
-0.39579
0.397317
0.0110951
-0.0126418
-0.557568
0.559114
0.0147013
-0.0171056
-0.688194
0.690598
0.0202743
-0.0234973
-0.813032
0.816255
0.0272463
-0.0307683
-0.959744
0.963266
0.0346646
-0.0381771
-1.13607
1.13958
0.0418799
-0.0450139
-1.34663
1.34976
0.0480289
-0.0502427
-1.59802
1.60023
0.0516849
-0.0524015
-1.58499
1.58571
0.0524786
-0.0521731
-1.31678
1.31647
0.0516152
-0.0507988
-1.09974
1.09892
0.0499075
-0.0489808
-0.923946
0.923019
0.0481617
-0.0466772
-0.778273
0.776789
0.0442776
-0.0398803
-0.633991
0.629593
0.0342029
-0.0267357
-0.453603
0.446136
0.0197042
-0.0126487
-0.259645
0.252589
0.00739299
-0.0031899
-0.108456
0.104253
0.000888503
-0.0159884
0.0150999
-0.0321721
0.0331537
-0.000981624
0.00604516
-0.00903867
-0.231225
0.234219
0.0122284
-0.0148124
-0.39936
0.401944
0.0173102
-0.019565
-0.561512
0.563767
0.0222132
-0.0250966
-0.693543
0.696426
0.0287905
-0.0324865
-0.819506
0.823201
0.0367398
-0.0406969
-0.966714
0.970671
0.0450287
-0.0488817
-1.14303
1.14688
0.0528675
-0.0561501
-1.35279
1.35608
0.0591767
-0.0612378
-1.60226
1.60432
0.0623865
-0.0626891
-1.58614
1.58644
0.0623503
-0.0615704
-1.31582
1.31504
0.0605899
-0.0593249
-1.09783
1.09657
0.0580394
-0.0567339
-0.921857
0.920552
0.0554017
-0.0533261
-0.774719
0.772643
0.0501245
-0.0446579
-0.625118
0.619651
0.0379526
-0.0294461
-0.438502
0.429996
0.0216144
-0.0138443
-0.245346
0.237576
0.00808065
-0.00348043
-0.0999309
0.0953306
0.000967013
-0.0142014
0.0132344
-0.0341886
0.0355598
-0.00137124
0.00848868
-0.0128366
-0.237626
0.241974
0.0175119
-0.0213304
-0.405221
0.40904
0.0249632
-0.0280675
-0.56714
0.570244
0.0314703
-0.0349788
-0.699962
0.703471
0.0393468
-0.0436374
-0.826931
0.831222
0.0485118
-0.0529955
-0.974568
0.979052
0.057837
-0.062064
-1.15066
1.15489
0.0663275
-0.069717
-1.35922
1.36261
0.0726739
-0.0744803
-1.60612
1.60793
0.0752174
-0.0749803
-1.58639
1.58615
0.0741328
-0.0727647
-1.31379
1.31243
0.071308
-0.0695343
-1.09492
1.09315
0.067807
-0.0660479
-0.918901
0.917141
0.0641149
-0.0613275
-0.769942
0.767154
0.0571396
-0.0503804
-0.614111
0.607352
0.0424355
-0.0326657
-0.421302
0.411532
0.0238518
-0.0152095
-0.229575
0.220932
0.00884232
-0.00378952
-0.0905938
0.0855411
0.00104639
-0.0122596
0.0112132
-0.0369592
0.0388895
-0.00193025
0.0118959
-0.0179472
-0.246662
0.252713
0.0244248
-0.0296967
-0.413858
0.41913
0.034678
-0.0388152
-0.57482
0.578958
0.0431729
-0.0474967
-0.707754
0.712078
0.0527307
-0.0577603
-0.83555
0.840579
0.0633795
-0.0684623
-0.98349
0.988572
0.0738407
-0.0784167
-1.15901
1.16359
0.0828797
-0.0862623
-1.36579
1.36917
0.0889832
-0.0903531
-1.60938
1.61075
0.0904965
-0.089545
-1.58548
1.58452
0.0880376
-0.0859856
-1.3105
1.30845
0.0839601
-0.0816463
-1.09085
1.08853
0.0794569
-0.0770876
-0.9149
0.91253
0.0745521
-0.0708221
-0.763611
0.75988
0.0654261
-0.0570971
-0.600509
0.59218
0.0476492
-0.0363484
-0.40156
0.390259
0.0263511
-0.0166797
-0.21203
0.202359
0.00962897
-0.00409159
-0.0803491
0.0748117
0.00111844
-0.0101653
0.00904691
-0.0408099
0.0436064
-0.00279651
0.0168218
-0.0251255
-0.25904
0.267343
0.0338429
-0.0408693
-0.425946
0.432973
0.047499
-0.0529081
-0.58504
0.590449
0.0585035
-0.0639086
-0.717332
0.722737
0.0702361
-0.0761261
-0.845634
0.851524
0.0825325
-0.0881793
-0.99358
0.999227
0.0939886
-0.0987655
-1.16798
1.17275
0.103216
-0.106366
-1.37222
1.37537
0.108575
-0.109245
-1.61163
1.6123
0.108554
-0.106674
-1.58302
1.58114
0.104343
-0.101451
-1.30574
1.30285
0.0987372
-0.0957911
-1.08549
1.08254
0.0930818
-0.0900353
-0.909493
0.906446
0.086825
-0.0819133
-0.755245
0.750333
0.0750122
-0.064763
-0.583719
0.573469
0.0534995
-0.0403684
-0.378767
0.365636
0.0289776
-0.0181372
-0.192438
0.181597
0.0103559
-0.00434404
-0.0691608
0.0631489
0.00116969
-0.00793971
0.00677002
-0.0463116
0.0505704
-0.00425877
0.0244727
-0.0358408
-0.275923
0.287291
0.0474565
-0.0567998
-0.442506
0.451849
0.0654328
-0.0723
-0.598418
0.605286
0.0794112
-0.0862865
-0.729112
0.735988
0.0937629
-0.10043
-0.857376
0.864044
0.107462
-0.113464
-1.00469
1.0107
0.119406
-0.124062
-1.17718
1.18183
0.128102
-0.130631
-1.37798
1.38051
0.131894
-0.131478
-1.61226
1.61185
0.129613
-0.126521
-1.57855
1.57546
0.123178
-0.119276
-1.29921
1.29531
0.115762
-0.11209
-1.07867
1.075
0.108822
-0.10498
-0.902483
0.898641
0.100929
-0.0944873
-0.744312
0.73787
0.0857173
-0.0731494
-0.562981
0.550413
0.0597444
-0.0444914
-0.352365
0.337112
0.0315166
-0.0194114
-0.1706
0.158495
0.0109049
-0.00448898
-0.0570997
0.0506837
0.00118149
-0.00563126
0.00444976
-0.0545269
0.0618523
-0.0073254
0.03792
-0.0537514
-0.299449
0.315281
0.0694159
-0.0819348
-0.465164
0.477683
0.0927137
-0.100919
-0.615372
0.623578
0.109518
-0.117618
-0.743458
0.751558
0.125964
-0.13301
-0.870493
0.877539
0.140113
-0.145897
-1.01626
1.02205
0.151315
-0.155221
-1.18582
1.18973
0.158185
-0.159479
-1.38218
1.38347
0.159208
-0.157224
-1.61044
1.60846
0.153806
-0.149204
-1.57149
1.56689
0.144621
-0.139538
-1.29057
1.28548
0.135106
-0.130629
-1.0702
1.06572
0.126701
-0.122035
-0.893612
0.888946
0.116739
-0.108324
-0.730055
0.72164
0.0972176
-0.081823
-0.537355
0.521961
0.065948
-0.048388
-0.3218
0.30424
0.0337395
-0.0203777
-0.146492
0.13313
0.0112087
-0.00450004
-0.0444069
0.0376982
0.00114073
-0.00332697
0.00218624
-0.0686956
0.0728084
-0.00411286
0.0290795
-0.0427909
-0.333609
0.34732
0.0566529
-0.068087
-0.495354
0.506788
0.0782631
-0.0877269
-0.635453
0.644917
0.0982216
-0.107739
-0.759255
0.768772
0.118261
-0.1276
-0.883727
0.893066
0.137486
-0.146198
-1.02688
1.03559
0.155159
-0.162676
-1.19252
1.20003
0.169891
-0.175336
-1.38357
1.38901
0.179675
-0.181797
-1.60521
1.60733
0.181654
-0.179789
-1.56119
1.55933
0.176896
-0.172991
-1.27947
1.27556
0.169446
-0.165334
-1.05985
1.05574
0.161798
-0.157049
-0.882482
0.877733
0.149997
-0.137873
-0.711421
0.699297
0.121585
-0.0998411
-0.505756
0.484012
0.0784224
-0.0555369
-0.286552
0.263666
0.0374386
-0.0217757
-0.120387
0.104724
0.0115596
-0.00449024
-0.031568
0.0244986
0.00112168
-0.00114672
2.5037e-05
-0.0799332
0.0781167
0.00181644
0.00748669
-0.0165177
-0.363865
0.372896
0.0270325
-0.0351064
-0.522936
0.53101
0.0432412
-0.0512651
-0.656803
0.664827
0.0609459
-0.0698768
-0.777972
0.786903
0.0793139
-0.0878961
-0.901861
0.910443
0.0969361
-0.104556
-1.044
1.05162
0.112562
-0.118896
-1.20732
1.21366
0.12488
-0.129044
-1.39408
1.39824
0.13167
-0.132243
-1.6085
1.60907
0.13054
-0.127084
-1.55656
1.5531
0.122604
-0.117001
-1.27095
1.26535
0.111787
-0.106003
-1.04982
1.04404
0.100669
-0.0943467
-0.868248
0.861926
0.0871763
-0.0766307
-0.683231
0.672685
0.0645011
-0.0499213
-0.460755
0.446175
0.0369434
-0.0246299
-0.241026
0.228712
0.0158479
-0.00886966
-0.0899533
0.0829751
0.00460872
-0.0017724
-0.0178791
0.0150427
0.000397227
0.00104008
-0.00143731
-0.0813938
0.0785295
0.00286427
-0.00165467
-0.00359803
-0.384292
0.389544
0.0107614
-0.0166177
-0.543275
0.549131
0.0226761
-0.0296665
-0.674889
0.681879
0.0380343
-0.0457869
-0.794975
0.802728
0.0542021
-0.0616858
-0.918289
0.925773
0.0693139
-0.0760909
-1.05904
1.06582
0.0829873
-0.0885034
-1.21953
1.22504
0.0932185
-0.0962024
-1.40168
1.40466
0.0978373
-0.0972657
-1.60883
1.60826
0.0944296
-0.0898408
-1.54889
1.5443
0.0844669
-0.0781335
-1.25939
1.25306
0.0718792
-0.065162
-1.03693
1.03022
0.0589186
-0.0517641
-0.852415
0.84526
0.0448999
-0.0361353
-0.658623
0.649858
0.0273829
-0.0182495
-0.42972
0.420587
0.0116821
-0.00674508
-0.215712
0.210775
0.00395937
-0.002205
-0.0758918
0.0741374
0.00125371
-0.00058703
-0.0121411
0.0114744
8.26634e-05
0.00199093
-0.0020736
-0.0801692
0.0774663
0.00270289
-0.00524026
0.00270113
-0.397924
0.400463
0.00192413
-0.00635943
-0.558324
0.562759
0.011478
-0.0173296
-0.689824
0.695675
0.0244828
-0.0311284
-0.809865
0.81651
0.0383269
-0.0447521
-0.932739
0.939164
0.051678
-0.0574199
-1.07216
1.07791
0.0634311
-0.0677554
-1.23013
1.23445
0.0716822
-0.0739829
-1.40738
1.40968
0.0747337
-0.0731919
-1.60716
1.60562
0.0698438
-0.0647985
-1.53906
1.53401
0.0590363
-0.051941
-1.24636
1.23926
0.0452941
-0.038053
-1.02253
1.01529
0.0311771
-0.023977
-0.835661
0.828461
0.0174403
-0.0103998
-0.638026
0.630985
0.00434633
0.000364982
-0.410115
0.405404
-0.00250806
0.00309823
-0.203909
0.203319
-0.00273478
0.00177253
-0.0712982
0.0722604
-0.000957215
0.000293524
-0.0104273
0.011091
-0.000182095
0.00243953
-0.00225743
-0.0787043
0.0763137
0.00239058
-0.00634731
0.00539562
-0.40703
0.407982
-0.00199461
-0.00123689
-0.570383
0.573614
0.00539888
-0.0107022
-0.702344
0.707647
0.0167158
-0.0225553
-0.822467
0.828306
0.0287992
-0.0343878
-0.94515
0.950739
0.0403329
-0.0454439
-1.08351
1.08862
0.0505125
-0.0544584
-1.23862
1.24257
0.0577423
-0.0595212
-1.41159
1.41337
0.0597857
-0.0578858
-1.60387
1.60197
0.0542906
-0.0488737
-1.52828
1.52286
0.0429962
-0.035921
-1.23208
1.225
0.0291208
-0.021476
-1.0073
0.999657
0.0144906
-0.00714759
-0.819096
0.811753
0.0010385
0.00455379
-0.621221
0.615629
-0.00855439
0.0106954
-0.398269
0.396128
-0.0105961
0.00902209
-0.200213
0.201787
-0.00699868
0.00462194
-0.072255
0.0746317
-0.00268339
0.00107595
-0.0114493
0.0130567
-0.00034945
0.0023457
-0.00199625
-0.0773508
0.0753064
0.00204439
-0.0062125
0.00575611
-0.413299
0.413756
-0.00373057
0.00113407
-0.579688
0.582285
0.0029467
-0.0074822
-0.712956
0.717491
0.0126601
-0.0177395
-0.833364
0.838443
0.023308
-0.0283168
-0.955989
0.960998
0.0337675
-0.0382457
-1.09346
1.09794
0.0427995
-0.0463333
-1.24622
1.24976
0.0491797
-0.0506331
-1.41488
1.41633
0.0506118
-0.0489089
-1.59998
1.59828
0.0451958
-0.039903
-1.51701
1.51172
0.0340318
-0.0269909
-1.21772
1.21068
0.0204862
-0.0128587
-0.991673
0.984045
0.00599012
0.000982267
-0.803095
0.796122
-0.00658366
0.011255
-0.607264
0.602593
-0.0142373
0.0154799
-0.391042
0.3898
-0.0143242
0.0117972
-0.200873
0.203401
-0.0091918
0.00616983
-0.0761278
0.0791498
-0.003668
0.00156503
-0.0143581
0.016461
-0.000448073
0.00178828
-0.0013402
-0.0763344
0.0747455
0.00158896
-0.0053279
0.0051939
-0.417983
0.418117
-0.00356066
0.00159665
-0.587809
0.589773
0.00223756
-0.00634294
-0.722149
0.726254
0.0112651
-0.0156504
-0.843129
0.847514
0.0205562
-0.025008
-0.96598
0.970432
0.03019
-0.0342649
-1.10245
1.10652
0.0383116
-0.0416614
-1.2531
1.25645
0.0446703
-0.0459845
-1.4178
1.41912
0.046025
-0.0442645
-1.59618
1.59442
0.0409375
-0.0355693
-1.50622
1.50085
0.0300929
-0.0235547
-1.20354
1.197
0.0173104
-0.0103635
-0.976468
0.969521
0.00389511
0.0028037
-0.788052
0.781353
-0.00785741
0.0122106
-0.594928
0.590575
-0.0148606
0.015812
-0.385866
0.384915
-0.0148491
0.0124408
-0.20331
0.205718
-0.00976944
0.00663978
-0.0812604
0.08439
-0.00401265
0.00176165
-0.0181153
0.0203663
-0.000493763
0.000989295
-0.000495533
-0.0758215
0.0745778
0.00124367
-0.00425505
0.00424112
-0.421729
0.421743
-0.00279663
0.000921648
-0.594892
0.596767
0.0027797
-0.0064581
-0.730419
0.734098
0.0106869
-0.0149251
-0.85184
0.856078
0.0194644
-0.0240563
-0.974692
0.979284
0.028519
-0.0324193
-1.11069
1.11459
0.0366072
-0.0397328
-1.25969
1.26281
0.0422942
-0.0440453
-1.42035
1.4221
0.0442914
-0.0428441
-1.59272
1.59127
0.0397431
-0.0350743
-1.49574
1.49107
0.0300843
-0.0240942
-1.1903
1.18431
0.0184346
-0.0119812
-0.962501
0.956048
0.0059401
0.00029249
-0.774037
0.767804
-0.00532765
0.00948878
-0.583495
0.579334
-0.0118047
0.0130545
-0.381525
0.380275
-0.0126637
0.010735
-0.205598
0.207526
-0.00854652
0.00588647
-0.086264
0.088924
-0.00361086
0.00161128
-0.0219466
0.0239462
-0.000448356
8.92086e-05
0.000359148
-0.0758345
0.0748014
0.00103317
-0.00298992
0.00273801
-0.425102
0.425354
-0.00151245
-0.000387941
-0.60139
0.60329
0.00385197
-0.0074112
-0.738126
0.741686
0.0114772
-0.0153178
-0.860093
0.863934
0.0199753
-0.0237852
-0.9833
0.98711
0.0282214
-0.0319518
-1.11864
1.12237
0.036044
-0.0393865
-1.26593
1.26927
0.0422612
-0.0438293
-1.42362
1.42519
0.044464
-0.043496
-1.58979
1.58882
0.0411614
-0.0369908
-1.48641
1.48224
0.0326167
-0.0271958
-1.17857
1.17315
0.0220334
-0.0159824
-0.949425
0.943374
0.0104688
-0.00455566
-0.760955
0.755042
-0.000407777
0.00464575
-0.572971
0.568733
-0.00718618
0.00849692
-0.376697
0.375386
-0.00875658
0.00770435
-0.206953
0.208005
-0.00629773
0.00442316
-0.0902164
0.092091
-0.00276292
0.00128289
-0.0251253
0.0266054
-0.000381841
-0.000677611
0.00105945
-0.0761283
0.0754132
0.000715042
-0.00185171
0.00118174
-0.428579
0.429249
-0.000158983
-0.0020316
-0.607099
0.609289
0.00511884
-0.00853927
-0.745322
0.748742
0.0124421
-0.0164134
-0.867625
0.871597
0.0204592
-0.024432
-0.991122
0.995095
0.0288403
-0.0323795
-1.12653
1.13007
0.0365834
-0.0399049
-1.27242
1.27574
0.0428712
-0.0450042
-1.42717
1.42931
0.0461908
-0.0456058
-1.58794
1.58736
0.0436473
-0.0403146
-1.47834
1.47501
0.0365616
-0.0315541
-1.16769
1.16268
0.0266773
-0.0212562
-0.937278
0.931857
0.0158188
-0.0104933
-0.748611
0.743286
0.00580653
-0.00127399
-0.562987
0.558454
-0.00159385
0.00349281
-0.371278
0.369379
-0.00423844
0.00414513
-0.206988
0.207081
-0.00349825
0.00253637
-0.0925513
0.0935132
-0.00166598
0.000817375
-0.0272476
0.0280962
-0.00026192
-0.00125285
0.00151477
-0.0768406
0.0762814
0.000559276
-0.000888771
0.000331659
-0.432283
0.432841
0.00141288
-0.00340801
-0.613049
0.615045
0.00664261
-0.00993791
-0.752017
0.755312
0.0136941
-0.0172685
-0.875225
0.8788
0.0214413
-0.0251085
-0.999069
1.00274
0.0294809
-0.0334704
-1.13406
1.13805
0.0373406
-0.0410141
-1.27911
1.28278
0.0444308
-0.046697
-1.43135
1.43362
0.0483212
-0.0485938
-1.58704
1.58731
0.0471442
-0.0444576
-1.4716
1.46891
0.0409082
-0.0363682
-1.15775
1.15321
0.0319817
-0.0269196
-0.926108
0.921046
0.0220966
-0.0170623
-0.737265
0.732231
0.0124834
-0.00769856
-0.552692
0.547908
0.00422239
-0.00174699
-0.365058
0.362582
0.000293188
0.00045164
-0.205372
0.204627
-0.000701481
0.000684063
-0.0931088
0.0931262
-0.000543608
0.000326325
-0.0281363
0.0283536
-0.000126272
-0.00158098
0.00170725
-0.077823
0.0774501
0.000372864
0.000151863
-0.000973178
-0.436087
0.436908
0.00255733
-0.00487103
-0.618561
0.620875
0.00803311
-0.0111713
-0.758485
0.761624
0.015013
-0.0184393
-0.882339
0.885766
0.0224627
-0.0262626
-1.00688
1.01068
0.0305547
-0.034528
-1.14189
1.14586
0.0386403
-0.0423621
-1.28638
1.2901
0.0459943
-0.0490396
-1.43618
1.43923
0.0511554
-0.0517605
-1.58754
1.58815
0.051
-0.0486017
-1.46612
1.46372
0.045593
-0.0416541
-1.14867
1.14473
0.0375055
-0.032946
-0.915845
0.911286
0.0285369
-0.02357
-0.726646
0.721679
0.0190155
-0.0138773
-0.542265
0.537127
0.00994466
-0.00662918
-0.357884
0.354569
0.00449808
-0.00287945