/*--------------------------------*- C++ -*----------------------------------*\
| =========                 |                                                 |
| \\      /  F ield         | OpenFOAM: The Open Source CFD Toolbox           |
|  \\    /   O peration     | Version:  4.0                                   |
|   \\  /    A nd           | Web:      www.OpenFOAM.org                      |
|    \\/     M anipulation  |                                                 |
\*---------------------------------------------------------------------------*/
FoamFile
{
    version     2.0;
    format      ascii;
    class       volScalarField;
    location    "11";
    object      p;
}
// * * * * * * * * * * * * * * * * * * * * * * * * * * * * * * * * * * * * * //

dimensions      [0 2 -2 0 0 0 0];

internalField   nonuniform List<scalar> 
2200
(
0.434044
0.412585
0.396812
0.381215
0.366863
0.354752
0.34474
0.336992
0.331527
0.328716
0.328936
0.332182
0.33795
0.345922
0.356096
0.368323
0.382753
0.398397
0.414198
0.435671
0.366295
0.363115
0.360404
0.356592
0.351564
0.345359
0.339035
0.333418
0.329109
0.326712
0.326958
0.329815
0.334446
0.340299
0.346787
0.353097
0.358199
0.362067
0.364815
0.368008
0.325346
0.325814
0.328403
0.330359
0.331379
0.331011
0.329535
0.327168
0.324771
0.323129
0.323459
0.325576
0.328308
0.330928
0.332586
0.333086
0.332163
0.33027
0.327722
0.327272
0.30218
0.303772
0.306919
0.309929
0.312965
0.315601
0.317437
0.318185
0.318239
0.317982
0.318306
0.319095
0.319456
0.319009
0.317398
0.314918
0.311988
0.309057
0.305969
0.304387
0.289145
0.290892
0.294094
0.297455
0.300558
0.3036
0.306245
0.308408
0.309972
0.31093
0.311279
0.310999
0.309994
0.308192
0.305782
0.302901
0.299898
0.296603
0.293454
0.291719
0.285414
0.286684
0.289146
0.292085
0.295068
0.297729
0.299885
0.301867
0.303539
0.304798
0.305256
0.304833
0.303794
0.302271
0.300394
0.297926
0.295089
0.292229
0.289803
0.288543
0.28675
0.287399
0.288803
0.291003
0.293422
0.295547
0.297346
0.298981
0.300368
0.301441
0.30197
0.301819
0.301154
0.300092
0.298705
0.296876
0.294658
0.292583
0.291218
0.290569
0.288183
0.288406
0.28899
0.290126
0.291554
0.293047
0.294605
0.296075
0.297383
0.298464
0.299117
0.299159
0.298742
0.297966
0.296942
0.295808
0.294607
0.293618
0.293096
0.29287
0.286821
0.286885
0.286982
0.287337
0.287917
0.28867
0.289767
0.291098
0.292448
0.293717
0.294653
0.294963
0.294777
0.294236
0.293679
0.293288
0.292942
0.292736
0.292702
0.292655
0.283529
0.283505
0.283553
0.283735
0.284071
0.284529
0.285239
0.28622
0.287429
0.288771
0.289967
0.290695
0.29089
0.290877
0.290851
0.290828
0.290792
0.290793
0.290836
0.290845
0.280018
0.280006
0.280137
0.280413
0.280828
0.281357
0.282065
0.282979
0.284139
0.285539
0.286898
0.287962
0.288605
0.288965
0.289165
0.289264
0.28926
0.289235
0.28923
0.28923
0.27648
0.276513
0.276621
0.276858
0.277391
0.277963
0.27878
0.279844
0.2812
0.282846
0.284517
0.28584
0.286808
0.287414
0.287755
0.287939
0.288012
0.288037
0.288047
0.288046
0.272362
0.272374
0.272504
0.272731
0.273121
0.273715
0.274596
0.275817
0.277444
0.279488
0.281669
0.28342
0.284687
0.285528
0.286073
0.286428
0.286649
0.286786
0.286856
0.286858
0.267526
0.267523
0.267674
0.267927
0.268341
0.268994
0.269974
0.271383
0.273328
0.275856
0.278648
0.280963
0.282588
0.283765
0.284563
0.285097
0.285443
0.285659
0.285768
0.285775
0.262091
0.262094
0.262264
0.262599
0.263131
0.263942
0.265147
0.266874
0.269267
0.272414
0.27592
0.278882
0.281038
0.282573
0.283599
0.284284
0.284721
0.284983
0.285109
0.285116
0.256019
0.256029
0.256245
0.256673
0.25736
0.258397
0.259922
0.262096
0.265101
0.269058
0.273469
0.277226
0.279978
0.281887
0.283183
0.284044
0.284593
0.284921
0.285077
0.285081
0.249183
0.249201
0.249469
0.249985
0.250828
0.252128
0.254049
0.256802
0.260602
0.2656
0.271155
0.275875
0.279313
0.281711
0.283344
0.284424
0.285112
0.285521
0.285715
0.28572
0.241115
0.241139
0.241499
0.242184
0.243285
0.244951
0.247398
0.250893
0.255711
0.262024
0.269004
0.274908
0.279196
0.282196
0.284238
0.285594
0.286466
0.286992
0.287242
0.287246
0.231758
0.231785
0.232225
0.233071
0.234463
0.236612
0.239767
0.244261
0.250407
0.258393
0.26714
0.274497
0.279828
0.283556
0.286092
0.287767
0.288836
0.289466
0.289763
0.289765
0.220311
0.220377
0.221007
0.222182
0.22404
0.226848
0.23094
0.236736
0.244597
0.254689
0.265607
0.274722
0.281312
0.285917
0.289049
0.291125
0.292462
0.293268
0.293653
0.293658
0.206599
0.206647
0.207426
0.208945
0.211417
0.215172
0.220594
0.228169
0.23826
0.250988
0.264543
0.275768
0.283872
0.289551
0.293425
0.295999
0.297644
0.298612
0.299059
0.29905
0.189235
0.189417
0.190602
0.192778
0.196173
0.201209
0.20845
0.218388
0.23135
0.247328
0.264023
0.27773
0.287619
0.29457
0.299333
0.302509
0.304561
0.305801
0.306389
0.306395
0.167532
0.167688
0.169271
0.172351
0.177203
0.184301
0.19417
0.207298
0.223905
0.243816
0.264199
0.280783
0.292757
0.301242
0.307136
0.31114
0.313746
0.315291
0.316002
0.315962
0.138607
0.139262
0.141926
0.146639
0.153865
0.163974
0.177581
0.194968
0.21611
0.24068
0.265275
0.285101
0.299436
0.309692
0.31692
0.321896
0.325225
0.327286
0.32827
0.328221
0.100564
0.101497
0.10587
0.113765
0.125044
0.139928
0.158716
0.181485
0.208109
0.23804
0.267299
0.290662
0.307601
0.319865
0.328727
0.335072
0.33946
0.342261
0.343673
0.343473
0.0498202
0.0505746
0.058885
0.0723149
0.0904568
0.112224
0.137812
0.167286
0.200325
0.236225
0.270502
0.297615
0.317361
0.331871
0.342556
0.350456
0.356231
0.359997
0.361501
0.361145
-0.021015
-0.0162304
0.00219
0.0254474
0.052376
0.0822947
0.115791
0.15284
0.192935
0.235487
0.275459
0.307033
0.330359
0.347945
0.361396
0.371761
0.379894
0.386234
0.388998
0.38909
-0.105866
-0.0887567
-0.0567564
-0.022656
0.0134492
0.051984
0.0938275
0.138542
0.185895
0.235513
0.281826
0.318629
0.346277
0.367654
0.384627
0.398391
0.409431
0.418028
0.425441
0.426601
-0.170184
-0.152079
-0.111301
-0.0694586
-0.0246556
0.0227343
0.0727545
0.124922
0.17942
0.235825
0.288072
0.329511
0.360665
0.384788
0.403837
0.419243
0.431884
0.441123
0.447626
0.448653
-0.21802
-0.201683
-0.156958
-0.110612
-0.0590026
-0.0041692
0.0528918
0.111987
0.173191
0.235839
0.293349
0.338509
0.372044
0.397634
0.417479
0.432982
0.445753
0.454948
0.461168
0.462295
-0.257286
-0.240959
-0.194286
-0.145314
-0.0885033
-0.0282513
0.0344639
0.0996171
0.166709
0.234869
0.296885
0.344963
0.38012
0.406501
0.426696
0.442191
0.454813
0.463917
0.47043
0.471276
-0.290868
-0.274213
-0.225249
-0.174149
-0.113594
-0.049711
0.0174535
0.0876567
0.159809
0.232951
0.299109
0.349843
0.386444
0.41354
0.4341
0.449768
0.462313
0.471395
0.477657
0.478789
-0.320213
-0.303614
-0.25214
-0.198662
-0.135235
-0.0688683
0.00182893
0.0761886
0.152759
0.230513
0.300623
0.353961
0.3921
0.42006
0.441042
0.456935
0.469416
0.478501
0.484608
0.485711
-0.346606
-0.330217
-0.277041
-0.220891
-0.154879
-0.0862771
-0.0125433
0.0652942
0.145776
0.227833
0.301874
0.357992
0.397741
0.426543
0.447928
0.464023
0.476462
0.485541
0.491512
0.492521
-0.370892
-0.354473
-0.300713
-0.242183
-0.173801
-0.10279
-0.0261651
0.0547342
0.138773
0.224886
0.302811
0.361676
0.403113
0.432923
0.454792
0.471076
0.483529
0.492587
0.498443
0.499391
-0.393585
-0.376638
-0.322931
-0.262673
-0.192501
-0.119094
-0.0397145
0.0440168
0.131361
0.221251
0.302965
0.364893
0.408378
0.439339
0.461814
0.478461
0.490952
0.500028
0.50578
0.506666
-0.414611
-0.39764
-0.343559
-0.282201
-0.210822
-0.135373
-0.0535624
0.0328066
0.123294
0.216919
0.302748
0.368021
0.41372
0.446074
0.469281
0.486152
0.498732
0.507707
0.51343
0.51438
-0.434612
-0.41762
-0.363065
-0.300882
-0.22856
-0.151492
-0.0676615
0.0211065
0.114565
0.211783
0.301491
0.370164
0.418622
0.45274
0.476986
0.494493
0.50727
0.516264
0.521932
0.522744
-0.454297
-0.436806
-0.381924
-0.318966
-0.245729
-0.167329
-0.0818343
0.00902754
0.105137
0.205627
0.299234
0.371908
0.42359
0.460089
0.485562
0.503548
0.516387
0.525298
0.530858
0.531668
-0.47379
-0.455518
-0.400376
-0.336621
-0.262467
-0.182903
-0.096
-0.00334221
0.0951222
0.198765
0.296492
0.37304
0.427955
0.466907
0.494209
0.513053
0.526321
0.535286
0.540561
0.541199
-0.492874
-0.473923
-0.41845
-0.353905
-0.278894
-0.198292
-0.110163
-0.0159451
0.0845965
0.191039
0.292129
0.372653
0.431694
0.474273
0.503896
0.523994
0.537282
0.545671
0.550717
0.551187
-0.511354
-0.49195
-0.436073
-0.370798
-0.295036
-0.21353
-0.124337
-0.0287793
0.0734981
0.182277
0.286747
0.371375
0.434416
0.480782
0.513644
0.535523
0.549248
0.557631
0.561843
0.561787
-0.529158
-0.509449
-0.453143
-0.38724
-0.310844
-0.228581
-0.138495
-0.0418172
0.0619487
0.172871
0.280553
0.368745
0.435868
0.486481
0.523514
0.548829
0.563819
0.57039
0.572428
0.571632
-0.546263
-0.526318
-0.469581
-0.40315
-0.32623
-0.24336
-0.152557
-0.0549564
0.0500851
0.162809
0.272747
0.364304
0.435764
0.491349
0.533596
0.563531
0.580907
0.586152
0.584074
0.580748
-0.562639
-0.542508
-0.48534
-0.418466
-0.341114
-0.257772
-0.166414
-0.0680738
0.0379712
0.152073
0.263998
0.358276
0.433207
0.493923
0.542248
0.578912
0.602372
0.607174
0.598661
0.602457
-0.578244
-0.557998
-0.500387
-0.433138
-0.35543
-0.271726
-0.179959
-0.0810865
0.0257342
0.140918
0.254441
0.350619
0.428801
0.493638
0.54786
0.592559
0.627456
0.633742
0.595904
0.539524
-0.593025
-0.572772
-0.514769
-0.447247
-0.369285
-0.285357
-0.193369
-0.0941972
0.0131275
0.129089
0.243517
0.340821
0.421106
0.489586
0.549232
0.602624
0.652359
0.692245
0.726833
0.78079
-0.607049
-0.58686
-0.528582
-0.460935
-0.38286
-0.298892
-0.20691
-0.107713
-0.000245487
0.116054
0.230655
0.327981
0.408956
0.480331
0.540529
0.591301
0.629909
0.661144
0.65576
0.65826
-0.620343
-0.600278
-0.541803
-0.474162
-0.396087
-0.312244
-0.220462
-0.1215
-0.0141929
0.101996
0.216184
0.312826
0.391442
0.460852
0.518902
0.560261
0.569455
0.541196
0.493574
0.488213
-0.63291
-0.613078
-0.554438
-0.48694
-0.408963
-0.32541
-0.234004
-0.135503
-0.0287288
0.086882
0.199982
0.294701
0.370179
0.432171
0.482624
0.497641
0.465989
0.399282
0.327931
0.322248
-0.644743
-0.625261
-0.566508
-0.49929
-0.421503
-0.338391
-0.247522
-0.149714
-0.0438012
0.0708116
0.181972
0.273765
0.342666
0.391397
0.415903
0.400807
0.353082
0.24741
0.155421
0.141163
-0.656233
-0.637205
-0.578367
-0.511539
-0.434025
-0.35147
-0.261284
-0.164361
-0.0595006
0.0538988
0.162613
0.250466
0.310842
0.342348
0.330232
0.283983
0.173134
0.0415833
-0.0743854
-0.0963416
-0.668159
-0.649569
-0.590633
-0.524222
-0.447042
-0.365087
-0.27567
-0.179725
-0.0761011
0.0357483
0.141722
0.224301
0.276533
0.284175
0.230163
0.129653
-0.0472578
-0.214465
-0.351154
-0.376009
-0.680946
-0.662692
-0.603537
-0.537519
-0.460692
-0.379339
-0.290759
-0.195918
-0.0937266
0.0162491
0.119205
0.195147
0.233867
0.213553
0.125328
-0.0490432
-0.284755
-0.525603
-0.723932
-0.772796
-0.694595
-0.676569
-0.617064
-0.551422
-0.474921
-0.39418
-0.306507
-0.212894
-0.1122
-0.00416793
0.0953654
0.164999
0.184212
0.1242
-0.00392008
-0.238252
-0.523369
-0.868679
-1.23565
-1.37415
-0.709111
-0.691268
-0.63122
-0.56599
-0.48973
-0.409615
-0.322923
-0.230629
-0.131511
-0.0257627
0.0705206
0.133154
0.132371
0.0289504
-0.159074
-0.437113
-0.743198
-1.17153
-1.84419
-2.46143
-0.724432
-0.70674
-0.645963
-0.581253
-0.505058
-0.4256
-0.339931
-0.249135
-0.151705
-0.0481316
0.0453504
0.0999676
0.0815813
-0.0609363
-0.315014
-0.646691
-0.938727
-1.27569
-1.98951
-3.79613
-0.740518
-0.723007
-0.661241
-0.597305
-0.52093
-0.442268
-0.357706
-0.268528
-0.172929
-0.07131
0.019498
0.0664308
0.026503
-0.138175
-0.441016
-0.80433
-1.05862
-1.18553
-1.25947
-1.73453
-0.757271
-0.739942
-0.677079
-0.614383
-0.537463
-0.459957
-0.376678
-0.28938
-0.196049
-0.096511
-0.00757951
0.0349642
-0.0320505
-0.199347
-0.517733
-0.862341
-1.08652
-1.15408
-1.1196
-1.16967
-0.774631
-0.757256
-0.693454
-0.632405
-0.554505
-0.478682
-0.396855
-0.311949
-0.221429
-0.124031
-0.0361206
0.00586146
-0.0839216
-0.247222
-0.565597
-0.873177
-1.0759
-1.15711
-1.16859
-1.196
-0.792123
-0.774444
-0.710556
-0.650974
-0.571926
-0.498325
-0.418021
-0.336095
-0.248718
-0.153922
-0.0650643
-0.0188938
-0.131812
-0.305035
-0.614069
-0.870957
-1.04176
-1.0935
-1.12538
-1.1053
-0.809558
-0.791273
-0.728172
-0.669142
-0.589803
-0.518551
-0.439735
-0.362053
-0.277953
-0.186158
-0.0925755
-0.0279512
-0.155659
-0.363511
-0.664402
-0.881127
-1.01599
-1.00146
-1.0381
-1.02704
-0.82623
-0.80761
-0.746095
-0.685848
-0.608362
-0.538764
-0.461378
-0.390227
-0.309281
-0.221225
-0.122984
-0.0338349
-0.166928
-0.433472
-0.731728
-0.87288
-0.918936
-0.941051
-0.958635
-0.970992
-0.84183
-0.822622
-0.763287
-0.700888
-0.626658
-0.557657
-0.48503
-0.418163
-0.344301
-0.262469
-0.163623
-0.0638598
-0.197033
-0.507334
-0.811475
-0.923296
-0.909505
-0.953678
-0.977363
-0.990787
-0.855721
-0.836205
-0.778049
-0.714692
-0.643126
-0.575225
-0.506956
-0.44586
-0.387721
-0.317015
-0.224735
-0.118322
-0.233049
-0.579054
-0.915913
-1.15294
-1.21214
-1.20763
-1.20085
-1.19464
-0.866736
-0.847165
-0.789493
-0.726311
-0.656245
-0.590292
-0.526323
-0.472032
-0.429401
-0.388714
-0.301698
-0.226332
-0.297756
-0.670058
-1.05925
-1.46897
-1.65643
-1.6091
-1.51814
-1.47352
-0.873876
-0.854319
-0.796968
-0.734285
-0.665267
-0.601639
-0.542871
-0.498492
-0.474197
-0.48127
-0.447108
-0.414975
-0.438133
-0.731408
-1.02429
-1.41918
-1.6494
-1.59854
-1.42856
-1.3797
-0.876339
-0.856996
-0.799619
-0.737673
-0.66943
-0.608058
-0.555138
-0.523508
-0.532945
-0.599133
-0.688081
-0.664181
-0.567179
-0.648054
-0.706089
-0.822275
-0.914366
-0.878295
-0.80474
-0.740757
-0.872437
-0.853522
-0.795978
-0.73521
-0.667425
-0.608004
-0.56046
-0.542909
-0.591741
-0.739362
-0.972105
-0.898176
-0.60554
-0.393834
-0.182359
-0.0429282
-0.0139818
0.022457
0.0599875
0.0853863
-0.861201
-0.843431
-0.785861
-0.726006
-0.657884
-0.599858
-0.555605
-0.548354
-0.627302
-0.846149
-1.23262
-1.10429
-0.566601
-0.0873866
0.332725
0.632243
0.740527
0.763524
0.79019
0.803194
-0.842108
-0.825649
-0.76513
-0.712133
-0.637915
-0.583007
-0.538338
-0.532879
-0.616103
-0.831772
-1.32352
-1.19344
-0.375195
0.227771
0.718576
1.01943
1.17571
1.22414
1.24242
1.2485
-0.813809
-0.796953
-0.738591
-0.682809
-0.613697
-0.555078
-0.506801
-0.492574
-0.549631
-0.724154
-1.08456
-0.835209
-0.100701
0.45038
0.887151
1.15309
1.2825
1.33107
1.35217
1.35805
-0.77426
-0.758848
-0.703017
-0.64738
-0.579168
-0.516967
-0.461968
-0.428689
-0.43963
-0.522375
-0.663011
-0.321908
0.205895
0.618154
0.93177
1.11789
1.21241
1.26505
1.29373
1.30318
-0.725595
-0.712577
-0.661109
-0.60435
-0.535792
-0.4715
-0.408789
-0.354386
-0.317541
-0.301535
-0.255233
0.0788589
0.423386
0.709523
0.906722
1.0286
1.10418
1.15338
1.18397
1.19467
-0.670084
-0.660535
-0.610706
-0.553719
-0.487658
-0.422207
-0.352955
-0.282825
-0.211235
-0.126434
0.003548
0.274015
0.510971
0.701873
0.827277
0.91369
0.974688
1.01876
1.04947
1.06044
-0.609419
-0.600203
-0.5519
-0.497475
-0.43591
-0.370076
-0.298618
-0.221236
-0.133361
-0.0173064
0.119054
0.317949
0.487211
0.613509
0.700991
0.7654
0.814291
0.851584
0.879166
0.889768
-0.521233
-0.513386
-0.475543
-0.429631
-0.374773
-0.314391
-0.248776
-0.173742
-0.0871283
0.0222117
0.151159
0.304713
0.426008
0.516742
0.582214
0.630598
0.666863
0.693657
0.713034
0.720201
-0.396614
-0.393114
-0.372258
-0.342678
-0.300188
-0.254055
-0.198995
-0.133828
-0.0561165
0.0411915
0.153777
0.27477
0.368191
0.437939
0.488384
0.524531
0.550841
0.567139
0.579353
0.581761
-0.272284
-0.271155
-0.262784
-0.246386
-0.220213
-0.188169
-0.14713
-0.0953007
-0.0302436
0.0523818
0.146671
0.240778
0.312503
0.365132
0.402233
0.427652
0.444624
0.454695
0.459677
0.461119
-0.167947
-0.167141
-0.163166
-0.155286
-0.14201
-0.123166
-0.0953636
-0.0570386
-0.00612766
0.0602113
0.136638
0.208819
0.263151
0.302251
0.329023
0.346613
0.357877
0.364049
0.368137
0.369964
-0.0875797
-0.0881663
-0.0865016
-0.0827237
-0.0761624
-0.0654621
-0.0482065
-0.0218721
0.015714
0.0668086
0.126658
0.181461
0.222342
0.251299
0.270745
0.283325
0.291373
0.296459
0.299501
0.300264
-0.0323163
-0.0333578
-0.0341358
-0.0331086
-0.0286517
-0.0224361
-0.0114138
0.00682891
0.0339869
0.072656
0.118386
0.159861
0.190526
0.212069
0.22647
0.235664
0.241337
0.244331
0.245435
0.245373
0.0028417
0.00198002
-6.62605e-05
-0.00121013
0.000227834
0.00455689
0.0137884
0.0276532
0.048021
0.0771899
0.111799
0.143085
0.166095
0.182194
0.192818
0.1992
0.202593
0.203771
0.203832
0.203517
0.0235954
0.0229195
0.0210984
0.0194419
0.0196056
0.0224123
0.0291595
0.0401446
0.0563382
0.078883
0.105375
0.129124
0.146547
0.158599
0.166277
0.170529
0.172434
0.172742
0.172464
0.172133
0.0356504
0.0351418
0.0341164
0.0331324
0.0330115
0.0343418
0.038738
0.0468226
0.0595425
0.0773893
0.0981843
0.116546
0.129849
0.138802
0.144253
0.147093
0.148314
0.1485
0.14832
0.148037
0.0434759
0.0430984
0.0425835
0.0421646
0.0422376
0.0431752
0.0460154
0.0515419
0.060917
0.0746796
0.0909261
0.105119
0.115183
0.121756
0.125684
0.127752
0.12869
0.128915
0.128853
0.128631
0.0493086
0.0490396
0.0487556
0.0484797
0.048626
0.0495428
0.0516085
0.0554527
0.0620452
0.0721496
0.0843783
0.095073
0.102546
0.107392
0.11032
0.111904
0.112604
0.112759
0.112729
0.112555
0.052972
0.0527653
0.0525058
0.0521165
0.0521004
0.0527991
0.0544074
0.0573869
0.06218
0.0695108
0.0784517
0.0863364
0.0918633
0.0954945
0.0976853
0.0988535
0.0993084
0.0993477
0.0992963
0.0991543
0.0540709
0.0538988
0.0536358
0.0531784
0.0530185
0.053404
0.0545225
0.0568492
0.06053
0.0660826
0.072724
0.0785744
0.0827044
0.0854256
0.0870194
0.0878387
0.0881147
0.0880841
0.088019
0.0879015
0.0531595
0.0530252
0.0528078
0.0524105
0.0522395
0.0524367
0.053147
0.0548426
0.0576135
0.0618978
0.0669675
0.071406
0.074507
0.0765214
0.0776644
0.0782377
0.0784138
0.0783663
0.0783068
0.0782131
0.0510483
0.0509537
0.0507988
0.0505101
0.050393
0.0505301
0.0510081
0.0522172
0.05422
0.0574434
0.0612878
0.0646502
0.0669652
0.0684502
0.0692776
0.0696885
0.0698073
0.0697613
0.0697116
0.0696395
0.0481922
0.0481279
0.0480152
0.0478087
0.0477297
0.04784
0.0481933
0.0490862
0.0505328
0.052909
0.0557632
0.0582633
0.0599725
0.0610641
0.0616682
0.0619638
0.0620417
0.0619978
0.0619545
0.0618979
0.0447293
0.0446825
0.0445927
0.0444404
0.044377
0.0444565
0.0447177
0.0453886
0.046456
0.048211
0.0503131
0.0521611
0.0534225
0.0542251
0.0546628
0.0548688
0.0549132
0.0548681
0.0548281
0.0547839
0.0407978
0.0407619
0.0406883
0.0405755
0.0405225
0.0405766
0.0407647
0.0412616
0.0420557
0.043365
0.0449233
0.0462896
0.0472177
0.0478026
0.0481153
0.0482551
0.0482769
0.0482341
0.0481982
0.0481629
0.0365316
0.0365048
0.0364466
0.0363637
0.0363198
0.0363549
0.0364886
0.0368491
0.0374335
0.0384048
0.0395634
0.0405716
0.0412484
0.0416715
0.041895
0.0419907
0.0419998
0.0419623
0.0419318
0.0419035
0.0320183
0.0319971
0.0319525
0.0318931
0.0318595
0.0318833
0.0319792
0.0322382
0.0326643
0.033374
0.0342278
0.0349678
0.0354618
0.0357672
0.035924
0.0359856
0.0359841
0.0359492
0.0359228
0.0359008
0.0273435
0.0273277
0.0272927
0.0272471
0.0272196
0.0272347
0.0273043
0.0274904
0.0278013
0.0283166
0.0289338
0.0294675
0.0298213
0.0300355
0.0301425
0.0301806
0.0301735
0.030143
0.0301207
0.0301034
0.0225377
0.0225253
0.0224976
0.0224619
0.0224377
0.0224437
0.0224906
0.0226201
0.0228412
0.0232092
0.0236517
0.0240298
0.0242779
0.0244279
0.0245011
0.0245238
0.0245139
0.0244875
0.0244689
0.0244549
0.0176331
0.0176233
0.0176005
0.0175715
0.0175511
0.0175514
0.0175801
0.0176652
0.0178164
0.0180692
0.0183784
0.0186417
0.0188133
0.0189131
0.0189572
0.0189661
0.0189528
0.0189284
0.0189124
0.0189017
0.0126536
0.0126471
0.0126312
0.0126095
0.012593
0.0125906
0.0126083
0.0126624
0.0127598
0.0129233
0.0131241
0.0132952
0.0134047
0.0134653
0.0134898
0.0134915
0.0134788
0.0134591
0.0134466
0.013439
0.0076254
0.00761994
0.00760769
0.00759174
0.00757916
0.00757492
0.00758103
0.00760846
0.00766364
0.00775824
0.0078755
0.007973
0.00803328
0.00806454
0.00807584
0.00807487
0.00806466
0.00804971
0.00804007
0.0080337
0.00255645
0.00255383
0.00254647
0.00253721
0.00253096
0.00252873
0.00253005
0.00253959
0.00255671
0.00258564
0.00262241
0.0026528
0.00267232
0.00268383
0.00268741
0.0026863
0.00268097
0.00267233
0.00266732
0.00266422
-1.70444
-0.730289
-0.449432
-0.133481
0.0839539
0.273385
0.435046
0.599228
0.773438
0.854089
-0.610329
-0.141337
-0.0949672
0.116842
0.270727
0.408567
0.529817
0.635976
0.676271
0.628141
-0.158165
0.0897324
0.15191
0.299414
0.408118
0.505765
0.587014
0.647363
0.656926
0.665808
0.117217
0.285708
0.328903
0.446933
0.516594
0.585616
0.638865
0.675954
0.687968
0.709952
0.325711
0.443905
0.472778
0.559566
0.606198
0.655472
0.692388
0.719059
0.730712
0.761245
0.484973
0.566061
0.59627
0.650299
0.68918
0.723226
0.750308
0.772172
0.788261
0.815476
0.616246
0.6729
0.700284
0.733337
0.764241
0.790174
0.811863
0.832033
0.84732
0.87322
0.72682
0.767758
0.790762
0.813553
0.836414
0.857309
0.875581
0.894095
0.909078
0.932659
0.826427
0.856899
0.87474
0.890751
0.907805
0.924541
0.940669
0.958481
0.972455
0.994809
0.917548
0.938929
0.9543
0.967709
0.981757
0.996212
1.01033
1.02557
1.03741
1.05714
1.0049
1.02079
1.03495
1.04733
1.05975
1.07165
1.0829
1.09454
1.10229
1.11913
1.09123
1.10441
1.11822
1.13009
1.14081
1.15049
1.15911
1.16709
1.1706
1.18195
1.18047
1.19119
1.20508
1.21453
1.22209
1.22936
1.23654
1.24314
1.24421
1.25153
1.27894
1.28384
1.29201
1.29685
1.30011
1.30455
1.31055
1.31836
1.32215
1.33194
1.39265
1.37923
1.37171
1.3658
1.3631
1.36447
1.37095
1.38344
1.39817
1.42781
1.51336
1.45747
1.42659
1.40946
1.40138
1.40149
1.41026
1.42962
1.46156
1.53072
)
;

boundaryField
{
    wall-4
    {
        type            zeroGradient;
    }
    pressure-outlet-7
    {
        type            fixedValue;
        value           uniform 0;
    }
    velocity-inlet-6
    {
        type            zeroGradient;
    }
    velocity-inlet-5
    {
        type            zeroGradient;
    }
    frontAndBackPlanes
    {
        type            empty;
    }
}


// ************************************************************************* //
