/*--------------------------------*- C++ -*----------------------------------*\
| =========                 |                                                 |
| \\      /  F ield         | OpenFOAM: The Open Source CFD Toolbox           |
|  \\    /   O peration     | Version:  4.0                                   |
|   \\  /    A nd           | Web:      www.OpenFOAM.org                      |
|    \\/     M anipulation  |                                                 |
\*---------------------------------------------------------------------------*/
FoamFile
{
    version     2.0;
    format      ascii;
    class       volVectorField;
    location    "11";
    object      U;
}
// * * * * * * * * * * * * * * * * * * * * * * * * * * * * * * * * * * * * * //

dimensions      [0 1 -1 0 0 0 0];

internalField   nonuniform List<vector> 
2200
(
(0.879788 -0.0300355 0)
(1.00619 -0.0512318 0)
(1.00268 -0.0346422 0)
(0.999954 -0.024197 0)
(1.00042 -0.0169095 0)
(0.999918 -0.0108842 0)
(0.999541 -0.00709428 0)
(0.999839 -0.00439158 0)
(1.00007 -0.00243662 0)
(1.00019 -0.000718539 0)
(1.00011 0.000852615 0)
(1.00004 0.00258847 0)
(0.999781 0.00448248 0)
(0.999481 0.00715288 0)
(0.999912 0.0109368 0)
(1.00045 0.0169442 0)
(0.99998 0.0242363 0)
(1.0027 0.0346785 0)
(1.0062 0.0512435 0)
(0.879787 0.03005 0)
(0.713149 -0.0333231 0)
(0.997472 -0.0624107 0)
(1.03373 -0.0559988 0)
(1.02438 -0.0454692 0)
(1.0152 -0.0343741 0)
(1.01016 -0.0250515 0)
(1.00672 -0.0170131 0)
(1.00408 -0.0104584 0)
(1.00262 -0.00530557 0)
(1.00199 -0.00142629 0)
(1.002 0.00188077 0)
(1.0026 0.00572868 0)
(1.00408 0.0109005 0)
(1.00676 0.0174639 0)
(1.01014 0.025457 0)
(1.01515 0.0347239 0)
(1.02431 0.0457123 0)
(1.03363 0.0561516 0)
(0.997366 0.0625363 0)
(0.71302 0.0333519 0)
(0.534149 -0.0229254 0)
(0.971683 -0.0561169 0)
(1.05783 -0.0530023 0)
(1.05285 -0.0464726 0)
(1.03519 -0.0373873 0)
(1.02306 -0.0295804 0)
(1.01486 -0.0214708 0)
(1.00981 -0.0142976 0)
(1.00675 -0.00800077 0)
(1.00554 -0.00245085 0)
(1.00539 0.0033585 0)
(1.00663 0.00891256 0)
(1.00966 0.0150628 0)
(1.01461 0.0220726 0)
(1.02278 0.0300133 0)
(1.03491 0.0377182 0)
(1.05258 0.0467638 0)
(1.05757 0.0532842 0)
(0.971301 0.0562793 0)
(0.533602 0.0229689 0)
(0.402635 -0.011221 0)
(0.915899 -0.0423029 0)
(1.06151 -0.0433004 0)
(1.07268 -0.040454 0)
(1.05686 -0.0345852 0)
(1.0398 -0.0283561 0)
(1.02671 -0.0223384 0)
(1.01762 -0.016315 0)
(1.01186 -0.00974282 0)
(1.00967 -0.00296644 0)
(1.00954 0.00439562 0)
(1.01164 0.0108737 0)
(1.01731 0.0172633 0)
(1.02635 0.0231618 0)
(1.03942 0.0291138 0)
(1.05647 0.0352424 0)
(1.07226 0.0410011 0)
(1.06085 0.0436187 0)
(0.915008 0.0425272 0)
(0.401651 0.0112675 0)
(0.332513 -0.0030206 0)
(0.859749 -0.0258314 0)
(1.05313 -0.031807 0)
(1.08137 -0.0311118 0)
(1.07031 -0.0279438 0)
(1.0532 -0.0231195 0)
(1.0397 -0.018708 0)
(1.02934 -0.0139007 0)
(1.02193 -0.00852183 0)
(1.01829 -0.00241263 0)
(1.01815 0.00424404 0)
(1.02155 0.0101846 0)
(1.02884 0.0153854 0)
(1.03914 0.0200715 0)
(1.05256 0.0242343 0)
(1.06962 0.0288343 0)
(1.08056 0.0317816 0)
(1.05211 0.0323411 0)
(0.858165 0.026066 0)
(0.331053 0.0030934 0)
(0.301982 0.00104368 0)
(0.818543 -0.0121381 0)
(1.03884 -0.0182984 0)
(1.08091 -0.0205749 0)
(1.07362 -0.019753 0)
(1.05788 -0.0173662 0)
(1.0452 -0.0150278 0)
(1.03543 -0.0117111 0)
(1.02838 -0.00711803 0)
(1.02457 -0.00161368 0)
(1.02433 0.00389761 0)
(1.02772 0.00935644 0)
(1.03446 0.0136766 0)
(1.0439 0.0164541 0)
(1.05656 0.0185659 0)
(1.07226 0.0206352 0)
(1.07939 0.0212352 0)
(1.037 0.0188004 0)
(0.816127 0.0124009 0)
(0.299964 -0.000952384 0)
(0.294656 0.00178447 0)
(0.793656 -0.00314271 0)
(1.02401 -0.00784695 0)
(1.07333 -0.0113923 0)
(1.06896 -0.0128014 0)
(1.0556 -0.0134611 0)
(1.0444 -0.0126199 0)
(1.03591 -0.00985753 0)
(1.02996 -0.00605692 0)
(1.0266 -0.000987559 0)
(1.02636 0.003965 0)
(1.02926 0.00879421 0)
(1.03475 0.0121236 0)
(1.04293 0.0144862 0)
(1.054 0.0148704 0)
(1.06726 0.0139193 0)
(1.07139 0.0122649 0)
(1.02158 0.00844255 0)
(0.790523 0.00346068 0)
(0.29181 -0.00169623 0)
(0.295995 0.00129959 0)
(0.782652 0.000422052 0)
(1.01237 -0.00212701 0)
(1.06456 -0.0057901 0)
(1.06334 -0.00803868 0)
(1.05319 -0.00991828 0)
(1.04426 -0.00980745 0)
(1.03717 -0.00800123 0)
(1.03187 -0.00491824 0)
(1.0287 -0.000421717 0)
(1.02836 0.00429892 0)
(1.03094 0.00850489 0)
(1.03578 0.0112133 0)
(1.04249 0.0125979 0)
(1.05104 0.0122509 0)
(1.061 0.0098845 0)
(1.06193 0.00719137 0)
(1.00908 0.00301935 0)
(0.77836 3.65475e-07 0)
(0.292582 -0.00118822 0)
(0.299536 0.000443446 0)
(0.780318 0.000554722 0)
(1.00629 -0.000764398 0)
(1.05902 -0.00383429 0)
(1.06071 -0.00583894 0)
(1.0541 -0.00742476 0)
(1.04731 -0.00744362 0)
(1.04133 -0.00610129 0)
(1.03664 -0.00348403 0)
(1.03357 0.000397771 0)
(1.03289 0.00456963 0)
(1.03495 0.00826524 0)
(1.03884 0.0104522 0)
(1.04432 0.0111956 0)
(1.05073 0.0104024 0)
(1.05709 0.00818887 0)
(1.05504 0.0055254 0)
(1.00142 0.00187673 0)
(0.774533 -9.96801e-05 0)
(0.294931 -0.000294652 0)
(0.300759 3.92443e-06 0)
(0.77978 0.000259267 0)
(1.00252 -0.000613422 0)
(1.05473 -0.002908 0)
(1.05825 -0.00447366 0)
(1.05418 -0.00557592 0)
(1.04954 -0.00536606 0)
(1.04515 -0.00409274 0)
(1.0414 -0.00175115 0)
(1.0386 0.00154096 0)
(1.03771 0.00494871 0)
(1.03881 0.00772129 0)
(1.04149 0.00915284 0)
(1.04515 0.00940744 0)
(1.04958 0.00887722 0)
(1.05331 0.00701149 0)
(1.04927 0.00475794 0)
(0.99595 0.00186096 0)
(0.772381 0.00042575 0)
(0.294982 6.19781e-05 0)
(0.301402 0.000124696 0)
(0.779772 0.00041252 0)
(0.998928 0.000104813 0)
(1.0505 -0.00135442 0)
(1.05509 -0.0024938 0)
(1.05249 -0.0033318 0)
(1.0491 -0.00319926 0)
(1.04572 -0.00214311 0)
(1.04264 -0.000133562 0)
(1.04015 0.0026063 0)
(1.03921 0.00554315 0)
(1.0397 0.00746833 0)
(1.04141 0.00838739 0)
(1.04396 0.00838964 0)
(1.04653 0.00742016 0)
(1.04859 0.00567886 0)
(1.04342 0.00369626 0)
(0.990803 0.00146989 0)
(0.769804 0.000396923 0)
(0.294059 6.80943e-05 0)
(0.302672 0.000266479 0)
(0.780316 0.000633079 0)
(0.997538 0.000954291 0)
(1.0479 0.00021836 0)
(1.05308 -0.000359652 0)
(1.05146 -0.000892531 0)
(1.04899 -0.000722459 0)
(1.04628 9.74339e-05 0)
(1.04357 0.00170343 0)
(1.04116 0.00386586 0)
(1.03988 0.00618698 0)
(1.03998 0.00754063 0)
(1.04082 0.00775811 0)
(1.04213 0.0073336 0)
(1.04365 0.00617305 0)
(1.04457 0.00454462 0)
(1.03867 0.00284403 0)
(0.986653 0.00115358 0)
(0.767653 0.000310039 0)
(0.2932 6.22606e-05 0)
(0.304421 0.000236103 0)
(0.781851 0.000792036 0)
(0.997695 0.00121733 0)
(1.04737 0.00120269 0)
(1.05266 0.00108123 0)
(1.05174 0.00112081 0)
(1.05 0.00155626 0)
(1.04786 0.00240305 0)
(1.04543 0.00376583 0)
(1.04298 0.0054828 0)
(1.04118 0.00708128 0)
(1.04042 0.00788708 0)
(1.04047 0.00766321 0)
(1.04105 0.00680711 0)
(1.04167 0.00557013 0)
(1.04176 0.00408767 0)
(1.03537 0.00265156 0)
(0.983665 0.00131391 0)
(0.765827 0.000500031 0)
(0.292362 0.000139838 0)
(0.306304 0.000221048 0)
(0.784193 0.000892819 0)
(0.998516 0.0014748 0)
(1.0479 0.00177395 0)
(1.05341 0.00218433 0)
(1.05281 0.00271718 0)
(1.05141 0.00352969 0)
(1.04954 0.00460002 0)
(1.0472 0.00593581 0)
(1.04457 0.00739522 0)
(1.04224 0.00838687 0)
(1.04062 0.00866726 0)
(1.03995 0.00801689 0)
(1.03977 0.00692588 0)
(1.03972 0.00558936 0)
(1.03927 0.00417696 0)
(1.03261 0.00286235 0)
(0.980989 0.00167069 0)
(0.763626 0.000763734 0)
(0.290955 0.00021338 0)
(0.308486 0.000296278 0)
(0.786993 0.00108963 0)
(1.00036 0.00197501 0)
(1.04924 0.00271011 0)
(1.05471 0.00351505 0)
(1.05417 0.00445909 0)
(1.05281 0.00559795 0)
(1.05092 0.00691192 0)
(1.04842 0.00832138 0)
(1.04538 0.00962154 0)
(1.04242 0.0101997 0)
(1.0401 0.009841 0)
(1.03872 0.00889812 0)
(1.03785 0.00758086 0)
(1.03734 0.0060857 0)
(1.03658 0.00461845 0)
(1.02974 0.00326271 0)
(0.97804 0.00203551 0)
(0.760763 0.00097366 0)
(0.288995 0.000260841 0)
(0.31124 0.000398659 0)
(0.790511 0.00139859 0)
(1.00316 0.00260628 0)
(1.05159 0.00366223 0)
(1.05694 0.00485729 0)
(1.05632 0.00621212 0)
(1.0548 0.00777622 0)
(1.05264 0.0094542 0)
(1.04973 0.0110936 0)
(1.04603 0.0123826 0)
(1.04222 0.0127003 0)
(1.03914 0.0118582 0)
(1.03705 0.0104866 0)
(1.03566 0.00873472 0)
(1.03473 0.0069701 0)
(1.03365 0.00530167 0)
(1.0266 0.00379249 0)
(0.974676 0.00243581 0)
(0.757308 0.00118413 0)
(0.286601 0.000312754 0)
(0.315001 0.00052839 0)
(0.79538 0.00186051 0)
(1.00677 0.00349438 0)
(1.05453 0.00508256 0)
(1.0597 0.00668288 0)
(1.05895 0.00850502 0)
(1.05721 0.0104595 0)
(1.05467 0.0125047 0)
(1.05115 0.0144106 0)
(1.04659 0.0157483 0)
(1.04168 0.0158433 0)
(1.03766 0.0145705 0)
(1.03484 0.0126933 0)
(1.0329 0.0105291 0)
(1.03161 0.00842923 0)
(1.0303 0.00647641 0)
(1.02303 0.00470475 0)
(0.970701 0.00307372 0)
(0.752987 0.00150321 0)
(0.283593 0.00039691 0)
(0.319527 0.000672183 0)
(0.801202 0.00227226 0)
(1.01183 0.00429226 0)
(1.05902 0.00617219 0)
(1.06387 0.00834667 0)
(1.06276 0.010795 0)
(1.06056 0.0134629 0)
(1.05738 0.0161644 0)
(1.053 0.0185742 0)
(1.04728 0.0201131 0)
(1.04109 0.0200011 0)
(1.03599 0.0182296 0)
(1.03233 0.0157096 0)
(1.02978 0.0129416 0)
(1.02804 0.0102737 0)
(1.02638 0.00783015 0)
(1.01875 0.00565679 0)
(0.965887 0.00369722 0)
(0.747772 0.00183167 0)
(0.27994 0.00048598 0)
(0.326027 0.000887962 0)
(0.809504 0.00317853 0)
(1.01807 0.00592864 0)
(1.06426 0.00861102 0)
(1.06885 0.0112807 0)
(1.06741 0.0143198 0)
(1.06464 0.0175115 0)
(1.06061 0.0207717 0)
(1.05505 0.0236412 0)
(1.04781 0.0253641 0)
(1.03992 0.0250087 0)
(1.03339 0.0226737 0)
(1.0287 0.0194632 0)
(1.02545 0.0160683 0)
(1.02327 0.0128542 0)
(1.02134 0.00994479 0)
(1.01344 0.00732685 0)
(0.959923 0.00487128 0)
(0.741113 0.00238498 0)
(0.275214 0.000615182 0)
(0.33344 0.00119548 0)
(0.819184 0.00373215 0)
(1.02643 0.00709736 0)
(1.07162 0.0102989 0)
(1.07558 0.0140497 0)
(1.07341 0.018161 0)
(1.06977 0.0225143 0)
(1.06457 0.0267604 0)
(1.05749 0.0303531 0)
(1.04837 0.0323341 0)
(1.03855 0.0316278 0)
(1.03044 0.0285274 0)
(1.02463 0.0243943 0)
(1.0206 0.0200365 0)
(1.01788 0.0158597 0)
(1.01552 0.0120586 0)
(1.00701 0.00866855 0)
(0.952362 0.00562989 0)
(0.732756 0.00278956 0)
(0.269559 0.00074593 0)
(0.344868 0.00156249 0)
(0.832746 0.00561874 0)
(1.03706 0.010125 0)
(1.08067 0.0143914 0)
(1.0842 0.0188033 0)
(1.08124 0.023795 0)
(1.07643 0.0290173 0)
(1.06961 0.0342218 0)
(1.06046 0.0385223 0)
(1.04887 0.040716 0)
(1.03654 0.0395587 0)
(1.02637 0.0355298 0)
(1.01906 0.0303211 0)
(1.01396 0.0249497 0)
(1.01048 0.0199254 0)
(1.00762 0.0154208 0)
(0.998719 0.0114266 0)
(0.94344 0.00764879 0)
(0.722976 0.00373827 0)
(0.262363 0.0009296 0)
(0.358075 0.00222066 0)
(0.850246 0.00648888 0)
(1.05082 0.0124456 0)
(1.09266 0.0179083 0)
(1.09502 0.0244427 0)
(1.0908 0.0310411 0)
(1.08428 0.0379451 0)
(1.0753 0.0443371 0)
(1.06351 0.0493507 0)
(1.04896 0.0515741 0)
(1.03376 0.0496625 0)
(1.02133 0.0444048 0)
(1.01245 0.0378574 0)
(1.00629 0.0311128 0)
(1.00211 0.0246728 0)
(0.99869 0.0188256 0)
(0.988769 0.0135066 0)
(0.931068 0.00872983 0)
(0.708946 0.00425236 0)
(0.253456 0.00113809 0)
(0.378367 0.00317999 0)
(0.872315 0.0105191 0)
(1.06913 0.0180275 0)
(1.10804 0.0251615 0)
(1.10916 0.0326945 0)
(1.10297 0.0409836 0)
(1.09414 0.0493787 0)
(1.08226 0.0570562 0)
(1.06718 0.0627662 0)
(1.04902 0.0648183 0)
(1.03041 0.0618983 0)
(1.01526 0.055153 0)
(1.00435 0.0469855 0)
(0.996632 0.0386716 0)
(0.991261 0.0308684 0)
(0.986922 0.0238118 0)
(0.97631 0.0176643 0)
(0.91807 0.0118188 0)
(0.695192 0.00581903 0)
(0.242951 0.00142255 0)
(0.406044 0.00444577 0)
(0.905948 0.0124507 0)
(1.09311 0.0236066 0)
(1.12844 0.0331039 0)
(1.12688 0.0443044 0)
(1.11792 0.054986 0)
(1.10559 0.065209 0)
(1.08976 0.074078 0)
(1.07045 0.0800037 0)
(1.04794 0.0813858 0)
(1.02536 0.076934 0)
(1.00715 0.0682776 0)
(0.99403 0.0582714 0)
(0.984695 0.0482047 0)
(0.978118 0.0386609 0)
(0.972803 0.029889 0)
(0.960394 0.0215647 0)
(0.897949 0.0139546 0)
(0.671606 0.00658437 0)
(0.22847 0.00163885 0)
(0.441039 0.00881139 0)
(0.943564 0.0229463 0)
(1.1246 0.0359563 0)
(1.15388 0.048598 0)
(1.14852 0.0619811 0)
(1.1353 0.0746231 0)
(1.11831 0.0865014 0)
(1.09774 0.0957034 0)
(1.07352 0.101151 0)
(1.04622 0.10113 0)
(1.01943 0.0945967 0)
(0.997993 0.0836778 0)
(0.982454 0.0715033 0)
(0.971234 0.059412 0)
(0.963091 0.0479335 0)
(0.956247 0.0374854 0)
(0.942333 0.0282997 0)
(0.878316 0.0191606 0)
(0.652185 0.0094345 0)
(0.215233 0.00196432 0)
(0.527148 0.0125424 0)
(1.01196 0.0312972 0)
(1.16577 0.0543919 0)
(1.18619 0.0703273 0)
(1.17444 0.0885341 1.17764e-34)
(1.15477 0.102873 -6.73744e-35)
(1.13192 0.114939 0)
(1.10535 0.123614 0)
(1.07544 0.127661 0)
(1.04277 0.1253 0)
(1.01136 0.115953 0)
(0.98635 0.10237 0)
(0.968012 0.0879656 0)
(0.954447 0.0739645 0)
(0.944341 0.0609136 0)
(0.935652 0.0484817 0)
(0.918415 0.0362526 0)
(0.846823 0.0246777 0)
(0.606143 0.0113377 0)
(0.18753 0.00193052 0)
(0.584708 0.0281281 -3.81341e-21)
(1.08886 0.0571625 2.23225e-21)
(1.21278 0.0856283 0)
(1.22232 0.107892 2.98958e-21)
(1.20063 0.127533 -2.41772e-21)
(1.17419 0.140716 7.10817e-35)
(1.14455 0.151763 0)
(1.11134 0.158998 5.59305e-21)
(1.07526 0.160661 -1.96453e-20)
(1.03661 0.15548 4.27941e-21)
(0.999966 0.143075 0)
(0.970737 0.126702 -1.34351e-20)
(0.948923 0.109976 -1.67468e-20)
(0.932305 0.0938412 2.9444e-20)
(0.919295 0.0785709 -2.36267e-20)
(0.907393 0.0649388 0)
(0.885252 0.0516475 -9.05667e-21)
(0.803162 0.0353881 0)
(0.565777 0.0227629 -4.92263e-20)
(0.170504 0.00460474 5.86178e-20)
(0.602156 0.0548953 -1.12684e-21)
(1.12952 0.105317 -3.60727e-20)
(1.2535 0.139248 1.13355e-20)
(1.25482 0.158857 1.10147e-20)
(1.22487 0.174661 -4.24073e-21)
(1.19152 0.18619 7.48244e-21)
(1.15474 0.195898 0)
(1.11511 0.201034 0)
(1.07271 0.200345 3.0651e-20)
(1.0277 0.192723 0)
(0.985086 0.177898 4.62577e-20)
(0.950577 0.159744 1.44131e-20)
(0.92406 0.141997 4.39844e-22)
(0.90301 0.125526 -3.28564e-20)
(0.885683 0.110566 0)
(0.869665 0.0964345 0)
(0.845227 0.0846508 -1.53249e-19)
(0.771648 0.0702253 3.87452e-19)
(0.552129 0.0450273 -2.29764e-19)
(0.172545 0.0165667 -2.75733e-19)
(0.601839 0.0902486 7.25729e-20)
(1.15588 0.168121 -2.04835e-20)
(1.28402 0.207303 -4.75622e-21)
(1.28105 0.220047 -2.21731e-20)
(1.2448 0.230613 1.35169e-20)
(1.2048 0.238668 -1.42979e-20)
(1.16164 0.245145 8.55855e-21)
(1.11614 0.246864 0)
(1.06766 0.243281 -6.32854e-20)
(1.01663 0.232802 6.78997e-20)
(0.968312 0.215555 -1.26119e-19)
(0.9289 0.196031 6.11855e-20)
(0.898272 0.177934 -4.45481e-20)
(0.873671 0.161819 9.79302e-20)
(0.853339 0.148018 0)
(0.835272 0.135875 -3.81505e-20)
(0.810706 0.122825 0)
(0.744665 0.110187 2.2088e-19)
(0.546453 0.0753787 -5.2413e-19)
(0.184583 0.0286029 3.29627e-19)
(0.585693 0.120879 -3.43899e-19)
(1.1669 0.230783 1.36712e-19)
(1.30232 0.278747 2.11208e-20)
(1.29831 0.285305 0)
(1.25783 0.291558 1.07774e-20)
(1.21264 0.295693 -1.07653e-20)
(1.16465 0.297647 -8.76654e-21)
(1.11394 0.295352 0)
(1.0601 0.28838 4.4604e-20)
(1.00385 0.274643 -4.67253e-20)
(0.950801 0.254771 1.09672e-19)
(0.907728 0.233675 0)
(0.874484 0.21496 -9.3425e-20)
(0.848119 0.198818 5.18131e-20)
(0.826777 0.185093 1.39196e-19)
(0.808475 0.174526 -1.22287e-19)
(0.785921 0.160802 2.03066e-19)
(0.725859 0.147559 -4.52632e-19)
(0.541643 0.10563 2.87938e-19)
(0.190033 0.03957 -3.63107e-19)
(0.564287 0.146618 2.13123e-19)
(1.16387 0.287796 -1.57011e-19)
(1.31066 0.34747 6.56912e-20)
(1.30709 0.350676 -8.81901e-20)
(1.26349 0.354296 5.73715e-20)
(1.21501 0.354251 -8.40068e-21)
(1.16366 0.351455 3.82741e-21)
(1.10873 0.345167 -3.20924e-20)
(1.05068 0.334416 -4.41864e-20)
(0.990213 0.317039 -9.91575e-20)
(0.933473 0.294147 -2.35821e-19)
(0.887919 0.27108 -7.83926e-20)
(0.853379 0.251301 2.8604e-21)
(0.826538 0.234654 -1.83209e-19)
(0.805154 0.220559 -6.17146e-21)
(0.787006 0.210324 1.78285e-19)
(0.766394 0.196854 -5.5272e-20)
(0.709832 0.182348 -3.26675e-20)
(0.534459 0.132212 0)
(0.189239 0.0498067 7.67051e-19)
(0.54368 0.170957 0)
(1.15518 0.34191 4.86401e-20)
(1.31114 0.412583 3.28127e-20)
(1.30847 0.413735 -1.19207e-20)
(1.26272 0.416049 -7.11651e-20)
(1.21267 0.412061 1.13949e-20)
(1.15908 0.405019 5.94065e-21)
(1.10104 0.394983 5.641e-20)
(1.03991 0.380319 -2.59647e-20)
(0.976154 0.359282 4.46938e-20)
(0.916682 0.33326 1.26765e-19)
(0.869397 0.307777 1.73106e-19)
(0.833782 0.286232 -1.07366e-19)
(0.80631 0.268534 1.9814e-19)
(0.78487 0.253872 -1.58896e-19)
(0.766874 0.242996 0)
(0.74733 0.229765 -4.22791e-19)
(0.693223 0.212543 5.68557e-19)
(0.523722 0.156413 4.32612e-20)
(0.185874 0.0576481 -8.04871e-19)
(0.525844 0.19339 -6.55594e-21)
(1.14284 0.393386 -3.34019e-19)
(1.30616 0.474395 -2.46779e-19)
(1.30422 0.473743 2.03413e-19)
(1.25709 0.47484 -4.05818e-20)
(1.20646 0.467447 1.995e-20)
(1.15129 0.457047 -4.08383e-22)
(1.09104 0.443703 -6.94623e-21)
(1.02748 0.425352 -9.249e-20)
(0.960681 0.400723 1.24411e-21)
(0.898221 0.371167 -1.37102e-19)
(0.848806 0.342964 -1.83902e-19)
(0.81251 0.319714 1.20756e-19)
(0.785261 0.300717 -7.10285e-20)
(0.763983 0.28512 1.72707e-19)
(0.746442 0.273093 0)
(0.72787 0.259761 -2.61731e-19)
(0.675893 0.239534 3.87239e-19)
(0.51064 0.177273 7.47165e-19)
(0.180969 0.0646592 -8.72338e-19)
(0.511907 0.214047 -6.39773e-19)
(1.12873 0.442274 3.22061e-19)
(1.29789 0.533687 2.41358e-19)
(1.29657 0.530984 -2.20397e-19)
(1.24832 0.530454 1.08878e-20)
(1.19739 0.51981 5.72534e-20)
(1.14079 0.506835 -5.96789e-21)
(1.07897 0.490658 -2.04349e-20)
(1.01349 0.469044 -5.59538e-20)
(0.944414 0.441104 9.77442e-20)
(0.880234 0.408309 1.30191e-19)
(0.830064 0.377182 2.88559e-19)
(0.792648 0.351203 0)
(0.764113 0.330318 5.41709e-21)
(0.742795 0.313443 -4.79913e-19)
(0.725604 0.300189 1.10264e-19)
(0.70717 0.28605 5.62108e-19)
(0.656916 0.263316 -1.63972e-19)
(0.496225 0.195303 3.57058e-19)
(0.175148 0.0705723 -2.85245e-20)
(0.501823 0.233989 7.42103e-21)
(1.11534 0.488474 2.99163e-19)
(1.28748 0.590168 1.84323e-19)
(1.28679 0.585915 -3.97473e-19)
(1.23773 0.583425 2.46885e-19)
(1.18644 0.569442 -7.30895e-20)
(1.12841 0.554233 2.91499e-21)
(1.06543 0.535484 4.67637e-20)
(0.998217 0.511051 1.00916e-19)
(0.926715 0.480089 -1.23905e-19)
(0.859305 0.443769 0)
(0.806034 0.409539 -1.13559e-19)
(0.768549 0.381567 1.30375e-19)
(0.74175 0.358663 1.74829e-19)
(0.720955 0.340381 -1.00376e-19)
(0.704456 0.325254 -2.53035e-19)
(0.687192 0.310438 -7.69544e-20)
(0.638431 0.284958 -1.35059e-21)
(0.480855 0.211172 0)
(0.168369 0.0753437 0)
(0.494104 0.254421 -3.17566e-19)
(1.1017 0.531578 0)
(1.27524 0.642548 2.12597e-19)
(1.27517 0.638059 -9.89118e-20)
(1.2259 0.633823 -2.57253e-19)
(1.17432 0.616745 7.10855e-20)
(1.11505 0.599467 -3.17182e-21)
(1.05116 0.578245 -2.36926e-20)
(0.982364 0.551335 6.39932e-20)
(0.909081 0.517647 -4.98761e-20)
(0.840724 0.478461 7.29227e-20)
(0.788314 0.441134 3.5471e-19)
(0.749044 0.409699 1.33347e-20)
(0.719453 0.384566 -1.78795e-19)
(0.698606 0.363678 3.44975e-19)
(0.682523 0.347781 4.48247e-21)
(0.66514 0.331317 8.23325e-20)
(0.61811 0.303297 -4.02626e-19)
(0.464569 0.224201 4.11559e-19)
(0.160712 0.0789827 -4.87185e-19)
(0.488884 0.275309 5.26274e-23)
(1.08886 0.572135 0)
(1.26166 0.691013 0)
(1.26233 0.68681 9.11571e-20)
(1.21318 0.681239 1.02039e-19)
(1.16141 0.661666 -5.8358e-20)
(1.10132 0.642529 3.04212e-20)
(1.03669 0.618992 0)
(0.96654 0.589983 -1.03362e-19)
(0.891409 0.554046 1.80538e-19)
(0.819705 0.511682 2.20831e-19)
(0.762143 0.470838 -1.33652e-19)
(0.722998 0.436966 -1.67546e-19)
(0.696057 0.408705 3.96265e-19)
(0.675616 0.387355 -1.22118e-19)
(0.659914 0.368089 -1.48244e-19)
(0.643369 0.350119 -9.09366e-20)
(0.596653 0.320045 -4.37412e-19)
(0.447077 0.234932 6.06059e-20)
(0.151968 0.0814521 5.29642e-19)
(0.485299 0.29434 -1.27292e-19)
(1.07656 0.610053 -1.97889e-19)
(1.24725 0.735862 2.38306e-20)
(1.24865 0.732145 3.49235e-22)
(1.19976 0.725499 3.22492e-20)
(1.14796 0.704023 -1.605e-19)
(1.08739 0.68333 0)
(1.02214 0.6578 1.7411e-20)
(0.950561 0.627054 -1.37292e-20)
(0.873168 0.588933 2.83895e-19)
(0.799219 0.544027 -5.62739e-20)
(0.74279 0.501138 6.12963e-20)
(0.701225 0.463599 0)
(0.671436 0.432694 -2.16361e-19)
(0.651036 0.405565 2.70128e-19)
(0.636473 0.386203 0)
(0.621179 0.3671 -1.99843e-19)
(0.576362 0.333078 5.84163e-19)
(0.428672 0.243203 7.03863e-20)
(0.142678 0.0824288 -6.57924e-19)
(0.48242 0.311619 -2.83233e-19)
(1.06469 0.645614 3.60716e-19)
(1.23287 0.777521 0)
(1.23474 0.77433 2.28141e-19)
(1.18601 0.766684 0)
(1.13416 0.743708 1.48444e-19)
(1.07339 0.72173 0)
(1.00766 0.694577 0)
(0.935028 0.662383 -3.49521e-20)
(0.85643 0.6227 -2.76376e-19)
(0.780857 0.576292 -4.09964e-19)
(0.719435 0.528752 7.74421e-20)
(0.676122 0.487707 2.89788e-19)
(0.646475 0.453106 2.4403e-19)
(0.626598 0.427036 -8.67621e-19)
(0.611379 0.403134 -3.59098e-19)
(0.594821 0.379546 2.08642e-19)
(0.550293 0.344206 0)
(0.408961 0.249052 6.09544e-19)
(0.132131 0.0822371 -7.15292e-19)
(0.479698 0.32781 3.14626e-19)
(1.05324 0.679215 -3.96842e-19)
(1.21856 0.816234 0)
(1.22069 0.813726 -9.55241e-21)
(1.17215 0.805069 -9.37546e-20)
(1.12034 0.780838 0)
(1.0595 0.757734 -1.07793e-20)
(0.993421 0.729274 2.14839e-20)
(0.919869 0.695995 -4.54462e-20)
(0.839192 0.655159 2.75909e-20)
(0.759342 0.605445 0)
(0.695662 0.557051 3.08955e-19)
(0.65062 0.513649 3.84512e-21)
(0.61893 0.474777 1.32679e-19)
(0.597587 0.441073 1.60003e-19)
(0.585336 0.41492 0)
(0.573109 0.392406 -3.54802e-19)
(0.529975 0.353161 6.95894e-19)
(0.388392 0.252292 -7.45469e-19)
(0.121244 0.0805044 1.55851e-18)
(0.476897 0.343288 0)
(1.04231 0.710925 0)
(1.20467 0.852317 -2.15013e-19)
(1.20683 0.850482 0)
(1.15845 0.840833 0)
(1.10668 0.815524 2.19341e-19)
(1.04591 0.791443 -1.43922e-20)
(0.979544 0.761968 1.63721e-20)
(0.905131 0.727913 -3.89891e-21)
(0.822686 0.686065 0)
(0.741247 0.636757 -6.5554e-20)
(0.674676 0.585691 -2.56116e-19)
(0.626211 0.537728 -3.21779e-19)
(0.595052 0.496032 -1.33994e-19)
(0.574057 0.459795 1.76823e-19)
(0.558161 0.430517 -4.20487e-19)
(0.541672 0.402569 7.70392e-19)
(0.499411 0.35783 1.04682e-20)
(0.365845 0.252926 -7.21789e-19)
(0.109343 0.077134 -1.07219e-19)
(0.474013 0.35806 0)
(1.0318 0.740794 -3.07535e-19)
(1.19094 0.885952 2.41659e-19)
(1.19317 0.884839 0)
(1.14504 0.8742 0)
(1.09342 0.847965 -4.8648e-19)
(1.03278 0.822984 0)
(0.966252 0.79268 0)
(0.891229 0.758116 -7.6909e-20)
(0.807689 0.716167 5.21349e-20)
(0.723156 0.66583 -5.22753e-19)
(0.651612 0.612532 0)
(0.597851 0.563207 -3.48651e-19)
(0.557444 0.514668 1.23092e-20)
(0.535812 0.473056 -5.64361e-19)
(0.526352 0.439394 2.28153e-19)
(0.518916 0.403589 5.23779e-21)
(0.477778 0.358672 -8.30378e-19)
(0.344644 0.249924 3.94785e-19)
(0.099708 0.0729302 1.14709e-19)
(0.471028 0.372041 0)
(1.02168 0.768707 -3.65165e-19)
(1.17767 0.917297 2.55893e-19)
(1.17986 0.916798 5.35004e-19)
(1.13199 0.905229 1.07841e-19)
(1.08059 0.878215 -7.53425e-20)
(1.02018 0.852462 4.57069e-20)
(0.953627 0.82156 -7.5097e-20)
(0.878154 0.786786 8.22699e-20)
(0.792953 0.744857 3.19753e-19)
(0.704883 0.693714 4.33558e-19)
(0.630499 0.6406 8.32398e-20)
(0.575872 0.587832 5.06726e-19)
(0.54039 0.539454 3.29248e-19)
(0.512838 0.494229 4.07221e-19)
(0.496334 0.443968 -2.56228e-19)
(0.480285 0.411729 -3.07376e-19)
(0.444376 0.359027 3.6265e-19)
(0.319033 0.245077 -2.17408e-19)
(0.0912269 0.0669085 3.76979e-19)
(0.467949 0.385167 4.95551e-19)
(1.0118 0.794742 5.79069e-19)
(1.16461 0.946457 1.39869e-19)
(1.16693 0.946577 1.56113e-20)
(1.11938 0.934118 -3.75051e-19)
(1.06829 0.906411 1.40876e-19)
(1.00821 0.879983 -5.26458e-20)
(0.941728 0.848631 -2.16925e-20)
(0.865824 0.813705 -7.3518e-20)
(0.779205 0.772014 -3.56875e-19)
(0.689512 0.72149 2.59583e-20)
(0.609939 0.666752 0)
(0.54656 0.612347 0)
(0.495205 0.558249 -1.66951e-19)
(0.46593 0.49753 -6.67599e-19)
(0.452771 0.456285 5.555e-19)
(0.452136 0.402387 3.42993e-19)
(0.421679 0.342719 0)
(0.305663 0.225008 7.01906e-19)
(0.0850799 0.0533534 -4.12871e-19)
(0.464741 0.397426 -2.64351e-19)
(1.00222 0.818966 2.22957e-19)
(1.15205 0.973586 -3.1417e-19)
(1.1544 0.97416 -3.37218e-19)
(1.10715 0.960866 -1.48706e-19)
(1.05648 0.93259 3.30782e-20)
(0.996806 0.905602 0)
(0.930515 0.873918 1.13603e-19)
(0.854418 0.839199 1.34267e-20)
(0.767057 0.797927 0)
(0.673838 0.74904 0)
(0.58988 0.69664 5.78598e-20)
(0.522446 0.644446 8.88218e-20)
(0.476591 0.584705 -1.79751e-19)
(0.440671 0.532708 4.83559e-19)
(0.414841 0.465172 -6.09611e-19)
(0.400071 0.402582 -7.41622e-19)
(0.385007 0.325987 6.6353e-19)
(0.30809 0.220843 -2.54087e-19)
(0.14814 0.1117 1.43291e-19)
(0.461288 0.409179 3.04785e-19)
(0.992833 0.841456 0)
(1.13975 0.998773 0)
(1.14234 0.999797 -1.137e-19)
(1.09545 0.985718 9.19921e-20)
(1.04523 0.95688 -2.03288e-20)
(0.986018 0.929397 -2.01684e-19)
(0.919996 0.897563 -1.89152e-19)
(0.843778 0.863018 8.20583e-20)
(0.755222 0.82296 -2.86778e-20)
(0.659834 0.774934 6.86974e-20)
(0.572744 0.722051 -4.75728e-19)
(0.498764 0.666152 -5.21901e-19)
(0.431348 0.610854 -9.55103e-20)
(0.381341 0.546024 0)
(0.355857 0.478299 -1.43837e-20)
(0.348298 0.378462 4.02353e-19)
(0.330859 0.24076 -7.05283e-19)
(0.311588 0.0739813 5.20843e-19)
(0.10011 -0.0554732 4.20739e-19)
(0.45784 0.420161 -6.58956e-19)
(0.983729 0.862436 -2.80307e-19)
(1.12789 1.02233 4.80698e-21)
(1.13055 1.02368 1.45197e-19)
(1.08396 1.00891 0)
(1.03424 0.979687 4.28588e-19)
(0.975561 0.951902 2.50341e-19)
(0.909978 0.920089 -4.35038e-20)
(0.833837 0.886094 -2.9088e-20)
(0.744454 0.847348 -2.69623e-20)
(0.646495 0.801514 2.50441e-20)
(0.553735 0.752428 4.20423e-19)
(0.474024 0.701184 5.10473e-19)
(0.414579 0.643174 9.16909e-20)
(0.358121 0.586092 5.05482e-19)
(0.303731 0.497776 0)
(0.214432 0.395437 0)
(0.0903879 0.368836 5.1809e-19)
(-0.0368655 0.637405 -3.02945e-20)
(-0.00486889 1.43641 -6.68062e-19)
(0.454392 0.430236 3.5569e-19)
(0.974734 0.881929 8.3631e-19)
(1.11625 1.04437 -1.24816e-18)
(1.11917 1.0462 7.50515e-19)
(1.07289 1.03091 -8.7489e-20)
(1.02367 1.00139 5.62022e-19)
(0.965532 0.97346 0)
(0.900321 0.941928 2.01104e-19)
(0.824303 0.908905 0)
(0.734422 0.871624 2.59477e-19)
(0.634888 0.827968 -3.89346e-20)
(0.538999 0.78067 4.36556e-20)
(0.452891 0.730823 5.61459e-19)
(0.363578 0.684188 -2.06933e-19)
(0.28423 0.615882 -2.68003e-19)
(0.205173 0.567371 0)
(0.116941 0.647023 0)
(0.0604721 1.16272 0)
(0.0935927 2.3782 -2.92995e-19)
(0.123963 2.86932 -1.80843e-19)
(0.450928 0.439548 0)
(0.966065 0.900187 0)
(1.10508 1.06503 4.46261e-19)
(1.10804 1.06724 -6.25511e-19)
(1.06202 1.05151 4.29129e-19)
(1.01334 1.02189 -5.15029e-19)
(0.955789 0.993991 -2.90872e-20)
(0.891204 0.962963 2.26488e-20)
(0.815547 0.930863 7.51543e-21)
(0.725128 0.895801 -2.95221e-19)
(0.623851 0.855767 5.96535e-20)
(0.52417 0.813588 3.92874e-19)
(0.432414 0.773237 -5.53701e-19)
(0.35044 0.716982 -6.45343e-19)
(0.285794 0.679918 2.26519e-19)
(0.221344 0.78658 0)
(0.170167 1.41789 3.22621e-19)
(0.173254 2.63495 3.72663e-19)
(0.173734 3.06826 -4.16689e-19)
(0.164034 3.21474 4.71422e-19)
(0.447403 0.448091 0)
(0.957533 0.917064 6.8021e-19)
(1.0942 1.08428 -1.15613e-19)
(1.09742 1.08704 7.87936e-19)
(1.0517 1.071 -4.50425e-19)
(1.00354 1.04129 0)
(0.946631 1.01352 0)
(0.882585 0.983078 0)
(0.807365 0.952491 -6.411e-20)
(0.716654 0.920084 3.57109e-21)
(0.613102 0.883803 0)
(0.508601 0.844081 -3.8384e-19)
(0.416169 0.80607 0)
(0.320236 0.76994 4.58922e-19)
(0.240033 0.845766 -2.96431e-19)
(0.190039 1.38876 -2.47824e-19)
(0.208116 2.62331 -6.08588e-19)
(0.228126 3.11963 -3.01464e-19)
(0.215944 3.27685 -3.40984e-19)
(0.199335 3.32036 3.03952e-19)
(0.443886 0.45596 -2.30755e-19)
(0.949385 0.93296 1.37879e-20)
(1.08376 1.10236 -1.24591e-19)
(1.08703 1.10554 -6.30594e-19)
(1.04152 1.08924 0)
(0.993952 1.05963 0)
(0.937689 1.03209 0)
(0.874415 1.00246 -1.40227e-20)
(0.799884 0.97361 7.16383e-20)
(0.709656 0.943945 0)
(0.606003 0.911981 0)
(0.501649 0.880115 0)
(0.393656 0.851345 0)
(0.324193 0.849638 2.99886e-19)
(0.308392 1.16505 7.75071e-19)
(0.310643 2.25757 2.40968e-19)
(0.325758 3.07029 4.30811e-19)
(0.315244 3.2996 -2.63344e-19)
(0.258848 3.37369 9.77534e-20)
(0.222622 3.38774 0)
(0.440263 0.463366 2.33699e-19)
(0.941094 0.947949 -1.46583e-18)
(1.07335 1.11966 -4.11589e-19)
(1.07693 1.12343 -1.005e-19)
(1.03172 1.10695 1.15132e-19)
(0.984729 1.07738 -8.12793e-19)
(0.929223 1.05014 5.50417e-20)
(0.866806 1.02134 3.75577e-19)
(0.793268 0.993972 0)
(0.703165 0.967396 -1.7007e-20)
(0.598464 0.940407 1.54721e-20)
(0.489213 0.909801 0)
(0.402506 0.886177 0)
(0.349801 1.00193 -3.69665e-19)
(0.340501 1.75943 -8.27544e-21)
(0.331943 2.88472 -1.18762e-19)
(0.349489 3.29648 1.77061e-19)
(0.319107 3.41388 3.72023e-20)
(0.247635 3.44589 1.65373e-19)
(0.219162 3.4547 -8.36539e-20)
(0.436246 0.47072 4.49825e-19)
(0.932412 0.963456 1.4014e-18)
(1.0624 1.13737 5.06134e-19)
(1.0661 1.14147 0)
(1.02122 1.12472 0)
(0.97501 1.09521 6.22869e-19)
(0.920411 1.06818 -3.8524e-19)
(0.85906 1.04015 -3.45588e-19)
(0.786598 1.01477 -1.35481e-20)
(0.69737 0.991564 6.47488e-20)
(0.591872 0.969654 -2.96207e-19)
(0.481081 0.946432 0)
(0.402805 0.959211 0)
(0.378052 1.31178 -2.02671e-19)
(0.403648 2.33608 -2.58177e-19)
(0.447169 3.1894 0)
(0.478384 3.40671 1.49066e-19)
(0.405885 3.48175 2.47877e-19)
(0.321828 3.52516 -5.68881e-19)
(0.291679 3.55188 3.25319e-19)
(0.431607 0.478232 -8.52889e-19)
(0.922536 0.979182 -6.66587e-19)
(1.05041 1.15566 0)
(1.05461 1.16018 0)
(1.01029 1.14311 0)
(0.964887 1.1134 0)
(0.911379 1.08651 4.11403e-19)
(0.851317 1.05925 -4.4925e-19)
(0.780298 1.03578 0)
(0.692867 1.01624 -5.32047e-20)
(0.588249 0.999428 4.99464e-19)
(0.478914 0.984573 2.49629e-20)
(0.420268 1.05228 3.93849e-20)
(0.443712 1.62982 2.93256e-19)
(0.49037 2.80836 -5.58113e-20)
(0.524051 3.33805 0)
(0.507216 3.48563 -1.04708e-19)
(0.40756 3.57799 1.17668e-19)
(0.300919 3.66348 4.06704e-19)
(0.219515 3.65151 -3.5379e-19)
(0.426359 0.486022 4.04071e-19)
(0.911844 0.996165 -6.5417e-19)
(1.03722 1.17488 0)
(1.04176 1.1794 -1.61266e-19)
(0.997993 1.16177 6.1178e-19)
(0.953777 1.13186 0)
(0.901712 1.10493 0)
(0.843521 1.07833 8.41379e-19)
(0.774946 1.05632 1.22625e-20)
(0.688663 1.0408 -4.46742e-20)
(0.584376 1.0301 -2.17171e-19)
(0.478917 1.02888 1.62961e-19)
(0.444737 1.20526 0)
(0.50466 2.02626 -1.34883e-19)
(0.566759 3.08846 1.1537e-19)
(0.62472 3.44877 -6.99951e-20)