/*--------------------------------*- C++ -*----------------------------------*\
| =========                 |                                                 |
| \\      /  F ield         | OpenFOAM: The Open Source CFD Toolbox           |
|  \\    /   O peration     | Version:  4.0                                   |
|   \\  /    A nd           | Web:      www.OpenFOAM.org                      |
|    \\/     M anipulation  |                                                 |
\*---------------------------------------------------------------------------*/
FoamFile
{
    version     2.0;
    format      ascii;
    class       volScalarField;
    location    "26";
    object      p;
}
// * * * * * * * * * * * * * * * * * * * * * * * * * * * * * * * * * * * * * //

dimensions      [0 2 -2 0 0 0 0];

internalField   nonuniform List<scalar> 
918
(
0.24164
0.911066
0.0214572
0.240938
-0.0111279
0.878116
-0.818547
0.417271
0.221718
-0.398893
-0.4193
0.213177
0.738833
0.50544
-1.44376
-0.192217
0.371126
-0.696661
0.220711
-0.0645919
0.467185
0.228362
0.231405
0.222002
0.283088
0.488107
0.619666
0.00385233
0.0136794
0.00239601
-0.0109704
-0.0579731
-0.0742824
0.761747
0.812844
0.83552
0.190587
0.0180332
-0.673822
-0.747479
-0.735566
-0.864613
0.409076
0.413562
-0.481142
0.417675
0.429783
0.209124
0.22106
0.221997
0.223117
0.222029
0.223439
0.115108
-0.404113
-0.43923
-0.381255
-0.372989
-0.203736
-0.420078
-0.401398
-0.416851
-0.391053
0.144029
0.2103
0.207524
0.218016
0.225685
0.850614
0.822517
0.848649
0.762416
0.778859
0.716784
0.689253
0.52549
0.547166
0.491142
0.47765
-1.88608
-2.85744
-0.843227
-0.586693
-0.00361023
-0.222073
-0.249929
0.360571
0.363474
0.370344
0.38338
0.766194
-0.69094
-0.83289
0.220766
0.219558
0.228093
0.228777
0.224785
0.223881
-0.100915
-0.151855
-0.0221136
-0.0462083
-0.0442251
0.452555
0.448083
0.222561
0.219599
0.233319
0.255825
0.245511
-0.0154386
0.290553
0.309122
0.305018
0.473565
0.470603
0.478375
0.593344
0.556587
0.656693
0.680053
0.00561958
0.00352748
-0.178005
-0.0982127
-0.127073
0.186671
0.179693
0.20475
0.193865
0.196152
-0.0662669
-0.202615
0.10367
0.126838
-0.583155
-0.64841
-0.754897
-0.768969
-0.877347
0.261836
0.400186
0.401681
-0.498433
-0.417434
-0.558947
-0.343758
-0.409474
0.199548
0.206459
0.2015
0.216807
0.211352
0.213288
0.22535
0.222432
0.223973
0.179974
0.301147
0.0509647
0.0267343
-0.553785
-0.454448
-0.542613
-0.358793
-0.364904
-0.205151
-0.167771
-0.211802
-0.203937
-0.367369
-0.384536
-0.370761
-0.371027
-0.329482
0.136997
0.126572
0.155205
0.162232
0.202088
0.203186
0.205342
0.204147
0.640037
0.662528
0.66989
0.64351
-3.86797
-6.69058
-0.254394
-0.113381
-0.00376173
0.00149822
-4.08563e-05
0.00524051
0.00299343
-0.00757037
-0.251292
-0.26124
-0.262106
-0.268901
0.345217
0.346328
0.682626
0.675293
0.668359
0.622075
0.208856
0.211024
0.216567
0.212418
-0.293051
-0.201847
-0.239839
0.426921
0.439118
0.437686
-0.051069
-0.135977
0.0306345
0.0577357
0.33136
0.314407
0.330515
0.368505
0.404924
0.687558
0.705796
0.704036
0.712353
0.756335
0.772694
0.738102
0.16758
0.176889
0.171993
0.208037
0.205635
0.206644
0.201733
0.203366
0.200994
-0.356269
-0.743609
0.18549
0.205474
0.173266
0.188816
0.338333
0.41112
0.380974
0.391528
0.393006
-0.276863
-0.338056
-0.0230759
-0.0634493
0.0825366
0.115434
0.0975
0.611262
0.571336
0.621434
0.594916
0.556076
0.582663
-0.695565
-2.22208
-1.32633
0.246305
0.0551298
0.145179
-0.214743
-0.229873
-0.222184
0.662187
0.74275
0.357665
0.51809
0.530759
0.44153
0.472705
0.530358
0.454783
0.490516
0.525698
0.505119
0.221817
0.196314
0.190792
0.481828
0.537702
-0.16352
-0.215959
-0.264478
-0.166778
-0.112536
-0.132692
0.710569
0.598478
0.673944
0.219322
0.220006
-0.00951366
-0.0236048
0.224111
0.224178
-0.0102203
-0.0454002
0.126511
-1.15349
-0.175357
0.212494
0.202973
0.219672
-0.384447
0.0737662
-0.425294
-0.208419
-0.280206
0.210845
0.153445
0.117403
0.00201044
-0.184891
-0.122299
-0.508847
0.216975
0.215311
0.219168
0.220211
0.220843
-0.0125197
-0.0225404
-0.00970757
-0.10844
-0.0538793
-0.0570615
0.184908
0.20123
-0.470068
0.219356
0.221448
0.221307
0.214356
0.220145
0.218273
-0.122398
-0.0761451
-0.159172
-0.0649396
0.0515299
0.377228
0.476815
0.339416
0.111238
-0.130501
0.275363
0.342053
0.242665
0.403892
0.390424
0.407082
-0.114214
-0.261048
-0.106643
-0.160909
0.210452
0.209074
0.201213
0.198405
0.214584
0.212619
0.217289
0.21413
0.217128
0.218523
-0.344307
-0.36929
-0.381721
-0.444556
0.0328454
0.290652
-0.0350996
0.00544923
-0.141497
-0.462395
-0.419589
-0.411887
-0.388398
-0.366128
-0.280841
-0.244554
-0.219421
-0.324157
-0.321384
-0.432727
-0.356653
-0.379053
0.204923
0.203883
0.210006
0.216951
0.162557
0.166147
0.133957
0.152647
0.137898
0.0839892
0.117094
0.0928793
-0.00453833
0.00165843
0.00457035
-0.196024
-0.301299
-0.0930194
-0.0404301
-0.0513976
-0.0453891
-0.0571068
-0.198022
-0.220743
-0.469759
-0.586702
0.667417
0.613908
-0.192713
0.206202
0.212603
0.209423
0.214105
0.217226
0.218116
0.215868
0.212479
0.20194
0.203802
0.199881
0.200295
-0.412125
-0.546585
-0.370793
-0.437317
-0.175879
0.321867
0.0643856
0.00490445
0.000294455
0.21593
0.617734
0.418377
0.425847
0.450967
-0.653716
-0.25385
-0.585491
0.0353536
-0.142832
0.376707
0.426628
0.447949
0.395553
0.346563
-0.429585
0.22833
-0.356079
-0.312944
-0.123615
-0.225875
0.418061
0.374352
0.380043
0.394527
0.413846
0.378434
0.357213
0.354553
0.390467
0.395456
0.188816
-0.032839
-0.0776598
-0.114766
0.355546
0.229796
0.285961
0.202301
0.205222
0.208123
0.206626
0.189647
0.1969
0.192726
0.197871
0.20099
0.210373
0.210781
0.206036
0.208493
-0.347683
-0.356031
-0.321526
-0.432089
-0.424781
-0.470588
-0.36403
-0.234863
-0.272961
-0.0749942
0.0356412
-0.259396
-0.371688
-0.340317
-0.312743
-0.130447
-0.106347
-0.208852
-0.118479
-0.119185
-0.137995
-0.0313832
-0.0284776
-0.426458
-0.364599
-0.354181
-0.412074
-0.260081
-0.18466
-0.181374
-0.482028
-0.517947
-0.421137
-0.374397
-0.306786
-0.323055
-0.336992
-0.275798
-0.175524
-0.186341
-0.257426
-0.458011
-0.347288
-0.380446
0.200149
0.201624
0.201734
0.212047
0.224153
0.239165
0.204876
0.182854
0.174421
0.177435
0.152695
0.162492
0.15733
0.170364
0.189699
0.196637
0.1962
0.198346
0.182576
0.184191
0.171866
0.174811
0.152592
0.135813
0.124925
-0.0917272
-0.0555665
-0.0848707
-0.0857532
-0.0224817
-0.0452355
-0.325081
-0.274315
-0.31791
-0.293713
-0.365213
-0.120539
-0.138743
-0.383253
-0.30783
-0.495612
-0.525847
-0.596256
0.577747
0.685241
0.505716
0.290532
0.294278
0.521525
0.616281
0.255919
0.427977
0.45798
0.233852
0.501815
0.211088
0.210602
0.208166
0.207635
0.209155
-0.328347
-0.22826
-0.210888
-0.163539
-0.0454689
0.0704799
-0.0231881
-0.149062
-0.0092208
0.0012246
0.316997
0.33358
0.277901
0.3031
0.301892
0.128903
0.204369
0.259451
0.21435
0.25788
0.279837
0.240805
0.270505
0.218799
0.176812
0.175643
0.121772
0.142504
0.120294
0.102189
0.200794
0.179742
0.189381
0.181102
0.200762
0.228586
0.22356
0.250034
0.262041
0.18614
0.148049
0.156843
0.18401
0.146401
0.159411
0.17397
-0.105049
-0.204886
-0.116584
-0.409066
-0.321328
-0.337197
-0.382827
-0.343177
-0.0563299
-0.757996
-0.728114
-1.36516
0.166157
0.644622
0.374951
0.347364
0.410881
0.388107
0.391552
0.41863
0.425102
0.344749
0.364192
0.366652
0.317442
0.344127
0.368691
0.366429
0.198345
0.0809745
0.0723675
0.0337341
-0.0882182
-0.0573348
0.145886
0.0682165
-0.0042493
0.000409457
0.164183
0.0555064
0.120487
0.158375
0.0919984
0.0485981
0.245496
0.313199
0.304668
0.278906
0.194062
0.205979
0.232519
0.268963
0.295292
0.33063
0.198081
0.203452
0.204691
0.202179
0.199686
0.202424
0.202389
0.204938
0.205871
0.208872
0.20779
-0.358455
-0.338163
-0.347709
-0.360991
-0.319786
-0.322098
-0.272062
-0.284317
-0.298167
-0.287512
-0.326965
-0.329263
-0.339147
-0.326417
-0.196837
-0.186941
-0.20041
-0.240618
-0.0593077
0.0765154
0.13886
0.022895
-0.0824313
-0.0578447
-0.0306453
-0.288844
-0.280494
-0.303061
-0.233632
-0.242766
-0.476165
-0.470712
-0.470453
-0.541517
-0.479954
-0.411846
-0.275938
-0.325497
-0.354427
-0.347858
-0.305384
0.184592
0.17829
0.180492
0.174804
0.173469
0.186956
0.190947
0.192473
0.197061
0.198627
0.190588
0.194911
0.198159
-0.347296
-0.217969
-0.276961
-0.33625
-0.251734
-0.189441
-0.228076
-0.205928
-0.272856
-0.265532
-0.309949
-0.432876
-0.375304
0.151019
0.143771
0.161787
0.376044
0.230285
0.146966
0.236873
0.340157
-0.0616125
0.140672
-0.0290616
0.552622
0.440074
0.582633
0.212635
-0.0889596
0.0627712
0.117466
-0.0806676
-0.0102298
0.0120114
-0.0986473
-0.0688285
-0.0398805
0.0617571
-0.061029
-0.09032
-0.336464
-0.152599
-0.0225352
-0.04475
0.0905087
0.155279
-0.075755
-0.151835
-0.194575
0.307446
0.328126
0.34692
0.31662
0.340664
0.263345
0.253895
0.272695
0.28232
0.276245
-1.09332
-0.801968
-1.74372
-1.0516
-0.604511
0.201628
0.155936
0.443755
0.331001
0.405578
0.387894
0.34513
0.309244
0.319195
0.354454
0.0568338
0.165761
0.139952
0.147065
0.050818
-0.0164948
0.282387
0.275845
0.313616
0.33805
0.303604
0.3381
0.195817
0.195327
0.19503
0.191748
0.189906
0.192036
-0.231522
-0.256433
-0.226887
-0.245804
-0.261749
-0.275919
-0.459223
-0.441519
-0.416457
-0.383427
-0.41436
-0.433619
-0.170021
-0.226216
-0.294787
-0.269417
-0.323513
-0.389227
-0.405634
-0.308662
-0.221093
-0.228324
0.0743655
0.326678
0.151828
0.322228
0.160027
0.217486
0.159079
0.15499
0.187616
0.0527599
0.127628
-0.109529
-0.61316
-0.519904
0.456924
0.477688
0.267596
0.0755264
-0.152652
0.040422
0.227917
0.166422
0.207107
0.274643
0.268925
-0.323803
-0.251596
-0.0087915
0.21827
-0.0973355
-0.104058
-0.108834
0.0567549
-0.0155077
)
;

boundaryField
{
    wall-4
    {
        type            zeroGradient;
    }
    velocity-inlet-5
    {
        type            zeroGradient;
    }
    velocity-inlet-6
    {
        type            zeroGradient;
    }
    pressure-outlet-7
    {
        type            fixedValue;
        value           uniform 0;
    }
    wall-8
    {
        type            zeroGradient;
    }
    frontAndBackPlanes
    {
        type            empty;
    }
}


// ************************************************************************* //
