/*--------------------------------*- C++ -*----------------------------------*\
| =========                 |                                                 |
| \\      /  F ield         | OpenFOAM: The Open Source CFD Toolbox           |
|  \\    /   O peration     | Version:  4.0                                   |
|   \\  /    A nd           | Web:      www.OpenFOAM.org                      |
|    \\/     M anipulation  |                                                 |
\*---------------------------------------------------------------------------*/
FoamFile
{
    version     2.0;
    format      ascii;
    class       surfaceScalarField;
    location    "26";
    object      phi;
}
// * * * * * * * * * * * * * * * * * * * * * * * * * * * * * * * * * * * * * //

dimensions      [0 3 -1 0 0 0 0];

internalField   nonuniform List<scalar> 
1300
(
3.75095
5.62643
-5.67122
3.75095
-5.61196
5.62643
-4.48495
4.48495
-1.13305
1.13305
1.87647
1.87449
-2.94766
2.94766
-2.2194
2.2194
-2.56513
2.56513
-5.24639
5.24639
-5.06784
5.06784
4.67605
-4.67605
-4.17608
4.17608
-1.55068
1.55068
-3.92643
3.92643
3.1701
-3.1701
-3.65435
3.65435
-0.332798
0.332798
-0.553552
4.30451
3.1974
3.1974
-2.2032
2.2032
-4.85955
4.85955
6.21811
-6.21811
8.45736
-8.45736
-2.78614
-3.40478
1.4673
-8.86599
-4.14466
-4.14466
-8.44041
8.44041
-2.81398
2.81245
2.94221
-2.94221
-1.7824
1.7824
-4.41632
-0.0686314
-4.41632
4.49207
-0.00711644
4.49207
-1.2661
0.133055
-1.2661
3.979
-3.979
0.961159
0.171889
0.961159
3.06446
-3.06446
-1.87716
3.75363
1.87379
-1.87181
6.17631
-1.87915
3.75363
-5.88883
5.88883
-3.20503
0.257368
-3.20503
2.74164
0.206027
2.74164
-6.56614
6.56614
-2.32077
0.101362
-2.32077
2.33677
-0.117371
2.33677
2.85085
-2.85085
-2.65817
0.0930407
-2.65817
2.48035
0.08478
2.48035
0.353565
5.27286
-5.97999
8.79245
-5.27286
0.0264789
5.20843
0.0379517
5.20843
-5.10594
0.0380982
-5.10594
5.01191
0.0559351
5.01191
4.77078
-0.0947237
4.77078
-4.78839
0.112339
-4.78839
-3.076
-4.01246
-4.238
0.0619256
-4.238
-1.55871
0.0080263
-1.55871
1.50557
0.0451086
1.50557
-3.52478
3.52478
-4.29269
0.366255
-4.29269
3.12479
0.0453065
3.12479
1.86852
1.88244
5.61947
-5.61947
2.44937
-3.22448
-0.429871
-3.22448
-4.04949
-4.40787
4.04949
-0.39514
-0.602035
0.269237
-0.602035
3.15915
0.0382475
3.15915
2.37875
0.101592
-2.37875
0.175552
3.25269
-3.25269
1.58291
0.620297
1.58291
-5.56912
5.56912
4.95205
0.0598569
-4.95205
0.0925009
6.15662
0.0614874
6.15662
-6.19958
-0.0185268
-6.19958
2.87861
-6.28338
-3.71222
4.15368
0.0223983
-4.15368
0.00902273
2.91199
0.0302255
2.91199
-2.92316
2.92316
-2.98241
0.0401961
-2.98241
-2.19011
0.407707
-2.19011
1.47393
0.308471
1.47393
-4.28758
-0.128745
-4.28758
-4.4287
0.13601
4.4287
0.0633712
1.01628
-1.01628
-1.4051
0.138996
-1.4051
-4.12084
-0.16674
4.12084
-0.141836
-3.86792
-0.111079
-3.86792
-3.02312
0.0407166
3.02312
0.0413368
3.11239
0.0467659
-3.11239
0.0479274
-1.87083
3.75326
-1.88013
3.75392
-5.50888
-0.379953
-5.50888
6.19747
-0.308641
6.19747
3.56363
0.362805
-3.56363
0.358596
2.5682
0.173436
2.5682
-6.63486
0.0687205
-6.63486
6.2856
0.280535
6.2856
2.45401
0.11419
-2.45401
0.133245
2.5261
-0.189323
2.5261
2.85979
-0.00893838
2.85979
-2.85918
0.00832289
-2.85918
2.8048
-2.8048
2.73617
0.0686266
-2.73617
0.0780073
-11.1327
11.1141
-0.034963
-11.0977
5.17347
5.17347
4.2031
0.567675
4.2031
-5.00149
0.213099
-5.00149
2.84943
-6.56166
3.92418
-7.00019
3.89027
-12.7563
3.29738
-7.30985
5.14644
-5.14644
4.56931
0.57713
-4.56931
0.331307
-1.57995
0.0212441
-1.57995
-2.91251
-0.612265
-2.91251
4.18782
-0.663042
4.18782
-3.02965
3.02965
-3.07837
0.0487143
3.07837
0.0464234
2.85521
-0.329109
-2.85521
-0.36927
0.779814
0.181346
-0.779814
0.177778
3.47209
-0.2194
3.47209
-3.04823
-0.204455
-3.04823
-1.58535
0.00540103
1.58535
-0.00244564
-5.81606
0.246947
-5.81606
-11.1908
0.093058
-11.1528
-6.10652
-6.10652
2.33389
11.1263
-2.88372
0.0245484
2.88372
0.0282614
2.97736
0.0522965
-2.97736
0.0541997
-2.8659
0.0610943
2.8659
0.0572622
-2.57144
0.381327
-2.57144
-1.05345
1.05345
-1.24303
0.189581
1.24303
0.230905
1.25399
-0.237714
1.25399
1.46934
0.0362313
-1.46934
0.0642403
-3.76391
-0.104014
-3.76391
6.41646
-0.218984
6.41646
-2.92284
-0.125397
2.92284
-0.0630461
-0.0333329
11.1475
-5.14014
0.0341964
5.14014
-11.209
11.2432
-3.24789
0.676451
3.24789
0.955211
5.29136
0.277756
-5.29136
0.289871
5.77605
0.509555
-5.77605
0.629609
-2.4192
-0.49331
-2.4192
-4.92319
-0.585692
4.92319
-0.735369
-11.4749
-0.202814
11.6777
-11.419
6.01888
0.137741
-6.01888
11.3809
-0.96156
-0.0547165
0.961559
0.0918886
1.56519
-0.311203
1.56519
3.66148
-0.189391
-3.66148
-0.102426
-6.54842
-0.0864369
6.54842
-0.131966
-1.97491
-0.444287
1.97491
-0.409722
-4.26675
4.305
1.90956
-2.4803
-3.80309
-6.88817
1.85177
1.90149
4.30115
-8.0728
-4.68346
-8.06378
7.26868
-6.97881
-9.28563
9.1909
7.56536
-7.67643
-5.78477
5.8312
6.48191
-6.44057
1.8791
1.87453
7.93562
-7.67825
-15.6471
15.2672
6.21906
-6.1177
15.8584
-15.7897
-18.0153
18.5249
-5.74242
5.83546
-6.68676
6.69508
-6.87045
6.8074
-2.28413
-4.71605
11.6434
-11.5815
8.64455
-9.07442
-8.50653
8.87279
3.38253
0.922471
3.42929
-1.88235
3.76144
-1.87129
3.78085
4.02707
-6.3112
2.53458
-6.33767
5.04318
3.60137
-4.64804
-2.24013
-5.9188
5.94903
-5.82169
5.87895
8.8984
-8.96703
-1.88509
3.75962
-1.86883
3.77032
-3.42529
-2.35948
3.37999
0.921161
6.80163
4.84181
-6.82403
-1.23976
-7.78164
7.59225
-8.06291
7.85845
-0.4452
5.8212
-5.376
4.41435
-1.55623
7.37743
5.71245
5.92555
5.86744
-5.58968
1.11137
-6.48737
-6.39487
-2.54567
2.68467
2.51689
-2.345
5.93162
1.63374
5.78978
-5.54282
-2.13362
-5.64683
3.82122
2.00998
3.86993
4.07555
2.40636
4.11627
3.03132
-3.03505
0.00372523
-3.05657
6.08789
0.724574
-5.41605
-4.49489
4.94119
2.99443
5.14722
-5.50418
-2.17408
-5.14558
-9.52035
-6.12678
-10.106
10.0965
5.17063
9.7879
-11.9452
11.8132
3.66824
2.55082
3.55087
-4.3108
-1.8069
-4.17755
12.7263
-3.43418
-9.29216
-10.5101
-7.50525
10.2296
5.62888
10.7591
7.76582
11.3887
4.81969
7.90666
-10.4486
2.94333
-3.87423
-1.86819
-3.79622
3.71933
2.11614
3.80411
-4.2044
-2.48236
-4.17985
-4.25127
-2.61918
4.2602
2.43488
-4.32769
-3.73522
4.45309
2.35432
3.933
-8.61646
3.37685
-8.0929
-8.70968
-2.87183
-8.37837
5.24811
1.31449
-6.5626
-1.06309
9.6409
-6.03953
7.40077
-4.54196
-4.53245
-4.91123
-6.79921
-1.70732
-6.6632
-8.85188
8.35857
-9.16546
8.50242
12.7304
-5.70628
-7.0241
-3.96826
-2.47231
3.92033
-0.49104
-3.71228
3.716
0.0491655
3.83001
4.75248
4.26144
-3.8865
-1.93518
-3.8323
3.83335
2.0456
3.89445
6.7301
2.16829
6.72299
-6.41642
-2.55061
-6.54517
9.10506
-8.69736
2.95306
-2.94766
5.25338
2.60507
-5.03398
-2.74767
6.1162
-3.067
-3.0492
-12.2135
10.571
1.64251
-4.83606
-0.421709
-0.0889112
-5.5041
-3.78153
5.39176
0.533786
11.1048
7.32324
-5.51408
5.76103
6.16367
6.22352
-0.171344
5.85503
-5.17858
5.36374
-2.47926
-2.88448
5.28407
-5.45081
-1.26109
-5.28711
4.02601
0.338969
1.76526
-1.49603
-2.02641
-0.519267
-1.96217
1.4918
1.02509
1.67314
0.993384
1.69129
-2.92602
0.520659
2.40536
-1.93264
-1.82434
-3.67962
-1.02091
4.70054
5.53581
2.05644
-5.43338
-0.21345
2.74292
-2.69782
-0.810472
-2.86915
2.09201
-2.90248
-3.53975
-1.90704
5.44679
-3.37059
-0.461715
3.31829
0.55164
-3.82499
-2.09382
3.78479
0.331478
-3.12449
6.18897
-3.06448
-5.05968
2.52938
3.55851
4.53936
-4.7903
2.44626
2.34405
-1.23179
4.15088
0.996337
4.32432
-6.72442
4.55034
5.72908
3.14371
-6.09189
0.946307
-5.77811
8.49402
-7.3055
-1.18852
4.11221
4.38181
7.18766
5.54272
-5.74741
12.9351
-1.15746
-6.14804
6.93557
-3.79186
4.75424
-8.5461
-10.297
4.14892
-9.20274
10.9501
-1.74736
-3.5998
-8.3454
12.8025
-1.22352
-11.579
8.56439
-4.08214
-4.84181
8.92395
-7.51632
6.64872
-1.43187
-5.21684
-10.1228
-5.66688
10.2093
1.60395
-11.2838
14.2272
-3.37719
3.19325
0.357626
3.00392
3.2845
-5.68948
2.40499
4.23183
-5.6637
1.84479
-7.53427
-7.21061
11.7928
-4.58221
-10.0824
-10.2852
0.202727
2.08437
12.1428
-9.85019
6.69772
3.15247
3.31062
0.583826
-3.37925
-0.416977
0.308104
4.55011
-4.85822
4.11221
4.2138
3.42012
1.12999
3.8372
2.11183
-3.86546
-0.314387
-4.13296
1.51378
-1.69808
-3.65216
5.16594
-4.08827
0.436104
-2.73157
-3.54318
6.27475
-4.59976
3.03998
3.14899
5.08558
-4.9205
1.37732
-2.42154
-2.49896
2.71095
-4.40903
1.95659
3.20936
4.3109
0.575687
6.61243
5.18038
-7.92692
-0.165979
10.0222
-8.78244
3.22394
8.16476
-9.92166
-0.363513
-8.74189
-0.197059
-5.84247
-6.75966
5.05762
-6.76494
-3.48849
6.14499
0.577998
-6.20836
-0.454841
-6.00341
-2.84847
-6.44769
-3.06327
-6.10219
-8.81068
-1.64412
-7.16656
6.71445
-6.64896
-3.45708
7.38433
1.11809
-7.39137
7.33665
-7.46874
7.15754
0.0944805
3.62152
4.35592
1.88361
-2.38973
4.27335
-5.0678
7.2361
-8.47478
3.40697
3.96462
-6.51523
-4.51016
5.04765
4.05741
5.35612
8.97866
-10.5362
1.55758
-10.8625
12.1721
-1.30961
-16.6537
5.79115
-7.675
2.68967
0.263395
2.71091
0.673733
2.41266
-3.0864
-2.27393
-2.27638
-2.30679
-3.37029
5.67708
1.13732
-3.36431
2.22699
-3.46789
4.60521
-0.0685715
-3.29574
5.24805
-2.83539
5.51145
-3.53646
1.97499
3.28082
5.60254
-2.32172
4.30177
-1.6967
1.81619
-4.13791
-1.5541
-3.00358
5.11972
-3.27116
3.70727
-0.261503
3.96877
-4.05398
0.986973
-0.633853
3.57995
3.7555
4.25484
-3.12485
2.93227
-4.62896
-1.20564
-4.05327
-0.843918
-0.314609
-3.77646
4.09107
6.07542
-6.39003
-5.28049
9.60127
-4.32078
7.74149
-5.41796
-2.32352
-4.28847
-4.40889
3.90714
1.94789
9.68938
0.211564
-5.62953
-4.96701
-4.0118
3.22374
2.13999
-1.98356
3.62607
2.07247
-0.307207
0.576319
1.09682
1.86209
-1.28577
0.221423
1.64067
-1.2746
2.01
0.732925
-2.04623
0.0840638
-1.39587
3.48788
1.00949
-2.03458
0.748812
1.00829
-3.48755
4.78659
-2.47292
-2.31368
5.79488
1.15413
-3.62705
4.13297
-3.794
2.31722
-3.33813
-1.30984
-5.10384
-3.4701
-2.48438
4.71137
-3.19271
5.24915
1.17162
-5.0357
6.20732
-3.55845
1.65141
-3.04287
3.7758
-1.04676
-1.99611
2.75875
2.68804
-2.91563
0.0464832
-0.156883
2.29888
-2.45576
-0.603597
-2.53624
-4.5732
4.90468
-2.1065
4.55276
2.16684
-1.91365
6.46642
1.8116
-3.72525
-3.24808
-3.70979
-1.3812
3.15815
-0.179488
-3.99806
-5.39633
3.88387
0.440447
-6.97522
7.77846
-0.803235
-3.98079
-0.569546
4.68176
-5.86523
0.201526
-4.02044
3.75802
4.75436
5.1948
-11.4381
-0.140957
-6.26744
1.16226
-7.4297
5.54407
-3.63096
7.77988
-10.4222
6.96512
-9.30411
6.59136
-0.838338
6.48841
-4.08342
2.80376
-8.47064
-6.86669
5.08197
-2.53115
5.4396
-3.01561
8.45521
-6.3928
5.03579
3.41942
-1.65917
-3.25206
-4.45854
2.79937
0.577247
3.58117
4.97416
-2.86233
4.65977
2.23162
-4.65316
-2.17741
-6.49946
1.84629
-3.35046
-1.91097
3.75727
3.1746
3.75843
1.25831
-3.34145
9.06122
-8.85849
-4.47901
-2.28065
5.15618
-2.35681
5.21874
-7.49939
-0.623722
4.89756
-0.854441
-4.04312
0.808719
-4.29721
1.65216
-5.94936
5.11278
-5.56762
2.19172
-9.86671
-5.19965
-5.10776
-2.2369
-5.23185
-7.65824
5.42134
-1.86709
5.46956
-8.67491
7.82047
-3.4972
8.91854
-5.41179
-1.0359
5.82152
1.33602
10.2546
0.130051
-4.64021
-1.8892
4.00252
-2.11331
1.33454
-3.6464
0.356111
2.41573
3.37915
-6.44174
-0.073489
-4.7137
-3.92609
7.98351
5.67517
11.7506
1.21436
9.19184
-1.20833
10.4062
4.14779
4.3787
-3.02835
4.58593
1.06271
4.46969
-0.846942
2.82193
1.86397
1.872
0.825818
2.29632
1.45918
3.28329
0.196895
-2.07948
4.64705
-8.65885
-0.982483
-8.09117
1.09973
5.73309
-4.63335
3.18331
-1.04331
1.06999
0.0758548
-1.66084
1.58499
-2.80862
-1.96805
-0.327382
-1.60601
2.35482
1.88187
-2.02744
-0.781184
0.318448
-3.78855
3.01968
-2.9732
-0.285156
5.92216
-2.71926
0.263493
-1.06785
-2.27274
-2.79201
2.70795
6.17475
0.29167
3.11026
5.19635
3.10253
0.2402
3.96243
-5.70979
-3.57185
-5.85074
-0.306677
4.37508
2.87529
9.26751
6.29471
3.9379
-3.56149
-12.42
6.56021
-1.97428
5.2506
-1.20748
-4.74188
4.97216
2.26393
-5.55016
-0.0174623
-4.75934
-6.73362
-0.550066
8.37054
-9.7045
8.6686
5.82013
1.34643
-4.40568
-0.702084
4.21609
0.162602
10.5688
-1.12197
-6.85763
7.9796
-4.61111
3.62863
0.858922
2.76714
2.44391
1.4006
-5.45703
-10.0904
-1.92637
-1.56118
-4.24004
0.460495
-2.34237
6.27168
-2.64305
3.94816
5.33655
6.40654
-2.1727
-4.21732
6.49348
-2.54533
3.86121
)
;

boundaryField
{
    wall-4
    {
        type            calculated;
        value           uniform 0;
    }
    velocity-inlet-5
    {
        type            calculated;
        value           uniform -3.75095;
    }
    velocity-inlet-6
    {
        type            calculated;
        value           uniform -5.62643;
    }
    pressure-outlet-7
    {
        type            calculated;
        value           nonuniform List<scalar> 8(5.67122 5.61196 6.19091 7.39869 7.08847 6.59083 6.77362 7.18765);
    }
    wall-8
    {
        type            calculated;
        value           uniform 0;
    }
    frontAndBackPlanes
    {
        type            empty;
        value           nonuniform 0();
    }
}


// ************************************************************************* //
