/*--------------------------------*- C++ -*----------------------------------*\
| =========                 |                                                 |
| \\      /  F ield         | OpenFOAM: The Open Source CFD Toolbox           |
|  \\    /   O peration     | Version:  4.0                                   |
|   \\  /    A nd           | Web:      www.OpenFOAM.org                      |
|    \\/     M anipulation  |                                                 |
\*---------------------------------------------------------------------------*/
FoamFile
{
    version     2.0;
    format      ascii;
    class       volVectorField;
    location    "26";
    object      U;
}
// * * * * * * * * * * * * * * * * * * * * * * * * * * * * * * * * * * * * * //

dimensions      [0 1 -1 0 0 0 0];

internalField   nonuniform List<vector> 
918
(
(0.985166 -0.00050209 0)
(0.00500471 2.96626 0)
(-0.0252337 1.50051 0)
(0.979702 0.00214867 0)
(0.00330829 1.48329 5.00001e-20)
(-0.00703655 2.94878 -1.86444e-18)
(0.843727 1.18398 7.20812e-19)
(0.378172 0.171597 -9.20673e-21)
(0.999906 -0.000290144 0)
(0.0515505 0.85069 0)
(-0.0207793 0.624102 0)
(0.733349 -0.00916152 0)
(0.0111335 2.93031 0)
(0.00231545 2.79469 0)
(-0.0174088 3.16229 1.07117e-18)
(0.0295513 1.25101 1.94508e-19)
(0.478128 0.0710178 5.76566e-19)
(0.190377 1.21688 6.23769e-19)
(0.962873 0.00498785 0)
(-0.0328209 1.04709 0)
(0.105096 0.215046 -4.64027e-19)
(1.00201 -0.00498417 0)
(1.00021 -0.00980282 0)
(0.975709 -0.00644962 0)
(0.628311 -0.0433887 0)
(0.0165727 2.63583 0)
(-0.0149675 2.91009 6.43673e-19)
(-0.051783 1.48541 0)
(-0.0608314 1.6445 0)
(-0.035021 1.49038 0)
(-0.00626123 1.9855 0)
(0.0359525 1.52227 -3.9522e-20)
(0.0261363 1.31114 0)
(-0.0206154 2.98759 -6.5188e-23)
(-0.0166981 3.0053 1.44915e-18)
(0.00210726 3.0002 0)
(0.869972 -0.00944776 0)
(0.401992 0.94008 -2.46032e-20)
(0.820162 1.20324 -1.00845e-18)
(0.969327 1.03745 9.47393e-19)
(0.688456 1.29963 -1.67195e-19)
(0.687519 1.28973 9.35731e-19)
(0.418545 0.265692 8.98257e-21)
(0.409607 0.155441 0)
(1.15713 0.559572 0)
(0.379837 0.270423 4.16346e-20)
(0.330526 0.172464 -4.3209e-20)
(0.919608 -0.00751977 0)
(1.00029 0.000154708 0)
(0.999911 0.000347004 0)
(1.00364 -0.00779326 0)
(1.00096 -0.000959578 0)
(1.00017 1.8256e-05 0)
(0.0763705 1.77761 -2.22773e-19)
(0.0430766 0.992364 0)
(0.0961671 0.935112 0)
(0.02112 0.93465 0)
(0.0415108 0.784107 0)
(-0.0411531 1.95239 0)
(0.0190999 0.758677 0)
(0.0103231 0.643316 0)
(-0.0212825 0.751669 0)
(-0.0295813 0.669446 0)
(0.831159 -0.0135483 0)
(0.853091 0.0238012 0)
(0.766134 0.00206337 0)
(0.830581 0.0272461 0)
(0.711684 -0.0172831 0)
(0.0147002 3.0004 6.82464e-19)
(0.0115248 3.00795 0)
(0.00612943 3.00283 0)
(0.0135549 2.99735 7.6086e-24)
(0.00798601 2.95845 -1.01431e-18)
(0.0144816 2.98202 0)
(0.0108043 2.90364 0)
(0.0250595 2.93022 1.3594e-24)
(0.00425943 2.82508 0)
(0.03158 2.91571 0)
(-0.0061353 2.74528 0)
(0.31116 3.56244 0)
(-0.132142 3.64455 0)
(0.141146 3.25311 -9.9687e-19)
(-0.0118404 2.98606 0)
(-0.117904 1.89279 0)
(0.0687146 1.44104 -1.91882e-19)
(-0.0140877 1.24491 2.33777e-19)
(0.549757 0.155451 -1.98644e-19)
(0.479363 0.0402493 -1.92117e-19)
(0.528696 0.180483 -5.99416e-19)
(0.463065 0.0923443 -4.02329e-19)
(0.217027 0.908301 0)
(0.269928 1.35815 -6.52564e-19)
(0.387992 1.30736 1.0718e-18)
(0.987615 0.00855995 0)
(0.942171 0.00591395 0)
(1.0003 0.000576854 0)
(1.00287 0.00930485 0)
(1.00301 0.00842872 -1.14039e-18)
(0.991925 0.00971086 8.61051e-19)
(-0.0608741 1.13123 0)
(-0.047726 0.934133 0)
(-0.0762891 1.45724 0)
(-0.0471535 1.26242 0)
(-0.0196809 1.17393 0)
(0.15724 0.223612 1.43176e-19)
(0.207489 0.200533 0)
(0.993513 -0.00839413 0)
(0.954357 -0.00647319 0)
(0.793759 0.0302212 0)
(0.755593 0.0402933 0)
(0.682938 -0.0330229 0)
(0.965688 -0.00355413 0)
(0.69188 0.0580127 0)
(0.531157 -0.020174 7.69261e-19)
(-0.0359561 2.86529 3.30976e-19)
(0.0425652 2.90908 0)
(0.0556326 2.88396 0)
(-0.00473591 2.69811 0)
(-0.0132083 2.98512 5.91435e-19)
(-0.0181608 2.89522 0)
(-0.0154403 2.9881 -1.87165e-18)
(-0.0133494 2.9252 6.4665e-19)
(-0.110609 1.70166 0)
(-0.108616 1.75419 0)
(0.0687234 1.45414 5.04161e-21)
(0.0553913 1.45339 0)
(0.0138417 1.27653 0)
(0.937347 -0.00764588 0)
(0.855256 -0.00929403 0)
(0.864492 0.00730988 0)
(0.948719 -0.00786444 0)
(0.883292 -0.00852493 0)
(0.515338 1.1352 2.0145e-20)
(0.566236 1.188 0)
(0.363714 0.881795 5.38954e-21)
(0.306269 0.742156 0)
(0.929273 1.07639 -2.7397e-19)
(1.04285 0.87711 5.60763e-19)
(0.381872 1.39725 0)
(0.542534 1.36688 0)
(0.546251 1.32777 0)
(0.102587 0.167784 -1.39053e-19)
(0.46175 0.251099 0)
(0.445108 0.144632 1.15498e-19)
(1.01303 0.931016 0)
(1.08104 0.777619 0)
(1.1062 0.719791 -4.90693e-19)
(1.13721 0.61882 0)
(1.1872 0.403866 5.75253e-20)
(0.957275 -0.00863546 0)
(0.962224 -0.0100817 0)
(0.901303 -0.00813998 0)
(0.984114 -0.0091769 0)
(0.97456 -0.00940007 0)
(0.936989 -0.00628159 0)
(1.00018 0.00232953 0)
(1.00089 0.00142621 0)
(0.999907 0.000851337 0)
(0.0348459 2.04084 1.45598e-19)
(0.122134 1.71693 0)
(0.0226361 2.15203 1.18266e-19)
(0.0508664 1.85073 -3.86329e-20)
(0.137213 1.20744 -5.16625e-19)
(0.045819 1.08029 0)
(0.095042 1.07842 0)
(0.0162917 0.871131 0)
(-0.00758953 0.724743 0)
(-0.0425352 2.16434 2.8265e-21)
(-0.0126253 1.96882 0)
(-0.0751174 2.09078 1.81023e-19)
(-0.0630855 1.86769 -3.62548e-19)
(0.000459852 0.844341 0)
(0.0202138 0.807787 0)
(-0.000340122 0.683294 0)
(-0.0398554 0.795015 0)
(-0.0366266 0.729434 0)
(0.927096 0.00839496 0)
(0.838783 -0.0107075 0)
(0.921167 -0.000656798 0)
(0.83744 -0.0114459 0)
(0.813888 0.0052767 0)
(0.904149 0.0177379 0)
(0.882291 0.0204414 0)
(0.789801 0.00317738 0)
(0.00576474 3.06481 -5.99418e-21)
(0.0164307 3.05789 0)
(0.0146227 2.96912 0)
(0.00855749 2.87637 0)
(0.929838 3.98246 0)
(1.24563 3.31402 1.01105e-18)
(0.0708716 3.0783 0)
(-0.0274969 2.90814 0)
(-0.161813 1.74741 0)
(-0.164714 1.86399 0)
(-0.132339 1.80546 0)
(-0.0365881 1.99105 -3.13586e-21)
(-0.131598 1.9403 0)
(-0.0804811 1.92234 0)
(-0.0805514 1.5258 1.37898e-20)
(-0.0550955 1.61399 -2.2296e-19)
(0.0150608 1.48615 -2.39247e-19)
(-0.0641271 1.33443 0)
(0.578346 0.124566 2.90972e-19)
(0.495552 0.0151406 -2.84397e-19)
(0.25976 1.54095 0)
(0.262419 0.682795 -2.11344e-19)
(0.178392 1.63076 -7.09011e-19)
(0.226223 1.15991 7.10788e-19)
(0.902648 0.00666991 0)
(0.967628 0.0109542 0)
(0.974774 0.0107859 0)
(0.923676 0.0067005 0)
(-0.0548761 0.874678 0)
(-0.0541588 0.991517 0)
(-0.0573295 0.826343 0)
(0.324351 0.262029 3.80367e-19)
(0.26693 0.238735 -4.58026e-19)
(0.276701 0.185422 0)
(1.09343 0.0866964 -3.06034e-21)
(1.07725 0.0404046 0)
(1.00508 0.041383 0)
(0.900648 0.00239728 0)
(0.601589 0.0957413 0)
(0.631936 0.0700473 -1.23815e-18)
(0.51084 0.000336467 4.72546e-19)
(0.00940555 2.98159 4.19237e-19)
(-0.0326448 2.86664 4.70808e-20)
(0.00373441 3.05025 -1.29572e-20)
(0.0200239 3.04342 4.65542e-19)
(-0.0149849 2.99655 2.15079e-20)
(-0.0129878 2.94943 -8.70338e-23)
(-0.0172942 3.01198 -4.07835e-19)
(0.014858 3.0239 2.9531e-19)
(0.00735907 3.03687 -4.61241e-19)
(0.93046 -0.000952639 0)
(0.937355 -0.00373898 0)
(0.843521 -0.00810466 0)
(0.956964 0.0114343 0)
(0.943574 0.012415 0)
(0.882544 0.00638504 0)
(0.919667 0.0153709 0)
(0.927627 0.0143261 0)
(0.840277 0.00613945 0)
(0.721754 1.41677 3.18788e-19)
(0.756193 1.52674 0)
(0.208823 0.355147 2.71091e-20)
(0.184813 0.628956 2.24877e-19)
(0.255614 0.706833 -1.29272e-19)
(0.271623 0.561608 2.42875e-19)
(0.308285 0.730081 7.85066e-19)
(0.1151 0.197584 2.20942e-19)
(0.508451 0.200947 4.31467e-19)
(0.491009 0.225214 1.09116e-19)
(0.458092 0.120497 2.17673e-19)
(1.17546 0.460642 2.91156e-19)
(1.18885 0.255877 3.02292e-19)
(0.00338743 2.1635 1.86888e-21)
(0.0523173 1.91389 0)
(0.958176 0.0315687 0)
(0.928863 0.0166253 0)
(0.858386 -0.00850677 0)
(0.0112758 3.0747 0)
(0.0200172 2.94421 7.98512e-19)
(0.0164727 2.95652 0)
(0.0061141 2.85065 -7.92166e-19)
(0.00619242 3.09174 1.89245e-19)
(0.00705839 3.08213 0)
(0.789881 1.83077 -2.37113e-19)
(1.25326 2.51151 6.52373e-19)
(0.772355 1.97109 -1.48519e-18)
(0.0206464 2.98338 -3.07092e-19)
(0.0363285 3.00441 0)
(-0.0331332 2.88054 0)
(-0.119485 1.96606 -8.73219e-21)
(-0.104208 1.78546 4.10344e-19)
(-0.101197 1.71907 -6.59786e-21)
(0.274532 1.34893 6.9056e-19)
(0.212127 0.46052 -4.75962e-19)
(0.0624762 1.96257 4.61526e-19)
(0.137775 1.85103 -5.80615e-19)
(0.178455 1.45559 8.60264e-20)
(0.00493043 3.11881 -9.92441e-19)
(0.0110766 3.11924 1.08292e-18)
(-0.00892505 2.98087 5.13796e-19)
(-0.00409684 2.9776 -4.53997e-19)
(-0.0214747 2.88118 -5.23295e-19)
(0.00848272 3.09983 -1.38494e-18)
(0.00196215 3.10493 1.38793e-18)
(0.24797 0.64449 0)
(0.20627 0.633687 -4.39895e-19)
(0.104998 0.213823 1.99083e-19)
(0.330402 0.851209 6.63928e-19)
(0.174762 0.237942 -1.01675e-18)
(1.18026 0.173417 -5.47371e-20)
(1.18884 0.309112 0)
(1.16877 0.121147 1.17361e-19)
(-0.00312733 2.19481 2.40781e-21)
(-0.000928684 2.18704 0)
(0.029501 1.95102 0)
(0.337598 1.2463 -2.50407e-19)
(0.355172 1.0641 -5.33373e-19)
(0.185917 0.332046 9.19279e-19)
(1.00583 -0.01092 0)
(1.00764 -0.00767208 2.08127e-19)
(-0.138821 1.64488 0)
(-0.143744 1.61936 0)
(1.00222 0.00353973 1.8363e-21)
(1.00369 0.00942627 4.28285e-19)
(-0.0314107 2.01477 4.01373e-21)
(-0.0120705 2.04389 0)
(0.0373023 3.1809 1.19308e-19)
(0.399185 3.49756 0)
(1.12665 0.645491 6.26967e-20)
(1.01297 0.0130888 -2.08309e-21)
(1.02111 -0.0105652 0)
(1.00173 0.000137867 1.00544e-22)
(0.104558 1.35643 0)
(0.143812 2.57605 0)
(0.0455977 1.08745 0)
(-0.0117201 2.62694 -2.12051e-19)
(-0.142645 2.62769 -2.32834e-19)
(1.00711 0.0283523 2.65681e-21)
(1.05721 -0.00404982 0)
(1.08094 0.0204766 0)
(-0.184325 1.86606 0)
(-0.104285 2.28135 0)
(-0.236085 1.34244 0)
(0.275591 1.46624 -4.29963e-19)
(1.01124 -0.00972004 0)
(1.00934 -0.0149885 0)
(1.00251 0.000702517 2.65665e-19)
(1.00548 -0.00489876 -3.12526e-19)
(1.0012 -0.00103953 0)
(-0.243805 1.78945 0)
(-0.187555 1.65518 0)
(-0.195809 1.74331 0)
(-0.221011 1.36527 0)
(-0.190302 1.5086 0)
(-0.167115 1.43511 0)
(1.03444 -0.00707813 0)
(1.02074 0.0153168 -1.06433e-21)
(0.784111 1.25654 5.12638e-19)
(1.0022 0.000374316 -2.63377e-19)
(1.00411 0.00527307 3.12208e-19)
(1.00116 0.00205028 0)
(1.01292 0.0102434 2.58787e-19)
(1.00796 0.00820293 -3.20773e-19)
(1.00871 0.0145377 0)
(-0.0829002 2.26854 0)
(-0.0372334 2.13924 -1.19597e-19)
(-0.02691 2.15792 1.01126e-19)
(1.1982 0.260078 -5.72488e-20)
(1.1358 0.0893572 0)
(0.0476379 3.07742 -5.16622e-19)
(0.0667861 2.85219 -4.09988e-20)
(0.144775 3.19504 8.29397e-19)
(0.139305 3.22422 -5.20669e-21)
(0.137648 3.23806 0)
(0.0203633 3.13809 1.13261e-19)
(0.0783252 3.16107 5.03445e-19)
(0.0708586 3.18789 -2.18513e-19)
(0.0238954 3.12887 0)
(0.658453 0.321347 0)
(0.57769 0.371897 0)
(1.09783 0.674766 -2.42137e-19)
(1.0955 0.807868 3.76581e-19)
(1.15622 0.565927 0)
(1.18628 0.51205 0)
(1.01616 0.0132653 -4.78831e-19)
(1.01498 0.0141469 5.98051e-19)
(1.02505 -0.0104392 0)
(1.02299 -0.0124607 0)
(1.00662 0.00239128 0)
(1.01057 0.00361205 0)
(1.00438 0.001811 0)
(1.00981 0.00621425 0)
(1.00787 0.00579782 0)
(1.00449 0.00451368 0)
(0.0941472 1.35751 0)
(0.0879445 1.31601 0)
(0.11946 1.38319 0)
(0.138262 1.40719 0)
(0.146429 2.59751 0)
(0.189221 2.65611 -2.06867e-19)
(0.0991172 2.65466 0)
(0.0794204 2.65716 -1.1561e-20)
(0.0272834 2.68071 2.08025e-19)
(0.0299934 1.04508 0)
(-0.0351014 0.943876 0)
(0.126091 1.12726 0)
(0.0489337 1.07526 0)
(0.0440519 2.09477 3.43163e-19)
(-0.128991 2.64771 -2.94528e-19)
(-0.0316714 2.68024 -3.56691e-19)
(-0.0924057 2.67556 0)
(-0.187907 2.65793 6.22166e-19)
(-0.211117 2.61994 3.79475e-19)
(0.0774381 2.17226 -2.25123e-19)
(-0.0939527 2.55878 4.16695e-19)
(-0.00888982 2.53489 4.29076e-19)
(1.01563 0.0349495 4.77592e-19)
(1.00857 0.0205278 -5.86896e-19)
(1.00745 0.0387449 -4.8591e-19)
(0.98948 0.0180821 6.28657e-19)
(1.05786 0.00182612 0)
(1.04516 -0.0121825 0)
(1.08011 0.0266178 0)
(1.06409 0.00476859 0)
(1.06025 -0.00415063 0)
(1.11981 0.0795325 0)
(1.09245 0.0436049 0)
(1.094 0.036524 0)
(-0.12541 2.03089 2.24696e-21)
(-0.213846 1.96659 0)
(-0.151784 1.96315 0)
(-0.167228 2.41244 -1.20967e-19)
(-0.154922 2.4173 6.60685e-21)
(-0.351195 1.87656 -7.69669e-20)
(-0.268879 1.79958 7.97071e-20)
(-0.302869 1.58142 0)
(-0.283433 1.6167 0)
(-0.246868 1.6441 0)
(-0.250694 1.2912 0)
(-0.149387 1.12432 0)
(0.371635 1.47775 8.17209e-19)
(0.404803 1.49052 3.24362e-19)
(0.591314 2.43982 -1.57418e-19)
(0.407146 2.53322 4.31119e-19)
(0.352774 2.08529 -4.49139e-20)
(1.02097 -0.00855291 0)
(1.01546 -0.00994531 0)
(1.01479 -0.0156314 0)
(1.0078 -0.0014648 0)
(1.00494 -0.00115468 0)
(1.00772 -0.00491071 0)
(1.00922 -0.00376001 0)
(1.01405 -0.00452955 0)
(1.02151 0.0157283 4.5661e-19)
(1.01801 0.0157425 -5.88752e-19)
(1.02212 0.0175416 -4.57211e-19)
(1.01942 0.0163196 5.7236e-19)
(0.752891 1.30736 0)
(0.687566 1.36113 6.00501e-19)
(0.862635 1.19934 3.51403e-19)
(0.907933 1.15596 -4.67453e-19)
(1.15861 2.61728 -5.16534e-19)
(0.831669 0.0985793 3.01903e-19)
(1.13638 0.103527 0)
(1.17983 0.184655 5.02307e-20)
(1.1648 0.158038 2.24929e-21)
(0.995346 0.12731 0)
(0.141019 2.96396 1.5352e-19)
(0.119453 2.86968 -6.74597e-19)
(0.030735 2.36569 4.7925e-19)
(0.0958099 0.0461125 -2.01471e-19)
(0.344107 3.42624 -4.31219e-19)
(0.19759 3.31746 0)
(0.239877 3.36051 5.61585e-19)
(0.250869 3.03696 -8.06256e-19)
(0.344924 3.19632 0)
(0.00775638 3.12052 2.64848e-20)
(0.0183646 3.12944 -3.34363e-19)
(0.0163802 3.12545 4.92142e-19)
(0.0368847 3.13959 0)
(0.0351363 3.15123 0)
(1.22063 2.61789 0)
(0.548645 0.841833 -2.51968e-19)
(1.02645 0.983716 -1.98153e-19)
(0.964441 1.05225 0)
(0.809592 0.953216 4.95397e-20)
(1.04913 0.865839 3.01776e-20)
(0.383653 0.422557 -5.37613e-19)
(0.700141 0.332351 -2.34111e-20)
(0.688247 0.25749 2.35516e-19)
(0.59138 0.402792 1.8117e-20)
(0.516222 0.380598 -7.39604e-19)
(0.669348 0.357006 0)
(0.691078 0.433152 3.87409e-19)
(0.696172 0.431841 0)
(0.628373 0.389261 0)
(0.613322 0.322536 0)
(0.777956 0.608511 1.42075e-19)
(1.19548 0.278258 3.22591e-20)
(1.19074 0.414457 0)
(1.2042 0.362436 0)
(0.770237 0.204256 3.45735e-19)
(0.823904 0.542779 -1.93781e-19)
(0.731397 0.515337 3.16824e-19)
(0.918915 0.418294 -2.99448e-19)
(1.01996 0.0144441 3.16531e-19)
(1.01796 0.0140532 -3.2215e-19)
(1.01599 0.0154632 0)
(1.03546 -0.0065533 0)
(1.02932 -0.0088458 -2.90627e-19)
(1.02706 -0.0128891 2.87577e-19)
(1.02526 0.00948768 0)
(1.02394 0.0129358 0)
(1.01146 0.00393324 0)
(1.01437 0.00869679 0)
(1.01522 0.00346758 0)
(1.01408 0.00270335 0)
(0.068778 1.34345 0)
(0.0712694 1.26589 0)
(0.149107 1.33749 3.25913e-19)
(0.258047 1.46423 2.44997e-19)
(0.156649 1.43692 5.20246e-19)
(0.184598 1.44494 -8.51174e-19)
(0.180431 1.37237 0)
(0.130538 1.60467 2.70964e-19)
(0.109435 1.56782 0)
(0.352428 2.04121 6.5259e-20)
(0.351469 2.36959 2.41342e-19)
(0.181182 1.44177 -2.36478e-19)
(0.263935 1.36214 1.85147e-19)
(0.199038 1.3532 -1.48363e-19)
(0.274464 1.30148 3.03296e-19)
(0.245765 1.57983 0)
(0.251607 1.61912 -1.97985e-19)
(0.0454494 2.26737 1.00307e-19)
(0.0464203 2.66652 0)
(0.0670066 2.39309 -1.74429e-19)
(0.0317739 2.41426 0)
(0.0631254 2.6646 1.15331e-20)
(0.047049 2.69599 0)
(0.146578 1.48291 4.39414e-19)
(0.20739 1.60953 0)
(0.183726 1.3741 0)
(0.192526 1.36214 -4.95349e-19)
(-0.0130826 2.65417 -3.65734e-20)
(0.0373429 2.69166 -2.72875e-19)
(0.0107225 2.71873 -1.91971e-21)
(-0.0738616 2.15704 -3.53466e-19)
(0.122698 1.88053 -1.7322e-19)
(-0.0716531 0.984745 0)
(-0.0540968 0.918484 0)
(0.0890648 1.64539 -4.49028e-19)
(0.144913 1.47241 -4.55363e-19)
(0.136617 1.62558 5.78501e-19)
(0.0642834 1.63513 0)
(-0.286984 2.23904 4.90059e-19)
(-0.234303 2.42908 -1.91001e-19)
(-0.254721 2.4458 6.38246e-20)
(-0.148515 2.11836 4.21739e-19)
(-0.248319 2.55727 1.31661e-19)
(-0.205855 2.56039 -4.97306e-19)
(1.02097 0.0206651 -3.10427e-19)
(1.01818 0.0266083 3.12977e-19)
(1.01468 0.0180849 0)
(1.0168 0.0545952 4.47111e-19)
(0.996396 0.0455206 -5.25481e-19)
(0.962025 0.0270218 6.06936e-19)
(1.01525 0.0870293 -5.79863e-20)
(1.04165 -0.00688974 0)
(1.04818 -0.00415687 2.60862e-19)
(1.03772 -0.0110458 -2.60625e-19)
(1.06502 0.0341424 -1.44021e-20)
(1.05781 0.0142692 1.28474e-19)
(1.06284 0.0465134 0)
(1.05856 0.0385671 -4.77377e-20)
(1.03756 0.0340456 0)
(1.03211 0.031462 0)
(1.02713 0.0125717 0)
(1.02444 0.015169 0)
(1.04375 0.0254803 9.92709e-20)
(1.0398 0.0189181 -2.26268e-19)
(1.05339 0.0214557 -1.01094e-19)
(1.05136 0.02244 -1.15923e-19)
(1.07071 0.0554932 2.08455e-19)
(1.08226 0.0490951 0)
(1.08972 0.094646 0)
(-0.293427 2.20646 1.18077e-19)
(-0.252397 2.01005 6.19161e-21)
(-0.257434 2.04301 0)
(-0.181868 2.20504 -1.17738e-19)
(-0.126631 2.08238 -8.39219e-21)
(-0.155157 2.14174 1.94978e-20)
(-0.207339 2.61654 -3.22635e-19)
(-0.224063 2.5382 2.37503e-20)
(-0.251647 2.54244 -1.05208e-19)
(-0.197878 2.547 2.22405e-19)
(-0.205218 2.54749 -2.53904e-19)
(-0.421934 1.74096 -1.07875e-20)
(-0.359279 1.90322 -1.95242e-19)
(0.36267 1.4086 -4.02962e-19)
(0.358872 1.35182 -3.82688e-19)
(0.637313 1.40897 -5.80802e-19)
(0.506585 1.47353 -3.13084e-19)
(0.555051 1.44983 0)
(0.588127 2.41328 1.26211e-19)
(0.655377 2.40295 2.28288e-19)
(0.412353 2.50898 7.97082e-20)
(0.405944 2.55377 -1.77425e-19)
(0.515099 2.5113 2.76952e-19)
(0.545276 2.453 0)
(0.488642 2.50033 -3.58623e-19)
(0.250797 2.5818 5.99615e-19)
(0.355675 2.55648 -7.96657e-20)
(0.287136 2.6408 -9.12464e-19)
(0.928603 2.38273 2.50895e-19)
(0.827435 2.3798 0)
(1.01065 7.53138e-05 1.05227e-20)
(1.01489 -0.00557279 -8.54486e-21)
(1.01756 -0.00371757 -1.54757e-19)
(1.01473 -0.000851996 1.55374e-19)
(1.01211 0.000831421 0)
(0.624429 1.27983 0)
(0.636461 1.15724 0)
(0.737837 1.06649 0)
(0.628065 1.13097 0)
(1.18591 2.63421 5.68845e-20)
(1.07543 2.37329 0)
(0.843767 2.22041 -1.54133e-21)
(0.827722 2.4775 0)
(0.921441 2.56299 6.64698e-21)
(0.957575 2.51667 -4.43682e-21)
(0.840832 0.147623 0)
(0.809847 0.138595 8.66998e-20)
(0.926639 0.122851 4.48001e-19)
(0.859971 0.117754 -1.78768e-19)
(0.843618 0.0635308 -5.36851e-19)
(1.04918 0.219085 -2.67103e-19)
(0.965487 0.273079 -1.57326e-20)
(0.906067 0.270764 4.08796e-19)
(0.983098 0.200071 3.04615e-19)
(0.94045 0.160455 -5.6582e-19)
(0.91337 0.169478 7.30906e-20)
(0.940771 0.232254 -1.42882e-19)
(0.917465 0.191918 0)
(0.979015 0.159321 2.71897e-19)
(1.02673 0.167267 0)
(1.02015 0.193148 0)
(1.08351 0.111479 8.85445e-20)
(1.05191 0.159762 -1.308e-20)
(1.04364 0.222642 -4.95768e-20)
(1.07843 0.193599 0)
(1.02738 0.0372313 2.35318e-19)
(1.04735 0.0483333 2.80773e-19)
(1.04011 0.0349356 -2.34484e-19)
(1.04844 0.05431 -1.88961e-19)
(1.02445 0.0595468 -3.14731e-19)
(0.980359 0.129197 0)
(0.999198 0.0816984 0)
(0.970629 0.0438667 -2.19732e-19)
(0.928604 0.060338 9.10573e-20)
(1.03676 0.0868526 2.65015e-19)
(1.05609 0.11236 -2.70403e-19)
(1.06111 0.13978 2.47313e-19)
(1.02584 0.127782 0)
(1.06544 0.100089 0)
(1.05368 0.0802283 -1.12488e-19)
(1.04771 0.0836981 -2.12402e-19)
(0.582125 1.08856 -8.45886e-20)
(0.61913 1.43227 1.87197e-19)
(1.16013 2.75297 8.78135e-20)
(1.22723 3.09168 -6.74827e-20)
(1.25099 2.73333 5.34277e-19)
(1.28305 2.71679 -3.27758e-19)
(1.21071 2.35599 -8.73333e-21)
(1.21375 2.99608 1.82274e-19)
(1.23205 2.96152 -1.96222e-19)
(1.2191 3.24541 -2.63034e-19)
(1.38084 2.97806 3.64074e-19)
(1.37307 2.89575 0)
(0.542944 0.849612 -1.49749e-20)
(0.151003 1.27158 3.82828e-19)
(0.52543 0.484907 3.53634e-19)
(0.364228 0.248697 3.84829e-19)
(0.535634 0.40567 4.15516e-19)
(0.545681 0.489006 -6.45273e-19)
(0.547667 0.491035 5.29367e-19)
(0.502954 0.426445 -2.13107e-19)
(0.438416 0.365171 4.89807e-19)
(0.773086 0.257125 -1.93242e-19)
(0.734684 0.287955 0)
(0.727623 0.225972 1.07377e-20)
(0.715547 0.519609 1.98674e-19)
(0.682358 0.489681 -7.33528e-19)
(0.60546 0.484455 1.70645e-20)
(0.619424 0.475028 0)
(0.673163 0.724405 1.59688e-19)
(0.807887 0.760392 7.25665e-20)
(0.736086 0.836564 -9.22421e-20)
(0.849972 0.796503 -2.2548e-20)
(0.879843 0.835936 1.22723e-20)
(0.888678 0.837452 -1.25646e-20)
(0.81972 0.638469 -2.42414e-19)
(0.898412 0.693415 2.0958e-20)
(0.951795 0.703162 0)
(0.942014 0.677793 -2.12721e-20)
(0.992007 0.313803 6.77181e-20)
(1.10773 0.28667 1.21707e-20)
(1.03339 0.254558 1.09175e-19)
(0.972019 0.346387 -1.5363e-19)
(1.01797 0.411099 0)
(1.07227 0.401014 0)
(0.894083 0.353417 5.24635e-21)
(0.837039 0.286844 0)
(0.853698 0.277062 2.09769e-19)
(0.889583 0.278293 -6.18455e-21)
(0.911013 0.421527 8.20157e-19)
(0.868894 0.485454 2.08782e-19)
(0.871921 0.44978 -2.64551e-19)
(0.802701 0.436708 2.83955e-19)
(0.786627 0.43823 1.92042e-19)
(0.753932 0.423581 -1.88452e-19)
(1.02776 -0.000630292 2.45114e-19)
(1.02004 -5.6469e-05 0)
(1.01847 0.00102081 1.65554e-19)
(1.02173 -0.00207033 -3.72755e-19)
(1.02213 0.00393271 1.81014e-19)
(1.02031 0.0107411 -3.80017e-19)
(1.02139 0.0102301 0)
(1.02107 0.0104333 -8.01459e-20)
(1.01589 0.00741381 2.0108e-19)
(1.01671 0.0100364 -1.0051e-19)
(1.0175 0.00924924 7.39065e-20)
(0.0883962 1.21044 0)
(0.173259 1.29589 0)
(0.0796467 1.29833 0)
(0.0629062 1.15404 0)
(0.0641038 1.39016 -6.93218e-19)
(0.0764535 1.35546 2.25958e-19)
(0.0994359 1.49952 1.5239e-19)
(0.0789211 1.36215 -1.72904e-19)
(0.11129 1.48653 4.28067e-19)
(0.0955779 1.46106 -3.25722e-19)
(0.0769303 1.37243 -5.38863e-21)
(0.092406 1.38504 4.29495e-19)
(0.117821 1.33804 6.47745e-20)
(0.132636 1.38779 5.83396e-20)
(0.103033 2.39015 1.91884e-19)
(0.0996786 2.43062 0)
(0.178349 2.06879 -3.92755e-20)
(0.0912246 1.72044 -1.11286e-19)
(0.226339 2.06994 2.66156e-20)
(0.215774 2.45251 0)
(0.269413 2.40609 -1.3218e-19)
(0.304904 2.40704 9.42682e-20)
(0.234258 2.01505 7.74538e-20)
(0.155628 2.18282 3.60976e-21)
(0.145868 2.30877 0)
(0.0537825 1.90528 4.38911e-19)
(-0.0259671 2.41385 4.94694e-19)
(0.0256654 2.21388 0)
(0.0157834 2.44424 -1.74147e-20)
(-0.00229449 2.30418 -2.03593e-19)
(0.0806262 1.36093 -8.61793e-20)
(-0.0230352 1.2474 1.42151e-18)
(-0.0291354 1.32841 -3.80219e-19)
(0.0843276 1.44446 -4.97553e-19)
(0.121779 1.52673 0)
(-0.128226 1.18982 0)
(-0.195577 1.11644 -3.24401e-19)
(-0.237441 1.17834 1.07116e-19)
(-0.164418 1.16722 0)
(-0.129667 1.01142 -2.64233e-19)
(-0.115975 1.01411 5.02354e-19)
(1.04119 0.00872771 0)
(1.04577 0.00477435 -2.44794e-20)
(1.04023 0.0171312 -1.80104e-19)
(1.04906 0.0127301 0)
(1.05022 0.0117532 0)
(1.03531 0.00868834 -6.17339e-21)
(1.03127 0.00996126 2.96089e-19)
(1.03111 0.0137604 3.57933e-19)
(1.02625 0.0186174 0)
(1.02414 0.0195282 0)
(1.03572 0.0207253 1.81167e-19)
(1.02737 0.0252281 0)
(1.02636 0.0235245 0)
(-0.355319 2.22328 0)
(-0.401231 1.96864 -4.68946e-20)
(-0.408055 2.12589 -1.12889e-19)
(-0.256104 1.32545 0)
(-0.44224 1.85696 -2.14706e-19)
(-0.414852 1.67087 6.77816e-20)
(-0.368156 1.40314 0)
(0.387576 1.69732 0)
(0.359394 1.27875 6.27151e-19)
(0.300744 1.33668 0)
(0.411088 1.27194 -8.17178e-19)
(0.458867 1.44352 0)
(0.438039 1.38476 3.82e-19)
(1.02882 2.70469 -4.68726e-21)
(0.952757 2.41718 -3.168e-19)
(0.893854 2.17546 3.59687e-19)
(0.839602 2.37334 1.24039e-19)
(0.84489 2.51939 0)
(0.912162 2.51277 0)
(0.909181 2.37662 0)
(0.893969 2.35453 -4.71228e-19)
(0.691728 2.49541 -2.28854e-20)
(0.801382 2.48676 -1.56831e-20)
(0.813165 2.45903 1.20035e-20)
(0.688738 2.38247 0)
(0.792571 2.38138 0)
(0.752304 2.39117 -2.32517e-19)
(0.770226 2.50729 0)
(0.591655 1.08643 0)
(0.491317 0.942247 -2.27059e-20)
(0.548847 0.968885 -2.71693e-21)
(0.519855 1.06861 0)
(0.523377 1.02484 3.67168e-20)
(0.758812 0.854697 7.91319e-21)
(0.76463 0.997762 0)
(0.740388 0.955355 -5.42378e-20)
(0.62527 1.01991 0)
(0.633663 0.935458 0)
(1.16435 2.7743 4.4486e-20)
(1.14303 2.83814 1.14994e-19)
(0.935253 2.3645 -2.68252e-19)
(0.901749 2.34041 3.09199e-20)
(1.12771 2.74767 0)
(1.07932 2.71849 -3.70093e-20)
(1.08604 2.49686 -8.81688e-20)
(0.982069 2.23477 -2.97273e-20)
(0.496632 1.37179 0)
(0.505791 1.07796 7.46002e-20)
(0.543056 1.14964 0)
(0.860037 0.216929 0)
(0.818976 0.168814 0)
(0.77539 0.156881 0)
(0.850621 0.223273 -3.29919e-19)
(0.793058 0.221864 2.03997e-19)
(0.937537 0.0506406 -1.86926e-19)
(0.952519 0.099377 0)
(0.925341 0.104676 8.34471e-20)
(0.884575 0.0818569 3.41273e-19)
(0.869535 0.045886 -2.09755e-19)
(1.16778 3.37055 -9.69825e-19)
(1.21465 3.28992 0)
(1.16666 3.3975 -1.91112e-18)
(0.653273 3.55751 1.64039e-18)
(0.881016 3.12306 3.59148e-19)
(0.520666 0.875536 2.5494e-19)
(0.443175 0.872239 0)
(0.353897 0.518415 -8.72721e-20)
(0.4554 0.689387 4.08788e-19)
(0.530518 0.485593 -1.14889e-19)
(0.509906 0.524471 1.34848e-19)
(0.650987 0.537889 2.76636e-19)
(0.68001 0.562405 0)
(0.639917 0.617411 0)
(0.592729 0.557267 0)
(0.949437 0.584469 -4.85193e-20)
(0.87143 0.531937 -2.01948e-19)
(0.898729 0.566001 9.97519e-20)
(0.928408 0.501517 -1.4844e-19)
(1.03136 0.46836 0)
(1.04316 0.556176 -8.81553e-21)
(0.828835 0.388571 -4.2426e-19)
(0.833951 0.372298 -4.91178e-19)
(0.783825 0.386028 3.32797e-19)
(0.777095 0.352829 -3.75039e-19)
(0.833625 0.307758 -2.77346e-19)
(0.788152 0.305287 3.41249e-19)
(1.02634 0.00537844 -1.92395e-19)
(1.02604 0.00587662 3.94666e-19)
(1.02917 -0.00104277 2.32388e-19)
(1.03325 0.000819281 -2.87715e-19)
(1.03319 0.00752672 0)
(1.02977 0.00778129 -4.63582e-19)
(0.0360449 1.6602 -6.1371e-20)
(0.0550034 1.57931 0)
(0.0582713 1.69675 -4.99374e-19)
(0.0727602 1.68153 4.60101e-19)
(0.0730331 1.50289 -2.82294e-19)
(0.0870907 1.48967 0)
(-0.219813 2.12483 0)
(-0.198702 1.63035 1.40552e-19)
(-0.361526 1.62374 -1.28235e-19)
(-0.38311 1.86284 -5.07681e-20)
(-0.332157 2.24105 2.21249e-19)
(-0.29352 2.24419 -1.11739e-19)
(0.491772 1.38021 3.9573e-19)
(0.486363 1.38575 -4.24898e-19)
(0.432166 1.27079 4.07368e-19)
(0.42582 1.29245 -2.48351e-20)
(0.613496 1.28187 0)
(0.53473 1.37581 5.21988e-19)
(0.550047 1.38475 -5.07793e-19)
(0.439677 1.25876 -3.92785e-19)
(0.493457 1.21385 0)
(0.549026 1.18282 0)
(0.656468 2.45243 3.36384e-20)
(0.668362 2.4773 5.53243e-19)
(0.717339 2.49448 -3.80713e-19)
(0.623639 2.47717 -1.22911e-19)
(0.559969 2.57114 1.05354e-19)
(0.512661 2.54364 -3.13628e-19)
(0.966828 2.37858 -1.93751e-19)
(1.00933 2.39943 0)
(0.909067 2.15446 -2.60379e-19)
(1.04764 2.69902 0)
(1.04959 2.68595 0)
(0.624853 2.28506 2.1613e-19)
(1.04839 3.17129 4.62719e-19)
(0.919174 3.04016 -4.04203e-19)
(0.290012 0.945745 0)
(0.338231 0.813023 -1.66411e-19)
(0.497523 0.769499 -8.9599e-20)
(0.401128 2.03181 0)
(0.470299 2.78863 -2.5001e-19)
(0.431027 2.55342 0)
(0.683938 0.673187 -3.31886e-19)
(0.755321 0.669226 4.25401e-19)
(0.775281 0.619773 -4.15924e-19)
(0.668739 0.646867 -4.87643e-20)
(0.714398 0.59766 -1.99887e-19)
(1.00952 2.77713 -3.51797e-19)
(1.04299 2.83192 2.65722e-19)
(0.650254 2.17571 9.62473e-20)
(0.60907 1.73337 -9.73313e-20)
(0.705756 1.92306 8.78618e-20)
(0.994293 2.46023 -7.00177e-20)
(0.99651 2.45576 -1.41941e-19)
(0.675035 1.8669 -3.55715e-21)
(0.463594 1.35228 -6.85755e-20)
)
;

boundaryField
{
    wall-4
    {
        type            noSlip;
    }
    velocity-inlet-5
    {
        type            fixedValue;
        value           uniform (1 0 0);
    }
    velocity-inlet-6
    {
        type            fixedValue;
        value           uniform (0 3 0);
    }
    pressure-outlet-7
    {
        type            zeroGradient;
    }
    wall-8
    {
        type            noSlip;
    }
    frontAndBackPlanes
    {
        type            empty;
    }
}


// ************************************************************************* //
