/*--------------------------------*- C++ -*----------------------------------*\
| =========                 |                                                 |
| \\      /  F ield         | OpenFOAM: The Open Source CFD Toolbox           |
|  \\    /   O peration     | Version:  4.0                                   |
|   \\  /    A nd           | Web:      www.OpenFOAM.org                      |
|    \\/     M anipulation  |                                                 |
\*---------------------------------------------------------------------------*/
FoamFile
{
    version     2.0;
    format      ascii;
    class       volScalarField;
    location    "4";
    object      p;
}
// * * * * * * * * * * * * * * * * * * * * * * * * * * * * * * * * * * * * * //

dimensions      [0 2 -2 0 0 0 0];

internalField   nonuniform List<scalar> 
2200
(
0.68823
0.667607
0.652368
0.638436
0.625623
0.614645
0.605623
0.598582
0.593593
0.591895
0.592038
0.594039
0.599294
0.606483
0.615608
0.626655
0.639513
0.653474
0.668729
0.689354
0.616952
0.614316
0.614344
0.612567
0.609151
0.604674
0.599851
0.59529
0.59156
0.589037
0.589227
0.59206
0.596011
0.600726
0.605658
0.610208
0.613675
0.61548
0.615477
0.618127
0.579262
0.580685
0.58456
0.585912
0.586788
0.586695
0.58547
0.583515
0.581438
0.579797
0.580007
0.581983
0.584313
0.586457
0.58781
0.587986
0.587161
0.585838
0.581973
0.580556
0.568792
0.569684
0.571478
0.572015
0.572711
0.573147
0.573263
0.572972
0.572418
0.57194
0.572163
0.573004
0.573843
0.574344
0.574365
0.574022
0.573392
0.572891
0.571146
0.570272
0.566419
0.567064
0.568604
0.57002
0.571387
0.572276
0.572711
0.572775
0.572616
0.572486
0.572735
0.573324
0.573839
0.574045
0.573789
0.573027
0.571748
0.570376
0.568881
0.568233
0.566107
0.566541
0.567441
0.568333
0.569296
0.570095
0.570627
0.570921
0.57108
0.5712
0.571485
0.571922
0.572232
0.572318
0.572037
0.571385
0.570507
0.569628
0.568721
0.568261
0.56127
0.56129
0.561518
0.561765
0.562109
0.56248
0.562961
0.563459
0.563892
0.564297
0.564707
0.56507
0.565193
0.565073
0.564866
0.56467
0.564427
0.564236
0.563969
0.563958
0.554869
0.554855
0.554885
0.554939
0.555044
0.555194
0.555433
0.555779
0.556198
0.556704
0.557134
0.55755
0.557827
0.558005
0.558111
0.558146
0.558156
0.558173
0.558196
0.558229
0.549311
0.549322
0.549387
0.549481
0.549615
0.549799
0.550039
0.550347
0.550782
0.551395
0.552188
0.552749
0.553102
0.553301
0.553428
0.553517
0.55356
0.55358
0.553589
0.553584
0.543996
0.544026
0.544074
0.54415
0.544285
0.544501
0.544804
0.545212
0.545773
0.546531
0.547451
0.548191
0.548691
0.549028
0.549224
0.549336
0.549392
0.549413
0.549416
0.549398
0.53809
0.538112
0.538168
0.538267
0.538428
0.538665
0.539017
0.539531
0.540245
0.541185
0.542288
0.543237
0.543914
0.544361
0.544642
0.544812
0.54491
0.544961
0.544984
0.544979
0.531879
0.531895
0.531962
0.532077
0.532262
0.532553
0.532992
0.533632
0.534532
0.535734
0.537099
0.538295
0.539166
0.539749
0.540129
0.54037
0.540517
0.540601
0.540642
0.540645
0.525458
0.525471
0.525541
0.525679
0.525909
0.526272
0.526823
0.527631
0.528773
0.530306
0.532053
0.533561
0.534654
0.535403
0.5359
0.536219
0.536413
0.536524
0.536577
0.536581
0.518719
0.518737
0.518822
0.518988
0.519272
0.519726
0.520422
0.521448
0.5229
0.524854
0.527077
0.528984
0.530367
0.531322
0.531958
0.532365
0.532615
0.532757
0.532826
0.532832
0.511531
0.511553
0.511659
0.511869
0.512229
0.512807
0.513693
0.515003
0.516856
0.519347
0.522171
0.524585
0.526335
0.527545
0.528351
0.528867
0.529185
0.529366
0.529455
0.529463
0.503771
0.503799
0.503936
0.504206
0.504669
0.50541
0.506548
0.508226
0.510597
0.513776
0.517363
0.520418
0.522627
0.524155
0.525172
0.525824
0.526225
0.526454
0.526566
0.526577
0.495276
0.495313
0.495491
0.495841
0.496441
0.4974
0.498869
0.501029
0.504071
0.508131
0.512684
0.516544
0.519329
0.521252
0.522531
0.523352
0.523855
0.524144
0.524284
0.524298
0.485823
0.485875
0.486109
0.486569
0.487353
0.488601
0.490508
0.493303
0.497217
0.502405
0.508177
0.513043
0.516544
0.518958
0.520563
0.521591
0.522222
0.522583
0.522759
0.522775
0.475103
0.475172
0.475483
0.476091
0.477126
0.478769
0.481267
0.484905
0.489959
0.496591
0.50389
0.510004
0.514393
0.517416
0.519425
0.520713
0.521501
0.521953
0.522172
0.522191
0.462677
0.462783
0.463213
0.464037
0.465429
0.467618
0.470924
0.475693
0.482239
0.490706
0.4999
0.507547
0.513026
0.516802
0.519313
0.520922
0.52191
0.522476
0.522751
0.522775
0.447989
0.448125
0.448707
0.449837
0.451733
0.454711
0.459157
0.465474
0.473979
0.484766
0.496278
0.505781
0.51259
0.5173
0.520445
0.522469
0.52371
0.524421
0.524761
0.524786
0.429903
0.43018
0.431099
0.43275
0.435464
0.43962
0.4457
0.454129
0.465183
0.47885
0.493146
0.504856
0.513263
0.519117
0.52306
0.525618
0.527202
0.528119
0.528572
0.528621
0.407593
0.407916
0.409221
0.411717
0.415697
0.421705
0.430195
0.441535
0.455876
0.47305
0.490604
0.504873
0.515164
0.522422
0.527401
0.530695
0.532767
0.533972
0.534554
0.534589
0.377676
0.378649
0.381206
0.385339
0.391615
0.400532
0.412492
0.427727
0.446179
0.467491
0.488742
0.505892
0.518345
0.527275
0.533553
0.537844
0.540656
0.54239
0.543309
0.543462
0.338528
0.340105
0.344451
0.35186
0.362249
0.37579
0.392732
0.413048
0.436452
0.462457
0.487739
0.507998
0.522834
0.533706
0.541608
0.547266
0.551211
0.553787
0.555221
0.555323
0.286091
0.287535
0.297062
0.310843
0.327668
0.3478
0.371337
0.397856
0.426927
0.458008
0.487445
0.510873
0.528213
0.541222
0.551024
0.558388
0.563916
0.567959
0.570467
0.570296
0.210405
0.219512
0.240962
0.26474
0.290155
0.318536
0.349517
0.382703
0.41773
0.45414
0.487989
0.514954
0.535318
0.551126
0.563652
0.573736
0.581966
0.589044
0.593935
0.595277
0.120113
0.150394
0.184622
0.218186
0.25342
0.290567
0.329018
0.368783
0.409578
0.451094
0.489291
0.519845
0.543288
0.561947
0.577202
0.589918
0.600582
0.609006
0.617873
0.622491
0.0647391
0.0945617
0.134224
0.176394
0.220508
0.265387
0.310723
0.356554
0.402462
0.448211
0.489682
0.522666
0.547972
0.568118
0.584512
0.598025
0.609263
0.618341
0.627069
0.631402
0.0271184
0.055933
0.0982706
0.144723
0.194064
0.244192
0.294949
0.345713
0.395753
0.444712
0.488294
0.522543
0.548633
0.569238
0.585838
0.599354
0.610479
0.619627
0.627196
0.630983
-0.000938341
0.0281025
0.0732317
0.122184
0.17422
0.227637
0.282234
0.336639
0.389736
0.440858
0.485484
0.520064
0.546219
0.566755
0.583207
0.596528
0.607373
0.616404
0.623637
0.627531
-0.0226636
0.00614126
0.0542658
0.105265
0.159233
0.215187
0.272585
0.329608
0.384783
0.43706
0.481751
0.515904
0.541654
0.561869
0.578068
0.591182
0.601814
0.610725
0.617603
0.621813
-0.0405013
-0.0116576
0.0384127
0.0913869
0.147302
0.205634
0.265354
0.324369
0.380872
0.433421
0.477286
0.510346
0.535329
0.55507
0.570966
0.583873
0.59433
0.603163
0.6098
0.613806
-0.0562592
-0.0263251
0.0248412
0.079669
0.137481
0.198057
0.259865
0.320526
0.377837
0.429926
0.47214
0.503479
0.527391
0.546582
0.562203
0.574953
0.585285
0.594055
0.600621
0.604361
-0.0701699
-0.0389468
0.0132178
0.0697605
0.129366
0.192022
0.25575
0.317846
0.375603
0.426601
0.466341
0.495308
0.517874
0.536546
0.552042
0.564788
0.575107
0.583888
0.5905
0.594165
-0.0825405
-0.0500755
0.00310777
0.0612808
0.122634
0.187271
0.25281
0.316223
0.374179
0.423525
0.459903
0.485749
0.506672
0.524971
0.540672
0.553726
0.564247
0.573149
0.579995
0.58364
-0.0939085
-0.060172
-0.00598199
0.0538171
0.116936
0.183533
0.250858
0.315573
0.373601
0.420818
0.452834
0.474613
0.493495
0.511703
0.528207
0.542145
0.553313
0.562588
0.569755
0.573502
-0.104718
-0.0696664
-0.0144525
0.0470125
0.111945
0.180525
0.249694
0.315793
0.373896
0.418643
0.445188
0.46166
0.477859
0.496323
0.514587
0.530363
0.542862
0.552822
0.560633
0.564646
-0.11526
-0.0788788
-0.0225858
0.0405854
0.107387
0.178001
0.249118
0.31676
0.375074
0.417172
0.437063
0.446532
0.458946
0.478064
0.499535
0.518903
0.533917
0.545664
0.553785
0.55834
-0.125719
-0.0880265
-0.0305744
0.0343372
0.103058
0.175774
0.24897
0.318364
0.377156
0.416608
0.428767
0.429097
0.435868
0.455806
0.482829
0.508071
0.526853
0.54229
0.551347
0.55673
-0.136223
-0.0972415
-0.0385568
0.0281181
0.0987976
0.173685
0.249092
0.320469
0.380111
0.417092
0.420532
0.408923
0.406865
0.427731
0.462709
0.498977
0.524919
0.544039
0.553747
0.559521
-0.146862
-0.106615
-0.0466379
0.0218051
0.0944658
0.171585
0.249333
0.322937
0.383894
0.418824
0.412935
0.386562
0.371159
0.392728
0.43959
0.490344
0.527119
0.551577
0.564782
0.572821
-0.157682
-0.116204
-0.0548948
0.0153175
0.0899683
0.169368
0.249583
0.325656
0.388437
0.421948
0.406305
0.361521
0.326087
0.347758
0.41111
0.485599
0.536652
0.568362
0.585549
0.592438
-0.168707
-0.126021
-0.0633554
0.00861809
0.0852486
0.166946
0.249717
0.328483
0.393577
0.426489
0.400981
0.333996
0.26975
0.289089
0.372425
0.486369
0.558828
0.601907
0.622334
0.628028
-0.179943
-0.136065
-0.0720227
0.00169683
0.0802648
0.164233
0.249609
0.331288
0.399204
0.432625
0.397823
0.303974
0.20328
0.210154
0.324612
0.485404
0.589584
0.652448
0.677137
0.675587
-0.191368
-0.146301
-0.0808777
-0.00544421
0.0750025
0.161188
0.249194
0.333981
0.405208
0.440257
0.396852
0.267743
0.123689
0.105567
0.256195
0.480292
0.637245
0.723683
0.747562
0.683433
-0.202853
-0.156704
-0.0899104
-0.0128244
0.0694371
0.157772
0.248424
0.336472
0.41153
0.449512
0.399575
0.232073
0.0185429
-0.0460636
0.143542
0.469975
0.697383
0.844096
0.940465
1.02021
-0.214303
-0.16732
-0.0991958
-0.0205341
0.0634242
0.15378
0.247029
0.338445
0.417957
0.460722
0.407944
0.195139
-0.118595
-0.281281
-0.0317396
0.388589
0.670503
0.803884
0.820545
0.805488
-0.225531
-0.178075
-0.108687
-0.028528
0.0569407
0.149164
0.244906
0.339719
0.42411
0.473333
0.423401
0.157936
-0.311053
-0.647491
-0.33004
0.175678
0.456475
0.541679
0.50068
0.486623
-0.236581
-0.188809
-0.118295
-0.0368085
0.049947
0.143924
0.242025
0.340154
0.429618
0.486589
0.443507
0.128016
-0.50777
-1.08449
-0.754806
-0.186641
0.0642007
0.121109
0.109296
0.156151
-0.247625
-0.199485
-0.127971
-0.0453807
0.0424726
0.138089
0.238316
0.339549
0.434079
0.499966
0.462261
0.137877
-0.617832
-1.32572
-1.10576
-0.612383
-0.349421
-0.260233
-0.221893
-0.140792
-0.25904
-0.210457
-0.138047
-0.0544893
0.0343596
0.131468
0.23359
0.337721
0.437129
0.512495
0.483581
0.181359
-0.585425
-1.26242
-1.12555
-0.776088
-0.615969
-0.550393
-0.544633
-0.474198
-0.271503
-0.222408
-0.149137
-0.0646263
0.0252708
0.1238
0.227725
0.334587
0.438589
0.523219
0.513621
0.248868
-0.426983
-1.00576
-0.94592
-0.787193
-0.783342
-0.810746
-0.859069
-0.814292
-0.285429
-0.235756
-0.161571
-0.07604
0.015073
0.115033
0.220715
0.330101
0.438264
0.531237
0.543579
0.330868
-0.204796
-0.693167
-0.763669
-0.784849
-0.909681
-1.04897
-1.18525
-1.19126
-0.30097
-0.250661
-0.175399
-0.0887429
0.00371232
0.10511
0.212468
0.324078
0.435673
0.535224
0.56657
0.415604
0.025354
-0.39644
-0.624592
-0.80317
-1.04204
-1.30928
-1.64662
-1.78276
-0.318353
-0.267276
-0.190709
-0.102837
-0.00899584
0.0938411
0.20276
0.316198
0.430328
0.534596
0.581651
0.488903
0.221381
-0.141463
-0.49694
-0.802868
-1.13254
-1.5286
-2.23996
-2.86497
-0.337908
-0.28582
-0.207724
-0.118501
-0.0232257
0.0810612
0.191401
0.306309
0.422249
0.529864
0.589202
0.540411
0.352862
0.0398435
-0.377491
-0.769104
-1.16106
-1.53554
-2.35241
-4.40546
-0.359938
-0.306601
-0.226757
-0.136023
-0.039243
0.0665066
0.178199
0.294385
0.411646
0.521793
0.590525
0.57292
0.436879
0.160708
-0.265793
-0.715272
-1.11938
-1.32622
-1.47752
-2.07389
-0.384658
-0.329959
-0.248247
-0.155907
-0.0575512
0.0496661
0.162659
0.279918
0.397989
0.509856
0.58587
0.589727
0.490386
0.246798
-0.133485
-0.588671
-1.02218
-1.23945
-1.26222
-1.40051
-0.412299
-0.356115
-0.272438
-0.178377
-0.0783471
0.0303535
0.144562
0.262639
0.381083
0.494146
0.575992
0.594045
0.522273
0.324882
0.0128138
-0.397789
-0.840872
-1.15905
-1.24149
-1.25323
-0.443121
-0.385128
-0.299365
-0.203494
-0.101701
0.00845543
0.123825
0.242609
0.361353
0.475407
0.562164
0.591878
0.541964
0.392655
0.133161
-0.202088
-0.589354
-0.919358
-0.996866
-0.946756
-0.477289
-0.416956
-0.329074
-0.231258
-0.127637
-0.0159165
0.100737
0.220368
0.339693
0.45467
0.545913
0.587748
0.560687
0.449482
0.244579
0.00481038
-0.242098
-0.469459
-0.519765
-0.482698
-0.514878
-0.451519
-0.361574
-0.261607
-0.155935
-0.0423614
0.0757467
0.196461
0.316653
0.433463
0.529516
0.582754
0.584092
0.5211
0.39402
0.249608
0.144312
0.0685594
0.0555876
0.0799492
-0.555514
-0.488621
-0.396656
-0.29407
-0.186096
-0.0703642
0.0493377
0.171495
0.293351
0.412555
0.514756
0.580224
0.608921
0.601029
0.560371
0.501054
0.490437
0.48599
0.492066
0.507662
-0.597521
-0.528129
-0.433647
-0.327879
-0.217461
-0.0993824
0.0221932
0.14647
0.271126
0.392901
0.502719
0.581706
0.63082
0.661471
0.678904
0.6787
0.700541
0.726439
0.748717
0.761669
-0.638627
-0.569136
-0.471363
-0.362225
-0.24938
-0.12885
-0.00506707
0.121749
0.249372
0.375829
0.492972
0.583414
0.648307
0.699928
0.747301
0.767756
0.807134
0.84082
0.866294
0.880803
-0.679112
-0.609803
-0.508274
-0.395925
-0.280932
-0.158031
-0.031825
0.097596
0.227672
0.360114
0.483343
0.58326
0.660556
0.722739
0.77692
0.818304
0.859082
0.893897
0.919577
0.934487
-0.717508
-0.649105
-0.542906
-0.427962
-0.310972
-0.185817
-0.0570639
0.0750538
0.208073
0.344997
0.474302
0.582221
0.667442
0.73631
0.794365
0.840926
0.882992
0.916739
0.943165
0.957306
-0.751974
-0.685189
-0.573462
-0.457033
-0.338205
-0.210659
-0.079566
0.0549306
0.191359
0.331322
0.46638
0.579479
0.66876
0.741448
0.801523
0.850064
0.890907
0.923798
0.951097
0.964486
-0.779312
-0.71311
-0.599095
-0.48195
-0.360935
-0.231098
-0.0985553
0.0375503
0.176487
0.319254
0.457077
0.572686
0.66449
0.738922
0.799691
0.848675
0.888955
0.921391
0.949841
0.962412
-0.796451
-0.730221
-0.617271
-0.499577
-0.377151
-0.24575
-0.113217
0.0232604
0.163049
0.307069
0.445576
0.56234
0.654909
0.729479
0.790178
0.839376
0.879117
0.911416
0.939329
0.951998
-0.799659
-0.734961
-0.623716
-0.506017
-0.38506
-0.253523
-0.122529
0.0128141
0.151335
0.294327
0.431702
0.547529
0.639266
0.712971
0.772833
0.821689
0.861084
0.893082
0.920358
0.933164
-0.783999
-0.722263
-0.61313
-0.498938
-0.379862
-0.253102
-0.125892
0.00631895
0.141121
0.280653
0.414424
0.527086
0.616233
0.688282
0.746395
0.794589
0.833548
0.86538
0.892473
0.905575
-0.743722
-0.6868
-0.582778
-0.474911
-0.361153
-0.242122
-0.121368
0.00398483
0.132294
0.265535
0.393075
0.500099
0.584739
0.653374
0.709188
0.755488
0.793649
0.824917
0.851694
0.865266
-0.670515
-0.620838
-0.526859
-0.429486
-0.326774
-0.218626
-0.108387
0.0066271
0.125194
0.248758
0.366889
0.465514
0.543266
0.606242
0.657806
0.701021
0.737117
0.767487
0.793492
0.807969
-0.559734
-0.520081
-0.442184
-0.360113
-0.273529
-0.181155
-0.0857529
0.0152618
0.120569
0.230861
0.336237
0.423492
0.49151
0.545922
0.590092
0.626795
0.657375
0.683321
0.705259
0.719002
-0.394213
-0.372033
-0.324425
-0.266179
-0.20182
-0.131373
-0.0547115
0.0292623
0.118937
0.214363
0.30631
0.382035
0.440064
0.485302
0.520838
0.549045
0.57143
0.589199
0.602953
0.611696
-0.211542
-0.204188
-0.185522
-0.154412
-0.118045
-0.0726331
-0.0171574
0.0477566
0.120779
0.201362
0.280543
0.34585
0.395295
0.432837
0.461105
0.482115
0.497211
0.507826
0.514185
0.517751
-0.0817565
-0.0782652
-0.0714683
-0.0559709
-0.0400137
-0.013069
0.0235977
0.0702398
0.126575
0.191946
0.257957
0.312546
0.353162
0.382865
0.403974
0.418414
0.427662
0.433523
0.436197
0.437493
-0.003261
-0.0019339
0.00166552
0.0107301
0.0186499
0.0356371
0.0594866
0.0921041
0.13426
0.185607
0.239042
0.283486
0.31603
0.339059
0.354726
0.364952
0.37122
0.375202
0.37701
0.377921
0.0420222
0.0417348
0.0432588
0.0489601
0.0547822
0.0671612
0.084218
0.108094
0.139939
0.179936
0.222507
0.258148
0.284073
0.302208
0.314459
0.322491
0.327462
0.330618
0.332024
0.332605
0.0687898
0.0682827
0.0690431
0.0724205
0.076859
0.0860148
0.0989838
0.117395
0.142138
0.173601
0.207488
0.236014
0.256794
0.271363
0.281244
0.287722
0.291671
0.294029
0.295006
0.295338
0.086315
0.08617
0.0868184
0.0889339
0.0921921
0.0986593
0.108345
0.122502
0.141846
0.166742
0.19379
0.21665
0.233316
0.244979
0.25283
0.257901
0.260947
0.262703
0.263458
0.263724
0.0979561
0.0980323
0.098468
0.100029
0.102561
0.107213
0.114386
0.125099
0.140064
0.159665
0.181195
0.199449
0.212723
0.221949
0.2281
0.232034
0.2344
0.235758
0.236372
0.236598
0.104603
0.10471
0.105165
0.106341
0.108348
0.111853
0.117296
0.125457
0.137006
0.152356
0.169401
0.183898
0.194413
0.201691
0.206528
0.209616
0.211483
0.212551
0.213038
0.21322
0.107585
0.107687
0.108053
0.108951
0.110533
0.113231
0.117443
0.123751
0.13272
0.14474
0.158195
0.169672
0.177993
0.183747
0.187571
0.190011
0.191487
0.192325
0.192706
0.192847
0.107859
0.107948
0.108239
0.108929
0.110161
0.112242
0.115509
0.120411
0.127407
0.136834
0.147448
0.156524
0.163105
0.167655
0.170676
0.1726
0.173762
0.17442
0.174718
0.174828
0.106078
0.106152
0.106383
0.10692
0.10788
0.10949
0.112025
0.115835
0.121297
0.128694
0.137061
0.14423
0.149428
0.153019
0.1554
0.156914
0.157829
0.158346
0.158579
0.158664
0.102691
0.102751
0.102933
0.103352
0.104102
0.105353
0.107325
0.110293
0.114559
0.12036
0.126949
0.132603
0.136702
0.139532
0.141408
0.1426
0.14332
0.143726
0.143909
0.143975
0.0980517
0.0980995
0.098243
0.0985701
0.0991557
0.100131
0.101669
0.103985
0.10732
0.111867
0.117049
0.121502
0.124731
0.12696
0.128437
0.129376
0.129942
0.130261
0.130403
0.130455
0.0924365
0.0924742
0.0925864
0.0928415
0.0932983
0.0940593
0.0952595
0.097068
0.0996758
0.103239
0.10731
0.110814
0.113355
0.115109
0.116271
0.117008
0.117453
0.117702
0.117813
0.117853
0.0860649
0.0860946
0.0861823
0.0863813
0.0867377
0.0873315
0.0882682
0.0896805
0.0917191
0.0945095
0.0977043
0.100457
0.102453
0.103831
0.104743
0.105322
0.10567
0.105865
0.105951
0.105983
0.0790985
0.0791214
0.0791896
0.0793445
0.0796222
0.0800849
0.0808149
0.0819163
0.0835078
0.08569
0.088193
0.0903513
0.0919162
0.0929956
0.0937096
0.0941619
0.0944339
0.0945867
0.0946541
0.0946786
0.0716697
0.0716878
0.0717411
0.0718618
0.0720782
0.0724384
0.0730069
0.073865
0.0751056
0.0768082
0.0787632
0.08045
0.0816728
0.0825162
0.0830741
0.0834276
0.08364
0.0837593
0.0838115
0.0838303
0.0638869
0.0639007
0.0639415
0.0640348
0.0642021
0.0644809
0.0649214
0.0655868
0.0665499
0.0678732
0.069394
0.0707063
0.0716575
0.0723134
0.0727473
0.073022
0.073187
0.0732795
0.0733197
0.0733341
0.0558156
0.0558259
0.0558572
0.0559284
0.0560568
0.0562714
0.0566108
0.0571237
0.0578659
0.0588858
0.0600596
0.0610744
0.0618106
0.0623186
0.0626547
0.0628675
0.062995
0.0630661
0.0630964
0.0631077
0.047542
0.0475505
0.047575
0.0476304
0.0477291
0.0478932
0.0481523
0.0485438
0.0491106
0.04989
0.0507864
0.0515609
0.0521226
0.0525097
0.0527651
0.0529261
0.0530221
0.0530753
0.0530979
0.0531058
0.0391003
0.0391055
0.0391221
0.0391615
0.0392337
0.0393549
0.039547
0.0398376
0.0402585
0.0408384
0.041509
0.0420897
0.0425103
0.0428001
0.0429916
0.0431127
0.0431852
0.0432255
0.0432425
0.0432487
0.0305267
0.030531
0.0305444
0.0305738
0.0306264
0.0307143
0.0308532
0.0310629
0.0313659
0.031782
0.0322624
0.0326823
0.0329874
0.0331977
0.0333361
0.0334229
0.0334741
0.0335017
0.0335119
0.033516
0.021884
0.0218879
0.021897
0.0219173
0.0219532
0.0220127
0.0221063
0.0222473
0.0224518
0.0227334
0.0230556
0.0233317
0.023532
0.0236704
0.0237618
0.0238193
0.0238538
0.0238733
0.0238823
0.0238854
0.0131638
0.0131655
0.0131684
0.0131775
0.0131953
0.0132262
0.0132756
0.0133509
0.0134605
0.0136127
0.0137964
0.0139552
0.0140688
0.0141484
0.014203
0.0142394
0.0142627
0.0142772
0.0142847
0.0142881
0.00438454
0.00438389
0.00438422
0.00438707
0.00439208
0.00440073
0.0044151
0.00443799
0.00447342
0.00452588
0.00458597
0.00463817
0.00467733
0.00470453
0.00472303
0.0047352
0.00474278
0.00474721
0.00474836
0.00475059
-2.04965
-1.05881
-0.774119
-0.421016
-0.136992
0.135745
0.394759
0.658072
0.936973
1.06209
-0.908789
-0.377708
-0.291322
-0.0280424
0.175317
0.377981
0.565548
0.729939
0.811402
0.73823
-0.333236
-0.0386501
0.055039
0.23169
0.379122
0.514821
0.632258
0.723767
0.748603
0.740365
0.0330957
0.221297
0.293514
0.414167
0.513024
0.606724
0.681074
0.731499
0.746834
0.758377
0.291467
0.408493
0.458563
0.547155
0.614623
0.680664
0.729834
0.76228
0.771889
0.798993
0.46054
0.554446
0.594677
0.660497
0.711526
0.755625
0.788107
0.813293
0.824837
0.848285
0.60974
0.681639
0.7167
0.761947
0.799636
0.828601
0.851801
0.869598
0.878189
0.901893
0.737617
0.786429
0.815841
0.843535
0.868482
0.887093
0.9026
0.917555
0.928278
0.951508
0.841599
0.871914
0.888747
0.904979
0.921016
0.936362
0.951375
0.967129
0.980905
1.00485
0.923447
0.944123
0.956183
0.969841
0.985389
1.00197
1.01766
1.03582
1.05024
1.07074
1.00848
1.02783
1.04364
1.05612
1.07073
1.08617
1.09967
1.11348
1.12285
1.13943
1.10874
1.12296
1.13857
1.15053
1.16112
1.17129
1.18011
1.18742
1.19161
1.20359
1.2053
1.21328
1.22552
1.23551
1.24251
1.24823
1.25488
1.26108
1.26314
1.27227
1.29653
1.30077
1.30933
1.31502
1.31883
1.32323
1.32964
1.33714
1.34106
1.35147
1.40702
1.39544
1.38937
1.38444
1.38229
1.38437
1.39068
1.40282
1.41713
1.44458
1.53331
1.478
1.44627
1.4274
1.41877
1.41869
1.4277
1.44758
1.47879
1.54853
)
;

boundaryField
{
    wall-4
    {
        type            zeroGradient;
    }
    pressure-outlet-7
    {
        type            fixedValue;
        value           uniform 0;
    }
    velocity-inlet-6
    {
        type            zeroGradient;
    }
    velocity-inlet-5
    {
        type            zeroGradient;
    }
    frontAndBackPlanes
    {
        type            empty;
    }
}


// ************************************************************************* //
