/*--------------------------------*- C++ -*----------------------------------*\
| =========                 |                                                 |
| \\      /  F ield         | OpenFOAM: The Open Source CFD Toolbox           |
|  \\    /   O peration     | Version:  4.0                                   |
|   \\  /    A nd           | Web:      www.OpenFOAM.org                      |
|    \\/     M anipulation  |                                                 |
\*---------------------------------------------------------------------------*/
FoamFile
{
    version     2.0;
    format      ascii;
    class       surfaceScalarField;
    location    "4";
    object      phi;
}
// * * * * * * * * * * * * * * * * * * * * * * * * * * * * * * * * * * * * * //

dimensions      [0 3 -1 0 0 0 0];

internalField   nonuniform List<scalar> 
4262
(
0.109882
0.468107
0.101334
0.702133
0.0754792
0.858158
0.0526883
1.02155
0.0353971
1.21581
0.0230245
1.45059
0.0144549
1.73443
0.00840033
2.07709
0.00369144
2.48995
-0.000259604
2.98624
-0.00404606
2.98608
-0.00871852
2.48992
-0.0147105
2.07703
-0.0232233
1.73438
-0.0355469
1.45054
-0.052798
1.21577
-0.0755571
1.02152
-0.1014
0.858146
-0.109913
0.702099
0.468075
0.0870854
0.381021
0.0999194
0.689299
0.0925172
0.86556
0.0783015
1.03577
0.0623742
1.23173
0.0469529
1.46601
0.0330852
1.7483
0.020939
2.08924
0.0100574
2.50083
-0.000630704
2.99693
-0.011342
2.99679
-0.0220753
2.50065
-0.0340257
2.08898
-0.0476966
1.74805
-0.0629519
1.4658
-0.0787398
1.23156
-0.0928338
1.03562
-0.100113
0.865425
-0.0871723
0.689158
0.380903
0.0466587
0.334362
0.0576598
0.678298
0.0568878
0.866332
0.0545956
1.03806
0.0504715
1.23586
0.043347
1.47314
0.033811
1.75784
0.0228976
2.10015
0.011422
2.51231
-0.00105218
3.00941
-0.0134083
3.00915
-0.0246186
2.51186
-0.0352627
2.09962
-0.0445132
1.7573
-0.0513448
1.47263
-0.0552496
1.23546
-0.0573511
1.03772
-0.0579394
0.866013
-0.0467711
0.67799
0.334132
0.0246594
0.309703
0.0341424
0.668815
0.0361945
0.86428
0.0364644
1.03779
0.0346247
1.2377
0.0312025
1.47656
0.0258564
1.76318
0.0185543
2.10745
0.00936778
2.5215
-0.00175444
3.02053
-0.0127781
3.02017
-0.0215983
2.52068
-0.0284105
2.10644
-0.0332348
1.76212
-0.0361812
1.47558
-0.037593
1.23687
-0.0369601
1.03709
-0.0346387
0.863692
-0.024899
0.66825
0.309233
0.00667179
0.303031
0.0139496
0.661537
0.0208118
0.857418
0.0254948
1.03311
0.0271494
1.23604
0.0259082
1.4778
0.0220309
1.76706
0.0158516
2.11363
0.00770896
2.52964
-0.00209104
3.03033
-0.0117567
3.02984
-0.0194657
2.52839
-0.02506
2.11203
-0.0282947
1.76536
-0.0289089
1.47619
-0.0267684
1.23473
-0.0218028
1.03212
-0.014859
0.856748
-0.00703531
0.660426
0.302198
-0.000949094
0.30398
0.00117356
0.659415
0.0057485
0.852843
0.00993246
1.02893
0.0125898
1.23339
0.0132897
1.4771
0.0120479
1.7683
0.00893578
2.11674
0.00396266
2.53461
-0.00268548
3.03698
-0.00932835
3.03648
-0.0138562
2.53292
-0.0162977
2.11447
-0.016827
1.76589
-0.0155705
1.47493
-0.0123187
1.23148
-0.0073521
1.02715
-0.00205929
0.851455
0.000620156
0.657747
0.302818
-0.000251142
0.304232
0.000346359
0.658817
0.00224918
0.85094
0.00465457
1.02652
0.00687641
1.23116
0.00829366
1.47568
0.0083021
1.76829
0.00636272
2.11868
0.00255536
2.53842
-0.00290923
3.04244
-0.00834456
3.04191
-0.0116424
2.53621
-0.0127426
2.11557
-0.0118617
1.76501
-0.00955205
1.47262
-0.00656862
1.2285
-0.00355545
1.02414
-0.000863095
0.848763
5.84658e-05
0.656825
0.302876
0.000252074
0.303979
0.00068427
0.658385
0.00158636
0.850038
0.00258967
1.02552
0.00343688
1.23032
0.00383732
1.47528
0.00350153
1.76863
0.0021569
2.12003
-0.000482279
2.54106
-0.00420034
3.04616
-0.00723667
3.04495
-0.00861279
2.53759
-0.00880358
2.11576
-0.00814351
1.76435
-0.0067429
1.47122
-0.00493912
1.22669
-0.00314659
1.02235
-0.00155924
0.847176
-0.000576592
0.655843
0.3023
3.89197e-05
0.303941
0.000202208
0.658222
0.000553316
0.849687
0.000910369
1.02516
0.00117141
1.23006
0.0010942
1.47536
0.000481493
1.76924
-0.000772831
2.12128
-0.00270873
2.54299
-0.00520683
3.04866
-0.00704757
3.04679
-0.00786402
2.53841
-0.00776053
2.11566
-0.00693538
1.76352
-0.00565262
1.46994
-0.00416904
1.22521
-0.00272766
1.02091
-0.00145736
0.845905
-0.000497645
0.654883
0.301802
-0.000249104
0.30419
-0.000363199
0.658336
-0.000421722
0.849745
-0.000526515
1.02526
-0.000765734
1.2303
-0.00123367
1.47583
-0.00202644
1.77003
-0.00321547
2.12247
-0.0048112
2.54459
-0.00650851
3.05035
-0.00752066
3.0478
-0.00764658
2.53853
-0.00701418
2.11503
-0.00594221
1.76245
-0.00469875
1.4687
-0.00341657
1.22393
-0.00220324
1.01969
-0.0011457
0.844848
-0.000326769
0.654064
0.301475
-0.0003477
0.304537
-0.000662126
0.65865
-0.00101218
0.850096
-0.00152608
1.02578
-0.00223204
1.231
-0.00310223
1.4767
-0.00417211
1.7711
-0.005459
2.12376
-0.0068985
2.54603
-0.00816365
3.05162
-0.0085622
3.0482
-0.00815104
2.53812
-0.00716247
2.11404
-0.00588252
1.76117
-0.00455647
1.46737
-0.00329573
1.22267
-0.002164
1.01856
-0.00118974
0.843874
-0.000404476
0.653279
0.301071
-0.000481284
0.305019
-0.00111968
0.659289
-0.00184147
0.850817
-0.00271046
1.02665
-0.00372202
1.23201
-0.0049109
1.47789
-0.0062834
1.77248
-0.00778307
2.12526
-0.00924838
2.54749
-0.010299
3.05267
-0.0102835
3.04819
-0.00938529
2.53722
-0.008033
2.11269
-0.00651035
1.75965
-0.00501303
1.46587
-0.00363923
1.22129
-0.00243022
1.01735
-0.00138754
0.842831
-0.000513838
0.652405
0.300557
-0.000636123
0.305655
-0.00156319
0.660216
-0.00261875
0.851873
-0.0038312
1.02786
-0.00523141
1.23341
-0.00683198
1.47949
-0.00860149
1.77425
-0.0104288
2.12709
-0.0120627
2.54913
-0.0130188
3.05363
-0.0126676
3.04783
-0.0113399
2.5359
-0.00956793
2.11091
-0.00769409
1.75777
-0.00590421
1.46408
-0.00428831
1.21968
-0.00287644
1.01594
-0.00165705
0.841611
-0.000621584
0.65137
0.299935
-0.000833303
0.306488
-0.0020476
0.66143
-0.00344547
0.853271
-0.00506786
1.02948
-0.00693792
1.23528
-0.00904731
1.4816
-0.0113287
1.77653
-0.0136104
2.12937
-0.0155423
2.55106
-0.0165
3.05458
-0.0158163
3.04715
-0.0140143
2.53409
-0.0117461
2.10864
-0.00940659
1.75543
-0.00720405
1.46188
-0.00523244
1.2177
-0.00351716
1.01422
-0.00203545
0.84013
-0.000768358
0.650103
0.299167
-0.00107489
0.307563
-0.00264896
0.663004
-0.0044703
0.855092
-0.00659092
1.0316
-0.00903079
1.23772
-0.011765
1.48433
-0.0146903
1.77945
-0.0175653
2.13224
-0.0199214
2.55342
-0.0209566
3.05562
-0.0199175
3.04611
-0.0175453
2.53172
-0.0146495
2.10575
-0.0117038
1.75249
-0.00895306
1.45913
-0.0065024
1.21525
-0.00437571
1.0121
-0.00253883
0.838293
-0.000962256
0.648526
0.298205
-0.00138784
0.308951
-0.00342037
0.665037
-0.00577395
0.857446
-0.00851585
1.03434
-0.0116661
1.24087
-0.0151848
1.48785
-0.0189262
1.78319
-0.0225635
2.13588
-0.0254804
2.55633
-0.0266511
3.05679
-0.0251938
3.04465
-0.0221114
2.52864
-0.0184175
2.10206
-0.0146926
1.74876
-0.0112311
1.45567
-0.00815566
1.21218
-0.00549049
1.00943
-0.00318866
0.835991
-0.00120999
0.646547
0.296995
-0.00179632
0.310747
-0.00442187
0.667662
-0.0074606
0.860484
-0.0109976
1.03788
-0.0150515
1.24493
-0.0195649
1.49236
-0.0243402
1.78797
-0.028943
2.14048
-0.0325697
2.55996
-0.0339138
3.05813
-0.0319301
3.04267
-0.0279473
2.52466
-0.023237
2.09734
-0.0185162
1.74404
-0.0141438
1.4513
-0.0102667
1.2083
-0.00691033
1.00608
-0.00401272
0.833093
-0.0015218
0.644056
0.295473
-0.00233739
0.313085
-0.00572754
0.671052
-0.00964188
0.864399
-0.0142003
1.04244
-0.0194183
1.25015
-0.0252114
1.49816
-0.0313082
1.79407
-0.0371294
2.1463
-0.0416313
2.56446
-0.0431609
3.05966
-0.0404879
3.04
-0.0353551
2.51952
-0.0293525
2.09134
-0.0233668
1.73806
-0.0178378
1.44577
-0.0129425
1.20341
-0.0087087
1.00184
-0.00505527
0.82944
-0.00191528
0.640916
0.293558
-0.00305923
0.316144
-0.00747186
0.675465
-0.0125508
0.869478
-0.0184451
1.04833
-0.0251637
1.25686
-0.032591
1.50558
-0.0403562
1.80183
-0.0476863
2.15363
-0.0532272
2.57
-0.0549067
3.06134
-0.0513109
3.0364
-0.0447097
2.51292
-0.0370731
2.08371
-0.0294913
1.73047
-0.0225034
1.43878
-0.0163236
1.19723
-0.01098
0.996499
-0.00636798
0.824828
-0.00240784
0.636956
0.29115
-0.00402656
0.32017
-0.00973902
0.681177
-0.0163045
0.876043
-0.0239453
1.05598
-0.0326534
1.26557
-0.0422281
1.51516
-0.052135
1.81174
-0.0613252
2.16282
-0.0680602
2.57674
-0.0697885
3.06307
-0.0649471
3.03156
-0.0564712
2.50445
-0.0467717
2.07401
-0.0371739
1.72088
-0.028338
1.42994
-0.0205314
1.18942
-0.0137937
0.989761
-0.00799068
0.819025
-0.00301666
0.631982
0.288133
-0.00547332
0.325644
-0.0131334
0.688838
-0.021793
0.884703
-0.0317648
1.06595
-0.0430007
1.27681
-0.055244
1.5274
-0.0677305
1.82423
-0.0790556
2.17415
-0.0870137
2.5847
-0.0885295
3.06459
-0.082
3.02503
-0.0711793
2.49363
-0.058949
2.06178
-0.0468885
1.70882
-0.0357918
1.41885
-0.0259808
1.17961
-0.0174899
0.981271
-0.0101492
0.811684
-0.00382837
0.625661
0.284305
-0.00715052
0.332794
-0.0169682
0.698655
-0.0283838
0.896118
-0.041582
1.07915
-0.0564685
1.29169
-0.0723956
1.54333
-0.0882089
1.84004
-0.102032
2.18797
-0.111179
2.59384
-0.112097
3.06551
-0.103301
3.01624
-0.0895321
2.47986
-0.0741554
2.0464
-0.0589882
1.69365
-0.0449663
1.40483
-0.0325151
1.16716
-0.0217475
0.970503
-0.0124962
0.802433
-0.00469102
0.617856
0.279614
-0.0111224
0.343916
-0.0254916
0.713025
-0.0407418
0.911369
-0.0580476
1.09645
-0.0770069
1.31065
-0.0968388
1.56316
-0.115955
1.85916
-0.131952
2.20397
-0.141658
2.60355
-0.141141
3.06499
-0.129319
3.00441
-0.112039
2.46258
-0.0930697
2.02743
-0.0744395
1.67502
-0.0572122
1.3876
-0.0418631
1.15181
-0.0284888
0.957129
-0.0168163
0.79076
-0.00637731
0.607417
0.273236
-0.0144908
0.358407
-0.0326323
0.731166
-0.0543836
0.93312
-0.0785481
1.12062
-0.10409
1.3362
-0.129522
1.58859
-0.152634
1.88227
-0.170669
2.222
-0.180258
2.61314
-0.177352
3.06208
-0.161579
2.98864
-0.140049
2.44105
-0.116784
2.00416
-0.0938251
1.65206
-0.0722304
1.366
-0.0525453
1.13212
-0.0349884
0.939572
-0.0196934
0.775465
-0.00743323
0.595157
0.265803
-0.0297044
0.388112
-0.0585074
0.759969
-0.0868242
0.961437
-0.116812
1.1506
-0.14748
1.36686
-0.17678
1.61789
-0.201912
1.9074
-0.219876
2.23997
-0.227273
2.62053
-0.220197
3.05501
-0.19937
2.96781
-0.173068
2.41474
-0.145388
1.97648
-0.118388
1.62506
-0.0931529
1.34077
-0.0702554
1.10923
-0.0498197
0.919136
-0.031035
0.756681
-0.0118818
0.576004
0.253921
-0.0417639
0.429876
-0.090785
0.80899
-0.134042
1.00469
-0.17389
1.19045
-0.210849
1.40382
-0.242634
1.64968
-0.267364
1.93213
-0.282614
2.25522
-0.285387
2.62331
-0.272021
3.04164
-0.24482
2.94061
-0.213242
2.38317
-0.180931
1.94417
-0.149514
1.59364
-0.119655
1.31091
-0.0915545
1.08113
-0.0652467
0.892828
-0.0401644
0.731598
-0.0150212
0.550861
0.2389
-0.0264269
0.456303
-0.0663559
0.848919
-0.109954
1.04829
-0.154908
1.2354
-0.197915
1.44683
-0.237859
1.68962
-0.273573
1.96784
-0.302574
2.28422
-0.320897
2.64163
-0.32223
3.04297
-0.303264
2.92165
-0.271914
2.35182
-0.233792
1.90605
-0.192415
1.55226
-0.150163
1.26866
-0.108755
1.03972
-0.0695459
0.853619
-0.0348573
0.69691
-0.0105842
0.526588
0.228316
1.71238e-05
0.456285
-0.0222082
0.871144
-0.0580365
1.08412
-0.0952803
1.27265
-0.132336
1.48388
-0.168245
1.72553
-0.200518
2.00012
-0.226062
2.30976
-0.240952
2.65652
-0.239567
3.04159
-0.219934
2.90201
-0.190587
2.32247
-0.157238
1.8727
-0.123329
1.51836
-0.0909723
1.2363
-0.0613637
1.01011
-0.0350223
0.827277
-0.012525
0.674413
-0.000364846
0.514427
0.227951
-0.00122978
0.457515
-0.0194533
0.889368
-0.0425548
1.10722
-0.0689543
1.29905
-0.0974312
1.51236
-0.126449
1.75455
-0.153122
2.02679
-0.174317
2.33096
-0.186096
2.6683
-0.183515
3.03901
-0.16556
2.88406
-0.140602
2.29751
-0.113904
1.846
-0.088248
1.4927
-0.0649834
1.21304
-0.0446164
0.989742
-0.0272532
0.809914
-0.0129589
0.660118
-0.00181456
0.503283
0.226137
-0.00173214
0.459247
-0.0172995
0.904935
-0.0368879
1.12681
-0.057467
1.31963
-0.0798487
1.53474
-0.102756
1.77746
-0.124084
2.04812
-0.14105
2.34792
-0.149978
2.67723
-0.146481
3.03551
-0.130294
2.86787
-0.109166
2.27638
-0.0874535
1.82429
-0.0671923
1.47244
-0.0492032
1.19505
-0.0336832
0.974222
-0.0206026
0.796834
-0.00995643
0.649472
-0.00181818
0.495145
0.224318
-0.00259482
0.461842
-0.0154585
0.917799
-0.03206
1.14341
-0.0500504
1.33762
-0.0694007
1.55409
-0.0886284
1.79669
-0.106347
2.06583
-0.120197
2.36177
-0.126868
2.6839
-0.122452
3.0311
-0.107327
2.85274
-0.0887567
2.25781
-0.0703167
1.80585
-0.0535052
1.45563
-0.0388376
1.18038
-0.0263618
0.961746
-0.0159388
0.786411
-0.00750855
0.641042
-0.00147009
0.489106
0.222848
-0.00410681
0.465949
-0.0151049
0.928797
-0.0293651
1.15767
-0.0454198
1.35367
-0.062715
1.57139
-0.0798952
1.81387
-0.0955748
2.08151
-0.1075
2.3737
-0.112578
2.68898
-0.107237
3.02575
-0.092451
2.83796
-0.0753749
2.24074
-0.0590505
1.78953
-0.04455
1.44113
-0.032125
1.16795
-0.021683
0.951304
-0.0130077
0.777735
-0.00598475
0.634019
-0.00102208
0.484144
0.221826
-0.00488932
0.470838
-0.0153822
0.93929
-0.0283453
1.17063
-0.0431556
1.36848
-0.0590733
1.58731
-0.0750375
1.82983
-0.0895813
2.09606
-0.100394
2.38451
-0.104377
2.69296
-0.0980606
3.01944
-0.0829625
2.82286
-0.0665148
2.22429
-0.0514414
1.77445
-0.0384385
1.42812
-0.0275037
1.15702
-0.0184191
0.94222
-0.0109181
0.770234
-0.0048558
0.627957
-0.000624712
0.479913
0.221201
-0.00545218
0.47629
-0.0159193
0.949757
-0.0283493
1.18306
-0.0425931
1.38273
-0.0577842
1.6025
-0.0731025
1.84515
-0.087077
2.11003
-0.0973056
2.39474
-0.100531
2.69618
-0.0931308
3.01204
-0.0770897
2.80682
-0.0605064
2.20771
-0.0460082
1.75996
-0.0339428
1.41606
-0.0240286
1.14711
-0.0159088
0.9341
-0.00926582
0.763591
-0.00391409
0.622605
-0.000297165
0.476296
0.220904
-0.00611319
0.482404
-0.0166972
0.960341
-0.0289929
1.19536
-0.0431059
1.39684
-0.0580839
1.61748
-0.0732339
1.8603
-0.0870935
2.12389
-0.097145
2.40479
-0.0998754
2.69891
-0.0912659
3.00343
-0.0736556
2.78921
-0.0562229
2.19027
-0.0417542
1.74549
-0.0302564
1.40456
-0.0210953
1.13794
-0.0137306
0.926735
-0.00776729
0.757628
-0.00299204
0.61783
0.000143431
0.47316
0.221048
-0.00676673
0.48917
-0.0175727
0.971147
-0.0299415
1.20773
-0.0441555
1.41105
-0.0592438
1.63256
-0.0746162
1.87567
-0.088762
2.13804
-0.0990228
2.41505
-0.101541
2.70143
-0.0916594
2.99355
-0.0718698
2.76942
-0.052878
2.17128
-0.0379652
1.73057
-0.026803
1.3934
-0.0182669
1.12941
-0.0115534
0.920022
-0.00620798
0.752282
-0.00198708
0.613609
0.000624779
0.470548
0.221673
-0.00732508
0.496496
-0.0184216
0.982244
-0.0310225
1.22033
-0.0454913
1.42552
-0.0609264
1.648
-0.0768079
1.89155
-0.0915487
2.15278
-0.102347
2.42585
-0.104921
2.70401
-0.0937567
2.98238
-0.0712042
2.74687
-0.04992
2.15
-0.0341397
1.71479
-0.023236
1.38249
-0.0153944
1.12157
-0.00937519
0.914003
-0.00468956
0.747597
-0.000891145
0.60981
0.00120128
0.468456
0.222874
-0.0077907
0.504286
-0.0192106
0.993664
-0.0321322
1.23325
-0.0469217
1.44031
-0.0628089
1.66389
-0.0793187
1.90806
-0.0948451
2.16831
-0.106469
2.43748
-0.109417
2.70696
-0.0970967
2.97006
-0.0712579
2.72103
-0.0468484
2.12559
-0.0296959
1.69764
-0.0191189
1.37192
-0.0122364
1.11468
-0.00694865
0.908715
-0.0028657
0.743514
0.000294746
0.60665
0.00179955
0.466951
0.224673
-0.00816283
0.512449
-0.0198781
1.00538
-0.0331411
1.24651
-0.0482616
1.45543
-0.0646587
1.68028
-0.08189
1.92529
-0.0983931
2.18481
-0.111158
2.45024
-0.114841
2.71064
-0.101527
2.95675
-0.0718854
2.69139
-0.0434821
2.09719
-0.0244612
1.67862
-0.0145623
1.36202
-0.00890626
1.10903
-0.00441341
0.904222
-0.000826049
0.739926
0.00148044
0.604343
0.00231226
0.466119
0.226986
-0.00844944
0.520898
-0.020402
1.01733
-0.0339725
1.26009
-0.0494216
1.47088
-0.0663477
1.69721
-0.0843202
1.94327
-0.101853
2.20234
-0.115932
2.46432
-0.120647
2.71535
-0.106563
2.94266
-0.0725822
2.65741
-0.0389127
2.06352
-0.0172602
1.65697
-0.00885865
1.35362
-0.00506979
1.10524
-0.00288358
0.902036
-0.000276967
0.73732
0.00260936
0.601457
0.00317602
0.465553
0.230162
-0.00864849
0.529547
-0.0207788
1.02946
-0.0346055
1.27391
-0.0503327
1.48661
-0.0677324
1.71461
-0.0863975
1.96193
-0.104971
2.22092
-0.12058
2.47993
-0.126882
2.72166
-0.1127
2.92848
-0.0742743
2.61898
-0.0343248
2.02357
-0.00970807
1.63235
-0.00210746
1.34602
-0.00146793
1.1046
-0.00144974
0.902018
-0.00108848
0.736959
-0.000804936
0.601174
-0.000240352
0.464988
0.229921
-0.00876018
0.538307
-0.0209838
1.04169
-0.0349867
1.28792
-0.0509228
1.50254
-0.0687166
1.7324
-0.0880255
1.98124
-0.107649
2.24054
-0.124864
2.49714
-0.133058
2.72985
-0.118912
2.91434
-0.0748813
2.57495
-0.0254654
1.97415
0.00360339
1.60328
0.00828497
1.34133
0.00312171
1.10976
0.000308657
0.904831
0.000994504
0.736273
0.00373407
0.598434
0.00355282
0.465169
0.233474
-0.00878969
0.547097
-0.0210411
1.05394
-0.0351182
1.30199
-0.051171
1.5186
-0.0692606
1.75049
-0.0891403
2.00112
-0.109778
2.26118
-0.128603
2.51597
-0.139143
2.74039
-0.126516
2.90171
-0.0791585
2.52759
-0.0207299
1.91572
0.0177998
1.56475
0.020217
1.33892
0.00427081
1.12571
-0.00521253
0.914314
-0.00881643
0.739877
-0.00860357
0.598221
-0.00628758
0.462853
0.227187
-0.00874908
0.555846
-0.0209284
1.06612
-0.0349901
1.31605
-0.0510643
1.53467
-0.0693494
1.76878
-0.0897
2.02147
-0.111281
2.28276
-0.131731
2.53642
-0.144782
2.75344
-0.133741
2.89067
-0.0800296
2.47388
-0.00590514
1.8416
0.0431999
1.51565
0.0382178
1.3439
0.000376906
1.16355
-0.029416
0.944107
-0.0298842
0.740345
-0.0159201
0.584257
-0.0030166
0.44995
0.22417
-0.00862151
0.564467
-0.0206718
1.07817
-0.0346288
1.33001
-0.0506336
1.55068
-0.0689989
1.78714
-0.0896785
2.04215
-0.112077
2.30516
-0.134152
2.55849
-0.149997
2.76929
-0.14206
2.88273
-0.0866556
2.41848
-0.000272227
1.75521
0.0704526
1.44492
0.0557118
1.35864
-0.00616712
1.22543
-0.0517934
0.989733
-0.0520598
0.740611
-0.0276391
0.559836
0.000408861
0.421902
0.224579
-0.00840202
0.572869
-0.0202815
1.09005
-0.0340411
1.34377
-0.0499198
1.56655
-0.0682151
1.80544
-0.0891144
2.06305
-0.112243
2.32829
-0.135983
2.58223
-0.154851
2.78815
-0.150635
2.87851
-0.0910524
2.35889
0.0169563
1.64721
0.116235
1.34564
0.117666
1.35721
0.0213053
1.32179
-0.0633772
1.07442
-0.0852323
0.762466
-0.0294012
0.504005
0.0525771
0.339924
0.277156
-0.00828516
0.581155
-0.0200901
1.10185
-0.0339426
1.35762
-0.0501875
1.5828
-0.0692322
1.82448
-0.0915903
2.08541
-0.117205
2.3539
-0.144982
2.61001
-0.169774
2.81295
-0.171745
2.88049
-0.107388
2.29454
0.0507951
1.48902
0.212017
1.18442
0.202632
1.36659
0.0230575
1.50136
-0.147395
1.24487
-0.274639
0.88971
-0.442451
0.671817
-0.874739
0.772212
0.894587
-1.49217
-0.00820011
0.589355
-0.0197355
1.11339
-0.0334337
1.37132
-0.0496952
1.59906
-0.0691124
1.8439
-0.092365
2.10866
-0.119769
2.3813
-0.150928
2.64117
-0.181899
2.84392
-0.193529
2.89212
-0.121247
2.22226
0.0926098
1.27517
0.265862
1.01117
0.195987
1.43647
-0.045214
1.74256
-0.337738
1.53739
-0.669498
1.22147
-1.26026
1.26258
-1.85749
1.36944
1.26217
-2.22508
-0.00802459
0.597379
-0.0192739
1.12464
-0.0327487
1.3848
-0.0489476
1.61526
-0.0686649
1.86362
-0.0927154
2.13271
-0.121877
2.41047
-0.156574
2.67586
-0.194215
2.88156
-0.216274
2.91417
-0.139013
2.14499
0.0667103
1.06944
0.205859
0.872021
0.0703747
1.57195
-0.241813
2.05475
-0.655499
1.95108
-1.2891
1.85508
-1.89031
1.86379
-2.18871
1.66784
1.40469
-2.33123
-0.00768763
0.605067
-0.0186464
1.13559
-0.0318796
1.39803
-0.047927
1.63131
-0.0678771
1.88357
-0.0925978
2.15743
-0.123443
2.44131
-0.16173
2.71415
-0.206939
2.92677
-0.24598
2.95322
-0.216591
2.1156
-0.130453
0.983305
-0.116719
0.858287
-0.291051
1.74629
-0.731658
2.49536
-1.35328
2.5727
-1.89185
2.39365
-2.17788
2.14981
-2.30602
1.79598
1.46892
-2.37025
-0.00723954
0.612306
-0.0178436
1.1462
-0.030755
1.41094
-0.0467352
1.64729
-0.0667978
1.90363
-0.0920812
2.18272
-0.124485
2.47372
-0.166384
2.75605
-0.220253
2.98064
-0.28335
3.01631
-0.330354
2.16261
-0.407928
1.06088
-0.591403
1.04176
-0.94849
2.10337
-1.46123
3.0081
-1.88642
2.99789
-2.14033
2.64755
-2.25464
2.26412
-2.32135
1.86269
1.52193
-2.37435
-0.00721768
0.619524
-0.0179834
1.15696
-0.0311547
1.42411
-0.0477719
1.6639
-0.0684951
1.92435
-0.0949366
2.20916
-0.129417
2.5082
-0.175461
2.80209
-0.238827
3.044
-0.329867
3.10735
-0.465944
2.29869
-0.700723
1.29566
-1.06492
1.40596
-1.54688
2.58533
-1.94536
3.40659
-2.15642
3.20895
-2.27505
2.76617
-2.33867
2.32775
-2.39161
1.91563
1.57292
-2.44261
-0.00767811
0.627202
-0.0192862
1.16857
-0.0334738
1.4383
-0.0512796
1.68171
-0.0734251
1.9465
-0.101751
2.23748
-0.138999
2.54544
-0.189866
2.85296
-0.263754
3.11789
-0.385938
3.22954
-0.605215
2.51796
-0.958203
1.64865
-1.42217
1.86993
-1.89462
3.05778
-2.10942
3.62139
-2.20208
3.30161
-2.27174
2.83584
-2.3285
2.3845
-2.38444
1.97157
1.61524
-2.42675
-0.00819314
0.635395
-0.0207238
1.1811
-0.0360325
1.45361
-0.0550264
1.7007
-0.0786947
1.97017
-0.10898
2.26777
-0.149045
2.58551
-0.20481
2.90873
-0.28948
3.20256
-0.441944
3.382
-0.727222
2.80324
-1.15023
2.07165
-1.62185
2.34155
-1.97564
3.41156
-2.09083
3.73659
-2.15109
3.36188
-2.21999
2.90473
-2.31687
2.48138
-2.41482
2.06952
1.68539
-2.48497
-0.00872335
0.644119
-0.0222407
1.19462
-0.0387426
1.47011
-0.0590545
1.72102
-0.0842894
1.9954
-0.116585
2.30006
-0.159452
2.62838
-0.219923
2.9692
-0.314442
3.29708
-0.49131
3.55887
-0.817512
3.12944
-1.26886
2.52301
-1.709
2.78168
-1.93865
3.64121
-2.02017
3.81812
-2.07548
3.41719
-2.13591
2.96516
-2.20872
2.5542
-2.28483
2.14563
1.68516
-2.2846
-0.0092467
0.653365
-0.0238057
1.20918
-0.0415645
1.48787
-0.0632573
1.74271
-0.0901082
2.02225
-0.124368
2.33432
-0.169862
2.67387
-0.23441
3.03375
-0.33647
3.39914
-0.526622
3.74902
-0.860564
3.46338
-1.29321
2.95565
-1.68066
3.16914
-1.83637
3.79691
-1.89695
3.8787
-1.9548
3.47504
-2.02256
3.03292
-2.0121
2.54373
-2.00569
2.13922
1.75317
-2.07371
-0.00965506
0.66302
-0.0253145
1.22484
-0.0442535
1.50681
-0.0671574
1.76561
-0.0952018
2.0503
-0.13067
2.36979
-0.17738
2.72058
-0.243292
3.09966
-0.346618
3.50246
-0.532971
3.93537
-0.838848
3.76926
-1.20766
3.32446
-1.50802
3.4695
-1.60844
3.89734
-1.62165
3.8919
-1.63447
3.48786
-1.63035
3.02881
-1.51708
2.43046
-1.07056
1.69271
0.682609
-0.00998021
0.673001
-0.0268275
1.24169
-0.0472988
1.52728
-0.0721109
1.79043
-0.102462
2.08065
-0.140898
2.40823
-0.191536
2.77122
-0.262871
3.17099
-0.373553
3.61315
-0.566425
4.12825
-0.862274
4.06511
-1.19467
3.65685
-1.44374
3.71858
-1.51277
3.96636
-1.47671
3.85584
-1.39885
3.40999
-1.278
2.90796
-1.08879
2.24125
-0.647881
1.2518
0.034728
-0.010217
0.683218
-0.0282375
1.25971
-0.0502159
1.54926
-0.0768539
1.81706
-0.109474
2.11327
-0.150727
2.44948
-0.204916
2.82541
-0.280762
3.24684
-0.396269
3.72865
-0.588608
4.32058
-0.862955
4.33946
-1.14551
3.93941
-1.332
3.90507
-1.35313
3.98749
-1.29247
3.79518
-1.18098
3.29851
-1.00368
2.73066
-0.702643
1.94021
-0.196099
0.745252
-0.161371
-0.0102537
0.693471
-0.0293701
1.27882
-0.0528277
1.57272
-0.0812641
1.8455
-0.115996
2.148
-0.159794
2.49328
-0.217019
2.88263
-0.296163
3.32598
-0.413355
3.84585
-0.598983
4.50621
-0.841726
4.5822
-1.06284
4.16052
-1.17938
4.0216
-1.15639
3.9645
-1.06582
3.70461
-0.914297
3.14699
-0.675023
2.49138
-0.337655
1.60285
-0.0459193
0.453516
-0.20729
-0.0100399
0.703511
-0.0301204
1.2989
-0.0549497
1.59754
-0.0850034
1.87555
-0.121623
2.18462
-0.167522
2.53918
-0.226865
2.94197
-0.3075
3.40662
-0.423014
3.96136
-0.595563
4.67876
-0.800508
4.78715
-0.959648
4.31966
-1.00965
4.07161
-0.928069
3.88292
-0.773023
3.54956
-0.569981
2.94395
-0.31987
2.24127
-0.0933258
1.3763
0.000672032
0.359518
-0.206618
-0.00953943
0.713051
-0.0303338
1.3197
-0.0563846
1.6236
-0.0878585
1.90703
-0.125973
2.22273
-0.173271
2.58648
-0.23388
3.00258
-0.314502
3.48724
-0.425126
4.07198
-0.578097
4.83173
-0.738988
4.94804
-0.835823
4.4165
-0.819483
4.05527
-0.669982
3.73342
-0.443131
3.32271
-0.211898
2.71271
0.0168918
2.01248
0.155148
1.23805
0.115528
0.399138
-0.0910901
-0.00860757
0.721658
-0.0298407
1.34093
-0.056891
1.65065
-0.0892975
1.93943
-0.12841
2.26185
-0.176449
2.63451
-0.23722
3.06335
-0.315935
3.56595
-0.418753
4.1748
-0.550538
4.96352
-0.665564
5.06306
-0.701377
4.45231
-0.626442
3.98033
-0.435049
3.54203
-0.182077
3.06974
0.0458669
2.48477
0.237838
1.82051
0.30202
1.17386
0.170682
0.530476
0.0795918
-0.00673779
0.728396
-0.0285933
1.36279
-0.0563112
1.67836
-0.0892071
1.97233
-0.128596
2.30124
-0.176403
2.68232
-0.236045
3.123
-0.310555
3.64047
-0.40267
4.26692
-0.511552
5.0724
-0.587813
5.13932
-0.578041
4.44254
-0.470492
3.87278
-0.274512
3.34605
-0.0357415
2.83097
0.161796
2.28723
0.284539
1.69777
0.298022
1.16038
0.157255
0.671243
0.236847
-0.00518468
0.733581
-0.0267767
1.38438
-0.0542406
1.70583
-0.0868438
2.00493
-0.125784
2.34018
-0.172745
2.72928
-0.230129
3.18038
-0.299678
3.71001
-0.380311
4.34755
-0.463977
5.15607
-0.508139
5.18349
-0.473471
4.40787
-0.360079
3.75939
-0.186817
3.17279
0.0100985
2.63405
0.173045
2.12429
0.246782
1.62403
0.221407
1.18576
0.100738
0.791912
0.337585
-0.00447492
0.738056
-0.0246273
1.40453
-0.051022
1.73222
-0.0825995
2.03651
-0.12008
2.37766
-0.165167
2.77437
-0.219162
3.23437
-0.282448
3.7733
-0.351999
4.4171
-0.414964
5.21903
-0.434017
5.20254
-0.385785
4.35964
-0.281529
3.65513
-0.142943
3.0342
0.00177752
2.48933
0.118061
2.008
0.159641
1.58245
0.129319
1.21608
0.0491729
0.872058
0.386758
-0.0017483
0.739804
-0.0206003
1.42338
-0.0455023
1.75712
-0.0752853
2.06629
-0.110576
2.41295
-0.152949
2.81674
-0.201888
3.28331
-0.257551
3.82896
-0.315971
4.47552
-0.362486
5.26555
-0.365483
5.20554
-0.31387
4.30802
-0.224844
3.56611
-0.120746
2.9301
-0.0214763
2.39006
0.0521769
1.93435
0.0795327
1.5551
0.0629028
1.23271
0.0202129
0.914748
0.406971
0.000848945
0.738955
-0.0160307
1.44026
-0.0385553
1.77965
-0.0655095
2.09325
-0.0975522
2.44499
-0.135513
2.8547
-0.178013
3.32581
-0.225351
3.8763
-0.272644
4.52281
-0.303862
5.29676
-0.297511
5.19919
-0.25261
4.26312
-0.181449
3.49495
-0.106309
2.85496
-0.0407424
2.3245
0.00553195
1.88807
0.0269406
1.53369
0.0241633
1.23549
0.00799949
0.930912
0.414971
0.00482279
0.734132
-0.00734288
1.45243
-0.0272724
1.79958
-0.0516054
2.11758
-0.080744
2.47413
-0.112107
2.88607
-0.147863
3.36157
-0.186723
3.91516
-0.223654
4.55975
-0.244458
5.31757
-0.233702
5.18843
-0.197053
4.22647
-0.143702
3.44159
-0.090915
2.80217
-0.0468666
2.28045
-0.0165631
1.85777
0.000991033
1.51613
0.0065776
1.2299
0.00400625
0.933483
0.418977
0.0083243
0.725808
0.00128801
1.45946
-0.0152579
1.81612
-0.0347162
2.13704
-0.0577053
2.49712
-0.0819525
2.91031
-0.110851
3.39047
-0.14123
3.94554
-0.169056
4.58757
-0.183953
5.33246
-0.17303
5.17751
-0.144116
4.19756
-0.106336
3.40381
-0.0710721
2.76691
-0.042099
2.25148
-0.0203067
1.83598
-0.00678789
1.50261
0.000938705
1.22217
0.00303342
0.931389
0.42201
0.0137576
0.71205
0.0120529
1.46117
0.00241934
1.82576
-0.0129507
2.15241
-0.0278569
2.51202
-0.0458483
2.92831
-0.0672409
3.41186
-0.0882962
3.9666
-0.107988
4.60726
-0.118509
5.34299
-0.110189
5.16919
-0.0897352
4.17711
-0.0662659
3.38035
-0.0436028
2.74425
-0.0273896
2.23526
-0.0138116
1.8224
-0.00433609
1.49314
0.00115661
1.21668
0.00294699
0.929598
0.424957
0.0182036
0.693847
0.0234864
1.45589
0.0200497
1.82919
0.015361
2.1571
0.00889422
2.51849
-0.00243729
2.93964
-0.0130517
3.42247
-0.0257271
3.97927
-0.0382756
4.61981
-0.0461723
5.35088
-0.0425589
5.16557
-0.032027
4.16658
-0.0215084
3.36983
-0.0125636
2.7353
-0.00438752
2.22709
-0.000911771
1.81893
0.00323649
1.48899
0.00479745
1.21512
0.00388148
0.930514
0.428839
0.0270501
0.666797
0.0426149
1.44032
0.0482796
1.82353
0.0522526
2.15312
0.0535193
2.51722
0.0556683
2.93749
0.0545511
3.42359
0.0510818
3.98274
0.0457809
4.62511
0.0399615
5.3567
0.0375794
5.16795
0.037003
4.16715
0.0346331
3.3722
0.0311627
2.73877
0.0266782
2.23157
0.0226737
1.82293
0.0179104
1.49375
0.0133016
1.21973
0.00748734
0.936328
0.436326
0.0352691
0.631528
0.0638665
1.41172
0.0852993
1.8021
0.100735
2.13769
0.117089
2.50087
0.129926
2.92465
0.140603
3.41291
0.147262
3.97608
0.149442
4.62293
0.14525
5.36089
0.135492
5.17771
0.122085
4.18056
0.105082
3.3892
0.0864312
2.75742
0.0683433
2.24966
0.0511146
1.84016
0.0368275
1.50804
0.0238997
1.23266
0.0117605
0.948468
0.448087
0.0530453
0.578482
0.0994738
1.3653
0.134396
1.76717
0.163798
2.10829
0.194285
2.47038
0.221868
2.89707
0.246375
3.38841
0.265052
3.9574
0.276095
4.61189
0.275485
5.36151
0.26102
5.19218
0.23701
4.20457
0.206631
3.41958
0.173325
2.79073
0.139711
2.28327
0.107362
1.87251
0.0774897
1.53791
0.0502101
1.25993
0.0239517
0.974726
0.472038
0.0754121
0.50307
0.153342
1.28737
0.212688
1.70783
0.26241
2.05857
0.306824
2.42597
0.348442
2.85545
0.386185
3.35067
0.41782
3.92577
0.439721
4.58999
0.445269
5.35596
0.428757
5.20869
0.396162
4.23716
0.352728
3.46301
0.302775
2.84068
0.249465
2.33658
0.195568
1.9264
0.142858
1.59062
0.0924631
1.31033
0.0427759
1.02441
0.514814
0.0469876
0.456083
0.117199
1.21715
0.184883
1.64014
0.24825
1.9952
0.301454
2.37276
0.347614
2.80929
0.382584
3.3157
0.40411
3.90424
0.409412
4.58469
0.394254
5.37112
0.36073
5.24221
0.319813
4.27808
0.275814
3.50701
0.23117
2.88533
0.18705
2.3807
0.14413
1.96932
0.102435
1.63232
0.0627301
1.35003
0.0251319
1.06201
0.539946
-0.0051229
0.461205
0.0231801
1.18885
0.0670678
1.59626
0.119879
1.94239
0.173274
2.31937
0.224812
2.75775
0.269076
3.27143
0.301518
3.8718
0.317504
4.5687
0.312376
5.37624
0.28662
5.26797
0.250856
4.31384
0.210678
3.54719
0.169232
2.92677
0.128551
2.42138
0.0903466
2.00753
0.0558826
1.66678
0.0258017
1.38012
0.00350867
1.0843
0.543455
-0.019735
0.48094
-0.00452246
1.17364
0.0264048
1.56533
0.0651191
1.90367
0.107594
2.27689
0.150298
2.71505
0.189771
3.23196
0.222202
3.83937
0.242266
4.54864
0.243834
5.37468
0.224982
5.28682
0.195142
4.34368
0.160828
3.5815
0.125933
2.96167
0.0928227
2.45449
0.0629108
2.03744
0.0367133
1.69298
0.0142809
1.40255
-0.00136043
1.09995
0.542094
-0.0200158
0.500956
-0.0116285
1.16525
0.0127578
1.54094
0.0435993
1.87283
0.0764371
2.24406
0.108968
2.68252
0.139876
3.20105
0.16677
3.81248
0.185145
4.53026
0.18926
5.37056
0.175781
5.3003
0.152308
4.36716
0.125057
3.60876
0.0976203
2.9891
0.0718414
2.48027
0.0484432
2.06084
0.0274966
1.71393
0.00930929
1.42074
-0.00265169
1.11191
0.539443
-0.0117517
0.512708
-0.00871091
1.16221