/*--------------------------------*- C++ -*----------------------------------*\
| =========                 |                                                 |
| \\      /  F ield         | OpenFOAM: The Open Source CFD Toolbox           |
|  \\    /   O peration     | Version:  4.0                                   |
|   \\  /    A nd           | Web:      www.OpenFOAM.org                      |
|    \\/     M anipulation  |                                                 |
\*---------------------------------------------------------------------------*/
FoamFile
{
    version     2.0;
    format      ascii;
    class       volVectorField;
    location    "4";
    object      U;
}
// * * * * * * * * * * * * * * * * * * * * * * * * * * * * * * * * * * * * * //

dimensions      [0 1 -1 0 0 0 0];

internalField   nonuniform List<vector> 
2200
(
(0.866155 -0.0320286 0)
(0.998096 -0.0525075 0)
(1.00762 -0.0385929 0)
(1.00246 -0.0271448 0)
(0.999541 -0.0187071 0)
(0.997958 -0.0123717 0)
(0.997132 -0.00794794 0)
(0.996759 -0.00483714 0)
(0.996745 -0.00255677 0)
(0.99709 -0.000847326 0)
(0.997065 0.00107154 0)
(0.996665 0.00266863 0)
(0.99672 0.00497387 0)
(0.997107 0.00804825 0)
(0.997937 0.0124489 0)
(0.999517 0.0187637 0)
(1.00243 0.0271848 0)
(1.00756 0.0386252 0)
(0.998055 0.0525331 0)
(0.866137 0.032032 0)
(0.710319 -0.0244178 0)
(0.997423 -0.0490778 0)
(1.02657 -0.0409014 0)
(1.02016 -0.0365046 0)
(1.01168 -0.0296391 0)
(1.00544 -0.0229781 0)
(1.00135 -0.0168169 0)
(0.999045 -0.0113568 0)
(0.99803 -0.00647349 0)
(0.997819 -0.00181399 0)
(0.997764 0.00235199 0)
(0.997885 0.00703037 0)
(0.998905 0.0118102 0)
(1.00122 0.0171809 0)
(1.00533 0.0232622 0)
(1.01159 0.0298575 0)
(1.02009 0.0366591 0)
(1.02654 0.0410284 0)
(0.997366 0.0491241 0)
(0.710234 0.024443 0)
(0.620488 -0.0119635 0)
(0.993712 -0.029438 0)
(1.049 -0.0229992 0)
(1.0453 -0.0245602 0)
(1.03454 -0.0228926 0)
(1.02533 -0.0201853 0)
(1.01838 -0.0164643 0)
(1.01358 -0.0119893 0)
(1.01058 -0.00716772 0)
(1.00906 -0.00210506 0)
(1.00901 0.00300393 0)
(1.01049 0.00797779 0)
(1.01344 0.0126785 0)
(1.01821 0.0170311 0)
(1.02515 0.0206339 0)
(1.03432 0.0232215 0)
(1.04505 0.0248032 0)
(1.04871 0.0231464 0)
(0.993345 0.0295465 0)
(0.620115 0.0119686 0)
(0.553711 -0.00562549 0)
(0.980494 -0.0168216 0)
(1.04883 -0.0141379 0)
(1.04794 -0.0161558 0)
(1.04004 -0.0153495 0)
(1.03352 -0.0143207 0)
(1.02805 -0.0123794 0)
(1.02362 -0.00958907 0)
(1.02036 -0.00597857 0)
(1.01843 -0.00160978 0)
(1.01831 0.00312672 0)
(1.02009 0.00740047 0)
(1.02324 0.010811 0)
(1.02758 0.0133811 0)
(1.03299 0.015098 0)
(1.03947 0.0159362 0)
(1.04738 0.0165616 0)
(1.04826 0.0144208 0)
(0.980073 0.016967 0)
(0.553335 0.00569931 0)
(0.524759 -0.000690974 0)
(0.956711 -0.00556102 0)
(1.03497 -0.00745875 0)
(1.03783 -0.0106032 0)
(1.03336 -0.0116369 0)
(1.02826 -0.0116519 0)
(1.02367 -0.010474 0)
(1.01979 -0.00823684 0)
(1.0168 -0.00507278 0)
(1.01497 -0.00118237 0)
(1.01483 0.00298675 0)
(1.01641 0.00676599 0)
(1.01921 0.00968441 0)
(1.02295 0.0116466 0)
(1.02745 0.0125606 0)
(1.03255 0.0122745 0)
(1.03699 0.0110706 0)
(1.03415 0.00790535 0)
(0.955583 0.00589281 0)
(0.523551 0.000785389 0)
(0.523276 0.000657434 0)
(0.949151 7.58355e-06 0)
(1.02334 -0.00130738 0)
(1.02794 -0.00375448 0)
(1.02615 -0.00510397 0)
(1.02371 -0.00578024 0)
(1.0211 -0.00559601 0)
(1.01849 -0.00464348 0)
(1.01624 -0.00284461 0)
(1.01472 -0.000302791 0)
(1.01457 0.00263852 0)
(1.01564 0.00512132 0)
(1.01758 0.00664413 0)
(1.01995 0.00727196 0)
(1.02229 0.00714138 0)
(1.02451 0.00634709 0)
(1.02635 0.00461546 0)
(1.02163 0.00189869 0)
(0.94709 0.000248177 0)
(0.521541 -0.000615033 0)
(0.526068 0.000168828 0)
(0.9498 7.73046e-05 0)
(1.0227 -0.000489104 0)
(1.02824 -0.00159022 0)
(1.02753 -0.0025897 0)
(1.02589 -0.00346859 0)
(1.02378 -0.00379897 0)
(1.02153 -0.00331795 0)
(1.01949 -0.00201452 0)
(1.01808 2.58164e-05 0)
(1.01797 0.00248462 0)
(1.01884 0.00446572 0)
(1.02038 0.00543996 0)
(1.02223 0.00554795 0)
(1.02409 0.00485554 0)
(1.02553 0.00352842 0)
(1.02596 0.00228901 0)
(1.02029 0.0008651 0)
(0.947115 8.3444e-05 0)
(0.523858 -0.000133086 0)
(0.526511 -5.31394e-05 0)
(0.949889 -0.000145861 0)
(1.0223 -0.000499355 0)
(1.02794 -0.000947129 0)
(1.02775 -0.00134668 0)
(1.027 -0.00164058 0)
(1.026 -0.00168149 0)
(1.02477 -0.00133044 0)
(1.02342 -0.000464746 0)
(1.0222 0.00103 0)
(1.02168 0.00258975 0)
(1.02184 0.00353023 0)
(1.02247 0.00386719 0)
(1.02328 0.00374873 0)
(1.02424 0.00331651 0)
(1.02502 0.00258157 0)
(1.02518 0.00180128 0)
(1.0194 0.00101988 0)
(0.946762 0.000379455 0)
(0.523974 0.000109608 0)
(0.525888 1.05486e-05 0)
(0.949182 -4.26953e-05 0)
(1.02111 -0.000161482 0)
(1.02666 -0.000326086 0)
(1.02654 -0.000483605 0)
(1.02598 -0.000545333 0)
(1.02522 -0.000384699 0)
(1.0243 8.53755e-06 0)
(1.02324 0.000725242 0)
(1.0222 0.00167608 0)
(1.02161 0.00274029 0)
(1.02156 0.00329343 0)
(1.02195 0.00346275 0)
(1.02245 0.003264 0)
(1.02281 0.00276923 0)
(1.02309 0.00214987 0)
(1.02305 0.00151008 0)
(1.01724 0.000908169 0)
(0.945044 0.000393107 0)
(0.522636 8.6688e-05 0)
(0.525972 6.65811e-05 0)
(0.948993 0.000139393 0)
(1.0208 0.000176645 0)
(1.02634 0.00020395 0)
(1.02624 0.000255894 0)
(1.02582 0.000404657 0)
(1.02522 0.000678116 0)
(1.02442 0.00109804 0)
(1.02343 0.00171126 0)
(1.02241 0.00248362 0)
(1.02166 0.0030454 0)
(1.02127 0.00336877 0)
(1.02119 0.00321184 0)
(1.02125 0.00284376 0)
(1.02135 0.00232938 0)
(1.02145 0.00177397 0)
(1.02127 0.001226 0)
(1.01543 0.000725849 0)
(0.943371 0.000286932 0)
(0.521749 4.58157e-05 0)
(0.526525 9.49617e-05 0)
(0.949276 0.000221208 0)
(1.02104 0.00035083 0)
(1.02669 0.000532003 0)
(1.02677 0.000815419 0)
(1.02643 0.0011445 0)
(1.02589 0.00155786 0)
(1.02513 0.0020654 0)
(1.02415 0.00266016 0)
(1.02301 0.00329916 0)
(1.02201 0.00365847 0)
(1.02132 0.00365596 0)
(1.02092 0.00336122 0)
(1.02074 0.00284468 0)
(1.02063 0.00227448 0)
(1.02058 0.00170919 0)
(1.02029 0.0011867 0)
(1.01439 0.000725434 0)
(0.942382 0.000320808 0)
(0.521229 7.64128e-05 0)
(0.527321 0.000115417 0)
(0.950069 0.000341755 0)
(1.02181 0.000630732 0)
(1.02752 0.000983153 0)
(1.02757 0.00139036 0)
(1.02721 0.00186031 0)
(1.02666 0.00241313 0)
(1.02587 0.00303625 0)
(1.0248 0.00368674 0)
(1.02346 0.00426746 0)
(1.02212 0.00451277 0)
(1.02111 0.00428953 0)
(1.02044 0.00379832 0)
(1.02 0.00316374 0)
(1.01973 0.00250283 0)
(1.01956 0.00187767 0)
(1.0192 0.00131622 0)
(1.01326 0.000825125 0)
(0.941252 0.000392236 0)
(0.520458 0.00010524 0)
(0.528269 0.000143567 0)
(0.951236 0.000465338 0)
(1.02291 0.000902316 0)
(1.02856 0.00139551 0)
(1.02857 0.00195985 0)
(1.02818 0.00260603 0)
(1.02757 0.00333529 0)
(1.02667 0.00411817 0)
(1.02541 0.00488164 0)
(1.02378 0.00547533 0)
(1.02204 0.0056205 0)
(1.02063 0.00523495 0)
(1.01966 0.0045464 0)
(1.019 0.00374689 0)
(1.01857 0.0029489 0)
(1.01829 0.00220937 0)
(1.01787 0.00155275 0)
(1.01189 0.000979512 0)
(0.93987 0.000472936 0)
(0.519471 0.000129306 0)
(0.529535 0.000186106 0)
(0.952773 0.000608414 0)
(1.02438 0.00118639 0)
(1.02998 0.00184211 0)
(1.02995 0.00259776 0)
(1.02948 0.00345733 0)
(1.02875 0.00440884 0)
(1.02766 0.00540361 0)
(1.02613 0.00633564 0)
(1.02409 0.00699697 0)
(1.02185 0.00706524 0)
(1.01999 0.00649863 0)
(1.01866 0.00559509 0)
(1.01776 0.00458719 0)
(1.01717 0.00359954 0)
(1.01678 0.00269435 0)
(1.0163 0.00189563 0)
(1.01026 0.00119952 0)
(0.93821 0.000582996 0)
(0.51827 0.000161403 0)
(0.531184 0.000239294 0)
(0.954789 0.000785645 0)
(1.02633 0.00153716 0)
(1.03188 0.0023931 0)
(1.03176 0.00338127 0)
(1.03118 0.00450006 0)
(1.03027 0.00572751 0)
(1.02892 0.00699309 0)
(1.027 0.00815203 0)
(1.02443 0.00892816 0)
(1.02156 0.00893243 0)
(1.01914 0.00815651 0)
(1.01741 0.00698866 0)
(1.01622 0.00571238 0)
(1.01544 0.0044747 0)
(1.01493 0.00334745 0)
(1.01437 0.00235631 0)
(1.00827 0.00149365 0)
(0.936163 0.000728705 0)
(0.516777 0.000203182 0)
(0.533314 0.000309003 0)
(0.9574 0.00101424 0)
(1.02885 0.00198487 0)
(1.03433 0.00309099 0)
(1.03412 0.00436865 0)
(1.03338 0.00581116 0)
(1.03222 0.00738666 0)
(1.0305 0.00899771 0)
(1.02806 0.0104513 0)
(1.0248 0.0113874 0)
(1.02113 0.0113276 0)
(1.01803 0.0102961 0)
(1.01581 0.00879525 0)
(1.01428 0.00717533 0)
(1.01327 0.00561457 0)
(1.01262 0.00419836 0)
(1.01196 0.00295565 0)
(1.00578 0.00187483 0)
(0.933603 0.000915913 0)
(0.514902 0.00025588 0)
(0.536066 0.000400214 0)
(0.960768 0.00131186 0)
(1.03211 0.00256502 0)
(1.0375 0.00399266 0)
(1.03716 0.00563885 0)
(1.0362 0.00749184 0)
(1.03472 0.00950796 0)
(1.03251 0.0115566 0)
(1.02939 0.0133835 0)
(1.02521 0.0145236 0)
(1.02055 0.0143848 0)
(1.0166 0.0130303 0)
(1.01376 0.011106 0)
(1.01181 0.00904741 0)
(1.01053 0.00707303 0)
(1.0097 0.00528605 0)
(1.00894 0.0037203 0)
(1.00265 0.00235942 0)
(0.930383 0.00115234 0)
(0.512543 0.000321796 0)
(0.539642 0.000522949 0)
(0.965136 0.00170251 0)
(1.03634 0.0033168 0)
(1.04161 0.00515566 0)
(1.04108 0.00727703 0)
(1.03984 0.00965824 0)
(1.0379 0.0122396 0)
(1.03505 0.0148441 0)
(1.03103 0.0171381 0)
(1.02569 0.0185243 0)
(1.01976 0.0182739 0)
(1.01476 0.0165031 0)
(1.01117 0.0140391 0)
(1.0087 0.0114229 0)
(1.00707 0.00892314 0)
(1.00603 0.00666535 0)
(1.00513 0.00468926 0)
(0.998712 0.00297321 0)
(0.926325 0.001451 0)
(0.509576 0.000404712 0)
(0.544308 0.000684293 0)
(0.970763 0.00222752 0)
(1.04175 0.00431742 0)
(1.04688 0.00670536 0)
(1.0461 0.00943721 0)
(1.04447 0.0124964 0)
(1.04194 0.0157948 0)
(1.03823 0.0190961 0)
(1.03304 0.0219605 0)
(1.02621 0.0236251 0)
(1.01868 0.0232035 0)
(1.01237 0.0208925 0)
(1.00785 0.0177429 0)
(1.00475 0.014422 0)
(1.0027 0.0112593 0)
(1.00139 0.00840755 0)
(1.00033 0.00591384 0)
(0.99375 0.00374698 0)
(0.921218 0.0018266 0)
(0.505846 0.00050739 0)
(0.550452 0.000916643 0)
(0.978205 0.00290407 0)
(1.04894 0.00561769 0)
(1.05382 0.00869742 0)
(1.05268 0.0122473 0)
(1.05049 0.0161978 0)
(1.04714 0.0204302 0)
(1.04226 0.0246105 0)
(1.03553 0.0281605 0)
(1.02679 0.0301197 0)
(1.01728 0.0294335 0)
(1.00936 0.0264183 0)
(1.00369 0.0223984 0)
(0.999786 0.0181873 0)
(0.997205 0.0141854 0)
(0.995553 0.0105812 0)
(0.994259 0.00743228 0)
(0.987467 0.0047055 0)
(0.914764 0.00228722 0)
(0.501158 0.000637125 0)
(0.558672 0.00121817 0)
(0.987752 0.00398799 0)
(1.05802 0.00749278 0)
(1.06264 0.0116033 0)
(1.061 0.0161591 0)
(1.05805 0.0212415 0)
(1.05357 0.0266157 0)
(1.04714 0.0318392 0)
(1.0384 0.0361506 0)
(1.02725 0.0383576 0)
(1.01531 0.0372502 0)
(1.00542 0.0333277 0)
(0.998342 0.0282297 0)
(0.993472 0.0229264 0)
(0.990247 0.017898 0)
(0.988193 0.0133712 0)
(0.986654 0.00941529 0)
(0.979628 0.00596707 0)
(0.906697 0.00291649 0)
(0.495279 0.000799052 0)
(0.569721 0.00171998 0)
(1.00099 0.00499601 0)
(1.07065 0.009806 0)
(1.07466 0.0150824 0)
(1.07218 0.0211996 0)
(1.06803 0.027855 0)
(1.06187 0.0347695 0)
(1.05326 0.041283 0)
(1.04188 0.0464298 0)
(1.02772 0.0487941 0)
(1.01284 0.0470518 0)
(1.00061 0.0419583 0)
(0.991837 0.0355144 0)
(0.985738 0.0288432 0)
(0.981639 0.0225015 0)
(0.978974 0.0167672 0)
(0.976997 0.0117397 0)
(0.969552 0.00739589 0)
(0.896313 0.00353644 0)
(0.487804 0.0010066 0)
(0.585093 0.00242009 0)
(1.01764 0.00815416 0)
(1.08646 0.0140168 0)
(1.08983 0.021416 0)
(1.08615 0.0291117 0)
(1.08023 0.0375457 0)
(1.07172 0.0460623 0)
(1.06019 0.0538124 0)
(1.04543 0.0595995 0)
(1.0276 0.0617969 0)
(1.00921 0.0590673 0)
(0.994196 0.052517 0)
(0.983398 0.0445021 0)
(0.975833 0.0362791 0)
(0.970701 0.0284743 0)
(0.96736 0.0214125 0)
(0.964988 0.015208 0)
(0.95722 0.0097683 0)
(0.883882 0.00491721 0)
(0.478724 0.0012919 0)
(0.608096 0.00371114 0)
(1.04339 0.00931392 0)
(1.10916 0.0188867 0)
(1.11059 0.0286347 0)
(1.10461 0.0394342 0)
(1.09583 0.0505425 0)
(1.08386 0.0611636 0)
(1.06839 0.070258 0)
(1.04939 0.0764897 0)
(1.02718 0.0781548 0)
(1.00487 0.0740161 0)
(0.98681 0.065641 0)
(0.973692 0.0557531 0)
(0.964319 0.0456491 0)
(0.95776 0.0359541 0)
(0.953274 0.0269845 0)
(0.949925 0.0189207 0)
(0.941031 0.0117499 0)
(0.865795 0.005427 0)
(0.465684 0.00172425 0)
(0.637288 0.00697069 0)
(1.07316 0.01977 0)
(1.13863 0.0305706 0)
(1.13736 0.0437659 0)
(1.12752 0.0570872 0)
(1.11434 0.0702004 0)
(1.09747 0.0821868 0)
(1.07687 0.0917583 0)
(1.05271 0.0975071 0)
(1.02545 0.0977723 0)
(0.99864 0.0916052 0)
(0.977031 0.0810683 0)
(0.961224 0.0691534 0)
(0.949687 0.0571822 0)
(0.941347 0.0457869 0)
(0.935416 0.0353156 0)
(0.930932 0.0258427 0)
(0.921499 0.017423 0)
(0.849017 0.00923435 0)
(0.453443 0.0024162 0)
(0.715442 0.0127756 0)
(1.12736 0.02773 0)
(1.17778 0.0474184 0)
(1.17018 0.0672065 0)
(1.15436 0.0836302 5.141e-34)
(1.13484 0.0984341 -2.31457e-34)
(1.11157 0.110949 0)
(1.08479 0.119837 0)
(1.05482 0.123976 0)
(1.0222 0.121865 0)
(0.990912 0.112914 0)
(0.96589 0.0997968 0)
(0.947404 0.0857198 0)
(0.933618 0.0717963 0)
(0.923319 0.0584517 0)
(0.915651 0.0459107 0)
(0.909427 0.0341088 0)
(0.896355 0.0225338 0)
(0.811424 0.0113423 0)
(0.423845 0.00369805 0)
(0.76697 0.0325634 3.28867e-20)
(1.19039 0.0559807 -2.538e-20)
(1.22468 0.0831316 0)
(1.20622 0.106409 2.19751e-20)
(1.18268 0.121733 -1.77524e-20)
(1.15553 0.13679 2.44191e-34)
(1.12522 0.148211 0)
(1.0918 0.155286 1.30417e-20)
(1.05552 0.157069 -4.28126e-20)
(1.01685 0.152115 8.76029e-21)
(0.980306 0.140237 0)
(0.950927 0.124691 -2.22111e-20)
(0.928592 0.10871 -2.67985e-20)
(0.91116 0.0931947 4.69827e-20)
(0.897223 0.0785039 -3.71079e-20)
(0.885806 0.0648587 0)
(0.87575 0.0526793 -1.35587e-20)
(0.859389 0.0397288 0)
(0.773768 0.0289383 -7.51779e-20)
(0.402234 0.0137932 8.88838e-20)
(0.786144 0.0712733 -7.28218e-21)
(1.22843 0.112821 6.85452e-20)
(1.26674 0.142556 -1.19793e-21)
(1.24096 0.156541 -5.07014e-20)
(1.20848 0.171015 -3.71422e-20)
(1.17335 0.184064 6.05256e-20)
(1.13579 0.193061 0)
(1.09547 0.197774 0)
(1.05259 0.197012 6.77428e-20)
(1.00749 0.189368 0)
(0.964937 0.17507 7.94313e-20)
(0.930372 0.157956 2.38265e-20)
(0.90358 0.141389 8.14292e-22)
(0.882035 0.126181 -5.07177e-20)
(0.864183 0.112618 0)
(0.849045 0.100684 0)
(0.835684 0.0899754 -2.23592e-19)
(0.818195 0.0830847 5.65966e-19)
(0.748281 0.0656109 -3.33193e-19)
(0.392138 0.0372328 -3.98149e-19)
(0.786585 0.116013 -2.52646e-20)
(1.25707 0.190935 1.34471e-20)
(1.29819 0.21454 8.87527e-21)
(1.26708 0.221156 8.93421e-20)
(1.22758 0.231199 1.30723e-20)
(1.18608 0.238838 -1.57326e-19)
(1.14212 0.243442 5.40068e-20)
(1.09565 0.244315 0)
(1.04696 0.239946 -1.42418e-19)
(0.996361 0.228997 1.26061e-19)
(0.948898 0.212088 -2.13796e-19)
(0.910427 0.19353 1.00012e-19)
(0.880676 0.176657 -6.47172e-20)
(0.856843 0.161996 1.46438e-19)
(0.837297 0.149558 0)
(0.821024 0.139185 -5.35715e-20)
(0.80706 0.130217 0)
(0.789757 0.123 3.09521e-19)
(0.723405 0.106666 -7.33153e-19)
(0.387787 0.0572691 4.57413e-19)
(0.778798 0.157747 5.31037e-20)
(1.26983 0.26321 -2.9048e-20)
(1.31424 0.285966 -1.02204e-20)
(1.28036 0.290114 0)
(1.23753 0.295546 -6.81996e-20)
(1.19237 0.297296 8.46251e-20)
(1.14391 0.297032 -5.82964e-20)
(1.09273 0.293338 0)
(1.03936 0.284735 1.01e-19)
(0.98428 0.269955 -8.8443e-20)
(0.933021 0.250034 1.80879e-19)
(0.891873 0.229728 0)
(0.86042 0.212185 -1.35516e-19)
(0.835591 0.197491 7.73273e-20)
(0.815599 0.185343 1.93861e-19)
(0.799295 0.175444 -1.69839e-19)
(0.785618 0.167352 2.77253e-19)
(0.769343 0.158823 -6.17569e-19)
(0.704342 0.142665 3.9192e-19)
(0.382103 0.0760675 -4.90006e-19)
(0.771891 0.197357 -1.05132e-20)
(1.27321 0.330837 7.67058e-21)
(1.31911 0.354058 -3.79588e-20)
(1.28345 0.357136 7.68154e-20)
(1.23956 0.358362 -7.70926e-20)
(1.1923 0.355618 2.79835e-20)
(1.14087 0.351149 2.40737e-21)
(1.08629 0.343024 -1.14377e-19)
(1.02926 0.330065 -1.04862e-19)
(0.970601 0.311128 -1.86073e-19)
(0.916474 0.28777 -3.85754e-19)
(0.873562 0.265284 -1.16839e-19)
(0.841177 0.24662 3.49699e-21)
(0.815931 0.231403 -2.54678e-19)
(0.795842 0.219049 -5.16029e-21)
(0.779628 0.209083 2.41925e-19)
(0.766135 0.201247 -7.28407e-20)
(0.750581 0.192262 -4.39261e-20)
(0.687409 0.174336 0)
(0.375297 0.0937183 1.01241e-18)
(0.767077 0.235773 0)
(1.27153 0.394998 5.14123e-22)
(1.31796 0.419134 -6.31771e-21)
(1.28088 0.421103 -1.06514e-20)
(1.23639 0.418284 7.67054e-20)
(1.18736 0.41225 -6.40625e-20)
(1.13367 0.404204 6.41612e-20)
(1.07643 0.392047 1.87503e-19)
(1.01649 0.374848 -5.74685e-20)
(0.955004 0.351594 9.42838e-20)
(0.898793 0.324461 2.05667e-19)
(0.854848 0.299422 2.52904e-19)
(0.82208 0.279302 -1.49263e-19)
(0.796776 0.263263 2.70898e-19)
(0.776795 0.250448 -2.13503e-19)
(0.760774 0.240189 0)
(0.747487 0.232248 -5.47777e-19)
(0.732532 0.222898 7.38222e-19)
(0.67132 0.203145 5.5166e-20)
(0.368709 0.10975 -1.04589e-18)
(0.763427 0.271505 -1.12579e-20)
(1.26702 0.456294 -2.37295e-20)
(1.31373 0.481011 5.25787e-20)
(1.27521 0.482478 -7.35016e-20)
(1.23003 0.475788 6.69409e-20)
(1.1792 0.467084 -6.33677e-20)
(1.12348 0.455759 1.29876e-19)
(1.06393 0.43985 -5.73958e-20)
(1.0015 0.418515 -2.35204e-19)
(0.937691 0.390821 1.72986e-21)
(0.879994 0.359615 -2.15987e-19)
(0.835627 0.331702 -2.61764e-19)
(0.802957 0.30988 1.61902e-19)
(0.777933 0.292835 -9.61036e-20)
(0.758283 0.279409 2.25647e-19)
(0.742603 0.268738 0)
(0.72962 0.260523 -3.30582e-19)
(0.715235 0.250799 4.87419e-19)
(0.65594 0.229265 9.41116e-19)
(0.362459 0.12469 -1.10761e-18)
(0.760237 0.30505 -9.00432e-20)
(1.26091 0.514725 3.65352e-20)
(1.30733 0.53984 -4.10266e-20)
(1.26736 0.54132 8.20878e-20)
(1.22145 0.531119 1.13392e-20)
(1.16885 0.520158 -1.31513e-19)
(1.11121 0.50576 -7.60885e-20)
(1.04946 0.486276 -7.38516e-20)
(0.984727 0.460842 -1.31367e-19)
(0.918884 0.428546 2.11256e-19)
(0.860126 0.392945 2.2177e-19)
(0.815869 0.361842 4.15209e-19)
(0.783761 0.338126 0)
(0.759347 0.319979 1.61053e-21)
(0.740238 0.305886 -6.00745e-19)
(0.725021 0.29477 1.37209e-19)
(0.712416 0.286227 6.9108e-19)
(0.698572 0.276172 -2.01456e-19)
(0.641235 0.252835 4.38089e-19)
(0.356488 0.138729 -3.36004e-20)
(0.757405 0.337387 1.36163e-20)
(1.25368 0.570162 4.60897e-20)
(1.29921 0.595888 -2.60599e-20)
(1.25785 0.597531 1.12202e-19)
(1.21118 0.584326 -1.57064e-19)
(1.15686 0.571441 1.36404e-19)
(1.09737 0.554191 8.04283e-20)
(1.03348 0.531289 2.22493e-19)
(0.966486 0.501758 2.67394e-19)
(0.898712 0.464648 -2.36127e-19)
(0.839186 0.424275 0)
(0.795535 0.389641 -1.50042e-19)
(0.764479 0.363868 1.72265e-19)
(0.741023 0.344599 2.14208e-19)
(0.722659 0.329871 -1.22113e-19)
(0.708016 0.31835 -3.03038e-19)
(0.695851 0.309524 -8.9927e-20)
(0.682559 0.299152 1.94925e-21)
(0.627204 0.274238 0)
(0.351027 0.151734 0)
(0.755078 0.368722 -6.47124e-20)
(1.2457 0.622762 0)
(1.28994 0.649296 -2.11436e-20)
(1.24724 0.651056 -1.90998e-21)
(1.19968 0.635369 1.8766e-19)
(1.14364 0.6208 -4.72762e-20)
(1.08233 0.600947 8.69769e-20)
(1.01625 0.574824 -1.52675e-19)
(0.94696 0.541223 2.08706e-19)
(0.877245 0.499072 -7.06084e-20)
(0.817143 0.453497 1.23038e-19)
(0.7746 0.414941 4.6086e-19)
(0.745151 0.386957 7.08658e-21)
(0.723049 0.366617 -2.17256e-19)
(0.705635 0.351366 3.99512e-19)
(0.69166 0.339534 3.23801e-21)
(0.679946 0.330519 9.62146e-20)
(0.667165 0.319914 -4.57825e-19)
(0.613808 0.293638 4.7602e-19)
(0.346264 0.163864 -5.67554e-19)
(0.753308 0.399079 2.66918e-23)
(1.23739 0.672794 0)
(1.2801 0.700254 0)
(1.23601 0.702068 -1.57233e-20)
(1.18741 0.684422 -6.04728e-20)
(1.12967 0.668373 7.39041e-20)
(1.06649 0.646173 -1.63424e-19)
(0.998128 0.617019 0)
(0.926398 0.579362 -3.03819e-19)
(0.854596 0.531891 3.37881e-19)
(0.793961 0.480563 3.31706e-19)
(0.753027 0.43761 -1.67631e-19)
(0.725863 0.407266 -1.95572e-19)
(0.705635 0.38602 4.53151e-19)
(0.689402 0.370489 -1.40113e-19)
(0.676152 0.358541 -1.68331e-19)
(0.66498 0.349563 -9.90399e-20)
(0.652763 0.338922 -4.81078e-19)
(0.601513 0.311525 6.70919e-20)
(0.3424 0.175431 5.93139e-19)
(0.752052 0.428526 -2.87069e-20)
(1.22907 0.72054 -2.24892e-20)
(1.27008 0.748991 2.38617e-20)
(1.22451 0.750782 1.43234e-21)
(1.17473 0.731567 -5.66153e-20)
(1.11528 0.714149 1.3877e-19)
(1.05012 0.689807 0)
(0.979325 0.657805 9.42579e-20)
(0.904941 0.616151 -7.4321e-20)
(0.830807 0.56313 5.68653e-19)
(0.769585 0.505443 -8.24915e-20)
(0.730812 0.457499 8.21988e-20)
(0.706803 0.424585 0)
(0.689077 0.402673 -2.42501e-19)
(0.674213 0.387243 2.84422e-19)
(0.661633 0.375346 0)
(0.650646 0.366505 -2.14084e-19)
(0.638558 0.35573 6.27614e-19)
(0.589495 0.327579 7.51291e-20)
(0.339179 0.186554 -7.17336e-19)
(0.751227 0.457155 -6.07951e-20)
(1.22097 0.766168 7.56942e-20)
(1.26011 0.795647 0)
(1.21298 0.797322 -2.8999e-20)
(1.16195 0.776862 0)
(1.10077 0.75823 -1.66629e-19)
(1.03354 0.73204 0)
(0.960158 0.697467 0)
(0.882841 0.651939 -9.16188e-20)
(0.80598 0.593105 -5.36671e-19)
(0.743859 0.528217 -6.01921e-19)
(0.707673 0.474432 8.77758e-20)
(0.687916 0.438728 2.96796e-19)
(0.673886 0.41678 2.52221e-19)
(0.660589 0.402183 -8.93088e-19)
(0.648461 0.390508 -3.70824e-19)
(0.638212 0.382251 2.15141e-19)
(0.627158 0.371828 0)
(0.580041 0.343396 6.41387e-19)
(0.337399 0.197748 -7.56039e-19)
(0.750755 0.485008 7.14752e-20)
(1.21312 0.809809 -8.66372e-20)
(1.25037 0.840317 0)
(1.2016 0.84184 -1.07333e-20)
(1.14926 0.820413 2.02309e-20)
(1.08633 0.800725 0)
(1.01694 0.772928 5.56837e-20)
(0.940817 0.735981 6.45879e-20)
(0.860251 0.686637 -1.84025e-19)
(0.780217 0.621739 7.68781e-20)
(0.716927 0.548833 0)
(0.684057 0.488212 3.46943e-19)
(0.670205 0.449159 -2.48735e-20)
(0.660852 0.427759 1.29619e-19)
(0.648798 0.41514 1.64228e-19)
(0.636234 0.404863 0)
(0.624549 0.396289 -3.56568e-19)
(0.613276 0.385498 7.01e-19)
(0.56917 0.35616 -7.69691e-19)
(0.33558 0.208202 1.61541e-18)
(0.750562 0.512091 0)
(1.20561 0.851588 0)
(1.24093 0.883115 -2.15088e-20)
(1.19046 0.884452 0)
(1.13682 0.862246 0)
(1.07213 0.841617 -1.83664e-19)
(1.00052 0.812433 5.97865e-20)
(0.921529 0.77342 1.11487e-20)
(0.837346 0.720569 -4.62175e-20)
(0.753384 0.649582 0)
(0.68786 0.567623 -8.08838e-20)
(0.657914 0.498519 -2.79334e-19)
(0.651615 0.455632 -3.21997e-19)
(0.65009 0.436716 -1.23257e-19)
(0.639462 0.428037 1.65772e-19)
(0.626867 0.419034 -3.93362e-19)
(0.614743 0.411316 7.56293e-19)
(0.602326 0.40132 1.69725e-20)
(0.559197 0.373729 -7.25781e-19)
(0.333443 0.220824 -1.0868e-19)
(0.750576 0.538394 0)
(1.19843 0.891554 -5.23349e-20)
(1.23187 0.924082 3.83788e-20)
(1.17969 0.925228 0)
(1.12477 0.902389 0)
(1.05832 0.880962 3.90485e-19)
(0.984499 0.850656 0)
(0.902541 0.809965 0)
(0.814444 0.753924 -4.39878e-19)
(0.726087 0.676678 9.26611e-20)
(0.658338 0.584481 -7.711e-19)
(0.633463 0.504958 0)
(0.638617 0.456645 -2.74544e-19)
(0.6447 0.441078 1.11335e-20)
(0.635994 0.438463 -4.65956e-19)
(0.620763 0.432805 2.13014e-19)
(0.604238 0.423288 7.28316e-21)
(0.590565 0.410343 -8.20884e-19)
(0.547815 0.380465 3.94359e-19)
(0.327977 0.223878 1.1614e-19)
(0.750751 0.563862 0)
(1.19159 0.929845 -8.54053e-20)
(1.22321 0.963286 2.93065e-20)
(1.16933 0.964226 -3.4092e-20)
(1.11317 0.940855 -4.7715e-20)
(1.045 0.918774 5.97413e-20)
(0.968943 0.887577 -4.99995e-20)
(0.883933 0.845541 5.05419e-19)
(0.791557 0.786668 4.70542e-19)
(0.697556 0.703231 8.08923e-19)
(0.624465 0.59972 6.46513e-19)
(0.599741 0.506884 9.6879e-20)
(0.617306 0.452862 4.0517e-19)
(0.642701 0.441535 2.07107e-19)
(0.638301 0.452222 3.33884e-19)
(0.615886 0.452558 -2.2391e-19)
(0.59521 0.444676 -3.00262e-19)
(0.576019 0.43142 3.54239e-19)
(0.535996 0.400639 -2.27174e-19)
(0.321934 0.239623 3.85531e-19)
(0.750985 0.588516 1.5009e-19)
(1.18507 0.966428 1.2808e-19)
(1.21497 1.00074 1.17016e-20)
(1.15942 1.00147 6.82921e-21)
(1.10208 0.97766 1.20369e-19)
(1.03223 0.955078 -1.09626e-19)
(0.954 0.923214 5.31497e-20)
(0.86593 0.880183 4.65367e-21)
(0.769158 0.819086 -5.83183e-19)
(0.669201 0.72997 -8.65936e-19)
(0.592199 0.614527 4.94448e-20)
(0.575897 0.505036 0)
(0.612105 0.438014 0)
(0.65177 0.439578 -1.03897e-19)
(0.64934 0.467321 -4.28424e-19)
(0.612267 0.486751 4.79046e-19)
(0.57084 0.478114 3.33228e-19)
(0.552653 0.447142 0)
(0.513401 0.403806 7.46479e-19)
(0.306197 0.230937 -4.36778e-19)
(0.751309 0.612251 -7.29858e-20)
(1.17887 1.00139 6.44244e-20)
(1.20712 1.03647 -4.46524e-20)
(1.14994 1.03699 -4.56708e-21)
(1.09152 1.01284 3.36514e-20)
(1.02009 0.989887 -2.4593e-20)
(0.939789 0.957535 0)
(0.848678 0.91383 -6.63141e-19)
(0.747293 0.851124 5.49274e-20)
(0.64004 0.756593 0)
(0.553631 0.627089 0)
(0.530735 0.494869 3.61311e-20)
(0.587618 0.413456 2.7201e-20)
(0.666855 0.426664 -7.82206e-20)
(0.680899 0.501976 3.05427e-19)
(0.618106 0.535513 -5.1077e-19)
(0.546156 0.506474 -7.41717e-19)
(0.507178 0.45448 7.08465e-19)
(0.481765 0.399748 -3.03499e-19)
(0.331086 0.249559 1.67586e-19)
(0.751499 0.634808 1.00815e-19)
(1.17294 1.03474 0)
(1.19964 1.07053 0)
(1.14094 1.07084 8.84664e-21)
(1.08153 1.04637 -7.14865e-21)
(1.00864 1.02316 -4.7732e-21)
(0.926379 0.990522 2.52915e-19)
(0.83222 0.946522 7.52636e-19)
(0.72599 0.882906 1.13788e-18)
(0.610808 0.783991 -6.09334e-20)
(0.515478 0.641348 1.0173e-19)
(0.498154 0.485266 -3.60437e-19)
(0.578051 0.380616 -8.10851e-20)
(0.717035 0.402587 -2.29374e-20)
(0.74775 0.490266 0)
(0.655166 0.57238 -4.64627e-20)
(0.542641 0.562952 3.70582e-19)
(0.478973 0.492668 -8.2926e-19)
(0.438931 0.332413 5.96932e-19)
(0.239059 0.132865 5.37164e-19)
(0.751625 0.656788 -2.23902e-19)
(1.16722 1.06658 -9.03115e-20)
(1.19247 1.10312 2.89663e-21)
(1.1323 1.1033 1.65466e-20)
(1.07198 1.07863 0)
(0.997695 1.05538 -2.45378e-19)
(0.913479 1.02279 -3.4738e-19)
(0.816286 0.978969 3.88587e-20)
(0.705097 0.915133 -6.12534e-19)
(0.581502 0.812715 -6.17221e-20)
(0.474167 0.65533 5.73285e-20)
(0.446499 0.464607 3.04213e-19)
(0.561591 0.29371 1.01699e-19)
(0.754156 0.30448 -3.2689e-21)
(0.832516 0.514453 5.14109e-20)
(0.687213 0.665992 0)
(0.492026 0.688538 0)
(0.271964 0.64742 6.50213e-19)
(0.0900549 0.759579 -2.9743e-20)
(0.0186379 1.3867 -8.5578e-19)
(0.751703 0.678519 1.23634e-19)
(1.16174 1.09706 2.23809e-19)
(1.18559 1.1344 -2.35345e-19)
(1.12402 1.13457 5.15048e-20)
(1.06284 1.10991 2.6424e-20)
(0.987232 1.08693 -2.65099e-19)
(0.901145 1.05481 0)
(0.800983 1.01177 -6.71769e-19)
(0.684386 0.948725 0)
(0.550022 0.844515 1.11248e-18)
(0.422931 0.672049 -4.02838e-20)
(0.383521 0.419869 4.51921e-20)
(0.527972 0.166128 -3.00151e-19)
(0.773147 0.305435 5.62381e-20)
(0.895129 0.628016 -1.195e-19)
(0.729026 0.868036 0)
(0.429981 0.971932 0)
(0.229451 1.25949 0)
(0.166076 2.28487 -3.67796e-19)
(0.191392 2.84553 -2.23712e-19)
(0.751638 0.699444 0)
(1.15653 1.12611 0)
(1.179 1.16435 8.68331e-20)
(1.11607 1.16459 -3.30227e-20)
(1.05418 1.1401 -5.69083e-20)
(0.97737 1.11764 2.55284e-19)
(0.889552 1.08634 4.75312e-20)
(0.786502 1.04466 -3.70057e-20)
(0.664355 0.983534 8.87137e-20)
(0.518808 0.879384 -1.27402e-18)
(0.371775 0.688861 1.01904e-19)
(0.298415 0.359498 1.19206e-19)
(0.438002 0.154238 2.30638e-19)
(0.737572 0.403905 9.32762e-19)
(0.912145 0.861692 -2.20359e-19)
(0.761734 1.1898 0)
(0.50207 1.58034 1.64584e-19)
(0.330786 2.54433 3.76702e-19)
(0.312769 3.04266 -4.15504e-19)
(0.264162 3.20036 4.86495e-19)
(0.751468 0.719136 0)
(1.15156 1.15364 2.13212e-19)
(1.17264 1.19294 -1.8011e-20)
(1.1085 1.19337 7.26423e-20)
(1.04607 1.16923 5.97381e-20)
(0.968125 1.14748 0)
(0.878695 1.11732 0)
(0.772934 1.07756 0)
(0.645352 1.0195 6.13046e-19)
(0.486786 0.918012 7.07886e-20)
(0.303782 0.714062 0)
(0.158298 0.407204 -1.78322e-19)
(0.205761 0.356932 0)
(0.511614 0.81367 -8.72679e-19)
(0.836496 1.36133 8.71149e-19)
(0.739439 1.92337 4.29771e-19)
(0.443781 2.73694 1.76569e-20)
(0.39447 3.19548 -6.64995e-20)
(0.334491 3.33923 -7.84165e-20)
(0.29829 3.36586 1.27185e-19)
(0.751268 0.737712 -8.86673e-20)
(1.14677 1.17975 1.23515e-20)
(1.16652 1.2202 -2.10988e-20)
(1.10134 1.22096 -4.42652e-20)
(1.03845 1.19732 0)
(0.959402 1.17644 0)
(0.868597 1.14773 0)
(0.760481 1.11046 5.23575e-20)
(0.627765 1.05685 -7.64016e-19)
(0.455957 0.962582 0)
(0.234638 0.772759 0)
(0.0234098 0.550798 0)
(-0.0763551 0.712459 0)
(0.161114 1.47085 -1.06188e-18)
(0.614794 2.21628 -1.93108e-18)
(0.581049 2.90861 -2.1364e-19)
(0.410674 3.30238 -2.64011e-19)
(0.41353 3.44048 3.51608e-19)
(0.339066 3.47422 -2.41199e-20)
(0.290479 3.44202 0)
(0.750969 0.755987 9.19839e-20)
(1.14203 1.2053 -4.82376e-19)
(1.16052 1.24695 -1.08818e-19)
(1.09442 1.24807 -1.843e-20)
(1.03111 1.22501 -2.26305e-20)
(0.951111 1.20513 2.90667e-19)
(0.859232 1.17812 -3.13969e-20)
(0.749104 1.14383 -7.35e-19)
(0.611866 1.09601 0)
(0.428517 1.01414 -7.89515e-20)
(0.17875 0.864679 7.15565e-20)
(-0.110987 0.757194 0)
(-0.313006 1.13435 0)
(-0.125176 2.06406 1.30015e-18)
(0.348947 2.90662 -2.01823e-19)
(0.349203 3.36108 3.56146e-19)
(0.320256 3.51553 -7.70697e-19)
(0.329461 3.54878 -5.00043e-19)
(0.253663 3.55731 1.20004e-18)
(0.208215 3.51316 -5.00242e-19)
(0.750284 0.774858 1.84394e-19)
(1.13699 1.23189 4.77523e-19)
(1.15425 1.27475 1.24076e-19)
(1.0873 1.27618 0)
(1.02367 1.25362 0)
(0.942872 1.23478 -2.22227e-19)
(0.85015 1.20952 3.05437e-19)
(0.738462 1.17854 6.60404e-19)
(0.597817 1.13763 3.87688e-20)
(0.405102 1.07313 1.30845e-18)
(0.129999 0.976489 -1.19869e-18)
(-0.210514 0.999343 0)
(-0.444073 1.51562 0)
(-0.250907 2.51854 6.8351e-19)
(0.164984 3.21907 9.43946e-19)
(0.268482 3.48411 0)
(0.301645 3.56491 1.17477e-18)
(0.310772 3.58143 3.33243e-19)
(0.260837 3.59741 -1.50384e-18)
(0.238659 3.59194 7.04602e-19)
(0.749119 0.795246 -3.53123e-19)
(1.1314 1.26041 -2.31295e-19)
(1.14747 1.30444 0)
(1.07974 1.30602 0)
(1.01582 1.28379 0)
(0.934397 1.26587 0)
(0.841156 1.24232 -3.38168e-19)
(0.72855 1.21488 7.0378e-19)
(0.585861 1.18178 0)
(0.387324 1.13846 -1.19901e-18)
(0.0973593 1.10287 2.28268e-18)
(-0.266108 1.23633 6.66849e-20)
(-0.484368 1.80959 -8.26201e-20)
(-0.245278 2.76499 -1.01765e-18)
(0.151252 3.30634 5.66318e-19)
(0.276304 3.48557 0)
(0.314558 3.56367 -4.4518e-19)
(0.321731 3.60538 8.50542e-20)
(0.237725 3.67622 5.46641e-19)
(0.150673 3.66398 -6.17007e-19)
(0.747269 0.817131 1.68297e-19)
(1.1252 1.29098 -2.46141e-19)
(1.14005 1.33607 0)
(1.07156 1.33766 -1.46883e-20)
(1.00745 1.31553 1.42509e-20)
(0.925643 1.2984 0)
(0.832264 1.27646 0)
(0.719457 1.25265 -1.28002e-18)
(0.576595 1.22787 -9.24143e-20)
(0.377611 1.20745 1.34167e-18)
(0.0875735 1.23109 -1.15059e-18)
(-0.266486 1.44439 4.80516e-19)
(-0.454016 2.02343 0)
(-0.188191 2.86676 4.29137e-19)
(0.171606 3.2954 -2.60057e-19)