/*--------------------------------*- C++ -*----------------------------------*\
| =========                 |                                                 |
| \\      /  F ield         | OpenFOAM: The Open Source CFD Toolbox           |
|  \\    /   O peration     | Version:  4.0                                   |
|   \\  /    A nd           | Web:      www.OpenFOAM.org                      |
|    \\/     M anipulation  |                                                 |
\*---------------------------------------------------------------------------*/
FoamFile
{
    version     2.0;
    format      ascii;
    class       volVectorField;
    location    "8";
    object      U;
}
// * * * * * * * * * * * * * * * * * * * * * * * * * * * * * * * * * * * * * //

dimensions      [0 1 -1 0 0 0 0];

internalField   nonuniform List<vector> 
918
(
(0.985172 -0.00218841 0)
(0.00501554 2.96625 0)
(-0.00128466 1.69346 0)
(0.97845 0.00382721 0)
(-0.00523069 1.66138 -1.38386e-21)
(-0.00702052 2.9488 -1.92235e-18)
(0.886263 1.20828 6.67307e-19)
(0.522275 0.275124 -9.5492e-21)
(1.00005 -0.000601432 0)
(0.054209 1.54597 0)
(-0.00906821 1.57225 0)
(0.880347 0.00431896 0)
(0.0108882 2.93055 0)
(0.00127274 2.79563 0)
(-0.0141209 3.15073 1.02891e-18)
(0.000310594 1.60559 -2.05965e-20)
(0.644486 0.122701 5.82682e-19)
(0.233617 1.78061 5.16425e-19)
(0.965925 0.0173046 0)
(0.000248873 1.60014 0)
(0.215852 0.31561 -4.9776e-19)
(1.00172 -0.00446582 0)
(1.00059 -0.00837491 0)
(0.97615 -0.00471668 0)
(0.813717 -0.0277602 0)
(0.0116537 2.63997 0)
(-0.0149362 2.91049 6.6956e-19)
(-0.0113135 1.70396 0)
(-0.00493634 1.76741 0)
(-0.00825151 1.71851 0)
(-0.00348228 1.79964 0)
(-0.00454108 1.68199 1.09627e-21)
(0.000448302 1.61282 0)
(-0.020684 2.9876 -6.74352e-23)
(-0.0167105 3.00534 1.49512e-18)
(0.0021022 3.00026 0)
(0.920482 0.00473689 0)
(0.239304 0.800371 -6.57161e-20)
(0.832541 1.26267 -8.6464e-19)
(0.99605 1.04298 8.72281e-19)
(0.703456 1.43429 -1.49688e-19)
(0.763592 1.38841 8.6154e-19)
(0.571195 0.334826 9.31748e-21)
(0.571661 0.238118 0)
(1.2017 0.571112 0)
(0.517493 0.339204 4.34516e-20)
(0.494044 0.264112 -4.50865e-20)
(0.914702 0.00066117 0)
(1.00075 0.000274928 0)
(0.999989 0.000412962 0)
(1.00185 -0.00681624 0)
(1.00112 -0.00225218 0)
(1.00027 -0.000735882 0)
(0.0199245 1.54462 -5.5841e-19)
(0.0389908 1.67048 0)
(0.0900571 1.57697 0)
(0.0111471 1.65469 0)
(0.0219393 1.50157 0)
(-0.00113885 1.61195 0)
(-0.0130916 1.65327 0)
(-0.00788966 1.55887 0)
(-0.0115726 1.67332 0)
(-0.00414811 1.58242 0)
(0.943013 0.00673571 0)
(0.9365 0.0068232 0)
(0.893603 -0.00142027 0)
(0.92561 0.0157394 0)
(0.859499 0.0150515 0)
(0.0147419 3.00033 7.04855e-19)
(0.0116653 3.00751 0)
(0.00623822 3.00283 0)
(0.0135427 2.99711 7.87573e-24)
(0.00803243 2.95857 -1.04759e-18)
(0.0142821 2.98239 0)
(0.0104576 2.90422 0)
(0.0250702 2.93024 1.42584e-24)
(0.00411303 2.82525 0)
(0.0316176 2.91549 0)
(-0.00843306 2.74714 0)
(0.320488 3.56056 0)
(-0.128055 3.64438 0)
(0.147088 3.24465 -9.57519e-19)
(-0.0170129 2.97724 0)
(-0.00170083 1.76267 0)
(-0.0015335 1.68361 2.03213e-20)
(-0.00162177 1.61244 -2.94694e-20)
(0.697514 0.167932 -2.00112e-19)
(0.668133 0.0848243 -1.93631e-19)
(0.683026 0.193602 -6.02369e-19)
(0.644717 0.147993 -4.06377e-19)
(0.234231 1.30226 0)
(0.28661 1.84077 -5.83315e-19)
(0.443022 1.7618 9.49944e-19)
(0.983898 0.0135229 0)
(0.93901 0.0155071 0)
(1.00065 0.000301176 0)
(1.002 0.00939587 0)
(1.00024 0.0143707 -1.11722e-18)
(0.991087 0.0106686 8.51574e-19)
(-0.00331786 1.67493 0)
(0.00125303 1.60057 0)
(-0.00778139 1.72777 0)
(-0.00515398 1.6871 0)
(-0.000931868 1.60513 0)
(0.323121 0.330944 1.59015e-19)
(0.340042 0.286118 0)
(0.994334 -0.00828216 0)
(0.956082 -0.00490608 0)
(0.896612 0.0179282 0)
(0.874952 0.00784735 0)
(0.842743 -0.0111005 0)
(1.05711 0.0031156 0)
(0.839275 0.025873 0)
(0.756425 0.00645125 7.84696e-19)
(-0.0363328 2.86311 3.6509e-19)
(0.0432547 2.90834 0)
(0.0557824 2.884 0)
(-0.00901378 2.70089 0)
(-0.0133045 2.98528 6.16572e-19)
(-0.0183616 2.89569 0)
(-0.0152965 2.98753 -1.9473e-18)
(-0.0137728 2.9257 6.71738e-19)
(-0.0039453 1.78724 0)
(0.00153211 1.77328 0)
(0.00169834 1.68707 -5.95844e-22)
(0.00474097 1.68141 0)
(0.0042601 1.60368 0)
(0.964415 0.00591509 0)
(0.924848 0.00706074 0)
(0.904881 -0.0106408 0)
(0.964184 0.000392318 0)
(0.914896 -0.00655693 0)
(0.339945 1.05407 8.06905e-20)
(0.46298 1.17452 0)
(0.161599 0.632381 -1.09896e-20)
(0.176469 0.34367 0)
(0.952776 1.10025 -2.49888e-19)
(1.06527 0.88621 5.28243e-19)
(0.40891 1.7626 0)
(0.563513 1.6129 0)
(0.636034 1.59073 0)
(0.309404 0.410815 -2.49356e-19)
(0.613563 0.295849 0)
(0.600126 0.216039 1.17651e-19)
(1.04053 0.941753 0)
(1.11857 0.784965 0)
(1.13984 0.728246 -4.71942e-19)
(1.18724 0.627951 0)
(1.2398 0.419441 6.49795e-20)
(0.96092 -0.000948895 0)
(0.952827 0.00156495 0)
(0.914007 0.00194229 0)
(0.980244 -0.0063454 0)
(0.958457 -0.00114685 0)
(0.92892 -0.00029567 0)
(0.99968 0.00184595 0)
(1.00084 0.00244471 0)
(0.999686 0.00107085 0)
(0.00851952 1.60853 3.01207e-19)
(0.0439352 1.52818 0)
(0.00953846 1.63256 5.03888e-19)
(0.0183827 1.56981 -4.36216e-19)
(0.123061 1.79261 -4.27266e-19)
(0.0467622 1.71787 0)
(0.180424 1.68494 0)
(-0.00433937 1.63841 0)
(0.000920799 1.51559 0)
(-0.00545837 1.68184 -1.37619e-21)
(-0.00669447 1.61743 0)
(-0.002028 1.69043 -6.75398e-20)
(0.000262603 1.61878 1.29614e-19)
(-0.0157601 1.64662 0)
(-0.0115323 1.65158 0)
(-0.00355782 1.54226 0)
(-0.00589978 1.68039 0)
(0.00361932 1.58719 0)
(0.999365 0.0100931 0)
(0.958645 -0.00141909 0)
(0.982002 0.00848279 0)
(0.937324 0.00548812 0)
(0.897658 0.0019148 0)
(0.950942 0.00749281 0)
(0.945071 -0.00199735 0)
(0.8944 -0.000814578 0)
(0.00688258 3.06245 -6.24491e-21)
(0.016485 3.05897 0)
(0.0148765 2.9699 0)
(0.00893953 2.87639 0)
(0.955619 3.99285 0)
(1.2761 3.33801 1.00877e-18)
(0.0680535 3.06965 0)
(-0.0299495 2.90339 0)
(0.00683403 1.75896 0)
(0.00524735 1.74916 0)
(0.00261082 1.75304 0)
(-0.00182492 1.78796 5.20943e-21)
(0.00243532 1.77678 0)
(-0.00487931 1.78348 0)
(-0.000857086 1.60379 2.22028e-21)
(-0.000971161 1.6837 4.08343e-20)
(3.61589e-05 1.68334 3.0136e-20)
(0.00475437 1.60135 0)
(0.72541 0.124096 2.96072e-19)
(0.680717 0.0456043 -2.86827e-19)
(0.188334 1.40787 0)
(0.301315 1.24174 -2.4808e-19)
(0.138827 1.44581 -7.28246e-19)
(0.165159 1.36456 7.26621e-19)
(0.895664 0.00411088 0)
(0.957802 0.0097304 0)
(0.972039 0.016694 0)
(0.911815 0.0129384 0)
(0.00282435 1.68138 0)
(-0.00203048 1.67763 0)
(0.00340736 1.59267 0)
(0.473679 0.35384 4.01829e-19)
(0.423844 0.345944 -4.93412e-19)
(0.430343 0.264634 0)
(1.17561 0.0820055 -2.26402e-21)
(1.1618 0.0360909 0)
(1.08632 0.0396313 0)
(1.00379 0.00798417 0)
(0.743361 0.0961233 0)
(0.780187 0.0760528 -1.25687e-18)
(0.707001 0.0409386 4.78657e-19)
(0.00932906 2.98153 4.48048e-19)
(-0.0323224 2.86635 4.78525e-20)
(0.00386762 3.04912 -1.34343e-20)
(0.019399 3.04382 4.84742e-19)
(-0.0152847 2.99609 2.22839e-20)
(-0.0125037 2.94924 -9.05154e-23)
(-0.0172448 3.01207 -4.22277e-19)
(0.0142572 3.02493 3.04127e-19)
(0.00686368 3.03615 -4.76725e-19)
(0.982471 0.0051765 0)
(0.976939 0.00673248 0)
(0.929568 0.00390449 0)
(0.953254 0.00425557 0)
(0.952312 -0.00830006 0)
(0.896987 -0.00720079 0)
(0.955408 0.00335566 0)
(0.953378 -0.00357682 0)
(0.9051 -0.00617622 0)
(0.671819 1.43091 3.21779e-19)
(0.737678 1.55992 0)
(0.0912628 -0.00318374 -1.16653e-20)
(0.314141 0.404715 -3.43713e-19)
(0.221451 0.418315 2.16419e-19)
(0.0836645 0.0575622 -4.53063e-19)
(0.399524 0.88011 1.32559e-18)
(0.390944 0.694265 3.32281e-19)
(0.669421 0.240029 4.40019e-19)
(0.640973 0.273967 1.07044e-19)
(0.623176 0.192185 2.23951e-19)
(1.22631 0.468245 2.83535e-19)
(1.24991 0.256772 3.02021e-19)
(0.0128826 1.66108 2.01846e-19)
(0.0169207 1.61394 0)
(1.0345 0.0238467 0)
(1.00489 0.0104144 0)
(0.973368 0.00288169 0)
(0.0108878 3.07536 0)
(0.0200956 2.94404 8.3376e-19)
(0.0170034 2.95677 0)
(0.0065439 2.85062 -8.26817e-19)
(0.00542425 3.09194 1.98191e-19)
(0.00741587 3.08169 0)
(0.79632 1.87316 -2.30236e-19)
(1.28546 2.54825 6.41816e-19)
(0.791167 2.01239 -1.47842e-18)
(0.0201492 2.98187 -3.39112e-19)
(0.0343472 3.0007 0)
(-0.0341825 2.8767 0)
(-0.00186815 1.68126 -5.9573e-21)
(-0.00479059 1.68739 -9.21545e-20)
(-0.00125855 1.61228 -7.39367e-21)
(0.253472 1.34198 7.92556e-19)
(0.349088 1.18743 -5.38264e-19)
(0.0335461 1.57636 4.91931e-19)
(0.0824157 1.52082 -6.02219e-19)
(0.0965244 1.45711 6.83976e-20)
(0.00490128 3.11799 -1.05089e-18)
(0.0117674 3.11853 1.14418e-18)
(-0.00911762 2.98091 5.40418e-19)
(-0.00401296 2.97725 -4.82715e-19)
(-0.0217132 2.88106 -5.5041e-19)
(0.00793794 3.09922 -1.45326e-18)
(0.0013684 3.10545 1.45313e-18)
(0.475301 0.74115 0)
(0.46343 0.528771 -1.20659e-19)
(0.201093 0.128889 9.71244e-20)
(0.405064 1.01642 9.67516e-19)
(0.404023 0.872632 -1.48291e-18)
(1.25154 0.171753 -4.84727e-20)
(1.25187 0.309451 0)
(1.23985 0.122855 1.16807e-19)
(-0.0115286 1.69666 -1.63449e-21)
(0.000878872 1.68728 0)
(0.00119861 1.62994 0)
(0.3191 1.25538 -2.76683e-19)
(0.367876 1.13113 -6.6275e-19)
(0.396045 1.05894 1.18619e-18)
(1.0062 -0.0181066 0)
(1.00515 -0.00564973 2.0478e-19)
(-0.00665669 1.78672 0)
(-0.0115496 1.79246 0)
(1.00239 0.0040222 1.61101e-21)
(1.00003 0.0122535 4.13507e-19)
(0.0017547 1.78853 -6.65763e-21)
(-0.00121445 1.78907 0)
(0.0339734 3.17929 1.43686e-19)
(0.395249 3.47457 0)
(1.11224 0.64423 6.12134e-20)
(1.01227 0.016335 -1.40215e-21)
(1.00364 0.000552984 0)
(1.00296 -0.000909009 4.34454e-22)
(0.0478866 1.83078 0)
(0.0340395 1.73764 0)
(-0.00444232 1.79781 0)
(0.00487196 1.78256 9.08836e-20)
(-0.001889 1.7846 4.71347e-20)
(0.994532 0.0185004 1.88336e-21)
(1.04386 0.00634586 0)
(1.07102 0.0217947 0)
(0.0142802 1.75602 0)
(0.00624586 1.77902 0)
(-0.00236198 1.79131 0)
(0.160769 1.86744 -2.50258e-19)
(1.00935 -0.0235712 0)
(1.00161 -0.0299737 0)
(1.00651 0.00186231 2.58974e-19)
(1.00231 -0.00497249 -3.12185e-19)
(1.00224 -0.00258149 0)
(0.00833439 1.75954 0)
(-0.00318717 1.78583 0)
(0.00624584 1.76628 0)
(-0.0013607 1.79159 0)
(-0.0049644 1.78748 0)
(-0.00474529 1.79078 0)
(1.02208 0.00316527 0)
(1.0168 0.00382724 -7.45427e-22)
(0.674494 1.1687 4.30027e-19)
(1.0029 0.00184914 -2.57587e-19)
(1.00365 0.00831239 3.10316e-19)
(1.00095 0.00241588 0)
(1.01144 0.0129655 2.50492e-19)
(1.00577 0.011931 -3.1241e-19)
(0.994601 0.0131562 0)
(0.00561171 1.7847 0)
(0.000666438 1.7891 1.87597e-20)
(-0.00366771 1.7829 -1.32859e-20)
(1.15866 0.246036 -1.54899e-20)
(1.10145 0.0847043 0)
(0.0485031 3.08227 -5.41234e-19)
(0.0640647 2.85416 -4.30316e-20)
(0.131055 3.19975 7.49617e-19)
(0.131556 3.22362 -2.67637e-20)
(0.131149 3.22375 0)
(0.0192443 3.13833 1.24682e-19)
(0.0730215 3.16226 5.32332e-19)
(0.0675971 3.18647 -2.3951e-19)
(0.0232512 3.12964 0)
(0.694754 0.349857 0)
(0.610094 0.395975 0)
(1.06311 0.656487 -2.3154e-19)
(1.05714 0.785019 3.62667e-19)
(1.11485 0.543637 0)
(1.16453 0.515415 0)
(1.01235 0.0144703 -4.60466e-19)
(1.01314 0.0121955 5.91723e-19)
(1.0084 0.00638447 0)
(1.01037 0.00708292 0)
(1.00858 0.00156641 0)
(1.01629 0.00861184 0)
(1.00554 -0.00107293 0)
(1.02058 0.0126565 0)
(1.01462 0.0115356 0)
(1.01082 0.00316912 0)
(0.0454604 1.8261 0)
(0.0245428 1.8233 0)
(0.0597057 1.85335 0)
(0.0466861 1.85128 0)
(0.0371391 1.7278 0)
(0.0521789 1.72541 -3.29321e-19)
(0.03148 1.74927 0)
(0.035181 1.74629 1.62601e-19)
(0.0297208 1.76932 -1.7218e-19)
(-0.00476175 1.79916 0)
(-0.00562346 1.79795 0)
(-0.00786304 1.79927 0)
(-0.00996711 1.8059 0)
(0.00314275 1.78167 -5.3598e-20)
(-0.000792429 1.78552 6.46541e-20)
(0.00594023 1.78875 8.15337e-20)
(0.00471988 1.78839 0)
(-0.00480717 1.78585 -1.09887e-19)
(-0.00380727 1.78284 -6.27458e-20)
(0.00480164 1.78057 4.36393e-20)
(-0.00295839 1.77902 -8.64413e-20)
(0.00602077 1.78659 -1.00271e-19)
(1.00509 0.0147064 4.54092e-19)
(1.00874 0.00614595 -5.71471e-19)
(0.998989 0.0242298 -4.79774e-19)
(0.985583 0.0171459 5.98177e-19)
(1.04018 0.0114512 0)
(1.04249 0.0028125 0)
(1.05668 0.0280154 0)
(1.04299 0.00493947 0)
(1.05875 0.0117009 0)
(1.08923 0.0668202 0)
(1.071 0.0447895 0)
(1.09271 0.0356383 0)
(0.00716782 1.78031 -2.40783e-21)
(0.0182528 1.75765 0)
(0.0119177 1.76974 0)
(0.00689218 1.78082 1.92146e-20)
(0.00720917 1.78115 -8.42756e-22)
(0.00558376 1.76711 1.90458e-20)
(0.00246445 1.77099 -1.92398e-20)
(-0.00137117 1.78811 0)
(-0.00112595 1.78743 0)
(-0.00265302 1.78589 0)
(-0.00256071 1.79199 0)
(-0.00261335 1.79141 0)
(0.233095 1.82549 4.1156e-19)
(0.260098 1.76961 2.12093e-19)
(0.345725 1.61824 -1.9896e-19)
(0.16758 1.66606 4.911e-19)
(0.211258 1.79959 1.32996e-19)
(1.00301 -0.00667785 0)
(1.00317 -0.0270284 0)
(0.991935 -0.0252316 0)
(1.0198 -0.0103209 0)
(1.01151 -0.0128831 0)
(1.00724 -0.0161251 0)
(1.00795 -0.0200186 0)
(1.00682 -0.0184236 0)
(1.01882 0.000312197 4.42838e-19)
(1.02122 -0.00175093 -5.60474e-19)
(1.016 0.00677744 -4.35483e-19)
(1.01427 0.00604345 5.51657e-19)
(0.676612 1.23873 0)
(0.556199 1.34603 4.70923e-19)
(0.794863 1.09867 3.05642e-19)
(0.839074 1.09206 -4.10854e-19)
(1.025 2.74247 -8.73865e-19)
(0.831677 0.121083 2.98483e-19)
(1.10549 0.0905861 0)
(1.1478 0.166188 1.85785e-20)
(1.14319 0.150845 1.66704e-21)
(0.96798 0.115338 0)
(0.113359 2.97919 1.77435e-19)
(0.112577 2.89186 -6.53473e-19)
(0.0360041 2.37897 4.83187e-19)
(0.132119 0.190488 -2.00018e-19)
(0.347138 3.40707 -3.82179e-19)
(0.189779 3.30495 0)
(0.23541 3.33669 4.97729e-19)
(0.243688 3.03332 -8.03575e-19)
(0.307731 3.17078 0)
(0.00634851 3.12088 2.83274e-20)
(0.0172113 3.12922 -3.54295e-19)
(0.0148015 3.12531 5.21468e-19)
(0.0350184 3.13962 0)
(0.0336178 3.15081 0)
(1.23959 2.6891 0)
(0.593755 0.84316 -2.75218e-19)
(0.96682 0.936892 -1.90345e-19)
(0.911302 0.962163 0)
(0.794179 0.898633 6.12998e-20)
(1.02425 0.826408 2.58828e-20)
(0.392327 0.455403 -6.04823e-19)
(0.723641 0.339691 -2.26729e-20)
(0.737689 0.309512 2.29595e-19)
(0.615799 0.429425 1.88267e-20)
(0.56602 0.423278 -7.73481e-19)
(0.690728 0.37165 0)
(0.685218 0.42721 3.81564e-19)
(0.681189 0.414874 0)
(0.639192 0.42316 0)
(0.660563 0.37139 0)
(0.755624 0.572954 1.33096e-19)
(1.15438 0.258377 1.63365e-21)
(1.15371 0.382684 0)
(1.18643 0.357548 0)
(0.799492 0.213967 3.47589e-19)
(0.780963 0.539112 -1.95337e-19)
(0.69262 0.489634 3.15302e-19)
(0.879538 0.405259 -2.99026e-19)
(1.02145 -0.00453869 3.06364e-19)
(1.01679 0.00272147 -3.24215e-19)
(1.01877 -0.00134693 0)
(1.02254 0.00747107 0)
(1.01412 0.0120136 -2.94209e-19)
(1.01916 0.00764531 2.91421e-19)
(1.01564 0.00257956 0)
(1.01553 0.00151907 0)
(1.02311 0.00827182 0)
(1.02273 0.00598865 0)
(1.02908 0.00359046 0)
(1.03002 0.00181602 0)
(0.0202723 1.81997 0)
(0.00271843 1.81153 0)
(0.0876543 1.84721 -9.88992e-21)
(0.157092 1.85884 1.29785e-19)
(0.0861806 1.87631 2.75166e-19)
(0.103741 1.87503 -4.45021e-19)
(0.0950616 1.86239 0)
(0.0799147 1.78006 -1.18806e-19)
(0.0797474 1.78292 0)
(0.197022 1.78211 -1.92177e-19)
(0.181931 1.72416 5.88225e-19)
(0.107234 1.80323 1.07556e-19)
(0.147419 1.8279 3.75641e-20)
(0.127453 1.84598 -3.03132e-20)
(0.158134 1.78618 -1.04383e-19)
(0.14768 1.77193 0)
(0.145145 1.77351 9.90525e-20)
(0.0134715 1.77535 -5.36383e-20)
(0.0364988 1.76476 0)
(0.0491374 1.76707 1.85175e-19)
(0.0404627 1.76444 0)
(0.0427185 1.75318 -1.83602e-19)
(0.0432764 1.75975 0)
(-0.00840312 1.77032 -4.49161e-20)
(0.000954881 1.7782 0)
(-0.0111141 1.77862 0)
(-0.0116855 1.76966 5.16464e-20)
(-0.000390433 1.78061 1.20321e-21)
(0.0057455 1.77677 2.0547e-19)
(-0.00538745 1.77712 1.39824e-21)
(-0.00745691 1.76952 3.64865e-20)
(-0.00447808 1.76842 2.30513e-20)
(-0.00611199 1.7961 0)
(-0.00522095 1.79476 0)
(0.0115813 1.78721 1.24962e-19)
(0.00357005 1.77838 8.49487e-20)
(0.00033037 1.78111 -1.18233e-19)
(0.0282908 1.79403 0)
(-0.000572447 1.76325 -7.35587e-20)
(0.00144971 1.7736 3.35884e-20)
(0.000231206 1.77556 -9.91729e-21)
(-0.00740979 1.77092 -4.45664e-20)
(-0.00511128 1.78158 -1.46056e-20)
(-0.00684269 1.7823 7.28336e-20)
(1.01311 0.00525221 -3.0182e-19)
(1.0136 0.0036021 3.10746e-19)
(1.0115 0.000908521 0)
(0.991598 0.0627891 4.53429e-19)
(0.981999 0.0264866 -5.1038e-19)
(0.95508 0.0201654 5.85233e-19)
(0.994773 0.0936685 -5.83933e-20)
(1.0244 0.00281378 0)
(1.03078 0.012658 2.62317e-19)
(1.03274 0.00418972 -2.60298e-19)
(1.02567 0.0329003 -1.5012e-20)
(1.02842 0.0163785 1.32815e-19)
(1.00498 0.0290934 0)
(0.995384 0.0263498 -4.62038e-20)
(1.00511 0.0216629 0)
(1.0042 0.0240472 0)
(1.016 0.00318255 0)
(1.01568 0.00508691 0)
(1.00456 0.0204619 1.00329e-19)
(1.00602 0.02036 -2.24709e-19)
(1.00587 0.0308741 -1.05457e-19)
(0.996755 0.0217377 -1.15441e-19)
(1.00147 0.0363693 2.13619e-19)
(1.03882 0.0410089 0)
(1.03135 0.090516 0)
(-0.00067214 1.76187 -2.89112e-20)
(0.0161629 1.75962 -2.53467e-21)
(0.00713013 1.75826 0)
(0.00383834 1.77275 2.88746e-20)
(0.0120857 1.77258 4.72904e-21)
(0.00911023 1.77427 -4.48547e-21)
(-0.00359001 1.78242 5.64532e-20)
(0.000575385 1.78022 -3.5309e-21)
(-0.0037556 1.77966 1.66183e-20)
(0.00200746 1.78076 -3.11947e-20)
(0.000121875 1.78079 3.69828e-20)
(-0.000533504 1.78557 5.67967e-22)
(-7.06987e-05 1.77407 2.94008e-20)
(0.152912 1.76053 -1.69912e-19)
(0.144259 1.78895 7.96106e-20)
(0.522307 1.46694 -4.61796e-19)
(0.345675 1.69122 -2.03856e-19)
(0.409862 1.59534 0)
(0.418768 1.60781 2.08221e-19)
(0.470525 1.54423 2.87352e-19)
(0.207896 1.66368 4.64372e-20)
(0.214121 1.65989 -6.70586e-19)
(0.286986 1.68032 5.66784e-19)
(0.309725 1.65354 0)
(0.227164 1.66372 -4.3171e-19)
(0.0864148 1.70148 8.18743e-19)
(0.150568 1.69415 -4.28053e-20)
(0.0913103 1.70609 -1.10621e-18)
(0.854839 1.73897 4.83658e-19)
(0.625799 1.52758 0)
(1.03145 -0.011988 1.05568e-20)
(1.01532 -0.0149906 -8.83993e-21)
(1.02294 0.0073775 -1.53649e-19)
(1.03336 0.00223276 1.51321e-19)
(1.03563 -0.00724726 0)
(0.398982 1.04144 0)
(0.489874 0.901429 0)
(0.693897 0.984311 0)
(0.660271 0.744335 0)
(1.08599 2.78273 -5.2192e-20)
(0.90026 2.44774 0)
(0.484805 2.8034 -5.96233e-21)
(0.431936 2.36223 0)
(0.531194 2.54721 -3.61159e-19)
(0.537428 2.60871 2.30691e-19)
(0.841909 0.139202 0)
(0.821728 0.153131 8.5997e-20)
(0.900183 0.113465 4.36099e-19)
(0.85144 0.119885 -1.7275e-19)
(0.835391 0.0894176 -5.3732e-19)
(1.00334 0.192879 -2.84785e-19)
(0.911112 0.282784 -1.42906e-20)
(0.865501 0.264297 4.07037e-19)
(0.928459 0.179312 3.07263e-19)
(0.930063 0.145242 -5.56767e-19)
(0.911936 0.148688 7.19275e-20)
(0.925765 0.209889 -1.45097e-19)
(0.910957 0.174109 0)
(0.969311 0.130864 2.63815e-19)
(0.980439 0.135519 0)
(0.974433 0.166472 0)
(1.04547 0.105198 9.05064e-20)
(1.00315 0.1363 -1.30488e-20)
(1.00009 0.197208 -4.99546e-20)
(1.05886 0.178507 0)
(1.00604 0.0244038 2.30321e-19)
(1.00303 0.0327085 2.76461e-19)
(1.00798 0.026811 -2.2588e-19)
(1.01169 0.0480224 -1.86583e-19)
(1.00353 0.057069 -3.17507e-19)
(0.943663 0.105699 0)
(0.960858 0.0876719 0)
(0.947257 0.0364682 -2.09334e-19)
(0.914788 0.0524219 8.94016e-20)
(1.00847 0.0910017 2.65859e-19)
(1.00185 0.110657 -2.77118e-19)
(1.01112 0.129453 2.51873e-19)
(1.00529 0.128724 0)
(1.01326 0.0903045 0)
(1.00108 0.0772666 -1.17007e-19)
(1.00986 0.0822146 -2.12868e-19)
(0.723762 1.43092 -5.70325e-19)
(0.806152 2.27278 5.43689e-19)
(1.17223 2.97886 3.90869e-19)
(1.27506 3.18113 -9.88086e-20)
(1.19764 2.88403 7.7576e-19)
(1.27956 2.826 -3.60142e-19)
(1.13193 2.40416 2.62612e-20)
(1.25706 3.13011 4.13597e-19)
(1.2224 3.14161 -5.94029e-19)
(1.27767 3.30964 -2.84279e-19)
(1.41426 3.0604 3.93804e-19)
(1.41861 2.93462 0)
(0.596465 0.865664 -1.13759e-20)
(0.0962896 1.32445 3.59262e-19)
(0.475022 0.586753 3.98561e-19)
(0.265037 0.357955 4.04186e-19)
(0.558008 0.44453 4.37366e-19)
(0.539175 0.497444 -7.08597e-19)
(0.538016 0.521793 5.76977e-19)
(0.501102 0.498961 -2.31869e-19)
(0.478216 0.422332 5.26627e-19)
(0.805715 0.246205 -1.93973e-19)
(0.76017 0.296637 0)
(0.771602 0.266862 1.22479e-20)
(0.666721 0.506611 1.99104e-19)
(0.650641 0.486683 -7.2927e-19)
(0.579932 0.515696 1.67749e-20)
(0.616315 0.465091 0)
(0.648466 0.738912 1.59214e-19)
(0.829414 0.715061 2.02483e-20)
(0.752476 0.845755 -3.77268e-20)
(0.853391 0.702462 -1.23045e-20)
(0.899314 0.790026 1.58335e-20)
(0.898433 0.769846 -1.63008e-20)
(0.78608 0.600466 -2.27563e-19)
(0.885062 0.672951 1.14193e-20)
(0.960612 0.670538 0)
(0.942425 0.646462 -1.95874e-20)
(0.941615 0.298691 7.06263e-20)
(1.06858 0.27694 2.49792e-20)
(0.983735 0.234959 1.16758e-19)
(0.932672 0.330841 -1.57135e-19)
(0.982477 0.392477 0)
(1.03399 0.389336 0)
(0.830503 0.338339 7.22676e-21)
(0.8288 0.29146 0)
(0.849606 0.264546 2.02303e-19)
(0.838796 0.268601 -4.84105e-21)
(0.871937 0.405692 8.17357e-19)
(0.826788 0.483825 2.06307e-19)
(0.829261 0.439117 -2.70641e-19)
(0.757345 0.42612 2.92037e-19)
(0.74285 0.424094 1.93939e-19)
(0.722519 0.41115 -1.89563e-19)
(1.01719 0.0142641 2.39438e-19)
(1.0209 0.00605018 0)
(1.02279 0.0119054 1.66005e-19)
(1.0154 0.0146933 -3.70655e-19)
(1.02018 0.00641922 1.76998e-19)
(1.02073 0.00445447 -3.81755e-19)
(1.01935 -0.00119388 0)
(1.01991 -0.00473955 -7.81772e-20)
(1.02489 0.000104254 1.95076e-19)
(1.02217 -0.000993456 -1.02307e-19)
(1.02223 -0.00192405 7.55942e-20)
(-0.0182759 1.80068 0)
(-0.0129842 1.77998 0)
(-0.00618916 1.8093 0)
(-0.0136444 1.80581 0)
(0.0513635 1.80453 7.44767e-20)
(0.0546267 1.81216 -2.07493e-20)
(0.0637436 1.79034 -4.42418e-20)
(0.0623207 1.81481 -8.6479e-21)
(0.0161018 1.79559 -7.40461e-20)
(0.0204551 1.79735 5.39524e-20)
(0.0455895 1.80932 -2.37275e-20)
(0.0204429 1.81606 -2.13947e-20)
(0.00229889 1.79636 -2.38407e-21)
(-0.00818774 1.78982 -7.69467e-21)
(0.0469926 1.76751 -2.05078e-19)
(0.0508361 1.75741 0)
(0.0568499 1.75239 1.28722e-19)
(0.0723347 1.77743 8.26312e-20)
(0.119216 1.74335 -9.15659e-20)
(0.106971 1.69451 0)
(0.114267 1.6815 -6.23337e-19)
(0.16034 1.70844 4.39123e-19)
(0.106987 1.74816 -2.47857e-19)
(0.0767983 1.73737 1.38415e-19)
(0.0420683 1.71252 0)
(0.005954 1.77978 -1.49087e-19)
(0.00449433 1.77695 -1.70105e-19)
(0.00572999 1.78295 0)
(0.00435306 1.77599 -3.94984e-21)
(0.00944046 1.77546 7.99528e-20)
(-0.0061873 1.77594 7.66559e-21)
(-0.00318165 1.785 -1.24879e-19)
(-0.00383441 1.77637 3.10404e-20)
(-0.00827497 1.76362 4.43094e-20)
(-0.00500313 1.76779 0)
(-0.00280329 1.77916 0)
(-0.00155107 1.79229 3.18866e-20)
(0.000511186 1.78758 -9.71018e-21)
(0.000686895 1.78507 0)
(-0.00248555 1.79301 2.47884e-20)
(-0.00186604 1.7916 -5.01838e-20)
(1.01226 0.0138268 0)
(1.01294 0.0159765 -2.48524e-20)
(1.00861 0.0166962 -1.81674e-19)
(1.01252 0.0242499 0)
(1.01309 0.0268895 0)
(1.0108 0.00841895 -4.90476e-21)
(1.01411 0.00662245 2.91706e-19)
(1.01323 0.00671411 3.57986e-19)
(1.0178 0.00611854 0)
(1.0177 0.0056079 0)
(1.00928 0.0144469 1.79504e-19)
(1.00946 0.0106428 0)
(1.01762 0.00860242 0)
(-0.00664198 1.7646 0)
(-0.0059325 1.76414 3.33618e-21)
(-0.0037339 1.75885 1.72738e-20)
(-0.00318188 1.78767 0)
(-0.00448739 1.77719 2.20229e-20)
(-0.00303698 1.78664 -9.7286e-21)
(-0.00185564 1.79105 0)
(0.163028 1.96983 0)
(0.113252 1.80951 -1.60062e-19)
(0.133745 1.83543 0)
(0.104325 1.8042 4.38519e-20)
(0.167122 1.5982 0)
(0.158986 1.71825 3.35333e-20)
(0.88078 2.57666 -9.04471e-21)
(0.841687 1.84655 -6.17012e-19)
(0.903439 1.802 1.83826e-20)
(0.663943 1.56887 2.36756e-19)
(0.55239 2.03864 0)
(0.587716 2.21564 0)
(0.822778 1.68907 0)
(0.779079 1.49365 -8.2314e-19)
(0.350484 2.14161 -4.86864e-19)
(0.538107 2.01018 -1.43845e-19)
(0.403344 2.29836 1.10373e-19)
(0.529829 1.54168 0)
(0.60735 1.51606 0)
(0.579308 1.50124 -3.2953e-19)
(0.554237 1.8422 0)
(0.805206 0.791876 0)
(0.741242 0.877593 3.03565e-19)
(0.705884 0.829925 1.10254e-20)
(0.785846 0.79147 0)
(0.894179 0.930633 -4.77003e-19)
(0.7793 0.880459 3.5645e-20)
(0.766542 0.929677 0)
(0.75199 0.916151 -8.13672e-20)
(0.708714 0.925856 0)
(0.722559 0.879462 0)
(1.04641 3.04517 2.95188e-19)
(1.09424 3.09588 3.76272e-19)
(0.810885 2.85306 -7.92793e-19)
(0.707569 2.8112 1.19105e-19)
(0.985087 2.91435 0)
(0.888615 2.88189 -1.46232e-19)
(0.924022 2.5732 2.65895e-19)
(0.859638 2.30309 1.28416e-21)
(0.192167 2.29699 0)
(0.302317 1.30084 4.97096e-19)
(0.33282 1.29507 0)
(0.88047 0.18981 0)
(0.827443 0.181702 0)
(0.7838 0.187737 0)
(0.880025 0.208285 -3.17308e-19)
(0.821218 0.213768 2.00475e-19)
(0.912856 0.0550098 -1.8556e-19)
(0.904974 0.0964984 0)
(0.890911 0.103499 8.28291e-20)
(0.868012 0.0799619 3.4238e-19)
(0.882022 0.055872 -2.10917e-19)
(1.20756 3.37603 -9.4108e-19)
(1.27808 3.31117 0)
(1.19046 3.38157 -1.77459e-18)
(0.687723 3.53619 1.54573e-18)
(0.942438 3.05484 2.54365e-19)
(0.575363 1.01722 3.77352e-19)
(0.607443 0.956368 0)
(0.363704 0.616027 -9.55106e-20)
(0.427956 0.759475 4.46456e-19)
(0.473571 0.573564 -1.22404e-19)
(0.480432 0.566616 1.46034e-19)
(0.610634 0.506815 2.95739e-19)
(0.647962 0.517156 0)
(0.588125 0.633037 0)
(0.542983 0.594168 0)
(0.944077 0.572084 -4.49659e-20)
(0.825676 0.522222 -1.98501e-19)
(0.848547 0.56317 9.44715e-20)
(0.876485 0.501066 -1.502e-19)
(1.00413 0.458489 0)
(0.988911 0.543995 -9.24536e-21)
(0.783102 0.385847 -4.30137e-19)
(0.788242 0.376495 -4.92926e-19)
(0.755899 0.382025 3.36762e-19)
(0.743864 0.364671 -3.7136e-19)
(0.81225 0.320547 -2.74097e-19)
(0.76602 0.32287 3.36841e-19)
(1.01762 0.00478079 -1.89228e-19)
(1.01836 0.00209458 3.85916e-19)
(1.01671 0.0111242 2.34136e-19)
(1.01375 0.00828176 -2.88761e-19)
(1.00669 0.0145273 0)
(1.01472 0.00542475 -4.55882e-19)
(0.0499131 1.79118 3.09687e-20)
(0.042503 1.79295 0)
(0.0666195 1.78079 2.46927e-19)
(0.0671133 1.78526 -2.2807e-19)
(0.0650932 1.78898 8.35461e-20)
(0.0628834 1.79385 0)
(-0.0100928 1.76917 0)
(-0.0062386 1.77269 -1.24565e-20)
(-0.00740676 1.77672 1.12623e-20)
(-0.00598287 1.77438 2.51283e-21)
(-0.0102748 1.76907 -2.12412e-20)
(-0.00924827 1.77014 1.22937e-20)
(0.112783 2.10798 5.98432e-20)
(0.0678036 2.08014 -6.90825e-20)
(0.0555585 1.79827 1.35264e-19)
(0.0755097 2.02084 4.82787e-21)
(0.310876 1.18132 0)
(0.195043 1.48064 3.2191e-19)
(0.241946 1.31046 -3.12637e-19)
(0.0096497 1.5931 -1.34296e-19)
(0.0471609 1.57085 0)
(0.196276 1.28606 0)
(0.370174 2.00206 7.41949e-19)
(0.488946 1.71791 1.40842e-18)
(0.552318 1.8095 -9.08002e-19)
(0.42861 1.69665 -1.76017e-19)
(0.316709 1.84218 2.84814e-19)
(0.296019 1.68232 -7.23201e-19)
(0.877996 2.0409 9.82725e-21)
(0.878294 2.31072 0)
(0.892878 2.03612 3.79962e-19)
(0.894102 2.80899 0)
(0.829355 2.68289 0)
(0.71276 2.17829 1.33875e-19)
(1.10891 3.04593 4.19558e-19)
(0.992651 2.93351 -2.78986e-19)
(0.238547 0.999267 0)
(0.328896 0.893437 -2.30241e-19)
(0.607055 0.895695 -1.63953e-19)
(0.394064 1.96534 0)
(0.409528 2.71562 -1.7693e-19)
(0.423499 2.52416 0)
(0.689432 0.690211 -3.29788e-19)
(0.737582 0.661714 4.21251e-19)
(0.754774 0.579774 -3.91164e-19)
(0.624425 0.643512 -5.01989e-20)
(0.67595 0.588262 -2.09823e-19)
(1.11545 2.71908 -3.18433e-19)
(1.11714 2.79256 4.96941e-19)
(0.738323 2.16404 5.10934e-20)
(0.851858 1.72776 -4.53401e-20)
(1.05389 2.1211 7.57003e-19)
(1.15063 2.50874 4.79692e-20)
(1.07368 2.5879 -4.90186e-19)
(0.938986 1.86479 -2.22617e-20)
(0.899217 1.46691 -4.54657e-19)
)
;

boundaryField
{
    wall-4
    {
        type            noSlip;
    }
    velocity-inlet-5
    {
        type            fixedValue;
        value           uniform (1 0 0);
    }
    velocity-inlet-6
    {
        type            fixedValue;
        value           uniform (0 3 0);
    }
    pressure-outlet-7
    {
        type            zeroGradient;
    }
    wall-8
    {
        type            noSlip;
    }
    frontAndBackPlanes
    {
        type            empty;
    }
}


// ************************************************************************* //
