/*--------------------------------*- C++ -*----------------------------------*\
| =========                 |                                                 |
| \\      /  F ield         | OpenFOAM: The Open Source CFD Toolbox           |
|  \\    /   O peration     | Version:  4.0                                   |
|   \\  /    A nd           | Web:      www.OpenFOAM.org                      |
|    \\/     M anipulation  |                                                 |
\*---------------------------------------------------------------------------*/
FoamFile
{
    version     2.0;
    format      ascii;
    class       volScalarField;
    location    "60";
    object      p;
}
// * * * * * * * * * * * * * * * * * * * * * * * * * * * * * * * * * * * * * //

dimensions      [0 2 -2 0 0 0 0];

internalField   nonuniform List<scalar> 
2200
(
0.773259
0.75176
0.735853
0.720186
0.705577
0.693062
0.682711
0.674618
0.668926
0.665994
0.666505
0.670342
0.676688
0.685252
0.69594
0.708712
0.723505
0.739435
0.75548
0.776978
0.705666
0.702407
0.699485
0.695371
0.689915
0.683447
0.676839
0.670894
0.6664
0.66403
0.664508
0.667847
0.673049
0.679523
0.686518
0.693277
0.698944
0.703039
0.705887
0.70925
0.665744
0.665966
0.668026
0.669371
0.669764
0.668916
0.666944
0.664279
0.661755
0.660289
0.660863
0.663328
0.666624
0.669859
0.672198
0.673198
0.672929
0.67194
0.670306
0.670057
0.643251
0.644703
0.647301
0.649756
0.652203
0.654228
0.655388
0.655631
0.655277
0.655013
0.655691
0.657089
0.6583
0.658702
0.658029
0.656361
0.654201
0.652007
0.64939
0.647987
0.628875
0.630847
0.633668
0.636511
0.63938
0.642221
0.644692
0.646567
0.647814
0.64864
0.649399
0.64989
0.649677
0.648585
0.646739
0.644383
0.641845
0.639119
0.636319
0.634396
0.621519
0.623117
0.625324
0.62786
0.630533
0.633209
0.635817
0.63826
0.640302
0.641835
0.642738
0.642798
0.641989
0.640497
0.638614
0.636477
0.634159
0.63182
0.629724
0.628149
0.61809
0.619113
0.620385
0.622251
0.624399
0.626576
0.628782
0.631089
0.633335
0.635221
0.636285
0.636338
0.635596
0.634418
0.633046
0.631504
0.62981
0.628237
0.627125
0.626109
0.615397
0.616066
0.616701
0.618008
0.619633
0.621335
0.623107
0.625057
0.627156
0.629162
0.630457
0.6308
0.630513
0.629918
0.629164
0.628239
0.627206
0.626289
0.625844
0.625166
0.612121
0.612566
0.612966
0.613967
0.615237
0.616631
0.618147
0.619844
0.621737
0.623749
0.625329
0.626172
0.626475
0.626457
0.626194
0.62574
0.625174
0.624649
0.624466
0.624002
0.608039
0.608336
0.608696
0.60957
0.610692
0.61198
0.613435
0.615073
0.616925
0.619014
0.620936
0.622315
0.623136
0.623545
0.62366
0.623542
0.62326
0.622947
0.622823
0.622499
0.603283
0.603485
0.603858
0.604692
0.605792
0.607113
0.608658
0.610429
0.612433
0.614728
0.617088
0.618973
0.620245
0.621015
0.62139
0.621506
0.621414
0.621249
0.621148
0.620909
0.598036
0.598182
0.598554
0.599368
0.600519
0.601962
0.603689
0.605709
0.608057
0.610793
0.613666
0.616075
0.617733
0.618785
0.619391
0.619688
0.619786
0.619765
0.619698
0.619508
0.592357
0.592466
0.592847
0.593675
0.594911
0.596523
0.598506
0.600875
0.603688
0.60701
0.610528
0.613461
0.615537
0.616919
0.617797
0.618322
0.61863
0.618747
0.618721
0.618552
0.586294
0.586362
0.586745
0.5876
0.588948
0.590744
0.593
0.595761
0.599133
0.603172
0.607465
0.611071
0.61365
0.615446
0.616693
0.617521
0.618063
0.618319
0.618333
0.618174
0.57968
0.579721
0.580145
0.581055
0.582543
0.584549
0.587099
0.590317
0.594351
0.599245
0.60445
0.608871
0.612126
0.614475
0.616179
0.617378
0.61817
0.618575
0.618638
0.618479
0.572451
0.572416
0.572836
0.573843
0.575541
0.577815
0.580737
0.584491
0.589285
0.595209
0.60155
0.606938
0.611005
0.614053
0.61633
0.617947
0.619032
0.619602
0.619716
0.619553
0.564294
0.564277
0.56474
0.565869
0.567825
0.570435
0.573836
0.578254
0.583936
0.591026
0.598701
0.605352
0.610441
0.614285
0.617181
0.619301
0.620724
0.621466
0.621635
0.621461
0.555106
0.555131
0.555573
0.556812
0.559057
0.562084
0.566099
0.571327
0.578078
0.586588
0.595934
0.604111
0.610415
0.615236
0.618877
0.621537
0.623333
0.624261
0.624482
0.624292
0.544393
0.54437
0.54492
0.546383
0.549005
0.552617
0.557448
0.563772
0.571946
0.582259
0.593537
0.603401
0.611097
0.616986
0.621441
0.624744
0.62696
0.628069
0.628339
0.628127
0.531688
0.531623
0.532298
0.534134
0.537316
0.54173
0.547658
0.555405
0.565386
0.577891
0.591511
0.603335
0.612529
0.619618
0.625012
0.629005
0.631689
0.632989
0.633297
0.633057
0.516702
0.516598
0.517372
0.519587
0.523517
0.529022
0.53642
0.546067
0.558406
0.573625
0.589931
0.603964
0.614852
0.623241
0.629637
0.634431
0.637583
0.639049
0.639384
0.639112
0.498413
0.498328
0.49934
0.502123
0.507049
0.514009
0.523367
0.535493
0.550801
0.569299
0.588684
0.605278
0.61803
0.627858
0.63542
0.641028
0.644659
0.646291
0.646623
0.646318
0.475872
0.475728
0.47703
0.480609
0.487004
0.496087
0.508172
0.523605
0.54261
0.565002
0.587962
0.607253
0.622044
0.63347
0.642245
0.648774
0.652877
0.654635
0.654935
0.6546
0.446725
0.446747
0.448846
0.453933
0.462686
0.474954
0.490904
0.51062
0.534079
0.560929
0.587853
0.610192
0.627196
0.640241
0.650295
0.657647
0.662118
0.66395
0.664187
0.663818
0.408291
0.408532
0.412062
0.420031
0.432817
0.450031
0.471235
0.496278
0.524979
0.556934
0.588282
0.613885
0.633204
0.648008
0.659305
0.667459
0.6722
0.673996
0.674141
0.67376
0.357169
0.357568
0.364549
0.377776
0.396964
0.421308
0.449511
0.481243
0.516232
0.553904
0.589873
0.618693
0.64033
0.656831
0.66941
0.678181
0.682828
0.684298
0.684279
0.683959
0.289992
0.292769
0.307852
0.329322
0.357445
0.390734
0.427125
0.466337
0.508224
0.55221
0.593237
0.625869
0.650271
0.668894
0.682844
0.69227
0.696762
0.697753
0.697686
0.697497
0.213663
0.223198
0.248378
0.279625
0.317917
0.360349
0.405
0.451962
0.501164
0.55203
0.598946
0.635837
0.663371
0.684313
0.699987
0.710096
0.714338
0.714868
0.714867
0.714792
0.145465
0.160156
0.191627
0.231878
0.279811
0.331109
0.383854
0.438575
0.495102
0.552606
0.605024
0.646043
0.676836
0.699999
0.717012
0.727596
0.731715
0.731907
0.732003
0.731994
0.0936503
0.106772
0.143407
0.189745
0.245036
0.303873
0.364027
0.425952
0.489228
0.552933
0.610588
0.655945
0.689569
0.714769
0.733163
0.744454
0.748577
0.749337
0.749544
0.749528
0.0507277
0.06318
0.103588
0.153799
0.214544
0.279355
0.34588
0.41418
0.483701
0.553706
0.617017
0.666005
0.702033
0.729148
0.748834
0.760592
0.765505
0.766503
0.766545
0.766613
0.0140994
0.0267687
0.0698331
0.122927
0.188013
0.257624
0.329581
0.403642
0.479115
0.554985
0.622986
0.675253
0.713882
0.742596
0.763742
0.776176
0.781307
0.782423
0.782492
0.782563
-0.0178266
-0.00494487
0.0402526
0.0959178
0.16464
0.238304
0.315019
0.394152
0.47481
0.555625
0.627925
0.683846
0.724633
0.754934
0.777124
0.790057
0.795653
0.796894
0.797013
0.797067
-0.0461734
-0.0332875
0.0135828
0.0717353
0.143662
0.220852
0.301633
0.38504
0.470179
0.555726
0.632652
0.691664
0.734456
0.765938
0.788803
0.802475
0.808282
0.8097
0.809841
0.80988
-0.0720365
-0.0591359
-0.0109427
0.049627
0.124339
0.204546
0.288818
0.375968
0.465277
0.555416
0.636549
0.698219
0.743009
0.775756
0.798994
0.813193
0.819347
0.820883
0.821072
0.821082
-0.0960276
-0.0829045
-0.0339052
0.0288898
0.106043
0.188948
0.276317
0.366867
0.460069
0.554407
0.639472
0.704169
0.750789
0.784386
0.808074
0.822686
0.828902
0.830626
0.830807
0.830793
-0.118616
-0.105208
-0.0554888
0.00922097
0.0884586
0.17377
0.263945
0.357625
0.454395
0.552658
0.641671
0.709415
0.757616
0.79238
0.816435
0.830905
0.837376
0.83907
0.839265
0.839206
-0.1399
-0.126366
-0.0759687
-0.0096599
0.0713856
0.158907
0.251639
0.348135
0.448092
0.550029
0.643027
0.713968
0.76404
0.799742
0.824092
0.838427
0.844693
0.846416
0.846525
0.846417
-0.160187
-0.146581
-0.0955065
-0.0278365
0.0547609
0.144239
0.239239
0.338219
0.441033
0.546502
0.643525
0.717877
0.77026
0.807102
0.831415
0.845194
0.851284
0.852806
0.852928
0.852823
-0.17986
-0.165881
-0.114304
-0.0454745
0.0384697
0.129669
0.226651
0.327848
0.433314
0.542187
0.643178
0.721201
0.776371
0.81443
0.838673
0.851878
0.85723
0.858522
0.858602
0.858516
-0.199205
-0.184532
-0.1325
-0.0626302
0.0224655
0.115127
0.213834
0.317056
0.425003
0.537003
0.641869
0.723915
0.782296
0.822335
0.84657
0.858622
0.863009
0.863654
0.863705
0.863674
-0.218086
-0.202665
-0.15022
-0.0794085
0.00669209
0.10063
0.200856
0.305915
0.41611
0.53096
0.639643
0.725952
0.788128
0.830719
0.855565
0.86648
0.868761
0.868426
0.86831
0.868162
-0.236486
-0.220418
-0.167495
-0.0957886
-0.00880346
0.0862315
0.18778
0.294459
0.406669
0.524125
0.636357
0.727032
0.793586
0.839846
0.866351
0.875919
0.875597
0.873437
0.873103
0.874027
-0.254254
-0.23772
-0.184309
-0.111771
-0.0239935
0.0720009
0.174677
0.28275
0.396748
0.51652
0.631892
0.726941
0.798539
0.849362
0.879127
0.888622
0.885533
0.878732
0.87379
0.872704
-0.271444
-0.254535
-0.200597
-0.127282
-0.0388038
0.0579965
0.161605
0.270859
0.38643
0.508198
0.626224
0.725445
0.802255
0.859078
0.893895
0.905551
0.902708
0.89156
0.891288
0.895434
-0.287987
-0.270733
-0.216296
-0.142293
-0.053204
0.0442719
0.148641
0.258876
0.375764
0.499176
0.619402
0.722302
0.804484
0.867859
0.909652
0.926733
0.92534
0.895989
0.857303
0.823429
-0.303881
-0.286356
-0.231429
-0.156847
-0.0672727
0.0307098
0.135638
0.246617
0.364517
0.489256
0.611277
0.71711
0.804042
0.874781
0.925768
0.951475
0.96436
0.940699
0.958032
1.01882
-0.319042
-0.301394
-0.246087
-0.171106
-0.0812092
0.0170846
0.122331
0.233744
0.352252
0.477883
0.601185
0.709043
0.799939
0.876811
0.933905
0.964562
0.969077
0.943201
0.900042
0.916411
-0.333475
-0.315874
-0.26023
-0.184998
-0.0949185
0.00349877
0.108836
0.220385
0.339105
0.465136
0.589099
0.697926
0.790016
0.869345
0.92762
0.958574
0.940928
0.8838
0.818429
0.805692
-0.34714
-0.329737
-0.273855
-0.198544
-0.108418
-0.0100484
0.0951741
0.206576
0.325112
0.450992
0.574861
0.68332
0.774008
0.849271
0.902254
0.90658
0.868583
0.789023
0.713176
0.688972
-0.360099
-0.343027
-0.28698
-0.211745
-0.121709
-0.0235631
0.0813433
0.192332
0.310307
0.435467
0.558392
0.664989
0.750489
0.814236
0.84242
0.827191
0.765502
0.662122
0.573618
0.550194
-0.372777
-0.356088
-0.299984
-0.22498
-0.13516
-0.0373621
0.0670798
0.177438
0.294519
0.418405
0.539447
0.642324
0.720489
0.768181
0.762406
0.725842
0.611842
0.487782
0.379256
0.351002
-0.386058
-0.369774
-0.313563
-0.238835
-0.149305
-0.0519123
0.0519749
0.16155
0.277482
0.399579
0.517736
0.614979
0.685817
0.708597
0.67491
0.584914
0.427337
0.273432
0.143012
0.114474
-0.400439
-0.384376
-0.328014
-0.253577
-0.164356
-0.0673554
0.0359449
0.144636
0.2592
0.379028
0.493254
0.583858
0.643929
0.63793
0.585655
0.434306
0.2338
0.0206161
-0.159958
-0.20922
-0.416072
-0.400117
-0.343417
-0.269185
-0.180251
-0.0836484
0.0190129
0.12671
0.239704
0.356787
0.465947
0.550316
0.59541
0.557578
0.470155
0.281792
0.0507119
-0.237848
-0.558543
-0.707357
-0.432997
-0.41695
-0.359872
-0.285808
-0.197103
-0.100877
0.00111382
0.107724
0.218958
0.332952
0.436263
0.513906
0.540875
0.472806
0.336133
0.131035
-0.102219
-0.445151
-1.03009
-1.60102
-0.451348
-0.435137
-0.377484
-0.303445
-0.214878
-0.119014
-0.0177228
0.0877375
0.197111
0.307835
0.405185
0.474711
0.482759
0.398388
0.207071
-0.0255787
-0.227312
-0.460591
-1.01271
-2.51931
-0.471098
-0.454555
-0.39632
-0.322303
-0.233809
-0.138288
-0.0377365
0.0664865
0.173842
0.28115
0.372494
0.432138
0.419593
0.340078
0.1141
-0.12274
-0.269666
-0.306037
-0.294366
-0.680083
-0.492231
-0.475597
-0.416611
-0.342592
-0.254217
-0.159169
-0.059553
0.0431912
0.148218
0.251515
0.337197
0.386372
0.357829
0.290311
0.0644776
-0.136386
-0.246344
-0.253811
-0.200413
-0.24036
-0.514579
-0.497829
-0.438282
-0.364479
-0.276292
-0.181832
-0.083338
0.0176878
0.120023
0.218835
0.299447
0.338579
0.303524
0.23649
0.0325481
-0.126626
-0.208175
-0.21598
-0.264008
-0.267889
-0.538182
-0.521516
-0.461351
-0.387846
-0.299915
-0.206257
-0.109136
-0.0100941
0.0892439
0.183463
0.259036
0.28867
0.25655
0.175836
0.00444825
-0.11699
-0.186468
-0.163826
-0.184083
-0.185707
-0.562676
-0.545751
-0.485559
-0.412724
-0.325077
-0.232423
-0.136881
-0.0400407
0.0560115
0.14567
0.216323
0.235407
0.215666
0.10789
-0.0305825
-0.112069
-0.15009
-0.198483
-0.172837
-0.181418
-0.588012
-0.5707
-0.510875
-0.438798
-0.351409
-0.260122
-0.166394
-0.0719554
0.0204287
0.105752
0.17236
0.181094
0.173055
0.0475863
-0.0672182
-0.130758
-0.107006
-0.166921
-0.147876
-0.152793
-0.612944
-0.595521
-0.537105
-0.465889
-0.37872
-0.289179
-0.1974
-0.105516
-0.0172652
0.0641529
0.128187
0.129392
0.12127
-0.00387014
-0.0941285
-0.144727
-0.133374
-0.147886
-0.15344
-0.151571
-0.637333
-0.620029
-0.563596
-0.493159
-0.40651
-0.319199
-0.229512
-0.140329
-0.0565527
0.0212106
0.0840541
0.0816825
0.063784
-0.0460794
-0.107613
-0.138735
-0.177768
-0.148921
-0.154677
-0.149042
-0.65996
-0.643362
-0.588979
-0.519768
-0.434579
-0.349699
-0.262191
-0.175866
-0.0965381
-0.0226803
0.0396909
0.0381603
0.00840542
-0.0815145
-0.12177
-0.113486
-0.18674
-0.129228
-0.144458
-0.136588
-0.680373
-0.664885
-0.612526
-0.544545
-0.462427
-0.379859
-0.29478
-0.211502
-0.136271
-0.067192
-0.00528431
-0.00222517
-0.0372295
-0.100285
-0.128977
-0.0888769
-0.133071
-0.115859
-0.122109
-0.119032
-0.696762
-0.682927
-0.633177
-0.567273
-0.48903
-0.408647
-0.326425
-0.246472
-0.174902
-0.111439
-0.0509599
-0.0405168
-0.068948
-0.10179
-0.119723
-0.0960917
-0.110453
-0.113822
-0.114887
-0.115168
-0.708481
-0.696809
-0.650353
-0.586972
-0.512666
-0.435224
-0.356288
-0.279886
-0.211579
-0.154118
-0.0954616
-0.0765211
-0.0934835
-0.0970032
-0.110449
-0.123761
-0.115584
-0.120415
-0.117554
-0.118287
-0.713953
-0.704715
-0.662439
-0.602513
-0.532147
-0.458352
-0.383202
-0.310662
-0.245511
-0.193601
-0.136695
-0.1129
-0.12219
-0.0979756
-0.0975623
-0.132277
-0.111998
-0.124101
-0.117984
-0.120386
-0.713366
-0.706282
-0.668335
-0.612294
-0.546276
-0.476876
-0.406064
-0.337515
-0.275712
-0.227968
-0.17307
-0.149423
-0.154867
-0.117895
-0.0727566
-0.109171
-0.0928325
-0.117047
-0.120331
-0.12395
-0.705617
-0.698271
-0.665437
-0.615001
-0.554156
-0.489556
-0.42338
-0.35891
-0.300434
-0.255443
-0.20387
-0.183379
-0.188374
-0.169966
-0.106567
-0.123764
-0.141901
-0.155493
-0.159166
-0.160252
-0.685398
-0.676989
-0.652278
-0.60922
-0.554644
-0.495661
-0.43445
-0.373514
-0.317436
-0.273676
-0.225509
-0.209629
-0.240011
-0.331932
-0.481106
-0.572615
-0.593391
-0.55508
-0.510626
-0.478424
-0.643028
-0.635002
-0.626056
-0.595089
-0.548429
-0.495083
-0.438619
-0.380247
-0.324537
-0.279739
-0.233478
-0.206182
-0.297549
-0.468707
-0.714761
-0.840549
-0.853627
-0.812937
-0.766093
-0.715844
-0.601847
-0.598895
-0.598185
-0.573945
-0.536309
-0.489466
-0.436452
-0.37908
-0.320339
-0.269673
-0.219867
-0.15358
-0.142749
-0.165153
-0.23596
-0.221103
-0.14018
-0.0753242
-0.00296307
0.0366276
-0.579883
-0.581505
-0.571654
-0.556394
-0.525378
-0.481625
-0.429725
-0.371615
-0.306606
-0.240563
-0.175663
-0.049963
0.108222
0.366823
0.624942
0.843679
1.00354
1.0969
1.13665
1.16852
-0.548432
-0.548284
-0.544822
-0.542263
-0.516382
-0.474935
-0.421845
-0.360611
-0.288536
-0.204892
-0.116311
0.0282529
0.247988
0.585471
0.926693
1.20694
1.40019
1.51597
1.57195
1.59184
-0.534403
-0.532627
-0.535337
-0.529202
-0.509713
-0.470705
-0.416133
-0.350544
-0.2727
-0.177219
-0.0734528
0.059641
0.298419
0.616933
0.937178
1.20839
1.40944
1.53055
1.58436
1.59976
-0.521605
-0.520485
-0.524281
-0.517183
-0.505204
-0.466124
-0.410505
-0.342604
-0.26201
-0.161452
-0.0529615
0.0513638
0.270338
0.543259
0.81294
1.0462
1.22769
1.33662
1.38449
1.39779
-0.504288
-0.504046
-0.505371
-0.502385
-0.500111
-0.463775
-0.409259
-0.339802
-0.257893
-0.158775
-0.0542857
0.0229349
0.202965
0.43377
0.650564
0.835576
0.98348
1.07331
1.11215
1.12195
-0.488985
-0.488319
-0.485279
-0.483162
-0.481499
-0.458943
-0.410116
-0.34064
-0.260348
-0.167646
-0.0687768
-0.00851588
0.127942
0.320001
0.491819
0.632306
0.744416
0.813589
0.843223
0.850891
-0.494216
-0.491765
-0.485863
-0.485182
-0.480804
-0.461933
-0.41141
-0.341737
-0.26388
-0.18078
-0.0877819
-0.0361622
0.0596364
0.214735
0.350241
0.455759
0.537935
0.590158
0.6117
0.616018
-0.520259
-0.518509
-0.517399
-0.524488
-0.520235
-0.489467
-0.420042
-0.343645
-0.265378
-0.191696
-0.105527
-0.0577162
0.00551939
0.127478
0.2324
0.311003
0.371607
0.410367
0.425321
0.4304
-0.558283
-0.56118
-0.568864
-0.578946
-0.570112
-0.512595
-0.426972
-0.342338
-0.262185
-0.196639
-0.118441
-0.0733256
-0.0321169
0.0636112
0.142428
0.199315
0.244523
0.274858
0.285087
0.287985
-0.539194
-0.543864
-0.554815
-0.568362
-0.554658
-0.494572
-0.409857
-0.327588
-0.250092
-0.192187
-0.124376
-0.0829505
-0.0556223
0.0204408
0.0780654
0.117799
0.151545
0.172808
0.182025
0.184699
-0.426778
-0.432845
-0.445987
-0.453108
-0.445259
-0.405931
-0.348875
-0.288363
-0.225551
-0.175754
-0.122987
-0.0872749
-0.06739
-0.00842371
0.0325879
0.060982
0.0838891
0.0974121
0.1036
0.105174
-0.265639
-0.269915
-0.275227
-0.281446
-0.281659
-0.26999
-0.248839
-0.22132
-0.183892
-0.149338
-0.114033
-0.0867108
-0.0690313
-0.0273166
0.00122177
0.0210013
0.0352229
0.0428726
0.0454814
0.0453525
-0.123462
-0.125476
-0.129451
-0.136148
-0.14216
-0.146714
-0.148986
-0.146029
-0.132647
-0.11712
-0.0976523
-0.079753
-0.0642866
-0.0373831
-0.0190711
-0.00696079
0.000533021
0.0033378
0.00322501
0.0022516
-0.0220486
-0.0231924
-0.0259208
-0.033315
-0.0452205
-0.0592201
-0.0726021
-0.0821902
-0.0845177
-0.0840268
-0.0762429
-0.0669067
-0.056413
-0.0407378
-0.0309386
-0.025313
-0.0228202
-0.0232719
-0.0250098
-0.0263452
0.0348981
0.0340481
0.0319167
0.024742
0.0107405
-0.00731563
-0.0245298
-0.0388267
-0.048032
-0.0554565
-0.0545937
-0.0506966
-0.047418
-0.0402887
-0.0368011
-0.03583
-0.0366532
-0.0389575
-0.0411853
-0.0425916
0.0595433
0.0589482
0.0571817
0.050885
0.038008
0.0204256
0.00282867
-0.0130906
-0.0248431
-0.0347109
-0.0367206
-0.0366561
-0.0384349
-0.0369731
-0.0375348
-0.0396526
-0.0423552
-0.0454057
-0.0476165
-0.0489611
0.0658658
0.0654045
0.0639856
0.0589301
0.0484447
0.0335615
0.0176087
0.00190289
-0.0105522
-0.0209396
-0.0238944
-0.0264321
-0.0303311
-0.0322343
-0.0352468
-0.0388923
-0.0422259
-0.0451456
-0.0470749
-0.048291
0.0627299
0.0624033
0.0613187
0.0575062
0.0495475
0.0379838
0.0248069
0.0107549
-0.00106276
-0.0116332
-0.0153177
-0.0188242
-0.0234595
-0.0267873
-0.0307675
-0.0348234
-0.0381873
-0.0408228
-0.0423366
-0.0434033
0.0554553
0.0552367
0.0544412
0.0516744
0.0458425
0.0372196
0.0269879
0.0153969
0.00539093
-0.00481573
-0.0092839
-0.0126176
-0.0173457
-0.0210271
-0.0253918
-0.0294285
-0.0325558
-0.034852
-0.0359698
-0.036871
0.0469535
0.0468221
0.0462536
0.0443245
0.0402024
0.0339197
0.026223
0.017048
0.00924955
2.19339e-05
-0.00470297
-0.00750394
-0.0116968
-0.0154311
-0.0199158
-0.0237681
-0.0265921
-0.0285938
-0.0293708
-0.0301019
0.0384781
0.0384202
0.0380312
0.0367115
0.0338573
0.0294262
0.023815
0.016735
0.0109732
0.00311386
-0.00110844
-0.00373745
-0.00747509
-0.0107513
-0.0148074
-0.0181897
-0.0206778
-0.0224381
-0.0230305
-0.0236355
0.0305037
0.0304676
0.0302006
0.0293132
0.0273466
0.0242097
0.0201551
0.0148309
0.0108238
0.00452876
0.0012158
-0.00118371
-0.00477154
-0.00750281
-0.0107803
-0.0134925
-0.0155191
-0.016975
-0.0174061
-0.017872
0.0233946
0.0233699
0.0231879
0.0225942
0.0212731
0.0191027
0.0161493
0.0121087
0.00935838
0.00446359
0.00201239
0.00011907
-0.00300031
-0.00515621
-0.00770126
-0.00977282
-0.011252
-0.0123101
-0.0126304
-0.0130202
0.0171096
0.0170935
0.0169956
0.0166195
0.0157717
0.0143477
0.0123682
0.009362
0.00754529
0.00367518
0.00192031
0.000360706
-0.00213492
-0.00348035
-0.00527093
-0.00666952
-0.00762791
-0.00832164
-0.00853434
-0.00884549
0.0114649
0.0114473
0.0113844
0.0111766
0.0106901
0.00984038
0.00872037
0.00665585
0.00566888
0.00258813
0.00133075
4.20002e-05
-0.00182353
-0.00220713
-0.00332335
-0.00411705
-0.00459532
-0.00494882
-0.00507514
-0.00538609
0.00646337
0.00644037
0.00640163
0.00634192
0.00614857
0.00574017
0.00528811
0.00397889
0.00369281
0.00149287
0.000716532
-0.00026586
-0.00155284
-0.00129598
-0.00208425
-0.00233628
-0.00237786
-0.00242692
-0.00234237
-0.00260761
0.00215536
0.00216759
0.00219258
0.00222213
0.00221715
0.00205325
0.00201052
0.00134664
0.00152721
0.000446537
0.000385283
0.000164922
-0.000620623
-0.000304273
-0.00129721
-0.00156594
-0.00192161
-0.00220839
-0.00193516
-0.00193767
-1.0728
-0.235788
0.0341426
0.309371
0.489578
0.643933
0.7678
0.894208
1.03418
1.11805
-0.0953456
0.310002
0.32531
0.512769
0.635126
0.744917
0.839181
0.92334
0.950379
0.908731
0.279121
0.491942
0.525886
0.661741
0.746487
0.825325
0.89039
0.939273
0.941145
0.955462
0.506925
0.648804
0.683474
0.784235
0.840834
0.897706
0.942151
0.974294
0.98325
1.00701
0.683564
0.784115
0.813819
0.880601
0.924967
0.965466
0.997368
1.02155
1.03125
1.06289
0.825948
0.894265
0.924479
0.966954
1.00284
1.03275
1.05689
1.0776
1.09166
1.12
0.944533
0.994824
1.02028
1.04806
1.07555
1.09922
1.1191
1.13833
1.15318
1.17973
1.04795
1.08482
1.10581
1.12636
1.14705
1.16638
1.18376
1.20186
1.21673
1.2404
1.14172
1.17076
1.18705
1.20227
1.21833
1.23437
1.24991
1.26681
1.28043
1.30275
1.22987
1.2503
1.26512
1.27827
1.29182
1.30558
1.31908
1.33367
1.34521
1.36485
1.31525
1.33103
1.34484
1.35665
1.36856
1.3802
1.39133
1.40301
1.41068
1.42748
1.40047
1.41301
1.42672
1.43846
1.4491
1.4589
1.46772
1.47598
1.47954
1.49078
1.48921
1.50004
1.51351
1.52304
1.5306
1.53789
1.54508
1.55156
1.55265
1.56002
1.58762
1.59223
1.60042
1.60516
1.60856
1.61304
1.61903
1.62669
1.63059
1.64047
1.70092
1.68781
1.68052
1.6748
1.67208
1.67342
1.67975
1.69212
1.70694
1.73661
1.8229
1.76686
1.73584
1.71864
1.71042
1.71035
1.7192
1.73881
1.77061
1.83988
)
;

boundaryField
{
    wall-4
    {
        type            zeroGradient;
    }
    pressure-outlet-7
    {
        type            fixedValue;
        value           uniform 0;
    }
    velocity-inlet-6
    {
        type            zeroGradient;
    }
    velocity-inlet-5
    {
        type            zeroGradient;
    }
    frontAndBackPlanes
    {
        type            empty;
    }
}


// ************************************************************************* //
