/*--------------------------------*- C++ -*----------------------------------*\
| =========                 |                                                 |
| \\      /  F ield         | OpenFOAM: The Open Source CFD Toolbox           |
|  \\    /   O peration     | Version:  4.0                                   |
|   \\  /    A nd           | Web:      www.OpenFOAM.org                      |
|    \\/     M anipulation  |                                                 |
\*---------------------------------------------------------------------------*/
FoamFile
{
    version     2.0;
    format      ascii;
    class       surfaceScalarField;
    location    "60";
    object      phi;
}
// * * * * * * * * * * * * * * * * * * * * * * * * * * * * * * * * * * * * * //

dimensions      [0 3 -1 0 0 0 0];

internalField   nonuniform List<scalar> 
4262
(
0.107131
0.470857
0.0955518
0.705165
0.0693524
0.858502
0.0473256
1.02079
0.0309376
1.2149
0.0197293
1.44943
0.0123176
1.73328
0.00708595
2.07627
0.00308013
2.48925
-0.000614536
2.98599
-0.00416945
2.98585
-0.00794094
2.48902
-0.0129832
2.07608
-0.0201614
1.73304
-0.0310997
1.44916
-0.0471536
1.21457
-0.068899
1.02051
-0.0951778
0.858582
-0.10706
0.705468
0.470929
0.112883
0.357974
0.135316
0.682733
0.120448
0.87337
0.0979231
1.04332
0.0746894
1.23814
0.0529495
1.47117
0.034531
1.75169
0.0203175
2.09048
0.00912209
2.50044
-0.000872679
2.99598
-0.0111483
2.99612
-0.0223721
2.50024
-0.0363884
2.09009
-0.0546913
1.75134
-0.0765384
1.471
-0.100315
1.23835
-0.123529
1.04372
-0.137027
0.87208
-0.113566
0.682006
0.357363
0.0920346
0.26594
0.124947
0.64982
0.12106
0.877257
0.104787
1.05959
0.0861476
1.25678
0.0670286
1.49029
0.0480909
1.77063
0.0300464
2.10853
0.013423
2.51707
-0.00268507
3.01209
-0.018341
3.01178
-0.0342863
2.51618
-0.05183
2.10764
-0.0702128
1.76973
-0.0885247
1.48932
-0.105697
1.25552
-0.119754
1.05778
-0.125195
0.877521
-0.0923357
0.649147
0.265027
0.0640007
0.201939
0.104852
0.608969
0.106639
0.87547
0.0952416
1.07099
0.0812825
1.27074
0.0665135
1.50506
0.0503586
1.78679
0.0331865
2.1257
0.015558
2.5347
-0.00302354
3.03067
-0.0215325
3.03029
-0.0388991
2.53355
-0.0553372
2.12408
-0.0706361
1.78503
-0.0845265
1.50321
-0.0982739
1.26927
-0.110052
1.06956
-0.107069
0.874539
-0.0649212
0.606999
0.200106
0.0374957
0.164443
0.0807411
0.565723
0.0910281
0.865183
0.0838358
1.07818
0.0712284
1.28334
0.0593695
1.51691
0.0463477
1.79981
0.0313895
2.14066
0.014393
2.55169
-0.00495943
3.05002
-0.0236819
3.04901
-0.0396024
2.54947
-0.0535191
2.13799
-0.0655443
1.79705
-0.0767284
1.51439
-0.08864
1.28118
-0.0950236
1.07594
-0.0831907
0.862706
-0.0383899
0.562198
0.161716
0.0194505
0.144993
0.0571687
0.528005
0.0725411
0.849811
0.0704349
1.08028
0.0616503
1.29213
0.050818
1.52775
0.0396713
1.81095
0.0270058
2.15332
0.0119131
2.56679
-0.00559064
3.06753
-0.0229358
3.06636
-0.0373726
2.56391
-0.0489516
2.14957
-0.0589753
1.80708
-0.0688405
1.52426
-0.0764545
1.28879
-0.0772393
1.07673
-0.0600455
0.845512
-0.0203869
0.522539
0.141329
0.0106131
0.13438
0.0423367
0.496282
0.0584509
0.833696
0.0587326
1.08
0.05258
1.29828
0.0431844
1.53714
0.0328008
1.82134
0.0214734
2.16465
0.00818331
2.58008
-0.00795538
3.08367
-0.0233878
3.08179
-0.035184
2.5757
-0.0449256
2.15931
-0.0537495
1.8159
-0.0616251
1.53213
-0.0661904
1.29336
-0.0643005
1.07484
-0.045926
0.827138
-0.0117148
0.488328
0.129614
0.00658452
0.127795
0.032977
0.469889
0.0492531
0.81742
0.050737
1.07852
0.0456082
1.30341
0.0372109
1.54554
0.0275531
1.831
0.0166369
2.17557
0.00456629
2.59215
-0.00912307
3.09736
-0.0224189
3.09508
-0.0333486
2.58663
-0.0426064
2.16857
-0.0503756
1.82367
-0.0569606
1.53872
-0.0601704
1.29657
-0.0564373
1.0711
-0.0372614
0.807962
-0.00787699
0.458943
0.121737
0.00470863
0.123086
0.0265451
0.448053
0.0423507
0.801615
0.0444569
1.07641
0.0398185
1.30805
0.0321491
1.55321
0.0229952
1.84015
0.0124587
2.1861
0.000758292
2.60385
-0.0123617
3.11048
-0.0243677
3.10709
-0.0339639
2.59623
-0.0421788
2.17679
-0.0490809
1.83057
-0.0544858
1.54412
-0.0567243
1.29881
-0.0516855
1.06606
-0.0320118
0.788288
-0.00637526
0.433307
0.115362
0.00375481
0.119332
0.0217177
0.43009
0.0368932
0.786439
0.039668
1.07364
0.0352975
1.31242
0.0279044
1.5606
0.0190666
1.84899
0.00896218
2.19621
-0.00228201
2.61509
-0.0144155
3.12261
-0.0257546
3.11843
-0.0351812
2.60566
-0.0427268
2.18433
-0.048723
1.83657
-0.0534095
1.54881
-0.0546028
1.3
-0.048222
1.05968
-0.0282836
0.76835
-0.00576212
0.410785
0.1096
0.00304779
0.116284
0.0175346
0.415603
0.0314406
0.772533
0.0343831
1.0707
0.0302806
1.31652
0.0232143
1.56767
0.0146728
1.85753
0.00462544
2.20625
-0.0068313
2.62655
-0.0190483
3.13483
-0.0300247
3.12941
-0.0381696
2.6138
-0.0445879
2.19075
-0.0497592
1.84174
-0.0534406
1.55249
-0.0535651
1.30012
-0.0457532
1.05187
-0.0256159
0.748212
-0.00551698
0.390686
0.104083
0.00238417
0.1139
0.0138804
0.404107
0.0265082
0.759905
0.0296288
1.06757
0.0255875
1.32056
0.0184682
1.57479
0.0100024
1.866
0.000441647
2.21581
-0.0102348
2.63722
-0.0221178
3.14671
-0.0327039
3.13999
-0.0408663
2.62196
-0.0467566
2.19664
-0.0509389
1.84592
-0.0536719
1.55522
-0.0530249
1.29948
-0.0438621
1.04271
-0.0236673
0.728018
-0.00538208
0.372401
0.098701
0.00170467
0.112195
0.010549
0.395262
0.0213755
0.749079
0.0239891
1.06496
0.0199013
1.32465
0.0128772
1.58181
0.00432478
1.87455
-0.00558936
2.22573
-0.0168207
2.64846
-0.0286709
3.15856
-0.0385438
3.14986
-0.0449742
2.62839
-0.0495348
2.2012
-0.0532117
1.8496
-0.0549886
1.557
-0.0534414
1.29793
-0.0429268
1.03219
-0.0224207
0.707511
-0.005299
0.35528
0.093402
0.000825777
0.111369
0.00706527
0.389023
0.0162115
0.739933
0.018471
1.0627
0.0140533
1.32907
0.00660213
1.58926
-0.00214962
1.8833
-0.0118111
2.23539
-0.0222866
2.65893
-0.0335199
3.16979
-0.0430459
3.15939
-0.049481
2.63483
-0.0534881
2.20521
-0.0561581
1.85227
-0.0569442
1.55779
-0.054415
1.2954
-0.0425487
1.02033
-0.021683
0.686646
-0.00527951
0.338876
0.0881225
0.000168877
0.1112
0.00428472
0.384907
0.0110966
0.733121
0.0121514
1.06165
0.00730923
1.33391
-0.000345342
1.59692
-0.00965633
1.89261
-0.0201188
2.24585
-0.0314861
2.6703
-0.0428859
3.18119
-0.0512737
3.16778
-0.055883
2.63944
-0.058731
2.20806
-0.0607029
1.85424
-0.0605953
1.55768
-0.0564158
1.29122
-0.0429086
1.00682
-0.021426
0.665163
-0.00531727
0.322767
0.0828052
-0.00081353
0.112014
0.000555325
0.383538
0.00537421
0.728302
0.00575296
1.06127
0.000336712
1.33933
-0.00817689
1.60543
-0.0181006
1.90253
-0.0287825
2.25653
-0.0397905
2.68131
-0.0504271
3.19183
-0.0585367
3.17589
-0.0631517
2.64405
-0.0652347
2.21014
-0.0662244
1.85523
-0.065088
1.55654
-0.0593279
1.28546
-0.044066
0.991559
-0.0216859
0.642783
-0.00546147
0.306543
0.0773437
-0.00167326
0.113687
-0.00253076
0.384396
-0.000606382
0.726377
-0.00235117
1.06301
-0.00889969
1.34587
-0.0181491
1.61468
-0.028934
1.91332
-0.0407551
2.26836
-0.0527784
2.69333
-0.0636738
3.20272
-0.0703875
3.1826
-0.0733892
2.64706
-0.0745452
2.2113
-0.0740945
1.85478
-0.0713282
1.55378
-0.0636252
1.27776
-0.0462159
0.97415
-0.0225066
0.619074
-0.00573656
0.289773
0.0716072
-0.00303621
0.116723
-0.00626676
0.387626
-0.00792095
0.728032
-0.0111247
1.06622
-0.0185733
1.35332
-0.0288487
1.62496
-0.0404606
1.92493
-0.0527035
2.2806
-0.0648509
2.70548
-0.0753283
3.2132
-0.0817263
3.189
-0.0842
2.64953
-0.0838676
2.21096
-0.0826153
1.85353
-0.0790166
1.55018
-0.0692561
1.268
-0.0492782
0.954172
-0.0238311
0.593627
-0.00611692
0.272059
0.0654903
-0.00430962
0.121033
-0.010455
0.393772
-0.0154597
0.733036
-0.0216099
1.07237
-0.0306863
1.3624
-0.042592
1.63686
-0.0558061
1.93814
-0.0697891
2.29458
-0.0832586
2.71895
-0.0940049
3.22395
-0.09881
3.1938
-0.0993214
2.65004
-0.0981339
2.20978
-0.0948804
1.85027
-0.0888187
1.54412
-0.0764871
1.25567
-0.0534378
0.931123
-0.025669
0.565858
-0.00660029
0.25299
0.05889
-0.00575702
0.12679
-0.0154719
0.403487
-0.0244922
0.742057
-0.0334991
1.08137
-0.0444332
1.37333
-0.0579502
1.65038
-0.072551
1.95275
-0.0872945
2.30932
-0.101009
2.73266
-0.111897
3.23484
-0.116654
3.19856
-0.116204
2.64959
-0.11245
2.20602
-0.107917
1.84574
-0.100702
1.5369
-0.0851767
1.24014
-0.058444
0.90439
-0.0278544
0.535268
-0.0071159
0.232252
0.0517741
-0.00807638
0.134866
-0.0222872
0.417697
-0.0365705
0.75634
-0.0489571
1.09376
-0.0619005
1.38628
-0.0775641
1.66604
-0.0945113
1.96969
-0.111974
2.32679
-0.127789
2.74848
-0.138101
3.24515
-0.139838
3.2003
-0.136937
2.64669
-0.132675
2.20176
-0.125873
1.83894
-0.115098
1.52613
-0.0959125
1.22095
-0.064712
0.873189
-0.0304627
0.501019
-0.00768505
0.209474
0.044089
-0.0105227
0.145389
-0.0295967
0.436772
-0.0500156
0.776759
-0.0674095
1.11115
-0.0837529
1.40262
-0.102232
1.68452
-0.12158
1.98904
-0.139846
2.34505
-0.154448
2.76308
-0.163492
3.25419
-0.165413
3.20222
-0.161272
2.64255
-0.153423
2.19391
-0.144385
1.8299
-0.13157
1.51331
-0.107656
1.19704
-0.0711827
0.836716
-0.0330074
0.462844
-0.00815368
0.18462
0.0359353
-0.0152155
0.160604
-0.0417386
0.463295
-0.0690309
0.804051
-0.091333
1.13346
-0.111277
1.42256
-0.133318
1.70656
-0.155263
2.01099
-0.175858
2.36565
-0.19243
2.77965
-0.200966
3.26273
-0.197797
3.19905
-0.189416
2.63417
-0.180486
2.18498
-0.168713
1.81813
-0.150921
1.49552
-0.121809
1.16793
-0.0790621
0.793969
-0.0357294
0.419511
-0.00856541
0.157456
0.0273699
-0.0193174
0.179922
-0.0546056
0.498583
-0.0916346
0.84108
-0.12184
1.16366
-0.147894
1.44862
-0.174506
1.73318
-0.199306
2.03579
-0.219908
2.38625
-0.233113
2.79286
-0.235819
3.26543
-0.230302
3.19353
-0.220682
2.62455
-0.207484
2.17178
-0.193144
1.80379
-0.172455
1.47483
-0.13626
1.13174
-0.0857989
0.743508
-0.0376501
0.371362
-0.00859694
0.128403
0.018773
-0.0325669
0.212489
-0.0817724
0.547788
-0.129587
0.888895
-0.166246
1.20032
-0.197482
1.47986
-0.228013
1.76371
-0.253337
2.06111
-0.27285
2.40576
-0.284423
2.80443
-0.285983
3.26699
-0.275127
3.18268
-0.258759
2.60818
-0.243104
2.15613
-0.224351
1.78503
-0.196147
1.44662
-0.152137
1.08772
-0.0936268
0.684998
-0.0396066
0.317342
-0.00851341
0.09731
0.0102596
-0.0469202
0.259409
-0.120472
0.62134
-0.183929
0.952353
-0.229367
1.24576
-0.266826
1.51731
-0.298015
1.7949
-0.321065
2.08416
-0.336634
2.42133
-0.342282
2.81008
-0.334106
3.25882
-0.315735
3.16431
-0.296726
2.58917
-0.27643
2.13583
-0.253718
1.76232
-0.22052
1.41343
-0.166255
1.03346
-0.0970466
0.615789
-0.038896
0.259191
-0.00828712
0.0667011
0.00197246
-0.0339325
0.293341
-0.0974555
0.684863
-0.156102
1.011
-0.203658
1.29331
-0.246803
1.56046
-0.285633
1.83373
-0.321871
2.1204
-0.354306
2.45376
-0.378987
2.83476
-0.393272
3.2731
-0.393747
3.16478
-0.381004
2.57643
-0.362238
2.11707
-0.332739
1.73282
-0.280486
1.36117
-0.20075
0.953724
-0.109309
0.524349
-0.0419585
0.19184
-0.00948522
0.0342278
-0.00751276
-0.0126953
0.306037
-0.04766
0.719827
-0.0895802
1.05292
-0.129187
1.33292
-0.168487
1.59976
-0.203377
1.86862
-0.235685
2.15271
-0.263497
2.48158
-0.283514
2.85477
-0.290754
3.28034
-0.27918
3.15321
-0.259118
2.55637
-0.234733
2.09268
-0.202116
1.70021
-0.159183
1.31824
-0.102623
0.897164
-0.0470234
0.46875
-0.0170229
0.16184
-0.00413518
0.02134
-0.0116479
0.000172436
0.305864
-0.0245828
0.744583
-0.0540752
1.08241
-0.0842806
1.36313
-0.11598
1.63146
-0.146741
1.89938
-0.17519
2.18116
-0.198905
2.50529
-0.21414
2.87001
-0.214742
3.28095
-0.199328
3.13779
-0.177314
2.53435
-0.150797
2.06616
-0.121595
1.671
-0.0825608
1.27921
-0.0404779
0.855081
-0.0122938
0.440566
-0.00351283
0.153059
-0.00123297
0.0190602
-0.0128809
0.000614742
0.30525
-0.0129733
0.758171
-0.0343103
1.10375
-0.0588453
1.38766
-0.0847863
1.6574
-0.110681
1.92527
-0.134789
2.20526
-0.154588
2.52509
-0.166072
2.88149
-0.163624
3.2785
-0.148017
3.12218
-0.124621
2.51096
-0.0961416
2.03769
-0.0618538
1.63672
-0.030079
1.24743
-0.0049693
0.829972
0.00636364
0.429233
0.00452651
0.154896
0.000945
0.0226417
-0.0119359
0.00430971
0.30094
-0.00467696
0.767157
-0.0227202
1.12179
-0.0434947
1.40844
-0.065255
1.67916
-0.0870157
1.94703
-0.107525
2.22577
-0.12387
2.54144
-0.132317
2.88994
-0.128329
3.27451
-0.1109
3.10475
-0.085957
2.48601
-0.057417
2.00915
-0.0306629
1.60996
-0.00229435
1.21906
0.0172719
0.810406
0.0188001
0.427704
0.010322
0.163374
0.00267906
0.0302846
-0.00925684
0.0051654
0.295775
-0.000839061
0.773162
-0.016504
1.13746
-0.0346503
1.42658
-0.0537379
1.69825
-0.0726977
1.96599
-0.0904785
2.24355
-0.105009
2.55597
-0.112891
2.89782
-0.108334
3.26995
-0.090126
3.08655
-0.0656578
2.46154
-0.0385602
1.98205
-0.00910136
1.5805
0.0126897
1.19727
0.023836
0.799259
0.0227302
0.42881
0.0124981
0.173606
0.003425
0.0393577
-0.00583183
0.00433755
0.291437
0.000237174
0.777262
-0.0130104
1.1507
-0.0294749
1.44305
-0.0465848
1.71536
-0.0637367
1.98314
-0.0801198
2.25994
-0.093435
2.56928
-0.0998167
2.9042
-0.0947426
3.26488
-0.0778685
3.06967
-0.0536985
2.43737
-0.0273382
1.95569
-0.005173
1.55834
0.0151973
1.1769
0.026446
0.788011
0.0228599
0.432396
0.0126804
0.183786
0.00360359
0.0484345
-0.00222824
0.00265623
0.288781
-0.000841777
0.78076
-0.0124566
1.16232
-0.0271067
1.4577
-0.0431676
1.73142
-0.0592619
1.99924
-0.0744965
2.27517
-0.0869763
2.58176
-0.0933776
2.91061
-0.089634
3.26113
-0.0725904
3.05263
-0.0507561
2.41554
-0.0283272
1.93326
-0.00279732
1.53281
0.0145822
1.15952
0.0221913
0.780401
0.0201932
0.434394
0.0112944
0.192685
0.00332844
0.0564005
0.0011002
0.000803097
0.287978
-0.00235913
0.783922
-0.0129829
1.17294
-0.0264555
1.47117
-0.0414427
1.7464
-0.0565706
2.01437
-0.0712091
2.28981
-0.0835771
2.59413
-0.0906036
2.91763
-0.0883264
3.25886
-0.0741041
3.03841
-0.0535967
2.39503
-0.029413
1.90907
-0.0102764
1.51367
0.00728455
1.14196
0.0176951
0.769991
0.0156027
0.436487
0.00895937
0.199328
0.00269945
0.0626604
0.00379965
-0.000507135
0.288485
-0.00516581
0.788581
-0.0145879
1.18237
-0.0267855
1.48337
-0.0410114
1.76063
-0.0556934
2.02905
-0.0700906
2.30421
-0.0827568
2.6068
-0.0907549
2.92563
-0.0894224
3.25752
-0.0756679
3.02465
-0.0567868
2.37615
-0.0382558
1.89054
-0.0161736
1.49159
0.000382258
1.1254
0.00813001
0.762243
0.00971737
0.434899
0.00575223
0.203293
0.00193104
0.0664816
0.00573068
-0.00168259
0.290167
-0.00662266
0.793521
-0.015961
1.1917
-0.0277181
1.49512
-0.041217
1.77413
-0.0553027
2.04313
-0.0696062
2.31851
-0.0826963
2.61989
-0.0917862
2.93472
-0.0928375
3.25858
-0.0828573
3.01467
-0.0643017
2.3576
-0.0422301
1.86847
-0.0258326
1.47519
-0.0102991
1.10987
0.00136185
0.750582
0.00356836
0.432693
0.0028174
0.204044
0.00114777
0.0681512
0.00687845
-0.00321291
0.29338
-0.00875994
0.799068
-0.017564
1.20051
-0.0286045
1.50616
-0.0415869
1.78711
-0.0555242
2.05707
-0.0699998
2.33299
-0.083778
2.63366
-0.0943909
2.94533
-0.0973157
3.2615
-0.0876184
3.00497
-0.0709807
2.34096
-0.0542947
1.85179
-0.0334397
1.45434
-0.0176072
1.09404
-0.00747374
0.740449
-0.00144114
0.42666
-0.000159842
0.202763
0.000241308
0.0677501
0.00711976
-0.00394085
0.297321
-0.00962221
0.80475
-0.018582
1.20947
-0.0295668
1.51715
-0.0421853
1.79973
-0.0557244
2.07061
-0.0701803
2.34744
-0.0844472
2.64793
-0.0963451
2.95723
-0.101838
3.26699
-0.0958305
2.99897
-0.0805474
2.32568
-0.0587741
1.83001
-0.0420891
1.43765
-0.0253835
1.07733
-0.0116883
0.726754
-0.00564368
0.420616
-0.00169736
0.198816
-0.00014303
0.0661957
0.00697673
-0.00430225
0.301623
-0.0108956
0.811343
-0.019643
1.21822
-0.0300925
1.5276
-0.042354
1.81199
-0.0558233
2.08408
-0.0704882
2.36211
-0.0855046
2.66295
-0.0991098
2.97084
-0.107226
3.27511
-0.102951
2.99469
-0.0885014
2.31123
-0.0713121
1.81282
-0.0482139
1.41455
-0.029544
1.05866
-0.0165486
0.713758
-0.00746789
0.411535
-0.00270451
0.194053
-0.000468981
0.0639602
0.00650775
-0.00429775
0.305921
-0.0110859
0.818131
-0.0200316
1.22716
-0.030521
1.53809
-0.0425646
1.82404
-0.0557085
2.09722
-0.0703382
2.37674
-0.0858239
2.67843
-0.100672
2.98568
-0.111253
3.28569
-0.110686
2.99413
-0.098046
2.29859
-0.0758168
1.79059
-0.0547925
1.39353
-0.033273
1.03714
-0.0159975
0.696483
-0.0076041
0.403142
-0.00249535
0.188944
-0.000609621
0.0620745
0.00589813
-0.00446816
0.310389
-0.01177
0.825433
-0.020434
1.23582
-0.0304259
1.54808
-0.0421213
1.83573
-0.0552058
2.11031
-0.0700343
2.39156
-0.0861544
2.69455
-0.102425
3.00195
-0.115618
3.29888
-0.117635
2.99614
-0.106783
2.28773
-0.0887917
1.7726
-0.0598745
1.36461
-0.033563
1.01083
-0.0151121
0.678032
-0.00290104
0.39093
0.00114359
0.1849
0.00116765
0.0620504
0.00706578
-0.0044457
0.314835
-0.0115781
0.832565
-0.0202362
1.24448
-0.0302391
1.55808
-0.0417473
1.84724
-0.0545333
2.12309
-0.0692555
2.40629
-0.0856773
2.71098
-0.103029
3.01931
-0.1185
3.31436
-0.124508
3.00215
-0.116346
2.27957
-0.0935788
1.74984
-0.066049
1.33708
-0.0332244
0.978007
-0.0070943
0.651902
0.00586692
0.377969
0.00581074
0.184956
-0.00101287
0.068874
0.00605291
-0.00454744
0.319382
-0.011862
0.83988
-0.0201367
1.25276
-0.0296108
1.56756
-0.0407193
1.85835
-0.0533859
2.13576
-0.0681987
2.4211
-0.0850845
2.72786
-0.103491
3.03771
-0.120914
3.33178
-0.129968
3.0112
-0.124828
2.27443
-0.107632
1.73264
-0.072323
1.30177
-0.0314087
0.937093
0.00533342
0.61516
0.0331305
0.350172
0.0420248
0.176061
0.0271135
0.0837853
0.0331664
-0.00439759
0.32378
-0.0113833
0.846866
-0.0195477
1.26092
-0.0289555
1.57697
-0.0398373
1.86923
-0.0521683
2.14809
-0.0667639
2.4357
-0.0837653
2.74486
-0.10292
3.05687
-0.122364
3.35122
-0.134765
3.0236
-0.134007
2.27367
-0.113638
1.71227
-0.0807058
1.26884
-0.0318994
0.888287
0.0161686
0.567092
0.0557755
0.310565
0.0508183
0.181019
0.0223336
0.11227
0.0555
-0.00431352
0.328094
-0.011361
0.853913
-0.0191163
1.26868
-0.0279487
1.5858
-0.0383993
1.87968
-0.0505339
2.16023
-0.0651142
2.45028
-0.082377
2.76213
-0.102198
3.07669
-0.123074
3.3721
-0.137714
3.03824
-0.140972
2.27693
-0.129432
1.70073
-0.0925089
1.23192
-0.0384978
0.834275
0.033092
0.495502
0.130879
0.212778
0.199752
0.112145
0.183939
0.128083
0.239439
-0.00413901
0.332233
-0.0108961
0.86067
-0.0187184
1.2765
-0.027784
1.59486
-0.0385383
1.89043
-0.0510657
2.17275
-0.0664366
2.46565
-0.0851558
2.78084
-0.107572
3.0991
-0.133069
3.3976
-0.154182
3.05936
-0.163412
2.28616
-0.150644
1.68796
-0.117952
1.19923
-0.0548083
0.771132
0.00363363
0.43706
-0.0570568
0.273469
-0.355448
0.410537
-0.943776
0.716411
0.901286
-1.60562
-0.00401708
0.33625
-0.0108272
0.86748
-0.0183469
1.28402
-0.0270391
1.60356
-0.0375783
1.90097
-0.0502875
2.18546
-0.0662294
2.48159
-0.0860568
2.80067
-0.110404
3.12345
-0.139145
3.42634
-0.164856
3.08507
-0.179382
2.30069
-0.184678
1.69326
-0.159854
1.1744
-0.127659
0.738937
-0.224474
0.533875
-0.693762
0.742757
-1.44858
1.16535
-2.05466
1.3225
1.21622
-2.3696
-0.00377015
0.34002
-0.0101349
0.873845
-0.0175363
1.29142
-0.0262709
1.61229
-0.0368385
1.91154
-0.0496016
2.19823
-0.0658296
2.49782
-0.0864276
2.82127
-0.112605
3.14963
-0.145434
3.45917
-0.178291
3.11793
-0.202133
2.32453
-0.207691
1.69881
-0.191636
1.15835
-0.277081
0.824382
-0.75312
1.00991
-1.55218
1.54181
-2.11358
1.72676
-2.35187
1.56078
1.33008
-2.46573
-0.00365538
0.343675
-0.00989043
0.88008
-0.0169172
1.29845
-0.0252244
1.6206
-0.035496
1.92181
-0.0483502
2.21108
-0.0650355
2.5145
-0.0866394
2.84287
-0.114701
3.17769
-0.15095
3.49542
-0.189245
3.15622
-0.219678
2.35496
-0.244401
1.72354
-0.319455
1.2334
-0.6799
1.18483
-1.44167
1.77169
-2.02944
2.12958
-2.26849
1.96581
-2.3813
1.6736
1.39388
-2.4451
-0.0033266
0.347002
-0.00902138
0.885775
-0.0158289
1.30525
-0.0240985
1.62887
-0.0344066
1.93212
-0.0472566
2.22393
-0.0640993
2.53134
-0.0863046
2.86508
-0.116036
3.20742
-0.156444
3.53582
-0.202992
3.20277
-0.246088
2.39806
-0.28468
1.76213
-0.465291
1.41401
-1.09533
1.81487
-1.79099
2.46734
-2.10948
2.44807
-2.25709
2.11342
-2.33897
1.75548
1.45984
-2.40493
-0.00333216
0.350334
-0.00914052
0.891583
-0.0158269
1.31194
-0.0239228
1.63696
-0.0343021
1.9425
-0.047491
2.23712
-0.0649998
2.54885
-0.0883749
2.88845
-0.120076
3.23912
-0.16396
3.57971
-0.216284
3.25509
-0.262427
2.4442
-0.349726
1.84943
-0.743145
1.80743
-1.49189
2.56361
-1.96323
2.93869
-2.16291
2.64775
-2.26892
2.21943
-2.34605
1.8326
1.52315
-2.40936
-0.00337999
0.353714
-0.00920671
0.89741
-0.0163735
1.31911
-0.0251668
1.64576
-0.0362632
1.9536
-0.0501011
2.25096
-0.068367
2.56712
-0.0928295
2.91292
-0.126497
3.27279
-0.174729
3.62794
-0.232832
3.3132
-0.294521
2.50589
-0.481065
2.03597
-1.04582
2.37219
-1.67933
3.19711
-1.95319
3.21255
-2.09976
2.79431
-2.21349
2.33316
-2.30704
1.92616
1.58471
-2.3686
-0.00353206
0.357246
-0.00999622
0.903874
-0.0174484
1.32656
-0.0264168
1.65472
-0.0377972
1.96498
-0.0523155
2.26548
-0.0716529
2.58646
-0.0976992
2.93896
-0.133607
3.3087
-0.185585
3.67992
-0.248771
3.37638
-0.333912
2.59103
-0.615514
2.31757
-1.26418
3.02086
-1.75201
3.68494
-1.95891
3.41946
-2.09838
2.93378
-2.22205
2.45683
-2.33223
2.03634
1.64326
-2.39079
-0.00343827
0.360684
-0.00981051
0.910246
-0.017904
1.33465
-0.0278004
1.66462
-0.0400689
1.97725
-0.0553122
2.28072
-0.0754328
2.60658
-0.102544
2.96607
-0.140313
3.34647
-0.195726
3.73533
-0.263951
3.44461
-0.38808
2.71516
-0.774369
2.70386
-1.41031
3.6568
-1.7618
4.03643
-1.93439
3.59205
-2.036
3.03539
-2.12437
2.54521
-2.19122
2.10319
1.63592
-2.18388
-0.00348928
0.364174
-0.0106617
0.917419
-0.0190452
1.34304
-0.0290472
1.67462
-0.0415711
1.98977
-0.0575333
2.29668
-0.0788109
2.62785
-0.107604
2.99487
-0.147596
3.38646
-0.205278
3.79301
-0.284206
3.52354
-0.453545
2.8845
-0.906125
3.15644
-1.46219
4.21286
-1.72321
4.29745
-1.87438
3.74322
-1.96754
3.12855
-1.9685
2.54616
-1.89882
2.03351
1.59922
-1.86212
-0.00321321
0.367387
-0.0100112
0.924217
-0.0190745
1.3521
-0.0301218
1.68567
-0.0435714
2.00322
-0.0600622
2.31317
-0.0816127
2.64941
-0.110514
3.02377
-0.150749
3.42669
-0.207819
3.85008
-0.293579
3.6093
-0.497917
3.08884
-0.98843
3.64695
-1.42895
4.65337
-1.59342
4.46192
-1.66022
3.81003
-1.66445
3.13279
-1.51662
2.39833
-1.01668
1.53357
0.582531
-0.00287252
0.370259
-0.0107618
0.932106
-0.0201051
1.36144
-0.0312406
1.69681
-0.0451684
2.01715
-0.0629303
2.33093
-0.0866055
2.67308
-0.118662
3.05583
-0.16319
3.47122
-0.227552
3.91444
-0.330854
3.7126
-0.584476
3.34246
-1.12396
4.18644
-1.48157
5.01099
-1.5806
4.56094
-1.5782
3.80763
-1.47419
3.02877
-1.2354
2.15954
-0.631211
0.92938
-0.0486794
-0.00250989
0.372769
-0.00926033
0.938857
-0.0193172
1.3715
-0.0319766
1.70947
-0.0475464
2.03272
-0.06678
2.35017
-0.0921311
2.69843
-0.126449
3.09014
-0.175117
3.51989
-0.245035
3.98436
-0.367432
3.835
-0.682087
3.65712
-1.2424
4.74675
-1.50223
5.27082
-1.56039
4.61911
-1.53795
3.78519
-1.33616
2.82698
-0.782134
1.60551
-0.1085
0.255746
-0.15718
-0.00168391
0.374453
-0.00966506
0.946838
-0.0198094
1.38164
-0.0322516
1.72191
-0.0479628
2.04843
-0.0683188
2.37052
-0.0958498
2.72596
-0.133598
3.12789
-0.186321
3.57261
-0.265129
4.06317
-0.414375
3.98424
-0.78622
4.02896
-1.32065
5.28118
-1.49631
5.44648
-1.52751
4.65031
-1.43914
3.69682
-1.10121
2.48905
-0.312606
0.816913
0.0247368
-0.081597
-0.132443
-0.000778538
0.375232
-0.00664261
0.952702
-0.0172724
1.39227
-0.0314511
1.73609
-0.0489951
2.06597
-0.0708993
2.39243
-0.100038
2.7551
-0.139632
3.16749
-0.195025
3.628
-0.281397
4.14954
-0.45617
4.15902
-0.894497
4.46729
-1.36584
5.75252
-1.48191
5.56254
-1.4844
4.65281
-1.25909
3.47151
-0.685568
1.91553
-0.0625996
0.193945
0.0301723
-0.174369
-0.102271
3.55684e-05
0.375196
-0.00605501
0.958792
-0.0163937
1.40261
-0.0299656
1.74966
-0.046992
2.083
-0.0696933
2.41513
-0.100748
2.78616
-0.143446
3.21018
-0.202542
3.6871
-0.298838
4.24584
-0.500838
4.36102
-0.988885
4.95533
-1.36153
6.12517
-1.42519
5.6262
-1.37879
4.60641
-1.09008
3.18279
-0.321921
1.14737
0.00501836
-0.132994
0.0150792
-0.18443
-0.0871916
0.00332049
0.371876
0.000488697
0.961624
-0.0106119
1.41371
-0.0261285
1.76517
-0.044911
2.10178
-0.0692125
2.43943
-0.101531
2.81847
-0.145237
3.25389
-0.206533
3.7484
-0.310061
4.34937
-0.537136
4.58809
-1.04969
5.46789
-1.32527
6.40075
-1.36639
5.66732
-1.22555
4.46557
-0.770604
2.72784
-0.0680629
0.444832
0.0446299
-0.245687
0.0243273
-0.164127
-0.0628643
0.00436838
0.367507
0.00231204
0.96368
-0.00753844
1.42356
-0.0211941
1.77883
-0.0384879
2.11907
-0.0629922
2.46393
-0.0964429
2.85192
-0.14264
3.30009
-0.207071
3.81283
-0.3195
4.46179
-0.577906
4.8465
-1.07328
5.96327
-1.26255
6.59002
-1.27074
5.6755
-1.05093
4.24576
-0.45984
2.13675
-0.0185622
0.00355438
-0.00668311
-0.257566
0.00482338
-0.175634
-0.0580409
0.00868018
0.358827
0.0100245
0.962336
0.00276777
1.43082
-0.0115784
1.79318
-0.0307869
2.13828
-0.0564921
2.48964
-0.0904023
2.88583
-0.136043
3.34573
-0.201361
3.87815
-0.318901
4.57933
-0.597619
5.12521
-1.04843
6.41408
-1.1722
6.71379
-1.15789
5.6612
-0.896904
3.98477
-0.262939
1.50279
-0.070752
-0.188633
-0.038915
-0.289403
-0.0143536
-0.200195
-0.0723945
0.0113811
0.347446
0.0158424
0.957875
0.0107425
1.43592
0.000603444
1.80332
-0.0174938
2.15638
-0.0416852
2.51383
-0.0750209
2.91917
-0.12168
3.39239
-0.188409
3.94487
-0.311232
4.70216
-0.598769
5.41275
-0.98662
6.80193
-1.05169
6.77886
-0.979279
5.58878
-0.676069
3.68156
-0.0705862
0.897304
0.0149009
-0.27412
0.000133828
-0.274636
-0.00166896
-0.198392
-0.0740634
0.0185154
0.328931
0.0301568
0.946233
0.0288459
1.43723
0.0174788
1.81468
-0.000890062
2.17475
-0.0240134
2.53695
-0.0564452
2.9516
-0.100602
3.43654
-0.164866
4.00914
-0.285742
4.82303
-0.564855
5.69186
-0.87185
7.10893
-0.905422
6.81243
-0.805282
5.48864
-0.445639
3.32192
0.0681888
0.383476
0.0777959
-0.283727
0.0578737
-0.254713
0.0224232
-0.162942
-0.0516403
0.0242714
0.304659
0.0422285
0.928276
0.0451743
1.43429
0.0385329
1.82132
0.0263613
2.18692
0.00516177
2.55815
-0.0245163
2.98128
-0.06681
3.47884
-0.128697
4.07103
-0.245018
4.93935
-0.494715
5.94156
-0.715473
7.32969
-0.746581
6.84354
-0.63898
5.38104
-0.306975
2.98991
-0.00214742
0.0786487
0.0183075
-0.304182
0.0303275
-0.266733
0.0158028
-0.148417
-0.0358374
0.0352397
0.269419
0.0653717
0.898144
0.0763339
1.42332
0.0727526
1.82491
0.061465
2.19821
0.041938
2.57768
0.0146194
3.0086
-0.0230202
3.51648
-0.0777451
4.12575
-0.176373
5.03798
-0.378887
6.14407
-0.535469
7.48627
-0.555706
6.86378
-0.459757
5.28509
-0.180934
2.71109
-0.0678936
-0.0343913
-0.0523815
-0.319694
-0.0218617
-0.297253
-0.00344734
-0.166831
-0.0392847
0.0446684
0.224751
0.0870334
0.855779
0.107
1.40336
0.111468
1.82044
0.107413
2.20226
0.0936696
2.59143
0.0729284
3.02934
0.040994
3.54841
-0.00952848
4.17627
-0.0846202
5.11307
-0.221716
6.28117
-0.312327
7.57688
-0.326826
6.87828
-0.269018
5.22729
-0.062734
2.50481
-0.0837371
-0.0133882
-0.0725432
-0.330888
-0.0291541
-0.340642
0.00697463
-0.20296
-0.0323101
0.0581072
0.166644
0.120701
0.793185
0.157291
1.36677
0.169601
1.80813
0.169401
2.20246
0.159146
2.60168
0.144251
3.04424
0.12246
3.5702
0.0884323
4.2103
0.0427304
5.15878
-0.010319
6.33422
-0.0470073
7.61357
-0.0526849
6.88396
-0.0368541
5.21145
0.000336192
2.46762
-0.153117
0.140065
-0.137953
-0.346052
-0.057598
-0.420997
0.0192546
-0.279813
-0.0130556
0.0602629
0.106381
0.150611
0.702837
0.206886
1.31049
0.233556
1.78146
0.24513
2.19089
0.2445
2.60231
0.238604
3.05013
0.227093
3.58171
0.210428
4.22697
0.19157
5.17763
0.247375
6.27841
0.295406
7.56554
0.278898
6.90046
0.121727
5.36863
-0.170343
2.75969
-0.45677
0.426492
-0.469017
-0.333805
-0.345137
-0.544877
-0.150679
-0.474271
-0.163734
0.0503377
0.0560433
0.183924
0.56925
0.279427
1.21499
0.325124
1.73576
0.344892
2.17112
0.352102
2.5951
0.35269
3.04954
0.3561
3.5783
0.361746
4.22132
0.38146
5.15792
0.531344
6.12853
0.688803
7.40808
0.688206
6.90106
0.536522
5.52031
0.0281334
3.26808
-0.524298
0.978923
-0.721131
-0.136971
-0.574273
-0.691735
-0.3082
-0.740344
-0.471934
0.0345167
0.0215265
0.218887
0.384881
0.344644
1.08923
0.421134
1.65927
0.462321
2.12993
0.486087
2.57133
0.494315
3.04132
0.51001
3.56261
0.540076
4.19125
0.604211
5.09379
0.875211
5.85753
1.27208
7.01121
1.53981
6.63333
1.69787
5.36224
1.30466
3.66129
0.544881
1.7387
-0.0233437
0.431253
-0.297916
-0.417163
-0.242362
-0.795898
-0.714296
0.0309122
-0.0093857
0.237275
0.178518
0.447193
0.879314
0.561121
1.54534
0.611621
2.07943
0.64467
2.53828
0.666853
3.01913
0.695071
3.53439
0.750343
4.13598
0.871389
4.97274
1.24731
5.48161
1.91717
6.34135
2.28814
6.26236
2.51591
5.13447
2.37931
3.79789
1.7696
2.3484
1.15377
1.04709
0.515243
0.221361
0.155851
-0.436506
-0.558445
0.0259878
-0.0353735
0.163451
0.0410546
0.492836
0.54993
0.686902
1.35128
0.786647
1.97969
0.836092
2.48884
0.870505
2.98472
0.899128
3.50577
0.975003
4.06011
1.11769
4.83005
1.50292
5.09638
2.29066
5.55362
2.67864
5.87438
2.86588
4.94723
2.75427
3.90951
2.26516
2.83751
1.61591
1.69634
1.03692
0.800356
0.444263
0.156151
-0.114182
0.00471957
-0.040093
0.083239
-0.0374648
0.414318
0.21885
0.705391
1.0602
0.837804
1.84728
0.879476
2.44717
0.889686
2.97451
0.874366
3.52109
0.8722
4.06227
0.915
4.78725
1.0648
4.94657
1.49889
5.11953
1.67152
5.70175
1.70819
4.91056
1.62731
3.99038
1.39911
3.06571
1.02343
2.07202
0.64054
1.18325
0.259262
0.537428
0.14508
0.00373509
-0.0438281
0.0451858
-0.0789155
0.224468
0.0395686
0.536464
0.748208
0.705609
1.67813
0.759251
2.39352
0.775604
2.95816
0.771381
3.52531
0.75553
4.07813
0.776374
4.76641
0.847368
4.87558
1.13177
4.83513
1.32157
5.51195
1.32758
4.90455
1.26543
4.05253
1.10788
3.22326
0.823827
2.35607
0.514253
1.49282
0.217831
0.83385
0.36291
0.00430468
-0.0481328
0.0239303
-0.0985411
0.0975939
-0.034095
0.36763
0.478171
0.557619
1.48814
0.642817
2.30833
0.658078
2.9429
0.655316
3.52807
0.630072
4.10337
0.626398
4.77008
0.655608
4.84637
0.821668
4.66907
0.999344
5.33428
0.993108
4.91078
0.932652
4.11299
0.813833
3.34208
0.616875
2.55303
0.380672
1.72902
0.152514
1.06201
0.515425
-0.00891901
-0.0392138
-0.00895235
-0.0985078
0.0249776
-0.068025
0.23563
0.267519
0.417982
1.30579
0.51098
2.21533
0.537613
2.91626
0.540017
3.52567
0.514633
4.12875
0.495513
4.7892
0.499201
4.84268
0.598405
4.56987
0.728934
5.20375
0.720815
4.9189
0.65722
4.17658
0.561568
3.43774
0.422261
2.69233
0.249783
1.9015
0.0899875
1.2218
0.605412
-0.0132242
-0.0259896
-0.00509948
-0.106633
0.0242899
-0.0974144
0.158367
0.133442
0.322461
1.1417
0.389082
2.14871
0.407645
2.8977
0.41254
3.52077
0.401118