/*--------------------------------*- C++ -*----------------------------------*\
| =========                 |                                                 |
| \\      /  F ield         | OpenFOAM: The Open Source CFD Toolbox           |
|  \\    /   O peration     | Version:  4.0                                   |
|   \\  /    A nd           | Web:      www.OpenFOAM.org                      |
|    \\/     M anipulation  |                                                 |
\*---------------------------------------------------------------------------*/
FoamFile
{
    version     2.0;
    format      ascii;
    class       volScalarField;
    location    "37";
    object      p;
}
// * * * * * * * * * * * * * * * * * * * * * * * * * * * * * * * * * * * * * //

dimensions      [0 2 -2 0 0 0 0];

internalField   nonuniform List<scalar> 
918
(
0.613853
1.26669
0.00524454
0.613196
0.000971742
1.23371
-0.442469
0.777723
0.594002
-0.0344169
0.0241427
0.589263
1.09449
0.861022
-1.06951
0.0561651
0.7283
-0.321359
0.593026
0.0356124
0.814001
0.600585
0.603617
0.594203
0.657
0.840392
0.975648
0.0163268
-0.00370443
-0.00462739
0.0194341
0.00171388
0.020292
1.11734
1.16845
1.19114
0.562294
0.387561
-0.303661
-0.373118
-0.364632
-0.489137
0.770031
0.771806
-0.114926
0.779182
0.788571
0.581189
0.593364
0.594253
0.595343
0.594294
0.595688
0.469667
-0.039171
-0.071504
-0.0146823
-0.00345797
0.118102
0.0269023
0.0268419
0.0283776
0.0308541
0.513181
0.585037
0.582251
0.594347
0.602691
1.20624
1.17814
1.20429
1.11805
1.13449
1.07245
1.04504
0.881178
0.903118
0.84697
0.833285
-1.50788
-2.47087
-0.473189
-0.218645
-0.000218827
0.0524413
0.0672958
0.719369
0.717731
0.729715
0.741785
1.14084
-0.316244
-0.436331
0.593146
0.591942
0.600337
0.601033
0.597047
0.596141
0.0402178
0.0427723
0.0251397
0.0328847
0.0333308
0.803294
0.801454
0.594744
0.591763
0.610043
0.630823
0.622763
0.344957
0.660931
0.672967
0.663715
0.828453
0.824495
0.832462
0.949257
0.913254
1.01255
1.03574
0.00582868
0.00197785
0.0436003
0.029111
0.037589
0.558234
0.55099
0.577209
0.565651
0.568083
0.303358
0.168469
0.472989
0.498111
-0.215338
-0.276716
-0.374947
-0.395469
-0.508824
0.662179
0.760733
0.760083
-0.13514
-0.0576815
-0.190677
0.015105
-0.0445933
0.5716
0.578506
0.573561
0.588955
0.583456
0.585405
0.597598
0.594671
0.596232
0.533262
0.657692
0.396139
0.361126
-0.182069
-0.0908148
-0.184332
0.00856051
0.0131249
0.135098
0.1626
0.110667
0.0991578
0.0204081
0.0272256
0.0249858
0.0349323
0.0362149
0.506396
0.495818
0.525452
0.5328
0.575344
0.576461
0.579692
0.578216
0.995759
1.0182
1.02573
0.999384
-3.47285
-6.27737
0.110782
0.249783
0.00387725
0.0127204
0.00365232
0.0256562
0.0114833
0.00465064
0.0727675
0.0695017
0.0639181
0.0712527
0.704272
0.703614
1.05898
1.05845
1.04136
0.990785
0.581221
0.583346
0.588916
0.584758
0.0379086
0.0436823
0.0438588
0.789336
0.79713
0.79578
0.308171
0.221588
0.393775
0.421433
0.691427
0.676861
0.689091
0.725981
0.76315
1.04319
1.06144
1.05965
1.06799
1.11194
1.12827
1.09375
0.538372
0.547961
0.543109
0.580392
0.578099
0.579041
0.574589
0.57603
0.573835
0.016421
-0.367316
0.549646
0.56727
0.546805
0.553513
0.741584
0.817579
0.742186
0.751927
0.750317
0.0804904
0.0238829
0.318932
0.286126
0.448399
0.483412
0.463207
0.967108
0.9272
0.977366
0.950637
0.911835
0.938029
-0.318958
-1.83316
-0.94394
0.605667
0.416551
0.505651
0.0824064
0.0758025
0.0770901
1.05312
1.13179
0.713792
0.881539
0.889869
0.798649
0.827824
0.887482
0.813478
0.84806
0.881722
0.859605
0.618308
0.562465
0.573157
0.886967
0.942652
0.195393
0.140585
0.0960161
0.180485
0.237132
0.209263
1.09568
0.998807
1.07039
0.591514
0.592211
0.0191293
0.0399973
0.59636
0.596411
0.0222958
0.0384978
0.487325
-0.779636
0.184122
0.584847
0.575055
0.592014
-0.0166568
0.426926
0.0260138
0.123013
0.0735302
0.587079
0.523587
0.484415
0.0501369
0.0403029
0.0365623
-0.145288
0.589185
0.587495
0.591473
0.592452
0.593112
0.0410345
0.0352254
0.0307062
0.0405378
0.039041
0.0370538
0.556638
0.574045
-0.100089
0.591601
0.593726
0.593541
0.586716
0.592409
0.590613
0.0547784
0.0427117
0.0466673
0.292343
0.41446
0.733893
0.828318
0.700668
0.473442
0.23437
0.633711
0.698977
0.601753
0.759678
0.753544
0.772372
0.247841
0.100488
0.255962
0.197303
0.582715
0.581367
0.573308
0.570402
0.586856
0.584967
0.589527
0.586499
0.589477
0.590876
0.0214889
-0.000527761
-0.01359
-0.0764497
0.383017
0.64393
0.321135
0.351908
0.21201
0.0321326
0.0319307
0.0277884
0.0249271
0.0717178
0.0578326
0.116223
0.119139
0.0946073
0.0744182
0.0641759
0.0577009
0.0539749
0.580583
0.578913
0.585314
0.593951
0.532922
0.536668
0.502893
0.522661
0.50874
0.449439
0.483843
0.459476
0.0367524
0.0569995
0.0282651
0.0440655
0.0485288
0.0568049
0.0508243
0.048
0.0479602
0.0456752
0.0442904
0.0429065
-0.104462
-0.218123
1.04626
0.981634
0.190353
0.57837
0.584797
0.581579
0.586384
0.589509
0.590349
0.588102
0.584683
0.574586
0.576342
0.572806
0.573533
-0.0382022
-0.17447
-0.0012391
-0.0697242
0.197437
0.68426
0.426853
0.366627
0.361253
0.583389
0.986424
0.781192
0.773835
0.795905
-0.283878
0.113157
-0.216564
0.402499
0.224392
0.733171
0.782134
0.802818
0.75132
0.70351
-0.053816
0.60751
0.00895015
0.0549673
0.24911
0.138882
0.774935
0.736894
0.74276
0.760698
0.78014
0.742586
0.723326
0.719046
0.756282
0.759725
0.5598
0.325035
0.27973
0.240482
0.719823
0.600096
0.657118
0.569043
0.577672
0.580441
0.579029
0.56135
0.568703
0.564408
0.570276
0.57355
0.582606
0.582964
0.578356
0.580551
0.0199015
0.0187318
0.0377995
-0.0696184
-0.0591024
-0.118756
-0.00043642
0.138791
0.100943
0.297689
0.403169
0.116302
0.000360014
0.0297661
0.0634402
0.242483
0.267217
0.141848
0.231086
0.216409
0.202669
0.305325
0.311501
0.0472676
0.0399461
0.0419611
0.0402573
0.0931085
0.162037
0.173552
0.0697144
0.0621658
0.0343562
0.0344396
0.0452869
0.0444412
0.0452234
0.0827858
0.00074463
0.0443966
0.068974
0.0747932
0.067716
0.0629721
0.573486
0.575454
0.575235
0.583224
0.599894
0.615435
0.574261
0.554631
0.545556
0.548546
0.522163
0.532105
0.527888
0.541235
0.561461
0.570457
0.568483
0.571072
0.554261
0.555718
0.542623
0.546535
0.522447
0.504294
0.492755
0.0436742
0.0619573
0.0707534
0.0314494
0.0691374
0.068117
0.0703502
0.0830358
0.066979
0.0593176
0.0597329
0.0533068
0.0570897
-0.0110801
0.0684825
-0.120848
-0.153692
-0.223606
0.950354
1.07083
0.873953
0.64995
0.664076
0.902831
0.988704
0.611763
0.797288
0.820672
0.635018
0.902907
0.583195
0.582797
0.580393
0.579882
0.581123
0.0508874
0.152123
0.160734
0.215142
0.329236
0.442303
0.367289
0.245241
0.378255
0.382257
0.679538
0.694733
0.644366
0.667362
0.665289
0.492406
0.570955
0.625288
0.578105
0.625081
0.647626
0.608003
0.63866
0.584458
0.54037
0.538202
0.486219
0.507601
0.485406
0.467071
0.572861
0.550662
0.560803
0.551915
0.571372
0.596145
0.592118
0.621918
0.633017
0.555791
0.514452
0.52428
0.553043
0.513996
0.527881
0.543584
0.279964
0.178914
0.263894
-0.0273609
0.0534142
0.0383727
-0.00869086
0.0366461
0.322435
-0.375407
-0.348314
-0.980999
0.546778
1.01709
0.728074
0.700875
0.776001
0.754707
0.757945
0.781073
0.787668
0.709557
0.728072
0.731205
0.689165
0.712316
0.735895
0.733258
0.580991
0.454123
0.44633
0.404703
0.278381
0.312854
0.515023
0.437509
0.363447
0.36632
0.529003
0.417125
0.483511
0.522295
0.454028
0.409116
0.613378
0.679231
0.669213
0.643901
0.561127
0.574882
0.599887
0.635752
0.662794
0.694993
0.570029
0.575847
0.577116
0.574582
0.571823
0.574739
0.574861
0.577384
0.578204
0.581128
0.58012
0.0297759
0.0413732
0.0298505
0.021422
0.0470724
0.042215
0.0877998
0.0749007
0.0605332
0.0669395
0.0404798
0.0371043
0.042978
0.0515299
0.161143
0.175463
0.160836
0.121168
0.309724
0.441546
0.511724
0.388599
0.282316
0.30648
0.329488
0.0537702
0.0832769
0.0687704
0.10976
0.100227
0.0430004
0.0410837
0.0429492
0.0448421
0.0567116
0.0408928
0.0456525
0.0533259
0.0429057
0.0395477
0.0405664
0.556786
0.550292
0.551582
0.545711
0.544621
0.558285
0.562608
0.564403
0.569748
0.571715
0.562272
0.567704
0.571266
0.069506
0.0531487
0.0416531
0.0601264
0.0607431
0.0582026
0.0583211
0.180516
0.108807
0.114768
0.0680945
-0.0592315
-0.00188467
0.542488
0.539459
0.535605
0.772533
0.623409
0.541838
0.637385
0.743966
0.330117
0.528373
0.361864
0.942402
0.835557
0.98154
0.598461
0.294147
0.448786
0.499405
0.308033
0.380321
0.386019
0.274752
0.30652
0.338389
0.439247
0.316448
0.290823
0.0490813
0.237124
0.353608
0.334678
0.462298
0.524475
0.314188
0.233617
0.189446
0.671413
0.690611
0.710252
0.680474
0.704901
0.632198
0.621815
0.639675
0.647761
0.643878
-0.709236
-0.417263
-1.361
-0.675887
-0.226423
0.576374
0.539681
0.819549
0.706316
0.770314
0.75532
0.714194
0.680425
0.693
0.725184
0.422285
0.533518
0.507579
0.513689
0.414701
0.347728
0.648274
0.642296
0.678446
0.702487
0.669773
0.702848
0.567793
0.567414
0.567123
0.563537
0.561841
0.563993
0.125012
0.0949372
0.129119
0.11022
0.0875456
0.0763092
0.0695476
0.0636232
0.0592833
0.0574286
0.0627846
0.0635488
0.220888
0.163064
0.0863177
0.117134
0.0548733
-0.0114061
-0.0300505
0.0714178
0.164111
0.154226
0.461151
0.712159
0.533423
0.701913
0.541948
0.597343
0.525929
0.517933
0.545221
0.431997
0.512173
0.276034
-0.227115
-0.135736
0.834295
0.852592
0.633922
0.448018
0.219318
0.408532
0.606877
0.542569
0.58111
0.650032
0.642055
0.0619884
0.129031
0.388274
0.615952
0.284412
0.276479
0.271231
0.445316
0.370113
)
;

boundaryField
{
    wall-4
    {
        type            zeroGradient;
    }
    velocity-inlet-5
    {
        type            zeroGradient;
    }
    velocity-inlet-6
    {
        type            zeroGradient;
    }
    pressure-outlet-7
    {
        type            fixedValue;
        value           uniform 0;
    }
    wall-8
    {
        type            zeroGradient;
    }
    frontAndBackPlanes
    {
        type            empty;
    }
}


// ************************************************************************* //
