/*--------------------------------*- C++ -*----------------------------------*\
| =========                 |                                                 |
| \\      /  F ield         | OpenFOAM: The Open Source CFD Toolbox           |
|  \\    /   O peration     | Version:  4.0                                   |
|   \\  /    A nd           | Web:      www.OpenFOAM.org                      |
|    \\/     M anipulation  |                                                 |
\*---------------------------------------------------------------------------*/
FoamFile
{
    version     2.0;
    format      ascii;
    class       surfaceScalarField;
    location    "37";
    object      phi;
}
// * * * * * * * * * * * * * * * * * * * * * * * * * * * * * * * * * * * * * //

dimensions      [0 3 -1 0 0 0 0];

internalField   nonuniform List<scalar> 
1300
(
3.75095
5.62643
-3.02953
3.75095
-7.04328
5.62643
-4.42852
4.42852
-0.91576
0.91576
1.87642
1.87453
-2.91948
2.91948
-2.34134
2.34134
-2.55573
2.55573
-5.24642
5.24642
-5.06808
5.06808
4.66745
-4.66745
-6.10435
6.10435
-1.26889
1.26889
-3.79937
3.79937
3.16977
-3.16977
-2.28882
2.28882
-0.241129
0.241129
-0.553514
4.30447
3.19744
3.19744
-2.03578
2.03578
-4.86376
4.86376
6.2181
-6.2181
4.7541
-4.7541
-1.72457
-2.06922
1.43645
-11.1565
-5.60682
-5.60682
-8.4404
8.4404
-2.81397
2.81246
2.94409
-2.94409
-1.77881
1.77881
-4.36498
-0.0635392
-4.36498
4.42113
0.00738419
4.42113
-1.01049
0.0947255
-1.01049
3.90256
-3.90256
0.789375
0.126384
0.789375
3.06487
-3.06487
-1.87706
3.75348
1.87389
-1.87186
6.17632
-1.8791
3.75363
-5.9729
5.9729
-3.13929
0.219811
-3.13929
2.74683
0.172646
2.74683
-6.77104
6.77104
-2.41338
0.0720436
-2.41338
2.307
0.0343384
2.307
2.86931
-2.86931
-2.6563
0.100571
-2.6563
2.445
0.110734
2.445
0.353546
5.27288
-5.97998
8.79244
-5.27288
0.0264612
5.20841
0.0380085
5.20841
-5.10583
0.0377491
-5.10583
5.01203
0.0560502
5.01203
4.75824
-0.0907949
4.75824
-4.78207
0.114622
-4.78207
-3.80422
-4.41337
-6.27121
0.166861
-6.27121
-1.27057
0.00168444
-1.27057
1.22538
0.0435063
1.22538
-3.62285
3.62285
-4.19305
0.393679
-4.19305
3.12421
0.0455633
3.12421
1.8685
1.88245
5.61945
-5.61945
2.44968
-2.31987
0.0310482
-2.31987
-2.32244
-2.43166
2.32244
-0.0336186
-0.497906
0.256778
-0.497906
3.1593
0.0381352
3.1593
2.28752
0.157475
-2.28752
0.25174
3.2267
-3.2267
1.37769
0.658089
1.37769
-5.56718
5.56718
4.95357
0.0584589
-4.95357
0.089815
6.15638
0.0617208
6.15638
-6.19951
-0.0185835
-6.19951
2.61668
-4.6859
-2.3978
5.87792
0.226434
-5.87792
0.271096
2.91448
0.0296079
2.91448
-2.92064
2.92064
-2.98329
0.0391961
-2.98329
-2.18145
0.402636
-2.18145
1.47637
0.302436
1.47637
-4.22953
-0.135445
-4.22953
-4.33852
0.145468
4.33852
0.0826148
1.09634
-1.09634
-1.11992
0.109433
-1.11992
-4.05683
-0.172702
4.05683
-0.154272
-3.77567
-0.126888
-3.77567
-3.02361
0.0403255
3.02361
0.0412585
3.11264
0.0466663
-3.11264
0.0477684
-1.87083
3.75328
-1.88013
3.75402
-5.58955
-0.38335
-5.58955
6.27966
-0.306761
6.27966
3.48545
0.313927
-3.48545
0.346157
2.61172
0.135111
2.61172
-6.74378
-0.0272645
-6.74378
6.7452
0.025844
6.7452
2.50487
0.106851
-2.50487
0.0914897
2.31261
-0.00561273
2.31261
2.88383
-0.014516
2.88383
-2.86693
-0.002384
-2.86693
2.79976
-2.79976
2.73176
0.0680016
-2.73176
0.0754607
-11.1329
11.1144
-0.035145
-11.0978
5.17327
5.17327
4.18724
0.570999
4.18724
-4.9966
0.21453
-4.9966
3.19166
-5.58945
3.2581
-7.06232
4.92752
-16.084
4.31734
-8.73071
6.57782
-6.57782
6.43099
0.146826
-6.43099
0.159774
-1.30252
0.0319466
-1.30252
-3.01619
-0.606663
-3.01619
4.27515
-0.652296
4.27515
-3.02882
3.02882
-3.07787
0.0490417
3.07787
0.0463418
2.33232
-0.0197135
-2.33232
0.0124514
0.649508
0.139867
-0.649508
0.151602
3.41331
-0.186604
3.41331
-3.04407
-0.182637
-3.04407
-1.33666
0.0341375
1.33666
0.041036
-5.81591
0.248732
-5.81591
-11.1908
0.0929792
-11.1528
-6.10654
-6.10654
2.33387
11.1263
-2.88769
0.0207632
2.88769
0.0267902
2.97584
0.0529862
-2.97584
0.0551985
-2.86224
0.062478
2.86224
0.0583981
-2.55958
0.378136
-2.55958
-1.06569
1.06569
-1.23896
0.173271
1.23896
0.237412
1.35512
-0.258788
1.35512
1.18692
0.0384622
-1.18692
0.0670001
-3.67141
-0.104266
-3.67141
6.50657
-0.22691
6.50657
-2.93972
-0.104347
2.93972
-0.0558932
-0.0333367
11.1477
-5.13993
0.0341024
5.13993
-11.2094
11.2435
-3.2338
0.674219
3.2338
0.953443
5.28791
0.279265
-5.28791
0.291314
6.6857
0.0594935
-6.6857
0.107889
-2.52676
-0.489426
-2.52676
-5.00542
-0.584126
5.00542
-0.730275
-11.4754
-0.202339
11.6778
-11.4194
6.01825
0.138127
-6.01825
11.3816
-1.00877
-0.087568
1.00877
0.0569221
1.67527
-0.320141
1.67527
3.58219
-0.168879
-3.58219
-0.0892191
-6.65621
-0.0875697
6.65621
-0.149638
-2.0869
-0.439861
2.0869
-0.411636
-4.26699
4.30512
1.90934
-2.46133
-2.22457
-4.89298
1.85192
1.90136
4.3016
-10.1537
-5.93032
-9.88262
7.26575
-6.97443
-9.26985
9.17905
7.65362
-7.7805
-5.78525
5.83159
6.48235
-6.4411
1.87869
1.87479
7.90903
-7.68922
-15.6788
15.2955
7.48343
-7.41138
15.833
-15.8602
-17.8869
17.9464
-5.71412
5.8147
-6.72627
6.72388
-6.94955
6.89366
-3.38537
-3.67695
13.1089
-12.9421
8.30217
-8.27113
-8.52371
8.91739
3.38248
0.922643
3.42915
-1.88226
3.76094
-1.87138
3.78071
2.66003
-6.0454
2.92942
-5.154
3.91578
4.38639
-3.88216
-1.01082
-5.9198
5.94941
-5.82056
5.87895
8.98167
-9.04521
-1.88519
3.75998
-1.86883
3.7702
-3.42514
-2.3601
3.37958
0.922018
8.01005
5.09886
-8.23649
-1.64614
-7.907
7.73812
-8.17598
7.99334
-0.440415
5.82003
-5.37962
4.42334
-1.55803
7.37807
5.70771
5.92224
5.86681
-5.58754
1.10762
-6.48724
-6.39743
-2.51503
2.62446
2.44428
-2.3179
5.99883
1.65478
5.84456
-5.60632
-2.17419
-5.71058
3.82109
2.0105
3.87013
4.07691
2.40544
4.11724
3.03086
-3.03574
0.00487245
-3.05635
6.08722
0.724241
-5.41646
-4.49444
4.94668
2.96235
5.11933
-5.48302
-2.2062
-5.13687
-9.56577
-6.11306
-10.1499
10.1235
5.17197
9.81675
-12.0092
11.8595
4.7698
2.71362
4.80414
-4.91562
-2.49577
-4.82413
11.6606
-2.59157
-9.06904
-10.3444
-7.54252
10.3186
5.51443
10.9608
6.98562
11.0687
4.43346
7.22716
-9.94789
2.40536
-3.86656
-1.84756
-3.7911
3.68654
2.12815
3.79728
-4.21312
-2.51315
-4.19235
-4.28806
-2.66149
4.30257
2.42131
-4.40287
-3.7731
4.50722
2.38644
4.23648
-10.1668
4.49423
-8.17117
-9.20983
-3.73222
-9.05005
3.59173
2.77142
-6.36315
-2.45368
8.6185
-4.2321
7.60767
-5.04808
-3.22304
-5.03563
-6.81596
-1.70775
-6.67049
-8.88807
8.39865
-9.19786
8.54557
12.6204
-5.69804
-6.92237
-3.96825
-2.47285
3.92048
-0.491334
-3.71094
3.71582
0.05
3.83071
4.75336
4.26202
-3.88685
-1.93371
-3.83165
3.8316
2.04736
3.89407
6.76501
2.21666
6.7724
-6.47098
-2.57424
-6.60642
9.07102
-8.66838
2.89193
-2.8578
5.32353
2.66981
-5.13692
-2.77007
6.20222
-3.16737
-3.03485
-12.2077
10.5567
1.65099
-4.82962
-0.406281
-0.165152
-5.49852
-3.77133
5.38389
0.538348
11.095
7.32372
-5.51286
5.76159
6.16492
6.22338
-0.174044
5.83298
-5.15876
5.31954
-2.44927
-2.87027
5.3281
-5.5008
-1.27832
-5.36648
4.08816
0.343759
1.71262
-1.45585
-1.96957
-0.545454
-1.90257
1.4715
0.972778
1.61137
0.955031
1.66943
-2.95602
0.553742
2.40228
-2.00099
-1.76415
-3.6996
-1.06826
4.76785
5.61373
2.12439
-5.52451
-0.186069
2.65785
-2.61435
-0.751096
-2.9485
2.15973
-2.91082
-3.67213
-1.90177
5.5739
-3.37063
-0.461021
3.31764
0.552487
-3.82564
-2.09416
3.78644
0.330797
-3.12523
6.19049
-3.06526
-5.05893
2.52858
3.55864
4.53908
-4.7899
2.44658
2.34331
-1.23126
4.22574
0.893583
4.36086
-6.7812
4.575
5.75176
3.16562
-6.06569
0.928824
-5.85238
8.46769
-7.29479
-1.1729
4.08083
4.38685
7.13644
5.48397
-5.70582
12.8423
-1.16913
-6.12566
7.02151
-3.85589
4.79376
-8.64964
-10.2777
4.15207
-9.21006
10.996
-1.78597
-3.63316
-8.37601
12.8432
-1.21384
-11.6294
8.60292
-4.16673
-4.25721
8.42394
-6.7583
6.75298
-1.94623
-4.80675
-10.1461
-5.71417
10.2336
1.62589
-9.84288
12.2482
-2.61572
4.10084
0.703299
4.09523
3.23519
-5.39649
2.1613
3.52311
-5.46934
2.05572
-7.45221
-6.77595
12.1138
-5.33787
-10.5082
-9.57006
-0.938113
2.50667
9.74158
-9.49229
7.40461
2.08768
3.30886
0.585213
-3.37686
-0.414235
0.254025
4.53168
-4.7857
4.0513
4.20878
3.34065
1.19102
3.84082
2.10859
-3.86761
-0.324747
-4.15537
1.49387
-1.73406
-3.67493
5.16881
-4.06356
0.388628
-2.73667
-3.50972
6.24639
-4.58423
3.03936
3.15112
5.08672
-4.91298
1.40326
-2.39959
-2.51338
2.6603
-4.39436
1.97235
3.19645
4.35879
0.585687
5.96758
6.14624
-8.73901
0.567831
11.2451
-9.59897
2.50126
8.56742
-9.90587
0.335809
-8.71425
1.12712
-5.35922
-5.23603
5.12092
-6.82867
-3.52872
6.15749
0.614905
-6.24011
-0.430388
-6.03751
-2.85056
-6.47737
-3.05727
-6.14059
-8.76309
-1.65139
-7.1117
6.74726
-6.69356
-3.45634
7.42383
1.12173
-7.40902
7.32145
-7.4856
7.16546
0.0948753
3.62094
4.3569
1.88405
-2.38968
4.27373
-5.10129
7.31796
-8.60773
3.50644
4.05922
-6.63345
-4.54851
5.03367
4.03735
5.3361
8.9264
-10.444
1.51755
-10.735
12.0581
-1.32308
-16.51
5.77499
-7.58357
2.59795
0.29398
2.6299
0.619038
2.47512
-3.09416
-2.23876
-2.19772
-2.36385
-3.46044
5.82428
1.16654
-3.45766
2.29111
-3.52003
4.68658
-0.0937914
-3.36387
5.30472
-2.82959
5.5987
-3.61382
1.98487
3.37262
5.72771
-2.35509
4.38342
-1.71361
1.84709
-4.20218
-1.61335
-2.96862
5.09677
-3.27777
3.6664
-0.31107
3.97747
-4.0791
0.911729
-0.738449
3.47033
3.72207
4.28101
-3.08999
2.95601
-4.66962
-1.24617
-4.08393
-0.887482
-0.304954
-3.74517
4.05012
6.03013
-6.33509
-5.26034
9.56534
-4.305
7.71761
-5.40298
-2.31463
-4.27082
-4.39756
3.89269
1.94029
9.6579
0.209172
-5.61215
-4.94959
-3.99614
3.20549
2.11406
-1.91737
3.56836
2.08252
-0.3699
0.542838
1.06853
1.85075
-1.30791
0.235713
1.61504
-1.22013
1.94733
0.710521
-1.9858
0.0832246
-1.3489
3.50863
1.05338
-2.02616
0.718245
1.04827
-3.49754
4.87362
-2.52
-2.35361
5.92189
1.16128
-3.68129
4.20519
-3.86144
2.33743
-3.40569
-1.34386
-5.20529
-3.55051
-2.5731
4.86421
-3.25119
5.37557
1.19208
-5.1895
6.38159
-3.60255
1.70078
-3.08614
3.79666
-1.08402
-2.00211
2.84169
2.73221
-2.96509
0.016589
-0.123395
2.34509
-2.46849
-0.565731
-2.56672
-4.57229
4.90309
-2.10688
4.55346
2.16685
-1.91493
6.46839
1.8109
-3.72583
-3.24804
-3.70906
-1.38251
3.15657
-0.574966
-4.24916
-5.38172
4.14231
0.218545
-6.88936
7.6832
-0.793848
-3.927
-0.647999
4.72883
-5.94324
0.473903
-3.88752
3.79569
4.68927
4.90782
-11.4155
-0.21385
-6.24356
1.1302
-7.37376
5.51705
-3.57227
7.72434
-10.3917
6.93538
-9.26999
6.55144
-0.822323
6.2584
-4.0971
2.81064
-8.52481
-6.89893
5.42811
-2.71448
6.13141
-3.09374
9.22514
-5.70946
5.18996
4.03519
-0.969886
-4.06574
-5.19973
4.22984
-0.00977295
4.08546
4.97388
-2.86529
4.64913
2.25838
-4.65797
-2.13598
-6.49789
1.83992
-3.34677
-1.91708
3.757
3.16964
3.75485
1.24362
-3.34062
7.2641
-8.20221
-1.92622
-3.30981
5.20336
-0.973513
3.37891
-6.68872
-1.98031
4.85098
-0.801938
-4.04905
0.847055
-4.37578
1.65789
-6.03367
5.17078
-5.60117
2.21438
-9.79795
-5.19464
-5.13771
-2.25123
-5.23437
-7.60328
5.35205
-1.82829
5.49316
-8.56909
7.76716
-3.48897
8.84102
-5.42995
-1.04743
5.84158
1.32388
10.1649
0.160616
-4.70913
-1.87295
3.93602
-2.06307
1.33254
-3.58455
0.351467
2.48176
3.44012
-6.56992
-0.0635323
-4.77266
-3.9213
7.95865
5.64404
11.6742
1.23023
9.1511
-1.19244
10.3813
4.14366
4.38107
-3.02112
4.53867
1.029
4.53544
-0.842348
2.82722
1.78755
1.78924
0.825112
2.31946
1.40261
3.23119
0.137028
-2.06069
4.63779
-8.63394
-0.97436
-8.06294
1.11611
5.72621
-4.6101
3.09983
-0.985768
1.03676
0.072954
-1.59139
1.51843
-2.79732
-1.96129
-0.34625
-1.63804
2.35628
1.87059
-2.01003
-0.787287
0.337144
-3.88765
3.06854
-3.05195
-0.319743
6.06184
-2.76373
0.295243
-1.06295
-2.27148
-2.81693
2.73371
6.17715
0.291236
3.11189
5.19433
3.10016
0.234877
3.87977
-5.66575
-3.57244
-5.8796
-0.362543
4.36629
1.75701
7.98457
5.79219
4.81868
-1.87004
-10.0722
6.56107
-2.0224
5.23799
-1.18894
-4.84473
5.00187
2.31609
-5.61677
0.0156081
-4.82912
-6.85152
-0.523031
8.29019
-9.64187
8.59444
5.74388
1.36782
-4.4087
-0.729014
4.23543
0.145642
10.527
-1.12821
-6.81464
7.94285
-4.59801
3.62365
0.828957
2.7394
2.34739
1.36162
-5.45302
-10.0631
-1.93572
-1.56183
-4.28933
0.478523
-2.34911
6.25094
-2.6273
3.93631
5.31556
6.35231
-2.16038
-4.17471
6.46538
-2.52907
3.82325
)
;

boundaryField
{
    wall-4
    {
        type            calculated;
        value           uniform 0;
    }
    velocity-inlet-5
    {
        type            calculated;
        value           uniform -3.75095;
    }
    velocity-inlet-6
    {
        type            calculated;
        value           uniform -5.62643;
    }
    pressure-outlet-7
    {
        type            calculated;
        value           nonuniform List<scalar> 8(3.02953 7.04328 3.79379 9.72007 8.21759 5.01448 6.44975 9.24485);
    }
    wall-8
    {
        type            calculated;
        value           uniform 0;
    }
    frontAndBackPlanes
    {
        type            empty;
        value           nonuniform 0();
    }
}


// ************************************************************************* //
