/*--------------------------------*- C++ -*----------------------------------*\
| =========                 |                                                 |
| \\      /  F ield         | OpenFOAM: The Open Source CFD Toolbox           |
|  \\    /   O peration     | Version:  4.0                                   |
|   \\  /    A nd           | Web:      www.OpenFOAM.org                      |
|    \\/     M anipulation  |                                                 |
\*---------------------------------------------------------------------------*/
FoamFile
{
    version     2.0;
    format      ascii;
    class       surfaceScalarField;
    location    "62";
    object      phi;
}
// * * * * * * * * * * * * * * * * * * * * * * * * * * * * * * * * * * * * * //

dimensions      [0 3 -1 0 0 0 0];

internalField   nonuniform List<scalar> 
1300
(
3.75095
5.62643
-3.32794
3.75095
-7.74949
5.62643
-4.38235
4.38235
-0.459161
0.459161
1.87639
1.87456
-2.6906
2.6906
-2.17315
2.17315
-2.52996
2.52996
-5.24644
5.24644
-5.06926
5.06926
4.6559
-4.6559
-6.2995
6.2995
-0.954413
0.954413
-3.67049
3.67049
3.16963
-3.16963
-2.11948
2.11948
-0.0130935
0.0130935
-0.553479
4.30443
3.19747
3.19747
-2.01333
2.01333
-4.86769
4.86769
6.218
-6.218
5.32259
-5.32259
-1.99465
-2.45055
1.81237
-11.5141
-5.93712
-5.93712
-8.44037
8.44037
-2.81394
2.81249
2.94596
-2.94596
-1.77461
1.77461
-4.34088
-0.0414698
-4.34088
4.35407
0.0282799
4.35407
-0.527156
0.067995
-0.527156
3.97803
-3.97803
0.374158
0.0850035
0.374158
3.06529
-3.06529
-1.87711
3.7535
1.87384
-1.87189
6.17632
-1.87906
3.75362
-6.01625
6.01625
-2.92146
0.230859
-2.92146
2.50019
0.190413
2.50019
-6.84405
6.84405
-2.20653
0.033382
-2.20653
2.1438
0.0293535
2.1438
2.87992
-2.87992
-2.64108
0.111112
-2.64108
2.39609
0.133877
2.39609
0.353513
5.27292
-5.97994
8.79243
-5.27292
0.0264744
5.2083
0.0381377
5.2083
-5.10605
0.0367903
-5.10605
5.01242
0.0568463
5.01242
4.7422
-0.086299
4.7422
-4.774
0.118095
-4.774
-3.36887
-4.05351
-6.45066
0.151163
-6.45066
-1.04197
0.0875608
-1.04197
0.842687
0.111726
0.842687
-3.68325
3.68325
-4.09501
0.424518
-4.09501
3.12401
0.0456227
3.12401
1.86849
1.88246
5.61945
-5.61945
2.44981
-2.09605
-0.0234344
-2.09605
-2.17415
-3.14845
2.17415
-0.0546648
-0.244956
0.231863
-0.244956
3.15942
0.0380576
3.15942
2.23769
0.1584
-2.23769
0.224355
3.27079
-3.27079
1.33979
0.673545
1.33979
-5.56408
5.56408
4.95603
0.0563914
-4.95603
0.0883327
6.15684
0.0611613
6.15684
-6.19956
-0.0184405
-6.19956
2.52956
-4.98011
-2.60965
6.11754
0.181964
-6.11754
0.180419
2.9177
0.0282596
2.9177
-2.91975
2.91975
-2.98454
0.0385806
-2.98454
-2.17362
0.399008
-2.17362
1.47579
0.298816
1.47579
-4.23874
-0.10214
-4.23874
-4.24515
0.150139
4.24515
0.108922
1.1278
-1.1278
-0.636636
0.109479
-0.636636
-4.10196
-0.136782
4.10196
-0.123929
-3.86859
-0.109444
-3.86859
-3.02442
0.0398852
3.02442
0.0408725
3.11285
0.0465682
-3.11285
0.047555
-1.87082
3.75328
-1.88013
3.75397
-5.63574
-0.380509
-5.63574
6.3267
-0.310452
6.3267
3.3106
0.359893
-3.3106
0.389145
2.36295
0.137239
2.36295
-6.80834
-0.0357118
-6.80834
6.82718
0.0168679
6.82718
2.26794
0.0950022
-2.26794
0.0614103
2.11075
0.033047
2.11075
2.89943
-0.0195145
2.89943
-2.87443
-0.00548575
-2.87443
2.79684
-2.79684
2.724
0.0728398
-2.724
0.0829233
-11.133
11.1146
-0.035184
-11.0979
5.17312
5.17312
4.16989
0.572315
4.16989
-4.99216
0.218159
-4.99216
2.68023
-5.28988
3.07761
-6.44649
4.66778
-16.1819
4.30179
-8.35529
6.69138
-6.69138
6.57984
0.111535
-6.57984
0.129182
-1.15595
0.113979
-1.15595
-3.08032
-0.602932
-3.08032
4.32668
-0.643426
4.32668
-3.02822
3.02822
-3.0775
0.0492809
3.0775
0.046507
2.09219
0.0185649
-2.09219
-0.0038617
0.308322
0.0658362
-0.308322
0.0633654
3.48096
-0.210172
3.48096
-3.07425
-0.196536
-3.07425
-1.25239
0.0964371
1.25239
0.0873971
-5.81359
0.249509
-5.81359
-11.1908
0.0929565
-11.1527
-6.1066
-6.1066
2.33377
11.1262
-2.89275
0.0183216
2.89275
0.0249413
2.97518
0.0530381
-2.97518
0.0554378
-2.86067
0.0638343
2.86067
0.059074
-2.54872
0.375098
-2.54872
-1.07296
1.07296
-1.23944
0.16648
1.23944
0.236359
1.399
-0.271202
1.399
0.739964
0.102723
-0.739964
0.103328
-3.77173
-0.0968619
-3.77173
6.56083
-0.234123
6.56083
-2.96063
-0.113619
2.96063
-0.0612003
-0.0333408
11.1479
-5.13978
0.0337252
5.13978
-11.2091
11.2428
-3.2198
0.671083
3.2198
0.95009
5.28521
0.278873
-5.28521
0.293052
6.77615
0.0510372
-6.77615
0.0847689
-2.58768
-0.492639
-2.58768
-5.05306
-0.582677
5.05306
-0.726389
-11.4743
-0.20538
11.6797
-11.4175
6.01897
0.137862
-6.01897
11.3807
-1.02984
-0.0979629
1.02984
0.0431177
1.72618
-0.327173
1.72618
3.67343
-0.192467
-3.67343
-0.0982992
-6.7135
-0.0948446
6.7135
-0.152671
-2.14296
-0.444723
2.14296
-0.416779
-4.2671
4.30516
1.90922
-2.39171
-2.5884
-5.54016
1.85187
1.90141
4.30168
-10.1548
-6.0271
-9.97435
7.26258
-6.96953
-9.24634
9.16004
7.8578
-7.96724
-5.78492
5.83143
6.48279
-6.44192
1.8788
1.87471
7.99318
-7.76232
-15.6142
15.2337
7.50552
-7.47214
15.7707
-15.8065
-17.8535
17.9046
-5.69585
5.80697
-6.73833
6.73285
-6.97219
6.91099
-2.83009
-3.6164
13.1208
-12.9697
8.54181
-8.56524
-8.60171
9.02623
3.38257
0.922583
3.42914
-1.88217
3.76097
-1.87145
3.78068
2.71016
-5.54025
2.57973
-5.16812
4.33034
4.21147
-4.27567
-1.26448
-5.92415
5.95241
-5.81495
5.87403
9.11851
-9.15998
-1.88515
3.75986
-1.86882
3.77024
-3.42502
-2.3599
3.3794
0.922279
8.07574
5.04508
-8.25771
-1.71664
-8.02566
7.83319
-8.22375
8.02722
-0.435547
5.81883
-5.38328
4.43215
-1.56278
7.38161
5.6998
5.91796
5.86593
-5.58705
1.10361
-6.48689
-6.39856
-2.33497
2.44445
2.21989
-2.13488
6.11611
1.74169
5.99218
-5.74438
-2.22286
-5.84124
3.8207
2.01072
3.86999
4.07824
2.40455
4.11812
3.03052
-3.0359
0.00537609
-3.05658
6.0871
0.723957
-5.41647
-4.49419
4.97099
3.02218
5.16141
-5.54374
-2.21858
-5.15459
-9.54187
-6.0723
-10.1245
10.0877
5.14593
9.77728
-11.9615
11.8088
4.79089
2.71463
4.82025
-4.91807
-2.55407
-4.85666
11.6423
-2.62422
-9.01811
-10.3214
-7.53212
10.3046
5.46618
10.9652
6.93941
11.0499
4.42516
7.21716
-9.89134
2.35923
-3.86293
-1.83293
-3.78
3.66352
2.14344
3.7974
-4.21688
-2.52145
-4.19856
-4.29472
-2.67747
4.31424
2.41861
-4.41528
-3.80847
4.5289
2.38209
4.0403
-10.0674
4.315
-7.93139
-9.20001
-3.76965
-9.07083
3.50437
2.60411
-6.10848
-2.03587
8.46848
-4.25701
7.204
-5.17124
-3.39401
-5.1751
-6.87429
-1.72742
-6.72415
-8.88006
8.38742
-9.17733
8.5339
12.5306
-5.65443
-6.87613
-3.9684
-2.47351
3.92085
-0.491706
-3.71057
3.71595
0.0503994
3.83108
4.75366
4.26195
-3.88475
-1.9302
-3.82931
3.82578
2.04825
3.88962
6.8307
2.28781
6.85898
-6.59088
-2.5691
-6.69302
9.04327
-8.64426
2.84667
-2.75023
5.38908
2.63814
-5.17891
-2.84675
6.21391
-3.21674
-2.99717
-12.199
10.5316
1.66743
-4.81741
-0.385265
-0.372171
-5.48982
-3.75652
5.37173
0.546237
11.0778
7.32131
-5.51214
5.76165
6.16757
6.22396
-0.174598
5.81043
-5.13935
5.26643
-2.56872
-2.69771
5.45163
-5.58841
-1.24139
-5.49852
4.25712
0.403774
1.53276
-1.3009
-1.82213
-0.512839
-1.7188
1.31717
0.902717
1.38301
0.934375
1.51007
-2.95495
0.556814
2.39814
-2.02058
-1.57807
-3.78759
-1.13808
4.92567
5.72308
2.11011
-5.62478
-0.216463
2.56423
-2.45251
-0.756479
-3.03111
2.24091
-2.99738
-3.67359
-2.04838
5.72196
-3.3699
-0.459408
3.31687
0.553119
-3.82699
-2.09715
3.78841
0.329709
-3.12751
6.19056
-3.06305
-5.05771
2.52776
3.55934
4.53848
-4.78954
2.44743
2.34211
-1.23019
4.24525
0.91616
4.38249
-6.92955
4.71097
5.79265
3.23358
-6.15255
0.997952
-5.9316
8.54102
-7.36988
-1.17114
4.14046
4.40057
7.07318
5.45738
-5.67685
12.75
-1.20182
-6.16806
7.13342
-3.89984
4.84879
-8.74863
-10.3062
4.13811
-9.14818
10.9268
-1.77857
-3.62452
-8.33694
12.7727
-1.20622
-11.5665
8.57106
-4.24798
-4.32957
8.57755
-6.8722
6.88364
-1.99133
-4.89231
-10.1079
-5.69854
10.2028
1.60603
-9.89305
12.2523
-2.67589
4.10423
0.716022
4.13727
3.29109
-5.47495
2.18386
3.58111
-5.57244
2.08523
-7.56018
-6.73351
12.0663
-5.33274
-10.5032
-9.5211
-0.982066
2.53477
9.71751
-9.47418
7.43044
2.04373
3.30114
0.588476
-3.37398
-0.406025
0.240669
4.52662
-4.76729
4.03807
4.19647
3.28465
1.24197
3.84488
2.10752
-3.86982
-0.328734
-4.16262
1.48515
-1.74401
-3.69301
5.17816
-4.06658
0.373567
-2.74798
-3.49936
6.24734
-4.58091
3.03599
3.15457
5.08424
-4.91322
1.41385
-2.39309
-2.52012
2.65272
-4.39673
1.99028
3.18788
4.37237
0.563896
5.87505
6.1912
-8.47915
0.547761
11.2363
-9.51964
2.46707
8.58287
-9.89752
0.37642
-8.69441
0.992907
-5.24992
-5.11557
5.18931
-6.91673
-3.55932
6.20749
0.65149
-6.31641
-0.407742
-6.03512
-2.84495
-6.47984
-3.04478
-6.13255
-8.72163
-1.65194
-7.06969
6.73548
-6.68217
-3.44238
7.40856
1.12534
-7.41056
7.3126
-7.48883
7.16166
0.0953283
3.62062
4.35728
1.88377
-2.39042
4.27419
-5.11687
7.40467
-8.69915
3.58228
4.17977
-6.74887
-4.51938
5.02387
4.0194
5.32268
8.88985
-10.3626
1.47277
-10.6621
11.9948
-1.33267
-16.4247
5.76252
-7.53481
2.45798
0.388688
2.57196
0.550196
2.49945
-3.04965
-2.20003
-2.11264
-2.42897
-3.46512
5.89409
1.10483
-3.51899
2.41417
-3.57057
4.6754
-0.196244
-3.32275
5.28156
-2.78211
5.67024
-3.76681
1.90343
3.4318
5.75172
-2.31991
4.39403
-1.75589
1.91784
-4.23775
-1.54728
-2.9635
5.10695
-3.28384
3.65741
-0.339657
3.99707
-4.05666
0.839925
-0.77201
3.42446
3.64881
4.31188
-3.06991
2.92304
-4.67893
-1.31471
-4.11504
-0.927154
-0.26618
-3.70933
3.9755
5.98837
-6.25455
-5.23688
9.53159
-4.29471
7.69561
-5.3838
-2.31181
-4.25481
-4.38946
3.87971
1.93073
9.62633
0.209334
-5.59314
-4.93002
-3.97993
3.1217
2.14473
-1.78177
3.4492
2.15394
-0.621179
0.446757
0.936248
1.78843
-1.34167
0.301282
1.48714
-0.999614
1.77076
0.793476
-1.87348
0.154676
-1.30494
3.54585
1.0932
-1.99591
0.654246
0.986919
-3.55564
5.02028
-2.65998
-2.3603
6.0072
1.14106
-3.80104
4.35746
-3.95368
2.37607
-3.51414
-1.42498
-5.37866
-3.63697
-2.52802
4.94218
-3.36607
5.47618
1.2686
-5.25972
6.52832
-3.71816
1.66978
-3.06768
3.86115
-0.957236
-2.11044
2.89827
2.82369
-3.05308
0.0219693
-0.154811
2.40417
-2.55898
-0.593218
-2.6138
-4.57322
4.90293
-2.10552
4.55295
2.16867
-1.91659
6.46954
1.80923
-3.72582
-3.24848
-3.70788
-1.38371
3.15477
-0.600321
-4.25634
-5.49263
4.16134
0.221148
-7.03284
7.84254
-0.809694
-4.01066
-0.700311
4.84077
-6.0569
0.484459
-3.97167
3.87086
4.78702
5.00817
-11.3497
-0.216776
-6.20378
1.12389
-7.32766
5.52445
-3.5421
7.68022
-10.3333
6.89089
-9.20793
6.50908
-0.818589
6.25222
-4.06836
2.76588
-8.46443
-6.85839
5.48534
-2.77071
6.20136
-3.13095
9.33231
-5.80684
5.2716
4.06071
-1.01362
-4.16148
-5.26596
4.25234
0.00564149
4.14291
4.97978
-2.87225
4.65104
2.26714
-4.66024
-2.12959
-6.49458
1.83434
-3.34001
-1.92027
3.75461
3.16397
3.75245
1.23449
-3.34642
7.18549
-8.16755
-1.85275
-3.26282
5.25085
-0.998511
3.39307
-6.6559
-1.85684
4.80207
-0.784177
-4.01789
0.852367
-4.41169
1.67012
-6.08181
5.24661
-5.65435
2.2219
-9.75671
-5.18866
-5.14555
-2.25882
-5.23001
-7.57391
5.31509
-1.81139
5.50121
-8.51183
7.72765
-3.48297
8.79806
-5.42919
-1.05065
5.84597
1.31569
10.1137
0.208629
-4.72801
-1.90915
3.86485
-1.9557
1.21256
-3.5007
0.364149
2.48864
3.51856
-6.74576
-0.00310419
-4.73111
-3.91782
7.93722
5.61376
11.6021
1.23951
9.11936
-1.18213
10.3589
4.14055
4.37691
-2.99368
4.46645
0.981823
4.56411
-0.916566
2.82
1.65539
1.74295
0.709556
2.30433
1.34449
3.14425
0.0946042
-2.01803
4.62314
-8.60307
-0.969992
-8.03076
1.12929
5.71037
-4.58108
2.97618
-0.831456
1.02048
-0.0694044
-1.30868
1.37808
-2.76712
-1.92986
-0.442712
-1.68225
2.3365
1.8636
-1.89378
-0.873333
0.359309
-3.99628
3.15483
-3.13287
-0.309172
6.21914
-2.81838
0.259408
-1.1486
-2.35439
-2.86723
2.71255
6.17602
0.29352
3.11297
5.19645
3.0993
0.227046
3.89761
-5.67619
-3.66256
-5.89296
-0.368509
4.47226
1.75064
7.96688
5.81135
4.81284
-1.84306
-10.0106
6.52407
-2.05762
5.1914
-1.17351
-4.9083
5.04237
2.3623
-5.69386
0.0395139
-4.86879
-6.92641
-0.513652
8.24131
-9.6001
8.54945
5.70451
1.36518
-4.40645
-0.739097
4.23997
0.13694
10.4958
-1.12811
-6.73605
7.86415
-4.58226
3.61227
0.762729
2.68647
2.14081
1.30935
-5.42669
-10.0078
-2.034
-1.52164
-4.39429
0.531375
-2.39497
6.22629
-2.61401
3.91448
5.25014
6.27062
-2.13559
-4.11895
6.4303
-2.51582
3.7548
)
;

boundaryField
{
    wall-4
    {
        type            calculated;
        value           uniform 0;
    }
    velocity-inlet-5
    {
        type            calculated;
        value           uniform -3.75095;
    }
    velocity-inlet-6
    {
        type            calculated;
        value           uniform -5.62643;
    }
    pressure-outlet-7
    {
        type            calculated;
        value           nonuniform List<scalar> 8(3.32794 7.74949 4.44521 9.70172 7.42238 5.13921 5.75784 8.96957);
    }
    wall-8
    {
        type            calculated;
        value           uniform 0;
    }
    frontAndBackPlanes
    {
        type            empty;
        value           nonuniform 0();
    }
}


// ************************************************************************* //
