/*--------------------------------*- C++ -*----------------------------------*\
| =========                 |                                                 |
| \\      /  F ield         | OpenFOAM: The Open Source CFD Toolbox           |
|  \\    /   O peration     | Version:  4.0                                   |
|   \\  /    A nd           | Web:      www.OpenFOAM.org                      |
|    \\/     M anipulation  |                                                 |
\*---------------------------------------------------------------------------*/
FoamFile
{
    version     2.0;
    format      ascii;
    class       volVectorField;
    location    "62";
    object      U;
}
// * * * * * * * * * * * * * * * * * * * * * * * * * * * * * * * * * * * * * //

dimensions      [0 1 -1 0 0 0 0];

internalField   nonuniform List<vector> 
918
(
(0.985161 -0.000506659 0)
(0.00501481 2.96625 0)
(0.00896515 0.889257 0)
(0.979704 0.00214609 0)
(-0.011707 2.0606 3.7832e-20)
(-0.00704899 2.9488 -2.46647e-18)
(0.818697 1.16145 4.48006e-19)
(0.13888 0.0783477 -1.49172e-20)
(0.999909 -0.000277497 0)
(0.062053 0.733412 0)
(0.013975 0.524728 0)
(0.73564 -0.0146971 0)
(0.0111257 2.93037 0)
(0.00253653 2.79523 0)
(-0.0178372 3.14964 7.80407e-19)
(-0.0220394 1.91178 8.22856e-21)
(0.28024 0.0452096 1.01797e-18)
(0.18839 1.13851 3.17275e-19)
(0.962732 0.00501779 0)
(0.00802578 0.493022 0)
(-0.0116944 0.105111 -7.02806e-19)
(1.00197 -0.00497605 0)
(1.00022 -0.0097855 0)
(0.975737 -0.00643899 0)
(0.598805 0.013873 0)
(0.0152996 2.64096 0)
(-0.0149055 2.91003 9.07147e-19)
(0.0103104 0.938598 0)
(-0.0157516 1.18054 0)
(0.0125815 0.921027 0)
(-0.0138508 2.59573 0)
(-0.000718523 2.11478 -3.02136e-20)
(-0.0110885 1.89136 0)
(-0.020598 2.98761 -8.86502e-23)
(-0.0166838 3.00529 1.91677e-18)
(0.00209839 3.00017 0)
(0.871304 -0.00964801 0)
(0.402966 0.933738 1.79731e-19)
(0.803219 1.17604 -5.10841e-19)
(0.955115 1.02063 5.54602e-19)
(0.672253 1.26779 -1.03712e-19)
(0.673497 1.24235 5.97699e-19)
(0.177475 0.133573 1.45532e-20)
(0.15764 0.0571276 0)
(1.15646 0.561293 0)
(0.152296 0.118344 6.63388e-20)
(0.115615 0.0724975 -6.88353e-20)
(0.919891 -0.00745573 0)
(1.00027 0.000160388 0)
(0.999909 0.00033823 0)
(1.00363 -0.00776093 0)
(1.00096 -0.00092052 0)
(1.00017 3.58738e-05 0)
(0.073395 1.82585 -7.72641e-19)
(0.0286057 0.946067 0)
(0.0983147 0.809214 0)
(0.00888287 0.901016 0)
(0.0361179 0.660259 0)
(0.00625442 2.01171 0)
(-0.00112135 0.814624 0)
(0.0118547 0.541205 0)
(-0.00330034 0.806607 0)
(0.00793556 0.515324 0)
(0.841408 -0.0157298 0)
(0.838992 0.0329844 0)
(0.766712 -0.00905292 0)
(0.803435 0.0372902 0)
(0.701784 -0.00234173 0)
(0.0146828 3.00041 9.14227e-19)
(0.0114854 3.00809 0)
(0.0061025 3.00274 0)
(0.0135436 2.99738 1.03705e-23)
(0.00795786 2.95847 -1.35877e-18)
(0.0145057 2.98202 0)
(0.0108943 2.90354 0)
(0.0241761 2.93076 2.07959e-24)
(0.00473779 2.82522 0)
(0.0305011 2.91666 0)
(-0.00462165 2.74536 0)
(0.305551 3.54302 0)
(-0.131611 3.62377 0)
(0.137923 3.23978 -7.26241e-19)
(-0.013627 2.97792 0)
(-0.0255525 1.98659 0)
(-0.00714776 2.16666 -8.11578e-21)
(-0.0161119 1.9198 1.80529e-21)
(0.354179 0.145069 -3.53459e-19)
(0.30913 0.0265546 -3.4325e-19)
(0.311786 0.151408 -1.05817e-18)
(0.244058 0.0533461 -6.88926e-19)
(0.228924 0.982094 0)
(0.272145 1.28949 -3.67953e-19)
(0.365742 1.22559 6.13797e-19)
(0.98744 0.00856983 0)
(0.941868 0.00582923 0)
(1.0003 0.000580486 0)
(1.00286 0.00930881 0)
(1.00301 0.00847017 -2.74294e-18)
(0.991909 0.009696 2.07137e-18)
(-0.00790134 0.79398 0)
(0.00768618 0.502793 0)
(-0.0427329 1.00707 0)
(-0.021773 0.835006 0)
(0.00651866 0.492074 0)
(-0.00779366 0.118107 2.16889e-19)
(0.0761519 0.0865539 0)
(0.993552 -0.00837178 0)
(0.95446 -0.00653002 0)
(0.74564 0.0335219 0)
(0.680188 0.0284044 0)
(0.663738 0.00720315 0)
(0.970119 -0.00749741 0)
(0.597091 0.0724338 0)
(0.44811 -0.0108071 1.53987e-18)
(-0.037227 2.8617 6.69686e-19)
(0.0409567 2.90999 0)
(0.0536449 2.8862 0)
(-0.00434677 2.70053 0)
(-0.0130863 2.98522 8.58606e-19)
(-0.0178398 2.89507 0)
(-0.0153971 2.98804 -2.66297e-18)
(-0.0132726 2.92519 9.11859e-19)
(-0.0258408 1.34434 0)
(-0.00211975 1.37334 0)
(-0.00728881 2.13152 4.81341e-22)
(-0.00610948 2.09345 0)
(-0.0239223 1.89898 0)
(0.938554 -0.00740965 0)
(0.857416 -0.00996425 0)
(0.863267 0.00571544 0)
(0.949569 -0.00782995 0)
(0.88403 -0.00818616 0)
(0.514478 1.12675 -2.26994e-19)
(0.563637 1.17782 0)
(0.367563 0.878671 3.3574e-20)
(0.310149 0.737354 0)
(0.915405 1.05878 -1.5284e-19)
(1.03266 0.867723 3.0988e-19)
(0.358847 1.35194 0)
(0.524785 1.32386 0)
(0.547742 1.2622 0)
(0.120781 0.184783 -3.02094e-19)
(0.200331 0.132926 0)
(0.186876 0.0731285 1.9206e-19)
(1.00375 0.922425 0)
(1.07724 0.776353 0)
(1.1023 0.717808 -2.45457e-19)
(1.13588 0.620801 0)
(1.18668 0.404859 5.69966e-20)
(0.957742 -0.00871195 0)
(0.962504 -0.01004 0)
(0.901737 -0.00798054 0)
(0.984201 -0.00914818 0)
(0.974706 -0.00933612 0)
(0.937131 -0.00637172 0)
(1.00019 0.00233923 0)
(1.0009 0.00141367 0)
(0.99991 0.0008546 0)
(0.0354318 2.07383 4.28239e-19)
(0.118956 1.76875 0)
(0.0178594 2.18794 6.58048e-19)
(0.0462076 1.87974 -5.48775e-19)
(0.10564 1.14527 -2.59868e-19)
(0.0479059 1.02509 0)
(0.14298 0.973793 0)
(0.0017387 0.861332 0)
(0.0158789 0.607418 0)
(-0.00133611 2.2418 -8.36274e-22)
(0.0156277 2.01658 0)
(-0.00212377 2.24376 -3.07207e-20)
(0.00757085 2.02049 4.83274e-20)
(-1.81644e-05 0.837747 0)
(-0.000287159 0.82297 0)
(0.00908703 0.570184 0)
(-0.00298563 0.797785 0)
(0.0026833 0.506605 0)
(0.938218 0.00973581 0)
(0.849869 -0.0146854 0)
(0.927447 0.000386288 0)
(0.842381 -0.0129165 0)
(0.812272 -0.0017522 0)
(0.899044 0.0220682 0)
(0.872502 0.0278532 0)
(0.788636 -0.00552554 0)
(0.00558215 3.06472 -8.52091e-21)
(0.0166965 3.0578 0)
(0.0146574 2.96901 0)
(0.00862795 2.87617 0)
(0.921247 3.95601 0)
(1.23469 3.28951 9.2729e-19)
(0.0690415 3.07026 0)
(-0.0292676 2.90306 0)
(-0.00815492 1.39419 0)
(-0.0306422 1.69459 0)
(-0.0172782 1.52884 0)
(-0.0300793 2.55378 -7.95291e-21)
(-0.0137979 2.24406 0)
(-0.019658 2.39206 0)
(-0.00188274 1.94654 8.84363e-22)
(-0.00353306 2.23927 -5.9603e-21)
(-0.00542618 2.2016 -1.9978e-21)
(-0.00985492 1.93214 0)
(0.405565 0.125526 5.39201e-19)
(0.35728 0.0153772 -5.29126e-19)
(0.25901 1.58514 0)
(0.277136 0.755147 -3.15684e-19)
(0.17714 1.67239 -1.04889e-18)
(0.226089 1.21915 1.05121e-18)
(0.902028 0.0063745 0)
(0.967402 0.0111253 0)
(0.974548 0.0108096 0)
(0.923308 0.00641704 0)
(-0.00888883 0.793938 0)
(-0.00888241 0.792518 0)
(0.00599589 0.497636 0)
(0.136052 0.106573 6.14375e-19)
(0.118108 0.0962646 -7.25603e-19)
(0.0965518 0.0731329 0)
(1.09776 0.0858808 2.71144e-20)
(1.07986 0.039257 0)
(1.01238 0.039839 0)
(0.906668 -0.00565471 0)
(0.455852 0.10544 0)
(0.515341 0.0869202 -2.46026e-18)
(0.402225 0.0106043 9.19827e-19)
(0.00870269 2.98055 7.18756e-19)
(-0.0331234 2.86508 4.609e-20)
(0.00363994 3.05023 -1.80423e-20)
(0.0202223 3.04337 6.42093e-19)
(-0.015006 2.99657 2.99482e-20)
(-0.0129617 2.94949 -1.20491e-22)
(-0.0172639 3.01191 -5.54313e-19)
(0.0148946 3.0237 4.01187e-19)
(0.00739719 3.03684 -6.35572e-19)
(0.933909 -0.00123351 0)
(0.939409 -0.00322145 0)
(0.845879 -0.00946076 0)
(0.956534 0.0119088 0)
(0.942665 0.0132455 0)
(0.881583 0.00585897 0)
(0.916741 0.0174574 0)
(0.925842 0.0150744 0)
(0.838515 0.00223266 0)
(0.716963 1.40404 4.10657e-20)
(0.750272 1.51276 0)
(0.181787 0.315805 7.05568e-20)
(0.228081 0.668607 5.68107e-19)
(0.262313 0.720646 -3.3185e-19)
(0.26336 0.522209 6.6019e-19)
(0.345675 0.810329 1.59002e-18)
(0.140166 0.229851 3.75479e-19)
(0.270441 0.153806 7.29554e-19)
(0.232963 0.148575 1.89179e-19)
(0.213815 0.0646538 3.58865e-19)
(1.17579 0.462957 6.14129e-20)
(1.1917 0.256276 5.6752e-20)
(0.00997915 2.23654 2.53469e-19)
(0.040381 1.94749 0)
(0.970186 0.0292397 0)
(0.943027 0.0138281 0)
(0.868626 -0.0179681 0)
(0.0112917 3.07435 0)
(0.0196475 2.94398 1.1744e-18)
(0.0164323 2.95631 0)
(0.00638169 2.85062 -1.16511e-18)
(0.0062373 3.09075 2.84853e-19)
(0.00724547 3.08257 0)
(0.783085 1.81441 -1.59242e-19)
(1.24252 2.4903 4.04931e-19)
(0.765108 1.9538 -1.23105e-18)
(0.0198059 2.98066 -6.19135e-19)
(0.0352602 2.99977 0)
(-0.034268 2.8772 0)
(-0.00422496 2.22281 -1.31308e-20)
(-0.00318025 2.24388 8.12724e-21)
(0.000830994 1.98189 -7.27862e-21)
(0.278154 1.39414 1.02496e-18)
(0.238098 0.549104 -7.02812e-19)
(0.0637505 1.99841 7.63005e-19)
(0.135373 1.88457 -9.10682e-19)
(0.180309 1.51112 9.49416e-20)
(0.0016439 3.11896 -1.77459e-18)
(0.0154286 3.11825 1.90706e-18)
(-0.00906548 2.98117 7.88266e-19)
(-0.00382305 2.97747 -7.44339e-19)
(-0.0209775 2.88109 -8.0283e-19)
(0.0086337 3.10001 -2.11819e-18)
(0.00235991 3.10582 2.07299e-18)
(0.281699 0.694884 0)
(0.248278 0.684083 -1.18052e-18)
(0.0958811 0.225275 5.24166e-19)
(0.357368 0.93719 1.11228e-18)
(0.195255 0.275711 -1.71485e-18)
(1.18382 0.17453 6.33512e-20)
(1.19215 0.310822 0)
(1.17218 0.122373 -7.00842e-21)
(0.00115173 2.25418 -1.47997e-21)
(0.00458999 2.2459 0)
(0.0245599 1.98267 0)
(0.340115 1.30297 -3.68071e-19)
(0.374454 1.1491 -7.99874e-19)
(0.209834 0.377426 1.426e-18)
(1.00588 -0.0108334 0)
(1.00767 -0.00763656 5.06026e-19)
(-0.0213868 1.32477 0)
(-0.036887 1.3225 0)
(1.00221 0.00351191 1.81012e-21)
(1.00366 0.00946602 1.03316e-18)
(-0.0182168 2.53825 1.00773e-20)
(-0.023767 2.58099 0)
(0.034484 3.17727 4.09283e-19)
(0.391231 3.4847 0)
(1.17301 0.661732 -5.83672e-20)
(1.01286 0.0131322 -2.13719e-21)
(1.02133 -0.0103005 0)
(1.0017 0.000127562 7.82791e-23)
(0.110221 1.36665 0)
(0.144146 2.57087 0)
(0.0250754 1.30785 0)
(-0.000808064 2.62296 2.8716e-20)
(-0.0218948 2.58005 4.53192e-21)
(0.998859 0.0265687 1.71261e-21)
(1.06298 0.00458932 0)
(1.09738 0.0249795 0)
(-0.0291143 1.73723 0)
(-0.0187423 2.58142 0)
(-0.00486397 1.30874 0)
(0.312778 1.47989 -1.68775e-19)
(1.0113 -0.00962061 0)
(1.0094 -0.0149178 0)
(1.00237 0.000750603 6.46705e-19)
(1.00547 -0.00480263 -7.60067e-19)
(1.00118 -0.000973638 0)
(-0.0140899 1.46058 0)
(-0.00689824 1.37224 0)
(-0.00744976 1.41821 0)
(-0.00858194 1.29663 0)
(-0.0175203 1.28426 0)
(-0.00925028 1.26605 0)
(1.03499 -0.00607136 0)
(1.01977 0.015616 -8.33158e-22)
(0.820408 1.27324 2.59504e-19)
(1.00223 0.000317689 -6.44126e-19)
(1.00406 0.0052583 7.54189e-19)
(1.00118 0.0020734 0)
(1.01274 0.0103529 6.41097e-19)
(1.00799 0.00831065 -7.76789e-19)
(1.00856 0.0146947 0)
(-0.0238406 2.60934 0)
(-0.0255934 2.58869 -1.79814e-20)
(-0.0230879 2.60286 1.28355e-20)
(1.23662 0.266938 5.82418e-19)
(1.16172 0.0867294 0)
(0.0411265 3.07783 -9.15513e-19)
(0.0648313 2.85617 -6.66022e-20)
(0.138538 3.19243 1.39732e-18)
(0.13383 3.22026 -1.98248e-19)
(0.132828 3.23118 0)
(0.0199496 3.13744 2.3625e-19)
(0.074837 3.16011 9.02941e-19)
(0.0675781 3.18539 -4.45311e-19)
(0.0224862 3.12983 0)
(0.595273 0.280009 0)
(0.522926 0.302328 0)
(1.14397 0.697787 1.33686e-19)
(1.13825 0.819217 -1.18594e-19)
(1.2009 0.584546 0)
(1.22884 0.519275 0)
(1.01605 0.0133679 -1.19501e-18)
(1.01498 0.0142777 1.50009e-18)
(1.02536 -0.00981946 0)
(1.02343 -0.0118605 0)
(1.00642 0.00262105 0)
(1.01041 0.00373494 0)
(1.00458 0.00186095 0)
(1.00979 0.00624317 0)
(1.00781 0.00596353 0)
(1.00451 0.00471337 0)
(0.0990413 1.3647 0)
(0.0937813 1.32881 0)
(0.132058 1.40342 0)
(0.149576 1.40755 0)
(0.145754 2.5958 0)
(0.185542 2.66565 -4.23651e-19)
(0.101578 2.65139 0)
(0.0852689 2.65426 1.9796e-19)
(0.0384635 2.67721 -1.48905e-19)
(0.0158707 1.31967 0)
(0.0217339 1.24428 0)
(0.0187846 1.32914 0)
(0.0335029 1.26733 0)
(0.0031494 1.98426 2.4161e-21)
(-0.0206591 2.60782 -1.75947e-20)
(-0.00893512 2.66436 1.43591e-20)
(-0.0188719 2.68321 0)
(-0.0234745 2.61366 -7.07466e-21)
(-0.0236372 2.60851 1.17012e-20)
(0.0120135 1.98276 9.50131e-22)
(-0.00744971 2.39587 2.36063e-20)
(-0.0135954 2.41786 -1.62848e-20)
(1.00901 0.0384582 1.21007e-18)
(1.00538 0.0166861 -1.5099e-18)
(1.00322 0.0457196 -1.23369e-18)
(0.976671 0.0339587 1.55169e-18)
(1.06421 0.00839666 0)
(1.04935 -0.00827728 0)
(1.09436 0.0351327 0)
(1.07432 0.012942 0)
(1.07215 0.000514452 0)
(1.14032 0.0830179 0)
(1.11178 0.044559 0)
(1.11547 0.0324521 0)
(-0.0255712 2.43092 9.23465e-22)
(-0.0142023 2.01199 0)
(-0.0168184 2.21538 0)
(-0.0206136 2.60213 -1.03366e-20)
(-0.0178306 2.61209 1.68064e-22)
(0.00297756 1.57157 -3.46141e-20)
(-0.00560442 1.50004 3.52593e-20)
(-0.0148297 1.38902 0)
(-0.0184195 1.39565 0)
(-0.0234192 1.39039 0)
(-0.00311626 1.30976 0)
(0.00841165 1.23678 0)
(0.387124 1.4975 2.74562e-19)
(0.430091 1.4984 1.44842e-19)
(0.597639 2.44517 -2.40266e-19)
(0.398724 2.54236 7.0726e-19)
(0.350108 2.05451 7.14601e-20)
(1.02106 -0.00811767 0)
(1.0155 -0.00974963 0)
(1.01492 -0.0155038 0)
(1.00741 -0.00108462 0)
(1.00493 -0.00091247 0)
(1.00778 -0.00469452 0)
(1.00927 -0.00361797 0)
(1.01422 -0.00438002 0)
(1.02053 0.0163152 1.17072e-18)
(1.01769 0.0155556 -1.49708e-18)
(1.02081 0.0183286 -1.17957e-18)
(1.0184 0.0162889 1.47983e-18)
(0.783969 1.32443 0)
(0.720645 1.3745 2.45883e-19)
(0.895342 1.22363 9.68126e-20)
(0.941064 1.16849 -1.28805e-19)
(1.15478 2.60034 2.76854e-19)
(0.771329 0.122624 5.98791e-19)
(1.16339 0.108742 0)
(1.21206 0.194179 -4.68603e-19)
(1.19911 0.15513 -1.99285e-20)
(1.00636 0.156439 0)
(0.129808 2.95894 5.32535e-19)
(0.106328 2.86496 -1.15853e-18)
(0.0153621 2.37352 7.75312e-19)
(0.0941532 -0.140272 -3.33208e-19)
(0.336093 3.41466 -2.15029e-19)
(0.190911 3.30923 0)
(0.234704 3.34989 2.80044e-19)
(0.24015 3.03133 -1.77824e-18)
(0.333734 3.1896 0)
(0.00641179 3.12105 4.60733e-20)
(0.0158187 3.12987 -5.43899e-19)
(0.0145734 3.12594 8.00513e-19)
(0.0350776 3.13998 0)
(0.0335437 3.15031 0)
(1.2107 2.59814 0)
(0.544466 0.808432 -5.28291e-19)
(1.06458 0.992488 -7.20267e-21)
(0.998975 1.07743 0)
(0.852047 0.973477 -1.10265e-19)
(1.08968 0.893567 2.80022e-20)
(0.318858 0.342656 -8.60796e-19)
(0.662174 0.322346 -1.76722e-20)
(0.573498 0.222432 4.09098e-19)
(0.549797 0.339005 3.01418e-20)
(0.442122 0.282305 -1.21142e-18)
(0.624143 0.32426 0)
(0.706107 0.420994 6.97231e-19)
(0.71043 0.42399 0)
(0.587437 0.339373 0)
(0.522593 0.248174 0)
(0.822828 0.622353 4.12418e-19)
(1.23764 0.289208 -4.90446e-19)
(1.2374 0.427618 0)
(1.24592 0.368437 0)
(0.693966 0.195338 6.19841e-19)
(0.870695 0.551162 -3.78185e-19)
(0.767899 0.521796 6.72314e-19)
(0.961498 0.443857 -7.38913e-19)
(1.01926 0.0149375 8.02734e-19)
(1.0176 0.0143401 -8.08055e-19)
(1.0159 0.0153976 0)
(1.03646 -0.00561219 0)
(1.02989 -0.00838389 -7.56886e-19)
(1.02793 -0.0119679 7.49361e-19)
(1.02487 0.0104616 0)
(1.02338 0.0141996 0)
(1.01141 0.00415015 0)
(1.0142 0.00914193 0)
(1.01515 0.00415518 0)
(1.01426 0.00288064 0)
(0.0659564 1.34771 0)
(0.0698806 1.29549 0)
(0.147778 1.38564 1.1881e-20)
(0.282907 1.47833 9.04144e-20)
(0.177822 1.4495 1.90762e-19)
(0.210933 1.45431 -3.10685e-19)
(0.173846 1.41009 0)
(0.136982 1.60002 -7.14964e-20)
(0.119392 1.57831 0)
(0.346838 2.00459 -1.03903e-19)
(0.34259 2.3401 6.15046e-19)
(0.194315 1.46347 6.23222e-20)
(0.269089 1.39595 2.37351e-20)
(0.202946 1.38824 -1.91922e-20)
(0.279141 1.33886 -1.02757e-19)
(0.244038 1.5803 0)
(0.268018 1.61745 1.12074e-19)
(0.030982 2.26186 -2.87038e-20)
(0.043583 2.66641 0)
(0.0666596 2.39807 1.34305e-19)
(0.0632645 2.41894 0)
(0.0695691 2.6679 -2.19376e-19)
(0.0490444 2.69645 0)
(0.0262841 1.4306 3.10306e-20)
(0.034245 1.48272 0)
(0.028192 1.39826 0)
(0.0230475 1.40252 -3.50138e-20)
(1.89501e-05 2.6506 -1.72753e-20)
(0.029457 2.69579 1.67141e-19)
(0.0099395 2.72074 1.18012e-21)
(0.00293628 1.835 -1.80827e-21)
(-0.00270685 1.68797 -2.84354e-21)
(0.0134382 1.29965 0)
(0.0215003 1.22194 0)
(0.0468725 1.59083 -2.69122e-20)
(0.0303796 1.46439 -3.30975e-20)
(0.0363727 1.52906 4.13458e-20)
(0.0402947 1.61501 0)
(-0.0293682 2.27026 9.4385e-20)
(-0.0304312 2.54915 -3.96734e-20)
(-0.0161473 2.4466 3.66992e-21)
(-0.00349168 1.85117 2.19081e-21)
(-0.0254431 2.49862 1.54051e-21)
(-0.0206404 2.44211 2.17344e-21)
(1.01862 0.0212178 -8.03993e-19)
(1.01416 0.0276205 8.02795e-19)
(1.01342 0.0174492 0)
(1.01139 0.0711586 1.12531e-18)
(0.991697 0.058797 -1.26234e-18)
(0.950367 0.0548552 1.41106e-18)
(1.01395 0.112454 -1.50321e-19)
(1.04288 -0.00561009 0)
(1.05126 -0.0012482 7.21854e-19)
(1.03916 -0.00978179 -7.23344e-19)
(1.07169 0.0427456 -4.29236e-20)
(1.06485 0.02408 3.70138e-19)
(1.06345 0.0569243 0)
(1.05375 0.0502674 -1.33114e-19)
(1.03257 0.0432849 0)
(1.02572 0.0398266 0)
(1.02783 0.0135544 0)
(1.02382 0.016198 0)
(1.04024 0.0328472 2.74219e-19)
(1.03908 0.0277834 -6.06417e-19)
(1.05117 0.0345011 -2.9058e-19)
(1.04833 0.034551 -3.20121e-19)
(1.07149 0.0651744 6.24323e-19)
(1.09697 0.0528472 0)
(1.10582 0.0969279 0)
(-0.0250571 2.27536 5.28083e-20)
(-0.0239772 2.01764 6.72082e-22)
(-0.020137 2.02507 0)
(-0.0267001 2.44461 -5.25704e-20)
(-0.0214879 2.40051 -1.55195e-21)
(-0.0329607 2.47224 5.14351e-21)
(-0.020888 2.62116 -1.06505e-20)
(-0.0229755 2.5628 -2.88306e-23)
(-0.0213074 2.51437 -2.69697e-21)
(-0.0159684 2.61509 9.69259e-21)
(-0.0210285 2.61706 -1.02458e-20)
(-0.00549517 1.49263 -5.78253e-22)
(0.00387185 1.6201 -3.24222e-20)
(0.372412 1.44534 -1.16228e-19)
(0.371951 1.38115 3.59917e-20)
(0.661344 1.42504 -2.37828e-19)
(0.529175 1.49145 -1.42534e-19)
(0.58743 1.45742 0)
(0.59346 2.42213 2.06987e-19)
(0.66177 2.41733 3.37569e-19)
(0.41136 2.51189 8.77248e-20)
(0.402753 2.53637 -6.09772e-19)
(0.510472 2.47768 6.13846e-19)
(0.553328 2.45895 0)
(0.488257 2.51653 -5.59474e-19)
(0.248682 2.58918 1.14408e-18)
(0.354924 2.56113 -7.76282e-20)
(0.284193 2.65087 -1.58697e-18)
(0.947993 2.37506 7.26554e-19)
(0.838237 2.38024 0)
(1.01107 0.000519839 2.6233e-20)
(1.01534 -0.00538268 -2.12811e-20)
(1.01767 -0.00349341 -3.88685e-19)
(1.01503 -0.000853911 3.90756e-19)
(1.01245 0.00124013 0)
(0.646907 1.28979 0)
(0.669172 1.18407 0)
(0.782929 1.10305 0)
(0.662168 1.14739 0)
(1.18484 2.6139 5.97469e-20)
(1.07285 2.36106 0)
(0.83454 2.16674 3.82397e-21)
(0.823977 2.43177 0)
(0.921923 2.52538 -4.21661e-19)
(0.957134 2.4815 2.80502e-19)
(0.799126 0.182174 0)
(0.744896 0.15503 1.62644e-19)
(0.909971 0.151624 9.46553e-19)
(0.825644 0.155593 -3.54574e-19)
(0.781579 0.0909972 -1.09337e-18)
(1.08206 0.240341 -8.92391e-19)
(0.999449 0.302363 -1.72846e-20)
(0.929549 0.305803 8.60569e-19)
(1.00792 0.232909 7.21097e-19)
(0.949056 0.197641 -1.2531e-18)
(0.912258 0.202118 1.56715e-19)
(0.951132 0.267769 -3.32466e-19)
(0.927775 0.22903 0)
(0.995715 0.193846 6.17932e-19)
(1.04736 0.193498 0)
(1.04485 0.221605 0)
(1.10727 0.120933 2.89788e-19)
(1.0715 0.180457 -1.49747e-20)
(1.07568 0.240513 -1.57733e-19)
(1.10184 0.206676 0)
(1.02334 0.0468087 6.16771e-19)
(1.03923 0.0602426 7.71279e-19)
(1.03453 0.0461955 -6.11939e-19)
(1.04326 0.06772 -5.17007e-19)
(1.02116 0.0758269 -7.92646e-19)
(0.986416 0.160418 0)
(0.992105 0.106295 0)
(0.964666 0.0724099 -5.01566e-19)
(0.905789 0.0975145 1.99259e-19)
(1.03977 0.107617 7.15732e-19)
(1.06963 0.124496 -8.35865e-19)
(1.07613 0.156856 7.46426e-19)
(1.03082 0.149695 0)
(1.07536 0.112002 0)
(1.05485 0.0931828 -3.42586e-19)
(1.04336 0.0970781 -5.84655e-19)
(0.578697 1.05726 1.39233e-19)
(0.6051 1.38389 -4.07741e-20)
(1.15468 2.72986 -2.26388e-19)
(1.22041 3.07211 1.69263e-21)
(1.24654 2.71279 -1.2219e-19)
(1.27515 2.69619 -3.27817e-20)
(1.20269 2.33641 -1.09975e-20)
(1.20807 2.97596 -9.25252e-20)
(1.22815 2.94141 2.32999e-19)
(1.21063 3.22505 -1.43388e-19)
(1.37042 2.95604 1.98152e-19)
(1.35931 2.87413 0)
(0.56082 0.817091 -5.01973e-20)
(0.113144 1.2294 5.69338e-19)
(0.553561 0.36933 5.61688e-19)
(0.391698 0.116517 6.11827e-19)
(0.484265 0.322684 6.85948e-19)
(0.543575 0.438975 -1.10643e-18)
(0.545821 0.43577 9.05476e-19)
(0.469453 0.32715 -3.43849e-19)
(0.353131 0.256112 7.7979e-19)
(0.715698 0.267746 -3.57756e-19)
(0.675975 0.29164 0)
(0.623077 0.208231 7.05133e-21)
(0.740759 0.505758 3.67135e-19)
(0.716885 0.476537 -1.3359e-18)
(0.620889 0.447878 1.18753e-20)
(0.620385 0.437871 0)
(0.690169 0.719032 3.97185e-19)
(0.851336 0.777793 3.96117e-19)
(0.775285 0.860853 -4.63481e-19)
(0.897792 0.815533 -1.55156e-19)
(0.929172 0.86067 -3.75508e-20)
(0.936251 0.860511 3.84545e-20)
(0.864266 0.65733 -6.82835e-19)
(0.944414 0.711276 1.4409e-19)
(1.00408 0.726977 0)
(0.994997 0.703639 -1.9482e-19)
(1.02898 0.342479 2.12717e-19)
(1.1487 0.305192 2.88523e-19)
(1.06981 0.277569 3.64778e-19)
(1.0178 0.374802 -4.31457e-19)
(1.06644 0.43733 0)
(1.12227 0.420344 0)
(0.923791 0.378227 2.01885e-21)
(0.841111 0.313989 0)
(0.885044 0.309874 4.06576e-19)
(0.910974 0.31415 -7.60221e-21)
(0.955394 0.447041 2.05842e-18)
(0.91586 0.502269 5.3031e-19)
(0.921298 0.469359 -5.64958e-19)
(0.838285 0.455018 6.05735e-19)
(0.821811 0.447383 3.63085e-19)
(0.792017 0.429794 -3.57183e-19)
(1.02738 -0.000231711 6.4747e-19)
(1.01999 6.74019e-05 0)
(1.01853 0.00099494 4.22186e-19)
(1.02173 -0.00154719 -9.56364e-19)
(1.02235 0.00448659 4.64606e-19)
(1.02032 0.0115036 -9.72921e-19)
(1.02122 0.0108697 0)
(1.02047 0.0110856 -2.0278e-19)
(1.01594 0.00783703 5.08722e-19)
(1.01661 0.0106184 -2.53843e-19)
(1.01731 0.0099689 1.86939e-19)
(0.0273387 1.32157 0)
(0.0337287 1.37222 0)
(0.0435676 1.3231 0)
(0.0479382 1.27314 0)
(0.0727367 1.39672 -5.15389e-20)
(0.0797108 1.36445 2.26257e-20)
(0.118338 1.54115 -1.25268e-20)
(0.102096 1.38774 -7.37062e-21)
(0.0357049 1.47021 1.63429e-20)
(0.03978 1.46405 -1.24823e-20)
(0.0638014 1.38187 -9.36476e-21)
(0.0552734 1.38295 4.54277e-20)
(0.0477195 1.35763 6.68071e-21)
(0.0389571 1.37997 3.4624e-21)
(0.107961 2.36686 -1.48248e-19)
(0.0969209 2.41473 0)
(0.171569 2.04146 1.07676e-19)
(0.114339 1.70824 3.86033e-20)
(0.234408 2.03624 -8.96495e-20)
(0.201267 2.4274 0)
(0.263204 2.37731 -6.0538e-19)
(0.303378 2.37494 4.27888e-19)
(0.230593 1.99693 -2.48607e-19)
(0.156148 2.15602 1.6956e-19)
(0.142282 2.26332 0)
(0.0185125 1.87949 5.99607e-21)
(-0.00014525 2.39215 -3.4367e-20)
(0.00607083 2.14949 0)
(0.0113531 2.455 -1.36217e-20)
(0.0284288 2.29858 8.65999e-21)
(0.0151465 1.41067 -6.52245e-21)
(0.013924 1.39425 1.10082e-19)
(0.0136614 1.40008 -3.60189e-20)
(0.0206761 1.40292 -3.10345e-20)
(0.0249644 1.4343 0)
(0.0098178 1.38188 0)
(0.00212676 1.29527 -4.42565e-20)
(0.00585375 1.37351 1.24015e-20)
(0.0093862 1.37373 0)
(0.00859832 1.28831 -3.35028e-20)
(0.0181194 1.21325 6.78614e-20)
(1.04079 0.0120524 0)
(1.04697 0.00828798 -6.77257e-20)
(1.03866 0.022149 -4.88916e-19)
(1.04844 0.0210118 0)
(1.05244 0.0208989 0)
(1.03633 0.0122518 -6.83297e-21)
(1.03097 0.0120705 7.85814e-19)
(1.03166 0.0170412 9.52635e-19)
(1.02543 0.0209241 0)
(1.02218 0.0212827 0)
(1.03515 0.0259123 4.87594e-19)
(1.02547 0.0276325 0)
(1.02353 0.027753 0)
(-0.0183442 2.02245 0)
(0.00113624 1.65076 -4.35819e-21)
(-0.00474894 1.75881 -3.0086e-20)
(-0.000391331 1.38328 0)
(-0.00676332 1.55112 -1.73167e-20)
(-0.00822735 1.46055 1.11065e-20)
(-0.00419283 1.39655 0)
(0.389331 1.64576 0)
(0.374677 1.30808 -7.09038e-20)
(0.301796 1.34203 0)
(0.427038 1.30599 6.07644e-21)
(0.476886 1.46878 0)
(0.457337 1.41367 2.53249e-20)
(1.03651 2.67603 -1.53596e-20)
(0.96847 2.40384 -9.1317e-19)
(0.921488 2.19193 1.02458e-18)
(0.85224 2.37214 2.42019e-19)
(0.847919 2.48575 0)
(0.917695 2.48193 0)
(0.931339 2.36861 0)
(0.910277 2.35775 -9.44149e-19)
(0.68725 2.44989 -3.94354e-19)
(0.800294 2.43943 -9.76585e-20)
(0.810613 2.41354 7.42131e-20)
(0.695692 2.39047 0)
(0.80086 2.3857 0)
(0.759057 2.39912 -3.68667e-19)
(0.76784 2.47559 0)
(0.628124 1.09362 0)
(0.480586 0.903038 -5.09663e-19)
(0.565095 0.945984 -3.22785e-20)
(0.519075 1.03596 0)
(0.51949 0.980008 7.63521e-19)
(0.796042 0.883841 -1.3026e-19)
(0.806409 1.02042 0)
(0.781363 0.986807 1.86277e-19)
(0.664438 1.03389 0)
(0.666082 0.936077 0)
(1.16366 2.75277 -2.29402e-19)
(1.1411 2.81613 -9.6754e-20)
(0.929229 2.33095 9.97459e-20)
(0.897061 2.31024 -8.31399e-20)
(1.12919 2.72572 0)
(1.08301 2.6952 1.00026e-19)
(1.08915 2.47907 -3.13564e-19)
(0.983647 2.23182 -3.04017e-20)
(0.492554 1.33215 0)
(0.50798 1.06183 -1.22723e-19)
(0.575346 1.16742 0)
(0.854676 0.2475 0)
(0.763724 0.196832 0)
(0.679521 0.155516 0)
(0.84555 0.249435 -6.39957e-19)
(0.736943 0.240082 3.73226e-19)
(0.92277 0.0881234 -4.10974e-19)
(0.92911 0.131679 0)
(0.915668 0.140978 1.77324e-19)
(0.851479 0.118616 7.09447e-19)
(0.81606 0.0789122 -4.44647e-19)
(1.15619 3.35004 -7.19221e-19)
(1.205 3.26953 0)
(1.154 3.37889 -1.48927e-18)
(0.642283 3.54032 1.2638e-18)
(0.864266 3.1089 7.28172e-20)
(0.521153 0.806217 6.04205e-19)
(0.424813 0.803094 0)
(0.311479 0.400004 -1.49271e-19)
(0.469794 0.654285 8.5738e-19)
(0.556507 0.372358 -1.97491e-19)
(0.513781 0.470137 2.31957e-19)
(0.672632 0.513045 4.95689e-19)
(0.710416 0.549375 0)
(0.660874 0.579664 0)
(0.624238 0.529165 0)
(1.0058 0.61339 8.94657e-20)
(0.920783 0.551946 -5.16283e-19)
(0.94604 0.583877 3.89325e-19)
(0.977261 0.52355 -3.99355e-19)
(1.08463 0.493437 0)
(1.09316 0.583892 -9.75196e-20)
(0.858568 0.408027 -8.32004e-19)
(0.858019 0.397318 -1.03214e-18)
(0.794412 0.39205 6.48494e-19)
(0.804582 0.369436 -6.58818e-19)
(0.846276 0.332599 -5.20213e-19)
(0.794737 0.334323 6.36688e-19)
(1.02667 0.00605668 -4.93584e-19)
(1.02637 0.00627887 1.00358e-18)
(1.02944 0.000215464 6.27444e-19)
(1.03366 0.00112694 -7.55635e-19)
(1.03378 0.00926602 0)
(1.03004 0.00996433 -1.23053e-18)
(0.0641526 1.64438 1.94633e-20)
(0.0493443 1.5891 0)
(0.0895436 1.69433 1.17868e-19)
(0.0991372 1.67605 -1.03451e-19)
(0.0924076 1.54811 2.34715e-20)
(0.0921501 1.54403 0)
(0.0110896 1.68401 0)
(-0.00387911 1.49083 6.63135e-21)
(-0.00200789 1.43664 -5.96437e-21)
(-0.00729963 1.54782 5.41689e-21)
(0.00166261 1.8833 9.87666e-21)
(-0.0102277 1.9364 -1.24695e-21)
(0.496959 1.35867 -2.75078e-19)
(0.49052 1.35935 3.02171e-19)
(0.453763 1.30142 -3.07775e-20)
(0.436888 1.28534 7.74179e-21)
(0.639092 1.30744 0)
(0.555463 1.39745 1.05348e-19)
(0.570532 1.40514 -1.02549e-19)
(0.467469 1.29002 2.99831e-20)
(0.521134 1.24064 0)
(0.572705 1.20322 0)
(0.654225 2.40949 5.79306e-19)
(0.669755 2.45087 1.26012e-18)
(0.714208 2.46156 -8.68244e-19)
(0.61046 2.43559 -2.01887e-19)
(0.560312 2.5259 2.8364e-19)
(0.509522 2.50063 -7.5675e-19)
(0.978245 2.37527 -5.73355e-19)
(1.01252 2.3875 0)
(0.925758 2.16993 -6.59273e-19)
(1.05395 2.67421 0)
(1.05622 2.6608 0)
(0.600326 2.25911 -1.24057e-19)
(1.03722 3.15476 1.30882e-19)
(0.908394 3.02513 -3.46056e-20)
(0.266184 0.855779 0)
(0.294245 0.701225 -3.17032e-19)
(0.463349 0.66044 -3.18392e-19)
(0.380066 2.00372 0)
(0.462557 2.77949 -5.06887e-20)
(0.416575 2.54223 0)
(0.712434 0.66882 -8.39525e-19)
(0.796161 0.683559 1.12734e-18)
(0.817086 0.625485 -1.11393e-18)
(0.690615 0.632009 -1.07804e-19)
(0.745407 0.588847 -4.42493e-19)
(1.0008 2.75431 -9.95377e-20)
(1.0413 2.815 -1.63478e-19)
(0.632753 2.12472 6.90829e-19)
(0.585603 1.69259 -4.92299e-19)
(0.694343 1.89101 -4.05059e-19)
(0.987028 2.43806 -1.1291e-19)
(0.993789 2.43118 2.94937e-19)
(0.650924 1.82542 2.81382e-20)
(0.442084 1.31293 1.43719e-19)
)
;

boundaryField
{
    wall-4
    {
        type            noSlip;
    }
    velocity-inlet-5
    {
        type            fixedValue;
        value           uniform (1 0 0);
    }
    velocity-inlet-6
    {
        type            fixedValue;
        value           uniform (0 3 0);
    }
    pressure-outlet-7
    {
        type            zeroGradient;
    }
    wall-8
    {
        type            noSlip;
    }
    frontAndBackPlanes
    {
        type            empty;
    }
}


// ************************************************************************* //
