/*--------------------------------*- C++ -*----------------------------------*\
| =========                 |                                                 |
| \\      /  F ield         | OpenFOAM: The Open Source CFD Toolbox           |
|  \\    /   O peration     | Version:  4.0                                   |
|   \\  /    A nd           | Web:      www.OpenFOAM.org                      |
|    \\/     M anipulation  |                                                 |
\*---------------------------------------------------------------------------*/
FoamFile
{
    version     2.0;
    format      ascii;
    class       volScalarField;
    location    "28";
    object      p;
}
// * * * * * * * * * * * * * * * * * * * * * * * * * * * * * * * * * * * * * //

dimensions      [0 2 -2 0 0 0 0];

internalField   nonuniform List<scalar> 
918
(
0.294766
0.953869
0.0230878
0.294035
-0.0206463
0.920926
-0.76441
0.468795
0.274845
-0.346054
-0.347751
0.266796
0.781447
0.547589
-1.39133
-0.276905
0.421275
-0.643615
0.273848
-0.188309
0.509086
0.281488
0.28453
0.275127
0.335491
0.530573
0.662019
-0.0199466
0.0109677
-0.0172311
-0.040235
-0.116356
-0.152495
0.804574
0.855652
0.878324
0.243524
0.0712156
-0.622095
-0.694876
-0.683268
-0.812166
0.460855
0.464622
-0.429411
0.468672
0.48015
0.262201
0.274203
0.275135
0.276241
0.27516
0.276572
0.165853
-0.35157
-0.381119
-0.326375
-0.319512
-0.153084
-0.332623
-0.321057
-0.360291
-0.369751
0.196348
0.263695
0.261293
0.271761
0.278721
0.893415
0.865338
0.891472
0.805118
0.821635
0.759426
0.731943
0.568365
0.58969
0.532193
0.521166
-1.83144
-2.79891
-0.79294
-0.537642
-0.0110283
-0.253221
-0.242448
0.411028
0.413412
0.42138
0.433445
0.817245
-0.638829
-0.775821
0.273935
0.272726
0.281193
0.281873
0.277881
0.276972
-0.239651
-0.279942
-0.0605955
-0.157079
-0.123387
0.495817
0.493198
0.275681
0.272714
0.286385
0.307781
0.298672
0.0347689
0.342084
0.359623
0.348812
0.518591
0.513594
0.522164
0.635568
0.598358
0.699347
0.722674
-0.00520554
-0.00522966
-0.277138
-0.189826
-0.233339
0.239532
0.232399
0.257904
0.246814
0.249222
-0.0134461
-0.149887
0.157545
0.181649
-0.531277
-0.59645
-0.701588
-0.716967
-0.826039
0.322839
0.45134
0.451893
-0.44814
-0.366609
-0.507389
-0.292888
-0.357206
0.25267
0.259515
0.254575
0.26992
0.264449
0.266382
0.278459
0.275556
0.27709
0.228241
0.351851
0.0947336
0.06059
-0.501463
-0.401717
-0.492306
-0.310333
-0.310948
-0.154004
-0.135935
-0.171348
-0.159217
-0.304668
-0.313458
-0.306413
-0.383026
-0.371486
0.189166
0.178557
0.207939
0.215107
0.255435
0.256337
0.25893
0.257425
0.682773
0.705146
0.712591
0.686401
-3.80525
-6.62005
-0.206732
-0.0666505
-0.0232481
-0.0119485
-0.00569255
-0.0119244
-0.00293871
-0.0128201
-0.149861
-0.14759
-0.193213
-0.172599
0.396311
0.396998
0.733578
0.727643
0.719491
0.671457
0.261977
0.264142
0.269696
0.265551
-0.370438
-0.322605
-0.344407
0.477705
0.486414
0.486247
-0.000801047
-0.0849263
0.0809855
0.108093
0.38213
0.365269
0.380551
0.410604
0.446655
0.730161
0.748388
0.746653
0.75505
0.79915
0.815604
0.780853
0.22038
0.229513
0.224688
0.261145
0.258829
0.259763
0.254857
0.256551
0.254196
-0.303157
-0.68956
0.24073
0.257657
0.229332
0.241815
0.398098
0.469247
0.43189
0.440867
0.442625
-0.22611
-0.286026
0.0245645
-0.00505791
0.133209
0.167193
0.148108
0.65381
0.614453
0.664355
0.637898
0.599254
0.625115
-0.641614
-2.16286
-1.27033
0.290508
0.100469
0.189497
-0.170603
-0.160093
-0.149159
0.716297
0.795908
0.406806
0.567267
0.579439
0.486173
0.517613
0.571221
0.495859
0.531145
0.567142
0.549622
0.282113
0.252129
0.248276
0.538334
0.594349
-0.112547
-0.165346
-0.212287
-0.119424
-0.0609085
-0.0876041
0.763678
0.654086
0.729008
0.272435
0.27312
-0.0418925
-0.0814976
0.277221
0.277252
-0.0510623
-0.146489
0.171841
-1.10059
-0.125005
0.265628
0.256061
0.27283
-0.33318
0.128393
-0.315796
-0.160005
-0.193823
0.264758
0.205608
0.168371
-0.0458196
-0.31406
-0.253306
-0.45898
0.270095
0.268426
0.272307
0.273352
0.273983
-0.0847128
-0.0793492
-0.0578682
-0.237491
-0.150505
-0.171704
0.237807
0.254434
-0.417873
0.272484
0.274579
0.274428
0.267537
0.27324
0.271445
-0.227722
-0.173581
-0.314087
-0.0147952
0.101644
0.42103
0.518802
0.384387
0.157149
-0.0828647
0.319867
0.386309
0.287501
0.4477
0.443007
0.458741
-0.0633879
-0.209827
-0.0548539
-0.109643
0.263547
0.262183
0.254335
0.25148
0.267732
0.26581
0.270421
0.267331
0.270274
0.271685
-0.29245
-0.313491
-0.330534
-0.390728
0.0860317
0.340697
0.0212868
0.0519375
-0.0912431
-0.349449
-0.351305
-0.299078
-0.308388
-0.216452
-0.21094
-0.17676
-0.163164
-0.215416
-0.214652
-0.251606
-0.245168
-0.259346
0.258546
0.257638
0.263826
0.270752
0.214829
0.218748
0.185579
0.204607
0.190058
0.134962
0.168159
0.143304
-0.0474042
-0.0648289
-0.032987
-0.308126
-0.277191
-0.216661
-0.153173
-0.220494
-0.141253
-0.143818
-0.346963
-0.339445
-0.420752
-0.536137
0.718723
0.664196
-0.146512
0.25937
0.265716
0.262563
0.26721
0.270351
0.271273
0.269003
0.265564
0.255145
0.256963
0.253195
0.253528
-0.358614
-0.494134
-0.319293
-0.386125
-0.121831
0.373921
0.114867
0.0555047
0.0505961
0.267724
0.665494
0.463922
0.466615
0.491267
-0.602736
-0.205105
-0.535556
0.0840706
-0.0931417
0.419057
0.470176
0.493281
0.439667
0.390501
-0.37569
0.283532
-0.304988
-0.261693
-0.0716643
-0.174958
0.46333
0.425806
0.430317
0.446029
0.465107
0.43033
0.408498
0.405298
0.442644
0.448039
0.240566
0.0174899
-0.027039
-0.0647934
0.408412
0.2823
0.339732
0.25452
0.258351
0.26124
0.259757
0.242541
0.249825
0.245626
0.251198
0.254325
0.263483
0.263818
0.259222
0.261563
-0.293469
-0.30285
-0.272384
-0.382111
-0.373199
-0.42196
-0.315743
-0.180217
-0.215279
-0.0252145
0.0838495
-0.204661
-0.322483
-0.292559
-0.264354
-0.079313
-0.0542338
-0.158534
-0.0726098
-0.0849606
-0.0926867
0.0029502
0.00834665
-0.298896
-0.256275
-0.274197
-0.292393
-0.192646
-0.137179
-0.118574
-0.339241
-0.292046
-0.376689
-0.382095
-0.263022
-0.273193
-0.260396
-0.220667
-0.306722
-0.287607
-0.303112
-0.38134
-0.311762
-0.305976
0.253452
0.254896
0.255018
0.26376
0.277174
0.291968
0.256643
0.235887
0.227202
0.230191
0.205262
0.214655
0.210284
0.223095
0.242539
0.249939
0.249377
0.251692
0.235097
0.237051
0.224283
0.227196
0.204893
0.187738
0.176818
-0.217877
-0.136896
-0.200807
-0.168261
-0.0883676
-0.119833
-0.261754
-0.290921
-0.288656
-0.266218
-0.225622
-0.299406
-0.283851
-0.333558
-0.258937
-0.442698
-0.475233
-0.54489
0.627675
0.738553
0.55548
0.338572
0.342042
0.573496
0.66557
0.304791
0.477509
0.506238
0.295669
0.556468
0.264132
0.263745
0.261377
0.2608
0.26217
-0.275206
-0.175251
-0.159863
-0.110508
0.00881559
0.124724
0.0290008
-0.0935833
0.0431936
0.0509767
0.368802
0.385293
0.329932
0.355053
0.353157
0.180369
0.256895
0.311661
0.266275
0.309804
0.331816
0.293186
0.323182
0.270741
0.228786
0.227534
0.172748
0.193931
0.171399
0.153276
0.253654
0.232173
0.242231
0.233142
0.252741
0.280434
0.274832
0.301725
0.313567
0.238451
0.199419
0.208479
0.23595
0.197979
0.211278
0.22608
-0.0481786
-0.148687
-0.0598659
-0.351227
-0.266839
-0.282978
-0.328817
-0.286372
0.000218886
-0.699427
-0.67185
-1.30716
0.223242
0.694213
0.41927
0.390406
0.460897
0.438766
0.441911
0.466883
0.473531
0.397731
0.415363
0.419274
0.371027
0.395859
0.420226
0.4177
0.252625
0.132779
0.124047
0.0849207
-0.0378998
-0.00623087
0.198392
0.120215
0.0472393
0.0522105
0.215947
0.106701
0.172031
0.210191
0.142404
0.0986389
0.297401
0.365383
0.356874
0.330627
0.246442
0.258681
0.28485
0.320721
0.347288
0.38218
0.250961
0.256635
0.257894
0.255477
0.25263
0.255472
0.255635
0.258133
0.258954
0.261931
0.26091
-0.29623
-0.268936
-0.300821
-0.311486
-0.267868
-0.27521
-0.22913
-0.234757
-0.254081
-0.245235
-0.278309
-0.276765
-0.278134
-0.266511
-0.141838
-0.122911
-0.138333
-0.186019
-0.0125796
0.125168
0.188246
0.0716411
-0.0385924
-0.00776789
0.0186694
-0.244814
-0.209959
-0.213254
-0.181663
-0.191905
-0.368075
-0.399166
-0.403476
-0.316549
-0.335347
-0.437994
-0.378583
-0.416071
-0.412399
-0.395819
-0.384023
0.237891
0.231392
0.233187
0.227608
0.226282
0.239653
0.243751
0.245302
0.250276
0.2519
0.243186
0.248039
0.251373
-0.413161
-0.389224
-0.416061
-0.453116
-0.428307
-0.380433
-0.395762
-0.152206
-0.224402
-0.219237
-0.260429
-0.383162
-0.326904
0.207773
0.204931
0.219272
0.432129
0.286026
0.204012
0.297905
0.400811
-0.00630211
0.194065
0.0250921
0.606464
0.494368
0.637582
0.265147
-0.0314493
0.121206
0.173345
-0.0207455
0.0496483
0.0642419
-0.0469781
-0.0159548
0.0138783
0.113877
-0.00719433
-0.0349235
-0.281342
-0.0973242
0.0306246
0.0092369
0.144615
0.209565
-0.0229745
-0.0981875
-0.141938
0.359686
0.379897
0.398723
0.36845
0.393156
0.315268
0.306273
0.324869
0.33377
0.327689
-1.03477
-0.742304
-1.68634
-0.997405
-0.547197
0.258235
0.216997
0.494186
0.384056
0.45336
0.437471
0.397194
0.361621
0.372727
0.40636
0.108238
0.218444
0.192045
0.199253
0.102209
0.0356536
0.334013
0.327408
0.366017
0.389955
0.354775
0.389222
0.248639
0.248309
0.248161
0.244898
0.243117
0.245056
-0.18585
-0.20792
-0.185716
-0.202572
-0.218373
-0.223638
-0.439491
-0.450092
-0.495997
-0.497273
-0.472559
-0.437017
-0.115877
-0.171306
-0.24334
-0.215704
-0.272067
-0.335092
-0.352828
-0.256106
-0.168477
-0.175837
0.126902
0.378578
0.203285
0.372368
0.20907
0.266367
0.212696
0.206031
0.237198
0.10764
0.183266
-0.0460454
-0.55224
-0.459251
0.510131
0.530367
0.32071
0.13192
-0.0983238
0.0905555
0.281647
0.220064
0.26013
0.328546
0.322074
-0.262906
-0.194513
0.061521
0.288782
-0.0402771
-0.047321
-0.0523633
0.11886
0.0436066
)
;

boundaryField
{
    wall-4
    {
        type            zeroGradient;
    }
    velocity-inlet-5
    {
        type            zeroGradient;
    }
    velocity-inlet-6
    {
        type            zeroGradient;
    }
    pressure-outlet-7
    {
        type            fixedValue;
        value           uniform 0;
    }
    wall-8
    {
        type            zeroGradient;
    }
    frontAndBackPlanes
    {
        type            empty;
    }
}


// ************************************************************************* //
