/*--------------------------------*- C++ -*----------------------------------*\
| =========                 |                                                 |
| \\      /  F ield         | OpenFOAM: The Open Source CFD Toolbox           |
|  \\    /   O peration     | Version:  4.0                                   |
|   \\  /    A nd           | Web:      www.OpenFOAM.org                      |
|    \\/     M anipulation  |                                                 |
\*---------------------------------------------------------------------------*/
FoamFile
{
    version     2.0;
    format      ascii;
    class       volVectorField;
    location    "28";
    object      U;
}
// * * * * * * * * * * * * * * * * * * * * * * * * * * * * * * * * * * * * * //

dimensions      [0 1 -1 0 0 0 0];

internalField   nonuniform List<vector> 
918
(
(0.985168 -0.000496134 0)
(0.00500842 2.96625 0)
(-0.0415247 1.40514 0)
(0.9797 0.0021495 0)
(0.0121447 1.40787 9.89753e-20)
(-0.00704119 2.94879 -1.95846e-18)
(0.838362 1.18026 6.72504e-19)
(0.366851 0.167278 -1.03633e-20)
(0.999905 -0.000292123 0)
(0.062858 0.854071 0)
(0.00618665 0.645399 0)
(0.732947 -0.00872106 0)
(0.0111376 2.93034 0)
(0.00210041 2.79514 0)
(-0.0175714 3.15942 1.02371e-18)
(-0.018647 1.21522 2.49093e-19)
(0.459944 0.0645587 6.55548e-19)
(0.188923 1.21182 5.72056e-19)
(0.962791 0.00499519 0)
(-0.0478983 0.851185 0)
(0.0942883 0.20616 -5.06373e-19)
(1.00199 -0.00498479 0)
(1.00021 -0.00980516 0)
(0.975708 -0.00644321 0)
(0.611987 -0.0449656 0)
(0.0166405 2.63692 0)
(-0.0150028 2.91013 6.84674e-19)
(-0.104674 1.32766 0)
(-0.115764 1.53899 0)
(-0.0613726 1.36963 0)
(-0.000490841 2.12276 0)
(0.0748855 1.46207 -7.81601e-20)
(0.043448 1.14793 0)
(-0.0206104 2.9876 -6.8853e-23)
(-0.0166931 3.0053 1.52212e-18)
(0.00210284 3.00019 0)
(0.870076 -0.00933496 0)
(0.404265 0.9414 9.70293e-21)
(0.817735 1.19803 -9.22432e-19)
(0.967339 1.03502 8.7851e-19)
(0.686135 1.29257 -1.56146e-19)
(0.683696 1.28272 8.78337e-19)
(0.408033 0.260874 1.01109e-20)
(0.396966 0.148179 0)
(1.15435 0.558982 0)
(0.368893 0.262373 4.66118e-20)
(0.321415 0.170546 -4.83738e-20)
(0.919641 -0.00751537 0)
(1.00028 0.000146462 0)
(0.999913 0.00034025 0)
(1.00364 -0.00778792 0)
(1.00096 -0.000943141 0)
(1.00017 2.12888e-05 0)
(0.0819474 1.78453 -3.15685e-19)
(0.0423579 1.0054 0)
(0.0833596 0.932692 0)
(0.02039 0.939073 0)
(0.0329208 0.785314 0)
(0.0187987 1.99106 0)
(0.0223329 0.795252 0)
(0.00320812 0.688668 0)
(-0.0101269 0.747488 0)
(-0.016009 0.625367 0)
(0.833748 -0.0142183 0)
(0.853209 0.0257682 0)
(0.767307 0.000717569 0)
(0.827831 0.0323299 0)
(0.703944 -0.0160033 0)
(0.0146921 3.0004 7.18637e-19)
(0.0115048 3.00801 0)
(0.00611591 3.00279 0)
(0.0135458 2.99736 8.03838e-24)
(0.00797687 2.95846 -1.06807e-18)
(0.0144906 2.98203 0)
(0.0108449 2.90359 0)
(0.0244641 2.93053 1.47385e-24)
(0.00445592 2.82532 0)
(0.0311843 2.91619 0)
(-0.00546601 2.74485 0)
(0.310005 3.55824 0)
(-0.132075 3.64001 0)
(0.140419 3.25022 -9.52688e-19)
(-0.0123997 2.98447 0)
(-0.209548 1.98412 0)
(-0.031794 1.45025 -2.45544e-19)
(-0.100145 1.35487 1.99062e-19)
(0.534096 0.152553 -2.25996e-19)
(0.458018 0.0365932 -2.18514e-19)
(0.515393 0.179826 -6.82649e-19)
(0.442186 0.0870672 -4.55606e-19)
(0.214668 0.913674 0)
(0.26936 1.35122 -6.05893e-19)
(0.383997 1.29865 9.97174e-19)
(0.98752 0.00850575 0)
(0.94209 0.00586102 0)
(1.0003 0.000571677 0)
(1.00287 0.00929993 0)
(1.00303 0.00842732 -1.41026e-18)
(0.991923 0.00971774 1.06487e-18)
(-0.0618915 0.914971 0)
(-0.031136 0.738154 0)
(-0.111975 1.2806 0)
(-0.0568225 1.04709 0)
(-0.0271266 0.99629 0)
(0.143787 0.214404 1.56495e-19)
(0.196441 0.192314 0)
(0.993517 -0.00840811 0)
(0.954368 -0.00650519 0)
(0.786464 0.0344032 0)
(0.741932 0.0436181 0)
(0.669206 -0.0334703 0)
(0.956734 -0.00375107 0)
(0.674816 0.0597614 0)
(0.511613 -0.0205371 8.94255e-19)
(-0.0363611 2.86386 3.84275e-19)
(0.0419438 2.90916 0)
(0.0551705 2.8846 0)
(-0.0048651 2.6988 0)
(-0.0129931 2.98528 6.3269e-19)
(-0.0180654 2.89529 0)
(-0.0153813 2.9881 -1.99438e-18)
(-0.013313 2.92523 6.87869e-19)
(-0.219143 1.55042 0)
(-0.211399 1.67808 0)
(0.0406112 1.37554 8.82783e-21)
(0.0743625 1.34287 0)
(-0.00284099 1.14022 0)
(0.937455 -0.00779447 0)
(0.85539 -0.00948405 0)
(0.864108 0.00692771 0)
(0.948799 -0.00804127 0)
(0.883353 -0.00827246 0)
(0.517222 1.1358 -2.14088e-20)
(0.56739 1.18761 0)
(0.366846 0.884654 1.01869e-20)
(0.309073 0.744643 0)
(0.927123 1.07333 -2.52569e-19)
(1.04074 0.875312 5.15866e-19)
(0.377992 1.39064 0)
(0.538876 1.35952 0)
(0.544679 1.3196 0)
(0.10473 0.174485 -1.67094e-19)
(0.449731 0.242677 0)
(0.427067 0.133178 1.30112e-19)
(1.01137 0.929383 0)
(1.07894 0.777098 0)
(1.10444 0.719484 -4.4545e-19)
(1.134 0.618439 0)
(1.18156 0.403381 5.6875e-20)
(0.95732 -0.00869531 0)
(0.962274 -0.0100739 0)
(0.901365 -0.00814694 0)
(0.984114 -0.00920725 0)
(0.974561 -0.0093579 0)
(0.936971 -0.006348 0)
(1.00018 0.00231964 0)
(1.0009 0.00143785 0)
(0.999902 0.000846184 0)
(0.0352879 2.0429 1.94116e-19)
(0.119593 1.72066 0)
(0.0115054 2.15749 2.01532e-19)
(0.0562443 1.8505 -1.13231e-19)
(0.134247 1.20342 -4.73304e-19)
(0.0434191 1.08203 0)
(0.104969 1.07663 0)
(0.0297008 0.887029 0)
(0.00835011 0.725179 0)
(-0.0103089 2.18116 2.13912e-21)
(0.029454 1.98216 0)
(-0.0356531 2.15206 1.43957e-19)
(-0.00861808 1.97492 -2.86935e-19)
(0.00485518 0.856274 0)
(0.00593645 0.834349 0)
(-0.00436077 0.690886 0)
(-0.0193494 0.743977 0)
(-0.0262346 0.634406 0)
(0.930253 0.00717097 0)
(0.83882 -0.0143901 0)
(0.92324 -0.000615215 0)
(0.83815 -0.0108608 0)
(0.81381 0.00448193 0)
(0.903925 0.0184301 0)
(0.882244 0.0211329 0)
(0.790386 0.00290675 0)
(0.00563429 3.06473 -6.38746e-21)
(0.0165533 3.05794 0)
(0.0146371 2.96909 0)
(0.00852431 2.87629 0)
(0.928334 3.97693 0)
(1.24372 3.30916 9.96866e-19)
(0.0703935 3.07673 0)
(-0.0278766 2.90734 0)
(-0.286904 1.69153 0)
(-0.290072 1.93314 0)
(-0.243847 1.80995 0)
(-0.0617823 2.1464 -2.95799e-20)
(-0.220543 2.07737 0)
(-0.131159 2.03475 0)
(-0.111237 1.80263 -5.49222e-21)
(-0.130772 1.81072 -1.29321e-19)
(-0.112724 1.60543 -2.03521e-19)
(-0.133616 1.58871 0)
(0.56213 0.124479 3.33404e-19)
(0.475481 0.0123526 -3.26427e-19)
(0.26105 1.54863 0)
(0.262661 0.68937 -2.27729e-19)
(0.177932 1.63581 -7.64228e-19)
(0.226472 1.16381 7.66171e-19)
(0.902515 0.00670023 0)
(0.967629 0.0109918 0)
(0.974748 0.0107318 0)
(0.923655 0.00662247 0)
(-0.0185007 0.763732 0)
(-0.0329275 0.815277 0)
(-0.0400231 0.683188 0)
(0.312717 0.254368 4.26497e-19)
(0.254764 0.230471 -5.08792e-19)
(0.267291 0.182073 0)
(1.08552 0.0869352 2.12983e-21)
(1.06883 0.0405886 0)
(0.997466 0.0413231 0)
(0.892052 -0.000421115 0)
(0.585774 0.095346 0)
(0.61538 0.0713402 -1.43722e-18)
(0.490375 -0.00114937 5.46071e-19)
(0.00926299 2.98106 4.6496e-19)
(-0.0330317 2.86612 4.65092e-20)
(0.00372611 3.05021 -1.37482e-20)
(0.0200958 3.04344 4.93394e-19)
(-0.0149933 2.99657 2.282e-20)
(-0.0129927 2.94948 -9.22442e-23)
(-0.0172742 3.01195 -4.30721e-19)
(0.0148688 3.02383 3.11626e-19)
(0.00736356 3.03682 -4.88141e-19)
(0.931155 -0.00143661 0)
(0.937705 -0.00373912 0)
(0.843325 -0.00883637 0)
(0.956916 0.0115246 0)
(0.943425 0.0125014 0)
(0.882193 0.00642565 0)
(0.919431 0.0153156 0)
(0.927374 0.0141468 0)
(0.840006 0.00557382 0)
(0.72216 1.41553 2.72652e-19)
(0.756037 1.52493 0)
(0.201027 0.352176 3.49965e-20)
(0.199086 0.638512 2.83081e-19)
(0.252576 0.713971 -1.64585e-19)
(0.275421 0.555653 3.15681e-19)
(0.313721 0.742643 9.21168e-19)
(0.119672 0.203457 2.44538e-19)
(0.491904 0.200531 4.87168e-19)
(0.473354 0.21796 1.23764e-19)
(0.434345 0.111897 2.44642e-19)
(1.16997 0.460299 2.47708e-19)
(1.18195 0.254856 2.55808e-19)
(0.0108414 2.19565 3.96831e-20)
(0.0422553 1.9005 0)
(0.954855 0.0302287 0)
(0.929567 0.0137369 0)
(0.8536 -0.0129288 0)
(0.0112398 3.07461 0)
(0.0198267 2.94405 8.57361e-19)
(0.0164767 2.95644 0)
(0.00617891 2.85072 -8.50611e-19)
(0.00613397 3.091 2.0404e-19)
(0.00723874 3.08248 0)
(0.789452 1.82826 -2.24331e-19)
(1.25151 2.50745 6.11839e-19)
(0.771756 1.96817 -1.44297e-18)
(0.0205697 2.98255 -3.55925e-19)
(0.0362559 3.00359 0)
(-0.0330665 2.8801 0)
(-0.0639066 2.08526 3.78145e-21)
(-0.115245 1.98113 2.72338e-19)
(-0.0457921 1.92787 4.56239e-21)
(0.274367 1.35573 7.44011e-19)
(0.214804 0.469187 -5.12292e-19)
(0.0648347 1.96741 5.12482e-19)
(0.137745 1.85539 -6.34926e-19)
(0.177764 1.45761 8.62682e-20)
(0.0017852 3.11904 -1.21541e-18)
(0.0148713 3.11845 1.30771e-18)
(-0.00879498 2.98129 5.54544e-19)
(-0.00363285 2.97771 -4.97553e-19)
(-0.0211609 2.88155 -5.6479e-19)
(0.00870149 3.10018 -1.5e-18)
(0.00244478 3.10546 1.46756e-18)
(0.255307 0.656589 0)
(0.213426 0.645332 -5.73193e-19)
(0.103661 0.217673 2.57229e-19)
(0.334027 0.864351 7.34636e-19)
(0.176703 0.24358 -1.12711e-18)
(1.17292 0.17348 -3.37077e-20)
(1.18256 0.30859 0)
(1.16103 0.121149 9.42186e-20)
(-0.00394073 2.20026 1.65222e-21)
(0.00504372 2.21034 0)
(0.0227746 1.9495 0)
(0.336869 1.25458 -2.69546e-19)
(0.358006 1.07553 -5.75859e-19)
(0.187891 0.337863 9.99559e-19)
(1.00585 -0.0108845 0)
(1.00765 -0.0076775 2.58372e-19)
(-0.231801 1.50989 0)
(-0.237132 1.42625 0)
(1.0022 0.00350595 1.80182e-21)
(1.00373 0.00946743 5.30206e-19)
(-0.0762277 2.1799 3.73834e-20)
(-0.0523726 2.22024 0)
(0.036889 3.18009 1.654e-19)
(0.39758 3.49483 0)
(1.12941 0.650261 4.0745e-20)
(1.01299 0.0129953 -2.1295e-21)
(1.02118 -0.0105048 0)
(1.00172 0.0001636 9.43382e-23)
(0.104217 1.35385 0)
(0.149753 2.57549 0)
(0.0943334 1.18936 0)
(-0.000117689 2.61911 -1.59207e-19)
(-0.0399396 2.59404 -1.57395e-19)
(1.00591 0.0292737 2.76256e-21)
(1.05961 -0.000659227 0)
(1.08475 0.0153429 0)
(-0.293895 1.94478 0)
(-0.207743 2.49295 0)
(-0.194258 1.1321 0)
(0.275433 1.46355 -3.86271e-19)
(1.01124 -0.00972756 0)
(1.00934 -0.014985 0)
(1.00246 0.000738853 3.29786e-19)
(1.00548 -0.00485427 -3.87922e-19)
(1.00118 -0.00104654 0)
(-0.359844 1.79707 0)
(-0.291827 1.53789 0)
(-0.307601 1.70243 0)
(-0.204428 1.13009 0)
(-0.255024 1.27944 0)
(-0.183438 1.15348 0)
(1.03425 -0.00676451 0)
(1.02089 0.0155815 -1.00788e-21)
(0.788786 1.25522 4.68765e-19)
(1.00225 0.000363467 -3.27968e-19)
(1.0041 0.00525242 3.86678e-19)
(1.00116 0.00203865 0)
(1.0129 0.0101996 3.23214e-19)
(1.00801 0.00825636 -3.97659e-19)
(1.00864 0.0146292 0)
(-0.19007 2.48524 0)
(-0.115227 2.35922 -2.54256e-19)
(-0.11959 2.36825 2.06215e-19)
(1.20206 0.26076 5.41359e-20)
(1.13941 0.0870327 0)
(0.0466897 3.07728 -5.80519e-19)
(0.0663633 2.85263 -4.50911e-20)
(0.143427 3.1945 9.21019e-19)
(0.138179 3.22366 -3.60127e-20)
(0.136358 3.2366 0)
(0.020952 3.13798 1.32836e-19)
(0.0779457 3.16093 5.67406e-19)
(0.0705259 3.18749 -2.54576e-19)
(0.0239545 3.12914 0)
(0.659988 0.310656 0)
(0.576855 0.370326 0)
(1.10133 0.678582 -1.73676e-19)
(1.09823 0.810194 2.8639e-19)
(1.15802 0.569448 0)
(1.18755 0.513506 0)
(1.01617 0.0132865 -5.99299e-19)
(1.01497 0.0142598 7.49922e-19)
(1.02507 -0.0101684 0)
(1.02305 -0.0123605 0)
(1.00653 0.00250357 0)
(1.01042 0.00362514 0)
(1.00436 0.00188933 0)
(1.00976 0.00609035 0)
(1.00792 0.00580586 0)
(1.00452 0.00465794 0)
(0.0935458 1.35157 0)
(0.0881458 1.31751 0)
(0.118323 1.38217 0)
(0.130069 1.40711 0)
(0.146351 2.59814 0)
(0.187742 2.65897 -2.4448e-19)
(0.102245 2.65512 0)
(0.0873266 2.6587 1.91451e-20)
(0.0341255 2.67982 1.45592e-19)
(0.10225 1.14949 0)
(0.0539695 1.02995 0)
(0.0978356 1.2433 0)
(0.0110984 1.20078 0)
(0.0380138 1.98102 2.00572e-19)
(-0.0541502 2.6127 -2.09939e-19)
(-0.015711 2.65746 -2.51065e-19)
(-0.0345025 2.66038 0)
(-0.0902167 2.63161 4.45114e-19)
(-0.0983997 2.61598 3.00718e-19)
(-0.000230664 2.03683 -1.34869e-19)
(-0.0460629 2.47846 2.92354e-19)
(0.000292414 2.46973 2.97342e-19)
(1.01474 0.0348714 6.02168e-19)
(1.00881 0.0189759 -7.41138e-19)
(1.0063 0.0414769 -6.09651e-19)
(0.987617 0.02201 7.83266e-19)
(1.06052 0.00432845 0)
(1.04683 -0.0103804 0)
(1.08417 0.0233468 0)
(1.06781 0.00530871 0)
(1.06418 -0.00525705 0)
(1.12295 0.076226 0)
(1.09642 0.0383509 0)
(1.09775 0.0304384 0)
(-0.178528 2.24513 1.12556e-20)
(-0.31766 2.12145 0)
(-0.239242 2.12535 0)
(-0.226641 2.58403 -1.86897e-19)
(-0.221764 2.54531 5.62306e-21)
(-0.394595 1.92278 -2.12317e-19)
(-0.341475 1.80892 2.13645e-19)
(-0.335544 1.48738 0)
(-0.355298 1.51456 0)
(-0.344637 1.54578 0)
(-0.167492 1.11304 0)
(-0.070474 0.959521 0)
(0.372004 1.4762 7.27061e-19)
(0.40551 1.48769 2.94176e-19)
(0.593276 2.44571 -1.70667e-19)
(0.405582 2.53892 4.73465e-19)
(0.352799 2.08556 -2.73035e-20)
(1.02087 -0.00841233 0)
(1.01543 -0.00990999 0)
(1.01481 -0.0156062 0)
(1.00765 -0.00142112 0)
(1.00498 -0.00105826 0)
(1.00774 -0.00489946 0)
(1.00921 -0.00385087 0)
(1.01411 -0.00454418 0)
(1.02161 0.0157793 5.7667e-19)
(1.01825 0.0157158 -7.41918e-19)
(1.02207 0.0175818 -5.78613e-19)
(1.01957 0.0162912 7.24679e-19)
(0.756824 1.30527 0)
(0.690334 1.35969 5.39748e-19)
(0.866781 1.19951 3.07239e-19)
(0.910286 1.1574 -4.08758e-19)
(1.16045 2.61439 -3.82478e-19)
(0.826765 0.0963374 3.52281e-19)
(1.13961 0.103807 0)
(1.18295 0.186181 -3.98283e-20)
(1.1678 0.158016 -1.56506e-21)
(1.00074 0.129095 0)
(0.139429 2.96347 2.14605e-19)
(0.117379 2.8691 -7.52202e-19)
(0.0291908 2.36814 5.27411e-19)
(0.0941535 0.0289096 -2.24582e-19)
(0.342306 3.42368 -3.95896e-19)
(0.195806 3.31579 0)
(0.238412 3.35815 5.15585e-19)
(0.248457 3.03623 -9.6272e-19)
(0.342987 3.19521 0)
(0.00728137 3.12081 2.94856e-20)
(0.0168383 3.12981 -3.6831e-19)
(0.0154885 3.1258 5.42095e-19)
(0.0367201 3.13991 0)
(0.0352713 3.15099 0)
(1.22019 2.61427 0)
(0.547059 0.841067 -2.98508e-19)
(1.02969 0.98313 -1.63993e-19)
(0.966991 1.05382 0)
(0.813089 0.957287 2.25038e-20)
(1.0525 0.867852 3.0212e-20)
(0.374119 0.417774 -5.97643e-19)
(0.702397 0.32334 -2.2446e-20)
(0.6906 0.253601 2.68511e-19)
(0.591716 0.399249 2.04101e-20)
(0.511903 0.377602 -8.29742e-19)
(0.67023 0.351708 0)
(0.69318 0.433258 4.44563e-19)
(0.699528 0.430808 0)
(0.628684 0.386675 0)
(0.610929 0.319055 0)
(0.77994 0.613573 1.8978e-19)
(1.19861 0.278876 -6.01833e-20)
(1.19358 0.414564 0)
(1.208 0.363333 0)
(0.768565 0.202715 3.96005e-19)
(0.825238 0.541484 -2.2895e-19)
(0.731806 0.517506 3.8206e-19)
(0.922315 0.418905 -3.7924e-19)
(1.02001 0.0143952 3.98498e-19)
(1.01794 0.01413 -4.04335e-19)
(1.01598 0.0155874 0)
(1.03559 -0.00640936 0)
(1.02936 -0.00887153 -3.69195e-19)
(1.02705 -0.0126849 3.65409e-19)
(1.02517 0.00932637 0)
(1.02379 0.0129714 0)
(1.01145 0.00390204 0)
(1.01435 0.00880332 0)
(1.0151 0.00367117 0)
(1.01412 0.00272707 0)
(0.0682561 1.33985 0)
(0.0594468 1.28948 0)
(0.153357 1.33725 2.73076e-19)
(0.258588 1.461 2.18422e-19)
(0.150257 1.43659 4.63971e-19)
(0.179333 1.44368 -7.57104e-19)
(0.172724 1.3735 0)
(0.123661 1.59123 2.10624e-19)
(0.115781 1.56424 0)
(0.350289 2.03986 3.96754e-20)
(0.351533 2.37066 3.0139e-19)
(0.183726 1.44 -1.83784e-19)
(0.260378 1.36288 1.60139e-19)
(0.19237 1.35384 -1.28246e-19)
(0.26772 1.30137 2.40168e-19)
(0.234297 1.57441 0)
(0.253934 1.61664 -1.48988e-19)
(0.0506248 2.27411 7.87302e-20)
(0.0394935 2.67054 0)
(0.0665976 2.40797 -1.22009e-19)
(0.048494 2.42625 0)
(0.073062 2.67102 -2.24207e-20)
(0.0454009 2.69866 0)
(0.15456 1.47636 3.09964e-19)
(0.0818413 1.52928 0)
(0.0789177 1.39552 0)
(0.16542 1.38668 -3.49443e-19)
(-0.00425023 2.64528 -2.57631e-20)
(0.0204009 2.69716 -1.95155e-19)
(0.00797947 2.71706 -1.31751e-21)
(0.0984267 2.00755 -2.71794e-19)
(0.101517 1.73118 -9.95403e-20)
(0.0207044 1.01338 0)
(0.00920421 0.917989 0)
(0.0308139 1.58234 -3.59143e-19)
(0.0612266 1.44227 -3.66189e-19)
(0.0671302 1.54845 4.6079e-19)
(0.0333923 1.59668 0)
(-0.269997 2.41206 7.78156e-19)
(-0.241098 2.59494 -3.0179e-19)
(-0.256683 2.57108 8.69616e-20)
(0.04826 2.02082 3.29621e-19)
(-0.154634 2.59068 1.31222e-19)
(-0.0691397 2.52119 -3.74612e-19)
(1.02066 0.0202231 -3.93212e-19)
(1.0179 0.0254662 3.9521e-19)
(1.01476 0.0168839 0)
(1.01871 0.0596208 5.59413e-19)
(0.996862 0.0512703 -6.48768e-19)
(0.960444 0.0340801 7.40824e-19)
(1.01717 0.0903075 -7.33303e-20)
(1.04189 -0.00657061 0)
(1.04929 -0.00295422 3.38549e-19)
(1.03811 -0.0107694 -3.38981e-19)
(1.06619 0.0323427 -1.91778e-20)
(1.06008 0.0151645 1.68837e-19)
(1.06234 0.0443698 0)
(1.05782 0.0375387 -6.19566e-20)
(1.03493 0.0356805 0)
(1.02895 0.0332091 0)
(1.02748 0.0124442 0)
(1.02436 0.0152627 0)
(1.04076 0.0263233 1.28583e-19)
(1.03805 0.0212125 -2.90187e-19)
(1.05234 0.0245268 -1.32961e-19)
(1.04982 0.024511 -1.49767e-19)
(1.07273 0.05233 2.7832e-19)
(1.08475 0.0446199 0)
(1.09204 0.0919897 0)
(-0.299424 2.39676 2.58008e-19)
(-0.336207 2.15919 1.77576e-20)
(-0.325513 2.20714 0)
(-0.238963 2.41066 -2.55411e-19)
(-0.204731 2.29022 -2.88106e-20)
(-0.213488 2.36645 4.67274e-20)
(-0.150011 2.63863 -2.4789e-19)
(-0.205771 2.6125 2.37725e-20)
(-0.199719 2.59809 -9.96076e-20)
(-0.210765 2.61583 1.63702e-19)
(-0.182722 2.59043 -1.99555e-19)
(-0.403179 1.72545 -2.04411e-20)
(-0.358565 1.95421 -3.86581e-19)
(0.362443 1.40912 -3.56182e-19)
(0.359129 1.35138 -3.19831e-19)
(0.638716 1.40653 -5.22174e-19)
(0.506656 1.4724 -2.846e-19)
(0.556186 1.44812 0)
(0.589257 2.41998 1.39466e-19)
(0.656431 2.40953 2.45906e-19)
(0.411101 2.51502 7.99577e-20)
(0.404868 2.55665 -2.46525e-19)
(0.515241 2.51209 3.25932e-19)
(0.547026 2.45921 0)
(0.487969 2.50821 -3.90761e-19)
(0.247741 2.58702 6.91538e-19)
(0.353316 2.56286 -8.07895e-20)
(0.285309 2.64628 -1.02204e-18)
(0.932019 2.38473 3.34604e-19)
(0.828839 2.38488 0)
(1.01097 0.000109251 1.31772e-20)
(1.01513 -0.0055131 -1.06751e-20)
(1.01742 -0.00363736 -1.93901e-19)
(1.01474 -0.00106311 1.95036e-19)
(1.01221 0.000748509 0)
(0.625193 1.27452 0)
(0.641298 1.16142 0)
(0.744364 1.06548 0)
(0.634008 1.13295 0)
(1.18767 2.63079 5.67748e-20)
(1.07788 2.3732 0)
(0.845101 2.2096 -6.92842e-22)
(0.827432 2.47177 0)
(0.921303 2.55833 -5.98176e-20)
(0.957889 2.51274 3.9881e-20)
(0.837995 0.146266 0)
(0.806161 0.137927 9.98143e-20)
(0.926033 0.121826 5.32048e-19)
(0.855652 0.119296 -2.09317e-19)
(0.838866 0.0615778 -6.29786e-19)
(1.05496 0.221027 -3.76214e-19)
(0.973103 0.273767 -1.57425e-20)
(0.908209 0.270365 4.88899e-19)
(0.989485 0.202271 3.77513e-19)
(0.943375 0.161108 -6.82257e-19)
(0.915212 0.170304 8.72593e-20)
(0.94142 0.232773 -1.75861e-19)
(0.919259 0.192503 0)
(0.984861 0.162249 3.30657e-19)
(1.03232 0.169267 0)
(1.02689 0.195427 0)
(1.08783 0.112239 1.2238e-19)
(1.05858 0.161171 -1.32687e-20)
(1.04932 0.224812 -6.7842e-20)
(1.08294 0.19493 0)
(1.02584 0.0401779 3.00275e-19)
(1.04592 0.0490688 3.62517e-19)
(1.03678 0.0366359 -2.9857e-19)
(1.04827 0.0549946 -2.43654e-19)
(1.02293 0.0629101 -3.93744e-19)
(0.985974 0.131658 0)
(1.00298 0.0851617 0)
(0.972483 0.0485502 -2.6686e-19)
(0.926542 0.0641341 1.08943e-19)
(1.04045 0.0884363 3.40103e-19)
(1.06285 0.112547 -3.65535e-19)
(1.0667 0.140912 3.31751e-19)
(1.03039 0.128582 0)
(1.07099 0.0988072 0)
(1.05841 0.0784805 -1.51034e-19)
(1.05095 0.0846446 -2.74601e-19)
(0.58771 1.09115 -4.75541e-20)
(0.620544 1.4238 1.49498e-19)
(1.16086 2.74708 3.43157e-20)
(1.22708 3.08678 -5.57236e-20)
(1.25191 2.72922 4.23354e-19)
(1.28296 2.71268 -2.78664e-19)
(1.21126 2.35336 -9.24171e-21)
(1.21407 2.99123 1.35605e-19)
(1.23291 2.95672 -1.23237e-19)
(1.21845 3.24051 -2.42803e-19)
(1.37968 2.9732 3.35935e-19)
(1.37121 2.89129 0)
(0.54579 0.848063 -2.08305e-20)
(0.144748 1.26661 4.12491e-19)
(0.525154 0.475088 3.92357e-19)
(0.361976 0.233031 4.26137e-19)
(0.530913 0.406704 4.66412e-19)
(0.540526 0.491506 -7.41273e-19)
(0.542524 0.495007 6.07518e-19)
(0.496987 0.423152 -2.36905e-19)
(0.429023 0.364013 5.44017e-19)
(0.769841 0.257834 -2.23081e-19)
(0.730241 0.289548 0)
(0.726736 0.228797 1.01287e-20)
(0.712865 0.517788 2.29638e-19)
(0.681561 0.491407 -8.45196e-19)
(0.602574 0.488324 1.65015e-20)
(0.619839 0.476257 0)
(0.672293 0.732958 1.99828e-19)
(0.810991 0.7664 1.26863e-19)
(0.740893 0.846544 -1.54679e-19)
(0.854056 0.800175 -4.56264e-20)
(0.88454 0.837644 3.69184e-21)
(0.893089 0.839992 -3.77963e-21)
(0.820078 0.641474 -3.20402e-19)
(0.899119 0.693396 4.23814e-20)
(0.955384 0.704161 0)
(0.944542 0.679068 -5.24535e-20)
(0.999165 0.315105 9.36042e-20)
(1.11121 0.287474 6.11288e-20)
(1.03925 0.257394 1.53766e-19)
(0.978318 0.34814 -2.03007e-19)
(1.02319 0.414505 0)
(1.07828 0.403211 0)
(0.896571 0.351987 5.08219e-21)
(0.837163 0.287202 0)
(0.855674 0.275111 2.44719e-19)
(0.891954 0.277199 -6.37531e-21)
(0.914039 0.421905 1.04472e-18)
(0.87107 0.484168 2.67402e-19)
(0.87594 0.448978 -3.19469e-19)
(0.806822 0.43601 3.42905e-19)
(0.789519 0.43449 2.23716e-19)
(0.758248 0.419817 -2.19655e-19)
(1.0279 -0.000616257 3.17638e-19)
(1.02021 -4.15884e-05 0)
(1.01859 0.000872746 2.08504e-19)
(1.02106 -0.00216019 -4.69851e-19)
(1.02218 0.00416579 2.28709e-19)
(1.02036 0.0107547 -4.7967e-19)
(1.02139 0.0101633 0)
(1.02095 0.0103606 -1.0081e-19)
(1.01606 0.00739964 2.52888e-19)
(1.01681 0.0101316 -1.26381e-19)
(1.01747 0.0094366 9.29699e-20)
(0.0711438 1.30093 0)
(0.0767705 1.35864 0)
(0.0538032 1.32343 0)
(0.039573 1.25678 0)
(0.0635224 1.37563 -5.88306e-19)
(0.0865385 1.34155 1.84209e-19)
(0.105327 1.51074 1.29121e-19)
(0.0942248 1.34006 -1.40765e-19)
(0.0433366 1.46162 3.60159e-19)
(0.037229 1.44921 -2.78321e-19)
(0.0543669 1.3638 -4.752e-21)
(0.054195 1.36828 3.58516e-19)
(0.0548122 1.34723 5.27926e-20)
(0.0428943 1.39189 4.80342e-20)
(0.101947 2.38947 1.38548e-19)
(0.0965372 2.42737 0)
(0.164599 2.06536 -1.12214e-20)
(0.101033 1.70942 -8.17643e-20)
(0.228193 2.06359 9.50515e-21)
(0.209732 2.45556 0)
(0.269473 2.40899 -2.03613e-19)
(0.301818 2.40978 1.45218e-19)
(0.227426 2.02356 2.71654e-20)
(0.146917 2.18656 2.24849e-20)
(0.146109 2.30842 0)
(0.020728 1.87052 3.68208e-19)
(-0.00775279 2.39554 3.66497e-19)
(-0.0362743 2.15853 0)
(0.00203932 2.46315 -1.29619e-20)
(0.0101179 2.31213 -1.67255e-19)
(0.148086 1.43439 -6.93223e-20)
(0.122167 1.31672 1.19581e-18)
(0.0849262 1.39112 -3.80706e-19)
(0.152758 1.47745 -3.49536e-19)
(0.153464 1.51385 0)
(0.0720017 1.32327 0)
(-0.0984266 1.01849 -4.38526e-19)
(-0.0669816 1.18041 1.41629e-19)
(0.0129934 1.23966 0)
(-0.0445305 0.963515 -3.24013e-19)
(-0.0510266 0.915405 6.44102e-19)
(1.04025 0.0106064 0)
(1.04657 0.00648768 -3.18e-20)
(1.03894 0.0194631 -2.31681e-19)
(1.04754 0.0160937 0)
(1.05158 0.0157224 0)
(1.03518 0.0101589 -6.25057e-21)
(1.03113 0.0106438 3.779e-19)
(1.03093 0.0149536 4.58348e-19)
(1.02613 0.0188867 0)
(1.02371 0.0197102 0)
(1.03486 0.0219786 2.32625e-19)
(1.02577 0.0249941 0)
(1.02569 0.0234909 0)
(-0.186331 2.30309 0)
(-0.329181 2.07264 -4.6877e-20)
(-0.291712 2.1986 -1.76182e-19)
(-0.0609404 1.24345 0)
(-0.269957 1.86676 -3.1579e-19)
(-0.286954 1.60093 1.48443e-19)
(-0.187372 1.24599 0)
(0.393173 1.69531 0)
(0.359471 1.27755 5.21694e-19)
(0.302136 1.33618 0)
(0.413893 1.27422 -6.92293e-19)
(0.459044 1.44516 0)
(0.439328 1.38555 3.25924e-19)
(1.0305 2.70181 -6.55172e-21)
(0.955538 2.41794 -4.21912e-19)
(0.899975 2.18193 4.78548e-19)
(0.840979 2.37797 1.43347e-19)
(0.844415 2.51601 0)
(0.913454 2.50967 0)
(0.91525 2.37851 0)
(0.893203 2.36047 -5.48268e-19)
(0.69308 2.49085 -8.25732e-20)
(0.801262 2.48218 -2.87361e-20)
(0.812936 2.45357 2.19909e-20)
(0.690108 2.38808 0)
(0.793926 2.387 0)
(0.753433 2.39711 -2.54133e-19)
(0.769868 2.50518 0)
(0.604955 1.08333 0)
(0.493742 0.937232 -1.0619e-19)
(0.557139 0.965272 -7.70486e-21)
(0.527751 1.06915 0)
(0.529834 1.02159 1.61436e-19)
(0.763985 0.865383 -1.52037e-20)
(0.770664 1.0037 0)
(0.745956 0.960355 -1.363e-20)
(0.639168 1.02274 0)
(0.642076 0.937248 0)
(1.16595 2.76924 -1.2898e-21)
(1.14468 2.83273 7.98156e-20)
(0.936957 2.35768 -2.07326e-19)
(0.903655 2.33557 1.2313e-20)
(1.12985 2.74386 0)
(1.08161 2.71494 -1.46086e-20)
(1.08904 2.49564 -1.26864e-19)
(0.984329 2.23706 -3.04048e-20)
(0.500479 1.37246 0)
(0.512159 1.08183 4.19718e-20)
(0.546311 1.15001 0)
(0.860555 0.215303 0)
(0.814849 0.169416 0)
(0.772708 0.15102 0)
(0.852436 0.222293 -3.85009e-19)
(0.789958 0.216668 2.35014e-19)
(0.935743 0.052487 -2.23855e-19)
(0.951387 0.10021 0)
(0.925491 0.10572 9.8973e-20)
(0.879679 0.0833233 4.02127e-19)
(0.863301 0.045761 -2.48473e-19)
(1.16605 3.36577 -9.2761e-19)
(1.21353 3.28502 0)
(1.16456 3.39345 -1.84191e-18)
(0.651078 3.55387 1.57806e-18)
(0.877319 3.12024 3.10694e-19)
(0.521622 0.864385 3.12677e-19)
(0.443143 0.862644 0)
(0.345336 0.508223 -9.73666e-20)
(0.447591 0.689003 4.84095e-19)
(0.528181 0.478193 -1.29922e-19)
(0.505442 0.5243 1.50799e-19)
(0.648447 0.543096 3.17313e-19)
(0.67894 0.56538 0)
(0.632405 0.622539 0)
(0.587857 0.563407 0)
(0.950811 0.5889 -2.35504e-20)
(0.872985 0.532532 -2.59275e-19)
(0.898543 0.565714 1.51807e-19)
(0.932358 0.501518 -1.94e-19)
(1.035 0.473456 0)
(1.04407 0.561613 -2.48475e-20)
(0.833101 0.387957 -4.99384e-19)
(0.837774 0.372963 -5.87565e-19)
(0.787809 0.382197 3.9092e-19)
(0.780751 0.352495 -4.28964e-19)
(0.835955 0.31222 -3.21204e-19)
(0.791201 0.307875 3.94871e-19)
(1.02653 0.00524719 -2.36928e-19)
(1.02621 0.00550055 4.78975e-19)
(1.02921 -0.000867102 3.04446e-19)
(1.033 8.29118e-05 -3.66794e-19)
(1.03318 0.00829972 0)
(1.02974 0.00849958 -5.91549e-19)
(0.0358673 1.65044 -4.64462e-20)
(0.0355141 1.57007 0)
(0.0857 1.70042 -4.0889e-19)
(0.0887447 1.68385 3.78208e-19)
(0.0907914 1.52575 -2.42211e-19)
(0.0754748 1.48909 0)
(0.0787532 1.98909 0)
(0.063641 1.54735 1.55793e-19)
(-0.0315999 1.48242 -1.40784e-19)
(-0.141009 1.80772 -1.4568e-20)
(-0.130086 2.2394 2.75188e-19)
(-0.100108 2.21701 -1.04184e-19)
(0.493984 1.38004 2.87391e-19)
(0.48847 1.38572 -3.07584e-19)
(0.436014 1.27346 3.37722e-19)
(0.431716 1.29266 -1.94832e-20)
(0.618753 1.28743 0)
(0.53594 1.37422 4.51536e-19)
(0.550685 1.38341 -4.39467e-19)
(0.442132 1.2619 -3.25248e-19)
(0.496065 1.21732 0)
(0.550915 1.18715 0)
(0.659446 2.44941 1.21355e-19)
(0.669352 2.47715 6.6582e-19)
(0.71799 2.49341 -4.58083e-19)
(0.623053 2.47584 -1.35884e-19)
(0.562425 2.56865 1.32238e-19)
(0.51236 2.5406 -3.79126e-19)
(0.970251 2.38171 -2.60811e-19)
(1.01095 2.39983 0)
(0.914643 2.16238 -3.2798e-19)
(1.05027 2.69548 0)
(1.05236 2.68255 0)
(0.619457 2.27982 1.54706e-19)
(1.04685 3.16734 4.04926e-19)
(0.917791 3.03687 -3.39288e-19)
(0.286282 0.93193 0)
(0.327896 0.794466 -1.91376e-19)
(0.488826 0.750738 -1.29297e-19)
(0.393894 2.02745 0)
(0.469114 2.78767 -2.16303e-19)
(0.427139 2.55235 0)
(0.68213 0.684514 -4.1789e-19)
(0.756379 0.676475 5.48226e-19)
(0.774493 0.623747 -5.38213e-19)
(0.660642 0.653757 -5.9082e-20)
(0.710539 0.601764 -2.43064e-19)
(1.0092 2.77201 -3.07885e-19)
(1.04417 2.82699 1.92824e-19)
(0.64509 2.16173 2.06945e-19)
(0.605546 1.7265 -1.71275e-19)
(0.70616 1.91743 3.44716e-21)
(0.995133 2.45561 -7.74745e-20)
(0.998001 2.44891 -6.77033e-20)
(0.670002 1.85729 1.93169e-21)
(0.462873 1.34819 -3.24361e-20)
)
;

boundaryField
{
    wall-4
    {
        type            noSlip;
    }
    velocity-inlet-5
    {
        type            fixedValue;
        value           uniform (1 0 0);
    }
    velocity-inlet-6
    {
        type            fixedValue;
        value           uniform (0 3 0);
    }
    pressure-outlet-7
    {
        type            zeroGradient;
    }
    wall-8
    {
        type            noSlip;
    }
    frontAndBackPlanes
    {
        type            empty;
    }
}


// ************************************************************************* //
