/*--------------------------------*- C++ -*----------------------------------*\
| =========                 |                                                 |
| \\      /  F ield         | OpenFOAM: The Open Source CFD Toolbox           |
|  \\    /   O peration     | Version:  4.0                                   |
|   \\  /    A nd           | Web:      www.OpenFOAM.org                      |
|    \\/     M anipulation  |                                                 |
\*---------------------------------------------------------------------------*/
FoamFile
{
    version     2.0;
    format      ascii;
    class       volScalarField;
    location    "40";
    object      p;
}
// * * * * * * * * * * * * * * * * * * * * * * * * * * * * * * * * * * * * * //

dimensions      [0 2 -2 0 0 0 0];

internalField   nonuniform List<scalar> 
8800
(
0.840444
0.792656
0.753962
0.724961
0.704089
0.689244
0.678629
0.671127
0.666276
0.664174
0.66539
0.669537
0.676148
0.685437
0.698197
0.715918
0.740686
0.77462
0.817164
0.875866
0.671704
0.679382
0.686848
0.690152
0.688642
0.683554
0.677053
0.670955
0.666202
0.663318
0.662989
0.665443
0.669889
0.675803
0.682549
0.688812
0.69244
0.691698
0.686268
0.677572
0.650123
0.656282
0.660404
0.66334
0.665379
0.665969
0.664843
0.662712
0.660659
0.659701
0.660606
0.662936
0.665694
0.667844
0.668427
0.667209
0.664853
0.66145
0.656887
0.653125
0.644345
0.646994
0.649739
0.652134
0.653757
0.654901
0.65562
0.655706
0.655369
0.655261
0.65595
0.657063
0.657854
0.657881
0.657242
0.656128
0.654294
0.651709
0.649299
0.647794
0.639008
0.640431
0.642203
0.644225
0.645995
0.647317
0.64828
0.64904
0.649606
0.650105
0.650681
0.651108
0.65115
0.650815
0.650081
0.648802
0.647082
0.645215
0.643899
0.643067
0.633988
0.634907
0.636142
0.637697
0.639314
0.640817
0.642073
0.643097
0.644004
0.64482
0.645419
0.645661
0.645548
0.645049
0.644119
0.642879
0.641519
0.640235
0.639402
0.638851
0.629154
0.629823
0.630778
0.632068
0.633459
0.634893
0.636299
0.637574
0.638705
0.639719
0.64043
0.640692
0.640517
0.63993
0.639059
0.638059
0.637004
0.636049
0.635451
0.635048
0.624461
0.624976
0.625753
0.626872
0.628131
0.629479
0.630887
0.632304
0.633654
0.634879
0.63575
0.636087
0.635943
0.635456
0.634769
0.633974
0.633141
0.632418
0.63197
0.631656
0.619843
0.620253
0.620902
0.621896
0.623083
0.62438
0.625781
0.627274
0.628803
0.630266
0.631344
0.631833
0.631845
0.631545
0.631053
0.630446
0.6298
0.629257
0.628918
0.628665
0.615219
0.615552
0.616113
0.617029
0.618166
0.619445
0.620873
0.622448
0.62414
0.625861
0.62721
0.627946
0.628194
0.62811
0.627814
0.627401
0.626923
0.626527
0.62627
0.62606
0.610512
0.610786
0.611287
0.612157
0.613275
0.614574
0.616064
0.617758
0.619645
0.621653
0.623353
0.62442
0.624954
0.625114
0.625028
0.624802
0.624488
0.624217
0.624025
0.623847
0.605641
0.60587
0.606331
0.607186
0.608325
0.609687
0.611285
0.613156
0.615309
0.617684
0.619812
0.621268
0.622126
0.622556
0.622697
0.622656
0.6225
0.622337
0.6222
0.622045
0.600527
0.600719
0.60116
0.60203
0.603234
0.604704
0.606462
0.608576
0.611074
0.613916
0.616566
0.618483
0.619716
0.620452
0.62084
0.62099
0.620994
0.620932
0.62084
0.620703
0.595088
0.595249
0.595686
0.596599
0.597907
0.599534
0.601514
0.603943
0.606877
0.610307
0.613593
0.616062
0.61774
0.618831
0.619504
0.619877
0.620035
0.620069
0.620017
0.619894
0.589225
0.589359
0.589806
0.590791
0.592242
0.594076
0.596347
0.599174
0.602649
0.606795
0.610867
0.614019
0.61624
0.617748
0.618748
0.619367
0.6197
0.619831
0.619817
0.619702
0.58282
0.582926
0.583396
0.584478
0.586124
0.588236
0.59089
0.594235
0.598399
0.603435
0.608463
0.612431
0.615295
0.617289
0.618649
0.619551
0.620088
0.620324
0.620348
0.620241
0.575727
0.575816
0.576312
0.577521
0.579415
0.581878
0.585013
0.589015
0.594056
0.600206
0.606396
0.611338
0.614956
0.617547
0.619365
0.620587
0.621344
0.621693
0.621754
0.62165
0.56772
0.5678
0.568358
0.569708
0.571901
0.574805
0.578551
0.583364
0.589467
0.59697
0.604584
0.610725
0.615277
0.618581
0.620961
0.622584
0.623607
0.624082
0.624182
0.624077
0.558514
0.558566
0.559193
0.560755
0.56335
0.566832
0.571354
0.577212
0.584674
0.593861
0.603201
0.610761
0.616395
0.62054
0.6236
0.625708
0.627043
0.627666
0.627806
0.627699
0.547772
0.547806
0.54853
0.550369
0.553466
0.557684
0.563205
0.570392
0.579559
0.590825
0.602239
0.611491
0.61844
0.623599
0.627431
0.630129
0.631849
0.632638
0.632815
0.6327
0.534929
0.53495
0.535804
0.53801
0.541764
0.546941
0.55376
0.562652
0.573953
0.587758
0.601685
0.612952
0.621438
0.627802
0.632578
0.635996
0.638167
0.639142
0.639353
0.639221
0.519149
0.519165
0.520225
0.522973
0.527662
0.534178
0.542776
0.553945
0.568
0.584937
0.601802
0.615357
0.62559
0.633322
0.639191
0.643416
0.646084
0.647253
0.647487
0.647331
0.499248
0.499271
0.50067
0.504259
0.51033
0.51876
0.529808
0.543978
0.561491
0.582203
0.602515
0.618715
0.630931
0.640214
0.647289
0.652437
0.655634
0.656987
0.657231
0.657045
0.473418
0.473475
0.475473
0.480469
0.488742
0.500039
0.514594
0.532802
0.554692
0.579907
0.604133
0.623234
0.63761
0.648572
0.656952
0.663079
0.66679
0.668293
0.668531
0.66831
0.438642
0.438822
0.442056
0.449669
0.461704
0.477417
0.496988
0.520509
0.547773
0.578213
0.606782
0.62901
0.645682
0.658434
0.668201
0.675317
0.679481
0.681074
0.681279
0.681022
0.389168
0.390195
0.396708
0.409698
0.428279
0.450829
0.477322
0.507583
0.541208
0.577487
0.610691
0.636169
0.655189
0.669758
0.680999
0.689044
0.693564
0.695155
0.695294
0.695
0.316055
0.323415
0.338553
0.361616
0.389923
0.421627
0.456611
0.494669
0.535394
0.578082
0.616359
0.645432
0.66713
0.683822
0.696745
0.705844
0.710796
0.712468
0.712606
0.712358
0.237304
0.254588
0.27911
0.312811
0.351269
0.392299
0.435888
0.481991
0.530301
0.58022
0.624669
0.658429
0.683702
0.703253
0.71854
0.729121
0.734544
0.736216
0.736397
0.736303
0.171933
0.192244
0.224597
0.267169
0.314524
0.364342
0.416253
0.470229
0.52597
0.582921
0.633282
0.671422
0.700007
0.722161
0.739327
0.750763
0.756424
0.758523
0.758758
0.758752
0.118403
0.140417
0.1782
0.227149
0.281497
0.338645
0.397896
0.459082
0.521792
0.585398
0.641316
0.683512
0.715062
0.73942
0.758052
0.770561
0.777249
0.779151
0.779431
0.779468
0.0737093
0.0968639
0.138356
0.192335
0.252343
0.315527
0.381056
0.448618
0.517657
0.587422
0.648484
0.694382
0.728573
0.754838
0.774775
0.788198
0.795401
0.797529
0.797941
0.798
0.0354783
0.0592816
0.103587
0.161531
0.226276
0.294599
0.365573
0.438782
0.513549
0.588958
0.654762
0.704019
0.740522
0.768286
0.789093
0.80315
0.810793
0.813373
0.813903
0.813984
0.00174047
0.0259653
0.0724869
0.133731
0.202471
0.275264
0.351059
0.429347
0.509346
0.589988
0.660201
0.712521
0.750997
0.779909
0.801383
0.81589
0.823912
0.826876
0.827527
0.827614
-0.0289226
-0.00433424
0.0440004
0.108088
0.180287
0.257003
0.337107
0.420022
0.504877
0.590449
0.66483
0.719974
0.760172
0.790058
0.812053
0.82696
0.835248
0.838438
0.839144
0.839212
-0.0573739
-0.0324527
0.017384
0.0839378
0.159217
0.239422
0.323407
0.41057
0.499973
0.590249
0.668643
0.726479
0.768263
0.799004
0.821402
0.836569
0.845018
0.848345
0.849065
0.849098
-0.0843217
-0.0590341
-0.00772678
0.0608815
0.138901
0.222223
0.309731
0.400812
0.494496
0.5893
0.671633
0.732123
0.775473
0.80706
0.829902
0.845247
0.853794
0.857198
0.857942
0.857942
-0.110073
-0.0843953
-0.0319152
0.0386505
0.119087
0.205208
0.295915
0.390618
0.488338
0.587526
0.67378
0.73698
0.781972
0.814467
0.837777
0.853329
0.861915
0.865251
0.866016
0.866012
-0.134997
-0.108812
-0.0553586
0.017007
0.0996047
0.188237
0.281857
0.379901
0.481416
0.584848
0.675055
0.741101
0.787878
0.821397
0.845227
0.860971
0.869563
0.872858
0.873517
0.873464
-0.159194
-0.132607
-0.0780932
-0.00416037
0.0803461
0.171235
0.267496
0.368612
0.473678
0.581211
0.675425
0.744511
0.793281
0.827971
0.852394
0.868331
0.87687
0.880048
0.88061
0.880485
-0.18278
-0.155687
-0.10022
-0.0249205
0.0612799
0.15418
0.252815
0.356729
0.465096
0.576564
0.674828
0.747193
0.79823
0.834286
0.85937
0.875461
0.883851
0.886823
0.887255
0.887076
-0.205882
-0.178208
-0.12184
-0.045302
0.0423925
0.137079
0.237838
0.344277
0.455671
0.570868
0.673188
0.749084
0.802737
0.840423
0.866247
0.882419
0.890539
0.893206
0.893501
0.893283
-0.228518
-0.200191
-0.142961
-0.0652999
0.0237184
0.119967
0.222612
0.331298
0.44543
0.564098
0.67043
0.750091
0.806765
0.846455
0.873162
0.889273
0.896905
0.899158
0.899301
0.899056
-0.250536
-0.221586
-0.163528
-0.0848853
0.00529107
0.102912
0.2072
0.317868
0.43443
0.556275
0.666483
0.750094
0.810212
0.85243
0.880327
0.896234
0.90301
0.904636
0.904605
0.904352
-0.271918
-0.242373
-0.183536
-0.104009
-0.0128292
0.0859747
0.191692
0.304064
0.422752
0.547432
0.661301
0.748945
0.812908
0.858301
0.888012
0.903772
0.909146
0.909667
0.909365
0.909164
-0.292737
-0.262522
-0.202964
-0.122642
-0.03058
0.0692399
0.176176
0.289991
0.410491
0.537639
0.654844
0.746496
0.814606
0.863846
0.89638
0.912696
0.916298
0.914709
0.913624
0.913672
-0.312823
-0.282016
-0.221757
-0.140724
-0.0479035
0.0527896
0.160747
0.275761
0.397765
0.526999
0.647116
0.742594
0.815003
0.868589
0.905148
0.923787
0.92663
0.922143
0.918633
0.917903
-0.332275
-0.300845
-0.239938
-0.158287
-0.0648355
0.0365764
0.145346
0.261313
0.384505
0.515438
0.637985
0.736972
0.813761
0.87186
0.913356
0.936858
0.942228
0.937195
0.927423
0.911694
-0.351019
-0.319005
-0.257628
-0.175533
-0.0816691
0.0202611
0.129551
0.246156
0.370165
0.502305
0.626783
0.728804
0.81023
0.872659
0.918718
0.948594
0.957575
0.946482
0.927467
0.91291
-0.36888
-0.336622
-0.274639
-0.192245
-0.0980765
0.00419296
0.113589
0.23062
0.35506
0.48788
0.613633
0.717701
0.803777
0.869867
0.91636
0.945879
0.958537
0.937644
0.868465
0.83666
-0.385192
-0.354904
-0.290645
-0.207884
-0.113308
-0.0111279
0.0977652
0.214933
0.339411
0.472296
0.598503
0.703435
0.79322
0.863101
0.901931
0.924154
0.920957
0.869401
0.799406
0.756021
-0.441151
-0.37104
-0.305287
-0.22353
-0.128911
-0.0271465
0.0820152
0.198819
0.322858
0.455121
0.580836
0.68554
0.774999
0.852023
0.857996
0.867944
0.826989
0.760267
0.684037
0.64133
-0.402865
-0.386901
-0.326975
-0.24491
-0.151761
-0.0501773
0.0579978
0.174091
0.297028
0.427624
0.550917
0.653395
0.734404
0.81341
0.806755
0.699984
0.597499
0.52602
0.453217
0.486089
-0.434165
-0.404868
-0.344039
-0.262736
-0.169601
-0.0682696
0.040131
0.155574
0.277411
0.406112
0.526401
0.624731
0.697778
0.739333
0.694147
0.550332
0.424467
0.334359
0.23562
0.287961
-0.458347
-0.426109
-0.364025
-0.282531
-0.189359
-0.0881736
0.0201249
0.134723
0.255143
0.381404
0.497901
0.590481
0.654175
0.663364
0.560436
0.3891
0.236845
0.118289
-0.0128095
0.0213065
-0.482055
-0.448249
-0.384978
-0.302638
-0.209362
-0.108331
-0.000541708
0.11309
0.231915
0.355407
0.467294
0.553371
0.601834
0.579744
0.424416
0.228546
0.0373708
-0.133064
-0.32432
-0.339392
-0.505182
-0.470915
-0.406759
-0.323701
-0.230257
-0.12943
-0.0222653
0.0902934
0.20729
0.327674
0.434371
0.513238
0.543798
0.486597
0.295139
0.0843042
-0.134868
-0.327746
-0.574067
-0.881955
-0.528627
-0.494347
-0.42965
-0.346123
-0.252486
-0.151804
-0.0451879
0.066281
0.181367
0.298436
0.399774
0.470216
0.482271
0.374464
0.183019
-0.0275474
-0.233757
-0.408414
-0.47638
-0.561408
-0.553339
-0.518989
-0.453996
-0.370239
-0.276544
-0.176096
-0.0701159
0.0401033
0.152988
0.266267
0.361849
0.422006
0.409539
0.267889
0.0839652
-0.107445
-0.271173
-0.36442
-0.388278
-0.404655
-0.579631
-0.545162
-0.479973
-0.396146
-0.302567
-0.202513
-0.0974019
0.0112774
0.121568
0.230449
0.31981
0.366985
0.336269
0.168987
-0.00548862
-0.171327
-0.2989
-0.33749
-0.351156
-0.352441
-0.607708
-0.573038
-0.507647
-0.423835
-0.330504
-0.231057
-0.127059
-0.0202427
0.0870425
0.190985
0.273346
0.306746
0.258972
0.0771357
-0.0880555
-0.236162
-0.314575
-0.330964
-0.332275
-0.332124
-0.63763
-0.602665
-0.537039
-0.453299
-0.360362
-0.261709
-0.159083
-0.0544648
0.0494196
0.147961
0.22244
0.244919
0.161956
-0.00717654
-0.164292
-0.2857
-0.320877
-0.321497
-0.321499
-0.320935
-0.669114
-0.6339
-0.568043
-0.484444
-0.392045
-0.294405
-0.193433
-0.0913537
0.00872374
0.101478
0.167794
0.174701
0.0711794
-0.0856686
-0.224879
-0.302106
-0.311784
-0.313967
-0.314357
-0.314148
-0.701599
-0.666246
-0.600399
-0.517041
-0.425358
-0.328976
-0.229947
-0.130768
-0.0348784
0.0518242
0.110108
0.102075
-0.00977177
-0.153824
-0.272779
-0.299083
-0.309596
-0.31033
-0.309386
-0.308866
-0.734634
-0.699181
-0.633651
-0.550689
-0.459941
-0.365086
-0.268329
-0.172415
-0.0811017
-0.000384542
0.0486983
0.0332723
-0.0836031
-0.212589
-0.308495
-0.328569
-0.313623
-0.308599
-0.306843
-0.305755
-0.767358
-0.732046
-0.66694
-0.58477
-0.495239
-0.402241
-0.308107
-0.215813
-0.129469
-0.0546337
-0.0145594
-0.0296799
-0.145897
-0.257419
-0.327781
-0.322161
-0.313876
-0.307159
-0.303822
-0.302613
-0.798184
-0.763643
-0.699341
-0.618355
-0.530466
-0.439708
-0.34859
-0.260265
-0.179196
-0.110478
-0.0734563
-0.099565
-0.188646
-0.284994
-0.331138
-0.333614
-0.314368
-0.297968
-0.293404
-0.292018
-0.825628
-0.792085
-0.729758
-0.650291
-0.564558
-0.476498
-0.388851
-0.304856
-0.229201
-0.167371
-0.129061
-0.174871
-0.222013
-0.235376
-0.304575
-0.318047
-0.320673
-0.318193
-0.315616
-0.313602
-0.84761
-0.815816
-0.755977
-0.679174
-0.596179
-0.51139
-0.427689
-0.348417
-0.278355
-0.224294
-0.187192
-0.253933
-0.279844
-0.160084
-0.201914
-0.324711
-0.429297
-0.461352
-0.451119
-0.443736
-0.861993
-0.832841
-0.776407
-0.703077
-0.623741
-0.542922
-0.463681
-0.38949
-0.325372
-0.279388
-0.24736
-0.355572
-0.463329
-0.374313
-0.374582
-0.502343
-0.582686
-0.598016
-0.588709
-0.586373
-0.866174
-0.840985
-0.789041
-0.720194
-0.645464
-0.569432
-0.495114
-0.426311
-0.368449
-0.330359
-0.306902
-0.479009
-0.81634
-1.33162
-1.35754
-0.937759
-0.710369
-0.645373
-0.634826
-0.632808
-0.858359
-0.837862
-0.791774
-0.728881
-0.659736
-0.589179
-0.520134
-0.456676
-0.404864
-0.374456
-0.366984
-0.54708
-0.844447
-1.26483
-1.30685
-0.87288
-0.669015
-0.613886
-0.607612
-0.605153
-0.836315
-0.82047
-0.782882
-0.727864
-0.665383
-0.600796
-0.536996
-0.478097
-0.430621
-0.404643
-0.405504
-0.419082
-0.243384
0.128479
0.234967
-0.0932567
-0.404317
-0.493975
-0.499346
-0.490627
-0.801813
-0.791301
-0.762662
-0.717155
-0.662176
-0.603662
-0.544542
-0.488554
-0.442746
-0.416401
-0.416048
-0.342414
-0.153877
0.0925485
-0.102862
-0.536077
-0.633629
-0.584158
-0.517875
-0.529711
-0.760314
-0.754304
-0.735252
-0.699044
-0.651676
-0.59835
-0.54255
-0.487657
-0.439144
-0.409722
-0.421373
-0.514433
-0.866556
-1.50865
-2.05536
-2.40756
-2.33713
-2.01334
-1.68544
-1.52102
-0.719927
-0.716501
-0.706067
-0.678412
-0.63682
-0.587011
-0.532264
-0.475097
-0.420517
-0.378244
-0.374412
-0.489067
-0.820959
-1.28129
-1.68523
-1.80358
-1.64876
-1.37749
-1.13869
-1.00863
-0.687471
-0.685368
-0.680086
-0.660039
-0.622575
-0.573142
-0.516345
-0.452864
-0.385151
-0.31082
-0.242524
-0.163911
-0.0922246
0.098447
0.356294
0.680324
1.00829
1.24281
1.36989
1.4182
-0.659851
-0.658979
-0.657616
-0.645747
-0.611981
-0.560998
-0.499167
-0.427125
-0.344362
-0.247523
-0.123042
0.0492977
0.343458
0.76005
1.2455
1.71491
2.09448
2.34752
2.47684
2.5148
-0.64155
-0.641067
-0.640949
-0.63484
-0.605303
-0.551825
-0.483596
-0.403979
-0.310109
-0.199324
-0.0654889
0.076623
0.329896
0.787369
1.34282
1.85883
2.25529
2.48842
2.59361
2.62276
-0.627554
-0.627132
-0.62707
-0.625467
-0.600982
-0.545455
-0.471136
-0.385417
-0.287974
-0.174236
-0.0493806
0.0912389
0.269432
0.664258
1.14908
1.58266
1.90962
2.09485
2.1766
2.1984
-0.61826
-0.616649
-0.615583
-0.616643
-0.598031
-0.540217
-0.459867
-0.369603
-0.272027
-0.161635
-0.0457441
0.0762424
0.201387
0.464937
0.836802
1.15322
1.39465
1.53155
1.5902
1.6046
-0.620799
-0.619827
-0.62184
-0.624229
-0.601369
-0.532841
-0.444733
-0.351561
-0.25601
-0.15283
-0.0528945
0.0400241
0.126055
0.294345
0.543891
0.763994
0.927891
1.02087
1.06123
1.06919
-0.620572
-0.624921
-0.632876
-0.630911
-0.595343
-0.512172
-0.418511
-0.326647
-0.238158
-0.148463
-0.0685812
-0.00166852
0.0574716
0.168785
0.335445
0.477508
0.580418
0.637512
0.660614
0.664223
-0.562254
-0.569416
-0.579388
-0.574936
-0.534696
-0.45631
-0.371649
-0.291304
-0.216614
-0.143525
-0.0806004
-0.0344507
0.00607761
0.0773213
0.185626
0.276777
0.338187
0.371166
0.383677
0.385145
-0.413864
-0.420317
-0.427503
-0.424657
-0.398037
-0.350874
-0.297173
-0.241767
-0.187024
-0.131994
-0.087302
-0.0587734
-0.0352144
0.0165931
0.0859454
0.141512
0.17714
0.195085
0.201834
0.201787
-0.233278
-0.23665
-0.242185
-0.246415
-0.24331
-0.231258
-0.210974
-0.184562
-0.152873
-0.117421
-0.0888865
-0.0716453
-0.0570455
-0.022557
0.0219107
0.0560034
0.0770746
0.0868568
0.0900637
0.0895538
-0.0919945
-0.0937265
-0.0988507
-0.109373
-0.122837
-0.133354
-0.136824
-0.132124
-0.119038
-0.099555
-0.0817991
-0.071276
-0.0631126
-0.0374745
-0.00891069
0.0110754
0.021551
0.0257499
0.0268892
0.0261444
-0.013834
-0.0148857
-0.0197447
-0.0319011
-0.0507386
-0.0698163
-0.0840989
-0.090997
-0.0897127
-0.0811204
-0.0708946
-0.0640602
-0.0586117
-0.0390717
-0.0201944
-0.00969758
-0.00489639
-0.00318305
-0.00292499
-0.00378854
0.0174481
0.0166675
0.0126863
0.00219162
-0.01484
-0.0336762
-0.0502864
-0.0619519
-0.0668618
-0.0645652
-0.0578473
-0.0507204
-0.0438139
-0.0313455
-0.0203809
-0.0151837
-0.0127056
-0.0119009
-0.0119854
-0.0129393
0.023106
0.022543
0.0196821
0.0119822
-0.00101531
-0.0164442
-0.031296
-0.0431808
-0.0502257
-0.0509528
-0.0451086
-0.0356601
-0.0249946
-0.0163027
-0.0129341
-0.0117294
-0.0108876
-0.0104428
-0.0106601
-0.0116951
0.0175027
0.0171021
0.0151866
0.0100264
0.0010242
-0.01031
-0.0221003
-0.0324547
-0.0395853
-0.0411598
-0.0354808
-0.0237217
-0.0105238
-0.00568503
-0.00705392
-0.00737063
-0.00680585
-0.00583603
-0.00579285
-0.00694006
0.0083168
0.00802018
0.00677846
0.00351265
-0.00237749
-0.0102438
-0.0190213
-0.0273783
-0.033939
-0.0364793
-0.0318274
-0.0200323
-0.00683153
-0.00566316
-0.00833303
-0.00815252
-0.00592457
-0.0037579
-0.00360084
-0.00491195
-0.000734746
-0.000974823
-0.00178413
-0.00377828
-0.00748993
-0.0128076
-0.0192388
-0.026015
-0.0322967
-0.0362717
-0.0347691
-0.0268276
-0.018035
-0.0199223
-0.0222093
-0.0197889
-0.0152408
-0.0118196
-0.0110455
-0.0123249
-0.00800401
-0.00822239
-0.00879906
-0.0100559
-0.0124167
-0.0160489
-0.0208928
-0.0266738
-0.033007
-0.0394584
-0.0437154
-0.0442498
-0.0440069
-0.0476801
-0.0469439
-0.0406372
-0.0341426
-0.0301513
-0.0294828
-0.0306773
-0.0128583
-0.0130652
-0.0135328
-0.0144229
-0.0160394
-0.0187042
-0.0226135
-0.0278646
-0.034752
-0.0440666
-0.0558806
-0.0682938
-0.0802289
-0.0852297
-0.0777943
-0.0677051
-0.0600997
-0.0565314
-0.0559695
-0.0568253
-0.0153301
-0.0155229
-0.0159342
-0.0166787
-0.0179144
-0.0200441
-0.0234129
-0.0283673
-0.0356101
-0.047629
-0.0664096
-0.0904106
-0.114632
-0.116825
-0.103714
-0.0913363
-0.0845309
-0.0819307
-0.0815787
-0.0820288
-0.0158032
-0.0159815
-0.0163602
-0.017061
-0.0181199
-0.0199154
-0.0227565
-0.0272844
-0.0347529
-0.0472862
-0.0693369
-0.101818
-0.131514
-0.129774
-0.113463
-0.10192
-0.0970189
-0.0961234
-0.0959536
-0.0960905
-0.0147304
-0.0148911
-0.0152147
-0.0158414
-0.0168335
-0.0182862
-0.0208039
-0.0246546
-0.0308403
-0.0420882
-0.0619375
-0.0915589
-0.116423
-0.111646
-0.0995923
-0.0933209
-0.0922251
-0.0926891
-0.0926955
-0.0927721
-0.0125039
-0.0126548
-0.0129177
-0.0134557
-0.0142587
-0.0155064
-0.0173577
-0.0203375
-0.0250422
-0.0324884
-0.0447834
-0.0627042
-0.0754944
-0.0712869
-0.0678599
-0.0697688
-0.0724161
-0.0739766
-0.0743489
-0.0744235
-0.00954322
-0.00964494
-0.00978281
-0.0101186
-0.0108013
-0.0118631
-0.0130309
-0.0149338
-0.0173737
-0.0204744
-0.023285
-0.0258517
-0.0271936
-0.0247834
-0.0300979
-0.0382501
-0.0429302
-0.0445469
-0.04536
-0.045662
-0.006457
-0.00652912
-0.00658816
-0.00674909
-0.00714949
-0.00775603
-0.00876816
-0.00949747
-0.0102961
-0.009469
-0.00387304
0.00872508
0.0206126
0.0177794
0.00317625
-0.00926855
-0.0143754
-0.0161127
-0.0172149
-0.017629
-0.00351026
-0.00359575
-0.00360664
-0.00357324
-0.00377168
-0.00416204
-0.00461052
-0.00518811
-0.00498679
-0.00227766
0.00645697
0.0267555
0.0497875
0.040098
0.0180775
0.00698572
0.00500181
0.00459356
0.00262056
0.00193621
-0.00047125
-0.000567233
-0.000705958
-0.000925507
-0.00109192
-0.0011691
-0.00132659
-0.00128935
-0.000964197
-0.000127773
0.00197539
0.0065744
0.0188403
0.0191151
0.0123572
0.00940683
0.00625728
0.00267725
0.00200275
0.00188495
-0.0902797
0.0813212
0.281951
0.455969
0.59566
0.706469
0.798491
0.876379
0.911321
0.888049
0.222159
0.345936
0.478865
0.593997
0.691304
0.77206
0.837394
0.883648
0.906856
0.918828
0.446715
0.531516
0.622228
0.702659
0.771869
0.829766
0.875758
0.909323
0.933512
0.951405
0.610881
0.671199
0.734798
0.792978
0.843761
0.886842
0.922185
0.95034
0.973424
0.991671
0.738698
0.782764
0.829569
0.874151
0.913553
0.94793
0.977323
1.00175
1.02232
1.04013
0.844406
0.877863
0.916527
0.9526
0.985677
1.01529
1.04115
1.06286
1.08084
1.09817
0.937859
0.966878
1.00123
1.03369
1.06393
1.09134
1.11528
1.13514
1.15073
1.16781
1.027
1.05641
1.09065
1.1229
1.15269
1.17943
1.20242
1.221
1.23443
1.25147
1.12265
1.156
1.19278
1.22649
1.25665
1.28293
1.30496
1.3223
1.33422
1.35162
1.23786
1.27578
1.31451
1.34883
1.37825
1.40306
1.42348
1.43941
1.45091
1.46899
1.38293
1.42153
1.45773
1.48846
1.51418
1.53632
1.55541
1.57096
1.58341
1.60141
1.55811
1.58974
1.61596
1.63844
1.65844
1.67719
1.69492
1.71142
1.72678
1.74485
1.74677
1.76398
1.77903
1.79528
1.81121
1.82575
1.83897
1.85291
1.87046
1.89061
1.9285
1.93806
1.94961
1.96043
1.96972
1.97931
1.9901
2.00148
2.01285
2.0282
2.13578
2.13944
2.1245
2.10968
2.10341
2.1091
2.12758
2.1579
2.19008
2.21673
2.44208
2.30722
2.23059
2.18823
2.17081
2.17478
2.20218
2.25859
2.36121
2.58558
0.731042
0.728911
0.724426
0.715796
0.703565
0.691426
0.681183
0.673264
0.667613
0.664314
0.663901
0.666582
0.671639
0.678825
0.688186
0.699707
0.712345
0.72337
0.729477
0.732527
0.655507
0.661352
0.667686
0.672172
0.674633
0.674297
0.671544
0.66771
0.664165
0.661857
0.66165
0.663784
0.667395
0.671645
0.675423
0.677285
0.676333
0.672839
0.667668
0.661045
0.647109
0.649404
0.652804
0.655792
0.657858
0.65934
0.660076
0.659732
0.658669
0.657733
0.657839
0.659198
0.660956
0.662217
0.662362
0.661445
0.659876
0.657525
0.654251
0.651326
0.641631
0.642717
0.644546
0.646915
0.648927
0.650339
0.651337
0.652056
0.652414
0.652576
0.65299
0.653718
0.654249
0.654261
0.653806
0.652924
0.65143
0.649326
0.647226
0.645838
0.636472
0.637135
0.638239
0.639934
0.641703
0.643316
0.644586
0.645565
0.646397
0.647117
0.647755
0.648212
0.648324
0.648091
0.647471
0.646374
0.644912
0.643342
0.642007
0.641223
0.631553
0.632014
0.632796
0.634085
0.635558
0.637054
0.63849
0.639747
0.640823
0.641796
0.642602
0.643055
0.6431
0.642742
0.641976
0.640931
0.639761
0.638594
0.637657
0.637136
0.626796
0.627141
0.627748
0.628807
0.630085
0.631437
0.632843
0.634243
0.635549
0.636732
0.637711
0.63826
0.638311
0.637927
0.637239
0.63639
0.63548
0.634569
0.63387
0.633488
0.622152
0.62242
0.622909
0.623809
0.624962
0.626234
0.627593
0.629029
0.630492
0.631899
0.633088
0.633782
0.633923
0.633665
0.633158
0.632504
0.631779
0.631081
0.630558
0.630265
0.617541
0.617754
0.618161
0.618951
0.620024
0.621245
0.622588
0.624061
0.625641
0.62726
0.628701
0.629613
0.629953
0.6299
0.629592
0.62913
0.628587
0.628065
0.627675
0.627445
0.612886
0.613056
0.613404
0.614122
0.615149
0.616346
0.61771
0.619253
0.620965
0.622806
0.624545
0.625764
0.626382
0.626575
0.626481
0.626213
0.625851
0.62548
0.625199
0.625016
0.608106
0.608243
0.608548
0.609223
0.610234
0.611454
0.612878
0.614532
0.61643
0.618542
0.620647
0.622252
0.623201
0.623674
0.623818
0.62375
0.623561
0.623332
0.623141
0.622994
0.603122
0.603231
0.603508
0.604164
0.605195
0.606481
0.608011
0.609834
0.611986
0.614451
0.617012
0.619081
0.620415
0.621202
0.621607
0.621752
0.621733
0.621639
0.621525
0.621408
0.597857
0.597942
0.598201
0.598864
0.599951
0.601346
0.603031
0.605086
0.607573
0.6105
0.61363
0.616247
0.618032
0.619183
0.619881
0.62026
0.620421
0.620453
0.620408
0.620315
0.59222
0.592282
0.592533
0.593222
0.594398
0.595945
0.597844
0.600199
0.603093
0.606579
0.610404
0.613706
0.616049
0.617641
0.618679
0.619331
0.619691
0.619858
0.619876
0.619803
0.5861
0.58614
0.586388
0.587124
0.588428
0.59018
0.592366
0.595113
0.598541
0.602735
0.607417
0.611541
0.614545
0.61665
0.618078
0.619025
0.619621
0.619928
0.620011
0.619958
0.579378
0.579391
0.579639
0.580444
0.581915
0.583932
0.586481
0.58973
0.593832
0.598903
0.604637
0.609771
0.613568
0.61629
0.618179
0.619472
0.620338
0.620803
0.620954
0.620917
0.571851
0.571856
0.572117
0.573006
0.57469
0.577027
0.580045
0.583927
0.588878
0.59506
0.602093
0.608419
0.613164
0.616623
0.619083
0.62081
0.621983
0.622621
0.622842
0.62282
0.563264
0.563234
0.563537
0.564553
0.566502
0.569253
0.572858
0.57753
0.583524
0.591037
0.599648
0.607475
0.613381
0.617725
0.620874
0.623143
0.624687
0.625533
0.625834
0.625827
0.553329
0.553273
0.553618
0.554807
0.557092
0.560391
0.564757
0.570461
0.577821
0.58706
0.597609
0.607167
0.614413
0.619796
0.623761
0.62666
0.628644
0.629736
0.630122
0.630126
0.541595
0.541512
0.541928
0.543344
0.546057
0.550045
0.555379
0.562385
0.571428
0.582753
0.595657
0.607353
0.61624
0.622885
0.627828
0.631489
0.634017
0.635399
0.635877
0.635885
0.527361
0.527253
0.527788
0.529524
0.53282
0.537748
0.544397
0.553148
0.564406
0.578383
0.594133
0.608289
0.61904
0.627125
0.633217
0.637768
0.640932
0.642639
0.643209
0.643213
0.509634
0.509502
0.510235
0.512456
0.516614
0.522888
0.531366
0.542465
0.556576
0.573831
0.592976
0.610012
0.622901
0.632641
0.640047
0.645589
0.649455
0.651502
0.652155
0.652147
0.48694
0.486797
0.487867
0.490869
0.496365
0.504658
0.515762
0.53008
0.547906
0.569201
0.592344
0.612644
0.627924
0.639479
0.648324
0.65499
0.659602
0.661981
0.662697
0.662667
0.456941
0.456825
0.45852
0.462919
0.470697
0.482187
0.497185
0.51596
0.538576
0.564772
0.592497
0.616397
0.63426
0.647771
0.658139
0.665999
0.671341
0.674
0.674746
0.674687
0.41553
0.415586
0.418675
0.425976
0.43797
0.454697
0.475478
0.500264
0.528861
0.560792
0.593622
0.621389
0.64196
0.657502
0.669491
0.678588
0.684578
0.687414
0.68814
0.688044
0.354995
0.356209
0.363803
0.377546
0.397267
0.42232
0.451244
0.483705
0.519402
0.557756
0.596026
0.62777
0.651088
0.668675
0.682263
0.69251
0.699063
0.701915
0.702504
0.702367
0.28273
0.284579
0.29907
0.322806
0.353403
0.388265
0.42611
0.466818
0.510195
0.555734
0.600449
0.637287
0.664372
0.684892
0.700669
0.712451
0.719797
0.722831
0.723512
0.723499
0.208131
0.214448
0.235823
0.269721
0.310573
0.354996
0.401748
0.450749
0.501903
0.554772
0.606172
0.648351
0.679361
0.703001
0.721421
0.73502
0.743041
0.745746
0.746252
0.746339
0.14736
0.155878
0.181928
0.222824
0.271564
0.324082
0.37882
0.435568
0.494132
0.554051
0.611838
0.659019
0.69366
0.720052
0.740483
0.755325
0.763698
0.766881
0.767915
0.768074
0.0978441
0.106948
0.136513
0.182553
0.23736
0.296383
0.357834
0.421393
0.486695
0.553158
0.61692
0.668743
0.706658
0.735467
0.757664
0.773661
0.782939
0.786823
0.788073
0.788253
0.0561738
0.0655447
0.0975063
0.147489
0.207234
0.271644
0.338787
0.408276
0.479597
0.552041
0.621307
0.677387
0.718258
0.749143
0.772751
0.789674
0.799782
0.804176
0.805613
0.805796
0.0199537
0.0294299
0.0631883
0.116329
0.180164
0.249163
0.321268
0.395995
0.47274
0.55065
0.625008
0.684999
0.7285
0.761081
0.785664
0.803222
0.813993
0.818828
0.820419
0.820639
-0.0124126
-0.00290502
0.0322176
0.088064
0.155336
0.228291
0.304778
0.384211
0.46591
0.548894
0.628029
0.691664
0.737498
0.771486
0.79685
0.814967
0.826181
0.831388
0.833065
0.833301
-0.0421148
-0.0325713
0.00365343
0.0618378
0.132079
0.208529
0.288907
0.372606
0.458882
0.546645
0.630332
0.697418
0.7454
0.780617
0.80664
0.825145
0.836613
0.842093
0.843839
0.844071
-0.0699252
-0.060338
-0.023097
0.037027
0.109928
0.189487
0.273355
0.360947
0.451477
0.543776
0.631869
0.702313
0.752358
0.788732
0.815362
0.834173
0.845799
0.851406
0.853153
0.853404
-0.0963251
-0.0866808
-0.0485465
0.0132938
0.0885648
0.170883
0.257907
0.34906
0.443557
0.540181
0.632583
0.706377
0.758509
0.796073
0.823339
0.842477
0.854255
0.859893
0.861628
0.861752
-0.12176
-0.111963
-0.073007
-0.00963232
0.0677522
0.152537
0.24241
0.336825
0.435024
0.535774
0.632416
0.709631
0.763957
0.802817
0.830785
0.850256
0.862154
0.867747
0.869423
0.869549
-0.14643
-0.136408
-0.0967466
-0.0319091
0.0473391
0.134322
0.226774
0.324175
0.425808
0.530487
0.631319
0.712074
0.768779
0.80909
0.837858
0.85769
0.869681
0.875215
0.876785
0.876884
-0.170419
-0.160193
-0.11978
-0.0536344
0.027245
0.116189
0.210956
0.311071
0.415874
0.524264
0.629232
0.713684
0.77301
0.814985
0.844673
0.864892
0.876913
0.882299
0.883732
0.883767
-0.193874
-0.183351
-0.142226
-0.0748839
0.00743937
0.0981226
0.194953
0.297516
0.40522
0.517088
0.626094
0.714398
0.776647
0.820566
0.851324
0.871924
0.883892
0.889048
0.890274
0.890234
-0.216764
-0.205957
-0.16413
-0.095693
-0.0120744
0.0801412
0.178805
0.283552
0.393871
0.508947
0.62185
0.714127
0.779638
0.825871
0.857913
0.878883
0.890623
0.895387
0.896376
0.896273
-0.239153
-0.228031
-0.185443
-0.116036
-0.0312732
0.0622818
0.16256
0.269239
0.381883
0.499865
0.61646
0.712776
0.781879
0.830891
0.864575
0.88593
0.897185
0.901321
0.902004
0.901839
-0.26086
-0.249492
-0.206163
-0.135872
-0.0501064
0.0446196
0.146286
0.254651
0.36933
0.4899
0.609907
0.710247
0.783227
0.835546
0.871443
0.89339
0.903831
0.906888
0.907107
0.906886
-0.282033
-0.270308
-0.226281
-0.155185
-0.0685402
0.0271978
0.130077
0.239871
0.356303
0.47914
0.602207
0.706434
0.783491
0.839637
0.878548
0.901746
0.911222
0.912446
0.911702
0.911381
-0.302508
-0.290459
-0.245765
-0.173931
-0.0864968
0.010102
0.114016
0.225022
0.342914
0.467655
0.593411
0.701248
0.782456
0.842834
0.885645
0.911406
0.920667
0.919442
0.916399
0.915095
-0.322349
-0.309985
-0.264568
-0.192056
-0.103939
-0.00659823
0.0981885
0.210184
0.32928
0.455589
0.583601
0.694618
0.779916
0.844686
0.892024
0.922045
0.933498
0.931357
0.924223
0.914818
-0.341473
-0.328853
-0.282787