/*--------------------------------*- C++ -*----------------------------------*\
| =========                 |                                                 |
| \\      /  F ield         | OpenFOAM: The Open Source CFD Toolbox           |
|  \\    /   O peration     | Version:  4.0                                   |
|   \\  /    A nd           | Web:      www.OpenFOAM.org                      |
|    \\/     M anipulation  |                                                 |
\*---------------------------------------------------------------------------*/
FoamFile
{
    version     2.0;
    format      ascii;
    class       volScalarField;
    location    "2";
    object      T;
}
// * * * * * * * * * * * * * * * * * * * * * * * * * * * * * * * * * * * * * //

dimensions      [0 0 0 1 0 0 0];

internalField   nonuniform List<scalar> 
1000
(
0
0
0
0
0
0
0
0
0
0
0
0
0
0
0
0
0
0
0
0
0
0
0
0
0
0
0
0
0
0
0
0
0
0
0
0
0
0
0
0
0
0
0
0
0
0
0
0
0
0
0
0
0
0
0
0
0
0
0
0
0
0
0
0
0
0
0
0
0
0
0
0
0
0
0
0
0
0
0
0
0
0
0
0
0
0
0
0
0
0
0
0
0
0
0
0
0
0
0
0
0
0
0
0
0
0
0
0
0
0
0
0
0
0
0
0
0
0
0
0
0
0
0
0
0
0
0
0
0
0
0
0
0
0
0
0
0
0
0
0
0
0
0
0
0
0
0
0
0
0
0
0
0
0
0
0
0
0
0
0
0
0
0
0
0
0
0
0
0
0
0
0
0
0
0
0
0
0
0
0
0
0
0
0
0
0
0
0
0
0
0
0
0
0
0
0
0
0
0
0
0
0
0
0
0
0
0
0
0
0
0
0
0
0
0
0
0
0
0
0
0
0
0
0
0
0
0
0
2.47033e-323
1.56619e-321
8.38429e-320
4.4912e-318
2.40016e-316
1.27989e-314
6.81006e-313
3.6155e-311
1.91522e-309
1.01227e-307
5.33818e-306
2.80867e-304
1.4744e-302
7.72193e-301
4.03486e-299
2.10336e-297
1.09389e-295
5.67551e-294
2.93762e-292
1.51684e-290
7.8132e-289
4.01473e-287
2.05784e-285
1.05218e-283
5.3664e-282
2.73011e-280
1.3854e-278
7.01224e-277
3.54013e-275
1.7826e-273
8.95264e-272
4.48438e-270
2.24026e-268
1.11617e-266
5.54612e-265
2.74831e-263
1.35816e-261
6.69319e-260
3.28932e-258
1.61197e-256
7.87732e-255
3.83848e-253
1.86505e-251
9.03563e-250
4.36472e-248
2.1022e-246
1.00948e-244
4.83301e-243
2.30688e-241
1.09776e-239
5.20777e-238
2.46292e-236
1.16115e-234
5.45703e-233
2.55648e-231
1.1938e-229
5.55669e-228
2.57799e-226
1.1921e-224
5.49419e-223
2.52369e-221
1.15531e-219
5.27079e-218
2.39639e-216
1.08575e-214
4.90205e-213
2.2054e-211
9.88657e-210
4.41608e-208
1.96538e-206
8.71489e-205
3.85004e-203
1.6945e-201
7.42983e-200
3.24532e-198
1.41209e-196
6.12038e-195
2.64234e-193
1.13625e-191
4.86658e-190
2.07594e-188
8.81925e-187
3.73127e-185
1.57207e-183
6.59565e-182
2.75548e-180
1.14623e-178
4.74743e-177
1.95768e-175
8.03713e-174
3.28485e-172
1.33648e-170
5.41284e-169
2.18213e-167
8.75598e-166
3.49686e-164
1.38988e-162
5.49772e-161
2.16405e-159
8.47632e-158
3.30355e-156
1.28104e-154
4.94228e-153
1.89693e-151
7.2428e-150
2.75085e-148
1.03922e-146
3.90481e-145
1.45921e-143
5.42286e-142
2.00404e-140
7.36416e-139
2.69058e-137
9.77342e-136
3.52933e-134
1.26692e-132
4.52054e-131
1.60316e-129
5.6504e-128
1.97907e-126
6.88788e-125
2.38187e-123
8.18319e-122
2.79293e-120
9.46877e-119
3.18847e-117
1.06632e-115
3.54134e-114
1.16783e-112
3.82368e-111
1.24288e-109
4.01032e-108
1.28435e-106
4.08222e-105
1.28756e-103
4.0295e-102
1.2511e-100
3.8534e-99
1.1772e-97
3.56661e-96
1.07154e-94
3.19187e-93
9.42567e-92
2.75897e-90
8.00367e-89
2.30077e-87
6.55294e-86
1.84888e-84
5.16681e-83
1.4299e-81
3.91822e-80
1.0629e-78
2.85392e-77
7.58327e-76
1.99368e-74
5.18503e-73
1.33371e-71
3.39227e-70
8.53001e-69
2.12003e-67
5.20678e-66
1.26337e-64
3.02772e-63
7.16504e-62
1.67389e-60
3.85942e-59
8.77978e-58
1.97009e-56
4.35911e-55
9.5079e-54
2.04365e-52
4.32729e-51
9.02325e-50
1.8522e-48
3.74136e-47
7.43383e-46
1.45232e-44
2.78861e-43
5.26014e-42
9.74286e-41
1.7711e-39
3.15822e-38
5.52142e-37
9.45852e-36
1.58672e-34
2.60503e-33
4.18284e-32
6.56412e-31
1.00602e-29
1.50463e-28
2.19424e-27
3.11741e-26
4.31077e-25
5.79614e-24
7.5699e-23
9.59223e-22
1.17789e-20
1.39986e-19
1.60789e-18
1.78226e-17
1.90336e-16
1.955e-15
1.9276e-14
1.82064e-13
1.64354e-12
1.41446e-11
1.15732e-10
8.97491e-10
6.57405e-09
4.531e-08
2.92573e-07
1.76126e-06
9.82961e-06
5.05344e-05
0.000237553
0.00101235
0.0038721
0.013139
0.0390257
0.0999558
0.217374
0.396262
0.603738
0.782626
0.900044
0.960974
0.986861
0.996128
0.998988
0.999762
0.999949
0.99999
0.999998
1
1
1
1
1
1
1
1
1
1
1
1
1
1
1
1
1
1
1
1
1
1
1
1
1
1
1
1
1
1
1
1
1
1
1
1
1
1
1
1
1
1
1
1
1
1
1
1
1
1
1
1
1
1
1
1
1
1
1
1
1
1
1
1
1
1
1
1
1
1
1
1
1
1
1
1
1
1
0.999998
0.99999
0.999949
0.999762
0.998988
0.996128
0.986861
0.960974
0.900044
0.782626
0.603738
0.396262
0.217374
0.0999558
0.0390257
0.013139
0.0038721
0.00101235
0.000237553
5.05344e-05
9.82961e-06
1.76126e-06
2.92573e-07
4.531e-08
6.57405e-09
8.97491e-10
1.15732e-10
1.41446e-11
1.64354e-12
1.82064e-13
1.9276e-14
1.955e-15
1.90336e-16
1.78226e-17
1.60789e-18
1.39986e-19
1.17789e-20
9.59223e-22
7.5699e-23
5.79614e-24
4.31077e-25
3.11741e-26
2.19424e-27
1.50463e-28
1.00602e-29
6.56412e-31
4.18284e-32
2.60503e-33
1.58672e-34
9.45852e-36
5.52142e-37
3.15822e-38
1.7711e-39
9.74286e-41
5.26014e-42
2.78861e-43
1.45232e-44
7.43383e-46
3.74136e-47
1.8522e-48
9.02325e-50
4.32729e-51
2.04365e-52
9.5079e-54
4.35911e-55
1.97009e-56
8.77978e-58
3.85942e-59
1.67389e-60
7.16504e-62
3.02772e-63
1.26337e-64
5.20678e-66
2.12003e-67
8.53001e-69
3.39227e-70
1.33371e-71
5.18503e-73
1.99368e-74
7.58327e-76
2.85392e-77
1.0629e-78
3.91822e-80
1.4299e-81
5.16681e-83
1.84888e-84
6.55294e-86
2.30077e-87
8.00367e-89
2.75897e-90
9.42567e-92
3.19187e-93
1.07154e-94
3.56661e-96
1.1772e-97
3.8534e-99
1.2511e-100
4.0295e-102
1.28756e-103
4.08222e-105
1.28435e-106
4.01032e-108
1.24288e-109
3.82368e-111
1.16783e-112
3.54134e-114
1.06632e-115
3.18847e-117
9.46877e-119
2.79293e-120
8.18319e-122
2.38187e-123
6.88788e-125
1.97907e-126
5.6504e-128
1.60316e-129
4.52054e-131
1.26692e-132
3.52933e-134
9.77342e-136
2.69058e-137
7.36416e-139
2.00404e-140
5.42286e-142
1.45921e-143
3.90481e-145
1.03922e-146
2.75085e-148
7.2428e-150
1.89693e-151
4.94228e-153
1.28104e-154
3.30355e-156
8.47632e-158
2.16405e-159
5.49772e-161
1.38988e-162
3.49686e-164
8.75598e-166
2.18213e-167
5.41284e-169
1.33648e-170
3.28485e-172
8.03713e-174
1.95768e-175
4.74743e-177
1.14623e-178
2.75548e-180
6.59565e-182
1.57207e-183
3.73127e-185
8.81925e-187
2.07594e-188
4.86658e-190
1.13625e-191
2.64234e-193
6.12038e-195
1.41209e-196
3.24532e-198
7.42983e-200
1.6945e-201
3.85004e-203
8.71489e-205
1.96538e-206
4.41608e-208
9.88657e-210
2.2054e-211
4.90205e-213
1.08575e-214
2.39639e-216
5.27079e-218
1.15531e-219
2.52369e-221
5.49419e-223
1.1921e-224
2.57799e-226
5.55669e-228
1.1938e-229
2.55648e-231
5.45703e-233
1.16115e-234
2.46292e-236
5.20777e-238
1.09776e-239
2.30688e-241
4.83301e-243
1.00948e-244
2.1022e-246
4.36472e-248
9.03563e-250
1.86505e-251
3.83848e-253
7.87732e-255
1.61197e-256
3.28932e-258
6.69319e-260
1.35816e-261
2.74831e-263
5.54612e-265
1.11617e-266
2.24026e-268
4.48438e-270
8.95264e-272
1.7826e-273
3.54013e-275
7.01224e-277
1.3854e-278
2.73011e-280
5.3664e-282
1.05218e-283
2.05784e-285
4.01473e-287
7.8132e-289
1.51684e-290
2.93762e-292
5.67551e-294
1.09389e-295
2.10336e-297
4.03486e-299
7.72193e-301
1.4744e-302
2.80867e-304
5.33818e-306
1.01227e-307
1.91522e-309
3.6155e-311
6.81006e-313
1.27989e-314
2.40016e-316
4.4912e-318
8.3838e-320
1.56619e-321
2.47033e-323
0
0
0
0
0
0
0
0
0
0
0
0
0
0
0
0
0
0
0
0
0
0
0
0
0
0
0
0
0
0
0
0
0
0
0
0
0
0
0
0
0
0
0
0
0
0
0
0
0
0
0
0
0
0
0
0
0
0
0
0
0
0
0
0
0
0
0
0
0
0
0
0
0
0
0
0
0
0
0
0
0
0
0
0
0
0
0
0
0
0
0
0
0
0
0
0
0
0
0
0
0
0
0
0
0
0
0
0
0
0
0
0
0
0
0
0
0
0
0
0
0
0
0
0
0
0
0
0
0
0
0
0
0
0
0
0
0
0
0
0
0
0
0
0
0
0
0
0
0
0
0
0
0
0
0
0
0
0
0
0
0
0
0
0
0
0
0
0
0
0
0
0
0
0
0
0
0
0
0
0
0
0
0
0
0
0
0
0
0
0
0
0
0
0
0
0
0
0
0
0
0
0
0
0
0
0
0
0
0
0
0
0
0
0
0
0
0
0
0
0
0
0
0
0
0
0
0
0
)
;

boundaryField
{
    sides
    {
        type            zeroGradient;
    }
    empty
    {
        type            empty;
    }
}


// ************************************************************************* //
