/*--------------------------------*- C++ -*----------------------------------*\
| =========                 |                                                 |
| \\      /  F ield         | OpenFOAM: The Open Source CFD Toolbox           |
|  \\    /   O peration     | Version:  4.0                                   |
|   \\  /    A nd           | Web:      www.OpenFOAM.org                      |
|    \\/     M anipulation  |                                                 |
\*---------------------------------------------------------------------------*/
FoamFile
{
    version     2.0;
    format      ascii;
    class       volScalarField;
    location    "13";
    object      p;
}
// * * * * * * * * * * * * * * * * * * * * * * * * * * * * * * * * * * * * * //

dimensions      [0 2 -2 0 0 0 0];

internalField   nonuniform List<scalar> 
8800
(
0.422878
0.375123
0.336507
0.307579
0.286794
0.272062
0.261579
0.254195
0.249418
0.247282
0.248326
0.252205
0.258533
0.267559
0.280103
0.297662
0.322308
0.356147
0.398587
0.457286
0.254031
0.26172
0.269297
0.272671
0.27125
0.2663
0.259956
0.253996
0.249345
0.24648
0.246049
0.248258
0.25242
0.25805
0.264532
0.270561
0.274018
0.273179
0.26761
0.258836
0.23227
0.238483
0.24273
0.245838
0.248044
0.248791
0.24783
0.245867
0.243915
0.242907
0.243624
0.245651
0.248064
0.249892
0.250207
0.248748
0.246158
0.242564
0.237883
0.234102
0.22623
0.228949
0.231941
0.234618
0.236506
0.237885
0.238802
0.239037
0.238762
0.238603
0.239075
0.23988
0.240336
0.240008
0.23902
0.237561
0.235375
0.232457
0.229834
0.228328
0.220742
0.222207
0.22431
0.226731
0.228874
0.230508
0.2317
0.232624
0.23331
0.233795
0.234097
0.234114
0.233745
0.233017
0.231853
0.230112
0.227901
0.225578
0.224004
0.223208
0.215741
0.216667
0.218445
0.220677
0.222932
0.225039
0.226758
0.227992
0.228863
0.229486
0.229859
0.229832
0.229321
0.228228
0.226544
0.224525
0.222394
0.220358
0.219165
0.218708
0.211947
0.21246
0.213924
0.215859
0.217712
0.219404
0.221027
0.222553
0.22382
0.224744
0.225119
0.22489
0.224134
0.223022
0.22171
0.220164
0.218368
0.21665
0.215765
0.215568
0.210046
0.210326
0.211264
0.212625
0.214068
0.215561
0.217024
0.218378
0.219611
0.22062
0.221145
0.221083
0.220586
0.21974
0.218654
0.217473
0.216244
0.215152
0.21463
0.214535
0.208436
0.208595
0.209079
0.209813
0.210817
0.211987
0.213205
0.214552
0.215875
0.217033
0.217719
0.217819
0.217488
0.216947
0.216168
0.215404
0.214838
0.214343
0.214091
0.214032
0.206034
0.206136
0.206448
0.20697
0.207545
0.208351
0.209404
0.210597
0.211886
0.213156
0.21407
0.214465
0.214479
0.214264
0.214023
0.213776
0.213474
0.213222
0.213089
0.213046
0.202906
0.202966
0.203226
0.203712
0.204337
0.204993
0.206031
0.207249
0.208631
0.210093
0.211289
0.211981
0.212267
0.212297
0.212301
0.212157
0.21196
0.211785
0.211716
0.211694
0.199415
0.19944
0.19965
0.200083
0.20062
0.201502
0.202409
0.203616
0.205107
0.206817
0.20837
0.20944
0.210092
0.210465
0.210534
0.210615
0.210547
0.210466
0.21045
0.210439
0.195663
0.195686
0.195867
0.196271
0.196855
0.197639
0.198671
0.200024
0.201738
0.203799
0.205792
0.207276
0.20827
0.208901
0.209254
0.209426
0.20947
0.209482
0.2095
0.209491
0.191509
0.19154
0.191708
0.192089
0.192675
0.19351
0.194667
0.19623
0.19827
0.200806
0.203345
0.205311
0.206681
0.207603
0.208187
0.208535
0.208726
0.208831
0.208878
0.208868
0.186809
0.186834
0.187031
0.187423
0.188063
0.189009
0.19036
0.192229
0.194718
0.197866
0.201077
0.203619
0.205433
0.206685
0.207514
0.208041
0.208364
0.208548
0.20862
0.208608
0.181434
0.181464
0.181694
0.182155
0.182892
0.184019
0.185651
0.187938
0.191019
0.194952
0.199003
0.202242
0.204597
0.20622
0.207314
0.20803
0.20848
0.208736
0.208834
0.208819
0.175213
0.175247
0.175526
0.176092
0.177014
0.1784
0.180421
0.183266
0.187118
0.192054
0.197158
0.201257
0.204222
0.206295
0.207699
0.208622
0.209207
0.20954
0.209665
0.209647
0.167943
0.167985
0.168337
0.169055
0.170225
0.171973
0.174513
0.178102
0.182954
0.18916
0.195569
0.200707
0.204432
0.207038
0.208807
0.209973
0.210711
0.211129
0.211286
0.211264
0.15934
0.159395
0.159853
0.160777
0.162277
0.164509
0.167757
0.172322
0.178458
0.186269
0.194295
0.200708
0.205352
0.208601
0.21081
0.212267
0.213188
0.21371
0.213902
0.213873
0.149012
0.149087
0.149683
0.150885
0.152832
0.155738
0.159928
0.165761
0.173553
0.183389
0.193413
0.201381
0.207138
0.211167
0.21391
0.215724
0.21687
0.217519
0.217757
0.217716
0.13642
0.136527
0.137313
0.138911
0.141482
0.145284
0.150724
0.158249
0.168185
0.180557
0.193025
0.202873
0.209975
0.214946
0.218339
0.220589
0.222009
0.222803
0.223098
0.223047
0.120779
0.12093
0.121993
0.124165
0.127627
0.132687
0.139868
0.149654
0.162335
0.177851
0.193269
0.205362
0.214071
0.220179
0.224365
0.227159
0.228937
0.22992
0.230277
0.230211
0.100897
0.10111
0.102616
0.105683
0.110486
0.117404
0.127031
0.139832
0.156023
0.175389
0.194307
0.209033
0.219641
0.227118
0.232276
0.235749
0.237981
0.23922
0.239654
0.239569
0.0749332
0.075266
0.0775322
0.0820864
0.089012
0.0987328
0.111841
0.128701
0.14934
0.173328
0.196305
0.214052
0.226866
0.23598
0.242349
0.246699
0.249535
0.251126
0.251679
0.251564
0.0397665
0.0403817
0.0441778
0.0515061
0.0620225
0.0761103
0.094206
0.116422
0.14253
0.171899
0.199432
0.220538
0.235848
0.246889
0.254768
0.260292
0.263986
0.26608
0.266791
0.266632
-0.0108297
-0.0089591
-0.00117735
0.0118856
0.0287155
0.0495567
0.0745329
0.103497
0.136036
0.171405
0.203844
0.228534
0.246557
0.259783
0.269495
0.276575
0.281538
0.284516
0.285538
0.285316
-0.0868855
-0.0769066
-0.0590858
-0.0357698
-0.00941594
0.0203998
0.0537678
0.0905053
0.13019
0.172123
0.209935
0.238654
0.25987
0.275821
0.287995
0.29742
0.304603
0.309373
0.311312
0.311456
-0.167895
-0.14575
-0.117344
-0.0837462
-0.0477128
-0.00884638
0.0329588
0.0776211
0.124832
0.17404
0.218242
0.252057
0.277459
0.297049
0.312532
0.325022
0.335068
0.343435
0.347333
0.347636
-0.231006
-0.206589
-0.16991
-0.128139
-0.0836201
-0.0364369
0.0133374
0.0655697
0.119965
0.176007
0.226001
0.264193
0.292965
0.315279
0.333004
0.347336
0.358859
0.368052
0.371605
0.372179
-0.281963
-0.255429
-0.214148
-0.166516
-0.115528
-0.0615951
-0.00495199
0.0540697
0.115018
0.177278
0.232372
0.274112
0.305274
0.329176
0.347912
0.362884
0.374847
0.383894
0.387781
0.388346
-0.323168
-0.296014
-0.251323
-0.199332
-0.143354
-0.0839976
-0.0216454
0.0432063
0.10995
0.177748
0.237236
0.281839
0.314742
0.339665
0.358954
0.374152
0.386136
0.395002
0.399134
0.399706
-0.358102
-0.330615
-0.28355
-0.228087
-0.168073
-0.104221
-0.0370056
0.0329481
0.104848
0.177667
0.241196
0.288364
0.322737
0.348425
0.368015
0.383218
0.395077
0.403721
0.407911
0.408484
-0.388695
-0.36113
-0.31226
-0.253954
-0.190534
-0.122812
-0.0513664
0.023118
0.099733
0.177227
0.244498
0.294009
0.329703
0.356053
0.375908
0.39114
0.402915
0.411368
0.415559
0.416142
-0.416382
-0.388748
-0.338418
-0.277761
-0.211476
-0.140423
-0.0652185
0.0133654
0.0942976
0.17615
0.247064
0.298964
0.336046
0.363137
0.383327
0.39865
0.410372
0.41869
0.422812
0.423418
-0.442049
-0.414324
-0.362763
-0.300108
-0.23135
-0.15739
-0.0788771
0.0033794
0.0883339
0.174452
0.249071
0.303488
0.342095
0.370045
0.390664
0.406152
0.417878
0.426095
0.4301
0.430779
-0.466393
-0.438475
-0.385837
-0.321415
-0.2505
-0.173996
-0.0925367
-0.00690238
0.0818412
0.172107
0.250493
0.307622
0.347973
0.376964
0.398151
0.4139
0.425692
0.433841
0.437716
0.438408
-0.489598
-0.461454
-0.407862
-0.342004
-0.269169
-0.190401
-0.106291
-0.0175909
0.0746757
0.168965
0.25125
0.311352
0.353737
0.384008
0.405938
0.422071
0.434005
0.44212
0.44585
0.446506
-0.512047
-0.483572
-0.429177
-0.362011
-0.287482
-0.20673
-0.120271
-0.0288049
0.0667424
0.164943
0.251231
0.314599
0.359357
0.391209
0.414102
0.430763
0.44293
0.451067
0.454641
0.455204
-0.533777
-0.504997
-0.449968
-0.38153
-0.30554
-0.223058
-0.134521
-0.0405549
0.0580186
0.159968
0.250311
0.31723
0.364721
0.398505
0.422636
0.440018
0.452536
0.46074
0.464196
0.464594
-0.554858
-0.525726
-0.470143
-0.400606
-0.32335
-0.239356
-0.149006
-0.0528384
0.048477
0.153955
0.248349
0.319056
0.369645
0.405755
0.431466
0.449819
0.462839
0.471164
0.474519
0.47472
-0.575349
-0.545912
-0.489707
-0.419238
-0.340902
-0.2556
-0.163694
-0.0656131
0.0381366
0.146868
0.245208
0.319857
0.373928
0.412823
0.44052
0.460112
0.473791
0.482263
0.485501
0.485511
-0.595305
-0.565479
-0.508695
-0.437419
-0.35815
-0.271751
-0.178523
-0.0788128
0.0270494
0.138698
0.240776
0.319407
0.377304
0.419496
0.449674
0.470846
0.48532
0.493938
0.496941
0.496785
-0.614554
-0.584364
-0.527061
-0.455103
-0.375044
-0.287726
-0.193414
-0.0923464
0.0152948
0.129477
0.234973
0.317489
0.37938
0.425371
0.458693
0.481972
0.497394
0.506037
0.5087
0.508352
-0.633089
-0.602569
-0.544786
-0.472236
-0.391521
-0.30346
-0.20827
-0.106122
0.00297163
0.119272
0.227757
0.313922
0.379792
0.429969
0.46725
0.493511
0.510202
0.518464
0.520401
0.519848
-0.650948
-0.620026
-0.561848
-0.488784
-0.407522
-0.318875
-0.223004
-0.120025
-0.00980597
0.108183
0.219148
0.308571
0.378209
0.432668
0.474731
0.505385
0.524402
0.531725
0.531678
0.530811
-0.668004
-0.636761
-0.578199
-0.504691
-0.422998
-0.333895
-0.237523
-0.133943
-0.0229011
0.0963456
0.209228
0.301365
0.374363
0.432758
0.480021
0.516876
0.540919
0.548433
0.543828
0.541245
-0.684349
-0.652762
-0.593864
-0.519982
-0.437981
-0.348567
-0.251882
-0.147933
-0.0363792
0.0837005
0.197893
0.292097
0.36794
0.429431
0.481381
0.525825
0.558916
0.573868
0.567286
0.544359
-0.699933
-0.668043
-0.608956
-0.534825
-0.452736
-0.363193
-0.266465
-0.16245
-0.0507647
0.0695973
0.184442
0.279873
0.358052
0.421481
0.475544
0.526366
0.567282
0.583734
0.569946
0.54258
-0.714635
-0.682798
-0.623317
-0.548969
-0.466996
-0.377448
-0.281053
-0.177173
-0.0657283
0.0543762
0.169115
0.264644
0.344339
0.408696
0.458621
0.508213
0.543263
0.547672
0.480216
0.43549
-0.727871
-0.697787
-0.636549
-0.561861
-0.48012
-0.390905
-0.295374
-0.191889
-0.0810498
0.0382216
0.151992
0.246423
0.326221
0.391951
0.43238
0.460421
0.48067
0.440205
0.363545
0.312917
-0.780031
-0.709771
-0.648458
-0.575019
-0.493461
-0.404861
-0.309507
-0.206839
-0.0970203
0.0208134
0.132688
0.224969
0.301837
0.372252
0.38578
0.389329
0.361579
0.294751
0.206705
0.157715
-0.737456
-0.723568
-0.665081
-0.593672
-0.51241
-0.42456
-0.33062
-0.229314
-0.121418
-0.00644227
0.10106
0.188156
0.256744
0.314099
0.319401
0.19572
0.0765327
-0.00510896
-0.0911623
-0.0440636
-0.764416
-0.737417
-0.67958
-0.607819
-0.527288
-0.440025
-0.346283
-0.246073
-0.13978
-0.0273464
0.0762228
0.157825
0.218806
0.247487
0.19043
0.0176776
-0.14118
-0.251897
-0.373058
-0.298599
-0.78441
-0.753858
-0.695935
-0.623767
-0.543574
-0.456746
-0.363547
-0.264617
-0.160232
-0.0508663
0.0480809
0.123033
0.173362
0.174301
0.0487287
-0.182223
-0.381549
-0.53315
-0.707503
-0.640401
-0.803173
-0.771302
-0.712523
-0.63982
-0.55975
-0.473357
-0.381062
-0.283522
-0.18122
-0.0752124
0.0185176
0.0862315
0.122383
0.0836636
-0.117346
-0.387515
-0.646473
-0.877237
-1.13509
-1.11314
-0.820516
-0.788655
-0.729445
-0.656314
-0.576375
-0.490487
-0.39919
-0.303144
-0.203104
-0.100685
-0.0125578
0.0476587
0.0672759
-0.0185572
-0.278755
-0.579144
-0.892371
-1.17708
-1.52105
-1.89541
-0.837535
-0.806079
-0.746756
-0.673555
-0.593754
-0.508366
-0.418023
-0.323488
-0.225725
-0.12699
-0.0445583
0.0077191
0.00959213
-0.127065
-0.424016
-0.731134
-1.05067
-1.32355
-1.44188
-1.627
-0.854829
-0.823819
-0.76474
-0.691701
-0.612171
-0.527396
-0.438126
-0.345258
-0.250056
-0.155403
-0.0791337
-0.0354904
-0.0535878
-0.255087
-0.554568
-0.84384
-1.10808
-1.2832
-1.31851
-1.35011
-0.872673
-0.842098
-0.783415
-0.71068
-0.6316
-0.547604
-0.459635
-0.368725
-0.276479
-0.186443
-0.116749
-0.0823007
-0.130335
-0.377151
-0.675652
-0.938182
-1.14512
-1.24461
-1.27143
-1.27279
-0.891194
-0.860973
-0.802594
-0.730362
-0.65184
-0.568835
-0.482399
-0.393773
-0.304799
-0.219816
-0.156941
-0.132859
-0.21217
-0.489889
-0.79394
-1.04483
-1.18616
-1.23137
-1.23829
-1.24069
-0.910171
-0.8803
-0.822251
-0.75053
-0.67272
-0.590876
-0.506226
-0.420168
-0.334805
-0.255356
-0.19958
-0.187574
-0.298891
-0.596752
-0.904437
-1.17682
-1.21701
-1.2318
-1.24696
-1.24959
-0.929308
-0.899796
-0.842164
-0.770925
-0.693919
-0.613443
-0.530808
-0.447595
-0.36625
-0.292596
-0.244806
-0.243433
-0.390814
-0.693848
-0.995842
-1.34948
-1.41407
-1.32067
-1.28117
-1.27044
-0.947925
-0.918721
-0.861907
-0.791112
-0.715059
-0.63607
-0.555735
-0.475713
-0.398761
-0.330999
-0.291759
-0.29676
-0.487303
-0.778129
-1.00658
-1.33637
-1.44243
-1.29421
-1.24701
-1.23243
-0.965438
-0.936777
-0.880542
-0.81049
-0.735483
-0.658221
-0.580411
-0.503931
-0.431656
-0.369683
-0.339317
-0.349892
-0.590668
-0.847282
-0.849224
-0.826299
-1.02213
-1.15701
-1.21306
-1.21541
-0.981171
-0.953114
-0.897563
-0.828175
-0.754311
-0.67897
-0.603996
-0.531489
-0.464
-0.408123
-0.385718
-0.403891
-0.720953
-1.01191
-0.9369
-0.629043
-0.889013
-1.24955
-1.43928
-1.46493
-0.993848
-0.966623
-0.91185
-0.843073
-0.770475
-0.697282
-0.62552
-0.557308
-0.49476
-0.444849
-0.428515
-0.463476
-0.899813
-1.50237
-2.03712
-2.14097
-2.20913
-2.11071
-2.05448
-2.04742
-1.00219
-0.975997
-0.92201
-0.853938
-0.782723
-0.711921
-0.64385
-0.580319
-0.522751
-0.477422
-0.465201
-0.526881
-1.1083
-2.08247
-3.51163
-4.28241
-4.37355
-3.95291
-3.37476
-3.11738
-1.00453
-0.979538
-0.926557
-0.859191
-0.789549
-0.721513
-0.6576
-0.599837
-0.548742
-0.505501
-0.492048
-0.562404
-1.08282
-2.12114
-3.52876
-4.48491
-4.46778
-4.05576
-3.56582
-3.30027
-0.998891
-0.975239
-0.92342
-0.857031
-0.789319
-0.724451
-0.665489
-0.614825
-0.572644
-0.530993
-0.500892
-0.534496
-0.758406
-1.17322
-1.47494
-1.65979
-1.53068
-1.30844
-1.10977
-0.975856
-0.983246
-0.960913
-0.910562
-0.845793
-0.780454
-0.719375
-0.666802
-0.627062
-0.600272
-0.567568
-0.512892
-0.459424
-0.379322
-0.13752
0.215375
0.678462
1.07633
1.31353
1.41744
1.45412
-0.955637
-0.934781
-0.886423
-0.824053
-0.761781
-0.705375
-0.660782
-0.635936
-0.639207
-0.649779
-0.58888
-0.393938
-0.131977
0.351718
1.00573
1.58933
2.04081
2.3051
2.40511
2.43233
-0.914873
-0.895575
-0.849867
-0.791007
-0.732706
-0.681772
-0.647091
-0.644793
-0.704025
-0.855205
-0.918367
-0.587388
-0.143782
0.43043
1.09925
1.65633
2.06275
2.29793
2.39236
2.41875
-0.859625
-0.841663
-0.800328
-0.746343
-0.692943
-0.64789
-0.623894
-0.650417
-0.806251
-1.25883
-1.60277
-1.09302
-0.370473
0.258314
0.899089
1.39751
1.74063
1.92419
1.99972
2.02051
-0.790152
-0.774299
-0.737963
-0.689754
-0.64176
-0.601749
-0.58504
-0.632906
-0.876072
-1.60856
-2.35424
-1.64251
-0.743998
0.0210342
0.626536
1.05211
1.31422
1.44495
1.50647
1.51209
-0.706486
-0.692345
-0.661881
-0.620601
-0.57776
-0.540603
-0.522821
-0.562414
-0.773437
-1.37579
-1.89355
-1.34383
-0.635828
0.0126541
0.474953
0.761425
0.925645
1.01564
1.0599
1.06685
-0.611966
-0.601986
-0.574959
-0.539163
-0.500556
-0.463695
-0.43741
-0.443308
-0.535195
-0.779812
-0.888523
-0.556699
-0.125832
0.225314
0.446533
0.582122
0.667895
0.722019
0.750811
0.758499
-0.496828
-0.491414
-0.472447
-0.44437
-0.411893
-0.377514
-0.345173
-0.32401
-0.331828
-0.374161
-0.342132
-0.104049
0.119515
0.295505
0.410203
0.482351
0.529985
0.562308
0.580316
0.583816
-0.385485
-0.382648
-0.369149
-0.348084
-0.32238
-0.292652
-0.26
-0.226913
-0.196398
-0.1605
-0.07743
0.0798069
0.204471
0.295179
0.358331
0.399064
0.425675
0.441949
0.449418
0.450757
-0.284936
-0.283342
-0.274571
-0.259093
-0.239361
-0.215176
-0.185889
-0.151021
-0.108597
-0.0503889
0.0343767
0.140098
0.219108
0.272421
0.308969
0.332194
0.34624
0.354
0.357196
0.357114
-0.194598
-0.194137
-0.188981
-0.179019
-0.165374
-0.147251
-0.123423
-0.0922543
-0.0508644
0.00658221
0.0789759
0.151939
0.206047
0.24193
0.265192
0.279055
0.286464
0.289776
0.290689
0.290201
-0.116135
-0.11646
-0.11483
-0.110276
-0.102386
-0.0902409
-0.0725012
-0.047308
-0.0120269
0.037014
0.0948206
0.147202
0.185573
0.210779
0.226348
0.234926
0.238854
0.240145
0.240236
0.239704
-0.0543735
-0.0550902
-0.055937
-0.0555089
-0.052378
-0.0452852
-0.0329647
-0.0138055
0.0142551
0.053464
0.0980385
0.136225
0.163828
0.181752
0.192369
0.197888
0.200071
0.200437
0.200225
0.199761
-0.0108614
-0.0116608
-0.0135329
-0.0151349
-0.0148271
-0.0114384
-0.00357838
0.0102142
0.0314848
0.0616256
0.0953884
0.12349
0.143459
0.15626
0.163704
0.167331
0.16848
0.168408
0.168094
0.167707
0.0171984
0.0165117
0.0145693
0.0124447
0.0116269
0.0130579
0.0178468
0.0273658
0.042968
0.0655893
0.0908022
0.111428
0.125947
0.135098
0.140143
0.142384
0.142874
0.14252
0.142147
0.141834
0.0340552
0.0335444
0.0319581
0.0300033
0.0288751
0.0294189
0.0325052
0.0390924
0.0502886
0.0669072
0.0855597
0.100681
0.111045
0.11738
0.120774
0.122127
0.122179
0.121664
0.121277
0.121031
0.0435428
0.0431877
0.0420424
0.040531
0.0394968
0.0395543
0.0414698
0.0460891
0.0541957
0.0663052
0.0798502
0.0907285
0.0981388
0.102631
0.1049
0.105641
0.105452
0.104895
0.104534
0.104346
0.0485147
0.0482693
0.0474824
0.0463932
0.0455981
0.0455348
0.0467201
0.049806
0.0555084
0.0642614
0.0741305
0.0820484
0.0873322
0.0903946
0.091839
0.0921998
0.0918986
0.0913696
0.091059
0.0909152
0.0507089
0.0505313
0.0499678
0.0491634
0.0485407
0.0484267
0.0492204
0.0513856
0.0554131
0.0616531
0.0687143
0.0743142
0.0779895
0.0800768
0.0809948
0.0811256
0.0807909
0.0803263
0.0800703
0.0799596
0.0510068
0.0508729
0.0504388
0.0498036
0.0492837
0.0491101
0.0495668
0.0510149
0.0538365
0.0582656
0.0632878
0.0672646
0.0698419
0.0712497
0.0718086
0.0718116
0.071494
0.0711072
0.0709017
0.0708158
0.0498834
0.0497823
0.0494422
0.0489318
0.0484958
0.0483053
0.0485633
0.0495211
0.0514579
0.0545645
0.0581094
0.0608891
0.0626497
0.0635715
0.0638919
0.0638213
0.0635316
0.0632106
0.0630452
0.0629783
0.0476872
0.0476104
0.047344
0.0469311
0.0465615
0.0463612
0.046478
0.0470963
0.0484168
0.0505683
0.0530313
0.0549509
0.0561433
0.0567365
0.0569023
0.0567945
0.0565383
0.0562742
0.0561419
0.05609
0.0447023
0.0446435
0.0444385
0.0441118
0.043807
0.0436165
0.0436454
0.0440256
0.0449044
0.0463774
0.0480745
0.0493833
0.0501729
0.0505378
0.0506031
0.0504792
0.0502565
0.0500404
0.0499348
0.0498945
0.0411645
0.0411187
0.0409624
0.0407086
0.0404632
0.0402929
0.0402721
0.0404963
0.0410694
0.0420599
0.0432077
0.0440828
0.0445924
0.0448039
0.0448073
0.0446818
0.0444924
0.0443176
0.0442337
0.0442023
0.0372511
0.0372151
0.0370958
0.0369004
0.0367051
0.0365573
0.0365098
0.0366296
0.0369921
0.0376454
0.0384095
0.0389824
0.0392997
0.0394107
0.0393788
0.0392604
0.0391021
0.0389617
0.0388948
0.0388704
0.0330856
0.0330572
0.0329655
0.0328149
0.0326602
0.0325349
0.0324752
0.032529
0.032749
0.033169
0.0336649
0.0340292
0.0342179
0.0342643
0.0342142
0.0341074
0.0339768
0.0338646
0.0338115
0.0337923
0.028749
0.0287266
0.0286557
0.0285394
0.0284168
0.0283115
0.0282487
0.0282616
0.0283871
0.0286486
0.0289619
0.0291853
0.0292885
0.0292954
0.0292379
0.029144
0.029037
0.0289474
0.0289052
0.0288903
0.024296
0.0242784
0.0242234
0.0241332
0.0240359
0.0239485
0.0238881
0.0238776
0.0239426
0.0240986
0.0242893
0.0244191
0.0244679
0.0244521
0.0243944
0.0243141
0.0242272
0.0241561
0.0241228
0.0241113
0.0197634
0.0197498
0.0197072
0.0196369
0.01956
0.0194885
0.0194341
0.0194123
0.0194403
0.0195279
0.0196382
0.0197084
0.019725
0.0196992
0.0196462
0.019579
0.0195091
0.019453
0.0194271
0.0194184
0.0151733
0.0151631
0.0151304
0.0150763
0.0150168
0.0149606
0.014915
0.0148901
0.0148976
0.014944
0.0150051
0.01504
0.0150398
0.0150117
0.0149659
0.0149114
0.014856
0.014812
0.0147922
0.0147858
0.010541
0.0105335
0.0105092
0.0104693
0.0104259
0.0103848
0.0103507
0.0103297
0.0103284
0.010351
0.0103824
0.0103975
0.0103909
0.0103671
0.0103323
0.0102918
0.0102505
0.0102174
0.0102026
0.0101981
0.00587584
0.00587082
0.00585494
0.00582975
0.0058032
0.0057786
0.00575837
0.00574557
0.0057434
0.00575343
0.00576785
0.00577314
0.00576677
0.00575151
0.00573031
0.00570552
0.00567967
0.00565846
0.00564866
0.00564546
0.00118483
0.00118477
0.00118512
0.00117966
0.00117216
0.00116567
0.00116015
0.00115565
0.00115256
0.00115115
0.00115127
0.00115128
0.00114955
0.00114615
0.00114142
0.00113567
0.00112884
0.00112185
0.00111921
0.00111977
-0.816429
-0.57156
-0.297694
-0.0754948
0.105332
0.251583
0.375833
0.480984
0.530193
0.50766
-0.378107
-0.2128
-0.0412222
0.106265
0.231608
0.337014
0.42318
0.485123
0.517565
0.5285
-0.0818895
0.0269989
0.141185
0.24278
0.330523
0.404274
0.462994
0.505906
0.535738
0.552559
0.123089
0.197531
0.277434
0.349442
0.412138
0.465207
0.508452
0.542351
0.568791
0.586352
0.276649
0.330203
0.386616
0.43998
0.486973
0.527657
0.562008
0.590052
0.612677
0.630074
0.398641
0.437793
0.482016
0.523843
0.561738
0.595316
0.624294
0.648269
0.667582
0.684722
0.501559
0.533846
0.572174
0.608074
0.641334
0.671246
0.697162
0.718462
0.734953
0.751969
0.596619
0.628049
0.664761
0.699158
0.730803
0.759107
0.78335
0.802847
0.816905
0.833966
0.695923
0.730501
0.768779
0.803797
0.835101
0.862365
0.885199
0.903138
0.915504
0.932963
0.813336
0.852012
0.891612
0.92674
0.956879
0.982309
1.00324
1.01957
1.03137
1.04951
0.959764
0.9988
1.03553
1.06675
1.09291
1.11543
1.13484
1.15064
1.1633
1.18136
1.13571
1.16766
1.19418
1.21697
1.23724
1.25621
1.27414
1.29079
1.30627
1.32439
1.32488
1.34224
1.3575
1.37395
1.39003
1.4047
1.41801
1.43204
1.44968
1.46987
1.50692
1.51654
1.52819
1.53906
1.54839
1.5581
1.56904
1.58049
1.5919
1.60728
1.71441
1.7181
1.70315
1.68835
1.68221
1.68797
1.70647
1.73684
1.76906
1.79573
2.02069
1.88583
1.80933
1.76713
1.74969
1.75367
1.78112
1.83752
1.94015
2.16453
0.313471
0.311384
0.306907
0.298333
0.286194
0.274167
0.264049
0.256266
0.250726
0.247463
0.246953
0.24938
0.254145
0.261049
0.270168
0.281492
0.29397
0.304874
0.310947
0.313935
0.237721
0.243586
0.250008
0.254634
0.257237
0.25706
0.254487
0.250821
0.247387
0.245088
0.244755
0.246662
0.249982
0.253923
0.257403
0.259008
0.257845
0.254167
0.24883
0.242146
0.229166
0.231476
0.234995
0.238166
0.240429
0.242105
0.243028
0.242853
0.241914
0.241001
0.240977
0.242072
0.243504
0.244428
0.244255
0.243045
0.241202
0.238594
0.235134
0.232118
0.22338
0.224444
0.226488
0.229209
0.231562
0.233263
0.234486
0.235387
0.235888
0.236117
0.236401
0.236783
0.236925
0.236559
0.235739
0.234473
0.232569
0.23004
0.227579
0.226089
0.218205
0.21882
0.220185
0.222379
0.224672
0.226782
0.228457
0.229665
0.230576
0.23125
0.231707
0.231875
0.231637
0.230998
0.229861
0.228151
0.226052
0.223863
0.222051
0.221164
0.213575
0.213884
0.214982
0.217005
0.219152
0.221191
0.223116
0.224781
0.226058
0.226982
0.227565
0.227687
0.227277
0.226298
0.224833
0.223091
0.221162
0.219135
0.217534
0.216974
0.210845
0.210972
0.211711
0.213231
0.214921
0.216514
0.217993
0.219414
0.220755
0.221897
0.222632
0.222756
0.222348
0.221578
0.220573
0.219335
0.217891
0.216367
0.215237
0.214925
0.209305
0.209375
0.209798
0.210706
0.211857
0.213128
0.214568
0.216005
0.217351
0.218547
0.21942
0.219731
0.219499
0.218855
0.217926
0.216916
0.215987
0.215111
0.214509
0.214338
0.207349
0.207393
0.207624
0.208104
0.20873
0.209602
0.210572
0.211748
0.213044
0.214326
0.215365
0.215868
0.215876
0.215588
0.215214
0.214806
0.214393
0.214002
0.213733
0.213639
0.204535
0.204559
0.204725
0.20512
0.205688
0.206335
0.207244
0.208364
0.209634
0.210993
0.212237
0.213039
0.213366
0.213379
0.213226
0.213053
0.212835
0.212602
0.212444
0.212396
0.201191
0.201194
0.201316
0.20167
0.202196
0.20286
0.2037
0.204788
0.206111
0.207634
0.209152
0.210288
0.210932
0.211217
0.211358
0.211417
0.211312
0.211149
0.211063
0.211048
0.197576
0.197574
0.197671
0.197985
0.198496
0.199175
0.200047
0.201166
0.202594
0.204333
0.206211
0.207758
0.208789
0.209443
0.209798
0.209946
0.209983
0.209942
0.209929
0.209933
0.193643
0.193636
0.193727
0.194026
0.194504
0.195186
0.196122
0.197382
0.199034
0.201113
0.203454
0.20548
0.206913
0.207866
0.208473
0.208827
0.209006
0.209087
0.209137
0.209149
0.189236
0.189226
0.18933
0.189611
0.190104
0.190838
0.191889
0.193349
0.195316
0.197856
0.200786
0.203409
0.20529
0.206611
0.207485
0.208043
0.208382
0.208578
0.20868
0.208701
0.184217
0.184205
0.184318
0.184636
0.185184
0.186027
0.187262
0.189017
0.19142
0.194564
0.198242
0.201568
0.204007
0.205744
0.206921
0.207695
0.208188
0.208487
0.208637
0.208666
0.178442
0.178427
0.178569
0.178952
0.179612
0.180616
0.182117
0.184277
0.187259
0.191187
0.195809
0.200015
0.203146
0.20535
0.206867
0.20788
0.208538
0.20894
0.209138
0.209176
0.171729
0.17171
0.171891
0.172368
0.173181
0.174433
0.176307
0.179015
0.182756
0.187689
0.1935
0.198794
0.202724
0.205516
0.207439
0.20873
0.209575
0.210095
0.210347
0.210395
0.163836
0.163812
0.164046
0.164649
0.16568
0.167278
0.169669
0.173093
0.177819
0.184038
0.191339
0.19797
0.202885
0.206378
0.208786
0.210407
0.211473
0.212132
0.212451
0.21251
0.154437
0.154407
0.154717
0.155505
0.156837
0.158901
0.161963
0.166335
0.172351
0.18021
0.189367
0.19764
0.203753
0.208094
0.211087
0.213102
0.214432
0.215259
0.215654
0.215729
0.143047
0.143007
0.143427
0.144476
0.146228
0.148918
0.152899
0.158561
0.166253
0.17619
0.18765
0.197924
0.205486
0.210852
0.214552
0.217045
0.218689
0.219714
0.220203
0.220297
0.128999
0.12895
0.129538
0.130963
0.133314
0.136896
0.142155
0.149523
0.159396
0.171972
0.186267
0.198957
0.208261
0.214863
0.219424
0.222502
0.224536
0.225815
0.226433
0.226545
0.111338
0.111289
0.112142
0.11412
0.117339
0.122204
0.129238
0.13893
0.151683
0.167587
0.185328
0.200894
0.212265
0.22035
0.225961
0.229767
0.232292
0.233881
0.23466
0.234798
0.0886146
0.0885879
0.0898829
0.0927211
0.0972807
0.104073
0.113688
0.12661
0.143123
0.163152
0.184994
0.20391
0.217689
0.227529
0.234419
0.239142
0.242306
0.24431
0.245292
0.245466
0.0583662
0.0584159
0.0605249
0.0649142
0.0717576
0.0816616
0.0951422
0.112516
0.133862
0.158889
0.185478
0.208182
0.224693
0.236575
0.245013
0.250902
0.254919
0.257501
0.258761
0.25898
0.0162261
0.0165492
0.0205173
0.0281012
0.0391721
0.0542288
0.0734402
0.0968275
0.124214
0.155098
0.186993
0.213833
0.233342
0.247535
0.257824
0.265204
0.270398
0.273848
0.275534
0.275804
-0.0458925
-0.0440009
-0.034665
-0.020265
-0.00132419
0.0219297
0.0491567
0.0801988
0.114724
0.15214
0.189698
0.22086
0.243518
0.260209
0.272603
0.281834
0.288625
0.293314
0.295763
0.296085
-0.120099
-0.117001
-0.0997525
-0.0742351
-0.04471
-0.0119623
0.0240182
0.0632088
0.105375
0.150028
0.194233
0.230882
0.257875
0.278242
0.293895
0.306087
0.315701
0.322492
0.325092
0.326196
-0.196368
-0.186961
-0.161361
-0.1258
-0.0867395
-0.044852
-0.000269141
0.046986
0.0967501
0.148624
0.199509
0.241638
0.272858
0.29673
0.315459
0.330423
0.34245
0.351408
0.356148
0.358019
-0.254173
-0.243549
-0.212959
-0.17086
-0.124471
-0.0750553
-0.0229587
0.031647
0.0884771
0.147073
0.204032
0.250902
0.285496
0.311852
0.332415
0.348707
0.36168
0.371535
0.377201
0.379239
-0.300692
-0.289604
-0.255649
-0.208915
-0.157117
-0.101842
-0.0435624
0.0173508
0.0804275
0.145066
0.207423
0.258242
0.295344
0.323263
0.344773
0.361633
0.374923
0.384959
0.390695
0.3928
-0.338928
-0.327864
-0.2919
-0.241556
-0.185519
-0.125563
-0.0622013
0.00407699
0.0726351
0.142654
0.209805
0.264079
0.303269
0.332395
0.354543
0.371661
0.384977
0.394973
0.400726
0.402759
-0.371954
-0.360996
-0.323535
-0.270423
-0.210916
-0.14701
-0.0792846
-0.00833921
0.0650898
0.140032
0.211668
0.269116
0.310144
0.340253
0.362842
0.380087
0.393355
0.40328
0.409059
0.410971
-0.401276
-0.390438
-0.351935
-0.296558
-0.234147
-0.166882
-0.0953647
-0.0202601
0.0576058
0.137091
0.212894
0.273352
0.316166
0.347256
0.370321
0.387743
0.401032
0.410888
0.416685
0.418478
-0.428098
-0.41733
-0.377988
-0.320721
-0.25589
-0.185738
-0.110894
-0.0320714
0.0498123
0.133539
0.213444
0.277002
0.321716
0.353891
0.377516
0.395178
0.408538
0.418373
0.424182
0.425864
-0.453243
-0.44251
-0.402433
-0.34349
-0.276557
-0.203888
-0.126134
-0.0440026
0.0416027
0.129407
0.213394
0.28017
0.326956
0.360383
0.384702
0.402704
0.416192
0.426016
0.431843
0.433413
-0.477106
-0.466374
-0.425624
-0.365273
-0.296504
-0.22162
-0.141273
-0.0561234
0.0329211
0.124596
0.212633
0.282823
0.331938
0.366855
0.392056
0.410528
0.424229
0.434107
0.439901
0.441405
-0.500022
-0.489242
-0.447857
-0.386321
-0.315919
-0.23907
-0.156416
-0.0685731
0.0236186
0.118973
0.211079
0.284896
0.336646
0.373338
0.399651
0.418761
0.432781
0.44276
0.448499
0.449984
-0.522226
-0.511302
-0.469286
-0.406778
-0.334903
-0.256362
-0.171681
-0.0814285
0.013644
0.11248
0.208622
0.286257
0.340987
0.379799
0.407504
0.42746
0.441947
0.452114
0.45779
0.459257
-0.543729
-0.53265
-0.490128
-0.426703
-0.353536
-0.273521
-0.187065
-0.0946752
0.00299232
0.105056
0.205134
0.286758
0.344812
0.386154
0.415596
0.436642
0.451752
0.462197
0.46784
0.469245
-0.564655
-0.553362
-0.510418
-0.446072
-0.371828
-0.290528
-0.202533
-0.108289
-0.00832102
0.0966925
0.200533
0.286227
0.347905
0.392223
0.423807
0.446244
0.462163
0.47298
0.478613
0.479892
-0.584931
-0.573456
-0.530075
-0.464931
-0.389756
-0.307355
-0.218049
-0.122218
-0.020254
0.0873914
0.194742
0.284479
0.349997
0.397693
0.431921
0.456154
0.473126
0.484395
0.490027
0.491116
-0.604607
-0.592908
-0.549075
-0.483258
-0.407279
-0.323952
-0.233547
-0.136382
-0.0327294
0.0771944
0.187721
0.281343
0.350816
0.402255
0.439727
0.466287
0.484591
0.496326
0.501837
0.5027
-0.623513
-0.611678
-0.567397
-0.501
-0.424339
-0.340233
-0.248948
-0.150692
-0.0456516
0.0661877
0.179483
0.276691
0.350099
0.405585
0.4469
0.476541
0.496628
0.508769
0.513875
0.514392
-0.641775
-0.629734
-0.585028
-0.518132
-0.440897
-0.356159
-0.264157
-0.165057
-0.0589141
0.0544781
0.170065
0.270456
0.347573
0.407179
0.452886
0.486648
0.509492
0.522008
0.525919
0.525737
-0.659263
-0.647005
-0.601952
-0.534609
-0.456882
-0.371652
-0.279095
-0.179356
-0.0723947
0.042165
0.15957
0.262605
0.343042
0.406495
0.456835
0.495928
0.523447
0.537395
0.538681
0.536185
-0.676029
-0.663594
-0.618129
-0.550386
-0.47226
-0.386649
-0.293686
-0.193505
-0.0859714
0.0294125
0.148137
0.25316
0.336409
0.403126
0.457653
0.502861
0.537732
0.557135
0.557216
0.545779
-0.692007
-0.67943
-0.63366
-0.565595
-0.487218
-0.401414
-0.308245
-0.207895
-0.100097