/*--------------------------------*- C++ -*----------------------------------*\
| =========                 |                                                 |
| \\      /  F ield         | OpenFOAM: The Open Source CFD Toolbox           |
|  \\    /   O peration     | Version:  4.0                                   |
|   \\  /    A nd           | Web:      www.OpenFOAM.org                      |
|    \\/     M anipulation  |                                                 |
\*---------------------------------------------------------------------------*/
FoamFile
{
    version     2.0;
    format      ascii;
    class       volVectorField;
    location    "13";
    object      U;
}
// * * * * * * * * * * * * * * * * * * * * * * * * * * * * * * * * * * * * * //

dimensions      [0 1 -1 0 0 0 0];

internalField   nonuniform List<vector> 
8800
(
(0.979949 -0.091515 0)
(1.00229 -0.0588217 0)
(0.999572 -0.0321782 0)
(0.999985 -0.016576 0)
(1.00006 -0.00885748 0)
(0.999989 -0.00505691 0)
(0.999971 -0.00294537 0)
(0.999974 -0.00165153 0)
(0.999994 -0.000781844 0)
(1.00005 -0.000129528 0)
(1 0.000525775 0)
(0.999978 0.00125923 0)
(0.999967 0.0022971 0)
(0.999975 0.0039281 0)
(1.00003 0.00671668 0)
(1.00007 0.012076 0)
(0.999843 0.0231575 0)
(0.9991 0.043225 0)
(1.00705 0.0790776 0)
(0.774978 0.0478427 0)
(0.35927 -0.0147317 0)
(1.04669 -0.0723112 0)
(1.08863 -0.0658829 0)
(1.04968 -0.0505972 0)
(1.02554 -0.0372356 0)
(1.01254 -0.0254051 0)
(1.00648 -0.0163383 0)
(1.00361 -0.00999772 0)
(1.0022 -0.00553434 0)
(1.00159 -0.00208213 0)
(1.00146 0.000961549 0)
(1.0018 0.00418239 0)
(1.00275 0.00796833 0)
(1.00477 0.0131966 0)
(1.00889 0.0207747 0)
(1.01789 0.0312425 0)
(1.03607 0.0441435 0)
(1.06773 0.0577841 0)
(1.09496 0.0700786 0)
(0.846167 0.0554481 0)
(0.218502 -0.00133352 0)
(1.07608 -0.0499889 0)
(1.09941 -0.0482737 0)
(1.06444 -0.0395929 0)
(1.03999 -0.0322692 0)
(1.02386 -0.0249581 0)
(1.01397 -0.0176232 0)
(1.00841 -0.0111137 0)
(1.00551 -0.00562073 0)
(1.00432 -0.000745402 0)
(1.00467 0.00392604 0)
(1.00659 0.00895565 0)
(1.0106 0.0148477 0)
(1.01804 0.0217349 0)
(1.0308 0.0290794 0)
(1.05075 0.0361847 0)
(1.08026 0.0437988 0)
(1.10605 0.0510298 0)
(0.944589 0.0405405 0)
(0.218198 0.00134534 0)
(0.178125 -0.000601759 0)
(1.02119 -0.034501 0)
(1.10615 -0.0399536 0)
(1.07781 -0.0345243 0)
(1.05224 -0.0284379 0)
(1.03492 -0.0227809 0)
(1.02299 -0.0174604 0)
(1.0151 -0.0120344 0)
(1.01053 -0.00653915 0)
(1.00861 -0.000808263 0)
(1.00914 0.00494893 0)
(1.01222 0.0103933 0)
(1.01826 0.0157224 0)
(1.02802 0.0208914 0)
(1.04236 0.0261748 0)
(1.06321 0.0319089 0)
(1.0943 0.0381291 0)
(1.09599 0.0402704 0)
(0.833958 0.0220534 0)
(0.177617 0.000610994 0)
(0.157535 -0.00040891 0)
(0.963047 -0.0236951 0)
(1.10572 -0.0324122 0)
(1.08843 -0.0300918 0)
(1.06087 -0.0257543 0)
(1.04237 -0.021179 0)
(1.03003 -0.0164224 0)
(1.02152 -0.0114787 0)
(1.01597 -0.0061963 0)
(1.01335 -0.000543412 0)
(1.01409 0.00505902 0)
(1.01803 0.0103678 0)
(1.02487 0.015256 0)
(1.03499 0.0198687 0)
(1.04994 0.0243182 0)
(1.07263 0.0287012 0)
(1.10248 0.0324773 0)
(1.07336 0.0310014 0)
(0.751268 0.0130661 0)
(0.156782 0.000421016 0)
(0.144798 -0.000301633 0)
(0.911871 -0.0160881 0)
(1.09857 -0.0254329 0)
(1.09494 -0.0248138 0)
(1.06711 -0.0220881 0)
(1.04777 -0.0188406 0)
(1.03458 -0.0148697 0)
(1.02571 -0.0103987 0)
(1.02006 -0.0055681 0)
(1.01729 -0.000232425 0)
(1.01799 0.00514449 0)
(1.02191 0.00999966 0)
(1.02887 0.0143805 0)
(1.03956 0.0183602 0)
(1.05549 0.0217409 0)
(1.07879 0.0243509 0)
(1.1042 0.0264522 0)
(1.04547 0.0232316 0)
(0.692593 0.00814237 0)
(0.143755 0.000315726 0)
(0.137298 -0.000150333 0)
(0.873337 -0.00898221 0)
(1.08815 -0.0172255 0)
(1.09874 -0.0180076 0)
(1.07238 -0.0160825 0)
(1.05338 -0.0138056 0)
(1.04017 -0.0112756 0)
(1.03084 -0.00818402 0)
(1.0247 -0.00438499 0)
(1.02168 0.000247721 0)
(1.02236 0.00502905 0)
(1.02652 0.00894479 0)
(1.03388 0.0120305 0)
(1.04476 0.0144063 0)
(1.06036 0.0163991 0)
(1.08335 0.0182987 0)
(1.10311 0.0191193 0)
(1.01855 0.014806 0)
(0.655308 0.00421777 0)
(0.135895 0.000168358 0)
(0.13433 -1.54252e-05 0)
(0.848976 -0.0041366 0)
(1.07663 -0.0103555 0)
(1.09922 -0.0118927 0)
(1.07472 -0.0114795 0)
(1.05547 -0.0105591 0)
(1.04259 -0.00895602 0)
(1.03375 -0.00654358 0)
(1.02798 -0.00332952 0)
(1.02518 0.000737173 0)
(1.02558 0.00491331 0)
(1.02928 0.00824386 0)
(1.03604 0.0106273 0)
(1.0464 0.0122021 0)
(1.06202 0.0130293 0)
(1.08494 0.0131752 0)
(1.09916 0.012811 0)
(0.996496 0.00836072 0)
(0.635422 0.00179662 0)
(0.132503 3.8486e-05 0)
(0.133749 2.71139e-05 0)
(0.834074 -0.00207138 0)
(1.06536 -0.00721537 0)
(1.09739 -0.00998801 0)
(1.07511 -0.0105209 0)
(1.05704 -0.00992523 0)
(1.04476 -0.00865058 0)
(1.03643 -0.00642755 0)
(1.03095 -0.00307243 0)
(1.02815 0.00120443 0)
(1.0284 0.00548878 0)
(1.03172 0.00891906 0)
(1.03793 0.0111486 0)
(1.04764 0.0122979 0)
(1.06216 0.0127098 0)
(1.08396 0.0122283 0)
(1.09291 0.0104715 0)
(0.979021 0.00546671 0)
(0.624806 0.000907574 0)
(0.131381 -1.13522e-06 0)
(0.13375 2.05504e-05 0)
(0.823339 -0.00131319 0)
(1.05233 -0.00606292 0)
(1.09242 -0.0105525 0)
(1.07467 -0.0121432 0)
(1.05849 -0.0120698 0)
(1.0475 -0.0103814 0)
(1.04007 -0.00741926 0)
(1.03508 -0.0033183 0)
(1.03225 0.00172537 0)
(1.03229 0.00673781 0)
(1.03507 0.010764 0)
(1.04038 0.0135884 0)
(1.04882 0.0152011 0)
(1.06152 0.0152378 0)
(1.08117 0.0140957 0)
(1.08277 0.0103946 0)
(0.963004 0.00443168 0)
(0.61756 0.000727193 0)
(0.130723 1.1837e-05 0)
(0.133845 1.5873e-05 0)
(0.815462 -0.000657107 0)
(1.03812 -0.00446971 0)
(1.08357 -0.00980185 0)
(1.07308 -0.0128507 0)
(1.05971 -0.0128278 0)
(1.05052 -0.0110538 0)
(1.04389 -0.00769419 0)
(1.03911 -0.00314279 0)
(1.0362 0.00245502 0)
(1.03597 0.00802631 0)
(1.03828 0.012452 0)
(1.04286 0.0154442 0)
(1.04991 0.0169932 0)
(1.06034 0.0169444 0)
(1.07462 0.0146104 0)
(1.06849 0.00936705 0)
(0.948321 0.00341288 0)
(0.61201 0.000595966 0)
(0.129994 2.26369e-05 0)
(0.134149 2.65546e-05 0)
(0.810971 -1.64341e-05 0)
(1.02637 -0.00229669 0)
(1.07362 -0.00659066 0)
(1.06962 -0.00970981 0)
(1.06087 -0.0103805 0)
(1.05389 -0.00897247 0)
(1.04819 -0.00595464 0)
(1.04371 -0.00170494 0)
(1.04081 0.00358511 0)
(1.04016 0.00878929 0)
(1.04189 0.012697 0)
(1.04542 0.0151863 0)
(1.05061 0.0162112 0)
(1.05823 0.0155211 0)
(1.06567 0.0122059 0)
(1.05409 0.00703601 0)
(0.936986 0.00239702 0)
(0.608016 0.000487745 0)
(0.129282 2.57317e-05 0)
(0.134769 3.38105e-05 0)
(0.809635 0.000522473 0)
(1.01937 -0.000382501 0)
(1.06619 -0.00285891 0)
(1.0662 -0.0049993 0)
(1.06121 -0.00571141 0)
(1.05625 -0.00487788 0)
(1.0516 -0.00263672 0)
(1.04753 0.000802048 0)
(1.04458 0.00512769 0)
(1.04345 0.00923196 0)
(1.04438 0.0120552 0)
(1.04672 0.0133471 0)
(1.05017 0.0132297 0)
(1.05426 0.0116834 0)
(1.05751 0.00871496 0)
(1.04314 0.00483212 0)
(0.929438 0.00176176 0)
(0.605068 0.000455706 0)
(0.128594 2.73132e-05 0)
(0.135657 4.37251e-05 0)
(0.810228 0.000846469 0)
(1.01653 0.000912551 0)
(1.06219 -3.75469e-05 0)
(1.06413 -0.00101547 0)
(1.06131 -0.00127281 0)
(1.05792 -0.000575498 0)
(1.05424 0.00112853 0)
(1.05058 0.0037654 0)
(1.04749 0.00699132 0)
(1.04574 0.00979008 0)
(1.04579 0.011281 0)
(1.0468 0.0115032 0)
(1.04854 0.0106465 0)
(1.05045 0.00884717 0)
(1.05127 0.0063642 0)
(1.03582 0.00365043 0)
(0.924392 0.00159823 0)
(0.602444 0.000518691 0)
(0.127831 3.38438e-05 0)
(0.136791 5.44185e-05 0)
(0.812415 0.00118393 0)
(1.01649 0.0018512 0)
(1.06098 0.00191774 0)
(1.06361 0.00191124 0)
(1.06185 0.00226217 0)
(1.05936 0.0031646 0)
(1.05629 0.00470759 0)
(1.05286 0.0068331 0)
(1.04948 0.00918964 0)
(1.04704 0.0109111 0)
(1.04599 0.0114352 0)
(1.04591 0.0107885 0)
(1.04636 0.00937304 0)
(1.04692 0.0075025 0)
(1.04652 0.00539901 0)
(1.03074 0.00335292 0)
(0.92039 0.00174429 0)
(0.599588 0.000642502 0)
(0.12688 4.40376e-05 0)
(0.138221 6.82589e-05 0)
(0.815706 0.00153026 0)
(1.0181 0.00265592 0)
(1.06177 0.00344735 0)
(1.06448 0.00414608 0)
(1.06311 0.00509904 0)
(1.06097 0.00640307 0)
(1.05811 0.00808582 0)
(1.05463 0.0100233 0)
(1.05077 0.0118255 0)
(1.04747 0.0127011 0)
(1.04545 0.012286 0)
(1.04433 0.0111112 0)
(1.04383 0.00936922 0)
(1.04357 0.00740709 0)
(1.04256 0.00544095 0)
(1.02658 0.00362515 0)
(0.916471 0.00208229 0)
(0.59616 0.000811101 0)
(0.125665 5.71342e-05 0)
(0.14003 8.6653e-05 0)
(0.820146 0.00196263 0)
(1.02116 0.00352048 0)
(1.06393 0.00484585 0)
(1.0666 0.00614703 0)
(1.06523 0.00766911 0)
(1.06304 0.0094986 0)
(1.06001 0.0115314 0)
(1.05616 0.0135476 0)
(1.05156 0.0150661 0)
(1.04726 0.0153338 0)
(1.0442 0.0142963 0)
(1.0422 0.0125159 0)
(1.04094 0.0104021 0)
(1.04012 0.00823334 0)
(1.03874 0.00617015 0)
(1.0225 0.00428246 0)
(0.912052 0.00257317 0)
(0.591897 0.00102671 0)
(0.124121 7.37806e-05 0)
(0.142341 0.000111042 0)
(0.825969 0.00251215 0)
(1.02553 0.00454381 0)
(1.06742 0.00633992 0)
(1.0699 0.00818413 0)
(1.06835 0.0103915 0)
(1.06581 0.0128956 0)
(1.06226 0.0154193 0)
(1.05768 0.0176905 0)
(1.05205 0.0191132 0)
(1.04652 0.0189019 0)
(1.04236 0.0172505 0)
(1.03946 0.0148887 0)
(1.03754 0.0123104 0)
(1.03626 0.00979341 0)
(1.03456 0.00744768 0)
(1.01794 0.00527771 0)
(0.906714 0.00322835 0)
(0.586528 0.00130126 0)
(0.12217 9.53676e-05 0)
(0.145321 0.00014361 0)
(0.83354 0.00322796 0)
(1.03149 0.00583302 0)
(1.07244 0.00813073 0)
(1.07453 0.0105681 0)
(1.07255 0.013561 0)
(1.0694 0.0168467 0)
(1.0651 0.0200694 0)
(1.05943 0.0227704 0)
(1.05238 0.0242137 0)
(1.04534 0.0235643 0)
(1.0399 0.0212544 0)
(1.03605 0.018217 0)
(1.03343 0.0150421 0)
(1.03168 0.0120328 0)
(1.02967 0.00925798 0)
(1.01251 0.00664537 0)
(0.900094 0.00408909 0)
(0.579747 0.00164857 0)
(0.119721 0.000122613 0)
(0.149218 0.000187669 0)
(0.843377 0.0041663 0)
(1.03929 0.00752523 0)
(1.07909 0.0104759 0)
(1.08066 0.0136454 0)
(1.07801 0.0175612 0)
(1.07408 0.0218016 0)
(1.06868 0.0258754 0)
(1.06154 0.0291342 0)
(1.05264 0.0306451 0)
(1.04371 0.029515 0)
(1.03676 0.0264313 0)
(1.03181 0.022562 0)
(1.02841 0.0186168 0)
(1.02612 0.0149538 0)
(1.02372 0.0116183 0)
(1.00589 0.00843819 0)
(0.891939 0.00520454 0)
(0.571263 0.00206906 0)
(0.116676 0.000152336 0)
(0.154391 0.000255777 0)
(0.85617 0.00549823 0)
(1.04926 0.00988109 0)
(1.08757 0.0136314 0)
(1.08852 0.0178005 0)
(1.08505 0.0228408 0)
(1.08003 0.0282407 0)
(1.07311 0.0332675 0)
(1.06401 0.0371287 0)
(1.05275 0.0387013 0)
(1.04152 0.036979 0)
(1.03277 0.0329439 0)
(1.02653 0.0280387 0)
(1.02222 0.0231052 0)
(1.01929 0.0185811 0)
(1.01641 0.0145152 0)
(0.997771 0.0106151 0)
(0.881945 0.00654115 0)
(0.560794 0.0026074 0)
(0.112892 0.000188035 0)
(0.161366 0.000363762 0)
(0.872915 0.00747537 0)
(1.06211 0.0132216 0)
(1.0985 0.0179857 0)
(1.09851 0.0234057 0)
(1.09389 0.0298754 0)
(1.08727 0.0365829 0)
(1.07827 0.0426801 0)
(1.06665 0.0472032 0)
(1.0525 0.0487515 0)
(1.03853 0.0462469 0)
(1.02766 0.0410325 0)
(1.01991 0.0348546 0)
(1.01454 0.0286879 0)
(1.01087 0.0230579 0)
(1.00743 0.0180519 0)
(0.98782 0.0132692 0)
(0.869414 0.00820472 0)
(0.547793 0.0032563 0)
(0.108233 0.000233686 0)
(0.170917 0.000530246 0)
(0.894896 0.0104508 0)
(1.07878 0.0180106 0)
(1.11269 0.0241388 0)
(1.11128 0.0312565 0)
(1.10491 0.0394533 0)
(1.09599 0.0476738 0)
(1.08421 0.0549401 0)
(1.06937 0.0600105 0)
(1.05168 0.0612757 0)
(1.03446 0.0576824 0)
(1.02115 0.0510089 0)
(1.01164 0.0433024 0)
(1.00501 0.0356567 0)
(1.00045 0.0286753 0)
(0.99634 0.0225001 0)
(0.975508 0.0166408 0)
(0.853988 0.0103551 0)
(0.531631 0.00407601 0)
(0.102521 0.000288363 0)
(0.184317 0.000798932 0)
(0.923988 0.0149704 0)
(1.10055 0.0248504 0)
(1.13126 0.0328377 0)
(1.12764 0.0421661 0)
(1.11872 0.0525219 0)
(1.10662 0.0624988 0)
(1.09108 0.0708705 0)
(1.07211 0.0761985 0)
(1.05013 0.0767594 0)
(1.02915 0.071649 0)
(1.01302 0.0631773 0)
(1.00145 0.0536718 0)
(0.99329 0.0443088 0)
(0.987611 0.0357485 0)
(0.982617 0.0281729 0)
(0.960217 0.0209956 0)
(0.834897 0.0131656 0)
(0.511868 0.00515134 0)
(0.0955829 0.000349225 0)
(0.203899 0.00129703 0)
(0.963671 0.0224426 0)
(1.12941 0.0355572 0)
(1.15549 0.0461484 0)
(1.14824 0.0582184 0)
(1.13545 0.0709281 0)
(1.11888 0.0824453 0)
(1.09848 0.0914303 0)
(1.07449 0.0964119 0)
(1.04755 0.0956293 0)
(1.02233 0.0884685 0)
(1.00306 0.0778338 0)
(0.989126 0.0662761 0)
(0.979126 0.0549869 0)
(0.97199 0.0446473 0)
(0.965732 0.0354612 0)
(0.941239 0.0267334 0)
(0.811119 0.0169164 0)
(0.487551 0.00659685 0)
(0.0871422 0.00042704 0)
(0.233168 0.00243287 0)
(1.01974 0.0362702 0)
(1.16795 0.0540207 0)
(1.18633 0.0677038 0)
(1.17304 0.0825852 0)
(1.15435 0.0970905 0)
(1.13178 0.109222 0)
(1.10542 0.117745 0)
(1.0757 0.121299 0)
(1.04333 0.118237 0)
(1.01362 0.108387 0)
(0.990986 0.0952476 0)
(0.974465 0.0814724 0)
(0.962339 0.0681703 0)
(0.953371 0.0559628 0)
(0.945315 0.0450431 0)
(0.917886 0.0346337 0)
(0.781364 0.0222682 0)
(0.45791 0.00862467 0)
(0.0773992 0.000476022 0)
(0.273947 0.00945336 -1.27753e-20)
(1.09439 0.0644893 -9.70749e-21)
(1.21502 0.0858398 2.64436e-21)
(1.22146 0.103022 0)
(1.19976 0.119154 1.91194e-37)
(1.17351 0.133405 1.58714e-22)
(1.14384 0.144436 -1.25907e-21)
(1.11085 0.151136 0)
(1.07488 0.152212 4.74886e-35)
(1.03659 0.146148 -3.60405e-21)
(1.00188 0.13327 0)
(0.975386 0.117573 -5.18338e-21)
(0.955694 0.101685 -1.58716e-20)
(0.940769 0.0866026 -7.68696e-21)
(0.92916 0.0729556 -2.42424e-21)
(0.918239 0.0608617 -1.46981e-21)
(0.88701 0.0492 0)
(0.742631 0.0336399 1.05915e-21)
(0.421247 0.0157687 1.25608e-21)
(0.0681585 0.00218731 2.23087e-20)
(0.299243 0.0265213 -2.41595e-20)
(1.15363 0.110935 5.08442e-22)
(1.25736 0.134926 -1.32908e-21)
(1.25331 0.152003 0)
(1.22379 0.166422 1.99563e-21)
(1.19019 0.178857 1.02193e-21)
(1.15351 0.18796 -8.00161e-22)
(1.1138 0.192553 -6.09085e-21)
(1.07126 0.19128 0)
(1.02634 0.182549 1.52538e-20)
(0.985463 0.167132 1.69044e-20)
(0.953742 0.149483 5.44177e-21)
(0.929518 0.132175 2.15501e-20)
(0.91047 0.116012 3.18356e-20)
(0.894921 0.101518 0)
(0.87971 0.0889063 4.75228e-20)
(0.843131 0.0767973 6.97671e-20)
(0.700783 0.0579894 7.79619e-20)
(0.396637 0.0325016 -9.08426e-20)
(0.0648769 0.00559427 -1.65634e-21)
(0.293404 0.042855 0)
(1.18734 0.170325 -7.31001e-21)
(1.28895 0.196764 0)
(1.27821 0.210836 1.14956e-20)
(1.24238 0.221743 0)
(1.20247 0.230627 5.64539e-21)
(1.15958 0.236419 8.3714e-22)
(1.11376 0.237858 -8.9225e-21)
(1.06522 0.233528 -1.53434e-21)
(1.01425 0.221796 7.36039e-21)
(0.967874 0.203897 3.93799e-20)
(0.931634 0.184692 -2.6454e-22)
(0.903603 0.166668 -1.61829e-20)
(0.881183 0.150454 -3.147e-20)
(0.862614 0.136397 3.8273e-20)
(0.844929 0.124533 -6.88361e-20)
(0.809213 0.112885 -9.46429e-21)
(0.683147 0.0909061 0)
(0.404149 0.0549862 2.2068e-22)
(0.0729245 0.010489 0)
(0.282627 0.0568713 -1.8372e-19)
(1.20232 0.23276 7.54158e-20)
(1.309 0.263208 4.00086e-20)
(1.29445 0.274394 -7.5763e-21)
(1.25431 0.281287 1.15555e-20)
(1.20973 0.286064 -1.37794e-20)
(1.16188 0.287963 8.30413e-22)
(1.11093 0.285702 0)
(1.05717 0.277847 -2.86192e-20)
(1.00098 0.262837 0)
(0.949911 0.242378 -2.00056e-20)
(0.910074 0.221667 -2.82665e-20)
(0.879371 0.203062 -1.80976e-20)
(0.854993 0.186927 -2.34018e-20)
(0.835068 0.173329 0)
(0.816787 0.162213 0)
(0.783899 0.151107 -6.34028e-20)
(0.671267 0.127104 1.26854e-20)
(0.408848 0.0789349 -7.40657e-21)
(0.0777738 0.0154133 -8.68184e-21)
(0.272302 0.0693449 1.35392e-19)
(1.20538 0.29441 0)
(1.31962 0.330249 -1.11891e-19)
(1.30292 0.338978 -2.85494e-20)
(1.25982 0.342011 -2.16052e-20)
(1.21185 0.342811 0)
(1.16023 0.340783 -2.72703e-21)
(1.10523 0.334692 7.7397e-21)
(1.04721 0.323162 1.24041e-20)
(0.986644 0.304667 3.69921e-20)
(0.931858 0.281412 0)
(0.889413 0.25898 -6.13626e-20)
(0.857001 0.23952 -3.93092e-20)
(0.831537 0.223125 -2.36915e-20)
(0.810994 0.209641 1.55671e-19)
(0.792785 0.19878 1.91146e-20)
(0.762732 0.187554 9.15806e-20)
(0.659238 0.160544 -4.4382e-19)
(0.407127 0.100388 2.64196e-19)
(0.0790326 0.0197326 -3.19579e-19)
(0.263433 0.0805108 1.42694e-19)
(1.20086 0.353323 -2.63745e-20)
(1.32315 0.396025 1.9678e-20)
(1.30536 0.402688 5.32815e-20)
(1.2602 0.402167 3.25822e-20)
(1.20972 0.399279 1.63262e-21)
(1.15518 0.393544 2.42255e-21)
(1.09689 0.383737 5.50895e-21)
(1.03537 0.368531 -2.71108e-20)
(0.971139 0.34641 0)
(0.913163 0.320166 -2.62827e-20)
(0.868604 0.295703 -1.46614e-21)
(0.834978 0.274974 -4.39434e-20)
(0.808934 0.257836 0)
(0.788296 0.243917 -3.3908e-20)
(0.770566 0.232747 -8.24885e-20)
(0.742763 0.220873 2.28624e-19)
(0.644885 0.190321 -2.28433e-19)
(0.400715 0.119023 3.25189e-19)
(0.0783105 0.0233997 -3.38978e-19)
(0.256323 0.0908375 -4.43629e-22)
(1.19174 0.409019 3.22258e-20)
(1.32153 0.459365 9.41972e-20)
(1.30319 0.464536 -3.26706e-20)
(1.2565 0.460814 1.862e-20)
(1.20408 0.454538 0)
(1.14725 0.445335 8.46904e-21)
(1.08629 0.432046 -3.99931e-21)
(1.02174 0.413287 -1.22613e-20)
(0.954334 0.387576 0)
(0.893701 0.358124 -2.55321e-20)
(0.847513 0.33127 -3.59854e-20)
(0.813078 0.308799 4.79923e-20)
(0.786805 0.290432 -3.078e-20)
(0.766315 0.275632 -1.49043e-19)
(0.749126 0.263719 9.17165e-20)
(0.722825 0.250816 2.91018e-20)
(0.62863 0.216465 0)
(0.391162 0.134886 -3.15202e-19)
(0.0763749 0.0264022 -1.15808e-20)
(0.2508 0.100666 2.33113e-20)
(1.18008 0.46138 -3.70217e-20)
(1.31597 0.519877 -5.14123e-20)
(1.29749 0.523911 -1.0041e-19)
(1.24973 0.517361 9.04523e-20)
(1.19585 0.508035 -4.81404e-20)
(1.13716 0.495667 -1.79125e-20)
(1.07396 0.479147 -5.52549e-21)
(1.00682 0.457066 1.23721e-20)
(0.936716 0.427841 -8.97324e-20)
(0.873732 0.395035 -3.14391e-20)
(0.826062 0.365453 0)
(0.790935 0.34085 5.24307e-20)
(0.764522 0.320852 6.48705e-20)
(0.74427 0.304811 7.99515e-20)
(0.727633 0.291833 -9.99827e-20)
(0.702411 0.277481 -3.01332e-20)
(0.610817 0.239337 3.58241e-20)
(0.379503 0.148311 0)
(0.0737102 0.0288123 -2.52262e-20)
(0.246556 0.110114 -2.69974e-19)
(1.16727 0.510528 1.69705e-19)
(1.30764 0.577153 5.64119e-20)
(1.2892 0.580398 -7.66226e-20)
(1.24064 0.571402 5.41174e-20)
(1.18564 0.559379 -3.80694e-21)
(1.12549 0.54419 1.76109e-20)
(1.06046 0.524736 -2.49661e-21)
(0.991066 0.499586 -2.19064e-20)
(0.918334 0.467009 1.40357e-22)
(0.853107 0.430795 -9.34203e-20)
(0.804019 0.398228 9.15849e-20)
(0.768247 0.371167 -5.87349e-20)
(0.741731 0.349184 7.31378e-20)
(0.721752 0.331573 0)
(0.705623 0.317281 -5.42695e-20)
(0.681177 0.301278 -1.33922e-21)
(0.591701 0.259242 -1.56517e-19)
(0.366224 0.159572 -2.31711e-20)
(0.0704042 0.0305774 0)
(0.243303 0.119251 0)
(1.15394 0.556723 1.83448e-19)
(1.29741 0.631333 1.31572e-19)
(1.27903 0.633901 8.64449e-20)
(1.22988 0.622761 5.21237e-20)
(1.17403 0.608368 0)
(1.11272 0.59067 1.68918e-20)
(1.0461 0.5686 -1.21745e-21)
(0.974652 0.540662 4.61975e-20)
(0.899404 0.504949 -1.08951e-20)
(0.831959 0.465378 -6.84841e-20)
(0.781423 0.429694 4.57812e-20)
(0.744912 0.399908 -1.91935e-21)
(0.71824 0.37562 7.70264e-20)
(0.698513 0.356101 5.04088e-20)
(0.682866 0.340224 -1.18231e-19)
(0.659056 0.322293 1.43308e-19)
(0.571371 0.276193 4.29187e-20)
(0.351395 0.168519 1.77691e-19)
(0.0665037 0.0316923 -4.75674e-19)
(0.240926 0.128239 -6.89962e-20)
(1.14068 0.60022 1.05831e-19)
(1.28581 0.682237 -8.19794e-20)
(1.26757 0.68436 -1.00249e-19)
(1.21798 0.671359 0)
(1.16148 0.654898 4.20558e-20)
(1.09919 0.635007 -4.8825e-20)
(1.03121 0.61063 3.1535e-22)
(0.95794 0.580226 0)
(0.880322 0.541628 -1.69029e-19)
(0.810456 0.498831 1.865e-19)
(0.758281 0.459989 0)
(0.720826 0.427262 6.95665e-20)
(0.693851 0.400373 -1.94491e-21)
(0.674312 0.378626 -1.59629e-19)
(0.659181 0.360897 6.27762e-20)
(0.635903 0.340786 0)
(0.549605 0.290332 2.32591e-19)
(0.334978 0.175146 0)
(0.0620539 0.032123 -2.26821e-19)
(0.239236 0.137074 7.67867e-20)
(1.12776 0.641181 1.20865e-19)
(1.27339 0.729956 -8.58114e-20)
(1.25525 0.731817 0)
(1.20534 0.717212 7.16627e-20)
(1.14836 0.698952 0)
(1.08529 0.677154 6.41778e-20)
(1.01615 0.650783 7.03699e-21)
(0.94119 0.61826 4.54554e-21)
(0.861247 0.577138 -8.33787e-20)
(0.788764 0.531318 1.80448e-20)
(0.73465 0.489235 0)
(0.696001 0.45336 -1.48029e-19)
(0.668492 0.42361 2.02241e-21)
(0.649098 0.399314 0)
(0.634521 0.379417 2.41968e-21)
(0.611656 0.35676 2.11179e-19)
(0.526255 0.301547 -2.04074e-19)
(0.316913 0.179329 6.02556e-20)
(0.05702 0.0318599 0)
(0.23784 0.145631 0)
(1.1152 0.679789 1.34935e-19)
(1.26062 0.774601 1.00545e-19)
(1.24242 0.776383 -2.15003e-21)
(1.19232 0.760361 4.48241e-20)
(1.13501 0.740545 9.91467e-20)
(1.07133 0.717109 -2.07043e-20)
(1.00115 0.689057 2.66473e-21)
(0.924615 0.65474 2.74455e-20)
(0.842324 0.611493 -1.29403e-19)
(0.767097 0.562935 -3.00311e-21)
(0.710658 0.517619 -6.0364e-20)
(0.670584 0.47839 2.4283e-19)
(0.642358 0.445482 -2.43317e-21)
(0.622999 0.418392 -1.26221e-19)
(0.608681 0.395888 -2.30796e-19)
(0.585946 0.370318 0)
(0.501168 0.309922 0)
(0.297089 0.180985 6.64199e-20)
(0.0514702 0.030794 -3.87991e-20)
(0.236963 0.153999 9.51286e-20)
(1.10311 0.716053 -2.9453e-19)
(1.24761 0.816344 -1.07505e-19)
(1.22935 0.818161 0)
(1.17918 0.800871 -1.45418e-21)
(1.12163 0.7797 1.18924e-19)
(1.05748 0.754877 -6.92266e-20)
(0.986459 0.725448 -3.08694e-20)
(0.908464 0.689689 2.7576e-20)
(0.82384 0.644711 -9.91323e-20)
(0.745654 0.593769 -1.57143e-19)
(0.686425 0.545458 1.60862e-19)
(0.644556 0.502807 0)
(0.615376 0.466431 -5.6846e-20)
(0.595632 0.436122 -1.38809e-19)
(0.581317 0.410689 -1.6759e-19)
(0.558447 0.381574 -2.03908e-19)
(0.473839 0.31529 6.11763e-20)
(0.275308 0.179738 -3.5913e-20)
(0.0454042 0.0289204 4.63436e-22)
(0.236123 0.162051 0)
(1.09188 0.749872 0)
(1.23452 0.855424 2.33836e-21)
(1.21624 0.857237 0)
(1.16608 0.838837 -1.68e-19)
(1.10841 0.816485 -1.0491e-19)
(1.04394 0.790489 0)
(0.972219 0.759959 -7.48838e-21)
(0.89291 0.72312 3.3066e-20)
(0.805957 0.676859 -2.27278e-19)
(0.724569 0.624037 0)
(0.662038 0.573067 -1.02903e-19)
(0.61754 0.527022 -3.00259e-21)
(0.586852 0.4868 -2.49274e-21)
(0.566577 0.452743 1.48421e-19)
(0.552259 0.423847 -3.90409e-22)
(0.529136 0.390637 -4.43926e-19)
(0.444124 0.317499 1.33819e-19)
(0.251374 0.175425 3.97761e-20)
(0.038805 0.0261712 0)
(0.235265 0.169803 -3.48761e-19)
(1.08109 0.781761 -1.8047e-19)
(1.22153 0.891946 -2.68427e-19)
(1.20326 0.893724 3.73932e-19)
(1.15319 0.874337 -3.1452e-19)
(1.0955 0.850972 0)
(1.03083 0.824005 -5.87205e-20)
(0.958549 0.792618 1.409e-20)
(0.878059 0.755024 3.61754e-21)
(0.788839 0.707925 1.79748e-20)
(0.704049 0.653748 1.96059e-19)
(0.637806 0.600484 -3.51182e-20)
(0.589718 0.551057 -1.49854e-19)
(0.556766 0.506647 -6.76592e-20)
(0.535761 0.468513 8.28411e-20)
(0.521237 0.435384 -3.40526e-22)
(0.497628 0.397315 1.22287e-19)
(0.41165 0.316405 -2.90745e-19)
(0.224735 0.167532 3.4735e-19)
(0.0316755 0.0226068 5.02477e-20)
(0.234286 0.177141 1.27839e-19)
(1.07074 0.811758 -9.84735e-20)
(1.20876 0.926011 5.71424e-21)
(1.19052 0.927752 2.10826e-19)
(1.14061 0.907484 7.33662e-20)
(1.08299 0.883237 2.09125e-19)
(1.01825 0.855478 -2.5898e-20)
(0.945546 0.823452 6.73764e-20)
(0.864016 0.785399 -1.41882e-20)
(0.772662 0.737895 -1.22842e-19)
(0.684367 0.682874 0)
(0.614078 0.627832 -1.57922e-19)
(0.56186 0.57531 2.17461e-19)
(0.52555 0.526775 0)
(0.502932 0.483818 -1.7737e-19)
(0.487935 0.44581 1.10406e-19)
(0.463558 0.401418 -1.32362e-19)
(0.376254 0.311331 -1.6015e-19)
(0.195825 0.156051 -2.83696e-19)
(0.0242092 0.0182492 -2.21408e-19)
(0.233401 0.184209 -1.40274e-19)
(1.06067 0.839876 1.05292e-19)
(1.19631 0.957732 2.4954e-19)
(1.17809 0.959424 2.89556e-19)
(1.12841 0.938377 -1.53505e-19)
(1.07097 0.913377 1.43948e-19)
(1.00626 0.884971 -8.06037e-20)
(0.933279 0.852511 8.30931e-20)
(0.850857 0.814268 -2.17632e-21)
(0.757498 0.766769 1.1613e-19)
(0.665729 0.711515 4.14321e-19)
(0.591038 0.65523 0)
(0.534264 0.600309 0)
(0.49349 0.547886 -7.82529e-20)
(0.468002 0.499594 0)
(0.451667 0.454743 2.40935e-19)
(0.426262 0.402279 2.90369e-19)
(0.337979 0.301434 0)
(0.165587 0.140835 0)
(0.0169345 0.0134616 2.42233e-19)
(0.232287 0.190678 1.54397e-19)
(1.05091 0.866154 1.25733e-19)
(1.18421 0.987248 1.79128e-19)
(1.16605 0.988878 -2.57902e-19)
(1.11665 0.96713 -1.70858e-19)
(1.05947 0.941477 -1.9054e-19)
(0.994917 0.912555 1.19358e-19)
(0.92178 0.879825 4.29838e-22)
(0.838635 0.841631 -4.62512e-21)
(0.743432 0.794503 -6.00983e-21)
(0.648278 0.73958 2.0936e-19)
(0.569005 0.682801 0)
(0.507186 0.626075 2.18754e-19)
(0.460839 0.570455 1.6445e-19)
(0.430473 0.516598 4.22161e-19)
(0.411194 0.463392 1.2978e-19)
(0.384039 0.398362 -1.6146e-19)
(0.297048 0.283844 -9.53999e-20)
(0.137191 0.12124 0)
(0.0113856 0.00896501 2.64538e-19)
(0.231368 0.197 -3.3893e-19)
(1.04144 0.890768 0)
(1.1725 1.01466 1.99624e-19)
(1.15442 1.01622 -2.10921e-19)
(1.10537 0.993847 1.92921e-19)
(1.04851 0.967635 2.77738e-19)
(0.984229 0.938294 -2.75961e-19)
(0.911065 0.905439 2.94856e-21)
(0.827361 0.86749 0)
(0.730522 0.821065 -1.06149e-19)
(0.632119 0.766997 -4.31467e-19)
(0.548275 0.7104 2.12905e-20)
(0.480917 0.652819 2.95743e-19)
(0.427958 0.59487 0)
(0.390541 0.536442 2.83784e-19)
(0.364967 0.472724 0)
(0.332643 0.388707 0)
(0.25161 0.251236 -1.06929e-19)
(0.121303 0.088218 0)
(0.0265861 0.0128523 7.16599e-20)
(0.230122 0.202677 -3.69715e-19)
(1.03223 0.913974 0)
(1.16115 1.04018 3.22902e-19)
(1.14317 1.04167 0)
(1.09454 1.01878 -1.04477e-19)
(1.03805 0.992123 0)
(0.974124 0.962484 -2.0542e-20)
(0.901033 0.929669 -1.4398e-20)
(0.816921 0.892188 -8.848e-22)
(0.718634 0.846805 -1.02581e-19)
(0.617185 0.794169 1.11848e-20)
(0.528746 0.738594 1.75767e-19)
(0.455688 0.680817 2.85592e-19)
(0.39494 0.622177 4.09454e-20)
(0.347788 0.561277 2.20767e-19)
(0.310809 0.48741 0)
(0.261122 0.376477 3.52995e-19)
(0.180898 0.190371 -2.11783e-19)
(0.070959 0.0797185 2.44735e-19)
(-0.0639686 0.378767 -2.87399e-19)
(0.228876 0.208073 3.00982e-19)
(1.02307 0.93564 4.75157e-19)
(1.15006 1.06413 0)
(1.13218 1.06563 4.41626e-21)
(1.08398 1.04246 2.8341e-19)
(1.02784 1.01556 -5.35749e-19)
(0.964348 0.985849 -1.2126e-19)
(0.891368 0.953377 0)
(0.806919 0.916747 -2.80321e-20)
(0.707274 0.872993 -2.80998e-21)
(0.60278 0.822571 0)
(0.509524 0.769128 0)
(0.430318 0.712347 2.48949e-19)
(0.361132 0.654127 -1.27249e-19)
(0.301051 0.595485 -2.18164e-19)
(0.24628 0.516294 0)
(0.149969 0.372291 1.78435e-19)
(0.0401343 0.457853 -2.13432e-19)
(0.04977 1.71408 -1.11211e-19)
(0.0876016 2.72307 -1.43176e-19)
(0.227508 0.212589 -2.19949e-19)
(1.01425 0.955951 -5.98438e-19)
(1.13923 1.0865 1.85511e-19)
(1.12145 1.08796 1.78238e-19)
(1.07375 1.06469 0)
(1.01793 1.03769 -3.83033e-19)
(0.95505 1.0081 -2.02642e-19)
(0.882209 0.976162 9.52337e-21)
(0.797564 0.940669 -3.77665e-21)
(0.696751 0.899002 7.4962e-20)
(0.589426 0.851478 1.88485e-19)
(0.491553 0.801293 1.77606e-19)
(0.406112 0.746521 2.42274e-19)
(0.329163 0.689033 -2.87613e-19)
(0.25688 0.639672 -3.19422e-19)
(0.180311 0.564318 0)
(0.0863016 0.813364 0)
(0.143598 2.41505 9.23028e-20)
(0.150665 3.14691 0)
(0.151316 3.36636 2.11147e-19)
(0.228437 0.217098 0)
(1.00614 0.974948 0)
(1.12845 1.10715 0)
(1.11077 1.10846 4.95434e-20)
(1.06353 1.08527 2.52485e-19)
(1.00811 1.0584 -2.91652e-19)
(0.946125 1.02915 -1.449e-19)
(0.873508 0.997925 1.0792e-20)
(0.788822 0.963822 -6.66182e-20)
(0.687082 0.924681 -9.97506e-21)
(0.577238 0.880739 3.35374e-19)
(0.475114 0.834797 -2.07321e-20)
(0.38341 0.783932 2.68587e-20)
(0.300148 0.724632 4.06198e-20)
(0.223458 0.688534 1.35271e-21)
(0.14815 0.919682 1.65898e-21)
(0.191526 2.5277 -4.41746e-19)
(0.219779 3.25909 -1.67589e-19)
(0.200606 3.4234 7.67913e-20)
(0.179709 3.45226 -7.75312e-20)
(0.145007 0.174385 1.25199e-19)
(0.990875 0.995701 0)
(1.11757 1.1263 -3.63072e-19)
(1.10096 1.12783 -4.61828e-19)
(1.05407 1.10497 5.24833e-19)
(0.999218 1.0783 3.09508e-19)
(0.937482 1.0491 1.69016e-19)
(0.86535 1.01878 -1.83952e-19)
(0.78083 0.986347 7.10703e-20)
(0.678618 0.949963 0)
(0.566902 0.910031 1.41378e-19)
(0.461159 0.868804 -1.30171e-19)
(0.363737 0.824946 0)
(0.274695 0.765532 3.51614e-20)
(0.213021 0.859655 8.36876e-20)
(0.190756 2.13305 -1.04223e-19)
(0.292945 3.29246 1.15499e-19)
(0.270436 3.44673 5.35912e-20)
(0.226729 3.47634 6.12738e-20)
(0.196897 3.48952 6.83319e-20)
(0.268241 0.249798 -2.32477e-19)
(0.971699 0.998965 0)
(1.09712 1.146 3.69576e-19)
(1.08701 1.15642 4.75202e-19)
(1.03894 1.13336 -5.38932e-19)
(0.984453 1.10729 -3.28061e-19)
(0.923019 1.07959 -2.59794e-19)
(0.851384 1.05077 -1.36553e-20)
(0.766788 1.02116 -1.0176e-19)
(0.663257 0.989737 -3.6619e-21)
(0.548027 0.957601 5.13706e-21)
(0.436625 0.925946 9.68557e-20)
(0.329413 0.89609 2.11798e-20)
(0.251892 0.988038 -3.03106e-20)
(0.295558 2.06317 -7.05758e-20)
(0.376327 3.2861 4.25338e-20)
(0.367208 3.48851 -3.17904e-20)
(0.322393 3.51846 -1.73662e-20)
(0.27632 3.55304 2.25197e-20)
(0.209851 3.54383 1.20753e-21)
(0.254018 0.244738 0)
(0.966478 1.01689 9.7322e-20)
(1.08841 1.16582 -7.32179e-20)
(1.07689 1.17605 -5.29517e-20)
(1.02949 1.15311 -3.53605e-19)
(0.975562 1.12724 3.20215e-19)
(0.914454 1.09977 1.74634e-19)
(0.84352 1.07196 -1.43053e-20)
(0.759507 1.04424 1.2579e-19)
(0.65608 1.01635 -1.36483e-20)
(0.539787 0.98976 -1.68037e-19)
(0.426361 0.965435 1.35566e-20)
(0.320768 0.956009 -1.78915e-20)
(0.300832 1.35137 -2.41008e-20)
(0.41467 2.91421 1.91658e-20)
(0.463435 3.47116 6.59601e-22)
(0.40986 3.56372 -8.16998e-20)
(0.365807 3.59219 -8.34673e-20)
(0.302495 3.62267 1.04592e-19)
(0.226929 3.61602 4.68543e-20)
(0.236003 0.241091 2.38693e-19)
(0.959162 1.03725 6.53573e-19)
(1.0789 1.18704 -2.08733e-19)
(1.0663 1.19685 -2.00834e-19)
(1.01953 1.17375 0)
(0.966276 1.1479 4.67571e-19)
(0.905857 1.12073 2.65998e-19)
(0.835966 1.0939 -1.5024e-20)
(0.752937 1.06818 1.30655e-20)
(0.650214 1.04407 6.89678e-20)
(0.533662 1.02336 -4.44267e-20)
(0.419843 1.00699 -8.86435e-20)
(0.328214 1.0479 -1.11597e-19)
(0.386261 1.88613 1.20346e-19)
(0.52199 3.31523 3.56229e-20)
(0.5312 3.55475 0)
(0.464504 3.61556 0)
(0.417858 3.67769 9.83292e-20)
(0.332844 3.74629 0)
(0.240454 3.71675 2.08569e-19)
(0.223134 0.240288 -3.47678e-19)
(0.949933 1.05826 -5.43306e-19)
(1.06779 1.20895 0)
(1.05446 1.2181 4.88187e-21)
(1.00841 1.19459 -3.4323e-19)
(0.955992 1.16862 6.93674e-19)
(0.896651 1.14174 1.78546e-19)
(0.828089 1.11582 -1.85869e-20)
(0.746389 1.09207 1.3995e-19)
(0.644849 1.07177 -7.36579e-21)
(0.528703 1.05708 0)
(0.416235 1.04981 0)
(0.356141 1.20147 -7.51141e-20)