/*--------------------------------*- C++ -*----------------------------------*\
| =========                 |                                                 |
| \\      /  F ield         | OpenFOAM: The Open Source CFD Toolbox           |
|  \\    /   O peration     | Version:  4.0                                   |
|   \\  /    A nd           | Web:      www.OpenFOAM.org                      |
|    \\/     M anipulation  |                                                 |
\*---------------------------------------------------------------------------*/
FoamFile
{
    version     2.0;
    format      ascii;
    class       surfaceScalarField;
    location    "1";
    object      phi;
}
// * * * * * * * * * * * * * * * * * * * * * * * * * * * * * * * * * * * * * //

dimensions      [0 3 -1 0 0 0 0];

internalField   nonuniform List<scalar> 
17370
(
-0.0765169
0.0756321
0.289896
-0.0614768
0.0495917
0.358661
-0.0390505
0.0316072
0.423611
-0.0252116
0.0207081
0.503755
-0.0167669
0.0139326
0.602236
-0.0113632
0.00946273
0.720958
-0.00767238
0.00630054
0.864278
-0.0049548
0.00387492
1.03653
-0.00276433
0.00181384
1.24345
-0.000781838
-0.000183924
1.49216
0.00114459
-0.00216638
1.49221
0.00309372
-0.00417842
1.24378
0.00523064
-0.00654901
1.03696
0.00789624
-0.00966041
0.864671
0.0115358
-0.0140787
0.7216
0.0168902
-0.0208119
0.603136
0.0252993
-0.0316797
0.50582
0.0391112
-0.0496407
0.426698
0.0615151
-0.0756589
0.360919
0.0765288
0.212482
-0.174845
0.158806
0.016039
-0.359908
0.358161
-0.0216837
0.0234312
-0.43038
0.430038
-0.0243186
0.024661
-0.510702
0.511424
-0.0245012
0.023779
-0.607526
0.609213
-0.0226055
0.0209187
-0.72509
0.727207
-0.019128
0.0170108
-0.867287
0.869464
-0.0150257
0.0128489
-1.03899
1.04106
-0.0109013
0.00882393
-1.2455
1.24745
-0.00698751
0.00503396
-1.49379
1.49578
-0.00325877
0.0012607
-1.49366
1.49554
0.000639738
-0.00252434
-1.24491
1.24664
0.00446898
-0.00619986
-1.03817
1.03992
0.00810146
-0.00985256
-0.866347
0.868224
0.0118496
-0.0137269
-0.723712
0.725621
0.0158267
-0.0177353
-0.605886
0.607595
0.0197651
-0.0214738
-0.508156
0.509244
0.0230686
-0.0241562
-0.42787
0.427971
0.0248123
-0.0249136
-0.360818
0.359883
0.0245137
-0.0235785
-0.280271
0.274568
0.0217785
-0.0160755
-0.152555
0.152525
3.01469e-05
-0.00456816
0.00675775
-0.357451
0.355262
-0.00865159
0.00998188
-0.427095
0.425765
-0.0110274
0.0116042
-0.509652
0.509075
-0.0117992
0.0117347
-0.608827
0.608891
-0.0112914
0.0106187
-0.727344
0.728017
-0.00961373
0.00852553
-0.870132
0.87122
-0.00717396
0.0058485
-1.04186
1.04319
-0.00429791
0.00285394
-1.24849
1.24993
-0.00102101
-0.000756107
-1.49755
1.49933
0.00249314
-0.00423739
-1.49772
1.49946
0.00573574
-0.00731624
-1.24924
1.25082
0.00849364
-0.00973029
-1.0428
1.04404
0.0107065
-0.0115987
-0.871122
0.872015
0.0121817
-0.0125491
-0.72852
0.728887
0.0125654
-0.0122319
-0.609858
0.609524
0.0115447
-0.0103958
-0.510939
0.50979
0.00898941
-0.00699768
-0.428033
0.426041
0.00471173
-0.00196955
-0.354482
0.35174
7.5639e-05
-0.152468
0.152392
-0.152415
0.15207
0.000344633
-0.00168475
0.00253552
-0.35379
0.352939
-0.00349761
0.00434113
-0.424425
0.423581
-0.00518806
0.00586451
-0.50826
0.507584
-0.00644802
0.00674074
-0.608706
0.608414
-0.00683592
0.00671284
-0.728406
0.728529
-0.00634958
0.00581603
-0.872062
0.872596
-0.0050267
0.00413409
-1.04434
1.04523
-0.00297904
0.00176799
-1.25132
1.25253
-0.000424828
-0.000917698
-1.50098
1.50232
0.00225743
-0.00356654
-1.50108
1.50239
0.00460428
-0.00561191
-1.25222
1.25323
0.0064695
-0.00711069
-1.04499
1.04563
0.00750762
-0.00772136
-0.872576
0.872789
0.0077049
-0.00745626
-0.728887
0.728639
0.00703756
-0.0063926
-0.608862
0.608217
0.00566795
-0.00477394
-0.508497
0.507603
0.00388965
-0.0028892
-0.424349
0.423348
0.00199633
-0.00108745
-0.350184
0.349275
0.00042452
-0.152256
0.151831
-0.1518
0.151583
0.00021681
-0.000981513
0.00135798
-0.352366
0.351989
-0.00177521
0.00215613
-0.423014
0.422633
-0.00256142
0.00290798
-0.507094
0.506748
-0.00323968
0.00346385
-0.608144
0.607919
-0.00361079
0.0036381
-0.728541
0.728514
-0.00352946
0.00329266
-0.872945
0.873182
-0.00287036
0.00233871
-1.04592
1.04645
-0.00160046
0.000796103
-1.25353
1.25433
0.000158002
-0.00111057
-1.50345
1.5044
0.00204279
-0.0029264
-1.50347
1.50435
0.00358452
-0.00410247
-1.25393
1.25445
0.00447634
-0.00475146
-1.04608
1.04635
0.00484682
-0.0047966
-0.872837
0.872787
0.00462441
-0.00432176
-0.728346
0.728044
0.00396079
-0.00350107
-0.607673
0.607213
0.0030444
-0.00252089
-0.506933
0.506409
0.00203532
-0.00150936
-0.42264
0.422114
0.00104739
-0.000580335
-0.348629
0.348162
0.00021921
-0.151519
0.1513
-0.15143
0.151331
9.89739e-05
-0.0004439
0.000621974
-0.351732
0.351554
-0.000823416
0.00101179
-0.422365
0.422176
-0.00121679
0.00139436
-0.506496
0.506319
-0.00156792
0.00169425
-0.607745
0.607618
-0.00178419
0.00180714
-0.72848
0.728457
-0.00175219
0.00161611
-0.873354
0.87349
-0.00136012
0.00102603
-1.04687
1.04721
-0.000545947
1.11361e-05
-1.25498
1.25552
0.000652224
-0.00131354
-1.5052
1.50586
0.00194226
-0.0025059
-1.50506
1.50563
0.00289653
-0.00317955
-1.25484
1.25512
0.00333315
-0.00339325
-1.0465
1.04656
0.00335084
-0.00321292
-0.87268
0.872542
0.00302001
-0.00275268
-0.727754
0.727487
0.00247388
-0.00214554
-0.606825
0.606497
0.00183635
-0.0014983
-0.505992
0.505654
0.00119779
-0.000883154
-0.421715
0.4214
0.000612759
-0.000341584
-0.347814
0.347543
0.000132862
-0.151133
0.151
-0.151269
0.151233
3.61798e-05
-0.000164133
0.000236242
-0.351435
0.351363
-0.000318013
0.000393005
-0.422051
0.421976
-0.000472755
0.000539577
-0.506202
0.506135
-0.000600911
0.000639382
-0.607538
0.607499
-0.000654014
0.000634337
-0.728454
0.728474
-0.000565645
0.000450482
-0.873609
0.873724
-0.000258159
1.82129e-05
-1.04748
1.04772
0.000317048
-0.000688225
-1.25596
1.25633
0.00114782
-0.00159424
-1.5064
1.50685
0.00199999
-0.00233749
-1.50607
1.5064
0.00254531
-0.00266678
-1.25532
1.25544
0.00269526
-0.00264893
-1.04656
1.04651
0.00254521
-0.0023802
-0.872387
0.872222
0.00219382
-0.00196494
-0.727241
0.727012
0.0017421
-0.00149235
-0.606214
0.605964
0.00126605
-0.00102537
-0.505373
0.505132
0.000815984
-0.000599323
-0.421143
0.420926
0.000415247
-0.000231366
-0.347325
0.347141
8.96432e-05
-0.150892
0.150802
-0.151215
0.151213
2.13462e-06
-8.84394e-06
1.21069e-05
-0.351329
0.351325
-1.40972e-05
1.36381e-05
-0.421942
0.421943
-8.64673e-06
-2.2232e-06
-0.50611
0.506121
2.39982e-05
-5.60028e-05
-0.607498
0.60753
0.000109484
-0.00017957
-0.728519
0.728589
0.000285912
-0.000415454
-0.873842
0.873972
0.000597203
-0.000802116
-1.04794
1.04815
0.00106944
-0.00134688
-1.25665
1.25692
0.0016741
-0.00197325
-1.50721
1.50751
0.00222228
-0.00240119
-1.50666
1.50684
0.00248313
-0.00249315
-1.2555
1.25551
0.00243921
-0.00232589
-1.04643
1.04632
0.00218572
-0.00200218
-0.872048
0.871865
0.00181808
-0.00160562
-0.726794
0.726581
0.00140945
-0.00119742
-0.605738
0.605526
0.0010104
-0.000815072
-0.504919
0.504724
0.000646861
-0.000474816
-0.420737
0.420565
0.000329595
-0.000184586
-0.346981
0.346836
7.16335e-05
-0.150722
0.150651
-0.151223
0.151246
-2.22115e-05
0.000103513
-0.000148858
-0.351348
0.351394
0.000203985
-0.000260298
-0.421973
0.422029
0.00032951
-0.000400855
-0.506164
0.506235
0.000489716
-0.000582664
-0.607594
0.607687
0.000699492
-0.000822305
-0.728685
0.728808
0.000976912
-0.00113854
-0.874115
0.874277
0.00133919
-0.00154335
-1.04835
1.04855
0.00178628
-0.00201787
-1.25717
1.2574
0.0022682
-0.00247178
-1.50776
1.50796
0.00261348
-0.00267915
-1.50695
1.50702
0.0026665
-0.00259014
-1.25547
1.2554
0.00247292
-0.00230758
-1.04618
1.04601
0.00213233
-0.0019251
-0.871671
0.871464
0.00172881
-0.00151288
-0.726371
0.726155
0.0013192
-0.0011147
-0.605321
0.605116
0.00093711
-0.000753171
-0.504537
0.504353
0.000596181
-0.00043716
-0.420403
0.420244
0.000303761
-0.000170258
-0.346698
0.346565
6.56068e-05
-0.150584
0.150518
-0.151278
0.151322
-4.31549e-05
0.000199382
-0.000286489
-0.35146
0.351548
0.000390834
-0.000495438
-0.42211
0.422215
0.000621317
-0.000747096
-0.506334
0.50646
0.000897699
-0.00104798
-0.607808
0.607959
0.00122775
-0.00140601
-0.728958
0.729136
0.00161737
-0.00182411
-0.87446
0.874666
0.00206411
-0.00229128
-1.04876
1.04899
0.00254219
-0.00276183
-1.25763
1.25785
0.00297479
-0.00312062
-1.50813
1.50828
0.0031887
-0.00317048
-1.50704
1.50702
0.0030852
-0.0029329
-1.25528
1.25513
0.00275573
-0.00253331
-1.04582
1.0456
0.00231537
-0.00206934
-0.871239
0.870992
0.00184439
-0.00160345
-0.725928
0.725687
0.00139141
-0.00117088
-0.604906
0.604686
0.000981314
-0.000787534
-0.504167
0.503973
0.000623348
-0.0004573
-0.420084
0.419918
0.000317692
-0.000177932
-0.34643
0.34629
6.83737e-05
-0.150453
0.150384
-0.151374
0.151438
-6.32011e-05
0.00029282
-0.000421749
-0.351655
0.351784
0.000576099
-0.000729495
-0.422343
0.422497
0.000912184
-0.00109326
-0.506612
0.506793
0.00130832
-0.00152002
-0.608139
0.608351
0.00176847
-0.00201013
-0.729345
0.729587
0.0022893
-0.00255479
-0.874901
0.875166
0.00285193
-0.0031223
-1.04924
1.04951
0.00340588
-0.00363867
-1.25807
1.2583
0.00384274
-0.00395552
-1.50841
1.50852
0.00397007
-0.00388173
-1.50697
1.50688
0.00372803
-0.00350233
-1.25494
1.25471
0.00326082
-0.00297313
-1.04534
1.04506
0.00270065
-0.00240018
-0.870722
0.870421
0.00213102
-0.00184605
-0.725427
0.725142
0.00159829
-0.00134194
-0.60445
0.604193
0.00112287
-0.000899756
-0.503767
0.503544
0.000711633
-0.000521565
-0.419741
0.419551
0.000361868
-0.000202157
-0.346142
0.345982
7.70737e-05
-0.150313
0.150235
-0.151512
0.151599
-8.64736e-05
0.000399
-0.000573803
-0.351935
0.35211
0.000782633
-0.00099034
-0.422676
0.422884
0.00123754
-0.00148162
-0.507005
0.507249
0.00176954
-0.00205152
-0.608596
0.608878
0.00238045
-0.00269733
-0.729864
0.730181
0.00305954
-0.00339898
-0.875466
0.875806
0.00377316
-0.00410568
-1.04981
1.05014
0.00444475
-0.00471144
-1.25855
1.25882
0.00492883
-0.0050262
-1.50862
1.50872
0.00499877
-0.00484492
-1.50676
1.5066
0.0046211
-0.00431317
-1.25445
1.25414
0.00399559
-0.00362642
-1.04473
1.04436
0.00328224
-0.00290836
-0.870087
0.869713
0.00257598
-0.00222725
-0.724828
0.724479
0.00192525
-0.00161485
-0.603912
0.603602
0.00135062
-0.00108217
-0.5033
0.503032
0.000855739
-0.000627271
-0.419344
0.419115
0.000435648
-0.000243763
-0.345808
0.345616
9.29945e-05
-0.150151
0.150058
-0.151698
0.151811
-0.000113256
0.000523518
-0.000753668
-0.352311
0.352541
0.00102863
-0.00130149
-0.423123
0.423396
0.0016255
-0.00194505
-0.507529
0.507848
0.00232193
-0.00268984
-0.609201
0.609569
0.00311732
-0.00352752
-0.730542
0.730952
0.00399367
-0.0044278
-0.87619
0.876624
0.00490137
-0.00531795
-1.05051
1.05093
0.00573563
-0.00605621
-1.25911
1.25943
0.00630492
-0.00639837
-1.50881
1.50891
0.00633295
-0.00610948
-1.50642
1.50619
0.00580621
-0.00540095
-1.25379
1.25338
0.00499077
-0.00451886
-1.04394
1.04347
0.00408312
-0.00361197
-0.869293
0.868822
0.00319557
-0.00275984
-0.72409
0.723654
0.00238391
-0.00199816
-0.603256
0.602871
0.00167046
-0.00133758
-0.502733
0.5024
0.001057
-0.000774379
-0.418862
0.418579
0.000537816
-0.000301145
-0.345404
0.345167
0.000114883
-0.149955
0.14984
-0.15194
0.152088
-0.000147562
0.000680143
-0.00097821
-0.352803
0.353101
0.0013342
-0.00168767
-0.423706
0.42406
0.00210758
-0.00252119
-0.508212
0.508626
0.00300794
-0.00348263
-0.609987
0.610461
0.0040334
-0.00456049
-0.731417
0.731944
0.0051579
-0.00571197
-0.877115
0.877669
0.00631386
-0.0068395
-1.0514
1.05192
0.00736191
-0.00775681
-1.25978
1.26018
0.00805393
-0.00815112
-1.509
1.5091
0.00804663
-0.0077427
-1.50593
1.50563
0.00734328
-0.00681774
-1.25292
1.25239
0.00629039
-0.0056881
-1.04294
1.04234
0.00513436
-0.00453817
-0.868292
0.867696
0.00401268
-0.00346386
-0.723165
0.722616
0.002991
-0.00250617
-0.602439
0.601954
0.00209437
-0.00167643
-0.502028
0.50161
0.00132463
-0.000970348
-0.418263
0.417909
0.000673868
-0.000377137
-0.344902
0.344605
0.000143801
-0.149712
0.149568
-0.152256
0.152446
-0.000190398
0.000877175
-0.00126177
-0.35344
0.353825
0.00172086
-0.00217626
-0.424461
0.424917
0.00271672
-0.00324906
-0.509095
0.509628
0.00387545
-0.00448572
-0.611
0.61161
0.00519287
-0.00586884
-0.732541
0.733217
0.00663337
-0.00734078
-0.878295
0.879002
0.00810635
-0.0087721
-1.05251
1.05318
0.0094293
-0.00992127
-1.26062
1.26111
0.0102835
-0.0103898
-1.5092
1.50931
0.0102388
-0.00983619
-1.50528
1.50487
0.00931675
-0.00863977
-1.2518
1.25112
0.00796444
-0.00719568
-1.04166
1.04089
0.00649117
-0.00573393
-0.867025
0.866267
0.00506759
-0.00437287
-0.721999
0.721305
0.00377533
-0.00316308
-0.601409
0.600797
0.00264363
-0.00211683
-0.501141
0.500614
0.00167349
-0.00122671
-0.417511
0.417064
0.00085174
-0.000476311
-0.344272
0.343896
0.000181129
-0.149407
0.149226
-0.152662
0.152908
-0.000245734
0.00112983
-0.00162485
-0.354261
0.354756
0.00221573
-0.00280181
-0.425433
0.426019
0.00349694
-0.00418137
-0.510231
0.510916
0.004986
-0.00576947
-0.612301
0.613085
0.00667639
-0.00754207
-0.733982
0.734848
0.00851969
-0.00942214
-0.879801
0.880703
0.0103964
-0.0112404
-1.05393
1.05477
0.0120691
-0.0126842
-1.26166
1.26228
0.0131291
-0.0132462
-1.50942
1.50954
0.0130363
-0.0125077
-1.50441
1.50388
0.011836
-0.0109663
-1.25035
1.24948
0.0101022
-0.0091221
-1.04002
1.03904
0.00822519
-0.00726345
-0.865414
0.864452
0.00641751
-0.00553663
-0.720523
0.719642
0.00477855
-0.00400261
-0.600108
0.599333
0.00334404
-0.00267674
-0.500022
0.499354
0.00211521
-0.00154953
-0.416561
0.415996
0.0010756
-0.000601326
-0.343475
0.343
0.000228671
-0.149022
0.148793
-0.153187
0.153505
-0.000317285
0.0014562
-0.00209348
-0.355318
0.355955
0.00285413
-0.00360856
-0.426684
0.427438
0.00450345
-0.00538384
-0.511692
0.512572
0.00641817
-0.00742404
-0.613972
0.614978
0.00858706
-0.00969556
-0.735828
0.736936
0.0109452
-0.0120963
-0.881723
0.882874
0.0133355
-0.0144048
-1.05572
1.05679
0.0154491
-0.0162173
-1.26296
1.26373
0.0167623
-0.0168887
-1.50966
1.50978
0.0165997
-0.015908
-1.50328
1.50259
0.0150404
-0.0139241
-1.2485
1.24738
0.0128198
-0.0115695
-1.03793
1.03668
0.0104282
-0.00920513
-0.863367
0.862144
0.00813133
-0.0070133
-0.718649
0.717531
0.00605243
-0.00506919
-0.598459
0.597476
0.00423553
-0.00339024
-0.498603
0.497758
0.00267862
-0.00196214
-0.41536
0.414643
0.0013622
-0.000761913
-0.342467
0.341867
0.000289875
-0.148535
0.148245
-0.153865
0.154276
-0.000410908
0.00188152
-0.00270393
-0.356679
0.357501
0.003685
-0.00465741
-0.428295
0.429267
0.00581024
-0.00694379
-0.513571
0.514704
0.00827462
-0.00956776
-0.616119
0.617412
0.011061
-0.0124819
-0.738191
0.739612
0.0140799
-0.0155478
-0.884174
0.885642
0.0171218
-0.0184739
-1.05799
1.05935
0.0197855
-0.0207403
-1.26459
1.26554
0.0214018
-0.0215296
-1.50991
1.51004
0.0211309
-0.0202244
-1.5018
1.50089
0.0191032
-0.0176711
-1.24612
1.24469
0.0162598
-0.0146672
-1.03527
1.03368
0.0132157
-0.0116624
-0.860766
0.859213
0.0102997
-0.00888192
-0.716272
0.714854
0.00766397
-0.00641807
-0.596369
0.595123
0.00536189
-0.00429127
-0.496806
0.495736
0.00339059
-0.00248384
-0.413837
0.41293
0.00172458
-0.000964592
-0.341191
0.340431
0.000367153
-0.14792
0.147552
-0.154744
0.155279
-0.000534265
0.00243885
-0.00350338
-0.358436
0.359501
0.00477292
-0.00603091
-0.430373
0.431631
0.00752108
-0.008985
-0.515992
0.517456
0.0107015
-0.0123667
-0.618879
0.620544
0.0142858
-0.0161074
-0.74122
0.743042
0.0181502
-0.0200197
-0.887299
0.889168
0.0220151
-0.0237185
-1.06087
1.06257
0.0253567
-0.026533
-1.2666
1.26778
0.027323
-0.027434
-1.51016
1.51027
0.0268805
-0.0256901
-1.49985
1.49866
0.0242414
-0.0224048
-1.24306
1.24123
0.0206033
-0.0185759
-1.03188
1.02985
0.0167317
-0.0147612
-0.857463
0.855493
0.0130336
-0.0112379
-0.713258
0.711463
0.00969562
-0.00811821
-0.593721
0.592143
0.00678106
-0.00542629
-0.494532
0.493177
0.00428686
-0.00313978
-0.41191
0.410763
0.00217896
-0.00121767
-0.339576
0.338615
0.000462738
-0.147141
0.146678
-0.15589
0.156589
-0.000699178
0.00317922
-0.00456372
-0.360714
0.362098
0.00621383
-0.00784768
-0.433063
0.434697
0.00978147
-0.0116786
-0.519122
0.521019
0.0138996
-0.0160499
-0.622435
0.624586
0.0185214
-0.0208597
-0.745106
0.747444
0.0234704
-0.0258472
-0.891277
0.893654
0.0283673
-0.0305007
-1.06448
1.06661
0.0325283
-0.0339578
-1.26908
1.27051
0.0348765
-0.0349352
-1.51037
1.51042
0.0341604
-0.0325924
-1.49729
1.49573
0.0307194
-0.0283671
-1.23915
1.2368
0.0260711
-0.0234954
-1.02757
1.02499
0.0211568
-0.0186606
-0.853274
0.850778
0.0164742
-0.0142026
-0.709442
0.707171
0.0122523
-0.0102586
-0.59037
0.588376
0.00856875
-0.0068569
-0.491654
0.489942
0.00541687
-0.00396696
-0.409473
0.408023
0.00275265
-0.00153788
-0.337534
0.336319
0.000584111
-0.146157
0.145573
-0.157391
0.158316
-0.000924256
0.00417775
-0.00599139
-0.363681
0.365495
0.00815114
-0.0102874
-0.436564
0.4387
0.0128119
-0.0152841
-0.523183
0.525655
0.0181708
-0.0209563
-0.627032
0.629817
0.0241451
-0.027147
-0.750093
0.753095
0.0304789
-0.0334896
-0.89633
0.899341
0.0366525
-0.0392984
-1.06899
1.07164
0.0417728
-0.0434721
-1.27207
1.27377
0.0444951
-0.0444372
-1.51044
1.51038
0.0433444
-0.0412742
-1.49392
1.49185
0.0388551
-0.0358477
-1.23413
1.23113
0.0329302
-0.0296676
-1.02209
1.01883
0.0267113
-0.0235591
-0.847972
0.84482
0.0207996
-0.0179322
-0.704618
0.70175
0.0154708
-0.0129535
-0.586135
0.583618
0.0108204
-0.00865865
-0.488018
0.485856
0.00684012
-0.0050091
-0.406394
0.404563
0.00347561
-0.00194142
-0.334955
0.33342
0.000737111
-0.144916
0.144179
-0.159383
0.160622
-0.00123906
0.00555651
-0.00795753
-0.367579
0.36998
0.0108125
-0.0136315
-0.44115
0.443969
0.0169548
-0.020199
-0.528484
0.531728
0.0239724
-0.0275959
-0.632992
0.636616
0.0317186
-0.0355709
-0.756496
0.760349
0.0398071
-0.0435937
-0.902721
0.906508
0.0475185
-0.050748
-1.07457
1.0778
0.053699
-0.0556503
-1.2756
1.27756
0.0567057
-0.0564202
-1.51022
1.50994
0.054869
-0.0521342
-1.48948
1.48674
0.0490175
-0.0451912
-1.22773
1.22391
0.0415024
-0.0373916
-1.01516
1.01105
0.0336721
-0.0297081
-0.841282
0.837318
0.0262367
-0.0226286
-0.698533
0.694925
0.0195285
-0.0163567
-0.580792
0.57762
0.0136659
-0.0109377
-0.483427
0.480699
0.00864131
-0.0063285
-0.402506
0.400193
0.00439095
-0.00245235
-0.331696
0.329758
0.000930866
-0.143351
0.14242
-0.162068
0.163768
-0.00169947
0.00752996
-0.0107603
-0.372757
0.375988
0.0145914
-0.0183624
-0.447223
0.450994
0.0227903
-0.0270906
-0.535458
0.539758
0.0320592
-0.0367916
-0.640755
0.645487
0.0421233
-0.047047
-0.764707
0.769631
0.0523875
-0.0570842
-0.910736
0.915432
0.0618585
-0.0656934
-1.08133
1.08517
0.0690811
-0.0711937
-1.2796
1.28172
0.0721288
-0.0714342
-1.50948
1.50878
0.0692274
-0.0656213
-1.4836
1.47999
0.0616288
-0.0567958
-1.2196
1.21477
0.0521704
-0.0470336
-1.00645
1.00131
0.04239
-0.0374381
-0.832883
0.827931
0.0330953
-0.0285719
-0.690882
0.686359
0.0246779
-0.0206851
-0.574061
0.570068
0.0172925
-0.0138475
-0.477634
0.474189
0.0109447
-0.00801823
-0.397593
0.394666
0.00556466
-0.00310854
-0.327577
0.325121
0.00118013
-0.141374
0.140193
-0.165786
0.168212
-0.00242628
0.0105439
-0.0150042
-0.379766
0.384226
0.0202665
-0.0254153
-0.455389
0.460537
0.031414
-0.0371836
-0.544734
0.550503
0.0437711
-0.0499572
-0.650901
0.657087
0.0568115
-0.0630236
-0.775176
0.781388
0.0696183
-0.0752811
-0.920615
0.926277
0.0808765
-0.0852173
-1.08928
1.09362
0.0888608
-0.0909174
-1.28384
1.2859
0.0914498
-0.0900636
-1.50778
1.5064
0.0869308
-0.0821991
-1.47586
1.47113
0.0771308
-0.0710979
-1.20936
1.20333
0.0653743
-0.059042
-0.995599
0.989266
0.05332
-0.0472077
-0.822419
0.816307
0.0418286
-0.0362027
-0.681307
0.675681
0.0313358
-0.0263217
-0.565591
0.560577
0.0220416
-0.0176781
-0.470314
0.46595
0.0139888
-0.0102597
-0.391367
0.387638
0.00712692
-0.00398589
-0.322349
0.319208
0.00151546
-0.13886
0.137344
-0.171173
0.175002
-0.00382919
0.0159037
-0.0223286
-0.389548
0.395973
0.0297953
-0.0369927
-0.46664
0.473837
0.0452361
-0.0530105
-0.557228
0.565003
0.0616894
-0.0696409
-0.664137
0.672089
0.0782169
-0.0857701
-0.788287
0.79584
0.0935415
-0.0999929
-0.932379
0.938831
0.106114
-0.110623
-1.0981
1.10261
0.114097
-0.115683
-1.28778
1.28937
0.115351
-0.112864
-1.50452
1.50203
0.108452
-0.102297
-1.46572
1.45957
0.0959456
-0.0885372
-1.19663
1.18922
0.0815884
-0.0739426
-0.982287
0.974641
0.0670439
-0.0596595
-0.809564
0.80218
0.0531315
-0.0462567
-0.669439
0.662565
0.0402595
-0.0340217
-0.554967
0.548729
0.0286435
-0.0231046
-0.461026
0.455487
0.0183753
-0.0135509
-0.383404
0.37858
0.00946368
-0.00533171
-0.315636
0.311505
0.00203817
-0.135609
0.133571
-0.179712
0.187982
-0.00826988
0.0292691
-0.0386869
-0.404049
0.413467
0.0492074
-0.0590309
-0.482654
0.492478
0.0699396
-0.0799182
-0.574078
0.584056
0.0906832
-0.100201
-0.680961
0.690479
0.110106
-0.118511
-0.803932
0.812338
0.126811
-0.133388
-0.94546
0.952037
0.139276
-0.143243
-1.10696
1.11093
0.145796
-0.146246
-1.29048
1.29093
0.144388
-0.140254
-1.4988
1.49466
0.134126
-0.126224
-1.45258
1.44468
0.118386
-0.109474
-1.18107
1.17216
0.101242
-0.0922719
-0.966326
0.957356
0.0842219
-0.0756245
-0.794161
0.785563
0.0680158
-0.0599681
-0.655051
0.647003
0.0528965
-0.0454754
-0.54181
0.534388
0.0390003
-0.03222
-0.449203
0.442423
0.0263117
-0.0201248
-0.37298
0.366793
0.0146758
-0.00875079
-0.306701
0.300776
0.00333613
-0.131218
0.127881
-0.197782
0.200471
-0.00268899
0.0200883
-0.0291816
-0.426961
0.436055
0.0399004
-0.0503262
-0.504934
0.51536
0.0620663
-0.0734375
-0.595247
0.606619
0.0855671
-0.0963442
-0.700378
0.711155
0.108269
-0.118842
-0.820611
0.831184
0.129815
-0.139208
-0.958169
0.967563
0.148517
-0.155935
-1.1142
1.12162
0.162479
-0.166685
-1.29048
1.29468
0.168791
-0.167882
-1.48944
1.48853
0.16388
-0.157211
-1.43575
1.42908
0.149484
-0.139759
-1.16244
1.15272
0.130277
-0.118976
-0.947752
0.936451
0.108547
-0.0969896
-0.776416
0.764858
0.0865183
-0.0752191
-0.63841
0.627111
0.0649282
-0.0542716
-0.52629
0.515633
0.0452769
-0.0357276
-0.434689
0.42514
0.0277187
-0.0196958
-0.359335
0.351313
0.0128752
-0.00610311
-0.293854
0.287082
0.00124415
-0.12376
0.122516
-0.212314
0.207518
0.00479616
0.00283753
-0.00981123
-0.449032
0.456005
0.019108
-0.0279881
-0.52712
0.536
0.0385784
-0.0482951
-0.617735
0.627451
0.0591526
-0.0690411
-0.722085
0.731974
0.0796372
-0.0892486
-0.841512
0.851123
0.099278
-0.107636
-0.976948
0.985306
0.116177
-0.122696
-1.12919
1.13571
0.128454
-0.131909
-1.29896
1.30242
0.133105
-0.131558
-1.48722
1.48567
0.12706
-0.120099
-1.42199
1.41503
0.112129
-0.102438
-1.14285
1.13316
0.0932414
-0.082884
-0.925308
0.91495
0.0733359
-0.0628459
-0.753388
0.742897
0.0535477
-0.0439755
-0.615573
0.606001
0.0358419
-0.0274869
-0.504438
0.496083
0.0205841
-0.0140254
-0.413849
0.40729
0.00909477
-0.00461837
-0.339908
0.335432
0.00146781
0.000962965
-0.276431
0.274
-0.00187008
-0.116006
0.117876
-0.217355
0.213397
0.00395896
0.00084844
-0.00592448
-0.46553
0.470606
0.0127585
-0.0198797
-0.54516
0.552281
0.0282606
-0.0363121
-0.636851
0.644903
0.045419
-0.0538824
-0.741411
0.749875
0.0632742
-0.0717338
-0.860229
0.868689
0.0804457
-0.0881192
-0.993711
1.00138
0.0958359
-0.101898
-1.14213
1.14819
0.10692
-0.109812
-1.3056
1.30849
0.110801
-0.109051
-1.48383
1.48208
0.104553
-0.0978272
-1.40786
1.40113
0.0903716
-0.0816359
-1.12377
1.11503
0.0731714
-0.0640047
-0.904785
0.895618
0.0557166
-0.0467928
-0.733268
0.724344
0.0392025
-0.0314049
-0.596908
0.58911
0.0249378
-0.0182395
-0.4876
0.480901
0.0129777
-0.00808973
-0.399286
0.394398
0.00450354
-0.0015417
-0.327482
0.32452
-0.000370635
0.00178986
-0.266234
0.264815
-0.00212103
-0.112288
0.114409
-0.221996
0.21825
0.00374546
-0.000101217
-0.00412768
-0.47831
0.482539
0.00976396
-0.015939
-0.559549
0.565724
0.023327
-0.0302436
-0.652672
0.659588
0.038286
-0.0458135
-0.758241
0.765768
0.0541651
-0.0617561
-0.87691
0.884501
0.0700139
-0.0769729
-1.00891
1.01586
0.0842305
-0.0895929
-1.15418
1.15954
0.0944173
-0.0972423
-1.31151
1.31433
0.0981465
-0.0962867
-1.48026
1.4784
0.0921761
-0.0860121
-1.3942
1.38804
0.0791528
-0.0708747
-1.10638
1.0981
0.0632172
-0.0550179
-0.88651
0.87831
0.0475523
-0.0398937
-0.71586
0.708201
0.0330761
-0.0262812
-0.581351
0.574557
0.0205929
-0.01498
-0.474162
0.468549
0.0105424
-0.00629125
-0.387951
0.3837
0.00312743
-0.000800734
-0.318003
0.315677
-0.000950892
0.00204162
-0.258518
0.257427
-0.00200553
-0.109436
0.111442
-0.226527
0.223236
0.0032905
-0.000192091
-0.00357269
-0.489317
0.493082
0.0091333
-0.0146793
-0.572301
0.577847
0.0211863
-0.0277381
-0.666607
0.673159
0.0349501
-0.041986
-0.77313
0.780166
0.0497189
-0.0568141
-0.891981
0.899076
0.0645096
-0.071253
-1.02299
1.02973
0.0780864
-0.0835686
-1.16509
1.17057
0.0883647
-0.091262
-1.31714
1.32004
0.0923489
-0.0907549
-1.47664
1.47505
0.0869771
-0.0810208
-1.38142
1.37546
0.0745486
-0.0668684
-1.0899
1.08222
0.0596704
-0.0518373
-0.869952
0.862119
0.0449104
-0.0376816
-0.700409
0.69318
0.0314515
-0.0251124
-0.567708
0.561368
0.0198687
-0.0146743
-0.462514
0.45732
0.0103735
-0.00633855
-0.378201
0.374166
0.00351476
-0.00104094
-0.310069
0.307595
-0.000774201
0.00168693
-0.251864
0.250951
-0.00185327
-0.106948
0.108801
-0.230841
0.227876
0.0029652
0.000138405
-0.00411793
-0.499258
0.503237
0.00905706
-0.0144071
-0.58354
0.58889
0.0209274
-0.0270231
-0.679437
0.685533
0.0338576
-0.0405463
-0.786945
0.793634
0.0480239
-0.0549449
-0.906167
0.913088
0.0626262
-0.0692067
-1.03652
1.0431
0.0760803
-0.0816822
-1.1761
1.18171
0.0866494
-0.0897803
-1.32299
1.32612
0.0911736
-0.090227
-1.47355
1.4726
0.0867115
-0.081146
-1.36914
1.36357
0.0748521
-0.0673213
-1.07428
1.06675
0.0604293
-0.0526007
-0.854054
0.846226
0.0457255
-0.0386814
-0.68574
0.678696
0.0325625
-0.0263274
-0.554941
0.548705
0.0211116
-0.0157945
-0.451673
0.446356
0.0116798
-0.00763237
-0.369073
0.365025
0.00445137
-0.00183124
-0.302431
0.299811
1.02886e-06
0.00125339
-0.245762
0.244508
-0.00157189
-0.104548
0.10612
-0.234954
0.232577
0.00237663
0.000956542
-0.00486352
-0.508763
0.51267
0.00997237
-0.0149609
-0.594595
0.599584
0.02136
-0.0273311
-0.691697
0.697668
0.0343084
-0.0407353
-0.800414
0.806841
0.0480595
-0.0548844
-0.920309
0.927134
0.0627718
-0.0694472
-1.05004
1.05672
0.0764056
-0.0823683
-1.18746
1.19342
0.0880763
-0.091621
-1.32956
1.33311
0.0936276
-0.093059
-1.47145
1.47088
0.0901563
-0.0845876
-1.35772
1.35215
0.0784958
-0.071062
-1.05883
1.0514
0.0639641
-0.0561613
-0.838133
0.83033
0.0490965
-0.0417044
-0.671129
0.663736
0.0356038
-0.0291041
-0.542102
0.535602
0.0236122
-0.0182349
-0.440663
0.435286
0.0137854
-0.00935467
-0.360077
0.355646
0.00600577
-0.00307006
-0.295002
0.292066
0.000994112
0.000613957
-0.239673
0.238064
-0.00131076
-0.102091
0.103402
-0.239224
0.237289
0.00193526
0.00178707
-0.00561889
-0.517914
0.521745
0.0109204
-0.0160216
-0.605364
0.610465
0.0223087
-0.0281751
-0.703777
0.709643
0.0348994
-0.0415622
-0.813624
0.820287
0.0489535
-0.0563128
-0.934103
0.941462
0.0640275
-0.0710191
-1.06381
1.0708
0.0786671
-0.0849663
-1.19961
1.20591
0.0908911
-0.0954185
-1.33687
1.3414
0.0982117
-0.0983564
-1.47049
1.47064
0.0958419
-0.0907572
-1.34658
1.34149
0.0846931
-0.0770803
-1.04331
1.03569
0.0697687
-0.0615901
-0.821969
0.81379
0.054185
-0.0465134
-0.655942
0.64827
0.0397665
-0.0329259
-0.528628
0.521787
0.0271759
-0.0212818
-0.429365
0.423471
0.0164075
-0.0118154
-0.35045
0.345858
0.00806271
-0.00461423
-0.28717
0.283722
0.00211141
-0.000109287
-0.233351
0.231349
-0.00101434
-0.0996717
0.100686
-0.243795
0.242133
0.00166197
0.00280359
-0.00679535
-0.526988
0.530979
0.0119972
-0.0172019
-0.616114
0.621319
0.0233572
-0.0293842
-0.715924
0.721951
0.0362774
-0.0428788
-0.827104
0.833705
0.0507691
-0.0577845
-0.948611
0.955627
0.0659333
-0.073229
-1.07827
1.08556
0.08134
-0.0883991
-1.21254
1.2196
0.0952753
-0.100274
-1.34605
1.35105
0.104115
-0.10519
-1.47089
1.47197
0.103559
-0.098746
-1.33611
1.3313
0.0927831
-0.0849465
-1.0277
1.01986
0.0772948
-0.0685436
-0.804862
0.79611
0.0606929
-0.0522974
-0.639863
0.631468
0.0450203
-0.0375514
-0.514346
0.506877
0.0311948
-0.0249579
-0.417052
0.410815
0.0195842
-0.0144658
-0.340163
0.335044
0.0101829
-0.00628606
-0.278679
0.274783
0.00339698
-0.000790872
-0.22644
0.223834
-0.000624032
-0.0970809
0.0977049
-0.248233
0.24701
0.00122329
0.00360696
-0.00797803
-0.536208
0.540579
0.013004
-0.0183055
-0.626532
0.631834
0.024315
-0.0304252
-0.728104
0.734214
0.0374129
-0.0444213
-0.840517
0.847525
0.0520671
-0.0595638
-0.963129
0.970625
0.0681049
-0.0756403
-1.09357
1.10111
0.0843834
-0.0919806
-1.22685
1.23445
0.0996616
-0.105887
-1.35681
1.36303
0.111011
-0.11308
-1.47336
1.47543
0.112203
-0.108158
-1.32649
1.32245
0.102462
-0.0943872
-1.01139
1.00332
0.0862297
-0.0769813
-0.786612
0.777364
0.0681388
-0.0591147
-0.62224
0.613216
0.0511251
-0.0428509
-0.498873
0.490598
0.0359742
-0.0289893
-0.403659
0.396674
0.0231362
-0.01729
-0.329083
0.323236
0.0126103
-0.0081429
-0.269444
0.264976
0.00460882
-0.00148315
-0.218913
0.215787
-0.000330647
-0.0941971
0.0945278
-0.252916
0.251959
0.000957445
0.00426628
-0.00842419
-0.545492
0.54965
0.0140043
-0.0190518
-0.637322
0.642369
0.0253035
-0.0314408
-0.740221
0.746358
0.0384987
-0.0453485
-0.854503
0.861353
0.0533797
-0.0608661
-0.978405
0.985891
0.0697243
-0.0780556
-1.10939
1.11772
0.0869755
-0.09545
-1.24245
1.25092
0.104246
-0.111363
-1.3696
1.37672
0.117851
-0.121589
-1.47805
1.48179
0.121855
-0.11885
-1.31828
1.31527
0.11326
-0.105136
-0.994741
0.986616
0.0965819
-0.0864533
-0.76701
0.756881
0.076897
-0.0667971
-0.602997
0.592897
0.057923
-0.0486816
-0.481564
0.472322
0.0409487
-0.0332573
-0.388919
0.381228
0.0266599
-0.0202227
-0.316701
0.310263
0.0149545
-0.00988225
-0.259211
0.254139
0.00590612
-0.00226699
-0.210668
0.207029
4.02182e-05
-0.091252
0.0912118
-0.257705
0.256962
0.000742399
0.00502259
-0.00922107
-0.554733
0.558932
0.0145324
-0.0197782
-0.64785
0.653096
0.0260133
-0.0320989
-0.752393
0.758478
0.0393757
-0.046231
-0.868435
0.87529
0.0543269
-0.0621501
-0.994076
1.0019
0.0711796
-0.0798147
-1.1262
1.13484
0.0893984
-0.0984163
-1.25971
1.26873
0.10812
-0.116796
-1.38459
1.39327
0.124823
-0.129983
-1.48599
1.49115
0.131996
-0.130016
-1.31226
1.31028