/*--------------------------------*- C++ -*----------------------------------*\
| =========                 |                                                 |
| \\      /  F ield         | OpenFOAM: The Open Source CFD Toolbox           |
|  \\    /   O peration     | Version:  4.0                                   |
|   \\  /    A nd           | Web:      www.OpenFOAM.org                      |
|    \\/     M anipulation  |                                                 |
\*---------------------------------------------------------------------------*/
FoamFile
{
    version     2.0;
    format      ascii;
    class       volVectorField;
    location    "1";
    object      U;
}
// * * * * * * * * * * * * * * * * * * * * * * * * * * * * * * * * * * * * * //

dimensions      [0 1 -1 0 0 0 0];

internalField   nonuniform List<vector> 
8800
(
(0.958079 -0.0734299 0)
(0.987675 -0.047835 0)
(0.978185 -0.0304583 0)
(0.973069 -0.0198109 0)
(0.9705 -0.0132567 0)
(0.969165 -0.0089984 0)
(0.968431 -0.00603968 0)
(0.96801 -0.00381667 0)
(0.967767 -0.00197665 0)
(0.967648 -0.000257103 0)
(0.967674 0.00143211 0)
(0.967845 0.00314501 0)
(0.968156 0.00509294 0)
(0.968706 0.00758795 0)
(0.969685 0.0110629 0)
(0.971516 0.0162665 0)
(0.975129 0.024555 0)
(0.982269 0.0381985 0)
(0.990102 0.0607801 0)
(0.749435 0.0420981 0)
(0.586829 -0.00819726 0)
(1.05584 -0.0194648 0)
(1.05579 -0.0213125 0)
(1.04578 -0.0209253 0)
(1.03797 -0.0188262 0)
(1.03264 -0.0156056 0)
(1.02915 -0.0120325 0)
(1.02709 -0.0085122 0)
(1.02594 -0.00517693 0)
(1.02534 -0.0019415 0)
(1.02522 0.0013701 0)
(1.02552 0.00460841 0)
(1.02629 0.0077511 0)
(1.02782 0.0110439 0)
(1.03049 0.0144948 0)
(1.03486 0.0178241 0)
(1.04144 0.0204367 0)
(1.05039 0.0215891 0)
(1.06025 0.0209205 0)
(0.978767 0.0189869 0)
(0.524905 0.000543464 0)
(1.02149 -0.00505094 0)
(1.01919 -0.00812698 0)
(1.01536 -0.00985624 0)
(1.01109 -0.0102167 0)
(1.00741 -0.00950137 0)
(1.00442 -0.00785138 0)
(1.00221 -0.00563148 0)
(1.00072 -0.003097 0)
(1.00022 -9.48555e-05 0)
(1.00032 0.00291173 0)
(1.00128 0.00565963 0)
(1.00292 0.0078852 0)
(1.00546 0.00966208 0)
(1.00879 0.010732 0)
(1.01267 0.0107812 0)
(1.01669 0.00951579 0)
(1.02017 0.00702895 0)
(1.01192 0.0029751 0)
(0.524537 -0.000507428 0)
(0.527068 -0.000111161 0)
(1.01951 -0.00183707 0)
(1.01939 -0.00342022 0)
(1.01804 -0.00481351 0)
(1.01604 -0.00574699 0)
(1.01387 -0.00588171 0)
(1.0117 -0.00527439 0)
(1.00978 -0.00396866 0)
(1.00832 -0.00203932 0)
(1.0077 0.000208239 0)
(1.00775 0.00252834 0)
(1.00882 0.00440999 0)
(1.01008 0.00589577 0)
(1.01209 0.00660696 0)
(1.01425 0.00658983 0)
(1.01626 0.0058437 0)
(1.01786 0.00454615 0)
(1.01897 0.00296205 0)
(1.00898 0.0013319 0)
(0.526394 0.000139551 0)
(0.524778 -7.89416e-05 0)
(1.01545 -0.00102164 0)
(1.0159 -0.0017077 0)
(1.0153 -0.00237621 0)
(1.01436 -0.00291609 0)
(1.01315 -0.00315115 0)
(1.01175 -0.00296513 0)
(1.01035 -0.00226173 0)
(1.00918 -0.00103486 0)
(1.00853 0.000548247 0)
(1.00852 0.00215142 0)
(1.00924 0.00333217 0)
(1.0102 0.00400537 0)
(1.01146 0.0041894 0)
(1.01268 0.00388697 0)
(1.01369 0.003244 0)
(1.01442 0.00241748 0)
(1.01483 0.00154188 0)
(1.00457 0.00070245 0)
(0.523829 7.86657e-05 0)
(0.523774 -3.46147e-05 0)
(1.01402 -0.000464528 0)
(1.01465 -0.000796928 0)
(1.01433 -0.00113526 0)
(1.01381 -0.001419 0)
(1.01309 -0.00156287 0)
(1.01219 -0.00146721 0)
(1.0112 -0.00104154 0)
(1.01027 -0.000244698 0)
(1.00962 0.000851969 0)
(1.00949 0.0019295 0)
(1.00989 0.00263839 0)
(1.01053 0.00291969 0)
(1.01125 0.00285054 0)
(1.01191 0.00250692 0)
(1.01242 0.00200466 0)
(1.01277 0.00144801 0)
(1.01293 0.000902458 0)
(1.00258 0.000413642 0)
(0.522691 4.93912e-05 0)
(0.523331 -1.30373e-05 0)
(1.01332 -0.000174329 0)
(1.01404 -0.000309612 0)
(1.01385 -0.000440163 0)
(1.01354 -0.000540304 0)
(1.01308 -0.000562621 0)
(1.01247 -0.000446733 0)
(1.01174 -0.000126817 0)
(1.01098 0.00043367 0)
(1.01035 0.00118834 0)
(1.01009 0.00188253 0)
(1.01021 0.00226411 0)
(1.01052 0.00231919 0)
(1.01089 0.00213757 0)
(1.01122 0.00180478 0)
(1.01147 0.0014045 0)
(1.01163 0.000993225 0)
(1.01169 0.000615036 0)
(1.00131 0.000278331 0)
(0.521937 3.36886e-05 0)
(0.523209 -4.47286e-07 0)
(1.01312 -9.91336e-06 0)
(1.01387 -1.22884e-05 0)
(1.01374 -3.96108e-06 0)
(1.01353 3.33811e-05 0)
(1.01321 0.000123285 0)
(1.01275 0.000301593 0)
(1.01216 0.000603809 0)
(1.0115 0.00104511 0)
(1.01085 0.00158077 0)
(1.01043 0.00200629 0)
(1.01031 0.00216456 0)
(1.01037 0.00206782 0)
(1.01049 0.00181689 0)
(1.01061 0.00148519 0)
(1.01071 0.00112927 0)
(1.01077 0.000792725 0)
(1.01077 0.000484836 0)
(1.00038 0.000222962 0)
(0.521387 2.6765e-05 0)
(0.523279 8.99189e-06 0)
(1.01325 0.000109832 0)
(1.01401 0.000200494 0)
(1.01391 0.000316452 0)
(1.01374 0.000463863 0)
(1.01347 0.000658453 0)
(1.01308 0.000915212 0)
(1.01256 0.00124751 0)
(1.0119 0.00164725 0)
(1.01118 0.00205482 0)
(1.01059 0.00229576 0)
(1.01026 0.00227737 0)
(1.0101 0.0020733 0)
(1.01004 0.00175981 0)
(1.01002 0.00140558 0)
(1.01002 0.00105584 0)
(1.01002 0.000732499 0)
(1.00998 0.000448152 0)
(0.999584 0.000203857 0)
(0.520918 2.48854e-05 0)
(0.523507 1.65476e-05 0)
(1.01363 0.000210274 0)
(1.0144 0.000384062 0)
(1.01431 0.000592736 0)
(1.01415 0.000842738 0)
(1.01389 0.00114032 0)
(1.01351 0.00149011 0)
(1.01297 0.00188575 0)
(1.01226 0.00229731 0)
(1.01141 0.00264209 0)
(1.01062 0.00275753 0)
(1.01007 0.00260934 0)
(1.00972 0.00229243 0)
(1.00951 0.0019002 0)
(1.00938 0.0014941 0)
(1.00931 0.00111055 0)
(1.00927 0.000765944 0)
(1.00921 0.000468932 0)
(0.998801 0.000213286 0)
(0.52046 2.63007e-05 0)
(0.523873 2.48337e-05 0)
(1.01425 0.000309834 0)
(1.01502 0.000565995 0)
(1.01492 0.000868577 0)
(1.01475 0.00122517 0)
(1.01447 0.00163674 0)
(1.01405 0.00209793 0)
(1.01345 0.00258771 0)
(1.01262 0.00305204 0)
(1.01158 0.00338034 0)
(1.01055 0.003404 0)
(1.00977 0.00313374 0)
(1.00923 0.00270186 0)
(1.00888 0.00221063 0)
(1.00866 0.00172338 0)
(1.00852 0.00127393 0)
(1.00844 0.00087645 0)
(1.00836 0.00053459 0)
(0.997946 0.000243027 0)
(0.519962 2.94069e-05 0)
(0.524389 3.31584e-05 0)
(1.01512 0.00042128 0)
(1.01588 0.000768027 0)
(1.01577 0.00117854 0)
(1.01557 0.00165567 0)
(1.01525 0.00220004 0)
(1.01475 0.00279812 0)
(1.01403 0.00341364 0)
(1.01302 0.00396793 0)
(1.01172 0.00431586 0)
(1.01039 0.00426789 0)
(1.00934 0.00387257 0)
(1.0086 0.00330323 0)
(1.0081 0.00268262 0)
(1.00778 0.00208157 0)
(1.00758 0.00153402 0)
(1.00746 0.00105467 0)
(1.00736 0.000642529 0)
(0.996939 0.000292999 0)
(0.519375 3.55458e-05 0)
(0.525077 4.41367e-05 0)
(1.01629 0.00055355 0)
(1.01703 0.00100999 0)
(1.0169 0.00154669 0)
(1.01665 0.00217121 0)
(1.01626 0.0028785 0)
(1.01565 0.00364839 0)
(1.01475 0.00442724 0)
(1.01349 0.00510969 0)
(1.01185 0.00550659 0)
(1.01013 0.00539363 0)
(1.00877 0.00485674 0)
(1.00779 0.00412053 0)
(1.00713 0.00333408 0)
(1.0067 0.00258046 0)
(1.00643 0.00189865 0)
(1.00626 0.00130344 0)
(1.00614 0.000793383 0)
(0.99571 0.000361285 0)
(0.518661 4.40634e-05 0)
(0.525975 5.70004e-05 0)
(1.0178 0.000718245 0)
(1.01853 0.00130899 0)
(1.01836 0.00200569 0)
(1.01805 0.00281186 0)
(1.01756 0.0037232 0)
(1.01679 0.00470888 0)
(1.01566 0.00569854 0)
(1.01407 0.00655146 0)
(1.01198 0.00702482 0)
(1.00978 0.0068441 0)
(1.00802 0.00613634 0)
(1.00676 0.00519019 0)
(1.0059 0.00419108 0)
(1.00533 0.00323938 0)
(1.00498 0.00238202 0)
(1.00477 0.0016339 0)
(1.00462 0.000994919 0)
(0.994181 0.000451978 0)
(0.517772 5.48485e-05 0)
(0.527138 7.38687e-05 0)
(1.01976 0.000926589 0)
(1.02047 0.00168885 0)
(1.02025 0.00258452 0)
(1.01986 0.00362251 0)
(1.01922 0.00479201 0)
(1.01824 0.00605391 0)
(1.0168 0.00731271 0)
(1.01478 0.00838513 0)
(1.01211 0.00896168 0)
(1.00931 0.00870169 0)
(1.00705 0.00778134 0)
(1.00544 0.00656873 0)
(1.00433 0.00529677 0)
(1.00361 0.0040902 0)
(1.00316 0.00300664 0)
(1.00289 0.00206238 0)
(1.0027 0.0012568 0)
(0.992248 0.00057176 0)
(0.516652 6.92772e-05 0)
(0.528639 9.546e-05 0)
(1.02229 0.00119335 0)
(1.02296 0.00217385 0)
(1.02267 0.0033267 0)
(1.02217 0.00465964 0)
(1.02136 0.00615993 0)
(1.0201 0.00777279 0)
(1.01826 0.00937415 0)
(1.01567 0.0107266 0)
(1.01226 0.0114334 0)
(1.00869 0.0110723 0)
(1.00581 0.00988072 0)
(1.00375 0.00832919 0)
(1.00235 0.00671065 0)
(1.00142 0.00517971 0)
(1.00085 0.00380457 0)
(1.0005 0.00260905 0)
(1.00028 0.00158813 0)
(0.989813 0.000722536 0)
(0.515241 8.68255e-05 0)
(0.530576 0.000123227 0)
(1.02554 0.00153729 0)
(1.02616 0.00280015 0)
(1.02579 0.0042838 0)
(1.02515 0.00599691 0)
(1.02409 0.00792037 0)
(1.02247 0.009982 0)
(1.0201 0.0120184 0)
(1.01678 0.0137225 0)
(1.01243 0.0145874 0)
(1.00787 0.0140906 0)
(1.00422 0.0125512 0)
(1.00161 0.0105676 0)
(0.999825 0.0085065 0)
(0.998656 0.00656175 0)
(0.997922 0.00481841 0)
(0.997487 0.00330444 0)
(0.997207 0.0020105 0)
(0.986726 0.000914657 0)
(0.513452 0.000110714 0)
(0.533082 0.000159884 0)
(1.02972 0.0019861 0)
(1.03029 0.00361464 0)
(1.02981 0.00552559 0)
(1.02897 0.00772981 0)
(1.0276 0.0101991 0)
(1.0255 0.0128352 0)
(1.02243 0.0154217 0)
(1.01816 0.0175615 0)
(1.0126 0.0186105 0)
(1.00681 0.0179258 0)
(1.00218 0.0159351 0)
(0.998874 0.0134001 0)
(0.99662 0.0107791 0)
(0.995143 0.00831054 0)
(0.994217 0.00610163 0)
(0.993667 0.00418244 0)
(0.993327 0.00254596 0)
(0.982824 0.00115737 0)
(0.511192 0.000140496 0)
(0.536331 0.000208465 0)
(1.03513 0.00257349 0)
(1.03563 0.00468131 0)
(1.03499 0.00715153 0)
(1.03388 0.0099942 0)
(1.03209 0.013167 0)
(1.02936 0.016536 0)
(1.02537 0.0198144 0)
(1.01987 0.0224867 0)
(1.01276 0.0237377 0)
(1.00541 0.022788 0)
(0.999559 0.0202138 0)
(0.99539 0.0169755 0)
(0.992548 0.0136448 0)
(0.990688 0.0105166 0)
(0.989521 0.00771896 0)
(0.988828 0.00528917 0)
(0.988409 0.00321879 0)
(0.977881 0.00146243 0)
(0.508334 0.000176674 0)
(0.540573 0.00027343 0)
(1.04216 0.00335359 0)
(1.04254 0.00609262 0)
(1.04169 0.00929763 0)
(1.04022 0.0129749 0)
(1.03786 0.0170605 0)
(1.03426 0.0213652 0)
(1.02907 0.0255049 0)
(1.02197 0.0288124 0)
(1.01288 0.0302643 0)
(1.00356 0.0289355 0)
(0.9962 0.0256045 0)
(0.990961 0.0214771 0)
(0.987391 0.017252 0)
(0.985052 0.0132913 0)
(0.983584 0.00975357 0)
(0.982714 0.0066847 0)
(0.982198 0.00406665 0)
(0.971638 0.0018474 0)
(0.504727 0.000222414 0)
(0.546149 0.00036312 0)
(1.05132 0.0044033 0)
(1.05155 0.00798914 0)
(1.0504 0.0121725 0)
(1.04842 0.0169504 0)
(1.04526 0.0222191 0)
(1.04049 0.0277112 0)
(1.03367 0.0329056 0)
(1.02448 0.0369414 0)
(1.01288 0.0385531 0)
(1.00114 0.03668 0)
(0.991904 0.0323717 0)
(0.985344 0.0271226 0)
(0.980869 0.0217806 0)
(0.977933 0.0167819 0)
(0.976087 0.0123156 0)
(0.97499 0.00843978 0)
(0.97435 0.00513457 0)
(0.963748 0.00233237 0)
(0.500175 0.000280882 0)
(0.553573 0.000489415 0)
(1.0634 0.00585202 0)
(1.06339 0.0105908 0)
(1.0618 0.016096 0)
(1.05907 0.0223384 0)
(1.05475 0.0291481 0)
(1.04834 0.0361281 0)
(1.03934 0.0425736 0)
(1.02742 0.0473886 0)
(1.01266 0.0490424 0)
(0.99793 0.0463831 0)
(0.986424 0.0408249 0)
(0.978248 0.0341837 0)
(0.972649 0.0274603 0)
(0.968956 0.0211708 0)
(0.966624 0.0155481 0)
(0.965235 0.0106609 0)
(0.964433 0.00648733 0)
(0.953781 0.00294588 0)
(0.494431 0.000355016 0)
(0.563642 0.000676714 0)
(1.07952 0.00791993 0)
(1.07913 0.014277 0)
(1.07683 0.0216073 0)
(1.07295 0.0298232 0)
(1.06692 0.0386232 0)
(1.05815 0.0474206 0)
(1.04616 0.0552632 0)
(1.0307 0.0607926 0)
(1.01202 0.0622386 0)
(0.993697 0.0584545 0)
(0.979478 0.0513197 0)
(0.969345 0.042984 0)
(0.962349 0.0345864 0)
(0.957688 0.0267175 0)
(0.954715 0.0196539 0)
(0.952929 0.0134917 0)
(0.951904 0.00821734 0)
(0.941174 0.00373397 0)
(0.487167 0.000449976 0)
(0.577721 0.000979103 0)
(1.10147 0.0110643 0)
(1.1004 0.0197872 0)
(1.09687 0.0297094 0)
(1.09107 0.0405921 0)
(1.08234 0.0519035 0)
(1.07013 0.0627693 0)
(1.05405 0.0719663 0)
(1.03407 0.0779177 0)
(1.01064 0.0786929 0)
(0.988122 0.0733163 0)
(0.970752 0.0642371 0)
(0.958292 0.0539097 0)
(0.949557 0.0435541 0)
(0.943615 0.0338055 0)
(0.939739 0.0249785 0)
(0.937363 0.0172085 0)
(0.935996 0.0105069 0)
(0.925138 0.00478438 0)
(0.477906 0.000579054 0)
(0.598491 0.00155557 0)
(1.13226 0.0165549 0)
(1.12973 0.0289101 0)
(1.12375 0.042535 0)
(1.11445 0.0568722 0)
(1.10133 0.0710314 0)
(1.08406 0.0838489 0)
(1.06251 0.0939219 0)
(1.03693 0.0995969 0)
(1.00798 0.0989414 0)
(0.980768 0.0913585 0)
(0.959886 0.0799519 0)
(0.944755 0.0673959 0)
(0.933893 0.0548984 0)
(0.926231 0.0430585 0)
(0.921 0.0321773 0)
(0.917631 0.0224137 0)
(0.915628 0.0138297 0)
(0.904494 0.00637315 0)
(0.465858 0.000782401 0)
(0.631505 0.00326729 0)
(1.17734 0.0292727 0)
(1.17066 0.046818 0)
(1.15903 0.0648843 0)
(1.14316 0.0826885 0)
(1.12304 0.0990659 0)
(1.09867 0.112765 0)
(1.07021 0.122452 0)
(1.03811 0.126597 0)
(1.00313 0.123408 0)
(0.970973 0.112861 0)
(0.946434 0.0987534 0)
(0.928441 0.0838617 0)
(0.915137 0.0692686 0)
(0.905279 0.0554605 0)
(0.898041 0.0426174 0)
(0.89289 0.030852 0)
(0.889439 0.0201064 0)
(0.877433 0.0102182 0)
(0.450201 0.0012835 0)
(0.681263 0.0199773 1.54669e-19)
(1.24199 0.0639264 1.37978e-19)
(1.22344 0.0838014 -4.71748e-20)
(1.20069 0.103751 0)
(1.17467 0.122527 -1.06302e-33)
(1.14523 0.138742 1.51713e-20)
(1.11229 0.151277 -2.51012e-20)
(1.07598 0.158953 0)
(1.03667 0.160322 4.68074e-34)
(0.995111 0.153691 -2.65072e-20)
(0.957651 0.139675 0)
(0.929141 0.122745 -2.93995e-20)
(0.90789 0.105707 -8.53137e-20)
(0.891608 0.0894566 -3.98675e-20)
(0.878845 0.074484 -1.17553e-20)
(0.868613 0.0609147 -6.93389e-21)
(0.860256 0.0492548 0)
(0.853265 0.0393713 4.85164e-21)
(0.838447 0.0311441 5.74439e-21)
(0.428795 0.0126125 1.03621e-19)
(0.715454 0.0611218 1.39024e-19)
(1.29826 0.127641 5.53959e-22)
(1.26969 0.142822 1.3813e-20)
(1.23752 0.159768 0)
(1.20268 0.17583 -5.76182e-20)
(1.16488 0.189556 -6.28142e-20)
(1.12392 0.199667 -2.62336e-20)
(1.07982 0.204809 -8.62687e-20)
(1.03287 0.203354 0)
(0.983757 0.193547 1.12739e-19)
(0.939499 0.176486 1.0788e-19)
(0.905523 0.157299 3.11006e-20)
(0.879797 0.138865 1.09644e-19)
(0.859604 0.122057 1.50812e-19)
(0.84319 0.107187 0)
(0.829424 0.0946319 2.09523e-19)
(0.817565 0.0844653 3.0105e-19)
(0.807109 0.0770468 3.34987e-19)
(0.791032 0.0717416 -3.82975e-19)
(0.405286 0.0356224 -6.66843e-21)
(0.729191 0.104436 0)
(1.33401 0.204574 3.19807e-20)
(1.30157 0.214259 0)
(1.26421 0.225938 -9.34819e-20)
(1.22341 0.237326 0)
(1.17921 0.247044 -1.30429e-19)
(1.13161 0.253523 5.50123e-20)
(1.0807 0.255194 -1.79982e-19)
(1.02688 0.250222 -1.26383e-21)
(0.970861 0.236708 5.91703e-20)
(0.920605 0.216329 2.31329e-19)
(0.88214 0.194861 1.17504e-22)
(0.853115 0.175207 -7.82817e-20)
(0.830474 0.158024 -1.38185e-19)
(0.812324 0.143457 1.62748e-19)
(0.797462 0.131558 -2.87031e-19)
(0.785042 0.122271 -3.7774e-20)
(0.774479 0.115574 0)
(0.758647 0.110506 1.31714e-21)
(0.390407 0.0560765 0)
(0.739529 0.146504 5.55997e-19)
(1.35642 0.280799 -2.60073e-19)
(1.32183 0.286974 -1.67024e-19)
(1.28142 0.294756 4.85094e-20)
(1.23671 0.302217 -7.89539e-20)
(1.18781 0.307961 2.76236e-19)
(1.13484 0.310635 1.16079e-19)
(1.07807 0.308507 0)
(1.01806 0.299652 -3.12697e-19)
(0.955755 0.282013 0)
(0.900181 0.25787 -1.2187e-19)
(0.858073 0.233676 -1.42834e-19)
(0.826737 0.212293 -8.34341e-20)
(0.802724 0.194157 -9.84647e-20)
(0.783871 0.179141 0)
(0.768758 0.167012 0)
(0.756414 0.157622 -2.42095e-19)
(0.746091 0.150738 4.75945e-20)
(0.730638 0.1452 -2.81854e-20)
(0.376926 0.0741153 -3.24244e-20)
(0.747077 0.186997 -3.38492e-19)
(1.37089 0.355559 0)
(1.33468 0.359109 4.04052e-19)
(1.29194 0.36394 1.50925e-19)
(1.24421 0.368026 1.71476e-19)
(1.19155 0.370276 0)
(1.13409 0.369358 1.20287e-19)
(1.07221 0.363486 2.01871e-19)
(1.00662 0.35062 1.6404e-19)
(0.938558 0.328577 2.6952e-19)
(0.878184 0.300182 0)
(0.833006 0.272656 -3.03108e-19)
(0.799979 0.248875 -1.76592e-19)
(0.775169 0.229083 -1.02605e-19)
(0.7561 0.212913 6.11034e-19)
(0.741123 0.199967 7.19794e-20)
(0.729106 0.189843 3.41117e-19)
(0.719189 0.182402 -1.6186e-18)
(0.704248 0.175961 9.57092e-19)
(0.364157 0.0900269 -1.15361e-18)
(0.752921 0.226013 -3.03834e-19)
(1.37993 0.427935 6.94448e-20)
(1.34233 0.429661 -5.89947e-20)
(1.29766 0.432103 -2.02439e-19)
(1.2474 0.433469 -1.73758e-19)
(1.19153 0.432736 1.42608e-21)
(1.13015 0.428602 -1.28776e-19)
(1.06367 0.419204 2.12353e-19)
(0.99291 0.402396 -3.49784e-19)
(0.91938 0.375779 0)
(0.854476 0.342671 -1.40533e-19)
(0.806539 0.311155 -4.01067e-22)
(0.772168 0.284311 -1.88425e-19)
(0.746901 0.262188 0)
(0.727911 0.244292 -1.29774e-19)
(0.71332 0.229973 -3.04923e-19)
(0.701796 0.218867 8.13291e-19)
(0.692446 0.210473 -8.03384e-19)
(0.678164 0.20291 1.138e-18)
(0.351347 0.103925 -1.18254e-18)
(0.75733 0.263745 -3.17976e-21)
(1.38544 0.497812 -6.97252e-20)
(1.34639 0.498223 -2.41654e-19)
(1.29996 0.498747 1.03894e-19)
(1.24744 0.497885 -9.13848e-20)
(1.18867 0.494645 0)
(1.12374 0.487645 -1.31982e-19)
(1.05299 0.47504 -2.24839e-19)
(0.97731 0.454454 -1.84739e-19)
(0.898415 0.423217 0)
(0.828983 0.384989 -1.4688e-19)
(0.778353 0.348895 -1.70703e-19)
(0.742783 0.318313 1.99756e-19)
(0.717295 0.293204 -1.17927e-19)
(0.698592 0.273062 -5.46776e-19)
(0.684553 0.257022 3.2257e-19)
(0.673746 0.244404 9.56247e-20)
(0.665049 0.234966 0)
(0.65155 0.226231 -1.06622e-18)
(0.338275 0.115825 -3.86573e-20)
(0.761027 0.300397 -3.99731e-20)
(1.38836 0.565259 7.15336e-20)
(1.34794 0.564617 1.27735e-19)
(1.29984 0.563554 3.36063e-19)
(1.24519 0.560881 -3.79189e-19)
(1.18377 0.555502 3.28719e-19)
(1.11552 0.546031 2.8167e-19)
(1.04075 0.530577 -3.59212e-19)
(0.960212 0.506527 1.03022e-19)
(0.875891 0.470728 -6.51132e-19)
(0.801699 0.427097 -1.58769e-19)
(0.748201 0.385795 0)
(0.711451 0.35074 2.11458e-19)
(0.685845 0.322072 2.45492e-19)
(0.667617 0.299126 2.88896e-19)
(0.654337 0.280906 -3.39073e-19)
(0.644353 0.266638 -9.94263e-20)
(0.636517 0.255757 1.18795e-19)
(0.623911 0.245664 0)
(0.325049 0.125873 -8.20613e-20)
(0.764173 0.335908 3.99301e-19)
(1.38954 0.630226 -2.9109e-19)
(1.34772 0.628744 -1.34062e-19)
(1.29798 0.62643 2.33408e-19)
(1.24133 0.6222 -1.96417e-19)
(1.17743 0.614953 -3.80393e-21)
(1.10608 0.603423 -3.02114e-19)
(1.0274 0.585489 -1.28344e-19)
(0.942126 0.558352 -3.16666e-19)
(0.852125 0.518265 2.15029e-22)
(0.772699 0.469048 -5.01748e-19)
(0.715925 0.421961 3.87585e-19)
(0.677827 0.381731 -2.23068e-19)
(0.652165 0.348773 2.589e-19)
(0.634597 0.322469 0)
(0.622294 0.301632 -1.76343e-19)
(0.613356 0.285447 -1.80456e-21)
(0.606547 0.272962 -4.92389e-19)
(0.595055 0.261276 -7.35101e-20)
(0.311367 0.134003 0)
(0.766322 0.369935 0)
(1.38939 0.69277 -3.09202e-19)
(1.34621 0.690504 -2.7436e-19)
(1.29494 0.687146 -2.44138e-19)
(1.23639 0.681588 -2.15421e-19)
(1.17015 0.672864 0)
(1.09587 0.659562 -1.54249e-19)
(1.01348 0.639575 -1.22021e-21)
(0.923441 0.609865 6.75661e-19)
(0.827491 0.565896 -9.15034e-20)
(0.74209 0.511107 -3.57854e-19)
(0.681394 0.457577 2.05881e-19)
(0.641626 0.411295 9.23869e-22)
(0.615944 0.373217 2.72347e-19)
(0.599248 0.34292 1.5853e-19)
(0.588171 0.31914 -3.72604e-19)
(0.580551 0.300598 4.35287e-19)
(0.575003 0.286355 1.27287e-19)
(0.564883 0.272983 5.31505e-19)
(0.297169 0.140203 -1.4125e-18)
(0.768709 0.403492 8.12441e-20)
(1.38821 0.753033 -1.55015e-19)
(1.34377 0.750059 1.32785e-19)
(1.29102 0.745682 2.51394e-19)
(1.23071 0.738999 0)
(1.16229 0.729004 -1.8684e-19)
(1.0853 0.714296 4.99021e-19)
(0.999366 0.692669 2.88425e-19)
(0.904668 0.660861 0)
(0.802391 0.613641 -1.28368e-18)
(0.710169 0.553489 9.54914e-19)
(0.64452 0.493014 0)
(0.602518 0.439659 2.48122e-19)
(0.576746 0.395531 2.35794e-21)
(0.561197 0.360518 -4.92405e-19)
(0.55169 0.333297 1.941e-19)
(0.545775 0.312119 0)
(0.54176 0.295936 6.60812e-19)
(0.533201 0.280956 0)
(0.282913 0.144817 -6.36984e-19)
(0.77074 0.435813 -8.4412e-20)
(1.38632 0.81072 -1.54412e-19)
(1.34061 0.807203 1.43656e-19)
(1.28649 0.801974 0)
(1.22457 0.794259 -2.31606e-19)
(1.15413 0.783213 0)
(1.07466 0.767321 -5.21363e-19)
(0.985472 0.74452 -1.47495e-19)
(0.886149 0.711288 1.25326e-19)
(0.777321 0.661625 -6.34264e-19)
(0.677204 0.596693 1.01566e-19)
(0.605173 0.528971 0)
(0.559974 0.467335 -5.2524e-19)
(0.534007 0.415713 -3.28775e-21)
(0.520086 0.374894 0)
(0.512853 0.343572 -2.37088e-21)
(0.509084 0.319738 5.74692e-19)
(0.507025 0.301474 -5.4028e-19)
(0.500357 0.284897 1.59157e-19)
(0.268865 0.147782 0)
(0.772188 0.46672 0)
(1.38384 0.866188 -1.56687e-19)
(1.33688 0.862046 -1.42102e-19)
(1.28152 0.855962 -2.05227e-21)
(1.21814 0.847318 -1.16679e-19)
(1.14597 0.835293 -4.21025e-19)
(1.06425 0.818527 1.87593e-19)
(0.972074 0.795001 -1.62228e-19)
(0.868358 0.761021 5.43249e-19)
(0.752732 0.7099 -1.01709e-18)
(0.643705 0.641074 -2.07574e-21)
(0.56345 0.56602 -2.48203e-19)
(0.513491 0.494698 8.33425e-19)
(0.486986 0.433623 4.51365e-21)
(0.475371 0.38557 -3.49006e-19)
(0.471479 0.349546 -6.03995e-19)
(0.470938 0.322737 0)
(0.471386 0.302814 0)
(0.466986 0.285032 1.59065e-19)
(0.255829 0.149842 -9.04999e-20)
(0.773764 0.496559 -8.45859e-20)
(1.38075 0.919238 3.25733e-19)
(1.33274 0.914474 1.50733e-19)
(1.2762 0.907578 0)
(1.21152 0.898099 -1.92383e-21)
(1.13787 0.885236 -4.34796e-19)
(1.05417 0.86775 4.86821e-19)
(0.95939 0.843801 6.75291e-19)
(0.851691 0.80969 7.19007e-19)
(0.7293 0.758364 -8.43517e-19)
(0.6103 0.687147 -8.24187e-19)
(0.519479 0.605141 6.66765e-19)
(0.462304 0.522762 0)
(0.434256 0.449359 -1.59868e-19)
(0.426089 0.391409 -3.56914e-19)
(0.42771 0.349474 -4.04669e-19)
(0.432188 0.320133 -4.58652e-19)
(0.436244 0.299353 1.29944e-19)
(0.434595 0.281377 -8.00017e-20)
(0.245185 0.151955 -4.79785e-21)
(0.774674 0.52542 0)
(1.37718 0.969916 0)
(1.3282 0.964427 3.52622e-21)
(1.27064 0.95677 0)
(1.20484 0.946506 3.78942e-19)
(1.12992 0.93285 3.3677e-19)
(1.04467 0.914877 0)
(0.947608 0.890836 8.67607e-20)
(0.836318 0.857212 1.21903e-18)
(0.707454 0.806899 -1.93742e-18)
(0.577746 0.735171 0)
(0.473739 0.647636 -4.33865e-19)
(0.405631 0.552962 4.65849e-21)
(0.373752 0.463123 7.0384e-21)
(0.370254 0.390603 3.73421e-19)
(0.381301 0.340512 -2.48268e-22)
(0.394813 0.30933 -8.94629e-19)
(0.4048 0.290149 2.51036e-19)
(0.406646 0.274751 7.03645e-20)
(0.239562 0.155615 0)
(0.774967 0.552891 2.43527e-19)
(1.37314 1.01821 1.68459e-19)
(1.32333 1.01194 3.10007e-19)
(1.26496 1.00346 -5.76249e-19)
(1.19818 0.992424 6.53266e-19)
(1.12222 0.978088 0)
(1.03572 0.959747 3.20046e-19)
(0.936796 0.935861 -1.87337e-19)
(0.822485 0.903343 3.44562e-21)
(0.687731 0.855263 1.39783e-19)
(0.546954 0.785353 1.08845e-18)
(0.427217 0.694728 -1.55675e-19)
(0.342928 0.587741 -5.16301e-19)
(0.302124 0.476267 -1.76689e-19)
(0.303573 0.38054 1.82294e-19)
(0.331028 0.316521 4.76655e-22)
(0.362535 0.284317 2.01058e-19)
(0.384305 0.272387 -4.6502e-19)
(0.39089 0.266478 4.97957e-19)
(0.245056 0.164995 7.89294e-20)
(0.774476 0.579084 -8.07716e-20)
(1.36869 1.06409 8.62516e-20)
(1.31819 1.05698 7.22494e-21)
(1.2591 1.04768 -2.91388e-19)
(1.19159 1.03595 -1.31627e-19)
(1.11478 1.02097 -6.26578e-19)
(1.0273 1.00229 1.08331e-19)
(0.926999 0.978781 -7.93209e-19)
(0.810321 0.947803 -1.37311e-18)
(0.670441 0.903067 -1.17599e-18)
(0.51902 0.837524 0)
(0.381466 0.747635 -6.77121e-19)
(0.274364 0.630663 7.43681e-19)
(0.215012 0.492609 0)
(0.217357 0.358771 -3.91584e-19)
(0.271864 0.265785 1.76712e-19)
(0.34245 0.230756 -1.83922e-19)
(0.390196 0.239292 -1.7266e-19)
(0.405166 0.259489 -3.00322e-19)
(0.274622 0.187934 -2.23437e-19)
(0.774501 0.60441 8.11596e-20)
(1.36381 1.10757 -9.20332e-20)
(1.31274 1.09949 -2.34498e-19)
(1.25311 1.08934 -3.77377e-19)
(1.1851 1.07691 2.83056e-19)
(1.1077 1.06147 -3.87675e-19)
(1.01948 1.04251 3.49244e-19)
(0.918244 1.01946 -8.34892e-19)
(0.799798 0.990317 -8.19678e-19)
(0.655852 0.949878 1.24939e-18)
(0.494781 0.891163 2.4327e-18)
(0.338626 0.807047 0)
(0.201983 0.686097 0)
(0.10824 0.520526 -2.05508e-19)
(0.0952821 0.326877 0)
(0.187619 0.166195 3.19079e-19)
(0.345918 0.114486 2.72396e-19)
(0.46367 0.174075 0)
(0.491483 0.262494 0)
(0.352448 0.240727 1.01546e-19)
(0.773472 0.627853 -7.71962e-20)
(1.35856 1.14864 -7.70598e-20)
(1.30708 1.1396 -1.63769e-19)
(1.24708 1.12856 3.05315e-19)
(1.17862 1.11541 2.92409e-19)
(1.10084 1.09946 4.67888e-19)
(1.01217 1.08025 -4.90721e-19)
(0.910393 1.05784 1.18499e-21)
(0.790902 1.03078 -4.82894e-21)
(0.643988 0.995186 -4.32092e-21)
(0.475084 0.945495 1.26157e-18)
(0.3013 0.872629 0)
(0.130617 0.758152 7.85589e-19)
(-0.0183607 0.574663 4.76966e-19)
(-0.088521 0.300084 8.77922e-19)
(0.0260768 -0.0187067 1.67127e-19)
(0.386181 -0.164853 3.06967e-20)
(0.721546 0.0342715 -1.11546e-21)
(0.729508 0.321567 0)
(0.498683 0.370306 -8.70509e-20)
(0.773043 0.651042 1.47537e-19)
(1.35317 1.18732 0)
(1.30146 1.17742 -1.61114e-19)
(1.24106 1.16552 2.3631e-19)
(1.17216 1.15162 -2.96648e-19)
(1.09419 1.13504 -6.2068e-19)
(1.00545 1.11536 1.02003e-18)
(0.903523 1.0936 -6.3559e-20)
(0.783442 1.06867 0)
(0.634701 1.03839 -1.40724e-18)
(0.460219 0.999383 -2.78351e-18)
(0.271913 0.942962 1.06385e-19)
(0.0677665 0.848553 1.13076e-18)
(-0.154407 0.674724 0)
(-0.364241 0.330789 6.53975e-19)
(-0.391969 -0.293222 0)
(0.11904 -0.616106 0)
(0.998229 -0.024283 3.79547e-19)
(1.15227 0.52018 0)
(0.842801 0.652863 -4.9803e-20)
(0.771777 0.67202 1.44778e-19)
(1.34741 1.22382 0)
(1.29586 1.21297 -2.42147e-19)
(1.23525 1.20034 0)
(1.16609 1.18554 1.47563e-19)
(1.08796 1.16847 0)
(0.999269 1.14859 6.16542e-20)
(0.897381 1.12725 1.17588e-19)
(0.777202 1.10443 1.03174e-19)
(0.627851 1.07977 -1.5595e-18)
(0.450143 1.05249 8.64988e-20)
(0.251846 1.01656 8.46787e-19)
(0.0212892 0.956211 1.11861e-18)
(-0.273457 0.840243 1.42668e-19)
(-0.70356 0.594994 5.61126e-19)
(-1.24688 0.312514 0)
(-1.10497 0.923254 -1.60351e-18)
(-0.169635 1.80438 1.1229e-18)
(0.139508 1.8697 -7.1657e-19)
(-0.167141 2.28985 2.82472e-19)
(0.770038 0.691823 -1.05172e-19)
(1.34114 1.25858 -2.36265e-19)
(1.28995 1.24675 0)
(1.22956 1.23344 7.17908e-21)
(1.16046 1.21789 -3.74026e-19)
(1.08216 1.2004 1.06142e-18)
(0.993789 1.18115 3.92118e-19)
(0.892101 1.1603 0)
(0.772481 1.13944 7.1934e-19)
(0.62358 1.1206 -8.54478e-20)
(0.445072 1.10662 0)
(0.242276 1.09504 0)
(-0.000493349 1.07964 1.0199e-18)
(-0.325903 1.05662 -4.40179e-19)
(-0.821306 1.05715 -6.32104e-19)
(-1.41895 1.3518 0)
(-1.64023 2.25407 -3.04855e-19)
(-1.07218 2.99615 4.31887e-19)
(-0.654804 3.35289 1.84547e-19)
(-0.430162 3.39498 1.35367e-19)
(0.768186 0.710284 6.24807e-20)
(1.33446 1.2911 2.7316e-19)
(1.2837 1.27853 -1.25777e-19)
(1.22333 1.2647 -1.59747e-19)
(1.15468 1.2489 0)
(1.07666 1.23113 7.22409e-19)
(0.989403 1.2118 5.91759e-19)
(0.888116 1.19204 -6.04725e-20)
(0.769268 1.1736 1.0569e-19)
(0.622021 1.1603 1.50995e-18)
(0.445745 1.15888 1.43735e-18)
(0.245352 1.17175 9.64955e-19)
(0.00766486 1.20157 1.02964e-18)
(-0.295329 1.26742 -1.04478e-18)
(-0.672792 1.42824 -9.51776e-19)
(-1.06706 1.82587 0)
(-1.2289 2.41551 0)
(-0.979588 2.91235 4.82821e-20)
(-0.700007 3.01955 0)
(-0.52683 3.07798 2.09805e-20)
(0.767253 0.73081 0)
(1.32736 1.321 0)
(1.27737 1.30809 0)
(1.21662 1.29365 -3.80881e-20)
(1.14776 1.27761 -3.19691e-19)
(1.07039 1.25999 5.07728e-19)
(0.984567 1.2414 4.00089e-19)
(0.884674 1.22267 -6.07394e-20)
(0.768345 1.20674 9.32027e-19)
(0.624811 1.19944 -1.21322e-20)
(0.4547 1.21003 2.85011e-18)
(0.264866 1.24425 -1.08308e-19)
(0.0469298 1.30951 1.25581e-19)
(-0.211585 1.43056 1.45448e-19)
(-0.474616 1.63687 1.17755e-21)
(-0.676443 1.98224 2.04093e-20)
(-0.737018 2.3712 -7.64661e-19)
(-0.661315 2.66221 -2.12155e-19)
(-0.513747 2.79456 6.86966e-20)
(-0.426032 2.87476 -8.18861e-20)
(0.645726 0.666538 -1.86761e-20)
(1.32097 1.34786 0)
(1.27101 1.33582 2.06793e-19)
(1.21098 1.32147 3.69979e-19)
(1.14181 1.30529 -5.8723e-19)
(1.06445 1.28728 -5.21159e-19)
(0.979945 1.268 -4.37137e-19)
(0.881761 1.25048 7.70899e-19)
(0.768626 1.2378 -7.84536e-19)
(0.631237 1.23666 0)
(0.472923 1.25874 1.40566e-18)
(0.303824 1.31216 -7.76573e-19)
(0.12398 1.40317 0)
(-0.0810481 1.55563 1.42497e-19)
(-0.264566 1.7736 2.94913e-19)
(-0.393182 2.06743 -2.81263e-19)
(-0.450162 2.34617 2.93643e-19)
(-0.435351 2.54781 1.42248e-19)
(-0.357284 2.67026 1.22568e-19)
(-0.312581 2.76253 1.83516e-19)
(0.851629 0.848559 6.34526e-20)
(1.31478 1.38392 0)
(1.25984 1.37585 -1.80439e-19)
(1.19981 1.36291 -3.31367e-19)
(1.13116 1.34723 5.48405e-19)
(1.05451 1.32893 4.8493e-19)
(0.969368 1.31075 5.70119e-19)
(0.873349 1.295 5.93217e-20)
(0.763205 1.28606 8.00008e-19)
(0.630769 1.29301 1.37868e-18)
(0.483381 1.3305 8.39108e-20)
(0.33606 1.40919 7.01753e-19)
(0.193514 1.53046 1.16022e-19)
(0.071062 1.7022 -1.30606e-19)
(-0.0173866 1.92553 -2.60407e-19)
(-0.0739361 2.17877 2.44537e-19)
(-0.124556 2.36936 -2.57219e-19)
(-0.140489 2.48463 -1.29592e-19)
(-0.12677 2.6031 -1.05709e-19)
(-0.191264 2.70613 -1.11798e-20)
(0.846618 0.847493 0)
(1.31031 1.4122 -2.6155e-20)
(1.25567 1.40609 2.93279e-20)
(1.19395 1.39291 3.11436e-20)
(1.12562 1.37585 3.33391e-19)
(1.04875 1.35687 -4.58244e-19)
(0.963721 1.33758 -3.5756e-19)
(0.866888 1.32098 5.62119e-20)
(0.756024 1.31164 -8.63816e-19)
(0.626831 1.32044 -1.61259e-20)
(0.486781 1.36455 -2.6482e-18)
(0.354057 1.45103 9.73752e-20)
(0.233733 1.58126 -1.1072e-19)
(0.144427 1.75655 -1.17454e-19)
(0.0909744 1.97264 1.58969e-20)
(0.0772149 2.19278 -8.47038e-21)
(0.0346865 2.37528 4.05998e-19)
(0.00682085 2.47103 1.94166e-19)
(-0.0016302 2.58847 -4.09294e-20)
(-0.0755022 2.68127 -6.22951e-20)
(0.815947 0.836186 -2.88358e-20)
(1.30655 1.44731 -1.56167e-19)
(1.24891 1.43743 8.04566e-20)
(1.18559 1.42146 1.17959e-19)
(1.11618 1.40272 0)
(1.04003 1.38331 -5.89203e-19)
(0.955107 1.36685 -4.98491e-19)
(0.861265 1.35373 5.30215e-20)
(0.756048 1.34898 -9.36467e-20)
(0.636217 1.36177 -1.32626e-18)
(0.51116 1.41244 -1.24849e-18)
(0.40035 1.5049 -8.3397e-19)
(0.309476 1.63955 -8.18509e-19)
(0.248775 1.81451 7.76181e-19)
(0.224042 2.01504 6.62993e-19)
(0.238623 2.21168 0)
(0.205779 2.40615 0)
(0.169854 2.52279 -4.11053e-20)
(0.128009 2.63689 0)
(0.0346963 2.69584 -1.98566e-20)
(0.782933 0.832523 1.42682e-20)
(1.29797 1.48278 9.88984e-20)
(1.23945 1.46927 0)
(1.17617 1.45357 9.14047e-21)
(1.10696 1.43485 2.72836e-19)
(1.03139 1.41654 -8.12767e-19)
(0.948415 1.4013 -3.08383e-19)
(0.856016 1.38587 4.61965e-20)
(0.754013 1.37764 -6.84369e-19)
(0.64125 1.3893 7.27106e-20)