/*--------------------------------*- C++ -*----------------------------------*\
| =========                 |                                                 |
| \\      /  F ield         | OpenFOAM: The Open Source CFD Toolbox           |
|  \\    /   O peration     | Version:  4.0                                   |
|   \\  /    A nd           | Web:      www.OpenFOAM.org                      |
|    \\/     M anipulation  |                                                 |
\*---------------------------------------------------------------------------*/
FoamFile
{
    version     2.0;
    format      ascii;
    class       surfaceScalarField;
    location    "33";
    object      phi;
}
// * * * * * * * * * * * * * * * * * * * * * * * * * * * * * * * * * * * * * //

dimensions      [0 3 -1 0 0 0 0];

internalField   nonuniform List<scalar> 
4262
(
0.107137
0.470851
0.0955698
0.705153
0.0693702
0.858503
0.0473371
1.0208
0.0309468
1.21491
0.0197557
1.44941
0.0123623
1.73326
0.0071879
2.07621
0.00329474
2.48914
-0.000224044
2.98581
-0.00378322
2.98585
-0.0077249
2.48919
-0.012889
2.0762
-0.020052
1.73303
-0.0310241
1.44919
-0.0472444
1.21474
-0.0691379
1.02066
-0.0953675
0.858533
-0.10711
0.705328
0.470878
0.1129
0.357951
0.135322
0.682731
0.120451
0.873374
0.0978997
1.04335
0.074593
1.23821
0.0529096
1.47109
0.0346787
1.75149
0.0205039
2.09039
0.0091307
2.50051
-0.00105167
2.99599
-0.0112153
2.99602
-0.0223028
2.50027
-0.0361549
2.09005
-0.0543211
1.75119
-0.0760996
1.47097
-0.0996145
1.23825
-0.122434
1.04348
-0.136493
0.872592
-0.113397
0.682232
0.357481
0.0921067
0.265845
0.125108
0.64973
0.121342
0.877139
0.105215
1.05948
0.0867184
1.25671
0.0675496
1.49026
0.0484591
1.77058
0.0304043
2.10844
0.0140738
2.51684
-0.00163693
3.0117
-0.0171133
3.01149
-0.0331376
2.5163
-0.0509455
2.10786
-0.0698131
1.77006
-0.0884002
1.48956
-0.105961
1.25581
-0.120811
1.05833
-0.125442
0.877222
-0.0923683
0.649159
0.265113
0.0639775
0.201867
0.104806
0.608902
0.106528
0.875418
0.0951591
1.07084
0.0813949
1.27047
0.0669001
1.50476
0.050779
1.7867
0.033615
2.1256
0.0159277
2.53453
-0.00265385
3.03029
-0.0210658
3.0299
-0.0383613
2.53359
-0.0549173
2.12442
-0.0701321
1.78528
-0.0839194
1.50334
-0.0975063
1.2694
-0.10901
1.06983
-0.106306
0.874518
-0.0645614
0.607414
0.200552
0.0374987
0.164368
0.0808711
0.565529
0.0913067
0.864982
0.0840973
1.07805
0.0714459
1.28313
0.0595973
1.51661
0.0468814
1.79942
0.0323091
2.14018
0.0157039
2.55113
-0.0033198
3.04931
-0.0221153
3.0487
-0.0382272
2.5497
-0.0520618
2.13825
-0.0643007
1.79751
-0.0757383
1.51478
-0.0877628
1.28142
-0.0942046
1.07627
-0.082731
0.863045
-0.0381892
0.562872
0.162363
0.0195456
0.144823
0.0573622
0.527713
0.0728471
0.849497
0.0707806
1.08012
0.0619089
1.292
0.0509245
1.52759
0.0398001
1.81054
0.0275362
2.15244
0.012896
2.56577
-0.00447545
3.06668
-0.0214625
3.06569
-0.0351543
2.5634
-0.0464262
2.14952
-0.0565715
1.80766
-0.0666766
1.52489
-0.074731
1.28948
-0.0759515
1.07749
-0.0592776
0.846371
-0.0201725
0.523767
0.14219
0.0105811
0.134242
0.0422049
0.496089
0.0583028
0.833399
0.0587496
1.07967
0.052779
1.29797
0.0435969
1.53677
0.0335539
1.82058
0.0225413
2.16345
0.00989778
2.57842
-0.00553422
3.08211
-0.0206573
3.08081
-0.0325207
2.57526
-0.0426092
2.15961
-0.0513972
1.81645
-0.0595625
1.53305
-0.0643947
1.29431
-0.0626752
1.07577
-0.0448404
0.828536
-0.0113935
0.49032
0.130796
0.00655102
0.127691
0.0329829
0.469657
0.049378
0.817004
0.0511738
1.07788
0.0464938
1.30265
0.0384871
1.54478
0.0289823
1.83009
0.018191
2.17424
0.00630123
2.59031
-0.00725756
3.09567
-0.0202209
3.09377
-0.0309366
2.58598
-0.0401211
2.1688
-0.0481993
1.82453
-0.0547799
1.53963
-0.0579136
1.29744
-0.0545295
1.07239
-0.0361085
0.810115
-0.00753509
0.461747
0.123261
0.0047667
0.122924
0.0265842
0.447839
0.0424567
0.801132
0.0448349
1.0755
0.040723
1.30676
0.0337674
1.55174
0.0252045
1.83865
0.0150881
2.18436
0.00365908
2.60174
-0.00865841
3.10799
-0.0203733
3.10549
-0.0303844
2.59599
-0.0388865
2.1773
-0.0457679
1.83141
-0.0510847
1.54495
-0.053552
1.29991
-0.04907
1.06791
-0.0303915
0.791436
-0.00592384
0.437279
0.117338
0.00360847
0.119315
0.0211769
0.430271
0.0362835
0.786025
0.039212
1.07257
0.035253
1.31072
0.0284967
1.55849
0.0203832
1.84676
0.0108499
2.19389
0.000160382
2.61242
-0.0112762
3.11943
-0.0220174
3.11623
-0.0308513
2.60482
-0.0382144
2.18466
-0.0438057
1.837
-0.048131
1.54928
-0.0497264
1.30151
-0.0441779
1.06236
-0.0257913
0.77305
-0.00507914
0.416567
0.112258
0.00267772
0.116638
0.0163332
0.416615
0.0297919
0.772566
0.0329131
1.06945
0.0293313
1.3143
0.023077
1.56475
0.0156518
1.85419
0.00703713
2.20251
-0.00271729
2.62218
-0.0134005
3.13011
-0.0231326
3.12596
-0.0308137
2.6125
-0.0367767
2.19062
-0.041856
1.84208
-0.0457752
1.55319
-0.0466852
1.30242
-0.0399977
1.05567
-0.0220561
0.755108
-0.0044832
0.398994
0.107775
0.00197588
0.114662
0.012313
0.406278
0.0242467
0.760633
0.0274292
1.06627
0.0239355
1.31779
0.0177702
1.57091
0.0105914
1.86137
0.00257628
2.21052
-0.00660977
2.63137
-0.0171789
3.14068
-0.026449
3.13523
-0.0328857
2.61894
-0.0374972
2.19524
-0.0411224
1.8457
-0.0438656
1.55594
-0.0436013
1.30215
-0.0360847
1.04815
-0.0191062
0.73813
-0.00411946
0.384007
0.103656
0.00127462
0.113387
0.00873649
0.398816
0.0185443
0.750825
0.0211105
1.0637
0.0176962
1.32121
0.0117371
1.57687
0.00487334
1.86823
-0.00271559
2.21811
-0.0113567
2.64001
-0.021075
3.1504
-0.0292928
3.14345
-0.0344605
2.62411
-0.0377584
2.19853
-0.0406959
1.84864
-0.0424042
1.55765
-0.0414566
1.30121
-0.0333604
1.04006
-0.0170275
0.721797
-0.00398781
0.370968
0.0996679
0.000455026
0.112932
0.00466893
0.394603
0.0120632
0.743431
0.0143369
1.06143
0.0110154
1.32453
0.0050947
1.58279
-0.00195297
1.87528
-0.00966876
2.22583
-0.0178419
2.64818
-0.0259997
3.15855
-0.0323328
3.14978
-0.0363057
2.62808
-0.0389583
2.20119
-0.0408383
1.85052
-0.041128
1.55794
-0.0389977
1.29907
-0.030111
1.03117
-0.014815
0.706501
-0.00372684
0.35988
0.0959411
-0.000515779
0.113448
0.000668249
0.393419
0.00572352
0.738375
0.00662154
1.06053
0.00342468
1.32773
-0.00192707
1.58814
-0.00870565
1.88206
-0.0164201
2.23354
-0.024419
2.65618
-0.0317406
3.16588
-0.0370658
3.15511
-0.0400508
2.63106
-0.041563
2.2027
-0.0416282
1.85059
-0.0406333
1.55694
-0.0371284
1.29557
-0.0275454
1.02159
-0.0130225
0.691978
-0.0033771
0.350234
0.092564
-0.00164437
0.115092
-0.00291677
0.394691
-0.000983609
0.736442
-0.000580646
1.06013
-0.00423838
1.33138
-0.00993039
1.59383
-0.0168718
1.889
-0.0246431
2.24131
-0.0327731
2.66431
-0.0399475
3.17305
-0.0442441
3.1594
-0.0456518
2.63247
-0.0453679
2.20241
-0.043873
1.84909
-0.0414415
1.55451
-0.0361201
1.29025
-0.0256042
1.01107
-0.0119522
0.678326
-0.00324997
0.341532
0.089314
-0.00286938
0.117962
-0.00644967
0.398271
-0.00828333
0.738276
-0.0100529
1.0619
-0.0139849
1.33532
-0.0196892
1.59954
-0.0266017
1.89591
-0.0343775
2.24909
-0.0421944
2.67213
-0.0487209
3.17958
-0.0519258
3.16261
-0.0518045
2.63235
-0.0495146
2.20012
-0.0465918
1.84617
-0.0425862
1.5505
-0.0363011
1.28396
-0.0252223
0.999994
-0.0119201
0.665024
-0.00336694
0.332979
0.0859471
-0.00395903
0.121921
-0.010792
0.405104
-0.0155282
0.743012
-0.019302
1.06567
-0.0245345
1.34055
-0.0314969
1.6065
-0.0393832
1.9038
-0.047478
2.25719
-0.0550601
2.67971
-0.0605597
3.18508
-0.0616561
3.1637
-0.0592566
2.62995
-0.0555548
2.19642
-0.0512782
1.84189
-0.0454601
1.54469
-0.0374417
1.27595
-0.0253752
0.987927
-0.0123532
0.652002
-0.00364063
0.324266
0.0823064
-0.00528567
0.127206
-0.0150949
0.414913
-0.0234559
0.751373
-0.029682
1.0719
-0.036124
1.34699
-0.0442354
1.61461
-0.053153
1.91272
-0.0622194
2.26625
-0.0701056
2.68759
-0.0746453
3.18962
-0.0738135
3.16287
-0.0695415
2.62568
-0.063429
2.19031
-0.0567472
1.83521
-0.0493822
1.53732
-0.0402553
1.26682
-0.0275488
0.97522
-0.0139144
0.638368
-0.00411953
0.314471
0.0781869
-0.00638555
0.133592
-0.0184255
0.426953
-0.0302082
0.763156
-0.0393928
1.08108
-0.0482696
1.35587
-0.0583073
1.62465
-0.0689333
1.92334
-0.0793584
2.27668
-0.0879001
2.69614
-0.0923498
3.19407
-0.0901088
3.16063
-0.0836063
2.61918
-0.0753935
2.1821
-0.066905
1.82672
-0.0577992
1.52821
-0.0466396
1.25566
-0.0318139
0.960395
-0.0164776
0.623031
-0.00492561
0.302919
0.0732613
-0.00862908
0.142221
-0.0245839
0.442908
-0.0402967
0.778868
-0.0523777
1.09316
-0.0632439
1.36673
-0.0754261
1.63683
-0.088084
1.936
-0.100231
2.28882
-0.110021
2.70593
-0.114318
3.19836
-0.110051
3.15636
-0.101262
2.61039
-0.090635
2.17147
-0.0795549
1.81564
-0.0680229
1.51668
-0.0547299
1.24237
-0.0378453
0.94351
-0.0199619
0.605148
-0.00592141
0.288879
0.0673399
-0.0107692
0.15299
-0.0305724
0.462711
-0.0505265
0.798823
-0.0665318
1.10917
-0.0812351
1.38144
-0.0966275
1.65223
-0.112007
1.95138
-0.126279
2.3031
-0.136558
2.7162
-0.139631
3.20144
-0.133993
3.15073
-0.123072
2.59947
-0.109997
2.15839
-0.0968171
1.80246
-0.0829347
1.5028
-0.0660596
1.22549
-0.0450768
0.922527
-0.0236565
0.583727
-0.00695885
0.272181
0.0603811
-0.0152527
0.168243
-0.0417842
0.489243
-0.0672832
0.824322
-0.0874068
1.12929
-0.105013
1.39904
-0.123509
1.67072
-0.142084
1.96996
-0.158425
2.31944
-0.16984
2.72762
-0.172614
3.20421
-0.164231
3.14234
-0.149768
2.585
-0.133382
2.14201
-0.116219
1.7853
-0.0982736
1.48486
-0.0773903
1.20461
-0.0528951
0.898032
-0.0278392
0.558672
-0.00799592
0.252338
0.0523851
-0.0190837
0.187326
-0.0534674
0.523627
-0.087059
0.857913
-0.113158
1.15539
-0.136405
1.42229
-0.159702
1.69402
-0.181077
1.99133
-0.198922
2.33728
-0.209752
2.73845
-0.209389
3.20385
-0.197507
3.13046
-0.180432
2.56793
-0.161146
2.12272
-0.140922
1.76507
-0.119139
1.46307
-0.0931467
1.17862
-0.0627767
0.867662
-0.0323145
0.528209
-0.00894993
0.228973
0.0434352
-0.0326238
0.21995
-0.0792227
0.570226
-0.121079
0.89977
-0.153689
1.188
-0.182256
1.45086
-0.20842
1.72018
-0.231507
2.01442
-0.249246
2.35502
-0.258566
2.74777
-0.255608
3.20089
-0.239994
3.11485
-0.218015
2.54595
-0.193556
2.09826
-0.167756
1.73927
-0.140107
1.43542
-0.10863
1.14714
-0.0732496
0.832282
-0.0377445
0.492704
-0.0101519
0.201381
0.0332833
-0.0470135
0.266964
-0.117111
0.640323
-0.17427
0.956928
-0.213375
1.2271
-0.246222
1.4837
-0.274551
1.74851
-0.296915
2.03678
-0.311843
2.36995
-0.315949
2.75188
-0.305547
3.19049
-0.28212
3.09142
-0.254852
2.51868
-0.226646
2.07006
-0.197581
1.71021
-0.165974
1.40382
-0.12876
1.10992
-0.0858232
0.789345
-0.0415767
0.448458
-0.00998389
0.169788
0.0232994
-0.0327404
0.299704
-0.0916821
0.699265
-0.144227
1.00947
-0.188139
1.27102
-0.228994
1.52456
-0.264217
1.78373
-0.298268
2.07083
-0.328598
2.40028
-0.350926
2.7742
-0.359261
3.19882
-0.349362
3.08152
-0.3254
2.49472
-0.290722
2.03538
-0.247265
1.66675
-0.198486
1.35504
-0.145195
1.05663
-0.0876822
0.731832
-0.0366707
0.397446
-0.00803007
0.141147
0.0152694
-0.0111155
0.31082
-0.0421991
0.730348
-0.0800857
1.04736
-0.116242
1.30717
-0.151387
1.55971
-0.184972
1.81732
-0.216416
2.10228
-0.2429
2.42676
-0.260522
2.79183
-0.262604
3.2009
-0.24402
3.06294
-0.2115
2.4622
-0.17345
1.99733
-0.134535
1.62784
-0.0942698
1.31477
-0.0544017
1.01677
-0.0219654
0.699396
-0.00337351
0.378854
0.000729933
0.137044
0.0159993
0.00211976
0.3087
-0.0196218
0.75209
-0.0471442
1.07488
-0.0755809
1.33561
-0.104328
1.58845
-0.133196
1.84619
-0.160791
2.12987
-0.183862
2.44983
-0.19837
2.80633
-0.198235
3.20077
-0.179344
3.04405
-0.150552
2.43341
-0.117099
1.96388
-0.079096
1.58983
-0.0406383
1.27631
-0.00798056
0.984108
0.0120304
0.679385
0.0138077
0.377077
0.00542914
0.145422
0.0214284
0.00252129
0.306179
-0.0086
0.763211
-0.0286981
1.09498
-0.0522268
1.35914
-0.0764027
1.61263
-0.100941
1.87073
-0.124555
2.15348
-0.144177
2.46946
-0.155503
2.81766
-0.152252
3.19752
-0.132796
3.02459
-0.104861
2.40547
-0.070761
1.92978
-0.0364002
1.55547
-0.00811295
1.24803
0.0121991
0.963796
0.0216898
0.669894
0.0179145
0.380852
0.00649282
0.156844
0.0279213
0.00467109
0.301508
-0.00338105
0.771263
-0.0206646
1.11226
-0.040174
1.37865
-0.0604878
1.63294
-0.0814864
1.89172
-0.101894
2.17389
-0.119037
2.4866
-0.129112
2.82773
-0.127004
3.19541
-0.110158
3.00775
-0.0837045
2.37902
-0.0556254
1.9017
-0.0293151
1.52916
-0.00411712
1.22283
0.0151164
0.944562
0.0218614
0.663149
0.0162966
0.386417
0.0055248
0.167616
0.0334461
0.00571721
0.29579
0.00045167
0.776529
-0.0148296
1.12754
-0.0328374
1.39665
-0.0512983
1.6514
-0.0700938
1.91052
-0.0883253
2.19212
-0.103697
2.50197
-0.112552
2.83659
-0.108832
3.19169
-0.0915715
2.99049
-0.0698937
2.35734
-0.0462714
1.87808
-0.021352
1.50424
-1.86272e-05
1.20149
0.0140449
0.930499
0.0190202
0.658174
0.0128728
0.392564
0.00405556
0.176433
0.0375016
0.00380611
0.291984
-0.000231428
0.780567
-0.0134057
1.14072
-0.02959
1.41284
-0.0464957
1.66831
-0.0637755
1.9278
-0.0807254
2.20907
-0.0953677
2.51661
-0.104227
2.84545
-0.102749
3.19021
-0.089185
2.97692
-0.0680331
2.33619
-0.0448563
1.8549
-0.0244936
1.48388
-0.0058114
1.18281
0.00729548
0.917392
0.011293
0.654176
0.00840864
0.395449
0.00278501
0.182057
0.0402866
0.00253028
0.289454
-0.000846835
0.783944
-0.0128588
1.15273
-0.0281185
1.4281
-0.0442734
1.68446
-0.0606874
1.94421
-0.0768847
2.22527
-0.0910529
2.53078
-0.0998925
2.85429
-0.0993314
3.18965
-0.0861206
2.96371
-0.0681123
2.31818
-0.0486431
1.83543
-0.0282276
1.46347
-0.0130147
1.1676
-0.00195693
0.906334
0.00299138
0.649228
0.0014364
0.397004
0.00059021
0.182903
0.0408768
-0.000186954
0.289641
-0.00380041
0.787557
-0.0143576
1.16329
-0.0281073
1.44185
-0.0434699
1.69983
-0.0593863
1.96013
-0.0752701
2.24115
-0.0895903
2.5451
-0.0996122
2.86431
-0.100368
3.1904
-0.0890971
2.95244
-0.0716267
2.30071
-0.0529917
1.81679
-0.0378575
1.44833
-0.0231254
1.15287
-0.0127801
0.895989
-0.00701512
0.643463
-0.00370482
0.393693
-0.0010946
0.180293
0.0397822
-0.000705752
0.290347
-0.00573522
0.792587
-0.0158642
1.17342
-0.0287751
1.45476
-0.0435461
1.7146
-0.0590336
1.97562
-0.0747394
2.25686
-0.0892262
2.55959
-0.0995066
2.87459
-0.101228
3.19213
-0.092466
2.94368
-0.0771686
2.28541
-0.0608385
1.80046
-0.044085
1.43158
-0.0301613
1.13894
-0.0187743
0.884602
-0.0110466
0.635735
-0.00662447
0.389271
-0.00198636
0.175655
0.0377959
-0.00264196
0.292989
-0.00805216
0.797997
-0.017561
1.18293
-0.0297364
1.46693
-0.0438469
1.72871
-0.0590859
1.99086
-0.0750422
2.27282
-0.0904647
2.57501
-0.103076
2.8872
-0.109163
3.19821
-0.10201
2.93653
-0.086609
2.27001
-0.0681239
1.78198
-0.0520836
1.41554
-0.0379365
1.1248
-0.0267645
0.87343
-0.0176669
0.626638
-0.00865895
0.380263
-0.00263104
0.169627
0.0351648
-0.00390576
0.296894
-0.00949606
0.803587
-0.0188369
1.19227
-0.0306906
1.47879
-0.044372
1.74239
-0.0593351
2.00582
-0.0753593
2.28884
-0.0910398
2.59069
-0.103644
2.89981
-0.109011
3.20358
-0.103207
2.93072
-0.0906555
2.25746
-0.0760398
1.76736
-0.0588006
1.3983
-0.0444788
1.11047
-0.0311105
0.860061
-0.0198564
0.615384
-0.0107188
0.371126
-0.00314045
0.162048
0.0320244
-0.0044176
0.301312
-0.0108131
0.809983
-0.0200313
1.20149
-0.0314357
1.49019
-0.0446451
1.7556
-0.0593808
2.02056
-0.0755145
2.30497
-0.0919863
2.60716
-0.107448
2.91527
-0.118635
3.21477
-0.117185
2.92927
-0.103832
2.24411
-0.0837451
1.74728
-0.0666669
1.38122
-0.0501917
1.094
-0.037039
0.846909
-0.024706
0.603051
-0.0115472
0.357967
-0.00321849
0.15372
0.0288059
-0.00448553
0.305797
-0.011369
0.816866
-0.0206747
1.21079
-0.0319052
1.50142
-0.0448306
1.76852
-0.0592992
2.03502
-0.0754807
2.32115
-0.0926673
2.62435
-0.108676
2.93128
-0.118928
3.22502
-0.119061
2.9294
-0.110207
2.23525
-0.0954285
1.7325
-0.0743501
1.36014
-0.0562224
1.07587
-0.0394026
0.830089
-0.024554
0.588202
-0.0122282
0.345641
-0.00312034
0.144612
0.0256856
-0.00455126
0.310349
-0.0118845
0.824199
-0.0210646
1.21997
-0.0319847
1.51234
-0.0446077
1.78115
-0.0589106
2.04933
-0.0751734
2.33742
-0.0927998
2.64198
-0.110658
2.94914
-0.126733
3.24109
-0.131917
2.93459
-0.121364
2.2247
-0.101451
1.71258
-0.0816943
1.34039
-0.0601061
1.05428
-0.0429507
0.812933
-0.0277615
0.573013
-0.0120103
0.32989
-0.00273441
0.135336
0.0229511
-0.00458067
0.314929
-0.0119806
0.831599
-0.0210553
1.22905
-0.0317946
1.52308
-0.0441858
1.79354
-0.0582519
2.06339
-0.0744638
2.35363
-0.0925274
2.66004
-0.11137
2.96798
-0.127272
3.25699
-0.132897
2.94021
-0.127719
2.21952
-0.114089
1.69895
-0.0897706
1.31607
-0.0653985
1.02991
-0.0411492
0.788684
-0.0217671
0.553631
-0.00966142
0.317784
-0.00192461
0.127599
0.0210265
-0.00462087
0.31955
-0.0120462
0.839025
-0.0208233
1.23782
-0.0312243
1.53348
-0.0433334
1.80565
-0.0572269
2.07729
-0.0734156
2.36982
-0.0917801
2.6784
-0.111683
2.98788
-0.131486
3.2768
-0.143885
2.95261
-0.139436
2.21507
-0.121227
1.68075
-0.098109
1.29295
-0.068299
1.0001
-0.0413413
0.761726
-0.0188674
0.531157
-0.0049962
0.303913
-0.00220583
0.124809
0.0188207
-0.00455869
0.324109
-0.0118289
0.846295
-0.0203864
1.24638
-0.0305163
1.54361
-0.042313
1.81744
-0.0559211
2.09089
-0.0719698
2.38587
-0.0905419
2.69698
-0.11116
3.0085
-0.131292
3.29693
-0.143062
2.96438
-0.144675
2.21669
-0.134914
1.67098
-0.108707
1.26674
-0.0747974
0.966193
-0.0331474
0.720077
0.00576411
0.492245
0.0253642
0.284313
0.0221425
0.12803
0.0409632
-0.00443201
0.328541
-0.0115645
0.853427
-0.0197784
1.25459
-0.0295035
1.55334
-0.0409318
1.82887
-0.0542863
2.10425
-0.070191
2.40177
-0.0887867
2.71557
-0.11004
3.02975
-0.133113
3.32
-0.150925
2.9822
-0.155954
2.22172
-0.143069
1.6581
-0.119818
1.24349
-0.0798147
0.926189
-0.0339208
0.674183
0.0180227
0.440302
0.0376285
0.264707
0.0164601
0.149199
0.0574234
-0.00421914
0.33276
-0.011122
0.86033
-0.0190736
1.26255
-0.0284504
1.56272
-0.0395144
1.83994
-0.0524941
2.11723
-0.0681238
2.4174
-0.0867354
2.73418
-0.108548
3.05157
-0.132405
3.34386
-0.15016
2.99995
-0.158633
2.23019
-0.157802
1.65727
-0.135967
1.22166
-0.0967066
0.886929
-0.0278078
0.605284
0.0751835
0.337311
0.170538
0.169353
0.175104
0.144633
0.232527
-0.00405884
0.336819
-0.0108624
0.867134
-0.0186774
1.27036
-0.0279769
1.57202
-0.0391877
1.85115
-0.0526254
2.13067
-0.0691471
2.43392
-0.0892852
2.75432
-0.11367
3.07595
-0.142313
3.3725
-0.16863
3.02627
-0.184265
2.24582
-0.182649
1.65565
-0.166605
1.20561
-0.12577
0.846094
-0.0792057
0.55872
-0.106367
0.364472
-0.36295
0.425937
-0.930248
0.711931
0.895304
-1.59302
-0.00385522
0.340674
-0.0104315
0.87371
-0.0180736
1.278
-0.0272209
1.58116
-0.0382872
1.86221
-0.0517502
2.14413
-0.0686018
2.45077
-0.0896394
2.77536
-0.115906
3.10222
-0.148087
3.40468
-0.177711
3.05589
-0.198301
2.26642
-0.21693
1.67428
-0.216907
1.20559
-0.207057
0.836245
-0.287014
0.638677
-0.689794
0.767252
-1.41723
1.15337
-2.0301
1.32481
1.21932
-2.35412
-0.00364702
0.344321
-0.00995013
0.880013
-0.0172933
1.28535
-0.0261796
1.59005
-0.0370929
1.87313
-0.0506308
2.15767
-0.0678374
2.46798
-0.0896784
2.7972
-0.117625
3.13016
-0.152936
3.44
-0.189319
3.09227
-0.221852
2.29895
-0.241788
1.69422
-0.247994
1.21179
-0.33588
0.924131
-0.748611
1.05141
-1.51641
1.53505
-2.09529
1.73225
-2.33837
1.56789
1.33521
-2.45427
-0.00342481
0.347746
-0.00938251
0.885971
-0.0164753
1.29244
-0.0251517
1.59873
-0.035859
1.88383
-0.0493469
2.17116
-0.0667546
2.48539
-0.0893154
2.81976
-0.118953
3.1598
-0.158619
3.47966
-0.202023
3.13568
-0.238012
2.33494
-0.278061
1.73427
-0.367896
1.30163
-0.696839
1.25307
-1.41835
1.77292
-2.01516
2.13185
-2.25799
1.97508
-2.37307
1.68296
1.40126
-2.43911
-0.00315864
0.350905
-0.00873066
0.891543
-0.0154455
1.29915
-0.0237952
1.60708
-0.0343548
1.89439
-0.047831
2.18463
-0.0654444
2.503
-0.0886592
2.84298
-0.119906
3.19105
-0.162113
3.52187
-0.210405
3.18397
-0.26122
2.38575
-0.313915
1.78696
-0.491472
1.47919
-1.07902
1.84063
-1.7697
2.4636
-2.09995
2.4621
-2.25172
2.12685
-2.3353
1.76655
1.46729
-2.40134
-0.00305584
0.35396
-0.00850977
0.896997
-0.0152343
1.30588
-0.0236556
1.6155
-0.0344273
1.90516
-0.0481072
2.19831
-0.066154
2.52105
-0.0902132
2.86703
-0.122946
3.22378
-0.1695
3.56842
-0.22777
3.24224
-0.28048
2.43846
-0.37511
1.88159
-0.750966
1.85504
-1.47385
2.56351
-1.95725
2.94701
-2.15979
2.66463
-2.26747
2.23454
-2.34487
1.84394
1.53188
-2.40946
-0.00311003
0.357071
-0.00879613
0.902683
-0.0158154
1.3129
-0.024612
1.62429
-0.0358968
1.91645
-0.0502497
2.21266
-0.0691491
2.53995
-0.0943985
2.89228
-0.129243
3.25863
-0.178913
3.61809
-0.237027
3.30035
-0.305592
2.50703
-0.496039
2.07204
-1.03384
2.39284
-1.66333
3.193
-1.94805
3.23173
-2.09738
2.81396
-2.21301
2.35017
-2.30733
1.93826
1.59483
-2.37027
-0.0031133
0.360184
-0.00906362
0.908633
-0.0165519
1.32039
-0.0258789
1.63362
-0.0376455
1.92822
-0.0525782
2.2276
-0.0722791
2.55965
-0.098685
2.91869
-0.13502
3.29496
-0.187786
3.67086
-0.255554
3.36812
-0.348499
2.59997
-0.621529
2.34507
-1.24745
3.01876
-1.74476
3.69031
-1.95511
3.44208
-2.0986
2.95745
-2.22488
2.47645
-2.33839
2.05177
1.65479
-2.39836
-0.00304881
0.363233
-0.00924726
0.914832
-0.0170935
1.32823
-0.0268621
1.64339
-0.0391983
1.94055
-0.0548798
2.24328
-0.0754732
2.58024
-0.103091
2.94631
-0.141552
3.33342
-0.197626
3.72693
-0.267008
3.4375
-0.390921
2.72389
-0.764388
2.71853
-1.39266
3.64704
-1.75689
4.05454
-1.93364
3.61882
-2.03939
3.06321
-2.13189
2.56895
-2.20249
2.12236
1.64877
-2.19646
-0.00292196
0.366155
-0.00934795
0.921258
-0.0177439
1.33663
-0.0281287
1.65377
-0.0410121
1.95344
-0.0572828
2.25955
-0.0786884
2.60165
-0.10745
2.97507
-0.147257
3.37323
-0.204537
3.78421
-0.286313
3.51928
-0.456082
2.89365
-0.894488
3.15694
-1.44877
4.20132
-1.71688
4.32265
-1.87515
3.77709
-1.97221
3.16027
-1.97762
2.57435
-1.91477
2.05952
1.62331
-1.88931
-0.00258795
0.368743
-0.00927984
0.927949
-0.0179583
1.34531
-0.0286975
1.66451
-0.0420557
1.96679
-0.0588327
2.27633
-0.0806367
2.62345
-0.109718
3.00415
-0.150054
3.41356
-0.207546
3.8417
-0.293663
3.6054
-0.491126
3.09112
-0.964358
3.63017
-1.41402
4.65098
-1.58957
4.4982
-1.66096
3.84848
-1.66875
3.16807
-1.52504
2.43064
-1.02833
1.56281
0.59498
-0.00221067
0.370953
-0.00899158
0.93473
-0.0182765
1.35459
-0.0298269
1.67606
-0.0440872
1.98105
-0.0619739
2.29421
-0.085464
2.64694
-0.11701
3.0357
-0.16085
3.45741
-0.223011
3.90386
-0.325762
3.70815
-0.575863
3.34122
-1.10225
4.15656
-1.46994
5.01867
-1.57235
4.60061
-1.57331
3.84943
-1.47493
3.06969
-1.23898
2.19469
-0.645198
0.969032
-0.0502181
-0.00172097
0.372674
-0.00833719
0.941347
-0.0178139
1.36407
-0.0299085
1.68816
-0.0451179
1.99626
-0.0643807
2.31348
-0.0896646
2.67223
-0.123729
3.06976
-0.171621
3.5053
-0.241957
3.9742
-0.362754
3.82895
-0.661392
3.63986
-1.20875
4.70392
-1.48441
5.29433
-1.54991
4.66611
-1.53379
3.83331
-1.3358
2.8717
-0.798414
1.65731
-0.116342
0.28696
-0.16656
-0.00101196
0.373686
-0.00728686
0.947621
-0.0172747
1.37406
-0.0301927
1.70108
-0.0461519
2.01222
-0.0664034
2.33373
-0.0932604
2.69908
-0.129738
3.10624
-0.181016
3.55657
-0.256374
4.04956
-0.399204
3.97177
-0.757723
3.99838
-1.29374
5.23993
-1.48067
5.48126
-1.50973
4.69517
-1.42833
3.75191
-1.11619
2.55956
-0.328672
0.869784
0.0305971
-0.0723097
-0.135963
-0.000110228
0.373796
-0.00540616
0.952917
-0.0153358
1.38399
-0.0286574
1.7144
-0.045415
2.02898
-0.0669388
2.35525
-0.0954699
2.72761
-0.13413
3.1449
-0.188066
3.61051
-0.27307
4.13456
-0.441475
4.14018
-0.851609
4.40851
-1.32672
5.71504
-1.45171
5.60625
-1.46271
4.70617
-1.25947
3.54867
-0.714061
2.01416
-0.0684875
0.224211
0.0339047
-0.174702
-0.102059
0.00168522
0.372111
-0.00246311
0.957066
-0.012979
1.3945
-0.0271656
1.72858
-0.0442848
2.0461
-0.0665393
2.37751
-0.0961774
2.75725
-0.136547
3.18527
-0.192761
3.66673
-0.284434
4.22624
-0.475186
4.33093
-0.93659
4.86991
-1.32863
6.10708
-1.40255
5.68017
-1.36563
4.66925
-1.07938
3.26242
-0.351828
1.28661
-0.010409
-0.117208
0.00967662
-0.194788
-0.092382
0.00354669
0.368564
0.00133246
0.95928
-0.00871004
1.40454
-0.0226316
1.74251
-0.0401708
2.06364
-0.0633881
2.40072
-0.0942071
2.78807
-0.135798
3.22686
-0.194093
3.72502
-0.293604
4.32575
-0.508105
4.54543
-0.991616
5.35342
-1.27887
6.39433
-1.31991
5.72121
-1.20922
4.55856
-0.817974
2.87117
-0.101429
0.570064
0.0411691
-0.259806
0.0237986
-0.177417
-0.0685834
0.00579226
0.362772
0.00501749
0.960055
-0.00393475
1.4135
-0.0176946
1.75627
-0.0350712
2.08101
-0.0584126
2.42406
-0.0893265
2.81899
-0.13164
3.26917
-0.191168
3.78455
-0.295099
4.42968
-0.526641
4.77698
-1.00218
5.82896
-1.20897
6.60113
-1.22942
5.74167
-1.04076
4.3699
-0.502718
2.33313
-0.00439629
0.0717423
0.0145007
-0.278703
0.0160712
-0.178987
-0.0525122
0.00862287
0.354149
0.0108288
0.957849
0.00454848
1.41978
-0.00768478
1.7685
-0.0254793
2.09881
-0.0489101
2.44749
-0.079845
2.84992
-0.121483
3.31081
-0.180964
3.84403
-0.289601
4.53831
-0.53643
5.0238
-0.974728
6.26726
-1.10846
6.73486
-1.08814
5.72135
-0.859813
4.14157
-0.313002
1.78631
-0.0701557
-0.171104
-0.0410566
-0.307803
-0.0112506
-0.208793
-0.0637628
0.012717
0.341432
0.018964
0.951602
0.0143847
1.42436
0.00338834
1.7795
-0.0140326
2.11623
-0.0360112
2.46947
-0.0651409
2.87905
-0.105492
3.35116
-0.163404
3.90194
-0.27196
4.64687
-0.514251
5.2661
-0.889117
6.64213
-0.975427
6.82117
-0.952206
5.69813
-0.694781
3.88414
-0.154835
1.24637
-0.0715105
-0.254428
-0.0430556
-0.336258
-0.013817
-0.238032
-0.0775798
0.0178191
0.323613
0.0296908
0.93973
0.0291463
1.4249
0.0198785
1.78876
0.00439413
2.13171
-0.0155014
2.48937
-0.0429481
2.9065
-0.0801568
3.38837
-0.133324
3.95511
-0.237459
4.75101
-0.461297
5.48993
-0.756438
6.93727
-0.817883
6.88261
-0.733926
5.61417
-0.439766
3.58998
0.00782601
0.798775
0.0271459
-0.273748
0.0194616
-0.328573
0.0189097
-0.23748
-0.0586701
0.0245115
0.299102
0.0436493
0.920592
0.0470641
1.42148
0.040211
1.79562
0.0284201
2.14351
0.0111485
2.50664
-0.0126377
2.93028
-0.0449456
3.42068
-0.0922419
4.0024
-0.183634
4.8424
-0.371877
5.67818
-0.569523
7.13491
-0.621946
6.93503
-0.562372
5.5546
-0.246994
3.2746
0.0815411
0.47024
0.0353342
-0.227541
0.0357333
-0.328972
0.0410113
-0.242758
-0.0176589
0.0321758
0.266926
0.0609391
0.891829
0.072013
1.41041
0.070388
1.79724
0.0620004
2.15189
0.0478202
2.52082
0.028751
2.94935
0.0029734
3.44646
-0.0354408
4.04082
-0.0981175
4.90508
-0.232731
5.81279
-0.355453
7.25764
-0.438069
7.01765
-0.489756
5.60629
-0.426755
3.2116
-0.46054
0.504026
-0.469619
-0.218462
-0.310062
-0.48853
-0.122082
-0.430738
-0.139741
0.0413547
0.225571
0.0826232
0.85056
0.102088
1.39095
0.10588
1.79345
0.102608
2.15517
0.0937812
2.52965
0.0821384
2.96099
0.0653506
3.46324
0.041477
4.06469
0.0138143
4.93274
-0.0287645
5.85537
-0.0858008
7.31467
-0.162094
7.09394
-0.306786
5.75098
-0.509102
3.41392
-0.811303
0.806227
-0.807276
-0.222488
-0.599794
-0.696012
-0.283831
-0.7467
-0.423573
0.0501507
0.17542
0.107619
0.793092
0.14045
1.35811
0.152785
1.78111
0.156124
2.15183
0.152455
2.53332
0.148648
2.9648
0.144488
3.4674
0.143688
4.06549
0.14881
4.92762
0.216222
5.78796
0.296526
7.23437
0.306169
7.0843
0.245078
5.81207
-0.0182785
3.67728
-0.483141
1.27109
-0.7144
0.00877037
-0.661622
-0.74879
-0.3412
-1.06712
-0.764773
0.0546209
0.120799
0.134227
0.713486
0.184716
1.30763
0.208164
1.75767
0.219722
2.14027
0.224126
2.52891
0.230723
2.95821
0.240591
3.45754
0.264404
4.04168
0.314432
4.87759
0.511915
5.59047
0.867808
6.87848
1.18884
6.76327
1.51447
5.48643
1.37109
3.82066
0.766898
1.87528
0.272374
0.503294
-0.034799
-0.441617
-0.139417
-0.962503
-0.90419
0.0497415
0.0710578
0.15978
0.603448
0.237063
1.23034
0.275784
1.71895
0.297241
2.11881
0.310148
2.51601
0.326212
2.94214
0.351474
3.43227
0.404515
3.98864
0.516492
4.76561
0.850158
5.25681
1.51364
6.215
1.93495
6.34196
2.24063
5.18075
2.20177
3.85952
1.74785
2.32919
1.26949
0.981661
0.758704
0.069166
0.283191
-0.48699
-0.620999
0.037529
0.0335288
0.183923
0.457054
0.291917
1.12235
0.352847
1.65802
0.386334
2.08532
0.411277
2.49106
0.43598
2.91744
0.47463
3.39362
0.547412
3.91585
0.702122
4.6109
1.08755
4.87138
1.82879
5.47375
2.24661
5.92414
2.48957
4.93779
2.50121
3.84788
2.11022
2.72018
1.5421
1.54978
0.955503
0.655766
0.429116
0.039396
-0.191883
0.029059
0.00446984
0.205173
0.28094
0.356857
0.970665
0.443611
1.57126
0.489374
2.03956
0.524398
2.45604
0.554382
2.88745
0.59945
3.34856
0.670294
3.84501
0.815311
4.46588
1.09752
4.58918
1.76518
4.80608
2.15005
5.53928
2.3125
4.77534
2.28704
3.87334
2.02117
2.98605
1.52072
2.05023
0.973522
1.20297
0.406406
0.606512
0.214523
0.028757
-0.0242871
0.192176
0.11752
0.412837
0.750004
0.539239
1.44486
0.602448
1.97635
0.647632
2.41085
0.680757
2.85433
0.717942
3.31137
0.765773
3.79718
0.863807
4.36785
1.01684
4.43615
1.45946
4.36347
1.87854
5.12019
1.92527
4.72861
1.84063
3.95797
1.62247
3.20422
1.22647
2.44623
0.763013
1.66643
0.31702
1.05251
0.531543
0.0292301
-0.0535172
0.133392
0.0133583
0.371757
0.511639
0.528828
1.28779
0.597395
1.90778
0.623484
2.38477
0.633188
2.84463
0.629711
3.31485
0.61989
3.807
0.614932
4.37281
0.641038
4.41004
0.810061
4.19444
1.02826
4.90199
1.02051
4.73637
0.932135
4.04635
0.80126
3.33509
0.609559
2.63793
0.368321
1.90766
0.142684
1.27814
0.674227
0.0221467
-0.0756639
0.069545
-0.0340401
0.211635
0.369549
0.343223
1.1562
0.419745
1.83126
0.454461
2.35005
0.474449
2.82464
0.479484
3.30981
0.474906
3.81158
0.468157
4.37956
0.462501
4.4157
0.555964
4.10098
0.712911
4.74504
0.713081
4.7362
0.633183
4.12624
0.530151
3.43812
0.397485
2.7706
0.232595
2.07255
0.0790143
1.43172
0.753241
0.0193665
-0.0950304
0.0347731
-0.0494466
0.0830628
0.321259
0.168605
1.07066
0.239172
1.7607
0.286685
2.30254
0.321715
2.78961
0.34049
3.29104
0.349694
3.80237
0.34991
4.37934
0.331629
4.43398
0.3707
4.06191
0.472113
4.64363
0.474181
4.73413
0.417131
4.18329
0.333812
3.52144
0.234236
2.87017
0.118467
2.18832
0.0226333
1.52756
0.775874
0.00469998
-0.0997304
-0.0128024
-0.0319443
-0.0264603
0.334917
0.013708
1.03049
0.0708639
1.70354
0.128828
2.24457
0.179734
2.7387
0.219174
3.2516
0.245472
3.77608
0.249678
4.37513
0.230222
4.45344
0.241399
4.05073
0.300873
4.58415
0.296309
4.7387
0.251862
4.22774
0.189066
3.58424
0.119708
2.93953
0.0477849
2.26025
-0.0119474
1.58729
0.763927
-0.0156641
-0.0840663
-0.0608301
0.0132218
-0.104912
0.378999
-0.104824
1.0304
-0.0567107
1.65543
0.00533908
2.18252
0.0620063
2.68203
0.114921
3.19868
0.148313
3.74268
0.158725
4.36472
0.148661
4.4635
0.152055
4.04734
0.178839