/*--------------------------------*- C++ -*----------------------------------*\
| =========                 |                                                 |
| \\      /  F ield         | OpenFOAM: The Open Source CFD Toolbox           |
|  \\    /   O peration     | Version:  4.0                                   |
|   \\  /    A nd           | Web:      www.OpenFOAM.org                      |
|    \\/     M anipulation  |                                                 |
\*---------------------------------------------------------------------------*/
FoamFile
{
    version     2.0;
    format      ascii;
    class       volScalarField;
    location    "36";
    object      p;
}
// * * * * * * * * * * * * * * * * * * * * * * * * * * * * * * * * * * * * * //

dimensions      [0 2 -2 0 0 0 0];

internalField   nonuniform List<scalar> 
918
(
0.635732
1.28856
0.00540959
0.635062
0.0131479
1.2556
-0.421856
0.801257
0.615875
-0.0127153
0.0470012
0.610942
1.11618
0.881804
-1.04843
0.0865
0.752018
-0.301354
0.614888
0.0472473
0.836871
0.622462
0.625495
0.616083
0.678424
0.862829
0.996876
0.0187402
-0.00775301
-0.00330371
0.0558542
0.0437157
0.0484943
1.13925
1.19032
1.213
0.584214
0.409636
-0.282114
-0.351916
-0.344343
-0.468605
0.793145
0.795229
-0.0920743
0.802665
0.81224
0.60308
0.615236
0.616123
0.61722
0.616168
0.617564
0.491717
-0.0178168
-0.0505258
0.00733221
0.0188622
0.145585
0.0503693
0.0489057
0.049497
0.0547781
0.535198
0.606803
0.603996
0.61602
0.624294
1.22811
1.20004
1.22617
1.1398
1.15632
1.09418
1.06674
0.90293
0.924409
0.866229
0.854709
-1.48654
-2.44964
-0.452153
-0.197768
-0.0059701
0.0827344
0.0965124
0.743048
0.741691
0.753438
0.765638
1.16204
-0.296542
-0.41868
0.615011
0.613807
0.622204
0.622899
0.618912
0.618007
0.0532806
0.0581932
0.0289533
0.0439609
0.0431918
0.826183
0.824516
0.616625
0.613645
0.631596
0.652345
0.644225
0.367473
0.682413
0.694727
0.684305
0.85185
0.846659
0.855295
0.970453
0.933179
1.03416
1.05749
-0.00402858
-0.00390029
0.0660146
0.0611684
0.0750111
0.580161
0.572921
0.599048
0.58757
0.589988
0.325327
0.190352
0.495218
0.520419
-0.193215
-0.254973
-0.355515
-0.375022
-0.489915
0.684878
0.783708
0.783312
-0.112452
-0.0343897
-0.168327
0.0385616
-0.0212898
0.593495
0.600401
0.595459
0.610838
0.605343
0.60729
0.619465
0.616539
0.618101
0.555167
0.679359
0.417952
0.383501
-0.161819
-0.0700617
-0.16403
0.0308336
0.0357387
0.158423
0.186184
0.136008
0.12333
0.0421647
0.0491898
0.0463402
0.0614381
0.0603489
0.528391
0.517869
0.54746
0.554758
0.597145
0.598249
0.601452
0.600012
1.01761
1.03997
1.04742
1.02122
-3.45151
-6.25576
0.131813
0.271076
-0.0126271
0.00336225
-0.0103944
0.0472363
0.0117682
0.00905599
0.097754
0.0966223
0.0944158
0.097124
0.727764
0.726996
1.07984
1.07879
1.06261
1.01155
0.603078
0.605203
0.610779
0.606617
0.0597111
0.0597901
0.0633321
0.812655
0.820157
0.819118
0.330771
0.244584
0.416252
0.443777
0.714148
0.698923
0.711714
0.745924
0.781561
1.06492
1.08309
1.08142
1.08975
1.13382
1.15026
1.11551
0.560319
0.569895
0.56506
0.602239
0.599941
0.600881
0.5964
0.597858
0.595645
0.0382362
-0.345458
0.573397
0.590621
0.569207
0.576374
0.763772
0.838855
0.765654
0.775177
0.773919
0.104069
0.0474855
0.342003
0.307753
0.470658
0.50551
0.48543
0.988697
0.949221
0.999186
0.972729
0.934062
0.960087
-0.297089
-1.81136
-0.92203
0.626342
0.437554
0.526074
0.110293
0.0997725
0.105768
1.07337
1.15229
0.735893
0.902556
0.911889
0.820387
0.851734
0.906083
0.830299
0.865913
0.902124
0.884356
0.641085
0.586496
0.596453
0.907787
0.963159
0.218566
0.164017
0.119666
0.205525
0.259557
0.233764
1.11678
1.01935
1.09081
0.613394
0.61409
0.00876495
0.0397556
0.618227
0.618276
0.0481999
0.0781774
0.508662
-0.758387
0.207657
0.606711
0.596951
0.613886
0.00590814
0.449088
0.0465656
0.146485
0.100184
0.608576
0.545519
0.506473
0.0629017
0.0685388
0.0527049
-0.123975
0.611067
0.609377
0.613346
0.614329
0.614988
0.0538257
0.0317163
0.0215476
0.0509653
0.0475613
0.0456703
0.578598
0.595848
-0.0779319
0.613468
0.615595
0.615408
0.608573
0.614271
0.612471
0.0745664
0.0798564
0.0673645
0.31521
0.436644
0.755762
0.850653
0.721802
0.49472
0.255654
0.655349
0.721124
0.623359
0.781845
0.776631
0.795571
0.271051
0.12382
0.279302
0.221007
0.604578
0.603223
0.595192
0.592297
0.608731
0.606839
0.611394
0.608352
0.611338
0.612744
0.0433227
0.0214153
0.00810227
-0.0547422
0.405328
0.666435
0.343419
0.374795
0.234809
0.0549636
0.0544588
0.0468809
0.044601
0.095458
0.0846854
0.140732
0.144961
0.12087
0.100304
0.0888089
0.0836809
0.0783865
0.602204
0.600656
0.606931
0.615621
0.554844
0.558625
0.524917
0.544615
0.530782
0.471476
0.50592
0.481552
0.0579369
0.0695865
0.042276
0.0742443
0.083631
0.069768
0.0664011
0.0577323
0.0590946
0.0583041
0.0634478
0.0637222
-0.0823914
-0.195067
1.06714
1.00357
0.209743
0.600257
0.60668
0.603464
0.60827
0.611384
0.612224
0.609983
0.606566
0.5964
0.598174
0.594611
0.595304
-0.0161027
-0.15311
0.0208914
-0.0473234
0.219457
0.707259
0.44926
0.389189
0.383638
0.60575
1.00741
0.80241
0.796243
0.818439
-0.262602
0.134272
-0.195548
0.423704
0.245342
0.754078
0.804508
0.826974
0.773916
0.725385
-0.0319766
0.628751
0.0316788
0.0774438
0.271174
0.161771
0.797219
0.759946
0.765731
0.783606
0.803002
0.765507
0.746064
0.741615
0.779226
0.782767
0.581836
0.348174
0.303205
0.263992
0.743112
0.622411
0.679677
0.591776
0.599512
0.602299
0.600876
0.583274
0.590611
0.586322
0.592128
0.595382
0.604482
0.604834
0.600232
0.602424
0.0420952
0.0410721
0.0587243
-0.0484683
-0.0374531
-0.09734
0.0202123
0.15968
0.122543
0.317988
0.424062
0.137084
0.02096
0.0501134
0.0837696
0.262908
0.287452
0.163937
0.254542
0.238984
0.225386
0.328911
0.33614
0.0719413
0.0633352
0.0638391
0.0625858
0.116809
0.184733
0.197056
0.0961685
0.0878159
0.0569854
0.0603728
0.0690517
0.0668861
0.0682207
0.105524
0.0283317
0.0735261
0.0951193
0.100166
0.0941408
0.0886423
0.595264
0.597228
0.59701
0.604834
0.621485
0.636915
0.596094
0.576599
0.567534
0.570515
0.54412
0.554042
0.550011
0.563112
0.583397
0.592253
0.590342
0.592899
0.576212
0.577605
0.564724
0.568592
0.544617
0.526362
0.514776
0.0598545
0.0621419
0.0782409
0.0446603
0.074208
0.0817547
0.100034
0.111641
0.0954834
0.0912368
0.0907637
0.0755807
0.0798406
0.0103728
0.0890988
-0.0983842
-0.130482
-0.199585
0.971186
1.09147
0.895401
0.671425
0.68488
0.923737
1.00957
0.633503
0.818151
0.841441
0.657498
0.923639
0.605085
0.604679
0.602274
0.601764
0.603002
0.0730609
0.174162
0.182794
0.237165
0.351462
0.464578
0.390135
0.267104
0.400146
0.404424
0.702594
0.717995
0.666773
0.689998
0.687702
0.515308
0.59378
0.64853
0.601041
0.647674
0.670262
0.630805
0.661428
0.606987
0.563038
0.561126
0.508886
0.529967
0.508056
0.48986
0.594721
0.572516
0.582782
0.573871
0.593219
0.618391
0.61425
0.643441
0.654448
0.577784
0.536939
0.546733
0.575511
0.536167
0.549798
0.565501
0.302478
0.201697
0.286184
-0.00556204
0.0753443
0.0601857
0.0131099
0.0585996
0.344514
-0.353702
-0.326474
-0.959216
0.568056
1.03805
0.75052
0.723107
0.798784
0.777582
0.780518
0.803503
0.810285
0.732662
0.751087
0.754356
0.711907
0.73516
0.758438
0.755871
0.602475
0.47619
0.46801
0.426967
0.301009
0.335134
0.537523
0.460117
0.386131
0.389104
0.551816
0.440149
0.506494
0.545162
0.476797
0.431896
0.636026
0.702236
0.692278
0.667193
0.583746
0.597374
0.622418
0.658396
0.685494
0.717683
0.591926
0.597727
0.599003
0.596463
0.5937
0.596614
0.596717
0.599231
0.600074
0.602988
0.601976
0.0512334
0.0629111
0.0515817
0.0433681
0.0679254
0.0632125
0.10895
0.0960771
0.0825675
0.0891222
0.0620133
0.0587837
0.0642964
0.0732236
0.182421
0.197114
0.183666
0.14357
0.330215
0.462497
0.532346
0.409175
0.302869
0.327914
0.350757
0.0775951
0.106907
0.0923205
0.132292
0.122953
0.0679812
0.0616904
0.064476
0.0694226
0.0820289
0.0640123
0.0721144
0.0808895
0.0698085
0.0623502
0.0601233
0.578701
0.57226
0.573403
0.567647
0.566662
0.580106
0.584473
0.586231
0.591565
0.593529
0.584135
0.589529
0.593074
0.096736
0.0779117
0.0733449
0.0821384
0.0824903
0.0837623
0.0813184
0.201973
0.128975
0.13468
0.089554
-0.0365243
0.0202342
0.564892
0.56226
0.559452
0.793933
0.644983
0.563872
0.659776
0.766174
0.351392
0.549629
0.383125
0.963208
0.85635
1.00209
0.619445
0.31614
0.470533
0.520967
0.330058
0.402393
0.407758
0.296871
0.328503
0.360303
0.460953
0.338925
0.313309
0.0717562
0.260105
0.376139
0.357272
0.484705
0.54708
0.336701
0.256154
0.211592
0.694617
0.713813
0.733598
0.70376
0.72826
0.653979
0.644087
0.662055
0.669931
0.665533
-0.687671
-0.395855
-1.33956
-0.654832
-0.205539
0.597386
0.560987
0.840134
0.727555
0.791807
0.777022
0.736534
0.702877
0.714738
0.747142
0.445028
0.556069
0.530153
0.53629
0.437685
0.370847
0.670986
0.665097
0.701067
0.725159
0.692709
0.7258
0.589673
0.589291
0.588981
0.585411
0.583765
0.585914
0.145848
0.116275
0.149427
0.13195
0.109354
0.0976565
0.0924687
0.0859193
0.0807468
0.0799125
0.0898781
0.0892272
0.242991
0.184958
0.107811
0.138784
0.0771793
0.0109678
-0.00754893
0.0930842
0.185804
0.175872
0.482036
0.732891
0.554264
0.722491
0.562369
0.617837
0.549627
0.541053
0.568835
0.454706
0.534788
0.29676
-0.205823
-0.114713
0.854834
0.873388
0.654694
0.468652
0.240011
0.429066
0.628638
0.564532
0.602968
0.671942
0.664121
0.0835151
0.150895
0.409404
0.637292
0.306757
0.298553
0.293455
0.467302
0.392279
)
;

boundaryField
{
    wall-4
    {
        type            zeroGradient;
    }
    velocity-inlet-5
    {
        type            zeroGradient;
    }
    velocity-inlet-6
    {
        type            zeroGradient;
    }
    pressure-outlet-7
    {
        type            fixedValue;
        value           uniform 0;
    }
    wall-8
    {
        type            zeroGradient;
    }
    frontAndBackPlanes
    {
        type            empty;
    }
}


// ************************************************************************* //
