/*--------------------------------*- C++ -*----------------------------------*\
| =========                 |                                                 |
| \\      /  F ield         | OpenFOAM: The Open Source CFD Toolbox           |
|  \\    /   O peration     | Version:  4.0                                   |
|   \\  /    A nd           | Web:      www.OpenFOAM.org                      |
|    \\/     M anipulation  |                                                 |
\*---------------------------------------------------------------------------*/
FoamFile
{
    version     2.0;
    format      ascii;
    class       volVectorField;
    location    "36";
    object      U;
}
// * * * * * * * * * * * * * * * * * * * * * * * * * * * * * * * * * * * * * //

dimensions      [0 1 -1 0 0 0 0];

internalField   nonuniform List<vector> 
918
(
(0.985164 -0.000499464 0)
(0.00501051 2.96625 0)
(-0.0213819 0.803301 0)
(0.979702 0.00214941 0)
(-0.0940298 1.77258 -4.17404e-20)
(-0.00704411 2.94879 -2.69344e-18)
(0.83066 1.17346 3.71295e-19)
(0.309884 0.142031 -1.77939e-20)
(0.999908 -0.000285116 0)
(0.0516366 0.828528 0)
(0.00387916 0.636096 0)
(0.734583 -0.0123298 0)
(0.0111379 2.93033 0)
(0.00234098 2.79517 0)
(-0.0176488 3.15678 7.07088e-19)
(-0.0162075 1.83195 -7.95276e-20)
(0.381927 0.0428739 1.17407e-18)
(0.190474 1.18262 2.37125e-19)
(0.962787 0.00501943 0)
(0.00129876 0.625756 0)
(0.0733829 0.188376 -8.38618e-19)
(1.00198 -0.0049821 0)
(1.00022 -0.00979519 0)
(0.975721 -0.00644383 0)
(0.585668 -0.0367116 0)
(0.0162952 2.63812 0)
(-0.0149519 2.91007 1.00628e-18)
(-0.0157008 0.830003 0)
(-0.0553751 1.00271 0)
(-0.0156125 0.808328 0)
(-0.133441 2.57 0)
(-0.101145 1.92168 3.31422e-20)
(-0.0507359 1.72151 0)
(-0.020602 2.9876 -9.74936e-23)
(-0.0166894 3.00529 2.09327e-18)
(0.00210193 3.00018 0)
(0.870602 -0.00944715 0)
(0.403148 0.936454 2.29293e-19)
(0.811091 1.19004 -3.57304e-19)
(0.95847 1.02861 4.28981e-19)
(0.681001 1.28332 -8.51013e-20)
(0.679843 1.2683 5.00194e-19)
(0.351698 0.227916 1.73595e-20)
(0.325192 0.112383 0)
(1.13351 0.5524 0)
(0.31723 0.223387 7.93204e-20)
(0.280065 0.150676 -8.23126e-20)
(0.919721 -0.00745945 0)
(1.00027 0.000141298 0)
(0.999909 0.000328919 0)
(1.00363 -0.00777637 0)
(1.00096 -0.000931697 0)
(1.00017 2.84774e-05 0)
(0.0806375 1.80416 -9.41832e-19)
(0.0331839 1.00001 0)
(0.0868414 0.895489 0)
(0.013637 0.954883 0)
(0.0361628 0.767087 0)
(0.0230646 2.00036 0)
(0.0117844 0.812858 0)
(0.0241154 0.654168 0)
(-0.00376818 0.80549 0)
(-0.00767944 0.633491 0)
(0.83712 -0.0156049 0)
(0.849514 0.0280007 0)
(0.767996 -0.00235356 0)
(0.821765 0.0372682 0)
(0.702977 -0.0177791 0)
(0.0146894 3.00041 1.0016e-18)
(0.0115004 3.00804 0)
(0.00611088 3.00277 0)
(0.0135516 2.99737 1.14134e-23)
(0.00796637 2.95846 -1.48862e-18)
(0.0144984 2.98201 0)
(0.0108642 2.90357 0)
(0.0244149 2.93051 2.35064e-24)
(0.00452466 2.82529 0)
(0.0311108 2.9163 0)
(-0.00525684 2.74514 0)
(0.308606 3.55381 0)
(-0.131868 3.63538 0)
(0.13965 3.24726 -6.58027e-19)
(-0.0126574 2.9826 0)
(-0.0960897 2.27933 0)
(-0.0219921 2.09498 7.84317e-20)
(0.0102461 1.87703 -8.72056e-20)
(0.472766 0.145631 -4.06272e-19)
(0.379522 0.0239169 -3.92039e-19)
(0.457637 0.168243 -1.22347e-18)
(0.36704 0.0627814 -8.06422e-19)
(0.219041 0.94713 0)
(0.27278 1.32345 -3.07083e-19)
(0.376549 1.26813 5.18833e-19)
(0.987496 0.00856635 0)
(0.941944 0.00588271 0)
(1.0003 0.000578429 0)
(1.00286 0.0093053 0)
(1.00302 0.00846267 -3.14366e-18)
(0.991915 0.00969521 2.37403e-18)
(-0.00229655 0.789932 0)
(-0.00875097 0.634023 0)
(0.0196742 0.857286 0)
(-0.0208234 0.792061 0)
(0.000270416 0.628744 0)
(0.115557 0.194573 2.59254e-19)
(0.171887 0.172063 0)
(0.993536 -0.00838231 0)
(0.954405 -0.00652257 0)
(0.773399 0.0456931 0)
(0.710016 0.0561332 0)
(0.661922 -0.0301038 0)
(0.955478 -0.0106976 0)
(0.625961 0.07212 0)
(0.45282 -0.0165321 1.71878e-18)
(-0.0365388 2.8635 7.88885e-19)
(0.0416588 2.90952 0)
(0.0547688 2.88495 0)
(-0.00457408 2.69926 0)
(-0.0130525 2.9852 9.5924e-19)
(-0.0180066 2.89518 0)
(-0.0154135 2.98806 -2.96099e-18)
(-0.0132972 2.9252 1.01181e-18)
(0.0323014 1.22357 0)
(-0.0171663 1.31687 0)
(-0.0280368 2.05643 -1.99332e-21)
(-0.0668012 1.97619 0)
(-0.0366484 1.79188 0)
(0.93782 -0.00771833 0)
(0.856143 -0.00937095 0)
(0.863499 0.00648819 0)
(0.949079 -0.00797367 0)
(0.883555 -0.00819534 0)
(0.515356 1.13038 -2.86997e-19)
(0.564938 1.18235 0)
(0.367024 0.880192 4.05002e-20)
(0.30936 0.739458 0)
(0.917807 1.06681 -1.12909e-19)
(1.0282 0.868423 2.20595e-19)
(0.371305 1.37501 0)
(0.534313 1.34533 0)
(0.545564 1.29843 0)
(0.113252 0.181945 -3.35844e-19)
(0.385849 0.214953 0)
(0.351781 0.106046 2.27412e-19)
(0.998607 0.923426 0)
(1.06268 0.771472 0)
(1.08772 0.712254 -1.4784e-19)
(1.11372 0.613255 0)
(1.15796 0.396947 5.44179e-20)
(0.957439 -0.00883064 0)
(0.962334 -0.0101327 0)
(0.901428 -0.00796705 0)
(0.984164 -0.00918073 0)
(0.974626 -0.00941218 0)
(0.937036 -0.00636641 0)
(1.00018 0.00233859 0)
(1.00091 0.00139103 0)
(0.999913 0.000854329 0)
(0.0335518 2.06046 5.14925e-19)
(0.121327 1.74581 0)
(0.0124464 2.17535 8.28905e-19)
(0.0567047 1.86204 -7.16321e-19)
(0.105055 1.18735 -1.9261e-19)
(0.0461779 1.07433 0)
(0.141321 1.04223 0)
(0.0104534 0.906523 0)
(0.0184283 0.727948 0)
(-0.0055666 2.21776 -2.11322e-21)
(0.0301958 1.98805 0)
(-0.00627247 2.19504 -1.12946e-19)
(0.0289539 1.99898 2.14185e-19)
(0.00873183 0.868855 0)
(0.0138796 0.838213 0)
(0.0229592 0.690878 0)
(-0.00240755 0.805757 0)
(-0.0135528 0.62944 0)
(0.934787 0.00885698 0)
(0.84398 -0.0147152 0)
(0.925129 -0.000440788 0)
(0.839556 -0.0126542 0)
(0.812455 0.00190074 0)
(0.902237 0.0194975 0)
(0.879219 0.0237052 0)
(0.789283 2.60153e-05 0)
(0.00562527 3.0647 -9.47234e-21)
(0.0165695 3.05786 0)
(0.0146293 2.96906 0)
(0.00857199 2.87625 0)
(0.925597 3.97051 0)
(1.24023 3.30262 9.17054e-19)
(0.0700352 3.07485 0)
(-0.0284218 2.90604 0)
(0.0936482 1.48045 0)
(0.0194863 1.96085 0)
(-0.0270928 1.77865 0)
(-0.0940045 2.52052 3.81692e-20)
(-0.0826824 2.40794 0)
(-0.136149 2.49042 0)
(0.0238591 1.96762 1.38533e-21)
(-0.0162852 2.12895 8.49043e-20)
(-0.0206934 2.11192 8.88141e-20)
(0.0231271 1.92871 0)
(0.498483 0.120466 6.09755e-19)
(0.396842 0.00436501 -5.99077e-19)
(0.260762 1.57146 0)
(0.26749 0.723057 -3.37584e-19)
(0.177504 1.65622 -1.13907e-18)
(0.226955 1.19059 1.142e-18)
(0.902275 0.00654857 0)
(0.967527 0.0110024 0)
(0.97462 0.0107665 0)
(0.92346 0.00651456 0)
(-0.0148458 0.813054 0)
(-0.00481046 0.803104 0)
(-0.00797706 0.634508 0)
(0.272037 0.22066 7.3065e-19)
(0.224752 0.205184 -8.64281e-19)
(0.235525 0.164116 0)
(1.07669 0.0806087 3.64469e-20)
(1.05809 0.0356484 0)
(0.998973 0.0370634 0)
(0.896796 -0.00854699 0)
(0.524149 0.0961932 0)
(0.559366 0.0764745 -2.74966e-18)
(0.418448 -0.00269458 1.0309e-18)
(0.00911332 2.98086 8.28136e-19)
(-0.0331199 2.86572 4.60798e-20)
(0.00369822 3.05023 -1.99619e-20)
(0.020136 3.0434 7.08966e-19)
(-0.0149945 2.99656 3.3135e-20)
(-0.0129826 2.94947 -1.33123e-22)
(-0.0172807 3.01194 -6.09535e-19)
(0.0148909 3.02375 4.41246e-19)
(0.00738813 3.03686 -7.0202e-19)
(0.932351 -0.00190504 0)
(0.938391 -0.00389346 0)
(0.843988 -0.00886134 0)
(0.956763 0.0116707 0)
(0.943142 0.0128693 0)
(0.881844 0.00617826 0)
(0.918394 0.0160601 0)
(0.926737 0.0145727 0)
(0.838834 0.00420763 0)
(0.719109 1.40986 -2.17234e-20)
(0.752902 1.51933 0)
(0.189296 0.327379 8.2373e-20)
(0.216652 0.65489 6.64485e-19)
(0.258738 0.716822 -3.84368e-19)
(0.265769 0.534972 7.66265e-19)
(0.331467 0.783636 1.75344e-18)
(0.130951 0.220292 4.02864e-19)
(0.432274 0.189493 8.55499e-19)
(0.410177 0.206013 2.22309e-19)
(0.363255 0.0876266 4.24653e-19)
(1.14787 0.455435 -3.33238e-20)
(1.15951 0.249953 -4.24933e-20)
(0.00252086 2.21811 3.37188e-19)
(0.0532784 1.92308 0)
(0.962594 0.0273907 0)
(0.938011 0.0126982 0)
(0.861179 -0.0185874 0)
(0.0112956 3.07455 0)
(0.0198095 2.94404 1.31571e-18)
(0.0164556 2.95642 0)
(0.00623397 2.85065 -1.30541e-18)
(0.00615748 3.09098 3.20949e-19)
(0.00719901 3.08236 0)
(0.786047 1.8224 -1.43633e-19)
(1.24788 2.5014 3.56224e-19)
(0.768315 1.96245 -1.18884e-18)
(0.0203596 2.98215 -7.28529e-19)
(0.0359078 3.00249 0)
(-0.0335358 2.87928 0)
(-0.00797079 2.17531 -7.27865e-21)
(-0.0105292 2.15212 -1.77205e-19)
(0.0235242 1.98878 -4.58896e-21)
(0.274378 1.37783 1.09983e-18)
(0.223194 0.508859 -7.53935e-19)
(0.062477 1.98527 8.55403e-19)
(0.137301 1.87466 -1.0046e-18)
(0.179508 1.48499 9.09315e-20)
(0.00195059 3.11913 -2.02277e-18)
(0.0140059 3.11874 2.18389e-18)
(-0.00885608 2.98123 8.91596e-19)
(-0.00389008 2.97764 -8.51303e-19)
(-0.0211197 2.88129 -9.0807e-19)
(0.00865565 3.10024 -2.39581e-18)
(0.00235185 3.10519 2.357e-18)
(0.27298 0.680258 0)
(0.235365 0.669344 -1.37159e-18)
(0.0967927 0.221626 6.06837e-19)
(0.346824 0.908766 1.19738e-18)
(0.186005 0.263998 -1.84777e-18)
(1.1559 0.169017 1.03604e-19)
(1.16157 0.304306 0)
(1.14229 0.117656 -5.31374e-20)
(-0.00206988 2.22847 -2.79879e-21)
(-0.00119146 2.22952 0)
(0.0358808 1.96256 0)
(0.338312 1.28635 -3.9652e-19)
(0.365495 1.11884 -8.55004e-19)
(0.199331 0.35993 1.52712e-18)
(1.00587 -0.0108711 0)
(1.00766 -0.00765501 5.80719e-19)
(0.0527273 1.2297 0)
(0.0100739 1.10975 0)
(1.00222 0.00350209 1.8051e-21)
(1.00365 0.00943035 1.18432e-18)
(-0.0849601 2.53003 -4.8699e-20)
(-0.065202 2.54584 0)
(0.0361551 3.17933 5.05482e-19)
(0.395872 3.49257 0)
(1.14048 0.652728 -1.04105e-19)
(1.01291 0.013072 -2.13132e-21)
(1.02122 -0.0104224 0)
(1.00168 9.50964e-05 6.53848e-23)
(0.0981989 1.35283 0)
(0.148977 2.58196 0)
(0.0167388 1.30256 0)
(-0.000998894 2.63074 1.15274e-19)
(-0.0252283 2.58277 8.53937e-20)
(1.0027 0.0273997 2.47334e-21)
(1.06145 0.00333043 0)
(1.09438 0.0222516 0)
(-0.00956252 1.90549 0)
(-0.0320736 2.57417 0)
(0.0358044 1.24911 0)
(0.288528 1.46674 -9.04493e-20)
(1.01125 -0.00965842 0)
(1.00939 -0.0149371 0)
(1.00233 0.000687797 7.41537e-19)
(1.00547 -0.00484759 -8.72194e-19)
(1.00119 -0.000993133 0)
(0.0931965 1.60715 0)
(0.0842628 1.33547 0)
(0.054194 1.51067 0)
(0.0351562 1.22645 0)
(0.0284332 1.13884 0)
(-0.00118859 1.09079 0)
(1.0343 -0.00652768 0)
(1.02074 0.0157031 -9.2505e-22)
(0.796867 1.26405 1.81569e-19)
(1.00228 0.000245139 -7.41092e-19)
(1.00406 0.0052397 8.64737e-19)
(1.00118 0.00205806 0)
(1.01286 0.0102603 7.36553e-19)
(1.00803 0.00826989 -8.90589e-19)
(1.0086 0.0146653 0)
(-0.0441454 2.59202 0)
(-0.0556523 2.56117 8.384e-20)
(-0.046264 2.57688 -5.85454e-20)
(1.2189 0.253024 7.88259e-19)
(1.1537 0.0792512 0)
(0.0448532 3.07735 -1.06475e-18)
(0.0658197 2.85338 -7.69156e-20)
(0.142278 3.19355 1.60781e-18)
(0.136917 3.22251 -2.6231e-19)
(0.135448 3.23523 0)
(0.0204799 3.13786 2.79622e-19)
(0.077068 3.16049 1.05213e-18)
(0.0695518 3.18686 -5.25723e-19)
(0.0234272 3.12926 0)
(0.653022 0.301128 0)
(0.575093 0.346524 0)
(1.11 0.685504 2.75799e-19)
(1.10587 0.813997 -3.0508e-19)
(1.16886 0.572172 0)
(1.19867 0.511277 0)
(1.01617 0.0132933 -1.37424e-18)
(1.015 0.0142632 1.72519e-18)
(1.02515 -0.0100148 0)
(1.02318 -0.0120065 0)
(1.00648 0.00257288 0)
(1.01042 0.00367312 0)
(1.00462 0.00182296 0)
(1.00986 0.00615417 0)
(1.0078 0.00598088 0)
(1.00452 0.00459572 0)
(0.0878089 1.3493 0)
(0.0802042 1.32395 0)
(0.118845 1.38562 0)
(0.128464 1.39905 0)
(0.14656 2.60607 0)
(0.187093 2.67175 -4.93651e-19)
(0.099877 2.66372 0)
(0.0885562 2.66652 2.68074e-19)
(0.038591 2.6877 -2.68221e-19)
(0.0363138 1.31417 0)
(0.0119554 1.23806 0)
(0.0341622 1.32368 0)
(0.0377326 1.26695 0)
(-0.00409782 1.98938 -7.31769e-20)
(-0.0265833 2.61081 7.67841e-20)
(-0.013798 2.67348 1.20433e-19)
(-0.0216142 2.68427 0)
(-0.0301426 2.61463 -2.02643e-19)
(-0.0281691 2.60694 -1.25459e-19)
(0.00627562 1.98932 5.61715e-20)
(-0.0178533 2.41353 -1.0299e-19)
(-0.0202468 2.431 -1.36556e-19)
(1.01153 0.0355854 1.39582e-18)
(1.00799 0.0167112 -1.72907e-18)
(1.00405 0.0417136 -1.4003e-18)
(0.982672 0.0217644 1.77994e-18)
(1.06256 0.00706607 0)
(1.04802 -0.00904605 0)
(1.09103 0.0327215 0)
(1.07224 0.0112282 0)
(1.06987 -0.00146158 0)
(1.13575 0.0757057 0)
(1.10748 0.0406265 0)
(1.10996 0.0284422 0)
(-0.10208 2.46533 -1.10902e-20)
(0.00967149 2.16513 0)
(-0.0673165 2.33877 0)
(-0.0371287 2.59312 4.36576e-20)
(-0.0302882 2.60294 -2.00609e-21)
(0.0477035 1.68867 7.808e-20)
(0.0447578 1.60974 -7.93442e-20)
(0.0499524 1.41155 0)
(0.0494118 1.41931 0)
(0.059585 1.42229 0)
(0.0407339 1.27398 0)
(0.0240995 1.15569 0)
(0.378231 1.48154 1.21562e-19)
(0.416646 1.48721 9.4782e-20)
(0.59673 2.45031 -2.57142e-19)
(0.403456 2.54572 7.67322e-19)
(0.354959 2.06918 9.97385e-20)
(1.02094 -0.00825297 0)
(1.01544 -0.00982157 0)
(1.01487 -0.0155479 0)
(1.00747 -0.00121649 0)
(1.0049 -0.000973807 0)
(1.00776 -0.00477504 0)
(1.00924 -0.00374453 0)
(1.01414 -0.00453281 0)
(1.02143 0.0159619 1.34698e-18)
(1.01813 0.0157561 -1.72699e-18)
(1.02191 0.0179186 -1.35634e-18)
(1.01977 0.016557 1.70178e-18)
(0.764424 1.31219 0)
(0.699624 1.36557 1.45318e-19)
(0.872601 1.2094 1.54967e-20)
(0.914932 1.16382 -2.06107e-20)
(1.15585 2.60816 4.60977e-19)
(0.809514 0.100545 6.75815e-19)
(1.15554 0.0978564 0)
(1.1988 0.180655 -6.33104e-19)
(1.18256 0.145243 -2.6771e-20)
(1.0047 0.141822 0)
(0.137627 2.96192 6.44958e-19)
(0.114638 2.86763 -1.34107e-18)
(0.0258087 2.37071 9.04306e-19)
(0.0924599 -0.00474525 -4.08383e-19)
(0.340588 3.42142 -1.57509e-19)
(0.1946 3.31396 0)
(0.237506 3.35625 2.0513e-19)
(0.246529 3.03508 -2.06507e-18)
(0.341326 3.19433 0)
(0.00737009 3.1208 5.33e-20)
(0.016889 3.12979 -6.22492e-19)
(0.0155476 3.12581 9.16211e-19)
(0.0363103 3.13979 0)
(0.0347454 3.15083 0)
(1.21488 2.60803 0)
(0.532374 0.8402 -5.95513e-19)
(1.03516 0.988728 6.15088e-20)
(0.971873 1.06367 0)
(0.819651 0.964328 -1.54736e-19)
(1.05818 0.877692 2.93316e-20)
(0.369384 0.405122 -1.04807e-18)
(0.699069 0.323778 -2.26201e-20)
(0.668643 0.242363 4.81984e-19)
(0.591353 0.37996 3.55221e-20)
(0.508614 0.355491 -1.42962e-18)
(0.667884 0.342066 0)
(0.702757 0.427343 8.18592e-19)
(0.710137 0.424022 0)
(0.626676 0.369604 0)
(0.602767 0.29569 0)
(0.79369 0.616247 4.99537e-19)
(1.216 0.276139 -6.66374e-19)
(1.20974 0.41568 0)
(1.2216 0.358335 0)
(0.750983 0.190071 7.18304e-19)
(0.839927 0.535902 -4.49531e-19)
(0.742506 0.510674 7.9908e-19)
(0.943056 0.422655 -8.92959e-19)
(1.01982 0.0145909 9.26197e-19)
(1.0179 0.0141832 -9.31081e-19)
(1.01595 0.015586 0)
(1.03578 -0.00615009 0)
(1.0295 -0.00865485 -8.7568e-19)
(1.02747 -0.0121858 8.67185e-19)
(1.02514 0.00957696 0)
(1.0237 0.0132345 0)
(1.01141 0.00402572 0)
(1.0143 0.00894689 0)
(1.0151 0.00392686 0)
(1.0142 0.00272925 0)
(0.0586326 1.33266 0)
(0.0621243 1.29418 0)
(0.145533 1.35597 -8.43177e-20)
(0.266244 1.46387 4.06268e-20)
(0.157564 1.43455 8.00641e-20)
(0.187728 1.44295 -1.33602e-19)
(0.160129 1.38066 0)
(0.12988 1.58954 -1.63972e-19)
(0.115543 1.55982 0)
(0.354589 2.02286 -1.44979e-19)
(0.348635 2.35554 7.21625e-19)
(0.185844 1.44311 1.42955e-19)
(0.260934 1.3769 -1.75804e-20)
(0.19895 1.36153 1.427e-20)
(0.27304 1.31793 -1.98384e-19)
(0.242395 1.57415 0)
(0.26138 1.6156 1.86024e-19)
(0.0317358 2.27499 -6.87961e-20)
(0.0411525 2.67835 0)
(0.0644064 2.41244 2.23999e-19)
(0.0577279 2.43434 0)
(0.0699941 2.67949 -2.96515e-19)
(0.0500575 2.7069 0)
(0.0240858 1.40619 -6.76353e-20)
(0.0328175 1.45786 0)
(0.0327566 1.37453 0)
(0.0230754 1.37894 7.63149e-20)
(-0.0034436 2.65978 -1.99071e-20)
(0.027652 2.70565 3.1457e-19)
(0.00872511 2.72819 2.23122e-21)
(-0.00653322 1.83768 7.31575e-20)
(-0.0151085 1.67947 3.29429e-20)
(0.00900304 1.29309 0)
(0.00439898 1.20724 0)
(0.0457816 1.56506 9.91627e-20)
(0.0284666 1.43976 9.40618e-20)
(0.0348181 1.50603 -1.18167e-19)
(0.038053 1.58991 0)
(-0.042448 2.28642 -1.15101e-19)
(-0.0516252 2.54806 5.12209e-20)
(-0.0203145 2.45222 -2.49452e-20)
(-0.0213059 1.85291 -8.85831e-20)
(-0.0358033 2.49963 -3.28719e-20)
(-0.0291083 2.44577 1.44776e-19)
(1.01994 0.0206535 -9.21818e-19)
(1.01621 0.0259319 9.24525e-19)
(1.01526 0.0162378 0)
(1.01181 0.0660133 1.29756e-18)
(0.992398 0.0556392 -1.44832e-18)
(0.954232 0.042688 1.61716e-18)
(1.01546 0.102056 -1.73495e-19)
(1.04195 -0.00621189 0)
(1.05005 -0.00201833 8.39645e-19)
(1.0383 -0.0101578 -8.40476e-19)
(1.0698 0.0402865 -5.02817e-20)
(1.06337 0.0220024 4.32501e-19)
(1.06432 0.0525858 0)
(1.05159 0.0475585 -1.54942e-19)
(1.03329 0.0395857 0)
(1.02621 0.0359067 0)
(1.02777 0.0126265 0)
(1.02442 0.0154904 0)
(1.03945 0.0301919 3.18688e-19)
(1.03943 0.0255702 -7.01784e-19)
(1.05021 0.0321221 -3.38706e-19)
(1.04731 0.0323247 -3.72364e-19)
(1.06804 0.0607991 7.33091e-19)
(1.09342 0.0482013 0)
(1.10118 0.090531 0)
(-0.0529924 2.2798 -6.59057e-20)
(-0.00941217 2.12078 -1.07639e-20)
(-0.00311412 2.08124 0)
(-0.0477509 2.46151 6.62904e-20)
(-0.0447921 2.44033 2.13844e-20)
(-0.0694872 2.46069 -2.37017e-20)
(-0.0292921 2.61761 1.08853e-19)
(-0.0420205 2.55751 -8.52572e-21)
(-0.0313712 2.51523 3.42036e-20)
(-0.0268479 2.60954 -5.67255e-20)
(-0.0301313 2.61135 6.98732e-20)
(0.0614376 1.56309 8.34428e-22)
(0.0272661 1.70679 9.17311e-20)
(0.367508 1.42133 -3.46024e-20)
(0.365693 1.36546 1.33289e-19)
(0.646552 1.41187 -1.4053e-19)
(0.514262 1.4762 -9.18961e-20)
(0.566766 1.44902 0)
(0.592192 2.42593 2.30684e-19)
(0.658994 2.41766 3.62798e-19)
(0.41112 2.52049 8.32248e-20)
(0.405344 2.54809 -7.3247e-19)
(0.5138 2.49294 6.9206e-19)
(0.551811 2.46404 0)
(0.489061 2.51998 -6.10785e-19)
(0.249102 2.59633 1.31096e-18)
(0.353947 2.5697 -8.32615e-20)
(0.285082 2.65816 -1.7761e-18)
(0.942417 2.37829 8.24352e-19)
(0.8345 2.3824 0)
(1.01091 0.000378979 3.01528e-20)
(1.0152 -0.0055604 -2.44895e-20)
(1.01765 -0.00366882 -4.47644e-19)
(1.01491 -0.00100606 4.49705e-19)
(1.01229 0.00100628 0)
(0.634576 1.28133 0)
(0.652272 1.17637 0)
(0.754493 1.08379 0)
(0.643963 1.14263 0)
(1.18536 2.62261 5.92449e-20)
(1.07362 2.36653 0)
(0.837091 2.1883 4.95084e-21)
(0.825737 2.44858 0)
(0.921745 2.53901 -5.20753e-19)
(0.957129 2.4951 3.46688e-19)
(0.818134 0.151336 0)
(0.787258 0.128087 1.84542e-19)
(0.925295 0.135415 1.07606e-18)
(0.840403 0.130393 -4.02877e-19)
(0.819637 0.0728264 -1.23376e-18)
(1.0753 0.221805 -1.08436e-18)
(0.996201 0.279879 -1.52777e-20)
(0.920675 0.276223 1.00615e-18)
(1.00576 0.209323 8.46927e-19)
(0.952796 0.177109 -1.43808e-18)
(0.918363 0.177902 1.79474e-19)
(0.950762 0.237945 -3.88132e-19)
(0.929702 0.200237 0)
(0.995373 0.175358 7.11042e-19)
(1.04594 0.174587 0)
(1.04519 0.200961 0)
(1.1026 0.108308 3.45208e-19)
(1.0715 0.162723 -1.37467e-20)
(1.06926 0.223935 -1.87896e-19)
(1.09889 0.190378 0)
(1.02303 0.0437685 7.16542e-19)
(1.041 0.0560706 8.9574e-19)
(1.03363 0.0416564 -7.10371e-19)
(1.04142 0.0618874 -6.00381e-19)
(1.01745 0.0693135 -9.13112e-19)
(0.989698 0.148797 0)
(0.999153 0.098769 0)
(0.970037 0.0638927 -5.75406e-19)
(0.921903 0.0854798 2.25661e-19)
(1.03734 0.0976117 8.30365e-19)
(1.06783 0.111247 -9.93095e-19)
(1.07134 0.143323 8.85203e-19)
(1.03046 0.135262 0)
(1.07335 0.101942 0)
(1.05607 0.0842596 -4.03033e-19)
(1.04438 0.0909299 -6.80969e-19)
(0.577994 1.07695 1.86431e-19)
(0.611652 1.41416 -8.91854e-20)
(1.15595 2.74174 -2.92175e-19)
(1.22275 3.08258 1.50987e-20)
(1.2482 2.72243 -2.73408e-19)
(1.27837 2.70651 3.25205e-20)
(1.20628 2.34553 -1.00553e-20)
(1.20989 2.98627 -1.48576e-19)
(1.22922 2.95124 3.2153e-19)
(1.21382 3.23619 -1.20468e-19)
(1.375 2.96765 1.66625e-19)
(1.36567 2.8857 0)
(0.538067 0.847997 -5.69732e-20)
(0.138711 1.25888 6.20233e-19)
(0.53097 0.462404 6.76012e-19)
(0.366686 0.213467 7.48522e-19)
(0.529884 0.388851 8.06936e-19)
(0.543314 0.48008 -1.31864e-18)
(0.545845 0.484588 1.07671e-18)
(0.497681 0.409926 -4.07533e-19)
(0.423156 0.345722 9.24314e-19)
(0.754219 0.248654 -4.11596e-19)
(0.717751 0.284163 0)
(0.707435 0.210991 9.80408e-21)
(0.727561 0.514603 4.31623e-19)
(0.698455 0.482588 -1.57187e-18)
(0.614498 0.475449 1.63105e-20)
(0.625176 0.458415 0)
(0.668338 0.733903 4.5791e-19)
(0.819353 0.771464 4.88526e-19)
(0.744864 0.853868 -5.69252e-19)
(0.860926 0.803616 -1.98185e-19)
(0.894296 0.847957 -5.3824e-20)
(0.902565 0.849292 5.51118e-20)
(0.833812 0.643146 -8.28566e-19)
(0.911432 0.69946 1.84066e-19)
(0.968392 0.714041 0)
(0.95916 0.69041 -2.56125e-19)
(1.02157 0.319379 2.62144e-19)
(1.13291 0.289338 3.81494e-19)
(1.06158 0.258587 4.43392e-19)
(1.00654 0.354683 -5.22632e-19)
(1.04548 0.421062 0)
(1.09748 0.405879 0)
(0.90852 0.349777 5.4764e-21)
(0.841128 0.283008 0)
(0.869785 0.275603 4.70211e-19)
(0.904045 0.282165 -5.46422e-21)
(0.934878 0.425704 2.49306e-18)
(0.890766 0.486788 6.44524e-19)
(0.895915 0.450611 -6.75561e-19)
(0.818153 0.433773 7.23789e-19)
(0.8007 0.430118 4.30034e-19)
(0.77114 0.417343 -4.22679e-19)
(1.02729 -0.00042652 7.46899e-19)
(1.01999 -0.000212704 0)
(1.01849 0.000736096 4.86418e-19)
(1.02163 -0.00199821 -1.1022e-18)
(1.02226 0.00408702 5.35418e-19)
(1.02042 0.0109971 -1.12146e-18)
(1.02138 0.0103943 0)
(1.02076 0.0106513 -2.3343e-19)
(1.016 0.0075689 5.8561e-19)
(1.01678 0.0102989 -2.92093e-19)
(1.01747 0.00964234 2.15219e-19)
(0.0305293 1.30916 0)
(0.0381666 1.34351 0)
(0.0414371 1.31026 0)
(0.0492677 1.27558 0)
(0.069304 1.36896 1.39956e-19)
(0.0773085 1.34164 -3.42712e-20)
(0.110594 1.49816 -6.34418e-20)
(0.0926342 1.34304 4.48431e-20)
(0.0324645 1.44241 -1.22426e-19)
(0.0365676 1.43391 9.47402e-20)
(0.0615196 1.35104 -5.36228e-21)
(0.054646 1.35199 -7.89903e-20)
(0.049963 1.33139 -1.19193e-20)
(0.040176 1.3529 -1.44948e-20)
(0.10828 2.38391 -2.47688e-19)
(0.0962311 2.42774 0)
(0.173729 2.05688 1.48573e-19)
(0.110874 1.70781 8.26126e-20)
(0.232826 2.04978 -1.19583e-19)
(0.20799 2.44501 0)
(0.267823 2.3961 -7.15361e-19)
(0.306984 2.39396 5.07116e-19)
(0.234512 2.00833 -3.34972e-19)
(0.155006 2.17274 2.10232e-19)
(0.146244 2.28999 0)
(0.0128348 1.88061 -1.34383e-19)
(-0.00767127 2.41081 -2.07682e-19)
(-0.000747962 2.16318 0)
(0.00897775 2.46952 -1.38472e-20)
(0.0206548 2.31618 7.80542e-20)
(0.0174224 1.3926 1.18575e-20)
(0.0119433 1.38065 -1.89517e-19)
(0.0117558 1.38573 4.90439e-20)
(0.0151333 1.38472 6.52215e-20)
(0.0223659 1.41044 0)
(0.0132245 1.36768 0)
(0.0315242 1.27606 7.77175e-20)
(0.0208485 1.36605 -2.62953e-20)
(0.0103203 1.3584 0)
(0.0268827 1.27467 5.04176e-20)
(0.0036943 1.17252 -1.05082e-19)
(1.03983 0.0108759 0)
(1.04618 0.00718692 -7.87794e-20)
(1.03864 0.0203184 -5.66128e-19)
(1.04778 0.0191195 0)
(1.05111 0.0193135 0)
(1.03653 0.0108624 -6.64122e-21)
(1.03101 0.0106167 9.07646e-19)
(1.03201 0.0157947 1.10143e-18)
(1.02601 0.019723 0)
(1.02328 0.0201812 0)
(1.03522 0.0239187 5.65128e-19)
(1.02635 0.0252801 0)
(1.02468 0.0253222 0)
(-0.0431428 2.02074 0)
(0.0148695 1.698 -2.00744e-21)
(-0.0194241 1.78913 1.32208e-20)
(0.0375031 1.36505 0)
(0.00233429 1.57481 5.32992e-20)
(0.0331404 1.48692 -3.43071e-20)
(0.0720089 1.42043 0)
(0.394473 1.67432 0)
(0.367673 1.295 -2.3603e-19)
(0.306978 1.34161 0)
(0.424519 1.29487 2.11697e-19)
(0.467044 1.4505 0)
(0.448324 1.39587 -6.62808e-20)
(1.03461 2.68625 -1.77348e-20)
(0.964169 2.40865 -1.03592e-18)
(0.913742 2.18779 1.19636e-18)
(0.847868 2.37426 2.68018e-19)
(0.846183 2.4973 0)
(0.916337 2.49325 0)
(0.925815 2.37158 0)
(0.903758 2.35838 -1.04261e-18)
(0.690669 2.46645 -4.79205e-19)
(0.801407 2.45707 -1.15816e-19)
(0.811964 2.43028 8.83707e-20)
(0.693867 2.39187 0)
(0.797685 2.3869 0)
(0.75666 2.39977 -3.96434e-19)
(0.769019 2.4879 0)
(0.611398 1.09865 0)
(0.481633 0.928326 -5.98449e-19)
(0.54864 0.963814 -3.79089e-20)
(0.518443 1.05524 0)
(0.518709 1.00501 8.98564e-19)
(0.768614 0.880396 -1.6675e-19)
(0.779058 1.01422 0)
(0.752586 0.972611 2.52686e-19)
(0.640279 1.03499 0)
(0.644429 0.944137 0)
(1.16396 2.76261 -2.9304e-19)
(1.14147 2.8264 -1.42993e-19)
(0.930952 2.34711 1.78624e-19)
(0.898889 2.32532 -1.08135e-19)
(1.12878 2.73496 0)
(1.0823 2.70496 1.30151e-19)
(1.08864 2.48636 -3.6924e-19)
(0.98304 2.23346 -3.03298e-20)
(0.496801 1.35683 0)
(0.509472 1.07531 -1.6444e-19)
(0.561728 1.1632 0)
(0.861016 0.214444 0)
(0.794603 0.167144 0)
(0.744312 0.13912 0)
(0.855726 0.219404 -7.40125e-19)
(0.770924 0.210104 4.32085e-19)
(0.936145 0.0724556 -4.66108e-19)
(0.950115 0.11768 0)
(0.928918 0.127075 1.99917e-19)
(0.870202 0.103605 8.00826e-19)
(0.845917 0.062238 -5.01301e-19)
(1.16145 3.36167 -6.74204e-19)
(1.20888 3.28101 0)
(1.16016 3.3896 -1.40472e-18)
(0.647942 3.55046 1.19065e-18)
(0.872648 3.11788 1.69703e-20)
(0.511942 0.854165 6.73218e-19)
(0.429648 0.847043 0)
(0.339887 0.497223 -1.68134e-19)
(0.447661 0.683356 9.65868e-19)
(0.534265 0.468641 -2.33781e-19)
(0.508573 0.520582 2.64511e-19)
(0.659956 0.53325 5.802e-19)
(0.688712 0.553025 0)
(0.640053 0.616499 0)
(0.598639 0.553774 0)
(0.971905 0.599433 1.39477e-19)
(0.892299 0.535874 -6.27281e-19)
(0.915994 0.569325 4.91033e-19)
(0.952475 0.504589 -4.87944e-19)
(1.05555 0.480342 0)
(1.06319 0.569779 -1.29128e-19)
(0.84194 0.385639 -9.83613e-19)
(0.845771 0.371243 -1.22101e-18)
(0.793833 0.381824 7.66522e-19)
(0.790706 0.350994 -7.79176e-19)
(0.840622 0.306738 -6.1089e-19)
(0.794013 0.306114 7.50581e-19)
(1.02672 0.00542942 -5.75115e-19)
(1.02646 0.00566723 1.17456e-18)
(1.02904 -0.000432946 7.25304e-19)
(1.03332 0.000573642 -8.73308e-19)
(1.03311 0.00807723 0)
(1.03004 0.00865875 -1.4205e-18)
(0.0627858 1.64286 4.53521e-20)
(0.0436914 1.56706 0)
(0.0866081 1.69404 3.02161e-19)
(0.0943491 1.67397 -2.71898e-19)
(0.0914312 1.51747 1.19072e-19)
(0.0864266 1.49681 0)
(0.00435211 1.69083 0)
(-0.00874894 1.4961 -2.75615e-20)
(-0.0060167 1.43519 2.48178e-20)
(0.00262222 1.56933 2.03417e-21)
(-0.0100736 1.8904 -4.9594e-20)
(-0.0308801 1.94463 2.66246e-20)
(0.496208 1.37363 -4.22422e-19)
(0.491398 1.37753 4.61322e-19)
(0.446676 1.29091 -1.38649e-19)
(0.436777 1.29396 1.5545e-20)
(0.626037 1.29566 0)
(0.544178 1.38273 -2.44126e-21)
(0.56099 1.39093 2.37665e-21)
(0.456497 1.2774 1.33631e-19)
(0.510804 1.23212 0)
(0.563451 1.19802 0)
(0.657791 2.42602 7.03916e-19)
(0.670722 2.46303 1.43124e-18)
(0.716435 2.47507 -9.85473e-19)
(0.615705 2.4517 -2.24959e-19)
(0.563049 2.54325 3.26034e-19)
(0.512092 2.51665 -8.61134e-19)
(0.975443 2.37764 -6.70878e-19)
(1.01171 2.39209 0)
(0.92112 2.16632 -7.70645e-19)
(1.05242 2.68399 0)
(1.05452 2.67058 0)
(0.612814 2.27797 -1.72949e-19)
(1.04175 3.16464 7.71964e-20)
(0.913053 3.03489 2.3038e-20)
(0.282401 0.918087 0)
(0.323924 0.780043 -3.51069e-19)
(0.481042 0.734393 -3.65338e-19)
(0.392264 2.02537 0)
(0.467973 2.78677 -1.18136e-20)
(0.424845 2.55092 0)
(0.682004 0.681157 -9.73174e-19)
(0.764415 0.680957 1.33803e-18)
(0.78437 0.623046 -1.32651e-18)
(0.664715 0.64335 -1.25178e-19)
(0.721644 0.597301 -5.20994e-19)
(1.00367 2.76834 -5.86967e-20)
(1.04056 2.825 -2.4911e-19)
(0.641278 2.15573 7.60716e-19)
(0.59644 1.71974 -5.36925e-19)
(0.699417 1.91035 -5.03068e-19)
(0.989255 2.45132 -1.23403e-19)
(0.993981 2.44574 3.8598e-19)
(0.661175 1.85151 3.4238e-20)
(0.450897 1.33716 1.8806e-19)
)
;

boundaryField
{
    wall-4
    {
        type            noSlip;
    }
    velocity-inlet-5
    {
        type            fixedValue;
        value           uniform (1 0 0);
    }
    velocity-inlet-6
    {
        type            fixedValue;
        value           uniform (0 3 0);
    }
    pressure-outlet-7
    {
        type            zeroGradient;
    }
    wall-8
    {
        type            noSlip;
    }
    frontAndBackPlanes
    {
        type            empty;
    }
}


// ************************************************************************* //
