/*--------------------------------*- C++ -*----------------------------------*\
| =========                 |                                                 |
| \\      /  F ield         | OpenFOAM: The Open Source CFD Toolbox           |
|  \\    /   O peration     | Version:  4.0                                   |
|   \\  /    A nd           | Web:      www.OpenFOAM.org                      |
|    \\/     M anipulation  |                                                 |
\*---------------------------------------------------------------------------*/
FoamFile
{
    version     2.0;
    format      ascii;
    class       volScalarField;
    location    "32";
    object      p;
}
// * * * * * * * * * * * * * * * * * * * * * * * * * * * * * * * * * * * * * //

dimensions      [0 2 -2 0 0 0 0];

internalField   nonuniform List<scalar> 
8800
(
1.51175
1.46396
1.42527
1.39626
1.37539
1.36054
1.34991
1.3424
1.33753
1.3354
1.33657
1.34069
1.34727
1.35653
1.36928
1.38699
1.41175
1.44567
1.48821
1.54691
1.34301
1.35069
1.35815
1.36146
1.35995
1.35485
1.34835
1.34224
1.33748
1.33457
1.3342
1.33661
1.34102
1.34691
1.35363
1.35988
1.36349
1.36274
1.35731
1.34861
1.32144
1.3276
1.33172
1.33465
1.33669
1.33728
1.33614
1.334
1.33192
1.33093
1.33179
1.33408
1.33681
1.33893
1.33949
1.33825
1.33588
1.33247
1.3279
1.32414
1.31567
1.31832
1.32106
1.32346
1.32508
1.32622
1.32693
1.32701
1.32665
1.3265
1.32714
1.32821
1.32896
1.32895
1.32828
1.32715
1.32529
1.3227
1.32028
1.31877
1.31034
1.31177
1.31354
1.31557
1.31734
1.31866
1.31962
1.32036
1.3209
1.32136
1.32188
1.32225
1.32224
1.32186
1.32109
1.31979
1.31804
1.31616
1.31483
1.314
1.30534
1.30626
1.3075
1.30907
1.31069
1.31219
1.31345
1.31446
1.31533
1.3161
1.31664
1.31681
1.31664
1.31608
1.31511
1.31382
1.31243
1.31112
1.31027
1.30972
1.30054
1.3012
1.30217
1.30347
1.30487
1.30632
1.30772
1.30899
1.31009
1.31105
1.31168
1.31186
1.3116
1.31094
1.31001
1.30895
1.30785
1.30686
1.30625
1.30584
1.29588
1.2964
1.29719
1.29833
1.2996
1.30096
1.30238
1.3038
1.30512
1.30629
1.30706
1.30729
1.30704
1.30645
1.30568
1.30481
1.30391
1.30314
1.30268
1.30237
1.29132
1.29173
1.29239
1.29342
1.29463
1.29595
1.29736
1.29885
1.30035
1.30174
1.3027
1.30306
1.30294
1.30253
1.30193
1.30122
1.30049
1.29989
1.29953
1.29928
1.28678
1.28711
1.28769
1.28864
1.28981
1.29112
1.29256
1.29412
1.29577
1.2974
1.29861
1.29919
1.2993
1.29907
1.29865
1.29811
1.29753
1.29706
1.29678
1.29658
1.2822
1.28247
1.28299
1.2839
1.28507
1.28641
1.28791
1.28959
1.29142
1.29332
1.29486
1.29575
1.29611
1.2961
1.29585
1.29547
1.29502
1.29466
1.29445
1.29428
1.27752
1.27773
1.27822
1.27913
1.28032
1.28172
1.28335
1.28521
1.2873
1.28954
1.29148
1.29273
1.29338
1.29359
1.29353
1.2933
1.29298
1.29272
1.29256
1.29242
1.27268
1.27285
1.27331
1.27424
1.2755
1.27701
1.27878
1.28086
1.28329
1.28599
1.28842
1.29009
1.29108
1.29158
1.29174
1.29167
1.29147
1.29129
1.29118
1.29107
1.26763
1.26776
1.26821
1.26917
1.27052
1.27216
1.27411
1.27646
1.27926
1.2825
1.28554
1.28777
1.28922
1.29007
1.2905
1.29063
1.29056
1.29048
1.29042
1.29033
1.26229
1.26238
1.26283
1.26386
1.26533
1.26716
1.26939
1.27213
1.27547
1.2794
1.2832
1.28607
1.288
1.28923
1.28996
1.29031
1.29041
1.29043
1.29041
1.29033
1.2566
1.25666
1.2571
1.25817
1.25978
1.26181
1.26434
1.26753
1.27151
1.2763
1.28102
1.28469
1.28729
1.28904
1.29015
1.29079
1.29111
1.29124
1.29128
1.29122
1.25032
1.25038
1.25082
1.25194
1.2537
1.256
1.25894
1.26271
1.26748
1.27332
1.2792
1.28387
1.28722
1.28957
1.2912
1.29225
1.29285
1.29314
1.29322
1.29316
1.2432
1.24323
1.24372
1.24491
1.24689
1.24955
1.25302
1.25757
1.26339
1.27057
1.27784
1.28366
1.28794
1.29102
1.29323
1.29472
1.29566
1.29613
1.29625
1.29618
1.23478
1.23481
1.23536
1.23671
1.23897
1.24209
1.24626
1.25176
1.25888
1.2677
1.27669
1.28395
1.28935
1.2933
1.29619
1.29822
1.29955
1.30019
1.30035
1.30027
1.22454
1.22457
1.22522
1.22683
1.22956
1.23338
1.23852
1.24534
1.25415
1.26505
1.2761
1.28502
1.29168
1.2966
1.30027
1.30287
1.30458
1.30539
1.30559
1.30549
1.21193
1.21197
1.21278
1.21479
1.21819
1.22299
1.22943
1.23796
1.24891
1.26235
1.27591
1.28681
1.29497
1.30104
1.30555
1.30878
1.31088
1.31188
1.31211
1.31199
1.19621
1.19626
1.19731
1.19992
1.2043
1.21046
1.2187
1.22951
1.24322
1.25981
1.27633
1.28953
1.2994
1.30674
1.31224
1.31619
1.31874
1.31991
1.32017
1.32003
1.17627
1.17634
1.17778
1.18128
1.18711
1.19519
1.20593
1.2198
1.23704
1.25747
1.27747
1.29329
1.30509
1.3139
1.32051
1.32528
1.32832
1.32967
1.32996
1.32979
1.15032
1.15044
1.15251
1.15747
1.16556
1.17654
1.19083
1.2088
1.23049
1.25551
1.2795
1.29827
1.31222
1.32265
1.33054
1.33625
1.33978
1.34131
1.34162
1.34142
1.11535
1.1156
1.11895
1.12658
1.13848
1.15395
1.17332
1.19669
1.22385
1.2542
1.28263
1.3046
1.32089
1.33313
1.34242
1.34913
1.35317
1.35487
1.35518
1.35494
1.06574
1.06687
1.07354
1.08659
1.10505
1.12744
1.15379
1.18398
1.21758
1.25387
1.28705
1.31241
1.33117
1.34534
1.35611
1.36385
1.36844
1.37029
1.37056
1.37027
0.992791
1.00034
1.01569
1.03877
1.06686
1.09839
1.13328
1.17132
1.21209
1.25489
1.2933
1.32245
1.34408
1.36052
1.3731
1.38216
1.38754
1.38974
1.39009
1.38987
0.914885
0.932287
0.957027
0.990499
1.02854
1.06932
1.11282
1.15893
1.20735
1.2575
1.30228
1.33635
1.3618
1.38124
1.39626
1.4073
1.41387
1.41643
1.41701
1.41697
0.850817
0.871081
0.903653
0.945671
0.992273
1.04167
1.09344
1.14744
1.20333
1.2606
1.3114
1.34997
1.37878
1.40079
1.41768
1.42993
1.43746
1.44079
1.44128
1.44133
0.7987
0.820751
0.858488
0.906536
0.959847
1.01635
1.07536
1.13656
1.19945
1.26342
1.3198
1.36237
1.39398
1.41798
1.43634
1.44983
1.45854
1.46189
1.4625
1.46261
0.755532
0.778669
0.819878
0.872669
0.931299
0.993622
1.05881
1.12635
1.19559
1.2657
1.32714
1.37322
1.4072
1.43287
1.4525
1.46688
1.4761
1.47991
1.48074
1.48089
0.718681
0.742456
0.786381
0.84283
0.905853
0.973088
1.04361
1.11675
1.1917
1.2674
1.33342
1.38257
1.41855
1.44554
1.46604
1.48103
1.49064
1.49487
1.49594
1.4961
0.686158
0.710373
0.756374
0.815905
0.882636
0.954119
1.02934
1.1075
1.18763
1.26848
1.3387
1.39062
1.42832
1.45637
1.47751
1.49293
1.50282
1.50735
1.50851
1.50866
0.65652
0.68114
0.728863
0.791008
0.860958
0.936163
1.01557
1.09828
1.1832
1.26886
1.34305
1.39757
1.43682
1.46576
1.48735
1.50306
1.51301
1.51767
1.51889
1.519
0.62889
0.653876
0.703165
0.76754
0.840319
0.918819
1.00198
1.08885
1.17822
1.26846
1.3465
1.40356
1.44433
1.47411
1.49613
1.51197
1.52198
1.52674
1.52803
1.52811
0.602547
0.627958
0.678661
0.745032
0.820346
0.901791
0.988342
1.07902
1.17256
1.26721
1.34908
1.40874
1.45109
1.48177
1.50425
1.52029
1.53033
1.535
1.53635
1.53646
0.577226
0.603071
0.654849
0.723196
0.800779
0.884879
0.974499
1.06867
1.16613
1.26505
1.35079
1.41319
1.45728
1.48899
1.51202
1.5283
1.53839
1.543
1.54426
1.54432
0.552562
0.578972
0.631796
0.70185
0.781461
0.867949
0.960354
1.05774
1.15886
1.26193
1.35161
1.41698
1.46302
1.49593
1.51964
1.53623
1.54639
1.55093
1.55204
1.55203
0.528478
0.555341
0.609302
0.680875
0.762316
0.850948
0.945865
1.04618
1.15073
1.2578
1.35153
1.42009
1.46834
1.50265
1.52717
1.54413
1.55433
1.55875
1.55974
1.55963
0.504897
0.532311
0.587246
0.660218
0.743313
0.833864
0.931032
1.03401
1.14171
1.25264
1.35044
1.42245
1.47323
1.5092
1.53466
1.55203
1.56221
1.56642
1.56725
1.56706
0.48173
0.509746
0.565621
0.639879
0.724448
0.816713
0.915889
1.02124
1.13184
1.2464
1.34826
1.42397
1.47766
1.51559
1.54215
1.55992
1.56999
1.5739
1.57453
1.57429
0.458991
0.48767
0.544461
0.619886
0.705776
0.799547
0.900494
1.00795
1.12114
1.23905
1.34492
1.42452
1.4815
1.52182
1.54972
1.56784
1.5776
1.58107
1.58149
1.5812
0.436852
0.466146
0.523808
0.600281
0.687344
0.782439
0.884919
0.994216
1.10969
1.23065
1.34034
1.42396
1.48461
1.52786
1.55751
1.57596
1.58505
1.58782
1.58799
1.58767
0.415345
0.445224
0.503695
0.581124
0.669216
0.765456
0.869261
0.980121
1.09757
1.22123
1.33448
1.42212
1.48675
1.53356
1.56569
1.58469
1.59265
1.59415
1.59392
1.59362
0.394413
0.424947
0.484165
0.562456
0.651462
0.748687
0.853612
0.965782
1.08489
1.21086
1.3273
1.41886
1.48765
1.53861
1.57426
1.59476
1.60138
1.60054
1.59925
1.59916
0.374231
0.405341
0.465278
0.544349
0.634147
0.732216
0.838072
0.951311
1.07177
1.19966
1.31884
1.41404
1.48699
1.54244
1.58279
1.6067
1.61332
1.60949
1.60543
1.60444
0.354712
0.386415
0.447017
0.526777
0.617236
0.715997
0.822582
0.936648
1.05814
1.18755
1.30895
1.40741
1.48444
1.5443
1.59011
1.61993
1.63027
1.62697
1.61653
1.5996
0.335929
0.368179
0.42926
0.509548
0.600438
0.699692
0.80672
0.921299
1.04346
1.17388
1.29695
1.39812
1.47932
1.54302
1.59361
1.63055
1.64561
1.63624
1.61922
1.60181
0.318056
0.350498
0.412194
0.492905
0.584053
0.683651
0.790714
0.905598
1.02803
1.15893
1.28301
1.38581
1.4711
1.53761
1.58816
1.6252
1.64343
1.62508
1.55456
1.52124
0.301744
0.332204
0.39615
0.477439
0.568796
0.668365
0.774862
0.889771
1.01209
1.14286
1.26711
1.37033
1.45872
1.52811
1.5697
1.59851
1.60046
1.55042
1.47877
1.43409
0.245677
0.316164
0.381416
0.462004
0.553216
0.652432
0.7591
0.873547
0.995283
1.12523
1.24873
1.35129
1.43884
1.51557
1.5198
1.53459
1.49892
1.43396
1.35672
1.31322
0.284322
0.300307
0.359942
0.440136
0.530583
0.62951
0.735153
0.848732
0.969156
1.09717
1.21788
1.31777
1.39671
1.47362
1.47066
1.36549
1.26195
1.19012
1.11633
1.15135
0.253124
0.282403
0.342884
0.422519
0.512988
0.611566
0.71736
0.830188
0.949379
1.07533
1.19286
1.28855
1.35986
1.40046
1.3561
1.21196
1.08349
0.991888
0.89117
0.945917
0.229062
0.261313
0.322997
0.402929
0.493466
0.591884
0.6975
0.809383
0.927029
1.0504
1.16402
1.25405
1.31564
1.32499
1.22172
1.04616
0.889623
0.767765
0.633452
0.670062
0.205555
0.239349
0.302216
0.382987
0.473695
0.571966
0.677016
0.787837
0.903764
1.02423
1.13318
1.21693
1.26361
1.24054
1.08336
0.881369
0.684143
0.505784
0.307169
0.297571
0.182761
0.216913
0.280657
0.36216
0.453074
0.551148
0.655522
0.765178
0.879155
0.996395
1.10015
1.17679
1.20625
1.1484
0.951876
0.733367
0.50549
0.303
0.044957
-0.277623
0.159707
0.193818
0.258057
0.340052
0.431186
0.529115
0.632889
0.741364
0.853314
0.96713
1.06553
1.13393
1.14597
1.03731
0.837759
0.619461
0.403337
0.220151
0.150311
0.0538049
0.135527
0.169619
0.234098
0.316333
0.407554
0.505253
0.608339
0.71547
0.825095
0.935015
1.02767
1.08637
1.07365
0.928626
0.736996
0.538486
0.367696
0.269172
0.245069
0.227258
0.109898
0.143995
0.208622
0.290932
0.382068
0.479378
0.581546
0.68704
0.793935
0.899348
0.985776
1.03244
0.999543
0.828166
0.645972
0.473522
0.34044
0.299197
0.28432
0.282472
0.0826143
0.116797
0.181579
0.263877
0.354799
0.451511
0.552524
0.656056
0.759791
0.86013
0.939605
0.973161
0.922959
0.734158
0.561744
0.407461
0.320398
0.305539
0.303794
0.303802
0.0536563
0.0880394
0.152965
0.235203
0.325767
0.4217
0.521309
0.622546
0.722695
0.817451
0.889021
0.91109
0.828105
0.64794
0.483239
0.354925
0.317773
0.314317
0.3142
0.314854
0.0233351
0.0579251
0.122922
0.205031
0.295101
0.390048
0.487986
0.586594
0.682711
0.771419
0.834636
0.841152
0.732988
0.567224
0.419002
0.333683
0.324124
0.322297
0.321488
0.321863
-0.00777179
0.0268822
0.0917379
0.173618
0.263032
0.356771
0.452773
0.548405
0.640079
0.722272
0.77745
0.766007
0.646738
0.495768
0.365515
0.345383
0.328424
0.325911
0.326802
0.327371
-0.0391996
-0.00460938
0.0599461
0.141389
0.229958
0.322257
0.416035
0.508358
0.595199
0.670583
0.717303
0.690811
0.561818
0.433712
0.329374
0.291475
0.314717
0.327711
0.331209
0.332116
-0.070117
-0.0357857
0.0283168
0.108999
0.196469
0.28707
0.378331
0.467047
0.548691
0.617132
0.654316
0.616144
0.474765
0.387352
0.316872
0.319788
0.31914
0.321664
0.325553
0.327847
-0.0989683
-0.0654972
-0.00226878
0.0773468
0.163405
0.252011
0.34047
0.425322
0.501501
0.56254
0.592612
0.536434
0.381767
0.320548
0.361384
0.306189
0.285955
0.280312
0.281675
0.284372
-0.12441
-0.0919368
-0.030686
0.0475928
0.131848
0.218137
0.303521
0.384307
0.455004
0.507976
0.534775
0.448747
0.270873
0.184534
0.253549
0.21852
0.199677
0.190429
0.188498
0.190078
-0.144486
-0.11384
-0.0548978
0.0211446
0.103114
0.186722
0.268831
0.345455
0.410855
0.455558
0.478155
0.363762
0.138964
-0.147168
-0.199732
-0.0620324
0.00678607
0.0268968
0.0386606
0.0475771
-0.157301
-0.129247
-0.0734059
-0.000278268
0.0787667
0.159293
0.237961
0.310569
0.371037
0.408559
0.423267
0.29491
0.0736088
-0.313341
-0.523939
-0.215006
-0.10842
-0.0854697
-0.0763373
-0.0724916
-0.160536
-0.136268
-0.0845036
-0.0150415
0.0605267
0.137518
0.2127
0.281714
0.337889
0.370113
0.372389
0.282749
0.237152
0.366824
0.36586
0.155295
-0.0623087
-0.0629512
-0.0578496
-0.056596
-0.15278
-0.132863
-0.086322
-0.0216895
0.049793
0.123005
0.19488
0.261138
0.314392
0.3437
0.340652
0.297756
0.383066
0.753124
0.905485
0.419061
0.0511126
0.0192758
0.0205029
0.00183935
-0.132188
-0.116492
-0.0774922
-0.0192077
0.0475151
0.116943
0.186049
0.250798
0.30396
0.332854
0.320365
0.190248
-0.144773
-0.777991
-1.40251
-1.79634
-1.582
-1.16534
-0.760469
-0.663261
-0.100187
-0.0894534
-0.0583843
-0.00778161
0.0538187
0.119668
0.187062
0.252107
0.309218
0.344668
0.334557
0.0993695
-0.577077
-1.49953
-2.1269
-2.40152
-2.27727
-1.94875
-1.59755
-1.36661
-0.0612216
-0.0548799
-0.0324256
0.010533
0.0670955
0.130343
0.197496
0.265962
0.33076
0.387244
0.406182
0.315795
0.0130323
-0.290926
-0.489759
-0.393139
-0.122686
0.168988
0.393868
0.508244
-0.0214772
-0.0179674
-0.00429272
0.0314502
0.08435
0.14645
0.215271
0.289693
0.367856
0.451475
0.539907
0.668676
0.869545
1.25365
1.73849
2.22682
2.61441
2.8513
2.96362
2.99676
0.0128465
0.0148805
0.0223763
0.0508108
0.10083
0.164191
0.23618
0.317229
0.409844
0.516491
0.652537
0.80493
1.12167
1.68987
2.34339
2.92538
3.35128
3.59702
3.70379
3.73234
0.0456686
0.0462319
0.0487116
0.0684071
0.114849
0.179592
0.255142
0.340634
0.437188
0.549912
0.67138
0.807647
1.00047
1.4784
2.02655
2.50175
2.84862
3.04887
3.14026
3.1666
0.0745701
0.075452
0.0761164
0.0874623
0.128335
0.193719
0.271355
0.357819
0.451711
0.558938
0.669367
0.782189
0.905734
1.21282
1.63386
1.98596
2.24952
2.40137
2.4699
2.48853
0.093342
0.0945045
0.0942459
0.101724
0.141649
0.209406
0.28869
0.373473
0.463452
0.56271
0.657599
0.743814
0.822007
1.01568
1.30302
1.54977
1.73126
1.83556
1.88116
1.89255
0.106385
0.104455
0.101347
0.110361
0.157414
0.231199
0.31193
0.392668
0.47536
0.562683
0.641351
0.703111
0.760608
0.882681
1.07427
1.23699
1.35314
1.41934
1.44771
1.45387
0.15305
0.148172
0.143184
0.155166
0.202473
0.273361
0.346914
0.418278
0.489742
0.56309
0.627972
0.674493
0.714807
0.794154
0.92227
1.0258
1.09709
1.13595
1.15182
1.15362
0.267122
0.262491
0.258795
0.267664
0.29999
0.347282
0.399152
0.452584
0.508238
0.567047
0.618962
0.654477
0.682826
0.735664
0.817896
0.884894
0.928092
0.951386
0.960476
0.960747
0.4109
0.408786
0.406091
0.407108
0.417062
0.43502
0.460456
0.491937
0.529707
0.573725
0.614549
0.64555
0.669255
0.70557
0.755991
0.797512
0.824394
0.838584
0.843981
0.843564
0.524512
0.523795
0.521202
0.515683
0.509843
0.508575
0.514503
0.528466
0.551042
0.58197
0.61484
0.644317
0.66976
0.697426
0.727153
0.749907
0.76551
0.774357
0.777586
0.776655
0.588326
0.587912
0.585224
0.577912
0.566992
0.557639
0.553682
0.55702
0.568554
0.588694
0.615196
0.642735
0.669187
0.690633
0.70763
0.721388
0.731363
0.737301
0.73949
0.738307
0.615094
0.614659
0.612296
0.606
0.595954
0.585763
0.578508
0.576389
0.580785
0.592821
0.612275
0.636896
0.662545
0.676961
0.686009
0.695781
0.705315
0.711972
0.714535
0.713094
0.62251
0.622029
0.62013
0.615577
0.608162
0.599751
0.592465
0.588097
0.587699
0.592404
0.603063
0.621279
0.642547
0.650949
0.654234
0.665622
0.678367
0.687755
0.691343
0.68952
0.622348
0.621873
0.620381
0.61717
0.612115
0.605868
0.599539
0.594278
0.590616
0.588715
0.588596
0.591584
0.597673
0.599349
0.60792
0.625247
0.642036
0.653578
0.658062
0.656547
0.62038
0.619958
0.618782
0.616342
0.612733
0.608161
0.602958
0.597533
0.591672
0.583498
0.570253
0.552068
0.531679
0.53059
0.551142
0.577699
0.599277
0.612074
0.616483
0.61503
0.618536
0.618223
0.617378
0.61547
0.612661
0.609169
0.605016
0.600037
0.593212
0.580552
0.553963
0.51375
0.470422
0.470421
0.504969
0.538112
0.559088
0.569434
0.572053
0.571094
0.616424
0.616274
0.615843
0.614633
0.61239
0.609806
0.606835
0.603398
0.598258
0.586254
0.558895
0.506783
0.452664
0.462108
0.499075
0.525442
0.538054
0.542032
0.543998
0.544582
0.612531
0.612535
0.612485
0.611985
0.610865
0.609497
0.60797
0.607876
0.605979
0.600001
0.581124
0.540496
0.503909
0.517595
0.540105
0.551486
0.555708
0.557522
0.55834
0.557938
0.605339
0.605529
0.605894
0.6062
0.606431
0.607062
0.608651
0.611705
0.616437
0.620032
0.616921
0.601393
0.590858
0.596751
0.598274
0.595413
0.593235
0.592628
0.591739
0.590687
0.593214
0.59359
0.594347
0.595499
0.597379
0.600353
0.605373
0.613587
0.625708
0.640766
0.65471
0.663131
0.67366
0.671545
0.653581
0.635756
0.627411
0.623266
0.621706
0.621239
0.573722
0.574403
0.575839
0.578117
0.581542
0.5871
0.595944
0.609807
0.628667
0.654114
0.680546
0.703375
0.726573
0.709967
0.684371
0.668643
0.658473
0.653718
0.649571
0.64845
0.543164
0.544244
0.546425
0.549985
0.55547
0.563773
0.576209
0.594606
0.618722
0.650667
0.682556
0.705176
0.721549
0.703762
0.687677
0.677534
0.675929
0.668375
0.662608
0.662704
0.497624
0.499112
0.50214
0.507218
0.514871
0.525661
0.540392
0.56016
0.585206
0.616643
0.64824
0.667236
0.671669
0.65247
0.658381
0.676046
0.685961
0.682068
0.675328
0.67509
0.433339
0.435172
0.439048
0.445726
0.455334
0.467547
0.481796
0.497326
0.513526
0.534587
0.569634
0.585981
0.571594
0.563806
0.604718
0.650925
0.671894
0.668768
0.664132
0.662778
0.348709
0.350602
0.355132
0.363202
0.373952
0.385394
0.394064
0.39407
0.381622
0.387455
0.438887
0.467363
0.441969
0.456513
0.519589
0.580103
0.60971
0.598549
0.592651
0.59081
0.246847
0.248292
0.253057
0.261625
0.271854
0.279413
0.274713
0.242727
0.185542
0.178664
0.273299
0.326674
0.297424
0.33284
0.408964
0.462585
0.466537
0.458948
0.452812
0.450564
0.136465
0.137425
0.140838
0.149023
0.156938
0.159445
0.138357
0.0673164
-0.0199742
-0.010299
0.095485
0.158507
0.149019
0.184687
0.249968
0.259092
0.253908
0.253746
0.253844
0.253459
0.0320614
0.0315787
0.0318972
0.0338738
0.0362688
0.0380968
0.0308743
0.00220596
-0.0456039
-0.0641865
-0.0187771
0.0326685
0.0438918
0.0355889
0.00678766
0.0015087
0.0434553
0.0481136
0.049077
0.0494258
0.549038
0.729698
0.940602
1.12123
1.26667
1.3826
1.47927
1.56087
1.59732
1.57432
0.87801
1.00733
1.14557
1.26525
1.36656
1.45083
1.51905
1.56739
1.59186
1.60371
1.11207
1.20031
1.29436
1.37774
1.44959
1.50973
1.55749
1.59234
1.61734
1.63508
1.2821
1.34418
1.41006
1.47032
1.52278
1.56728
1.60374
1.63271
1.65628
1.67442
1.41349
1.45902
1.50693
1.55277
1.59326
1.62853
1.65863
1.68358
1.70446
1.72221
1.52134
1.55554
1.59506
1.63196
1.66574
1.69592
1.72223
1.74427
1.76245
1.77976
1.61606
1.64557
1.68053
1.71349
1.74417
1.77194
1.79617
1.81625
1.83199
1.84905
1.70607
1.73578
1.7704
1.80295
1.83301
1.85999
1.88317
1.9019
1.91543
1.93247
1.80229
1.83572
1.87277
1.90669
1.93703
1.96347
1.98563
2.00306
2.01505
2.03246
1.91793
1.95573
1.99465
2.02916
2.05869
2.08359
2.10409
2.12008
2.13162
2.14971
2.0633
2.10198
2.13808
2.16887
2.19466
2.21684
2.23597
2.25156
2.26404
2.28205
2.23828
2.27019
2.29643
2.31889
2.33892
2.35769
2.37545
2.39196
2.40734
2.42542
2.42701
2.44431
2.45945
2.47573
2.49167
2.50623
2.51946
2.53341
2.55097
2.57113
2.60898
2.61843
2.63
2.64083
2.65014
2.65975
2.67057
2.68195
2.69333
2.70869
2.81612
2.81982
2.80489
2.79009
2.78384
2.78954
2.80803
2.83836
2.87054
2.8972
3.12247
2.9876
2.91098
2.86865
2.85125
2.85522
2.88263
2.93905
3.04167
3.26604
1.40235
1.40022
1.39573
1.3871
1.37487
1.36272
1.35248
1.34455
1.33888
1.33556
1.33511
1.33775
1.34277
1.34993
1.35927
1.37078
1.3834
1.39442
1.40052
1.40357
1.32682
1.33266
1.339
1.34348
1.34594
1.3456
1.34284
1.339
1.33544
1.3331
1.33286
1.33495
1.33853
1.34275
1.3465
1.34834
1.34738
1.34388
1.3387
1.33207
1.31843
1.32072
1.32412
1.32711
1.32918
1.33066
1.33138
1.33103
1.32995
1.32899
1.32905
1.33036
1.33208
1.33331
1.33342
1.33249
1.3309
1.32854
1.32525
1.32232
1.31296
1.31405
1.31588
1.31825
1.32026
1.32167
1.32267
1.32337
1.32371
1.32384
1.32421
1.32488
1.32537
1.32534
1.32485
1.32394
1.32242
1.3203
1.31819
1.31679
1.30782
1.30848
1.30959
1.31129
1.31306
1.31468
1.31594
1.31691
1.31772
1.31841
1.31899
1.31939
1.31944
1.31916
1.31849
1.31736
1.31586
1.31427
1.31291
1.31212
1.30292
1.30338
1.30416
1.30546
1.30694
1.30845
1.30989
1.31114
1.3122
1.31313
1.31387
1.31425
1.31422
1.31379
1.31297
1.31187
1.31066
1.30945
1.3085
1.30797
1.29819
1.29854
1.29915
1.30022
1.30152
1.30289
1.3043
1.30571
1.307
1.30814
1.30904
1.3095
1.30945
1.30898
1.30821
1.30729
1.30632
1.30536
1.30463
1.30424
1.2936
1.29386
1.29436
1.29528
1.29645
1.29775
1.29912
1.30056
1.30202
1.30338
1.30448
1.30505
1.30508
1.3047
1.30409
1.30335
1.30255
1.30178
1.30122
1.30093
1.28905
1.28926
1.28967
1.29049
1.2916
1.29285
1.29421
1.29569
1.29725
1.29882
1.30016
1.30093
1.30112
1.30093
1.3005
1.29993
1.29928
1.29867
1.29824
1.29801
1.2845
1.28466
1.28502
1.28577
1.28684
1.28808
1.28946
1.291
1.29268
1.29444
1.29605
1.29711
1.29758
1.29762
1.29738
1.29697
1.29647
1.296
1.29567
1.29549
1.27988
1.28001
1.28032
1.28103
1.2821
1.28337
1.28482
1.28648
1.28835
1.29038
1.29234
1.29375
1.29451
1.29478
1.29474
1.29449
1.29414
1.29378
1.29353
1.29339
1.27512
1.27522
1.2755
1.2762
1.27729
1.27863
1.28019
1.28201
1.28412
1.28649
1.28888
1.29073
1.29183
1.29239
1.29258
1.2925
1.29229
1.29204
1.29187
1.29176
1.27018
1.27025
1.27051
1.27121
1.27236
1.2738
1.27549
1.27751
1.27993
1.28274
1.28567
1.28803
1.28956
1.29047
1.29094
1.29108
1.29101
1.29087
1.29077
1.29069
1.265
1.26504
1.26528
1.266
1.26722
1.26878
1.27066
1.27296
1.27574
1.27904
1.28263
1.28568
1.28778
1.28912
1.28989
1.29029
1.29041
1.29039
1.29036
1.2903
1.2595
1.25951
1.25973
1.26048
1.2618
1.26353
1.26566
1.26833
1.27163
1.27565
1.28008
1.28389
1.28659
1.28841
1.28957
1.29021
1.29057
1.29071
1.29074
1.29072
1.25355
1.25355
1.25376
1.25452
1.25592
1.25782
1.26023
1.2633
1.26717
1.27198
1.27742
1.28225
1.28579
1.28828
1.28993
1.291
1.29167
1.292
1.29213
1.29213
1.24689
1.24685
1.24709
1.2479
1.24943
1.25157
1.25437
1.25802
1.26272
1.2686
1.2753
1.28131
1.28577
1.28896
1.29121
1.29279
1.29381
1.29438
1.29461
1.29462
1.23918
1.23914
1.2394
1.24029
1.24198
1.24442
1.24771
1.25207
1.25775
1.26495
1.27321
1.28069
1.28632
1.29043
1.29341
1.29553
1.297
1.29784
1.29817
1.29818
1.2299
1.22984
1.23016
1.23119
1.23316
1.23607
1.24005
1.24538
1.25238
1.26124
1.27142
1.28066
1.28762
1.29278
1.29656
1.29934
1.30127
1.30239
1.30281
1.30283
1.21853
1.21845
1.21885
1.22012
1.22253
1.22613
1.23107
1.23771
1.24641
1.25738
1.26991
1.28123
1.28978
1.29614
1.30085
1.30434
1.30676
1.30816
1.30867
1.30869
1.20443
1.20433
1.20487
1.20651
1.20954
1.21411
1.22038
1.22877
1.23967
1.25329
1.26867
1.28247
1.29287
1.30061
1.30639
1.31065
1.31363
1.31532
1.31592
1.31595
1.18671
1.18659
1.18735
1.18953
1.19348
1.19943
1.20756
1.21833
1.23212
1.24907
1.26789
1.28456
1.29707
1.30639
1.31336
1.31852
1.32214
1.32414
1.32483
1.32485
1.16393
1.16381
1.16493
1.16795
1.17331
1.18129
1.19209
1.20613
1.2237
1.24476
1.26765
1.28763
1.30252
1.3136
1.32193
1.32812
1.33245
1.33477
1.33554
1.33556
1.13376
1.13367
1.13544
1.1399
1.1476
1.15883
1.17358
1.19213
1.21457
1.24063
1.2682
1.29186
1.30936
1.3224
1.33225
1.33962
1.34466
1.3473
1.34816
1.34815
1.09216
1.09225
1.09544
1.10284
1.11481
1.13135
1.15195
1.17659
1.20511
1.237
1.26978
1.29741
1.31772
1.33288
1.34437
1.35299
1.35877
1.36172
1.36263
1.3626
1.03166
1.03291
1.04065
1.0545
1.07418
1.09907
1.12785
1.16024
1.19591
1.23431
1.27264
1.3044
1.32761
1.34496
1.35814
1.36796
1.37454
1.3778
1.37866
1.37858
0.959819
0.961829
0.97641
1.00021
1.03064
1.06523
1.10294
1.14361
1.18702
1.23269
1.27762
1.3147
1.34193
1.36244
1.37806
1.38964
1.3974
1.40125
1.40231
1.40229
0.88614
0.892766
0.91428
0.947998
0.988325
1.03229
1.07884
1.1278
1.17904
1.2321
1.28384
1.32644
1.35778
1.3815
1.39972
1.41344
1.42252
1.42624
1.42737
1.42761
0.826903
0.835452
0.861693
0.902161
0.950021
1.00181
1.0562
1.11288
1.17154
1.23171
1.28991
1.33757
1.37253
1.39889
1.41902
1.43408
1.44388
1.44865
1.45055
1.45089
0.778874
0.78799
0.81766
0.86297
0.916575
0.974586
1.03554
1.09897
1.16438
1.23112
1.2953
1.34751
1.38556
1.41407
1.43579
1.45208
1.46323
1.46871
1.47089
1.47127
0.738684
0.748027
0.780009
0.829042
0.887228
0.950328
1.01683
1.08612
1.15753
1.23024
1.29985
1.35613
1.39684
1.42716
1.45014
1.46741
1.47917
1.48531
1.48775
1.48818
0.703774
0.713215
0.746912
0.798976
0.860926
0.928332
0.999617
1.07407
1.15087
1.22901
1.30359
1.36352
1.40655
1.43834
1.46227
1.48019
1.49247
1.4991
1.50169
1.50214
0.672535
0.682022
0.717052
0.771643
0.836774
0.907891
0.983395
1.06246
1.14416
1.2273
1.3065
1.36982
1.41494
1.44798
1.47265
1.491
1.50359
1.51052
1.51318
1.51365
0.643766
0.653314
0.689473
0.746243
0.814111
0.888485
0.967727
1.05096
1.13715
1.22497
1.30857
1.37515
1.42225
1.45644
1.48174
1.50037
1.5131
1.52016
1.52278
1.52329
0.616691
0.626298
0.663461
0.722136
0.792468
0.869727
0.952308
1.03932
1.12967
1.22192
1.30979
1.3796
1.4287
1.46405
1.48996
1.5089
1.52175
1.52887
1.53152
1.53185
0.590801
0.600515
0.638621
0.698905
0.771487
0.851337
0.936927
1.02738
1.12158
1.21804
1.31011
1.38322
1.43444
1.47106
1.49768
1.51696
1.52994
1.53703
1.53966
1.53997
0.565702
0.575607
0.614544
0.676386
0.750947
0.833124
0.921435
1.01502
1.1128
1.21326
1.3095
1.38606
1.43958
1.47764
1.5051
1.52482
1.53798
1.54505
1.54758
1.54789
0.54121
0.551354
0.591065
0.654407
0.730728
0.814989
0.905754
1.00219
1.10327
1.20754
1.30792
1.38811
1.44419
1.4839
1.51235
1.53261
1.54597
1.55302
1.55541
1.55567
0.517271
0.527643
0.568169
0.632828
0.710758
0.796898
0.88986
0.988879
1.09298
1.20085
1.30533
1.38932
1.44823
1.48987
1.51949
1.54037
1.55394
1.56089
1.56311
1.56329
0.493781
0.504474
0.545728
0.611631
0.691017
0.778836
0.873761
0.975093
1.08195
1.19318
1.30166
1.38959
1.45165
1.49554
1.52655
1.54813
1.56187
1.56866
1.57065
1.57072
0.470795
0.481781
0.523794
0.590824
0.671526
0.76084
0.857508
0.960889
1.07022
1.18452
1.29683
1.38881
1.45437
1.5009
1.53358
1.55593
1.56972
1.57619
1.57788
1.57785
0.448289
0.459591
0.502388
0.570448
0.652329
0.74296
0.841158
0.946339
1.05784
1.17491
1.29083
1.38689
1.45621
1.50585
1.54063
1.56388
1.57752
1.58342
1.58472
1.5846
0.426453
0.437998
0.481544
0.55055
0.633486
0.725279
0.824786
0.931525
1.04491
1.16443
1.28365
1.38371
1.457
1.51023
1.54775
1.57224
1.5855
1.59036
1.59106
1.59082
0.40516
0.417052
0.461302
0.531167
0.615039
0.707844
0.808492
0.916538
1.03153
1.15316
1.27531
1.37915
1.45653
1.51379
1.55484
1.5814
1.59432
1.59736
1.59685
1.59644
0.384579
0.396787
0.4417
0.512357
0.597074
0.690746
0.792363
0.901504
1.01782
1.14119
1.26586
1.37317
1.45458
1.51613
1.56154
1.59157
1.60519
1.60598
1.60275
1.6012
0.364658
0.377163
0.422793
0.494178
0.579637
0.674056
0.776485
0.886507
1.00388
1.12866
1.25541
1.36569
1.45097
1.51676
1.56702
1.60218
1.61916
1.61974
1.61249
1.60244
0.345479
0.358224
0.404481
0.476478
0.562515
0.657487
0.760512
0.871131
0.989258
1.11505
1.24338
1.35609
1.4451
1.51506
1.57002
1.61163
1.63527
1.6394
1.63045
1.62133
0.3271
0.340062
0.386765
0.4593
0.545723
0.641037
0.744469
0.855363
0.973913
1.10025
1.2296
1.34403
1.43631
1.5103
1.56802
1.61425
1.64111
1.65038
1.61418
1.56022
0.309789
0.323449
0.369749
0.442707
0.529153
0.624576
0.728313
0.839325
0.957915
1.08434
1.21406
1.32941
1.42366
1.50224
1.55914
1.59871
1.62668
1.61692
1.55961
1.4938
0.293237
0.307735
0.353623
0.427317
0.513133
0.608582
0.711823
0.823078
0.941411
1.06749
1.19679
1.31212
1.40612
1.49203
1.54225
1.59531
1.56866
1.52881
1.45895
1.38945
0.307224
0.32529
0.373945
0.451801
0.542497
0.641724
0.75028
0.864447
0.985782
1.11517
1.23802
1.34009
1.4257
1.51691
1.56731
1.48702
1.44297
1.38086
1.30739
1.25848
0.282789
0.299197
0.334842
0.402957
0.48832
0.583231
0.686581
0.797155
0.914594
1.03926
1.16642
1.27962
1.37003
1.44989
1.52142
1.52359
1.40313
1.31953
1.25663
1.17222
0.262649
0.278344
0.319725
0.389264
0.474882
0.569386
0.671534
0.781151
0.897526
1.02064
1.14585
1.25658
1.3439
1.41097
1.43829
1.36865
1.2274
1.13036
1.05423
0.963839
0.242089
0.254641
0.300507
0.371344
0.457156
0.55183
0.653899
0.763126
0.878504
0.999967
1.12216
1.22821
1.30833
1.35975
1.33813
1.20929
1.05457
0.934429
0.834545
0.694531
0.218314
0.231414
0.279323
0.3513
0.437449
0.532142
0.634067
0.742639
0.856817
0.976266
1.09494
1.19562
1.26786
1.29945
1.24164
1.05668
0.870369
0.711772
0.565148
0.364392
0.195617
0.208336
0.257484
0.330635
0.417297
0.511947
0.613476
0.721143
0.833876
0.950949
1.06573
1.1605
1.22421
1.22635
1.11698
0.912504
0.69278
0.482746
0.29588
-0.12113
0.172931
0.185243
0.234885
0.30891
0.395988
0.490661
0.591785
0.698536
0.809711
0.924178
1.03475
1.12299
1.17624
1.14413
0.992898
0.785005
0.558035
0.335125
0.144332
-0.165412
0.149361
0.161514
0.211314
0.285876
0.373246
0.467952
0.568709
0.674567
0.784128
0.895821
1.00194
1.08318
1.12299
1.07242
0.881086
0.681654
0.474904
0.299197
0.22464
0.188529
0.124444
0.136428
0.186402
0.261241
0.348701
0.443278
0.543513
0.648248
0.755867
0.864304
0.96533
1.03896
1.06454
0.983754
0.781568
0.594888
0.424722
0.311945
0.274564
0.262993
0.0979903
0.109911
0.159995
0.235
0.322425
0.416704
0.516205
0.619558
0.724862
0.829536
0.924784
0.990619
0.994065
0.8789
0.691482
0.518377
0.37361
0.313767
0.299834
0.294776
0.0699219
0.0816446
0.132036
0.207159
0.294447
0.388255
0.486811
0.588491
0.691107
0.791562
0.880344
0.938003
0.914996
0.779733
0.605898
0.443821
0.338665
0.30196
0.308381
0.308914
0.0402893
0.0519661
0.102562
0.177785
0.264839
0.358015
0.45539
0.555109
0.654657
0.750405
0.832263
0.879481
0.840731
0.686231
0.527455
0.383439
0.336928
0.322865
0.31862
0.318364
0.00948048
0.021177
0.0717997
0.147079
0.23377
0.326135
0.42209
0.51955
0.615637
0.706217
0.780827
0.816475
0.771731
0.604385
0.457324
0.3536
0.304976
0.319714
0.323447
0.324085
-0.022021
-0.0103846
0.0402259
0.115379
0.201572
0.29292
0.38721
0.482102
0.574351
0.659362
0.726366
0.752872
0.687881
0.530039
0.398729
0.325068
0.323301
0.325335
0.327814
0.329019