/*--------------------------------*- C++ -*----------------------------------*\
| =========                 |                                                 |
| \\      /  F ield         | OpenFOAM: The Open Source CFD Toolbox           |
|  \\    /   O peration     | Version:  4.0                                   |
|   \\  /    A nd           | Web:      www.OpenFOAM.org                      |
|    \\/     M anipulation  |                                                 |
\*---------------------------------------------------------------------------*/
FoamFile
{
    version     2.0;
    format      ascii;
    class       volScalarField;
    location    "38";
    object      p;
}
// * * * * * * * * * * * * * * * * * * * * * * * * * * * * * * * * * * * * * //

dimensions      [0 2 -2 0 0 0 0];

internalField   nonuniform List<scalar> 
8800
(
0.990912
0.943123
0.904429
0.875428
0.854555
0.839709
0.829091
0.821585
0.816728
0.81462
0.815825
0.819964
0.826568
0.835852
0.848608
0.866326
0.891093
0.925026
0.967569
1.02627
0.822173
0.829851
0.837315
0.84062
0.839109
0.834019
0.827517
0.821417
0.816659
0.813769
0.813431
0.815875
0.820312
0.82622
0.832962
0.839221
0.842846
0.842102
0.836671
0.827975
0.800594
0.806753
0.810875
0.81381
0.815848
0.816436
0.815307
0.813173
0.811114
0.810145
0.811041
0.813362
0.816112
0.818256
0.818834
0.817613
0.815254
0.811849
0.807285
0.803523
0.79482
0.797468
0.800213
0.802607
0.804229
0.805372
0.806087
0.806169
0.805825
0.805709
0.806385
0.807487
0.80827
0.80829
0.807645
0.806526
0.804689
0.802102
0.799689
0.798185
0.789487
0.79091
0.792682
0.794704
0.796473
0.797793
0.798752
0.799508
0.800067
0.800555
0.801118
0.801531
0.801562
0.801219
0.800477
0.799193
0.797468
0.795598
0.794279
0.793448
0.784473
0.785392
0.786627
0.788182
0.789798
0.7913
0.792553
0.793573
0.794471
0.795274
0.795857
0.796085
0.795958
0.795447
0.794508
0.79326
0.791894
0.790605
0.789769
0.789219
0.779646
0.780315
0.781271
0.782562
0.783954
0.785388
0.786791
0.788061
0.789183
0.790183
0.790875
0.791118
0.790925
0.790323
0.78944
0.788429
0.787364
0.786403
0.785802
0.785399
0.774964
0.775479
0.776257
0.777377
0.778637
0.779984
0.781391
0.782805
0.784147
0.785354
0.786202
0.786515
0.786348
0.785841
0.785137
0.784328
0.783484
0.782753
0.782302
0.781988
0.77036
0.770769
0.77142
0.772418
0.773607
0.774905
0.776306
0.777793
0.779312
0.780756
0.781807
0.782266
0.78225
0.781926
0.781412
0.780786
0.780124
0.779569
0.779226
0.778974
0.765756
0.766088
0.766651
0.767571
0.768711
0.769991
0.771417
0.772985
0.774663
0.776358
0.777676
0.778378
0.778594
0.77848
0.778159
0.777722
0.777225
0.776815
0.776555
0.776346
0.761073
0.761346
0.761848
0.762725
0.763848
0.765151
0.76664
0.768326
0.770199
0.77218
0.77384
0.774863
0.775356
0.775479
0.77536
0.775103
0.774763
0.774475
0.77428
0.774103
0.756237
0.756464
0.756927
0.757791
0.758938
0.760305
0.761901
0.763762
0.765894
0.768231
0.770314
0.771725
0.772535
0.77292
0.773021
0.772939
0.772751
0.77257
0.772429
0.772277
0.751175
0.751364
0.751808
0.752688
0.753899
0.755374
0.757131
0.759237
0.761719
0.764527
0.767121
0.768973
0.770145
0.770825
0.771163
0.771268
0.771228
0.771143
0.771047
0.770913
0.745803
0.74596
0.746399
0.747321
0.748635
0.750262
0.752236
0.754647
0.757548
0.760928
0.764154
0.766561
0.76818
0.769208
0.769821
0.770139
0.770251
0.770259
0.770204
0.770085
0.740027
0.740155
0.740601
0.741593
0.743055
0.744892
0.747155
0.749961
0.753403
0.757497
0.761495
0.764567
0.766714
0.768149
0.769077
0.769631
0.769909
0.770012
0.769997
0.769889
0.733744
0.733844
0.734312
0.735399
0.737047
0.739152
0.741788
0.745107
0.749227
0.754195
0.759145
0.763038
0.765817
0.767737
0.769022
0.769847
0.770324
0.770532
0.770554
0.770453
0.726806
0.726887
0.727373
0.728576
0.730469
0.732911
0.736022
0.739987
0.74498
0.751064
0.75716
0.762001
0.765533
0.768042
0.769784
0.770926
0.771619
0.771938
0.772
0.771904
0.71896
0.719031
0.719579
0.720916
0.723092
0.725966
0.729667
0.73442
0.740447
0.747856
0.755384
0.761446
0.76591
0.769132
0.771435
0.772994
0.773955
0.774407
0.774511
0.774417
0.709976
0.710018
0.710637
0.712176
0.714733
0.718168
0.722635
0.728436
0.735836
0.744942
0.754167
0.761613
0.767154
0.771212
0.774182
0.77623
0.777522
0.77813
0.778274
0.778176
0.699463
0.69949
0.700198
0.701994
0.705016
0.709147
0.714579
0.721672
0.730735
0.741891
0.753212
0.762382
0.76925
0.774342
0.778119
0.780769
0.782466
0.783254
0.783437
0.783329
0.686795
0.686815
0.687651
0.689802
0.693472
0.698558
0.70529
0.714101
0.72532
0.739027
0.752835
0.763981
0.772365
0.778642
0.783371
0.78674
0.788898
0.789881
0.790096
0.789969
0.671139
0.67116
0.672207
0.674897
0.679498
0.685917
0.694415
0.705479
0.719425
0.736252
0.75301
0.766468
0.776609
0.78425
0.790034
0.794215
0.796874
0.798054
0.798294
0.798141
0.651299
0.65133
0.652724
0.656271
0.662257
0.67059
0.681542
0.695618
0.713039
0.733649
0.753853
0.76994
0.782043
0.791207
0.798194
0.80326
0.806438
0.807802
0.808058
0.807873
0.625474
0.625542
0.627552
0.632528
0.640744
0.651938
0.666407
0.684531
0.70634
0.731465
0.755591
0.774579
0.788837
0.79966
0.807913
0.813942
0.817626
0.819148
0.819404
0.819188
0.590678
0.590875
0.594135
0.60175
0.613743
0.629382
0.648879
0.672328
0.69952
0.729879
0.758358
0.780489
0.797039
0.809641
0.819302
0.826314
0.830465
0.832093
0.832322
0.83207
0.541218
0.542269
0.548826
0.561835
0.580387
0.602891
0.629322
0.659515
0.693069
0.729277
0.762408
0.787801
0.806729
0.821176
0.832286
0.840287
0.844849
0.846498
0.846665
0.846373
0.468187
0.475604
0.490824
0.513902
0.542158
0.57378
0.608694
0.646683
0.687346
0.729987
0.768225
0.797252
0.818887
0.8355
0.848385
0.857519
0.862586
0.86436
0.864536
0.864291
0.389517
0.406863
0.431494
0.465215
0.503561
0.544492
0.587993
0.634029
0.682302
0.732231
0.776721
0.810506
0.835772
0.855312
0.870615
0.881361
0.88704
0.888892
0.889118
0.889039
0.324232
0.344569
0.377029
0.419607
0.466808
0.516495
0.568302
0.622207
0.677929
0.734919
0.78536
0.823597
0.852263
0.874476
0.891677
0.903348
0.90941
0.911751
0.912018
0.912015
0.270733
0.292775
0.330631
0.379543
0.433765
0.490756
0.549883
0.610985
0.673669
0.737315
0.793337
0.835661
0.867316
0.891675
0.910215
0.923069
0.930192
0.932369
0.932702
0.932749
0.226107
0.24922
0.290686
0.344707
0.404599
0.467626
0.533013
0.600482
0.669491
0.739289
0.800449
0.846462
0.880674
0.906786
0.926581
0.940206
0.947905
0.950395
0.950895
0.950975
0.188013
0.211716
0.256036
0.313928
0.378571
0.446746
0.517572
0.590682
0.665411
0.740845
0.806726
0.856026
0.892439
0.91994
0.940575
0.954835
0.962972
0.965938
0.966586
0.966689
0.15453
0.178613
0.225088
0.286259
0.354876
0.427519
0.503161
0.581348
0.661307
0.741961
0.812198
0.864459
0.902725
0.931335
0.952664
0.96742
0.975917
0.979231
0.979985
0.980083
0.124255
0.148674
0.19688
0.260805
0.332858
0.409405
0.489353
0.572169
0.656974
0.742525
0.816851
0.87183
0.911723
0.941261
0.963084
0.978194
0.986915
0.99045
0.991266
0.991353
0.0963014
0.12104
0.170693
0.236939
0.311999
0.391993
0.475817
0.562875
0.652208
0.742414
0.820668
0.878243
0.919667
0.950056
0.972309
0.987684
0.996521
1.00018
1.00102
1.00106
0.0699075
0.0950107
0.146013
0.214249
0.291911
0.374966
0.462297
0.55326
0.646845
0.741516
0.823626
0.883789
0.926753
0.958002
0.980718
0.996261
1.00521
1.0089
1.00978
1.00979
0.044716
0.070232
0.122341
0.192371
0.272336
0.358117
0.448621
0.543183
0.640761
0.73975
0.825708
0.888537
0.933143
0.965321
0.988518
1.00426
1.01323
1.01686
1.01773
1.01774
0.0203247
0.046372
0.0993971
0.171103
0.253075
0.341298
0.43468
0.532549
0.633872
0.737036
0.826888
0.892546
0.938953
0.972192
0.995941
1.0119
1.02088
1.02446
1.02521
1.02516
-0.00340285
0.0230927
0.0771596
0.150291
0.234032
0.324435
0.420413
0.521311
0.626128
0.733326
0.827138
0.895834
0.944272
0.97873
1.00312
1.01931
1.02825
1.03171
1.03236
1.03223
-0.0265958
0.000445392
0.0554523
0.129855
0.215175
0.307506
0.405808
0.509452
0.617509
0.728575
0.826394
0.898379
0.94913
0.98502
1.01014
1.02654
1.03535
1.0386
1.03911
1.03892
-0.0493727
-0.0217232
0.0341794
0.109764
0.196482
0.290524
0.390894
0.497004
0.608023
0.722749
0.824583
0.900108
0.953529
0.991126
1.01708
1.03363
1.0422
1.04514
1.0455
1.04527
-0.0717404
-0.04341
0.013371
0.0900271
0.177989
0.273527
0.375723
0.484018
0.597703
0.715828
0.821628
0.90092
0.957418
0.99711
1.02405
1.04064
1.04876
1.05127
1.05146
1.05121
-0.093539
-0.0645654
-0.00693672
0.070678
0.159735
0.256585
0.360362
0.470571
0.586614
0.707841
0.817462
0.900695
0.960678
1.003
1.03127
1.04778
1.05507
1.05693
1.05694
1.05667
-0.11474
-0.0851554
-0.0267283
0.0517664
0.141783
0.239762
0.344906
0.45675
0.574843
0.698825
0.812042
0.899278
0.963129
1.00872
1.03897
1.05549
1.06144
1.06216
1.06187
1.06164
-0.135409
-0.10514
-0.0459673
0.0333279
0.124195
0.223143
0.329445
0.442662
0.562489
0.688857
0.805333
0.896523
0.964515
1.01403
1.04729
1.06459
1.06885
1.06741
1.06629
1.06632
-0.155364
-0.124493
-0.064594
0.0154279
0.107031
0.20681
0.314075
0.428422
0.549675
0.678041
0.797342
0.892286
0.96453
1.01843
1.0559
1.0758
1.07946
1.07511
1.0715
1.07073
-0.174698
-0.143198
-0.0826225
-0.00196028
0.0902592
0.190717
0.29874
0.41397
0.536333
0.666306
0.787938
0.886299
0.962834
1.02124
1.06379
1.08883
1.09533
1.09068
1.08081
1.06487
-0.193333
-0.161245
-0.100171
-0.0190293
0.0735867
0.174528
0.28302
0.398817
0.521915
0.652997
0.776446
0.877721
0.958757
1.02138
1.06858
1.10021
1.11059
1.09998
1.08136
1.0662
-0.211089
-0.178756
-0.11705
-0.035549
0.0573242
0.158592
0.267142
0.383295
0.50674
0.638398
0.762999
0.866175
0.951697
1.01778
1.0653
1.09668
1.11072
1.09041
1.02093
0.98881
-0.227298
-0.19692
-0.132934
-0.0509359
0.0421981
0.143406
0.251408
0.367632
0.491029
0.622645
0.747572
0.851446
0.940495
1.01012
1.04975
1.0735
1.07156
1.02046
0.950198
0.906594
-0.283299
-0.212912
-0.147526
-0.066224
0.0267069
0.127545
0.235755
0.351554
0.474428
0.605313
0.729617
0.83309
0.921633
0.99838
1.00419
1.0152
0.975582
0.909479
0.833195
0.790428
-0.24458
-0.228608
-0.169012
-0.0877658
0.00416822
0.104736
0.211913
0.3269
0.448539
0.577587
0.699266
0.800307
0.880269
0.958478
0.952527
0.846444
0.74422
0.672994
0.600198
0.633686
-0.27581
-0.246467
-0.185898
-0.105381
-0.0133959
0.0868344
0.194192
0.308464
0.428918
0.555963
0.674512
0.771324
0.843355
0.884182
0.839208
0.695794
0.569829
0.479872
0.38111
0.434042
-0.29987
-0.267572
-0.205716
-0.124945
-0.0329065
0.0671614
0.174368
0.287728
0.406676
0.531172
0.645803
0.736809
0.799221
0.80795
0.705117
0.53357
0.38083
0.26187
0.131334
0.165659
-0.323423
-0.289544
-0.226477
-0.144855
-0.0526614
0.0472496
0.153902
0.266223
0.383478
0.505085
0.614988
0.699458
0.746535
0.723859
0.568463
0.37208
0.180331
0.00831323
-0.183753
-0.197679
-0.34633
-0.312004
-0.248031
-0.16567
-0.0732764
0.0264268
0.13241
0.243584
0.358907
0.47728
0.581895
0.659007
0.688243
0.630651
0.438644
0.226943
0.00681795
-0.187819
-0.436023
-0.745012
-0.369512
-0.335176
-0.270652
-0.187791
-0.0951831
0.004368
0.109758
0.219765
0.333069
0.448
0.54716
0.615805
0.626711
0.518529
0.326126
0.11457
-0.0927759
-0.268831
-0.337202
-0.424202
-0.393888
-0.3595
-0.294676
-0.211556
-0.118867
-0.0195532
0.085153
0.193828
0.30481
0.415806
0.509098
0.567408
0.553746
0.411686
0.226811
0.0344467
-0.130111
-0.22406
-0.248289
-0.26486
-0.419774
-0.38529
-0.320263
-0.237045
-0.14445
-0.0455316
0.0582585
0.165305
0.273555
0.379984
0.466921
0.512304
0.480336
0.312559
0.137203
-0.0296272
-0.157892
-0.196647
-0.210778
-0.212121
-0.447367
-0.412702
-0.347466
-0.264237
-0.171864
-0.0735533
0.0290781
0.134167
0.239252
0.340541
0.420336
0.452148
0.403136
0.220445
0.0544563
-0.0949304
-0.174673
-0.190924
-0.192213
-0.192061
-0.476706
-0.441748
-0.376294
-0.293108
-0.201101
-0.103581
-0.00236307
0.100429
0.201925
0.297566
0.369215
0.389677
0.306377
0.136148
-0.0219524
-0.145078
-0.181204
-0.182012
-0.181937
-0.181287
-0.507497
-0.472337
-0.406621
-0.32355
-0.232045
-0.135527
-0.0359962
0.0641546
0.161629
0.25116
0.314316
0.318791
0.214765
0.0577997
-0.0827089
-0.161805
-0.172097
-0.174574
-0.175137
-0.174924
-0.539152
-0.503872
-0.438183
-0.355312
-0.264475
-0.169191
-0.0716219
0.0255263
0.118582
0.201576
0.256192
0.243789
0.131832
-0.00941957
-0.129015
-0.156919
-0.169623
-0.171178
-0.170562
-0.17019
-0.571221
-0.535827
-0.470487
-0.387976
-0.298005
-0.204203
-0.108899
-0.0151035
0.0731363
0.149419
0.194349
0.170071
0.0515929
-0.0660653
-0.161387
-0.190056
-0.175378
-0.170761
-0.169614
-0.168827
-0.602836
-0.56761
-0.502656
-0.420884
-0.33205
-0.240025
-0.147295
-0.0571654
0.025859
0.0953296
0.130509
0.0976466
-0.0275649
-0.110468
-0.165384
-0.171956
-0.175903
-0.177198
-0.176501
-0.175754
-0.632388
-0.59798
-0.533768
-0.453096
-0.365794
-0.275878
-0.186048
-0.0998319
-0.0223453
0.0400315
0.0696399
0.0138028
-0.109021
-0.158617
-0.147637
-0.184263
-0.191687
-0.188405
-0.188639
-0.188805
-0.658422
-0.624955
-0.562716
-0.483463
-0.398147
-0.310722
-0.224144
-0.142033
-0.0701232
-0.0152996
0.0115459
-0.0786531
-0.217217
-0.237255
-0.204202
-0.231124
-0.241012
-0.24281
-0.242658
-0.241528
-0.678879
-0.647171
-0.587349
-0.510574
-0.427774
-0.343313
-0.260288
-0.182454
-0.115797
-0.0689114
-0.0467831
-0.165679
-0.370205
-0.50781
-0.43786
-0.411717
-0.401726
-0.394972
-0.379265
-0.36915
-0.691687
-0.662588
-0.606064
-0.532566
-0.45311
-0.37218
-0.292996
-0.219473
-0.157539
-0.117903
-0.102666
-0.231075
-0.490324
-0.959232
-0.993046
-0.682625
-0.542157
-0.497808
-0.473011
-0.464441
-0.69435
-0.669156
-0.616992
-0.547712
-0.472443
-0.395733
-0.320627
-0.251225
-0.193312
-0.157698
-0.146303
-0.228146
-0.362058
-0.643632
-0.806828
-0.495215
-0.35177
-0.333469
-0.344114
-0.347704
-0.685228
-0.664658
-0.61816
-0.554496
-0.484305
-0.41239
-0.341558
-0.275766
-0.220802
-0.185694
-0.160967
-0.119743
0.105941
0.401768
0.29614
-0.0719633
-0.280058
-0.290777
-0.291939
-0.291075
-0.662213
-0.646197
-0.607984
-0.551814
-0.487771
-0.42106
-0.35442
-0.291393
-0.238213
-0.202642
-0.175701
-0.0923027
0.181023
0.72144
0.591757
0.0942987
-0.22282
-0.239852
-0.266257
-0.283134
-0.627155
-0.616416
-0.586961
-0.539942
-0.482829
-0.421465
-0.358526
-0.297244
-0.24344
-0.207007
-0.19762
-0.286839
-0.645768
-1.2673
-1.83827
-2.16134
-1.95293
-1.51869
-1.12625
-1.04223
-0.585521
-0.579294
-0.559272
-0.521219
-0.471213
-0.414422
-0.35401
-0.292689
-0.234767
-0.191143
-0.184726
-0.469289
-1.27945
-2.38015
-3.06612
-3.26214
-3.01698
-2.61917
-2.24934
-2.01617
-0.545253
-0.54169
-0.530427
-0.500761
-0.45607
-0.402205
-0.342256
-0.277964
-0.212188
-0.147707
-0.114225
-0.216712
-0.55171
-0.810152
-0.862851
-0.655695
-0.332246
-0.0311076
0.185302
0.288837
-0.513313
-0.51113
-0.505422
-0.483395
-0.442428
-0.388605
-0.326476
-0.255357
-0.176928
-0.0855078
0.0219354
0.167181
0.40796
0.858622
1.4526
2.01051
2.43413
2.68204
2.78667
2.81556
-0.486887
-0.48604
-0.484588
-0.470931
-0.433481
-0.377803
-0.310821
-0.233178
-0.142462
-0.0353543
0.0962166
0.237084
0.523908
1.06165
1.68728
2.24404
2.64
2.86878
2.97379
3.00226
-0.469153
-0.468806
-0.468773
-0.461217
-0.428003
-0.370145
-0.297841
-0.214715
-0.118521
-0.00732164
0.111433
0.236838
0.425032
0.904179
1.43781
1.90739
2.24812
2.43836
2.52066
2.54218
-0.454326
-0.453727
-0.453676
-0.451292
-0.423536
-0.364272
-0.287434
-0.200667
-0.105337
0.00152343
0.106668
0.216928
0.34153
0.691027
1.10811
1.45104
1.702
1.84149
1.90214
1.91845
-0.445933
-0.444336
-0.444017
-0.444056
-0.419654
-0.357488
-0.27622
-0.187696
-0.094824
0.00550837
0.0995647
0.187357
0.276376
0.503955
0.798408
1.03856
1.20964
1.30548
1.34777
1.35779
-0.446786
-0.447144
-0.450517
-0.450155
-0.418741
-0.345826
-0.258897
-0.170427
-0.0820288
0.00896842
0.0871929
0.152055
0.207139
0.366659
0.563632
0.723084
0.83873
0.902257
0.929787
0.935822
-0.429634
-0.435531
-0.442875
-0.437523
-0.395674
-0.315687
-0.228659
-0.145715
-0.066912
0.0103894
0.0752374
0.12326
0.165728
0.271371
0.404235
0.508211
0.580619
0.620772
0.637204
0.639906
-0.338984
-0.346182
-0.3536
-0.347135
-0.309854
-0.245712
-0.176725
-0.109565
-0.0456314
0.0175832
0.0701819
0.106278
0.138644
0.209341
0.297755
0.366779
0.412641
0.436857
0.446955
0.447971
-0.180661
-0.185223
-0.19077
-0.189556
-0.17228
-0.140923
-0.103065
-0.0616401
-0.0176166
0.0293368
0.0687946
0.0965925
0.122403
0.169358
0.226354
0.271539
0.30177
0.318305
0.324773
0.324739
-0.0231117
-0.0252919
-0.0298705
-0.0360876
-0.0394109
-0.0379567
-0.0284786
-0.0116735
0.0126633
0.0435171
0.0734665
0.0986026
0.120039
0.15098
0.18629
0.215098
0.234312
0.244936
0.248728
0.24803
0.0822063
0.0810731
0.0765198
0.0658058
0.0501677
0.0368389
0.0297354
0.0306687
0.0404086
0.0585122
0.0804845
0.102233
0.122806
0.142822
0.163662
0.18049
0.19262
0.199669
0.202154
0.201063
0.132361
0.131626
0.127615
0.116957
0.100058
0.0825395
0.0687961
0.061444
0.0619463
0.0707682
0.0854393
0.103438
0.1202
0.132401
0.14366
0.155144
0.164015
0.169109
0.170431
0.169073
0.147218
0.146639
0.143541
0.135132
0.121208
0.1055
0.0914525
0.0813799
0.0770285
0.0794282
0.0878168
0.0997006
0.112028
0.117202
0.123639
0.132194
0.1397
0.144193
0.1454
0.144012
0.144821
0.144371
0.142205
0.13639
0.126438
0.114383
0.102478
0.0926363
0.0861641
0.0840684
0.0860599
0.0906237
0.0954491
0.0966203
0.100915
0.109357
0.116932
0.121332
0.122523
0.12123
0.135905
0.135563
0.134146
0.130454
0.123901
0.115435
0.106357
0.0979743
0.0910785
0.0859176
0.0815525
0.0770901
0.0710663
0.0687931
0.0772974
0.0877965
0.0956005
0.0996088
0.100581
0.0994784
0.1257
0.125433
0.124531
0.122329
0.118319
0.112817
0.10644
0.0999435
0.0935769
0.0868247
0.0775729
0.0641305
0.0501946
0.0488987
0.0599979
0.0714619
0.078733
0.0818947
0.0825094
0.0817074
0.116429
0.116218
0.115646
0.114401
0.112138
0.108848
0.104788
0.100305
0.0955975
0.0888874
0.0773704
0.0582047
0.0385527
0.0405314
0.0550579
0.0663291
0.0718909
0.0733713
0.0736399
0.07327
0.10865
0.108505
0.108169
0.107516
0.106374
0.10464
0.102488
0.100152
0.097686
0.0940519
0.0852095
0.0675571
0.0509926
0.0571859
0.0709033
0.0788835
0.0813934
0.0813997
0.0812974
0.0810466
0.101823
0.101742
0.101578
0.101269
0.100938
0.100367
0.0998338
0.0997374
0.100207
0.101319
0.10052
0.0937646
0.0881026
0.096382
0.104762
0.107941
0.107905
0.107142
0.106884
0.106568
0.0951201
0.0951055
0.0950953
0.095036
0.0949964
0.0954323
0.0962957
0.0982299
0.102164
0.109553
0.120045
0.129652
0.136485
0.145643
0.14774
0.145759
0.144228
0.143913
0.143689
0.14318
0.0876298
0.0876694
0.0878093
0.0879707
0.0884059
0.0892223
0.0912101
0.0949563
0.102035
0.115459
0.137648
0.164902
0.188906
0.195099
0.18929
0.183518
0.181489
0.181367
0.180635
0.179857
0.0787384
0.0788265
0.079104
0.0794744
0.080236
0.0813434
0.0840836
0.0889
0.0979282
0.115664
0.146974
0.190292
0.228131
0.231965
0.218698
0.210088
0.208956
0.209563
0.208417
0.207416
0.0677196
0.0678265
0.0681684
0.068723
0.0694873
0.0712506
0.0736519
0.0794466
0.0893692
0.10812
0.141761
0.187797
0.23622
0.238708
0.224322
0.219078
0.218783
0.21919
0.217509
0.216251
0.0541358
0.054218
0.0546099
0.0554648
0.0566887
0.0581732
0.0607546
0.0654711
0.0745129
0.0914861
0.120529
0.162582
0.20043
0.203038
0.193774
0.19407
0.200128
0.20316
0.201131
0.199485
0.0386003
0.0386372
0.0389635
0.0398609
0.041079
0.0429182
0.0454622
0.0489187
0.055127
0.0664208
0.0847655
0.106865
0.122915
0.127566
0.132796
0.143374
0.15157
0.154075
0.152436
0.150535
0.0218204
0.0217954
0.0219826
0.0226941
0.0236852
0.0246976
0.0261493
0.0287369
0.0325264
0.0374751
0.0434558
0.0417716
0.025618
0.0367688
0.0548048
0.0702538
0.0735616
0.0741656
0.0747798
0.0736652
0.00475448
0.0045949
0.00436509
0.00409305
0.00380405
0.00386688
0.00433001
0.00490384
0.00556979
0.00688195
0.0101229
0.00980815
-0.00423887
-0.000345229
0.00585248
0.00748801
-0.00140263
-0.00401102
0.000347139
0.00365953
0.0524695
0.225837
0.42841
0.603797
0.744733
0.856718
0.94984
1.02864
1.06401
1.04079
0.368304
0.493164
0.627163
0.743253
0.841451
0.923017
0.989032
1.03578
1.05927
1.0712
0.59488
0.680338
0.771751
0.852832
0.922635
0.981043
1.02744
1.06129
1.08564
1.10349
0.760257
0.820945
0.885065
0.943708
0.994853
1.03824
1.07383
1.10215
1.12532
1.14354
0.888901
0.933277
0.980326
1.02518
1.06481
1.09937
1.12891
1.15344
1.17407
1.19185
0.995081
1.02871
1.06755
1.10379
1.13701
1.16674
1.19268
1.21446
1.23247
1.2498
1.08884
1.11796
1.15242
1.18498
1.21529
1.24278
1.26677
1.28667
1.30229
1.31936
1.17815
1.20761
1.24192
1.27424
1.30407
1.33086
1.35388
1.37249
1.38594
1.40298
1.2739
1.30727
1.34411
1.37786
1.40805
1.43436
1.45641
1.47377
1.4857
1.5031
1.38918
1.42711
1.46586
1.50021
1.52965
1.55448
1.57492
1.59086
1.60237
1.62045
1.53429
1.57292
1.60912
1.63986
1.6656
1.68774
1.70684
1.7224
1.73485
1.75286
1.70948
1.74115
1.76737
1.78985
1.80986
1.82861
1.84635
1.86285
1.87821
1.89629
1.89816
1.91539
1.93045
1.9467
1.96263
1.97717
1.99039
2.00433
2.02188
2.04204
2.07994
2.08947
2.10102
2.11184
2.12113
2.13072
2.14152
2.1529
2.16427
2.17963
2.28718
2.29085
2.27591
2.2611
2.25483
2.26052
2.279
2.30932
2.3415
2.36816
2.59349
2.45863
2.382
2.33964
2.32223
2.32619
2.3536
2.41001
2.51263
2.737
0.881511
0.879379
0.874894
0.866263
0.854031
0.841891
0.831646
0.823724
0.818068
0.814762
0.814342
0.817013
0.822062
0.829242
0.838599
0.850117
0.862752
0.873776
0.879882
0.882931
0.805976
0.811821
0.818156
0.822641
0.825101
0.824764
0.822009
0.818173
0.814623
0.812308
0.812091
0.814215
0.817818
0.822061
0.825834
0.827692
0.826738
0.823242
0.818069
0.811445
0.79758
0.799876
0.803275
0.806263
0.808328
0.80981
0.810543
0.810196
0.809128
0.808184
0.80828
0.809628
0.811378
0.81263
0.812769
0.811848
0.810276
0.807922
0.804646
0.801721
0.792107
0.793193
0.795021
0.79739
0.799402
0.800813
0.801809
0.802524
0.802876
0.80303
0.803432
0.804148
0.804668
0.804672
0.804209
0.803322
0.801823
0.799715
0.797612
0.796224
0.786953
0.787616
0.78872
0.790415
0.792183
0.793796
0.795065
0.79604
0.796865
0.797576
0.798201
0.798643
0.798742
0.798498
0.797868
0.796763
0.795295
0.793721
0.792382
0.791597
0.782041
0.782502
0.783284
0.784573
0.786046
0.787542
0.788976
0.790229
0.791299
0.792261
0.793051
0.793486
0.793515
0.793143
0.792366
0.791311
0.790132
0.788959
0.788018
0.787496
0.777294
0.777638
0.778246
0.779306
0.780586
0.781938
0.783344
0.78474
0.786039
0.78721
0.788171
0.788699
0.788729
0.788327
0.787623
0.78676
0.785839
0.784919
0.784214
0.783831
0.77266
0.772927
0.773417
0.774319
0.775475
0.776749
0.778107
0.779541
0.780998
0.782389
0.783557
0.784224
0.784339
0.784057
0.783529
0.782857
0.782118
0.781408
0.780879
0.780586
0.768067
0.768279
0.768686
0.769479
0.770557
0.771781
0.773124
0.774594
0.776166
0.77777
0.779186
0.780063
0.78037
0.780289
0.779956
0.779471
0.778907
0.778368
0.777971
0.777741
0.763434
0.763604
0.763952
0.764674
0.765706
0.766906
0.76827
0.769808
0.771509
0.773328
0.775035
0.776217
0.776799
0.776958
0.776834
0.776537
0.776152
0.775763
0.775472
0.775289
0.758684
0.758819
0.759125
0.759805
0.760823
0.762046
0.763471
0.765122
0.767007
0.769096
0.771164
0.772723
0.773629
0.774059
0.774163
0.774056
0.773836
0.773583
0.773381
0.773236
0.753744
0.753852
0.754129
0.754791
0.75583
0.757123
0.758654
0.760472
0.762611
0.76505
0.767567
0.769581
0.770861
0.771597
0.771954
0.772052
0.771996
0.771869
0.771742
0.771626
0.748536
0.748618
0.748877
0.749545
0.750641
0.752042
0.753729
0.755777
0.758245
0.761138
0.764216
0.766771
0.768492
0.769582
0.770225
0.770554
0.770668
0.770667
0.770608
0.770517
0.742973
0.743032
0.743282
0.743977
0.745163
0.746714
0.748611
0.750953
0.753825
0.757273
0.761039
0.764267
0.766539
0.768061
0.769035
0.769624
0.769921
0.770046
0.770053
0.769984
0.736959
0.736996
0.737242
0.737982
0.739291
0.741044
0.743222
0.745951
0.749343
0.753481
0.758092
0.762145
0.765077
0.767113
0.768457
0.769329
0.769869
0.770134
0.770205
0.770155
0.730374
0.730382
0.730624
0.731429
0.7329
0.734915
0.73745
0.740675
0.744747
0.749775
0.755435
0.760468
0.764168
0.766801
0.768618
0.769823
0.770618
0.771036
0.771175
0.771144
0.723002
0.722998
0.723264
0.724146
0.725819
0.728131
0.731119
0.734956
0.739843
0.74594
0.752881
0.759128
0.763798
0.767178
0.769563
0.77121
0.772312
0.772905
0.773119
0.773105
0.714614
0.714577
0.714871
0.715876
0.717802
0.720523
0.724085
0.728707
0.734647
0.742093
0.750612
0.758329
0.764128
0.768374
0.771444
0.773642
0.775119
0.77593
0.776226
0.776227
0.704915
0.704855
0.705191
0.706358
0.708594
0.711827
0.716122
0.72175
0.729025
0.738169
0.748615
0.758076
0.76524
0.770546
0.774428
0.777266
0.779202
0.780277
0.780665
0.780676
0.693384
0.693298
0.693704
0.695083
0.697728
0.701626
0.70687
0.713788
0.722743
0.73397
0.746769
0.758358
0.767146
0.773707
0.778583
0.7822
0.784702
0.786083
0.786568
0.786581
0.679298
0.679188
0.679716
0.681416
0.684642
0.689481
0.696038
0.704699
0.715864
0.729743
0.74538
0.759422
0.770064
0.778063
0.784089
0.788571
0.7917
0.793412
0.793991
0.793999
0.661658
0.661529
0.662262
0.664461
0.668546
0.674724
0.683097
0.694091
0.7081
0.725249
0.74429
0.76122
0.774006
0.783639
0.790958
0.796429
0.800258
0.802312
0.802976
0.802972
0.638998
0.63886
0.639941
0.642935
0.648383
0.656575
0.667585
0.681818
0.699558
0.720767
0.743807
0.76399
0.779159
0.790585
0.799311
0.80586
0.810419
0.8128
0.813534
0.813513
0.608995
0.608886
0.610597
0.615005
0.622751
0.634156
0.649072
0.667767
0.690304
0.716418
0.744055
0.767858
0.785605
0.798987
0.809215
0.816948
0.822232
0.824905
0.825682
0.825635
0.567564
0.567625
0.570738
0.578067
0.590057
0.606733
0.627454
0.652173
0.680705
0.712563
0.745313
0.77299
0.793464
0.808885
0.820747
0.829722
0.835683
0.838557
0.839323
0.839242
0.507112
0.508333
0.51597
0.529754
0.549455
0.574465
0.603324
0.635717
0.671344
0.709633
0.747841
0.779522
0.802766
0.820265
0.833724
0.843906
0.850508
0.853449
0.854096
0.853972
0.434901
0.436796
0.451355
0.475159
0.505727
0.540488
0.578254
0.618887
0.662203
0.707707
0.752416
0.789252
0.816313
0.836797
0.852572
0.86437
0.871829
0.875026
0.875796
0.875796
0.360348
0.366746
0.3882
0.422156
0.462931
0.507228
0.553872
0.602795
0.653899
0.706769
0.758227
0.800469
0.831529
0.855206
0.873667
0.887341
0.895655
0.898558
0.899179
0.89929
0.299693
0.308235
0.334321
0.375265
0.423919
0.476285
0.530888
0.587538
0.646054
0.705981
0.763836
0.811133
0.845889
0.872367
0.892812
0.907738
0.916459
0.919985
0.921186
0.921371
0.250203
0.259323
0.288899
0.334951
0.389692
0.448559
0.509861
0.573304
0.638548
0.705016
0.76885
0.820794
0.858829
0.887644
0.909744
0.925815
0.935493
0.939746
0.94119
0.941402
0.208621
0.217974
0.249917
0.299858
0.359562
0.423836
0.490824
0.560186
0.631443
0.703885
0.773213
0.829393
0.870302
0.901058
0.92442
0.941338
0.951861
0.956661
0.958329
0.958569
0.17259
0.182019
0.215694
0.2688
0.33257
0.401434
0.473383
0.547982
0.624655
0.702556
0.776959
0.83699
0.880421
0.91277
0.937088
0.954689
0.965892
0.971135
0.972947
0.973212
0.140546
0.14998
0.184974
0.240723
0.307879
0.3807
0.45702
0.536323
0.617952
0.700916
0.780053
0.843633
0.889282
0.922956
0.94805
0.966222
0.977772
0.983415
0.985309
0.985585
0.111292
0.120748
0.156812
0.214777
0.284834
0.36111
0.441306
0.524876
0.611075
0.698792
0.782419
0.849354
0.897052
0.931905
0.957644
0.976153
0.98797
0.993831
0.995795
0.996088
0.08402
0.0935172
0.130549
0.190374
0.262955
0.342253
0.42592
0.513375
0.603813
0.696029
0.783988
0.854189
0.903892
0.939885
0.966258
0.985099
0.997047
1.00304
1.00498
1.00525
0.05819
0.0677463
0.105663
0.167074
0.241886
0.323844
0.410627
0.501629
0.596009
0.6925
0.784693
0.858173
0.909925
0.947116
0.97414
0.993317
1.00543
1.0114
1.01334
1.01349
0.0333039
0.0430416
0.0817355
0.144584
0.221368
0.305681
0.395273
0.489511
0.587556
0.688114
0.784476
0.861326
0.915264
0.953772
0.981525
1.00104
1.01326
1.01921
1.02108
1.02124
0.00913581
0.0191029
0.0585245
0.122757
0.201242
0.287641
0.379759
0.476948
0.578382
0.682807
0.783294
0.863651
0.919979
0.959978
0.988572
1.00849
1.02083
1.02671
1.02846
1.02859
-0.0144177
-0.00422711
0.0359877
0.101438
0.181418
0.269678
0.364047
0.463905
0.568457
0.676528
0.78109
0.865125
0.924102
0.965814
0.995389
1.01575
1.02815
1.0339
1.03549
1.03556
-0.0375041
-0.0269884
0.0139221
0.0805385
0.161867
0.251768
0.348139
0.450393
0.557785
0.669267
0.777809
0.86568
0.927612
0.971333
1.00205
1.02287
1.03527
1.04079
1.04217
1.04215
-0.0601018
-0.0492921
-0.00763227
0.0600368
0.142583
0.233934
0.332079
0.436456
0.546401
0.66102
0.773398
0.865221
0.930447
0.976555
1.00865
1.02994
1.04216
1.0473
1.04843
1.04834
-0.0822525
-0.0711136
-0.0286596
0.0399675
0.123598
0.216218
0.315917
0.422164
0.534364
0.651815
0.76782
0.863654
0.932498
0.981457
1.01531
1.0371
1.04891
1.05343
1.05424
1.05408
-0.103764
-0.092368
-0.0491512
0.0203663
0.104964
0.198697
0.299726
0.407594
0.521757
0.64172
0.761064
0.860881
0.933607
0.985939
1.02213
1.04468
1.05577
1.05921
1.05952
1.0593
-0.124774
-0.113014
-0.0690746
0.00125982
0.0867171
0.181416
0.283602
0.392833
0.508675
0.630825
0.753152
0.856797
0.93358
0.989786
1.02913
1.05313
1.06339
1.06499
1.06429
1.06396
-0.145111
-0.133021
-0.0883938
-0.0172988
0.0689383
0.164462
0.26763
0.378006
0.495236
0.619208
0.744137
0.851319
0.932205
0.992654
1.03602
1.06281
1.07307
1.07226
1.06919
1.06784
-0.16483
-0.152423
-0.107052
-0.0352539
0.0516681
0.147903
0.251894
0.363198
0.481556
0.607014
0.734108
0.844381
0.92928
0.994085
1.04207
1.07336
1.08609
1.08451
1.07739
1.06789
-0.183843
-0.171177
-0.125142
-0.0527566
0.0346964
0.131456
0.236053
0.347996
0.467172
0.59372
0.722501
0.835362
0.924219
0.993494
1.04618
1.08338
1.10206
1.10301
1.0931
1.0852
-0.202097
-0.1892
-0.142659
-0.0697628
0.018033
0.115119
0.220128
0.332387
0.452049
0.579221
0.709148
0.823924
0.91633
0.990113
1.04597
1.08746
1.10902
1.11521
1.07807
1.02488
-0.219297
-0.205715
-0.159486
-0.0862007
0.00157678
0.0987499
0.204073
0.316489
0.43625
0.563588
0.694002
0.80991
0.904622
0.983557
1.03937
1.07464
1.09711
1.08455
1.02764
0.963444
-0.235773
-0.22126
-0.175452
-0.101413
-0.0143128
0.0828327
0.187663
0.300364
0.419921
0.546995
0.677092
0.793172
0.887998
0.974911
1.02446
1.07583
1.04433
1.00195
0.932205
0.864132
-0.221775
-0.203803
-0.154853
-0.0762563
0.0159637
0.116817
0.226958
0.342499
0.465002
0.595363
0.719085
0.822162
0.908874
1.00163
1.04764
0.967861
0.92173