/*--------------------------------*- C++ -*----------------------------------*\
| =========                 |                                                 |
| \\      /  F ield         | OpenFOAM: The Open Source CFD Toolbox           |
|  \\    /   O peration     | Version:  4.0                                   |
|   \\  /    A nd           | Web:      www.OpenFOAM.org                      |
|    \\/     M anipulation  |                                                 |
\*---------------------------------------------------------------------------*/
FoamFile
{
    version     2.0;
    format      ascii;
    class       volVectorField;
    location    "38";
    object      U;
}
// * * * * * * * * * * * * * * * * * * * * * * * * * * * * * * * * * * * * * //

dimensions      [0 1 -1 0 0 0 0];

internalField   nonuniform List<vector> 
8800
(
(0.980153 -0.0915212 0)
(1.00234 -0.0587239 0)
(0.999602 -0.0321252 0)
(0.999994 -0.0165171 0)
(1.00006 -0.00883241 0)
(1.00005 -0.00508363 0)
(1.00003 -0.00299083 0)
(0.999999 -0.00169728 0)
(0.999983 -0.000802956 0)
(1.00006 -0.000109062 0)
(0.999983 0.000592511 0)
(0.999997 0.00134224 0)
(1.00001 0.0023747 0)
(1.00002 0.00398803 0)
(1.00003 0.00673834 0)
(0.999991 0.0120425 0)
(0.999809 0.0230924 0)
(0.999042 0.0431578 0)
(1.00723 0.079028 0)
(0.775023 0.0478396 0)
(0.358976 -0.0147491 0)
(1.04649 -0.0724935 0)
(1.08848 -0.0660309 0)
(1.04946 -0.0509259 0)
(1.02554 -0.0377066 0)
(1.0127 -0.0258983 0)
(1.00653 -0.0167126 0)
(1.0036 -0.0102493 0)
(1.00217 -0.0056351 0)
(1.0015 -0.00204972 0)
(1.00138 0.00115497 0)
(1.00173 0.00445726 0)
(1.00271 0.00834824 0)
(1.00473 0.0136756 0)
(1.00896 0.021371 0)
(1.01794 0.0318708 0)
(1.0358 0.0446488 0)
(1.06742 0.0580961 0)
(1.09471 0.0699642 0)
(0.845657 0.0555039 0)
(0.217759 -0.00138161 0)
(1.07566 -0.0506678 0)
(1.09942 -0.0489543 0)
(1.06438 -0.0400395 0)
(1.03986 -0.032578 0)
(1.02375 -0.0253678 0)
(1.01398 -0.0181786 0)
(1.00848 -0.0115873 0)
(1.00564 -0.00584943 0)
(1.00448 -0.000572551 0)
(1.0048 0.00452544 0)
(1.00665 0.00980811 0)
(1.01057 0.0157904 0)
(1.01788 0.0225683 0)
(1.0305 0.0296913 0)
(1.05049 0.0367884 0)
(1.08005 0.0445716 0)
(1.10568 0.0519066 0)
(0.943331 0.0409961 0)
(0.21724 0.00140332 0)
(0.176599 -0.000629229 0)
(1.01936 -0.0354811 0)
(1.1057 -0.0414371 0)
(1.07796 -0.0364263 0)
(1.05239 -0.0303828 0)
(1.03514 -0.0245173 0)
(1.02331 -0.0187585 0)
(1.01551 -0.0127927 0)
(1.01092 -0.0067239 0)
(1.0089 -0.000510012 0)
(1.00944 0.00563267 0)
(1.01253 0.0115409 0)
(1.01848 0.0173248 0)
(1.02806 0.0229272 0)
(1.04228 0.0285042 0)
(1.06311 0.0342978 0)
(1.09389 0.0401905 0)
(1.09449 0.0417303 0)
(0.83035 0.0227545 0)
(0.175711 0.000646465 0)
(0.15467 -0.000463095 0)
(0.958082 -0.025711 0)
(1.10436 -0.0351502 0)
(1.08803 -0.0327072 0)
(1.06117 -0.0282015 0)
(1.04311 -0.0232544 0)
(1.03075 -0.0180012 0)
(1.02217 -0.0125047 0)
(1.01663 -0.00663565 0)
(1.01401 -0.000215879 0)
(1.01467 0.0062243 0)
(1.01847 0.0120843 0)
(1.02525 0.0174044 0)
(1.03539 0.0224367 0)
(1.05015 0.0272968 0)
(1.07209 0.0317638 0)
(1.10107 0.0356584 0)
(1.06984 0.0338946 0)
(0.742829 0.0144202 0)
(0.153344 0.000482507 0)
(0.139965 -0.0003352 0)
(0.900996 -0.0193481 0)
(1.09672 -0.030267 0)
(1.09614 -0.0294036 0)
(1.06883 -0.0256318 0)
(1.04998 -0.0215765 0)
(1.03704 -0.0169333 0)
(1.02808 -0.0117304 0)
(1.02216 -0.00605712 0)
(1.0192 0.000243821 0)
(1.01986 0.0065755 0)
(1.02389 0.0122086 0)
(1.03092 0.0172056 0)
(1.04143 0.0217145 0)
(1.05684 0.0256995 0)
(1.07965 0.0292458 0)
(1.10345 0.0319815 0)
(1.0382 0.0280192 0)
(0.676221 0.0102601 0)
(0.138102 0.000358132 0)
(0.129206 -0.000253947 0)
(0.851037 -0.0149511 0)
(1.08429 -0.0261714 0)
(1.10175 -0.0265415 0)
(1.07559 -0.0232463 0)
(1.05623 -0.0196328 0)
(1.04287 -0.0155045 0)
(1.03354 -0.0107094 0)
(1.02735 -0.005283 0)
(1.02419 0.000820785 0)
(1.02476 0.00693428 0)
(1.02882 0.0122771 0)
(1.03603 0.016837 0)
(1.04683 0.020736 0)
(1.06262 0.0241351 0)
(1.08588 0.0272104 0)
(1.10277 0.0290604 0)
(1.00376 0.023426 0)
(0.624475 0.00784005 0)
(0.126689 0.000281701 0)
(0.121001 -0.000195304 0)
(0.808457 -0.0117614 0)
(1.06888 -0.0225775 0)
(1.10519 -0.0239201 0)
(1.08176 -0.0210781 0)
(1.06192 -0.0177057 0)
(1.04828 -0.0138832 0)
(1.0387 -0.00943563 0)
(1.03226 -0.00430806 0)
(1.02889 0.00152395 0)
(1.02932 0.00732832 0)
(1.03337 0.0122969 0)
(1.04065 0.0163932 0)
(1.05157 0.0198285 0)
(1.06764 0.0228313 0)
(1.09133 0.0256123 0)
(1.09929 0.0265783 0)
(0.969048 0.0197828 0)
(0.583129 0.00624906 0)
(0.11769 0.000228979 0)
(0.114636 -0.000150771 0)
(0.772553 -0.00936592 0)
(1.05189 -0.0193974 0)
(1.1074 -0.0215007 0)
(1.08749 -0.0190824 0)
(1.06724 -0.0159062 0)
(1.05336 -0.0122606 0)
(1.0436 -0.00802595 0)
(1.03694 -0.00317292 0)
(1.03333 0.00236314 0)
(1.03359 0.00783665 0)
(1.03756 0.0124051 0)
(1.0448 0.0161117 0)
(1.05577 0.0191935 0)
(1.0721 0.0218465 0)
(1.0955 0.0242761 0)
(1.09308 0.0244521 0)
(0.935454 0.0169153 0)
(0.549216 0.00514012 0)
(0.11036 0.000191626 0)
(0.109668 -0.000115636 0)
(0.742432 -0.00750225 0)
(1.03443 -0.0165617 0)
(1.10862 -0.0191824 0)
(1.09287 -0.0170738 0)
(1.07234 -0.0140116 0)
(1.05819 -0.0105099 0)
(1.04824 -0.00646397 0)
(1.04139 -0.00184021 0)
(1.03754 0.00338887 0)
(1.03758 0.0084824 0)
(1.04137 0.0126425 0)
(1.04851 0.0159402 0)
(1.05952 0.0186551 0)
(1.07608 0.0210227 0)
(1.09848 0.0231336 0)
(1.08458 0.022599 0)
(0.903655 0.0146676 0)
(0.520732 0.00434346 0)
(0.10422 0.000165003 0)
(0.105806 -8.68941e-05 0)
(0.71729 -0.00599158 0)
(1.01734 -0.0140008 0)
(1.10898 -0.016961 0)
(1.09814 -0.0151794 0)
(1.0773 -0.0121718 0)
(1.06283 -0.00873468 0)
(1.05268 -0.0047887 0)
(1.04562 -0.000331615 0)
(1.0415 0.00461222 0)
(1.04124 0.00932844 0)
(1.0448 0.0131076 0)
(1.05179 0.0160623 0)
(1.0628 0.0184563 0)
(1.07963 0.0205438 0)
(1.10019 0.0222672 0)
(1.07424 0.0210479 0)
(0.873839 0.0129307 0)
(0.496262 0.0037704 0)
(0.0989307 0.000147561 0)
(0.102864 -6.17642e-05 0)
(0.696532 -0.0047113 0)
(1.00127 -0.0116268 0)
(1.10856 -0.0147227 0)
(1.10311 -0.0132051 0)
(1.08218 -0.010233 0)
(1.06741 -0.00681874 0)
(1.05701 -0.00293851 0)
(1.04966 0.00137823 0)
(1.0452 0.00608844 0)
(1.04458 0.0104754 0)
(1.04784 0.0138684 0)
(1.05468 0.0164431 0)
(1.06569 0.0184865 0)
(1.08269 0.0202667 0)
(1.10089 0.0215977 0)
(1.06237 0.0197238 0)
(0.845983 0.0115834 0)
(0.4748 0.00335293 0)
(0.0942467 0.000135652 0)
(0.100725 -3.848e-05 0)
(0.679723 -0.00357115 0)
(0.986728 -0.00937863 0)
(1.10764 -0.0123925 0)
(1.10781 -0.0110076 0)
(1.08703 -0.00801596 0)
(1.07191 -0.00461072 0)
(1.06119 -0.000794691 0)
(1.05349 0.00340002 0)
(1.04861 0.00788398 0)
(1.04755 0.0119149 0)
(1.05047 0.0149024 0)
(1.05711 0.0170585 0)
(1.06811 0.0187131 0)
(1.08519 0.0201845 0)
(1.10062 0.0211396 0)
(1.04931 0.0186511 0)
(0.81991 0.0105611 0)
(0.455582 0.0030587 0)
(0.0899816 0.000129378 0)
(0.099332 -1.49273e-05 0)
(0.666619 -0.00249975 0)
(0.974104 -0.00716741 0)
(1.10654 -0.00993568 0)
(1.11239 -0.00866245 0)
(1.09192 -0.00567261 0)
(1.07641 -0.0022097 0)
(1.06536 0.00164494 0)
(1.05727 0.00578744 0)
(1.05187 0.0100648 0)
(1.05026 0.0137412 0)
(1.05274 0.0163083 0)
(1.05909 0.018066 0)
(1.07007 0.0193745 0)
(1.08728 0.0204903 0)
(1.09935 0.0209795 0)
(1.03524 0.0178471 0)
(0.795362 0.00981249 0)
(0.438018 0.00286367 0)
(0.085987 0.000127899 0)
(0.0986708 1.02677e-05 0)
(0.657119 -0.00144086 0)
(0.963746 -0.0049168 0)
(1.10546 -0.00725118 0)
(1.11682 -0.00603156 0)
(1.0969 -0.00302115 0)
(1.08102 0.000569726 0)
(1.06954 0.00450426 0)
(1.06091 0.00862072 0)
(1.05487 0.0127349 0)
(1.0526 0.0160644 0)
(1.05458 0.018172 0)
(1.06062 0.0194477 0)
(1.07149 0.02031 0)
(1.08862 0.0210561 0)
(1.09688 0.0210045 0)
(1.02024 0.0172238 0)
(0.772089 0.00926911 0)
(0.421647 0.00274138 0)
(0.0821382 0.000129093 0)
(0.0987672 2.89322e-05 0)
(0.651209 -0.000341681 0)
(0.956035 -0.00257803 0)
(1.10489 -0.00427615 0)
(1.12131 -0.00290451 0)
(1.10205 0.000222778 0)
(1.08574 0.00391953 0)
(1.07374 0.00790753 0)
(1.06451 0.0120359 0)
(1.05771 0.0160008 0)
(1.0546 0.0189539 0)
(1.05589 0.0205596 0)
(1.06152 0.0212809 0)
(1.0723 0.0215613 0)
(1.08928 0.0218631 0)
(1.0931 0.0213178 0)
(1.00452 0.0168999 0)
(0.749814 0.00896159 0)
(0.406057 0.00270096 0)
(0.0783367 0.000134418 0)
(0.0996924 7.13082e-05 0)
(0.649073 0.000827414 0)
(0.95127 -7.07924e-05 0)
(1.1052 -0.00101079 0)
(1.12613 0.000552011 0)
(1.10738 0.00379404 0)
(1.09058 0.00771721 0)
(1.07801 0.0119267 0)
(1.068 0.0161604 0)
(1.06018 0.0199984 0)
(1.05611 0.0225485 0)
(1.05663 0.0236115 0)
(1.06172 0.0237642 0)
(1.07234 0.0235152 0)
(1.08886 0.0232442 0)
(1.088 0.0220166 0)
(0.98791 0.0168644 0)
(0.728154 0.00886457 0)
(0.390837 0.00273437 0)
(0.0744607 0.000143575 0)
(0.101595 9.89949e-05 0)
(0.650807 0.00203087 0)
(0.949775 0.00265055 0)
(1.10662 0.0027034 0)
(1.13127 0.00448974 0)
(1.11312 0.00796448 0)
(1.09587 0.0122328 0)
(1.08261 0.0167548 0)
(1.07171 0.0211547 0)
(1.06273 0.0249024 0)
(1.0574 0.0270437 0)
(1.05688 0.027504 0)
(1.0613 0.0269927 0)
(1.07158 0.0261389 0)
(1.08732 0.0251553 0)
(1.08133 0.0230827 0)
(0.970333 0.0171342 0)
(0.70676 0.00899791 0)
(0.375606 0.00283979 0)
(0.0704183 0.000154942 0)
(0.104591 0.000148797 0)
(0.65715 0.00351114 0)
(0.952041 0.00563524 0)
(1.10977 0.00694205 0)
(1.13697 0.0092512 0)
(1.11931 0.013147 0)
(1.10149 0.017798 0)
(1.08732 0.022645 0)
(1.07519 0.0272432 0)
(1.06472 0.0309198 0)
(1.05789 0.0326011 0)
(1.05625 0.0323524 0)
(1.05989 0.0310408 0)
(1.06977 0.0294412 0)
(1.08439 0.0277294 0)
(1.07286 0.0247006 0)
(0.951646 0.0179178 0)
(0.685079 0.00943142 0)
(0.359905 0.0030366 0)
(0.0661238 0.000168014 0)
(0.108971 0.000214028 0)
(0.668268 0.00520256 0)
(0.95838 0.00903785 0)
(1.11518 0.011708 0)
(1.14372 0.0147057 0)
(1.12624 0.019208 0)
(1.1077 0.024397 0)
(1.0925 0.0297289 0)
(1.07901 0.0346643 0)
(1.06678 0.0382881 0)
(1.05809 0.0394278 0)
(1.05496 0.0384 0)
(1.0575 0.036226 0)
(1.06682 0.0337836 0)
(1.07998 0.0312794 0)
(1.06252 0.02718 0)
(0.93136 0.0193609 0)
(0.662395 0.0102661 0)
(0.343102 0.00335145 0)
(0.0614624 0.000182776 0)
(0.11501 0.000297998 0)
(0.684684 0.00720199 0)
(0.969415 0.0130199 0)
(1.12319 0.0171802 0)
(1.15182 0.0209705 0)
(1.13416 0.0262695 0)
(1.11469 0.0322798 0)
(1.09816 0.0383614 0)
(1.08285 0.0437467 0)
(1.06837 0.0473345 0)
(1.0575 0.0478581 0)
(1.05265 0.0459083 0)
(1.05399 0.0427952 0)
(1.06262 0.039488 0)
(1.07398 0.0361045 0)
(1.04989 0.030692 0)
(0.909009 0.0216655 0)
(0.637741 0.0116187 0)
(0.324369 0.00381199 0)
(0.0562852 0.000201971 0)
(0.123131 0.000413638 0)
(0.707079 0.009752 0)
(0.985737 0.0178497 0)
(1.13437 0.0237784 0)
(1.16164 0.0287008 0)
(1.14349 0.0351579 0)
(1.12284 0.0422653 0)
(1.1045 0.0492253 0)
(1.08685 0.0550209 0)
(1.06964 0.0583855 0)
(1.05617 0.0580532 0)
(1.04933 0.0549809 0)
(1.04929 0.050817 0)
(1.05701 0.0465819 0)
(1.06624 0.0421763 0)
(1.0347 0.0353767 0)
(0.883972 0.0249425 0)
(0.609886 0.0134678 0)
(0.302847 0.00439746 0)
(0.0504261 0.000224724 0)
(0.134028 0.000582159 0)
(0.736487 0.0132381 0)
(1.0083 0.0240074 0)
(1.14976 0.0320356 0)
(1.17409 0.0385434 0)
(1.15472 0.0466785 0)
(1.13233 0.0550386 0)
(1.11151 0.0628463 0)
(1.09087 0.0689283 0)
(1.07037 0.0718406 0)
(1.05388 0.070379 0)
(1.04481 0.06593 0)
(1.04329 0.0604787 0)
(1.05004 0.0551601 0)
(1.0565 0.0498381 0)
(1.01669 0.041496 0)
(0.855239 0.0292241 0)
(0.577566 0.015749 0)
(0.277818 0.00507442 0)
(0.0437621 0.000250687 0)
(0.148881 0.000848439 0)
(0.774657 0.0183076 0)
(1.03855 0.0323078 0)
(1.1703 0.0428856 0)
(1.19013 0.0516127 0)
(1.16815 0.0615495 0)
(1.14305 0.0712546 0)
(1.11895 0.0798349 0)
(1.09463 0.0859982 0)
(1.07022 0.0881199 0)
(1.05032 0.0851816 0)
(1.03879 0.079092 0)
(1.03567 0.0721179 0)
(1.04152 0.0655111 0)
(1.04473 0.0590058 0)
(0.995052 0.0489829 0)
(0.821557 0.0343054 0)
(0.539707 0.0182894 0)
(0.2489 0.00576311 0)
(0.0362691 0.000273194 0)
(0.169836 0.00131457 0)
(0.824811 0.0261563 0)
(1.07916 0.0444825 0)
(1.19675 0.0581552 0)
(1.21004 0.0694692 0)
(1.18387 0.081181 0)
(1.15495 0.0921418 0)
(1.12666 0.101167 0)
(1.0979 0.106898 0)
(1.06902 0.107657 0)
(1.04536 0.102782 0)
(1.03111 0.0947737 0)
(1.02628 0.0860966 0)
(1.031 0.0779945 0)
(1.03016 0.0699886 0)
(0.968738 0.0576762 0)
(0.781821 0.0400584 0)
(0.495667 0.0209574 0)
(0.216207 0.00639778 0)
(0.0281015 0.000285107 0)
(0.200319 0.0023681 0)
(0.892856 0.039694 0)
(1.13288 0.0644709 0)
(1.22917 0.0814775 0)
(1.23346 0.0954639 0)
(1.20138 0.108408 0)
(1.1674 0.119759 0)
(1.1339 0.128219 0)
(1.09996 0.132385 0)
(1.06619 0.130703 0)
(1.03862 0.123001 0)
(1.02166 0.112562 0)
(1.01495 0.102028 0)
(1.018 0.0923865 0)
(1.01193 0.0824843 0)
(0.936781 0.0675093 0)
(0.734901 0.046282 0)
(0.44571 0.0236691 0)
(0.180826 0.00697373 0)
(0.0197034 0.00028147 0)
(0.242039 0.00863371 6.8672e-20)
(0.982919 0.0670143 5.95606e-20)
(1.19767 0.098455 -2.05679e-20)
(1.26533 0.116737 0)
(1.25787 0.133623 -4.97243e-34)
(1.21874 0.146055 7.19734e-21)
(1.17892 0.156083 -1.25478e-20)
(1.1395 0.162482 0)
(1.09983 0.163857 2.48373e-34)
(1.06069 0.158727 -1.46608e-20)
(1.02881 0.147456 0)
(1.00896 0.134078 -1.70093e-20)
(1.00024 0.121442 -4.99033e-20)
(1.00084 0.110511 -2.34882e-20)
(0.988953 0.0995931 -7.02964e-21)
(0.895361 0.0815464 -4.16436e-21)
(0.675366 0.054759 0)
(0.387149 0.0274915 2.91611e-21)
(0.143554 0.0084442 3.44504e-21)
(0.0118466 0.00051647 6.20258e-20)
(0.270738 0.0241278 5.58351e-20)
(1.05691 0.109619 5.19661e-22)
(1.25049 0.147082 5.74609e-21)
(1.29874 0.165825 0)
(1.27964 0.182268 -2.61024e-20)
(1.23382 0.192949 -2.91246e-20)
(1.18797 0.200861 -1.28806e-20)
(1.14231 0.204823 -4.45304e-20)
(1.09644 0.203388 0)
(1.0511 0.195033 6.26966e-20)
(1.01373 0.180653 6.14585e-20)
(0.989875 0.164765 1.81269e-20)
(0.978678 0.150195 6.53307e-20)
(0.976062 0.137679 9.10669e-20)
(0.953246 0.123873 0)
(0.838325 0.100331 1.27933e-19)
(0.605627 0.0661443 1.83678e-19)
(0.328293 0.0332936 2.04095e-19)
(0.110833 0.0105665 -2.335e-19)
(0.00544985 0.000531656 -4.38363e-21)
(0.271018 0.039698 0)
(1.10297 0.164991 1.11253e-20)
(1.28641 0.20695 0)
(1.32507 0.225647 -3.76753e-20)
(1.29709 0.238703 0)
(1.24537 0.245872 -5.87971e-20)
(1.19366 0.250194 2.6685e-20)
(1.14211 0.250682 -9.11336e-20)
(1.09042 0.245905 -1.56626e-21)
(1.03934 0.234462 3.27615e-20)
(0.996901 0.217766 1.34856e-19)
(0.969104 0.200423 -3.01836e-22)
(0.9548 0.184687 -4.74414e-20)
(0.947484 0.169863 -8.58781e-20)
(0.91483 0.151217 1.0159e-19)
(0.793904 0.121538 -1.79746e-19)
(0.568413 0.0810001 -2.37218e-20)
(0.30796 0.0422231 0)
(0.105794 0.0141526 6.28012e-24)
(0.00504373 0.00072609 0)
(0.264168 0.0531916 1.78044e-19)
(1.12695 0.2235 -8.20071e-20)
(1.30886 0.271493 -5.6671e-20)
(1.3427 0.290142 1.86782e-20)
(1.30861 0.299226 -3.09559e-20)
(1.25224 0.302072 1.24159e-19)
(1.19565 0.30213 5.61687e-20)
(1.13913 0.298688 0)
(1.08246 0.29037 -1.67696e-19)
(1.02642 0.275838 0)
(0.979459 0.256823 -7.12144e-20)
(0.947755 0.237717 -8.65957e-20)
(0.929156 0.219999 -5.16789e-20)
(0.915447 0.201929 -6.23645e-20)
(0.876732 0.179282 0)
(0.761192 0.145568 0)
(0.55194 0.100653 -1.55236e-19)
(0.309816 0.0556373 3.06499e-20)
(0.113867 0.0203703 -1.79948e-20)
(0.00769369 0.0014637 -2.10383e-20)
(0.256374 0.0651738 -9.48951e-20)
(1.13655 0.281752 0)
(1.3212 0.33685 1.27975e-19)
(1.35247 0.355818 5.54767e-20)
(1.31418 0.36093 6.95847e-20)
(1.25427 0.359289 0)
(1.19392 0.355059 5.63913e-20)
(1.13346 0.3477 1.01958e-19)
(1.07269 0.335799 8.68371e-20)
(1.01236 0.31793 1.53957e-19)
(0.961326 0.295866 0)
(0.925652 0.273985 -1.86866e-19)
(0.902306 0.253473 -1.11714e-19)
(0.882603 0.232606 -6.58092e-20)
(0.841325 0.207772 4.01627e-19)
(0.735548 0.172565 4.7826e-20)
(0.544327 0.123603 2.25228e-19)
(0.318453 0.0721069 -1.06409e-18)
(0.126709 0.0289269 6.3181e-19)
(0.0118468 0.00285929 -7.6148e-19)
(0.249067 0.0759874 -7.5029e-20)
(1.13699 0.337906 1.81133e-20)
(1.32576 0.40114 -1.67735e-20)
(1.35572 0.420892 -6.57232e-20)
(1.31455 0.422185 -6.43713e-20)
(1.25204 0.416196 1.75476e-21)
(1.18885 0.407942 -6.08974e-20)
(1.12529 0.396867 1.0642e-19)
(1.0611 0.3814 -1.86747e-19)
(0.997002 0.359838 0)
(0.942122 0.334048 -8.52265e-20)
(0.902671 0.308789 -1.61334e-21)
(0.874947 0.285401 -1.21849e-19)
(0.850843 0.262564 0)
(0.80955 0.236686 -8.68606e-20)
(0.713548 0.200523 -2.06531e-19)
(0.538845 0.14796 5.52807e-19)
(0.327543 0.0901309 -5.43403e-19)
(0.138948 0.0387013 7.73086e-19)
(0.0158168 0.00461278 -8.0331e-19)
(0.243038 0.0860123 -4.08327e-22)
(1.13179 0.391337 -1.50226e-20)
(1.32463 0.463463 -6.13842e-20)
(1.35366 0.484222 3.06834e-20)
(1.31064 0.482075 -3.32039e-20)
(1.24633 0.472104 0)
(1.18103 0.460182 -5.90426e-20)
(1.11495 0.445619 -1.12032e-19)
(1.04781 0.426606 -9.77094e-20)
(0.980233 0.4011 0)
(0.921772 0.371249 -8.89222e-20)
(0.878906 0.342556 -1.08533e-19)
(0.847725 0.316648 1.31854e-19)
(0.820753 0.292414 -7.95411e-20)
(0.780207 0.266 -3.77746e-19)
(0.692633 0.228848 2.25511e-19)
(0.532231 0.172866 6.75094e-20)
(0.333302 0.108568 0)
(0.148084 0.0487833 -7.45406e-19)
(0.0190312 0.0064867 -2.73141e-20)
(0.238374 0.0955796 -7.53813e-21)
(1.12332 0.44195 1.33174e-20)
(1.31933 0.523554 3.15227e-20)
(1.34752 0.54518 1.03232e-19)
(1.3033 0.540079 -1.30555e-19)
(1.23787 0.526603 1.31308e-19)
(1.17101 0.511388 1.26796e-19)
(1.10283 0.493558 -1.79131e-19)
(1.03302 0.471049 5.84455e-20)
(0.962202 0.441504 -3.7834e-19)
(0.900431 0.407552 -9.9571e-20)
(0.85466 0.37556 0)
(0.820927 0.347407 1.42569e-19)
(0.792286 0.321988 1.69864e-19)
(0.752807 0.295035 2.02767e-19)
(0.671132 0.256388 -2.4394e-19)
(0.522678 0.197153 -7.21878e-20)
(0.333821 0.126161 8.49565e-20)
(0.152472 0.0580253 0)
(0.0209677 0.00814893 -5.90692e-20)
(0.234967 0.104861 5.79871e-20)
(1.11328 0.48992 -4.5524e-20)
(1.31118 0.58133 -3.197e-20)
(1.33828 0.603462 6.824e-20)
(1.29329 0.595887 -6.36871e-20)
(1.22729 0.579386 -4.04312e-21)
(1.15927 0.561255 -1.37537e-19)
(1.08927 0.540381 -6.45397e-20)
(1.01702 0.514467 -1.69198e-19)
(0.943149 0.480942 2.53141e-22)
(0.878324 0.442983 -3.12828e-19)
(0.830095 0.407806 2.59164e-19)
(0.794497 0.377475 -1.55701e-19)
(0.764873 0.350694 1.86046e-19)
(0.726378 0.322593 0)
(0.649358 0.281978 -1.31641e-19)
(0.510079 0.219311 -6.20662e-22)
(0.329371 0.141533 -3.68417e-19)
(0.151969 0.0654438 -5.41776e-20)
(0.0215514 0.00934975 0)
(0.232666 0.113998 0)
(1.10267 0.535478 -4.51709e-20)
(1.30096 0.636106 -5.69302e-20)
(1.32677 0.658902 -6.81672e-20)
(1.28131 0.649298 -7.44901e-20)
(1.21512 0.630248 0)
(1.14621 0.60953 -6.56982e-20)
(1.07462 0.585834 -1.14413e-21)
(1.00009 0.556681 3.62148e-19)
(0.923345 0.519336 -5.23175e-20)
(0.855677 0.477511 -2.25282e-19)
(0.805303 0.439197 1.35368e-19)
(0.768292 0.406591 -2.06722e-21)
(0.73803 0.37823 1.97789e-19)
(0.700246 0.348579 1.21199e-19)
(0.626701 0.305473 -2.83777e-19)
(0.494504 0.238767 3.36567e-19)
(0.31998 0.154004 9.94993e-20)
(0.14756 0.0705732 4.10548e-19)
(0.020969 0.00997895 -1.09838e-18)
(0.231401 0.123112 5.44632e-21)
(1.09215 0.578792 -1.61657e-20)
(1.28959 0.687965 1.82316e-20)
(1.31374 0.711486 6.46542e-20)
(1.26796 0.700187 0)
(1.2018 0.679009 -6.72284e-20)
(1.13221 0.656014 2.17094e-19)
(1.05919 0.62973 1.42687e-19)
(0.98254 0.597556 0)
(0.903051 0.556624 -7.47473e-19)
(0.832675 0.511086 6.07234e-19)
(0.780349 0.469626 0)
(0.742167 0.434571 1.80823e-19)
(0.71148 0.404336 -2.03621e-21)
(0.674221 0.372737 -3.86583e-19)
(0.603071 0.326602 1.5148e-19)
(0.475771 0.254965 0)
(0.306325 0.163138 5.35674e-19)
(0.139474 0.0732983 0)
(0.0193313 0.0100004 -5.18027e-19)
(0.230953 0.132281 -2.48636e-21)
(1.08215 0.620006 -9.42608e-21)
(1.27752 0.736996 2.12247e-20)
(1.29975 0.761215 0)
(1.25375 0.748509 -7.25646e-20)
(1.18774 0.725564 0)
(1.1176 0.700558 -2.19712e-19)
(1.04329 0.671934 -6.87671e-20)
(0.964649 0.637006 6.48894e-20)
(0.882521 0.59277 -3.69376e-19)
(0.809478 0.543687 6.30479e-20)
(0.755241 0.499033 0)
(0.716005 0.461321 -3.85907e-19)
(0.684954 0.428866 2.06425e-21)
(0.648002 0.394855 0)
(0.578336 0.345078 2.08903e-21)
(0.45421 0.267663 4.87831e-19)
(0.288917 0.168586 -4.62106e-19)
(0.128588 0.0736714 1.36178e-19)
(0.0170365 0.00954077 0)
(0.230964 0.141355 0)
(1.07285 0.659223 -3.94308e-21)
(1.26507 0.783333 -1.34135e-20)
(1.28528 0.808131 -2.39229e-21)
(1.23907 0.794257 -3.17046e-20)
(1.17326 0.769841 -1.51431e-19)
(1.10267 0.743076 8.08579e-20)
(1.02719 0.712364 -7.88993e-20)
(0.946679 0.674972 2.86498e-19)
(0.861973 0.627762 -5.89755e-19)
(0.78622 0.575325 -3.50512e-21)
(0.73001 0.527425 -1.70695e-19)
(0.689687 0.486819 6.24392e-19)
(0.658267 0.451817 -2.41577e-21)
(0.621382 0.414936 -2.9857e-19)
(0.552339 0.360813 -5.33234e-19)
(0.430151 0.276867 0)
(0.268447 0.170501 0)
(0.11552 0.0717276 1.46989e-19)
(0.0143377 0.00860781 -8.60561e-20)
(0.231578 0.150455 5.19672e-21)
(1.06422 0.696305 1.03168e-21)
(1.25258 0.827071 1.40139e-20)
(1.27069 0.852301 0)
(1.22422 0.837459 -1.55956e-21)
(1.15864 0.81181 -1.48169e-19)
(1.08768 0.783519 2.01647e-19)
(1.01113 0.750974 3.17306e-19)
(0.928857 0.711434 3.74258e-19)
(0.841613 0.661601 -4.82842e-19)
(0.763055 0.60605 -5.19653e-19)
(0.704684 0.554881 4.56165e-19)
(0.663147 0.511136 0)
(0.631269 0.473212 -1.35609e-19)
(0.594231 0.432944 -3.22543e-19)
(0.525113 0.37371 -3.82383e-19)
(0.403777 0.282399 -4.54013e-19)
(0.245576 0.168914 1.34263e-19)
(0.100837 0.0675117 -7.90012e-20)
(0.011302 0.00724487 2.87557e-22)
(0.232281 0.159468 0)
(1.05635 0.731771 0)
(1.24025 0.868334 2.55291e-21)
(1.2562 0.893846 0)
(1.20946 0.87818 9.36111e-20)
(1.1441 0.85149 1.0865e-19)
(1.07282 0.821877 0)
(0.995309 0.787754 3.88976e-20)
(0.911382 0.746383 6.27118e-19)
(0.821638 0.694305 -1.10831e-18)
(0.740137 0.635933 0)
(0.679337 0.581528 -2.92899e-19)
(0.636323 0.534394 -2.9335e-21)
(0.603821 0.493097 -2.379e-21)
(0.566434 0.448823 3.44367e-19)
(0.496675 0.383633 -3.76117e-22)
(0.375174 0.28418 -9.76269e-19)
(0.220639 0.16378 2.88624e-19)
(0.0855694 0.0615311 8.52885e-20)
(0.00826344 0.00563638 0)
(0.233008 0.168322 -4.28233e-20)
(1.04893 0.765595 -1.22593e-20)
(1.22812 0.907181 7.02277e-21)
(1.24199 0.932881 -7.92324e-20)
(1.19497 0.916482 1.50602e-19)
(1.12982 0.888916 0)
(1.05827 0.858171 1.2685e-19)
(0.979895 0.822711 -8.54781e-20)
(0.894421 0.779826 3.85933e-21)
(0.802225 0.725898 8.10061e-20)
(0.717625 0.665052 6.72085e-19)
(0.654053 0.607525 -1.02927e-19)
(0.60917 0.556777 -3.83442e-19)
(0.57575 0.511556 -1.57414e-19)
(0.537822 0.462433 1.86994e-19)
(0.467101 0.390266 -2.00134e-22)
(0.345216 0.282031 2.62955e-19)
(0.194906 0.155517 -6.2037e-19)
(0.0703862 0.0542253 7.3344e-19)
(0.00537194 0.00390803 1.06932e-19)
(0.233578 0.176891 1.943e-20)
(1.04193 0.79787 -9.1128e-21)
(1.21632 0.943732 6.13358e-21)
(1.22816 0.96953 -3.02543e-20)
(1.18087 0.952464 -2.54041e-20)
(1.11592 0.924144 -1.97254e-19)
(1.04416 0.892437 3.97882e-20)
(0.965019 0.855862 -3.58486e-19)
(0.878115 0.811763 -6.95078e-19)
(0.78352 0.75638 -6.61797e-19)
(0.695681 0.693477 0)
(0.628936 0.633037 -4.49003e-19)
(0.581674 0.578534 5.50882e-19)
(0.546831 0.528736 0)
(0.508091 0.473568 -3.99998e-19)
(0.436389 0.39309 2.39016e-19)
(0.314517 0.275616 -2.82291e-19)
(0.169572 0.144452 -3.33727e-19)
(0.0561968 0.046154 -5.90485e-19)
(0.00280713 0.00220946 -4.60341e-19)
(0.234441 0.185304 -2.51156e-20)
(1.03518 0.828554 9.81811e-21)
(1.20487 0.978068 1.59632e-20)
(1.2148 1.00388 -3.14196e-20)
(1.16727 0.986213 5.78741e-20)
(1.1025 0.957253 -1.15942e-19)
(1.03058 0.924723 1.30425e-19)
(0.950778 0.887247 -3.71977e-19)
(0.862556 0.842215 -4.12373e-19)
(0.765649 0.785763 6.93909e-19)
(0.674452 0.721259 1.47394e-18)
(0.604139 0.658229 0)
(0.553868 0.599955 0)
(0.516789 0.544915 -1.80941e-19)
(0.47668 0.482058 0)
(0.404258 0.391243 5.14127e-19)
(0.283958 0.264062 6.07295e-19)
(0.146436 0.130639 0)
(0.0442867 0.0379196 0)
(0.000741012 0.000736184 4.94532e-19)
(0.234919 0.193253 3.2054e-20)
(1.0287 0.857632 2.48767e-20)
(1.19381 1.01031 1.32751e-20)
(1.20194 1.03607 1.50854e-20)
(1.1542 1.01783 5.43606e-20)
(1.08962 0.988315 1.32253e-19)
(1.0176 0.95509 -1.81233e-19)
(0.937243 0.916897 2.3384e-23)
(0.847831 0.871188 -4.99493e-21)
(0.748711 0.814039 -5.44719e-21)
(0.654104 0.74843 7.58648e-19)
(0.579847 0.683231 0)
(0.525865 0.62135 5.5474e-19)
(0.485387 0.560527 3.85434e-19)
(0.442714 0.488028 9.30848e-19)
(0.369755 0.383636 2.76323e-19)
(0.254211 0.245199 -3.27278e-19)
(0.128991 0.112186 -1.92241e-19)
(0.0392705 0.0289292 0)
(0.000600556 6.1201e-05 5.3117e-19)
(0.235666 0.201185 -7.94255e-20)
(1.02244 0.885213 0)
(1.18311 1.0405 2.36912e-20)
(1.18959 1.06617 6.95323e-21)
(1.14171 1.04741 -4.64964e-20)
(1.07732 1.01742 -1.63896e-19)
(1.00528 0.983595 3.6482e-19)
(0.924456 0.94485 -2.95046e-20)
(0.833984 0.898695 0)
(0.732787 0.841183 -7.68485e-19)
(0.634789 0.774987 -1.64995e-18)
(0.55627 0.708146 6.62462e-20)
(0.4979 0.643002 7.61971e-19)
(0.452547 0.576159 0)
(0.405137 0.492206 6.26508e-19)
(0.330584 0.369791 0)
(0.22315 0.215026 0)
(0.120359 0.0778719 -2.08093e-19)
(0.060461 0.00805466 0)
(0.0268024 0.0108745 1.42333e-19)
(0.23601 0.208495 -9.47958e-20)
(1.01635 0.911593 0)
(1.17275 1.06886 4.61446e-20)
(1.17769 1.09442 0)
(1.12976 1.07521 1.93792e-20)
(1.06554 1.04484 0)
(0.993548 1.01056 2.01529e-20)
(0.91233 0.971453 5.16324e-20)
(0.820907 0.925105 5.1646e-20)
(0.717733 0.867587 -8.44935e-19)
(0.616367 0.801367 4.99541e-20)
(0.533251 0.733564 5.29782e-19)
(0.469717 0.665586 7.42041e-19)
(0.417639 0.592725 9.94752e-20)
(0.362181 0.496295 4.89527e-19)
(0.282293 0.351424 0)
(0.179439 0.172423 6.89987e-19)
(0.0919894 0.0192051 -4.04341e-19)
(0.0440288 0.0442969 4.69077e-19)
(-0.0689163 0.42874 -5.5383e-19)
(0.236315 0.215585 8.19939e-20)
(1.01019 0.936574 1.16908e-19)
(1.16263 1.09568 0)
(1.16611 1.12125 5.11279e-21)
(1.11815 1.1018 -4.04108e-20)
(1.05404 1.07128 2.54026e-19)
(0.982111 1.03678 1.33797e-19)
(0.900474 0.99765 0)
(0.808088 0.95151 3.49082e-19)
(0.7029 0.894549 -4.48564e-20)
(0.597949 0.829026 0)
(0.509661 0.761233 0)
(0.43985 0.690871 6.62515e-19)
(0.378986 0.611717 -3.0606e-19)
(0.310928 0.503071 -4.93789e-19)
(0.220088 0.333818 0)
(0.104037 0.161128 3.4703e-19)
(0.007193 0.435444 -4.02486e-19)
(0.0360915 1.87353 -2.22673e-19)
(0.0661057 2.80253 -2.83175e-19)
(0.236421 0.221813 -6.58328e-20)
(1.00415 0.960329 -1.57888e-19)
(1.15275 1.12095 3.20229e-20)
(1.15481 1.14651 1.16673e-20)
(1.10691 1.12696 0)
(1.04286 1.09643 1.65064e-19)
(0.971159 1.06194 1.93222e-19)
(0.889072 1.02301 -2.5673e-20)
(0.79579 0.977394 5.17417e-20)
(0.688661 0.921455 8.08636e-19)
(0.580133 0.857292 8.34932e-19)
(0.486474 0.790729 5.91761e-19)
(0.409336 0.718612 6.63971e-19)
(0.338513 0.631852 -7.1444e-19)
(0.257376 0.51542 -7.42427e-19)
(0.145564 0.362014 0)
(0.0514265 0.82578 0)
(0.107656 2.5403 1.93036e-19)
(0.10875 3.19415 0)
(0.111662 3.38521 4.67299e-19)
(0.23907 0.227472 0)
(0.998795 0.983032 0)
(1.14289 1.14454 0)
(1.14356 1.16999 6.19008e-21)
(1.09574 1.15045 -3.10514e-20)
(1.03177 1.12017 1.06527e-19)
(0.960588 1.08595 1.28185e-19)
(0.878082 1.04743 -2.54578e-20)
(0.78398 1.00262 4.43427e-19)
(0.675049 0.948168 -9.8235e-21)
(0.563074 0.886056 1.65241e-18)
(0.464067 0.821894 -6.76967e-20)
(0.378593 0.749671 8.05774e-20)
(0.298633 0.650448 1.02698e-19)
(0.195675 0.535626 -2.06906e-21)
(0.11177 0.9582 1.79993e-21)
(0.148947 2.6979 -1.00033e-18)
(0.159418 3.28772 -3.7981e-19)
(0.146727 3.42585 2.00048e-19)
(0.132319 3.44879 -2.24156e-19)
(0.156831 0.183928 4.23048e-20)
(0.988193 1.00745 0)
(1.13278 1.16669 -7.81583e-20)
(1.1329 1.19213 -4.80141e-20)
(1.08541 1.17305 -2.92499e-20)
(1.0217 1.14316 -1.058e-19)
(0.950299 1.10892 -1.37303e-19)
(0.867607 1.07104 3.02416e-19)
(0.772856 1.02732 -3.67442e-19)
(0.662393 0.974778 0)
(0.54721 0.91545 8.15519e-19)
(0.443029 0.854578 -4.83051e-19)
(0.348133 0.786997 0)
(0.258249 0.671623 9.55519e-20)
(0.163304 0.803994 2.28203e-19)
(0.16418 2.45899 -2.71658e-19)
(0.226773 3.32172 3.06902e-19)
(0.20445 3.44144 1.67795e-19)
(0.16954 3.46338 1.90991e-19)
(0.146441 3.47382 3.08855e-19)
(0.282437 0.266326 -7.41861e-20)
(0.973474 1.01758 0)
(1.11484 1.19175 9.3679e-20)
(1.11803 1.22441 7.12668e-20)
(1.0689 1.20627 5.17817e-21)
(1.00468 1.17699 8.02219e-20)
(0.932439 1.14424 1.58315e-19)
(0.849125 1.10747 2.33571e-20)
(0.753062 1.06573 3.5961e-19)
(0.639942 1.01673 7.12942e-19)
(0.519886 0.963249 4.67636e-20)
(0.407457 0.90934 4.31234e-19)
(0.294756 0.847682 7.573e-20)
(0.222326 0.971295 -9.42902e-20)
(0.238393 2.30709 -2.16707e-19)
(0.302346 3.32602 2.13539e-19)
(0.286181 3.47387 -2.39527e-19)
(0.248944 3.49575 -1.39363e-19)
(0.210469 3.52324 -1.23553e-19)
(0.157718 3.51659 -1.44087e-20)
(0.270347 0.263164 0)
(0.971365 1.04027 3.32953e-20)
(1.10694 1.21501 -2.12836e-20)
(1.10806 1.24763 -1.0696e-20)
(1.05857 1.2294 -8.5698e-21)
(0.994449 1.20044 -7.1141e-20)
(0.921882 1.16788 -9.34606e-20)
(0.838442 1.13187 2.15259e-20)
(0.741996 1.09151 -3.79804e-19)
(0.627856 1.04516 -1.42695e-20)
(0.50559 0.996185 -1.48956e-18)
(0.389565 0.947986 6.119e-20)
(0.282795 0.915063 -7.19109e-20)
(0.262618 1.47424 -8.8075e-20)
(0.339466 3.08421 1.7842e-20)
(0.362359 3.4719 8.64801e-22)
(0.321343 3.53107 3.64894e-19)
(0.282951 3.55549 1.85043e-19)
(0.232611 3.57945 -5.8323e-20)
(0.172075 3.57503 -7.32737e-20)
(0.253897 0.261461 8.99997e-20)
(0.967659 1.06562 2.33375e-19)
(1.0986 1.24039 -6.19482e-20)
(1.09754 1.27226 -4.03079e-20)
(1.04775 1.25388 0)
(0.983793 1.22503 -6.41651e-20)
(0.911193 1.19273 -1.20018e-19)
(0.827902 1.15745 1.95851e-20)
(0.73139 1.11855 -4.18582e-20)
(0.616736 1.07504 -6.60853e-19)
(0.49304 1.03085 -6.94526e-19)
(0.375192 0.989128 -5.09419e-19)
(0.284697 1.04243 -5.44395e-19)
(0.331029 2.15931 5.60618e-19)
(0.426702 3.37618 4.80053e-19)
(0.407227 3.53267 0)
(0.360108 3.57723 0)
(0.322426 3.61926 -4.71456e-20)
(0.268712 3.67996 0)
(0.184124 3.65489 -6.62804e-20)
(0.24293 0.263184 -1.4112e-19)
(0.961952 1.09204 -2.0603e-19)
(1.08886 1.26697 0)
(1.08573 1.29773 6.10805e-21)
(1.03573 1.27897 -3.27006e-20)
(0.972046 1.25009 -6.6715e-20)
(0.899741 1.21806 -6.80211e-20)
(0.816802 1.18342 1.43398e-20)
(0.720465 1.14589 -2.83238e-19)
(0.60569 1.10517 3.42881e-20)
(0.481379 1.06589 0)
(0.364121 1.03354 0)
(0.311122 1.28176 -5.03813e-19)
(0.414651 2.83848 2.06465e-19)