/*--------------------------------*- C++ -*----------------------------------*\
| =========                 |                                                 |
| \\      /  F ield         | OpenFOAM: The Open Source CFD Toolbox           |
|  \\    /   O peration     | Version:  4.0                                   |
|   \\  /    A nd           | Web:      www.OpenFOAM.org                      |
|    \\/     M anipulation  |                                                 |
\*---------------------------------------------------------------------------*/
FoamFile
{
    version     2.0;
    format      ascii;
    class       surfaceScalarField;
    location    "73";
    object      phi;
}
// * * * * * * * * * * * * * * * * * * * * * * * * * * * * * * * * * * * * * //

dimensions      [0 3 -1 0 0 0 0];

internalField   nonuniform List<scalar> 
1300
(
3.75095
5.62643
-3.31758
3.75095
-7.76145
5.62643
-4.39398
4.39398
-0.343282
0.343282
1.87639
1.87457
-2.68929
2.68929
-2.0613
2.0613
-2.52266
2.52266
-5.24639
5.24639
-5.06907
5.06907
4.65332
-4.65332
-6.31524
6.31524
-0.939115
0.939115
-3.68442
3.68442
3.1696
-3.1696
-2.0477
2.0477
0.0516134
-0.0516134
-0.553472
4.30442
3.19748
3.19748
-2.01281
2.01281
-4.86848
4.86848
6.21793
-6.21793
5.30285
-5.30285
-1.98528
-2.46582
1.80826
-11.4915
-5.9532
-5.9532
-8.44037
8.44037
-2.81394
2.81249
2.94633
-2.94633
-1.77193
1.77193
-4.3563
-0.0376751
-4.3563
4.36381
0.0301688
4.36381
-0.443259
0.0999775
-0.443259
4.00036
-4.00036
0.250989
0.0922925
0.250989
3.06537
-3.06537
-1.87712
3.7535
1.87384
-1.8719
6.17632
-1.87905
3.75362
-6.01402
6.01402
-2.93419
0.244902
-2.93419
2.476
0.213286
2.476
-6.84976
6.84976
-2.09754
0.036234
-2.09754
2.03441
0.0268964
2.03441
2.88161
-2.88161
-2.62951
0.106848
-2.62951
2.39214
0.130525
2.39214
0.353513
5.27292
-5.97994
8.79243
-5.27292
0.0265315
5.20828
0.0381037
5.20828
-5.10604
0.036966
-5.10604
5.0133
0.055773
5.0133
4.73842
-0.0851031
4.73842
-4.77183
0.118519
-4.77183
-3.37057
-4.05086
-6.46505
0.149812
-6.46505
-1.03244
0.0933286
-1.03244
0.822335
0.11678
0.822335
-3.68621
3.68621
-4.10512
0.420701
-4.10512
3.12396
0.0456409
3.12396
1.86849
1.88246
5.61944
-5.61944
2.44984
-2.01464
-0.0330628
-2.01464
-2.11797
-3.18488
2.11797
-0.0702657
-0.170641
0.222254
-0.170641
3.15944
0.0380399
3.15944
2.23645
0.155691
-2.23645
0.223641
3.27756
-3.27756
1.33893
0.67388
1.33893
-5.56445
5.56445
4.9564
0.056894
-4.9564
0.0879208
6.15651
0.0614193
6.15651
-6.19956
-0.0183693
-6.19956
2.52625
-4.99208
-2.62357
6.13411
0.181123
-6.13411
0.180915
2.91829
0.0280463
2.91829
-2.91952
2.91952
-2.98478
0.0384448
-2.98478
-2.17046
0.398532
-2.17046
1.47367
0.298259
1.47367
-4.25813
-0.0981707
-4.25813
-4.25344
0.148318
4.25344
0.110371
1.13037
-1.13037
-0.579646
0.136387
-0.579646
-4.12379
-0.134339
4.12379
-0.123435
-3.88995
-0.110413
-3.88995
-3.02457
0.0397936
3.02457
0.0407986
3.11289
0.0465484
-3.11289
0.0475231
-1.87082
3.75328
-1.88014
3.75397
-5.63449
-0.379527
-5.63449
6.32492
-0.3109
6.32492
3.32635
0.358072
-3.32635
0.392158
2.30504
0.170966
2.30504
-6.81137
-0.0383965
-6.81137
6.83521
0.0145504
6.83521
2.18006
0.124977
-2.18006
0.082522
2.01541
0.0189996
2.01541
2.90171
-0.0201032
2.90171
-2.87567
-0.00594144
-2.87567
2.79244
-2.79244
2.71711
0.0753333
-2.71711
0.0875976
-11.1329
11.1146
-0.0350595
-11.0979
5.17322
5.17322
4.16504
0.57338
4.16504
-4.9906
0.218767
-4.9906
2.6865
-5.31007
3.08444
-6.45501
4.66157
-16.1531
4.29622
-8.34708
6.7031
-6.7031
6.59288
0.110211
-6.59288
0.127838
-1.15074
0.118291
-1.15074
-3.08444
-0.601778
-3.08444
4.32804
-0.641824
4.32804
-3.02812
3.02812
-3.07741
0.0492912
3.07741
0.0465477
2.00398
0.0114221
-2.00398
-0.0106536
0.196675
0.0543146
-0.196675
0.0260343
3.49119
-0.213634
3.49119
-3.07903
-0.198532
-3.07903
-1.2492
0.0984615
1.2492
0.0897301
-5.81314
0.248688
-5.81314
-11.1909
0.0929945
-11.1528
-6.10656
-6.10656
2.33381
11.1262
-2.89361
0.0179498
2.89361
0.0246717
2.97518
0.0529369
-2.97518
0.0556597
-2.85916
0.0667212
2.85916
0.0603613
-2.54504
0.374582
-2.54504
-1.07267
1.07267
-1.23781
0.165137
1.23781
0.235858
1.40258
-0.272205
1.40258
0.706335
0.116
-0.706335
0.126689
-3.78987
-0.100078
-3.78987
6.56
-0.235085
6.56
-2.96387
-0.115152
2.96387
-0.062165
-0.033358
11.1479
-5.13986
0.0338273
5.13986
-11.2093
11.2432
-3.21547
0.670432
3.21547
0.949564
5.28474
0.279704
-5.28474
0.294142
6.78618
0.0490334
-6.78618
0.0830819
-2.59194
-0.492495
-2.59194
-5.05305
-0.581443
5.05305
-0.725008
-11.4738
-0.205445
11.6793
-11.4181
6.01858
0.137926
-6.01858
11.3811
-1.03087
-0.0994999
1.03087
0.041803
1.73014
-0.327568
1.73014
3.68785
-0.196654
-3.68785
-0.10202
-6.71434
-0.0970208
6.71434
-0.154344
-2.14713
-0.444808
2.14713
-0.416989
-4.26712
4.30516
1.9092
-2.38577
-2.60631
-5.57065
1.85185
1.90143
4.30169
-10.1371
-6.016
-9.95614
7.26197
-6.96782
-9.24137
9.15627
7.89398
-8.00439
-5.78482
5.83137
6.48291
-6.44212
1.87882
1.87469
8.02088
-7.77598
-15.5931
15.2136
7.55519
-7.51895
15.7403
-15.7787
-17.8203
17.8693
-5.70617
5.81302
-6.74046
6.73452
-6.976
6.91384
-2.83515
-3.61986
13.0956
-12.9458
8.58205
-8.61511
-8.61775
9.03845
3.3826
0.922564
3.42915
-1.88214
3.76096
-1.87148
3.78068
2.72378
-5.55893
2.58629
-5.1926
4.35988
4.22217
-4.28961
-1.28104
-5.92483
5.95288
-5.81295
5.87331
9.13739
-9.17507
-1.88517
3.75986
-1.8688
3.77024
-3.42502
-2.35981
3.37938
0.922312
8.06091
5.03466
-8.24203
-1.7141
-8.04202
7.84536
-8.23159
8.03306
-0.433724
5.81839
-5.38467
4.43476
-1.56356
7.38196
5.6984
5.91717
5.86612
-5.58642
1.1017
-6.48637
-6.39845
-2.25283
2.38922
2.16796
-2.07566
6.14339
1.75059
6.01996
-5.76304
-2.24135
-5.86312
3.82063
2.01074
3.86992
4.07846
2.40445
4.11825
3.03044
-3.03597
0.00552908
-3.05663
6.08707
0.723893
-5.41644
-4.49413
4.97628
3.0446
5.18957
-5.55402
-2.22195
-5.16187
-9.53245
-6.06068
-10.1139
10.0747
5.13892
9.76378
-11.9435
11.7891
4.81041
2.74478
4.83731
-4.95299
-2.56597
-4.87046
11.6328
-2.63898
-8.99385
-10.303
-7.51724
10.2885
5.45186
10.9451
6.92421
11.0282
4.41826
7.21457
-9.87012
2.35288
-3.86812
-1.83805
-3.78052
3.67313
2.13988
3.80366
-4.21755
-2.52291
-4.1996
-4.29587
-2.68013
4.31598
2.41854
-4.41739
-3.8142
4.53254
2.38129
4.03469
-10.0507
4.31239
-7.93225
-9.18206
-3.7637
-9.05422
3.5228
2.60935
-6.13214
-2.03613
8.50977
-4.2876
7.22873
-5.18247
-3.43264
-5.19313
-6.88261
-1.73513
-6.7343
-8.87408
8.38158
-9.16982
8.528
12.5073
-5.64104
-6.86629
-3.96845
-2.47366
3.92093
-0.491782
-3.71047
3.716
0.0504838
3.83116
4.75373
4.26195
-3.88406
-1.92889
-3.8284
3.82396
2.04935
3.89068
6.83874
2.29865
6.86891
-6.61196
-2.56311
-6.71013
9.03507
-8.63654
2.8337
-2.73524
5.39863
2.63443
-5.18499
-2.85702
6.21103
-3.21879
-2.99223
-12.1983
10.5274
1.67093
-4.81637
-0.381609
-0.433223
-5.48798
-3.75339
5.36946
0.547708
11.0751
7.32171
-5.51281
5.7615
6.16647
6.22337
-0.175082
5.80403
-5.1336
5.25368
-2.60228
-2.6514
5.47368
-5.60802
-1.23644
-5.52286
4.28641
0.411934
1.47437
-1.25212
-1.78033
-0.472498
-1.65364
1.27019
0.89777
1.3245
0.953471
1.43575
-2.95816
0.539937
2.41822
-2.00469
-1.53573
-3.826
-1.14696
4.97297
5.73968
2.10568
-5.63766
-0.225456
2.52417
-2.40739
-0.780664
-3.04534
2.2551
-3.03576
-3.67047
-2.08221
5.75268
-3.36958
-0.458815
3.31664
0.553274
-3.82721
-2.09762
3.78877
0.329487
-3.12856
6.19128
-3.06273
-5.05745
2.52755
3.55952
4.5383
-4.7895
2.44769
2.34181
-1.22998
4.24679
0.942775
4.41776
-6.93436
4.71241
5.80403
3.23442
-6.1621
1.00023
-5.93413
8.55353
-7.37616
-1.17737
4.17429
4.37924
7.05979
5.44754
-5.67141
12.7312
-1.20629
-6.16988
7.14041
-3.90599
4.8497
-8.7557
-10.2972
4.12737
-9.12838
10.8988
-1.77042
-3.61893
-8.32456
12.7473
-1.20413
-11.5432
8.55965
-4.28315
-4.39078
8.67393
-6.92213
6.95675
-1.99456
-4.96219
-10.0906
-5.68812
10.1876
1.60152
-9.92414
12.277
-2.70956
4.11962
0.717688
4.13862
3.3023
-5.48394
2.18165
3.61984
-5.61439
2.08311
-7.56705
-6.72005
12.053
-5.333
-10.4837
-9.5016
-0.982141
2.53392
9.74309
-9.45813
7.41745
2.04068
3.30012
0.590561
-3.37545
-0.405068
0.236924
4.51771
-4.75464
4.04058
4.19627
3.26831
1.24941
3.84552
2.10736
-3.87019
-0.329407
-4.16409
1.48396
-1.74555
-3.69431
5.17827
-4.06756
0.373253
-2.74545
-3.49725
6.24271
-4.5835
3.03546
3.15583
5.08481
-4.91274
1.41548
-2.39257
-2.52017
2.65208
-4.39763
1.99325
3.18503
4.37454
0.560339
5.87004
6.18301
-8.47939
0.547132
11.2177
-9.50356
2.46122
8.56694
-9.87867
0.377067
-8.67715
0.997177
-5.28477
-5.13497
5.19358
-6.92871
-3.56212
6.21338
0.655525
-6.32375
-0.410542
-6.03196
-2.84211
-6.47677
-3.0413
-6.12852
-8.71271
-1.65128
-7.06143
6.7303
-6.67736
-3.43653
7.40236
1.12563
-7.40707
7.30757
-7.48559
7.15803
0.0954149
3.62059
4.35736
1.8837
-2.39061
4.2743
-5.12041
7.41906
-8.71956
3.59914
4.20207
-6.76518
-4.51748
5.01986
4.01521
5.31812
8.87834
-10.3426
1.4643
-10.646
11.9795
-1.33352
-16.4036
5.75766
-7.52528
2.4354
0.398303
2.55369
0.54228
2.4978
-3.04008
-2.19296
-2.10323
-2.43956
-3.46567
5.90523
1.08936
-3.5298
2.44044
-3.5663
4.65566
-0.216096
-3.3137
5.27104
-2.77324
5.66934
-3.7824
1.88695
3.43778
5.75326
-2.31548
4.39509
-1.76067
1.9276
-4.24308
-1.53807
-2.95952
5.09941
-3.28318
3.65644
-0.344769
4.00121
-4.04752
0.828723
-0.779208
3.41706
3.64071
4.31682
-3.06741
2.91849
-4.67916
-1.32459
-4.11882
-0.933791
-0.257088
-3.69947
3.95656
5.97619
-6.23328
-5.23155
9.52267
-4.29112
7.68948
-5.37916
-2.31032
-4.25006
-4.38648
3.87548
1.92855
9.61803
0.208895
-5.58805
-4.9247
-3.97514
3.1015
2.15218
-1.7433
3.41424
2.17652
-0.702152
0.424231
0.90027
1.78344
-1.35921
0.325815
1.45763
-0.926304
1.71239
0.811778
-1.82839
0.174749
-1.31401
3.56911
1.10422
-2.00199
0.642774
0.975253
-3.57753
5.05895
-2.68771
-2.37124
6.0342
1.13821
-3.82592
4.38465
-3.97271
2.39108
-3.53805
-1.43484
-5.40755
-3.65697
-2.52012
4.96056
-3.38512
5.4908
1.29009
-5.26534
6.55543
-3.72781
1.64561
-3.05442
3.86619
-0.927843
-2.12657
2.90356
2.84912
-3.07716
0.0318181
-0.1736
2.41006
-2.58366
-0.625707
-2.6304
-4.57353
4.90302
-2.10522
4.55291
2.16908
-1.91712
6.47003
1.80875
-3.72587
-3.24869
-3.70751
-1.38406
3.15424
-0.579147
-4.29132
-5.54134
4.16634
0.251417
-7.05877
7.87843
-0.819662
-4.01417
-0.698237
4.87253
-6.08663
0.472232
-4.00352
3.87491
4.81769
5.06911
-11.3247
-0.218473
-6.18578
1.12384
-7.30962
5.50308
-3.53792
7.66529
-10.3189
6.88239
-9.19328
6.48792
-0.821702
6.23953
-4.05788
2.75432
-8.44244
-6.84092
5.54107
-2.79629
6.25876
-3.16807
9.42683
-5.87764
5.32925
4.09758
-1.03095
-4.16218
-5.31711
4.28616
0.0121376
4.15076
4.98033
-2.87298
4.65093
2.26961
-4.66218
-2.12801
-6.49556
1.83337
-3.33973
-1.92105
3.75443
3.16375
3.75431
1.23426
-3.34925
7.19161
-8.17375
-1.85861
-3.27636
5.29932
-1.01316
3.41809
-6.69445
-1.86668
4.79074
-0.781346
-4.00939
0.850306
-4.41243
1.67468
-6.0871
5.25403
-5.66458
2.22188
-9.74716
-5.18519
-5.14339
-2.25847
-5.22712
-7.56591
5.30744
-1.80825
5.49933
-8.49932
7.71798
-3.48016
8.78759
-5.42674
-1.05003
5.84373
1.3143
10.1019
0.221053
-4.73854
-1.9184
3.84447
-1.92607
1.1831
-3.47842
0.366051
2.49183
3.54238
-6.77824
0.0130601
-4.72548
-3.91577
7.93099
5.6069
11.5831
1.24045
9.11119
-1.1802
10.3516
4.13791
4.37377
-2.98689
4.4512
0.969663
4.56881
-0.926624
2.81357
1.62707
1.72039
0.686998
2.30231
1.3384
3.13103
0.0909512
-2.01228
4.62
-8.59514
-0.968056
-8.02176
1.13451
5.70702
-4.57251
2.9407
-0.788522
1.01463
-0.112081
-1.22808
1.34016
-2.76348
-1.93023
-0.472601
-1.6973
2.34007
1.87181
-1.86747
-0.896014
0.357794
-4.01476
3.18025
-3.14844
-0.299318
6.25611
-2.8194
0.235741
-1.17379
-2.39466
-2.86715
2.6924
6.17609
0.293938
3.11337
5.19696
3.09934
0.226363
3.88338
-5.6538
-3.68367
-5.87227
-0.36919
4.50334
1.76164
7.98146
5.85922
4.84606
-1.84839
-10.0221
6.51369
-2.06249
5.18017
-1.17078
-4.91632
5.04732
2.37174
-5.70285
0.0382682
-4.87806
-6.94055
-0.512459
8.23044
-9.58943
8.5394
5.69728
1.36414
-4.40327
-0.740122
4.23813
0.135639
10.4873
-1.12899
-6.71507
7.84406
-4.57803
3.60997
0.742731
2.6715
2.08289
1.29437
-5.4207
-9.99321
-2.06138
-1.51615
-4.43262
0.540347
-2.41216
6.21999
-2.61002
3.90967
5.23404
6.24868
-2.12998
-4.1033
6.4211
-2.51143
3.73725
)
;

boundaryField
{
    wall-4
    {
        type            calculated;
        value           uniform 0;
    }
    velocity-inlet-5
    {
        type            calculated;
        value           uniform -3.75095;
    }
    velocity-inlet-6
    {
        type            calculated;
        value           uniform -5.62643;
    }
    pressure-outlet-7
    {
        type            calculated;
        value           nonuniform List<scalar> 8(3.31758 7.76145 4.4511 9.68323 7.42143 5.14982 5.77094 8.95779);
    }
    wall-8
    {
        type            calculated;
        value           uniform 0;
    }
    frontAndBackPlanes
    {
        type            empty;
        value           nonuniform 0();
    }
}


// ************************************************************************* //
