/*--------------------------------*- C++ -*----------------------------------*\
| =========                 |                                                 |
| \\      /  F ield         | OpenFOAM: The Open Source CFD Toolbox           |
|  \\    /   O peration     | Version:  4.0                                   |
|   \\  /    A nd           | Web:      www.OpenFOAM.org                      |
|    \\/     M anipulation  |                                                 |
\*---------------------------------------------------------------------------*/
FoamFile
{
    version     2.0;
    format      ascii;
    class       volScalarField;
    location    "18";
    object      p;
}
// * * * * * * * * * * * * * * * * * * * * * * * * * * * * * * * * * * * * * //

dimensions      [0 2 -2 0 0 0 0];

internalField   nonuniform List<scalar> 
918
(
0.254412
0.940142
0.00957189
0.253463
-0.00105736
0.907233
-0.812718
0.435817
0.234453
-0.405959
-0.00934114
0.223819
0.767844
0.533357
-1.43983
0.00869838
0.390442
-0.685799
0.233237
0.000430701
0.511741
0.241205
0.244174
0.234721
0.293593
0.523838
0.64829
0.00236187
-0.00191307
-0.00350411
0.00397362
-0.00526328
0.00159815
0.790863
0.841961
0.864624
0.204059
0.0332813
-0.661703
-0.740992
-0.725695
-0.86398
0.423566
0.428071
-0.459822
0.439019
0.454774
0.221938
0.233733
0.234619
0.23599
0.23481
0.236246
0.152143
-0.434252
-0.458495
-0.369209
-0.317347
0.0326209
-0.0227948
-0.0422792
0.00476784
0.0046582
0.162021
0.220606
0.219519
0.229518
0.238985
0.879689
0.851588
0.877719
0.791484
0.807944
0.745791
0.718239
0.554526
0.576093
0.517851
0.506482
-1.88281
-2.85632
-0.83774
-0.577598
0.00039385
0.0131607
0.0182865
0.376749
0.385273
0.386959
0.39885
0.805825
-0.677032
-0.806263
0.233214
0.231927
0.240673
0.241303
0.237297
0.23639
0.00757457
0.0132975
-0.00928213
-0.00215797
-0.00348803
0.494033
0.489708
0.235231
0.232269
0.246867
0.268823
0.257784
0.00509211
0.304955
0.326928
0.327853
0.504118
0.503288
0.510306
0.621818
0.584276
0.685593
0.709012
0.0121869
0.00347189
0.00541173
0.00447263
0.00457901
0.199811
0.192742
0.216661
0.207372
0.209613
-0.0508816
-0.186112
0.117941
0.140801
-0.568486
-0.635991
-0.739574
-0.75718
-0.894582
0.24858
0.411307
0.414914
-0.475077
-0.391843
-0.539991
-0.318349
-0.390777
0.213568
0.219721
0.215281
0.22951
0.224033
0.226045
0.237962
0.235024
0.236597
0.216165
0.318842
0.0975901
0.074933
-0.556106
-0.477318
-0.547532
-0.253411
-0.199832
0.0247754
0.0169302
0.0167897
0.0279502
-0.152847
-0.0687306
-0.111349
0.0113272
0.010721
0.155186
0.14619
0.17071
0.176951
0.211995
0.212983
0.216655
0.214814
0.668974
0.691438
0.698851
0.672507
-3.86795
-6.69158
-0.243356
-0.0988434
0.00288874
0.00264036
0.00178528
0.00393414
0.00262355
0.00108449
0.0193602
0.0183595
0.0187651
0.0215412
0.360398
0.365414
0.726546
0.71425
0.711446
0.672555
0.221183
0.22322
0.22901
0.224861
0.0158579
0.0163696
0.0164262
0.455908
0.475782
0.473517
-0.030164
-0.118586
0.0523071
0.0788019
0.347523
0.332522
0.349655
0.392669
0.428984
0.716472
0.734762
0.733066
0.741453
0.785453
0.801827
0.767166
0.181996
0.188776
0.185224
0.220442
0.218017
0.218765
0.212726
0.215302
0.211971
-0.3402
-0.726381
0.2048
0.218328
0.184402
0.190417
0.339225
0.41155
0.392058
0.402675
0.405829
-0.254537
-0.320934
0.0302577
0.0171187
0.103751
0.13515
0.119023
0.640192
0.60044
0.650429
0.623985
0.585434
0.611699
-0.678412
-2.20876
-1.30919
0.267935
0.0725286
0.164472
0.0309072
0.0169699
0.0233771
0.684847
0.755814
0.390637
0.58644
0.568877
0.470873
0.502337
0.557335
0.478751
0.515898
0.554639
0.536131
0.201589
0.202568
0.179114
0.479967
0.537328
-0.144404
-0.192659
-0.249469
-0.00794683
0.000108841
0.00404926
0.722232
0.602333
0.683924
0.232131
0.232802
0.0122508
0.0212654
0.236712
0.236628
0.00631845
0.00622035
0.144438
-1.15268
-0.149118
0.225204
0.21577
0.232325
-0.439176
0.0602946
-0.0325723
0.106027
0.0682243
0.223259
0.171491
0.138075
0.00644951
0.0163805
0.00269061
-0.515775
0.229819
0.228161
0.231941
0.232954
0.23365
0.00713376
0.00862349
0.00616463
0.00337443
0.00467183
0.00150631
0.198722
0.213021
-0.462046
0.231867
0.234148
0.233876
0.227036
0.232492
0.230743
0.0127855
0.00751521
0.00723244
-0.0435509
0.0705232
0.403217
0.51372
0.354356
0.125431
-0.120973
0.298162
0.367662
0.26365
0.43246
0.39602
0.422847
-0.0893517
-0.235996
-0.0825754
-0.139601
0.222875
0.221522
0.214096
0.212052
0.227258
0.22543
0.229825
0.226901
0.229644
0.231074
-0.451414
-0.362495
-0.442934
-0.453512
0.00783195
0.292284
-0.0793687
0.0274349
0.00172185
-0.015097
-0.00110981
-0.0555975
-0.0674437
0.000670518
0.0548407
0.0840824
0.0353308
0.0612414
0.0232202
0.00352169
0.0281478
0.0121338
0.217985
0.214815
0.222434
0.229343
0.179002
0.181559
0.153725
0.16923
0.158674
0.1026
0.135247
0.11407
0.00675104
0.00775945
0.0055637
0.0195179
0.0206257
0.00813642
0.00778774
0.0126863
0.00819372
0.00731748
0.00618495
0.0117521
-0.479329
-0.585614
0.689237
0.640472
-0.0497113
0.218938
0.22536
0.222151
0.226726
0.23
0.230828
0.228699
0.225049
0.213638
0.215714
0.21177
0.211379
-0.406995
-0.539917
-0.358981
-0.421055
-0.160262
0.337348
0.0826699
0.0238738
0.0195541
0.229025
0.61459
0.426501
0.466347
0.493229
-0.652842
-0.249752
-0.581918
0.0340367
-0.148421
0.402665
0.455604
0.47812
0.423923
0.372181
-0.413151
0.225191
-0.333679
-0.293274
-0.104916
-0.204033
0.448816
0.380105
0.387748
0.412915
0.437534
0.388342
0.368791
0.365243
0.40196
0.406315
0.203186
-0.010986
-0.0573169
-0.092569
0.368406
0.242982
0.299404
0.21739
0.217458
0.22076
0.219275
0.202739
0.209903
0.205824
0.209632
0.213127
0.22303
0.222674
0.218398
0.22086
-0.296272
-0.254234
-0.431343
-0.443255
-0.461046
-0.495467
-0.416719
-0.517329
-0.646171
-0.0216645
0.0217929
-0.416754
-0.380134
-0.38571
-0.343274
-0.178942
-0.102724
-0.190785
-0.00812264
-0.17112
-0.135476
-0.0119199
-0.0216769
-0.0356519
-0.0506795
-0.121962
-0.0608293
0.0562323
0.00183604
0.0145599
0.0216393
0.0144794
0.000801294
0.007947
-0.150983
-0.160288
-0.123652
-0.199714
0.0168068
0.0197604
0.0225543
0.0260443
0.0328088
0.0341046
0.210744
0.211398
0.210417
0.225402
0.236608
0.251436
0.219783
0.197528
0.189899
0.190327
0.168659
0.175979
0.173828
0.185032
0.202458
0.210023
0.207749
0.210587
0.196119
0.1975
0.185629
0.189413
0.169902
0.152636
0.142785
0.0127653
0.0080682
0.00903797
0.00995926
0.00795982
0.00856214
0.0337959
0.0289658
0.0329579
0.0255728
0.0212099
0.0144503
0.0131823
-0.391173
-0.303995
-0.487157
-0.522932
-0.585536
0.594438
0.722407
0.545016
0.298259
0.320041
0.542068
0.666515
0.276666
0.461587
0.514829
0.199558
0.49878
0.223501
0.223246
0.22132
0.220151
0.221311
-0.310736
-0.209619
-0.200112
-0.146584
-0.0292118
0.0842443
-0.0180147
-0.153456
-0.00821954
0.00509258
0.33223
0.346479
0.290419
0.317277
0.316914
0.144617
0.218247
0.274157
0.228639
0.270193
0.292052
0.25742
0.284179
0.231511
0.191491
0.190529
0.139842
0.157459
0.134931
0.118726
0.212931
0.193392
0.202621
0.195238
0.214074
0.242054
0.236971
0.259495
0.273347
0.20197
0.164966
0.173177
0.199739
0.163477
0.175191
0.188695
-0.0832998
-0.173513
-0.0971486
-0.400752
-0.306923
-0.322079
-0.368653
-0.331159
-0.0424425
-0.753593
-0.716102
-1.35448
0.164376
0.646229
0.399561
0.369234
0.434562
0.409826
0.410508
0.446191
0.453943
0.356597
0.373387
0.375442
0.33212
0.3577
0.385362
0.383385
0.206737
0.0934455
0.07981
0.0503557
-0.0686543
-0.0386739
0.161513
0.083989
0.0146149
0.0212305
0.179093
0.0757554
0.137582
0.173075
0.107281
0.0655573
0.257804
0.326416
0.315931
0.290656
0.207359
0.220247
0.243586
0.278683
0.305914
0.338497
0.211345
0.215899
0.216828
0.215038
0.211982
0.214662
0.214529
0.21727
0.218249
0.220974
0.220108
-0.109876
-0.140638
-0.21051
-0.149307
-0.520209
-0.553166
-0.582212
-0.507102
-0.208384
-0.255633
-0.402349
-0.314695
-0.240203
-0.20463
-0.358505
-0.32
-0.322736
-0.45035
-0.0749012
0.0794686
0.183509
0.0739345
-0.13025
-0.100433
-0.063864
-0.105163
-0.00818744
-0.00862424
-0.0487912
-0.102701
0.00229649
-0.00276402
-0.00568042
0.000304996
-0.0107927
0.000989772
0.0130008
0.0109807
0.0101762
0.0100609
0.0126828
0.200221
0.19342
0.192936
0.189048
0.188645
0.198079
0.202756
0.20438
0.20887
0.210721
0.202916
0.207451
0.210091
0.020751
0.0181828
0.0214548
0.0112606
0.0142375
0.0144897
0.0115341
-0.188022
-0.211967
-0.177985
-0.292929
-0.418559
-0.373548
0.1499
0.12202
0.166834
0.372464
0.235014
0.146951
0.210846
0.322071
-0.0520412
0.165155
-0.0205319
0.580173
0.456253
0.594626
0.243054
-0.0742335
0.0681409
0.124781
-0.069146
0.00308836
0.0202143
-0.0869672
-0.0535521
-0.0245071
0.0717506
-0.0425067
-0.0671127
-0.316945
-0.143024
-0.00586659
-0.0278952
0.101078
0.162579
-0.0686368
-0.132952
-0.178479
0.320102
0.340968
0.358128
0.327173
0.352213
0.278068
0.26997
0.287451
0.29817
0.292037
-1.08917
-0.802738
-1.74273
-1.05731
-0.616014
0.19015
0.151025
0.430196
0.328693
0.411636
0.395384
0.35944
0.322603
0.328512
0.365731
0.0756663
0.181187
0.157773
0.16141
0.0688191
0.00579868
0.291824
0.286084
0.321125
0.345713
0.314868
0.347304
0.208299
0.207636
0.208755
0.20524
0.205065
0.206191
-0.336723
-0.296725
-0.411353
-0.44134
-0.497048
-0.454204
0.0270615
0.0142102
0.0130002
0.0145777
0.0269684
0.0282663
-0.162259
-0.209662
-0.273014
-0.252407
-0.309493
-0.371603
-0.390206
-0.292631
-0.215204
-0.217339
0.109215
0.368442
0.190279
0.369672
0.233086
0.279809
0.171742
0.165959
0.20045
0.0644279
0.132423
-0.129225
-0.617041
-0.529268
0.443426
0.463355
0.244958
0.0459865
-0.17393
0.0257012
0.240623
0.181728
0.22196
0.288366
0.281147
-0.323249
-0.243434
-0.0200041
0.211613
-0.078433
-0.0925901
-0.0951009
0.0672385
0.000280942
)
;

boundaryField
{
    wall-4
    {
        type            zeroGradient;
    }
    velocity-inlet-5
    {
        type            zeroGradient;
    }
    velocity-inlet-6
    {
        type            zeroGradient;
    }
    pressure-outlet-7
    {
        type            fixedValue;
        value           uniform 0;
    }
    wall-8
    {
        type            zeroGradient;
    }
    frontAndBackPlanes
    {
        type            empty;
    }
}


// ************************************************************************* //
