/*--------------------------------*- C++ -*----------------------------------*\
| =========                 |                                                 |
| \\      /  F ield         | OpenFOAM: The Open Source CFD Toolbox           |
|  \\    /   O peration     | Version:  4.0                                   |
|   \\  /    A nd           | Web:      www.OpenFOAM.org                      |
|    \\/     M anipulation  |                                                 |
\*---------------------------------------------------------------------------*/
FoamFile
{
    version     2.0;
    format      ascii;
    class       surfaceScalarField;
    location    "18";
    object      phi;
}
// * * * * * * * * * * * * * * * * * * * * * * * * * * * * * * * * * * * * * //

dimensions      [0 3 -1 0 0 0 0];

internalField   nonuniform List<scalar> 
1300
(
3.75095
5.62643
-6.07405
3.75095
-5.9075
5.62643
-4.55498
4.55498
-1.32178
1.32178
1.87668
1.87428
-2.80425
2.80425
-4.28509
4.28509
-2.70561
2.70561
-5.2464
5.2464
-5.06775
5.06775
4.68509
-4.68509
-4.81502
4.81502
-1.79181
1.79181
-3.77471
3.77471
3.1709
-3.1709
-4.71804
4.71804
-0.459005
0.459005
-0.553315
4.30427
3.19764
3.19764
-2.4181
2.4181
-4.85204
4.85204
6.21819
-6.21819
9.19669
-9.19669
-3.12264
-3.42403
1.32188
-8.18888
-4.58562
-4.58562
-8.44041
8.44041
-2.81398
2.81245
2.93294
-2.93294
-1.75185
1.75185
-4.50986
-0.0451173
-4.50986
4.52959
0.0253907
4.52959
-1.42282
0.101036
-1.42282
4.03755
-4.03755
1.16864
0.153141
1.16864
3.06423
-3.06423
-1.87709
3.75377
1.87387
-1.87159
6.17586
-1.87936
3.75364
-5.46959
5.46959
-2.9583
0.154048
-2.9583
2.91283
-0.108581
2.91283
-5.31828
5.31828
-4.06306
-0.222032
-4.06306
4.43882
-0.153728
4.43882
2.92984
-2.92984
-2.73895
0.0333324
-2.73895
2.65313
0.0524803
2.65313
0.353574
5.27286
-5.98
8.79245
-5.27286
0.0264613
5.20846
0.0379337
5.20846
-5.106
0.0382522
-5.106
5.01051
0.0572427
5.01051
4.77884
-0.0937488
4.77884
-4.79843
0.113341
-4.79843
-3.32962
-3.44809
-4.90721
0.0921872
-4.90721
-1.78713
-0.00467417
-1.78713
1.73201
0.0597925
1.73201
-3.54259
3.54259
-4.24458
0.469876
-4.24458
3.12631
0.0445946
3.12631
1.86869
1.88226
5.61965
-5.61965
2.44874
-4.64752
-0.0705126
-4.64752
-4.81811
-4.37858
4.81811
-0.100078
-0.773975
0.31497
-0.773975
3.15948
0.0381562
3.15948
2.57713
0.0759981
-2.57713
0.159031
3.37025
-3.37025
1.78188
0.636224
1.78188
-5.57175
5.57175
4.94906
0.0614441
-4.94906
0.0970277
6.15712
0.0610751
6.15712
-6.19959
-0.0186044
-6.19959
3.34627
-6.7703
-3.43858
4.70563
0.109386
-4.70563
0.120015
2.89657
0.0363719
2.89657
-2.91666
2.91666
-2.98198
0.0490433
-2.98198
-2.16767
0.415821
-2.16767
1.43327
0.31858
1.43327
-4.37913
-0.130738
-4.37913
-4.43022
0.18564
4.43022
0.0993661
0.906132
-0.906132
-1.54934
0.126524
-1.54934
-4.19425
-0.184873
4.19425
-0.1567
-3.92023
-0.117324
-3.92023
-3.02385
0.0418648
3.02385
0.0403834
3.11203
0.0474501
-3.11203
0.047803
-1.87082
3.75308
-1.88013
3.754
-5.30252
-0.167064
-5.30252
5.46429
0.00530341
5.46429
3.38022
0.394493
-3.38022
0.42192
3.29884
-0.386015
3.29884
-5.29465
-0.0236261
-5.29465
5.25501
0.0632669
5.25501
3.72058
-0.421738
-3.72058
-0.342479
4.52639
-0.0875686
4.52639
2.9856
-0.0557531
2.9856
-2.88841
-0.0414325
-2.88841
2.79065
-2.79065
2.75472
0.0359249
-2.75472
0.0157758
-11.1326
11.114
-0.0349219
-11.0977
5.17354
5.17354
4.20238
0.576454
4.20238
-5.00921
0.210781
-5.00921
3.31364
-6.75222
3.43825
-6.76787
3.44187
-11.6307
3.36181
-6.80989
5.0818
-5.0818
4.98756
0.0942393
-4.98756
0.0803512
-1.78994
0.00280931
-1.78994
-2.86806
-0.674533
-2.86806
4.18694
-0.644345
4.18694
-3.03332
3.03332
-3.08156
0.0482365
3.08156
0.0447538
4.58762
-0.0612285
-4.58762
-0.0599046
0.985033
0.183611
-0.985033
0.211058
3.57281
-0.202556
3.57281
-3.18304
-0.187216
-3.18304
-1.79125
0.00131052
1.79125
-0.00937253
-5.81738
0.245635
-5.81738
-11.1908
0.0930856
-11.1528
-6.1065
-6.1065
2.33391
11.1264
-2.87315
-0.0152661
2.87315
0.0234194
2.97738
0.0559429
-2.97738
0.0607158
-2.85319
0.0625474
2.85319
0.0634674
-2.55604
0.388364
-2.55604
-1.01277
1.01277
-1.20142
0.18865
1.20142
0.23185
1.16645
-0.260317
1.16645
1.65437
0.0776483
-1.65437
0.105021
-3.82218
-0.0980507
-3.82218
5.33508
0.129208
5.33508
-3.06197
-0.121063
3.06197
-0.076376
-0.0333142
11.1473
-5.14023
0.0342216
5.14023
-11.2084
11.2426
-3.23954
0.683507
3.23954
0.962838
5.29614
0.275607
-5.29614
0.286929
5.18604
0.0689709
-5.18604
0.104244
-2.3466
-0.521459
-2.3466
-4.86901
-0.433513
4.86901
-0.682075
-11.4752
-0.20266
11.6778
-11.4179
6.02004
0.137077
-6.02004
11.3797
-0.875147
-0.0309849
0.875147
0.137626
1.47534
-0.308889
1.47534
3.73347
-0.16066
-3.73347
-0.0887095
-5.29028
-0.00437491
5.29028
0.0447983
-1.89692
-0.449682
1.89692
-0.421578
-4.26638
4.30453
1.90948
-3.29855
-3.47176
-7.67712
1.85156
1.90152
4.30031
-7.1938
-4.43695
-7.07379
7.27477
-6.98784
-9.30717
9.21342
7.47374
-7.59106
-5.78222
5.82697
6.48195
-6.44156
1.87832
1.87545
6.30493
-6.15088
-16.1898
16.0227
8.96725
-9.18928
12.5924
-12.616
-13.3691
13.4381
-5.76115
5.79448
-6.64081
6.59938
-6.80938
6.733
-3.26024
-3.50763
9.31947
-9.22729
11.6805
-11.751
-8.25153
8.72141
3.38258
0.921949
3.43003
-1.88205
3.76037
-1.87159
3.78107
3.4535
-6.71374
3.29872
-6.77048
6.07698
5.60351
-5.9769
-1.70023
-5.86451
5.90088
-5.81935
5.88282
8.97494
-9.02006
-1.8864
3.76185
-1.8676
3.76911
-3.4245
-2.35772
3.3799
0.920405
5.69584
3.62364
-5.80522
-1.26856
-7.6827
7.52204
-7.98004
7.79282
-0.455973
5.82567
-5.3697
4.39606
-1.55328
7.37895
5.7215
5.93228
5.86889
-5.59329
1.11895
-6.48865
-6.39162
-2.60666
2.73318
2.64524
-2.4921
5.89164
1.5821
5.73494
-5.48651
-2.10455
-5.58456
3.81721
2.00976
3.86545
4.07362
2.40832
4.11549
3.02916
-3.03646
0.00730178
-3.05719
6.08635
0.725393
-5.41491
-4.49451
3.921
2.38393
3.81242
-4.7033
-1.44757
-4.28138
-9.83724
-6.35252
-10.2708
10.1144
5.90828
10.1197
-10.8334
10.8782
6.31303
2.65421
6.15931
-5.37593
-3.81335
-5.71841
10.9119
-1.32437
-9.58754
-7.86385
-5.50527
7.80059
4.79179
7.98264
5.45546
8.08688
3.31181
7.6001
-8.1036
2.59833
-3.84945
-1.91171
-3.83367
3.74298
2.05151
3.79546
-4.13448
-2.50634
-4.14974
-4.19467
-2.6147
4.25043
2.34896
-4.29655
-3.68349
4.41762
2.31539
3.1569
-7.59384
3.65299
-7.16063
-6.53319
-2.69409
-6.45284
4.23236
2.58853
-6.82089
-2.48138
10.9521
-5.34857
9.25186
-7.19258
-4.55842
-7.25248
-6.74877
-1.50276
-6.56313
-8.75311
8.23165
-9.10734
8.46299
12.7224
-5.85722
-6.86521
-3.9698
-2.47176
3.922
-0.491962
-3.71071
3.71801
0.0496612
3.83073
4.75268
4.26072
-3.88937
-1.92999
-3.82865
3.8294
2.05342
3.89195
6.76103
2.21391
6.78642
-6.40437
-2.61569
-6.53511
9.07593
-8.66011
2.95978
-2.95847
5.21308
2.57974
-5.01053
-2.67217
6.0181
-3.03515
-2.98295
-12.2259
10.6013
1.62465
-4.847
-0.450933
0.00807202
-5.51636
-3.79081
5.40302
0.529262
11.1306
7.33975
-5.51516
5.76079
6.16267
6.22412
-0.167505
5.8468
-5.16329
5.2134
-2.23484
-2.97856
5.25331
-5.43818
-1.2818
-5.22985
3.94805
0.296764
1.90239
-1.58742
-2.07552
-0.531139
-1.9705
1.61963
1.02561
1.80324
0.954731
1.77845
-2.99566
0.612615
2.38304
-2.04093
-1.87949
-3.53441
-0.941433
4.47584
5.47476
2.04728
-5.38605
-0.198512
2.74115
-2.68136
-0.711934
-2.82247
2.12359
-2.83552
-3.51671
-1.84556
5.36226
-3.36896
-0.459693
3.31301
0.552432
-3.81205
-2.05246
3.763
0.352484
-3.13637
6.23098
-3.09461
-5.06635
2.52955
3.5568
4.53931
-4.78938
2.44182
2.34755
-1.23258
3.95022
-0.137797
3.5642
-5.80204
4.35446
5.28513
3.43628
-5.67962
1.39824
-4.4038
9.2708
-8.41627
-0.854526
4.63033
4.64047
7.38439
5.33804
-5.68561
13.07
-2.48901
-5.92726
6.89281
-3.45653
5.50273
-8.95926
-10.8408
4.91351
-11.1661
10.9227
0.243352
-2.58298
-8.25046
13.7491
-1.99847
-11.7506
8.12125
-6.25873
-4.17971
10.4384
-7.5831
7.99307
-3.69867
-4.2944
-8.469
-4.147
8.47338
2.40486
-9.54088
12.1392
-1.94078
5.65241
0.506898
5.56484
5.26884
-5.67579
0.406947
2.31425
-6.01292
4.60108
-10.2769
-5.08813
9.81087
-4.72273
-7.78223
-7.11308
-0.669149
1.82826
10.3109
-7.28372
5.3848
1.89893
3.32833
0.563619
-3.36425
-0.469415
0.353208
4.47265
-4.82585
4.14867
4.22466
3.3946
1.07805
3.78891
2.11196
-3.81233
-0.33741
-4.08132
1.46662
-1.73237
-3.59691
5.06353
-4.02487
0.427962
-2.68378
-3.53729
6.22107
-4.59548
3.0706
3.16037
5.12402
-4.92435
1.38706
-2.42956
-2.49479
2.63781
-4.37018
1.93406
3.12947
4.24945
0.565962
5.02383
4.78704
-7.61236
0.451731
8.41067
-7.14211
1.93164
6.15524
-7.31644
0.203364
-6.24948
1.05209
-6.40066
-5.76881
5.36412
-6.86688
-3.59515
6.10158
0.684842
-6.20095
-0.362182
-5.90588
-2.84723
-6.35556
-3.13391
-5.97343
-8.81953
-1.58369
-7.23584
6.64796
-6.68929
-3.58146
7.37137
1.09163
-7.35493
7.32394
-7.3934
7.08451
0.0944623
3.62354
4.35518
1.88341
-2.39097
4.27438
-4.99222
7.20613
-8.45178
3.45956
3.94492
-6.56061
-4.50686
5.01446
4.06147
5.33304
9.04379
-10.5672
1.52346
-10.9667
12.2127
-1.24607
-16.751
5.78438
-7.70726
2.69861
0.261167
2.70142
0.665401
2.41153
-3.07693
-2.29307
-2.30244
-2.24822
-3.29876
5.54698
1.08721
-3.32511
2.2379
-3.42391
4.51112
-0.088528
-3.23659
5.21883
-2.8073
5.48
-3.51244
1.96756
3.2108
5.4848
-2.27401
4.22271
-1.64297
1.74823
-4.02223
-1.55054
-2.99656
5.04807
-3.2245
3.65246
-0.222214
3.87468
-4.01151
0.976358
-0.616906
3.60776
3.76679
4.13239
-3.05434
2.87279
-4.51577
-1.14944
-3.9498
-0.820337
-0.325942
-3.70112
4.02706
6.07834
-6.40429
-5.30152
9.59845
-4.29693
7.72647
-5.4324
-2.29407
-4.27529
-4.38482
3.88693
1.95987
9.68634
0.196484
-5.62888
-4.96681
-4.00397
3.20018
2.01322
-2.08133
3.70597
2.07326
-0.170863
0.60727
1.19597
1.92273
-1.31546
0.18039
1.74234
-1.40703
1.98732
0.753832
-2.06497
0.0944695
-1.31167
3.43525
1.07138
-2.09699
0.781528
1.12622
-3.36106
4.66627
-2.34898
-2.31728
5.79249
1.17752
-3.5265
4.05233
-3.75557
2.28812
-3.22955
-1.23838
-4.99395
-3.41185
-2.43981
4.67771
-3.10717
5.15445
1.16101
-4.95594
6.11695
-3.52287
1.67732
-2.9712
3.72503
-0.988249
-1.98295
2.74049
2.62177
-2.82972
0.00724797
-0.0892251
2.32058
-2.4098
-0.514944
-2.55587
-4.56046
4.91294
-2.12225
4.56407
2.15213
-1.91325
6.47732
1.81409
-3.72733
-3.25227
-3.71196
-1.37978
3.15953
-1.72349
-3.99492
-6.01788
4.41666
-0.852456
-6.31812
8.41998
-2.10186
-3.93419
-0.42027
5.0506
-7.90096
1.88804
-3.29989
5.1201
4.9823
4.12984
-12.6538
0.903203
-6.74552
1.54111
-8.28663
6.18158
-3.31951
8.23302
-10.8421
7.26066
-9.75049
7.37849
-0.908135
5.78957
-5.38262
3.79797
-7.94497
-5.54011
6.6909
-4.03669
7.1978
-4.46098
11.6588
-6.40176
7.03684
4.62194
-1.50125
-5.75123
-6.78922
5.28797
0.247622
5.81246
4.95425
-2.84229
4.61684
2.25967
-4.68923
-2.1105
-6.56128
1.87205
-3.4009
-1.91704
3.78909
3.20698
3.7706
1.2943
-3.30118
6.95933
-7.62848
-2.23659
-3.53221
6.77494
-1.48697
4.18414
-7.71635
-2.21652
5.00258
-1.02644
-3.97614
0.854634
-4.44978
1.68662
-6.1364
5.18026
-5.54244
2.17365
-9.8809
-5.18128
-5.04366
-2.23191
-5.16149
-7.68652
5.45461
-1.90214
5.42181
-8.73464
7.7082
-3.47809
8.9327
-5.32257
-1.03299
5.74415
1.34036
10.2731
0.100881
-4.60774
-1.77237
3.88355
-2.11118
1.42782
-3.60024
0.283313
2.47131
3.32118
-6.41936
-0.141253
-4.749
-3.90635
7.96783
5.69209
11.7704
1.20319
9.18229
-1.21446
10.3855
4.11858
4.35043
-3.04225
4.56571
0.984807
4.44437
-0.826027
2.79359
1.87539
1.87072
0.810641
2.29893
1.46786
3.27529
0.198357
-2.10408
4.66554
-8.66951
-0.963345
-8.09305
1.12037
5.75604
-4.63567
3.11807
-1.10485
1.00688
0.210916
-1.81811
1.60719
-2.76765
-1.98897
-0.246629
-1.57307
2.3546
1.86218
-2.10797
-0.659676
0.303659
-3.71551
2.9259
-2.91865
-0.296879
5.82007
-2.72356
0.313759
-1.04625
-2.24211
-2.77325
2.67878
6.21167
0.265646
3.11706
5.17859
3.12613
0.283841
7.06642
-6.82307
-3.21045
-5.91986
0.261719
5.31232
2.3983
7.91264
7.02024
5.53327
-2.18309
-9.81156
6.53234
-1.96663
5.28627
-1.31013
-4.82627
4.89735
2.30878
-5.58219
0.0397482
-4.78652
-6.75315
-0.631575
8.33978
-9.64149
8.6085
5.76127
1.47457
-4.36442
-0.679234
4.17577
0.174659
10.5601
-1.14403
-6.9124
8.05643
-4.61201
3.64866
0.90353
2.80244
2.51072
1.40587
-5.50652
-10.1422
-1.76674
-1.59432
-4.08403
0.391811
-2.25399
6.27571
-2.62705
3.98164
5.42938
6.43626
-2.21035
-4.19394
6.50728
-2.52564
3.91063
)
;

boundaryField
{
    wall-4
    {
        type            calculated;
        value           uniform 0;
    }
    velocity-inlet-5
    {
        type            calculated;
        value           uniform -3.75095;
    }
    velocity-inlet-6
    {
        type            calculated;
        value           uniform -5.62643;
    }
    pressure-outlet-7
    {
        type            calculated;
        value           nonuniform List<scalar> 8(6.07405 5.9075 6.54667 6.867 6.77771 6.78486 6.75189 6.80367);
    }
    wall-8
    {
        type            calculated;
        value           uniform 0;
    }
    frontAndBackPlanes
    {
        type            empty;
        value           nonuniform 0();
    }
}


// ************************************************************************* //
