/*--------------------------------*- C++ -*----------------------------------*\
| =========                 |                                                 |
| \\      /  F ield         | OpenFOAM: The Open Source CFD Toolbox           |
|  \\    /   O peration     | Version:  4.0                                   |
|   \\  /    A nd           | Web:      www.OpenFOAM.org                      |
|    \\/     M anipulation  |                                                 |
\*---------------------------------------------------------------------------*/
FoamFile
{
    version     2.0;
    format      ascii;
    class       volScalarField;
    location    "39";
    object      p;
}
// * * * * * * * * * * * * * * * * * * * * * * * * * * * * * * * * * * * * * //

dimensions      [0 2 -2 0 0 0 0];

internalField   nonuniform List<scalar> 
918
(
0.588145
1.24183
0.00606802
0.587496
-0.00794052
1.20884
-0.465322
0.74879
0.568297
-0.0611348
0.000570765
0.563818
1.06958
0.834566
-1.09415
0.0181839
0.698859
-0.346664
0.56733
0.013949
0.785444
0.574878
0.577909
0.568495
0.631935
0.813744
0.950437
0.0168429
0.00247075
-0.00199699
-0.00191265
-0.0268843
-0.0101051
1.09249
1.14357
1.16626
0.536554
0.362067
-0.329003
-0.397948
-0.393142
-0.495802
0.741722
0.742621
-0.143463
0.750602
0.759161
0.555473
0.567659
0.568553
0.569636
0.568589
0.569982
0.445302
-0.0658488
-0.0975661
-0.0417387
-0.0321611
0.09179
0.00176572
0.000837687
0.00500116
0.000735341
0.48735
0.559483
0.556698
0.568864
0.577446
1.18138
1.1533
1.17943
1.09313
1.1096
1.04757
1.0201
0.855839
0.877679
0.818818
0.805643
-1.5323
-2.49518
-0.498007
-0.243879
-0.00209413
0.0256343
0.0312394
0.690181
0.688344
0.700251
0.711896
1.11574
-0.342398
-0.45885
0.567453
0.566249
0.574638
0.575333
0.571348
0.570441
0.0152413
0.0136219
0.0103243
0.0120277
0.0104584
0.774705
0.772573
0.569034
0.566053
0.584684
0.605539
0.597439
0.318056
0.635717
0.647948
0.637259
0.802104
0.797931
0.806115
0.924095
0.887025
0.987525
1.01088
0.0155766
0.00474313
0.0126514
-0.00337596
0.00767421
0.532487
0.525229
0.551515
0.539908
0.542353
0.277925
0.143032
0.447428
0.472402
-0.242206
-0.302774
-0.399331
-0.420036
-0.527492
0.63457
0.73223
0.731226
-0.162892
-0.086874
-0.21805
-0.0142499
-0.073998
0.545878
0.552781
0.547832
0.563245
0.557743
0.559693
0.571899
0.568974
0.570533
0.508501
0.632336
0.371025
0.335994
-0.206778
-0.116088
-0.209054
-0.0194382
-0.0148378
0.109575
0.134601
0.080543
0.0744949
-0.00721074
-0.00163223
-0.00289694
-0.000238132
0.00377358
0.480498
0.46979
0.499636
0.506994
0.549672
0.550833
0.55417
0.552632
0.970967
0.993405
1.00079
0.97447
-3.497
-6.30126
0.0854521
0.224454
0.00520607
0.00497437
0.00407331
0.00669098
0.00750965
0.00230274
0.0481988
0.0410273
0.0319587
0.0428227
0.67581
0.675386
1.03469
1.03546
1.01638
0.966626
0.555539
0.557663
0.563215
0.559067
0.00748503
0.0121023
0.0113392
0.760147
0.768325
0.766474
0.2811
0.194101
0.367049
0.394956
0.664579
0.651583
0.662553
0.699579
0.735007
1.01834
1.0365
1.0348
1.04307
1.08707
1.10345
1.0688
0.512576
0.522202
0.517329
0.554714
0.552416
0.553364
0.548874
0.550352
0.548158
-0.00895741
-0.392654
0.521977
0.540194
0.52097
0.527056
0.714504
0.79172
0.713063
0.723192
0.721117
0.0512309
-0.00564187
0.292659
0.259795
0.422051
0.457354
0.436918
0.942206
0.902268
0.952418
0.925895
0.887228
0.913703
-0.344224
-1.85796
-0.969059
0.579421
0.391032
0.479676
0.0574872
0.038809
0.0398755
1.02957
1.10691
0.688142
0.856917
0.86424
0.772553
0.802858
0.860459
0.783667
0.820075
0.856548
0.836614
0.590824
0.53425
0.545376
0.861785
0.918114
0.167412
0.111904
0.0670903
0.152496
0.212152
0.183692
1.06983
0.974235
1.04606
0.565803
0.566502
0.0210835
0.0279687
0.570662
0.570709
0.00177446
0.00219641
0.461913
-0.804119
0.154894
0.559143
0.549339
0.566308
-0.0447674
0.40034
0.00346443
0.0945437
0.0419403
0.561843
0.497831
0.458513
0.0301228
0.0186211
0.0118717
-0.171842
0.563474
0.561786
0.56577
0.566745
0.567407
0.0201484
0.0210784
0.0201102
0.0165151
0.0194225
0.0165874
0.530818
0.54845
-0.126833
0.565906
0.568029
0.567847
0.561035
0.56671
0.564928
0.0234245
0.00156594
0.00292022
0.265068
0.388264
0.707953
0.801543
0.675478
0.448289
0.20931
0.608001
0.673245
0.576166
0.733618
0.725255
0.743876
0.219445
0.0712911
0.227093
0.168057
0.557013
0.555683
0.547608
0.544683
0.561156
0.55927
0.563829
0.560825
0.563782
0.565175
-0.00423356
-0.0267876
-0.041227
-0.104373
0.356762
0.617824
0.294937
0.325171
0.187524
0.00463216
0.00556523
0.00529467
-0.000455268
0.0433606
0.0260825
0.0868446
0.0891094
0.0590283
0.0329712
0.0354243
0.0273404
0.0255799
0.55517
0.553448
0.559894
0.568453
0.507132
0.510906
0.476999
0.496939
0.482762
0.423529
0.457851
0.433401
0.0233381
0.0363068
0.0182133
0.0209597
0.0218776
0.0314854
0.029448
0.0240088
0.02441
0.0209508
0.0129588
0.0127322
-0.1311
-0.244931
1.02172
0.955828
0.166871
0.552666
0.559088
0.555874
0.560673
0.563804
0.564647
0.562394
0.558966
0.548969
0.550689
0.547207
0.547911
-0.0648459
-0.201369
-0.028012
-0.0968
0.17192
0.6567
0.400344
0.339902
0.334535
0.556761
0.962939
0.756626
0.746539
0.767926
-0.308443
0.0883833
-0.24142
0.378367
0.200016
0.707531
0.756881
0.777587
0.72568
0.677835
-0.0791116
0.583296
-0.0190737
0.0275892
0.222268
0.110651
0.747818
0.708896
0.714369
0.732547
0.751856
0.714714
0.696155
0.691661
0.728299
0.731841
0.533848
0.297008
0.250797
0.21187
0.691021
0.573491
0.629954
0.541434
0.552006
0.554751
0.553349
0.53557
0.542962
0.538649
0.544601
0.547895
0.556888
0.557255
0.552652
0.554835
-0.0078517
-0.0101529
0.0117708
-0.095444
-0.0861552
-0.145351
-0.0250721
0.115196
0.0771935
0.273881
0.378778
0.0915287
-0.0238246
0.00586948
0.0399168
0.21802
0.243217
0.117142
0.206511
0.192825
0.178129
0.279226
0.285298
0.0176149
0.0126888
0.0145078
0.0112409
0.0649492
0.135958
0.145616
0.037207
0.0319442
0.00582601
0.00189898
0.0194569
0.0175073
0.0188136
0.0579677
-0.0350126
0.0158944
0.0360165
0.0396669
0.0367001
0.0307031
0.547921
0.549932
0.549678
0.557711
0.574591
0.590223
0.54867
0.528813
0.519798
0.522767
0.496433
0.506467
0.502134
0.51573
0.535844
0.544875
0.542782
0.5454
0.528439
0.529965
0.516845
0.520656
0.496409
0.478247
0.466747
0.0104327
0.0458107
0.0504707
0.00130951
0.0337649
0.0152766
0.0326983
0.0522297
0.0349053
0.0290473
0.0224716
0.0270214
0.0291804
-0.0374378
0.0439569
-0.14746
-0.180773
-0.250974
0.92621
1.04621
0.848761
0.624643
0.639403
0.878065
0.964425
0.586626
0.772591
0.796211
0.607972
0.877695
0.557472
0.557081
0.554681
0.554162
0.555401
0.0245175
0.125737
0.13422
0.189022
0.303383
0.416539
0.339944
0.218491
0.351468
0.355274
0.651937
0.666476
0.617871
0.64027
0.639369
0.464858
0.543165
0.596817
0.550656
0.598305
0.620468
0.580338
0.610984
0.557675
0.513585
0.511013
0.459322
0.481201
0.458459
0.439941
0.547115
0.525025
0.535103
0.526006
0.545482
0.569638
0.566051
0.596694
0.607952
0.529826
0.48786
0.497824
0.526469
0.487798
0.501994
0.517663
0.253647
0.152478
0.238115
-0.0522924
0.028017
0.0130204
-0.0340358
0.0114311
0.297079
-0.399991
-0.373236
-1.00573
0.522868
0.993167
0.700589
0.673393
0.748073
0.726662
0.730266
0.753622
0.759784
0.681331
0.699575
0.702822
0.661669
0.685217
0.708692
0.706023
0.5558
0.427802
0.420721
0.378007
0.250904
0.285959
0.488225
0.410278
0.335955
0.338765
0.501323
0.388977
0.455632
0.494552
0.426379
0.381256
0.585926
0.651128
0.64091
0.61534
0.533563
0.547725
0.572549
0.60837
0.635284
0.667395
0.544315
0.550128
0.551391
0.548902
0.546115
0.549039
0.549175
0.551707
0.552507
0.555438
0.554436
0.0036948
0.0150412
0.0026295
-0.00457071
0.0232513
0.0181465
0.0626146
0.0485814
0.034354
0.0413625
0.0149882
0.0104295
0.0168235
0.025574
0.137942
0.15111
0.135278
0.095708
0.286245
0.417196
0.487749
0.365292
0.258306
0.281524
0.304789
0.0282965
0.0564471
0.0414622
0.0840025
0.0754365
0.0134235
0.0117817
0.0130832
0.0151926
0.0260755
0.0083608
0.0146287
0.0195978
0.010829
0.00905342
0.0115216
0.531011
0.524531
0.525917
0.519896
0.518739
0.532699
0.536944
0.53876
0.54409
0.546093
0.536587
0.542072
0.545668
0.0331522
0.0181116
0.00554411
0.0250908
0.0247462
0.0269466
0.0224519
0.153562
0.0842151
0.0900668
0.0423485
-0.0861536
-0.0284578
0.515466
0.512186
0.507518
0.746512
0.597054
0.515148
0.610326
0.71677
0.303396
0.502276
0.335527
0.917392
0.810522
0.956787
0.572923
0.268345
0.423849
0.474729
0.282285
0.354575
0.360367
0.248411
0.280219
0.312539
0.413847
0.290078
0.264543
0.0223553
0.209999
0.327137
0.308028
0.436227
0.498281
0.287305
0.207083
0.163091
0.643482
0.662513
0.681538
0.651987
0.676141
0.606751
0.595689
0.613449
0.622074
0.618446
-0.733675
-0.441524
-1.38524
-0.699958
-0.249965
0.55307
0.515958
0.796163
0.6817
0.744958
0.729524
0.687541
0.653257
0.66755
0.699108
0.394758
0.506217
0.480536
0.486115
0.386627
0.31921
0.620775
0.614659
0.650795
0.674884
0.641816
0.674796
0.542091
0.541716
0.5414
0.537798
0.536039
0.538235
0.100349
0.0695011
0.104425
0.084256
0.0624149
0.0513183
0.0364131
0.0287806
0.0252001
0.0246678
0.0337751
0.0358516
0.194003
0.136088
0.0600512
0.0900424
0.0281941
-0.0381283
-0.056824
0.0452949
0.138031
0.128273
0.435394
0.687018
0.508055
0.677343
0.516974
0.572708
0.498164
0.491067
0.517787
0.405249
0.485217
0.253254
-0.251069
-0.159293
0.811126
0.828901
0.610819
0.425617
0.196431
0.384819
0.581317
0.516544
0.555201
0.624144
0.615477
0.0377238
0.104012
0.365185
0.592659
0.258683
0.251114
0.24555
0.420324
0.344401
)
;

boundaryField
{
    wall-4
    {
        type            zeroGradient;
    }
    velocity-inlet-5
    {
        type            zeroGradient;
    }
    velocity-inlet-6
    {
        type            zeroGradient;
    }
    pressure-outlet-7
    {
        type            fixedValue;
        value           uniform 0;
    }
    wall-8
    {
        type            zeroGradient;
    }
    frontAndBackPlanes
    {
        type            empty;
    }
}


// ************************************************************************* //
