/*--------------------------------*- C++ -*----------------------------------*\
| =========                 |                                                 |
| \\      /  F ield         | OpenFOAM: The Open Source CFD Toolbox           |
|  \\    /   O peration     | Version:  4.0                                   |
|   \\  /    A nd           | Web:      www.OpenFOAM.org                      |
|    \\/     M anipulation  |                                                 |
\*---------------------------------------------------------------------------*/
FoamFile
{
    version     2.0;
    format      ascii;
    class       surfaceScalarField;
    location    "39";
    object      phi;
}
// * * * * * * * * * * * * * * * * * * * * * * * * * * * * * * * * * * * * * //

dimensions      [0 3 -1 0 0 0 0];

internalField   nonuniform List<scalar> 
1300
(
3.75095
5.62643
-3.05347
3.75095
-7.51068
5.62643
-4.41352
4.41352
-0.873118
0.873118
1.87641
1.87454
-2.9019
2.9019
-2.33324
2.33324
-2.55333
2.55333
-5.24638
5.24638
-5.0682
5.0682
4.66656
-4.66656
-6.15348
6.15348
-1.21825
1.21825
-3.79056
3.79056
3.16975
-3.16975
-2.29817
2.29817
-0.225012
0.225012
-0.553507
4.30446
3.19745
3.19745
-2.02991
2.02991
-4.86378
4.86378
6.21798
-6.21798
4.91732
-4.91732
-1.86385
-2.14647
1.7521
-11.487
-5.75858
-5.75858
-8.44039
8.44039
-2.81396
2.81247
2.94425
-2.94425
-1.78009
1.78009
-4.34816
-0.0653616
-4.34816
4.41039
0.00313207
4.41039
-0.965147
0.0920289
-0.965147
3.88891
-3.88891
0.747264
0.125854
0.747264
3.06495
-3.06495
-1.87707
3.75349
1.87388
-1.87186
6.17632
-1.87909
3.75363
-5.98067
5.98067
-3.1158
0.213899
-3.1158
2.72656
0.175337
2.72656
-6.79439
6.79439
-2.42411
0.0908684
-2.42411
2.28002
0.0532223
2.28002
2.87056
-2.87056
-2.65532
0.10199
-2.65532
2.44054
0.112792
2.44054
0.353541
5.27289
-5.97997
8.79244
-5.27289
0.0265082
5.20835
0.0380303
5.20835
-5.10593
0.0377265
-5.10593
5.01266
0.055541
5.01266
4.75764
-0.0910748
4.75764
-4.78125
0.114683
-4.78125
-3.66537
-4.13571
-6.32915
0.175678
-6.32915
-1.22445
0.00620255
-1.22445
1.17359
0.0446568
1.17359
-3.63368
3.63368
-4.1861
0.395542
-4.1861
3.12419
0.0455533
3.12419
1.8685
1.88245
5.61945
-5.61945
2.44971
-2.28674
-0.0114372
-2.28674
-2.29248
-2.62484
2.29248
0.00569146
-0.476001
0.250989
-0.476001
3.15932
0.0381247
3.15932
2.28341
0.157125
-2.28341
0.253503
3.23573
-3.23573
1.36711
0.662798
1.36711
-5.56715
5.56715
4.95401
0.0586465
-4.95401
0.0902297
6.15646
0.0615176
6.15646
-6.19954
-0.0184358
-6.19954
2.71819
-4.86466
-2.42454
5.94915
0.204326
-5.94915
0.190572
2.91473
0.0295169
2.91473
-2.92044
2.92044
-2.9835
0.0392511
-2.9835
-2.18244
0.402346
-2.18244
1.4775
0.302592
1.4775
-4.21294
-0.135226
-4.21294
-4.32753
0.141431
4.32753
0.0828622
1.0976
-1.0976
-1.0726
0.107454
-1.0726
-4.0408
-0.172136
4.0408
-0.151887
-3.76732
-0.121597
-3.76732
-3.02372
0.0402267
3.02372
0.0412214
3.11266
0.0466616
-3.11266
0.0477153
-1.87082
3.75328
-1.88013
3.75401
-5.59874
-0.381933
-5.59874
6.29026
-0.309587
6.29026
3.46939
0.321169
-3.46939
0.353591
2.59164
0.134918
2.59164
-6.76482
-0.0295758
-6.76482
6.77238
0.0220126
6.77238
2.4984
0.0932445
-2.4984
0.0742926
2.26473
0.0152903
2.26473
2.88572
-0.0151625
2.88572
-2.86791
-0.00265024
-2.86791
2.79904
-2.79904
2.73068
0.0683592
-2.73068
0.0753632
-11.1328
11.1144
-0.0350123
-11.0978
5.17334
5.17334
4.18728
0.570357
4.18728
-4.99663
0.215388
-4.99663
3.08289
-5.50743
3.12476
-6.79014
4.72742
-16.2144
4.32506
-8.46077
6.6083
-6.6083
6.47438
0.133915
-6.47438
0.145231
-1.26629
0.041845
-1.26629
-3.02766
-0.606021
-3.02766
4.2851
-0.651419
4.2851
-3.02876
3.02876
-3.07784
0.0490787
3.07784
0.0463497
2.27897
-0.0142421
-2.27897
-0.00776985
0.616539
0.130725
-0.616539
0.140538
3.42664
-0.190908
3.42664
-3.0489
-0.186829
-3.0489
-1.31227
0.0459768
1.31227
0.0548396
-5.81472
0.247569
-5.81472
-11.1908
0.0930153
-11.1528
-6.10653
-6.10653
2.33387
11.1263
-2.88833
0.0204213
2.88833
0.0263993
2.97574
0.0530244
-2.97574
0.0552997
-2.86198
0.0629408
2.86198
0.058459
-2.5602
0.377762
-2.5602
-1.06553
1.06553
-1.23928
0.173746
1.23928
0.23822
1.35935
-0.261744
1.35935
1.13713
0.0364601
-1.13713
0.0645278
-3.67397
-0.0933459
-3.67397
6.52294
-0.232675
6.52294
-2.94223
-0.106669
2.94223
-0.0565119
-0.0333533
11.1478
-5.13998
0.0340577
5.13998
-11.2093
11.2433
-3.23414
0.673944
3.23414
0.95314
5.28841
0.27874
-5.28841
0.29178
6.70699
0.0653915
-6.70699
0.09869
-2.53777
-0.489889
-2.53777
-5.01439
-0.58435
5.01439
-0.729293
-11.4745
-0.203861
11.6783
-11.4189
6.01858
0.137874
-6.01858
11.3812
-1.00945
-0.0881485
1.00945
0.0560773
1.68208
-0.322732
1.68208
3.59396
-0.167324
-3.59396
-0.0800063
-6.67462
-0.0902008
6.67462
-0.151682
-2.09574
-0.442027
2.09574
-0.413663
-4.267
4.30513
1.90931
-2.50163
-2.36303
-5.12647
1.8519
1.90138
4.3016
-10.1776
-6.03681
-9.98707
7.26564
-6.97386
-9.26868
9.17761
7.67446
-7.79605
-5.78523
5.83158
6.4824
-6.44118
1.87875
1.87474
7.91764
-7.70374
-15.6589
15.2769
7.4808
-7.38993
15.8368
-15.8664
-17.9062
17.9715
-5.71071
5.8127
-6.72694
6.72429
-6.95083
6.89432
-3.18106
-3.60907
13.1487
-12.973
8.38486
-8.3963
-8.53467
8.93021
3.38248
0.922654
3.42914
-1.88224
3.761
-1.87139
3.78071
2.67176
-5.85283
2.83567
-5.1987
4.05806
4.3268
-4.06375
-1.06272
-5.92053
5.95004
-5.8199
5.87836
8.98516
-9.05052
-1.88518
3.75991
-1.86883
3.77021
-3.42509
-2.36014
3.37954
0.922068
8.07348
5.07522
-8.27781
-1.70926
-7.93162
7.76429
-8.18454
7.99771
-0.439502
5.81917
-5.37966
4.42428
-1.559
7.37817
5.70664
5.92203
5.86685
-5.58811
1.10701
-6.48668
-6.39645
-2.49426
2.60172
2.43318
-2.30732
6.00675
1.66771
5.85486
-5.62975
-2.16631
-5.72309
3.82103
2.01055
3.87011
4.07719
2.40521
4.11742
3.03085
-3.03572
0.0048723
-3.05633
6.08718
0.724192
-5.41647
-4.4944
4.95206
2.96558
5.1274
-5.49232
-2.21143
-5.13873
-9.5552
-6.10365
-10.1396
10.1159
5.16103
9.80631
-12.0004
11.8487
4.77707
2.70373
4.83029
-4.89805
-2.49188
-4.82376
11.6492
-2.60612
-9.04307
-10.3533
-7.55281
10.3313
5.50545
10.9898
6.98174
11.0885
4.43683
7.21236
-9.94228
2.38947
-3.86562
-1.84509
-3.79025
3.68294
2.12975
3.79573
-4.21345
-2.51349
-4.19303
-4.28881
-2.66202
4.30398
2.42031
-4.40354
-3.781
4.51021
2.38411
4.0845
-10.1213
4.37627
-7.98534
-9.22732
-3.7457
-9.08209
3.55629
2.59202
-6.14831
-2.29654
8.55795
-4.23115
7.49523
-5.08186
-3.31444
-5.08963
-6.8201
-1.71457
-6.67867
-8.8821
8.39221
-9.18886
8.53744
12.6071
-5.68417
-6.92296
-3.96825
-2.47293
3.92054
-0.4914
-3.71096
3.71583
0.0500363
3.83074
4.7534
4.262
-3.88662
-1.93327
-3.83133
3.83087
2.04749
3.89381
6.76954
2.21562
6.77267
-6.47326
-2.57726
-6.60849
9.07254
-8.6702
2.89598
-2.85001
5.33592
2.66179
-5.14502
-2.7866
6.19765
-3.17255
-3.02509
-12.2063
10.5545
1.65179
-4.8281
-0.403819
-0.178807
-5.49766
-3.77102
5.38298
0.539045
11.0935
7.32251
-5.51362
5.76119
6.16472
6.22337
-0.173083
5.83327
-5.15933
5.32499
-2.47197
-2.85302
5.33419
-5.50633
-1.2743
-5.38118
4.10688
0.348534
1.69819
-1.4472
-1.94849
-0.545776
-1.88396
1.46254
0.970639
1.59326
0.945464
1.65625
-2.95449
0.559043
2.39545
-2.00903
-1.74828
-3.70374
-1.08657
4.79031
5.63195
2.13234
-5.55194
-0.17115
2.63715
-2.5925
-0.738725
-2.96502
2.17344
-2.91216
-3.68625
-1.9082
5.59446
-3.37057
-0.460756
3.31754
0.552563
-3.82584
-2.09469
3.78658
0.330834
-3.12559
6.19049
-3.06489
-5.05887
2.52844
3.55874
4.53899
-4.78991
2.44667
2.34324
-1.23116
4.23176
0.895643
4.36668
-6.80582
4.59439
5.7583
3.17191
-6.07947
0.940742
-5.86507
8.47933
-7.30721
-1.17212
4.08173
4.3976
7.12376
5.48337
-5.70036
12.8241
-1.17051
-6.1367
7.03558
-3.86367
4.79888
-8.66255
-10.2823
4.14555
-9.18386
10.9723
-1.78844
-3.63455
-8.36581
12.8184
-1.20783
-11.6106
8.59848
-4.15766
-4.26129
8.41895
-6.76378
6.75316
-1.94321
-4.80996
-10.1451
-5.72129
10.2353
1.61342
-9.85752
12.247
-2.64515
4.09615
0.734138
4.11144
3.22879
-5.40743
2.17864
3.53499
-5.4782
2.0507
-7.45813
-6.78894
12.1487
-5.35974
-10.5346
-9.57524
-0.959399
2.52609
9.72089
-9.50784
7.43492
2.07291
3.30831
0.585499
-3.37667
-0.413583
0.249967
4.53285
-4.78282
4.0457
4.20283
3.33325
1.1996
3.8415
2.10854
-3.8679
-0.325128
-4.15488
1.49286
-1.73457
-3.67741
5.17027
-4.06483
0.387422
-2.73898
-3.50838
6.24736
-4.58406
3.03898
3.15151
5.08646
-4.91283
1.40445
-2.3989
-2.51393
2.66038
-4.39495
1.97623
3.19404
4.36034
0.579341
5.95212
6.19656
-8.54413
0.558791
11.2718
-9.56252
2.49229
8.5962
-9.92721
0.351972
-8.73012
1.00747
-5.23861
-5.14084
5.12566
-6.84023
-3.53689
6.1624
0.61027
-6.24527
-0.433404
-6.03336
-2.84874
-6.47538
-3.05377
-6.13509
-8.75413
-1.6511
-7.10303
6.74111
-6.68639
-3.45316
7.41568
1.12176
-7.41228
7.32413
-7.48695
7.16422
0.0949291
3.6209
4.35693
1.884
-2.38974
4.27373
-5.10676
7.32238
-8.61579
3.50903
4.06818
-6.64543
-4.54761
5.03516
4.03738
5.33775
8.92935
-10.4446
1.51522
-10.7373
12.0577
-1.32036
-16.514
5.77673
-7.58468
2.58291
0.313077
2.62475
0.607597
2.48466
-3.09226
-2.24241
-2.18757
-2.37111
-3.4621
5.8332
1.15947
-3.46093
2.30146
-3.53122
4.69069
-0.111709
-3.34922
5.30467
-2.82001
5.61775
-3.64293
1.97482
3.37764
5.72032
-2.34269
4.39089
-1.7291
1.85781
-4.2005
-1.60428
-2.96792
5.09767
-3.27944
3.66686
-0.314855
3.98171
-4.07721
0.904659
-0.743959
3.45887
3.71237
4.28495
-3.08535
2.94065
-4.66974
-1.25985
-4.0904
-0.896365
-0.300382
-3.74751
4.04789
6.03219
-6.33258
-5.25938
9.56615
-4.30678
7.71854
-5.40223
-2.31631
-4.27135
-4.39885
3.89358
1.93969
9.65823
0.209838
-5.61207
-4.94949
-3.99635
3.20133
2.12366
-1.90843
3.56022
2.08723
-0.389045
0.53082
1.06244
1.84413
-1.31331
0.24422
1.59991
-1.20298
1.9264
0.710756
-1.96286
0.0789014
-1.341
3.51444
1.05445
-2.02509
0.711785
1.03756
-3.50953
4.89118
-2.53967
-2.35151
5.92875
1.15954
-3.69921
4.22164
-3.87311
2.3419
-3.42848
-1.3573
-5.23042
-3.56271
-2.57193
4.87338
-3.26128
5.39362
1.18713
-5.22247
6.4096
-3.61487
1.70667
-3.08909
3.79985
-1.07582
-2.01328
2.85522
2.73923
-2.97367
0.00865509
-0.11845
2.35181
-2.47026
-0.56035
-2.56938
-4.57221
4.90304
-2.10674
4.5534
2.167
-1.91517
6.46857
1.81073
-3.7259
-3.24813
-3.70889
-1.38266
3.15633
-0.579007
-4.24475
-5.38896
4.15151
0.215166
-6.90626
7.70565
-0.79939
-3.94068
-0.653708
4.73544
-5.94968
0.471481
-3.89898
3.80667
4.70232
4.91748
-11.3947
-0.215852
-6.23371
1.12878
-7.36249
5.52638
-3.56978
7.71533
-10.3761
6.92294
-9.25434
6.54321
-0.819284
6.25441
-4.07578
2.78866
-8.50995
-6.89653
5.40954
-2.70581
6.14368
-3.06798
9.21166
-5.71314
5.17487
4.03679
-0.991332
-4.09829
-5.17378
4.18245
0.00109308
4.11254
4.97489
-2.86635
4.64976
2.25867
-4.65757
-2.13628
-6.49719
1.83962
-3.34568
-1.91718
3.7568
3.16929
3.75478
1.24286
-3.3412
7.23536
-8.19476
-1.87561
-3.26523
5.16729
-0.984844
3.38576
-6.65099
-1.85285
4.84812
-0.81026
-4.03786
0.836049
-4.37294
1.66414
-6.03708
5.17609
-5.60949
2.21559
-9.80028
-5.19668
-5.14061
-2.25279
-5.23417
-7.60495
5.35217
-1.82822
5.49591
-8.56949
7.75923
-3.48816
8.84033
-5.4279
-1.04748
5.84157
1.32265
10.163
0.163777
-4.71139
-1.88013
3.93959
-2.05946
1.3212
-3.58373
0.355859
2.48008
3.44866
-6.58697
-0.0584664
-4.76986
-3.9227
7.96008
5.64345
11.6756
1.23108
9.15272
-1.19263
10.3838
4.14512
4.38334
-3.01918
4.5344
1.02871
4.53774
-0.852733
2.82755
1.77202
1.77822
0.814276
2.31739
1.39498
3.22205
0.129791
-2.05778
4.63681
-8.63316
-0.975263
-8.0628
1.11481
5.72472
-4.60991
3.10002
-0.976355
1.04056
0.0548353
-1.56817
1.51334
-2.79819
-1.95722
-0.35731
-1.64316
2.35495
1.87128
-1.99764
-0.800554
0.348002
-3.91071
3.08047
-3.07182
-0.332587
6.07702
-2.77018
0.299919
-1.06351
-2.26946
-2.81524
2.73634
6.17693
0.29164
3.11204
5.19468
3.09999
0.233639
3.88082
-5.66926
-3.57731
-5.88511
-0.358732
4.3767
1.74802
7.97287
5.78481
4.79996
-1.85103
-10.0458
6.55301
-2.01861
5.23266
-1.1948
-4.84228
5.01087
2.31151
-5.62114
0.0116456
-4.83063
-6.84925
-0.52572
8.28495
-9.63726
8.58978
5.74104
1.36199
-4.41125
-0.72936
4.2375
0.145838
10.5296
-1.12693
-6.80979
7.93672
-4.59779
3.62253
0.823412
2.7368
2.33675
1.36039
-5.4494
-10.0593
-1.95147
-1.55806
-4.30298
0.487337
-2.35861
6.25062
-2.62809
3.93431
5.30863
6.34919
-2.15795
-4.17463
6.46472
-2.53042
3.81877
)
;

boundaryField
{
    wall-4
    {
        type            calculated;
        value           uniform 0;
    }
    velocity-inlet-5
    {
        type            calculated;
        value           uniform -3.75095;
    }
    velocity-inlet-6
    {
        type            calculated;
        value           uniform -5.62643;
    }
    pressure-outlet-7
    {
        type            calculated;
        value           nonuniform List<scalar> 8(3.05347 7.51068 4.01032 9.73493 7.80109 5.14273 6.20765 9.05248);
    }
    wall-8
    {
        type            calculated;
        value           uniform 0;
    }
    frontAndBackPlanes
    {
        type            empty;
        value           nonuniform 0();
    }
}


// ************************************************************************* //
