/*--------------------------------*- C++ -*----------------------------------*\
| =========                 |                                                 |
| \\      /  F ield         | OpenFOAM: The Open Source CFD Toolbox           |
|  \\    /   O peration     | Version:  4.0                                   |
|   \\  /    A nd           | Web:      www.OpenFOAM.org                      |
|    \\/     M anipulation  |                                                 |
\*---------------------------------------------------------------------------*/
FoamFile
{
    version     2.0;
    format      ascii;
    class       volScalarField;
    location    "54";
    object      p;
}
// * * * * * * * * * * * * * * * * * * * * * * * * * * * * * * * * * * * * * //

dimensions      [0 2 -2 0 0 0 0];

internalField   nonuniform List<scalar> 
918
(
0.558026
1.19049
0.00133099
0.557434
-0.0119387
1.15752
-0.504689
0.687136
0.538207
-0.104264
-0.0383604
0.53661
1.01802
0.783979
-1.12372
-0.00592071
0.654096
-0.383041
0.537288
-0.0492035
0.712933
0.544762
0.54779
0.538371
0.604333
0.760573
0.898873
0.0215163
0.00846815
0.00452718
-0.0117428
-0.0387103
-0.0324094
1.04118
1.09225
1.11493
0.506141
0.333646
-0.370792
-0.440561
-0.433148
-0.542987
0.682389
0.680697
-0.19991
0.68994
0.693609
0.525287
0.537574
0.53848
0.539522
0.538495
0.539881
0.407711
-0.10754
-0.139885
-0.0843737
-0.0755241
0.0603536
-0.0388683
-0.041564
-0.0366465
-0.0365419
0.455694
0.531252
0.528208
0.54189
0.55193
1.13004
1.10197
1.12811
1.04169
1.05824
0.996031
0.968668
0.804802
0.826327
0.768555
0.757102
-1.55736
-2.51222
-0.532057
-0.280546
-0.0103781
-0.00361255
0.00273259
0.650037
0.650397
0.654192
0.658753
1.08223
-0.381289
-0.478666
0.537426
0.536231
0.544573
0.545271
0.541289
0.54038
-0.0389925
-0.035194
-0.0445286
-0.0463494
-0.0460781
0.70204
0.701619
0.538904
0.535912
0.55884
0.579896
0.572106
0.28122
0.610353
0.624603
0.590008
0.754
0.746638
0.756103
0.872413
0.835652
0.936176
0.959365
0.0169352
0.000671005
-0.011369
-0.0179932
-0.0157078
0.502001
0.494594
0.521648
0.509551
0.512038
0.249793
0.115663
0.419118
0.444341
-0.288159
-0.351504
-0.428519
-0.457757
-0.567086
0.612267
0.674817
0.671707
-0.213298
-0.140479
-0.272094
-0.0668008
-0.128596
0.515595
0.522575
0.517591
0.533099
0.527576
0.529535
0.541832
0.538906
0.540464
0.470087
0.593813
0.333926
0.299066
-0.244624
-0.157531
-0.24551
-0.0630459
-0.0587179
0.0740635
0.0993279
0.0474459
0.0358355
-0.0523624
-0.0446618
-0.0481025
-0.034725
-0.0332373
0.448519
0.437421
0.468319
0.475822
0.52013
0.521463
0.525324
0.52356
0.91954
0.9418
0.949372
0.923261
-3.50547
-6.29391
0.0455982
0.18263
-0.00555255
-0.0081269
0.00263522
-0.00502687
0.00117352
-0.00165171
-3.45888e-06
-0.00149381
0.00272492
0.00489992
0.643191
0.64386
1.00294
1.00772
0.980569
0.932617
0.525599
0.527684
0.533202
0.529074
-0.0334101
-0.0339497
-0.0333757
0.695692
0.699965
0.698552
0.243217
0.154412
0.331743
0.360515
0.636588
0.625321
0.635212
0.649889
0.685883
0.966732
0.984928
0.983231
0.991635
1.03575
1.05223
1.01744
0.481598
0.491498
0.48649
0.524782
0.522537
0.523449
0.519188
0.520545
0.518458
-0.0353847
-0.416666
0.493071
0.510977
0.494005
0.498088
0.691982
0.769763
0.659733
0.666495
0.664487
0.00164195
-0.0566245
0.254934
0.221521
0.388529
0.4247
0.403783
0.890581
0.851257
0.90125
0.874635
0.836088
0.861676
-0.368293
-1.87225
-0.988963
0.532884
0.346814
0.433853
0.0177073
0.000609661
0.00523129
1.00113
1.07546
0.649685
0.822825
0.826859
0.723748
0.754102
0.808653
0.734813
0.769169
0.803748
0.785443
0.568868
0.506469
0.52155
0.838824
0.894462
0.1253
0.0654601
0.0213911
0.117814
0.174607
0.148883
1.03652
0.948761
1.01937
0.535669
0.536382
-0.00186132
-0.0153835
0.540593
0.540644
-0.00996562
0.00168284
0.417569
-0.832163
0.107481
0.529145
0.519153
0.536223
-0.0872044
0.359795
-0.0390581
0.0548166
-0.000504863
0.533461
0.46668
0.426209
0.0053806
-0.014921
-0.0412338
-0.214693
0.53334
0.531646
0.535689
0.536643
0.537317
-0.0136572
-0.00978943
-0.00711965
-0.0391477
-0.0348883
-0.0445729
0.500319
0.518981
-0.167474
0.53583
0.53796
0.537779
0.531018
0.536657
0.534902
-0.00505636
-0.0116487
-0.0134709
0.22485
0.353924
0.658604
0.74688
0.629919
0.404855
0.168988
0.56098
0.624848
0.529929
0.684157
0.671199
0.686191
0.172742
0.0225366
0.181696
0.122852
0.527003
0.5257
0.517409
0.514402
0.531084
0.529191
0.533755
0.53076
0.533712
0.535102
-0.0451365
-0.0692155
-0.0825246
-0.150627
0.31455
0.576457
0.257014
0.287519
0.147612
-0.0341486
-0.0345381
-0.0382139
-0.0453076
0.00865442
-0.0152499
0.049909
0.0506662
0.0232131
-0.00351088
0.000830526
-0.0100311
-0.00679417
0.526437
0.52487
0.531141
0.54042
0.476256
0.480028
0.445179
0.465726
0.451079
0.390275
0.425421
0.400598
-0.00100138
0.00919588
0.00146377
-0.0115979
-0.0080892
-0.025811
-0.0232871
-0.0191907
-0.0150446
-0.0222978
-0.0362061
-0.0357672
-0.172462
-0.287662
0.989679
0.913935
0.133756
0.522506
0.528947
0.525718
0.530601
0.533728
0.534541
0.532264
0.528818
0.519361
0.520926
0.517687
0.518501
-0.0998795
-0.240852
-0.0684707
-0.140609
0.144614
0.628176
0.365866
0.302738
0.297627
0.524793
0.924191
0.710177
0.685338
0.697818
-0.34114
0.0505907
-0.276484
0.341087
0.16594
0.657119
0.706719
0.729234
0.676531
0.629277
-0.103818
0.555966
-0.0658546
-0.015429
0.184467
0.0644183
0.682222
0.655919
0.659092
0.676321
0.692782
0.662192
0.646281
0.641084
0.672689
0.675561
0.492447
0.255939
0.207444
0.168988
0.644255
0.528275
0.582004
0.497946
0.522152
0.524789
0.523413
0.505124
0.512667
0.508224
0.514641
0.518086
0.526796
0.527238
0.522553
0.524692
-0.0497233
-0.0531012
-0.0267769
-0.136276
-0.128059
-0.190208
-0.0620364
0.0764037
0.0377601
0.236608
0.342334
0.0535471
-0.0577984
-0.0306267
0.0101728
0.180489
0.206582
0.0790532
0.167469
0.156443
0.139587
0.241087
0.245507
-0.0193043
-0.0234499
-0.025981
-0.027837
0.0260249
0.095967
0.105891
0.00361021
-0.00246377
-0.0316798
-0.0314751
-0.0166659
-0.0208527
-0.0173562
0.0166068
-0.0445488
-0.012585
0.0024369
0.00684079
0.0039098
-0.00158421
0.518639
0.521032
0.520614
0.527261
0.545726
0.561357
0.518503
0.498328
0.489175
0.492172
0.465236
0.475508
0.471196
0.48492
0.506031
0.515538
0.512785
0.515568
0.498175
0.499846
0.486338
0.490058
0.464988
0.446095
0.434244
-0.0343951
0.00384275
-0.00403628
-0.031009
-0.00182288
-0.0141739
-0.00280519
0.0169763
0.000596926
-0.00214423
-0.012883
-0.0180097
-0.0173271
-0.0737826
0.0119504
-0.182419
-0.219649
-0.290918
0.891368
1.01536
0.812244
0.585429
0.603889
0.847144
0.932127
0.546813
0.737393
0.761205
0.587322
0.853375
0.527329
0.526934
0.524536
0.524013
0.525231
-0.00623052
0.0987313
0.0992576
0.160685
0.276638
0.38899
0.318122
0.193092
0.323857
0.326727
0.620458
0.632858
0.588426
0.6126
0.61251
0.428081
0.504052
0.556251
0.513749
0.566054
0.586984
0.542524
0.574833
0.525021
0.479596
0.475555
0.426475
0.446075
0.422509
0.405429
0.517214
0.494468
0.505054
0.495263
0.5146
0.539902
0.535784
0.566004
0.577785
0.498758
0.454707
0.463961
0.494364
0.455296
0.470301
0.486546
0.23185
0.13321
0.215666
-0.0721555
0.00198224
-0.0117523
-0.0597636
-0.0101544
0.274784
-0.418706
-0.394576
-1.02365
0.501327
0.957473
0.627485
0.600349
0.689791
0.671796
0.676488
0.693085
0.697103
0.633516
0.648006
0.65074
0.613707
0.63634
0.655687
0.65289
0.526078
0.389395
0.386468
0.337047
0.207237
0.245738
0.44559
0.368206
0.29292
0.293808
0.461296
0.348453
0.417364
0.452872
0.384216
0.338358
0.541622
0.606628
0.598797
0.573314
0.488638
0.502094
0.526095
0.560834
0.586658
0.617374
0.51414
0.520027
0.521267
0.518757
0.516016
0.519039
0.519254
0.521794
0.522482
0.525457
0.524491
-0.0398304
-0.0276923
-0.0407826
-0.0488967
-0.0165367
-0.0199776
0.0230791
0.00921863
-0.00656874
-0.000611218
-0.0266419
-0.0309843
-0.0260727
-0.0170415
0.102104
0.114553
0.0979677
0.0585231
0.250223
0.38049
0.454319
0.32979
0.222518
0.245929
0.266553
-0.00745358
0.019941
0.006862
0.0457869
0.037335
-0.0264357
-0.03003
-0.0276108
-0.0208993
-0.0117023
-0.0273553
-0.0291825
-0.0212724
-0.0255502
-0.0269094
-0.0293698
0.500578
0.494081
0.495791
0.489635
0.48835
0.502647
0.506869
0.50885
0.51431
0.516608
0.506701
0.512483
0.516278
-0.00226869
-0.0252782
-0.0290772
-0.017882
-0.0205774
-0.0190114
-0.0212509
0.122877
0.0512851
0.0559361
0.00924721
-0.121615
-0.0639178
0.491168
0.490736
0.481656
0.72068
0.57009
0.490731
0.588084
0.6935
0.27493
0.472667
0.306973
0.888498
0.784181
0.930617
0.542228
0.244022
0.404612
0.450826
0.262209
0.335995
0.32802
0.216141
0.247426
0.283443
0.383466
0.265097
0.24129
-0.00114689
0.188753
0.301544
0.283322
0.408875
0.470414
0.265086
0.185674
0.14006
0.606116
0.625265
0.640227
0.612404
0.633565
0.578033
0.567701
0.585574
0.594841
0.589774
-0.751542
-0.4582
-1.40411
-0.723827
-0.270485
0.531709
0.500263
0.767404
0.649144
0.694907
0.680266
0.639298
0.607521
0.627975
0.6538
0.349844
0.461251
0.436397
0.441447
0.343047
0.274287
0.573
0.568287
0.601993
0.625629
0.596447
0.626785
0.511953
0.511651
0.51116
0.507435
0.505704
0.50803
0.061982
0.0308343
0.0666793
0.0472802
0.0242137
0.0126152
0.00155268
-0.00788079
-0.0151798
-0.0156147
-0.00272003
0.00109825
0.170012
0.108838
0.0285328
0.0586191
-0.00193607
-0.0711288
-0.0888288
0.0138934
0.109555
0.0999981
0.404699
0.655104
0.475046
0.642413
0.484125
0.539948
0.470533
0.462166
0.48814
0.380016
0.460177
0.240875
-0.265879
-0.174791
0.789579
0.802775
0.581907
0.403109
0.171869
0.35363
0.546373
0.478742
0.515465
0.584376
0.573062
0.0222865
0.0832865
0.360653
0.587976
0.238375
0.229374
0.223379
0.404097
0.324386
)
;

boundaryField
{
    wall-4
    {
        type            zeroGradient;
    }
    velocity-inlet-5
    {
        type            zeroGradient;
    }
    velocity-inlet-6
    {
        type            zeroGradient;
    }
    pressure-outlet-7
    {
        type            fixedValue;
        value           uniform 0;
    }
    wall-8
    {
        type            zeroGradient;
    }
    frontAndBackPlanes
    {
        type            empty;
    }
}


// ************************************************************************* //
