/*--------------------------------*- C++ -*----------------------------------*\
| =========                 |                                                 |
| \\      /  F ield         | OpenFOAM: The Open Source CFD Toolbox           |
|  \\    /   O peration     | Version:  4.0                                   |
|   \\  /    A nd           | Web:      www.OpenFOAM.org                      |
|    \\/     M anipulation  |                                                 |
\*---------------------------------------------------------------------------*/
FoamFile
{
    version     2.0;
    format      ascii;
    class       surfaceScalarField;
    location    "54";
    object      phi;
}
// * * * * * * * * * * * * * * * * * * * * * * * * * * * * * * * * * * * * * //

dimensions      [0 3 -1 0 0 0 0];

internalField   nonuniform List<scalar> 
1300
(
3.75095
5.62643
-3.30481
3.75095
-7.77907
5.62643
-4.35496
4.35496
-0.587163
0.587163
1.8764
1.87456
-2.77306
2.77306
-2.24358
2.24358
-2.53972
2.53972
-5.24646
5.24646
-5.06926
5.06926
4.65813
-4.65813
-6.29536
6.29536
-0.989023
0.989023
-3.67618
3.67618
3.16966
-3.16966
-2.1578
2.1578
-0.0720449
0.0720449
-0.553488
4.30444
3.19747
3.19747
-2.00099
2.00099
-4.8676
4.8676
6.21803
-6.21803
5.30744
-5.30744
-2.00264
-2.43556
1.82984
-11.548
-5.94923
-5.94923
-8.44037
8.44037
-2.81394
2.81249
2.94543
-2.94543
-1.77837
1.77837
-4.31677
-0.0381857
-4.31677
4.32491
0.0300492
4.32491
-0.655468
0.0683055
-0.655468
3.95602
-3.95602
0.486096
0.101067
0.486096
3.0652
-3.0652
-1.8771
3.7535
1.87385
-1.87188
6.17633
-1.87907
3.75363
-6.00774
6.00774
-2.98973
0.216663
-2.98973
2.59014
0.182928
2.59014
-6.82731
6.82731
-2.28106
0.0374801
-2.28106
2.21092
0.0326591
2.21092
2.87753
-2.87753
-2.64861
0.108895
-2.64861
2.4197
0.120017
2.4197
0.353514
5.27292
-5.97994
8.79243
-5.27292
0.0264585
5.20833
0.0381325
5.20833
-5.10607
0.0368163
-5.10607
5.0122
0.0570577
5.0122
4.7457
-0.0875716
4.7457
-4.77534
0.117209
-4.77534
-3.37751
-4.02691
-6.44012
0.144753
-6.44012
-1.06231
0.0732831
-1.06231
0.895445
0.0935782
0.895445
-3.67305
3.67305
-4.07747
0.401291
-4.07747
3.12406
0.0456052
3.12406
1.8685
1.88246
5.61945
-5.61945
2.44979
-2.15044
-0.00736286
-2.15044
-2.19815
-3.1093
2.19815
-0.0403455
-0.30274
0.230695
-0.30274
3.15939
0.0380777
3.15939
2.25165
0.168048
-2.25165
0.250668
3.26263
-3.26263
1.33842
0.662563
1.33842
-5.56414
5.56414
4.95587
0.0563315
-4.95587
0.0882686
6.15689
0.0611441
6.15689
-6.19956
-0.0184682
-6.19956
2.55347
-4.98903
-2.59362
6.12112
0.174246
-6.12112
0.171885
2.91687
0.0285691
2.91687
-2.92001
2.92001
-2.98422
0.0387856
-2.98422
-2.17737
0.399007
-2.17737
1.47959
0.298777
1.47959
-4.21711
-0.0996623
-4.21711
-4.21484
0.137369
4.21484
0.110074
1.12484
-1.12484
-0.749815
0.0943469
-0.749815
-4.08044
-0.136671
4.08044
-0.12442
-3.84652
-0.109496
-3.84652
-3.02423
0.0400085
3.02423
0.0409683
3.11279
0.0465925
-3.11279
0.047598
-1.87082
3.75328
-1.88013
3.75398
-5.62765
-0.38009
-5.62765
6.3166
-0.308863
6.3166
3.3482
0.327977
-3.3482
0.35847
2.44972
0.140419
2.44972
-6.79262
-0.0346862
-6.79262
6.80966
0.0176496
6.80966
2.3487
0.101016
-2.3487
0.0676383
2.19044
0.0204867
2.19044
2.89629
-0.0187604
2.89629
-2.87271
-0.00481776
-2.87271
2.79697
-2.79697
2.7269
0.0700701
-2.7269
0.0782818
-11.133
11.1146
-0.0352092
-11.0978
5.17312
5.17312
4.17439
0.571311
4.17439
-4.99282
0.217482
-4.99282
2.6984
-5.29202
3.05402
-6.43153
4.65512
-16.2031
4.31412
-8.34103
6.67467
-6.67467
6.56543
0.109239
-6.56543
0.125311
-1.1689
0.106592
-1.1689
-3.06893
-0.604117
-3.06893
4.31814
-0.645095
4.31814
-3.02839
3.02839
-3.0776
0.0492149
3.0776
0.046454
2.16614
0.024299
-2.16614
0.0157015
0.394485
0.0916107
-0.394485
0.0917447
3.46946
-0.206823
3.46946
-3.06829
-0.194344
-3.06829
-1.25918
0.0902821
1.25918
0.0792437
-5.81385
0.249707
-5.81385
-11.1908
0.0929502
-11.1527
-6.10661
-6.10661
2.33376
11.1262
-2.89156
0.018849
2.89156
0.0253041
2.97538
0.0530124
-2.97538
0.0553641
-2.86113
0.0641598
2.86113
0.0588874
-2.55257
0.375194
-2.55257
-1.07532
1.07532
-1.2436
0.168278
1.2436
0.235985
1.39267
-0.267836
1.39267
0.820232
0.0752131
-0.820232
0.0704164
-3.75236
-0.0941604
-3.75236
6.54875
-0.232151
6.54875
-2.9564
-0.111885
2.9564
-0.0601142
-0.0333306
11.1479
-5.13979
0.0337138
5.13979
-11.209
11.2428
-3.22396
0.67139
3.22396
0.950433
5.28538
0.27876
-5.28538
0.292558
6.75885
0.0508124
-6.75885
0.0841806
-2.57679
-0.492142
-2.57679
-5.04516
-0.582487
5.04516
-0.727018
-11.4745
-0.205155
11.6797
-11.4175
6.019
0.137885
-6.019
11.3806
-1.02974
-0.0950976
1.02974
0.0455847
1.71786
-0.325182
1.71786
3.65788
-0.188423
-3.65788
-0.0944841
-6.69959
-0.0930304
6.69959
-0.150839
-2.13332
-0.443465
2.13332
-0.415467
-4.26708
4.30515
1.90925
-2.4178
-2.57123
-5.5271
1.85189
1.90139
4.30168
-10.1592
-6.04383
-9.98736
7.26273
-6.97017
-9.25113
9.16356
7.82503
-7.93452
-5.78503
5.83149
6.48262
-6.44165
1.87875
1.87475
7.95134
-7.73468
-15.6406
15.2605
7.49714
-7.45966
15.7838
-15.8184
-17.8597
17.9105
-5.69788
5.80678
-6.73543
6.73061
-6.96651
6.9064
-2.84592
-3.58561
13.1212
-12.9764
8.54237
-8.54973
-8.57413
8.97542
3.38255
0.922605
3.42914
-1.8822
3.76095
-1.87143
3.78068
2.6968
-5.54273
2.59521
-5.16644
4.32245
4.21991
-4.28211
-1.24499
-5.92323
5.95179
-5.81635
5.87524
9.09036
-9.12854
-1.88515
3.75989
-1.86884
3.77023
-3.42504
-2.35999
3.37943
0.922243
8.08463
5.03655
-8.25888
-1.72848
-8.00559
7.81717
-8.21424
8.01989
-0.435635
5.81821
-5.38257
4.43196
-1.56147
7.37968
5.70125
5.91874
5.86584
-5.58708
1.10433
-6.4869
-6.39864
-2.37358
2.46792
2.26388
-2.16281
6.09421
1.73082
5.96979
-5.72467
-2.20985
-5.81883
3.82082
2.01066
3.87004
4.07792
2.4047
4.11793
3.03061
-3.03584
0.00522374
-3.05653
6.08714
0.724054
-5.41652
-4.49428
4.96145
2.98989
5.14438
-5.50932
-2.22536
-5.15085
-9.55695
-6.08363
-10.1394
10.101
5.15947
9.79216
-11.9736
11.8228
4.78671
2.71042
4.81937
-4.91987
-2.53979
-4.85223
11.6331
-2.60815
-9.02498
-10.3269
-7.53274
10.3093
5.47446
10.9681
6.94234
11.0523
4.42158
7.21155
-9.89604
2.3633
-3.86135
-1.83653
-3.78307
3.66666
2.14012
3.78668
-4.21596
-2.51947
-4.19711
-4.29287
-2.67364
4.31163
2.41898
-4.41216
-3.80208
4.52404
2.38236
4.01914
-10.063
4.32189
-7.90749
-9.20001
-3.77641
-9.0747
3.49137
2.61011
-6.10148
-2.05135
8.46278
-4.24287
7.21779
-5.1749
-3.37483
-5.1592
-6.83702
-1.73711
-6.69965
-8.8939
8.40175
-9.19244
8.54735
12.5739
-5.67944
-6.89448
-3.96834
-2.47331
3.92075
-0.491606
-3.71064
3.71586
0.0503105
3.83099
4.75359
4.26199
-3.88527
-1.93108
-3.82991
3.82727
2.04798
3.89143
6.80352
2.28684
6.83356
-6.57358
-2.55497
-6.67324
9.05208
-8.65308
2.86407
-2.77379
5.37804
2.64185
-5.17122
-2.83437
6.21238
-3.21327
-2.99911
-12.1994
10.536
1.66341
-4.81975
-0.387786
-0.315741
-5.49129
-3.75984
5.37408
0.544655
11.0807
7.32084
-5.51196
5.76166
6.16772
6.22405
-0.174585
5.81659
-5.1452
5.27013
-2.54043
-2.7297
5.43458
-5.57125
-1.23866
-5.4833
4.24464
0.398539
1.57694
-1.34625
-1.84609
-0.527487
-1.77567
1.34674
0.917131
1.43836
0.926912
1.54101
-2.94298
0.553489
2.38949
-2.01606
-1.60932
-3.75719
-1.11784
4.87503
5.70506
2.11211
-5.61057
-0.208257
2.5936
-2.50002
-0.751818
-3.00537
2.21902
-2.97084
-3.67023
-2.0104
5.68063
-3.3701
-0.459803
3.31709
0.552947
-3.8267
-2.09652
3.78792
0.330016
-3.12696
6.19053
-3.06357
-5.05804
2.52797
3.55917
4.53863
-4.78959
2.44718
2.34241
-1.23042
4.24003
0.904349
4.38045
-6.87127
4.64591
5.77866
3.19676
-6.10664
0.955784
-5.91548
8.52515
-7.34562
-1.17953
4.13195
4.3932
7.09797
5.47595
-5.6903
12.7883
-1.17999
-6.16562
7.09548
-3.89871
4.83333
-8.73204
-10.3093
4.14365
-9.17072
10.9427
-1.77202
-3.62524
-8.34841
12.796
-1.2116
-11.5844
8.58056
-4.22291
-4.30553
8.52843
-6.83105
6.84531
-1.98102
-4.86429
-10.1169
-5.70151
10.21
1.61285
-9.86986
12.2332
-2.6583
4.10636
0.713014
4.12685
3.27363
-5.44454
2.17091
3.55743
-5.53845
2.08262
-7.52716
-6.72369
12.0523
-5.3286
-10.5001
-9.5174
-0.982701
2.53287
9.70029
-9.47521
7.43054
2.04467
3.304
0.587428
-3.37407
-0.409004
0.232826
4.53694
-4.76976
4.0195
4.18755
3.3068
1.23014
3.84399
2.1078
-3.8693
-0.327811
-4.16073
1.48709
-1.74175
-3.68896
5.17605
-4.06573
0.376775
-2.74467
-3.50083
6.24551
-4.5812
3.03685
3.15368
5.08482
-4.912
1.41117
-2.39424
-2.51776
2.65456
-4.39632
1.98697
3.18907
4.36933
0.567249
5.85889
6.19339
-8.469
0.561506
11.2299
-9.50146
2.46699
8.58534
-9.89752
0.380121
-8.69458
0.996239
-5.23911
-5.10524
5.16851
-6.90562
-3.56353
6.17889
0.654672
-6.28897
-0.410688
-6.04431
-2.84959
-6.48777
-3.04971
-6.14273
-8.74001
-1.6549
-7.08511
6.74685
-6.69241
-3.44703
7.41942
1.12793
-7.4165
7.32141
-7.49661
7.17142
0.0951896
3.62067
4.35718
1.88387
-2.39025
4.27412
-5.10385
7.39069
-8.69342
3.58957
4.17606
-6.73103
-4.51735
5.02937
4.02272
5.32815
8.90479
-10.3811
1.47628
-10.6817
12.0194
-1.33766
-16.451
5.76928
-7.54621
2.4923
0.371766
2.5989
0.564004
2.49976
-3.06377
-2.20978
-2.13054
-2.41772
-3.46354
5.88127
1.11854
-3.50519
2.38665
-3.5662
4.68474
-0.175853
-3.32933
5.28901
-2.78925
5.66078
-3.74206
1.91872
3.42313
5.74706
-2.32392
4.39054
-1.74869
1.90737
-4.23129
-1.55617
-2.96227
5.10238
-3.28324
3.66001
-0.332619
3.99263
-4.07626
0.862984
-0.76946
3.41809
3.66876
4.3036
-3.07346
2.92681
-4.6755
-1.30449
-4.10825
-0.919176
-0.27159
-3.72949
4.00109
6.00324
-6.27483
-5.24056
9.53984
-4.29927
7.70186
-5.38761
-2.31425
-4.25966
-4.39341
3.88447
1.93212
9.63398
0.210246
-5.59785
-4.93495
-3.98452
3.13184
2.13829
-1.81413
3.47754
2.12987
-0.552931
0.468993
0.969362
1.79403
-1.32503
0.28514
1.50889
-1.06111
1.82545
0.768151
-1.90066
0.12499
-1.3135
3.53253
1.07598
-1.99312
0.668083
0.994459
-3.53489
4.99215
-2.63913
-2.35302
5.98661
1.14357
-3.7827
4.33973
-3.94119
2.3692
-3.48704
-1.4135
-5.35469
-3.62387
-2.53543
4.92208
-3.34583
5.45794
1.25185
-5.24968
6.50154
-3.69704
1.68664
-3.07858
3.84673
-0.987698
-2.09088
2.88161
2.79901
-3.02558
0.0202128
-0.143967
2.39036
-2.53433
-0.580477
-2.59654
-4.57289
4.90291
-2.10592
4.5531
2.1682
-1.91615
6.46926
1.80966
-3.72582
-3.24838
-3.70818
-1.3834
3.15523
-0.593612
-4.25862
-5.4579
4.1576
0.222846
-6.97229
7.78653
-0.814245
-3.9824
-0.663511
4.79547
-6.0218
0.483346
-3.93917
3.84736
4.75171
4.97456
-11.3759
-0.20843
-6.21646
1.13319
-7.34965
5.52639
-3.55842
7.70207
-10.3578
6.91074
-9.22985
6.52253
-0.827114
6.24797
-4.07706
2.77701
-8.47852
-6.86567
5.46462
-2.7542
6.17764
-3.11593
9.29357
-5.77424
5.25366
4.03991
-1.00207
-4.15713
-5.24767
4.2456
0.00598367
4.13283
4.97849
-2.87069
4.65068
2.26511
-4.65935
-2.13121
-6.49506
1.83572
-3.34138
-1.9192
3.75491
3.16562
3.75305
1.23715
-3.34405
7.17652
-8.15922
-1.84792
-3.25732
5.2346
-0.988994
3.37934
-6.63666
-1.85977
4.8285
-0.784641
-4.04386
0.850936
-4.41447
1.67548
-6.08995
5.23014
-5.64083
2.22171
-9.76792
-5.1948
-5.14921
-2.25929
-5.23731
-7.58554
5.32625
-1.81626
5.50515
-8.53064
7.746
-3.48874
8.81499
-5.43665
-1.05112
5.85212
1.3193
10.1343
0.207441
-4.72479
-1.90726
3.88655
-1.97929
1.22457
-3.52205
0.3645
2.48236
3.50425
-6.727
-0.00402889
-4.72882
-3.92109
7.94381
5.61874
11.622
1.24091
9.12726
-1.18345
10.3682
4.14469
4.38068
-3.01626
4.49254
0.984827
4.57439
-0.905909
2.82463
1.69299
1.76627
0.733755
2.30718
1.36158
3.17017
0.106398
-2.02414
4.6257
-8.61021
-0.972159
-8.0389
1.12466
5.71385
-4.58919
3.00601
-0.867722
1.02672
-0.0354417
-1.37854
1.41398
-2.76514
-1.93147
-0.422587
-1.66797
2.33605
1.86456
-1.91346
-0.85168
0.35468
-3.97855
3.13236
-3.11215
-0.313133
6.1884
-2.80939
0.27506
-1.12275
-2.32148
-2.84897
2.72398
6.17625
0.293011
3.11268
5.19592
3.0994
0.228706
3.90383
-5.67584
-3.62334
-5.88427
-0.357884
4.43758
1.74547
7.95482
5.78538
4.79639
-1.84027
-9.9995
6.55852
-2.06599
5.22086
-1.177
-4.91294
5.02408
2.36661
-5.67875
0.0379262
-4.87502
-6.94101
-0.514515
8.26051
-9.61978
8.56866
5.71908
1.36603
-4.41119
-0.738018
4.24291
0.137763
10.5059
-1.12743
-6.75545
7.88288
-4.58642
3.61426
0.776273
2.70126
2.19026
1.32253
-5.43291
-10.0221
-2.00522
-1.52967
-4.35824
0.516791
-2.38135
6.23239
-2.61813
3.91813
5.26475
6.29147
-2.13967
-4.13516
6.43894
-2.52081
3.77066
)
;

boundaryField
{
    wall-4
    {
        type            calculated;
        value           uniform 0;
    }
    velocity-inlet-5
    {
        type            calculated;
        value           uniform -3.75095;
    }
    velocity-inlet-6
    {
        type            calculated;
        value           uniform -5.62643;
    }
    pressure-outlet-7
    {
        type            calculated;
        value           nonuniform List<scalar> 8(3.30481 7.77907 4.43819 9.71812 7.40442 5.14709 5.75242 8.96924);
    }
    wall-8
    {
        type            calculated;
        value           uniform 0;
    }
    frontAndBackPlanes
    {
        type            empty;
        value           nonuniform 0();
    }
}


// ************************************************************************* //
