/*--------------------------------*- C++ -*----------------------------------*\
| =========                 |                                                 |
| \\      /  F ield         | OpenFOAM: The Open Source CFD Toolbox           |
|  \\    /   O peration     | Version:  4.0                                   |
|   \\  /    A nd           | Web:      www.OpenFOAM.org                      |
|    \\/     M anipulation  |                                                 |
\*---------------------------------------------------------------------------*/
FoamFile
{
    version     2.0;
    format      ascii;
    class       volScalarField;
    location    "27";
    object      p;
}
// * * * * * * * * * * * * * * * * * * * * * * * * * * * * * * * * * * * * * //

dimensions      [0 2 -2 0 0 0 0];

internalField   nonuniform List<scalar> 
8800
(
0.612597
0.564809
0.526115
0.497114
0.47624
0.461392
0.450767
0.443249
0.438372
0.436227
0.437379
0.441458
0.44801
0.457253
0.46998
0.487678
0.51243
0.546352
0.588886
0.647585
0.443858
0.451536
0.459002
0.462307
0.460796
0.455707
0.449203
0.443098
0.438326
0.435403
0.435012
0.437393
0.441775
0.447634
0.454336
0.460567
0.464174
0.463418
0.457972
0.449269
0.42228
0.42844
0.432566
0.435506
0.437546
0.438135
0.437003
0.434858
0.432776
0.431766
0.432597
0.434851
0.437544
0.439638
0.440177
0.438926
0.436542
0.433117
0.428544
0.424779
0.416508
0.419158
0.42191
0.424312
0.425941
0.427089
0.427804
0.427878
0.427509
0.427341
0.427948
0.428978
0.42969
0.429649
0.428954
0.427795
0.425924
0.42331
0.420882
0.419378
0.411181
0.412606
0.414392
0.416431
0.418216
0.419547
0.420509
0.421255
0.421787
0.422223
0.422701
0.423024
0.422974
0.422558
0.421752
0.420411
0.418637
0.416727
0.415387
0.414557
0.406176
0.407097
0.408353
0.409937
0.411583
0.413112
0.414381
0.415399
0.416271
0.417012
0.417497
0.417616
0.417385
0.416774
0.415742
0.414412
0.412976
0.411631
0.410768
0.410222
0.401376
0.402044
0.403029
0.404365
0.405803
0.407278
0.408717
0.410004
0.411107
0.412037
0.412611
0.412717
0.412381
0.411641
0.410633
0.409509
0.408346
0.40731
0.406679
0.406283
0.396741
0.397253
0.398072
0.39926
0.400589
0.401997
0.403456
0.404905
0.406238
0.407366
0.408075
0.408215
0.407859
0.407172
0.406305
0.405344
0.404364
0.403529
0.403043
0.40274
0.39223
0.39263
0.393328
0.394409
0.395681
0.397048
0.398498
0.400007
0.401504
0.402861
0.403743
0.403994
0.403771
0.403247
0.40254
0.401726
0.400895
0.400217
0.399839
0.399603
0.38779
0.388104
0.388721
0.389751
0.391001
0.392364
0.393838
0.395413
0.397054
0.39864
0.399759
0.400226
0.400209
0.399868
0.399318
0.398643
0.397925
0.39736
0.397063
0.396879
0.383399
0.383644
0.3842
0.385199
0.386444
0.387843
0.389402
0.391096
0.392888
0.394706
0.396153
0.396943
0.397176
0.397013
0.396607
0.396067
0.395465
0.395003
0.394774
0.39463
0.379012
0.379199
0.379713
0.380712
0.381986
0.383439
0.385083
0.386955
0.38904
0.391222
0.393042
0.394129
0.394609
0.394676
0.394464
0.394057
0.393563
0.393185
0.393016
0.392907
0.374611
0.374738
0.375209
0.376195
0.377492
0.378991
0.380714
0.382708
0.385009
0.387586
0.389898
0.39148
0.392391
0.392806
0.392842
0.392644
0.392291
0.392018
0.391913
0.391837
0.370246
0.370323
0.370754
0.371722
0.373056
0.374648
0.376543
0.37883
0.381542
0.384649
0.387556
0.389652
0.390954
0.39168
0.392021
0.392027
0.391862
0.391721
0.391677
0.391625
0.365766
0.365819
0.366192
0.367082
0.368376
0.370006
0.37204
0.374584
0.377738
0.381499
0.385157
0.387922
0.389831
0.391053
0.391761
0.392147
0.392293
0.39234
0.392356
0.392312
0.360726
0.360772
0.361126
0.361979
0.363307
0.365065
0.367361
0.37033
0.374085
0.378671
0.383247
0.386826
0.389348
0.391094
0.392308
0.393066
0.393499
0.393722
0.393786
0.393739
0.354831
0.354872
0.355235
0.356125
0.357578
0.359573
0.362235
0.365754
0.370308
0.375947
0.381647
0.386189
0.389503
0.391868
0.393534
0.39467
0.395405
0.395787
0.395887
0.395832
0.347758
0.3478
0.348232
0.349226
0.350897
0.353241
0.356419
0.360678
0.366237
0.37319
0.380291
0.386003
0.390219
0.393277
0.395482
0.397035
0.398064
0.398587
0.398714
0.398649
0.339163
0.33921
0.339734
0.340955
0.342978
0.345843
0.34976
0.355045
0.36195
0.370571
0.379366
0.386459
0.391704
0.395535
0.398322
0.400309
0.401616
0.402248
0.402407
0.402332
0.328674
0.328726
0.32939
0.330924
0.333458
0.337047
0.341974
0.3486
0.357224
0.367933
0.378798
0.387506
0.393976
0.398733
0.402189
0.404671
0.406268
0.407026
0.407222
0.407138
0.315806
0.315858
0.316694
0.318676
0.321951
0.326566
0.332866
0.341275
0.352105
0.365395
0.378746
0.389417
0.397323
0.403087
0.407391
0.41039
0.412304
0.413204
0.413443
0.413344
0.29993
0.299981
0.301054
0.303651
0.30796
0.313991
0.322156
0.332907
0.346529
0.362983
0.379303
0.392259
0.401845
0.408885
0.414052
0.417676
0.419957
0.42105
0.42134
0.421222
0.280071
0.280142
0.28158
0.28504
0.29079
0.298813
0.309512
0.323353
0.34052
0.360816
0.380618
0.396217
0.407753
0.416236
0.42243
0.426779
0.429503
0.430818
0.431155
0.431009
0.254512
0.254634
0.256692
0.261562
0.269476
0.280366
0.29463
0.312571
0.334184
0.359068
0.382877
0.401451
0.415167
0.425277
0.432667
0.437868
0.441146
0.44271
0.443084
0.442903
0.220271
0.220546
0.223891
0.231355
0.242873
0.258126
0.277393
0.300698
0.327773
0.358002
0.386293
0.408123
0.424213
0.436109
0.444858
0.451071
0.455
0.456829
0.457224
0.456996
0.171569
0.172769
0.179526
0.192341
0.210099
0.232011
0.25813
0.288197
0.321726
0.357944
0.391063
0.416322
0.434897
0.448694
0.45895
0.46635
0.47104
0.473155
0.473546
0.473255
0.0992103
0.107043
0.122655
0.145352
0.172513
0.203333
0.237836
0.275704
0.316432
0.35925
0.397684
0.426784
0.448226
0.464303
0.476484
0.485492
0.491342
0.494072
0.494639
0.494438
0.0215558
0.0395217
0.0647533
0.0977681
0.134597
0.174515
0.217524
0.263438
0.311838
0.362086
0.406967
0.441044
0.466355
0.485573
0.50044
0.511838
0.519268
0.522843
0.523906
0.523898
-0.0421278
-0.0212659
0.0117943
0.0533021
0.0986989
0.147097
0.198278
0.252011
0.307871
0.365218
0.416117
0.454692
0.483415
0.505344
0.522329
0.535219
0.544122
0.548572
0.549368
0.549467
-0.0940424
-0.0713378
-0.0331376
0.0144017
0.0665192
0.121982
0.180324
0.241149
0.303916
0.367886
0.424272
0.466784
0.49832
0.522297
0.540858
0.554969
0.564947
0.569633
0.570589
0.570788
-0.137086
-0.113355
-0.0715981
-0.0192931
0.0381814
0.0994281
0.163856
0.230918
0.29989
0.369864
0.431177
0.477075
0.510893
0.536484
0.556202
0.571188
0.581644
0.586805
0.588112
0.588339
-0.173888
-0.149548
-0.105104
-0.049071
0.0128771
0.0790256
0.148703
0.221244
0.295779
0.371179
0.436905
0.485752
0.521452
0.548255
0.568754
0.584294
0.594914
0.600437
0.601965
0.6022
-0.206369
-0.181637
-0.135108
-0.0759611
-0.0102632
0.0601273
0.134437
0.211883
0.291464
0.371853
0.441636
0.493133
0.530436
0.558159
0.579134
0.594901
0.605644
0.611293
0.612918
0.6131
-0.235955
-0.21087
-0.162635
-0.100814
-0.0318854
0.042215
0.120645
0.202539
0.28678
0.371857
0.445501
0.499502
0.538283
0.566794
0.588132
0.603997
0.614774
0.620464
0.622198
0.622358
-0.263512
-0.238106
-0.188369
-0.124286
-0.0525049
0.0248834
0.107012
0.19297
0.281562
0.371116
0.448546
0.505058
0.545307
0.574627
0.596357
0.612365
0.623154
0.628805
0.630622
0.630792
-0.289754
-0.263971
-0.212858
-0.146787
-0.0724735
0.00784483
0.0933121
0.183
0.275671
0.369551
0.450769
0.509881
0.55174
0.581989
0.604191
0.620387
0.631215
0.636765
0.638561
0.638755
-0.314969
-0.288777
-0.236566
-0.168609
-0.0920242
-0.00908241
0.0794008
0.172512
0.269014
0.367097
0.452173
0.514089
0.557767
0.5891
0.611905
0.628388
0.639294
0.644786
0.646456
0.646588
-0.339502
-0.312773
-0.259578
-0.189926
-0.111328
-0.0260292
0.0651891
0.161439
0.26153
0.363707
0.452762
0.517713
0.563429
0.59606
0.619632
0.636514
0.647535
0.652968
0.654479
0.654525
-0.363419
-0.336294
-0.282021
-0.210858
-0.130456
-0.0430427
0.0506388
0.149756
0.253198
0.359348
0.452447
0.520668
0.568735
0.602903
0.627408
0.644783
0.655928
0.661264
0.662641
0.662571
-0.386806
-0.359162
-0.303997
-0.231453
-0.149427
-0.060128
0.0357541
0.137463
0.244003
0.353937
0.451108
0.522878
0.573633
0.609623
0.635237
0.653178
0.664427
0.669598
0.670797
0.670631
-0.409751
-0.381545
-0.325489
-0.251706
-0.168241
-0.0772642
0.0205738
0.124598
0.233945
0.347434
0.44867
0.524221
0.578029
0.616189
0.643123
0.66168
0.672979
0.677877
0.67886
0.678619
-0.432251
-0.403428
-0.346501
-0.271592
-0.186844
-0.0943993
0.00515726
0.111213
0.223068
0.33984
0.445043
0.524531
0.581771
0.622547
0.651099
0.670298
0.681483
0.685981
0.686709
0.686403
-0.454131
-0.424737
-0.366989
-0.291071
-0.205186
-0.111457
-0.0104237
0.0974
0.211454
0.331187
0.44014
0.523646
0.584652
0.62859
0.659242
0.679171
0.689944
0.693761
0.694168
0.693811
-0.47536
-0.44542
-0.386914
-0.310082
-0.223203
-0.128369
-0.0260664
0.0832516
0.199192
0.321509
0.433922
0.521393
0.586422
0.634107
0.667626
0.688669
0.698638
0.701157
0.701056
0.700694
-0.495994
-0.46544
-0.406238
-0.328582
-0.240827
-0.145048
-0.0416776
0.068878
0.186385
0.310893
0.426368
0.517635
0.586769
0.638708
0.676145
0.699385
0.708543
0.708677
0.707301
0.707068
-0.515866
-0.484774
-0.424901
-0.346504
-0.257993
-0.161409
-0.057161
0.0543934
0.173159
0.29946
0.417509
0.512256
0.585387
0.641778
0.684217
0.711629
0.721624
0.718968
0.714397
0.713186
-0.535056
-0.503411
-0.442924
-0.363872
-0.274736
-0.1775
-0.0725751
0.0397371
0.159447
0.287136
0.407221
0.505005
0.581958
0.642513
0.690559
0.724514
0.739257
0.738053
0.727522
0.709431
-0.553499
-0.521351
-0.460429
-0.380878
-0.291347
-0.193654
-0.0883373
0.0244198
0.144695
0.273255
0.394812
0.495009
0.575774
0.639685
0.692352
0.73367
0.753987
0.746461
0.732134
0.712037
-0.571028
-0.538735
-0.477236
-0.397274
-0.30753
-0.209525
-0.104219
0.00877517
0.129231
0.258125
0.380465
0.48199
0.566358
0.632499
0.684397
0.726548
0.748561
0.732963
0.661385
0.626596
-0.587006
-0.556695
-0.493005
-0.412476
-0.322578
-0.224631
-0.119928
-0.00697377
0.113276
0.241892
0.364188
0.465823
0.552742
0.621294
0.663223
0.695407
0.701451
0.652694
0.579523
0.533587
-0.642492
-0.572306
-0.507434
-0.427729
-0.337912
-0.240357
-0.135528
-0.0230907
0.0964908
0.224157
0.345488
0.446167
0.531924
0.607587
0.610543
0.626804
0.594445
0.529981
0.451314
0.406858
-0.603688
-0.587907
-0.528367
-0.449399
-0.360136
-0.262934
-0.159169
-0.0476787
0.0704706
0.195999
0.314267
0.411863
0.489018
0.563347
0.563013
0.456132
0.349926
0.276908
0.201531
0.238388
-0.634309
-0.605379
-0.545155
-0.466517
-0.377432
-0.280594
-0.17672
-0.0660321
0.0508094
0.174166
0.289118
0.382401
0.452025
0.491436
0.446154
0.298676
0.165733
0.0715045
-0.0319408
0.0252764
-0.657872
-0.625915
-0.564625
-0.485653
-0.396587
-0.299921
-0.196265
-0.0865677
0.0286612
0.149328
0.260261
0.347857
0.407737
0.416637
0.310431
0.127566
-0.0352812
-0.161513
-0.301013
-0.260256
-0.680792
-0.647314
-0.584923
-0.505152
-0.415943
-0.319439
-0.216383
-0.10779
0.00565472
0.123329
0.229513
0.310782
0.356321
0.33081
0.168701
-0.0422922
-0.249335
-0.436808
-0.642455
-0.645264
-0.702905
-0.669162
-0.60594
-0.525476
-0.436093
-0.339806
-0.237453
-0.130062
-0.018623
0.0957408
0.196643
0.270888
0.299305
0.238906
0.0332455
-0.19528
-0.434884
-0.650892
-0.921331
-1.25709
-0.725225
-0.691598
-0.627926
-0.547006
-0.45744
-0.361321
-0.259593
-0.153419
-0.0440607
0.0668156
0.162278
0.22868
0.239774
0.128142
-0.0847335
-0.313708
-0.54279
-0.738569
-0.813926
-0.922756
-0.748559
-0.715039
-0.651181
-0.570062
-0.480437
-0.384569
-0.283553
-0.178752
-0.0717666
0.0351673
0.124776
0.181767
0.168342
0.015605
-0.188875
-0.398427
-0.5806
-0.687145
-0.711366
-0.731605
-0.773238
-0.739805
-0.675845
-0.594697
-0.505178
-0.409714
-0.309629
-0.206484
-0.102269
0.000117774
0.0834109
0.128939
0.0924963
-0.08779
-0.283071
-0.466863
-0.608178
-0.656298
-0.671481
-0.673906
-0.79946
-0.765984
-0.701961
-0.620866
-0.531576
-0.436717
-0.337786
-0.236605
-0.135577
-0.0383207
0.0380384
0.0702795
0.0156777
-0.184952
-0.370563
-0.535192
-0.634195
-0.647132
-0.649943
-0.650168
-0.827204
-0.793642
-0.729525
-0.648523
-0.559595
-0.465507
-0.36796
-0.269054
-0.171619
-0.0800058
-0.0114039
0.00858813
-0.0768802
-0.274651
-0.45224
-0.590317
-0.630852
-0.638387
-0.639354
-0.638636
-0.856158
-0.822405
-0.758409
-0.677532
-0.58909
-0.495956
-0.400036
-0.303704
-0.210278
-0.12474
-0.0644384
-0.0571446
-0.175823
-0.359911
-0.521785
-0.624077
-0.628543
-0.630696
-0.631935
-0.631611
-0.885745
-0.851972
-0.78827
-0.707632
-0.619811
-0.527822
-0.433757
-0.340304
-0.251245
-0.172262
-0.119898
-0.132915
-0.265029
-0.437061
-0.584557
-0.619635
-0.633674
-0.629743
-0.626831
-0.625928
-0.915541
-0.881985
-0.818519
-0.738386
-0.651345
-0.560691
-0.468719
-0.378428
-0.294023
-0.221944
-0.177266
-0.206721
-0.35323
-0.50245
-0.63045
-0.670015
-0.645583
-0.628798
-0.621713
-0.619023
-0.94464
-0.911568
-0.848563
-0.769131
-0.683089
-0.593978
-0.504319
-0.417423
-0.337918
-0.272761
-0.237284
-0.280376
-0.444455
-0.553275
-0.642718
-0.656072
-0.644488
-0.631159
-0.623745
-0.621024
-0.971767
-0.939389
-0.877554
-0.799031
-0.714209
-0.626869
-0.539724
-0.456354
-0.381951
-0.323783
-0.296955
-0.351454
-0.535682
-0.634881
-0.575517
-0.628728
-0.679296
-0.701416
-0.700754
-0.696879
-0.995549
-0.96431
-0.904214
-0.826963
-0.743685
-0.658317
-0.573837
-0.494024
-0.424683
-0.374049
-0.352493
-0.428459
-0.630539
-0.820596
-0.854306
-0.857776
-0.87495
-0.893496
-0.886821
-0.876936
-1.01426
-0.984847
-0.926902
-0.851607
-0.770251
-0.687066
-0.605267
-0.528976
-0.464259
-0.421109
-0.404547
-0.507892
-0.734998
-1.03187
-1.40291
-1.13793
-1.04636
-1.03994
-1.03992
-1.04041
-1.02619
-0.999315
-0.944274
-0.871412
-0.792373
-0.711615
-0.632455
-0.559368
-0.498572
-0.461552
-0.457255
-0.578052
-0.76968
-0.75505
-0.513599
-0.795438
-1.13389
-1.17643
-1.15664
-1.15131
-1.02932
-1.00605
-0.954743
-0.884918
-0.80854
-0.73038
-0.653695
-0.582871
-0.525253
-0.492648
-0.503213
-0.635398
-0.789557
-0.691962
-0.587373
-0.918581
-1.17327
-1.17849
-1.12975
-1.15775
-1.02254
-1.00332
-0.956753
-0.89089
-0.817512
-0.741907
-0.667173
-0.597468
-0.540597
-0.51043
-0.53126
-0.716877
-1.18823
-1.95441
-2.66899
-3.11975
-2.9156
-2.43116
-1.99379
-1.86412
-1.00427
-0.988964
-0.949191
-0.888509
-0.81852
-0.745244
-0.671561
-0.601453
-0.54134
-0.50501
-0.52218
-0.740329
-1.37423
-2.27499
-2.98118
-3.32429
-3.23555
-2.93316
-2.55875
-2.34344
-0.975693
-0.964945
-0.932314
-0.87801
-0.811627
-0.740323
-0.666567
-0.593509
-0.526176
-0.471838
-0.462787
-0.537629
-0.806345
-1.06283
-1.27163
-1.22325
-0.993327
-0.728059
-0.507132
-0.39165
-0.940228
-0.933679
-0.908905
-0.861264
-0.798428
-0.728348
-0.653443
-0.575124
-0.495931
-0.418136
-0.339491
-0.221824
-0.0483635
0.31915
0.778089
1.23696
1.6021
1.8413
1.96164
2.00009
-0.902512
-0.898862
-0.882711
-0.841579
-0.781798
-0.712272
-0.635155
-0.551616
-0.459095
-0.356376
-0.229483
-0.090309
0.241532
0.829241
1.49138
2.0861
2.52587
2.77914
2.89008
2.92191
-0.867382
-0.865199
-0.855915
-0.822749
-0.766155
-0.695727
-0.616548
-0.528511
-0.431804
-0.318219
-0.192485
-0.0503936
0.148317
0.623883
1.18859
1.6811
2.03502
2.23805
2.32914
2.35625
-0.833365
-0.832183
-0.8291
-0.805796
-0.752521
-0.680702
-0.600188
-0.512644
-0.417707
-0.308726
-0.195762
-0.0773003
0.0503635
0.344865
0.761227
1.11062
1.3713
1.52871
1.60594
1.62941
-0.81189
-0.812037
-0.811972
-0.792274
-0.737381
-0.663474
-0.58312
-0.499171
-0.409804
-0.311663
-0.214927
-0.125198
-0.0409575
0.125574
0.402541
0.64989
0.835039
0.945086
0.994114
1.00651
-0.782573
-0.785695
-0.787312
-0.767139
-0.709716
-0.635864
-0.559266
-0.482441
-0.402726
-0.318483
-0.240424
-0.178219
-0.118323
-0.0189504
0.162258
0.325681
0.444671
0.513566
0.544496
0.551791
-0.703577
-0.707593
-0.708938
-0.691611
-0.645837
-0.585849
-0.522933
-0.459162
-0.392846
-0.323566
-0.263584
-0.223918
-0.190091
-0.124374
-0.00140716
0.104446
0.179884
0.221207
0.238604
0.240693
-0.581304
-0.583227
-0.583693
-0.574744
-0.550827
-0.516567
-0.47587
-0.430164
-0.379596
-0.325146
-0.281168
-0.260539
-0.250429
-0.206919
-0.118456
-0.0428856
0.00615012
0.0321205
0.0423812
0.042475
-0.469232
-0.469631
-0.470208
-0.469049
-0.462972
-0.45009
-0.429385
-0.400461
-0.364061
-0.321884
-0.287679
-0.274828
-0.279004
-0.244995
-0.183015
-0.131585
-0.0986342
-0.0817424
-0.0753366
-0.0756555
-0.398195
-0.39825
-0.39941
-0.402016
-0.403849
-0.40155
-0.392421
-0.374866
-0.348631
-0.314692
-0.283694
-0.266888
-0.262516
-0.231301
-0.187579
-0.15887
-0.142291
-0.134271
-0.131499
-0.132143
-0.363695
-0.363851
-0.365108
-0.368104
-0.371202
-0.371895
-0.367641
-0.356218
-0.335622
-0.305383
-0.272281
-0.244004
-0.220176
-0.196007
-0.17067
-0.156945
-0.148576
-0.143394
-0.141366
-0.142464
-0.351471
-0.351577
-0.352417
-0.354647
-0.35699
-0.357597
-0.354486
-0.344995
-0.326722
-0.298363
-0.262468
-0.224978
-0.183614
-0.157777
-0.153945
-0.149192
-0.142735
-0.136492
-0.133421
-0.134816
-0.353529
-0.353346
-0.353446
-0.354472
-0.355556
-0.35511
-0.351376
-0.341835
-0.323785
-0.295102
-0.259122
-0.222518
-0.181096
-0.159612
-0.156323
-0.147414
-0.136834
-0.128817
-0.125124
-0.126923
-0.368417
-0.367909
-0.367311
-0.367134
-0.366671
-0.364534
-0.359077
-0.348108
-0.328011
-0.29796
-0.264146
-0.237164
-0.213602
-0.1992
-0.18875
-0.169436
-0.148052
-0.132974
-0.127308
-0.13052
-0.396883
-0.396055
-0.394716
-0.393599
-0.391677
-0.387637
-0.380048
-0.366747
-0.343548
-0.30967
-0.275418
-0.257475
-0.254853
-0.260437
-0.236806
-0.206624
-0.185843
-0.175219
-0.171671
-0.171913
-0.438856
-0.437877
-0.436426
-0.434594
-0.431682
-0.426559
-0.417865
-0.403007
-0.376862
-0.337112
-0.294043
-0.269125
-0.282873
-0.290165
-0.259382
-0.22434
-0.200259
-0.191612
-0.189218
-0.189608
-0.495531
-0.494417
-0.492895
-0.490983
-0.488313
-0.484318
-0.477907
-0.466192
-0.443479
-0.400898
-0.337651
-0.282273
-0.277537
-0.28212
-0.251313
-0.216548
-0.190843
-0.176289
-0.17647
-0.177094
-0.56602
-0.565055
-0.564079
-0.563267
-0.563094
-0.564257
-0.567178
-0.570527
-0.569351
-0.541106
-0.450297
-0.345989
-0.308108
-0.29772
-0.255727
-0.203007
-0.164165
-0.149524
-0.149925
-0.149472
-0.646135
-0.645807
-0.646303
-0.648346
-0.653979
-0.666286
-0.689498
-0.728311
-0.781317
-0.798264
-0.671845
-0.497516
-0.410256
-0.365311
-0.283876
-0.199268
-0.129191
-0.107226
-0.114741
-0.116396
-0.725253
-0.72611
-0.729048
-0.735834
-0.750806
-0.780653
-0.836471
-0.935364
-1.083
-1.18006
-1.02119
-0.746253
-0.586971
-0.491302
-0.358938
-0.232296
-0.154426
-0.133967
-0.139382
-0.143612
-0.785798
-0.788164
-0.794043
-0.806626
-0.832777
-0.883455
-0.978847
-1.15391
-1.42499
-1.63086
-1.42969
-1.04926
-0.820215
-0.663951
-0.492857
-0.353516
-0.286974
-0.283537
-0.286438
-0.290409
-0.80703
-0.810816
-0.819165
-0.836652
-0.872315
-0.940658
-1.06748
-1.30627
-1.67949
-1.97138
-1.75904
-1.31612
-1.03649
-0.851615
-0.652638
-0.545123
-0.509803
-0.503516
-0.502598
-0.504802
-0.77344
-0.777583
-0.786667
-0.805948
-0.8452
-0.920014
-1.05946
-1.32144
-1.72741
-2.05735
-1.87345
-1.44837
-1.19979
-1.01571
-0.85803
-0.754044
-0.734927
-0.732171
-0.731596
-0.73374
-0.682249
-0.685935
-0.693986
-0.711151
-0.746476
-0.814316
-0.943284
-1.1829
-1.53817
-1.80714
-1.67579
-1.38214
-1.25242
-1.17068
-1.11718
-1.02745
-0.987168
-0.969802
-0.962157
-0.961662
-0.547877
-0.55032
-0.555836
-0.568321
-0.594845
-0.646504
-0.745244
-0.929522
-1.19643
-1.3639
-1.2823
-1.17436
-1.14738
-1.3163
-1.42411
-1.30036
-1.20266
-1.15255
-1.12825
-1.12032
-0.393892
-0.39505
-0.397783
-0.404868
-0.421058
-0.453591
-0.516765
-0.63776
-0.826351
-0.95013
-0.916668
-0.878922
-0.947029
-1.16859
-1.37192
-1.26589
-1.1628
-1.10646
-1.07826
-1.06824
-0.245246
-0.245259
-0.245866
-0.248607
-0.2561
-0.272092
-0.304164
-0.368417
-0.484838
-0.588582
-0.595636
-0.572235
-0.575502
-0.719072
-0.881353
-0.863111
-0.819976
-0.795082
-0.782454
-0.776525
-0.118606
-0.118073
-0.117902
-0.118532
-0.120702
-0.125733
-0.136401
-0.158528
-0.204213
-0.271012
-0.256066
-0.209068
-0.218329
-0.307487
-0.394794
-0.409039
-0.404965
-0.4025
-0.40217
-0.401453
-0.0193701
-0.0191704
-0.0181169
-0.0169245
-0.0162525
-0.0162607
-0.0166451
-0.0174172
-0.018695
-0.0170099
-0.0438966
-0.0618838
-0.0511982
-0.0428234
-0.0587639
-0.060277
-0.0627693
-0.0656041
-0.0665443
-0.0645608
-0.391362
-0.201037
0.0203625
0.207929
0.35923
0.480205
0.581461
0.666923
0.705108
0.682367
-0.0451653
0.0899977
0.233677
0.357989
0.46332
0.551111
0.622278
0.672807
0.698589
0.710304
0.198885
0.290678
0.387979
0.47434
0.548848
0.61127
0.660848
0.697035
0.722859
0.740438
0.374711
0.438664
0.506799
0.569197
0.623387
0.66933
0.706926
0.736738
0.760799
0.778843
0.50964
0.556282
0.605789
0.65298
0.694579
0.730768
0.761594
0.787073
0.808249
0.825937
0.619784
0.654807
0.695217
0.732952
0.767437
0.798204
0.824972
0.847344
0.865722
0.883
0.715949
0.745915
0.781486
0.814952
0.846063
0.874208
0.898726
0.919014
0.934886
0.951947
0.806822
0.836824
0.871812
0.904682
0.935012
0.962223
0.98559
1.00445
1.01808
1.03513
0.903577
0.937184
0.974453
1.00857
1.03909
1.06567
1.08795
1.10547
1.11752
1.13495
1.01955
1.05743
1.0965
1.13113
1.16077
1.18576
1.20634
1.22238
1.23398
1.25207
1.16513
1.20388
1.24004
1.27091
1.29676
1.319
1.33817
1.3538
1.36631
1.38432
1.34021
1.37215
1.39845
1.42096
1.44103
1.45984
1.47762
1.49415
1.50955
1.52764
1.52901
1.54633
1.56151
1.57782
1.59377
1.60835
1.6216
1.63556
1.65314
1.67331
1.71106
1.72049
1.73207
1.74291
1.75222
1.76185
1.77269
1.78409
1.79547
1.81084
1.9182
1.9219
1.90697
1.89218
1.88595
1.89166
1.91015
1.94048
1.97267
1.99934
2.22454
2.08968
2.01307
1.97077
1.95336
1.95733
1.98475
2.04117
2.1438
2.36817
0.503195
0.501064
0.496578
0.487947
0.475716
0.463576
0.453329
0.445402
0.439732
0.436397
0.435926
0.438533
0.443526
0.45066
0.459981
0.47147
0.484084
0.495093
0.501193
0.504236
0.427659
0.433505
0.439842
0.44433
0.446792
0.446456
0.443701
0.43986
0.436296
0.433947
0.433676
0.435737
0.43928
0.443472
0.447205
0.449031
0.448052
0.444537
0.439347
0.432715
0.419267
0.421562
0.424965
0.427958
0.430028
0.431514
0.432249
0.431897
0.430812
0.429833
0.429871
0.431148
0.432831
0.434026
0.434116
0.433155
0.431551
0.429171
0.425878
0.422945
0.413795
0.41488
0.416716
0.419099
0.421123
0.422546
0.423548
0.424259
0.424595
0.424712
0.425048
0.425682
0.426121
0.426055
0.425532
0.424592
0.423047
0.4209
0.418769
0.417372
0.408651
0.409313
0.410427
0.412142
0.413931
0.415564
0.416847
0.417823
0.418631
0.419301
0.419851
0.420194
0.420197
0.419866
0.419157
0.417981
0.41645
0.414822
0.413447
0.412652
0.40375
0.404207
0.405003
0.406328
0.40784
0.409374
0.410841
0.412111
0.413174
0.414096
0.4148
0.415114
0.415018
0.414525
0.413634
0.412477
0.411207
0.409954
0.408962
0.408431
0.399043
0.399382
0.400007
0.401114
0.402452
0.403861
0.405317
0.406749
0.408054
0.409177
0.410033
0.410422
0.410295
0.40973
0.408872
0.407873
0.406828
0.405802
0.405036
0.404644
0.394475
0.394732
0.395242
0.396208
0.397441
0.398787
0.400206
0.401682
0.403159
0.404518
0.405567
0.406048
0.405955
0.405471
0.404758
0.403916
0.403018
0.402169
0.401562
0.401265
0.390006
0.390203
0.390628
0.3915
0.39268
0.393996
0.395403
0.3969
0.398457
0.399992
0.401266
0.40194
0.402036
0.401742
0.401197
0.400503
0.399735
0.39902
0.398535
0.398305
0.385592
0.385739
0.386101
0.386913
0.388068
0.38938
0.390821
0.392387
0.394065
0.395797
0.397333
0.398278
0.398615
0.398525
0.398144
0.39759
0.396953
0.39635
0.395963
0.395788
0.381209
0.381315
0.38163
0.382408
0.383568
0.384915
0.38643
0.388133
0.389997
0.391964
0.393825
0.395135
0.395758
0.395873
0.395659
0.395243
0.394722
0.394217
0.393911
0.39378
0.376806
0.376874
0.377147
0.377901
0.379071
0.380455
0.382013
0.383804
0.385872
0.388188
0.390473
0.39217
0.393131
0.393577
0.393643
0.393432
0.393056
0.392657
0.392431
0.392344
0.372427
0.372458
0.372692
0.373414
0.374591
0.376027
0.37769
0.379655
0.381959
0.384608
0.3874
0.389677
0.391134
0.391938
0.392288
0.392302
0.392105
0.39185
0.391716
0.39167
0.368047
0.368049
0.368249
0.368919
0.370068
0.371537
0.373302
0.37548
0.378153
0.381357
0.384809
0.387688
0.389656
0.390907
0.391586
0.391931
0.392017
0.391969
0.391939
0.39192
0.36334
0.363341
0.363512
0.364119
0.365211
0.366694
0.368581
0.371001
0.374064
0.377849
0.382092
0.385822
0.388488
0.390303
0.391489
0.392234
0.392688
0.392904
0.392996
0.392995
0.357907
0.35789
0.358073
0.358678
0.359813
0.361418
0.36356
0.366397
0.370077
0.3747
0.379951
0.384625
0.388048
0.390484
0.392198
0.393378
0.394132
0.394578
0.394763
0.394769
0.351459
0.351434
0.351643
0.352297
0.353543
0.355362
0.357853
0.361202
0.36562
0.37126
0.377767
0.383648
0.388042
0.391229
0.39351
0.395137
0.39626
0.396938
0.397206
0.397219
0.343672
0.343639
0.343898
0.34469
0.346141
0.348301
0.35131
0.35541
0.360856
0.367831
0.37589
0.383206
0.388698
0.392725
0.395635
0.397749
0.399232
0.400116
0.400447
0.400465
0.334167
0.33412
0.334449
0.335434
0.337232
0.339904
0.343649
0.34876
0.355544
0.364217
0.374203
0.38324
0.390042
0.395011
0.398657
0.401313
0.403186
0.404262
0.404661
0.404688
0.322537
0.322472
0.322893
0.324159
0.326445
0.329838
0.334598
0.341071
0.34961
0.360423
0.372773
0.383887
0.392209
0.398336
0.402824
0.406091
0.408368
0.409659
0.41014
0.410179
0.308215
0.308125
0.308673
0.310317
0.313301
0.317714
0.323873
0.33216
0.342966
0.356472
0.371691
0.385262
0.395404
0.40286
0.408327
0.412324
0.415038
0.416563
0.41715
0.417201
0.290451
0.290341
0.291091
0.293252
0.297176
0.303011
0.311087
0.321807
0.335546
0.35239
0.371045
0.387499
0.399757
0.408784
0.415404
0.420184
0.423435
0.425273
0.42598
0.426035
0.267898
0.267777
0.268882
0.271862
0.277124
0.285026
0.295785
0.309806
0.327332
0.348291
0.371011
0.390782
0.405445
0.416252
0.42418
0.429901
0.433783
0.435993
0.436826
0.436879
0.238306
0.238223
0.239997
0.244379
0.251851
0.26288
0.277534
0.296045
0.318431
0.344379
0.371796
0.395285
0.412607
0.425388
0.43479
0.441601
0.446254
0.448892
0.449851
0.449891
0.197561
0.197664
0.200924
0.208224
0.219749
0.235862
0.256223
0.280755
0.309188
0.340986
0.373662
0.401183
0.42135
0.436247
0.447268
0.455331
0.460893
0.463997
0.465058
0.465073
0.137915
0.139241
0.147171
0.160858
0.179937
0.204106
0.232437
0.264604
0.300186
0.338532
0.37684
0.408555
0.431646
0.448722
0.461456
0.470898
0.477491
0.481097
0.482228
0.482202
0.0664801
0.0686278
0.0836752
0.1074
0.137012
0.170653
0.20775
0.248123
0.29145
0.337139
0.382149
0.419262
0.446414
0.466693
0.482004
0.493494
0.501672
0.506145
0.507371
0.507422
-0.00699741
-4.97698e-05
0.0221783
0.0558327
0.0951864
0.138031
0.183829
0.232424
0.283543
0.336673
0.388539
0.431194
0.462488
0.486073
0.504202
0.518127
0.528024
0.532696
0.534456
0.534859
-0.0658695
-0.0570324
-0.030119
0.0102756
0.0571852
0.107807
0.161374
0.21759
0.276068
0.33624
0.394522
0.442202
0.477103
0.503392
0.52358
0.539038
0.550045
0.555918
0.558571
0.559121
-0.113762
-0.10437
-0.0739829
-0.028696
0.0239658
0.0807987
0.140867
0.203729
0.26884
0.335472
0.399601
0.451735
0.489675
0.518101
0.539869
0.556598
0.568638
0.57539
0.578409
0.579025
-0.15388
-0.144284
-0.111632
-0.0625399
-0.00522552
0.0567165
0.122265
0.190888
0.261867
0.33432
0.403725
0.45977
0.500257
0.530392
0.553334
0.570899
0.583631
0.591048
0.594277
0.594924
-0.18876
-0.179091
-0.144734
-0.0926082
-0.0314516
0.0348303
0.105131
0.178813
0.255046
0.332765
0.406978
0.466534
0.509207
0.540693
0.564449
0.582491
0.595543
0.603321
0.606665
0.60735
-0.219957
-0.210269
-0.174617
-0.119903
-0.0555437
0.014453
0.0889347
0.167144
0.248152
0.330733
0.409431
0.472267
0.516918
0.549541
0.573896
0.592191
0.605359
0.613281
0.616592
0.617341
-0.248669
-0.23894
-0.202209
-0.145306
-0.0781781
-0.00491042
0.0732704
0.155563
0.24096
0.328109
0.411102
0.477117
0.523708
0.557409
0.582311
0.600852
0.614074
0.622106
0.625422
0.62605
-0.275671
-0.265885
-0.228194
-0.169412
-0.0998191
-0.0236605
0.0578273
0.143831
0.233292
0.324769
0.411962
0.481175
0.529744
0.56461
0.59013
0.608963
0.6223
0.630307
0.633644
0.63414
-0.301451
-0.291596
-0.253013
-0.192614
-0.120789
-0.0420482
0.0424087
0.131787
0.225014
0.320615
0.411956
0.484476
0.535203
0.571395
0.59766
0.616867
0.630355
0.638348
0.641642
0.642125
-0.326431
-0.316409
-0.277002
-0.215105
-0.141306
-0.0602585
0.0268775
0.119327
0.216049
0.315578
0.411058
0.487079
0.540202
0.577908
0.605083
0.624794
0.638515
0.646526
0.649701
0.650175
-0.350773
-0.340517
-0.300382
-0.23705
-0.161497
-0.0783937
0.0111583
0.106403
0.206349
0.309627
0.409241
0.488935
0.544702
0.584187
0.612467
0.632816
0.646837
0.654863
0.657903
0.658322
-0.374529
-0.364059
-0.323205
-0.258567
-0.181429
-0.0964746
-0.00476547
0.0929983
0.195907
0.30272
0.406402
0.489938
0.548668
0.590227
0.61983
0.640943
0.655294
0.663299
0.666174
0.666497
-0.397829
-0.387056
-0.345486
-0.279673
-0.201113
-0.114511
-0.0208816
0.0791377
0.184734
0.294825
0.402452
0.489991
0.552009
0.595991
0.627168
0.649165
0.663853
0.671796
0.674443
0.674636
-0.420591
-0.40954
-0.367257
-0.30036
-0.220527
-0.132465
-0.0371363
0.0648717
0.172859
0.285943
0.397357
0.488971
0.554575
0.601389
0.634477
0.657498
0.672463
0.68019
0.682542
0.682613
-0.442843
-0.431497
-0.388489
-0.3206
-0.239626
-0.150282
-0.0534713
0.0502732
0.160357
0.276126
0.391078
0.486742
0.556186
0.606285
0.641753
0.666015
0.681139
0.688414
0.690342
0.690281
-0.464411
-0.452839
-0.409132
-0.340343
-0.258351
-0.167881
-0.069809
0.0354305
0.147322
0.265443
0.383594
0.483193
0.556631
0.610467
0.648958
0.674916
0.690074
0.696436
0.697675
0.697464
-0.485413
-0.473516
-0.429151
-0.35955
-0.276659
-0.185214
-0.0860475
0.0204372
0.133854
0.253985
0.374939
0.478224
0.555685
0.613614
0.655911
0.684473
0.699879
0.704607
0.704474
0.704002
-0.50569
-0.493493
-0.448513
-0.378165
-0.294466
-0.202191
-0.102101
0.00541698
0.120069
0.241838
0.365182
0.471773
0.55314
0.615302
0.662147
0.694743
0.711676
0.714492
0.711397
0.709631
-0.525289
-0.512817
-0.467166
-0.396132
-0.311728
-0.218741
-0.117885
-0.00954627
0.106087
0.229158
0.354428
0.463805
0.54884
0.615046
0.666761
0.70497
0.726171
0.729595
0.722652
0.712094
-0.544126
-0.53144
-0.485212
-0.413602
-0.328654
-0.23515
-0.133742
-0.0248662
0.0914397
0.215405
0.342092
0.453669
0.542157
0.612177
0.668354
0.713304
0.741877
0.74984
0.743151
0.73269
-0.562158
-0.549262
-0.502655