/*--------------------------------*- C++ -*----------------------------------*\
| =========                 |                                                 |
| \\      /  F ield         | OpenFOAM: The Open Source CFD Toolbox           |
|  \\    /   O peration     | Version:  4.0                                   |
|   \\  /    A nd           | Web:      www.OpenFOAM.org                      |
|    \\/     M anipulation  |                                                 |
\*---------------------------------------------------------------------------*/
FoamFile
{
    version     2.0;
    format      ascii;
    class       surfaceScalarField;
    location    "27";
    object      phi;
}
// * * * * * * * * * * * * * * * * * * * * * * * * * * * * * * * * * * * * * //

dimensions      [0 3 -1 0 0 0 0];

internalField   nonuniform List<scalar> 
17370
(
-0.0916071
0.0960072
0.284611
-0.077591
0.0594146
0.364952
-0.043036
0.0316157
0.427588
-0.0223095
0.0162534
0.505308
-0.0116545
0.00877402
0.602283
-0.00655567
0.0050677
0.720545
-0.00383498
0.00296589
0.863776
-0.00221051
0.00164917
1.03601
-0.00113423
0.000724579
1.24291
-0.000319922
-6.3827e-05
1.49157
0.000445119
-0.000856904
1.4916
0.00126302
-0.00177078
1.2432
0.00232409
-0.00307019
1.03638
0.0039309
-0.00515442
0.86413
0.00663384
-0.00884231
0.721266
0.0117122
-0.0162973
0.6038
0.0223401
-0.0316323
0.508731
0.0430382
-0.0594083
0.432538
0.077587
-0.0960035
0.365192
0.0916173
0.197394
-0.127088
0.088019
0.0390685
-0.364351
0.354025
-0.0714771
0.0818031
-0.446654
0.454246
-0.0791674
0.0715751
-0.521009
0.529105
-0.0637261
0.0556299
-0.612986
0.620754
-0.048245
0.0404767
-0.727157
0.733677
-0.0338648
0.0273445
-0.867575
0.87242
-0.0221436
0.0172991
-1.03856
1.04188
-0.0136124
0.0102918
-1.24471
1.24709
-0.00776034
0.00537781
-1.49283
1.49482
-0.00343711
0.0014512
-1.49269
1.49448
0.000344786
-0.00214347
-1.2441
1.24601
0.0041041
-0.00601649
-1.03761
1.0401
0.00836235
-0.0108579
-0.866191
0.869838
0.0141377
-0.0177849
-0.724602
0.729764
0.0225858
-0.0277483
-0.609072
0.615648
0.0342285
-0.0408046
-0.51513
0.522475
0.0485331
-0.0558786
-0.439881
0.447676
0.0639187
-0.0717137
-0.374717
0.377366
0.0792288
-0.081878
-0.256916
0.22447
0.0715357
-0.0390899
-0.0688022
0.0591904
0.0096118
-0.052109
0.0589419
-0.374832
0.367999
-0.0580954
0.0542541
-0.453937
0.457778
-0.0487644
0.0441997
-0.5276
0.532165
-0.039641
0.035736
-0.62078
0.624685
-0.0315173
0.0275296
-0.734639
0.738627
-0.023199
0.0193492
-0.873938
0.877788
-0.0153545
0.011944
-1.04334
1.04675
-0.00847422
0.00548021
-1.24861
1.25161
-0.00230772
-0.000649042
-1.49691
1.49986
0.00359097
-0.00672574
-1.49739
1.50053
0.00966461
-0.0130628
-1.25006
1.25346
0.0164019
-0.0203149
-1.04567
1.04958
0.0240893
-0.0283388
-0.877165
0.881414
0.0322543
-0.0363966
-0.739012
0.743154
0.0402376
-0.0447351
-0.625997
0.630494
0.049251
-0.0546943
-0.535041
0.540484
0.0584822
-0.0592674
-0.458108
0.458894
0.0523478
-0.0320065
-0.336816
0.316475
0.0096545
-0.0686972
0.0590428
-0.053401
0.0492913
0.00410968
-0.033236
0.043661
-0.358547
0.348122
-0.0473407
0.0467598
-0.459563
0.460144
-0.0438386
0.0406329
-0.536111
0.539317
-0.0369639
0.0336176
-0.628363
0.63171
-0.0299958
0.0267708
-0.741989
0.745214
-0.0233384
0.0201688
-0.881272
0.884441
-0.0166201
0.0133133
-1.05016
1.05347
-0.00966959
0.00631885
-1.25485
1.2582
-0.00259188
-0.000965252
-1.50318
1.50674
0.00450101
-0.00816921
-1.504
1.50767
0.011441
-0.0149799
-1.25702
1.26055
0.0181822
-0.0216122
-1.05328
1.05671
0.0246731
-0.0279894
-0.885031
0.888347
0.0311134
-0.0346308
-0.746852
0.75037
0.0378868
-0.0414631
-0.634635
0.638211
0.0445904
-0.0474254
-0.544647
0.547482
0.047919
-0.0441205
-0.457039
0.45324
0.0335519
-0.0163086
-0.297211
0.279968
0.00415709
-0.0532112
0.0490541
-0.0461228
0.0435731
0.00254966
-0.0230074
0.0333413
-0.337531
0.327197
-0.0390641
0.0400103
-0.459878
0.458931
-0.038761
0.03644
-0.541941
0.544262
-0.0338051
0.0312681
-0.63464
0.637177
-0.0283112
0.0254995
-0.748279
0.75109
-0.0223214
0.0193746
-0.887494
0.89044
-0.0161016
0.0130438
-1.05663
1.05969
-0.00957305
0.00624934
-1.26156
1.26488
-0.00241203
-0.00132814
-1.51043
1.51417
0.00504055
-0.00879395
-1.51142
1.51517
0.0120075
-0.0153345
-1.264
1.26733
0.0182489
-0.0213591
-1.05994
1.06305
0.0241594
-0.027184
-0.891567
0.894591
0.0298596
-0.0326735
-0.75357
0.756384
0.0350884
-0.0376018
-0.641172
0.643685
0.0398226
-0.0409421
-0.549336
0.550456
0.0398632
-0.0339498
-0.448171
0.442257
0.0234091
-0.0102728
-0.264868
0.251732
0.00260826
-0.0458337
0.0432254
-0.0414602
0.039669
0.00179119
-0.0168683
0.0261228
-0.317345
0.30809
-0.0327009
0.0348145
-0.457372
0.455258
-0.0343759
0.0326722
-0.546285
0.547989
-0.0304375
0.028311
-0.639461
0.641587
-0.0258945
0.0235646
-0.753643
0.755973
-0.0208347
0.0181829
-0.893249
0.895901
-0.0151097
0.0121763
-1.06268
1.06561
-0.00881672
0.00560237
-1.26814
1.27135
-0.0018811
-0.00175132
-1.51787
1.5215
0.00534738
-0.00895819
-1.51887
1.52248
0.0120255
-0.0151979
-1.27057
1.27374
0.0179476
-0.020812
-1.06604
1.06891
0.0232756
-0.025808
-0.897362
0.899895
0.0279643
-0.0301992
-0.758852
0.761087
0.0321673
-0.0342409
-0.645959
0.648032
0.0357969
-0.0360579
-0.551095
0.551356
0.0337424
-0.0268902
-0.435776
0.428923
0.0173635
-0.00733591
-0.240287
0.230259
0.00186238
-0.0410496
0.0391872
-0.0381304
0.036798
0.00133235
-0.0127882
0.0207065
-0.299498
0.29158
-0.0274119
0.0303171
-0.45269
0.449785
-0.0305472
0.0294652
-0.549376
0.550458
-0.027529
0.0256558
-0.643586
0.64546
-0.0235019
0.0214202
-0.758182
0.760264
-0.0189938
0.0166154
-0.898418
0.900796
-0.0138121
0.0110742
-1.06845
1.07119
-0.00788485
0.00480582
-1.27449
1.27757
-0.0012308
-0.00225598
-1.52505
1.52853
0.00569209
-0.00912064
-1.52601
1.52943
0.0120078
-0.0149533
-1.27681
1.27976
0.0174519
-0.019986
-1.07162
1.07415
0.0221254
-0.024302
-0.902234
0.904411
0.0261647
-0.0280893
-0.763161
0.765085
0.0297661
-0.0315112
-0.649912
0.651657
0.0323857
-0.0319157
-0.551227
0.550757
0.0287299
-0.0216563
-0.421886
0.414813
0.0133937
-0.0055739
-0.221433
0.213613
0.0014192
-0.0375722
0.036153
-0.0356373
0.0346228
0.00101449
-0.0098721
0.0165077
-0.284316
0.27768
-0.0229024
0.0262171
-0.446641
0.443326
-0.0269655
0.0262678
-0.551318
0.552016
-0.0245173
0.0227711
-0.647271
0.649017
-0.0207898
0.0189045
-0.762261
0.764147
-0.0167235
0.0145919
-0.903053
0.905184
-0.0120789
0.00959954
-1.07376
1.07624
-0.00666922
0.00378825
-1.28053
1.28341
-0.000408146
-0.00288995
-1.53193
1.53523
0.006126
-0.00931264
-1.53277
1.53595
0.0119399
-0.0145559
-1.28254
1.28516
0.0167276
-0.0188966
-1.07649
1.07866
0.0207261
-0.0225968
-0.906417
0.908288
0.0242117
-0.0259093
-0.766879
0.768577
0.0274107
-0.0288993
-0.653297
0.654786
0.0293335
-0.0282452
-0.549981
0.548893
0.0245465
-0.0176722
-0.407804
0.40093
0.0106094
-0.00437948
-0.206652
0.200422
0.00112041
-0.0349002
0.0337798
-0.0337401
0.0329693
0.000770803
-0.00763923
0.013113
-0.271643
0.266169
-0.0189552
0.0224518
-0.439893
0.436397
-0.0237091
0.0233082
-0.552586
0.552987
-0.0218879
0.020295
-0.650715
0.652307
-0.0184495
0.0166854
-0.765996
0.76776
-0.014634
0.0126181
-0.907246
0.909262
-0.0102313
0.00788817
-1.0786
1.08094
-0.00514437
0.00247776
-1.28614
1.2888
0.00062539
-0.00363913
-1.53837
1.54139
0.00657638
-0.00944646
-1.53901
1.54188
0.0117992
-0.0141377
-1.28763
1.28997
0.0160824
-0.0180265
-1.0807
1.08265
0.0196577
-0.0213187
-0.910036
0.911697
0.0227554
-0.0242629
-0.770167
0.771674
0.02555
-0.0266273
-0.656085
0.657163
0.0266822
-0.0249699
-0.547489
0.545777
0.020973
-0.0145295
-0.394253
0.38781
0.00853396
-0.00350214
-0.194841
0.189809
0.000899521
-0.0327854
0.0318858
-0.0323012
0.0317225
0.000578713
-0.00585037
0.010281
-0.261233
0.256802
-0.015399
0.01881
-0.432919
0.429508
-0.0203649
0.0202272
-0.553249
0.553387
-0.019123
0.0176978
-0.653818
0.655243
-0.0160075
0.014363
-0.769505
0.771149
-0.0124302
0.0105264
-0.91123
0.913134
-0.00828285
0.00609655
-1.08315
1.08534
-0.00354852
0.0010796
-1.29132
1.29379
0.001793
-0.00457786
-1.54426
1.54705
0.00726352
-0.00984062
-1.54463
1.5472
0.011915
-0.013948
-1.29219
1.29423
0.0156275
-0.0173097
-1.08449
1.08617
0.0187399
-0.0201973
-0.913245
0.914702
0.0214337
-0.0227024
-0.773025
0.774293
0.0237615
-0.0244047
-0.658026
0.658669
0.0240863
-0.0219267
-0.543835
0.541675
0.0178711
-0.0120056
-0.381654
0.375788
0.0069398
-0.00284188
-0.18528
0.181182
0.00073673
-0.0310815
0.0303447
-0.031232
0.0308192
0.00041282
-0.00432843
0.00781336
-0.252861
0.249376
-0.0121303
0.015269
-0.426225
0.423086
-0.0169142
0.0169202
-0.553451
0.553445
-0.0159823
0.0146106
-0.656654
0.658026
-0.0130126
0.0115068
-0.772784
0.77429
-0.00977111
0.00805872
-0.914932
0.916644
-0.00602295
0.00402324
-1.08736
1.08936
-0.00168106
-0.000583646
-1.2961
1.29836
0.00320835
-0.00572271
-1.54967
1.55218
0.00811481
-0.0103749
-1.54964
1.5519
0.0121616
-0.0138838
-1.29614
1.29786
0.0152674
-0.0165958
-1.08771
1.08904
0.0176814
-0.0187896
-0.915972
0.91708
0.0197759
-0.020849
-0.775411
0.776484
0.0217639
-0.0221116
-0.659146
0.659494
0.0215168
-0.019094
-0.539404
0.536981
0.0151454
-0.00991082
-0.370259
0.365024
0.00565478
-0.00231465
-0.177498
0.174158
0.000606337
-0.0296883
0.029082
-0.0304817
0.0302119
0.000269832
-0.00298264
0.00558385
-0.246345
0.243744
-0.00905495
0.0118136
-0.420135
0.417377
-0.013469
0.0136471
-0.553374
0.553196
-0.0128842
0.011688
-0.659364
0.660561
-0.0102439
0.0088661
-0.775794
0.777172
-0.00725373
0.00563873
-0.918252
0.919867
-0.00371548
0.00183382
-1.0912
1.09308
0.000351458
-0.00246066
-1.30049
1.3026
0.004865
-0.00712214
-1.55453
1.55679
0.00923979
-0.0112051
-1.55402
1.55599
0.0127155
-0.0141093
-1.29944
1.30084
0.0151986
-0.0162362
-1.09021
1.09125
0.0170647
-0.0179001
-0.918038
0.918874
0.0186585
-0.0194816
-0.777383
0.778206
0.0200886
-0.0201164
-0.659705
0.659733
0.0191586
-0.016501
-0.534491
0.531833
0.0127324
-0.00814337
-0.36014
0.355551
0.00460748
-0.00190026
-0.171165
0.168458
0.000510201
-0.0285396
0.0280294
-0.0300086
0.0298775
0.000131093
-0.00169815
0.00343954
-0.241583
0.239842
-0.00600767
0.00826447
-0.414859
0.412602
-0.00984013
0.0102195
-0.552905
0.552525
-0.00972253
0.00879477
-0.661654
0.662581
-0.00750482
0.0061861
-0.778606
0.779925
-0.00458269
0.00297447
-0.921443
0.923051
-0.00108791
-0.000715605
-1.09484
1.09664
0.00277355
-0.00471157
-1.30456
1.3065
0.00688263
-0.00888224
-1.55887
1.56087
0.0106972
-0.0123242
-1.55779
1.55942
0.0135282
-0.0146288
-1.30216
1.30326
0.015482
-0.0162732
-1.09224
1.09303
0.0169058
-0.0175151
-0.919616
0.920225
0.0179955
-0.0184408
-0.778709
0.779154
0.0185996
-0.0181664
-0.659498
0.659065
0.0168029
-0.01399
-0.529129
0.526316
0.0105054
-0.00658204
-0.351339
0.347415
0.00370086
-0.00154492
-0.166062
0.163906
0.000429007
-0.0275755
0.0271465
-0.0298185
0.0298297
-1.11974e-05
-0.000469961
0.00139926
-0.238515
0.237585
-0.00306525
0.00470474
-0.410663
0.409024
-0.00595035
0.00626585
-0.552158
0.551843
-0.00580221
0.00497432
-0.663497
0.664325
-0.00380987
0.0026108
-0.781266
0.782465
-0.00114436
-0.000326001
-0.924516
0.925986
0.002043
-0.00369102
-1.09827
1.09992
0.00556972
-0.00733435
-1.30829
1.31005
0.00930015
-0.0110791
-1.56272
1.5645
0.0126296
-0.0139086
-1.56088
1.56216
0.0147704
-0.0154407
-1.30418
1.30485
0.0158634
-0.0161837
-1.09362
1.09394
0.0164069
-0.0165717
-0.920628
0.920793
0.0166861
-0.0168098
-0.77939
0.779514
0.0167061
-0.0160299
-0.658444
0.657768
0.0144983
-0.0117262
-0.523572
0.5208
0.00858638
-0.00527285
-0.34386
0.340546
0.00294738
-0.001243
-0.162026
0.160321
0.000353619
-0.0267755
0.0264218
-0.0299139
0.0300619
-0.000147983
0.00050618
-0.00028565
-0.237015
0.236794
-0.000549808
0.0015962
-0.407719
0.406672
-0.00248554
0.00268418
-0.55162
0.551421
-0.0022168
0.00143769
-0.665211
0.66599
-0.000340448
-0.000794835
-0.783681
0.784816
0.00219316
-0.00360011
-0.927292
0.928699
0.00526039
-0.00686105
-1.10142
1.10302
0.00868759
-0.0103851
-1.31169
1.31338
0.0122151
-0.0137813
-1.56611
1.56768
0.0150723
-0.0160703
-1.56329
1.56429
0.0166533
-0.0170337
-1.30542
1.3058
0.017168
-0.0171353
-1.09417
1.09413
0.016997
-0.0168118
-0.920791
0.920606
0.0166319
-0.016413
-0.77927
0.779051
0.0159711
-0.0149411
-0.656883
0.655853
0.0131493
-0.0103169
-0.518111
0.515278
0.00740626
-0.00452604
-0.337547
0.334667
0.0025538
-0.00109365
-0.158817
0.157357
0.000314086
-0.0261205
0.0258064
-0.0302566
0.0304916
-0.000235046
0.00125069
-0.00152626
-0.236842
0.237118
0.00140248
-0.000916726
-0.40594
0.405454
0.000352276
-0.000227862
-0.551306
0.551182
0.000664615
-0.00139834
-0.666865
0.667599
0.00246808
-0.00363926
-0.786012
0.787183
0.00512791
-0.00664168
-0.929989
0.931502
0.00843221
-0.0101558
-1.10453
1.10625
0.0121024
-0.0138679
-1.31502
1.31678
0.0157033
-0.0171979
-1.56915
1.57064
0.0183425
-0.0191493
-1.5652
1.56601
0.0195153
-0.0196014
-1.30608
1.30617
0.0194824
-0.0191669
-1.09396
1.09365
0.0187592
-0.0182458
-0.92021
0.919697
0.0177748
-0.0172275
-0.778567
0.77802
0.0163555
-0.0148762
-0.654598
0.653119
0.0127908
-0.00987146
-0.512522
0.509603
0.00710919
-0.00445627
-0.332014
0.329361
0.00258891
-0.00113397
-0.15598
0.154525
0.000328144
-0.0255199
0.0251918
-0.0307741
0.0310964
-0.000322311
0.00184025
-0.00256737
-0.237618
0.238345
0.00306884
-0.00322342
-0.405312
0.405467
0.00317374
-0.00325397
-0.551215
0.551295
0.00369965
-0.00444464
-0.66847
0.669215
0.00559864
-0.00693826
-0.788449
0.789788
0.00868764
-0.010456
-0.932956
0.934724
0.0124956
-0.0143922
-1.10791
1.10981
0.0164462
-0.0182448
-1.31848
1.32028
0.0200443
-0.0214347
-1.57204
1.57343
0.022388
-0.0228866
-1.56666
1.56716
0.0229507
-0.0227072
-1.30613
1.30589
0.0222814
-0.0216656
-1.09318
1.09256
0.0210245
-0.0202688
-0.919007
0.918251
0.0195214
-0.0185891
-0.777142
0.776209
0.0173755
-0.0155508
-0.651498
0.649673
0.0132624
-0.0103062
-0.506818
0.503862
0.00759603
-0.00492671
-0.326841
0.324172
0.00293711
-0.00130814
-0.153067
0.151438
0.000381648
-0.0248755
0.0244938
-0.0314685
0.0318878
-0.000419345
0.0024708
-0.00357344
-0.239278
0.240381
0.00461946
-0.00536688
-0.405915
0.406662
0.00599384
-0.00660445
-0.551753
0.552364
0.00747063
-0.00853271
-0.670245
0.671307
0.0100064
-0.0116436
-0.791257
0.792895
0.0136852
-0.015663
-0.936379
0.938357
0.0178848
-0.0198922
-1.11159
1.1136
0.0220084
-0.0237859
-1.32195
1.32373
0.0254787
-0.0266705
-1.57466
1.57585
0.0273294
-0.0274468
-1.56746
1.56758
0.0271585
-0.02651
-1.30548
1.30483
0.0257393
-0.0247727
-1.09176
1.09079
0.0237925
-0.0226692
-0.917213
0.91609
0.0216237
-0.020376
-0.77497
0.773722
0.0189489
-0.0169376
-0.647798
0.645786
0.0145797
-0.0115644
-0.501102
0.498087
0.00869585
-0.0057355
-0.321528
0.318567
0.00345533
-0.00155122
-0.14976
0.147856
0.000455304
-0.0241191
0.0236638
-0.0323651
0.0329041
-0.000539059
0.00325223
-0.00476855
-0.241698
0.243214
0.00629236
-0.00752267
-0.407693
0.408923
0.00874061
-0.00991262
-0.553485
0.554657
0.0114071
-0.0130414
-0.67285
0.674484
0.0150693
-0.0171201
-0.794666
0.796717
0.0195307
-0.0217857
-0.940205
0.94246
0.0242377
-0.0264142
-1.11547
1.11765
0.028658
-0.0304885
-1.32537
1.3272
0.0321271
-0.0331358
-1.57685
1.57786
0.033499
-0.0331984
-1.56744
1.56714
0.0324673
-0.0313344
-1.30398
1.30285
0.0301372
-0.0287319
-1.08958
1.08818
0.027452
-0.0260661
-0.914706
0.91332
0.0247811
-0.0233194
-0.772168
0.770707
0.0217516
-0.0195831
-0.643804
0.641636
0.0169864
-0.0135564
-0.495184
0.491754
0.01023
-0.00676037
-0.315541
0.312071
0.00408593
-0.00184976
-0.145888
0.143652
0.000549864
-0.0232141
0.0226642
-0.033516
0.0342264
-0.00071034
0.00435493
-0.00643284
-0.244992
0.24707
0.00851392
-0.0101393
-0.410406
0.412032
0.0117098
-0.0132016
-0.556349
0.55784
0.0150857
-0.0171435
-0.676569
0.678627
0.0196958
-0.0222485
-0.798879
0.801432
0.0251825
-0.0278711
-0.944624
0.947313
0.030792
-0.033383
-1.11977
1.12236
0.0360564
-0.0382264
-1.32899
1.33116
0.0401264
-0.0412392
-1.57877
1.57988
0.0415709
-0.0411198
-1.56666
1.56621
0.0401367
-0.0386601
-1.30147
1.29999
0.0370082
-0.0350621
-1.08649
1.08454
0.0333101
-0.031515
-0.911666
0.909871
0.0299908
-0.0283186
-0.768958
0.767286
0.0264276
-0.0236619
-0.639334
0.636569
0.0203055
-0.0159518
-0.488229
0.483875
0.0118919
-0.00782489
-0.308518
0.304451
0.0047471
-0.00216446
-0.141373
0.138791
0.000647918
-0.0221301
0.0214822
-0.0350157
0.0359634
-0.000947751
0.00587548
-0.00874072
-0.249473
0.252338
0.0116064
-0.0137143
-0.413971
0.416079
0.0155084
-0.0170727
-0.559874
0.561438
0.0190376
-0.0213143
-0.681032
0.683309
0.024299
-0.027345
-0.804027
0.807073
0.0308707
-0.0341941
-0.949971
0.953294
0.0378757
-0.0411777
-1.12502
1.12832
0.044603
-0.0473924
-1.33343
1.33622
0.0498711
-0.0513919
-1.58105
1.58258
0.0519841
-0.0516626
-1.56575
1.56543
0.0507011
-0.0491312
-1.29842
1.29685
0.0473605
-0.0451699
-1.08236
1.08016
0.0430109
-0.0405983
-0.907516
0.905103
0.0384097
-0.0357025
-0.765008
0.762301
0.0327213
-0.0285281
-0.633326
0.629133
0.0239188
-0.0184682
-0.479351
0.4739
0.0137011
-0.00906094
-0.300392
0.295752
0.0055357
-0.00253815
-0.136173
0.133175
0.000761854
-0.0208543
0.0200924
-0.0369948
0.0382963
-0.0013015
0.00805803
-0.0120469
-0.255593
0.259582
0.0160825
-0.0190082
-0.418735
0.421661
0.0212817
-0.0229687
-0.56373
0.565417
0.024944
-0.0273633
-0.685893
0.688313
0.0306678
-0.0341644
-0.810012
0.813509
0.0384273
-0.042547
-0.95665
0.96077
0.0471597
-0.051294
-1.13177
1.1359
0.0555451
-0.0589744
-1.33914
1.34257
0.062004
-0.0638596
-1.58415
1.58601
0.0645906
-0.064245
-1.56506
1.56472
0.0631585
-0.061355
-1.29514
1.29334
0.0592947
-0.0566846
-1.07766
1.07505
0.0540597
-0.0509361
-0.902115
0.898991
0.0476851
-0.0435092
-0.758621
0.754445
0.0389874
-0.0331987
-0.624227
0.618438
0.027459
-0.0211568
-0.468413
0.46211
0.0158075
-0.0105621
-0.291211
0.285965
0.00648968
-0.00297664
-0.130147
0.126633
0.000889323
-0.0193543
0.018465
-0.0396784
0.0415049
-0.00182644
0.0111374
-0.0166266
-0.263982
0.269471
0.0222163
-0.0263511
-0.425541
0.429676
0.0295732
-0.0318276
-0.568259
0.570514
0.0342373
-0.0370206
-0.691089
0.693872
0.0409797
-0.0452425
-0.816954
0.821217
0.0504076
-0.0553394
-0.964918
0.969849
0.060779
-0.0655492
-1.14008
1.14485
0.0703332
-0.0740707
-1.34597
1.34971
0.077213
-0.0789385
-1.58771
1.58943
0.079322
-0.078441
-1.56408
1.5632
0.0767742
-0.0742427
-1.29118
1.28865
0.0714484
-0.0679908
-1.07193
1.06847
0.0645002
-0.0602365
-0.895001
0.890738
0.0557772
-0.0502197
-0.749215
0.743658
0.0445234
-0.0377456
-0.612174
0.605396
0.031364
-0.0244803
-0.456024
0.44914
0.0185232
-0.012493
-0.280853
0.274823
0.00769576
-0.00351832
-0.123078
0.1189
0.00104336
-0.0176032
0.0165598
-0.0433839
0.046046
-0.00266218
0.0157656
-0.0232913
-0.275376
0.282902
0.0308764
-0.0366333
-0.435357
0.441114
0.0413638
-0.0448751
-0.574606
0.578117
0.0485943
-0.0525528
-0.697334
0.701292
0.0576482
-0.0628118
-0.825443
0.830607
0.0687997
-0.0743275
-0.974683
0.980211
0.0802215
-0.0852081
-1.14944
1.15443
0.0899901
-0.0934854
-1.35313
1.35662
0.0960669
-0.0969894
-1.59064
1.59157
0.0963655
-0.0942873
-1.56168
1.55961
0.0914736
-0.0876485
-1.28545
1.28162
0.0836755
-0.0789266
-1.06424
1.05949
0.0742468
-0.0687263
-0.885429
0.879909
0.0632668
-0.0568201
-0.737144
0.730697
0.0505139
-0.0432652
-0.598383
0.591134
0.0364451
-0.0288815
-0.442569
0.435005
0.0220449
-0.0148944
-0.268926
0.261776
0.00913085
-0.00413081
-0.114693
0.109693
0.00120705
-0.0155596
0.0143525
-0.0486897
0.0527974
-0.00410773
0.0231769
-0.0335534
-0.290917
0.301294
0.0437368
-0.0516113
-0.449361
0.457236
0.0583225
-0.0635994
-0.584205
0.589482
0.0693874
-0.0750759
-0.706121
0.71181
0.0816452
-0.0877674
-0.83571
0.841832
0.0944391
-0.100277
-0.98547
0.991308
0.10618
-0.110887
-1.15896
1.16367
0.11504
-0.117665
-1.35945
1.36208
0.118959
-0.1184
-1.59159
1.59103
0.116135
-0.112273
-1.55655
1.55268
0.10788
-0.102409
-1.27691
1.27143
0.0970141
-0.0907852
-1.05381
1.04758
0.0848843
-0.0782582
-0.873323
0.866697
0.0720579
-0.0650768
-0.72334
0.716358
0.0584042
-0.0507198
-0.583638
0.575954
0.0432555
-0.0346202
-0.427662
0.419027
0.0265083
-0.0178483
-0.254775
0.246115
0.0108405
-0.00483023
-0.104717
0.098707
0.00138266
-0.0132065
0.0118238
-0.0566798
0.0638756
-0.0071958
0.0365713
-0.0511775
-0.312747
0.327353
0.0650236
-0.0753643
-0.468968
0.479309
0.0840284
-0.0912069
-0.597962
0.605141
0.0993479
-0.106723
-0.718198
0.725574
0.114552
-0.121315
-0.84775
0.854513
0.1282
-0.133828
-0.996619
1.00225
0.13911
-0.142904
-1.16757
1.17137
0.145727
-0.146818
-1.36367
1.36476
0.146145
-0.143511
-1.58922
1.58658
0.13913
-0.133126
-1.5476
1.54159
0.126921
-0.119652
-1.26496
1.25769
0.112757
-0.105074
-1.04041
1.03272
0.0980535
-0.0904619
-0.859006
0.851414
0.0836235
-0.0761598
-0.708286
0.700823
0.0690679
-0.0606236
-0.56774
0.559296
0.0520526
-0.0417806
-0.410357
0.400085
0.0319139
-0.0213535
-0.237632
0.227071
0.0128308
-0.005617
-0.0929056
0.0856918
0.00156204
-0.01054
0.00897798
-0.0707053
0.0745211
-0.00381577
0.027156
-0.0397775
-0.344742
0.357363
0.052076
-0.0614778
-0.494763
0.504164
0.0703525
-0.0794598
-0.615853
0.62496
0.0897201
-0.098815
-0.732814
0.741908
0.108968
-0.11801
-0.860548
0.86959
0.127511
-0.135791
-1.00687
1.01515
0.144195
-0.151117
-1.17391
1.18083
0.157543
-0.16206
-1.36444
1.36896
0.165029
-0.165412
-1.58242
1.5828
0.163039
-0.158256
-1.53417
1.52939
0.152206
-0.144218
-1.24934
1.24135
0.136227
-0.126458
-1.02411
1.01434
0.117466
-0.107603
-0.84273
0.832868
0.098777
-0.0892105
-0.691915
0.682348
0.0798377
-0.0686557
-0.549843
0.538661
0.0573511
-0.043773
-0.389409
0.375831
0.0314237
-0.019241
-0.216597
0.204414
0.0104508
-0.00404953
-0.07913
0.0727287
0.000933842
-0.0076879
0.00675406
-0.0815325
0.0793235
0.00220898
0.0053246
-0.0133512
-0.372974
0.381001
0.0224358
-0.0296159
-0.518319
0.525499
0.0376827
-0.0457093
-0.635864
0.643891
0.0551518
-0.063723
-0.750935
0.759507
0.0728272
-0.0811206
-0.878195
0.886488
0.0897958
-0.0970168
-1.02315
1.03037
0.104487
-0.110226
-1.18749
1.19323
0.115402
-0.118627
-1.37299
1.37621
0.119904
-0.118778
-1.58203
1.58091
0.114924
-0.108744
-1.52335
1.51717
0.10143
-0.0923203
-1.23251
1.2234
0.0834966
-0.0733775
-1.00395
0.993833
0.0639329
-0.0535505
-0.821416
0.811033
0.0444521
-0.0353617
-0.66938
0.660289
0.0276912
-0.0195222
-0.525075
0.516906
0.0123057
-0.00587952
-0.361497
0.355071
0.00187139
0.000643467
-0.192167
0.189652
-0.00148959
0.00121668
-0.0661116
0.0663846
-0.000548059
-0.00544478
0.00599284
-0.0822791
0.0792841
0.00299502
-0.00323846
-0.00104482
-0.391918
0.396201
0.00697309
-0.0125049
-0.536693
0.542224
0.0191649
-0.0261653
-0.653208
0.660208
0.0343241
-0.0417763
-0.767563
0.775015
0.0499147
-0.0571562
-0.894163
0.901404
0.0644846
-0.070928
-1.03743
1.04388
0.0773815
-0.0824082
-1.19854
1.20357
0.0864646
-0.0886869
-1.37873
1.38095
0.08924
-0.0873654
-1.57896
1.57708
0.0829434
-0.0763907
-1.51025
1.50369
0.0690237
-0.060275
-1.21409
1.20534
0.0515865
-0.0420111
-0.983358
0.973782
0.0331637
-0.0235516
-0.800534
0.790921
0.0153621
-0.00716725
-0.649226
0.641031
0.000668664
0.00556928
-0.506057
0.499819
-0.00971006
0.011633
-0.346347
0.344424
-0.0111993
0.00912647
-0.184655
0.186728
-0.00642292
0.00333263
-0.0656761
0.0687664
-0.00112412
-0.00592466
0.00704878
-0.0807298
0.0779077
0.00282208
-0.00632845
0.00444753
-0.404205
0.406086
-0.000896724
-0.00341406
-0.550825
0.555136
0.00935623
-0.0152664
-0.667677
0.673588
0.0222823
-0.0287338
-0.782181
0.788633
0.0357364
-0.0419827
-0.908248
0.914494
0.048685
-0.0541896
-1.04995
1.05545
0.0598861
-0.0638827
-1.20823
1.21223
0.0673839
-0.0692142
-1.38299
1.38482
0.0693235
-0.0670364
-1.57483
1.57254
0.062802
-0.0566916
-1.4967
1.49059
0.0498783
-0.0415605
-1.1965
1.18818
0.0337409
-0.0251981
-0.96406
0.955518
0.0172029
-0.00884557
-0.78125
0.772893
0.00138466
0.00574693
-0.631235
0.624104
-0.0111771
0.0155534
-0.491417
0.487041
-0.0177604
0.0176005
-0.338929
0.339089
-0.015231
0.0113221
-0.185904
0.189813
-0.00766671
0.00377476
-0.070422
0.0743139
-0.0012017
-0.00750034
0.00870205
-0.079085
0.0766691
0.00241596
-0.00702093
0.0065519
-0.412343
0.412812
-0.00390561
0.000722679
-0.562431
0.565614
0.00427459
-0.00966378
-0.679934
0.685323
0.0156074
-0.0213337
-0.794659
0.800386
0.0274487
-0.0329268
-0.920422
0.9259
0.0387483
-0.0437339
-1.0609
1.06588
0.0486477
-0.0524391
-1.21616
1.21995
0.055539
-0.0571313
-1.38637
1.38797
0.0571675
-0.0550269
-1.5702
1.56806
0.0511656
-0.0454723
-1.48402
1.47832
0.0393749
-0.0321184
-1.18008
1.17282
0.0252422
-0.0176519
-0.946913
0.939322
0.0108216
-0.00360046
-0.764407
0.757186
-0.00260339
0.00859129
-0.616048
0.610061
-0.0129465
0.0162409
-0.480198
0.476904
-0.0178673
0.0173383
-0.335553
0.336082
-0.0146661
0.0108155
-0.190469
0.19432
-0.00723657
0.00349386
-0.0763785
0.0801213
-0.00112498
-0.00923034
0.0103553
-0.0776913
0.0756596
0.00203165
-0.00663023
0.00650529
-0.417894
0.418019
-0.00494355
0.00220065
-0.571474
0.574216
0.00247905
-0.00710419
-0.690479
0.695105
0.0122806
-0.0173244
-0.805551
0.810595
0.0228314
-0.0278007
-0.931157
0.936126
0.0332204
-0.0376812
-1.07067
1.07513
0.0422231
-0.0457634
-1.22355
1.22709
0.0486405
-0.0501496
-1.3894
1.39091
0.0502337
-0.0486906
-1.56596
1.56442
0.0452347
-0.0403341
-1.47241
1.46751
0.0349375
-0.0285454
-1.16566
1.15926
0.0227501
-0.0160642
-0.931863
0.925177
0.0101684
-0.00413938
-0.750033
0.744004
-0.00105767
0.00601596
-0.603525
0.598567
-0.0096066
0.0123554
-0.471434
0.468686
-0.0133355
0.0128862
-0.333568
0.334018
-0.0109786
0.00792717
-0.194668
0.19772
-0.00519417
0.00254374
-0.081551
0.0842014
-0.000834836
-0.010716
0.0115509
-0.0767076
0.075149
0.00155856
-0.00557207
0.00566374
-0.422049
0.421957
-0.00424943
0.00209301
-0.579551
0.581708
0.00215513
-0.00636432
-0.699725
0.703934
0.0113315
-0.0157455
-0.815417
0.819831
0.0206599
-0.0251429
-0.941171
0.945654
0.030376
-0.034527
-1.0797
1.08385
0.0386844
-0.0421651
-1.23053
1.23401
0.0453619
-0.046917
-1.39253
1.39408
0.0473179
-0.0460336
-1.56261
1.56132
0.0433397
-0.0388188
-1.46255
1.45803
0.0342267
-0.0287605
-1.15293
1.14746
0.0235854
-0.0179313
-0.918751
0.913097
0.0127862
-0.00743925
-0.737854
0.732507
0.00322264
0.00110808
-0.593053
0.588722
-0.00427293
0.00646844
-0.464153
0.461957
-0.0074746
0.00746968
-0.331769
0.331774
-0.00628031
0.00436213
-0.197332
0.199251
-0.00275694
0.00135179
-0.0846063
0.0860115
-0.000471502
-0.0116163
0.0120878
-0.0762609
0.0750493
0.0012116
-0.00440319
0.00454197
-0.425407
0.425268
-0.0031367
0.00105311
-0.586673
0.588757
0.00288244
-0.00668636
-0.708123
0.711927
0.0110082
-0.0153138
-0.824329
0.828634
0.0199238
-0.0245993
-0.950044
0.954719
0.029197
-0.0332453
-1.08816
1.09221
0.0376269
-0.0409769
-1.23744
1.24079
0.04385
-0.0459618
-1.39563
1.39774
0.0467435
-0.0459604
-1.56018
1.5594
0.0436649
-0.0399562
-1.45379
1.45008
0.0359085
-0.0310352
-1.14179
1.13692
0.0265004
-0.021446
-0.907448
0.902394
0.0168643
-0.0122312
-0.727262
0.722629
0.00817687
-0.00432939
-0.583928
0.58008
0.00146936
0.00088719
-0.458009
0.455653
-0.00209722
0.0023782
-0.329225
0.328944
-0.00217647
0.00158877
-0.197872
0.198459
-0.00106091
0.000584069
-0.0855421
0.086019
-0.000260857
-0.0118872
0.012148
-0.0763467
0.0753389
0.00100776
-0.00310252
0.00302047
-0.428518
0.4286
-0.00179226
-0.000342968
-0.593226
0.595361
0.00400951
-0.00771423
-0.715995
0.7197
0.0118957
-0.0158445
-0.832847
0.836795
0.020612
-0.0245678
-0.958913
0.962869
0.0291908
-0.0331241
-1.09646
1.1004
0.0374724
-0.0410973
-1.24419
1.24781
0.044358
-0.0463742
-1.39968
1.4017
0.0476323
-0.0473846
-1.55861
1.55836
0.0458535
-0.0425806
-1.44631
1.44304
0.039043
-0.0346095
-1.13215
1.12771
0.0304807
-0.0257685
-0.897126
0.892414
0.0216346
-0.0172268
-0.717762
0.713354
0.0134431
-0.00972544
-0.575751
0.572033
0.00679755
-0.00449708
-0.451891
0.449591
0.00288373
-0.00201639
-0.325867
0.325
0.00129085
-0.000733862
-0.196415
0.195858
0.000305223
5.725e-05
-0.0846625
0.0843
-0.000124002
-0.0116881
0.0118121
-0.076702
0.0760054
0.000696608
-0.00196049
0.0015015
-0.431813
0.432272
-0.000454867
-0.00196191
-0.59897
0.601387
0.00524736
-0.0088248
-0.723399
0.726976
0.0128605
-0.0169602
-0.840702
0.844802
0.021169
-0.0253165
-0.967092
0.97124
0.029947
-0.0337251
-1.1048
1.10858
0.0382219
-0.0418678
-1.25129
1.25494
0.0452694
-0.0478904
-1.40417
1.40679
0.0497324
-0.0498609
-1.5582
1.55833
0.0486492
-0.0461114
-1.43994
1.4374
0.0431054
-0.0390052
-1.12314
1.11904
0.0350695
-0.0307968
-0.887582
0.883309
0.0265164
-0.0224119
-0.708647
0.704543
0.0187333
-0.0149678
-0.568045
0.564279
0.0120874
-0.0093911
-0.445676
0.44298
0.00741906
-0.00572653
-0.321602
0.319909
0.0043301
-0.00278971
-0.19317
0.191629
0.00145507
-0.00042427
-0.0823337
0.0813029
8.26613e-06
-0.0111196
0.0111114
-0.0774582
0.076905
0.000553159
-0.00101592
0.000645822
-0.435331
0.435701
0.0010426
-0.00327994
-0.604897
0.607134
0.00669392
-0.0101455
-0.730321
0.733772
0.0140426
-0.0177737
-0.848656
0.852387
0.0221305
-0.0259998
-0.975448
0.979317
0.0306143
-0.0348519
-1.11284
1.11708
0.0390437
-0.0430607
-1.25867
1.26269
0.0469374
-0.0497158
-1.40936
1.41213
0.0520012
-0.0529655
-1.55871
1.55967
0.0522411
-0.0503323
-1.43473
1.43283
0.047507
-0.0437885
-1.11491
1.11119
0.0401623
-0.0359342
-0.878571
0.874343
0.0318912
-0.0277534
-0.699882
0.695744
0.0240651
-0.0201489
-0.560117
0.5562
0.0169768
-0.0139876
-0.439084
0.436095
0.0113582
-0.00895127
-0.316024
0.313617
0.00678691
-0.00445265
-0.188209
0.185875
0.00252123
-0.000940089
-0.0788901
0.077309
0.000172352
-0.0103229
0.0101505
-0.0784558
0.0780705
0.000385216
-5.04633e-05
-0.00056809
-0.438949
0.439567
0.00216781
-0.0046554
-0.610432
0.61292
0.00797196
-0.0112657
-0.737015
0.740309
0.0152477
-0.0188447
-0.856156
0.859753
0.0230694
-0.027077
-0.983699
0.987707
0.0316204
-0.0358489
-1.12121
1.12544
0.0402893
-0.0443676
-1.26667
1.27074
0.0484735
-0.0520344
-1.41523
1.41879
0.0548182
-0.056131
-1.56061
1.56192
0.0561286
-0.0545519
-1.43081
1.42923
0.0522494
-0.0489807
-1.10736
1.10409
0.0453264
-0.041188
-0.869754
0.865616
0.0371919
-0.0328862
-0.691166
0.68686
0.0292004
-0.02509
-0.552153
0.548042
0.0217231
-0.0181931
-0.43193
0.4284
0.0151506
-0.0120258