/*--------------------------------*- C++ -*----------------------------------*\
| =========                 |                                                 |
| \\      /  F ield         | OpenFOAM: The Open Source CFD Toolbox           |
|  \\    /   O peration     | Version:  4.0                                   |
|   \\  /    A nd           | Web:      www.OpenFOAM.org                      |
|    \\/     M anipulation  |                                                 |
\*---------------------------------------------------------------------------*/
FoamFile
{
    version     2.0;
    format      ascii;
    class       volScalarField;
    location    "43";
    object      p;
}
// * * * * * * * * * * * * * * * * * * * * * * * * * * * * * * * * * * * * * //

dimensions      [0 2 -2 0 0 0 0];

internalField   nonuniform List<scalar> 
8800
(
0.913949
0.866161
0.827468
0.798468
0.777597
0.762755
0.752144
0.744646
0.739802
0.737713
0.738942
0.743099
0.749719
0.759016
0.771782
0.789505
0.814276
0.848212
0.890757
0.949459
0.745206
0.752885
0.760352
0.763657
0.762148
0.757063
0.750566
0.744473
0.739726
0.736852
0.736534
0.739002
0.743459
0.749381
0.756132
0.7624
0.766031
0.76529
0.759863
0.751168
0.723623
0.729781
0.733905
0.736842
0.738883
0.739475
0.738353
0.736228
0.734184
0.733239
0.734158
0.736501
0.73927
0.741428
0.742017
0.740804
0.738451
0.73505
0.730488
0.726727
0.71784
0.720489
0.723235
0.725631
0.727256
0.728404
0.729127
0.72922
0.728893
0.728799
0.729503
0.73063
0.731434
0.73147
0.730838
0.72973
0.727901
0.725319
0.722911
0.721406
0.712496
0.71392
0.715692
0.717715
0.719487
0.720812
0.72178
0.722548
0.723124
0.723639
0.724234
0.724678
0.724734
0.724411
0.723686
0.722415
0.720701
0.718839
0.717525
0.716693
0.707467
0.708387
0.709621
0.711177
0.712796
0.714302
0.715562
0.716595
0.717514
0.718348
0.718969
0.719233
0.719137
0.718652
0.717735
0.716506
0.715154
0.713876
0.713045
0.712495
0.702621
0.703289
0.704245
0.705536
0.706929
0.708366
0.709776
0.711059
0.712204
0.713239
0.713977
0.714265
0.714112
0.713544
0.71269
0.711703
0.710658
0.709711
0.709117
0.708713
0.697913
0.698429
0.699205
0.700323
0.701582
0.702932
0.704344
0.70577
0.707135
0.708385
0.709288
0.709657
0.709542
0.70908
0.708414
0.707637
0.706819
0.706107
0.705663
0.705348
0.693276
0.693686
0.694334
0.695327
0.696512
0.697812
0.699218
0.700719
0.702266
0.703758
0.704875
0.705403
0.705452
0.705184
0.704719
0.704135
0.703508
0.702978
0.702643
0.702388
0.688627
0.688961
0.68952
0.690433
0.691568
0.692847
0.69428
0.695867
0.697579
0.699332
0.700729
0.701515
0.701808
0.701763
0.701501
0.701117
0.700664
0.700284
0.700032
0.699821
0.683885
0.68416
0.684659
0.685525
0.686639
0.687939
0.689435
0.691145
0.69306
0.695112
0.696866
0.697988
0.698573
0.698779
0.698735
0.698548
0.698267
0.698015
0.697828
0.697647
0.678967
0.679198
0.679656
0.680506
0.681641
0.683004
0.684606
0.686492
0.688674
0.691096
0.69329
0.694816
0.695739
0.696231
0.696425
0.696432
0.696318
0.696179
0.696047
0.695889
0.673794
0.673989
0.674427
0.675291
0.676487
0.677956
0.679721
0.681852
0.684383
0.687283
0.69001
0.69201
0.693321
0.69413
0.694589
0.694797
0.694851
0.694819
0.694732
0.694591
0.668274
0.668439
0.668874
0.669781
0.67108
0.672704
0.674694
0.677145
0.68012
0.683616
0.686994
0.689561
0.691333
0.692509
0.693262
0.69371
0.693932
0.693998
0.69395
0.693821
0.662302
0.662441
0.662888
0.663866
0.665313
0.667151
0.669439
0.672297
0.675822
0.680048
0.684223
0.687482
0.689808
0.691416
0.692506
0.693212
0.693619
0.693787
0.693777
0.693656
0.655763
0.655877
0.656348
0.657426
0.659069
0.661189
0.66386
0.667239
0.671465
0.676593
0.681738
0.685828
0.688811
0.690926
0.692404
0.693405
0.694023
0.694299
0.694325
0.694209
0.648492
0.648582
0.649091
0.650305
0.652198
0.654675
0.65784
0.661887
0.666989
0.673235
0.679559
0.684645
0.688403
0.691122
0.693071
0.69441
0.695262
0.695652
0.695713
0.695598
0.640278
0.640365
0.640926
0.642287
0.644499
0.647438
0.651231
0.656112
0.662313
0.669943
0.677693
0.683968
0.688651
0.692089
0.694606
0.696354
0.69747
0.697985
0.698083
0.697967
0.630832
0.630896
0.631538
0.63311
0.635737
0.639265
0.643847
0.649775
0.657323
0.666629
0.676125
0.683852
0.689651
0.693944
0.697133
0.69937
0.700806
0.701463
0.701596
0.701475
0.619794
0.619841
0.620576
0.622449
0.625601
0.62989
0.635494
0.642779
0.652062
0.663469
0.675043
0.684446
0.691542
0.69685
0.700813
0.703636
0.705435
0.706247
0.706416
0.706286
0.60663
0.606659
0.607535
0.609804
0.613655
0.61894
0.625871
0.634883
0.646313
0.660265
0.674346
0.685768
0.694401
0.700904
0.705804
0.709315
0.711533
0.712514
0.712716
0.712573
0.59059
0.59061
0.591693
0.594509
0.599309
0.605947
0.614662
0.625944
0.640118
0.657196
0.674229
0.687959
0.698353
0.706228
0.712225
0.716548
0.719245
0.720404
0.720628
0.720464
0.570514
0.570535
0.571949
0.575603
0.581793
0.59036
0.601545
0.615848
0.633498
0.654352
0.674815
0.691161
0.703541
0.712978
0.720172
0.725416
0.728626
0.729954
0.730184
0.729994
0.544579
0.544626
0.546623
0.551664
0.560039
0.571461
0.586134
0.604456
0.626459
0.651803
0.676178
0.695443
0.709987
0.721138
0.72967
0.735907
0.739627
0.741094
0.741309
0.741085
0.509748
0.509907
0.513118
0.520754
0.532875
0.548704
0.56839
0.592028
0.619399
0.649944
0.67863
0.700999
0.717836
0.730772
0.740724
0.747945
0.752101
0.753636
0.753809
0.75355
0.460263
0.461252
0.467706
0.480689
0.499344
0.522008
0.548607
0.578955
0.612651
0.648999
0.68229
0.707883
0.727049
0.741808
0.753219
0.761345
0.765797
0.767298
0.767397
0.767102
0.387201
0.394485
0.409509
0.432513
0.460892
0.492702
0.527775
0.565896
0.606666
0.649387
0.687694
0.716831
0.738628
0.755462
0.768504
0.777559
0.782336
0.783857
0.78394
0.783686
0.308394
0.325589
0.349964
0.383606
0.42214
0.463265
0.506929
0.553078
0.601405
0.651312
0.69573
0.729462
0.754733
0.774303
0.789495
0.799793
0.804859
0.806309
0.806435
0.806339
0.242856
0.263103
0.295268
0.337833
0.385307
0.435221
0.487211
0.541225
0.596957
0.653829
0.704071
0.742107
0.770617
0.792689
0.809673
0.820681
0.825834
0.827556
0.827731
0.827696
0.189163
0.2111
0.248743
0.297724
0.352237
0.409533
0.468879
0.53011
0.592793
0.656285
0.712017
0.754041
0.785449
0.809654
0.828081
0.840192
0.846239
0.84782
0.848047
0.848089
0.144358
0.167458
0.208866
0.262924
0.323139
0.386516
0.452163
0.519788
0.588809
0.658442
0.719301
0.76498
0.799
0.825202
0.845111
0.858113
0.86464
0.866364
0.866682
0.86673
0.106139
0.129919
0.174169
0.232229
0.29721
0.365758
0.436877
0.510169
0.584925
0.660207
0.725785
0.77482
0.811225
0.839152
0.860139
0.873879
0.880804
0.882883
0.883279
0.88334
0.0725083
0.0967548
0.143247
0.204594
0.273577
0.346607
0.422568
0.50095
0.580935
0.661423
0.731383
0.7835
0.822018
0.85129
0.873038
0.887243
0.894555
0.896984
0.897469
0.89753
0.0419909
0.0666519
0.114979
0.179129
0.251558
0.328504
0.408791
0.491798
0.576604
0.661973
0.736074
0.791081
0.831455
0.861791
0.884042
0.898589
0.906182
0.90888
0.909448
0.909503
0.0136572
0.0387057
0.088638
0.155166
0.230631
0.311045
0.395212
0.482444
0.571753
0.661768
0.739876
0.797655
0.839741
0.870994
0.893637
0.908467
0.916281
0.919132
0.919696
0.919719
-0.0132572
0.012217
0.0636441
0.132256
0.21041
0.293928
0.3816
0.472719
0.566255
0.660749
0.742811
0.803329
0.847051
0.879138
0.902175
0.917177
0.925103
0.928035
0.928616
0.928603
-0.0390667
-0.0131577
0.039397
0.110084
0.190648
0.276954
0.36781
0.462509
0.560032
0.658883
0.744896
0.808184
0.853564
0.886506
0.909939
0.925111
0.933073
0.935994
0.936604
0.936588
-0.064151
-0.0376694
0.0159471
0.0884573
0.17118
0.259998
0.353746
0.451749
0.553031
0.65612
0.74612
0.812282
0.859424
0.893315
0.917197
0.932522
0.940495
0.943361
0.943895
0.943837
-0.0885999
-0.0617155
-0.00690249
0.0672369
0.151917
0.242998
0.339366
0.440408
0.545221
0.652421
0.746458
0.815658
0.864738
0.899708
0.9241
0.939571
0.947485
0.950251
0.950689
0.950566
-0.112498
-0.0850921
-0.0292496
0.046372
0.132823
0.225936
0.324665
0.428481
0.536587
0.647745
0.745855
0.81831
0.869572
0.905796
0.930741
0.946291
0.954035
0.956612
0.956936
0.956764
-0.135941
-0.10796
-0.0511201
0.0258615
0.113894
0.208827
0.309673
0.415999
0.527138
0.642056
0.744242
0.820191
0.873968
0.911685
0.937232
0.952762
0.960207
0.962499
0.962706
0.9625
-0.158924
-0.130293
-0.0725197
0.00571693
0.0951757
0.191712
0.294441
0.403011
0.516904
0.635328
0.741547
0.82122
0.877908
0.917475
0.943736
0.959083
0.966009
0.967916
0.967993
0.967765
-0.181277
-0.152039
-0.0933762
-0.0140233
0.0767054
0.174659
0.279034
0.389591
0.505939
0.62758
0.737697
0.821284
0.881315
0.923244
0.95049
0.965479
0.971521
0.972847
0.972777
0.972546
-0.202971
-0.173156
-0.113661
-0.0333001
0.0585431
0.157728
0.263543
0.375816
0.49432
0.618838
0.732642
0.820246
0.88404
0.928978
0.957794
0.972434
0.977043
0.977339
0.977038
0.976857
-0.224071
-0.193604
-0.133345
-0.0520776
0.0407544
0.141004
0.248053
0.361788
0.482137
0.609166
0.72634
0.817956
0.885852
0.934486
0.965855
0.980773
0.983551
0.981843
0.980848
0.980929
-0.244404
-0.213364
-0.152372
-0.0702929
0.0233985
0.124569
0.232658
0.347614
0.469503
0.598662
0.718788
0.814257
0.886451
0.939322
0.974442
0.991339
0.993191
0.988674
0.985385
0.984729
-0.264066
-0.232426
-0.170762
-0.0879772
0.00643876
0.108373
0.217297
0.333232
0.456344
0.587247
0.709852
0.808877
0.885504
0.942845
0.982656
1.00405
1.00813
1.00277
0.993386
0.978102
-0.282986
-0.250785
-0.188637
-0.105333
-0.0104185
0.0920774
0.201547
0.318149
0.442116
0.574273
0.698867
0.801001
0.882366
0.94411
0.988319
1.01578
1.02313
1.01173
0.992443
0.978762
-0.300992
-0.268585
-0.205807
-0.122138
-0.026838
0.0760299
0.185634
0.302694
0.427127
0.560011
0.685945
0.790223
0.87637
0.941982
0.986698
1.01371
1.02469
1.00332
0.934723
0.903459
-0.317426
-0.287066
-0.221946
-0.137841
-0.0420698
0.0607326
0.169865
0.287091
0.411596
0.54459
0.671042
0.776303
0.866297
0.935977
0.973301
0.99334
0.988677
0.93693
0.867591
0.824707
-0.373533
-0.303354
-0.236658
-0.153527
-0.0577004
0.0447338
0.154177
0.271063
0.395161
0.527571
0.653591
0.758739
0.84854
0.925142
0.931254
0.939601
0.897078
0.830014
0.754206
0.711826
-0.335286
-0.319192
-0.258487
-0.174973
-0.0805507
0.0217373
0.130226
0.246454
0.369491
0.500283
0.623966
0.726969
0.808341
0.887517
0.879387
0.772228
0.669977
0.59875
0.526297
0.558563
-0.366627
-0.337228
-0.275594
-0.192852
-0.0984206
0.00366286
0.112416
0.228019
0.349986
0.478916
0.599646
0.698461
0.771651
0.813233
0.767593
0.623916
0.498908
0.409124
0.310933
0.362587
-0.390842
-0.358517
-0.295667
-0.212749
-0.118233
-0.01623
0.0924599
0.207249
0.327814
0.454305
0.571267
0.664259
0.728325
0.737206
0.63432
0.464231
0.313449
0.195834
0.0649231
0.0986072
-0.414563
-0.380688
-0.316682
-0.232912
-0.138258
-0.0363704
0.0718368
0.185687
0.304663
0.428377
0.540734
0.627092
0.675908
0.654111
0.499311
0.305054
0.115851
-0.0518265
-0.241363
-0.258441
-0.437686
-0.40336
-0.338488
-0.253986
-0.159154
-0.0574472
0.0501608
0.162961
0.280108
0.40069
0.507832
0.587002
0.617696
0.560889
0.371064
0.162291
-0.0543365
-0.243736
-0.487074
-0.79216
-0.46111
-0.426779
-0.361383
-0.276421
-0.181385
-0.0798008
0.0272859
0.139013
0.254235
0.371464
0.473188
0.544057
0.555883
0.448652
0.259754
0.0516723
-0.151726
-0.323515
-0.390789
-0.472649
-0.485786
-0.451392
-0.385717
-0.300553
-0.205451
-0.104076
0.00240235
0.112892
0.225885
0.339255
0.435171
0.495646
0.483451
0.342658
0.161159
-0.0276258
-0.188733
-0.280207
-0.303803
-0.320017
-0.512028
-0.477507
-0.411662
-0.32646
-0.23148
-0.130479
-0.0248432
0.0841141
0.194466
0.303338
0.392935
0.440197
0.410599
0.24423
0.071921
-0.0914357
-0.216274
-0.254292
-0.267625
-0.268935
-0.540036
-0.505302
-0.439282
-0.354135
-0.259416
-0.159012
-0.054463
0.0526348
0.159917
0.263701
0.346141
0.379664
0.332375
0.152831
-0.0102517
-0.156059
-0.231281
-0.247934
-0.249472
-0.249361
-0.569876
-0.534838
-0.4686
-0.383573
-0.28927
-0.189652
-0.0864509
0.0184485
0.122247
0.220403
0.294743
0.316572
0.234332
0.0688317
-0.086345
-0.205689
-0.240397
-0.239871
-0.239598
-0.239097
-0.601265
-0.565942
-0.49951
-0.414682
-0.320945
-0.222337
-0.120763
-0.0184064
0.0815001
0.173534
0.239426
0.244743
0.142691
-0.00964526
-0.146767
-0.221005
-0.230851
-0.233166
-0.233746
-0.233524
-0.633655
-0.598165
-0.531757
-0.44723
-0.354246
-0.256894
-0.157229
-0.0577784
0.0378742
0.123407
0.180699
0.169421
0.0583396
-0.0766629
-0.191965
-0.221292
-0.230234
-0.231532
-0.231051
-0.230593
-0.666598
-0.630977
-0.564897
-0.480821
-0.388818
-0.292986
-0.195547
-0.0993499
-0.00831833
0.070683
0.117733
0.0958658
-0.0245296
-0.133243
-0.220158
-0.242616
-0.232292
-0.231074
-0.231078
-0.230697
-0.699217
-0.66368
-0.598072
-0.514852
-0.424109
-0.33012
-0.235241
-0.142594
-0.0565699
0.0160832
0.0530078
0.0262564
-0.106207
-0.185381
-0.213758
-0.229825
-0.233301
-0.232541
-0.232211
-0.232225
-0.729966
-0.695104
-0.630332
-0.54841
-0.459339
-0.367572
-0.275622
-0.186762
-0.106006
-0.0396313
-0.00801825
-0.0497376
-0.185886
-0.264887
-0.227699
-0.250383
-0.246671
-0.237963
-0.234859
-0.234093
-0.757299
-0.723492
-0.660551
-0.580322
-0.493463
-0.40438
-0.315769
-0.230937
-0.15531
-0.0953881
-0.065569
-0.123138
-0.264464
-0.411689
-0.382992
-0.331149
-0.287357
-0.263897
-0.253407
-0.249701
-0.779166
-0.747025
-0.686779
-0.609189
-0.525188
-0.439368
-0.354529
-0.273998
-0.203094
-0.149417
-0.12159
-0.176439
-0.299318
-0.587004
-0.691304
-0.466571
-0.358454
-0.321682
-0.303845
-0.295326
-0.793377
-0.763855
-0.707096
-0.633185
-0.553002
-0.471171
-0.390612
-0.314625
-0.248108
-0.199189
-0.171879
-0.18376
-0.203611
-0.280537
-0.379102
-0.34458
-0.351211
-0.351413
-0.346475
-0.345333
-0.797353
-0.771796
-0.719649
-0.650498
-0.575198
-0.498336
-0.422619
-0.351446
-0.288995
-0.243477
-0.207961
-0.153937
0.0375342
0.302235
0.107798
-0.168746
-0.30866
-0.343454
-0.354625
-0.357797
-0.789232
-0.768464
-0.722352
-0.659524
-0.590261
-0.519252
-0.449102
-0.383015
-0.325167
-0.282961
-0.234412
-0.194437
-0.0560609
0.127889
-0.0757013
-0.299675
-0.419432
-0.456347
-0.465555
-0.470154
-0.766687
-0.750705
-0.713421
-0.659042
-0.597123
-0.532782
-0.468635
-0.407829
-0.355703
-0.318399
-0.285663
-0.414542
-0.638429
-0.802807
-0.763122
-0.71445
-0.722437
-0.71062
-0.698679
-0.697754
-0.731747
-0.721212
-0.693263
-0.649079
-0.595593
-0.538391
-0.480116
-0.424339
-0.376795
-0.347402
-0.350313
-0.623114
-1.02766
-1.27056
-1.07519
-1.03348
-0.987227
-0.895202
-0.83733
-0.846113
-0.690318
-0.684316
-0.666312
-0.632081
-0.587224
-0.536395
-0.483097
-0.430236
-0.383809
-0.354301
-0.361046
-0.557949
-0.961881
-1.55827
-1.96916
-2.13273
-2.02177
-1.717
-1.42457
-1.31946
-0.65118
-0.647732
-0.638308
-0.613128
-0.574836
-0.528639
-0.478006
-0.425207
-0.374283
-0.333946
-0.342872
-0.44669
-0.697459
-0.953122
-1.12234
-1.20982
-1.21374
-1.07173
-0.900988
-0.812269
-0.621329
-0.619248
-0.614587
-0.596877
-0.563283
-0.518578
-0.467472
-0.41055
-0.351735
-0.295829
-0.256271
-0.22673
-0.096187
0.160353
0.453639
0.720968
0.923258
1.0565
1.1412
1.18169
-0.596873
-0.596066
-0.594829
-0.584858
-0.555491
-0.510199
-0.454969
-0.391389
-0.321137
-0.242157
-0.157979
-0.0474081
0.224417
0.66861
1.13267
1.54601
1.831
1.99897
2.08079
2.10516
-0.581361
-0.580792
-0.58045
-0.575753
-0.551172
-0.504305
-0.443074
-0.371298
-0.28771
-0.194935
-0.0886166
0.0267336
0.334547
0.795069
1.27943
1.71358
2.03205
2.21961
2.30576
2.33073
-0.571542
-0.571119
-0.570715
-0.56962
-0.550222
-0.50188
-0.433904
-0.354138
-0.262368
-0.160391
-0.0531593
0.0469434
0.28828
0.720861
1.16299
1.55566
1.84761
2.0162
2.09181
2.11327
-0.566241
-0.564897
-0.56305
-0.564025
-0.552274
-0.50312
-0.428077
-0.340661
-0.244977
-0.140224
-0.0383548
0.0644852
0.221274
0.592996
0.956956
1.26349
1.49419
1.62656
1.68682
1.70405
-0.574595
-0.572515
-0.571678
-0.574766
-0.564012
-0.50729
-0.422154
-0.327011
-0.228649
-0.123791
-0.0250014
0.0708959
0.194902
0.462476
0.742683
0.965496
1.13529
1.2355
1.28088
1.29299
-0.595596
-0.596627
-0.60357
-0.606635
-0.585483
-0.508795
-0.408752
-0.307741
-0.209781
-0.109453
-0.0174468
0.067523
0.15241
0.327414
0.534003
0.70023
0.826853
0.900758
0.933506
0.941771
-0.589131
-0.598137
-0.610682
-0.611287
-0.573419
-0.48173
-0.37628
-0.277844
-0.186926
-0.0973156
-0.0149744
0.0586735
0.128479
0.247989
0.391711
0.509315
0.59973
0.653871
0.677787
0.681403
-0.482096
-0.49185
-0.503641
-0.501882
-0.466576
-0.392814
-0.310887
-0.231379
-0.156908
-0.0826773
-0.0119916
0.0495351
0.109713
0.179468
0.277716
0.361253
0.424224
0.461408
0.475687
0.476804
-0.289642
-0.295537
-0.303267
-0.305404
-0.290333
-0.257251
-0.215337
-0.168615
-0.118622
-0.0637031
-0.0106389
0.0365261
0.0811958
0.122269
0.184145
0.243868
0.288862
0.316262
0.327893
0.32805
-0.100587
-0.103523
-0.109859
-0.118919
-0.126263
-0.127441
-0.119987
-0.103702
-0.0788863
-0.0456815
-0.0106751
0.0224719
0.0516255
0.0734186
0.113277
0.154314
0.184476
0.202023
0.207545
0.206667
0.0253967
0.0238249
0.0179747
0.00457199
-0.0152208
-0.0341875
-0.0466717
-0.0502497
-0.0439426
-0.0285198
-0.00961242
0.00804212
0.0210925
0.0326417
0.0559934
0.0830932
0.103276
0.113566
0.116478
0.115107
0.0848313
0.0837236
0.0784897
0.0652129
0.0439527
0.0207772
0.00108519
-0.0119537
-0.0170192
-0.0145854
-0.00963317
-0.00679917
-0.00714874
-0.00104211
0.0163684
0.0332065
0.0441833
0.0483593
0.0492399
0.0480265
0.102538
0.101668
0.0975475
0.0868982
0.0693055
0.0487619
0.0290716
0.0129926
0.00210361
-0.00385392
-0.00887958
-0.0165689
-0.0254016
-0.0230584
-0.0104535
0.000304697
0.00539045
0.00634582
0.00576757
0.00487248
0.100337
0.099723
0.0968159
0.089178
0.0761715
0.0600344
0.0432948
0.028074
0.0155752
0.00537814
-0.0055003
-0.0191822
-0.0317974
-0.029223
-0.0199549
-0.0147928
-0.0135834
-0.0148876
-0.0158465
-0.016485
0.0903836
0.0899838
0.0880853
0.0830017
0.0740381
0.0623491
0.0494056
0.0366497
0.0249483
0.0140023
0.00161296
-0.0140397
-0.0266908
-0.0224617
-0.0154699
-0.0132744
-0.0148794
-0.0172405
-0.0183171
-0.0188412
0.0784313
0.0781802
0.0770206
0.073871
0.0681006
0.0601884
0.0509585
0.0414076
0.0320762
0.0229781
0.0126297
0.000258417
-0.00813058
-0.00234408
0.00144937
0.000737155
-0.00221752
-0.00470945
-0.00564219
-0.00610718
0.0670051
0.0668424
0.0661849
0.0644104
0.061031
0.0561484
0.0501843
0.0438431
0.037716
0.0322103
0.0272179
0.0220798
0.0205787
0.0264705
0.0274827
0.0243097
0.0208093
0.018734
0.0179887
0.0175072
0.0571007
0.0570056
0.0566767
0.0558263
0.0541033
0.0514454
0.0481282
0.0446698
0.0418556
0.0408156
0.0429054
0.0469124
0.0520291
0.0573779
0.055994
0.0521287
0.0491279
0.0479288
0.0475017
0.0469491
0.0488186
0.0487565
0.0486347
0.0483614
0.0477138
0.0466042
0.045215
0.0440695
0.044211
0.0475811
0.0567166
0.0706183
0.0844647
0.0884924
0.0837603
0.0792259
0.0775536
0.0775789
0.0773217
0.0765236
0.0417506
0.0417194
0.0417044
0.0417368
0.0417296
0.0415793
0.0414659
0.0419599
0.0441966
0.0507247
0.0650104
0.0861686
0.105557
0.106596
0.100401
0.0974309
0.0975069
0.0990531
0.0990575
0.0981218
0.0353792
0.0353701
0.035412
0.0355669
0.0358182
0.0361472
0.0367514
0.0381397
0.0414181
0.0490984
0.0649327
0.08788
0.107762
0.108222
0.104383
0.104669
0.106677
0.108991
0.108905
0.107835
0.0291445
0.0291533
0.0292239
0.0293979
0.0297471
0.0302185
0.0310362
0.0326258
0.035872
0.0427447
0.0558547
0.0750132
0.0909592
0.090952
0.0895711
0.0937504
0.100257
0.10403
0.103882
0.102719
0.0226838
0.0226896
0.0227441
0.0228572
0.0231468
0.0236698
0.0244548
0.0258014
0.0282575
0.0328068
0.0401694
0.0490992
0.0557058
0.0558559
0.0614794
0.0711256
0.079651
0.0832306
0.0832184
0.0822353
0.015916
0.0159069
0.0159291
0.0159856
0.0162111
0.0166129
0.0171571
0.0180367
0.0194539
0.0214646
0.0218605
0.0173313
0.00939568
0.0131513
0.0272976
0.0417565
0.0507812
0.0539816
0.0538022
0.0530751
0.00887747
0.00885036
0.00887536
0.00891011
0.00897906
0.00920026
0.00950255
0.0100836
0.010807
0.0108489
0.00686358
-0.009329
-0.0231182
-0.0169836
0.000690922
0.0158129
0.0225277
0.0240821
0.0237739
0.023303
0.00193873
0.00189586
0.00186815
0.00186596
0.0018254
0.00170523
0.001714
0.00198842
0.00212876
0.00245011
0.00226109
-0.00146868
-0.00916359
-0.00839776
-0.00501825
-0.00262522
-0.00399467
-0.0039207
-0.000657685
0.00103288
-0.0102378
0.158719
0.35637
0.528486
0.666519
0.775863
0.8666
0.943559
0.978213
0.954905
0.297404
0.419603
0.551055
0.664884
0.761053
0.840828
0.905396
0.951138
0.974046
0.986062
0.519283
0.603146
0.69298
0.772516
0.840985
0.898275
0.943805
0.977042
1.00102
1.01896
0.681928
0.741757
0.80451
0.862248
0.91255
0.955253
0.990303
1.01824
1.0412
1.05948
0.808699
0.852356
0.898804
0.943063
0.982171
1.01631
1.04551
1.0698
1.0903
1.10812
0.913822
0.947029
0.985461
1.02131
1.0542
1.08367
1.1094
1.13103
1.14895
1.16629
1.00689
1.03577
1.06996
1.10229
1.13241
1.15972
1.18358
1.20339
1.21895
1.23602
1.09579
1.12512
1.15926
1.19143
1.22114
1.24782
1.27076
1.2893
1.30271
1.31975
1.1913
1.22459
1.26132
1.29497
1.32509
1.35133
1.37333
1.39065
1.40255
1.41995
1.30642
1.3443
1.383
1.41729
1.44668
1.47146
1.49187
1.50778
1.51927
1.53734
1.45143
1.49001
1.52619
1.55691
1.58261
1.60473
1.62381
1.63935
1.65179
1.66979
1.62657
1.6582
1.68441
1.70687
1.72687
1.7456
1.76333
1.77982
1.79518
1.81325
1.81522
1.83242
1.84747
1.86371
1.87963
1.89417
1.90738
1.92132
1.93886
1.95902
1.99694
2.00649
2.01804
2.02885
2.03814
2.04773
2.05852
2.06989
2.08126
2.09662
2.20421
2.20787
2.19292
2.17811
2.17184
2.17752
2.196
2.22632
2.25849
2.28515
2.51052
2.37565
2.29902
2.25666
2.23923
2.2432
2.27059
2.32701
2.42963
2.654
0.804547
0.802416
0.797931
0.789302
0.777072
0.764935
0.754695
0.746781
0.741137
0.737847
0.737447
0.74014
0.745208
0.752402
0.761768
0.773293
0.785934
0.796962
0.80307
0.806121
0.72901
0.734856
0.74119
0.745676
0.748139
0.747805
0.745054
0.741224
0.737686
0.735388
0.735193
0.737342
0.740965
0.745223
0.749008
0.750874
0.749926
0.746435
0.741266
0.734644
0.720607
0.722903
0.726303
0.729292
0.731359
0.732844
0.733582
0.733244
0.732189
0.731264
0.731385
0.732758
0.734528
0.735799
0.735951
0.735041
0.733476
0.731129
0.727857
0.724933
0.715123
0.716209
0.718038
0.720409
0.722423
0.723837
0.724838
0.725564
0.72593
0.726104
0.726534
0.727279
0.727825
0.727849
0.727403
0.726528
0.725039
0.72294
0.720843
0.719456
0.709956
0.710619
0.711723
0.71342
0.71519
0.716805
0.718079
0.719065
0.719905
0.72064
0.721298
0.721774
0.721904
0.721685
0.721077
0.719989
0.718535
0.716971
0.71564
0.714856
0.705027
0.705488
0.70627
0.707559
0.709032
0.71053
0.71197
0.713234
0.714321
0.71531
0.716139
0.716616
0.716682
0.716343
0.715592
0.714559
0.7134
0.712242
0.71131
0.71079
0.700257
0.700602
0.701209
0.702268
0.703546
0.704899
0.706308
0.707714
0.709031
0.710232
0.711238
0.711817
0.711896
0.711537
0.71087
0.710037
0.709141
0.708241
0.707549
0.707167
0.695594
0.695863
0.696352
0.697251
0.698403
0.699676
0.701037
0.70248
0.703955
0.705381
0.706603
0.707333
0.70751
0.707283
0.706802
0.70617
0.705463
0.70478
0.704264
0.703973
0.690961
0.691174
0.691581
0.692369
0.69344
0.694662
0.696008
0.697489
0.699082
0.700725
0.702204
0.703161
0.703543
0.703528
0.703252
0.702818
0.7023
0.701796
0.701415
0.701187
0.686276
0.686447
0.686795
0.68751
0.688535
0.689731
0.691099
0.692651
0.694381
0.696252
0.698037
0.699309
0.699976
0.700214
0.700161
0.699929
0.699598
0.699251
0.698981
0.698799
0.681456
0.681595
0.6819
0.68257
0.683577
0.684794
0.68622
0.687885
0.689804
0.691951
0.69411
0.695779
0.69679
0.697318
0.697512
0.69749
0.69734
0.697141
0.696963
0.696817
0.676421
0.676531
0.676808
0.67746
0.678485
0.679768
0.681299
0.683132
0.685308
0.687817
0.690443
0.692584
0.693992
0.69485
0.695317
0.695518
0.695549
0.695491
0.695392
0.695274
0.671086
0.671173
0.671433
0.67209
0.673168
0.674559
0.676248
0.678314
0.680824
0.683793
0.686996
0.689708
0.691585
0.692823
0.693596
0.69405
0.694276
0.694352
0.694322
0.694227
0.665356
0.665421
0.665674
0.666357
0.667525
0.669069
0.670977
0.673353
0.676287
0.679838
0.683751
0.68715
0.689588
0.691272
0.692397
0.693132
0.693568
0.693785
0.693821
0.693745
0.659116
0.659161
0.659412
0.660143
0.66144
0.663192
0.665387
0.668156
0.671623
0.67588
0.680661
0.684908
0.688031
0.69025
0.691784
0.692832
0.693518
0.693884
0.693985
0.693927
0.652229
0.652252
0.652507
0.65331
0.65478
0.656802
0.659371
0.662652
0.666807
0.671961
0.677809
0.683066
0.686993
0.689841
0.691853
0.693265
0.694232
0.69476
0.694927
0.694884
0.644523
0.644534
0.644791
0.645681
0.647376
0.649731
0.652775
0.6567
0.661714
0.667978
0.675132
0.681615
0.686502
0.690097
0.692692
0.694551
0.695834
0.696541
0.696778
0.696748
0.635703
0.63568
0.635991
0.637019
0.638986
0.641774
0.645427
0.650167
0.65625
0.663885
0.672635
0.680592
0.68664
0.691125
0.694408
0.696811
0.698465
0.699379
0.699691
0.699673
0.625506
0.625458
0.625811
0.627018
0.629333
0.632677
0.637101
0.642873
0.650311
0.659645
0.67034
0.680084
0.687502
0.693046
0.69715
0.700188
0.702287
0.703436
0.703829
0.70382
0.613452
0.613375
0.613805
0.615254
0.618029
0.622103
0.627538
0.634656
0.64383
0.655305
0.66836
0.680193
0.689217
0.696005
0.701078
0.704849
0.707469
0.708886
0.709362
0.70936
0.598925
0.598819
0.599366
0.60114
0.604525
0.609568
0.616333
0.625195
0.636559
0.650653
0.666559
0.680899
0.691817
0.700062
0.706295
0.710949
0.714179
0.715896
0.716456
0.716452
0.580975
0.580843
0.58158
0.583842
0.588095
0.594503
0.603112
0.614339
0.628584
0.645981
0.66528
0.682465
0.69551
0.705396
0.712944
0.718608
0.722526
0.724564
0.725198
0.725182
0.558139
0.557992
0.559061
0.562099
0.567683
0.576109
0.58734
0.601782
0.61973
0.641153
0.664436
0.684897
0.70034
0.712067
0.721058
0.727859
0.732521
0.734877
0.735565
0.735526
0.528066
0.527944
0.529627
0.534034
0.541874
0.553476
0.568591
0.587481
0.610212
0.636519
0.664371
0.688417
0.706438
0.720128
0.730681
0.738696
0.744091
0.746716
0.747419
0.747346
0.486616
0.486661
0.489712
0.496995
0.509038
0.525873
0.546767
0.571664
0.600357
0.632375
0.665297
0.693178
0.713892
0.729624
0.741791
0.751041
0.757065
0.759829
0.760493
0.760378
0.426104
0.427301
0.434815
0.448492
0.468244
0.493394
0.522421
0.554969
0.590731
0.629137
0.667463
0.699287
0.722715
0.740452
0.754228
0.764587
0.77108
0.773799
0.774308
0.774152
0.353854
0.355659
0.370051
0.393687
0.424275
0.459238
0.497177
0.537951
0.58137
0.626928
0.67165
0.708497
0.73561
0.756179
0.772023
0.783787
0.7909
0.793702
0.794269
0.794231
0.27917
0.285401
0.306667
0.340469
0.381346
0.425867
0.472701
0.521761
0.57294
0.625791
0.677122
0.719222
0.750185
0.773787
0.79209
0.805445
0.813019
0.815489
0.815865
0.815919
0.2182
0.226683
0.252584
0.293404
0.342246
0.394898
0.449744
0.50655
0.565129
0.624988
0.682639
0.729663
0.764178
0.790462
0.810748
0.82531
0.83309
0.835862
0.836672
0.836797
0.168534
0.177603
0.207056
0.253081
0.308021
0.367229
0.428822
0.49246
0.557779
0.624173
0.687761
0.739378
0.77711
0.805758
0.827832
0.843592
0.852301
0.855693
0.856686
0.856832
0.12681
0.136155
0.168052
0.218046
0.277973
0.342618
0.409929
0.479523
0.550876
0.62325
0.692342
0.748188
0.78886
0.819684
0.84339
0.860168
0.869649
0.873499
0.874669
0.874819
0.0906564
0.100121
0.13386
0.187038
0.251053
0.32031
0.392605
0.467461
0.544248
0.622089
0.69625
0.755994
0.799347
0.832054
0.856985
0.874542
0.884704
0.888957
0.890204
0.890361
0.0584274
0.0679458
0.103097
0.158959
0.226393
0.299611
0.376299
0.455875
0.537613
0.620494
0.699391
0.762776
0.808563
0.842827
0.868605
0.886664
0.897318
0.901914
0.903265
0.903438
0.0288676
0.0384485
0.0747544
0.132929
0.203313
0.279989
0.360576
0.444418
0.530703
0.618313
0.701716
0.768582
0.816625
0.852242
0.878703
0.897151
0.908068
0.912941
0.914387
0.91456
0.00115072
0.0107936
0.0481484
0.108302
0.181311
0.261052
0.345122
0.432837
0.523339
0.615427
0.703201
0.773474
0.823689
0.860531
0.887588
0.906338
0.917438
0.922486
0.92394
0.924106
-0.025262
-0.0155273
0.0227982
0.0846443
0.160035
0.242516
0.329726
0.420979
0.515399
0.61176
0.703833
0.777513
0.829879
0.867916
0.895548
0.914578
0.925807
0.930889
0.932345
0.932438
-0.0508115
-0.0408967
-0.00171652
0.0617573
0.139253
0.224197
0.31425
0.408734
0.506811
0.607264
0.703586
0.780733
0.835321
0.874614
0.902869
0.922177
0.933509
0.938565
0.939975
0.94005
-0.0756938
-0.0655433
-0.0256032
0.0394535
0.118838
0.205991
0.298613
0.396052
0.497528
0.601894
0.702429
0.783143
0.8401
0.880778
0.909751
0.929364
0.940766
0.945755
0.947073
0.94713
-0.0999709
-0.0896034
-0.0488465
0.0175912
0.0987007
0.187856
0.282786
0.382912
0.487534
0.595613
0.70031
0.784734
0.844268
0.886518
0.916309
0.936229
0.947627
0.952472
0.953666
0.953665
-0.123765
-0.113094
-0.0715818
-0.00383745
0.0788256
0.169773
0.266774
0.369329
0.476839
0.588409
0.697176
0.78545
0.847841
0.891923
0.922655
0.942847
0.954134
0.958746
0.959757
0.959692
-0.147011
-0.136057
-0.093806
-0.0248481
0.0592267
0.151774
0.250622
0.355346
0.465473
0.580275
0.692972
0.785212
0.850789
0.897055
0.928918
0.94934
0.960327
0.96455
0.96535
0.965232
-0.16974
-0.158482
-0.115455
-0.0454121
0.0399369
0.133901
0.234378
0.341032
0.453492
0.571232
0.687657
0.78393
0.853025
0.901933
0.935258
0.955892
0.966316
0.96992
0.970449
0.970281
-0.191772
-0.180281
-0.136502
-0.0654713
0.0210115
0.116227
0.218113
0.326458
0.440969
0.561335
0.681209
0.781506
0.85442
0.906504
0.941841
0.962847
0.972357
0.974912
0.975028
0.974818
-0.21324
-0.201407
-0.156923
-0.0849955
0.0024884
0.0987974
0.201921
0.311706
0.427993
0.550665
0.673638
0.777836
0.854796
0.910598
0.948733
0.970716
0.979114
0.979888
0.979124
0.97884
-0.233978
-0.221832
-0.176685
-0.103936
-0.0155502
0.0816974
0.185883
0.296896
0.414672
0.539287
0.664991
0.772828
0.853939
0.913903
0.95573
0.979958
0.987911
0.986261
0.983332
0.982125
-0.254045
-0.241602
-0.195735
-0.122241
-0.0330668
0.0649962
0.170083
0.282107
0.401115
0.527339
0.655344
0.766402
0.851638
0.915982
0.962164
0.990323
1.00015
0.997441
0.990463
0.981304
-0.273361
-0.260675
-0.214173
-0.140069
-0.0502766
0.0484079
0.154174
0.266924
0.386858
0.5143
0.644143
0.757959
0.847328
0.91631
0.967064
1.00062
1.01573
1.01476
1.0045
0.997447
-0.291879
-0.278978
-0.231992
-0.157387
-0.0671774
0.0319321
0.138172
0.25133
0.37186
0.500058
0.631209
0.747146
0.840296
0.914104
0.968179
1.0057
1.02347
1.02755
0.990081
0.937508
-0.309316
-0.295729