/*--------------------------------*- C++ -*----------------------------------*\
| =========                 |                                                 |
| \\      /  F ield         | OpenFOAM: The Open Source CFD Toolbox           |
|  \\    /   O peration     | Version:  4.0                                   |
|   \\  /    A nd           | Web:      www.OpenFOAM.org                      |
|    \\/     M anipulation  |                                                 |
\*---------------------------------------------------------------------------*/
FoamFile
{
    version     2.0;
    format      ascii;
    class       volScalarField;
    location    "0.007";
    object      mag(U);
}
// * * * * * * * * * * * * * * * * * * * * * * * * * * * * * * * * * * * * * //

dimensions      [0 1 -1 0 0 0 0];

internalField   nonuniform List<scalar> 
100
(
6.01519e-09
2.72486e-08
9.93113e-08
3.5706e-07
1.24975e-06
4.2566e-06
1.40935e-05
4.53138e-05
0.000141318
0.000426939
0.00124775
0.0035221
0.00958572
0.0251034
0.0631149
0.15194
0.349162
0.763334
1.58166
3.08973
5.62768
9.40706
14.4421
20.6685
27.958
36.1145
44.9306
54.2264
63.8628
73.7382
83.7806
93.9371
104.169
114.443
124.741
135.019
145.302
155.48
165.656
175.687
185.589
195.415
204.995
214.364
223.529
232.363
240.823
248.906
256.509
263.508
269.895
275.579
280.555
284.602
287.588
289.945
291.556
292.539
293.121
293.226
293.201
293.208
293.228
293.282
293.378
293.507
293.717
294.002
293.969
293.56
293.253
293.167
293.231
293.338
293.406
293.368
293.204
292.985
292.75
292.446
292.076
291.693
291.223
290.422
289.135
286.936
282.316
271.199
240.725
154.77
43.3399
7.20203
1.09837
0.16242
0.0239478
0.00353547
0.000522511
7.72385e-05
1.14553e-05
1.5085e-06
)
;

boundaryField
{
    sides
    {
        type            calculated;
        value           nonuniform List<scalar> 2(1.5085e-06 6.01519e-09);
    }
    empty
    {
        type            empty;
    }
}


// ************************************************************************* //
