/*--------------------------------*- C++ -*----------------------------------*\
| =========                 |                                                 |
| \\      /  F ield         | OpenFOAM: The Open Source CFD Toolbox           |
|  \\    /   O peration     | Version:  4.0                                   |
|   \\  /    A nd           | Web:      www.OpenFOAM.org                      |
|    \\/     M anipulation  |                                                 |
\*---------------------------------------------------------------------------*/
FoamFile
{
    version     2.0;
    format      ascii;
    class       volScalarField;
    location    "0.007";
    object      p;
}
// * * * * * * * * * * * * * * * * * * * * * * * * * * * * * * * * * * * * * //

dimensions      [1 -1 -2 0 0 0 0];

internalField   nonuniform List<scalar> 
100
(
100000
100000
100000
100000
100000
100000
100000
100000
99999.9
99999.8
99999.6
99998.7
99996.5
99990.9
99977.1
99944.8
99872.7
99720.9
99420
98863.5
97916.9
96502.9
94661.8
92432.3
89885
87112.8
84205
81234.6
78254.6
75301.6
72399.6
69564.7
66807.2
64133.8
61550.3
59055.9
56662.3
54350.8
52157.2
50037.2
48031.8
46121.9
44303.8
42591.1
40982.2
39476.8
38078
36784.5
35600.7
34540.9
33604.4
32783.6
32090.6
31522.8
31059.6
30793
30546.6
30433.6
30363.9
30311.5
30311.8
30311.7
30309.1
30311.1
30311.4
30314.3
30319.7
30320.7
30280.1
30264.9
30266.8
30277.4
30274.9
30265.4
30264.7
30266.1
30259
30251.5
30249.7
30217.7
30196.5
30191.8
30188.8
30106.3
30000
29821.8
29477.6
28667.8
26307.5
18087.7
11620.1
10277.1
10041.6
10006.1
10000.9
10000.1
10000
10000
10000
10000
)
;

boundaryField
{
    sides
    {
        type            zeroGradient;
    }
    empty
    {
        type            empty;
    }
}


// ************************************************************************* //
