/*--------------------------------*- C++ -*----------------------------------*\
| =========                 |                                                 |
| \\      /  F ield         | OpenFOAM: The Open Source CFD Toolbox           |
|  \\    /   O peration     | Version:  4.0                                   |
|   \\  /    A nd           | Web:      www.OpenFOAM.org                      |
|    \\/     M anipulation  |                                                 |
\*---------------------------------------------------------------------------*/
FoamFile
{
    version     2.0;
    format      ascii;
    class       surfaceScalarField;
    location    "0.007";
    object      phi;
}
// * * * * * * * * * * * * * * * * * * * * * * * * * * * * * * * * * * * * * //

dimensions      [1 0 -1 0 0 0 0];

internalField   nonuniform List<scalar> 
99
(
5.98053e-08
2.24964e-07
8.14814e-07
2.87945e-06
9.90544e-06
3.31403e-05
0.000107725
0.000339836
0.00103919
0.00307619
0.00880203
0.0243046
0.0646435
0.165262
0.40511
0.949507
2.12089
4.49798
9.0239
17.0224
29.8512
47.3838
68.9567
93.9003
121.145
149.585
178.278
206.529
233.87
260.004
284.753
308.02
329.757
349.942
368.617
385.682
401.52
415.424
428.496
440.2
449.507
459.237
467.608
472.988
478.344
484.656
488.967
490.241
491.204
493.952
497.057
497.538
496.278
493.79
493.704
495.32
495.531
495.665
493.917
491.862
490.877
490.866
492.137
494.681
495.925
495.787
491.963
470.056
418.963
378.002
349.739
330.955
318.976
312.358
309.333
308.042
307.829
308.98
310.35
310.649
311.222
311.853
311.24
308.504
307.018
305.235
298.825
276.787
225.237
55.7985
11.3066
1.7449
0.2579
0.0379644
0.00559753
0.000826665
0.00012219
1.80699e-05
2.65123e-06
)
;

boundaryField
{
    sides
    {
        type            calculated;
        value           nonuniform List<scalar> 2(6.77049e-07 -2.25128e-08);
    }
    empty
    {
        type            empty;
        value           nonuniform 0();
    }
}


// ************************************************************************* //
