/*--------------------------------*- C++ -*----------------------------------*\
| =========                 |                                                 |
| \\      /  F ield         | OpenFOAM: The Open Source CFD Toolbox           |
|  \\    /   O peration     | Version:  4.0                                   |
|   \\  /    A nd           | Web:      www.OpenFOAM.org                      |
|    \\/     M anipulation  |                                                 |
\*---------------------------------------------------------------------------*/
FoamFile
{
    version     2.0;
    format      ascii;
    class       volScalarField;
    location    "0.007";
    object      T;
}
// * * * * * * * * * * * * * * * * * * * * * * * * * * * * * * * * * * * * * //

dimensions      [0 0 0 1 0 0 0];

internalField   nonuniform List<scalar> 
100
(
348.432
348.432
348.432
348.432
348.432
348.432
348.432
348.432
348.432
348.432
348.432
348.431
348.429
348.423
348.409
348.377
348.305
348.153
347.853
347.295
346.341
344.905
343.013
340.688
337.982
334.975
331.746
328.366
324.885
321.342
317.764
314.168
310.571
306.978
303.421
299.819
296.487
292.547
290.048
285.411
283.048
280.052
275.714
273.152
271.272
267.751
263.995
262.004
260.932
258.848
255.673
253.227
252.455
252.474
252.213
251.063
249.843
249.603
249.846
250.746
251.596
251.777
251.49
250.401
249.53
249.314
250.002
255.972
278.578
311.959
341.843
365.44
382.216
392.961
398.876
401.353
401.821
401.222
399.204
397.437
396.54
396.253
396.31
396.236
396.033
395.397
393.578
389.936
381.349
343.011
292.261
280.983
279.079
278.795
278.753
278.747
278.746
278.746
278.746
278.746
)
;

boundaryField
{
    sides
    {
        type            zeroGradient;
    }
    empty
    {
        type            empty;
    }
}


// ************************************************************************* //
