/*--------------------------------*- C++ -*----------------------------------*\
| =========                 |                                                 |
| \\      /  F ield         | OpenFOAM: The Open Source CFD Toolbox           |
|  \\    /   O peration     | Version:  4.0                                   |
|   \\  /    A nd           | Web:      www.OpenFOAM.org                      |
|    \\/     M anipulation  |                                                 |
\*---------------------------------------------------------------------------*/
FoamFile
{
    version     2.0;
    format      ascii;
    class       volVectorField;
    location    "0.007";
    object      U;
}
// * * * * * * * * * * * * * * * * * * * * * * * * * * * * * * * * * * * * * //

dimensions      [0 1 -1 0 0 0 0];

internalField   nonuniform List<vector> 
100
(
(6.01519e-09 0 0)
(2.72486e-08 0 0)
(9.93113e-08 0 0)
(3.5706e-07 0 0)
(1.24975e-06 0 0)
(4.2566e-06 0 0)
(1.40935e-05 0 0)
(4.53138e-05 0 0)
(0.000141318 0 0)
(0.000426939 0 0)
(0.00124775 0 0)
(0.0035221 0 0)
(0.00958572 0 0)
(0.0251034 0 0)
(0.0631149 0 0)
(0.15194 0 0)
(0.349162 0 0)
(0.763334 0 0)
(1.58166 0 0)
(3.08973 0 0)
(5.62768 0 0)
(9.40706 0 0)
(14.4421 0 0)
(20.6685 0 0)
(27.958 0 0)
(36.1145 0 0)
(44.9306 0 0)
(54.2264 0 0)
(63.8628 0 0)
(73.7382 0 0)
(83.7806 0 0)
(93.9371 0 0)
(104.169 0 0)
(114.443 0 0)
(124.741 0 0)
(135.019 0 0)
(145.302 0 0)
(155.48 0 0)
(165.656 0 0)
(175.687 0 0)
(185.589 0 0)
(195.415 0 0)
(204.995 0 0)
(214.364 0 0)
(223.529 0 0)
(232.363 0 0)
(240.823 0 0)
(248.906 0 0)
(256.509 0 0)
(263.508 0 0)
(269.895 0 0)
(275.579 0 0)
(280.555 0 0)
(284.602 0 0)
(287.588 0 0)
(289.945 0 0)
(291.556 0 0)
(292.539 0 0)
(293.121 0 0)
(293.226 0 0)
(293.201 0 0)
(293.208 0 0)
(293.228 0 0)
(293.282 0 0)
(293.378 0 0)
(293.507 0 0)
(293.717 0 0)
(294.002 0 0)
(293.969 0 0)
(293.56 0 0)
(293.253 0 0)
(293.167 0 0)
(293.231 0 0)
(293.338 0 0)
(293.406 0 0)
(293.368 0 0)
(293.204 0 0)
(292.985 0 0)
(292.75 0 0)
(292.446 0 0)
(292.076 0 0)
(291.693 0 0)
(291.223 0 0)
(290.422 0 0)
(289.135 0 0)
(286.936 0 0)
(282.316 0 0)
(271.199 0 0)
(240.725 0 0)
(154.77 0 0)
(43.3399 0 0)
(7.20203 0 0)
(1.09837 0 0)
(0.16242 0 0)
(0.0239478 0 0)
(0.00353547 0 0)
(0.000522511 0 0)
(7.72385e-05 0 0)
(1.14553e-05 0 0)
(1.5085e-06 0 0)
)
;

boundaryField
{
    sides
    {
        type            zeroGradient;
    }
    empty
    {
        type            empty;
    }
}


// ************************************************************************* //
