/*--------------------------------*- C++ -*----------------------------------*\
| =========                 |                                                 |
| \\      /  F ield         | OpenFOAM: The Open Source CFD Toolbox           |
|  \\    /   O peration     | Version:  4.0                                   |
|   \\  /    A nd           | Web:      www.OpenFOAM.org                      |
|    \\/     M anipulation  |                                                 |
\*---------------------------------------------------------------------------*/
FoamFile
{
    version     2.0;
    format      ascii;
    class       volScalarField;
    location    "63";
    object      p;
}
// * * * * * * * * * * * * * * * * * * * * * * * * * * * * * * * * * * * * * //

dimensions      [0 2 -2 0 0 0 0];

internalField   nonuniform List<scalar> 
918
(
0.557052
1.18631
0.00122848
0.556491
-0.0125641
1.15329
-0.50898
0.668974
0.537247
-0.110926
-0.0464468
0.538203
1.01414
0.779744
-1.12373
-0.0100339
0.651843
-0.381346
0.536353
-0.0565568
0.696244
0.543791
0.546816
0.537395
0.598998
0.753814
0.895354
0.0222357
0.00911589
0.00467087
-0.0118813
-0.0390105
-0.0330392
1.03693
1.08802
1.11072
0.505039
0.332927
-0.37432
-0.446793
-0.435216
-0.545728
0.665234
0.663441
-0.208426
0.672458
0.675375
0.524284
0.536616
0.537527
0.538551
0.537533
0.538915
0.40433
-0.11141
-0.142799
-0.0922722
-0.0843891
0.0539827
-0.0479969
-0.0499582
-0.0448868
-0.0445947
0.454218
0.532662
0.529353
0.543076
0.553684
1.12586
1.09778
1.12392
1.03763
1.05408
0.99213
0.964722
0.800438
0.822564
0.765266
0.750801
-1.55588
-2.50785
-0.533588
-0.282875
-0.0105884
-0.00740727
-0.0015316
0.64863
0.64969
0.651348
0.654187
1.08042
-0.378586
-0.479299
0.536494
0.535303
0.543628
0.544328
0.540347
0.539438
-0.047967
-0.0450009
-0.0475944
-0.0532008
-0.0516776
0.6849
0.685439
0.537924
0.534928
0.560951
0.581166
0.571512
0.278256
0.608721
0.625339
0.585627
0.745741
0.740338
0.749029
0.869067
0.832773
0.932207
0.955478
0.0165471
4.21199e-05
-0.0149963
-0.0194959
-0.0182203
0.500873
0.493418
0.520797
0.508471
0.510976
0.249581
0.116081
0.417912
0.442838
-0.292921
-0.358542
-0.429018
-0.459141
-0.567134
0.611854
0.660735
0.658648
-0.219313
-0.147331
-0.280026
-0.0742103
-0.136949
0.514552
0.521564
0.516563
0.532113
0.52658
0.528543
0.540885
0.537956
0.539515
0.466586
0.590289
0.330443
0.295084
-0.243503
-0.157486
-0.243895
-0.0727913
-0.0680321
0.0678977
0.0933799
0.040925
0.029247
-0.0617295
-0.0535222
-0.0575785
-0.0433454
-0.044168
0.446983
0.4358
0.466908
0.474466
0.51948
0.520971
0.525648
0.523479
0.915533
0.938005
0.945448
0.919106
-3.49823
-6.28128
0.0418999
0.178495
-0.00674094
-0.0092771
0.00205732
-0.00561589
0.000417106
-0.00185679
-0.006389
-0.00781116
-0.00278484
-0.00155122
0.642567
0.643665
1.00242
1.009
0.978314
0.931094
0.524704
0.526776
0.532277
0.528158
-0.0433173
-0.0439245
-0.04257
0.678566
0.683453
0.681417
0.239878
0.150406
0.329201
0.358253
0.636235
0.62545
0.634918
0.64714
0.683077
0.962918
0.981073
0.979324
0.98755
1.03152
1.04786
1.0133
0.480301
0.490294
0.485236
0.523895
0.521674
0.522573
0.518469
0.51973
0.517726
-0.0344639
-0.414704
0.490347
0.507371
0.492418
0.495074
0.69205
0.770697
0.654082
0.656687
0.655962
-0.00543236
-0.0638376
0.250416
0.21647
0.386618
0.422974
0.40197
0.886883
0.846887
0.89709
0.870462
0.831571
0.858106
-0.366306
-1.86654
-0.985247
0.528478
0.342815
0.430353
0.0110697
-0.00579345
-0.00129115
1.00177
1.07429
0.646119
0.820944
0.823751
0.717262
0.74688
0.806875
0.732128
0.767379
0.801456
0.779623
0.567894
0.503476
0.519438
0.839914
0.895713
0.120593
0.05957
0.0155774
0.112073
0.1693
0.143425
1.03447
0.949603
1.01989
0.534689
0.535408
-0.00467528
-0.0182218
0.539647
0.539701
-0.0119719
-0.00115786
0.412647
-0.8319
0.101007
0.528221
0.518143
0.535263
-0.0946852
0.355777
-0.0474201
0.0487851
-0.00724049
0.530855
0.46535
0.424456
0.00142343
-0.0185752
-0.0481889
-0.213548
0.532359
0.530663
0.534731
0.535675
0.536354
-0.0178332
-0.0133264
-0.00987852
-0.0453177
-0.0396613
-0.0505766
0.499204
0.518308
-0.16976
0.534878
0.537011
0.536831
0.530087
0.535719
0.53397
-0.00947837
-0.0149184
-0.0172881
0.220571
0.351814
0.652007
0.739828
0.623302
0.399694
0.164564
0.555765
0.618686
0.524661
0.678035
0.656818
0.669675
0.166598
0.0164116
0.175083
0.116654
0.526081
0.524795
0.516397
0.513362
0.530131
0.528243
0.532803
0.529822
0.532772
0.534154
-0.0508109
-0.0785514
-0.0875982
-0.155612
0.310531
0.571931
0.254112
0.284111
0.142265
-0.041694
-0.0415049
-0.0459647
-0.0532212
0.00147811
-0.022336
0.0436684
0.0441455
0.0161547
-0.00980149
-0.00641925
-0.0172995
-0.0127356
0.524679
0.524433
0.527789
0.536562
0.474995
0.478774
0.443627
0.46438
0.449651
0.388444
0.423667
0.398922
-0.0045358
0.00421183
-0.00170933
-0.0162661
-0.0130609
-0.0319616
-0.0287305
-0.0247217
-0.0205506
-0.0271141
-0.0424918
-0.044421
-0.171374
-0.286877
0.98888
0.910395
0.136958
0.521509
0.527964
0.524726
0.529643
0.53277
0.533574
0.531286
0.527835
0.518612
0.52011
0.51701
0.517993
-0.101463
-0.242371
-0.0704763
-0.144276
0.144565
0.627271
0.363706
0.299504
0.294663
0.522821
0.916659
0.700805
0.675243
0.682423
-0.342601
0.0468993
-0.278669
0.336229
0.163778
0.653752
0.70138
0.721144
0.670466
0.624048
-0.102292
0.555849
-0.071092
-0.0193079
0.181835
0.058831
0.66792
0.643669
0.649034
0.661954
0.677604
0.648487
0.634631
0.630214
0.65677
0.658717
0.48617
0.25137
0.20253
0.164007
0.642097
0.520542
0.572737
0.491839
0.521304
0.523891
0.522532
0.504036
0.511621
0.507142
0.513723
0.517244
0.525847
0.52631
0.521591
0.523723
-0.0574442
-0.0624345
-0.0290621
-0.136335
-0.129948
-0.19203
-0.061792
0.0762483
0.0371529
0.237574
0.341874
0.0530112
-0.0575897
-0.030309
0.0120805
0.180547
0.208336
0.0745115
0.162451
0.153049
0.13488
0.23733
0.241015
-0.0263547
-0.0295333
-0.0334604
-0.0352341
0.0196852
0.0904215
0.1001
-0.00446132
-0.0105918
-0.0395167
-0.0404829
-0.0213139
-0.0269435
-0.0223289
0.00801664
-0.0518
-0.0189025
-0.00480478
-0.00137001
-0.00336726
-0.00896637
0.518174
0.520585
0.520342
0.526533
0.540654
0.555566
0.520001
0.497204
0.487987
0.491007
0.463848
0.47419
0.469859
0.483555
0.504646
0.514193
0.511846
0.5147
0.496803
0.498614
0.485089
0.488771
0.463658
0.444462
0.432579
-0.041331
-0.00230548
-0.0104103
-0.0366778
-0.00671687
-0.0189052
-0.0092989
0.00975644
-0.00648796
-0.00818683
-0.0186066
-0.024751
-0.0240778
-0.0732268
0.0133365
-0.183732
-0.219573
-0.292311
0.890925
1.015
0.810599
0.583686
0.603682
0.846789
0.931461
0.543719
0.736011
0.759198
0.586684
0.854272
0.526352
0.525952
0.523552
0.523032
0.524251
-0.00681065
0.0989669
0.0983723
0.16082
0.276316
0.388075
0.318577
0.194031
0.324338
0.326827
0.62059
0.632582
0.587791
0.611576
0.612416
0.42548
0.501022
0.553015
0.512728
0.56516
0.586466
0.540606
0.573303
0.523396
0.478507
0.474487
0.424742
0.444345
0.4202
0.403262
0.515042
0.493136
0.503429
0.494142
0.513807
0.541489
0.538251
0.56202
0.576695
0.4979
0.45293
0.462304
0.492545
0.453654
0.469018
0.485393
0.231556
0.133285
0.216353
-0.069475
0.00242058
-0.0104723
-0.0588911
-0.00831956
0.276084
-0.415574
-0.392008
-1.01961
0.502551
0.953479
0.604559
0.577991
0.676395
0.65951
0.665051
0.681486
0.68322
0.630517
0.640877
0.645542
0.603765
0.62514
0.644004
0.640463
0.525037
0.384778
0.383123
0.332039
0.202228
0.241677
0.438695
0.362466
0.287416
0.287728
0.457394
0.344228
0.413911
0.447922
0.379426
0.333906
0.536577
0.602145
0.595598
0.569198
0.481557
0.494411
0.518401
0.552476
0.57712
0.607462
0.513126
0.519057
0.520288
0.517762
0.515045
0.518112
0.518366
0.520915
0.521549
0.524546
0.523598
-0.0480731
-0.0351501
-0.0486692
-0.0577485
-0.0199798
-0.0222632
0.0226749
0.00723127
-0.0137806
-0.00838939
-0.0320216
-0.0365517
-0.0325119
-0.0239624
0.100583
0.113383
0.0972192
0.0574693
0.251276
0.380702
0.455196
0.330474
0.223952
0.247031
0.26663
-0.0118529
0.0137616
0.000745554
0.0403549
0.0324665
-0.0345713
-0.0382622
-0.0355491
-0.028617
-0.0191934
-0.0355919
-0.0400632
-0.0309306
-0.0358882
-0.0388567
-0.0428992
0.499466
0.492914
0.494617
0.488411
0.487133
0.501602
0.505882
0.507855
0.513405
0.515862
0.505681
0.511435
0.515501
-0.0098071
-0.0328479
-0.0365996
-0.0264046
-0.0289864
-0.0268724
-0.02827
0.123641
0.0541895
0.0584437
0.0105007
-0.121288
-0.0633552
0.491327
0.490054
0.479536
0.720897
0.570198
0.490709
0.587684
0.693458
0.276115
0.472929
0.307876
0.888565
0.784869
0.931276
0.542443
0.24491
0.407588
0.45133
0.264003
0.339329
0.325612
0.214808
0.245564
0.28271
0.381877
0.26499
0.241548
-0.00155959
0.188802
0.301154
0.282959
0.407721
0.4685
0.26581
0.185305
0.140547
0.605325
0.624861
0.638493
0.611007
0.632044
0.57937
0.571283
0.587201
0.595459
0.589074
-0.747654
-0.454173
-1.4006
-0.722299
-0.267738
0.532964
0.503729
0.769159
0.646905
0.686021
0.671221
0.630029
0.599354
0.622122
0.646001
0.343317
0.454136
0.429382
0.434758
0.33702
0.267625
0.565521
0.56196
0.594103
0.617317
0.59008
0.6192
0.510961
0.510687
0.510135
0.506376
0.504646
0.507022
0.0577051
0.0255074
0.0638311
0.0451073
0.021831
0.00890089
-0.00710352
-0.0170763
-0.0243956
-0.0242173
-0.0102093
-0.00617681
0.171243
0.109121
0.0294683
0.0588
-0.00197334
-0.070715
-0.0894809
0.0154448
0.111716
0.101871
0.405483
0.655258
0.47525
0.642749
0.485182
0.540975
0.468071
0.459476
0.484555
0.379228
0.459759
0.246362
-0.2611
-0.170199
0.792885
0.804568
0.580866
0.404503
0.17305
0.352701
0.542966
0.473769
0.509566
0.578656
0.566387
0.0265386
0.085293
0.368818
0.595705
0.239255
0.230426
0.224026
0.407049
0.326056
)
;

boundaryField
{
    wall-4
    {
        type            zeroGradient;
    }
    velocity-inlet-5
    {
        type            zeroGradient;
    }
    velocity-inlet-6
    {
        type            zeroGradient;
    }
    pressure-outlet-7
    {
        type            fixedValue;
        value           uniform 0;
    }
    wall-8
    {
        type            zeroGradient;
    }
    frontAndBackPlanes
    {
        type            empty;
    }
}


// ************************************************************************* //
