/*--------------------------------*- C++ -*----------------------------------*\
| =========                 |                                                 |
| \\      /  F ield         | OpenFOAM: The Open Source CFD Toolbox           |
|  \\    /   O peration     | Version:  4.0                                   |
|   \\  /    A nd           | Web:      www.OpenFOAM.org                      |
|    \\/     M anipulation  |                                                 |
\*---------------------------------------------------------------------------*/
FoamFile
{
    version     2.0;
    format      ascii;
    class       surfaceScalarField;
    location    "63";
    object      phi;
}
// * * * * * * * * * * * * * * * * * * * * * * * * * * * * * * * * * * * * * //

dimensions      [0 3 -1 0 0 0 0];

internalField   nonuniform List<scalar> 
1300
(
3.75095
5.62643
-3.32824
3.75095
-7.7502
5.62643
-4.38368
4.38368
-0.444692
0.444692
1.87639
1.87456
-2.68575
2.68575
-2.16426
2.16426
-2.52828
2.52828
-5.24638
5.24638
-5.06829
5.06829
4.65605
-4.65605
-6.30164
6.30164
-0.951671
0.951671
-3.67391
3.67391
3.16963
-3.16963
-2.11286
2.11286
-0.00631666
0.00631666
-0.553478
4.30443
3.19748
3.19748
-2.01225
2.01225
-4.86761
4.86761
6.21796
-6.21796
5.32114
-5.32114
-1.9929
-2.45148
1.81137
-11.5125
-5.93883
-5.93883
-8.44039
8.44039
-2.81396
2.81247
2.94601
-2.94601
-1.7744
1.7744
-4.34237
-0.0413067
-4.34237
4.3555
0.0281852
4.3555
-0.514416
0.0697246
-0.514416
3.98034
-3.98034
0.360492
0.0841995
0.360492
3.0653
-3.0653
-1.87711
3.7535
1.87384
-1.87189
6.17632
-1.87906
3.75362
-6.01636
6.01636
-2.92102
0.235269
-2.92102
2.49145
0.194295
2.49145
-6.84559
6.84559
-2.1963
0.0320423
-2.1963
2.13473
0.0295271
2.13473
2.88014
-2.88014
-2.63956
0.111273
-2.63956
2.39522
0.133062
2.39522
0.35353
5.2729
-5.97996
8.79243
-5.2729
0.0265153
5.20833
0.0380509
5.20833
-5.10579
0.0375035
-5.10579
5.01321
0.0550728
5.01321
4.74226
-0.0862111
4.74226
-4.77365
0.117604
-4.77365
-3.36912
-4.05385
-6.45276
0.151119
-6.45276
-1.04017
0.0884996
-1.04017
0.838827
0.112844
0.838827
-3.68373
3.68373
-4.09779
0.423878
-4.09779
3.12401
0.0456245
3.12401
1.86849
1.88246
5.61945
-5.61945
2.44981
-2.08774
-0.0251252
-2.08774
-2.16917
-3.15197
2.16917
-0.0563027
-0.237884
0.231568
-0.237884
3.15942
0.0380556
3.15942
2.23785
0.157373
-2.23785
0.225596
3.27159
-3.27159
1.34087
0.671387
1.34087
-5.56556
5.56556
4.9555
0.0577163
-4.9555
0.0878897
6.15609
0.0618611
6.15609
-6.19951
-0.0184434
-6.19951
2.52845
-4.97993
-2.61043
6.11958
0.182056
-6.11958
0.180754
2.91778
0.0282293
2.91778
-2.91974
2.91974
-2.98457
0.0385618
-2.98457
-2.17344
0.399041
-2.17344
1.47554
0.298855
1.47554
-4.24056
-0.101815
-4.24056
-4.24667
0.148878
4.24667
0.108828
1.12792
-1.12792
-0.626725
0.112309
-0.626725
-4.10407
-0.136487
4.10407
-0.123735
-3.8709
-0.109441
-3.8709
-3.02444
0.0398729
3.02444
0.0408629
3.11285
0.0465657
-3.11285
0.0475514
-1.87082
3.75328
-1.88013
3.75397
-5.63584
-0.380518
-5.63584
6.327
-0.310635
6.327
3.3132
0.360705
-3.3132
0.392186
2.35135
0.1401
2.35135
-6.80963
-0.0359606
-6.80963
6.82891
0.0166769
6.82891
2.25581
0.0955401
-2.25581
0.0595117
2.10241
0.0323185
2.10241
2.8997
-0.0195696
2.8997
-2.8746
-0.00553354
-2.8746
2.79674
-2.79674
2.72354
0.0732002
-2.72354
0.0839855
-11.133
11.1145
-0.0351012
-11.0979
5.17323
5.17323
4.1694
0.57286
4.1694
-4.99135
0.217697
-4.99135
2.68033
-5.29076
3.0779
-6.44702
4.66792
-16.1804
4.30144
-8.3553
6.69327
-6.69327
6.5818
0.111469
-6.5818
0.129043
-1.155
0.114833
-1.155
-3.0809
-0.602825
-3.0809
4.32696
-0.643231
4.32696
-3.02821
3.02821
-3.07749
0.049288
3.07749
0.0465121
2.08497
0.017449
-2.08497
-0.00277302
0.29736
0.0631317
-0.29736
0.0594758
3.48211
-0.21052
3.48211
-3.07484
-0.196754
-3.07484
-1.25275
0.0977431
1.25275
0.0881201
-5.81433
0.248769
-5.81433
-11.1909
0.0929787
-11.1528
-6.10653
-6.10653
2.33386
11.1263
-2.89287
0.01827
2.89287
0.0249043
2.97517
0.0530377
-2.97517
0.0554326
-2.86064
0.0638987
2.86064
0.0590935
-2.54845
0.375012
-2.54845
-1.07281
1.07281
-1.23919
0.166386
1.23919
0.236353
1.39929
-0.27137
1.39929
0.73396
0.104867
-0.73396
0.107235
-3.77368
-0.0972186
-3.77368
6.56142
-0.234419
6.56142
-2.96102
-0.113816
2.96102
-0.0613168
-0.0333695
11.1479
-5.13986
0.0340741
5.13986
-11.2098
11.2438
-3.21932
0.670869
3.21932
0.950078
5.28509
0.280467
-5.28509
0.29374
6.77795
0.0509617
-6.77795
0.0846817
-2.58824
-0.49266
-2.58824
-5.05323
-0.582609
5.05323
-0.726277
-11.4747
-0.20348
11.6782
-11.4196
6.01781
0.138289
-6.01781
11.3821
-1.02978
-0.098134
1.02978
0.0430204
1.72658
-0.327293
1.72658
3.67497
-0.192861
-3.67497
-0.0987044
-6.71442
-0.0952055
6.71442
-0.153008
-2.14345
-0.444791
2.14345
-0.416869
-4.2671
4.30516
1.90922
-2.39014
-2.58979
-5.54211
1.85186
1.90142
4.30168
-10.154
-6.02636
-9.97326
7.26247
-6.96873
-9.2462
9.15999
7.86162
-7.97106
-5.78491
5.83142
6.4828
-6.44194
1.8788
1.8747
8.00062
-7.76535
-15.6108
15.2303
7.50626
-7.47422
15.7674
-15.8033
-17.8508
17.9018
-5.69641
5.80768
-6.73858
6.73305
-6.97264
6.91132
-2.83031
-3.61672
13.1193
-12.9682
8.54499
-8.57012
-8.60538
9.02926
3.38258
0.922582
3.42914
-1.88217
3.76097
-1.87146
3.78068
2.71121
-5.54151
2.57955
-5.16934
4.33247
4.21252
-4.27617
-1.26594
-5.92424
5.95247
-5.81478
5.87387
9.11936
-9.16066
-1.88515
3.75986
-1.86882
3.77024
-3.42502
-2.35989
3.3794
0.922282
8.07485
5.04445
-8.25691
-1.71636
-8.02758
7.83472
-8.22466
8.02791
-0.434995
5.81929
-5.38429
4.43261
-1.56276
7.38204
5.69972
5.91741
5.86648
-5.58601
1.10225
-6.48654
-6.39865
-2.32906
2.44137
2.21528
-2.13108
6.11876
1.74286
5.99502
-5.74645
-2.22461
-5.84367
3.82069
2.01073
3.86998
4.07827
2.40454
4.11814
3.03051
-3.03591
0.00539551
-3.05658
6.0871
0.723949
-5.41647
-4.49419
4.97214
3.02848
5.16644
-5.54826
-2.2171
-5.15607
-9.5402
-6.07063
-10.1228
10.0858
5.14454
9.77513
-11.9591
11.8061
4.79048
2.71578
4.82001
-4.91762
-2.5566
-4.85811
11.6432
-2.62714
-9.01607
-10.3196
-7.53123
10.3029
5.46448
10.9636
6.93816
11.0483
4.42536
7.21785
-9.88984
2.35861
-3.8637
-1.83271
-3.77971
3.66518
2.1425
3.79824
-4.21697
-2.52161
-4.1987
-4.29489
-2.67775
4.31446
2.41858
-4.41553
-3.80913
4.52935
2.38198
4.04026
-10.0666
4.31504
-7.93175
-9.1988
-3.76938
-9.06975
3.50571
2.60475
-6.11046
-2.0358
8.47108
-4.25856
7.20514
-5.17329
-3.39683
-5.17606
-6.87584
-1.72954
-6.72696
-8.87908
8.38642
-9.17602
8.53279
12.5267
-5.65157
-6.87509
-3.96841
-2.47353
3.92086
-0.491715
-3.71056
3.71596
0.050408
3.83108
4.75367
4.26195
-3.88468
-1.9301
-3.82925
3.82556
2.04831
3.88946
6.83136
2.28799
6.85955
-6.59252
-2.56815
-6.69433
9.04276
-8.64372
2.8453
-2.74756
5.39019
2.63772
-5.17967
-2.84791
6.21343
-3.21709
-2.99634
-12.1997
10.5324
1.66726
-4.81762
-0.385009
-0.378692
-5.48961
-3.75659
5.37201
0.545408
11.0778
7.32121
-5.51293
5.7617
6.16525
6.22297
-0.175682
5.80989
-5.13902
5.26548
-2.57288
-2.6926
5.45369
-5.59018
-1.24064
-5.50045
4.25981
0.404844
1.52826
-1.2967
-1.81871
-0.510355
-1.71147
1.31403
0.901252
1.37716
0.936102
1.50527
-2.95618
0.556089
2.40009
-2.02008
-1.575
-3.79127
-1.13964
4.93091
5.72499
2.10972
-5.62629
-0.21738
2.56008
-2.44723
-0.758163
-3.03311
2.24268
-3.00084
-3.67355
-2.05223
5.72578
-3.36988
-0.459364
3.31685
0.553134
-3.82702
-2.09722
3.78846
0.32968
-3.12758
6.19058
-3.063
-5.05767
2.52773
3.55936
4.53846
-4.78953
2.44745
2.34208
-1.23017
4.24549
0.920949
4.38559
-6.93224
4.71515
5.79469
3.23457
-6.15539
0.99932
-5.93292
8.5406
-7.36933
-1.17128
4.14198
4.39862
7.07076
5.4559
-5.67595
12.7467
-1.20154
-6.16778
7.13447
-3.8999
4.84792
-8.74781
-10.3038
4.13603
-9.14459
10.9229
-1.77835
-3.62403
-8.33504
12.7686
-1.20567
-11.5629
8.56946
-4.25219
-4.33447
8.58667
-6.87933
6.89107
-1.99229
-4.89878
-10.1058
-5.69751
10.201
1.60504
-9.8963
12.2549
-2.67846
4.1055
0.714515
4.13782
3.29302
-5.47862
2.1856
3.58631
-5.5786
2.08408
-7.5627
-6.73251
12.0655
-5.33302
-10.5019
-9.51962
-0.982273
2.53492
9.71999
-9.47308
7.42963
2.04345
3.30086
0.588608
-3.37406
-0.405654
0.240273
4.52572
-4.766
4.03851
4.19589
3.28284
1.24289
3.84497
2.1075
-3.86988
-0.328826
-4.16278
1.48503
-1.7442
-3.69322
5.17825
-4.06676
0.37354
-2.74835
-3.49918
6.24753
-4.58106
3.03591
3.15467
5.08422
-4.91325
1.41407
-2.39296
-2.52029
2.65269
-4.39689
1.99062
3.18763
4.3726
0.563468
5.87464
6.19089
-8.47939
0.547638
11.2353
-9.51898
2.46655
8.58172
-9.89618
0.37656
-8.69319
0.993357
-5.25192
-5.1171
5.18888
-6.91842
-3.55894
6.20885
0.650695
-6.31768
-0.40928
-6.03448
-2.84459
-6.47928
-3.04426
-6.13176
-8.72022
-1.65184
-7.06838
6.73458
-6.68123
-3.44158
7.4075
1.12528
-7.41018
7.31205
-7.48831
7.16102
0.0953389
3.62062
4.35729
1.88376
-2.39045
4.27421
-5.11791
7.4059
-8.70075
3.58284
4.18164
-6.74979
-4.51911
5.02353
4.01923
5.32239
8.88875
-10.3613
1.47254
-10.6609
11.9931
-1.33221
-16.4229
5.76202
-7.5342
2.45453
0.390771
2.56937
0.54878
2.49918
-3.04796
-2.19878
-2.11066
-2.43022
-3.46537
5.89559
1.10381
-3.52052
2.41671
-3.5706
4.6744
-0.198354
-3.32216
5.27988
-2.7807
5.67065
-3.76895
1.9017
3.43273
5.75238
-2.31965
4.39424
-1.75652
1.91904
-4.23869
-1.54633
-2.96393
5.10643
-3.2836
3.65714
-0.340431
3.99757
-4.05578
0.838692
-0.772941
3.42294
3.64854
4.31242
-3.06953
2.92262
-4.67913
-1.31608
-4.11567
-0.928038
-0.265326
-3.70879
3.97411
5.98737
-6.2527
-5.23651
9.53092
-4.29441
7.69533
-5.38337
-2.31196
-4.25447
-4.38926
3.87945
1.93044
9.62577
0.209436
-5.5928
-4.92959
-3.97951
3.11989
2.14559
-1.77887
3.44613
2.15756
-0.629299
0.443744
0.93342
1.78776
-1.34402
0.3038
1.48396
-0.992895
1.76464
0.795437
-1.86951
0.158033
-1.30529
3.54797
1.09481
-1.99606
0.652042
0.98478
-3.55766
5.02464
-2.66346
-2.36117
6.00942
1.14027
-3.80373
4.36018
-3.95534
2.37733
-3.51697
-1.42641
-5.38174
-3.63888
-2.52763
4.94434
-3.36796
5.47768
1.27078
-5.2603
6.53109
-3.72002
1.66779
-3.06672
3.86216
-0.954387
-2.11233
2.89932
2.82646
-3.05602
0.0229126
-0.1567
2.40518
-2.56188
-0.595666
-2.61575
-4.57326
4.90294
-2.10548
4.55293
2.16872
-1.91664
6.46957
1.80918
-3.72582
-3.24849
-3.70785
-1.38374
3.15472
-0.600353
-4.25775
-5.49913
4.16221
0.223374
-7.04067
7.84934
-0.808665
-4.01219
-0.70296
4.84495
-6.0616
0.482999
-3.97752
3.87181
4.79276
5.01613
-11.3457
-0.217243
-6.20116
1.12339
-7.32455
5.52201
-3.54118
7.67722
-10.3308
6.88924
-9.20553
6.50594
-0.818612
6.25211
-4.06652
2.76396
-8.46147
-6.85643
5.4898
-2.77402
6.20431
-3.13419
9.3385
-5.81264
5.27523
4.06327
-1.01475
-4.16131
-5.26919
4.25444
0.00604627
4.14386
4.9799
-2.8724
4.65107
2.26742
-4.66038
-2.12946
-6.49456
1.83418
-3.33989
-1.92038
3.75457
3.16383
3.75244
1.23427
-3.34679
7.18607
-8.16834
-1.85305
-3.26406
5.25382
-0.999384
3.39493
-6.65898
-1.85699
4.80027
-0.784324
-4.01595
0.851298
-4.41024
1.6714
-6.08163
5.24702
-5.6563
2.22185
-9.75605
-5.18833
-5.14531
-2.25875
-5.22956
-7.57314
5.31438
-1.81112
5.50093
-8.51063
7.72631
-3.4825
8.79689
-5.42869
-1.05059
5.84556
1.31546
10.1123
0.209817
-4.72893
-1.91041
3.86352
-1.95311
1.20948
-3.49897
0.364553
2.48826
3.52116
-6.74807
-0.00171432
-4.73064
-3.91756
7.93679
5.61336
11.6007
1.23944
9.11884
-1.18205
10.3583
4.14034
4.37669
-2.99285
4.46539
0.981264
4.56411
-0.917764
2.81946
1.6516
1.7401
0.707131
2.3036
1.34494
3.14229
0.0943351
-2.01633
4.62298
-8.60249
-0.96982
-8.02963
1.13036
5.71019
-4.57983
2.97321
-0.827625
1.0201
-0.0733765
-1.30078
1.37415
-2.76597
-1.93007
-0.446112
-1.68411
2.33615
1.86386
-1.89004
-0.875936
0.359422
-3.9983
3.15755
-3.13463
-0.308173
6.22291
-2.81881
0.256936
-1.15102
-2.35881
-2.86917
2.71113
6.176
0.293571
3.113
5.19651
3.0993
0.226896
3.8956
-5.67395
-3.6671
-5.89119
-0.369181
4.47576
1.7515
7.96849
5.81477
4.81539
-1.84359
-10.0119
6.52203
-2.05664
5.18982
-1.17387
-4.90776
5.04388
2.36202
-5.69458
0.0382801
-4.86948
-6.92612
-0.513652
8.23996
-9.59869
8.54811
5.70351
1.36487
-4.40618
-0.739126
4.2398
0.136893
10.4952
-1.12833
-6.73405
7.86238
-4.58185
3.61203
0.761381
2.68475
2.13553
1.30791
-5.42614
-10.006
-2.03734
-1.52032
-4.39851
0.5324
-2.39626
6.22594
-2.6139
3.91397
5.24848
6.26857
-2.13506
-4.11763
6.42947
-2.5155
3.75308
)
;

boundaryField
{
    wall-4
    {
        type            calculated;
        value           uniform 0;
    }
    velocity-inlet-5
    {
        type            calculated;
        value           uniform -3.75095;
    }
    velocity-inlet-6
    {
        type            calculated;
        value           uniform -5.62643;
    }
    pressure-outlet-7
    {
        type            calculated;
        value           nonuniform List<scalar> 8(3.32824 7.7502 4.44438 9.70109 7.42298 5.13888 5.75823 8.96936);
    }
    wall-8
    {
        type            calculated;
        value           uniform 0;
    }
    frontAndBackPlanes
    {
        type            empty;
        value           nonuniform 0();
    }
}


// ************************************************************************* //
