/*--------------------------------*- C++ -*----------------------------------*\
| =========                 |                                                 |
| \\      /  F ield         | OpenFOAM: The Open Source CFD Toolbox           |
|  \\    /   O peration     | Version:  4.0                                   |
|   \\  /    A nd           | Web:      www.OpenFOAM.org                      |
|    \\/     M anipulation  |                                                 |
\*---------------------------------------------------------------------------*/
FoamFile
{
    version     2.0;
    format      ascii;
    class       volScalarField;
    location    "69";
    object      p;
}
// * * * * * * * * * * * * * * * * * * * * * * * * * * * * * * * * * * * * * //

dimensions      [0 2 -2 0 0 0 0];

internalField   nonuniform List<scalar> 
2200
(
0.772137
0.750639
0.734736
0.719074
0.704471
0.691963
0.681625
0.67354
0.667861
0.66495
0.665488
0.669325
0.6757
0.684282
0.694978
0.707763
0.722565
0.738501
0.754548
0.776047
0.704557
0.7013
0.698379
0.694266
0.688813
0.68235
0.675749
0.669821
0.665353
0.663031
0.663535
0.666898
0.672105
0.678585
0.685588
0.692352
0.698018
0.702117
0.704969
0.708332
0.664618
0.66484
0.666906
0.668258
0.668656
0.667814
0.665849
0.663197
0.660687
0.659237
0.659851
0.662361
0.665682
0.668939
0.671289
0.672301
0.672035
0.671035
0.669391
0.669144
0.64211
0.643564
0.646162
0.648618
0.651073
0.653109
0.654284
0.654543
0.654209
0.653965
0.654661
0.656093
0.65734
0.657762
0.657102
0.655447
0.653304
0.651131
0.648529
0.647124
0.627718
0.62969
0.632515
0.635362
0.638236
0.641086
0.64357
0.645467
0.646737
0.647589
0.648395
0.648923
0.648736
0.647676
0.645846
0.643492
0.640956
0.63824
0.635454
0.633531
0.620336
0.621935
0.624145
0.626686
0.629368
0.632057
0.634677
0.637132
0.639204
0.640794
0.641739
0.64184
0.641061
0.639591
0.637734
0.635622
0.633311
0.630974
0.628878
0.627304
0.616858
0.61788
0.619157
0.621037
0.623202
0.625395
0.627628
0.629972
0.632255
0.634179
0.635302
0.6354
0.634698
0.633548
0.6322
0.630675
0.629002
0.627441
0.626334
0.625317
0.614131
0.614799
0.615439
0.616756
0.618392
0.62011
0.621905
0.62389
0.626037
0.628094
0.629459
0.629874
0.629638
0.629082
0.628355
0.62745
0.626428
0.625522
0.625086
0.624408
0.610805
0.61125
0.611655
0.612668
0.613956
0.615376
0.616924
0.61866
0.62061
0.6227
0.624345
0.625252
0.62561
0.625637
0.625417
0.624994
0.62445
0.623945
0.623769
0.623303
0.60666
0.606956
0.60732
0.608205
0.60934
0.610648
0.612136
0.613817
0.615724
0.617892
0.619919
0.621381
0.622279
0.622758
0.622923
0.622851
0.622605
0.622311
0.622196
0.621869
0.601836
0.602037
0.602415
0.603261
0.604381
0.605729
0.607309
0.60913
0.611214
0.61361
0.616076
0.618077
0.619438
0.620271
0.620709
0.620876
0.620817
0.620679
0.62059
0.620349
0.596504
0.596649
0.597027
0.597854
0.599023
0.600495
0.602266
0.604338
0.606755
0.609596
0.612614
0.615145
0.616924
0.618089
0.618779
0.619135
0.619291
0.619302
0.619247
0.619053
0.590727
0.590834
0.591218
0.592055
0.593313
0.594954
0.596974
0.599399
0.602292
0.605732
0.60939
0.612503
0.61474
0.616251
0.61724
0.617859
0.618232
0.618384
0.618373
0.618199
0.584545
0.58461
0.585002
0.585874
0.587236
0.589058
0.591345
0.594163
0.597621
0.601782
0.606269
0.610091
0.612866
0.614834
0.616222
0.617163
0.617786
0.618091
0.618122
0.617954
0.577777
0.577814
0.57824
0.579159
0.580677
0.582722
0.585328
0.588623
0.592774
0.597839
0.603266
0.607907
0.61138
0.613921
0.615789
0.617118
0.618012
0.618478
0.618559
0.618391
0.570378
0.570335
0.570774
0.571808
0.573554
0.575882
0.578878
0.58273
0.587651
0.59376
0.600348
0.606006
0.610349
0.613605
0.616058
0.617828
0.619032
0.619666
0.619795
0.61962
0.562052
0.562054
0.562487
0.5636
0.565593
0.568238
0.571705
0.576222
0.582052
0.589359
0.597402
0.604373
0.60974
0.613882
0.617008
0.619313
0.62087
0.621683
0.621869
0.621681
0.552588
0.552605
0.553061
0.554329
0.556623
0.55971
0.563818
0.569194
0.576165
0.584979
0.594612
0.603137
0.609776
0.614891
0.618796
0.621677
0.623639
0.624645
0.624883
0.624676
0.541624
0.541598
0.542174
0.543666
0.546304
0.549969
0.554896
0.561355
0.569728
0.580357
0.592056
0.602335
0.610397
0.616638
0.621412
0.624996
0.627415
0.628609
0.628893
0.628659
0.528523
0.528452
0.529141
0.531018
0.534245
0.538713
0.544724
0.552619
0.562827
0.575642
0.589718
0.602029
0.61171
0.619228
0.625017
0.629337
0.632239
0.633632
0.633947
0.633685
0.513078
0.512967
0.513742
0.515971
0.519957
0.525534
0.533003
0.542768
0.555316
0.570889
0.587663
0.602337
0.613783
0.622708
0.629592
0.634772
0.638196
0.639754
0.640078
0.639781
0.494296
0.494223
0.495245
0.49802
0.502954
0.509954
0.519389
0.53167
0.547212
0.566103
0.586025
0.603217
0.616602
0.627071
0.63519
0.641285
0.645206
0.646926
0.647228
0.6469
0.471045
0.470894
0.47223
0.47588
0.482356
0.491542
0.503748
0.519363
0.53861
0.561365
0.584908
0.604916
0.620445
0.632482
0.641844
0.648842
0.65322
0.655033
0.655268
0.654919
0.441187
0.441214
0.443329
0.448425
0.457249
0.469633
0.485711
0.505611
0.529329
0.556604
0.584159
0.607233
0.624953
0.638735
0.649447
0.657326
0.662043
0.663889
0.664021
0.663657
0.401813
0.402066
0.405634
0.413666
0.426497
0.443808
0.465206
0.490568
0.519699
0.552164
0.584115
0.61035
0.630386
0.645894
0.657873
0.666517
0.671419
0.673165
0.673172
0.672816
0.349348
0.349815
0.356941
0.370305
0.389737
0.414372
0.442847
0.474908
0.510295
0.54843
0.58493
0.614434
0.636723
0.653901
0.667094
0.676238
0.680933
0.682264
0.682128
0.681839
0.280827
0.283572
0.298877
0.320692
0.349108
0.382675
0.419372
0.458898
0.501122
0.545569
0.587164
0.620327
0.645333
0.664573
0.67898
0.688537
0.692851
0.693591
0.693485
0.693272
0.202826
0.212612
0.238189
0.269721
0.308349
0.351131
0.396085
0.443348
0.49287
0.544027
0.591208
0.628566
0.656688
0.67792
0.693712
0.703371
0.7071
0.707294
0.707309
0.707177
0.133321
0.147987
0.180155
0.220829
0.269187
0.32085
0.373922
0.428975
0.485744
0.543431
0.596034
0.637408
0.668112
0.691237
0.707922
0.71738
0.720694
0.720632
0.720779
0.72071
0.0803975
0.0940481
0.130854
0.177603
0.233472
0.292832
0.353405
0.415696
0.479303
0.543448
0.601408
0.64652
0.679642
0.704358
0.721895
0.731676
0.734455
0.734692
0.734941
0.734915
0.0365771
0.0494241
0.0902668
0.141025
0.202386
0.267724
0.334721
0.403532
0.473518
0.543725
0.60665
0.655305
0.691082
0.7175
0.736138
0.746223
0.749419
0.749965
0.750003
0.750079
-0.000440025
0.012421
0.0559103
0.1096
0.175318
0.245512
0.318031
0.392569
0.468237
0.54386
0.611552
0.663867
0.702133
0.730189
0.750081
0.760935
0.764515
0.765063
0.765074
0.765135
-0.0328521
-0.0197295
0.0259288
0.0822252
0.151616
0.22586
0.303047
0.382474
0.463186
0.543984
0.61654
0.672301
0.712697
0.742465
0.763582
0.774694
0.778594
0.779175
0.779226
0.779275
-0.0613627
-0.0483771
-0.000965899
0.0577659
0.13034
0.20806
0.289284
0.373022
0.458459
0.5444
0.621503
0.680245
0.722743
0.753768
0.775779
0.787406
0.791515
0.792196
0.792238
0.792274
-0.087409
-0.0743832
-0.0256752
0.0354115
0.110822
0.191629
0.276446
0.364136
0.454023
0.544618
0.625668
0.68734
0.731925
0.76424
0.786643
0.798714
0.80316
0.803916
0.80396
0.803977
-0.111321
-0.0982432
-0.0487057
0.0146023
0.0925169
0.176112
0.264203
0.355494
0.449295
0.543911
0.628971
0.693793
0.74027
0.773473
0.796254
0.808896
0.813429
0.814294
0.814331
0.814327
-0.133904
-0.120464
-0.0703164
-0.005027
0.0750771
0.161223
0.252247
0.346651
0.443877
0.542461
0.631801
0.699594
0.747739
0.782108
0.805055
0.817866
0.822511
0.823426
0.823452
0.823428
-0.155168
-0.141476
-0.0907339
-0.0237274
0.0582496
0.146646
0.240215
0.337368
0.437838
0.540359
0.633761
0.704743
0.754872
0.79009
0.813236
0.825945
0.830496
0.831431
0.831437
0.831391
-0.175262
-0.161599
-0.110133
-0.0417007
0.0418355
0.132193
0.22802
0.327705
0.431221
0.537427
0.634857
0.70933
0.761682
0.797976
0.82106
0.833134
0.837589
0.838441
0.838436
0.838362
-0.194528
-0.180708
-0.128703
-0.0591069
0.0257431
0.117807
0.215649
0.317687
0.424029
0.533684
0.635158
0.713316
0.768424
0.805782
0.828621
0.8401
0.843947
0.844552
0.844523
0.844421
-0.213396
-0.199059
-0.14662
-0.0760397
0.00993745
0.103503
0.203171
0.307361
0.416262
0.529104
0.634588
0.716766
0.77501
0.814109
0.836638
0.846858
0.84969
0.849875
0.84983
0.849862
-0.231827
-0.216776
-0.164001
-0.0925385
-0.00555607
0.0893339
0.1906
0.296687
0.40788
0.523662
0.633051
0.719575
0.781582
0.823004
0.845587
0.854393
0.85513
0.854694
0.854369
0.854238
-0.24984
-0.234086
-0.180908
-0.108594
-0.0207172
0.0753172
0.177954
0.285682
0.398914
0.517394
0.630483
0.721563
0.78788
0.832755
0.856524
0.86338
0.86159
0.859997
0.859951
0.861061
-0.267225
-0.250946
-0.197331
-0.124202
-0.0355243
0.0614813
0.165247
0.274367
0.389424
0.510314
0.626769
0.722464
0.793831
0.843169
0.869678
0.875926
0.871185
0.864211
0.859557
0.858752
-0.284035
-0.267358
-0.213246
-0.139339
-0.0499659
0.0478417
0.152531
0.262839
0.379511
0.50251
0.621905
0.722043
0.798724
0.854014
0.88535
0.892887
0.887715
0.877521
0.878119
0.882295
-0.300189
-0.283179
-0.228587
-0.153991
-0.0640182
0.0344507
0.139887
0.251193
0.369255
0.494053
0.615884
0.720032
0.802326
0.864293
0.902466
0.914626
0.908379
0.879206
0.842272
0.810353
-0.315702
-0.298452
-0.243395
-0.168222
-0.0777773
0.0211942
0.127198
0.239291
0.358461
0.484716
0.608512
0.716022
0.803449
0.873129
0.920532
0.940343
0.947283
0.920171
0.937807
1.00048
-0.330493
-0.313147
-0.257736
-0.182176
-0.0914189
0.00786877
0.114211
0.22679
0.346661
0.473904
0.599178
0.709152
0.801081
0.87752
0.931303
0.956105
0.954616
0.924815
0.879852
0.897675
-0.344574
-0.327295
-0.271579
-0.195784
-0.104852
-0.00542474
0.101043
0.213812
0.333964
0.461694
0.587814
0.699102
0.792915
0.872822
0.9284
0.953974
0.931471
0.870959
0.804284
0.791064
-0.357906
-0.340829
-0.284899
-0.209048
-0.118073
-0.0186776
0.0877023
0.200361
0.320378
0.448033
0.574226
0.68548
0.778578
0.855276
0.905936
0.905283
0.864246
0.781912
0.70471
0.678379
-0.370548
-0.353805
-0.297733
-0.221973
-0.131095
-0.0319092
0.0741757
0.186446
0.305943
0.432956
0.558353
0.668002
0.756467
0.821889
0.84785
0.829375
0.763297
0.657863
0.568041
0.543237
-0.382918
-0.366547
-0.310431
-0.234924
-0.144271
-0.0454282
0.0601964
0.171847
0.290484
0.416279
0.539898
0.646031
0.727363
0.776407
0.76885
0.729487
0.611341
0.485088
0.375116
0.345568
-0.395876
-0.37991
-0.323711
-0.248491
-0.158139
-0.0597039
0.045366
0.156241
0.273754
0.397813
0.51863
0.619127
0.693204
0.716523
0.681724
0.587977
0.427685
0.27179
0.139781
0.11005
-0.409909
-0.39415
-0.337814
-0.262915
-0.172889
-0.0748589
0.0296088
0.139593
0.255747
0.377561
0.494483
0.588172
0.651479
0.64534
0.591985
0.437232
0.234586
0.0197106
-0.162014
-0.212437
-0.425161
-0.409522
-0.352882
-0.2782
-0.188478
-0.0908635
0.0129532
0.121935
0.236519
0.35562
0.467457
0.554578
0.602557
0.564547
0.475087
0.284308
0.0517773
-0.238123
-0.55925
-0.709289
-0.441679
-0.425938
-0.368944
-0.294469
-0.205001
-0.107786
-0.00466703
0.103205
0.216017
0.332004
0.437763
0.518134
0.547726
0.479256
0.33984
0.133069
-0.101028
-0.444986
-1.02958
-1.60012
-0.459581
-0.443701
-0.38618
-0.311751
-0.222447
-0.125617
-0.0232213
0.0834735
0.194399
0.307082
0.406566
0.47878
0.488736
0.404127
0.210064
-0.0239344
-0.226521
-0.460573
-1.01147
-2.51119
-0.47886
-0.462643
-0.404571
-0.330218
-0.241022
-0.144568
-0.0429522
0.0624664
0.171331
0.280495
0.373734
0.436081
0.424718
0.345015
0.116481
-0.121182
-0.269325
-0.306825
-0.295801
-0.679626
-0.499476
-0.483203
-0.424435
-0.350109
-0.261064
-0.165117
-0.0644749
0.0394148
0.14588
0.250942
0.338294
0.389811
0.362026
0.293947
0.0665996
-0.135467
-0.246487
-0.254925
-0.202267
-0.242253
-0.521294
-0.504912
-0.445594
-0.371559
-0.282748
-0.187434
-0.0879761
0.0141355
0.117822
0.218223
0.300383
0.341512
0.30701
0.239246
0.0340747
-0.126142
-0.208762
-0.217082
-0.264783
-0.268835
-0.544277
-0.528065
-0.468174
-0.394489
-0.305966
-0.211502
-0.113481
-0.0134382
0.0871405
0.182723
0.259835
0.291077
0.259056
0.177313
0.0056546
-0.116884
-0.187616
-0.164625
-0.185092
-0.186754
-0.568132
-0.551653
-0.491804
-0.418891
-0.33071
-0.23732
-0.140967
-0.0432043
0.0539597
0.144779
0.216922
0.237213
0.217559
0.109386
-0.0298554
-0.112424
-0.151734
-0.199897
-0.174025
-0.182689
-0.592822
-0.57594
-0.516582
-0.444486
-0.356594
-0.264651
-0.170196
-0.0749512
0.0184394
0.104796
0.172618
0.18233
0.17424
0.0480036
-0.0670725
-0.130741
-0.108573
-0.168226
-0.148775
-0.153815
-0.617133
-0.600043
-0.542157
-0.47101
-0.383484
-0.293388
-0.200978
-0.108365
-0.0191967
0.0631017
0.128071
0.13012
0.121928
-0.00290484
-0.0938705
-0.145307
-0.132705
-0.148443
-0.153638
-0.151927
-0.640892
-0.623928
-0.568058
-0.497681
-0.410827
-0.323029
-0.232795
-0.143021
-0.0584182
0.0201336
0.0835896
0.0819539
0.0647145
-0.0456779
-0.107526
-0.139245
-0.177418
-0.149014
-0.154675
-0.149079
-0.662869
-0.646634
-0.592806
-0.523671
-0.438568
-0.353228
-0.265298
-0.178444
-0.0984242
-0.0238958
0.0391058
0.038214
0.00871648
-0.0799901
-0.12015
-0.113848
-0.186424
-0.129145
-0.144252
-0.136368
-0.682613
-0.667504
-0.615785
-0.547957
-0.465972
-0.382994
-0.297629
-0.21397
-0.138244
-0.0684179
-0.00590264
-0.00217637
-0.036002
-0.0988704
-0.127879
-0.0876693
-0.133475
-0.11532
-0.121412
-0.118129
-0.698349
-0.684853
-0.635796
-0.570177
-0.492163
-0.411633
-0.329251
-0.248973
-0.176955
-0.112691
-0.0511525
-0.0400945
-0.0676237
-0.100491
-0.116416
-0.0933897
-0.10718
-0.111201
-0.112495
-0.112655
-0.709403
-0.698051
-0.652391
-0.589406
-0.515333
-0.437945
-0.358988
-0.282426
-0.213749
-0.155519
-0.0955521
-0.0753319
-0.0895517
-0.09632
-0.107032
-0.117192
-0.110288
-0.114274
-0.112638
-0.113786
-0.714272
-0.705306
-0.663829
-0.604455
-0.534574
-0.461052
-0.386035
-0.313407
-0.247861
-0.195196
-0.13635
-0.109152
-0.117001
-0.0954666
-0.107883
-0.140102
-0.119339
-0.124175
-0.117741
-0.118723
-0.713097
-0.706232
-0.669157
-0.613803
-0.548344
-0.479375
-0.408946
-0.3406
-0.278561
-0.229976
-0.172628
-0.141227
-0.139679
-0.101819
-0.105993
-0.135765
-0.11252
-0.127515
-0.123772
-0.125718
-0.704917
-0.697648
-0.665641
-0.616065
-0.556117
-0.49225
-0.426669
-0.362574
-0.304064
-0.258114
-0.203279
-0.169266
-0.153786
-0.110976
-0.057346
-0.045763
-0.0555057
-0.0645993
-0.0682064
-0.0719385
-0.683954
-0.675628
-0.651913
-0.609929
-0.556385
-0.498222
-0.438225
-0.378235
-0.322479
-0.277873
-0.226173
-0.186935
-0.166313
-0.163627
-0.167074
-0.207279
-0.220648
-0.215347
-0.207475
-0.199942
-0.641132
-0.63334
-0.625085
-0.595345
-0.550202
-0.498293
-0.443238
-0.38629
-0.331616
-0.286524
-0.236775
-0.191111
-0.230005
-0.322904
-0.517402
-0.68662
-0.701864
-0.683386
-0.624431
-0.568806
-0.600798
-0.598084
-0.596677
-0.573902
-0.537757
-0.492899
-0.442454
-0.387562
-0.331074
-0.281585
-0.232624
-0.16464
-0.186089
-0.273584
-0.394748
-0.431022
-0.378542
-0.311883
-0.269569
-0.247104
-0.577764
-0.579576
-0.56932
-0.556033
-0.527503
-0.486587
-0.437341
-0.382438
-0.321124
-0.260609
-0.203915
-0.0944937
0.0353069
0.226209
0.409279
0.593263
0.7291
0.807357
0.849987
0.887068
-0.546758
-0.546373
-0.543521
-0.542343
-0.518356
-0.481081
-0.432572
-0.375545
-0.308263
-0.231924
-0.153903
-0.0220639
0.182662
0.491628
0.787846
1.03691
1.21282
1.31401
1.36147
1.3768
-0.534897
-0.53301
-0.536087
-0.528298
-0.511728
-0.477404
-0.427794
-0.367737
-0.296468
-0.208186
-0.111545
0.0143401
0.244709
0.561183
0.86792
1.1256
1.3164
1.42686
1.47603
1.49236
-0.521639
-0.520004
-0.523303
-0.515141
-0.510959
-0.477383
-0.426495
-0.363033
-0.287934
-0.193098
-0.0879218
0.0176348
0.23656
0.515149
0.787932
1.02364
1.20807
1.31929
1.36892
1.38257
-0.511236
-0.511171
-0.510558
-0.509639
-0.507438
-0.475892
-0.426526
-0.362896
-0.285778
-0.189948
-0.0859783
-0.00284364
0.182753
0.419812
0.645791
0.840698
0.997989
1.09429
1.13623
1.14648
-0.507374
-0.50846
-0.506903
-0.511662
-0.506269
-0.477741
-0.429116
-0.365867
-0.289992
-0.198453
-0.0993908
-0.0332746
0.113871
0.313056
0.494762
0.645983
0.767581
0.843078
0.874984
0.882705
-0.498702
-0.499711
-0.497602
-0.50165
-0.496098
-0.479486
-0.435987
-0.37258
-0.298376
-0.213211
-0.119636
-0.0640472
0.0460946
0.210128
0.353342
0.467196
0.557064
0.613982
0.638107
0.64333
-0.490901
-0.489172
-0.484613
-0.480196
-0.474094
-0.473855
-0.43834
-0.378149
-0.306501
-0.228842
-0.141003
-0.091414
-0.0135353
0.118782
0.230396
0.31572
0.38175
0.424268
0.440535
0.444753
-0.508384
-0.504628
-0.499901
-0.495869
-0.494016
-0.491569
-0.4445
-0.381699
-0.31069
-0.240897
-0.159683
-0.113937
-0.0617756
0.043522
0.129757
0.193519
0.242475
0.27433
0.285657
0.289892
-0.551089
-0.550458
-0.553148
-0.560034
-0.558909
-0.534536
-0.461358
-0.38612
-0.311176
-0.247083
-0.173661
-0.130795
-0.0962967
-0.0130686
0.0524138
0.0999483
0.137158
0.161396
0.170812
0.173266
-0.591301
-0.596625
-0.610812
-0.620127
-0.61603
-0.565431
-0.472319
-0.386079
-0.305094
-0.245526
-0.181159
-0.141269
-0.116752
-0.0514657
-0.0031314
0.0317151
0.0594809
0.0763935
0.0838166
0.0857659
-0.547336
-0.551221
-0.567166
-0.57893
-0.57756
-0.529384
-0.446866
-0.365917
-0.28977
-0.233857
-0.180471
-0.14543
-0.124218
-0.0751389
-0.0404292
-0.0152058
0.00371749
0.014433
0.0186475
0.0192005
-0.398376
-0.405892
-0.417494
-0.427143
-0.427325
-0.402709
-0.359001
-0.309962
-0.25589
-0.21031
-0.170702
-0.142761
-0.122929
-0.0876441
-0.0633911
-0.0467574
-0.0355252
-0.029933
-0.0284923
-0.0290881
-0.229205
-0.233101
-0.239493
-0.247772
-0.253554
-0.250852
-0.240931
-0.225322
-0.200558
-0.175214
-0.151279
-0.132192
-0.115802
-0.0921572
-0.0766779
-0.0669947
-0.0614478
-0.0597298
-0.0603857
-0.0615688
-0.0870004
-0.0890531
-0.0935742
-0.101947
-0.113119
-0.124417
-0.134784
-0.141538
-0.13971
-0.134478
-0.124588
-0.114934
-0.104835
-0.0909032
-0.0823498
-0.0781223
-0.0767586
-0.0774989
-0.0791701
-0.0805783
0.00827319
0.00659472
0.00327693
-0.00515201
-0.0201396
-0.0391199
-0.0584845
-0.0757242
-0.0868009
-0.0951973
-0.0950745
-0.0935565
-0.0908932
-0.0845546
-0.0817616
-0.0815949
-0.0829257
-0.0851184
-0.0870972
-0.0885071
0.0543994
0.0540026
0.0520624
0.0447126
0.0294231
0.00846233
-0.0134151
-0.0337566
-0.0490524
-0.0629115
-0.0678759
-0.0713885
-0.0751708
-0.0736932
-0.0756945
-0.078883
-0.0820236
-0.0848786
-0.0868261
-0.0881131
0.0735353
0.0729659
0.0712428
0.0649298
0.0513967
0.0320272
0.0107609
-0.00985672
-0.0259456
-0.0405784
-0.0468776
-0.0523708
-0.0589891
-0.0614608
-0.0666853
-0.0717466
-0.0758708
-0.0790213
-0.0808306
-0.0819434
0.0747383
0.07432
0.072973
0.0680709
0.0573885
0.0415394
0.0229753
0.00368465
-0.0120714
-0.026451
-0.0327119
-0.0383703
-0.0452326
-0.0505045
-0.0569865
-0.0624917
-0.0667669
-0.0698627
-0.0713993
-0.072327
0.0676008
0.0673177
0.0663019
0.0626769
0.0547385
0.0427314
0.0279668
0.011441
-0.0028768
-0.0168972
-0.0232363
-0.0283314
-0.0347028
-0.0407569
-0.0473015
-0.0525157
-0.0564922
-0.0592484
-0.0604177
-0.0611663
0.0572856
0.0571196
0.0563854
0.0538138
0.0481153
0.0393482
0.028295
0.0152957
0.00362935
-0.00938769
-0.0160503
-0.0208151
-0.0263221
-0.0318224
-0.0378266
-0.0425189
-0.0460648
-0.0484522
-0.0493537
-0.0499475
0.0462751
0.0461975
0.0456865
0.0439577
0.0400019
0.0337569
0.0257245
0.0159196
0.00733766
-0.00364818
-0.00980197
-0.014227
-0.0190749
-0.0238253
-0.0290454
-0.0330394
-0.0360852
-0.0381155
-0.0387888
-0.039246
0.0357933
0.0357638
0.0354127
0.0342929
0.0316161
0.0272988
0.0215831
0.0142919
0.00832754
-0.00014563
-0.00480127
-0.00841909
-0.0125888
-0.0167066
-0.0211908
-0.0245207
-0.026994
-0.0286145
-0.0291551
-0.0295353
0.0263061
0.0263116
0.0260688
0.0253786
0.0236239
0.0207578
0.0168493
0.0115521
0.00761103
0.00137707
-0.00169857
-0.0043093
-0.00754322
-0.0108683
-0.0145458
-0.0171541
-0.0190345
-0.0202537
-0.0206486
-0.0209514
0.0178191
0.0178299
0.0176799
0.0173052
0.0162121
0.0144058
0.0119527
0.00826031
0.0058875
0.00151207
-0.000236876
-0.00183565
-0.00411177
-0.00644878
-0.00919184
-0.0110647
-0.0123524
-0.0131282
-0.0133963
-0.0136733
0.0100567
0.0100703
0.0100289
0.00990411
0.00934855
0.00836284
0.00710864
0.00479067
0.00366256
0.00090064
0.00017484
-0.000677221
-0.00199192
-0.00325025
-0.00514396
-0.00622985
-0.0069326
-0.00730029
-0.00731479
-0.0075205
0.00321385
0.00322338
0.00324377
0.00329829
0.00320083
0.00288965
0.00258518
0.00153058
0.0013789
0.000167669
0.000159885
8.70808e-06
-0.00068481
-0.000950841
-0.00212242
-0.00268973
-0.00327747
-0.00363286
-0.00339021
-0.00337379
-1.07635
-0.241466
0.0283653
0.302615
0.481362
0.633909
0.755049
0.878916
1.01712
1.10249
-0.101346
0.302817
0.316871
0.50354
0.624239
0.732503
0.825209
0.908192
0.934852
0.893718
0.27069
0.482584
0.515287
0.650613
0.734118
0.811942
0.876199
0.92454
0.926223
0.940825
0.496832
0.637644
0.671867
0.771604
0.827846
0.883903
0.927967
0.959911
0.968783
0.99265
0.672121
0.771801
0.801428
0.867341
0.911599
0.951577
0.983251
1.00735
1.01699
1.04872
0.813567
0.881366
0.91146
0.953495
0.989173
1.01884
1.04284
1.06357
1.07755
1.10595
0.931541
0.981543
1.00689
1.03447
1.06177
1.08533
1.10514
1.12437
1.13917
1.16576
1.03458
1.0713
1.0922
1.11265
1.13324
1.1525
1.16985
1.18796
1.20281
1.2265
1.12813
1.1571
1.17333
1.1885
1.20451
1.22052
1.23604
1.25294
1.26656
1.28889
1.21616
1.23655
1.25135
1.26447
1.27801
1.29175
1.30525
1.31983
1.33137
1.35101
1.30148
1.31724
1.33105
1.34285
1.35475
1.36638
1.37752
1.38918
1.39686
1.41365
1.38667
1.39921
1.41292
1.42466
1.43529
1.44509
1.45391
1.46217
1.46573
1.47695
1.47541
1.48624
1.49971
1.50923
1.51679
1.52409
1.53126
1.53773
1.53884
1.54618
1.57381
1.57842
1.58661
1.59134
1.59473
1.59921
1.6052
1.61285
1.61676
1.62663
1.68709
1.67398
1.66669
1.66098
1.65826
1.65959
1.6659
1.67827
1.6931
1.72277
1.80905
1.75301
1.72199
1.7048
1.69658
1.6965
1.70537
1.725
1.75677
1.82605
)
;

boundaryField
{
    wall-4
    {
        type            zeroGradient;
    }
    pressure-outlet-7
    {
        type            fixedValue;
        value           uniform 0;
    }
    velocity-inlet-6
    {
        type            zeroGradient;
    }
    velocity-inlet-5
    {
        type            zeroGradient;
    }
    frontAndBackPlanes
    {
        type            empty;
    }
}


// ************************************************************************* //
