/*--------------------------------*- C++ -*----------------------------------*\
| =========                 |                                                 |
| \\      /  F ield         | OpenFOAM: The Open Source CFD Toolbox           |
|  \\    /   O peration     | Version:  4.0                                   |
|   \\  /    A nd           | Web:      www.OpenFOAM.org                      |
|    \\/     M anipulation  |                                                 |
\*---------------------------------------------------------------------------*/
FoamFile
{
    version     2.0;
    format      ascii;
    class       surfaceScalarField;
    location    "69";
    object      phi;
}
// * * * * * * * * * * * * * * * * * * * * * * * * * * * * * * * * * * * * * //

dimensions      [0 3 -1 0 0 0 0];

internalField   nonuniform List<scalar> 
4262
(
0.107135
0.470853
0.0955713
0.705149
0.0693867
0.858488
0.0473719
1.02078
0.0309883
1.2149
0.0197724
1.44944
0.0123506
1.73329
0.00714055
2.07625
0.00320941
2.48917
-0.000575912
2.98608
-0.00430247
2.98602
-0.00806769
2.48901
-0.0130475
2.07602
-0.0201871
1.733
-0.0311084
1.44914
-0.0471613
1.21457
-0.0689108
1.02051
-0.0951841
0.858576
-0.107061
0.705463
0.470927
0.112857
0.357996
0.135251
0.682756
0.120347
0.873391
0.097801
1.04332
0.0745504
1.23815
0.0528138
1.47117
0.0344243
1.75167
0.0202184
2.09045
0.00894288
2.50045
-0.00095731
2.99598
-0.011064
2.99613
-0.0223636
2.50031
-0.0364921
2.09014
-0.0547957
1.75131
-0.0766472
1.47099
-0.100388
1.23831
-0.12355
1.04367
-0.137046
0.872072
-0.113578
0.681995
0.357349
0.0920345
0.265962
0.124949
0.649842
0.121061
0.877278
0.104754
1.05963
0.0860886
1.25682
0.0669485
1.49031
0.0479469
1.77068
0.0298223
2.10858
0.0131456
2.51713
-0.00290728
3.01203
-0.0185902
3.01181
-0.0344398
2.51616
-0.0518957
2.1076
-0.0703004
1.76971
-0.0885911
1.48928
-0.105755
1.25547
-0.119845
1.05776
-0.125252
0.877479
-0.0923692
0.649112
0.26498
0.0639658
0.201996
0.104765
0.609043
0.106526
0.875517
0.0951391
1.07102
0.0811955
1.27076
0.0664344
1.50507
0.0503187
1.78679
0.0331927
2.1257
0.0155768
2.53474
-0.00312062
3.03073
-0.0216168
3.0303
-0.0390302
2.53357
-0.0555379
2.12411
-0.0707563
1.78493
-0.0845575
1.50308
-0.0982661
1.26918
-0.110035
1.06953
-0.107032
0.874477
-0.0648994
0.606979
0.200081
0.0374628
0.164533
0.0806647
0.565841
0.0908933
0.865289
0.0836433
1.07827
0.0709861
1.28342
0.0590939
1.51697
0.0460098
1.79988
0.03093
2.14078
0.0138047
2.55187
-0.00538155
3.04991
-0.0240212
3.04894
-0.0398274
2.54938
-0.0536292
2.13791
-0.0657343
1.79703
-0.0769984
1.51435
-0.0889305
1.28112
-0.0952453
1.07585
-0.0833653
0.862597
-0.0384553
0.562069
0.161625
0.0194347
0.145098
0.0571156
0.52816
0.0724727
0.849931
0.0703511
1.08039
0.0615362
1.29223
0.0506479
1.52785
0.0394923
1.81103
0.0269269
2.15335
0.011976
2.56682
-0.00571576
3.06761
-0.0231835
3.06641
-0.0376653
2.56386
-0.0492479
2.14949
-0.0591114
1.8069
-0.0688946
1.52413
-0.0765045
1.28873
-0.0772971
1.07664
-0.0601223
0.845422
-0.0204228
0.522369
0.141203
0.0105963
0.134502
0.0422609
0.496495
0.0583148
0.833878
0.0585414
1.08016
0.0523323
1.29844
0.0428946
1.53729
0.0324126
1.82151
0.020863
2.1649
0.00733607
2.58035
-0.00865869
3.0836
-0.0238733
3.08163
-0.0355362
2.57552
-0.0452267
2.15918
-0.0541394
1.81581
-0.0620469
1.53204
-0.0665596
1.29324
-0.0645333
1.07461
-0.0460458
0.826934
-0.0117436
0.488067
0.129459
0.00653603
0.127966
0.0328301
0.470201
0.0490106
0.817697
0.0504544
1.07872
0.045336
1.30356
0.0369475
1.54568
0.0273025
1.83116
0.0165014
2.1757
0.00455306
2.59229
-0.00937933
3.09753
-0.0230967
3.09534
-0.0341384
2.58656
-0.0433228
2.16837
-0.0508889
1.82338
-0.0573187
1.53847
-0.0604462
1.29637
-0.0567291
1.0709
-0.0374579
0.807663
-0.00794185
0.458551
0.121517
0.00467291
0.123293
0.0264241
0.44845
0.0421469
0.801974
0.0441726
1.07669
0.0394091
1.30832
0.0316043
1.55348
0.0223129
1.84045
0.0115627
2.18645
-0.000298393
2.60416
-0.0134222
3.11066
-0.0251143
3.10704
-0.0344814
2.59593
-0.042618
2.1765
-0.0495345
1.83029
-0.0549528
1.54389
-0.0571325
1.29855
-0.0519934
1.06576
-0.0321905
0.78786
-0.00642035
0.432781
0.115097
0.00369745
0.119596
0.0215148
0.430633
0.0365244
0.786965
0.0391986
1.07402
0.0348148
1.31271
0.0274418
1.56086
0.0186294
1.84926
0.008578
2.1965
-0.00270124
2.61543
-0.0149753
3.12293
-0.0266701
3.11873
-0.0362922
2.60555
-0.0437087
2.18392
-0.0495285
1.83611
-0.0540937
1.54845
-0.0552206
1.29967
-0.0487241
1.05926
-0.0285629
0.767699
-0.00584276
0.410061
0.109254
0.00299229
0.116603
0.0173568
0.416268
0.0311418
0.77318
0.0339568
1.07121
0.0296437
1.31702
0.0223086
1.56819
0.0135072
1.85806
0.00325902
2.20675
-0.00823856
2.62693
-0.0204101
3.1351
-0.0309918
3.12931
-0.0388484
2.61341
-0.0453262
2.1904
-0.0505999
1.84139
-0.0543066
1.55216
-0.0542811
1.29965
-0.0462878
1.05127
-0.0259283
0.74734
-0.00561167
0.389744
0.103642
0.00231288
0.11429
0.0136232
0.404958
0.0260381
0.760765
0.0290244
1.06822
0.0249772
1.32107
0.0178988
1.57527
0.0094287
1.86653
-0.000184162
2.21636
-0.0110538
2.6378
-0.0232972
3.14735
-0.0342962
3.14031
-0.0425397
2.62165
-0.0482277
2.19609
-0.0522649
1.84542
-0.0548096
1.5547
-0.0540667
1.2989
-0.0446245
1.04183
-0.0240784
0.726793
-0.0054907
0.371156
0.0981517
0.0016349
0.112656
0.0103123
0.396281
0.0209415
0.750136
0.0234038
1.06576
0.0191177
1.32535
0.0118401
1.58255
0.00297294
1.8754
-0.00734959
2.22668
-0.0188329
2.64928
-0.0304498
3.15896
-0.0399362
3.1498
-0.0464253
2.62814
-0.0511878
2.20085
-0.0548171
1.84905
-0.056469
1.55636
-0.0547076
1.29714
-0.0438876
1.03101
-0.0229615
0.705867
-0.00545642
0.353651
0.0926953
0.000740184
0.111915
0.00680384
0.390217
0.0156674
0.741272
0.0176209
1.0638
0.0130582
1.32992
0.00555664
1.59005
-0.00326836
1.88423
-0.0129094
2.23632
-0.0233775
2.65975
-0.0352283
3.17081
-0.045416
3.15999
-0.051883
2.63461
-0.0555886
2.20455
-0.0581244
1.85159
-0.0587811
1.55701
-0.0559608
1.29432
-0.0437114
1.01876
-0.0223141
0.68447
-0.00543951
0.336777
0.0872558
0.000101899
0.111813
0.00400201
0.386317
0.0106475
0.734627
0.0116119
1.06284
0.00657924
1.33495
-0.00135872
1.59799
-0.0109712
1.89384
-0.021972
2.24733
-0.0340951
2.67188
-0.045683
3.1824
-0.0536885
3.16799
-0.0584057
2.63933
-0.0614504
2.2076
-0.0633699
1.85351
-0.0630333
1.55668
-0.0585805
1.28987
-0.0445159
1.00469
-0.0222748
0.662229
-0.0055393
0.320041
0.0817165
-0.000887719
0.112701
0.00031376
0.385115
0.00473675
0.730204
0.00453148
1.06304
-0.00131373
1.34079
-0.0101894
1.60686
-0.020453
1.9041
-0.0312373
2.25811
-0.0419788
2.68262
-0.0526925
3.19312
-0.0614997
3.1768
-0.0662774
2.6441
-0.0681578
2.20948
-0.0691182
1.85447
-0.0679368
1.55549
-0.0618354
1.28377
-0.0459139
0.98877
-0.0226309
0.638946
-0.00568725
0.303098
0.0760293
-0.00183874
0.11454
-0.00298176
0.386258
-0.00149859
0.72872
-0.00324313
1.06479
-0.00988702
1.34744
-0.0192815
1.61626
-0.0302068
1.91503
-0.0424281
2.27033
-0.0555738
2.69576
-0.0676329
3.20517
-0.0745359
3.1837
-0.0774505
2.64702
-0.0788179
2.21085
-0.0782636
1.85392
-0.0752116
1.55244
-0.0670431
1.2756
-0.0486343
0.970362
-0.0236984
0.61401
-0.00601687
0.285416
0.0700124
-0.00314704
0.117687
-0.00666097
0.389772
-0.00863942
0.730699
-0.0123284
1.06848
-0.0202238
1.35533
-0.0310927
1.62713
-0.0434742
1.92741
-0.056496
2.28335
-0.0688952
2.70816
-0.0791217
3.2154
-0.0857595
3.19034
-0.0886257
2.64989
-0.0884545
2.21068
-0.0872807
1.85274
-0.0834546
1.54862
-0.0730301
1.26518
-0.0519381
0.94927
-0.0250988
0.587171
-0.00638292
0.2667
0.0636295
-0.00451833
0.122205
-0.0110014
0.396255
-0.0163512
0.736049
-0.0229723
1.0751
-0.0322684
1.36463
-0.0442985
1.63916
-0.057654
1.94077
-0.0719036
2.2976
-0.0861932
2.72245
-0.0990063
3.22821
-0.105305
3.19664
-0.106157
2.65074
-0.104729
2.20925
-0.101078
1.84909
-0.0946823
1.54222
-0.0815135
1.25201
-0.0568816
0.924638
-0.0272039
0.557493
-0.00689819
0.246394
0.0567313
-0.00588851
0.128094
-0.0158426
0.406209
-0.0251934
0.745399
-0.034665
1.08457
-0.0462576
1.37622
-0.0606028
1.6535
-0.0762415
1.9564
-0.0923796
2.31374
-0.1074
2.73747
-0.117922
3.23874
-0.12173
3.20045
-0.121998
2.651
-0.119323
2.20657
-0.115165
1.84493
-0.107633
1.53469
-0.0909859
1.23536
-0.0622734
0.895925
-0.0294877
0.524707
-0.00739708
0.224304
0.0493342
-0.00826826
0.136362
-0.0229936
0.420935
-0.0380128
0.760419
-0.050871
1.09743
-0.0641715
1.38952
-0.080342
1.66967
-0.0977651
1.97383
-0.115343
2.33132
-0.131115
2.75324
-0.143116
3.25074
-0.148157
3.20549
-0.146303
2.64915
-0.141692
2.20196
-0.134727
1.83797
-0.123562
1.52352
-0.102946
1.21474
-0.0692595
0.862239
-0.032202
0.48765
-0.00791618
0.200018
0.041418
-0.0107029
0.147065
-0.0299716
0.440203
-0.0507005
0.781148
-0.0687638
1.11549
-0.0859752
1.40673
-0.105251
1.68895
-0.125551
1.99413
-0.145522
2.35129
-0.162813
2.77054
-0.173874
3.2618
-0.174829
3.20644
-0.170509
2.64483
-0.163995
2.19545
-0.155439
1.82941
-0.142107
1.51019
-0.116262
1.1889
-0.0763373
0.822315
-0.0347179
0.446031
-0.00830398
0.173604
0.033114
-0.0154102
0.162475
-0.0423482
0.467141
-0.0700462
0.808846
-0.092824
1.13827
-0.113489
1.4274
-0.136579
1.71204
-0.159709
2.01726
-0.181038
2.37262
-0.197532
2.78703
-0.206268
3.27053
-0.206288
3.20646
-0.201108
2.63965
-0.192876
2.18721
-0.181751
1.81829
-0.16336
1.4918
-0.131551
1.15709
-0.0845523
0.775316
-0.0371793
0.398658
-0.00856814
0.144993
0.0245459
-0.0196557
0.182131
-0.0556213
0.503107
-0.0933013
0.846526
-0.124091
1.16906
-0.150883
1.45419
-0.178254
1.73941
-0.203967
2.04297
-0.226084
2.39474
-0.242115
2.80306
-0.249216
3.27763
-0.245555
3.2028
-0.235382
2.62948
-0.223065
2.1749
-0.208734
1.80396
-0.18684
1.46991
-0.147228
1.11748
-0.0911777
0.719266
-0.0383821
0.345862
-0.00832906
0.11494
0.0162168
-0.0329391
0.21507
-0.0823718
0.55254
-0.130521
0.894675
-0.167959
1.2065
-0.200156
1.48639
-0.231754
1.77101
-0.258414
2.06963
-0.279476
2.4158
-0.292257
2.81584
-0.293683
3.27906
-0.284459
3.19358
-0.272307
2.61733
-0.25954
2.16213
-0.242275
1.78669
-0.212666
1.4403
-0.163732
1.06854
-0.0983045
0.653838
-0.0393716
0.286929
-0.00801111
0.0835793
0.00820573
-0.0472854
0.262355
-0.121386
0.626641
-0.185474
0.958763
-0.231331
1.25235
-0.26972
1.52478
-0.302309
1.8036
-0.326976
2.0943
-0.344276
2.4331
-0.352153
2.82372
-0.348124
3.27503
-0.334599
3.18005
-0.317138
2.59987
-0.29758
2.14257
-0.27447
1.76358
-0.238285
1.40411
-0.17755
1.00781
-0.0998806
0.576169
-0.0375111
0.22456
-0.00765404
0.0537223
0.000551692
-0.0343984
0.296754
-0.0986576
0.6909
-0.157604
1.01771
-0.206152
1.3009
-0.250614
1.56924
-0.290479
1.84346
-0.328056
2.13187
-0.362487
2.46753
-0.390112
2.85134
-0.407869
3.29279
-0.410245
3.18243
-0.402562
2.59218
-0.390228
2.13024
-0.364576
1.73793
-0.309321
1.34886
-0.218487
0.916975
-0.113525
0.471207
-0.041384
0.152418
-0.0089574
0.0212957
-0.00840571
-0.0124994
0.309253
-0.0476969
0.726097
-0.0903031
1.06032
-0.130553
1.34115
-0.170557
1.60924
-0.206794
1.8797
-0.240916
2.166
-0.271055
2.49767
-0.293851
2.87414
-0.303714
3.30265
-0.298264
3.17698
-0.286644
2.58056
-0.266959
2.11055
-0.23552
1.70649
-0.187782
1.30112
-0.120887
0.85008
-0.0553378
0.405658
-0.0208335
0.117914
-0.00484416
0.00530634
-0.0132499
-0.000240209
0.309493
-0.0243499
0.750207
-0.0542048
1.09017
-0.0854385
1.37239
-0.118277
1.64208
-0.149914
1.91134
-0.179415
2.1955
-0.204625
2.52288
-0.221822
2.89134
-0.227007
3.30784
-0.220468
3.17044
-0.203048
2.56315
-0.179939
2.08744
-0.151768
1.67832
-0.109603
1.25895
-0.0587964
0.799273
-0.0228975
0.369759
-0.00977912
0.104795
-0.00291944
-0.00155334
-0.0161693
0.00102499
0.308468
-0.0135926
0.764825
-0.0348059
1.11138
-0.0590389
1.39662
-0.0851414
1.66818
-0.112026
1.93822
-0.137472
2.22094
-0.158721
2.54413
-0.172475
2.90509
-0.174013
3.30937
-0.161148
3.15757
-0.141185
2.54318
-0.116447
2.06271
-0.0831323
1.645
-0.0485199
1.22434
-0.0189454
0.769699
-0.00421045
0.355024
-0.00229121
0.102876
-0.00142767
-0.00241689
-0.017597
0.00501738
0.303451
-0.00303634
0.772878
-0.0215861
1.12993
-0.0434285
1.41846
-0.0661006
1.69085
-0.0883701
1.96049
-0.109373
2.24195
-0.12688
2.56163
-0.137239
2.91545
-0.135619
3.30776
-0.121013
3.14297
-0.0981432
2.52031
-0.0702058
2.03477
-0.0438762
1.61868
-0.0145876
1.19505
0.00796004
0.747151
0.0106134
0.352371
0.00495806
0.108532
0.000890245
0.00165093
-0.0167067
0.00515354
0.298297
-0.000831176
0.778863
-0.0162879
1.14539
-0.0340363
1.43621
-0.0530035
1.70982
-0.0725407
1.98003
-0.0913298
2.26073
-0.106792
2.5771
-0.11519
2.92385
-0.112038
3.3046
-0.0954781
3.12641
-0.0719702
2.4968
-0.047014
2.00981
-0.0173418
1.589
0.00657719
1.17113
0.018233
0.735496
0.0170341
0.353569
0.00865473
0.116911
0.00209243
0.00821323
-0.0146143
0.00510323
0.293194
0.00159572
0.782371
-0.0114521
1.15844
-0.0284331
1.45319
-0.0462386
1.72763
-0.0637379
1.99753
-0.080092
2.27709
-0.0933341
2.59034
-0.100219
2.93073
-0.0964397
3.30082
-0.0797022
3.10967
-0.0553763
2.47248
-0.0286412
1.98308
-0.00696297
1.56732
0.0125917
1.15158
0.0238513
0.724236
0.0195013
0.35792
0.0101268
0.126285
0.00267033
0.0156697
-0.011944
0.00274718
0.290447
-0.000455298
0.785573
-0.0116751
1.16966
-0.0259519
1.46747
-0.0416214
1.7433
-0.0576927
2.0136
-0.0730983
2.29249
-0.0857919
2.60303
-0.0926135
2.93755
-0.0888294
3.29704
-0.0719563
3.0928
-0.0503868
2.45091
-0.0277272
1.96042
-0.00157997
1.54118
0.0167474
1.13325
0.0231225
0.717861
0.0194228
0.361619
0.0103329
0.135375
0.00287669
0.0231258
-0.00906729
0.00186259
0.288584
-0.000440275
0.787876
-0.0109922
1.18021
-0.0246379
1.48111
-0.039878
1.75854
-0.0550488
2.02877
-0.0694659
2.30691
-0.081623
2.61519
-0.088649
2.94458
-0.0857687
3.29416
-0.0699426
3.07697
-0.048153
2.42912
-0.02412
1.93638
-0.00536657
1.52242
0.0114673
1.11642
0.0207964
0.708532
0.0170379
0.365378
0.00935126
0.143062
0.00270476
0.0297723
-0.00636253
-0.000491488
0.289076
-0.00436944
0.791754
-0.0133728
1.18921
-0.0251846
1.49293
-0.0389422
1.77229
-0.0533423
2.04317
-0.0676698
2.32124
-0.0802697
2.62779
-0.0878831
2.95219
-0.0856307
3.29191
-0.0710462
3.06239
-0.0523925
2.41047
-0.0329595
1.91695
-0.00926297
1.49873
0.00776587
1.09939
0.0141484
0.702149
0.0131616
0.366364
0.00739641
0.148827
0.00225912
0.0349096
-0.00410341
-0.000854395
0.28993
-0.00493373
0.795833
-0.0138866
1.19817
-0.0255403
1.50458
-0.0391128
1.78587
-0.0531931
2.05725
-0.0672333
2.33528
-0.0797503
2.64031
-0.0880831
2.96052
-0.0880775
3.2919
-0.0760888
3.0504
-0.0563553
2.39073
-0.0339975
1.89459
-0.0171398
1.48187
-0.00137735
1.08363
0.00883964
0.691932
0.00873194
0.366472
0.00539168
0.152168
0.00177222
0.0385291
-0.00233119
-0.00248105
0.292411
-0.00787658
0.801229
-0.0163127
1.2066
-0.0269682
1.51523
-0.0395444
1.79844
-0.05308
2.07079
-0.0670949
2.34929
-0.0803315
2.65354
-0.0901882
2.97038
-0.0917845
3.2935
-0.0807682
3.03938
-0.0638925
2.37386
-0.0457465
1.87645
-0.0233505
1.45947
-0.00678453
1.06706
0.00110945
0.684038
0.0045784
0.363003
0.00327074
0.153475
0.00125026
0.0405496
-0.00108093
-0.00348481
0.295896
-0.00827582
0.80602
-0.0167346
1.21506
-0.0274844
1.52598
-0.0399794
1.81094
-0.0533154
2.08412
-0.0673517
2.36333
-0.0809798
2.66717
-0.0919212
2.98132
-0.0959444
3.29752
-0.0883069
3.03174
-0.0714367
2.35699
-0.0484659
1.85348
-0.0312073
1.44222
-0.0150536
1.05091
-0.00270812
0.671693
0.000833062
0.359462
0.00167652
0.152632
0.000786212
0.0414399
-0.000294722
-0.00409814
0.299994
-0.010223
0.812145
-0.0185512
1.22339
-0.0286071
1.53604
-0.0404139
1.82274
-0.0533791
2.09709
-0.0674663
2.37742
-0.0818152
2.68152
-0.0943709
2.99388
-0.100764
3.30391
-0.0950912
3.02607
-0.0796432
2.34154
-0.0608523
1.83469
-0.0364761
1.41784
-0.0178776
1.03231
-0.00737877
0.661194
-0.00148344
0.353567
0.000294973
0.150853
0.000506522
0.0412283
0.000211798
-0.00406933
0.304064
-0.0100748
0.81815
-0.0184758
1.23179
-0.0286142
1.54618
-0.0403939
1.83452
-0.0532555
2.10995
-0.0674811
2.39164
-0.0822972
2.69634
-0.0960296
3.00761
-0.105063
3.31295
-0.103233
3.02424
-0.0885794
2.32688
-0.0641347
1.81024
-0.0425027
1.39621
-0.0221839
1.01199
-0.00726338
0.646273
-0.00181223
0.348116
-0.00015587
0.149197
-0.000475889
0.0415483
-0.000264094
-0.00425385
0.308318
-0.0111874
0.825084
-0.0194932
1.2401
-0.0290946
1.55578
-0.0403722
1.8458
-0.0529796
2.12256
-0.0672113
2.40587
-0.0825605
2.71169
-0.0977428
3.02279
-0.109117
3.32432
-0.109154
3.02428
-0.0964975
2.31423
-0.0766993
1.79044
-0.0464651
1.36597
-0.0207153
0.98624
-0.00537707
0.630935
0.00337184
0.339367
0.00467216
0.147897
0.00251986
0.0437006
0.00225576
-0.00416616
0.312484
-0.010715
0.831632
-0.0189048
1.24829
-0.0285465
1.56542
-0.0397691
1.85702
-0.0522525
2.13504
-0.0665657
2.42019
-0.0823191
2.72744
-0.0985495
3.03902
-0.112403
3.33818
-0.11692
3.02879
-0.106326
2.30363
-0.0807024
1.76482
-0.0517556
1.33703
-0.0202742
0.954758
0.00350422
0.607157
0.0126304
0.33024
0.00745352
0.153073
-0.00159955
0.0527537
0.00065621
-0.00430977
0.316793
-0.0113301
0.838653
-0.0193193
1.25627
-0.0284577
1.57456
-0.0392093
1.86778
-0.0514383
2.14727
-0.0656637
2.43441
-0.0817604
2.74354
-0.0991133
3.05638
-0.114965
3.35403
-0.12158
3.03541
-0.113612
2.29567
-0.0941687
1.74538
-0.0568066
1.29966
-0.0150495
0.913001
0.0185553
0.573552
0.0423458
0.30645
0.047916
0.147503
0.0292651
0.0714046
0.0299213
-0.00416455
0.320958
-0.0106721
0.84516
-0.0184196
1.26402
-0.0274918
1.58363
-0.0380849
1.87837
-0.0501057
2.15929
-0.0643067
2.44861
-0.0806825
2.75991
-0.098803
3.0745
-0.116755
3.37198
-0.127645
3.0463
-0.123822
2.29184
-0.100024
1.72158
-0.0645494
1.26419
-0.0151848
0.863636
0.0320873
0.52628
0.0665786
0.271959
0.0552273
0.158855
0.0239647
0.102667
0.0538861
-0.00413053
0.325088
-0.0109268
0.851957
-0.0184337
1.27153
-0.0269693
1.59217
-0.0371021
1.8885
-0.0488416
2.17103
-0.0628773
2.46265
-0.079394
2.77643
-0.0982671
3.09337
-0.117832
3.39154
-0.130036
3.0585
-0.12997
2.29178
-0.115503
1.70711
-0.0754759
1.22416
-0.0193671
0.807528
0.0514203
0.455492
0.14637
0.177009
0.208267
0.0969577
0.186735
0.124199
0.240621
-0.00397095
0.329059
-0.0103329
0.858318
-0.0177677
1.27896
-0.026504
1.6009
-0.0369543
1.89895
-0.0491553
2.18323
-0.0641322
2.47763
-0.0822651
2.79456
-0.103713
3.11482
-0.127725
3.41556
-0.146735
3.07751
-0.153216
2.29826
-0.136163
1.69006
-0.0993485
1.18735
-0.0328647
0.741044
0.0266527
0.395975
-0.04242
0.246081
-0.352389
0.406927
-0.945765
0.717575
0.902468
-1.60761
-0.00387571
0.332935
-0.0104814
0.864924
-0.017783
1.28627
-0.0261957
1.60932
-0.0364344
1.90919
-0.0487586
2.19555
-0.0641575
2.49303
-0.0832296
2.81363
-0.106601
3.13819
-0.134034
3.44299
-0.157139
3.10062
-0.168085
2.3092
-0.169476
1.69145
-0.138656
1.15653
-0.100841
0.703229
-0.204244
0.499378
-0.693959
0.735797
-1.45552
1.16848
-2.05983
1.32189
1.21549
-2.37285
-0.0036414
0.336577
-0.00968444
0.870967
-0.0167317
1.29331
-0.0251484
1.61773
-0.0354127
1.91946
-0.0478409
2.20798
-0.0636814
2.50887
-0.0837315
2.83368
-0.108999
3.16346
-0.14043
3.47442
-0.171151
3.13134
-0.191815
2.32987
-0.193009
1.69264
-0.170786
1.1343
-0.256471
0.788914
-0.752779
0.995686
-1.56089
1.54391
-2.11763
1.72522
-2.35477
1.55903
1.32892
-2.4682
-0.00354122
0.340118
-0.00961037
0.877036
-0.0164544
1.30016
-0.0245089
1.62579
-0.0345096
1.92946
-0.047006
2.22048
-0.0631757
2.52504
-0.0840422
2.85455
-0.111154
3.19057
-0.14614
3.50941
-0.182019
3.16722
-0.209314
2.35716
-0.230087
1.71342
-0.301611
1.20583
-0.672971
1.16027
-1.44751
1.77022
-2.03239
2.12879
-2.27065
1.96349
-2.38299
1.67136
1.39218
-2.44624
-0.00322687
0.343345
-0.00865586
0.882465
-0.0151423
1.30664
-0.0231144
1.63376
-0.0331278
1.93947
-0.0456449
2.233
-0.0621093
2.5415
-0.0838026
2.87624
-0.112701
3.21947
-0.151826
3.54853
-0.196465
3.21186
-0.237154
2.39785
-0.271989
1.74825
-0.454238
1.38808
-1.09761
1.80365
-1.79491
2.46752
-2.11081
2.44469
-2.25773
2.1104
-2.33945
1.75308
1.45832
-2.40559
-0.00323471
0.346579
-0.00890366
0.888134
-0.015436
1.31318
-0.023299
1.64162
-0.0334207
1.94959
-0.0462764
2.24585
-0.063289
2.55851
-0.0859351
2.89889
-0.116709
3.25024
-0.159347
3.59117
-0.209635
3.26215
-0.252893
2.44111
-0.337817
1.83318
-0.73716
1.78742
-1.49411
2.5606
-1.96318
2.93659
-2.16274
2.64426
-2.26855
2.21621
-2.34579
1.83032
1.52143
-2.4089
-0.00329241
0.349872
-0.00884442
0.893686
-0.0156549
1.31999
-0.0241334
1.6501
-0.0349158
1.96037
-0.0484145
2.25935
-0.0663116
2.57641
-0.0903037
2.92288
-0.123217
3.28315
-0.170317
3.63827
-0.227111
3.31894
-0.287226
2.50122
-0.472854
2.0188
-1.04528
2.35984
-1.6807
3.19602
-1.95239
3.20828
-2.09863
2.7905
-2.21246
2.33004
-2.30616
1.92402
1.58296
-2.36769
-0.00343396
0.353306
-0.00976912
0.900021
-0.0170956
1.32731
-0.0258263
1.65883
-0.0369461
1.97149
-0.0511288
2.27353
-0.0699542
2.59524
-0.0952373
2.94816
-0.130218
3.31813
-0.18087
3.68892
-0.242354
3.38042
-0.325706
2.58457
-0.608821
2.30192
-1.26359
3.01461
-1.75021
3.68264
-1.95728
3.41535
-2.09642
2.92964
-2.22035
2.45397
-2.33048
2.03415
1.64163
-2.38915
-0.00336914
0.356675
-0.00943631
0.906089
-0.017098
1.33497
-0.0266472
1.66838
-0.0385831
1.98343
-0.0534708
2.28842
-0.0732296
2.61499
-0.099926
2.97486
-0.137047
3.35525
-0.191587
3.74346
-0.259356
3.44819
-0.38302
2.70824
-0.771271
2.69017
-1.40978
3.65312
-1.75962
4.03248
-1.93202
3.58776
-2.03357
3.03119
-2.12223
2.54263
-2.18884
2.10076
1.63423
-2.18144
-0.00339541
0.36007
-0.0104501
0.913143
-0.0187569
1.34328
-0.0285192
1.67814
-0.0407814
1.99569
-0.0564098
2.30405
-0.0771649
2.63575
-0.105171
3.00287
-0.144273
3.39436
-0.200816
3.80001
-0.277935
3.52531
-0.447248
2.87755
-0.902853
3.14577
-1.45976
4.21003
-1.72026
4.29297
-1.87147
3.73898
-1.96509
3.12481
-1.96577
2.5433
-1.8958
2.03078
1.59648
-1.85804
-0.00317354
0.363244
-0.00964368
0.919613
-0.0181815
1.35182
-0.0288527
1.68881
-0.0419585
2.0088
-0.0580879
2.32018
-0.0792937
2.65696
-0.107865
3.03144
-0.147621
3.43411
-0.204446
3.85683
-0.29001
3.61088
-0.493948
3.08149
-0.986337
3.63816
-1.42646
4.65016
-1.59071
4.45722
-1.65728
3.80555
-1.66164
3.12917
-1.51406
2.39571
-1.01482
1.53155
0.581656
-0.00278724
0.366031
-0.0105654
0.927392
-0.01991
1.36116
-0.0308063
1.69971
-0.0444638
2.02245
-0.0618968
2.33761
-0.0850433
2.6801
-0.116289
3.06268
-0.159984
3.47781
-0.222949
3.9198
-0.325243
3.71317
-0.579423
3.33567
-1.12103
4.17977
-1.47799
5.00712
-1.5769
4.55613
-1.57507
3.80371
-1.4716
3.0257
-1.23288
2.157
-0.630084
0.928752
-0.048428
-0.0024983
0.368529
-0.00891591
0.933809
-0.0183021
1.37055
-0.030529
1.71194
-0.0457149
2.03764
-0.0645314
2.35643
-0.0895021
2.70507
-0.123531
3.09671
-0.171731
3.52601
-0.241769
3.98983
-0.364713
3.83611
-0.678982
3.64994
-1.23933
4.74012
-1.49833
5.26612
-1.55716
4.61496
-1.53475
3.78129
-1.33301
2.82396
-0.780803
1.60479
-0.108392
0.256341
-0.15682
-0.0015152
0.370045
-0.00947336
0.941767
-0.0197313
1.38081
-0.0319457
1.72415
-0.0473736
2.05307
-0.0673941
2.37645
-0.0943885
2.73207
-0.131251
3.13357
-0.183086
3.57784
-0.260253
4.067
-0.408561
3.98442
-0.781034
4.02241
-1.31636
5.27544
-1.49235
5.44211
-1.52311
4.64572
-1.43514
3.69333
-1.09923
2.48805
-0.312448
0.81801
0.0247702
-0.0808775
-0.13205
-0.000988597
0.371033
-0.0063569
0.947136
-0.0161321
1.39058
-0.0298271
1.73785
-0.0469598
2.0702
-0.0683955
2.39788
-0.0971147
2.76079
-0.136493
3.17295
-0.191747
3.6331
-0.278448
4.1537
-0.453611
4.15958
-0.891404
4.4602
-1.36188
5.74592
-1.47693
5.55716
-1.47993
4.64873
-1.25606
3.46946
-0.685114
1.9171
-0.063005
0.195902
0.0300469
-0.173929
-0.102003
9.73644e-05
0.370936
-0.00602415
0.953257
-0.0164797
1.40104
-0.0298255
1.75119
-0.0465165
2.08689
-0.068888
2.42026
-0.0994356
2.79133
-0.141222
3.21474
-0.19925
3.69112
-0.294113
4.24857
-0.494884
4.36035
-0.982511
4.94783
-1.35546
6.11886
-1.42101
5.62271
-1.37474
4.60246
-1.0869
3.18162
-0.322943
1.15315
0.00384017
-0.130882
0.0143692
-0.184458
-0.0876335
0.00324394
0.367692
0.000807014
0.955694
-0.0093957
1.41124
-0.0243213
1.76612
-0.0426833
2.10525
-0.0665188
2.44409
-0.0983757
2.82319
-0.141909
3.25827
-0.20324
3.75245
-0.307446
4.35277
-0.534571
4.58748
-1.04612
5.45938
-1.3216
6.39434
-1.36038
5.66148
-1.22137
4.46345
-0.770438
2.73069
-0.0693627
0.452073
0.0438168
-0.244061
0.0238517
-0.164493
-0.0637819
0.00425872
0.363433
0.00218935
0.957764
-0.00777162
1.4212
-0.0212113
1.77956
-0.03809
2.12213
-0.0622676
2.46827
-0.0952321
2.85615
-0.140511
3.30355
-0.203919
3.81586
-0.314745
4.4636
-0.571643
4.84438
-1.06594
5.95368
-1.25469
6.58309
-1.26594
5.67273
-1.04741
4.24492
-0.459826
2.1431
-0.0182617
0.0105083
-0.00662792
-0.255695
0.00476116
-0.175882
-0.0590207
0.0087162
0.354717
0.0105368
0.955943
0.00419508
1.42754
-0.00943762
1.79319
-0.0284578
2.14115
-0.053707
2.49352
-0.0871382
2.88959
-0.13269
3.3491
-0.19827
3.88144
-0.316745
4.58208
-0.594797
5.12243
-1.04466
6.40355
-1.17033
6.70876
-1.15287
5.65528
-0.893102
3.98515
-0.264462
1.51446
-0.0700787
-0.183875
-0.0387713
-0.287002
-0.0143929
-0.200261
-0.0734136
0.0112401
0.343477
0.0156842
0.951499
0.010523
1.4327
0.000579954
1.80313
-0.0171129
2.15885
-0.0408806
2.51729
-0.0738068
2.92251
-0.119638
3.39494
-0.18536
3.94716
-0.30607
4.70279
-0.592291
5.40865
-0.979516
6.79077
-1.04151
6.77075
-0.975078
5.58885
-0.676305
3.68638
-0.0708927
0.909048
0.0149553
-0.269723
5.18937e-05
-0.272099
-0.00173914
-0.19847
-0.0751528
0.0185173
0.324959
0.0306591
0.939357
0.0304108
1.43295
0.0196625
1.81388
0.00181074
2.1767
-0.0211748
2.54027
-0.0533379
2.95468
-0.0976263
3.43922
-0.162171
4.01171
-0.284073
4.82469
-0.562398
5.68697
-0.868489
7.09686
-0.906558
6.80882
-0.801543
5.48383
-0.442231
3.32706
0.0682138
0.398603
0.0793898
-0.280899
0.059216
-0.251925
0.0221174
-0.161371
-0.0530354
0.0241853
0.300774
0.0421106
0.921432
0.0449646
1.4301
0.0386295
1.82022
0.0269788
2.18835
0.00620665
2.56104
-0.0230809
2.98396
-0.0645504
3.48069
-0.125756
4.07291
-0.240189
4.93912
-0.488883
5.93567
-0.710848
7.31883
-0.732441
6.83042
-0.633905
5.3853
-0.301268
2.99443
0.00648364
0.0908515
0.022668
-0.297084
0.033984
-0.263241
0.0161651
-0.143552
-0.0368702
0.0352076
0.265567
0.0659261
0.890713
0.0781746
1.41785
0.0753518
1.82304
0.0642897
2.19941
0.0448588
2.58047
0.0176013
3.01122
-0.0207283
3.51902
-0.0758923
4.12808
-0.176123
5.03935
-0.376844
6.13639
-0.530219
7.4722
-0.558358
6.85855
-0.463367
5.29031
-0.192427
2.72349
-0.0761211
-0.0254541
-0.0531504
-0.320054
-0.0189206
-0.297471
-0.000430185
-0.162043
-0.0373004
0.0446578
0.220909
0.087135
0.848236
0.107109
1.39788
0.112031
1.81812
0.108678
2.20276
0.095421
2.59373
0.07498
3.03166
0.0437346
3.55027
-0.00692083
4.17873
-0.0810868
5.11352
-0.219831
6.27513
-0.309338
7.56171
-0.317833
6.86705
-0.255313
5.22779
-0.0930543
2.56123
-0.107903
-0.0106049
-0.0818568
-0.346101
-0.0465181
-0.33281
-0.0124455
-0.196115
-0.049746
0.0581138
0.162795
0.121414
0.784936
0.159634
1.35966
0.172935
1.80482
0.172927
2.20277
0.162636
2.60402
0.147205
3.04709
0.123799
3.57367
0.0882747
4.21426
0.0390531
5.16274
-0.0149947
6.32918
-0.0460442
7.59276
-0.0453653
6.86637
-0.000592715
5.18301
0.0542337
2.5064
-0.0835303
0.127159
-0.0969909
-0.33264
-0.0614689
-0.368332
-0.00695631
-0.250628
-0.0567023
0.0599523
0.102843
0.151049
0.693839
0.207874
1.30283
0.235519
1.77717
0.247925
2.19037
0.247856
2.60409
0.241908
3.05304
0.230797
3.58479
0.212483
4.23257
0.190618
5.18461
0.23181
6.28799
0.281755
7.54281
0.315164
6.83296
0.257256
5.24092
0.0639138
2.69974
-0.176425
0.367498
-0.2425
-0.266566
-0.175408
-0.435423
-0.0568563
-0.36918
-0.113559
0.049327
0.0535157
0.184685
0.558481
0.282419
1.2051
0.329931
1.72966
0.350186
2.17011
0.358194
2.59608
0.356917
3.05432
0.357253
3.58445
0.358374
4.23145
0.37127
5.17171
0.519852
6.13941
0.655057
7.40761
0.647028
6.84099
0.422304
5.46565
-0.0727036
3.19475
-0.484577
0.779371
-0.5414
-0.209743
-0.421294
-0.555529
-0.206997
-0.583477
-0.320555
0.0342777
0.0192379
0.219097
0.373662
0.347546
1.07665
0.426573
1.65063
0.468836
2.12785
0.492153
2.57277
0.501836
3.04463
0.516445
3.56984
0.54019
4.2077
0.590804
5.12109
0.810517
5.91969
1.14092
7.0772
1.28409
6.69782
1.30493
5.44481
0.828833
3.67085
0.077362
1.53084
-0.372091
0.23971
-0.496204
-0.431417
-0.280232
-0.799449
-0.600787
0.0305006
-0.0112626
0.2343
0.169862
0.450952
0.859998
0.569452
1.53213
0.623894
2.07341
0.656212
2.54045
0.675355
3.02549
0.698808
3.54639
0.746227
4.16029
0.849029
5.01829
1.18505
5.58367
1.76949
6.49277
2.11913
6.34817
2.38024
5.1837
2.28227
3.76883
1.52206
2.29105
0.797365
0.964407
0.276369
0.0895794
0.0193025
-0.542383
-0.581484
0.0232474
-0.0345101
0.15614
0.0369693
0.494283
0.521855
0.694455
1.33196
0.798729
1.96913
0.852771
2.48641
0.890503
2.98776
0.91593
3.52096
0.979982
4.09623
1.10895
4.88933
1.49212
5.2005
2.26166
5.72323
2.64654
5.9633
2.82568
5.00455
2.67132
3.92319
2.17176
2.79061
1.52703
1.60914
0.970622
0.645984
0.377704
0.0505347
-0.20378
0.00159196
-0.036102
0.0761119
-0.0375507
0.408841
0.189126
0.719592
1.02121
0.86562
1.8231
0.902681
2.44935
0.909959
2.98048
0.894569
3.53635
0.89406
4.09674
0.932032
4.85136
1.09409
5.03844
1.53894
5.27838
1.71203
5.7902
1.75269
4.96389
1.66279
4.01309
1.41309
3.04031
1.0064
2.01583
0.58254
1.06984
0.244491
0.388583
0.0407112
0.00378934
-0.0398914
0.0426298
-0.0763912
0.207764
0.0239921
0.550541
0.678433
0.731941
1.6417
0.800306
2.38098
0.812931
2.96785
0.805327
3.54396
0.78653
4.11554
0.805799
4.83209
0.887176
4.95706
1.19662
4.96894
1.38096
5.60585
1.39725
4.94761
1.34024
4.0701
1.17753
3.20303
0.889646
2.30371
0.560087
1.3994
0.232913
0.715757
0.273624
0.00112707
-0.0410185
0.013502
-0.0887661
0.0823274
-0.0448333
0.380485
0.380275
0.587648
1.43454
0.681238
2.28739
0.705501
2.94359
0.705341
3.54412
0.677939
4.14294
0.672383
4.83764
0.70167
4.92778
0.890677
4.77993
1.06728
5.42925
1.06879
4.94609
1.01433
4.12456
0.890569
3.32678
0.682968
2.51131
0.424293
1.65807
0.172121
0.967929
0.445745
-0.00352992
-0.0374885
-0.000885269
-0.0914108
0.0337815
-0.0795001
0.242217
0.17184
0.468262
1.20849
0.571226
2.18443
0.592542
2.92228
0.590171
3.54649
0.562557
4.17055
0.540685
4.85951
0.545581
4.92288
0.654049
4.67147
0.795381
5.28792
0.786087
4.95539
0.727998
4.18265
0.631062
3.42372
0.483099
2.65928
0.29479
1.84638
0.112288
1.15043
0.558034
-0.00126783
-0.0362207