/*--------------------------------*- C++ -*----------------------------------*\
| =========                 |                                                 |
| \\      /  F ield         | OpenFOAM: The Open Source CFD Toolbox           |
|  \\    /   O peration     | Version:  4.0                                   |
|   \\  /    A nd           | Web:      www.OpenFOAM.org                      |
|    \\/     M anipulation  |                                                 |
\*---------------------------------------------------------------------------*/
FoamFile
{
    version     2.0;
    format      ascii;
    class       volVectorField;
    location    "69";
    object      U;
}
// * * * * * * * * * * * * * * * * * * * * * * * * * * * * * * * * * * * * * //

dimensions      [0 1 -1 0 0 0 0];

internalField   nonuniform List<vector> 
2200
(
(0.878835 -0.0304122 0)
(1.00578 -0.0512798 0)
(1.00327 -0.0354003 0)
(1.00024 -0.0244382 0)
(0.999865 -0.0166607 0)
(1.00004 -0.010728 0)
(1.00004 -0.00683531 0)
(0.999996 -0.00417892 0)
(0.999902 -0.00219145 0)
(1.00018 -0.000656243 0)
(1.00003 0.00114115 0)
(1.00036 0.00267657 0)
(1.00038 0.00452277 0)
(1.00027 0.00711428 0)
(1.00008 0.0108362 0)
(1 0.0166599 0)
(1.00033 0.0243755 0)
(1.00347 0.0348652 0)
(1.00599 0.051382 0)
(0.879048 0.0302953 0)
(0.712026 -0.0327597 0)
(0.996644 -0.0630033 0)
(1.03332 -0.056134 0)
(1.02493 -0.046405 0)
(1.0159 -0.0360989 0)
(1.00965 -0.0263591 0)
(1.00591 -0.0181168 0)
(1.00379 -0.0114304 0)
(1.00268 -0.00604502 0)
(1.00226 -0.00161161 0)
(1.00208 0.00248192 0)
(1.00212 0.00698021 0)
(1.00323 0.0123885 0)
(1.0055 0.0189443 0)
(1.00943 0.0272489 0)
(1.01554 0.0369922 0)
(1.02462 0.047481 0)
(1.03315 0.0579951 0)
(0.996701 0.0631487 0)
(0.711783 0.0330367 0)
(0.535584 -0.0238907 0)
(0.969934 -0.0569189 0)
(1.05644 -0.0547155 0)
(1.05223 -0.0487196 0)
(1.03624 -0.0403774 0)
(1.02447 -0.0322053 0)
(1.01591 -0.0239274 0)
(1.01035 -0.0160087 0)
(1.00704 -0.0086933 0)
(1.00533 -0.00193986 0)
(1.00549 0.0044122 0)
(1.00731 0.0109085 0)
(1.01049 0.0177817 0)
(1.01573 0.0255105 0)
(1.02404 0.0334648 0)
(1.03606 0.0414269 0)
(1.05215 0.0494208 0)
(1.0563 0.0533181 0)
(0.969188 0.0576527 0)
(0.534342 0.0239445 0)
(0.392408 -0.0136413 0)
(0.911904 -0.0463753 0)
(1.05755 -0.0468465 0)
(1.06964 -0.0442784 0)
(1.05492 -0.038125 0)
(1.03935 -0.0314408 0)
(1.0276 -0.0246335 0)
(1.01919 -0.0174408 0)
(1.01396 -0.00996062 0)
(1.01147 -0.00248294 0)
(1.01116 0.00512374 0)
(1.01301 0.0124913 0)
(1.01806 0.0199047 0)
(1.02656 0.0266878 0)
(1.03849 0.0331233 0)
(1.05398 0.039572 0)
(1.06822 0.0456454 0)
(1.05546 0.0482882 0)
(0.909898 0.0469953 0)
(0.389889 0.0137781 0)
(0.307823 -0.00451034 0)
(0.846832 -0.0323612 0)
(1.04943 -0.0398942 0)
(1.07949 -0.03812 0)
(1.06826 -0.0334411 0)
(1.05176 -0.0278115 0)
(1.03833 -0.0224061 0)
(1.02799 -0.0162909 0)
(1.02076 -0.00932387 0)
(1.01672 -0.00158039 0)
(1.01662 0.00616041 0)
(1.02061 0.0135198 0)
(1.02756 0.0197861 0)
(1.03732 0.0255097 0)
(1.05019 0.0304432 0)
(1.06663 0.0357784 0)
(1.07766 0.040132 0)
(1.04719 0.0417954 0)
(0.842865 0.0330063 0)
(0.303648 0.00474364 0)
(0.264465 0.000105506 0)
(0.789254 -0.0200479 0)
(1.03362 -0.0314155 0)
(1.08376 -0.0319773 0)
(1.07742 -0.0286897 0)
(1.06091 -0.0238004 0)
(1.04735 -0.019292 0)
(1.03661 -0.0142256 0)
(1.02895 -0.00821047 0)
(1.02458 -0.00130566 0)
(1.02405 0.0061999 0)
(1.02721 0.012906 0)
(1.03427 0.0187714 0)
(1.04493 0.0232429 0)
(1.0586 0.0271758 0)
(1.07485 0.0315601 0)
(1.08029 0.0342836 0)
(1.02913 0.03338 0)
(0.782474 0.0207635 0)
(0.258606 0.000126122 0)
(0.240543 0.00107115 0)
(0.738612 -0.0122617 0)
(1.01381 -0.0249397 0)
(1.0841 -0.0266873 0)
(1.08311 -0.0243758 0)
(1.06791 -0.0201989 0)
(1.05428 -0.0161993 0)
(1.04323 -0.0115962 0)
(1.03483 -0.00609289 0)
(1.0297 0.000419928 0)
(1.02935 0.00701641 0)
(1.03392 0.0128942 0)
(1.04165 0.0173952 0)
(1.05176 0.0214035 0)
(1.06467 0.0247766 0)
(1.07938 0.0282172 0)
(1.07985 0.0297787 0)
(1.00742 0.0272888 0)
(0.72866 0.0131646 0)
(0.232907 -0.000832152 0)
(0.226311 0.000965175 0)
(0.695964 -0.00800579 0)
(0.993505 -0.0206678 0)
(1.08254 -0.0230045 0)
(1.08705 -0.0211359 0)
(1.07351 -0.0175792 0)
(1.06011 -0.0137319 0)
(1.04966 -0.00947496 0)
(1.0419 -0.00456514 0)
(1.03709 0.00102131 0)
(1.0361 0.00707581 0)
(1.03903 0.012447 0)
(1.04565 0.0169041 0)
(1.05572 0.0202274 0)
(1.06914 0.0232046 0)
(1.08185 0.0259185 0)
(1.07549 0.0268922 0)
(0.983067 0.0235257 0)
(0.681468 0.0091629 0)
(0.216412 -0.000704806 0)
(0.216755 0.000627033 0)
(0.660544 -0.00563739 0)
(0.972864 -0.0175458 0)
(1.07969 -0.0201012 0)
(1.09042 -0.0184836 0)
(1.07841 -0.0152635 0)
(1.06496 -0.0115653 0)
(1.05431 -0.00727597 0)
(1.04607 -0.00237711 0)
(1.04072 0.00310122 0)
(1.04002 0.00846085 0)
(1.04388 0.0129929 0)
(1.05076 0.0165583 0)
(1.06007 0.0198432 0)
(1.07245 0.0225433 0)
(1.0833 0.0247153 0)
(1.07079 0.025121 0)
(0.95898 0.0211058 0)
(0.641271 0.00710638 0)
(0.204252 -0.00032926 0)
(0.209706 0.000304983 0)
(0.63231 -0.00416872 0)
(0.954342 -0.0148946 0)
(1.07688 -0.0177736 0)
(1.09371 -0.0164241 0)
(1.08319 -0.0135013 0)
(1.06973 -0.00986659 0)
(1.05933 -0.00581331 0)
(1.05177 -0.00113865 0)
(1.04693 0.00385894 0)
(1.04527 0.00898422 0)
(1.04728 0.0135575 0)
(1.05304 0.0173656 0)
(1.06241 0.0200607 0)
(1.07546 0.0224127 0)
(1.08426 0.0240784 0)
(1.06358 0.0240283 0)
(0.933974 0.019258 0)
(0.606116 0.00598098 0)
(0.193706 4.97385e-05 0)
(0.203905 9.22486e-05 0)
(0.609037 -0.00310886 0)
(0.93637 -0.0124583 0)
(1.07366 -0.0154219 0)
(1.09698 -0.0142094 0)
(1.0879 -0.0113491 0)
(1.07442 -0.00773285 0)
(1.06361 -0.00355897 0)
(1.05522 0.00121286 0)
(1.0495 0.00635493 0)
(1.04809 0.0111484 0)
(1.05103 0.0150883 0)
(1.05707 0.0180509 0)
(1.06595 0.0207464 0)
(1.07777 0.0227988 0)
(1.08447 0.0240062 0)
(1.05681 0.023246 0)
(0.910038 0.0177512 0)
(0.575657 0.00534127 0)
(0.183983 0.000332204 0)
(0.199492 1.75607e-05 0)
(0.591183 -0.00223515 0)
(0.921321 -0.0101119 0)
(1.07104 -0.0132398 0)
(1.10056 -0.0121544 0)
(1.09291 -0.00944262 0)
(1.07922 -0.00586449 0)
(1.06823 -0.0019594 0)
(1.06001 0.00253767 0)
(1.05467 0.00748722 0)
(1.05216 0.0124774 0)
(1.05328 0.0165565 0)
(1.05846 0.0197393 0)
(1.06746 0.0216541 0)
(1.08002 0.0233242 0)
(1.08414 0.0241249 0)
(1.04742 0.0227837 0)
(0.885109 0.0165912 0)
(0.547694 0.00498079 0)
(0.174382 0.000503436 0)
(0.195969 3.67402e-05 0)
(0.576575 -0.00151277 0)
(0.90686 -0.00797059 0)
(1.06819 -0.0108418 0)
(1.10406 -0.00968235 0)
(1.09789 -0.00684903 0)
(1.08426 -0.00319334 0)
(1.07292 0.000963819 0)
(1.06396 0.00580972 0)
(1.05732 0.010907 0)
(1.05473 0.0152157 0)
(1.05666 0.0187059 0)
(1.06205 0.0210101 0)
(1.07053 0.023009 0)
(1.08131 0.0242666 0)
(1.08328 0.0246536 0)
(1.0382 0.0226945 0)
(0.860839 0.015787 0)
(0.522205 0.00483625 0)
(0.165052 0.000592446 0)
(0.19403 7.32978e-05 0)
(0.566412 -0.000699534 0)
(0.895948 -0.0057514 0)
(1.06628 -0.00840061 0)
(1.10797 -0.00708621 0)
(1.10322 -0.00417398 0)
(1.0894 -0.000382912 0)
(1.07762 0.00354287 0)
(1.06823 0.00791369 0)
(1.06145 0.0126243 0)
(1.05784 0.0175578 0)
(1.05816 0.0210854 0)
(1.06263 0.0234328 0)
(1.07143 0.0245611 0)
(1.08247 0.0255063 0)
(1.08112 0.0254105 0)
(1.02598 0.0228969 0)
(0.835059 0.0153222 0)
(0.497355 0.00478977 0)
(0.155589 0.000626513 0)
(0.193271 0.000106635 0)
(0.55907 -0.000181175 0)
(0.885903 -0.00374958 0)
(1.0647 -0.00589743 0)
(1.11207 -0.00435589 0)
(1.10879 -0.00121168 0)
(1.09503 0.00270908 0)
(1.08286 0.00711477 0)
(1.0729 0.0121592 0)
(1.06526 0.0175898 0)
(1.06097 0.0216101 0)
(1.06128 0.0242886 0)
(1.06589 0.0259169 0)
(1.07389 0.0271473 0)
(1.08228 0.0274768 0)
(1.07847 0.0269078 0)
(1.01368 0.0236374 0)
(0.8094 0.0152504 0)
(0.473545 0.00487566 0)
(0.146222 0.000653136 0)
(0.193947 7.82275e-05 0)
(0.555153 0.000913116 0)
(0.879854 -0.00144681 0)
(1.06436 -0.00297514 0)
(1.11667 -0.001017 0)
(1.11459 0.00240524 0)
(1.10063 0.00674717 0)
(1.08795 0.0112423 0)
(1.0772 0.0159602 0)
(1.06821 0.020446 0)
(1.06277 0.0247462 0)
(1.06202 0.0278537 0)
(1.06533 0.0292321 0)
(1.07356 0.0296523 0)
(1.08218 0.0298677 0)
(1.07361 0.0287143 0)
(0.997885 0.0246137 0)
(0.781708 0.0154827 0)
(0.449167 0.00503102 0)
(0.136476 0.000666977 0)
(0.19621 0.000305069 0)
(0.555623 0.00158256 0)
(0.875578 0.00090788 0)
(1.06539 0.000236057 0)
(1.122 0.00253963 0)
(1.12118 0.00624983 0)
(1.10719 0.0107241 0)
(1.09387 0.0156983 0)
(1.08235 0.0211857 0)
(1.07306 0.02699 0)
(1.06688 0.031058 0)
(1.06494 0.0329272 0)
(1.06797 0.0337876 0)
(1.07505 0.0342468 0)
(1.08018 0.0333102 0)
(1.06806 0.0314465 0)
(0.981634 0.0263607 0)
(0.753295 0.0161523 0)
(0.424586 0.00535157 0)
(0.126478 0.00069869 0)
(0.200577 0.000683224 0)
(0.558588 0.00243174 0)
(0.876296 0.0035619 0)
(1.06812 0.0036934 0)
(1.1281 0.00677338 0)
(1.12818 0.0109517 0)
(1.11378 0.01621 0)
(1.09996 0.0216963 0)
(1.08767 0.0273346 0)
(1.07621 0.0321336 0)
(1.06774 0.0358186 0)
(1.06481 0.0377991 0)
(1.06654 0.0385255 0)
(1.07305 0.0378887 0)
(1.07856 0.0372843 0)
(1.06008 0.0346289 0)
(0.96111 0.0282846 0)
(0.721933 0.0171397 0)
(0.398285 0.00572941 0)
(0.115723 0.000715723 0)
(0.207326 0.000900685 0)
(0.566082 0.00361122 0)
(0.880633 0.00600974 0)
(1.07331 0.00797739 0)
(1.13526 0.0116207 0)
(1.13631 0.0164449 0)
(1.12153 0.0220635 0)
(1.10658 0.0280788 0)
(1.09265 0.0342539 0)
(1.08016 0.0402273 0)
(1.0714 0.0446856 0)
(1.06694 0.0459254 0)
(1.06779 0.0456283 0)
(1.07348 0.0447637 0)
(1.07408 0.0425952 0)
(1.05057 0.0388785 0)
(0.939373 0.0312911 0)
(0.688688 0.018586 0)
(0.37055 0.0062444 0)
(0.104353 0.00074484 0)
(0.215802 0.0010617 0)
(0.577053 0.00485537 0)
(0.888768 0.0091074 0)
(1.08117 0.0124074 0)
(1.14405 0.0172445 0)
(1.14553 0.022938 0)
(1.12984 0.029691 0)
(1.11394 0.0365057 0)
(1.09915 0.0434394 0)
(1.08486 0.0492387 0)
(1.07207 0.0519963 0)
(1.06603 0.0527744 0)
(1.06521 0.0525192 0)
(1.06904 0.0505941 0)
(1.07059 0.0487308 0)
(1.03822 0.0439239 0)
(0.911868 0.0343966 0)
(0.650832 0.0202865 0)
(0.33988 0.00676166 0)
(0.0919321 0.000755801 0)
(0.228603 0.00142894 0)
(0.596392 0.00683793 0)
(0.904693 0.0136882 0)
(1.09263 0.0189743 0)
(1.15456 0.0244646 0)
(1.15625 0.0310929 0)
(1.13951 0.0385454 0)
(1.12186 0.0461958 0)
(1.10431 0.0534472 0)
(1.08701 0.0595549 0)
(1.07373 0.0634658 0)
(1.0667 0.0641365 0)
(1.06515 0.0624462 0)
(1.06847 0.0600061 0)
(1.06271 0.0564023 0)
(1.02294 0.0498325 0)
(0.882144 0.0387316 0)
(0.609967 0.0223559 0)
(0.306933 0.00730699 0)
(0.0788063 0.000757968 0)
(0.244373 0.00200078 0)
(0.619774 0.00861397 0)
(0.925773 0.0180548 0)
(1.10826 0.0256508 0)
(1.16742 0.0332297 0)
(1.16869 0.0410781 0)
(1.15017 0.0499606 0)
(1.13058 0.0586081 0)
(1.1113 0.0669531 0)
(1.09222 0.0734018 0)
(1.07523 0.0762028 0)
(1.06472 0.0747833 0)
(1.06084 0.0727047 0)
(1.06104 0.0692215 0)
(1.05609 0.0648698 0)
(1.00407 0.0571823 0)
(0.84447 0.0430146 0)
(0.562037 0.0244621 0)
(0.270033 0.00773342 0)
(0.0646309 0.000739282 0)
(0.266701 0.00282586 0)
(0.653131 0.0124638 0)
(0.954911 0.0250131 0)
(1.1285 0.0353938 0)
(1.18316 0.04398 0)
(1.18318 0.0539075 0)
(1.16234 0.0640568 0)
(1.14002 0.0738119 0)
(1.11705 0.0822824 0)
(1.09361 0.0880314 0)
(1.07365 0.0897033 0)
(1.06281 0.0885991 0)
(1.0589 0.0856066 0)
(1.05875 0.0814032 0)
(1.04356 0.07541 0)
(0.980063 0.0649192 0)
(0.802773 0.0485023 0)
(0.510247 0.0267084 0)
(0.230941 0.00802155 0)
(0.0501579 0.000715399 0)
(0.298356 0.00377788 0)
(0.699252 0.0156258 0)
(0.994806 0.0333577 0)
(1.15541 0.0472607 0)
(1.20237 0.0589477 0)
(1.19977 0.0709168 0)
(1.17523 0.0827289 0)
(1.14938 0.0932072 0)
(1.12315 0.101842 0)
(1.09699 0.107103 0)
(1.07467 0.108103 0)
(1.06019 0.104835 0)
(1.05233 0.0997221 0)
(1.04794 0.0935978 0)
(1.03151 0.0863025 0)
(0.951375 0.0740788 0)
(0.75035 0.0532689 0)
(0.44845 0.0282494 0)
(0.187723 0.00789189 0)
(0.0350641 0.000609167 0)
(0.335127 0.00714736 0)
(0.757345 0.0249978 0)
(1.04388 0.0468415 0)
(1.1882 0.0652372 0)
(1.22582 0.0784427 0)
(1.21894 0.0935256 0)
(1.18984 0.106269 0)
(1.1599 0.116858 0)
(1.12919 0.124575 0)
(1.09819 0.128201 0)
(1.07138 0.126605 0)
(1.05499 0.121269 0)
(1.04807 0.115678 0)
(1.04297 0.109137 0)
(1.01253 0.0996092 0)
(0.914076 0.0830785 0)
(0.691345 0.0588542 0)
(0.384114 0.0297551 0)
(0.144776 0.00757467 0)
(0.0215166 0.000569992 0)
(0.415818 0.010848 0)
(0.845667 0.0357739 0)
(1.11151 0.0679357 0)
(1.22931 0.0907499 0)
(1.25331 0.107084 6.12512e-34)
(1.23919 0.124228 -2.76949e-34)
(1.20342 0.137136 0)
(1.16816 0.146698 0)
(1.13269 0.15269 0)
(1.09781 0.153703 0)
(1.06863 0.149392 0)
(1.0507 0.142351 0)
(1.03944 0.133907 0)
(1.02758 0.124191 0)
(0.991531 0.112314 0)
(0.87018 0.0926568 0)
(0.618454 0.0622512 0)
(0.305408 0.0288003 0)
(0.0960234 0.00690672 0)
(0.00691551 0.000731792 0)
(0.487481 0.0260426 4.44803e-20)
(0.948108 0.0605791 -3.37286e-20)
(1.18164 0.102555 0)
(1.27091 0.130002 2.63462e-20)
(1.28221 0.146121 -2.13645e-20)
(1.25867 0.16492 2.92209e-34)
(1.2161 0.175737 0)
(1.17596 0.183022 1.56437e-20)
(1.13557 0.186105 -5.14101e-20)
(1.09574 0.1841 1.0516e-20)
(1.06255 0.177297 0)
(1.04037 0.16679 -2.68013e-20)
(1.02937 0.156654 -3.22999e-20)
(1.01586 0.14663 5.65992e-20)
(0.954982 0.130555 -4.47025e-20)
(0.797592 0.102235 0)
(0.513329 0.0642367 -1.60568e-20)
(0.213546 0.0265164 0)
(0.047466 0.00651196 -8.88187e-20)
(-0.00867358 0.000308371 1.04676e-19)
(0.524011 0.0541838 -5.88998e-21)
(1.01499 0.102884 9.88958e-20)
(1.23471 0.153653 -4.96472e-21)
(1.30604 0.178096 -6.36123e-20)
(1.30804 0.195558 -4.50566e-20)
(1.27547 0.212694 7.32982e-20)
(1.22634 0.220891 0)
(1.18034 0.225521 0)
(1.1344 0.226348 8.15753e-20)
(1.08986 0.221527 0)
(1.05223 0.210408 9.63487e-20)
(1.02943 0.197745 2.87584e-20)
(1.01284 0.186541 5.93506e-22)
(0.983983 0.171345 -6.12572e-20)
(0.910486 0.149586 0)
(0.726204 0.114798 0)
(0.427814 0.0656432 -2.60948e-19)
(0.152511 0.0237371 6.56218e-19)
(0.0143981 0.00432008 -3.87871e-19)
(-0.0201376 -0.0015275 -4.56794e-19)
(0.530977 0.077815 -5.23011e-20)
(1.04864 0.16003 2.05215e-20)
(1.26943 0.213778 1.16334e-20)
(1.33272 0.237343 1.10419e-19)
(1.32773 0.254016 1.46613e-20)
(1.28781 0.266444 -1.90395e-19)
(1.23323 0.2703 6.51597e-20)
(1.1822 0.271445 0)
(1.13091 0.268411 -1.7204e-19)
(1.08074 0.259326 1.53379e-19)
(1.03937 0.245623 -2.59911e-19)
(1.01207 0.231913 1.21871e-19)
(0.993554 0.21652 -7.90453e-20)
(0.966353 0.199895 1.78342e-19)
(0.874069 0.173931 0)
(0.673518 0.126948 -6.48368e-20)
(0.375171 0.0680714 0)
(0.126815 0.0227714 3.57055e-19)
(0.000264502 0.00196978 -8.45781e-19)
(-0.0258016 -0.00355401 5.29355e-19)
(0.528587 0.108524 1.33246e-19)
(1.07497 0.219341 -5.96324e-20)
(1.29439 0.280538 -1.31473e-20)
(1.35095 0.302705 0)
(1.34085 0.316148 -8.19316e-20)
(1.2958 0.323409 1.01264e-19)
(1.23639 0.322831 -6.95033e-20)
(1.18026 0.31979 0)
(1.12422 0.31264 1.22139e-19)
(1.07031 0.299762 -1.07685e-19)
(1.02568 0.28229 2.24478e-19)
(0.995832 0.263814 0)
(0.973233 0.246764 -1.67786e-19)
(0.933208 0.225751 9.46156e-20)
(0.840114 0.191413 2.37666e-19)
(0.636653 0.139527 -2.09062e-19)
(0.351125 0.0739532 3.29695e-19)
(0.120464 0.0243845 -7.29619e-19)
(-0.00506414 7.79496e-05 4.6132e-19)
(-0.0294045 -0.00580051 -5.76746e-19)
(0.513426 0.132712 -3.78026e-20)
(1.07609 0.270639 2.66314e-20)
(1.30284 0.344444 -4.39463e-20)
(1.35986 0.368101 9.14422e-20)
(1.34664 0.380479 -8.85642e-20)
(1.29789 0.38254 3.149e-20)
(1.23511 0.376714 3.81896e-21)
(1.1755 0.369035 -1.36678e-19)
(1.11539 0.357338 -1.27529e-19)
(1.05628 0.339522 -2.30581e-19)
(1.00726 0.317804 -4.8238e-19)
(0.974426 0.296673 -1.48852e-19)
(0.950107 0.275878 2.23298e-21)
(0.915087 0.253096 -3.23226e-19)
(0.814489 0.217171 -4.8948e-21)
(0.613433 0.154195 3.03707e-19)
(0.344663 0.0819637 -9.09142e-20)
(0.122871 0.0281963 -5.27492e-20)
(-0.00171249 -0.00128549 0)
(-0.0293655 -0.0073458 1.22409e-18)
(0.49891 0.154618 0)
(1.07622 0.323475 7.05898e-22)
(1.3073 0.410022 -5.54043e-21)
(1.36252 0.433009 -1.30063e-20)
(1.34687 0.443016 8.41452e-20)
(1.29601 0.440535 -7.4225e-20)
(1.23046 0.430646 7.54789e-20)
(1.16724 0.418782 2.24641e-19)
(1.10347 0.402702 -7.09332e-20)
(1.04199 0.380726 1.13865e-19)
(0.991121 0.355242 2.5914e-19)
(0.955751 0.33009 3.24537e-19)
(0.927479 0.307184 -1.95448e-19)
(0.882403 0.280696 3.49893e-19)
(0.786577 0.236807 -2.77247e-19)
(0.593486 0.172606 0)
(0.339989 0.0940594 -6.90398e-19)
(0.130824 0.0342279 9.30024e-19)
(0.00691486 0.000281901 6.93897e-20)
(-0.0260881 -0.00797596 -1.29488e-18)
(0.480565 0.173469 -5.18238e-21)
(1.06206 0.368305 -2.63153e-20)
(1.30203 0.468716 3.96195e-20)
(1.35962 0.494469 -6.38545e-20)
(1.3422 0.504471 7.13869e-20)
(1.28932 0.498018 -7.10239e-20)
(1.22173 0.483802 1.48472e-19)
(1.15649 0.467528 -6.66256e-20)
(1.09028 0.44697 -2.85751e-19)
(1.02519 0.420419 -1.3333e-22)
(0.969652 0.390356 -2.81782e-19)
(0.930438 0.361734 -3.49431e-19)
(0.902499 0.335911 2.16146e-19)
(0.864069 0.307888 -1.25767e-19)
(0.76385 0.264973 3.01817e-19)
(0.578307 0.190304 0)
(0.339716 0.108163 -4.29588e-19)
(0.140138 0.0421446 6.34501e-19)
(0.0167828 0.00353019 1.19969e-18)
(-0.0217438 -0.00783672 -1.411e-18)
(0.468145 0.192253 -1.08989e-19)
(1.05386 0.415964 4.93291e-20)
(1.29627 0.528478 -1.98492e-20)
(1.35302 0.554456 6.52304e-20)
(1.33399 0.562823 1.22469e-20)
(1.28018 0.552701 -1.38028e-19)
(1.21114 0.535139 -8.66526e-20)
(1.14373 0.51523 -8.62265e-20)
(1.07499 0.490813 -1.61888e-19)
(1.00738 0.460392 2.60442e-19)
(0.949512 0.426241 2.84265e-19)
(0.909276 0.394451 5.54408e-19)
(0.878629 0.366886 0)
(0.831354 0.335914 6.39866e-21)
(0.738781 0.283958 -8.30298e-19)
(0.56317 0.210285 1.95229e-19)
(0.338723 0.122276 9.33224e-19)
(0.148906 0.0513198 -2.75404e-19)
(0.0270592 0.00799152 5.70975e-19)
(-0.0167773 -0.00693816 -4.7577e-20)
(0.454464 0.208201 5.88643e-21)
(1.03663 0.455293 6.70912e-20)
(1.28492 0.581369 -1.31305e-21)
(1.34347 0.61035 5.83451e-20)
(1.32325 0.618946 -1.28501e-19)
(1.26816 0.605702 1.35958e-19)
(1.19777 0.584699 8.95795e-20)
(1.12899 0.56109 2.56673e-19)
(1.05801 0.532967 3.23873e-19)
(0.986901 0.498422 -3.0243e-19)
(0.925829 0.46025 0)
(0.883277 0.424758 -2.10379e-19)
(0.851798 0.394076 2.4154e-19)
(0.812526 0.361717 3.05234e-19)
(0.717589 0.312332 -1.76754e-19)
(0.549285 0.228139 -4.28728e-19)
(0.337554 0.137326 -1.276e-19)
(0.156268 0.0611113 -2.05262e-21)
(0.0362395 0.0132282 0)
(-0.0119868 -0.0055875 0)
(0.446809 0.225477 -9.22244e-20)
(1.02654 0.497763 0)
(1.27445 0.635029 1.44235e-20)
(1.33182 0.664797 -1.89209e-20)
(1.3104 0.671922 1.48836e-19)
(1.25482 0.655642 -3.72136e-20)
(1.1835 0.631933 9.10655e-20)
(1.11299 0.605389 -1.73252e-19)
(1.04002 0.574214 2.45776e-19)
(0.967851 0.536331 -1.00446e-19)
(0.905391 0.494053 1.63328e-19)
(0.861421 0.45608 6.68314e-19)
(0.828142 0.424221 1.42775e-20)
(0.780116 0.387837 -3.18943e-19)
(0.693329 0.329117 5.90073e-19)
(0.533616 0.2481 3.23369e-21)
(0.333755 0.151273 1.36515e-19)
(0.16101 0.0710502 -6.50651e-19)
(0.0433826 0.0184553 6.70382e-19)
(-0.00788872 -0.00411156 -7.896e-19)
(0.438537 0.240522 2.48349e-23)
(1.01105 0.532877 0)
(1.26055 0.681901 0)
(1.31872 0.714983 4.59095e-21)
(1.29655 0.722261 -4.21968e-20)
(1.23999 0.703489 6.24267e-20)
(1.16758 0.677101 -1.6749e-19)
(1.09624 0.647623 0)
(1.02209 0.61334 -3.62893e-19)
(0.947247 0.571931 4.38797e-19)
(0.881061 0.526188 4.68021e-19)
(0.834661 0.485351 -2.45422e-19)
(0.801164 0.448273 -2.97809e-19)
(0.761659 0.410337 6.98681e-19)
(0.671782 0.355825 -2.10026e-19)
(0.517833 0.263794 -2.49948e-19)
(0.328505 0.164791 -1.49333e-19)
(0.162851 0.0798922 -7.03619e-19)
(0.048224 0.0231051 1.0314e-19)
(-0.00464899 -0.0027222 8.5552e-19)
(0.433032 0.257626 -4.40382e-20)
(1.00108 0.570813 -5.96912e-20)
(1.24808 0.729477 2.38767e-20)
(1.30456 0.763749 -2.0355e-22)
(1.28146 0.769701 -4.9473e-20)
(1.22461 0.74849 9.68368e-20)
(1.15178 0.719889 0)
(1.07948 0.687994 1.05479e-19)
(1.00375 0.651454 -8.31706e-20)
(0.92713 0.607451 7.33429e-19)
(0.859456 0.558115 -1.0529e-19)
(0.81233 0.513692 1.21694e-19)
(0.777848 0.475959 0)
(0.729349 0.433802 -3.78517e-19)
(0.647152 0.368269 4.58637e-19)
(0.500303 0.28099 0)
(0.320088 0.175626 -3.21439e-19)
(0.161949 0.0875096 9.46333e-19)
(0.0507564 0.0269044 1.12496e-19)
(-0.00230604 -0.0015637 -1.05538e-18)
(0.428684 0.274915 -1.08593e-19)
(0.98789 0.60256 1.37283e-19)
(1.23334 0.770663 0)
(1.28993 0.808194 2.99298e-20)
(1.26641 0.814355 0)
(1.20889 0.791176 -1.2942e-19)
(1.1354 0.760463 0)
(1.06253 0.726383 0)
(0.985562 0.687432 -1.11397e-19)
(0.906487 0.640538 -6.97493e-19)
(0.835986 0.588402 -8.66046e-19)
(0.78566 0.541049 1.42887e-19)
(0.749565 0.497058 5.16584e-19)
(0.710609 0.452131 4.17454e-19)
(0.624934 0.391541 -1.47252e-18)
(0.483205 0.291898 -5.87626e-19)
(0.310906 0.18565 3.44697e-19)
(0.159108 0.0932381 0)
(0.051453 0.0297794 9.67573e-19)
(-0.000733381 -0.000696229 -1.13865e-18)
(0.426528 0.290505 1.27592e-19)
(0.979405 0.636825 -1.5788e-19)
(1.22034 0.812815 0)
(1.27502 0.851339 -1.14485e-20)
(1.25076 0.856383 -6.42381e-21)
(1.19311 0.831329 0)
(1.11946 0.798876 5.19928e-20)
(1.04581 0.762804 7.40745e-20)
(0.96738 0.722247 -2.08734e-19)
(0.886589 0.673524 9.21725e-20)
(0.813898 0.618484 0)
(0.762633 0.566988 5.92712e-19)
(0.726073 0.522085 6.33929e-21)
(0.677688 0.472503 2.25407e-19)
(0.600229 0.397979 2.67099e-19)
(0.46473 0.304554 0)
(0.300012 0.192213 -5.60964e-19)
(0.154293 0.0976511 1.10035e-18)
(0.0507978 0.0314657 -1.17091e-18)
(-2.72209e-05 -0.000165349 2.4539e-18)
(0.424579 0.305281 0)
(0.967885 0.665183 0)
(1.20592 0.848822 -7.82629e-20)
(1.26029 0.890286 0)
(1.23573 0.895655 0)
(1.17757 0.869089 -1.02359e-19)
(1.10341 0.835001 5.31746e-20)
(1.02925 0.797377 1.79355e-20)
(0.949675 0.755018 -4.74335e-20)
(0.866543 0.704194 0)
(0.791003 0.647032 -1.32628e-19)
(0.735956 0.593011 -4.8354e-19)
(0.696122 0.540701 -5.83075e-19)
(0.657916 0.485702 -2.34661e-19)
(0.577494 0.416915 2.89318e-19)
(0.446949 0.308833 -6.81279e-19)
(0.290176 0.197293 1.20596e-18)
(0.149191 0.0995291 1.4682e-21)
(0.0493913 0.033072 -1.11858e-18)
(0.000563119 0.000880844 -1.65553e-19)
(0.423359 0.319215 0)
(0.960289 0.696122 -1.27109e-19)
(1.19345 0.886018 9.45228e-20)
(1.24569 0.928219 0)
(1.22042 0.932632 0)
(1.16214 0.904653 2.02949e-19)
(1.08794 0.869266 0)
(1.01318 0.830035 0)
(0.932379 0.786589 -4.59346e-19)
(0.847579 0.734683 1.28769e-19)
(0.769335 0.675257 -1.17667e-18)
(0.712223 0.616786 0)
(0.672107 0.563539 -6.35755e-19)
(0.623146 0.502819 9.84048e-21)
(0.551584 0.41553 -9.32586e-19)
(0.428987 0.314161 3.6624e-19)
(0.281059 0.196427 1.20021e-21)
(0.147816 0.0984782 -1.26543e-18)
(0.0494718 0.0308974 6.00704e-19)
(-0.00122131 -0.00191097 1.77077e-19)
(0.421884 0.332938 0)
(0.95017 0.721721 -1.71098e-19)
(1.17998 0.917388 9.93536e-20)
(1.23156 0.962196 1.41393e-19)
(1.20598 0.967001 -4.59587e-21)
(1.1473 0.937851 2.00681e-20)
(1.07277 0.901222 -2.95845e-20)
(0.997693 0.861004 4.32419e-19)
(0.915893 0.816323 4.9137e-19)
(0.82876 0.763011 9.79844e-19)
(0.74728 0.702527 9.77626e-19)
(0.685626 0.642443 1.72414e-19)
(0.639737 0.580654 9.14194e-19)
(0.600835 0.510854 5.65284e-19)
(0.526343 0.428432 6.69101e-19)
(0.411209 0.307696 -4.00574e-19)
(0.27288 0.189595 -4.59452e-19)
(0.151364 0.0971612 5.46e-19)
(0.0592109 0.0415102 -3.22957e-19)
(0.00734965 0.00915906 5.74425e-19)
(0.420863 0.346157 2.3822e-19)
(0.943553 0.74987 2.68315e-19)
(1.1684 0.950312 5.67086e-20)
(1.21771 0.995503 1.5374e-20)
(1.19146 0.999403 -1.96332e-20)
(1.13273 0.96918 -5.58412e-20)
(1.05831 0.931654 2.81755e-20)
(0.982849 0.890199 -1.8884e-20)
(0.899979 0.844842 -5.73199e-19)
(0.811203 0.79112 -1.06394e-18)
(0.726729 0.729247 6.78874e-20)
(0.661782 0.664768 0)
(0.614909 0.602221 0)
(0.561953 0.526462 -2.95303e-19)
(0.495304 0.417516 -1.09848e-18)
(0.391378 0.300426 8.63031e-19)
(0.273156 0.172089 5.0431e-19)
(0.165708 0.0745774 0)
(0.0775631 0.00965685 1.03356e-18)
(0.00114877 -0.0188845 -6.11538e-19)
(0.419584 0.359032 -1.26465e-19)
(0.934692 0.772858 1.11346e-19)
(1.15592 0.977658 -1.35155e-19)
(1.20445 1.02509 -1.14799e-19)
(1.17797 1.02939 -2.26879e-20)
(1.11899 0.998244 -1.78087e-20)
(1.04444 0.959791 0)
(0.968801 0.917815 -5.44165e-19)
(0.885001 0.871679 6.9018e-20)
(0.794036 0.817181 0)
(0.706176 0.75526 0)
(0.635961 0.690956 1.10789e-19)
(0.579921 0.619634 1.48887e-19)
(0.53494 0.53114 -3.19696e-19)
(0.463051 0.426479 7.88094e-19)
(0.365285 0.27847 -9.41008e-19)
(0.2597 0.146436 -1.08352e-18)
(0.191285 0.0654417 9.60284e-19)
(0.149479 0.0657557 -3.673e-19)
(0.109117 0.0738279 2.13669e-19)
(0.418701 0.371059 1.56309e-19)
(0.928876 0.798232 0)
(1.14524 1.00687 0)
(1.19158 1.05432 -3.23738e-20)
(1.16454 1.05771 2.62073e-20)
(1.10559 1.02573 -1.96506e-20)
(1.03129 0.986709 1.30315e-19)
(0.955348 0.943798 5.56669e-19)
(0.870616 0.897289 1.04128e-18)
(0.778189 0.842883 -8.06699e-20)
(0.687397 0.7806 1.6735e-19)
(0.612723 0.712751 -9.93637e-19)
(0.554901 0.641677 -9.93411e-19)
(0.489827 0.549346 -1.72154e-19)
(0.416871 0.408013 0)
(0.331368 0.265425 -3.99324e-21)
(0.243918 0.0713962 5.98778e-19)
(0.239966 -0.03985 -1.00427e-18)
(0.207707 -0.113615 7.62911e-19)
(0.0886273 -0.1008 6.31186e-19)
(0.417373 0.382845 -3.44375e-19)
(0.920804 0.818556 -1.54616e-19)
(1.13361 1.03069 6.88682e-21)
(1.17923 1.08021 6.27916e-20)
(1.15204 1.08409 0)
(1.09291 1.05146 -4.2623e-20)
(1.01853 1.01181 -1.89808e-19)
(0.942446 0.968836 -2.21618e-21)
(0.856856 0.922047 -5.45594e-19)
(0.762362 0.867472 -7.9299e-20)
(0.668142 0.806229 7.36574e-20)
(0.587895 0.74103 8.73182e-19)
(0.516557 0.662408 9.68807e-19)
(0.455968 0.554024 1.68361e-19)
(0.375346 0.424466 8.57565e-19)
(0.270173 0.22859 0)
(0.144301 0.0506386 0)
(-0.0142605 0.170332 6.84873e-19)
(-0.0786361 0.629385 -2.66833e-20)
(0.010085 1.54611 -8.51858e-19)
(0.416548 0.393844 1.89747e-19)
(0.915601 0.841564 4.37372e-19)
(1.1237 1.05704 -6.06619e-19)
(1.16718 1.10646 3.10546e-19)
(1.13941 1.1096 -1.18455e-20)
(1.08028 1.07652 7.68211e-21)
(1.00608 1.0368 0)
(0.92965 0.993391 -4.63546e-19)
(0.843201 0.946842 0)
(0.747385 0.893176 1.11406e-18)
(0.650092 0.832743 -9.05429e-20)
(0.564106 0.765312 1.01528e-19)
(0.491179 0.689958 1.11849e-18)
(0.400703 0.586536 -3.65829e-19)
(0.28622 0.406546 -4.35015e-19)
(0.180625 0.277098 0)
(0.0725661 0.452809 0)
(0.024004 1.36587 0)
(0.0710221 2.4753 -3.88527e-19)
(0.0968836 2.91651 -2.40237e-19)
(0.414957 0.40439 0)
(0.908104 0.859431 0)
(1.11279 1.0779 2.20651e-19)
(1.15567 1.12945 -2.52968e-19)
(1.12773 1.13338 1.1903e-19)
(1.0684 1.10004 1.80337e-21)
(0.994105 1.06009 2.5069e-20)
(0.91757 1.01723 -1.95178e-20)
(0.830412 0.971168 7.77553e-20)
(0.732615 0.918257 -1.27867e-18)
(0.631589 0.860099 1.63851e-19)
(0.540378 0.798773 8.80522e-19)
(0.449194 0.719602 -1.11371e-18)
(0.361981 0.593301 -1.23159e-18)
(0.262635 0.462538 4.13334e-19)
(0.17838 0.612461 0)
(0.11165 1.59342 5.59979e-19)
(0.117096 2.70252 6.02158e-19)
(0.124459 3.09099 -6.72578e-19)
(0.117313 3.22364 7.14982e-19)
(0.413919 0.414664 0)
(0.903451 0.880156 3.81477e-19)
(1.10368 1.10169 -5.52744e-20)
(1.14451 1.15306 3.48289e-19)
(1.11598 1.15639 -1.24942e-19)
(1.05664 1.12292 0)
(0.982527 1.08334 0)
(0.905692 1.04049 0)
(0.817859 0.995252 4.34524e-19)
(0.719032 0.944074 5.87114e-20)
(0.615465 0.887883 0)
(0.517952 0.825116 -8.74962e-19)
(0.430413 0.751861 0)
(0.305115 0.637709 8.81107e-19)
(0.19846 0.685376 -5.98236e-19)
(0.142855 1.46764 -4.78516e-19)
(0.147597 2.68894 -1.09644e-18)
(0.171336 3.12596 -5.75534e-19)
(0.161944 3.26495 -7.7144e-19)
(0.149201 3.30513 5.56853e-19)
(0.412254 0.42391 -1.32573e-19)
(0.896407 0.895573 1.46931e-20)
(1.09349 1.11975 -6.12033e-20)
(1.13393 1.17337 -2.70255e-19)
(1.1052 1.17777 0)
(1.04568 1.14436 0)
(0.971493 1.10485 0)
(0.89467 1.06302 3.28778e-20)
(0.806346 1.01889 -5.49676e-19)
(0.705841 0.969298 0)
(0.598801 0.916467 0)
(0.498739 0.862544 0)
(0.386203 0.783983 0)
(0.308581 0.730457 6.48633e-19)
(0.264031 1.13466 1.58855e-18)
(0.236509 2.40366 4.65098e-19)
(0.254359 3.08119 9.28793e-19)
(0.248933 3.27782 -7.11172e-19)
(0.2009 3.34314 2.5954e-19)
(0.169403 3.35643 0)
(0.411066 0.433029 1.36122e-19)
(0.892137 0.91476 -8.43368e-19)
(1.08498 1.14195 -2.27776e-19)
(1.12343 1.19524 -5.06277e-20)
(1.09413 1.19912 2.89627e-20)
(1.03462 1.1658 -1.17648e-19)
(0.960667 1.12698 -3.466e-22)
(0.883631 1.08547 -3.58678e-19)
(0.794836 1.04256 0)
(0.693746 0.995391 -7.55615e-20)
(0.585468 0.945579 6.87399e-20)
(0.47937 0.88937 0)
(0.383308 0.824719 0)
(0.320795 0.924105 -8.12893e-19)
(0.264768 1.85161 1.02684e-19)
(0.261295 2.94507 -3.50153e-19)
(0.28672 3.28067 7.32098e-19)
(0.257914 3.37886 5.22685e-19)
(0.19375 3.40351 -7.0576e-19)
(0.169447 3.41382 3.47714e-19)
(0.408954 0.442402 2.6636e-19)
(0.884457 0.929408 8.19861e-19)
(1.07428 1.15922 2.74182e-19)
(1.11263 1.21511 0)
(1.08323 1.22031 0)
(1.02366 1.18713 9.1134e-20)
(0.949755 1.14839 5.12251e-20)
(0.872967 1.10809 3.19251e-19)
(0.784022 1.0666 2.12251e-20)
(0.681837 1.02154 9.61907e-19)
(0.571082 0.975643 -1.14952e-18)
(0.459658 0.925179 0)
(0.380352 0.904407 0)
(0.332746 1.30301 -5.5522e-19)
(0.327365 2.497 -6.65792e-19)
(0.372702 3.19328 0)
(0.398017 3.36075 -7.39733e-19)
(0.327113 3.42377 5.12499e-20)
(0.259102 3.46957 3.38677e-19)
(0.237097 3.49509 -1.09737e-19)
(0.407131 0.452101 -5.05956e-19)
(0.879616 0.950649 -3.93128e-19)
(1.06472 1.18382 0)
(1.1009 1.23876 0)
(1.071 1.24306 0)
(1.01162 1.2098 0)
(0.938214 1.17175 -6.22321e-20)
(0.861463 1.13166 2.77719e-19)
(0.772448 1.09136 0)
(0.670499 1.04896 -8.75396e-19)
(0.560444 1.00636 2.06385e-18)
(0.449609 0.963091 8.47435e-20)
(0.395882 1.02497 1.14533e-19)
(0.384465 1.73947 9.04633e-19)
(0.394948 2.90135 -4.86457e-19)
(0.435343 3.31215 0)
(0.418303 3.43331 2.08165e-19)
(0.332429 3.52262 9.106e-20)
(0.25907 3.58708 1.48761e-19)
(0.183544 3.56653 -1.62258e-20)
(0.404121 0.462345 2.40316e-19)
(0.869919 0.966187 -3.99483e-19)
(1.05195 1.20205 0)
(1.08844 1.26002 -7.40862e-20)
(1.05859 1.26586 2.5605e-19)
(0.999341 1.2326 0)
(0.926238 1.19433 0)
(0.850139 1.15538 -4.81418e-19)
(0.761508 1.11651 -5.57281e-20)
(0.659384 1.07628 8.59389e-19)
(0.54538 1.03705 -9.80546e-19)
(0.451967 1.01462 5.78113e-19)
(0.412443 1.21516 0)
(0.419563 2.18576 -4.79902e-19)
(0.461435 3.14154 3.14489e-19)