/*--------------------------------*- C++ -*----------------------------------*\
| =========                 |                                                 |
| \\      /  F ield         | OpenFOAM: The Open Source CFD Toolbox           |
|  \\    /   O peration     | Version:  4.0                                   |
|   \\  /    A nd           | Web:      www.OpenFOAM.org                      |
|    \\/     M anipulation  |                                                 |
\*---------------------------------------------------------------------------*/
FoamFile
{
    version     2.0;
    format      ascii;
    class       volScalarField;
    location    "35";
    object      p;
}
// * * * * * * * * * * * * * * * * * * * * * * * * * * * * * * * * * * * * * //

dimensions      [0 2 -2 0 0 0 0];

internalField   nonuniform List<scalar> 
2200
(
0.961911
0.94041
0.924501
0.90883
0.894214
0.881683
0.871309
0.863171
0.857421
0.854407
0.854792
0.858515
0.864783
0.873288
0.883921
0.896648
0.911405
0.927255
0.94326
0.964767
0.894365
0.891107
0.888178
0.884049
0.87857
0.872079
0.865439
0.85946
0.854908
0.852438
0.852829
0.856039
0.861137
0.867527
0.874463
0.881176
0.88681
0.890942
0.893836
0.897166
0.854457
0.854674
0.856721
0.858057
0.858445
0.857576
0.855572
0.852869
0.850291
0.848737
0.849198
0.851535
0.854711
0.857855
0.860149
0.861146
0.860849
0.859785
0.858045
0.857803
0.831972
0.833415
0.836023
0.838488
0.840917
0.842919
0.844057
0.84424
0.843808
0.843425
0.843949
0.845209
0.846319
0.846643
0.845889
0.84418
0.841989
0.839736
0.837129
0.835717
0.81775
0.819726
0.822534
0.825341
0.828165
0.830961
0.83338
0.835193
0.836344
0.837021
0.837618
0.837982
0.837632
0.836435
0.834501
0.832074
0.829486
0.826746
0.823962
0.822029
0.810452
0.812051
0.814242
0.816759
0.819411
0.822055
0.824596
0.826968
0.828917
0.830317
0.83102
0.830881
0.829904
0.828258
0.826271
0.824034
0.821653
0.819282
0.817168
0.815591
0.807076
0.808093
0.809359
0.811226
0.813369
0.815512
0.817653
0.819867
0.821986
0.823706
0.824552
0.824356
0.823426
0.82209
0.820594
0.818943
0.817162
0.815527
0.814381
0.813368
0.80462
0.805289
0.805919
0.807214
0.808812
0.810457
0.812139
0.813945
0.81584
0.817602
0.818631
0.818726
0.818246
0.817497
0.81659
0.815547
0.814399
0.813414
0.812931
0.812257
0.801572
0.802022
0.80242
0.803416
0.804668
0.80603
0.807475
0.809037
0.810719
0.812434
0.813692
0.814251
0.814291
0.814042
0.813573
0.812931
0.812215
0.811575
0.811339
0.810881
0.797666
0.797956
0.798328
0.799235
0.800384
0.801678
0.803112
0.804677
0.806364
0.808148
0.809696
0.810675
0.811125
0.811182
0.810969
0.81057
0.810067
0.809586
0.809389
0.809083
0.793235
0.793419
0.793815
0.79471
0.795878
0.797249
0.798792
0.800478
0.8023
0.804282
0.80618
0.807573
0.808358
0.808668
0.808622
0.808358
0.807979
0.807599
0.807412
0.807208
0.788503
0.788634
0.789013
0.789872
0.791089
0.792593
0.794341
0.796293
0.798437
0.800797
0.80315
0.804985
0.806067
0.806554
0.806622
0.80644
0.806179
0.805922
0.805769
0.80562
0.783425
0.78351
0.783888
0.784724
0.785975
0.787596
0.789589
0.791947
0.794649
0.797645
0.800543
0.802683
0.803966
0.804597
0.804838
0.804873
0.804787
0.804662
0.804552
0.804429
0.777887
0.777936
0.778312
0.779199
0.780545
0.782286
0.784446
0.787099
0.790326
0.794016
0.797554
0.800137
0.801791
0.802836
0.803459
0.803719
0.803801
0.803795
0.803741
0.803649
0.772055
0.772017
0.772445
0.773342
0.774816
0.776691
0.778989
0.781836
0.785397
0.789695
0.794077
0.797583
0.800033
0.80172
0.802823
0.803358
0.803631
0.80373
0.803719
0.803653
0.765992
0.765902
0.76629
0.767259
0.768877
0.770983
0.773577
0.776799
0.78085
0.785871
0.791286
0.795894
0.799243
0.801544
0.80304
0.803958
0.804483
0.804712
0.804758
0.804705
0.759359
0.759359
0.759687
0.760687
0.762586
0.76503
0.76816
0.772144
0.777138
0.783281
0.78991
0.79552
0.799578
0.802418
0.804364
0.805673
0.806444
0.80683
0.806937
0.806881
0.751733
0.751693
0.752139
0.753383
0.755497
0.758315
0.762082
0.766983
0.773205
0.78087
0.789003
0.795772
0.800695
0.804229
0.806748
0.80844
0.809461
0.810024
0.810204
0.810144
0.742936
0.742843
0.743361
0.74475
0.7471
0.750348
0.754746
0.760542
0.768082
0.777496
0.787554
0.795991
0.802243
0.806779
0.810027
0.812256
0.813693
0.814478
0.814735
0.814654
0.732185
0.732086
0.73266
0.734238
0.736998
0.740862
0.74612
0.753126
0.762231
0.773694
0.78606
0.796511
0.804318
0.810104
0.814286
0.817227
0.819172
0.820202
0.82054
0.820426
0.719101
0.718984
0.719668
0.72157
0.724919
0.729753
0.736404
0.745192
0.756548
0.77063
0.785607
0.798205
0.807644
0.81467
0.819817
0.823526
0.826002
0.827283
0.827685
0.82753
0.70267
0.70259
0.70357
0.706028
0.710368
0.716629
0.725148
0.73642
0.750746
0.768064
0.786094
0.801085
0.812312
0.820686
0.826854
0.83127
0.834235
0.83573
0.836185
0.835994
0.681884
0.681738
0.683058
0.686415
0.692174
0.700495
0.71172
0.726228
0.744202
0.765421
0.787074
0.804857
0.818082
0.827982
0.835278
0.840551
0.844049
0.845769
0.846277
0.846036
0.654358
0.654424
0.656565
0.661315
0.669401
0.680908
0.695873
0.714566
0.736967
0.762725
0.788462
0.809426
0.824966
0.836602
0.845256
0.851511
0.855579
0.85752
0.858056
0.85776
0.617357
0.617674
0.621365
0.629165
0.64123
0.657556
0.677768
0.701862
0.729636
0.760613
0.790879
0.815212
0.833175
0.846638
0.856701
0.864027
0.868708
0.870891
0.871463
0.871071
0.567917
0.568372
0.575534
0.588545
0.607125
0.630644
0.657851
0.688637
0.722724
0.759566
0.794643
0.82245
0.842918
0.858304
0.869869
0.878231
0.883452
0.885716
0.88618
0.885747
0.502115
0.505099
0.520553
0.542085
0.569524
0.601639
0.636911
0.675235
0.716365
0.759754
0.8003
0.83231
0.856056
0.87397
0.8875
0.897494
0.903794
0.906327
0.906613
0.906377
0.426979
0.436785
0.462626
0.494155
0.531574
0.572611
0.615911
0.661992
0.71056
0.761014
0.807848
0.844913
0.872548
0.89371
0.910035
0.922055
0.929764
0.93256
0.932785
0.933011
0.360456
0.375677
0.408033
0.447925
0.494595
0.544347
0.595694
0.64956
0.705468
0.762793
0.815445
0.857081
0.888245
0.912106
0.930284
0.943847
0.952503
0.956554
0.957531
0.957499
0.31011
0.323708
0.361385
0.407125
0.460889
0.51787
0.576626
0.637802
0.700596
0.764455
0.82282
0.868702
0.902735
0.928563
0.948492
0.963595
0.972868
0.977134
0.97805
0.978145
0.268751
0.281398
0.322487
0.372097
0.431199
0.493908
0.559005
0.626648
0.695754
0.765845
0.829591
0.87902
0.915488
0.943076
0.96395
0.979735
0.989528
0.99399
0.995091
0.9952
0.233187
0.246122
0.289579
0.341966
0.405144
0.472416
0.54282
0.616033
0.69085
0.766589
0.834934
0.887635
0.926107
0.954809
0.97635
0.992284
1.00247
1.00731
1.0086
1.00872
0.202113
0.215198
0.260635
0.315462
0.381991
0.45303
0.527871
0.605871
0.685725
0.766491
0.83919
0.894729
0.93473
0.964345
0.986246
1.00241
1.01318
1.01826
1.01977
1.01987
0.174163
0.187324
0.234393
0.291453
0.36091
0.435174
0.513835
0.596012
0.680354
0.765869
0.842482
0.900516
0.941935
0.97229
0.994951
1.01137
1.02233
1.02764
1.02924
1.02928
0.14861
0.16177
0.210068
0.269245
0.341308
0.418383
0.500354
0.586158
0.674491
0.764023
0.844255
0.905122
0.948118
0.979457
1.00255
1.01923
1.03019
1.03557
1.0371
1.03687
0.12456
0.138047
0.187189
0.248398
0.322739
0.402269
0.487076
0.576028
0.667911
0.761449
0.846047
0.909504
0.954026
0.986119
1.0095
1.02629
1.03699
1.04238
1.0439
1.04376
0.101944
0.115523
0.16548
0.228525
0.304846
0.386549
0.473867
0.565703
0.661053
0.758667
0.846623
0.912823
0.959504
0.992506
1.01614
1.0329
1.04369
1.04885
1.05046
1.05036
0.0805616
0.0941485
0.14478
0.209347
0.287352
0.371053
0.460698
0.555177
0.653549
0.754359
0.846007
0.916138
0.964699
0.998722
1.02287
1.0396
1.05027
1.05537
1.05681
1.05675
0.0599172
0.0737351
0.124875
0.190718
0.270183
0.355707
0.44745
0.544232
0.645212
0.749458
0.845765
0.918954
0.969839
1.00543
1.02986
1.04657
1.05702
1.06183
1.06324
1.06312
0.0396067
0.0540703
0.105588
0.172538
0.253252
0.340395
0.434014
0.532907
0.636526
0.744215
0.844033
0.920668
0.974866
1.01211
1.03737
1.05396
1.06389
1.06844
1.06954
1.06939
0.019604
0.0348847
0.0867807
0.154738
0.236529
0.3251
0.420422
0.521306
0.627347
0.737883
0.841229
0.922203
0.979437
1.01918
1.04562
1.06204
1.07112
1.07485
1.07564
1.07544
6.41935e-05
0.0160845
0.0684179
0.137321
0.220038
0.309849
0.406687
0.509376
0.617513
0.730587
0.837405
0.922212
0.983568
1.02659
1.0549
1.07126
1.07888
1.08117
1.08129
1.08113
-0.0188926
-0.0023217
0.0505135
0.120311
0.203838
0.294699
0.392835
0.497077
0.607054
0.722459
0.832422
0.921332
0.987051
1.03417
1.06537
1.08252
1.08836
1.08691
1.08616
1.08685
-0.0372167
-0.020236
0.0331266
0.103755
0.187997
0.27973
0.378933
0.484493
0.596085
0.713527
0.826004
0.918789
0.989394
1.0415
1.07702
1.0964
1.10129
1.09558
1.09009
1.0881
-0.0548964
-0.0375745
0.0163112
0.0877002
0.172585
0.265035
0.365084
0.47171
0.584664
0.703716
0.818436
0.914996
0.990174
1.04811
1.08962
1.1136
1.12193
1.11012
1.10692
1.11143
-0.0719245
-0.0542629
0.000130736
0.0722011
0.157658
0.250696
0.351398
0.458832
0.572863
0.693336
0.81011
0.909168
0.988776
1.05288
1.10188
1.13365
1.14932
1.1243
1.08071
1.04057
-0.0882459
-0.0703164
-0.0154529
0.0571873
0.143112
0.236589
0.337746
0.445735
0.560524
0.682141
0.800324
0.901277
0.984578
1.05461
1.11239
1.15549
1.18624
1.18152
1.19876
1.25218
-0.103811
-0.0857774
-0.0305285
0.0425164
0.128753
0.222481
0.323868
0.432116
0.547267
0.66959
0.7888
0.890825
0.976112
1.05052
1.11288
1.15938
1.1833
1.17384
1.13877
1.14972
-0.118595
-0.100624
-0.0450592
0.0282354
0.114652
0.208465
0.309884
0.418146
0.533343
0.655799
0.775066
0.877164
0.962168
1.03658
1.09808
1.14204
1.14001
1.0939
1.03377
1.02289
-0.132594
-0.114848
-0.0590424
0.0143404
0.100802
0.194535
0.295806
0.40384
0.518704
0.640631
0.759365
0.860481
0.94264
1.01122
1.06596
1.08259
1.05223
0.980467
0.908318
0.891341
-0.145846
-0.128442
-0.0724945
0.000810362
0.0871835
0.180676
0.28163
0.389204
0.503354
0.624254
0.741735
0.840417
0.916615
0.972568
1.00275
0.994338
0.94395
0.844653
0.75865
0.739382
-0.158811
-0.141818
-0.085808
-0.0127203
0.0734416
0.166574
0.267075
0.373977
0.487075
0.606367
0.721556
0.81631
0.885429
0.925621
0.921677
0.889241
0.784056
0.663664
0.55757
0.532868
-0.172389
-0.155766
-0.0996882
-0.0268794
0.0590065
0.151746
0.251711
0.357797
0.469612
0.586872
0.698919
0.788655
0.850558
0.867705
0.832914
0.748515
0.594016
0.442709
0.315164
0.289445
-0.1871
-0.170707
-0.11445
-0.0418966
0.0436952
0.136057
0.235439
0.340598
0.450961
0.565735
0.673729
0.75786
0.8084
0.798981
0.743649
0.595846
0.395022
0.181579
0.00127704
-0.0453919
-0.203039
-0.186714
-0.130156
-0.0577971
0.027538
0.11954
0.218299
0.322439
0.431177
0.543116
0.645988
0.724628
0.760272
0.718977
0.630149
0.440192
0.205104
-0.0876744
-0.412956
-0.55775
-0.220285
-0.203902
-0.146912
-0.0746575
0.0104794
0.102136
0.20024
0.303278
0.410242
0.519044
0.61618
0.688758
0.707468
0.633988
0.495957
0.285417
0.0448851
-0.306561
-0.903361
-1.48045
-0.238889
-0.222324
-0.164787
-0.0925395
-0.00748901
0.083865
0.181322
0.283223
0.388337
0.494
0.585314
0.650028
0.651005
0.557878
0.365191
0.124055
-0.0872183
-0.332606
-0.907152
-2.46173
-0.258853
-0.242112
-0.183869
-0.111556
-0.0265279
0.0645346
0.161311
0.262009
0.365171
0.467455
0.552898
0.608286
0.590383
0.497556
0.267058
0.0203101
-0.136139
-0.182089
-0.183599
-0.58097
-0.280061
-0.263301
-0.204317
-0.132007
-0.0470141
0.043674
0.139624
0.238895
0.339773
0.438066
0.518161
0.563399
0.528493
0.448942
0.215167
0.0015998
-0.117394
-0.129762
-0.0797674
-0.12226
-0.302496
-0.28581
-0.22612
-0.153927
-0.0690169
0.0211696
0.116115
0.213751
0.312009
0.405808
0.481165
0.517401
0.474449
0.397506
0.180288
0.00769293
-0.0791051
-0.0870843
-0.134519
-0.141654
-0.326044
-0.309312
-0.249194
-0.177327
-0.0925024
-0.00297099
0.0907844
0.186524
0.281854
0.371039
0.441836
0.469064
0.426282
0.33671
0.152488
0.0172626
-0.0599647
-0.0292327
-0.0524611
-0.0543307
-0.350585
-0.333539
-0.273456
-0.202074
-0.117307
-0.0286563
0.0637232
0.157405
0.24948
0.334088
0.400463
0.41767
0.383864
0.269414
0.117655
0.0230403
-0.0283212
-0.0679025
-0.0447695
-0.052465
-0.375533
-0.358142
-0.298782
-0.22801
-0.143195
-0.0556768
0.0351609
0.126581
0.215058
0.295325
0.357736
0.364441
0.341112
0.205076
0.0775754
0.00983573
0.0193567
-0.0422773
-0.0176243
-0.0236137
-0.400376
-0.382823
-0.324947
-0.25464
-0.169811
-0.083765
0.00543685
0.0945356
0.179014
0.255234
0.315036
0.312943
0.291489
0.15223
0.0459763
-0.0114969
0.0153219
-0.0166086
-0.0184292
-0.0191071
-0.424462
-0.407204
-0.351037
-0.281265
-0.196837
-0.112469
-0.0249727
0.0617028
0.141955
0.214143
0.272331
0.263889
0.235254
0.106555
0.0260511
-0.0142652
-0.0328361
-0.0214082
-0.0265306
-0.0235776
-0.447177
-0.430635
-0.37608
-0.307017
-0.223819
-0.141217
-0.0554352
0.0287893
0.104848
0.172597
0.230342
0.217082
0.176699
0.0703215
0.0116195
-0.00756665
-0.0581168
-0.0233538
-0.029949
-0.0229301
-0.467503
-0.452082
-0.399173
-0.33111
-0.250292
-0.169161
-0.0851742
-0.00341501
0.0688862
0.131116
0.189137
0.171597
0.119807
0.0432861
-0.00149753
-0.0022606
-0.0615585
-0.0104356
-0.0192131
-0.0120875
-0.484305
-0.470377
-0.419616
-0.352945
-0.275054
-0.195252
-0.113251
-0.0340442
0.0350624
0.0907965
0.148881
0.12597
0.0598638
0.0229509
0.018957
0.0461318
0.0301024
0.0153887
1.52499e-05
-0.0021944
-0.496445
-0.484463
-0.436463
-0.371783
-0.296622
-0.218469
-0.13868
-0.0618584
0.00490357
0.0536159
0.111816
0.0862091
-0.00690842
-0.0113781
0.0708205
0.107682
0.0784813
0.0411957
0.0220138
0.00697918
-0.502862
-0.493052
-0.448682
-0.386199
-0.313461
-0.237619
-0.160149
-0.085564
-0.0204915
0.0223062
0.076175
0.054806
-0.080587
-0.159875
-0.14337
-0.17686
-0.182323
-0.170496
-0.167149
-0.161702
-0.502943
-0.495123
-0.454675
-0.394976
-0.324801
-0.251362
-0.176213
-0.103514
-0.0394598
0.00141682
0.0447739
0.0305987
-0.153049
-0.430662
-0.741524
-0.908346
-0.945898
-0.900618
-0.81831
-0.748092
-0.495664
-0.48846
-0.452752
-0.396626
-0.329448
-0.258537
-0.185529
-0.113966
-0.0493076
-0.00609307
0.0287619
0.0243959
-0.17036
-0.527954
-0.995981
-1.21652
-1.2404
-1.15137
-1.06344
-0.989324
-0.477439
-0.469882
-0.440786
-0.390031
-0.326596
-0.25824
-0.187045
-0.115447
-0.0473118
0.00394445
0.0408815
0.0627212
-0.0295596
-0.174502
-0.373918
-0.423354
-0.352265
-0.264371
-0.148613
-0.0814117
-0.442395
-0.435531
-0.417532
-0.375052
-0.316085
-0.250232
-0.180208
-0.106956
-0.0320777
0.0357982
0.0918573
0.184435
0.29426
0.509833
0.696352
0.873439
1.03279
1.13427
1.19143
1.23028
-0.396214
-0.392305
-0.386494
-0.352709
-0.299611
-0.235824
-0.165575
-0.0892794
-0.00528914
0.0862882
0.178177
0.330757
0.58199
0.981623
1.36468
1.68355
1.90797
2.04412
2.11073
2.13344
-0.361386
-0.361087
-0.355695
-0.329602
-0.281094
-0.217984
-0.145892
-0.0658493
0.0258048
0.135057
0.253317
0.397884
0.700309
1.09749
1.48454
1.81418
2.05373
2.19343
2.25491
2.27121
-0.329951
-0.330854
-0.325218
-0.308319
-0.26388
-0.200589
-0.125832
-0.0439634
0.0488125
0.158674
0.276094
0.375369
0.626743
0.948935
1.25179
1.51112
1.71514
1.83858
1.89545
1.91239
-0.300327
-0.299822
-0.299405
-0.290335
-0.246081
-0.183133
-0.10816
-0.0270544
0.0606716
0.159215
0.268754
0.334813
0.521846
0.780781
1.01636
1.21642
1.37987
1.48272
1.52885
1.54119
-0.277769
-0.276605
-0.282296
-0.271261
-0.226968
-0.164801
-0.0920097
-0.0143714
0.0653269
0.148083
0.248501
0.299012
0.422384
0.621227
0.807444
0.957315
1.07633
1.15639
1.19242
1.20196
-0.238562
-0.238931
-0.244779
-0.233345
-0.196042
-0.138563
-0.0718542
-0.00113723
0.0693635
0.136678
0.226263
0.271895
0.345664
0.492443
0.638294
0.749469
0.834388
0.89275
0.918173
0.923979
-0.171023
-0.172834
-0.176343
-0.168634
-0.140569
-0.0956799
-0.0423004
0.0165805
0.0767067
0.131161
0.207264
0.251164
0.294146
0.401082
0.510733
0.590767
0.65045
0.691964
0.70997
0.715974
-0.0825929
-0.0844548
-0.0863483
-0.0816431
-0.0639903
-0.035853
-0.000132467
0.0425021
0.0906746
0.134211
0.194529
0.233783
0.261229
0.341477
0.419746
0.475468
0.518711
0.551628
0.564468
0.567926
0.00931171
0.00801985
0.00657653
0.00822296
0.0160079
0.0298839
0.049286
0.0756683
0.111018
0.142767
0.187903
0.219166
0.238824
0.301388
0.35678
0.393633
0.425436
0.446724
0.456968
0.460481
0.0865883
0.0855778
0.084314
0.0834559
0.0845489
0.0886518
0.0964446
0.11013
0.132407
0.152842
0.184345
0.210113
0.222611
0.272603
0.311986
0.337569
0.357348
0.370155
0.375748
0.377095
0.142475
0.141837
0.140457
0.13766
0.13416
0.132437
0.133502
0.138581
0.149843
0.162559
0.18183
0.202782
0.213968
0.248776
0.2766
0.295115
0.306494
0.312443
0.313969
0.312992
0.176097
0.175602
0.174272
0.17066
0.164796
0.159979
0.157396
0.157412
0.162124
0.17009
0.181899
0.196023
0.207321
0.227836
0.244824
0.255779
0.262444
0.263628
0.262493
0.261158
0.19338
0.19296
0.191755
0.188237
0.182112
0.176115
0.171533
0.168854
0.170417
0.174652
0.182923
0.191129
0.199946
0.210429
0.218606
0.223127
0.225442
0.225285
0.223515
0.222174
0.200236
0.199892
0.198863
0.196002
0.190832
0.185256
0.18025
0.176321
0.175946
0.176575
0.182033
0.185853
0.189139
0.195243
0.200257
0.203178
0.204248
0.204132
0.202615
0.200435
0.201637
0.201359
0.200497
0.198356
0.194331
0.189904
0.185413
0.181096
0.179341
0.177462
0.17975
0.179914
0.179364
0.183042
0.187787
0.191193
0.192553
0.190303
0.188479
0.186679
0.200268
0.200055
0.199348
0.197812
0.194796
0.191425
0.187691
0.183886
0.181686
0.178595
0.177348
0.175221
0.17423
0.176828
0.180717
0.182873
0.183173
0.181065
0.179163
0.177997
0.197914
0.197745
0.19721
0.196018
0.193734
0.191275
0.188336
0.1852
0.182762
0.17909
0.175986
0.17265
0.171352
0.175031
0.179346
0.181237
0.181945
0.184157
0.184715
0.182725
0.195164
0.195026
0.194649
0.193819
0.19221
0.190515
0.188485
0.185779
0.183565
0.179004
0.174861
0.169595
0.165156
0.173742
0.181666
0.186227
0.191863
0.19567
0.197339
0.1949
0.192517
0.192407
0.192205
0.191545
0.190418
0.189472
0.188641
0.186108
0.18452
0.180019
0.173708
0.168556
0.162105
0.170999
0.182792
0.190405
0.195969
0.196576
0.196324
0.195525
0.18967
0.189626
0.18963
0.189428
0.188974
0.188032
0.188046
0.186985
0.18645
0.183351
0.178796
0.171684
0.166946
0.173859
0.18127
0.185458
0.18484
0.183833
0.184055
0.184063
0.185678
0.185705
0.185851
0.1859
0.186081
0.186048
0.186624
0.187955
0.188115
0.186813
0.187256
0.178195
0.173076
0.18007
0.183872
0.18636
0.190369
0.19546
0.199231
0.197056
0.179097
0.179224
0.17965
0.180563
0.181236
0.183302
0.183676
0.187038
0.191141
0.193003
0.200045
0.191265
0.182113
0.187734
0.195268
0.206715
0.223315
0.232637
0.234733
0.231136
0.16939
0.169515
0.170003
0.171447
0.17304
0.176608
0.179123
0.184406
0.190643
0.197109
0.2037
0.208749
0.196928
0.197364
0.200985
0.208424
0.216599
0.221669
0.222261
0.217651
0.156138
0.156543
0.157348
0.159201
0.161856
0.166482
0.171884
0.178179
0.186101
0.19658
0.205409
0.219011
0.206902
0.193612
0.179024
0.171501
0.158629
0.148526
0.148551
0.148151
0.135932
0.136464
0.137576
0.140123
0.143938
0.150401
0.158913
0.167189
0.178724
0.191326
0.204835
0.204366
0.195464
0.168232
0.145081
0.129536
0.115751
0.102758
0.103131
0.105616
0.106912
0.10696
0.109301
0.113365
0.11832
0.124573
0.131716
0.140257
0.150471
0.155358
0.171235
0.165533
0.159855
0.139371
0.133861
0.123101
0.133681
0.137489
0.121973
0.126678
0.0665248
0.0668481
0.0680921
0.0725523
0.0794249
0.0874656
0.0953457
0.10337
0.104858
0.101603
0.118767
0.122408
0.110898
0.101355
0.115275
0.129852
0.143342
0.159854
0.13515
0.137435
0.0231503
0.0230638
0.0228056
0.0233695
0.0253485
0.0279554
0.0292156
0.0269499
0.0225469
0.0344093
0.0500174
0.065198
0.053584
0.0466315
0.0561793
0.0588859
0.0513715
0.0610087
0.056351
0.0549209
-0.915833
-0.0584853
0.212741
0.494447
0.682195
0.844247
0.978417
1.11463
1.26146
1.33992
0.0796037
0.494798
0.516386
0.708371
0.838185
0.954231
1.05472
1.14359
1.17243
1.12925
0.46828
0.68745
0.726903
0.86551
0.955391
1.03838
1.10676
1.1579
1.16093
1.17411
0.705403
0.852581
0.888835
0.994378
1.05186
1.11244
1.1584
1.1914
1.20089
1.22427
0.888949
0.992531
1.0224
1.09317
1.1375
1.18041
1.21323
1.23784
1.24795
1.27927
1.03456
1.10508
1.13558
1.18006
1.21669
1.24757
1.27238
1.29326
1.3077
1.33579
1.15537
1.20696
1.23281
1.26148
1.28979
1.31398
1.33428
1.35367
1.36876
1.39513
1.26007
1.29785
1.3191
1.34013
1.36142
1.38115
1.39875
1.41698
1.43191
1.45555
1.35479
1.38371
1.4008
1.41642
1.43287
1.44915
1.46482
1.48183
1.49544
1.51775
1.44357
1.46432
1.47942
1.49278
1.50654
1.52044
1.53398
1.54858
1.56012
1.57977
1.52965
1.54552
1.55947
1.57142
1.58344
1.5951
1.60622
1.61789
1.62554
1.64236
1.61515
1.62807
1.64185
1.65352
1.66408
1.67381
1.68258
1.6908
1.69436
1.70564
1.70442
1.71542
1.72889
1.7381
1.74553
1.75273
1.75991
1.76643
1.76746
1.77487
1.80285
1.80759
1.81563
1.82011
1.8234
1.82786
1.83385
1.84159
1.84543
1.85531
1.91615
1.90246
1.89502
1.88941
1.88675
1.88815
1.8946
1.907
1.92178
1.95144
2.03709
1.98134
1.95048
1.9334
1.92525
1.92522
1.93396
1.95351
1.98547
2.05467
)
;

boundaryField
{
    wall-4
    {
        type            zeroGradient;
    }
    pressure-outlet-7
    {
        type            fixedValue;
        value           uniform 0;
    }
    velocity-inlet-6
    {
        type            zeroGradient;
    }
    velocity-inlet-5
    {
        type            zeroGradient;
    }
    frontAndBackPlanes
    {
        type            empty;
    }
}


// ************************************************************************* //
