/*--------------------------------*- C++ -*----------------------------------*\
| =========                 |                                                 |
| \\      /  F ield         | OpenFOAM: The Open Source CFD Toolbox           |
|  \\    /   O peration     | Version:  4.0                                   |
|   \\  /    A nd           | Web:      www.OpenFOAM.org                      |
|    \\/     M anipulation  |                                                 |
\*---------------------------------------------------------------------------*/
FoamFile
{
    version     2.0;
    format      ascii;
    class       surfaceScalarField;
    location    "35";
    object      phi;
}
// * * * * * * * * * * * * * * * * * * * * * * * * * * * * * * * * * * * * * //

dimensions      [0 3 -1 0 0 0 0];

internalField   nonuniform List<scalar> 
4262
(
0.107142
0.470846
0.0955874
0.70514
0.0694152
0.858475
0.0474359
1.02074
0.031108
1.21484
0.0198879
1.44944
0.0124102
1.73334
0.00720034
2.07625
0.00332467
2.48912
-0.000239
2.98586
-0.00378764
2.98584
-0.00765897
2.48911
-0.0128576
2.07623
-0.0201828
1.73319
-0.0311829
1.44922
-0.0473197
1.21465
-0.0691572
1.0206
-0.0953654
0.858511
-0.10711
0.70533
0.470878
0.112883
0.357963
0.135287
0.682736
0.120353
0.87341
0.097725
1.04337
0.0744172
1.23815
0.0527816
1.47108
0.0345416
1.75158
0.0203849
2.0904
0.00902532
2.50048
-0.00108961
2.99597
-0.011258
2.99601
-0.0224377
2.50029
-0.0363192
2.09012
-0.0542721
1.75114
-0.0759252
1.47087
-0.09951
1.23824
-0.122468
1.04356
-0.136513
0.872556
-0.113397
0.682215
0.357481
0.0921101
0.265853
0.125116
0.649731
0.121344
0.877181
0.105166
1.05955
0.0864669
1.25685
0.0672858
1.49026
0.0484473
1.77042
0.0305264
2.10832
0.0141569
2.51685
-0.00167631
3.0118
-0.0173129
3.01165
-0.0333732
2.51635
-0.0509439
2.10769
-0.0696138
1.76981
-0.0882957
1.48955
-0.105947
1.25589
-0.120676
1.05829
-0.125427
0.877308
-0.0923773
0.649165
0.265104
0.0640497
0.201803
0.104935
0.608846
0.106735
0.87538
0.0954181
1.07087
0.081623
1.27065
0.0669511
1.50493
0.0507256
1.78665
0.033494
2.12556
0.0158369
2.53451
-0.00268531
3.03033
-0.0209147
3.02988
-0.0379902
2.53343
-0.0545842
2.12428
-0.0700588
1.78529
-0.0840262
1.50352
-0.0976664
1.26953
-0.109221
1.06984
-0.106439
0.874526
-0.0646381
0.607364
0.200466
0.0374493
0.164354
0.080715
0.56558
0.0910949
0.865
0.083999
1.07796
0.0716333
1.28301
0.0599809
1.51658
0.047104
1.79952
0.03232
2.14034
0.0155623
2.55126
-0.00345062
3.04934
-0.0222626
3.04869
-0.0386117
2.54978
-0.052785
2.13845
-0.0649896
1.79749
-0.0761366
1.51467
-0.0879281
1.28132
-0.0942506
1.07616
-0.0827412
0.863017
-0.0381876
0.56281
0.162278
0.019546
0.144808
0.0574755
0.527651
0.0730344
0.849441
0.0709876
1.08001
0.0622229
1.29178
0.0514097
1.52739
0.0402436
1.81069
0.0277784
2.1528
0.0128687
2.56617
-0.0046858
3.06689
-0.0218826
3.06588
-0.0359101
2.56381
-0.0472419
2.14979
-0.0574893
1.80774
-0.0674235
1.5246
-0.0752328
1.28913
-0.0763196
1.07725
-0.0595107
0.846208
-0.0202266
0.523526
0.142051
0.0106846
0.134123
0.0424412
0.495894
0.0585952
0.833287
0.0589064
1.0797
0.0527348
1.29795
0.0434317
1.5367
0.033443
1.82068
0.0224802
2.16377
0.00981306
2.57884
-0.00561461
3.08232
-0.0207083
3.08098
-0.0325129
2.57561
-0.0424725
2.15975
-0.0512279
1.81649
-0.0594691
1.53284
-0.0645168
1.29418
-0.0629546
1.07569
-0.0450441
0.828297
-0.0114732
0.489955
0.130578
0.00653492
0.127589
0.0329138
0.469515
0.0492765
0.816925
0.0509488
1.07803
0.0459925
1.3029
0.0377259
1.54496
0.0282646
1.83014
0.0177192
2.17431
0.00604662
2.59051
-0.00754294
3.09591
-0.0205585
3.09399
-0.0310248
2.58608
-0.0400728
2.16879
-0.047844
1.82426
-0.0545828
1.53958
-0.0579771
1.29757
-0.0546822
1.07239
-0.0361946
0.80981
-0.00756492
0.461325
0.123013
0.00474543
0.122843
0.0266561
0.447605
0.0425674
0.801013
0.0449739
1.07562
0.0407632
1.30712
0.0335695
1.55216
0.0248714
1.83884
0.0148335
2.18435
0.00356817
2.60178
-0.00892802
3.10841
-0.0207465
3.10581
-0.0305609
2.59589
-0.038845
2.17708
-0.0460535
1.83147
-0.0517301
1.54526
-0.0542189
1.30006
-0.0495589
1.06773
-0.030686
0.790937
-0.00597987
0.436619
0.117033
0.00376868
0.119074
0.0216687
0.429704
0.0369746
0.785707
0.0400552
1.07254
0.036177
1.31099
0.029347
1.55899
0.0210536
1.84713
0.0112849
2.19412
0.000259762
2.6128
-0.0116353
3.1203
-0.0227789
3.11696
-0.0318548
2.60497
-0.0394031
2.18463
-0.0451423
1.83721
-0.0494768
1.54959
-0.0508966
1.30148
-0.0450961
1.06193
-0.0264117
0.772252
-0.00525505
0.415463
0.111778
0.00287254
0.116202
0.0169185
0.415658
0.0307138
0.771912
0.0339745
1.06928
0.0305003
1.31447
0.024237
1.56525
0.0165554
1.85481
0.00741416
2.20326
-0.00292163
2.62314
-0.0139621
3.13134
-0.0241324
3.12713
-0.0323412
2.61318
-0.0387413
2.19103
-0.0438146
1.84229
-0.0474787
1.55326
-0.0481566
1.30216
-0.0412692
1.05505
-0.0228612
0.753844
-0.00474705
0.397348
0.107031
0.00205882
0.114143
0.0126635
0.405054
0.0247498
0.759826
0.0280331
1.06599
0.0246716
1.31783
0.0186181
1.5713
0.0112305
1.8622
0.00273356
2.21176
-0.0069003
2.63277
-0.0174635
3.14191
-0.0267323
3.13639
-0.0336862
2.62013
-0.0388622
2.1962
-0.0427892
1.84621
-0.0454463
1.55592
-0.0451114
1.30182
-0.0373557
1.04729
-0.0198101
0.736299
-0.00429842
0.381837
0.102733
0.00134399
0.112799
0.00920524
0.397193
0.0194996
0.749531
0.0220509
1.06344
0.0184167
1.32146
0.0123698
1.57735
0.00532969
1.86924
-0.0025667
2.21965
-0.011525
2.64173
-0.021555
3.15194
-0.0301085
3.14495
-0.0356367
2.62566
-0.0392625
2.19983
-0.0421943
1.84914
-0.0440549
1.55778
-0.0431862
1.30095
-0.0348118
1.03892
-0.0178211
0.719308
-0.00409804
0.368114
0.0986349
0.000652468
0.112147
0.00577822
0.392067
0.0137155
0.741594
0.0159748
1.06118
0.0121731
1.32527
0.00564176
1.58388
-0.00183321
1.87671
-0.00974059
2.22756
-0.0181584
2.65015
-0.0269536
3.16073
-0.0337849
3.15178
-0.0378138
2.62969
-0.0404779
2.20249
-0.0428758
1.85154
-0.0437365
1.55864
-0.0417608
1.29898
-0.0325298
1.02969
-0.016236
0.703014
-0.00403198
0.35591
0.0946029
-0.000252161
0.112399
0.00178766
0.390027
0.00746567
0.735916
0.00859107
1.06006
0.0048649
1.32899
-0.00133835
1.59009
-0.00868144
1.88406
-0.0166993
2.23558
-0.0248741
2.65832
-0.0325479
3.1684
-0.0382259
3.15746
-0.041444
2.63291
-0.0432319
2.20428
-0.0441916
1.8525
-0.0436588
1.5581
-0.040541
1.29586
-0.0305401
1.01968
-0.0147736
0.687248
-0.00382654
0.344963
0.0907763
-0.00128012
0.113679
-0.00186887
0.390616
0.00119104
0.732856
0.00151916
1.05973
-0.0025914
1.3331
-0.00894799
1.59644
-0.0165091
1.89162
-0.0247187
2.24379
-0.0332131
2.66682
-0.0407696
3.17596
-0.0454955
3.16218
-0.0473593
2.63477
-0.0477574
2.20468
-0.0468298
1.85157
-0.0448842
1.55616
-0.0398956
1.29087
-0.0287175
1.00851
-0.0135994
0.67213
-0.00365769
0.335021
0.0871187
-0.00254003
0.116219
-0.00530696
0.393383
-0.00628629
0.733836
-0.0076668
1.06111
-0.0118541
1.33729
-0.0180657
1.60265
-0.0255748
1.89913
-0.0340561
2.25227
-0.0427153
2.67548
-0.0500013
3.18325
-0.053862
3.16604
-0.0544048
2.63531
-0.0527177
2.20299
-0.0501073
1.84896
-0.046596
1.55265
-0.0401711
1.28445
-0.0282162
0.996551
-0.0133487
0.657262
-0.00369564
0.325368
0.083423
-0.00376401
0.119983
-0.00974959
0.399368
-0.0137531
0.737839
-0.0171454
1.0645
-0.0224439
1.34259
-0.0295932
1.6098
-0.0378475
1.90738
-0.0466298
2.26105
-0.0550448
2.68389
-0.0615576
3.18976
-0.0638463
3.16833
-0.0624498
2.63392
-0.0593171
2.19986
-0.0554069
1.84505
-0.0499631
1.5472
-0.0416254
1.27611
-0.0283928
0.983319
-0.0136821
0.642552
-0.00395481
0.315641
0.0794682
-0.00528095
0.125264
-0.0148363
0.408924
-0.0226841
0.745687
-0.0285807
1.0704
-0.0348354
1.34884
-0.0430625
1.61803
-0.0523674
1.91669
-0.0619827
2.27067
-0.0707074
2.69262
-0.0761707
3.19522
-0.0761347
3.1683
-0.0725676
2.63035
-0.0671472
2.19444
-0.0609134
1.83882
-0.0535182
1.53981
-0.0438541
1.26645
-0.0299035
0.969368
-0.0148601
0.627508
-0.00434873
0.305129
0.0751195
-0.00644207
0.131706
-0.0186289
0.42111
-0.0302763
0.757334
-0.0392141
1.07934
-0.0479222
1.35755
-0.0580923
1.6282
-0.0690024
1.9276
-0.0798786
2.28154
-0.0887929
2.70153
-0.0933852
3.19982
-0.0917928
3.1667
-0.0860994
2.62466
-0.0784356
2.18677
-0.0703417
1.83073
-0.0612271
1.53069
-0.0494203
1.25464
-0.0334811
0.953429
-0.0170631
0.61109
-0.00503019
0.293096
0.0700893
-0.0086521
0.140358
-0.0248332
0.437291
-0.0409254
0.773427
-0.0531935
1.09161
-0.0639227
1.36828
-0.0761692
1.64045
-0.0891157
1.94054
-0.10148
2.29391
-0.111496
2.71155
-0.116101
3.20442
-0.112031
3.16263
-0.103235
2.61586
-0.0928092
2.17635
-0.0818379
1.81975
-0.0703433
1.5192
-0.0567246
1.24102
-0.0390492
0.935754
-0.0203501
0.592391
-0.00594875
0.278695
0.0641405
-0.0108852
0.151243
-0.0310498
0.457456
-0.0516488
0.794026
-0.0681081
1.10806
-0.083074
1.38325
-0.0988796
1.65625
-0.114344
1.95601
-0.128534
2.3081
-0.138469
2.72148
-0.140977
3.20693
-0.1346
3.15626
-0.123625
2.60489
-0.110917
2.16364
-0.098258
1.8071
-0.0847673
1.50571
-0.0680202
1.22427
-0.0464748
0.914208
-0.0241785
0.570095
-0.00699563
0.261512
0.0571449
-0.0154444
0.166688
-0.0424768
0.484488
-0.0688866
0.820435
-0.090019
1.1292
-0.108428
1.40165
-0.127274
1.6751
-0.145806
1.97454
-0.161639
2.32393
-0.172177
2.73202
-0.17406
3.20881
-0.165171
3.14737
-0.150229
2.58994
-0.133654
2.14706
-0.116974
1.79042
-0.0998483
1.48858
-0.0795624
1.20399
-0.0545
0.889146
-0.028395
0.54399
-0.00804004
0.241157
0.0491049
-0.0192804
0.185968
-0.0542413
0.519449
-0.0890424
0.855236
-0.116278
1.15643
-0.140421
1.4258
-0.164421
1.6991
-0.18566
1.99578
-0.202776
2.34105
-0.212506
2.74175
-0.210819
3.20713
-0.197186
3.13373
-0.179077
2.57183
-0.160121
2.12811
-0.141141
1.77144
-0.120756
1.4682
-0.0953462
1.17858
-0.0642516
0.858051
-0.0326919
0.51243
-0.00888575
0.217351
0.0402191
-0.032595
0.218563
-0.079742
0.566596
-0.122829
0.898323
-0.156833
1.19044
-0.186715
1.45568
-0.213441
1.72582
-0.236212
2.01855
-0.253139
2.35797
-0.261258
2.74987
-0.256933
3.2028
-0.240618
3.11742
-0.218727
2.54994
-0.194625
2.10401
-0.169695
1.74651
-0.14313
1.44163
-0.111718
1.14717
-0.074899
0.821233
-0.0379519
0.475483
-0.00998657
0.189386
0.0302325
-0.0469715
0.265535
-0.117767
0.637392
-0.176113
0.95667
-0.216344
1.23067
-0.250147
1.48948
-0.278858
1.75454
-0.300892
2.04059
-0.315131
2.37221
-0.318425
2.75316
-0.307278
3.19165
-0.283227
3.09337
-0.255474
2.52219
-0.227723
2.07626
-0.200177
1.71896
-0.169599
1.41106
-0.131596
1.10916
-0.086798
0.776435
-0.0414555
0.43014
-0.00983195
0.157762
0.0204006
-0.0328433
0.298378
-0.0924525
0.697001
-0.146056
1.01027
-0.190619
1.27523
-0.231927
1.53079
-0.267275
1.78988
-0.301226
2.07454
-0.331474
2.40246
-0.353651
2.77534
-0.361878
3.19988
-0.35207
3.08356
-0.329992
2.50011
-0.297789
2.04405
-0.25537
1.67654
-0.205868
1.36155
-0.15006
1.05335
-0.0896069
0.715981
-0.0369959
0.377529
-0.00813018
0.128896
0.0122704
-0.0113806
0.309758
-0.0429492
0.72857
-0.0810836
1.04841
-0.117554
1.3117
-0.153178
1.56641
-0.186837
1.82354
-0.218307
2.10601
-0.244901
2.42905
-0.262736
2.79317
-0.265321
3.20247
-0.248697
3.06694
-0.217807
2.46922
-0.179216
2.00546
-0.139353
1.63668
-0.0984415
1.32064
-0.057704
1.01262
-0.0241353
0.682412
-0.00462382
0.358018
0.000179825
0.124093
0.0124502
0.00184832
0.30791
-0.0202405
0.750659
-0.0479091
1.07608
-0.0762878
1.34008
-0.105031
1.59516
-0.133972
1.85248
-0.161725
2.13376
-0.185114
2.45244
-0.200241
2.8083
-0.201259
3.20348
-0.18362
3.0493
-0.154088
2.43969
-0.120635
1.97201
-0.0830217
1.59907
-0.0434442
1.28106
-0.0091426
0.978316
0.0112514
0.662018
0.0129128
0.356356
0.00495123
0.132054
0.0174015
0.00238082
0.305529
-0.00873448
0.761774
-0.0288234
1.09617
-0.0522901
1.36355
-0.0763568
1.61922
-0.100862
1.87699
-0.124658
2.15756
-0.144621
2.47241
-0.156635
2.82031
-0.154341
3.20119
-0.135172
3.03013
-0.108187
2.41271
-0.0749238
1.93875
-0.0392737
1.56342
-0.00926815
1.25106
0.0120598
0.956988
0.0214599
0.652618
0.0173328
0.360484
0.00614349
0.143244
0.023545
0.00466388
0.300865
-0.00334463
0.769783
-0.0203432
1.11316
-0.0395972
1.3828
-0.0597777
1.6394
-0.0808181
1.89803
-0.101505
2.17824
-0.119151
2.49005
-0.129906
2.83107
-0.128494
3.19978
-0.112068
3.0137
-0.0857744
2.38641
-0.0563946
1.90937
-0.0282376
1.53526
-0.00194168
1.22476
0.0170704
0.937976
0.0230734
0.646615
0.01676
0.366797
0.00562663
0.154377
0.0291716
0.0056374
0.295228
0.000334371
0.775086
-0.0148192
1.12832
-0.0324926
1.40047
-0.0505887
1.6575
-0.069214
1.91666
-0.0875735
2.1966
-0.103265
2.50574
-0.112484
2.84029
-0.110086
3.19738
-0.0938781
2.99749
-0.0716663
2.3642
-0.0466685
1.88437
-0.0206735
1.50926
0.000931529
1.20316
0.0154232
0.923484
0.0200384
0.642
0.0133322
0.373503
0.00419365
0.163516
0.0333652
0.00383045
0.291398
-7.18534e-05
0.778988
-0.0129465
1.14119
-0.0288812
1.41641
-0.0455393
1.67416
-0.0627219
1.93384
-0.0798184
2.2137
-0.0947576
2.52068
-0.104386
2.84992
-0.102913
3.19591
-0.0884539
2.98303
-0.0669876
2.34273
-0.0441814
1.86156
-0.023709
1.48879
-0.00370222
1.18315
0.00961711
0.910165
0.0131822
0.638435
0.00921381
0.377471
0.00291408
0.169815
0.0362793
0.00251651
0.288881
-0.000878646
0.782383
-0.0126382
1.15295
-0.027567
1.43134
-0.0433629
1.68995
-0.0595688
1.95004
-0.0757446
2.22987
-0.0900396
2.53498
-0.0988104
2.85869
-0.0974336
3.19453
-0.0851214
2.97072
-0.0671205
2.32473
-0.0467933
1.84124
-0.0257579
1.46776
-0.0100071
1.1674
0.00111323
0.899044
0.00546463
0.634084
0.0032125
0.379724
0.00121214
0.171816
0.0374915
-0.000150819
0.289032
-0.00374033
0.785973
-0.0141716
1.16338
-0.0275233
1.44469
-0.0425467
1.70498
-0.0583008
1.9658
-0.0742714
2.24584
-0.0889374
2.54964
-0.099568
2.86932
-0.10224
3.1972
-0.0908482
2.95933
-0.072462
2.30635
-0.0524727
1.82125
-0.0355566
1.45084
-0.0206035
1.15245
-0.0102345
0.888675
-0.00496486
0.628814
-0.00267842
0.377437
-0.000761179
0.169898
0.0367303
-0.000711699
0.289744
-0.00576238
0.791023
-0.0156916
1.17331
-0.0283224
1.45732
-0.0428149
1.71947
-0.0581284
1.98111
-0.0738481
2.26156
-0.0884058
2.5642
-0.0985422
2.87946
-0.099107
3.19777
-0.0888783
2.9491
-0.0740096
2.29148
-0.058799
1.80604
-0.0423173
1.43436
-0.0284361
1.13857
-0.0172134
0.877452
-0.00967976
0.62128
-0.00585293
0.37361
-0.00172592
0.165771
0.0350044
-0.0026366
0.29238
-0.0079903
0.796377
-0.0173464
1.18267
-0.0292895
1.46926
-0.0431779
1.73336
-0.0582344
1.99617
-0.0740556
2.27739
-0.089343
2.57949
-0.102057
2.89217
-0.108231
3.20394
-0.101942
2.94281
-0.0857298
2.27527
-0.0660738
1.78638
-0.050944
1.41923
-0.0361611
1.12378
-0.0248484
0.86614
-0.0162613
0.612693
-0.00792525
0.365274
-0.00237296
0.160219
0.0326314
-0.00391593
0.296296
-0.00955117
0.802012
-0.0188006
1.19192
-0.0304233
1.48089
-0.0438411
1.74678
-0.0585966
2.01092
-0.0745665
2.29336
-0.0904992
2.59542
-0.103378
2.90505
-0.108566
3.20913
-0.102801
2.93705
-0.0908993
2.26336
-0.0761141
1.77159
-0.0576369
1.40075
-0.0432959
1.10944
-0.0301095
0.852953
-0.0190094
0.601593
-0.01019
0.356455
-0.00296031
0.152989
0.0296711
-0.00440515
0.300701
-0.0107497
0.808357
-0.0198865
1.20105
-0.0311254
1.49212
-0.0441876
1.75984
-0.0588029
2.02554
-0.0748831
2.30944
-0.0912615
2.6118
-0.106145
2.91993
-0.117236
3.22022
-0.115658
2.93547
-0.101345
2.24905
-0.0814497
1.7517
-0.0648822
1.38418
-0.0486516
1.09321
-0.0355383
0.83984
-0.0235826
0.589637
-0.010957
0.343829
-0.00303575
0.145068
0.0266354
-0.00449767
0.305199
-0.0114361
0.815295
-0.0206965
1.21031
-0.031766
1.50319
-0.0445094
1.77258
-0.0588282
2.03986
-0.0749067
2.32551
-0.0919608
2.62885
-0.108228
2.9362
-0.118955
3.23095
-0.117766
2.93428
-0.108416
2.2397
-0.0933937
1.73668
-0.0720929
1.36288
-0.0545342
1.07565
-0.0382054
0.823511
-0.0236626
0.575095
-0.01163
0.331797
-0.00292905
0.136367
0.0237063
-0.00455057
0.309749
-0.0118676
0.822612
-0.0210006
1.21945
-0.0317968
1.51399
-0.044307
1.78509
-0.0584968
2.05405
-0.0746721
2.34169
-0.0922333
2.64641
-0.109802
2.95377
-0.124864
3.24601
-0.130203
2.93962
-0.119794
2.22929
-0.0996725
1.71655
-0.0798979
1.34311
-0.0582072
1.05396
-0.0409962
0.8063
-0.0261983
0.560297
-0.0111703
0.316769
-0.00250582
0.127703
0.0212005
-0.00460177
0.314351
-0.0120687
0.830079
-0.0211283
1.22851
-0.0317555
1.52462
-0.0439996
1.79734
-0.05793
2.06798
-0.0740637
2.35782
-0.0920661
2.66442
-0.110794
2.9725
-0.126784
3.262
-0.132151
2.94499
-0.126216
2.22336
-0.11206
1.7024
-0.0875334
1.31858
-0.0631302
1.02956
-0.0394295
0.7826
-0.0205642
0.541432
-0.00888409
0.305089
-0.00167115
0.12049
0.0195293
-0.0046352
0.318986
-0.0120806
0.837525
-0.0208445
1.23727
-0.0311563
1.53493
-0.0431636
1.80934
-0.0569598
2.08177
-0.073083
2.37395
-0.0913529
2.68269
-0.111049
2.99219
-0.129929
3.28088
-0.141712
2.95677
-0.137701
2.21935
-0.11922
1.68392
-0.0957863
1.29515
-0.0655436
0.999316
-0.0385651
0.755621
-0.016768
0.519635
-0.00398117
0.292302
-0.00213125
0.11864
0.0173981
-0.00459672
0.323583
-0.0119438
0.844872
-0.0205102
1.24584
-0.0305637
1.54498
-0.0422421
1.82102
-0.0557285
2.09526
-0.0716986
2.38992
-0.0901891
2.70118
-0.110793
3.0128
-0.131471
3.30156
-0.143518
2.96882
-0.143609
2.21944
-0.132779
1.67309
-0.105866
1.26823
-0.071528
0.964979
-0.0301237
0.714217
0.00811665
0.481394
0.0268318
0.273587
0.0225616
0.12291
0.0399597
-0.0044704
0.328054
-0.0116398
0.852041
-0.0198573
1.25406
-0.0295234
1.55465
-0.0408743
1.83237
-0.0541401
2.10853
-0.0699711
2.40575
-0.0885469
2.71975
-0.109669
3.03392
-0.131813
3.3237
-0.148191
2.98519
-0.153439
2.22469
-0.14093
1.66058
-0.116856
1.24416
-0.0759571
0.92408
-0.029583
0.667843
0.0215307
0.43028
0.0389106
0.256207
0.016978
0.144843
0.0569376
-0.00427001
0.332324
-0.011249
0.85902
-0.0192213
1.26203
-0.0285517
1.56398
-0.0395322
1.84335
-0.0524124
2.12141
-0.0679809
2.42132
-0.0865097
2.73828
-0.10815
3.05556
-0.132523
3.34807
-0.15115
3.00382
-0.158447
2.23198
-0.155563
1.6577
-0.13246
1.22106
-0.0919919
0.883612
-0.0221879
0.598039
0.0810028
0.32709
0.173919
0.16329
0.176275
0.142487
0.233213
-0.00410728
0.336431
-0.0109544
0.865867
-0.0187855
1.26986
-0.0280504
1.57324
-0.0392089
1.85451
-0.0525817
2.13478
-0.0690442
2.43778
-0.0891318
2.75837
-0.113466
3.07989
-0.141303
3.37591
-0.165161
3.02768
-0.180845
2.24767
-0.179812
1.65666
-0.163007
1.20425
-0.120402
0.841006
-0.0722704
0.549907
-0.10152
0.356339
-0.362217
0.423988
-0.93204
0.712309
0.89604
-1.59487
-0.00390539
0.340336
-0.010558
0.87252
-0.0182329
1.27753
-0.0273574
1.58237
-0.0383689
1.86552
-0.0517611
2.14817
-0.068565
2.45458
-0.0894873
2.77929
-0.115509
3.10592
-0.147706
3.40811
-0.178949
3.05892
-0.198604
2.26732
-0.214587
1.67265
-0.212599
1.20226
-0.200845
0.829253
-0.281653
0.630714
-0.690328
0.765015
-1.42078
1.15444
-2.03304
1.32457
1.21897
-2.35598
-0.00368862
0.344025
-0.0100474
0.878879
-0.0174168
1.2849
-0.0262879
1.59124
-0.0371708
1.87641
-0.0506622
2.16166
-0.0678136
2.47173
-0.0896165
2.80109
-0.1176
3.1339
-0.152709
3.44322
-0.187097
3.09331
-0.218382
2.29861
-0.238858
1.69312
-0.243882
1.20729
-0.331542
0.916912
-0.749415
1.04859
-1.52001
1.5356
-2.09732
1.73176
-2.33991
1.56716
1.33464
-2.45557
-0.00347432
0.347499
-0.0095056
0.88491
-0.0166386
1.29204
-0.0253111
1.59991
-0.0359837
1.88708
-0.0494198
2.1751
-0.0667983
2.48911
-0.0892981
2.82359
-0.118682
3.16328
-0.157651
3.48219
-0.201582
3.13724
-0.237297
2.33432
-0.275141
1.73097
-0.364144
1.29629
-0.695961
1.24873
-1.42072
1.77334
-2.01673
2.13162
-2.25913
1.97416
-2.37396
1.68199
1.40049
-2.43981
-0.00320375
0.350703
-0.00883265
0.890539
-0.0155781
1.29878
-0.0239252
1.60826
-0.0344674
1.89762
-0.0479131
2.18854
-0.0655036
2.5067
-0.0886904
2.84678
-0.119899
3.19449
-0.16259
3.52488
-0.210248
3.1849
-0.260009
2.38408
-0.312021
1.78298
-0.490556
1.47483
-1.08135
1.83952
-1.77213
2.46413
-2.10115
2.46064
-2.25242
2.12542
-2.33575
1.76532
1.46643
-2.4017
-0.00310809
0.353811
-0.00863843
0.896069
-0.0154076
1.30555
-0.0238369
1.61669
-0.0345872
1.90837
-0.0482397
2.2022
-0.0662757
2.52474
-0.090303
2.87081
-0.122945
3.22713
-0.168552
3.57048
-0.225708
3.24205
-0.278731
2.4371
-0.3727
1.87695
-0.751038
1.85316
-1.4762
2.56469
-1.95829
2.94621
-2.16034
2.6627
-2.26777
2.23285
-2.34508
1.84263
1.53086
-2.40951
-0.00317021
0.356981
-0.00892081
0.90182
-0.0159762
1.31261
-0.0247768
1.62549
-0.0360561
1.91965
-0.0503949
2.21654
-0.0692931
2.54364
-0.0945324
2.89605
-0.129276
3.26188
-0.179442
3.62065
-0.238388
3.301
-0.30647
2.50519
-0.497477
2.06795
-1.03716
2.39284
-1.66577
3.1933
-1.94906
3.2295
-2.09797
2.81162
-2.21327
2.34815
-2.30742
1.93679
1.5936
-2.37016
-0.00318146
0.360163
-0.00922378
0.907862
-0.0167695
1.32015
-0.0261195
1.63484
-0.0378773
1.93141
-0.0527998
2.23146
-0.0724968
2.56333
-0.0989157
2.92247
-0.135284
3.29824
-0.187296
3.67266
-0.253738
3.36744
-0.345971
2.59742
-0.621045
2.34303
-1.24909
3.02088
-1.74611
3.69032
-1.95613
3.43952
-2.09902
2.9545
-2.22476
2.47389
-2.33772
2.04975
1.65323
-2.39735
-0.00313096
0.363294
-0.00940959
0.914141
-0.0173019
1.32804
-0.0270832
1.64462
-0.0394293
1.94375
-0.0551079
2.24714
-0.0757376
2.58396
-0.103365
2.95009
-0.141663
3.33654
-0.198137
3.72914
-0.268247
3.43755
-0.392613
2.72178
-0.768589
2.719
-1.3966
3.64889
-1.7585
4.05223
-1.93437
3.61539
-2.03933
3.05946
-2.13109
2.56565
-2.20113
2.11979
1.64702
-2.19492
-0.0030086
0.366302
-0.00953905
0.920671
-0.0180106
1.33652
-0.0284429
1.65505
-0.0413363
1.95665
-0.0576212
2.26342
-0.0790393
2.60538
-0.107853
2.97891
-0.147815
3.3765
-0.204503
3.78582
-0.284588
3.51764
-0.454239
2.89143
-0.895149
3.15991
-1.45054
4.20428
-1.71821
4.3199
-1.87554
3.77272
-1.97194
3.15587
-1.97671
2.57042
-1.91286
2.05594
1.62
-1.88585
-0.0027045
0.369007
-0.00949285
0.92746
-0.0182338
1.34526
-0.0289912
1.66581
-0.0423749
1.97003
-0.0591692
2.28022
-0.0810502
2.62726
-0.110142
3.008
-0.150293
3.41665
-0.207873
3.8434
-0.294866
3.60463
-0.49495
3.09152
-0.970289
3.63525
-1.41805
4.65204
-1.59112
4.49297
-1.66141
3.843
-1.66871
3.16317
-1.52431
2.42602
-1.0269
1.55853
0.593106
-0.00229303
0.3713
-0.00920615
0.934373
-0.0185934
1.35464
-0.0302224
1.67744
-0.0445243
1.98433
-0.0624605
2.29815
-0.0859834
2.65079
-0.117662
3.03968
-0.161798
3.46079
-0.223976
3.90558
-0.326022
3.70668
-0.576158
3.34166
-1.10432
4.16342
-1.47128
5.019
-1.5742
4.5959
-1.57474
3.84354
-1.47568
3.06411
-1.23889
2.18923
-0.643208
0.962845
-0.0501025
-0.00183438
0.373134
-0.00863169
0.94117
-0.0181965
1.36421
-0.0303085
1.68955
-0.045563
1.99959
-0.0648826
2.31747
-0.0903097
2.67621
-0.124454
3.07382
-0.172292
3.50863
-0.242621
3.97591
-0.365329
3.82939
-0.667596
3.64392
-1.21689
4.71271
-1.4896
5.2917
-1.55296
4.65926
-1.53479
3.82537
-1.33576
2.86509
-0.796348
1.64981
-0.115225
0.281723
-0.165328
-0.00111354
0.374248
-0.00752752
0.947584
-0.017631
1.37431
-0.0306694
1.70259
-0.0467316
2.01565
-0.0670783
2.33782
-0.0940333
2.70317
-0.13077
3.11056
-0.182339
3.5602
-0.25797
4.05154
-0.401283
3.9727
-0.761257
4.0039
-1.2973
5.24875
-1.48258
5.47698
-1.51294
4.68962
-1.43097
3.74339
-1.11442
2.54853
-0.32637
0.861769
0.029422
-0.0740689
-0.135906
-0.000287567
0.374535
-0.00585836
0.953155
-0.0158797
1.38433
-0.0292039
1.71591
-0.0460255
2.03247
-0.0676759
2.35947
-0.0964273
2.73192
-0.135244
3.14938
-0.189478
3.61443
-0.274864
4.13693
-0.445615
4.14345
-0.861541
4.41982
-1.3358
5.72301
-1.45948
5.60066
-1.46781
4.69795
-1.25998
3.53557
-0.710191
1.99874
-0.0674187
0.218997
0.0333591
-0.174847
-0.102547
0.00156279
0.372973
-0.00276263
0.95748
-0.0133194
1.39489
-0.0276905
1.73028
-0.0450081
2.04979
-0.0674056
2.38187
-0.0972839
2.7618
-0.138093
3.19018
-0.194724
3.67106
-0.286978
4.22918
-0.479586
4.33606
-0.944855
4.88509
-1.33371
6.11187
-1.40555
5.6725
-1.36838
4.66078
-1.08256
3.24976
-0.347383
1.26356
-0.00680725
-0.121579
0.0107425
-0.192397
-0.0918043
0.00338903
0.369583
0.000976337
0.959893
-0.00934459
1.40521
-0.0233842
1.74432
-0.0409757
2.06738
-0.0644302
2.40532
-0.0955563
2.79292
-0.137478
3.23211
-0.196159
3.72974
-0.296611
4.32964
-0.51369
4.55314
-1.00342
5.37482
-1.28925
6.3977
-1.32945
5.71271
-1.21483
4.54615
-0.808936
2.84386
-0.0937395
0.548363
0.0446599
-0.259978
0.0256684
-0.173405
-0.0661358
0.00573803
0.363845
0.00485845
0.960772
-0.00419357
1.41426
-0.0181807
1.75831
-0.0358591
2.08506
-0.0594304
2.42889
-0.0907997
2.82429
-0.13379
3.2751
-0.194049
3.79
-0.299745
4.43533
-0.536274
4.78967
-1.01439
5.85293
-1.21771
6.60102
-1.23944
5.73444
-1.04192
4.34863
-0.489761
2.2917
0.000558884
0.0580432
0.0152645
-0.274684
0.0167097
-0.17485
-0.0494261
0.00848222
0.355363
0.0103368
0.958918
0.00371511
1.42088
-0.00868798
1.77071
-0.0264443
2.10282
-0.0502259
2.45267
-0.0816299
2.8557
-0.123898
3.31736
-0.184388
3.85049
-0.294467
4.54541
-0.547523
5.04272
-0.98979
6.2952
-1.12368
6.73491
-1.10505
5.71581
-0.869127
4.1127
-0.306416
1.72899
-0.0693544
-0.179018
-0.0412067
-0.302832
-0.0117236
-0.204333
-0.0611497
0.0126846
0.342679
0.0188643
0.952738
0.0143218
1.42543
0.00316251
1.78187
-0.0147042
2.12068
-0.0371301
2.4751
-0.0669136
2.88548
-0.108306
3.35876
-0.167521
3.90971
-0.279
4.65689
-0.530668
5.29439
-0.907839
6.67237
-0.988452
6.81553
-0.955016
5.68237
-0.701613
3.8593
-0.155918
1.1833
-0.0791682
-0.255768
-0.0473239
-0.334676
-0.017371
-0.234286
-0.0785208
0.0177922
0.324886
0.0293505
0.94118
0.0284005
1.42638
0.0189521
1.79132
0.00328795
2.13635
-0.0170142
2.4954
-0.045138
2.9136
-0.0833027
3.39692
-0.1387
3.96511
-0.245516
4.76371
-0.477429
5.5263
-0.781367
6.97631
-0.843152
6.87731
-0.761201
5.60042
-0.46047
3.55857
-0.0159043
0.738731
0.00904164
-0.280714
0.00562415
-0.331258
0.00757731
-0.23624
-0.0709435
0.0246223
0.300264
0.043807
0.921995
0.0473899
1.42279
0.0403576
1.79835
0.0281312
2.14857
0.0101601
2.51337
-0.0144722
2.93824
-0.0481794
3.43063
-0.0976867
4.01461
-0.193733
4.85975
-0.388606
5.72117
-0.593693
7.1814
-0.643394
6.92701
-0.565976
5.52301
-0.225879
3.21847
0.100445
0.412406
0.0546408
-0.234909
0.0465528
-0.32317
0.0461706
-0.235857
-0.0247729
0.032567
0.267697
0.0612717
0.893291
0.0718878
1.41218
0.0700362
1.80021
0.0616092
2.157
0.0469101
2.52807
0.026687
2.95846
-0.000908596
3.45822
-0.0415179
4.05522
-0.111415
4.92965
-0.255389
5.86515
-0.380891
7.3069
-0.44895
6.99507
-0.470359
5.54442
-0.353403
3.10152
-0.329872
0.388875
-0.318123
-0.246659
-0.178861
-0.462432
-0.0314569
-0.383262
-0.0562298
0.0419034
0.225794
0.0835083
0.851686
0.103303
1.39238
0.10705
1.79646
0.103348
2.1607
0.0936495
2.53777
0.0809312
2.97118
0.062343
3.47681
0.0346508
4.08291
0.00407446
4.96023
-0.055732
5.92495
-0.119011
7.37018
-0.194807
7.07087
-0.330702
5.68031
-0.483125
3.25394
-0.740203
0.645953
-0.739062
-0.2478
-0.53213
-0.669363
-0.248789
-0.666603
-0.305019
0.0513041
0.174489
0.109384
0.793606
0.142401
1.35937
0.154655
1.78421
0.157754
2.1576
0.1535
2.54203
0.148518
2.97616
0.142139
3.48319
0.137128
4.08793
0.13333
4.96402
0.187059
5.87123
0.240452
7.31678
0.226072
7.08525
0.141856
5.76453
-0.147231
3.54303
-0.615327
1.11405
-0.776286
-0.0868405
-0.647609
-0.798041
-0.357954
-0.956257
-0.662973
0.055463
0.119026
0.136616
0.712453
0.188007
1.30798
0.21175
1.76046
0.22309
2.14626
0.226951
2.53816
0.231815
2.97129
0.239516
3.47549
0.259526
4.06792
0.300271
4.92328
0.475802
5.69569
0.753463
7.03912
0.997212
6.8415
1.21505
5.54669
0.993998
3.76408
0.417261
1.69078
-0.029665
0.360086
-0.251625
-0.576081
-0.226926
-0.980956
-0.889899
0.0501506
0.0688759
0.163202
0.599402
0.242619
1.22856
0.282247
1.72083
0.303725
2.12479
0.315971
2.52592
0.330815
2.95645
0.353588
3.45272
0.399921
4.02158
0.502689
4.82051
0.811803
5.38658
1.41185
6.43907
1.81944
6.43391
2.13796
5.22817
2.06803
3.83401
1.55588
2.20293
1.06994
0.846022
0.514496
-0.0206349
0.175518
-0.641977
-0.714382
0.0374765
0.0313994
0.188849
0.448029
0.299318
1.11809
0.362119
1.65803
0.396136
2.09077
0.421156
2.5009
0.444081
2.93352
0.480378
3.41642
0.551735
3.95023
0.69961
4.67263
1.09494
4.99125
1.83249
5.70153
2.24163
6.02477
2.47464
4.99517
2.45946
3.84919
2.02525
2.63714
1.4771
1.39417
0.959104
0.49736
0.421961
-0.104834
-0.292421
0.0295848
0.00181462
0.209371
0.268244
0.368215
0.959245
0.458068
1.56818
0.504806
2.04403
0.540404
2.4653
0.569102
2.90483
0.615216
3.37031
0.689988
3.87545
0.837711
4.52491
1.15507
4.67389
1.87291
4.98368
2.25098
5.6467
2.43404
4.8121
2.41706
3.86617
2.12733
2.92687
1.59065
1.93086
1.01232
1.07569
0.417064
0.490424
0.124643
0.0282296
-0.026415
0.190593
0.105881
0.423827
0.726011
0.559671
1.43234
0.625999
1.9777
0.671197
2.4201
0.705415
2.87061
0.743073
3.33265
0.794006
3.82452
0.904668
4.41425
1.08526
4.4933
1.59487
4.47407
2.0064
5.23517
2.07053
4.74797
1.99547
3.94123
1.76213
3.16021
1.32428
2.36871
0.830296
1.56967
0.353362
0.967358
0.478005
0.0254786
-0.0518937
0.127195
0.00416394
0.383057
0.470148
0.551782
1.26361
0.626316
1.90317
0.653294
2.39313
0.664336
2.85957
0.656106
3.34088
0.64779
3.83284
0.651291
4.41075
0.689259
4.45533
0.877313
4.28601
1.10824
5.00425
1.10532
4.75089
1.02287
4.02367
0.886113
3.29697
0.673678
2.58114
0.408526
1.83482
0.161486
1.2144
0.639491
0.0190585
-0.0709521
0.0691902
-0.0459678
0.229525
0.309814
0.374622
1.11851
0.454102
1.82369
0.486736
2.36049
0.50534
2.84096
0.509132
3.33709
0.508733
3.83324
0.502439
4.41704
0.502049
4.45572
0.610267
4.1778
0.780909
4.83361
0.786548
4.74525
0.709364
4.10086
0.600118
3.40622
0.451486
2.72977
0.265582
2.02073
0.0941602
1.38582
0.733651
0.022336
-0.0932882
0.048165
-0.0717968
0.10453
0.253449
0.203931
1.01911
0.277098
1.75052
0.321075
2.31652
0.350822
2.81122
0.368936
3.31897
0.375415
3.82676
0.372632
4.41983
0.35981
4.46855
0.413631
4.12398
0.532013
4.71522
0.535964
4.7413
0.472566
4.16426
0.384706
3.49408
0.275948
2.83853
0.1475
2.14917
0.0361225
1.4972
0.769774
0.0148605
-0.108149
0.0127639
-0.0697001
8.48348e-06
0.266204
0.0439514
0.975171
0.104289
1.69018
0.160144
2.26066
0.206371
2.76499
0.237879
3.28746
0.257719
3.80692
0.26671
4.41083
0.252571
4.48268
0.274597
4.10195
0.347474
4.64235
0.341476
4.7473
0.289003
4.21673
0.218144
3.56494
0.1398
2.91688
0.0571703
2.2318
-0.00809757
1.56247
0.761676
-0.00597143
-0.102177
-0.0427959
-0.0328757
-0.0882486
0.311657
-0.090101
0.977023
-0.0421378
1.64222
0.0202783
2.19824
0.0782657
2.707
0.127036
3.23869
0.163218
3.77074
0.179579
4.39447
0.167112
4.49515
0.175547