/*--------------------------------*- C++ -*----------------------------------*\
| =========                 |                                                 |
| \\      /  F ield         | OpenFOAM: The Open Source CFD Toolbox           |
|  \\    /   O peration     | Version:  4.0                                   |
|   \\  /    A nd           | Web:      www.OpenFOAM.org                      |
|    \\/     M anipulation  |                                                 |
\*---------------------------------------------------------------------------*/
FoamFile
{
    version     2.0;
    format      ascii;
    class       volVectorField;
    location    "35";
    object      U;
}
// * * * * * * * * * * * * * * * * * * * * * * * * * * * * * * * * * * * * * //

dimensions      [0 1 -1 0 0 0 0];

internalField   nonuniform List<vector> 
2200
(
(0.878827 -0.0304145 0)
(1.00577 -0.0512833 0)
(1.00324 -0.0354103 0)
(1.00019 -0.0244558 0)
(0.999806 -0.0167004 0)
(1.00004 -0.0107956 0)
(1.00004 -0.00686529 0)
(1.00002 -0.00419938 0)
(0.999988 -0.00222574 0)
(1.00016 -0.000730423 0)
(1.00004 0.000940924 0)
(0.999924 0.00242013 0)
(0.999977 0.00440765 0)
(1.00011 0.00705496 0)
(1.00008 0.01088 0)
(0.999774 0.0166861 0)
(1.00016 0.0244379 0)
(1.00344 0.0351007 0)
(1.0059 0.0513451 0)
(0.878956 0.0303517 0)
(0.712019 -0.0327645 0)
(0.996633 -0.0630223 0)
(1.03334 -0.0561477 0)
(1.02492 -0.046386 0)
(1.01586 -0.036043 0)
(1.00964 -0.0263033 0)
(1.00597 -0.0181511 0)
(1.00377 -0.0115117 0)
(1.00257 -0.00611385 0)
(1.00202 -0.00159317 0)
(1.00204 0.00255354 0)
(1.00259 0.00709303 0)
(1.00377 0.0123479 0)
(1.00575 0.0188512 0)
(1.00941 0.0269038 0)
(1.01575 0.0367177 0)
(1.02486 0.0470999 0)
(1.03312 0.0573549 0)
(0.996634 0.0631528 0)
(0.711823 0.032953 0)
(0.535459 -0.0239032 0)
(0.969862 -0.0569798 0)
(1.05643 -0.0547895 0)
(1.05229 -0.0489032 0)
(1.03629 -0.0405686 0)
(1.02437 -0.0323249 0)
(1.01578 -0.0241037 0)
(1.01033 -0.0162632 0)
(1.00718 -0.00906328 0)
(1.00569 -0.00245572 0)
(1.00564 0.00386983 0)
(1.00705 0.010368 0)
(1.01008 0.0174059 0)
(1.01543 0.0250884 0)
(1.0241 0.0332908 0)
(1.03603 0.0412773 0)
(1.052 0.0494006 0)
(1.05635 0.0538741 0)
(0.96925 0.057543 0)
(0.534459 0.0239293 0)
(0.392128 -0.0136623 0)
(0.911624 -0.0464032 0)
(1.0574 -0.0470106 0)
(1.06943 -0.0443079 0)
(1.05492 -0.0382766 0)
(1.03935 -0.0316967 0)
(1.02743 -0.024833 0)
(1.01898 -0.0175722 0)
(1.0136 -0.0100883 0)
(1.0109 -0.00257036 0)
(1.01074 0.00484352 0)
(1.01325 0.0121756 0)
(1.01849 0.0193543 0)
(1.02697 0.0263823 0)
(1.03871 0.0328577 0)
(1.05424 0.0392452 0)
(1.06866 0.0453195 0)
(1.05589 0.0479773 0)
(0.910282 0.0468116 0)
(0.390346 0.0137356 0)
(0.307539 -0.00449795 0)
(0.846665 -0.0323782 0)
(1.04939 -0.0399153 0)
(1.07935 -0.0382441 0)
(1.068 -0.0336392 0)
(1.0516 -0.0281459 0)
(1.03835 -0.0228403 0)
(1.02817 -0.0168298 0)
(1.02117 -0.00998809 0)
(1.01744 -0.00242939 0)
(1.01725 0.00537237 0)
(1.02068 0.0127771 0)
(1.02747 0.0194549 0)
(1.03732 0.0251539 0)
(1.05044 0.030131 0)
(1.06675 0.0354129 0)
(1.07772 0.0397063 0)
(1.04735 0.0413564 0)
(0.843513 0.03284 0)
(0.304515 0.00467629 0)
(0.263997 8.37715e-05 0)
(0.788464 -0.0201392 0)
(1.03281 -0.0316272 0)
(1.08315 -0.0322767 0)
(1.07693 -0.0289872 0)
(1.0605 -0.0240836 0)
(1.04707 -0.0196344 0)
(1.03624 -0.0145655 0)
(1.02837 -0.00861462 0)
(1.02385 -0.00165764 0)
(1.02356 0.00567165 0)
(1.02759 0.0123375 0)
(1.03503 0.0178511 0)
(1.04557 0.0224334 0)
(1.05874 0.0265536 0)
(1.07508 0.03098 0)
(1.08098 0.0338144 0)
(1.03002 0.0329777 0)
(0.783834 0.0206217 0)
(0.259915 7.86504e-05 0)
(0.240018 0.00105393 0)
(0.737996 -0.0123261 0)
(1.0135 -0.025031 0)
(1.08395 -0.0268512 0)
(1.08279 -0.0245404 0)
(1.06755 -0.0203809 0)
(1.05402 -0.0164696 0)
(1.04323 -0.0121345 0)
(1.03517 -0.00699211 0)
(1.03034 -0.000883328 0)
(1.02991 0.0057018 0)
(1.03401 0.0115243 0)
(1.04142 0.0161968 0)
(1.05195 0.020151 0)
(1.06521 0.0235202 0)
(1.08 0.0272081 0)
(1.08046 0.0290447 0)
(1.00844 0.0266503 0)
(0.730675 0.012946 0)
(0.234555 -0.000888337 0)
(0.225604 0.000971964 0)
(0.694888 -0.00801643 0)
(0.992413 -0.0207285 0)
(1.08176 -0.0231856 0)
(1.08657 -0.0213982 0)
(1.07307 -0.0178945 0)
(1.05953 -0.0140848 0)
(1.04896 -0.0099126 0)
(1.04112 -0.00516654 0)
(1.03636 0.000299061 0)
(1.0358 0.00618656 0)
(1.03953 0.0112511 0)
(1.04666 0.0153782 0)
(1.05644 0.0188472 0)
(1.0697 0.0219508 0)
(1.08274 0.0248219 0)
(1.07702 0.0258768 0)
(0.985336 0.0227426 0)
(0.684934 0.00885546 0)
(0.218687 -0.000776202 0)
(0.216045 0.000609694 0)
(0.659481 -0.00569497 0)
(0.971909 -0.017689 0)
(1.07885 -0.020343 0)
(1.08959 -0.0189612 0)
(1.07761 -0.0160075 0)
(1.06412 -0.0125265 0)
(1.05367 -0.00852671 0)
(1.04598 -0.00390918 0)
(1.04133 0.00118616 0)
(1.04054 0.00648145 0)
(1.04379 0.0110715 0)
(1.05047 0.0149835 0)
(1.06034 0.0181544 0)
(1.07345 0.0211768 0)
(1.08447 0.0233421 0)
(1.07218 0.023972 0)
(0.961724 0.0201873 0)
(0.645684 0.00671845 0)
(0.207081 -0.0003921 0)
(0.208775 0.000279199 0)
(0.630828 -0.00419598 0)
(0.952858 -0.0150268 0)
(1.07542 -0.0180757 0)
(1.09244 -0.0169067 0)
(1.08201 -0.0142352 0)
(1.06847 -0.0108508 0)
(1.05786 -0.0069185 0)
(1.05006 -0.00235986 0)
(1.0453 0.00256706 0)
(1.04427 0.00740642 0)
(1.04721 0.0117751 0)
(1.05361 0.0153064 0)
(1.06324 0.01833 0)
(1.07603 0.0204374 0)
(1.0853 0.0222174 0)
(1.0659 0.0222176 0)
(0.938566 0.0179552 0)
(0.612742 0.00543277 0)
(0.197536 -2.00419e-05 0)
(0.203097 0.000101327 0)
(0.607916 -0.00296222 0)
(0.934841 -0.012254 0)
(1.07205 -0.0152921 0)
(1.09518 -0.0144073 0)
(1.0861 -0.0119767 0)
(1.07261 -0.00883725 0)
(1.06198 -0.00511369 0)
(1.05402 -0.000820305 0)
(1.04889 0.00379617 0)
(1.04755 0.0081667 0)
(1.05033 0.0121218 0)
(1.05662 0.0153563 0)
(1.06595 0.017798 0)
(1.07869 0.0199884 0)
(1.08605 0.0211394 0)
(1.0599 0.0208582 0)
(0.91641 0.0159127 0)
(0.584652 0.00453486 0)
(0.188935 0.000226161 0)
(0.198917 5.47248e-05 0)
(0.590515 -0.00197223 0)
(0.919748 -0.0095184 0)
(1.0687 -0.0127364 0)
(1.09796 -0.0118473 0)
(1.09022 -0.00952809 0)
(1.0767 -0.00647135 0)
(1.06585 -0.00299432 0)
(1.05764 0.00103751 0)
(1.05224 0.00539614 0)
(1.0506 0.00956006 0)
(1.05299 0.0129778 0)
(1.05891 0.0156899 0)
(1.06816 0.0177798 0)
(1.08035 0.0192215 0)
(1.08603 0.0201686 0)
(1.0519 0.0192586 0)
(0.894413 0.0139709 0)
(0.56068 0.00387551 0)
(0.181217 0.000366664 0)
(0.195974 1.5505e-05 0)
(0.577361 -0.00119531 0)
(0.906093 -0.00739173 0)
(1.06604 -0.010175 0)
(1.10109 -0.00917484 0)
(1.09465 -0.00675754 0)
(1.08096 -0.00380621 0)
(1.06957 -0.000575311 0)
(1.06066 0.00307507 0)
(1.05447 0.00717797 0)
(1.05215 0.0112696 0)
(1.05444 0.0143283 0)
(1.06054 0.0162451 0)
(1.06989 0.0176009 0)
(1.08226 0.0187629 0)
(1.08573 0.0194095 0)
(1.04467 0.0183206 0)
(0.874323 0.0126283 0)
(0.539895 0.00353358 0)
(0.173984 0.000474973 0)
(0.194188 1.07643e-05 0)
(0.567915 -0.000541056 0)
(0.8951 -0.00493542 0)
(1.06368 -0.0075506 0)
(1.10458 -0.00652928 0)
(1.09938 -0.003931 0)
(1.08548 -0.00065379 0)
(1.07363 0.00253852 0)
(1.06421 0.00604357 0)
(1.05764 0.0097942 0)
(1.05508 0.0133001 0)
(1.057 0.0155785 0)
(1.06272 0.0169734 0)
(1.07207 0.0178767 0)
(1.08372 0.0189423 0)
(1.08467 0.0191069 0)
(1.0351 0.0174029 0)
(0.853615 0.0114799 0)
(0.521124 0.00334834 0)
(0.166962 0.000558945 0)
(0.194037 -0.000125426 0)
(0.562682 0.000479377 0)
(0.887631 -0.00243186 0)
(1.06226 -0.00437164 0)
(1.10784 -0.00328851 0)
(1.10424 -0.000799454 0)
(1.09042 0.00226901 0)
(1.07839 0.00556632 0)
(1.06872 0.00905443 0)
(1.06149 0.0125205 0)
(1.05784 0.0153718 0)
(1.05885 0.0172694 0)
(1.06422 0.0182973 0)
(1.07343 0.0188555 0)
(1.08366 0.019268 0)
(1.08291 0.0187026 0)
(1.02684 0.016636 0)
(0.835681 0.0104588 0)
(0.505106 0.00311153 0)
(0.160323 0.0005769 0)
(0.195194 7.15622e-05 0)
(0.562444 0.00133928 0)
(0.881433 5.68857e-05 0)
(1.06151 -0.0013048 0)
(1.11149 -2.74165e-05 0)
(1.10873 0.00241318 0)
(1.09484 0.0055658 0)
(1.08259 0.00896009 0)
(1.0727 0.0126198 0)
(1.06517 0.0161838 0)
(1.06111 0.0187358 0)
(1.06099 0.0201277 0)
(1.0649 0.0205429 0)
(1.07331 0.0206473 0)
(1.0829 0.0199423 0)
(1.07913 0.0188682 0)
(1.01467 0.0159365 0)
(0.815527 0.00947037 0)
(0.489524 0.00296373 0)
(0.15376 0.000579664 0)
(0.19864 0.000549052 0)
(0.564481 0.00196287 0)
(0.880596 0.00285066 0)
(1.06204 0.00236475 0)
(1.11445 0.00400754 0)
(1.11276 0.00639973 0)
(1.09886 0.00935111 0)
(1.086 0.0128912 0)
(1.07525 0.0166897 0)
(1.06642 0.0202641 0)
(1.0608 0.0225443 0)
(1.05994 0.0235542 0)
(1.06417 0.0233535 0)
(1.07235 0.0223341 0)
(1.0811 0.0209383 0)
(1.07484 0.0192796 0)
(1.00468 0.0157538 0)
(0.799469 0.00908349 0)
(0.476453 0.00302448 0)
(0.147683 0.000590113 0)
(0.203772 0.000686799 0)
(0.570075 0.00309114 0)
(0.883256 0.00546595 0)
(1.06406 0.0061245 0)
(1.11864 0.00843599 0)
(1.11739 0.0111372 0)
(1.10306 0.0145179 0)
(1.08952 0.0183043 0)
(1.0777 0.0220067 0)
(1.06769 0.0254242 0)
(1.06145 0.0272814 0)
(1.05969 0.0275346 0)
(1.06225 0.0263908 0)
(1.06961 0.0249336 0)
(1.07734 0.0228671 0)
(1.06767 0.0203721 0)
(0.990109 0.0158945 0)
(0.779355 0.00901611 0)
(0.461421 0.00327157 0)
(0.140825 0.000628607 0)
(0.212207 0.000854964 0)
(0.582852 0.00446154 0)
(0.890968 0.00851446 0)
(1.06879 0.0108751 0)
(1.12307 0.0135117 0)
(1.12268 0.0166787 0)
(1.10841 0.0206604 0)
(1.09441 0.0247106 0)
(1.08159 0.0287959 0)
(1.06985 0.0320152 0)
(1.06136 0.0331909 0)
(1.05809 0.032304 0)
(1.06043 0.0303602 0)
(1.06712 0.0277351 0)
(1.07308 0.0249599 0)
(1.06102 0.0214042 0)
(0.978609 0.0165592 0)
(0.764499 0.00961957 0)
(0.448645 0.00368255 0)
(0.13416 0.000652794 0)
(0.221646 0.00110167 0)
(0.597276 0.00534052 0)
(0.902158 0.0110975 0)
(1.07633 0.0149166 0)
(1.12988 0.0186275 0)
(1.12965 0.0228842 0)
(1.11481 0.027405 0)
(1.09998 0.0322882 0)
(1.08605 0.0366438 0)
(1.07279 0.0396503 0)
(1.06261 0.040273 0)
(1.05753 0.0387637 0)
(1.0573 0.0357042 0)
(1.06247 0.0321642 0)
(1.06705 0.0287076 0)
(1.05117 0.0242755 0)
(0.961447 0.0184044 0)
(0.74256 0.010894 0)
(0.430697 0.00433065 0)
(0.12558 0.000723601 0)
(0.235262 0.00149742 0)
(0.619073 0.00710984 0)
(0.920011 0.0148159 0)
(1.08735 0.0204491 0)
(1.13808 0.0251669 0)
(1.13749 0.0300457 0)
(1.12162 0.0358103 0)
(1.1053 0.041199 0)
(1.08936 0.0462179 0)
(1.07377 0.049594 0)
(1.06114 0.0498967 0)
(1.05436 0.0467815 0)
(1.05388 0.0425686 0)
(1.05823 0.0378288 0)
(1.06057 0.0331069 0)
(1.04154 0.0277292 0)
(0.947156 0.0211295 0)
(0.725456 0.0129985 0)
(0.414132 0.00519042 0)
(0.116799 0.000814136 0)
(0.251499 0.00204351 0)
(0.64418 0.00873297 0)
(0.941581 0.0185554 0)
(1.10165 0.0261234 0)
(1.14865 0.032287 0)
(1.14707 0.0394865 0)
(1.12937 0.0460014 0)
(1.111 0.0525836 0)
(1.09261 0.0580149 0)
(1.07436 0.0609533 0)
(1.0588 0.0599977 0)
(1.04971 0.0562314 0)
(1.04671 0.0509773 0)
(1.04974 0.0450565 0)
(1.05128 0.0400006 0)
(1.02831 0.0333538 0)
(0.925482 0.025203 0)
(0.696997 0.0155 0)
(0.388782 0.00612788 0)
(0.104823 0.00093888 0)
(0.274167 0.00284692 0)
(0.678556 0.012458 0)
(0.969963 0.0247728 0)
(1.12041 0.0346171 0)
(1.16253 0.0427143 0)
(1.15868 0.0507164 0)
(1.13867 0.059071 0)
(1.11758 0.0665841 0)
(1.09602 0.0724964 0)
(1.07442 0.0755216 0)
(1.05615 0.0740562 0)
(1.04523 0.0687533 0)
(1.04163 0.0617109 0)
(1.04336 0.0540804 0)
(1.04148 0.0473094 0)
(1.01386 0.038949 0)
(0.904788 0.0295296 0)
(0.672815 0.0182548 0)
(0.365258 0.00715801 0)
(0.0928666 0.000994198 0)
(0.305239 0.00373328 0)
(0.723503 0.0152787 0)
(1.00713 0.0320805 0)
(1.14465 0.0450038 0)
(1.17973 0.0546513 0)
(1.17305 0.0661212 0)
(1.1495 0.0756525 0)
(1.12518 0.0842682 0)
(1.10025 0.0903624 0)
(1.07497 0.0925091 0)
(1.05247 0.0890211 0)
(1.03752 0.0817994 0)
(1.03076 0.0737874 0)
(1.03075 0.0651199 0)
(1.02827 0.057055 0)
(0.994907 0.0471448 0)
(0.875125 0.0350356 0)
(0.633726 0.0213999 0)
(0.329719 0.0080111 0)
(0.0770132 0.00103065 0)
(0.341143 0.00725243 0)
(0.779728 0.0245142 0)
(1.05199 0.0445294 0)
(1.17403 0.0607855 0)
(1.20117 0.0737897 0)
(1.18918 0.0865327 0)
(1.16141 0.0974005 0)
(1.1329 0.106341 0)
(1.10351 0.11204 0)
(1.07383 0.113239 0)
(1.04815 0.108606 0)
(1.03199 0.100376 0)
(1.02445 0.0900495 0)
(1.02222 0.0789748 0)
(1.01329 0.0680981 0)
(0.971765 0.0553613 0)
(0.843302 0.0409971 0)
(0.59838 0.0248336 0)
(0.297851 0.00927958 0)
(0.0624205 0.000960599 0)
(0.422234 0.0109853 0)
(0.86407 0.0353084 0)
(1.11222 0.0648739 0)
(1.21027 0.0857779 0)
(1.22553 0.0992881 9.76655e-34)
(1.20698 0.115224 -4.28331e-34)
(1.17344 0.126081 0)
(1.14009 0.13436 0)
(1.10605 0.138574 0)
(1.07186 0.13744 0)
(1.04168 0.129637 0)
(1.02033 0.117654 0)
(1.00822 0.105242 0)
(1.0029 0.0929435 0)
(0.993146 0.0805829 0)
(0.944106 0.0658531 0)
(0.802235 0.0478422 0)
(0.544699 0.028789 0)
(0.248667 0.00938867 0)
(0.0423809 0.0007386 0)
(0.491909 0.0261413 7.99633e-20)
(0.961611 0.0590409 -6.01189e-20)
(1.1765 0.0980054 0)
(1.24703 0.12183 4.39372e-20)
(1.25166 0.138047 -3.56078e-20)
(1.22376 0.154089 4.51918e-34)
(1.1844 0.163298 0)
(1.14581 0.169702 2.27077e-20)
(1.10633 0.171811 -7.36876e-20)
(1.06656 0.168125 1.485e-20)
(1.03204 0.158001 0)
(1.00951 0.144675 -3.59985e-20)
(0.997275 0.130649 -4.26501e-20)
(0.98891 0.115195 7.44396e-20)
(0.96568 0.0982521 -5.86019e-20)
(0.899902 0.078627 0)
(0.741932 0.0567937 -2.10258e-20)
(0.475225 0.0321612 0)
(0.19481 0.0110769 -1.15822e-19)
(0.0244979 0.000993045 1.36774e-19)
(0.525421 0.0539229 -1.01047e-20)
(1.02003 0.102512 1.98695e-19)
(1.22213 0.148043 -1.67372e-20)
(1.27838 0.169246 -1.20871e-19)
(1.27426 0.186332 -7.56348e-20)
(1.23836 0.20035 1.22466e-19)
(1.19362 0.207366 0)
(1.14966 0.211666 0)
(1.10467 0.211404 1.17728e-19)
(1.05973 0.2049 0)
(1.02006 0.191321 1.31736e-19)
(0.989997 0.174439 3.86236e-20)
(0.967341 0.15603 3.5599e-22)
(0.948024 0.138142 -8.11784e-20)
(0.925058 0.121184 0)
(0.857353 0.101494 0)
(0.694203 0.0736342 -3.43675e-19)
(0.433735 0.0441086 8.60557e-19)
(0.178555 0.0151365 -5.10487e-19)
(0.0190111 0.00243057 -6.02782e-19)
(0.531632 0.0766586 -1.4558e-19)
(1.05469 0.159009 5.16105e-20)
(1.2564 0.20926 2.42779e-20)
(1.30326 0.228587 2.13217e-19)
(1.29165 0.243356 1.41336e-20)
(1.24956 0.252921 -3.22451e-19)
(1.19999 0.256305 1.07239e-19)
(1.15069 0.257639 0)
(1.10014 0.25435 -2.50088e-19)
(1.04896 0.24461 2.14465e-19)
(1.00327 0.22863 -3.54936e-19)
(0.968991 0.208857 1.65138e-19)
(0.94618 0.190299 -1.04274e-19)
(0.929471 0.173349 2.36138e-19)
(0.895399 0.153263 0)
(0.82031 0.128262 -8.53721e-20)
(0.663216 0.0960437 0)
(0.422802 0.0563144 4.73193e-19)
(0.179811 0.0243308 -1.12384e-18)
(0.0244516 0.00284202 7.03886e-19)
(0.522913 0.108329 5.01603e-19)
(1.06931 0.215401 -2.11249e-19)
(1.27542 0.273938 -4.08469e-20)
(1.31937 0.292379 0)
(1.30274 0.304776 -1.53166e-19)
(1.25621 0.309572 1.87063e-19)
(1.20247 0.308661 -1.14737e-19)
(1.1484 0.306237 0)
(1.09301 0.298913 1.7796e-19)
(1.03747 0.285107 -1.51311e-19)
(0.987552 0.264621 3.0703e-19)
(0.948137 0.242253 0)
(0.918012 0.222278 -2.21939e-19)
(0.888971 0.200798 1.25805e-19)
(0.859036 0.180332 3.127e-19)
(0.792226 0.157857 -2.75042e-19)
(0.648337 0.122394 4.39274e-19)
(0.424123 0.0771457 -9.7215e-19)
(0.195355 0.0356982 6.13981e-19)
(0.0350315 0.0064085 -7.68348e-19)
(0.510317 0.13262 -2.36635e-19)
(1.07627 0.270412 1.72413e-19)
(1.28551 0.340554 -1.33034e-19)
(1.3275 0.357885 2.35464e-19)
(1.3073 0.367728 -2.04647e-19)
(1.25795 0.367878 6.22766e-20)
(1.20122 0.36285 3.65103e-21)
(1.14332 0.356454 -2.1337e-19)
(1.08391 0.345233 -1.87768e-19)
(1.02303 0.32738 -3.24878e-19)
(0.966549 0.30388 -6.59411e-19)
(0.923782 0.279369 -1.99322e-19)
(0.893071 0.256272 2.45516e-21)
(0.870268 0.236541 -4.2502e-19)
(0.833026 0.21635 -6.33569e-21)
(0.763723 0.187919 3.98497e-19)
(0.628059 0.148714 -1.20033e-19)
(0.422557 0.0977772 -7.00572e-20)
(0.208057 0.0488374 0)
(0.0443557 0.0106357 1.62489e-18)
(0.491918 0.153117 0)
(1.06807 0.319441 -3.86697e-20)
(1.28651 0.403498 -3.76526e-20)
(1.32904 0.421616 -1.25333e-20)
(1.30647 0.430041 2.08771e-19)
(1.25522 0.426161 -1.39837e-19)
(1.19612 0.417217 1.27443e-19)
(1.13523 0.406861 3.47686e-19)
(1.07209 0.391109 -1.03322e-19)
(1.00735 0.368939 1.64282e-19)
(0.948818 0.341463 3.5405e-19)
(0.902849 0.313505 4.32565e-19)
(0.866834 0.28971 -2.57518e-19)
(0.832691 0.266062 4.58429e-19)
(0.802942 0.245045 -3.61636e-19)
(0.744351 0.220009 0)
(0.621522 0.177194 -9.08123e-19)
(0.42875 0.121274 1.22271e-18)
(0.220783 0.0634905 9.11549e-20)
(0.0522491 0.015343 -1.70766e-18)
(0.478003 0.17369 -5.16757e-21)
(1.06012 0.368224 2.27074e-19)
(1.28319 0.464495 2.80287e-19)
(1.32579 0.483127 -2.86599e-19)
(1.30121 0.490264 1.59642e-19)
(1.24865 0.48294 -1.41644e-19)
(1.18798 0.47075 2.5997e-19)
(1.12474 0.456776 -1.107e-19)
(1.0588 0.437378 -4.23538e-19)
(0.990832 0.411893 1.79218e-22)
(0.92797 0.379595 -3.82697e-19)
(0.878364 0.349006 -4.63715e-19)
(0.842902 0.322013 2.81935e-19)
(0.818381 0.301154 -1.6439e-19)
(0.781766 0.278812 3.90814e-19)
(0.720014 0.247302 0)
(0.604425 0.203606 -5.60506e-19)
(0.427236 0.142708 8.27594e-19)
(0.228405 0.0772362 1.5698e-18)
(0.0575416 0.0197476 -1.84723e-18)
(0.46328 0.191098 3.30467e-19)
(1.04645 0.412313 -1.77196e-19)
(1.27571 0.521826 -2.40933e-19)
(1.31907 0.541904 3.03329e-19)
(1.29286 0.548291 1.15231e-20)
(1.23927 0.537885 -2.8858e-19)
(1.17728 0.522642 -1.45958e-19)
(1.11221 0.505247 -1.32742e-19)
(1.04399 0.482017 -2.34739e-19)
(0.972617 0.451189 3.75826e-19)
(0.907226 0.415652 3.9239e-19)
(0.857444 0.382784 7.37616e-19)
(0.820058 0.354937 0)
(0.784063 0.328066 5.93173e-21)
(0.754534 0.303776 -1.0656e-18)
(0.703153 0.278775 2.48045e-19)
(0.595959 0.230471 1.20566e-18)
(0.425819 0.164923 -3.55375e-19)
(0.23102 0.0899723 7.42194e-19)
(0.0600962 0.0233366 -6.20458e-20)
(0.454372 0.209981 5.94736e-21)
(1.03539 0.455845 -1.27211e-19)
(1.26628 0.576721 -1.59065e-19)
(1.30974 0.597889 4.40929e-19)
(1.28203 0.603389 -4.3446e-19)
(1.22768 0.590304 2.96798e-19)
(1.16461 0.572588 1.5281e-19)
(1.09798 0.552287 4.06217e-19)
(1.02728 0.525897 4.80872e-19)
(0.953382 0.493104 -4.23789e-19)
(0.886241 0.455467 0)
(0.83348 0.41644 -2.74484e-19)
(0.79405 0.385787 3.15132e-19)
(0.769946 0.360349 3.89935e-19)
(0.734408 0.336584 -2.25709e-19)
(0.67806 0.302061 -5.472e-19)
(0.575359 0.254702 -1.632e-19)
(0.415466 0.18229 -1.36872e-21)
(0.225518 0.100099 0)
(0.059319 0.0252839 0)
(0.446071 0.225723 9.65693e-20)
(1.02267 0.495806 0)
(1.25507 0.628061 -1.54373e-19)
(1.29855 0.65103 5.00061e-20)
(1.2696 0.655931 4.74085e-19)
(1.21465 0.640382 -1.24579e-19)
(1.15089 0.620321 1.57724e-19)
(1.08325 0.597312 -2.79814e-19)
(1.01163 0.567839 3.69839e-19)
(0.937063 0.530681 -1.3167e-19)
(0.866667 0.485559 2.23877e-19)
(0.812275 0.446678 8.71775e-19)
(0.773712 0.413603 1.37312e-20)
(0.73515 0.385042 -4.08537e-19)
(0.707872 0.357752 7.47686e-19)
(0.660873 0.329705 4.40509e-21)
(0.564063 0.275343 1.74602e-19)
(0.406379 0.198839 -8.32674e-19)
(0.217913 0.106695 8.51166e-19)
(0.0562947 0.0268402 -1.00972e-18)
(0.44002 0.244727 3.7423e-23)
(1.01153 0.534637 0)
(1.24306 0.676826 0)
(1.28605 0.701297 -6.82781e-20)
(1.25603 0.705335 -1.58405e-19)
(1.20065 0.687579 1.53745e-19)
(1.13625 0.665613 -3.11723e-19)
(1.06753 0.640233 0)
(0.993591 0.608154 -5.39952e-19)
(0.913879 0.568513 6.10976e-19)
(0.840569 0.523522 6.26674e-19)
(0.786029 0.47966 -3.18107e-19)
(0.746256 0.442215 -3.79742e-19)
(0.722434 0.413603 8.87767e-19)
(0.68788 0.386349 -2.65643e-19)
(0.635963 0.346704 -3.16405e-19)
(0.541571 0.293797 -1.89215e-19)
(0.39139 0.210073 -8.96353e-19)
(0.207936 0.110984 1.29636e-19)
(0.0520332 0.0273203 1.08806e-18)
(0.436488 0.263182 2.71707e-20)
(1.00065 0.570922 5.8955e-20)
(1.23028 0.722485 2.33909e-20)
(1.27278 0.748862 -8.63842e-23)
(1.24191 0.75224 -1.09661e-19)
(1.18615 0.732412 2.92383e-19)
(1.1212 0.708614 0)
(1.05145 0.681211 1.65262e-19)
(0.976286 0.647001 -1.30312e-19)
(0.897524 0.604441 1.02327e-18)
(0.82547 0.554305 -1.41531e-19)
(0.766699 0.507305 1.60013e-19)
(0.723563 0.469456 0)
(0.687109 0.434011 -4.79289e-19)
(0.660378 0.402123 5.75997e-19)
(0.617439 0.37055 0)
(0.526666 0.307803 -4.08172e-19)
(0.375214 0.220099 1.19973e-18)
(0.196074 0.113148 1.41153e-19)
(0.0469183 0.0269214 -1.33782e-18)
(0.434567 0.28001 4.16949e-20)
(0.990959 0.605728 -5.27654e-20)
(1.21742 0.765469 0)
(1.25915 0.793417 -1.36184e-19)
(1.22746 0.796101 0)
(1.17132 0.774527 -3.37635e-19)
(1.10582 0.749224 0)
(1.03539 0.719987 0)
(0.959066 0.683806 -1.60959e-19)
(0.876717 0.639314 -9.68802e-19)
(0.796696 0.587751 -1.15476e-18)
(0.736448 0.536433 1.83304e-19)
(0.697465 0.491564 6.54386e-19)
(0.671973 0.458084 5.24584e-19)
(0.640424 0.426663 -1.84832e-18)
(0.591139 0.380777 -7.40128e-19)
(0.501347 0.320953 4.33223e-19)
(0.35615 0.224689 0)
(0.183268 0.113457 1.2148e-18)
(0.0416511 0.025571 -1.44003e-18)
(0.433264 0.295718 -3.07918e-20)
(0.981434 0.63833 4.49023e-20)
(1.20454 0.805704 0)
(1.24535 0.835499 -1.05884e-20)
(1.21295 0.837664 6.46662e-20)
(1.15654 0.814411 0)
(1.09072 0.787633 9.51011e-20)
(1.01959 0.756803 1.07369e-19)
(0.941905 0.71905 -3.14631e-19)
(0.857912 0.67264 1.33376e-19)
(0.779252 0.616413 0)
(0.719226 0.562334 7.63626e-19)
(0.672599 0.517818 4.55871e-21)
(0.636038 0.47554 2.82557e-19)
(0.611174 0.436664 3.34478e-19)
(0.570929 0.400196 0)
(0.484154 0.327862 -7.09062e-19)
(0.337631 0.228657 1.39204e-18)
(0.16993 0.111975 -1.47368e-18)
(0.0365692 0.0238255 3.09949e-18)
(0.432239 0.310793 0)
(0.972754 0.669707 0)
(1.19202 0.843416 3.88563e-20)
(1.23173 0.874698 0)
(1.19866 0.876356 0)
(1.14199 0.851793 -3.37564e-19)
(1.07578 0.823837 9.90392e-20)
(1.00393 0.791602 1.74109e-20)
(0.924825 0.752305 -7.5737e-20)
(0.838347 0.704311 0)
(0.754922 0.648114 -1.72843e-19)
(0.687845 0.591296 -6.20739e-19)
(0.644369 0.538598 -7.39891e-19)
(0.619418 0.496215 -2.94949e-19)
(0.589389 0.458215 3.62236e-19)
(0.543376 0.402923 -8.53798e-19)
(0.456941 0.335581 1.52487e-18)
(0.316299 0.227333 4.15394e-21)
(0.156632 0.108952 -1.41427e-18)
(0.0320051 0.0218382 -2.0899e-19)
(0.431264 0.325524 0)
(0.964401 0.699375 2.62052e-20)
(1.17979 0.87884 -3.11289e-20)
(1.2183 0.911759 0)
(1.18461 0.913011 0)
(1.12774 0.887126 7.0489e-19)
(1.06128 0.858007 0)
(0.988769 0.824512 0)
(0.908577 0.784287 -6.97247e-19)
(0.820825 0.735314 1.74596e-19)
(0.735559 0.675239 -1.55897e-18)
(0.668529 0.614721 0)
(0.62004 0.562719 -7.98715e-19)
(0.580413 0.511807 1.10489e-20)
(0.556426 0.46131 -1.16207e-18)
(0.520444 0.416718 4.59304e-19)
(0.439238 0.333427 2.527e-21)
(0.299771 0.225417 -1.60741e-18)
(0.145315 0.104933 7.61977e-19)
(0.0279789 0.0199557 2.23748e-19)
(0.430373 0.339868 0)
(0.956773 0.727821 -8.1612e-21)
(1.16801 0.912014 -3.40141e-20)
(1.20526 0.946119 -1.78476e-19)
(1.17101 0.946957 -8.83203e-20)
(1.11399 0.920149 8.48471e-20)
(1.04728 0.890213 -8.24539e-20)
(0.974257 0.855698 7.58036e-19)
(0.89292 0.814399 7.45857e-19)
(0.802845 0.764255 1.36908e-18)
(0.714408 0.704959 1.29577e-18)
(0.641462 0.644677 2.23294e-19)
(0.589129 0.583345 1.1475e-18)
(0.561022 0.529582 6.99773e-19)
(0.532018 0.480003 8.33481e-19)
(0.49069 0.409545 -5.01851e-19)
(0.410859 0.332093 -5.87872e-19)
(0.280169 0.214234 6.88257e-19)
(0.135413 0.0998253 -4.07712e-19)
(0.0278824 0.023004 7.23596e-19)
(0.429514 0.35375 3.66101e-20)
(0.949423 0.754595 7.25042e-21)
(1.15655 0.94325 -1.38162e-20)
(1.19256 0.978664 1.63036e-20)
(1.15782 0.979121 2.51384e-19)
(1.10068 0.951296 -1.99637e-19)
(1.03387 0.920488 8.44214e-20)
(0.960403 0.885111 -2.09685e-20)
(0.878176 0.843224 -8.74944e-19)
(0.786452 0.792822 -1.4798e-18)
(0.694325 0.731806 9.19336e-20)
(0.618682 0.665923 0)
(0.564485 0.606871 0)
(0.51832 0.545835 -3.65994e-19)
(0.492309 0.477151 -1.35693e-18)
(0.461302 0.415601 1.08029e-18)
(0.395381 0.309716 6.42295e-19)
(0.282547 0.195659 0)
(0.145336 0.0770706 1.30046e-18)
(0.0217032 -0.000705901 -7.74311e-19)
(0.428728 0.366984 -1.8131e-20)
(0.942584 0.780043 1.89455e-20)
(1.14554 0.972415 1.6059e-20)
(1.18033 1.00868 6.83966e-20)
(1.14514 1.00873 7.37107e-20)
(1.08798 0.980257 -5.752e-20)
(1.0211 0.948984 0)
(0.947293 0.91289 -9.60214e-19)
(0.864082 0.870389 1.07251e-19)
(0.770795 0.819426 0)
(0.677811 0.759269 0)
(0.597525 0.696535 1.38641e-19)
(0.532323 0.62977 1.81095e-19)
(0.495719 0.562398 -3.9386e-19)
(0.461873 0.496758 9.73273e-19)
(0.421929 0.396915 -1.17335e-18)
(0.356687 0.292404 -1.3733e-18)
(0.275005 0.17129 1.21357e-18)
(0.188634 0.107846 -4.64452e-19)
(0.11478 0.0839751 2.71472e-19)
(0.427811 0.379422 4.07369e-20)
(0.935875 0.803843 0)
(1.13486 0.999865 0)
(1.16851 1.03717 3.16514e-20)
(1.13295 1.03683 -2.56237e-20)
(1.07577 1.00753 -2.09728e-20)
(1.00892 0.975613 3.49831e-19)
(0.93491 0.939071 1.02046e-18)
(0.851132 0.896192 1.60872e-18)
(0.756348 0.845361 -1.09307e-19)
(0.657382 0.78474 2.2031e-19)
(0.570712 0.717766 -1.25505e-18)
(0.508543 0.653807 -1.2213e-18)
(0.448685 0.583889 -2.10654e-19)
(0.408628 0.491195 0)
(0.37544 0.404487 -1.02458e-20)
(0.323907 0.231552 7.48946e-19)
(0.281821 0.0710258 -1.27539e-18)
(0.241713 -0.0645774 9.74609e-19)
(0.080577 -0.0951089 8.18058e-19)
(0.426859 0.391349 -9.63544e-20)
(0.929487 0.826414 -5.07277e-20)
(1.12454 1.02553 6.78043e-21)
(1.15707 1.06351 -5.20597e-21)
(1.12114 1.06283 0)
(1.064 1.03313 -3.74646e-19)
(0.997192 1.00109 -4.7893e-19)
(0.922956 0.964195 2.05922e-20)
(0.838353 0.921297 -8.49778e-19)
(0.741996 0.870512 -1.07579e-19)
(0.643803 0.81071 9.99209e-20)
(0.557527 0.7496 1.10075e-18)
(0.475713 0.681562 1.19241e-18)
(0.423102 0.603052 2.0449e-19)
(0.37286 0.523198 1.03001e-18)
(0.304652 0.382385 0)
(0.192191 0.219727 0)
(0.0211984 0.236628 8.728e-19)
(-0.0745673 0.628805 -3.21522e-20)
(0.00395335 1.52391 -1.04826e-18)
(0.425712 0.402626 5.65372e-20)
(0.923229 0.847673 1.05618e-19)
(1.11449 1.04996 -7.10692e-20)
(1.14595 1.08899 -4.53456e-20)
(1.10967 1.08813 4.33738e-20)
(1.05251 1.05794 -3.81459e-19)
(0.985691 1.02561 0)
(0.9113 0.988825 -8.73248e-19)
(0.82628 0.946134 0)
(0.728499 0.895851 1.57826e-18)
(0.623634 0.837228 -1.16018e-19)
(0.524706 0.773973 1.30087e-19)
(0.452172 0.710636 1.35983e-18)
(0.369735 0.641936 -4.37155e-19)
(0.281571 0.529693 -5.23218e-19)
(0.207085 0.441994 0)
(0.0987416 0.542095 0)
(0.0303923 1.29467 0)
(0.0747769 2.44771 -4.98026e-19)
(0.10376 2.90318 -3.03752e-19)
(0.424415 0.413349 0)
(0.917256 0.867744 0)
(1.10483 1.0728 3.16564e-20)
(1.13524 1.1125 4.70341e-20)
(1.0986 1.11154 -1.14671e-19)
(1.04147 1.0813 3.62868e-19)
(0.974709 1.0493 5.9252e-20)
(0.900107 1.01261 -4.6133e-20)
(0.814304 0.970634 1.16924e-19)
(0.71496 0.921692 -1.81245e-18)
(0.610831 0.865153 2.16006e-19)
(0.518396 0.808525 1.09949e-18)
(0.419872 0.748168 -1.35858e-18)
(0.343695 0.665375 -1.4579e-18)
(0.271036 0.593711 4.88917e-19)
(0.200955 0.718358 0)
(0.132376 1.52553 6.82127e-19)
(0.131507 2.68257 7.65241e-19)
(0.139072 3.08419 -8.56181e-19)
(0.130044 3.22039 9.30407e-19)
(0.422935 0.423587 0)
(0.911403 0.886524 1.33757e-19)
(1.09544 1.09448 -5.72285e-21)
(1.12491 1.1353 -5.84874e-21)
(1.08796 1.13438 1.20366e-19)
(1.03082 1.10394 0)
(0.964029 1.07194 0)
(0.889318 1.03578 0)
(0.803146 0.994443 7.17903e-19)
(0.702988 0.946515 8.91627e-20)
(0.594316 0.891992 0)
(0.484783 0.835733 -1.09797e-18)
(0.40313 0.780159 0)
(0.294201 0.719359 1.0456e-18)
(0.212144 0.791886 -7.03185e-19)
(0.163766 1.45419 -5.63339e-19)
(0.166662 2.6715 -1.32891e-18)
(0.187137 3.12634 -7.10622e-19)
(0.177672 3.26924 -1.00815e-18)
(0.162983 3.30983 7.90594e-19)
(0.42142 0.433015 -5.21909e-20)
(0.905832 0.904197 1.54071e-20)
(1.08647 1.11473 -9.16339e-21)
(1.11504 1.15623 1.82312e-20)
(1.07774 1.15541 0)
(1.02064 1.12522 0)
(0.953918 1.09385 0)
(0.879036 1.05816 6.03388e-20)
(0.792405 1.01812 -9.0221e-19)
(0.69111 0.972627 0)
(0.581405 0.921713 0)
(0.484758 0.872623 0)
(0.371474 0.822558 0)
(0.308244 0.808485 7.72915e-19)
(0.277258 1.17962 1.88249e-18)
(0.261635 2.36139 5.56546e-19)
(0.272511 3.08246 1.152e-18)
(0.266226 3.28706 -9.07353e-19)
(0.216488 3.35382 3.39262e-19)
(0.183084 3.36638 0)
(0.419765 0.442065 5.6476e-20)
(0.900153 0.921109 -3.26291e-19)
(1.07753 1.13449 -7.29209e-20)
(1.1053 1.17723 -9.68721e-21)
(1.06773 1.17663 -3.34379e-20)
(1.01066 1.14644 3.64337e-19)
(0.943911 1.11526 -3.7463e-20)
(0.869049 1.08036 -7.9971e-19)
(0.782212 1.04133 0)
(0.680385 0.997199 -1.05012e-19)
(0.569393 0.948201 9.5528e-20)
(0.453946 0.90038 0)
(0.369928 0.863238 0)
(0.321548 0.988857 -9.66896e-19)
(0.284824 1.84818 1.36501e-19)
(0.279958 2.93754 -4.38552e-19)
(0.299739 3.29189 9.37114e-19)
(0.273071 3.39185 7.19921e-19)
(0.20604 3.41681 -1.05621e-18)
(0.18064 3.42578 5.27612e-19)
(0.417771 0.451264 1.19105e-19)
(0.894185 0.938482 3.36121e-19)
(1.06823 1.15456 8.00703e-20)
(1.09523 1.1979 0)
(1.05738 1.19745 0)
(1.00044 1.16756 -2.77074e-19)
(0.933902 1.13713 3.31715e-19)
(0.859071 1.10282 7.19445e-19)
(0.772283 1.06532 4.14507e-20)
(0.670193 1.02433 1.42981e-18)
(0.557744 0.980909 -1.55737e-18)
(0.454319 0.938374 0)
(0.376486 0.945578 0)
(0.342811 1.34879 -6.78695e-19)
(0.34488 2.4691 -8.05692e-19)
(0.387541 3.19923 0)
(0.412829 3.37621 -1.04926e-18)
(0.342804 3.44009 -1.29688e-20)
(0.270948 3.48433 6.68184e-19)
(0.247462 3.50994 -2.67647e-19)
(0.415326 0.460858 -2.32101e-19)
(0.887353 0.95654 -1.65645e-19)
(1.05795 1.17579 0)
(1.08429 1.22038 0)
(1.04633 1.22009 0)
(0.989583 1.19002 0)
(0.923207 1.15958 -3.65535e-19)
(0.848751 1.12595 7.14183e-19)
(0.762001 1.08938 0)
(0.659833 1.04962 -1.30544e-18)
(0.549147 1.00705 2.81343e-18)
(0.437808 0.974141 1.11826e-19)
(0.382678 1.05861 1.41937e-19)
(0.391405 1.73687 1.12215e-18)
(0.412657 2.89127 -6.27557e-19)
(0.449707 3.32536 0)
(0.431548 3.45236 3.10944e-19)
(0.344676 3.54011 9.4785e-20)
(0.265312 3.60602 8.50593e-20)
(0.189878 3.58562 1.03166e-19)
(0.412368 0.470775 1.13006e-19)
(0.879899 0.975767 -1.86597e-19)
(1.04694 1.19796 0)
(1.0726 1.2428 -6.01785e-21)
(1.03447 1.24246 -1.44091e-20)
(0.978038 1.21251 0)
(0.91221 1.18271 0)
(0.838124 1.14955 -1.27389e-18)
(0.752126 1.11438 -9.25364e-20)
(0.650961 1.07797 1.33231e-18)
(0.536401 1.04255 -1.3473e-18)
(0.451176 1.02755 7.5988e-19)
(0.416284 1.24274 0)
(0.43702 2.17456 -6.02719e-19)
(0.477905 3.14473 3.83322e-19)
(0.538523 3.43131 2.80277e-19)
(0.532228 3.52981 0)
(0.467051 3.61588 1.58592e-20)
(0.39423 3.65893 -3.06374e-19)