/*--------------------------------*- C++ -*----------------------------------*\
| =========                 |                                                 |
| \\      /  F ield         | OpenFOAM: The Open Source CFD Toolbox           |
|  \\    /   O peration     | Version:  4.0                                   |
|   \\  /    A nd           | Web:      www.OpenFOAM.org                      |
|    \\/     M anipulation  |                                                 |
\*---------------------------------------------------------------------------*/
FoamFile
{
    version     2.0;
    format      ascii;
    class       surfaceScalarField;
    location    "20";
    object      phi;
}
// * * * * * * * * * * * * * * * * * * * * * * * * * * * * * * * * * * * * * //

dimensions      [0 3 -1 0 0 0 0];

internalField   nonuniform List<scalar> 
1300
(
3.75095
5.62643
-5.98976
3.75095
-5.86923
5.62643
-4.5512
4.5512
-1.25106
1.25106
1.87673
1.87422
-2.71515
2.71515
-3.79102
3.79102
-2.65826
2.65826
-5.24644
5.24644
-5.06862
5.06862
4.6838
-4.6838
-4.75641
4.75641
-1.73055
1.73055
-3.86546
3.86546
3.17017
-3.17017
-4.57407
4.57407
-0.437371
0.437371
-0.553365
4.30432
3.19759
3.19759
-2.36248
2.36248
-4.85412
4.85412
6.21824
-6.21824
9.05455
-9.05455
-3.06479
-3.43712
1.32811
-8.2421
-4.54112
-4.54112
-8.44041
8.44041
-2.81398
2.81245
2.94167
-2.94167
-1.75666
1.75666
-4.49259
-0.0586075
-4.49259
4.54444
0.00675786
4.54444
-1.37399
0.122934
-1.37399
4.01177
-4.01177
1.10344
0.147615
1.10344
3.06401
-3.06401
-1.87693
3.75366
1.87402
-1.87159
6.17591
-1.87936
3.75358
-5.78726
5.78726
-3.05298
0.337828
-3.05298
2.5598
0.155352
2.5598
-5.20921
5.20921
-3.37547
-0.415551
-3.37547
4.10639
-0.315374
4.10639
2.88726
-2.88726
-2.69324
0.0349748
-2.69324
2.60671
0.0515568
2.60671
0.35357
5.27286
-5.98
8.79245
-5.27286
0.0264181
5.20847
0.0379768
5.20847
-5.1062
0.0375793
-5.1062
5.00997
0.0586562
5.00997
4.77868
-0.0948848
4.77868
-4.79657
0.112771
-4.79657
-3.33156
-3.48869
-4.85183
0.0954178
-4.85183
-1.71131
-0.0192477
-1.71131
1.69927
0.0312848
1.69927
-3.48049
3.48049
-4.271
0.405541
-4.271
3.1255
0.0446745
3.1255
1.86863
1.88233
5.61958
-5.61958
2.44941
-4.50933
-0.0647394
-4.50933
-4.67522
-4.37933
4.67522
-0.101147
-0.734576
0.297206
-0.734576
3.15941
0.0381772
3.15941
2.52612
0.08059
-2.52612
0.16364
3.34282
-3.34282
1.73312
0.629361
1.73312
-5.56982
5.56982
4.95018
0.0597888
-4.95018
0.0960594
6.15753
0.0607159
6.15753
-6.19961
-0.0186327
-6.19961
3.32896
-6.76608
-3.46456
4.64952
0.106892
-4.64952
0.1084
2.90592
0.0357514
2.90592
-2.92203
2.92203
-2.98211
0.0404366
-2.98211
-2.17319
0.416526
-2.17319
1.43843
0.318235
1.43843
-4.35441
-0.138175
-4.35441
-4.45339
0.182395
4.45339
0.0910445
0.933996
-0.933996
-1.51018
0.13619
-1.51018
-4.16837
-0.186046
4.16837
-0.156597
-3.89826
-0.113508
-3.89826
-3.02243
0.040323
3.02243
0.041582
3.11218
0.0472349
-3.11218
0.0481635
-1.87093
3.75326
-1.88002
3.75404
-5.49633
-0.290929
-5.49633
5.91606
-0.128805
5.91606
3.46648
0.398976
-3.46648
0.413503
2.62884
-0.0690378
2.62884
-5.30195
0.0927396
-5.30195
5.14967
0.0595417
5.14967
2.92911
-0.300278
-2.92911
-0.446351
4.3076
-0.201209
4.3076
2.94298
-0.0557173
2.94298
-2.85597
-0.0312897
-2.85597
2.79363
-2.79363
2.72974
0.063883
-2.72974
0.036504
-11.1327
11.1141
-0.0350414
-11.0976
5.17342
5.17342
4.20625
0.572431
4.20625
-5.00779
0.21122
-5.00779
3.29915
-6.76371
3.47703
-6.80859
3.47478
-11.7169
3.37373
-6.86242
5.06674
-5.06674
4.9583
0.108437
-4.9583
0.106475
-1.73701
0.0257011
-1.73701
-2.85455
-0.625942
-2.85455
4.17735
-0.696863
4.17735
-3.03272
3.03272
-3.0803
0.0475859
3.0803
0.0451963
4.42688
-0.119279
-4.42688
-0.0824567
0.930831
0.172613
-0.930831
0.196254
3.55084
-0.208018
3.55084
-3.1467
-0.19612
-3.1467
-1.74187
0.00486393
1.74187
-0.00875609
-5.8169
0.24708
-5.8169
-11.1907
0.0930525
-11.1527
-6.10656
-6.10656
2.33385
11.1263
-2.86655
0.0105827
2.86655
0.0393677
2.97921
0.0535034
-2.97921
0.0571818
-2.86163
0.0680054
2.86163
0.0604009
-2.56206
0.388874
-2.56206
-1.02736
1.02736
-1.20969
0.182329
1.20969
0.228736
1.19173
-0.257733
1.19173
1.61266
0.0866074
-1.61266
0.102478
-3.80647
-0.0917962
-3.80647
5.82332
0.0927391
5.82332
-3.02403
-0.122668
3.02403
-0.0810543
-0.0333024
11.1474
-5.14012
0.0339201
5.14012
-11.2081
11.242
-3.24508
0.683017
3.24508
0.961171
5.2948
0.275022
-5.2948
0.287009
5.14638
0.0032846
-5.14638
0.0796392
-2.36184
-0.492701
-2.36184
-4.94412
-0.552209
4.94412
-0.766767
-11.4752
-0.203674
11.6789
-11.4165
6.02057
0.136954
-6.02057
11.3789
-0.905846
-0.0281491
0.905846
0.121517
1.50264
-0.310907
1.50264
3.71894
-0.168101
-3.71894
-0.0875271
-5.55589
0.253943
5.55589
0.267432
-1.92018
-0.441666
1.92018
-0.417544
-4.26634
4.30452
1.90957
-3.269
-3.49708
-7.64833
1.85238
1.90088
4.30179
-7.25397
-4.4629
-7.14557
7.27335
-6.98634
-9.30266
9.20777
7.5067
-7.62021
-5.78462
5.82981
6.48182
-6.44024
1.87818
1.87548
7.04636
-6.70853
-15.825
15.5341
7.67878
-8.09433
14.5596
-14.4669
-14.4566
14.4599
-5.76816
5.80314
-6.64895
6.61766
-6.8295
6.74845
-3.23135
-3.57725
9.51158
-9.41616
11.5463
-11.611
-8.40496
8.8105
3.3824
0.922117
3.42964
-1.88227
3.76044
-1.87132
3.78089
3.4894
-6.72074
3.27431
-6.77139
6.0346
5.51166
-5.93345
-1.71488
-5.89191
5.92766
-5.82233
5.88273
8.94974
-9.00835
-1.88629
3.76177
-1.86775
3.76863
-3.42466
-2.35996
3.37998
0.921808
5.7734
3.73818
-5.88029
-1.26529
-7.71187
7.54377
-7.99847
7.80235
-0.453978
5.82444
-5.37046
4.40014
-1.5537
7.37813
5.71966
5.93088
5.868
-5.59298
1.11834
-6.4888
-6.39274
-2.57447
2.71066
2.58663
-2.43902
5.90846
1.59824
5.75186
-5.49161
-2.1286
-5.5834
3.81941
2.0104
3.867
4.07689
2.40493
4.11721
3.03036
-3.03643
0.00606275
-3.05582
6.08619
0.725341
-5.41578
-4.49397
3.8051
3.24125
3.96046
-5.17801
-1.53052
-4.76451
-9.51355
-6.31146
-10.0658
10.2309
5.30321
10.1021
-11.8762
12.1437
5.73902
1.93976
5.42365
-4.39249
-3.70185
-4.83884
11.4971
-0.744353
-10.7527
-8.79671
-5.65986
8.73716
5.82247
8.46749
5.99236
8.54713
3.16076
8.33632
-8.98323
3.32337
-3.85792
-1.91024
-3.82142
3.74301
2.06012
3.79457
-4.15206
-2.49689
-4.14148
-4.19623
-2.63327
4.25195
2.36571
-4.29911
-3.69936
4.42178
2.32667
3.20635
-7.66926
3.65606
-7.23331
-6.75974
-2.65642
-6.65327
4.2985
2.48861
-6.78711
-2.42225
10.9085
-5.39685
9.19363
-7.00201
-4.60899
-7.08447
-6.79802
-1.60693
-6.61563
-8.79312
8.30042
-9.084
8.38714
12.6781
-5.62213
-7.05592
-3.96837
-2.47187
3.92021
-0.49057
-3.71152
3.71759
0.0489217
3.82981
4.75193
4.26136
-3.88706
-1.93527
-3.82988
3.82771
2.05502
3.89571
6.76511
2.18463
6.77187
-6.40217
-2.60618
-6.54034
9.08987
-8.67335
2.96843
-2.96357
5.2187
2.58365
-5.01068
-2.70119
6.03452
-3.03033
-3.0042
-12.2228
10.592
1.63085
-4.84468
-0.444544
-0.00717324
-5.51338
-3.78927
5.40061
0.530263
11.1222
7.33296
-5.51386
5.76094
6.16499
6.22478
-0.167963
5.85522
-5.1722
5.26147
-2.26099
-3.00048
5.24994
-5.43599
-1.2904
-5.23503
3.94463
0.315872
1.88555
-1.58834
-2.05628
-0.518188
-1.95381
1.5936
0.993034
1.76621
0.977592
1.73307
-2.9607
0.583013
2.37769
-1.98311
-1.85601
-3.54768
-1.0085
4.55618
5.48921
2.05456
-5.40168
-0.181723
2.73491
-2.70363
-0.686451
-2.86123
2.17417
-2.86063
-3.50447
-1.91047
5.41494
-3.36869
-0.461185
3.31519
0.551812
-3.82094
-2.07097
3.7805
0.336711
-3.12815
6.20554
-3.07739
-5.06342
2.5287
3.55749
4.5391
-4.78964
2.44456
2.34507
-1.23215
3.26267
0.697789
3.19363
-6.70545
5.17493
5.62059
3.18991
-6.01957
1.25506
-5.45039
8.68595
-7.83086
-0.855081
3.6626
5.02335
7.17858
5.49947
-5.76591
12.9445
-1.68225
-6.14862
7.13264
-3.94273
4.88621
-8.82894
-10.3857
4.23706
-10.807
12.1546
-1.34768
-3.17761
-8.69863
13.9846
-1.49617
-12.4884
8.60589
-6.36382
-3.4138
9.77762
-7.10818
7.11564
-3.43818
-3.67746
-9.85781
-4.60909
9.60386
2.53981
-9.12799
12.4514
-0.791664
5.28488
0.138768
5.08367
5.07484
-5.74221
0.667374
2.03334
-5.47152
3.32731
-9.06952
-5.29048
9.94106
-4.65059
-7.9469
-7.46543
-0.48147
1.64849
10.8029
-7.64085
5.46313
2.17773
3.31147
0.584239
-3.37536
-0.446059
0.345915
4.4896
-4.83551
4.14048
4.22107
3.40031
1.08929
3.79895
2.12871
-3.83832
-0.303159
-4.10235
1.46908
-1.73664
-3.62644
5.09552
-4.04754
0.421101
-2.7023
-3.55484
6.25713
-4.61254
3.05369
3.15185
5.10871
-4.9455
1.39066
-2.4386
-2.5069
2.65688
-4.39352
1.94388
3.15164
4.27055
0.571185
5.15834
4.78272
-7.64695
0.413639
8.5209
-7.25562
2.11021
6.43692
-7.57334
0.107909
-6.54536
0.941694
-6.33854
-5.84542
5.15678
-6.76371
-3.67216
6.16063
0.611239
-6.25167
-0.363955
-5.95975
-2.83337
-6.40142
-3.04943
-6.03457
-8.81534
-1.63991
-7.17543
6.66052
-6.54544
-3.52032
7.31221
1.07493
-7.35309
7.32494
-7.42621
7.11531
0.09506
3.62253
4.35642
1.88455
-2.39038
4.27493
-5.03947
7.2241
-8.44877
3.4093
3.91907
-6.52525
-4.5297
5.02062
4.06925
5.33886
8.9668
-10.5622
1.59544
-10.8724
12.2337
-1.36129
-16.6485
5.77604
-7.68168
2.69896
0.269474
2.72466
0.672872
2.41173
-3.0846
-2.2907
-2.29945
-2.25944
-3.31197
5.57141
1.10545
-3.32358
2.21813
-3.44534
4.55079
-0.0777909
-3.24579
5.22227
-2.81054
5.49175
-3.52313
1.96861
3.22398
5.50523
-2.28125
4.2469
-1.66324
1.76627
-4.04752
-1.5457
-3.0091
5.06923
-3.24803
3.66913
-0.233715
3.90285
-4.00982
0.979492
-0.609511
3.61156
3.7752
4.17033
-3.08104
2.88139
-4.54463
-1.16613
-3.97344
-0.821807
-0.377589
-3.68319
4.06078
6.04702
-6.42461
-5.30788
9.6093
-4.30143
7.73713
-5.43354
-2.3036
-4.28296
-4.39038
3.89409
1.96113
9.69826
0.200637
-5.63417
-4.97156
-4.01039
3.21969
2.04179
-2.07055
3.7014
2.07773
-0.192175
0.583156
1.18306
1.93027
-1.34712
0.209035
1.72124
-1.37931
1.98472
0.750194
-2.07133
0.11752
-1.29236
3.46653
1.08533
-2.07836
0.731245
1.11141
-3.3724
4.6649
-2.37012
-2.29478
5.77631
1.16878
-3.5389
4.06625
-3.75038
2.2678
-3.2763
-1.2711
-5.02148
-3.42324
-2.4536
4.67173
-3.11781
5.17238
1.16726
-4.99065
6.15791
-3.54016
1.62968
-2.98104
3.73123
-1.01064
-1.9704
2.757
2.65794
-2.87351
0.0122811
-0.11651
2.3154
-2.43191
-0.545221
-2.52833
-4.57045
4.90716
-2.10941
4.55397
2.16552
-1.91137
6.46535
1.81534
-3.72671
-3.24808
-3.70927
-1.38164
3.15746
-1.56521
-3.27362
-5.24267
3.5739
-0.380273
-6.54888
7.06937
-0.520487
-3.30763
-1.8673
5.52989
-6.85746
1.38594
-3.53015
3.53922
4.23701
3.85673
-11.9879
-0.500446
-6.68473
0.884891
-7.56963
5.90824
-3.5417
7.77876
-10.4777
6.9574
-9.40279
6.92368
-0.645946
6.31533
-5.64796
4.4374
-9.04649
-6.50667
6.21246
-4.2727
6.35123
-4.71325
11.0645
-5.50492
7.03572
4.02876
-1.63675
-5.44772
-6.55239
4.91564
0.483331
5.567
4.94712
-2.81841
4.64396
2.24644
-4.68504
-2.14707
-6.55759
1.87255
-3.40574
-1.91792
3.79047
3.19079
3.77503
1.28357
-3.32897
7.18502
-7.66649
-2.53443
-3.31098
6.65285
-1.73721
4.29468
-7.60566
-2.04386
4.94586
-0.882381
-4.06348
0.676266
-4.34843
1.6154
-5.96382
5.14832
-5.51227
2.18163
-9.86331
-5.17146
-5.04995
-2.25051
-5.1757
-7.66755
5.41703
-1.89151
5.43343
-8.70234
7.81996
-3.53139
8.94842
-5.36766
-1.03376
5.78521
1.3301
10.2785
0.0898047
-4.61951
-1.79587
3.90106
-2.10519
1.42382
-3.59339
0.307677
2.4614
3.31491
-6.40603
-0.119219
-4.73873
-3.90558
7.97483
5.70372
11.7507
1.1885
9.19182
-1.21699
10.3803
4.12187
4.3506
-2.98225
4.57769
1.07853
4.48783
-0.844883
2.8135
1.87978
1.86053
0.843098
2.30542
1.46978
3.28491
0.200308
-2.09915
4.66252
-8.67291
-0.971656
-8.10048
1.10729
5.74821
-4.64092
3.14663
-1.10484
1.04143
0.198014
-1.81338
1.61536
-2.80246
-2.00555
-0.284314
-1.63523
2.36648
1.8313
-2.08216
-0.7203
0.316249
-3.73949
2.96005
-2.94777
-0.289827
5.86809
-2.70403
0.272119
-1.07435
-2.25621
-2.7744
2.65688
6.1853
0.280045
3.10791
5.18721
3.11624
0.297824
4.94326
-6.29094
-4.12626
-6.79139
-0.883145
4.64675
2.83145
7.97142
6.86021
5.123
-2.48266
-10.1491
6.5993
-2.02161
5.23801
-1.17453
-4.78929
4.94862
2.27548
-5.55986
0.047588
-4.7417
-6.76331
-0.563597
8.38355
-9.71493
8.68117
5.8478
1.32763
-4.36241
-0.687536
4.18008
0.170522
10.5508
-1.13267
-6.90396
8.03664
-4.61554
3.64388
0.904047
2.79735
2.51941
1.41457
-5.4894
-10.1303
-1.80112
-1.57128
-4.0959
0.460277
-2.29158
6.2815
-2.63762
3.9779
5.39902
6.44045
-2.2112
-4.2134
6.51263
-2.53472
3.90573
)
;

boundaryField
{
    wall-4
    {
        type            calculated;
        value           uniform 0;
    }
    velocity-inlet-5
    {
        type            calculated;
        value           uniform -3.75095;
    }
    velocity-inlet-6
    {
        type            calculated;
        value           uniform -5.62643;
    }
    pressure-outlet-7
    {
        type            calculated;
        value           nonuniform List<scalar> 8(5.98976 5.86923 6.50191 6.91399 6.82024 6.79352 6.77618 6.84851);
    }
    wall-8
    {
        type            calculated;
        value           uniform 0;
    }
    frontAndBackPlanes
    {
        type            empty;
        value           nonuniform 0();
    }
}


// ************************************************************************* //
