/*--------------------------------*- C++ -*----------------------------------*\
| =========                 |                                                 |
| \\      /  F ield         | OpenFOAM: The Open Source CFD Toolbox           |
|  \\    /   O peration     | Version:  4.0                                   |
|   \\  /    A nd           | Web:      www.OpenFOAM.org                      |
|    \\/     M anipulation  |                                                 |
\*---------------------------------------------------------------------------*/
FoamFile
{
    version     2.0;
    format      ascii;
    class       volScalarField;
    location    "52";
    object      p;
}
// * * * * * * * * * * * * * * * * * * * * * * * * * * * * * * * * * * * * * //

dimensions      [0 2 -2 0 0 0 0];

internalField   nonuniform List<scalar> 
8800
(
0.784429
0.736641
0.697951
0.668955
0.64809
0.633257
0.622659
0.615176
0.610353
0.608292
0.609557
0.613744
0.620386
0.6297
0.642478
0.66021
0.684986
0.718926
0.761475
0.820177
0.615681
0.62336
0.630834
0.634141
0.632636
0.627557
0.621068
0.614987
0.610261
0.607414
0.607131
0.609633
0.614118
0.62006
0.626827
0.633105
0.636744
0.636007
0.630586
0.621894
0.59409
0.600249
0.604375
0.607317
0.609364
0.609965
0.608856
0.606747
0.604727
0.603816
0.604774
0.607151
0.609946
0.612123
0.612727
0.611525
0.609181
0.605786
0.601227
0.597466
0.588291
0.590941
0.59369
0.59609
0.597722
0.598879
0.599616
0.599729
0.599429
0.599374
0.600121
0.601285
0.602119
0.602179
0.601565
0.60047
0.598651
0.596078
0.593674
0.59217
0.582924
0.584348
0.586124
0.588153
0.589932
0.591268
0.592251
0.593042
0.593651
0.594209
0.594853
0.595341
0.595433
0.595138
0.594434
0.593181
0.591481
0.589629
0.58832
0.587488
0.577866
0.578786
0.580024
0.581586
0.583212
0.584731
0.586008
0.587067
0.588023
0.588908
0.589588
0.589905
0.589852
0.589402
0.588513
0.587306
0.585972
0.584708
0.583883
0.583332
0.572983
0.573652
0.574611
0.575907
0.577309
0.578758
0.580188
0.5815
0.582687
0.583783
0.584591
0.584943
0.584844
0.584322
0.583504
0.582546
0.581525
0.580596
0.580008
0.579603
0.568228
0.568745
0.569524
0.570647
0.571915
0.573279
0.574713
0.576171
0.577585
0.578904
0.579892
0.580342
0.580296
0.579892
0.579272
0.578534
0.577748
0.577056
0.57662
0.576303
0.563533
0.563943
0.564594
0.565592
0.566787
0.568101
0.569531
0.571069
0.572671
0.574246
0.575465
0.576094
0.57623
0.576035
0.575629
0.575095
0.574509
0.574006
0.57368
0.573423
0.558811
0.559145
0.559707
0.560625
0.561769
0.563066
0.564527
0.566157
0.567937
0.569789
0.57131
0.572216
0.572614
0.572659
0.572473
0.572153
0.571754
0.571407
0.571164
0.570949
0.553977
0.554254
0.554755
0.555625
0.55675
0.558067
0.559597
0.561359
0.563357
0.565526
0.567429
0.568696
0.569409
0.569727
0.56978
0.569672
0.569457
0.569246
0.56907
0.568885
0.548946
0.549179
0.54964
0.550493
0.551636
0.553018
0.554657
0.556604
0.558882
0.561448
0.56382
0.56552
0.5666
0.567231
0.567547
0.567659
0.567625
0.567538
0.567417
0.567253
0.543628
0.543826
0.544267
0.545132
0.546337
0.547827
0.549631
0.55183
0.554468
0.557535
0.560474
0.562688
0.564195
0.565179
0.565788
0.566127
0.566291
0.566319
0.566244
0.566095
0.537927
0.538096
0.538535
0.539442
0.540749
0.542398
0.544434
0.546963
0.550061
0.55375
0.55738
0.560205
0.562214
0.563603
0.564546
0.56516
0.565514
0.56565
0.565614
0.565475
0.53173
0.531875
0.532326
0.533304
0.53476
0.536626
0.53897
0.541923
0.545602
0.550058
0.554525
0.558083
0.560687
0.562551
0.563869
0.564779
0.565349
0.565599
0.565601
0.565467
0.524905
0.525024
0.525502
0.526584
0.528239
0.530394
0.533132
0.536622
0.541022
0.546416
0.551899
0.556339
0.559651
0.562075
0.563834
0.565081
0.565894
0.566262
0.566298
0.566166
0.517282
0.517377
0.517897
0.519116
0.521029
0.523551
0.526794
0.530968
0.536268
0.542815
0.549526
0.555017
0.559163
0.562246
0.564533
0.566175
0.567255
0.567746
0.567815
0.567681
0.508633
0.508732
0.509305
0.510682
0.512923
0.51592
0.519809
0.524841
0.531264
0.539226
0.547417
0.554157
0.559287
0.563145
0.56606
0.56816
0.569544
0.570168
0.570267
0.570129
0.498666
0.498746
0.499407
0.501006
0.503678
0.507289
0.511997
0.518112
0.525933
0.535628
0.545597
0.553815
0.560106
0.564877
0.568515
0.571159
0.572886
0.573652
0.573781
0.573634
0.487016
0.487079
0.487839
0.48975
0.492974
0.49737
0.503124
0.510611
0.520171
0.531981
0.544083
0.554049
0.561702
0.567545
0.572018
0.575298
0.577409
0.578323
0.578479
0.57832
0.473148
0.473199
0.474101
0.476423
0.480376
0.485809
0.492932
0.502188
0.513942
0.528335
0.542965
0.554963
0.564179
0.571254
0.576705
0.580703
0.583231
0.584295
0.584471
0.584296
0.456303
0.456341
0.457458
0.46036
0.465314
0.472149
0.481098
0.492659
0.507182
0.524721
0.542316
0.556645
0.567637
0.576119
0.582665
0.587477
0.590444
0.591649
0.591836
0.591641
0.435367
0.435404
0.436859
0.440627
0.447021
0.455831
0.467283
0.481888
0.499896
0.521213
0.542241
0.559202
0.572185
0.58223
0.589979
0.59568
0.599086
0.600409
0.600592
0.600375
0.408599
0.408655
0.410691
0.415864
0.424481
0.436193
0.451171
0.469823
0.492203
0.518005
0.542922
0.562763
0.577905
0.589652
0.598706
0.605326
0.609127
0.610518
0.610677
0.610436
0.372997
0.373149
0.376378
0.384146
0.396534
0.412683
0.432697
0.456676
0.484415
0.515394
0.544586
0.567493
0.584891
0.59842
0.608858
0.616347
0.620435
0.621813
0.621918
0.621654
0.322823
0.323779
0.330205
0.343296
0.36223
0.385231
0.412174
0.442866
0.476911
0.513653
0.547392
0.573469
0.593163
0.608478
0.620299
0.628526
0.632732
0.63399
0.634016
0.633733
0.249196
0.256367
0.271257
0.294319
0.323032
0.355214
0.390645
0.429103
0.470189
0.513228
0.551869
0.58138
0.6036
0.620911
0.634205
0.643129
0.6474
0.648542
0.648517
0.64827
0.169877
0.1869
0.211058
0.244754
0.283638
0.325157
0.369167
0.415605
0.464162
0.514245
0.55881
0.59271
0.618184
0.637994
0.653182
0.66276
0.666857
0.667777
0.667775
0.667629
0.103801
0.123883
0.155724
0.198417
0.246293
0.296612
0.348944
0.40322
0.459117
0.516052
0.566272
0.604272
0.632777
0.654808
0.671277
0.681101
0.685015
0.685869
0.685949
0.685869
0.049681
0.0714167
0.108758
0.15785
0.212827
0.270565
0.330269
0.391738
0.454526
0.51798
0.573564
0.615402
0.646628
0.670566
0.688226
0.69856
0.702831
0.703774
0.703857
0.703821
0.00456706
0.027498
0.0686273
0.122801
0.183489
0.247349
0.313375
0.381232
0.450326
0.519865
0.580503
0.62595
0.659759
0.685586
0.704489
0.715688
0.720292
0.721204
0.721333
0.721328
-0.0337946
-0.0101773
0.0338064
0.0920277
0.157511
0.226582
0.2981
0.371636
0.446466
0.521647
0.587024
0.635871
0.672114
0.699767
0.71989
0.731881
0.736869
0.737916
0.738076
0.738095
-0.0674129
-0.0433291
0.00293291
0.0644704
0.134009
0.207607
0.28399
0.36264
0.442728
0.523163
0.592993
0.645024
0.683536
0.7128
0.733992
0.746686
0.752084
0.753368
0.753579
0.753604
-0.097762
-0.0732648
-0.0251356
0.0392365
0.112272
0.18983
0.270569
0.35388
0.438839
0.524217
0.598257
0.653278
0.69386
0.724497
0.746667
0.759922
0.76565
0.767168
0.76741
0.767439
-0.125783
-0.100904
-0.0511612
0.0156351
0.0917495
0.172814
0.257469
0.345046
0.434554
0.524619
0.602702
0.66058
0.703075
0.734988
0.757892
0.771559
0.777532
0.779216
0.77948
0.779491
-0.152257
-0.126952
-0.0757068
-0.00681567
0.0720335
0.156224
0.244416
0.335913
0.42968
0.524239
0.606282
0.666962
0.711287
0.744374
0.767853
0.781805
0.787954
0.789736
0.789991
0.789976
-0.177532
-0.151788
-0.0993709
-0.0284343
0.0528341
0.139829
0.231223
0.326328
0.424098
0.523003
0.608977
0.672468
0.71862
0.752813
0.77684
0.790914
0.797104
0.798932
0.799151
0.799103
-0.202012
-0.1757
-0.122225
-0.0494652
0.0339593
0.123471
0.21777
0.316192
0.417719
0.520833
0.610758
0.677144
0.725188
0.760498
0.784947
0.79906
0.805242
0.80703
0.807252
0.807184
-0.225822
-0.199072
-0.144414
-0.0700564
0.0152974
0.107064
0.203989
0.305453
0.410494
0.517681
0.6116
0.681033
0.731122
0.767586
0.792381
0.806457
0.812569
0.814285
0.81445
0.814352
-0.249078
-0.221783
-0.166088
-0.0902843
-0.00319821
0.0905789
0.189861
0.29409
0.4024
0.513504
0.611456
0.684156
0.736514
0.774198
0.799288
0.813255
0.819188
0.820777
0.820869
0.820731
-0.271902
-0.244012
-0.18731
-0.110176
-0.0215512
0.0740196
0.175407
0.282129
0.393441
0.508267
0.610273
0.686499
0.741432
0.780464
0.805807
0.819537
0.825152
0.826535
0.826547
0.826383
-0.2943
-0.265732
-0.208087
-0.129726
-0.0397265
0.0574196
0.160674
0.269614
0.383647
0.501951
0.607995
0.688017
0.745892
0.786515
0.812127
0.82543
0.83053
0.831628
0.831561
0.831382
-0.316115
-0.286906
-0.228359
-0.148907
-0.0576872
0.0408459
0.145723
0.256622
0.373078
0.49458
0.604562
0.688622
0.749845
0.792487
0.818547
0.831207
0.835449
0.836109
0.835952
0.835777
-0.337322
-0.307505
-0.248108
-0.167668
-0.0753744
0.0243586
0.130648
0.243232
0.361814
0.486188
0.599933
0.688179
0.753184
0.798445
0.825447
0.83737
0.840235
0.840068
0.839757
0.839627
-0.357988
-0.327491
-0.267306
-0.185971
-0.0927247
0.00804149
0.115536
0.229548
0.34995
0.476841
0.594069
0.686543
0.755706
0.80428
0.833137
0.844782
0.845819
0.843938
0.843106
0.843235
-0.377937
-0.346839
-0.285895
-0.203755
-0.109679
-0.00802168
0.100483
0.215683
0.337601
0.46664
0.586964
0.683544
0.757132
0.809628
0.841529
0.854394
0.854256
0.849841
0.846957
0.846393
-0.397264
-0.36554
-0.303893
-0.221047
-0.126268
-0.0238741
0.0854332
0.20158
0.324703
0.455514
0.578483
0.678907
0.757147
0.813941
0.849888
0.866369
0.867848
0.861961
0.853427
0.839027
-0.415893
-0.383578
-0.321416
-0.238044
-0.142779
-0.039847
0.0699742
0.186759
0.31072
0.442829
0.567978
0.671839
0.75515
0.816418
0.856338
0.87816
0.882108
0.870145
0.850736
0.838431
-0.433645
-0.401085
-0.338269
-0.254533
-0.158874
-0.0555956
0.0543321
0.171544
0.29596
0.428847
0.555529
0.661893
0.750391
0.815941
0.856494
0.878052
0.885148
0.86272
0.794828
0.764229
-0.449852
-0.419297
-0.354116
-0.269979
-0.17379
-0.0706172
0.0388165
0.156165
0.280641
0.413695
0.541079
0.648783
0.741549
0.811892
0.845572
0.861043
0.852739
0.799654
0.730682
0.688191
-0.506003
-0.435351
-0.368559
-0.28547
-0.189113
-0.0863586
0.0233646
0.140342
0.264399
0.396927
0.524033
0.631914
0.724898
0.801855
0.807932
0.812565
0.765194
0.696231
0.620078
0.577662
-0.467057
-0.450888
-0.390086
-0.306403
-0.211621
-0.108986
-0.000288441
0.115996
0.238988
0.369988
0.49495
0.6008
0.685681
0.766375
0.755362
0.644396
0.540503
0.468211
0.395317
0.42652
-0.498365
-0.468748
-0.406949
-0.324038
-0.229249
-0.126812
-0.0178654
0.0977586
0.219651
0.348815
0.470929
0.572415
0.648652
0.691091
0.643735
0.497096
0.370599
0.280059
0.181767
0.232434
-0.522475
-0.489904
-0.426804
-0.343679
-0.2488
-0.146466
-0.0376075
0.0771683
0.19764
0.32439
0.442758
0.538119
0.60523
0.614166
0.509003
0.337616
0.186065
0.0680924
-0.062501
-0.0293834
-0.546093
-0.511944
-0.447629
-0.363584
-0.268566
-0.166365
-0.0580234
0.0557794
0.174643
0.298617
0.412352
0.500294
0.55202
0.530138
0.373151
0.178113
-0.011249
-0.178398
-0.36652
-0.384507
-0.569096
-0.534478
-0.469244
-0.384412
-0.289197
-0.187194
-0.0794904
0.0332234
0.150232
0.271057
0.379478
0.459846
0.492749
0.434985
0.243912
0.0346772
-0.181647
-0.370213
-0.611753
-0.910535
-0.592384
-0.557751
-0.491946
-0.406594
-0.311156
-0.209297
-0.102157
0.00943977
0.124497
0.241932
0.344769
0.416938
0.429525
0.320902
0.131532
-0.0770609
-0.280334
-0.451854
-0.520412
-0.599724
-0.61691
-0.582209
-0.516084
-0.430467
-0.334943
-0.233317
-0.126828
-0.016517
0.0962806
0.209817
0.306701
0.36802
0.356183
0.214007
0.0318024
-0.157819
-0.31948
-0.411584
-0.435482
-0.451459
-0.642987
-0.608161
-0.541826
-0.456111
-0.360686
-0.259457
-0.153857
-0.0451301
0.0649945
0.173999
0.264435
0.312036
0.28282
0.114838
-0.0585834
-0.223159
-0.348545
-0.387229
-0.400157
-0.401486
-0.670814
-0.635781
-0.569233
-0.483513
-0.388326
-0.287718
-0.183257
-0.0764454
0.0305722
0.134473
0.217567
0.251211
0.202892
0.023183
-0.141312
-0.288678
-0.363776
-0.380904
-0.382305
-0.382132
-0.70045
-0.665119
-0.598321
-0.512664
-0.417869
-0.318077
-0.215022
-0.110471
-0.00697751
0.0912922
0.166149
0.188323
0.104443
-0.0606361
-0.217151
-0.338563
-0.374865
-0.373018
-0.371956
-0.37135
-0.731601
-0.695999
-0.628975
-0.543463
-0.449215
-0.350469
-0.24911
-0.147173
-0.0476224
0.0445378
0.110941
0.116532
0.0144913
-0.138966
-0.277324
-0.351894
-0.362275
-0.365069
-0.365817
-0.365463
-0.763697
-0.727944
-0.66093
-0.575671
-0.482165
-0.384719
-0.285353
-0.186408
-0.091186
-0.00547422
0.0522683
0.0432027
-0.0664378
-0.205403
-0.321126
-0.352423
-0.360543
-0.3623
-0.362197
-0.361895
-0.796265
-0.760404
-0.693717
-0.608875
-0.516353
-0.420485
-0.323448
-0.227873
-0.137386
-0.0581112
-0.0109042
-0.027359
-0.14102
-0.259001
-0.352406
-0.366933
-0.360263
-0.359431
-0.359453
-0.359332
-0.828407
-0.79265
-0.726442
-0.642456
-0.551212
-0.457267
-0.362915
-0.271065
-0.185732
-0.112853
-0.075588
-0.0944835
-0.20705
-0.298818
-0.354939
-0.365718
-0.361479
-0.359186
-0.358384
-0.358175
-0.858491
-0.823472
-0.758128
-0.675469
-0.585944
-0.494327
-0.403055
-0.315246
-0.235392
-0.169188
-0.135496
-0.172617
-0.2647
-0.328816
-0.339935
-0.358908
-0.363484
-0.361741
-0.361075
-0.360547
-0.884945
-0.850998
-0.787624
-0.706704
-0.619473
-0.530679
-0.442943
-0.359466
-0.285169
-0.226162
-0.193764
-0.252917
-0.330131
-0.339689
-0.356791
-0.368834
-0.376119
-0.379039
-0.380287
-0.380073
-0.905615
-0.873421
-0.812827
-0.734716
-0.650474
-0.565109
-0.481398
-0.402563
-0.333734
-0.282199
-0.255473
-0.329286
-0.416514
-0.427959
-0.404385
-0.429336
-0.436804
-0.439982
-0.438092
-0.435789
-0.918248
-0.888773
-0.831843
-0.757609
-0.677396
-0.596205
-0.517068
-0.443136
-0.379609
-0.335051
-0.316687
-0.398343
-0.550303
-0.679041
-0.62323
-0.562374
-0.532971
-0.518777
-0.508621
-0.50573
-0.920186
-0.894786
-0.842703
-0.773532
-0.698502
-0.622546
-0.54846
-0.479587
-0.421163
-0.381537
-0.365069
-0.445503
-0.614996
-0.920061
-0.833521
-0.62298
-0.524834
-0.492569
-0.483737
-0.481138
-0.909363
-0.88884
-0.843234
-0.780863
-0.712275
-0.642507
-0.574133
-0.510341
-0.456274
-0.418406
-0.392901
-0.397306
-0.404996
-0.561064
-0.543567
-0.438098
-0.394823
-0.383876
-0.381311
-0.378925
-0.883626
-0.868048
-0.831649
-0.778393
-0.717749
-0.655087
-0.592854
-0.534048
-0.48284
-0.44632
-0.403406
-0.247518
0.0552389
0.366776
0.217272
-0.0581183
-0.212104
-0.266706
-0.283734
-0.285695
-0.845341
-0.835198
-0.808589
-0.766292
-0.714938
-0.660102
-0.604175
-0.549746
-0.500869
-0.463028
-0.410559
-0.238742
0.095851
0.353508
0.137497
-0.150552
-0.34322
-0.411539
-0.427079
-0.434986
-0.800992
-0.795209
-0.778855
-0.747304
-0.705814
-0.65845
-0.608493
-0.55791
-0.510764
-0.473655
-0.442504
-0.517109
-0.804703
-1.07272
-1.17536
-1.19201
-1.07518
-0.936938
-0.865797
-0.875663
-0.760188
-0.756719
-0.748622
-0.726942
-0.693412
-0.652352
-0.606883
-0.5588
-0.511189
-0.473975
-0.456982
-0.726509
-1.41384
-2.35395
-2.89014
-2.88025
-2.59544
-2.26776
-1.95022
-1.77793
-0.730315
-0.728109
-0.724115
-0.710075
-0.682354
-0.644794
-0.601343
-0.552347
-0.500573
-0.446172
-0.42213
-0.475785
-0.721087
-0.890988
-0.906358
-0.701617
-0.509609
-0.374225
-0.23439
-0.156727
-0.707728
-0.706934
-0.705755
-0.69838
-0.675656
-0.639438
-0.594291
-0.541986
-0.481243
-0.413347
-0.352952
-0.306533
-0.188998
0.134007
0.530995
0.887015
1.11251
1.21777
1.26757
1.28176
-0.69408
-0.693724
-0.693266
-0.689989
-0.672503
-0.636537
-0.588092
-0.530352
-0.462954
-0.383381
-0.289587
-0.185949
0.0660821
0.546295
1.03454
1.47219
1.74275
1.86818
1.90999
1.91772
-0.684959
-0.684716
-0.684163
-0.683362
-0.671145
-0.635841
-0.583793
-0.520349
-0.443978
-0.348188
-0.23829
-0.120204
0.143818
0.58866
1.0499
1.45471
1.72051
1.84596
1.88823
1.89757
-0.678961
-0.67903
-0.679015
-0.678846
-0.670188
-0.637717
-0.583858
-0.514471
-0.428882
-0.329012
-0.217748
-0.101214
0.102315
0.491051
0.868012
1.19025
1.41217
1.52248
1.56518
1.57658
-0.676521
-0.675554
-0.672471
-0.668932
-0.665952
-0.643448
-0.590636
-0.514749
-0.422886
-0.319787
-0.214938
-0.113409
0.0394261
0.355162
0.6512
0.888444
1.05871
1.14964
1.18987
1.20231
-0.695505
-0.690977
-0.678931
-0.66883
-0.672548
-0.664543
-0.607302
-0.52036
-0.420885
-0.316537
-0.221393
-0.1336
-0.0181529
0.217355
0.452017
0.6343
0.770153
0.847015
0.882201
0.892784
-0.758532
-0.756065
-0.755652
-0.761348
-0.764302
-0.731182
-0.637338
-0.526893
-0.416562
-0.311425
-0.227999
-0.16202
-0.0767881
0.12163
0.302965
0.443202
0.550602
0.612758
0.640592
0.647968
-0.849881
-0.862585
-0.88936
-0.904859
-0.889808
-0.80531
-0.661633
-0.523504
-0.405697
-0.303247
-0.228832
-0.177581
-0.122792
0.0283103
0.174156
0.287499
0.369314
0.416404
0.436651
0.441236
-0.85197
-0.869509
-0.899118
-0.915509
-0.891544
-0.786966
-0.631578
-0.492964
-0.379585
-0.285361
-0.216063
-0.168824
-0.12376
-0.00661269
0.0998312
0.177047
0.23556
0.270188
0.285826
0.289186
-0.669373
-0.686244
-0.711167
-0.726667
-0.704915
-0.623577
-0.519433
-0.419863
-0.332644
-0.255846
-0.193806
-0.144996
-0.0892571
-0.0139127
0.0582977
0.112271
0.150744
0.17375
0.183578
0.185142
-0.380026
-0.388713
-0.403912
-0.419803
-0.421949
-0.400085
-0.362814
-0.31776
-0.26932
-0.216439
-0.164435
-0.114761
-0.0655331
-0.0160585
0.0281886
0.0654025
0.095982
0.115506
0.123664
0.123848
-0.134947
-0.138581
-0.148819
-0.167772
-0.192055
-0.21253
-0.222569
-0.220253
-0.204816
-0.176316
-0.138483
-0.0959992
-0.0566475
-0.0268395
0.00627582
0.0355915
0.0606245
0.0763752
0.0827196
0.0816417
-0.000524229
-0.00250148
-0.0107437
-0.0305453
-0.0627945
-0.0985936
-0.128351
-0.147005
-0.152269
-0.142397
-0.118864
-0.0890255
-0.063403
-0.0523347
-0.0314754
-0.00595786
0.0175983
0.0295402
0.0320831
0.0305953
0.0470616
0.0455686
0.0388481
0.0218999
-0.00671532
-0.0408414
-0.0736045
-0.0997142
-0.115398
-0.118353
-0.108649
-0.0936358
-0.0806997
-0.0797388
-0.067695
-0.0487113
-0.0330706
-0.0244608
-0.0224375
-0.0242271
0.0505436
0.0493923
0.0443825
0.0317335
0.00999786
-0.0174569
-0.0463988
-0.072693
-0.0930406
-0.105123
-0.10723
-0.104209
-0.103376
-0.109576
-0.103427
-0.0917693
-0.0833979
-0.0809741
-0.080859
-0.0822612
0.0371407
0.0363105
0.0327849
0.0238856
0.00828805
-0.0124297
-0.0360729
-0.0598464
-0.0815031
-0.0996425
-0.112249
-0.121801
-0.131295
-0.140671
-0.138949
-0.13359
-0.130836
-0.131483
-0.132597
-0.133383
0.0198337
0.0192529
0.0168197
0.0106766
-0.000329055
-0.0156621
-0.0344143
-0.0550752
-0.0767148
-0.0994135
-0.121679
-0.143893
-0.160801
-0.168324
-0.167529
-0.165527
-0.166458
-0.168659
-0.170002
-0.170531
0.00402331
0.00361746
0.00193404
-0.00231256
-0.0100869
-0.0214303
-0.0361825
-0.0539621
-0.0749225
-0.100533
-0.131364
-0.165796
-0.190766
-0.193736
-0.189623
-0.188087
-0.189611
-0.192288
-0.193298
-0.193631
-0.00833003
-0.00863969
-0.00979259
-0.0127215
-0.0182154
-0.0266144
-0.0381895
-0.0532462
-0.0728597
-0.0995218
-0.135485
-0.177363
-0.210045
-0.206814
-0.199163
-0.197852
-0.200063
-0.202609
-0.20338
-0.20349
-0.0166035
-0.0168522
-0.017657
-0.0196701
-0.0235216
-0.0296757
-0.0386174
-0.0509955
-0.0680586
-0.0938212
-0.130863
-0.176159
-0.20393
-0.196808
-0.190314
-0.19006
-0.194136
-0.19736
-0.19803
-0.197938
-0.0210283
-0.0212079
-0.0217817
-0.0230895
-0.0256803
-0.0300531
-0.0367399
-0.0464814
-0.0606549
-0.0822008
-0.113985
-0.152538
-0.171453
-0.164113
-0.160432
-0.165215
-0.171101
-0.174738
-0.17539
-0.175231
-0.0220001
-0.0221433
-0.0225129
-0.0232984
-0.0249011
-0.0277955
-0.0324706
-0.0395108
-0.0498365
-0.0652938
-0.0867397
-0.111367
-0.121709
-0.11647
-0.118348
-0.126507
-0.133937
-0.137573
-0.138179
-0.13811
-0.0199568
-0.0200708
-0.0202908
-0.0206853
-0.0215464
-0.0232727
-0.02624
-0.0307872
-0.0372591
-0.0457625
-0.0543762
-0.0607843
-0.0582142
-0.0571407
-0.0683767
-0.0810376
-0.0893742
-0.0926941
-0.0933189
-0.0933188
-0.0155302
-0.0156184
-0.0157403
-0.0158858
-0.016196
-0.0170641
-0.0186967
-0.0212124
-0.0244752
-0.0272183
-0.0244761
-0.0128565
0.005059
-0.00375284
-0.0222558
-0.037146
-0.0446681
-0.0463378
-0.0472561
-0.0476369
-0.00929591
-0.00935984
-0.0094165
-0.00942321
-0.00948448
-0.00980287
-0.0105063
-0.011584
-0.0127767
-0.012458
-0.00521795
0.0138138
0.03369
0.0228923
0.0051762
-0.00737211
-0.0109026
-0.0111265
-0.0114623
-0.0124083
-0.00188637
-0.00189521
-0.00191082
-0.00193551
-0.00191934
-0.00187864
-0.00195572
-0.00211008
-0.00231268
-0.00228671
-0.00122808
0.0035863
0.0119937
0.0144141
0.00716741
0.00560603
0.00503708
0.00390661
0.000684969
-0.000231603
-0.136969
0.0301518
0.225382
0.395857
0.532272
0.639957
0.729149
0.805064
0.839596
0.81631
0.166679
0.28761
0.41779
0.530387
0.625394
0.704098
0.767845
0.813096
0.835749
0.84782
0.386207
0.469226
0.558242
0.63691
0.704612
0.761272
0.806335
0.839256
0.863039
0.881016
0.547472
0.606879
0.668758
0.726017
0.77584
0.818158
0.852915
0.88064
0.903466
0.921764
0.673247
0.716487
0.762566
0.806489
0.845291
0.879187
0.908198
0.932342
0.952749
0.970584
0.777777
0.810729
0.848922
0.884541
0.917236
0.946542
0.972152
0.993677
1.01154
1.02889
0.870456
0.899194
0.933219
0.965401
0.995392
1.0226
1.04638
1.06612
1.08164
1.09872
0.959125
0.988357
1.0224
1.05447
1.0841
1.11071
1.1336
1.1521
1.16548
1.18251
1.05449
1.08771
1.12438
1.15797
1.18804
1.21424
1.2362
1.25349
1.26536
1.28276
1.16951
1.20735
1.24601
1.28026
1.30962
1.33438
1.35476
1.37065
1.38212
1.40019
1.31447
1.35302
1.38917
1.41986
1.44555
1.46765
1.48671
1.50224
1.51467
1.53267
1.48956
1.52119
1.54737
1.56982
1.5898
1.60853
1.62625
1.64273
1.65808
1.67615
1.67818
1.69539
1.71042
1.72666
1.74256
1.7571
1.77031
1.78423
1.80178
1.82193
1.8599
1.86944
1.88099
1.8918
1.90108
1.91067
1.92145
1.93282
1.94418
1.95954
2.06714
2.07081
2.05586
2.04105
2.03478
2.04045
2.05893
2.08924
2.12142
2.14808
2.37346
2.2386
2.16196
2.11958
2.10216
2.10612
2.13352
2.18994
2.29256
2.51692
0.67503
0.6729
0.668416
0.659791
0.647564
0.635432
0.625199
0.617298
0.611674
0.60841
0.608044
0.61077
0.615865
0.623079
0.632461
0.643996
0.656644
0.667676
0.673787
0.67684
0.599486
0.605333
0.611665
0.616155
0.618623
0.618295
0.615553
0.611737
0.60822
0.60595
0.60579
0.607975
0.611626
0.615906
0.619706
0.621584
0.620644
0.61716
0.611995
0.605374
0.591066
0.593362
0.596765
0.599758
0.60183
0.603322
0.604072
0.603748
0.602715
0.601821
0.601981
0.603393
0.605195
0.60649
0.606662
0.605765
0.604211
0.601871
0.598605
0.595683
0.585563
0.586649
0.58848
0.590855
0.592875
0.594298
0.595311
0.596055
0.596446
0.596656
0.59713
0.597919
0.598501
0.598554
0.598131
0.597274
0.595798
0.593708
0.591619
0.590235
0.58037
0.581033
0.582139
0.58384
0.585617
0.587242
0.58853
0.589535
0.590406
0.59118
0.591889
0.592418
0.592592
0.592408
0.591828
0.590762
0.589325
0.587775
0.586452
0.585671
0.575408
0.575868
0.576652
0.577946
0.579427
0.580936
0.582391
0.583676
0.584797
0.585832
0.586722
0.587263
0.587383
0.587088
0.586373
0.585369
0.584232
0.58309
0.58217
0.581652
0.570595
0.57094
0.571549
0.572612
0.573898
0.575262
0.576689
0.57812
0.579474
0.58073
0.581808
0.582464
0.582609
0.582307
0.581685
0.58089
0.580023
0.579146
0.578468
0.578088
0.565881
0.566149
0.56664
0.567542
0.568703
0.569988
0.571368
0.572838
0.574355
0.575844
0.577153
0.577977
0.578238
0.578082
0.57766
0.577076
0.576408
0.575755
0.575256
0.574967
0.561183
0.561397
0.561804
0.562596
0.563674
0.564909
0.566276
0.567788
0.569431
0.571148
0.572731
0.573803
0.574289
0.574363
0.574161
0.573789
0.573321
0.572855
0.572494
0.572267
0.556417
0.556588
0.556937
0.557655
0.558686
0.559896
0.561287
0.562878
0.564669
0.56663
0.568539
0.56995
0.570742
0.571088
0.571126
0.570973
0.570707
0.570409
0.570161
0.569981
0.551495
0.551634
0.551941
0.552614
0.553626
0.554858
0.556311
0.558021
0.560012
0.562269
0.564578
0.566412
0.567573
0.568234
0.568542
0.56862
0.568554
0.568414
0.568263
0.568118
0.546332
0.546444
0.546724
0.547376
0.548404
0.549703
0.551262
0.553145
0.555402
0.558035
0.560839
0.563181
0.564775
0.565799
0.566412
0.566737
0.566874
0.566895
0.566827
0.566709
0.540836
0.540925
0.541187
0.541844
0.542926
0.544332
0.546052
0.548175
0.550778
0.553893
0.557305
0.560257
0.56236
0.563802
0.564755
0.56537
0.565731
0.565899
0.565904
0.565808
0.534902
0.53497
0.535226
0.53591
0.537082
0.538643
0.540587
0.54303
0.546072
0.54979
0.553948
0.557634
0.560344
0.562276
0.563618
0.564554
0.56516
0.565487
0.565561
0.565482
0.528407
0.528455
0.528712
0.529446
0.530748
0.532521
0.534763
0.537614
0.541215
0.545677
0.550745
0.555317
0.55875
0.561263
0.56306
0.564351
0.565239
0.565737
0.56588
0.565817
0.521204
0.521233
0.521495
0.522302
0.52378
0.525828
0.52845
0.531822
0.536124
0.541507
0.547683
0.553323
0.557618
0.560815
0.563151
0.564862
0.566072
0.566754
0.566964
0.566913
0.513108
0.513125
0.513387
0.514291
0.515998
0.518388
0.521501
0.525537
0.530721
0.537242
0.544767
0.551686
0.557004
0.561002
0.563974
0.566191
0.567764
0.568645
0.568926
0.568883
0.503811
0.503798
0.504122
0.505162
0.507155
0.509995
0.513737
0.518612
0.524901
0.532833
0.541999
0.55044
0.556964
0.561909
0.565627
0.56844
0.570431
0.571535
0.571887
0.571852
0.493044
0.493004
0.493373
0.494605
0.496965
0.500389
0.504931
0.51087
0.51854
0.528208
0.539357
0.54962
0.557567
0.563631
0.568227
0.571728
0.574201
0.575548
0.575974
0.575942
0.480332
0.480266
0.480711
0.482192
0.485032
0.489215
0.494794
0.502102
0.511527
0.523349
0.536893
0.549303
0.558903
0.566261
0.571885
0.576176
0.579199
0.580808
0.581304
0.581272
0.46504
0.464945
0.465512
0.467341
0.470827
0.476027
0.482984
0.492084
0.503752
0.518242
0.534655
0.549573
0.561077
0.569909
0.576724
0.58191
0.585539
0.587418
0.587977
0.587939
0.446248
0.446124
0.446887
0.449225
0.45362
0.460232
0.469073
0.480566
0.495125
0.51292
0.532737
0.550528
0.564188
0.574686
0.582813
0.589018
0.593296
0.59544
0.596045
0.595994
0.422561
0.42242
0.423511
0.426638
0.432399
0.441077
0.452585
0.467327
0.485614
0.507444
0.531241
0.552285
0.568332
0.58067
0.59023
0.597549
0.602489
0.604864
0.60549
0.605416
0.391678
0.391556
0.393253
0.397749
0.40579
0.417678
0.433105
0.452322
0.475407
0.502122
0.530463
0.555058
0.573645
0.58793
0.59904
0.60752
0.61306
0.615589
0.616192
0.616088
0.349495
0.349532
0.352563
0.35991
0.372171
0.38931
0.410536
0.435771
0.464811
0.497206
0.530578
0.558968
0.580211
0.596513
0.609201
0.618833
0.624824
0.627368
0.627892
0.627751
0.288329
0.289506
0.296929
0.310636
0.330597
0.356074
0.385454
0.418355
0.454458
0.493215
0.531924
0.564176
0.58806
0.606339
0.620543
0.631141
0.637397
0.639734
0.640083
0.639907
0.215578
0.217302
0.23153
0.255111
0.285899
0.321236
0.359548
0.400655
0.444366
0.490179
0.535136
0.572239
0.599635
0.620519
0.636628
0.648418
0.654908
0.657152
0.65748
0.657396
0.140401
0.146508
0.167543
0.20127
0.242383
0.287301
0.334505
0.383873
0.435287
0.488292
0.539711
0.581862
0.612902
0.636606
0.654898
0.667643
0.673993
0.675901
0.676138
0.676109
0.0789149
0.0873114
0.112913
0.153623
0.202795
0.255889
0.311121
0.368231
0.427004
0.486933
0.544536
0.591445
0.625841
0.651983
0.671901
0.6854
0.691782
0.693545
0.693929
0.693965
0.0288815
0.0378726
0.067017
0.112946
0.168233
0.227917
0.289935
0.353873
0.419352
0.485753
0.549198
0.600593
0.638112
0.666509
0.687967
0.702386
0.709067
0.711302
0.71179
0.711861
-0.013072
-0.00379274
0.0278095
0.077734
0.138029
0.203179
0.270948
0.340854
0.412363
0.48472
0.553633
0.609248
0.649713
0.680283
0.703347
0.718733
0.726146
0.72874
0.729304
0.729394
-0.0492915
-0.0398876
-0.00642606
0.0467024
0.111129
0.180942
0.253722
0.32891
0.405868
0.483708
0.557728
0.617306
0.660546
0.693139
0.717691
0.73405
0.742167
0.744992
0.745649
0.745742
-0.0814317
-0.0719746
-0.0370783
0.0187563
0.0866502
0.160478
0.237685
0.317621
0.399563
0.482495
0.561318
0.624626
0.670442
0.704839
0.730646
0.74786
0.756643
0.75974
0.760418
0.760503
-0.110749
-0.101235
-0.0651631
-0.00699082
0.0638894
0.141228
0.222366
0.306605
0.393141
0.480853
0.564236
0.631092
0.679305
0.715347
0.742195
0.760085
0.769341
0.772666
0.773395
0.773466
-0.138091
-0.128517
-0.0913865
-0.0312205
0.0423242
0.122767
0.207418
0.295568
0.38636
0.478585
0.56636
0.63666
0.687171
0.724721
0.752509
0.770907
0.780423
0.783926
0.784699
0.784755
-0.164009
-0.154353
-0.116231
-0.0543674
0.0215725
0.104777
0.192591
0.284305
0.379046
0.475561
0.567624
0.641342
0.694123
0.733119
0.761775
0.78053
0.790172
0.79376
0.794544
0.794574
-0.188984
-0.179141
-0.140166
-0.0766778
0.00137254
0.0870444
0.177714
0.272679
0.371093
0.471692
0.567973
0.645151
0.70024
0.740692
0.770123
0.789135
0.798806
0.802374
0.803141
0.803133
-0.21324
-0.203163
-0.163413
-0.0983557
-0.0184406
0.069436
0.162678
0.26061
0.362424
0.466914
0.567365
0.648087
0.70561
0.747598
0.777763
0.796923
0.806564
0.810073
0.810786
0.810749
-0.236874
-0.226576
-0.18598
-0.119554
-0.0379618
0.0518928
0.147437
0.248058
0.353007
0.461178
0.565747
0.65015
0.710306
0.753965
0.784839
0.80407
0.813616
0.817001
0.817632
0.817571
-0.260023
-0.249409
-0.208053
-0.140333
-0.05723
0.0343839
0.131985
0.235026
0.342842
0.45447
0.563067
0.65131
0.714378
0.759896
0.791491
0.810711
0.820048
0.823226
0.823738
0.823631
-0.28266
-0.271755
-0.229638
-0.160717
-0.0762474
0.016928
0.116358
0.221553
0.331957
0.446782
0.559284
0.651513
0.717835
0.765481
0.797868
0.81697
0.825909
0.828759
0.829124
0.828981
-0.30483
-0.293604
-0.250676
-0.180682
-0.0949886
-0.00043615
0.100602
0.207704
0.320411
0.438142
0.554364
0.65069
0.720619
0.770775
0.804181
0.823083
0.83135
0.833678
0.833861
0.833689
-0.326349
-0.314875
-0.271162
-0.200186
-0.113401
-0.017634
0.0847862
0.193551
0.308278
0.428611
0.548294
0.648759
0.722623
0.775781
0.810673
0.829441
0.836663
0.838099
0.837987
0.837797
-0.347359
-0.335527
-0.291077
-0.219203
-0.131449
-0.0346242
0.0690052
0.179179
0.295651
0.41827
0.541091
0.645617
0.723681
0.780386
0.817505
0.836612
0.842517
0.842384
0.841581
0.841365
-0.367689
-0.355532
-0.310384
-0.237682
-0.149051
-0.0513204
0.0533421
0.164712
0.282641
0.407192
0.532803
0.641168
0.723589
0.784336
0.824579
0.845168
0.850242
0.847834
0.8452
0.844145
-0.387399
-0.374931
-0.32903
-0.25557
-0.166169
-0.0676513
0.0378825
0.150229
0.269362
0.395515
0.523505
0.635321
0.72212
0.787234
0.831337
0.855059
0.861352
0.857688
0.8511
0.842417
-0.406404
-0.39368
-0.347108
-0.273021
-0.183011
-0.0838926
0.0222918
0.135333
0.255364
0.382736
0.512661
0.627501
0.718745
0.788649
0.836992