/*--------------------------------*- C++ -*----------------------------------*\
| =========                 |                                                 |
| \\      /  F ield         | OpenFOAM: The Open Source CFD Toolbox           |
|  \\    /   O peration     | Version:  4.0                                   |
|   \\  /    A nd           | Web:      www.OpenFOAM.org                      |
|    \\/     M anipulation  |                                                 |
\*---------------------------------------------------------------------------*/
FoamFile
{
    version     2.0;
    format      ascii;
    class       surfaceScalarField;
    location    "52";
    object      phi;
}
// * * * * * * * * * * * * * * * * * * * * * * * * * * * * * * * * * * * * * //

dimensions      [0 3 -1 0 0 0 0];

internalField   nonuniform List<scalar> 
17370
(
-0.091607
0.0960098
0.284608
-0.0775955
0.0594212
0.36495
-0.0430442
0.0316254
0.427587
-0.0223227
0.0162712
0.505303
-0.0116791
0.00880578
0.602275
-0.00659482
0.00511017
0.720542
-0.00387382
0.00299388
0.863786
-0.00222093
0.00164249
1.03603
-0.00111073
0.00068966
1.24292
-0.000278677
-0.000114072
1.49158
0.00050166
-0.000913776
1.4916
0.00131657
-0.00182006
1.24319
0.00237034
-0.00311434
1.03638
0.00397369
-0.00519545
0.864128
0.00667204
-0.00887542
0.721261
0.0117394
-0.0163175
0.603793
0.0223547
-0.0316419
0.508727
0.043044
-0.059411
0.432535
0.0775892
-0.096004
0.36519
0.0916206
0.19739
-0.12709
0.0880203
0.0390695
-0.364354
0.354027
-0.071478
0.0818046
-0.446654
0.454252
-0.0791743
0.0715765
-0.521011
0.529107
-0.0637264
0.0556311
-0.612991
0.620758
-0.0482462
0.0404783
-0.727163
0.733683
-0.0338671
0.0273467
-0.86758
0.872431
-0.0221432
0.0172914
-1.03856
1.0419
-0.0135928
0.0102527
-1.24472
1.24712
-0.0077014
0.00529536
-1.49284
1.49485
-0.00333101
0.00131613
-1.49269
1.49451
0.00050467
-0.00232501
-1.24411
1.24602
0.00429828
-0.00620917
-1.03761
1.04009
0.00854507
-0.0110259
-0.866187
0.869818
0.0142869
-0.0179177
-0.724594
0.72975
0.0227061
-0.027862
-0.609065
0.615635
0.0343372
-0.0409075
-0.515124
0.52246
0.0486279
-0.055964
-0.43988
0.447659
0.0639873
-0.0717667
-0.374708
0.377355
0.0792645
-0.0819113
-0.256898
0.224437
0.0715614
-0.0391004
-0.0688083
0.059195
0.00961326
-0.0521154
0.0589442
-0.374835
0.368006
-0.0580993
0.0542596
-0.453945
0.457784
-0.0487752
0.0442181
-0.527616
0.532173
-0.0396703
0.0357757
-0.6208
0.624694
-0.0315636
0.027569
-0.734657
0.738652
-0.0232124
0.0193248
-0.873953
0.87784
-0.0152791
0.0118216
-1.04336
1.04682
-0.00830176
0.00526883
-1.24865
1.25168
-0.00206039
-0.000921454
-1.49694
1.49993
0.00388218
-0.00703089
-1.49742
1.50057
0.00997662
-0.0133793
-1.25007
1.25347
0.0167189
-0.0206305
-1.04565
1.04956
0.0244
-0.0286392
-0.877137
0.881376
0.0325394
-0.036659
-0.738982
0.743102
0.0404769
-0.0449493
-0.625971
0.630443
0.0494438
-0.0548671
-0.535016
0.54044
0.0586363
-0.0593973
-0.458076
0.458837
0.052452
-0.0320641
-0.336765
0.316377
0.00967325
-0.0686636
0.0589904
-0.0534052
0.0492928
0.00411237
-0.0332492
0.0436758
-0.358559
0.348132
-0.0473546
0.0467705
-0.459577
0.460162
-0.0438453
0.0406358
-0.53613
0.53934
-0.0369616
0.0336086
-0.628393
0.631746
-0.0299759
0.0267352
-0.74203
0.745271
-0.0232825
0.0200849
-0.881333
0.88453
-0.0164921
0.0131412
-1.05024
1.05359
-0.00944316
0.00603889
-1.25494
1.25835
-0.0022477
-0.00136948
-1.50328
1.50689
0.00495566
-0.00865712
-1.50407
1.50777
0.0119395
-0.0154734
-1.25703
1.26056
0.0186585
-0.0220616
-1.05327
1.05667
0.0250912
-0.0283757
-0.884984
0.888268
0.0314798
-0.0349788
-0.746784
0.750283
0.0382191
-0.0417764
-0.634563
0.638121
0.0448849
-0.0476966
-0.544583
0.547395
0.0481633
-0.0443211
-0.456954
0.453111
0.0336938
-0.0163795
-0.29706
0.279745
0.00417871
-0.0531406
0.0489619
-0.0461229
0.0435664
0.00255651
-0.0230538
0.0334068
-0.337539
0.327186
-0.0391442
0.040096
-0.459912
0.45896
-0.0388479
0.0365222
-0.541997
0.544323
-0.0338824
0.0313376
-0.634712
0.637257
-0.0283619
0.0255148
-0.748354
0.751201
-0.0222777
0.0192647
-0.887583
0.890596
-0.0159149
0.0127826
-1.05677
1.0599
-0.00922791
0.00582953
-1.26174
1.26514
-0.00192059
-0.00187586
-1.51062
1.51442
0.00563271
-0.00942208
-1.51155
1.51534
0.0126604
-0.0160012
-1.26402
1.26736
0.0189172
-0.0220193
-1.05987
1.06297
0.024809
-0.0278166
-0.891463
0.89447
0.0304749
-0.0332658
-0.753462
0.756253
0.035657
-0.0381415
-0.641074
0.643558
0.0403346
-0.041407
-0.549231
0.550303
0.0402731
-0.0342695
-0.447987
0.441984
0.0236241
-0.0103751
-0.264558
0.251309
0.00263868
-0.045718
0.0430794
-0.0414475
0.0396462
0.00180133
-0.0169517
0.0262409
-0.317315
0.308026
-0.0328412
0.0349649
-0.457399
0.455276
-0.0345335
0.0328367
-0.546352
0.548049
-0.0306107
0.0284837
-0.639567
0.641694
-0.0260467
0.0236684
-0.753799
0.756177
-0.0208534
0.0181071
-0.89345
0.896196
-0.014924
0.0118913
-1.06294
1.06597
-0.00842865
0.00511532
-1.26846
1.27177
-0.0012779
-0.00246777
-1.51819
1.52193
0.00616308
-0.00985039
-1.51908
1.52277
0.0129603
-0.0161504
-1.27064
1.27383
0.0189071
-0.0217729
-1.066
1.06886
0.0242312
-0.0267491
-0.897255
0.899773
0.0288833
-0.0310822
-0.758693
0.760892
0.0330125
-0.0350382
-0.645783
0.647809
0.0365417
-0.0367343
-0.550884
0.551076
0.0343309
-0.0273422
-0.435393
0.428404
0.0176621
-0.0074745
-0.239733
0.229546
0.00190172
-0.04087
0.0389683
-0.0380958
0.0367432
0.00135256
-0.0129534
0.0209566
-0.299384
0.29138
-0.027729
0.0306546
-0.452721
0.449795
-0.0308642
0.0297411
-0.549487
0.55061
-0.0277427
0.0258169
-0.643751
0.645676
-0.0236059
0.0214654
-0.758418
0.760558
-0.0189588
0.0164922
-0.898742
0.901209
-0.0135745
0.0107215
-1.06887
1.07172
-0.007395
0.00418198
-1.275
1.27821
-0.000453529
-0.00317304
-1.5256
1.52922
0.00673665
-0.0102772
-1.52638
1.52992
0.0132368
-0.0162229
-1.27694
1.27993
0.01873
-0.02125
-1.07158
1.0741
0.0233565
-0.0254901
-0.902085
0.904219
0.0273206
-0.0292271
-0.762937
0.764843
0.0309042
-0.032664
-0.649676
0.651436
0.033505
-0.0329614
-0.550904
0.550361
0.0296358
-0.022332
-0.421201
0.413897
0.0138279
-0.00577196
-0.220525
0.212469
0.00147502
-0.0373075
0.0358325
-0.0355614
0.0345192
0.00104222
-0.0101296
0.0169085
-0.284014
0.277235
-0.0234325
0.0268228
-0.446618
0.443227
-0.0276125
0.0269244
-0.551508
0.552196
-0.0251635
0.0233851
-0.647569
0.649348
-0.0213283
0.0193267
-0.762629
0.76463
-0.0169701
0.0146561
-0.903533
0.905847
-0.0119333
0.00926276
-1.07441
1.07708
-0.00612019
0.00305198
-1.28131
1.28438
0.000533222
-0.00402124
-1.53275
1.53624
0.00743212
-0.010785
-1.53336
1.53672
0.0135396
-0.0162606
-1.2828
1.28552
0.0185041
-0.0207353
-1.07649
1.07872
0.0226023
-0.0244956
-0.906246
0.908139
0.0261133
-0.0277934
-0.766637
0.768317
0.0292647
-0.0306967
-0.653046
0.654478
0.0310311
-0.0297716
-0.54947
0.548211
0.0258303
-0.0186076
-0.406609
0.399386
0.0112005
-0.00464247
-0.205233
0.198675
0.00119126
-0.0345168
0.0333255
-0.033603
0.03279
0.000813021
-0.00803866
0.0137453
-0.271021
0.265315
-0.0197955
0.0233939
-0.439722
0.436123
-0.02467
0.0242338
-0.552791
0.553227
-0.0227498
0.021085
-0.651123
0.652788
-0.0191285
0.01722
-0.766585
0.768493
-0.014969
0.0127558
-0.908045
0.910259
-0.0101478
0.00759693
-1.07962
1.08217
-0.00460628
0.00168484
-1.28732
1.29024
0.00172941
-0.00504693
-1.53962
1.54293
0.0082709
-0.0114017
-1.53995
1.54308
0.0139386
-0.0164145
-1.28813
1.29061
0.0184419
-0.0204454
-1.08087
1.08287
0.0221084
-0.023788
-0.909948
0.911627
0.0252228
-0.0267138
-0.769907
0.771398
0.0279962
-0.0290591
-0.655698
0.656761
0.0290303
-0.0271107
-0.546624
0.544704
0.0227792
-0.0158342
-0.392298
0.385353
0.00934769
-0.00385871
-0.192703
0.187214
0.000994207
-0.0322465
0.0312523
-0.0320745
0.0314381
0.000636363
-0.00642992
0.0112208
-0.260093
0.255302
-0.0166901
0.0203008
-0.432517
0.428906
-0.0219126
0.0217098
-0.553585
0.553788
-0.0204666
0.0188683
-0.654473
0.656071
-0.0169745
0.0151223
-0.770371
0.772223
-0.0129385
0.0107923
-0.912362
0.914508
-0.00826413
0.0057944
-1.0846
1.08707
-0.00290763
0.000107984
-1.29305
1.29585
0.00315207
-0.00629592
-1.54613
1.54927
0.0093232
-0.0122342
-1.54608
1.54899
0.0145733
-0.0168371
-1.29299
1.29526
0.0186715
-0.0204635
-1.08481
1.0866
0.021936
-0.0234183
-0.913236
0.914719
0.0246879
-0.026006
-0.772817
0.774135
0.0271415
-0.0277969
-0.657599
0.658255
0.0274062
-0.0249386
-0.542524
0.540057
0.0203746
-0.0137783
-0.378592
0.371996
0.00802622
-0.00330752
-0.18215
0.177432
0.000856404
-0.030339
0.0294826
-0.0308811
0.0303875
0.000493615
-0.00513772
0.00913952
-0.250931
0.246929
-0.0139822
0.0174557
-0.425371
0.421897
-0.0192632
0.0192607
-0.553936
0.553939
-0.0182248
0.0166688
-0.657719
0.659275
-0.014806
0.012976
-0.774058
0.775888
-0.0108185
0.00870421
-0.916551
0.918666
-0.00622429
0.00381275
-1.08942
1.09183
-0.00100397
-0.00170598
-1.29853
1.30124
0.00483301
-0.00782012
-1.55229
1.55528
0.010666
-0.0133711
-1.55178
1.55449
0.015517
-0.0175649
-1.29743
1.29948
0.0192021
-0.0207832
-1.08833
1.08992
0.0220744
-0.0233796
-0.916142
0.917447
0.0245051
-0.0256688
-0.775385
0.776549
0.0266203
-0.0269087
-0.658701
0.65899
0.0261358
-0.0232121
-0.537371
0.534447
0.0185205
-0.0122716
-0.365594
0.359345
0.00708751
-0.00292277
-0.173025
0.16886
0.000761712
-0.0286853
0.0279236
-0.029961
0.0295876
0.000373357
-0.00405812
0.00736796
-0.243296
0.239986
-0.0115725
0.0147992
-0.418562
0.415335
-0.0166765
0.016836
-0.553915
0.553755
-0.01589
0.0144121
-0.660873
0.662351
-0.0125516
0.0107134
-0.777711
0.779549
-0.0085491
0.00643667
-0.920679
0.922791
-0.00397181
0.00158663
-1.09413
1.09651
0.00116973
-0.00381213
-1.30385
1.3065
0.00683057
-0.00967799
-1.55815
1.561
0.0123548
-0.0148631
-1.55707
1.55958
0.0168241
-0.0186678
-1.30144
1.30329
0.0201201
-0.0215001
-1.09146
1.09284
0.0226115
-0.0237353
-0.918702
0.919826
0.0247113
-0.0257096
-0.777648
0.778646
0.0264161
-0.0264071
-0.659134
0.659125
0.0252373
-0.0219167
-0.531335
0.528014
0.0171483
-0.0111992
-0.353276
0.347326
0.00643799
-0.00266302
-0.164923
0.161148
0.000699714
-0.0272051
0.0265054
-0.0292739
0.0290074
0.000266544
-0.00311458
0.0058008
-0.237009
0.234323
-0.00936698
0.0122636
-0.412294
0.409397
-0.0140989
0.0143546
-0.553608
0.553352
-0.0134661
0.0120468
-0.663889
0.665308
-0.0101748
0.00830411
-0.781386
0.783256
-0.00609847
0.00395201
-0.924806
0.926953
-0.00145978
-0.000929162
-1.09879
1.10118
0.00367438
-0.00627835
-1.30904
1.31164
0.0092181
-0.011952
-1.56373
1.56647
0.0144785
-0.0167982
-1.56196
1.56428
0.0185741
-0.0202086
-1.30504
1.30667
0.0214701
-0.0226438
-1.09419
1.09536
0.023575
-0.0245222
-0.920912
0.921859
0.0253537
-0.0261787
-0.779565
0.78039
0.0266119
-0.0263476
-0.65898
0.658716
0.024744
-0.021044
-0.524526
0.520826
0.0162071
-0.0104837
-0.34153
0.335807
0.00601809
-0.00250204
-0.157537
0.154021
0.000663788
-0.0258368
0.025173
-0.0287971
0.0286318
0.000165338
-0.00224245
0.00434358
-0.231949
0.229848
-0.00726578
0.00976097
-0.406726
0.40423
-0.0114442
0.0117145
-0.55316
0.552889
-0.0108468
0.00944415
-0.666824
0.668227
-0.00753008
0.00559549
-0.785131
0.787065
-0.00331482
0.00110616
-0.928997
0.931206
0.00143986
-0.00386634
-1.10347
1.10589
0.00662516
-0.00921454
-1.31415
1.31674
0.0120967
-0.0147283
-1.56909
1.57172
0.0171095
-0.0192429
-1.56647
1.56861
0.0208353
-0.0222581
-1.30822
1.30964
0.023321
-0.0242694
-1.09652
1.09746
0.0249969
-0.0257454
-0.922762
0.92351
0.0264184
-0.0270965
-0.781125
0.781803
0.0272333
-0.0266234
-0.658227
0.657617
0.0246051
-0.0205536
-0.516994
0.512942
0.0156383
-0.0100592
-0.330205
0.324626
0.00578051
-0.00241883
-0.150617
0.147256
0.000648319
-0.0245314
0.0238831
-0.0285223
0.028459
6.33363e-05
-0.00139244
0.00292312
-0.22805
0.226519
-0.00518772
0.00721952
-0.401993
0.399961
-0.00865101
0.00885797
-0.552738
0.552531
-0.00796828
0.00654833
-0.669765
0.671185
-0.00455544
0.0025287
-0.789006
0.791032
-0.000139521
-0.0021671
-0.933308
0.935614
0.00480878
-0.00730831
-1.10822
1.11072
0.0101208
-0.0127248
-1.31924
1.32184
0.0155724
-0.0181141
-1.57425
1.57679
0.0203525
-0.0222941
-1.57061
1.57255
0.0236936
-0.0248943
-1.31096
1.31216
0.0257517
-0.0264707
-1.09841
1.09913
0.0269819
-0.0275116
-0.924227
0.924756
0.02802
-0.0285038
-0.782335
0.782819
0.0283536
-0.0273443
-0.65675
0.65574
0.0248863
-0.0204577
-0.50877
0.504342
0.0154193
-0.00989073
-0.319134
0.313606
0.00569942
-0.0024024
-0.143967
0.14067
0.000650734
-0.02325
0.0225993
-0.0284518
0.0284972
-4.53424e-05
-0.000517503
0.00147214
-0.225293
0.224338
-0.00305023
0.00455175
-0.398222
0.39672
-0.00562691
0.0056883
-0.552502
0.552441
-0.00472694
0.00324397
-0.672783
0.674266
-0.00114879
-0.00100433
-0.793064
0.795217
0.00354619
-0.00598787
-0.937818
0.940259
0.00876904
-0.0113776
-1.11313
1.11574
0.0142808
-0.0169312
-1.32436
1.32701
0.0197757
-0.0222498
-1.57922
1.5817
0.0243572
-0.0261063
-1.57435
1.5761
0.027303
-0.0282638
-1.31324
1.31421
0.0288934
-0.0293575
-1.09985
1.10031
0.0296364
-0.0299282
-0.925266
0.925558
0.0302424
-0.0304571
-0.783034
0.783248
0.03004
-0.0285434
-0.654451
0.652954
0.0256041
-0.020764
-0.499812
0.494972
0.015543
-0.00996403
-0.308128
0.302549
0.00576373
-0.00244775
-0.137409
0.134093
0.00066962
-0.0219577
0.0212881
-0.0285974
0.0287584
-0.000161038
0.000406598
-5.86023e-05
-0.223704
0.223356
-0.000782854
0.00167258
-0.39554
0.394651
-0.00228351
0.00210701
-0.552631
0.552807
-0.00100786
-0.000611342
-0.675988
0.677607
0.00287086
-0.00519959
-0.797381
0.79971
0.00793956
-0.0105559
-0.942599
0.945215
0.0135153
-0.0162677
-1.11826
1.12101
0.0192972
-0.0220203
-1.32958
1.3323
0.0248788
-0.0272869
-1.58406
1.58647
0.0292515
-0.0307853
-1.5777
1.57923
0.0317561
-0.0324427
-1.31503
1.31571
0.0328196
-0.0330131
-1.10077
1.10096
0.0330433
-0.033077
-0.92583
0.925864
0.0331833
-0.0330809
-0.783101
0.782999
0.0323355
-0.0302698
-0.651204
0.649139
0.0268001
-0.0214868
-0.49004
0.484727
0.0160026
-0.0102645
-0.296981
0.291243
0.00596181
-0.00254918
-0.13078
0.127367
0.000703285
-0.0206223
0.019919
-0.0289988
0.0292992
-0.000300407
0.00139889
-0.00170188
-0.223368
0.223671
0.00170167
-0.0015298
-0.39408
0.393908
0.00150965
-0.00202579
-0.553338
0.553854
0.00334399
-0.00514913
-0.679525
0.68133
0.00762236
-0.0101709
-0.802046
0.804595
0.013162
-0.0160052
-0.947731
0.950574
0.019202
-0.0221487
-1.12368
1.12662
0.0253497
-0.0281753
-1.33494
1.33777
0.0310677
-0.0334159
-1.58876
1.5911
0.0352306
-0.0365233
-1.58059
1.58188
0.0372459
-0.0376268
-1.31624
1.31662
0.0377219
-0.0376101
-1.10111
1.101
0.0373616
-0.0371116
-0.925852
0.925602
0.0369998
-0.0364724
-0.782434
0.781907
0.0353114
-0.0325931
-0.646882
0.644163
0.0285197
-0.0226468
-0.479321
0.473448
0.0168023
-0.0107883
-0.285473
0.279459
0.0062887
-0.00270367
-0.123926
0.12034
0.000750663
-0.0192148
0.0184641
-0.0296715
0.0301482
-0.000476719
0.00268258
-0.0037312
-0.224358
0.225407
0.00460166
-0.00522618
-0.394061
0.394686
0.00592286
-0.00688186
-0.554857
0.555816
0.00848809
-0.0105342
-0.683488
0.685534
0.0132891
-0.0161237
-0.807151
0.809986
0.019442
-0.0225805
-0.953327
0.956466
0.026082
-0.0292743
-1.12949
1.13269
0.032691
-0.0356464
-1.34051
1.34347
0.0385842
-0.040862
-1.59332
1.5956
0.0424965
-0.0435111
-1.58297
1.58398
0.0439276
-0.0439745
-1.31681
1.31686
0.0437564
-0.0433073
-1.10078
1.10033
0.0427504
-0.0421793
-0.925248
0.924677
0.0417606
-0.040773
-0.780862
0.779875
0.0390694
-0.0355986
-0.641312
0.637841
0.0308228
-0.024276
-0.467473
0.460926
0.0179543
-0.0115362
-0.273367
0.266949
0.00674224
-0.00290935
-0.116696
0.112863
0.000811012
-0.0177084
0.0168974
-0.0306955
0.03139
-0.000694468
0.00417011
-0.00610766
-0.226876
0.228813
0.00804732
-0.0095715
-0.395706
0.39723
0.0110916
-0.0126304
-0.557435
0.558974
0.0146783
-0.0170703
-0.688022
0.690414
0.0202261
-0.0234293
-0.812836
0.816039
0.0271507
-0.0306425
-0.959517
0.963009
0.0345026
-0.0379816
-1.1358
1.13928
0.0416469
-0.0447452
-1.34633
1.34943
0.0477178
-0.0498907
-1.59772
1.59989
0.0512943
-0.0519738
-1.58476
1.58544
0.0520211
-0.0516839
-1.31666
1.31632
0.0511027
-0.0502695
-1.09969
1.09886
0.0493671
-0.048428
-0.923937
0.922998
0.0475982
-0.0461172
-0.778333
0.776852
0.0437435
-0.0393955
-0.634279
0.629931
0.0337858
-0.026412
-0.454254
0.44688
0.0194721
-0.0125086
-0.260405
0.253441
0.00731835
-0.00316236
-0.108941
0.104785
0.000882588
-0.0160784
0.0151958
-0.0321511
0.0331314
-0.000980339
0.00604401
-0.00904146
-0.231176
0.234174
0.0122315
-0.0148121
-0.399272
0.401853
0.0173006
-0.0195414
-0.561365
0.563606
0.0221716
-0.0250376
-0.693349
0.696215
0.0287082
-0.0323793
-0.819266
0.822937
0.0366022
-0.0405302
-0.966422
0.97035
0.0448292
-0.0486498
-1.14269
1.14651
0.052596
-0.055838
-1.35242
1.35566
0.0588156
-0.0608277
-1.60187
1.60388
0.0619274
-0.0621817
-1.58584
1.58609
0.0618032
-0.0609816
-1.31564
1.31482
0.0599685
-0.0586788
-1.09773
1.09645
0.0573758
-0.0560417
-0.921821
0.920487
0.0547021
-0.0526347
-0.774781
0.772714
0.0494678
-0.0440687
-0.625506
0.620107
0.037455
-0.0290701
-0.439359
0.430975
0.0213519
-0.0136912
-0.246303
0.238643
0.00800213
-0.00345294
-0.100515
0.0959658
0.000961607
-0.0143043
0.0133427
-0.0341662
0.0355364
-0.00137011
0.0084922
-0.0128425
-0.237586
0.241937
0.0175188
-0.0213349
-0.40513
0.408946
0.0249582
-0.0280433
-0.56696
0.570045
0.0314157
-0.0348925
-0.699723
0.703199
0.0392266
-0.0434901
-0.826637
0.830901
0.048338
-0.0527969
-0.974221
0.97868
0.057607
-0.0617999
-1.15026
1.15445
0.0660209
-0.0693679
-1.35876
1.36211
0.0722738
-0.0740289
-1.60564
1.60739
0.0747126
-0.0744217
-1.58599
1.5857
0.0735286
-0.0721057
-1.31353
1.31211
0.0705981
-0.0687866
-1.09476
1.09294
0.0670331
-0.0652329
-0.918801
0.917
0.0632813
-0.0604997
-0.770004
0.767223
0.0563592
-0.0496933
-0.614641
0.607975
0.0418678
-0.0322488
-0.422424
0.412805
0.0235703
-0.0150528
-0.230765
0.222248
0.00876648
-0.00376532
-0.0912842
0.0862831
0.00104248
-0.0123741
0.0113316
-0.0369368
0.038866
-0.00192929
0.0118962
-0.0179495
-0.246631
0.252685
0.0244276
-0.0296977
-0.413767
0.419037
0.0346747
-0.0388036
-0.574605
0.578733
0.0431457
-0.0474496
-0.707453
0.711757
0.0526556
-0.0576552
-0.8352
0.8402
0.0632348
-0.0682763
-0.983086
0.988127
0.0736054
-0.0781346
-1.15854
1.16307
0.082544
-0.0858746
-1.36524
1.36857
0.0885331
-0.08984
-1.60878
1.61009
0.0899219
-0.0889098
-1.58495
1.58394
0.087347
-0.0852325
-1.31014
1.30803
0.0831424
-0.0807725
-1.0906
1.08823
0.078544
-0.076138
-0.914713
0.912307
0.0735684
-0.0698484
-0.763678
0.759958
0.0645196
-0.0563159
-0.601232
0.593029
0.0470216
-0.0359059
-0.40301
0.391894
0.0260659
-0.0165313
-0.213485
0.203951
0.00956306
-0.00407377
-0.0811456
0.0756563
0.00111691
-0.0102881
0.00917115
-0.0407872
0.0435824
-0.00279522
0.0168211
-0.0251248
-0.259018
0.267321
0.0338391
-0.0408596
-0.425854
0.432875
0.047479
-0.0528759
-0.584803
0.5902
0.058455
-0.0638408
-0.71699
0.722376
0.0701352
-0.0759878
-0.845219
0.851072
0.0823473
-0.087949
-0.993087
0.998688
0.0937088
-0.0984394
-1.1674
1.17213
0.102836
-0.10593
-1.37156
1.37466
0.10807
-0.108669
-1.6109
1.6115
0.107904
-0.105942
-1.58237
1.58041
0.103538
-0.100562
-1.30526
1.30228
0.0977789
-0.0947683
-1.08512
1.08211
0.0920098
-0.0889212
-0.909232
0.906144
0.0856833
-0.0808004
-0.755327
0.750444
0.0739948
-0.0639136
-0.5847
0.574619
0.0528463
-0.0399354
-0.380614
0.367703
0.0287176
-0.0180155
-0.194179
0.183477
0.0103097
-0.00433593
-0.0700546
0.0640808
0.00117118
-0.00806589
0.00689471
-0.0462889
0.0505463
-0.00425737
0.0244698
-0.0358356
-0.275908
0.287274
0.0474442
-0.0567774
-0.442402
0.451735
0.0653893
-0.0722288
-0.598141
0.60498
0.079305
-0.0861476
-0.728717
0.73556
0.0935858
-0.100221
-0.856888
0.863523
0.107219
-0.113191
-1.00412
1.01009
0.119094
-0.123707
-1.17651
1.18113
0.127692
-0.130163
-1.37721
1.37968
0.131355
-0.130862
-1.61139
1.6109
0.128914
-0.125731
-1.57773
1.57455
0.122307
-0.118317
-1.29856
1.29457
0.114723
-0.110966
-1.07815
1.07439
0.107624
-0.103727
-0.902126
0.898229
0.0996494
-0.0932739
-0.744443
0.738068
0.0846436
-0.0722983
-0.564312
0.551967
0.0591323
-0.0441273
-0.354676
0.339671
0.0313277
-0.0193436
-0.172628
0.160644
0.0108914
-0.004494
-0.0580693
0.0516719
0.00118613
-0.00575577
0.00456964
-0.0545042
0.0618288
-0.00732466
0.0379182
-0.0537458
-0.299438
0.315265
0.0694
-0.0819052
-0.46504
0.477545
0.0926603
-0.100842
-0.615029
0.623211
0.10941
-0.117477
-0.742988
0.751055
0.125788
-0.132804
-0.869941
0.876957
0.139871
-0.145617
-1.01562
1.02137
0.150986
-0.154841
-1.18507
1.18892
0.157745
-0.158979
-1.38129
1.38253
0.158634
-0.156572
-1.60941
1.60735
0.153071
-0.148377
-1.57049
1.5658
0.143705
-0.13852
-1.28975
1.28457
0.133992
-0.129412
-1.0695
1.06492
0.12541
-0.120696
-0.893134
0.88842
0.115393
-0.107088
-0.730314
0.722008
0.0961823
-0.0810748
-0.539149
0.524041
0.0654766
-0.0481764
-0.324619
0.307319
0.0336824
-0.0203986
-0.148763
0.135479
0.0112442
-0.00452274
-0.0454124
0.038691
0.00114864
-0.00344404
0.0022954
-0.0686736
0.0727856
-0.00411192
0.0290725
-0.0427775
-0.333595
0.3473
0.0566292
-0.0680449
-0.495204
0.50662
0.0782072
-0.0876655
-0.635057
0.644516
0.0981552
-0.107651
-0.758722
0.768218
0.118139
-0.127438
-0.883111
0.892411
0.137272
-0.145931
-1.02616
1.03482
0.154828
-0.162282
-1.19166
1.19911
0.169419
-0.174777
-1.38255
1.38791
0.179
-0.180994
-1.604
1.606
0.18071
-0.178686
-1.55999
1.55797
0.175642
-0.171557
-1.27844
1.27436
0.167829
-0.163507
-1.05898
1.05466
0.159821
-0.154994
-0.881907
0.877081
0.148011
-0.136101
-0.71191
0.7
0.12016
-0.0988742
-0.508139
0.486853
0.0778507
-0.0552842
-0.289872
0.267306
0.0373496
-0.0217578
-0.122802
0.10721
0.011556
-0.0044838
-0.0325525
0.0254803
0.00110965
-0.00125065
0.000140999
-0.0799092
0.0780927
0.00181652
0.00748035
-0.0165049
-0.363844
0.372868
0.0270082
-0.0350676
-0.522754
0.530813
0.0431888
-0.0512126
-0.65638
0.664404
0.0608862
-0.0697973
-0.777396
0.786307
0.0792022
-0.0877494
-0.901166
0.909714
0.0967474
-0.104328
-1.04317
1.05075
0.112288
-0.118575
-1.20634
1.21263
0.124496
-0.128591
-1.39289
1.39699
0.131124
-0.131588
-1.60705
1.60751
0.129755
-0.126148
-1.55504
1.55143
0.121523
-0.115753
-1.26958
1.26381
0.110378
-0.104413
-1.04857
1.04261
0.098921
-0.0924684
-0.867571
0.861118
0.0853735
-0.0750463
-0.684146
0.673819
0.0632042
-0.0489603
-0.464039
0.449795
0.0362475
-0.0241495
-0.244943
0.232845
0.0155043
-0.00865113
-0.0924796
0.0856264
0.00448353
-0.00172121
-0.0188557
0.0160934
0.000390234
0.000934479
-0.00132471
-0.0813693
0.0785069
0.00286234
-0.00165343
-0.00359575
-0.384261
0.389511
0.0107462
-0.0165971
-0.54306
0.548911
0.0226475
-0.0296205
-0.674448
0.681421
0.0379754
-0.045708
-0.794356
0.802089
0.0541006
-0.061566
-0.91753
0.924996
0.0691761
-0.0759344
-1.05815
1.0649
0.0828026
-0.0882832
-1.21846
1.22394
0.0929467
-0.0958702
-1.40036
1.40328
0.0974178
-0.0967414
-1.60715
1.60647
0.0937845
-0.0890572
-1.54704
1.54232
0.0835555
-0.0770857
-1.25769
1.25122
0.070711
-0.0638664
-1.03543
1.02858
0.0575166
-0.0502771
-0.851644
0.844405
0.0434192
-0.0347822
-0.659942
0.651305
0.0261946
-0.0172537
-0.43366
0.42472
0.0108539
-0.00608999
-0.220045
0.215281
0.00345211
-0.00184767
-0.07864
0.0770356
0.00102367
-0.00047205
-0.0132258
0.0126742
6.40594e-05
0.00187034
-0.0019344
-0.0801482
0.0774498
0.00269833
-0.005226
0.00268426
-0.397891
0.400433
0.00193238
-0.00636726
-0.558088
0.562523
0.0114788
-0.0173128
-0.689355
0.695189
0.0244584
-0.0310929
-0.809206
0.815841
0.0382822
-0.0447025
-0.931952
0.938372
0.0516222
-0.0573529
-1.07123
1.07696
0.0633425
-0.0676392
-1.22899
1.23328
0.071528
-0.0737871
-1.40594
1.4082
0.0744872
-0.0728979
-1.60528
1.60369
0.0695041
-0.0644047
-1.53697
1.53187
0.058579
-0.0513874
-1.2444
1.23721
0.044621
-0.0372201
-1.02075
1.01335
0.0302025
-0.0228788
-0.834774
0.82745
0.0162892
-0.00929991
-0.639596
0.632607
0.00330783
0.00133068
-0.414408
0.409769
-0.00338393
0.00383663
-0.208506
0.208054
-0.00334383
0.00222773
-0.0743553
0.0754714
-0.00127416
0.000472398
-0.0117358
0.0125375
-0.00020499
0.00227318
-0.00206819
-0.0786918
0.0763077
0.00238415
-0.00632259
0.00536187
-0.407005
0.407966
-0.00196158
-0.00128151
-0.570138
0.573381
0.00544425
-0.0107358
-0.701853
0.707145
0.0167513
-0.0225884
-0.821786
0.827623
0.0288303
-0.0344172
-0.944356
0.949943
0.0403565
-0.0454571
-1.08256
1.08766
0.0505096
-0.0544392
-1.23743
1.24136
0.0577045
-0.0594658
-1.41008
1.41184
0.0597108
-0.0577847
-1.60192
1.59999
0.0541429
-0.0486503
-1.52608
1.52058
0.0426869
-0.0355087
-1.22991
1.22273
0.0286195
-0.0208985
-1.00526
0.997536
0.0138627
-0.00647235
-0.818075
0.810685
0.000306359
0.00525145
-0.622841
0.617283
-0.00926133
0.011442
-0.40268
0.400499
-0.0113402
0.00967836
-0.205
0.206662
-0.007556
0.00504716
-0.0756191
0.0781279
-0.00297211
0.00122575
-0.0130326
0.0147789
-0.000374044
0.00210346
-0.00172941
-0.0773506
0.0753131
0.0020375
-0.00618268
0.0057126
-0.413293
0.413764
-0.00368234
0.00107047
-0.579457
0.582069
0.00302694
-0.0075612
-0.712461
0.716996
0.0127513
-0.0178344
-0.832677
0.83776
0.0234024
-0.0284074
-0.955192
0.960197
0.0338494
-0.0383188
-1.09248
1.09695
0.0428649
-0.0463951
-1.245
1.24853
0.0492402
-0.0506906
-1.41334
1.41479
0.0506544
-0.048911
-1.59795
1.59621
0.0451294
-0.039752
-1.51463
1.50925
0.0338142
-0.0267309
-1.21536
1.20828
0.0202224
-0.0126191
-0.98954
0.981937
0.00577
0.0012183
-0.802072
0.795084
-0.00688361
0.0116063
-0.608895
0.604172
-0.0146196
0.015955
-0.395408
0.394073
-0.014853
0.0122837
-0.205734
0.208303
-0.00961232
0.00649183
-0.0797298
0.0828502
-0.00388584
0.00167277
-0.0161825
0.0183955
-0.000471754
0.00147885
-0.0010071
-0.0763479
0.0747655
0.00158239
-0.00529688
0.00514786
-0.418004
0.418153
-0.00350608
0.00152191
-0.587603
0.589587
0.0023354
-0.00644626
-0.721671
0.725782
0.0113868
-0.0157794
-0.842448
0.846841
0.0206851
-0.0251323
-0.965175
0.969622
0.0303079
-0.0343813
-1.10146
1.10553
0.0384331
-0.0417926
-1.25188
1.25524
0.0448132
-0.0461343
-1.41626
1.41758
0.0461699
-0.0443956
-1.59407
1.5923
0.0410639
-0.0357223
-1.50371
1.49836
0.0302963
-0.0238284
-1.20115
1.19468
0.0176376
-0.0107092
-0.974404
0.967476
0.00420919
0.00257514
-0.78703
0.780246
-0.00769672
0.012155
-0.596451
0.591992
-0.0148446
0.0158928
-0.390103
0.389055
-0.0150304
0.012658
-0.208138
0.21051
-0.00997382
0.00680327
-0.0849987
0.0881692
-0.00412438
0.00181335
-0.0201007
0.0224118
-0.000497245
0.000623444
-0.000126199
-0.0758487
0.074611
0.00123761
-0.0042243
0.00419632
-0.421778
0.421806
-0.00274257
0.000849356
-0.594719
0.596613
0.00287769
-0.00656602
-0.72997
0.733659
0.0108156
-0.0150629
-0.851171
0.855418
0.0196043
-0.0241956
-0.97388
0.978471
0.028662
-0.0325725
-1.1097
1.11361
0.0367794
-0.0399264
-1.25849
1.26164
0.0425115
-0.044282
-1.41882
1.42059
0.044553
-0.0431514
-1.59061
1.58921
0.0401336
-0.0355817
-1.49334
1.48879
0.0306921
-0.0247711
-1.18807
1.18215
0.019118
-0.0126142
-0.960441
0.953937
0.00651724
-0.000249827
-0.772902
0.766635
-0.0048342
0.00908799
-0.584937
0.580684
-0.0114737
0.0128199
-0.385529
0.384183
-0.0125439
0.0106888
-0.210308
0.212164
-0.00853905
0.00590591
-0.0900141
0.0926472
-0.00363922
0.00163851
-0.0239898
0.0259906
-0.000469382
-0.000284582
0.000753964
-0.0758752
0.0748471
0.00102813
-0.00295926
0.00269365
-0.425178
0.425444
-0.00145284
-0.00047572
-0.601244
0.603173
0.00394567
-0.00751354
-0.73771
0.741278
0.0115992
-0.0154505
-0.85944
0.863292
0.0201148
-0.0239335
-0.982492
0.986311
0.0283862
-0.0321392
-1.11768
1.12143
0.0362622
-0.0396341
-1.26478
1.26815
0.0425415
-0.0441436
-1.42214
1.42374
0.044833
-0.0439475
-1.5878
1.58691
0.0417129
-0.0376249
-1.48424
1.48015
0.0332774
-0.0278266
-1.17642
1.17097
0.0226047
-0.0165013
-0.947247
0.941143
0.0109872
-0.00511973
-0.759817
0.75395
0.000178926
0.00412037
-0.574361
0.570062
-0.0067741
0.00817271
-0.380458
0.379059
-0.00851537
0.00753018
-0.211495
0.21248
-0.00616823
0.00434283
-0.0938703
0.0956957
-0.00272312
0.00127387
-0.027132
0.0285812
-0.000384784
-0.00105652
0.00144131
-0.0761826
0.0754716
0.00071104
-0.00182101
0.00114179
-0.428682
0.429361
-0.000113706
-0.00210594
-0.606982
0.609201
0.00520457
-0.00863441
-0.744934
0.748364
0.0125548
-0.0165381
-0.866992
0.870975
0.0205978
-0.0245889
-0.990337
0.994328
0.0290255
-0.0325968
-1.12562
1.12919
0.0368379
-0.0401934
-1.27133
1.27469
0.0431989
-0.045376
-1.42577
1.42795
0.0466299
-0.0461192
-1.58612
1.58561
0.0442086
-0.0408612
-1.47629
1.47294
0.0370467
-0.0319635
-1.16544
1.16036
0.0270612
-0.0216977
-0.93504
0.929677
0.0163752
-0.0111615
-0.747633
0.742419
0.00649637
-0.00188934
-0.564307
0.5597
-0.00112076
0.00310506
-0.374853
0.372868
-0.0038868
0.00384557
-0.211387
0.211428
-0.00325701
0.00236444
-0.0960685
0.0969611
-0.0015642
0.000776875
-0.0291605
0.0299479
-0.000253926
-0.00161832
0.00187224
-0.0769074
0.0763526
0.000554802
-0.000857873
0.000293544
-0.432414
0.432978
0.00147172
-0.00348034
-0.612963
0.614972
0.00672372
-0.0100278
-0.751654
0.754958
0.0137995
-0.0173886
-0.874615
0.878204
0.0215819
-0.0252754
-0.998325
1.00202
0.0296842
-0.0337098
-1.13321
1.13724
0.0376192
-0.0413281
-1.27809
1.2818
0.0447878
-0.0471029
-1.43004
1.43236
0.0487897
-0.049104
-1.58535
1.58566
0.0476443
-0.0448929
-1.46947
1.46672
0.0412847
-0.0367428
-1.15537
1.15083
0.0324462
-0.0275635
-0.92406
0.919178
0.022906
-0.0179618
-0.736538
0.731593
0.0133505
-0.00845602
-0.553877
0.548983
0.00486287
-0.00229212
-0.368475
0.365904
0.00076456
4.77487e-05
-0.209607
0.208795
-0.000388946
0.000476451
-0.096439
0.0963515
-0.000426296
0.000280641
-0.0299051
0.0300507
-0.000116659
-0.00191593
0.00203258
-0.0779024
0.0775345
0.000367894
0.000189892
-0.00102005
-0.436243
0.437074
0.0026145
-0.00494043
-0.618495
0.620821
0.00811301
-0.0112607
-0.758143
0.76129
0.015116
-0.0185592
-0.881759
0.885202
0.022608
-0.026439
-1.00619
1.01002
0.0307706
-0.0347798
-1.14112
1.14513
0.0389298
-0.0426869
-1.28544
1.28919
0.0463644
-0.0494588
-1.43497
1.43806
0.0516265
-0.0522494
-1.58592
1.58654
0.0514654
-0.0490416
-1.46387
1.46144
0.0460654
-0.0422534
-1.14634
1.14253
0.0382859
-0.0339203
-0.914188
0.909823
0.0295983
-0.0245877
-0.726055
0.721044
0.0199081
-0.0146313
-0.543234
0.537957
0.0106114
-0.00721496
-0.361134
0.357738
0.00501491
-0.00330906
-0.206101