/*--------------------------------*- C++ -*----------------------------------*\
| =========                 |                                                 |
| \\      /  F ield         | OpenFOAM: The Open Source CFD Toolbox           |
|  \\    /   O peration     | Version:  4.0                                   |
|   \\  /    A nd           | Web:      www.OpenFOAM.org                      |
|    \\/     M anipulation  |                                                 |
\*---------------------------------------------------------------------------*/
FoamFile
{
    version     2.0;
    format      ascii;
    class       volVectorField;
    location    "52";
    object      U;
}
// * * * * * * * * * * * * * * * * * * * * * * * * * * * * * * * * * * * * * //

dimensions      [0 1 -1 0 0 0 0];

internalField   nonuniform List<vector> 
8800
(
(0.980141 -0.0915214 0)
(1.00234 -0.0587308 0)
(0.999576 -0.0321313 0)
(0.999969 -0.0165262 0)
(1.00006 -0.00884696 0)
(1.00007 -0.005102 0)
(1.00005 -0.00299881 0)
(1.00001 -0.00168761 0)
(0.999998 -0.000785698 0)
(1.00006 -8.77952e-05 0)
(0.999988 0.000618996 0)
(0.999995 0.00137121 0)
(1.00001 0.00239537 0)
(1.00003 0.00400065 0)
(1.00004 0.00674926 0)
(0.999993 0.012051 0)
(0.999788 0.0230953 0)
(0.999028 0.0431577 0)
(1.00723 0.0790264 0)
(0.775024 0.0478395 0)
(0.358983 -0.0147488 0)
(1.0465 -0.0724865 0)
(1.08846 -0.0660256 0)
(1.04942 -0.050923 0)
(1.02552 -0.0377065 0)
(1.01272 -0.025902 0)
(1.00656 -0.0167064 0)
(1.00362 -0.0102156 0)
(1.00218 -0.00558403 0)
(1.00151 -0.00199098 0)
(1.00138 0.00122181 0)
(1.00173 0.00452921 0)
(1.0027 0.00841734 0)
(1.00474 0.0137326 0)
(1.00897 0.0214112 0)
(1.01795 0.0319042 0)
(1.03578 0.0446765 0)
(1.0674 0.0581171 0)
(1.09469 0.0699606 0)
(0.845624 0.0555079 0)
(0.217787 -0.00138115 0)
(1.07566 -0.0506554 0)
(1.09939 -0.0489399 0)
(1.06437 -0.0400268 0)
(1.03988 -0.0325696 0)
(1.02379 -0.0253555 0)
(1.01401 -0.0181346 0)
(1.00851 -0.011511 0)
(1.00565 -0.00575354 0)
(1.00448 -0.000463113 0)
(1.00479 0.0046477 0)
(1.00663 0.00993424 0)
(1.01056 0.0159047 0)
(1.01788 0.0226615 0)
(1.03049 0.0297637 0)
(1.05047 0.0368499 0)
(1.08002 0.0446238 0)
(1.10563 0.0519468 0)
(0.943249 0.0410146 0)
(0.217184 0.0014056 0)
(0.176641 -0.000628727 0)
(1.01939 -0.0354639 0)
(1.1057 -0.0414121 0)
(1.07796 -0.0363996 0)
(1.05243 -0.0303569 0)
(1.03521 -0.0244793 0)
(1.02336 -0.0186811 0)
(1.01555 -0.0126814 0)
(1.01094 -0.00658586 0)
(1.00891 -0.000347348 0)
(1.00943 0.00581017 0)
(1.01251 0.0117224 0)
(1.01846 0.0174901 0)
(1.02805 0.0230664 0)
(1.04225 0.0286132 0)
(1.06307 0.0343922 0)
(1.09383 0.0402744 0)
(1.09439 0.0417948 0)
(0.830158 0.0227831 0)
(0.175611 0.000648406 0)
(0.154732 -0.000462553 0)
(0.958171 -0.0256913 0)
(1.10439 -0.0351181 0)
(1.08806 -0.0326724 0)
(1.06124 -0.0281677 0)
(1.0432 -0.023205 0)
(1.03083 -0.0179007 0)
(1.02223 -0.0123577 0)
(1.01668 -0.00644812 0)
(1.01403 5.30103e-06 0)
(1.01466 0.00646323 0)
(1.01844 0.0123329 0)
(1.02522 0.0176498 0)
(1.03535 0.0226552 0)
(1.05009 0.0274738 0)
(1.07202 0.0319131 0)
(1.10097 0.035789 0)
(1.06964 0.0339911 0)
(0.742473 0.0144602 0)
(0.15319 0.000484654 0)
(0.140048 -0.000334477 0)
(0.901158 -0.019328 0)
(1.0968 -0.0302275 0)
(1.0962 -0.0293547 0)
(1.06894 -0.0255767 0)
(1.05011 -0.0214934 0)
(1.03716 -0.0167928 0)
(1.02818 -0.0115436 0)
(1.02224 -0.00582268 0)
(1.01925 0.000532397 0)
(1.01987 0.00690501 0)
(1.02386 0.0125509 0)
(1.03087 0.0175305 0)
(1.04138 0.0220002 0)
(1.05674 0.0259395 0)
(1.07953 0.0294518 0)
(1.10327 0.0321663 0)
(1.03784 0.0281541 0)
(0.675638 0.0103142 0)
(0.137876 0.000360677 0)
(0.129309 -0.000253044 0)
(0.851276 -0.014933 0)
(1.08444 -0.0261323 0)
(1.10188 -0.0264845 0)
(1.07576 -0.0231697 0)
(1.05643 -0.0195204 0)
(1.04305 -0.0153277 0)
(1.03371 -0.0104684 0)
(1.02749 -0.00497245 0)
(1.02428 0.00119253 0)
(1.02478 0.00734493 0)
(1.02878 0.0127076 0)
(1.03595 0.0172673 0)
(1.04675 0.0211352 0)
(1.06248 0.0244719 0)
(1.08572 0.0275064 0)
(1.10249 0.0293266 0)
(1.00315 0.0236125 0)
(0.623577 0.00791184 0)
(0.126369 0.000284959 0)
(0.121121 -0.000194288 0)
(0.808762 -0.0117501 0)
(1.06911 -0.0225439 0)
(1.10538 -0.0238659 0)
(1.08199 -0.0210103 0)
(1.06221 -0.0175954 0)
(1.04856 -0.0136901 0)
(1.03896 -0.00915653 0)
(1.03247 -0.00393993 0)
(1.02904 0.00198811 0)
(1.02939 0.00787092 0)
(1.03334 0.0128786 0)
(1.04057 0.0169808 0)
(1.05146 0.0203785 0)
(1.06745 0.0233193 0)
(1.09107 0.0260375 0)
(1.09884 0.0269503 0)
(0.968058 0.0200374 0)
(0.581804 0.00634418 0)
(0.117246 0.00023313 0)
(0.114769 -0.000149813 0)
(0.772895 -0.00936944 0)
(1.05222 -0.0193863 0)
(1.1077 -0.0214489 0)
(1.08784 -0.0189812 0)
(1.06764 -0.0157318 0)
(1.05374 -0.0120006 0)
(1.04395 -0.00767797 0)
(1.03725 -0.00270933 0)
(1.03356 0.00294929 0)
(1.0337 0.0085146 0)
(1.03754 0.0131404 0)
(1.04471 0.0168377 0)
(1.05562 0.0198613 0)
(1.07185 0.022472 0)
(1.09517 0.024847 0)
(1.0924 0.0249692 0)
(0.933926 0.0172635 0)
(0.547317 0.00526668 0)
(0.109758 0.000196941 0)
(0.109803 -0.000114756 0)
(0.742749 -0.00752609 0)
(1.03483 -0.0165884 0)
(1.10905 -0.0191829 0)
(1.09338 -0.0170366 0)
(1.07289 -0.0138946 0)
(1.0587 -0.0102712 0)
(1.04872 -0.00608131 0)
(1.04181 -0.00129303 0)
(1.03785 0.00410492 0)
(1.03773 0.00933921 0)
(1.04137 0.0136024 0)
(1.0484 0.0169452 0)
(1.05932 0.0196285 0)
(1.07577 0.0219454 0)
(1.098 0.0239492 0)
(1.08356 0.0233257 0)
(0.901357 0.0151385 0)
(0.518062 0.00450989 0)
(0.103412 0.000171878 0)
(0.105933 -8.57948e-05 0)
(0.717501 -0.00604255 0)
(1.01777 -0.0140769 0)
(1.10954 -0.0169935 0)
(1.0988 -0.0151431 0)
(1.07803 -0.0120283 0)
(1.06355 -0.00845008 0)
(1.05335 -0.00434027 0)
(1.0462 0.000317107 0)
(1.04194 0.00549286 0)
(1.04148 0.0104173 0)
(1.04484 0.0143301 0)
(1.0517 0.0173184 0)
(1.0626 0.0196699 0)
(1.07924 0.0217299 0)
(1.09949 0.0233433 0)
(1.07269 0.0220071 0)
(0.870498 0.0135479 0)
(0.492585 0.00398197 0)
(0.0978646 0.000155341 0)
(0.102965 -6.08566e-05 0)
(0.696509 -0.00480153 0)
(1.00168 -0.0117881 0)
(1.10933 -0.0148446 0)
(1.10405 -0.0132049 0)
(1.08316 -0.0100688 0)
(1.06835 -0.00648507 0)
(1.05789 -0.00240084 0)
(1.05044 0.00217484 0)
(1.04582 0.00716523 0)
(1.04495 0.0117981 0)
(1.04796 0.0153802 0)
(1.05461 0.018036 0)
(1.06548 0.020055 0)
(1.08229 0.0218483 0)
(1.10002 0.0230561 0)
(1.06013 0.0210194 0)
(0.841225 0.0123983 0)
(0.469807 0.00362498 0)
(0.0928567 0.000145414 0)
(0.100777 -3.80014e-05 0)
(0.6793 -0.00371468 0)
(0.986989 -0.0096494 0)
(1.10861 -0.0126535 0)
(1.10908 -0.0111567 0)
(1.08833 -0.00799258 0)
(1.07316 -0.00434464 0)
(1.0624 -0.000216981 0)
(1.0546 0.00432684 0)
(1.04951 0.0091852 0)
(1.04814 0.0135577 0)
(1.05074 0.0168062 0)
(1.05715 0.0191181 0)
(1.06796 0.020807 0)
(1.08485 0.0223255 0)
(1.09957 0.0231566 0)
(1.04605 0.0203742 0)
(0.813247 0.0116175 0)
(0.448893 0.00340093 0)
(0.0881883 0.000140803 0)
(0.0993054 -1.54682e-05 0)
(0.665571 -0.0027116 0)
(0.974073 -0.00758485 0)
(1.10768 -0.0103515 0)
(1.11402 -0.00890892 0)
(1.09363 -0.00567453 0)
(1.07808 -0.00190417 0)
(1.06694 0.00231443 0)
(1.0587 0.00687556 0)
(1.05305 0.0116376 0)
(1.05108 0.0157601 0)
(1.05318 0.0186768 0)
(1.05928 0.0206301 0)
(1.07002 0.0219523 0)
(1.08693 0.0232009 0)
(1.09792 0.0235923 0)
(1.03055 0.0200478 0)
(0.786185 0.0111478 0)
(0.429169 0.00328308 0)
(0.0837006 0.000140408 0)
(0.0985331 8.47648e-06 0)
(0.655166 -0.00173742 0)
(0.963245 -0.0055238 0)
(1.10689 -0.0078855 0)
(1.11901 -0.00641074 0)
(1.09914 -0.00306069 0)
(1.08315 0.000892903 0)
(1.07157 0.00526454 0)
(1.06279 0.00991145 0)
(1.05645 0.0146131 0)
(1.05375 0.0184902 0)
(1.05526 0.0210595 0)
(1.06099 0.0226405 0)
(1.07163 0.0235703 0)
(1.08852 0.0245276 0)
(1.09506 0.024428 0)
(1.01366 0.0200719 0)
(0.759626 0.0109551 0)
(0.41009 0.00325612 0)
(0.0792649 0.000143806 0)
(0.09848 2.99043e-05 0)
(0.64806 -0.000744958 0)
(0.954807 -0.00339032 0)
(1.10655 -0.005171 0)
(1.12418 -0.00357032 0)
(1.10493 -5.72651e-05 0)
(1.08849 0.00414458 0)
(1.07638 0.00874261 0)
(1.06693 0.0135379 0)
(1.05976 0.0182295 0)
(1.05618 0.0218793 0)
(1.05697 0.0240867 0)
(1.06224 0.0252545 0)
(1.07277 0.0257627 0)
(1.08935 0.026345 0)
(1.09073 0.0256984 0)
(0.995276 0.020466 0)
(0.733111 0.0110258 0)
(0.391158 0.00331314 0)
(0.0747626 0.000150662 0)
(0.0991821 6.87976e-05 0)
(0.644339 0.000278234 0)
(0.949085 -0.00111022 0)
(1.10704 -0.0021244 0)
(1.12973 -0.000268902 0)
(1.11111 0.00349794 0)
(1.09416 0.00802726 0)
(1.08141 0.0129169 0)
(1.07115 0.0179175 0)
(1.06296 0.0226271 0)
(1.05831 0.0260327 0)
(1.05825 0.0278289 0)
(1.06299 0.0285431 0)
(1.07336 0.0286028 0)
(1.08931 0.0287656 0)
(1.08479 0.0274524 0)
(0.975219 0.0212543 0)
(0.706132 0.0113464 0)
(0.37191 0.00344648 0)
(0.0700858 0.000160538 0)
(0.100845 9.54734e-05 0)
(0.644383 0.00144067 0)
(0.946422 0.00139749 0)
(1.10876 0.00134809 0)
(1.13588 0.00356999 0)
(1.11783 0.00770367 0)
(1.10028 0.0126514 0)
(1.08675 0.0179284 0)
(1.07551 0.0232074 0)
(1.06606 0.0279673 0)
(1.06013 0.0311263 0)
(1.05906 0.0324603 0)
(1.06317 0.0326642 0)
(1.07333 0.0322315 0)
(1.08821 0.0318921 0)
(1.07706 0.0297441 0)
(0.953203 0.0224664 0)
(0.67816 0.0119152 0)
(0.351908 0.00365269 0)
(0.0651367 0.000173075 0)
(0.103528 0.000142568 0)
(0.648544 0.00286571 0)
(0.947313 0.00428332 0)
(1.11221 0.00537458 0)
(1.14281 0.00810775 0)
(1.12521 0.012736 0)
(1.10698 0.0182215 0)
(1.0925 0.0239968 0)
(1.08002 0.0296274 0)
(1.06905 0.034457 0)
(1.06156 0.0373142 0)
(1.05932 0.0381119 0)
(1.06267 0.0377531 0)
(1.07257 0.0367651 0)
(1.08583 0.0358489 0)
(1.06721 0.0326762 0)
(0.928846 0.0241429 0)
(0.648617 0.012737 0)
(0.330722 0.00392977 0)
(0.0598237 0.00018802 0)
(0.10751 0.000203797 0)
(0.657415 0.00454564 0)
(0.95223 0.00769974 0)
(1.11789 0.0101328 0)
(1.1508 0.0135952 0)
(1.13346 0.0189076 0)
(1.11441 0.0250525 0)
(1.09876 0.0314144 0)
(1.08477 0.0374517 0)
(1.07195 0.0423346 0)
(1.06262 0.0447989 0)
(1.05898 0.0449668 0)
(1.06141 0.043956 0)
(1.07099 0.0423283 0)
(1.08209 0.0407794 0)
(1.05488 0.0363545 0)
(0.901642 0.0263312 0)
(0.616867 0.0138143 0)
(0.307921 0.00427351 0)
(0.0540643 0.000204646 0)
(0.113122 0.000286748 0)
(0.671672 0.00663379 0)
(0.961831 0.011836 0)
(1.12638 0.0158426 0)
(1.16024 0.0202531 0)
(1.14283 0.0264626 0)
(1.12271 0.0334252 0)
(1.10558 0.0405055 0)
(1.0897 0.0470038 0)
(1.07463 0.0518937 0)
(1.06314 0.0538398 0)
(1.05787 0.0532443 0)
(1.05923 0.0514484 0)
(1.06847 0.049079 0)
(1.07688 0.0467827 0)
(1.03957 0.0408745 0)
(0.87097 0.0290577 0)
(0.582234 0.0151376 0)
(0.283093 0.00467225 0)
(0.0477944 0.000221622 0)
(0.120861 0.000403752 0)
(0.692264 0.00936327 0)
(0.97699 0.0170115 0)
(1.13831 0.0228659 0)
(1.17155 0.028469 0)
(1.1536 0.0358342 0)
(1.13211 0.0438149 0)
(1.11307 0.051736 0)
(1.09481 0.0586868 0)
(1.07701 0.0634625 0)
(1.06298 0.0647052 0)
(1.05584 0.0631435 0)
(1.05604 0.0604427 0)
(1.06483 0.0572433 0)
(1.06989 0.054 0)
(1.02069 0.0463217 0)
(0.836111 0.0323409 0)
(0.544014 0.0166803 0)
(0.255878 0.00510645 0)
(0.0409831 0.000237192 0)
(0.131472 0.000574917 0)
(0.720529 0.0131012 0)
(0.998859 0.0236874 0)
(1.15445 0.0317534 0)
(1.18531 0.0388998 0)
(1.16613 0.0477915 0)
(1.14275 0.0569626 0)
(1.1212 0.0657431 0)
(1.09996 0.0730132 0)
(1.07891 0.0773873 0)
(1.06198 0.0776012 0)
(1.05274 0.0748384 0)
(1.05167 0.0710913 0)
(1.05987 0.0668955 0)
(1.06062 0.0625194 0)
(0.997506 0.0527594 0)
(0.796221 0.0361613 0)
(0.50152 0.0183844 0)
(0.226026 0.00554268 0)
(0.0336475 0.000249062 0)
(0.146221 0.000850133 0)
(0.758474 0.0184582 0)
(1.02908 0.0326475 0)
(1.1758 0.0434189 0)
(1.20234 0.0525427 0)
(1.18073 0.0633035 0)
(1.15466 0.0737543 0)
(1.12983 0.0832621 0)
(1.10492 0.0905266 0)
(1.08006 0.0940614 0)
(1.05988 0.0928242 0)
(1.04838 0.0885423 0)
(1.04595 0.0835225 0)
(1.05322 0.078158 0)
(1.04843 0.0725428 0)
(0.969045 0.0601984 0)
(0.750405 0.0404444 0)
(0.454185 0.0201422 0)
(0.193507 0.0059256 0)
(0.0258869 0.000253378 0)
(0.167273 0.00132412 0)
(0.809311 0.0266065 0)
(1.07016 0.0454515 0)
(1.2034 0.0596754 0)
(1.22324 0.0714776 0)
(1.19747 0.0839164 0)
(1.16758 0.0954885 0)
(1.1385 0.105262 0)
(1.10915 0.111869 0)
(1.07997 0.113861 0)
(1.05631 0.110589 0)
(1.04248 0.104426 0)
(1.0387 0.0978996 0)
(1.04458 0.0914598 0)
(1.03256 0.0840587 0)
(0.934147 0.0684958 0)
(0.697838 0.0450082 0)
(0.401822 0.0217907 0)
(0.158722 0.00617933 0)
(0.017932 0.000244494 0)
(0.198005 0.0023769 0)
(0.878699 0.0402503 0)
(1.12567 0.0659224 0)
(1.23766 0.0841017 0)
(1.24774 0.0984829 0)
(1.21582 0.11205 0)
(1.18081 0.123807 0)
(1.14649 0.132718 0)
(1.11209 0.137561 0)
(1.07825 0.137021 0)
(1.05101 0.130984 0)
(1.03489 0.122497 0)
(1.02982 0.114256 0)
(1.03387 0.106647 0)
(1.01212 0.0969528 0)
(0.891417 0.0773431 0)
(0.638046 0.0495418 0)
(0.345263 0.0231882 0)
(0.123029 0.00626717 0)
(0.0102818 0.000216586 0)
(0.23992 0.00857283 3.65282e-20)
(0.970687 0.067453 3.20721e-20)
(1.19343 0.100184 -1.13158e-20)
(1.27558 0.120264 0)
(1.27315 0.137127 -2.99851e-34)
(1.23368 0.150034 4.4121e-21)
(1.19271 0.160218 -8.1168e-21)
(1.1526 0.166877 0)
(1.11273 0.168908 1.70166e-34)
(1.07391 0.165036 -1.03672e-20)
(1.04282 0.155739 0)
(1.02418 0.1447 -1.24424e-20)
(1.01776 0.134777 -3.67866e-20)
(1.01968 0.126382 -1.74153e-20)
(0.984286 0.114189 -5.25508e-21)
(0.83594 0.0890658 -3.12651e-21)
(0.56529 0.0550503 0)
(0.282312 0.0248239 2.18983e-21)
(0.08683 0.00666083 2.58571e-21)
(0.00319185 0.0002584 4.65302e-20)
(0.269332 0.0239326 2.4301e-20)
(1.04659 0.109935 5.25983e-22)
(1.24925 0.149018 2.91088e-21)
(1.30947 0.169257 0)
(1.2954 0.185979 -1.49123e-20)
(1.24885 0.196717 -1.71568e-20)
(1.20195 0.204577 -8.11893e-21)
(1.15595 0.208747 -2.94532e-20)
(1.11032 0.207956 0)
(1.06593 0.200855 4.41825e-20)
(1.03024 0.188418 4.4086e-20)
(1.00847 0.174893 1.31683e-20)
(0.999769 0.162921 4.82534e-20)
(0.995555 0.152141 6.80409e-20)
(0.941717 0.136238 0)
(0.76259 0.103566 9.62202e-20)
(0.480493 0.0618544 1.38134e-19)
(0.216164 0.026606 1.53459e-19)
(0.0517151 0.00633314 -1.75481e-19)
(-0.00360004 -0.000256992 -3.29824e-21)
(0.270465 0.0396391 0)
(1.09452 0.165045 3.72037e-21)
(1.28669 0.209091 0)
(1.33573 0.228817 -1.78255e-20)
(1.31274 0.24249 0)
(1.26024 0.249411 -3.31254e-20)
(1.20778 0.253616 1.6474e-20)
(1.15617 0.25426 -5.8781e-20)
(1.105 0.249854 -1.56803e-21)
(1.05525 0.238971 2.28124e-20)
(1.01509 0.223035 9.74691e-20)
(0.990242 0.206859 -2.72104e-22)
(0.979075 0.192999 -3.51907e-20)
(0.969124 0.180113 -6.44746e-20)
(0.903232 0.159518 7.6439e-20)
(0.711592 0.118768 -1.35483e-19)
(0.434 0.0691968 -1.79411e-20)
(0.186885 0.0290759 0)
(0.0379726 0.00605397 -1.63794e-24)
(-0.00626782 -0.000916535 0)
(0.264307 0.0532681 3.33238e-20)
(1.1204 0.223507 -1.86251e-20)
(1.30972 0.273709 -1.74249e-20)
(1.35299 0.293558 8.03419e-21)
(1.32377 0.303367 -1.37589e-20)
(1.26682 0.305859 6.92193e-20)
(1.20976 0.305765 3.42945e-20)
(1.15326 0.302264 0)
(1.09711 0.293737 -1.13148e-19)
(1.04241 0.278716 0)
(0.998033 0.259171 -5.11564e-20)
(0.970188 0.240337 -6.37134e-20)
(0.956598 0.224411 -3.84897e-20)
(0.942221 0.209017 -4.70056e-20)
(0.870427 0.18407 0)
(0.678266 0.136413 0)
(0.411959 0.0798872 -1.17166e-19)
(0.17871 0.0339246 2.32075e-20)
(0.0353422 0.00656903 -1.35591e-20)
(-0.00725056 -0.0014748 -1.58697e-20)
(0.257019 0.0653574 -1.87672e-21)
(1.1319 0.28188 0)
(1.32235 0.339335 2.98219e-20)
(1.36222 0.359781 2.12997e-20)
(1.32862 0.365799 3.28795e-20)
(1.26843 0.363859 0)
(1.20774 0.35935 3.2984e-20)
(1.14718 0.35153 6.48815e-20)
(1.08674 0.338723 5.76549e-20)
(1.02761 0.319436 1.08297e-19)
(0.979351 0.296139 0)
(0.948576 0.274462 -1.37824e-19)
(0.932437 0.256362 -8.34477e-20)
(0.914661 0.238662 -4.94355e-20)
(0.841536 0.209839 3.05155e-19)
(0.655848 0.156368 3.63747e-20)
(0.404236 0.0938464 1.70814e-19)
(0.182955 0.0413342 -8.09333e-19)
(0.0405214 0.00877966 4.79244e-19)
(-0.00629332 -0.00160683 -5.77577e-19)
(0.250085 0.0763124 1.34871e-20)
(1.13426 0.338332 -6.23398e-23)
(1.32747 0.404047 -1.75975e-21)
(1.36504 0.425575 -1.68939e-20)
(1.32824 0.428038 -2.50383e-20)
(1.26563 0.421845 1.79341e-21)
(1.20204 0.413068 -3.58858e-20)
(1.13815 0.401023 6.68116e-20)
(1.07402 0.383995 -1.24385e-19)
(1.01096 0.360419 0)
(0.959114 0.333214 -6.22101e-20)
(0.925577 0.308606 -1.62054e-21)
(0.907122 0.288538 -9.16514e-20)
(0.886693 0.268852 0)
(0.81444 0.236369 -6.63665e-20)
(0.638456 0.178379 -1.57873e-19)
(0.403189 0.110062 4.22046e-19)
(0.192095 0.0512247 -4.15141e-19)
(0.0499728 0.0129561 5.90276e-19)
(-0.00386046 -0.0012048 -6.13291e-19)
(0.24432 0.086478 -4.10195e-22)
(1.13097 0.392207 4.42805e-21)
(1.32719 0.466841 2.86712e-21)
(1.36288 0.489714 4.55777e-21)
(1.32367 0.489009 -1.22126e-20)
(1.25921 0.478838 0)
(1.1933 0.466054 -3.22903e-20)
(1.12663 0.450012 -6.97365e-20)
(1.05932 0.428934 -6.44016e-20)
(0.992718 0.401154 0)
(0.937575 0.370185 -6.44267e-20)
(0.901525 0.342964 -8.06004e-20)
(0.880965 0.321126 9.97031e-20)
(0.858409 0.299449 -6.08772e-20)
(0.787397 0.263781 -2.90965e-19)
(0.622505 0.201732 1.73468e-19)
(0.403128 0.127592 5.18568e-20)
(0.202076 0.0627278 0)
(0.0602888 0.0185296 -5.73143e-19)
(-0.000924064 -0.000381046 -2.10386e-20)
(0.239811 0.0961643 5.12786e-21)
(1.1243 0.443305 -7.49545e-21)
(1.323 0.527226 -2.84231e-21)
(1.35697 0.551479 1.96505e-20)
(1.31586 0.548021 -4.08137e-20)
(1.24998 0.534234 5.95131e-20)
(1.18219 0.517768 6.97384e-20)
(1.11317 0.498016 -1.11395e-19)
(1.04304 0.473119 4.06655e-20)
(0.973241 0.441343 -2.67101e-19)
(0.915135 0.406923 -7.33841e-20)
(0.87681 0.37728 0)
(0.854231 0.353487 1.08375e-19)
(0.829839 0.329694 1.30413e-19)
(0.76029 0.291073 1.56744e-19)
(0.605774 0.225441 -1.8901e-19)
(0.400767 0.145914 -5.60523e-20)
(0.209473 0.0752641 6.58057e-20)
(0.0692635 0.0248405 0)
(0.00191317 0.000676565 -4.58e-20)
(0.236452 0.105529 -7.74617e-20)
(1.11582 0.491728 4.35677e-20)
(1.31617 0.585325 4.71201e-21)
(1.3483 0.610528 8.76533e-21)
(1.30561 0.604668 -1.5731e-20)
(1.23862 0.587632 -4.06038e-21)
(1.1693 0.567862 -7.66804e-20)
(1.09826 0.544722 -4.04355e-20)
(1.02562 0.516265 -1.12235e-19)
(0.952923 0.480767 2.88729e-22)
(0.892136 0.443045 -2.29206e-19)
(0.851701 0.410753 1.95736e-19)
(0.827201 0.384718 -1.19457e-19)
(0.801336 0.358834 1.44277e-19)
(0.733171 0.317484 0)
(0.587547 0.247897 -1.02815e-19)
(0.395219 0.163707 -1.18139e-22)
(0.213077 0.0874306 -2.87677e-19)
(0.0754896 0.0309654 -4.22375e-20)
(0.0041731 0.00174743 0)
(0.234104 0.114702 0)
(1.10644 0.537688 5.00763e-20)
(1.30741 0.640742 2.15342e-20)
(1.33763 0.666734 -4.64209e-21)
(1.29357 0.658742 -2.33713e-20)
(1.22572 0.638823 0)
(1.15514 0.616111 -3.31528e-20)
(1.08234 0.589904 -1.08746e-21)
(1.00743 0.558183 2.4062e-19)
(0.932069 0.519217 -3.64849e-20)
(0.86874 0.478121 -1.65747e-19)
(0.826298 0.442852 1.01467e-19)
(0.800145 0.414571 -2.18192e-21)
(0.773073 0.386857 1.5326e-19)
(0.705692 0.342281 9.5269e-20)
(0.567564 0.268437 -2.22274e-19)
(0.386362 0.18005 2.63509e-19)
(0.212206 0.0982343 7.80063e-20)
(0.0782489 0.0361355 3.21869e-19)
(0.00562109 0.00263845 -8.59609e-19)
(0.232718 0.123817 -2.55822e-20)
(1.09679 0.581378 3.47878e-20)
(1.29748 0.693256 -2.37357e-20)
(1.32553 0.720071 -3.18485e-21)
(1.28031 0.710145 0)
(1.21177 0.687685 -2.35449e-20)
(1.14015 0.662376 1.13064e-19)
(1.06578 0.633417 8.78307e-20)
(0.988795 0.59874 0)
(0.910892 0.556525 -5.27876e-19)
(0.845047 0.511952 4.48729e-19)
(0.800695 0.473662 0)
(0.773214 0.44343 1.39782e-19)
(0.744924 0.41384 -2.19667e-21)
(0.677428 0.365188 -3.0407e-19)
(0.545585 0.286888 1.19129e-19)
(0.37424 0.194267 0)
(0.207343 0.106873 4.20997e-19)
(0.0775781 0.0397521 0)
(0.00622099 0.00320014 -4.06922e-19)
(0.232113 0.132951 3.06982e-20)
(1.08738 0.622911 4.51356e-20)
(1.28662 0.742957 -2.36138e-20)
(1.31249 0.770536 0)
(1.26624 0.758869 -1.43702e-20)
(1.19719 0.734181 0)
(1.12467 0.706576 -1.0856e-19)
(1.0489 0.675173 -3.94538e-20)
(0.969978 0.637859 4.18305e-20)
(0.889599 0.592612 -2.61134e-19)
(0.821184 0.544611 4.61252e-20)
(0.775006 0.503561 0)
(0.746401 0.471584 -2.98255e-19)
(0.716576 0.439382 2.19018e-21)
(0.648382 0.385747 0)
(0.521735 0.302765 1.64296e-21)
(0.358895 0.20562 3.84815e-19)
(0.198788 0.112825 -3.63886e-19)
(0.0741982 0.04156 1.07218e-19)
(0.00600723 0.00333161 0)
(0.231963 0.141964 0)
(1.07843 0.662408 5.44526e-20)
(1.2752 0.78999 3.45344e-20)
(1.29891 0.818186 -2.46465e-21)
(1.25174 0.804945 -5.26936e-22)
(1.18228 0.778305 -5.21945e-20)
(1.10901 0.748684 4.13908e-20)
(1.03196 0.71513 -4.7656e-20)
(0.951228 0.675496 1.88074e-19)
(0.868368 0.627475 -4.16837e-19)
(0.797307 0.576297 -3.71693e-21)
(0.749325 0.532836 -1.29753e-19)
(0.719513 0.498884 4.84281e-19)
(0.687716 0.462879 -2.56052e-21)
(0.618622 0.403548 -2.35955e-19)
(0.496341 0.315848 -4.21734e-19)
(0.340816 0.213949 0)
(0.187013 0.115953 0)
(0.0686195 0.0417391 1.15718e-19)
(0.00531477 0.00316112 -6.7934e-20)
(0.232394 0.150991 4.3175e-20)
(1.06994 0.699696 -1.24033e-19)
(1.26354 0.834418 -3.71636e-20)
(1.28508 0.863095 0)
(1.23707 0.848429 -1.54437e-21)
(1.1673 0.820078 -4.2233e-20)
(1.09339 0.788695 9.6257e-20)
(1.0152 0.753279 1.83855e-19)
(0.932745 0.711646 2.43022e-19)
(0.847391 0.66116 -3.39394e-19)
(0.773606 0.607212 -3.85093e-19)
(0.723702 0.561546 3.46864e-19)
(0.692349 0.524915 0)
(0.658224 0.483874 -1.06987e-19)
(0.58837 0.418606 -2.55377e-19)
(0.469839 0.32617 -3.02911e-19)
(0.32032 0.219037 -3.58999e-19)
(0.172483 0.116201 1.06106e-19)
(0.0610719 0.0402061 -6.23887e-20)
(0.0042426 0.00270389 2.64323e-22)
(0.232955 0.159935 0)
(1.0621 0.735353 0)
(1.25185 0.87635 2.5484e-21)
(1.2712 0.905352 0)
(1.22246 0.889407 -1.27514e-20)
(1.15246 0.859551 2.38585e-20)
(1.07802 0.826632 0)
(0.998795 0.78963 2.11088e-20)
(0.914706 0.746312 4.03271e-19)
(0.82686 0.693728 -7.80248e-19)
(0.75025 0.637481 0)
(0.698162 0.589573 -2.23049e-19)
(0.664774 0.549285 -3.04409e-21)
(0.62813 0.502262 -2.4232e-21)
(0.557863 0.431096 2.72689e-19)
(0.442476 0.333606 -2.61755e-22)
(0.297625 0.220724 -7.72793e-19)
(0.15585 0.113532 2.28188e-19)
(0.0524577 0.037188 6.74323e-20)
(0.00296127 0.00201877 0)
(0.233558 0.168723 -1.72625e-19)
(1.05461 0.769326 -8.38091e-20)
(1.2402 0.91585 -1.09811e-19)
(1.25747 0.945065 1.09532e-19)
(1.20807 0.92795 -3.85467e-20)
(1.13792 0.896781 0)
(1.06303 0.862536 5.49956e-20)
(0.982891 0.82421 -4.75353e-20)
(0.897256 0.779513 3.86743e-21)
(0.806949 0.725239 5.76978e-20)
(0.727391 0.667145 4.97285e-19)
(0.672714 0.616771 -7.80774e-20)
(0.636738 0.571851 -2.98161e-19)
(0.597516 0.518205 -1.24611e-19)
(0.527187 0.440992 1.48339e-19)
(0.414477 0.337773 -7.67393e-23)
(0.27365 0.218838 2.08148e-19)
(0.138216 0.108228 -4.90742e-19)
(0.0435299 0.0330685 5.80054e-19)
(0.0016274 0.00120115 8.45681e-20)
(0.234031 0.177234 6.56982e-20)
(1.04751 0.801725 -4.73259e-20)
(1.22873 0.953017 6.23684e-21)
(1.24399 0.982356 7.05138e-20)
(1.19402 0.964164 1.50328e-20)
(1.12379 0.931836 -3.63475e-20)
(1.04855 0.896458 1.41901e-20)
(0.967602 0.857042 -1.9654e-19)
(0.880519 0.811253 -4.40473e-19)
(0.787799 0.755711 -4.62831e-19)
(0.705165 0.696188 0)
(0.647397 0.643067 -3.43379e-19)
(0.608254 0.592759 4.29811e-19)
(0.566338 0.531986 0)
(0.496144 0.448063 -3.17426e-19)
(0.386032 0.338144 1.89605e-19)
(0.249405 0.213178 -2.23613e-19)
(0.120913 0.100716 -2.63965e-19)
(0.0351032 0.0283537 -4.67023e-19)
(0.000393989 0.000367635 -3.64099e-19)
(0.234821 0.185605 -7.43867e-20)
(1.04063 0.832526 5.06375e-20)
(1.2175 0.987925 1.15899e-19)
(1.23085 1.01731 1.03109e-19)
(1.18041 0.998138 -2.81775e-20)
(1.11015 0.964798 -1.3073e-20)
(1.03465 0.928451 4.8535e-20)
(0.953007 0.888172 -1.99272e-19)
(0.864576 0.841556 -2.59738e-19)
(0.769531 0.785158 4.82185e-19)
(0.683682 0.724565 1.08935e-18)
(0.622301 0.668498 0)
(0.579366 0.612364 0)
(0.53439 0.543985 -1.43447e-19)
(0.464221 0.452017 0)
(0.357119 0.333854 4.07722e-19)
(0.226049 0.203017 4.80837e-19)
(0.10588 0.0911095 0)
(0.0284306 0.0235422 0)
(-0.000589398 -0.000363354 3.91098e-19)
(0.235249 0.193525 8.47655e-20)
(1.03401 0.861719 6.85505e-20)
(1.20657 1.0207 8.43469e-20)
(1.21812 1.05005 -9.96952e-20)
(1.1673 1.02998 -3.74928e-20)
(1.09707 0.995743 4.21927e-21)
(1.02141 0.958579 -6.48308e-20)
(0.939167 0.917627 -1.76472e-22)
(0.849503 0.870429 -5.01616e-21)
(0.752234 0.813563 -5.12299e-21)
(0.663065 0.752231 5.6036e-19)
(0.597563 0.693187 0)
(0.550174 0.631144 4.3474e-19)
(0.501384 0.554678 3.05569e-19)
(0.430531 0.452791 7.40526e-19)
(0.327069 0.323709 2.1943e-19)
(0.2047 0.18612 -2.58881e-19)
(0.0969575 0.0771371 -1.51999e-19)
(0.0286574 0.0177304 0)
(0.000387896 -0.000318941 4.20039e-19)
(0.235969 0.201446 -1.91524e-19)
(1.02762 0.889398 0)
(1.19592 1.05139 9.95574e-20)
(1.20582 1.08068 -8.47962e-20)
(1.15474 1.05977 5.1474e-20)
(1.08459 1.02476 1.17869e-20)
(1.00885 0.986902 1.1667e-19)
(0.926113 0.945444 -1.70623e-20)
(0.835338 0.897881 0)
(0.735975 0.84088 -5.28049e-19)
(0.643434 0.779135 -1.21407e-18)
(0.573365 0.717316 5.03219e-20)
(0.520864 0.649594 5.98688e-19)
(0.467106 0.564655 0)
(0.393888 0.450933 4.99536e-19)
(0.293658 0.306897 0)
(0.183707 0.15766 0)
(0.0980657 0.0461001 -1.6447e-19)
(0.0559414 5.51654e-05 0)
(0.0284408 0.0118847 1.12518e-19)
(0.236302 0.208759 -2.14455e-19)
(1.02141 0.915901 0)
(1.18557 1.0802 1.65915e-19)
(1.1939 1.10941 0)
(1.14269 1.08779 -3.14472e-20)
(1.07264 1.05213 0)
(0.996921 1.01374 4.28382e-21)
(0.91375 0.971964 2.68045e-20)
(0.821964 0.924275 3.23286e-20)
(0.720587 0.867483 -5.766e-19)
(0.624605 0.805696 3.61262e-20)
(0.54952 0.741585 4.05833e-19)
(0.491114 0.668589 5.83596e-19)
(0.430712 0.574685 7.90834e-20)
(0.352351 0.447946 3.91427e-19)
(0.252189 0.284572 0)
(0.151691 0.11441 5.46421e-19)
(0.0806417 -0.00535606 -3.19997e-19)
(0.0435502 0.0457478 3.70658e-19)
(-0.069006 0.435006 -4.36762e-19)
(0.236609 0.215866 1.77881e-19)
(1.01513 0.941004 2.74161e-19)
(1.17541 1.10745 0)
(1.18222 1.13671 5.09636e-21)
(1.13095 1.11461 9.30395e-20)
(1.06097 1.07854 -6.10256e-20)
(0.98531 1.03988 3.49428e-20)
(0.901675 0.998125 0)
(0.808857 0.950706 2.1005e-19)
(0.705407 0.894671 -2.96201e-20)
(0.605667 0.833367 0)
(0.524818 0.767723 0)
(0.459159 0.689798 5.2164e-19)
(0.390066 0.585699 -2.44658e-19)
(0.302765 0.44595 -3.96069e-19)
(0.197828 0.260793 0)
(0.0883234 0.113886 2.75408e-19)
(0.0050209 0.439993 -3.18522e-19)
(0.0340539 1.88701 -1.73532e-19)
(0.0634554 2.81001 -2.22477e-19)
(0.236727 0.222123 -1.33914e-19)
(1.00898 0.96489 -3.52297e-19)
(1.16546 1.13313 9.88804e-20)
(1.17078 1.16242 8.27171e-20)
(1.11956 1.13999 0)
(1.04965 1.10371 -5.38932e-20)
(0.97421 1.06503 3.94584e-20)
(0.890072 1.0235 -1.24533e-20)
(0.79628 0.976655 3.14172e-20)
(0.690804 0.921806 5.45249e-19)
(0.587202 0.861469 6.0866e-19)
(0.500215 0.795424 4.51441e-19)
(0.425936 0.713354 5.23428e-19)
(0.346829 0.596631 -5.73037e-19)
(0.250898 0.448169 -5.96999e-19)
(0.131532 0.296594 0)
(0.0459933 0.829799 0)
(0.102749 2.54938 1.51281e-19)
(0.103748 3.20022 0)
(0.106839 3.38774 3.59412e-19)
(0.23941 0.227812 0)
(1.00355 0.987749 0)
(1.15549 1.15707 0)
(1.15935 1.18636 2.49082e-20)
(1.1082 1.1637 8.56689e-20)
(1.03844 1.1275 -5.29352e-20)
(0.963518 1.08907 2.20582e-20)
(0.878899 1.04797 -1.18389e-20)
(0.7842 1.00199 2.55981e-19)
(0.676802 0.948736 -9.47451e-21)
(0.569353 0.889898 1.19609e-18)
(0.476067 0.824628 -5.21237e-20)
(0.391677 0.740372 6.30462e-20)
(0.30359 0.605086 8.27751e-20)
(0.188352 0.462516 -4.26709e-21)
(0.103666 0.961595 1.83142e-21)
(0.142296 2.7164 -7.95517e-19)
(0.151012 3.29197 -2.98447e-19)
(0.13949 3.42621 1.53027e-19)
(0.126371 3.44851 -1.69336e-19)
(0.157023 0.184132 7.93671e-20)
(0.992873 1.01235 0)
(1.1452 1.17953 -1.99536e-19)
(1.14845 1.20899 -2.22957e-19)
(1.09771 1.18655 2.00719e-19)
(1.02829 1.1506 6.07614e-20)
(0.953208 1.11206 -1.80687e-20)
(0.868288 1.07165 1.18182e-19)
(0.772794 1.02685 -2.06163e-19)
(0.663672 0.975611 0)
(0.552512 0.918858 5.83707e-19)
(0.452976 0.85529 -3.6623e-19)
(0.356918 0.773919 0)
(0.255105 0.613908 7.66853e-20)
(0.150944 0.772576 1.84691e-19)
(0.157756 2.48643 -2.15912e-19)
(0.216158 3.32343 2.4201e-19)
(0.195463 3.43999 1.29166e-19)
(0.16236 3.46153 1.45203e-19)
(0.140263 3.47179 2.27314e-19)
(0.282914 0.26684 -1.44882e-19)
(0.977941 1.02256 0)
(1.12725 1.20508 2.16347e-19)
(1.13399 1.24074 2.45899e-19)
(1.08078 1.21975 -2.22026e-19)
(1.01075 1.18421 -8.45995e-20)
(0.934776 1.14731 -5.46656e-21)
(0.849388 1.10819 9.41777e-21)
(0.752686 1.06561 1.89962e-19)
(0.641046 1.01817 4.58023e-19)
(0.524552 0.966216 3.2391e-20)
(0.414375 0.906854 3.22268e-19)
(0.29566 0.820401 5.831e-20)
(0.215048 0.945678 -7.48224e-20)
(0.231533 2.33605 -1.70779e-19)
(0.293265 3.32663 1.60698e-19)
(0.276297 3.47004 -1.75839e-19)
(0.240623 3.49172 -1.01384e-19)
(0.203186 3.51929 -8.09038e-20)
(0.151589 3.5131 -9.64668e-21)
(0.270892 0.263754 0)
(0.975806 1.04548 6.23825e-20)
(1.11924 1.22869 -4.45911e-20)
(1.12376 1.26441 -2.92317e-20)
(1.0703 1.24305 -1.53428e-19)
(1.0003 1.20772 8.71415e-20)
(0.92404 1.17103 1.18561e-20)
(0.838498 1.13273 8.00872e-21)
(0.741367 1.09163 -1.93839e-19)
(0.628581 1.04687 -1.4029e-20)
(0.509357 0.998627 -1.03983e-18)
(0.394654 0.943583 4.59345e-20)
(0.283164 0.887591 -5.46894e-20)
(0.256442 1.48393 -6.85965e-20)
(0.331759 3.09724 1.79487e-20)
(0.352149 3.46818 6.10059e-22)
(0.311526 3.52456 2.38898e-19)
(0.273975 3.55078 1.11318e-19)
(0.2251 3.57419 -1.70355e-20)
(0.165986 3.5701 -4.01044e-20)
(0.254507 0.262137 1.5815e-19)
(0.972087 1.07109 4.25976e-19)
(1.11078 1.25444 -1.28108e-19)
(1.11296 1.2895 -1.10677e-19)
(1.05925 1.2677 0)
(0.989441 1.23242 1.52932e-19)
(0.91318 1.19601 3.24122e-20)
(0.827758 1.1585 6.49036e-21)
(0.730511 1.11896 -2.17677e-20)
(0.617066 1.07701 -4.01657e-19)
(0.4959 1.03278 -4.73711e-19)
(0.378671 0.982374 -3.7214e-19)
(0.281636 1.01728 -4.10405e-19)
(0.3252 2.19283 4.25451e-19)
(0.418244 3.37673 3.48146e-19)
(0.396257 3.52638 0)
(0.350461 3.57115 0)
(0.312218 3.6119 -1.13072e-20)
(0.261017 3.67221 0)
(0.178131 3.64832 1.11687e-21)
(0.243648 0.264 -2.37155e-19)
(0.966379 1.0978 -3.61962e-19)
(1.10091 1.28142 0)
(1.10084 1.31537 6.10624e-21)
(1.04696 1.29297 -1.6496e-19)
(0.977467 1.25761 2.45464e-19)
(0.901547 1.22152 2.9835e-20)
(0.816446 1.1847 1.62729e-21)
(0.71932 1.14663 -1.26589e-19)
(0.605584 1.10739 1.93159e-20)