/*--------------------------------*- C++ -*----------------------------------*\
| =========                 |                                                 |
| \\      /  F ield         | OpenFOAM: The Open Source CFD Toolbox           |
|  \\    /   O peration     | Version:  4.0                                   |
|   \\  /    A nd           | Web:      www.OpenFOAM.org                      |
|    \\/     M anipulation  |                                                 |
\*---------------------------------------------------------------------------*/
FoamFile
{
    version     2.0;
    format      ascii;
    class       volScalarField;
    location    "71";
    object      p;
}
// * * * * * * * * * * * * * * * * * * * * * * * * * * * * * * * * * * * * * //

dimensions      [0 2 -2 0 0 0 0];

internalField   nonuniform List<scalar> 
918
(
0.557319
1.18137
0.00128422
0.556772
-0.0125792
1.14834
-0.5116
0.65667
0.537522
-0.107136
-0.0529696
0.539917
1.00921
0.774641
-1.12363
-0.0107138
0.651739
-0.381542
0.53664
-0.0607663
0.686309
0.544059
0.547083
0.537661
0.59775
0.747717
0.890463
0.0249516
0.0100603
0.00550366
-0.0119613
-0.0387764
-0.0328655
1.03199
1.08307
1.10578
0.505261
0.333869
-0.377015
-0.450095
-0.437119
-0.544623
0.655839
0.655519
-0.213653
0.659487
0.660468
0.524539
0.536892
0.537803
0.538819
0.537807
0.539186
0.403993
-0.10767
-0.13898
-0.0878454
-0.0815087
0.0523262
-0.0539307
-0.0564969
-0.0513699
-0.0504033
0.454355
0.534141
0.530612
0.544167
0.553438
1.12092
1.09285
1.11898
1.03269
1.04914
0.987191
0.959795
0.795417
0.817619
0.760198
0.745664
-1.55456
-2.5043
-0.534626
-0.284437
-0.0106275
-0.00866964
-0.00326207
0.649011
0.650347
0.651174
0.653076
1.07949
-0.379108
-0.479824
0.536782
0.535594
0.543908
0.544609
0.540629
0.539719
-0.0517755
-0.0484377
-0.0515344
-0.0565958
-0.0548919
0.671142
0.672687
0.538188
0.535191
0.561092
0.581476
0.57156
0.277527
0.608575
0.62446
0.581405
0.740422
0.734728
0.743503
0.864165
0.828022
0.92729
0.950535
0.0173264
-9.60025e-05
-0.0153656
-0.0195247
-0.0182533
0.501088
0.493622
0.521198
0.508701
0.511211
0.25072
0.117485
0.418762
0.443575
-0.296299
-0.363299
-0.429564
-0.460247
-0.568647
0.612806
0.655354
0.654061
-0.223433
-0.151681
-0.285302
-0.0785979
-0.141699
0.514793
0.521815
0.516809
0.532374
0.526838
0.528802
0.541164
0.538233
0.539794
0.466073
0.589538
0.330275
0.2948
-0.24256
-0.1544
-0.242067
-0.0712817
-0.0691136
0.0663957
0.0920814
0.0390298
0.0272409
-0.0650204
-0.0591138
-0.061719
-0.0487292
-0.0479892
0.447086
0.435843
0.467057
0.474627
0.520469
0.521974
0.526495
0.52436
0.910595
0.933065
0.940524
0.914175
-3.49227
-6.27113
0.0395376
0.175632
-0.00677385
-0.00942701
0.00195527
-0.00590776
0.000161263
-0.0019871
-0.00809218
-0.00952808
-0.00458332
-0.00330116
0.643654
0.644579
1.00179
1.00884
0.977281
0.930202
0.525009
0.527078
0.532571
0.528456
-0.0474891
-0.0474705
-0.0471902
0.6634
0.668632
0.666196
0.238925
0.148953
0.328718
0.357938
0.63695
0.625716
0.635222
0.64263
0.67866
0.957979
0.976138
0.974373
0.982605
1.02657
1.04292
1.00837
0.48048
0.490492
0.485422
0.524204
0.52201
0.522891
0.519275
0.520217
0.518452
-0.0328142
-0.412412
0.49093
0.507689
0.493202
0.495471
0.692899
0.771473
0.652589
0.653858
0.653543
-0.00917748
-0.0676893
0.249929
0.215805
0.386485
0.422991
0.401915
0.881967
0.841922
0.892164
0.865484
0.826626
0.853111
-0.364041
-1.86176
-0.981899
0.524475
0.339446
0.426716
0.00903608
-0.00760595
-0.00308322
1.00154
1.07373
0.645301
0.820136
0.82274
0.712669
0.741852
0.802228
0.727744
0.7628
0.796632
0.774497
0.568733
0.50404
0.52009
0.840487
0.896153
0.118585
0.0566
0.0128252
0.111018
0.168577
0.142539
1.0337
0.94982
1.01995
0.534952
0.535675
-0.00524509
-0.0180885
0.539926
0.539982
-0.0125714
-0.00162041
0.409052
-0.831509
0.0972558
0.528516
0.518394
0.53554
-0.092837
0.355485
-0.0528623
0.0476311
-0.00914045
0.530077
0.465497
0.424521
0.000331885
-0.019818
-0.051362
-0.213065
0.532622
0.530927
0.535007
0.535947
0.536629
-0.0188248
-0.0145675
-0.0103468
-0.048168
-0.0412851
-0.0536961
0.499423
0.51888
-0.170867
0.535154
0.53729
0.537107
0.530375
0.536004
0.534258
-0.0106429
-0.0155968
-0.0178826
0.218965
0.351499
0.647435
0.733351
0.6202
0.396547
0.161979
0.551492
0.614079
0.520564
0.67323
0.650866
0.656182
0.16277
0.012387
0.171652
0.113445
0.526379
0.525104
0.516647
0.513604
0.530407
0.528523
0.53308
0.530105
0.533055
0.534435
-0.0492168
-0.0755323
-0.0848699
-0.151767
0.310205
0.57122
0.254772
0.284176
0.141916
-0.0472039
-0.049018
-0.0506257
-0.0590935
0.000899214
-0.0247943
0.0422686
0.0424912
0.0141646
-0.01155
-0.00905564
-0.0200705
-0.0143965
0.523326
0.523329
0.5278
0.536514
0.475175
0.478961
0.443745
0.464524
0.449759
0.388369
0.423764
0.398946
-0.00564567
0.00286318
-0.00256692
-0.0178436
-0.0145508
-0.0337472
-0.0306455
-0.0260792
-0.021985
-0.0288547
-0.045812
-0.048371
-0.171139
-0.287056
0.988211
0.909005
0.137148
0.521767
0.528227
0.524985
0.529919
0.533047
0.533843
0.531549
0.528095
0.519105
0.520542
0.517373
0.51848
-0.102092
-0.243729
-0.0720914
-0.146946
0.145761
0.628189
0.363395
0.298589
0.293977
0.522978
0.915776
0.698612
0.667166
0.665207
-0.3438
0.0447333
-0.280221
0.334167
0.161779
0.649045
0.696506
0.716064
0.665612
0.619434
-0.100237
0.556064
-0.0747073
-0.0222444
0.179534
0.0549238
0.658668
0.638923
0.646396
0.649786
0.662585
0.641809
0.62427
0.624349
0.64466
0.64894
0.482423
0.249618
0.200137
0.161677
0.642777
0.515917
0.565415
0.489464
0.521701
0.524214
0.522869
0.504262
0.511861
0.507373
0.513949
0.517601
0.526128
0.526611
0.521864
0.523992
-0.0561147
-0.0625083
-0.0248705
-0.13536
-0.128105
-0.190269
-0.0589393
0.0741833
0.0359255
0.237077
0.340969
0.0517939
-0.0568327
-0.0294073
0.0124272
0.179566
0.208124
0.0741135
0.162008
0.153208
0.134182
0.237175
0.240516
-0.0298682
-0.0313089
-0.0361828
-0.038415
0.0187535
0.0902623
0.0994196
-0.00769132
-0.0132274
-0.0453355
-0.0452836
-0.0223784
-0.0276665
-0.0226051
0.00477093
-0.052764
-0.0203303
-0.00643822
-0.0051153
-0.00580238
-0.0113147
0.518285
0.519855
0.520206
0.527914
0.540309
0.55488
0.521295
0.497426
0.488198
0.491213
0.464118
0.4744
0.470247
0.4838
0.504988
0.513666
0.511987
0.514821
0.497067
0.498847
0.485352
0.488992
0.46413
0.444695
0.432728
-0.0424989
-0.00390144
-0.0120934
-0.0378195
-0.00817886
-0.020138
-0.0112537
0.0078112
-0.00868776
-0.00997247
-0.0201452
-0.0264232
-0.0260643
-0.0730941
0.0136556
-0.18467
-0.220011
-0.293196
0.890437
1.01466
0.809688
0.582613
0.602978
0.84641
0.930789
0.542865
0.735213
0.758363
0.587568
0.854725
0.526617
0.526212
0.523812
0.523292
0.524512
-0.00701194
0.0994649
0.0971866
0.160925
0.27748
0.389043
0.320195
0.194841
0.324797
0.327238
0.621258
0.633434
0.588542
0.612571
0.61309
0.425035
0.50067
0.552333
0.513562
0.565418
0.587073
0.541078
0.574045
0.523444
0.478998
0.475186
0.424675
0.444348
0.419893
0.403013
0.516299
0.49346
0.504264
0.494642
0.515637
0.543468
0.540299
0.56213
0.577341
0.498019
0.45288
0.46228
0.492459
0.453937
0.469541
0.485535
0.233376
0.135544
0.218384
-0.0664035
0.00391324
-0.00850504
-0.0571997
-0.00573653
0.278422
-0.412233
-0.389181
-1.01589
0.504595
0.953797
0.589122
0.565351
0.663834
0.649892
0.656182
0.673198
0.670734
0.631393
0.640379
0.645152
0.595102
0.615796
0.635266
0.631158
0.524583
0.381567
0.381118
0.328639
0.198753
0.238767
0.434567
0.358912
0.284043
0.284134
0.456319
0.342782
0.412933
0.44615
0.377386
0.332094
0.534834
0.60098
0.594439
0.567847
0.478273
0.490288
0.514831
0.54824
0.571943
0.604763
0.513369
0.519317
0.520549
0.518016
0.515285
0.518391
0.518683
0.521263
0.521838
0.524863
0.523935
-0.052792
-0.0383395
-0.0508279
-0.063043
-0.0182359
-0.0205301
0.0232355
0.0115643
-0.0155672
-0.011425
-0.0330476
-0.0371049
-0.0337166
-0.025838
0.102891
0.115653
0.101033
0.0609162
0.250407
0.380518
0.454818
0.329846
0.223786
0.248533
0.266914
-0.0121845
0.013507
0.000732217
0.0404277
0.0322752
-0.0393392
-0.0431235
-0.0391876
-0.0311804
-0.0230576
-0.0386084
-0.044133
-0.0351148
-0.0396875
-0.0423792
-0.0461045
0.499702
0.493169
0.494731
0.488668
0.4874
0.501682
0.506015
0.50796
0.51344
0.515849
0.505815
0.511217
0.515219
-0.0121695
-0.0353074
-0.0387363
-0.0300774
-0.0319271
-0.0292854
-0.0308707
0.123626
0.0545229
0.0582814
0.0111133
-0.121227
-0.0632345
0.492189
0.491035
0.480335
0.721338
0.570564
0.491492
0.58863
0.694258
0.276374
0.472993
0.308178
0.888464
0.78517
0.931456
0.542327
0.246228
0.410737
0.452939
0.266752
0.34272
0.324318
0.213444
0.244118
0.282642
0.38142
0.266368
0.243272
-0.000310073
0.190562
0.302331
0.284198
0.408628
0.469221
0.267389
0.187108
0.142054
0.605705
0.625371
0.638461
0.611002
0.632811
0.581407
0.573665
0.588802
0.596825
0.591037
-0.744094
-0.450367
-1.39743
-0.720598
-0.264921
0.535182
0.507675
0.769737
0.645535
0.67966
0.664252
0.623599
0.593558
0.618412
0.640571
0.339637
0.450133
0.425353
0.43117
0.333991
0.264149
0.562408
0.559684
0.592903
0.616418
0.588039
0.618344
0.511182
0.510908
0.510369
0.506604
0.504865
0.507223
0.0589507
0.0265836
0.0676717
0.0501132
0.0276427
0.015465
-0.011147
-0.0211676
-0.028169
-0.0276341
-0.0132728
-0.00915877
0.172311
0.109548
0.0300332
0.0588448
-0.00194678
-0.0703297
-0.0895576
0.0160094
0.112129
0.102318
0.405463
0.654849
0.474908
0.642335
0.484988
0.540715
0.468755
0.460042
0.484947
0.380265
0.46066
0.251685
-0.256655
-0.165878
0.795192
0.805733
0.581476
0.406928
0.174557
0.351674
0.540878
0.470467
0.505855
0.574979
0.561956
0.0308279
0.088027
0.37629
0.603051
0.24172
0.232706
0.22609
0.410894
0.328828
)
;

boundaryField
{
    wall-4
    {
        type            zeroGradient;
    }
    velocity-inlet-5
    {
        type            zeroGradient;
    }
    velocity-inlet-6
    {
        type            zeroGradient;
    }
    pressure-outlet-7
    {
        type            fixedValue;
        value           uniform 0;
    }
    wall-8
    {
        type            zeroGradient;
    }
    frontAndBackPlanes
    {
        type            empty;
    }
}


// ************************************************************************* //
