/*--------------------------------*- C++ -*----------------------------------*\
| =========                 |                                                 |
| \\      /  F ield         | OpenFOAM: The Open Source CFD Toolbox           |
|  \\    /   O peration     | Version:  4.0                                   |
|   \\  /    A nd           | Web:      www.OpenFOAM.org                      |
|    \\/     M anipulation  |                                                 |
\*---------------------------------------------------------------------------*/
FoamFile
{
    version     2.0;
    format      ascii;
    class       surfaceScalarField;
    location    "71";
    object      phi;
}
// * * * * * * * * * * * * * * * * * * * * * * * * * * * * * * * * * * * * * //

dimensions      [0 3 -1 0 0 0 0];

internalField   nonuniform List<scalar> 
1300
(
3.75095
5.62643
-3.32029
3.75095
-7.76016
5.62643
-4.39177
4.39177
-0.356652
0.356652
1.87639
1.87457
-2.68793
2.68793
-2.0804
2.0804
-2.52353
2.52353
-5.24639
5.24639
-5.06839
5.06839
4.65413
-4.65413
-6.31419
6.31419
-0.939537
0.939537
-3.68421
3.68421
3.16961
-3.16961
-2.06075
2.06075
0.0412976
-0.0412976
-0.553473
4.30443
3.19748
3.19748
-2.0143
2.0143
-4.86859
4.86859
6.21797
-6.21797
5.30611
-5.30611
-1.98582
-2.46193
1.8087
-11.4964
-5.95146
-5.95146
-8.44039
8.44039
-2.81396
2.81247
2.94629
-2.94629
-1.77269
1.77269
-4.35353
-0.0382387
-4.35353
4.36203
0.0297443
4.36203
-0.449677
0.0930252
-0.449677
3.99677
-3.99677
0.267123
0.0895286
0.267123
3.06536
-3.06536
-1.87712
3.7535
1.87384
-1.8719
6.17632
-1.87906
3.75362
-6.0143
6.0143
-2.93359
0.245667
-2.93359
2.47423
0.213696
2.47423
-6.85007
6.85007
-2.11208
0.0316737
-2.11208
2.05352
0.0268777
2.05352
2.88141
-2.88141
-2.63049
0.106962
-2.63049
2.39223
0.131303
2.39223
0.353525
5.2729
-5.97996
8.79243
-5.2729
0.0265101
5.20834
0.0380518
5.20834
-5.10582
0.0374249
-5.10582
5.01336
0.0550388
5.01336
4.73932
-0.0851874
4.73932
-4.77223
0.1181
-4.77223
-3.3704
-4.05178
-6.46435
0.15016
-6.46435
-1.03354
0.0940037
-1.03354
0.822813
0.116725
0.822813
-3.68561
3.68561
-4.10449
0.420274
-4.10449
3.12397
0.0456389
3.12397
1.86849
1.88246
5.61944
-5.61944
2.44984
-2.02984
-0.0309046
-2.02984
-2.1273
-3.17881
2.1273
-0.0665478
-0.183535
0.224833
-0.183536
3.15944
0.0380421
3.15944
2.23572
0.156502
-2.23572
0.221429
3.2766
-3.2766
1.33934
0.674958
1.33934
-5.56511
5.56511
4.95594
0.0574152
-4.95594
0.0873471
6.15606
0.0619159
6.15606
-6.19951
-0.0184594
-6.19951
2.52627
-4.98819
-2.62036
6.13267
0.181528
-6.13267
0.181206
2.91823
0.0280644
2.91823
-2.91971
2.91971
-2.98475
0.0384577
-2.98475
-2.17134
0.398645
-2.17134
1.47428
0.298407
1.47428
-4.25486
-0.098668
-4.25486
-4.25195
0.147463
4.25195
0.110076
1.1297
-1.1297
-0.583341
0.133664
-0.583341
-4.12022
-0.134647
4.12022
-0.123443
-3.88661
-0.110163
-3.88661
-3.02455
0.0398036
3.02455
0.0408068
3.11289
0.04655
-3.11289
0.0475269
-1.87082
3.75328
-1.88014
3.75398
-5.63449
-0.379816
-5.63449
6.32532
-0.311015
6.32532
3.32593
0.358283
-3.32593
0.392335
2.30415
0.170081
2.30415
-6.81189
-0.0381761
-6.81189
6.8353
0.0147687
6.8353
2.1848
0.119351
-2.1848
0.0727227
2.03572
0.0178083
2.03572
2.90139
-0.0199772
2.90139
-2.87554
-0.00587703
-2.87554
2.79328
-2.79328
2.71775
0.0755233
-2.71775
0.087262
-11.133
11.1145
-0.0351238
-11.0979
5.17322
5.17322
4.16587
0.573448
4.16587
-4.99022
0.217986
-4.99022
2.68463
-5.30499
3.08313
-6.45353
4.66327
-16.1596
4.29765
-8.34943
6.70275
-6.70275
6.59237
0.110382
-6.59237
0.128014
-1.15231
0.118771
-1.15231
-3.08362
-0.601994
-3.08362
4.32763
-0.642022
4.32763
-3.02812
3.02812
-3.07742
0.0493029
3.07742
0.0465469
2.02194
0.013778
-2.02194
-0.00790711
0.214396
0.0527272
-0.214396
0.0308604
3.48973
-0.213127
3.48973
-3.07836
-0.198247
-3.07836
-1.24968
0.0973651
1.24968
0.0896601
-5.81427
0.249154
-5.81427
-11.1908
0.0929741
-11.1528
-6.10654
-6.10654
2.33385
11.1263
-2.89353
0.0179889
2.89353
0.0247026
2.97519
0.0529288
-2.97519
0.0554767
-2.85973
0.0664548
2.85973
0.0599799
-2.54599
0.37465
-2.54599
-1.07278
1.07278
-1.23829
0.165506
1.23829
0.235997
1.40171
-0.272007
1.40171
0.7083
0.114513
-0.7083
0.124959
-3.78711
-0.0994998
-3.78711
6.56043
-0.23511
6.56043
-2.96343
-0.114924
2.96343
-0.0620412
-0.0333544
11.1479
-5.13986
0.0340451
5.13986
-11.2098
11.2438
-3.21634
0.670351
3.21634
0.949534
5.28429
0.280823
-5.28429
0.294072
6.78601
0.0492933
-6.78601
0.0832585
-2.59109
-0.492524
-2.59109
-5.05285
-0.581636
5.05285
-0.725217
-11.4747
-0.203402
11.6781
-11.4197
6.01767
0.138389
-6.01767
11.3822
-1.03057
-0.0991324
1.03057
0.0422109
1.72926
-0.327555
1.72926
3.68576
-0.196026
-3.68576
-0.101353
-6.7148
-0.0970891
6.7148
-0.154375
-2.14628
-0.444811
2.14628
-0.417018
-4.26712
4.30516
1.9092
-2.38615
-2.60204
-5.56496
1.85185
1.90143
4.30169
-10.1412
-6.01844
-9.95999
7.26177
-6.9677
-9.24228
9.15709
7.88835
-7.99851
-5.78483
5.83138
6.48289
-6.44209
1.87881
1.87469
8.02209
-7.77642
-15.5947
15.2149
7.54099
-7.50932
15.7434
-15.7815
-17.8249
17.8742
-5.70521
5.81217
-6.7402
6.73433
-6.9755
6.91346
-2.83425
-3.61928
13.1006
-12.9504
8.57474
-8.60565
-8.61602
9.03629
3.3826
0.922566
3.42915
-1.88215
3.76096
-1.87147
3.78068
2.7208
-5.55505
2.58418
-5.18622
4.35461
4.22014
-4.28806
-1.2769
-5.92477
5.95283
-5.81311
5.87309
9.13284
-9.17108
-1.88517
3.75986
-1.86881
3.77024
-3.42502
-2.35982
3.37938
0.922309
8.06387
5.03672
-8.2454
-1.71459
-8.03961
7.84358
-8.23045
8.0322
-0.433753
5.81889
-5.38514
4.43484
-1.56285
7.38175
5.69892
5.9169
5.86632
-5.5855
1.10138
-6.48651
-6.39917
-2.26747
2.40113
2.17966
-2.09013
6.13892
1.74943
6.01548
-5.76045
-2.23806
-5.85995
3.82064
2.01074
3.86994
4.07843
2.40446
4.11824
3.03045
-3.03596
0.00551069
-3.05663
6.08708
0.723901
-5.41645
-4.49414
4.97656
3.04553
5.19025
-5.55457
-2.22185
-5.16224
-9.53304
-6.06163
-10.1147
10.0756
5.1393
9.76454
-11.9446
11.7902
4.80303
2.73796
4.82991
-4.94413
-2.56519
-4.8714
11.6357
-2.63928
-8.9964
-10.3051
-7.5198
10.2903
5.45306
10.948
6.92615
11.0313
4.42004
7.21563
-9.87311
2.3533
-3.86786
-1.83735
-3.7806
3.67089
2.14128
3.80219
-4.21749
-2.52272
-4.1995
-4.29573
-2.67977
4.31571
2.41862
-4.4171
-3.81334
4.53203
2.38143
4.03616
-10.0546
4.31327
-7.93255
-9.18526
-3.76517
-9.05725
3.51837
2.6086
-6.12697
-2.03669
8.49981
-4.27967
7.22291
-5.18088
-3.42476
-5.18879
-6.8805
-1.73552
-6.73304
-8.87514
8.38261
-9.17062
8.5286
12.5116
-5.64242
-6.86918
-3.96845
-2.47364
3.92092
-0.491773
-3.71048
3.71599
0.0504748
3.83115
4.75372
4.26195
-3.88405
-1.92906
-3.82858
3.82397
2.04912
3.89042
6.8364
2.29643
6.86615
-6.60816
-2.56292
-6.70683
9.03714
-8.6385
2.8342
-2.73684
5.39715
2.63505
-5.18402
-2.85559
6.21163
-3.21842
-2.99321
-12.1984
10.5286
1.66982
-4.81669
-0.381854
-0.423152
-5.48833
-3.75395
5.37023
0.546677
11.0753
7.32134
-5.51263
5.76178
6.16547
6.22288
-0.176283
5.80538
-5.13503
5.25508
-2.5971
-2.65798
5.46998
-5.60462
-1.23685
-5.51868
4.28183
0.410852
1.48589
-1.26106
-1.78894
-0.478531
-1.66398
1.2826
0.897055
1.33533
0.950038
1.45109
-2.96004
0.546013
2.41403
-2.01
-1.54412
-3.81966
-1.14644
4.9661
5.73738
2.10621
-5.63602
-0.223931
2.53005
-2.41332
-0.775783
-3.04388
2.25375
-3.02953
-3.6721
-2.07668
5.74878
-3.36963
-0.458943
3.31671
0.553235
-3.82719
-2.09758
3.78873
0.329506
-3.12838
6.19113
-3.06275
-5.05743
2.52758
3.5595
4.53832
-4.78951
2.44765
2.34185
-1.23001
4.24691
0.943342
4.41699
-6.93356
4.71171
5.8034
3.2329
-6.16168
0.999441
-5.93412
8.55182
-7.37381
-1.17801
4.17269
4.37914
7.0612
5.4504
-5.67245
12.7337
-1.20364
-6.17017
7.13777
-3.90487
4.84769
-8.75256
-10.2981
4.12792
-9.12941
10.9006
-1.77123
-3.61934
-8.32529
12.7487
-1.20414
-11.5446
8.5604
-4.27964
-4.38321
8.66285
-6.91891
6.9484
-1.9937
-4.9547
-10.0921
-5.68948
10.1891
1.60111
-9.9207
12.274
-2.70507
4.11641
0.713493
4.13422
3.30084
-5.48498
2.18414
3.61807
-5.61177
2.08045
-7.56543
-6.72262
12.0564
-5.33379
-10.4878
-9.50482
-0.982968
2.53484
9.73916
-9.461
7.42043
2.04057
3.29986
0.59056
-3.37539
-0.405211
0.23806
4.51909
-4.75715
4.04026
4.19676
3.27092
1.24817
3.84546
2.10737
-3.87016
-0.329338
-4.16393
1.48416
-1.74531
-3.69423
5.17839
-4.0677
0.373466
-2.74576
-3.49741
6.24317
-4.58311
3.03551
3.15562
5.08464
-4.913
1.41559
-2.39268
-2.52032
2.65211
-4.39742
1.99277
3.18562
4.3742
0.560858
5.87124
6.18518
-8.47984
0.547295
11.2219
-9.50731
2.46171
8.56955
-9.88214
0.377315
-8.67994
0.996346
-5.27602
-5.13063
5.19119
-6.92671
-3.56137
6.21187
0.654281
-6.32194
-0.411093
-6.03251
-2.84263
-6.47732
-3.04166
-6.12896
-8.71411
-1.65166
-7.06245
6.73095
-6.67775
-3.43693
7.40296
1.12563
-7.40808
7.30894
-7.48639
7.15884
0.0954021
3.62059
4.35735
1.88371
-2.39058
4.27429
-5.11964
7.41607
-8.71598
3.59634
4.19878
-6.7617
-4.5172
5.02098
4.01616
5.31939
8.88066
-10.3465
1.46584
-10.6498
11.9829
-1.33316
-16.4085
5.7587
-7.52781
2.43694
0.397269
2.55571
0.54338
2.49846
-3.04184
-2.19346
-2.1038
-2.43836
-3.46595
5.90431
1.09229
-3.52909
2.4368
-3.5667
4.65899
-0.214643
-3.31445
5.27301
-2.77454
5.67028
-3.78134
1.88893
3.43709
5.75281
-2.31572
4.39515
-1.76009
1.92639
-4.24212
-1.53956
-2.9604
5.10168
-3.28278
3.65624
-0.344525
4.00077
-4.04762
0.829201
-0.776702
3.42006
3.64148
4.31625
-3.06808
2.91907
-4.67917
-1.32304
-4.11831
-0.932688
-0.257952
-3.70185
3.95981
5.97863
-6.23658
-5.23248
9.52448
-4.292
7.69096
-5.37985
-2.31111
-4.25122
-4.38728
3.87657
1.92881
9.61977
0.209284
-5.58913
-4.92574
-3.97621
3.10426
2.15082
-1.75045
3.42027
2.1736
-0.687711
0.426529
0.908803
1.7835
-1.35697
0.321396
1.4621
-0.939663
1.72039
0.809656
-1.8349
0.170925
-1.31012
3.56387
1.1039
-2.00096
0.643988
0.97665
-3.57375
5.05346
-2.68345
-2.37001
6.03011
1.13836
-3.82181
4.38032
-3.96946
2.38833
-3.53477
-1.43348
-5.40294
-3.65351
-2.52183
4.95864
-3.38248
5.48869
1.28653
-5.26475
6.55129
-3.72736
1.65068
-3.05695
3.86661
-0.93163
-2.12532
2.90351
2.84527
-3.07366
0.029781
-0.170147
2.41079
-2.58094
-0.618745
-2.62875
-4.5735
4.903
-2.10525
4.5529
2.16904
-1.91704
6.46994
1.80881
-3.72585
-3.24862
-3.70756
-1.384
3.15433
-0.583648
-4.28776
-5.53835
4.1684
0.248589
-7.06135
7.87774
-0.816388
-4.01582
-0.695892
4.86858
-6.08387
0.472107
-4.00343
3.87431
4.81765
5.06624
-11.3264
-0.218221
-6.18708
1.12355
-7.31063
5.50269
-3.53875
7.66667
-10.3205
6.88361
-9.1949
6.48866
-0.821971
6.24194
-4.0578
2.75446
-8.44395
-6.84284
5.53258
-2.79463
6.24608
-3.16316
9.40923
-5.86822
5.31977
4.08947
-1.02822
-4.16057
-5.30719
4.27897
0.0125703
4.14679
4.98037
-2.873
4.65103
2.26911
-4.66179
-2.12832
-6.49523
1.83345
-3.33962
-1.92102
3.75446
3.16362
3.75418
1.23414
-3.34897
7.19081
-8.17378
-1.85702
-3.2736
5.28867
-1.0097
3.41212
-6.68572
-1.8639
4.79325
-0.782402
-4.01085
0.849166
-4.41054
1.67483
-6.08536
5.25188
-5.66297
2.22181
-9.74962
-5.18626
-5.14405
-2.25854
-5.22785
-7.56778
5.30925
-1.80908
5.49986
-8.50227
7.71987
-3.48064
8.78989
-5.42721
-1.05011
5.84423
1.31461
10.1045
0.219791
-4.737
-1.9175
3.84841
-1.93091
1.18675
-3.48206
0.366349
2.49102
3.53909
-6.77285
0.0111478
-4.72585
-3.91631
7.93248
5.60817
11.5868
1.2403
9.11313
-1.18065
10.3534
4.13874
4.37474
-2.98869
4.45453
0.971111
4.56746
-0.925905
2.81484
1.6298
1.7238
0.689516
2.30322
1.33826
3.13242
0.090579
-2.01322
4.62044
-8.59664
-0.968699
-8.0232
1.1339
5.70758
-4.57369
2.94686
-0.796033
1.01595
-0.1049
-1.24171
1.34661
-2.76288
-1.92942
-0.467318
-1.69417
2.33816
1.8697
-1.87084
-0.892038
0.358287
-4.0118
3.17648
-3.1467
-0.301431
6.24986
-2.82102
0.240087
-1.17035
-2.38866
-2.86719
2.69626
6.17603
0.293905
3.11328
5.19691
3.09933
0.226334
3.88266
-5.65389
-3.68277
-5.87211
-0.369419
4.49916
1.75912
7.98004
5.84859
4.8389
-1.84682
-10.0206
6.51572
-2.06118
5.18256
-1.17171
-4.91365
5.04639
2.36968
-5.70067
0.0376995
-4.87595
-6.93714
-0.512886
8.23276
-9.59161
8.5415
5.69887
1.36358
-4.40425
-0.739805
4.23874
0.135993
10.4894
-1.12874
-6.7185
7.84725
-4.57884
3.61014
0.746366
2.67391
2.09298
1.29694
-5.42156
-9.99525
-2.05718
-1.51657
-4.42719
0.538911
-2.40861
6.22129
-2.61114
3.91018
5.2361
6.25205
-2.13058
-4.106
6.42258
-2.5124
3.73965
)
;

boundaryField
{
    wall-4
    {
        type            calculated;
        value           uniform 0;
    }
    velocity-inlet-5
    {
        type            calculated;
        value           uniform -3.75095;
    }
    velocity-inlet-6
    {
        type            calculated;
        value           uniform -5.62643;
    }
    pressure-outlet-7
    {
        type            calculated;
        value           nonuniform List<scalar> 8(3.32029 7.76016 4.44775 9.68767 7.42218 5.14662 5.76776 8.96092);
    }
    wall-8
    {
        type            calculated;
        value           uniform 0;
    }
    frontAndBackPlanes
    {
        type            empty;
        value           nonuniform 0();
    }
}


// ************************************************************************* //
