/*--------------------------------*- C++ -*----------------------------------*\
| =========                 |                                                 |
| \\      /  F ield         | OpenFOAM: The Open Source CFD Toolbox           |
|  \\    /   O peration     | Version:  4.0                                   |
|   \\  /    A nd           | Web:      www.OpenFOAM.org                      |
|    \\/     M anipulation  |                                                 |
\*---------------------------------------------------------------------------*/
FoamFile
{
    version     2.0;
    format      ascii;
    class       volScalarField;
    location    "25";
    object      p;
}
// * * * * * * * * * * * * * * * * * * * * * * * * * * * * * * * * * * * * * //

dimensions      [0 2 -2 0 0 0 0];

internalField   nonuniform List<scalar> 
2200
(
0.415439
0.393941
0.378035
0.362368
0.347759
0.335242
0.324883
0.316773
0.311047
0.308001
0.308338
0.311969
0.318138
0.326556
0.337136
0.349819
0.364538
0.380301
0.396261
0.417777
0.347871
0.344613
0.341695
0.337581
0.332121
0.325653
0.319023
0.313037
0.30847
0.305995
0.306315
0.309428
0.314457
0.320789
0.327663
0.334299
0.339898
0.34407
0.347002
0.350294
0.307932
0.308157
0.310219
0.311573
0.311982
0.311134
0.309161
0.306478
0.303864
0.302261
0.302636
0.304915
0.30803
0.311081
0.313306
0.314301
0.313974
0.312845
0.310996
0.310761
0.285454
0.286902
0.28953
0.292016
0.294463
0.296483
0.297654
0.29789
0.297502
0.297071
0.297523
0.298696
0.299658
0.299856
0.299015
0.297249
0.294996
0.292618
0.289985
0.288573
0.271254
0.273231
0.276061
0.278895
0.281746
0.284573
0.286996
0.288789
0.289939
0.290568
0.291082
0.291333
0.290873
0.289599
0.287563
0.285028
0.282376
0.279617
0.276824
0.274877
0.263971
0.265568
0.267778
0.270334
0.273022
0.275682
0.278215
0.280576
0.282478
0.283761
0.284372
0.284158
0.28308
0.281322
0.279238
0.276903
0.274446
0.272031
0.269895
0.268312
0.260588
0.261582
0.262885
0.264833
0.267053
0.269246
0.271418
0.273666
0.275797
0.277478
0.278215
0.277841
0.276711
0.275207
0.273563
0.271767
0.269841
0.268089
0.266884
0.265895
0.258342
0.258983
0.259667
0.261046
0.262733
0.264454
0.26617
0.267991
0.269871
0.271603
0.272478
0.272334
0.271662
0.270767
0.26971
0.2685
0.267178
0.26605
0.265484
0.264836
0.255655
0.256098
0.256565
0.257686
0.259081
0.260555
0.262049
0.263571
0.265133
0.266673
0.267773
0.268192
0.268118
0.267716
0.267065
0.266167
0.265193
0.264359
0.264025
0.26358
0.251944
0.252185
0.252641
0.253812
0.255265
0.256858
0.258521
0.260163
0.261755
0.263305
0.264694
0.265567
0.265838
0.265573
0.264911
0.264041
0.263129
0.262311
0.261992
0.261734
0.247887
0.247982
0.248434
0.24959
0.251054
0.252748
0.254652
0.256664
0.258691
0.260637
0.262329
0.263353
0.263586
0.263272
0.262622
0.26186
0.261016
0.26027
0.259987
0.259882
0.244042
0.244054
0.244459
0.245412
0.246688
0.248237
0.250051
0.252135
0.254518
0.256983
0.259073
0.260337
0.260787
0.260818
0.260561
0.26009
0.259547
0.259086
0.258899
0.258877
0.240268
0.24019
0.240569
0.241292
0.242397
0.243761
0.245364
0.247316
0.24973
0.252526
0.255171
0.257107
0.258348
0.259003
0.259239
0.259203
0.259054
0.258884
0.258781
0.258772
0.236363
0.236282
0.236589
0.237242
0.23834
0.239732
0.241411
0.243493
0.246057
0.249178
0.252429
0.255074
0.256949
0.258114
0.258761
0.259097
0.259236
0.259257
0.259234
0.259228
0.232085
0.23208
0.232337
0.233001
0.234179
0.235722
0.237706
0.24023
0.243334
0.24711
0.251094
0.25433
0.256603
0.258117
0.259149
0.259782
0.260097
0.260239
0.260282
0.260278
0.227025
0.226996
0.227304
0.228038
0.229253
0.230907
0.233153
0.236155
0.239984
0.244726
0.249737
0.253819
0.256684
0.258719
0.260175
0.261092
0.261643
0.261967
0.262081
0.262066
0.220992
0.220948
0.221281
0.222021
0.223246
0.22503
0.227545
0.230987
0.235558
0.241392
0.247704
0.252981
0.256817
0.259598
0.261592
0.262951
0.263839
0.264357
0.264537
0.2645
0.21347
0.213422
0.213787
0.214682
0.216162
0.218293
0.221302
0.225439
0.230974
0.238091
0.245929
0.252568
0.257519
0.261107
0.263687
0.265473
0.26667
0.267355
0.267607
0.267557
0.204537
0.204472
0.204911
0.206006
0.20787
0.210599
0.214429
0.219644
0.226563
0.235378
0.244997
0.253153
0.25921
0.263622
0.266773
0.268961
0.270429
0.271247
0.27155
0.271485
0.193693
0.193646
0.194243
0.19566
0.198037
0.201507
0.206367
0.212986
0.221727
0.232733
0.244537
0.254492
0.261835
0.267179
0.270964
0.273601
0.275341
0.276305
0.276679
0.276604
0.180427
0.180333
0.181082
0.182906
0.185969
0.190424
0.196652
0.205102
0.216126
0.22982
0.244301
0.256399
0.265301
0.271771
0.276376
0.279598
0.281734
0.282913
0.283349
0.283241
0.163844
0.163798
0.164855
0.167237
0.171221
0.177052
0.185167
0.196001
0.209912
0.226861
0.244484
0.259079
0.269811
0.277614
0.283205
0.287108
0.289664
0.291069
0.291594
0.291463
0.143046
0.142939
0.144397
0.147663
0.153081
0.160965
0.171677
0.185739
0.203301
0.224143
0.245417
0.262863
0.275666
0.284967
0.291632
0.296326
0.299448
0.301165
0.301776
0.301587
0.115605
0.11578
0.118116
0.12289
0.130603
0.141544
0.156051
0.174361
0.19642
0.221878
0.247302
0.26788
0.282919
0.293901
0.301859
0.307499
0.311231
0.313243
0.313938
0.313716
0.0791292
0.0795687
0.0834622
0.0911323
0.10272
0.118558
0.138238
0.161899
0.189395
0.220159
0.250147
0.274141
0.291654
0.304475
0.313845
0.320595
0.325151
0.327644
0.328459
0.328098
0.0302325
0.0307919
0.0382499
0.0512727
0.0693016
0.0919636
0.118389
0.148712
0.182561
0.219215
0.254126
0.2817
0.301797
0.316612
0.327587
0.335622
0.341103
0.343977
0.344774
0.344329
-0.0356847
-0.0325809
-0.0165401
0.00552992
0.0323504
0.0631785
0.0975187
0.135373
0.176274
0.21957
0.260099
0.291985
0.315468
0.333035
0.346286
0.356298
0.363466
0.367043
0.367841
0.367571
-0.111906
-0.1012
-0.07395
-0.0420562
-0.00552478
0.0341912
0.0766893
0.122301
0.170548
0.220909
0.267708
0.304698
0.332286
0.353317
0.369589
0.382143
0.39177
0.396923
0.398631
0.398948
-0.178451
-0.162137
-0.128148
-0.0880009
-0.0423671
0.00591678
0.0565113
0.109837
0.165378
0.222672
0.275514
0.317248
0.3483
0.372177
0.390774
0.405202
0.41599
0.42248
0.424737
0.424769
-0.227846
-0.213581
-0.174379
-0.12848
-0.0758604
-0.0204785
0.0374222
0.0979764
0.160437
0.224255
0.282586
0.328262
0.362197
0.388151
0.408412
0.424093
0.435477
0.44205
0.444331
0.444509
-0.268535
-0.255233
-0.212797
-0.163144
-0.105336
-0.0443132
0.0198011
0.086685
0.155324
0.225015
0.288344
0.337576
0.373847
0.401117
0.421895
0.437809
0.449562
0.456393
0.458966
0.459188
-0.303713
-0.29011
-0.245467
-0.193105
-0.131271
-0.065691
0.00357699
0.0758002
0.149865
0.225005
0.292927
0.345195
0.382914
0.410876
0.432249
0.448586
0.46041
0.467593
0.470354
0.470561
-0.334464
-0.32078
-0.274213
-0.219591
-0.15445
-0.0851039
-0.0115436
0.0652779
0.144237
0.224348
0.296252
0.350747
0.38983
0.418735
0.440391
0.456871
0.46902
0.476304
0.479224
0.479393
-0.362189
-0.348478
-0.300256
-0.243464
-0.175468
-0.103028
-0.0258531
0.0549802
0.138274
0.222637
0.298161
0.355241
0.395962
0.425507
0.44765
0.464373
0.476414
0.483957
0.48654
0.48644
-0.387589
-0.373969
-0.324443
-0.265474
-0.194868
-0.119836
-0.0396023
0.0446934
0.131787
0.22011
0.299411
0.359257
0.401242
0.431841
0.454437
0.471226
0.483198
0.490466
0.493185
0.493149
-0.411572
-0.397653
-0.347159
-0.286191
-0.213217
-0.135908
-0.0530258
0.0342822
0.124786
0.217021
0.300204
0.362823
0.40671
0.438173
0.461074
0.477838
0.48983
0.49699
0.499737
0.49982
-0.43413
-0.420044
-0.368803
-0.306008
-0.231001
-0.151572
-0.0662914
0.0236997
0.117345
0.21325
0.300221
0.365977
0.412053
0.444476
0.46783
0.48478
0.49675
0.503698
0.506514
0.506593
-0.455431
-0.441355
-0.389554
-0.325265
-0.248528
-0.167086
-0.0795523
0.0129158
0.109494
0.208931
0.299952
0.369105
0.417052
0.450713
0.474746
0.491911
0.50394
0.510868
0.513476
0.513534
-0.475959
-0.46172
-0.409559
-0.344092
-0.265929
-0.182613
-0.0929377
0.00186106
0.101158
0.20393
0.298624
0.371042
0.421719
0.457278
0.482038
0.499408
0.511353
0.51797
0.520553
0.520548
-0.496196
-0.481381
-0.428935
-0.362472
-0.283158
-0.198192
-0.106557
-0.00960913
0.0921503
0.197856
0.296212
0.372405
0.426395
0.463952
0.489828
0.507385
0.519094
0.525514
0.52776
0.527622
-0.516134
-0.500511
-0.447751
-0.380365
-0.300115
-0.213772
-0.120442
-0.0215453
0.0824699
0.191028
0.293057
0.373025
0.430449
0.470841
0.498318
0.516268
0.527347
0.532906
0.534819
0.534597
-0.535624
-0.519259
-0.466069
-0.397753
-0.31669
-0.229234
-0.134503
-0.0339141
0.0721039
0.183034
0.287908
0.372053
0.433863
0.477793
0.507685
0.526299
0.53636
0.540729
0.541714
0.541398
-0.554477
-0.537564
-0.483888
-0.414656
-0.332848
-0.244489
-0.148648
-0.0467097
0.0609833
0.173948
0.282153
0.370833
0.436607
0.484719
0.517945
0.538338
0.547598
0.548162
0.547443
0.547827
-0.572683
-0.555391
-0.501187
-0.431073
-0.348564
-0.259459
-0.162746
-0.0597063
0.0494218
0.164542
0.275503
0.367215
0.437775
0.491006
0.528854
0.552522
0.562526
0.558876
0.553686
0.551326
-0.5902
-0.572601
-0.517906
-0.447
-0.363838
-0.27408
-0.176641
-0.072718
0.0376449
0.154418
0.267101
0.362046
0.437196
0.495915
0.540054
0.569265
0.58409
0.575238
0.569967
0.574701
-0.607052
-0.589157
-0.533989
-0.462396
-0.37864
-0.288302
-0.190264
-0.0856322
0.0256993
0.143547
0.257931
0.355591
0.43449
0.498791
0.549897
0.587303
0.611484
0.594062
0.549473
0.504547
-0.623163
-0.605037
-0.549458
-0.477323
-0.393094
-0.302283
-0.203764
-0.0986012
0.0133177
0.132042
0.247686
0.346634
0.428409
0.49815
0.556929
0.605299
0.64477
0.655488
0.675414
0.726099
-0.638506
-0.620323
-0.564402
-0.491904
-0.407371
-0.316258
-0.217473
-0.112104
2.83986e-05
0.119149
0.235312
0.335022
0.418609
0.491695
0.553734
0.603698
0.635829
0.639687
0.612438
0.620414
-0.653038
-0.634961
-0.578772
-0.506071
-0.421386
-0.330164
-0.231329
-0.125999
-0.0139858
0.105006
0.22103
0.320294
0.403005
0.475347
0.535759
0.580663
0.585269
0.545879
0.490085
0.481214
-0.666797
-0.64897
-0.592574
-0.519821
-0.435129
-0.343995
-0.24532
-0.140294
-0.028799
0.089545
0.204787
0.302837
0.38241
0.448258
0.5013
0.519605
0.491004
0.422458
0.35187
0.339562
-0.679809
-0.662331
-0.605823
-0.533174
-0.448612
-0.357756
-0.259445
-0.154963
-0.0442602
0.0728592
0.186519
0.28164
0.355245
0.408155
0.43703
0.428877
0.381395
0.282244
0.196184
0.179224
-0.692538
-0.675472
-0.618921
-0.546499
-0.462177
-0.371726
-0.27392
-0.17017
-0.0605926
0.0547854
0.166146
0.257277
0.323838
0.360783
0.355429
0.32128
0.217291
0.0959987
-0.0108485
-0.0339582
-0.705862
-0.689147
-0.632554
-0.560413
-0.476386
-0.386362
-0.289137
-0.186264
-0.0780049
0.0352921
0.143389
0.229658
0.287599
0.302203
0.264461
0.178673
0.0210848
-0.132043
-0.259895
-0.284889
-0.720279
-0.703811
-0.64704
-0.575149
-0.491413
-0.401775
-0.305151
-0.203231
-0.0964872
0.0141441
0.117953
0.198592
0.245441
0.234079
0.172505
0.0210292
-0.185564
-0.403545
-0.586541
-0.632681
-0.735858
-0.719483
-0.662418
-0.590718
-0.507229
-0.417931
-0.321929
-0.221076
-0.116059
-0.00836322
0.0904647
0.165924
0.197978
0.153106
0.0570486
-0.140833
-0.385283
-0.687737
-1.02049
-1.16294
-0.75265
-0.736322
-0.678784
-0.607191
-0.523882
-0.4349
-0.339534
-0.239817
-0.136618
-0.0320525
0.0609049
0.129994
0.146118
0.0665235
-0.0802917
-0.303462
-0.55663
-0.922793
-1.53495
-2.12001
-0.770656
-0.754298
-0.69619
-0.624619
-0.541378
-0.452663
-0.357921
-0.259358
-0.158092
-0.0568177
0.0303428
0.0910561
0.090785
-0.0124188
-0.21649
-0.474716
-0.699889
-0.963753
-1.56653
-3.17319
-0.789936
-0.773511
-0.714694
-0.6431
-0.559861
-0.471411
-0.377324
-0.279993
-0.180763
-0.082809
-0.00119712
0.050266
0.0299755
-0.0755829
-0.319004
-0.589814
-0.75962
-0.820096
-0.844171
-1.2532
-0.810408
-0.793963
-0.734472
-0.662929
-0.579684
-0.491572
-0.398277
-0.302342
-0.205385
-0.111396
-0.0352747
0.00699735
-0.0322003
-0.125813
-0.375495
-0.614011
-0.746085
-0.768284
-0.725263
-0.772234
-0.832046
-0.815549
-0.755496
-0.684118
-0.60087
-0.513217
-0.420876
-0.326549
-0.232221
-0.142804
-0.0717926
-0.0394839
-0.0891558
-0.179003
-0.412972
-0.607976
-0.70774
-0.716434
-0.761348
-0.775748
-0.854702
-0.837994
-0.777748
-0.706685
-0.623369
-0.536301
-0.445059
-0.352562
-0.261167
-0.176333
-0.110084
-0.0864926
-0.140172
-0.238867
-0.449231
-0.607013
-0.693476
-0.652877
-0.679347
-0.683325
-0.878144
-0.861036
-0.801116
-0.730444
-0.646966
-0.560682
-0.470685
-0.38013
-0.291903
-0.211704
-0.150158
-0.136697
-0.187532
-0.309074
-0.489363
-0.609854
-0.674599
-0.702565
-0.685971
-0.693417
-0.901811
-0.884449
-0.825553
-0.755193
-0.671455
-0.586145
-0.497443
-0.408968
-0.324291
-0.248853
-0.191266
-0.19063
-0.231131
-0.375819
-0.538569
-0.630552
-0.636437
-0.697455
-0.665231
-0.67522
-0.925314
-0.907987
-0.850522
-0.780289
-0.696457
-0.612343
-0.524984
-0.438526
-0.3577
-0.286873
-0.231815
-0.243012
-0.284436
-0.433638
-0.569983
-0.66106
-0.633534
-0.671941
-0.659319
-0.661186
-0.948124
-0.931213
-0.875125
-0.805156
-0.721696
-0.638833
-0.552715
-0.468229
-0.391281
-0.325432
-0.271116
-0.294264
-0.346181
-0.479469
-0.577065
-0.654918
-0.673226
-0.655691
-0.6627
-0.656988
-0.969646
-0.953453
-0.898514
-0.829011
-0.746692
-0.664932
-0.579972
-0.497402
-0.423917
-0.363539
-0.308386
-0.339901
-0.417499
-0.540726
-0.573097
-0.584315
-0.671679
-0.633424
-0.658544
-0.653009
-0.988838
-0.973681
-0.920026
-0.851194
-0.770792
-0.689777
-0.605956
-0.525055
-0.454068
-0.400072
-0.343249
-0.378978
-0.490087
-0.618186
-0.596541
-0.465287
-0.56643
-0.595449
-0.627676
-0.640032
-1.00477
-0.990975
-0.939052
-0.871147
-0.792776
-0.712261
-0.629607
-0.550374
-0.480617
-0.433041
-0.378907
-0.407216
-0.56392
-0.728685
-0.734328
-0.664945
-0.69126
-0.705012
-0.724377
-0.722669
-1.01625
-1.00415
-0.954634
-0.887953
-0.811159
-0.731344
-0.649958
-0.572101
-0.503039
-0.458985
-0.412069
-0.425279
-0.641545
-0.927854
-1.17815
-1.27974
-1.28462
-1.23384
-1.18476
-1.14652
-1.02239
-1.01219
-0.965637
-0.900478
-0.824867
-0.746087
-0.665802
-0.588453
-0.519087
-0.474913
-0.439297
-0.436747
-0.690479
-1.10154
-1.668
-2.03524
-2.07339
-2.01681
-1.86247
-1.75679
-1.02218
-1.01382
-0.97091
-0.9074
-0.832783
-0.75488
-0.675363
-0.598307
-0.526664
-0.476864
-0.449324
-0.436784
-0.662243
-1.0285
-1.51314
-1.77747
-1.754
-1.65604
-1.54769
-1.49127
-1.01447
-1.00738
-0.968575
-0.907309
-0.834182
-0.757028
-0.677788
-0.599839
-0.524001
-0.463154
-0.429455
-0.384294
-0.472048
-0.478115
-0.492012
-0.475947
-0.385721
-0.293464
-0.209654
-0.12952
-0.997395
-0.99053
-0.957493
-0.899567
-0.828305
-0.75184
-0.67201
-0.591921
-0.510026
-0.433236
-0.376653
-0.263381
-0.152408
0.128371
0.443931
0.696538
0.894716
1.02701
1.09621
1.11945
-0.966247
-0.959626
-0.935408
-0.883302
-0.814707
-0.739138
-0.658609
-0.575871
-0.488346
-0.391343
-0.307239
-0.162948
0.098462
0.507773
0.949056
1.31079
1.56748
1.71743
1.7819
1.80084
-0.9206
-0.915837
-0.904154
-0.859719
-0.794658
-0.720463
-0.640062
-0.554574
-0.464221
-0.353022
-0.243739
-0.125339
0.175792
0.5675
0.972708
1.3171
1.57746
1.73581
1.80655
1.82597
-0.877319
-0.876243
-0.870935
-0.831546
-0.77008
-0.697773
-0.618865
-0.532689
-0.442588
-0.334495
-0.219322
-0.13757
0.0983912
0.408898
0.726873
1.00178
1.22039
1.36
1.42833
1.45174
-0.841486
-0.843928
-0.836104
-0.801269
-0.742715
-0.673424
-0.597862
-0.515693
-0.431322
-0.341703
-0.235778
-0.169718
-0.0180073
0.218222
0.471357
0.674267
0.833257
0.945166
1.00024
1.01859
-0.787934
-0.791343
-0.785847
-0.759708
-0.707598
-0.645004
-0.576755
-0.503521
-0.428221
-0.35267
-0.258986
-0.197906
-0.110574
0.072344
0.275448
0.425693
0.54153
0.626535
0.664829
0.673282
-0.712668
-0.715294
-0.712793
-0.696207
-0.656888
-0.607883
-0.55219
-0.490842
-0.42464
-0.359667
-0.278872
-0.222601
-0.174871
-0.0401802
0.111487
0.21746
0.298779
0.357504
0.383851
0.391499
-0.626546
-0.628174
-0.627176
-0.617016
-0.592533
-0.559849
-0.519165
-0.472266
-0.415614
-0.361742
-0.294184
-0.24665
-0.220436
-0.126104
-0.0136431
0.0588315
0.114585
0.159567
0.175885
0.180528
-0.544042
-0.545262
-0.544756
-0.539498
-0.526882
-0.507913
-0.480703
-0.448792
-0.403353
-0.359194
-0.305825
-0.264637
-0.250946
-0.184714
-0.102295
-0.0552904
-0.0128185
0.0158828
0.0310427
0.0373389
-0.478799
-0.479366
-0.479487
-0.477707
-0.47237
-0.46269
-0.446665
-0.426566
-0.393191
-0.353594
-0.308025
-0.274843
-0.254647
-0.213506
-0.159808
-0.125613
-0.0964427
-0.0775456
-0.0682415
-0.0649041
-0.436976
-0.437157
-0.437479
-0.437559
-0.436011
-0.431709
-0.422469
-0.409396
-0.386324
-0.348542
-0.30424
-0.270895
-0.24877
-0.221632
-0.190905
-0.168788
-0.15055
-0.139183
-0.134161
-0.135191
-0.418008
-0.41784
-0.417943
-0.418365
-0.418272
-0.415969
-0.409822
-0.398335
-0.379447
-0.350623
-0.305443
-0.268802
-0.242082
-0.22528
-0.207327
-0.198224
-0.189677
-0.189131
-0.189297
-0.191055
-0.418514
-0.418127
-0.417937
-0.418194
-0.418336
-0.415798
-0.411578
-0.402378
-0.384742
-0.362513
-0.317313
-0.281842
-0.239659
-0.249619
-0.236519
-0.232871
-0.22959
-0.233591
-0.238191
-0.238836
-0.435186
-0.434619
-0.43422
-0.434244
-0.434127
-0.432462
-0.430211
-0.424092
-0.414568
-0.395143
-0.350657
-0.309152
-0.284999
-0.293656
-0.278674
-0.265591
-0.256164
-0.249589
-0.251569
-0.253006
-0.465053
-0.464427
-0.463952
-0.463871
-0.464259
-0.464464
-0.466148
-0.46681
-0.470334
-0.460309
-0.426502
-0.370512
-0.35179
-0.340061
-0.316011
-0.291037
-0.265641
-0.243013
-0.232392
-0.241482
-0.501502
-0.501379
-0.501742
-0.502608
-0.504688
-0.508947
-0.518061
-0.532521
-0.555847
-0.569749
-0.549196
-0.465803
-0.420252
-0.394254
-0.357261
-0.321568
-0.28552
-0.261658
-0.247332
-0.256701
-0.539099
-0.53933
-0.54052
-0.543212
-0.548747
-0.559734
-0.580815
-0.616792
-0.668809
-0.731319
-0.727287
-0.611386
-0.520308
-0.463789
-0.41342
-0.370657
-0.326252
-0.311897
-0.304624
-0.306536
-0.568584
-0.569565
-0.572038
-0.576827
-0.586612
-0.60613
-0.643103
-0.70723
-0.807396
-0.927939
-0.941782
-0.812252
-0.692919
-0.598942
-0.507986
-0.43418
-0.384745
-0.369742
-0.377953
-0.378563
-0.577147
-0.578744
-0.582773
-0.590381
-0.604044
-0.631288
-0.683093
-0.774246
-0.927479
-1.10707
-1.15049
-1.01398
-0.864425
-0.732303
-0.615185
-0.535832
-0.50936
-0.485365
-0.486144
-0.485407
-0.55659
-0.559036
-0.562013
-0.570092
-0.587464
-0.618878
-0.676405
-0.777943
-0.95254
-1.1785
-1.26661
-1.11258
-0.936145
-0.777852
-0.676134
-0.621925
-0.588905
-0.590827
-0.582394
-0.579566
-0.504718
-0.50697
-0.510303
-0.516775
-0.532151
-0.562983
-0.6193
-0.719588
-0.88479
-1.09426
-1.17784
-1.03685
-0.854515
-0.738025
-0.66942
-0.629931
-0.610432
-0.614293
-0.611035
-0.609258
-0.424542
-0.426204
-0.429185
-0.434767
-0.446601
-0.471046
-0.516879
-0.599053
-0.731086
-0.889345
-0.949532
-0.825264
-0.685553
-0.646707
-0.622165
-0.59153
-0.600251
-0.598559
-0.595548
-0.593164
-0.328643
-0.329629
-0.331342
-0.334727
-0.342299
-0.358527
-0.389589
-0.445818
-0.5347
-0.637361
-0.674351
-0.574921
-0.524206
-0.52596
-0.530725
-0.540197
-0.54398
-0.540845
-0.537457
-0.535523
-0.232586
-0.232981
-0.233549
-0.234637
-0.237903
-0.246015
-0.262364
-0.29299
-0.340968
-0.402254
-0.413264
-0.358005
-0.379878
-0.40044
-0.424929
-0.451502
-0.447627
-0.446172
-0.44502
-0.443817
-0.148336
-0.148234
-0.148041
-0.147536
-0.147709
-0.149746
-0.154707
-0.165293
-0.180183
-0.199109
-0.197431
-0.217247
-0.255481
-0.291459
-0.323446
-0.341822
-0.340715
-0.342037
-0.34291
-0.342434
-0.0833537
-0.0829647
-0.0824856
-0.0813253
-0.080013
-0.0787845
-0.0772286
-0.0757972
-0.0712887
-0.0540873
-0.069976
-0.123611
-0.160584
-0.200157
-0.22808
-0.23891
-0.242159
-0.245126
-0.245524
-0.245574
-0.0388254
-0.0383325
-0.0378398
-0.0367428
-0.0352465
-0.0332288
-0.0297714
-0.0246029
-0.01597
0.00188651
-0.00623985
-0.0579449
-0.0955407
-0.126876
-0.147975
-0.154622
-0.159509
-0.161406
-0.162203
-0.162674
-0.0128555
-0.0124302
-0.0120896
-0.0114126
-0.0103102
-0.0086907
-0.00562899
-0.000848892
0.00636338
0.0174306
0.0101328
-0.0258116
-0.0538619
-0.0740229
-0.0896242
-0.0954368
-0.0968526
-0.0979999
-0.0986832
-0.0991351
-0.00068097
-0.000357219
-0.00016009
-7.19352e-06
0.000545739
0.00133648
0.00307487
0.00586254
0.0099937
0.0155035
0.0115325
-0.00957348
-0.0265885
-0.0387514
-0.0457266
-0.0488511
-0.0500308
-0.050421
-0.0508446
-0.0511655
0.00155659
0.00170973
0.00178956
0.00162006
0.00173581
0.00192345
0.00249866
0.00353571
0.00499816
0.0065839
0.00553008
-0.00232111
-0.00802986
-0.0113984
-0.0138092
-0.0142359
-0.014596
-0.0145365
-0.0147425
-0.0149177
-1.51498
-0.633172
-0.359834
-0.0714001
0.123335
0.29192
0.433492
0.577253
0.730651
0.807534
-0.498689
-0.0720337
-0.0445828
0.151439
0.287348
0.40875
0.514346
0.607232
0.638362
0.593995
-0.0944541
0.130713
0.17462
0.315383
0.409539
0.495965
0.567305
0.620434
0.624885
0.637054
0.149663
0.302998
0.339646
0.449243
0.508519
0.571109
0.618854
0.652668
0.662782
0.685793
0.340532
0.445676
0.475794
0.550452
0.594975
0.639459
0.673304
0.698368
0.708902
0.739886
0.487431
0.560635
0.591172
0.637775
0.674926
0.706673
0.732095
0.753166
0.767924
0.795792
0.610601
0.663408
0.689735
0.719432
0.748381
0.773037
0.793684
0.813233
0.828467
0.854714
0.716669
0.755314
0.776933
0.798407
0.820143
0.84017
0.857921
0.876295
0.891275
0.914864
0.812529
0.841725
0.859108
0.874939
0.891659
0.908107
0.923861
0.940984
0.954579
0.976883
0.901771
0.922743
0.938001
0.951497
0.965372
0.979374
0.99295
1.0076
1.01913
1.0388
0.988271
1.00419
1.0182
1.03022
1.04231
1.054
1.06515
1.07686
1.08453
1.10134
1.0739
1.08687
1.10069
1.11239
1.12297
1.13273
1.1415
1.14975
1.15332
1.16461
1.16332
1.17431
1.18779
1.19701
1.20444
1.21162
1.21882
1.2254
1.2264
1.23383
1.26178
1.26652
1.27456
1.27904
1.28232
1.28678
1.29278
1.30056
1.30437
1.31426
1.37511
1.36139
1.35394
1.34831
1.34563
1.34703
1.35355
1.36597
1.38071
1.41036
1.49596
1.44027
1.4094
1.39233
1.38419
1.3842
1.39286
1.41234
1.44438
1.51355
)
;

boundaryField
{
    wall-4
    {
        type            zeroGradient;
    }
    pressure-outlet-7
    {
        type            fixedValue;
        value           uniform 0;
    }
    velocity-inlet-6
    {
        type            zeroGradient;
    }
    velocity-inlet-5
    {
        type            zeroGradient;
    }
    frontAndBackPlanes
    {
        type            empty;
    }
}


// ************************************************************************* //
