/*--------------------------------*- C++ -*----------------------------------*\
| =========                 |                                                 |
| \\      /  F ield         | OpenFOAM: The Open Source CFD Toolbox           |
|  \\    /   O peration     | Version:  4.0                                   |
|   \\  /    A nd           | Web:      www.OpenFOAM.org                      |
|    \\/     M anipulation  |                                                 |
\*---------------------------------------------------------------------------*/
FoamFile
{
    version     2.0;
    format      ascii;
    class       volVectorField;
    location    "25";
    object      U;
}
// * * * * * * * * * * * * * * * * * * * * * * * * * * * * * * * * * * * * * //

dimensions      [0 1 -1 0 0 0 0];

internalField   nonuniform List<vector> 
2200
(
(0.878858 -0.0304117 0)
(1.00579 -0.0512847 0)
(1.00324 -0.0353894 0)
(1.00017 -0.0244143 0)
(0.999771 -0.0166364 0)
(0.99998 -0.0106831 0)
(1.00001 -0.00678373 0)
(0.99999 -0.0041861 0)
(0.999959 -0.00226643 0)
(1.00016 -0.000722013 0)
(1.00004 0.000971852 0)
(0.999961 0.00253254 0)
(1.00001 0.00443219 0)
(1.00002 0.00701646 0)
(1 0.0108432 0)
(0.999746 0.0167304 0)
(1.00017 0.0244916 0)
(1.00334 0.035369 0)
(1.00583 0.0513185 0)
(0.878896 0.0304203 0)
(0.711991 -0.0327599 0)
(0.996647 -0.0630002 0)
(1.03343 -0.0561552 0)
(1.02505 -0.0464068 0)
(1.01604 -0.0360238 0)
(1.00976 -0.0262275 0)
(1.0059 -0.018041 0)
(1.00365 -0.0114134 0)
(1.00247 -0.00612892 0)
(1.00199 -0.00175173 0)
(1.002 0.00246064 0)
(1.00245 0.00679395 0)
(1.00355 0.0119813 0)
(1.0058 0.0184792 0)
(1.00957 0.0266394 0)
(1.01593 0.0364616 0)
(1.02494 0.0467852 0)
(1.03317 0.0566791 0)
(0.996516 0.0631597 0)
(0.711735 0.0328392 0)
(0.535577 -0.0238821 0)
(0.969927 -0.0569186 0)
(1.05634 -0.0547136 0)
(1.05226 -0.0488696 0)
(1.03637 -0.0406332 0)
(1.02438 -0.0325462 0)
(1.01572 -0.0243429 0)
(1.01034 -0.0163826 0)
(1.00734 -0.00900734 0)
(1.00602 -0.00244704 0)
(1.00596 0.00370778 0)
(1.00718 0.0101678 0)
(1.01017 0.0173661 0)
(1.01543 0.0252522 0)
(1.02421 0.0333185 0)
(1.03619 0.0412217 0)
(1.05201 0.0493905 0)
(1.05617 0.0544442 0)
(0.96934 0.0573117 0)
(0.534761 0.0239113 0)
(0.392464 -0.013614 0)
(0.911779 -0.0462671 0)
(1.05744 -0.0468421 0)
(1.06925 -0.0441036 0)
(1.05468 -0.0381602 0)
(1.03941 -0.0317108 0)
(1.02763 -0.0248126 0)
(1.01899 -0.0176219 0)
(1.01338 -0.0102102 0)
(1.01073 -0.00272577 0)
(1.01059 0.00459174 0)
(1.01308 0.0119776 0)
(1.01857 0.0192045 0)
(1.0273 0.0261655 0)
(1.03885 0.032835 0)
(1.05403 0.0390784 0)
(1.06848 0.0448849 0)
(1.05626 0.0476681 0)
(0.910542 0.0465591 0)
(0.390946 0.0137118 0)
(0.308289 -0.00443161 0)
(0.847256 -0.0322218 0)
(1.04944 -0.0396154 0)
(1.0791 -0.0378189 0)
(1.06762 -0.0330559 0)
(1.05138 -0.0274943 0)
(1.03838 -0.022323 0)
(1.0283 -0.0164364 0)
(1.0212 -0.0097535 0)
(1.01734 -0.00247014 0)
(1.01719 0.00490609 0)
(1.02079 0.0120988 0)
(1.0277 0.018597 0)
(1.0374 0.0242424 0)
(1.05032 0.0290616 0)
(1.06653 0.0344351 0)
(1.07781 0.038922 0)
(1.04784 0.0406367 0)
(0.844724 0.0326022 0)
(0.305816 0.0045523 0)
(0.26513 0.000107562 0)
(0.789535 -0.0199274 0)
(1.03361 -0.0313438 0)
(1.08365 -0.0319038 0)
(1.07707 -0.0283883 0)
(1.06034 -0.0233592 0)
(1.04696 -0.0190988 0)
(1.03632 -0.0142653 0)
(1.02858 -0.00857445 0)
(1.0242 -0.00191391 0)
(1.02399 0.00521391 0)
(1.02799 0.0115943 0)
(1.03529 0.0168811 0)
(1.04574 0.0212673 0)
(1.059 0.0253849 0)
(1.07558 0.0300455 0)
(1.08185 0.0332191 0)
(1.03104 0.0324024 0)
(0.785544 0.0203681 0)
(0.261759 4.24619e-06 0)
(0.241509 0.00106155 0)
(0.739517 -0.0120201 0)
(1.014 -0.0244615 0)
(1.08426 -0.0263455 0)
(1.08305 -0.0241016 0)
(1.06756 -0.020008 0)
(1.05376 -0.0159809 0)
(1.04281 -0.011771 0)
(1.03464 -0.00697167 0)
(1.02982 -0.00120424 0)
(1.0294 0.0053099 0)
(1.03349 0.0107753 0)
(1.04122 0.0151907 0)
(1.05203 0.0191243 0)
(1.06555 0.0225529 0)
(1.08074 0.0262223 0)
(1.08147 0.0280821 0)
(1.00995 0.0256856 0)
(0.733689 0.0125434 0)
(0.237085 -0.00094136 0)
(0.227895 0.0010711 0)
(0.698556 -0.00755612 0)
(0.993928 -0.0195313 0)
(1.082 -0.0218908 0)
(1.08648 -0.0204057 0)
(1.07275 -0.0171795 0)
(1.05913 -0.0137185 0)
(1.04835 -0.00972818 0)
(1.04045 -0.00522702 0)
(1.03573 -3.64033e-05 0)
(1.03528 0.00550445 0)
(1.0392 0.0103466 0)
(1.0465 0.0142843 0)
(1.05641 0.0175251 0)
(1.06988 0.0204857 0)
(1.08325 0.0232137 0)
(1.07804 0.0241129 0)
(0.987978 0.0211001 0)
(0.690415 0.00822778 0)
(0.222225 -0.000927385 0)
(0.219251 0.000763013 0)
(0.664807 -0.0051112 0)
(0.974215 -0.0164362 0)
(1.07843 -0.0188693 0)
(1.08851 -0.017669 0)
(1.07648 -0.0150245 0)
(1.06304 -0.0118876 0)
(1.05272 -0.00810504 0)
(1.04523 -0.0038286 0)
(1.04073 0.000918814 0)
(1.04006 0.00552602 0)
(1.04333 0.00982891 0)
(1.04984 0.0135017 0)
(1.05983 0.0165309 0)
(1.07291 0.0192227 0)
(1.08403 0.0211454 0)
(1.07272 0.0216415 0)
(0.965853 0.0183565 0)
(0.653754 0.00593968 0)
(0.211986 -0.000571057 0)
(0.213363 0.000347473 0)
(0.638282 -0.00329643 0)
(0.95659 -0.0132675 0)
(1.07542 -0.0158167 0)
(1.09073 -0.0148456 0)
(1.07977 -0.0127091 0)
(1.06609 -0.00992081 0)
(1.05565 -0.00640993 0)
(1.04809 -0.00237391 0)
(1.04351 0.00206749 0)
(1.04253 0.00617632 0)
(1.04549 0.0101258 0)
(1.05179 0.0132498 0)
(1.06148 0.0160959 0)
(1.07447 0.0175778 0)
(1.08473 0.0188455 0)
(1.06787 0.0191567 0)
(0.945529 0.0155629 0)
(0.624108 0.00426454 0)
(0.204276 -0.000117454 0)
(0.209809 0.000126272 0)
(0.620301 -0.00148578 0)
(0.941971 -0.00921048 0)
(1.07285 -0.011567 0)
(1.09316 -0.0107705 0)
(1.08312 -0.00905822 0)
(1.06931 -0.00690781 0)
(1.05835 -0.00413388 0)
(1.05023 -0.000830981 0)
(1.04513 0.00313657 0)
(1.04395 0.00705757 0)
(1.04699 0.0103094 0)
(1.05368 0.0127314 0)
(1.06324 0.0141861 0)
(1.07649 0.0154768 0)
(1.08542 0.0163844 0)
(1.06263 0.0160241 0)
(0.926555 0.0120678 0)
(0.601574 0.00275569 0)
(0.198164 0.00015667 0)
(0.208235 -2.82205e-05 0)
(0.609294 -0.000274532 0)
(0.929617 -0.00533749 0)
(1.07034 -0.00757769 0)
(1.09566 -0.00703901 0)
(1.08668 -0.00528376 0)
(1.07313 -0.00316589 0)
(1.06212 -0.000853159 0)
(1.05355 0.00176825 0)
(1.04793 0.00481771 0)
(1.04641 0.00799315 0)
(1.04933 0.0101012 0)
(1.05595 0.0113847 0)
(1.06593 0.0121737 0)
(1.07857 0.0131026 0)
(1.08549 0.0133867 0)
(1.057 0.0124479 0)
(0.910666 0.00857189 0)
(0.586769 0.00170232 0)
(0.193836 0.000260384 0)
(0.208318 -0.000117682 0)
(0.604787 0.000569694 0)
(0.922038 -0.00213766 0)
(1.06848 -0.0041296 0)
(1.09788 -0.00371886 0)
(1.09017 -0.00215781 0)
(1.07702 -0.000330277 0)
(1.06628 0.00174113 0)
(1.05792 0.0041926 0)
(1.05225 0.00665847 0)
(1.05019 0.00919373 0)
(1.05217 0.0105788 0)
(1.0577 0.0114633 0)
(1.06657 0.0121116 0)
(1.07866 0.0117723 0)
(1.08442 0.0116434 0)
(1.0506 0.0104108 0)
(0.896694 0.00645728 0)
(0.575947 0.0013583 0)
(0.190245 0.000295386 0)
(0.209494 7.26949e-05 0)
(0.604572 0.00109557 0)
(0.916583 -9.88393e-05 0)
(1.06676 -0.0015487 0)
(1.09949 -0.00110567 0)
(1.09255 0.00029825 0)
(1.07941 0.00203605 0)
(1.06858 0.00417074 0)
(1.06024 0.00660541 0)
(1.05447 0.00896803 0)
(1.05188 0.0111987 0)
(1.0531 0.0122307 0)
(1.05802 0.01258 0)
(1.06626 0.0124584 0)
(1.07781 0.0115293 0)
(1.08211 0.0108117 0)
(1.04392 0.00908679 0)
(0.885234 0.00525572 0)
(0.568074 0.00137013 0)
(0.1872 0.000323581 0)
(0.212252 0.000396264 0)
(0.606017 0.00148863 0)
(0.914694 0.00183517 0)
(1.06602 0.00120405 0)
(1.1006 0.00188787 0)
(1.09411 0.00301746 0)
(1.0809 0.00443706 0)
(1.06976 0.00642828 0)
(1.06104 0.00878411 0)
(1.05483 0.0112351 0)
(1.05169 0.013252 0)
(1.05245 0.0140587 0)
(1.05721 0.0138418 0)
(1.0652 0.0131255 0)
(1.07617 0.0119415 0)
(1.07907 0.0107866 0)
(1.03745 0.00855966 0)
(0.875207 0.00471243 0)
(0.56077 0.00144024 0)
(0.18397 0.000333159 0)
(0.215657 0.000439156 0)
(0.609752 0.00206671 0)
(0.915617 0.00346857 0)
(1.06627 0.00337113 0)
(1.10232 0.00414368 0)
(1.09631 0.0054688 0)
(1.08327 0.00709272 0)
(1.07202 0.00936036 0)
(1.06287 0.0118259 0)
(1.05589 0.0144801 0)
(1.05179 0.0163317 0)
(1.05153 0.0169433 0)
(1.05547 0.0163853 0)
(1.06292 0.0149609 0)
(1.07298 0.0132493 0)
(1.07427 0.0111598 0)
(1.02954 0.00814545 0)
(0.865291 0.0044231 0)
(0.554039 0.00156412 0)
(0.180811 0.000345541 0)
(0.221278 0.000547275 0)
(0.618261 0.00270954 0)
(0.919268 0.00488928 0)
(1.06779 0.00560267 0)
(1.10429 0.00637606 0)
(1.09918 0.00760648 0)
(1.0867 0.00953752 0)
(1.07575 0.0122051 0)
(1.06642 0.01512 0)
(1.05868 0.018167 0)
(1.05342 0.0199579 0)
(1.05185 0.0203871 0)
(1.05451 0.0194016 0)
(1.06086 0.0176422 0)
(1.06968 0.0153218 0)
(1.0693 0.0127014 0)
(1.02208 0.00924359 0)
(0.856426 0.00520741 0)
(0.546825 0.00203182 0)
(0.177007 0.000420688 0)
(0.226391 0.000633606 0)
(0.625079 0.00301868 0)
(0.92357 0.0058866 0)
(1.06984 0.00707483 0)
(1.10673 0.00816148 0)
(1.10244 0.00982777 0)
(1.09052 0.0123345 0)
(1.07971 0.0156852 0)
(1.07006 0.0194059 0)
(1.0615 0.0230685 0)
(1.05487 0.0250442 0)
(1.05193 0.0253868 0)
(1.05292 0.0241575 0)
(1.05788 0.0219728 0)
(1.0647 0.0190133 0)
(1.06205 0.0150661 0)
(1.0117 0.0105541 0)
(0.844789 0.00610788 0)
(0.537592 0.00259626 0)
(0.172153 0.000529758 0)
(0.234643 0.000845917 0)
(0.638442 0.00405291 0)
(0.932359 0.00806007 0)
(1.0736 0.0102128 0)
(1.10933 0.0114903 0)
(1.10595 0.0132347 0)
(1.09467 0.0163118 0)
(1.08377 0.020323 0)
(1.07339 0.0247183 0)
(1.06342 0.0288418 0)
(1.05511 0.0309506 0)
(1.05075 0.0309277 0)
(1.05029 0.0291037 0)
(1.05378 0.0259898 0)
(1.05844 0.022324 0)
(1.05369 0.0177074 0)
(1.00165 0.0127054 0)
(0.834411 0.00766419 0)
(0.527448 0.00329046 0)
(0.166182 0.000650643 0)
(0.243089 0.00112222 0)
(0.650606 0.00484785 0)
(0.941382 0.00976773 0)
(1.0785 0.0128717 0)
(1.11304 0.015256 0)
(1.11048 0.018163 0)
(1.09983 0.0221071 0)
(1.08872 0.0268878 0)
(1.07733 0.0319716 0)
(1.06571 0.0363399 0)
(1.05558 0.0382293 0)
(1.04932 0.037419 0)
(1.04697 0.0347933 0)
(1.04845 0.0309825 0)
(1.05085 0.0262983 0)
(1.04307 0.0205242 0)
(0.98768 0.0144592 0)
(0.818347 0.00879629 0)
(0.51321 0.00389305 0)
(0.158531 0.000762926 0)
(0.256112 0.00144104 0)
(0.670467 0.00671723 0)
(0.955982 0.0133055 0)
(1.08651 0.0178322 0)
(1.11884 0.0211022 0)
(1.11682 0.0248073 0)
(1.10648 0.0296471 0)
(1.09478 0.0353503 0)
(1.08193 0.0410203 0)
(1.06801 0.0453644 0)
(1.05521 0.0467812 0)
(1.04667 0.0450043 0)
(1.04245 0.0411423 0)
(1.04172 0.0359017 0)
(1.04162 0.029986 0)
(1.0315 0.023573 0)
(0.974832 0.0170631 0)
(0.805505 0.0108351 0)
(0.499379 0.00472831 0)
(0.150147 0.000877775 0)
(0.271362 0.00199797 0)
(0.693686 0.00816497 0)
(0.974281 0.0168521 0)
(1.09803 0.0230897 0)
(1.12735 0.0282099 0)
(1.12505 0.0336603 0)
(1.11431 0.0401218 0)
(1.10148 0.0467666 0)
(1.08672 0.0529681 0)
(1.07034 0.0571262 0)
(1.05502 0.057513 0)
(1.04388 0.0540185 0)
(1.03699 0.0485715 0)
(1.03372 0.042289 0)
(1.03108 0.0352685 0)
(1.01794 0.0278519 0)
(0.957167 0.0202188 0)
(0.783024 0.0127853 0)
(0.477978 0.0056089 0)
(0.138978 0.00104726 0)
(0.292914 0.00285708 0)
(0.725017 0.0120163 0)
(0.998364 0.0226751 0)
(1.1133 0.0311675 0)
(1.13883 0.0377697 0)
(1.13563 0.0455115 0)
(1.12372 0.0531573 0)
(1.10885 0.0609114 0)
(1.09131 0.0674119 0)
(1.07148 0.0708529 0)
(1.05236 0.0697271 0)
(1.03813 0.0646703 0)
(1.02927 0.057545 0)
(1.02381 0.0494112 0)
(1.01881 0.0409667 0)
(1.00331 0.0324288 0)
(0.940523 0.024003 0)
(0.765722 0.0157017 0)
(0.458845 0.00682953 0)
(0.127451 0.0011448 0)
(0.323389 0.00395639 0)
(0.767466 0.0148749 0)
(1.03011 0.0299451 0)
(1.13443 0.0410903 0)
(1.15511 0.0508611 0)
(1.14913 0.060831 0)
(1.13442 0.0705335 0)
(1.11639 0.0792892 0)
(1.09533 0.0856634 0)
(1.07185 0.0880972 0)
(1.04956 0.0851431 0)
(1.03239 0.0776232 0)
(1.02022 0.0681992 0)
(1.01201 0.0585162 0)
(1.00465 0.0487171 0)
(0.98606 0.0391489 0)
(0.917589 0.0291847 0)
(0.733537 0.0187286 0)
(0.426338 0.00780555 0)
(0.111435 0.00130122 0)
(0.360013 0.00784393 0)
(0.819522 0.0246062 0)
(1.07062 0.0423087 0)
(1.16128 0.0575414 0)
(1.17498 0.0688297 0)
(1.16503 0.0823474 0)
(1.14633 0.0932762 0)
(1.12422 0.102186 0)
(1.09871 0.107839 0)
(1.07047 0.108395 0)
(1.04332 0.102626 0)
(1.02234 0.0924986 0)
(1.0085 0.0811687 0)
(0.998457 0.0694145 0)
(0.9886 0.0579146 0)
(0.966729 0.0464419 0)
(0.893768 0.0348077 0)
(0.707896 0.0226794 0)
(0.400656 0.00964393 0)
(0.0970673 0.00123415 0)
(0.443391 0.011471 0)
(0.899788 0.0347583 0)
(1.12384 0.0619551 0)
(1.19419 0.0805411 0)
(1.20063 0.0962886 8.33794e-35)
(1.18325 0.111865 -5.36945e-35)
(1.15895 0.122743 0)
(1.13138 0.130953 0)
(1.10063 0.134761 0)
(1.06764 0.132483 0)
(1.03697 0.123554 0)
(1.01328 0.110609 0)
(0.995412 0.0963484 0)
(0.982194 0.0826926 0)
(0.97 0.0696231 0)
(0.944048 0.0569686 0)
(0.862685 0.0432102 0)
(0.661478 0.0277987 0)
(0.350009 0.0100915 0)
(0.0741198 0.00097538 0)
(0.511125 0.0264522 -6.21323e-21)
(0.991568 0.0590513 4.08489e-21)
(1.18157 0.0943976 0)
(1.23014 0.116439 1.40023e-21)
(1.22687 0.135413 -1.13458e-21)
(1.20109 0.15051 5.66503e-35)
(1.17049 0.160284 0)
(1.13683 0.166907 5.03342e-21)
(1.10032 0.168264 -1.79587e-20)
(1.06155 0.163016 3.94991e-21)
(1.02493 0.150701 0)
(0.995961 0.133838 -1.28133e-20)
(0.976263 0.117542 -1.60114e-20)
(0.961078 0.101665 2.81513e-20)
(0.944613 0.0866213 -2.26257e-20)
(0.911253 0.0710451 0)
(0.816581 0.0537738 -8.66633e-21)
(0.601285 0.0342271 0)
(0.299699 0.0143774 -4.68657e-20)
(0.05626 0.00168754 5.54372e-20)
(0.541409 0.054924 -4.71842e-23)
(1.04607 0.102185 -4.14807e-20)
(1.22613 0.145877 1.14439e-20)
(1.26288 0.164905 1.56907e-20)
(1.25061 0.183666 -1.70586e-21)
(1.21686 0.196752 3.53452e-21)
(1.17976 0.204705 0)
(1.13978 0.209332 0)
(1.09716 0.208111 2.81465e-20)
(1.05225 0.199773 0)
(1.0104 0.183742 4.40986e-20)
(0.977797 0.165603 1.37471e-20)
(0.951752 0.147283 3.31142e-22)
(0.930551 0.130094 -3.15682e-20)
(0.910697 0.113961 0)
(0.873794 0.098366 0)
(0.776542 0.0767322 -1.45971e-19)
(0.568969 0.0531195 3.65945e-19)
(0.286617 0.0235234 -2.17395e-19)
(0.0544459 0.0053262 -2.57637e-19)
(0.544926 0.0783244 7.51912e-20)
(1.07588 0.159925 -2.20036e-20)
(1.25915 0.20772 -5.69957e-21)
(1.28913 0.224292 -3.04735e-20)
(1.26921 0.240158 1.37708e-20)
(1.2289 0.24926 -4.24669e-21)
(1.18587 0.253853 5.43026e-21)
(1.13996 0.255359 0)
(1.09138 0.250957 -5.83878e-20)
(1.04037 0.239613 6.44261e-20)
(0.993074 0.221834 -1.20542e-19)
(0.954935 0.200854 5.87439e-20)
(0.926578 0.18086 -4.32094e-20)
(0.90405 0.162775 9.46595e-20)
(0.880272 0.146071 0)
(0.840959 0.129364 -3.71341e-20)
(0.747513 0.107723 0)
(0.55596 0.074705 2.09864e-19)
(0.29058 0.0394357 -4.98095e-19)
(0.0653874 0.00873494 3.12497e-19)
(0.53408 0.110627 -3.6028e-19)
(1.0908 0.218403 1.43811e-19)
(1.27898 0.274293 2.32499e-20)
(1.30672 0.288915 0)
(1.28162 0.301451 1.60062e-20)
(1.23644 0.305724 -1.70154e-20)
(1.18839 0.30632 -5.72397e-21)
(1.13718 0.304052 0)
(1.08319 0.296036 4.122e-20)
(1.02696 0.28103 -4.42817e-20)
(0.974132 0.259195 1.06103e-19)
(0.931324 0.235336 0)
(0.898252 0.214934 -9.10934e-20)
(0.871211 0.196971 5.01431e-20)
(0.847512 0.180602 1.36273e-19)
(0.81129 0.164412 -1.19946e-19)
(0.725357 0.140314 1.9778e-19)
(0.550073 0.10239 -4.39012e-19)
(0.303887 0.0571648 2.78433e-19)
(0.0776397 0.01503 -3.48954e-19)
(0.518422 0.134786 2.23723e-19)
(1.09445 0.273391 -1.64909e-19)
(1.289 0.341414 7.2661e-20)
(1.31583 0.354371 -9.9122e-20)
(1.28715 0.363882 6.61363e-20)
(1.23874 0.363717 -1.05476e-20)
(1.18681 0.360433 3.65543e-21)
(1.13127 0.35419 -2.7843e-20)
(1.07271 0.342224 -4.13065e-20)
(1.01176 0.323607 -9.54014e-20)
(0.955142 0.298825 -2.29096e-19)
(0.910794 0.274853 -7.70483e-20)
(0.877275 0.253278 2.61818e-21)
(0.851009 0.234429 -1.81066e-19)
(0.823867 0.216763 -6.34482e-21)
(0.785773 0.197877 1.7642e-19)
(0.705072 0.171731 -5.48448e-20)
(0.544939 0.129919 -3.19427e-20)
(0.314081 0.0760369 0)
(0.0864876 0.021513 7.49896e-19)
(0.499225 0.155903 0)
(1.08569 0.323463 5.14139e-20)
(1.29077 0.40526 3.56944e-20)
(1.31875 0.41827 -1.22786e-20)
(1.28757 0.42571 -8.09037e-20)
(1.23672 0.421522 1.60355e-20)
(1.18176 0.414591 2.64155e-21)
(1.12297 0.404418 4.98441e-20)
(1.06104 0.388529 -2.48344e-20)
(0.996354 0.365856 4.18078e-20)
(0.935826 0.337546 1.23655e-19)
(0.886298 0.309139 1.70696e-19)
(0.848045 0.284597 -1.06748e-19)
(0.817775 0.2643 1.96773e-19)
(0.795383 0.247234 -1.58075e-19)
(0.764313 0.231027 0)
(0.692864 0.204447 -4.20195e-19)
(0.543918 0.158112 5.64886e-19)
(0.321309 0.094511 4.26845e-20)
(0.0921517 0.0276404 -7.9642e-19)
(0.484187 0.176709 -5.40417e-21)
(1.07687 0.372716 -3.51325e-19)
(1.28779 0.466743 -2.69026e-19)
(1.31661 0.479893 2.23553e-19)
(1.28332 0.485649 -4.74745e-20)
(1.2308 0.478 2.50065e-20)
(1.17367 0.467756 -7.1459e-21)
(1.1123 0.453936 -4.53546e-21)
(1.04712 0.434455 -8.75368e-20)
(0.978531 0.408199 5.83323e-22)
(0.914835 0.376992 -1.35273e-19)
(0.865986 0.346758 -1.82372e-19)
(0.831335 0.322407 1.2024e-19)
(0.805645 0.30263 -7.08411e-20)
(0.777577 0.284247 1.72332e-19)
(0.74174 0.262514 0)
(0.67205 0.234179 -2.60965e-19)
(0.532747 0.184161 3.85977e-19)
(0.321397 0.11086 7.3819e-19)
(0.0938223 0.0328058 -8.66374e-19)
(0.469066 0.194368 -6.69892e-19)
(1.0625 0.417357 3.38343e-19)
(1.28075 0.524378 2.62712e-19)
(1.31088 0.538475 -2.42752e-19)
(1.27592 0.543206 1.12354e-20)
(1.22215 0.53249 6.83347e-20)
(1.16331 0.519301 -2.79943e-21)
(1.09982 0.502174 -1.86722e-20)
(1.03218 0.479285 -5.4316e-20)
(0.961362 0.449366 9.42866e-20)
(0.895712 0.413632 1.27924e-19)
(0.844072 0.380228 2.86043e-19)
(0.804062 0.352332 0)
(0.771449 0.328067 5.61991e-21)
(0.750028 0.30807 -4.79628e-19)
(0.72254 0.292241 1.10294e-19)
(0.660637 0.262391 5.61643e-19)
(0.525169 0.208057 -1.65063e-19)
(0.314004 0.125555 3.50093e-19)
(0.09196 0.0356786 -2.9231e-20)
(0.459874 0.213405 6.15499e-21)
(1.0509 0.461354 3.13927e-19)
(1.27157 0.579583 2.00004e-19)
(1.30228 0.594349 -4.34919e-19)
(1.26574 0.597826 2.75161e-19)
(1.21117 0.584444 -8.5098e-20)
(1.15104 0.56876 -4.60316e-22)
(1.08594 0.548751 4.04188e-20)
(1.01625 0.522791 9.5786e-20)
(0.943077 0.48962 -1.21414e-19)
(0.875244 0.451079 0)
(0.822131 0.415168 -1.12935e-19)
(0.784976 0.385009 1.29659e-19)
(0.759983 0.361888 1.74566e-19)
(0.732871 0.34288 -1.00137e-19)
(0.699738 0.318252 -2.53037e-19)
(0.637259 0.287141 -7.68327e-20)
(0.508967 0.226114 -1.21368e-21)
(0.303416 0.135241 0)
(0.0875007 0.0381826 0)
(0.451239 0.228881 -3.32568e-19)
(1.03741 0.501612 0)
(1.26034 0.631152 2.29608e-19)
(1.29175 0.647273 -1.05974e-19)
(1.25396 0.649705 -2.85748e-19)
(1.19882 0.633784 7.89298e-20)
(1.13764 0.615907 -6.444e-21)
(1.07121 0.593341 -1.89345e-20)
(0.999846 0.564596 6.0297e-20)
(0.92441 0.528144 -4.99868e-20)
(0.853971 0.485658 7.19489e-20)
(0.799371 0.44526 3.52835e-19)
(0.75978 0.41327 1.35008e-20)
(0.725367 0.386142 -1.78213e-19)
(0.704159 0.36267 3.44382e-19)
(0.679938 0.343451 4.50901e-21)
(0.623653 0.307915 8.22021e-20)
(0.495363 0.24375 -3.98519e-19)
(0.291528 0.142577 4.04072e-19)
(0.0818951 0.039812 -4.82618e-19)
(0.444817 0.247926 3.35008e-23)
(1.02567 0.540995 0)
(1.24836 0.680283 0)
(1.27982 0.697527 9.86833e-20)
(1.24099 0.698694 1.12379e-19)
(1.18543 0.680396 -6.48168e-20)
(1.12334 0.660628 3.88689e-20)
(1.0558 0.635861 0)
(0.982872 0.604837 -9.82891e-20)
(0.905237 0.565957 1.77547e-19)
(0.832667 0.520506 2.19572e-19)
(0.776705 0.477458 -1.33031e-19)
(0.736065 0.441591 -1.66919e-19)
(0.712637 0.413635 3.94728e-19)
(0.686401 0.390046 -1.21831e-19)
(0.655521 0.362832 -1.47933e-19)
(0.597576 0.326964 -9.0445e-20)
(0.474789 0.255305 -4.32165e-19)
(0.277727 0.147767 6.10991e-20)
(0.0756306 0.0402665 5.24265e-19)
(0.441062 0.266671 -1.33175e-19)
(1.01396 0.57743 -2.10462e-19)
(1.23544 0.725931 2.36026e-20)
(1.26707 0.744854 3.2754e-23)
(1.22748 0.745036 3.59295e-20)
(1.17159 0.724542 -1.7485e-19)
(1.1087 0.703005 0)
(1.04018 0.676246 1.55416e-20)
(0.96573 0.643119 -1.22548e-20)
(0.886282 0.6013 2.80839e-19)
(0.811369 0.551972 -5.48494e-20)
(0.752751 0.505699 6.10665e-20)
(0.712028 0.467349 0)
(0.677171 0.434126 -2.15492e-19)
(0.65745 0.406595 2.68506e-19)
(0.634984 0.384378 0)
(0.581123 0.340426 -1.97715e-19)
(0.456604 0.266816 5.78502e-19)
(0.262896 0.150995 6.8712e-20)
(0.0689764 0.0397809 -6.49245e-19)
(0.439092 0.28366 -2.96041e-19)
(1.00402 0.612753 3.79983e-19)
(1.22265 0.769209 0)
(1.25399 0.789557 2.46104e-19)
(1.2137 0.788719 0)
(1.15751 0.766226 1.62816e-19)
(1.09384 0.743097 0)
(1.02434 0.714571 0)
(0.948346 0.679707 -3.42681e-20)
(0.866139 0.636281 -2.73644e-19)
(0.787267 0.586303 -4.0853e-19)
(0.727158 0.536097 7.71705e-20)
(0.68607 0.492513 2.8859e-19)
(0.6625 0.45941 2.42392e-19)
(0.63774 0.431445 -8.61606e-19)
(0.608171 0.397115 -3.55845e-19)
(0.55241 0.355978 2.06941e-19)
(0.432748 0.272655 0)
(0.246549 0.152186 5.9482e-19)
(0.0618587 0.0383289 -7.0411e-19)
(0.437675 0.299419 3.26752e-19)
(0.993835 0.645168 -4.17922e-19)
(1.2096 0.809104 0)
(1.24069 0.831298 -1.03096e-20)
(1.19987 0.829876 -1.01048e-19)
(1.14347 0.805705 0)
(1.07916 0.781094 -1.24946e-20)
(1.0088 0.751003 2.13375e-20)
(0.931562 0.714638 -4.37511e-20)
(0.848262 0.66948 2.71942e-20)
(0.769554 0.61455 0)
(0.707068 0.561043 3.0887e-19)
(0.661579 0.517275 4.14276e-21)
(0.625343 0.476323 1.31657e-19)
(0.606001 0.441262 1.58659e-19)
(0.585967 0.414681 0)
(0.533913 0.362166 -3.48481e-19)
(0.412491 0.278054 6.83214e-19)
(0.229643 0.151242 -7.2653e-19)
(0.0549458 0.0360158 1.52725e-18)
(0.436531 0.314402 0)
(0.984956 0.676862 0)
(1.19711 0.846965 -2.29875e-19)
(1.22751 0.870568 0)
(1.18614 0.868463 0)
(1.1296 0.842846 2.35979e-19)
(1.06479 0.817015 -1.61316e-20)
(0.993736 0.785456 1.70721e-20)
(0.915241 0.747718 -3.36198e-21)
(0.829264 0.700806 0)
(0.744457 0.645621 -6.5678e-20)
(0.678211 0.591467 -2.55879e-19)
(0.63351 0.538925 -3.20986e-19)
(0.60915 0.497955 -1.33263e-19)
(0.585551 0.462748 1.74517e-19)
(0.557246 0.421152 -4.14365e-19)
(0.503404 0.373021 7.53963e-19)
(0.385954 0.278339 6.11352e-21)
(0.212242 0.148174 -7.02427e-19)
(0.0482003 0.0332474 -1.04152e-19)
(0.435286 0.329012 0)
(0.975823 0.706062 -3.26276e-19)
(1.18457 0.881779 2.56543e-19)
(1.21438 0.907017 0)
(1.17261 0.904558 0)
(1.11603 0.877836 -5.22332e-19)
(1.05084 0.850948 0)
(0.979082 0.818174 0)
(0.89925 0.779552 -7.55822e-20)
(0.811501 0.732132 5.23513e-20)
(0.726735 0.675849 -5.25286e-19)
(0.658784 0.616081 0)
(0.609187 0.563995 -3.493e-19)
(0.56916 0.513932 1.14484e-20)
(0.549816 0.46826 -5.58486e-19)
(0.532116 0.433877 2.24508e-19)
(0.483511 0.369481 3.40669e-21)
(0.367208 0.276499 -8.03481e-19)
(0.196647 0.143846 3.81234e-19)
(0.0430172 0.0305421 1.11429e-19)
(0.434128 0.343167 0)
(0.967938 0.734776 -3.85237e-19)
(1.17275 0.915115 2.73274e-19)
(1.20162 0.941415 5.72524e-19)
(1.1594 0.938308 1.15208e-19)
(1.10282 0.910547 -7.96527e-20)
(1.03737 0.882867 4.89545e-20)
(0.965256 0.849216 -8.25553e-20)
(0.884772 0.809572 8.08512e-20)
(0.796065 0.761203 3.22473e-19)
(0.707539 0.702796 4.35631e-19)
(0.632782 0.643016 8.37134e-20)
(0.577721 0.58497 5.06875e-19)
(0.550097 0.533459 3.28906e-19)
(0.52611 0.4883 4.03222e-19)
(0.500118 0.430332 -2.51297e-19)
(0.450568 0.373195 -2.96617e-19)
(0.340426 0.268526 3.48237e-19)
(0.180091 0.135074 -2.05895e-19)
(0.0397719 0.030455 3.63669e-19)
(0.43288 0.356859 5.06827e-19)
(0.959747 0.760916 6.11852e-19)
(1.16091 0.945619 1.50262e-19)
(1.18909 0.973233 1.61711e-20)
(1.14659 0.969761 -4.01025e-19)
(1.09009 0.941234 1.5138e-19)
(1.02457 0.912893 -5.61527e-20)
(0.952093 0.878372 -2.14924e-20)
(0.8705 0.838177 -7.29579e-20)
(0.778905 0.789491 -3.6002e-19)
(0.685551 0.731675 2.62262e-20)
(0.608757 0.66887 0)
(0.555576 0.609693 0)
(0.506482 0.551356 -1.67385e-19)
(0.483097 0.489088 -6.64505e-19)
(0.467941 0.438174 5.45211e-19)
(0.429673 0.35036 3.32231e-19)
(0.335535 0.247946 0)
(0.185666 0.113894 6.57275e-19)
(0.0342421 0.0101082 -3.92811e-19)
(0.431785 0.369819 -2.70808e-19)
(0.952683 0.786638 2.34445e-19)
(1.14983 0.975041 -3.35122e-19)
(1.17706 1.0034 -3.60454e-19)
(1.13422 0.99921 -1.58658e-19)
(1.07785 0.969813 3.62064e-20)
(1.01219 0.940916 0)
(0.939425 0.905862 1.22522e-19)
(0.8572 0.865402 1.2521e-20)
(0.764684 0.816208 0)
(0.671164 0.757975 0)
(0.590892 0.696982 5.84238e-20)
(0.520678 0.635191 8.91439e-20)
(0.485175 0.571056 -1.80771e-19)
(0.454171 0.511552 4.80319e-19)
(0.425535 0.427227 -6.00427e-19)
(0.385466 0.340234 -7.12918e-19)
(0.31779 0.2234 6.31107e-19)
(0.216665 0.133955 -2.36743e-19)
(0.120608 0.0907159 1.35885e-19)
(0.430425 0.382012 3.12835e-19)
(0.945131 0.809654 0)
(1.13874 1.00168 0)
(1.16537 1.03114 -1.21258e-19)
(1.12239 1.02658 9.81532e-20)
(1.06613 0.996579 -2.07914e-20)
(1.00049 0.967225 -2.1288e-19)
(0.927627 0.931689 -1.99127e-19)
(0.844495 0.890624 8.23913e-20)
(0.750032 0.841781 -2.91238e-20)
(0.651895 0.784153 6.96994e-20)
(0.563396 0.722019 -4.83064e-19)
(0.501358 0.659158 -5.30179e-19)
(0.437743 0.594413 -9.65653e-20)
(0.398613 0.512528 0)
(0.374183 0.438699 -1.23024e-20)
(0.345413 0.287743 3.94094e-19)
(0.301164 0.12536 -6.6093e-19)
(0.261373 -0.0301693 4.91029e-19)
(0.0803934 -0.0890622 3.92681e-19)
(0.42919 0.393586 -6.81941e-19)
(0.938566 0.832494 -2.95003e-19)
(1.12837 1.02767 6.50084e-21)
(1.1541 1.05776 1.54942e-19)
(1.11086 1.05257 0)
(1.05477 1.02186 4.54474e-19)
(0.989076 0.992154 2.64188e-19)
(0.915848 0.956282 -4.42874e-20)
(0.83229 0.915699 -2.92085e-20)
(0.737172 0.867252 -2.74797e-20)
(0.63749 0.81097 2.55234e-20)
(0.549716 0.75156 4.26975e-19)
(0.465669 0.688836 5.18111e-19)
(0.414809 0.616837 9.3209e-20)
(0.366856 0.548451 5.14192e-19)
(0.306924 0.428898 0)
(0.207778 0.283569 0)
(0.0422458 0.274978 4.87155e-19)
(-0.0677659 0.629619 -3.34051e-20)
(0.00101291 1.50509 -6.25391e-19)
(0.427532 0.404565 3.71349e-19)
(0.931479 0.852828 8.84708e-19)
(1.11793 1.05118 -1.33055e-18)
(1.1431 1.08243 8.00883e-19)
(1.09974 1.07714 -9.29207e-20)
(1.0437 1.04617 5.94923e-19)
(0.977918 1.01636 0)
(0.904678 0.980561 2.09894e-19)
(0.82052 0.939909 0)
(0.723333 0.891744 2.66759e-19)
(0.620238 0.835813 -3.97513e-20)
(0.522966 0.777826 4.45711e-20)
(0.449685 0.71884 5.76363e-19)
(0.362777 0.657933 -2.11734e-19)
(0.278351 0.56521 -2.68701e-19)
(0.20929 0.492087 0)
(0.107648 0.580029 0)
(0.0375417 1.25564 0)
(0.0783956 2.42969 -2.73925e-19)
(0.108954 2.8944 -1.70095e-19)
(0.42599 0.415085 0)
(0.925385 0.87318 0)
(1.10821 1.07437 4.76285e-19)
(1.13252 1.10629 -6.67442e-19)
(1.0889 1.10065 4.56737e-19)
(1.03304 1.06933 -5.44938e-19)
(0.967315 1.03956 -3.04187e-20)
(0.893862 1.00385 2.3684e-20)
(0.809265 0.964209 7.80702e-21)
(0.711556 0.91827 -3.0349e-19)
(0.6068 0.866438 6.10754e-20)
(0.510466 0.812999 4.03145e-19)
(0.411319 0.756231 -5.6812e-19)
(0.340571 0.684818 -6.65562e-19)
(0.274131 0.630227 2.32169e-19)
(0.207513 0.749219 0)
(0.143717 1.49535 3.34855e-19)
(0.141909 2.6705 3.71936e-19)
(0.147982 3.08017 -4.16239e-19)
(0.138644 3.21874 4.56492e-19)
(0.424036 0.424804 0)
(0.918726 0.89093 7.19962e-19)
(1.09845 1.09505 -1.23419e-19)
(1.12229 1.12818 8.41176e-19)
(1.07859 1.12271 -4.79416e-19)
(1.0228 1.09148 0)
(0.956981 1.06193 0)
(0.883509 1.02671 0)
(0.798562 0.987755 -6.47921e-20)
(0.699547 0.941833 3.75044e-21)
(0.592426 0.889719 0)
(0.488494 0.837901 -3.93695e-19)
(0.40638 0.791221 0)
(0.295807 0.742115 4.73598e-19)
(0.215824 0.819877 -3.09103e-19)
(0.171692 1.44323 -2.59056e-19)
(0.177758 2.66082 -6.35062e-19)
(0.197139 3.12569 -3.18131e-19)
(0.18712 3.27169 -3.69476e-19)
(0.171912 3.31277 3.13983e-19)
(0.422306 0.433944 -2.43272e-19)
(0.913073 0.908911 1.51396e-20)
(1.08944 1.1157 -1.33052e-19)
(1.11249 1.14951 -6.72961e-19)
(1.06855 1.14392 0)
(1.01296 1.11266 0)
(0.947319 1.08346 0)
(0.87388 1.04873 -1.44512e-20)
(0.788727 1.01097 7.24223e-20)
(0.68908 0.968745 0)
(0.579422 0.923693 0)
(0.477368 0.878761 0)
(0.366407 0.833369 0)
(0.307406 0.827837 3.13021e-19)
(0.286515 1.18186 8.16037e-19)
(0.274292 2.33585 2.54173e-19)
(0.285312 3.08059 4.65962e-19)
(0.277588 3.29118 -3.02114e-19)
(0.226763 3.35948 1.11333e-19)
(0.192559 3.37214 0)
(0.420188 0.442514 2.46648e-19)
(0.906576 0.924681 -1.5538e-18)
(1.08012 1.13436 -4.40377e-19)
(1.10284 1.16947 -1.07407e-19)
(1.05885 1.16426 1.22269e-19)
(1.0034 1.13332 -8.60043e-19)
(0.937688 1.10457 5.80273e-20)
(0.864235 1.07055 3.89101e-19)
(0.778863 1.03403 0)
(0.678907 0.992338 -1.73547e-20)
(0.570569 0.944835 1.57874e-20)
(0.463405 0.902126 0)
(0.380911 0.875445 0)
(0.329044 1.00011 -3.88457e-19)
(0.295415 1.83221 3.08031e-21)
(0.291771 2.92805 -1.39746e-19)
(0.310418 3.29556 2.36454e-19)
(0.2833 3.39868 9.69625e-20)
(0.215322 3.4246 4.11243e-20)
(0.189154 3.43318 -2.27326e-20)
(0.41804 0.451142 4.75278e-19)
(0.900571 0.942483 1.48688e-18)
(1.0708 1.15497 5.41287e-19)
(1.09279 1.19068 0)
(1.04865 1.18535 0)
(0.993482 1.15438 6.58938e-19)
(0.928098 1.12605 -4.04197e-19)
(0.854999 1.09265 -3.58061e-19)
(0.769932 1.0574 -1.40033e-20)
(0.669563 1.0192 6.15992e-20)
(0.556762 0.9822 -2.96702e-19)
(0.448345 0.945961 0)
(0.368341 0.950946 0)
(0.347368 1.34363 -2.18489e-19)
(0.358583 2.44022 -2.8485e-19)
(0.400862 3.19907 0)
(0.426752 3.38404 1.54577e-20)
(0.356815 3.44934 2.00567e-19)
(0.281683 3.49383 -4.06358e-19)
(0.256793 3.51996 2.43134e-19)
(0.41494 0.460217 -9.00209e-19)
(0.892744 0.959058 -7.07548e-19)
(1.06008 1.17479 0)
(1.08196 1.21183 0)
(1.03792 1.20684 0)
(0.983063 1.17607 0)
(0.917803 1.14805 4.31489e-19)
(0.844925 1.11523 -4.6655e-19)
(0.759912 1.08111 0)
(0.659943 1.04456 -5.03775e-20)
(0.552772 1.00407 4.91962e-19)
(0.451049 0.974995 2.50923e-20)
(0.402241 1.06713 4.22817e-20)
(0.406949 1.72092 3.24687e-19)
(0.428691 2.87808 -1.05125e-19)
(0.464725 3.32985 0)
(0.446898 3.46101 -5.16486e-20)
(0.356692 3.55018 9.95488e-20)
(0.272248 3.61993 3.33093e-19)
(0.196019 3.60016 -2.85243e-19)
(0.411908 0.469308 4.26692e-19)
(0.88531 0.978913 -6.96159e-19)
(1.04904 1.19769 0)
(1.07026 1.23501 -1.72398e-19)
(1.0262 1.22961 6.53967e-19)
(0.971774 1.19853 0)
(0.907117 1.1707 0)
(0.835005 1.13833 8.73905e-19)
(0.75097 1.10557 1.30352e-20)
(0.652047 1.07157 -5.76869e-20)
(0.537761 1.04152 -2.10397e-19)
(0.448295 1.03284 1.616e-19)
(0.4102 1.23304 0)
(0.444967 2.13659 -1.53951e-19)
(0.495103 3.13586 1.27029e-19)
(0.555999 3.43732 -2.68471e-20)
(0.549717 3.54177 0)
(0.480253 3.6363 -1.84648e-19)
(0.40406 3.68155 -7.36389e-19)