/*--------------------------------*- C++ -*----------------------------------*\
| =========                 |                                                 |
| \\      /  F ield         | OpenFOAM: The Open Source CFD Toolbox           |
|  \\    /   O peration     | Version:  4.0                                   |
|   \\  /    A nd           | Web:      www.OpenFOAM.org                      |
|    \\/     M anipulation  |                                                 |
\*---------------------------------------------------------------------------*/
FoamFile
{
    version     2.0;
    format      ascii;
    class       surfaceScalarField;
    location    "59";
    object      phi;
}
// * * * * * * * * * * * * * * * * * * * * * * * * * * * * * * * * * * * * * //

dimensions      [0 3 -1 0 0 0 0];

internalField   nonuniform List<scalar> 
17370
(
-0.0916066
0.0960094
0.284608
-0.0775948
0.0594203
0.36495
-0.0430429
0.0316237
0.427587
-0.0223207
0.0162689
0.505304
-0.0116764
0.00880276
0.602276
-0.00659157
0.00510647
0.720543
-0.00386935
0.00298885
0.863787
-0.00221576
0.00163753
1.03603
-0.00110604
0.000684971
1.24292
-0.000273582
-0.000120435
1.49158
0.00050889
-0.000922648
1.4916
0.00132713
-0.00183206
1.2432
0.0023828
-0.0031258
1.03638
0.00398276
-0.00520113
0.864125
0.00667502
-0.00887669
0.721259
0.0117401
-0.0163181
0.603793
0.0223549
-0.0316416
0.508726
0.0430428
-0.0594095
0.432535
0.0775881
-0.0960033
0.365191
0.091621
0.19739
-0.127091
0.0880227
0.0390684
-0.364356
0.35403
-0.0714753
0.0818011
-0.446654
0.454254
-0.0791702
0.0715698
-0.521011
0.52911
-0.0637172
0.0556188
-0.612991
0.62076
-0.0482318
0.0404625
-0.727165
0.733685
-0.0338507
0.02733
-0.867581
0.872434
-0.022126
0.0172733
-1.03857
1.04191
-0.0135739
0.0102332
-1.24472
1.24713
-0.00768094
0.00527313
-1.49284
1.49486
-0.00330699
0.00129025
-1.49269
1.49452
0.000530939
-0.00235274
-1.24411
1.24602
0.00432742
-0.00623966
-1.03761
1.04009
0.00857591
-0.0110555
-0.866187
0.869814
0.0143138
-0.0179412
-0.724594
0.729746
0.0227255
-0.0278777
-0.609064
0.615632
0.0343493
-0.0409177
-0.515123
0.522458
0.0486368
-0.0559718
-0.43988
0.447657
0.0639934
-0.0717708
-0.374706
0.377355
0.0792646
-0.0819134
-0.256896
0.224434
0.0715632
-0.0391009
-0.0688115
0.0592002
0.00961129
-0.0521049
0.0589307
-0.374838
0.368012
-0.0580827
0.0542402
-0.453947
0.457789
-0.0487531
0.0441936
-0.527619
0.532178
-0.0396439
0.0357484
-0.620804
0.624699
-0.0315357
0.02754
-0.734663
0.738658
-0.0231816
0.0192921
-0.873958
0.877848
-0.0152439
0.0117838
-1.04336
1.04682
-0.00826071
0.0052248
-1.24865
1.25169
-0.00201371
-0.000970429
-1.49695
1.49993
0.00393262
-0.0070828
-1.49742
1.50057
0.010029
-0.0134307
-1.25006
1.25346
0.0167677
-0.020675
-1.04565
1.04955
0.0244396
-0.0286735
-0.877133
0.881366
0.0325689
-0.0366837
-0.738978
0.743093
0.0404988
-0.0449693
-0.625966
0.630437
0.0494625
-0.0548846
-0.535012
0.540434
0.0586518
-0.0594106
-0.458072
0.458831
0.0524609
-0.0320689
-0.336758
0.316366
0.00967479
-0.0686587
0.0589839
-0.0534118
0.0493012
0.00411063
-0.0332374
0.0436583
-0.358568
0.348147
-0.0473318
0.0467435
-0.459584
0.460172
-0.043814
0.0406009
-0.536137
0.53935
-0.0369238
0.0335693
-0.628402
0.631756
-0.0299354
0.0266932
-0.742042
0.745284
-0.0232379
0.0200373
-0.881344
0.884545
-0.0164401
0.0130842
-1.05025
1.05361
-0.00938021
0.0059712
-1.25495
1.25836
-0.00217612
-0.0014435
-1.50328
1.5069
0.00503158
-0.00873485
-1.50406
1.50777
0.0120182
-0.0155508
-1.25702
1.26055
0.0187319
-0.0221279
-1.05326
1.05665
0.0251501
-0.0284271
-0.884973
0.88825
0.0315254
-0.0350188
-0.746774
0.750267
0.038255
-0.0418093
-0.634553
0.638107
0.0449157
-0.0477252
-0.544574
0.547384
0.0481889
-0.0443421
-0.456942
0.453096
0.0337085
-0.0163866
-0.297042
0.27972
0.0041808
-0.0531321
0.0489513
-0.046133
0.0435786
0.00255438
-0.0230389
0.0333839
-0.33756
0.327215
-0.0391135
0.0400595
-0.459925
0.458979
-0.0388058
0.0364762
-0.542009
0.544339
-0.0338329
0.0312856
-0.634728
0.637276
-0.0283072
0.025457
-0.748373
0.751223
-0.0222158
0.0191981
-0.887604
0.890621
-0.0158424
0.0127036
-1.05679
1.05993
-0.00914159
0.00573685
-1.26176
1.26516
-0.00182199
-0.00197852
-1.51063
1.51443
0.00573835
-0.00952992
-1.51154
1.51534
0.0127691
-0.0161072
-1.26401
1.26735
0.0190172
-0.0221103
-1.05985
1.06295
0.0248922
-0.0278928
-0.891442
0.894443
0.0305449
-0.0333283
-0.753443
0.756226
0.0357132
-0.0381926
-0.641056
0.643535
0.0403817
-0.0414499
-0.549213
0.550281
0.0403106
-0.0342988
-0.447964
0.441952
0.0236436
-0.0103843
-0.264522
0.251263
0.00264134
-0.0457047
0.0430633
-0.0414617
0.0396629
0.00179882
-0.0169335
0.0262122
-0.317352
0.308073
-0.0328015
0.0349168
-0.457422
0.455307
-0.0344779
0.0327756
-0.546372
0.548075
-0.0305444
0.0284132
-0.639592
0.641723
-0.0259713
0.0235881
-0.753828
0.756211
-0.0207672
0.0180146
-0.893483
0.896235
-0.0148236
0.0117829
-1.06297
1.06601
-0.00831152
0.00499068
-1.26849
1.27181
-0.00114639
-0.00260378
-1.5182
1.52195
0.0063017
-0.00999081
-1.51908
1.52276
0.0131019
-0.0162897
-1.27061
1.2738
0.0190398
-0.0218941
-1.06597
1.06882
0.024341
-0.0268497
-0.897222
0.899731
0.0289775
-0.0311694
-0.758662
0.760854
0.0330939
-0.0351135
-0.645755
0.647775
0.0366108
-0.036797
-0.550855
0.551041
0.0343848
-0.0273825
-0.435349
0.428347
0.0176882
-0.00748661
-0.239675
0.229473
0.00190525
-0.0408506
0.0389453
-0.0381151
0.0367653
0.00134973
-0.0129321
0.0209225
-0.299441
0.291451
-0.0276809
0.0305959
-0.45276
0.449845
-0.0307965
0.0296666
-0.549518
0.550648
-0.027662
0.02573
-0.643787
0.645719
-0.0235113
0.0213632
-0.758461
0.760609
-0.0188473
0.0163716
-0.898791
0.901267
-0.0134434
0.0105807
-1.06892
1.07178
-0.00724369
0.0040214
-1.27504
1.27827
-0.000283776
-0.00334928
-1.52562
1.52925
0.00691741
-0.0104605
-1.52637
1.52991
0.0134208
-0.0164033
-1.27691
1.27989
0.018902
-0.0214081
-1.07154
1.07404
0.0235014
-0.0256254
-0.902038
0.904161
0.0274502
-0.0293499
-0.76289
0.76479
0.03102
-0.0327713
-0.649636
0.651387
0.0336014
-0.0330483
-0.550858
0.550305
0.0297092
-0.0223857
-0.421126
0.413802
0.0138619
-0.00578752
-0.220436
0.212362
0.00147948
-0.0372803
0.0358008
-0.0355866
0.0345476
0.00103902
-0.0101053
0.0168692
-0.284097
0.277333
-0.0233764
0.0267532
-0.446678
0.443301
-0.0275309
0.0268335
-0.551555
0.552252
-0.0250627
0.0232744
-0.64762
0.649408
-0.0212058
0.0191931
-0.762689
0.764702
-0.0168241
0.0144989
-0.903603
0.905928
-0.0117634
0.00908112
-1.07448
1.07717
-0.00592552
0.00284589
-1.28138
1.28445
0.000749575
-0.00424566
-1.53279
1.53629
0.007661
-0.0110166
-1.53336
1.53671
0.0137728
-0.0164912
-1.28276
1.28547
0.0187262
-0.0209413
-1.07643
1.07865
0.022793
-0.0246751
-0.906181
0.908063
0.0262861
-0.0279584
-0.766572
0.768244
0.0294216
-0.0308434
-0.652989
0.654411
0.0311675
-0.0298888
-0.549403
0.548124
0.025928
-0.0186776
-0.40649
0.399239
0.0112443
-0.00466224
-0.205104
0.198522
0.00119684
-0.0344796
0.0332828
-0.0336349
0.0328257
0.000809238
-0.00801073
0.0137002
-0.271135
0.265446
-0.0197305
0.0233123
-0.439811
0.436229
-0.0245728
0.0241242
-0.552857
0.553305
-0.0226266
0.0209491
-0.651192
0.65287
-0.0189783
0.0170567
-0.766668
0.768589
-0.0147907
0.0125626
-0.90814
0.910368
-0.00993744
0.00737069
-1.07972
1.08228
-0.00436289
0.0014262
-1.28741
1.29035
0.002002
-0.00533001
-1.53967
1.543
0.00856027
-0.0116948
-1.53994
1.54308
0.0142337
-0.0167071
-1.28808
1.29055
0.0187252
-0.0207101
-1.08079
1.08278
0.0223555
-0.0240239
-0.90986
0.911528
0.0254535
-0.0269379
-0.769821
0.771305
0.0282116
-0.0292587
-0.655621
0.656668
0.0292132
-0.0272691
-0.546517
0.544573
0.0229071
-0.0159237
-0.392119
0.385135
0.00940303
-0.0038835
-0.192523
0.187003
0.00100116
-0.0321971
0.0311959
-0.0321141
0.0314822
0.000631936
-0.00639817
0.0111696
-0.260242
0.255471
-0.0166154
0.0202051
-0.432642
0.429052
-0.021796
0.0215767
-0.553675
0.553895
-0.0203159
0.0187026
-0.654565
0.656178
-0.016791
0.0149218
-0.770482
0.772351
-0.0127182
0.0105533
-0.91249
0.914654
-0.00800432
0.00551551
-1.08473
1.08722
-0.00260731
-0.00021072
-1.29317
1.29599
0.00349161
-0.00665162
-1.54621
1.54937
0.00969042
-0.0126086
-1.54608
1.549
0.014951
-0.0172118
-1.29293
1.29519
0.0190348
-0.0208041
-1.08471
1.08648
0.0222549
-0.0237245
-0.913122
0.914592
0.0249887
-0.0263009
-0.772701
0.774014
0.0274293
-0.0280614
-0.657493
0.658125
0.0276478
-0.0251452
-0.542366
0.539863
0.02054
-0.013893
-0.378332
0.371685
0.00809662
-0.00333879
-0.181904
0.177147
0.000865066
-0.0302742
0.0294091
-0.0309296
0.0304409
0.000488699
-0.00510283
0.0090831
-0.25112
0.24714
-0.0138988
0.0173468
-0.425539
0.422091
-0.0191276
0.0191027
-0.554058
0.554083
-0.018043
0.0164665
-0.657839
0.659415
-0.0145807
0.0127298
-0.774204
0.776055
-0.0105489
0.00841211
-0.91672
0.918856
-0.00590614
0.00346981
-1.0896
1.09203
-0.000634338
-0.00210355
-1.2987
1.30144
0.00525606
-0.00826224
-1.55241
1.55541
0.0111214
-0.013836
-1.55179
1.55451
0.0159885
-0.0180375
-1.29735
1.2994
0.0196656
-0.021223
-1.08821
1.08977
0.0224902
-0.0237797
-0.916001
0.91729
0.0248978
-0.0260563
-0.775243
0.776401
0.0270021
-0.0272581
-0.658556
0.658812
0.0264509
-0.0234781
-0.537142
0.534169
0.0187314
-0.0124164
-0.365225
0.35891
0.00717563
-0.00296148
-0.172695
0.168481
0.000772255
-0.0286012
0.0278289
-0.0300194
0.0296516
0.000367865
-0.00401985
0.00730582
-0.24353
0.240244
-0.0114795
0.0146763
-0.418782
0.415585
-0.0165218
0.0166554
-0.554078
0.553944
-0.0156834
0.0141828
-0.661031
0.662531
-0.0122963
0.0104332
-0.7779
0.779764
-0.00823931
0.00609752
-0.920898
0.92304
-0.00359825
0.00117966
-1.09436
1.09678
0.00161394
-0.00429121
-1.30408
1.30676
0.00734688
-0.0102247
-1.55831
1.56119
0.0129246
-0.0154492
-1.5571
1.55962
0.0174196
-0.0192648
-1.30136
1.3032
0.0207059
-0.0220567
-1.09131
1.09267
0.0231423
-0.024254
-0.918525
0.919637
0.0252259
-0.0262146
-0.777469
0.778458
0.0269042
-0.0268648
-0.658938
0.658899
0.0256453
-0.0222576
-0.531007
0.52762
0.0174161
-0.0113818
-0.352762
0.346728
0.00654852
-0.00271127
-0.164486
0.160649
0.00071278
-0.0270971
0.0263843
-0.0293435
0.0290832
0.000260355
-0.00307249
0.00573258
-0.237291
0.234631
-0.00926456
0.012127
-0.412573
0.409711
-0.013924
0.014146
-0.553821
0.553599
-0.0132223
0.0117713
-0.66409
0.665541
-0.00986345
0.00795967
-0.781628
0.783532
-0.00571722
0.0035361
-0.925091
0.927272
-0.0010054
-0.00142685
-1.09909
1.10153
0.00421632
-0.00686353
-1.30934
1.31199
0.00984978
-0.0126224
-1.56396
1.56673
0.0151794
-0.0175221
-1.56202
1.56436
0.019313
-0.0209546
-1.30495
1.30659
0.0222078
-0.0233498
-1.09402
1.09517
0.0242508
-0.0251839
-0.920703
0.921636
0.0260115
-0.0268261
-0.779352
0.780166
0.0272296
-0.0269284
-0.658722
0.658421
0.025263
-0.0214825
-0.524056
0.520275
0.0165507
-0.010716
-0.34083
0.334995
0.0061575
-0.00256231
-0.156964
0.153369
0.000679953
-0.0256994
0.0250195
-0.0288792
0.0287208
0.000158442
-0.00219684
0.00427031
-0.232284
0.23021
-0.00715632
0.0096146
-0.407072
0.404614
-0.0112547
0.0114854
-0.553437
0.553206
-0.0105754
0.00913428
-0.667086
0.668527
-0.00717732
0.0052033
-0.785442
0.787416
-0.00287816
0.000626994
-0.929362
0.931613
0.00197261
-0.00445223
-1.10387
1.10635
0.00727253
-0.00991806
-1.31455
1.31719
0.01286
-0.0155425
-1.5694
1.57209
0.017965
-0.020131
-1.56658
1.56875
0.0217458
-0.0231848
-1.30813
1.30957
0.024245
-0.0251644
-1.09633
1.09725
0.0258644
-0.0266015
-0.922519
0.923256
0.0272765
-0.0279494
-0.780877
0.78155
0.0280468
-0.027379
-0.657895
0.657228
0.0252803
-0.0211126
-0.516343
0.512175
0.0160703
-0.0103478
-0.329263
0.323541
0.00595196
-0.00249207
-0.149874
0.146414
0.000667674
-0.0243582
0.0236905
-0.0286181
0.0285625
5.56331e-05
-0.00134405
0.00284615
-0.228439
0.226937
-0.00507259
0.00706359
-0.402413
0.400422
-0.00844481
0.00860485
-0.553088
0.552928
-0.00766643
0.00620313
-0.670099
0.671563
-0.00416221
0.00208822
-0.7894
0.791474
0.000355666
-0.00271807
-0.933774
0.936137
0.00542757
-0.0079934
-1.10874
1.11131
0.0108824
-0.0135591
-1.31976
1.32244
0.0164881
-0.0191032
-1.57467
1.57729
0.0214045
-0.0233972
-1.57079
1.57278
0.0248317
-0.0260591
-1.31089
1.31212
0.0269186
-0.0276045
-1.09822
1.0989
0.0280918
-0.0286181
-0.923949
0.924475
0.0291292
-0.0295994
-0.782046
0.782516
0.0294068
-0.0283146
-0.656314
0.655222
0.0257474
-0.021166
-0.507869
0.503288
0.0159631
-0.0102508
-0.317881
0.312169
0.00591117
-0.00249171
-0.143011
0.139592
0.000673947
-0.0230336
0.0223597
-0.0285628
0.0286165
-5.3676e-05
-0.000467977
0.00139384
-0.225738
0.224812
-0.00293359
0.00439253
-0.398721
0.397262
-0.00541074
0.00541367
-0.55294
0.552937
-0.00438828
0.00284783
-0.673207
0.674747
-0.000688927
-0.00152632
-0.79356
0.795775
0.00413795
-0.00664709
-0.938409
0.940918
0.00950823
-0.0121964
-1.11379
1.11648
0.0151932
-0.0179332
-1.32504
1.32778
0.020877
-0.0234407
-1.57981
1.58238
0.0256268
-0.0274436
-1.57464
1.57645
0.0286872
-0.0296857
-1.31322
1.31421
0.0303263
-0.030769
-1.09965
1.10009
0.0310334
-0.0313319
-0.924962
0.92526
0.0316554
-0.0318581
-0.782694
0.782897
0.0313901
-0.0297742
-0.653876
0.65226
0.0266941
-0.0216527
-0.498579
0.493538
0.0162184
-0.0104057
-0.306475
0.300662
0.00602036
-0.00255435
-0.136189
0.132723
0.000696806
-0.0216896
0.0209928
-0.0287253
0.0288942
-0.000168844
0.00045297
-0.000134819
-0.224203
0.223885
-0.000668277
0.00151531
-0.396123
0.395276
-0.00206354
0.00182387
-0.553173
0.553413
-0.000652046
-0.00103438
-0.676529
0.678216
0.0033678
-0.00576965
-0.79801
0.800412
0.00859552
-0.011298
-0.94334
0.946042
0.0143615
-0.0172169
-1.11909
1.12195
0.0203657
-0.0232017
-1.33045
1.33329
0.0261868
-0.0287114
-1.58484
1.58737
0.0307811
-0.0324092
-1.57812
1.57975
0.0334512
-0.0342043
-1.31506
1.31581
0.0346123
-0.0347932
-1.10059
1.10077
0.0348177
-0.0348688
-0.925515
0.925566
0.0349933
-0.0348602
-0.782717
0.782584
0.0340402
-0.0318205
-0.650437
0.648217
0.0281674
-0.0225919
-0.488365
0.48279
0.0168337
-0.0108005
-0.294818
0.288785
0.0062687
-0.0026743
-0.129236
0.125642
0.000734445
-0.0202939
0.0195594
-0.0291433
0.0294538
-0.000310551
0.00145164
-0.00177833
-0.223921
0.224247
0.00181752
-0.00169087
-0.394745
0.394619
0.00174254
-0.00233084
-0.554
0.554588
0.00372603
-0.00560132
-0.680201
0.682077
0.00816069
-0.0107979
-0.802829
0.805466
0.0138962
-0.0168474
-0.948662
0.951613
0.0201728
-0.0232451
-1.12474
1.12781
0.0265925
-0.0295592
-1.33606
1.33903
0.0326127
-0.0351104
-1.5898
1.5923
0.0370603
-0.0384754
-1.58121
1.58262
0.0392912
-0.0397761
-1.31638
1.31687
0.0399318
-0.0398283
-1.10098
1.10087
0.0395893
-0.0393728
-0.925545
0.925329
0.0392909
-0.0387027
-0.781981
0.781393
0.0374324
-0.0345328
-0.645843
0.642944
0.030219
-0.0240046
-0.477065
0.470851
0.0178102
-0.0114273
-0.282668
0.276286
0.00664835
-0.00284718
-0.121992
0.118191
0.000785457
-0.0188176
0.0180321
-0.0298352
0.0303221
-0.000486909
0.00273269
-0.00380657
-0.22496
0.226034
0.00471207
-0.00538174
-0.394814
0.395484
0.00615319
-0.00720001
-0.555651
0.556698
0.00890632
-0.0110466
-0.684323
0.686463
0.0139148
-0.0168586
-0.808125
0.811068
0.0203029
-0.0235651
-0.954488
0.95775
0.0272137
-0.0305523
-1.13082
1.13416
0.0341433
-0.0372691
-1.34194
1.34506
0.0404027
-0.0428639
-1.59469
1.59715
0.0446692
-0.0458436
-1.58386
1.58503
0.0463822
-0.0465763
-1.31712
1.31731
0.0464531
-0.0460356
-1.10074
1.10032
0.0455061
-0.0449996
-0.924986
0.92448
0.0446108
-0.0435689
-0.780331
0.779289
0.0417256
-0.0380179
-0.639913
0.636206
0.0329203
-0.0259255
-0.464457
0.457462
0.0191583
-0.0122835
-0.269763
0.262888
0.00715347
-0.00306866
-0.114301
0.110216
0.00084808
-0.0172351
0.0163871
-0.0308779
0.0315845
-0.000706598
0.00422518
-0.00618868
-0.227523
0.229487
0.00815281
-0.00972662
-0.396539
0.398113
0.0113213
-0.0129468
-0.558387
0.560012
0.0151027
-0.0176043
-0.689062
0.691564
0.0208839
-0.0242154
-0.814043
0.817374
0.0280896
-0.0317349
-0.960944
0.964589
0.0357792
-0.0394403
-1.13745
1.14111
0.0433197
-0.0466267
-1.34812
1.35143
0.0498425
-0.0522491
-1.59948
1.60189
0.0538758
-0.0547658
-1.586
1.58689
0.054982
-0.0548311
-1.3172
1.31705
0.0543819
-0.0536081
-1.09981
1.09904
0.0527561
-0.0519185
-0.923778
0.922941
0.0511273
-0.0495851
-0.777769
0.776227
0.0470292
-0.0423598
-0.632392
0.627722
0.0363214
-0.0283698
-0.450248
0.442296
0.0208726
-0.0133543
-0.255814
0.248296
0.00776984
-0.00333015
-0.106011
0.101572
0.000919233
-0.0155245
0.0146053
-0.0323538
0.0333473
-0.000993504
0.00610184
-0.0091182
-0.231863
0.23488
0.0123495
-0.0149813
-0.400186
0.402818
0.0175427
-0.0198715
-0.562483
0.564812
0.0226122
-0.0255921
-0.694618
0.697598
0.0294059
-0.0332261
-0.820748
0.824568
0.0376348
-0.04175
-0.968178
0.972293
0.0462695
-0.0503054
-1.14472
1.14876
0.0545041
-0.0579947
-1.35466
1.35815
0.0612659
-0.0635656
-1.60414
1.60644
0.064944
-0.0654652
-1.58752
1.58804
0.0653053
-0.0647425
-1.31649
1.31592
0.0639319
-0.0627505
-1.09809
1.09691
0.0615361
-0.0603598
-0.921828
0.920652
0.0590391
-0.0568932
-0.774186
0.77204
0.0534806
-0.0476452
-0.622952
0.617116
0.0404624
-0.0313358
-0.434078
0.424951
0.0229292
-0.0146091
-0.240519
0.232199
0.008472
-0.00361727
-0.0969879
0.0921332
0.000993927
-0.0136713
0.0126774
-0.0343899
0.0357792
-0.00138927
0.0085517
-0.0129201
-0.2383
0.242668
0.0176414
-0.021513
-0.406124
0.409996
0.0252163
-0.0284027
-0.568266
0.571452
0.0319072
-0.0355247
-0.701251
0.704869
0.040038
-0.0444785
-0.82844
0.832881
0.0495352
-0.0541993
-0.976364
0.981028
0.0592519
-0.0636858
-1.15274
1.15717
0.0681947
-0.0718263
-1.36153
1.36516
0.0750684
-0.0771549
-1.60852
1.6106
0.0781698
-0.0782067
-1.58825
1.58829
0.0775872
-0.076499
-1.31482
1.31373
0.075271
-0.0736526
-1.09545
1.09383
0.0720524
-0.0704558
-0.919104
0.917507
0.0685662
-0.065672
-0.769354
0.76646
0.0611888
-0.0539178
-0.611169
0.603898
0.0453362
-0.0347775
-0.415511
0.404952
0.0252668
-0.0159898
-0.22357
0.214293
0.00921658
-0.00390745
-0.0871204
0.0818112
0.00106484
-0.0116717
0.0106069
-0.0371839
0.0391296
-0.00194575
0.01196
-0.0180447
-0.247359
0.253444
0.0245675
-0.0298922
-0.414853
0.420177
0.0349471
-0.0391822
-0.576139
0.580374
0.0436624
-0.048121
-0.709307
0.713765
0.0535352
-0.0587371
-0.837373
0.842575
0.0645528
-0.069828
-0.985651
0.990926
0.0754363
-0.0802436
-1.16152
1.16633
0.0849848
-0.0886455
-1.36861
1.37227
0.0916994
-0.0934037
-1.61238
1.61408
0.0938871
-0.0932812
-1.58792
1.58732
0.0920731
-0.0903392
-1.31203
1.31029
0.0885911
-0.0865042
-1.09178
1.08969
0.0845071
-0.0823317
-0.915406
0.91323
0.0799016
-0.0760077
-0.762896
0.759002
0.070189
-0.0611536
-0.596487
0.587452
0.0508693
-0.0385861
-0.394043
0.381759
0.0277702
-0.0173997
-0.204675
0.194304
0.00993666
-0.00416802
-0.0763485
0.0705799
0.00112192
-0.00953808
0.00841616
-0.0410548
0.0438705
-0.00281571
0.0169079
-0.0252492
-0.259772
0.268113
0.0340151
-0.0410948
-0.427035
0.434114
0.0477977
-0.0532981
-0.586579
0.592079
0.0590235
-0.0645664
-0.719199
0.724741
0.0710823
-0.077163
-0.847806
0.853886
0.0837958
-0.0896684
-0.996141
1.00201
0.0957472
-0.10079
-1.17097
1.17601
0.105557
-0.109021
-1.37562
1.37908
0.111613
-0.112671
-1.61533
1.61639
0.112377
-0.110908
-1.58619
1.58472
0.108946
-0.106453
-1.30788
1.30539
0.104086
-0.101447
-1.08697
1.08433
0.0990087
-0.0961554
-0.91036
0.907507
0.0930968
-0.0879211
-0.754293
0.749118
0.0804257
-0.0692173
-0.578211
0.567002
0.0568763
-0.0425562
-0.369119
0.354799
0.0302481
-0.0186919
-0.183607
0.172051
0.0105366
-0.00435493
-0.064693
0.0585113
0.00115219
-0.00730385
0.00615166
-0.0465832
0.0508663
-0.00428309
0.0245799
-0.0359948
-0.276698
0.288113
0.0476728
-0.0570792
-0.443699
0.453105
0.0658002
-0.0727634
-0.600184
0.607147
0.080015
-0.0870419
-0.73129
0.738317
0.0947215
-0.1016
-0.859938
0.866816
0.108883
-0.115131
-1.00772
1.01397
0.121361
-0.126299
-1.18071
1.18565
0.130678
-0.133549
-1.38203
1.3849
0.135231
-0.135245
-1.61678
1.61679
0.133828
-0.131219
-1.58258
1.57997
0.128321
-0.124927
-1.30214
1.29874
0.121863
-0.118615
-1.08087
1.07762
0.115656
-0.112053
-0.903775
0.900171
0.108071
-0.101212
-0.742935
0.736076
0.0916132
-0.0777576
-0.555459
0.541603
0.0629951
-0.0463607
-0.340178
0.323543
0.0324284
-0.019676
-0.160275
0.147522
0.0108987
-0.00441685
-0.0522959
0.045814
0.00114064
-0.00502761
0.00388696
-0.0548339
0.0621935
-0.00735956
0.0380551
-0.0539458
-0.300285
0.316176
0.0696993
-0.0823181
-0.466499
0.479118
0.0932193
-0.101537
-0.617405
0.625723
0.11029
-0.118575
-0.74597
0.754256
0.12714
-0.134397
-0.873477
0.880733
0.141744
-0.147766
-1.01978
1.0258
0.153469
-0.157664
-1.18993
1.19413
0.160983
-0.162642
-1.38694
1.3886
0.162828
-0.161329
-1.61586
1.61436
0.158419
-0.154361
-1.57654
1.57248
0.15028
-0.145777
-1.29447
1.28997
0.141906
-0.138017
-1.07329
1.0694
0.134412
-0.129971
-0.895449
0.891008
0.124632
-0.115509
-0.727877
0.718754
0.103204
-0.0861163
-0.527137
0.510049
0.0686303
-0.0495676
-0.30675
0.287687
0.0340292
-0.020215
-0.134838
0.121024
0.010963
-0.00433866
-0.0394727
0.0328483
0.00108145
-0.00279822
0.00171676
-0.0690547
0.0731801
-0.00412539
0.0291626
-0.0429289
-0.33454
0.348306
0.0568761
-0.0684281
-0.496888
0.50844
0.0787331
-0.0883009
-0.637807
0.647375
0.0989259
-0.108625
-0.76215
0.771849
0.119379
-0.128944
-0.887124
0.896689
0.139102
-0.148098
-1.03088
1.03987
0.157416
-0.165313
-1.19722
1.20511
0.173014
-0.178981
-1.38907
1.39504
0.184008
-0.186896
-1.61162
1.6145
0.18761
-0.18672
-1.56737
1.56648
0.184767
-0.181965
-1.2845
1.2817
0.179507
-0.176619
-1.06402
1.06113
0.173977
-0.169639
-0.884838
0.880501
0.162257
-0.148792
-0.707798
0.694333
0.130436
-0.105941
-0.49206
0.467565
0.0821347
-0.0572768
-0.268581
0.243723
0.0381244
-0.021934
-0.107867
0.0916769
0.011556
-0.00444854
-0.0267584
0.019651
0.00108666
-0.000718704
-0.000367955
-0.0803281
0.0784971
0.00183097
0.00748326
-0.016547
-0.36488
0.373944
0.0271312
-0.0352954
-0.524676
0.53284
0.0435431
-0.0516296
-0.659451
0.667538
0.0614129
-0.0704924
-0.781229
0.790309
0.0801262
-0.0889105
-0.9057
0.914485
0.0982021
-0.106083
-1.04857
1.05645
0.114416
-0.121095
-1.21279
1.21947
0.127522
-0.132172
-1.40065
1.4053
0.13544
-0.136731
-1.61649
1.61778
0.135837
-0.133306
-1.56476
1.56223
0.129714
-0.125151
-1.27815
1.27359
0.120969
-0.116394
-1.05604
1.05147
0.11208
-0.106341
-0.871313
0.865574
0.0985089
-0.0865884
-0.676901
0.66498
0.0726611
-0.05591
-0.441571
0.42482
0.0411983
-0.0274623
-0.219322
0.205586
0.017758
-0.0100534
-0.0765852
0.0688807
0.00531066
-0.00209187
-0.0130003
0.00978149
0.000447744
0.00147579
-0.00192353
-0.0817777
0.0788895
0.00288828
-0.00170924
-0.00354804
-0.385355
0.390612
0.0107649
-0.0166482
-0.545186
0.551069
0.0227463
-0.0298225
-0.677725
0.684801
0.03827
-0.046148
-0.798534
0.806412
0.0547346
-0.0623948
-0.922525
0.930186
0.0702377
-0.0772331
-1.06413
1.07112
0.0843994
-0.0901994
-1.22567
1.23147
0.0952806
-0.0986662
-1.40921
1.41259
0.100842
-0.100894
-1.61826
1.61832
0.0987795
-0.0950277
-1.55897
1.55522
0.0904538
-0.0850279
-1.26865
1.26322
0.0796239
-0.073852
-1.04516
1.03939
0.0683991
-0.0618528
-0.855887
0.849341
0.0546933
-0.0449207
-0.649777
0.640004
0.0349544
-0.0243651
-0.406344
0.395755
0.0165508
-0.0103705
-0.191383
0.185202
0.00659398
-0.00389477
-0.0612133
0.058514
0.00219336
-0.000883879
-0.00664166
0.00533218
0.000181404
0.00254736
-0.00272876
-0.0805173
0.0777807
0.00273652
-0.00534994
0.00282859
-0.39899
0.401511
0.00183356
-0.00627351
-0.560311
0.564751
0.0114148
-0.0173417
-0.692799
0.698726
0.0245439
-0.0312793
-0.813682
0.820417
0.0386065
-0.0451621
-0.937313
0.943868
0.0522433
-0.0581407
-1.07767
1.08356
0.0643489
-0.0688838
-1.23682
1.24136
0.0730917
-0.0757074
-1.4157
1.41831
0.0768893
-0.0758415
-1.61783
1.61678
0.0730579
-0.0686616
-1.55081
1.54641
0.0635176
-0.0571245
-1.25738
1.25099
0.0511347
-0.0446025
-1.03234
1.02581
0.0383041
-0.031591
-0.839543
0.832829
0.025087
-0.0176025
-0.627177
0.619693
0.0109976
-0.00550372
-0.384079
0.378585
0.00256927
-0.00101716
-0.17775
0.176197
0.000476977
-0.000413261
-0.0548743
0.0548106
0.000338773
-0.000128126
-0.00381428
0.00360363
1.07618e-06
0.00319365
-0.00319473
-0.0789971
0.0765661
0.00243095
-0.00650638
0.00559868
-0.408057
0.408965
-0.00217651
-0.00102139
-0.572413
0.575611
0.00519018
-0.010561
-0.705426
0.710797
0.0165985
-0.0224972
-0.826474
0.832373
0.028824
-0.0344931
-0.949961
0.95563
0.0405332
-0.0457443
-1.08931
1.09452
0.0509434
-0.0550333
-1.24572
1.24981
0.0585082
-0.0605
-1.42051
1.4225
0.0610485
-0.0594613
-1.61548
1.61389
0.0562182
-0.0512149
-1.54125
1.53625
0.0457486
-0.039162
-1.24443
1.23784
0.0328385
-0.0257438
-1.01833
1.01123
0.0192547
-0.0123967
-0.823527
0.816669
0.00658841
-0.000722702
-0.60959
0.603725
-0.00340616
0.00567183
-0.370952
0.368686
-0.00588372
0.00496271
-0.172604
0.173525
-0.00368186
0.00224536
-0.0539651
0.0554016
-0.00120051
0.000507085
-0.00335087
0.00404429
-0.000157323
0.00346358
-0.00330626
-0.0775722
0.0754834
0.00208881
-0.00641303
0.00602721
-0.41424
0.414626
-0.00400096
0.00143593
-0.581695
0.58426
0.00260027
-0.00718217
-0.716106
0.720688
0.0123594
-0.0174723
-0.837497
0.84261
0.0230859
-0.0281348
-0.960941
0.96599
0.0336331
-0.0381627
-1.09943
1.10396
0.0427859
-0.0463957
-1.25359
1.2572
0.0493409
-0.0509024
-1.42419
1.42575
0.0510237
-0.0494889
-1.61216
1.61063
0.0459854
-0.040965
-1.53077
1.52575
0.0353719
-0.0286555
-1.23102
1.2243
0.0224469
-0.01512
-1.00362
0.996293
0.00851487
-0.00182037
-0.80797
0.801276
-0.00338146
0.00804426
-0.595367
0.590705
-0.0109453
0.0118416
-0.363566
0.362669
-0.0106058
0.0085118
-0.172428
0.174522
-0.00643743
0.00410489
-0.056175
0.0585076
-0.00231599
0.000960946
-0.00473528
0.00609033
-0.000273308
0.00331484
-0.00304153
-0.0764731
0.0748391
0.00163399
-0.00555609
0.00551336
-0.418789
0.418832
-0.00390328
0.00199192
-0.589758
0.59167
0.00177086
-0.00590141
-0.72532
0.72945
0.0108021
-0.0151936
-0.84733
0.851721
0.0201111
-0.0245714
-0.970998
0.975458
0.0297656
-0.0338525
-1.10851
1.1126
0.0379149
-0.0412807
-1.2606
1.26396
0.0443094
-0.0456435
-1.4273
1.42863
0.045721
-0.0440262
-1.60866
1.60697
0.0408049
-0.035572
-1.5205
1.51527
0.030218
-0.0237874
-1.21741
1.21098
0.0176009
-0.0106803
-0.98882
0.981899
0.00422899
0.00235038
-0.793048
0.786469
-0.00710636
0.0111795
-0.583222
0.579149
-0.0136095
0.0140051
-0.358885
0.35849
-0.0126285
0.0102389
-0.174657
0.177047
-0.00784494
0.00514394
-0.0601654
0.0628664
-0.0029928
0.00125628
-0.00731098
0.0090475
-0.000363489
0.00286537
-0.00250188
-0.0758716
0.0745845
0.00128714
-0.00449597
0.00458511
-0.422364
0.422275
-0.00318594
0.00136814
-0.596744
0.598561
0.00223347
-0.00590626
-0.733567
0.737239
0.0100922
-0.0143156
-0.856053
0.860277
0.0188421
-0.0234225
-0.979714
0.984295
0.0278672
-0.0317471
-1.11676
1.12064
0.0359061
-0.0389942
-1.26719
1.27028
0.0415038
-0.0432054
-1.42985
1.43155
0.0434012
-0.0419184
-1.6053
1.60382
0.0387836
-0.0340606
-1.51023
1.50551
0.0289956
-0.0228903
-1.20429
1.19818
0.0171011
-0.0105072
-0.974774
0.96818
0.00438644
0.00177559
-0.778899
0.772737
-0.00670217
0.0103771
-0.572245
0.56857
-0.0124747
0.0132188
-0.355409
0.354665
-0.012285
0.0101243
-0.177316
0.179476
-0.00789731
0.0052993
-0.0646763
0.0672743
-0.00316891
0.00137077
-0.0104474
0.0122456
-0.000409137
0.00223418
-0.00182504
-0.0757951
0.0747229
0.00107219
-0.00323082
0.00308981
-0.425547
0.425688
-0.00195945
0.000193395
-0.603137
0.604903
0.0032564
-0.00679618
-0.741204
0.744744
0.0107996
-0.0146063
-0.864274
0.868081
0.0192336
-0.02301
-0.988286
0.992062
0.027403
-0.0310817
-1.12466
1.12834
0.0351026
-0.0383637
-1.27333
1.27659
0.0411316
-0.0425883
-1.433
1.43446
0.0430909
-0.0419788
-1.60225
1.60114
0.0394692
-0.0350745
-1.50071
1.49631
0.0304846
-0.0248303
-1.19226
1.18661
0.0194718
-0.0132421
-0.96136
0.95513
0.00761121
-0.0016313
-0.765656
0.759676
-0.00315761
0.00698036
-0.562026
0.558203
-0.00914388
0.0100717
-0.351729
0.350801
-0.00982307
0.00837021
-0.179388
0.180841
-0.00669695
0.0046
-0.0688127
0.0709096
-0.00281751
0.00127052
-0.0135353
0.0150822
-0.000378388
0.00152609
-0.00114771
-0.0759998
0.0752529
0.000746823
-0.00208249
0.00149742
-0.428811
0.429396
-0.000535421
-0.00147513
-0.608699
0.61071
0.00450983
-0.0078935
-0.748306
0.75169
0.0117198
-0.0156449
-0.871737
0.875662
0.0196422
-0.0235657
-0.996031
0.999955
0.0279062
-0.0313646
-1.13243
1.13589
0.0354616
-0.0386647
-1.27964
1.28284
0.0414791
-0.0434536
-1.43631
1.43829
0.0444355
-0.0436133
-1.60007
1.59925
0.0413806
-0.0377477
-1.49215
1.48852
0.0337429
-0.0285026
-1.18092
1.17568
0.0234594
-0.0178907
-0.948861
0.943292
0.012317
-0.00685023
-0.753002
0.747535
0.00213652
0.00205513
-0.552303
0.548111
-0.00437167
0.00574683
-0.347375
0.346
-0.00608394
0.00556545
-0.180351
0.180869
-0.00459957
0.00327252
-0.071831
0.073158
-0.00207844
0.000970494
-0.01602
0.0171279
-0.000294263
0.00089049
-0.000596228
-0.0766282
0.0760403
0.000587963
-0.00110825
0.00062126
-0.432298
0.432785
0.000969076
-0.00286072
-0.614447
0.616338
0.00604325
-0.00929144
-0.754875
0.758123
0.0129616
-0.0164768
-0.879242
0.882758
0.0205885
-0.0241885
-1.00387
1.00747
0.0284705
-0.0323574
-1.13979
1.14367
0.0360895
-0.039618
-1.28608
1.28961
0.0428497
-0.0449166
-1.44015
1.44222
0.0462799
-0.0462615
-1.59866
1.59864
0.0445028
-0.0415225
-1.4848
1.48182
0.0377599
-0.0330425
-1.17055
1.16583
0.0285177
-0.0232744
-0.937377
0.932134
0.0182359
-0.0129762
-0.741209
0.735949
0.00834637
-0.00382243
-0.542327
0.537803
0.000899575
0.00102174
-0.342201
0.34028
-0.00210822
0.00240699
-0.17971
0.179411
-0.0022077
0.0016877
-0.0733011
0.0738211
-0.00113909
0.000566583
-0.0175901
0.0181626
-0.000177836
0.000418858
-0.000241022
-0.0775334
0.07713
0.000403368
-8.22877e-05
-0.000646667
-0.435908
0.436637
0.00214878
-0.00435794
-0.619799
0.622008
0.00745447
-0.0105366
-0.761209
0.764291
0.0142929
-0.0176529
-0.886239
0.889599
0.021602
-0.0253206
-1.01153
1.01525
0.0295023
-0.0333536
-1.1474
1.15125
0.0373077
-0.040864
-1.29304
1.2966
0.0442858
-0.0471061
-1.44457
1.44739
0.0489261
-0.0492179
-1.59856
1.59885
0.0481573
-0.0455057
-1.47875
1.4761
0.0423296
-0.0382415
-1.16114
1.15705
0.0339216
-0.0290909
-0.926705
0.921874
0.0243789
-0.0191585
-0.730008
0.724787
0.014609
-0.00978581
-0.532276
0.527453
0.00633897
-0.00352876
-0.336024
0.333214