/*--------------------------------*- C++ -*----------------------------------*\
| =========                 |                                                 |
| \\      /  F ield         | OpenFOAM: The Open Source CFD Toolbox           |
|  \\    /   O peration     | Version:  4.0                                   |
|   \\  /    A nd           | Web:      www.OpenFOAM.org                      |
|    \\/     M anipulation  |                                                 |
\*---------------------------------------------------------------------------*/
FoamFile
{
    version     2.0;
    format      ascii;
    class       volVectorField;
    location    "26";
    object      U;
}
// * * * * * * * * * * * * * * * * * * * * * * * * * * * * * * * * * * * * * //

dimensions      [0 1 -1 0 0 0 0];

internalField   nonuniform List<vector> 
8800
(
(0.980149 -0.091521 0)
(1.00234 -0.0587254 0)
(0.999612 -0.0321249 0)
(1 -0.0165129 0)
(1.00005 -0.00882226 0)
(1.00003 -0.00506641 0)
(1.00001 -0.00296868 0)
(1 -0.00168574 0)
(1 -0.000811782 0)
(1.00005 -0.000125049 0)
(1 0.000566754 0)
(1 0.00132296 0)
(1 0.00235299 0)
(1.00002 0.00396356 0)
(1.00004 0.00671726 0)
(1.00005 0.0120286 0)
(0.999886 0.023086 0)
(0.999079 0.0431549 0)
(1.00722 0.0790297 0)
(0.775023 0.0478397 0)
(0.358985 -0.0147485 0)
(1.0465 -0.0724877 0)
(1.08849 -0.0660247 0)
(1.04946 -0.0509162 0)
(1.02553 -0.0376955 0)
(1.01267 -0.0258799 0)
(1.0065 -0.0166875 0)
(1.00359 -0.0102358 0)
(1.00216 -0.00565537 0)
(1.00152 -0.00210505 0)
(1.0014 0.00106784 0)
(1.00175 0.00436341 0)
(1.00272 0.00826076 0)
(1.00475 0.0135883 0)
(1.00898 0.0212818 0)
(1.01799 0.0317961 0)
(1.03589 0.0445883 0)
(1.06751 0.0580506 0)
(1.09475 0.0699611 0)
(0.84573 0.0554935 0)
(0.21778 -0.00138005 0)
(1.07568 -0.0506455 0)
(1.09944 -0.0489302 0)
(1.06439 -0.0400119 0)
(1.03984 -0.0325439 0)
(1.02368 -0.0253306 0)
(1.0139 -0.0181444 0)
(1.00844 -0.0115873 0)
(1.00562 -0.00590307 0)
(1.00448 -0.000692118 0)
(1.00481 0.00435502 0)
(1.00666 0.00962691 0)
(1.01056 0.015616 0)
(1.01789 0.0224006 0)
(1.03055 0.0295258 0)
(1.05061 0.0366422 0)
(1.08023 0.0444562 0)
(1.10585 0.0518133 0)
(0.94352 0.0409485 0)
(0.217354 0.00139707 0)
(0.176652 -0.00062772 0)
(1.01942 -0.0354406 0)
(1.10571 -0.0413862 0)
(1.07792 -0.0363829 0)
(1.05232 -0.0303538 0)
(1.03505 -0.0244888 0)
(1.02322 -0.0187313 0)
(1.01543 -0.0128153 0)
(1.01085 -0.00682732 0)
(1.00885 -0.00069122 0)
(1.00942 0.00539573 0)
(1.01254 0.0112805 0)
(1.01851 0.0170639 0)
(1.02811 0.0226887 0)
(1.04234 0.02828 0)
(1.06324 0.0340883 0)
(1.09411 0.0399984 0)
(1.09477 0.0415773 0)
(0.830797 0.0226841 0)
(0.175931 0.000641583 0)
(0.154779 -0.000460562 0)
(0.958285 -0.0256297 0)
(1.10442 -0.0350241 0)
(1.08801 -0.0325508 0)
(1.06107 -0.0280182 0)
(1.04295 -0.0230838 0)
(1.03057 -0.017899 0)
(1.02202 -0.0125155 0)
(1.01652 -0.00676197 0)
(1.01393 -0.000454738 0)
(1.01463 0.00589519 0)
(1.01847 0.0117062 0)
(1.02527 0.0169963 0)
(1.03543 0.0219928 0)
(1.05024 0.0268328 0)
(1.07229 0.0313416 0)
(1.10143 0.0353153 0)
(1.07038 0.0336424 0)
(0.743704 0.0143102 0)
(0.153703 0.000476258 0)
(0.140162 -0.000332195 0)
(0.901443 -0.0191995 0)
(1.09683 -0.030051 0)
(1.09611 -0.0292117 0)
(1.06869 -0.0254923 0)
(1.04973 -0.0214518 0)
(1.03673 -0.0168444 0)
(1.02779 -0.011739 0)
(1.0219 -0.00619944 0)
(1.01898 -6.68174e-05 0)
(1.0197 0.00610987 0)
(1.02382 0.0116614 0)
(1.03089 0.0166492 0)
(1.04146 0.021188 0)
(1.05697 0.0251991 0)
(1.07992 0.028742 0)
(1.10393 0.0314883 0)
(1.03915 0.0276296 0)
(0.677735 0.0100969 0)
(0.138653 0.000350885 0)
(0.129553 -0.00024868 0)
(0.852012 -0.0147082 0)
(1.08453 -0.0257564 0)
(1.1016 -0.0260637 0)
(1.07531 -0.0227796 0)
(1.0559 -0.0192431 0)
(1.04247 -0.0152719 0)
(1.03309 -0.0106772 0)
(1.0269 -0.0054621 0)
(1.0238 0.000428832 0)
(1.02445 0.00634746 0)
(1.02864 0.0115539 0)
(1.03597 0.0160443 0)
(1.04689 0.0198803 0)
(1.06276 0.0232056 0)
(1.08609 0.0262739 0)
(1.1034 0.0282214 0)
(1.00544 0.0228357 0)
(0.626968 0.00760756 0)
(0.127516 0.000271547 0)
(0.121558 -0.00018904 0)
(0.81027 -0.0113768 0)
(1.06949 -0.0219322 0)
(1.10514 -0.0232011 0)
(1.08138 -0.0203724 0)
(1.06136 -0.0170778 0)
(1.04761 -0.0134726 0)
(1.03797 -0.00930754 0)
(1.0315 -0.00446514 0)
(1.02818 0.00105396 0)
(1.02873 0.0065471 0)
(1.03295 0.0112936 0)
(1.0404 0.0152541 0)
(1.05148 0.0185812 0)
(1.06774 0.0215219 0)
(1.09164 0.0243058 0)
(1.10035 0.0253885 0)
(0.971865 0.0189249 0)
(0.587015 0.00592301 0)
(0.118882 0.000217218 0)
(0.115505 -0.00014255 0)
(0.775717 -0.00880178 0)
(1.05299 -0.0183927 0)
(1.1072 -0.0204209 0)
(1.08688 -0.0181452 0)
(1.0665 -0.0151411 0)
(1.05251 -0.0117283 0)
(1.04269 -0.00778497 0)
(1.03602 -0.00329822 0)
(1.03245 0.00179542 0)
(1.03286 0.00684615 0)
(1.03704 0.0110723 0)
(1.04447 0.0146001 0)
(1.05561 0.017588 0)
(1.07214 0.0201771 0)
(1.09575 0.0224945 0)
(1.09457 0.0227291 0)
(0.939963 0.0156952 0)
(0.555104 0.0047006 0)
(0.112051 0.000177216 0)
(0.110957 -0.000105257 0)
(0.747652 -0.00669635 0)
(1.03654 -0.0150645 0)
(1.10827 -0.017461 0)
(1.09182 -0.0154817 0)
(1.07126 -0.0126983 0)
(1.05703 -0.00962621 0)
(1.04698 -0.00605654 0)
(1.04008 -0.00194748 0)
(1.03629 0.00272243 0)
(1.03649 0.00727821 0)
(1.04054 0.0109687 0)
(1.04795 0.0139183 0)
(1.05918 0.0163708 0)
(1.07586 0.0185213 0)
(1.09857 0.0204823 0)
(1.08686 0.0201174 0)
(0.910746 0.0129751 0)
(0.529394 0.00375765 0)
(0.106553 0.000147971 0)
(0.107667 -7.28406e-05 0)
(0.725445 -0.00490485 0)
(1.02102 -0.0119346 0)
(1.10866 -0.0145474 0)
(1.09657 -0.0128801 0)
(1.07557 -0.0103202 0)
(1.06096 -0.00756763 0)
(1.05077 -0.00427515 0)
(1.04378 -0.000444615 0)
(1.03984 0.00381636 0)
(1.03972 0.00783709 0)
(1.04345 0.0110317 0)
(1.05063 0.0134747 0)
(1.06185 0.0153787 0)
(1.079 0.0170854 0)
(1.10032 0.0186627 0)
(1.0779 0.0176962 0)
(0.884587 0.0106716 0)
(0.508667 0.00301328 0)
(0.102098 0.000126278 0)
(0.105446 -4.61916e-05 0)
(0.708705 -0.0032821 0)
(1.0071 -0.00883428 0)
(1.10809 -0.0115405 0)
(1.10065 -0.0104203 0)
(1.07955 -0.00813094 0)
(1.06477 -0.00543329 0)
(1.05438 -0.00226187 0)
(1.04706 0.00127583 0)
(1.04271 0.00513621 0)
(1.04232 0.0086879 0)
(1.04586 0.011346 0)
(1.05293 0.0133449 0)
(1.06407 0.0149253 0)
(1.08134 0.016194 0)
(1.10066 0.0170351 0)
(1.06778 0.0152745 0)
(0.861739 0.00861299 0)
(0.492112 0.00239318 0)
(0.0984376 0.000112815 0)
(0.104258 -1.12577e-05 0)
(0.697301 -0.00172444 0)
(0.995605 -0.00570673 0)
(1.10674 -0.00810301 0)
(1.10397 -0.00725959 0)
(1.08342 -0.00524933 0)
(1.0685 -0.00282454 0)
(1.05792 9.45743e-05 0)
(1.05045 0.00332074 0)
(1.04583 0.00675893 0)
(1.04495 0.00977672 0)
(1.04801 0.011792 0)
(1.05475 0.013099 0)
(1.06576 0.0139612 0)
(1.08281 0.0147218 0)
(1.09966 0.0150607 0)
(1.05714 0.012822 0)
(0.842447 0.00677615 0)
(0.479258 0.00184785 0)
(0.0954713 9.63638e-05 0)
(0.104123 2.0688e-05 0)
(0.690759 -0.00034257 0)
(0.986973 -0.0028561 0)
(1.10552 -0.00475958 0)
(1.10683 -0.00396363 0)
(1.0866 -0.0021827 0)
(1.07148 -2.7386e-05 0)
(1.06067 0.00260534 0)
(1.05283 0.00556884 0)
(1.04776 0.00871278 0)
(1.04635 0.0112888 0)
(1.04896 0.0127837 0)
(1.05539 0.0134944 0)
(1.06624 0.0137381 0)
(1.08314 0.0136957 0)
(1.09777 0.0134519 0)
(1.04657 0.0108386 0)
(0.826333 0.00535097 0)
(0.469438 0.0014556 0)
(0.0931398 7.85257e-05 0)
(0.104896 5.51748e-05 0)
(0.688332 0.000649351 0)
(0.981024 -0.000559968 0)
(1.10443 -0.00205027 0)
(1.10947 -0.00146368 0)
(1.08974 0.000149781 0)
(1.07459 0.00236015 0)
(1.0638 0.00505921 0)
(1.05581 0.00810243 0)
(1.05025 0.0111298 0)
(1.04817 0.0133593 0)
(1.05006 0.0144871 0)
(1.05573 0.0147502 0)
(1.06603 0.0144437 0)
(1.08259 0.0139753 0)
(1.09462 0.0130493 0)
(1.03573 0.00973708 0)
(0.812674 0.0046758 0)
(0.461413 0.0013463 0)
(0.0911843 7.20303e-05 0)
(0.106294 7.35369e-05 0)
(0.688991 0.00131487 0)
(0.977815 0.00125725 0)
(1.10345 0.000404923 0)
(1.11175 0.000920817 0)
(1.09279 0.00249826 0)
(1.07772 0.00495597 0)
(1.06679 0.00795837 0)
(1.05836 0.011145 0)
(1.05205 0.0141172 0)
(1.04917 0.0160714 0)
(1.05025 0.0166824 0)
(1.05529 0.0164222 0)
(1.06501 0.0157 0)
(1.08104 0.0148209 0)
(1.09001 0.0131744 0)
(1.02467 0.00944172 0)
(0.800499 0.00473449 0)
(0.453675 0.00147106 0)
(0.0892067 7.86391e-05 0)
(0.108243 9.69358e-05 0)
(0.691995 0.00190982 0)
(0.977629 0.00278149 0)
(1.10351 0.00296454 0)
(1.11416 0.00390562 0)
(1.09625 0.00582222 0)
(1.08135 0.00868323 0)
(1.07015 0.0119015 0)
(1.06113 0.0150837 0)
(1.05395 0.0178244 0)
(1.04999 0.0192909 0)
(1.05012 0.0192913 0)
(1.05433 0.0184743 0)
(1.06341 0.0172558 0)
(1.07862 0.01581 0)
(1.08458 0.0137542 0)
(1.01391 0.00995265 0)
(0.788578 0.00532905 0)
(0.445129 0.00172368 0)
(0.0869298 9.4358e-05 0)
(0.110785 0.000122746 0)
(0.697058 0.0025611 0)
(0.979929 0.00408688 0)
(1.10584 0.00526815 0)
(1.11783 0.00717921 0)
(1.1004 0.00980748 0)
(1.08526 0.0130921 0)
(1.07351 0.0165537 0)
(1.06369 0.0198138 0)
(1.05545 0.022392 0)
(1.05021 0.023356 0)
(1.04928 0.0226829 0)
(1.0527 0.0212174 0)
(1.06103 0.0194545 0)
(1.0754 0.0175866 0)
(1.07883 0.015315 0)
(1.0032 0.0113926 0)
(0.77548 0.00624087 0)
(0.435182 0.00204443 0)
(0.0842001 0.000116912 0)
(0.114038 0.000154414 0)
(0.704179 0.00344783 0)
(0.984124 0.00563015 0)
(1.11011 0.00732237 0)
(1.12323 0.00986473 0)
(1.10551 0.0132285 0)
(1.08972 0.0172278 0)
(1.07718 0.0212755 0)
(1.06637 0.0250945 0)
(1.05677 0.0279894 0)
(1.04996 0.0288683 0)
(1.04768 0.0277832 0)
(1.05022 0.0255327 0)
(1.05814 0.0231303 0)
(1.07175 0.0209269 0)
(1.07264 0.0183844 0)
(0.990824 0.0134877 0)
(0.760157 0.00721825 0)
(0.423625 0.00239769 0)
(0.0809126 0.000143314 0)
(0.118281 0.000201315 0)
(0.71413 0.00470276 0)
(0.989658 0.00782738 0)
(1.11513 0.00962378 0)
(1.12947 0.0122382 0)
(1.11176 0.0161252 0)
(1.0952 0.0209568 0)
(1.0818 0.0260877 0)
(1.0698 0.0310587 0)
(1.05847 0.0348986 0)
(1.04979 0.0363021 0)
(1.04587 0.0353324 0)
(1.04694 0.032978 0)
(1.05403 0.0299266 0)
(1.06726 0.026654 0)
(1.06414 0.0225968 0)
(0.974851 0.0157273 0)
(0.742535 0.00822937 0)
(0.410394 0.00279841 0)
(0.0770252 0.000170929 0)
(0.123879 0.000272654 0)
(0.728104 0.00645856 0)
(0.997283 0.0110292 0)
(1.12011 0.0131843 0)
(1.13589 0.0155674 0)
(1.11891 0.0198022 0)
(1.10209 0.0256116 0)
(1.08783 0.0321865 0)
(1.07427 0.038537 0)
(1.06081 0.0434701 0)
(1.04991 0.0454066 0)
(1.04402 0.0444975 0)
(1.04335 0.0419086 0)
(1.04875 0.0382487 0)
(1.05959 0.0335315 0)
(1.05071 0.0268269 0)
(0.955075 0.0178543 0)
(0.722933 0.00945287 0)
(0.395223 0.00328792 0)
(0.0724541 0.000200817 0)
(0.13143 0.000383811 0)
(0.747562 0.00888685 0)
(1.00882 0.0155063 0)
(1.12576 0.0188677 0)
(1.14241 0.0213869 0)
(1.127 0.0262369 0)
(1.11064 0.0332805 0)
(1.0953 0.0412059 0)
(1.07969 0.0486365 0)
(1.06357 0.0541237 0)
(1.04998 0.0558889 0)
(1.0418 0.0543255 0)
(1.03894 0.0507665 0)
(1.0418 0.0459147 0)
(1.048 0.0392897 0)
(1.03265 0.0303743 0)
(0.932956 0.0201661 0)
(0.701413 0.0110567 0)
(0.377667 0.0038872 0)
(0.0671213 0.000230464 0)
(0.14171 0.000547875 0)
(0.773886 0.0122262 0)
(1.02629 0.0214383 0)
(1.13439 0.0268369 0)
(1.15013 0.0306877 0)
(1.13697 0.0371832 0)
(1.12075 0.0455104 0)
(1.10378 0.0543554 0)
(1.08547 0.0621737 0)
(1.06606 0.0672671 0)
(1.04924 0.0678433 0)
(1.03829 0.064655 0)
(1.0328 0.0592697 0)
(1.03223 0.0525072 0)
(1.03311 0.0441151 0)
(1.01227 0.0340232 0)
(0.90964 0.0232727 0)
(0.677236 0.0131637 0)
(0.356967 0.00463811 0)
(0.0608703 0.000266947 0)
(0.15598 0.000817805 0)
(0.809023 0.0171745 0)
(1.05171 0.0296024 0)
(1.14881 0.0378432 0)
(1.16173 0.0446001 0)
(1.14913 0.0531558 0)
(1.13203 0.0627864 0)
(1.11257 0.0721129 0)
(1.09084 0.0795592 0)
(1.06749 0.0832694 0)
(1.04691 0.0816333 0)
(1.03271 0.0759765 0)
(1.02421 0.0682507 0)
(1.01995 0.0593599 0)
(1.01621 0.0496018 0)
(0.990939 0.0389736 0)
(0.884634 0.0275927 0)
(0.649055 0.0158601 0)
(0.332374 0.00551031 0)
(0.0536156 0.000301925 0)
(0.176428 0.00129221 0)
(0.856083 0.0249679 0)
(1.08734 0.0414951 0)
(1.1706 0.0530439 0)
(1.17858 0.0634361 0)
(1.16391 0.0744982 0)
(1.14417 0.0854069 0)
(1.12104 0.0947695 0)
(1.09503 0.101084 0)
(1.06712 0.102509 0)
(1.04232 0.0978675 0)
(1.02462 0.0892637 0)
(1.01291 0.0789878 0)
(1.00526 0.0680968 0)
(0.997876 0.0571822 0)
(0.968505 0.0459411 0)
(0.856514 0.033279 0)
(0.615552 0.0192089 0)
(0.303324 0.00653189 0)
(0.0453137 0.000335334 0)
(0.206394 0.00235552 0)
(0.920447 0.0384676 0)
(1.13529 0.0609186 0)
(1.20023 0.0754203 0)
(1.20076 0.0898485 0)
(1.18111 0.102967 0)
(1.15662 0.1144 0)
(1.12848 0.122878 0)
(1.09736 0.127079 0)
(1.06437 0.125313 0)
(1.03513 0.117058 0)
(1.01385 0.105242 0)
(0.999 0.0923695 0)
(0.988393 0.0795809 0)
(0.977937 0.0674605 0)
(0.943887 0.0552128 0)
(0.823444 0.0404031 0)
(0.575635 0.0231968 0)
(0.270032 0.00770831 0)
(0.0362264 0.000357129 0)
(0.247579 0.00876278 -6.90732e-21)
(1.00587 0.0658936 -4.94122e-21)
(1.19236 0.0938746 1.10357e-21)
(1.23606 0.110802 0)
(1.22562 0.12762 -3.22282e-35)
(1.19884 0.140864 6.21774e-22)
(1.16805 0.151163 -2.03507e-21)
(1.13394 0.157532 0)
(1.09709 0.158757 6.18438e-35)
(1.05851 0.153238 -4.41668e-21)
(1.02441 0.14113 0)
(0.999158 0.126095 -6.0696e-21)
(0.980902 0.110751 -1.8429e-20)
(0.967255 0.0962671 -8.8746e-21)
(0.953636 0.0831676 -2.76818e-21)
(0.914016 0.0700668 -1.66718e-21)
(0.781252 0.0520537 0)
(0.525513 0.0299809 1.18666e-21)
(0.232523 0.0108044 1.40409e-21)
(0.0280285 0.000982509 2.49794e-20)
(0.27508 0.0246541 -1.7929e-20)
(1.07586 0.109348 5.07231e-22)
(1.23991 0.141705 -8.56936e-22)
(1.26889 0.160069 0)
(1.24823 0.175546 1.24369e-22)
(1.21432 0.187304 -1.00303e-21)
(1.17694 0.19575 -1.63497e-21)
(1.13649 0.199846 -8.84417e-21)
(1.09343 0.198286 0)
(1.04844 0.189432 1.88016e-20)
(1.00828 0.1739 2.02739e-20)
(0.977881 0.156099 6.41464e-21)
(0.95518 0.138619 2.48986e-20)
(0.937516 0.122391 3.62841e-20)
(0.919036 0.107736 0)
(0.872779 0.0927417 5.33171e-20)
(0.730412 0.070782 7.73281e-20)
(0.47489 0.0428003 8.61123e-20)
(0.201826 0.0172484 -9.90235e-20)
(0.0219575 0.00190209 -1.83947e-21)
(0.274025 0.0401275 0)
(1.11888 0.165861 -6.00963e-21)
(1.27364 0.201396 0)
(1.29429 0.219093 8.28572e-21)
(1.26597 0.231175 0)
(1.22585 0.239681 1.29487e-21)
(1.18238 0.244923 2.64235e-21)
(1.13593 0.245797 -1.4832e-20)
(1.08691 0.240841 -1.57141e-21)
(1.03593 0.22841 9.29673e-21)
(0.990193 0.209652 4.6834e-20)
(0.95516 0.189481 -3.07282e-22)
(0.928622 0.170434 -1.86246e-20)
(0.90761 0.153181 -3.57181e-20)
(0.886038 0.137575 4.3085e-20)
(0.837843 0.121087 -7.72516e-20)
(0.701052 0.0950305 -1.04561e-20)
(0.460515 0.0608739 0)
(0.20593 0.027059 4.51498e-23)
(0.0249575 0.00351213 0)
(0.266581 0.0537014 -1.56342e-19)
(1.14073 0.225372 6.4146e-20)
(1.29504 0.266015 3.35754e-20)
(1.31098 0.282763 -5.87478e-21)
(1.27738 0.291081 8.78885e-21)
(1.23249 0.295691 -4.34062e-21)
(1.18404 0.297106 4.77513e-21)
(1.13244 0.294201 0)
(1.07812 0.285502 -3.9227e-20)
(1.02171 0.269313 0)
(0.97105 0.247369 -2.41321e-20)
(0.932058 0.224985 -3.30165e-20)
(0.902385 0.204617 -2.08454e-20)
(0.87887 0.186545 -2.65764e-20)
(0.8555 0.170213 0)
(0.808642 0.152616 0)
(0.683899 0.123611 -7.0327e-20)
(0.463535 0.0838744 1.39759e-20)
(0.220427 0.0402134 -8.13965e-21)
(0.0307813 0.00598159 -9.51045e-21)
(0.258708 0.0658404 1.18773e-19)
(1.14918 0.284574 0)
(1.30697 0.331562 -9.66897e-20)
(1.32001 0.347682 -2.31972e-20)
(1.28268 0.352404 -1.5594e-20)
(1.23425 0.35311 0)
(1.18187 0.35063 1.48479e-21)
(1.12602 0.343842 1.47337e-20)
(1.06722 0.331262 1.81409e-20)
(1.0061 0.311258 4.657e-20)
(0.951202 0.286097 0)
(0.908989 0.261537 -7.20889e-20)
(0.876907 0.239833 -4.56225e-20)
(0.851534 0.221057 -2.74291e-20)
(0.827162 0.204325 1.7767e-19)
(0.782707 0.185753 2.17298e-20)
(0.670666 0.154705 1.03156e-19)
(0.469453 0.108836 -4.94299e-19)
(0.234434 0.0551473 2.93898e-19)
(0.0362321 0.00892427 -3.54223e-19)
(0.251595 0.0768372 1.27531e-19)
(1.14918 0.341609 -2.34366e-20)
(1.31206 0.396757 1.74698e-20)
(1.32296 0.412086 4.59919e-20)
(1.2829 0.413432 2.64046e-20)
(1.23173 0.410424 1.69988e-21)
(1.17624 0.404207 -2.16261e-21)
(1.11692 0.393636 1.31431e-20)
(1.05433 0.377245 -3.97434e-20)
(0.989239 0.353415 0)
(0.930776 0.324998 -3.13103e-20)
(0.885938 0.298189 -1.55908e-21)
(0.852061 0.275084 -5.0978e-20)
(0.825449 0.255571 0)
(0.80066 0.238446 -3.88302e-20)
(0.758845 0.219167 -9.42623e-20)
(0.657443 0.186433 2.58466e-19)
(0.47108 0.134235 -2.56206e-19)
(0.242723 0.0700653 3.64529e-19)
(0.0399516 0.0118561 -3.78889e-19)
(0.245853 0.0870755 -4.13013e-22)
(1.14409 0.395882 2.92814e-20)
(1.31185 0.459867 8.49208e-20)
(1.32118 0.474788 -2.89043e-20)
(1.27911 0.47313 1.5344e-20)
(1.2258 0.466714 0)
(1.16778 0.456996 3.70095e-21)
(1.10556 0.442836 -1.22475e-20)
(1.03975 0.422773 -1.90598e-20)
(0.971229 0.395183 0)
(0.909767 0.363439 -3.10998e-20)
(0.862819 0.334222 -4.25797e-20)
(0.827606 0.309502 5.58117e-20)
(0.800287 0.289014 -3.54031e-20)
(0.77562 0.271326 -1.71279e-19)
(0.736317 0.251362 1.04851e-19)
(0.642779 0.216675 3.26527e-20)
(0.467083 0.15789 0)
(0.243959 0.0831754 -3.53517e-19)
(0.0413159 0.0142618 -1.301e-20)
(0.241443 0.0968624 2.13264e-20)
(1.13602 0.447228 -3.40168e-20)
(1.30776 0.52038 -4.66518e-20)
(1.31586 0.535149 -8.83555e-20)
(1.27222 0.530856 7.6803e-20)
(1.21722 0.521387 -3.62151e-20)
(1.15713 0.50845 -7.51569e-21)
(1.09246 0.490946 -1.8945e-20)
(1.02385 0.4674 1.62974e-20)
(0.952261 0.436139 -1.14708e-19)
(0.888171 0.401001 -3.76131e-20)
(0.839514 0.369182 0)
(0.803295 0.342592 6.10206e-20)
(0.775623 0.320757 7.50708e-20)
(0.75133 0.302034 9.20429e-20)
(0.714189 0.281026 -1.1439e-19)
(0.62641 0.243775 -3.43072e-20)
(0.458067 0.178068 4.05042e-20)
(0.240326 0.0936083 0)
(0.0409768 0.0160052 -2.83464e-20)
(0.238183 0.106334 -2.50156e-19)
(1.12643 0.495773 1.56994e-19)
(1.30094 0.578017 5.16023e-20)
(1.30795 0.592845 -6.8269e-20)
(1.26303 0.586262 4.70455e-20)
(1.20665 0.574062 -3.95706e-21)
(1.14484 0.558221 6.25712e-21)
(1.07806 0.537653 -7.37832e-21)
(1.00695 0.510846 -3.40032e-20)
(0.932601 0.476047 2.05364e-22)
(0.866053 0.437482 -1.13552e-19)
(0.815876 0.402818 1.07524e-19)
(0.778952 0.374067 -6.81816e-20)
(0.751106 0.350619 8.43292e-20)
(0.727211 0.330572 0)
(0.691716 0.307967 -6.20974e-20)
(0.607979 0.267703 -1.04529e-21)
(0.444755 0.195118 -1.77152e-19)
(0.232489 0.101443 -2.61009e-20)
(0.0393415 0.0170927 0)
(0.235896 0.115606 0)
(1.11613 0.541731 1.71063e-19)
(1.29217 0.632702 1.21662e-19)
(1.29816 0.647728 7.77329e-20)
(1.25215 0.639141 4.42861e-20)
(1.19466 0.624525 0)
(1.1314 0.606086 1.10875e-20)
(1.06277 0.582747 -1.19071e-21)
(0.989413 0.552942 7.25863e-20)
(0.912459 0.514789 -1.45257e-20)
(0.843602 0.472783 -8.30146e-20)
(0.791946 0.435119 5.42615e-20)
(0.754351 0.403876 -1.99144e-21)
(0.726385 0.378444 8.89546e-20)
(0.702904 0.356767 5.76059e-20)
(0.668689 0.332233 -1.3499e-19)
(0.587541 0.288149 1.62562e-19)
(0.427875 0.20859 4.83613e-20)
(0.221229 0.10668 1.99511e-19)
(0.0366309 0.0174519 -5.34287e-19)
(0.234507 0.124783 -6.50375e-20)
(1.10573 0.585296 9.94856e-20)
(1.28222 0.684458 -7.71203e-20)
(1.28702 0.699793 -9.13524e-20)
(1.24012 0.689405 0)
(1.18169 0.672651 3.51402e-20)
(1.11719 0.651915 -2.96875e-20)
(1.04694 0.626102 1.16622e-20)
(0.97151 0.593583 0)
(0.892074 0.552297 -2.20949e-19)
(0.820881 0.506909 2.26049e-19)
(0.767654 0.466088 0)
(0.729276 0.432127 8.04922e-20)
(0.701218 0.404396 -1.98793e-21)
(0.678096 0.38074 -1.82434e-19)
(0.644702 0.353817 7.17323e-20)
(0.56502 0.305283 0)
(0.408132 0.218529 2.61958e-19)
(0.207442 0.109466 0)
(0.0332397 0.0172546 -2.54099e-19)
(0.233795 0.133929 7.2867e-20)
(1.09554 0.626635 1.14396e-19)
(1.27139 0.733349 -8.07313e-20)
(1.275 0.749022 0)
(1.22734 0.737038 6.32318e-20)
(1.16813 0.718407 0)
(1.10257 0.695642 4.41365e-20)
(1.03086 0.667648 1.23718e-21)
(0.953503 0.632716 9.57252e-21)
(0.871612 0.588565 -1.0923e-19)
(0.797938 0.5399 2.22572e-20)
(0.743013 0.495846 0)
(0.703766 0.458893 -1.71293e-19)
(0.675492 0.42859 2.04671e-21)
(0.652615 0.402666 0)
(0.619597 0.37292 2.3738e-21)
(0.540363 0.319253 2.38693e-19)
(0.385649 0.224978 -2.28383e-19)
(0.191626 0.109827 6.74092e-20)
(0.0293613 0.016466 0)
(0.233442 0.142885 0)
(1.08582 0.665818 1.28577e-19)
(1.26004 0.779511 9.55509e-20)
(1.26245 0.795469 -2.25003e-21)
(1.21414 0.782064 4.06735e-20)
(1.15428 0.761788 8.32588e-20)
(1.0878 0.737248 -1.33509e-20)
(1.01477 0.707353 -3.85863e-21)
(0.9356 0.670312 4.95411e-20)
(0.851248 0.623608 -1.71607e-19)
(0.774981 0.571864 -3.25899e-21)
(0.718098 0.524527 -7.10544e-20)
(0.677734 0.484394 2.80109e-19)
(0.649111 0.451262 -2.42458e-21)
(0.626348 0.42274 -1.43183e-19)
(0.593266 0.389646 -2.60724e-19)
(0.513644 0.330133 0)
(0.360743 0.228099 0)
(0.174081 0.107737 7.35253e-20)
(0.0251919 0.0151261 -4.30642e-20)
(0.233651 0.15179 9.14013e-20)
(1.07654 0.702747 -2.8265e-19)
(1.24845 0.823043 -1.02453e-19)
(1.24966 0.839213 0)
(1.20078 0.824541 -1.54548e-21)
(1.14038 0.80282 1.02591e-19)
(1.07311 0.776742 -5.01329e-20)
(0.998902 0.745214 -3.61901e-21)
(0.918008 0.706379 5.71794e-20)
(0.831221 0.657469 -1.345e-19)
(0.752177 0.602906 -1.92059e-19)
(0.692995 0.552327 1.89582e-19)
(0.651174 0.508832 0)
(0.622011 0.472557 -6.44815e-20)
(0.599211 0.441081 -1.567e-19)
(0.565649 0.40405 -1.88444e-19)
(0.484839 0.337796 -2.27405e-19)
(0.33359 0.227772 6.77216e-20)
(0.154979 0.103117 -3.97429e-20)
(0.0207012 0.0132381 3.60384e-22)
(0.233861 0.160552 0)
(1.06791 0.737818 0)
(1.23679 0.864009 2.564e-21)
(1.23681 0.880344 0)
(1.18746 0.86455 -1.54733e-19)
(1.12661 0.841561 -9.23444e-20)
(1.05867 0.814151 0)
(0.983415 0.781247 -3.96937e-21)
(0.900918 0.740927 8.3971e-20)
(0.811708 0.69018 -3.09166e-19)
(0.729668 0.633129 0)
(0.667807 0.579437 -1.21593e-19)
(0.624144 0.532445 -2.96683e-21)
(0.594124 0.492688 -2.43723e-21)
(0.57111 0.457784 1.67159e-19)
(0.536685 0.416071 -4.21822e-22)
(0.454008 0.342156 -4.92655e-19)
(0.304191 0.22381 1.46887e-19)
(0.134674 0.0960833 4.35155e-20)
(0.0161047 0.0109432 0)
(0.234083 0.169087 -3.38131e-19)
(1.05964 0.771166 -1.74642e-19)
(1.22518 0.902515 -2.59066e-19)
(1.22407 0.918963 3.55718e-19)
(1.17432 0.902157 -2.92033e-19)
(1.11312 0.878068 0)
(1.04463 0.84952 -4.59773e-20)
(0.968452 0.815474 6.3673e-21)
(0.884459 0.773967 3.79086e-21)
(0.792852 0.721768 2.395e-20)
(0.707642 0.662629 2.42757e-19)
(0.642704 0.606057 -4.18232e-20)
(0.596668 0.55551 -1.72775e-19)
(0.565348 0.511864 -7.62476e-20)
(0.541883 0.472877 9.25955e-20)
(0.506293 0.425527 -3.00931e-22)
(0.421398 0.342957 1.34366e-19)
(0.273013 0.216157 -3.17871e-19)
(0.113854 0.086958 3.77236e-19)
(0.0116049 0.00837037 5.4786e-20)
(0.234173 0.177305 1.24627e-19)
(1.05174 0.802846 -9.58678e-20)
(1.21375 0.938683 6.05105e-21)
(1.21154 0.955194 2.02168e-19)
(1.16148 0.937467 6.90288e-20)
(1.10002 0.912412 1.8575e-19)
(1.0311 0.882896 -2.16593e-20)
(0.95411 0.847915 3.44401e-20)
(0.868739 0.805499 -7.28833e-20)
(0.774796 0.752236 -1.73533e-19)
(0.686288 0.691473 0)
(0.617861 0.632371 -1.87241e-19)
(0.568852 0.578315 2.50453e-19)
(0.535559 0.530385 0)
(0.511234 0.486382 -1.98149e-19)
(0.47428 0.432029 1.21729e-19)
(0.387184 0.339668 -1.44966e-19)
(0.241109 0.204799 -1.72929e-19)
(0.0934686 0.0762341 -3.05863e-19)
(0.0074496 0.00570887 -2.38556e-19)
(0.234507 0.185302 -1.37294e-19)
(1.04405 0.832838 1.02498e-19)
(1.20254 0.972591 2.43551e-19)
(1.19931 0.989122 2.78755e-19)
(1.14903 0.970569 -1.4411e-19)
(1.08739 0.944673 1.29651e-19)
(1.01813 0.914329 -6.6794e-20)
(0.94046 0.878613 4.81638e-20)
(0.853837 0.835544 -3.77257e-20)
(0.757664 0.781593 1.70997e-19)
(0.665767 0.719701 5.20511e-19)
(0.593488 0.658516 0)
(0.540833 0.601173 0)
(0.504625 0.548686 -8.81309e-20)
(0.478639 0.498416 0)
(0.44011 0.434886 2.64178e-19)
(0.351587 0.331152 3.15174e-19)
(0.209888 0.189305 0)
(0.0749249 0.064417 0)
(0.00391534 0.00322778 2.58381e-19)
(0.234499 0.192823 1.5196e-19)
(1.03662 0.86115 1.23875e-19)
(1.19163 1.00436 1.75222e-19)
(1.18744 1.02087 -2.49937e-19)
(1.13702 1.00156 -1.61457e-19)
(1.07527 0.974927 -1.7359e-19)
(1.00578 0.943882 9.98783e-20)
(0.927555 0.907597 2.79821e-22)
(0.839821 0.864109 -4.88581e-21)
(0.741537 0.809828 -5.80885e-21)
(0.646251 0.747325 2.64953e-19)
(0.569816 0.684582 0)
(0.512861 0.624374 2.53268e-19)
(0.472513 0.567334 1.86485e-19)
(0.443339 0.509425 4.70389e-19)
(0.402522 0.433403 1.42589e-19)
(0.314383 0.315186 -1.72411e-19)
(0.18201 0.167678 -1.01027e-19)
(0.0624962 0.0515097 0)
(0.00236336 0.00155175 2.79535e-19)
(0.234735 0.200287 -3.34754e-19)
(1.02942 0.887882 0)
(1.18101 1.03405 1.9655e-19)
(1.17596 1.05053 -2.05224e-19)
(1.12548 1.03054 1.8395e-19)
(1.0637 1.00326 2.55802e-19)
(0.994092 0.971611 -2.3565e-19)
(0.915421 0.934906 3.63019e-22)
(0.826719 0.891202 0)
(0.726483 0.836903 -1.69647e-19)
(0.627884 0.774317 -5.56609e-19)
(0.547082 0.710614 2.60388e-20)
(0.485296 0.648125 3.4583e-19)
(0.439411 0.587004 0)
(0.404546 0.520389 3.1812e-19)
(0.359197 0.427785 0)
(0.27256 0.288613 0)
(0.159135 0.130903 -1.11458e-19)
(0.0731486 0.0263761 0)
(0.0255775 0.0104319 7.52866e-20)
(0.234597 0.207118 -3.6714e-19)
(1.0224 0.913358 0)
(1.17068 1.06188 3.18843e-19)
(1.16484 1.07832 0)
(1.1144 1.05775 -1.00296e-19)
(1.05262 1.02994 0)
(0.982989 0.997824 -1.81805e-20)
(0.903961 0.960874 -9.33851e-21)
(0.814415 0.917182 3.74257e-21)
(0.712357 0.863207 -1.73935e-19)
(0.610534 0.801097 1.51457e-20)
(0.52517 0.737167 2.1406e-19)
(0.457971 0.673003 3.35604e-19)
(0.404958 0.608754 4.7384e-20)
(0.360826 0.533239 2.49788e-19)
(0.306209 0.420535 0)
(0.214413 0.252258 3.73422e-19)
(0.112198 0.0679871 -2.19439e-19)
(0.0479827 0.0482068 2.52441e-19)
(-0.0675226 0.412697 -2.95725e-19)
(0.234453 0.213699 2.99719e-19)
(1.01535 0.937426 4.73108e-19)
(1.16056 1.08815 0)
(1.15396 1.10466 5.04443e-21)
(1.10359 1.08376 2.73461e-19)
(1.04179 1.05564 -4.99849e-19)
(0.972185 1.0233 -1.05943e-19)
(0.892798 0.986421 0)
(0.802422 0.943121 4.25187e-21)
(0.698546 0.890019 -6.7421e-21)
(0.593364 0.829118 0)
(0.503028 0.765999 0)
(0.429654 0.700834 2.96052e-19)
(0.367996 0.634512 -1.48022e-19)
(0.30974 0.551556 -2.50859e-19)
(0.238854 0.418132 0)
(0.122473 0.232357 1.90492e-19)
(0.0144542 0.427941 -2.20294e-19)
(0.0417814 1.83198 -1.15614e-19)
(0.0730604 2.78086 -1.50201e-19)
(0.234158 0.219422 -2.1985e-19)
(1.0085 0.960229 -5.98056e-19)
(1.15065 1.11286 1.84349e-19)
(1.1433 1.12941 1.75734e-19)
(1.09311 1.10834 0)
(1.03125 1.08008 -3.59184e-19)
(0.961858 1.04773 -1.79927e-19)
(0.8821 1.01112 6.91178e-21)
(0.79098 0.968507 1.0509e-21)
(0.685399 0.91672 1.45691e-19)
(0.576949 0.857674 2.57035e-19)
(0.481605 0.796577 2.25042e-19)
(0.401521 0.731229 2.92461e-19)
(0.330835 0.662598 -3.40087e-19)
(0.257511 0.578144 -3.73609e-19)
(0.160681 0.444181 0)
(0.0622937 0.811329 0)
(0.119349 2.50838 9.96873e-20)
(0.121547 3.17771 0)
(0.124158 3.37905 2.29888e-19)
(0.236326 0.224739 0)
(1.00239 0.981905 0)
(1.14074 1.13587 0)
(1.13265 1.15235 4.92035e-20)
(1.08263 1.13127 2.44567e-19)
(1.02078 1.10312 -2.75726e-19)
(0.951902 1.07101 -1.2964e-19)
(0.871821 1.03488 8.15685e-21)
(0.780055 0.993206 -2.39061e-20)
(0.672939 0.943167 -1.01122e-20)
(0.561427 0.886638 4.76737e-19)
(0.461244 0.828666 -2.63382e-20)
(0.374096 0.764901 3.35109e-20)
(0.295507 0.689975 4.86301e-20)
(0.203363 0.613054 4.30157e-22)
(0.124794 0.92979 1.82243e-21)
(0.163656 2.64979 -5.10865e-19)
(0.179077 3.27711 -1.91379e-19)
(0.164035 3.42461 9.06568e-20)
(0.147288 3.44947 -9.53193e-20)
(0.15397 0.181529 1.26038e-19)
(0.990445 1.00536 0)
(1.13057 1.15737 -3.59742e-19)
(1.12268 1.17402 -4.52986e-19)
(1.07292 1.15332 5.12736e-19)
(1.01128 1.12539 2.93455e-19)
(0.942218 1.09325 1.52679e-19)
(0.862059 1.05781 -1.51743e-19)
(0.76983 1.01734 3.52473e-20)
(0.661505 0.969421 0)
(0.547291 0.916018 2.14169e-19)
(0.442634 0.861917 -1.71772e-19)
(0.348234 0.804012 0)
(0.263496 0.720014 4.32539e-20)
(0.181028 0.82592 1.03239e-19)
(0.178665 2.36977 -1.27436e-19)
(0.249783 3.31355 1.42181e-19)
(0.225644 3.44306 7.01497e-20)
(0.187722 3.46698 7.91322e-20)
(0.162413 3.47832 1.05466e-19)
(0.278436 0.261727 -2.34154e-19)
(0.974404 1.01368 0)
(1.11197 1.18128 3.72827e-19)
(1.10861 1.20585 4.74859e-19)
(1.05721 1.18563 -5.29977e-19)
(0.995218 1.15821 -3.14923e-19)
(0.925468 1.12746 -2.3988e-19)
(0.844884 1.09317 -1.11438e-20)
(0.751635 1.05482 -6.53475e-20)
(0.641095 1.01072 6.3677e-20)
(0.522664 0.963648 9.48153e-21)
(0.411188 0.917481 1.37452e-19)
(0.302557 0.872139 2.82737e-20)
(0.233314 0.976246 -3.96472e-20)
(0.255096 2.22477 -9.29633e-20)
(0.325273 3.31622 7.19503e-20)
(0.311175 3.47937 -6.91187e-20)
(0.271646 3.50334 -3.89718e-20)
(0.23127 3.53228 -7.73051e-21)
(0.174288 3.52471 -1.81987e-21)
(0.265724 0.258023 0)
(0.971435 1.03519 9.88649e-20)
(1.10398 1.20382 -7.41557e-20)
(1.09882 1.22838 -5.32651e-20)
(1.04744 1.20812 -3.49528e-19)
(0.985572 1.18092 3.08255e-19)
(0.915584 1.15032 1.62697e-19)
(0.835025 1.11681 -1.19564e-20)
(0.741624 1.07992 8.67541e-20)
(0.63043 1.03861 -1.43319e-20)
(0.510319 0.996284 -3.09867e-19)
(0.396121 0.956487 1.95508e-20)
(0.290314 0.935609 -2.50113e-20)
(0.27457 1.41504 -3.35972e-20)
(0.361716 3.03756 1.82159e-20)
(0.39344 3.47287 9.19533e-22)
(0.347939 3.54192 1.42722e-20)
(0.30803 3.56708 -2.21015e-20)
(0.254958 3.59193 6.18131e-20)
(0.18954 3.58713 1.91509e-20)
(0.248878 0.255852 2.43302e-19)
(0.966715 1.05918 6.67231e-19)
(1.09542 1.22832 -2.12182e-19)
(1.08854 1.25231 -2.02413e-19)
(1.03718 1.23187 0)
(0.975508 1.20468 4.55147e-19)
(0.905587 1.17431 2.50357e-19)
(0.825337 1.14153 -1.28588e-20)
(0.732111 1.10615 8.76439e-21)
(0.620773 1.06778 3.26982e-21)
(0.499734 1.03043 -1.13191e-19)
(0.384635 0.997913 -1.4011e-19)
(0.294802 1.05165 -1.69702e-19)
(0.347516 2.04719 1.84774e-19)
(0.454788 3.36222 1.11824e-19)
(0.443646 3.54106 0)
(0.39117 3.58946 0)
(0.352174 3.63455 5.89787e-20)
(0.288906 3.70257 0)
(0.202267 3.67177 1.31556e-19)
(0.23746 0.256875 -3.56525e-19)
(0.96002 1.08411 -5.56532e-19)
(1.08542 1.25389 0)
(1.077 1.27703 5.90474e-21)
(1.02574 1.25617 -3.42818e-19)
(0.964376 1.22886 6.79227e-19)
(0.894856 1.19871 1.69639e-19)
(0.815129 1.16656 -1.69112e-20)
(0.722333 1.13259 1.09979e-19)
(0.611262 1.09707 -3.87664e-21)
(0.490101 1.06481 0)
(0.376316 1.04174 0)
(0.32205 1.25905 -1.3218e-19)
(0.439096 2.72428 4.76706e-20)