/*--------------------------------*- C++ -*----------------------------------*\
| =========                 |                                                 |
| \\      /  F ield         | OpenFOAM: The Open Source CFD Toolbox           |
|  \\    /   O peration     | Version:  4.0                                   |
|   \\  /    A nd           | Web:      www.OpenFOAM.org                      |
|    \\/     M anipulation  |                                                 |
\*---------------------------------------------------------------------------*/
FoamFile
{
    version     2.0;
    format      ascii;
    class       volScalarField;
    location    "50";
    object      p;
}
// * * * * * * * * * * * * * * * * * * * * * * * * * * * * * * * * * * * * * //

dimensions      [0 2 -2 0 0 0 0];

internalField   nonuniform List<scalar> 
2200
(
0.776501
0.755001
0.739094
0.723426
0.708815
0.696291
0.685933
0.677823
0.672111
0.669152
0.669603
0.67339
0.679727
0.688283
0.698959
0.711719
0.726498
0.7424
0.758431
0.779932
0.708938
0.705679
0.702754
0.698632
0.693164
0.686686
0.680062
0.674101
0.66959
0.667186
0.667663
0.670944
0.676104
0.682546
0.689519
0.696262
0.701926
0.706036
0.7089
0.712252
0.669024
0.669244
0.671298
0.67264
0.673032
0.672175
0.670187
0.667502
0.664948
0.663445
0.663986
0.666421
0.669676
0.672883
0.675214
0.676216
0.675936
0.674923
0.673259
0.673012
0.646535
0.647983
0.650585
0.653045
0.655479
0.657493
0.658643
0.658867
0.658481
0.65817
0.658779
0.660138
0.661325
0.661702
0.661006
0.65933
0.657161
0.654945
0.652329
0.650924
0.632217
0.634192
0.637005
0.639829
0.642677
0.645499
0.647946
0.649795
0.651008
0.65179
0.652497
0.652946
0.65269
0.651562
0.64969
0.647308
0.64476
0.642036
0.639241
0.637315
0.624877
0.626475
0.628672
0.631197
0.633863
0.636526
0.639107
0.641508
0.643506
0.644992
0.645822
0.645811
0.644957
0.643431
0.641517
0.639365
0.63703
0.634686
0.632589
0.631013
0.621491
0.622515
0.62378
0.625638
0.627771
0.629926
0.632107
0.634383
0.636586
0.638404
0.6394
0.639386
0.638574
0.637344
0.635924
0.634342
0.632639
0.631057
0.629934
0.628918
0.618844
0.619514
0.620145
0.621445
0.623055
0.624731
0.626469
0.628372
0.630402
0.632325
0.633529
0.633794
0.633446
0.6328
0.632009
0.631041
0.629961
0.629023
0.62857
0.627894
0.615629
0.616074
0.616466
0.617458
0.618715
0.620092
0.621574
0.623212
0.625024
0.626936
0.628398
0.629135
0.629361
0.629276
0.628963
0.628473
0.627872
0.627319
0.627123
0.62666
0.611658
0.611956
0.612314
0.613177
0.614275
0.615529
0.616942
0.61853
0.620298
0.622265
0.624064
0.625328
0.626042
0.626368
0.626405
0.626219
0.625882
0.625528
0.62539
0.625068
0.607007
0.607211
0.607579
0.608404
0.609494
0.610797
0.612305
0.61401
0.615936
0.618127
0.620313
0.622032
0.623161
0.623791
0.624067
0.624101
0.623943
0.623733
0.623613
0.623379
0.601864
0.60201
0.602381
0.603189
0.60433
0.605755
0.607457
0.609422
0.611664
0.614241
0.61694
0.619153
0.620637
0.621535
0.622001
0.622192
0.62221
0.622137
0.622048
0.621863
0.596351
0.596459
0.596836
0.59765
0.598859
0.600437
0.602377
0.604692
0.60742
0.610591
0.613881
0.61658
0.618438
0.619613
0.62031
0.620697
0.620896
0.62095
0.6209
0.620743
0.590453
0.590522
0.5909
0.591746
0.593084
0.594856
0.597069
0.599778
0.603074
0.606968
0.611011
0.614263
0.616525
0.618079
0.61912
0.619775
0.62019
0.620369
0.62036
0.620213
0.584039
0.58408
0.584497
0.585401
0.586864
0.588836
0.591343
0.594479
0.598369
0.603053
0.607964
0.612031
0.614945
0.617021
0.618489
0.619475
0.620114
0.620428
0.620468
0.620326
0.577057
0.57702
0.577428
0.578413
0.58009
0.582305
0.585132
0.588748
0.593353
0.599007
0.604996
0.610072
0.613804
0.616507
0.618501
0.619896
0.620798
0.621267
0.621356
0.621214
0.569217
0.569193
0.56965
0.570766
0.572655
0.575174
0.578458
0.582708
0.588161
0.594948
0.602254
0.60849
0.613217
0.616703
0.619267
0.621112
0.622325
0.622961
0.623103
0.622955
0.560415
0.560441
0.56086
0.562066
0.564295
0.567272
0.571178
0.576231
0.58273
0.590885
0.599765
0.607468
0.613308
0.617668
0.620919
0.623251
0.624788
0.625591
0.625789
0.625632
0.55016
0.550136
0.550675
0.552104
0.554684
0.55824
0.562972
0.569109
0.576969
0.586838
0.597637
0.607015
0.614194
0.619568
0.623542
0.626424
0.628335
0.629306
0.629556
0.629379
0.53801
0.537942
0.538614
0.540431
0.543538
0.547859
0.553683
0.561277
0.571028
0.583153
0.596221
0.607393
0.615935
0.622414
0.627246
0.630718
0.633033
0.63418
0.634476
0.63428
0.523613
0.5235
0.524266
0.526482
0.53038
0.535817
0.543129
0.552663
0.564837
0.579706
0.595354
0.608571
0.618662
0.626351
0.632077
0.63629
0.639039
0.640357
0.640694
0.640473
0.506065
0.505974
0.506962
0.509718
0.514605
0.521509
0.530794
0.542765
0.557828
0.575926
0.594684
0.610438
0.622354
0.631397
0.63822
0.643196
0.646402
0.64791
0.648284
0.64803
0.484388
0.484227
0.485523
0.489087
0.495407
0.504351
0.516224
0.531326
0.549885
0.571744
0.594121
0.612809
0.626938
0.637605
0.645656
0.651516
0.655236
0.656916
0.657308
0.657011
0.456397
0.456401
0.458445
0.463387
0.471912
0.483891
0.499495
0.51877
0.541717
0.568038
0.594466
0.616245
0.63262
0.645043
0.654442
0.661269
0.665492
0.667324
0.667693
0.667343
0.419131
0.419367
0.422873
0.430701
0.443219
0.460113
0.48099
0.50573
0.534107
0.565594
0.59628
0.621181
0.639833
0.653966
0.664688
0.672439
0.67705
0.678922
0.679226
0.678824
0.369315
0.369695
0.376625
0.38972
0.408682
0.432759
0.460675
0.492083
0.526701
0.563917
0.599285
0.627429
0.648363
0.66425
0.676296
0.684788
0.689529
0.691214
0.691343
0.69098
0.303422
0.306244
0.321283
0.342503
0.370283
0.403191
0.439205
0.478058
0.519612
0.563285
0.603882
0.63593
0.659895
0.678096
0.691803
0.701455
0.706487
0.707965
0.707932
0.707759
0.22836
0.237741
0.26276
0.293815
0.331674
0.37357
0.417687
0.464156
0.512868
0.563234
0.609804
0.646769
0.674401
0.695423
0.711476
0.722444
0.727743
0.72886
0.728771
0.728751
0.161165
0.17589
0.207204
0.246992
0.294315
0.345018
0.397146
0.451303
0.50732
0.564497
0.617167
0.658324
0.689097
0.712627
0.730174
0.742202
0.747839
0.748939
0.749273
0.749244
0.109868
0.123061
0.159765
0.205697
0.260336
0.318523
0.378072
0.43959
0.502691
0.56651
0.624235
0.669439
0.703271
0.728821
0.74806
0.7611
0.767155
0.768835
0.769019
0.769078
0.0675882
0.0800213
0.12037
0.170285
0.230449
0.294645
0.360646
0.428641
0.497889
0.567551
0.630464
0.679765
0.716023
0.743728
0.764483
0.778285
0.785047
0.787116
0.78727
0.787359
0.0312666
0.0439895
0.0870621
0.139831
0.2043
0.273276
0.344667
0.418234
0.493157
0.568675
0.636986
0.68929
0.727993
0.757243
0.779177
0.793735
0.80077
0.803078
0.803304
0.803401
-0.000383514
0.0125487
0.0577679
0.1131
0.181085
0.253989
0.329972
0.408473
0.488658
0.569298
0.641554
0.697258
0.738299
0.768947
0.791679
0.80676
0.814285
0.816749
0.817089
0.817161
-0.0287092
-0.0156949
0.0311493
0.0889412
0.160067
0.23637
0.316336
0.39914
0.483825
0.568987
0.64568
0.704623
0.747128
0.778814
0.802124
0.817744
0.825454
0.828194
0.828606
0.828658
-0.0546127
-0.0415333
0.00650138
0.0666464
0.140553
0.219871
0.303316
0.389824
0.478536
0.568301
0.649174
0.710316
0.754673
0.787443
0.811063
0.826955
0.835072
0.837951
0.838434
0.838453
-0.0789025
-0.0655086
-0.0165597
0.0457481
0.122069
0.204044
0.290519
0.380352
0.472899
0.566807
0.651128
0.71532
0.761422
0.794847
0.819133
0.835034
0.843282
0.846256
0.846775
0.846722
-0.101733
-0.0881766
-0.0383289
0.0258831
0.104261
0.18858
0.277767
0.370641
0.46663
0.564197
0.652525
0.719917
0.767429
0.801961
0.826423
0.842178
0.850414
0.853354
0.853841
0.853657
-0.123304
-0.109684
-0.0590726
0.00674696
0.0869073
0.173348
0.264988
0.360563
0.459586
0.560737
0.653142
0.723494
0.773141
0.808573
0.833167
0.848789
0.856683
0.859592
0.860036
0.859944
-0.144024
-0.130211
-0.0789882
-0.0118156
0.0698973
0.158246
0.252074
0.350032
0.451844
0.556533
0.652926
0.726686
0.778825
0.815233
0.839777
0.854964
0.862681
0.865335
0.865771
0.86567
-0.164276
-0.149947
-0.0982582
-0.0299043
0.0531657
0.143199
0.238957
0.339087
0.443529
0.551511
0.651753
0.729307
0.784163
0.821965
0.846667
0.86133
0.868387
0.870752
0.871077
0.87098
-0.184186
-0.16913
-0.116992
-0.0475661
0.0366791
0.128179
0.22565
0.327788
0.434663
0.545695
0.64984
0.731406
0.789315
0.829225
0.854284
0.868079
0.874279
0.875831
0.87602
0.875915
-0.203636
-0.187848
-0.135249
-0.0648312
0.0204373
0.11322
0.212224
0.316192
0.42529
0.539122
0.646824
0.732468
0.794267
0.836901
0.863035
0.875948
0.88039
0.880578
0.880437
0.880321
-0.222536
-0.206146
-0.153027
-0.0816828
0.00448676
0.0983877
0.198729
0.304308
0.415369
0.53167
0.642701
0.732626
0.798666
0.84507
0.8734
0.885553
0.887689
0.885065
0.884571
0.885404
-0.240805
-0.223954
-0.170301
-0.0980912
-0.0111221
0.0837349
0.185207
0.292162
0.404949
0.523456
0.637481
0.731536
0.802467
0.853432
0.885456
0.898371
0.897948
0.89125
0.886156
0.884718
-0.258448
-0.241225
-0.18702
-0.114015
-0.0263382
0.0693182
0.171711
0.279824
0.394118
0.514518
0.631052
0.728975
0.804812
0.861599
0.899091
0.915331
0.915975
0.903994
0.90284
0.907073
-0.275439
-0.257869
-0.203138
-0.129417
-0.04112
0.0551923
0.158325
0.267398
0.382966
0.504934
0.62351
0.724702
0.805503
0.868565
0.91323
0.936223
0.940293
0.911672
0.871219
0.835297
-0.291741
-0.273909
-0.218684
-0.144366
-0.0555677
0.0412467
0.144925
0.254719
0.371257
0.494481
0.614694
0.718367
0.803367
0.873169
0.926859
0.959849
0.978974
0.961221
0.978133
1.03635
-0.307294
-0.289358
-0.233744
-0.159
-0.0698584
0.0272633
0.131251
0.241446
0.358528
0.482587
0.603979
0.709169
0.797374
0.872597
0.931693
0.969045
0.981361
0.96057
0.919736
0.934277
-0.322087
-0.304209
-0.248264
-0.173256
-0.0839083
0.0133474
0.117426
0.227718
0.344946
0.469377
0.591352
0.697018
0.785738
0.862312
0.921941
0.958552
0.947389
0.894244
0.830565
0.818367
-0.336091
-0.31843
-0.262242
-0.187131
-0.097713
-0.000505083
0.103453
0.21357
0.330569
0.454807
0.57659
0.681552
0.768148
0.840097
0.893955
0.903417
0.869039
0.792761
0.718526
0.696711
-0.349357
-0.332038
-0.275687
-0.200642
-0.111297
-0.0143093
0.0893363
0.199032
0.315457
0.438943
0.559663
0.662556
0.743494
0.803734
0.832996
0.820826
0.763873
0.6627
0.57563
0.553796
-0.362339
-0.345419
-0.289002
-0.214164
-0.125016
-0.0283811
0.0748053
0.183885
0.299424
0.421575
0.540315
0.639487
0.712971
0.757621
0.752859
0.718546
0.608572
0.486616
0.379536
0.352706
-0.375938
-0.359405
-0.302889
-0.228322
-0.139448
-0.0432022
0.0594559
0.167785
0.282178
0.402495
0.518392
0.611899
0.678303
0.699038
0.66552
0.578542
0.423172
0.270974
0.142067
0.114741
-0.390668
-0.374361
-0.317679
-0.243365
-0.154772
-0.0589022
0.0431953
0.150671
0.263702
0.381712
0.493754
0.580888
0.637003
0.629635
0.577171
0.428253
0.229004
0.0168891
-0.16286
-0.211013
-0.406654
-0.390435
-0.333422
-0.259305
-0.170972
-0.0754531
0.0260508
0.13257
0.244055
0.359313
0.466232
0.547719
0.588952
0.55014
0.463221
0.275926
0.0451724
-0.243095
-0.564109
-0.711646
-0.423955
-0.407654
-0.350249
-0.276244
-0.188097
-0.0929232
0.00794364
0.113414
0.223202
0.335393
0.436465
0.512078
0.535446
0.466132
0.330319
0.125207
-0.108502
-0.451982
-1.03874
-1.6107
-0.442666
-0.426189
-0.36821
-0.294225
-0.20618
-0.11131
-0.0110882
0.0932893
0.201307
0.310336
0.405428
0.473334
0.478382
0.392254
0.20177
-0.0316218
-0.234139
-0.468664
-1.02456
-2.54141
-0.462788
-0.446013
-0.387432
-0.313395
-0.225374
-0.130818
-0.0312908
0.0719156
0.178025
0.283766
0.372928
0.431258
0.416526
0.334523
0.108812
-0.129241
-0.276972
-0.314111
-0.304064
-0.692289
-0.48427
-0.467425
-0.408053
-0.334033
-0.246097
-0.151944
-0.0532739
0.0485366
0.152407
0.254233
0.337924
0.38597
0.355647
0.285884
0.0593738
-0.143146
-0.25385
-0.261665
-0.208367
-0.248707
-0.506924
-0.49011
-0.430111
-0.356231
-0.268411
-0.174813
-0.0772011
0.0229748
0.124243
0.221607
0.300668
0.338779
0.301981
0.233114
0.0277714
-0.13322
-0.215465
-0.223177
-0.271007
-0.275311
-0.530837
-0.514048
-0.453461
-0.379949
-0.292325
-0.199445
-0.103105
-0.00481438
0.0935387
0.186294
0.260784
0.28965
0.255522
0.173051
-0.000101766
-0.123417
-0.193701
-0.170159
-0.190802
-0.192343
-0.555642
-0.538685
-0.478081
-0.405133
-0.317666
-0.225761
-0.130917
-0.0347287
0.0604436
0.148663
0.218592
0.236942
0.214776
0.105626
-0.0346736
-0.118093
-0.157762
-0.204388
-0.179547
-0.187898
-0.581131
-0.563776
-0.503734
-0.431529
-0.344235
-0.25361
-0.160445
-0.066548
0.0250711
0.109051
0.17503
0.183238
0.172494
0.0453098
-0.0714416
-0.13586
-0.114326
-0.174073
-0.154567
-0.159376
-0.606367
-0.588809
-0.530324
-0.458814
-0.371673
-0.282732
-0.191396
-0.0999497
-0.0123378
0.0678824
0.131039
0.131791
0.121295
-0.00673879
-0.0983663
-0.14989
-0.137741
-0.154154
-0.159554
-0.157875
-0.631
-0.613584
-0.556966
-0.48618
-0.399665
-0.312774
-0.223358
-0.134513
-0.0512546
0.0254168
0.0871751
0.0840591
0.0649588
-0.0502658
-0.11348
-0.143543
-0.181499
-0.154909
-0.161451
-0.156184
-0.653975
-0.637296
-0.582648
-0.512899
-0.427817
-0.343162
-0.255784
-0.169659
-0.0908018
-0.0180456
0.0430446
0.0400649
0.00970353
-0.088113
-0.130612
-0.11935
-0.189522
-0.138843
-0.153192
-0.146198
-0.674649
-0.659088
-0.606335
-0.537889
-0.455667
-0.373107
-0.287995
-0.20479
-0.13001
-0.0619941
-0.00139763
-0.00118973
-0.0380481
-0.107515
-0.144547
-0.105948
-0.149072
-0.129332
-0.135089
-0.132154
-0.691413
-0.677487
-0.627341
-0.560828
-0.482185
-0.401581
-0.319166
-0.239072
-0.167842
-0.105491
-0.046304
-0.0411648
-0.0741219
-0.111291
-0.140359
-0.119881
-0.129828
-0.129243
-0.128028
-0.127845
-0.703453
-0.691617
-0.644593
-0.580613
-0.505658
-0.427677
-0.348302
-0.271567
-0.203453
-0.147302
-0.0900309
-0.0793702
-0.105646
-0.105021
-0.121787
-0.139453
-0.125403
-0.13317
-0.128334
-0.128308
-0.709335
-0.699902
-0.65704
-0.59625
-0.524917
-0.450256
-0.37433
-0.301068
-0.235882
-0.185361
-0.130352
-0.117412
-0.144485
-0.109014
-0.0730074
-0.119162
-0.10253
-0.133905
-0.134426
-0.136089
-0.708988
-0.701677
-0.663007
-0.605929
-0.538614
-0.467897
-0.395821
-0.326171
-0.26399
-0.21776
-0.165033
-0.154873
-0.189238
-0.155587
-0.0312702
-0.0578383
-0.0797966
-0.105394
-0.113887
-0.118936
-0.701433
-0.694168
-0.660712
-0.608739
-0.546075
-0.479622
-0.411537
-0.345246
-0.285867
-0.241896
-0.193657
-0.193003
-0.244095
-0.307448
-0.330775
-0.401675
-0.415646
-0.391322
-0.368264
-0.353734
-0.68193
-0.673796
-0.647814
-0.602843
-0.545886
-0.484248
-0.420315
-0.356794
-0.298662
-0.255008
-0.210538
-0.210566
-0.327905
-0.568425
-0.935926
-1.14654
-1.17062
-1.12683
-1.02521
-0.943394
-0.641943
-0.634319
-0.62302
-0.589033
-0.538828
-0.481904
-0.421902
-0.35961
-0.299709
-0.252632
-0.210721
-0.186197
-0.306695
-0.538396
-0.798821
-0.874562
-0.815945
-0.721853
-0.655688
-0.619137
-0.598503
-0.595193
-0.593671
-0.567377
-0.525276
-0.473684
-0.416265
-0.353789
-0.288397
-0.230077
-0.177776
-0.0955254
-0.00835276
0.13179
0.255722
0.413784
0.548492
0.637024
0.69979
0.753665
-0.574054
-0.574993
-0.566978
-0.548425
-0.512378
-0.463101
-0.405176
-0.34072
-0.266822
-0.18626
-0.103528
0.0452264
0.272727
0.63518
0.983516
1.26351
1.45671
1.56732
1.61629
1.63046
-0.542637
-0.543336
-0.538333
-0.530989
-0.499808
-0.452564
-0.39302
-0.32498
-0.243508
-0.145482
-0.0374561
0.111933
0.373198
0.730016
1.07903
1.36621
1.57051
1.68903
1.74195
1.75972
-0.518458
-0.517352
-0.518461
-0.5138
-0.488885
-0.443999
-0.382788
-0.310225
-0.224572
-0.119257
-0.00384119
0.11444
0.354671
0.65962
0.962458
1.22347
1.42507
1.54783
1.60269
1.61848
-0.500621
-0.498588
-0.501111
-0.494391
-0.479951
-0.439188
-0.376285
-0.300006
-0.212844
-0.108833
0.000542205
0.0839155
0.280957
0.537792
0.786534
1.00192
1.17563
1.2816
1.32776
1.33918
-0.487905
-0.485814
-0.483912
-0.480354
-0.476083
-0.435155
-0.371323
-0.293969
-0.20904
-0.113935
-0.0115913
0.0497421
0.200022
0.414691
0.612876
0.777743
0.909893
0.991353
1.02638
1.0353
-0.493912
-0.492484
-0.4911
-0.496741
-0.4882
-0.436324
-0.36804
-0.289629
-0.207823
-0.124987
-0.0286803
0.0221384
0.12877
0.301771
0.456553
0.578277
0.673688
0.734732
0.761025
0.766884
-0.506692
-0.507779
-0.511386
-0.519075
-0.500682
-0.438631
-0.363359
-0.283002
-0.204142
-0.133815
-0.0443364
0.00173059
0.0712923
0.205613
0.324206
0.41408
0.483157
0.528183
0.546057
0.551158
-0.486171
-0.489271
-0.497516
-0.502775
-0.480443
-0.418703
-0.345574
-0.268648
-0.194563
-0.135719
-0.0556809
-0.0122462
0.0314855
0.133027
0.221422
0.286602
0.336846
0.369678
0.38305
0.387662
-0.397916
-0.402361
-0.40999
-0.414576
-0.397971
-0.353712
-0.299217
-0.239419
-0.175897
-0.127493
-0.0611594
-0.0223398
0.00670437
0.0849219
0.148274
0.193319
0.230593
0.255293
0.265103
0.267663
-0.267812
-0.27121
-0.274932
-0.27778
-0.270228
-0.250808
-0.223554
-0.189083
-0.145666
-0.10953
-0.0605836
-0.0283125
-0.00834402
0.0525908
0.0977242
0.128411
0.154221
0.170191
0.177072
0.178849
-0.145613
-0.147222
-0.149789
-0.153676
-0.153604
-0.150976
-0.144411
-0.130792
-0.108318
-0.0857054
-0.0546387
-0.0300905
-0.014338
0.0307715
0.0617607
0.08297
0.0983254
0.106854
0.109854
0.110108
-0.0527485
-0.0537251
-0.0556959
-0.0608492
-0.0681096
-0.075617
-0.080219
-0.0794373
-0.0719833
-0.0619058
-0.0445523
-0.0285221
-0.0153175
0.0155715
0.0354928
0.048152
0.0558676
0.0590216
0.0589153
0.0579511
0.00562496
0.00487611
0.00312945
-0.00263508
-0.0134887
-0.0258728
-0.0356391
-0.0416819
-0.0426859
-0.0413562
-0.0328253
-0.0234171
-0.0139441
0.00382348
0.0150413
0.0212164
0.0240862
0.0239701
0.0223835
0.0209952
0.0352825
0.0347052
0.0331125
0.0275491
0.0169086
0.00384414
-0.00786089
-0.0171219
-0.0221907
-0.0257335
-0.0218527
-0.0168789
-0.0122992
-0.00415457
0.000493216
0.00244984
0.00255673
0.000935541
-0.00122974
-0.00270133
0.0472145
0.0467431
0.0453751
0.04055
0.0313086
0.0194254
0.00776902
-0.00243881
-0.00921397
-0.0148417
-0.0132159
-0.0110169
-0.0110778
-0.00887942
-0.0082466
-0.00861367
-0.00976952
-0.0119223
-0.0140038
-0.0154512
0.0489613
0.0486104
0.0475342
0.0437479
0.0364042
0.0266082
0.0161649
0.00620106
-0.00113272
-0.00756916
-0.00753872
-0.00785833
-0.00944249
-0.0097008
-0.0110576
-0.0125693
-0.0146175
-0.0170309
-0.0188937
-0.0202602
0.0455866
0.0453411
0.0445393
0.0417148
0.0362297
0.0287336
0.0201936
0.0113697
0.0044876
-0.00241068
-0.00361773
-0.00565423
-0.00843077
-0.00896353
-0.0108934
-0.0131498
-0.0155609
-0.0178795
-0.0194241
-0.0205938
0.0400118
0.0398571
0.0392891
0.0372883
0.0333538
0.0278428
0.0212974
0.0139767
0.00818006
0.00108923
-0.00110756
-0.003129
-0.00639242
-0.00768966
-0.009922
-0.0122681
-0.0145146
-0.0163654
-0.0174133
-0.0184182
0.0336686
0.0335688
0.033163
0.0317774
0.0290066
0.0250094
0.0201491
0.0143285
0.0098496
0.00316742
0.000556257
-0.00150442
-0.00420387
-0.00548986
-0.00786808
-0.0101311
-0.0120105
-0.0133609
-0.013989
-0.014834
0.0275279
0.027454
0.0271643
0.0261952
0.0242138
0.0212979
0.0175716
0.0129215
0.00964376
0.00405336
0.00130022
-0.000906712
-0.00331035
-0.00407672
-0.00578251
-0.00742624
-0.00868242
-0.00960305
-0.00990636
-0.0106336
0.0219176
0.0218621
0.0216532
0.0210036
0.0196732
0.0175928
0.0148265
0.011175
0.00864216
0.00400882
0.00140037
-0.000538053
-0.00297883
-0.00368298
-0.00447928
-0.00521664
-0.00598307
-0.00653023
-0.00668717
-0.00728984
0.0170115
0.0169445
0.0167697
0.0163062
0.015428
0.0140476
0.0121301
0.00936405
0.0075624
0.0035384
0.00136976
-0.000961667
-0.00328935
-0.003004
-0.00324581
-0.00358141
-0.00381565
-0.00399899
-0.00396074
-0.00447487
0.0130798
0.0130372
0.0129404
0.0126458
0.0120387
0.0110166
0.00966386
0.00755167
0.0061752
0.00257902
0.000839755
-0.00157956
-0.00358022
-0.00270714
-0.002284
-0.00176556
-0.00153364
-0.00155021
-0.00151845
-0.00200854
0.00963068
0.00958833
0.0095199
0.00934386
0.00896207
0.00824644
0.0073252
0.00571693
0.00475342
0.00186263
0.000156909
-0.00189389
-0.00329305
-0.00229878
-0.00138831
-0.000357114
0.000373087
0.000604776
0.00064547
0.000175025
0.00645953
0.00641184
0.00635017
0.00624995
0.00600451
0.00556213
0.00502054
0.00382951
0.00331143
0.00116783
-3.60296e-05
-0.00190012
-0.00280207
-0.00162007
-0.000678742
0.000326892
0.0012851
0.00177011
0.00186921
0.00130819
0.00371615
0.00367485
0.00364435
0.00364267
0.00353206
0.00329971
0.00299838
0.00221811
0.00210322
0.000650867
0.000117833
-0.00134927
-0.00198368
-0.000924721
-0.000519977
9.38332e-05
0.000847959
0.00137156
0.0016496
0.00124468
0.00140104
0.00137771
0.00136278
0.00135192
0.00132315
0.00129934
0.00119289
0.000776895
0.00103275
0.000307344
0.000432562
2.10084e-06
-0.000449319
-7.0319e-05
-0.00062335
-0.00107367
-0.00146303
-0.00169987
-0.00128938
-0.00129007
-1.07515
-0.234239
0.0358556
0.312477
0.49459
0.651149
0.778264
0.907794
1.04983
1.13175
-0.0938056
0.31344
0.330353
0.518898
0.643339
0.755
0.85117
0.936789
0.964316
0.92216
0.28397
0.49813
0.533638
0.670224
0.756485
0.836597
0.902667
0.952239
0.954398
0.968397
0.513978
0.657273
0.692465
0.794599
0.851548
0.90952
0.954438
0.986847
0.995937
1.01959
0.692357
0.794039
0.823803
0.89174
0.936185
0.977396
1.00959
1.03389
1.04369
1.07524
0.835942
0.904924
0.935284
0.978342
1.01449
1.0447
1.06904
1.08977
1.10393
1.13219
0.955311
1.00598
1.03158
1.05964
1.08737
1.11118
1.13117
1.15041
1.16531
1.1918
1.05923
1.09629
1.1174
1.13809
1.15893
1.17834
1.19575
1.21385
1.22873
1.25239
1.15331
1.18245
1.19881
1.21409
1.23022
1.24629
1.26184
1.27875
1.29237
1.31468
1.24163
1.26211
1.27697
1.29013
1.30371
1.31748
1.33097
1.34556
1.35711
1.37675
1.3271
1.34289
1.35671
1.36852
1.38043
1.39206
1.4032
1.41489
1.42256
1.43937
1.41233
1.42487
1.43858
1.45033
1.46096
1.47075
1.47958
1.48784
1.49141
1.50266
1.50106
1.51187
1.52535
1.53489
1.54246
1.54974
1.55694
1.56344
1.56452
1.5719
1.59947
1.60406
1.61226
1.61702
1.62042
1.62491
1.63091
1.63859
1.64247
1.65235
1.71278
1.69968
1.69239
1.68666
1.68394
1.68529
1.69165
1.70401
1.71882
1.74849
1.83478
1.77875
1.74772
1.73053
1.72231
1.72225
1.73106
1.75066
1.7825
1.85175
)
;

boundaryField
{
    wall-4
    {
        type            zeroGradient;
    }
    pressure-outlet-7
    {
        type            fixedValue;
        value           uniform 0;
    }
    velocity-inlet-6
    {
        type            zeroGradient;
    }
    velocity-inlet-5
    {
        type            zeroGradient;
    }
    frontAndBackPlanes
    {
        type            empty;
    }
}


// ************************************************************************* //
