/*--------------------------------*- C++ -*----------------------------------*\
| =========                 |                                                 |
| \\      /  F ield         | OpenFOAM: The Open Source CFD Toolbox           |
|  \\    /   O peration     | Version:  4.0                                   |
|   \\  /    A nd           | Web:      www.OpenFOAM.org                      |
|    \\/     M anipulation  |                                                 |
\*---------------------------------------------------------------------------*/
FoamFile
{
    version     2.0;
    format      ascii;
    class       surfaceScalarField;
    location    "50";
    object      phi;
}
// * * * * * * * * * * * * * * * * * * * * * * * * * * * * * * * * * * * * * //

dimensions      [0 3 -1 0 0 0 0];

internalField   nonuniform List<scalar> 
4262
(
0.107142
0.470846
0.0955847
0.705143
0.0694126
0.858475
0.0474183
1.02076
0.0310461
1.21489
0.0198503
1.44942
0.0124623
1.73325
0.00727374
2.07622
0.00335796
2.48916
-0.000310073
2.98596
-0.00397795
2.98596
-0.00787218
2.48914
-0.0129472
2.07611
-0.020201
1.73312
-0.0312065
1.44923
-0.0472722
1.21458
-0.0690143
1.02051
-0.0952521
0.858541
-0.107082
0.705416
0.470906
0.112879
0.357967
0.13529
0.682732
0.120387
0.873378
0.0978162
1.04333
0.0745594
1.23815
0.0528327
1.47114
0.0344411
1.75164
0.0202237
2.09044
0.00888763
2.5005
-0.00122521
2.99607
-0.0112342
2.99597
-0.0222888
2.50019
-0.0363184
2.09014
-0.0545965
1.7514
-0.0763367
1.47097
-0.100017
1.23826
-0.123164
1.04365
-0.136853
0.87223
-0.113507
0.68207
0.357399
0.092073
0.265894
0.12503
0.649775
0.121192
0.877217
0.10498
1.05954
0.086351
1.25677
0.0671995
1.49029
0.0482335
1.77061
0.0302048
2.10847
0.0137586
2.51694
-0.0020552
3.01189
-0.0177565
3.01167
-0.0338768
2.51631
-0.0514514
2.10772
-0.069896
1.76984
-0.0883847
1.48945
-0.105787
1.25566
-0.120045
1.05791
-0.125278
0.877463
-0.0923509
0.649143
0.265048
0.0640287
0.201866
0.104897
0.608906
0.106647
0.875467
0.0952097
1.07098
0.0813125
1.27067
0.0666454
1.50496
0.0505285
1.78673
0.0333555
2.12564
0.0155932
2.5347
-0.00319171
3.03067
-0.0216865
3.03017
-0.0389533
2.53358
-0.0554678
2.12423
-0.0707182
1.78509
-0.0844751
1.50321
-0.0980995
1.26929
-0.109825
1.06964
-0.106911
0.874548
-0.0648578
0.60709
0.20019
0.0374918
0.164374
0.0807763
0.565621
0.0911799
0.865064
0.0840386
1.07812
0.0714419
1.28327
0.0596038
1.5168
0.0466483
1.79968
0.0317409
2.14055
0.0148737
2.55157
-0.00421099
3.04976
-0.0229841
3.04894
-0.0391369
2.54973
-0.0530559
2.13815
-0.0651518
1.79719
-0.0764334
1.51449
-0.0883912
1.28125
-0.0947866
1.07603
-0.0830261
0.862788
-0.0383189
0.562383
0.161871
0.0195038
0.14487
0.0573018
0.527823
0.0727249
0.849641
0.070672
1.08017
0.061925
1.29202
0.0510764
1.52765
0.0399526
1.81081
0.0273798
2.15312
0.0123107
2.56664
-0.00538828
3.06746
-0.0228043
3.06635
-0.037022
2.56395
-0.0485653
2.14969
-0.0585663
1.80719
-0.0684418
1.52437
-0.0761311
1.28894
-0.0770023
1.0769
-0.0599278
0.845713
-0.0203516
0.522807
0.14152
0.0106512
0.134219
0.0424684
0.496006
0.0586237
0.833485
0.0589098
1.07989
0.0527664
1.29816
0.0434248
1.53699
0.0331216
1.82111
0.0218391
2.16441
0.0086492
2.57983
-0.00717564
3.08328
-0.0224159
3.08159
-0.0343246
2.57586
-0.0441818
2.15955
-0.0531519
1.81616
-0.0612066
1.53242
-0.0658948
1.29362
-0.0640215
1.07503
-0.0457354
0.827427
-0.0116573
0.488729
0.129863
0.00664047
0.127578
0.0331647
0.469482
0.0496101
0.81704
0.0512499
1.07825
0.0461958
1.30321
0.0378164
1.54537
0.0281368
1.83079
0.0172856
2.17526
0.00536615
2.59175
-0.00842944
3.09708
-0.0218297
3.09499
-0.0326603
2.58669
-0.0419157
2.1688
-0.0497617
1.824
-0.0563707
1.53903
-0.0595986
1.29685
-0.0560522
1.07148
-0.0370441
0.808419
-0.00782409
0.459509
0.122038
0.00475912
0.122819
0.0266746
0.447566
0.0425433
0.801171
0.044768
1.07602
0.0403299
1.30765
0.0328824
1.55282
0.023856
1.83981
0.0133505
2.18576
0.00156943
2.60353
-0.0114532
3.1101
-0.0233591
3.1069
-0.0331249
2.59646
-0.0415172
2.1772
-0.0484538
1.83094
-0.0538061
1.54438
-0.0560898
1.29914
-0.0511813
1.06657
-0.0316957
0.788933
-0.00627765
0.434091
0.115761
0.00378326
0.119036
0.0218786
0.429471
0.0371996
0.78585
0.0400743
1.07315
0.0358025
1.31192
0.0285668
1.56005
0.0198986
1.84848
0.00990801
2.19575
-0.00118373
2.61462
-0.013209
3.12212
-0.0247572
3.11845
-0.0341747
2.60587
-0.0416323
2.18465
-0.0476949
1.837
-0.0524591
1.54915
-0.0538032
1.30048
-0.0475242
1.0603
-0.0278715
0.769281
-0.00564665
0.411866
0.110114
0.0031079
0.115928
0.0177065
0.414872
0.0317786
0.771778
0.0349048
1.07002
0.0309385
1.31589
0.0239439
1.56705
0.0156011
1.85683
0.00589435
2.20546
-0.00526291
2.62578
-0.0175057
3.13437
-0.0282931
3.12924
-0.0364488
2.61403
-0.0430008
2.19121
-0.0480981
1.8421
-0.0518576
1.55291
-0.0521749
1.3008
-0.0447163
1.05284
-0.0250365
0.749601
-0.00534603
0.392176
0.104768
0.00245434
0.113474
0.0140964
0.40323
0.0268809
0.758994
0.0300684
1.06683
0.0261032
1.31985
0.01915
1.574
0.0108809
1.86509
0.00145252
2.21489
-0.00899032
2.63622
-0.0203466
3.14572
-0.0306898
3.13958
-0.0385741
2.62191
-0.0443121
2.19694
-0.0487853
1.84657
-0.0519057
1.55603
-0.051433
1.30032
-0.0426269
1.04403
-0.0229388
0.729913
-0.00517049
0.374407
0.0995976
0.00171813
0.111756
0.0106306
0.394318
0.0216392
0.747985
0.024535
1.06394
0.0206752
1.32371
0.0138149
1.58086
0.00555566
1.87335
-0.00372864
2.22417
-0.014398
2.64689
-0.0262542
3.15758
-0.0360175
3.14934
-0.0424745
2.62837
-0.0471446
2.20161
-0.0507768
1.85021
-0.0526251
1.55788
-0.0512928
1.29899
-0.0412861
1.03402
-0.0215245
0.710151
-0.00506606
0.357949
0.0945315
0.000907681
0.110848
0.00731016
0.387915
0.0167111
0.738584
0.0192161
1.06143
0.0150933
1.32784
0.00800482
1.58795
-0.000476663
1.88184
-0.0101552
2.23385
-0.0205756
2.65731
-0.0311873
3.16819
-0.0402778
3.15843
-0.046537
2.63463
-0.0504265
2.2055
-0.0532212
1.853
-0.0540265
1.55868
-0.0517723
1.29674
-0.0404075
1.02266
-0.0204772
0.690221
-0.00495195
0.342424
0.0895796
0.000213465
0.110635
0.00435848
0.38377
0.0112491
0.731694
0.0125793
1.0601
0.00817923
1.33224
0.000964521
1.59516
-0.00788001
1.89068
-0.0177168
2.24369
-0.0284032
2.668
-0.0392414
3.17903
-0.0473925
3.16658
-0.0519495
2.63919
-0.0548738
2.20843
-0.0567075
1.85483
-0.0566494
1.55862
-0.0529655
1.29305
-0.0403617
1.01006
-0.0200981
0.669957
-0.00500447
0.32733
0.0845751
-0.000750229
0.111385
0.000700375
0.38232
0.00571772
0.726676
0.00631726
1.0595
0.00107104
1.33748
-0.00707819
1.60331
-0.0165007
1.9001
-0.0267648
2.25395
-0.0372271
2.67846
-0.0469131
3.18871
-0.0538699
3.17354
-0.0579551
2.64327
-0.0600127
2.21049
-0.0610197
1.85584
-0.0600821
1.55769
-0.0547607
1.28773
-0.0407029
0.995997
-0.0199526
0.649207
-0.00505121
0.312429
0.0795239
-0.00160126
0.112986
-0.00241688
0.383135
-0.00042393
0.724683
-0.0019982
1.06108
-0.00806636
1.34355
-0.0166673
1.61191
-0.0267635
1.9102
-0.0376435
2.26483
-0.0486449
2.68946
-0.0586378
3.19871
-0.0650978
3.18
-0.0677347
2.64591
-0.0683159
2.21107
-0.0677721
1.8553
-0.0653196
1.55523
-0.0583263
1.28074
-0.042341
0.980012
-0.0205721
0.627438
-0.00530966
0.297166
0.0742142
-0.00297047
0.115956
-0.00616644
0.386331
-0.00756903
0.726086
-0.010172
1.06368
-0.0173438
1.35072
-0.027441
1.62201
-0.0385418
1.9213
-0.0499869
2.27628
-0.0611064
2.70058
-0.0704173
3.20802
-0.0752046
3.18479
-0.0764621
2.64717
-0.0759005
2.21051
-0.0746642
1.85406
-0.0713637
1.55193
-0.0625676
1.27194
-0.0444653
0.96191
-0.021524
0.604497
-0.0056391
0.281281
0.0685751
-0.00426492
0.120221
-0.0103954
0.392462
-0.015332
0.731023
-0.021288
1.06963
-0.0295962
1.35903
-0.0404062
1.63282
-0.0525463
1.93344
-0.0653044
2.28904
-0.0775797
2.71286
-0.0873349
3.21777
-0.0918417
3.1893
-0.09219
2.64751
-0.0899374
2.20825
-0.0860161
1.85014
-0.0797944
1.54571
-0.0684011
1.26055
-0.0477252
0.941234
-0.0230754
0.579847
-0.00610227
0.264308
0.0624729
-0.00570545
0.125927
-0.0153484
0.402105
-0.0241523
0.739826
-0.0326038
1.07809
-0.0429441
1.36937
-0.055792
1.64567
-0.0694317
1.94708
-0.083125
2.30273
-0.095658
2.72539
-0.104956
3.22707
-0.107763
3.1921
-0.105424
2.64517
-0.100685
2.20351
-0.0960062
1.84546
-0.0891584
1.53886
-0.0752893
1.24668
-0.0517316
0.917676
-0.0249764
0.553092
-0.00664018
0.245972
0.0558327
-0.00799225
0.133919
-0.022236
0.416349
-0.036545
0.754135
-0.0484974
1.09004
-0.0604563
1.38133
-0.0748218
1.66003
-0.0905418
1.9628
-0.106525
2.31871
-0.120485
2.73935
-0.129096
3.23568
-0.129771
3.19278
-0.125926
2.64133
-0.120545
2.19813
-0.112295
1.83721
-0.101296
1.52786
-0.0838088
1.22919
-0.0566952
0.890563
-0.0272373
0.523634
-0.00721903
0.225954
0.0486137
-0.0105124
0.144431
-0.0297529
0.435589
-0.0501944
0.774577
-0.0669842
1.10683
-0.0823573
1.3967
-0.0998225
1.6775
-0.117891
1.98087
-0.134831
2.33565
-0.14789
2.75241
-0.154313
3.24211
-0.152878
3.19134
-0.146339
2.63479
-0.137092
2.18888
-0.127485
1.8276
-0.114952
1.51533
-0.0937333
1.20798
-0.0623517
0.859181
-0.0297868
0.491069
-0.00781303
0.20398
0.0408006
-0.0152345
0.159666
-0.0420815
0.462436
-0.0693934
0.801889
-0.0913613
1.1288
-0.110556
1.4159
-0.13137
1.69831
-0.151746
2.00124
-0.17021
2.35412
-0.18385
2.76605
-0.189119
3.24738
-0.183668
3.18589
-0.173408
2.62453
-0.161945
2.17742
-0.148709
1.81437
-0.131189
1.49781
-0.105234
1.18202
-0.0690937
0.82304
-0.0326953
0.454671
-0.00835762
0.179642
0.032443
-0.0195342
0.1792
-0.0554891
0.498391
-0.0926376
0.839037
-0.121921
1.15808
-0.146478
1.44046
-0.171442
1.72328
-0.19426
2.02406
-0.212848
2.3727
-0.224275
2.77748
-0.225116
3.24822
-0.216251
3.17703
-0.202502
2.61078
-0.186656
2.16158
-0.170481
1.79819
-0.150233
1.47756
-0.118813
1.1506
-0.0765549
0.780783
-0.0355605
0.413676
-0.0086907
0.152772
0.0237523
-0.03252
0.21172
-0.0814995
0.54737
-0.128449
0.885987
-0.164388
1.19402
-0.194976
1.47104
-0.224278
1.75258
-0.248209
2.04799
-0.266016
2.39051
-0.275055
2.78652
-0.272506
3.24567
-0.257566
3.16209
-0.238739
2.59195
-0.220322
2.14316
-0.199717
1.77759
-0.172899
1.45075
-0.1347
1.1124
-0.0853661
0.731449
-0.0387227
0.367033
-0.00890491
0.122955
0.0148474
-0.0470835
0.258804
-0.120687
0.620974
-0.183558
0.948859
-0.227712
1.23817
-0.263682
1.50701
-0.293317
1.78221
-0.314811
2.06949
-0.328272
2.40397
-0.331173
2.78942
-0.320457
3.23495
-0.299739
3.14137
-0.276588
2.5688
-0.252542
2.11911
-0.22817
1.75322
-0.197049
1.41962
-0.150338
1.06569
-0.0920963
0.673207
-0.0398412
0.314778
-0.00881025
0.0919236
0.00603713
-0.0339533
0.292757
-0.0970949
0.684115
-0.154999
1.00676
-0.201929
1.2851
-0.244397
1.54948
-0.281883
1.8197
-0.316395
2.104
-0.346917
2.43449
-0.369232
2.81173
-0.377861
3.24358
-0.368417
3.13192
-0.348548
2.54893
-0.32482
2.09538
-0.29267
1.72107
-0.244501
1.37146
-0.17795
0.999139
-0.101556
0.596813
-0.0399182
0.25314
-0.00887574
0.0608811
-0.00283861
-0.0127965
0.305553
-0.0477834
0.719102
-0.0890381
1.04802
-0.127911
1.32397
-0.166318
1.58789
-0.200045
1.85343
-0.230961
2.13491
-0.256522
2.46006
-0.272157
2.82737
-0.273851
3.24528
-0.259966
3.11804
-0.236929
2.5259
-0.206096
2.06455
-0.170456
1.68543
-0.131377
1.33238
-0.0847671
0.952529
-0.039341
0.551387
-0.0129034
0.226702
-0.00296098
0.0509387
-0.00579959
0.000157537
0.305396
-0.0246262
0.743886
-0.0541693
1.07756
-0.0839355
1.35374
-0.114665
1.61862
-0.144533
1.88329
-0.1717
2.16208
-0.193749
2.4821
-0.207785
2.8414
-0.20788
3.24537
-0.188972
3.09913
-0.159135
2.49606
-0.128863
2.03428
-0.0974026
1.65397
-0.0601804
1.29515
-0.023891
0.91624
-0.000689683
0.528185
0.00381839
0.222194
0.00105877
0.0536983
-0.00474082
0.000784376
0.304612
-0.0124133
0.757084
-0.0338089
1.09896
-0.0583712
1.3783
-0.0839571
1.64421
-0.109029
1.90837
-0.132207
2.18526
-0.150874
2.50077
-0.160912
2.85144
-0.155073
3.23953
-0.135165
3.07922
-0.110586
2.47148
-0.0788503
2.00254
-0.0444054
1.61952
-0.0157388
1.26649
0.00585086
0.89465
0.0153402
0.518696
0.0110489
0.226486
0.0033381
0.0614091
-0.00140271
0.00388964
0.300722
-0.00571872
0.766692
-0.023653
1.11689
-0.0440094
1.39866
-0.0653672
1.66556
-0.0867621
1.92976
-0.107038
2.20554
-0.12341
2.51714
-0.131939
2.85997
-0.128039
3.23563
-0.109769
3.06095
-0.0806433
2.44236
-0.0509956
1.9729
-0.0234683
1.59199
0.00442929
1.23859
0.023249
0.875831
0.0252584
0.516687
0.0153001
0.236444
0.00447507
0.0722341
0.00307236
0.00518407
0.295538
-0.000920162
0.772796
-0.0171145
1.13308
-0.0356002
1.41715
-0.0546836
1.68465
-0.0734724
1.94855
-0.0911297
2.22319
-0.105236
2.53125
-0.111865
2.8666
-0.106308
3.23007
-0.0861004
3.04074
-0.0610847
2.41734
-0.0355425
1.94735
-0.00819826
1.56465
0.012861
1.21753
0.0254921
0.8632
0.0258566
0.516322
0.0153325
0.246968
0.00463165
0.0829349
0.00770401
0.00373071
0.291807
-0.000875636
0.777402
-0.0143555
1.14656
-0.0311217
1.43391
-0.0483065
1.70183
-0.0654562
1.9657
-0.0818827
2.23962
-0.0955556
2.54492
-0.103159
2.8742
-0.0996159
3.22653
-0.082162
3.02329
-0.0595476
2.39473
-0.0339668
1.92177
-0.0110782
1.54176
0.0101433
1.19631
0.0234545
0.849888
0.0224019
0.517375
0.0134081
0.255962
0.00410332
0.0922397
0.0118073
0.00239105
0.289416
-0.00157863
0.781372
-0.0137593
1.15875
-0.0287806
1.44893
-0.0450937
1.71814
-0.0613648
1.98197
-0.0770026
2.25526
-0.0900887
2.55801
-0.09691
2.88102
-0.0926301
3.22225
-0.0781896
3.00885
-0.0588102
2.37535
-0.0377573
1.90072
-0.0134685
1.51747
0.00503547
1.17781
0.0156642
0.83926
0.0169915
0.516047
0.00983119
0.263122
0.00299992
0.099071
0.0148072
9.16484e-05
0.289324
-0.00396326
0.785427
-0.0148377
1.16962
-0.0284573
1.46255
-0.043667
1.73335
-0.0592177
1.99752
-0.0745288
2.27057
-0.0877624
2.57124
-0.0963303
2.88959
-0.0960995
3.22202
-0.0840109
2.99676
-0.065439
2.35678
-0.0424414
1.87772
-0.023171
1.4982
-0.00365038
1.15829
0.00875022
0.826859
0.00950439
0.515293
0.00601552
0.266611
0.00199123
0.103095
0.0167985
-0.000679288
0.290004
-0.00572236
0.79047
-0.0158553
1.17975
-0.0287129
1.47541
-0.043451
1.74809
-0.058595
2.01267
-0.0736958
2.28567
-0.087369
2.58492
-0.0967797
2.899
-0.0971288
3.22237
-0.0863932
2.98603
-0.0697302
2.34011
-0.0518737
1.85987
-0.0302749
1.4766
-0.0133587
1.14137
-0.00262607
0.816127
0.00201619
0.510651
0.00128767
0.26734
0.000724214
0.103659
0.0175227
-0.00219842
0.292202
-0.00776161
0.796033
-0.0175154
1.18951
-0.0297045
1.4876
-0.0436554
1.76204
-0.0583762
2.02739
-0.0736199
2.30091
-0.0879883
2.59928
-0.0987886
2.9098
-0.10267
3.22625
-0.0947598
2.97812
-0.0778641
2.32322
-0.0577496
1.83975
-0.0402901
1.45914
-0.0224876
1.12357
-0.00956025
0.803199
-0.00446252
0.505553
-0.00183267
0.26471
-0.00039394
0.10222
0.0171288
-0.00354104
0.295743
-0.00926374
0.801756
-0.0186687
1.19891
-0.0304384
1.49937
-0.0440758
1.77568
-0.0586455
2.04196
-0.0739799
2.31625
-0.088908
2.61421
-0.101093
2.92199
-0.106999
3.23216
-0.100366
2.97148
-0.0857695
2.30862
-0.0685652
1.82255
-0.047188
1.43777
-0.0301995
1.10658
-0.0178624
0.790862
-0.00909246
0.496783
-0.00434026
0.259958
-0.00100069
0.0988805
0.0161281
-0.00418083
0.299924
-0.0104858
0.808061
-0.019899
1.20832
-0.0313073
1.51078
-0.0444239
1.7888
-0.0586943
2.05623
-0.074145
2.3317
-0.0897477
2.62982
-0.103591
2.93583
-0.112029
3.2406
-0.108952
2.96841
-0.0957152
2.29538
-0.0741555
1.80099
-0.0553763
1.41899
-0.0364189
1.08762
-0.0217343
0.776178
-0.0131311
0.48818
-0.00559032
0.252417
-0.00138739
0.0946776
0.0147407
-0.00438673
0.304311
-0.0112124
0.814887
-0.0205181
1.21763
-0.0316652
1.52192
-0.0445785
1.80171
-0.0587062
2.07035
-0.0742458
2.34724
-0.0904904
2.64606
-0.105813
2.95115
-0.116634
3.25142
-0.116496
2.96827
-0.103873
2.28276
-0.0853586
1.78247
-0.0608933
1.39452
-0.0416367
1.06836
-0.0267684
0.761309
-0.0143756
0.475787
-0.00636025
0.244401
-0.00144544
0.0897627
0.0132952
-0.00443996
0.308751
-0.0116745
0.822121
-0.0210204
1.22698
-0.031928
1.53283
-0.0444473
1.81423
-0.0583016
2.08421
-0.0739093
2.36285
-0.0906998
2.66285
-0.107352
2.9678
-0.120606
3.26467
-0.123057
2.97072
-0.112089
2.27179
-0.0899313
1.76032
-0.0674052
1.372
-0.0442907
1.04525
-0.0266481
0.743667
-0.0150801
0.464219
-0.00574045
0.235062
-0.00118013
0.0852024
0.0121151
-0.0045089
0.31326
-0.0119262
0.829539
-0.0210408
1.23609
-0.0316907
1.54348
-0.0440072
1.82655
-0.0577097
2.09791
-0.0733543
2.37849
-0.0906422
2.68014
-0.10867
2.98583
-0.124506
3.28051
-0.129852
2.97607
-0.120124
2.26206
-0.101494
1.74169
-0.0727317
1.34323
-0.0464983
1.01902
-0.025936
0.723104
-0.0106181
0.448901
-0.00305503
0.227499
-1.00313e-05
0.0821574
0.0121051
-0.00452961
0.317789
-0.0119542
0.836963
-0.0209368
1.24507
-0.0313233
1.55387
-0.0432748
1.8385
-0.0567143
2.11135
-0.0723261
2.3941
-0.0899654
2.69778
-0.108932
3.0048
-0.126511
3.29808
-0.134864
2.98442
-0.128193
2.25539
-0.106359
1.71985
-0.0791966
1.31607
-0.0463424
0.986162
-0.0194418
0.696204
-0.00308187
0.432541
0.0023373
0.22208
-0.00152227
0.086017
0.0105828
-0.00454092
0.32233
-0.0118911
0.844313
-0.0205248
1.25371
-0.0305877
1.56393
-0.0422713
1.85018
-0.0554969
2.12458
-0.0710322
2.40964
-0.0889514
2.7157
-0.108918
3.02476
-0.128792
3.31796
-0.139911
2.99554
-0.135501
2.25098
-0.119121
1.70347
-0.0862058
1.28316
-0.0474704
0.947427
-0.00868292
0.657416
0.0235628
0.400296
0.0361824
0.20946
0.0252507
0.0969487
0.0358335
-0.00442995
0.32676
-0.0116043
0.851488
-0.0200229
1.26213
-0.0297557
1.57366
-0.0410264
1.86145
-0.0539403
2.13749
-0.0693225
2.42502
-0.0873872
2.73376
-0.107925
3.0453
-0.129069
3.3391
-0.142891
3.00936
-0.144022
2.25211
-0.125526
1.68498
-0.0951388
1.25277
-0.0486352
0.900923
0.0001487
0.608632
0.0437065
0.356738
0.046303
0.206863
0.0203616
0.12289
0.0561951
-0.00428315
0.331043
-0.0113026
0.858507
-0.0193314
1.27015
-0.0286684
1.583
-0.0396299
1.87241
-0.0522544
2.15011
-0.0674543
2.44022
-0.0855842
2.75189
-0.106725
3.06644
-0.129743
3.36212
-0.145736
3.02535
-0.149183
2.25556
-0.139794
1.67559
-0.107964
1.22094
-0.059319
0.852278
0.013562
0.535751
0.113522
0.256778
0.191055
0.12933
0.181377
0.132569
0.237572
-0.00413533
0.335179
-0.0110126
0.865385
-0.0190254
1.27817
-0.0283524
1.59233
-0.0394374
1.8835
-0.0524934
2.16317
-0.0685832
2.45631
-0.0882689
2.77158
-0.111977
3.09015
-0.138916
3.38906
-0.160984
3.04742
-0.171897
2.26647
-0.162738
1.66643
-0.135563
1.19376
-0.0805709
0.797286
-0.0248699
0.48005
-0.0727943
0.304703
-0.358145
0.414681
-0.94073
0.715154
0.899757
-1.60292
-0.00396565
0.339144
-0.0107009
0.87212
-0.0184267
1.28589
-0.0275593
1.60146
-0.0385636
1.8945
-0.0517298
2.17634
-0.0682342
2.47281
-0.0888495
2.79219
-0.114448
3.11575
-0.145231
3.41984
-0.172055
3.07425
-0.186553
2.28097
-0.195452
1.67533
-0.180097
1.17841
-0.155424
0.772613
-0.245945
0.57057
-0.693112
0.75187
-1.44009
1.16166
-2.04827
1.32333
1.21708
-2.3656
-0.00373826
0.342882
-0.0101715
0.878553
-0.0177144
1.29344
-0.0266519
1.6104
-0.0374839
1.90533
-0.0507149
2.18957
-0.0675806
2.48968
-0.0890452
2.81366
-0.116421
3.14313
-0.150393
3.45381
-0.183583
3.10744
-0.209932
2.30732
-0.220059
1.68545
-0.211941
1.17029
-0.298471
0.859143
-0.753517
1.02562
-1.5418
1.54016
-2.10873
1.72859
-2.34832
1.56292
1.33149
-2.46272
-0.00357426
0.346457
-0.00970928
0.884688
-0.0168897
1.30062
-0.0255785
1.61909
-0.0362618
1.91602
-0.0495167
2.20282
-0.0666748
2.50684
-0.0889569
2.83594
-0.118097
3.17227
-0.155972
3.49169
-0.195125
3.14659
-0.225118
2.33731
-0.254611
1.71495
-0.336764
1.25244
-0.687426
1.20981
-1.4356
1.77379
-2.02595
2.13051
-2.26592
1.96855
-2.37926
1.67626
1.39591
-2.44368
-0.00328213
0.349739
-0.00900023
0.890406
-0.015911
1.30753
-0.0243323
1.62751
-0.034841
1.92653
-0.0480838
2.21607
-0.0654769
2.52423
-0.088443
2.85891
-0.119207
3.20303
-0.160413
3.5329
-0.206868
3.19304
-0.252224
2.38267
-0.295776
1.7585
-0.476509
1.43318
-1.09303
1.82632
-1.78635
2.46711
-2.10779
2.45195
-2.25623
2.117
-2.33835
1.75838
1.46172
-2.40416
-0.00323223
0.352971
-0.00890172
0.896076
-0.0157076
1.31433
-0.0241554
1.63596
-0.0349267
1.9373
-0.0484574
2.2296
-0.0663582
2.54213
-0.0902946
2.88284
-0.122822
3.23556
-0.167847
3.57792
-0.220355
3.24555
-0.266827
2.42914
-0.357816
1.84949
-0.748617
1.82398
-1.48898
2.56669
-1.96298
2.94111
-2.16293
2.6519
-2.2692
2.22326
-2.34623
1.83541
1.52528
-2.40979
-0.00330076
0.356272
-0.00915237
0.901927
-0.0164014
1.32158
-0.0252936
1.64485
-0.0365364
1.94854
-0.0507226
2.24378
-0.069504
2.56091
-0.094644
2.90798
-0.129133
3.27005
-0.177906
3.62669
-0.235281
3.30293
-0.299456
2.49332
-0.488874
2.0389
-1.04629
2.3814
-1.6773
3.19769
-1.95349
3.21731
-2.10049
2.79889
-2.21432
2.33709
-2.30782
1.92891
1.58697
-2.3695
-0.00337856
0.35965
-0.00962513
0.908174
-0.0171837
1.32914
-0.0265491
1.65421
-0.038361
1.96035
-0.0531998
2.25862
-0.0728578
2.58057
-0.0993341
2.93446
-0.135773
3.30648
-0.188128
3.67905
-0.251023
3.36582
-0.33728
2.57957
-0.618993
2.32062
-1.26306
3.02547
-1.75265
3.68728
-1.95986
3.42451
-2.09991
2.93895
-2.22363
2.46081
-2.33415
2.03943
1.64556
-2.39274
-0.00333019
0.362981
-0.0097284
0.914572
-0.0178796
1.33729
-0.0277922
1.66413
-0.040111
1.97267
-0.0556694
2.27418
-0.0762808
2.60118
-0.103988
2.96217
-0.142332
3.34483
-0.197505
3.73422
-0.265147
3.43346
-0.390847
2.70527
-0.776577
2.70635
-1.40969
3.65858
-1.76312
4.04071
-1.93612
3.59752
-2.03808
3.0409
-2.12667
2.5494
-2.19405
2.10681
1.63839
-2.18688
-0.00328496
0.366266
-0.0101281
0.921415
-0.0185833
1.34575
-0.029032
1.67457
-0.0420403
1.98568
-0.0582982
2.29044
-0.0798049
2.62269
-0.10889
2.99125
-0.149101
3.38504
-0.206064
3.79118
-0.285091
3.51249
-0.45513
2.87531
-0.90643
3.15765
-1.46218
4.21433
-1.72436
4.30289
-1.87637
3.74953
-1.96968
3.13421
-1.97129
2.55102
-1.90255
2.03806
1.60357
-1.86772
-0.00307712
0.369343
-0.00990084
0.928239
-0.0189973
1.35484
-0.029947
1.68552
-0.0433167
1.99905
-0.0600571
2.30718
-0.0820546
2.64469
-0.111456
3.02065
-0.151994
3.42558
-0.208335
3.84752
-0.293721
3.59788
-0.498718
3.08031
-0.988073
3.647
-1.42952
4.65578
-1.59499
4.46836
-1.66219
3.81673
-1.66675
3.13877
-1.51926
2.40353
-1.01916
1.53796
0.584414
-0.00259914
0.371942
-0.0100413
0.935681
-0.0193837
1.36419
-0.0310196
1.69716
-0.0455211
2.01355
-0.0635524
2.32521
-0.0873529
2.66849
-0.119544
3.05284
-0.164127
3.47016
-0.22695
3.91035
-0.330657
3.70158
-0.585398
3.33505
-1.12341
4.18501
-1.48204
5.0144
-1.58166
4.56798
-1.57966
3.81473
-1.47634
3.03544
-1.23699
2.16418
-0.633514
0.934481
-0.0491003
-0.00217529
0.374117
-0.00912015
0.942626
-0.0191923
1.37426
-0.0315997
1.70957
-0.046881
2.02883
-0.0662652
2.34459
-0.0920418
2.69426
-0.126816
3.08762
-0.175573
3.51892
-0.244736
3.97951
-0.366773
3.82362
-0.680992
3.64927
-1.24095
4.74497
-1.50309
5.27654
-1.56168
4.62657
-1.5397
3.79276
-1.33734
2.83308
-0.784883
1.61172
-0.109647
0.259246
-0.158747
-0.00162833
0.375745
-0.00874182
0.949739
-0.0187118
1.38423
-0.0317303
1.72259
-0.0481475
2.04525
-0.0687862
2.36523
-0.0963424
2.72182
-0.134038
3.12531
-0.186529
3.57141
-0.263803
4.05679
-0.413014
3.97283
-0.785756
4.02201
-1.32032
5.27953
-1.49659
5.45281
-1.52796
4.65795
-1.43965
3.70445
-1.10371
2.49715
-0.314911
0.822919
0.0253303
-0.0809957
-0.133417
-0.000483625
0.376229
-0.00646241
0.955718
-0.0171154
1.39488
-0.030875
1.73635
-0.0478107
2.06219
-0.0697022
2.38712
-0.0991955
2.75131
-0.139212
3.16533
-0.194546
3.62674
-0.280529
4.14277
-0.454503
4.14681
-0.8913
4.45881
-1.36355
5.75178
-1.48164
5.5709
-1.48394
4.66024
-1.2608
3.48132
-0.689537
1.92588
-0.0626933
0.196076
0.0308974
-0.174586
-0.102519
0.000447688
0.375781
-0.00465995
0.960826
-0.0148271
1.40505
-0.0290365
1.75056
-0.0469129
2.08006
-0.0699458
2.41016
-0.100919
2.78229
-0.143341
3.20775
-0.201674
3.68508
-0.296928
4.23802
-0.499202
4.34908
-0.986355
4.94596
-1.36149
6.12692
-1.42451
5.63392
-1.37908
4.61481
-1.09033
3.19257
-0.324816
1.16036
0.00490924
-0.13365
0.0153646
-0.185042
-0.0871549
0.00326286
0.372519
0.000463102
0.963626
-0.0106059
1.41612
-0.0254009
1.76535
-0.0431956
2.09786
-0.0672167
2.43418
-0.0996943
2.81476
-0.143757
3.25181
-0.204741
3.74606
-0.307992
4.34127
-0.534221
4.57531
-1.0451
5.45684
-1.3214
6.40323
-1.3638
5.67632
-1.22559
4.4766
-0.775833
2.74281
-0.0714753
0.456006
0.0459471
-0.251072
0.0252514
-0.164346
-0.0619035
0.00488224
0.367636
0.00340823
0.9651
-0.00572893
1.42525
-0.0197253
1.77935
-0.0381233
2.11625
-0.0629646
2.45902
-0.0962065
2.848
-0.141829
3.29744
-0.205325
3.80956
-0.316467
4.45241
-0.573907
4.83275
-1.06853
5.95147
-1.2603
6.595
-1.26921
5.68522
-1.05075
4.25815
-0.462315
2.15438
-0.014146
0.00783728
-0.00290833
-0.26231
0.00731424
-0.174569
-0.0545892
0.00854772
0.359089
0.00999614
0.963651
0.00263126
1.43262
-0.0107938
1.79277
-0.0287749
2.13424
-0.0537187
2.48396
-0.0874049
2.88169
-0.133148
3.34318
-0.198082
3.87449
-0.315288
4.56962
-0.591904
5.10936
-1.04359
6.40316
-1.16438
6.71578
-1.15271
5.67355
-0.897715
4.00315
-0.266792
1.52345
-0.0707214
-0.188233
-0.0377657
-0.295266
-0.0129027
-0.199432
-0.067492
0.0118198
0.347269
0.0171843
0.958287
0.0129665
1.43684
0.00216624
1.80357
-0.0168188
2.15322
-0.0412733
2.50842
-0.0743075
2.91473
-0.120057
3.38893
-0.185511
3.93995
-0.306319
4.69043
-0.591674
5.39472
-0.977642
6.78912
-1.04873
6.78687
-0.978105
5.60293
-0.684192
3.70924
-0.0867488
0.92601
-0.0048061
-0.270176
-0.0137988
-0.286273
-0.00617555
-0.207055
-0.0736675
0.0182355
0.329033
0.0297581
0.946764
0.0282131
1.43838
0.0178634
1.81392
0.00128416
2.1698
-0.0207437
2.53045
-0.0524269
2.94641
-0.0962933
3.43279
-0.159618
4.00327
-0.279821
4.81063
-0.552722
5.66762
-0.862617
7.09902
-0.895456
6.8197
-0.800758
5.50823
-0.460823
3.36931
0.0430186
0.422168
0.0588304
-0.285988
0.0403434
-0.267786
0.0146741
-0.181385
-0.0589935
0.0244099
0.304623
0.0431719
0.928002
0.0473651
1.43419
0.0406592
1.82063
0.0273282
2.18313
0.00606679
2.55171
-0.0232269
2.9757
-0.0640494
3.47362
-0.124081
4.0633
-0.237713
4.92426
-0.477947
5.90785
-0.700931
7.322
-0.737875
6.85665
-0.62053
5.39088
-0.298205
3.04698
-0.00235151
0.126315
0.0199607
-0.3083
0.0308515
-0.278677
0.0153616
-0.165896
-0.0436319
0.0344441
0.270179
0.0640676
0.898379
0.0746308
1.42363
0.0719283
1.82333
0.0626504
2.19241
0.0449581
2.5694
0.0192709
3.00139
-0.0173331
3.51022
-0.0701026
4.11607
-0.1663
5.02046
-0.358029
6.09958
-0.510154
7.47413
-0.540508
6.887
-0.450701
5.30108
-0.152998
2.74928
-0.0312616
0.00457864
-0.0138823
-0.325679
0.0181398
-0.310699
0.0179943
-0.16575
-0.0256377
0.0439607
0.226219
0.086598
0.855741
0.107703
1.40252
0.112578
1.81845
0.107969
2.19702
0.0942195
2.58315
0.0745011
3.02111
0.0451976
3.53952
-0.00310299
4.16437
-0.0718016
5.08916
-0.200237
6.22802
-0.282399
7.55629
-0.303002
6.9076
-0.248455
5.24653
-0.0321999
2.53302
-0.0627108
0.0350896
-0.0589557
-0.329434
-0.00968348
-0.359971
0.0233244
-0.198758
-0.00231326
0.0563089
0.16991
0.117552
0.794498
0.152945
1.36713
0.165439
1.80596
0.167323
2.19513
0.159597
2.59088
0.147312
3.03339
0.128217
3.55862
0.0994286
4.19316
0.0594163
5.12917
0.022623
6.26481
-0.0160482
7.59496
-0.0414081
6.93296
-0.125385
5.33051
-0.200863
2.6085
-0.434534
0.26876
-0.449022
-0.314946
-0.317957
-0.491037
-0.124044
-0.392671
-0.126357
0.059408
0.110502
0.147571
0.706335
0.203869
1.31083
0.231186
1.77864
0.242362
2.18396
0.241799
2.59144
0.237925
3.03727
0.230561
3.56598
0.221436
4.20229
0.210822
5.13978
0.286122
6.18951
0.355058
7.52603
0.288988
6.99903
0.0551608
5.56433
-0.368569
3.03223
-0.760587
0.660778
-0.782217
-0.293316
-0.59686
-0.676394
-0.281174
-0.708357
-0.407531
0.0508972
0.0596046
0.178602
0.578631
0.269647
1.21978
0.313294
1.735
0.334971
2.16228
0.345315
2.58109
0.34981
3.03277
0.357855
3.55794
0.373693
4.18645
0.409033
5.10445
0.586694
6.01185
0.809329
7.30339
0.899682
6.90868
0.906364
5.55765
0.468974
3.46962
-0.159324
1.28908
-0.544918
0.0922783
-0.599855
-0.621457
-0.324238
-0.983974
-0.731769
0.0357617
0.023843
0.211868
0.402524
0.335095
1.09656
0.410698
1.65939
0.44963
2.12335
0.472814
2.55791
0.485746
3.01984
0.50796
3.53572
0.549339
4.14507
0.642159
5.01163
0.972471
5.68154
1.51194
6.76392
1.93086
6.48977
2.25339
5.23512
2.06392
3.6591
1.33127
2.02172
0.702614
0.720937
0.233088
-0.151931
-0.00180813
-0.749078
-0.733577
0.0313101
-0.00746715
0.232277
0.201557
0.425553
0.903281
0.531027
1.55392
0.584858
2.06952
0.62174
2.52103
0.646883
2.9947
0.680606
3.502
0.750702
4.07497
0.899627
4.8627
1.33229
5.24888
2.10857
5.98764
2.51176
6.08658
2.7127
5.03418
2.55428
3.81752
2.06096
2.51504
1.50443
1.27747
0.988159
0.364336
0.392546
-0.153464
-0.341031
0.0280947
-0.0355619
0.174852
0.0548006
0.47677
0.601363
0.658507
1.37218
0.747148
1.98087
0.796998
2.47118
0.837531
2.95417
0.873965
3.46557
0.9517
3.99724
1.10063
4.71377
1.45332
4.89619
2.2188
5.22216
2.58427
5.72111
2.75061
4.86784
2.65982
3.90831
2.24039
2.93447
1.61325
1.90461
0.95806
1.01952
0.40986
0.394735
0.0688288
0.0092359
-0.0447978
0.0914359
-0.0273995
0.406808
0.28599
0.662637
1.11636
0.785785
1.85773
0.821422
2.43554
0.831266
2.94432
0.821406
3.47543
0.820011
3.99863
0.86456
4.66922
0.973079
4.78767
1.34091
4.85432
1.54824
5.51379
1.56332
4.85276
1.48759
3.98403
1.29069
3.13138
0.957879
2.23742
0.599211
1.37819
0.246989
0.746958
0.315818
-0.00206939
-0.0427284
0.0362126
-0.0656815
0.232567
0.0896358
0.496142
0.85278
0.640432
1.71344
0.691194
2.38478
0.70705
2.92847
0.702588
3.47989
0.686574
4.01465
0.698685
4.65711
0.745768
4.74058
0.968608
4.63148
1.18579
5.29661
1.18928
4.84926
1.12496
4.04836
0.984886
3.27145
0.744016
2.47829
0.459732
1.66248
0.185445
1.02125
0.501262
4.13031e-05
-0.0427697
0.0255171
-0.0911573
0.114969
0.000183608
0.352793
0.614956
0.489019
1.57721
0.546265
2.32753
0.565154
2.90958
0.569084
3.47596
0.554007
4.02972
0.5452
4.66592
0.564813
4.72097
0.701698
4.4946
0.869278
5.12903
0.865849
4.85269
0.796738
4.11747
0.683609
3.38458
0.514342
2.64756
0.306837
1.86998
0.115278
1.2128
0.61654
0.00964802
-0.0524177
0.0426397
-0.124149
0.0952147
-0.0523914
0.259771
0.4504
0.370913
1.46607
0.418003
2.28044
0.429891
2.89769
0.43528
3.47057
0.428945
4.03606
0.42035
4.67451
0.421136
4.72018
0.499456
4.41628
0.613142
5.01534
0.607285
4.85855
0.541724
4.18303
0.452739
3.47356
0.33464
2.76565
0.192416
2.01221
0.0613986
1.34382
0.677939
0.0380923
-0.09051
0.090874
-0.176931
0.120135
-0.0816528
0.167482
0.403053
0.241821
1.39173
0.279548
2.24272