/*--------------------------------*- C++ -*----------------------------------*\
| =========                 |                                                 |
| \\      /  F ield         | OpenFOAM: The Open Source CFD Toolbox           |
|  \\    /   O peration     | Version:  4.0                                   |
|   \\  /    A nd           | Web:      www.OpenFOAM.org                      |
|    \\/     M anipulation  |                                                 |
\*---------------------------------------------------------------------------*/
FoamFile
{
    version     2.0;
    format      ascii;
    class       surfaceScalarField;
    location    "70";
    object      phi;
}
// * * * * * * * * * * * * * * * * * * * * * * * * * * * * * * * * * * * * * //

dimensions      [0 3 -1 0 0 0 0];

internalField   nonuniform List<scalar> 
17370
(
-0.091606
0.0960093
0.284608
-0.0775945
0.0594198
0.36495
-0.0430417
0.0316215
0.427588
-0.0223173
0.0162644
0.505305
-0.0116712
0.00879723
0.602276
-0.00658593
0.00510083
0.720543
-0.00386378
0.0029834
0.863787
-0.0022104
0.00163208
1.03603
-0.0011003
0.000678979
1.24292
-0.000267069
-0.0001281
1.49159
0.000517185
-0.000931658
1.49161
0.00133758
-0.00184276
1.2432
0.00239187
-0.00313197
1.03638
0.00398681
-0.0052042
0.864124
0.00667779
-0.0088792
0.721259
0.0117423
-0.0163196
0.603792
0.0223556
-0.0316413
0.508725
0.0430415
-0.0594077
0.432534
0.0775868
-0.0960025
0.365191
0.0916214
0.197389
-0.127093
0.0880259
0.0390673
-0.364358
0.354033
-0.0714723
0.0817971
-0.446654
0.454258
-0.0791663
0.0715623
-0.521012
0.529114
-0.0637068
0.0556053
-0.612992
0.620764
-0.0482163
0.0404449
-0.727165
0.733688
-0.0338313
0.0273084
-0.867582
0.872437
-0.0221024
0.0172478
-1.03857
1.04191
-0.0135473
0.0102056
-1.24472
1.24713
-0.00765231
0.0052434
-1.49284
1.49486
-0.00327624
0.00125866
-1.49269
1.49452
0.000563228
-0.00238542
-1.2441
1.24602
0.00436146
-0.00627512
-1.03761
1.04008
0.00861069
-0.0110866
-0.866186
0.869809
0.014339
-0.017962
-0.724592
0.729743
0.0227445
-0.0278963
-0.609062
0.61563
0.0343673
-0.0409347
-0.515122
0.522455
0.0486522
-0.0559852
-0.43988
0.447654
0.0640034
-0.0717774
-0.374704
0.377355
0.0792654
-0.0819163
-0.256893
0.224429
0.0715656
-0.0391017
-0.0688163
0.0592071
0.00960919
-0.0520928
0.0589147
-0.374843
0.368021
-0.0580634
0.0542184
-0.453951
0.457796
-0.0487289
0.0441669
-0.527623
0.532185
-0.0396137
0.0357142
-0.620808
0.624708
-0.0314967
0.0274969
-0.734667
0.738667
-0.0231347
0.0192424
-0.873964
0.877856
-0.0151916
0.0117294
-1.04337
1.04683
-0.00820408
0.00516628
-1.24866
1.2517
-0.00195348
-0.00103176
-1.49695
1.49993
0.00399453
-0.00714561
-1.49742
1.50057
0.0100924
-0.0134919
-1.25006
1.25346
0.0168232
-0.0207218
-1.04564
1.04954
0.0244803
-0.0287114
-0.877125
0.881357
0.0326056
-0.0367186
-0.738971
0.743084
0.0405315
-0.0449994
-0.62596
0.630428
0.04949
-0.0549096
-0.535007
0.540427
0.0586733
-0.0594288
-0.458066
0.458822
0.0524731
-0.0320755
-0.336749
0.316352
0.00967688
-0.0686527
0.0589758
-0.0534208
0.0493125
0.00410828
-0.0332217
0.0436355
-0.358582
0.348168
-0.0473032
0.0467106
-0.459593
0.460186
-0.0437769
0.0405595
-0.536147
0.539364
-0.0368768
0.0335164
-0.628412
0.631773
-0.0298758
0.0266279
-0.742053
0.745301
-0.0231671
0.0199621
-0.881358
0.884563
-0.0163606
0.013001
-1.05027
1.05363
-0.00929352
0.00588166
-1.25496
1.25837
-0.00208406
-0.00153693
-1.50329
1.50691
0.00512545
-0.00882901
-1.50406
1.50776
0.0121123
-0.0156419
-1.25701
1.26054
0.0188158
-0.0222005
-1.05324
1.05663
0.0252144
-0.0284873
-0.884957
0.88823
0.0315834
-0.0350739
-0.746759
0.750249
0.0383066
-0.0418565
-0.63454
0.63809
0.0449586
-0.0477633
-0.544564
0.547368
0.0482219
-0.0443684
-0.456929
0.453075
0.0337266
-0.0163952
-0.29702
0.279688
0.00418332
-0.0531216
0.0489383
-0.0461467
0.0435953
0.00255145
-0.0230185
0.033353
-0.337589
0.327254
-0.0390731
0.0400125
-0.459943
0.459004
-0.0387525
0.0364173
-0.542026
0.544361
-0.0337665
0.0312117
-0.634747
0.637302
-0.0282246
0.0253671
-0.748395
0.751252
-0.0221186
0.0190949
-0.887628
0.890652
-0.0157329
0.0125888
-1.05681
1.05996
-0.00902101
0.00561175
-1.26178
1.26519
-0.00169311
-0.00210926
-1.51064
1.51445
0.00586938
-0.00966041
-1.51154
1.51533
0.0128985
-0.0162323
-1.26399
1.26732
0.0191331
-0.0222124
-1.05983
1.06291
0.0249839
-0.0279788
-0.891414
0.894409
0.0306281
-0.0334074
-0.753416
0.756196
0.0357873
-0.0382606
-0.641033
0.643506
0.0404442
-0.0415052
-0.549193
0.550254
0.0403583
-0.0343354
-0.447935
0.441912
0.0236677
-0.0103955
-0.264479
0.251207
0.00264459
-0.0456883
0.0430437
-0.0414814
0.0396861
0.00179527
-0.0169081
0.0261728
-0.317403
0.308139
-0.0327482
0.0348534
-0.457455
0.45535
-0.0344053
0.0326953
-0.546399
0.548109
-0.0304547
0.0283142
-0.639623
0.641764
-0.0258619
0.0234696
-0.753864
0.756256
-0.0206394
0.0178788
-0.893522
0.896283
-0.0146792
0.0116309
-1.06301
1.06606
-0.00815156
0.00482427
-1.26852
1.27185
-0.000974637
-0.00277809
-1.51822
1.52197
0.00647622
-0.0101644
-1.51906
1.52275
0.0132743
-0.0164572
-1.27058
1.27376
0.019197
-0.0220348
-1.06593
1.06877
0.024469
-0.0269703
-0.897179
0.89968
0.0290935
-0.0312793
-0.758621
0.760807
0.0331967
-0.0352084
-0.64572
0.647732
0.036698
-0.0368741
-0.550819
0.550996
0.0344501
-0.0274311
-0.435295
0.428276
0.0177193
-0.00750091
-0.239604
0.229385
0.00190934
-0.0408268
0.0389174
-0.0381419
0.0367964
0.00134549
-0.0129013
0.0208738
-0.299522
0.29155
-0.0276132
0.0305137
-0.452813
0.449913
-0.0307016
0.0295607
-0.549559
0.5507
-0.0275452
0.0256022
-0.643834
0.645777
-0.0233711
0.0212118
-0.758515
0.760674
-0.018684
0.0161976
-0.89885
0.901337
-0.0132579
0.0103849
-1.06898
1.07185
-0.00703733
0.00380649
-1.27509
1.27832
-6.08805e-05
-0.00357595
-1.52564
1.52928
0.00714537
-0.0106877
-1.52636
1.5299
0.0136461
-0.016622
-1.27686
1.27984
0.0191075
-0.0215926
-1.07148
1.07397
0.0236711
-0.025787
-0.901974
0.904089
0.0276066
-0.0294988
-0.76283
0.764722
0.0311595
-0.0329003
-0.649585
0.651326
0.0337197
-0.0331525
-0.550802
0.550235
0.0297961
-0.0224486
-0.421035
0.413687
0.0139017
-0.0058056
-0.220328
0.212232
0.00148461
-0.0372472
0.0357626
-0.0356219
0.0345879
0.00103397
-0.0100683
0.0168101
-0.284215
0.277474
-0.0232925
0.0266496
-0.446761
0.443404
-0.0274096
0.0266982
-0.551616
0.552328
-0.0249131
0.0231113
-0.647685
0.649487
-0.0210276
0.0190013
-0.762766
0.764792
-0.0166178
0.0142794
-0.903687
0.906026
-0.0115292
0.00883337
-1.07457
1.07726
-0.00566342
0.00257203
-1.28145
1.28454
0.00103346
-0.00453565
-1.53283
1.53633
0.00795348
-0.0113089
-1.53333
1.53669
0.0140626
-0.0167731
-1.28269
1.2854
0.0189918
-0.0211812
-1.07636
1.07854
0.023015
-0.0248874
-0.906092
0.907964
0.0264921
-0.0281552
-0.766488
0.768151
0.0296068
-0.0310136
-0.652919
0.654326
0.0313246
-0.0300264
-0.549316
0.548018
0.0260409
-0.0187579
-0.406346
0.399063
0.0112944
-0.00468484
-0.204949
0.19834
0.0012032
-0.034435
0.0332318
-0.0336804
0.0328771
0.000803284
-0.00796669
0.0136294
-0.271299
0.265636
-0.0196287
0.0231848
-0.439935
0.436379
-0.0244221
0.0239559
-0.552944
0.55341
-0.0224407
0.0207471
-0.651281
0.652975
-0.0187584
0.0168203
-0.766773
0.768711
-0.0145362
0.0122915
-0.908256
0.910501
-0.00964767
0.00706372
-1.07983
1.08242
-0.00403761
0.00108482
-1.28751
1.29046
0.00235748
-0.00569543
-1.53972
1.54306
0.00893101
-0.0120673
-1.53991
1.54305
0.0146044
-0.0170705
-1.28799
1.29046
0.0190704
-0.0210258
-1.08069
1.08264
0.022651
-0.0243081
-0.909741
0.911398
0.0257288
-0.0271998
-0.76971
0.771181
0.0284568
-0.0294822
-0.655524
0.656549
0.02942
-0.0274481
-0.546387
0.544415
0.023052
-0.0160252
-0.391903
0.384877
0.00946579
-0.00391163
-0.192308
0.186754
0.00100904
-0.032138
0.031129
-0.0321715
0.0315466
0.000624944
-0.00634627
0.0110857
-0.260461
0.255722
-0.0164934
0.0200505
-0.432818
0.429261
-0.0216111
0.0213689
-0.553795
0.554037
-0.0200849
0.0184528
-0.654683
0.656315
-0.0165195
0.0146302
-0.770621
0.77251
-0.0124045
0.010219
-0.912645
0.914831
-0.0076467
0.00513589
-1.08489
1.0874
-0.00220302
-0.000636655
-1.2933
1.29614
0.00393469
-0.00710688
-1.54628
1.54945
0.0101524
-0.0130731
-1.54605
1.54897
0.0154136
-0.0176664
-1.29282
1.29507
0.0194676
-0.0212004
-1.08458
1.08631
0.0226293
-0.0240886
-0.912967
0.914426
0.0253438
-0.0266397
-0.772557
0.773853
0.0277485
-0.0283517
-0.657359
0.657962
0.0279163
-0.0253754
-0.542173
0.539632
0.0207244
-0.0140209
-0.378021
0.371317
0.00817518
-0.00337374
-0.181615
0.176813
0.000874763
-0.0301972
0.0293225
-0.031001
0.0305205
0.000480525
-0.00504206
0.00898454
-0.251405
0.247462
-0.0137545
0.0171624
-0.425782
0.422374
-0.0189049
0.0188513
-0.554221
0.554275
-0.0177627
0.0161644
-0.657992
0.65959
-0.0142536
0.0123789
-0.774386
0.776261
-0.0101708
0.00800785
-0.916924
0.919087
-0.00547155
0.00300657
-1.0898
1.09227
-0.000143551
-0.00262351
-1.29889
1.30165
0.00580253
-0.00882688
-1.55251
1.55554
0.0116974
-0.0144172
-1.55176
1.55448
0.0165698
-0.0186136
-1.29722
1.29926
0.0202196
-0.0217362
-1.08805
1.08956
0.0229798
-0.0242585
-0.915802
0.917081
0.0253652
-0.0265012
-0.775059
0.776195
0.0274172
-0.0276396
-0.658371
0.658593
0.0268002
-0.0237757
-0.536863
0.533839
0.0189673
-0.0125784
-0.364789
0.3584
0.0072744
-0.00300519
-0.17231
0.168041
0.000784352
-0.0285022
0.0277178
-0.0301073
0.029749
0.00035833
-0.00394909
0.00719084
-0.243891
0.24065
-0.0113103
0.0144582
-0.419106
0.415958
-0.016256
0.016353
-0.554296
0.554199
-0.0153472
0.0138199
-0.661227
0.662755
-0.0119041
0.0100118
-0.778134
0.780026
-0.00778344
0.00560787
-0.921162
0.923338
-0.00307
0.000618242
-1.09464
1.09709
0.00221772
-0.00492979
-1.30432
1.30704
0.0080189
-0.0109223
-1.55846
1.56136
0.0136398
-0.0161731
-1.55708
1.55961
0.0181444
-0.0199833
-1.3012
1.30304
0.0213968
-0.0227004
-1.09111
1.09241
0.0237635
-0.0248684
-0.918276
0.919381
0.025831
-0.0267985
-0.777238
0.778206
0.0274531
-0.0273852
-0.658685
0.658618
0.0260995
-0.0226413
-0.530609
0.527151
0.0177175
-0.0115867
-0.352166
0.346035
0.0066724
-0.00276561
-0.163982
0.160075
0.000727678
-0.026971
0.0262433
-0.0294506
0.0292013
0.000249293
-0.00299069
0.00559957
-0.237743
0.235134
-0.00906825
0.0118725
-0.412996
0.410192
-0.0136109
0.013787
-0.55411
0.553934
-0.0128213
0.011337
-0.664343
0.665827
-0.00939319
0.00745359
-0.781926
0.783866
-0.00516839
0.0029454
-0.925429
0.927652
-0.000369018
-0.00211071
-1.09945
1.10193
0.00495144
-0.00764267
-1.30967
1.31236
0.010672
-0.0134775
-1.56417
1.56698
0.0160583
-0.0184163
-1.56202
1.56437
0.0202139
-0.0218541
-1.30477
1.30641
0.0230754
-0.0241607
-1.09377
1.09486
0.0250387
-0.0259682
-0.920398
0.921328
0.0267874
-0.0275845
-0.779065
0.779862
0.027948
-0.0275872
-0.658404
0.658043
0.0258455
-0.0219642
-0.523502
0.519621
0.0169243
-0.0109675
-0.340025
0.334069
0.00630839
-0.00262783
-0.15631
0.15263
0.000697654
-0.0255402
0.0248425
-0.0290086
0.0288629
0.000145771
-0.00210317
0.00411785
-0.23284
0.230825
-0.00693085
0.00932111
-0.407613
0.405223
-0.0108914
0.0110669
-0.553816
0.55364
-0.0101069
0.00862627
-0.66741
0.668891
-0.00662692
0.00460995
-0.785818
0.787835
-0.00223291
-6.78139e-05
-0.929793
0.932094
0.00273178
-0.00527098
-1.10432
1.10686
0.00815539
-0.0108581
-1.31497
1.31768
0.0138586
-0.016588
-1.56969
1.57242
0.0190464
-0.0212374
-1.5666
1.56879
0.0228657
-0.024309
-1.30793
1.30937
0.0253342
-0.0261878
-1.09604
1.09689
0.026866
-0.0276027
-0.922153
0.922889
0.0282684
-0.0289217
-0.780534
0.781187
0.0289675
-0.0282236
-0.657474
0.65673
0.026022
-0.021721
-0.515576
0.511275
0.016539
-0.0106609
-0.328193
0.322314
0.00613844
-0.00257237
-0.149035
0.145469
0.000689177
-0.024159
0.0234698
-0.0287734
0.0287323
4.11755e-05
-0.0012379
0.00267307
-0.229114
0.227679
-0.00481654
0.00672906
-0.403092
0.401179
-0.00802713
0.00811968
-0.553575
0.553483
-0.0071191
0.00560542
-0.67051
0.672024
-0.00351264
0.00138453
-0.78987
0.791998
0.0011265
-0.00355187
-0.934319
0.936744
0.00633617
-0.00897331
-1.10932
1.11196
0.0119431
-0.0146936
-1.32031
1.32307
0.0176996
-0.0203777
-1.57507
1.57775
0.022729
-0.0247584
-1.57085
1.57288
0.0262151
-0.0274541
-1.31068
1.31192
0.0282731
-0.0288921
-1.09788
1.0985
0.029365
-0.0298958
-0.923517
0.924048
0.0303926
-0.0308355
-0.781633
0.782076
0.0305902
-0.0293727
-0.655775
0.654557
0.0266791
-0.0219268
-0.506818
0.502065
0.0165446
-0.0106354
-0.31647
0.310561
0.0061381
-0.00258826
-0.141942
0.138392
0.000699419
-0.0227862
0.0220868
-0.0287481
0.0288154
-6.7334e-05
-0.000354577
0.00120331
-0.226547
0.225698
-0.00264885
0.00401772
-0.399558
0.398189
-0.00493895
0.00486156
-0.553561
0.553639
-0.00376075
0.00215973
-0.67373
0.675331
6.32798e-05
-0.00234238
-0.79415
0.796429
0.00503351
-0.00762267
-0.93909
0.941679
0.0105782
-0.013357
-1.11453
1.11731
0.0164563
-0.0192899
-1.32576
1.32859
0.0223334
-0.024981
-1.58035
1.583
0.0272363
-0.0291061
-1.57478
1.57664
0.0303873
-0.0314144
-1.313
1.31402
0.0320221
-0.0323973
-1.09927
1.09965
0.0326557
-0.0329677
-0.924463
0.924775
0.0332723
-0.0334225
-0.782206
0.782356
0.0328721
-0.0311048
-0.653145
0.651378
0.0278652
-0.0226026
-0.497152
0.491889
0.0169379
-0.0108762
-0.304633
0.298571
0.0062948
-0.00266947
-0.134837
0.131212
0.000726661
-0.0213852
0.0206585
-0.0289479
0.0291321
-0.000184122
0.000569016
-0.000339771
-0.22516
0.224931
-0.000354752
0.00110177
-0.397139
0.396391
-0.00153752
0.0012062
-0.553952
0.554283
4.47576e-05
-0.00180972
-0.677183
0.678948
0.00422552
-0.00670707
-0.798743
0.801224
0.00963127
-0.0124334
-0.944191
0.946993
0.0156147
-0.0185833
-1.12002
1.12299
0.0218601
-0.024815
-1.33138
1.33433
0.0279288
-0.0305655
-1.58557
1.58821
0.0327306
-0.0344355
-1.57837
1.58007
0.0355362
-0.036338
-1.31486
1.31566
0.0367236
-0.0368408
-1.10018
1.1003
0.0368674
-0.036944
-0.924953
0.925029
0.0370505
-0.0368219
-0.782138
0.781909
0.0358824
-0.0334916
-0.649445
0.647054
0.0296314
-0.0237681
-0.486444
0.480581
0.0177152
-0.0113691
-0.292432
0.286086
0.00659573
-0.00280909
-0.12754
0.123754
0.000768649
-0.0199228
0.0191541
-0.0294006
0.0297335
-0.000332895
0.00160641
-0.0020183
-0.225045
0.225457
0.00217492
-0.00215921
-0.395967
0.395952
0.00234213
-0.00304032
-0.554969
0.555667
0.00453198
-0.00649395
-0.681017
0.682979
0.00915024
-0.0118857
-0.803735
0.806471
0.0151054
-0.0181785
-0.949723
0.952796
0.0216471
-0.0248579
-1.12591
1.12912
0.0283641
-0.0314796
-1.33724
1.34036
0.0346954
-0.0373363
-1.59078
1.59342
0.0394117
-0.040935
-1.58161
1.58314
0.0418318
-0.0423963
-1.31623
1.3168
0.0425469
-0.042382
-1.10056
1.10039
0.042152
-0.0419761
-0.924932
0.924756
0.0418771
-0.041167
-0.78127
0.78056
0.0397519
-0.0366305
-0.644516
0.641395
0.0320406
-0.0254491
-0.474498
0.467906
0.0188781
-0.0121045
-0.279599
0.272826
0.00703108
-0.00300144
-0.119882
0.115852
0.000823496
-0.0183705
0.017547
-0.0301363
0.030649
-0.00051274
0.00290585
-0.00408742
-0.226271
0.227452
0.00511746
-0.00590857
-0.396262
0.397053
0.00681572
-0.00798164
-0.556843
0.558009
0.00980052
-0.0120421
-0.685335
0.687577
0.0150289
-0.0180937
-0.809244
0.812309
0.0216861
-0.0250965
-0.955802
0.959212
0.0289205
-0.03243
-1.13229
1.1358
0.0362183
-0.0395305
-1.34344
1.34675
0.0428714
-0.0455207
-1.59598
1.59863
0.0474944
-0.0488191
-1.58448
1.58581
0.0494782
-0.0497899
-1.31707
1.31738
0.0496829
-0.049211
-1.10034
1.09987
0.0487056
-0.048262
-0.924342
0.923899
0.0478331
-0.046659
-0.779463
0.778289
0.0446126
-0.0406206
-0.638134
0.634142
0.0351585
-0.0276733
-0.461044
0.453559
0.020429
-0.0130717
-0.265843
0.258486
0.00758868
-0.00323887
-0.111702
0.107352
0.000888379
-0.0167043
0.0158159
-0.0312297
0.031967
-0.000737295
0.00442351
-0.00649828
-0.22904
0.231115
0.00859845
-0.0103075
-0.398231
0.39994
0.0120463
-0.0137988
-0.559826
0.561579
0.0160782
-0.0186998
-0.690302
0.692924
0.0221249
-0.0256031
-0.815419
0.818897
0.0296581
-0.0334846
-0.962566
0.966392
0.037743
-0.0416127
-1.13927
1.14314
0.045734
-0.0492718
-1.35003
1.35356
0.0527479
-0.0553937
-1.60119
1.60383
0.0572372
-0.0583218
-1.58693
1.58802
0.0587047
-0.0587187
-1.3173
1.31732
0.0583308
-0.0575308
-1.09948
1.09868
0.0567247
-0.055978
-0.923139
0.922392
0.0551422
-0.0534382
-0.776765
0.775061
0.0506174
-0.0455611
-0.63
0.624944
0.0390341
-0.0304453
-0.445737
0.437148
0.0223483
-0.0142431
-0.250849
0.242743
0.00824505
-0.00350809
-0.102849
0.0981118
0.000958734
-0.0149057
0.013947
-0.0327649
0.0337927
-0.00102779
0.0063188
-0.00945618
-0.233597
0.236735
0.0128387
-0.0156146
-0.402146
0.404922
0.0183315
-0.0207972
-0.5642
0.566666
0.0236822
-0.0268063
-0.696135
0.699259
0.0308025
-0.0348064
-0.822431
0.826434
0.0394324
-0.0437617
-0.970175
0.974504
0.0485342
-0.0528187
-1.14699
1.15127
0.0573089
-0.0610803
-1.35705
1.36082
0.0646709
-0.0672683
-1.60636
1.60896
0.0689229
-0.0697023
-1.58886
1.58964
0.0697504
-0.0694079
-1.31681
1.31647
0.0687152
-0.0675468
-1.09789
1.09672
0.0664018
-0.0653605
-0.921268
0.920226
0.0639941
-0.0616641
-0.773015
0.770685
0.0578886
-0.0515168
-0.619724
0.613352
0.0436804
-0.0337335
-0.428145
0.418198
0.0245842
-0.0155661
-0.234287
0.225269
0.00896043
-0.00378844
-0.0931986
0.0880266
0.00102794
-0.012967
0.0119391
-0.0348668
0.0362969
-0.00143008
0.00879863
-0.0132956
-0.240268
0.244765
0.0181777
-0.0221972
-0.408374
0.412393
0.0260601
-0.0293916
-0.570295
0.573626
0.0330597
-0.0368479
-0.7031
0.706888
0.0415818
-0.0462425
-0.830496
0.835157
0.0515582
-0.0564777
-0.978803
0.983722
0.0618334
-0.0665659
-1.15552
1.16026
0.071425
-0.0753964
-1.36452
1.36849
0.0790308
-0.0814907
-1.61138
1.61384
0.0828595
-0.0832346
-1.59013
1.5905
0.0828855
-0.0820961
-1.31549
1.3147
0.0810378
-0.0794807
-1.09547
1.09392
0.0780104
-0.0765516
-0.918698
0.91724
0.0746698
-0.0714879
-0.76797
0.764788
0.0665106
-0.0584971
-0.606782
0.598768
0.0490436
-0.0374391
-0.407753
0.396149
0.0270271
-0.0169472
-0.21584
0.20576
0.0096699
-0.0040483
-0.0826714
0.0770498
0.00108636
-0.0108951
0.00980869
-0.0377385
0.0397346
-0.00199611
0.01224
-0.0184691
-0.249573
0.255802
0.0251549
-0.0306284
-0.417412
0.422885
0.035848
-0.0402421
-0.578501
0.582895
0.0448988
-0.0495501
-0.711541
0.716193
0.0552277
-0.0606927
-0.839869
0.845334
0.0668158
-0.0723932
-0.98862
0.994197
0.0783595
-0.0835185
-1.16493
1.17009
0.0886738
-0.0927394
-1.37231
1.37638
0.0962669
-0.0984282
-1.61604
1.6182
0.099352
-0.0991744
-1.5905
1.59032
0.0983311
-0.0969838
-1.3132
1.31185
0.0955053
-0.0935401
-1.09218
1.09021
0.0917007
-0.0897007
-0.915137
0.913137
0.0872828
-0.082988
-0.761126
0.756831
0.0764903
-0.0664134
-0.590494
0.580417
0.054965
-0.0413672
-0.383969
0.370371
0.0294909
-0.0182429
-0.195236
0.183988
0.0102807
-0.00424536
-0.0712626
0.0652273
0.00112181
-0.00871693
0.00759512
-0.0417011
0.0445758
-0.00287473
0.0172351
-0.0257279
-0.262255
0.270747
0.0346565
-0.0418906
-0.429924
0.437158
0.0487535
-0.0544163
-0.589308
0.594971
0.0603788
-0.0661783
-0.721875
0.727674
0.0729946
-0.0793743
-0.850824
0.857204
0.0863592
-0.0925779
-0.999733
1.00595
0.0990657
-0.104512
-1.17511
1.18055
0.109756
-0.113691
-1.38017
1.38411
0.116834
-0.118433
-1.61996
1.62156
0.118671
-0.117732
-1.58966
1.58872
0.116238
-0.114251
-1.30972
1.30773
0.112291
-0.109883
-1.0879
1.08549
0.107661
-0.104996
-0.91031
0.907645
0.101872
-0.0961022
-0.751901
0.746132
0.0876567
-0.0749957
-0.569976
0.557315
0.061117
-0.0451846
-0.35616
0.340227
0.0316882
-0.0192514
-0.172319
0.159882
0.0106709
-0.00432782
-0.0590814
0.0527383
0.00112024
-0.00648468
0.00536444
-0.0473383
0.0517005
-0.00436219
0.024974
-0.0365506
-0.279471
0.291048
0.0484012
-0.0579721
-0.446954
0.456525
0.0668695
-0.0740044
-0.603319
0.610454
0.0815161
-0.0888451
-0.73447
0.741799
0.0968697
-0.104085
-0.863565
0.87078
0.111765
-0.118404
-1.01202
1.01866
0.125095
-0.130489
-1.18569
1.19108
0.13541
-0.138819
-1.38756
1.39097
0.141144
-0.141795
-1.62255
1.6232
0.14102
-0.139071
-1.58715
1.5852
0.136753
-0.133999
-1.30487
1.30212
0.131469
-0.128585
-1.08252
1.07964
0.125859
-0.122531
-0.904047
0.900719
0.118354
-0.11058
-0.739497
0.731723
0.0995841
-0.0837127
-0.54412
0.528249
0.0669557
-0.0484147
-0.323733
0.305192
0.033249
-0.0197387
-0.147155
0.133644
0.0107105
-0.00424435
-0.046391
0.0399248
0.00106799
-0.00427677
0.00320879
-0.0557337
0.0632197
-0.00748601
0.0385798
-0.0546468
-0.30339
0.319457
0.0705795
-0.0833706
-0.470137
0.482928
0.0944496
-0.102963
-0.620976
0.629489
0.111982
-0.120592
-0.749728
0.758337
0.12955
-0.137187
-0.877784
0.885421
0.144976
-0.151429
-1.02488
1.03133
0.157641
-0.162337
-1.19584
1.20054
0.166254
-0.168517
-1.39358
1.39585
0.169444
-0.168693
-1.62298
1.62223
0.166547
-0.163282
-1.58248
1.57922
0.159919
-0.156225
-1.29838
1.29469
0.153048
-0.149687
-1.0759
1.07254
0.146381
-0.14216
-0.896086
0.891865
0.136381
-0.125804
-0.72269
0.712113
0.111444
-0.0916412
-0.511538
0.491735
0.0717209
-0.0505293
-0.286301
0.265109
0.033858
-0.0195751
-0.12017
0.105887
0.0103588
-0.00399441
-0.0336366
0.0272723
0.000966672
-0.00219768
0.001231
-0.0701891
0.0743813
-0.00419224
0.0295569
-0.0434772
-0.338036
0.351956
0.0576004
-0.0692996
-0.500926
0.512625
0.0797965
-0.0895933
-0.641874
0.651671
0.100561
-0.110604
-0.766521
0.776564
0.121779
-0.131772
-0.892183
0.902176
0.142455
-0.151989
-1.03685
1.04638
0.161976
-0.170571
-1.20416
1.21275
0.179157
-0.186066
-1.39697
1.40388
0.192309
-0.196517
-1.6203
1.6245
0.198668
-0.199366
-1.57497
1.57567
0.198916
-0.197884
-1.28992
1.28888
0.197104
-0.19588
-1.06781
1.06659
0.194231
-0.18997
-0.885667
0.881406
0.181783
-0.165604
-0.699693
0.683515
0.143494
-0.114286
-0.470818
0.44161
0.0865834
-0.0586576
-0.243942
0.216016
0.0379994
-0.0212382
-0.09231
0.0755488
0.0108903
-0.00405337
-0.0214272
0.0145903
0.000941704
-0.000349134
-0.000592569
-0.0816362
0.0797806
0.00185565
0.00762442
-0.0168282
-0.36872
0.377923
0.0275744
-0.0358825
-0.529052
0.53736
0.0443285
-0.0526471
-0.664047
0.672366
0.06274
-0.0721469
-0.786276
0.795683
0.082181
-0.0913706
-0.911621
0.92081
0.101157
-0.109549
-1.05563
1.06402
0.118525
-0.125884
-1.22116
1.22852
0.133181
-0.138772
-1.41049
1.41608
0.143282
-0.145958
-1.62794
1.63061
0.146617
-0.14584
-1.57572
1.57495
0.143914
-0.141292
-1.287
1.28438
0.138991
-0.1365
-1.06278
1.06029
0.133655
-0.128224
-0.87268
0.867249
0.119304
-0.104491
-0.663176
0.648363
0.0868867
-0.0657926
-0.410759
0.389665
0.0477069
-0.0312529
-0.188799
0.172345
0.0199045
-0.0111014
-0.0599462
0.051143
0.00575104
-0.00216612
-0.00810553
0.00452061
0.000444084
0.00160949
-0.00205358
-0.0831045
0.0801596
0.0029449
-0.00172841
-0.00362636
-0.389462
0.394817
0.0109731
-0.0169899
-0.549892
0.555909
0.0232487
-0.030533
-0.682832
0.690116
0.0392649
-0.047431
-0.804204
0.81237
0.0563651
-0.0643773
-0.929245
0.937257
0.0726547
-0.0801078
-1.07222
1.07967
0.0878556
-0.0942761
-1.23541
1.24183
0.100159
-0.104424
-1.42096
1.42523
0.107773
-0.10915
-1.63254
1.63392
0.10854
-0.106518
-1.57354
1.57152
0.103605
-0.100097
-1.28133
1.27782
0.096525
-0.0927955
-1.05532
1.0516
0.0888891
-0.0830519
-0.85774
0.851903
0.0748242
-0.0624849
-0.630476
0.618137
0.0495895
-0.0357525
-0.367013
0.353176
0.025327
-0.0166702
-0.155766
0.147109
0.0109231
-0.0064497
-0.0425682
0.0380947
0.00354227
-0.0013306
-0.00107376
-0.00113791
0.000307181
0.00271748
-0.00302466
-0.0817888
0.0789876
0.00280129
-0.0054943
0.0029356
-0.403286
0.405845
0.00182074
-0.00637313
-0.565286
0.569839
0.0116369
-0.0177264
-0.698328
0.704418
0.0251568
-0.0321302
-0.819901
0.826874
0.0397487
-0.0466019
-0.944725
0.951578
0.0540551
-0.0603408
-1.08666
1.09295
0.0670448
-0.0721067
-1.24779
1.25285
0.0770032
-0.0803764
-1.42921
1.43258
0.0825769
-0.0826956
-1.63477
1.63489
0.0812639
-0.0784446
-1.56886
1.56604
0.0748194
-0.070159
-1.27384
1.26918
0.0657906
-0.0610375
-1.04596
1.04121
0.0561308
-0.0503395
-0.841762
0.835971
0.0430544
-0.0337074
-0.603169
0.593822
0.0250749
-0.0171528
-0.338246
0.330324
0.0120033
-0.00819498
-0.137713
0.133905
0.00575393
-0.00376097
-0.0331859
0.0311929
0.00220641
-0.000923954
0.00338551
-0.00466797
0.000240246
0.00358462
-0.00382486
-0.0801831
0.0776744
0.00250874
-0.00675708
0.00586759
-0.41244
0.413329
-0.00238372
-0.000872983
-0.577597
0.580854
0.00512733
-0.0106285
-0.711282
0.716783
0.0168372
-0.0229228
-0.833141
0.839226
0.0294803
-0.0353856
-0.957953
0.963858
0.041719
-0.0472362
-1.09906
1.10458
0.0528234
-0.0573302
-1.25772
1.26223
0.0613506
-0.0639462
-1.43551
1.43811
0.0653123
-0.0646636
-1.63472
1.63407
0.0625091
-0.0587708
-1.56239
1.55865
0.0545224
-0.0493205
-1.26423
1.25903
0.044277
-0.0385768
-1.03497
1.02927
0.033207
-0.0273543
-0.826159
0.820307
0.0213208
-0.0143669
-0.582271
0.575317
0.00904852
-0.00522529
-0.321005
0.317182
0.00340538
-0.00253329
-0.128861
0.127988
0.00211764
-0.00167973
-0.0285523
0.0281144
0.00110043
-0.000528415
0.00617248
-0.00674449
0.000160521
0.00430351
-0.00446403
-0.0786407
0.0764658
0.00217487
-0.00675221
0.00643218
-0.418608
0.418928
-0.00438654
0.00177855
-0.586985
0.589593
0.00227665
-0.00695308
-0.722198
0.726874
0.0122492
-0.0174999
-0.844511
0.849762
0.0232835
-0.0285044
-0.969385
0.974606
0.0342151
-0.0389637
-1.10977
1.11452
0.0438665
-0.0477772
-1.26638
1.27029
0.0511156
-0.0531123
-1.44035
1.44235
0.0538212
-0.0529599
-1.63321
1.63235
0.050231
-0.0461226
-1.55432
1.55022
0.0414137
-0.0357034
-1.25344
1.24773
0.0304201
-0.0240616
-1.02263
1.01627
0.0182571
-0.0124309
-0.811178
0.805352
0.0071756
-0.00196582
-0.566388
0.561179
-0.0011972
0.00260513
-0.311235
0.309827
-0.00236131
0.00158509
-0.125656
0.126432
-0.000869889
0.000209903
-0.0272417
0.0279017
3.08211e-05
-0.00010688
0.00744484
-0.00736878
5.95981e-05
0.0047909
-0.0048505
-0.0773994
0.0756765
0.00172284
-0.00596476
0.00603313
-0.42305
0.422981
-0.00443963
0.00252671
-0.595088
0.597001
0.00120954
-0.00541236
-0.731561
0.735764
0.0103893
-0.0148702
-0.854598
0.859079
0.019899
-0.0244687
-0.979767
0.984337
0.0297984
-0.0340213
-1.11926
1.12348
0.0382559
-0.0418094
-1.27396
1.27751
0.0450858
-0.0466888
-1.44428
1.44588
0.0471302
-0.0458547
-1.63098
1.6297
0.0431322
-0.0384897
-1.54576
1.54112
0.0337122
-0.0279082
-1.24171
1.2359
0.0222464
-0.0158298
-1.00939
1.00298
0.00981255
-0.00368563
-0.796765
0.790638
-0.00072385
0.00483461
-0.553624
0.549513
-0.00707609
0.00721839
-0.30584
0.305697
-0.00617266
0.00466423
-0.125908
0.127416
-0.00321382
0.0017964
-0.0281965
0.0296139
-0.000908845
0.000294974
0.0073512
-0.00673733
-4.31851e-05
0.00498861
-0.00494543
-0.0766394
0.0752641
0.00137525
-0.00495176
0.00518864
-0.426428
0.426191
-0.0038403
0.00204726
-0.602039
0.603832
0.00148949
-0.00519807
-0.739895
0.743604
0.00941619
-0.0136903
-0.863482
0.867756
0.0182754
-0.0229131
-0.988681
0.993318
0.0274188
-0.0313616
-1.12776
1.1317
0.0356024
-0.0387746
-1.28089
1.28406
0.041392
-0.0432173
-1.44732
1.44915
0.0435789
-0.0422966
-1.62839
1.6271
0.0394081
-0.0349739
-1.53656
1.53213
0.030171
-0.0243152
-1.22966
1.2238
0.0187012
-0.0122485
-0.99607
0.989617
0.00626863
-0.000268193
-0.782848
0.776847
-0.004049
0.00753012
-0.54278
0.539299
-0.00935878
0.00934404
-0.302769
0.302784
-0.00806231
0.00620066
-0.127613
0.129475
-0.00452289
0.00276593
-0.0305863
0.0323432
-0.00151956
0.000587284
0.00616999
-0.00523771
-0.000127226
0.00490919
-0.00478197
-0.0763979
0.0752387
0.00115923
-0.00371239
0.00374411
-0.429346
0.429315
-0.00271701
0.000980099
-0.608326
0.610062
0.00237378
-0.00591369
-0.747544
0.751084
0.00991557
-0.0137354
-0.871786
0.875606
0.0183786
-0.0221599
-0.997342
1.00112
0.0265571
-0.0302362
-1.13576
1.13944
0.0342579
-0.0375165
-1.28716
1.29042
0.040278
-0.0417261
-1.45066
1.45211
0.0422273
-0.0411228
-1.62567
1.62456
0.0386285
-0.0342362
-1.52749
1.5231
0.0296404
-0.0239473
-1.21799
1.2123
0.0185128
-0.0121591
-0.982736
0.976382
0.0064287
-0.000420241
-0.769436
0.763428
-0.00390659
0.00721865
-0.533064
0.529752
-0.00908386
0.00929927
-0.300333
0.300117
-0.00839416
0.00675222
-0.129831
0.131472
-0.00513939
0.0033069
-0.033577
0.0354095
-0.00191123
0.000805749
0.00437031
-0.00326483
-0.000206267
0.00463707
-0.0044308
-0.0764306
0.0756063
0.000824267
-0.00257205
0.00215602
-0.432284
0.4327
-0.00129141
-0.000504155
-0.613801
0.615596
0.00351359
-0.00688108
-0.754611
0.757978
0.0106756
-0.014586
-0.879256
0.883167
0.0185582
-0.0224511
-1.00508
1.00897
0.0267489
-0.0301545
-1.14351
1.14691
0.0341855
-0.0373113
-1.29343
1.29655
0.0400226
-0.0418881
-1.45392
1.45578
0.0427297
-0.0417454
-1.62344
1.62245
0.0393263
-0.0354863
-1.51884
1.515
0.0313013
-0.0258515
-1.20646
1.20101
0.0205786
-0.0147093
-0.969853
0.963984
0.00884823
-0.00318058
-0.756291
0.750623
-0.0013943
0.0048748
-0.523821
0.52034
-0.00668887
0.0074688
-0.297559
0.296779
-0.00712463
0.00607369
-0.13164
0.132691
-0.00477409
0.00320798
-0.0365417
0.0381079
-0.00192843
0.000871428
0.00229242
-0.00123542
-0.000241194
0.00421552
-0.00397432
-0.0768823
0.0762269
0.000655491
-0.00160296
0.00126705
-0.435404
0.43574
3.11674e-05
-0.00186689
-0.619242
0.621077
0.00499122
-0.00819277
-0.761104
0.764305
0.0118045
-0.0152786
-0.886713
0.890188
0.0193384
-0.0228763
-1.01284
1.01638
0.0270776
-0.0308748
-1.15074
1.15454
0.0344822
-0.0378777
-1.29968
1.30308
0.0409331
-0.0428049
-1.4575
1.45937
0.0439119
-0.0436022
-1.62165
1.62134
0.0415185
-0.0382077
-1.511
1.50769
0.0341696
-0.0291477
-1.19561
1.19059
0.0242957
-0.0186095
-0.957662
0.951975
0.0131508
-0.00754879
-0.743736
0.738134
0.00286438
0.00110564
-0.514392
0.510422
-0.00333299
0.00457148
-0.293967
0.292728
-0.00492567
0.0045002
-0.132385
0.132811
-0.00372719
0.00263908
-0.0388928
0.0399809
-0.00165025
0.0008007
0.000348053
0.0005015
-0.000239884
0.00375513
-0.00351525
-0.0776234
0.0771504
0.00047302
-0.000542088
0.000100978
-0.43869
0.439131
0.00129914
-0.00336467
-0.624425
0.626491
0.00637084
-0.00939276
-0.767306
0.770328
0.0130721
-0.0163698
-0.893614
0.896912
0.0202432
-0.0238785
-1.02038
1.02401
0.0279491
-0.0316775
-1.15816
1.16188
0.0354665
-0.0388437
-1.30635
1.30973
0.0420299
-0.0445944
-1.46149
1.46405
0.0460683
-0.0459732
-1.62092
1.62082
0.0445063
-0.0414507
-1.50425
1.50119
0.0379385
-0.0334713
-1.18554
1.18107
0.0287285
-0.0233534
-0.946017
0.940642
0.0181447
-0.0125192
-0.731587
0.725962
0.007848
-0.00338961
-0.504743
0.500284
0.000672921
0.00126624