/*--------------------------------*- C++ -*----------------------------------*\
| =========                 |                                                 |
| \\      /  F ield         | OpenFOAM: The Open Source CFD Toolbox           |
|  \\    /   O peration     | Version:  4.0                                   |
|   \\  /    A nd           | Web:      www.OpenFOAM.org                      |
|    \\/     M anipulation  |                                                 |
\*---------------------------------------------------------------------------*/
FoamFile
{
    version     2.0;
    format      ascii;
    class       volScalarField;
    location    "10";
    object      p;
}
// * * * * * * * * * * * * * * * * * * * * * * * * * * * * * * * * * * * * * //

dimensions      [0 2 -2 0 0 0 0];

internalField   nonuniform List<scalar> 
918
(
0.214676
0.916302
0.0070985
0.213528
0.000928914
0.883425
-0.831813
0.401061
0.193989
-0.130435
0.0209144
0.184788
0.744489
0.512042
-1.46021
0.0157293
0.353978
-0.637169
0.191663
0.00626282
0.498265
0.201106
0.204597
0.195724
0.248811
0.513789
0.624817
-0.000598444
-0.00180071
-0.000251949
0.000973985
-0.00154875
0.00625953
0.767072
0.818111
0.840713
0.162563
0.0833317
-0.678663
-0.769642
-0.705692
-0.851748
0.386127
0.393912
-0.50273
0.398875
0.411062
0.184939
0.193579
0.194437
0.195888
0.194521
0.196514
0.304771
-0.138795
-0.206319
-0.0847934
-0.063223
0.0874668
0.0215231
0.0165073
0.0234494
0.0254075
0.125431
0.181924
0.181353
0.188379
0.198551
0.855827
0.82775
0.853797
0.767741
0.78405
0.722498
0.69483
0.532132
0.553292
0.497494
0.488123
-1.88584
-2.83101
-0.869186
-0.609999
0.0011808
0.0224667
0.0317192
0.33451
0.341912
0.347177
0.362377
0.80732
-0.569085
-0.756871
0.191773
0.189199
0.200585
0.201447
0.197412
0.196686
0.0141899
0.0171305
-0.00595915
0.00444707
0.00228228
0.461903
0.457164
0.196273
0.192449
0.205995
0.229536
0.214622
-0.032677
0.261924
0.294376
0.298662
0.486719
0.488412
0.494387
0.598538
0.56056
0.662444
0.686166
0.00701639
0.00207696
0.0143308
0.010008
0.0129238
0.162334
0.157507
0.177452
0.166218
0.168377
0.00770309
-0.138872
0.172742
0.148968
-0.601284
-0.67823
-0.661996
-0.724962
-0.827459
0.250787
0.377164
0.382977
-0.509432
-0.420323
-0.581221
-0.357192
-0.43492
0.168454
0.179227
0.173205
0.190134
0.187264
0.187204
0.197556
0.194753
0.196285
0.339861
0.414133
0.260969
0.235207
-0.389185
-0.247314
-0.397721
-0.0278943
-0.0205866
0.0986835
0.113813
0.081718
0.0739086
-0.0082815
0.00812102
-0.00354808
0.0267006
0.0289984
0.117753
0.108199
0.134481
0.140489
0.175364
0.174362
0.179396
0.17593
0.645678
0.668266
0.675647
0.649349
-3.81202
-6.57868
-0.282826
-0.136159
0.00148714
0.00278562
0.00109418
0.00241889
0.00266772
0.00178089
0.046311
0.0414896
0.0359553
0.0379783
0.322085
0.326828
0.799199
0.859679
0.724621
0.706325
0.179666
0.183107
0.187231
0.18244
0.0249578
0.0195802
0.0241284
0.410411
0.434373
0.4321
-0.0711708
-0.159333
0.0151227
0.040023
0.311309
0.295385
0.315895
0.365351
0.403235
0.69322
0.711278
0.709916
0.717642
0.76166
0.777947
0.743313
0.145058
0.153101
0.149649
0.178375
0.17836
0.176421
0.172562
0.174926
0.173474
-0.29951
-0.690118
-0.133556
-0.0328642
0.156258
0.0800705
0.367054
0.520243
0.356232
0.368869
0.375632
-0.28927
-0.364012
0.205829
0.182919
0.0659005
0.0955864
0.0797685
0.61689
0.577722
0.6273
0.601026
0.563012
0.588966
-0.654939
-2.15853
-1.27851
0.236825
0.0360205
0.130868
0.0656081
0.0513631
0.0561261
0.817243
0.846711
0.456997
0.597397
0.566992
0.447848
0.481192
0.532831
0.454377
0.491164
0.530535
0.513588
0.0175393
-0.175478
-0.0919563
0.598648
0.775305
-0.180921
-0.229018
-0.291563
0.122528
0.156553
0.140572
0.825786
0.765698
0.833702
0.192472
0.193285
0.00807889
0.0124971
0.196065
0.196149
0.00681652
0.0108847
0.103552
-1.16692
-0.195791
0.184709
0.176226
0.192401
-0.0943315
0.302989
0.0262908
0.0958228
0.0615707
0.181465
0.133194
0.097097
0.00730241
0.0228022
0.0140472
-0.408677
0.188865
0.18757
0.191508
0.19358
0.193414
0.00810238
0.00840383
0.0048648
0.0120847
0.0072133
0.00701948
0.161013
0.173479
-0.535396
0.192104
0.193862
0.193682
0.186929
0.192693
0.190307
0.0183858
0.0121084
0.0155906
-0.0770499
0.0358403
0.373633
0.505163
0.301942
0.0764348
-0.171285
0.268087
0.339688
0.230156
0.40969
0.357158
0.38399
-0.140179
-0.279846
-0.11854
-0.174192
0.183013
0.182731
0.177032
0.169142
0.187325
0.185972
0.190266
0.186735
0.189942
0.191466
-0.0522169
-0.0600649
-0.114215
-0.193101
0.318578
0.414627
0.245461
0.245303
0.146027
0.0268633
0.0266668
0.0253926
0.0141252
0.0697728
0.0671741
0.0782887
0.0786633
0.0521562
0.0498717
0.0659889
0.0629435
0.0685553
0.177063
0.177088
0.181297
0.187959
0.139266
0.144415
0.114243
0.132629
0.120572
0.0668027
0.0957453
0.0749659
0.00767191
0.00912334
0.00534979
0.0278515
0.033453
0.01449
0.0115595
0.0135621
0.00983518
0.0103499
0.0178731
0.022733
-0.379035
-0.511406
0.797583
0.651356
0.32602
0.180074
0.184878
0.182114
0.18759
0.18947
0.190518
0.188286
0.186419
0.173658
0.17513
0.171995
0.171679
-0.51505
-0.562878
-0.421248
-0.463667
-0.108742
0.293359
0.0460475
-0.014678
-0.021554
0.191888
0.497305
0.357423
0.460659
0.483408
-0.685556
-0.30577
-0.620839
-0.0450187
-0.208426
0.376907
0.433307
0.458535
0.402117
0.346241
-0.39104
0.202805
-0.383212
-0.342051
-0.158343
-0.2538
0.402391
0.341552
0.350414
0.371822
0.388881
0.345459
0.324738
0.321529
0.362354
0.365713
0.161296
-0.0431785
-0.0925339
-0.125952
0.326472
0.201923
0.261224
0.178936
0.17645
0.180526
0.177519
0.164356
0.171584
0.167709
0.170951
0.173126
0.183403
0.182089
0.178176
0.18059
-0.0376404
-0.024599
-0.0703762
-0.276211
-0.221115
-0.298368
-0.130335
0.117649
0.104448
0.365827
0.370068
0.0669096
-0.162263
-0.105571
-0.150017
0.145361
0.0995107
0.112617
0.160724
0.18204
0.150774
0.212224
0.195872
0.0438664
0.0582834
0.0353054
0.0351522
0.10182
0.124028
0.122703
0.0512535
0.0496758
0.0287986
0.0275556
0.0792617
0.0460896
0.0630532
0.0690849
0.0239484
0.0278531
0.0315037
0.0450845
0.0440561
0.0468776
0.172712
0.173531
0.17341
0.185677
0.197349
0.209209
0.178238
0.157836
0.150289
0.153466
0.13268
0.141061
0.139633
0.146733
0.163414
0.170791
0.169375
0.17087
0.156957
0.159683
0.149334
0.150774
0.134671
0.116187
0.10425
0.0178095
0.0135552
0.0149101
0.0135857
0.011151
0.0110172
0.0456351
0.0357085
0.0418499
0.0374807
0.0414521
0.0179977
0.0204719
-0.275209
-0.14983
-0.51756
-0.472372
-0.557094
0.724093
0.787648
0.64348
0.497898
0.539572
0.673532
0.752132
0.446169
0.536172
0.532822
0.123936
0.740709
0.184925
0.18535
0.181176
0.179559
0.181946
-0.427464
-0.332584
-0.260925
-0.190769
-0.00122937
0.127922
-0.440206
-0.318428
-0.186604
-0.273162
0.28647
0.302812
0.250228
0.276444
0.278577
0.114563
0.17648
0.232921
0.192903
0.230941
0.25262
0.216109
0.244073
0.19274
0.154318
0.155525
0.100989
0.121344
0.100449
0.0793527
0.171123
0.152917
0.161403
0.156547
0.173763
0.202158
0.193503
0.21422
0.234224
0.161819
0.12866
0.13703
0.1613
0.124818
0.136675
0.151201
-0.114249
-0.0906637
-0.0640559
-0.368954
-0.257403
-0.294277
-0.329302
-0.289042
0.0170095
-0.70096
-0.680787
-1.30892
0.164269
0.546606
0.350584
0.31275
0.386042
0.362455
0.362196
0.398613
0.409196
0.316892
0.335888
0.337088
0.292281
0.312465
0.341853
0.341739
0.187102
0.054291
0.0346681
0.00938327
-0.114345
-0.0833397
0.121058
0.0430655
-0.0243282
-0.0191581
0.140467
0.0431696
0.110117
0.133614
0.0700257
0.0323895
0.2234
0.281438
0.272993
0.255873
0.173477
0.181299
0.211039
0.244388
0.268828
0.299198
0.171973
0.178787
0.178616
0.177013
0.17474
0.17586
0.17509
0.176761
0.179089
0.180607
0.179136
0.0143824
0.0259648
-0.0063999
0.000205408
0.0113767
-0.0135832
0.0420564
0.00448609
0.040122
0.0392764
0.0058692
-0.0131681
0.0019194
0.0228984
0.172178
0.201637
0.182324
0.134761
0.241519
0.393551
0.440541
0.379912
0.203926
0.224719
0.281233
0.0918321
0.0956348
0.0859871
0.105331
0.102201
0.0320587
0.0342842
0.0366379
0.0428895
0.0414605
0.0321839
0.0243146
0.025756
0.0299709
0.0281309
0.0260752
0.160851
0.156162
0.156467
0.151224
0.149233
0.162047
0.164325
0.166283
0.170121
0.171084
0.164939
0.168263
0.170243
0.0321498
0.0261885
0.0283865
0.0259133
0.0267341
0.021696
0.0209643
-0.265575
-0.110931
-0.0161883
-0.310911
-0.408158
-0.315857
-0.110464
-0.070595
-0.268636
0.60869
0.324343
0.147848
0.276743
0.444874
-0.0235587
0.279905
0.0481135
0.727725
0.619535
0.76378
0.385463
-0.087744
0.103912
0.119938
-0.0621718
0.0418208
-0.0303215
-0.131088
-0.0981843
-0.0838175
0.0183217
-0.0821409
-0.0583695
-0.379711
-0.517297
-0.0814553
-0.180756
0.0992778
0.100796
-0.494345
-0.324644
-0.392971
0.279265
0.297192
0.314309
0.286359
0.31063
0.238782
0.230533
0.249278
0.258315
0.248912
-1.03962
-0.736541
-1.71888
-1.07309
-0.617583
0.21139
0.185069
0.376842
0.28691
0.362237
0.348134
0.317145
0.286246
0.286566
0.320977
0.0367478
0.141162
0.114945
0.126317
0.0363299
-0.025326
0.256655
0.248421
0.286433
0.308932
0.270042
0.308233
0.170902
0.170185
0.168106
0.16657
0.163537
0.165139
0.102332
0.076729
0.123571
0.105544
0.0651106
0.0550783
0.0399314
0.0339474
0.0317467
0.0315508
0.0352737
0.0405195
-0.601972
-0.504802
-0.469753
-0.468001
-0.462815
-0.478245
-0.469546
-0.616172
-0.641114
-0.510627
0.284553
0.630608
0.465339
0.657397
0.413673
0.514488
-0.269803
-0.0524808
-0.153765
-0.112382
-0.118696
-0.0485543
-0.550052
-0.473917
0.371336
0.411572
0.258003
0.0692854
-0.194088
-0.0372377
0.208385
0.143304
0.185705
0.25095
0.24677
-0.287378
-0.234565
0.0964752
0.316848
0.0339943
-0.065652
-0.0287151
0.130467
0.0740512
)
;

boundaryField
{
    wall-4
    {
        type            zeroGradient;
    }
    velocity-inlet-5
    {
        type            zeroGradient;
    }
    velocity-inlet-6
    {
        type            zeroGradient;
    }
    pressure-outlet-7
    {
        type            fixedValue;
        value           uniform 0;
    }
    wall-8
    {
        type            zeroGradient;
    }
    frontAndBackPlanes
    {
        type            empty;
    }
}


// ************************************************************************* //
