/*--------------------------------*- C++ -*----------------------------------*\
| =========                 |                                                 |
| \\      /  F ield         | OpenFOAM: The Open Source CFD Toolbox           |
|  \\    /   O peration     | Version:  4.0                                   |
|   \\  /    A nd           | Web:      www.OpenFOAM.org                      |
|    \\/     M anipulation  |                                                 |
\*---------------------------------------------------------------------------*/
FoamFile
{
    version     2.0;
    format      ascii;
    class       volVectorField;
    location    "10";
    object      U;
}
// * * * * * * * * * * * * * * * * * * * * * * * * * * * * * * * * * * * * * //

dimensions      [0 1 -1 0 0 0 0];

internalField   nonuniform List<vector> 
918
(
(0.985089 -0.00108402 0)
(0.00495161 2.96629 0)
(-0.00589183 1.67437 0)
(0.979502 0.00248967 0)
(-0.00178211 1.64832 2.3018e-22)
(-0.00700394 2.94876 -1.87606e-18)
(0.87134 1.15472 7.37094e-19)
(0.518828 0.262579 -8.75223e-21)
(0.999828 -0.000282183 0)
(0.0506501 1.47238 0)
(-0.00921897 1.50321 0)
(0.865247 -0.00227383 0)
(0.0113262 2.92992 0)
(0.00129233 2.7951 0)
(-0.0203525 3.16457 1.09073e-18)
(-0.000223037 1.57149 -1.77561e-20)
(0.622524 0.118003 5.42866e-19)
(0.23576 1.60927 5.15093e-19)
(0.96646 0.0104476 0)
(0.00139153 1.56168 0)
(0.204569 0.304799 -4.89267e-19)
(1.00163 -0.00493678 0)
(0.999955 -0.00987068 0)
(0.975568 -0.00570705 0)
(0.781947 -0.0283249 0)
(0.0223089 2.62432 0)
(-0.0153898 2.91015 6.49165e-19)
(-0.00839588 1.69463 0)
(-0.0103024 1.76753 0)
(-0.0108239 1.69377 0)
(0.00381324 1.79907 0)
(0.00211698 1.66451 -1.82283e-22)
(0.00209709 1.5817 0)
(-0.0206241 2.98757 -6.56437e-23)
(-0.0167299 3.00532 1.45839e-18)
(0.00212252 3.00022 0)
(0.902422 -0.000450676 0)
(0.370524 0.953164 2.0902e-20)
(0.836235 1.2013 -1.05002e-18)
(0.98062 1.03658 9.75487e-19)
(0.680734 1.31277 -1.63654e-19)
(0.726316 1.2655 9.31933e-19)
(0.561238 0.320816 8.53949e-21)
(0.555573 0.224085 0)
(1.19873 0.571298 0)
(0.508436 0.336977 3.95975e-20)
(0.47735 0.25007 -4.10893e-20)
(0.910889 -0.00479512 0)
(1.00007 0.00021784 0)
(0.999965 0.000184179 0)
(1.00474 -0.00769992 0)
(1.00066 -0.000802596 0)
(1.0001 -0.00018352 0)
(0.0255325 1.57131 -5.81146e-19)
(0.0292246 1.60689 0)
(0.0863472 1.50189 0)
(0.0123886 1.61235 0)
(0.0300388 1.44807 0)
(-0.00579861 1.60601 0)
(-0.0136663 1.60474 0)
(-0.00872029 1.48482 0)
(-0.0154024 1.63206 0)
(-0.00978693 1.52089 0)
(0.928735 0.00323462 0)
(0.923265 0.00337552 0)
(0.871092 -0.00244886 0)
(0.918786 0.0102153 0)
(0.844651 0.00755793 0)
(0.0147537 3.00038 6.86863e-19)
(0.0116082 3.00795 0)
(0.00615265 3.00296 0)
(0.0136626 2.99735 7.6658e-24)
(0.00802906 2.95831 -1.02085e-18)
(0.0146226 2.98169 0)
(0.010919 2.90335 0)
(0.024929 2.93017 1.37868e-24)
(0.00380723 2.82551 0)
(0.0322725 2.91543 0)
(-0.0065003 2.74393 0)
(0.298871 3.54948 0)
(-0.132303 3.62967 0)
(0.13235 3.25374 -1.01507e-18)
(-0.0144356 2.99378 0)
(0.0115875 1.76607 0)
(-0.00173616 1.66179 1.75179e-20)
(-0.000703514 1.57393 -3.08203e-20)
(0.683085 0.164529 -1.8638e-19)
(0.647114 0.0745759 -1.80107e-19)
(0.654654 0.195404 -5.60594e-19)
(0.614787 0.136232 -3.7638e-19)
(0.242225 1.2796 0)
(0.217758 1.6243 -5.4688e-19)
(0.390424 1.51869 9.17428e-19)
(0.986688 0.012866 0)
(0.941351 0.0115359 0)
(1.00045 0.000563966 0)
(1.0025 0.00953014 0)
(1.00226 0.00959897 -9.9037e-19)
(0.991929 0.0090248 7.56337e-19)
(-0.00127135 1.65318 0)
(0.00276886 1.56513 0)
(-0.0106923 1.70881 0)
(-0.00649989 1.66783 0)
(0.000536866 1.56898 0)
(0.293805 0.318539 1.48748e-19)
(0.338399 0.271669 0)
(0.993407 -0.00803749 0)
(0.957148 -0.00512447 0)
(0.888857 0.0246532 0)
(0.857186 0.0204268 0)
(0.819204 -0.00432727 0)
(1.04149 0.00202076 0)
(0.816722 0.0231956 0)
(0.724561 -0.0131929 7.27645e-19)
(-0.0342565 2.868 3.21119e-19)
(0.0438724 2.90783 0)
(0.0579094 2.88241 0)
(-0.00454508 2.69461 0)
(-0.0127834 2.98512 5.96498e-19)
(-0.0182406 2.89556 0)
(-0.0154521 2.98803 -1.88781e-18)
(-0.013473 2.92493 6.52612e-19)
(-0.00628084 1.79949 0)
(-0.00158405 1.79142 0)
(0.000463634 1.66906 -4.45029e-22)
(0.000676469 1.66108 0)
(0.000212641 1.57098 0)
(0.953609 0.00366299 0)
(0.903906 0.00486058 0)
(0.880203 -0.00786814 0)
(0.951266 -0.00225975 0)
(0.896543 -0.0032478 0)
(0.502869 1.13305 -3.45963e-20)
(0.554088 1.18377 0)
(0.289564 0.873174 1.14041e-20)
(0.251273 0.730708 0)
(0.946205 1.07811 -2.82306e-19)
(1.07102 0.884602 5.86234e-19)
(0.356923 1.52886 0)
(0.516706 1.41992 0)
(0.565797 1.37652 0)
(0.11658 0.0590079 -1.42456e-19)
(0.592712 0.292414 0)
(0.584048 0.210151 1.09117e-19)
(1.04368 0.934968 0)
(1.11713 0.783533 0)
(1.14169 0.732632 -5.09821e-19)
(1.18138 0.626377 0)
(1.23453 0.417457 6.31052e-20)
(0.950329 0.000438281 0)
(0.950908 -0.00395157 0)
(0.900724 -0.00034456 0)
(0.985248 -0.00897509 0)
(0.96733 -0.00685821 0)
(0.935304 -0.00509417 0)
(1.00004 0.00218747 0)
(1.00094 0.00174804 0)
(0.999814 0.000836273 0)
(0.0176476 1.64331 3.16092e-19)
(0.0592247 1.54451 0)
(0.000236227 1.66995 5.13481e-19)
(0.00999214 1.57093 -4.38526e-19)
(0.06999 1.63748 -4.29725e-19)
(0.0338669 1.64065 0)
(0.125021 1.56995 0)
(0.00644782 1.59694 0)
(0.018906 1.43955 0)
(-0.00697739 1.68862 -1.32016e-21)
(0.00368357 1.61551 0)
(-0.00939869 1.68822 -6.75398e-20)
(-0.00500181 1.60078 1.27783e-19)
(-0.00502741 1.5933 0)
(-0.01629 1.59747 0)
(-0.00202546 1.45542 0)
(-0.0131662 1.64708 0)
(-0.00664754 1.53643 0)
(0.988489 0.0124561 0)
(0.946185 0.0032006 0)
(0.973824 0.00652001 0)
(0.922327 0.00283268 0)
(0.880081 -0.00183356 0)
(0.941692 0.00598943 0)
(0.933914 0.00383456 0)
(0.875259 0.00393958 0)
(0.00577033 3.0649 -6.0468e-21)
(0.0159633 3.05796 0)
(0.014601 2.96892 0)
(0.00840673 2.87624 0)
(0.91307 3.95415 0)
(1.22597 3.283 9.94373e-19)
(0.0692382 3.08751 0)
(-0.0266485 2.9141 0)
(0.00170154 1.78671 0)
(0.0102618 1.76582 0)
(0.00809906 1.76809 0)
(0.003977 1.78538 4.08621e-21)
(0.0138279 1.76957 0)
(0.00794721 1.7795 0)
(-0.000806049 1.58197 4.31503e-21)
(-0.00300474 1.67874 3.81488e-20)
(-0.00128251 1.6692 3.14794e-20)
(-0.00246888 1.57511 0)
(0.703397 0.126437 2.73655e-19)
(0.667063 0.0525994 -2.64922e-19)
(0.210484 1.36983 0)
(0.316218 1.12799 -2.71548e-19)
(0.13895 1.45919 -7.86316e-19)
(0.173159 1.35916 7.85572e-19)
(0.891517 0.00847936 0)
(0.961938 0.013399 0)
(0.974726 0.0148152 0)
(0.918304 0.0134258 0)
(-0.00749127 1.65532 0)
(-0.00191831 1.65786 0)
(0.000973914 1.55347 0)
(0.464472 0.352437 3.61466e-19)
(0.402055 0.336904 -4.47103e-19)
(0.403995 0.25157 0)
(1.16191 0.0842559 -5.20059e-21)
(1.14848 0.0372585 0)
(1.07284 0.0382083 0)
(0.988522 0.00407331 0)
(0.732697 0.103477 0)
(0.768322 0.0577365 -1.16583e-18)
(0.699649 0.0306468 4.46692e-19)
(0.0102953 2.98271 4.16188e-19)
(-0.032284 2.86837 4.85443e-20)
(0.00365361 3.05059 -1.30645e-20)
(0.0198147 3.04338 4.68731e-19)
(-0.0150214 2.99667 2.16933e-20)
(-0.0130759 2.94947 -8.76174e-23)
(-0.0174049 3.012 -4.10508e-19)
(0.0150053 3.02364 2.98156e-19)
(0.0074682 3.03724 -4.66459e-19)
(0.970589 0.00502848 0)
(0.964614 0.00627802 0)
(0.911579 0.00512172 0)
(0.949166 0.0102504 0)
(0.941289 0.000132278 0)
(0.878573 0.002809 0)
(0.945117 -0.0015798 0)
(0.938074 -0.00399289 0)
(0.884723 -0.00868671 0)
(0.717128 1.40141 2.71594e-19)
(0.747968 1.50777 0)
(0.124567 0.0882858 -2.17634e-20)
(0.0739446 0.451547 -1.17856e-19)
(0.14214 0.625525 -7.3383e-20)
(0.195352 0.426052 1.49258e-19)
(0.427445 0.670501 9.07982e-19)
(0.20575 0.285454 3.06839e-19)
(0.646019 0.229345 4.08332e-19)
(0.622077 0.266916 9.94831e-20)
(0.602488 0.176031 2.09643e-19)
(1.22431 0.467407 3.07119e-19)
(1.24664 0.261727 3.2505e-19)
(-0.00587179 1.66975 2.04905e-19)
(0.00998402 1.57736 0)
(1.02507 0.0215818 0)
(1.00206 0.0105302 0)
(0.960563 -0.00306132 0)
(0.0108433 3.07497 0)
(0.0200425 2.94394 8.0699e-19)
(0.0165187 2.95647 0)
(0.00600545 2.85082 -8.0072e-19)
(0.00601176 3.09095 1.91329e-19)
(0.00744116 3.08208 0)
(0.782302 1.80586 -2.27136e-19)
(1.23238 2.47932 6.19645e-19)
(0.761569 1.94465 -1.44401e-18)
(0.0215658 2.98739 -2.97924e-19)
(0.0364488 3.01198 0)
(-0.0305861 2.88532 0)
(-0.00509074 1.67419 -7.44275e-21)
(-0.00264232 1.67931 -8.95683e-20)
(-0.000101058 1.58988 -6.14192e-21)
(0.273551 1.2474 8.33752e-19)
(0.340237 0.984852 -5.63541e-19)
(0.0410488 1.60093 5.28401e-19)
(0.0786895 1.54004 -6.46781e-19)
(0.103968 1.45599 7.64079e-20)
(0.00271554 3.11882 -1.12529e-18)
(0.0142168 3.11867 1.21436e-18)
(-0.00819145 2.98142 5.15039e-19)
(-0.00297879 2.97825 -4.52518e-19)
(-0.0212657 2.88256 -5.24551e-19)
(0.00869791 3.10018 -1.40286e-18)
(0.00250104 3.1049 1.37621e-18)
(0.391059 0.505765 0)
(0.232661 0.427314 4.14548e-19)
(0.0641443 -0.0412027 -1.37917e-19)
(0.443085 0.831147 9.17386e-19)
(0.322979 0.538966 -1.38131e-18)
(1.24206 0.172714 -6.12088e-20)
(1.24467 0.313731 0)
(1.23099 0.122729 1.29185e-19)
(0.00548781 1.68592 -1.69238e-21)
(0.00230805 1.66967 0)
(0.0106498 1.59443 0)
(0.303416 1.11126 -2.9207e-19)
(0.338723 0.988577 -6.46966e-19)
(0.34359 0.806325 1.16444e-18)
(1.00546 -0.00931529 0)
(1.00652 -0.00644615 1.83468e-19)
(-0.00467516 1.79758 0)
(-0.00854149 1.80231 0)
(1.00253 0.00344473 1.53076e-21)
(1.00169 0.00957529 3.71275e-19)
(0.00377089 1.78642 -5.22615e-21)
(0.00233883 1.78664 0)
(0.042024 3.1862 9.02056e-20)
(0.384454 3.49636 0)
(1.10423 0.643697 7.29926e-20)
(1.01349 0.0136068 -2.0933e-21)
(1.00727 -0.0168866 0)
(1.0019 5.10049e-05 3.17106e-22)
(0.0160218 1.78882 0)
(0.0372141 1.79149 0)
(-0.0211534 1.78862 0)
(0.00455609 1.79325 9.00452e-20)
(-0.00229737 1.79699 4.4719e-20)
(0.999763 0.010207 2.2085e-21)
(1.04453 0.0126946 0)
(1.07379 0.0238866 0)
(0.00582949 1.77266 0)
(0.00149263 1.78817 0)
(-0.00340935 1.79595 0)
(0.050778 1.68565 -3.49306e-19)
(1.01212 -0.0119666 0)
(1.0083 -0.0217076 0)
(1.00477 0.000566585 2.29308e-19)
(1.00401 -0.00468209 -2.73404e-19)
(1.00178 -0.00315202 0)
(-0.00328103 1.78127 0)
(-0.00122817 1.79511 0)
(-0.00123088 1.7892 0)
(-0.00396377 1.79695 0)
(-0.00444039 1.79359 0)
(-0.00502166 1.79614 0)
(1.02535 0.00888976 0)
(1.02085 -0.000551592 -8.79505e-22)
(0.747072 1.19314 5.33646e-19)
(1.00229 0.00150694 -2.3049e-19)
(1.00382 0.00569663 2.72895e-19)
(1.00125 0.00225315 0)
(1.01138 0.0110924 2.22389e-19)
(1.00706 0.0125965 -2.76545e-19)
(1.00149 0.0143058 0)
(0.00299434 1.78886 0)
(0.00300489 1.78686 1.57159e-20)
(0.00379304 1.78628 -1.20005e-20)
(1.16878 0.254647 -8.89419e-20)
(1.10743 0.0830991 0)
(0.0673229 3.08108 -5.11739e-19)
(0.0698853 2.851 -4.22667e-20)
(0.148676 3.20787 7.327e-19)
(0.139335 3.23612 9.89491e-21)
(0.143018 3.25005 0)
(0.0239726 3.13982 1.0874e-19)
(0.0828351 3.16653 5.0092e-19)
(0.0767045 3.19432 -2.11154e-19)
(0.0310738 3.12672 0)
(0.70124 0.347171 0)
(0.60464 0.40211 0)
(1.07758 0.674994 -2.72642e-19)
(1.06558 0.8052 4.17259e-19)
(1.12377 0.546488 0)
(1.16779 0.508283 0)
(1.01386 0.0146942 -4.29726e-19)
(1.01039 0.0197967 5.35765e-19)
(1.00695 -0.0113564 0)
(1.00793 -0.00382636 0)
(1.00677 0.000966541 0)
(1.01319 0.00490938 0)
(1.00495 0.00150546 0)
(1.01614 0.00919068 0)
(1.00814 0.00608204 0)
(1.00569 0.00307079 0)
(0.0111102 1.78949 0)
(0.00728042 1.79674 0)
(0.0167352 1.78921 0)
(0.014509 1.77339 0)
(0.0381112 1.79564 0)
(0.0646141 1.79995 -3.35324e-19)
(0.0143152 1.80363 0)
(0.00744802 1.79337 1.66574e-19)
(0.0198956 1.79778 -1.64699e-19)
(-0.0198436 1.79172 0)
(-0.0145022 1.79307 0)
(-0.0215567 1.78854 0)
(-0.0188379 1.79019 0)
(-0.00411361 1.79484 -5.39484e-20)
(-0.00591995 1.79726 6.4612e-20)
(-0.00528363 1.79823 7.89475e-20)
(-0.00629413 1.79679 0)
(-0.00335871 1.79942 -1.00963e-19)
(-0.00372663 1.79701 -5.80016e-20)
(-0.00315893 1.7958 4.36841e-20)
(-0.0056024 1.79512 -8.40184e-20)
(-0.005485 1.79697 -9.7425e-20)
(1.00885 0.016132 4.08075e-19)
(1.0085 0.00551504 -5.14114e-19)
(1.0002 0.0221972 -4.22357e-19)
(0.986647 0.0207115 5.44375e-19)
(1.03817 0.0171316 0)
(1.04045 0.00812735 0)
(1.05916 0.032454 0)
(1.04437 0.0122667 0)
(1.05973 0.0118872 0)
(1.09471 0.0655325 0)
(1.07337 0.0416419 0)
(1.09624 0.0315116 0)
(0.00833459 1.77463 -1.5891e-21)
(0.00382199 1.76756 0)
(0.00738502 1.76967 0)
(-0.00438177 1.79153 1.83468e-20)
(-0.00529837 1.78989 -8.6074e-22)
(-0.00837832 1.77602 1.50599e-20)
(-0.00445097 1.78477 -1.52043e-20)
(-0.00605335 1.79425 0)
(-0.00445238 1.7947 0)
(-0.00415435 1.79377 0)
(-0.00488541 1.79539 0)
(-0.00511984 1.7955 0)
(0.117848 1.59321 6.45266e-19)
(0.222749 1.5044 2.91328e-19)
(0.43094 1.71758 -1.99094e-19)
(0.199672 1.73138 5.33748e-19)
(0.0591013 2.10788 1.33929e-19)
(1.00857 -0.0212884 0)
(1.01163 -0.0229708 0)
(1.00575 -0.0275334 0)
(1.01089 -0.00446274 0)
(1.00731 -0.0050483 0)
(1.00483 -0.00640802 0)
(1.00946 -0.0111473 0)
(1.01022 -0.0160801 0)
(1.0225 -0.000664021 3.9948e-19)
(1.02133 0.000224395 -5.11132e-19)
(1.02113 0.00224237 -3.9485e-19)
(1.01693 0.00434382 4.85359e-19)
(0.735758 1.21554 0)
(0.609046 1.24106 6.31527e-19)
(0.827324 1.14296 3.83041e-19)
(0.871724 1.09393 -5.09648e-19)
(1.1645 2.58606 -3.62748e-19)
(0.82206 0.126644 2.75267e-19)
(1.10888 0.0895528 0)
(1.15589 0.173745 7.89158e-20)
(1.1441 0.153301 3.82857e-21)
(0.963523 0.134647 0)
(0.162191 2.99414 3.87436e-20)
(0.134732 2.8863 -6.32156e-19)
(0.0622096 2.33135 4.78416e-19)
(0.134587 0.177907 -1.90426e-19)
(0.327968 3.42641 -4.54872e-19)
(0.191054 3.33058 0)
(0.232281 3.36798 5.92421e-19)
(0.247703 3.0664 -4.97669e-19)
(0.34127 3.21316 0)
(0.00886612 3.12029 2.6383e-20)
(0.0192786 3.12958 -3.41215e-19)
(0.0178376 3.12495 5.02248e-19)
(0.0404645 3.14022 0)
(0.0394592 3.15319 0)
(1.20826 2.58543 0)
(0.515473 0.840227 -2.2013e-19)
(1.00382 0.970029 -2.16614e-19)
(0.949072 0.999642 0)
(0.838296 0.897853 6.586e-20)
(1.03873 0.84783 3.25847e-20)
(0.407811 0.487732 -5.11783e-19)
(0.730675 0.342268 -2.33097e-20)
(0.740391 0.298967 2.13287e-19)
(0.606568 0.436015 1.69931e-20)
(0.570837 0.428356 -6.96404e-19)
(0.696867 0.371643 0)
(0.676621 0.426511 3.50278e-19)
(0.685587 0.424401 0)
(0.647323 0.416956 0)
(0.664873 0.361421 0)
(0.73267 0.606752 1.20713e-19)
(1.15729 0.261023 5.29058e-20)
(1.1573 0.390844 0)
(1.18379 0.361132 0)
(0.790777 0.220581 3.20881e-19)
(0.783843 0.544887 -1.78057e-19)
(0.686063 0.502433 2.84494e-19)
(0.873235 0.408127 -2.66669e-19)
(1.01971 0.00211671 2.74885e-19)
(1.01492 0.0151229 -2.78412e-19)
(1.01507 0.012507 0)
(1.02064 0.012229 0)
(1.01104 0.00701378 -2.50955e-19)
(1.0124 0.00833144 2.4811e-19)
(1.0225 0.00363029 0)
(1.02378 -0.000771814 0)
(1.01659 0.00880118 0)
(1.01954 0.0137711 0)
(1.03107 0.0023599 0)
(1.02758 0.00218382 0)
(0.00327482 1.8014 0)
(0.00617763 1.79483 0)
(0.0137184 1.79562 3.39497e-20)
(0.0355247 1.70766 1.54724e-19)
(0.0175504 1.7779 3.10452e-19)
(0.0189205 1.75188 -5.20464e-19)
(0.00492786 1.79693 0)
(0.00933712 1.81404 -9.69731e-20)
(0.0168482 1.81062 0)
(0.0895527 2.05355 -1.90834e-19)
(0.15271 1.913 5.39417e-19)
(-0.00535262 1.83265 8.73898e-20)
(-0.0295612 1.73991 7.05285e-20)
(-0.012275 1.77632 -5.66897e-20)
(-0.0751691 1.73884 7.62339e-20)
(0.00883093 1.86344 0)
(-0.00640191 1.8901 -1.65576e-20)
(0.00409043 1.80154 -4.59627e-20)
(0.00450701 1.79373 0)
(0.0035121 1.78422 1.91279e-19)
(0.00487759 1.79153 0)
(0.000478321 1.79459 -1.83396e-19)
(0.0021746 1.79377 0)
(-0.0151333 1.78715 -3.97577e-20)
(-0.00108783 1.79581 0)
(-0.00706971 1.79597 0)
(-0.0175707 1.78525 4.50568e-20)
(0.00907027 1.79453 -9.06037e-22)
(0.020274 1.79766 1.89764e-19)
(0.0185871 1.79649 1.32072e-21)
(-0.0100978 1.78409 3.41329e-20)
(-0.00972814 1.78556 2.12966e-20)
(-0.0156112 1.79513 0)
(-0.0129718 1.79641 0)
(0.0104586 1.7969 1.06235e-19)
(0.0102017 1.79661 7.02948e-20)
(0.00502781 1.79354 -1.04005e-19)
(0.0138378 1.79987 0)
(-0.00748903 1.78065 -6.25908e-20)
(-0.0060749 1.78932 2.76889e-20)
(-0.00948839 1.78838 -8.92094e-21)
(-0.00739991 1.78335 -4.25523e-20)
(-0.00654006 1.79211 -1.47014e-20)
(-0.00547093 1.79467 6.93531e-20)
(1.01626 0.00695925 -2.62251e-19)
(1.01324 0.00675397 2.73352e-19)
(1.01096 0.00488626 0)
(0.992226 0.0496284 3.90271e-19)
(0.985149 0.0306736 -4.58584e-19)
(0.961717 0.0269114 5.20362e-19)
(0.996217 0.0931547 -5.01028e-20)
(1.02556 0.00635313 0)
(1.03094 0.0105625 2.24467e-19)
(1.03233 0.00479761 -2.22591e-19)
(1.03267 0.038466 -1.24931e-20)
(1.02934 0.0231563 1.11173e-19)
(1.01211 0.0378483 0)
(1.0052 0.0343247 -4.07192e-20)
(1.00687 0.0246835 0)
(1.01181 0.0191005 0)
(1.02086 0.00493333 0)
(1.01838 0.0040127 0)
(1.01012 0.0244261 8.55761e-20)
(1.01575 0.0168959 -1.93437e-19)
(1.0131 0.0349533 -8.71758e-20)
(1.00947 0.03122 -9.90535e-20)
(1.0093 0.0361424 1.79733e-19)
(1.04544 0.0380554 0)
(1.03427 0.0859006 0)
(-0.0060253 1.77869 -2.1351e-20)
(-0.00496293 1.77072 -2.03101e-21)
(-0.00600239 1.77289 0)
(-2.50439e-05 1.78306 2.02797e-20)
(0.00153819 1.77719 3.46359e-21)
(-0.000676456 1.78168 -3.47665e-21)
(-0.00447122 1.79652 5.11122e-20)
(-0.0077039 1.79251 -3.14055e-21)
(-0.00691804 1.79178 1.48406e-20)
(-0.00565461 1.7935 -2.67459e-20)
(-0.00470294 1.79386 3.15088e-20)
(-0.0084115 1.78709 2.65873e-22)
(-0.0109381 1.77636 2.55903e-20)
(-0.0318368 1.55283 -3.06649e-19)
(-0.0937853 1.75167 -1.72407e-19)
(0.586578 1.25286 -6.07598e-19)
(0.33637 1.38524 -2.79034e-19)
(0.464332 1.35827 0)
(0.458718 1.74529 2.17215e-19)
(0.530852 1.58356 2.97863e-19)
(0.271737 1.72277 7.26561e-20)
(0.267736 1.79671 -6.32454e-19)
(0.32967 1.89001 5.73344e-19)
(0.400676 1.70973 0)
(0.335342 1.70857 -4.52349e-19)
(0.0938772 1.78079 8.94515e-19)
(0.163658 1.76027 -6.16214e-20)
(0.103346 1.77195 -1.23001e-18)
(0.895226 2.31864 2.2617e-20)
(0.714699 1.92344 0)
(1.01823 -0.0116039 9.2557e-21)
(1.01267 -0.018942 -7.349e-21)
(1.01597 -0.0152956 -1.31151e-19)
(1.03183 -0.0115183 1.3582e-19)
(1.03047 -0.0106485 0)
(0.704436 1.02202 0)
(0.786492 0.96342 0)
(0.751758 1.06654 0)
(0.734514 1.01618 0)
(1.18336 2.62971 1.23938e-20)
(1.0344 2.35221 0)
(0.982306 2.54572 -7.41285e-21)
(0.580734 2.69903 0)
(0.871297 2.76845 2.91916e-19)
(0.933928 2.74024 -1.89827e-19)
(0.833844 0.154018 0)
(0.807805 0.154388 7.98647e-20)
(0.885373 0.123695 4.04011e-19)
(0.845262 0.115131 -1.6007e-19)
(0.843412 0.0756736 -4.90478e-19)
(1.0071 0.200177 -2.38579e-19)
(0.917429 0.26357 -1.67709e-20)
(0.892975 0.255303 3.68267e-19)
(0.949494 0.167981 2.70579e-19)
(0.914538 0.15373 -5.05722e-19)
(0.898115 0.154673 6.5674e-20)
(0.93568 0.20895 -1.27809e-19)
(0.907472 0.173577 0)
(0.968992 0.148234 2.40652e-19)
(0.994634 0.155904 0)
(0.986373 0.168996 0)
(1.04339 0.104203 7.52531e-20)
(1.01244 0.152502 -1.30186e-20)
(1.00454 0.211061 -4.09602e-20)
(1.05297 0.189121 0)
(1.00367 0.0264074 1.99549e-19)
(1.00467 0.0340341 2.40152e-19)
(1.00834 0.03033 -1.97522e-19)
(1.008 0.0412046 -1.61248e-19)
(1.00023 0.0521644 -2.74284e-19)
(0.950865 0.127722 0)
(0.983982 0.0923014 0)
(0.959011 0.0383342 -1.87915e-19)
(0.91949 0.0512279 7.97085e-20)
(1.00344 0.0848932 2.29258e-19)
(1.0064 0.104878 -2.33964e-19)
(1.01667 0.139656 2.14611e-19)
(1.00824 0.129804 0)
(1.01667 0.0832856 0)
(1.00531 0.0666614 -9.74943e-20)
(1.00866 0.0741539 -1.83997e-19)
(0.924618 1.20206 -1.43834e-19)
(0.869981 1.41024 1.67067e-19)
(1.18672 2.69761 2.59934e-20)
(1.21467 3.05487 -6.17837e-20)
(1.24975 2.70317 3.99262e-19)
(1.27784 2.68025 -2.83912e-19)
(1.20582 2.33007 -2.40421e-21)
(1.20677 2.95542 1.31346e-19)
(1.2308 2.92512 -1.15133e-19)
(1.20364 3.21168 -2.5012e-19)
(1.36437 2.9366 3.38637e-19)
(1.35171 2.8605 0)
(0.502604 0.857301 -1.51361e-20)
(0.174363 1.33561 3.17134e-19)
(0.527525 0.540487 3.4053e-19)
(0.354293 0.338241 3.78029e-19)
(0.56773 0.447124 3.88805e-19)
(0.539616 0.500852 -6.18212e-19)
(0.538897 0.513826 5.06024e-19)
(0.51937 0.479638 -2.042e-19)
(0.494099 0.417809 4.75491e-19)
(0.797409 0.247925 -1.78607e-19)
(0.763445 0.28806 0)
(0.772287 0.255985 1.16571e-20)
(0.662377 0.510925 1.81383e-19)
(0.655167 0.480115 -6.66102e-19)
(0.589188 0.502364 1.79927e-20)
(0.616421 0.461831 0)
(0.614646 0.747061 1.48635e-19)
(0.79985 0.736528 3.73034e-20)
(0.741515 0.814806 -5.33539e-20)
(0.83842 0.767658 -1.14785e-20)
(0.893829 0.811403 1.66322e-20)
(0.902001 0.816233 -1.70063e-20)
(0.773096 0.629688 -2.03751e-19)
(0.864961 0.712805 1.06555e-20)
(0.939142 0.701713 0)
(0.919826 0.663872 -9.24353e-21)
(0.947943 0.293984 5.6523e-20)
(1.06502 0.263708 1.21958e-21)
(0.993114 0.23037 9.80207e-20)
(0.929828 0.332164 -1.30593e-19)
(0.980693 0.406879 0)
(1.03891 0.393823 0)
(0.837816 0.339981 1.70541e-21)
(0.850619 0.271336 0)
(0.853867 0.250238 1.88965e-19)
(0.862198 0.26042 -3.61661e-21)
(0.865753 0.409856 7.28832e-19)
(0.832675 0.475643 1.8121e-19)
(0.827265 0.435568 -2.40364e-19)
(0.755321 0.433855 2.58217e-19)
(0.74511 0.431078 1.7407e-19)
(0.725488 0.419851 -1.71034e-19)
(1.02118 0.013561 2.18901e-19)
(1.03007 0.00374299 0)
(1.03295 0.00148592 1.45295e-19)
(1.01943 0.00912753 -3.28789e-19)
(1.0306 0.00410267 1.55577e-19)
(1.02949 0.0034383 -3.28452e-19)
(1.02594 -0.000989678 0)
(1.02392 -3.82275e-05 -6.96157e-20)
(1.02971 0.00300844 1.69573e-19)
(1.02164 0.00763412 -8.81528e-20)
(1.02333 0.00598888 6.42388e-20)
(-0.00953937 1.79002 0)
(-0.007966 1.79388 0)
(0.00919213 1.79674 0)
(-0.00256932 1.79164 0)
(0.00338393 1.79997 6.4794e-21)
(0.00410005 1.79805 -2.48236e-22)
(0.00412532 1.80961 -3.11808e-20)
(-0.00160718 1.80122 -3.19245e-20)
(0.0143493 1.80252 -5.79348e-20)
(0.0104164 1.80227 4.30881e-20)
(0.0111903 1.8048 -1.52903e-20)
(0.00852326 1.81149 6.45486e-21)
(0.00828266 1.80511 1.01271e-21)
(0.00634663 1.80172 -5.65713e-21)
(0.00461167 1.78494 -2.13282e-19)
(0.014363 1.78833 0)
(0.0187972 1.78034 1.14428e-19)
(0.0163565 1.79935 7.9045e-20)
(0.0472619 1.83619 -8.517e-20)
(0.10392 1.80583 0)
(0.109738 1.80488 -6.31073e-19)
(0.138694 1.86252 4.3027e-19)
(0.0509863 1.81401 -2.22042e-19)
(0.0322934 1.7892 1.24462e-19)
(0.0233374 1.78763 0)
(0.00694802 1.7935 -1.41209e-19)
(0.00200573 1.79047 -1.7495e-19)
(0.00227425 1.79366 0)
(0.0129371 1.79864 -5.05086e-21)
(0.00824167 1.8002 6.97887e-20)
(-0.0186565 1.78682 5.72751e-21)
(-0.0181154 1.7875 -1.0104e-19)
(-0.0156208 1.78072 2.6245e-20)
(-0.0164609 1.77491 3.90391e-20)
(-0.0147037 1.78607 0)
(-0.0124923 1.78143 0)
(-0.00705164 1.79559 2.69176e-20)
(-0.00591234 1.78441 -8.62575e-21)
(-0.0110665 1.78284 0)
(-0.0114923 1.79659 2.23443e-20)
(-0.00926016 1.79651 -4.1571e-20)
(1.01842 0.0138068 0)
(1.02077 0.0126002 -2.06281e-20)
(1.01585 0.0153818 -1.54114e-19)
(1.01763 0.0216021 0)
(1.01795 0.0234497 0)
(1.01983 0.00663105 -5.01933e-21)
(1.02078 0.00672173 2.57361e-19)
(1.01846 0.00764944 3.13084e-19)
(1.01849 0.00732994 0)
(1.01755 0.00751368 0)
(1.01702 0.0125518 1.5677e-19)
(1.01615 0.00995857 0)
(1.01826 0.0101172 0)
(-0.012704 1.7806 0)
(-0.0115599 1.7733 2.62837e-21)
(-0.011577 1.77333 1.35421e-20)
(-0.00743936 1.78348 0)
(-0.0103747 1.77827 1.92639e-20)
(-0.00894013 1.78454 -8.66445e-21)
(-0.00600604 1.787 0)
(0.0393915 2.36824 0)
(-0.188745 1.81836 3.81607e-19)
(-0.103938 2.07308 0)
(-0.070853 1.60686 -6.9401e-19)
(0.147607 1.21431 0)
(0.0212502 1.47047 3.55537e-19)
(1.04032 2.85738 2.60835e-21)
(0.908483 2.48899 -3.42749e-20)
(0.887995 2.29738 -5.14019e-19)
(0.743036 2.05278 2.02869e-19)
(0.683853 2.60911 0)
(0.806304 2.65816 0)
(0.863251 2.26685 0)
(0.860104 2.04782 -6.09786e-19)
(0.279416 2.6217 -1.84236e-19)
(0.505061 2.66458 -4.36644e-20)
(0.531727 2.66313 3.34457e-20)
(0.545179 1.74354 0)
(0.657008 1.8733 0)
(0.644175 1.69069 -3.23167e-19)
(0.451711 2.42823 0)
(0.727202 1.05412 0)
(0.495945 0.970921 -9.29324e-20)
(0.573091 0.944872 -6.73918e-21)
(0.75133 1.06995 0)
(0.561872 1.15971 1.51214e-19)
(0.787165 0.87566 2.44745e-20)
(0.804147 0.984535 0)
(0.770355 0.915519 -8.08083e-20)
(0.676883 1.06932 0)
(0.639262 0.9606 0)
(1.19693 2.77395 3.06206e-20)
(1.18845 2.80709 1.11616e-19)
(1.14786 2.33482 -2.6074e-19)
(1.11423 2.43472 1.16227e-19)
(1.16846 2.79383 0)
(1.09948 2.81367 -1.48263e-19)
(1.05423 2.52522 -7.07815e-20)
(0.893398 2.25479 -1.96708e-20)
(0.784032 1.77181 0)
(0.816569 1.07257 1.2509e-19)
(0.770008 1.0205 0)
(0.856525 0.192103 0)
(0.824868 0.172273 0)
(0.774264 0.188423 0)
(0.861277 0.208798 -2.9547e-19)
(0.810325 0.219253 1.85357e-19)
(0.920412 0.0499791 -1.58308e-19)
(0.917861 0.0918587 0)
(0.888233 0.103455 7.62767e-20)
(0.880815 0.0631937 3.05703e-19)
(0.887427 0.0504143 -1.8842e-19)
(1.13964 3.33979 -9.40834e-19)
(1.19305 3.25897 0)
(1.13801 3.37862 -1.92562e-18)
(0.623463 3.54466 1.63523e-18)
(0.843652 3.14562 3.79782e-19)
(0.488149 0.904345 2.59491e-19)
(0.399944 0.964791 0)
(0.323495 0.554914 -7.65551e-20)
(0.381649 0.698708 3.56235e-19)
(0.510456 0.522473 -1.06176e-19)
(0.491868 0.552349 1.1852e-19)
(0.599633 0.51592 2.54718e-19)
(0.622045 0.539381 0)
(0.5972 0.608693 0)
(0.550786 0.548568 0)
(0.920894 0.578008 -5.35308e-20)
(0.832528 0.518242 -1.75068e-19)
(0.859438 0.565428 7.71859e-20)
(0.889938 0.490297 -1.30288e-19)
(1.00774 0.462572 0)
(0.996208 0.539371 -3.92947e-21)
(0.782631 0.385087 -3.86793e-19)
(0.790708 0.369448 -4.44348e-19)
(0.760716 0.391675 3.03169e-19)
(0.759557 0.362091 -3.42428e-19)
(0.82717 0.304117 -2.46192e-19)
(0.795866 0.311384 3.0347e-19)
(1.02769 0.00786069 -1.6603e-19)
(1.02662 0.0077268 3.43637e-19)
(1.02233 0.0143336 2.00409e-19)
(1.02264 0.0138432 -2.35149e-19)
(1.01598 0.0146937 0)
(1.02097 0.00811078 -4.05598e-19)
(0.0128001 1.79935 2.66611e-20)
(0.011057 1.79799 0)
(0.00946312 1.7919 2.32284e-19)
(0.0125949 1.79969 -2.17805e-19)
(0.00410209 1.80202 5.82486e-20)
(0.00575957 1.79919 0)
(-0.0100662 1.77998 0)
(-0.0113907 1.77835 -1.10324e-20)
(-0.011837 1.77692 9.48234e-21)
(-0.0112737 1.7773 2.49476e-21)
(-0.0114124 1.77962 -1.95166e-20)
(-0.0102083 1.78039 1.1864e-20)
(0.531886 1.91648 1.10113e-18)
(0.262612 1.98727 -1.19601e-18)
(0.0139296 1.59502 7.55312e-19)
(0.00539642 2.13488 -4.86002e-20)
(0.610294 1.00846 0)
(0.304166 1.13538 6.19556e-19)
(0.396729 1.04634 -6.06509e-19)
(0.154339 1.10515 -7.3849e-19)
(0.463316 1.16904 0)
(0.651349 0.967817 0)
(0.197444 2.55354 2.74354e-19)
(0.368451 2.19496 1.30789e-18)
(0.433298 2.34567 -8.27071e-19)
(0.384552 2.109 -1.80085e-19)
(0.187459 2.30555 2.60788e-19)
(0.302908 2.0004 -6.95585e-19)
(0.914985 2.52182 3.20612e-19)
(0.942835 2.48361 0)
(0.850208 2.27481 1.26141e-19)
(1.04945 2.81951 0)
(1.07221 2.82363 0)
(0.566216 2.30613 1.51467e-19)
(1.02135 3.15571 4.15121e-19)
(0.895188 3.04812 -3.50606e-19)
(0.293451 1.00538 0)
(0.285024 0.84339 -1.50417e-19)
(0.431075 0.815982 -1.08896e-19)
(0.313403 2.09084 0)
(0.464494 2.82497 -2.65686e-19)
(0.388467 2.60158 0)
(0.656364 0.656812 -3.0388e-19)
(0.701869 0.663647 3.71445e-19)
(0.732583 0.611616 -3.60401e-19)
(0.611937 0.628187 -4.43346e-20)
(0.666471 0.580017 -1.80494e-19)
(0.983499 2.80442 -3.1514e-19)
(1.03755 2.79211 2.3008e-19)
(0.556312 2.13929 2.48882e-19)
(0.587877 1.77216 -2.05138e-19)
(0.770485 1.87793 -7.65372e-20)
(0.975334 2.47768 -1.0593e-19)
(0.999575 2.36846 -6.06873e-20)
(0.567794 1.87617 1.36593e-21)
(0.523066 1.40835 2.74963e-20)
)
;

boundaryField
{
    wall-4
    {
        type            noSlip;
    }
    velocity-inlet-5
    {
        type            fixedValue;
        value           uniform (1 0 0);
    }
    velocity-inlet-6
    {
        type            fixedValue;
        value           uniform (0 3 0);
    }
    pressure-outlet-7
    {
        type            zeroGradient;
    }
    wall-8
    {
        type            noSlip;
    }
    frontAndBackPlanes
    {
        type            empty;
    }
}


// ************************************************************************* //
