/*--------------------------------*- C++ -*----------------------------------*\
| =========                 |                                                 |
| \\      /  F ield         | OpenFOAM: The Open Source CFD Toolbox           |
|  \\    /   O peration     | Version:  4.0                                   |
|   \\  /    A nd           | Web:      www.OpenFOAM.org                      |
|    \\/     M anipulation  |                                                 |
\*---------------------------------------------------------------------------*/
FoamFile
{
    version     2.0;
    format      ascii;
    class       volScalarField;
    location    "5";
    object      p;
}
// * * * * * * * * * * * * * * * * * * * * * * * * * * * * * * * * * * * * * //

dimensions      [0 2 -2 0 0 0 0];

internalField   nonuniform List<scalar> 
2200
(
0.565234
0.544592
0.529327
0.514833
0.501634
0.490382
0.481129
0.473886
0.468528
0.466147
0.466191
0.46898
0.474571
0.481965
0.49133
0.502661
0.515915
0.530446
0.54573
0.566375
0.494885
0.491727
0.490824
0.488977
0.485368
0.480622
0.4755
0.470697
0.466835
0.464524
0.464652
0.467302
0.471402
0.476361
0.481596
0.486427
0.490095
0.49199
0.492925
0.496092
0.455681
0.457072
0.461467
0.463299
0.464406
0.46456
0.463449
0.461587
0.459618
0.458053
0.458307
0.46016
0.462373
0.464396
0.465628
0.465611
0.464591
0.462803
0.45843
0.457054
0.443086
0.444282
0.446777
0.448347
0.450142
0.451353
0.451628
0.451463
0.451107
0.450835
0.451003
0.451705
0.452357
0.45263
0.452496
0.451598
0.449871
0.448352
0.445899
0.444719
0.439692
0.440693
0.442681
0.444302
0.445853
0.447053
0.448233
0.448993
0.449314
0.449471
0.449882
0.450144
0.450218
0.449833
0.448879
0.447648
0.446195
0.444617
0.442681
0.44168
0.439375
0.440017
0.441091
0.442177
0.443315
0.444447
0.445519
0.446306
0.446849
0.447282
0.447739
0.44797
0.447825
0.447408
0.446622
0.445622
0.444586
0.443542
0.442474
0.441905
0.436876
0.436999
0.437383
0.4378
0.438456
0.439161
0.439879
0.440558
0.441171
0.441695
0.442087
0.442403
0.442432
0.442231
0.441844
0.44132
0.44076
0.440392
0.440021
0.43989
0.431804
0.431759
0.431803
0.431896
0.432137
0.432505
0.433029
0.433654
0.434341
0.435032
0.435578
0.435968
0.436132
0.436032
0.435816
0.435634
0.435506
0.435472
0.435464
0.435497
0.426773
0.426766
0.426816
0.426923
0.42711
0.427376
0.427743
0.428231
0.428835
0.429576
0.430332
0.430889
0.431239
0.431399
0.431435
0.43143
0.431422
0.431429
0.431445
0.431456
0.422044
0.42207
0.422123
0.422232
0.422452
0.422764
0.423167
0.4237
0.424386
0.425248
0.426252
0.426959
0.427373
0.42766
0.427833
0.42792
0.427948
0.427954
0.427949
0.427932
0.416862
0.416891
0.416965
0.417081
0.41727
0.417579
0.418029
0.418655
0.419488
0.420533
0.421722
0.422679
0.423334
0.42376
0.424025
0.42418
0.424263
0.424303
0.424319
0.424308
0.411215
0.411234
0.411315
0.411458
0.411672
0.412003
0.412508
0.413239
0.414249
0.41556
0.417021
0.418273
0.419164
0.419755
0.420142
0.420387
0.420535
0.420621
0.420666
0.420669
0.405294
0.405308
0.405389
0.405547
0.405809
0.406216
0.40683
0.407724
0.408975
0.410632
0.412486
0.414091
0.41525
0.416032
0.416552
0.416887
0.417094
0.417214
0.417273
0.417279
0.399042
0.399062
0.399159
0.399347
0.399664
0.400167
0.400931
0.402049
0.403623
0.405724
0.408095
0.410132
0.411601
0.412613
0.413288
0.413724
0.413992
0.414147
0.414223
0.41423
0.392315
0.39234
0.392461
0.392696
0.393093
0.393724
0.394688
0.396103
0.398097
0.400766
0.403779
0.406355
0.408221
0.409512
0.410375
0.410931
0.411275
0.411474
0.411572
0.411582
0.384974
0.385005
0.38516
0.38546
0.385967
0.386773
0.388002
0.389806
0.392346
0.395742
0.399564
0.402822
0.405182
0.406816
0.407908
0.408613
0.409048
0.409301
0.409426
0.40944
0.37685
0.376891
0.377091
0.377478
0.378132
0.37917
0.380751
0.383065
0.386315
0.390642
0.395489
0.399602
0.402576
0.404635
0.40601
0.406897
0.407445
0.407764
0.40792
0.407937
0.367716
0.367773
0.368036
0.368543
0.369396
0.370743
0.372788
0.375773
0.379943
0.385462
0.391598
0.396779
0.400515
0.403098
0.404822
0.405933
0.40662
0.407019
0.407215
0.407235
0.357257
0.357333
0.357678
0.358345
0.359465
0.361231
0.363901
0.367777
0.373149
0.38019
0.38794
0.394443
0.399123
0.402356
0.404513
0.405902
0.406761
0.407257
0.407501
0.407525
0.344996
0.345113
0.345592
0.346496
0.348004
0.350349
0.353871
0.358935
0.365875
0.374849
0.384598
0.392724
0.39856
0.402593
0.405284
0.40702
0.408094
0.408717
0.409025
0.409056
0.330444
0.330585
0.331217
0.33244
0.334475
0.337647
0.342362
0.349047
0.358042
0.369453
0.381648
0.391737
0.398982
0.404005
0.407372
0.409549
0.410895
0.411672
0.412049
0.41208
0.31231
0.312611
0.313607
0.315387
0.318294
0.32269
0.329102
0.337985
0.349641
0.364076
0.37921
0.391636
0.400571
0.406805
0.411016
0.413762
0.415478
0.416486
0.416989
0.417051
0.289988
0.290315
0.291702
0.294329
0.298549
0.304848
0.313747
0.32564
0.34072
0.358836
0.377418
0.39256
0.403489
0.4112
0.416496
0.42001
0.422234
0.423537
0.424168
0.42421
0.260037
0.261003
0.263642
0.26793
0.274419
0.283664
0.2961
0.312
0.331352
0.353824
0.37634
0.394552
0.407774
0.417241
0.423891
0.428439
0.431427
0.433284
0.434283
0.434403
0.220722
0.222258
0.226716
0.234237
0.244869
0.258802
0.276282
0.297394
0.3219
0.349345
0.3762
0.397764
0.413526
0.425029
0.433356
0.439304
0.443437
0.44612
0.447614
0.447659
0.168656
0.169887
0.179191
0.192931
0.210052
0.230557
0.254726
0.282212
0.312649
0.345529
0.376931
0.401967
0.42042
0.434164
0.44443
0.452073
0.457787
0.461876
0.464156
0.463904
0.0941941
0.102258
0.122925
0.146504
0.172078
0.200734
0.232438
0.266807
0.303577
0.342317
0.378714
0.407765
0.429576
0.446338
0.459467
0.469895
0.478287
0.485587
0.490351
0.491024
0.00417907
0.0310763
0.065253
0.0992118
0.134291
0.171739
0.210994
0.252211
0.295262
0.339877
0.381534
0.414994
0.440521
0.460613
0.476826
0.490175
0.501207
0.509874
0.518739
0.522858
-0.0531572
-0.0285025
0.0135996
0.0556406
0.099648
0.14509
0.191439
0.239096
0.287845
0.337582
0.383626
0.420545
0.448717
0.470861
0.488618
0.503072
0.515018
0.523672
0.533204
0.536815
-0.0932518
-0.070162
-0.0249987
0.0212977
0.0708522
0.121891
0.17399
0.227021
0.28054
0.334483
0.383949
0.42337
0.453238
0.476453
0.494791
0.509434
0.521314
0.530625
0.538983
0.541661
-0.123869
-0.10003
-0.0527479
-0.00410533
0.0484458
0.102883
0.159076
0.216133
0.273375
0.330618
0.382702
0.423985
0.455051
0.478961
0.497646
0.512402
0.524192
0.533549
0.541275
0.544546
-0.1484
-0.123047
-0.0740703
-0.0234404
0.031022
0.0878192
0.146846
0.206747
0.266706
0.326363
0.380396
0.423167
0.455278
0.479852
0.498917
0.513862
0.525655
0.535075
0.542642
0.54595
-0.1679
-0.142459
-0.0918247
-0.0395266
0.0167172
0.0756043
0.136782
0.198717
0.260537
0.321785
0.377181
0.421232
0.454417
0.479767
0.499323
0.514542
0.526421
0.535843
0.543522
0.546562
-0.184303
-0.159212
-0.10708
-0.0535091
0.00442478
0.0652111
0.128159
0.191608
0.254616
0.316727
0.372966
0.4182
0.452639
0.479011
0.499268
0.51491
0.526998
0.536479
0.544176
0.547183
-0.198789
-0.173621
-0.120346
-0.0656237
-0.00622687
0.0561701
0.120567
0.18512
0.248747
0.311041
0.367597
0.413974
0.450007
0.477823
0.49914
0.515463
0.527946
0.537596
0.545314
0.548338
-0.212019
-0.186021
-0.131936
-0.0760697
-0.0154073
0.0483414
0.113885
0.179168
0.242872
0.304642
0.360904
0.408367
0.446483
0.476361
0.499268
0.516646
0.529772
0.539745
0.547499
0.550591
-0.224023
-0.196997
-0.142167
-0.0851767
-0.0233397
0.04161
0.108065
0.173749
0.237004
0.297468
0.352652
0.40101
0.441831
0.474665
0.49994
0.518953
0.533115
0.543646
0.551505
0.554699
-0.234948
-0.20693
-0.151333
-0.0932411
-0.0302492
0.0358274
0.103044
0.168881
0.2312
0.289523
0.342673
0.391535
0.435764
0.472657
0.5014
0.522862
0.538462
0.549798
0.557976
0.561343
-0.245062
-0.216066
-0.15969
-0.100474
-0.0363293
0.0308395
0.0987476
0.164574
0.225536
0.280813
0.330676
0.37919
0.427463
0.470014
0.503844
0.528873
0.546623
0.55914
0.567798
0.571105
-0.254592
-0.224604
-0.167424
-0.107037
-0.041728
0.0265338
0.0951269
0.16086
0.220142
0.271473
0.316637
0.363682
0.416512
0.466574
0.50759
0.537588
0.558287
0.572508
0.582174
0.585982
-0.263676
-0.232696
-0.174666
-0.113053
-0.0465507
0.0228384
0.0921545
0.157779
0.215167
0.26167
0.300351
0.343968
0.401341
0.461637
0.512539
0.549439
0.574343
0.590607
0.600777
0.60487
-0.272409
-0.240448
-0.181515
-0.118633
-0.0508994
0.0196728
0.0897842
0.155343
0.210731
0.251607
0.28184
0.319579
0.381223
0.454749
0.518456
0.565202
0.595834
0.615026
0.626575
0.631005
-0.280874
-0.247944
-0.188062
-0.123882
-0.0548767
0.01695
0.0879685
0.153576
0.206999
0.241715
0.261489
0.290418
0.35518
0.444331
0.525632
0.585142
0.623566
0.646549
0.658469
0.662304
-0.28914
-0.255261
-0.194388
-0.128884
-0.0585663
0.0145973
0.0866681
0.152505
0.204069
0.232176
0.238931
0.254701
0.320284
0.429062
0.533577
0.611788
0.661713
0.687449
0.698796
0.69904
-0.297273
-0.262443
-0.200547
-0.133698
-0.0620341
0.0125386
0.0858093
0.152102
0.201998
0.223372
0.215191
0.213379
0.274669
0.40743
0.541818
0.643739
0.70878
0.73975
0.745767
0.743583
-0.305331
-0.269533
-0.206571
-0.138364
-0.0653403
0.0106879
0.0852976
0.152341
0.200947
0.215682
0.19045
0.166027
0.215232
0.375341
0.547372
0.676652
0.760451
0.79853
0.78856
0.715504
-0.313278
-0.276571
-0.212514
-0.142946
-0.0685682
0.00895468
0.0850608
0.153204
0.200969
0.208938
0.163916
0.108036
0.139927
0.329287
0.550661
0.720346
0.827071
0.890009
0.943969
1.01053
-0.321088
-0.283634
-0.218479
-0.147591
-0.0718894
0.00715576
0.0849177
0.154513
0.20208
0.203568
0.135747
0.0365035
0.0341657
0.256317
0.543972
0.748771
0.849278
0.884938
0.880824
0.870558
-0.328657
-0.290712
-0.224474
-0.152326
-0.0753442
0.00522519
0.0847484
0.156095
0.204298
0.200282
0.106567
-0.0502804
-0.115082
0.137461
0.498225
0.72852
0.808905
0.775631
0.692618
0.668233
-0.335996
-0.297749
-0.230518
-0.157187
-0.0789913
0.00307775
0.0844443
0.157855
0.207596
0.199728
0.0787983
-0.152709
-0.323113
-0.0603094
0.393387
0.62691
0.637915
0.564378
0.456474
0.442963
-0.343199
-0.30472
-0.236623
-0.162217
-0.0829084
0.000643941
0.0839386
0.159699
0.211923
0.202695
0.0563157
-0.285747
-0.618088
-0.359997
0.152117
0.362262
0.383982
0.283566
0.17937
0.16776
-0.35059
-0.311845
-0.242985
-0.167609
-0.0872565
-0.00217464
0.0831272
0.161504
0.217158
0.210207
0.0354371
-0.432034
-0.965751
-0.743501
-0.236064
-0.0324046
-0.0112592
-0.0893932
-0.186153
-0.180276
-0.35873
-0.319591
-0.249965
-0.17364
-0.0921684
-0.00546482
0.0819445
0.16327
0.223106
0.220969
0.0253047
-0.547193
-1.25707
-1.12408
-0.675354
-0.444307
-0.442842
-0.507771
-0.592952
-0.568507
-0.367935
-0.328269
-0.257769
-0.180424
-0.0976711
-0.00925492
0.0803959
0.165014
0.229818
0.232129
0.0352916
-0.603001
-1.37955
-1.34623
-0.952454
-0.781001
-0.823323
-0.963441
-1.1043
-1.08266
-0.378298
-0.338036
-0.266519
-0.188041
-0.103845
-0.013622
0.0784047
0.166576
0.23717
0.247507
0.0645383
-0.571704
-1.3011
-1.33068
-1.07081
-1.05366
-1.15091
-1.39781
-1.73372
-1.80401
-0.39002
-0.349104
-0.276404
-0.196641
-0.110867
-0.0187408
0.0757481
0.167571
0.244367
0.267501
0.106456
-0.456869
-1.07703
-1.15313
-1.09141
-1.23322
-1.39525
-1.73366
-2.42439
-3.04988
-0.403461
-0.361691
-0.287584
-0.206375
-0.118932
-0.0248449
0.0721031
0.167432
0.250158
0.286278
0.157987
-0.293472
-0.789708
-0.926805
-1.05117
-1.34662
-1.6023
-1.89625
-2.65861
-4.8277
-0.418915
-0.376055
-0.300301
-0.217495
-0.128316
-0.0322244
0.0671347
0.165767
0.254092
0.303012
0.215211
-0.114202
-0.498189
-0.696137
-0.962578
-1.36458
-1.65804
-1.78561
-1.87592
-2.41712
-0.436593
-0.392584
-0.315006
-0.230513
-0.139543
-0.0414659
0.0602241
0.162001
0.2557
0.317815
0.274378
0.0638718
-0.212938
-0.465307
-0.799747
-1.26213
-1.61984
-1.75023
-1.73001
-1.77715
-0.456754
-0.411583
-0.332071
-0.245807
-0.152999
-0.0529317
0.0510192
0.15574
0.254343
0.329247
0.328508
0.219488
0.0431009
-0.231908
-0.598739
-1.07705
-1.51903
-1.77428
-1.79026
-1.789
-0.479812
-0.433335
-0.351766
-0.263651
-0.168919
-0.066841
0.0392529
0.14661
0.249514
0.33629
0.372216
0.338776
0.233915
-0.0298418
-0.375621
-0.828554
-1.30593
-1.62255
-1.67066
-1.60112
-0.506167
-0.457983
-0.374251
-0.284194
-0.187435
-0.0833602
0.0247492
0.13453
0.241362
0.338482
0.403366
0.421646
0.367359
0.1264
-0.174798
-0.546318
-0.961683
-1.23412
-1.29529
-1.20747
-0.536273
-0.485691
-0.399635
-0.307479
-0.208571
-0.102451
0.00773648
0.119961
0.230599
0.336324
0.42246
0.474736
0.457501
0.273209
0.0230343
-0.226272
-0.475129
-0.612339
-0.622359
-0.587447
-0.570324
-0.516355
-0.427966
-0.333501
-0.232172
-0.123804
-0.0114034
0.103338
0.217612
0.331123
0.432296
0.506038
0.524927
0.432888
0.272143
0.137526
0.0514748
0.00859665
0.00723294
0.0291995
-0.607727
-0.550042
-0.459038
-0.36177
-0.257787
-0.146971
-0.0322592
0.0851837
0.203392
0.323785
0.437017
0.527025
0.578389
0.572294
0.520052
0.474858
0.466565
0.471829
0.484387
0.497168
-0.646301
-0.586304
-0.492354
-0.391546
-0.284803
-0.171379
-0.0540572
0.0665341
0.189352
0.315181
0.439615
0.543147
0.616222
0.660763
0.680935
0.693352
0.716656
0.74532
0.768071
0.776965
-0.683143
-0.62494
-0.526231
-0.421736
-0.312482
-0.196256
-0.0760236
0.0481132
0.175126
0.306095
0.439632
0.553173
0.64031
0.706596
0.75917
0.800892
0.840842
0.87515
0.899506
0.909432
-0.71889
-0.662013
-0.558582
-0.451322
-0.339765
-0.220729
-0.0975977
0.0298399
0.160211
0.297405
0.436572
0.557102
0.653448
0.729733
0.793592
0.844728
0.888742
0.924663
0.949717
0.96124
-0.751853
-0.695915
-0.587462
-0.479247
-0.365231
-0.243372
-0.117709
0.0127017
0.146356
0.288808
0.431508
0.556135
0.657015
0.73818
0.806026
0.855518
0.899936
0.935422
0.961966
0.973856
-0.779103
-0.723789
-0.611653
-0.504199
-0.386995
-0.262509
-0.134834
-0.0019873
0.134786
0.279846
0.424563
0.550644
0.652144
0.734029
0.800577
0.852983
0.895811
0.92997
0.957452
0.969005
-0.796782
-0.741822
-0.630701
-0.522192
-0.402514
-0.2767
-0.147867
-0.0139702
0.124571
0.270572
0.41513
0.540303
0.640636
0.721456
0.786809
0.838744
0.881339
0.914742
0.942557
0.953854
-0.802013
-0.748535
-0.640443
-0.529134
-0.409896
-0.284202
-0.155971
-0.022833
0.115318
0.260374
0.402019
0.524845
0.622908
0.701558
0.765299
0.816401
0.858071
0.890846
0.918674
0.929878
-0.789553
-0.73909
-0.633325
-0.52344
-0.406879
-0.283531
-0.158593
-0.0278795
0.107297
0.249223
0.384527
0.50356
0.597947
0.673898
0.735154
0.785272
0.825905
0.858389
0.886024
0.897462
-0.753756
-0.707852
-0.606423
-0.502025
-0.390555
-0.273641
-0.154103
-0.0293995
0.0995379
0.234784
0.365195
0.476716
0.56523
0.636877
0.695003
0.742909
0.782365
0.814113
0.841348
0.853177
-0.687484
-0.648205
-0.556004
-0.460649
-0.358896
-0.251825
-0.141436
-0.026237
0.0934105
0.219087
0.340182
0.442251
0.522892
0.588158
0.641427
0.685858
0.723031
0.753831
0.780328
0.793002
-0.586423
-0.555211
-0.476884
-0.395747
-0.308534
-0.215767
-0.119157
-0.0171635
0.0897541
0.202318
0.310448
0.400504
0.470806
0.527034
0.572567
0.610311
0.641789
0.668154
0.690906
0.703191
-0.434832
-0.415949
-0.363614
-0.305767
-0.238917
-0.166105
-0.0877578
-0.00211963
0.0895137
0.187191
0.28167
0.359839
0.419824
0.466622
0.503361
0.532546
0.55574
0.573977
0.588632
0.59688
-0.258013
-0.250099
-0.226949
-0.195941
-0.155495
-0.107348
-0.0497009
0.0175119
0.0925699
0.175216
0.25661
0.323972
0.375042
0.413907
0.443237
0.465172
0.481068
0.4921
0.499205
0.502752
-0.120801
-0.117311
-0.108964
-0.0939722
-0.0748962
-0.0464552
-0.0077415
0.0410316
0.099162
0.166358
0.234208
0.29041
0.332293
0.363058
0.384995
0.400075
0.409843
0.415859
0.419049
0.420367
-0.0318279
-0.0302202
-0.0261373
-0.0188707
-0.0106332
0.00698331
0.0316082
0.0651414
0.108373
0.161083
0.215865
0.26147
0.294893
0.318566
0.334627
0.345054
0.351436
0.355398
0.357397
0.358265
0.021716
0.0208115
0.0216639
0.0258937
0.0308958
0.0437896
0.060586
0.0843402
0.116461
0.157145
0.200529
0.236876
0.263264
0.281642
0.29397
0.301998
0.306913
0.310056
0.311385
0.311928
0.0508722
0.049541
0.0496038
0.0519133
0.0553016
0.0650975
0.0776843
0.0959255
0.120682
0.152422
0.186737
0.215639
0.23664
0.251312
0.261218
0.267694
0.271538
0.273833
0.274547
0.274746
0.0684886
0.067818
0.0680707
0.0694576
0.0717554
0.0785916
0.0879734
0.102163
0.121597
0.146715
0.174061
0.197167
0.213989
0.225739
0.233614
0.238666
0.241578
0.243227
0.243772
0.243911
0.0805049
0.0802533
0.0806367
0.0817681
0.0835996
0.0882632
0.095116
0.105813
0.120849
0.14066
0.162453
0.180907
0.194291
0.203554
0.209675
0.213543
0.215778
0.217041
0.217519
0.217659
0.088023
0.0879316
0.0882679
0.0893709
0.0909507
0.0943244
0.0994586
0.107488
0.118994
0.134457
0.151693
0.166321
0.176878
0.184132
0.188897
0.191902
0.193662
0.194655
0.195023
0.195144
0.0919181
0.0918939
0.0921764
0.0929691
0.094315
0.0968936
0.100886
0.107051
0.115924
0.127969
0.141525
0.15306
0.161372
0.167076
0.170826
0.173193
0.174591
0.17538
0.175592
0.175693
0.0930335
0.0930372
0.0932603
0.0938569
0.0949336
0.0969078
0.100025
0.104815
0.111724
0.12114
0.1318
0.140889
0.147439
0.151934
0.154887
0.156742
0.157829
0.158432
0.158673
0.158744
0.0921177
0.0921344
0.092315
0.0927784
0.0936277
0.0951424
0.097563
0.10128
0.106667
0.114042
0.122428
0.129589
0.134747
0.138282
0.140601
0.142052
0.142903
0.143376
0.143572
0.143628
0.0896377
0.0896571
0.0898021
0.0901653
0.0908342
0.0920061
0.0938862
0.0967708
0.100967
0.106738
0.113329
0.118963
0.123018
0.125793
0.127611
0.128748
0.129415
0.129785
0.129939
0.129983
0.0859257
0.0859432
0.0860578
0.0863422
0.0868673
0.0877787
0.0892435
0.0914879
0.0947592
0.0992713
0.104443
0.108868
0.112051
0.114229
0.115655
0.116546
0.117068
0.117357
0.117477
0.11751
0.0812472
0.0812616
0.0813513
0.0815729
0.0819832
0.0826927
0.0838348
0.0855837
0.0881352
0.0916616
0.0957147
0.0991864
0.101683
0.103391
0.104509
0.105206
0.105614
0.105839
0.105932
0.105957
0.0758206
0.0758323
0.0759025
0.0760752
0.0763951
0.0769475
0.0778375
0.0792004
0.0811903
0.0839449
0.087118
0.0898385
0.0917947
0.0931323
0.0940068
0.0945513
0.0948693
0.0950441
0.095116
0.0951352
0.0698127
0.0698221
0.0698758
0.0700095
0.0702581
0.0706874
0.0713794
0.0724396
0.0739895
0.0761387
0.0786192
0.0807467
0.0822755
0.0833198
0.0840017
0.0844256
0.0846729
0.0848088
0.0848644
0.0848791
0.0633404
0.0633476
0.063391
0.0634952
0.0636886
0.0640221
0.0645597
0.0653835
0.0665884
0.0682608
0.0701937
0.0718523
0.0730436
0.073857
0.074388
0.0747179
0.0749099
0.0750153
0.0750578
0.0750691
0.0565295
0.0565347
0.0565664
0.0566472
0.0567969
0.0570549
0.0574709
0.0581089
0.0590427
0.06034
0.0618401
0.0631267
0.0640502
0.0646803
0.0650912
0.0653461
0.0654942
0.065575
0.0656075
0.0656155
0.0494323
0.0494361
0.0494609
0.0495213
0.0496349
0.0498321
0.0501512
0.0506411
0.0513585
0.0523557
0.0535111
0.0545033
0.0552156
0.0557017
0.0560188
0.0562154
0.0563291
0.0563906
0.056414
0.0564205
0.0421296
0.0421319
0.0421517
0.0421995
0.0422873
0.0424382
0.0426816
0.043055
0.0436018
0.0443613
0.0452402
0.0459967
0.0465397
0.0469096
0.0471499
0.047298
0.0473829
0.0474284
0.0474462
0.0474504
0.0346804
0.0346828
0.0346943
0.0347271
0.0347902
0.034901
0.0350811
0.0353586
0.0357657
0.0363328
0.0369907
0.0375538
0.0379572
0.0382313
0.0384091
0.038519
0.0385825
0.038617
0.0386304
0.038633
0.0270833
0.0270834
0.0270917
0.0271156
0.0271613
0.0272413
0.0273711
0.0275699
0.0278602
0.0282636
0.0287318
0.0291425
0.0294359
0.0296342
0.0297625
0.0298413
0.0298859
0.0299091
0.0299168
0.0299191
0.0194114
0.0194125
0.0194194
0.0194382
0.0194715
0.0195275
0.0196164
0.0197515
0.0199498
0.0202246
0.0205436
0.0208137
0.0210044
0.0211329
0.0212144
0.0212636
0.0212915
0.0213067
0.0213123
0.0213141
0.0116922
0.0116927
0.0116942
0.0117015
0.0117176
0.0117473
0.0117966
0.0118731
0.0119854
0.0121405
0.0123245
0.0124746
0.01258
0.0126543
0.0127044
0.012736
0.0127545
0.0127648
0.0127688
0.0127699
0.00390195
0.00389968
0.00389767
0.00389809
0.0039015
0.0039098
0.00392493
0.00394878
0.00398348
0.0040344
0.00410007
0.00414733
0.00418266
0.00421065
0.00423267
0.004247
0.0042546
0.00425747
0.0042558
0.0042537
-2.02251
-0.903549
-0.579744
-0.181911
0.113196
0.365061
0.578251
0.780148
0.984439
1.07005
-0.762836
-0.192881
-0.0957079
0.16377
0.362539
0.534351
0.685741
0.814834
0.86901
0.805632
-0.181297
0.114406
0.215046
0.381204
0.519691
0.640353
0.741675
0.813604
0.82915
0.832378
0.164934
0.351253
0.424853
0.545908
0.641924
0.725364
0.791216
0.835855
0.852027
0.872189
0.409047
0.536223
0.587536
0.677891
0.748479
0.805474
0.851321
0.881365
0.893644
0.922748
0.590229
0.686019
0.735755
0.797254
0.847284
0.886078
0.915509
0.936752
0.949689
0.973758
0.746832
0.817633
0.852134
0.890209
0.922627
0.948661
0.967583
0.986179
0.999346
1.02507
0.871888
0.915276
0.937197
0.961847
0.983986
1.00339
1.01998
1.03825
1.05464
1.07855
0.969956
1.00036
1.01418
1.02989
1.04775
1.06624
1.08389
1.10372
1.11819
1.14129
1.0559
1.07953
1.09438
1.10899
1.12577
1.14254
1.15806
1.17454
1.1859
1.20433
1.14836
1.16717
1.1832
1.19533
1.20731
1.21968
1.23151
1.24258
1.25063
1.26728
1.24106
1.25294
1.26645
1.27789
1.28797
1.29701
1.30579
1.31446
1.31988
1.33263
1.32973
1.33854
1.35157
1.36202
1.37047
1.37796
1.38497
1.39221
1.39407
1.40259
1.4256
1.43086
1.44032
1.44628
1.45015
1.45507
1.46089
1.46767
1.47082
1.48019
1.53878
1.52668
1.51992
1.51459
1.51191
1.51318
1.51965
1.53183
1.54634
1.57427
1.66254
1.60674
1.57501
1.55631
1.54801
1.54809
1.55722
1.57725
1.60888
1.67901
)
;

boundaryField
{
    wall-4
    {
        type            zeroGradient;
    }
    pressure-outlet-7
    {
        type            fixedValue;
        value           uniform 0;
    }
    velocity-inlet-6
    {
        type            zeroGradient;
    }
    velocity-inlet-5
    {
        type            zeroGradient;
    }
    frontAndBackPlanes
    {
        type            empty;
    }
}


// ************************************************************************* //
