/*--------------------------------*- C++ -*----------------------------------*\
| =========                 |                                                 |
| \\      /  F ield         | OpenFOAM: The Open Source CFD Toolbox           |
|  \\    /   O peration     | Version:  4.0                                   |
|   \\  /    A nd           | Web:      www.OpenFOAM.org                      |
|    \\/     M anipulation  |                                                 |
\*---------------------------------------------------------------------------*/
FoamFile
{
    version     2.0;
    format      ascii;
    class       volScalarField;
    location    "60";
    object      p;
}
// * * * * * * * * * * * * * * * * * * * * * * * * * * * * * * * * * * * * * //

dimensions      [0 2 -2 0 0 0 0];

internalField   nonuniform List<scalar> 
8800
(
0.785234
0.737448
0.698759
0.669766
0.648905
0.634078
0.623488
0.616018
0.611212
0.609174
0.610464
0.614672
0.621331
0.630656
0.643442
0.661181
0.685961
0.719904
0.762455
0.821157
0.616482
0.624161
0.631637
0.634947
0.633445
0.62837
0.621889
0.615819
0.611108
0.608282
0.608025
0.610552
0.615056
0.621014
0.627791
0.634076
0.63772
0.636986
0.631569
0.62288
0.594883
0.601043
0.60517
0.608116
0.610168
0.610777
0.609676
0.607582
0.605581
0.604696
0.605681
0.608083
0.610896
0.613087
0.613701
0.612508
0.610169
0.606779
0.602221
0.598461
0.589069
0.59172
0.594473
0.596877
0.598515
0.59968
0.600428
0.600557
0.600278
0.600252
0.60103
0.602222
0.603077
0.603153
0.602551
0.601466
0.599653
0.597085
0.594684
0.59318
0.583684
0.585109
0.586889
0.588922
0.590709
0.592054
0.59305
0.59386
0.594493
0.595084
0.595764
0.596284
0.596401
0.596125
0.595437
0.594195
0.592503
0.590658
0.589353
0.588521
0.578602
0.579523
0.580765
0.582332
0.583967
0.585497
0.586789
0.58787
0.588855
0.589778
0.590501
0.590856
0.590833
0.590408
0.589537
0.588344
0.587022
0.585766
0.584945
0.584393
0.573689
0.574359
0.575321
0.576625
0.578036
0.579499
0.580946
0.582283
0.583505
0.584646
0.585505
0.585904
0.585842
0.585349
0.584555
0.583616
0.582609
0.58169
0.581106
0.580701
0.568898
0.569414
0.570198
0.571329
0.572608
0.573987
0.575441
0.576929
0.578382
0.579756
0.580806
0.581312
0.581313
0.580946
0.580357
0.579641
0.578875
0.578196
0.577764
0.577446
0.564156
0.564567
0.565223
0.56623
0.567437
0.568769
0.570223
0.571795
0.573444
0.575084
0.576378
0.577076
0.57727
0.577122
0.576754
0.576249
0.575687
0.5752
0.574879
0.574621
0.559379
0.559714
0.56028
0.561208
0.562367
0.563683
0.565173
0.566843
0.56868
0.570608
0.57222
0.573212
0.573681
0.573785
0.573647
0.573365
0.572996
0.572669
0.572432
0.572216
0.554478
0.554755
0.555261
0.556142
0.557282
0.558623
0.560186
0.561996
0.56406
0.566324
0.568336
0.569707
0.570507
0.570898
0.57101
0.570952
0.570776
0.570589
0.57042
0.570233
0.549364
0.549597
0.550063
0.550928
0.55209
0.553499
0.555177
0.55718
0.559538
0.562216
0.56472
0.566544
0.567731
0.568453
0.568845
0.569018
0.569035
0.568977
0.568863
0.568696
0.543946
0.544144
0.54459
0.545469
0.546694
0.548214
0.550063
0.552326
0.555058
0.558257
0.561355
0.56372
0.565361
0.566458
0.567164
0.567582
0.567809
0.567871
0.567804
0.567651
0.538123
0.538292
0.538737
0.539658
0.540987
0.54267
0.544756
0.54736
0.550565
0.55441
0.558229
0.56124
0.563412
0.564942
0.566004
0.56672
0.567152
0.56733
0.567304
0.567159
0.531778
0.531923
0.53238
0.533373
0.534853
0.536758
0.539159
0.542197
0.546
0.550638
0.55533
0.559112
0.561916
0.563955
0.565422
0.566457
0.567127
0.567427
0.567437
0.567297
0.524773
0.524893
0.525377
0.526475
0.528157
0.530354
0.533158
0.536747
0.541294
0.546902
0.55265
0.557353
0.560904
0.563543
0.565488
0.566894
0.567826
0.568251
0.568295
0.568156
0.516927
0.517026
0.517554
0.518791
0.520733
0.523302
0.526619
0.530904
0.536372
0.543166
0.550186
0.555989
0.560422
0.563767
0.566284
0.568122
0.569348
0.569904
0.56998
0.569837
0.508016
0.508117
0.508699
0.510093
0.512366
0.515418
0.51939
0.524547
0.531158
0.5394
0.547949
0.555057
0.56053
0.564703
0.567899
0.570243
0.571798
0.572494
0.572599
0.572449
0.49773
0.497812
0.498484
0.500103
0.50281
0.50648
0.511279
0.517535
0.525567
0.535578
0.545957
0.554601
0.561297
0.566445
0.570419
0.573356
0.575287
0.57613
0.576261
0.576101
0.485698
0.485765
0.486537
0.488468
0.491733
0.496197
0.502056
0.509702
0.519502
0.531668
0.544228
0.554676
0.562793
0.569077
0.573953
0.577583
0.579922
0.580912
0.581065
0.58089
0.47137
0.471426
0.47234
0.474687
0.478687
0.484199
0.491438
0.50087
0.512885
0.52767
0.542807
0.555348
0.565089
0.572682
0.578602
0.583007
0.585783
0.586917
0.587081
0.586889
0.453985
0.454029
0.455156
0.458086
0.463096
0.470024
0.479104
0.490858
0.505662
0.52362
0.541768
0.556697
0.568279
0.577338
0.584424
0.589693
0.592915
0.594173
0.594337
0.594124
0.432388
0.432431
0.433904
0.437714
0.44418
0.4531
0.464704
0.479526
0.497847
0.519615
0.541226
0.558819
0.572435
0.583119
0.591457
0.597656
0.601297
0.60264
0.602786
0.602551
0.404848
0.40491
0.40697
0.412199
0.420919
0.432768
0.447927
0.466823
0.489535
0.515805
0.54132
0.561818
0.57762
0.590041
0.599728
0.606835
0.610816
0.612179
0.612285
0.61203
0.368339
0.3685
0.371766
0.379609
0.392135
0.408452
0.428679
0.452927
0.481016
0.512474
0.542267
0.565831
0.583899
0.598107
0.609175
0.617079
0.621246
0.622537
0.62258
0.622308
0.31707
0.318045
0.324534
0.337746
0.356884
0.380113
0.407325
0.438334
0.472761
0.509986
0.544293
0.570979
0.591316
0.607256
0.619627
0.628111
0.632241
0.633355
0.633323
0.63304
0.242137
0.249387
0.264397
0.287657
0.316658
0.349145
0.384898
0.4237
0.465163
0.508645
0.547798
0.577847
0.600633
0.618477
0.632119
0.641009
0.64497
0.645891
0.645815
0.645567
0.161579
0.178743
0.203069
0.237033
0.276274
0.318152
0.362515
0.409301
0.458205
0.508647
0.553571
0.587814
0.613638
0.633784
0.64895
0.658026
0.6615
0.662147
0.662089
0.661933
0.0944438
0.114662
0.14669
0.189744
0.238034
0.288763
0.341482
0.39611
0.45232
0.509522
0.559952
0.598124
0.626782
0.648906
0.664981
0.67388
0.677005
0.67758
0.677578
0.67747
0.0394648
0.0613366
0.098871
0.148354
0.203799
0.261991
0.322104
0.383926
0.446997
0.510649
0.566326
0.608192
0.639426
0.663262
0.680251
0.689276
0.692331
0.692965
0.692998
0.692917
-0.00629919
0.0167508
0.0580681
0.112655
0.173849
0.238203
0.304669
0.372898
0.44227
0.511968
0.572623
0.617998
0.651689
0.677219
0.695194
0.704654
0.707948
0.708473
0.708529
0.708476
-0.0451159
-0.0214007
0.0227784
0.0814087
0.147439
0.217041
0.289034
0.362962
0.438072
0.513399
0.578768
0.627507
0.663584
0.690791
0.709801
0.719916
0.723395
0.723962
0.724028
0.724004
-0.0790087
-0.0548583
-0.00841406
0.0535503
0.123668
0.197833
0.274722
0.35379
0.434185
0.514791
0.584643
0.636607
0.674977
0.703833
0.723828
0.734566
0.738362
0.739017
0.739106
0.739102
-0.109471
-0.0849384
-0.0366492
0.0281644
0.101806
0.179971
0.261254
0.345021
0.430324
0.515919
0.590053
0.645107
0.685653
0.716018
0.737003
0.748313
0.75243
0.753237
0.75333
0.753333
-0.137467
-0.112589
-0.0627226
0.00454692
0.0812898
0.163002
0.248238
0.336307
0.426202
0.516551
0.594824
0.652855
0.695469
0.727228
0.749101
0.76093
0.765317
0.766254
0.766334
0.766329
-0.163796
-0.138527
-0.0872051
-0.0178216
0.0616876
0.146562
0.23537
0.3274
0.421607
0.516523
0.598844
0.659781
0.704377
0.737443
0.760038
0.772249
0.776837
0.777853
0.777925
0.777904
-0.188835
-0.163164
-0.110611
-0.0392779
0.0426879
0.1304
0.222446
0.318127
0.41639
0.515716
0.60204
0.665885
0.712409
0.74667
0.769838
0.782334
0.787014
0.78807
0.788122
0.788077
-0.213007
-0.186822
-0.133239
-0.0600685
0.0240824
0.114339
0.209327
0.308365
0.410437
0.514031
0.604367
0.671178
0.719647
0.755045
0.778718
0.791287
0.795992
0.797043
0.797062
0.796995
-0.236447
-0.209837
-0.155146
-0.0803629
0.00574067
0.0982782
0.195924
0.298045
0.403683
0.511409
0.605794
0.675692
0.726201
0.762715
0.786751
0.799303
0.803944
0.804952
0.804958
0.804869
-0.259289
-0.232183
-0.176468
-0.100254
-0.0124006
0.0821733
0.182204
0.287132
0.396091
0.507795
0.606276
0.679456
0.732179
0.769865
0.794175
0.806567
0.811039
0.811963
0.811927
0.811815
-0.281667
-0.254008
-0.197302
-0.119777
-0.0303741
0.0660144
0.168177
0.275638
0.387653
0.50315
0.605761
0.682468
0.737692
0.776661
0.801147
0.813213
0.81738
0.818161
0.818075
0.817943
-0.303609
-0.275305
-0.217682
-0.138937
-0.0481541
0.0498246
0.153878
0.263596
0.378387
0.497447
0.604188
0.684695
0.7428
0.783282
0.807883
0.819377
0.823044
0.823611
0.823475
0.823333
-0.324961
-0.296048
-0.237548
-0.157715
-0.0657157
0.0336628
0.139362
0.251074
0.368346
0.4907
0.601486
0.686065
0.747502
0.789911
0.814684
0.825312
0.828165
0.828389
0.8282
0.828062
-0.345708
-0.316213
-0.256889
-0.17607
-0.0830062
0.0175826
0.124712
0.238144
0.3576
0.482929
0.597601
0.686457
0.751727
0.796663
0.821965
0.831544
0.833065
0.832596
0.832309
0.832228
-0.365917
-0.335769
-0.275682
-0.193977
-0.0999671
0.00166271
0.110013
0.224904
0.346237
0.474192
0.592484
0.68572
0.7553
0.803482
0.830113
0.838964
0.838633
0.836643
0.835965
0.836174
-0.38542
-0.354695
-0.293876
-0.211375
-0.116544
-0.014017
0.0953544
0.211462
0.334367
0.464578
0.586118
0.683675
0.75795
0.810037
0.839138
0.84859
0.846844
0.842439
0.839904
0.839557
-0.404313
-0.372983
-0.311491
-0.228298
-0.132769
-0.029499
0.0806831
0.197763
0.321927
0.454017
0.57837
0.680046
0.759376
0.81582
0.84842
0.860731
0.860124
0.853493
0.845557
0.831607
-0.422524
-0.390618
-0.328639
-0.244945
-0.148922
-0.0451076
0.0655926
0.183338
0.308395
0.441891
0.568615
0.674077
0.759046
0.820144
0.856301
0.873298
0.874422
0.861693
0.841743
0.830356
-0.439879
-0.407739
-0.345132
-0.261119
-0.164653
-0.0605046
0.0503054
0.168504
0.294069
0.428447
0.556899
0.665269
0.756098
0.821831
0.858627
0.875462
0.879097
0.855468
0.787873
0.757579
-0.455715
-0.425599
-0.360645
-0.276337
-0.179173
-0.0751918
0.0351358
0.153489
0.279163
0.413805
0.543139
0.653291
0.749053
0.820168
0.850335
0.861897
0.850086
0.795375
0.726258
0.683758
-0.510993
-0.441351
-0.374701
-0.291729
-0.194107
-0.0906331
0.0200154
0.138008
0.263304
0.397496
0.526709
0.637457
0.733956
0.811584
0.815345
0.816978
0.76598
0.69484
0.617895
0.575086
-0.472456
-0.456475
-0.395692
-0.311683
-0.21621
-0.112791
-0.00317904
0.114147
0.238428
0.371173
0.498443
0.607576
0.696337
0.778964
0.764351
0.64932
0.543031
0.469112
0.395307
0.425417
-0.503168
-0.473929
-0.412244
-0.329066
-0.233605
-0.130311
-0.0204428
0.0962313
0.219426
0.350345
0.47479
0.579683
0.658792
0.702848
0.653272
0.502767
0.373887
0.281811
0.182721
0.232401
-0.526813
-0.49464
-0.431749
-0.348426
-0.252847
-0.149662
-0.0398881
0.075938
0.197712
0.326199
0.446859
0.545506
0.615705
0.625084
0.517275
0.343332
0.189794
0.0703674
-0.0610838
-0.0284448
-0.549937
-0.516237
-0.452167
-0.367923
-0.272268
-0.169241
-0.0600013
0.0548443
0.174998
0.300671
0.416583
0.507335
0.562229
0.539869
0.380262
0.183165
-0.00769466
-0.175976
-0.364664
-0.383302
-0.572464
-0.538312
-0.473353
-0.388332
-0.292539
-0.18974
-0.081163
0.0325773
0.150852
0.273306
0.383759
0.46654
0.501743
0.443101
0.24989
0.0388166
-0.178782
-0.368246
-0.610269
-0.907579
-0.595278
-0.561119
-0.495619
-0.410113
-0.314137
-0.211514
-0.103528
0.00906956
0.125355
0.244321
0.349013
0.423224
0.437239
0.327517
0.136458
-0.0738995
-0.278494
-0.451012
-0.520565
-0.599531
-0.619335
-0.585108
-0.519309
-0.433576
-0.337553
-0.235199
-0.127901
-0.0166198
0.0973559
0.212305
0.310817
0.373912
0.362904
0.21953
0.0356613
-0.155663
-0.318835
-0.411982
-0.436159
-0.45206
-0.644938
-0.610581
-0.544591
-0.458796
-0.362913
-0.261005
-0.154634
-0.0449751
0.0662712
0.176551
0.268403
0.317294
0.288589
0.119265
-0.0556656
-0.221918
-0.348745
-0.387971
-0.400864
-0.402189
-0.672285
-0.637711
-0.571527
-0.485766
-0.390167
-0.288931
-0.183746
-0.0760443
0.0320374
0.137071
0.221361
0.255837
0.207464
0.0266556
-0.139205
-0.288028
-0.36441
-0.381594
-0.382934
-0.382744
-0.701435
-0.66656
-0.600139
-0.514481
-0.419325
-0.318965
-0.215236
-0.109839
-0.00533276
0.0939441
0.169773
0.192471
0.107978
-0.0579543
-0.215488
-0.338112
-0.37493
-0.373302
-0.372409
-0.371805
-0.732098
-0.696939
-0.630318
-0.544849
-0.450297
-0.351048
-0.249071
-0.146332
-0.0458028
0.0472791
0.114518
0.120327
0.017274
-0.136651
-0.276087
-0.351688
-0.362274
-0.365172
-0.365942
-0.365676
-0.763719
-0.728405
-0.661803
-0.576636
-0.48289
-0.385017
-0.285094
-0.185386
-0.0891937
-0.00256798
0.0560504
0.0469153
-0.0642629
-0.20362
-0.320535
-0.352334
-0.360523
-0.361951
-0.361786
-0.361531
-0.795822
-0.760393
-0.694142
-0.609439
-0.516755
-0.420545
-0.323022
-0.226712
-0.135229
-0.0549006
-0.00661988
-0.0223905
-0.139054
-0.25875
-0.35191
-0.367502
-0.359733
-0.358855
-0.358803
-0.358587
-0.827504
-0.792166
-0.726437
-0.642656
-0.551336
-0.45715
-0.362398
-0.269834
-0.183439
-0.109134
-0.070589
-0.0858565
-0.204034
-0.303036
-0.355187
-0.365013
-0.360989
-0.358636
-0.357612
-0.357246
-0.857175
-0.822537
-0.757708
-0.675353
-0.585852
-0.494122
-0.402558
-0.314071
-0.233015
-0.164735
-0.12936
-0.156258
-0.25473
-0.343077
-0.350523
-0.362629
-0.362178
-0.3582
-0.356618
-0.355905
-0.883216
-0.849667
-0.786812
-0.706311
-0.619247
-0.530506
-0.442622
-0.358567
-0.282862
-0.220884
-0.185357
-0.22322
-0.294702
-0.356864
-0.392854
-0.375891
-0.36572
-0.361968
-0.360736
-0.359904
-0.90348
-0.871653
-0.811672
-0.734094
-0.65021
-0.565125
-0.481476
-0.402264
-0.331918
-0.276361
-0.243478
-0.279825
-0.31936
-0.3531
-0.397129
-0.385797
-0.382026
-0.383636
-0.383292
-0.382152
-0.915684
-0.886569
-0.830325
-0.756795
-0.677198
-0.596605
-0.517851
-0.443896
-0.379127
-0.329887
-0.29986
-0.335282
-0.34007
-0.309988
-0.328061
-0.385965
-0.420285
-0.429593
-0.428175
-0.428445
-0.917144
-0.8921
-0.840782
-0.772546
-0.698458
-0.623478
-0.550298
-0.482066
-0.423184
-0.380217
-0.349097
-0.402088
-0.442411
-0.399846
-0.419154
-0.452518
-0.461511
-0.459469
-0.458229
-0.459031
-0.905677
-0.885499
-0.840826
-0.779687
-0.712435
-0.644129
-0.577355
-0.51517
-0.462362
-0.425465
-0.398083
-0.47354
-0.623151
-0.806025
-0.727753
-0.587705
-0.509991
-0.481307
-0.472235
-0.469442
-0.879181
-0.863978
-0.828606
-0.776922
-0.718067
-0.657446
-0.597606
-0.541512
-0.494277
-0.462643
-0.435982
-0.488225
-0.598138
-0.834503
-0.756655
-0.546342
-0.440979
-0.409542
-0.399139
-0.394697
-0.840121
-0.830298
-0.804829
-0.764373
-0.715266
-0.663072
-0.61017
-0.559755
-0.516342
-0.487842
-0.461107
-0.373562
-0.191675
-0.0624946
-0.0933757
-0.169066
-0.237322
-0.263266
-0.266302
-0.264426
-0.795146
-0.789569
-0.774316
-0.744782
-0.705964
-0.661756
-0.615367
-0.569079
-0.527482
-0.496185
-0.462767
-0.293738
0.01168
0.415755
0.359941
0.0788298
-0.130002
-0.22725
-0.263008
-0.272894
-0.754046
-0.750671
-0.743281
-0.72362
-0.693157
-0.655749
-0.614421
-0.570944
-0.528128
-0.494056
-0.472509
-0.435942
-0.519676
-0.696499
-0.937094
-1.16732
-1.17784
-1.04174
-0.892342
-0.868641
-0.723839
-0.721672
-0.717861
-0.705643
-0.68142
-0.648542
-0.609854
-0.56655
-0.520926
-0.480364
-0.460407
-0.591553
-1.09089
-1.89479
-2.52065
-2.59575
-2.36588
-2.03049
-1.76186
-1.65534
-0.700837
-0.699988
-0.698705
-0.692553
-0.673672
-0.643026
-0.604061
-0.558219
-0.506991
-0.447161
-0.400385
-0.397908
-0.591997
-0.757948
-0.837011
-0.766487
-0.54103
-0.327283
-0.189881
-0.134751
-0.68751
-0.687164
-0.686524
-0.683687
-0.669859
-0.640111
-0.598576
-0.548601
-0.487799
-0.415635
-0.340073
-0.25177
-0.134047
0.127882
0.450063
0.811248
1.11944
1.29933
1.37531
1.39636
-0.67887
-0.678519
-0.677587
-0.676443
-0.668328
-0.640228
-0.595688
-0.539555
-0.472171
-0.388377
-0.281089
-0.169766
0.066634
0.525201
1.02222
1.48325
1.81991
1.98522
2.04867
2.06236
-0.675551
-0.67523
-0.674505
-0.674346
-0.670325
-0.644579
-0.595841
-0.534308
-0.459506
-0.362061
-0.246894
-0.124034
0.110875
0.562731
1.03903
1.46241
1.75743
1.90483
1.95412
1.96296
-0.674837
-0.675558
-0.67764
-0.680634
-0.67891
-0.651527
-0.599761
-0.534521
-0.452913
-0.352899
-0.237912
-0.116333
0.0610285
0.440388
0.814114
1.14162
1.36713
1.4755
1.51019
1.5162
-0.670281
-0.671187
-0.672494
-0.6736
-0.67189
-0.650079
-0.606085
-0.540452
-0.454999
-0.352538
-0.244117
-0.135925
-0.00269747
0.277315
0.548924
0.763535
0.905932
0.972485
0.997884
1.00432
-0.682422
-0.679878
-0.665797
-0.63847
-0.624422
-0.636243
-0.61873
-0.553491
-0.463512
-0.360036
-0.260558
-0.167533
-0.0635185
0.130556
0.312753
0.445722
0.529239
0.571826
0.594239
0.602796
-0.737514
-0.732193
-0.719041
-0.699821
-0.691768
-0.698746
-0.663135
-0.577318
-0.47389
-0.367057
-0.278561
-0.207907
-0.134201
0.0199299
0.158668
0.253427
0.315849
0.351113
0.370725
0.377314
-0.853671
-0.864665
-0.895826
-0.92508
-0.919423
-0.874983
-0.751498
-0.610252
-0.480916
-0.371464
-0.290953
-0.235441
-0.179773
-0.0602863
0.051117
0.136888
0.197138
0.232376
0.24868
0.252844
-0.961521
-0.984074
-1.0268
-1.05558
-1.04616
-0.975962
-0.800984
-0.620429
-0.47584
-0.365398
-0.290596
-0.246174
-0.206497
-0.101133
-0.00595137
0.0649663
0.119933
0.152314
0.165841
0.167757
-0.908282
-0.930771
-0.96679
-0.994721
-0.986245
-0.904395
-0.73459
-0.572887
-0.440862
-0.340958
-0.274363
-0.2351
-0.196606
-0.115863
-0.0419457
0.0134046
0.055116
0.0786843
0.0877265
0.0891456
-0.649255
-0.668768
-0.702733
-0.734787
-0.736769
-0.674374
-0.566753
-0.461384
-0.372076
-0.29767
-0.242075
-0.201781
-0.15994
-0.107671
-0.0590306
-0.0185699
0.0130949
0.0315117
0.0389733
0.0387636
-0.303803
-0.314351
-0.335587
-0.363643
-0.384582
-0.379791
-0.358759
-0.324593
-0.286133
-0.243697
-0.203214
-0.164443
-0.127983
-0.0957731
-0.0657701
-0.0384751
-0.0170069
-0.00404443
0.00033397
-0.000427386
-0.0434203
-0.0480695
-0.0621413
-0.0886766
-0.125421
-0.163376
-0.189972
-0.204115
-0.203483
-0.188801
-0.164402
-0.136731
-0.113027
-0.0960633
-0.0757464
-0.0562823
-0.0406569
-0.0319531
-0.029554
-0.0311315
0.080726
0.0783393
0.068338
0.0446299
0.0054656
-0.0421512
-0.0861226
-0.11995
-0.139352
-0.143058
-0.132617
-0.116738
-0.106361
-0.100858
-0.0893488
-0.0770648
-0.0671215
-0.0628336
-0.0628023
-0.0645619
0.110955
0.109311
0.10195
0.0835262
0.0516785
0.0108148
-0.0315505
-0.0689019
-0.0959413
-0.109524
-0.108963
-0.102742
-0.10087
-0.104107
-0.102124
-0.0996831
-0.0984699
-0.10108
-0.102788
-0.103849
0.0993624
0.0981957
0.0930548
0.0800957
0.0572346
0.0265495
-0.00809478
-0.0416417
-0.0697784
-0.0883612
-0.0934947
-0.0910495
-0.0927719
-0.102237
-0.110589
-0.117841
-0.125383
-0.132136
-0.135165
-0.135669
0.0750089
0.0742208
0.0707585
0.061995
0.0461827
0.0239863
-0.00289484
-0.0310823
-0.0573797
-0.077931
-0.0866109
-0.084921
-0.0848987
-0.101032
-0.118676
-0.131523
-0.141935
-0.148963
-0.151376
-0.151768
0.0499971
0.0494861
0.0471642
0.0412569
0.0303486
0.014369
-0.00617743
-0.0296195
-0.0541881
-0.0772943
-0.0925876
-0.0962903
-0.0972763
-0.11603
-0.132512
-0.144171
-0.152023
-0.156239
-0.157591
-0.158093
0.0287538
0.028367
0.0267912
0.0227394
0.0150791
0.00335834
-0.0126492
-0.0325509
-0.0561234
-0.0837385
-0.111937
-0.135394
-0.147875
-0.157905
-0.161819
-0.162798
-0.163816
-0.164192
-0.16462
-0.165264
0.0126319
0.0123368
0.011197
0.00836818
0.00286352
-0.0059113
-0.018618
-0.035785
-0.0587487
-0.0909859
-0.135434
-0.18895
-0.218482
-0.211725
-0.195231
-0.18465
-0.179846
-0.178719
-0.178563
-0.178862
0.00172986
0.00151218
0.000684319
-0.0013037
-0.00522015
-0.0118163
-0.0218813
-0.0364923
-0.0579262
-0.0921589
-0.146051
-0.21851
-0.254859
-0.232337
-0.206639
-0.193853
-0.189879
-0.189381
-0.188839
-0.18856
-0.00434552
-0.00451112
-0.0050989
-0.00645605
-0.00915918
-0.0139204
-0.0216042
-0.033448
-0.0518144
-0.0826834
-0.133221
-0.198916
-0.222365
-0.199757
-0.181757
-0.17732
-0.179206
-0.180785
-0.180106
-0.179386
-0.00625574
-0.00637593
-0.00675885
-0.00755347
-0.00925952
-0.0124042
-0.0176786
-0.0260976
-0.0395008
-0.0621156
-0.0979005
-0.138307
-0.144438
-0.134332
-0.128934
-0.134091
-0.140777
-0.143462
-0.142995
-0.142009
-0.00487006
-0.00492323
-0.00509151
-0.00548457
-0.00633716
-0.00799954
-0.0108889
-0.0155952
-0.0231008
-0.0356768
-0.0530077
-0.067109
-0.0648682
-0.0604057
-0.0660768
-0.0751762
-0.0816936
-0.0837426
-0.0833423
-0.0829089
-0.00127949
-0.00125517
-0.00128828
-0.00127357
-0.00120594
-0.00127416
-0.00162324
-0.00231631
-0.00345248
-0.00518736
-0.00711749
-0.00670206
-0.00973222
-0.00943445
-0.0121094
-0.016272
-0.0171219
-0.0154696
-0.0156791
-0.0158438
-0.136812
0.0297634
0.224113
0.393738
0.529128
0.635576
0.723507
0.798409
0.832622
0.809365
0.164887
0.285303
0.414822
0.526689
0.620895
0.698782
0.761843
0.806642
0.829068
0.841194
0.383049
0.465623
0.55414
0.632259
0.699418
0.755604
0.8003
0.832975
0.856622
0.874638
0.543404
0.602521
0.663909
0.720842
0.770333
0.812374
0.846921
0.8745
0.897244
0.915565
0.668523
0.711506
0.757356
0.80104
0.839643
0.873372
0.902256
0.926309
0.946665
0.964514
0.772644
0.805444
0.843481
0.87895
0.91152
0.940725
0.966255
0.987724
1.00556
1.02291
0.865067
0.893718
0.927638
0.959731
0.989645
1.01679
1.04052
1.06023
1.07572
1.0928
0.953581
0.982758
1.01674
1.04875
1.07834
1.10491
1.12776
1.14624
1.15961
1.17664
1.04885
1.08204
1.11867
1.15223
1.18227
1.20844
1.23039
1.24766
1.25952
1.27692
1.16382
1.20164
1.24027
1.27451
1.30384
1.32859
1.34895
1.36484
1.3763
1.39437
1.30874
1.34728
1.38342
1.4141
1.43977
1.46186
1.48091
1.49644
1.50887
1.52686
1.48381
1.51543
1.54161
1.56405
1.58402
1.60274
1.62046
1.63693
1.65228
1.67035
1.67242
1.68962
1.70465
1.72088
1.73679
1.75132
1.76452
1.77845
1.79599
1.81614
1.85413
1.86367
1.87521
1.88602
1.8953
1.90489
1.91567
1.92703
1.93839
1.95375
2.06137
2.06503
2.05008
2.03528
2.029
2.03467
2.05315
2.08346
2.11564
2.14229
2.36769
2.23282
2.15618
2.1138
2.09638
2.10034
2.12774
2.18415
2.28677
2.51114
0.675832
0.673704
0.669221
0.660597
0.648374
0.636248
0.626022
0.618132
0.612522
0.609279
0.608938
0.611688
0.616802
0.624031
0.633423
0.644965
0.657618
0.668653
0.674766
0.67782
0.600282
0.606129
0.612463
0.616957
0.619428
0.619106
0.616372
0.612567
0.609065
0.606817
0.606684
0.608894
0.612566
0.616862
0.620673
0.622559
0.621624
0.618144
0.612982
0.606361
0.591852
0.594148
0.597552
0.600549
0.602626
0.604124
0.604883
0.604572
0.603556
0.602685
0.602875
0.604315
0.60614
0.607452
0.607637
0.606749
0.605202
0.602867
0.599605
0.596685
0.586333
0.587419
0.589252
0.591631
0.593656
0.595087
0.596111
0.596869
0.59728
0.597516
0.598023
0.598845
0.599453
0.599526
0.599118
0.598273
0.596806
0.594723
0.592638
0.591255
0.581119
0.581782
0.58289
0.584596
0.586379
0.588013
0.589313
0.590335
0.591229
0.592034
0.592782
0.593349
0.593554
0.593394
0.592832
0.591781
0.590356
0.588814
0.587497
0.586718
0.57613
0.57659
0.577376
0.578675
0.580163
0.581683
0.583152
0.584457
0.585605
0.586678
0.587613
0.588199
0.588357
0.588091
0.587399
0.586414
0.585291
0.584161
0.583247
0.582731
0.571284
0.571629
0.57224
0.573308
0.574604
0.57598
0.577423
0.578876
0.580262
0.581561
0.582695
0.583406
0.583597
0.583331
0.582739
0.581967
0.58112
0.580256
0.579586
0.579208
0.566528
0.566796
0.567289
0.568198
0.569369
0.570668
0.572067
0.573563
0.575117
0.576657
0.578031
0.578923
0.579241
0.579132
0.578748
0.578194
0.57755
0.576915
0.576425
0.576137
0.561781
0.561993
0.562403
0.563202
0.564292
0.565542
0.566932
0.568476
0.570162
0.571939
0.573601
0.574755
0.575312
0.575444
0.575288
0.574955
0.574518
0.574074
0.573724
0.573498
0.556952
0.557124
0.557475
0.5582
0.559244
0.560473
0.561891
0.563518
0.56536
0.567393
0.569397
0.570908
0.571787
0.572205
0.572301
0.572196
0.571971
0.571699
0.571465
0.571286
0.551956
0.552094
0.552404
0.553085
0.554112
0.555365
0.556848
0.558601
0.560654
0.562997
0.565421
0.567375
0.568641
0.569391
0.569773
0.569912
0.569896
0.569791
0.569656
0.569512
0.546702
0.546813
0.547095
0.547757
0.548801
0.550123
0.551718
0.55365
0.55598
0.558717
0.561657
0.564145
0.565867
0.567001
0.567706
0.56811
0.568309
0.568374
0.568325
0.568208
0.541095
0.541183
0.541449
0.542115
0.543214
0.544647
0.546407
0.548587
0.551272
0.554507
0.558082
0.561209
0.563471
0.56505
0.566118
0.566834
0.567276
0.567497
0.567523
0.567427
0.535026
0.535094
0.535353
0.536047
0.537238
0.538829
0.540818
0.543325
0.546463
0.55032
0.55467
0.558567
0.561471
0.563572
0.565058
0.566119
0.566826
0.567219
0.567318
0.567239
0.528368
0.528416
0.528677
0.529421
0.530743
0.532549
0.53484
0.537766
0.541479
0.546105
0.551399
0.556222
0.559887
0.562605
0.564581
0.566028
0.567045
0.567622
0.567791
0.567726
0.520966
0.520996
0.521262
0.522079
0.523579
0.525664
0.528342
0.5318
0.536232
0.541805
0.548244
0.55418
0.558751
0.562195
0.564752
0.56666
0.568025
0.568801
0.569041
0.568986
0.512627
0.512643
0.512912
0.513826
0.51556
0.51799
0.521166
0.525299
0.530628
0.537366
0.545196
0.55246
0.558105
0.562403
0.565646
0.568107
0.569869
0.570861
0.571172
0.571125
0.503041
0.503028
0.503357
0.504412
0.50643
0.509316
0.513127
0.51811
0.52456
0.532735
0.542246
0.551091
0.558002
0.563307
0.567354
0.570462
0.572678
0.573911
0.574294
0.574252
0.491923
0.491884
0.492258
0.493507
0.495897
0.499371
0.503991
0.510052
0.517908
0.527852
0.539393
0.550111
0.558503
0.564986
0.569977
0.573826
0.57657
0.578059
0.578513
0.578471
0.47879
0.478724
0.479176
0.480679
0.483554
0.487795
0.493462
0.500906
0.510536
0.522663
0.536641
0.549562
0.559671
0.567514
0.573606
0.57831
0.581642
0.583399
0.583916
0.583869
0.462994
0.4629
0.463477
0.465331
0.468858
0.474124
0.481182
0.490434
0.502325
0.517147
0.534035
0.549515
0.561589
0.570975
0.578322
0.583992
0.587965
0.589989
0.590557
0.590498
0.443602
0.443481
0.444259
0.446629
0.451072
0.457762
0.466719
0.47838
0.493184
0.511335
0.531661
0.550062
0.564344
0.575451
0.584175
0.590924
0.595567
0.597835
0.598428
0.598352
0.419198
0.41906
0.420171
0.42334
0.429169
0.437945
0.449595
0.464535
0.483099
0.505317
0.529644
0.551318
0.568014
0.581004
0.591204
0.599116
0.604401
0.606855
0.60744
0.607337
0.387481
0.387364
0.389086
0.393637
0.401765
0.413784
0.429382
0.44882
0.472195
0.499305
0.528189
0.553433
0.572692
0.587662
0.59943
0.608499
0.614323
0.616858
0.617389
0.617252
0.344304
0.344349
0.347412
0.354841
0.36723
0.384542
0.405983
0.431482
0.46085
0.493665
0.527577
0.556584
0.578475
0.595452
0.608769
0.618918
0.625061
0.627515
0.627941
0.627769
0.281915
0.283113
0.2906
0.304452
0.32462
0.350344
0.380011
0.413229
0.449692
0.488872
0.528097
0.560924
0.585406
0.604315
0.619057
0.63
0.636185
0.638318
0.638576
0.638382
0.207926
0.209679
0.224006
0.247787
0.278863
0.314525
0.35317
0.394616
0.438676
0.484863
0.530243
0.567791
0.595628
0.616986
0.633442
0.645183
0.65125
0.653135
0.653357
0.653258
0.131578
0.137745
0.158902
0.192903
0.234366
0.279669
0.327252
0.376983
0.42874
0.482067
0.533782
0.576202
0.607482
0.631403
0.649762
0.662076
0.667633
0.669058
0.66921
0.669179
0.0691251
0.077591
0.103309
0.144312
0.193913
0.247449
0.303098
0.360584
0.41968
0.47987
0.53766
0.584684
0.619166
0.645347
0.664996
0.677653
0.683125
0.684381
0.684557
0.684583
0.0183319
0.0273934
0.0566543
0.102887
0.158633
0.218803
0.281272
0.345604
0.411406
0.478037
0.541595
0.592989
0.630463
0.658742
0.679785
0.69296
0.698294
0.699783
0.700052
0.700121
-0.0241779
-0.0148349
0.016872
0.0670971
0.127887
0.193563
0.261821
0.332151
0.403994
0.476566
0.545548
0.601102
0.641445
0.671788
0.694194
0.708019
0.713777
0.715511
0.715803
0.715888
-0.0607654
-0.0513112
-0.0177661
0.0356596
0.100621
0.170997
0.244301
0.319939
0.397247
0.475311
0.549407
0.608928
0.652041
0.68437
0.708106
0.722879
0.72911
0.731005
0.731331
0.731411
-0.0931001
-0.0836095
-0.0486532
0.00747605
0.0759316
0.150357
0.228123
0.308542
0.390869
0.474061
0.553003
0.616319
0.662081
0.696299
0.721347
0.736899
0.743706
0.745777
0.746123
0.746191
-0.122462
-0.112931
-0.0768169
-0.0183545
0.0530973
0.13107
0.212808
0.297569
0.384525
0.472543
0.556115
0.623079
0.671375
0.707362
0.733622
0.749933
0.757255
0.759464
0.759815
0.759847
-0.149726
-0.140148
-0.103016
-0.0425439
0.0315787
0.112692
0.19798
0.286687
0.377942
0.470531
0.55858
0.629093
0.679822
0.717478
0.744805
0.76172
0.769475
0.77181
0.772168
0.772182
-0.175455
-0.165817
-0.12773
-0.0655611
0.0109677
0.0948789
0.183364
0.275675
0.370925
0.467865
0.560276
0.634299
0.687409
0.726649
0.754913
0.772304
0.78028
0.782724
0.783085
0.783074
-0.200151
-0.190357
-0.151418
-0.0876786
-0.00900992
0.0773983
0.168771
0.264372
0.363343
0.464425
0.561116
0.638673
0.694177
0.734934
0.764059
0.781797
0.789849
0.79229
0.792657
0.79262
-0.224062
-0.214051
-0.174367
-0.109102
-0.0285356
0.0600982
0.154076
0.252679
0.355097
0.460126
0.561044
0.642205
0.700187
0.74248
0.772342
0.790274
0.798316
0.800721
0.801054
0.800993
-0.2473
-0.237082
-0.196619
-0.129983
-0.0477261
0.0429055
0.139214
0.240541
0.34614
0.454908
0.560003
0.644893
0.705504
0.749417
0.77997
0.79798
0.805896
0.808202
0.808482
0.808397
-0.270031
-0.259516
-0.218305
-0.1504
-0.0666334
0.0257763
0.124166
0.227946
0.336461
0.448743
0.557939
0.646714
0.710197
0.755903
0.787129
0.80506
0.812729
0.814864
0.815073
0.814963
-0.292217
-0.281431
-0.239496
-0.170397
-0.0852662
0.00871811
0.108957
0.214924
0.326073
0.441616
0.554805
0.647617
0.714306
0.762068
0.794004
0.811693
0.818907
0.820772
0.820877
0.82074
-0.313921
-0.302833
-0.260126
-0.18996
-0.103611
-0.00824108
0.093623
0.201527
0.315024
0.433544
0.550559
0.647533
0.717807
0.768022
0.800833
0.818095
0.824552
0.825977
0.825958
0.825805
-0.334977
-0.323656
-0.280195
-0.209054
-0.121624
-0.0250348
0.0782259
0.18782
0.303383
0.42458
0.545173
0.646377
0.720623
0.773816
0.807894
0.824669
0.829974
0.830621
0.830385
0.830231
-0.355524
-0.343862
-0.29969
-0.227664
-0.139278
-0.0416268
0.0628543
0.173882
0.291232
0.414796
0.538652
0.644044
0.722605
0.779386
0.81541
0.83201
0.835839
0.835043
0.834244
0.834091
-0.3754
-0.363427
-0.318585
-0.245745
-0.156497
-0.0579352
0.0475871
0.159831
0.27868
0.404254
0.531032
0.640426
0.723553
0.784508
0.823346
0.840763
0.84347
0.84047
0.838025
0.837128
-0.394668
-0.382396
-0.336829
-0.263248
-0.173246
-0.0738923
0.0325062
0.145745
0.265835
0.393089
0.52238
0.635417
0.723225
0.788792
0.83119
0.851025
0.854418
0.849938
0.84346
0.835153
-0.413245
-0.400725
-0.354512
-0.28033
-0.189731
-0.0897657
0.0172846
0.131234
0.252261
0.380813
0.512178
0.628477
0.721148
0.791901
0.838297