/*--------------------------------*- C++ -*----------------------------------*\
| =========                 |                                                 |
| \\      /  F ield         | OpenFOAM: The Open Source CFD Toolbox           |
|  \\    /   O peration     | Version:  4.0                                   |
|   \\  /    A nd           | Web:      www.OpenFOAM.org                      |
|    \\/     M anipulation  |                                                 |
\*---------------------------------------------------------------------------*/
FoamFile
{
    version     2.0;
    format      ascii;
    class       volScalarField;
    location    "9";
    object      p;
}
// * * * * * * * * * * * * * * * * * * * * * * * * * * * * * * * * * * * * * //

dimensions      [0 2 -2 0 0 0 0];

internalField   nonuniform List<scalar> 
2200
(
0.435078
0.413633
0.39797
0.382435
0.368293
0.356331
0.346482
0.338924
0.333574
0.330831
0.331037
0.334196
0.339834
0.347602
0.357605
0.369672
0.383887
0.399465
0.415153
0.436611
0.366728
0.36363
0.361182
0.357799
0.353131
0.34716
0.341079
0.335613
0.331398
0.328998
0.329238
0.33207
0.336591
0.342277
0.348512
0.35458
0.359315
0.362748
0.365227
0.368337
0.325036
0.32576
0.328833
0.331166
0.3324
0.332408
0.331277
0.329186
0.327032
0.325498
0.325801
0.327777
0.330246
0.332575
0.333879
0.334002
0.332859
0.330585
0.327554
0.326842
0.303074
0.304585
0.307933
0.311139
0.314096
0.316822
0.318697
0.319582
0.319753
0.319658
0.319956
0.320597
0.320818
0.32022
0.318546
0.315957
0.313088
0.30994
0.306641
0.305144
0.29298
0.294574
0.297606
0.300638
0.303608
0.306358
0.30859
0.310463
0.311799
0.312692
0.313052
0.312838
0.312024
0.310494
0.308478
0.305862
0.302982
0.300005
0.297017
0.295431
0.291708
0.29284
0.295035
0.297568
0.300203
0.302402
0.304214
0.305821
0.307126
0.308119
0.308545
0.308299
0.307589
0.306414
0.304887
0.302898
0.300419
0.297968
0.295808
0.294683
0.29363
0.294188
0.295283
0.29689
0.298763
0.300446
0.301992
0.303359
0.304456
0.305289
0.305757
0.30576
0.305388
0.304566
0.303418
0.302023
0.300341
0.29885
0.297797
0.297224
0.293554
0.293676
0.293991
0.294604
0.295519
0.296541
0.297729
0.298954
0.300133
0.301131
0.301787
0.301923
0.301629
0.301037
0.300311
0.299594
0.298867
0.298368
0.298111
0.297998
0.290559
0.290577
0.290595
0.290748
0.291102
0.291598
0.292374
0.293378
0.294534
0.295717
0.296662
0.297055
0.296984
0.296717
0.296426
0.296239
0.296089
0.296056
0.296106
0.296078
0.286838
0.286811
0.286886
0.287056
0.287356
0.287762
0.288355
0.28915
0.290167
0.291374
0.292484
0.293234
0.293562
0.293712
0.29376
0.293783
0.293766
0.293767
0.293786
0.293796
0.283169
0.283199
0.283317
0.283551
0.283908
0.284389
0.285046
0.285892
0.286977
0.288283
0.289579
0.290612
0.291239
0.291647
0.29188
0.291986
0.292004
0.291994
0.29198
0.291974
0.279181
0.279211
0.27931
0.279498
0.279839
0.280339
0.281065
0.282047
0.28333
0.284914
0.286567
0.287868
0.28881
0.289424
0.289796
0.290016
0.290137
0.290203
0.290231
0.290227
0.274525
0.274534
0.274651
0.274837
0.275153
0.275669
0.276448
0.277565
0.279092
0.281049
0.283184
0.284924
0.286175
0.287033
0.287601
0.287974
0.288213
0.288361
0.288438
0.288445
0.269303
0.269308
0.269441
0.26969
0.270086
0.270696
0.271617
0.27295
0.274803
0.277237
0.279941
0.282211
0.28386
0.285012
0.285784
0.286297
0.286623
0.286821
0.286919
0.286929
0.263602
0.263617
0.263775
0.264083
0.264588
0.265363
0.266517
0.26818
0.270493
0.273551
0.27696
0.279876
0.282004
0.283468
0.28446
0.285113
0.285525
0.285769
0.285888
0.285896
0.257274
0.257296
0.257499
0.257887
0.25852
0.259497
0.260951
0.263049
0.265966
0.269829
0.274144
0.277828
0.280501
0.282358
0.283618
0.284444
0.284968
0.285279
0.28543
0.285439
0.2501
0.25013
0.250384
0.250867
0.251661
0.252899
0.254744
0.257409
0.26111
0.265999
0.271446
0.276076
0.279435
0.281777
0.283363
0.284403
0.285062
0.285452
0.285642
0.285654
0.241753
0.241793
0.242132
0.242772
0.243811
0.245408
0.247775
0.25118
0.255892
0.262088
0.268951
0.274755
0.278959
0.281889
0.28387
0.285172
0.286
0.286494
0.286734
0.286748
0.232076
0.232128
0.232552
0.233362
0.234691
0.236756
0.239819
0.244211
0.250244
0.258105
0.26673
0.273977
0.279216
0.282864
0.285328
0.286943
0.287964
0.288564
0.288853
0.288868
0.220317
0.22041
0.221015
0.222141
0.223935
0.226653
0.230653
0.236343
0.244085
0.254047
0.264841
0.273848
0.280343
0.284865
0.287921
0.289929
0.291209
0.291975
0.292349
0.292368
0.206319
0.206408
0.207161
0.208621
0.211005
0.21464
0.219957
0.227415
0.237384
0.249983
0.263419
0.274541
0.282552
0.288143
0.291932
0.294424
0.295999
0.296923
0.297361
0.297371
0.188541
0.188782
0.189948
0.192057
0.195365
0.200302
0.207425
0.217237
0.230074
0.245932
0.262527
0.276149
0.285962
0.292837
0.297524
0.300627
0.302614
0.303808
0.304395
0.304427
0.166394
0.166626
0.168195
0.171195
0.175969
0.182962
0.192726
0.205749
0.222243
0.242059
0.262371
0.278902
0.290823
0.299248
0.305071
0.30899
0.311522
0.313024
0.313728
0.313726
0.136953
0.137737
0.14043
0.145093
0.152198
0.16219
0.175686
0.192954
0.214012
0.238517
0.263075
0.282883
0.297201
0.307425
0.314609
0.31953
0.322799
0.324845
0.325866
0.325867
0.0981752
0.0993241
0.103732
0.111547
0.12281
0.137593
0.156277
0.178971
0.20555
0.235464
0.26475
0.288157
0.305139
0.317431
0.32629
0.332624
0.33699
0.339763
0.34129
0.341154
0.0466483
0.0473789
0.0560212
0.0695235
0.0876183
0.10928
0.134829
0.164317
0.197343
0.233278
0.26764
0.294849
0.314679
0.329262
0.339999
0.347917
0.353749
0.357736
0.359449
0.359105
-0.0259173
-0.0204103
-0.00125112
0.0222251
0.048959
0.0787852
0.112286
0.149322
0.189423
0.232062
0.272174
0.303899
0.327362
0.345082
0.358691
0.369232
0.377542
0.384332
0.387693
0.387955
-0.113066
-0.0938281
-0.0608007
-0.0264509
0.00936194
0.0479696
0.0897764
0.13441
0.181835
0.231613
0.278164
0.3152
0.343037
0.364571
0.381659
0.395579
0.406779
0.41545
0.423774
0.425274
-0.176829
-0.157737
-0.115682
-0.0738479
-0.0292039
0.0183515
0.0682103
0.12034
0.174935
0.23152
0.284053
0.325728
0.357021
0.381211
0.400291
0.415592
0.428462
0.437588
0.445247
0.446898
-0.224344
-0.207041
-0.161218
-0.115244
-0.0637642
-0.00888931
0.0478894
0.106961
0.168173
0.230976
0.288779
0.33418
0.367848
0.393476
0.413338
0.42876
0.441626
0.450875
0.458029
0.45956
-0.263391
-0.245632
-0.197981
-0.149703
-0.0931586
-0.0332816
0.0289943
0.0940171
0.161031
0.229421
0.291874
0.340347
0.375762
0.402279
0.422539
0.438085
0.450722
0.459949
0.46711
0.468356
-0.29659
-0.278308
-0.228386
-0.177881
-0.117885
-0.0548741
0.0116571
0.0815473
0.153607
0.227126
0.29394
0.345284
0.382323
0.409698
0.430383
0.446176
0.458678
0.467942
0.474828
0.476375
-0.325604
-0.307488
-0.255159
-0.202106
-0.139361
-0.0740561
-0.00409961
0.0697494
0.146235
0.224507
0.295537
0.349748
0.388483
0.416811
0.437977
0.454025
0.466483
0.475725
0.482487
0.484018
-0.351606
-0.33359
-0.280019
-0.224481
-0.159288
-0.0916899
-0.0186882
0.058511
0.138954
0.221682
0.296923
0.354127
0.394635
0.423935
0.445592
0.461867
0.474321
0.483525
0.490208
0.491689
-0.375281
-0.356896
-0.303319
-0.24579
-0.178689
-0.108701
-0.0328678
0.0473617
0.131456
0.218416
0.297858
0.358157
0.400621
0.431085
0.453339
0.469896
0.482435
0.491628
0.498154
0.499568
-0.397321
-0.378669
-0.324913
-0.266134
-0.197692
-0.125548
-0.0471919
0.0358623
0.123398
0.21448
0.298303
0.362095
0.406809
0.438548
0.461484
0.478383
0.49101
0.500208
0.506691
0.508072
-0.418191
-0.399555
-0.345269
-0.285609
-0.216132
-0.142238
-0.0617629
0.0238749
0.114669
0.209838
0.298201
0.365668
0.412932
0.446288
0.470103
0.487369
0.50016
0.509365
0.515703
0.517009
-0.438429
-0.419566
-0.364797
-0.304371
-0.23397
-0.15868
-0.076467
0.0114417
0.105218
0.204266
0.297134
0.368696
0.419078
0.454417
0.479304
0.49719
0.510158
0.519438
0.525671
0.526861
-0.458258
-0.438862
-0.383729
-0.322575
-0.251312
-0.174873
-0.0912257
-0.00138079
0.0950724
0.197898
0.295623
0.371641
0.425332
0.462994
0.489272
0.507635
0.520776
0.529983
0.536126
0.537345
-0.47763
-0.457645
-0.402173
-0.340321
-0.268286
-0.190878
-0.106033
-0.0145541
0.0842792
0.190638
0.292915
0.373411
0.430944
0.471427
0.499539
0.518913
0.532407
0.541584
0.54756
0.548585
-0.496441
-0.475965
-0.420121
-0.357631
-0.28493
-0.206724
-0.1209
-0.0280781
0.0727723
0.182278
0.289129
0.374535
0.436267
0.480309
0.510752
0.531308
0.544897
0.553877
0.559589
0.560335
-0.5146
-0.493735
-0.437492
-0.37445
-0.301208
-0.222379
-0.135805
-0.0419195
0.0606469
0.173165
0.284773
0.37499
0.440853
0.488253
0.521814
0.544311
0.5587
0.567549
0.572355
0.572566
-0.532032
-0.510857
-0.454194
-0.390698
-0.317038
-0.237762
-0.150662
-0.055969
0.0480175
0.163156
0.278744
0.373654
0.444248
0.496262
0.533733
0.559416
0.574707
0.581983
0.584891
0.583864
-0.548663
-0.527245
-0.470159
-0.406302
-0.332331
-0.252768
-0.165362
-0.0701428
0.0348934
0.15217
0.271836
0.371294
0.4461
0.50223
0.544349
0.574343
0.592593
0.599214
0.598748
0.595187
-0.564442
-0.542839
-0.485341
-0.421208
-0.347017
-0.267314
-0.179815
-0.0843618
0.0213992
0.140598
0.264099
0.367772
0.446427
0.506425
0.553637
0.590068
0.614926
0.621749
0.612916
0.615589
-0.579353
-0.557575
-0.499712
-0.435375
-0.361053
-0.281337
-0.193931
-0.0984961
0.00769936
0.128442
0.255066
0.362523
0.444568
0.508164
0.559946
0.603902
0.63914
0.648996
0.613511
0.555109
-0.593428
-0.571479
-0.513323
-0.448879
-0.374551
-0.29497
-0.207868
-0.112752
-0.00649168
0.115353
0.244999
0.355718
0.439615
0.506035
0.561249
0.612555
0.662286
0.705631
0.743545
0.799386
-0.60668
-0.584627
-0.526277
-0.461856
-0.387677
-0.308423
-0.221892
-0.127478
-0.0217067
0.100705
0.233034
0.346728
0.432395
0.49907
0.553918
0.599732
0.636591
0.671015
0.669753
0.671458
-0.619103
-0.597032
-0.538548
-0.474279
-0.400355
-0.321593
-0.235867
-0.1425
-0.0377267
0.0847155
0.21916
0.335484
0.420702
0.483673
0.532213
0.566583
0.573712
0.546015
0.499901
0.494799
-0.630711
-0.608708
-0.550152
-0.486163
-0.412572
-0.33447
-0.249776
-0.157775
-0.0544234
0.067544
0.203468
0.32259
0.405326
0.458006
0.494095
0.504014
0.469269
0.402797
0.331437
0.324029
-0.641544
-0.619693
-0.561116
-0.497525
-0.424342
-0.347061
-0.263602
-0.17326
-0.0718825
0.048917
0.186141
0.308077
0.387103
0.420929
0.430468
0.407278
0.355804
0.250077
0.156998
0.142556
-0.651941
-0.630357
-0.571793
-0.508657
-0.435968
-0.359627
-0.277591
-0.189224
-0.0903041
0.0285663
0.166874
0.291106
0.365938
0.380103
0.353107
0.294874
0.179079
0.0429116
-0.0770247
-0.0998952
-0.662593
-0.641283
-0.582728
-0.520024
-0.447914
-0.372573
-0.292133
-0.206064
-0.109957
0.00631252
0.145419
0.272366
0.342125
0.331928
0.262567
0.147508
-0.0393973
-0.215789
-0.358731
-0.38544
-0.673887
-0.652704
-0.5941
-0.53175
-0.46027
-0.385963
-0.307269
-0.223875
-0.131139
-0.0182928
0.121463
0.25215
0.313888
0.273741
0.17078
-0.0207929
-0.273781
-0.530187
-0.738172
-0.792727
-0.685825
-0.664624
-0.605857
-0.543783
-0.472938
-0.399711
-0.322941
-0.242637
-0.154012
-0.0453246
0.0937472
0.229617
0.284672
0.203989
0.0599558
-0.198038
-0.512393
-0.884996
-1.26722
-1.41052
-0.698284
-0.677022
-0.617962
-0.556107
-0.485863
-0.413779
-0.339116
-0.262228
-0.178602
-0.074771
0.0617207
0.204458
0.257688
0.131337
-0.0821061
-0.388491
-0.731766
-1.20226
-1.89955
-2.53116
-0.711102
-0.689737
-0.630303
-0.56864
-0.498936
-0.42802
-0.355616
-0.282571
-0.204988
-0.107298
0.0252907
0.176974
0.228451
0.060015
-0.227615
-0.592334
-0.934111
-1.32647
-2.0832
-3.95847
-0.724143
-0.702665
-0.642774
-0.581307
-0.512101
-0.442418
-0.372518
-0.303997
-0.233989
-0.143927
-0.0182905
0.142808
0.194825
-0.0115526
-0.354954
-0.755609
-1.05789
-1.24403
-1.38506
-1.87338
-0.737306
-0.715694
-0.655368
-0.594091
-0.525402
-0.457036
-0.390041
-0.326724
-0.266413
-0.18715
-0.0751915
0.0947645
0.147706
-0.0822142
-0.44802
-0.820053
-1.08043
-1.19822
-1.21471
-1.26982
-0.750548
-0.728701
-0.667915
-0.606787
-0.538613
-0.471585
-0.407827
-0.350537
-0.301537
-0.246
-0.147723
0.0219817
0.0733855
-0.161848
-0.536529
-0.838768
-1.03269
-1.1433
-1.16638
-1.20861
-0.763554
-0.74138
-0.680164
-0.619071
-0.551424
-0.485716
-0.425264
-0.375142
-0.340709
-0.314888
-0.251222
-0.0972549
-0.0266107
-0.275024
-0.643658
-0.873973
-0.966381
-0.96429
-1.04241
-1.04153
-0.77594
-0.753474
-0.691686
-0.630524
-0.563341
-0.498953
-0.441718
-0.399282
-0.382951
-0.398102
-0.394081
-0.278637
-0.162027
-0.425812
-0.76807
-0.945179
-0.953727
-0.874188
-0.980934
-1.00522
-0.787223
-0.764352
-0.702075
-0.640646
-0.573761
-0.510609
-0.456464
-0.421458
-0.42796
-0.497737
-0.598196
-0.541231
-0.383952
-0.612166
-0.914446
-1.11036
-1.15055
-1.12683
-1.1407
-1.17192
-0.797095
-0.773839
-0.710822
-0.648879
-0.582011
-0.519586
-0.468172
-0.440317
-0.473358
-0.61525
-0.864074
-0.875352
-0.695219
-0.823814
-1.14829
-1.47866
-1.70376
-1.72462
-1.61967
-1.59945
-0.80515
-0.781189
-0.717459
-0.654748
-0.587383
-0.524946
-0.475382
-0.454442
-0.51024
-0.717551
-1.11457
-1.2268
-0.950284
-0.98331
-1.31682
-1.77398
-2.07785
-2.05124
-1.88539
-1.82473
-0.811484
-0.786383
-0.721718
-0.657666
-0.589359
-0.525942
-0.476323
-0.459086
-0.530365
-0.76541
-1.26841
-1.42983
-1.05286
-1.01757
-1.21145
-1.54198
-1.73541
-1.70232
-1.54271
-1.44876
-0.815981
-0.78889
-0.723212
-0.657553
-0.587671
-0.521989
-0.470074
-0.452921
-0.522241
-0.763065
-1.28214
-1.38526
-0.917834
-0.743322
-0.706097
-0.758224
-0.826536
-0.791502
-0.721399
-0.677314
-0.818221
-0.788793
-0.721642
-0.654316
-0.581906
-0.512898
-0.45633
-0.431342
-0.480482
-0.683531
-1.10884
-1.09625
-0.541253
-0.209556
0.0261953
0.121193
0.0926905
0.100685
0.135518
0.152918
-0.817553
-0.787131
-0.71832
-0.647921
-0.572381
-0.499234
-0.435373
-0.39522
-0.410367
-0.534716
-0.772233
-0.596134
-0.0638115
0.308389
0.581361
0.696816
0.721125
0.749931
0.768169
0.775292
-0.812286
-0.783695
-0.711558
-0.638512
-0.560224
-0.482303
-0.409355
-0.351149
-0.324906
-0.354625
-0.393615
-0.0893158
0.315398
0.629436
0.857694
0.975946
1.03421
1.07183
1.08856
1.09217
-0.803023
-0.775046
-0.699278
-0.625971
-0.545784
-0.462744
-0.380768
-0.304884
-0.239694
-0.186015
-0.0816012
0.261944
0.566309
0.81867
0.989532
1.09231
1.15434
1.1937
1.21421
1.22023
-0.78884
-0.761846
-0.683935
-0.612175
-0.528463
-0.440726
-0.351736
-0.26106
-0.166065
-0.0496456
0.115014
0.421027
0.682836
0.886595
1.01729
1.10238
1.15902
1.19764
1.22115
1.22913
-0.766484
-0.741377
-0.668934
-0.594633
-0.506748
-0.417182
-0.323756
-0.223164
-0.111413
0.0292958
0.21564
0.472959
0.69001
0.850448
0.959045
1.03528
1.08972
1.12935
1.15656
1.1657
-0.735441
-0.714153
-0.645248
-0.569193
-0.480831
-0.391855
-0.296348
-0.191279
-0.0728585
0.073909
0.257294
0.464499
0.637252
0.765677
0.859783
0.9299
0.982725
1.02249
1.05186
1.06146
-0.690412
-0.674329
-0.607759
-0.533263
-0.450211
-0.362159
-0.268796
-0.163736
-0.0460888
0.0952991
0.261122
0.427346
0.563705
0.667876
0.747815
0.809771
0.858709
0.896758
0.925805
0.936337
-0.628796
-0.615986
-0.554199
-0.485457
-0.408771
-0.325986
-0.236652
-0.137783
-0.0271286
0.102806
0.243476
0.376754
0.483796
0.566349
0.630695
0.681262
0.721909
0.754238
0.779513
0.789758
-0.529509
-0.519525
-0.471721
-0.415675
-0.350408
-0.278744
-0.200153
-0.112941
-0.014693
0.0995194
0.22089
0.330653
0.416687
0.482663
0.533266
0.571972
0.601785
0.62442
0.641531
0.648648
-0.383408
-0.378004
-0.353277
-0.320097
-0.272581
-0.218756
-0.15691
-0.085268
-0.00192142
0.0946618
0.199392
0.291713
0.362056
0.415566
0.455422
0.484692
0.505825
0.519767
0.529412
0.532432
-0.243788
-0.24166
-0.232906
-0.216449
-0.18767
-0.153444
-0.109728
-0.0539834
0.0130678
0.0927419
0.178761
0.253749
0.310354
0.352349
0.382304
0.403047
0.41726
0.425049
0.430318
0.431914
-0.135929
-0.134685
-0.130335
-0.123073
-0.10968
-0.0910855
-0.0622332
-0.0219998
0.0286032
0.0919547
0.160995
0.220742
0.265099
0.297188
0.319113
0.333488
0.342939
0.348382
0.351412
0.352586
-0.0583431
-0.0587599
-0.0575135
-0.0543131
-0.0477366
-0.0379802
-0.018755
0.00789045
0.0442628
0.0930816
0.147155
0.193956
0.228098
0.252143
0.268124
0.278482
0.285133
0.288997
0.291235
0.292016
-0.00890518
-0.00993942
-0.0110294
-0.0102763
-0.00620907
0.000919674
0.0133229
0.0322143
0.0584507
0.095295
0.136843
0.172973
0.199039
0.217151
0.229087
0.237399
0.241972
0.24423
0.245162
0.245169
0.0196306
0.0187178
0.0169854
0.0164848
0.018497
0.0234916
0.0324248
0.0480059
0.067829
0.0960403
0.127995
0.155863
0.176017
0.190185
0.199521
0.205255
0.208291
0.209404
0.209516
0.209253
0.0355892
0.0348482
0.0337073
0.0330875
0.0339673
0.037182
0.0437975
0.0551782
0.0712766
0.094042
0.11918
0.141028
0.156834
0.168019
0.175019
0.179024
0.180966
0.181615
0.181617
0.181372
0.0458182
0.0452952
0.0448401
0.0446367
0.0451943
0.0473151
0.0516843
0.0598416
0.0719775
0.0906609
0.110545
0.127864
0.140138
0.148893
0.153911
0.156794
0.158217
0.158778
0.158878
0.1587
0.0533677
0.0530158
0.0528962
0.0528653
0.0534079
0.0551143
0.0581603
0.0638694
0.0723746
0.0872387
0.102597
0.116252
0.125749
0.132065
0.135856
0.138087
0.139221
0.139702
0.139833
0.139704
0.0582353
0.0579853
0.0578996
0.0578081
0.05824
0.0596522
0.062041
0.0664085
0.0728934
0.0830536
0.0953476
0.105813
0.11324
0.117859
0.120747
0.122478
0.123341
0.123689
0.123781
0.123678
0.0602526
0.0600628
0.0599559
0.059815
0.0600929
0.0611526
0.0630199
0.0664986
0.0715739
0.079261
0.0883587
0.0963321
0.101927
0.10561
0.107877
0.109209
0.10985
0.110088
0.11014
0.110055
0.0601088
0.0599724
0.0598813
0.0597743
0.059971
0.0607437
0.0621431
0.0648391
0.0688077
0.0747395
0.0816542
0.0877289
0.092022
0.0948837
0.0966332
0.0976451
0.0981261
0.0982973
0.0983301
0.0982624
0.0585862
0.0584956
0.0584358
0.0583871
0.0585586
0.0591495
0.0602055
0.0622379
0.0652734
0.0698282
0.0751272
0.0797677
0.0830571
0.0852556
0.0865959
0.0873661
0.0877325
0.0878608
0.0878835
0.0878315
0.0561143
0.0560538
0.0560139
0.0560008
0.0561523
0.0566181
0.0574398
0.0589801
0.0612868
0.0647473
0.0687903
0.0723444
0.0748391
0.0765097
0.077533
0.0781174
0.0783941
0.0784877
0.0785014
0.0784602
0.0528748
0.0528317
0.0527999
0.0527985
0.0529213
0.0532819
0.0539254
0.0551041
0.0568693
0.0594932
0.062562
0.0652742
0.0671839
0.0684574
0.0692288
0.0696634
0.0698672
0.0699315
0.0699371
0.069904
0.0490224
0.0489891
0.0489636
0.0489672
0.0490648
0.0493406
0.0498401
0.0507414
0.0520988
0.0541034
0.0564561
0.0585237
0.0599691
0.0609142
0.0614918
0.0618204
0.0619707
0.0620142
0.0620144
0.0619879
0.0447214
0.044696
0.0446752
0.044679
0.0447545
0.0449632
0.0453475
0.0460319
0.0470707
0.0486017
0.0504038
0.0519772
0.0530709
0.0537802
0.0542093
0.0544496
0.0545584
0.0545879
0.0545856
0.0545632
0.0400621
0.0400423
0.0400268
0.040031
0.0400892
0.040246
0.0405388
0.0410547
0.0418434
0.0430011
0.0443671
0.0455514
0.0463784
0.0469185
0.047244
0.0474225
0.0475007
0.0475186
0.0475144
0.0474969
0.0351478
0.0351318
0.0351194
0.0351225
0.035167
0.0352854
0.035508
0.0358961
0.0364932
0.0373648
0.0383901
0.0392763
0.0398969
0.0403013
0.0405433
0.0406736
0.0407289
0.0407393
0.0407341
0.0407199
0.0300371
0.0300252
0.0300141
0.0300131
0.0300433
0.0301288
0.0302942
0.0305825
0.031028
0.0316781
0.0324407
0.0330958
0.0335529
0.0338522
0.0340314
0.0341273
0.0341669
0.0341728
0.0341677
0.0341558
0.0247616
0.0247513
0.0247422
0.0247405
0.0247614
0.0248218
0.0249408
0.0251488
0.025473
0.0259455
0.0265058
0.0269849
0.0273199
0.0275386
0.0276669
0.0277329
0.0277573
0.027757
0.0277505
0.0277415
0.019379
0.0193712
0.019363
0.0193597
0.0193732
0.0194153
0.019499
0.0196454
0.0198746
0.0202072
0.0206013
0.0209405
0.0211774
0.0213274
0.0214136
0.0214569
0.0214715
0.0214693
0.0214634
0.0214561
0.0139128
0.0139074
0.0139004
0.0138952
0.0139011
0.0139263
0.01398
0.0140758
0.0142262
0.0144451
0.0147059
0.014929
0.0150831
0.0151816
0.0152388
0.0152674
0.0152763
0.0152732
0.0152679
0.0152622
0.00838486
0.00837944
0.00837215
0.00836635
0.00836866
0.00838296
0.00841195
0.00846411
0.00854702
0.00866814
0.0088136
0.00893673
0.00902292
0.00908034
0.00911417
0.0091313
0.00913655
0.00913177
0.00912539
0.00911974
0.00280672
0.00280416
0.00280031
0.00279691
0.00279575
0.0027988
0.00280789
0.00282511
0.00285222
0.00289112
0.00293641
0.00297561
0.00300475
0.00302441
0.00303458
0.00303829
0.00303528
0.00303057
0.00302843
0.0030265
-1.73712
-0.739519
-0.460337
-0.137991
0.0844172
0.277567
0.442072
0.610014
0.788687
0.871153
-0.62752
-0.147912
-0.0974197
0.118431
0.275063
0.415385
0.538898
0.647834
0.690151
0.641633
-0.1657
0.0887274
0.154566
0.303691
0.414022
0.51352
0.596482
0.658698
0.66996
0.678686
0.116934
0.288999
0.3328
0.452077
0.523331
0.594
0.648997
0.687677
0.701027
0.722715
0.329844
0.449671
0.478588
0.566746
0.615198
0.665232
0.703715
0.731421
0.742067
0.773143
0.491219
0.573153
0.604905
0.660125
0.700284
0.734713
0.762283
0.783904
0.798705
0.825565
0.62473
0.682709
0.710678
0.744116
0.775301
0.801043
0.821879
0.840732
0.855889
0.882409
0.736361
0.778051
0.800486
0.823074
0.845821
0.866378
0.884444
0.903388
0.918952
0.942988
0.834993
0.865683
0.883266
0.899494
0.916976
0.934338
0.95107
0.969614
0.983426
1.00557
0.926794
0.948997
0.963964
0.977687
0.991896
1.00644
1.02068
1.03595
1.04761
1.0671
1.01605
1.03185
1.04571
1.05741
1.06957
1.08129
1.09244
1.10444
1.11257
1.12977
1.10123
1.11375
1.12798
1.13993
1.15074
1.16084
1.1698
1.17802
1.18209
1.19363
1.19052
1.20176
1.2156
1.22561
1.2334
1.24053
1.2474
1.2539
1.25454
1.26197
1.28923
1.29394
1.30254
1.30762
1.31105
1.31551
1.32129
1.32864
1.33225
1.34164
1.4025
1.38906
1.38173
1.3759
1.37303
1.37439
1.38113
1.39383
1.40875
1.43826
1.52394
1.46823
1.43696
1.4195
1.41145
1.41155
1.42033
1.4398
1.47165
1.54112
)
;

boundaryField
{
    wall-4
    {
        type            zeroGradient;
    }
    pressure-outlet-7
    {
        type            fixedValue;
        value           uniform 0;
    }
    velocity-inlet-6
    {
        type            zeroGradient;
    }
    velocity-inlet-5
    {
        type            zeroGradient;
    }
    frontAndBackPlanes
    {
        type            empty;
    }
}


// ************************************************************************* //
