/*--------------------------------*- C++ -*----------------------------------*\
| =========                 |                                                 |
| \\      /  F ield         | OpenFOAM: The Open Source CFD Toolbox           |
|  \\    /   O peration     | Version:  4.0                                   |
|   \\  /    A nd           | Web:      www.OpenFOAM.org                      |
|    \\/     M anipulation  |                                                 |
\*---------------------------------------------------------------------------*/
FoamFile
{
    version     2.0;
    format      ascii;
    class       volVectorField;
    location    "9";
    object      U;
}
// * * * * * * * * * * * * * * * * * * * * * * * * * * * * * * * * * * * * * //

dimensions      [0 1 -1 0 0 0 0];

internalField   nonuniform List<vector> 
2200
(
(0.881851 -0.0300474 0)
(1.00703 -0.0516171 0)
(1.0024 -0.0344257 0)
(0.999693 -0.0237796 0)
(1.00057 -0.0163321 0)
(1.00036 -0.010478 0)
(1.00007 -0.00671164 0)
(1.00019 -0.00398622 0)
(1.0003 -0.00208901 0)
(1.00014 -0.000613507 0)
(1.0001 0.000667269 0)
(1.00029 0.00216465 0)
(1.00017 0.00405253 0)
(1.00007 0.00677588 0)
(1.00039 0.0105428 0)
(1.00062 0.0163788 0)
(0.999723 0.0238187 0)
(1.00241 0.0344593 0)
(1.00704 0.0516249 0)
(0.88185 0.030061 0)
(0.709222 -0.033615 0)
(0.996955 -0.0622779 0)
(1.03553 -0.0569736 0)
(1.02565 -0.0454139 0)
(1.01459 -0.0334876 0)
(1.00931 -0.0240182 0)
(1.00612 -0.0159262 0)
(1.00357 -0.00982459 0)
(1.00204 -0.00500291 0)
(1.00176 -0.00156204 0)
(1.0017 0.00206434 0)
(1.00205 0.00548963 0)
(1.0036 0.0102949 0)
(1.00612 0.0163527 0)
(1.00923 0.024367 0)
(1.01448 0.0337895 0)
(1.02554 0.0456313 0)
(1.03542 0.0571179 0)
(0.996858 0.0623963 0)
(0.709114 0.0336383 0)
(0.53436 -0.021226 0)
(0.97108 -0.0543318 0)
(1.05857 -0.0512514 0)
(1.05466 -0.0456759 0)
(1.03737 -0.0380545 0)
(1.02331 -0.0301313 0)
(1.01382 -0.0222291 0)
(1.00865 -0.0151779 0)
(1.00561 -0.00877747 0)
(1.00486 -0.0027138 0)
(1.0047 0.00365447 0)
(1.00546 0.00962775 0)
(1.00845 0.0158269 0)
(1.01354 0.0227173 0)
(1.02308 0.0305106 0)
(1.03717 0.0383368 0)
(1.05447 0.04594 0)
(1.05835 0.0514909 0)
(0.970696 0.0544827 0)
(0.533853 0.0212595 0)
(0.415813 -0.00981191 0)
(0.918501 -0.0374245 0)
(1.06031 -0.0379141 0)
(1.07182 -0.0364011 0)
(1.05794 -0.0325112 0)
(1.0415 -0.0271952 0)
(1.02846 -0.0219747 0)
(1.01906 -0.0161276 0)
(1.01307 -0.00963139 0)
(1.01078 -0.0027694 0)
(1.0107 0.004079 0)
(1.01285 0.0106781 0)
(1.01881 0.0170804 0)
(1.02823 0.0228688 0)
(1.04122 0.0280147 0)
(1.0576 0.0332218 0)
(1.07141 0.0369216 0)
(1.05978 0.0382638 0)
(0.917674 0.0375856 0)
(0.414962 0.00986188 0)
(0.355423 -0.0023952 0)
(0.874746 -0.0210896 0)
(1.05242 -0.0234247 0)
(1.07641 -0.0248505 0)
(1.06593 -0.0230356 0)
(1.05096 -0.0201007 0)
(1.03921 -0.0170607 0)
(1.03002 -0.0130329 0)
(1.02346 -0.00812784 0)
(1.01981 -0.00217396 0)
(1.01964 0.00378231 0)
(1.02299 0.00976597 0)
(1.0294 0.0144556 0)
(1.03843 0.0182301 0)
(1.05013 0.0209738 0)
(1.0651 0.0236524 0)
(1.0755 0.0253142 0)
(1.05134 0.0237796 0)
(0.873383 0.021295 0)
(0.354181 0.00247131 0)
(0.332903 0.00122762 0)
(0.844918 -0.00818253 0)
(1.0395 -0.0114332 0)
(1.07105 -0.0152511 0)
(1.06328 -0.0158235 0)
(1.05071 -0.0156205 0)
(1.04041 -0.014356 0)
(1.0323 -0.0113226 0)
(1.02659 -0.00710383 0)
(1.02328 -0.00157696 0)
(1.02311 0.00382037 0)
(1.02603 0.00918222 0)
(1.03133 0.0130185 0)
(1.03922 0.0156413 0)
(1.04942 0.0166071 0)
(1.06204 0.016575 0)
(1.06972 0.0158187 0)
(1.03797 0.0118795 0)
(0.842959 0.00846536 0)
(0.33105 -0.00114614 0)
(0.330816 0.00152348 0)
(0.828869 -0.000986131 0)
(1.02561 -0.00362586 0)
(1.06042 -0.00808048 0)
(1.05603 -0.0102849 0)
(1.04649 -0.0118609 0)
(1.0386 -0.0111771 0)
(1.03241 -0.00902057 0)
(1.0277 -0.00564534 0)
(1.02487 -0.00095116 0)
(1.02468 0.00403449 0)
(1.02714 0.00841172 0)
(1.03148 0.0114184 0)
(1.03733 0.0132057 0)
(1.04513 0.0135549 0)
(1.05451 0.0116357 0)
(1.0587 0.00909498 0)
(1.0235 0.00427365 0)
(0.826094 0.00129853 0)
(0.328195 -0.00146535 0)
(0.333288 0.000833133 0)
(0.824145 0.000565958 0)
(1.01724 -0.000719383 0)
(1.05314 -0.00430122 0)
(1.05226 -0.00644508 0)
(1.04632 -0.00818315 0)
(1.04037 -0.00830408 0)
(1.03497 -0.007017 0)
(1.03076 -0.00426024 0)
(1.02811 -0.000311082 0)
(1.02772 0.00409986 0)
(1.02975 0.00794186 0)
(1.03344 0.0104311 0)
(1.03848 0.0112972 0)
(1.04398 0.0105991 0)
(1.04967 0.00834608 0)
(1.05034 0.00564397 0)
(1.01396 0.00158354 0)
(0.820104 -0.000238158 0)
(0.330071 -0.000723779 0)
(0.335624 0.000120148 0)
(0.823728 0.000265771 0)
(1.01363 -0.000518437 0)
(1.04947 -0.00287108 0)
(1.05079 -0.00433781 0)
(1.04753 -0.00547866 0)
(1.0437 -0.00550335 0)
(1.0398 -0.00448788 0)
(1.03635 -0.00237714 0)
(1.03377 0.000713825 0)
(1.03308 0.00410017 0)
(1.03447 0.00695729 0)
(1.03706 0.0084588 0)
(1.04043 0.00871664 0)
(1.04401 0.00802332 0)
(1.04708 0.00627606 0)
(1.04548 0.00424085 0)
(1.00901 0.00145896 0)
(0.818579 0.000182244 0)
(0.331432 -3.6155e-05 0)
(0.336106 3.98291e-06 0)
(0.823478 0.000233856 0)
(1.01059 -0.000260339 0)
(1.04604 -0.00158961 0)
(1.04836 -0.00254833 0)
(1.04641 -0.00328116 0)
(1.04386 -0.00325582 0)
(1.04115 -0.00241981 0)
(1.03854 -0.000714705 0)
(1.03637 0.00173847 0)
(1.03558 0.00444738 0)
(1.036 0.00621605 0)
(1.03771 0.00708052 0)
(1.03981 0.00700679 0)
(1.04194 0.00624697 0)
(1.04355 0.00481451 0)
(1.04092 0.00325085 0)
(1.00484 0.0013571 0)
(0.81678 0.000405284 0)
(0.330957 8.41346e-05 0)
(0.336742 0.000178001 0)
(0.823629 0.000408014 0)
(1.0087 0.000463396 0)
(1.04353 -0.0001709 0)
(1.04622 -0.000663947 0)
(1.04492 -0.0011247 0)
(1.04307 -0.00105108 0)
(1.04099 -0.000407415 0)
(1.03883 0.000932579 0)
(1.03691 0.00282429 0)
(1.03599 0.00494949 0)
(1.03612 0.00612049 0)
(1.03686 0.00627925 0)
(1.03793 0.00596683 0)
(1.03909 0.00505245 0)
(1.03989 0.00374197 0)
(1.03675 0.00241313 0)
(1.00106 0.00103801 0)
(0.814667 0.000285987 0)
(0.329937 4.19835e-05 0)
(0.338021 0.000220908 0)
(0.824313 0.000555285 0)
(1.00863 0.000832365 0)
(1.04291 0.000750508 0)
(1.04566 0.000643281 0)
(1.04485 0.000636893 0)
(1.04353 0.000934483 0)
(1.04187 0.0015756 0)
(1.03996 0.00266683 0)
(1.03807 0.00411589 0)
(1.03674 0.00547876 0)
(1.03626 0.00624002 0)
(1.03636 0.00598594 0)
(1.03675 0.00537368 0)
(1.03723 0.00437329 0)
(1.03744 0.00319236 0)
(1.03397 0.00206497 0)
(0.998442 0.00101179 0)
(0.813057 0.000331685 0)
(0.329346 7.48511e-05 0)
(0.339498 0.000188668 0)
(0.82581 0.000648124 0)
(1.00911 0.0010062 0)
(1.0433 0.00123453 0)
(1.04624 0.00154637 0)
(1.04571 0.00197063 0)
(1.04467 0.00258424 0)
(1.04325 0.00339682 0)
(1.04143 0.00442573 0)
(1.03941 0.00560273 0)
(1.03766 0.00639317 0)
(1.03643 0.00668428 0)
(1.03595 0.00620495 0)
(1.03584 0.00531622 0)
(1.0358 0.00426578 0)
(1.0356 0.00316786 0)
(1.03191 0.00215408 0)
(0.996413 0.00124672 0)
(0.81143 0.000539364 0)
(0.328421 0.000151235 0)
(0.341108 0.000218916 0)
(0.827762 0.000777495 0)
(1.01035 0.00134986 0)
(1.04442 0.00187066 0)
(1.04744 0.0025066 0)
(1.04694 0.00324802 0)
(1.04591 0.00414885 0)
(1.04447 0.00518074 0)
(1.04256 0.00628368 0)
(1.04021 0.00732159 0)
(1.03796 0.00778937 0)
(1.03621 0.00749367 0)
(1.03513 0.0068192 0)
(1.03447 0.00575022 0)
(1.03407 0.00459054 0)
(1.03361 0.00346191 0)
(1.02979 0.00243183 0)
(0.994234 0.00151545 0)
(0.809346 0.000717033 0)
(0.326999 0.000197823 0)
(0.343126 0.000298015 0)
(0.830224 0.00100206 0)
(1.01229 0.00185033 0)
(1.04609 0.00269168 0)
(1.04903 0.00361568 0)
(1.04847 0.00467082 0)
(1.04735 0.00586202 0)
(1.04573 0.00714893 0)
(1.04352 0.00841276 0)
(1.04068 0.00942336 0)
(1.03774 0.00969806 0)
(1.0354 0.00903189 0)
(1.03377 0.00800478 0)
(1.0327 0.00664806 0)
(1.032 0.00529429 0)
(1.03134 0.00401513 0)
(1.0274 0.00285879 0)
(0.991709 0.00182476 0)
(0.80676 0.000882607 0)
(0.325189 0.000239852 0)
(0.345771 0.000390427 0)
(0.833504 0.00129804 0)
(1.01504 0.00242739 0)
(1.04855 0.00354582 0)
(1.05137 0.00479982 0)
(1.05068 0.00621711 0)
(1.04935 0.00778792 0)
(1.0474 0.00942747 0)
(1.04472 0.0109588 0)
(1.04121 0.012051 0)
(1.03742 0.0121742 0)
(1.03434 0.0111949 0)
(1.03215 0.0097192 0)
(1.03064 0.00801449 0)
(1.02963 0.00635658 0)
(1.02876 0.00482493 0)
(1.02465 0.00345872 0)
(0.988737 0.00223739 0)
(0.803623 0.00109651 0)
(0.322969 0.000299075 0)
(0.34923 0.000502271 0)
(0.837793 0.00168116 0)
(1.01853 0.0031644 0)
(1.05165 0.00469553 0)
(1.0543 0.00633473 0)
(1.05342 0.00819422 0)
(1.0518 0.0101903 0)
(1.04941 0.0122438 0)
(1.04608 0.0141072 0)
(1.04169 0.0153348 0)
(1.03686 0.0153037 0)
(1.03286 0.0139732 0)
(1.03 0.0120316 0)
(1.02803 0.00990799 0)
(1.02671 0.00786302 0)
(1.02565 0.00599195 0)
(1.02137 0.00432268 0)
(0.985146 0.00281328 0)
(0.799722 0.0013863 0)
(0.320177 0.000377892 0)
(0.353571 0.000654619 0)
(0.843248 0.00211548 0)
(1.02334 0.00399327 0)
(1.05605 0.00584441 0)
(1.05846 0.00801705 0)
(1.05723 0.0104297 0)
(1.05513 0.0130594 0)
(1.05209 0.0157156 0)
(1.04786 0.0180672 0)
(1.04229 0.0195268 0)
(1.03618 0.0193382 0)
(1.03109 0.0175552 0)
(1.02743 0.0150325 0)
(1.02489 0.01233 0)
(1.02318 0.00973958 0)
(1.02183 0.00739055 0)
(1.01729 0.00531592 0)
(0.980655 0.00346242 0)
(0.794878 0.00171437 0)
(0.316714 0.000469528 0)
(0.359523 0.000852515 0)
(0.850472 0.00289082 0)
(1.02911 0.00538093 0)
(1.06121 0.00795989 0)
(1.06337 0.0106814 0)
(1.06178 0.013721 0)
(1.05911 0.0169549 0)
(1.05521 0.0202157 0)
(1.04981 0.0230634 0)
(1.04274 0.0247379 0)
(1.03499 0.0243293 0)
(1.02852 0.0219944 0)
(1.0239 0.0188008 0)
(1.02071 0.0154397 0)
(1.01859 0.0122476 0)
(1.01701 0.00936545 0)
(1.01225 0.00680085 0)
(0.975114 0.00446393 0)
(0.78878 0.00219947 0)
(0.312305 0.000587365 0)
(0.366667 0.0011649 0)
(0.859541 0.00347384 0)
(1.03719 0.00659729 0)
(1.06855 0.00964752 0)
(1.07018 0.0133585 0)
(1.06792 0.0173886 0)
(1.06437 0.0217145 0)
(1.05929 0.0259613 0)
(1.05233 0.0295529 0)
(1.04336 0.0315314 0)
(1.03367 0.0308222 0)
(1.02562 0.0277402 0)
(1.01985 0.0236371 0)
(1.01586 0.0193279 0)
(1.01317 0.0152172 0)
(1.01115 0.0114952 0)
(1.00594 0.00821335 0)
(0.968047 0.00529728 0)
(0.781084 0.00261571 0)
(0.306951 0.000725672 0)
(0.377371 0.00151066 0)
(0.871594 0.00524264 0)
(1.04691 0.00939742 0)
(1.07735 0.013595 0)
(1.07856 0.01808 0)
(1.07556 0.0230069 0)
(1.07086 0.0282368 0)
(1.06418 0.0333773 0)
(1.05518 0.0376304 0)
(1.04376 0.0397961 0)
(1.03156 0.0386394 0)
(1.02147 0.0346448 0)
(1.01425 0.0294867 0)
(1.00926 0.024164 0)
(1.0059 0.019165 0)
(1.00348 0.0146959 0)
(0.997966 0.0107459 0)
(0.959511 0.00713018 0)
(0.771908 0.00350905 0)
(0.300121 0.000900768 0)
(0.389968 0.00217744 0)
(0.887971 0.00597121 0)
(1.06036 0.0115064 0)
(1.08933 0.0168527 0)
(1.08945 0.0232393 0)
(1.08515 0.0298908 0)
(1.07879 0.0368159 0)
(1.06996 0.0432584 0)
(1.05837 0.0483242 0)
(1.04401 0.0505895 0)
(1.02898 0.0487237 0)
(1.01668 0.0435179 0)
(1.00786 0.0370024 0)
(1.00174 0.0302666 0)
(0.997615 0.0238357 0)
(0.994601 0.0179848 0)
(0.988314 0.0127665 0)
(0.948143 0.00813032 0)
(0.759024 0.00395879 0)
(0.291691 0.00111932 0)
(0.409335 0.00310549 0)
(0.907712 0.00998733 0)
(1.07761 0.0169274 0)
(1.10468 0.0238798 0)
(1.1036 0.0314382 0)
(1.0975 0.0397227 0)
(1.08876 0.0480728 0)
(1.07701 0.0557949 0)
(1.06205 0.0615233 0)
(1.04402 0.0636406 0)
(1.0255 0.0607957 0)
(1.0104 0.0541153 0)
(0.999514 0.0460057 0)
(0.991827 0.0377446 0)
(0.986512 0.0299895 0)
(0.982646 0.0230064 0)
(0.975773 0.0168904 0)
(0.935383 0.0112542 0)
(0.746113 0.00558676 0)
(0.281587 0.00141764 0)
(0.436058 0.00439324 0)
(0.93955 0.0117741 0)
(1.10042 0.022298 0)
(1.12479 0.0317197 0)
(1.12117 0.0429649 0)
(1.11234 0.0535139 0)
(1.10013 0.0638812 0)
(1.08449 0.0726711 0)
(1.06535 0.0786206 0)
(1.04303 0.0800607 0)
(1.02061 0.0757086 0)
(1.00251 0.0671485 0)
(0.98947 0.057195 0)
(0.980219 0.047138 0)
(0.973768 0.0375342 0)
(0.969008 0.0287343 0)
(0.96077 0.0205614 0)
(0.916661 0.0131581 0)
(0.723886 0.00625658 0)
(0.267521 0.00166844 0)
(0.469981 0.00874987 0)
(0.973922 0.0221047 0)
(1.13095 0.0344974 0)
(1.15028 0.0468394 0)
(1.14314 0.0602101 0)
(1.12986 0.0729776 0)
(1.11312 0.0848312 0)
(1.09268 0.0941241 0)
(1.06865 0.0997133 0)
(1.04152 0.0998182 0)
(1.01484 0.0934479 0)
(0.993414 0.0826927 0)
(0.977805 0.0706218 0)
(0.966472 0.0585658 0)
(0.958271 0.0471345 0)
(0.951918 0.0365844 0)
(0.942364 0.0273847 0)
(0.897732 0.0185585 0)
(0.705546 0.00924597 0)
(0.254607 0.00211706 0)
(0.555364 0.0126783 0)
(1.03869 0.030233 0)
(1.1702 0.0517864 0)
(1.18348 0.0688388 0)
(1.16902 0.0864784 1.1252e-34)
(1.14963 0.100989 -6.51239e-35)
(1.12686 0.113022 0)
(1.10033 0.121908 0)
(1.07057 0.126011 0)
(1.03801 0.123817 0)
(1.00667 0.11466 0)
(0.981672 0.101241 0)
(0.963304 0.0869536 0)
(0.949685 0.0729889 0)
(0.939568 0.0598809 0)
(0.931533 0.0475841 0)
(0.91921 0.0353513 0)
(0.868302 0.0239339 0)
(0.661388 0.0114564 0)
(0.226647 0.0021609 0)
(0.610059 0.0287928 -4.55513e-21)
(1.1116 0.0568392 2.77055e-21)
(1.2161 0.0838206 0)
(1.21876 0.106938 2.72941e-21)
(1.19531 0.125202 -2.20491e-21)
(1.16927 0.138522 6.87072e-35)
(1.13951 0.149853 0)
(1.10652 0.157042 5.47793e-21)
(1.07062 0.158738 -1.92691e-20)
(1.03218 0.153769 4.20934e-21)
(0.995691 0.141647 0)
(0.966494 0.125574 -1.32942e-20)
(0.944616 0.109084 -1.66029e-20)
(0.927868 0.0931295 2.9204e-20)
(0.914759 0.0779708 -2.34423e-20)
(0.903548 0.0642734 0)
(0.887199 0.0518274 -8.9992e-21)
(0.827189 0.0357073 0)
(0.622168 0.0245984 -4.89971e-20)
(0.209201 0.0059573 5.84074e-20)
(0.626478 0.0555976 -1.30553e-21)
(1.1498 0.106571 -3.84732e-20)
(1.25668 0.138319 1.16975e-20)
(1.25049 0.158074 1.2032e-20)
(1.21993 0.17214 -3.6833e-21)
(1.18659 0.1842 6.56964e-21)
(1.14987 0.193995 0)
(1.11056 0.198909 0)
(1.06832 0.198396 2.99675e-20)
(1.02354 0.19101 0)
(0.981022 0.176577 4.56332e-20)
(0.946443 0.158897 1.42618e-20)
(0.919724 0.141576 4.70989e-22)
(0.898389 0.125466 -3.2561e-20)
(0.880801 0.110919 0)
(0.865363 0.0972278 0)
(0.845997 0.0857656 -1.52281e-19)
(0.793509 0.0739316 3.8554e-19)
(0.606327 0.0503406 -2.28108e-19)
(0.209859 0.0200146 -2.74877e-19)
(0.625274 0.0940129 7.54158e-20)
(1.17683 0.171344 -2.1232e-20)
(1.28705 0.207503 -4.9924e-21)
(1.27644 0.219262 -2.41696e-20)
(1.23987 0.228173 1.3513e-20)
(1.19957 0.236921 -1.16893e-20)
(1.15679 0.243021 7.71655e-21)
(1.11146 0.244623 0)
(1.06324 0.241245 -6.16519e-20)
(1.01253 0.231009 6.66631e-20)
(0.964437 0.21421 -1.24413e-19)
(0.925111 0.195203 6.04185e-20)
(0.894466 0.177582 -4.41217e-20)
(0.869808 0.161936 9.69841e-20)
(0.849466 0.148473 0)
(0.831984 0.137335 -3.77969e-20)
(0.812264 0.124152 0)
(0.764649 0.116152 2.19444e-19)
(0.597444 0.0826632 -5.2039e-19)
(0.219357 0.0344494 3.28124e-19)
(0.608258 0.124754 -3.53743e-19)
(1.18735 0.234625 1.40576e-19)
(1.30518 0.279986 2.15961e-20)
(1.29342 0.284435 0)
(1.25247 0.289369 1.22698e-20)
(1.20708 0.293895 -1.25822e-20)
(1.15964 0.295079 -7.70633e-21)
(1.1091 0.292827 0)
(1.05582 0.285926 4.33983e-20)
(1.00014 0.272448 -4.58149e-20)
(0.94759 0.253077 1.07889e-19)
(0.904865 0.232555 0)
(0.871887 0.214366 -9.2414e-20)
(0.845748 0.198772 5.12298e-20)
(0.824638 0.185571 1.37827e-19)
(0.806912 0.175618 -1.21061e-19)
(0.788765 0.162931 2.01218e-19)
(0.744072 0.153703 -4.48834e-19)
(0.588226 0.115097 2.85714e-19)
(0.222154 0.0465873 -3.60991e-19)
(0.586696 0.151908 2.17883e-19)
(1.18452 0.292803 -1.60447e-19)
(1.31293 0.348817 6.72392e-20)
(1.30128 0.34918 -9.08946e-20)
(1.25722 0.352076 5.96412e-20)
(1.20913 0.352041 -9.12015e-21)
(1.1585 0.348352 3.91268e-21)
(1.10403 0.342143 -3.00779e-20)
(1.04689 0.331325 -4.25745e-20)
(0.987237 0.314339 -9.67643e-20)
(0.931223 0.292107 -2.31889e-19)
(0.886127 0.269688 -7.73579e-20)
(0.851842 0.250424 2.8477e-21)
(0.825156 0.2343 -1.81296e-19)
(0.803989 0.220868 -6.1917e-21)
(0.786482 0.210721 1.76592e-19)
(0.769502 0.19901 -5.48072e-20)
(0.72703 0.187799 -3.23823e-20)
(0.57759 0.14328 0)
(0.219674 0.0576868 7.61932e-19)
(0.566325 0.177828 0)
(1.17514 0.348134 4.93116e-20)
(1.31249 0.413452 3.32349e-20)
(1.30144 0.4112 -1.18453e-20)
(1.25536 0.412986 -7.3404e-20)
(1.20637 0.408804 1.28713e-20)
(1.15357 0.401122 4.63565e-21)
(1.09644 0.391159 5.31238e-20)
(1.0364 0.376477 -2.50487e-20)
(0.973547 0.355992 4.34503e-20)
(0.914688 0.3307 1.24599e-19)
(0.867681 0.305992 1.70956e-19)
(0.832367 0.285147 -1.06242e-19)
(0.80522 0.267987 1.96222e-19)
(0.783994 0.253928 -1.57484e-19)
(0.766723 0.24297 0)
(0.750225 0.231742 -4.19641e-19)
(0.709691 0.217886 5.64265e-19)
(0.56464 0.168816 4.30419e-20)
(0.21545 0.0665362 -7.99903e-19)
(0.549191 0.201721 -7.15584e-21)
(1.16221 0.401153 -3.38789e-19)
(1.30676 0.475755 -2.49998e-19)
(1.29635 0.470317 2.06634e-19)
(1.24883 0.470807 -4.2356e-20)
(1.19964 0.462762 2.14439e-20)
(1.1452 0.452154 -3.30057e-21)
(1.08634 0.438892 -5.73527e-21)
(1.02406 0.420737 -8.83471e-20)
(0.958503 0.396838 1.32297e-21)
(0.897042 0.36828 -1.34819e-19)
(0.848243 0.340993 -1.81819e-19)
(0.812077 0.318316 1.19743e-19)
(0.784716 0.299798 -7.03827e-20)
(0.763535 0.284738 1.71447e-19)
(0.746607 0.272754 0)
(0.730564 0.261341 -2.60161e-19)
(0.69179 0.245157 3.85006e-19)
(0.550507 0.191052 7.44533e-19)
(0.210041 0.0747628 -8.67886e-19)
(0.536687 0.224503 -6.48467e-19)
(1.14943 0.45166 3.26016e-19)
(1.29754 0.535466 2.4432e-19)
(1.28774 0.52708 -2.24053e-19)
(1.23952 0.525676 1.06001e-20)
(1.19005 0.513903 6.08899e-20)
(1.13423 0.500922 -4.26353e-21)
(1.07421 0.484684 -1.88055e-20)
(1.01016 0.463481 -5.35243e-20)
(0.942503 0.436467 9.4335e-20)
(0.878991 0.404839 1.27458e-19)
(0.828811 0.374814 2.85125e-19)
(0.791799 0.349786 0)
(0.763902 0.329446 5.58526e-21)
(0.742771 0.313068 -4.77499e-19)
(0.726164 0.299857 1.09804e-19)
(0.71034 0.287663 5.59619e-19)
(0.672924 0.269571 -1.62996e-19)
(0.535575 0.210532 3.57337e-19)
(0.203749 0.0819163 -2.80019e-20)
(0.527889 0.246736 8.30971e-21)
(1.13598 0.498723 3.02024e-19)
(1.28592 0.590839 1.86364e-19)
(1.27659 0.581245 -4.03363e-19)
(1.22849 0.577667 2.53004e-19)
(1.17859 0.562583 -7.7294e-20)
(1.12174 0.547318 9.29394e-22)
(1.06081 0.52831 4.16475e-20)
(0.995251 0.504504 9.58892e-20)
(0.925573 0.474707 -1.20222e-19)
(0.859571 0.439954 0)
(0.807344 0.40702 -1.12684e-19)
(0.769654 0.379809 1.2937e-19)
(0.742231 0.357573 1.7419e-19)
(0.721404 0.33957 -1.00061e-19)
(0.705328 0.324942 -2.52429e-19)
(0.69039 0.311875 -7.68764e-20)
(0.654377 0.29183 -1.55541e-21)
(0.520357 0.227804 0)
(0.196654 0.0879083 0)
(0.521373 0.268145 -3.20482e-19)
(1.12272 0.542726 0)
(1.27252 0.641712 2.14493e-19)
(1.26381 0.63209 -9.94247e-20)
(1.21621 0.626556 -2.64823e-19)
(1.16594 0.608847 7.29936e-20)
(1.1085 0.59141 -5.83664e-21)
(1.04684 0.56992 -1.99463e-20)
(0.980071 0.543884 5.9093e-20)
(0.90889 0.511662 -4.90947e-20)
(0.841451 0.474238 7.13266e-20)
(0.788464 0.438406 3.52414e-19)
(0.749578 0.40806 1.36924e-20)
(0.720517 0.383338 -1.78313e-19)
(0.699593 0.363352 3.44948e-19)
(0.683726 0.347394 4.5876e-21)
(0.668603 0.332707 8.22491e-20)
(0.633577 0.310784 -4.03361e-19)
(0.503728 0.242302 4.13765e-19)
(0.188709 0.0926281 -4.87747e-19)
(0.516422 0.288815 1.08927e-22)
(1.11002 0.583916 0)
(1.2581 0.68879 0)
(1.25006 0.679447 9.2298e-20)
(1.20293 0.672161 1.04686e-19)
(1.15247 0.652475 -6.12099e-20)
(1.09481 0.633093 3.55146e-20)
(1.0326 0.609464 0)
(0.964738 0.581483 -9.6609e-20)
(0.891651 0.547154 1.752e-19)
(0.820887 0.507101 2.17397e-19)
(0.764059 0.468435 -1.33053e-19)
(0.724353 0.435739 -1.67453e-19)
(0.697093 0.408284 3.96595e-19)
(0.676624 0.38642 -1.22188e-19)
(0.661433 0.367997 -1.48426e-19)
(0.647768 0.352222 -9.13323e-20)
(0.613624 0.328109 -4.39447e-19)
(0.486117 0.254937 6.0649e-20)
(0.179774 0.0959432 5.31419e-19)
(0.512281 0.307943 -1.29021e-19)
(1.0975 0.622287 -1.98841e-19)
(1.24314 0.732441 2.35783e-20)
(1.23572 0.72345 3.1053e-22)
(1.18894 0.714575 3.44273e-20)
(1.13848 0.693337 -1.66538e-19)
(1.08084 0.67229 0)
(1.01824 0.646889 1.47853e-20)
(0.949528 0.617313 -1.16589e-20)
(0.875103 0.581397 2.7351e-19)
(0.803349 0.539531 -5.52196e-20)
(0.746926 0.498024 6.07914e-20)
(0.704753 0.461515 0)
(0.673575 0.431405 -2.1683e-19)
(0.652804 0.405662 2.71834e-19)
(0.637967 0.386297 0)
(0.624148 0.368312 -2.01069e-19)
(0.591818 0.341495 5.87519e-19)
(0.467755 0.264451 7.1276e-20)
(0.17005 0.0979121 -6.62003e-19)
(0.508469 0.325806 -2.88047e-19)
(1.08521 0.658216 3.62996e-19)
(1.22808 0.773021 0)
(1.22118 0.764341 2.30924e-19)
(1.1746 0.753975 0)
(1.12427 0.731431 1.55284e-19)
(1.06679 0.70892 0)
(1.00404 0.682081 0)
(0.934767 0.651308 -3.28538e-20)
(0.858971 0.614293 -2.66906e-19)
(0.783737 0.57041 -4.04546e-19)
(0.720935 0.526313 7.76024e-20)
(0.67761 0.487383 2.91731e-19)
(0.648474 0.452884 2.45753e-19)
(0.627573 0.426568 -8.74186e-19)
(0.612942 0.402743 -3.62092e-19)
(0.600055 0.382482 2.10316e-19)
(0.56757 0.35449 0)
(0.447712 0.272122 6.17898e-19)
(0.1589 0.0984111 -7.21404e-19)
(0.504724 0.342704 3.20923e-19)
(1.07314 0.691776 -3.99271e-19)
(1.21305 0.810734 0)
(1.20659 0.802347 -9.17812e-21)
(1.16018 0.790623 -9.51855e-20)
(1.11011 0.766899 0)
(1.05287 0.743109 -1.2877e-20)
(0.990112 0.71513 1.96638e-20)
(0.920283 0.683513 -4.03014e-20)
(0.842784 0.645707 2.57167e-20)
(0.765025 0.601181 0)
(0.702331 0.555865 3.09917e-19)
(0.655316 0.513477 5.19661e-21)
(0.622479 0.476301 1.34046e-19)
(0.60093 0.441668 1.61332e-19)
(0.587448 0.416978 0)
(0.576216 0.395939 -3.59128e-19)
(0.545717 0.3627 7.04301e-19)
(0.426748 0.276346 -7.57157e-19)
(0.147319 0.0973063 1.57657e-18)
(0.500996 0.358675 0)
(1.06142 0.723221 0)
(1.19833 0.845912 -2.16083e-19)
(1.19218 0.837687 0)
(1.14594 0.824677 0)
(1.09618 0.799879 2.28515e-19)
(1.03929 0.774945 -1.68061e-20)
(0.976678 0.746059 1.62646e-20)
(0.906688 0.713897 -2.30255e-21)
(0.828663 0.67616 0)
(0.749527 0.631615 -6.54849e-20)
(0.680698 0.583178 -2.57224e-19)
(0.630195 0.537514 -3.24295e-19)
(0.594787 0.495557 -1.35576e-19)
(0.57323 0.462131 1.79263e-19)
(0.558897 0.431693 -4.26598e-19)
(0.546373 0.403179 7.81977e-19)
(0.516491 0.368682 1.16796e-20)
(0.403503 0.27869 -7.33971e-19)
(0.13417 0.0943568 -1.08931e-19)
(0.49725 0.373719 0)
(1.04992 0.752558 -3.08661e-19)
(1.1838 0.87862 2.43043e-19)
(1.1779 0.870522 0)
(1.13192 0.856307 0)
(1.0826 0.830519 -5.06521e-19)
(1.02616 0.804579 0)
(0.963891 0.774949 0)
(0.893882 0.74251 -6.16317e-20)
(0.814468 0.704892 5.08899e-20)
(0.730855 0.659135 -5.18443e-19)
(0.65884 0.611569 0)
(0.604945 0.564623 -3.54856e-19)
(0.566413 0.518979 1.25781e-20)
(0.540524 0.475366 -5.74035e-19)
(0.528408 0.437575 2.31632e-19)
(0.521864 0.409642 5.81569e-21)
(0.493796 0.372197 -8.4504e-19)
(0.381573 0.276843 4.0192e-19)
(0.122455 0.0901322 1.16539e-19)
(0.493509 0.387842 0)
(1.0387 0.779999 -3.66054e-19)
(1.16969 0.90908 2.56974e-19)
(1.16394 0.900997 5.40842e-19)
(1.11828 0.885602 1.107e-19)
(1.0694 0.858912 -7.88721e-20)
(1.01357 0.832066 4.82605e-20)
(0.951726 0.80184 -9.77746e-20)
(0.881782 0.769322 6.5927e-20)
(0.801548 0.732327 3.00307e-19)
(0.716722 0.689778 4.29786e-19)
(0.640117 0.640662 8.37058e-20)
(0.579966 0.59016 5.15403e-19)
(0.539416 0.541189 3.36663e-19)
(0.513167 0.492924 4.1496e-19)
(0.495331 0.452232 -2.61151e-19)
(0.483002 0.418242 -3.13476e-19)
(0.459316 0.372566 3.69863e-19)
(0.353749 0.272886 -2.23005e-19)
(0.111248 0.0830664 3.84213e-19)
(0.489739 0.401152 5.01837e-19)
(1.02765 0.805619 5.80343e-19)
(1.15578 0.93731 1.4001e-19)
(1.15018 0.929254 1.5267e-20)
(1.10495 0.9127 -3.83035e-19)
(1.05665 0.885184 1.46651e-19)
(1.00148 0.857514 -5.54826e-20)
(0.94023 0.82682 -2.34561e-20)
(0.87072 0.79446 -5.06445e-20)
(0.790273 0.759133 -3.37007e-19)
(0.702478 0.717039 2.52628e-20)
(0.62068 0.669448 0)
(0.553908 0.619685 0)
(0.499943 0.563523 -1.70752e-19)
(0.466526 0.511429 -6.82295e-19)
(0.452013 0.464481 5.66161e-19)
(0.452465 0.409723 3.50053e-19)
(0.433724 0.357359 0)
(0.33864 0.254002 7.20943e-19)
(0.103851 0.0699412 -4.22793e-19)
(0.486005 0.41375 -2.66429e-19)
(1.01689 0.829541 2.23454e-19)
(1.14236 0.963516 -3.14814e-19)
(1.13683 0.955406 -3.39595e-19)
(1.09206 0.937701 -1.51213e-19)
(1.04431 0.909417 3.42449e-20)
(0.989962 0.881008 0)
(0.929479 0.849952 1.45051e-19)
(0.860628 0.817907 1.25485e-20)
(0.779725 0.783697 0)
(0.689651 0.743861 0)
(0.603133 0.698413 5.95338e-20)
(0.531994 0.645203 9.11812e-20)
(0.481869 0.593015 -1.84702e-19)
(0.44113 0.541951 4.92641e-19)
(0.416069 0.468607 -6.21312e-19)
(0.397818 0.410981 -7.5766e-19)
(0.392023 0.344811 6.78876e-19)
(0.330441 0.247583 -2.60665e-19)
(0.16084 0.120352 1.46677e-19)
(0.482195 0.425642 3.05717e-19)
(1.00632 0.851837 0)
(1.12916 0.987739 0)
(1.12375 0.979613 -1.14894e-19)
(1.07954 0.960766 9.28456e-20)
(1.03246 0.931769 -2.03766e-20)
(0.978986 0.902629 -2.16254e-19)
(0.9194 0.871265 -2.29043e-19)
(0.851312 0.839629 3.15633e-20)
(0.770662 0.807083 -2.78044e-20)
(0.679277 0.770914 6.87988e-20)
(0.587295 0.726331 -4.93367e-19)
(0.506463 0.675548 -5.43566e-19)
(0.435356 0.621828 -9.86166e-20)
(0.385174 0.548014 0)
(0.354705 0.486524 -1.45382e-20)
(0.348306 0.395454 4.09745e-19)
(0.33569 0.262829 -7.2331e-19)
(0.324562 0.101708 5.3391e-19)
(0.10784 -0.0438171 4.32876e-19)
(0.478543 0.436867 -6.59455e-19)
(0.99607 0.872655 -2.7934e-19)
(1.11643 1.01029 3.93772e-21)
(1.11103 1.00214 1.4533e-19)
(1.06733 0.982243 0)
(1.02085 0.952615 4.43295e-19)
(0.968304 0.922863 2.70144e-19)
(0.909694 0.891367 -4.77249e-20)
(0.842623 0.860316 -8.52104e-22)
(0.762205 0.830208 -2.60575e-20)
(0.668457 0.798036 2.4205e-20)
(0.572646 0.758748 4.36708e-19)
(0.484913 0.713264 5.31217e-19)
(0.41641 0.650836 9.51685e-20)
(0.363645 0.594859 5.16177e-19)
(0.306752 0.515114 0)
(0.217898 0.415366 0)
(0.0978524 0.389617 5.28963e-19)
(-0.0266473 0.643782 -2.93343e-20)
(-0.0062141 1.42258 -6.82926e-19)
(0.474981 0.447491 3.55738e-19)
(0.986053 0.892246 8.33553e-19)
(1.10387 1.03134 -1.24501e-18)
(1.09849 1.02331 7.51648e-19)
(1.05533 1.00246 -8.92303e-20)
(1.0095 0.972342 5.78508e-19)
(0.95789 0.942063 0)
(0.900399 0.910552 2.39207e-19)
(0.834615 0.880381 0)
(0.754979 0.853002 2.20583e-19)
(0.660425 0.825659 -4.04776e-20)
(0.559045 0.790204 4.53856e-20)
(0.462986 0.743512 5.98451e-19)
(0.374279 0.685617 -2.13319e-19)
(0.280121 0.631934 -2.71678e-19)
(0.206405 0.585379 0)
(0.120621 0.661229 0)
(0.0640523 1.15561 0)
(0.0973754 2.3703 -2.99358e-19)
(0.125421 2.86568 -1.84647e-19)
(0.47147 0.457522 0)
(0.976408 0.910516 0)
(1.09182 1.05098 4.44537e-19)
(1.08636 1.04307 -6.26802e-19)
(1.04363 1.02136 4.33221e-19)
(0.998395 0.990834 -5.30814e-19)
(0.947749 0.960115 -3.20412e-20)
(0.891469 0.9287 2.49494e-20)
(0.827382 0.899669 3.3935e-21)
(0.749527 0.875155 -2.51174e-19)
(0.654153 0.854032 6.0536e-20)
(0.547259 0.827917 4.26441e-19)
(0.436957 0.787329 -5.91105e-19)
(0.351426 0.731965 -6.77973e-19)
(0.286781 0.697103 2.34808e-19)
(0.219871 0.801171 0)
(0.171502 1.41548 3.25036e-19)
(0.178477 2.63183 3.76963e-19)
(0.177165 3.06735 -4.21205e-19)
(0.168004 3.21485 4.78207e-19)
(0.468036 0.466882 0)
(0.967027 0.927676 6.7474e-19)
(1.07997 1.06928 -1.15165e-19)
(1.07451 1.06161 7.86379e-19)
(1.03223 1.03911 -4.54713e-19)
(0.987593 1.00824 0)
(0.937934 0.97711 0)
(0.883007 0.945796 0)
(0.820699 0.917667 -1.03386e-19)
(0.743983 0.897124 1.66305e-23)
(0.649835 0.883319 0)
(0.538222 0.86374 -4.15817e-19)
(0.429611 0.82116 0)
(0.30269 0.792515 4.81902e-19)
(0.241134 0.857319 -3.07988e-19)
(0.1883 1.39267 -2.53556e-19)
(0.212785 2.62137 -6.13974e-19)
(0.230625 3.1196 -3.03804e-19)
(0.219235 3.27751 -3.4245e-19)
(0.202243 3.32101 2.94061e-19)
(0.464662 0.475697 -2.29617e-19)
(0.95805 0.943629 1.23701e-20)
(1.06867 1.08637 -1.23876e-19)
(1.06308 1.07891 -6.30003e-19)
(1.0211 1.05572 0)
(0.97706 1.02457 0)
(0.92838 0.993077 0)
(0.874849 0.961822 -1.75239e-20)
(0.81471 0.935145 1.19368e-19)
(0.740962 0.917971 0)
(0.647218 0.913253 0)
(0.529022 0.902622 0)
(0.39952 0.881594 0)
(0.321519 0.882044 3.2828e-19)
(0.297178 1.19547 8.02864e-19)
(0.305543 2.25702 2.44382e-19)
(0.3285 3.07018 4.34316e-19)
(0.317902 3.29932 -2.66097e-19)
(0.261709 3.37351 9.85096e-20)
(0.226194 3.38822 0)
(0.461294 0.484245 2.3212e-19)
(0.949074 0.959089 -1.44969e-18)
(1.05728 1.10279 -4.06608e-19)
(1.05166 1.09563 -9.97127e-20)
(1.01006 1.07176 1.1651e-19)
(0.966611 1.0403 -8.30799e-19)
(0.918929 1.00838 5.71292e-20)
(0.866982 0.977145 4.31435e-19)
(0.80954 0.95134 0)
(0.739279 0.938385 -1.52996e-20)
(0.647769 0.942484 1.392e-20)
(0.529565 0.943763 0)
(0.389651 0.933491 0)
(0.329751 1.02613 -4.03587e-19)
(0.320749 1.74981 7.069e-21)
(0.339161 2.87422 -1.2336e-19)
(0.354537 3.28989 1.8715e-19)
(0.32082 3.41183 3.74865e-20)
(0.252222 3.44729 1.70595e-19)
(0.22346 3.45615 -8.65077e-20)
(0.457528 0.49279 4.4548e-19)
(0.939665 0.974772 1.38302e-18)
(1.04546 1.11952 5.00526e-19)
(1.03966 1.11245 0)
(0.998396 1.08786 0)
(0.95563 1.05599 6.36535e-19)
(0.909099 1.02352 -4.07681e-19)
(0.859051 0.991975 -3.957e-19)
(0.804478 0.967001 -1.65644e-20)
(0.738733 0.958134 -1.45234e-20)
(0.650826 0.973025 -3.02968e-19)
(0.530256 0.992669 0)
(0.390088 1.01274 0)
(0.356634 1.31118 -2.46749e-19)
(0.390762 2.3241 -2.8418e-19)
(0.449729 3.17558 0)
(0.477519 3.40595 1.37682e-19)
(0.412645 3.48594 2.5548e-19)
(0.328845 3.52659 -5.82932e-19)
(0.297942 3.55466 3.32988e-19)
(0.453466 0.501827 -8.43717e-19)
(0.929194 0.99128 -6.57084e-19)
(1.03229 1.13695 0)
(1.02654 1.12995 0)
(0.985824 1.10446 0)
(0.943818 1.07191 0)
(0.89856 1.03855 4.36551e-19)
(0.850614 1.00654 -5.10929e-19)
(0.799452 0.982061 0)
(0.73982 0.977297 2.1889e-20)
(0.657638 1.00305 5.0471e-19)
(0.532983 1.04767 2.99147e-20)
(0.402287 1.11271 5.16197e-20)
(0.414004 1.63309 3.79506e-19)
(0.481592 2.7681 -1.05875e-19)
(0.534384 3.32956 0)
(0.520436 3.48437 -9.88959e-20)
(0.424558 3.56996 1.1999e-19)
(0.308222 3.66666 4.13403e-19)
(0.224394 3.65896 -3.61906e-19)
(0.448792 0.511497 3.99291e-19)
(0.917885 1.00867 -6.41404e-19)
(1.01816 1.15518 0)
(1.01219 1.14788 -1.59854e-19)
(0.971983 1.12132 6.07706e-19)
(0.93085 1.08795 0)
(0.887087 1.05343 0)
(0.841834 1.02057 9.58862e-19)
(0.795634 0.995387 2.02403e-20)
(0.743236 0.994815 -1.577e-19)
(0.672041 1.03398 -2.13472e-19)
(0.544649 1.11132 2.41525e-19)
(0.429036 1.25983 0)
(0.470407 1.98991 -1.9104e-19)
(0.566909 3.04678 1.42318e-19)
(0.636072 3.42439 -4.28091e-20)