/*--------------------------------*- C++ -*----------------------------------*\
| =========                 |                                                 |
| \\      /  F ield         | OpenFOAM: The Open Source CFD Toolbox           |
|  \\    /   O peration     | Version:  4.0                                   |
|   \\  /    A nd           | Web:      www.OpenFOAM.org                      |
|    \\/     M anipulation  |                                                 |
\*---------------------------------------------------------------------------*/
FoamFile
{
    version     2.0;
    format      ascii;
    class       volScalarField;
    location    "49";
    object      p;
}
// * * * * * * * * * * * * * * * * * * * * * * * * * * * * * * * * * * * * * //

dimensions      [0 2 -2 0 0 0 0];

internalField   nonuniform List<scalar> 
2200
(
0.776804
0.755304
0.739397
0.723729
0.709116
0.696592
0.686231
0.67812
0.672406
0.669442
0.66989
0.673677
0.680009
0.688562
0.699238
0.711995
0.726774
0.742672
0.758702
0.780203
0.709243
0.705985
0.703059
0.698936
0.693469
0.68699
0.680365
0.674402
0.669888
0.667479
0.667951
0.67123
0.676385
0.682824
0.689794
0.696537
0.702198
0.706311
0.709177
0.712528
0.66933
0.669549
0.671604
0.672947
0.673338
0.67248
0.670492
0.667806
0.665249
0.663741
0.664277
0.666705
0.669957
0.673163
0.675491
0.676494
0.676212
0.675194
0.673523
0.673277
0.646848
0.648296
0.650896
0.653351
0.655784
0.657796
0.658944
0.659165
0.658777
0.658463
0.659067
0.66042
0.661604
0.661978
0.66128
0.659602
0.657435
0.655216
0.652601
0.651195
0.632527
0.634501
0.637314
0.640138
0.642987
0.645807
0.648252
0.650096
0.651305
0.652083
0.652785
0.653225
0.652964
0.651833
0.649959
0.647575
0.645025
0.642304
0.639512
0.637585
0.625193
0.626792
0.628989
0.631514
0.634179
0.636839
0.639419
0.641818
0.643813
0.645294
0.646115
0.6461
0.645236
0.643705
0.641783
0.639626
0.637288
0.634943
0.632846
0.631269
0.62181
0.622834
0.624099
0.625956
0.628087
0.630239
0.632417
0.63469
0.636887
0.638698
0.639686
0.639664
0.638847
0.637609
0.636188
0.6346
0.632893
0.631308
0.630184
0.629168
0.619162
0.61983
0.620461
0.621762
0.623373
0.625049
0.626783
0.62868
0.630699
0.632612
0.633804
0.634056
0.633704
0.633054
0.632259
0.63129
0.630208
0.629268
0.628815
0.628139
0.615971
0.616416
0.616808
0.617797
0.61905
0.620423
0.6219
0.623534
0.625339
0.627241
0.628692
0.629422
0.629635
0.629542
0.629218
0.62872
0.628114
0.627557
0.62736
0.626897
0.612011
0.612311
0.612668
0.61353
0.614626
0.615876
0.617286
0.618866
0.620627
0.622586
0.624367
0.625613
0.626314
0.626627
0.626657
0.626462
0.626119
0.62576
0.625619
0.625298
0.607355
0.607557
0.607925
0.608751
0.609842
0.611147
0.612653
0.61435
0.616263
0.618435
0.620605
0.622307
0.623421
0.62404
0.624303
0.624331
0.624167
0.623951
0.623829
0.623595
0.602228
0.602373
0.602745
0.603553
0.604691
0.606112
0.60781
0.609773
0.612009
0.61457
0.617248
0.619443
0.620908
0.621787
0.622231
0.62241
0.622413
0.622332
0.62224
0.622057
0.596742
0.596851
0.597227
0.598041
0.599251
0.60083
0.602769
0.605083
0.60781
0.610974
0.61424
0.616894
0.618714
0.619861
0.620536
0.620899
0.621087
0.621132
0.62108
0.620924
0.59086
0.590929
0.591307
0.592153
0.593493
0.595266
0.597477
0.600182
0.603462
0.607333
0.611348
0.614571
0.616793
0.618318
0.619335
0.619963
0.620365
0.620533
0.620522
0.620376
0.584462
0.584502
0.584918
0.58582
0.587279
0.589247
0.591746
0.594867
0.598739
0.6034
0.608272
0.612322
0.615212
0.617246
0.618687
0.619655
0.62027
0.620573
0.62061
0.620471
0.577521
0.577482
0.57789
0.578872
0.580546
0.582751
0.585566
0.589168
0.593761
0.599393
0.60535
0.61037
0.61407
0.616734
0.61869
0.620064
0.620945
0.621404
0.621488
0.62135
0.569728
0.569705
0.570161
0.571279
0.573162
0.575675
0.578949
0.583182
0.58861
0.595361
0.602626
0.608805
0.613478
0.616931
0.619459
0.621269
0.622455
0.623077
0.623217
0.623072
0.560965
0.560991
0.561405
0.562602
0.564833
0.567807
0.571698
0.576726
0.583183
0.591288
0.600127
0.607796
0.613585
0.617906
0.621121
0.623407
0.624914
0.625699
0.625895
0.625741
0.55076
0.550734
0.551274
0.552703
0.555268
0.55881
0.56353
0.569647
0.577478
0.587306
0.59806
0.607383
0.614517
0.619834
0.623751
0.626579
0.628457
0.62941
0.629657
0.629484
0.538673
0.538603
0.539273
0.541094
0.544203
0.548521
0.554342
0.561936
0.571684
0.583782
0.596777
0.607856
0.616317
0.622721
0.627475
0.630892
0.633162
0.634291
0.634585
0.634396
0.524352
0.524236
0.525001
0.527221
0.531125
0.536565
0.543879
0.553406
0.565565
0.580398
0.595968
0.609108
0.619103
0.6267
0.632354
0.636504
0.639203
0.640506
0.640844
0.64063
0.506913
0.506819
0.507803
0.510551
0.515425
0.522306
0.531559
0.543486
0.558491
0.576535
0.595244
0.610959
0.622819
0.631793
0.638565
0.643469
0.646633
0.648131
0.648511
0.648264
0.48536
0.485197
0.486488
0.49003
0.496309
0.505204
0.51702
0.532063
0.550556
0.572356
0.594696
0.613343
0.62743
0.638063
0.646064
0.651883
0.655582
0.657259
0.65766
0.657366
0.457476
0.457481
0.459523
0.464445
0.472939
0.48488
0.500447
0.519691
0.542607
0.568882
0.59524
0.616943
0.633251
0.645614
0.654959
0.661757
0.665968
0.667803
0.668184
0.667835
0.420294
0.420529
0.424038
0.431862
0.444365
0.461243
0.482093
0.506807
0.535152
0.566589
0.597213
0.622038
0.64062
0.654683
0.665346
0.673055
0.677659
0.679545
0.679866
0.679461
0.370576
0.370964
0.3779
0.39097
0.409898
0.433941
0.461821
0.49319
0.527768
0.564952
0.600281
0.628371
0.649249
0.665086
0.677087
0.685561
0.690322
0.692041
0.692182
0.691815
0.304746
0.307562
0.322619
0.343839
0.371579
0.404423
0.440376
0.479171
0.520665
0.564291
0.604849
0.636892
0.660855
0.679046
0.692758
0.702452
0.707562
0.709101
0.709073
0.708898
0.229742
0.239143
0.264178
0.295216
0.33303
0.374866
0.418922
0.465334
0.514009
0.564338
0.610977
0.647914
0.675517
0.696557
0.712634
0.723694
0.729122
0.730308
0.730212
0.730198
0.162614
0.177374
0.208716
0.248479
0.295749
0.346405
0.398488
0.452637
0.508682
0.565917
0.618522
0.659656
0.690436
0.713955
0.731558
0.743727
0.749567
0.750608
0.750977
0.75096
0.111354
0.124567
0.161308
0.207241
0.261843
0.319983
0.379486
0.440985
0.504025
0.567792
0.625408
0.670725
0.704573
0.730192
0.749536
0.76276
0.768994
0.770772
0.770938
0.770964
0.0691123
0.0815638
0.121944
0.171853
0.23197
0.296103
0.362039
0.429977
0.499157
0.568807
0.631913
0.681141
0.717394
0.745185
0.765989
0.780024
0.786984
0.789202
0.789406
0.789532
0.0328164
0.0455635
0.0886897
0.141434
0.20581
0.274694
0.346014
0.419549
0.494509
0.570058
0.638311
0.690553
0.729382
0.758642
0.78063
0.795366
0.802592
0.805043
0.805302
0.805403
0.0011694
0.0141175
0.0593721
0.114687
0.182591
0.255401
0.33132
0.409803
0.489961
0.570497
0.642667
0.698544
0.739511
0.770177
0.792923
0.808151
0.815878
0.818489
0.81887
0.818943
-0.0271914
-0.0141486
0.0327024
0.090475
0.161546
0.23777
0.317669
0.400411
0.484983
0.570158
0.646989
0.705794
0.748233
0.779901
0.803172
0.818898
0.826806
0.829707
0.830163
0.830217
-0.0531451
-0.0400331
0.00802558
0.0681429
0.141987
0.221217
0.304568
0.391
0.479662
0.569475
0.650192
0.711258
0.755657
0.788316
0.811963
0.827899
0.836245
0.839271
0.839802
0.839821
-0.0774931
-0.06408
-0.0150846
0.0472071
0.123456
0.205317
0.291682
0.381468
0.473988
0.567784
0.652027
0.716358
0.762282
0.795629
0.819886
0.835843
0.844274
0.847398
0.847966
0.847895
-0.100391
-0.0868053
-0.0369229
0.0272783
0.105585
0.189793
0.278885
0.3717
0.467593
0.565051
0.653477
0.720765
0.768167
0.802673
0.827049
0.842895
0.851279
0.854363
0.854903
0.854726
-0.122045
-0.108389
-0.0577436
0.00807213
0.0881773
0.17452
0.266066
0.361536
0.460443
0.561584
0.65399
0.724221
0.773898
0.809173
0.833717
0.849433
0.857492
0.860538
0.861024
0.860934
-0.142835
-0.128997
-0.0777366
-0.0105534
0.0711175
0.159366
0.253079
0.350924
0.452652
0.557326
0.653639
0.727421
0.779489
0.815756
0.840279
0.855573
0.863467
0.866251
0.866724
0.866623
-0.163144
-0.148811
-0.0970795
-0.0287041
0.0543297
0.144256
0.239889
0.339928
0.444304
0.552245
0.652453
0.730037
0.784706
0.822446
0.847146
0.861942
0.869175
0.871671
0.872022
0.871926
-0.1831
-0.168049
-0.115874
-0.0464284
0.0377788
0.129177
0.226541
0.328605
0.435415
0.546411
0.650505
0.732015
0.789833
0.829658
0.854755
0.868721
0.875096
0.876765
0.876979
0.876868
-0.2026
-0.186812
-0.134181
-0.0637486
0.0214845
0.11418
0.21309
0.316977
0.425988
0.539768
0.647408
0.732968
0.794699
0.837272
0.863504
0.876611
0.88125
0.881533
0.88141
0.881306
-0.221542
-0.205146
-0.152
-0.080641
0.00549499
0.0993123
0.199558
0.30504
0.415996
0.532267
0.643304
0.733107
0.799063
0.8454
0.873855
0.886285
0.888638
0.886041
0.885508
0.886339
-0.239851
-0.222995
-0.169313
-0.0970841
-0.0101462
0.0846226
0.185986
0.292841
0.405544
0.52403
0.638006
0.731903
0.802755
0.853668
0.885885
0.899168
0.899015
0.892348
0.887229
0.885757
-0.257524
-0.240302
-0.186072
-0.113044
-0.0253986
0.0701621
0.172441
0.280472
0.39471
0.515043
0.631478
0.729286
0.804977
0.861736
0.899442
0.916151
0.917189
0.905166
0.903904
0.908147
-0.274542
-0.25698
-0.202229
-0.128485
-0.0402195
0.0559991
0.159026
0.268031
0.383543
0.505427
0.623891
0.724914
0.80553
0.868559
0.913475
0.937012
0.941744
0.913198
0.872539
0.836414
-0.290866
-0.273045
-0.217809
-0.143471
-0.0547023
0.0420249
0.145608
0.255329
0.37178
0.494925
0.615042
0.718473
0.803251
0.872976
0.926925
0.96059
0.980354
0.963227
0.980105
1.03803
-0.306439
-0.288514
-0.232896
-0.158135
-0.0690206
0.0280205
0.131915
0.242022
0.359
0.483005
0.604304
0.70918
0.797142
0.872197
0.931484
0.969476
0.982504
0.962245
0.921656
0.936002
-0.321247
-0.30338
-0.247435
-0.172412
-0.0830909
0.0140824
0.118062
0.228261
0.345389
0.46976
0.591602
0.696988
0.785362
0.861672
0.921415
0.958556
0.947986
0.895228
0.831718
0.819574
-0.335265
-0.317615
-0.261427
-0.186304
-0.0969147
0.000205964
0.104062
0.214091
0.331009
0.45518
0.576769
0.681461
0.767651
0.839301
0.893179
0.903123
0.869065
0.793085
0.718993
0.697426
-0.348544
-0.331234
-0.274885
-0.199829
-0.110517
-0.013622
0.0899211
0.199544
0.315904
0.439298
0.559804
0.662428
0.742984
0.802827
0.832117
0.820209
0.7637
0.662711
0.575761
0.554077
-0.361536
-0.344626
-0.288213
-0.213368
-0.124254
-0.0277121
0.0753786
0.184395
0.299859
0.421894
0.540475
0.639304
0.712452
0.756653
0.75195
0.71783
0.608215
0.486436
0.379479
0.352781
-0.375143
-0.358621
-0.302113
-0.227542
-0.138703
-0.0425461
0.0600227
0.168289
0.282599
0.40281
0.518575
0.611807
0.677814
0.698062
0.664604
0.577873
0.422688
0.270635
0.141861
0.114643
-0.389881
-0.373586
-0.316915
-0.242601
-0.154043
-0.0582552
0.0437576
0.151169
0.264118
0.382014
0.493848
0.58086
0.63637
0.628751
0.576294
0.427588
0.228422
0.0163697
-0.163319
-0.211371
-0.40587
-0.389664
-0.332667
-0.258553
-0.170254
-0.0748155
0.0266043
0.133059
0.244477
0.359641
0.466357
0.54788
0.588342
0.549348
0.46248
0.27524
0.0444671
-0.243832
-0.56492
-0.712325
-0.423174
-0.406885
-0.349499
-0.275501
-0.187391
-0.0922975
0.00848747
0.113901
0.223637
0.33574
0.436604
0.512225
0.535042
0.4654
0.329664
0.124492
-0.109322
-0.452951
-1.03997
-1.61207
-0.441883
-0.425415
-0.367463
-0.29349
-0.205485
-0.110697
-0.0105528
0.0937765
0.201748
0.310702
0.405586
0.473336
0.478045
0.391629
0.201203
-0.0323964
-0.235083
-0.469852
-1.02627
-2.54436
-0.462
-0.445233
-0.386684
-0.312665
-0.22469
-0.130216
-0.0307601
0.0724061
0.178465
0.284118
0.373129
0.431417
0.41633
0.333951
0.108138
-0.130042
-0.278005
-0.315363
-0.305586
-0.69411
-0.483474
-0.466636
-0.407303
-0.333307
-0.245418
-0.151347
-0.0527435
0.0490303
0.152847
0.254587
0.33815
0.386172
0.355551
0.285405
0.0587936
-0.144031
-0.254946
-0.262883
-0.209668
-0.250061
-0.506116
-0.489319
-0.429353
-0.355501
-0.267735
-0.17422
-0.0766703
0.0234776
0.124699
0.221979
0.300934
0.339084
0.302004
0.232705
0.0270097
-0.134178
-0.216537
-0.224275
-0.272111
-0.276487
-0.530001
-0.513242
-0.452694
-0.379219
-0.291647
-0.198849
-0.102568
-0.00430138
0.094017
0.186659
0.261053
0.28997
0.255426
0.17263
-0.000861183
-0.124539
-0.194836
-0.171094
-0.191856
-0.193399
-0.554783
-0.537859
-0.477295
-0.404389
-0.316979
-0.225164
-0.130373
-0.0342006
0.0609422
0.149048
0.218931
0.237205
0.214653
0.105179
-0.0355766
-0.119202
-0.159003
-0.20539
-0.180728
-0.189051
-0.580247
-0.562917
-0.502932
-0.43078
-0.343541
-0.252999
-0.15988
-0.066002
0.0255911
0.10949
0.175334
0.183546
0.17227
0.044685
-0.0724494
-0.137025
-0.115778
-0.175441
-0.15594
-0.160747
-0.605474
-0.58793
-0.529497
-0.458039
-0.370961
-0.282109
-0.190805
-0.0993771
-0.011788
0.0683725
0.131371
0.132199
0.121241
-0.00744234
-0.099721
-0.151487
-0.139093
-0.155715
-0.161033
-0.159396
-0.630086
-0.612684
-0.556108
-0.485393
-0.39895
-0.312121
-0.22272
-0.133881
-0.0506631
0.0259354
0.0874898
0.0844377
0.0649933
-0.0510363
-0.115231
-0.145943
-0.183146
-0.156613
-0.16333
-0.158079
-0.653056
-0.636389
-0.581771
-0.512071
-0.427077
-0.342469
-0.2551
-0.168978
-0.0901571
-0.0174716
0.0434537
0.0404326
0.00994075
-0.0887673
-0.132566
-0.122274
-0.192164
-0.141111
-0.155575
-0.148555
-0.673723
-0.658169
-0.605438
-0.537051
-0.454925
-0.372366
-0.287255
-0.204027
-0.129269
-0.0613337
-0.000921695
-0.000819479
-0.0376742
-0.107756
-0.146278
-0.108985
-0.152553
-0.131753
-0.137297
-0.134476
-0.690508
-0.676581
-0.626442
-0.559954
-0.48135
-0.400781
-0.318355
-0.238222
-0.166983
-0.104735
-0.0457385
-0.0411552
-0.0738791
-0.110773
-0.140729
-0.120781
-0.132271
-0.131698
-0.130305
-0.130064
-0.702572
-0.690725
-0.643684
-0.579729
-0.504795
-0.426815
-0.347403
-0.270592
-0.20246
-0.146399
-0.0891125
-0.0799481
-0.107226
-0.103961
-0.119214
-0.138766
-0.125551
-0.135447
-0.131173
-0.131423
-0.708504
-0.69905
-0.656146
-0.59533
-0.523968
-0.449278
-0.373294
-0.299939
-0.234702
-0.184321
-0.129096
-0.118259
-0.149058
-0.111023
-0.0625533
-0.109574
-0.099585
-0.133501
-0.139136
-0.141263
-0.708208
-0.700874
-0.662135
-0.605013
-0.537638
-0.466825
-0.394616
-0.324838
-0.262617
-0.216557
-0.163734
-0.155924
-0.198056
-0.169279
-0.0531754
-0.0768273
-0.101018
-0.125836
-0.133114
-0.135861
-0.700708
-0.693448
-0.659899
-0.607791
-0.544985
-0.478386
-0.410116
-0.343637
-0.284189
-0.240289
-0.192586
-0.19435
-0.260793
-0.34958
-0.41866
-0.493317
-0.504372
-0.469301
-0.4368
-0.41628
-0.681332
-0.673227
-0.647087
-0.601924
-0.54476
-0.482867
-0.418645
-0.354794
-0.296387
-0.252886
-0.209216
-0.210819
-0.340338
-0.597859
-0.968398
-1.18089
-1.19952
-1.15654
-1.04698
-0.961227
-0.641615
-0.634026
-0.622405
-0.588056
-0.537505
-0.480284
-0.41989
-0.357155
-0.296691
-0.249402
-0.207653
-0.182292
-0.291714
-0.505309
-0.738136
-0.810811
-0.747866
-0.661952
-0.600531
-0.563617
-0.597975
-0.594613
-0.59296
-0.566466
-0.523925
-0.471798
-0.413808
-0.350708
-0.284402
-0.224788
-0.171563
-0.0848501
0.0146092
0.174841
0.317108
0.485017
0.625586
0.717601
0.778288
0.833021
-0.573168
-0.574053
-0.566193
-0.54726
-0.510642
-0.460812
-0.402286
-0.337051
-0.262031
-0.179655
-0.0944469
0.0564409
0.290062
0.663342
1.02039
1.30726
1.50586
1.62089
1.67347
1.68757
-0.541661
-0.542472
-0.537261
-0.529565
-0.497842
-0.449897
-0.389542
-0.320752
-0.238328
-0.139055
-0.029916
0.119301
0.381711
0.738968
1.08998
1.37896
1.58517
1.7047
1.75793
1.77522
-0.516538
-0.515495
-0.51633
-0.511955
-0.486735
-0.441256
-0.37916
-0.305712
-0.21936
-0.113503
0.00162755
0.117528
0.356262
0.659544
0.960167
1.21928
1.41955
1.54094
1.595
1.61045
-0.498734
-0.496491
-0.498456
-0.492338
-0.477433
-0.436018
-0.372235
-0.295258
-0.207955
-0.104355
0.00455119
0.0849658
0.279874
0.534848
0.779551
0.990925
1.16091
1.26446
1.30956
1.32077
-0.488786
-0.486579
-0.485126
-0.481872
-0.475442
-0.432012
-0.366725
-0.288777
-0.204126
-0.110346
-0.00817715
0.0510002
0.198573
0.410683
0.604536
0.765148
0.89372
0.973412
1.00793
1.01689
-0.495416
-0.494366
-0.494091
-0.500733
-0.489374
-0.433276
-0.36294
-0.283956
-0.202438
-0.121335
-0.0253369
0.0242404
0.12771
0.297428
0.448442
0.567226
0.660389
0.720385
0.746173
0.751706
-0.502973
-0.504428
-0.509483
-0.515421
-0.495153
-0.431389
-0.35605
-0.276242
-0.198035
-0.129608
-0.0408086
0.00490903
0.0717401
0.202538
0.318388
0.406411
0.473694
0.517535
0.535118
0.540432
-0.469926
-0.472886
-0.481129
-0.484719
-0.462509
-0.403265
-0.333546
-0.259666
-0.187252
-0.130595
-0.0518865
-0.00857693
0.0334541
0.132515
0.21866
0.28204
0.331505
0.363711
0.377129
0.381714
-0.371751
-0.37621
-0.382418
-0.385729
-0.369799
-0.33045
-0.281654
-0.226689
-0.166366
-0.12155
-0.0570687
-0.0188427
0.00855727
0.0856191
0.147694
0.191312
0.228286
0.252843
0.2625
0.264975
-0.243252
-0.246024
-0.249172
-0.251728
-0.244996
-0.228846
-0.205873
-0.175332
-0.13573
-0.102621
-0.0560403
-0.0246645
-0.00548914
0.0538756
0.0981592
0.128283
0.153066
0.168619
0.17532
0.176964
-0.128064
-0.129472
-0.131793
-0.135628
-0.136691
-0.13578
-0.131104
-0.119488
-0.099618
-0.0793094
-0.0498915
-0.0265533
-0.0107641
0.0329165
0.0627304
0.0830926
0.0973891
0.105206
0.107808
0.107903
-0.0430961
-0.0439907
-0.0458372
-0.0509383
-0.0587257
-0.0667464
-0.0717624
-0.0717945
-0.0656108
-0.0567448
-0.0403228
-0.0250096
-0.0122855
0.0172648
0.0361944
0.0479874
0.0549835
0.0576748
0.057308
0.0562599
0.00897396
0.00825374
0.00655208
0.000914655
-0.00954739
-0.0215514
-0.0311987
-0.0373864
-0.0387236
-0.0378132
-0.0297078
-0.0204332
-0.0116411
0.00484064
0.0154023
0.0213234
0.0239104
0.023551
0.0219061
0.020484
0.0349508
0.0343828
0.0328186
0.0274049
0.0172631
0.00485133
-0.00641134
-0.0153524
-0.0202942
-0.0238601
-0.0200957
-0.0154763
-0.0113348
-0.00388797
0.000406183
0.00233025
0.00265746
0.00107941
-0.00106232
-0.00254095
0.0449312
0.0444818
0.0431717
0.0385483
0.0297629
0.0185572
0.00740661
-0.0023586
-0.00888395
-0.0143124
-0.0129254
-0.0112732
-0.0110028
-0.0091335
-0.00860735
-0.00890459
-0.00982739
-0.0118043
-0.0138132
-0.0152903
0.0458164
0.0454884
0.0444702
0.0408812
0.0339669
0.0247999
0.0149193
0.00541696
-0.00161272
-0.00787606
-0.0081056
-0.00912176
-0.0109425
-0.0106765
-0.0118762
-0.013045
-0.0151544
-0.0176974
-0.0195517
-0.0208843
0.0421821
0.0419546
0.0412048
0.0385492
0.0334239
0.026456
0.0184801
0.010095
0.00359528
-0.00324099
-0.00476072
-0.0070548
-0.0104787
-0.0107261
-0.0123744
-0.0144807
-0.0169134
-0.0192149
-0.0207171
-0.0218437
0.0366344
0.0364897
0.035953
0.0340932
0.0304398
0.0253342
0.0192705
0.0123432
0.00688568
-0.000187607
-0.00268609
-0.0049091
-0.00800738
-0.00915317
-0.0111209
-0.0134091
-0.0156058
-0.0173298
-0.018349
-0.0193491
0.0305357
0.030433
0.0300424
0.0287484
0.0261657
0.0224659
0.0179206
0.0124271
0.00820736
0.00165999
-0.00114818
-0.00367633
-0.00616542
-0.00689734
-0.00875963
-0.0108324
-0.012564
-0.0137992
-0.014389
-0.0152264
0.0248137
0.0247312
0.0244488
0.0235393
0.0217001
0.0190058
0.0155008
0.0111105
0.00795375
0.00254892
-0.000258469
-0.00238297
-0.00493909
-0.00562062
-0.00678384
-0.00807545
-0.00922475
-0.0100568
-0.0103281
-0.0110268
0.0197164
0.0196473
0.0194362
0.0188162
0.0175905
0.0156704
0.0131105
0.00969792
0.00725199
0.00269353
0.000331741
-0.00166665
-0.00401373
-0.00417235
-0.0049528
-0.00574796
-0.00636663
-0.00676604
-0.00684839
-0.00743462
0.0154429
0.0153764
0.0152126
0.0147697
0.0139291
0.0126086
0.0107988
0.00818415
0.00634019
0.00245425
0.000444369
-0.00197726
-0.00396815
-0.00301758
-0.00310898
-0.00312362
-0.00313726
-0.00319432
-0.00310443
-0.00365514
0.0119849
0.0119486
0.0118618
0.0115964
0.0110128
0.0100102
0.00872581
0.00672486
0.00530473
0.00204101
0.000236168
-0.00192647
-0.00348508
-0.00257372
-0.00173782
-0.000792172
-0.000303916
-0.000161005
-0.000101635
-0.00063349
0.00879538
0.00874729
0.00867317
0.00851822
0.00815566
0.00748228
0.0066129
0.00512782
0.00428483
0.00181331
0.000329634
-0.00162515
-0.00271049
-0.00172962
-0.000684681
0.000436559
0.00140589
0.00178771
0.00187761
0.00135018
0.00590389
0.00585522
0.00579285
0.00572336
0.00550416
0.0051157
0.00458807
0.00351922
0.00312207
0.00136324
0.000572848
-0.00110277
-0.00182789
-0.000848102
-6.23794e-05
0.000881096
0.00185221
0.00240291
0.00254653
0.00194059
0.00341542
0.00337382
0.00334525
0.00334885
0.00324644
0.0030522
0.002723
0.0020207
0.00192997
0.000738462
0.000730896
-0.000155121
-0.000589586
-9.73037e-05
0.00020608
0.000728106
0.00142284
0.00195108
0.00224687
0.00179815
0.00130842
0.00127904
0.00125745
0.00122518
0.00116109
0.00114243
0.00101736
0.000641622
0.000864731
0.000247948
0.000709829
0.00066639
0.00042682
0.000524913
-3.54669e-05
-0.000615442
-0.00103953
-0.00137713
-0.000978489
-0.00100443
-1.0756
-0.234218
0.0358891
0.312671
0.495
0.65179
0.779233
0.909072
1.05131
1.133
-0.0938184
0.313644
0.330739
0.519405
0.644067
0.75592
0.852279
0.938037
0.965605
0.923399
0.284316
0.498625
0.534307
0.670971
0.757383
0.837625
0.903792
0.95343
0.955618
0.969587
0.514561
0.658008
0.693255
0.795532
0.852506
0.910594
0.955558
0.987994
0.997102
1.02074
0.693122
0.794921
0.824688
0.892745
0.937191
0.978478
1.0107
1.03502
1.04483
1.07638
0.836827
0.905876
0.936249
0.979371
1.01554
1.04579
1.07015
1.09089
1.10506
1.13331
0.956272
1.00698
1.0326
1.06069
1.08844
1.11228
1.13227
1.15152
1.16643
1.19291
1.06024
1.09732
1.11845
1.13916
1.16001
1.17944
1.19685
1.21496
1.22984
1.25349
1.15436
1.18352
1.19988
1.21518
1.23132
1.24739
1.26294
1.27985
1.29346
1.31578
1.24272
1.26319
1.27806
1.29123
1.30481
1.31857
1.33207
1.34666
1.3582
1.37785
1.32819
1.34399
1.35781
1.36962
1.38152
1.39315
1.40429
1.41598
1.42365
1.44046
1.41343
1.42597
1.43968
1.45142
1.46205
1.47184
1.48067
1.48893
1.4925
1.50375
1.50216
1.51297
1.52644
1.53598
1.54355
1.55083
1.55803
1.56453
1.56561
1.57299
1.60056
1.60515
1.61335
1.61811
1.62151
1.626
1.63199
1.63968
1.64356
1.65344
1.71386
1.70077
1.69348
1.68775
1.68503
1.68637
1.69274
1.70511
1.71991
1.74958
1.83587
1.77984
1.74881
1.73162
1.7234
1.72334
1.73215
1.75174
1.78359
1.85284
)
;

boundaryField
{
    wall-4
    {
        type            zeroGradient;
    }
    pressure-outlet-7
    {
        type            fixedValue;
        value           uniform 0;
    }
    velocity-inlet-6
    {
        type            zeroGradient;
    }
    velocity-inlet-5
    {
        type            zeroGradient;
    }
    frontAndBackPlanes
    {
        type            empty;
    }
}


// ************************************************************************* //
