/*--------------------------------*- C++ -*----------------------------------*\
| =========                 |                                                 |
| \\      /  F ield         | OpenFOAM: The Open Source CFD Toolbox           |
|  \\    /   O peration     | Version:  4.0                                   |
|   \\  /    A nd           | Web:      www.OpenFOAM.org                      |
|    \\/     M anipulation  |                                                 |
\*---------------------------------------------------------------------------*/
FoamFile
{
    version     2.0;
    format      ascii;
    class       volVectorField;
    location    "49";
    object      U;
}
// * * * * * * * * * * * * * * * * * * * * * * * * * * * * * * * * * * * * * //

dimensions      [0 1 -1 0 0 0 0];

internalField   nonuniform List<vector> 
2200
(
(0.878831 -0.0304149 0)
(1.00578 -0.0512828 0)
(1.00327 -0.0354097 0)
(1.00022 -0.0244529 0)
(0.99981 -0.0166825 0)
(1 -0.0107458 0)
(1.00002 -0.00687909 0)
(1.00002 -0.00423681 0)
(1 -0.00226435 0)
(1.00017 -0.000729945 0)
(1.00002 0.000967041 0)
(0.999938 0.0024994 0)
(0.999993 0.00445676 0)
(1.00002 0.00703691 0)
(1.00009 0.0108849 0)
(0.99998 0.0166909 0)
(1.00031 0.0244173 0)
(1.00347 0.0349579 0)
(1.00595 0.051368 0)
(0.879007 0.0303183 0)
(0.712009 -0.032763 0)
(0.996629 -0.0630199 0)
(1.03331 -0.056152 0)
(1.02493 -0.0464147 0)
(1.01595 -0.0361085 0)
(1.00967 -0.0263763 0)
(1.0059 -0.0181187 0)
(1.00375 -0.0114262 0)
(1.00256 -0.00604344 0)
(1.00206 -0.00153129 0)
(1.00212 0.0026172 0)
(1.00261 0.00703972 0)
(1.00367 0.0122791 0)
(1.00584 0.0189058 0)
(1.00944 0.0270967 0)
(1.01549 0.0368445 0)
(1.02459 0.047304 0)
(1.0331 0.0577491 0)
(0.996675 0.0631444 0)
(0.711795 0.0330039 0)
(0.535499 -0.023899 0)
(0.969876 -0.0569528 0)
(1.05641 -0.0547556 0)
(1.05222 -0.0488097 0)
(1.03618 -0.0404855 0)
(1.02442 -0.032324 0)
(1.01589 -0.0240551 0)
(1.01038 -0.0161557 0)
(1.00718 -0.00889888 0)
(1.0056 -0.00229492 0)
(1.0054 0.0040349 0)
(1.00684 0.0105979 0)
(1.01013 0.0176731 0)
(1.01558 0.0253485 0)
(1.02416 0.0333537 0)
(1.03622 0.041377 0)
(1.05226 0.0494129 0)
(1.05635 0.0534916 0)
(0.969221 0.0576167 0)
(0.53442 0.0239331 0)
(0.392227 -0.0136553 0)
(0.911748 -0.0464051 0)
(1.05745 -0.0469426 0)
(1.0695 -0.0442891 0)
(1.05487 -0.0381593 0)
(1.03933 -0.0315315 0)
(1.02752 -0.0247509 0)
(1.01902 -0.0175384 0)
(1.01364 -0.01004 0)
(1.01105 -0.00243216 0)
(1.01106 0.00513375 0)
(1.0135 0.0125344 0)
(1.01853 0.0198075 0)
(1.02681 0.0267004 0)
(1.0385 0.0330738 0)
(1.05391 0.0394479 0)
(1.06817 0.0455021 0)
(1.05563 0.0482292 0)
(0.91 0.0469376 0)
(0.390044 0.0137697 0)
(0.30757 -0.00451528 0)
(0.846617 -0.0323994 0)
(1.04942 -0.0399716 0)
(1.07953 -0.0383039 0)
(1.06814 -0.0336498 0)
(1.0516 -0.0280123 0)
(1.03832 -0.0226491 0)
(1.02814 -0.0166164 0)
(1.0211 -0.00974754 0)
(1.01719 -0.00216267 0)
(1.0168 0.0056617 0)
(1.02032 0.0130578 0)
(1.02723 0.0195454 0)
(1.03719 0.0251743 0)
(1.05026 0.0301866 0)
(1.06682 0.0355548 0)
(1.07792 0.0399058 0)
(1.04744 0.041585 0)
(0.843208 0.0329117 0)
(0.304 0.00471164 0)
(0.264097 9.47556e-05 0)
(0.788744 -0.020109 0)
(1.03302 -0.0315068 0)
(1.08335 -0.0320912 0)
(1.07727 -0.0288355 0)
(1.06081 -0.0239514 0)
(1.04712 -0.0194768 0)
(1.03627 -0.0144047 0)
(1.02846 -0.00838873 0)
(1.02406 -0.0013621 0)
(1.0239 0.00599337 0)
(1.02776 0.0127269 0)
(1.03483 0.018303 0)
(1.04527 0.0229598 0)
(1.05875 0.026947 0)
(1.07492 0.0313754 0)
(1.08042 0.034144 0)
(1.02931 0.0332312 0)
(0.782974 0.0207172 0)
(0.259116 0.000106701 0)
(0.240111 0.00106331 0)
(0.738148 -0.0123205 0)
(1.01377 -0.0250839 0)
(1.0841 -0.0268841 0)
(1.08289 -0.0245903 0)
(1.06768 -0.0204787 0)
(1.05414 -0.0164817 0)
(1.04329 -0.0120017 0)
(1.0352 -0.0066184 0)
(1.03026 -0.000325799 0)
(1.02965 0.00634293 0)
(1.03365 0.0121739 0)
(1.04138 0.0169764 0)
(1.05173 0.0208781 0)
(1.06498 0.0243698 0)
(1.0798 0.0278747 0)
(1.08032 0.029485 0)
(1.00804 0.0270806 0)
(0.729528 0.0130878 0)
(0.233573 -0.000852647 0)
(0.225639 0.000942128 0)
(0.69481 -0.00808957 0)
(0.992398 -0.020873 0)
(1.08184 -0.0233237 0)
(1.08675 -0.0215321 0)
(1.07332 -0.0179849 0)
(1.05983 -0.0141847 0)
(1.04922 -0.00983716 0)
(1.04126 -0.00495154 0)
(1.03638 0.000663456 0)
(1.03578 0.00662198 0)
(1.03946 0.011926 0)
(1.0462 0.0161809 0)
(1.05625 0.0197535 0)
(1.0694 0.0227559 0)
(1.0821 0.0255324 0)
(1.07577 0.0265271 0)
(0.983672 0.0232428 0)
(0.682658 0.00905817 0)
(0.217254 -0.000728038 0)
(0.21606 0.000621153 0)
(0.659629 -0.00570911 0)
(0.972397 -0.017671 0)
(1.07937 -0.0202944 0)
(1.09 -0.0187703 0)
(1.07799 -0.0157723 0)
(1.06468 -0.0121691 0)
(1.05424 -0.00806925 0)
(1.04639 -0.00320462 0)
(1.04143 0.00216165 0)
(1.04055 0.00755895 0)
(1.04399 0.0121908 0)
(1.05088 0.0160694 0)
(1.06033 0.0192886 0)
(1.07296 0.0220459 0)
(1.08387 0.0241183 0)
(1.07178 0.0247202 0)
(0.960343 0.0207633 0)
(0.643064 0.00697584 0)
(0.205347 -0.000355753 0)
(0.208697 0.000290211 0)
(0.630516 -0.00425331 0)
(0.952743 -0.0151732 0)
(1.07572 -0.0181489 0)
(1.09291 -0.0168697 0)
(1.08259 -0.0139158 0)
(1.06925 -0.0104162 0)
(1.05881 -0.00634386 0)
(1.05104 -0.00180236 0)
(1.04604 0.00312839 0)
(1.04474 0.00811438 0)
(1.04745 0.012665 0)
(1.0535 0.0162863 0)
(1.06292 0.0191298 0)
(1.07563 0.0215049 0)
(1.08467 0.0234038 0)
(1.06422 0.0233652 0)
(0.935389 0.0187859 0)
(0.608405 0.00579682 0)
(0.195088 1.55364e-05 0)
(0.202854 6.768e-05 0)
(0.607297 -0.00321254 0)
(0.935109 -0.012676 0)
(1.07287 -0.0157989 0)
(1.09624 -0.0146942 0)
(1.08712 -0.0120291 0)
(1.07364 -0.00847962 0)
(1.06299 -0.00463035 0)
(1.05494 -4.02145e-05 0)
(1.04974 0.00496984 0)
(1.04848 0.00987824 0)
(1.05122 0.0137949 0)
(1.05722 0.0169457 0)
(1.06623 0.0195728 0)
(1.0785 0.0216724 0)
(1.08545 0.0228734 0)
(1.05854 0.0224168 0)
(0.912812 0.0171813 0)
(0.579015 0.00508796 0)
(0.185835 0.000292592 0)
(0.198082 -2.00012e-06 0)
(0.588698 -0.00235029 0)
(0.91908 -0.0104281 0)
(1.06946 -0.0136825 0)
(1.09945 -0.0126851 0)
(1.09202 -0.0099684 0)
(1.07835 -0.00656704 0)
(1.0674 -0.00269188 0)
(1.05921 0.00169438 0)
(1.05375 0.00635619 0)
(1.05143 0.0108836 0)
(1.05325 0.0148612 0)
(1.05892 0.0178525 0)
(1.06809 0.0199947 0)
(1.08059 0.021913 0)
(1.08529 0.0228204 0)
(1.04905 0.0217493 0)
(0.888109 0.0158356 0)
(0.551837 0.00466427 0)
(0.176698 0.000462029 0)
(0.194469 2.46392e-05 0)
(0.573889 -0.00157444 0)
(0.904587 -0.00817345 0)
(1.06674 -0.0112632 0)
(1.10296 -0.0103093 0)
(1.09682 -0.00775823 0)
(1.08309 -0.0042464 0)
(1.07167 -0.000503685 0)
(1.06279 0.00389086 0)
(1.05668 0.00880477 0)
(1.05461 0.0135389 0)
(1.05657 0.0169201 0)
(1.06207 0.0193506 0)
(1.07106 0.0211718 0)
(1.08265 0.0225089 0)
(1.08469 0.0229705 0)
(1.04128 0.0213156 0)
(0.865942 0.0148301 0)
(0.528189 0.00442871 0)
(0.168134 0.000545454 0)
(0.192255 4.25908e-05 0)
(0.56316 -0.000827056 0)
(0.89274 -0.00607661 0)
(1.06376 -0.00899893 0)
(1.10611 -0.00791516 0)
(1.1017 -0.00517226 0)
(1.0879 -0.00168075 0)
(1.07619 0.00224356 0)
(1.06698 0.00665576 0)
(1.06033 0.011212 0)
(1.05676 0.0151937 0)
(1.05783 0.0187082 0)
(1.06307 0.0209205 0)
(1.07213 0.0222648 0)
(1.08322 0.0232404 0)
(1.08303 0.0233318 0)
(1.02921 0.0211624 0)
(0.840921 0.0140644 0)
(0.504726 0.00428879 0)
(0.159369 0.000580416 0)
(0.191256 9.23014e-05 0)
(0.555547 -0.000254322 0)
(0.882451 -0.00397846 0)
(1.06216 -0.00619137 0)
(1.10995 -0.0048683 0)
(1.10679 -0.00208547 0)
(1.09316 0.0015757 0)
(1.08106 0.00550254 0)
(1.07116 0.00990265 0)
(1.06354 0.0146001 0)
(1.06019 0.0187386 0)
(1.06131 0.0212879 0)
(1.06603 0.0228413 0)
(1.07449 0.0239828 0)
(1.0838 0.0243512 0)
(1.0808 0.0240619 0)
(1.01876 0.0212886 0)
(0.818444 0.0137153 0)
(0.483768 0.00430039 0)
(0.151098 0.000615686 0)
(0.191752 5.86324e-05 0)
(0.551196 0.000797011 0)
(0.875961 -0.00165797 0)
(1.06101 -0.00362369 0)
(1.114 -0.00191143 0)
(1.11236 0.00133487 0)
(1.0986 0.00523557 0)
(1.08622 0.00939934 0)
(1.07587 0.0138469 0)
(1.06769 0.0182151 0)
(1.06253 0.0216398 0)
(1.06181 0.0240367 0)
(1.06592 0.0253228 0)
(1.07439 0.0258488 0)
(1.08342 0.0261061 0)
(1.0768 0.0252183 0)
(1.00436 0.0216861 0)
(0.792731 0.0135591 0)
(0.461706 0.00433556 0)
(0.142289 0.000630082 0)
(0.193701 0.000206908 0)
(0.551386 0.00149223 0)
(0.870929 0.000457592 0)
(1.06176 -0.00015896 0)
(1.11888 0.00191145 0)
(1.1182 0.00522952 0)
(1.10441 0.0094761 0)
(1.09132 0.0139303 0)
(1.07999 0.0185871 0)
(1.07038 0.0231397 0)
(1.06489 0.0267141 0)
(1.06473 0.0285961 0)
(1.06837 0.0290837 0)
(1.07593 0.029187 0)
(1.0823 0.028557 0)
(1.07179 0.0270744 0)
(0.990729 0.0227811 0)
(0.768918 0.0138435 0)
(0.441195 0.00457457 0)
(0.133728 0.000672844 0)
(0.197682 0.000653079 0)
(0.55396 0.00226209 0)
(0.871072 0.00335473 0)
(1.06355 0.00299582 0)
(1.12435 0.00555506 0)
(1.12478 0.00955333 0)
(1.11044 0.014282 0)
(1.09674 0.0191145 0)
(1.08482 0.0240064 0)
(1.07472 0.0284752 0)
(1.0674 0.031433 0)
(1.06409 0.032473 0)
(1.06624 0.0327464 0)
(1.07375 0.0320509 0)
(1.08044 0.0314694 0)
(1.06548 0.0293002 0)
(0.972656 0.0239983 0)
(0.741038 0.014363 0)
(0.418291 0.0048689 0)
(0.124114 0.00071122 0)
(0.204069 0.000863048 0)
(0.560778 0.00340776 0)
(0.874755 0.00575023 0)
(1.06815 0.00743123 0)
(1.13092 0.0107567 0)
(1.13212 0.0148865 0)
(1.11738 0.0199554 0)
(1.1026 0.0253246 0)
(1.08928 0.0307905 0)
(1.07709 0.0356167 0)
(1.06835 0.0386395 0)
(1.06566 0.0396672 0)
(1.06803 0.0391535 0)
(1.07424 0.0379343 0)
(1.07686 0.0355454 0)
(1.05693 0.0322473 0)
(0.954856 0.0258746 0)
(0.714602 0.0153312 0)
(0.396078 0.00529983 0)
(0.114416 0.000770183 0)
(0.212258 0.00102664 0)
(0.571792 0.00471167 0)
(0.882696 0.00883743 0)
(1.07488 0.0117853 0)
(1.13845 0.0160658 0)
(1.14038 0.0210789 0)
(1.12482 0.026985 0)
(1.109 0.0327985 0)
(1.09435 0.0385708 0)
(1.08086 0.043399 0)
(1.07024 0.045955 0)
(1.06405 0.045825 0)
(1.06311 0.0442355 0)
(1.0691 0.0416626 0)
(1.07264 0.03992 0)
(1.0469 0.0357647 0)
(0.931878 0.0280716 0)
(0.682764 0.0165442 0)
(0.370121 0.00577739 0)
(0.103194 0.000831468 0)
(0.224478 0.00135309 0)
(0.589906 0.00668173 0)
(0.897277 0.0133184 0)
(1.08533 0.0181972 0)
(1.14781 0.0234327 0)
(1.14953 0.0290047 0)
(1.13289 0.0357157 0)
(1.11527 0.0425412 0)
(1.09812 0.0490521 0)
(1.08152 0.0541041 0)
(1.06847 0.0558524 0)
(1.0629 0.0549765 0)
(1.06381 0.0528514 0)
(1.06833 0.0501191 0)
(1.066 0.0457534 0)
(1.03376 0.0400449 0)
(0.908651 0.0309527 0)
(0.651692 0.018 0)
(0.344326 0.00633483 0)
(0.0917575 0.00087621 0)
(0.240135 0.00193299 0)
(0.613749 0.00855857 0)
(0.918528 0.0181132 0)
(1.09996 0.0253426 0)
(1.15911 0.0321727 0)
(1.16062 0.0391692 0)
(1.14241 0.0472114 0)
(1.12314 0.0546528 0)
(1.10407 0.0612271 0)
(1.08526 0.0654349 0)
(1.06993 0.0663755 0)
(1.06068 0.0643376 0)
(1.05707 0.0607766 0)
(1.05933 0.0560128 0)
(1.05835 0.0520179 0)
(1.01831 0.0451628 0)
(0.878517 0.034133 0)
(0.613474 0.0197524 0)
(0.313544 0.00695008 0)
(0.0785044 0.000890981 0)
(0.262099 0.00279585 0)
(0.646964 0.0123701 0)
(0.947138 0.0249779 0)
(1.11922 0.0350479 0)
(1.17364 0.0432641 0)
(1.17369 0.0521531 0)
(1.15317 0.0611378 0)
(1.13109 0.0695821 0)
(1.10855 0.0766846 0)
(1.08607 0.0810239 0)
(1.06739 0.0807041 0)
(1.05721 0.076824 0)
(1.05489 0.071827 0)
(1.05716 0.0666219 0)
(1.04764 0.0600167 0)
(0.998922 0.0509127 0)
(0.847649 0.0381603 0)
(0.575714 0.0219123 0)
(0.282467 0.00759392 0)
(0.065159 0.000854696 0)
(0.293622 0.00371982 0)
(0.693183 0.0155918 0)
(0.986449 0.0332702 0)
(1.14486 0.0467454 0)
(1.19126 0.0575023 0)
(1.18904 0.0684129 0)
(1.16516 0.0791196 0)
(1.14014 0.08812 0)
(1.1148 0.094865 0)
(1.08926 0.0976231 0)
(1.06735 0.0955592 0)
(1.05351 0.090668 0)
(1.04634 0.0837971 0)
(1.04433 0.0762727 0)
(1.03564 0.0688541 0)
(0.976226 0.0583711 0)
(0.80768 0.0427181 0)
(0.527917 0.0243851 0)
(0.244324 0.00812403 0)
(0.0498053 0.000773921 0)
(0.330019 0.00707511 0)
(0.751141 0.0246913 0)
(1.03481 0.0463193 0)
(1.17618 0.0639416 0)
(1.21298 0.0765648 0)
(1.20606 0.0906924 0)
(1.17716 0.102246 0)
(1.14719 0.111367 0)
(1.11634 0.117472 0)
(1.08563 0.119172 0)
(1.06046 0.115645 0)
(1.0455 0.107356 0)
(1.04001 0.0987774 0)
(1.03874 0.0903072 0)
(1.019 0.0801365 0)
(0.947476 0.0665782 0)
(0.765336 0.0483717 0)
(0.479809 0.0271976 0)
(0.206363 0.00857311 0)
(0.0352761 0.000646992 0)
(0.410039 0.0107252 0)
(0.838549 0.0357815 0)
(1.10001 0.067379 0)
(1.21523 0.0896316 0)
(1.23854 0.105067 6.48052e-34)
(1.22449 0.120738 -2.91332e-34)
(1.18909 0.132214 0)
(1.15443 0.140185 0)
(1.11991 0.144107 0)
(1.08623 0.142771 0)
(1.05722 0.134852 0)
(1.03856 0.125381 0)
(1.028 0.114245 0)
(1.02042 0.103127 0)
(1.00002 0.0917327 0)
(0.914147 0.0758124 0)
(0.710638 0.0533178 0)
(0.416798 0.0291327 0)
(0.157701 0.00828918 0)
(0.0183514 0.000720617 0)
(0.481357 0.0259581 4.83591e-20)
(0.940566 0.0595685 -3.65959e-20)
(1.17012 0.101389 0)
(1.25551 0.127665 2.81496e-20)
(1.26586 0.142989 -2.28265e-20)
(1.24226 0.160793 3.0738e-34)
(1.19997 0.170476 0)
(1.15984 0.176356 1.6296e-20)
(1.11918 0.178007 -5.34688e-20)
(1.07823 0.173675 1.09029e-20)
(1.04498 0.164051 0)
(1.02474 0.150056 -2.75758e-20)
(1.01589 0.136893 -3.30395e-20)
(1.00968 0.12453 5.77883e-20)
(0.970026 0.1089 -4.56441e-20)
(0.860681 0.0867886 0)
(0.636777 0.0598618 -1.64781e-20)
(0.340227 0.0299439 0)
(0.10625 0.00816569 -9.08164e-20)
(0.00110911 0.000652206 1.07031e-19)
(0.517551 0.053527 -6.32084e-21)
(1.00461 0.102603 1.10588e-19)
(1.21945 0.151499 -6.49858e-21)
(1.28863 0.175286 -7.0243e-20)
(1.28994 0.192344 -4.83896e-20)
(1.25731 0.208068 7.87028e-20)
(1.2087 0.214886 0)
(1.16305 0.218153 0)
(1.11721 0.216757 8.51376e-20)
(1.07347 0.20921 0)
(1.0367 0.195466 9.97844e-20)
(1.01106 0.18028 2.95882e-20)
(0.993589 0.165277 3.91504e-22)
(0.973396 0.14844 -6.30464e-20)
(0.932365 0.130868 0)
(0.811173 0.106219 0)
(0.573488 0.0700431 -2.69379e-19)
(0.28517 0.0332098 6.76502e-19)
(0.07954 0.00843429 -4.00108e-19)
(-0.00828709 -0.000334791 -4.71849e-19)
(0.525333 0.0762065 -6.44791e-20)
(1.0425 0.159396 2.44708e-20)
(1.25626 0.21186 1.31592e-20)
(1.31476 0.234304 1.22702e-19)
(1.30867 0.249666 1.43513e-20)
(1.2686 0.261026 -2.05416e-19)
(1.21447 0.263979 6.99014e-20)
(1.16354 0.26393 0)
(1.11239 0.259586 -1.80288e-19)
(1.06211 0.249631 1.59797e-19)
(1.01807 0.232184 -2.69419e-19)
(0.988784 0.213582 1.26279e-19)
(0.972434 0.195054 -8.18132e-20)
(0.956751 0.179827 1.84261e-19)
(0.90288 0.15929 0)
(0.772566 0.125619 -6.74262e-20)
(0.539157 0.0819799 0)
(0.273723 0.0378121 3.72201e-19)
(0.0779384 0.010884 -8.80353e-19)
(-0.0086242 -0.00145034 5.52066e-19)
(0.520671 0.107915 1.8297e-19)
(1.06176 0.215788 -7.9886e-20)
(1.27749 0.276505 -1.68674e-20)
(1.33165 0.298364 0)
(1.32043 0.311748 -9.06853e-20)
(1.27508 0.318016 1.11814e-19)
(1.21623 0.316219 -7.49025e-20)
(1.16008 0.312204 0)
(1.10331 0.303687 1.28173e-19)
(1.04702 0.288046 -1.12326e-19)
(1.00023 0.267018 2.33633e-19)
(0.96849 0.24662 0)
(0.946084 0.228989 -1.73943e-19)
(0.920475 0.207528 9.79919e-20)
(0.870974 0.184748 2.47338e-19)
(0.746199 0.150364 -2.17645e-19)
(0.524049 0.100055 3.45887e-19)
(0.274291 0.0496112 -7.66748e-19)
(0.0875383 0.0152623 4.84059e-19)
(-0.00357949 -0.00100872 -6.05438e-19)
(0.509521 0.132244 -6.54819e-20)
(1.07058 0.270168 4.69522e-20)
(1.28889 0.34272 -5.59902e-20)
(1.34072 0.364148 1.10538e-19)
(1.32586 0.375107 -1.03815e-19)
(1.2767 0.376403 3.55226e-20)
(1.21429 0.370197 3.61525e-21)
(1.15432 0.362101 -1.45851e-19)
(1.09394 0.349581 -1.34556e-19)
(1.03499 0.330654 -2.41451e-19)
(0.984804 0.307907 -5.02515e-19)
(0.947575 0.283375 -1.54777e-19)
(0.922747 0.260381 2.30041e-21)
(0.901884 0.242059 -3.35988e-19)
(0.845729 0.21711 -5.99195e-21)
(0.720399 0.174077 3.16984e-19)
(0.511537 0.117768 -9.56602e-20)
(0.279013 0.0624719 -5.54409e-20)
(0.0998857 0.0217513 0)
(0.00341328 0.000511372 1.28916e-18)
(0.492788 0.15305 0)
(1.06493 0.319598 -4.92412e-21)
(1.291 0.405688 -1.0081e-20)
(1.34285 0.428021 -1.27711e-20)
(1.32545 0.43797 1.0081e-19)
(1.27385 0.43494 -8.25625e-20)
(1.2088 0.424329 8.18782e-20)
(1.1456 0.411891 2.39352e-19)
(1.08128 0.394713 -7.48723e-20)
(1.0169 0.370956 1.19493e-19)
(0.959016 0.341923 2.70205e-19)
(0.920336 0.314748 3.37384e-19)
(0.897166 0.294222 -2.0323e-19)
(0.866275 0.271331 3.63841e-19)
(0.815975 0.243459 -2.88329e-19)
(0.701727 0.202345 0)
(0.507897 0.140286 -7.26534e-19)
(0.290413 0.0790093 9.77814e-19)
(0.115467 0.0310631 7.29881e-20)
(0.0118438 0.00318754 -1.36314e-18)
(0.478806 0.173408 -5.11348e-21)
(1.05759 0.368227 1.0237e-20)
(1.28851 0.466899 7.36817e-20)
(1.34034 0.490015 -9.50152e-20)
(1.32081 0.498756 8.30777e-20)
(1.26731 0.491849 -8.0216e-20)
(1.20027 0.477583 1.62537e-19)
(1.13447 0.461495 -7.20986e-20)
(1.06679 0.440666 -3.02265e-19)
(0.999381 0.413957 -1.77834e-23)
(0.942793 0.382979 -2.93507e-19)
(0.901986 0.354128 -3.62781e-19)
(0.870345 0.329556 2.24229e-19)
(0.848396 0.305439 -1.30902e-19)
(0.792798 0.277813 3.13273e-19)
(0.679919 0.226271 0)
(0.498229 0.162126 -4.50864e-19)
(0.295595 0.0948309 6.65868e-19)
(0.126652 0.0407277 1.26077e-18)
(0.0186728 0.00613113 -1.48301e-18)
(0.464866 0.19119 -4.52164e-20)
(1.0454 0.412728 1.64699e-20)
(1.28177 0.524358 -5.12462e-20)
(1.33396 0.548938 9.84838e-20)
(1.31263 0.55724 1.1898e-20)
(1.25774 0.547067 -1.5768e-19)
(1.18906 0.529377 -9.40519e-20)
(1.12111 0.509653 -9.17562e-20)
(1.0514 0.484905 -1.70184e-19)
(0.981804 0.453429 2.74141e-19)
(0.919151 0.417139 2.96835e-19)
(0.873047 0.386803 5.75727e-19)
(0.846777 0.360979 0)
(0.812227 0.334497 6.36963e-21)
(0.764586 0.301576 -8.60126e-19)
(0.661214 0.254661 2.00882e-19)
(0.493077 0.184167 9.74775e-19)
(0.301497 0.112304 -2.87619e-19)
(0.136174 0.0509044 5.98457e-19)
(0.0242518 0.00928984 -4.99125e-20)
(0.455274 0.20957 5.92549e-21)
(1.03457 0.455952 3.8851e-20)
(1.27305 0.579595 -2.36523e-20)
(1.32506 0.605724 1.11812e-19)
(1.30212 0.61307 -1.70104e-19)
(1.24601 0.599714 1.56901e-19)
(1.17613 0.57912 9.73887e-20)
(1.10674 0.556284 2.74558e-19)
(1.03474 0.528298 3.42369e-19)
(0.960902 0.494081 -3.15946e-19)
(0.8968 0.456932 0)
(0.853689 0.422863 -2.17402e-19)
(0.819323 0.392429 2.49602e-19)
(0.795255 0.365328 3.14941e-19)
(0.741972 0.333423 -1.82067e-19)
(0.640345 0.275721 -4.44439e-19)
(0.481543 0.205111 -1.32666e-19)
(0.301468 0.127739 -1.64247e-21)
(0.140991 0.0597929 0)
(0.0277841 0.0119037 0)
(0.447269 0.225915 -6.51897e-20)
(1.02259 0.496109 0)
(1.26223 0.63109 -9.40459e-21)
(1.31397 0.659125 -9.0915e-21)
(1.28976 0.666099 1.92246e-19)
(1.23279 0.650129 -4.90264e-20)
(1.16197 0.626808 9.88474e-20)
(1.09115 0.600984 -1.85965e-19)
(1.01732 0.5701 2.59523e-19)
(0.942715 0.532522 -1.03125e-19)
(0.877099 0.490836 1.69858e-19)
(0.828263 0.452451 6.89116e-19)
(0.796176 0.422453 1.42123e-20)
(0.760583 0.391042 -3.28207e-19)
(0.713275 0.352675 6.0812e-19)
(0.620183 0.301848 4.12884e-21)
(0.47096 0.224388 1.41933e-19)
(0.297079 0.141526 -6.7695e-19)
(0.140183 0.0667858 6.97833e-19)
(0.0289908 0.0135988 -8.22538e-19)
(0.44072 0.243808 3.88101e-23)
(1.01143 0.534686 0)
(1.2506 0.680312 0)
(1.3017 0.710284 -5.41866e-21)
(1.27635 0.716296 -5.77175e-20)
(1.21861 0.697673 7.3883e-20)
(1.14701 0.672054 -1.8504e-19)
(1.0751 0.643887 0)
(0.999506 0.61032 -3.82543e-19)
(0.922015 0.570038 4.57063e-19)
(0.852565 0.52583 4.83266e-19)
(0.803513 0.485164 -2.52939e-19)
(0.769188 0.449589 -3.05741e-19)
(0.743057 0.417445 7.16747e-19)
(0.690972 0.38101 -2.15997e-19)
(0.598 0.317775 -2.57947e-19)
(0.455053 0.241178 -1.54393e-19)
(0.290077 0.152347 -7.29942e-19)
(0.136297 0.0717392 1.06629e-19)
(0.0285233 0.014525 8.87469e-19)
(0.436485 0.262008 -3.3514e-20)
(1.00066 0.571022 -4.30438e-20)
(1.23804 0.726098 2.3628e-20)
(1.28843 0.75798 -1.69841e-22)
(1.2622 0.763613 -5.6783e-20)
(1.20382 0.742911 1.21089e-19)
(1.13153 0.715157 0)
(1.05865 0.684605 1.11946e-19)
(0.982026 0.648902 -8.82698e-20)
(0.903676 0.606429 7.61357e-19)
(0.832906 0.558495 -1.10291e-19)
(0.7809 0.513857 1.25269e-19)
(0.746027 0.476906 0)
(0.707708 0.439765 -3.88009e-19)
(0.662704 0.394608 4.69749e-19)
(0.576872 0.33946 0)
(0.441767 0.254552 -3.3277e-19)
(0.279861 0.161736 9.7842e-19)
(0.130565 0.0743238 1.15443e-19)
(0.0265448 0.015041 -1.09128e-18)
(0.433996 0.278954 -8.65194e-20)
(0.99082 0.605701 1.1107e-19)
(1.22541 0.769628 0)
(1.27485 0.803456 7.68301e-21)
(1.24768 0.808245 0)
(1.1887 0.785369 -1.54998e-19)
(1.11596 0.755735 0)
(1.0425 0.723405 0)
(0.964412 0.685707 -1.1622e-19)
(0.882788 0.640743 -7.23602e-19)
(0.808755 0.589769 -8.92575e-19)
(0.754779 0.542701 1.46344e-19)
(0.716174 0.500287 5.27663e-19)
(0.690334 0.461142 4.26964e-19)
(0.640413 0.4194 -1.50684e-18)
(0.554748 0.349319 -6.0478e-19)
(0.422602 0.265863 3.54126e-19)
(0.267523 0.16677 0)
(0.122995 0.0753335 9.91639e-19)
(0.0240067 0.0146733 -1.17525e-18)
(0.432369 0.294711 1.04989e-19)
(0.981425 0.638442 -1.30366e-19)
(1.21262 0.810033 0)
(1.26095 0.845599 -1.09956e-20)
(1.23307 0.850117 2.72945e-21)
(1.17365 0.82561 0)
(1.10055 0.794314 5.66295e-20)
(1.02633 0.760098 7.71297e-20)
(0.947144 0.720907 -2.18898e-19)
(0.864675 0.674506 9.59677e-20)
(0.789141 0.621457 0)
(0.731894 0.569881 6.05867e-19)
(0.693458 0.524344 4.91946e-21)
(0.654037 0.479404 2.30249e-19)
(0.611556 0.42657 2.73524e-19)
(0.532325 0.366147 0)
(0.40701 0.273 -5.78655e-19)
(0.254053 0.170116 1.13532e-18)
(0.115032 0.0749199 -1.20052e-18)
(0.0212773 0.013924 2.52994e-18)
(0.431115 0.309714 0)
(0.972543 0.669578 0)
(1.20015 0.848297 -6.30208e-20)
(1.24723 0.885705 0)
(1.21855 0.889518 0)
(1.15871 0.863252 -1.29222e-19)
(1.08536 0.83046 5.79378e-20)
(1.01068 0.79492 1.75791e-20)
(0.930188 0.754241 -5.01351e-20)
(0.844716 0.705948 0)
(0.765217 0.650171 -1.35656e-19)
(0.705498 0.595012 -4.94181e-19)
(0.662916 0.544301 -5.94922e-19)
(0.635593 0.496102 -2.39113e-19)
(0.588769 0.446943 2.96227e-19)
(0.509713 0.368565 -6.98325e-19)
(0.386054 0.277892 1.24494e-18)
(0.240379 0.169788 2.35227e-21)
(0.107001 0.073432 -1.15066e-18)
(0.0189411 0.0129774 -1.70557e-19)
(0.430007 0.324264 0)
(0.964233 0.699328 -1.074e-19)
(1.18789 0.883871 7.79333e-20)
(1.23358 0.922733 0)
(1.20433 0.92636 0)
(1.14417 0.898835 2.59465e-19)
(1.07059 0.864782 0)
(0.995252 0.82779 0)
(0.913702 0.786122 -4.79363e-19)
(0.827116 0.737112 1.32162e-19)
(0.745395 0.680126 -1.20243e-18)
(0.682393 0.621315 0)
(0.639257 0.566853 -6.45111e-19)
(0.597626 0.511712 1.06297e-20)
(0.557706 0.446664 -9.51442e-19)
(0.485953 0.378924 3.7576e-19)
(0.371077 0.276727 1.58063e-21)
(0.228299 0.167142 -1.31067e-18)
(0.100515 0.0704963 6.20647e-19)
(0.0162417 0.0114565 1.82458e-19)
(0.428955 0.338454 0)
(0.956273 0.727448 -1.5105e-19)
(1.17605 0.917508 8.24512e-20)
(1.22036 0.957957 1.02913e-19)
(1.19041 0.960952 -1.38346e-20)
(1.12993 0.93203 2.60058e-20)
(1.05625 0.896832 -3.51584e-20)
(0.980632 0.858931 4.61617e-19)
(0.89803 0.816238 5.12782e-19)
(0.808873 0.765897 1.00704e-18)
(0.723688 0.706767 9.99092e-19)
(0.656803 0.645063 1.75469e-19)
(0.606994 0.585222 9.28162e-19)
(0.576793 0.524411 5.72976e-19)
(0.532528 0.462618 6.83025e-19)
(0.462513 0.370943 -4.11229e-19)
(0.350331 0.271179 -4.78324e-19)
(0.219491 0.15773 5.61037e-19)
(0.0994708 0.0719671 -3.32973e-19)
(0.0196465 0.0173591 5.90363e-19)
(0.428005 0.352208 2.14235e-19)
(0.948979 0.75443 2.36345e-19)
(1.16454 0.948869 4.8343e-20)
(1.20737 0.990384 1.62012e-20)
(1.17696 0.99322 1.11224e-20)
(1.11631 0.963343 -7.20446e-20)
(1.04256 0.927251 3.39138e-20)
(0.966472 0.888292 -2.0308e-20)
(0.882937 0.845017 -5.96033e-19)
(0.792463 0.79456 -1.09271e-18)
(0.703937 0.734859 6.93751e-20)
(0.63276 0.670663 0)
(0.582758 0.607659 0)
(0.535263 0.53988 -2.98671e-19)
(0.496074 0.454735 -1.11702e-18)
(0.435059 0.37123 8.85789e-19)
(0.341624 0.250934 5.23193e-19)
(0.226689 0.139266 0)
(0.112976 0.0460622 1.06227e-18)
(0.0132498 -0.00809053 -6.30534e-19)
(0.427101 0.365403 -1.13576e-19)
(0.941815 0.77958 1.00562e-19)
(1.15343 0.978439 -1.16991e-19)
(1.19495 1.02125 -9.30489e-20)
(1.16395 1.02346 -1.20602e-20)
(1.1031 0.992471 -2.30166e-20)
(1.02942 0.955558 0)
(0.953213 0.916051 -5.79696e-19)
(0.868742 0.872094 7.31761e-20)
(0.776046 0.820734 0)
(0.685083 0.760152 0)
(0.609145 0.694909 1.11748e-19)
(0.548211 0.626369 1.50094e-19)
(0.510476 0.55043 -3.22356e-19)
(0.464373 0.469399 8.01874e-19)
(0.401958 0.348235 -9.65174e-19)
(0.313715 0.228256 -1.11916e-18)
(0.23408 0.1199 9.909e-19)
(0.169168 0.087767 -3.78161e-19)
(0.11312 0.0797816 2.20094e-19)
(0.426197 0.377809 1.43459e-19)
(0.935272 0.803759 0)
(1.1427 1.00604 0)
(1.18282 1.04957 -2.53057e-20)
(1.15151 1.05163 2.04868e-20)
(1.09064 1.0199 -2.07475e-20)
(1.01702 0.982392 1.49922e-19)
(0.940438 0.94215 5.93502e-19)
(0.855188 0.897894 1.08081e-18)
(0.761434 0.84694 -8.20826e-20)
(0.666691 0.786602 1.69529e-19)
(0.585636 0.719458 -9.99078e-19)
(0.525308 0.650118 -9.94782e-19)
(0.464312 0.57019 -1.72902e-19)
(0.414013 0.457386 0)
(0.360047 0.347549 -7.11177e-21)
(0.288762 0.160355 6.16104e-19)
(0.261711 0.0187154 -1.03729e-18)
(0.224441 -0.0895152 7.88626e-19)
(0.0847317 -0.096827 6.53889e-19)
(0.425187 0.389787 -3.173e-19)
(0.928586 0.826008 -1.43404e-19)
(1.13228 1.03207 6.99406e-21)
(1.17121 1.07676 5.52264e-20)
(1.13939 1.07827 0)
(1.07838 1.04572 -7.52143e-20)
(1.00488 1.00771 -2.15339e-19)
(0.928265 0.96733 -1.68387e-21)
(0.842301 0.922879 -5.66304e-19)
(0.746437 0.871379 -8.05194e-20)
(0.64961 0.811105 7.47882e-20)
(0.563967 0.746239 8.77602e-19)
(0.487688 0.672858 9.70863e-19)
(0.43439 0.582094 1.68262e-19)
(0.37499 0.4824 8.60251e-19)
(0.290794 0.315645 0)
(0.171735 0.146224 0)
(0.00306514 0.204161 7.14384e-19)
(-0.0777373 0.629917 -2.97011e-20)
(0.00703795 1.53664 -8.79339e-19)
(0.424184 0.40107 1.75486e-19)
(0.922597 0.847783 4.01052e-19)
(1.12219 1.05668 -5.48148e-19)
(1.15978 1.102 2.72741e-19)
(1.12767 1.10359 -6.41928e-21)
(1.06665 1.07068 -2.85758e-20)
(0.99321 1.03253 0)
(0.916261 0.991966 -4.94649e-19)
(0.829635 0.94786 0)
(0.732789 0.897549 1.1345e-18)
(0.631656 0.838586 -9.08664e-20)
(0.540161 0.772556 1.01887e-19)
(0.466744 0.701878 1.1103e-18)
(0.380944 0.618171 -3.64742e-19)
(0.283525 0.477585 -4.37902e-19)
(0.19659 0.371323 0)
(0.087337 0.502121 0)
(0.026126 1.33108 0)
(0.0725328 2.46269 -4.05811e-19)
(0.0999535 2.91051 -2.49751e-19)
(0.422852 0.411783 0)
(0.916306 0.867444 0)
(1.1124 1.0798 2.00219e-19)
(1.14892 1.12637 -2.21253e-19)
(1.11628 1.12763 9.61523e-20)
(1.0551 1.09428 3.52121e-20)
(0.981796 1.05608 2.76912e-20)
(0.904904 1.01596 -2.15597e-20)
(0.817715 0.972373 7.97292e-20)
(0.718697 0.922258 -1.30199e-18)
(0.615754 0.864251 1.64764e-19)
(0.520545 0.804112 8.75745e-19)
(0.425744 0.734451 -1.10623e-18)
(0.348322 0.633419 -1.21351e-18)
(0.267016 0.538577 4.08572e-19)
(0.190273 0.673449 0)
(0.122031 1.55839 5.65778e-19)
(0.123383 2.69338 6.20625e-19)
(0.131452 3.08799 -6.93868e-19)
(0.123107 3.22223 7.45142e-19)
(0.421561 0.422184 0)
(0.9108 0.886876 3.56361e-19)
(1.103 1.10168 -5.01678e-20)
(1.13826 1.14885 3.12557e-19)
(1.10537 1.15044 -1.00928e-19)
(1.04424 1.11706 0)
(0.971032 1.0791 0)
(0.893862 1.03922 0)
(0.806091 0.996514 4.49498e-19)
(0.70649 0.948403 6.01233e-20)
(0.599663 0.8931 0)
(0.497692 0.831984 -8.71026e-19)
(0.413276 0.766761 0)
(0.29793 0.682966 8.68551e-19)
(0.204961 0.747921 -5.85175e-19)
(0.154405 1.46234 -4.70835e-19)
(0.156733 2.68122 -1.10148e-18)
(0.178587 3.12678 -5.80826e-19)
(0.169409 3.2673 -7.89015e-19)
(0.155515 3.30755 5.95294e-19)
(0.42004 0.431634 -1.24728e-19)
(0.904869 0.904027 1.54315e-20)
(1.09386 1.12213 -5.59634e-20)
(1.12824 1.17064 -2.41219e-19)
(1.09484 1.17209 0)
(1.03356 1.13858 0)
(0.96049 1.10091 0)
(0.883444 1.06188 3.44812e-20)
(0.795307 1.02022 -5.68159e-19)
(0.693759 0.973062 0)
(0.585706 0.919591 0)
(0.483938 0.866594 0)
(0.370609 0.802815 0)
(0.305717 0.77493 6.34351e-19)
(0.270863 1.16388 1.55974e-18)
(0.248314 2.38504 4.61851e-19)
(0.262038 3.08315 9.31013e-19)
(0.25662 3.28295 -7.13618e-19)
(0.207831 3.34865 2.63782e-19)
(0.175361 3.36137 0)
(0.4186 0.440826 1.28535e-19)
(0.899637 0.921785 -7.92845e-19)
(1.08491 1.14213 -2.12654e-19)
(1.11816 1.1912 -4.66132e-20)
(1.08456 1.19321 2.34582e-20)
(1.02341 1.15992 -7.78194e-20)
(0.950478 1.12274 -3.28102e-21)
(0.873209 1.08421 -3.85571e-19)
(0.784618 1.04381 0)
(0.683102 0.999309 -7.60598e-20)
(0.572324 0.949601 6.9191e-20)
(0.46328 0.895282 0)
(0.374875 0.845293 0)
(0.319924 0.962571 -7.93876e-19)
(0.273148 1.85526 9.78925e-20)
(0.269368 2.94352 -3.4662e-19)
(0.291957 3.2871 7.23971e-19)
(0.26431 3.38554 5.2483e-19)
(0.198767 3.40998 -7.1306e-19)
(0.174014 3.41954 3.53609e-19)
(0.416588 0.450227 2.53206e-19)
(0.893187 0.938391 7.73817e-19)
(1.07539 1.16233 2.55178e-19)
(1.10794 1.21286 0)
(1.07388 1.21471 0)
(1.01266 1.18131 6.08074e-20)
(0.939963 1.14449 7.0836e-20)
(0.863036 1.10698 3.43856e-19)
(0.77453 1.06787 2.23047e-20)
(0.671548 1.02482 9.73655e-19)
(0.560339 0.97729 -1.14873e-18)
(0.449837 0.929131 0)
(0.371646 0.924013 0)
(0.334255 1.33015 -5.40875e-19)
(0.334764 2.48887 -6.50277e-19)
(0.378076 3.19789 0)
(0.402553 3.36907 -7.31433e-19)
(0.332594 3.43179 4.94765e-20)
(0.263217 3.47656 3.42719e-19)
(0.240723 3.50186 -1.12837e-19)
(0.41446 0.459994 -4.82234e-19)
(0.887044 0.957759 -3.7181e-19)
(1.06515 1.18392 0)
(1.09659 1.23473 0)
(1.06251 1.23718 0)
(1.00162 1.20388 0)
(0.929307 1.16744 -8.32343e-20)
(0.852415 1.1303 3.02603e-19)
(0.763748 1.09242 0)
(0.66162 1.05215 -8.86595e-19)
(0.549688 1.0088 2.06037e-18)
(0.44004 0.969191 8.40316e-20)
(0.389264 1.04445 1.11716e-19)
(0.386651 1.74945 8.81642e-19)
(0.400688 2.90108 -4.73981e-19)
(0.438634 3.31982 0)
(0.421823 3.44289 2.04699e-19)
(0.336333 3.53119 9.18125e-20)
(0.260825 3.59497 1.50207e-19)
(0.185497 3.57441 -1.31226e-20)
(0.411471 0.470238 2.2967e-19)
(0.878868 0.975726 -3.80795e-19)
(1.05382 1.20607 0)
(1.08476 1.2584 -6.81614e-20)
(1.05029 1.26035 2.3338e-19)
(0.989479 1.2267 0)
(0.917661 1.19043 0)
(0.841521 1.15424 -5.25438e-19)
(0.753583 1.11757 -5.69209e-20)
(0.650839 1.07887 8.69534e-19)
(0.536204 1.03743 -9.79115e-19)
(0.446916 1.0174 5.70943e-19)
(0.407601 1.23138 0)
(0.42287 2.18714 -4.67492e-19)
(0.465381 3.14562 3.06643e-19)
(0.528904 3.42317 1.91838e-19)
(0.520991 3.5194 0)
(0.458173 3.60084 -3.82453e-20)
(0.38815 3.64178 -4.13687e-19)