/*--------------------------------*- C++ -*----------------------------------*\
| =========                 |                                                 |
| \\      /  F ield         | OpenFOAM: The Open Source CFD Toolbox           |
|  \\    /   O peration     | Version:  4.0                                   |
|   \\  /    A nd           | Web:      www.OpenFOAM.org                      |
|    \\/     M anipulation  |                                                 |
\*---------------------------------------------------------------------------*/
FoamFile
{
    version     2.0;
    format      ascii;
    class       volScalarField;
    location    "54";
    object      p;
}
// * * * * * * * * * * * * * * * * * * * * * * * * * * * * * * * * * * * * * //

dimensions      [0 2 -2 0 0 0 0];

internalField   nonuniform List<scalar> 
2200
(
0.77503
0.753531
0.737623
0.721956
0.707349
0.694828
0.684474
0.676371
0.670665
0.667723
0.668187
0.671986
0.678336
0.686898
0.69758
0.710347
0.725131
0.741048
0.757086
0.778586
0.707455
0.704196
0.701274
0.697156
0.691689
0.685215
0.678599
0.672645
0.668141
0.665748
0.666241
0.669535
0.674712
0.681168
0.688144
0.694895
0.700558
0.70466
0.707515
0.710873
0.667545
0.667766
0.669816
0.671155
0.671546
0.670693
0.668706
0.666029
0.66349
0.662003
0.662568
0.665024
0.668295
0.671507
0.673845
0.67484
0.674568
0.673564
0.671913
0.671665
0.645025
0.646472
0.649078
0.651547
0.653992
0.656012
0.657169
0.657399
0.657024
0.65673
0.657363
0.658741
0.659939
0.660329
0.659647
0.657975
0.655811
0.653605
0.650991
0.649585
0.630706
0.63268
0.6355
0.63833
0.641182
0.644012
0.646473
0.648337
0.649567
0.650364
0.65109
0.651567
0.651324
0.650212
0.648344
0.64597
0.643422
0.640698
0.6379
0.635975
0.623368
0.624967
0.627165
0.62969
0.632353
0.635019
0.637607
0.640024
0.642036
0.643547
0.644407
0.644426
0.643601
0.642086
0.640192
0.63805
0.635718
0.633375
0.631279
0.629704
0.619938
0.62096
0.622227
0.624089
0.626235
0.628405
0.630598
0.632884
0.635103
0.636948
0.637972
0.637975
0.637197
0.635989
0.634593
0.633036
0.631349
0.629777
0.628659
0.627642
0.617298
0.617968
0.6186
0.619902
0.621515
0.623197
0.624949
0.626877
0.628943
0.630899
0.632149
0.632462
0.632127
0.631506
0.630721
0.629762
0.628698
0.627767
0.627318
0.626642
0.614058
0.614505
0.6149
0.615893
0.617154
0.618538
0.620033
0.621692
0.623539
0.6255
0.627003
0.627782
0.628042
0.627983
0.627698
0.627224
0.626637
0.626095
0.625904
0.625441
0.610005
0.610301
0.610659
0.611528
0.612639
0.613908
0.615341
0.616947
0.618744
0.620745
0.622606
0.623918
0.624683
0.625055
0.625127
0.624979
0.624673
0.624341
0.624209
0.623885
0.605318
0.60552
0.605891
0.60672
0.607809
0.609112
0.610631
0.612366
0.614331
0.616573
0.618832
0.620635
0.621826
0.622513
0.622826
0.622897
0.622759
0.622567
0.622457
0.622222
0.600151
0.600297
0.600668
0.601477
0.602626
0.604065
0.605779
0.607767
0.610059
0.61272
0.615493
0.617764
0.619312
0.620269
0.620799
0.621026
0.621088
0.621041
0.620962
0.620775
0.594567
0.594677
0.595056
0.595873
0.597087
0.598676
0.600633
0.602962
0.605703
0.608912
0.612301
0.615127
0.617086
0.618362
0.619144
0.619596
0.619851
0.619927
0.61989
0.619725
0.588576
0.588645
0.589023
0.589868
0.591203
0.592975
0.595196
0.597918
0.601245
0.605201
0.609333
0.612768
0.615196
0.616846
0.617986
0.618733
0.619191
0.619404
0.619406
0.619254
0.582085
0.582123
0.582543
0.583451
0.584926
0.586911
0.589446
0.592625
0.596591
0.601381
0.606434
0.610594
0.613646
0.615853
0.617415
0.618498
0.619207
0.619569
0.619616
0.619465
0.575007
0.574981
0.575402
0.576395
0.578083
0.580332
0.583205
0.586882
0.591564
0.597313
0.60344
0.608654
0.61252
0.615367
0.617475
0.618962
0.619945
0.620459
0.620559
0.620408
0.567006
0.566982
0.567436
0.568553
0.570469
0.573019
0.576345
0.580656
0.586188
0.593089
0.60055
0.606992
0.611896
0.615548
0.618269
0.620225
0.621531
0.62221
0.622365
0.622204
0.558014
0.558038
0.558463
0.559687
0.561909
0.564897
0.568846
0.573981
0.580604
0.588939
0.598016
0.605855
0.611898
0.61649
0.61992
0.622383
0.62404
0.624896
0.625103
0.62493
0.547569
0.547547
0.548089
0.549535
0.55215
0.555746
0.560533
0.566759
0.574767
0.584821
0.595802
0.605362
0.612714
0.618295
0.622466
0.625549
0.627597
0.62863
0.628889
0.628697
0.535202
0.535135
0.53581
0.537631
0.540771
0.545138
0.551013
0.558654
0.568466
0.580724
0.594016
0.605526
0.614346
0.621049
0.626111
0.629819
0.632287
0.633505
0.633807
0.63359
0.520564
0.520457
0.521228
0.523434
0.527325
0.532762
0.540073
0.549619
0.561828
0.576835
0.592765
0.606371
0.616825
0.624802
0.630838
0.635284
0.638213
0.639597
0.639934
0.639688
0.502676
0.502591
0.503587
0.50634
0.51123
0.518145
0.527456
0.539513
0.554711
0.572985
0.592014
0.60803
0.620255
0.629634
0.636754
0.642009
0.64541
0.646969
0.647323
0.647044
0.480562
0.480413
0.481722
0.485323
0.491731
0.500796
0.512824
0.52814
0.546953
0.569049
0.591599
0.610436
0.624747
0.635649
0.643942
0.650051
0.653906
0.655607
0.65596
0.655643
0.45204
0.452044
0.454115
0.459154
0.467831
0.479985
0.495757
0.5152
0.538323
0.564836
0.591484
0.613503
0.630111
0.642745
0.65236
0.659338
0.663624
0.665452
0.66577
0.665414
0.414366
0.414603
0.418102
0.425955
0.438555
0.45555
0.476547
0.501387
0.529882
0.561563
0.592567
0.617758
0.636675
0.651079
0.662024
0.669924
0.674562
0.676397
0.676638
0.676246
0.364097
0.364467
0.3714
0.384562
0.403609
0.427779
0.455813
0.487354
0.522117
0.559507
0.595044
0.623472
0.644667
0.660778
0.673034
0.681616
0.686296
0.687868
0.687944
0.687596
0.297795
0.300609
0.31562
0.336909
0.364848
0.397965
0.434174
0.473195
0.514896
0.558677
0.599505
0.631631
0.655664
0.673997
0.687723
0.697243
0.70201
0.703262
0.703217
0.703045
0.222413
0.23179
0.256806
0.287927
0.325968
0.368125
0.412517
0.459257
0.508269
0.558869
0.605385
0.642255
0.669907
0.690796
0.706683
0.717236
0.722012
0.722841
0.722769
0.722728
0.154942
0.169599
0.200886
0.24082
0.288367
0.339292
0.39167
0.446002
0.502042
0.559164
0.611466
0.652912
0.68371
0.707208
0.724612
0.736105
0.741047
0.741749
0.741972
0.741933
0.103431
0.116572
0.153173
0.199204
0.254056
0.312446
0.372157
0.433728
0.496785
0.560617
0.618846
0.663908
0.697531
0.722989
0.741792
0.754172
0.759434
0.760664
0.760802
0.760845
0.0609304
0.0733263
0.113633
0.163601
0.223931
0.28833
0.354534
0.422713
0.492313
0.562215
0.625139
0.674049
0.710481
0.737819
0.758175
0.771149
0.777101
0.778653
0.778743
0.778828
0.0245359
0.0371991
0.0801706
0.133022
0.197734
0.267003
0.338697
0.412523
0.487665
0.562974
0.630852
0.683627
0.722196
0.751253
0.773007
0.786699
0.792996
0.794765
0.794905
0.794986
-0.00721374
0.00565937
0.0507993
0.106244
0.174585
0.247849
0.324131
0.402764
0.48291
0.563642
0.636427
0.69202
0.732868
0.763468
0.785971
0.800307
0.807051
0.808988
0.809208
0.809282
-0.0355242
-0.0226073
0.0242384
0.0821466
0.153582
0.230237
0.310481
0.393424
0.478291
0.563844
0.640415
0.699197
0.742144
0.773792
0.797058
0.812074
0.819033
0.821177
0.821454
0.8215
-0.061355
-0.0484135
-0.000350983
0.0599352
0.13413
0.213781
0.297526
0.384318
0.473373
0.563195
0.643957
0.705824
0.750165
0.783058
0.80663
0.821995
0.829317
0.831633
0.831967
0.831985
-0.0854865
-0.0722183
-0.0233596
0.0391089
0.115749
0.19811
0.284982
0.375144
0.46792
0.561884
0.646772
0.71108
0.757251
0.791063
0.81519
0.830775
0.838211
0.840663
0.840986
0.840969
-0.108165
-0.0946943
-0.0449961
0.0193619
0.0981135
0.182908
0.272531
0.365664
0.461875
0.559804
0.648531
0.715747
0.763788
0.798496
0.823035
0.838408
0.845986
0.848381
0.848651
0.848549
-0.129537
-0.116021
-0.0655409
0.000433138
0.0809654
0.16789
0.259962
0.355825
0.455241
0.556812
0.649289
0.719876
0.769893
0.805461
0.830216
0.845401
0.85265
0.855042
0.855335
0.85522
-0.15
-0.13633
-0.0852074
-0.0178943
0.0641544
0.152968
0.247241
0.345595
0.447883
0.55281
0.649253
0.72336
0.775538
0.812421
0.837072
0.851769
0.858838
0.860997
0.861295
0.861193
-0.169966
-0.155784
-0.10421
-0.0357458
0.0476238
0.138105
0.234341
0.334923
0.439793
0.548031
0.648552
0.726259
0.781307
0.819441
0.844087
0.858216
0.864634
0.866502
0.86672
0.866623
-0.189622
-0.174673
-0.122677
-0.0531832
0.0313442
0.123306
0.22128
0.323851
0.431124
0.542514
0.646867
0.72846
0.786823
0.826946
0.85185
0.864949
0.870468
0.871575
0.871686
0.871622
-0.208825
-0.193134
-0.140693
-0.070223
0.0153298
0.108578
0.208065
0.312424
0.421907
0.536107
0.644117
0.730008
0.792129
0.834941
0.860696
0.872835
0.87645
0.876323
0.876194
0.876067
-0.227507
-0.211213
-0.158252
-0.0868566
-0.000407875
0.0939442
0.19474
0.300698
0.412193
0.528903
0.640322
0.730539
0.796947
0.843483
0.871249
0.882372
0.883534
0.880941
0.880569
0.881423
-0.245561
-0.228818
-0.175324
-0.103068
-0.0158293
0.0794609
0.181371
0.288739
0.402023
0.520916
0.63532
0.729817
0.801141
0.85226
0.883544
0.895155
0.893391
0.886804
0.881786
0.880476
-0.26301
-0.245889
-0.191846
-0.118813
-0.0308871
0.0651949
0.168043
0.276606
0.391409
0.512172
0.629112
0.727595
0.804005
0.860995
0.897478
0.912045
0.910994
0.899482
0.898695
0.90287
-0.279815
-0.262334
-0.207773
-0.13405
-0.0455199
0.0512262
0.154835
0.264363
0.38041
0.502772
0.62186
0.723773
0.805276
0.868584
0.912126
0.932937
0.934732
0.90584
0.866079
0.830933
-0.295952
-0.27819
-0.22313
-0.148832
-0.059816
0.0374356
0.141599
0.25183
0.36882
0.492486
0.613295
0.717825
0.80375
0.874027
0.926613
0.956886
0.973667
0.953502
0.970532
1.02982
-0.31135
-0.293469
-0.238015
-0.163303
-0.0739556
0.0236001
0.128062
0.238684
0.356242
0.480781
0.602787
0.70908
0.798443
0.874368
0.932681
0.967456
0.976877
0.954082
0.912307
0.927577
-0.326005
-0.308174
-0.252376
-0.177403
-0.0878637
0.0098094
0.114347
0.225082
0.342824
0.467712
0.590271
0.697272
0.787335
0.865078
0.924219
0.958648
0.945075
0.890416
0.826082
0.813674
-0.339883
-0.322262
-0.266215
-0.191144
-0.101547
-0.00393185
0.10048
0.211058
0.328601
0.453297
0.575697
0.682102
0.770321
0.843559
0.897213
0.904698
0.869011
0.791504
0.716679
0.693918
-0.353036
-0.335754
-0.279538
-0.204536
-0.115024
-0.0176365
0.086463
0.19663
0.313596
0.437533
0.558927
0.663302
0.745949
0.807709
0.836644
0.823358
0.764609
0.662651
0.575076
0.552647
-0.365909
-0.349021
-0.292741
-0.217956
-0.128648
-0.0316112
0.0720312
0.181567
0.297618
0.420264
0.539742
0.640338
0.715664
0.761553
0.756499
0.721426
0.609965
0.487261
0.379664
0.352306
-0.379396
-0.362903
-0.306515
-0.232006
-0.142982
-0.0463389
0.056767
0.165523
0.280405
0.401269
0.517868
0.612805
0.680953
0.702618
0.66915
0.581098
0.424959
0.272164
0.142709
0.114943
-0.39401
-0.377737
-0.321186
-0.246942
-0.15821
-0.0619498
0.0405807
0.148455
0.261963
0.38055
0.493232
0.58161
0.639331
0.632831
0.580498
0.430716
0.231096
0.0186647
-0.161349
-0.209905
-0.409887
-0.393707
-0.336809
-0.262762
-0.174305
-0.0784211
0.0234933
0.130393
0.242343
0.358207
0.465855
0.548299
0.591295
0.553077
0.466003
0.278417
0.0476446
-0.240596
-0.561389
-0.709422
-0.427079
-0.410809
-0.353517
-0.279594
-0.19134
-0.0958184
0.00544334
0.111283
0.221505
0.33426
0.436079
0.512188
0.537495
0.468863
0.332751
0.1278
-0.105642
-0.448722
-1.03459
-1.60607
-0.445698
-0.429257
-0.371369
-0.297461
-0.209325
-0.114136
-0.0135391
0.0911912
0.199595
0.309139
0.405073
0.473329
0.479934
0.394777
0.204047
-0.0287955
-0.230892
-0.464721
-1.01883
-2.53131
-0.465731
-0.448978
-0.39049
-0.316546
-0.228447
-0.133579
-0.0336903
0.0698449
0.176289
0.282447
0.37243
0.431241
0.41746
0.336843
0.111265
-0.126266
-0.273414
-0.310041
-0.299125
-0.686275
-0.487145
-0.470315
-0.411023
-0.337082
-0.249078
-0.154641
-0.0556402
0.0464642
0.150643
0.25286
0.33732
0.385841
0.356292
0.287688
0.0615467
-0.139991
-0.250153
-0.257645
-0.204251
-0.24436
-0.509744
-0.492877
-0.433006
-0.359215
-0.271344
-0.177463
-0.0795448
0.0208913
0.122461
0.22018
0.299807
0.338541
0.302488
0.234638
0.0299369
-0.130128
-0.211762
-0.219478
-0.267464
-0.271527
-0.533693
-0.516798
-0.456305
-0.382837
-0.295183
-0.202055
-0.105452
-0.00694888
0.0916949
0.184782
0.25977
0.289045
0.255922
0.174343
0.00207849
-0.12009
-0.189942
-0.166925
-0.187358
-0.188939
-0.558485
-0.541447
-0.480883
-0.407981
-0.320526
-0.228361
-0.13328
-0.0369224
0.0584862
0.147056
0.217448
0.236096
0.215363
0.10701
-0.032509
-0.115088
-0.153735
-0.201269
-0.176095
-0.184552
-0.583996
-0.566594
-0.506493
-0.434313
-0.34705
-0.256199
-0.162851
-0.0688414
0.0229738
0.107318
0.17376
0.182246
0.173123
0.0467297
-0.0694481
-0.133571
-0.110714
-0.170412
-0.151224
-0.156052
-0.609214
-0.591641
-0.533039
-0.461645
-0.374544
-0.285357
-0.193877
-0.102344
-0.0145832
0.0659797
0.129661
0.1308
0.12185
-0.00474227
-0.0961391
-0.14775
-0.13624
-0.151138
-0.156606
-0.154759
-0.633865
-0.616414
-0.559731
-0.489039
-0.402482
-0.315439
-0.225952
-0.137058
-0.0536688
0.0233417
0.0856324
0.083152
0.0654732
-0.0475839
-0.110267
-0.14092
-0.179826
-0.151871
-0.157716
-0.152217
-0.656821
-0.640112
-0.585438
-0.515876
-0.430732
-0.345939
-0.258552
-0.17241
-0.0934374
-0.0203075
0.0413117
0.0392248
0.0103982
-0.084332
-0.12493
-0.114041
-0.1866
-0.132348
-0.147695
-0.140052
-0.677517
-0.66193
-0.609203
-0.540837
-0.458581
-0.37602
-0.29099
-0.207824
-0.132922
-0.0644796
-0.00357018
-0.00177427
-0.0364438
-0.102792
-0.135354
-0.0944638
-0.139385
-0.120874
-0.127334
-0.124484
-0.694253
-0.680326
-0.630195
-0.56384
-0.485298
-0.404768
-0.322445
-0.242453
-0.171154
-0.108291
-0.0487264
-0.0413723
-0.0708416
-0.106072
-0.128721
-0.107014
-0.119545
-0.120387
-0.12119
-0.121494
-0.70626
-0.694461
-0.647554
-0.583631
-0.50884
-0.431134
-0.351939
-0.275431
-0.207316
-0.150563
-0.092868
-0.0790184
-0.0992861
-0.103185
-0.120101
-0.133305
-0.12324
-0.129668
-0.124968
-0.125835
-0.71207
-0.702695
-0.660018
-0.599444
-0.528432
-0.454086
-0.378431
-0.305512
-0.240393
-0.189327
-0.133369
-0.116356
-0.135706
-0.109394
-0.101207
-0.131658
-0.113877
-0.138789
-0.134087
-0.137371
-0.711695
-0.704448
-0.666045
-0.609213
-0.542298
-0.47214
-0.400583
-0.331486
-0.269499
-0.22263
-0.168996
-0.152555
-0.17725
-0.138572
-0.0473283
-0.0854223
-0.0757976
-0.0960037
-0.102451
-0.111811
-0.704057
-0.696728
-0.66355
-0.612173
-0.5502
-0.484444
-0.417106
-0.351626
-0.292617
-0.248225
-0.198668
-0.188621
-0.212248
-0.231835
-0.190941
-0.245297
-0.254754
-0.248382
-0.243737
-0.240278
-0.684197
-0.675928
-0.650574
-0.606328
-0.550232
-0.489669
-0.42696
-0.364645
-0.307422
-0.26358
-0.217466
-0.208945
-0.274552
-0.434066
-0.717025
-0.854007
-0.892313
-0.862652
-0.790188
-0.731124
-0.643156
-0.635377
-0.625239
-0.592571
-0.543738
-0.488133
-0.429632
-0.369225
-0.311361
-0.264986
-0.220064
-0.194711
-0.301105
-0.5074
-0.762903
-0.861261
-0.848212
-0.773419
-0.711275
-0.678057
-0.600805
-0.597732
-0.596669
-0.571059
-0.530647
-0.481063
-0.425777
-0.365593
-0.303408
-0.249136
-0.196805
-0.126103
-0.0780797
-0.0179771
0.013587
0.102853
0.209045
0.281068
0.345568
0.39777
-0.577387
-0.578622
-0.569848
-0.552562
-0.518745
-0.471763
-0.416294
-0.354911
-0.285431
-0.212699
-0.139844
0.000410528
0.186521
0.494009
0.795138
1.04544
1.22306
1.32417
1.36767
1.38683
-0.546078
-0.54643
-0.542214
-0.536958
-0.508131
-0.463382
-0.406567
-0.341775
-0.264505
-0.172957
-0.0743792
0.0749062
0.318324
0.666842
1.00913
1.29244
1.49124
1.60817
1.6626
1.68245
-0.525582
-0.524107
-0.526236
-0.520474
-0.497406
-0.455065
-0.397401
-0.328446
-0.246371
-0.14471
-0.0335063
0.092283
0.338147
0.651198
0.961265
1.22774
1.43007
1.55371
1.60929
1.6255
-0.509574
-0.507943
-0.511502
-0.504371
-0.490758
-0.451159
-0.391693
-0.318848
-0.234036
-0.130489
-0.0201776
0.0722984
0.281712
0.549545
0.809213
1.03422
1.21451
1.32362
1.37201
1.38474
-0.489588
-0.488271
-0.487805
-0.481486
-0.482196
-0.44735
-0.388796
-0.314426
-0.22995
-0.131616
-0.0275547
0.0406678
0.203956
0.42846
0.638316
0.815119
0.957988
1.04541
1.08316
1.09255
-0.489401
-0.487575
-0.483241
-0.482815
-0.482989
-0.446742
-0.38739
-0.312577
-0.230163
-0.141754
-0.0439092
0.0117926
0.130558
0.3139
0.479836
0.613487
0.719651
0.786151
0.814936
0.822307
-0.505412
-0.504502
-0.503714
-0.514461
-0.50398
-0.456759
-0.388136
-0.310147
-0.229728
-0.152412
-0.0608933
-0.0108396
0.0707058
0.215935
0.344499
0.443159
0.519259
0.568163
0.588394
0.592772
-0.522615
-0.524687
-0.530326
-0.53775
-0.522278
-0.465232
-0.385068
-0.303309
-0.224824
-0.157949
-0.0742658
-0.0278537
0.0248659
0.137415
0.234332
0.305504
0.360402
0.396398
0.410355
0.415065
-0.493814
-0.497565
-0.506652
-0.514795
-0.496789
-0.437045
-0.362529
-0.285833
-0.212357
-0.155051
-0.0825933
-0.0395217
-0.00640059
0.0793694
0.150798
0.20169
0.242486
0.271153
0.281412
0.284051
-0.384075
-0.389684
-0.39854
-0.403992
-0.392632
-0.354722
-0.304135
-0.248466
-0.188822
-0.142152
-0.0846425
-0.0474969
-0.0249865
0.0412923
0.0925212
0.127997
0.157801
0.17609
0.184441
0.186908
-0.240393
-0.243615
-0.247645
-0.251858
-0.247992
-0.235195
-0.215397
-0.188613
-0.152127
-0.119331
-0.0798217
-0.0503882
-0.0340199
0.0171255
0.0523593
0.0767855
0.0956228
0.106133
0.110358
0.111175
-0.113484
-0.115045
-0.118005
-0.12325
-0.126932
-0.129775
-0.129811
-0.123819
-0.108605
-0.0915805
-0.0688442
-0.0482709
-0.0341449
0.000924349
0.0242787
0.0397848
0.0500796
0.054967
0.0558777
0.0551674
-0.0239814
-0.02489
-0.0269446
-0.0332286
-0.0440541
-0.0559307
-0.0652643
-0.0701692
-0.0688
-0.0646563
-0.0539248
-0.0418286
-0.0307976
-0.00914551
0.00467464
0.0129186
0.0172112
0.0178091
0.0166549
0.0153849
0.0267763
0.0260133
0.0241776
0.0178182
0.005368
-0.00983735
-0.0233213
-0.0334833
-0.0389006
-0.0423204
-0.0386258
-0.0327976
-0.0268202
-0.0154541
-0.00906198
-0.006122
-0.0053713
-0.00677032
-0.008882
-0.0103149
0.0501801
0.0496083
0.0479656
0.0422225
0.0308579
0.0159916
0.00171131
-0.0106049
-0.0190251
-0.025826
-0.0253398
-0.0240243
-0.022901
-0.0185656
-0.0172145
-0.0173789
-0.0187831
-0.021152
-0.0233015
-0.0246655
0.0572462
0.0568069
0.0554852
0.0508082
0.0414257
0.0286888
0.0155523
0.00307029
-0.00627622
-0.0144284
-0.0152816
-0.0163554
-0.0184747
-0.0181016
-0.0195674
-0.0216859
-0.0242719
-0.0270858
-0.0291259
-0.0303893
0.0557313
0.0554083
0.0543801
0.0508095
0.0436229
0.0335587
0.0224964
0.0111186
0.0020938
-0.00647724
-0.00835282
-0.0102551
-0.0138149
-0.0153543
-0.018142
-0.0212776
-0.0243223
-0.0270337
-0.0288346
-0.0299696
0.0503606
0.0501371
0.0493725
0.046748
0.0414713
0.0339342
0.0251548
0.015601
0.00778967
-0.00058304
-0.00328836
-0.00581903
-0.00925107
-0.0110804
-0.0143332
-0.0178222
-0.0209209
-0.0232791
-0.0246676
-0.0256511
0.0436346
0.0435033
0.0429745
0.0411491
0.037418
0.0319632
0.0253274
0.0177499
0.01147
0.00362535
0.000691282
-0.00192529
-0.0048054
-0.00663218
-0.00980388
-0.0129622
-0.0155725
-0.017461
-0.0184179
-0.0192586
0.0365967
0.0365151
0.0361344
0.0348534
0.0322508
0.0283896
0.0235444
0.0177357
0.0131754
0.00648652
0.00388276
0.00188951
-0.00063672
-0.00282906
-0.00567606
-0.00813895
-0.0100718
-0.0113127
-0.0118072
-0.0125456
0.0300285
0.0299833
0.0297433
0.0288735
0.0270332
0.0242033
0.0205874
0.0160581
0.0129894
0.00780135
0.00599588
0.00463087
0.00245732
0.000436225
-0.00203205
-0.00404185
-0.00542585
-0.00622867
-0.00648219
-0.00713339
0.0239271
0.0239114
0.0237577
0.0232045
0.0220011
0.020031
0.0174038
0.0138971
0.0118091
0.00790263
0.0067467
0.00578934
0.00400572
0.00250262
0.00060744
-0.000874656
-0.00186988
-0.00252985
-0.00265337
-0.00318948
0.0182358
0.018205
0.0180936
0.0177323
0.0169771
0.0157617
0.0140989
0.011587
0.0102545
0.00725553
0.00643434
0.00573023
0.00419426
0.00303737
0.00166003
0.001093
0.000598132
0.000199859
0.000115444
-0.000379341
0.0133269
0.0132853
0.0132083
0.0130157
0.0125857
0.0118398
0.0108516
0.00910202
0.00837647
0.00596473
0.00539065
0.00472503
0.00335955
0.00287231
0.0021911
0.00211414
0.00209543
0.00195886
0.00195817
0.00150055
0.0090498
0.00901831
0.00896858
0.00885161
0.0086323
0.00823238
0.00769279
0.00644249
0.00623239
0.00431787
0.00400629
0.00337565
0.00208134
0.00210837
0.00191754
0.00219391
0.00251716
0.00256289
0.00255919
0.00209237
0.00518869
0.00515239
0.00513849
0.00509664
0.00499138
0.00474385
0.00459667
0.00378429
0.00398521
0.00244586
0.00248417
0.00209532
0.00108189
0.00126558
0.00119822
0.00144842
0.00173399
0.00186172
0.00200609
0.00168493
0.00184543
0.00183413
0.00185229
0.0018743
0.00185526
0.00168949
0.00172792
0.00124265
0.00155981
0.00065451
0.00104301
0.00113379
0.00064994
0.000999948
0.000255674
-0.000324986
-0.000856101
-0.00123877
-0.000907418
-0.000902712
-1.07372
-0.234513
0.0355249
0.311571
0.492914
0.648609
0.774462
0.902788
1.04404
1.12677
-0.0940019
0.312448
0.328709
0.516817
0.640433
0.751365
0.8468
0.931865
0.959216
0.917247
0.282439
0.496055
0.530933
0.667229
0.752903
0.832517
0.898202
0.947512
0.949559
0.963674
0.511569
0.654299
0.689288
0.790876
0.847704
0.905238
0.949974
0.982278
0.991311
1.015
0.689264
0.790498
0.820245
0.88772
0.932144
0.97307
1.00515
1.02939
1.03915
1.07074
0.83238
0.9011
0.931404
0.974227
1.01027
1.04036
1.06462
1.08534
1.09945
1.12775
0.951442
1.00196
1.0275
1.05545
1.08308
1.10683
1.12677
1.14601
1.16089
1.1874
1.05516
1.09214
1.1132
1.13383
1.1546
1.17398
1.19138
1.20948
1.22436
1.24802
1.14911
1.1782
1.19453
1.20979
1.22589
1.24195
1.25749
1.2744
1.28802
1.31034
1.23735
1.25781
1.27265
1.28581
1.29938
1.31315
1.32665
1.34124
1.35279
1.37243
1.32278
1.33856
1.35238
1.3642
1.37611
1.38775
1.39888
1.41057
1.41824
1.43505
1.40801
1.42054
1.43426
1.44601
1.45665
1.46644
1.47527
1.48353
1.48709
1.49834
1.49675
1.50757
1.52104
1.53058
1.53815
1.54544
1.55263
1.55912
1.56021
1.56758
1.59517
1.59977
1.60796
1.61271
1.61611
1.62059
1.62659
1.63426
1.63815
1.64803
1.70847
1.69537
1.68808
1.68236
1.67963
1.68097
1.68732
1.69969
1.7145
1.74417
1.83046
1.77443
1.74341
1.72621
1.71799
1.71793
1.72675
1.74636
1.77818
1.84744
)
;

boundaryField
{
    wall-4
    {
        type            zeroGradient;
    }
    pressure-outlet-7
    {
        type            fixedValue;
        value           uniform 0;
    }
    velocity-inlet-6
    {
        type            zeroGradient;
    }
    velocity-inlet-5
    {
        type            zeroGradient;
    }
    frontAndBackPlanes
    {
        type            empty;
    }
}


// ************************************************************************* //
