/*--------------------------------*- C++ -*----------------------------------*\
| =========                 |                                                 |
| \\      /  F ield         | OpenFOAM: The Open Source CFD Toolbox           |
|  \\    /   O peration     | Version:  4.0                                   |
|   \\  /    A nd           | Web:      www.OpenFOAM.org                      |
|    \\/     M anipulation  |                                                 |
\*---------------------------------------------------------------------------*/
FoamFile
{
    version     2.0;
    format      ascii;
    class       surfaceScalarField;
    location    "54";
    object      phi;
}
// * * * * * * * * * * * * * * * * * * * * * * * * * * * * * * * * * * * * * //

dimensions      [0 3 -1 0 0 0 0];

internalField   nonuniform List<scalar> 
4262
(
0.107141
0.470848
0.0955754
0.705151
0.0694013
0.858477
0.0474232
1.02074
0.031064
1.21488
0.01984
1.44944
0.0124201
1.73328
0.00721268
2.07624
0.00329262
2.48916
-0.000408824
2.98599
-0.00407428
2.98596
-0.00788583
2.48906
-0.0129139
2.07606
-0.0200999
1.73305
-0.031107
1.44923
-0.0472001
1.21461
-0.068954
1.02052
-0.0952145
0.858564
-0.107073
0.705444
0.470915
0.112878
0.35797
0.135302
0.682727
0.1204
0.873379
0.0978065
1.04334
0.0745444
1.23814
0.0528468
1.47114
0.0344596
1.75167
0.0202458
2.09046
0.00892696
2.50048
-0.00122097
2.99614
-0.0113334
2.99607
-0.0225337
2.50026
-0.0366059
2.09014
-0.0548636
1.75131
-0.0765859
1.47095
-0.100248
1.23827
-0.123387
1.04366
-0.136958
0.872135
-0.113542
0.682028
0.357373
0.0920454
0.265924
0.124975
0.649797
0.121117
0.877237
0.104907
1.05955
0.086261
1.25678
0.0671315
1.49027
0.0481881
1.77061
0.0301278
2.10852
0.0135887
2.51702
-0.00228662
3.01202
-0.0179038
3.01169
-0.0339699
2.51632
-0.0515144
2.10768
-0.0699945
1.76979
-0.0883819
1.48934
-0.10567
1.25556
-0.119851
1.05784
-0.125207
0.877491
-0.0923258
0.649147
0.265047
0.0640527
0.201872
0.104946
0.608904
0.106731
0.875452
0.0953327
1.07094
0.0814098
1.27071
0.0666596
1.50502
0.0505395
1.78673
0.0334061
2.12565
0.0157429
2.53468
-0.00295637
3.03072
-0.021545
3.03028
-0.0388214
2.5336
-0.0552884
2.12415
-0.0705936
1.78509
-0.0844884
1.50323
-0.0981991
1.26927
-0.109953
1.06959
-0.107004
0.874543
-0.0648952
0.607038
0.200152
0.0374624
0.164409
0.0806794
0.565687
0.0909866
0.865145
0.0837552
1.07818
0.0711494
1.28331
0.0593186
1.51685
0.0463467
1.79971
0.0314241
2.14057
0.0144443
2.55166
-0.00466849
3.04983
-0.0232165
3.04882
-0.0391353
2.54952
-0.053095
2.13811
-0.0652525
1.79725
-0.0765453
1.51452
-0.0884975
1.28122
-0.0948987
1.07599
-0.0830985
0.862742
-0.0383557
0.562295
0.161796
0.0194831
0.144926
0.0572839
0.527886
0.0727603
0.849669
0.0707222
1.08021
0.0619492
1.29209
0.0510675
1.52773
0.0398564
1.81092
0.0272346
2.1532
0.0122943
2.5666
-0.00525471
3.06738
-0.0226987
3.06627
-0.0370948
2.56391
-0.0486186
2.14963
-0.0586085
1.80724
-0.0684801
1.5244
-0.0761876
1.28893
-0.0770515
1.07686
-0.0599493
0.84564
-0.0203582
0.522704
0.141438
0.0106523
0.134274
0.0424174
0.496121
0.0585377
0.833548
0.0588409
1.07991
0.0527542
1.29817
0.0434601
1.53703
0.033129
1.82125
0.0217542
2.16457
0.00837602
2.57998
-0.0077092
3.08346
-0.0230794
3.08164
-0.0349986
2.57583
-0.0449262
2.15956
-0.053713
1.81603
-0.0615399
1.53222
-0.0660598
1.29345
-0.0641455
1.07494
-0.0458204
0.827315
-0.0116779
0.488562
0.12976
0.00659018
0.127683
0.0330399
0.469672
0.0493661
0.817222
0.0509
1.07838
0.0458158
1.30326
0.0374854
1.54536
0.0278977
1.83084
0.0170386
2.17543
0.00504656
2.59197
-0.00866683
3.09718
-0.022127
3.0951
-0.0330551
2.58676
-0.0422446
2.16875
-0.05003
1.82381
-0.0566534
1.53885
-0.0599007
1.2967
-0.0562665
1.07131
-0.0371659
0.808215
-0.00785883
0.459255
0.121901
0.00475787
0.122926
0.026686
0.447743
0.0425697
0.801338
0.0447391
1.07621
0.0401337
1.30786
0.0324803
1.55301
0.0234051
1.83991
0.0129773
2.18586
0.00129585
2.60366
-0.0118668
3.11034
-0.0238332
3.10706
-0.033516
2.59644
-0.0417126
2.17695
-0.0485037
1.8306
-0.0538977
1.54424
-0.0562459
1.29905
-0.0513548
1.06642
-0.0318231
0.788683
-0.006314
0.433746
0.115587
0.00379746
0.119128
0.021856
0.429685
0.0371141
0.78608
0.0399067
1.07341
0.0355443
1.31222
0.0281963
1.56036
0.0194306
1.84868
0.00937129
2.19592
-0.0018295
2.61486
-0.0137434
3.12225
-0.0250928
3.11841
-0.0344374
2.60579
-0.0419523
2.18446
-0.0481563
1.83681
-0.0530204
1.5491
-0.0542992
1.30032
-0.0479351
1.06005
-0.0280879
0.768836
-0.00570573
0.411363
0.109881
0.00306605
0.116062
0.017615
0.415136
0.0316581
0.772037
0.0347909
1.07028
0.0308094
1.31621
0.0237823
1.56739
0.0153342
1.85712
0.00554646
2.2057
-0.00565082
2.62605
-0.0180347
3.13464
-0.028938
3.12932
-0.0370477
2.6139
-0.0436269
2.19104
-0.0488775
1.84206
-0.0526162
1.55284
-0.0528099
1.30052
-0.0451925
1.05244
-0.0253113
0.748955
-0.00543656
0.391489
0.104445
0.00242201
0.11364
0.0139997
0.403558
0.0267268
0.75931
0.029963
1.06705
0.0260903
1.32008
0.0191654
1.57431
0.0107318
1.86556
0.00101124
2.21542
-0.00973998
2.63681
-0.0212939
3.14619
-0.0317838
3.13981
-0.0399179
2.62203
-0.0457202
2.19684
-0.0500397
1.84638
-0.052791
1.55559
-0.052201
1.29993
-0.0431425
1.04338
-0.0232273
0.729039
-0.0052441
0.373506
0.0992008
0.00172734
0.111913
0.0106347
0.394651
0.0215257
0.748419
0.0242535
1.06432
0.0203416
1.32399
0.0135089
1.58114
0.00517049
1.8739
-0.00438098
2.22498
-0.0152743
2.6477
-0.0271511
3.15807
-0.0371054
3.14976
-0.0436341
2.62856
-0.0483696
2.20158
-0.0519403
1.84995
-0.0537222
1.55738
-0.0523218
1.29853
-0.0420779
1.03313
-0.0219794
0.708941
-0.0051917
0.356718
0.0940091
0.000902603
0.11101
0.00729508
0.388259
0.0166477
0.739066
0.0190393
1.06193
0.0146942
1.32833
0.00737234
1.58847
-0.00118868
1.88246
-0.0108016
2.23459
-0.0212318
2.65813
-0.0322469
3.16908
-0.0413729
3.15889
-0.0475746
2.63476
-0.0515435
2.20555
-0.0542812
1.85269
-0.0551877
1.55828
-0.0527308
1.29607
-0.0413131
1.02172
-0.0210159
0.688644
-0.00509662
0.340799
0.0889125
0.000178884
0.110831
0.004346
0.384091
0.011239
0.732173
0.0123782
1.06079
0.00769459
1.33302
0.00019286
1.59597
-0.00891522
1.89157
-0.0189742
2.24465
-0.0297908
2.66895
-0.0407312
3.18002
-0.0491169
3.16727
-0.0536977
2.63934
-0.0564311
2.20828
-0.0584386
1.85469
-0.0585032
1.55835
-0.0546379
1.2922
-0.041597
1.00867
-0.0207124
0.667759
-0.00513483
0.325221
0.0837776
-0.0007614
0.111593
0.000691187
0.382639
0.00565129
0.727213
0.00622218
1.06022
0.000799652
1.33844
-0.00770367
1.60447
-0.0173844
1.90125
-0.0276597
2.25492
-0.0382378
2.67952
-0.0484436
3.19023
-0.0557885
3.17462
-0.0599884
2.64354
-0.062172
2.21046
-0.063218
1.85574
-0.0623142
1.55744
-0.0570053
1.2869
-0.0423355
0.994004
-0.0208002
0.646224
-0.00526092
0.309682
0.0785167
-0.00159115
0.113184
-0.00235091
0.383399
-0.00025199
0.725114
-0.00181731
1.06178
-0.00798465
1.34461
-0.0167781
1.61326
-0.0271844
1.91165
-0.0386581
2.2664
-0.0503818
2.69125
-0.0607325
3.20058
-0.0674099
3.1813
-0.0704423
2.64657
-0.0711989
2.21122
-0.0707664
1.85531
-0.0681208
1.5548
-0.0607844
1.27956
-0.0440943
0.977314
-0.0214533
0.623583
-0.00549879
0.293727
0.0730179
-0.00296564
0.116149
-0.00609788
0.386531
-0.00755224
0.726568
-0.0103404
1.06457
-0.0175204
1.35179
-0.0276214
1.62337
-0.0389778
1.92301
-0.0509041
2.27832
-0.0625385
2.70288
-0.0724933
3.21053
-0.078322
3.18712
-0.0802326
2.64849
-0.079719
2.21071
-0.0783722
1.85396
-0.0748517
1.55128
-0.0656178
1.27033
-0.0467201
0.958417
-0.0226137
0.599476
-0.00586599
0.276979
0.0671519
-0.00426153
0.120411
-0.010341
0.39261
-0.0152273
0.731455
-0.0211509
1.07049
-0.029655
1.36029
-0.0407407
1.63445
-0.0532731
1.93554
-0.0667667
2.29182
-0.0799065
2.71602
-0.0901561
3.22078
-0.0945001
3.19147
-0.0949026
2.64889
-0.0936779
2.20948
-0.0900821
1.85036
-0.0839103
1.54511
-0.0720468
1.25846
-0.0503464
0.936716
-0.0242514
0.573381
-0.00632125
0.259049
0.0608307
-0.00572793
0.126139
-0.015381
0.402264
-0.0242195
0.740293
-0.0329919
1.07927
-0.0436212
1.37092
-0.0567574
1.64759
-0.0709179
1.9497
-0.0851407
2.30604
-0.0980398
2.72892
-0.107508
3.23025
-0.111135
3.1951
-0.110146
2.6479
-0.106046
2.20538
-0.101538
1.84586
-0.0944967
1.53806
-0.0798934
1.24386
-0.0548517
0.911674
-0.0263231
0.544853
-0.00686123
0.239587
0.0539695
-0.0080008
0.13414
-0.0221303
0.416393
-0.0363185
0.754481
-0.0485207
1.09147
-0.0611791
1.38358
-0.0763603
1.66277
-0.0925277
1.96587
-0.108744
2.32226
-0.123145
2.74332
-0.133108
3.24022
-0.134509
3.1965
-0.130734
2.64412
-0.125383
2.20003
-0.117973
1.83845
-0.107369
1.52746
-0.0892509
1.22574
-0.0603661
0.88279
-0.0287542
0.513241
-0.00744162
0.218275
0.0465278
-0.0104432
0.144583
-0.0293822
0.435332
-0.0496363
0.774735
-0.0666201
1.10845
-0.0824293
1.39939
-0.100332
1.68067
-0.118962
1.9845
-0.136598
2.33989
-0.150784
2.75751
-0.158405
3.24784
-0.158084
3.19618
-0.152399
2.63844
-0.14409
2.19172
-0.134946
1.8293
-0.122457
1.51497
-0.100155
1.20344
-0.0665046
0.84914
-0.0313326
0.478069
-0.0079936
0.194936
0.0385342
-0.0151012
0.159684
-0.0414993
0.46173
-0.0685595
0.801796
-0.0906567
1.13055
-0.110427
1.41916
-0.132237
1.70248
-0.153612
2.00587
-0.172955
2.35924
-0.187303
2.77186
-0.193682
3.25421
-0.189693
3.19219
-0.180552
2.6293
-0.170041
2.18121
-0.157429
1.81669
-0.140082
1.49762
-0.112855
1.17621
-0.0737181
0.810003
-0.0341777
0.438528
-0.00851599
0.169274
0.0300183
-0.0193866
0.179071
-0.0550463
0.49739
-0.0922058
0.838955
-0.121849
1.16019
-0.146881
1.44419
-0.172275
1.72788
-0.195642
2.02924
-0.214835
2.37843
-0.227283
2.7843
-0.229919
3.25685
-0.222668
3.18493
-0.210275
2.61691
-0.195595
2.16653
-0.180211
1.80131
-0.159761
1.47717
-0.126283
1.14273
-0.0805989
0.764319
-0.0365815
0.394511
-0.00871626
0.141409
0.021302
-0.0325028
0.211574
-0.0816193
0.546506
-0.128995
0.886331
-0.165115
1.19631
-0.195671
1.47475
-0.225277
1.75748
-0.249832
2.0538
-0.268833
2.39743
-0.279407
2.79488
-0.277274
3.25472
-0.26337
3.17103
-0.246148
2.59968
-0.229258
2.14964
-0.209746
1.78179
-0.182254
1.44968
-0.141758
1.10224
-0.088745
0.711305
-0.0390616
0.344828
-0.00871969
0.111067
0.0125823
-0.0469194
0.258493
-0.120337
0.619924
-0.183304
0.949298
-0.227927
1.24093
-0.264415
1.51124
-0.294697
1.78777
-0.316954
2.07605
-0.331143
2.41162
-0.3344
2.79813
-0.325536
3.24585
-0.307565
3.15306
-0.286525
2.57864
-0.263319
2.12643
-0.238898
1.75737
-0.206802
1.41759
-0.156911
1.05235
-0.0940724
0.648467
-0.0395201
0.290275
-0.00860987
0.0801568
0.00397243
-0.0338984
0.292391
-0.0972109
0.683236
-0.155617
1.0077
-0.202716
1.28803
-0.245197
1.55372
-0.283011
1.82558
-0.318074
2.11112
-0.349491
2.44304
-0.373822
2.82247
-0.38514
3.25717
-0.376764
3.14468
-0.357822
2.5597
-0.337203
2.10582
-0.307525
1.72769
-0.258118
1.36818
-0.186568
0.980796
-0.104471
0.566369
-0.0408295
0.226634
-0.0091829
0.0485101
-0.00521047
-0.0128572
0.305249
-0.0479061
0.718285
-0.0893573
1.04916
-0.12852
1.3272
-0.167355
1.59255
-0.201599
1.85982
-0.23315
2.14267
-0.259694
2.46958
-0.276477
2.83925
-0.276691
3.25739
-0.263562
3.13155
-0.244722
2.54086
-0.215989
2.07708
-0.18169
1.6934
-0.141526
1.32802
-0.0911314
0.930401
-0.0421268
0.517365
-0.0143941
0.198901
-0.00341756
0.0375336
-0.00862803
7.96581e-05
0.305169
-0.0249134
0.743278
-0.054607
1.07885
-0.0845983
1.35719
-0.115794
1.62375
-0.146068
1.8901
-0.173752
2.17035
-0.196155
2.49198
-0.20964
2.85273
-0.211535
3.25928
-0.197468
3.11749
-0.169908
2.5133
-0.14061
2.04778
-0.107972
1.66076
-0.0690656
1.28911
-0.0306393
0.891974
-0.00539102
0.492117
0.000954211
0.192556
9.27281e-05
0.0383951
-0.0085353
0.000728506
0.30444
-0.0125956
0.756602
-0.0340727
1.10033
-0.058745
1.38186
-0.0845879
1.64959
-0.109994
1.9155
-0.133182
2.19354
-0.151682
2.51048
-0.16183
2.86288
-0.158446
3.2559
-0.137927
3.09697
-0.111643
2.48702
-0.0824459
2.01859
-0.0495924
1.6279
-0.0202242
1.25974
0.00187967
0.869871
0.0116237
0.482373
0.00823311
0.195947
0.00226381
0.0443644
-0.00627149
0.00394186
0.300499
-0.00554985
0.766094
-0.0235104
1.11829
-0.0440519
1.4024
-0.0655435
1.67108
-0.0869408
1.9369
-0.107076
2.21367
-0.123399
2.52681
-0.132258
2.87174
-0.128279
3.25192
-0.10969
3.07838
-0.0837193
2.46105
-0.0526381
1.98751
-0.0247293
1.6
0.00280229
1.23221
0.021742
0.850931
0.0233272
0.480787
0.0135864
0.205688
0.00385033
0.0541005
-0.00242115
0.00517904
0.29532
-0.000888833
0.772162
-0.0168351
1.13423
-0.0351296
1.42069
-0.054291
1.69024
-0.0732737
1.95588
-0.0910118
2.23141
-0.105167
2.54096
-0.112016
2.87859
-0.106128
3.24603
-0.0878707
3.06012
-0.0629145
2.43609
-0.0364379
1.96103
-0.00739517
1.57095
0.0138833
1.21093
0.0256268
0.839187
0.0252346
0.48118
0.0144983
0.216424
0.00421426
0.0643845
0.00179311
0.003994
0.291326
-0.000416761
0.776573
-0.0138088
1.14762
-0.0305161
1.4374
-0.0477068
1.70743
-0.0648094
1.97299
-0.0809575
2.24756
-0.0939837
2.55399
-0.100873
2.88548
-0.0966218
3.24178
-0.0793997
3.0429
-0.0552775
2.41197
-0.028639
1.93439
-0.00665901
1.54897
0.0140008
1.19027
0.0258178
0.82737
0.0234241
0.483573
0.0136081
0.22624
0.00405367
0.0739389
0.00584677
0.00248854
0.288837
-0.00122935
0.78029
-0.0132411
1.15964
-0.02814
1.4523
-0.0442939
1.72359
-0.0603169
1.98901
-0.0755255
2.26277
-0.0883104
2.56677
-0.0955007
2.89267
-0.0916045
3.23788
-0.075086
3.02638
-0.0531999
2.39008
-0.0316023
1.91279
-0.00749607
1.52487
0.00983701
1.17294
0.019151
0.818056
0.0189592
0.483765
0.0108598
0.234339
0.00328569
0.0815131
0.00913246
0.00028808
0.288549
-0.0034522
0.784031
-0.0140889
1.17027
-0.0275242
1.46574
-0.0425747
1.73864
-0.057841
2.00428
-0.072724
2.27765
-0.0855322
2.57958
-0.0929412
2.90008
-0.0907979
3.23574
-0.0763617
3.01195
-0.0558866
2.36961
-0.0342346
1.89114
-0.0161551
1.50679
0.00170459
1.15508
0.0130231
0.806738
0.0126498
0.484138
0.00757961
0.239409
0.00237915
0.0867135
0.0115116
-0.000603334
0.289152
-0.0056437
0.789071
-0.0154386
1.18007
-0.0279087
1.47821
-0.0422908
1.75302
-0.0570948
2.01908
-0.0718203
2.29238
-0.0850005
2.59276
-0.0937768
2.90886
-0.0938639
3.23583
-0.081036
2.99912
-0.0630255
2.3516
-0.0446734
1.87279
-0.0232992
1.48541
-0.00750824
1.13929
0.00220014
0.79703
0.0055885
0.48075
0.00354885
0.241449
0.00142472
0.0888377
0.0129363
-0.0021118
0.291264
-0.0073831
0.794342
-0.016881
1.18957
-0.0287526
1.49008
-0.0424167
1.76668
-0.0568339
2.0335
-0.0716031
2.30715
-0.0853151
2.60647
-0.0951413
2.91868
-0.0965559
3.23724
-0.0864507
2.98901
-0.0703088
2.33546
-0.0504893
1.85297
-0.0344062
1.46933
-0.0174765
1.12236
-0.00497806
0.784531
-0.00112929
0.476901
-6.57821e-05
0.240386
0.00017751
0.0885944
0.0131138
-0.00352963
0.294794
-0.00921693
0.80003
-0.0183366
1.19869
-0.0297717
1.50151
-0.0430296
1.77994
-0.0571308
2.0476
-0.0719661
2.32198
-0.0864315
2.62094
-0.0979858
2.93024
-0.102202
3.24146
-0.0948598
2.98167
-0.0799936
2.32059
-0.0629984
1.83597
-0.0420807
1.44841
-0.025562
1.10584
-0.0137635
0.772733
-0.0059904
0.469128
-0.00253297
0.236928
-0.000423344
0.0864847
0.0126905
-0.00415571
0.298949
-0.0102871
0.806161
-0.0194644
1.20786
-0.0305428
1.51259
-0.0433122
1.79271
-0.057224
2.06151
-0.0722894
2.33705
-0.0873939
2.63604
-0.100139
2.94298
-0.106651
3.24797
-0.102515
2.97753
-0.0893166
2.30739
-0.0687277
1.81539
-0.0508873
1.43057
-0.0322887
1.08724
-0.0176859
0.75813
-0.0101186
0.461561
-0.00405397
0.230864
-0.000888279
0.083319
0.0118022
-0.00440946
0.303359
-0.011266
0.813018
-0.0203447
1.21694
-0.0311559
1.5234
-0.0437046
1.80526
-0.0574211
2.07523
-0.0725571
2.35218
-0.0882693
2.65175
-0.102745
2.95746
-0.112462
3.25769
-0.110408
2.97548
-0.0976953
2.29468
-0.0804384
1.79813
-0.0566887
1.40682
-0.0371345
1.06769
-0.0226337
0.743629
-0.011437
0.450364
-0.00481987
0.224246
-0.00103991
0.0795391
0.0107623
-0.00444334
0.307802
-0.0116079
0.820182
-0.020772
1.22611
-0.0313543
1.53399
-0.0435409
1.81745
-0.0571042
2.08879
-0.0723927
2.36747
-0.0886901
2.66805
-0.10458
2.97335
-0.116803
3.26991
-0.118748
2.97743
-0.107891
2.28382
-0.08543
1.77567
-0.0631335
1.38453
-0.0400957
1.04465
-0.0222983
0.725832
-0.0118327
0.439899
-0.00425447
0.216668
-0.000900518
0.0761851
0.00986178
-0.00456161
0.312364
-0.0120338
0.827654
-0.0209697
1.23504
-0.0313341
1.54435
-0.0433589
1.82947
-0.0567321
2.10216
-0.0720197
2.38276
-0.0888422
2.68487
-0.106089
2.99059
-0.120906
3.28473
-0.124999
2.98152
-0.115021
2.27384
-0.097354
1.758
-0.0682792
1.35545
-0.0413364
1.01771
-0.0215499
0.706045
-0.00737808
0.425727
-0.00134082
0.210631
0.000442282
0.074402
0.0103041
-0.00456297
0.316927
-0.0119762
0.835068
-0.0208288
1.24389
-0.03095
1.55447
-0.0426079
1.84113
-0.0557857
2.11534
-0.0711302
2.3981
-0.0883604
2.7021
-0.106723
3.00896
-0.123869
3.30187
-0.132385
2.99003
-0.125564
2.26702
-0.102614
1.73505
-0.0744847
1.32732
-0.0412713
0.984493
-0.0144162
0.67919
0.0002113
0.411099
0.00377101
0.207071
-0.00120661
0.0793797
0.00909745
-0.00460164
0.321528
-0.0120415
0.842507
-0.020554
1.25241
-0.0303826
1.5643
-0.0418231
1.85257
-0.0547841
2.1283
-0.0700385
2.41336
-0.0875859
2.71965
-0.106899
3.02827
-0.125924
3.3209
-0.136635
3.00075
-0.132073
2.26246
-0.115531
1.71851
-0.081277
1.29307
-0.0412866
0.944502
-0.00315838
0.641062
0.0273459
0.380595
0.0384549
0.195962
0.0259181
0.0919165
0.0350155
-0.00447013
0.325999
-0.0116829
0.84972
-0.0200317
1.26076
-0.0295557
1.57382
-0.0405743
1.86359
-0.0532693
2.141
-0.0684451
2.42853
-0.0861575
2.73736
-0.106205
3.04832
-0.127144
3.34184
-0.141443
3.01504
-0.142079
2.2631
-0.121996
1.69843
-0.0898947
1.26097
-0.0421782
0.896786
0.00641742
0.592466
0.0484849
0.338527
0.047983
0.196464
0.0211345
0.118765
0.05615
-0.00434272
0.330341
-0.0114715
0.856849
-0.0194305
1.26871
-0.0285836
1.58298
-0.0393581
1.87436
-0.0517929
2.15343
-0.0667722
2.44351
-0.0845797
2.75517
-0.105234
3.06897
-0.127577
3.36418
-0.143408
3.03088
-0.147034
2.26672
-0.136552
1.68794
-0.102242
1.22666
-0.0512631
0.845807
0.0213046
0.519898
0.120262
0.23957
0.194274
0.122452
0.182234
0.130806
0.238384
-0.00418564
0.334527
-0.0111169
0.86378
-0.0191033
1.2767
-0.0282817
1.59215
-0.0391695
1.88525
-0.0520423
2.1663
-0.067946
2.45942
-0.0873126
2.77454
-0.110589
3.09225
-0.137366
3.39096
-0.159926
3.05344
-0.17014
2.27694
-0.158768
1.67657
-0.12887
1.19676
-0.0703559
0.787292
-0.013552
0.463095
-0.0665842
0.292602
-0.357117
0.412984
-0.941975
0.715664
0.900352
-1.60394
-0.00403043
0.338557
-0.0108794
0.870629
-0.0185698
1.28439
-0.0275658
1.60115
-0.0384337
1.89612
-0.0514559
2.17933
-0.0677719
2.47573
-0.0881091
2.79487
-0.113301
3.11744
-0.143522
3.42118
-0.170232
3.08014
-0.184739
2.29144
-0.191878
1.68371
-0.172298
1.17718
-0.144504
0.759498
-0.237482
0.556073
-0.693268
0.748388
-1.44341
1.16312
-2.05078
1.32303
1.21674
-2.36717
-0.0037928
0.34235
-0.0102918
0.877128
-0.0178386
1.29194
-0.0266796
1.60999
-0.0373638
1.9068
-0.0504405
2.1924
-0.0671522
2.49244
-0.0883558
2.81608
-0.115326
3.14441
-0.149127
3.45498
-0.182693
3.11371
-0.207724
2.31647
-0.215536
1.69152
-0.204025
1.16567
-0.290021
0.845494
-0.753399
1.01945
-1.54586
1.54085
-2.11065
1.7279
-2.34971
1.5621
1.33095
-2.46392
-0.00364561
0.345996
-0.00989392
0.883376
-0.017065
1.29911
-0.0256527
1.61858
-0.0362393
1.91739
-0.0493987
2.20556
-0.0664226
2.50947
-0.0884758
2.83813
-0.117294
3.17323
-0.154902
3.49259
-0.193945
3.15275
-0.223848
2.34638
-0.250842
1.71852
-0.329964
1.24479
-0.684457
1.19999
-1.43801
1.77301
-2.02736
2.1302
-2.26696
1.96751
-2.38009
1.67523
1.39512
-2.44426
-0.00333599
0.349332
-0.00912718
0.889168
-0.0160654
1.30605
-0.0244311
1.62694
-0.0348364
1.9278
-0.0479625
2.21869
-0.0652341
2.52674
-0.0879806
2.86088
-0.118417
3.20367
-0.159465
3.53363
-0.205931
3.19922
-0.24972
2.39016
-0.29129
1.76009
-0.472022
1.42552
-1.09397
1.82193
-1.7883
2.46734
-2.10854
2.45044
-2.25662
2.11559
-2.33863
1.75723
1.46099
-2.4045
-0.00330459
0.352636
-0.00909763
0.894961
-0.0159132
1.31286
-0.0242841
1.63532
-0.0349895
1.9385
-0.0484737
2.23217
-0.0662795
2.54455
-0.0900267
2.88463
-0.12237
3.23601
-0.167339
3.5786
-0.21998
3.25186
-0.266073
2.43626
-0.355097
1.84911
-0.746658
1.81708
-1.49034
2.56561
-1.96318
2.94018
-2.163
2.65026
-2.26915
2.22175
-2.34622
1.8343
1.52443
-2.40966
-0.00336558
0.356002
-0.00929494
0.90089
-0.0165991
1.32017
-0.0254726
1.64419
-0.0366423
1.94967
-0.0507332
2.24626
-0.0694022
2.56321
-0.0943604
2.90958
-0.128646
3.27029
-0.177277
3.62724
-0.234316
3.3089
-0.296588
2.49853
-0.485448
2.03797
-1.04627
2.3779
-1.67825
3.19759
-1.95352
3.21545
-2.10033
2.79707
-2.21408
2.3355
-2.30758
1.9278
1.58605
-2.3692
-0.00346834
0.35947
-0.00987475
0.907296
-0.0174598
1.32775
-0.0267571
1.65349
-0.0385282
1.96144
-0.0533597
2.2611
-0.0729513
2.58281
-0.0992804
2.93591
-0.135668
3.30668
-0.188303
3.67987
-0.251225
3.37182
-0.33682
2.58413
-0.618265
2.31942
-1.26378
3.02342
-1.75268
3.68648
-1.95966
3.42244
-2.09944
2.93685
-2.22309
2.45916
-2.33344
2.03814
1.64461
-2.39199
-0.0034
0.36287
-0.00988636
0.913783
-0.0181345
1.336
-0.0280834
1.66344
-0.0403703
1.97373
-0.0558424
2.27657
-0.0763454
2.60331
-0.103908
2.96348
-0.142156
3.34493
-0.197602
3.73532
-0.264625
3.43884
-0.389109
2.70861
-0.775528
2.70583
-1.41021
3.6581
-1.76277
4.03904
-1.93557
3.59523
-2.03737
3.03865
-2.12581
2.54759
-2.19294
2.10528
1.63735
-2.18569
-0.00338585
0.366256
-0.0104406
0.920838
-0.0189449
1.34451
-0.0293337
1.67382
-0.0423246
1.98672
-0.0586208
2.29286
-0.0801055
2.62479
-0.10908
2.99245
-0.149324
3.38517
-0.206731
3.79272
-0.285295
3.51741
-0.455246
2.87856
-0.906956
3.15754
-1.46257
4.21372
-1.72424
4.30071
-1.87582
3.74681
-1.96894
3.13178
-1.97025
2.5489
-1.90105
2.03608
1.60169
-1.86539
-0.00315022
0.369406
-0.010066
0.927753
-0.0193098
1.35375
-0.0303719
1.68489
-0.0437665
2.00011
-0.0604367
2.30953
-0.0823278
2.64668
-0.111615
3.02174
-0.152129
3.42569
-0.208887
3.84948
-0.294206
3.60273
-0.498452
3.08281
-0.988285
3.64738
-1.42952
4.65495
-1.59454
4.46573
-1.66156
3.81383
-1.66596
3.13618
-1.51826
2.40119
-1.01813
1.53596
0.583553
-0.00270685
0.372113
-0.0104279
0.935474
-0.0198478
1.36317
-0.0314287
1.69647
-0.0459297
2.01462
-0.0640529
2.32766
-0.0878829
2.67051
-0.12001
3.05386
-0.164656
3.47033
-0.227881
3.91271
-0.330798
3.70564
-0.58515
3.33716
-1.12429
4.18652
-1.48247
5.01313
-1.58159
4.56485
-1.57935
3.81159
-1.47556
3.03239
-1.2365
2.16213
-0.632479
0.931934
-0.0489259
-0.00232816
0.374441
-0.00927646
0.942423
-0.0195663
1.37346
-0.0322027
1.7091
-0.0476038
2.03002
-0.0669364
2.34699
-0.0925846
2.69616
-0.127263
3.08854
-0.176066
3.51914
-0.245583
3.98222
-0.368134
3.82819
-0.682185
3.65121
-1.24207
4.74641
-1.50296
5.27402
-1.56118
4.62307
-1.53916
3.78957
-1.33715
2.83038
-0.783615
1.60859
-0.109083
0.257403
-0.158009
-0.00169688
0.376138
-0.00920843
0.949934
-0.0193127
1.38356
-0.0322686
1.72206
-0.0486962
2.04644
-0.069478
2.36777
-0.0971257
2.72381
-0.134843
3.12626
-0.187521
3.57181
-0.264861
4.05956
-0.413042
3.97637
-0.785697
4.02387
-1.32095
5.28166
-1.49697
5.45004
-1.52827
4.65438
-1.44012
3.70142
-1.10266
2.49292
-0.313729
0.819658
0.0250214
-0.0813468
-0.132988
-0.000449716
0.376588
-0.00656684
0.956051
-0.0175377
1.39453
-0.0316754
1.7362
-0.0488855
2.06365
-0.07076
2.38965
-0.100102
2.75315
-0.140028
3.16619
-0.195462
3.62725
-0.281569
4.14567
-0.456426
4.15123
-0.894473
4.46191
-1.36546
5.75265
-1.48221
5.56679
-1.48482
4.65699
-1.26013
3.47673
-0.687462
1.92025
-0.0625868
0.194783
0.0305456
-0.174479
-0.102442
0.000250846
0.376337
-0.00525363
0.961556
-0.0155575
1.40484
-0.0297006
1.75034
-0.0475846
2.08154
-0.0707972
2.41286
-0.101939
2.78429
-0.144461
3.20871
-0.203028
3.68582
-0.298294
4.24094
-0.499076
4.35201
-0.987087
4.94993
-1.36159
6.12715
-1.42545
5.63065
-1.37915
4.6107
-1.09032
3.18789
-0.323268
1.1532
0.00506366
-0.133549
0.015295
-0.184711
-0.0871472
0.00332433
0.373013
0.000415005
0.964465
-0.0109962
1.41625
-0.0263949
1.76574
-0.0446658
2.09981
-0.0687407
2.43693
-0.101077
2.81663
-0.145014
3.25265
-0.206127
3.74693
-0.309394
4.3442
-0.536956
4.57957
-1.04967
5.46264
-1.32479
6.40227
-1.36548
5.67134
-1.22582
4.47103
-0.773484
2.73556
-0.0699794
0.449698
0.0451292
-0.248657
0.024705
-0.164286
-0.0624422
0.00473052
0.368282
0.00299171
0.966204
-0.00654101
1.42578
-0.0205164
1.77971
-0.0388171
2.11811
-0.0638853
2.462
-0.0973855
2.85013
-0.143222
3.29848
-0.206897
3.8106
-0.318237
4.45554
-0.575384
4.83672
-1.0702
5.95745
-1.26063
6.5927
-1.27022
5.68093
-1.05097
4.25178
-0.460546
2.14513
-0.0165927
0.0057446
-0.00497527
-0.260275
0.00592139
-0.175183
-0.0565208
0.00866603
0.359616
0.0100264
0.964844
0.00234749
1.43346
-0.0119586
1.79402
-0.0305857
2.13674
-0.0557384
2.48715
-0.0893613
2.88375
-0.134992
3.34411
-0.200065
3.87568
-0.317315
4.57279
-0.596114
5.11552
-1.04917
6.41051
-1.17039
6.71393
-1.15603
5.66657
-0.897257
3.99301
-0.264104
1.51198
-0.0703591
-0.188
-0.0381338
-0.2925
-0.0134308
-0.199886
-0.0699516
0.0117256
0.347891
0.0167828
0.959786
0.0121403
1.4381
0.00151399
1.80465
-0.0173502
2.1556
-0.0421356
2.51194
-0.0755186
2.91714
-0.121647
3.39024
-0.187374
3.9414
-0.308724
4.69414
-0.594955
5.40175
-0.980964
6.79651
-1.04995
6.78291
-0.978808
5.59542
-0.680443
3.69465
-0.0763972
0.907932
0.0101017
-0.274499
-0.00484767
-0.277551
-0.0031031
-0.201631
-0.0730547
0.0184704
0.32942
0.0300791
0.948178
0.0282814
1.4399
0.0168978
1.81603
-0.00094695
2.17345
-0.0231952
2.53419
-0.054938
2.94888
-0.0988285
3.43413
-0.162495
4.00507
-0.282794
4.81444
-0.559803
5.67876
-0.869722
7.10643
-0.904257
6.81745
-0.807473
5.49864
-0.453569
3.34075
0.056925
0.397438
0.0686313
-0.286205
0.0502336
-0.259153
0.0186835
-0.17008
-0.0543712
0.0244958
0.304924
0.0430968
0.929577
0.0467599
1.43624
0.0401291
1.82266
0.0272333
2.18634
0.00546486
2.55596
-0.0242711
2.97861
-0.0658194
3.47568
-0.126554
4.0658
-0.241314
4.9292
-0.486895
5.92434
-0.7097
7.32924
-0.738885
6.84664
-0.628621
5.38838
-0.30515
3.01727
-0.00563213
0.0979204
0.016087
-0.307924
0.0315455
-0.274611
0.0163351
-0.15487
-0.0380361
0.034912
0.270012
0.0648945
0.899594
0.0752984
1.42583
0.0714291
1.82653
0.0607922
2.19698
0.0423458
2.5744
0.0162357
3.00472
-0.0206147
3.51253
-0.0740241
4.11921
-0.171071
5.02625
-0.369088
6.12236
-0.523401
7.48355
-0.554825
6.87806
-0.457166
5.29072
-0.177276
2.73738
-0.054664
-0.0246918
-0.0337533
-0.328835
-0.00615879
-0.302206
0.00186051
-0.162889
-0.0361756
0.0444175
0.225595
0.0873035
0.856708
0.108212
1.40493
0.113158
1.82158
0.108687
2.20145
0.0945865
2.5885
0.0740924
3.02522
0.0433798
3.54324
-0.00596815
4.16856
-0.0779601
5.09824
-0.210985
6.25538
-0.294991
7.56756
-0.316271
6.89934
-0.251314
5.22576
-0.0390131
2.52508
-0.0656986
0.0019937
-0.072982
-0.321552
-0.0319046
-0.343283
0.0107709
-0.205565
-0.0254047
0.057165
0.16843
0.119329
0.794544
0.155062
1.36919
0.166558
1.81009
0.166839
2.20117
0.157859
2.59748
0.144616
3.03846
0.124559
3.5633
0.0935562
4.19956
0.0517172
5.14008
0.00703535
6.30007
-0.0290868
7.60368
-0.0240901
6.89434
-0.05448
5.25615
-0.0570296
2.52763
-0.281378
0.226342
-0.286232
-0.316698
-0.176762
-0.452753
-0.0263432
-0.355983
-0.0517479
0.0598286
0.108601
0.149471
0.704901
0.206434
1.31223
0.234043
1.78248
0.245506
2.18971
0.244656
2.59833
0.239589
3.04353
0.22994
3.57295
0.216777
4.21273
0.201971
5.15489
0.271138
6.2309
0.330533
7.54428
0.2846
6.94028
0.0719933
5.46876
-0.274667
2.87429
-0.642434
0.59411
-0.640429
-0.318703
-0.479829
-0.613354
-0.216754
-0.619058
-0.268502
0.0506514
0.0579497
0.181366
0.574186
0.274505
1.21909
0.318186
1.7388
0.338212
2.16968
0.346662
2.58988
0.349161
3.04103
0.355131
3.56698
0.366563
4.2013
0.395417
5.12603
0.556794
6.06952
0.739776
7.3613
0.763751
6.9163
0.678603
5.55391
0.20368
3.34922
-0.35526
1.15305
-0.66283
-0.0111332
-0.619516
-0.656668
-0.336488
-0.902085
-0.60499
0.0352181
0.0227316
0.21551
0.393895
0.340924
1.09368
0.417967
1.66176
0.45819
2.12946
0.481444
2.56663
0.492009
3.03046
0.510578
3.54841
0.545066
4.16681
0.619169
5.05193
0.916523
5.77217
1.37516
6.90266
1.72731
6.56415
1.98116
5.30006
1.67298
3.6574
0.971075
1.85495
0.359205
0.600737
-0.00730432
-0.290158
-0.12581
-0.78358
-0.7308
0.0311504
-0.00841883
0.234681
0.190364
0.43539
0.892968
0.544757
1.55239
0.596565
2.07765
0.630874
2.53232
0.653435
3.0079
0.684457
3.51739
0.746947
4.10432
0.881934
4.91694
1.2839
5.3702
2.01044
6.17612
2.38987
6.18472
2.59542
5.09451
2.43877
3.81405
1.88614
2.40758
1.3332
1.15367
0.764635
0.278405
0.274896
-0.293841
-0.455904
0.0274492
-0.035868
0.170063
0.0477504
0.484825
0.578206
0.672502
1.36471
0.767397
1.98275
0.818042
2.48168
0.856437
2.96951
0.886743
3.48708
0.961867
4.02919
1.10845
4.77036
1.48573
4.99292
2.27251
5.38934
2.64037
5.81686
2.82836
4.90652
2.73167
3.91074
2.25717
2.88208
1.61591
1.79494
0.981922
0.912391
0.424403
0.263678
-0.0315014
0.00770855
-0.0435766
0.0883502
-0.0328913
0.41063
0.255926
0.683249
1.09209
0.810071
1.85593
0.847307
2.44444
0.858085
2.95873
0.847978
3.49719
0.847071
4.0301
0.890885
4.72655
1.02253
4.86127
1.42858
4.9833
1.62157
5.62388
1.64408
4.884
1.56695
3.98787
1.35472
3.09432
1.0009
2.14875
0.634703
1.27858
0.260361
0.638021
0.228859
0.00043167
-0.0440082
0.0397018
-0.0721615
0.22758
0.068048
0.512053
0.80762
0.672936
1.69505
0.726216
2.39116
0.739353
2.94559
0.73384
3.5027
0.718098
4.04584
0.736509
4.70814
0.793753
4.80402
1.04935
4.7277
1.26721
5.40602
1.27401
4.8772
1.21246
4.04942
1.06269
3.24409
0.794807
2.41663
0.495958
1.57743
0.205399
0.92858
0.434258
0.000342069
-0.0443503
0.022861
-0.0946803
0.105025
-0.0141159
0.35727
0.555375
0.518327
1.53399
0.591321
2.31817
0.611377
2.92554
0.612121
3.50196
0.589603
4.06836
0.581144
4.7166
0.606442
4.77873
0.760553
4.57359
0.942762
5.22381
0.940856
4.87911
0.878164
4.11212
0.762199
3.36005
0.578133
2.6007
0.351907
1.80366
0.136811
1.14368
0.571069
-0.00671347
-0.0376368
0.00509505
-0.106489
0.0509346
-0.0599554
0.252525
0.353785
0.394782
1.39173
0.45891
2.25404
0.475722
2.90872
0.480616
3.49707
0.46748
4.0815
0.454615
4.72946
0.455173
4.77817
0.546652
4.48211
0.677411
5.09305
0.674203
4.88232
0.609969
4.17635
0.516353
3.45367
0.386607
2.73045
0.226441
1.96383
0.078504
1.29161
0.649573
0.0168963
-0.0545331
0.0597537
-0.149346
0.101727
-0.101929
0.197547
0.257965
0.298086
1.29119
0.340578