/*--------------------------------*- C++ -*----------------------------------*\
| =========                 |                                                 |
| \\      /  F ield         | OpenFOAM: The Open Source CFD Toolbox           |
|  \\    /   O peration     | Version:  4.0                                   |
|   \\  /    A nd           | Web:      www.OpenFOAM.org                      |
|    \\/     M anipulation  |                                                 |
\*---------------------------------------------------------------------------*/
FoamFile
{
    version     2.0;
    format      ascii;
    class       volVectorField;
    location    "54";
    object      U;
}
// * * * * * * * * * * * * * * * * * * * * * * * * * * * * * * * * * * * * * //

dimensions      [0 1 -1 0 0 0 0];

internalField   nonuniform List<vector> 
2200
(
(0.878842 -0.0304133 0)
(1.00579 -0.0512839 0)
(1.00328 -0.0353977 0)
(1.00028 -0.0244557 0)
(0.999853 -0.0166941 0)
(1 -0.0107576 0)
(1.00003 -0.00686554 0)
(1.00003 -0.004211 0)
(1.00001 -0.00222263 0)
(1.00018 -0.000704707 0)
(0.999996 0.001063 0)
(0.999856 0.00255377 0)
(1.00005 0.00447655 0)
(1.00008 0.00704501 0)
(1.00008 0.0108219 0)
(1.00007 0.016671 0)
(1.00039 0.0243937 0)
(1.0035 0.0349043 0)
(1.00598 0.0513761 0)
(0.87904 0.030307 0)
(0.711995 -0.0327645 0)
(0.996633 -0.063015 0)
(1.03329 -0.0561741 0)
(1.02482 -0.0464053 0)
(1.01586 -0.0360899 0)
(1.00969 -0.0263712 0)
(1.00591 -0.0181351 0)
(1.00374 -0.0114383 0)
(1.00254 -0.00606757 0)
(1.00208 -0.00155387 0)
(1.00219 0.00261661 0)
(1.00263 0.00710439 0)
(1.00357 0.012411 0)
(1.00566 0.0190188 0)
(1.00944 0.0272499 0)
(1.01546 0.036949 0)
(1.02454 0.0474092 0)
(1.03311 0.0579009 0)
(0.996686 0.0631432 0)
(0.711762 0.033023 0)
(0.535556 -0.0238908 0)
(0.969901 -0.0569391 0)
(1.05645 -0.0547019 0)
(1.05234 -0.0487913 0)
(1.03628 -0.0404567 0)
(1.0244 -0.0322734 0)
(1.01591 -0.0240122 0)
(1.01042 -0.0161357 0)
(1.00721 -0.00883046 0)
(1.00566 -0.00219141 0)
(1.00545 0.00412747 0)
(1.0069 0.0106012 0)
(1.01024 0.0176739 0)
(1.01565 0.0253167 0)
(1.02409 0.0333689 0)
(1.03619 0.0413444 0)
(1.05226 0.0493693 0)
(1.05633 0.0533377 0)
(0.969218 0.0576198 0)
(0.534431 0.0239305 0)
(0.392244 -0.0136636 0)
(0.911714 -0.0464103 0)
(1.05746 -0.0470049 0)
(1.06938 -0.0443104 0)
(1.05483 -0.0382152 0)
(1.03936 -0.0315331 0)
(1.02755 -0.0247438 0)
(1.01907 -0.0175144 0)
(1.01369 -0.0100723 0)
(1.01106 -0.0025066 0)
(1.01097 0.00501293 0)
(1.01336 0.0125217 0)
(1.01832 0.0197216 0)
(1.02673 0.026641 0)
(1.03846 0.0330393 0)
(1.05388 0.0395107 0)
(1.06812 0.0456023 0)
(1.05553 0.0482883 0)
(0.909917 0.0469839 0)
(0.389984 0.0137755 0)
(0.307646 -0.00450673 0)
(0.846762 -0.0323708 0)
(1.04954 -0.0399039 0)
(1.07959 -0.0381577 0)
(1.06825 -0.0334985 0)
(1.05166 -0.0279087 0)
(1.03827 -0.0225038 0)
(1.02805 -0.0164923 0)
(1.021 -0.00954908 0)
(1.01717 -0.00191423 0)
(1.01695 0.00589813 0)
(1.02045 0.0130978 0)
(1.0274 0.0195899 0)
(1.0373 0.0252657 0)
(1.05039 0.0302713 0)
(1.06682 0.0356044 0)
(1.07788 0.0399323 0)
(1.04745 0.0416558 0)
(0.843139 0.0329275 0)
(0.303889 0.00472502 0)
(0.264171 9.75825e-05 0)
(0.788791 -0.0200911 0)
(1.03313 -0.0315069 0)
(1.08341 -0.0321363 0)
(1.07725 -0.0288794 0)
(1.06085 -0.023965 0)
(1.04724 -0.0194856 0)
(1.03637 -0.0143435 0)
(1.02856 -0.00835666 0)
(1.02404 -0.00142569 0)
(1.02355 0.00591989 0)
(1.02732 0.0127695 0)
(1.03454 0.0184233 0)
(1.04519 0.0230205 0)
(1.05863 0.026972 0)
(1.07487 0.0314117 0)
(1.08034 0.0341885 0)
(1.02918 0.0332577 0)
(0.782791 0.0207179 0)
(0.258937 0.000111786 0)
(0.240246 0.00106457 0)
(0.738315 -0.0123128 0)
(1.01372 -0.0250115 0)
(1.08411 -0.026808 0)
(1.08303 -0.0245175 0)
(1.06778 -0.0204403 0)
(1.05422 -0.016442 0)
(1.04334 -0.0119619 0)
(1.03515 -0.00651757 0)
(1.03029 -6.0131e-05 0)
(1.03 0.00668827 0)
(1.03417 0.0125382 0)
(1.04168 0.0173025 0)
(1.05188 0.021236 0)
(1.06501 0.0245875 0)
(1.07971 0.0279972 0)
(1.08018 0.0295379 0)
(1.00795 0.0271661 0)
(0.729312 0.0131107 0)
(0.233383 -0.00084522 0)
(0.225824 0.000958118 0)
(0.695171 -0.00805555 0)
(0.99279 -0.020798 0)
(1.08201 -0.0231877 0)
(1.08671 -0.0213453 0)
(1.07328 -0.017767 0)
(1.05988 -0.0140194 0)
(1.04931 -0.00970498 0)
(1.04138 -0.00479182 0)
(1.03641 0.000817053 0)
(1.0354 0.00665031 0)
(1.03888 0.0120691 0)
(1.04592 0.0163664 0)
(1.05591 0.0198 0)
(1.06913 0.022867 0)
(1.08192 0.0256847 0)
(1.07559 0.0266623 0)
(0.983408 0.0233453 0)
(0.682241 0.00909056 0)
(0.21698 -0.000718151 0)
(0.216244 0.000614236 0)
(0.659798 -0.00571205 0)
(0.97241 -0.0176943 0)
(1.07947 -0.0203233 0)
(1.09017 -0.0187621 0)
(1.07811 -0.0156346 0)
(1.06471 -0.0119494 0)
(1.05427 -0.00783587 0)
(1.04635 -0.00305243 0)
(1.04131 0.00235146 0)
(1.04078 0.00787159 0)
(1.04435 0.0124541 0)
(1.05086 0.0162155 0)
(1.06026 0.0194283 0)
(1.07288 0.0220758 0)
(1.08375 0.0242503 0)
(1.07151 0.0248117 0)
(0.96 0.0208738 0)
(0.642547 0.00701576 0)
(0.20502 -0.000346847 0)
(0.208937 0.000290052 0)
(0.630992 -0.00425256 0)
(0.953256 -0.015115 0)
(1.07615 -0.0180719 0)
(1.09323 -0.0167409 0)
(1.08284 -0.0137953 0)
(1.06935 -0.0102363 0)
(1.0589 -0.00614575 0)
(1.0512 -0.00148503 0)
(1.04628 0.003472 0)
(1.04464 0.00831099 0)
(1.04721 0.012857 0)
(1.05336 0.0164962 0)
(1.0627 0.0193766 0)
(1.07562 0.0218952 0)
(1.08464 0.0236876 0)
(1.06412 0.0236465 0)
(0.934917 0.0189615 0)
(0.60762 0.00586264 0)
(0.194632 2.8156e-05 0)
(0.203079 8.07899e-05 0)
(0.607654 -0.00317196 0)
(0.935325 -0.012621 0)
(1.07312 -0.015722 0)
(1.09658 -0.014641 0)
(1.08749 -0.011954 0)
(1.07399 -0.00841429 0)
(1.06326 -0.00445064 0)
(1.05516 0.000120328 0)
(1.04978 0.00519542 0)
(1.04861 0.0102805 0)
(1.05135 0.0141948 0)
(1.05722 0.0173573 0)
(1.06627 0.0200068 0)
(1.0784 0.0220841 0)
(1.08515 0.0232642 0)
(1.05793 0.0227079 0)
(0.911856 0.0173696 0)
(0.577921 0.00518406 0)
(0.185232 0.000307555 0)
(0.198421 -2.42023e-06 0)
(0.58925 -0.00233554 0)
(0.919591 -0.0103471 0)
(1.06974 -0.013608 0)
(1.09965 -0.0126188 0)
(1.09219 -0.00995218 0)
(1.07855 -0.00646612 0)
(1.06761 -0.00249466 0)
(1.05937 0.00205768 0)
(1.05392 0.00685562 0)
(1.05148 0.0113838 0)
(1.05317 0.0154819 0)
(1.0588 0.01856 0)
(1.06797 0.0206777 0)
(1.0804 0.0224482 0)
(1.08492 0.0232571 0)
(1.04863 0.0220691 0)
(0.88718 0.0160665 0)
(0.550485 0.00476239 0)
(0.175933 0.000469067 0)
(0.194796 2.33211e-05 0)
(0.574476 -0.00158916 0)
(0.905068 -0.00818746 0)
(1.06707 -0.0111439 0)
(1.10318 -0.0101112 0)
(1.09706 -0.00750778 0)
(1.08348 -0.00401832 0)
(1.07214 -0.00015589 0)
(1.06327 0.00433373 0)
(1.05691 0.0092865 0)
(1.05471 0.0139944 0)
(1.05682 0.0174883 0)
(1.0622 0.0198303 0)
(1.07093 0.0217724 0)
(1.08207 0.0230475 0)
(1.0842 0.0235213 0)
(1.04003 0.0218211 0)
(0.864131 0.0151813 0)
(0.52614 0.00458691 0)
(0.167101 0.000564715 0)
(0.192583 5.31812e-05 0)
(0.563732 -0.00082711 0)
(0.893542 -0.00604977 0)
(1.06445 -0.00897195 0)
(1.10665 -0.00778228 0)
(1.10218 -0.00489719 0)
(1.08847 -0.00125675 0)
(1.07686 0.00261961 0)
(1.06767 0.00700985 0)
(1.06115 0.0116338 0)
(1.05766 0.0159976 0)
(1.05814 0.0192292 0)
(1.06307 0.0216003 0)
(1.07199 0.0228856 0)
(1.08314 0.0238775 0)
(1.08259 0.0239553 0)
(1.02842 0.0216662 0)
(0.839133 0.0145121 0)
(0.502266 0.00446028 0)
(0.158096 0.00059541 0)
(0.191637 9.99381e-05 0)
(0.556155 -0.000233498 0)
(0.883072 -0.00401602 0)
(1.06285 -0.00616772 0)
(1.11066 -0.00474998 0)
(1.10743 -0.00181196 0)
(1.09368 0.00197005 0)
(1.08145 0.00604945 0)
(1.07138 0.0106013 0)
(1.06351 0.015384 0)
(1.05971 0.0195104 0)
(1.0611 0.0224698 0)
(1.06605 0.023769 0)
(1.07442 0.0248862 0)
(1.08337 0.0254915 0)
(1.07987 0.0250607 0)
(1.01714 0.022146 0)
(0.815335 0.0142477 0)
(0.480214 0.00448542 0)
(0.14945 0.000620754 0)
(0.192149 9.21593e-05 0)
(0.551659 0.000755728 0)
(0.876653 -0.00163437 0)
(1.06184 -0.00363 0)
(1.11481 -0.00188629 0)
(1.11312 0.00144221 0)
(1.09927 0.0055631 0)
(1.08674 0.00976928 0)
(1.0764 0.0143185 0)
(1.06841 0.0188527 0)
(1.06339 0.0227162 0)
(1.06218 0.0249924 0)
(1.06575 0.0266565 0)
(1.07418 0.0271195 0)
(1.0833 0.0272934 0)
(1.07602 0.0264645 0)
(1.00227 0.0227865 0)
(0.788937 0.0142445 0)
(0.45734 0.00460118 0)
(0.14032 0.000645673 0)
(0.194089 0.000193697 0)
(0.551809 0.00148769 0)
(0.871611 0.000360101 0)
(1.06252 -0.000241745 0)
(1.11991 0.00183732 0)
(1.11927 0.00526732 0)
(1.10526 0.00952733 0)
(1.09197 0.0142765 0)
(1.08052 0.0193409 0)
(1.07082 0.0242792 0)
(1.0649 0.0278234 0)
(1.06445 0.0299753 0)
(1.06852 0.0306568 0)
(1.07599 0.0308749 0)
(1.08186 0.0301983 0)
(1.07082 0.0285239 0)
(0.987732 0.0239502 0)
(0.763588 0.0146317 0)
(0.435417 0.00483072 0)
(0.131265 0.000674478 0)
(0.19808 0.000650549 0)
(0.554314 0.00227405 0)
(0.871695 0.00325442 0)
(1.0646 0.00303206 0)
(1.12543 0.0057171 0)
(1.126 0.00963795 0)
(1.11184 0.0145078 0)
(1.09822 0.0194957 0)
(1.08631 0.0246776 0)
(1.07595 0.0293432 0)
(1.06854 0.0328198 0)
(1.06517 0.0343839 0)
(1.06631 0.0347607 0)
(1.07361 0.0341358 0)
(1.07998 0.0334255 0)
(1.06384 0.0311145 0)
(0.968752 0.0255104 0)
(0.734435 0.0153752 0)
(0.411256 0.00517444 0)
(0.121248 0.000716368 0)
(0.204374 0.000867068 0)
(0.560803 0.00338201 0)
(0.875241 0.00572219 0)
(1.0691 0.00729964 0)
(1.13205 0.0106778 0)
(1.13329 0.0150957 0)
(1.11855 0.0203117 0)
(1.1037 0.0260291 0)
(1.09 0.0318647 0)
(1.07751 0.0371545 0)
(1.06862 0.0401872 0)
(1.06577 0.0409974 0)
(1.06843 0.0407704 0)
(1.07445 0.0401745 0)
(1.07629 0.0377959 0)
(1.05526 0.0344498 0)
(0.949967 0.0276995 0)
(0.705727 0.0164316 0)
(0.387181 0.00561292 0)
(0.111001 0.000755972 0)
(0.212692 0.00104511 0)
(0.572017 0.00470798 0)
(0.883316 0.00881747 0)
(1.07628 0.0118632 0)
(1.13999 0.0163536 0)
(1.14188 0.0214976 0)
(1.12653 0.0277126 0)
(1.11102 0.0338262 0)
(1.09658 0.0397994 0)
(1.08282 0.0447088 0)
(1.07182 0.0475076 0)
(1.06555 0.0480892 0)
(1.06446 0.0470832 0)
(1.06935 0.044636 0)
(1.07228 0.0429032 0)
(1.04414 0.0385876 0)
(0.925186 0.0302883 0)
(0.671669 0.0178571 0)
(0.359511 0.00613345 0)
(0.0993561 0.000799446 0)
(0.224827 0.00137154 0)
(0.58982 0.0066376 0)
(0.897619 0.0131106 0)
(1.08685 0.0180326 0)
(1.14987 0.02342 0)
(1.1518 0.0295698 0)
(1.13525 0.0365715 0)
(1.11758 0.043556 0)
(1.10015 0.0502802 0)
(1.08326 0.0558059 0)
(1.07019 0.0585245 0)
(1.06443 0.0575671 0)
(1.06476 0.0554894 0)
(1.06908 0.0528354 0)
(1.06535 0.0491736 0)
(1.03082 0.043286 0)
(0.900062 0.033613 0)
(0.637337 0.0195586 0)
(0.331182 0.00669878 0)
(0.0873127 0.000838034 0)
(0.240426 0.00192381 0)
(0.613254 0.00845101 0)
(0.918505 0.017772 0)
(1.10183 0.0249575 0)
(1.16192 0.0320291 0)
(1.16342 0.0391733 0)
(1.14504 0.0475277 0)
(1.12568 0.0553287 0)
(1.10675 0.0623776 0)
(1.08821 0.0674481 0)
(1.0722 0.0687121 0)
(1.06261 0.0676988 0)
(1.05887 0.06434 0)
(1.06069 0.0603186 0)
(1.05858 0.0561842 0)
(1.01414 0.0491723 0)
(0.867283 0.0372154 0)
(0.595766 0.0214671 0)
(0.298137 0.00726464 0)
(0.073659 0.000852433 0)
(0.262046 0.00277285 0)
(0.645606 0.0122097 0)
(0.946872 0.0245361 0)
(1.1211 0.0345579 0)
(1.1766 0.0429327 0)
(1.17682 0.0522884 0)
(1.15604 0.0618453 0)
(1.13363 0.0707258 0)
(1.11074 0.0783246 0)
(1.0876 0.0830064 0)
(1.06896 0.0837612 0)
(1.059 0.0802744 0)
(1.05689 0.0760758 0)
(1.05855 0.0712033 0)
(1.04729 0.0648121 0)
(0.993761 0.0556895 0)
(0.833207 0.0417061 0)
(0.553192 0.0236295 0)
(0.264158 0.00783514 0)
(0.0597677 0.000835588 0)
(0.293265 0.00368551 0)
(0.691019 0.015478 0)
(0.98567 0.0330015 0)
(1.14709 0.0465917 0)
(1.19488 0.0576746 0)
(1.19266 0.068691 0)
(1.16828 0.079694 0)
(1.14271 0.0890313 0)
(1.11707 0.0962001 0)
(1.09194 0.0997586 0)
(1.06999 0.0984785 0)
(1.05581 0.0943884 0)
(1.04841 0.0883111 0)
(1.04614 0.0812789 0)
(1.03555 0.0742087 0)
(0.969084 0.0631938 0)
(0.788926 0.0459855 0)
(0.500893 0.0257184 0)
(0.22426 0.00817471 0)
(0.0442744 0.000737895 0)
(0.329579 0.00707551 0)
(0.749136 0.0246438 0)
(1.03502 0.0465235 0)
(1.17892 0.064265 0)
(1.21689 0.0769281 0)
(1.21039 0.0911245 0)
(1.18156 0.102998 0)
(1.15192 0.112632 0)
(1.1217 0.119485 0)
(1.09099 0.121875 0)
(1.06503 0.118317 0)
(1.04978 0.11114 0)
(1.04419 0.103196 0)
(1.04169 0.0955592 0)
(1.01856 0.0855197 0)
(0.938414 0.071158 0)
(0.742683 0.0515436 0)
(0.448372 0.0280657 0)
(0.184581 0.00833562 0)
(0.0299133 0.000611937 0)
(0.409351 0.0106145 0)
(0.836318 0.0357134 0)
(1.10004 0.0670989 0)
(1.2183 0.0895895 0)
(1.24285 0.105403 6.37215e-34)
(1.22923 0.121313 -2.86941e-34)
(1.19389 0.133257 0)
(1.15893 0.141595 0)
(1.12366 0.145916 0)
(1.08904 0.144649 0)
(1.06076 0.138669 0)
(1.04267 0.129757 0)
(1.03205 0.120053 0)
(1.02382 0.108704 0)
(0.998843 0.0974166 0)
(0.901877 0.0805704 0)
(0.682001 0.0559019 0)
(0.380131 0.0291544 0)
(0.135431 0.00798303 0)
(0.0135279 0.000735687 0)
(0.480285 0.0258904 4.72429e-20)
(0.938537 0.05946 -3.57591e-20)
(1.17119 0.101764 0)
(1.25918 0.128387 2.76001e-20)
(1.27033 0.143598 -2.23823e-20)
(1.24726 0.161579 3.02749e-34)
(1.20498 0.171586 0)
(1.1649 0.17775 1.61035e-20)
(1.12475 0.179894 -5.28735e-20)
(1.08577 0.176977 1.07879e-20)
(1.05267 0.167315 0)
(1.03153 0.153871 -2.73407e-20)
(1.02139 0.140662 -3.27868e-20)
(1.01269 0.129979 5.73619e-20)
(0.967628 0.114194 -4.53077e-20)
(0.843925 0.0906125 0)
(0.600802 0.0608048 -1.63332e-20)
(0.301229 0.0291415 0)
(0.0848638 0.00764851 -9.00702e-20)
(-0.00353954 0.000569754 1.06149e-19)
(0.516623 0.0534494 -6.18262e-21)
(1.00276 0.102585 1.07313e-19)
(1.22083 0.151682 -6.09612e-21)
(1.29253 0.175955 -6.83649e-20)
(1.29468 0.193247 -4.7439e-20)
(1.26251 0.209414 7.7173e-20)
(1.21379 0.216612 0)
(1.16797 0.22016 0)
(1.12183 0.219266 8.41345e-20)
(1.07591 0.211409 0)
(1.0375 0.197032 9.87545e-20)
(1.01405 0.183104 2.93364e-20)
(0.999997 0.170252 4.43837e-22)
(0.979181 0.153336 -6.25143e-20)
(0.928568 0.134968 0)
(0.789101 0.107701 0)
(0.532558 0.0682456 -2.66647e-19)
(0.243883 0.0300081 6.70231e-19)
(0.0556863 0.00680053 -3.96145e-19)
(-0.0139799 -0.000891034 -4.67013e-19)
(0.52455 0.0760046 -6.13252e-20)
(1.04073 0.15938 2.34127e-20)
(1.2578 0.212305 1.27339e-20)
(1.31878 0.235292 1.19284e-19)
(1.3136 0.250899 1.44319e-20)
(1.27409 0.262636 -2.01231e-19)
(1.21979 0.265915 6.85834e-20)
(1.16868 0.266017 0)
(1.11727 0.261645 -1.77912e-19)
(1.06742 0.251076 1.57869e-19)
(1.02774 0.237025 -2.66522e-19)
(0.999611 0.219324 1.24921e-19)
(0.978914 0.201026 -8.09881e-20)
(0.96064 0.18485 1.82493e-19)
(0.897224 0.162511 0)
(0.747488 0.125055 -6.66964e-20)
(0.494208 0.0781021 0)
(0.229836 0.0330265 3.68098e-19)
(0.0520187 0.00773752 -8.70122e-19)
(-0.0156818 -0.00240799 5.45368e-19)
(0.520169 0.107767 1.70249e-19)
(1.06085 0.215769 -7.46376e-20)
(1.27948 0.27699 -1.5883e-20)
(1.33597 0.299465 0)
(1.32585 0.313071 -8.82707e-20)
(1.28103 0.319714 1.08905e-19)
(1.22205 0.318132 -7.34033e-20)
(1.16616 0.313872 0)
(1.11016 0.305406 1.26415e-19)
(1.05566 0.290803 -1.10946e-19)
(1.00709 0.270123 2.31156e-19)
(0.974411 0.248868 0)
(0.956222 0.230866 -1.72218e-19)
(0.925521 0.211243 9.70144e-20)
(0.865277 0.185244 2.44652e-19)
(0.720153 0.14716 -2.15274e-19)
(0.478312 0.0926333 3.41318e-19)
(0.228751 0.0419001 -7.56772e-19)
(0.0578373 0.0101275 4.77682e-19)
(-0.0131013 -0.00278712 -5.97396e-19)
(0.508884 0.13201 -5.84611e-20)
(1.06891 0.269766 4.17974e-20)
(1.29055 0.342906 -5.28003e-20)
(1.34502 0.36518 1.0543e-19)
(1.3314 0.37647 -9.9712e-20)
(1.28287 0.377981 3.4467e-20)
(1.22019 0.371767 3.61263e-21)
(1.16007 0.363472 -1.434e-19)
(1.09883 0.350718 -1.32704e-19)
(1.03859 0.332204 -2.3855e-19)
(0.988878 0.308839 -4.97034e-19)
(0.955885 0.28599 -1.53197e-19)
(0.929887 0.264928 2.27336e-21)
(0.908031 0.243337 -3.32652e-19)
(0.840669 0.216909 -5.71872e-21)
(0.696507 0.168637 3.13537e-19)
(0.468479 0.10784 -9.44832e-20)
(0.234112 0.0521054 -5.47032e-20)
(0.0684901 0.0143211 0)
(-0.00776202 -0.002256 1.27147e-18)
(0.492496 0.152795 0)
(1.06402 0.319503 -3.51054e-21)
(1.29294 0.405984 -8.90944e-21)
(1.34729 0.428948 -1.28253e-20)
(1.33117 0.439171 9.63823e-20)
(1.27999 0.436403 -8.03242e-20)
(1.21438 0.425853 8.01644e-20)
(1.15097 0.413207 2.35453e-19)
(1.08705 0.396289 -7.38355e-20)
(1.02523 0.373353 1.17971e-19)
(0.971592 0.345198 2.67175e-19)
(0.931455 0.31929 3.33991e-19)
(0.906428 0.296618 -2.01207e-19)
(0.871854 0.272666 3.60219e-19)
(0.811551 0.240919 -2.85515e-19)
(0.677377 0.194563 0)
(0.464753 0.127643 -7.17471e-19)
(0.245688 0.0659283 9.65633e-19)
(0.0832659 0.0216425 7.20849e-20)
(-0.00033192 -0.000464068 -1.34536e-18)
(0.477855 0.172871 -5.08385e-21)
(1.05574 0.367361 1.15136e-21)
(1.28998 0.466741 6.49361e-20)
(1.34455 0.490959 -8.69507e-20)
(1.32628 0.500049 8.00705e-20)
(1.27325 0.493213 -7.78465e-20)
(1.20567 0.478751 1.58945e-19)
(1.14 0.462268 -7.06988e-20)
(1.07299 0.441186 -2.98008e-19)
(1.00559 0.413915 -2.0721e-22)
(0.946988 0.382191 -2.90593e-19)
(0.907574 0.354048 -3.59399e-19)
(0.879299 0.327581 2.22254e-19)
(0.853898 0.30476 -1.29668e-19)
(0.789362 0.273466 3.10534e-19)
(0.659128 0.217116 0)
(0.458813 0.147631 -4.4577e-19)
(0.253313 0.0798101 6.58385e-19)
(0.0952216 0.0297325 1.24594e-18)
(0.00638479 0.0018444 -1.46543e-18)
(0.46397 0.190656 -6.08145e-20)
(1.04395 0.412254 2.45514e-20)
(1.28317 0.524415 -4.32992e-20)
(1.33796 0.549941 9.00054e-20)
(1.31812 0.55857 1.20031e-20)
(1.26376 0.548341 -1.52698e-19)
(1.19454 0.530394 -9.21718e-20)
(1.12674 0.510138 -9.03765e-20)
(1.05729 0.485637 -1.68275e-19)
(0.988088 0.454721 2.70709e-19)
(0.928868 0.419826 2.93752e-19)
(0.88585 0.386922 5.70294e-19)
(0.855459 0.36023 0)
(0.819631 0.333247 6.47511e-21)
(0.761811 0.296697 -8.53502e-19)
(0.641038 0.243983 1.99704e-19)
(0.454496 0.167897 9.65567e-19)
(0.26034 0.0951154 -2.84941e-19)
(0.105808 0.0386469 5.92136e-19)
(0.0124336 0.00456452 -4.93641e-20)
(0.453981 0.208716 5.84842e-21)
(1.03209 0.454763 4.56719e-20)
(1.27378 0.579227 -1.80788e-20)
(1.32874 0.606499 9.84114e-20)
(1.30736 0.614241 -1.59627e-19)
(1.25187 0.600828 1.5165e-19)
(1.18148 0.57986 9.54387e-20)
(1.11215 0.55653 2.70108e-19)
(1.04038 0.528377 3.37767e-19)
(0.968021 0.49326 -3.12568e-19)
(0.904653 0.45445 0)
(0.85912 0.418604 -2.15793e-19)
(0.828798 0.39012 2.47756e-19)
(0.802901 0.362963 3.12869e-19)
(0.741006 0.328959 -1.8095e-19)
(0.622698 0.264924 -4.41258e-19)
(0.446646 0.187431 -1.31638e-19)
(0.26352 0.10961 -1.80957e-21)
(0.112861 0.0469996 0)
(0.0168281 0.00707934 0)
(0.445919 0.224893 -7.15578e-20)
(1.02053 0.495327 0)
(1.26291 0.631097 -3.51693e-21)
(1.31734 0.660056 -1.14973e-20)
(1.29483 0.66732 1.81457e-19)
(1.23852 0.651146 -4.60578e-20)
(1.16702 0.627458 9.7008e-20)
(1.09624 0.601089 -1.82836e-19)
(1.02283 0.570087 2.5619e-19)
(0.948801 0.532226 -1.02668e-19)
(0.882857 0.490005 1.68306e-19)
(0.836998 0.451708 6.84252e-19)
(0.806069 0.421216 1.43454e-20)
(0.768525 0.389609 -3.26208e-19)
(0.713949 0.348332 6.04666e-19)
(0.603126 0.289999 4.00139e-21)
(0.43772 0.205539 1.40833e-19)
(0.262122 0.122947 -6.7161e-19)
(0.115497 0.0538648 6.92388e-19)
(0.0195154 0.00909545 -8.15751e-19)
(0.439136 0.242894 2.73866e-23)
(1.00855 0.533093 0)
(1.25068 0.679723 0)
(1.30469 0.71097 -2.99092e-21)
(1.28104 0.717338 -5.38847e-20)
(1.22389 0.698592 7.11405e-20)
(1.15169 0.672539 -1.80807e-19)
(1.08009 0.643775 0)
(1.00503 0.609903 -3.77759e-19)
(0.928224 0.568518 4.52717e-19)
(0.860225 0.522474 4.79773e-19)
(0.811756 0.481791 -2.51153e-19)
(0.778357 0.448253 -3.04093e-19)
(0.751807 0.416415 7.1308e-19)
(0.691918 0.377476 -2.14862e-19)
(0.583007 0.306389 -2.56479e-19)
(0.424202 0.221933 -1.53472e-19)
(0.257274 0.133146 -7.24813e-19)
(0.113867 0.0592298 1.06102e-19)
(0.020372 0.0102002 8.81256e-19)
(0.435024 0.26102 -3.58152e-20)
(0.99832 0.569953 -4.69254e-20)
(1.23797 0.725825 2.36209e-20)
(1.29093 0.758814 -1.98628e-22)
(1.26649 0.764828 -5.50392e-20)
(1.20887 0.743878 1.15346e-19)
(1.13607 0.715628 0)
(1.0634 0.684439 1.10434e-19)
(0.986738 0.648393 -8.7078e-20)
(0.908094 0.604923 7.55046e-19)
(0.837696 0.556021 -1.09215e-19)
(0.788027 0.512549 1.24456e-19)
(0.755107 0.476689 0)
(0.717189 0.439696 -3.86128e-19)
(0.663911 0.391385 4.67879e-19)
(0.561533 0.327037 0)
(0.411852 0.235186 -3.30628e-19)
(0.249712 0.142457 9.72482e-19)
(0.110395 0.0622166 1.14975e-19)
(0.0196805 0.0109719 -1.0845e-18)
(0.432455 0.277984 -9.11096e-20)
(0.987877 0.603919 1.16897e-19)
(1.22477 0.768821 0)
(1.27692 0.804006 1.29272e-20)
(1.25164 0.809235 0)
(1.19343 0.786265 -1.48945e-19)
(1.12019 0.756206 0)
(1.04688 0.723206 0)
(0.968886 0.68503 -1.15137e-19)
(0.888158 0.638838 -7.17696e-19)
(0.816155 0.587415 -8.86394e-19)
(0.763073 0.541043 1.45573e-19)
(0.726818 0.50019 5.25313e-19)
(0.699305 0.461526 4.25299e-19)
(0.641858 0.41634 -1.50102e-18)
(0.540616 0.33717 -6.01779e-19)
(0.395208 0.246119 3.52518e-19)
(0.239573 0.147951 0)
(0.104953 0.063745 9.86674e-19)
(0.0182129 0.0110469 -1.16833e-18)
(0.430931 0.293662 1.0956e-19)
(0.978946 0.637149 -1.36395e-19)
(1.21183 0.809533 0)
(1.26256 0.846242 -1.1109e-20)
(1.23661 0.851284 5.97607e-22)
(1.17808 0.82664 0)
(1.1045 0.794856 5.55758e-20)
(1.03039 0.759941 7.64573e-20)
(0.951153 0.720164 -2.16618e-19)
(0.868622 0.67251 9.51154e-20)
(0.79281 0.61859 0)
(0.739141 0.567848 6.0285e-19)
(0.703689 0.525125 5.36476e-21)
(0.663916 0.481177 2.29422e-19)
(0.613376 0.423206 2.72493e-19)
(0.518343 0.352887 0)
(0.380639 0.253198 -5.75322e-19)
(0.228507 0.151313 1.12809e-18)
(0.098769 0.0639229 -1.19352e-18)
(0.0164044 0.0106696 2.51543e-18)
(0.429673 0.308701 0)
(0.969604 0.667667 0)
(1.19894 0.847299 -6.6367e-20)
(1.24851 0.886061 0)
(1.22181 0.890444 0)
(1.16282 0.864202 -1.23123e-19)
(1.08898 0.831053 5.68681e-20)
(1.01447 0.794816 1.76613e-20)
(0.934073 0.753552 -4.953e-20)
(0.849015 0.704048 0)
(0.771216 0.648445 -1.34956e-19)
(0.713784 0.595654 -4.91745e-19)
(0.672934 0.545995 -5.92415e-19)
(0.644994 0.497132 -2.38284e-19)
(0.59031 0.443316 2.95074e-19)
(0.496663 0.355595 -6.95436e-19)
(0.362492 0.257729 1.23799e-18)
(0.217529 0.151735 1.99485e-21)
(0.0927257 0.0631807 -1.14196e-18)
(0.0148134 0.0101996 -1.69596e-19)
(0.428698 0.323266 0)
(0.96178 0.697967 -1.11622e-19)
(1.18664 0.883166 8.15264e-20)
(1.23446 0.923155 0)
(1.20713 0.927458 0)
(1.14792 0.899963 2.46702e-19)
(1.07394 0.865483 0)
(0.998794 0.827762 0)
(0.91715 0.78538 -4.74876e-19)
(0.830552 0.73505 1.31387e-19)
(0.7492 0.677607 -1.19649e-18)
(0.689416 0.619972 0)
(0.649506 0.568688 -6.4326e-19)
(0.607529 0.513838 1.0583e-20)
(0.559824 0.442302 -9.48527e-19)
(0.473757 0.364249 3.7413e-19)
(0.348612 0.256875 1.42514e-21)
(0.208003 0.149144 -1.29971e-18)
(0.0881484 0.0610602 6.14103e-19)
(0.0125048 0.00859331 1.81412e-19)
(0.427698 0.337527 0)
(0.953564 0.72561 -1.55236e-19)
(1.17451 0.916389 8.61184e-20)
(1.22097 0.958149 1.11458e-19)
(1.19299 0.961854 -1.17502e-20)
(1.13346 0.933081 2.47147e-20)
(1.05937 0.897594 -3.3913e-20)
(0.983948 0.858965 4.551e-19)
(0.901285 0.815571 5.07983e-19)
(0.812334 0.76425 1.00087e-18)
(0.728278 0.705845 9.94121e-19)
(0.663697 0.647041 1.74774e-19)
(0.616521 0.588228 9.25479e-19)
(0.585814 0.524862 5.71886e-19)
(0.534005 0.457524 6.80917e-19)
(0.451143 0.356585 -4.09398e-19)
(0.330908 0.250474 -4.74876e-19)
(0.202549 0.141673 5.57057e-19)
(0.0900079 0.0643522 -3.29971e-19)
(0.0172668 0.0155738 5.8724e-19)
(0.426908 0.351304 2.19033e-19)
(0.946766 0.753152 2.43043e-19)
(1.16302 0.948077 5.01459e-20)
(1.20767 0.990658 1.59783e-20)
(1.17915 0.994296 4.22621e-21)
(1.1195 0.964601 -6.84104e-20)
(1.04541 0.928139 3.26351e-20)
(0.969451 0.88839 -1.99149e-20)
(0.885616 0.844259 -5.91047e-19)
(0.795303 0.792621 -1.08616e-18)
(0.707979 0.733029 6.90291e-20)
(0.639778 0.670434 0)
(0.592195 0.60978 0)
(0.544618 0.540999 -2.98182e-19)
(0.498182 0.448398 -1.11444e-18)
(0.425302 0.354589 8.81906e-19)
(0.324392 0.231148 5.19118e-19)
(0.210671 0.122796 0)
(0.104621 0.0376826 1.05682e-18)
(0.0110691 -0.00998616 -6.26789e-19)
(0.426054 0.364566 -1.16149e-19)
(0.939417 0.777864 1.02789e-19)
(1.1517 0.977281 -1.2086e-19)
(1.19503 1.02135 -9.78221e-20)
(1.16599 1.0244 -1.442e-20)
(1.10614 0.993668 -2.18315e-20)
(1.03205 0.956481 0)
(0.955921 0.916192 -5.71864e-19)
(0.871304 0.871433 7.22772e-20)
(0.778868 0.819331 0)
(0.688786 0.759893 0)
(0.614964 0.697609 1.11562e-19)
(0.557427 0.629417 1.50035e-19)
(0.51847 0.549373 -3.2205e-19)
(0.465912 0.461505 7.99903e-19)
(0.393874 0.331441 -9.60968e-19)
(0.300076 0.207574 -1.11124e-18)
(0.222813 0.105945 9.84481e-19)
(0.164584 0.0826353 -3.75938e-19)
(0.112838 0.078751 2.18751e-19)
(0.425303 0.377003 1.4598e-19)
(0.933322 0.802588 0)
(1.14104 1.00522 0)
(1.18268 1.04974 -2.68606e-20)
(1.15321 1.05272 2.17462e-20)
(1.09332 1.02131 -2.04692e-20)
(1.01933 0.983444 1.45641e-19)
(0.942822 0.942364 5.8547e-19)
(0.857279 0.897253 1.07213e-18)
(0.763722 0.845287 -8.1741e-20)
(0.670651 0.785522 1.68999e-19)
(0.592479 0.720313 -9.97746e-19)
(0.533058 0.651673 -9.94994e-19)
(0.472531 0.56896 -1.72889e-19)
(0.416211 0.447391 0)
(0.353695 0.32762 -6.22214e-21)
(0.277027 0.137754 6.12562e-19)
(0.255757 0.00425348 -1.0303e-18)
(0.21994 -0.0952937 7.83225e-19)
(0.0861444 -0.0970489 6.48937e-19)
(0.424303 0.389085 -3.22639e-19)
(0.926469 0.824428 -1.45626e-19)
(1.13044 1.03089 6.94586e-21)
(1.1709 1.07678 5.68261e-20)
(1.14098 1.07928 0)
(1.08095 1.04707 -6.80151e-20)
(1.00703 1.00878 -2.09765e-19)
(0.930459 0.967589 -1.8191e-21)
(0.844336 0.922314 -5.61733e-19)
(0.748712 0.870247 -8.02144e-20)
(0.652637 0.811359 7.45053e-20)
(0.568727 0.748721 8.76516e-19)
(0.496218 0.674724 9.709e-19)
(0.440925 0.578088 1.68451e-19)
(0.376209 0.469723 8.60675e-19)
(0.28609 0.294666 0)
(0.164301 0.122989 0)
(-0.00130075 0.195748 7.07774e-19)
(-0.0781126 0.630078 -2.89176e-20)
(0.00788165 1.53895 -8.73475e-19)
(0.42348 0.400428 1.78342e-19)
(0.920913 0.846784 4.08391e-19)
(1.12047 1.05586 -5.60175e-19)
(1.1593 1.1021 2.80795e-19)
(1.12894 1.10472 -7.61257e-21)
(1.06886 1.07223 -2.06253e-20)
(0.995028 1.03376 0)
(0.918126 0.992307 -4.87849e-19)
(0.831118 0.947335 0)
(0.734435 0.896275 1.12942e-18)
(0.635338 0.838455 -9.07635e-20)
(0.54669 0.774236 1.01772e-19)
(0.472289 0.702535 1.11262e-18)
(0.38716 0.613157 -3.6547e-19)
(0.284575 0.46113 -4.37672e-19)
(0.192775 0.348758 0)
(0.0835602 0.489778 0)
(0.0255475 1.33996 0)
(0.0720934 2.46597 -4.01942e-19)
(0.0992056 2.91206 -2.4766e-19)
(0.422134 0.411222 0)
(0.914467 0.866047 0)
(1.11053 1.07864 2.044e-19)
(1.14831 1.12635 -2.28037e-19)
(1.11749 1.12873 1.01165e-19)
(1.05727 1.09582 2.78892e-20)
(0.983521 1.05733 2.7117e-20)
(0.906599 1.01633 -2.11125e-20)
(0.819139 0.971864 7.9265e-20)
(0.720464 0.921399 -1.29617e-18)
(0.618357 0.865092 1.64464e-19)
(0.524123 0.805748 8.76592e-19)
(0.433102 0.734205 -1.1083e-18)
(0.352116 0.6253 -1.21891e-18)
(0.266385 0.520786 4.09982e-19)
(0.187211 0.658613 0)
(0.119396 1.567 5.65046e-19)
(0.121723 2.69575 6.16885e-19)
(0.129662 3.08879 -6.89534e-19)
(0.121626 3.22261 7.38631e-19)
(0.421029 0.421757 0)
(0.909394 0.886103 3.61381e-19)
(1.10129 1.10094 -5.12257e-20)
(1.13755 1.14891 3.20124e-19)
(1.10631 1.15162 -1.0619e-19)
(1.04605 1.11876 0)
(0.972405 1.08049 0)
(0.895193 1.03968 0)
(0.806971 0.996108 4.46088e-19)
(0.707588 0.947584 5.97852e-20)
(0.602748 0.893976 0)
(0.503862 0.834699 -8.71621e-19)
(0.416896 0.766676 0)
(0.300587 0.673237 8.72217e-19)
(0.203382 0.733177 -5.88738e-19)
(0.151651 1.46338 -4.7317e-19)
(0.154373 2.68321 -1.10153e-18)
(0.176725 3.12663 -5.80322e-19)
(0.167504 3.26673 -7.86026e-19)
(0.15389 3.30696 5.86334e-19)
(0.41951 0.431258 -1.26335e-19)
(0.9033 0.902829 1.52874e-20)
(1.09203 1.12103 -5.70471e-20)
(1.12743 1.17061 -2.47406e-19)
(1.09575 1.1733 0)
(1.03539 1.1403 0)
(0.961814 1.1023 0)
(0.884653 1.06235 3.4119e-20)
(0.796208 1.01983 -5.63932e-19)
(0.695088 0.972541 0)
(0.587707 0.92072 0)
(0.485999 0.867409 0)
(0.375285 0.799303 0)
(0.306665 0.765289 6.37986e-19)
(0.269608 1.15667 1.56799e-18)
(0.245183 2.38992 4.63162e-19)
(0.260008 3.0828 9.31747e-19)
(0.254626 3.28173 -7.14176e-19)
(0.206008 3.3473 2.63234e-19)
(0.173779 3.36014 0)
(0.418241 0.440554 1.30085e-19)
(0.898522 0.921276 -8.02953e-19)
(1.08328 1.14153 -2.15703e-19)
(1.1173 1.19129 -4.74461e-20)
(1.08522 1.19447 2.46682e-20)
(1.02486 1.16177 -8.66003e-20)
(0.951422 1.12427 -2.63471e-21)
(0.874062 1.0848 -3.79457e-19)
(0.785041 1.04362 0)
(0.683711 0.999011 -7.58714e-20)
(0.574686 0.951373 6.90196e-20)
(0.468946 0.898896 0)
(0.377044 0.844422 0)
(0.320287 0.954134 -7.98621e-19)
(0.270732 1.85474 9.8974e-20)
(0.267209 2.94415 -3.47934e-19)
(0.290582 3.28559 7.2712e-19)
(0.262575 3.38392 5.25615e-19)
(0.197391 3.40836 -7.13645e-19)
(0.172763 3.41811 3.53377e-19)
(0.416223 0.45008 2.55773e-19)
(0.891857 0.93733 7.83052e-19)
(1.0736 1.16126 2.59036e-19)
(1.10699 1.21287 0)
(1.07455 1.21607 0)
(1.01417 1.18323 6.7497e-20)
(0.940924 1.14602 6.64574e-20)
(0.863846 1.10758 3.38275e-19)
(0.775004 1.06768 2.20495e-20)
(0.672405 1.02465 9.69925e-19)
(0.561917 0.978732 -1.14723e-18)
(0.450217 0.928364 0)
(0.373699 0.917752 0)
(0.333687 1.32447 -5.4437e-19)
(0.33304 2.4914 -6.54414e-19)
(0.376574 3.19702 0)
(0.401125 3.36713 -7.3549e-19)
(0.330966 3.42982 4.92945e-20)
(0.261994 3.47481 3.44226e-19)
(0.239646 3.50014 -1.13314e-19)
(0.414292 0.459936 -4.86721e-19)
(0.886288 0.957617 -3.7609e-19)
(1.06367 1.18353 0)
(1.09565 1.23488 0)
(1.06293 1.23852 0)
(1.00272 1.20588 0)
(0.929839 1.16912 -7.85342e-20)
(0.852831 1.13105 2.96723e-19)
(0.763737 1.0925 0)
(0.661806 1.05242 -8.83104e-19)
(0.551475 1.01126 2.0576e-18)
(0.442438 0.972772 8.40427e-20)
(0.394092 1.0454 1.12346e-19)
(0.385761 1.74802 8.87355e-19)
(0.398686 2.90164 -4.77384e-19)
(0.43729 3.3181 0)
(0.42063 3.44056 2.06258e-19)
(0.335091 3.52912 9.15051e-20)
(0.260223 3.59285 1.49055e-19)
(0.184858 3.57231 -1.28394e-20)
(0.411291 0.470316 2.31604e-19)
(0.877805 0.974801 -3.84608e-19)
(1.05213 1.20505 0)
(1.08371 1.25846 -6.94491e-20)
(1.05074 1.26192 2.38417e-19)
(0.990704 1.22886 0)
(0.918285 1.19212 0)
(0.841948 1.15497 -5.14899e-19)
(0.753628 1.1176 -5.6571e-20)
(0.651258 1.07908 8.65806e-19)
(0.536918 1.0388 -9.779e-19)
(0.446506 1.01644 5.71187e-19)
(0.4076 1.2242 0)
(0.420701 2.18732 -4.70531e-19)
(0.464233 3.14504 3.08584e-19)
(0.52811 3.42103 1.93611e-19)
(0.519696 3.51695 0)
(0.457086 3.59825 -3.73245e-20)