/*--------------------------------*- C++ -*----------------------------------*\
| =========                 |                                                 |
| \\      /  F ield         | OpenFOAM: The Open Source CFD Toolbox           |
|  \\    /   O peration     | Version:  4.0                                   |
|   \\  /    A nd           | Web:      www.OpenFOAM.org                      |
|    \\/     M anipulation  |                                                 |
\*---------------------------------------------------------------------------*/
FoamFile
{
    version     2.0;
    format      ascii;
    class       volScalarField;
    location    "61";
    object      p;
}
// * * * * * * * * * * * * * * * * * * * * * * * * * * * * * * * * * * * * * //

dimensions      [0 2 -2 0 0 0 0];

internalField   nonuniform List<scalar> 
918
(
0.556737
1.18507
0.00116896
0.556169
-0.012648
1.15208
-0.50897
0.672448
0.536929
-0.111077
-0.0454685
0.537177
1.01279
0.779819
-1.12436
-0.0100414
0.651669
-0.382017
0.536029
-0.0558773
0.699053
0.543475
0.546501
0.53708
0.599708
0.754295
0.894018
0.0218561
0.00915682
0.00472199
-0.0120331
-0.0393099
-0.0330788
1.03572
1.08681
1.10951
0.504753
0.332424
-0.374167
-0.446321
-0.435424
-0.547345
0.668229
0.666325
-0.207203
0.675888
0.679061
0.523977
0.536297
0.537207
0.538236
0.537216
0.538598
0.404188
-0.112426
-0.144043
-0.0920584
-0.0835488
0.0544123
-0.046675
-0.0487298
-0.0439862
-0.0434868
0.454008
0.531685
0.528552
0.542214
0.552947
1.12462
1.09653
1.12268
1.03639
1.05286
0.990762
0.963443
0.799678
0.82152
0.766292
0.752993
-1.55678
-2.5091
-0.533983
-0.283006
-0.0105643
-0.00736193
-0.00127375
0.648361
0.64927
0.651226
0.654327
1.08028
-0.379027
-0.480133
0.536168
0.534976
0.543306
0.544006
0.540024
0.539115
-0.0468463
-0.0434952
-0.0472613
-0.0521903
-0.0510266
0.687796
0.688203
0.53761
0.534616
0.560147
0.580382
0.57091
0.27832
0.608237
0.623574
0.585768
0.747489
0.740929
0.749879
0.867553
0.831838
0.930982
0.954053
0.0165869
3.39242e-05
-0.0149591
-0.0194584
-0.0183008
0.500594
0.493148
0.52045
0.50818
0.510682
0.248993
0.115425
0.41749
0.442485
-0.292413
-0.357599
-0.429935
-0.459546
-0.567455
0.611536
0.662899
0.66043
-0.218578
-0.146442
-0.278882
-0.0731506
-0.135801
0.514253
0.521258
0.516261
0.531801
0.526271
0.528233
0.540564
0.537636
0.539195
0.466498
0.590242
0.330295
0.294976
-0.2447
-0.159321
-0.245337
-0.0715064
-0.0664868
0.0682659
0.093695
0.0413903
0.0297493
-0.0602385
-0.0516225
-0.0558566
-0.0426759
-0.0432546
0.446785
0.435619
0.466688
0.474234
0.519003
0.520439
0.524994
0.522911
0.914146
0.936499
0.944163
0.917927
-3.49982
-6.28359
0.0419337
0.178464
-0.00680105
-0.00923887
0.00207338
-0.00570979
0.000463219
-0.00187938
-0.00594965
-0.00736657
-0.0022892
-0.000996058
0.642088
0.643058
1.00212
1.00851
0.978231
0.930935
0.524367
0.526443
0.531949
0.527828
-0.042339
-0.0430611
-0.0419647
0.682035
0.686599
0.684804
0.240012
0.150671
0.329186
0.358186
0.635573
0.624031
0.633995
0.646139
0.683602
0.96145
0.979722
0.977906
0.986313
1.03031
1.04668
1.01211
0.480057
0.490032
0.484985
0.523557
0.521331
0.522233
0.518065
0.519375
0.517339
-0.0351908
-0.415562
0.490218
0.507344
0.492115
0.494956
0.691692
0.77028
0.654325
0.657667
0.656743
-0.00452846
-0.0628845
0.250424
0.216597
0.386492
0.422809
0.401825
0.885445
0.845824
0.895948
0.869143
0.830381
0.856081
-0.367173
-1.86806
-0.986439
0.528588
0.342609
0.430027
0.0115837
-0.00533452
-0.000791317
1.00139
1.07409
0.646076
0.820772
0.82368
0.718328
0.747834
0.805921
0.733922
0.767129
0.799447
0.778089
0.56767
0.503399
0.519331
0.839493
0.895263
0.121022
0.0602387
0.016227
0.112342
0.169487
0.143624
1.0344
0.949186
1.0195
0.534375
0.535093
-0.00451544
-0.0181506
0.539325
0.539379
-0.0119773
-0.00113899
0.412796
-0.832473
0.101897
0.527893
0.517837
0.534944
-0.0943297
0.35565
-0.0469147
0.0491082
-0.00677322
0.530962
0.465121
0.424285
0.00175548
-0.0184276
-0.0469317
-0.21441
0.532045
0.530351
0.534413
0.535359
0.536037
-0.0175425
-0.0130881
-0.00974832
-0.0445127
-0.039232
-0.049625
0.498924
0.517906
-0.170064
0.534559
0.53669
0.53651
0.52976
0.535396
0.533644
-0.00921252
-0.0147825
-0.0171986
0.220927
0.351728
0.652425
0.740213
0.623745
0.399841
0.164658
0.555752
0.618919
0.524723
0.67839
0.658955
0.673044
0.167493
0.0172777
0.175842
0.117337
0.525753
0.524462
0.516092
0.513062
0.529811
0.527922
0.532483
0.529498
0.53245
0.533833
-0.0509364
-0.0777682
-0.0878622
-0.156687
0.310366
0.571903
0.25369
0.283881
0.14241
-0.0407799
-0.0406941
-0.0454522
-0.0516635
0.0021256
-0.021776
0.0440334
0.0445844
0.0167037
-0.00936124
-0.00571983
-0.0166355
-0.0124261
0.524599
0.52418
0.528056
0.536665
0.474751
0.478522
0.443425
0.464159
0.449441
0.388299
0.423481
0.398741
-0.00430878
0.00459798
-0.00150253
-0.0159924
-0.0127608
-0.031582
-0.0283183
-0.0245048
-0.020196
-0.0267621
-0.0416526
-0.0436435
-0.172049
-0.287206
0.988717
0.910457
0.136328
0.5212
0.527652
0.524415
0.529323
0.532451
0.533258
0.530972
0.527523
0.518233
0.519754
0.516607
0.517542
-0.101777
-0.242371
-0.0705585
-0.144031
0.143969
0.627106
0.363629
0.299642
0.294727
0.522657
0.917116
0.701487
0.676131
0.684523
-0.342876
0.0468755
-0.278817
0.336407
0.163834
0.652282
0.700503
0.721824
0.670476
0.623784
-0.103048
0.555352
-0.070444
-0.0189358
0.182028
0.0596187
0.670062
0.6453
0.650036
0.664927
0.6808
0.650725
0.636707
0.632026
0.659894
0.661759
0.486981
0.25174
0.203109
0.16455
0.641821
0.521713
0.574305
0.492475
0.520957
0.523557
0.522193
0.503747
0.511323
0.506851
0.513399
0.516895
0.525526
0.525982
0.521272
0.523404
-0.0567784
-0.0611408
-0.0299422
-0.13746
-0.131328
-0.193671
-0.0627829
0.0753708
0.0359206
0.237051
0.341532
0.0525141
-0.0583653
-0.0309109
0.0111585
0.180062
0.20758
0.0743947
0.162538
0.152689
0.134829
0.237127
0.240979
-0.0256011
-0.0290525
-0.0325706
-0.0344418
0.0200953
0.0905699
0.100321
-0.00362386
-0.00968246
-0.0387338
-0.0393951
-0.0215576
-0.0265259
-0.0222941
0.00869962
-0.0515264
-0.0185861
-0.00446008
-0.000622522
-0.0027315
-0.00837914
0.517749
0.520235
0.519851
0.525841
0.540748
0.555382
0.519357
0.496927
0.487724
0.490738
0.463628
0.473966
0.46963
0.48336
0.504483
0.514026
0.51153
0.514362
0.496612
0.498363
0.484867
0.488574
0.463375
0.444234
0.432369
-0.0409676
-0.00192831
-0.010064
-0.0362781
-0.00628181
-0.0184734
-0.00881329
0.0101847
-0.00593801
-0.00776922
-0.0182732
-0.0243673
-0.0236339
-0.0739236
0.0125022
-0.183793
-0.219596
-0.292078
0.890675
1.01472
0.810445
0.583565
0.603376
0.846498
0.9312
0.543584
0.735772
0.759028
0.586429
0.853881
0.526037
0.525639
0.523239
0.522719
0.523935
-0.00696784
0.0986648
0.0982743
0.160538
0.275807
0.387642
0.318155
0.193613
0.323942
0.326447
0.620091
0.632028
0.587305
0.61109
0.611047
0.425499
0.501065
0.553164
0.512345
0.564838
0.586052
0.540425
0.57307
0.523231
0.478261
0.474177
0.424609
0.444251
0.420182
0.403205
0.514989
0.492946
0.503319
0.493873
0.513065
0.541003
0.537276
0.561637
0.576437
0.497759
0.452798
0.462202
0.49245
0.453438
0.4687
0.48524
0.231007
0.132743
0.215721
-0.0705726
0.00176945
-0.0112152
-0.0596091
-0.00920735
0.275284
-0.416765
-0.393021
-1.0209
0.501778
0.953268
0.608492
0.581682
0.679001
0.661743
0.666967
0.683348
0.685817
0.630376
0.641272
0.645654
0.605599
0.627194
0.646197
0.642876
0.524824
0.385298
0.383329
0.332677
0.202827
0.242105
0.43961
0.363177
0.288043
0.288508
0.457648
0.344464
0.414085
0.448352
0.379854
0.334275
0.537118
0.602338
0.595594
0.569507
0.482427
0.495534
0.519407
0.553511
0.578512
0.60898
0.512824
0.518743
0.519976
0.517455
0.51473
0.517787
0.518029
0.520575
0.521225
0.524215
0.523262
-0.0464539
-0.0340678
-0.0475759
-0.0560465
-0.0203159
-0.0228218
0.0212736
0.00613834
-0.0131705
-0.00773657
-0.0317448
-0.0361129
-0.031865
-0.0232658
0.0997557
0.112502
0.096102
0.0563283
0.250566
0.380114
0.454628
0.329865
0.222985
0.246016
0.265901
-0.0122048
0.0140781
0.00102918
0.0404705
0.0323422
-0.0336497
-0.0373188
-0.0348099
-0.0278162
-0.0183721
-0.0350526
-0.0390828
-0.029987
-0.0350354
-0.0376282
-0.0418642
0.499187
0.492649
0.494365
0.488166
0.486881
0.50132
0.505583
0.507555
0.513085
0.515514
0.50539
0.51117
0.515172
-0.00935548
-0.0323352
-0.0362064
-0.0256053
-0.0282596
-0.0262801
-0.027671
0.123241
0.0535268
0.0579718
0.00988495
-0.121585
-0.0638317
0.490898
0.489754
0.479352
0.720558
0.569854
0.49037
0.587387
0.693106
0.275694
0.472558
0.307445
0.888245
0.784478
0.930891
0.542073
0.244351
0.406578
0.45072
0.263036
0.33825
0.325651
0.214637
0.245548
0.282645
0.381778
0.26449
0.241009
-0.00194391
0.188375
0.300684
0.282525
0.407354
0.468247
0.265333
0.184812
0.14004
0.604976
0.624438
0.638333
0.610709
0.631647
0.579251
0.570484
0.586376
0.594747
0.589852
-0.748974
-0.455491
-1.40183
-0.723046
-0.268742
0.532079
0.50244
0.768542
0.646914
0.687367
0.672653
0.631635
0.600755
0.622879
0.64716
0.344178
0.455096
0.430329
0.435609
0.337703
0.26845
0.566402
0.562674
0.595182
0.61834
0.590628
0.619879
0.510651
0.510373
0.509833
0.506081
0.504354
0.506723
0.057586
0.0255513
0.063292
0.0442148
0.0209823
0.00847897
-0.00625496
-0.0161581
-0.0234414
-0.0233532
-0.00951406
-0.00542085
0.170788
0.108789
0.0289627
0.0584773
-0.00228142
-0.0711031
-0.0898062
0.0148821
0.111248
0.101426
0.4051
0.654913
0.474884
0.642403
0.484765
0.540544
0.467912
0.459316
0.484511
0.378864
0.459375
0.244716
-0.262609
-0.17165
0.791795
0.80383
0.580408
0.403605
0.172175
0.352449
0.543244
0.474357
0.510299
0.579405
0.567353
0.0251079
0.0843558
0.366498
0.59341
0.238595
0.229715
0.22343
0.405894
0.32523
)
;

boundaryField
{
    wall-4
    {
        type            zeroGradient;
    }
    velocity-inlet-5
    {
        type            zeroGradient;
    }
    velocity-inlet-6
    {
        type            zeroGradient;
    }
    pressure-outlet-7
    {
        type            fixedValue;
        value           uniform 0;
    }
    wall-8
    {
        type            zeroGradient;
    }
    frontAndBackPlanes
    {
        type            empty;
    }
}


// ************************************************************************* //
