/*--------------------------------*- C++ -*----------------------------------*\
| =========                 |                                                 |
| \\      /  F ield         | OpenFOAM: The Open Source CFD Toolbox           |
|  \\    /   O peration     | Version:  4.0                                   |
|   \\  /    A nd           | Web:      www.OpenFOAM.org                      |
|    \\/     M anipulation  |                                                 |
\*---------------------------------------------------------------------------*/
FoamFile
{
    version     2.0;
    format      ascii;
    class       surfaceScalarField;
    location    "61";
    object      phi;
}
// * * * * * * * * * * * * * * * * * * * * * * * * * * * * * * * * * * * * * //

dimensions      [0 3 -1 0 0 0 0];

internalField   nonuniform List<scalar> 
1300
(
3.75095
5.62643
-3.3272
3.75095
-7.74964
5.62643
-4.38076
4.38076
-0.474192
0.474192
1.87639
1.87456
-2.69745
2.69745
-2.18196
2.18196
-2.53137
2.53137
-5.24646
5.24646
-5.06877
5.06877
4.65649
-4.65649
-6.2973
6.2973
-0.957472
0.957472
-3.66689
3.66689
3.16964
-3.16964
-2.12597
2.12597
-0.0198847
0.0198847
-0.553479
4.30443
3.19747
3.19747
-2.01372
2.01372
-4.86817
4.86817
6.2181
-6.2181
5.32362
-5.32362
-1.99642
-2.44972
1.81392
-11.516
-5.93571
-5.93571
-8.44039
8.44039
-2.81396
2.81247
2.9459
-2.9459
-1.77488
1.77488
-4.33926
-0.0415009
-4.33926
4.35226
0.0285043
4.35226
-0.540803
0.0666116
-0.540803
3.97567
-3.97567
0.388024
0.0861675
0.388024
3.06529
-3.06529
-1.87711
3.7535
1.87384
-1.87189
6.17632
-1.87906
3.75362
-6.01595
6.01595
-2.9238
0.226352
-2.9238
2.51033
0.187117
2.51033
-6.84239
6.84239
-2.21621
0.0342516
-2.21621
2.15207
0.0298818
2.15207
2.87969
-2.87969
-2.64258
0.111215
-2.64258
2.39775
0.13362
2.39775
0.353526
5.2729
-5.97996
8.79243
-5.2729
0.0264406
5.20838
0.0380808
5.20838
-5.10588
0.0371172
-5.10588
5.01219
0.0565741
5.01219
4.74263
-0.0861375
4.74263
-4.77421
0.117718
-4.77421
-3.3686
-4.05261
-6.44838
0.15108
-6.44838
-1.04396
0.0864879
-1.04396
0.846966
0.110506
0.846966
-3.68267
3.68267
-4.09162
0.424731
-4.09162
3.12401
0.0456211
3.12401
1.86849
1.88246
5.61945
-5.61945
2.44981
-2.10452
-0.0214492
-2.10452
-2.1787
-3.14492
2.1787
-0.0527255
-0.252115
0.23223
-0.252115
3.15941
0.0380594
3.15941
2.23716
0.160584
-2.23716
0.223446
3.26994
-3.26994
1.33904
0.674678
1.33904
-5.56453
5.56453
4.95557
0.056623
-4.95557
0.0874005
6.15644
0.0616663
6.15644
-6.19951
-0.0185969
-6.19951
2.53098
-4.9807
-2.60908
6.11563
0.181671
-6.11563
0.17992
2.91761
0.0282903
2.91761
-2.91976
2.91976
-2.98451
0.0386004
-2.98451
-2.17394
0.399059
-2.17394
1.47608
0.298798
1.47608
-4.23687
-0.102392
-4.23687
-4.24305
0.151435
4.24305
0.109207
1.12766
-1.12766
-0.64752
0.106717
-0.64752
-4.09983
-0.137046
4.09983
-0.124158
-3.86618
-0.109488
-3.86618
-3.0244
0.0398978
3.0244
0.0408821
3.11284
0.0465707
-3.11284
0.0475586
-1.87082
3.75328
-1.88013
3.75397
-5.63549
-0.380456
-5.63549
6.32617
-0.310215
6.32617
3.3087
0.358182
-3.3087
0.384901
2.3747
0.135636
2.3747
-6.80684
-0.0355453
-6.80684
6.82537
0.0170124
6.82537
2.28001
0.0946861
-2.28001
0.0638039
2.11983
0.0322429
2.11983
2.89915
-0.0194547
2.89915
-2.87426
-0.00543289
-2.87426
2.79684
-2.79684
2.72443
0.0724082
-2.72443
0.0818508
-11.1331
11.1145
-0.0352871
-11.0978
5.1731
5.1731
4.17002
0.572612
4.17002
-4.99142
0.217205
-4.99142
2.6803
-5.28938
3.07745
-6.44604
4.66712
-16.1831
4.30219
-8.3548
6.68935
-6.68935
6.57772
0.111633
-6.57772
0.129338
-1.15723
0.113265
-1.15723
-3.07962
-0.603055
-3.07962
4.32629
-0.643623
4.32629
-3.02824
3.02824
-3.07751
0.0492743
3.07751
0.0465023
2.09947
0.0203663
-2.09947
-0.00505854
0.319274
0.0687501
-0.319274
0.0671589
3.47978
-0.209834
3.47978
-3.07363
-0.196316
-3.07363
-1.25257
0.0953456
1.25257
0.0864677
-5.81487
0.250341
-5.81487
-11.1908
0.0929247
-11.1527
-6.10658
-6.10658
2.3338
11.1262
-2.89264
0.0183779
2.89264
0.0249788
2.9752
0.0530364
-2.9752
0.0554384
-2.86071
0.0638668
2.86071
0.059056
-2.54909
0.375149
-2.54909
-1.07314
1.07314
-1.23977
0.166637
1.23977
0.236307
1.39866
-0.270998
1.39866
0.746698
0.100268
-0.746698
0.0991783
-3.76966
-0.0965209
-3.76966
6.55995
-0.233788
6.55995
-2.96022
-0.113404
2.96022
-0.0610768
-0.0333289
11.1478
-5.13977
0.0338837
5.13977
-11.2095
11.2434
-3.22002
0.670935
3.22002
0.949997
5.28434
0.280183
-5.28434
0.292926
6.77424
0.0511319
-6.77424
0.0848875
-2.587
-0.492618
-2.587
-5.05279
-0.582705
5.05279
-0.726495
-11.4753
-0.203348
11.6787
-11.4187
6.01822
0.138222
-6.01822
11.3816
-1.0299
-0.0977564
1.0299
0.0432368
1.72568
-0.327029
1.72568
3.67184
-0.192059
-3.67184
-0.0978232
-6.71229
-0.0945468
6.71229
-0.15234
-2.14236
-0.444642
2.14236
-0.416672
-4.2671
4.30516
1.90923
-2.39361
-2.58709
-5.53853
1.85187
1.90141
4.30168
-10.1552
-6.0279
-9.97527
7.26212
-6.96919
-9.24664
9.1605
7.85387
-7.96336
-5.78493
5.83143
6.48278
-6.44189
1.8788
1.87471
7.9853
-7.75894
-15.6179
15.2374
7.50498
-7.47073
15.7737
-15.8093
-17.856
17.9071
-5.69521
5.80643
-6.73808
6.73265
-6.9717
6.91062
-2.83001
-3.61603
13.122
-12.9709
8.53921
-8.56066
-8.59777
9.0225
3.38257
0.922584
3.42914
-1.88217
3.76097
-1.87145
3.78068
2.70928
-5.53929
2.5801
-5.16719
4.32852
4.21068
-4.2758
-1.26273
-5.92406
5.95235
-5.81511
5.87417
9.1176
-9.1591
-1.88515
3.75986
-1.86882
3.77023
-3.42502
-2.35991
3.3794
0.922275
8.07653
5.04548
-8.2582
-1.71708
-8.02358
7.83152
-8.22282
8.0265
-0.435377
5.81939
-5.38401
4.43279
-1.5618
7.38119
5.70032
5.91752
5.86603
-5.58585
1.10316
-6.48718
-6.39978
-2.34074
2.44746
2.22475
-2.13858
6.11341
1.74046
5.98925
-5.74223
-2.22113
-5.83875
3.82072
2.01072
3.86999
4.07821
2.40457
4.11811
3.03054
-3.03589
0.00535732
-3.05657
6.08711
0.723966
-5.41648
-4.4942
4.96982
3.01548
5.15693
-5.53827
-2.22068
-5.15337
-9.5438
-6.07405
-10.1265
10.0898
5.14757
9.77961
-11.9638
11.8115
4.79049
2.7145
4.82037
-4.919
-2.55173
-4.8552
11.6413
-2.62165
-9.01965
-10.3231
-7.5329
10.306
5.46767
10.9665
6.94055
11.0514
4.42497
7.21633
-9.89263
2.35973
-3.86217
-1.83304
-3.78032
3.66246
2.14396
3.79608
-4.21679
-2.52129
-4.19842
-4.29454
-2.67716
4.31399
2.41866
-4.41502
-3.8078
4.52842
2.38219
4.03993
-10.0678
4.31486
-7.93089
-9.20104
-3.76989
-9.0717
3.50292
2.60367
-6.10659
-2.03637
8.46629
-4.25561
7.20356
-5.16924
-3.39142
-5.1743
-6.87223
-1.72554
-6.72079
-8.88118
8.38856
-9.17882
8.53519
12.535
-5.65769
-6.87732
-3.9684
-2.4735
3.92084
-0.491697
-3.71058
3.71593
0.0503917
3.83107
4.75365
4.26196
-3.88481
-1.9303
-3.82937
3.82597
2.0482
3.88983
6.82956
2.28804
6.85806
-6.58938
-2.56972
-6.69177
9.04395
-8.64489
2.84807
-2.75273
5.38792
2.63858
-5.17808
-2.84549
6.21429
-3.21641
-2.99789
-12.1995
10.5326
1.66689
-4.81832
-0.385527
-0.365643
-5.48998
-3.75665
5.37227
0.545258
11.0779
7.32122
-5.51171
5.76206
6.16695
6.22357
-0.17621
5.81086
-5.13993
5.26697
-2.5644
-2.70256
5.44954
-5.58658
-1.24223
-5.49679
4.25456
0.402667
1.53732
-1.30509
-1.82546
-0.515286
-1.72628
1.32034
0.904415
1.38909
0.932833
1.51463
-2.95376
0.557347
2.39642
-2.02093
-1.58124
-3.78389
-1.13611
4.92
5.72105
2.11046
-5.62323
-0.21552
2.56838
-2.45787
-0.75502
-3.02887
2.23891
-2.99393
-3.67372
-2.04415
5.71788
-3.36992
-0.459449
3.31689
0.553104
-3.82697
-2.09709
3.78837
0.32974
-3.12744
6.19054
-3.0631
-5.05774
2.52778
3.55933
4.53849
-4.78955
2.4474
2.34215
-1.23022
4.24501
0.911927
4.38064
-6.92565
4.70498
5.79051
3.23199
-6.14869
0.995321
-5.93033
8.54118
-7.37
-1.17118
4.1393
4.40188
7.07591
5.4591
-5.67786
12.7538
-1.20178
-6.16822
7.13211
-3.90012
4.84948
-8.7496
-10.3086
4.14036
-9.15195
10.9301
-1.77818
-3.62491
-8.33891
12.7769
-1.20691
-11.57
8.5727
-4.24372
-4.32529
8.56901
-6.86537
6.87702
-1.99014
-4.88688
-10.1099
-5.6994
10.2044
1.60707
-9.88994
12.2497
-2.67361
4.10363
0.716737
4.13587
3.28902
-5.47086
2.18184
3.57635
-5.56648
2.08626
-7.55712
-6.73428
12.0667
-5.33238
-10.5042
-9.52244
-0.98173
2.53465
9.71502
-9.4752
7.43108
2.04412
3.30149
0.588347
-3.37389
-0.406428
0.240575
4.52778
-4.76835
4.03666
4.19724
3.28698
1.24079
3.8448
2.10755
-3.86977
-0.328642
-4.16247
1.48531
-1.74381
-3.69272
5.17803
-4.06642
0.373697
-2.74768
-3.49959
6.24726
-4.58072
3.03607
3.15447
5.08427
-4.91321
1.41362
-2.39324
-2.51997
2.6528
-4.39661
1.98991
3.18812
4.3721
0.564305
5.87526
6.19139
-8.47893
0.548039
11.2369
-9.5198
2.46759
8.58383
-9.89867
0.376234
-8.69547
0.992498
-5.24811
-5.11409
5.18959
-6.91513
-3.56001
6.20548
0.652586
-6.31469
-0.406109
-6.03582
-2.84536
-6.48046
-3.04537
-6.13345
-8.72323
-1.65205
-7.07117
6.7365
-6.68328
-3.44323
7.40978
1.12542
-7.41105
7.3133
-7.48942
7.16239
0.0953169
3.62062
4.35727
1.88378
-2.3904
4.27418
-5.11531
7.40334
-8.6976
3.58229
4.17831
-6.74803
-4.51929
5.02424
4.01971
5.32304
8.89111
-10.364
1.47288
-10.6636
11.9967
-1.33311
-16.4267
5.76308
-7.53561
2.46164
0.386436
2.5749
0.551619
2.49969
-3.0513
-2.20111
-2.11464
-2.42772
-3.4649
5.89261
1.10589
-3.51746
2.41157
-3.57039
4.67627
-0.194203
-3.32325
5.28311
-2.78343
5.66955
-3.76459
1.90496
3.43087
5.75097
-2.3201
4.3938
-1.75522
1.91659
-4.23669
-1.54831
-2.96321
5.10717
-3.28406
3.65775
-0.338817
3.99657
-4.05794
0.841535
-0.770958
3.42628
3.64973
4.31114
-3.07035
2.92344
-4.67865
-1.31325
-4.11435
-0.926226
-0.266756
-3.71008
3.97684
5.98952
-6.25628
-5.23724
9.5322
-4.29496
7.69612
-5.38399
-2.31213
-4.25523
-4.38966
3.88008
1.93078
9.6269
0.209581
-5.59357
-4.93035
-3.98035
3.12331
2.14366
-1.78494
3.45183
2.15058
-0.613263
0.449895
0.939193
1.78897
-1.33907
0.298734
1.49023
-1.00635
1.77707
0.791315
-1.87733
0.151055
-1.30505
3.54396
1.09137
-1.99578
0.656711
0.989157
-3.55356
5.01592
-2.65633
-2.35959
6.00507
1.14201
-3.79834
4.35478
-3.95211
2.37494
-3.51105
-1.4234
-5.37551
-3.63505
-2.52847
4.94005
-3.36414
5.4746
1.26632
-5.25908
6.5254
-3.71609
1.67194
-3.06865
3.85997
-0.960183
-2.10847
2.89712
2.82076
-3.04993
0.0210669
-0.152814
2.4031
-2.55591
-0.590829
-2.61176
-4.57318
4.90292
-2.10556
4.55296
2.16862
-1.91655
6.46951
1.80928
-3.72583
-3.24847
-3.70792
-1.38368
3.15481
-0.599738
-4.25546
-5.48662
4.16078
0.219867
-7.02404
7.83505
-0.811011
-4.00856
-0.696415
4.83571
-6.05204
0.48556
-3.96578
3.86927
4.7812
5.00106
-11.354
-0.215971
-6.20641
1.12469
-7.33109
5.52657
-3.54317
7.68353
-10.336
6.8928
-9.21061
6.51235
-0.818747
6.25194
-4.0701
2.7677
-8.4671
-6.86003
5.48171
-2.76721
6.19845
-3.12819
9.32664
-5.8018
5.26859
4.05805
-1.01261
-4.16169
-5.26314
4.25053
0.00544453
4.14132
4.97965
-2.8721
4.65101
2.26688
-4.66012
-2.12972
-6.49462
1.8345
-3.34014
-1.92016
3.75465
3.16411
3.75246
1.23469
-3.34603
7.18501
-8.16674
-1.85263
-3.26146
5.24802
-0.997484
3.39151
-6.65297
-1.8566
4.8044
-0.784111
-4.02028
0.853298
-4.41331
1.6691
-6.08241
5.24603
-5.65214
2.22193
-9.75753
-5.18913
-5.14589
-2.25887
-5.23055
-7.57483
5.31597
-1.81175
5.50155
-8.51328
7.72917
-3.48346
8.79942
-5.42975
-1.0507
5.84643
1.31596
10.1154
0.207734
-4.72702
-1.90788
3.86613
-1.95825
1.21542
-3.50235
0.363782
2.48909
3.51599
-6.74364
-0.00439043
-4.73141
-3.91803
7.93774
5.61417
11.6037
1.2397
9.11992
-1.18218
10.3596
4.14086
4.37717
-2.99494
4.46782
0.981895
4.56419
-0.915414
2.82037
1.65949
1.74598
0.711899
2.3051
1.34463
3.14664
0.0953319
-2.01931
4.62326
-8.60361
-0.970309
-8.031
1.1295
5.71078
-4.58128
2.97909
-0.835436
1.02085
-0.0654817
-1.31644
1.38192
-2.76804
-1.9297
-0.439471
-1.68027
2.33698
1.86369
-1.89751
-0.870536
0.359064
-3.99412
3.15198
-3.13091
-0.310157
6.21524
-2.81791
0.261992
-1.14597
-2.34977
-2.86505
2.714
6.17604
0.293471
3.11294
5.19639
3.09931
0.227202
3.89973
-5.67791
-3.65739
-5.89388
-0.367313
4.4684
1.74965
7.96536
5.8077
4.81022
-1.84275
-10.0095
6.52669
-2.05887
5.19359
-1.1733
-4.90911
5.04036
2.36298
-5.69295
0.0408088
-4.8683
-6.92717
-0.513695
8.24287
-9.60169
8.55099
5.70563
1.36555
-4.40684
-0.739051
4.2402
0.136964
10.4966
-1.1281
-6.73826
7.86636
-4.58268
3.61237
0.764255
2.68757
2.14618
1.31074
-5.42752
-10.0088
-2.03034
-1.52322
-4.38993
0.530067
-2.39376
6.227
-2.61463
3.91487
5.25173
6.27258
-2.13607
-4.12021
6.43103
-2.51616
3.75643
)
;

boundaryField
{
    wall-4
    {
        type            calculated;
        value           uniform 0;
    }
    velocity-inlet-5
    {
        type            calculated;
        value           uniform -3.75095;
    }
    velocity-inlet-6
    {
        type            calculated;
        value           uniform -5.62643;
    }
    pressure-outlet-7
    {
        type            calculated;
        value           nonuniform List<scalar> 8(3.3272 7.74964 4.44614 9.70205 7.4212 5.14006 5.75775 8.96931);
    }
    wall-8
    {
        type            calculated;
        value           uniform 0;
    }
    frontAndBackPlanes
    {
        type            empty;
        value           nonuniform 0();
    }
}


// ************************************************************************* //
