/*--------------------------------*- C++ -*----------------------------------*\
| =========                 |                                                 |
| \\      /  F ield         | OpenFOAM: The Open Source CFD Toolbox           |
|  \\    /   O peration     | Version:  4.0                                   |
|   \\  /    A nd           | Web:      www.OpenFOAM.org                      |
|    \\/     M anipulation  |                                                 |
\*---------------------------------------------------------------------------*/
FoamFile
{
    version     2.0;
    format      ascii;
    class       volScalarField;
    location    "47";
    object      p;
}
// * * * * * * * * * * * * * * * * * * * * * * * * * * * * * * * * * * * * * //

dimensions      [0 2 -2 0 0 0 0];

internalField   nonuniform List<scalar> 
8800
(
0.852979
0.805191
0.766499
0.737501
0.716633
0.701795
0.69119
0.683699
0.678865
0.676788
0.678034
0.682206
0.688836
0.698142
0.710913
0.728641
0.753414
0.787352
0.829899
0.888601
0.684234
0.691913
0.699383
0.702689
0.701182
0.696099
0.689605
0.683518
0.678781
0.675919
0.675618
0.678102
0.682573
0.688504
0.695263
0.701535
0.70517
0.704432
0.699007
0.690314
0.662647
0.668806
0.67293
0.67587
0.677913
0.67851
0.677393
0.675276
0.673242
0.672313
0.67325
0.67561
0.678391
0.680558
0.681154
0.679947
0.677598
0.674201
0.66964
0.665879
0.656857
0.659506
0.662254
0.664651
0.666279
0.667431
0.66816
0.668262
0.667947
0.667872
0.668596
0.669741
0.670559
0.670607
0.669984
0.668882
0.667058
0.664481
0.662074
0.66057
0.651502
0.652926
0.6547
0.656725
0.658501
0.659831
0.660806
0.661584
0.662175
0.662709
0.663327
0.663792
0.663865
0.663556
0.662841
0.661579
0.659872
0.658015
0.656703
0.655872
0.646461
0.64738
0.648616
0.650174
0.651796
0.653307
0.654574
0.655618
0.656554
0.657412
0.658061
0.65835
0.658275
0.657807
0.656904
0.655686
0.654343
0.653072
0.652244
0.651693
0.641598
0.642266
0.643223
0.644515
0.645911
0.647353
0.648772
0.650067
0.651232
0.652294
0.653065
0.653384
0.653257
0.652712
0.651875
0.650903
0.649871
0.648932
0.648341
0.647936
0.636868
0.637384
0.638161
0.639281
0.640543
0.641898
0.643319
0.644758
0.646145
0.647426
0.648369
0.648777
0.648696
0.648263
0.64762
0.646862
0.64606
0.645359
0.644918
0.644603
0.632204
0.632614
0.633263
0.634257
0.635445
0.636749
0.638164
0.639682
0.641252
0.642782
0.643947
0.644524
0.644615
0.644383
0.643947
0.643389
0.642783
0.642267
0.641936
0.64168
0.627521
0.627855
0.628415
0.629328
0.630465
0.631751
0.633195
0.6348
0.636543
0.638341
0.639796
0.640639
0.640983
0.640982
0.640757
0.640406
0.639981
0.639617
0.63937
0.639157
0.622736
0.623012
0.623511
0.624376
0.625492
0.626798
0.628307
0.630039
0.631991
0.634096
0.63592
0.637111
0.637758
0.638019
0.638023
0.637876
0.637629
0.637398
0.637217
0.637034
0.617763
0.617995
0.618453
0.619302
0.620438
0.621806
0.623423
0.625335
0.62756
0.630048
0.632325
0.633933
0.634932
0.635491
0.635746
0.635806
0.635733
0.63562
0.635494
0.635332
0.612519
0.612715
0.613154
0.614016
0.615213
0.616688
0.618467
0.620625
0.623202
0.626177
0.629004
0.631105
0.632512
0.633407
0.633941
0.634213
0.634323
0.634322
0.634242
0.634096
0.60691
0.607077
0.607514
0.608417
0.609716
0.611347
0.613355
0.61584
0.61887
0.622453
0.625947
0.628636
0.63052
0.631799
0.632645
0.633178
0.633465
0.633565
0.633524
0.633389
0.600826
0.600969
0.601417
0.602392
0.603837
0.605685
0.607995
0.610894
0.61449
0.618821
0.62313
0.626528
0.628984
0.630715
0.631916
0.632723
0.633211
0.633421
0.633416
0.633288
0.594142
0.594259
0.594732
0.595809
0.597454
0.599587
0.602287
0.605715
0.610017
0.615265
0.620565
0.624817
0.627955
0.630217
0.63183
0.632952
0.633667
0.633988
0.634018
0.633894
0.586692
0.586785
0.5873
0.588514
0.590412
0.592908
0.596107
0.600209
0.605402
0.611784
0.618284
0.623553
0.627489
0.630381
0.632491
0.633975
0.634939
0.635379
0.635443
0.635318
0.578254
0.578349
0.578914
0.580283
0.582511
0.585478
0.589316
0.594268
0.600568
0.608344
0.616294
0.62278
0.627666
0.631292
0.633995
0.635911
0.637155
0.637722
0.637819
0.637692
0.568548
0.568622
0.569275
0.57086
0.57351
0.577079
0.581723
0.587742
0.595421
0.604909
0.61461
0.622546
0.628561
0.633067
0.636459
0.638882
0.640453
0.64116
0.64129
0.641155
0.557201
0.557258
0.558005
0.5599
0.563093
0.567438
0.573116
0.580494
0.589896
0.601472
0.613284
0.622943
0.630286
0.635826
0.640013
0.64304
0.64498
0.645837
0.645999
0.645854
0.543687
0.543729
0.544621
0.54692
0.55083
0.556197
0.563232
0.57237
0.583962
0.598119
0.612429
0.62408
0.632952
0.639696
0.644822
0.648538
0.650885
0.6519
0.652088
0.651928
0.527247
0.527277
0.528382
0.531255
0.536151
0.542903
0.551744
0.563162
0.57749
0.594765
0.612039
0.626025
0.636665
0.644788
0.651
0.655504
0.658299
0.659469
0.659676
0.659498
0.506786
0.506814
0.508249
0.511972
0.51828
0.526979
0.538301
0.552751
0.570567
0.591626
0.612326
0.628923
0.641546
0.651217
0.658632
0.66404
0.667304
0.668619
0.66883
0.668629
0.480527
0.480574
0.482589
0.487705
0.496214
0.507796
0.522631
0.541118
0.563296
0.588833
0.613427
0.632917
0.647705
0.659086
0.667811
0.674181
0.677905
0.679326
0.679518
0.67929
0.445442
0.44559
0.448801
0.456495
0.468746
0.484731
0.504569
0.528355
0.555877
0.5866
0.615499
0.638097
0.655167
0.668349
0.678518
0.685845
0.689955
0.691409
0.691549
0.69129
0.395781
0.396743
0.40316
0.416175
0.43495
0.457766
0.484522
0.515027
0.548873
0.585381
0.61884
0.644622
0.66401
0.679003
0.690608
0.698787
0.703128
0.70451
0.704569
0.70428
0.322617
0.32982
0.344736
0.367733
0.396241
0.428206
0.463426
0.501679
0.542567
0.585401
0.623835
0.653122
0.675089
0.692145
0.705315
0.714335
0.718887
0.720225
0.720246
0.719991
0.243696
0.260771
0.284987
0.318606
0.357273
0.39856
0.442363
0.488624
0.537031
0.586981
0.631426
0.665202
0.69055
0.710216
0.725398
0.735356
0.73996
0.74115
0.741203
0.741071
0.177992
0.198137
0.230085
0.272657
0.320298
0.370376
0.422499
0.476604
0.532375
0.589236
0.639427
0.67741
0.705876
0.727901
0.744622
0.7551
0.759611
0.760905
0.761048
0.760995
0.124174
0.145989
0.183438
0.232412
0.287117
0.344592
0.404076
0.465382
0.528076
0.591511
0.647146
0.689056
0.720367
0.744447
0.762523
0.773819
0.779028
0.780256
0.780399
0.780388
0.0792733
0.102279
0.143514
0.197571
0.257968
0.321546
0.38734
0.455036
0.524047
0.593596
0.654319
0.699887
0.733817
0.759865
0.779366
0.791662
0.797296
0.798589
0.798792
0.798811
0.0410157
0.0647126
0.108796
0.166895
0.232067
0.300832
0.372103
0.445468
0.520215
0.595409
0.660872
0.709817
0.746162
0.773976
0.794704
0.807819
0.813901
0.815439
0.815728
0.815778
0.0073966
0.0315676
0.0779243
0.139328
0.208535
0.281803
0.357927
0.436398
0.516401
0.596846
0.666733
0.718804
0.757323
0.786666
0.808402
0.822113
0.828562
0.830446
0.830805
0.830856
-0.0230495
0.00154133
0.0497652
0.114001
0.186682
0.263889
0.344355
0.427476
0.512347
0.597723
0.671789
0.72677
0.76725
0.797935
0.820475
0.83461
0.84138
0.843487
0.843878
0.843913
-0.0512469
-0.0262655
0.0235844
0.0902265
0.165974
0.246668
0.331032
0.418409
0.507822
0.59788
0.675954
0.733717
0.776024
0.807862
0.830928
0.845358
0.852318
0.854581
0.854998
0.855013
-0.0779619
-0.0525466
-0.00119218
0.0675494
0.146016
0.229821
0.317705
0.408992
0.502657
0.597192
0.679183
0.739704
0.783793
0.816626
0.840093
0.85466
0.861747
0.864133
0.864535
0.864518
-0.103516
-0.0776603
-0.0251573
0.0456556
0.126534
0.213128
0.304201
0.399084
0.496735
0.595584
0.681478
0.744812
0.790692
0.824465
0.848292
0.862985
0.870146
0.872539
0.872943
0.872895
-0.128305
-0.101877
-0.0483085
0.0243178
0.107346
0.196445
0.290412
0.388599
0.489982
0.593005
0.682843
0.749108
0.796848
0.831569
0.85574
0.87053
0.877691
0.880034
0.880419
0.880355
-0.152444
-0.125568
-0.0708168
0.00340172
0.0883525
0.179699
0.276281
0.377496
0.482366
0.589429
0.683278
0.752642
0.802372
0.838104
0.862648
0.877501
0.884611
0.886884
0.887188
0.887077
-0.17604
-0.148613
-0.0928256
-0.0171624
0.0695164
0.16287
0.261801
0.365768
0.473878
0.584834
0.682756
0.75543
0.807351
0.844228
0.869188
0.884053
0.890985
0.893102
0.893316
0.893159
-0.199205
-0.171177
-0.114391
-0.0373981
0.0508226
0.145967
0.247
0.353449
0.464537
0.579205
0.681227
0.757443
0.811849
0.850078
0.875486
0.890247
0.896878
0.898745
0.898859
0.898672
-0.221941
-0.193233
-0.135503
-0.0572922
0.0323109
0.129031
0.231933
0.340592
0.454383
0.572533
0.678632
0.758617
0.815877
0.855791
0.881724
0.896194
0.902307
0.903838
0.903848
0.903643
-0.244086
-0.214738
-0.156104
-0.0768065
0.0140227
0.112134
0.216666
0.327278
0.443484
0.564846
0.674904
0.75885
0.819387
0.861479
0.888171
0.902148
0.907384
0.908403
0.908298
0.908092
-0.265615
-0.235661
-0.176176
-0.0958873
-0.00397887
0.0953404
0.201294
0.313591
0.431922
0.556176
0.669994
0.758008
0.822258
0.867176
0.895169
0.908612
0.912429
0.912519
0.912222
0.912068
-0.286591
-0.25596
-0.195687
-0.114499
-0.0216292
0.0787356
0.185906
0.299636
0.419793
0.546589
0.663857
0.755948
0.824282
0.872733
0.902979
0.916431
0.918409
0.916635
0.915722
0.915829
-0.306839
-0.275609
-0.214575
-0.132575
-0.0388668
0.0624032
0.170598
0.285526
0.407213
0.53618
0.656486
0.75251
0.825172
0.877741
0.911434
0.926504
0.927459
0.922957
0.919882
0.919266
-0.32645
-0.294599
-0.23286
-0.150143
-0.055724
0.0462978
0.155314
0.2712
0.394112
0.524871
0.647744
0.74742
0.8246
0.881601
0.919713
0.938868
0.941716
0.936118
0.927148
0.912296
-0.345347
-0.312917
-0.250659
-0.1674
-0.072492
0.0300825
0.139633
0.256172
0.379947
0.512019
0.636974
0.739873
0.82194
0.88343
0.925782
0.950679
0.956425
0.944779
0.925409
0.912364
-0.363353
-0.330701
-0.267778
-0.184121
-0.0888414
0.0141058
0.123784
0.240769
0.365029
0.497889
0.624272
0.729449
0.816481
0.882094
0.925073
0.94959
0.958768
0.936879
0.868548
0.837543
-0.379803
-0.349186
-0.283882
-0.199736
-0.104026
-0.00112688
0.108074
0.225219
0.349573
0.482609
0.609591
0.715891
0.806961
0.877023
0.912912
0.930886
0.924487
0.872014
0.802744
0.759992
-0.436202
-0.365472
-0.298599
-0.215318
-0.119615
-0.0170599
0.0924377
0.209243
0.333216
0.465734
0.592349
0.698652
0.789718
0.866553
0.872634
0.879347
0.834717
0.766618
0.690544
0.648098
-0.397554
-0.38132
-0.320465
-0.236863
-0.142392
-0.0399746
0.0685383
0.184704
0.307687
0.438683
0.563039
0.667222
0.750009
0.830035
0.82054
0.711523
0.608368
0.536555
0.463825
0.495653
-0.429071
-0.399428
-0.337552
-0.254708
-0.160183
-0.0579916
0.050797
0.166338
0.288277
0.417464
0.538902
0.638784
0.713138
0.755299
0.708516
0.563243
0.437483
0.347325
0.24902
0.300319
-0.453417
-0.420828
-0.357666
-0.274568
-0.179944
-0.0778368
0.0308952
0.145632
0.266218
0.393025
0.510705
0.604574
0.669947
0.678768
0.574424
0.403372
0.25204
0.134257
0.00350897
0.037012
-0.477279
-0.44313
-0.378764
-0.294751
-0.19994
-0.0979326
0.0103217
0.124142
0.243197
0.367276
0.480334
0.567201
0.617159
0.594996
0.438693
0.243675
0.054082
-0.113461
-0.3022
-0.319488
-0.500521
-0.465941
-0.400664
-0.315861
-0.220812
-0.118965
-0.0113067
0.101489
0.218775
0.339771
0.447573
0.527051
0.558462
0.500622
0.309628
0.10012
-0.116828
-0.306146
-0.548715
-0.849933
-0.524073
-0.489496
-0.423659
-0.338324
-0.24302
-0.141278
-0.0341362
0.0776172
0.193046
0.310741
0.413067
0.484206
0.495947
0.387337
0.19751
-0.0115254
-0.215501
-0.387767
-0.456335
-0.536947
-0.548866
-0.514254
-0.448105
-0.36249
-0.267069
-0.165517
-0.0589753
0.0515783
0.164857
0.278762
0.375251
0.435679
0.423044
0.280797
0.0981573
-0.0919729
-0.254208
-0.346675
-0.370622
-0.386669
-0.575224
-0.540528
-0.474174
-0.388449
-0.293092
-0.191892
-0.0861816
0.022885
0.133616
0.243124
0.33329
0.380257
0.350041
0.182023
0.00823408
-0.156803
-0.282859
-0.321671
-0.334716
-0.335997
-0.603352
-0.568485
-0.501927
-0.416188
-0.321034
-0.220408
-0.115773
-0.00851299
0.0992576
0.203824
0.286845
0.319846
0.271215
0.0907082
-0.0740907
-0.221834
-0.298057
-0.314931
-0.31625
-0.316037
-0.633301
-0.598151
-0.531382
-0.445697
-0.350905
-0.251049
-0.147751
-0.0426317
0.0617865
0.160933
0.235942
0.257522
0.173467
0.00722741
-0.14954
-0.271332
-0.307618
-0.306169
-0.305184
-0.304581
-0.66478
-0.629416
-0.562429
-0.476885
-0.382612
-0.283757
-0.182082
-0.0794482
0.0212272
0.114553
0.181433
0.187039
0.0837201
-0.0706375
-0.209265
-0.284966
-0.295046
-0.297373
-0.297952
-0.29756
-0.69721
-0.661725
-0.59481
-0.509523
-0.415963
-0.318371
-0.218615
-0.118835
-0.0222704
0.0649972
0.123673
0.114871
0.00305549
-0.137054
-0.253235
-0.283794
-0.292356
-0.293899
-0.293509
-0.293028
-0.730139
-0.694553
-0.628039
-0.543206
-0.450603
-0.354563
-0.25707
-0.160512
-0.0684616
0.0129152
0.0617958
0.0469955
-0.0706222
-0.192761
-0.284624
-0.300325
-0.291775
-0.290257
-0.289976
-0.289617
-0.762679
-0.727258
-0.661257
-0.577295
-0.485981
-0.391851
-0.296996
-0.204022
-0.116895
-0.0412172
-0.00153459
-0.0148589
-0.132496
-0.240079
-0.293327
-0.29978
-0.292936
-0.287526
-0.285484
-0.284944
-0.793224
-0.758601
-0.693501
-0.610864
-0.52131
-0.429515
-0.337725
-0.24871
-0.166778
-0.0969696
-0.0597447
-0.084224
-0.176307
-0.277997
-0.303794
-0.306483
-0.294683
-0.283675
-0.279589
-0.278141
-0.820227
-0.786624
-0.723636
-0.642756
-0.555531
-0.466582
-0.378366
-0.293726
-0.217085
-0.153638
-0.115655
-0.152985
-0.204721
-0.261073
-0.329656
-0.31031
-0.299542
-0.295287
-0.292695
-0.290867
-0.841563
-0.809737
-0.749459
-0.671509
-0.587301
-0.501869
-0.417769
-0.337982
-0.26685
-0.210271
-0.174378
-0.219338
-0.220727
-0.179892
-0.225103
-0.290193
-0.343813
-0.366035
-0.366237
-0.363158
-0.854999
-0.825871
-0.769258
-0.695177
-0.615045
-0.533941
-0.454606
-0.380126
-0.314995
-0.266008
-0.232661
-0.303808
-0.306784
-0.158548
-0.212218
-0.369125
-0.465079
-0.488541
-0.48472
-0.483959
-0.857856
-0.832771
-0.780961
-0.711896
-0.636951
-0.561168
-0.487265
-0.418563
-0.36
-0.319071
-0.288002
-0.430401
-0.643773
-0.733549
-0.678523
-0.632143
-0.592757
-0.568313
-0.55909
-0.558919
-0.848214
-0.827881
-0.782383
-0.720009
-0.651425
-0.581844
-0.514004
-0.451339
-0.39962
-0.367237
-0.352384
-0.558952
-0.928139
-1.52892
-1.45417
-0.97092
-0.691278
-0.596929
-0.571649
-0.564461
-0.82378
-0.808237
-0.771701
-0.718144
-0.65725
-0.594646
-0.533068
-0.476133
-0.430219
-0.403846
-0.405722
-0.507196
-0.655846
-0.936512
-0.984404
-0.63819
-0.435034
-0.375645
-0.365034
-0.362452
-0.786602
-0.776423
-0.749343
-0.7063
-0.654184
-0.598986
-0.543309
-0.490968
-0.447478
-0.421672
-0.40668
-0.279122
0.0632621
0.550031
0.636528
0.341668
0.026873
-0.0904796
-0.109844
-0.100739
-0.742693
-0.736912
-0.719782
-0.686991
-0.643974
-0.595445
-0.544834
-0.494743
-0.451061
-0.420965
-0.405374
-0.227813
0.0805286
0.365695
0.22562
-0.154404
-0.265289
-0.23443
-0.179637
-0.190758
-0.701059
-0.697661
-0.688831
-0.665348
-0.629571
-0.586313
-0.538812
-0.489348
-0.441532
-0.407886
-0.403236
-0.43403
-0.683756
-1.18813
-1.72396
-2.13178
-2.11101
-1.86351
-1.58713
-1.4184
-0.668772
-0.666647
-0.662102
-0.64619
-0.61582
-0.575065
-0.527927
-0.475205
-0.420693
-0.369606
-0.34512
-0.416474
-0.769168
-1.24868
-1.58421
-1.58833
-1.37637
-1.09047
-0.861558
-0.753547
-0.642347
-0.641486
-0.640059
-0.63134
-0.605659
-0.565545
-0.515389
-0.45719
-0.390856
-0.312797
-0.235281
-0.159315
-0.167868
-0.118777
0.00786097
0.2176
0.533881
0.801537
0.963202
1.02191
-0.625563
-0.625054
-0.624514
-0.62056
-0.599874
-0.558726
-0.503845
-0.43729
-0.358104
-0.261278
-0.136333
0.0392943
0.25785
0.569217
0.96138
1.41211
1.79873
2.05039
2.17336
2.21014
-0.614653
-0.614339
-0.613809
-0.612674
-0.597022
-0.555596
-0.495484
-0.42106
-0.330081
-0.218629
-0.0824507
0.0555797
0.296717
0.7179
1.26305
1.75958
2.13531
2.35137
2.44643
2.47088
-0.607874
-0.607139
-0.605394
-0.604481
-0.595694
-0.557715
-0.492876
-0.410673
-0.312378
-0.197923
-0.0687144
0.0695232
0.245087
0.643562
1.11549
1.54402
1.85614
2.02745
2.09946
2.11667
-0.613546
-0.610617
-0.604927
-0.603202
-0.602966
-0.569033
-0.496279
-0.404868
-0.302585
-0.187824
-0.0698744
0.050789
0.173092
0.459595
0.829976
1.14127
1.37295
1.49745
1.54883
1.56039
-0.646726
-0.643898
-0.643221
-0.6468
-0.646644
-0.595423
-0.502914
-0.398536
-0.292557
-0.18155
-0.0778288
0.0185729
0.107383
0.300226
0.552555
0.766014
0.921441
1.00494
1.0392
1.04607
-0.697547
-0.703948
-0.719502
-0.727155
-0.705939
-0.62022
-0.500563
-0.384012
-0.277902
-0.176375
-0.0908725
-0.017979
0.0436468
0.180345
0.347102
0.482971
0.579528
0.630291
0.650553
0.654095
-0.684326
-0.696847
-0.717077
-0.723199
-0.68928
-0.588118
-0.463832
-0.351311
-0.255114
-0.169589
-0.102898
-0.0525373
-0.0102417
0.0801352
0.191005
0.280075
0.337461
0.366697
0.379201
0.38086
-0.529393
-0.541685
-0.557918
-0.562063
-0.532872
-0.459453
-0.374849
-0.292848
-0.219325
-0.154242
-0.106133
-0.0751366
-0.0490614
0.0205257
0.0905635
0.142845
0.177405
0.195258
0.202286
0.202726
-0.291696
-0.297848
-0.307551
-0.315575
-0.309975
-0.287509
-0.254118
-0.214293
-0.172164
-0.130261
-0.101611
-0.0895575
-0.0814223
-0.0285252
0.0259336
0.0621979
0.0814647
0.0897257
0.0926009
0.0925882
-0.0867434
-0.0896738
-0.0973742
-0.111029
-0.127927
-0.140361
-0.143703
-0.137209
-0.122259
-0.1019
-0.0877927
-0.0855201
-0.082992
-0.0461557
-0.0103824
0.013279
0.0266089
0.0324787
0.0344854
0.0342409
0.0349223
0.0331374
0.0261525
0.00982498
-0.0157006
-0.0426645
-0.0638293
-0.0756696
-0.0772991
-0.0707536
-0.0635348
-0.0625763
-0.0587011
-0.0315768
-0.00775882
0.0044441
0.00886353
0.0102711
0.0107426
0.0104272
0.0857863
0.084468
0.0785779
0.0638437
0.039728
0.0121805
-0.0127532
-0.0311438
-0.0406213
-0.0407062
-0.034782
-0.0283795
-0.0201555
0.000169493
0.0100387
0.0140994
0.0149046
0.0151028
0.0153218
0.0147892
0.0966338
0.0956675
0.0912972
0.0801358
0.0614246
0.0388124
0.0164599
-0.00196882
-0.0134414
-0.0152169
-0.00632864
0.00901225
0.0270969
0.0390366
0.0384068
0.0357956
0.0339835
0.0339953
0.0334093
0.0326139
0.089636
0.0890044
0.0860515
0.0783307
0.0650155
0.0481385
0.0304398
0.0150122
0.00486734
0.00387359
0.0159344
0.038722
0.0625612
0.0675138
0.060824
0.0557475
0.0544665
0.0543755
0.0542012
0.0530625
0.0760288
0.0756605
0.0737829
0.0687071
0.0596628
0.0477304
0.0345775
0.0225381
0.0143613
0.0141489
0.027296
0.0514366
0.0753058
0.075152
0.0671005
0.0640915
0.0644726
0.0663275
0.0663085
0.0648731
0.0606546
0.0604797
0.0593292
0.0560974
0.0501226
0.0418974
0.0324238
0.0233161
0.0166409
0.0160029
0.0265557
0.0461405
0.0632788
0.0594752
0.0535838
0.0540437
0.0578332
0.0608961
0.0610316
0.0595306
0.0456412
0.0455161
0.0448347
0.0428517
0.0390075
0.0334207
0.0266017
0.0194637
0.0133368
0.0106175
0.0152149
0.0254066
0.0326159
0.0267123
0.0244517
0.0280001
0.0331544
0.036007
0.0360713
0.0348222
0.0320411
0.0319431
0.031519
0.0303168
0.027873
0.02406
0.0189904
0.0130016
0.00654616
0.000455782
-0.00344421
-0.00587219
-0.0104213
-0.0175313
-0.0163606
-0.00882977
-0.00246108
-2.71657e-05
1.09599e-05
-0.000899843
0.0204646
0.0203685
0.0200639
0.0193491
0.0178295
0.015188
0.0112218
0.00576051
-0.00152072
-0.0114428
-0.0246288
-0.0404957
-0.0586957
-0.0665577
-0.0580302
-0.0474497
-0.0408283
-0.0388416
-0.0387049
-0.0391672
0.011416
0.011302
0.0110581
0.0105966
0.00963782
0.0077368
0.00446784
-0.000720366
-0.00882474
-0.0220579
-0.04295
-0.0717601
-0.0962971
-0.100013
-0.0881748
-0.0769259
-0.0716855
-0.0701022
-0.0698154
-0.0699936
0.00504478
0.00491278
0.00469111
0.00434747
0.00372436
0.0022575
-0.000512274
-0.00527079
-0.0135167
-0.0283799
-0.0533341
-0.0859575
-0.116138
-0.113974
-0.100418
-0.0908788
-0.0876834
-0.0872554
-0.086877
-0.086841
0.00119646
0.00108475
0.000884588
0.000611617
0.000117178
-0.00101475
-0.00328724
-0.00748436
-0.0149497
-0.0289619
-0.0533207
-0.0860111
-0.108562
-0.102775
-0.0921843
-0.0866982
-0.0863626
-0.0868417
-0.0864232
-0.0862865
-0.000596726
-0.000702316
-0.000872627
-0.00109036
-0.00144443
-0.00224533
-0.00390668
-0.00709669
-0.0129033
-0.0239742
-0.0429051
-0.0669466
-0.0802423
-0.0739238
-0.0676408
-0.0672196
-0.0685521
-0.0693669
-0.0691328
-0.0691097
-0.000886629
-0.000973
-0.00109232
-0.00121088
-0.00140936
-0.00185291
-0.00282528
-0.00466437
-0.00805921
-0.0145846
-0.025261
-0.0376741
-0.0424146
-0.0370116
-0.0368027
-0.0381661
-0.03994
-0.0405676
-0.0405102
-0.0406901
-9.45031e-05
-0.000120544
-0.000132817
-0.000194975
-0.000292533
-0.00032889
-0.000425312
-0.000661342
-0.00118189
-0.00201845
-0.00351797
-0.00561151
-0.00711266
-0.00628265
-0.00809609
-0.01011
-0.0112111
-0.0102029
-0.00958591
-0.00913245
-0.0709836
0.097161
0.293801
0.465307
0.602714
0.711378
0.801459
0.877977
0.912603
0.889295
0.234987
0.35667
0.487628
0.600964
0.69666
0.775988
0.840211
0.88575
0.908552
0.920584
0.455946
0.539466
0.628972
0.70815
0.776296
0.833322
0.878655
0.911756
0.935648
0.953596
0.618055
0.677707
0.740086
0.797626
0.847723
0.890261
0.925184
0.953028
0.975923
0.994203
0.744413
0.787891
0.834178
0.878297
0.917273
0.951304
0.980421
1.00464
1.02509
1.04292
0.849295
0.882386
0.920714
0.956463
0.989266
1.01866
1.04434
1.06591
1.08381
1.10115
0.942194
0.971011
1.00513
1.03739
1.06745
1.09471
1.11853
1.13831
1.15385
1.17092
1.031
1.06028
1.09438
1.1265
1.15617
1.18281
1.20573
1.22425
1.23765
1.25468
1.12644
1.1597
1.1964
1.23002
1.26011
1.28633
1.30832
1.32562
1.3375
1.3549
1.24152
1.27938
1.31805
1.35233
1.3817
1.40647
1.42686
1.44276
1.45424
1.47231
1.3865
1.42507
1.46123
1.49193
1.51763
1.53974
1.5588
1.57434
1.58678
1.60478
1.56162
1.59324
1.61944
1.6419
1.66188
1.68061
1.69834
1.71482
1.73017
1.74824
1.75025
1.76745
1.78249
1.79873
1.81465
1.82918
1.84239
1.85632
1.87387
1.89402
1.93197
1.94152
1.95306
1.96387
1.97316
1.98275
1.99353
2.0049
2.01627
2.03162
2.13922
2.14289
2.12794
2.11313
2.10685
2.11253
2.13101
2.16133
2.1935
2.22016
2.44554
2.31067
2.23404
2.19166
2.17424
2.17821
2.2056
2.26202
2.36464
2.58901
0.743579
0.741449
0.736965
0.728337
0.716108
0.703973
0.693736
0.685827
0.680192
0.676915
0.67653
0.679239
0.68432
0.691524
0.700898
0.712428
0.725072
0.736102
0.742212
0.745263
0.668039
0.673885
0.680218
0.684706
0.687171
0.686839
0.684093
0.68027
0.676741
0.674456
0.674277
0.676443
0.68008
0.684348
0.68814
0.690012
0.689068
0.68558
0.680413
0.673792
0.659628
0.661924
0.665325
0.668316
0.670385
0.671873
0.672616
0.672284
0.671238
0.670328
0.670468
0.671859
0.673645
0.674927
0.675089
0.674185
0.672626
0.670282
0.667013
0.66409
0.654136
0.655222
0.657052
0.659424
0.66144
0.662857
0.663864
0.664598
0.664976
0.665167
0.665617
0.666383
0.666945
0.666983
0.666549
0.665683
0.6642
0.662106
0.660012
0.658627
0.648957
0.64962
0.650725
0.652423
0.654195
0.655815
0.657094
0.658089
0.658943
0.659695
0.660376
0.660879
0.661029
0.660828
0.660233
0.659156
0.65771
0.656154
0.654827
0.654045
0.644012
0.644473
0.645255
0.646546
0.648022
0.649525
0.650971
0.652244
0.653346
0.654356
0.655214
0.655721
0.655813
0.655495
0.654762
0.653744
0.652595
0.651446
0.65052
0.65
0.639223
0.639567
0.640175
0.641235
0.642516
0.643873
0.64529
0.646706
0.64804
0.649265
0.650305
0.650921
0.651031
0.650699
0.650054
0.649241
0.648359
0.647472
0.646786
0.646406
0.634536
0.634804
0.635294
0.636193
0.637349
0.638626
0.639994
0.641448
0.642941
0.644395
0.645657
0.646433
0.64665
0.646457
0.646007
0.645399
0.644711
0.644043
0.643536
0.643246
0.629873
0.630086
0.630493
0.631281
0.632354
0.63358
0.634934
0.636428
0.638042
0.639719
0.641246
0.642257
0.64269
0.642718
0.642479
0.642077
0.641583
0.641098
0.640728
0.6405
0.625149
0.625321
0.625669
0.626384
0.627409
0.62861
0.629986
0.631554
0.633311
0.635222
0.637065
0.638402
0.63913
0.63942
0.639412
0.63922
0.638921
0.638599
0.638341
0.63816
0.620281
0.62042
0.620726
0.621395
0.622402
0.623623
0.62506
0.626743
0.628693
0.63089
0.633119
0.634865
0.635947
0.63654
0.636791
0.636819
0.636711
0.636543
0.636378
0.636232
0.615184
0.615296
0.615574
0.616224
0.617246
0.618533
0.620074
0.621926
0.624137
0.626701
0.629408
0.631645
0.633142
0.634081
0.634621
0.634883
0.634968
0.63495
0.634868
0.63475
0.60977
0.609859
0.61012
0.610774
0.611849
0.613243
0.614943
0.617032
0.619583
0.622619
0.625918
0.628741
0.630726
0.632062
0.632923
0.633458
0.633751
0.633874
0.633862
0.633766
0.603938
0.604005
0.604259
0.60494
0.606106
0.607655
0.609576
0.611979
0.61496
0.618584
0.622609
0.626143
0.62871
0.630514
0.631744
0.632577
0.633099
0.633371
0.633426
0.633349
0.597569
0.597616
0.597871
0.598602
0.599898
0.601656
0.60387
0.606675
0.610203
0.614557
0.619469
0.623863
0.627128
0.629484
0.631145
0.632313
0.633098
0.633529
0.633651
0.633589
0.590524
0.590552
0.590811
0.591613
0.593083
0.595113
0.597702
0.601021
0.605239
0.610492
0.616488
0.621924
0.626025
0.629038
0.631206
0.632762
0.633847
0.634452
0.63464
0.634592
0.582616
0.582631
0.58289
0.583791
0.585488
0.587857
0.590933
0.594911
0.600003
0.606386
0.613708
0.620384
0.625466
0.629245
0.632013
0.634043
0.635465
0.636257
0.636515
0.636478
0.573557
0.57354
0.573859
0.574891
0.57687
0.579684
0.583381
0.588184
0.594362
0.602132
0.611067
0.619241
0.625501
0.630195
0.633675
0.636268
0.638081
0.639085
0.639414
0.639386
0.563072
0.56303
0.563392
0.564614
0.566951
0.570337
0.574823
0.580678
0.588226
0.597713
0.60861
0.618575
0.626225
0.631998
0.636319
0.639561
0.641832
0.643073
0.643479
0.643458
0.55069
0.55062
0.551058
0.552522
0.555334
0.559468
0.564978
0.572187
0.581476
0.593102
0.606372
0.618464
0.627735
0.634766
0.640081
0.644076
0.646873
0.648373
0.648857
0.648839
0.53578
0.53568
0.536238
0.538046
0.541495
0.546634
0.553508
0.562498
0.574019
0.588306
0.604428
0.618996
0.630151
0.638629
0.645094
0.649963
0.653348
0.655126
0.655682
0.655662
0.51743
0.517302
0.518052
0.52036
0.524699
0.531227
0.539959
0.551314
0.565696
0.583256
0.602778
0.620233
0.633543
0.643683
0.651455
0.657323
0.661371
0.663436
0.664054
0.664024
0.494239
0.494093
0.495172
0.498257
0.503941
0.512509
0.523892
0.538493
0.556615
0.578231
0.60173
0.622411
0.638087
0.650056
0.659266
0.666252
0.671
0.67334
0.673997
0.673946
0.463873
0.463748
0.465431
0.469875
0.477823
0.489578
0.504853
0.523897
0.54678
0.573254
0.601307
0.625589
0.643845
0.657782
0.668554
0.676756
0.682186
0.684749
0.685403
0.685318
0.422207
0.422244
0.425271
0.432569
0.444708
0.461683
0.482732
0.507782
0.536629
0.568808
0.601911
0.629995
0.650924
0.666894
0.679293
0.68872
0.694723
0.69738
0.697972
0.697843
0.361547
0.362729
0.370173
0.383827
0.403659
0.428946
0.45813
0.49083
0.52673
0.565274
0.603744
0.635734
0.659346
0.677314
0.691286
0.701769
0.708177
0.710716
0.711138
0.710968
0.289202
0.290954
0.305236
0.328792
0.359435
0.39455
0.432639
0.473545
0.517074
0.56272
0.607515
0.644448
0.671674
0.692366
0.708342
0.720139
0.726963
0.729497
0.72994
0.729876
0.214402
0.22055
0.24167
0.275373
0.316325
0.36101
0.407993
0.457172
0.508433
0.561316
0.612648
0.654731
0.685695
0.709324
0.7276
0.74065
0.747642
0.749882
0.75015
0.750161
0.153265
0.161692
0.187415
0.228123
0.277083
0.329918
0.384916
0.441832
0.500464
0.560317
0.617906
0.664846
0.69927
0.725456
0.745546
0.759639
0.766736
0.769001
0.769608
0.769702
0.103491
0.112511
0.141784
0.187713
0.242772
0.302172
0.363939
0.427684
0.493039
0.559396
0.622883
0.674372
0.712
0.740545
0.762338
0.777531
0.785295
0.788133
0.788866
0.788987
0.0616994
0.0710059
0.102739
0.152667
0.212708
0.27756
0.345057
0.41476
0.486143
0.558466
0.627432
0.683158
0.723744
0.754461
0.77793
0.794201
0.802841
0.806078
0.806928
0.807047
0.0255322
0.0349657
0.0685608
0.121687
0.185839
0.25533
0.32782
0.402793
0.47962
0.557425
0.631496
0.691154
0.734459
0.767119
0.791984
0.809205
0.818529
0.822105
0.823075
0.823202
-0.00665754
0.00283286
0.0378625
0.0936974
0.161298
0.234777
0.311679
0.391389
0.473194
0.556088
0.634945
0.698281
0.744063
0.778455
0.804473
0.822439
0.832299
0.836215
0.83722
0.837347
-0.036113
-0.0265615
0.00964296
0.0678147
0.138395
0.215363
0.296178
0.380176
0.466568
0.554237
0.637638
0.704463
0.752553
0.788486
0.815462
0.83392
0.844161
0.848295
0.849347
0.849459
-0.0636603
-0.0540487
-0.0167793
0.0433827
0.116621
0.196679
0.280989
0.368883
0.459523
0.5517
0.639471
0.709685
0.76001
0.797357
0.825084
0.843823
0.854223
0.858532
0.859671
0.859763
-0.0898435
-0.0801384
-0.0418776
0.0199785
0.0956131
0.178417
0.265875
0.357321
0.4519
0.54835
0.640374
0.713977
0.766548
0.805248
0.833598
0.852591
0.863086
0.86747
0.868594
0.868678
-0.115115
-0.105218
-0.0661077
-0.00262437
0.0751193
0.160379
0.250678
0.345362
0.4436
0.544106
0.640316
0.717383
0.772272
0.812327
0.841273
0.860479
0.871066
0.875432
0.876516
0.87653
-0.139693
-0.129559
-0.0896703
-0.0246157
0.0549871
0.142441
0.235303
0.332943
0.434562
0.538926
0.639281
0.71993
0.777272
0.818741
0.848304
0.867705
0.878318
0.882628
0.883655
0.883665
-0.163663
-0.153303
-0.112564
-0.0461457
0.0351331
0.124558
0.219714
0.320034
0.424767
0.532777
0.637245
0.721632
0.78161
0.824624
0.854873
0.874474
0.885056
0.889234
0.890161
0.890129
-0.187153
-0.176473
-0.134978
-0.0672663
0.015524
0.106707
0.203914
0.306647
0.414227
0.525665
0.634174
0.722456
0.785322
0.830097
0.861139
0.880897
0.891331
0.895292
0.896066
0.895981
-0.210132
-0.199158
-0.156897
-0.0879965
-0.00383424
0.0889119
0.187947
0.292831
0.402982
0.517598
0.630036
0.722337
0.788399
0.835251
0.86725
0.887097
0.897192
0.90079
0.901386
0.901255
-0.232638
-0.22134
-0.178269
-0.108301
-0.0229092
0.0712157
0.171864
0.278654
0.391095
0.508611
0.624799
0.721196
0.790774
0.840142
0.873398
0.893281
0.902761
0.905781
0.906152
0.905983
-0.254485
-0.242938
-0.199084
-0.128133
-0.0416437
0.0536985
0.155738
0.264194
0.37865
0.498769
0.618446
0.718939
0.792337
0.844754
0.879794
0.899823
0.908319
0.910362
0.910379
0.910182
-0.275811
-0.263907
-0.219318
-0.147468
-0.0600015
0.036405
0.139666
0.249538
0.365738
0.488157
0.610988
0.71546
0.792922
0.848953
0.88655
0.907267
0.914542
0.914899
0.914131
0.91388
-0.296447
-0.284218
-0.238933
-0.166251
-0.0778998
0.0194227
0.123732
0.234809
0.352473
0.476843
0.602469
0.710666
0.792328
0.852457
0.893514
0.916131
0.922766
0.920743
0.917985
0.916858
-0.316448
-0.30391
-0.257874
-0.184428
-0.0952972
0.00282331
0.108022
0.22009
0.338968
0.464966
0.592962
0.704472
0.790336
0.854849
0.900068
0.926254
0.934434
0.931269
0.9245
0.915577
-0.33573
-0.32294
-0.276237
-0.202153
-0.112404
-0.0136755
0.0921937
0.204971
0.324765
0.452008
0.581918
0.696288
0.786396
0.85564
0.905326
0.936573
0.949605