/*--------------------------------*- C++ -*----------------------------------*\
| =========                 |                                                 |
| \\      /  F ield         | OpenFOAM: The Open Source CFD Toolbox           |
|  \\    /   O peration     | Version:  4.0                                   |
|   \\  /    A nd           | Web:      www.OpenFOAM.org                      |
|    \\/     M anipulation  |                                                 |
\*---------------------------------------------------------------------------*/
FoamFile
{
    version     2.0;
    format      ascii;
    class       surfaceScalarField;
    location    "47";
    object      phi;
}
// * * * * * * * * * * * * * * * * * * * * * * * * * * * * * * * * * * * * * //

dimensions      [0 3 -1 0 0 0 0];

internalField   nonuniform List<scalar> 
17370
(
-0.091607
0.0960087
0.284609
-0.0775937
0.0594187
0.364951
-0.0430414
0.0316224
0.427587
-0.0223187
0.0162659
0.505305
-0.0116721
0.00879732
0.602277
-0.00658555
0.00510148
0.720542
-0.00386731
0.00298998
0.863784
-0.00221959
0.00164287
1.03603
-0.00111264
0.00069287
1.24292
-0.000283156
-0.000108819
1.49158
0.000495758
-0.000906443
1.4916
0.00130883
-0.0018123
1.24319
0.00236303
-0.0031082
1.03638
0.00396922
-0.00519307
0.86413
0.00667118
-0.00887541
0.721262
0.0117396
-0.016318
0.603793
0.0223552
-0.0316427
0.508727
0.0430451
-0.0594122
0.432535
0.07759
-0.0960045
0.36519
0.0916204
0.19739
-0.127089
0.0880191
0.0390697
-0.364353
0.354026
-0.0714788
0.0818054
-0.446655
0.45425
-0.079173
0.0715778
-0.521011
0.529106
-0.0637282
0.0556323
-0.612989
0.620758
-0.0482464
0.0404773
-0.727162
0.733682
-0.0338655
0.0273458
-0.86758
0.872427
-0.0221451
0.0172983
-1.03856
1.0419
-0.0136043
0.0102674
-1.24472
1.24712
-0.00771732
0.00531212
-1.49284
1.49485
-0.00334877
0.00133566
-1.49269
1.49451
0.000483321
-0.00230145
-1.24411
1.24602
0.00427349
-0.00618405
-1.03761
1.04009
0.00851997
-0.0110014
-0.866188
0.869822
0.0142643
-0.0178982
-0.724595
0.729754
0.0226905
-0.0278496
-0.609066
0.615637
0.0343268
-0.0408982
-0.515125
0.522462
0.0486195
-0.0559565
-0.43988
0.447661
0.0639813
-0.0717624
-0.37471
0.377356
0.0792629
-0.0819088
-0.2569
0.224441
0.0715594
-0.0390997
-0.0688052
0.0591909
0.00961427
-0.0521207
0.0589522
-0.374834
0.368002
-0.0581079
0.0542685
-0.453943
0.457782
-0.0487838
0.0442266
-0.527613
0.53217
-0.0396788
0.0357851
-0.620796
0.62469
-0.0315753
0.0275846
-0.734655
0.738646
-0.0232334
0.0193506
-0.87395
0.877833
-0.015309
0.0118542
-1.04336
1.04681
-0.00833681
0.00530572
-1.24865
1.25168
-0.00209884
-0.000881493
-1.49694
1.49992
0.00384023
-0.00698674
-1.49742
1.50057
0.00993117
-0.0133336
-1.25007
1.25347
0.0166744
-0.0205897
-1.04565
1.04957
0.0243643
-0.0286096
-0.87714
0.881386
0.0325147
-0.0366382
-0.738986
0.74311
0.0404578
-0.0449312
-0.625976
0.630449
0.0494265
-0.054851
-0.53502
0.540444
0.0586218
-0.0593848
-0.45808
0.458843
0.052443
-0.0320592
-0.336771
0.316387
0.00967167
-0.0686676
0.058996
-0.0534004
0.0492866
0.00411378
-0.0332581
0.0436882
-0.358551
0.348121
-0.0473696
0.046787
-0.459572
0.460155
-0.0438631
0.0406546
-0.536124
0.539333
-0.036982
0.0336312
-0.628386
0.631737
-0.0300023
0.0267665
-0.742024
0.745259
-0.0233201
0.0201272
-0.881324
0.884517
-0.0165379
0.013189
-1.05023
1.05358
-0.00949345
0.00609189
-1.25493
1.25834
-0.00230423
-0.00130926
-1.50327
1.50689
0.00489215
-0.00859121
-1.50407
1.50777
0.0118728
-0.0154073
-1.25704
1.26057
0.0185938
-0.0219995
-1.05327
1.05668
0.0250335
-0.0283249
-0.884992
0.888283
0.0314357
-0.0349407
-0.746793
0.750298
0.0381844
-0.0417445
-0.634572
0.638132
0.0448553
-0.0476701
-0.544591
0.547405
0.0481401
-0.0443025
-0.456963
0.453126
0.033681
-0.0163733
-0.297075
0.279768
0.00417688
-0.0531479
0.0489711
-0.0461156
0.0435573
0.00255833
-0.0230653
0.0334241
-0.337523
0.327164
-0.039167
0.0401227
-0.459902
0.458946
-0.0388786
0.0365562
-0.541987
0.54431
-0.0339201
0.031379
-0.6347
0.637241
-0.028408
0.025566
-0.74834
0.751182
-0.0223344
0.0193254
-0.887566
0.890575
-0.0159794
0.0128503
-1.05675
1.05988
-0.00930014
0.00590622
-1.26172
1.26512
-0.00200156
-0.00179213
-1.51062
1.51441
0.00554747
-0.00933522
-1.51155
1.51534
0.0125716
-0.0159112
-1.26403
1.26737
0.0188284
-0.0219352
-1.05989
1.06299
0.0247324
-0.0277498
-0.891476
0.894493
0.0304166
-0.0332152
-0.753476
0.756275
0.0356106
-0.0380979
-0.641089
0.643577
0.0402931
-0.0413689
-0.549245
0.550321
0.0402395
-0.0342434
-0.448008
0.442012
0.0236068
-0.0103671
-0.264588
0.251349
0.00263638
-0.0457297
0.0430933
-0.0414373
0.039634
0.00180326
-0.0169647
0.0262611
-0.317288
0.307992
-0.0328691
0.0349987
-0.457381
0.455252
-0.0345726
0.0328799
-0.546336
0.548029
-0.030658
0.0285345
-0.639547
0.64167
-0.0261019
0.0237288
-0.753776
0.756149
-0.0209205
0.0181801
-0.893423
0.896164
-0.0150032
0.0119764
-1.06291
1.06594
-0.00852039
0.00521358
-1.26843
1.27174
-0.00138317
-0.00235665
-1.51817
1.52191
0.00604768
-0.00973216
-1.51908
1.52277
0.0128414
-0.0160337
-1.27065
1.27384
0.0187938
-0.0216642
-1.06602
1.06889
0.0241272
-0.026651
-0.897281
0.899804
0.0287926
-0.0310017
-0.758717
0.760926
0.0329397
-0.0349713
-0.645806
0.647838
0.0364802
-0.036679
-0.550908
0.551107
0.0342837
-0.0273068
-0.435432
0.428455
0.0176393
-0.007464
-0.239785
0.22961
0.00189874
-0.0408872
0.0389885
-0.0380822
0.0367275
0.00135472
-0.0129678
0.0209796
-0.299343
0.291331
-0.0277621
0.0306967
-0.452692
0.449758
-0.0309149
0.029799
-0.549463
0.550579
-0.0278066
0.0258861
-0.643722
0.645642
-0.0236813
0.0215472
-0.758382
0.760517
-0.0190478
0.0165874
-0.898701
0.901161
-0.0136774
0.0108328
-1.06883
1.07167
-0.0075161
0.00431184
-1.27496
1.27817
-0.000592006
-0.00302848
-1.52557
1.52919
0.00658746
-0.0101246
-1.52638
1.52992
0.0130824
-0.0160691
-1.27697
1.27995
0.0185801
-0.0211079
-1.07161
1.07414
0.0232238
-0.025368
-0.902121
0.904265
0.0272081
-0.0291252
-0.762972
0.76489
0.0308096
-0.0325741
-0.649712
0.651476
0.0334223
-0.0328855
-0.550944
0.550408
0.0295713
-0.0222846
-0.421267
0.41398
0.0137978
-0.00575826
-0.220605
0.212565
0.00147117
-0.0373318
0.0358606
-0.0355441
0.0344996
0.00104454
-0.0101452
0.0169336
-0.283957
0.277168
-0.0234697
0.0268705
-0.446574
0.443173
-0.0276707
0.0269903
-0.551471
0.552151
-0.0252359
0.0234617
-0.647525
0.6493
-0.0214092
0.0194126
-0.762577
0.764574
-0.017064
0.0147601
-0.903476
0.90578
-0.0120518
0.00939651
-1.07435
1.07701
-0.00627056
0.00321564
-1.28126
1.28431
0.000358018
-0.00383641
-1.53272
1.53619
0.00723986
-0.0105872
-1.53336
1.53671
0.0133389
-0.0160604
-1.28283
1.28555
0.0183078
-0.020547
-1.07653
1.07877
0.0224236
-0.0243272
-0.906297
0.9082
0.0259546
-0.0276471
-0.766686
0.768378
0.0291291
-0.0305691
-0.653092
0.654532
0.030911
-0.0296669
-0.549528
0.548284
0.0257425
-0.0185443
-0.406715
0.399517
0.0111608
-0.00462455
-0.205349
0.198813
0.00118624
-0.03455
0.0333638
-0.0335817
0.0327663
0.000815422
-0.00805492
0.0137722
-0.270947
0.265229
-0.0198367
0.0234488
-0.43966
0.436048
-0.0247383
0.024311
-0.55274
0.553168
-0.0228336
0.0211734
-0.651065
0.652726
-0.0192234
0.0173236
-0.766515
0.768415
-0.0150848
0.0128843
-0.907963
0.910163
-0.0102921
0.00775719
-1.07953
1.08206
-0.00478558
0.00188262
-1.28724
1.29014
0.00151253
-0.00481414
-1.53956
1.54286
0.00802473
-0.0111452
-1.53994
1.54306
0.0136765
-0.0161523
-1.28817
1.29064
0.0181863
-0.0202019
-1.08092
1.08293
0.0218769
-0.0235673
-0.910014
0.911705
0.0250116
-0.0265166
-0.769976
0.771481
0.0278119
-0.0288854
-0.655765
0.656838
0.0288672
-0.0269663
-0.546719
0.544818
0.0226607
-0.0157503
-0.392459
0.385549
0.0092956
-0.00383539
-0.192867
0.187406
0.000987692
-0.032291
0.0313033
-0.0320487
0.0314101
0.000638629
-0.00644562
0.0112471
-0.26
0.255198
-0.0167311
0.0203565
-0.432432
0.428807
-0.0219844
0.0217949
-0.553515
0.553704
-0.0205653
0.0189782
-0.654395
0.655982
-0.0170962
0.015255
-0.770275
0.772117
-0.0130845
0.0109524
-0.912252
0.914384
-0.00844344
0.00599457
-1.08448
1.08693
-0.0031328
0.000353895
-1.29293
1.29571
0.0028819
-0.00600827
-1.54604
1.54917
0.00902215
-0.0119217
-1.54606
1.54896
0.0142515
-0.0165107
-1.29303
1.29529
0.0183488
-0.0201539
-1.08488
1.08668
0.0216434
-0.0231402
-0.913319
0.914815
0.0244175
-0.025744
-0.772901
0.774228
0.0268891
-0.0275592
-0.657688
0.658358
0.0271831
-0.0247425
-0.542664
0.540223
0.0202156
-0.0136672
-0.37883
0.372281
0.00795781
-0.00327712
-0.182376
0.177696
0.000847973
-0.0303977
0.0295498
-0.0308508
0.0303551
0.000495706
-0.00515199
0.00916347
-0.25082
0.246808
-0.0140198
0.017507
-0.425261
0.421774
-0.019329
0.0193378
-0.553841
0.553832
-0.0183131
0.0167667
-0.657615
0.659162
-0.0149166
0.0131018
-0.773933
0.775748
-0.0109662
0.00887577
-0.916405
0.918495
-0.00642477
0.00404079
-1.08925
1.09164
-0.00126379
-0.00141678
-1.29837
1.30105
0.00450944
-0.00746501
-1.55217
1.55512
0.0102849
-0.0129702
-1.55174
1.55442
0.0151036
-0.0171465
-1.29747
1.29951
0.0187866
-0.0203796
-1.08841
1.09
0.0216854
-0.0230012
-0.916248
0.917564
0.0241319
-0.0253046
-0.775497
0.77667
0.0262731
-0.0265856
-0.658822
0.659135
0.0258387
-0.022956
-0.537576
0.534694
0.0183151
-0.0121295
-0.365935
0.35975
0.00700069
-0.00288463
-0.173333
0.169216
0.0007513
-0.0287624
0.0280111
-0.029926
0.0295504
0.000375601
-0.00407012
0.00738683
-0.243167
0.239851
-0.0116018
0.0148422
-0.418425
0.415184
-0.0167397
0.0169209
-0.553794
0.553613
-0.0160006
0.0145461
-0.660745
0.662199
-0.0127117
0.0108975
-0.777549
0.779363
-0.00875978
0.00667186
-0.920482
0.92257
-0.00423489
0.00187833
-1.0939
1.09626
0.000841824
-0.00345064
-1.30363
1.30624
0.00642946
-0.00924125
-1.55796
1.56077
0.0118881
-0.0143706
-1.55699
1.55947
0.0163132
-0.0181459
-1.30147
1.30331
0.0195989
-0.0209933
-1.09154
1.09294
0.0221251
-0.0232642
-0.918821
0.91996
0.0242455
-0.0252472
-0.777782
0.778784
0.0259606
-0.0259819
-0.659297
0.659318
0.0248441
-0.0215804
-0.53163
0.528366
0.0168814
-0.0110166
-0.353754
0.347889
0.00632758
-0.00261509
-0.165336
0.161623
0.000686837
-0.0273049
0.026618
-0.0292345
0.0289656
0.000268927
-0.00312293
0.00581246
-0.236867
0.234178
-0.00938575
0.0122943
-0.412129
0.409221
-0.0141497
0.0144279
-0.553446
0.553168
-0.0135665
0.0121726
-0.663711
0.665105
-0.0103293
0.00848663
-0.781171
0.783013
-0.00631609
0.00420585
-0.924554
0.926664
-0.00175869
-0.000586363
-1.0985
1.10085
0.00328347
-0.00584151
-1.30874
1.3113
0.00873122
-0.0114209
-1.56347
1.56616
0.01391
-0.0161978
-1.56184
1.56412
0.0179491
-0.0195653
-1.30505
1.30667
0.0208229
-0.0220086
-1.09428
1.09547
0.0229559
-0.0239082
-0.921053
0.922006
0.0247366
-0.0255644
-0.779716
0.780544
0.0260195
-0.0257792
-0.659193
0.658952
0.0242261
-0.0206059
-0.524947
0.521326
0.0158635
-0.0102515
-0.342191
0.336579
0.00587908
-0.00244244
-0.158083
0.154647
0.000648034
-0.0259648
0.0253168
-0.0287535
0.0285861
0.000167408
-0.00224506
0.00434567
-0.231801
0.2297
-0.00727238
0.00977965
-0.406539
0.404032
-0.0114861
0.0117821
-0.55296
0.552664
-0.0109442
0.00956897
-0.666597
0.667973
-0.0076878
0.00578895
-0.784855
0.786753
-0.00355507
0.00139356
-0.928665
0.930826
0.00109508
-0.00346966
-1.10308
1.10546
0.00616728
-0.00869751
-1.31375
1.31628
0.0115107
-0.0140775
-1.56873
1.5713
0.0164014
-0.0184854
-1.56628
1.56837
0.020039
-0.0214289
-1.3082
1.30959
0.0224757
-0.0234312
-1.0966
1.09756
0.0241776
-0.0249335
-0.922912
0.923667
0.0256056
-0.0262885
-0.781299
0.781982
0.0264569
-0.0258936
-0.658495
0.657932
0.0239421
-0.019997
-0.517591
0.513646
0.0152046
-0.00976877
-0.331107
0.325671
0.00560869
-0.00234645
-0.151335
0.148073
0.000629702
-0.0246943
0.0240646
-0.0284746
0.0284098
6.47174e-05
-0.0013885
0.0029134
-0.227904
0.226379
-0.00517572
0.00721468
-0.401786
0.399747
-0.00866993
0.00891037
-0.552488
0.552247
-0.00806565
0.00669169
-0.669475
0.670849
-0.00475241
0.00277666
-0.78865
0.790626
-0.000444597
-0.00180756
-0.932878
0.93513
0.0043866
-0.00682364
-1.10773
1.11017
0.00956163
-0.0120935
-1.31871
1.32124
0.0148607
-0.0173308
-1.57375
1.57622
0.0195054
-0.0213899
-1.57031
1.5722
0.0227438
-0.0239065
-1.31089
1.31206
0.0247443
-0.0254643
-1.09848
1.0992
0.0259843
-0.0265042
-0.924385
0.924905
0.0269879
-0.0274697
-0.78252
0.783002
0.0273451
-0.0264012
-0.657099
0.656156
0.0240332
-0.0197472
-0.509602
0.505316
0.014871
-0.00952793
-0.320349
0.315005
0.00548706
-0.00231391
-0.144899
0.141726
0.000628182
-0.0234545
0.0228264
-0.0284012
0.0284456
-4.43856e-05
-0.000505594
0.00144616
-0.225161
0.22422
-0.0030125
0.00451446
-0.398004
0.396502
-0.00561026
0.00570472
-0.552192
0.552098
-0.0047901
0.00335771
-0.6724
0.673832
-0.00132357
-0.000770337
-0.792603
0.794697
0.00324242
-0.0056135
-0.937272
0.939643
0.00830929
-0.0108332
-1.1125
1.11502
0.0136377
-0.0161938
-1.32367
1.32623
0.0189317
-0.0213068
-1.57857
1.58094
0.0233236
-0.024988
-1.57393
1.5756
0.0261134
-0.0270086
-1.31311
1.314
0.0275974
-0.0280478
-1.09988
1.10033
0.0283298
-0.0286096
-0.925407
0.925687
0.0289042
-0.0291196
-0.783222
0.783437
0.0287365
-0.0273234
-0.654912
0.653499
0.0245117
-0.0198665
-0.500962
0.496317
0.0148584
-0.00951675
-0.309747
0.304405
0.00550518
-0.00234161
-0.138608
0.135444
0.000643044
-0.0222121
0.0215691
-0.0285459
0.0287055
-0.00015961
0.000423854
-0.000100728
-0.2236
0.223277
-0.000719284
0.00160516
-0.395327
0.394441
-0.00223452
0.00209555
-0.552264
0.552403
-0.00104738
-0.000514537
-0.675508
0.67707
0.00269786
-0.00495159
-0.796797
0.799051
0.00760187
-0.010129
-0.941894
0.944421
0.0129838
-0.0156345
-1.11744
1.12009
0.0185447
-0.0211512
-1.32869
1.33129
0.0238753
-0.0261578
-1.58318
1.58547
0.0280059
-0.0294334
-1.5771
1.57852
0.0303169
-0.030922
-1.31477
1.31538
0.0312377
-0.03139
-1.10074
1.10089
0.0314014
-0.0314078
-0.925937
0.925943
0.0314773
-0.031379
-0.783307
0.783209
0.0306802
-0.02874
-0.651816
0.649876
0.025437
-0.0203762
-0.491617
0.486556
0.0151641
-0.00972454
-0.299113
0.293673
0.00565448
-0.00242556
-0.132305
0.129076
0.000673184
-0.020935
0.0202618
-0.028945
0.0292467
-0.000301683
0.00143727
-0.00176956
-0.223312
0.223644
0.00180282
-0.0016432
-0.39388
0.39372
0.0016053
-0.00206812
-0.552908
0.553371
0.00330576
-0.0050243
-0.678926
0.680644
0.00739753
-0.00985459
-0.801303
0.80376
0.012748
-0.0154984
-0.946836
0.949586
0.0185826
-0.0214136
-1.12264
1.12548
0.0244745
-0.0271614
-1.33381
1.33649
0.0298911
-0.0320825
-1.58761
1.5898
0.0337465
-0.0348948
-1.57976
1.58091
0.0355055
-0.0357784
-1.31583
1.3161
0.0357953
-0.0356329
-1.10097
1.1008
0.035357
-0.0350566
-0.925884
0.925584
0.0348823
-0.0343498
-0.782655
0.782122
0.0332379
-0.0306673
-0.64772
0.645149
0.0268176
-0.0212793
-0.481452
0.475914
0.0157852
-0.0101447
-0.288251
0.28261
0.00592864
-0.00256188
-0.125844
0.122477
0.000717089
-0.0195934
0.0188763
-0.029621
0.0301007
-0.000479746
0.00273671
-0.00383064
-0.224369
0.225463
0.00474272
-0.00539024
-0.393894
0.394542
0.00607577
-0.00698437
-0.554343
0.555252
0.00850376
-0.0104563
-0.682717
0.684669
0.0131069
-0.0158362
-0.806216
0.808945
0.0190333
-0.0220496
-0.952224
0.95524
0.0254024
-0.0284472
-1.12821
1.13126
0.0316913
-0.0344786
-1.33908
1.34187
0.03722
-0.0393042
-1.59185
1.59393
0.0407491
-0.0415795
-1.58183
1.58266
0.0418525
-0.0417503
-1.31618
1.31608
0.0414154
-0.0408828
-1.10049
1.09995
0.0402757
-0.0396268
-0.925162
0.924514
0.0391424
-0.03813
-0.781067
0.780054
0.0365057
-0.0332293
-0.642437
0.63916
0.0287499
-0.0226339
-0.470336
0.46422
0.0167509
-0.0107897
-0.27695
0.270989
0.0063336
-0.00275303
-0.119078
0.115498
0.000775528
-0.0181604
0.0173849
-0.0306514
0.0313482
-0.000696808
0.0042288
-0.00621244
-0.226978
0.228962
0.00821339
-0.00976076
-0.395592
0.39714
0.0112671
-0.0127518
-0.55685
0.558334
0.014709
-0.0170096
-0.687073
0.689374
0.0200474
-0.0231276
-0.811673
0.814753
0.0266976
-0.0300385
-0.95814
0.961481
0.0337227
-0.0370317
-1.13421
1.13752
0.0404993
-0.0434036
-1.34455
1.34745
0.0461459
-0.0480902
-1.59584
1.59778
0.0492671
-0.0497256
-1.58325
1.5837
0.0495874
-0.049052
-1.31573
1.31519
0.0483044
-0.0473357
-1.09917
1.0982
0.0463482
-0.0452994
-0.923669
0.92262
0.0443732
-0.0428717
-0.77848
0.776979
0.0406133
-0.0365296
-0.6358
0.631717
0.0313061
-0.0244799
-0.458057
0.451231
0.0180826
-0.0116677
-0.264968
0.258553
0.00687001
-0.00299675
-0.111857
0.107984
0.000846949
-0.0166076
0.0157606
-0.0321147
0.0330979
-0.000983167
0.00610984
-0.00917294
-0.231378
0.234441
0.012416
-0.015022
-0.399221
0.401827
0.0174964
-0.0196675
-0.560684
0.562855
0.022174
-0.0249092
-0.692202
0.694937
0.028432
-0.0319622
-0.817831
0.821361
0.0360239
-0.0397966
-0.964731
0.968504
0.0439123
-0.0475503
-1.14074
1.14438
0.0512778
-0.054303
-1.35023
1.35325
0.0570229
-0.0587793
-1.59951
1.60127
0.0596194
-0.0596071
-1.58386
1.58385
0.0590033
-0.0579305
-1.31432
1.31325
0.0567056
-0.0552336
-1.09688
1.09541
0.0538076
-0.0522831
-0.921273
0.919748
0.050833
-0.0487223
-0.77487
0.772759
0.0457004
-0.0406589
-0.627568
0.622526
0.034553
-0.0268593
-0.444357
0.436664
0.0197987
-0.012779
-0.252038
0.245019
0.00753134
-0.00328688
-0.104024
0.0997795
0.000928617
-0.0149103
0.0139817
-0.0341396
0.0355124
-0.00137281
0.0085807
-0.0129877
-0.23792
0.242327
0.0177201
-0.0215646
-0.405149
0.408994
0.0251758
-0.0281924
-0.566148
0.569164
0.0314343
-0.0347689
-0.698312
0.701647
0.0389416
-0.0430519
-0.824901
0.829011
0.047722
-0.0520044
-0.972205
0.976487
0.0566033
-0.0605854
-1.14793
1.15191
0.0645541
-0.0676491
-1.35611
1.35921
0.0702539
-0.0717067
-1.60273
1.60418
0.0720848
-0.0714814
-1.58345
1.58284
0.0703121
-0.0685953
-1.31173
1.31002
0.0668176
-0.0647586
-1.09349
1.09143
0.0628262
-0.0607869
-0.917832
0.915793
0.0587034
-0.055882
-0.769987
0.767165
0.051947
-0.0457632
-0.617435
0.611252
0.0385907
-0.0298183
-0.428915
0.420143
0.0219102
-0.0141132
-0.237858
0.230061
0.00830084
-0.00361059
-0.0954266
0.0907364
0.00101532
-0.0130509
0.0120356
-0.0369263
0.0388637
-0.00193746
0.0119843
-0.0180915
-0.247098
0.253205
0.024617
-0.0299052
-0.413852
0.419141
0.034861
-0.0389182
-0.573652
0.577709
0.0431296
-0.0472915
-0.705769
0.709931
0.0523298
-0.0571573
-0.833133
0.83796
0.0625282
-0.0673629
-0.980688
0.985523
0.0724508
-0.0767474
-1.15576
1.16005
0.0808857
-0.0839486
-1.36207
1.36513
0.0862851
-0.0872627
-1.60525
1.60622
0.0870036
-0.0856313
-1.58175
1.58038
0.0837381
-0.0812549
-1.30776
1.30527
0.0788318
-0.0761426
-1.08878
1.0861
0.0736721
-0.0710322
-0.913233
0.910594
0.0682638
-0.0645561
-0.763587
0.759879
0.059535
-0.0519774
-0.605012
0.597455
0.0435047
-0.0333954
-0.411312
0.401203
0.0244189
-0.0156455
-0.22209
0.213316
0.00914725
-0.00394555
-0.0859257
0.080724
0.00109798
-0.0110244
0.00992639
-0.0408014
0.0436031
-0.00280171
0.0168892
-0.0252277
-0.25961
0.267948
0.0339603
-0.0409745
-0.425976
0.43299
0.0475329
-0.0528343
-0.583676
0.588978
0.0582727
-0.063515
-0.715023
0.720265
0.06963
-0.0753063
-0.84279
0.848466
0.0814608
-0.0868646
-0.990268
0.995672
0.0923942
-0.0968975
-1.16415
1.16866
0.10102
-0.103834
-1.36784
1.37066
0.105623
-0.105855
-1.60667
1.6069
0.104706
-0.102338
-1.57842
1.57605
0.0995583
-0.0961585
-1.30214
1.29875
0.0929821
-0.0895765
-1.08263
1.07922
0.08653
-0.0831741
-0.907212
0.903856
0.0797274
-0.0749462
-0.755268
0.750487
0.068612
-0.059399
-0.589805
0.580592
0.0493528
-0.0375999
-0.39105
0.379297
0.027293
-0.0173202
-0.204359
0.194386
0.0100177
-0.00426001
-0.0754107
0.069653
0.00116494
-0.00884505
0.00768011
-0.0463244
0.0505835
-0.00425911
0.0244885
-0.0358539
-0.276589
0.287955
0.0474405
-0.0567386
-0.442519
0.451817
0.0652674
-0.0719931
-0.596774
0.6035
0.0789222
-0.0856003
-0.726447
0.733125
0.0928577
-0.0993263
-0.854102
0.86057
0.106136
-0.111924
-1.0009
1.00669
0.117606
-0.121994
-1.1728
1.17719
0.125703
-0.12789
-1.37291
1.3751
0.128726
-0.127854
-1.60641
1.60554
0.125499
-0.121875
-1.57294
1.56932
0.118043
-0.113601
-1.29463
1.29019
0.109579
-0.105371
-1.07484
1.07064
0.101669
-0.0974889
-0.899502
0.895322
0.0932376
-0.0871388
-0.744603
0.738504
0.0792245
-0.0680308
-0.571198
0.560005
0.0560981
-0.042355
-0.367524
0.353781
0.0304278
-0.0190293
-0.184283
0.172885
0.0108276
-0.00451096
-0.0638383
0.0575217
0.00120224
-0.00655084
0.0053486
-0.0545524
0.0618779
-0.00732548
0.0379038
-0.0536935
-0.300149
0.315939
0.0692632
-0.0816626
-0.465082
0.477481
0.0922664
-0.100356
-0.613381
0.621471
0.108816
-0.116733
-0.740396
0.748313
0.124886
-0.131757
-0.866824
0.873695
0.138654
-0.144225
-1.01204
1.01761
0.149381
-0.153018
-1.1809
1.18454
0.155649
-0.156596
-1.37641
1.37736
0.155883
-0.153425
-1.60365
1.60119
0.149495
-0.144331
-1.56478
1.55962
0.139223
-0.133544
-1.28492
1.27924
0.128534
-0.123429
-1.06533
1.06023
0.119064
-0.11414
-0.889904
0.884979
0.108842
-0.101091
-0.73106
0.723309
0.0912275
-0.0775897
-0.548394
0.534756
0.0633859
-0.0473643
-0.340013
0.323991
0.0335981
-0.0206484
-0.161562
0.148612
0.0115143
-0.00467821
-0.051317
0.0444809
0.00120003
-0.00420861
0.00300858
-0.0687334
0.0728322
-0.00409877
0.0289884
-0.0426392
-0.334259
0.347909
0.0564101
-0.0676785
-0.495045
0.506313
0.0777203
-0.0871168
-0.63315
0.642546
0.0975726
-0.106953
-0.755845
0.765226
0.11729
-0.12644
-0.879712
0.888862
0.136083
-0.144541
-1.02223
1.03068
0.153186
-0.160373
-1.18704
1.19423
0.167164
-0.172143
-1.37709
1.38206
0.175861
-0.177282
-1.59743
1.59885
0.176343
-0.173551
-1.5533
1.55051
0.169758
-0.164796
-1.27263
1.26767
0.160193
-0.154858
-1.05387
1.04853
0.150361
-0.145049
-0.878284
0.872972
0.138556
-0.127685
-0.71381
0.702939
0.113456
-0.0944111
-0.520361
0.501316
0.075304
-0.0542662
-0.307703
0.286666
0.0371022
-0.0218357
-0.13618
0.120914
0.0116696
-0.00453905
-0.0382503
0.0311198
0.00110633
-0.00192311
0.000816785
-0.0799514
0.0781133
0.00183811
0.00735556
-0.0163253
-0.364421
0.373391
0.0267594
-0.0347243
-0.522319
0.530284
0.042756
-0.0507751
-0.65428
0.662299
0.0604144
-0.0692439
-0.774293
0.783123
0.0785306
-0.0869564
-0.897481
0.905907
0.0958041
-0.103231
-1.03884
1.04627
0.110999
-0.117084
-1.20121
1.20729
0.122741
-0.126541
-1.38668
1.39048
0.12867
-0.128657
-1.59932
1.59931
0.126264
-0.121994
-1.54679
1.54252
0.116719
-0.110191
-1.26203
1.2555
0.104061
-0.0972071
-1.04176
1.03491
0.0909269
-0.0838281
-0.863396
0.856297
0.0766818
-0.06725
-0.688182
0.67875
0.0567127
-0.0439507
-0.480623
0.467861
0.032413
-0.0213268
-0.265629
0.254543
0.0134515
-0.0073602
-0.10643
0.100339
0.00376642
-0.00145501
-0.0244507
0.0221393
0.000373155
0.000272409
-0.000645565
-0.0813756
0.0785094
0.00286615
-0.00173679
-0.00345968
-0.38476
0.389956
0.0105386
-0.0163839
-0.542411
0.548256
0.0224325
-0.0293532
-0.672268
0.679189
0.0376795
-0.045342
-0.791084
0.798747
0.0536463
-0.0610307
-0.913621
0.921005
0.0685471
-0.075209
-1.05353
1.0602
0.0819544
-0.0872993
-1.21293
1.21828
0.0917771
-0.0944803
-1.39356
1.39627
0.0957058
-0.0946294
-1.59846
1.59738
0.0911813
-0.0858571
-1.53743
1.5321
0.0797694
-0.0726189
-1.24861
1.24146
0.0655927
-0.0580325
-1.02705
1.01949
0.0510844
-0.0433507
-0.846801
0.839067
0.0363756
-0.0282532
-0.665598
0.657476
0.0203923
-0.0121608
-0.453173
0.444941
0.00641055
-0.00243712
-0.242714
0.238741
0.000569645
0.000178011
-0.0937482
0.0930005
-0.000248726
0.000109589
-0.0195251
0.0196642
-4.7768e-05
0.00110864
-0.00106087
-0.0801451
0.0774519
0.00269321
-0.00525326
0.00274093
-0.398325
0.400838
0.00180876
-0.00626315
-0.55736
0.561814
0.0114004
-0.0171989
-0.687107
0.692906
0.0243392
-0.0309394
-0.805802
0.812402
0.0380845
-0.0444684
-0.927899
0.934283
0.0513484
-0.0570398
-1.06645
1.07214
0.0629736
-0.0672021
-1.22322
1.22744
0.0709841
-0.0731069
-1.39872
1.40085
0.0735998
-0.0717554
-1.59581
1.59397
0.0680517
-0.0625771
-1.52619
1.52071
0.0563796
-0.0487538
-1.234
1.22637
0.0415691
-0.0336837
-1.01119
1.0033
0.0261695
-0.0182197
-0.829418
0.821468
0.0110766
-0.0042527
-0.646104
0.63928
-0.00142841
0.00591362
-0.435167
0.430682
-0.0076844
0.00757691
-0.232393
0.2325
-0.00642265
0.00448316
-0.0911069
0.0930464
-0.00277591
0.00119749
-0.0193242
0.0209027
-0.000341019
0.0012067
-0.000865681
-0.0787015
0.0763329
0.00236861
-0.00629941
0.00534259
-0.407414
0.408371
-0.00198239
-0.00129364
-0.569392
0.572668
0.00551607
-0.0107948
-0.699566
0.704844
0.0168242
-0.0226575
-0.818321
0.824155
0.0288965
-0.0344888
-0.940253
0.945845
0.0404384
-0.045547
-1.07772
1.08283
0.0506005
-0.0545189
-1.23155
1.23546
0.0577588
-0.0594853
-1.40263
1.40435
0.0596809
-0.0577067
-1.59201
1.59003
0.0540159
-0.0484582
-1.51466
1.5091
0.0424033
-0.0350587
-1.21876
1.21141
0.0279175
-0.0197932
-0.994808
0.986684
0.0123145
-0.00441351
-0.81192
0.804019
-0.00215578
0.00792004
-0.629363
0.623599
-0.0120055
0.014586
-0.423687
0.421107
-0.014651
0.0126725
-0.22955
0.231529
-0.0100758
0.00695958
-0.0938358
0.096952
-0.00425769
0.00183213
-0.0220326
0.0244581
-0.000481214
0.00062206
-0.000140845
-0.0773913
0.0753739
0.00201734
-0.00612566
0.0056386
-0.413718
0.414205
-0.00362589
0.000962732
-0.578743
0.581406
0.00322154
-0.00776479
-0.710185
0.714728
0.0129947
-0.0181016
-0.829214
0.834321
0.0236969
-0.028736
-0.951119
0.956158
0.0342211
-0.0387323
-1.08768
1.09219
0.0433219
-0.0468935
-1.23912
1.24269
0.0497927
-0.0513063
-1.40585
1.40737
0.0513642
-0.0497284
-1.58802
1.58638
0.046048
-0.0407214
-1.50314
1.49782
0.0347592
-0.0275638
-1.20389
1.19669
0.0208805
-0.0130526
-0.978379
0.970551
0.00605385
0.00104795
-0.795399
0.788297
-0.00682121
0.0119123
-0.614938
0.609847
-0.0152282
0.017255
-0.415847
0.41382
-0.0166548
0.0141099
-0.230359
0.232904
-0.0112267
0.00775715
-0.0989337
0.102403
-0.00476398
0.0021149
-0.0262494
0.0288985
-0.000585853
-0.000320883
0.000906736
-0.0764298
0.0748685
0.00156126
-0.00522135
0.00504487
-0.418473
0.41865
-0.00340072
0.00135246
-0.58696
0.589008
0.00260653
-0.00674476
-0.719454
0.723592
0.0117467
-0.0161857
-0.83904
0.843479
0.0211407
-0.025641
-0.961185
0.965686
0.0308796
-0.0350181
-1.09674
1.10088
0.0391506
-0.0425993
-1.2461
1.24955
0.0457432
-0.0472067
-1.40894
1.41041
0.0474237
-0.0458057
-1.58438
1.58276
0.0425607
-0.037209
-1.49226
1.48691
0.031703
-0.02513
-1.1894
1.18283
0.0189122
-0.0121065
-0.962952
0.956147
0.00584961
0.000743622
-0.780627
0.774034
-0.00588852
0.0109079
-0.602197
0.597178
-0.0140004
0.0156894
-0.409318
0.407629
-0.0153898
0.0133043
-0.232345
0.23443
-0.010633
0.00737449
-0.104561
0.107819
-0.00456797
0.00208281
-0.0307399
0.0332251
-0.000613441
-0.00134919
0.00196264
-0.075975
0.0747567
0.00121839
-0.00414563
0.00408687
-0.422307
0.422366
-0.00261747
0.000662874
-0.594172
0.596126
0.0031754
-0.00691164
-0.727849
0.731586
0.0112374
-0.0155443
-0.847861
0.852168
0.02015
-0.0248047
-0.97001
0.974664
0.0293505
-0.0333464
-1.10513
1.10912
0.0376676
-0.0409498
-1.25292
1.2562
0.0437212
-0.0456878
-1.41182
1.41379
0.0461819
-0.044941
-1.58122
1.57998
0.0419949
-0.03745
-1.48183
1.47729
0.0325915
-0.0268259
-1.17618
1.17041
0.0214909
-0.0155267
-0.949479
0.943515
0.00993709
-0.0039358
-0.767163
0.761162
-0.00155129
0.00655507
-0.590003
0.584999
-0.00973959
0.0115754
-0.403484
0.401648
-0.0117146
0.0101897
-0.233893
0.235418
-0.00821544
0.00575303
-0.10939
0.111853
-0.00361381
0.0016808
-0.0347131
0.0366461
-0.000518369
-0.00233223
0.0028506
-0.0760442
0.075031
0.00101319
-0.00288541
0.002587
-0.425768
0.426067
-0.00129877
-0.000719459
-0.600795
0.602813
0.00424556
-0.00786696
-0.735711
0.739332
0.0120318
-0.0159511
-0.856255
0.860175
0.0206875
-0.0245808
-0.978762
0.982655
0.0291272
-0.0329882
-1.11329
1.11715
0.0372623
-0.0408109
-1.2595
1.26305
0.0439542
-0.0457979
-1.41556
1.4174
0.0467503
-0.0460776
-1.57873
1.57806
0.044034
-0.0402156
-1.47283
1.46901
0.0362472
-0.0313878
-1.16505
1.16019
0.0268164
-0.0213865
-0.937508
0.932078
0.0162007
-0.0101785
-0.75453
0.748508
0.00467841
0.000632602
-0.578192
0.572881
-0.00408541
0.00593594
-0.397303
0.395452
-0.00656489
0.00598171
-0.23435
0.234933
-0.00496158
0.00351576
-0.1126
0.114046
-0.0022452
0.00108937
-0.0374816
0.0386374
-0.000350241
-0.00307531
0.00342555
-0.0763906
0.0756897
0.00070091
-0.00175782
0.00106108
-0.429338
0.430035
-7.69658e-06
-0.00229821
-0.606642
0.608948
0.0054749
-0.00897194
-0.743056
0.746553
0.0129671
-0.0170196
-0.863947
0.868
0.0211593
-0.0252322
-0.986765
0.990838
0.0297788
-0.0334824
-1.12145
1.12516
0.0379103
-0.0414804
-1.26643
1.27
0.0447635
-0.0472193
-1.41969
1.42215
0.0487971
-0.0486289
-1.57754
1.57737
0.0471652
-0.044482
-1.46561
1.46293
0.0414277
-0.0372367
-1.15545
1.15126
0.0330182
-0.0280124
-0.92656
0.921555
0.022491
-0.0165296
-0.741786
0.735824
0.0109961
-0.00556185
-0.566499
0.561065
0.00195193
0.000460542
-0.390813
0.3884
-0.00148116
0.00184252
-0.233346
0.232984
-0.00168279
0.00126728
-0.113833
0.114249
-0.000881383
0.000475057
-0.0387662
0.0391725
-0.000174482
-0.00348434
0.00365883
-0.077146
0.0765999
0.000546065
-0.000806774
0.000233032
-0.433129
0.433703
0.0015814
-0.0036409
-0.612731
0.614791
0.00695741
-0.0103315
-0.749903
0.753277
0.0141702
-0.0178307
-0.871716
0.875376
0.0221086
-0.0258942
-0.994929
0.998714
0.0304303
-0.0346093
-1.12933
1.13351
0.038737
-0.0426863
-1.27364
1.27759
0.0464509
-0.0490794
-1.42455
1.42718
0.05117
-0.0519942
-1.57754
1.57836
0.0512542
-0.0494835
-1.46032
1.45855
0.0468141
-0.0431199
-1.1472
1.1435
0.039187
-0.0340815
-0.916007
0.910901
0.0286807
-0.0226456
-0.728997
0.722962
0.0171973
-0.0117817
-0.554689
0.549274
0.0079566
-0.00512311
-0.383827
0.380994
0.00329486
-0.00209269
-0.230617
0.229415
0.00130586
-0.000670357
-0.113083
0.112447
0.00023909
2.10415e-05
-0.0386657
0.0384056
-6.07971e-05
-0.00355617
0.00361696
-0.078166
0.0778048
0.00036122
0.000235948
-0.00107622
-0.437004
0.437844
0.00269832
-0.00506352
-0.618347
0.620712
0.00830669
-0.0115243
-0.756509
0.759727
0.0154377
-0.0189514
-0.879008
0.882521
0.0230899
-0.0270215
-1.00299
1.00692
0.031497
-0.0356782
-1.13756
1.14174
0.0400645
-0.0440757
-1.28148
1.28549
0.0480717
-0.0515043
-1.43013
1.43356
0.0541529
-0.0554298
-1.57922
1.5805
0.055538
-0.054185
-1.45678
1.45543
0.0520452
-0.0487271
-1.13973
1.13641
0.0446476
-0.0395389
-0.905363
0.900254
0.0342141
-0.0281928
-0.716328
0.710307
0.0230233
-0.0176904
-0.543367
0.538034
0.0137688
-0.0102957
-0.376279
0.372806
0.00783307
-0.005685
-0.226188