/*--------------------------------*- C++ -*----------------------------------*\
| =========                 |                                                 |
| \\      /  F ield         | OpenFOAM: The Open Source CFD Toolbox           |
|  \\    /   O peration     | Version:  4.0                                   |
|   \\  /    A nd           | Web:      www.OpenFOAM.org                      |
|    \\/     M anipulation  |                                                 |
\*---------------------------------------------------------------------------*/
FoamFile
{
    version     2.0;
    format      ascii;
    class       volScalarField;
    location    "60";
    object      p;
}
// * * * * * * * * * * * * * * * * * * * * * * * * * * * * * * * * * * * * * //

dimensions      [0 2 -2 0 0 0 0];

internalField   nonuniform List<scalar> 
918
(
0.55684
1.18771
0.00114478
0.55627
-0.0126771
1.1547
-0.508721
0.674438
0.537031
-0.110772
-0.0449591
0.537069
1.01547
0.779865
-1.12448
-0.00994881
0.651817
-0.38243
0.53613
-0.0555203
0.700631
0.543578
0.546604
0.537183
0.600173
0.754531
0.896407
0.0217223
0.00918042
0.00475694
-0.012158
-0.0395194
-0.0331757
1.03835
1.08942
1.11212
0.504863
0.332324
-0.373934
-0.445881
-0.435377
-0.547439
0.670048
0.668112
-0.206405
0.677819
0.681061
0.524081
0.536399
0.537309
0.538338
0.537318
0.5387
0.404212
-0.112579
-0.144335
-0.0915463
-0.0828506
0.0547724
-0.0457812
-0.0480973
-0.0436776
-0.0430563
0.454135
0.531468
0.528372
0.542202
0.552942
1.12726
1.0992
1.12533
1.03898
1.05547
0.993476
0.966044
0.801541
0.823497
0.76368
0.750172
-1.55696
-2.50968
-0.533997
-0.283207
-0.0105401
-0.00724424
-0.0011789
0.648455
0.649305
0.6514
0.654639
1.08028
-0.379316
-0.480467
0.536269
0.535076
0.543408
0.544107
0.540126
0.539217
-0.0461973
-0.0425703
-0.0471812
-0.0516158
-0.0506792
0.689459
0.689826
0.537713
0.534719
0.56009
0.580384
0.571124
0.278571
0.608554
0.623509
0.585544
0.74645
0.740842
0.749616
0.870086
0.833057
0.933462
0.956813
0.0166241
4.61503e-05
-0.0149345
-0.0193711
-0.0182365
0.500704
0.493262
0.520546
0.508289
0.510789
0.248845
0.115177
0.417442
0.442445
-0.292014
-0.35698
-0.430282
-0.459631
-0.567376
0.611449
0.664306
0.661651
-0.218083
-0.145839
-0.278158
-0.0724318
-0.135021
0.51436
0.521363
0.516367
0.531904
0.526375
0.528337
0.540665
0.537738
0.539297
0.466549
0.590305
0.330322
0.295036
-0.245353
-0.160093
-0.246044
-0.0706394
-0.065643
0.0685879
0.0939928
0.0417641
0.0301472
-0.0595007
-0.0508635
-0.0550491
-0.0422248
-0.0424692
0.446915
0.435752
0.466814
0.474356
0.519077
0.520492
0.524937
0.522909
0.916946
0.939379
0.946763
0.92047
-3.50077
-6.28501
0.0419171
0.178686
-0.00681111
-0.0091864
0.00210343
-0.00578338
0.000515269
-0.00189124
-0.00563181
-0.00705578
-0.00199789
-0.000605965
0.642127
0.643071
1.00203
1.0083
0.978271
0.930911
0.524465
0.526542
0.53205
0.527927
-0.0417667
-0.042431
-0.0416421
0.683892
0.688287
0.686616
0.240299
0.151014
0.329396
0.358371
0.635622
0.623784
0.63393
0.646844
0.681775
0.964272
0.982386
0.980682
0.988901
1.03292
1.04932
1.01466
0.480175
0.490146
0.485102
0.523654
0.521427
0.52233
0.518145
0.519467
0.517422
-0.0354988
-0.415974
0.490274
0.507484
0.492064
0.495031
0.691577
0.770118
0.6547
0.658485
0.657436
-0.00385963
-0.0622034
0.250554
0.216783
0.386644
0.422951
0.401972
0.888197
0.848247
0.898434
0.871897
0.833233
0.859702
-0.36759
-1.86866
-0.986887
0.528499
0.342983
0.43027
0.0119811
-0.00498987
-0.000423947
1.00123
1.07406
0.646152
0.82075
0.823728
0.718581
0.748377
0.806487
0.729821
0.766204
0.802491
0.782446
0.567641
0.503471
0.519378
0.839322
0.895073
0.12144
0.0607644
0.0167572
0.112618
0.169704
0.143869
1.03445
0.949021
1.01935
0.534478
0.535196
-0.0044111
-0.0181509
0.539427
0.539481
-0.0119777
-0.00105993
0.413052
-0.832772
0.102534
0.527993
0.517943
0.535047
-0.0937938
0.355692
-0.0464318
0.0494411
-0.00641212
0.531463
0.465238
0.424428
0.0019718
-0.0183485
-0.046255
-0.214837
0.532149
0.530454
0.534514
0.535461
0.536139
-0.0173553
-0.0129404
-0.00966306
-0.0440475
-0.0389807
-0.0491033
0.499033
0.517981
-0.170093
0.53466
0.536792
0.536612
0.529861
0.535497
0.533745
-0.00903907
-0.0146606
-0.0171326
0.221332
0.351883
0.652735
0.74063
0.624091
0.400172
0.164833
0.556269
0.619424
0.525191
0.678662
0.660344
0.674924
0.16811
0.0178772
0.176424
0.11786
0.525853
0.52456
0.516197
0.513169
0.529913
0.528024
0.532585
0.529599
0.532551
0.533935
-0.0507286
-0.0770114
-0.0876931
-0.156818
0.310386
0.572011
0.253586
0.283872
0.142621
-0.0403554
-0.0407464
-0.0451803
-0.0510121
0.00257925
-0.0213629
0.0443974
0.044966
0.0170732
-0.00906311
-0.00524487
-0.0161857
-0.0121097
0.524938
0.524282
0.528677
0.537318
0.474864
0.478636
0.443552
0.464276
0.449561
0.388433
0.423611
0.398865
-0.00417636
0.00483627
-0.0013751
-0.0158153
-0.01255
-0.0313288
-0.0280421
-0.0242556
-0.0199274
-0.026526
-0.0412325
-0.043173
-0.172368
-0.287349
0.988698
0.910574
0.136006
0.521304
0.527755
0.524519
0.529425
0.532553
0.53336
0.531075
0.527626
0.518317
0.519846
0.51668
0.517593
-0.101871
-0.242339
-0.0705255
-0.143798
0.143829
0.627313
0.36379
0.299926
0.294977
0.522828
0.917782
0.702389
0.676961
0.68599
-0.342981
0.0470429
-0.278945
0.336761
0.163601
0.654154
0.702508
0.72256
0.671324
0.62469
-0.103508
0.555192
-0.0699892
-0.0186388
0.182223
0.0601694
0.671424
0.646437
0.650885
0.666529
0.682476
0.652144
0.637957
0.633174
0.661678
0.663586
0.487562
0.252143
0.203578
0.16501
0.641956
0.522488
0.575288
0.493013
0.52105
0.523655
0.52229
0.503856
0.511429
0.506959
0.513498
0.516987
0.525627
0.526082
0.521374
0.523506
-0.0562282
-0.0604071
-0.0301658
-0.137955
-0.13179
-0.194345
-0.0632475
0.0749529
0.035383
0.236781
0.341387
0.0523038
-0.0586711
-0.0312342
0.0107408
0.179845
0.207189
0.0744988
0.162716
0.152655
0.134965
0.237143
0.241084
-0.0250365
-0.028679
-0.0320749
-0.0340441
0.0204525
0.0908174
0.100593
-0.00308569
-0.00909417
-0.0384809
-0.0386349
-0.0213916
-0.0261853
-0.0221064
0.00935518
-0.0512708
-0.0183388
-0.00419551
-0.000137835
-0.00231943
-0.00797153
0.517802
0.520306
0.519881
0.525707
0.541234
0.555817
0.519068
0.497037
0.487836
0.490851
0.463742
0.47408
0.469738
0.483476
0.50461
0.514224
0.51163
0.514457
0.496741
0.498478
0.484981
0.488693
0.463459
0.444345
0.432483
-0.0406867
-0.00167614
-0.00983558
-0.035973
-0.00598345
-0.018168
-0.00850558
0.0104899
-0.00557863
-0.00749149
-0.0180521
-0.0240345
-0.023327
-0.0742286
0.0121339
-0.183797
-0.219622
-0.292018
0.890604
1.01464
0.810435
0.583561
0.603268
0.846407
0.931128
0.543596
0.735708
0.759005
0.586384
0.853737
0.52614
0.525742
0.523342
0.522822
0.524038
-0.00703256
0.0985835
0.0982923
0.160452
0.275672
0.38756
0.317973
0.193476
0.3238
0.3263
0.619977
0.63197
0.587355
0.611267
0.610827
0.425699
0.501308
0.553436
0.512366
0.564834
0.586025
0.54054
0.573162
0.523351
0.478335
0.474221
0.424734
0.444394
0.420372
0.403378
0.515217
0.49305
0.50345
0.493934
0.512958
0.540926
0.536823
0.561634
0.576258
0.497827
0.452919
0.462324
0.492597
0.453544
0.468765
0.485333
0.230851
0.13258
0.215523
-0.0709597
0.00154182
-0.0116161
-0.0599139
-0.0095624
0.275016
-0.417187
-0.393461
-1.02138
0.501517
0.95364
0.610729
0.583817
0.680454
0.663014
0.668085
0.684493
0.687281
0.630534
0.641774
0.645948
0.606692
0.628413
0.647435
0.644235
0.524811
0.385683
0.383565
0.333129
0.203266
0.242442
0.440264
0.363703
0.288516
0.289058
0.457988
0.34479
0.414358
0.448789
0.380276
0.334676
0.537589
0.602672
0.595788
0.569862
0.483089
0.496306
0.520155
0.554284
0.579459
0.609995
0.512929
0.518845
0.520079
0.517559
0.514831
0.517885
0.518125
0.52067
0.521325
0.524313
0.523359
-0.0456662
-0.0335178
-0.0470124
-0.0552766
-0.0203371
-0.0229705
0.0206856
0.00578637
-0.0127117
-0.00721094
-0.0314856
-0.0358051
-0.0314442
-0.0228287
0.0994664
0.112165
0.0956078
0.0558662
0.250211
0.379833
0.454355
0.329563
0.222509
0.245533
0.265551
-0.0120789
0.0144275
0.00137626
0.0407376
0.0325173
-0.0330894
-0.0370072
-0.0343996
-0.027349
-0.0177695
-0.0344897
-0.0384177
-0.0293981
-0.0342963
-0.0367016
-0.0410175
0.499297
0.492762
0.494481
0.488283
0.486997
0.501427
0.505684
0.507663
0.513188
0.515605
0.505497
0.511309
0.515274
-0.00902565
-0.0319624
-0.0358913
-0.0251579
-0.0277965
-0.0258318
-0.027284
0.123098
0.0531786
0.0577375
0.00960818
-0.121731
-0.0640486
0.490752
0.489685
0.479349
0.72045
0.569745
0.490265
0.587315
0.693004
0.275533
0.472448
0.307302
0.888139
0.784332
0.930748
0.541956
0.244149
0.406183
0.450532
0.262682
0.337816
0.325807
0.214689
0.245666
0.282683
0.381824
0.264323
0.240825
-0.00207833
0.18821
0.300569
0.282398
0.407274
0.468224
0.265137
0.184679
0.139872
0.605028
0.624428
0.638438
0.610759
0.63169
0.579141
0.570179
0.586183
0.594612
0.590151
-0.749413
-0.456043
-1.40223
-0.723556
-0.26943
0.531776
0.501949
0.768239
0.647033
0.688163
0.673504
0.63259
0.601616
0.623403
0.647891
0.344789
0.455792
0.431002
0.43624
0.33824
0.269068
0.567071
0.563258
0.595949
0.619126
0.591172
0.620517
0.510754
0.510474
0.509936
0.506187
0.504461
0.506826
0.0576472
0.0257503
0.0631792
0.0439534
0.0207272
0.00843259
-0.00572801
-0.0155702
-0.0229302
-0.0228724
-0.00910695
-0.00499137
0.170602
0.108705
0.0287537
0.0583982
-0.00241303
-0.0712641
-0.0899136
0.0146032
0.110995
0.101203
0.404958
0.6548
0.474768
0.642279
0.484591
0.540363
0.467933
0.459378
0.484644
0.37876
0.459254
0.243837
-0.263258
-0.172381
0.791245
0.803471
0.580266
0.403275
0.171996
0.352283
0.543522
0.474808
0.510834
0.579918
0.567977
0.0245141
0.0840197
0.365442
0.592484
0.238395
0.229492
0.223235
0.405488
0.324967
)
;

boundaryField
{
    wall-4
    {
        type            zeroGradient;
    }
    velocity-inlet-5
    {
        type            zeroGradient;
    }
    velocity-inlet-6
    {
        type            zeroGradient;
    }
    pressure-outlet-7
    {
        type            fixedValue;
        value           uniform 0;
    }
    wall-8
    {
        type            zeroGradient;
    }
    frontAndBackPlanes
    {
        type            empty;
    }
}


// ************************************************************************* //
