/*--------------------------------*- C++ -*----------------------------------*\
| =========                 |                                                 |
| \\      /  F ield         | OpenFOAM: The Open Source CFD Toolbox           |
|  \\    /   O peration     | Version:  4.0                                   |
|   \\  /    A nd           | Web:      www.OpenFOAM.org                      |
|    \\/     M anipulation  |                                                 |
\*---------------------------------------------------------------------------*/
FoamFile
{
    version     2.0;
    format      ascii;
    class       surfaceScalarField;
    location    "60";
    object      phi;
}
// * * * * * * * * * * * * * * * * * * * * * * * * * * * * * * * * * * * * * //

dimensions      [0 3 -1 0 0 0 0];

internalField   nonuniform List<scalar> 
1300
(
3.75095
5.62643
-3.32599
3.75095
-7.75099
5.62643
-4.3788
4.3788
-0.489683
0.489683
1.87639
1.87456
-2.70611
2.70611
-2.1903
2.1903
-2.53265
2.53265
-5.24638
5.24638
-5.06842
5.06842
4.65634
-4.65634
-6.29517
6.29517
-0.960854
0.960854
-3.6634
3.6634
3.16964
-3.16964
-2.13221
2.13221
-0.0267041
0.0267041
-0.55348
4.30443
3.19747
3.19747
-2.01301
2.01301
-4.86743
4.86743
6.21791
-6.21791
5.32416
-5.32416
-1.99817
-2.44891
1.8161
-11.5184
-5.93489
-5.93489
-8.44038
8.44038
-2.81395
2.81248
2.94585
-2.94585
-1.77526
1.77526
-4.33745
-0.0413505
-4.33745
4.34994
0.0288583
4.34994
-0.555291
0.065608
-0.555291
3.97323
-3.97323
0.401964
0.0877191
0.401964
3.06528
-3.06528
-1.87711
3.7535
1.87384
-1.87189
6.17632
-1.87906
3.75362
-6.01541
6.01541
-2.9284
0.222291
-2.9284
2.52149
0.184611
2.52149
-6.84063
6.84063
-2.22575
0.0354523
-2.22575
2.15997
0.0303245
2.15997
2.87945
-2.87945
-2.64397
0.111323
-2.64397
2.40014
0.132505
2.40014
0.353524
5.27291
-5.97995
8.79243
-5.27291
0.0265283
5.2083
0.0380735
5.2083
-5.1059
0.0374792
-5.1059
5.01334
0.0550732
5.01334
4.74303
-0.0866937
4.74303
-4.77384
0.117496
-4.77384
-3.36839
-4.05081
-6.44602
0.15085
-6.44602
-1.04607
0.0852204
-1.04607
0.851703
0.10915
0.851703
-3.68196
3.68196
-4.08776
0.424362
-4.08776
3.12402
0.0456197
3.12402
1.86849
1.88246
5.61945
-5.61945
2.44981
-2.11298
-0.0192311
-2.11298
-2.18275
-3.14141
2.18275
-0.0505346
-0.259183
0.232479
-0.259183
3.15941
0.0380613
3.15941
2.23683
0.163315
-2.23683
0.223817
3.26905
-3.26905
1.33864
0.674375
1.33864
-5.56539
5.56539
4.95571
0.0576311
-4.95571
0.0882781
6.15628
0.0616313
6.15628
-6.19954
-0.0183757
-6.19954
2.53284
-4.98175
-2.60861
6.11405
0.181117
-6.11405
0.179162
2.91753
0.0283226
2.91753
-2.91979
2.91979
-2.98447
0.0386218
-2.98447
-2.17427
0.399011
-2.17427
1.47643
0.29883
1.47643
-4.23492
-0.102529
-4.23492
-4.24022
0.152453
4.24022
0.109725
1.12748
-1.12748
-0.659342
0.104051
-0.659342
-4.09764
-0.137283
4.09764
-0.124402
-3.86368
-0.109553
-3.86368
-3.02438
0.0399112
3.02438
0.0408921
3.11284
0.0465733
-3.11284
0.0475623
-1.87082
3.75328
-1.88013
3.75398
-5.63505
-0.380365
-5.63505
6.32536
-0.309945
6.32536
3.30817
0.355231
-3.30817
0.379771
2.38629
0.135204
2.38629
-6.80521
-0.0354206
-6.80521
6.82347
0.0171633
6.82347
2.29171
0.0945766
-2.29171
0.0659641
2.12951
0.0304631
2.12951
2.89883
-0.0193896
2.89883
-2.87407
-0.0053718
-2.87407
2.7968
-2.7968
2.72485
0.0719513
-2.72485
0.0808767
-11.1329
11.1146
-0.0350509
-11.0979
5.17325
5.17325
4.1706
0.572432
4.1706
-4.99182
0.217987
-4.99182
2.6807
-5.28932
3.07712
-6.44551
4.66576
-16.1842
4.30274
-8.35355
6.68714
-6.68714
6.57544
0.111699
-6.57544
0.129418
-1.15867
0.1126
-1.15867
-3.07878
-0.603184
-3.07878
4.32577
-0.643805
4.32577
-3.02825
3.02825
-3.07752
0.0492678
3.07752
0.0464977
2.10706
0.0224537
-2.10706
-0.00592342
0.330128
0.071836
-0.330128
0.0709452
3.47855
-0.209503
3.47855
-3.07296
-0.196094
-3.07296
-1.2532
0.0945312
1.2532
0.0854306
-5.8137
0.248317
-5.8137
-11.1909
0.0929952
-11.1528
-6.10654
-6.10654
2.33384
11.1263
-2.89251
0.0184379
2.89251
0.0250175
2.97522
0.0530329
-2.97522
0.0554344
-2.86075
0.0639488
2.86075
0.059039
-2.5493
0.375026
-2.5493
-1.07335
1.07335
-1.24015
0.166797
1.24015
0.236284
1.39824
-0.270754
1.39824
0.754262
0.0974418
-0.754262
0.0949197
-3.76747
-0.0962098
-3.76747
6.55881
-0.233454
6.55881
-2.95978
-0.113175
2.95978
-0.0609478
-0.0333709
11.1479
-5.13988
0.0339863
5.13988
-11.2096
11.2435
-3.22035
0.671053
3.22035
0.95025
5.28554
0.279849
-5.28554
0.293715
6.77218
0.0512892
-6.77218
0.0850415
-2.58618
-0.492592
-2.58618
-5.05236
-0.582691
5.05236
-0.726591
-11.4742
-0.20447
11.6787
-11.4191
6.01817
0.138108
-6.01817
11.3817
-1.02996
-0.0975261
1.02996
0.0433935
1.72509
-0.326857
1.72509
3.67018
-0.191625
-3.67018
-0.0972918
-6.71088
-0.0943364
6.71088
-0.152064
-2.14164
-0.444541
2.14164
-0.41655
-4.26709
4.30516
1.90923
-2.39579
-2.58596
-5.5372
1.85187
1.90141
4.30168
-10.1553
-6.0289
-9.97611
7.26264
-6.96893
-9.24733
9.16064
7.84985
-7.9594
-5.78494
5.83144
6.48276
-6.44187
1.8788
1.87471
7.97763
-7.75534
-15.6218
15.2414
7.50482
-7.46937
15.7763
-15.8117
-17.858
17.9093
-5.69472
5.80604
-6.73782
6.73244
-6.97114
6.91019
-2.83003
-3.61548
13.1228
-12.9719
8.5375
-8.55673
-8.59368
9.01804
3.38257
0.922585
3.42914
-1.88217
3.76097
-1.87145
3.78068
2.70867
-5.5387
2.58064
-5.1666
4.32704
4.21046
-4.27651
-1.26069
-5.92396
5.95228
-5.81526
5.8743
9.11641
-9.15776
-1.88515
3.75986
-1.86882
3.77023
-3.42502
-2.35992
3.3794
0.922271
8.07722
5.04555
-8.25834
-1.71777
-8.02133
7.8297
-8.22185
8.02576
-0.434938
5.81876
-5.38382
4.4325
-1.56294
7.38169
5.69971
5.91769
5.86641
-5.58656
1.10251
-6.48634
-6.39806
-2.34638
2.45043
2.22988
-2.14216
6.11065
1.7392
5.98625
-5.74003
-2.21937
-5.83624
3.82073
2.01071
3.86999
4.07818
2.40458
4.11809
3.03055
-3.03589
0.00533848
-3.05657
6.08711
0.723976
-5.41648
-4.49421
4.96865
3.00898
5.15326
-5.53228
-2.22306
-5.15251
-9.54596
-6.07581
-10.1286
10.092
5.14945
9.78201
-11.966
11.814
4.78989
2.71493
4.82022
-4.91961
-2.54976
-4.85364
11.6402
-2.61951
-9.02072
-10.3245
-7.53353
10.3073
5.46896
10.9677
6.9416
11.0527
4.42479
7.21544
-9.89375
2.36022
-3.86153
-1.83319
-3.78065
3.66205
2.14399
3.79456
-4.21671
-2.52111
-4.19827
-4.29433
-2.67681
4.31372
2.41873
-4.41473
-3.80712
4.52791
2.38229
4.03892
-10.0678
4.31464
-7.93012
-9.20181
-3.77012
-9.07239
3.50147
2.6034
-6.10487
-2.03722
8.46452
-4.25406
7.20383
-5.16748
-3.38925
-5.17341
-6.86953
-1.72415
-6.71708
-8.88247
8.38988
-9.18052
8.53672
12.5399
-5.66129
-6.87866
-3.96839
-2.47348
3.92083
-0.491688
-3.71058
3.71592
0.0503841
3.83106
4.75365
4.26196
-3.88487
-1.9304
-3.82943
3.82613
2.04817
3.89008
6.82779
2.28862
6.85665
-6.58798
-2.56978
-6.69051
9.0447
-8.64569
2.84963
-2.7551
5.38671
2.63905
-5.17721
-2.84412
6.21454
-3.21614
-2.9984
-12.2
10.5333
1.66668
-4.81831
-0.385809
-0.359105
-5.48981
-3.75753
5.37231
0.545385
11.0787
7.32118
-5.51316
5.76147
6.16552
6.22315
-0.17491
5.81137
-5.14032
5.26714
-2.56007
-2.70707
5.44743
-5.58472
-1.24308
-5.49531
4.25223
0.401532
1.54196
-1.30948
-1.82873
-0.517646
-1.73381
1.32349
0.906392
1.39533
0.931482
1.51895
-2.95257
0.557609
2.39496
-2.02109
-1.58456
-3.78021
-1.13371
4.91392
5.71893
2.11077
-5.62164
-0.214592
2.57242
-2.46327
-0.753873
-3.02634
2.23664
-2.99052
-3.67393
-2.03955
5.71347
-3.36994
-0.459492
3.31691
0.553087
-3.82694
-2.09702
3.78832
0.329773
-3.12738
6.19053
-3.06315
-5.05778
2.5278
3.55931
4.53851
-4.78956
2.44738
2.34218
-1.23024
4.24467
0.908593
4.37987
-6.92033
4.69727
5.78832
3.22972
-6.14356
0.991049
-5.92928
8.5409
-7.36931
-1.17159
4.13854
4.40236
7.07894
5.46101
-5.67903
12.758
-1.20097
-6.16834
7.13026
-3.90054
4.84991
-8.75045
-10.3109
4.14258
-9.15567
10.933
-1.77728
-3.62519
-8.34085
12.7809
-1.2077
-11.5732
8.57431
-4.2396
-4.32151
8.56111
-6.85911
6.87128
-1.98873
-4.88255
-10.1116
-5.7001
10.2059
1.60807
-9.88684
12.2471
-2.6714
4.10354
0.716673
4.13401
3.28683
-5.46662
2.17979
3.57228
-5.56101
2.08692
-7.55355
-6.73475
12.0668
-5.332
-10.5049
-9.52349
-0.981384
2.53445
9.7126
-9.47605
7.43146
2.04459
3.30186
0.588216
-3.37381
-0.406836
0.239794
4.5292
-4.76899
4.03435
4.19767
3.28984
1.23936
3.8447
2.10758
-3.86972
-0.328546
-4.16231
1.4855
-1.74359
-3.69234
5.17784
-4.06629
0.373952
-2.74736
-3.49981
6.24717
-4.58055
3.03615
3.15438
5.08432
-4.91318
1.41337
-2.39338
-2.5198
2.65292
-4.39651
1.98951
3.18833
4.37179
0.564673
5.87527
6.19149
-8.47866
0.548542
11.237
-9.51927
2.46809
8.58462
-9.89955
0.376064
-8.69632
0.992337
-5.2464
-5.11253
5.18956
-6.91371
-3.56089
6.20279
0.65386
-6.31251
-0.404563
-6.03662
-2.84585
-6.48116
-3.04602
-6.1345
-8.72505
-1.65219
-7.07286
6.73768
-6.68458
-3.44407
7.41117
1.12555
-7.41161
7.31409
-7.49004
7.16319
0.0953039
3.62062
4.35727
1.88379
-2.39038
4.27417
-5.11325
7.40188
-8.69608
3.58283
4.1773
-6.74708
-4.51878
5.02474
4.01996
5.32357
8.8925
-10.3656
1.47311
-10.6654
11.9989
-1.33352
-16.4291
5.76369
-7.53661
2.46556
0.384073
2.57816
0.553123
2.49989
-3.05301
-2.20198
-2.11655
-2.42646
-3.46471
5.89117
1.10705
-3.51593
2.40888
-3.57008
4.67714
-0.192179
-3.32375
5.28452
-2.78463
5.66859
-3.76226
1.90632
3.42991
5.75021
-2.3203
4.39353
-1.75448
1.9153
-4.2356
-1.54941
-2.96299
5.10697
-3.28419
3.65814
-0.337978
3.99612
-4.05981
0.843671
-0.769971
3.4277
3.65151
4.31019
-3.07084
2.9238
-4.67829
-1.3118
-4.11361
-0.925281
-0.267078
-3.71118
3.97826
5.9909
-6.25798
-5.23742
9.53293
-4.29551
7.69672
-5.38442
-2.31229
-4.25555
-4.39014
3.88053
1.93085
9.62756
0.209491
-5.59391
-4.93083
-3.98058
3.1247
2.14244
-1.78818
3.45486
2.14729
-0.605329
0.453056
0.942272
1.78938
-1.33633
0.296261
1.49312
-1.01322
1.78363
0.788791
-1.88107
0.147256
-1.30572
3.54236
1.08924
-1.99564
0.65931
0.991307
-3.55138
5.01165
-2.65259
-2.35906
6.00295
1.1431
-3.79569
4.3522
-3.95067
2.374
-3.50771
-1.42169
-5.37236
-3.63317
-2.52905
4.93793
-3.36212
5.47289
1.264
-5.2583
6.5223
-3.7138
1.67426
-3.06977
3.85856
-0.963331
-2.10644
2.8958
2.81767
-3.04662
0.0202871
-0.150819
2.40193
-2.55274
-0.588592
-2.60968
-4.57314
4.90292
-2.1056
4.55298
2.16856
-1.91651
6.46949
1.80932
-3.72583
-3.24846
-3.70795
-1.38365
3.15486
-0.598588
-4.25505
-5.48114
4.16048
0.219395
-7.01478
7.82723
-0.812457
-4.00579
-0.691476
4.83002
-6.04712
0.48611
-3.96019
3.86704
4.77563
4.99503
-11.3583
-0.214869
-6.20885
1.12578
-7.33463
5.52813
-3.54445
7.68703
-10.3391
6.89499
-9.21351
6.51544
-0.819185
6.25141
-4.07162
2.76931
-8.46941
-6.86134
5.4788
-2.76386
6.19547
-3.12585
9.32132
-5.79725
5.26588
4.05544
-1.01162
-4.16179
-5.26055
4.24893
0.00532882
4.13934
4.97953
-2.87195
4.65098
2.26664
-4.66002
-2.12987
-6.49467
1.83465
-3.34028
-1.92005
3.7547
3.16427
3.75248
1.2349
-3.34565
7.18449
-8.16587
-1.85249
-3.26005
5.24546
-0.996533
3.39018
-6.65023
-1.85622
4.80716
-0.784037
-4.02313
0.854131
-4.41502
1.66845
-6.08347
5.24526
-5.64982
2.22195
-9.75856
-5.18967
-5.14627
-2.25889
-5.23115
-7.57587
5.31698
-1.81218
5.50191
-8.51496
7.73092
-3.48398
8.80096
-5.43037
-1.05079
5.84692
1.31626
10.1172
0.207241
-4.72603
-1.90677
3.86759
-1.96082
1.21792
-3.50394
0.363648
2.48945
3.5135
-6.74168
-0.00539926
-4.73142
-3.91836
7.93832
5.61457
11.6055
1.23986
9.12066
-1.18233
10.3605
4.14124
4.37752
-2.99664
4.46975
0.98162
4.56445
-0.91427
2.82059
1.66389
1.74911
0.714159
2.3058
1.34571
3.14947
0.0964603
-2.02009
4.62372
-8.6043
-0.970193
-8.03187
1.12877
5.71108
-4.58231
2.98191
-0.839465
1.02109
-0.0615867
-1.3243
1.38589
-2.76865
-1.92963
-0.43651
-1.67823
2.33754
1.86413
-1.90103
-0.867623
0.358691
-3.99186
3.14902
-3.12874
-0.311066
6.21123
-2.81736
0.264613
-1.1431
-2.34507
-2.86272
2.71546
6.17607
0.293422
3.11292
5.19634
3.09932
0.227369
3.90172
-5.679
-3.65183
-5.89387
-0.365736
4.46428
1.74866
7.96395
5.8041
4.80756
-1.84267
-10.0085
6.52994
-2.06019
5.19642
-1.1733
-4.91017
5.03794
2.36394
-5.6918
0.0419807
-4.86819
-6.92838
-0.513721
8.24465
-9.6035
8.55272
5.70687
1.36599
-4.40729
-0.738978
4.2405
0.137022
10.4975
-1.12819
-6.74015
7.86835
-4.58289
3.6127
0.765739
2.68913
2.15163
1.31216
-5.42799
-10.0103
-2.02645
-1.52493
-4.3855
0.52842
-2.39255
6.22749
-2.61479
3.9152
5.25355
6.27464
-2.13638
-4.12159
6.43189
-2.51669
3.75795
)
;

boundaryField
{
    wall-4
    {
        type            calculated;
        value           uniform 0;
    }
    velocity-inlet-5
    {
        type            calculated;
        value           uniform -3.75095;
    }
    velocity-inlet-6
    {
        type            calculated;
        value           uniform -5.62643;
    }
    pressure-outlet-7
    {
        type            calculated;
        value           nonuniform List<scalar> 8(3.32599 7.75099 4.44708 9.70231 7.4192 5.14145 5.75783 8.9685);
    }
    wall-8
    {
        type            calculated;
        value           uniform 0;
    }
    frontAndBackPlanes
    {
        type            empty;
        value           nonuniform 0();
    }
}


// ************************************************************************* //
