/*--------------------------------*- C++ -*----------------------------------*\
| =========                 |                                                 |
| \\      /  F ield         | OpenFOAM: The Open Source CFD Toolbox           |
|  \\    /   O peration     | Version:  4.0                                   |
|   \\  /    A nd           | Web:      www.OpenFOAM.org                      |
|    \\/     M anipulation  |                                                 |
\*---------------------------------------------------------------------------*/
FoamFile
{
    version     2.0;
    format      ascii;
    class       volVectorField;
    location    "60";
    object      U;
}
// * * * * * * * * * * * * * * * * * * * * * * * * * * * * * * * * * * * * * //

dimensions      [0 1 -1 0 0 0 0];

internalField   nonuniform List<vector> 
918
(
(0.985161 -0.000506403 0)
(0.00501291 2.96625 0)
(0.00927307 0.888742 0)
(0.979704 0.00214621 0)
(-0.0111769 2.06087 3.81654e-20)
(-0.00704739 2.94879 -2.47185e-18)
(0.817998 1.16051 4.47657e-19)
(0.150143 0.0823321 -1.49992e-20)
(0.999909 -0.000277526 0)
(0.0606199 0.738963 0)
(0.0134083 0.532589 0)
(0.735837 -0.017278 0)
(0.0111373 2.93031 0)
(0.00292183 2.79496 0)
(-0.0177142 3.1499 7.80387e-19)
(-0.0220287 1.91032 8.08743e-21)
(0.279935 0.0430248 1.01823e-18)
(0.187536 1.13644 3.18223e-19)
(0.962734 0.00501816 0)
(0.00859117 0.498232 0)
(-0.00660102 0.110415 -7.05632e-19)
(1.00197 -0.0049763 0)
(1.00022 -0.00978578 0)
(0.975736 -0.00643901 0)
(0.598254 0.0118706 0)
(0.0152233 2.64083 0)
(-0.0148142 2.90998 9.09547e-19)
(0.0109785 0.939215 0)
(-0.0149505 1.18106 0)
(0.0133169 0.921363 0)
(-0.0130738 2.59601 0)
(-0.000160342 2.11469 -3.048e-20)
(-0.0107312 1.89065 0)
(-0.0205977 2.98761 -8.88589e-23)
(-0.0166845 3.00529 1.92099e-18)
(0.00210303 3.00017 0)
(0.871267 -0.0096436 0)
(0.403146 0.934063 1.79523e-19)
(0.802588 1.17511 -5.10472e-19)
(0.954317 1.01986 5.53613e-19)
(0.671635 1.26674 -1.03639e-19)
(0.672945 1.24116 5.97249e-19)
(0.187975 0.138476 1.46331e-20)
(0.166573 0.0594397 0)
(1.15498 0.560659 0)
(0.162341 0.125136 6.67181e-20)
(0.126723 0.0778785 -6.9229e-20)
(0.919885 -0.00745533 0)
(1.00027 0.000160005 0)
(0.999909 0.000337956 0)
(1.00363 -0.00776142 0)
(1.00096 -0.000921347 0)
(1.00017 3.55071e-05 0)
(0.0735054 1.8252 -7.72707e-19)
(0.0270649 0.949101 0)
(0.0967173 0.811322 0)
(0.00879672 0.905562 0)
(0.0356088 0.668369 0)
(0.00633861 2.01027 0)
(-0.0002321 0.816661 0)
(0.0114375 0.551315 0)
(-0.00369647 0.811038 0)
(0.00921955 0.520099 0)
(0.841249 -0.0157593 0)
(0.839533 0.0328091 0)
(0.76734 -0.00888389 0)
(0.803877 0.0400236 0)
(0.702545 -0.00879727 0)
(0.0146871 3.00041 9.16332e-19)
(0.0114991 3.00808 0)
(0.00610791 3.00276 0)
(0.0135566 2.99738 1.0398e-23)
(0.00795795 2.95846 -1.3619e-18)
(0.014494 2.98197 0)
(0.0108674 2.90358 0)
(0.0245802 2.93044 2.08394e-24)
(0.00461642 2.8251 0)
(0.0309368 2.91635 0)
(-0.00499468 2.746 0)
(0.305797 3.54353 0)
(-0.131565 3.62439 0)
(0.138117 3.23995 -7.26224e-19)
(-0.0134674 2.97773 0)
(-0.0251305 1.98576 0)
(-0.00689392 2.16548 -7.97658e-21)
(-0.0162169 1.91837 1.44888e-21)
(0.358241 0.14576 -3.53522e-19)
(0.308065 0.0259491 -3.43217e-19)
(0.317276 0.152422 -1.05848e-18)
(0.244718 0.0512405 -6.89507e-19)
(0.228698 0.98119 0)
(0.271678 1.28654 -3.68451e-19)
(0.365508 1.22377 6.14643e-19)
(0.987441 0.00856912 0)
(0.941871 0.00583081 0)
(1.0003 0.000580381 0)
(1.00286 0.00930867 0)
(1.00301 0.00846979 -2.74322e-18)
(0.991909 0.00969617 2.07158e-18)
(-0.00619104 0.7974 0)
(0.00830873 0.508316 0)
(-0.0416897 1.00803 0)
(-0.0204611 0.837441 0)
(0.00599759 0.495524 0)
(-5.73781e-05 0.121988 2.17776e-19)
(0.0813228 0.0913398 0)
(0.993551 -0.00837221 0)
(0.954458 -0.00652909 0)
(0.746914 0.0375083 0)
(0.681452 0.0291982 0)
(0.66339 0.000870379 0)
(0.969605 -0.00760052 0)
(0.597263 0.0733813 0)
(0.446241 -0.0128743 1.53809e-18)
(-0.0369059 2.86277 6.70346e-19)
(0.0411244 2.91029 0)
(0.0537439 2.88586 0)
(-0.00394921 2.70034 0)
(-0.01328 2.98505 8.61326e-19)
(-0.0178925 2.89492 0)
(-0.0154758 2.98803 -2.67064e-18)
(-0.0132633 2.92516 9.14457e-19)
(-0.0250826 1.34479 0)
(-0.00139885 1.37391 0)
(-0.00699182 2.13045 4.7894e-22)
(-0.0057145 2.0924 0)
(-0.0237563 1.89787 0)
(0.93852 -0.00742189 0)
(0.857355 -0.0099571 0)
(0.863274 0.00574931 0)
(0.949547 -0.00784218 0)
(0.884007 -0.0081822 0)
(0.514682 1.1271 -2.26749e-19)
(0.563839 1.17816 0)
(0.367736 0.879006 3.35518e-20)
(0.31029 0.737706 0)
(0.914622 1.05797 -1.52526e-19)
(1.03153 0.86707 3.08858e-19)
(0.358885 1.34979 0)
(0.524156 1.32259 0)
(0.546982 1.26051 0)
(0.120663 0.184865 -3.02005e-19)
(0.211339 0.13623 0)
(0.193069 0.0723888 1.92601e-19)
(1.00266 0.921721 0)
(1.0759 0.775726 0)
(1.10097 0.717176 -2.44238e-19)
(1.13439 0.620173 0)
(1.18523 0.404232 5.68991e-20)
(0.957729 -0.00871996 0)
(0.962496 -0.0100441 0)
(0.901723 -0.00797736 0)
(0.9842 -0.00914946 0)
(0.974703 -0.00933894 0)
(0.937126 -0.0063709 0)
(1.00019 0.00233922 0)
(1.0009 0.00141275 0)
(0.99991 0.000854654 0)
(0.0353232 2.07389 4.28286e-19)
(0.119017 1.76819 0)
(0.0177242 2.18802 6.58115e-19)
(0.046267 1.87895 -5.48952e-19)
(0.104423 1.14396 -2.60685e-19)
(0.0460741 1.02604 0)
(0.142089 0.972421 0)
(0.00243862 0.866877 0)
(0.0165827 0.616244 0)
(-0.00134011 2.24118 -8.44117e-22)
(0.0157126 2.0152 0)
(-0.00212398 2.243 -3.13221e-20)
(0.00762971 2.01893 4.95477e-20)
(0.000600122 0.843224 0)
(0.00135874 0.825603 0)
(0.009945 0.580163 0)
(-0.00359721 0.802872 0)
(0.000848776 0.51275 0)
(0.938064 0.00970207 0)
(0.849668 -0.0147394 0)
(0.927338 0.000355449 0)
(0.842257 -0.0129299 0)
(0.812191 -0.00138125 0)
(0.899309 0.0217275 0)
(0.873018 0.0272327 0)
(0.788677 -0.00484986 0)
(0.0056246 3.06476 -8.54468e-21)
(0.0165943 3.05771 0)
(0.014605 2.96903 0)
(0.00865048 2.87625 0)
(0.921389 3.95671 0)
(1.23489 3.2901 9.27713e-19)
(0.0691133 3.07012 0)
(-0.0294034 2.90286 0)
(-0.00799457 1.39426 0)
(-0.0307486 1.69436 0)
(-0.0171009 1.5288 0)
(-0.0297032 2.55408 -8.0102e-21)
(-0.0134118 2.24342 0)
(-0.0189581 2.39179 0)
(-0.00188995 1.94476 9.05712e-22)
(-0.00342762 2.2384 -5.45663e-21)
(-0.00536978 2.20017 -1.63151e-21)
(-0.00994015 1.93051 0)
(0.408875 0.126122 5.39114e-19)
(0.35632 0.014719 -5.29042e-19)
(0.259085 1.58512 0)
(0.276874 0.754282 -3.15557e-19)
(0.177131 1.67231 -1.04889e-18)
(0.226102 1.21843 1.05122e-18)
(0.90204 0.00638414 0)
(0.967408 0.0111188 0)
(0.974551 0.0108072 0)
(0.923316 0.0064208 0)
(-0.00631586 0.79733 0)
(-0.00932372 0.796693 0)
(0.00504141 0.50457 0)
(0.143545 0.114193 6.17554e-19)
(0.1229 0.103636 -7.28891e-19)
(0.105499 0.0790107 0)
(1.09704 0.085681 2.71596e-20)
(1.07919 0.0391281 0)
(1.0119 0.0397463 0)
(0.906274 -0.00574572 0)
(0.458199 0.105589 0)
(0.517408 0.086846 -2.45758e-18)
(0.400698 0.0100632 9.19024e-19)
(0.00871476 2.98069 7.2033e-19)
(-0.0330603 2.86502 4.53226e-20)
(0.00363256 3.05029 -1.80925e-20)
(0.0201728 3.04331 6.43111e-19)
(-0.0149769 2.99656 3.00338e-20)
(-0.0129634 2.94945 -1.2079e-22)
(-0.0172865 3.01192 -5.55577e-19)
(0.014924 3.02366 4.02679e-19)
(0.00743382 3.03695 -6.38047e-19)
(0.933835 -0.0012663 0)
(0.939359 -0.00324168 0)
(0.84579 -0.0094572 0)
(0.956545 0.0118967 0)
(0.942688 0.0132312 0)
(0.881595 0.00587388 0)
(0.916887 0.0173207 0)
(0.925895 0.0150444 0)
(0.838509 0.00234678 0)
(0.717191 1.40438 4.15193e-20)
(0.750474 1.51309 0)
(0.18216 0.316299 7.05712e-20)
(0.227743 0.668501 5.68363e-19)
(0.262319 0.720826 -3.31898e-19)
(0.263669 0.523019 6.60211e-19)
(0.345396 0.809961 1.58951e-18)
(0.139941 0.229757 3.75311e-19)
(0.277299 0.154775 7.30373e-19)
(0.242193 0.149961 1.89499e-19)
(0.216354 0.0630365 3.59691e-19)
(1.17438 0.462358 6.02736e-20)
(1.19042 0.255894 5.56212e-20)
(0.00986781 2.23643 2.53597e-19)
(0.0404273 1.94638 0)
(0.969897 0.0291744 0)
(0.942814 0.0137798 0)
(0.868345 -0.0179867 0)
(0.0114413 3.07449 0)
(0.0198161 2.94412 1.17762e-18)
(0.0164083 2.95641 0)
(0.0063179 2.85053 -1.16835e-18)
(0.00626242 3.0913 2.85942e-19)
(0.00701941 3.08215 0)
(0.783283 1.81474 -1.59473e-19)
(1.2427 2.49073 4.05665e-19)
(0.765279 1.95413 -1.23201e-18)
(0.0197725 2.98122 -6.19941e-19)
(0.03499 2.99975 0)
(-0.0345755 2.87719 0)
(-0.00422336 2.222 -1.31486e-20)
(-0.00313136 2.2431 7.03837e-21)
(0.000854112 1.98019 -7.31889e-21)
(0.278084 1.39396 1.02478e-18)
(0.237623 0.547962 -7.027e-19)
(0.063666 1.9985 7.63103e-19)
(0.13537 1.88469 -9.10681e-19)
(0.180319 1.51052 9.48499e-20)
(0.00381192 3.11905 -1.7365e-18)
(0.0110602 3.11939 1.9119e-18)
(-0.00915119 2.98088 7.91661e-19)
(-0.00457132 2.9774 -7.45822e-19)
(-0.0211715 2.88054 -8.06298e-19)
(0.00843412 3.10011 -2.12616e-18)
(0.00201957 3.10478 2.1375e-18)
(0.2815 0.694793 0)
(0.248235 0.684103 -1.1807e-18)
(0.0958843 0.225391 5.24279e-19)
(0.357101 0.936669 1.11185e-18)
(0.195019 0.275503 -1.71419e-18)
(1.18284 0.174286 6.36538e-20)
(1.19093 0.310411 0)
(1.17122 0.12221 -7.43545e-21)
(0.00110911 2.25362 -1.48653e-21)
(0.00449532 2.2456 0)
(0.0246268 1.98148 0)
(0.340117 1.30281 -3.68054e-19)
(0.374219 1.14854 -7.99655e-19)
(0.209554 0.377017 1.42553e-18)
(1.00588 -0.0108351 0)
(1.00767 -0.00763741 5.06085e-19)
(-0.0207122 1.32508 0)
(-0.0354644 1.32259 0)
(1.00221 0.00351159 1.80965e-21)
(1.00366 0.00946486 1.03326e-18)
(-0.0177108 2.53851 1.01503e-20)
(-0.0234015 2.58132 0)
(0.034101 3.17725 4.09746e-19)
(0.391553 3.48501 0)
(1.172 0.660984 -5.88825e-20)
(1.01286 0.0131295 -2.13851e-21)
(1.02132 -0.010308 0)
(1.0017 0.000125923 7.80012e-23)
(0.107269 1.36463 0)
(0.144191 2.5721 0)
(0.0246193 1.30723 0)
(-0.00102428 2.62383 2.92599e-20)
(-0.0220808 2.58071 5.04273e-21)
(0.999052 0.0275325 1.96392e-21)
(1.06292 0.00455009 0)
(1.09721 0.0248649 0)
(-0.0289925 1.73677 0)
(-0.0188987 2.58187 0)
(-0.00471963 1.30781 0)
(0.312488 1.47862 -1.69417e-19)
(1.0113 -0.0096223 0)
(1.0094 -0.0149192 0)
(1.00237 0.000748829 6.46772e-19)
(1.00547 -0.00480371 -7.60152e-19)
(1.00118 -0.000973712 0)
(-0.0138179 1.46009 0)
(-0.00659357 1.372 0)
(-0.00713749 1.41792 0)
(-0.00845471 1.29592 0)
(-0.0162736 1.28407 0)
(-0.00832918 1.26543 0)
(1.03497 -0.00609471 0)
(1.01982 0.0156238 -8.45779e-22)
(0.820316 1.27295 2.59315e-19)
(1.00223 0.00031486 -6.44197e-19)
(1.00406 0.00525764 7.54266e-19)
(1.00118 0.00207293 0)
(1.01274 0.0103493 6.41156e-19)
(1.00799 0.0083092 -7.7686e-19)
(1.00856 0.0146937 0)
(-0.0237757 2.60973 0)
(-0.0252921 2.58899 -1.77293e-20)
(-0.0229232 2.60323 1.27032e-20)
(1.23599 0.266399 5.83755e-19)
(1.16137 0.0865725 0)
(0.0407352 3.07795 -9.15854e-19)
(0.0646018 2.85607 -6.66452e-20)
(0.138491 3.19231 1.40005e-18)
(0.133634 3.22012 -1.98608e-19)
(0.132978 3.23116 0)
(0.0192049 3.13749 2.36476e-19)
(0.074428 3.15988 9.03296e-19)
(0.0670524 3.1853 -4.45725e-19)
(0.0222436 3.12955 0)
(0.599066 0.278809 0)
(0.52491 0.304019 0)
(1.14283 0.697048 1.35253e-19)
(1.13735 0.818488 -1.20599e-19)
(1.19992 0.583776 0)
(1.2281 0.518623 0)
(1.01606 0.0133644 -1.19513e-18)
(1.01498 0.0142773 1.50022e-18)
(1.02535 -0.00982813 0)
(1.02342 -0.011866 0)
(1.00642 0.00261338 0)
(1.01041 0.00373056 0)
(1.00459 0.00185765 0)
(1.00979 0.0062395 0)
(1.00781 0.00596204 0)
(1.00451 0.00471053 0)
(0.0961903 1.36253 0)
(0.0908782 1.32788 0)
(0.12987 1.40162 0)
(0.146736 1.40576 0)
(0.145736 2.597 0)
(0.185618 2.66669 -4.23698e-19)
(0.101438 2.6527 0)
(0.0850921 2.65546 1.97931e-19)
(0.0381906 2.67824 -1.49389e-19)
(0.0178899 1.31844 0)
(0.0222499 1.24486 0)
(0.0193834 1.32923 0)
(0.0341075 1.26717 0)
(0.00269323 1.98405 1.71625e-21)
(-0.0208229 2.60851 -1.68651e-20)
(-0.00916199 2.66527 1.50225e-20)
(-0.0190689 2.68394 0)
(-0.0236408 2.61431 -8.38903e-21)
(-0.0238434 2.60914 1.0988e-20)
(0.0116083 1.98258 1.41375e-21)
(-0.0076107 2.39653 2.26278e-20)
(-0.0138094 2.41849 -1.70371e-20)
(1.009 0.0382663 1.21321e-18)
(1.0052 0.0162436 -1.50998e-18)
(1.00236 0.0459294 -1.23228e-18)
(0.976412 0.0310069 1.55353e-18)
(1.06414 0.0083479 0)
(1.04929 -0.00830256 0)
(1.09424 0.0349931 0)
(1.07423 0.0128623 0)
(1.07203 0.000481723 0)
(1.14017 0.0827705 0)
(1.1116 0.0443991 0)
(1.11524 0.032289 0)
(-0.0253543 2.43096 8.57755e-22)
(-0.0143737 2.01139 0)
(-0.0164693 2.21508 0)
(-0.0206869 2.6026 -1.01092e-20)
(-0.0179725 2.61257 1.5724e-22)
(0.00302451 1.57059 -3.40578e-20)
(-0.00525447 1.49929 3.46886e-20)
(-0.0144996 1.3884 0)
(-0.0180367 1.3951 0)
(-0.0227967 1.38992 0)
(-0.00339279 1.30871 0)
(0.00760098 1.23639 0)
(0.387412 1.49613 2.75862e-19)
(0.430377 1.49683 1.44997e-19)
(0.597717 2.44592 -2.40165e-19)
(0.39901 2.54318 7.06975e-19)
(0.350663 2.0558 7.12647e-20)
(1.02106 -0.00812449 0)
(1.0155 -0.00975321 0)
(1.01491 -0.0155045 0)
(1.00741 -0.00108995 0)
(1.00493 -0.000914968 0)
(1.00778 -0.00469808 0)
(1.00927 -0.00362237 0)
(1.01422 -0.00438682 0)
(1.02057 0.0162969 1.17073e-18)
(1.01771 0.0155675 -1.49747e-18)
(1.02087 0.0183048 -1.17965e-18)
(1.0185 0.0164488 1.4789e-18)
(0.783906 1.3239 0)
(0.720769 1.37371 2.45834e-19)
(0.894936 1.22337 9.65792e-20)
(0.940516 1.16812 -1.28485e-19)
(1.15502 2.60071 2.75881e-19)
(0.772383 0.121717 5.99243e-19)
(1.16323 0.108434 0)
(1.21167 0.193799 -4.69624e-19)
(1.19858 0.154919 -1.99613e-20)
(1.00632 0.155905 0)
(0.130064 2.95914 5.32967e-19)
(0.10662 2.8652 -1.16021e-18)
(0.0157813 2.3742 7.76646e-19)
(0.0934297 -0.132027 -3.35073e-19)
(0.336575 3.41488 -2.15052e-19)
(0.191426 3.30924 0)
(0.23522 3.34996 2.80073e-19)
(0.240654 3.03153 -1.77955e-18)
(0.334063 3.1898 0)
(0.00729809 3.12076 4.62295e-20)
(0.017248 3.12961 -5.43769e-19)
(0.0156742 3.12569 8.00342e-19)
(0.0350984 3.13956 0)
(0.0332254 3.15041 0)
(1.21106 2.59856 0)
(0.543617 0.809945 -5.28296e-19)
(1.06382 0.991843 -6.5625e-21)
(0.998056 1.07715 0)
(0.851317 0.973522 -1.10419e-19)
(1.0885 0.893021 2.80826e-20)
(0.322161 0.345743 -8.65553e-19)
(0.664036 0.320737 -1.7678e-20)
(0.581239 0.221866 4.10443e-19)
(0.551489 0.340806 3.02852e-20)
(0.444958 0.286126 -1.21712e-18)
(0.626586 0.323415 0)
(0.70535 0.420181 6.99858e-19)
(0.710522 0.422884 0)
(0.588939 0.339495 0)
(0.527075 0.248788 0)
(0.820627 0.621288 4.13394e-19)
(1.23698 0.288676 -4.91659e-19)
(1.23656 0.426951 0)
(1.2452 0.367702 0)
(0.697931 0.195232 6.19991e-19)
(0.869021 0.550121 -3.79519e-19)
(0.766291 0.520181 6.74346e-19)
(0.960773 0.44247 -7.40662e-19)
(1.01929 0.0149225 8.02963e-19)
(1.01762 0.0143332 -8.08195e-19)
(1.0159 0.0154068 0)
(1.03644 -0.00563345 0)
(1.02987 -0.00839765 -7.56984e-19)
(1.02791 -0.0119771 7.49458e-19)
(1.02487 0.010422 0)
(1.0234 0.0141495 0)
(1.01142 0.00414332 0)
(1.01421 0.00913385 0)
(1.01515 0.00414514 0)
(1.01426 0.00287487 0)
(0.0636766 1.34576 0)
(0.0680464 1.29555 0)
(0.145956 1.3843 1.26256e-20)
(0.282702 1.47691 9.10871e-20)
(0.176428 1.44818 1.92377e-19)
(0.209674 1.45298 -3.13077e-19)
(0.171875 1.40892 0)
(0.136744 1.60041 -7.07994e-20)
(0.119152 1.578 0)
(0.347665 2.00618 -1.03618e-19)
(0.343071 2.3413 6.14897e-19)
(0.194134 1.4628 6.17095e-20)
(0.26819 1.39565 2.40525e-20)
(0.202978 1.38689 -1.94686e-20)
(0.279104 1.33891 -1.01769e-19)
(0.244319 1.58112 0)
(0.26793 1.61838 1.11324e-19)
(0.030818 2.26312 -2.87492e-20)
(0.0433115 2.66757 0)
(0.0664315 2.3995 1.33875e-19)
(0.0629419 2.42037 0)
(0.0693498 2.66914 -2.19341e-19)
(0.0487887 2.69755 0)
(0.0263962 1.4278 3.00722e-20)
(0.0338757 1.47987 0)
(0.0284387 1.39578 0)
(0.023365 1.39978 -3.3932e-20)
(-0.000227053 2.65154 -1.72663e-20)
(0.0291731 2.69685 1.67748e-19)
(0.00970946 2.72162 1.18532e-21)
(0.00266992 1.83418 -1.10008e-21)
(-0.00308396 1.68679 -2.48253e-21)
(0.0139497 1.29946 0)
(0.0209808 1.22162 0)
(0.046387 1.5884 -2.66714e-20)
(0.0294634 1.4616 -3.24065e-20)
(0.0360352 1.52648 4.06676e-20)
(0.0395773 1.61266 0)
(-0.0294028 2.27044 9.32643e-20)
(-0.0304892 2.5496 -3.91697e-20)
(-0.0162848 2.44704 3.53525e-21)
(-0.00363084 1.85059 1.33291e-21)
(-0.0255797 2.49914 1.25723e-21)
(-0.0207972 2.44258 3.19281e-21)
(1.01869 0.0212024 -8.03202e-19)
(1.01427 0.0274583 8.0284e-19)
(1.01352 0.0172189 0)
(1.0114 0.0714242 1.12516e-18)
(0.991415 0.0585884 -1.26383e-18)
(0.949888 0.0537541 1.41196e-18)
(1.01404 0.11251 -1.50324e-19)
(1.04285 -0.00563543 0)
(1.05121 -0.00128418 7.2196e-19)
(1.03912 -0.00980077 -7.23466e-19)
(1.07161 0.0426807 -4.29323e-20)
(1.06479 0.0239868 3.70207e-19)
(1.0634 0.0567201 0)
(1.0537 0.050226 -1.33145e-19)
(1.0326 0.0432775 0)
(1.02547 0.0397347 0)
(1.02782 0.0135083 0)
(1.02385 0.0161538 0)
(1.04013 0.0326918 2.74291e-19)
(1.03916 0.0277343 -6.06512e-19)
(1.05111 0.0344312 -2.90638e-19)
(1.04826 0.03445 -3.20195e-19)
(1.07144 0.0650545 6.2437e-19)
(1.09685 0.0526793 0)
(1.10562 0.0967371 0)
(-0.025091 2.27556 5.21018e-20)
(-0.0237926 2.01758 5.94343e-22)
(-0.0201076 2.02482 0)
(-0.0267503 2.44482 -5.18691e-20)
(-0.0213152 2.40054 -1.41107e-21)
(-0.0328139 2.47233 5.03244e-21)
(-0.0210479 2.62176 -1.00559e-20)
(-0.0230655 2.56333 -7.37285e-23)
(-0.0214154 2.5149 -2.47859e-21)
(-0.0160992 2.6156 9.40405e-21)
(-0.021197 2.61761 -9.88848e-21)
(-0.00546935 1.4914 -5.28649e-22)
(0.00390119 1.61914 -3.17009e-20)
(0.372564 1.44467 -1.16796e-19)
(0.372002 1.38162 3.50647e-20)
(0.66148 1.42402 -2.37758e-19)
(0.529346 1.48996 -1.42604e-19)
(0.587693 1.45621 0)
(0.593559 2.42281 2.0693e-19)
(0.661801 2.41786 3.37519e-19)
(0.411485 2.51278 8.76428e-20)
(0.40295 2.53726 -6.09543e-19)
(0.510733 2.47866 6.13283e-19)
(0.553399 2.45969 0)
(0.488424 2.51731 -5.59394e-19)
(0.248784 2.59018 1.14411e-18)
(0.355018 2.56206 -7.77603e-20)
(0.284306 2.65185 -1.58681e-18)
(0.947951 2.37553 7.26384e-19)
(0.838248 2.38073 0)
(1.01106 0.000514123 2.62355e-20)
(1.01534 -0.00539138 -2.12842e-20)
(1.01767 -0.00350513 -3.88745e-19)
(1.01502 -0.000863754 3.90793e-19)
(1.01244 0.00122761 0)
(0.647063 1.28876 0)
(0.668992 1.18375 0)
(0.782382 1.10293 0)
(0.661851 1.14694 0)
(1.185 2.61432 5.97694e-20)
(1.07309 2.36149 0)
(0.834878 2.16752 3.81891e-21)
(0.824228 2.43261 0)
(0.922088 2.52604 -4.21284e-19)
(0.957332 2.48216 2.80252e-19)
(0.800393 0.180807 0)
(0.747561 0.154471 1.62608e-19)
(0.911078 0.15096 9.4649e-19)
(0.82653 0.154711 -3.55389e-19)
(0.783298 0.0901858 -1.09232e-18)
(1.08171 0.239734 -8.93011e-19)
(0.999086 0.301498 -1.70657e-20)
(0.929446 0.304825 8.61354e-19)
(1.00781 0.232195 7.21277e-19)
(0.949624 0.197016 -1.25305e-18)
(0.912893 0.201327 1.56685e-19)
(0.952001 0.266654 -3.32488e-19)
(0.928201 0.228026 0)
(0.995373 0.193218 6.17942e-19)
(1.04712 0.193006 0)
(1.04466 0.221058 0)
(1.10713 0.120611 2.89911e-19)
(1.07115 0.179994 -1.49302e-20)
(1.0754 0.239918 -1.57798e-19)
(1.10172 0.206143 0)
(1.02332 0.0470415 6.17638e-19)
(1.0394 0.0601535 7.71415e-19)
(1.03435 0.0460454 -6.12573e-19)
(1.04327 0.067424 -5.16973e-19)
(1.02123 0.075671 -7.9228e-19)
(0.98671 0.16037 0)
(0.99328 0.106164 0)
(0.964558 0.0712988 -5.0179e-19)
(0.906711 0.0973834 1.99195e-19)
(1.03968 0.10733 7.1563e-19)
(1.06946 0.124139 -8.36197e-19)
(1.07576 0.15647 7.46696e-19)
(1.03061 0.148713 0)
(1.07524 0.111687 0)
(1.05494 0.0928212 -3.42648e-19)
(1.04346 0.0967471 -5.84702e-19)
(0.578887 1.058 1.39028e-19)
(0.60553 1.38516 -4.05828e-20)
(1.15487 2.73026 -2.25917e-19)
(1.22065 3.07246 1.53834e-21)
(1.24677 2.71318 -1.21325e-19)
(1.27548 2.69657 -3.33123e-20)
(1.20304 2.33686 -1.09442e-20)
(1.20831 2.97632 -9.19665e-20)
(1.22836 2.94174 2.32213e-19)
(1.21086 3.22545 -1.43726e-19)
(1.37071 2.95649 1.98625e-19)
(1.35959 2.87461 0)
(0.559386 0.818466 -5.01431e-20)
(0.114658 1.23074 5.69463e-19)
(0.551601 0.374215 5.64325e-19)
(0.389861 0.12125 6.15324e-19)
(0.486042 0.32638 6.88918e-19)
(0.542641 0.441222 -1.11039e-18)
(0.544902 0.438195 9.08428e-19)
(0.470506 0.332166 -3.4505e-19)
(0.356597 0.261534 7.83116e-19)
(0.717873 0.266943 -3.57763e-19)
(0.678881 0.290374 0)
(0.629372 0.207992 7.17268e-21)
(0.739737 0.505579 3.6851e-19)
(0.715262 0.476455 -1.34108e-18)
(0.619291 0.449417 1.21175e-20)
(0.619958 0.439059 0)
(0.688588 0.719802 3.97393e-19)
(0.849404 0.777547 3.96721e-19)
(0.773671 0.860772 -4.64186e-19)
(0.896392 0.815533 -1.55578e-19)
(0.928076 0.860388 -3.76784e-20)
(0.93515 0.860409 3.85843e-20)
(0.862481 0.656565 -6.84614e-19)
(0.942842 0.710553 1.44491e-19)
(1.00288 0.726528 0)
(0.99372 0.703135 -1.95491e-19)
(1.02848 0.341396 2.13162e-19)
(1.14826 0.304619 2.89115e-19)
(1.06938 0.276898 3.65066e-19)
(1.01729 0.373692 -4.3212e-19)
(1.06577 0.436185 0)
(1.12157 0.419723 0)
(0.92355 0.37664 2.30154e-21)
(0.841293 0.312342 0)
(0.884923 0.30863 4.0666e-19)
(0.911134 0.312937 -7.37942e-21)
(0.954493 0.445518 2.06334e-18)
(0.91449 0.500769 5.31852e-19)
(0.92018 0.467863 -5.66495e-19)
(0.837791 0.453182 6.07352e-19)
(0.820889 0.445519 3.64233e-19)
(0.790603 0.427749 -3.58284e-19)
(1.02736 -0.00025078 6.47548e-19)
(1.01999 5.11949e-05 0)
(1.01852 0.000978832 4.22233e-19)
(1.02172 -0.00156472 -9.56476e-19)
(1.02235 0.00446865 4.64655e-19)
(1.02032 0.0114792 -9.7302e-19)
(1.02123 0.0108464 0)
(1.02048 0.0110639 -2.02799e-19)
(1.01595 0.00782426 5.08769e-19)
(1.01662 0.0106033 -2.53865e-19)
(1.01732 0.00995312 1.86958e-19)
(0.0273282 1.32044 0)
(0.0338122 1.3691 0)
(0.0430724 1.32194 0)
(0.0472109 1.27366 0)
(0.071123 1.3938 -5.15711e-20)
(0.0780084 1.36211 2.25569e-20)
(0.117225 1.53815 -1.20455e-20)
(0.100235 1.38475 -7.84088e-21)
(0.03466 1.46718 1.50729e-20)
(0.0386412 1.46085 -1.14876e-20)
(0.0624581 1.37865 -8.96208e-21)
(0.0541086 1.37964 4.47235e-20)
(0.047276 1.35439 6.54027e-21)
(0.0383023 1.3773 3.3031e-21)
(0.107873 2.36866 -1.47754e-19)
(0.0967949 2.41629 0)
(0.171799 2.04355 1.07186e-19)
(0.113809 1.70981 3.81203e-20)
(0.234496 2.03777 -8.9354e-20)
(0.201741 2.42883 0)
(0.263549 2.3787 -6.04348e-19)
(0.303793 2.37632 4.27212e-19)
(0.231106 1.99883 -2.47553e-19)
(0.156238 2.15782 1.69087e-19)
(0.142452 2.26516 0)
(0.0179468 1.87939 5.79001e-21)
(-0.000553976 2.39355 -3.54655e-20)
(0.00552049 2.15015 0)
(0.0110207 2.45628 -1.35866e-20)
(0.0279744 2.30008 8.77216e-21)
(0.0158382 1.40837 -6.36185e-21)
(0.0144382 1.39272 1.07788e-19)
(0.0137384 1.39836 -3.54425e-20)
(0.0207857 1.40047 -3.01846e-20)
(0.0251232 1.43157 0)
(0.00975247 1.38006 0)
(0.00158243 1.29403 -4.28066e-20)
(0.0063529 1.37166 1.19956e-20)
(0.00935056 1.37186 0)
(0.00871659 1.28736 -3.21776e-20)
(0.0175922 1.21274 6.54008e-20)
(1.04076 0.0119923 0)
(1.04692 0.00823456 -6.77369e-20)
(1.03863 0.0220621 -4.88953e-19)
(1.04836 0.0209335 0)
(1.05239 0.0208294 0)
(1.03631 0.0121915 -6.81709e-21)
(1.03096 0.01201 7.85867e-19)
(1.03168 0.0169591 9.5271e-19)
(1.02545 0.0208442 0)
(1.02223 0.0212034 0)
(1.03511 0.0258591 4.87694e-19)
(1.0255 0.0274102 0)
(1.02355 0.0275484 0)
(-0.0185755 2.02233 0)
(0.00102269 1.6497 -4.35083e-21)
(-0.00487015 1.75814 -2.98808e-20)
(0.000164664 1.38189 0)
(-0.0069638 1.54986 -1.67334e-20)
(-0.00817483 1.45933 1.08152e-20)
(-0.00324762 1.39515 0)
(0.390026 1.64777 0)
(0.374914 1.30898 -6.95421e-20)
(0.302521 1.34338 0)
(0.427806 1.30671 4.72704e-21)
(0.477126 1.46755 0)
(0.4577 1.41316 2.58545e-20)
(1.0366 2.67656 -1.53549e-20)
(0.968484 2.40433 -9.12975e-19)
(0.921471 2.1923 1.0246e-18)
(0.852236 2.37262 2.41967e-19)
(0.847976 2.48645 0)
(0.917807 2.48258 0)
(0.931288 2.3691 0)
(0.910224 2.35821 -9.43845e-19)
(0.687551 2.4508 -3.94021e-19)
(0.80051 2.44036 -9.7579e-20)
(0.810857 2.41442 7.41616e-20)
(0.695763 2.39099 0)
(0.800878 2.38617 0)
(0.759101 2.39961 -3.68552e-19)
(0.768011 2.47639 0)
(0.627387 1.09361 0)
(0.48055 0.903925 -5.08498e-19)
(0.56402 0.946256 -3.22164e-20)
(0.519244 1.0367 0)
(0.519533 0.98104 7.61922e-19)
(0.794348 0.883742 -1.30379e-19)
(0.805698 1.0204 0)
(0.780582 0.986864 1.86492e-19)
(0.66303 1.03362 0)
(0.664823 0.936156 0)
(1.16383 2.75312 -2.29125e-19)
(1.14128 2.81647 -9.65541e-20)
(0.929501 2.33154 9.94231e-20)
(0.897369 2.31083 -8.30406e-20)
(1.12936 2.7261 0)
(1.08318 2.69561 9.99077e-20)
(1.08933 2.4795 -3.13482e-19)
(0.983877 2.23216 -3.04265e-20)
(0.493191 1.33326 0)
(0.508414 1.06245 -1.22546e-19)
(0.575533 1.16751 0)
(0.854898 0.246701 0)
(0.765558 0.196052 0)
(0.684339 0.1555 0)
(0.845826 0.248463 -6.40087e-19)
(0.738937 0.239136 3.73183e-19)
(0.923125 0.0874011 -4.1117e-19)
(0.930873 0.131446 0)
(0.91689 0.140253 1.77196e-19)
(0.852536 0.118511 7.09033e-19)
(0.816625 0.0788328 -4.44827e-19)
(1.15635 3.35051 -7.1993e-19)
(1.20517 3.26997 0)
(1.1541 3.37933 -1.49021e-18)
(0.642526 3.54069 1.26472e-18)
(0.864625 3.10929 7.3572e-20)
(0.520553 0.808519 6.03633e-19)
(0.424935 0.805213 0)
(0.313085 0.406051 -1.49395e-19)
(0.468659 0.655697 8.57383e-19)
(0.554442 0.377141 -1.98244e-19)
(0.513024 0.472061 2.32337e-19)
(0.671403 0.514412 4.97345e-19)
(0.708932 0.549524 0)
(0.659564 0.581809 0)
(0.622472 0.530768 0)
(1.00443 0.612846 8.99276e-20)
(0.919415 0.55067 -5.1777e-19)
(0.94463 0.582778 3.90529e-19)
(0.97637 0.522163 -4.00372e-19)
(1.08362 0.492894 0)
(1.09209 0.582977 -9.78733e-20)
(0.858335 0.40622 -8.33882e-19)
(0.858013 0.395534 -1.03392e-18)
(0.795136 0.390305 6.4995e-19)
(0.803578 0.367127 -6.60806e-19)
(0.846346 0.330764 -5.21261e-19)
(0.795064 0.331757 6.38073e-19)
(1.02667 0.00602988 -4.93735e-19)
(1.02637 0.00625248 1.00399e-18)
(1.02943 0.000190823 6.27525e-19)
(1.03364 0.00110038 -7.55743e-19)
(1.03377 0.00921843 0)
(1.03004 0.00991586 -1.23059e-18)
(0.0637242 1.64467 1.95603e-20)
(0.0479158 1.58738 0)
(0.0885817 1.6951 1.16995e-19)
(0.0987001 1.67709 -1.0254e-19)
(0.091262 1.54592 2.25736e-20)
(0.0906209 1.53984 0)
(0.0108361 1.68282 0)
(-0.00363926 1.48892 6.28549e-21)
(-0.00209358 1.43491 -5.65314e-21)
(-0.0074128 1.54653 5.39261e-21)
(0.00140879 1.88291 9.38128e-21)
(-0.0104337 1.93595 -1.01768e-21)
(0.497508 1.35963 -2.74572e-19)
(0.490974 1.3608 3.01599e-19)
(0.454439 1.30177 -3.01564e-20)
(0.437444 1.28663 7.72462e-21)
(0.639188 1.30693 0)
(0.555607 1.39652 1.05678e-19)
(0.570738 1.40396 -1.02872e-19)
(0.46817 1.28991 2.93618e-20)
(0.521616 1.2408 0)
(0.573262 1.20319 0)
(0.654581 2.41044 5.7882e-19)
(0.669984 2.45173 1.25976e-18)
(0.714442 2.46245 -8.6795e-19)
(0.610719 2.4366 -2.01838e-19)
(0.560597 2.52684 2.83449e-19)
(0.509743 2.50152 -7.56122e-19)
(0.978303 2.37567 -5.73341e-19)
(1.0127 2.38789 0)
(0.925842 2.17022 -6.59558e-19)
(1.05409 2.67465 0)
(1.05637 2.66125 0)
(0.600924 2.26012 -1.22614e-19)
(1.03746 3.15514 1.32021e-19)
(0.908555 3.02556 -3.60356e-20)
(0.267192 0.858958 0)
(0.295863 0.705294 -3.16786e-19)
(0.464452 0.664189 -3.18021e-19)
(0.380641 2.00483 0)
(0.462742 2.77974 -5.12141e-20)
(0.416906 2.54248 0)
(0.710455 0.669699 -8.40126e-19)
(0.793477 0.682718 1.12941e-18)
(0.815071 0.625247 -1.11605e-18)
(0.689385 0.633131 -1.07965e-19)
(0.744104 0.589422 -4.43405e-19)
(1.00102 2.75496 -1.00403e-19)
(1.04141 2.81538 -1.62671e-19)
(0.633197 2.12633 6.87865e-19)
(0.586189 1.694 -4.90294e-19)
(0.694657 1.8918 -4.0437e-19)
(0.987236 2.4386 -1.12989e-19)
(0.993915 2.43171 2.94363e-19)
(0.651547 1.82666 2.80794e-20)
(0.442518 1.31403 1.4355e-19)
)
;

boundaryField
{
    wall-4
    {
        type            noSlip;
    }
    velocity-inlet-5
    {
        type            fixedValue;
        value           uniform (1 0 0);
    }
    velocity-inlet-6
    {
        type            fixedValue;
        value           uniform (0 3 0);
    }
    pressure-outlet-7
    {
        type            zeroGradient;
    }
    wall-8
    {
        type            noSlip;
    }
    frontAndBackPlanes
    {
        type            empty;
    }
}


// ************************************************************************* //
