/*--------------------------------*- C++ -*----------------------------------*\
| =========                 |                                                 |
| \\      /  F ield         | OpenFOAM: The Open Source CFD Toolbox           |
|  \\    /   O peration     | Version:  4.0                                   |
|   \\  /    A nd           | Web:      www.OpenFOAM.org                      |
|    \\/     M anipulation  |                                                 |
\*---------------------------------------------------------------------------*/
FoamFile
{
    version     2.0;
    format      ascii;
    class       volScalarField;
    location    "75";
    object      p;
}
// * * * * * * * * * * * * * * * * * * * * * * * * * * * * * * * * * * * * * //

dimensions      [0 2 -2 0 0 0 0];

internalField   nonuniform List<scalar> 
918
(
0.557294
1.17736
0.00129743
0.556754
-0.0125557
1.14438
-0.512443
0.652962
0.537501
-0.10698
-0.0561177
0.539823
1.00488
0.770597
-1.12414
-0.011617
0.651688
-0.382122
0.536624
-0.0632634
0.681708
0.544034
0.547058
0.537635
0.597077
0.744997
0.885794
0.0267249
0.0107371
0.0061831
-0.0119998
-0.0387255
-0.0328903
1.02805
1.07911
1.1018
0.505218
0.333912
-0.378078
-0.451529
-0.437885
-0.542296
0.653695
0.654249
-0.215731
0.654986
0.654813
0.524508
0.53687
0.537783
0.538795
0.537785
0.539162
0.402985
-0.107941
-0.139351
-0.0876415
-0.0809122
0.050794
-0.0562573
-0.058231
-0.0549509
-0.0542295
0.454298
0.534218
0.530648
0.544107
0.553313
1.11691
1.08885
1.11499
1.02855
1.04511
0.982886
0.955554
0.791445
0.813167
0.755467
0.743837
-1.55424
-2.50283
-0.535788
-0.285867
-0.010594
-0.00972778
-0.00432321
0.649026
0.650132
0.651278
0.653083
1.07889
-0.379468
-0.480702
0.536767
0.535578
0.54389
0.544591
0.540612
0.539702
-0.054405
-0.0514907
-0.0531755
-0.0586113
-0.0566639
0.662759
0.665744
0.538162
0.535164
0.560858
0.581336
0.571399
0.277133
0.608173
0.624229
0.57822
0.740232
0.732198
0.741909
0.859301
0.822855
0.923073
0.94621
0.0178888
-0.00015743
-0.0160309
-0.0197958
-0.0186599
0.501044
0.493577
0.521302
0.50866
0.511171
0.250867
0.117833
0.418746
0.443488
-0.297677
-0.365259
-0.43029
-0.460775
-0.568464
0.613489
0.654525
0.653045
-0.225109
-0.153433
-0.287447
-0.0803134
-0.143525
0.514756
0.521783
0.516774
0.532347
0.526808
0.528774
0.541146
0.538214
0.539775
0.465073
0.588561
0.329255
0.293719
-0.243238
-0.154746
-0.242572
-0.0708732
-0.0683624
0.0648566
0.0905589
0.0374962
0.0256844
-0.0644462
-0.0594473
-0.0617949
-0.0532555
-0.0527724
0.447018
0.435748
0.467006
0.474578
0.52055
0.522063
0.526567
0.524626
0.906406
0.928629
0.936258
0.910147
-3.48933
-6.26567
0.0378433
0.173689
-0.00664836
-0.00934633
0.00204098
-0.00600555
6.7757e-05
-0.00205642
-0.0094723
-0.0107896
-0.00561682
-0.0043828
0.643548
0.644506
1.00136
1.00875
0.976619
0.929574
0.52501
0.527069
0.532556
0.528442
-0.0517273
-0.0510332
-0.0508708
0.656871
0.660582
0.658929
0.23845
0.148316
0.328417
0.357703
0.637106
0.626126
0.63543
0.637501
0.673668
0.953564
0.971765
0.970067
0.978494
1.02262
1.03909
1.00431
0.48043
0.490444
0.485373
0.52421
0.522071
0.522928
0.519404
0.520352
0.518597
-0.0323132
-0.41138
0.490885
0.507365
0.493115
0.495143
0.693587
0.772159
0.652471
0.653454
0.65332
-0.010641
-0.0691609
0.248792
0.214517
0.386323
0.422879
0.401768
0.877479
0.838075
0.888137
0.861401
0.822959
0.848372
-0.36292
-1.85931
-0.980155
0.52146
0.33662
0.423139
0.00745876
-0.00910752
-0.00461122
1.00151
1.07344
0.644367
0.819454
0.821863
0.711306
0.741053
0.796004
0.72273
0.756658
0.790773
0.771845
0.569333
0.504086
0.520436
0.841063
0.896613
0.117763
0.0554772
0.0117433
0.109651
0.167188
0.14112
1.03334
0.950113
1.02008
0.534926
0.53565
-0.00550446
-0.0182775
0.539908
0.539965
-0.0128905
-0.00202852
0.406754
-0.831624
0.0958215
0.528506
0.518362
0.535518
-0.0929592
0.354427
-0.0569313
0.0461633
-0.0106025
0.529842
0.465445
0.424452
-0.000276026
-0.0207681
-0.053562
-0.213414
0.532596
0.5309
0.534986
0.535923
0.536606
-0.0193034
-0.0150652
-0.0104443
-0.0501187
-0.0423583
-0.0553618
0.499381
0.518804
-0.171566
0.535134
0.537271
0.537088
0.530362
0.535987
0.534242
-0.011413
-0.0161451
-0.0185262
0.218251
0.351256
0.645032
0.730246
0.617887
0.394337
0.160345
0.548953
0.61186
0.518154
0.670987
0.649621
0.651009
0.161302
0.0107904
0.170427
0.112311
0.526373
0.525114
0.516612
0.513567
0.530386
0.528503
0.533059
0.530089
0.533039
0.534416
-0.0496849
-0.0755627
-0.0851556
-0.151718
0.309219
0.570233
0.253906
0.283186
0.140405
-0.0506437
-0.0523509
-0.05408
-0.0606404
-0.000200717
-0.026443
0.0408164
0.0409401
0.0127701
-0.0130198
-0.0106719
-0.0218025
-0.0158592
0.523104
0.523165
0.527552
0.53625
0.475123
0.478912
0.443665
0.464489
0.44968
0.388195
0.423723
0.398846
-0.00623886
0.00204155
-0.00304171
-0.0189125
-0.0156144
-0.0347394
-0.0317501
-0.0274148
-0.0230225
-0.0298835
-0.0479676
-0.0513799
-0.171414
-0.287303
0.987994
0.908122
0.13785
0.521737
0.5282
0.524957
0.529897
0.533026
0.533819
0.531522
0.528067
0.519052
0.520585
0.517227
0.518225
-0.10258
-0.244544
-0.0728523
-0.148098
0.146029
0.628161
0.363142
0.29811
0.293577
0.523093
0.914682
0.696793
0.663263
0.657225
-0.344533
0.043252
-0.281429
0.332988
0.160866
0.644307
0.693583
0.715762
0.663466
0.61663
-0.0992653
0.555937
-0.0761882
-0.0234504
0.17873
0.0533443
0.653134
0.638354
0.645897
0.644641
0.655981
0.640432
0.621866
0.622471
0.64071
0.646672
0.481053
0.248884
0.199258
0.160792
0.643186
0.514249
0.562789
0.488429
0.521716
0.524231
0.522889
0.50422
0.511821
0.507334
0.513886
0.517544
0.526109
0.526597
0.521837
0.523967
-0.0561758
-0.0619947
-0.0259373
-0.135744
-0.128399
-0.190653
-0.0597812
0.0745055
0.0361297
0.236981
0.340201
0.0516534
-0.0572444
-0.0300851
0.0124569
0.17963
0.208427
0.0733527
0.16061
0.152392
0.133213
0.236187
0.239355
-0.031465
-0.0326875
-0.0377709
-0.0407541
0.0173116
0.0886688
0.0980996
-0.00970045
-0.014806
-0.0489053
-0.0499102
-0.023745
-0.0286746
-0.0238592
0.00342399
-0.0532705
-0.0211393
-0.00737848
-0.00765995
-0.00746504
-0.012941
0.517977
0.519724
0.519946
0.528475
0.540551
0.555285
0.521412
0.497384
0.48815
0.49116
0.464105
0.474381
0.47025
0.483817
0.505034
0.513603
0.5119
0.514705
0.497053
0.498818
0.485304
0.488949
0.464138
0.444677
0.432653
-0.0431784
-0.00482184
-0.012986
-0.0385704
-0.00902214
-0.0209178
-0.0126783
0.00669061
-0.0101634
-0.0111301
-0.0214213
-0.0277555
-0.0272391
-0.0733145
0.0136022
-0.185355
-0.220375
-0.293942
0.89026
1.01449
0.809132
0.581883
0.602705
0.846268
0.930332
0.54212
0.734647
0.757731
0.588193
0.855222
0.526591
0.526183
0.523783
0.523262
0.524484
-0.00701423
0.0998462
0.0968251
0.161134
0.277808
0.38919
0.321204
0.195592
0.325403
0.327826
0.621007
0.633043
0.588932
0.61284
0.613594
0.424893
0.500505
0.552284
0.513412
0.565849
0.587658
0.541258
0.574556
0.523533
0.478796
0.474939
0.424531
0.444129
0.419607
0.402738
0.516602
0.493574
0.50441
0.494708
0.516398
0.54347
0.540548
0.562672
0.577748
0.49785
0.452843
0.462201
0.492402
0.45393
0.469487
0.48533
0.23403
0.136446
0.219207
-0.0653728
0.00432404
-0.00779753
-0.0567555
-0.00478524
0.279257
-0.410998
-0.387861
-1.0141
0.505269
0.952587
0.581105
0.558939
0.657323
0.64511
0.651516
0.668264
0.663411
0.631702
0.64027
0.644979
0.591682
0.612574
0.630859
0.626781
0.524152
0.380057
0.380212
0.327119
0.197388
0.237644
0.433067
0.357463
0.282738
0.282807
0.455991
0.342254
0.412799
0.445399
0.376587
0.331336
0.534457
0.600843
0.593737
0.567657
0.477038
0.488865
0.51349
0.546938
0.570181
0.603574
0.513328
0.519283
0.520516
0.517983
0.515243
0.518353
0.518637
0.521242
0.521813
0.52485
0.523932
-0.0530163
-0.0393219
-0.0504906
-0.0620624
-0.0183136
-0.0212145
0.0222561
0.00995541
-0.0166031
-0.0124165
-0.0336567
-0.0376857
-0.0344863
-0.0269072
0.102441
0.115076
0.0998941
0.0596395
0.250275
0.380144
0.454477
0.329258
0.223642
0.247957
0.266529
-0.0137106
0.0119683
-0.000562342
0.0387428
0.0308438
-0.0409334
-0.0451901
-0.0413699
-0.0328055
-0.0247109
-0.0417437
-0.0475529
-0.0381146
-0.0429971
-0.0463296
-0.0505607
0.499657
0.493136
0.494734
0.488662
0.487383
0.501627
0.505942
0.507886
0.51333
0.51568
0.505724
0.511144
0.515137
-0.0135907
-0.0366901
-0.0399865
-0.0323666
-0.0335999
-0.0309782
-0.0326503
0.123983
0.0550624
0.0587267
0.0114363
-0.1214
-0.0632864
0.492856
0.491621
0.480597
0.721773
0.570969
0.492039
0.589229
0.694894
0.276951
0.473246
0.308671
0.888538
0.785505
0.931721
0.542415
0.246764
0.412028
0.453522
0.267768
0.344173
0.323811
0.213044
0.243648
0.282643
0.381216
0.266894
0.243986
0.000327808
0.19144
0.302761
0.284714
0.408741
0.469139
0.268326
0.187807
0.142717
0.605126
0.624882
0.638295
0.610257
0.632953
0.581603
0.573678
0.589032
0.597034
0.590978
-0.742646
-0.448924
-1.39616
-0.720178
-0.263935
0.535832
0.509186
0.769873
0.644658
0.676078
0.660464
0.620436
0.590791
0.61663
0.637936
0.338313
0.448833
0.423926
0.430088
0.333001
0.26291
0.561535
0.559259
0.591914
0.615935
0.588094
0.618448
0.51113
0.510851
0.51032
0.506557
0.504814
0.507164
0.0579118
0.025199
0.0664857
0.0486857
0.0264453
0.0149088
-0.0137548
-0.0239711
-0.0303742
-0.0294703
-0.0149375
-0.0110777
0.173126
0.110022
0.0304087
0.0591541
-0.00186388
-0.0703698
-0.089797
0.0162842
0.112529
0.102682
0.405794
0.654772
0.474871
0.642326
0.485249
0.540916
0.46886
0.459915
0.484698
0.380665
0.461162
0.253705
-0.254974
-0.164287
0.795932
0.806031
0.581367
0.407753
0.174931
0.350914
0.539798
0.468906
0.504311
0.573331
0.560023
0.0324046
0.0889299
0.379162
0.605908
0.242516
0.233415
0.226784
0.412227
0.329775
)
;

boundaryField
{
    wall-4
    {
        type            zeroGradient;
    }
    velocity-inlet-5
    {
        type            zeroGradient;
    }
    velocity-inlet-6
    {
        type            zeroGradient;
    }
    pressure-outlet-7
    {
        type            fixedValue;
        value           uniform 0;
    }
    wall-8
    {
        type            zeroGradient;
    }
    frontAndBackPlanes
    {
        type            empty;
    }
}


// ************************************************************************* //
