/*--------------------------------*- C++ -*----------------------------------*\
| =========                 |                                                 |
| \\      /  F ield         | OpenFOAM: The Open Source CFD Toolbox           |
|  \\    /   O peration     | Version:  4.0                                   |
|   \\  /    A nd           | Web:      www.OpenFOAM.org                      |
|    \\/     M anipulation  |                                                 |
\*---------------------------------------------------------------------------*/
FoamFile
{
    version     2.0;
    format      ascii;
    class       surfaceScalarField;
    location    "75";
    object      phi;
}
// * * * * * * * * * * * * * * * * * * * * * * * * * * * * * * * * * * * * * //

dimensions      [0 3 -1 0 0 0 0];

internalField   nonuniform List<scalar> 
1300
(
3.75095
5.62643
-3.31512
3.75095
-7.76174
5.62643
-4.39613
4.39613
-0.334186
0.334186
1.87639
1.87457
-2.68967
2.68967
-2.04631
2.04631
-2.52169
2.52169
-5.24648
5.24648
-5.06941
5.06941
4.65287
-4.65287
-6.31537
6.31537
-0.938884
0.938884
-3.68504
3.68504
3.1696
-3.1696
-2.03387
2.03387
0.0625918
-0.0625918
-0.553471
4.30442
3.19748
3.19748
-2.0112
2.0112
-4.86925
4.86925
6.21805
-6.21805
5.30001
-5.30001
-1.98489
-2.46941
1.80793
-11.4867
-5.95381
-5.95381
-8.44037
8.44037
-2.81394
2.81249
2.94637
-2.94637
-1.7711
1.7711
-4.35897
-0.0371668
-4.35897
4.36564
0.0304912
4.36564
-0.439897
0.105711
-0.439897
4.00371
-4.00371
0.238089
0.0960971
0.238089
3.06538
-3.06538
-1.87712
3.7535
1.87384
-1.8719
6.17632
-1.87905
3.75362
-6.01419
6.01419
-2.93412
0.244453
-2.93412
2.47727
0.212402
2.47727
-6.84935
6.84935
-2.08788
0.0415666
-2.08788
2.01712
0.0291887
2.01712
2.88175
-2.88175
-2.62897
0.107286
-2.62897
2.39248
0.129204
2.39248
0.353505
5.27292
-5.97994
8.79243
-5.27292
0.0264476
5.20833
0.0381484
5.20833
-5.10611
0.0367074
-5.10611
5.01241
0.0569968
5.01241
4.73743
-0.0845528
4.73743
-4.7719
0.119021
-4.7719
-3.37051
-4.04987
-6.46502
0.14965
-6.46502
-1.03114
0.0922581
-1.03114
0.822709
0.116176
0.822709
-3.68688
3.68688
-4.10613
0.421091
-4.10613
3.12396
0.0456394
3.12396
1.86849
1.88247
5.61944
-5.61944
2.44984
-1.99795
-0.0359168
-1.99795
-2.10766
-3.19235
2.10766
-0.0737875
-0.158293
0.220885
-0.158293
3.15945
0.0380377
3.15945
2.23705
0.155431
-2.23705
0.225852
3.2784
-3.2784
1.33804
0.673158
1.33804
-5.56324
5.56324
4.95664
0.0557656
-4.95664
0.0873888
6.15682
0.0612358
6.15682
-6.19956
-0.0184962
-6.19956
2.52659
-4.996
-2.62742
6.13451
0.180865
-6.13451
0.180695
2.91833
0.0280362
2.91833
-2.91926
2.91926
-2.9848
0.0384351
-2.9848
-2.16963
0.398538
-2.16963
1.47293
0.29817
1.47293
-4.26127
-0.0976999
-4.26127
-4.25504
0.148911
4.25504
0.110602
1.13089
-1.13089
-0.5771
0.137203
-0.5771
-4.1272
-0.13406
4.1272
-0.123498
-3.89294
-0.110768
-3.89294
-3.02459
0.0397848
3.02459
0.0407915
3.1129
0.0465465
-3.1129
0.0475202
-1.87081
3.75328
-1.88014
3.75397
-5.63478
-0.379404
-5.63478
6.32491
-0.310724
6.32491
3.32673
0.358307
-3.32673
0.392609
2.30694
0.170327
2.30694
-6.81102
-0.0383275
-6.81102
6.83483
0.0145246
6.83483
2.17855
0.128386
-2.17855
0.0906748
1.99484
0.0222781
1.99484
2.90199
-0.0202473
2.90199
-2.87576
-0.00599042
-2.87576
2.7916
-2.7916
2.7168
0.0748033
-2.7168
0.0878227
-11.1331
11.1146
-0.0352598
-11.0978
5.17307
5.17307
4.16404
0.573385
4.16404
-4.99045
0.218551
-4.99045
2.68857
-5.31599
3.0861
-6.45661
4.65981
-16.1465
4.29453
-8.3444
6.70288
-6.70288
6.59277
0.110112
-6.59277
0.127751
-1.14979
0.118644
-1.14979
-3.08527
-0.601606
-3.08527
4.32849
-0.641612
4.32849
-3.02812
3.02812
-3.07741
0.0492892
3.07741
0.0465467
1.9851
0.00974279
-1.9851
-0.0128525
0.181704
0.0563853
-0.181704
0.0234105
3.49249
-0.214082
3.49249
-3.07962
-0.198789
-3.07962
-1.24879
0.0990038
1.24879
0.0892524
-5.81376
0.250515
-5.81376
-11.1908
0.0929375
-11.1526
-6.10662
-6.10662
2.33375
11.1262
-2.89368
0.0179234
2.89368
0.0246513
2.97513
0.0529933
-2.97513
0.0558693
-2.85865
0.0670511
2.85865
0.0606079
-2.54433
0.374693
-2.54433
-1.07232
1.07232
-1.23712
0.1648
1.23712
0.235806
1.40338
-0.27249
1.40338
0.705363
0.117346
-0.705363
0.128263
-3.7923
-0.100639
-3.7923
6.55992
-0.235009
6.55992
-2.96426
-0.11536
2.96426
-0.0622633
-0.0332981
11.1479
-5.13977
0.0336574
5.13977
-11.2091
11.2428
-3.21473
0.670404
3.21473
0.949312
5.28382
0.279426
-5.28382
0.29337
6.78589
0.0489358
-6.78589
0.083007
-2.59284
-0.492437
-2.59284
-5.0534
-0.581388
5.0534
-0.724906
-11.4746
-0.204974
11.6796
-11.4176
6.01873
0.138083
-6.01873
11.3809
-1.03097
-0.0999201
1.03097
0.0413523
1.73102
-0.327641
1.73102
3.68967
-0.197185
-3.68967
-0.102628
-6.71412
-0.0969029
6.71412
-0.154199
-2.14801
-0.44483
2.14801
-0.416986
-4.26712
4.30516
1.9092
-2.38469
-2.61131
-5.57704
1.85185
1.90144
4.30169
-10.1331
-6.01341
-9.95242
7.26146
-6.96809
-9.24005
9.15549
7.89888
-8.00965
-5.7848
5.83135
6.48293
-6.44214
1.87882
1.87468
8.02107
-7.77662
-15.5914
15.212
7.56666
-7.52509
15.7387
-15.7771
-17.8169
17.8658
-5.70688
5.81417
-6.74056
6.73457
-6.97643
6.91417
-2.83556
-3.62105
13.0913
-12.9416
8.58964
-8.62555
-8.62002
9.04111
3.3826
0.922562
3.42915
-1.88214
3.76096
-1.87148
3.78068
2.72773
-5.56329
2.58825
-5.19956
4.36536
4.22427
-4.29158
-1.28546
-5.92488
5.95292
-5.81292
5.87353
9.14162
-9.17879
-1.88517
3.75986
-1.8688
3.77024
-3.42502
-2.35979
3.37938
0.922314
8.05817
5.03312
-8.23903
-1.71338
-8.04415
7.84697
-8.23264
8.03385
-0.433965
5.81852
-5.38455
4.43529
-1.56288
7.3814
5.69858
5.91713
5.86561
-5.58619
1.10248
-6.48703
-6.39964
-2.23977
2.37697
2.15619
-2.06009
6.14763
1.75126
6.02413
-5.76524
-2.24441
-5.86588
3.8206
2.01075
3.86989
4.07849
2.40445
4.11827
3.03043
-3.03597
0.00554749
-3.05664
6.08707
0.723883
-5.41643
-4.49412
4.97647
3.0446
5.18887
-5.55473
-2.22189
-5.16212
-9.53155
-6.05987
-10.1129
10.0738
5.13818
9.76312
-11.9427
11.7885
4.81581
2.75085
4.84499
-4.95814
-2.56695
-4.86747
11.631
-2.6378
-8.9932
-10.3018
-7.51511
10.2873
5.45146
10.9429
6.92292
11.0259
4.41671
7.2143
-9.86817
2.35306
-3.8682
-1.83868
-3.78038
3.67502
2.13915
3.80422
-4.21759
-2.52297
-4.19966
-4.29594
-2.68049
4.31619
2.41838
-4.41768
-3.81497
4.53304
2.38113
4.03342
-10.0468
4.31099
-7.93204
-9.17947
-3.76217
-9.05171
3.5281
2.60949
-6.1376
-2.03519
8.52021
-4.29594
7.23475
-5.18521
-3.44034
-5.19806
-6.88496
-1.73506
-6.73605
-8.87272
8.38028
-9.16863
8.52702
12.5026
-5.6392
-6.86344
-3.96846
-2.47368
3.92094
-0.491791
-3.71047
3.71601
0.0504931
3.83117
4.75374
4.26194
-3.88413
-1.92879
-3.82826
3.82396
2.04957
3.89101
6.84122
2.30041
6.87171
-6.61555
-2.56324
-6.71325
9.03331
-8.63477
2.83337
-2.73437
5.39994
2.63392
-5.18585
-2.8583
6.21023
-3.21962
-2.99061
-12.1978
10.5258
1.67205
-4.81643
-0.381144
-0.443736
-5.48783
-3.75221
5.36881
0.548321
11.0741
7.32189
-5.5114
5.76192
6.16815
6.22391
-0.175731
5.80286
-5.13246
5.25287
-2.60759
-2.64528
5.47728
-5.61134
-1.23597
-5.52694
4.29097
0.412789
1.4627
-1.24182
-1.77255
-0.467214
-1.64429
1.25713
0.899054
1.31352
0.955458
1.42151
-2.95657
0.532866
2.4237
-2.00111
-1.52722
-3.83244
-1.14654
4.97898
5.74166
2.10531
-5.63903
-0.226852
2.51912
-2.40295
-0.786326
-3.04611
2.25376
-3.04008
-3.66887
-2.08681
5.75568
-3.36956
-0.458701
3.31657
0.553325
-3.82724
-2.09765
3.7888
0.32947
-3.1287
6.19141
-3.06271
-5.05748
2.52753
3.55954
4.53828
-4.7895
2.44773
2.34177
-1.22996
4.24623
0.942639
4.41656
-6.9379
4.71601
5.80504
3.23607
-6.16334
1.00122
-5.93667
8.55249
-7.37676
-1.17572
4.1717
4.38078
7.05752
5.44512
-5.66995
12.7275
-1.20737
-6.16939
7.14405
-3.90797
4.85112
-8.75909
-10.2962
4.12685
-9.1273
10.8981
-1.77083
-3.61872
-8.324
12.746
-1.2041
-11.5419
8.55901
-4.2864
-4.39488
8.68129
-6.92421
6.96183
-1.99568
-4.96615
-10.0899
-5.68713
10.1868
1.60169
-9.92656
12.2796
-2.71226
4.12342
0.721573
4.1457
3.30451
-5.48502
2.18051
3.6197
-5.61538
2.08417
-7.56919
-6.71798
12.0496
-5.33166
-10.4802
-9.49918
-0.980977
2.53316
9.74646
-9.45607
7.41485
2.04123
3.30048
0.590525
-3.37529
-0.405092
0.236263
4.5164
-4.75266
4.04049
4.19592
3.26666
1.24974
3.84557
2.10735
-3.87022
-0.329443
-4.16427
1.48378
-1.74589
-3.69434
5.17812
-4.06739
0.373045
-2.74484
-3.49734
6.24218
-4.58351
3.03544
3.15597
5.08501
-4.91285
1.4155
-2.39254
-2.5203
2.65189
-4.39778
1.99368
3.18444
4.37481
0.559846
5.86907
6.18057
-8.47856
0.546524
11.2137
-9.50031
2.46104
8.5649
-9.87588
0.376705
-8.67501
0.997604
-5.29354
-5.13999
5.19595
-6.93101
-3.56314
6.21522
0.656489
-6.32582
-0.410223
-6.03112
-2.8416
-6.47595
-3.04089
-6.12774
-8.71085
-1.65094
-7.05991
6.72935
-6.67671
-3.43623
7.40161
1.12541
-7.40577
7.30585
-7.48438
7.15674
0.0954268
3.62059
4.35737
1.88369
-2.39063
4.27432
-5.12142
7.42183
-8.72247
3.60105
4.20502
-6.76825
-4.51746
5.01875
4.01455
5.31692
8.8759
-10.3397
1.4638
-10.6424
11.976
-1.33358
-16.399
5.75656
-7.52307
2.4343
0.399077
2.55294
0.542394
2.49684
-3.03924
-2.19198
-2.10272
-2.44052
-3.46545
5.90597
1.08739
-3.53056
2.44317
-3.56678
4.65418
-0.21683
-3.31373
5.26813
-2.77129
5.66721
-3.78361
1.88359
3.43894
5.75424
-2.3153
4.39505
-1.76113
1.9287
-4.244
-1.53675
-2.95845
5.0976
-3.28373
3.65677
-0.344936
4.00171
-4.04772
0.8281
-0.781066
3.41485
3.6407
4.31676
-3.06702
2.91784
-4.67898
-1.32616
-4.11913
-0.934688
-0.256407
-3.6972
3.95361
5.97388
-6.23029
-5.23095
9.52122
-4.29026
7.68817
-5.37838
-2.30979
-4.24916
-4.38561
3.87446
1.9284
9.61657
0.208773
-5.58716
-4.92368
-3.97437
3.09908
2.15379
-1.73596
3.40802
2.1797
-0.716999
0.423752
0.889766
1.78235
-1.3586
0.32864
1.45371
-0.913176
1.70503
0.814091
-1.82238
0.178089
-1.32122
3.57498
1.10248
-2.00153
0.642931
0.973794
-3.58138
5.06411
-2.69142
-2.37269
6.03791
1.13821
-3.82963
4.38873
-3.97595
2.39386
-3.5404
-1.43577
-5.41172
-3.66046
-2.51871
4.96188
-3.38726
5.49256
1.29301
-5.26571
6.55872
-3.72811
1.6413
-3.05191
3.866
-0.926068
-2.12584
2.90328
2.8524
-3.08026
0.0341477
-0.17698
2.40932
-2.5863
-0.630768
-2.63188
-4.57356
4.90303
-2.1052
4.55293
2.16912
-1.91719
6.47012
1.8087
-3.72589
-3.24878
-3.70748
-1.38412
3.15416
-0.575616
-4.29185
-5.54177
4.16346
0.253094
-7.05678
7.87724
-0.820457
-4.01218
-0.703826
4.87553
-6.08789
0.47251
-4.00371
3.87353
4.81617
5.06926
-11.323
-0.218924
-6.18481
1.12309
-7.3079
5.50388
-3.53603
7.66288
-10.3168
6.88061
-9.19144
6.48716
-0.820743
6.23878
-4.05827
2.75442
-8.44155
-6.83986
5.54811
-2.79726
6.26969
-3.17177
9.44145
-5.88403
5.33595
4.1055
-1.03278
-4.16529
-5.32611
4.29333
0.00984341
4.15554
4.98033
-2.87298
4.65088
2.26986
-4.66241
-2.12791
-6.49578
1.83338
-3.33982
-1.92114
3.75451
3.16387
3.7544
1.23421
-3.3493
7.19287
-8.17385
-1.86122
-3.27878
5.30924
-1.0159
3.42465
-6.70343
-1.86889
4.78812
-0.780381
-4.00774
0.851079
-4.41422
1.67479
-6.08901
5.25622
-5.66645
2.22187
-9.74494
-5.1839
-5.14255
-2.25837
-5.22601
-7.56391
5.30554
-1.80735
5.4985
-8.49638
7.71599
-3.47961
8.78515
-5.42595
-1.05
5.84294
1.3138
10.099
0.222355
-4.73981
-1.91989
3.84112
-1.92123
1.17919
-3.47485
0.366274
2.49241
3.5455
-6.78338
0.0151238
-4.72469
-3.91517
7.92972
5.60605
11.5799
1.24024
9.10961
-1.17988
10.3498
4.13704
4.37285
-2.98475
4.44855
0.968859
4.56991
-0.927568
2.81116
1.62537
1.71763
0.685316
2.30254
1.33816
3.13064
0.0914036
-2.01132
4.61925
-8.59362
-0.967903
-8.02024
1.13525
5.70634
-4.57108
2.9351
-0.781316
1.01387
-0.119716
-1.21454
1.33425
-2.765
-1.93153
-0.477822
-1.69964
2.34258
1.87534
-1.86475
-0.900243
0.356879
-4.01734
3.18352
-3.14937
-0.296974
6.26175
-2.81824
0.231938
-1.17694
-2.39994
-2.86715
2.68906
6.17615
0.293968
3.11344
5.197
3.09936
0.22638
3.88373
-5.65457
-3.68546
-5.87349
-0.369613
4.50592
1.76352
7.98293
5.86902
4.85312
-1.85031
-10.0242
6.51147
-2.06293
5.1779
-1.17015
-4.91886
5.04859
2.37324
-5.70508
0.0386345
-4.88022
-6.94315
-0.511985
8.22798
-9.58697
8.53697
5.69537
1.36454
-4.40221
-0.740338
4.23741
0.135433
10.4853
-1.12892
-6.71176
7.84067
-4.57742
3.60952
0.73908
2.66894
2.07333
1.29202
-5.41974
-9.99083
-2.06536
-1.51602
-4.43806
0.540926
-2.41626
6.21889
-2.60937
3.9091
5.23131
6.24518
-2.12942
-4.10087
6.41968
-2.51058
3.7346
)
;

boundaryField
{
    wall-4
    {
        type            calculated;
        value           uniform 0;
    }
    velocity-inlet-5
    {
        type            calculated;
        value           uniform -3.75095;
    }
    velocity-inlet-6
    {
        type            calculated;
        value           uniform -5.62643;
    }
    pressure-outlet-7
    {
        type            calculated;
        value           nonuniform List<scalar> 8(3.31512 7.76174 4.45429 9.67878 7.42038 5.154 5.77467 8.95435);
    }
    wall-8
    {
        type            calculated;
        value           uniform 0;
    }
    frontAndBackPlanes
    {
        type            empty;
        value           nonuniform 0();
    }
}


// ************************************************************************* //
