/*--------------------------------*- C++ -*----------------------------------*\
| =========                 |                                                 |
| \\      /  F ield         | OpenFOAM: The Open Source CFD Toolbox           |
|  \\    /   O peration     | Version:  4.0                                   |
|   \\  /    A nd           | Web:      www.OpenFOAM.org                      |
|    \\/     M anipulation  |                                                 |
\*---------------------------------------------------------------------------*/
FoamFile
{
    version     2.0;
    format      ascii;
    class       volVectorField;
    location    "7";
    object      U;
}
// * * * * * * * * * * * * * * * * * * * * * * * * * * * * * * * * * * * * * //

dimensions      [0 1 -1 0 0 0 0];

internalField   nonuniform List<vector> 
918
(
(0.985705 -0.00285393 0)
(0.00508574 2.9662 0)
(-0.000784297 1.70037 0)
(0.977012 0.00540452 0)
(-0.004903 1.66716 -2.0822e-21)
(-0.00712862 2.94885 -2.06093e-18)
(0.919942 1.26306 6.18847e-19)
(0.527179 0.2792 -9.84793e-21)
(1.00009 -0.0010825 0)
(0.0467835 1.57237 0)
(-0.00563884 1.6047 0)
(0.886161 0.00792576 0)
(0.0113937 2.93024 0)
(0.000354773 2.79599 0)
(-0.0151353 3.18198 9.84921e-19)
(0.0030386 1.61894 -2.33693e-20)
(0.660242 0.125452 5.87657e-19)
(0.234208 1.83499 5.30557e-19)
(0.967421 0.0198326 0)
(0.00104369 1.61868 0)
(0.18806 0.302257 -5.43278e-19)
(1.00105 -0.00389453 0)
(1.00087 -0.00769848 0)
(0.975341 -0.00537258 0)
(0.829503 -0.0222823 0)
(0.00222461 2.64702 0)
(-0.0152156 2.91013 7.2984e-19)
(-0.00927304 1.712 0)
(-0.00152573 1.76661 0)
(-0.00215309 1.72764 0)
(-0.00397016 1.79601 0)
(-0.00523177 1.68434 1.6504e-21)
(-0.00593529 1.62549 0)
(-0.0204039 2.98774 -7.28918e-23)
(-0.0165846 3.00516 1.59941e-18)
(0.00204646 2.99993 0)
(0.929731 0.00708925 0)
(0.183958 0.603278 -1.43912e-19)
(0.856273 1.32031 -7.47504e-19)
(1.01524 1.07407 8.15641e-19)
(0.736226 1.52133 -1.39614e-19)
(0.809547 1.48658 8.25634e-19)
(0.577262 0.341194 9.60902e-21)
(0.577885 0.250386 0)
(1.20154 0.572919 0)
(0.531347 0.342373 4.54238e-20)
(0.505397 0.273498 -4.71296e-20)
(0.92071 0.00304766 0)
(1.00104 6.21943e-05 0)
(1.00001 0.000631785 0)
(0.998896 -0.00617665 0)
(1.00073 -0.00235966 0)
(1.00048 -0.000704411 0)
(0.0282377 1.55394 -5.46377e-19)
(0.0416932 1.69586 0)
(0.0939499 1.60993 0)
(0.00391822 1.66771 0)
(0.00909507 1.54199 0)
(-0.000954538 1.62603 0)
(-0.0129151 1.67354 0)
(-0.0109353 1.59157 0)
(-0.00684716 1.69113 0)
(0.00138204 1.60707 0)
(0.950654 0.00705929 0)
(0.940693 0.0093267 0)
(0.903998 0.00248086 0)
(0.927481 0.0181548 0)
(0.869169 0.015272 0)
(0.0145479 3.00054 7.56948e-19)
(0.0112744 3.00947 0)
(0.00590881 3.00227 0)
(0.0135731 2.9979 8.49854e-24)
(0.00767026 2.95842 -1.12621e-18)
(0.01484 2.98146 0)
(0.0111568 2.9026 0)
(0.0251246 2.92989 1.59629e-24)
(0.0042777 2.8251 0)
(0.0310324 2.91539 0)
(-0.00967484 2.74735 0)
(0.336223 3.60862 0)
(-0.128116 3.69829 0)
(0.156437 3.2745 -9.16671e-19)
(-0.00544288 2.99145 0)
(-0.00866031 1.76293 0)
(-0.000573358 1.6935 2.30566e-20)
(-0.0017383 1.63095 -2.78699e-20)
(0.704844 0.167658 -2.02065e-19)
(0.676535 0.0909732 -1.95812e-19)
(0.699635 0.195877 -6.08497e-19)
(0.657013 0.158248 -4.11063e-19)
(0.230632 1.31979 0)
(0.311346 1.91355 -6.18595e-19)
(0.475345 1.85119 1.00225e-18)
(0.982725 0.0139541 0)
(0.937001 0.0194884 0)
(1.00069 0.000224152 0)
(1.00161 0.0089722 0)
(0.997984 0.0191708 -1.1269e-18)
(0.988729 0.0156873 8.58641e-19)
(-0.00316603 1.68606 0)
(0.000390511 1.62131 0)
(-0.00498107 1.7341 0)
(-0.005475 1.69693 0)
(-0.000964123 1.62807 0)
(0.311546 0.33434 1.74208e-19)
(0.33717 0.297539 0)
(0.993298 -0.00828608 0)
(0.954355 -0.00318092 0)
(0.90157 0.0106912 0)
(0.886062 0.00426976 0)
(0.859116 -0.0145857 0)
(1.0658 0.00246289 0)
(0.847844 0.0352608 0)
(0.762454 0.020024 7.82463e-19)
(-0.0367844 2.86366 4.49922e-19)
(0.0438886 2.90699 0)
(0.0578081 2.88217 0)
(-0.0116234 2.7033 0)
(-0.0130409 2.9847 6.79081e-19)
(-0.0186691 2.89564 0)
(-0.0156464 2.98781 -2.13135e-18)
(-0.013083 2.92469 7.35062e-19)
(2.95463e-05 1.78209 0)
(0.00228341 1.76927 0)
(0.00454131 1.69605 -5.77227e-22)
(0.00168979 1.69182 0)
(0.00638408 1.61956 0)
(0.970694 0.00637344 0)
(0.93478 0.00755849 0)
(0.91751 -0.00959142 0)
(0.969872 0.00503016 0)
(0.925128 -0.00651509 0)
(0.263995 0.896502 1.76379e-19)
(0.364907 1.04335 0)
(0.238266 0.508987 -2.37495e-20)
(0.1418 0.161851 0)
(0.969893 1.13553 -2.33983e-19)
(1.08012 0.902138 5.08093e-19)
(0.445215 1.85563 0)
(0.605983 1.71723 0)
(0.68002 1.69988 0)
(0.410052 0.631948 -3.02735e-19)
(0.626803 0.30033 0)
(0.610363 0.219339 1.1909e-19)
(1.04981 0.9637 0)
(1.12354 0.794609 0)
(1.14388 0.733402 -4.58677e-19)
(1.19071 0.632112 0)
(1.24633 0.420023 6.6648e-20)
(0.966225 -0.00335563 0)
(0.957896 0.00272556 0)
(0.923293 -0.00011529 0)
(0.976058 -0.00176398 0)
(0.957746 0.00174125 0)
(0.928172 0.00397842 0)
(0.999598 0.00157498 0)
(1.00062 0.00230736 0)
(0.999733 0.00117499 0)
(0.0162013 1.5932 2.93139e-19)
(0.0392353 1.51837 0)
(0.0158456 1.63604 4.93237e-19)
(0.0214637 1.59772 -4.27223e-19)
(0.156024 1.84035 -4.3912e-19)
(0.0430919 1.74477 0)
(0.167832 1.72525 0)
(-0.0125496 1.66647 0)
(-0.00178242 1.56224 0)
(-0.000794619 1.68515 -1.32614e-21)
(0.0019212 1.61924 0)
(-0.000633835 1.69525 -6.82239e-20)
(5.80201e-05 1.62814 1.2987e-19)
(-0.00953222 1.67854 0)
(-0.012331 1.67127 0)
(0.000192241 1.5796 0)
(0.00148725 1.69255 0)
(0.00850374 1.60659 0)
(1.00461 0.00713275 0)
(0.961257 -0.00263616 0)
(0.985829 0.00925654 0)
(0.942888 0.00766554 0)
(0.907137 0.00247654 0)
(0.955473 0.00605746 0)
(0.952447 -0.00212911 0)
(0.905218 -0.00535565 0)
(0.0055518 3.06455 -6.82027e-21)
(0.0152868 3.05769 0)
(0.0145464 2.96837 0)
(0.0080603 2.87596 0)
(0.956521 4.05328 0)
(1.26721 3.37597 1.01607e-18)
(0.0743166 3.08418 0)
(-0.0227963 2.91218 0)
(0.00384115 1.75159 0)
(-0.00327191 1.74702 0)
(-0.00189952 1.75166 0)
(-0.00891737 1.78924 5.32618e-21)
(-0.00935772 1.77658 0)
(-0.00674189 1.78004 0)
(0.00337493 1.61751 2.75158e-21)
(0.00269887 1.6909 4.20877e-20)
(-0.00500564 1.69555 2.85396e-20)
(0.00505338 1.62261 0)
(0.737135 0.126694 2.97609e-19)
(0.692694 0.0471085 -2.88451e-19)
(0.195875 1.40701 0)
(0.299552 1.25249 -2.36921e-19)
(0.135906 1.44393 -6.93217e-19)
(0.157889 1.37697 6.91634e-19)
(0.904386 0.00152973 0)
(0.958507 0.00667252 0)
(0.969585 0.0158245 0)
(0.909896 0.0100033 0)
(0.00236238 1.6896 0)
(-0.00234152 1.68854 0)
(-0.000138471 1.61207 0)
(0.481938 0.358773 4.25604e-19)
(0.425444 0.355087 -5.33175e-19)
(0.446217 0.27443 0)
(1.18144 0.0810437 -1.9977e-21)
(1.16693 0.0365014 0)
(1.0935 0.0396151 0)
(1.01214 0.00856213 0)
(0.751682 0.0882451 0)
(0.780357 0.0816362 -1.25817e-18)
(0.711909 0.0372157 4.79516e-19)
(0.0102136 2.9808 5.19067e-19)
(-0.0322689 2.86732 4.62373e-20)
(0.00359352 3.05045 -1.46396e-20)
(0.0211889 3.04298 5.23783e-19)
(-0.0147932 2.99669 2.4316e-20)
(-0.0131601 2.94966 -9.75713e-23)
(-0.0173553 3.01122 -4.54935e-19)
(0.0152239 3.02058 3.31783e-19)
(0.00801651 3.03779 -5.23227e-19)
(0.988143 0.007204 0)
(0.982527 0.00605718 0)
(0.939091 0.00354305 0)
(0.958361 -5.58087e-05 0)
(0.959817 -0.00978895 0)
(0.908921 -0.0128831 0)
(0.959776 0.00605137 0)
(0.95974 -0.00227598 0)
(0.912924 -0.0037985 0)
(0.560284 1.3373 3.7581e-19)
(0.661976 1.49248 0)
(0.168983 0.118344 2.16151e-20)
(0.424033 0.511641 -5.68391e-20)
(0.344911 0.4559 1.49696e-19)
(0.0880891 0.0458662 -3.677e-19)
(0.434875 0.991634 1.51986e-18)
(0.451471 0.869232 3.4309e-19)
(0.677938 0.24564 4.44661e-19)
(0.651815 0.274767 1.07869e-19)
(0.632427 0.199512 2.25523e-19)
(1.22987 0.469458 2.75906e-19)
(1.24916 0.256329 2.96466e-19)
(0.00850174 1.67525 1.98576e-19)
(0.0061252 1.63135 0)
(1.04135 0.0240536 0)
(1.00772 0.0123989 0)
(0.985758 0.00682935 0)
(0.0101373 3.07568 0)
(0.0203511 2.9444 9.20627e-19)
(0.0164271 2.95653 0)
(0.0059113 2.85057 -9.12874e-19)
(0.00535918 3.09328 2.20619e-19)
(0.0078292 3.08098 0)
(0.723827 1.83368 -2.20158e-19)
(1.26345 2.5669 5.91276e-19)
(0.728991 1.99631 -1.45455e-18)
(0.020515 2.9813 -4.16301e-19)
(0.0377834 3.00455 0)
(-0.0361711 2.8793 0)
(-0.00374544 1.68569 -8.35145e-21)
(-0.00331364 1.69015 -9.31601e-20)
(-0.00370859 1.62446 -5.42167e-21)
(0.250764 1.35134 7.57898e-19)
(0.346235 1.21626 -5.20937e-19)
(0.0288265 1.559 4.71865e-19)
(0.0796488 1.51586 -5.7546e-19)
(0.0857415 1.45366 6.53235e-20)
(0.0019156 3.118 -1.33107e-18)
(0.0155397 3.11769 1.42365e-18)
(-0.00872386 2.98035 6.03539e-19)
(-0.00272613 2.97712 -5.50104e-19)
(-0.0218082 2.88225 -6.14686e-19)
(0.00900785 3.09736 -1.62911e-18)
(0.00104539 3.10607 1.58518e-18)
(0.488484 0.858113 0)
(0.522858 0.67141 -6.71016e-19)
(0.326696 0.364925 3.24213e-19)
(0.421471 1.1202 1e-18)
(0.443988 1.01944 -1.54011e-18)
(1.25647 0.170685 -4.77074e-20)
(1.25427 0.307741 0)
(1.24466 0.121367 1.15932e-19)
(-0.0079614 1.68917 -1.6974e-21)
(-0.00935426 1.69185 0)
(-0.00722065 1.6229 0)
(0.306939 1.31629 -2.71217e-19)
(0.37382 1.23306 -6.3643e-19)
(0.407374 1.1533 1.1562e-18)
(1.00499 -0.0265542 0)
(1.005 -0.00993324 2.10471e-19)
(-0.00237227 1.78068 0)
(-0.010587 1.78759 0)
(1.00241 0.00439418 2.25001e-21)
(0.997985 0.0128428 4.18903e-19)
(-0.00357577 1.78808 -6.92035e-21)
(-0.00448395 1.78843 0)
(0.043111 3.18407 2.30737e-19)
(0.431007 3.51042 0)
(1.11508 0.633546 5.57253e-20)
(1.01167 0.0156274 -1.6536e-21)
(1.0032 0.00936358 0)
(1.00326 -0.00202947 4.45827e-22)
(0.058328 1.8356 0)
(0.0587583 1.72123 0)
(0.000425253 1.79736 0)
(0.0149971 1.77963 9.10255e-20)
(-0.00278781 1.7763 4.71337e-20)
(0.992999 0.0227699 2.07797e-21)
(1.04216 0.00327699 0)
(1.06797 0.0278364 0)
(0.00516213 1.7492 0)
(0.00272654 1.77852 0)
(0.000842067 1.78795 0)
(0.200883 1.90679 -2.38375e-19)
(1.00496 -0.0290343 0)
(0.996721 -0.0305125 0)
(1.00858 0.00109422 2.62349e-19)
(1.00267 -0.00869501 -3.15009e-19)
(1.00247 -0.00205299 0)
(0.00812813 1.74747 0)
(-0.000168726 1.77576 0)
(0.00663606 1.75461 0)
(-0.00167724 1.78949 0)
(-0.0085504 1.78526 0)
(-0.00903014 1.78837 0)
(1.01933 -0.000625688 0)
(1.01479 0.00737779 -6.15616e-22)
(0.653225 1.21168 3.73437e-19)
(1.00314 0.00152207 -2.59758e-19)
(1.00438 0.0103204 3.17767e-19)
(1.00072 0.00223964 0)
(1.01181 0.0145974 2.55583e-19)
(1.00437 0.010138 -3.18189e-19)
(0.99186 0.0148979 0)
(0.0007319 1.78565 0)
(-0.00119418 1.78959 1.98876e-20)
(-0.00647491 1.78536 -1.46932e-20)
(1.15551 0.247557 -1.27562e-20)
(1.1 0.0850436 0)
(0.0348002 3.07714 -6.53229e-19)
(0.0658975 2.84742 -4.97261e-20)
(0.146458 3.18196 1.07092e-18)
(0.14677 3.20933 -7.85351e-20)
(0.135074 3.23858 0)
(0.0195588 3.13821 1.5616e-19)
(0.0775545 3.15524 6.39321e-19)
(0.068541 3.18146 -2.97628e-19)
(0.0194568 3.13161 0)
(0.69542 0.353325 0)
(0.622428 0.391509 0)
(1.0447 0.640348 -2.13534e-19)
(1.05004 0.788306 3.38236e-19)
(1.11634 0.542119 0)
(1.16015 0.52744 0)
(1.01277 0.0092502 -4.87247e-19)
(1.01644 0.00355413 6.04105e-19)
(1.01019 0.00910084 0)
(1.01153 0.00896247 0)
(1.01045 0.00273567 0)
(1.01799 0.00964361 0)
(1.00719 -0.00289124 0)
(1.02224 0.0136876 0)
(1.01763 0.0147065 0)
(1.01605 0.0050795 0)
(0.0511439 1.8287 0)
(0.0231741 1.82507 0)
(0.0843387 1.86815 0)
(0.059445 1.87483 0)
(0.0511991 1.71029 0)
(0.045708 1.69746 -3.13658e-19)
(0.0624462 1.73679 0)
(0.0625984 1.73559 1.63013e-19)
(0.00588925 1.75715 -1.75695e-19)
(-0.000373797 1.79693 0)
(-0.0023555 1.79544 0)
(0.000500245 1.80223 0)
(6.07138e-05 1.81265 0)
(0.00485002 1.77316 -5.33752e-20)
(-0.00329717 1.77888 6.34919e-20)
(0.00733696 1.78561 8.42072e-20)
(0.00212603 1.78337 0)
(-0.00257742 1.77858 -1.09421e-19)
(0.000817455 1.77548 -6.72394e-20)
(0.00369401 1.76908 4.17396e-20)
(-0.00807053 1.77068 -8.66553e-20)
(0.0022396 1.77858 -1.00827e-19)
(1.00326 0.016899 4.60912e-19)
(1.00768 0.00738338 -5.68965e-19)
(1.00103 0.0199204 -4.90379e-19)
(0.982356 0.0120598 6.11332e-19)
(1.04049 0.00769039 0)
(1.0443 -0.00292416 0)
(1.05723 0.0267583 0)
(1.04227 0.00112186 0)
(1.06048 0.0129842 0)
(1.08508 0.0699242 0)
(1.06748 0.0420627 0)
(1.09041 0.033998 0)
(0.000241916 1.78525 -2.13507e-21)
(0.0141033 1.75515 0)
(-0.000989628 1.77414 0)
(0.00495716 1.78029 1.86392e-20)
(0.00936712 1.7793 -8.67984e-22)
(0.0130036 1.75298 2.26541e-20)
(0.00515999 1.75547 -2.30001e-20)
(-0.0022612 1.7822 0)
(-0.00166559 1.78082 0)
(-0.00287714 1.77706 0)
(-0.00149987 1.78892 0)
(-0.00331392 1.78752 0)
(0.301398 1.87872 3.87414e-19)
(0.311391 1.85762 1.92919e-19)
(0.305394 1.6027 -1.87281e-19)
(0.161893 1.63393 4.66277e-19)
(0.228546 1.72609 1.21488e-19)
(1.00217 0.00296858 0)
(0.996897 -0.0235541 0)
(0.987735 -0.0204095 0)
(1.02618 -0.0116738 0)
(1.01576 -0.0182373 0)
(1.00972 -0.0206953 0)
(1.00496 -0.0217665 0)
(1.00798 -0.0104218 0)
(1.01644 0.0034183 4.56629e-19)
(1.01988 0.0013965 -5.6951e-19)
(1.0143 0.00824874 -4.4174e-19)
(1.0134 0.0037827 5.60002e-19)
(0.654913 1.33504 0)
(0.545887 1.47731 3.86228e-19)
(0.77553 1.13821 2.71965e-19)
(0.833624 1.11049 -3.64186e-19)
(0.9199 2.69057 -9.92026e-19)
(0.835899 0.113519 2.99961e-19)
(1.10505 0.0889646 0)
(1.13993 0.163167 1.36899e-20)
(1.1412 0.145994 1.47099e-21)
(0.970746 0.102857 0)
(0.116103 2.95172 3.37609e-19)
(0.108929 2.85901 -8.76319e-19)
(-0.000954547 2.40143 6.03235e-19)
(0.105476 0.184811 -2.45348e-19)
(0.376023 3.43417 -3.4992e-19)
(0.211258 3.30877 0)
(0.256743 3.36326 4.5565e-19)
(0.26183 3.00934 -1.25221e-18)
(0.353132 3.17486 0)
(0.00530886 3.12103 3.29546e-20)
(0.0157745 3.12904 -4.04074e-19)
(0.0128245 3.12526 5.94719e-19)
(0.0353683 3.13852 0)
(0.0336353 3.14926 0)
(1.12258 2.69395 0)
(0.623722 0.797105 -2.47583e-19)
(0.947088 0.939297 -1.75573e-19)
(0.898988 0.976603 0)
(0.757144 0.922521 6.99709e-20)
(1.00417 0.821448 2.13103e-20)
(0.379616 0.479084 -6.95993e-19)
(0.719836 0.340107 -2.41256e-20)
(0.736585 0.308235 2.30901e-19)
(0.621595 0.432269 1.9939e-20)
(0.558579 0.425355 -8.28226e-19)
(0.692147 0.372402 0)
(0.692237 0.427655 3.85109e-19)
(0.684938 0.411309 0)
(0.642009 0.417171 0)
(0.661543 0.376967 0)
(0.772363 0.552168 1.20461e-19)
(1.15802 0.261768 5.9467e-21)
(1.14968 0.384756 0)
(1.18686 0.353061 0)
(0.800083 0.215259 3.50879e-19)
(0.789628 0.520031 -1.9398e-19)
(0.701745 0.476262 3.1114e-19)
(0.880414 0.405206 -2.94413e-19)
(1.02107 -0.00530719 3.11747e-19)
(1.01826 -0.00324191 -3.2668e-19)
(1.01946 -0.00405305 0)
(1.02131 0.00630691 0)
(1.01661 0.0123905 -2.98653e-19)
(1.02105 0.00452174 2.89805e-19)
(1.01347 0.00179611 0)
(1.01141 0.00215607 0)
(1.02573 0.00556976 0)
(1.02242 -0.000849364 0)
(1.02493 0.00499771 0)
(1.02779 0.0028114 0)
(0.00442373 1.82291 0)
(-0.00656702 1.82009 0)
(0.11944 1.85317 -7.74817e-22)
(0.194273 1.88411 1.22365e-19)
(0.0887665 1.905 2.68358e-19)
(0.111827 1.90274 -4.29876e-19)
(0.119209 1.87112 0)
(0.106697 1.77018 -1.09189e-19)
(0.108432 1.77571 0)
(0.223054 1.71696 -1.76203e-19)
(0.18605 1.67585 5.63251e-19)
(0.130111 1.80092 9.94856e-20)
(0.189924 1.84732 3.9624e-20)
(0.14954 1.86148 -3.17124e-20)
(0.223659 1.79332 -1.12416e-19)
(0.179802 1.76488 0)
(0.182604 1.75171 1.06954e-19)
(0.00978349 1.76675 -4.96562e-20)
(0.0213414 1.75209 0)
(0.0586407 1.75055 1.88913e-19)
(0.0212408 1.74667 0)
(0.0574806 1.74318 -1.90467e-19)
(0.0374198 1.75063 0)
(-0.00236434 1.76554 -4.21642e-20)
(0.00269238 1.76745 0)
(-0.00389666 1.77226 0)
(-0.00322586 1.76736 4.81845e-20)
(0.0100447 1.77814 1.84846e-21)
(0.000171636 1.76825 2.01732e-19)
(0.00347835 1.77501 1.38829e-21)
(-0.00783034 1.76436 3.82803e-20)
(-0.0055374 1.76314 2.31147e-20)
(-0.00146668 1.79313 0)
(-0.00145981 1.79134 0)
(0.0144989 1.78048 1.19047e-19)
(0.00426777 1.76957 8.22648e-20)
(0.00444691 1.77062 -1.15823e-19)
(0.0256584 1.78916 0)
(0.00175621 1.75722 -6.94238e-20)
(0.00254308 1.76531 3.26559e-20)
(0.00201342 1.76766 -9.52974e-21)
(-0.00823843 1.76787 -4.63608e-20)
(0.00130118 1.77598 -1.4837e-20)
(-0.00361716 1.77801 7.24856e-20)
(1.01258 0.000200216 -3.05737e-19)
(1.01295 0.00381237 3.02938e-19)
(1.01273 -0.000423368 0)
(0.989402 0.0662743 4.57913e-19)
(0.978629 0.0247184 -5.15065e-19)
(0.950074 0.015151 5.9189e-19)
(0.987779 0.0878329 -5.95962e-20)
(1.02488 0.00431442 0)
(1.03252 0.0110354 2.65774e-19)
(1.03315 0.00426262 -2.63973e-19)
(1.02027 0.0307057 -1.55531e-20)
(1.0248 0.01599 1.37565e-19)
(1.00169 0.0294864 0)
(0.989853 0.0254997 -4.72322e-20)
(1.00626 0.018289 0)
(1.00211 0.0245681 0)
(1.01495 0.00256822 0)
(1.01557 0.00438724 0)
(1.00327 0.0162627 1.00885e-19)
(1.00337 0.0194962 -2.22765e-19)
(1.00016 0.0260483 -1.06984e-19)
(0.989004 0.0165811 -1.18734e-19)
(0.996903 0.0446377 2.16033e-19)
(1.03837 0.0423826 0)
(1.03246 0.0941038 0)
(0.00863106 1.75815 -2.74532e-20)
(0.0214704 1.75553 -2.51811e-21)
(0.0187349 1.75218 0)
(0.0112106 1.77233 2.85253e-20)
(0.00848809 1.77746 4.3887e-21)
(0.00959838 1.77672 -4.69305e-21)
(0.00305587 1.77725 6.1067e-20)
(0.00404684 1.77272 -3.59731e-21)
(0.00386598 1.77296 1.65353e-20)
(0.00834297 1.77557 -2.9817e-20)
(0.00618141 1.77658 3.59534e-20)
(0.00319793 1.77824 4.17104e-22)
(0.00999548 1.76927 2.88618e-20)
(0.258528 1.7937 -1.60822e-19)
(0.230861 1.78605 9.14328e-20)
(0.532623 1.61155 -3.76075e-19)
(0.405513 1.79498 -1.85926e-19)
(0.445329 1.70867 0)
(0.351098 1.59952 1.92427e-19)
(0.391228 1.56153 2.78088e-19)
(0.208953 1.63407 4.21555e-20)
(0.205349 1.62832 -6.32887e-19)
(0.272092 1.637 5.09255e-19)
(0.287481 1.63098 0)
(0.223589 1.63569 -3.91666e-19)
(0.0708323 1.67543 8.07253e-19)
(0.141185 1.66844 -4.21266e-20)
(0.074132 1.66931 -1.09912e-18)
(0.805443 1.53694 7.2717e-19)
(0.629895 1.50232 0)
(1.03531 -0.00983636 1.0279e-20)
(1.02011 0.0011827 -8.84613e-21)
(1.02274 0.0184972 -1.52862e-19)
(1.02989 0.0100068 1.52251e-19)
(1.03461 -0.00567161 0)
(0.299398 1.2045 0)
(0.289759 1.06327 0)
(0.61898 0.950324 0)
(0.477212 0.829218 0)
(0.951224 2.67435 6.21284e-20)
(0.841416 2.34565 0)
(0.412657 2.67133 7.53995e-22)
(0.459821 2.0609 0)
(0.547747 2.24629 -4.6256e-19)
(0.518078 2.36758 2.89925e-19)
(0.846285 0.136557 0)
(0.825965 0.161149 8.66856e-20)
(0.911883 0.109874 4.37185e-19)
(0.858406 0.114167 -1.7359e-19)
(0.840779 0.0878163 -5.38542e-19)
(1.00113 0.197141 -2.77897e-19)
(0.914286 0.283224 -1.26334e-20)
(0.85207 0.262858 4.05146e-19)
(0.920412 0.193262 3.07352e-19)
(0.937642 0.14507 -5.55248e-19)
(0.914303 0.148423 7.14589e-20)
(0.906222 0.214509 -1.44619e-19)
(0.912309 0.17623 0)
(0.967152 0.132836 2.64588e-19)
(0.971384 0.13527 0)
(0.968592 0.176772 0)
(1.04816 0.0993121 9.26979e-20)
(0.994819 0.128753 -1.37845e-20)
(0.996984 0.194119 -4.76946e-20)
(1.05804 0.1774 0)
(1.00999 0.0261073 2.34246e-19)
(1.00323 0.0367301 2.81273e-19)
(1.00923 0.0294516 -2.27246e-19)
(1.01381 0.0530137 -1.89551e-19)
(1.00265 0.0625293 -3.21629e-19)
(0.944664 0.0899617 0)
(0.952281 0.0808641 0)
(0.940624 0.0410705 -2.13131e-19)
(0.911007 0.0575375 9.0445e-20)
(1.00898 0.0908578 2.70204e-19)
(0.997949 0.107676 -2.79148e-19)
(1.00657 0.11849 2.46243e-19)
(1.00222 0.122427 0)
(1.00993 0.0903584 0)
(1.00051 0.0810087 -1.18061e-19)
(1.01087 0.0848682 -2.15994e-19)
(0.256073 1.70673 -4.61155e-19)
(0.475549 2.67828 4.24688e-19)
(0.933692 3.10382 3.98432e-19)
(1.17706 3.31915 -1.17535e-19)
(1.06889 2.89454 1.06582e-18)
(1.16956 2.85571 -4.13902e-19)
(0.993949 2.31695 2.40608e-20)
(1.12587 3.24082 4.41601e-19)
(1.10648 3.22003 -6.28889e-19)
(1.19169 3.43444 -3.16547e-19)
(1.35111 3.13573 4.43508e-19)
(1.37589 2.98449 0)
(0.621163 0.821362 4.16038e-21)
(0.125521 1.24767 4.60475e-19)
(0.438046 0.632151 4.46766e-19)
(0.244394 0.374727 4.73142e-19)
(0.552543 0.448841 4.6718e-19)
(0.547452 0.494343 -7.45992e-19)
(0.538604 0.539688 6.13439e-19)
(0.49305 0.503144 -2.60523e-19)
(0.47772 0.443461 5.70019e-19)
(0.804205 0.251587 -1.96679e-19)
(0.758969 0.297405 0)
(0.768472 0.272904 1.24751e-20)
(0.68219 0.500425 1.99042e-19)
(0.652981 0.482239 -7.35106e-19)
(0.582843 0.519113 2.42527e-20)
(0.626218 0.474358 0)
(0.66626 0.684134 1.27337e-19)
(0.815333 0.735573 6.22752e-21)
(0.743049 0.829038 -2.13869e-20)
(0.834594 0.688895 -1.27731e-20)
(0.877229 0.794528 1.67326e-20)
(0.871065 0.767077 -1.71731e-20)
(0.797296 0.570578 -2.10093e-19)
(0.888608 0.637597 1.19754e-20)
(0.962259 0.656354 0)
(0.946492 0.635602 -1.77627e-20)
(0.942333 0.294447 7.30624e-20)
(1.07168 0.282698 2.19371e-20)
(0.981218 0.238099 1.13687e-19)
(0.933178 0.328785 -1.60777e-19)
(0.978255 0.387158 0)
(1.02932 0.38097 0)
(0.834785 0.336967 1.02936e-20)
(0.818973 0.299336 0)
(0.841495 0.274755 2.05142e-19)
(0.834012 0.270527 -5.69176e-21)
(0.871954 0.408007 8.03742e-19)
(0.823675 0.48232 2.02908e-19)
(0.822735 0.443769 -2.69384e-19)
(0.755364 0.418445 2.90616e-19)
(0.737073 0.418862 1.95705e-19)
(0.720115 0.409207 -1.89969e-19)
(1.01683 0.0123475 2.46199e-19)
(1.01581 0.00430648 0)
(1.01519 0.0150682 1.68053e-19)
(1.01319 0.0139208 -3.74879e-19)
(1.01534 0.00647975 1.79044e-19)
(1.01615 0.00649215 -3.81828e-19)
(1.01481 0.00036524 0)
(1.01584 -0.00518934 -7.91786e-20)
(1.01957 -2.21215e-05 1.98331e-19)
(1.02059 -0.00366181 -1.01632e-19)
(1.02029 -0.00288819 7.34243e-20)
(-0.00726878 1.81021 0)
(-0.00638085 1.77439 0)
(-0.00869184 1.81675 0)
(-0.00768326 1.81455 0)
(0.0444637 1.80166 6.11919e-20)
(0.0627328 1.80925 -1.63029e-20)
(0.0877871 1.78363 -3.73055e-20)
(0.0904258 1.80692 -1.57429e-20)
(0.0104795 1.7835 -7.79547e-20)
(0.0129558 1.78677 5.64183e-20)
(0.0345341 1.8007 -1.68111e-20)
(0.00580609 1.80373 -2.15988e-20)
(-0.000997925 1.7887 -2.61786e-21)
(-0.00667491 1.78253 -7.62434e-21)
(0.0666744 1.75931 -2.00889e-19)
(0.07499 1.75265 0)
(0.076099 1.7484 1.18284e-19)
(0.100963 1.77146 7.76595e-20)
(0.131152 1.7264 -8.5907e-20)
(0.103473 1.67015 0)
(0.113858 1.65305 -5.91998e-19)
(0.160857 1.66267 4.1526e-19)
(0.121418 1.73179 -2.35483e-19)
(0.0962069 1.73083 1.32594e-19)
(0.055835 1.69796 0)
(0.013338 1.77335 -1.42697e-19)
(0.0143687 1.77331 -1.69932e-19)
(0.0140214 1.77527 0)
(0.014641 1.7735 -4.44926e-21)
(0.0120399 1.76989 7.23829e-20)
(-0.000985494 1.77595 7.70735e-21)
(0.00258436 1.78462 -1.23014e-19)
(0.00103162 1.77634 3.12841e-20)
(-0.00687054 1.76088 4.37277e-20)
(-0.000316115 1.76371 0)
(0.00128014 1.78236 0)
(-0.00285261 1.78999 3.28229e-20)
(0.000642415 1.78896 -9.91556e-21)
(0.00203224 1.78775 0)
(0.000880984 1.79075 2.60417e-20)
(-0.00309291 1.78852 -5.2461e-20)
(1.00902 0.0154602 0)
(1.00917 0.0191542 -2.51104e-20)
(1.00568 0.0156964 -1.82391e-19)
(1.01159 0.0229599 0)
(1.01304 0.0266085 0)
(1.00561 0.00933986 -6.09361e-21)
(1.00878 0.00789639 2.94371e-19)
(1.00835 0.007261 3.64202e-19)
(1.01837 0.0050689 0)
(1.01827 0.00473692 0)
(1.00487 0.0163255 1.8411e-19)
(1.00453 0.013195 0)
(1.01356 0.0107378 0)
(-0.000215246 1.75461 0)
(0.000894132 1.76268 2.24284e-21)
(0.00199202 1.75327 1.7657e-20)
(-0.00137955 1.78846 0)
(-0.00246671 1.77513 2.19822e-20)
(0.000243607 1.78519 -9.77925e-21)
(-0.000162717 1.78955 0)
(0.288578 1.81638 0)
(0.22611 1.78638 -2.0207e-19)
(0.222845 1.77165 0)
(0.240455 1.78986 1.48377e-19)
(0.267375 1.7197 0)
(0.265784 1.76963 -2.2284e-20)
(0.821426 2.16848 -1.45965e-20)
(0.817479 1.56044 -8.84405e-19)
(0.8777 1.56819 5.39175e-19)
(0.666665 1.50069 2.60418e-19)
(0.624427 1.7734 0)
(0.628348 1.91456 0)
(0.780235 1.51251 0)
(0.734095 1.42768 -9.36925e-19)
(0.403085 1.88591 -4.96149e-19)
(0.576784 1.74461 -1.4978e-19)
(0.490108 1.96108 1.25455e-19)
(0.477285 1.55363 0)
(0.597938 1.51219 0)
(0.535721 1.53121 -3.12789e-19)
(0.554188 1.68796 0)
(0.625592 0.774373 0)
(0.710015 0.688868 6.36648e-19)
(0.738235 0.684558 3.269e-20)
(0.410983 0.850673 0)
(0.734976 0.943233 -1.02425e-18)
(0.763766 0.843205 4.77602e-20)
(0.72226 0.899486 0)
(0.710042 0.90508 -9.67658e-20)
(0.650956 0.764402 0)
(0.695538 0.789139 0)
(0.873793 2.9931 2.45003e-19)
(0.905956 3.09438 1.83688e-19)
(0.543553 2.90016 -6.02261e-19)
(0.414578 2.78555 -4.04233e-21)
(0.856192 2.71581 0)
(0.795588 2.66583 4.04746e-21)
(0.853503 2.33925 2.17485e-19)
(0.868308 2.03609 9.44364e-21)
(0.127192 2.22965 0)
(0.0911178 1.56418 4.02797e-19)
(0.121488 1.53392 0)
(0.889183 0.189458 0)
(0.829458 0.181425 0)
(0.793141 0.181426 0)
(0.880713 0.209098 -3.21917e-19)
(0.821637 0.210173 2.0405e-19)
(0.907813 0.0610268 -1.86927e-19)
(0.904989 0.094832 0)
(0.90043 0.0953911 8.35433e-20)
(0.864633 0.0864714 3.43794e-19)
(0.876114 0.0644502 -2.12063e-19)
(1.18259 3.48934 -7.34664e-19)
(1.21712 3.45106 0)
(1.19205 3.46306 -1.46571e-18)
(0.71807 3.59265 1.51666e-18)
(0.979851 3.04288 3.12588e-19)
(0.655099 0.935744 2.62023e-19)
(0.710477 0.795818 0)
(0.463587 0.628146 -9.94765e-20)
(0.513971 0.733202 4.06212e-19)
(0.482043 0.62918 -1.29923e-19)
(0.486342 0.579623 1.57151e-19)
(0.609577 0.520758 3.0854e-19)
(0.663197 0.516002 0)
(0.609062 0.646005 0)
(0.548382 0.611748 0)
(0.963924 0.563189 -4.56608e-20)
(0.824856 0.510233 -1.95163e-19)
(0.844141 0.545544 8.9615e-20)
(0.865844 0.50479 -1.45831e-19)
(0.997864 0.465361 0)
(0.998463 0.536592 -7.82689e-21)
(0.784056 0.380925 -4.32311e-19)
(0.791799 0.374362 -4.9214e-19)
(0.759697 0.374308 3.37052e-19)
(0.74656 0.35885 -3.73634e-19)
(0.804459 0.322273 -2.7962e-19)
(0.755168 0.322044 3.44026e-19)
(1.01378 -0.000318584 -1.91328e-19)
(1.01771 -0.000950264 3.88505e-19)
(1.01005 0.00628166 2.40708e-19)
(1.00868 0.00939107 -2.94196e-19)
(1.00167 0.0174909 0)
(1.01118 0.00582546 -4.59334e-19)
(0.0431883 1.78643 3.18655e-20)
(0.0351412 1.78611 0)
(0.077887 1.77319 2.32208e-19)
(0.0884836 1.78698 -2.0714e-19)
(0.0795005 1.79437 6.88657e-20)
(0.063181 1.79079 0)
(-0.00998885 1.7634 0)
(-0.0053352 1.77243 -1.22209e-20)
(-0.00394588 1.77929 1.12452e-20)
(-0.00255592 1.77359 3.74549e-21)
(-0.00559246 1.75953 -2.23106e-20)
(-0.0053771 1.76341 1.19951e-20)
(0.169578 2.01704 -3.96346e-19)
(0.188139 1.95287 4.13096e-19)
(0.207611 1.78103 -6.59262e-20)
(0.232676 1.90706 1.81763e-20)
(0.293612 1.35513 0)
(0.283321 1.62417 1.89143e-19)
(0.287831 1.49072 -1.8268e-19)
(0.149628 1.72264 6.25549e-20)
(0.118808 1.69403 0)
(0.107618 1.56017 0)
(0.397248 1.78684 7.50811e-19)
(0.426971 1.6166 1.33316e-18)
(0.507187 1.67734 -9.00471e-19)
(0.382236 1.62666 -1.62829e-19)
(0.322272 1.7099 2.71512e-19)
(0.272989 1.6333 -6.67214e-19)
(0.858555 1.7487 -2.90136e-19)
(0.879634 1.97237 0)
(0.89541 1.74242 7.09912e-20)
(0.818091 2.43598 0)
(0.803467 2.33363 0)
(0.902944 2.21791 3.64787e-19)
(1.09381 3.22771 6.45666e-19)
(0.966098 3.00088 -4.86068e-19)
(0.34886 0.977203 0)
(0.498307 0.939252 -2.08869e-19)
(0.717638 0.860413 -3.74201e-20)
(0.627536 1.92216 0)
(0.539726 2.70947 -2.14524e-19)
(0.480765 2.47739 0)
(0.693228 0.670376 -2.68211e-19)
(0.747852 0.66636 3.73246e-19)
(0.759447 0.593395 -3.6767e-19)
(0.647297 0.630029 -4.50209e-20)
(0.674147 0.598805 -1.95242e-19)
(1.06879 2.89588 -4.63731e-19)
(1.02511 3.0434 6.48251e-19)
(0.89399 2.34376 -5.49603e-19)
(0.979022 1.95081 3.70643e-19)
(0.816164 2.4835 1.2028e-18)
(1.02166 2.72188 1.01829e-19)
(0.822253 2.89554 -6.88357e-19)
(0.952091 2.09753 -4.95793e-20)
(0.805311 2.01562 -6.19211e-19)
)
;

boundaryField
{
    wall-4
    {
        type            noSlip;
    }
    velocity-inlet-5
    {
        type            fixedValue;
        value           uniform (1 0 0);
    }
    velocity-inlet-6
    {
        type            fixedValue;
        value           uniform (0 3 0);
    }
    pressure-outlet-7
    {
        type            zeroGradient;
    }
    wall-8
    {
        type            noSlip;
    }
    frontAndBackPlanes
    {
        type            empty;
    }
}


// ************************************************************************* //
