/*--------------------------------*- C++ -*----------------------------------*\
| =========                 |                                                 |
| \\      /  F ield         | OpenFOAM: The Open Source CFD Toolbox           |
|  \\    /   O peration     | Version:  4.0                                   |
|   \\  /    A nd           | Web:      www.OpenFOAM.org                      |
|    \\/     M anipulation  |                                                 |
\*---------------------------------------------------------------------------*/
FoamFile
{
    version     2.0;
    format      ascii;
    class       volScalarField;
    location    "30";
    object      p;
}
// * * * * * * * * * * * * * * * * * * * * * * * * * * * * * * * * * * * * * //

dimensions      [0 2 -2 0 0 0 0];

internalField   nonuniform List<scalar> 
8800
(
1.58679
1.539
1.50031
1.4713
1.45043
1.43558
1.42495
1.41743
1.41256
1.41042
1.41159
1.41569
1.42226
1.43152
1.44425
1.46196
1.48672
1.52064
1.56318
1.62188
1.41805
1.42573
1.43319
1.4365
1.43499
1.42989
1.42339
1.41728
1.41251
1.4096
1.40922
1.41162
1.41602
1.42189
1.42861
1.43485
1.43846
1.43771
1.43227
1.42357
1.39648
1.40264
1.40676
1.40969
1.41173
1.41232
1.41118
1.40904
1.40696
1.40596
1.40681
1.40908
1.41179
1.41391
1.41446
1.41322
1.41084
1.40743
1.40286
1.3991
1.39071
1.39336
1.3961
1.3985
1.40013
1.40127
1.40198
1.40205
1.40168
1.40153
1.40216
1.40321
1.40395
1.40393
1.40325
1.40211
1.40025
1.39764
1.39522
1.39372
1.38538
1.38681
1.38859
1.39061
1.39239
1.39371
1.39467
1.39542
1.39595
1.3964
1.3969
1.39725
1.39723
1.39684
1.39606
1.39474
1.39298
1.39109
1.38976
1.38893
1.38038
1.3813
1.38255
1.38411
1.38574
1.38725
1.38851
1.38952
1.39039
1.39115
1.39166
1.39182
1.39162
1.39105
1.39005
1.38876
1.38735
1.38603
1.38518
1.38463
1.37558
1.37625
1.37722
1.37853
1.37995
1.3814
1.38282
1.38409
1.38519
1.38613
1.38674
1.38689
1.38661
1.38592
1.38496
1.38388
1.38275
1.38175
1.38113
1.38073
1.37093
1.37145
1.37224
1.37339
1.37468
1.37606
1.37749
1.37891
1.38024
1.38138
1.38213
1.38233
1.38204
1.38142
1.38062
1.37972
1.3788
1.37801
1.37753
1.37723
1.36639
1.36679
1.36747
1.36851
1.36974
1.37108
1.3725
1.374
1.3755
1.37688
1.37781
1.37812
1.37796
1.3775
1.37687
1.37612
1.37535
1.37472
1.37436
1.37412
1.36188
1.36221
1.3628
1.36377
1.36497
1.36629
1.36774
1.36929
1.37093
1.37253
1.37371
1.37426
1.37433
1.37406
1.37359
1.37301
1.37238
1.37188
1.3716
1.3714
1.35735
1.35761
1.35815
1.35909
1.36028
1.36164
1.36316
1.36485
1.36668
1.36855
1.37005
1.37088
1.37119
1.37112
1.37081
1.37037
1.36987
1.36947
1.36926
1.3691
1.35276
1.35296
1.35345
1.3544
1.35562
1.35705
1.35869
1.36055
1.36262
1.36482
1.36672
1.36793
1.36851
1.36867
1.36854
1.36824
1.36785
1.36754
1.36738
1.36726
1.34806
1.34822
1.34868
1.34964
1.35092
1.35244
1.35419
1.35626
1.35866
1.36133
1.3637
1.3653
1.36624
1.36669
1.36681
1.36667
1.36641
1.36619
1.36608
1.36598
1.34319
1.34331
1.34376
1.34473
1.34608
1.34771
1.34966
1.35198
1.35473
1.3579
1.3609
1.36309
1.36449
1.36528
1.36565
1.36574
1.36562
1.3655
1.36543
1.36535
1.33812
1.33819
1.33862
1.33964
1.34111
1.3429
1.34509
1.34779
1.35109
1.35498
1.35871
1.3615
1.36338
1.36456
1.36524
1.36555
1.36561
1.3656
1.36559
1.36553
1.33276
1.33281
1.33321
1.33422
1.33575
1.3377
1.34014
1.34323
1.34711
1.3518
1.35647
1.36013
1.36271
1.36444
1.36556
1.36622
1.36656
1.36672
1.36676
1.36671
1.32674
1.32679
1.32721
1.32824
1.32988
1.33207
1.33492
1.33861
1.34332
1.34909
1.35488
1.35947
1.36278
1.36513
1.36678
1.36783
1.36848
1.3688
1.36889
1.36884
1.31973
1.31976
1.32022
1.32132
1.32317
1.32568
1.32903
1.33346
1.33917
1.34625
1.35345
1.35923
1.3635
1.36658
1.36879
1.37033
1.37131
1.37181
1.37194
1.37187
1.31128
1.31132
1.31184
1.31313
1.31529
1.3183
1.32237
1.32778
1.3348
1.34354
1.35244
1.35963
1.36497
1.36888
1.37175
1.37378
1.37511
1.37576
1.37592
1.37584
1.301
1.30104
1.30168
1.30325
1.3059
1.30963
1.31466
1.32138
1.33009
1.34089
1.35186
1.36072
1.36731
1.37218
1.37578
1.37833
1.38
1.38082
1.38101
1.38092
1.28833
1.28838
1.2892
1.29119
1.29452
1.29922
1.30557
1.31402
1.32489
1.33826
1.35173
1.36255
1.37062
1.37659
1.38102
1.38417
1.38624
1.3872
1.38743
1.38732
1.27254
1.2726
1.27368
1.27626
1.28058
1.28663
1.2948
1.30556
1.31923
1.33577
1.35221
1.36532
1.37507
1.3823
1.38767
1.39154
1.39402
1.39515
1.39542
1.39529
1.25246
1.25254
1.25399
1.25749
1.26329
1.2713
1.28201
1.29586
1.31308
1.33348
1.35341
1.36915
1.38082
1.38948
1.39599
1.40064
1.40357
1.40489
1.40519
1.40504
1.22644
1.22656
1.22864
1.2336
1.24169
1.25266
1.26695
1.28494
1.30662
1.33161
1.35553
1.37422
1.38807
1.39837
1.40609
1.41163
1.41504
1.41657
1.41691
1.41672
1.19163
1.19188
1.19523
1.20283
1.21468
1.23018
1.24958
1.27296
1.30011
1.33041
1.35877
1.38068
1.3969
1.40903
1.41812
1.42461
1.42858
1.43032
1.43066
1.43043
1.14248
1.14361
1.15028
1.16323
1.18154
1.20388
1.23024
1.26041
1.29398
1.33021
1.36333
1.38865
1.40736
1.42141
1.43196
1.43952
1.44414
1.44608
1.44639
1.4461
1.07011
1.07772
1.09311
1.11596
1.14372
1.17506
1.20988
1.24789
1.28862
1.33138
1.36977
1.39889
1.42045
1.43674
1.44912
1.45812
1.46368
1.46608
1.46651
1.4663
0.992655
1.01022
1.03505
1.06821
1.1057
1.14616
1.18952
1.23559
1.284
1.33415
1.37894
1.413
1.43837
1.45767
1.47256
1.48371
1.49061
1.49352
1.49428
1.49425
0.928966
0.949451
0.982096
1.02373
1.06971
1.11866
1.17022
1.22414
1.28003
1.33732
1.38814
1.42668
1.45541
1.47733
1.49418
1.50668
1.51474
1.51848
1.51908
1.51914
0.877079
0.89936
0.937182
0.984828
1.03748
1.09348
1.15222
1.21329
1.27615
1.34011
1.39647
1.43898
1.47051
1.49444
1.51287
1.52663
1.53585
1.53969
1.54041
1.54055
0.834009
0.857367
0.898667
0.951123
1.0091
1.07088
1.13574
1.20309
1.27223
1.34228
1.40364
1.4496
1.48346
1.50906
1.52869
1.5433
1.55302
1.55733
1.55833
1.55851
0.797184
0.821165
0.865229
0.921369
0.983784
1.05046
1.1206
1.19349
1.26826
1.34383
1.40968
1.45866
1.49448
1.52137
1.54185
1.55706
1.56718
1.57188
1.57311
1.5733
0.764669
0.789081
0.835227
0.894486
0.960662
1.03159
1.10638
1.18422
1.2641
1.34472
1.41471
1.46639
1.50389
1.53178
1.55287
1.56848
1.57867
1.58365
1.58498
1.58515
0.735048
0.759845
0.807734
0.869655
0.939067
1.01372
1.09266
1.17499
1.25958
1.34493
1.41881
1.47305
1.51205
1.54079
1.56228
1.57807
1.58836
1.59342
1.59482
1.59495
0.707459
0.732605
0.782046
0.846234
0.918504
0.996449
1.07911
1.16553
1.25451
1.34437
1.42205
1.4788
1.51929
1.54884
1.57073
1.58664
1.59699
1.60208
1.60356
1.60366
0.681186
0.706737
0.757582
0.823778
0.898601
0.979492
1.06551
1.15569
1.24877
1.34297
1.42444
1.48376
1.52583
1.55628
1.57863
1.59473
1.6051
1.6101
1.61162
1.61176
0.655954
0.681931
0.733862
0.802011
0.879108
0.962644
1.0517
1.14533
1.24226
1.34068
1.42597
1.48803
1.53185
1.56335
1.58626
1.60262
1.61305
1.61799
1.6194
1.61949
0.631403
0.65793
0.71089
0.780745
0.859877
0.945789
1.0376
1.13439
1.23493
1.33742
1.42664
1.49167
1.53746
1.57018
1.5938
1.6105
1.62101
1.62589
1.62714
1.62715
0.607458
0.634415
0.688488
0.759865
0.840821
0.928864
1.02316
1.12283
1.22673
1.33319
1.42641
1.49463
1.54267
1.57683
1.6013
1.61842
1.629
1.63376
1.63489
1.63479
0.584037
0.61153
0.666548
0.739317
0.821916
0.911861
1.00838
1.11066
1.21767
1.32791
1.42517
1.49684
1.54746
1.58332
1.6088
1.62639
1.63698
1.64155
1.64251
1.64233
0.561048
0.589131
0.645064
0.719102
0.803163
0.894805
0.993296
1.09792
1.20775
1.32155
1.42283
1.4982
1.55176
1.58966
1.61631
1.63438
1.64492
1.64919
1.64995
1.6497
0.538498
0.567226
0.624057
0.699247
0.784613
0.877741
0.977972
1.08465
1.19701
1.3141
1.41932
1.49857
1.55545
1.59581
1.6239
1.64243
1.65273
1.65657
1.65709
1.65679
0.51656
0.545886
0.603569
0.67979
0.766312
0.860745
0.962476
1.07095
1.18553
1.30559
1.41456
1.49779
1.55835
1.60172
1.63169
1.65069
1.66042
1.66356
1.6638
1.66347
0.495263
0.52516
0.583631
0.660791
0.748327
0.843884
0.946908
1.05689
1.17339
1.29606
1.4085
1.4957
1.56022
1.60721
1.6398
1.65957
1.66828
1.67013
1.66994
1.66962
0.47455
0.505086
0.564285
0.642291
0.730726
0.827247
0.931359
1.04261
1.16069
1.28559
1.40113
1.49215
1.56078
1.61194
1.64821
1.66975
1.6773
1.67679
1.67546
1.67532
0.454592
0.48569
0.545589
0.62436
0.71357
0.810916
0.915928
1.0282
1.14757
1.27429
1.39245
1.48702
1.55971
1.61534
1.65642
1.68166
1.68952
1.68611
1.68185
1.68078
0.435302
0.46698
0.527525
0.606972
0.696827
0.794845
0.900556
1.01361
1.13396
1.2621
1.38236
1.48005
1.55669
1.61661
1.66322
1.69462
1.70659
1.70406
1.69356
1.67626
0.416754
0.448963
0.509971
0.589935
0.680207
0.7787
0.884826
0.998351
1.11929
1.24835
1.37015
1.47038
1.55101
1.61455
1.66589
1.70453
1.72162
1.71293
1.69683
1.67842
0.399115
0.431501
0.493111
0.573494
0.664006
0.762828
0.868964
0.982752
1.1039
1.23334
1.356
1.45769
1.54218
1.60823
1.65927
1.69823
1.71797
1.70066
1.62974
1.59583
0.383032
0.413442
0.477277
0.558238
0.648937
0.747716
0.853266
0.967039
1.08801
1.21721
1.3399
1.44183
1.52917
1.59785
1.63945
1.66967
1.67308
1.62357
1.55141
1.5063
0.327249
0.397672
0.462764
0.542979
0.633562
0.731971
0.837671
0.950948
1.07128
1.19956
1.32135
1.42244
1.50876
1.5847
1.58786
1.60342
1.56907
1.50453
1.42686
1.38307
0.36617
0.382072
0.441659
0.521343
0.61125
0.709347
0.813999
0.926355
1.04528
1.17147
1.29026
1.38842
1.46606
1.54158
1.53912
1.43352
1.32916
1.25707
1.18283
1.21863
0.335285
0.364444
0.424822
0.504043
0.593894
0.69164
0.796423
0.907998
1.02564
1.14967
1.26516
1.35899
1.429
1.46868
1.42369
1.27831
1.14834
1.05605
0.954654
1.01026
0.311529
0.343686
0.405225
0.484761
0.574651
0.672234
0.776822
0.887424
1.00346
1.12482
1.23627
1.32433
1.38449
1.39309
1.28876
1.11044
0.951511
0.828331
0.692762
0.730841
0.288377
0.32207
0.38477
0.465136
0.555189
0.652623
0.756629
0.866139
0.980403
1.09875
1.20541
1.2871
1.33233
1.30787
1.14898
0.943907
0.742344
0.560783
0.360672
0.353469
0.26599
0.300014
0.363576
0.444664
0.534916
0.632148
0.735467
0.843785
0.956046
1.07107
1.17241
1.24691
1.27481
1.21555
1.01573
0.794238
0.561886
0.353959
0.0923125
-0.234457
0.243385
0.277348
0.341389
0.422959
0.513421
0.610503
0.713212
0.820324
0.930505
1.042
1.13787
1.20415
1.21474
1.10443
0.900028
0.67827
0.457847
0.269791
0.197759
0.097129
0.219718
0.253634
0.317898
0.399698
0.490243
0.587091
0.689104
0.794851
0.902655
1.01016
1.10012
1.15673
1.1425
0.994243
0.79796
0.595369
0.420863
0.319309
0.295051
0.276406
0.194669
0.22856
0.292954
0.374819
0.465279
0.561742
0.662837
0.766934
0.871958
0.974845
1.05841
1.10303
1.06754
0.892443
0.705444
0.528974
0.393062
0.349349
0.33418
0.332074
0.168033
0.201992
0.266513
0.348362
0.438613
0.534488
0.634439
0.736575
0.838396
0.936091
1.01255
1.04366
0.990194
0.796865
0.619666
0.461607
0.370485
0.356007
0.353733
0.353616
0.139808
0.173932
0.238578
0.32037
0.410276
0.505392
0.603966
0.703827
0.802033
0.894014
0.962377
0.981795
0.894624
0.708801
0.539818
0.407658
0.368517
0.363631
0.363146
0.363753
0.110305
0.144629
0.209301
0.290971
0.380405
0.474573
0.571525
0.668805
0.762978
0.848783
0.908495
0.911646
0.795178
0.624952
0.474174
0.380983
0.372672
0.370277
0.369082
0.369374
0.080102
0.11448
0.178968
0.26043
0.349246
0.442263
0.537356
0.631752
0.721532
0.800712
0.851995
0.836014
0.702164
0.546163
0.419145
0.392778
0.374616
0.371346
0.371858
0.372277
0.049666
0.0839344
0.148138
0.229183
0.317196
0.408865
0.50185
0.593085
0.678177
0.750469
0.792999
0.76013
0.608667
0.468364
0.379598
0.346537
0.361137
0.368579
0.371322
0.372047
0.0198031
0.0538164
0.117563
0.197847
0.284854
0.37495
0.465592
0.553436
0.633641
0.699006
0.731776
0.684345
0.513016
0.384702
0.337972
0.351092
0.349026
0.354556
0.360137
0.362343
-0.00793618
0.0251716
0.0880963
0.167323
0.253061
0.341317
0.429402
0.513706
0.588918
0.647303
0.672114
0.610578
0.419029
0.258073
0.23553
0.260578
0.280351
0.29409
0.304496
0.310152
-0.0323042
-0.000179365
0.0607097
0.138786
0.222849
0.309012
0.394347
0.475055
0.545408
0.596928
0.618158
0.540178
0.341573
0.10574
0.0464653
0.117097
0.180697
0.204123
0.214695
0.220548
-0.0513961
-0.0211192
0.0376005
0.113517
0.195507
0.279278
0.361746
0.438897
0.504887
0.549968
0.570192
0.486639
0.32811
0.0919506
-0.143931
0.00147311
0.0764875
0.0950206
0.103524
0.110972
-0.0634408
-0.0357228
0.019965
0.0931976
0.172534
0.253591
0.333095
0.406945
0.469164
0.509446
0.528472
0.457391
0.403299
0.41234
0.251509
0.129742
-0.00711796
-0.024655
-0.0157999
-0.0120052
-0.0662453
-0.0422408
0.00950903
0.0793459
0.155553
0.233498
0.31005
0.381101
0.440107
0.477458
0.489283
0.424026
0.438812
0.818434
0.920495
0.438566
0.0552496
-0.00357984
-0.0232184
-0.0274978
-0.0585401
-0.0387855
0.00794355
0.0732875
0.145849
0.220512
0.294378
0.363296
0.420442
0.455179
0.452739
0.318276
0.0827648
-0.130437
-0.404911
-0.789952
-0.688909
-0.406126
-0.248818
-0.249524
-0.0386104
-0.0229665
0.0164865
0.075933
0.144266
0.215708
0.287387
0.355508
0.413664
0.448555
0.437433
0.184867
-0.540889
-1.68311
-2.37125
-2.68232
-2.48172
-1.96788
-1.50928
-1.28622
-0.00783594
0.00297774
0.0348039
0.087076
0.150836
0.219313
0.28987
0.359231
0.422057
0.467694
0.463441
0.237706
-0.398439
-1.19446
-1.83705
-2.0027
-1.76272
-1.37125
-1.03142
-0.877729
0.0296914
0.0361569
0.0596397
0.104649
0.163997
0.230338
0.301234
0.374382
0.445606
0.513623
0.553486
0.556376
0.497961
0.589408
0.793044
1.11061
1.43213
1.67805
1.8281
1.88798
0.0683846
0.0719617
0.0866764
0.12478
0.180781
0.246283
0.318726
0.397562
0.482517
0.572356
0.680736
0.822614
1.13143
1.69153
2.33248
2.91618
3.33027
3.5575
3.65197
3.67766
0.102571
0.104595
0.112979
0.143673
0.19663
0.262995
0.338407
0.422724
0.518094
0.627342
0.749173
0.880662
1.14265
1.71274
2.33137
2.8718
3.25492
3.47197
3.56809
3.59457
0.136579
0.137354
0.140278
0.161294
0.209997
0.27762
0.355301
0.442485
0.538025
0.647366
0.758701
0.874642
1.02796
1.45397
1.94664
2.35269
2.64853
2.8224
2.90268
2.92724
0.163721
0.164988
0.165754
0.178766
0.223155
0.291296
0.370455
0.456639
0.549238
0.653241
0.754949
0.852366
0.947297
1.20855
1.5708
1.86677
2.08607
2.21714
2.27707
2.29255
0.178029
0.17766
0.17622
0.188041
0.236127
0.308496
0.388581
0.471493
0.558817
0.653859
0.743899
0.82124
0.890744
1.05197
1.29062
1.49578
1.64633
1.73379
1.77388
1.78442
0.20434
0.20051
0.197487
0.211606
0.263718
0.337575
0.414863
0.491056
0.569198
0.652079
0.730545
0.796377
0.858915
0.958802
1.11595
1.2475
1.34227
1.39713
1.42053
1.42519
0.287638
0.282722
0.279505
0.292647
0.334597
0.393398
0.455508
0.517804
0.582283
0.651309
0.717963
0.774029
0.827155
0.891745
0.99113
1.07443
1.1332
1.16773
1.18104
1.18157
0.419368
0.416794
0.414767
0.420605
0.441019
0.471621
0.508906
0.550826
0.597939
0.651367
0.704187
0.749321
0.792861
0.833073
0.892148
0.948039
0.986795
1.0092
1.01867
1.01846
0.54151
0.540617
0.538733
0.536946
0.538418
0.54602
0.561029
0.583637
0.6142
0.651881
0.690231
0.724401
0.757291
0.783249
0.818192
0.854315
0.882262
0.899131
0.906189
0.90545
0.618692
0.618369
0.616233
0.610672
0.603419
0.599284
0.601513
0.611202
0.628376
0.651677
0.675098
0.694273
0.714764
0.730303
0.754657
0.78296
0.805634
0.819458
0.825004
0.823795
0.65519
0.654812
0.65268
0.647237
0.639118
0.631961
0.628799
0.631278
0.639601
0.651945
0.661785
0.665142
0.664561
0.670051
0.695528
0.724956
0.747221
0.7598
0.764552
0.763188
0.668129
0.667663
0.665852
0.661719
0.655584
0.649398
0.645329
0.645003
0.648534
0.653585
0.651793
0.637628
0.616573
0.615557
0.648247
0.68049
0.702587
0.714378
0.718841
0.71809
0.670318
0.669887
0.668522
0.665597
0.661602
0.657513
0.654613
0.65421
0.656486
0.659107
0.652768
0.626744
0.587991
0.59779
0.637208
0.668175
0.686245
0.694689
0.697615
0.697039
0.667557
0.6673
0.666495
0.664581
0.662066
0.659856
0.6589
0.66027
0.664512
0.669807
0.667934
0.647162
0.619911
0.638
0.669926
0.691557
0.702347
0.706151
0.707256
0.706758
0.660532
0.660535
0.660374
0.659528
0.658323
0.657817
0.659089
0.663451
0.672025
0.683822
0.694647
0.694604
0.693449
0.713308
0.730578
0.73902
0.743014
0.745652
0.746976
0.746959
0.647494
0.647749
0.648177
0.648413
0.648747
0.65026
0.65424
0.662339
0.67733
0.698306
0.725081
0.7486
0.774648
0.793973
0.799793
0.80312
0.806865
0.811364
0.81318
0.811332
0.626507
0.627004
0.627987
0.629203
0.631137
0.634987
0.642282
0.655024
0.676533
0.708325
0.748226
0.788273
0.832482
0.84812
0.845591
0.847167
0.854018
0.861113
0.86201
0.860248
0.596003
0.5967
0.598117
0.600249
0.603701
0.609828
0.620425
0.638101
0.666456
0.707772
0.756494
0.801383
0.848131
0.863119
0.865789
0.873602
0.882347
0.888153
0.889048
0.887864
0.553488
0.554512
0.556397
0.559291
0.563949
0.571794
0.584855
0.606478
0.640189
0.689212
0.744796
0.789113
0.825646
0.839181
0.856217
0.881411
0.900826
0.908033
0.906207
0.904946
0.496065
0.497365
0.499602
0.503001
0.508258
0.516547
0.529813
0.551751
0.586601
0.640999
0.706237
0.755486
0.772695
0.787802
0.832238
0.880713
0.910964
0.919187
0.917134
0.91701
0.421407
0.422822
0.425052
0.428306
0.432829
0.438967
0.447778
0.462213
0.487894
0.540582
0.626794
0.699253
0.717361
0.743878
0.82296
0.890568
0.937455
0.948047
0.94518
0.946184
0.329834
0.331012
0.332587
0.334526
0.335949
0.335462
0.331797
0.324973
0.32109
0.359394
0.487459
0.607679
0.644945
0.698048
0.816168
0.918917
0.976841
0.987263
0.983473
0.981509
0.22684
0.227279
0.227356
0.226383
0.221547
0.208478
0.18088
0.131562
0.0720704
0.0822863
0.275103
0.474049
0.556057
0.657414
0.791441
0.907545
0.966696
0.963308
0.957554
0.954028
0.124902
0.124184
0.122172
0.117008
0.103358
0.0725693
0.0095499
-0.105022
-0.261418
-0.26441
0.0100436
0.293827
0.439124
0.590256
0.73645
0.830245
0.855669
0.856457
0.853832
0.851553
0.0422285
0.0402254
0.0363251
0.0274994
0.00570359
-0.0424168
-0.14161
-0.32421
-0.550972
-0.582714
-0.230758
0.128219
0.315529
0.522296
0.671734
0.732824
0.723033
0.718304
0.716775
0.715685
-0.0049871
-0.00718845
-0.0110381
-0.0215221
-0.04611
-0.100015
-0.214194
-0.41479
-0.68753
-0.727557
-0.356837
0.00713012
0.249615
0.49483
0.619002
0.615216
0.595201
0.580695
0.573831
0.571165
-0.0130883
-0.0148689
-0.0174041
-0.0231381
-0.0397833
-0.0803919
-0.173735
-0.353492
-0.563761
-0.606326
-0.302428
-0.0196693
0.188263
0.435766
0.534998
0.48124
0.429204
0.396233
0.38054
0.37452
0.00432701
0.00398403
0.0051796
0.00692136
0.00650211
0.00182912
-0.0152561
-0.0635359
-0.126688
-0.163301
-0.119137
-0.0375154
0.0158241
0.0624766
0.1352
0.123899
0.104735
0.0877494
0.0797694
0.0770753
0.606177
0.790407
1.00521
1.1885
1.33621
1.45414
1.55266
1.63584
1.67306
1.65019
0.941645
1.07314
1.21347
1.33494
1.43783
1.52351
1.59291
1.64214
1.66715
1.67893
1.17954
1.26915
1.36444
1.44899
1.5219
1.58294
1.63143
1.66681
1.69212
1.70979
1.35189
1.41473
1.48143
1.5425
1.59564
1.64071
1.6776
1.7069
1.73065
1.74875
1.48476
1.53067
1.57914
1.62549
1.6664
1.70203
1.73241
1.75756
1.77854
1.79626
1.59339
1.62789
1.66777
1.70499
1.73903
1.76944
1.79592
1.81808
1.83633
1.85363
1.68867
1.71835
1.75355
1.7867
1.81753
1.84545
1.86979
1.88994
1.90572
1.92279
1.77901
1.80883
1.84359
1.87626
1.90642
1.93348
1.95673
1.97551
1.98908
2.00612
1.87543
1.90893
1.94606
1.98005
2.01046
2.03695
2.05916
2.07662
2.08863
2.10605
1.99121
2.02902
2.068
2.10256
2.13213
2.15706
2.17759
2.1936
2.20516
2.22325
2.13666
2.17537
2.21148
2.2423
2.2681
2.29031
2.30945
2.32505
2.33754
2.35555
2.31166
2.34357
2.36984
2.39232
2.41237
2.43115
2.44892
2.46544
2.48083
2.49891
2.50041
2.51771
2.53288
2.54917
2.56511
2.57968
2.59292
2.60687
2.62444
2.6446
2.68242
2.69186
2.70343
2.71427
2.72357
2.73319
2.74402
2.75541
2.76679
2.78215
2.88955
2.89325
2.87832
2.86353
2.85728
2.86299
2.88148
2.91181
2.944
2.97066
3.1959
3.06103
2.98442
2.9421
2.9247
2.92866
2.95608
3.0125
3.11513
3.33949
1.47739
1.47525
1.47077
1.46214
1.4499
1.43776
1.42751
1.41959
1.41392
1.41059
1.41013
1.41276
1.41777
1.42492
1.43425
1.44575
1.45837
1.46939
1.47549
1.47853
1.40185
1.4077
1.41403
1.41852
1.42098
1.42064
1.41788
1.41404
1.41048
1.40813
1.40788
1.40996
1.41352
1.41773
1.42148
1.42332
1.42235
1.41884
1.41366
1.40703
1.39346
1.39576
1.39916
1.40215
1.40422
1.4057
1.40643
1.40607
1.40499
1.40402
1.40407
1.40537
1.40708
1.40829
1.4084
1.40745
1.40586
1.40349
1.4002
1.39727
1.388
1.38908
1.39091
1.39329
1.3953
1.39672
1.39771
1.39842
1.39876
1.39888
1.39923
1.39989
1.40036
1.40032
1.39982
1.3989
1.39737
1.39524
1.39312
1.39173
1.38285
1.38352
1.38462
1.38633
1.38811
1.38973
1.391
1.39197
1.39278
1.39346
1.39403
1.3944
1.39444
1.39414
1.39345
1.3923
1.3908
1.38919
1.38783
1.38704
1.37796
1.37842
1.37921
1.38051
1.382
1.38352
1.38496
1.38622
1.38727
1.3882
1.38892
1.38928
1.38923
1.38878
1.38793
1.38681
1.38558
1.38436
1.38339
1.38286
1.37324
1.37358
1.3742
1.37528
1.37659
1.37797
1.3794
1.3808
1.3821
1.38324
1.38412
1.38455
1.38447
1.38396
1.38316
1.38222
1.38122
1.38024
1.3795
1.37911
1.36865
1.36891
1.36941
1.37035
1.37154
1.37286
1.37425
1.3757
1.37715
1.3785
1.37958
1.38013
1.38011
1.3797
1.37905
1.37827
1.37743
1.37664
1.37607
1.37577
1.36413
1.36434
1.36476
1.36559
1.36672
1.36799
1.36937
1.37084
1.3724
1.37396
1.37527
1.376
1.37615
1.37593
1.37546
1.37484
1.37415
1.37351
1.37306
1.37283
1.35963
1.35978
1.36014
1.36091
1.36201
1.36327
1.36467
1.36622
1.3679
1.36965
1.37123
1.37225
1.37266
1.37265
1.37235
1.37189
1.37135
1.37083
1.37048
1.3703
1.35507
1.35519
1.3555
1.35623
1.35733
1.35862
1.3601
1.36177
1.36363
1.36563
1.36755
1.36892
1.36963
1.36985
1.36974
1.36943
1.36901
1.36861
1.36834
1.3682
1.35043
1.35051
1.35079
1.35151
1.35264
1.35401
1.35557
1.3574
1.35951
1.36186
1.36421
1.366
1.36703
1.36753
1.36765
1.36752
1.36723
1.36692
1.36672
1.36662
1.34565
1.34571
1.34596
1.34667
1.34783
1.34927
1.35095
1.35295
1.35531
1.35806
1.36094
1.36326
1.36476
1.36564
1.36606
1.36615
1.36603
1.36584
1.36572
1.36565
1.34067
1.3407
1.34093
1.34166
1.34289
1.34445
1.34633
1.34861
1.35138
1.35465
1.35818
1.36116
1.36317
1.36442
1.36515
1.36547
1.36554
1.36548
1.36543
1.36539
1.3355
1.3355
1.3357
1.33642
1.33769
1.33937
1.34143
1.34401
1.34723
1.35116
1.35552
1.35928
1.36196
1.36379
1.3649
1.36555
1.3659
1.36602
1.36607
1.36606
1.32985
1.32984
1.33005
1.33075
1.33207
1.33386
1.33618
1.33916
1.34296
1.34769
1.35305
1.35784
1.36132
1.36375
1.3654
1.36652
1.36721
1.36758
1.36772
1.36773
1.32339
1.32336
1.32359
1.32433
1.32574
1.32774
1.33042
1.33396
1.33856
1.34436
1.35098
1.35692
1.36134
1.36453
1.36681
1.36838
1.36945
1.37007
1.37031
1.37032
1.3157
1.31566
1.31591
1.31675
1.31834
1.32065
1.32383
1.32807
1.33365
1.34075
1.34892
1.35634
1.36192
1.36601
1.36897
1.37111
1.3726
1.37347
1.37381
1.37382
1.30639
1.30633
1.30664
1.30764
1.30954
1.31235
1.31624
1.32147
1.32837
1.33715
1.34724
1.35639
1.36329
1.36839
1.37213
1.37487
1.37678
1.3779
1.37832
1.37834
1.29496
1.29489
1.2953
1.29656
1.2989
1.30241
1.30726
1.3138
1.3224
1.33328
1.34573
1.35697
1.36545
1.37173
1.37637
1.37978
1.38215
1.38353
1.38403
1.38406
1.28081
1.28072
1.28127
1.2829
1.28589
1.29037
1.29655
1.30486
1.31569
1.32925
1.34457
1.35828
1.36859
1.37622
1.38189
1.38606
1.38898
1.39063
1.39121
1.39124
1.26297
1.26287
1.26363
1.26582
1.26975
1.27561
1.28367
1.29439
1.30815
1.32506
1.34384
1.36043
1.37283
1.38201
1.38885
1.3939
1.39743
1.39937
1.40006
1.40009
1.24008
1.23996
1.24108
1.24411
1.24946
1.25741
1.26819
1.28222
1.29979
1.32084
1.34368
1.36358
1.37836
1.38932
1.39752
1.40356
1.40773
1.40999
1.41079
1.41081
1.20994
1.20985
1.21161
1.21606
1.22375
1.23497
1.24975
1.26833
1.29078
1.3168
1.34432
1.3679
1.38533
1.39828
1.40797
1.41513
1.42
1.42262
1.42351
1.42353
1.16864
1.16872
1.17192
1.17929
1.19116
1.20768
1.22829
1.25295
1.28146
1.3133
1.34601
1.37359
1.39385
1.40893
1.42026
1.42863
1.43428
1.43729
1.43826
1.43824
1.10871
1.10998
1.11776
1.13151
1.15095
1.17568
1.20439
1.23675
1.2724
1.31075
1.34902
1.38074
1.40392
1.42118
1.43418
1.44382
1.45039
1.45377
1.45473
1.45466
1.03738
1.03943
1.05415
1.07782
1.10787
1.1421
1.17964
1.22024
1.26363
1.30927
1.35419
1.39126
1.41846
1.43886
1.45431
1.46581
1.47371
1.47783
1.47893
1.47893
0.964123
0.970816
0.992573
1.02614
1.06591
1.10937
1.15565
1.20451
1.25571
1.30878
1.36055
1.40315
1.43445
1.45806
1.47618
1.48993
1.49929
1.50335
1.50473
1.50502
0.905207
0.913852
0.940299
0.980591
1.02788
1.07908
1.13312
1.18963
1.24825
1.30842
1.36664
1.41428
1.44918
1.47545
1.49554
1.51071
1.52108
1.52624
1.5284
1.52882
0.857331
0.866542
0.896436
0.941598
0.994624
1.05201
1.11256
1.17577
1.24107
1.30778
1.37192
1.42406
1.46203
1.49046
1.51216
1.52865
1.54009
1.54607
1.54856
1.54902
0.817192
0.826628
0.858847
0.90777
0.965418
1.0279
1.09394
1.16295
1.23419
1.3068
1.3763
1.43244
1.47301
1.50321
1.52614
1.54353
1.55569
1.56231
1.56506
1.56557
0.782288
0.791816
0.825738
0.877724
0.939208
1.00602
1.07682
1.15093
1.22748
1.30543
1.37982
1.43955
1.48239
1.51401
1.53786
1.55586
1.56849
1.57559
1.57846
1.57899
0.751057
0.760623
0.795881
0.850433
0.915128
0.985671
1.06067
1.13934
1.22072
1.30359
1.38252
1.44557
1.49045
1.52328
1.54781
1.56615
1.579
1.58632
1.58923
1.58979
0.722314
0.731932
0.768303
0.82507
0.892538
0.966345
1.04507
1.12785
1.21366
1.30114
1.3844
1.45065
1.49747
1.53142
1.55653
1.57513
1.58806
1.59552
1.5984
1.59897
0.695289
0.704965
0.742324
0.800998
0.870955
0.947667
1.02971
1.11623
1.20613
1.29796
1.38543
1.45488
1.50368
1.53877
1.56449
1.58338
1.59644
1.60391
1.60682
1.6072
0.669481
0.679248
0.71753
0.77783
0.85004
0.929347
1.01438
1.1043
1.19799
1.29397
1.38558
1.45831
1.50922
1.54559
1.57202
1.59126
1.60446
1.6119
1.61478
1.61515
0.644483
0.65443
0.693543
0.755385
0.82958
0.911212
0.998947
1.09196
1.18917
1.28908
1.38482
1.46098
1.5142
1.55204
1.57933
1.59903
1.61242
1.61986
1.62263
1.623
0.620118
0.630306
0.670171
0.733488
0.80945
0.893161
0.983328
1.07915
1.17961
1.28327
1.3831
1.46288
1.51868
1.55819
1.58651
1.60679
1.62041
1.62784
1.63047
1.63079
0.59633
0.606736
0.647383
0.712014
0.789578
0.875156
0.967499
1.06587
1.1693
1.2765
1.38038
1.46394
1.52259
1.56407
1.59362
1.61457
1.62845
1.6358
1.63826
1.63848
0.573002
0.583721
0.625092
0.69094
0.769948
0.857192
0.951475
1.05212
1.15825
1.26875
1.37656
1.46404
1.52588
1.56966
1.60066
1.62237
1.63648
1.64371
1.64594
1.64604
0.550198
0.561205
0.603316
0.670272
0.750581
0.839305
0.935307
1.03796
1.14651
1.26001
1.37159
1.4631
1.52843
1.57491
1.60766
1.63024
1.64448
1.65143
1.65335
1.65336
0.527888
0.539203
0.582076
0.650047
0.731519
0.821544
0.919049
1.02346
1.13413
1.25033
1.36545
1.46098
1.53008
1.57972
1.61467
1.63827
1.65248
1.65889
1.66041
1.6603
0.506258
0.517809
0.561412
0.63031
0.712821
0.803991
0.90278
1.00871
1.12121
1.23978
1.35812
1.45758
1.53063
1.5839
1.62168
1.6467
1.66068
1.66608
1.66696
1.66673
0.48518
0.497071
0.54136
0.611098
0.69453
0.786695
0.886599
0.993796
1.10784
1.22846
1.34962
1.45279
1.52986
1.58716
1.62857
1.65587
1.66972
1.67337
1.67298
1.67254
0.464821
0.477021
0.521955
0.592468
0.67673
0.769743
0.870591
0.978845
1.09416
1.21643
1.34003
1.44655
1.52757
1.58911
1.63495
1.66594
1.6808
1.68231
1.6791
1.67749
0.445128
0.457617
0.503251
0.574476
0.659464
0.753208
0.854842
0.963942
1.08026
1.20387
1.32943
1.43881
1.52357
1.58926
1.63995
1.67626
1.69483
1.69644
1.68928
1.67909
0.426183
0.438904
0.485147
0.55697
0.642522
0.736804
0.839011
0.948671
1.06569
1.19023
1.31726
1.42892
1.51727
1.58694
1.64224
1.68512
1.71065
1.71623
1.708
1.69845
0.408041
0.420975
0.467641
0.539993
0.62592
0.720529
0.82312
0.933022
1.05041
1.17541
1.30335
1.41657
1.508
1.58148
1.63927
1.68682
1.71567
1.72629
1.69069
1.63632
0.390961
0.404597
0.450836
0.523604
0.609542
0.704254
0.807128
0.917116
1.03449
1.1595
1.28769
1.40166
1.49486
1.57266
1.62926
1.6699
1.69975
1.69118
1.63386
1.56736
0.374645
0.389066
0.434921
0.508405
0.593715
0.688454
0.790816
0.901016
1.01809
1.14267
1.27031
1.38409
1.47685
1.56162
1.61149
1.66443
1.63932
1.60049
1.53063
1.46053
0.38885
0.406884
0.455386
0.532832
0.622968
0.721385
0.828946
0.941928
1.06183
1.1895
1.31058
1.41109
1.49542
1.58515
1.63662
1.55559
1.51216
1.45039
1.37657
1.32733
0.364528
0.38101
0.416499
0.484322
0.569229
0.663421
0.76587
0.875353
0.991464
1.11452
1.23984
1.35124
1.44016
1.51893
1.58954
1.59204
1.47158
1.38777
1.32476
1.23963
0.344654
0.360353
0.401618
0.470866
0.556026
0.649775
0.751018
0.859523
0.974527
1.09595
1.21919
1.32798
1.41367
1.47957
1.50642
1.4368
1.29398
1.19617
1.11969
1.02839
0.324386
0.336901
0.38268
0.453237
0.538565
0.632472
0.733624
0.841713
0.955678
1.07537
1.19549
1.29947
1.378
1.42807
1.40582
1.27581
1.11882
0.997355
0.896678
0.755634
0.300936
0.314025
0.361813
0.433508
0.519152
0.613079
0.714076
0.821488
0.934211
1.05182
1.1683
1.26679
1.33727
1.36774
1.30872
1.1216
0.931966
0.770818
0.622577
0.420658
0.278609
0.291317
0.340326
0.413188
0.499326
0.593211
0.693802
0.800291
0.911528
1.02668
1.13915
1.23164
1.29339
1.29486
1.18343
0.975798
0.752503
0.533982
0.349261
-0.0749748
0.25636
0.268627
0.31812
0.391848
0.478388
0.572294
0.672473
0.778029
0.887671
1.00015
1.10828
1.19414
1.2456
1.21204
1.05813
0.846313
0.61632
0.388128
0.191968
-0.12684
0.233272
0.24537
0.294994
0.369249
0.456068
0.550004
0.649809
0.754457
0.862449
0.972079
1.07562
1.15441
1.19264
1.13908
0.945026
0.741328
0.530785
0.350469
0.273804
0.237299
0.208903
0.220814
0.27059
0.345108
0.432009
0.525817
0.625098
0.728615
0.834632
0.940933
1.03926
1.11028
1.13422
1.05104
0.843932
0.652823
0.479589
0.362992
0.325077
0.312856
0.183055
0.194893
0.244761
0.31943
0.40629
0.499808
0.59836
0.700498
0.804178
0.906642
0.999045
1.06204
1.06431
0.945481
0.752266
0.574981
0.426676
0.364747
0.349206
0.344549
0.155695
0.167285
0.217451
0.292227
0.378954
0.472013
0.569639
0.670119
0.771103
0.869278
0.95503
1.00963
0.984311
0.844521
0.66547
0.49907
0.390521
0.351324
0.357842
0.358355
0.126825
0.138411
0.1887
0.263577
0.350078
0.442529
0.539008
0.637564
0.735497
0.828899
0.907528
0.951739
0.907549
0.747786
0.585872
0.436244
0.385906
0.371112
0.366925
0.366548
0.0968715
0.108459
0.158726
0.233686
0.319843
0.411521
0.506636
0.603
0.697529
0.785716
0.856842
0.88911
0.835311
0.659526
0.512709
0.405072
0.355479
0.367925
0.370249
0.37051
0.0663105
0.0778222
0.128129
0.202893
0.28859
0.379307
0.472841
0.566744
0.657558
0.740179
0.803478
0.826186
0.749823
0.574621
0.447302
0.378285
0.370008
0.369658
0.371167
0.372085
0.0360056
0.0471937
0.0974934
0.171709
0.256812
0.346376
0.438091
0.529284