/*--------------------------------*- C++ -*----------------------------------*\
| =========                 |                                                 |
| \\      /  F ield         | OpenFOAM: The Open Source CFD Toolbox           |
|  \\    /   O peration     | Version:  4.0                                   |
|   \\  /    A nd           | Web:      www.OpenFOAM.org                      |
|    \\/     M anipulation  |                                                 |
\*---------------------------------------------------------------------------*/
FoamFile
{
    version     2.0;
    format      ascii;
    class       volVectorField;
    location    "30";
    object      U;
}
// * * * * * * * * * * * * * * * * * * * * * * * * * * * * * * * * * * * * * //

dimensions      [0 1 -1 0 0 0 0];

internalField   nonuniform List<vector> 
8800
(
(0.980154 -0.0915211 0)
(1.00234 -0.0587229 0)
(0.99961 -0.0321239 0)
(0.999998 -0.0165145 0)
(1.00005 -0.00882559 0)
(1.00002 -0.00507086 0)
(0.999996 -0.00297317 0)
(0.99999 -0.00168588 0)
(0.99999 -0.000808733 0)
(1.00005 -0.000122598 0)
(0.999996 0.000571187 0)
(1 0.00132756 0)
(1.00001 0.00236043 0)
(1.00002 0.00397121 0)
(1.00004 0.00672186 0)
(1.00005 0.0120314 0)
(0.99988 0.0230856 0)
(0.999072 0.0431527 0)
(1.00722 0.0790277 0)
(0.775024 0.0478396 0)
(0.358977 -0.0147489 0)
(1.04649 -0.0724932 0)
(1.08849 -0.0660304 0)
(1.04946 -0.0509236 0)
(1.02552 -0.037703 0)
(1.01266 -0.0258904 0)
(1.00648 -0.0166992 0)
(1.00356 -0.0102425 0)
(1.00214 -0.00565453 0)
(1.00149 -0.00209717 0)
(1.00137 0.00109497 0)
(1.00174 0.00439734 0)
(1.00271 0.00829325 0)
(1.00473 0.0136216 0)
(1.00897 0.0213147 0)
(1.01798 0.0318225 0)
(1.03588 0.0446118 0)
(1.0675 0.0580714 0)
(1.09474 0.0699572 0)
(0.845699 0.0554975 0)
(0.21776 -0.00138105 0)
(1.07567 -0.0506623 0)
(1.09943 -0.0489482 0)
(1.06438 -0.0400302 0)
(1.03983 -0.0325642 0)
(1.02369 -0.0253528 0)
(1.0139 -0.0181705 0)
(1.00842 -0.0116083 0)
(1.0056 -0.00590547 0)
(1.00446 -0.000662504 0)
(1.00479 0.00441568 0)
(1.00665 0.00970059 0)
(1.01057 0.0156888 0)
(1.01789 0.0224689 0)
(1.03053 0.0295897 0)
(1.05057 0.0367016 0)
(1.08018 0.0445079 0)
(1.1058 0.0518576 0)
(0.943444 0.040971 0)
(0.2173 0.00139991 0)
(0.176609 -0.000628825 0)
(1.01937 -0.0354687 0)
(1.10571 -0.0414231 0)
(1.07794 -0.0364173 0)
(1.05233 -0.0303818 0)
(1.03506 -0.024517 0)
(1.02321 -0.018767 0)
(1.01543 -0.0128376 0)
(1.01085 -0.00681174 0)
(1.00885 -0.000638908 0)
(1.00941 0.00547431 0)
(1.01254 0.0113768 0)
(1.0185 0.0171747 0)
(1.02809 0.0227934 0)
(1.04232 0.0283761 0)
(1.06319 0.034178 0)
(1.09404 0.0400872 0)
(1.09467 0.0416499 0)
(0.830597 0.0227182 0)
(0.175828 0.000643946 0)
(0.154697 -0.000462447 0)
(0.958135 -0.0256867 0)
(1.10437 -0.0351122 0)
(1.08801 -0.0326577 0)
(1.0611 -0.0281421 0)
(1.043 -0.0231997 0)
(1.03062 -0.0179866 0)
(1.02205 -0.0125567 0)
(1.01653 -0.00674784 0)
(1.01393 -0.000381089 0)
(1.01463 0.006013 0)
(1.01847 0.0118505 0)
(1.02527 0.0171744 0)
(1.03542 0.0222009 0)
(1.05021 0.0270537 0)
(1.07219 0.031542 0)
(1.10127 0.0354826 0)
(1.07014 0.0337704 0)
(0.743289 0.0143669 0)
(0.153532 0.000479547 0)
(0.140022 -0.000334001 0)
(0.901128 -0.0192952 0)
(1.09674 -0.03019 0)
(1.09611 -0.0293408 0)
(1.06875 -0.0255986 0)
(1.04984 -0.0215609 0)
(1.03688 -0.0169505 0)
(1.02792 -0.011802 0)
(1.02202 -0.00618175 0)
(1.01908 4.01369e-05 0)
(1.01979 0.00629094 0)
(1.02388 0.0118866 0)
(1.03094 0.016903 0)
(1.04148 0.021443 0)
(1.05693 0.0254393 0)
(1.07979 0.0289783 0)
(1.1037 0.0317282 0)
(1.0387 0.0278267 0)
(0.676996 0.0101815 0)
(0.138385 0.000354427 0)
(0.129314 -0.000252387 0)
(0.851342 -0.014862 0)
(1.08433 -0.0260222 0)
(1.10165 -0.0263713 0)
(1.07541 -0.0230798 0)
(1.05604 -0.0195005 0)
(1.04267 -0.0154677 0)
(1.03331 -0.0107785 0)
(1.02712 -0.00544247 0)
(1.02399 0.000567092 0)
(1.02461 0.00659518 0)
(1.02875 0.0118714 0)
(1.03602 0.0164091 0)
(1.04688 0.0202921 0)
(1.06271 0.0236705 0)
(1.08598 0.0267544 0)
(1.10309 0.0286561 0)
(1.0046 0.0231459 0)
(0.625705 0.00773082 0)
(0.127105 0.000277226 0)
(0.121189 -0.000192597 0)
(0.809072 -0.0116149 0)
(1.06906 -0.0223371 0)
(1.10514 -0.0236562 0)
(1.08156 -0.0208136 0)
(1.06165 -0.0174721 0)
(1.04798 -0.0137671 0)
(1.03837 -0.00945387 0)
(1.03193 -0.00445852 0)
(1.02859 0.00121806 0)
(1.0291 0.00687047 0)
(1.03323 0.0117282 0)
(1.04059 0.0157728 0)
(1.05159 0.0191898 0)
(1.06777 0.0221947 0)
(1.09151 0.0249933 0)
(1.09983 0.026015 0)
(0.970426 0.0193793 0)
(0.585015 0.00609591 0)
(0.118283 0.000222908 0)
(0.114942 -0.000147301 0)
(0.773687 -0.00914178 0)
(1.05225 -0.0190001 0)
(1.10726 -0.0210704 0)
(1.08716 -0.0187045 0)
(1.06688 -0.0156096 0)
(1.05296 -0.0120981 0)
(1.04315 -0.00801118 0)
(1.03645 -0.00334462 0)
(1.03287 0.0019825 0)
(1.03322 0.00726519 0)
(1.03733 0.011672 0)
(1.0447 0.0152962 0)
(1.05576 0.0183486 0)
(1.07221 0.0210074 0)
(1.09566 0.0234131 0)
(1.09385 0.0236301 0)
(0.93764 0.0163416 0)
(0.552031 0.00493342 0)
(0.111191 0.000184452 0)
(0.110144 -0.000110555 0)
(0.744385 -0.00717852 0)
(1.03521 -0.0159648 0)
(1.10843 -0.0184756 0)
(1.09237 -0.0163862 0)
(1.07182 -0.0134513 0)
(1.05764 -0.0101857 0)
(1.04765 -0.0063731 0)
(1.0408 -0.00200856 0)
(1.03702 0.00293731 0)
(1.03714 0.00776004 0)
(1.04105 0.0117046 0)
(1.04833 0.0148528 0)
(1.05945 0.0174499 0)
(1.07612 0.0197606 0)
(1.09866 0.021862 0)
(1.08582 0.0214439 0)
(0.907069 0.0138863 0)
(0.524829 0.0040697 0)
(0.105362 0.000156092 0)
(0.106511 -8.06289e-05 0)
(0.72044 -0.00554323 0)
(1.01877 -0.0131472 0)
(1.10882 -0.015953 0)
(1.09744 -0.0142077 0)
(1.0765 -0.0114044 0)
(1.06196 -0.00828262 0)
(1.05177 -0.00463468 0)
(1.04469 -0.000503827 0)
(1.04063 0.00407013 0)
(1.0405 0.00841277 0)
(1.04422 0.0119059 0)
(1.05137 0.0146416 0)
(1.06252 0.0168583 0)
(1.07955 0.018823 0)
(1.10046 0.0205414 0)
(1.07621 0.019463 0)
(0.879 0.0118741 0)
(0.502099 0.00341416 0)
(0.100471 0.000136804 0)
(0.103868 -5.41196e-05 0)
(0.701349 -0.0041065 0)
(1.0036 -0.0104392 0)
(1.10833 -0.0133415 0)
(1.10203 -0.0119717 0)
(1.081 -0.00931302 0)
(1.06618 -0.00622741 0)
(1.05573 -0.00270216 0)
(1.04838 0.00119663 0)
(1.044 0.00543821 0)
(1.04353 0.00937518 0)
(1.04696 0.0123946 0)
(1.05398 0.0146964 0)
(1.06517 0.0165696 0)
(1.08238 0.0181504 0)
(1.10107 0.0193348 0)
(1.06527 0.0175868 0)
(0.853538 0.010186 0)
(0.482928 0.00289813 0)
(0.0962827 0.000123241 0)
(0.102125 -2.88441e-05 0)
(0.686784 -0.00278583 0)
(0.990404 -0.00778351 0)
(1.1073 -0.0104505 0)
(1.10614 -0.00921657 0)
(1.08536 -0.00665302 0)
(1.07026 -0.00372914 0)
(1.05949 -0.000415986 0)
(1.05178 0.00322396 0)
(1.04699 0.00712323 0)
(1.04609 0.0105894 0)
(1.04925 0.0130476 0)
(1.05611 0.014709 0)
(1.06725 0.0159627 0)
(1.08443 0.0171963 0)
(1.10072 0.0180409 0)
(1.05358 0.015799 0)
(0.830735 0.00875755 0)
(0.466687 0.00249014 0)
(0.0926437 0.000114496 0)
(0.101216 -3.01441e-06 0)
(0.676559 -0.00154683 0)
(0.979652 -0.00520431 0)
(1.10637 -0.00752994 0)
(1.11014 -0.00641399 0)
(1.08952 -0.00400953 0)
(1.07407 -0.00120962 0)
(1.06312 0.00200683 0)
(1.05518 0.00553922 0)
(1.04997 0.00916416 0)
(1.0485 0.0121827 0)
(1.05108 0.0141793 0)
(1.05753 0.015405 0)
(1.06853 0.0161588 0)
(1.08592 0.0167645 0)
(1.09943 0.0170212 0)
(1.04157 0.0142581 0)
(0.810463 0.00757305 0)
(0.452859 0.00217454 0)
(0.0894019 0.000110762 0)
(0.101165 2.40116e-05 0)
(0.670621 -0.000264237 0)
(0.971482 -0.00251817 0)
(1.10524 -0.00442476 0)
(1.11361 -0.00359325 0)
(1.09345 -0.00135257 0)
(1.07773 0.00155952 0)
(1.06644 0.00484276 0)
(1.058 0.00828442 0)
(1.05212 0.0116709 0)
(1.05004 0.0142727 0)
(1.05216 0.0156824 0)
(1.05826 0.0163152 0)
(1.06914 0.0166428 0)
(1.08623 0.0166667 0)
(1.09678 0.0163187 0)
(1.02894 0.0128537 0)
(0.792457 0.00656319 0)
(0.441032 0.00191958 0)
(0.0864539 0.000107178 0)
(0.102048 6.15625e-05 0)
(0.668907 0.000926673 0)
(0.966374 8.05944e-05 0)
(1.10442 -0.00107772 0)
(1.1168 -0.000183455 0)
(1.09752 0.00201113 0)
(1.08169 0.00496751 0)
(1.07009 0.00826611 0)
(1.06118 0.0116345 0)
(1.05464 0.0147681 0)
(1.05168 0.0168861 0)
(1.05301 0.0177155 0)
(1.05856 0.017742 0)
(1.06899 0.0173889 0)
(1.08566 0.0168755 0)
(1.09261 0.0157269 0)
(1.01621 0.0118409 0)
(0.776494 0.00595327 0)
(0.430698 0.00179417 0)
(0.0837666 0.000101486 0)
(0.103823 8.91778e-05 0)
(0.670738 0.00190152 0)
(0.964583 0.0023492 0)
(1.10477 0.00211737 0)
(1.12023 0.00332577 0)
(1.10158 0.00573094 0)
(1.08548 0.00879926 0)
(1.07338 0.0121427 0)
(1.06379 0.0155364 0)
(1.05635 0.0185516 0)
(1.0524 0.0202822 0)
(1.05289 0.0205305 0)
(1.0578 0.0198649 0)
(1.06785 0.0188069 0)
(1.08403 0.0177661 0)
(1.08744 0.0160129 0)
(1.00338 0.0116825 0)
(0.761649 0.00594336 0)
(0.420792 0.00187727 0)
(0.0811031 0.000105707 0)
(0.106425 0.000123641 0)
(0.675997 0.00283188 0)
(0.965889 0.00445566 0)
(1.10653 0.00504655 0)
(1.12427 0.00659615 0)
(1.106 0.00932704 0)
(1.08959 0.0127303 0)
(1.07708 0.0164407 0)
(1.06678 0.0201567 0)
(1.05823 0.0232158 0)
(1.05302 0.0246354 0)
(1.05234 0.0244093 0)
(1.05629 0.0231347 0)
(1.06574 0.0214504 0)
(1.08134 0.0197243 0)
(1.08113 0.0173177 0)
(0.990016 0.0123922 0)
(0.74689 0.00650996 0)
(0.41023 0.00214594 0)
(0.0781845 0.000120623 0)
(0.109881 0.000162826 0)
(0.684398 0.00382928 0)
(0.970039 0.0065688 0)
(1.10961 0.00817077 0)
(1.12889 0.0100214 0)
(1.11099 0.0131947 0)
(1.09432 0.0172458 0)
(1.08121 0.0216242 0)
(1.06991 0.0258022 0)
(1.05991 0.0290008 0)
(1.05314 0.0301242 0)
(1.05115 0.029306 0)
(1.05404 0.0274075 0)
(1.06277 0.0251605 0)
(1.07743 0.0227363 0)
(1.07334 0.0194559 0)
(0.975749 0.0138662 0)
(0.731115 0.00755034 0)
(0.398108 0.0025389 0)
(0.0747679 0.000142916 0)
(0.114379 0.000214581 0)
(0.696146 0.00505671 0)
(0.977663 0.00908714 0)
(1.11466 0.011964 0)
(1.13435 0.0145983 0)
(1.11698 0.0185642 0)
(1.09997 0.0234423 0)
(1.08594 0.0285069 0)
(1.07323 0.0330445 0)
(1.06143 0.0361698 0)
(1.05279 0.0367371 0)
(1.04923 0.035136 0)
(1.05098 0.0324577 0)
(1.05881 0.0294188 0)
(1.07216 0.0262379 0)
(1.06405 0.0221752 0)
(0.960341 0.0160461 0)
(0.713264 0.00893299 0)
(0.383827 0.00301606 0)
(0.0707044 0.000170541 0)
(0.120252 0.000288052 0)
(0.711759 0.00671543 0)
(0.989233 0.0121918 0)
(1.12279 0.0165439 0)
(1.14182 0.0205097 0)
(1.12441 0.0257172 0)
(1.10665 0.0315455 0)
(1.09123 0.0372722 0)
(1.07665 0.0421137 0)
(1.06262 0.0450037 0)
(1.05171 0.0447312 0)
(1.04646 0.0420019 0)
(1.0469 0.0383374 0)
(1.05374 0.0345417 0)
(1.06557 0.030591 0)
(1.05359 0.0259173 0)
(0.943161 0.0189365 0)
(0.692468 0.0105046 0)
(0.367075 0.00352792 0)
(0.0659105 0.00019834 0)
(0.128027 0.000395407 0)
(0.732209 0.00900871 0)
(1.0049 0.0162038 0)
(1.13445 0.0219602 0)
(1.15204 0.0274543 0)
(1.1336 0.0340727 0)
(1.11443 0.0411008 0)
(1.09707 0.0476819 0)
(1.08012 0.0530223 0)
(1.06333 0.055856 0)
(1.04973 0.0548956 0)
(1.0424 0.0510516 0)
(1.04162 0.0460514 0)
(1.04768 0.0412438 0)
(1.05792 0.0368035 0)
(1.04148 0.0312107 0)
(0.922415 0.0225271 0)
(0.667898 0.0122812 0)
(0.347585 0.00412727 0)
(0.0603391 0.000230267 0)
(0.13843 0.000556031 0)
(0.758895 0.0123077 0)
(1.02511 0.021707 0)
(1.14946 0.0287482 0)
(1.16501 0.035536 0)
(1.14499 0.043665 0)
(1.12363 0.0520637 0)
(1.10377 0.0598624 0)
(1.08395 0.0660636 0)
(1.06387 0.0691796 0)
(1.04715 0.0678877 0)
(1.03736 0.0633219 0)
(1.03478 0.0573709 0)
(1.04004 0.0512988 0)
(1.04872 0.0456925 0)
(1.0257 0.037865 0)
(0.896625 0.0264711 0)
(0.639318 0.0143179 0)
(0.324965 0.0048075 0)
(0.0539047 0.000261143 0)
(0.152704 0.000816745 0)
(0.793951 0.0172581 0)
(1.05132 0.0296281 0)
(1.16765 0.0383218 0)
(1.1805 0.0463823 0)
(1.15838 0.055884 0)
(1.13454 0.0657755 0)
(1.11168 0.0749941 0)
(1.08831 0.0820897 0)
(1.06434 0.0853963 0)
(1.04413 0.0836408 0)
(1.03158 0.078308 0)
(1.02677 0.0714173 0)
(1.03029 0.0640555 0)
(1.03594 0.0559616 0)
(1.00377 0.045042 0)
(0.86563 0.0308252 0)
(0.606502 0.0167713 0)
(0.298722 0.00559375 0)
(0.0465405 0.000292346 0)
(0.173025 0.00128093 0)
(0.840797 0.0250528 0)
(1.08653 0.041553 0)
(1.18973 0.0527228 0)
(1.19832 0.0624305 0)
(1.17386 0.0734604 0)
(1.14719 0.0848219 0)
(1.12053 0.0949706 0)
(1.09285 0.10224 0)
(1.06443 0.104889 0)
(1.04034 0.101814 0)
(1.02474 0.0949833 0)
(1.01722 0.0864833 0)
(1.01756 0.0771396 0)
(1.01748 0.0661955 0)
(0.975902 0.0523284 0)
(0.830286 0.0359604 0)
(0.56888 0.0197309 0)
(0.268466 0.00645429 0)
(0.0382859 0.000315955 0)
(0.202799 0.00233396 0)
(0.905289 0.038585 0)
(1.13385 0.0612898 0)
(1.21688 0.0754779 0)
(1.21882 0.0876955 0)
(1.19116 0.0999928 0)
(1.1607 0.111849 0)
(1.12929 0.121534 0)
(1.09659 0.127448 0)
(1.06324 0.127902 0)
(1.03495 0.122135 0)
(1.01597 0.112686 0)
(1.00525 0.101702 0)
(1.00114 0.0897941 0)
(0.994167 0.0764012 0)
(0.943973 0.0606454 0)
(0.790696 0.0423674 0)
(0.525736 0.0233055 0)
(0.23446 0.00743264 0)
(0.0294414 0.00033078 0)
(0.243777 0.00865427 1.5701e-19)
(0.991265 0.0659108 1.35041e-19)
(1.19161 0.0947777 -4.59565e-20)
(1.24858 0.110728 0)
(1.24084 0.12592 -1.03959e-33)
(1.20847 0.137947 1.48572e-20)
(1.17321 0.148473 -2.47705e-20)
(1.1364 0.155981 0)
(1.0982 0.159009 4.65141e-34)
(1.05946 0.155891 -2.65787e-20)
(1.02643 0.146318 0)
(1.0034 0.13344 -2.9745e-20)
(0.988595 0.119477 -8.65351e-20)
(0.979066 0.105101 -4.04754e-20)
(0.965227 0.090443 -1.19873e-20)
(0.906396 0.0740106 -7.06698e-21)
(0.742147 0.0528042 0)
(0.47268 0.0290896 4.93203e-21)
(0.197162 0.00988384 5.82799e-21)
(0.0213907 0.00079256 1.05213e-19)
(0.271498 0.0243352 1.42556e-19)
(1.06183 0.108771 5.07214e-22)
(1.23905 0.142832 1.35165e-20)
(1.27864 0.160198 0)
(1.26095 0.17487 -5.67503e-20)
(1.22338 0.185494 -6.19372e-20)
(1.18295 0.19395 -2.59731e-20)
(1.14049 0.198909 -8.60704e-20)
(1.09639 0.198829 0)
(1.05141 0.191866 1.13853e-19)
(1.01232 0.178204 1.09498e-19)
(0.98374 0.161694 3.18124e-20)
(0.963383 0.144804 1.12582e-19)
(0.947603 0.128252 1.54955e-19)
(0.925929 0.11221 0)
(0.859311 0.0946211 2.15383e-19)
(0.686373 0.0690588 3.08552e-19)
(0.419756 0.0393077 3.42247e-19)
(0.165738 0.014586 -3.91355e-19)
(0.0151567 0.00132859 -7.37706e-21)
(0.271097 0.0397101 0)
(1.10559 0.164675 3.14089e-20)
(1.27194 0.202461 0)
(1.30209 0.219877 -9.19196e-20)
(1.27679 0.231604 0)
(1.23439 0.239182 -1.29068e-19)
(1.18889 0.244268 5.47131e-20)
(1.14101 0.245652 -1.80061e-19)
(1.09121 0.241705 -1.57274e-21)
(1.0402 0.230562 6.01455e-20)
(0.995326 0.212908 2.37762e-19)
(0.96168 0.193308 -3.11994e-22)
(0.936667 0.174354 -8.11661e-20)
(0.916479 0.156697 -1.44517e-19)
(0.890903 0.139988 1.70001e-19)
(0.82397 0.120571 -3.00082e-19)
(0.655625 0.0899403 -3.94133e-20)
(0.403662 0.0538577 0)
(0.166339 0.021896 2.78263e-23)
(0.0166652 0.00234252 0)
(0.264155 0.0532325 5.74935e-19)
(1.12855 0.223743 -2.55776e-19)
(1.29278 0.266933 -1.64152e-19)
(1.31746 0.284073 4.77534e-20)
(1.28682 0.292397 -7.79148e-20)
(1.24056 0.296285 2.74579e-19)
(1.19075 0.297458 1.16187e-19)
(1.1381 0.294793 0)
(1.08319 0.286656 -3.17674e-19)
(1.02675 0.271194 0)
(0.976677 0.24979 -1.26286e-19)
(0.938672 0.227523 -1.49327e-19)
(0.910066 0.206911 -8.77692e-20)
(0.886974 0.188358 -1.04188e-19)
(0.859574 0.170813 0)
(0.795321 0.149777 0)
(0.639956 0.115457 -2.56463e-19)
(0.407113 0.0733438 5.04431e-20)
(0.179195 0.0324388 -2.9787e-20)
(0.0214913 0.00415357 -3.48222e-20)
(0.256684 0.0653283 -3.50033e-19)
(1.13805 0.282588 0)
(1.30452 0.332298 3.96973e-19)
(1.32562 0.349411 1.48915e-19)
(1.29115 0.354395 1.69966e-19)
(1.24187 0.354555 0)
(1.18855 0.351779 1.20643e-19)
(1.13194 0.34501 2.03846e-19)
(1.07264 0.332673 1.67088e-19)
(1.01147 0.312957 2.79465e-19)
(0.956977 0.287922 0)
(0.915389 0.263188 -3.21074e-19)
(0.88399 0.241029 -1.8889e-19)
(0.858773 0.221603 -1.10541e-19)
(0.830625 0.203412 6.62484e-19)
(0.770301 0.181116 7.85423e-20)
(0.62956 0.143755 3.69311e-19)
(0.414993 0.0952839 -1.74384e-18)
(0.193667 0.0450589 1.03547e-18)
(0.0266301 0.00652709 -1.24804e-18)
(0.249901 0.0763162 -3.18075e-19)
(1.13913 0.339343 6.80203e-20)
(1.30927 0.39671 -5.80342e-20)
(1.328 0.414071 -1.99453e-19)
(1.29065 0.415924 -1.72039e-19)
(1.23895 0.412505 1.72436e-21)
(1.18278 0.405965 -1.29649e-19)
(1.12286 0.395266 2.15466e-19)
(1.05986 0.378869 -3.58486e-19)
(0.99463 0.355042 0)
(0.936414 0.326456 -1.48277e-19)
(0.891987 0.299273 -1.58159e-21)
(0.858456 0.27561 -2.0433e-19)
(0.831737 0.255257 0)
(0.80337 0.236443 -1.42605e-19)
(0.747035 0.213032 -3.37563e-19)
(0.61955 0.173018 8.9998e-19)
(0.420639 0.118136 -8.85576e-19)
(0.204794 0.0583075 1.25826e-18)
(0.0308403 0.0091038 -1.30741e-18)
(0.24441 0.0865592 -4.08242e-22)
(1.13499 0.3934 -6.85354e-20)
(1.30926 0.459801 -2.38126e-19)
(1.32588 0.477018 1.02348e-19)
(1.28632 0.476016 -9.08055e-20)
(1.23266 0.469275 0)
(1.17412 0.459224 -1.32637e-19)
(1.11141 0.444835 -2.28673e-19)
(1.04522 0.424597 -1.89563e-19)
(0.976509 0.396801 0)
(0.915117 0.364725 -1.56296e-19)
(0.868396 0.335009 -1.85194e-19)
(0.833312 0.309706 2.19967e-19)
(0.805652 0.288369 -1.30604e-19)
(0.777436 0.268851 -6.15826e-19)
(0.724631 0.244202 3.65328e-19)
(0.607771 0.202023 1.08932e-19)
(0.420808 0.140512 0)
(0.20983 0.0707707 -1.20472e-18)
(0.0332998 0.0114594 -4.41176e-20)
(0.240207 0.0963635 -4.23806e-20)
(1.12776 0.444634 7.06282e-20)
(1.30541 0.520296 1.26042e-19)
(1.32033 0.537602 3.32884e-19)
(1.27902 0.53409 -3.77228e-19)
(1.22375 0.524339 3.28812e-19)
(1.16323 0.511059 2.84214e-19)
(1.09813 0.493253 -3.66259e-19)
(1.02916 0.469414 1.07548e-19)
(0.957359 0.437812 -6.85298e-19)
(0.893215 0.402242 -1.71582e-19)
(0.844577 0.369893 0)
(0.808378 0.342718 2.3669e-19)
(0.780181 0.320122 2.7888e-19)
(0.752403 0.299633 3.29956e-19)
(0.70262 0.273744 -3.93211e-19)
(0.593532 0.228815 -1.16127e-19)
(0.415276 0.160287 1.36836e-19)
(0.208953 0.0809988 0)
(0.033848 0.0132192 -9.48515e-20)
(0.237133 0.105868 4.30724e-19)
(1.11893 0.493148 -2.9085e-19)
(1.29884 0.57798 -1.33021e-19)
(1.31225 0.595516 2.32023e-19)
(1.26949 0.589791 -1.95729e-19)
(1.21289 0.577344 -3.98586e-21)
(1.15068 0.561153 -3.05841e-19)
(1.08351 0.540228 -1.31238e-19)
(1.01205 0.513041 -3.26753e-19)
(0.937455 0.477805 2.2342e-22)
(0.870815 0.438747 -5.4366e-19)
(0.820538 0.40358 4.34126e-19)
(0.783449 0.374306 -2.56201e-19)
(0.755011 0.350164 3.02468e-19)
(0.727745 0.328351 0)
(0.680356 0.300736 -2.11288e-19)
(0.576822 0.252513 -9.15661e-22)
(0.404785 0.176754 -5.89538e-19)
(0.203675 0.0886476 -8.69097e-20)
(0.0330276 0.0143315 0)
(0.23503 0.115179 0)
(1.10935 0.539134 -3.07596e-19)
(1.29037 0.632753 -2.73267e-19)
(1.30233 0.650643 -2.43353e-19)
(1.25833 0.642952 -2.1545e-19)
(1.20061 0.628102 0)
(1.13697 0.609301 -1.55765e-19)
(1.06797 0.585562 -1.17411e-21)
(0.994266 0.555309 6.98899e-19)
(0.917057 0.516641 -9.61624e-20)
(0.84804 0.474108 -3.89786e-19)
(0.796249 0.435977 2.28954e-19)
(0.758421 0.404306 -2.00897e-21)
(0.729822 0.378291 3.22281e-19)
(0.703031 0.354866 1.93788e-19)
(0.65737 0.325051 -4.54242e-19)
(0.557648 0.272726 5.37509e-19)
(0.390044 0.189827 1.58624e-19)
(0.194434 0.0936566 6.53971e-19)
(0.0309268 0.0147228 -1.75213e-18)
(0.233817 0.124418 9.07714e-20)
(1.09958 0.582794 -1.56494e-19)
(1.28074 0.68464 1.33971e-19)
(1.2911 0.702957 2.52072e-19)
(1.24604 0.69349 0)
(1.18738 0.676509 -1.88149e-19)
(1.12251 0.655394 5.05809e-19)
(1.05187 0.62914 2.95094e-19)
(0.976094 0.596115 0)
(0.896382 0.554249 -1.3564e-18)
(0.825027 0.5083 1.04643e-18)
(0.771686 0.467062 0)
(0.733102 0.432754 2.95634e-19)
(0.704376 0.404577 -1.99625e-21)
(0.677976 0.379172 -6.19473e-19)
(0.633459 0.346698 2.42471e-19)
(0.536143 0.289554 0)
(0.371915 0.199279 8.5239e-19)
(0.182201 0.0961897 0)
(0.0280446 0.0145532 -8.24214e-19)
(0.233299 0.13364 -9.36945e-20)
(1.09003 0.624258 -1.5953e-19)
(1.27017 0.733704 1.44908e-19)
(1.279 0.752442 0)
(1.23303 0.741393 -2.33799e-19)
(1.17357 0.722531 0)
(1.10762 0.699371 -5.28536e-19)
(1.03551 0.670899 -1.50298e-19)
(0.957799 0.635407 1.2902e-19)
(0.875643 0.590608 -6.69796e-19)
(0.801862 0.541358 1.10012e-19)
(0.746839 0.496907 0)
(0.707398 0.459726 -6.31517e-19)
(0.678504 0.429076 2.04646e-21)
(0.652352 0.401373 0)
(0.60841 0.365748 2.29734e-21)
(0.512271 0.30302 7.75013e-19)
(0.350669 0.20507 -7.33407e-19)
(0.167674 0.0962583 2.16223e-19)
(0.0246258 0.0138131 0)
(0.233155 0.142694 0)
(1.08092 0.663625 -1.64507e-19)
(1.25907 0.78009 -1.45581e-19)
(1.26639 0.799149 -2.27831e-21)
(1.21962 0.78669 -1.18071e-19)
(1.15947 0.766172 -4.2757e-19)
(1.09258 0.741221 1.90797e-19)
(1.01915 0.710813 -1.6596e-19)
(0.93961 0.673156 5.60525e-19)
(0.855013 0.625732 -1.07094e-18)
(0.778656 0.57335 -3.32326e-21)
(0.721755 0.525635 -2.84879e-19)
(0.681304 0.48536 1.01828e-18)
(0.652109 0.45197 -2.41165e-21)
(0.626056 0.421616 -4.76335e-19)
(0.582117 0.382247 -8.46391e-19)
(0.486199 0.31318 0)
(0.326831 0.207402 0)
(0.151349 0.0939073 2.32809e-19)
(0.0209001 0.0125518 -1.36198e-19)
(0.233535 0.151729 -9.90265e-20)
(1.07223 0.700744 3.44835e-19)
(1.24773 0.823867 1.55154e-19)
(1.25354 0.843158 0)
(1.20606 0.829438 -1.54731e-21)
(1.14534 0.807464 -4.43437e-19)
(1.07764 0.780955 4.95624e-19)
(1.003 0.74888 6.89689e-19)
(0.921723 0.70937 7.40303e-19)
(0.834679 0.659656 -8.82807e-19)
(0.755598 0.604383 -8.94732e-19)
(0.69653 0.553417 7.61348e-19)
(0.654765 0.509849 0)
(0.62511 0.473383 -2.1706e-19)
(0.599 0.439987 -5.12836e-19)
(0.554546 0.396237 -6.05845e-19)
(0.457739 0.319903 -7.17763e-19)
(0.300738 0.206259 2.12108e-19)
(0.133517 0.0891425 -1.24938e-19)
(0.0168735 0.0108025 3.2943e-22)
(0.233966 0.160628 0)
(1.06414 0.736116 0)
(1.23632 0.865117 2.57695e-21)
(1.24064 0.884564 0)
(1.19254 0.869717 3.89387e-19)
(1.13134 0.846463 3.45411e-19)
(1.06295 0.818604 0)
(0.987226 0.785116 8.86437e-20)
(0.904314 0.744056 1.25278e-18)
(0.814844 0.692415 -2.0242e-18)
(0.732848 0.634565 0)
(0.671235 0.580439 -4.88535e-19)
(0.62779 0.533378 -2.94784e-21)
(0.597423 0.493478 -2.41367e-21)
(0.571085 0.45654 5.47965e-19)
(0.525674 0.407602 -4.1663e-22)
(0.42728 0.323124 -1.54114e-18)
(0.272454 0.20147 4.55488e-19)
(0.114807 0.0822376 1.34556e-19)
(0.0128332 0.00873243 0)
(0.234399 0.169327 3.13279e-19)
(1.05638 0.769773 1.84275e-19)
(1.22494 0.903916 3.29099e-19)
(1.22784 0.923468 -6.02448e-19)
(1.17922 0.907597 6.77482e-19)
(1.11764 0.883229 0)
(1.04866 0.854212 3.28211e-19)
(0.971973 0.819547 -1.91765e-19)
(0.887531 0.777237 3.81977e-21)
(0.795664 0.724046 1.46199e-19)
(0.710548 0.663982 1.16143e-18)
(0.646002 0.606886 -1.72612e-19)
(0.600402 0.556215 -6.24239e-19)
(0.568931 0.512455 -2.50682e-19)
(0.542141 0.471251 2.96065e-19)
(0.495442 0.416104 -2.73242e-22)
(0.395185 0.32258 4.14388e-19)
(0.242838 0.193154 -9.7779e-19)
(0.0959202 0.0735753 1.15575e-18)
(0.00893258 0.00645925 1.68575e-19)
(0.234668 0.177706 -1.07494e-19)
(1.04896 0.801796 9.58818e-20)
(1.21372 0.940389 6.0805e-21)
(1.21526 0.959987 -3.09794e-19)
(1.16622 0.943181 -1.3806e-19)
(1.10434 0.917832 -6.47754e-19)
(1.03488 0.88783 1.11573e-19)
(0.957344 0.852196 -8.12738e-19)
(0.871488 0.808911 -1.40918e-18)
(0.777261 0.754551 -1.2192e-18)
(0.68888 0.692714 0)
(0.620994 0.632937 -7.46659e-19)
(0.572657 0.578657 8.93907e-19)
(0.539477 0.530568 0)
(0.511861 0.484047 -6.33227e-19)
(0.463728 0.42126 3.76385e-19)
(0.361779 0.317772 -4.44341e-19)
(0.213007 0.18144 -5.25325e-19)
(0.077804 0.063688 -9.29623e-19)
(0.00540888 0.00417151 -7.24688e-19)
(0.235227 0.1859 1.10062e-19)
(1.04174 0.832158 -1.02331e-19)
(1.20272 0.974612 -2.5935e-19)
(1.20299 0.994205 -4.04595e-19)
(1.1536 0.976557 2.98145e-19)
(1.0915 0.950355 -4.04657e-19)
(1.02167 0.919508 3.60379e-19)
(0.943413 0.883105 -8.57206e-19)
(0.856255 0.839103 -8.41383e-19)
(0.759758 0.783945 1.28888e-18)
(0.668011 0.720814 2.55548e-18)
(0.596389 0.658749 0)
(0.544665 0.601008 0)
(0.508878 0.548192 -2.87578e-19)
(0.479701 0.494917 0)
(0.430071 0.422262 8.08496e-19)
(0.32754 0.307636 9.54685e-19)
(0.184559 0.166122 0)
(0.0618326 0.0531474 0)
(0.00248079 0.00209748 7.77739e-19)
(0.2354 0.193606 -1.12577e-19)
(1.03475 0.860857 -9.48748e-20)
(1.19199 1.0067 -1.82602e-19)
(1.19107 1.02625 3.33824e-19)
(1.14144 1.00782 3.1111e-19)
(1.0792 0.980871 4.91993e-19)
(1.0091 0.949308 -5.0865e-19)
(0.930228 0.912304 1.96248e-22)
(0.841904 0.86782 -4.92909e-21)
(0.743248 0.812221 -5.70457e-21)
(0.648104 0.748301 1.31747e-18)
(0.572406 0.684431 0)
(0.516625 0.623577 8.97128e-19)
(0.47702 0.565846 6.13029e-19)
(0.444846 0.504168 1.46463e-18)
(0.393305 0.418226 4.33623e-19)
(0.292632 0.289971 -5.13781e-19)
(0.160498 0.145294 -3.02161e-19)
(0.0523815 0.0417695 0)
(0.00153534 0.000856221 8.34484e-19)
(0.23585 0.201284 2.2825e-19)
(1.02796 0.887993 0)
(1.18154 1.03672 -1.85411e-19)
(1.17955 1.0562 2.62032e-19)
(1.12977 1.03707 -3.2074e-19)
(1.06745 1.00946 -6.57966e-19)
(0.997183 0.977286 1.06402e-18)
(0.917819 0.939831 -6.41887e-20)
(0.828468 0.895072 0)
(0.727801 0.839348 -1.44697e-18)
(0.629307 0.775159 -2.88295e-18)
(0.549276 0.710057 1.1153e-19)
(0.488852 0.646605 1.23122e-18)
(0.443984 0.584171 0)
(0.406405 0.512665 9.82587e-19)
(0.351108 0.409074 0)
(0.254384 0.261347 0)
(0.143171 0.109144 -3.26132e-19)
(0.0674936 0.0182537 0)
(0.026001 0.0105272 2.235e-19)
(0.235904 0.208327 2.33678e-19)
(1.02135 0.913902 0)
(1.17138 1.06488 -2.83815e-19)
(1.16838 1.08428 0)
(1.11856 1.06455 1.61849e-19)
(1.0562 1.03641 0)
(0.985867 1.00375 6.49064e-20)
(0.906091 0.966024 1.21732e-19)
(0.81583 0.921224 1.06202e-19)
(0.713266 0.865716 -1.60376e-18)
(0.611485 0.801821 8.91443e-20)
(0.526866 0.736196 8.84183e-19)
(0.461149 0.670698 1.19883e-18)
(0.409301 0.604185 1.58196e-19)
(0.362799 0.522227 7.64708e-19)
(0.299338 0.396987 0)
(0.201072 0.221948 1.07602e-18)
(0.103229 0.0472939 -6.30656e-19)
(0.0461739 0.0458731 7.34859e-19)
(-0.0680736 0.419529 -8.70026e-19)
(0.235926 0.21513 -1.8127e-19)
(1.01468 0.938396 -3.14507e-19)
(1.16141 1.09148 0)
(1.15745 1.11092 5.09709e-21)
(1.10763 1.09083 -4.14449e-19)
(1.0452 1.06239 1.14185e-18)
(0.974854 1.02949 4.12932e-19)
(0.894658 0.991811 0)
(0.80349 0.947356 7.42161e-19)
(0.699016 0.892618 -8.79946e-20)
(0.593782 0.829742 0)
(0.504101 0.764622 0)
(0.432193 0.697637 1.07153e-18)
(0.371646 0.627716 -4.83171e-19)
(0.311377 0.536147 -7.69454e-19)
(0.233447 0.387906 0)
(0.115662 0.204261 5.39274e-19)
(0.0105917 0.429614 -6.26563e-19)
(0.0395238 1.85092 -3.54688e-19)
(0.0701869 2.79054 -4.46322e-19)
(0.235799 0.221076 1.20852e-19)
(1.00816 0.961635 3.75585e-19)
(1.15163 1.11652 -1.52375e-19)
(1.14674 1.13597 -1.859e-19)
(1.09702 1.11569 0)
(1.0345 1.0871 7.82591e-19)
(0.964324 1.05419 6.2792e-19)
(0.883693 1.01676 -6.3102e-20)
(0.791697 0.972953 1.09341e-19)
(0.685411 0.919435 1.55608e-18)
(0.57678 0.858231 1.4811e-18)
(0.481952 0.794856 9.9846e-19)
(0.403104 0.727062 1.07538e-18)
(0.333201 0.653234 -1.1281e-18)
(0.258149 0.557268 -1.15584e-18)
(0.156114 0.413901 0)
(0.0577901 0.816953 0)
(0.11429 2.52305 3.0547e-19)
(0.115967 3.18464 0)
(0.118816 3.38171 7.57273e-19)
(0.238169 0.226531 0)
(1.00236 0.98377 0)
(1.14185 1.13986 0)
(1.13602 1.15921 -4.57487e-20)
(1.08643 1.13889 -3.59129e-19)
(1.02388 1.11041 5.56929e-19)
(0.95417 1.07775 4.28497e-19)
(0.873148 1.04078 -6.40613e-20)
(0.780416 0.997883 9.75285e-19)
(0.672476 0.94603 -1.0033e-20)
(0.560624 0.887169 2.9614e-18)
(0.460779 0.826689 -1.13252e-19)
(0.374394 0.759775 1.32204e-19)
(0.296175 0.677708 1.61588e-19)
(0.199022 0.585987 -2.29162e-22)
(0.119942 0.946757 1.79689e-21)
(0.157584 2.67046 -1.56641e-18)
(0.170714 3.28176 -6.02404e-19)
(0.156631 3.42517 3.28132e-19)
(0.14088 3.44918 -3.73903e-19)
(0.155684 0.183019 -5.93867e-20)
(0.990972 1.00766 0)
(1.13181 1.16172 2.61221e-19)
(1.12594 1.18116 4.38288e-19)
(1.07662 1.16121 -6.75806e-19)
(1.01424 1.13297 -5.76382e-19)
(0.944291 1.10027 -4.74894e-19)
(0.863123 1.06399 8.25075e-19)
(0.769836 1.02226 -8.25146e-19)
(0.660548 0.972463 0)
(0.545798 0.916601 1.48209e-18)
(0.441228 0.859809 -8.25119e-19)
(0.34683 0.798342 0)
(0.261588 0.704706 1.52741e-19)
(0.172855 0.819078 3.60126e-19)
(0.173143 2.41467 -4.31682e-19)
(0.240077 3.31741 4.90727e-19)
(0.216648 3.44251 2.76416e-19)
(0.179918 3.46551 3.17893e-19)
(0.155558 3.47641 5.35712e-19)
(0.280865 0.264429 1.20012e-19)
(0.975478 1.01679 0)
(1.11355 1.18619 -2.45394e-19)
(1.11163 1.21336 -4.15524e-19)
(1.06076 1.19398 6.44452e-19)
(0.997914 1.16624 5.46699e-19)
(0.927173 1.13494 6.23087e-19)
(0.845457 1.0998 6.29915e-20)
(0.751003 1.06015 8.42884e-19)
(0.639296 1.01408 1.44179e-18)
(0.520026 0.964373 8.81965e-20)
(0.408126 0.915188 7.52426e-19)
(0.298468 0.864542 1.27674e-19)
(0.228983 0.976661 -1.53223e-19)
(0.24757 2.26025 -3.52197e-19)
(0.315096 3.32122 3.66796e-19)
(0.30022 3.47723 -4.22409e-19)
(0.261791 3.50024 -2.47706e-19)
(0.222148 3.52849 -2.454e-19)
(0.167144 3.52123 -2.78641e-20)
(0.268419 0.260948 0)
(0.972853 1.03884 -4.66301e-20)
(1.10566 1.20911 4.30294e-20)
(1.10192 1.23626 4.08313e-20)
(1.05088 1.21678 3.99147e-19)
(0.988112 1.18927 -5.19245e-19)
(0.917069 1.15813 -3.92645e-19)
(0.835292 1.12376 6.00031e-20)
(0.740571 1.08555 -9.10269e-19)
(0.628049 1.04222 -1.43337e-20)
(0.506885 0.99717 -2.7943e-18)
(0.391979 0.954138 1.06513e-19)
(0.285825 0.929871 -1.23313e-19)
(0.269646 1.44071 -1.46851e-19)
(0.351701 3.05864 1.79829e-20)
(0.379661 3.47297 9.31799e-22)
(0.336073 3.5376 7.2986e-19)
(0.296751 3.56217 3.97986e-19)
(0.24523 3.58644 -1.77508e-19)
(0.18198 3.58186 -1.68298e-19)
(0.251703 0.258946 -9.71679e-20)
(0.96855 1.06343 -2.96028e-19)
(1.09724 1.23405 1.21027e-19)
(1.09167 1.26056 1.55853e-19)
(1.0405 1.24089 0)
(0.977892 1.21339 -6.79116e-19)
(0.906846 1.18248 -5.53274e-19)
(0.82529 1.14885 5.68979e-20)
(0.730626 1.11213 -9.92687e-20)
(0.6178 1.07171 -1.40537e-18)
(0.495512 1.03159 -1.337e-18)
(0.37946 0.995645 -9.13943e-19)
(0.289539 1.05071 -9.49204e-19)
(0.340284 2.09583 9.68953e-19)
(0.442173 3.36933 8.72568e-19)
(0.427319 3.5376 0)
(0.377106 3.58453 0)
(0.338665 3.62789 -1.5119e-19)
(0.2802 3.69247 0)
(0.194317 3.66428 -2.58338e-19)
(0.240432 0.26024 1.22765e-19)
(0.962264 1.08901 2.22634e-19)
(1.0874 1.26011 0)
(1.08014 1.28567 6.01478e-21)
(1.02894 1.26559 3.39491e-19)
(0.966596 1.23796 -9.51378e-19)
(0.89588 1.20728 -3.46402e-19)
(0.814756 1.17428 5.05597e-20)
(0.720399 1.13898 -7.31121e-19)
(0.607665 1.10141 7.72584e-20)
(0.485044 1.06631 0)
(0.370145 1.03987 0)
(0.316571 1.26857 -9.07083e-19)