/*--------------------------------*- C++ -*----------------------------------*\
| =========                 |                                                 |
| \\      /  F ield         | OpenFOAM: The Open Source CFD Toolbox           |
|  \\    /   O peration     | Version:  4.0                                   |
|   \\  /    A nd           | Web:      www.OpenFOAM.org                      |
|    \\/     M anipulation  |                                                 |
\*---------------------------------------------------------------------------*/
FoamFile
{
    version     2.0;
    format      ascii;
    class       volScalarField;
    location    "73";
    object      p;
}
// * * * * * * * * * * * * * * * * * * * * * * * * * * * * * * * * * * * * * //

dimensions      [0 2 -2 0 0 0 0];

internalField   nonuniform List<scalar> 
2200
(
0.772912
0.751414
0.735512
0.719852
0.70525
0.692745
0.682409
0.674331
0.668646
0.665779
0.666314
0.670127
0.676528
0.685124
0.695823
0.708611
0.723412
0.739347
0.755395
0.776894
0.705328
0.702071
0.699149
0.695037
0.689586
0.683127
0.676531
0.670609
0.666151
0.663844
0.664395
0.667729
0.672938
0.679416
0.686423
0.693193
0.698869
0.702971
0.705823
0.709187
0.66538
0.665603
0.667672
0.669029
0.669431
0.668592
0.666634
0.663993
0.661497
0.660047
0.660673
0.663207
0.666529
0.669785
0.672139
0.673146
0.67288
0.671889
0.670254
0.670006
0.642879
0.644333
0.64693
0.649385
0.651841
0.653879
0.655056
0.655318
0.654993
0.654768
0.655457
0.656932
0.658185
0.658612
0.657957
0.656308
0.654163
0.651985
0.649379
0.647976
0.628474
0.630446
0.633271
0.636121
0.639
0.641854
0.644346
0.646251
0.647526
0.648378
0.649189
0.649742
0.64957
0.648519
0.646695
0.644351
0.641824
0.63911
0.636323
0.634401
0.621073
0.622671
0.624884
0.627428
0.630114
0.632807
0.635432
0.637897
0.639974
0.641562
0.642537
0.642656
0.641895
0.640443
0.638593
0.636487
0.634184
0.631853
0.62976
0.628186
0.617585
0.618607
0.619887
0.621771
0.623941
0.626141
0.62838
0.63073
0.633032
0.63498
0.636121
0.636244
0.635551
0.634411
0.633071
0.631552
0.629881
0.628322
0.627217
0.6262
0.614846
0.615514
0.616156
0.617476
0.619116
0.62084
0.622648
0.624647
0.626811
0.628888
0.630277
0.630712
0.630493
0.629953
0.629239
0.628344
0.627329
0.626429
0.625994
0.625315
0.611499
0.611943
0.612349
0.613366
0.614661
0.616089
0.617647
0.619401
0.621375
0.623479
0.62516
0.626097
0.626482
0.626522
0.626315
0.625903
0.625368
0.624869
0.624696
0.62423
0.607337
0.607632
0.607999
0.608889
0.61003
0.611346
0.612845
0.614541
0.616473
0.618672
0.620738
0.622233
0.623155
0.623662
0.623843
0.623784
0.623547
0.62326
0.623149
0.622821
0.602467
0.602667
0.603045
0.603896
0.605027
0.606387
0.607984
0.609826
0.611938
0.614383
0.616882
0.618919
0.620314
0.621176
0.62164
0.62183
0.621787
0.621658
0.621573
0.621331
0.59712
0.597264
0.597645
0.59848
0.599659
0.601144
0.602929
0.605024
0.60747
0.610345
0.613416
0.615997
0.617825
0.619023
0.619745
0.620122
0.620295
0.62032
0.620269
0.620074
0.591307
0.591415
0.5918
0.592638
0.593896
0.595541
0.597572
0.600013
0.602945
0.606431
0.610157
0.613334
0.615627
0.617191
0.61822
0.618871
0.61927
0.619435
0.619428
0.619253
0.585048
0.585108
0.585503
0.586389
0.587776
0.589627
0.591947
0.594802
0.598303
0.602548
0.607085
0.61095
0.613788
0.615814
0.617245
0.618218
0.618869
0.619189
0.619225
0.619056
0.578265
0.578299
0.57873
0.579652
0.581177
0.58323
0.585846
0.589161
0.593333
0.598445
0.604027
0.60877
0.612301
0.614917
0.61685
0.618232
0.61916
0.619645
0.61973
0.619558
0.570796
0.570754
0.571191
0.572228
0.573978
0.576312
0.579325
0.583209
0.588186
0.594341
0.601025
0.606846
0.611264
0.614616
0.617142
0.618968
0.620215
0.620877
0.621014
0.620836
0.562392
0.562399
0.562833
0.563954
0.565967
0.568644
0.572151
0.576713
0.582603
0.590034
0.598126
0.605221
0.610738
0.614939
0.618145
0.620522
0.622133
0.622971
0.623162
0.622969
0.552819
0.552833
0.553298
0.55458
0.556887
0.559992
0.564126
0.569551
0.57659
0.585477
0.595314
0.603934
0.610718
0.615959
0.619966
0.622931
0.624952
0.625989
0.626233
0.62602
0.54173
0.541698
0.542272
0.543775
0.546447
0.550149
0.555116
0.561637
0.570113
0.580846
0.592662
0.603151
0.611363
0.61774
0.622627
0.626307
0.628795
0.630019
0.630307
0.630066
0.528567
0.5285
0.529192
0.531067
0.534288
0.538764
0.544807
0.552754
0.56305
0.576047
0.590248
0.602752
0.612588
0.620294
0.626233
0.63069
0.63368
0.635105
0.63542
0.635148
0.512914
0.512803
0.513587
0.515837
0.519838
0.525433
0.532942
0.542782
0.555427
0.571135
0.58815
0.602973
0.614665
0.623762
0.630811
0.636129
0.639638
0.641232
0.641555
0.641252
0.493896
0.493815
0.494839
0.497628
0.502617
0.509681
0.519164
0.5315
0.54713
0.566142
0.586301
0.603761
0.617391
0.628084
0.636412
0.642656
0.646674
0.648416
0.648705
0.648371
0.470474
0.470328
0.471667
0.475302
0.481747
0.490918
0.503147
0.518826
0.53819
0.561145
0.584917
0.605207
0.620996
0.633337
0.642947
0.650145
0.654627
0.656463
0.656674
0.656321
0.440222
0.440254
0.442391
0.447507
0.456373
0.468804
0.484931
0.504931
0.528788
0.556244
0.584057
0.607433
0.625473
0.639508
0.650469
0.658532
0.663333
0.66518
0.665272
0.664912
0.400455
0.400703
0.404286
0.412379
0.425281
0.442689
0.464185
0.489646
0.51889
0.551537
0.583756
0.610327
0.630658
0.646477
0.658715
0.66754
0.672497
0.674219
0.674173
0.67383
0.347468
0.347977
0.355171
0.368536
0.388016
0.412739
0.441325
0.473521
0.509085
0.547472
0.584258
0.61405
0.63669
0.654183
0.667652
0.676965
0.681669
0.682941
0.682769
0.682491
0.278347
0.281043
0.296453
0.318467
0.347025
0.380678
0.41748
0.457186
0.499622
0.54425
0.586101
0.619586
0.644892
0.664419
0.679084
0.688717
0.693002
0.693634
0.693517
0.693297
0.199824
0.209686
0.235374
0.267019
0.305778
0.348709
0.393832
0.441236
0.490884
0.542228
0.589625
0.627259
0.655506
0.676988
0.692868
0.70244
0.706039
0.706131
0.706153
0.706008
0.129692
0.144249
0.176796
0.217672
0.266199
0.318047
0.371229
0.426371
0.483263
0.541166
0.593895
0.635349
0.666288
0.689503
0.706166
0.715323
0.718311
0.71816
0.718308
0.718212
0.0759756
0.0899832
0.127036
0.173943
0.230006
0.289507
0.350201
0.412681
0.476441
0.54062
0.598604
0.643733
0.676961
0.701591
0.718964
0.728299
0.730553
0.73065
0.73089
0.730837
0.031721
0.0448585
0.0859168
0.136854
0.198489
0.264057
0.331254
0.400214
0.470254
0.540455
0.603467
0.652114
0.687589
0.713808
0.731882
0.7415
0.743813
0.744313
0.744402
0.744466
-0.00552691
0.00746527
0.0512133
0.105204
0.171211
0.241612
0.314276
0.38892
0.464688
0.540495
0.608212
0.660296
0.698243
0.725954
0.745185
0.755226
0.758226
0.758731
0.758718
0.758803
-0.0381524
-0.0248962
0.0210148
0.0776377
0.1473
0.221747
0.299127
0.378742
0.459653
0.540616
0.612807
0.668246
0.708599
0.738019
0.758503
0.76882
0.772077
0.772486
0.772504
0.772561
-0.0667847
-0.0537024
-0.0060077
0.053038
0.125911
0.203869
0.285322
0.369303
0.454855
0.540579
0.61726
0.676092
0.718521
0.749255
0.770716
0.781479
0.784894
0.785366
0.785386
0.785428
-0.092912
-0.0798052
-0.0307603
0.0306079
0.106317
0.187383
0.272452
0.360292
0.450094
0.54052
0.621691
0.683462
0.727706
0.759769
0.781702
0.792838
0.796597
0.797122
0.797144
0.797166
-0.116862
-0.103749
-0.0538259
0.00974267
0.0879871
0.171852
0.260125
0.35147
0.445345
0.540274
0.625437
0.690114
0.736336
0.769307
0.791526
0.803216
0.807068
0.807678
0.807678
0.807682
-0.139401
-0.125993
-0.0754573
-0.00991157
0.0705275
0.156911
0.248122
0.342742
0.440326
0.539203
0.628258
0.696087
0.744115
0.778157
0.800573
0.812408
0.816381
0.817031
0.817016
0.817003
-0.160682
-0.146895
-0.0958841
-0.0286311
0.0536934
0.142379
0.236258
0.333789
0.434602
0.537146
0.630432
0.701511
0.751505
0.78636
0.808886
0.820793
0.824595
0.825287
0.825237
0.825207
-0.180781
-0.166962
-0.115277
-0.0465607
0.0373622
0.128074
0.2243
0.324384
0.42813
0.534354
0.631918
0.706346
0.7585
0.79444
0.816849
0.828138
0.831881
0.832498
0.832443
0.832394
-0.199953
-0.186066
-0.13381
-0.0638785
0.0213984
0.113876
0.212139
0.3145
0.421019
0.530836
0.63254
0.710645
0.765539
0.802455
0.824505
0.835186
0.838368
0.838855
0.838769
0.838705
-0.218628
-0.204365
-0.151631
-0.0806723
0.00575371
0.0997294
0.199763
0.304225
0.413378
0.526533
0.632275
0.714361
0.77245
0.811006
0.832653
0.841975
0.844203
0.844301
0.844232
0.844237
-0.236848
-0.221935
-0.168858
-0.0970279
-0.00962136
0.0856526
0.187265
0.293661
0.405205
0.521378
0.631084
0.717508
0.779349
0.82013
0.841678
0.849329
0.849514
0.849125
0.848728
0.848596
-0.254671
-0.239042
-0.185594
-0.112947
-0.0246754
0.0717212
0.174712
0.282827
0.396503
0.515398
0.628869
0.719876
0.786026
0.830187
0.852781
0.858112
0.855984
0.854539
0.854585
0.855616
-0.271884
-0.255691
-0.201855
-0.128436
-0.0393922
0.0579807
0.162158
0.271748
0.387283
0.50859
0.625516
0.721275
0.792434
0.84098
0.866153
0.870675
0.865449
0.858499
0.854115
0.85364
-0.288533
-0.27192
-0.217626
-0.143454
-0.0537128
0.0444885
0.149635
0.260444
0.377592
0.501038
0.62101
0.72136
0.797882
0.852331
0.88216
0.887706
0.881825
0.872145
0.873087
0.877269
-0.30453
-0.287582
-0.232832
-0.157975
-0.0676258
0.0312623
0.137188
0.248993
0.367517
0.492818
0.615332
0.719888
0.802106
0.863268
0.89976
0.909588
0.901826
0.872683
0.836557
0.805538
-0.319889
-0.302713
-0.247505
-0.172058
-0.0812195
0.0181875
0.124677
0.237243
0.356877
0.483718
0.6083
0.716418
0.803908
0.872963
0.918691
0.935591
0.940758
0.912226
0.929924
0.993265
-0.334529
-0.317268
-0.261705
-0.185857
-0.0947022
0.00501849
0.111837
0.224884
0.345254
0.473174
0.599308
0.710126
0.802357
0.878397
0.93061
0.952738
0.948828
0.917545
0.871857
0.890285
-0.348464
-0.331281
-0.275411
-0.199318
-0.107986
-0.00813264
0.0987986
0.212045
0.33275
0.461218
0.588248
0.700591
0.79501
0.874947
0.929145
0.952292
0.927723
0.865889
0.798751
0.785368
-0.361655
-0.344678
-0.288599
-0.212449
-0.121085
-0.0212744
0.0855726
0.198747
0.319374
0.447815
0.574978
0.687463
0.7815
0.858541
0.907884
0.905117
0.862804
0.779329
0.701607
0.674393
-0.374165
-0.357523
-0.301313
-0.225261
-0.133999
-0.0343972
0.0721693
0.184989
0.305133
0.432956
0.559367
0.670336
0.759968
0.826012
0.850704
0.830827
0.762892
0.656609
0.56628
0.540924
-0.386406
-0.370133
-0.313894
-0.238107
-0.147079
-0.0478171
0.0583102
0.170542
0.289845
0.416472
0.54117
0.648693
0.731324
0.780727
0.772328
0.731697
0.611788
0.484618
0.374065
0.343984
-0.39923
-0.383363
-0.327055
-0.251566
-0.160837
-0.0619717
0.0436151
0.155078
0.273261
0.39817
0.520108
0.621994
0.697304
0.720732
0.68555
0.590067
0.428617
0.271879
0.139208
0.10897
-0.413119
-0.397456
-0.341023
-0.265863
-0.175468
-0.0770082
0.0279832
0.13856
0.255391
0.378067
0.496116
0.591167
0.655641
0.649319
0.595618
0.43936
0.235816
0.0202341
-0.161954
-0.212869
-0.428214
-0.412675
-0.35595
-0.281013
-0.190918
-0.0928689
0.0114652
0.121026
0.236289
0.356252
0.469182
0.557617
0.606744
0.568464
0.478172
0.286379
0.053231
-0.237195
-0.558435
-0.709004
-0.444561
-0.428922
-0.371852
-0.297128
-0.2073
-0.109664
-0.00603758
0.102412
0.215913
0.332748
0.439521
0.521139
0.551653
0.483029
0.342449
0.135033
-0.0994428
-0.443724
-1.02801
-1.59835
-0.462276
-0.446507
-0.388924
-0.314258
-0.224595
-0.12735
-0.0244624
0.0827957
0.194408
0.307911
0.408279
0.48168
0.492454
0.40773
0.212426
-0.0220278
-0.224969
-0.459179
-1.00929
-2.50584
-0.48135
-0.465255
-0.407134
-0.332556
-0.243025
-0.146175
-0.0440832
0.0618931
0.171443
0.281402
0.375373
0.438851
0.427941
0.348286
0.118635
-0.119344
-0.26785
-0.305675
-0.294726
-0.677655
-0.501747
-0.485613
-0.426812
-0.35229
-0.262914
-0.166576
-0.0654766
0.0389464
0.146075
0.251887
0.339831
0.392496
0.364964
0.296644
0.0685427
-0.133803
-0.245209
-0.253963
-0.201526
-0.241475
-0.523327
-0.507099
-0.447768
-0.373559
-0.284441
-0.188761
-0.0888682
0.0137529
0.11808
0.219182
0.301858
0.343972
0.309621
0.241282
0.0355446
-0.124867
-0.207712
-0.216196
-0.26394
-0.267953
-0.546066
-0.530005
-0.470138
-0.396327
-0.3075
-0.212681
-0.114254
-0.0137364
0.0874392
0.183675
0.261231
0.29327
0.261498
0.178904
0.0069901
-0.115934
-0.186849
-0.163834
-0.184284
-0.185975
-0.569663
-0.553316
-0.493552
-0.420533
-0.332065
-0.238357
-0.141629
-0.0434333
0.0542945
0.145741
0.218281
0.239111
0.21955
0.110748
-0.0287768
-0.111623
-0.151299
-0.199197
-0.173448
-0.1821
-0.594096
-0.577315
-0.518105
-0.445947
-0.357784
-0.265553
-0.17076
-0.0751171
0.0187931
0.105688
0.173897
0.183971
0.175978
0.049417
-0.0660101
-0.130071
-0.108276
-0.167798
-0.148322
-0.153391
-0.618129
-0.601187
-0.543468
-0.472227
-0.384484
-0.294141
-0.20142
-0.108464
-0.0188373
0.0639469
0.12927
0.131544
0.123417
-0.0019972
-0.0934697
-0.145015
-0.132222
-0.148129
-0.153272
-0.151592
-0.64159
-0.624799
-0.56914
-0.498671
-0.411686
-0.323668
-0.233179
-0.143094
-0.0580707
0.0208643
0.0847146
0.0832068
0.0659831
-0.0446587
-0.107162
-0.139576
-0.177152
-0.149055
-0.154567
-0.149012
-0.663294
-0.647224
-0.593622
-0.524393
-0.439261
-0.353702
-0.265546
-0.178441
-0.0980625
-0.0232317
0.0401461
0.0393085
0.00999224
-0.0792118
-0.120203
-0.114883
-0.186898
-0.129334
-0.144392
-0.136488
-0.682743
-0.667797
-0.616333
-0.548464
-0.466521
-0.383369
-0.297869
-0.213991
-0.137892
-0.0678636
-0.0048639
-0.00130287
-0.0353843
-0.0978869
-0.126867
-0.0878846
-0.134072
-0.115301
-0.121261
-0.117876
-0.698206
-0.684869
-0.636076
-0.57046
-0.492491
-0.411855
-0.329339
-0.248887
-0.176589
-0.112255
-0.0501749
-0.0393223
-0.0670297
-0.0986359
-0.114503
-0.0923941
-0.106145
-0.110221
-0.111552
-0.111596
-0.708978
-0.697776
-0.652421
-0.589509
-0.51549
-0.438088
-0.359101
-0.282426
-0.213485
-0.155219
-0.0945251
-0.0742949
-0.0900851
-0.0955757
-0.103134
-0.11235
-0.106487
-0.11136
-0.11082
-0.111805
-0.7136
-0.704761
-0.663594
-0.604339
-0.534541
-0.461055
-0.386037
-0.31336
-0.247679
-0.195064
-0.135703
-0.107939
-0.117596
-0.0968011
-0.104552
-0.128582
-0.1158
-0.121697
-0.117122
-0.118655
-0.712197
-0.70541
-0.668687
-0.613529
-0.548204
-0.47936
-0.409019
-0.340704
-0.278584
-0.229929
-0.172312
-0.13983
-0.14046
-0.11247
-0.120833
-0.161248
-0.131663
-0.13807
-0.131025
-0.132681
-0.703791
-0.696555
-0.664862
-0.61552
-0.555817
-0.49215
-0.426742
-0.362742
-0.304232
-0.258315
-0.20321
-0.168039
-0.15306
-0.121495
-0.0888992
-0.0808259
-0.0773173
-0.08511
-0.0864545
-0.0890046
-0.682489
-0.67421
-0.650935
-0.609296
-0.556066
-0.498303
-0.438478
-0.378579
-0.322834
-0.278218
-0.22585
-0.18398
-0.160244
-0.147834
-0.136871
-0.164422
-0.173862
-0.171251
-0.169735
-0.165325
-0.639521
-0.631858
-0.623825
-0.594354
-0.549895
-0.498414
-0.443616
-0.386916
-0.332409
-0.287339
-0.236281
-0.184217
-0.201021
-0.268195
-0.42656
-0.570316
-0.596697
-0.583357
-0.534403
-0.48794
-0.599812
-0.597185
-0.59557
-0.573346
-0.538031
-0.49355
-0.443109
-0.388435
-0.332123
-0.282526
-0.232472
-0.160159
-0.169298
-0.241711
-0.358944
-0.407365
-0.375083
-0.317285
-0.273932
-0.253279
-0.576461
-0.578306
-0.568019
-0.555573
-0.52735
-0.486873
-0.438279
-0.384264
-0.323672
-0.263423
-0.206758
-0.10112
0.0205002
0.192838
0.352442
0.517621
0.645302
0.719585
0.762027
0.79783
-0.546243
-0.545679
-0.543329
-0.542411
-0.518906
-0.481916
-0.433905
-0.377573
-0.311733
-0.237375
-0.162522
-0.0353162
0.158241
0.452741
0.736254
0.977295
1.15361
1.25354
1.29905
1.31366
-0.535393
-0.533569
-0.537157
-0.52869
-0.512089
-0.478769
-0.43099
-0.372091
-0.301565
-0.215696
-0.122896
0.000303591
0.222327
0.534647
0.839922
1.09672
1.2881
1.39731
1.44505
1.46161
-0.520321
-0.518849
-0.522323
-0.514002
-0.510273
-0.477595
-0.428016
-0.366938
-0.294164
-0.201996
-0.0996236
0.00689061
0.224427
0.503129
0.777418
1.01367
1.19872
1.30936
1.35837
1.37191
-0.508757
-0.508645
-0.507876
-0.507226
-0.505953
-0.477632
-0.429965
-0.367611
-0.292429
-0.198789
-0.0964424
-0.0108459
0.176202
0.414464
0.642151
0.837531
0.995526
1.09221
1.13444
1.14491
-0.504514
-0.505279
-0.502771
-0.506485
-0.499747
-0.475734
-0.430873
-0.370779
-0.297344
-0.207199
-0.108997
-0.0407853
0.107989
0.308458
0.491703
0.643944
0.767077
0.84379
0.87648
0.884243
-0.500529
-0.501516
-0.500559
-0.504825
-0.499742
-0.480638
-0.435935
-0.376687
-0.306069
-0.222467
-0.130096
-0.0727177
0.0383166
0.203667
0.348935
0.464453
0.556315
0.614928
0.639719
0.645893
-0.490952
-0.490764
-0.488605
-0.488871
-0.482677
-0.481014
-0.444821
-0.386672
-0.317336
-0.240176
-0.153469
-0.102206
-0.0229889
0.111055
0.224759
0.311597
0.378855
0.422566
0.439784
0.443371
-0.493768
-0.490473
-0.485648
-0.47882
-0.475346
-0.480185
-0.448507
-0.394129
-0.325988
-0.255522
-0.175002
-0.127635
-0.0733743
0.0342036
0.122161
0.18677
0.2364
0.26873
0.280756
0.284673
-0.522261
-0.518711
-0.515532
-0.513493
-0.515524
-0.509769
-0.460124
-0.399169
-0.329154
-0.265046
-0.191692
-0.147637
-0.111509
-0.0256799
0.0414325
0.0897618
0.127837
0.15306
0.162358
0.164752
-0.577395
-0.579007
-0.584576
-0.592372
-0.590557
-0.562316
-0.483127
-0.405069
-0.328386
-0.26799
-0.202361
-0.161761
-0.13621
-0.0681587
-0.0175872
0.018692
0.0474208
0.0650817
0.0728956
0.0750768
-0.597505
-0.602633
-0.61715
-0.63071
-0.629725
-0.582664
-0.48937
-0.401168
-0.320883
-0.262697
-0.205761
-0.169215
-0.14795
-0.0954607
-0.0580578
-0.0310636
-0.0107987
0.000846376
0.00566165
0.00646913
-0.518985
-0.524908
-0.545045
-0.556858
-0.557682
-0.518946
-0.446273
-0.37204
-0.300888
-0.246505
-0.200375
-0.169277
-0.148977
-0.110614
-0.0837889
-0.0650702
-0.0520776
-0.0452564
-0.0430664
-0.043476
-0.361686
-0.368688
-0.37903
-0.387587
-0.389693
-0.373084
-0.340893
-0.30272
-0.257828
-0.217943
-0.185113
-0.161459
-0.142822
-0.116111
-0.098155
-0.0864564
-0.0793103
-0.0764868
-0.0764441
-0.0774732
-0.192127
-0.195304
-0.200709
-0.210452
-0.21911
-0.221939
-0.219554
-0.212318
-0.196049
-0.178095
-0.160115
-0.145379
-0.131776
-0.114173
-0.103469
-0.0976777
-0.0951415
-0.0951512
-0.0964275
-0.097733
-0.0606012
-0.062461
-0.0667656
-0.0754289
-0.0882868
-0.102743
-0.117274
-0.129066
-0.133115
-0.133744
-0.128436
-0.12268
-0.116447
-0.10654
-0.101855
-0.1005
-0.101063
-0.102889
-0.104737
-0.106102
0.0232593
0.021962
0.0188802
0.0104732
-0.00507309
-0.0255081
-0.0470319
-0.0667112
-0.0807986
-0.0925458
-0.0956515
-0.0971659
-0.097946
-0.0940217
-0.0946237
-0.0967279
-0.0992613
-0.101891
-0.103804
-0.105098
0.0642814
0.0635046
0.0612827
0.0538012
0.0384754
0.0169368
-0.00629818
-0.0281422
-0.0450595
-0.0603312
-0.0667602
-0.0724083
-0.0781661
-0.0794128
-0.0837552
-0.088008
-0.0916599
-0.0945355
-0.0963138
-0.0974916
0.0784109
0.0778165
0.0760884
0.0699152
0.0567761
0.0374658
0.0155137
-0.00611849
-0.0232975
-0.0388309
-0.0454567
-0.0516263
-0.0592367
-0.0646492
-0.0712428
-0.076642
-0.0807295
-0.0836111
-0.0851299
-0.086174
0.0772068
0.076798
0.075509
0.0707977
0.0605434
0.0450128
0.0262947
0.00647197
-0.00992044
-0.0251685
-0.0316508
-0.0368522
-0.0440646
-0.0510944
-0.058454
-0.0641831
-0.0683964
-0.0712461
-0.0724698
-0.0733379
0.0686762
0.0684215
0.0674764
0.0640668
0.0564663
0.044782
0.0301149
0.0134568
-0.0010216
-0.0157171
-0.0224074
-0.0268883
-0.0332392
-0.0400055
-0.0469343
-0.0522964
-0.0562613
-0.0589356
-0.0599134
-0.060602
0.0572094
0.0570804
0.0564043
0.0540553
0.048613
0.0401562
0.0293038
0.0164235
0.00498782
-0.00831274
-0.015241
-0.0196755
-0.0252558
-0.0310413
-0.0370331
-0.041635
-0.0450557
-0.0473736
-0.0481146
-0.0486335
0.045194
0.0451398
0.0446678
0.0431468
0.0394001
0.0334598
0.0256733
0.016138
0.00801288
-0.00278617
-0.00896642
-0.0134502
-0.0185496
-0.0232919
-0.0282576
-0.0320736
-0.0349094
-0.0368555
-0.0374672
-0.0378596
0.0336322
0.0336423
0.0333085
0.0323765
0.029912
0.0259216
0.0205154
0.0135897
0.0082067
0.000260037
-0.00400263
-0.00772706
-0.0121881
-0.0162189
-0.0204165
-0.0235312
-0.0257816
-0.0273053
-0.0277632
-0.0280498
0.0229664
0.0229888
0.0227911
0.0222625
0.0207254
0.0182287
0.0147268
0.0099263
0.00663546
0.00115682
-0.00118993
-0.00356306
-0.00684868
-0.00992479
-0.0133685
-0.0158362
-0.017545
-0.0186754
-0.0190554
-0.0192902
0.013114
0.0131368
0.0130731
0.0128924
0.0120816
0.0107394
0.00888743
0.00593433
0.00428753
0.00087767
-0.000268401
-0.00129502
-0.00323976
-0.00498416
-0.00754894
-0.00915855
-0.0102674
-0.0109392
-0.0110345
-0.011185
0.00420246
0.00422697
0.00422911
0.0042876
0.00410372
0.0036915
0.00318811
0.00193036
0.00159099
0.000139786
1.72158e-06
-2.99468e-05
-0.000909333
-0.00140076
-0.00302687
-0.00377189
-0.00453744
-0.00490423
-0.00463206
-0.00458835
-1.07678
-0.243037
0.0267141
0.300475
0.478541
0.630259
0.75019
0.872972
1.0104
1.09635
-0.103041
0.300523
0.313998
0.500294
0.62024
0.727818
0.819841
0.902316
0.928804
0.887916
0.267855
0.479305
0.51144
0.646525
0.729465
0.80684
0.870744
0.918855
0.920456
0.935189
0.49323
0.633553
0.667568
0.766851
0.822919
0.878621
0.92252
0.954388
0.96322
0.987137
0.667904
0.76719
0.79678
0.86231
0.90651
0.946262
0.977841
1.0019
1.01152
1.04328
0.808926
0.876495
0.906532
0.948376
0.983957
1.01353
1.03748
1.05818
1.07214
1.10057
0.926627
0.976501
1.0018
1.02928
1.05651
1.08002
1.0998
1.11902
1.1338
1.16042
1.0295
1.06615
1.08702
1.10742
1.12797
1.1472
1.16453
1.18264
1.19749
1.22118
1.12295
1.15188
1.16809
1.18324
1.19923
1.21522
1.23074
1.24764
1.26126
1.28358
1.21093
1.2313
1.24609
1.2592
1.27273
1.28646
1.29996
1.31454
1.32608
1.34572
1.29622
1.31198
1.32578
1.33757
1.34947
1.3611
1.37223
1.38389
1.39158
1.40836
1.3814
1.39394
1.40764
1.41938
1.43001
1.4398
1.44863
1.45688
1.46044
1.47166
1.47013
1.48096
1.49443
1.50395
1.51151
1.51881
1.52598
1.53243
1.53355
1.54089
1.56853
1.57314
1.58133
1.58605
1.58945
1.59392
1.59991
1.60755
1.61147
1.62134
1.6818
1.66868
1.6614
1.65569
1.65297
1.6543
1.6606
1.67297
1.68781
1.71748
1.80376
1.74771
1.71669
1.6995
1.69128
1.6912
1.70008
1.71972
1.75148
1.82076
)
;

boundaryField
{
    wall-4
    {
        type            zeroGradient;
    }
    pressure-outlet-7
    {
        type            fixedValue;
        value           uniform 0;
    }
    velocity-inlet-6
    {
        type            zeroGradient;
    }
    velocity-inlet-5
    {
        type            zeroGradient;
    }
    frontAndBackPlanes
    {
        type            empty;
    }
}


// ************************************************************************* //
