/*--------------------------------*- C++ -*----------------------------------*\
| =========                 |                                                 |
| \\      /  F ield         | OpenFOAM: The Open Source CFD Toolbox           |
|  \\    /   O peration     | Version:  4.0                                   |
|   \\  /    A nd           | Web:      www.OpenFOAM.org                      |
|    \\/     M anipulation  |                                                 |
\*---------------------------------------------------------------------------*/
FoamFile
{
    version     2.0;
    format      ascii;
    class       surfaceScalarField;
    location    "73";
    object      phi;
}
// * * * * * * * * * * * * * * * * * * * * * * * * * * * * * * * * * * * * * //

dimensions      [0 3 -1 0 0 0 0];

internalField   nonuniform List<scalar> 
4262
(
0.107132
0.470856
0.095566
0.705152
0.0693733
0.858496
0.0473445
1.02079
0.0309504
1.21491
0.0197364
1.44943
0.0123008
1.7333
0.00704639
2.07629
0.00308365
2.48921
-0.000744109
2.98612
-0.00449147
2.98604
-0.0081615
2.48891
-0.0130992
2.07597
-0.0202448
1.73301
-0.0311581
1.44913
-0.0471974
1.21456
-0.0689297
1.0205
-0.0951943
0.858568
-0.107065
0.705457
0.470923
0.112857
0.358
0.135246
0.682763
0.120345
0.873397
0.0978117
1.04333
0.0745705
1.23815
0.0528384
1.47117
0.0344716
1.75167
0.0203296
2.09043
0.00910306
2.50043
-0.000864961
2.99609
-0.010935
2.99611
-0.0223403
2.50032
-0.0364859
2.09012
-0.0547615
1.75128
-0.0765909
1.47096
-0.100349
1.23831
-0.123542
1.04369
-0.137042
0.872067
-0.113577
0.681992
0.357346
0.0920343
0.265965
0.12495
0.649848
0.121065
0.877282
0.104737
1.05965
0.0860495
1.25684
0.0668732
1.49034
0.0478364
1.7707
0.0296511
2.10862
0.0129476
2.51714
-0.00294596
3.01198
-0.0185159
3.01168
-0.0343422
2.51615
-0.0518213
2.1076
-0.0702887
1.76975
-0.0886413
1.48931
-0.105813
1.25548
-0.119865
1.05774
-0.12527
0.877472
-0.0923764
0.649099
0.264969
0.0639396
0.202026
0.104714
0.609073
0.106468
0.875528
0.0950961
1.07102
0.0811815
1.27075
0.0664483
1.50508
0.0503411
1.78681
0.0332545
2.1257
0.0156588
2.53473
-0.00299782
3.03064
-0.0217652
3.03045
-0.03929
2.53367
-0.0557673
2.12408
-0.0708906
1.78488
-0.0846205
1.50304
-0.0982993
1.26916
-0.11007
1.06951
-0.107063
0.874465
-0.0649172
0.606953
0.200052
0.0374597
0.164566
0.0806593
0.565873
0.0908745
0.865313
0.0836214
1.07828
0.0709448
1.28343
0.059018
1.517
0.0459007
1.79993
0.0307746
2.14083
0.0136213
2.55189
-0.00557653
3.04984
-0.0240389
3.04891
-0.039712
2.54934
-0.0535592
2.13792
-0.0657163
1.79703
-0.0769979
1.51433
-0.088918
1.28108
-0.0952397
1.07583
-0.0833599
0.862585
-0.0384505
0.562043
0.161602
0.0194302
0.145136
0.0570874
0.528216
0.0724176
0.849983
0.0702754
1.08042
0.0614704
1.29224
0.0506266
1.52785
0.0395243
1.81103
0.0269914
2.15336
0.0119885
2.56689
-0.00577841
3.0676
-0.023405
3.06654
-0.037976
2.56391
-0.049477
2.14942
-0.059285
1.80684
-0.06905
1.52409
-0.0766546
1.28869
-0.0774176
1.0766
-0.0601882
0.845356
-0.0204412
0.522296
0.14116
0.0105798
0.134556
0.0422104
0.496586
0.058243
0.83395
0.0584331
1.08023
0.052144
1.29852
0.0425933
1.5374
0.0320072
1.82162
0.0204278
2.16494
0.00697378
2.58034
-0.00897951
3.08356
-0.0240484
3.0816
-0.035584
2.57545
-0.0453096
2.15915
-0.0542257
1.81576
-0.0621484
1.53201
-0.0666539
1.29319
-0.0646134
1.07456
-0.0461041
0.826846
-0.011767
0.487959
0.129393
0.00652087
0.128035
0.0327738
0.470333
0.048916
0.817808
0.050356
1.07879
0.0452644
1.30362
0.0369325
1.54573
0.0273553
1.83119
0.0165677
2.17573
0.00451163
2.5924
-0.00959897
3.09767
-0.0233521
3.09536
-0.0344103
2.58651
-0.0435423
2.16828
-0.0510756
1.82329
-0.0574591
1.5384
-0.0605581
1.29629
-0.0568103
1.07081
-0.037498
0.807534
-0.0079496
0.458411
0.121444
0.00465783
0.123377
0.0263744
0.448616
0.0420513
0.802131
0.0440329
1.07681
0.0392329
1.30842
0.0313832
1.55358
0.0219845
1.84059
0.0110701
2.18665
-0.000832217
2.6043
-0.0137124
3.11055
-0.0252881
3.10693
-0.034735
2.59595
-0.0429362
2.17648
-0.0498542
1.83021
-0.055209
1.54375
-0.0573266
1.29841
-0.0521324
1.06562
-0.0322765
0.787678
-0.00644888
0.432583
0.114995
0.00367201
0.119705
0.0214385
0.43085
0.036391
0.787178
0.0389905
1.07421
0.034539
1.31287
0.0271267
1.56099
0.018363
1.84936
0.00847825
2.19653
-0.0026941
2.61547
-0.0153042
3.12316
-0.0272532
3.11888
-0.036735
2.60544
-0.0439989
2.18375
-0.0497063
1.83592
-0.0542499
1.5483
-0.0553739
1.29953
-0.0488574
1.0591
-0.0286458
0.767466
-0.00586564
0.409803
0.109129
0.00298564
0.11672
0.0173121
0.416523
0.0310846
0.773406
0.0339368
1.07136
0.0296591
1.31715
0.0223495
1.5683
0.0134998
1.85821
0.00300625
2.20702
-0.00887584
2.62736
-0.0208621
3.13514
-0.0311289
3.12915
-0.0390841
2.61339
-0.0456474
2.19031
-0.0509624
1.84123
-0.0546338
1.55197
-0.0545609
1.29946
-0.0464998
1.05104
-0.0260528
0.747019
-0.00564767
0.389398
0.103482
0.00226048
0.114459
0.0134656
0.405318
0.0257133
0.761158
0.0285103
1.06856
0.0242982
1.32136
0.0170319
1.57557
0.00841902
1.86682
-0.00109501
2.21654
-0.0114465
2.63771
-0.0234556
3.14715
-0.034631
3.14032
-0.0427523
2.62151
-0.0483471
2.1959
-0.0524907
1.84537
-0.0551248
1.5546
-0.0543788
1.29872
-0.0448779
1.04154
-0.0242232
0.726365
-0.0055296
0.370704
0.0979521
0.00161829
0.112841
0.0102578
0.396678
0.0208951
0.750521
0.0234158
1.06604
0.0191739
1.3256
0.0119748
1.58277
0.00321267
1.87558
-0.00712616
2.22688
-0.019104
2.64968
-0.0314135
3.15946
-0.0409819
3.14989
-0.0474058
2.62794
-0.0521319
2.20063
-0.0555651
1.84881
-0.0570843
1.55612
-0.0552696
1.2969
-0.0442962
1.03056
-0.0231803
0.705249
-0.00551981
0.353044
0.0924323
0.000722313
0.112119
0.00670879
0.390692
0.0154424
0.741787
0.0172476
1.06423
0.0125754
1.33027
0.00489738
1.59044
-0.00428798
1.88477
-0.0143425
2.23693
-0.0248091
2.66015
-0.0360071
3.17066
-0.0458809
3.15977
-0.0523634
2.63442
-0.056155
2.20442
-0.0587865
1.85144
-0.059395
1.55673
-0.0564497
1.29396
-0.0440798
1.01819
-0.0225134
0.683682
-0.00549192
0.336022
0.0869403
1.98329e-05
0.112099
0.00373859
0.386973
0.0101894
0.735337
0.0110662
1.06336
0.0060167
1.33532
-0.00185145
1.59831
-0.0112384
1.89415
-0.021889
2.24758
-0.0338989
2.67216
-0.0462619
3.18302
-0.0550987
3.1686
-0.060003
2.63932
-0.062828
2.20725
-0.0643926
1.853
-0.0639115
1.55625
-0.0593223
1.28937
-0.0450573
1.00393
-0.0225471
0.661172
-0.00560562
0.319081
0.0813347
-0.000897988
0.112997
0.000283616
0.385792
0.00466832
0.730952
0.00435969
1.06367
-0.00160356
1.34128
-0.0106165
1.60732
-0.0211441
1.90468
-0.0325194
2.25896
-0.0440177
2.68366
-0.054529
3.19353
-0.0624286
3.1765
-0.0670683
2.64396
-0.0692376
2.20942
-0.0703335
1.8541
-0.0690371
1.55495
-0.0627585
1.28309
-0.0465765
0.987747
-0.0229808
0.637577
-0.00577904
0.301879
0.0755557
-0.00190408
0.114901
-0.0031733
0.387061
-0.00198901
0.729768
-0.00394195
1.06562
-0.010738
1.34808
-0.020291
1.61688
-0.0312847
1.91567
-0.0432026
2.27087
-0.0555639
2.69602
-0.0679326
3.2059
-0.0761519
3.18472
-0.07928
2.64709
-0.0801083
2.21025
-0.079492
1.85348
-0.0764537
1.55191
-0.0681506
1.27478
-0.0494257
0.969022
-0.024079
0.61223
-0.00609763
0.283897
0.0694581
-0.00319223
0.118093
-0.00682494
0.390693
-0.00888974
0.731832
-0.0126654
1.06939
-0.0207137
1.35613
-0.0317413
1.6279
-0.0442909
1.92822
-0.0577337
2.28432
-0.0712064
2.70949
-0.0822053
3.2169
-0.0878223
3.19034
-0.0903045
2.64957
-0.0904408
2.21038
-0.0891766
1.85222
-0.0852572
1.54799
-0.0745551
1.26408
-0.0529669
0.947433
-0.0255922
0.584855
-0.00649736
0.264803
0.0629607
-0.00459174
0.122685
-0.0112916
0.397393
-0.0169092
0.73745
-0.0236746
1.07616
-0.0330152
1.36547
-0.045218
1.64011
-0.0588364
1.94184
-0.0732193
2.2987
-0.0870673
2.72334
-0.0986732
3.22851
-0.105654
3.19732
-0.107348
2.65127
-0.106328
2.20936
-0.102951
1.84884
-0.096505
1.54155
-0.0830552
1.25063
-0.0579757
0.922354
-0.0276927
0.554572
-0.00698818
0.244098
0.0559725
-0.00603126
0.128716
-0.016156
0.407518
-0.0257267
0.747021
-0.0354743
1.08591
-0.0472082
1.3772
-0.0615813
1.65448
-0.0773276
1.95759
-0.0937623
2.31513
-0.109543
2.73912
-0.122033
3.241
-0.126675
3.20196
-0.126048
2.65064
-0.122765
2.20608
-0.118124
1.8442
-0.110306
1.53373
-0.093187
1.23351
-0.0636866
0.892853
-0.0300662
0.520952
-0.00749347
0.221525
0.048479
-0.00830826
0.137024
-0.023138
0.422348
-0.0382368
0.762119
-0.0512512
1.09892
-0.0647889
1.39074
-0.081291
1.67098
-0.0991281
1.97543
-0.117256
2.33326
-0.133472
2.75534
-0.144897
3.25242
-0.148767
3.20583
-0.148086
2.64996
-0.144523
2.20252
-0.137996
1.83767
-0.126644
1.52238
-0.105468
1.21234
-0.0708444
0.85823
-0.0328123
0.48292
-0.00801003
0.196723
0.040469
-0.0108092
0.147833
-0.0304058
0.441944
-0.0514784
0.783192
-0.0697653
1.11721
-0.0872234
1.4082
-0.106817
1.69058
-0.127435
1.99604
-0.147598
2.35343
-0.164896
2.77264
-0.176412
3.26394
-0.179357
3.20878
-0.175183
2.64578
-0.167975
2.19531
-0.15918
1.82888
-0.145576
1.50877
-0.119061
1.18582
-0.077991
0.81716
-0.0352258
0.440155
-0.00833096
0.169828
0.032138
-0.0155806
0.163414
-0.0427265
0.46909
-0.0707374
0.811203
-0.0939649
1.14044
-0.115027
1.42926
-0.138356
1.71391
-0.161644
2.01933
-0.183281
2.37506
-0.200654
2.79001
-0.210734
3.27402
-0.210422
3.20847
-0.20505
2.64041
-0.197499
2.18776
-0.186544
1.81792
-0.167902
1.49013
-0.135046
1.15297
-0.0864165
0.76853
-0.0376212
0.391359
-0.00855771
0.140765
0.0235803
-0.0197074
0.183122
-0.0557787
0.505162
-0.0934534
0.848878
-0.124309
1.17129
-0.151534
1.45649
-0.17965
1.74202
-0.206107
2.04579
-0.228926
2.39788
-0.245421
2.8065
-0.252199
3.2808
-0.24887
3.20514
-0.240123
2.63167
-0.228333
2.17597
-0.214258
1.80385
-0.191841
1.46772
-0.150876
1.112
-0.0928871
0.710541
-0.0385269
0.336999
-0.00822131
0.110459
0.015359
-0.0332064
0.216328
-0.0830035
0.554959
-0.131551
0.897425
-0.169423
1.20916
-0.201981
1.48904
-0.233729
1.77377
-0.260689
2.07275
-0.282216
2.41941
-0.29568
2.81997
-0.298821
3.28394
-0.291725
3.19804
-0.279584
2.61953
-0.266574
2.16296
-0.249023
1.7863
-0.218643
1.43734
-0.167769
1.06113
-0.0997062
0.642478
-0.0391107
0.276404
-0.00780807
0.0791565
0.00755095
-0.0475319
0.26386
-0.122004
0.629431
-0.18638
0.961801
-0.232339
1.25512
-0.270928
1.52763
-0.304018
1.80686
-0.329322
2.09805
-0.347399
2.43749
-0.356314
2.82888
-0.353069
3.28069
-0.339208
3.18418
-0.323003
2.60332
-0.304806
2.14476
-0.281839
1.76333
-0.244403
1.3999
-0.181142
0.997867
-0.100401
0.561738
-0.0367676
0.21277
-0.00735318
0.0497421
0.000197772
-0.0346011
0.298461
-0.0991646
0.693995
-0.158057
1.02069
-0.206902
1.30397
-0.252022
1.57275
-0.292381
1.84722
-0.33061
2.13628
-0.366072
2.47295
-0.394734
2.85754
-0.413637
3.2996
-0.419955
3.1905
-0.414641
2.59801
-0.403091
2.13321
-0.377707
1.73795
-0.320495
1.34269
-0.224656
0.902028
-0.114133
0.451215
-0.0405538
0.139191
-0.00853561
0.0177239
-0.00833783
-0.0126855
0.311146
-0.0484002
0.729709
-0.0914383
1.06373
-0.131873
1.3444
-0.171941
1.61282
-0.208539
1.88382
-0.243508
2.17125
-0.274522
2.50396
-0.298533
2.88155
-0.311458
3.31252
-0.308693
3.18773
-0.298068
2.58738
-0.280337
2.11548
-0.24893
1.70654
-0.198943
1.2927
-0.127618
0.830703
-0.0579077
0.381505
-0.0216573
0.10294
-0.00485983
0.000926385
-0.0131977
-0.000560028
0.311706
-0.0237701
0.752919
-0.0537298
1.09369
-0.0855767
1.37625
-0.119128
1.64637
-0.151482
1.91617
-0.181496
2.20126
-0.207374
2.52984
-0.225991
2.90017
-0.23269
3.31922
-0.225472
3.18051
-0.21033
2.57224
-0.190108
2.09526
-0.163463
1.67989
-0.120157
1.2494
-0.0655895
0.776135
-0.0263666
0.342282
-0.0114502
0.088024
-0.00323394
-0.00728992
-0.0164316
0.00137957
0.310327
-0.0142204
0.768519
-0.0357118
1.11518
-0.060029
1.40057
-0.0862298
1.67257
-0.113256
1.9432
-0.139104
2.22711
-0.161129
2.55187
-0.175784
2.91483
-0.178556
3.32199
-0.168185
3.17014
-0.150886
2.55494
-0.128281
2.07265
-0.0961039
1.64772
-0.0597052
1.213
-0.0265021
0.742932
-0.00944157
0.325221
-0.0054091
0.0839915
-0.00226464
-0.0104344
-0.0186962
0.00535809
0.304969
-0.00220216
0.77608
-0.0209712
1.13395
-0.0430983
1.42269
-0.0661703
1.69565
-0.0890526
1.96608
-0.11066
2.24872
-0.128666
2.56987
-0.139765
2.92593
-0.139442
3.32167
-0.126045
3.15675
-0.104631
2.53352
-0.0785127
2.04653
-0.0529257
1.62213
-0.0233706
1.18344
0.000410876
0.71915
0.00461991
0.321012
0.00145552
0.0871559
-0.000340107
-0.00863875
-0.0190364
0.00509996
0.299869
-0.000931366
0.782111
-0.0164948
1.14952
-0.0345187
1.44072
-0.0537282
1.71485
-0.0733359
1.98569
-0.0920657
2.26745
-0.107749
2.58555
-0.116841
2.93502
-0.113962
3.31879
-0.0986662
3.14145
-0.0777541
2.51261
-0.0526645
2.02144
-0.0222216
1.59169
0.00294057
1.15828
0.0155141
0.706577
0.0143179
0.322208
0.00677674
0.0946971
0.00144459
-0.0033066
-0.0175918
0.00542128
0.294448
0.00198146
0.785551
-0.0108881
1.16238
-0.0278173
1.45765
-0.0457094
1.73275
-0.0634549
2.00343
-0.0802167
2.28421
-0.0939288
2.59927
-0.101197
2.94229
-0.0975417
3.31514
-0.0820799
3.12599
-0.0586035
2.48914
-0.0317146
1.99455
-0.00977205
1.56974
0.0100689
1.13844
0.0214484
0.695197
0.0173428
0.326314
0.00873925
0.103301
0.00218739
0.00324527
-0.0154044
0.00280119
0.291646
-0.000229409
0.788581
-0.0114898
1.17365
-0.0258935
1.47205
-0.0416927
1.74855
-0.0578274
2.01957
-0.0731833
2.29957
-0.0859606
2.61204
-0.0927914
2.94912
-0.0888512
3.3112
-0.0728993
3.11004
-0.051909
2.46815
-0.029527
1.97217
-0.00268292
1.5429
0.0161686
1.11959
0.022352
0.689014
0.0182076
0.330458
0.00943119
0.112077
0.00253528
0.0101412
-0.0128691
0.00227207
0.289374
0.000135057
0.790718
-0.0102496
1.18403
-0.0238501
1.48565
-0.0390416
1.76374
-0.0542744
2.0348
-0.0689375
2.31423
-0.081161
2.62427
-0.0877747
2.95573
-0.084896
3.30832
-0.0704086
3.09555
-0.0479608
2.4457
-0.0231109
1.94732
-0.00447675
1.52427
0.0121091
1.103
0.0211008
0.680022
0.0168561
0.334703
0.00905033
0.119883
0.00256289
0.0166286
-0.0103062
-0.00039853
0.289773
-0.00392978
0.79425
-0.0128809
1.19298
-0.0247317
1.4975
-0.0385468
1.77755
-0.0529615
2.04922
-0.0670215
2.32829
-0.0792641
2.63651
-0.086842
2.96331
-0.084736
3.30621
-0.0698472
3.08066
-0.0501622
2.42601
-0.030527
1.92769
-0.00684458
1.50058
0.0101418
1.08601
0.0158774
0.674287
0.0139486
0.336632
0.00769727
0.126134
0.00229665
0.0220292
-0.00800955
-0.00066737
0.29044
-0.0043042
0.797886
-0.013124
1.2018
-0.0246721
1.50905
-0.0380888
1.79097
-0.0519778
2.0631
-0.0660191
2.34233
-0.0787252
2.64922
-0.0869688
2.97155
-0.0865899
3.30583
-0.0743283
3.0684
-0.0538748
2.40556
-0.030819
1.90463
-0.013732
1.4835
0.00171602
1.07057
0.0112546
0.664748
0.0102077
0.337679
0.00605255
0.130289
0.00191752
0.0261643
-0.00609204
-0.0020911
0.292531
-0.00744484
0.80324
-0.0157516
1.21011
-0.0262785
1.51958
-0.0387565
1.80345
-0.0522687
2.07662
-0.0661959
2.35626
-0.0791551
2.66218
-0.0885224
2.98092
-0.0898575
3.30717
-0.0777303
3.05627
-0.0600892
2.38792
-0.0420097
1.88655
-0.0194334
1.46092
-0.00270254
1.05384
0.00452328
0.657522
0.00662532
0.335577
0.00427568
0.132639
0.00149282
0.0289471
-0.00459921
-0.00321136
0.295743
-0.00771678
0.807746
-0.0159751
1.21837
-0.0265858
1.53019
-0.0389411
1.8158
-0.0521205
2.0898
-0.0660824
2.37022
-0.079626
2.67572
-0.0903291
2.99162
-0.0943479
3.31119
-0.0857183
3.04764
-0.0681976
2.3704
-0.0446481
1.863
-0.0269179
1.44319
-0.0111319
1.03805
0.000381876
0.646009
0.00328344
0.332675
0.00283788
0.133085
0.00111002
0.030675
-0.00348919
-0.00395612
0.299699
-0.00983018
0.81362
-0.0179615
1.2265
-0.0278695
1.54009
-0.0395625
1.8275
-0.0524891
2.10272
-0.0664513
2.38418
-0.0804138
2.68968
-0.0924853
3.00369
-0.0983749
3.31708
-0.0912133
3.04048
-0.0750851
2.35427
-0.0563636
1.84428
-0.0318386
1.41867
-0.0130296
1.01924
-0.00321407
0.636193
0.0014308
0.32803
0.00179928
0.132716
0.000881481
0.0315928
-0.00260771
-0.00397103
0.30367
-0.00964278
0.819291
-0.0178149
1.23467
-0.0278301
1.55011
-0.0394971
1.83916
-0.0521721
2.1154
-0.0661699
2.39818
-0.0807769
2.70429
-0.0943102
3.01723
-0.103125
3.32589
-0.100234
3.03759
-0.0847694
2.33881
-0.059374
1.81889
-0.0372345
1.39653
-0.0174564
0.999463
-0.00393848
0.622675
0.000391188
0.323701
0.00100357
0.132104
-8.39706e-05
0.0326803
-0.00269168
-0.00415957
0.307829
-0.0108755
0.826007
-0.0190107
1.2428
-0.0284468
1.55955
-0.0395456
1.85026
-0.0520219
2.12787
-0.0661064
2.41226
-0.0811368
2.71932
-0.0958176
3.03191
-0.106461
3.33653
-0.105253
3.03638
-0.0917257
2.32528
-0.0713423
1.7985
-0.0408004
1.36598
-0.0147044
0.973367
-0.0011336
0.609104
0.00588971
0.316677
0.00594929
0.132044
0.0028936
0.035736
0.000201919
-0.00405648
0.311886
-0.0103697
0.83232
-0.0183739
1.25081
-0.0278791
1.56905
-0.0389732
1.86136
-0.0512705
2.14017
-0.0653371
2.42633
-0.0808304
2.73481
-0.0967875
3.04787
-0.110281
3.35003
-0.113775
3.03988
-0.101949
2.31345
-0.0750468
1.7716
-0.0453944
1.33633
-0.0143077
0.94228
0.00866976
0.586127
0.0152013
0.310146
0.00777797
0.139467
-0.00167068
0.0451847
-0.00146876
-0.0042056
0.316091
-0.011065
0.83918
-0.0189154
1.25866
-0.0278821
1.57802
-0.0384324
1.87191
-0.0505065
2.15225
-0.0645991
2.44042
-0.0804085
2.75062
-0.097245
3.0647
-0.112235
3.36502
-0.117819
3.04546
-0.108791
2.30442
-0.0882536
1.75106
-0.0499222
1.298
-0.00786756
0.900226
0.0241915
0.554068
0.04637
0.287967
0.0504362
0.135401
0.0297886
0.0658323
0.0283198
-0.00406276
0.320154
-0.0103772
0.845494
-0.0179587
1.26624
-0.0269028
1.58696
-0.0373967
1.8824
-0.0492783
2.16413
-0.0632383
2.45438
-0.0792954
2.76668
-0.0970957
3.0825
-0.114579
3.3825
-0.124779
3.05566
-0.119249
2.29889
-0.0938764
1.72569
-0.0571094
1.26123
-0.00768531
0.850801
0.0385783
0.507804
0.0709111
0.255634
0.0571457
0.149167
0.0246208
0.0983572
0.0529407
-0.00404047
0.324195
-0.0106929
0.852147
-0.0180755
1.27362
-0.0264643
1.59535
-0.03642
1.89236
-0.048003
2.17571
-0.0618921
2.46827
-0.07814
2.78293
-0.0965562
3.10092
-0.115231
3.40117
-0.126578
3.06701
-0.125363
2.29768
-0.109445
1.70977
-0.0677576
1.21955
-0.0104161
0.79346
0.0591359
0.438252
0.153088
0.161683
0.212115
0.0901396
0.188063
0.122408
0.241004
-0.00388491
0.32808
-0.010077
0.858339
-0.0173597
1.28091
-0.0259856
1.60398
-0.0363621
1.90273
-0.0484481
2.1878
-0.0631732
2.483
-0.0809532
2.80071
-0.102049
3.12201
-0.125455
3.42458
-0.143675
3.08523
-0.148539
2.30254
-0.129447
1.69068
-0.0906186
1.18072
-0.0228589
0.7257
0.0374086
0.377985
-0.035599
0.23469
-0.350851
0.405391
-0.946529
0.718086
0.902972
-1.6085
-0.00379866
0.331878
-0.0102807
0.864821
-0.0174733
1.2881
-0.0257572
1.61226
-0.0358227
1.9128
-0.0479637
2.19994
-0.0631877
2.49822
-0.0820056
2.81952
-0.104927
3.14494
-0.131385
3.45104
-0.153519
3.10736
-0.163587
2.31261
-0.162773
1.68987
-0.128866
1.14681
-0.0890654
0.6859
-0.19558
0.484499
-0.693979
0.733089
-1.45843
1.16984
-2.06204
1.3217
1.21518
-2.37424
-0.00356912
0.335447
-0.00947056
0.870722
-0.0163826
1.29501
-0.0246971
1.62057
-0.034896
1.923
-0.0472253
2.21227
-0.0628285
2.51382
-0.0825289
2.83922
-0.107412
3.16982
-0.138147
3.48177
-0.168038
3.13725
-0.187136
2.33171
-0.186006
1.68873
-0.161133
1.12194
-0.247486
0.772253
-0.752854
0.989868
-1.56477
1.545
-2.11942
1.7245
-2.35602
1.5583
1.32842
-2.46926
-0.00348023
0.338928
-0.00944621
0.876688
-0.016198
1.30176
-0.0241364
1.62851
-0.0339669
1.93283
-0.0462655
2.22457
-0.0622543
2.52981
-0.0828961
2.85987
-0.109578
3.1965
-0.143674
3.51587
-0.178599
3.17218
-0.205169
2.35828
-0.223618
1.70718
-0.293365
1.19168
-0.67015
1.14904
-1.45021
1.76993
-2.03373
2.12852
-2.27167
1.96243
-2.38376
1.67039
1.39142
-2.44676
-0.00316903
0.342097
-0.00847952
0.881999
-0.0148458
1.30813
-0.02272
1.63639
-0.0326742
1.94278
-0.0451144
2.23701
-0.0613728
2.54607
-0.082728
2.88122
-0.111238
3.22501
-0.149705
3.55434
-0.193536
3.21601
-0.232724
2.39747
-0.26563
1.74009
-0.449139
1.37519
-1.09895
1.79884
-1.79676
2.46775
-2.11146
2.44322
-2.25808
2.10905
-2.33973
1.75203
1.45765
-2.40595
-0.00318154
0.345278
-0.00876216
0.887579
-0.015213
1.31458
-0.0229684
1.64414
-0.0329206
1.95273
-0.0455666
2.24965
-0.0623915
2.5629
-0.0848372
2.90367
-0.115228
3.2554
-0.157126
3.59623
-0.206572
3.26546
-0.24906
2.43996
-0.332688
1.82372
-0.734708
1.77721
-1.49531
2.55945
-1.96327
2.9357
-2.16273
2.64268
-2.26844
2.21476
-2.34571
1.82931
1.52066
-2.40873
-0.00323492
0.348513
-0.00866482
0.893009
-0.0153467
1.32126
-0.0237248
1.65252
-0.0344654
1.96347
-0.047922
2.26311
-0.0656346
2.58061
-0.0892868
2.92732
-0.121836
3.28795
-0.168362
3.64276
-0.224547
3.32164
-0.283206
2.49862
-0.468215
2.00873
-1.04503
2.35403
-1.68145
3.19587
-1.95215
3.20641
-2.09823
2.78875
-2.21208
2.32861
-2.30582
1.92305
1.58216
-2.36732
-0.00337921
0.351892
-0.00962383
0.899254
-0.0168719
1.32851
-0.0254953
1.66114
-0.036425
1.9744
-0.0503567
2.27704
-0.0689724
2.59922
-0.0940976
2.95245
-0.128771
3.32262
-0.178825
3.69281
-0.239531
3.38235
-0.322324
2.58141
-0.606381
2.29278
-1.26389
3.01154
-1.74963
3.68161
-1.95668
3.41346
-2.09565
2.92772
-2.21966
2.45263
-2.32973
2.03312
1.64086
-2.38843
-0.00330947
0.355202
-0.00923947
0.905184
-0.0167538
1.33602
-0.0261953
1.67059
-0.0381166
1.98632
-0.0530127
2.29194
-0.0726245
2.61884
-0.0989924
2.97881
-0.135779
3.35941
-0.189859
3.74689
-0.257192
3.44968
-0.379981
2.7042
-0.769261
2.68206
-1.4096
3.65187
-1.75873
4.03075
-1.93105
3.58577
-2.03258
3.02925
-2.12131
2.54136
-2.18779
2.0996
1.63343
-2.18036
-0.00334
0.358542
-0.010304
0.912148
-0.0185392
1.34426
-0.0282012
1.68025
-0.0402518
1.99838
-0.0555755
2.30726
-0.0760888
2.63935
-0.103994
3.00672
-0.142886
3.3983
-0.199095
3.8031
-0.275526
3.52611
-0.444778
2.87345
-0.902123
3.13941
-1.45921
4.20896
-1.71926
4.2908
-1.87035
3.73686
-1.9641
3.123
-1.96462
2.54187
-1.89445
2.02943
1.59515
-1.85617
-0.00311526
0.361657
-0.00943292
0.918465
-0.0178025
1.35263
-0.028353
1.6908
-0.0414696
2.01149
-0.0576696
2.32346
-0.078798
2.66048
-0.107081
3.035
-0.146565
3.43779
-0.203157
3.8597
-0.28812
3.61107
-0.491488
3.07682
-0.985259
3.63318
-1.42536
4.64906
-1.58955
4.45499
-1.65611
3.80342
-1.66048
3.12736
-1.51294
2.39434
-1.01397
1.53045
0.581184
-0.00273317
0.36439
-0.0104238
0.926156
-0.0197038
1.36191
-0.0305159
1.70161
-0.04394
2.02492
-0.0609999
2.34052
-0.0838512
2.68333
-0.115047
3.0662
-0.158668
3.48141
-0.22124
3.92227
-0.32342
3.71325
-0.577506
3.3309
-1.12033
4.176
-1.47695
5.00568
-1.57569
4.55373
-1.57383
3.80156
-1.47044
3.02398
-1.23195
2.15585
-0.629492
0.927995
-0.0483078
-0.00244052
0.366831
-0.00868806
0.932404
-0.0178721
1.37109
-0.0299464
1.71368
-0.0451615
2.04013
-0.0641321
2.35949
-0.0891299
2.70833
-0.122905
3.09997
-0.170856
3.52936
-0.240588
3.992
-0.362927
3.83559
-0.676946
3.64492
-1.23808
4.73714
-1.49654
5.26414
-1.55557
4.61275
-1.5334
3.77939
-1.33194
2.82252
-0.780123
1.60403
-0.108266
0.256139
-0.156574
-0.00148179
0.368313
-0.00933557
0.940257
-0.0195296
1.38129
-0.0316969
1.72585
-0.0468739
2.05531
-0.066427
2.37904
-0.0930152
2.73492
-0.129847
3.1368
-0.181745
3.58126
-0.258811
4.06907
-0.407044
3.98383
-0.779526
4.0174
-1.31505
5.27267
-1.49087
5.43996
-1.52155
4.64343
-1.43379
3.69162
-1.09834
2.48708
-0.312179
0.817864
0.0247317
-0.080772
-0.131843
-0.00094694
0.369259
-0.0060928
0.945403
-0.0156421
1.39084
-0.0291412
1.73935
-0.0462968
2.07246
-0.0679735
2.40072
-0.096871
2.76381
-0.136069
3.176
-0.191058
3.63625
-0.277452
4.15546
-0.451672
4.15804
-0.889408
4.45514
-1.35978
5.74304
-1.47482
5.55499
-1.47808
4.6467
-1.25484
3.46838
-0.684694
1.91694
-0.0630492
0.19622
0.0300021
-0.173823
-0.10184
0.000104122
0.369155
-0.00588909
0.951397
-0.0162737
1.40122
-0.0296243
1.7527
-0.0460668
2.08891
-0.0679077
2.42256
-0.0979086
2.79381
-0.13962
3.21771
-0.197784
3.69441
-0.292847
4.25052
-0.493662
4.35886
-0.980898
4.94238
-1.35362
6.11576
-1.41945
5.62082
-1.37328
4.60053
-1.08556
3.18066
-0.323214
1.1546
0.0033552
-0.13035
0.0141151
-0.184583
-0.0877253
0.00332833
0.365827
0.00106712
0.953658
-0.00888769
1.41118
-0.0234991
1.76731
-0.0418452
2.10725
-0.065982
2.4467
-0.098179
2.82601
-0.141637
3.26117
-0.202652
3.75543
-0.306419
4.35429
-0.532154
4.58459
-1.04323
5.45346
-1.31886
6.39139
-1.35782
5.65978
-1.2196
4.46231
-0.770552
2.73161
-0.0701005
0.454145
0.0435381
-0.243989
0.0237111
-0.164756
-0.0640142
0.0042892
0.361538
0.00234894
0.955598
-0.00753839
1.42106
-0.0210097
1.78078
-0.0377193
2.12396
-0.0613457
2.47032
-0.0936306
2.8583
-0.138728
3.30627
-0.202247
3.81895
-0.313387
4.46543
-0.570145
4.84135
-1.06422
5.94754
-1.25305
6.58021
-1.26406
5.67079
-1.04626
4.24451
-0.460268
2.14562
-0.0184658
0.0123435
-0.00674632
-0.255708
0.00478276
-0.176285
-0.0592315
0.00871611
0.352822
0.0107255
0.953589
0.00477794
1.42701
-0.0083933
1.79396
-0.0274114
2.14298
-0.0529096
2.49582
-0.0867992
2.89219
-0.132382
3.35185
-0.197587
3.88415
-0.315446
4.58329
-0.591745
5.11765
-1.04116
6.39695
-1.16643
6.70547
-1.14971
5.65408
-0.891112
3.98591
-0.26565
1.52016
-0.0709808
-0.182325
-0.0390825
-0.287607
-0.014542
-0.200826
-0.0737735
0.0113224
0.341499
0.0159603
0.948951
0.010885
1.43209
0.000780957
1.80406
-0.0168048
2.16057
-0.0400245
2.51904
-0.0722362
2.9244
-0.1178
3.39742
-0.183538
3.94989
-0.304558
4.70431
-0.590352
5.40345
-0.977415
6.78401
-1.04008
6.76814
-0.973924
5.58793
-0.676621
3.68861
-0.0728521
0.916388
0.0133344
-0.268512
-0.0012673
-0.273005
-0.00232185
-0.199771
-0.0760954
0.0185207
0.322979
0.0308959
0.936575
0.0310449
1.43194
0.020766
1.81434
0.00336964
2.17796
-0.0199577
2.54237
-0.0526018
2.95704
-0.096969
3.44178
-0.161105
4.01402
-0.282353
4.82555
-0.558687
5.67978
-0.864177
7.0895
-0.901567
6.80553
-0.796565
5.48293
-0.440361
3.3324
0.0685912
0.407436
0.0800012
-0.279922
0.0597682
-0.252772
0.0221523
-0.162155
-0.0539431
0.0242755
0.298703
0.0424675
0.918383
0.0455277
1.42888
0.0391331
1.82073
0.0273505
2.18974
0.00704286
2.56268
-0.0216401
2.98572
-0.0628979
3.48304
-0.124092
4.07522
-0.238676
4.94014
-0.486168
5.92727
-0.707539
7.31087
-0.732511
6.8305
-0.635471
5.38589
-0.299874
2.9968
0.0126605
0.094901
0.0266985
-0.29396
0.0366311
-0.262704
0.0172825
-0.142807
-0.0366606
0.0351904
0.263513
0.0661901
0.887384
0.0789232
1.41614
0.0767287
1.82293
0.0661126
2.20036
0.0465452
2.58224
0.0188647
3.0134
-0.0194382
3.52134
-0.0742151
4.13
-0.173851
5.03977
-0.373294
6.12672
-0.527074
7.46465
-0.551868
6.85529
-0.45705
5.29107
-0.190365
2.73012
-0.0739975
-0.0214667
-0.05078
-0.317178
-0.0174979
-0.295986
0.000715531
-0.16102
-0.0359451
0.0447107
0.218802
0.0875299
0.844565
0.1079
1.39577
0.112797
1.81803
0.109307
2.20385
0.0963637
2.59519
0.0764749
3.03329
0.0451512
3.55267
-0.006121
4.18127
-0.0799098
5.11356
-0.217277
6.26408
-0.306312
7.55369
-0.317078
6.86606
-0.263859
5.23785
-0.11192
2.57818
-0.116251
-0.0171363
-0.0955214
-0.337907
-0.0591251
-0.332383
-0.0158775
-0.204268
-0.0518225
0.0579851
0.160817
0.121682
0.780868
0.160527
1.35693
0.174684
1.80387
0.175376
2.20316
0.164915
2.60565
0.148939
3.04927
0.125763
3.57584
0.0908861
4.21614
0.0414115
5.16304
-0.0112179
6.31671
-0.0413542
7.58383
-0.0395813
6.86428
-0.005066
5.20333
0.0252308
2.54788
-0.13917
0.147265
-0.13988
-0.337197
-0.0886134
-0.383649
-0.016135
-0.276746
-0.0679576
0.0596124
0.101204
0.151299
0.689181
0.208877
1.29935
0.236596
1.77615
0.248839
2.19092
0.249349
2.60514
0.243861
3.05476
0.23216
3.58754
0.212778
4.23553
0.190924
5.18489
0.232089
6.27555
0.288836
7.52708
0.325075
6.82805
0.2987
5.22971
0.14619
2.70039
-0.12841
0.421864
-0.201236
-0.264371
-0.138709
-0.446176
-0.0343482
-0.381107
-0.102306
0.0487394
0.0524651
0.184794
0.553126
0.283372
1.20077
0.332584
1.72694
0.353863
2.16964
0.361168
2.59783
0.359255
3.05667
0.359999
3.5868
0.361739
4.23379
0.373491
5.17314
0.523285
6.12575
0.664027
7.38634
0.673507
6.81857
0.465886
5.43733
-0.0231661
3.18945
-0.379732
0.77843
-0.437168
-0.206935
-0.344961
-0.538384
-0.1723
-0.553768
-0.274606
0.0340351
0.0184299
0.21878
0.368381
0.34858
1.07097
0.427539
1.64798
0.46975
2.12743
0.495527
2.57206
0.504907
3.04729
0.518417
3.57329
0.540739
4.21146
0.592838
5.12104
0.807843
5.91075
1.12311
7.07107
1.24863
6.69304
1.23956
5.4464
0.738423
3.69058
0.0122107
1.50464
-0.403465
0.208741
-0.490517
-0.451331
-0.274
-0.770285
-0.548606
0.0302446
-0.0118147
0.232355
0.16627
0.45209
0.851238
0.573658
1.52641
0.628665
2.07242
0.660202
2.54052
0.680093
3.0274
0.703565
3.54982
0.749601
4.16543
0.845524
5.02512
1.1659
5.59038
1.72782
6.50915
2.05873
6.36213
2.30285
5.20228
2.20003
3.7934
1.42824
2.27643
0.699615
0.937361
0.188677
0.0596072
-0.0308529
-0.550755
-0.579459
0.0225096
-0.0343243
0.153687
0.0350932
0.493683
0.511242
0.695164
1.32493
0.80249
1.96509
0.857635
2.48538
0.894833
2.9902
0.919215
3.52544
0.980657
4.10399
1.10419
4.90159
1.47136
5.22321
2.23131
5.7492
2.61147
5.98197
2.79038
5.02336
2.64959
3.9342
2.14824
2.77779
1.49258
1.59301
0.914257
0.637933
0.342358
0.0211441
-0.237101
0.00151206
-0.0358364
0.075223
-0.0386177
0.407021
0.179444
0.723144
1.00881
0.87082
1.81742
0.911263
2.44493
0.919314
2.98215
0.903087
3.54166
0.899812
4.10726
0.933379
4.86802
1.09469
5.0619
1.53773
5.30617
1.71481
5.80488
1.76104
4.97714
1.67333
4.02191
1.41261
3.03851
1.00101
2.00461
0.584834
1.05411
0.249645
0.356333
0.012544
0.00443344
-0.0402698
0.0421169
-0.0763012
0.200827
0.020734
0.549331
0.660307
0.735986
1.63076
0.803058
2.37786
0.817313
2.96789
0.811827
3.54715
0.795445
4.12364
0.813919
4.84955
0.896924
4.97889
1.20897
4.99412
1.38951
5.62434
1.40737
4.95928
1.35097
4.07831
1.18561
3.20387
0.895052
2.29517
0.565503
1.38366
0.234313
0.687523
0.246857
-0.00100826
-0.0392616
0.00781496
-0.0851244
0.0740544
-0.0455054
0.37434
0.360021
0.594696
1.41041
0.697696
2.27486
0.720701
2.94489
0.717521
3.55033
0.689354
4.15181
0.685459
4.85344
0.716383
4.94797
0.907152
4.80335
1.07854
5.45295
1.08008
4.95774
1.02698
4.13141
0.903333
3.32751
0.693172
2.50533
0.43057
1.64627
0.175779
0.942314
0.422636
-0.00575779
-0.0335038
-0.0051713
-0.0857109
0.0288453
-0.079522
0.239108
0.149758
0.471927
1.17759
0.575926
2.17086
0.607303
2.91351
0.61172
3.54591
0.582021
4.18151
0.555877
4.87958
0.559012
4.94483
0.667361
4.695
0.807459
5.31285
0.797503
4.96769
0.740689
4.18823
0.644594
3.42361
0.495952
2.65397
0.304775
1.83744
0.117423
1.12967
0.540059
0.000865712
-0.0343695
0.0118784
-0.0967236
0.0422484
-0.109892
0.150912
0.0410943
0.36212