/*--------------------------------*- C++ -*----------------------------------*\
| =========                 |                                                 |
| \\      /  F ield         | OpenFOAM: The Open Source CFD Toolbox           |
|  \\    /   O peration     | Version:  4.0                                   |
|   \\  /    A nd           | Web:      www.OpenFOAM.org                      |
|    \\/     M anipulation  |                                                 |
\*---------------------------------------------------------------------------*/
FoamFile
{
    version     2.0;
    format      ascii;
    class       volVectorField;
    location    "73";
    object      U;
}
// * * * * * * * * * * * * * * * * * * * * * * * * * * * * * * * * * * * * * //

dimensions      [0 1 -1 0 0 0 0];

internalField   nonuniform List<vector> 
2200
(
(0.878837 -0.0304117 0)
(1.00578 -0.0512776 0)
(1.00327 -0.0353981 0)
(1.00022 -0.0244285 0)
(0.999835 -0.0166454 0)
(1.00003 -0.01071 0)
(1.00002 -0.00682161 0)
(0.999937 -0.00414933 0)
(0.999794 -0.00212719 0)
(1.00018 -0.00061935 0)
(0.999981 0.00125151 0)
(1.00026 0.00274629 0)
(1.00039 0.0045333 0)
(1.00025 0.00714635 0)
(1.00004 0.0108585 0)
(0.999961 0.0166799 0)
(1.0003 0.0243879 0)
(1.00346 0.0348732 0)
(1.00598 0.0513834 0)
(0.87904 0.0302971 0)
(0.712035 -0.0327601 0)
(0.996649 -0.0630028 0)
(1.03335 -0.0561287 0)
(1.02498 -0.0464087 0)
(1.01594 -0.0361053 0)
(1.00965 -0.0263713 0)
(1.00595 -0.0181246 0)
(1.0039 -0.0114659 0)
(1.00286 -0.00610973 0)
(1.00232 -0.00168479 0)
(1.00228 0.00245314 0)
(1.00223 0.00691798 0)
(1.0032 0.0124128 0)
(1.00551 0.0189294 0)
(1.00944 0.0272289 0)
(1.01554 0.0369682 0)
(1.02462 0.0474646 0)
(1.03315 0.0579953 0)
(0.996695 0.0631481 0)
(0.711781 0.0330364 0)
(0.535579 -0.02389 0)
(0.969939 -0.0569173 0)
(1.05643 -0.0547223 0)
(1.05219 -0.0487133 0)
(1.03621 -0.0403681 0)
(1.02448 -0.0321761 0)
(1.01588 -0.0238913 0)
(1.01023 -0.0159497 0)
(1.00681 -0.00860764 0)
(1.00535 -0.00184655 0)
(1.00521 0.00435647 0)
(1.00716 0.0108734 0)
(1.01051 0.0177443 0)
(1.01576 0.0254829 0)
(1.02403 0.0334739 0)
(1.03608 0.0414596 0)
(1.05217 0.0494536 0)
(1.05628 0.0533011 0)
(0.969174 0.0576693 0)
(0.534327 0.0239429 0)
(0.392444 -0.013635 0)
(0.911945 -0.0463621 0)
(1.05756 -0.0468088 0)
(1.0697 -0.0442637 0)
(1.05497 -0.0381118 0)
(1.03937 -0.0314483 0)
(1.02764 -0.0246367 0)
(1.01931 -0.0174558 0)
(1.01414 -0.00999972 0)
(1.01158 -0.0025273 0)
(1.01132 0.00509423 0)
(1.0131 0.012609 0)
(1.01799 0.0200197 0)
(1.02652 0.0267737 0)
(1.03849 0.0331611 0)
(1.05396 0.039585 0)
(1.06817 0.0456562 0)
(1.05544 0.0483157 0)
(0.909863 0.0469984 0)
(0.389852 0.0137824 0)
(0.307867 -0.00451018 0)
(0.846839 -0.0323583 0)
(1.0494 -0.0398897 0)
(1.07943 -0.038115 0)
(1.06822 -0.033428 0)
(1.05176 -0.0277828 0)
(1.03833 -0.0223692 0)
(1.02794 -0.0162378 0)
(1.02063 -0.00924104 0)
(1.01657 -0.00150144 0)
(1.0166 0.00624488 0)
(1.0206 0.013461 0)
(1.02758 0.019741 0)
(1.03732 0.025491 0)
(1.05016 0.0304504 0)
(1.06661 0.035782 0)
(1.07767 0.0401115 0)
(1.0472 0.0418032 0)
(0.842847 0.0329987 0)
(0.30361 0.00474489 0)
(0.264535 0.000105449 0)
(0.789349 -0.0200419 0)
(1.03371 -0.0314005 0)
(1.08382 -0.0319437 0)
(1.07747 -0.0286532 0)
(1.06094 -0.0237814 0)
(1.04735 -0.0192938 0)
(1.03661 -0.0142539 0)
(1.02901 -0.00824104 0)
(1.02468 -0.00126808 0)
(1.02404 0.00619976 0)
(1.02723 0.0130818 0)
(1.03427 0.0188762 0)
(1.04492 0.0233247 0)
(1.0586 0.0272488 0)
(1.07484 0.0316242 0)
(1.08026 0.0343499 0)
(1.02907 0.0334201 0)
(0.782388 0.0207792 0)
(0.258544 0.00012929 0)
(0.240612 0.00107344 0)
(0.738689 -0.0122469 0)
(1.01385 -0.0249133 0)
(1.08411 -0.0266519 0)
(1.0831 -0.0243135 0)
(1.06791 -0.0200969 0)
(1.05435 -0.0160355 0)
(1.04337 -0.0113991 0)
(1.03493 -0.00592063 0)
(1.02969 0.000549471 0)
(1.02948 0.00717429 0)
(1.03395 0.0128911 0)
(1.0416 0.0174394 0)
(1.05173 0.0214381 0)
(1.06462 0.0248102 0)
(1.07932 0.0282683 0)
(1.07979 0.0298149 0)
(1.00732 0.027321 0)
(0.728536 0.0131831 0)
(0.232816 -0.000828245 0)
(0.226426 0.000967174 0)
(0.696146 -0.00799245 0)
(0.993631 -0.0206317 0)
(1.08265 -0.0229579 0)
(1.08717 -0.0210968 0)
(1.07361 -0.0175557 0)
(1.0601 -0.0137484 0)
(1.0495 -0.00951448 0)
(1.04168 -0.00458305 0)
(1.03692 0.00108699 0)
(1.03587 0.00717534 0)
(1.03888 0.0125699 0)
(1.04563 0.0170114 0)
(1.05568 0.020313 0)
(1.06914 0.0232814 0)
(1.08183 0.0259653 0)
(1.07546 0.0269382 0)
(0.982969 0.023552 0)
(0.681303 0.00917157 0)
(0.216295 -0.000704899 0)
(0.216878 0.000630041 0)
(0.660739 -0.00562542 0)
(0.973007 -0.0175136 0)
(1.07973 -0.0200486 0)
(1.09043 -0.018415 0)
(1.07843 -0.0151808 0)
(1.06507 -0.0114488 0)
(1.05456 -0.00710234 0)
(1.04648 -0.00213253 0)
(1.04107 0.00329672 0)
(1.04029 0.00851038 0)
(1.04404 0.0130825 0)
(1.05074 0.0166838 0)
(1.06002 0.02 0)
(1.07236 0.0226627 0)
(1.08319 0.0248147 0)
(1.07062 0.0251982 0)
(0.958742 0.0211507 0)
(0.641007 0.0071325 0)
(0.204096 -0.000325688 0)
(0.209881 0.000307959 0)
(0.6326 -0.00414593 0)
(0.954587 -0.0148534 0)
(1.07707 -0.017696 0)
(1.09385 -0.0163166 0)
(1.08327 -0.0133666 0)
(1.06976 -0.00973561 0)
(1.05921 -0.0057137 0)
(1.05137 -0.00115878 0)
(1.04641 0.00387394 0)
(1.04487 0.00925426 0)
(1.04707 0.0137989 0)
(1.05298 0.0175241 0)
(1.06235 0.020141 0)
(1.07536 0.0224917 0)
(1.08416 0.0241367 0)
(1.06351 0.0240925 0)
(0.933798 0.0193081 0)
(0.605827 0.00600248 0)
(0.193521 5.22027e-05 0)
(0.204089 9.3119e-05 0)
(0.609351 -0.00310127 0)
(0.93661 -0.0124227 0)
(1.07382 -0.0154116 0)
(1.09712 -0.0142088 0)
(1.08803 -0.0113631 0)
(1.07454 -0.00775153 0)
(1.06384 -0.00353236 0)
(1.05575 0.00142233 0)
(1.05024 0.00669568 0)
(1.04861 0.0112053 0)
(1.05119 0.0151495 0)
(1.05703 0.0181761 0)
(1.06579 0.0209136 0)
(1.07763 0.0229355 0)
(1.08432 0.0241428 0)
(1.05652 0.0233541 0)
(0.909628 0.0178264 0)
(0.575185 0.00537328 0)
(0.183727 0.000337355 0)
(0.19975 2.87658e-05 0)
(0.591656 -0.00219092 0)
(0.921696 -0.0100189 0)
(1.07126 -0.0130424 0)
(1.10069 -0.0118951 0)
(1.09296 -0.00910842 0)
(1.07929 -0.00543444 0)
(1.06826 -0.00150489 0)
(1.05978 0.00286924 0)
(1.05387 0.0074835 0)
(1.05152 0.0126058 0)
(1.05309 0.0167122 0)
(1.05841 0.0197753 0)
(1.06749 0.0217078 0)
(1.07994 0.0234507 0)
(1.08398 0.0242775 0)
(1.04727 0.0228952 0)
(0.884771 0.0166806 0)
(0.54718 0.00501805 0)
(0.174089 0.000507636 0)
(0.196263 3.83445e-05 0)
(0.577096 -0.00149933 0)
(0.907364 -0.00793215 0)
(1.06856 -0.0108434 0)
(1.10436 -0.00969292 0)
(1.09819 -0.00688821 0)
(1.0845 -0.00328196 0)
(1.07307 0.000852666 0)
(1.06418 0.00572563 0)
(1.05812 0.011242 0)
(1.0554 0.0157214 0)
(1.05676 0.0191115 0)
(1.06193 0.0214498 0)
(1.07039 0.0233799 0)
(1.0812 0.02455 0)
(1.0831 0.0248978 0)
(1.03775 0.0229129 0)
(0.860113 0.0159252 0)
(0.521386 0.00489152 0)
(0.164636 0.000601392 0)
(0.194363 6.92962e-05 0)
(0.56703 -0.000675488 0)
(0.896394 -0.00569344 0)
(1.06656 -0.00825932 0)
(1.10818 -0.00690123 0)
(1.10334 -0.00393234 0)
(1.08952 -3.59306e-05 0)
(1.07781 0.0040875 0)
(1.06845 0.00864142 0)
(1.06106 0.0130893 0)
(1.05733 0.0177809 0)
(1.05797 0.0212807 0)
(1.06263 0.0236308 0)
(1.07139 0.0248364 0)
(1.08234 0.0257991 0)
(1.08093 0.0256338 0)
(1.02559 0.0230829 0)
(0.834347 0.01545 0)
(0.496458 0.00483868 0)
(0.155115 0.000631611 0)
(0.193713 0.000108776 0)
(0.559914 -0.000128516 0)
(0.886766 -0.0035679 0)
(1.06527 -0.00566699 0)
(1.11239 -0.00410663 0)
(1.10907 -0.000968817 0)
(1.09533 0.00288627 0)
(1.08303 0.00715084 0)
(1.07283 0.0120352 0)
(1.06538 0.017595 0)
(1.06131 0.0220464 0)
(1.06131 0.0250319 0)
(1.06565 0.0266077 0)
(1.07366 0.0276363 0)
(1.08196 0.0278767 0)
(1.07801 0.0272529 0)
(1.01291 0.0239297 0)
(0.8082 0.0154234 0)
(0.472257 0.00494232 0)
(0.145604 0.000657519 0)
(0.194433 7.18916e-05 0)
(0.556103 0.000931176 0)
(0.880608 -0.00143671 0)
(1.06485 -0.0029226 0)
(1.11705 -0.000911866 0)
(1.11491 0.00255036 0)
(1.10095 0.00697306 0)
(1.08839 0.011631 0)
(1.07794 0.0166998 0)
(1.06904 0.0214777 0)
(1.06307 0.0253413 0)
(1.06211 0.0280851 0)
(1.06541 0.0296284 0)
(1.07332 0.0301997 0)
(1.08197 0.0303603 0)
(1.07323 0.0291745 0)
(0.997131 0.0249438 0)
(0.780374 0.0157148 0)
(0.447681 0.00511894 0)
(0.135763 0.000674419 0)
(0.196791 0.00033066 0)
(0.556684 0.00161517 0)
(0.876683 0.00106564 0)
(1.06616 0.000498782 0)
(1.12243 0.0028627 0)
(1.12147 0.00665565 0)
(1.10744 0.0111983 0)
(1.09407 0.0161548 0)
(1.08218 0.0213953 0)
(1.0722 0.0267219 0)
(1.06643 0.0315536 0)
(1.06475 0.0338312 0)
(1.06772 0.0344579 0)
(1.07485 0.0347098 0)
(1.07967 0.0338812 0)
(1.06736 0.0319472 0)
(0.980395 0.0267882 0)
(0.751375 0.0164167 0)
(0.42259 0.00543688 0)
(0.125578 0.000700101 0)
(0.201207 0.000689415 0)
(0.5598 0.00247373 0)
(0.877563 0.00366635 0)
(1.06899 0.00380057 0)
(1.12873 0.00695896 0)
(1.12872 0.0112062 0)
(1.11426 0.0165289 0)
(1.10034 0.022078 0)
(1.08821 0.0280168 0)
(1.07759 0.0335888 0)
(1.06877 0.0369477 0)
(1.065 0.0385057 0)
(1.06617 0.0392774 0)
(1.07276 0.0387889 0)
(1.07833 0.0380544 0)
(1.05939 0.0353885 0)
(0.959632 0.0288365 0)
(0.719556 0.0174826 0)
(0.395884 0.0058437 0)
(0.114684 0.000721313 0)
(0.208119 0.000913575 0)
(0.567577 0.00367286 0)
(0.882096 0.00620642 0)
(1.07434 0.00827288 0)
(1.13602 0.0119101 0)
(1.13695 0.0167997 0)
(1.12209 0.0225142 0)
(1.10716 0.0286729 0)
(1.09312 0.0347838 0)
(1.07987 0.0403592 0)
(1.07036 0.0443792 0)
(1.06666 0.0463532 0)
(1.06796 0.0462479 0)
(1.07322 0.0455081 0)
(1.07352 0.04346 0)
(1.04952 0.0395717 0)
(0.937278 0.0318941 0)
(0.685579 0.0189501 0)
(0.367541 0.00634636 0)
(0.103115 0.000740408 0)
(0.216773 0.00109538 0)
(0.578953 0.00495478 0)
(0.890773 0.00927036 0)
(1.08235 0.0127146 0)
(1.14475 0.0176568 0)
(1.14618 0.023352 0)
(1.13044 0.0301083 0)
(1.11438 0.0370211 0)
(1.09936 0.0441502 0)
(1.08518 0.0503768 0)
(1.07356 0.0543881 0)
(1.06648 0.0547673 0)
(1.06498 0.0540499 0)
(1.06892 0.05203 0)
(1.07017 0.0498832 0)
(1.037 0.0450223 0)
(0.909391 0.0351908 0)
(0.646942 0.0207361 0)
(0.336282 0.00687318 0)
(0.0905499 0.000749444 0)
(0.229643 0.00142066 0)
(0.598049 0.00689268 0)
(0.906354 0.013745 0)
(1.09393 0.0191025 0)
(1.15548 0.0246634 0)
(1.15709 0.0314435 0)
(1.14041 0.0390498 0)
(1.12289 0.046872 0)
(1.10553 0.054438 0)
(1.08821 0.0606625 0)
(1.07329 0.0638331 0)
(1.06625 0.0643822 0)
(1.06526 0.0635713 0)
(1.06795 0.0613828 0)
(1.06198 0.0577842 0)
(1.02116 0.0510899 0)
(0.878546 0.0396432 0)
(0.604874 0.0228505 0)
(0.302549 0.00741453 0)
(0.0772326 0.000750248 0)
(0.245703 0.00201741 0)
(0.622357 0.00870612 0)
(0.928362 0.0183514 0)
(1.11002 0.0260519 0)
(1.16855 0.0336616 0)
(1.16961 0.0417175 0)
(1.15097 0.0507078 0)
(1.13125 0.0595132 0)
(1.11158 0.0678424 0)
(1.09209 0.0742925 0)
(1.07569 0.0775469 0)
(1.06561 0.0771779 0)
(1.06093 0.0745281 0)
(1.0611 0.0707757 0)
(1.05522 0.0665029 0)
(1.00197 0.0585299 0)
(0.840195 0.0440431 0)
(0.555899 0.0249408 0)
(0.265019 0.00778564 0)
(0.0629777 0.000719273 0)
(0.268128 0.00286839 0)
(0.655647 0.0125763 0)
(0.957321 0.025208 0)
(1.13032 0.035821 0)
(1.18451 0.0445793 0)
(1.18445 0.0546575 0)
(1.16371 0.0648389 0)
(1.14147 0.0746784 0)
(1.11861 0.0833744 0)
(1.09537 0.0896662 0)
(1.07509 0.0919552 0)
(1.06288 0.0900727 0)
(1.05904 0.087451 0)
(1.05827 0.083538 0)
(1.04258 0.0774015 0)
(0.977101 0.0667615 0)
(0.79676 0.0496963 0)
(0.502298 0.0272047 0)
(0.225083 0.00802509 0)
(0.0484352 0.000699292 0)
(0.300038 0.0037925 0)
(0.70219 0.0156638 0)
(0.997903 0.0334301 0)
(1.15778 0.0473344 0)
(1.20425 0.0590383 0)
(1.20149 0.0714098 0)
(1.1767 0.0835032 0)
(1.15066 0.0942978 0)
(1.12425 0.103244 0)
(1.0977 0.108604 0)
(1.07466 0.109211 0)
(1.06096 0.106584 0)
(1.05286 0.102058 0)
(1.04816 0.0958637 0)
(1.03036 0.0887077 0)
(0.947669 0.0759547 0)
(0.742969 0.0545446 0)
(0.438984 0.0285987 0)
(0.181457 0.00778601 0)
(0.0334736 0.000594023 0)
(0.33705 0.00718121 0)
(0.760559 0.0252308 0)
(1.04659 0.0471683 0)
(1.19046 0.0657811 0)
(1.22769 0.0791885 0)
(1.22043 0.0943386 0)
(1.19121 0.107147 0)
(1.16128 0.117967 0)
(1.1305 0.125884 0)
(1.0994 0.129897 0)
(1.07288 0.129469 0)
(1.05578 0.124722 0)
(1.04838 0.118645 0)
(1.0426 0.112171 0)
(1.01065 0.10236 0)
(0.908708 0.0854013 0)
(0.681311 0.0601056 0)
(0.372341 0.0298636 0)
(0.138125 0.00734908 0)
(0.0201439 0.000564932 0)
(0.418203 0.0109716 0)
(0.849475 0.0358565 0)
(1.1155 0.0683537 0)
(1.2322 0.0912124 0)
(1.25575 0.107463 6.09329e-34)
(1.24161 0.124894 -2.75684e-34)
(1.20566 0.138028 0)
(1.1703 0.147856 0)
(1.13484 0.154274 0)
(1.09995 0.155825 0)
(1.07009 0.151599 0)
(1.05167 0.144253 0)
(1.04009 0.136928 0)
(1.02755 0.127434 0)
(0.989393 0.115323 0)
(0.863303 0.0948805 0)
(0.605838 0.0632664 0)
(0.291927 0.0284635 0)
(0.0899583 0.00661668 0)
(0.00604669 0.000703974 0)
(0.490248 0.0261039 4.40706e-20)
(0.951947 0.0610323 -3.34229e-20)
(1.18455 0.102747 0)
(1.27367 0.130282 2.61813e-20)
(1.28477 0.146779 -2.12302e-20)
(1.26087 0.165809 2.90876e-34)
(1.21825 0.176734 0)
(1.1781 0.184358 1.55908e-20)
(1.13743 0.18788 -5.12417e-20)
(1.09705 0.186066 1.04874e-20)
(1.06356 0.179632 0)
(1.04225 0.170872 -2.67566e-20)
(1.03071 0.160647 -3.22853e-20)
(1.01551 0.150461 5.65969e-20)
(0.950887 0.134253 -4.47009e-20)
(0.787123 0.10464 0)
(0.496009 0.0646501 -1.60463e-20)
(0.198214 0.025686 0)
(0.0422927 0.0061798 -8.88231e-20)
(-0.00881442 0.000234943 1.0468e-19)
(0.527232 0.0544456 -5.84738e-21)
(1.02062 0.103591 9.75763e-20)
(1.23919 0.154642 -4.77954e-21)
(1.30913 0.17907 -6.28925e-20)
(1.31081 0.196473 -4.47127e-20)
(1.27817 0.213633 7.27326e-20)
(1.22906 0.222159 0)
(1.18299 0.227249 0)
(1.13697 0.228223 8.12313e-20)
(1.09269 0.224015 0)
(1.05595 0.214558 9.60451e-20)
(1.03139 0.201741 2.87106e-20)
(1.01376 0.190474 6.42933e-22)
(0.983515 0.175981 -6.11449e-20)
(0.905212 0.152961 0)
(0.711256 0.116593 0)
(0.404907 0.0651188 -2.60512e-19)
(0.135907 0.0224417 6.55135e-19)
(0.00914502 0.00391052 -3.87223e-19)
(-0.0198381 -0.00153418 -4.56035e-19)
(0.534185 0.0789225 -5.07162e-20)
(1.05223 0.160124 2.00175e-20)
(1.27284 0.214001 1.14608e-20)
(1.3361 0.237765 1.09034e-19)
(1.33092 0.25479 1.47131e-20)
(1.29062 0.267619 -1.88749e-19)
(1.23601 0.271696 6.46399e-20)
(1.18507 0.27299 0)
(1.13386 0.270364 -1.71142e-19)
(1.08366 0.262019 1.52703e-19)
(1.04154 0.248472 -2.59032e-19)
(1.01435 0.233879 1.21458e-19)
(0.995976 0.220157 -7.88142e-20)
(0.965462 0.203682 1.77874e-19)
(0.866628 0.176725 0)
(0.655201 0.127554 -6.45893e-20)
(0.349457 0.065973 0)
(0.107708 0.0207062 3.5592e-19)
(-0.00672356 0.00123047 -8.42827e-19)
(-0.0258602 -0.00359124 5.27487e-19)
(0.532548 0.108744 1.26135e-19)
(1.08067 0.22061 -5.68231e-20)
(1.29908 0.282155 -1.2657e-20)
(1.35459 0.303929 0)
(1.34405 0.317471 -8.08616e-20)
(1.29895 0.324763 9.99616e-20)
(1.23976 0.324225 -6.88287e-20)
(1.18363 0.321512 0)
(1.1276 0.314792 1.21462e-19)
(1.07388 0.302342 -1.07179e-19)
(1.02919 0.285247 2.23363e-19)
(0.999761 0.26811 0)
(0.976297 0.251706 -1.67124e-19)
(0.933637 0.230472 9.43039e-20)
(0.831979 0.194517 2.36621e-19)
(0.615278 0.138607 -2.08099e-19)
(0.321553 0.0704613 3.27639e-19)
(0.098958 0.0216151 -7.25872e-19)
(-0.014683 -0.0012916 4.58763e-19)
(-0.0304838 -0.00591579 -5.73546e-19)
(0.515764 0.133162 -3.37605e-20)
(1.07976 0.271224 2.36643e-20)
(1.30711 0.345145 -4.22851e-20)
(1.36402 0.368822 8.88741e-20)
(1.35057 0.381399 -8.65272e-20)
(1.3015 0.383726 3.09389e-20)
(1.23852 0.378216 3.87875e-21)
(1.17885 0.370823 -1.35481e-19)
(1.11892 0.35935 -1.26606e-19)
(1.06035 0.34213 -2.29176e-19)
(1.01109 0.320876 -4.79891e-19)
(0.978245 0.300004 -1.48088e-19)
(0.954558 0.280186 2.2582e-21)
(0.915856 0.256665 -3.21429e-19)
(0.805211 0.21862 -4.71561e-21)
(0.589753 0.151077 3.01927e-19)
(0.314055 0.0767887 -8.99839e-20)
(0.0988191 0.0238915 -5.24006e-20)
(-0.0148145 -0.00379292 0)
(-0.0323401 -0.00787499 1.21486e-18)
(0.501997 0.155578 0)
(1.08148 0.32515 1.55695e-21)
(1.31226 0.411632 -4.88106e-21)
(1.36663 0.434441 -1.30623e-20)
(1.35047 0.444627 8.18871e-20)
(1.29939 0.442168 -7.31287e-20)
(1.23399 0.432199 7.46427e-20)
(1.17104 0.420415 2.22698e-19)
(1.10767 0.40469 -7.03957e-20)
(1.04622 0.383087 1.13101e-19)
(0.994866 0.357385 2.57753e-19)
(0.960394 0.333651 3.22816e-19)
(0.932411 0.311313 -1.94305e-19)
(0.88392 0.283424 3.47804e-19)
(0.778655 0.236271 -2.75525e-19)
(0.570876 0.167338 0)
(0.309906 0.0858612 -6.83671e-19)
(0.105359 0.0277268 9.22311e-19)
(-0.00854824 -0.00395171 6.87799e-20)
(-0.0306251 -0.00921349 -1.28418e-18)
(0.482443 0.174031 -5.2352e-21)
(1.06599 0.369316 -3.19377e-20)
(1.30652 0.469793 3.46563e-20)
(1.36394 0.495525 -5.94003e-20)
(1.34638 0.505547 6.97585e-20)
(1.29333 0.499136 -6.97546e-20)
(1.22562 0.485097 1.46527e-19)
(1.1604 0.46918 -6.58721e-20)
(1.09424 0.448858 -2.8354e-19)
(1.02896 0.422404 -1.9092e-23)
(0.974246 0.392824 -2.79965e-19)
(0.936569 0.365471 -3.47312e-19)
(0.90704 0.338923 2.14875e-19)
(0.864952 0.309659 -1.24934e-19)
(0.75504 0.262952 2.99896e-19)
(0.554953 0.183585 0)
(0.309543 0.0986263 -4.25921e-19)
(0.114138 0.0339665 6.29074e-19)
(0.000224117 -0.00187439 1.1892e-18)
(-0.0270452 -0.00959999 -1.39884e-18)
(0.470456 0.193278 -1.19063e-19)
(1.05859 0.417663 5.44775e-20)
(1.30106 0.530189 -1.52093e-20)
(1.35731 0.556054 6.04154e-20)
(1.33788 0.564427 1.22985e-20)
(1.2838 0.554287 -1.35253e-19)
(1.21475 0.536652 -8.56326e-20)
(1.14746 0.516712 -8.54457e-20)
(1.07889 0.492631 -1.60528e-19)
(1.01171 0.462187 2.58659e-19)
(0.955061 0.428509 2.82362e-19)
(0.915549 0.397566 5.50985e-19)
(0.883826 0.370149 0)
(0.832601 0.336996 6.27697e-21)
(0.730394 0.281052 -8.24788e-19)
(0.54076 0.201838 1.94129e-19)
(0.309299 0.11127 9.25484e-19)
(0.122788 0.0416152 -2.73105e-19)
(0.0097736 0.00146665 5.66017e-19)
(-0.0226951 -0.00920675 -4.71605e-20)
(0.455838 0.208672 5.92305e-21)
(1.04028 0.456427 7.15923e-20)
(1.28924 0.582656 2.01795e-21)
(1.3478 0.61162 5.04717e-20)
(1.32748 0.62012 -1.22475e-19)
(1.27227 0.606776 1.32953e-19)
(1.20175 0.585877 8.84669e-20)
(1.13303 0.562656 2.54083e-19)
(1.06255 0.534567 3.21197e-19)
(0.992341 0.499927 -3.00288e-19)
(0.93205 0.462543 0)
(0.889552 0.428302 -2.0918e-19)
(0.857195 0.395636 2.40163e-19)
(0.81365 0.361691 3.03377e-19)
(0.708861 0.308077 -1.75733e-19)
(0.527448 0.218493 -4.25581e-19)
(0.309363 0.124995 -1.26575e-19)
(0.130633 0.0501125 -2.07288e-21)
(0.01885 0.00572149 0)
(-0.0181807 -0.00827766 0)
(0.448072 0.226145 -9.66541e-20)
(1.03029 0.499294 0)
(1.27887 0.636775 1.80192e-20)
(1.33611 0.666431 -2.04319e-20)
(1.3144 0.673466 1.42478e-19)
(1.25856 0.657146 -3.55118e-20)
(1.18726 0.633401 8.98449e-20)
(1.11723 0.606694 -1.71356e-19)
(1.04472 0.575534 2.43657e-19)
(0.972248 0.537587 -1.00196e-19)
(0.910272 0.496069 1.62331e-19)
(0.867306 0.457652 6.64845e-19)
(0.833834 0.424946 1.41895e-20)
(0.781823 0.38741 -3.17237e-19)
(0.685794 0.323966 5.8637e-19)
(0.512947 0.23693 2.98981e-21)
(0.306581 0.137679 1.35418e-19)
(0.136131 0.0588629 -6.45377e-19)
(0.0263936 0.0102445 6.64883e-19)
(-0.014047 -0.00706149 -7.83273e-19)
(0.439579 0.240953 3.33641e-23)
(1.01415 0.534045 0)
(1.26455 0.683349 0)
(1.32295 0.71635 6.12029e-21)
(1.3007 0.723514 -3.99027e-20)
(1.24418 0.704553 6.06849e-20)
(1.17191 0.678115 -1.64828e-19)
(1.1007 0.648918 0)
(1.02634 0.614656 -3.59854e-19)
(0.95162 0.573182 4.36072e-19)
(0.887355 0.528411 4.65491e-19)
(0.841158 0.486972 -2.44189e-19)
(0.806171 0.448783 -2.96336e-19)
(0.763199 0.408934 6.95251e-19)
(0.66423 0.34965 -2.08818e-19)
(0.498221 0.251886 -2.4823e-19)
(0.303034 0.150418 -1.4824e-19)
(0.139358 0.0670806 -6.98172e-19)
(0.0320893 0.0145248 1.02326e-19)
(-0.0105603 -0.00579978 8.48989e-19)
(0.433743 0.257289 -4.57838e-20)
(1.00397 0.572064 -6.23614e-20)
(1.2521 0.731254 2.39845e-20)
(1.30877 0.765391 -2.00287e-22)
(1.28553 0.771179 -4.83636e-20)
(1.22854 0.749834 9.31358e-20)
(1.15567 0.721209 0)
(1.08343 0.689148 1.04536e-19)
(1.00781 0.652432 -8.24267e-20)
(0.931765 0.608395 7.29162e-19)
(0.865142 0.559542 -1.04381e-19)
(0.818169 0.513823 1.21103e-19)
(0.783323 0.476 0)
(0.731494 0.432401 -3.76675e-19)
(0.640766 0.361809 4.56234e-19)
(0.481988 0.268241 0)
(0.296262 0.160588 -3.19045e-19)
(0.139869 0.0742324 9.39368e-19)
(0.0357477 0.0181695 1.11672e-19)
(-0.0078368 -0.00465941 -1.04745e-18)
(0.428776 0.274541 -1.12498e-19)
(0.990104 0.603453 1.41667e-19)
(1.23703 0.772083 0)
(1.294 0.809585 3.33976e-20)
(1.27042 0.815645 0)
(1.21295 0.792259 -1.25524e-19)
(1.13948 0.76142 0)
(1.0666 0.727445 0)
(0.989692 0.688457 -1.10681e-19)
(0.911211 0.641704 -6.93488e-19)
(0.841391 0.590053 -8.6179e-19)
(0.79186 0.541975 1.42291e-19)
(0.754761 0.497348 5.14588e-19)
(0.712353 0.449812 4.1545e-19)
(0.618313 0.384391 -1.4651e-18)
(0.465553 0.278673 -5.83823e-19)
(0.288565 0.170097 3.42598e-19)
(0.138702 0.0799622 0)
(0.0378104 0.0211478 9.60686e-19)
(-0.00578381 -0.0037116 -1.13035e-18)
(0.426294 0.290204 1.31813e-19)
(0.981513 0.637853 -1.62537e-19)
(1.224 0.814482 0)
(1.279 0.852975 -1.15391e-20)
(1.25465 0.857814 -7.84061e-21)
(1.19686 0.832562 0)
(1.12311 0.800083 5.13245e-20)
(1.04959 0.763865 7.36254e-20)
(0.971539 0.72301 -2.07231e-19)
(0.891354 0.674255 9.16014e-20)
(0.819301 0.619098 0)
(0.768506 0.566393 5.90626e-19)
(0.731735 0.521513 6.63586e-21)
(0.680001 0.470182 2.24377e-19)
(0.594623 0.390551 2.65631e-19)
(0.448837 0.290558 0)
(0.279558 0.176165 -5.57199e-19)
(0.135975 0.0843539 1.09438e-18)
(0.0386283 0.0232361 -1.16331e-18)
(-0.00435605 -0.0029895 2.4368e-18)
(0.424074 0.305006 0)
(0.969574 0.665922 0)
(1.20922 0.85021 -8.07498e-20)
(1.26403 0.891705 0)
(1.23941 0.896985 0)
(1.18133 0.870242 -9.83942e-20)
(1.10731 0.835994 5.24765e-20)
(1.03335 0.798315 1.798e-20)
(0.953937 0.755859 -4.70315e-20)
(0.871222 0.705185 0)
(0.795921 0.647995 -1.32169e-19)
(0.74191 0.593361 -4.81828e-19)
(0.701519 0.54019 -5.8105e-19)
(0.66 0.482237 -2.33824e-19)
(0.571832 0.408469 2.87782e-19)
(0.431559 0.295067 -6.77458e-19)
(0.270473 0.181474 1.19608e-18)
(0.1324 0.0867558 1.42952e-21)
(0.0387015 0.0255158 -1.11211e-18)
(-0.00306459 -0.001723 -1.64416e-19)
(0.422725 0.318824 0)
(0.961832 0.696842 -1.30423e-19)
(1.1966 0.887625 9.7318e-20)
(1.24931 0.929875 0)
(1.22403 0.934058 0)
(1.16576 0.905834 1.94567e-19)
(1.09161 0.870395 0)
(1.01703 0.831045 0)
(0.936489 0.787214 -4.56457e-19)
(0.852245 0.73517 1.28297e-19)
(0.774571 0.675126 -1.17326e-18)
(0.718023 0.616013 0)
(0.677809 0.561973 -6.34257e-19)
(0.625821 0.499194 9.57115e-21)
(0.547133 0.406769 -9.28517e-19)
(0.415599 0.299512 3.64091e-19)
(0.263361 0.180213 1.17641e-21)
(0.131652 0.0858934 -1.25835e-18)
(0.0394567 0.0230319 5.9716e-19)
(-0.00496806 -0.00466844 1.75903e-19)
(0.421112 0.332393 0)
(0.951302 0.722112 -1.74519e-19)
(1.18278 0.918715 1.02104e-19)
(1.23494 0.963616 1.47369e-19)
(1.20942 0.968362 -3.21406e-21)
(1.15092 0.93909 1.91323e-20)
(1.07661 0.902288 -2.87488e-20)
(1.00168 0.861827 4.28199e-19)
(0.91996 0.816948 4.8828e-19)
(0.833268 0.763752 9.76315e-19)
(0.7519 0.702729 9.74821e-19)
(0.691224 0.642115 1.71999e-19)
(0.645376 0.578904 9.11847e-19)
(0.603424 0.506038 5.63698e-19)
(0.522142 0.418373 6.66051e-19)
(0.399578 0.293682 -3.98146e-19)
(0.258199 0.174234 -4.54803e-19)
(0.138293 0.08648 5.42912e-19)
(0.0506904 0.0354436 -3.21125e-19)
(0.00433678 0.00696008 5.70791e-19)
(0.419989 0.345446 2.42407e-19)
(0.944506 0.750203 2.73724e-19)
(1.17109 0.9518 5.80205e-20)
(1.22102 0.997142 1.52555e-20)
(1.19489 1.00082 -2.43018e-20)
(1.13627 0.970326 -5.33976e-20)
(1.06192 0.932684 2.73132e-20)
(0.986508 0.89109 -1.85044e-20)
(0.903816 0.845296 -5.70244e-19)
(0.815697 0.791339 -1.06022e-18)
(0.731871 0.728399 6.77103e-20)
(0.667273 0.66354 0)
(0.620473 0.599612 0)
(0.56503 0.521301 -2.94651e-19)
(0.492416 0.40685 -1.09436e-18)
(0.38157 0.28505 8.57824e-19)
(0.260353 0.157416 5.00567e-19)
(0.154703 0.0621118 0)
(0.0697304 0.0020081 1.02797e-18)
(-0.00235151 -0.0215503 -6.07831e-19)
(0.418584 0.358183 -1.28703e-19)
(0.935326 0.772921 1.13173e-19)
(1.15836 0.978859 -1.38091e-19)
(1.20758 1.02646 -1.18213e-19)
(1.18121 1.03074 -2.43164e-20)
(1.12242 0.99953 -1.69696e-20)
(1.04804 0.96089 0)
(0.972458 0.91851 -5.39262e-19)
(0.888812 0.872097 6.83589e-20)
(0.798358 0.817605 0)
(0.710608 0.75485 0)
(0.640906 0.689752 1.1068e-19)
(0.585433 0.616448 1.48587e-19)
(0.537807 0.524771 -3.19204e-19)
(0.46057 0.41445 7.85052e-19)
(0.357098 0.263258 -9.3552e-19)
(0.249503 0.131555 -1.07662e-18)
(0.183363 0.0551262 9.54322e-19)
(0.145391 0.0613403 -3.65226e-19)
(0.107879 0.0724331 2.12466e-19)
(0.417607 0.370081 1.58559e-19)
(0.929386 0.798256 0)
(1.14761 1.00821 0)
(1.19464 1.05592 -3.34646e-20)
(1.16775 1.0591 2.70894e-20)
(1.10893 1.02682 -1.93948e-20)
(1.03465 0.987609 1.27585e-19)
(0.958767 0.944569 5.51904e-19)
(0.874272 0.897642 1.03646e-18)
(0.782465 0.842868 -8.05396e-20)
(0.69233 0.77929 1.67184e-19)
(0.617813 0.710844 -9.93758e-19)
(0.55995 0.637936 -9.93718e-19)
(0.492936 0.542343 -1.72024e-19)
(0.415366 0.395245 0)
(0.325095 0.248526 -3.56899e-21)
(0.236025 0.0555028 5.95388e-19)
(0.235898 -0.0515465 -9.97997e-19)
(0.204558 -0.118628 7.58011e-19)
(0.0887969 -0.102347 6.27095e-19)
(0.416166 0.381755 -3.49131e-19)
(0.921081 0.818357 -1.56532e-19)
(1.13576 1.03176 6.84882e-21)
(1.1821 1.08151 6.39896e-20)
(1.15503 1.08541 0)
(1.09608 1.05276 -3.78598e-20)
(1.02184 1.01294 -1.86275e-19)
(0.945845 0.96946 -2.21035e-21)
(0.860502 0.922356 -5.43101e-19)
(0.76645 0.867612 -7.92103e-20)
(0.672361 0.805389 7.35755e-20)
(0.592147 0.738978 8.73343e-19)
(0.521447 0.657883 9.68969e-19)
(0.458546 0.545606 1.68401e-19)
(0.373802 0.409966 8.56583e-19)
(0.265807 0.211346 0)
(0.140449 0.0308914 0)
(-0.0177621 0.163541 6.79404e-19)
(-0.0785686 0.628875 -2.62123e-20)
(0.0105723 1.54803 -8.46495e-19)
(0.415269 0.392639 1.9225e-19)
(0.915781 0.841332 4.43423e-19)
(1.12577 1.05824 -6.16e-19)
(1.16998 1.108 3.16342e-19)
(1.14236 1.11095 -1.26291e-20)
(1.08337 1.07755 1.27812e-20)
(1.00923 1.03757 0)
(0.932922 0.994077 -4.59614e-19)
(0.846705 0.947141 0)
(0.751329 0.892942 1.11263e-18)
(0.654657 0.831183 -9.06241e-20)
(0.568805 0.762787 1.0162e-19)
(0.495259 0.685237 1.12088e-18)
(0.403011 0.577166 -3.65876e-19)
(0.285812 0.390333 -4.34232e-19)
(0.176936 0.25823 0)
(0.0703652 0.443279 0)
(0.0235992 1.37227 0)
(0.0708962 2.47755 -3.85259e-19)
(0.0962377 2.91762 -2.38411e-19)
(0.413586 0.403081 0)
(0.908093 0.859 0)
(1.11467 1.07884 2.23915e-19)
(1.15828 1.13068 -2.578e-19)
(1.13048 1.13466 1.22306e-19)
(1.07134 1.10135 -2.87799e-21)
(0.997202 1.06128 2.47335e-20)
(0.920748 1.01783 -1.92566e-20)
(0.833797 0.971376 7.75794e-20)
(0.736296 0.918114 -1.27706e-18)
(0.635489 0.858953 1.63988e-19)
(0.543872 0.795851 8.82832e-19)
(0.45261 0.713638 -1.11608e-18)
(0.363355 0.582351 -1.23518e-18)
(0.260957 0.445583 4.14236e-19)
(0.175999 0.600782 0)
(0.110045 1.60059 5.58555e-19)
(0.115893 2.70428 5.98388e-19)
(0.123248 3.09157 -6.68199e-19)
(0.11621 3.22392 7.0893e-19)
(0.412491 0.413261 0)
(0.903355 0.879697 3.85636e-19)
(1.1055 1.10277 -5.60639e-20)
(1.14707 1.15456 3.53644e-19)
(1.11872 1.15773 -1.28381e-19)
(1.05954 1.12392 0)
(0.985504 1.08401 0)
(0.908795 1.04108 0)
(0.821107 0.995474 4.33174e-19)
(0.722574 0.943655 5.86098e-20)
(0.619504 0.886313 0)
(0.522162 0.822398 -8.77171e-19)
(0.433057 0.746544 0)
(0.305663 0.625855 8.83454e-19)
(0.196554 0.671975 -6.00717e-19)
(0.140664 1.46947 -4.79771e-19)
(0.145995 2.69055 -1.09486e-18)
(0.169917 3.12587 -5.74185e-19)
(0.160565 3.26454 -7.67589e-19)
(0.147996 3.3047 5.48797e-19)
(0.410765 0.422411 -1.33865e-19)
(0.896155 0.894937 1.45433e-20)
(1.09515 1.12058 -6.20078e-20)
(1.13632 1.17453 -2.74572e-19)
(1.10777 1.17903 0)
(1.04846 1.1457 0)
(0.974392 1.1061 0)
(0.897572 1.06359 3.27176e-20)
(0.809383 1.019 -5.48032e-19)
(0.709041 0.968939 0)
(0.602172 0.915142 0)
(0.501281 0.859062 0)
(0.387457 0.776224 0)
(0.308557 0.718964 6.51768e-19)
(0.262265 1.12928 1.59387e-18)
(0.234291 2.40758 4.65493e-19)
(0.252901 3.08085 9.27942e-19)
(0.247395 3.27687 -7.10396e-19)
(0.199597 3.34211 2.58584e-19)
(0.168276 3.3555 0)
(0.409542 0.431435 1.37377e-19)
(0.891814 0.914101 -8.51641e-19)
(1.08658 1.14294 -2.30149e-19)
(1.1258 1.19674 -5.12394e-20)
(1.09669 1.20047 2.97221e-20)
(1.03735 1.16676 -1.22974e-19)
(0.963448 1.12752 3.62867e-23)
(0.886525 1.08596 -3.55975e-19)
(0.797815 1.04274 0)
(0.696909 0.994887 -7.56756e-20)
(0.588906 0.944157 6.88444e-20)
(0.483116 0.886911 0)
(0.384802 0.819062 0)
(0.320249 0.914335 -8.17059e-19)
(0.262928 1.85124 1.04017e-19)
(0.259766 2.94542 -3.50789e-19)
(0.285669 3.27943 7.33554e-19)
(0.256654 3.37759 5.22043e-19)
(0.1928 3.40231 -7.04051e-19)
(0.168577 3.41274 3.46412e-19)
(0.407379 0.440718 2.68589e-19)
(0.883994 0.928568 8.27334e-19)
(1.07574 1.15993 2.7714e-19)
(1.11484 1.21617 0)
(1.08565 1.22153 0)
(1.02626 1.18851 9.51834e-20)
(0.952433 1.14977 4.89253e-20)
(0.87557 1.1087 3.16751e-19)
(0.78673 1.06669 2.11371e-20)
(0.684561 1.02109 9.62968e-19)
(0.573763 0.974276 -1.15305e-18)
(0.460924 0.921215 0)
(0.379993 0.895475 0)
(0.332469 1.29626 -5.58593e-19)
(0.325713 2.49891 -6.69142e-19)
(0.371697 3.19231 0)
(0.397125 3.35912 -7.41256e-19)
(0.326078 3.42222 5.16908e-20)
(0.258336 3.46823 3.3757e-19)
(0.236422 3.49381 -1.08975e-19)
(0.40553 0.450319 -5.10085e-19)
(0.879081 0.949786 -3.96576e-19)
(1.06613 1.18471 0)
(1.1031 1.24029 0)
(1.07339 1.24443 0)
(1.01416 1.2107 0)
(0.940764 1.17209 -5.97959e-20)
(0.864168 1.13203 2.75556e-19)
(0.775193 1.09154 0)
(0.673283 1.04847 -8.76274e-19)
(0.563237 1.00522 2.07082e-18)
(0.452764 0.960396 8.51235e-20)
(0.397323 1.0206 1.15253e-19)
(0.383651 1.73726 9.10132e-19)
(0.393757 2.90145 -4.89439e-19)
(0.434818 3.31056 0)
(0.417639 3.43143 2.08832e-19)
(0.33173 3.52093 9.09266e-20)
(0.258758 3.58561 1.48582e-19)
(0.183199 3.56504 -1.69615e-20)
(0.402469 0.460467 2.42227e-19)
(0.869249 0.965119 -4.02433e-19)
(1.0532 1.2026 0)
(1.09044 1.26094 -7.49116e-20)
(1.06082 1.26701 2.59079e-19)
(1.00174 1.23402 0)
(0.928684 1.19588 0)
(0.852441 1.15608 -4.77811e-19)
(0.763882 1.11663 -5.57577e-20)
(0.661613 1.07586 8.61039e-19)
(0.547606 1.0358 -9.83921e-19)
(0.45201 1.01047 5.81472e-19)
(0.411119 1.20709 0)
(0.419059 2.18494 -4.8299e-19)
(0.460747 3.14061 3.16359e-19)