/*--------------------------------*- C++ -*----------------------------------*\
| =========                 |                                                 |
| \\      /  F ield         | OpenFOAM: The Open Source CFD Toolbox           |
|  \\    /   O peration     | Version:  4.0                                   |
|   \\  /    A nd           | Web:      www.OpenFOAM.org                      |
|    \\/     M anipulation  |                                                 |
\*---------------------------------------------------------------------------*/
FoamFile
{
    version     2.0;
    format      ascii;
    class       surfaceScalarField;
    location    "17";
    object      phi;
}
// * * * * * * * * * * * * * * * * * * * * * * * * * * * * * * * * * * * * * //

dimensions      [0 3 -1 0 0 0 0];

internalField   nonuniform List<scalar> 
4262
(
0.107051
0.470937
0.0955127
0.705124
0.0691877
0.858628
0.0470731
1.02088
0.0307548
1.21483
0.0195956
1.44938
0.0120343
1.73342
0.00674214
2.07633
0.00300041
2.48899
-0.000137588
2.98543
-0.00336673
2.98552
-0.00718545
2.48906
-0.0124847
2.07634
-0.0199664
1.73335
-0.0310317
1.44928
-0.0472834
1.21477
-0.0693371
1.02082
-0.0955978
0.858564
-0.1071
0.705089
0.470888
0.112547
0.35839
0.13469
0.682981
0.11962
0.873698
0.0966479
1.04385
0.0728952
1.23859
0.0512708
1.471
0.0336942
1.751
0.0203264
2.0897
0.00937755
2.49993
-0.000788121
2.9956
-0.0108953
2.99563
-0.0216162
2.49978
-0.0347102
2.08943
-0.0520905
1.75073
-0.0735893
1.47078
-0.0972131
1.23839
-0.120066
1.04367
-0.135037
0.873535
-0.112734
0.682785
0.358154
0.0917286
0.266662
0.124271
0.650438
0.1205
0.877469
0.10464
1.05971
0.0861852
1.25704
0.0668918
1.4903
0.0478233
1.77007
0.030082
2.10744
0.0141745
2.51584
-0.00122145
3.01099
-0.0164933
3.0109
-0.0320485
2.51534
-0.049565
2.10695
-0.0684304
1.76959
-0.0874904
1.48984
-0.105762
1.25666
-0.121446
1.05935
-0.124963
0.877052
-0.0920544
0.649877
0.2661
0.0629523
0.20371
0.103001
0.610389
0.104686
0.875785
0.0937414
1.07066
0.0803305
1.27045
0.0661659
1.50446
0.0500413
1.78619
0.0329097
2.12457
0.0156852
2.53307
-0.00183158
3.02851
-0.0192122
3.02828
-0.0361573
2.53228
-0.0528793
2.12367
-0.0686319
1.78534
-0.0824122
1.50362
-0.0954065
1.26966
-0.105949
1.0699
-0.103854
0.874957
-0.0633162
0.609339
0.202783
0.0356741
0.168035
0.0764475
0.569616
0.0855896
0.866643
0.0784033
1.07784
0.0670011
1.28186
0.0559379
1.51552
0.0442992
1.79783
0.0308274
2.13804
0.0152587
2.54863
-0.00244408
3.04621
-0.0199439
3.04578
-0.0351344
2.54747
-0.0480927
2.13663
-0.0590998
1.79635
-0.0695298
1.51405
-0.0804567
1.28058
-0.0871667
1.07661
-0.077492
0.865283
-0.0360534
0.567901
0.16673
0.0179086
0.150127
0.053256
0.534268
0.066627
0.853271
0.0636145
1.08085
0.0548619
1.29061
0.0450167
1.52537
0.0350159
1.80783
0.024212
2.14884
0.0118674
2.56098
-0.0031145
3.06119
-0.0177461
3.06041
-0.0294407
2.55917
-0.0393827
2.14657
-0.048747
1.80571
-0.0581253
1.52343
-0.0663861
1.28885
-0.0688486
1.07907
-0.0546695
0.851103
-0.0183676
0.531599
0.148362
0.00873046
0.141396
0.0371734
0.505825
0.0520073
0.838438
0.0519279
1.08093
0.0455962
1.29694
0.0368907
1.53408
0.0277467
1.81698
0.0181821
2.15841
0.00792261
2.57124
-0.00411817
3.07323
-0.0157904
3.07208
-0.0253594
2.56874
-0.0341417
2.15535
-0.0423343
1.81391
-0.0501391
1.53124
-0.0555806
1.29429
-0.0547593
1.07825
-0.0388068
0.835151
-0.00929015
0.502082
0.139072
0.00327352
0.138123
0.0223808
0.486718
0.0358698
0.824948
0.0381939
1.07861
0.035068
1.30007
0.029363
1.53978
0.0224918
1.82385
0.0145592
2.16634
0.00541959
2.58038
-0.00524306
3.0839
-0.015518
3.08236
-0.0238053
2.57703
-0.0305112
2.16206
-0.0358696
1.81927
-0.0404589
1.53583
-0.0424207
1.29625
-0.0388806
1.07471
-0.024085
0.820355
-0.00387613
0.481873
0.135196
-0.000177697
0.138301
0.00920389
0.477336
0.0191454
0.815007
0.0228442
1.07491
0.0228087
1.3001
0.020634
1.54195
0.0169828
1.8275
0.0111078
2.17222
0.0031035
2.58838
-0.00662168
3.09362
-0.0157395
3.09148
-0.0222954
2.58358
-0.026565
2.16633
-0.0288102
1.82151
-0.0294033
1.53642
-0.0279494
1.29479
-0.0228133
1.06957
-0.0114285
0.808971
-0.000608238
0.471053
0.134588
-0.00121308
0.139514
0.00237327
0.47375
0.00880954
0.808571
0.0127191
1.071
0.0143352
1.29848
0.0139138
1.54238
0.0117043
1.82971
0.00736705
2.17655
0.000657257
2.59509
-0.00794886
3.10223
-0.015886
3.09941
-0.0209401
2.58863
-0.0235808
2.16897
-0.0242213
1.82215
-0.022511
1.53471
-0.0191123
1.2914
-0.0134345
1.06389
-0.00509705
0.800633
0.000204832
0.465751
0.134793
-0.00073242
0.140246
0.000500453
0.472517
0.0047817
0.804289
0.00850249
1.06728
0.0106448
1.29634
0.0107649
1.54226
0.00844522
1.83203
0.00411813
2.18088
-0.00227307
2.60148
-0.0102136
3.11017
-0.0173535
3.10655
-0.0218889
2.59317
-0.0241165
2.17119
-0.0236224
1.82166
-0.0212994
1.53239
-0.0169262
1.28702
-0.0109268
1.05789
-0.00410633
0.793813
-0.00047435
0.462119
0.134318
-0.000595565
0.140842
-0.000482015
0.472404
0.00290175
0.800906
0.00667655
1.06351
0.00923136
1.29379
0.00943658
1.54205
0.00695756
1.83451
0.00196689
2.18587
-0.00512592
2.60858
-0.0133712
3.11841
-0.0204934
3.11368
-0.0249557
2.59763
-0.0259995
2.17224
-0.0249219
1.82058
-0.0219711
1.52944
-0.0165935
1.28164
-0.0100692
1.05137
-0.00402396
0.787768
-0.000939204
0.459034
0.133379
-0.00111736
0.141959
-0.00193325
0.47322
-9.22577e-05
0.799065
0.00335941
1.06005
0.00618459
1.29096
0.00652546
1.54171
0.00411431
1.83692
-0.00091956
2.19091
-0.00811988
2.61578
-0.0164261
3.12672
-0.0233777
3.12063
-0.0273317
2.60159
-0.0281373
2.17304
-0.0268973
1.81934
-0.0224864
1.52502
-0.0159974
1.27516
-0.00894125
1.04431
-0.00345987
0.782286
-0.000900745
0.456475
0.132478
-0.00154633
0.143505
-0.00353381
0.475207
-0.00323012
0.798761
-0.000343611
1.05717
0.00190608
1.28871
0.00197445
1.54164
-0.000752075
1.83965
-0.00586756
2.19602
-0.0128436
2.62275
-0.0206389
3.13452
-0.0266676
3.12666
-0.0295511
2.60447
-0.0296995
2.17319
-0.0272009
1.81684
-0.0219792
1.5198
-0.0151537
1.26833
-0.00822923
1.03739
-0.00328928
0.777346
-0.000907992
0.454094
0.13157
-0.00186056
0.145366
-0.0047121
0.478059
-0.00563588
0.799685
-0.00477592
1.05631
-0.003723
1.28766
-0.00426315
1.54218
-0.00712662
1.84251
-0.0121056
2.201
-0.01866
2.62931
-0.025711
3.14157
-0.0305401
3.13149
-0.0321631
2.60609
-0.0311348
2.17216
-0.0277326
1.81344
-0.0223719
1.51444
-0.0157878
1.26175
-0.00922498
1.03083
-0.00433775
0.772459
-0.00140425
0.45116
0.130166
-0.00203659
0.147402
-0.00553363
0.481556
-0.00743755
0.801589
-0.00787018
1.05674
-0.00841289
1.2882
-0.0104627
1.54423
-0.0144142
1.84646
-0.0199457
2.20653
-0.0264382
2.6358
-0.0326859
3.14781
-0.0360776
3.13488
-0.0359974
2.60601
-0.0335269
2.16969
-0.0288548
1.80877
-0.0228823
1.50847
-0.0162994
1.25516
-0.0101131
1.02464
-0.00529454
0.76764
-0.00182208
0.447688
0.128344
-0.00273254
0.150135
-0.00743248
0.486256
-0.0109836
0.80514
-0.0130607
1.05882
-0.0151802
1.29032
-0.0183155
1.54737
-0.0228596
1.85101
-0.0287424
2.21241
-0.0351507
2.64221
-0.0405773
3.15324
-0.0424686
3.13677
-0.0406525
2.6042
-0.0367762
2.16582
-0.0312794
1.80327
-0.0250108
1.5022
-0.0184844
1.24864
-0.0122338
1.01839
-0.00675205
0.762159
-0.00233082
0.443267
0.126013
-0.00332973
0.153465
-0.00902798
0.491954
-0.013995
0.810107
-0.0179184
1.06274
-0.022174
1.29458
-0.0273645
1.55256
-0.0335196
1.85716
-0.0402195
2.21911
-0.0466285
2.64862
-0.0510254
3.15764
-0.051047
3.13679
-0.0473268
2.60048
-0.0415166
2.16001
-0.0345454
1.7963
-0.0271963
1.49485
-0.0200474
1.24149
-0.013514
1.01186
-0.00770409
0.756349
-0.00270617
0.438269
0.123307
-0.00463374
0.158098
-0.0125804
0.4999
-0.0197094
0.817236
-0.0254619
1.06849
-0.0311422
1.30026
-0.0377479
1.55916
-0.0452539
1.86467
-0.0531211
2.22698
-0.060016
2.65551
-0.0636648
3.16129
-0.0618228
3.13495
-0.0560666
2.59472
-0.0483926
2.15233
-0.0401652
1.78807
-0.0320949
1.48678
-0.0245137
1.23391
-0.0172345
1.00458
-0.00998448
0.749099
-0.00344589
0.43173
0.119861
-0.00564432
0.163743
-0.0151077
0.509364
-0.0239387
0.826067
-0.032099
1.07665
-0.040814
1.30897
-0.050272
1.56862
-0.0601668
1.87456
-0.0696865
2.2365
-0.077181
2.66301
-0.0800424
3.16415
-0.0761208
3.13103
-0.0680861
2.58669
-0.0582408
2.14249
-0.0479893
1.77782
-0.0380653
1.47686
-0.0287747
1.22462
-0.0201024
0.995905
-0.0117292
0.740726
-0.00411679
0.424118
0.115744
-0.00801366
0.171756
-0.0212972
0.522647
-0.0332194
0.837989
-0.0435292
1.08696
-0.0540501
1.31949
-0.0657133
1.58028
-0.0779427
1.88679
-0.0892601
2.24782
-0.097519
2.67127
-0.099525
3.16615
-0.0933413
3.12484
-0.0825829
2.57593
-0.0700883
2.12999
-0.0576063
1.76534
-0.0461225
1.46537
-0.0357955
1.21429
-0.0257591
0.985868
-0.0151396
0.730106
-0.00520075
0.414179
0.110544
-0.00977971
0.181536
-0.0256006
0.538468
-0.0407383
0.853127
-0.0549485
1.10117
-0.0700602
1.33461
-0.0857042
1.59593
-0.101165
1.90225
-0.114797
2.26145
-0.123891
2.68036
-0.124782
3.16705
-0.11595
3.11601
-0.102188
2.56217
-0.0867864
2.11459
-0.0715104
1.75006
-0.0569994
1.45086
-0.0434094
1.2007
-0.0304736
0.972932
-0.0177094
0.717342
-0.00609955
0.402569
0.104444
-0.014928
0.196464
-0.0375433
0.561084
-0.057124
0.872707
-0.074517
1.11857
-0.0927706
1.35286
-0.112069
1.61523
-0.13083
1.92101
-0.146382
2.277
-0.155528
2.68951
-0.154491
3.16601
-0.142141
3.10366
-0.124458
2.54448
-0.105181
2.09531
-0.0863978
1.73128
-0.0693639
1.43383
-0.0540719
1.18541
-0.0390763
0.957937
-0.0229055
0.701171
-0.00770276
0.387366
0.0967413
-0.0187965
0.215261
-0.0475926
0.58988
-0.0743684
0.899483
-0.0982781
1.14248
-0.123431
1.37801
-0.147862
1.63966
-0.169799
1.94295
-0.186697
2.2939
-0.19524
2.69805
-0.191315
3.16208
-0.174714
3.08706
-0.152861
2.52263
-0.129889
2.07234
-0.107681
1.70907
-0.0866794
1.41283
-0.0667589
1.16549
-0.047013
0.938191
-0.0269296
0.681088
-0.00874288
0.369179
0.0879984
-0.0334757
0.248736
-0.0736202
0.630024
-0.107171
0.933034
-0.137662
1.17297
-0.168194
1.40854
-0.196331
1.66779
-0.220236
1.96685
-0.237012
2.31068
-0.243182
2.70422
-0.234741
3.15364
-0.212747
3.06507
-0.185745
2.49563
-0.15773
2.04433
-0.130777
1.68212
-0.105947
1.388
-0.082853
1.14239
-0.0597433
0.915081
-0.0350579
0.656402
-0.0110526
0.345174
0.0769458
-0.0463308
0.295067
-0.109376
0.693069
-0.157436
0.981095
-0.196394
1.21193
-0.231988
1.44414
-0.262142
1.69795
-0.285746
1.99046
-0.299698
2.32463
-0.300781
2.7053
-0.285614
3.13848
-0.256823
3.03628
-0.224325
2.46313
-0.191927
2.01193
-0.161206
1.6514
-0.132647
1.35944
-0.10543
1.11517
-0.0763935
0.886045
-0.04193
0.621939
-0.0119076
0.315152
0.0650382
-0.0300218
0.325089
-0.0819939
0.745041
-0.129059
1.02816
-0.172814
1.25568
-0.213762
1.48509
-0.252879
1.73707
-0.287981
2.02556
-0.316305
2.35295
-0.333932
2.72293
-0.334152
3.1387
-0.313583
3.01571
-0.280729
2.43027
-0.241309
1.97251
-0.199058
1.60914
-0.155854
1.31624
-0.11263
1.07195
-0.0695272
0.842942
-0.0310822
0.583494
-0.00653572
0.290605
0.0585025
-0.00553727
0.330626
-0.0317101
0.771214
-0.0669206
1.06337
-0.10438
1.29314
-0.141697
1.5224
-0.177101
1.77247
-0.208691
2.05715
-0.233994
2.37826
-0.248647
2.73758
-0.246086
3.13614
-0.223434
2.99305
-0.189341
2.39618
-0.150312
1.93348
-0.110397
1.56923
-0.0721547
1.27799
-0.0371073
1.0369
-0.00849394
0.814328
0.00773903
0.567261
0.00682614
0.291518
0.0653286
0.00409875
0.326527
-0.0117992
0.787112
-0.0376349
1.08921
-0.067424
1.32293
-0.097967
1.55294
-0.128105
1.80261
-0.155893
2.08494
-0.178115
2.40048
-0.190391
2.74986
-0.186481
3.13223
-0.165033
2.97161
-0.135282
2.36643
-0.102458
1.90066
-0.0697622
1.53653
-0.0395736
1.2478
-0.0133685
1.0107
0.00599755
0.794962
0.0131221
0.560136
0.00758769
0.297053
0.0729163
0.00529221
0.321235
-0.00413557
0.79654
-0.0239538
1.10902
-0.0481448
1.34712
-0.0726063
1.57741
-0.0979727
1.82797
-0.121913
2.10888
-0.141227
2.41979
-0.151859
2.76049
-0.148669
3.12904
-0.130448
2.95339
-0.104873
2.34086
-0.0779468
1.87373
-0.0520481
1.51064
-0.0280371
1.22379
-0.00731733
0.989978
0.00715424
0.780491
0.0112282
0.556062
0.00544234
0.302838
0.0783586
0.00713955
0.314096
0.000462834
0.803217
-0.0170904
1.12658
-0.0372107
1.36724
-0.0581476
1.59834
-0.0800598
1.84989
-0.100927
2.12975
-0.118228
2.43709
-0.128342
2.7706
-0.126589
3.12728
-0.111407
2.9382
-0.0905204
2.31997
-0.0678468
1.85106
-0.0456968
1.48849
-0.0253975
1.20349
-0.00876976
0.973351
0.00267944
0.769042
0.00544687
0.553295
0.00245653
0.305829
0.0808152
0.00649174
0.307604
0.00192512
0.807783
-0.0132406
1.14174
-0.0314755
1.38548
-0.050406
1.61727
-0.0698707
1.86935
-0.0886205
2.1485
-0.104567
2.45304
-0.114182
2.78022
-0.11292
3.12602
-0.0996515
2.92493
-0.0810655
2.30138
-0.0614547
1.83145
-0.0427086
1.46974
-0.0261343
1.18692
-0.0127093
0.959926
-0.00375388
0.760086
0.000372232
0.549169
0.00027262
0.305928
0.0810878
0.00461916
0.302985
0.0017502
0.810652
-0.011557
1.15505
-0.028479
1.4024
-0.0463329
1.63513
-0.0643643
1.88738
-0.0817565
2.16589
-0.0967533
2.46804
-0.106342
2.7898
-0.106863
3.12654
-0.0957115
2.91378
-0.0785674
2.28424
-0.0603663
1.81324
-0.0440647
1.45344
-0.0294409
1.1723
-0.0173768
0.947862
-0.00937292
0.752082
-0.00472091
0.544517
-0.00127221
0.30248
0.0798156
0.00262794
0.300357
0.000386503
0.812894
-0.01153
1.16697
-0.0271613
1.41803
-0.0441113
1.65208
-0.0613337
1.9046
-0.0780509
2.1826
-0.092773
2.48276
-0.103079
2.80011
-0.10432
3.12778
-0.0942405
2.9037
-0.0795673
2.26957
-0.063385
1.79706
-0.0472252
1.43728
-0.0336514
1.15872
-0.0226245
0.936835
-0.0133648
0.742823
-0.00682415
0.537976
-0.00208971
0.297745
0.0777259
0.000286601
0.30007
-0.0023585
0.815539
-0.0129245
1.17753
-0.0270768
1.43218
-0.0430106
1.66801
-0.0596898
1.92128
-0.076215
2.19913
-0.0911487
2.49769
-0.102198
2.81116
-0.105174
3.13076
-0.0972383
2.89577
-0.0824282
2.25476
-0.066256
1.78089
-0.0515179
1.42254
-0.0381211
1.14533
-0.0261055
0.924819
-0.0167914
0.733508
-0.00892557
0.53011
-0.00270226
0.291522
0.0750236
-0.000673964
0.300744
-0.00528507
0.82015
-0.0147437
1.18699
-0.0276722
1.44511
-0.0425802
1.68292
-0.0587361
1.93744
-0.0752885
2.21568
-0.0907349
2.51314
-0.102927
2.82335
-0.107795
3.13563
-0.100921
2.88889
-0.0875012
2.24134
-0.0719676
1.76536
-0.0560295
1.4066
-0.0415801
1.13088
-0.0293328
0.912572
-0.0188537
0.723029
-0.0101527
0.521409
-0.00326502
0.284634
0.0717586
-0.00277781
0.303522
-0.00776071
0.825133
-0.0168115
1.19604
-0.0287369
1.45703
-0.0427419
1.69692
-0.0583726
1.95307
-0.0749342
2.23224
-0.0910943
2.5293
-0.104939
2.8372
-0.112192
3.14288
-0.107966
2.88467
-0.0951227
2.22849
-0.0782812
1.74852
-0.0623638
1.39068
-0.0480994
1.11661
-0.0356302
0.900102
-0.0237818
0.711181
-0.0123606
0.509988
-0.00391928
0.276193
0.0678393
-0.00401212
0.307534
-0.009227
0.830348
-0.0181544
1.20497
-0.0296633
1.46854
-0.043111
1.71037
-0.0583013
1.96826
-0.0748572
2.2488
-0.0916894
2.54613
-0.10681
2.85232
-0.115792
3.15186
-0.113678
2.88255
-0.102388
2.2172
-0.0865905
1.73272
-0.0681571
1.37225
-0.0519179
1.10037
-0.0366596
0.884844
-0.0239157
0.698437
-0.013575
0.499647
-0.00445218
0.26707
0.0633871
-0.00433562
0.31187
-0.0101839
0.836196
-0.0189578
1.21374
-0.0302357
1.47982
-0.0433998
1.72354
-0.0583116
1.98317
-0.0748041
2.26529
-0.0921296
2.56346
-0.108655
2.86884
-0.12103
3.16424
-0.122252
2.88377
-0.112073
2.20703
-0.0945874
1.71523
-0.0773957
1.35506
-0.0595739
1.08255
-0.0450476
0.870318
-0.0313221
0.684712
-0.0161135
0.484439
-0.00507951
0.256036
0.0583076
-0.00428012
0.31615
-0.0105986
0.842515
-0.0193517
1.2225
-0.0303807
1.49085
-0.0433206
1.73648
-0.0580181
1.99787
-0.074485
2.28176
-0.0923458
2.58132
-0.110201
2.8867
-0.124584
3.17862
-0.127434
2.88662
-0.118919
2.19851
-0.104343
1.70066
-0.0837129
1.33443
-0.0636526
1.06249
-0.0451709
0.851836
-0.0288874
0.668428
-0.0161405
0.471692
-0.00511369
0.245009
0.0531939
-0.00425456
0.320404
-0.010869
0.849129
-0.0194321
1.23106
-0.0301172
1.50154
-0.0428148
1.74917
-0.0573529
2.01241
-0.0738664
2.29827
-0.0922068
2.59966
-0.111273
2.90576
-0.128272
3.19562
-0.135728
2.89408
-0.129594
2.19238
-0.112715
1.68378
-0.0924977
1.31421
-0.0718809
1.04187
-0.0537991
0.833754
-0.0369142
0.651543
-0.0188933
0.453671
-0.00524091
0.231357
0.047953
-0.00425801
0.324662
-0.0109205
0.855791
-0.0192711
1.23941
-0.0296045
1.51187
-0.0419595
1.76153
-0.0562831
2.02673
-0.0727973
2.31479
-0.0914784
2.61834
-0.111471
2.92576
-0.130484
3.21463
-0.140701
2.9043
-0.138599
2.19028
-0.127132
1.67231
-0.105905
1.29298
-0.0798298
1.0158
-0.0516664
0.805591
-0.0304713
0.630348
-0.0157054
0.438905
-0.00394011
0.219592
0.0440129
-0.0042458
0.328908
-0.0108497
0.862395
-0.0188883
1.24745
-0.0288592
1.52184
-0.0408438
1.77351
-0.0548976
2.04079
-0.0713301
2.33122
-0.0903137
2.63732
-0.11143
2.94687
-0.133274
3.23648
-0.148178
2.9192
-0.149076
2.19117
-0.135322
1.65856
-0.114235
1.2719
-0.0868962
0.98846
-0.0609258
0.77962
-0.0359078
0.60533
-0.0145631
0.41756
-0.00301607
0.208045
0.0409968
-0.00412439
0.333033
-0.0105648
0.868836
-0.0183439
1.25523
-0.0279525
1.53145
-0.0395204
1.78508
-0.0532207
2.05449
-0.0694733
2.34747
-0.0886073
2.65646
-0.110394
2.96866
-0.133473
3.25955
-0.149853
2.93558
-0.154145
2.19547
-0.149293
1.6537
-0.129887
1.25249
-0.100257
0.958829
-0.0595
0.738864
-0.0183856
0.564216
0.00904766
0.390127
0.0168305
0.200262
0.0578273
-0.00391708
0.33695
-0.0102019
0.875121
-0.0176806
1.26271
-0.0269054
1.54067
-0.038049
1.79622
-0.0513523
2.06779
-0.0673238
2.36344
-0.0864138
2.67555
-0.108735
2.99098
-0.133768
3.28459
-0.154123
2.95594
-0.163839
2.20518
-0.15819
1.64805
-0.141472
1.23577
-0.111894
0.92925
-0.0729897
0.69996
-0.0187867
0.510013
0.0208251
0.350515
0.0127906
0.208296
0.0706179
-0.0036262
0.340576
-0.00966013
0.881155
-0.0168622
1.26991
-0.0256945
1.54951
-0.036439
1.80697
-0.0493193
2.08067
-0.0649629
2.37909
-0.0839409
2.69453
-0.106649
3.01369
-0.133155
3.31109
-0.156164
2.97895
-0.169382
2.2184
-0.172994
1.65167
-0.161674
1.22445
-0.134958
0.902534
-0.0806657
0.645668
0.0122025
0.417145
0.12383
0.238888
0.156763
0.175363
0.227381
-0.00339895
0.343975
-0.00934423
0.8871
-0.016432
1.277
-0.0251837
1.55826
-0.0360167
1.8178
-0.0492108
2.09386
-0.0655762
2.39545
-0.0859628
2.71491
-0.111216
3.03894
-0.141916
3.34179
-0.170313
3.00734
-0.191493
2.23958
-0.19804
1.65821
-0.191271
1.21769
-0.168802
0.880066
-0.143554
0.62042
-0.163232
0.436823
-0.373431
0.449087
-0.907187
0.709119
0.88587
-1.56568
-0.00316633
0.347141
-0.00881292
0.892746
-0.0156879
1.28387
-0.0242334
1.5668
-0.0348979
1.82847
-0.0480837
2.10705
-0.0647151
2.41208
-0.085818
2.73602
-0.112727
3.06585
-0.147005
3.37607
-0.182108
3.04245
-0.209049
2.26652
-0.234471
1.68363
-0.247438
1.23065
-0.25724
0.889868
-0.333263
0.696442
-0.680115
0.783675
-1.37438
1.14335
-1.99266
1.3274
1.22408
-2.33087
-0.00298848
0.35013
-0.00833838
0.898096
-0.0149348
1.29047
-0.0232215
1.57509
-0.0336844
1.83893
-0.046808
2.12017
-0.0636208
2.4289
-0.0853878
2.75778
-0.11391
3.09437
-0.151221
3.41338
-0.190746
3.08197
-0.228423
2.3042
-0.257921
1.71313
-0.276417
1.24915
-0.364707
0.978158
-0.731078
1.06281
-1.47444
1.52703
-2.06954
1.73846
-2.31921
1.57707
1.34347
-2.4386
-0.00270016
0.35283
-0.0076897
0.903086
-0.0140051
1.29678
-0.0220269
1.58311
-0.0322503
1.84915
-0.045289
2.13321
-0.0622393
2.44585
-0.084572
2.78011
-0.114473
3.12428
-0.15534
3.45425
-0.202139
3.12877
-0.242419
2.34448
-0.290041
1.76075
-0.386053
1.34516
-0.691009
1.28311
-1.3855
1.7573
-1.99321
2.13475
-2.24251
1.98775
-2.36144
1.69601
1.41198
-2.42995
-0.0024367
0.355267
-0.00708456
0.907734
-0.0130632
1.30276
-0.0207587
1.59081
-0.0307667
1.85916
-0.0436522
2.1461
-0.060653
2.46285
-0.0834535
2.80292
-0.11475
3.15557
-0.158974
3.49847
-0.212708
3.1825
-0.270061
2.40183
-0.329407
1.8201
-0.492511
1.50826
-1.04023
1.83083
-1.73601
2.45309
-2.08231
2.48105
-2.24091
2.14635
-2.32857
1.78367
1.4802
-2.39679
-0.00224427
0.357511
-0.00669436
0.912184
-0.0126358
1.3087
-0.0203262
1.5985
-0.0304796
1.86931
-0.0435113
2.15913
-0.0608651
2.4802
-0.0843521
2.8264
-0.117005
3.18823
-0.163727
3.54519
-0.220115
3.23889
-0.275258
2.45697
-0.371015
1.91586
-0.727292
1.86454
-1.43407
2.53761
-1.93708
2.9561
-2.14805
2.69202
-2.26025
2.25854
-2.33987
1.86329
1.54688
-2.40655
-0.00220542
0.359716
-0.00683999
0.916818
-0.0130466
1.31491
-0.0210672
1.60652
-0.0316349
1.87988
-0.0451663
2.17266
-0.0632035
2.49824
-0.0877154
2.85091
-0.122103
3.22261
-0.172718
3.59581
-0.238588
3.30476
-0.315193
2.53358
-0.489872
2.09054
-0.987509
2.36218
-1.62368
3.17379
-1.9294
3.26181
-2.08588
2.8485
-2.20652
2.37919
-2.30335
1.96011
1.61342
-2.36988
-0.00202642
0.361743
-0.00675331
0.921545
-0.0133079
1.32146
-0.0217373
1.61495
-0.0327102
1.89086
-0.0467777
2.18673
-0.0654984
2.51696
-0.0909906
2.87641
-0.126911
3.25853
-0.179424
3.64832
-0.243775
3.36911
-0.327821
2.61762
-0.587839
2.35056
-1.19727
2.97161
-1.71542
3.69194
-1.93373
3.48012
-2.08522
2.99999
-2.22227
2.51624
-2.34478
2.08262
1.67876
-2.41013
-0.00187859
0.363621
-0.00680846
0.926475
-0.0136668
1.32832
-0.0224812
1.62376
-0.0338954
1.90227
-0.0484858
2.20132
-0.0678483
2.53632
-0.0942836
2.90284
-0.131715
3.29596
-0.187685
3.70429
-0.263499
3.44493
-0.384881
2.73901
-0.724496
2.69017
-1.33661
3.58372
-1.72613
4.08145
-1.91637
3.67036
-2.03464
3.11827
-2.14054
2.62214
-2.21992
2.16201
1.67569
-2.21685
-0.00154085
0.365162
-0.006447
0.931381
-0.0136862
1.33556
-0.0229621
1.63304
-0.0348342
1.91414
-0.0499737
2.21646
-0.0700338
2.55638
-0.0974431
2.93025
-0.136393
3.33491
-0.19325
3.76115
-0.270149
3.52183
-0.422951
2.89181
-0.833633
3.10085
-1.39477
4.14486
-1.68314
4.36982
-1.86284
3.85006
-1.97263
3.22806
-1.98632
2.63582
-1.94083
2.11652
1.67527
-1.94041
-0.00124411
0.366406
-0.00628016
0.936417
-0.0137226
1.343
-0.0233329
1.64265
-0.0355268
1.92634
-0.0509035
2.23183
-0.0710489
2.57653
-0.0983536
2.95756
-0.137045
3.37361
-0.194986
3.81909
-0.27992
3.60676
-0.462968
3.07486
-0.893498
3.53138
-1.35701
4.60837
-1.55545
4.56826
-1.64256
3.93717
-1.6648
3.2503
-1.53341
2.50444
-1.04923
1.63233
0.62604
-0.000680396
0.367087
-0.00532971
0.941067
-0.0131133
1.35079
-0.0233903
1.65293
-0.036327
1.93927
-0.0526712
2.24818
-0.0742939
2.59815
-0.103819
2.98708
-0.146135
3.41592
-0.208216
3.88117
-0.303415
3.70196
-0.523212
3.29465
-1.01148
4.01965
-1.40899
5.00588
-1.52931
4.68858
-1.54337
3.95123
-1.46215
3.16907
-1.24077
2.28306
-0.676028
1.06759
-0.0499879
-0.000184271
0.367271
-0.00449652
0.945379
-0.0124291
1.35872
-0.0232327
1.66373
-0.0367791
1.95282
-0.0540206
2.26542
-0.0769116
2.62104
-0.108117
3.01829
-0.152698
3.4605
-0.220516
3.94899
-0.329553
3.811
-0.593278
3.55838
-1.10953
4.5359
-1.42097
5.31732
-1.50203
4.76965
-1.49846
3.94766
-1.3183
2.98892
-0.836935
1.8017
-0.137074
0.367728
-0.187062
0.00106832
0.366203
-0.00239011
0.948837
-0.0108533
1.36718
-0.0221717
1.67505
-0.036201
1.96685
-0.0542166
2.28344
-0.0782577
2.64508
-0.111096
3.05112
-0.15928
3.50869
-0.233744
4.02345
-0.361445
3.9387
-0.666151
3.86309
-1.17656
5.04631
-1.39541
5.53617
-1.44103
4.81527
-1.38304
3.88967
-1.10909
2.71497
-0.388503
1.08111
0.0295162
-0.0502908
-0.157546
0.00200482
0.364198
-0.000345335
0.951188
-0.00904596
1.37588
-0.020562
1.68656
-0.0348897
1.98118
-0.0535506
2.3021
-0.0786913
2.67022
-0.113193
3.08563
-0.162574
3.55807
-0.240042
4.10092
-0.378134
4.07679
-0.713591
4.19854
-1.20134
5.53406
-1.35096
5.68579
-1.36655
4.83086
-1.2257
3.74882
-0.792446
2.28171
-0.119843
0.408503
0.0329528
-0.203087
-0.124593
0.00352217
0.360676
0.00220902
0.952501
-0.00583531
1.38393
-0.0173439
1.69807
-0.0318762
1.99571
-0.0510284
2.32125
-0.0764401
2.69563
-0.110569
3.11976
-0.160044
3.60754
-0.244478
4.18536
-0.406235
4.23855
-0.773664
4.56597
-1.19147
5.95186
-1.28346
5.77778
-1.26621
4.81362
-1.02206
3.50467
-0.449446
1.7091
-0.0162889
-0.0246543
0.0178029
-0.237179
-0.10679
0.00484025
0.355835
0.00477458
0.952566
-0.0021446
1.39085
-0.0130778
1.709
-0.0275277
2.01016
-0.0466376
2.34036
-0.0719492
2.72095
-0.106927
3.15473
-0.157891
3.6585
-0.24537
4.27283
-0.40812
4.4013
-0.775199
4.93305
-1.10583
6.28249
-1.17728
5.84923
-1.12525
4.76159
-0.835817
3.21523
-0.215069
1.08835
-0.0210618
-0.218662
-0.00621324
-0.252027
-0.113003
0.007309
0.348526
0.0096182
0.950257
0.00410948
1.39636
-0.00617043
1.71928
-0.0205606
2.02455
-0.0393049
2.3591
-0.0638847
2.74553
-0.0985343
3.18938
-0.14728
3.70725
-0.229223
4.35478
-0.409219
4.58129
-0.766542
5.29037
-1.01435
6.5303
-1.06735
5.90223
-0.93862
4.63286
-0.547025
2.82363
0.0026967
0.538632
0.0365546
-0.25252
0.0223171
-0.23779
-0.0906859
0.00970914
0.338817
0.0147214
0.945245
0.0110326
1.40005
0.00241442
1.7279
-0.0114253
2.03839
-0.0284784
2.37616
-0.0506948
2.76774
-0.0820563
3.22074
-0.125434
3.75063
-0.197779
4.42712
-0.373926
4.75744
-0.676729
5.59318
-0.855297
6.70887
-0.910127
5.95706
-0.808263
4.53099
-0.35121
2.36658
0.0169069
0.170516
0.00577994
-0.241393
0.0137388
-0.245749
-0.0769472
0.0135258
0.325291
0.0226969
0.936074
0.0212872
1.40145
0.0134588
1.73573
0.00155221
2.05029
-0.0124106
2.39012
-0.0321381
2.78747
-0.0615383
3.25014
-0.105216
3.79431
-0.169288
4.4912
-0.328469
4.91662
-0.549864
5.81457
-0.687181
6.84619
-0.769683
6.03957
-0.764639
4.52595
-0.533888
2.13583
-0.420453
0.0570807
-0.304255
-0.35759
-0.154318
-0.395686
-0.231265
0.0169039
0.308387
0.0305619
0.922416
0.0328512
1.39917
0.0283737
1.74021
0.0201599
2.05851
0.0079756
2.4023
-0.0085603
2.80401
-0.031243
3.27283
-0.0688178
3.83188
-0.112581
4.53496
-0.216602
5.02064
-0.344734
5.9427
-0.438819
6.94027
-0.522217
6.12296
-0.61116
4.61489
-0.680193
2.20486
-0.747144
0.124031
-0.564911
-0.539823
-0.282063
-0.678534
-0.513328
0.0216323
0.286755
0.0417994
0.902249
0.0490294
1.39194
0.0484208
1.74082
0.0429578
2.06397
0.0357835
2.40948
0.0261843
2.81361
0.0132996
3.28571
-0.00455239
3.84973
-0.0340813
4.56449
-0.053541
5.0401
-0.0523491
5.94151
-0.0731879
6.96111
-0.0959963
6.14577
-0.141411
4.6603
-0.315525
2.37898
-0.650445
0.458951
-0.641825
-0.548443
-0.307347
-1.01301
-0.820675
0.025799
0.260956
0.0533301
0.874718
0.0672636
1.378
0.0718591
1.73622
0.0718565
2.06397
0.0717067
2.40963
0.0695675
2.81574
0.0670058
3.28827
0.0624442
3.85429
0.0698756
4.55706
0.112082
4.99789
0.300081
5.75351
0.499765
6.76143
0.782258
5.86328
0.971586
4.47098
0.72663
2.62393
0.279054
0.906527
-0.0583953
-0.210993
-0.129875
-0.941533
-0.95055
0.0304928
0.230463
0.0675463
0.837664
0.0893199
1.35623
0.100479
1.72506
0.107406
2.05705
0.114426
2.40261
0.122111
2.80806
0.129321
3.28106
0.141219
3.8424
0.172469
4.52581
0.311047
4.85932
0.744746
5.31981
1.14005
6.36613
1.49449
5.50884
1.68158
4.28388
1.4677
2.83782
1.07598
1.29825
0.688407
0.176577
0.261208
-0.514333
-0.689342
0.0331818
0.197282
0.0806792
0.790167
0.113168
1.32374
0.133022
1.70521
0.149723
2.04035
0.164675
2.38765
0.184077
2.78866
0.202606
3.26254
0.224608
3.82039
0.243093
4.50732
0.462218
4.64019
1.00863
4.7734
1.44765
5.9271
1.7411
5.21539
1.86578
4.1592
1.73339
2.9702
1.32219
1.70945
0.834883
0.663889
0.381567
-0.0610182
-0.307774
0.0358817
0.1614
0.093641
0.732407
0.138247
1.27913
0.169853
1.6736
0.198461
2.01174
0.225191
2.36092
0.258969
2.75488
0.291097
3.23041
0.324487
3.787
0.335317
4.49649
0.473882
4.50163
0.920559
4.32673
1.3891
5.45856
1.62738
4.97711
1.7431
4.04349
1.63604
3.07726
1.27798
2.06751
0.826141
1.11573
0.34794
0.417183
0.0401658
0.0361911
0.125209
0.104495
0.664104
0.164325
1.2193
0.210453
1.62747
0.254292
1.9679
0.299624
2.31559
0.351966
2.70254
0.403121
3.17925
0.462426
3.7277
0.494931
4.46398
0.501201
4.49536
0.683155
4.14477
1.16134
4.98037
1.3343
4.80415
1.36299
4.01479
1.2437
3.19655
0.976883
2.33433
0.629335
1.46327
0.268048
0.77847
0.308213
0.037634
0.0875747
0.111943
0.589794
0.187567
1.14368
0.252987
1.56206
0.314425
1.90646
0.380575
2.24944
0.456034
2.62708
0.545606
3.08968
0.666483
3.60682
0.766967
4.3635
0.720207
4.54212
0.662483
4.2025
0.909929
4.73293
0.957517
4.75656
0.923277
4.04903
0.83629
3.28354
0.666522
2.5041
0.4033
1.7265
0.156463
1.02531
0.464676
0.0373187
0.050256
0.11344
0.513673
0.200278
1.05684
0.286509
1.47582
0.372478
1.82049
0.469786
2.15213
0.586506
2.51036
0.752516
2.92367
0.989573
3.36977
1.20491
4.14817
1.13466
4.61236
0.880009
4.45715
0.843568
4.76937
0.817524
4.7826
0.748612
4.11794
0.632613
3.39954
0.440211
2.6965
0.252996
1.91371
0.0870761
1.19123
0.551752
0.0349809
0.0152751
0.119923
0.428731
0.217226
0.959539
0.319353
1.3737
0.431342
1.7085
0.563091
2.02038
0.735872
2.33758
0.993583
2.66596
1.33651
3.02684
1.65798
3.82669
1.69119
4.57915
1.31106
4.83728
1.07315
5.00728
0.939769
4.91599
0.752095
4.30562
0.51023
3.6414
0.286814
2.91992
0.17078
2.02975
0.0468147
1.31519
0.598567
0.0228186
-0.00754353
0.081596
0.369953
0.163497
0.877637
0.266677
1.27052
0.387488
1.58769
0.524812
1.88306
0.695997
2.16639
0.920676
2.44128
1.17838
2.76914
1.42914
3.57593
1.42941
4.57888
1.06122
5.20547
0.764844
5.30365
0.548865
5.13197
0.325304
4.52918
0.130892
3.83581
0.0572185
2.99359
0.0372047
2.04976
0.0026417
1.34976
0.601209
-0.00110955
-0.00643398
0.00972047
0.359123
0.049653
0.837705
0.121676
1.1985
0.223923
1.48545
0.351222
1.75576
0.504592
2.01302
0.68844
2.25743
0.902244
2.55534
1.15178
3.32639
1.14254
4.58812
0.791634
5.55638
0.41162
5.68367
0.114267
5.42932
-0.127783
4.77123
-0.214486
3.92252
-0.142057
2.92116
-0.0803953
1.9881
-0.0438518
1.31321
0.557357
-0.0154742
0.00904022
-0.0269106
0.37056
-0.0185661
0.82936
0.0206448
1.15928
0.0830129
1.42308
0.164621
1.67415
0.254808
1.92283
0.348601
2.16364
0.446824
2.45711
0.501859
3.27136
0.400259
4.68972
0.0329913
5.92364
-0.32715
6.04381
-0.518522
5.62069
-0.57845
4.83116
-0.476212
3.82028
-0.26333
2.70828
-0.151106
1.87587
-0.076057
1.23816
0.4813
-0.0217706
0.0308108
-0.0511402
0.399929
-0.0649021
0.843122
-0.0607308
1.15511
-0.0451589
1.40751
-0.0257852
1.65478
-0.0168573
1.91391
-0.0299341
2.17672
-0.0874934
2.51467
-0.24805
3.43191
-0.533538
4.97521
-0.869586
6.25969
-1.00685
6.18107
-0.959285
5.57312
-0.821439
4.69331
-0.556227
3.55507
-0.295691
2.44774
-0.175717
1.7559
-0.0800466
1.14249
0.401254
-0.0267243
0.0575351
-0.0693493
0.442554
-0.0993818
0.873155
-0.123611
1.17934
-0.153428
1.43732
-0.195414
1.69677
-0.264282
1.98277
-0.381429
2.29387
-0.579274