/*--------------------------------*- C++ -*----------------------------------*\
| =========                 |                                                 |
| \\      /  F ield         | OpenFOAM: The Open Source CFD Toolbox           |
|  \\    /   O peration     | Version:  4.0                                   |
|   \\  /    A nd           | Web:      www.OpenFOAM.org                      |
|    \\/     M anipulation  |                                                 |
\*---------------------------------------------------------------------------*/
FoamFile
{
    version     2.0;
    format      ascii;
    class       surfaceScalarField;
    location    "65";
    object      phi;
}
// * * * * * * * * * * * * * * * * * * * * * * * * * * * * * * * * * * * * * //

dimensions      [0 3 -1 0 0 0 0];

internalField   nonuniform List<scalar> 
1300
(
3.75095
5.62643
-3.32761
3.75095
-7.75289
5.62643
-4.38586
4.38586
-0.417673
0.417673
1.87639
1.87456
-2.68176
2.68176
-2.14623
2.14623
-2.52509
2.52509
-5.24639
5.24639
-5.069
5.069
4.65543
-4.65543
-6.30556
6.30556
-0.947026
0.947026
-3.67939
3.67939
3.16962
-3.16962
-2.09955
2.09955
0.0080299
-0.0080299
-0.553476
4.30443
3.19748
3.19748
-2.01198
2.01198
-4.86747
4.86747
6.21793
-6.21793
5.31736
-5.31736
-1.98975
-2.45352
1.81039
-11.5093
-5.9425
-5.9425
-8.44038
8.44038
-2.81395
2.81248
2.9461
-2.9461
-1.77404
1.77404
-4.34515
-0.0407158
-4.34515
4.35758
0.0282836
4.35758
-0.491943
0.0742701
-0.491943
3.98478
-3.98478
0.334034
0.0836388
0.334034
3.06532
-3.06532
-1.87711
3.7535
1.87384
-1.8719
6.17632
-1.87906
3.75362
-6.01627
6.01627
-2.92371
0.241943
-2.92371
2.47911
0.202649
2.47911
-6.84804
6.84804
-2.17436
0.0281314
-2.17436
2.11444
0.0317928
2.11444
2.88053
-2.88053
-2.63648
0.111389
-2.63648
2.39474
0.130346
2.39474
0.353518
5.27291
-5.97995
8.79243
-5.27291
0.02652
5.20829
0.038106
5.20829
-5.106
0.0370007
-5.106
5.01299
0.0560083
5.01299
4.74155
-0.0861222
4.74155
-4.77349
0.118063
-4.77349
-3.3696
-4.0537
-6.45647
0.150904
-6.45647
-1.03724
0.0902125
-1.03724
0.832335
0.11469
0.832335
-3.68442
3.68442
-4.10143
0.422038
-4.10143
3.12399
0.0456285
3.12399
1.86849
1.88246
5.61944
-5.61944
2.44982
-2.07195
-0.0275986
-2.07195
-2.15844
-3.15892
2.15844
-0.0588864
-0.223542
0.231572
-0.223542
3.15943
0.038051
3.15943
2.23663
0.158118
-2.23663
0.224644
3.27307
-3.27307
1.34163
0.67035
1.34163
-5.56481
5.56481
4.9559
0.0570915
-4.9559
0.0884284
6.15657
0.0613575
6.15657
-6.19955
-0.018379
-6.19955
2.52706
-4.98058
-2.61241
6.12353
0.182036
-6.12353
0.181028
2.91793
0.0281715
2.91793
-2.91973
2.91973
-2.98463
0.0385283
-2.98463
-2.17298
0.39894
-2.17298
1.47524
0.298801
1.47524
-4.24412
-0.101027
-4.24412
-4.24854
0.147111
4.24854
0.109039
1.12816
-1.12816
-0.610159
0.118216
-0.610159
-4.10828
-0.135837
4.10828
-0.123502
-3.8752
-0.109586
-3.8752
-3.02448
0.0398499
3.02448
0.0408443
3.11287
0.0465603
-3.11287
0.0475443
-1.87082
3.75328
-1.88014
3.75397
-5.63584
-0.380429
-5.63584
6.32708
-0.310808
6.32708
3.31876
0.360632
-3.31876
0.395054
2.33057
0.148547
2.33057
-6.81139
-0.0366483
-6.81139
6.83194
0.0161019
6.83194
2.23199
0.0985722
-2.23199
0.0576302
2.087
0.027436
2.087
2.9002
-0.0196749
2.9002
-2.87491
-0.00562001
-2.87491
2.79611
-2.79611
2.72257
0.0735374
-2.72257
0.0860961
-11.133
11.1146
-0.0350797
-11.0979
5.17321
5.17321
4.16889
0.572664
4.16889
-4.99184
0.218343
-4.99184
2.68095
-5.29336
3.0789
-6.4485
4.66731
-16.1766
4.30079
-8.35449
6.69679
-6.69679
6.58537
0.111424
-6.58537
0.128902
-1.15423
0.116988
-1.15423
-3.08176
-0.602656
-3.08176
4.32735
-0.642933
4.32735
-3.02817
3.02817
-3.07747
0.0493018
3.07747
0.0465234
2.07046
0.0165446
-2.07046
-0.00149318
0.275421
0.0586129
-0.275421
0.051879
3.4843
-0.211231
3.4843
-3.07589
-0.197179
-3.07589
-1.25387
0.0996402
1.25387
0.0877656
-5.81335
0.248544
-5.81335
-11.1909
0.0929888
-11.1528
-6.10656
-6.10656
2.33381
11.1262
-2.89309
0.0181826
2.89309
0.0248364
2.97514
0.0530273
-2.97514
0.0554082
-2.86058
0.064467
2.86058
0.0591543
-2.54792
0.374946
-2.54792
-1.07266
1.07266
-1.23887
0.166206
1.23887
0.236367
1.39976
-0.271605
1.39976
0.724066
0.108269
-0.724066
0.113907
-3.77731
-0.0978844
-3.77731
6.5619
-0.234821
6.5619
-2.96173
-0.114156
2.96173
-0.0615298
-0.0333608
11.1479
-5.13985
0.0338481
5.13985
-11.2093
11.2431
-3.21884
0.67092
3.21884
0.950044
5.28548
0.279325
-5.28548
0.293644
6.78128
0.0506517
-6.78128
0.0844922
-2.58909
-0.492668
-2.58909
-5.0534
-0.582434
5.0534
-0.726054
-11.474
-0.205389
11.6794
-11.418
6.01874
0.137836
-6.01874
11.381
-1.02976
-0.0983984
1.02976
0.0429059
1.72722
-0.327457
1.72722
3.67795
-0.193654
-3.67795
-0.0993569
-6.71545
-0.0959427
6.71545
-0.153551
-2.14421
-0.444883
2.14421
-0.416991
-4.26711
4.30516
1.90922
-2.3881
-2.59247
-5.54702
1.85186
1.90142
4.30168
-10.1518
-6.02481
-9.97073
7.26268
-6.96903
-9.24547
9.15934
7.86889
-7.97848
-5.78488
5.8314
6.48283
-6.44199
1.87881
1.8747
8.01216
-7.77021
-15.6052
15.2248
7.50837
-7.48024
15.76
-15.7966
-17.8445
17.8952
-5.69806
5.80945
-6.73905
6.73343
-6.97345
6.91192
-2.83141
-3.61709
13.1155
-12.9646
8.55213
-8.57972
-8.6112
9.03324
3.38258
0.922577
3.42914
-1.88216
3.76097
-1.87146
3.78068
2.71335
-5.54477
2.58
-5.17248
4.33755
4.21458
-4.27866
-1.26836
-5.92442
5.95259
-5.81436
5.87351
9.12145
-9.16216
-1.88516
3.75986
-1.86882
3.77024
-3.42502
-2.35986
3.37939
0.92229
8.07268
5.04283
-8.25472
-1.71601
-8.03106
7.83741
-8.22637
8.02919
-0.435134
5.81887
-5.38374
4.43233
-1.56327
7.38214
5.6994
5.91775
5.86624
-5.58692
1.10279
-6.48653
-6.3981
-2.31542
2.43363
2.20675
-2.12312
6.12397
1.74492
6.00046
-5.75034
-2.22813
-5.84823
3.82067
2.01073
3.86997
4.07832
2.40451
4.11817
3.03049
-3.03592
0.00543378
-3.0566
6.08709
0.723933
-5.41646
-4.49417
4.97405
3.03811
5.1767
-5.55437
-2.21585
-5.15931
-9.53749
-6.06774
-10.1199
10.0823
5.1425
9.77149
-11.9546
11.801
4.789
2.71937
4.8208
-4.91954
-2.5607
-4.86191
11.6439
-2.63293
-9.01094
-10.3154
-7.52912
10.2993
5.46072
10.9599
6.93527
11.0444
4.42535
7.21852
-9.88607
2.35695
-3.8654
-1.83266
-3.7793
3.66823
2.14121
3.79858
-4.21715
-2.5219
-4.19897
-4.29519
-2.67825
4.31487
2.41856
-4.41599
-3.81038
4.53014
2.38177
4.03952
-10.0643
4.31497
-7.93206
-9.19599
-3.76862
-9.06709
3.50843
2.606
-6.11444
-2.03633
8.47717
-4.26259
7.20881
-5.1771
-3.40263
-5.17859
-6.87772
-1.73348
-6.7306
-8.87746
8.38479
-9.17385
8.53091
12.5208
-5.6471
-6.87368
-3.96842
-2.47357
3.92088
-0.491732
-3.71054
3.71597
0.0504281
3.8311
4.75368
4.26195
-3.88451
-1.92984
-3.82911
3.82503
2.04848
3.88949
6.83202
2.28943
6.8603
-6.59612
-2.56604
-6.69715
9.04162
-8.64268
2.84238
-2.74274
5.3922
2.63699
-5.18097
-2.85009
6.21256
-3.21759
-2.99498
-12.1985
10.5309
1.6676
-4.81633
-0.384
-0.39203
-5.48946
-3.756
5.3714
0.546346
11.0772
7.32122
-5.51294
5.76148
6.16644
6.22353
-0.174564
5.80905
-5.13813
5.26261
-2.58048
-2.68213
5.45782
-5.59366
-1.23932
-5.50482
4.26549
0.406804
1.51947
-1.2879
-1.81169
-0.503729
-1.69778
1.30753
0.899229
1.36614
0.939225
1.49441
-2.95914
0.554438
2.4047
-2.01991
-1.56868
-3.79858
-1.14178
4.94037
5.72853
2.10888
-5.62917
-0.219058
2.55198
-2.43729
-0.762045
-3.03654
2.24538
-3.00743
-3.67378
-2.05893
5.73271
-3.36983
-0.459272
3.31681
0.553164
-3.82708
-2.09734
3.78855
0.329625
-3.12774
6.19065
-3.06291
-5.05759
2.52769
3.5594
4.53842
-4.78952
2.44751
2.34201
-1.23012
4.24614
0.93056
4.39468
-6.93528
4.71944
5.79839
3.23485
-6.15902
0.999706
-5.93558
8.53942
-7.36788
-1.17154
4.14521
4.39421
7.06695
5.45384
-5.6745
12.7414
-1.20057
-6.16731
7.13615
-3.90131
4.84587
-8.74718
-10.2997
4.1324
-9.13861
10.9148
-1.77621
-3.62284
-8.33171
12.7615
-1.20496
-11.5565
8.56653
-4.26039
-4.34644
8.60683
-6.89332
6.90714
-1.99336
-4.91378
-10.1016
-5.69509
10.1975
1.6035
-9.90352
12.2605
-2.685
4.10868
0.712119
4.13611
3.2964
-5.48411
2.18771
3.59692
-5.59028
2.08207
-7.56617
-6.73027
12.0636
-5.3333
-10.4989
-9.51656
-0.982331
2.53542
9.72505
-9.47069
7.42784
2.04284
3.30063
0.588868
-3.37416
-0.405142
0.239551
4.52449
-4.76404
4.03813
4.19625
3.27985
1.24464
3.84514
2.10745
-3.86997
-0.328996
-4.16311
1.48486
-1.74455
-3.69349
5.17835
-4.06706
0.373572
-2.74858
-3.49894
6.24752
-4.58124
3.03575
3.1549
5.08424
-4.91337
1.41443
-2.39273
-2.52064
2.65263
-4.39718
1.99125
3.1871
4.37303
0.562645
5.87371
6.18986
-8.47972
0.547659
11.2327
-9.51667
2.46543
8.57894
-9.89328
0.376717
-8.69037
0.993847
-5.25644
-5.12059
5.18799
-6.92147
-3.55919
6.21005
0.650254
-6.31909
-0.411516
-6.0335
-2.84396
-6.47838
-3.04341
-6.13043
-8.71791
-1.6517
-7.06621
6.73309
-6.67968
-3.44025
7.40573
1.12518
-7.40971
7.31131
-7.48761
7.16016
0.0953579
3.62061
4.35731
1.88374
-2.3905
4.27423
-5.11882
7.40824
-8.70421
3.5854
4.18594
-6.75198
-4.51827
5.02304
4.01858
5.32184
8.88698
-10.3582
1.47124
-10.6588
11.9905
-1.33169
-16.42
5.76123
-7.53306
2.44815
0.394234
2.56513
0.546313
2.49853
-3.04484
-2.19643
-2.10866
-2.43274
-3.46584
5.89858
1.10168
-3.52344
2.42176
-3.57012
4.6718
-0.20289
-3.32055
5.27654
-2.77801
5.67077
-3.77301
1.89776
3.43456
5.75328
-2.31873
4.39463
-1.75764
1.9213
-4.24003
-1.54454
-2.96399
5.1052
-3.28353
3.6571
-0.341163
3.99827
-4.0538
0.836211
-0.773952
3.4223
3.64694
4.31335
-3.06871
2.92165
-4.6793
-1.31837
-4.11665
-0.929556
-0.263329
-3.70774
3.97107
5.98549
-6.24882
-5.23571
9.5296
-4.2939
7.69439
-5.38279
-2.3116
-4.25379
-4.38889
3.87884
1.9302
9.62459
0.209248
-5.59204
-4.92888
-3.97883
3.11566
2.14695
-1.77314
3.44074
2.16517
-0.645701
0.438437
0.927701
1.78635
-1.34791
0.308321
1.47803
-0.97958
1.75265
0.799328
-1.86092
0.163141
-1.30726
3.55264
1.09744
-1.99667
0.648757
0.981266
-3.56175
5.03303
-2.66963
-2.3634
6.0143
1.13919
-3.80882
4.36563
-3.95883
2.38008
-3.52186
-1.42874
-5.38756
-3.64264
-2.52684
4.9486
-3.37173
5.48061
1.27482
-5.26155
6.53637
-3.72318
1.66424
-3.06444
3.86377
-0.948626
-2.11582
2.90114
2.83157
-3.06123
0.024691
-0.160089
2.40668
-2.56677
-0.600745
-2.62066
-4.57334
4.90297
-2.1054
4.55291
2.16883
-1.91674
6.46965
1.80908
-3.72582
-3.24851
-3.70778
-1.38381
3.15462
-0.598816
-4.2631
-5.5126
4.16453
0.230158
-7.0523
7.86009
-0.807792
-4.01419
-0.705246
4.85045
-6.06994
0.479665
-3.98788
3.87222
4.80278
5.03294
-11.3392
-0.21734
-6.19665
1.12285
-7.3195
5.51706
-3.53985
7.67225
-10.3268
6.88652
-9.20159
6.50071
-0.818789
6.25063
-4.06293
2.7603
-8.45539
-6.85189
5.49973
-2.78036
6.21185
-3.14147
9.35332
-5.82647
5.28521
4.06811
-1.01768
-4.16091
-5.27696
4.25928
0.00824787
4.14436
4.98012
-2.87267
4.65113
2.26795
-4.66068
-2.12923
-6.49459
1.83392
-3.3397
-1.92063
3.75454
3.16361
3.75248
1.2339
-3.34734
7.18773
-8.17006
-1.85443
-3.26616
5.26034
-1.00106
3.39872
-6.66488
-1.85771
4.79817
-0.784769
-4.0134
0.848932
-4.40812
1.6739
-6.08203
5.24756
-5.65908
2.2218
-9.75487
-5.18791
-5.145
-2.25863
-5.22898
-7.57196
5.31333
-1.81073
5.50058
-8.50878
7.72401
-3.48172
8.79505
-5.42797
-1.05042
5.84496
1.3152
10.1102
0.212555
-4.73083
-1.91264
3.8603
-1.94766
1.20302
-3.49519
0.365108
2.48811
3.52619
-6.7536
0.00161728
-4.72921
-3.91733
7.93591
5.61227
11.5978
1.23954
9.11774
-1.18183
10.3573
4.14001
4.37638
-2.99209
4.46333
0.978985
4.56438
-0.920323
2.81808
1.64481
1.73502
0.702268
2.30305
1.3439
3.13926
0.0944141
-2.01425
4.62255
-8.60139
-0.969484
-8.02872
1.13062
5.70955
-4.57892
2.96679
-0.819842
1.01913
-0.0818194
-1.285
1.36682
-2.76395
-1.9307
-0.452669
-1.68736
2.33611
1.86529
-1.88344
-0.880508
0.359283
-4.00192
3.16258
-3.13789
-0.306321
6.23005
-2.82022
0.253454
-1.15598
-2.3672
-2.87093
2.70779
6.17597
0.293677
3.11307
5.19664
3.0993
0.22663
3.89265
-5.66886
-3.67353
-5.8862
-0.369134
4.48132
1.75326
7.97179
5.82137
4.82031
-1.84457
-10.0146
6.51955
-2.05623
5.18786
-1.17446
-4.90757
5.04543
2.36281
-5.69568
0.0366022
-4.87097
-6.9272
-0.513809
8.23782
-9.59644
8.54602
5.70206
1.36414
-4.40579
-0.739208
4.23959
0.136789
10.4941
-1.12836
-6.73002
7.85838
-4.58118
3.6117
0.758121
2.68262
2.12494
1.3051
-5.42492
-10.0038
-2.04305
-1.5187
-4.40645
0.533918
-2.3992
6.22473
-2.61303
3.91313
5.24535
6.26448
-2.13395
-4.11488
6.42784
-2.51471
3.74977
)
;

boundaryField
{
    wall-4
    {
        type            calculated;
        value           uniform 0;
    }
    velocity-inlet-5
    {
        type            calculated;
        value           uniform -3.75095;
    }
    velocity-inlet-6
    {
        type            calculated;
        value           uniform -5.62643;
    }
    pressure-outlet-7
    {
        type            calculated;
        value           nonuniform List<scalar> 8(3.32761 7.75289 4.44326 9.69886 7.4233 5.13947 5.75984 8.96811);
    }
    wall-8
    {
        type            calculated;
        value           uniform 0;
    }
    frontAndBackPlanes
    {
        type            empty;
        value           nonuniform 0();
    }
}


// ************************************************************************* //
