/*--------------------------------*- C++ -*----------------------------------*\
| =========                 |                                                 |
| \\      /  F ield         | OpenFOAM: The Open Source CFD Toolbox           |
|  \\    /   O peration     | Version:  4.0                                   |
|   \\  /    A nd           | Web:      www.OpenFOAM.org                      |
|    \\/     M anipulation  |                                                 |
\*---------------------------------------------------------------------------*/
FoamFile
{
    version     2.0;
    format      ascii;
    class       volVectorField;
    location    "65";
    object      U;
}
// * * * * * * * * * * * * * * * * * * * * * * * * * * * * * * * * * * * * * //

dimensions      [0 1 -1 0 0 0 0];

internalField   nonuniform List<vector> 
918
(
(0.98516 -0.000507018 0)
(0.00501376 2.96625 0)
(0.00823879 0.889033 0)
(0.979704 0.00214585 0)
(-0.0120715 2.06158 3.76617e-20)
(-0.00704864 2.94879 -2.46724e-18)
(0.819272 1.16252 4.48119e-19)
(0.123915 0.0731117 -1.48181e-20)
(0.999909 -0.000277064 0)
(0.0649338 0.730564 0)
(0.0129604 0.515402 0)
(0.733811 -0.00864729 0)
(0.0111398 2.93033 0)
(0.00274179 2.79524 0)
(-0.0178154 3.14936 7.79925e-19)
(-0.021901 1.91356 8.27888e-21)
(0.281196 0.0481854 1.01828e-18)
(0.188851 1.14142 3.16388e-19)
(0.962728 0.00501718 0)
(0.00752649 0.484819 0)
(-0.0180091 0.096128 -6.98502e-19)
(1.00197 -0.00497548 0)
(1.00023 -0.00978494 0)
(0.975738 -0.00643889 0)
(0.598516 0.0245277 0)
(0.0151773 2.64079 0)
(-0.0148541 2.91 9.07463e-19)
(0.00964443 0.937119 0)
(-0.0167985 1.18003 0)
(0.01163 0.919863 0)
(-0.0142499 2.59488 0)
(-0.0010276 2.11592 -3.00781e-20)
(-0.0113052 1.89354 0)
(-0.0205951 2.98761 -8.86802e-23)
(-0.0166833 3.00529 1.91736e-18)
(0.00210118 3.00017 0)
(0.871355 -0.00965204 0)
(0.40281 0.933451 1.80268e-19)
(0.804046 1.17694 -5.11175e-19)
(0.955877 1.02183 5.55619e-19)
(0.672926 1.26874 -1.0387e-19)
(0.673872 1.24324 5.98069e-19)
(0.162808 0.127589 1.44563e-20)
(0.146423 0.0547203 0)
(1.15851 0.562225 0)
(0.137846 0.109182 6.58316e-20)
(0.0998751 0.0646066 -6.83095e-20)
(0.919901 -0.00745692 0)
(1.00027 0.000161159 0)
(0.999909 0.000338537 0)
(1.00363 -0.00776 0)
(1.00096 -0.000918972 0)
(1.00017 3.66528e-05 0)
(0.0732683 1.82625 -7.72951e-19)
(0.0311495 0.945454 0)
(0.099652 0.810151 0)
(0.0107944 0.896709 0)
(0.0377028 0.652656 0)
(0.00632524 2.0135 0)
(-0.0027736 0.807761 0)
(0.0119841 0.526772 0)
(-0.00214036 0.797702 0)
(0.00718958 0.506985 0)
(0.841617 -0.0156965 0)
(0.839618 0.0318709 0)
(0.764788 -0.00817698 0)
(0.802741 0.0326628 0)
(0.701888 0.00531196 0)
(0.0146847 3.00041 9.14544e-19)
(0.011492 3.0081 0)
(0.00610324 3.00275 0)
(0.0135541 2.99738 1.03757e-23)
(0.00795438 2.95846 -1.35924e-18)
(0.0145018 2.98198 0)
(0.010886 2.90355 0)
(0.0242903 2.93057 2.07992e-24)
(0.00467568 2.82524 0)
(0.0307998 2.91656 0)
(-0.0048087 2.74571 0)
(0.305433 3.54256 0)
(-0.131573 3.62331 0)
(0.13785 3.23942 -7.25792e-19)
(-0.0136296 2.97757 0)
(-0.0256329 1.98683 0)
(-0.00711784 2.1684 -8.16541e-21)
(-0.0158658 1.92182 2.36049e-21)
(0.348998 0.143734 -3.536e-19)
(0.310933 0.0277022 -3.43532e-19)
(0.304877 0.14982 -1.05852e-18)
(0.243969 0.056135 -6.88581e-19)
(0.22916 0.982969 0)
(0.272229 1.29246 -3.67491e-19)
(0.365645 1.22692 6.12935e-19)
(0.987437 0.00857163 0)
(0.941861 0.00582697 0)
(1.0003 0.000580876 0)
(1.00286 0.00930928 0)
(1.00301 0.0084711 -2.74498e-18)
(0.991908 0.00969581 2.07291e-18)
(-0.00962182 0.789217 0)
(0.00810431 0.494391 0)
(-0.0441075 1.0061 0)
(-0.0237748 0.831154 0)
(0.00634204 0.485644 0)
(-0.0205128 0.112912 2.15863e-19)
(0.069471 0.0784201 0)
(0.993553 -0.00837098 0)
(0.954464 -0.00653107 0)
(0.743931 0.0311664 0)
(0.680371 0.0265441 0)
(0.663415 0.0128274 0)
(0.970775 -0.00738889 0)
(0.594553 0.0689861 0)
(0.449865 -0.010127 1.54271e-18)
(-0.0369745 2.8623 6.6896e-19)
(0.0409587 2.91022 0)
(0.0537368 2.88603 0)
(-0.00412543 2.70046 0)
(-0.013159 2.98513 8.59048e-19)
(-0.0178765 2.89499 0)
(-0.0154489 2.98803 -2.66418e-18)
(-0.0132564 2.92517 9.12349e-19)
(-0.0267857 1.34447 0)
(-0.00286933 1.37342 0)
(-0.00741816 2.13327 4.84138e-22)
(-0.00632776 2.09503 0)
(-0.0239461 1.90112 0)
(0.938602 -0.00739094 0)
(0.8575 -0.00997376 0)
(0.863272 0.00563568 0)
(0.9496 -0.00781561 0)
(0.884063 -0.008191 0)
(0.514288 1.12642 -2.27634e-19)
(0.563461 1.17747 0)
(0.367399 0.878387 3.36389e-20)
(0.310024 0.737046 0)
(0.916495 1.05964 -1.53195e-19)
(1.0343 0.868697 3.11206e-19)
(0.358468 1.35384 0)
(0.525578 1.32474 0)
(0.548542 1.26343 0)
(0.120897 0.18473 -3.02308e-19)
(0.18605 0.12917 0)
(0.180652 0.0749473 1.91523e-19)
(1.00531 0.923368 0)
(1.07913 0.777286 0)
(1.10423 0.718782 -2.47041e-19)
(1.13793 0.621714 0)
(1.18861 0.405705 5.71625e-20)
(0.957761 -0.00870187 0)
(0.962515 -0.0100338 0)
(0.901757 -0.00798452 0)
(0.984204 -0.00914621 0)
(0.974712 -0.00933232 0)
(0.937137 -0.00637301 0)
(1.00019 0.0023399 0)
(1.0009 0.00141505 0)
(0.999909 0.000854977 0)
(0.0355301 2.07355 4.28375e-19)
(0.11887 1.76909 0)
(0.018027 2.18752 6.58412e-19)
(0.0461544 1.88033 -5.49043e-19)
(0.106307 1.14748 -2.59091e-19)
(0.0492626 1.02645 0)
(0.143191 0.977096 0)
(0.0024965 0.854173 0)
(0.0153312 0.595227 0)
(-0.00119899 2.24229 -8.30693e-22)
(0.0156875 2.01816 0)
(-0.00207372 2.24459 -3.01652e-20)
(0.00762167 2.02258 4.71988e-20)
(-0.00105085 0.830832 0)
(-0.00297637 0.817822 0)
(0.00928351 0.554164 0)
(-0.00560896 0.791406 0)
(0.00579511 0.496692 0)
(0.938407 0.00977905 0)
(0.85015 -0.0146358 0)
(0.927592 0.000419934 0)
(0.842544 -0.0128918 0)
(0.812188 -0.00236719 0)
(0.898487 0.0227666 0)
(0.87237 0.0283323 0)
(0.788476 -0.00636808 0)
(0.00558252 3.06472 -8.52482e-21)
(0.0166292 3.05775 0)
(0.0146149 2.96901 0)
(0.00863125 2.87621 0)
(0.920944 3.95535 0)
(1.23431 3.28884 9.26734e-19)
(0.0689813 3.07 0)
(-0.0294536 2.90287 0)
(-0.00845874 1.39493 0)
(-0.0306268 1.69511 0)
(-0.0173749 1.5294 0)
(-0.030161 2.55299 -8.03029e-21)
(-0.0138216 2.24384 0)
(-0.0198815 2.39165 0)
(-0.00179509 1.94893 8.76949e-22)
(-0.00366822 2.24028 -6.48926e-21)
(-0.00549011 2.20343 -2.56408e-21)
(-0.00967166 1.93408 0)
(0.401277 0.124836 5.39866e-19)
(0.359421 0.0169408 -5.29736e-19)
(0.258898 1.58511 0)
(0.277388 0.755986 -3.15858e-19)
(0.177105 1.67243 -1.04906e-18)
(0.22601 1.21978 1.05137e-18)
(0.902008 0.00636454 0)
(0.967391 0.0111341 0)
(0.974541 0.0108133 0)
(0.923296 0.00641105 0)
(-0.00967019 0.789155 0)
(-0.00831596 0.786116 0)
(0.00554833 0.48899 0)
(0.124786 0.095755 6.09795e-19)
(0.110329 0.0850069 -7.21112e-19)
(0.0829524 0.0640933 0)
(1.09872 0.0861644 2.70975e-20)
(1.08081 0.0394444 0)
(1.01303 0.0399712 0)
(0.907147 -0.00552256 0)
(0.45338 0.105862 0)
(0.513551 0.0875297 -2.46455e-18)
(0.40547 0.0113455 9.21185e-19)
(0.00871465 2.98049 7.18423e-19)
(-0.0331979 2.86489 4.52988e-20)
(0.0036427 3.05027 -1.80519e-20)
(0.0201913 3.04333 6.42014e-19)
(-0.0149844 2.99657 2.99658e-20)
(-0.0129683 2.94947 -1.20526e-22)
(-0.0172799 3.01191 -5.5446e-19)
(0.0149252 3.02364 4.01692e-19)
(0.00743 3.03692 -6.3648e-19)
(0.934012 -0.00120066 0)
(0.93948 -0.00319242 0)
(0.845998 -0.00946321 0)
(0.956517 0.0119216 0)
(0.94263 0.0132666 0)
(0.881569 0.00584114 0)
(0.916444 0.0178505 0)
(0.925741 0.0151574 0)
(0.838528 0.00192881 0)
(0.716766 1.40361 4.01548e-20)
(0.750055 1.51229 0)
(0.181488 0.315395 7.05978e-20)
(0.228377 0.668734 5.6838e-19)
(0.262326 0.72051 -3.32111e-19)
(0.26309 0.521517 6.60798e-19)
(0.345935 0.810683 1.5911e-18)
(0.140397 0.229945 3.75716e-19)
(0.261813 0.152153 7.28889e-19)
(0.221532 0.146524 1.88949e-19)
(0.212149 0.0669655 3.58045e-19)
(1.17767 0.463739 6.26909e-20)
(1.19339 0.256738 5.80096e-20)
(0.0101609 2.23618 2.53558e-19)
(0.0403816 1.94839 0)
(0.970569 0.0293345 0)
(0.943283 0.0139083 0)
(0.868985 -0.0179212 0)
(0.0113963 3.07447 0)
(0.0197449 2.94405 1.17487e-18)
(0.0164171 2.95638 0)
(0.00633178 2.85057 -1.16569e-18)
(0.00621755 3.09096 2.85084e-19)
(0.00712944 3.08229 0)
(0.78283 1.81386 -1.58913e-19)
(1.24212 2.48965 4.03796e-19)
(0.764827 1.95323 -1.22965e-18)
(0.0198083 2.98105 -6.1842e-19)
(0.0350415 2.99976 0)
(-0.0344212 2.87724 0)
(-0.00425777 2.22375 -1.3133e-20)
(-0.00327204 2.24477 9.218e-21)
(0.000877457 1.98422 -7.25345e-21)
(0.278213 1.39428 1.02528e-18)
(0.238593 0.550227 -7.03018e-19)
(0.0637967 1.99818 7.63075e-19)
(0.135343 1.88436 -9.10843e-19)
(0.180259 1.51158 9.50242e-20)
(0.0021724 3.11916 -1.77273e-18)
(0.0130992 3.11903 1.92288e-18)
(-0.00903711 2.98111 7.88578e-19)
(-0.00429418 2.97748 -7.43486e-19)
(-0.0210275 2.88081 -8.03152e-19)
(0.00856821 3.10026 -2.12056e-18)
(0.00221456 3.105 2.09519e-18)
(0.281941 0.694999 0)
(0.248304 0.684086 -1.18117e-18)
(0.0959023 0.225167 5.24412e-19)
(0.35763 0.937707 1.11292e-18)
(0.195512 0.275921 -1.71585e-18)
(1.18517 0.174888 6.31e-20)
(1.19381 0.311346 0)
(1.17353 0.12263 -6.58076e-21)
(0.00133306 2.25438 -1.47687e-21)
(0.00479996 2.24587 0)
(0.0245789 1.9838 0)
(0.340092 1.30309 -3.68144e-19)
(0.374674 1.14963 -8.00213e-19)
(0.210142 0.377821 1.4267e-18)
(1.00588 -0.0108304 0)
(1.00767 -0.00763469 5.06389e-19)
(-0.0222696 1.325 0)
(-0.0384669 1.32333 0)
(1.00221 0.00351337 1.81123e-21)
(1.00366 0.00946815 1.03393e-18)
(-0.018462 2.53745 1.01754e-20)
(-0.023882 2.58012 0)
(0.0341372 3.1772 4.08775e-19)
(0.391058 3.48437 0)
(1.17432 0.662868 -5.77789e-20)
(1.01285 0.0131381 -2.13567e-21)
(1.02134 -0.0102906 0)
(1.0017 0.000129816 7.85711e-23)
(0.113153 1.36909 0)
(0.143944 2.56943 0)
(0.0246664 1.3084 0)
(-0.000396845 2.62131 2.83791e-20)
(-0.0215343 2.57872 3.96023e-21)
(0.998309 0.028065 1.64102e-21)
(1.06308 0.00464099 0)
(1.09756 0.0250939 0)
(-0.0291699 1.73797 0)
(-0.0185421 2.58039 0)
(-0.00493685 1.31056 0)
(0.312108 1.48143 -1.67988e-19)
(1.0113 -0.00961738 0)
(1.0094 -0.0149157 0)
(1.00237 0.000752729 6.47159e-19)
(1.00547 -0.00480069 -7.6062e-19)
(1.00118 -0.000971365 0)
(-0.014356 1.4619 0)
(-0.00720739 1.37324 0)
(-0.00785406 1.41929 0)
(-0.00876233 1.29825 0)
(-0.0184959 1.28538 0)
(-0.00956402 1.26795 0)
(1.03503 -0.00604115 0)
(1.01967 0.0155813 -8.20826e-22)
(0.82084 1.27331 2.59686e-19)
(1.00223 0.000320004 -6.4467e-19)
(1.00406 0.00526038 7.54747e-19)
(1.00118 0.00207482 0)
(1.01273 0.0103597 6.41588e-19)
(1.00799 0.00831286 -7.77376e-19)
(1.00856 0.0146961 0)
(-0.0237278 2.60831 0)
(-0.0256407 2.58776 -1.82158e-20)
(-0.0230396 2.60189 1.29613e-20)
(1.23736 0.267586 5.81569e-19)
(1.16224 0.0869869 0)
(0.0407467 3.07795 -9.14148e-19)
(0.0647892 2.85632 -6.64844e-20)
(0.138308 3.1924 1.39636e-18)
(0.133389 3.22016 -1.98074e-19)
(0.132706 3.23111 0)
(0.0195998 3.13751 2.35987e-19)
(0.0745258 3.15995 9.01607e-19)
(0.0671684 3.18534 -4.44802e-19)
(0.0224444 3.12964 0)
(0.588829 0.281637 0)
(0.519942 0.301487 0)
(1.14555 0.698917 1.31855e-19)
(1.13947 0.820313 -1.16213e-19)
(1.20217 0.58574 0)
(1.22998 0.520359 0)
(1.01604 0.013374 -1.19593e-18)
(1.01498 0.0142797 1.50127e-18)
(1.02538 -0.00980737 0)
(1.02344 -0.011852 0)
(1.00642 0.00263234 0)
(1.01041 0.00374258 0)
(1.00458 0.00186552 0)
(1.00979 0.00624996 0)
(1.00781 0.00596594 0)
(1.00451 0.00471719 0)
(0.102211 1.36748 0)
(0.0980767 1.33063 0)
(0.133094 1.40494 0)
(0.15118 1.40975 0)
(0.14565 2.59442 0)
(0.185367 2.66449 -4.2375e-19)
(0.101597 2.64983 0)
(0.0853156 2.65273 1.98198e-19)
(0.0387203 2.67566 -1.48792e-19)
(0.0148751 1.32071 0)
(0.0216725 1.24438 0)
(0.0177248 1.33043 0)
(0.0346109 1.26802 0)
(0.00397043 1.98419 3.10056e-21)
(-0.0203121 2.60642 -1.8388e-20)
(-0.00848102 2.66262 1.40151e-20)
(-0.018429 2.68178 0)
(-0.0232117 2.61231 -5.52008e-21)
(-0.0233684 2.60721 1.25548e-20)
(0.0128393 1.98264 5.47053e-22)
(-0.00711118 2.39445 2.467e-20)
(-0.0131714 2.41648 -1.5895e-20)
(1.01007 0.0391571 1.21217e-18)
(1.00528 0.0176282 -1.50901e-18)
(1.00421 0.0450894 -1.23384e-18)
(0.97702 0.0355905 1.55258e-18)
(1.06431 0.00845892 0)
(1.04943 -0.00823984 0)
(1.09452 0.0352626 0)
(1.07445 0.0130224 0)
(1.07228 0.000559204 0)
(1.14048 0.0833849 0)
(1.11199 0.0447526 0)
(1.11579 0.0326194 0)
(-0.0254923 2.4303 1.00548e-21)
(-0.0140585 2.01224 0)
(-0.0168605 2.21519 0)
(-0.0204356 2.60105 -1.06205e-20)
(-0.0176583 2.611 1.81502e-22)
(0.00307119 1.57322 -3.52482e-20)
(-0.00585042 1.50149 3.5909e-20)
(-0.0151539 1.39031 0)
(-0.0187424 1.39695 0)
(-0.0238349 1.39161 0)
(-0.00314381 1.31164 0)
(0.00924853 1.23762 0)
(0.386575 1.49891 2.7305e-19)
(0.429724 1.49981 1.44736e-19)
(0.597546 2.44437 -2.40395e-19)
(0.398416 2.54147 7.07701e-19)
(0.34947 2.05317 7.16988e-20)
(1.02107 -0.00810724 0)
(1.01551 -0.00974432 0)
(1.01492 -0.0155022 0)
(1.00741 -0.00107586 0)
(1.00493 -0.000909166 0)
(1.00778 -0.00468747 0)
(1.00927 -0.00361073 0)
(1.01422 -0.00437115 0)
(1.02043 0.0163467 1.17183e-18)
(1.01766 0.0155227 -1.49758e-18)
(1.0207 0.0183877 -1.18097e-18)
(1.01829 0.0163691 1.47908e-18)
(0.784277 1.32465 0)
(0.720735 1.37479 2.45933e-19)
(0.896158 1.22403 9.71722e-20)
(0.942026 1.16904 -1.293e-19)
(1.15463 2.59986 2.79012e-19)
(0.769437 0.123527 5.99699e-19)
(1.16361 0.10918 0)
(1.2126 0.194708 -4.67995e-19)
(1.19974 0.155487 -1.99167e-20)
(1.00624 0.157241 0)
(0.129506 2.95879 5.31775e-19)
(0.105778 2.86482 -1.15662e-18)
(0.0142618 2.37309 7.73255e-19)
(0.0955098 -0.151873 -3.30113e-19)
(0.33599 3.4144 -2.14904e-19)
(0.190868 3.30908 0)
(0.234781 3.34973 2.79882e-19)
(0.240074 3.03119 -1.77704e-18)
(0.33354 3.18941 0)
(0.00715898 3.12088 4.6086e-20)
(0.0165989 3.1298 -5.43207e-19)
(0.0153223 3.12584 7.99508e-19)
(0.0351784 3.13973 0)
(0.0334653 3.15038 0)
(1.2104 2.59752 0)
(0.545629 0.805872 -5.28413e-19)
(1.06575 0.993367 -8.00318e-21)
(1.0003 1.07806 0)
(0.853353 0.973632 -1.10042e-19)
(1.09129 0.894379 2.79335e-20)
(0.314128 0.338026 -8.54401e-19)
(0.65924 0.324334 -1.74512e-20)
(0.561875 0.222701 4.07573e-19)
(0.546191 0.337066 2.99315e-20)
(0.438233 0.277688 -1.20298e-18)
(0.619999 0.325438 0)
(0.707355 0.422662 6.94064e-19)
(0.710321 0.425974 0)
(0.584707 0.339706 0)
(0.514766 0.247799 0)
(0.825562 0.624103 4.11317e-19)
(1.23852 0.28992 -4.89531e-19)
(1.23854 0.42867 0)
(1.24686 0.369257 0)
(0.688129 0.195524 6.20239e-19)
(0.872705 0.552775 -3.76613e-19)
(0.770052 0.524515 6.70004e-19)
(0.962429 0.445534 -7.37212e-19)
(1.0192 0.0149637 8.02939e-19)
(1.01758 0.0143511 -8.08528e-19)
(1.0159 0.0153784 0)
(1.0365 -0.00558289 0)
(1.02991 -0.0083649 -7.5742e-19)
(1.02796 -0.0119546 7.49888e-19)
(1.02486 0.0105301 0)
(1.02336 0.014291 0)
(1.01141 0.00416184 0)
(1.01419 0.00915455 0)
(1.01515 0.00417382 0)
(1.01426 0.00289458 0)
(0.069857 1.35084 0)
(0.0747563 1.29665 0)
(0.149297 1.38615 1.01535e-20)
(0.282393 1.47989 8.94526e-20)
(0.177843 1.4508 1.88286e-19)
(0.210855 1.45587 -3.0699e-19)
(0.174718 1.41098 0)
(0.136793 1.59919 -7.24317e-20)
(0.118746 1.57821 0)
(0.345946 2.00291 -1.04251e-19)
(0.34208 2.33879 6.15381e-19)
(0.194026 1.46379 6.31403e-20)
(0.269302 1.39631 2.32773e-20)
(0.202672 1.38925 -1.88101e-20)
(0.278656 1.33885 -1.0403e-19)
(0.243536 1.57924 0)
(0.267776 1.61637 1.13026e-19)
(0.0309183 2.25969 -2.88194e-20)
(0.0438349 2.66478 0)
(0.0666626 2.39602 1.35177e-19)
(0.0633738 2.41683 0)
(0.0697008 2.66633 -2.1964e-19)
(0.0492652 2.69494 0)
(0.0266818 1.43553 3.1893e-20)
(0.0352961 1.4875 0)
(0.0285806 1.40289 0)
(0.0235595 1.40767 -3.59874e-20)
(0.000446208 2.64889 -1.71544e-20)
(0.0298162 2.69414 1.67046e-19)
(0.0103371 2.71926 1.17769e-21)
(0.00342623 1.83618 -2.7003e-21)
(-0.00201266 1.68984 -3.22814e-21)
(0.011358 1.30024 0)
(0.0206908 1.22138 0)
(0.0474976 1.59362 -2.59541e-20)
(0.0323297 1.46897 -3.32377e-20)
(0.037159 1.53289 4.11036e-20)
(0.0412246 1.61734 0)
(-0.029252 2.2696 9.53123e-20)
(-0.0302755 2.54801 -4.00228e-20)
(-0.0160817 2.44556 3.8219e-21)
(-0.00315297 1.85219 3.27131e-21)
(-0.0253037 2.4976 1.92437e-21)
(-0.0203784 2.44124 9.07187e-22)
(1.01851 0.0212379 -8.03305e-19)
(1.01427 0.0279019 8.04963e-19)
(1.01326 0.0171156 0)
(1.01121 0.0710856 1.12702e-18)
(0.991817 0.0596103 -1.26297e-18)
(0.950482 0.056381 1.41194e-18)
(1.01428 0.112259 -1.50427e-19)
(1.04294 -0.00557567 0)
(1.05134 -0.00119774 7.22374e-19)
(1.03921 -0.0097574 -7.2384e-19)
(1.07181 0.0428523 -4.29509e-20)
(1.06497 0.02417 3.70387e-19)
(1.06343 0.0570395 0)
(1.0539 0.0502787 -1.33192e-19)
(1.03254 0.0431625 0)
(1.02594 0.0400122 0)
(1.02786 0.0136411 0)
(1.02379 0.0162834 0)
(1.04036 0.0330379 2.74353e-19)
(1.03902 0.0278066 -6.06766e-19)
(1.05132 0.0345917 -2.9078e-19)
(1.04844 0.0346798 -3.20283e-19)
(1.07159 0.0653 6.24899e-19)
(1.09708 0.0530599 0)
(1.10608 0.0971942 0)
(-0.024906 2.27469 5.33637e-20)
(-0.0239773 2.01773 7.60559e-22)
(-0.020052 2.02519 0)
(-0.0265567 2.44381 -5.31223e-20)
(-0.0215469 2.39994 -1.71907e-21)
(-0.0328316 2.47147 5.24406e-21)
(-0.0207056 2.6199 -1.13474e-20)
(-0.0228705 2.56168 2.88567e-23)
(-0.0212324 2.5133 -2.97185e-21)
(-0.01583 2.61394 1.00509e-20)
(-0.0208611 2.61586 -1.0691e-20)
(-0.00568289 1.49473 -6.14666e-22)
(0.00385054 1.62165 -3.32113e-20)
(0.371624 1.44671 -1.15454e-19)
(0.371448 1.38083 3.71704e-20)
(0.661308 1.42554 -2.37913e-19)
(0.528841 1.49264 -1.4243e-19)
(0.587173 1.45811 0)
(0.593347 2.42139 2.07085e-19)
(0.661724 2.41676 3.37662e-19)
(0.41123 2.51092 8.78201e-20)
(0.402524 2.5354 -6.10216e-19)
(0.51017 2.47661 6.14597e-19)
(0.55325 2.45816 0)
(0.488091 2.51569 -5.59649e-19)
(0.248509 2.58812 1.14439e-18)
(0.354804 2.56014 -7.74734e-20)
(0.284034 2.64981 -1.58749e-18)
(0.948013 2.37467 7.27137e-19)
(0.8382 2.37975 0)
(1.01107 0.000526071 2.62533e-20)
(1.01535 -0.00537147 -2.12959e-20)
(1.01767 -0.00347832 -3.88952e-19)
(1.01504 -0.000839779 3.91056e-19)
(1.01246 0.00125892 0)
(0.647283 1.29055 0)
(0.670248 1.18416 0)
(0.78419 1.10271 0)
(0.663341 1.14772 0)
(1.18469 2.61343 5.9713e-20)
(1.07265 2.36067 0)
(0.834264 2.1656 3.8343e-21)
(0.823676 2.43094 0)
(0.921733 2.52468 -4.22194e-19)
(0.956948 2.48081 2.80845e-19)
(0.79826 0.184051 0)
(0.741504 0.15649 1.62816e-19)
(0.908161 0.152141 9.47826e-19)
(0.823402 0.156186 -3.54722e-19)
(0.779024 0.0908893 -1.09567e-18)
(1.0826 0.24122 -8.92291e-19)
(1.00007 0.303579 -1.75958e-20)
(0.929376 0.307171 8.60006e-19)
(1.00795 0.234082 7.21462e-19)
(0.948389 0.198862 -1.254e-18)
(0.911121 0.203092 1.56814e-19)
(0.94943 0.269494 -3.32708e-19)
(0.926837 0.23046 0)
(0.995885 0.195081 6.18481e-19)
(1.04754 0.194306 0)
(1.04506 0.222517 0)
(1.10752 0.121351 2.89888e-19)
(1.07182 0.181148 -1.50026e-20)
(1.07609 0.241292 -1.57813e-19)
(1.1019 0.207331 0)
(1.02346 0.0464155 6.1675e-19)
(1.0392 0.060264 7.71711e-19)
(1.0347 0.0464932 -6.12294e-19)
(1.04307 0.0679204 -5.17483e-19)
(1.02057 0.0757043 -7.93807e-19)
(0.98582 0.160563 0)
(0.991014 0.106163 0)
(0.965189 0.0739252 -5.01658e-19)
(0.905467 0.0982269 1.99328e-19)
(1.03992 0.107896 7.16162e-19)
(1.06976 0.124953 -8.36138e-19)
(1.07641 0.157392 7.46654e-19)
(1.03101 0.150774 0)
(1.07536 0.112482 0)
(1.05453 0.0934321 -3.4274e-19)
(1.04332 0.0978087 -5.84851e-19)
(0.578863 1.05624 1.39855e-19)
(0.604682 1.38168 -4.13324e-20)
(1.15456 2.72919 -2.27428e-19)
(1.22023 3.07153 1.99756e-21)
(1.24638 2.71224 -1.24051e-19)
(1.27493 2.69555 -3.17859e-20)
(1.2024 2.33578 -1.10344e-20)
(1.20794 2.9754 -9.35944e-20)
(1.22804 2.94089 2.34575e-19)
(1.21037 3.22445 -1.42839e-19)
(1.37008 2.95537 1.97385e-19)
(1.35881 2.87346 0)
(0.562633 0.814595 -5.03156e-20)
(0.111264 1.22713 5.69577e-19)
(0.556648 0.362069 5.58229e-19)
(0.395093 0.109499 6.0658e-19)
(0.481573 0.317922 6.81733e-19)
(0.544724 0.435617 -1.10111e-18)
(0.546829 0.432137 9.01504e-19)
(0.467771 0.319676 -3.42415e-19)
(0.348336 0.24807 7.75304e-19)
(0.712259 0.268658 -3.58108e-19)
(0.672109 0.292521 0)
(0.614392 0.207943 6.83821e-21)
(0.742125 0.506631 3.65422e-19)
(0.719159 0.477427 -1.32951e-18)
(0.622652 0.446138 1.15049e-20)
(0.620753 0.436866 0)
(0.692265 0.717998 3.97037e-19)
(0.854024 0.778585 3.95449e-19)
(0.77767 0.861274 -4.62714e-19)
(0.899806 0.81597 -1.5466e-19)
(0.930895 0.861285 -3.73864e-20)
(0.937997 0.861029 3.82866e-20)
(0.866402 0.658731 -6.80828e-19)
(0.94643 0.712529 1.43615e-19)
(1.00581 0.727818 0)
(0.996823 0.704454 -1.9404e-19)
(1.02976 0.343951 2.12315e-19)
(1.14936 0.306077 2.88082e-19)
(1.07049 0.278508 3.64691e-19)
(1.01875 0.376343 -4.3097e-19)
(1.06721 0.438863 0)
(1.12314 0.420991 0)
(0.923794 0.380124 1.62329e-21)
(0.840679 0.316198 0)
(0.885181 0.311773 4.06712e-19)
(0.91078 0.315728 -7.92125e-21)
(0.956606 0.448879 2.05366e-18)
(0.917497 0.504301 5.28674e-19)
(0.922517 0.471086 -5.633e-19)
(0.838726 0.457532 6.04271e-19)
(0.822847 0.450185 3.61984e-19)
(0.794067 0.432935 -3.56082e-19)
(1.0274 -0.000205631 6.47939e-19)
(1.02 9.26401e-05 0)
(1.01854 0.00101918 4.22499e-19)
(1.02174 -0.00152016 -9.57067e-19)
(1.02236 0.00451999 4.64957e-19)
(1.02031 0.011546 -9.73642e-19)
(1.0212 0.0109085 0)
(1.02044 0.0111184 -2.02931e-19)
(1.01593 0.00785585 5.09111e-19)
(1.01659 0.0106424 -2.54036e-19)
(1.01729 0.0099924 1.87079e-19)
(0.028317 1.32417 0)
(0.0350552 1.37761 0)
(0.0464193 1.32623 0)
(0.0505295 1.27371 0)
(0.074973 1.40005 -5.04525e-20)
(0.0820086 1.36698 2.2433e-20)
(0.118838 1.54426 -1.3382e-20)
(0.103262 1.38937 -6.25729e-21)
(0.0375253 1.47468 1.70753e-20)
(0.0416542 1.46847 -1.30865e-20)
(0.0662659 1.38589 -9.93894e-21)
(0.0580281 1.38725 4.57271e-20)
(0.0495027 1.36263 6.78746e-21)
(0.041116 1.38449 3.59172e-21)
(0.107771 2.36453 -1.49251e-19)
(0.0967964 2.4128 0)
(0.170959 2.03875 1.0828e-19)
(0.114249 1.70565 3.92831e-20)
(0.234246 2.03459 -9.00312e-20)
(0.200662 2.42583 0)
(0.26281 2.37577 -6.06575e-19)
(0.302861 2.37344 4.28692e-19)
(0.22986 1.99466 -2.50001e-19)
(0.155758 2.1539 1.70186e-19)
(0.141997 2.26118 0)
(0.0191262 1.87875 4.75328e-21)
(0.000303951 2.38947 -3.39654e-20)
(0.00684328 2.14748 0)
(0.01165 2.45268 -1.36366e-20)
(0.0285975 2.29582 9.20448e-21)
(0.0150822 1.41507 -6.84374e-21)
(0.012897 1.39753 1.14657e-19)
(0.0129051 1.40365 -3.76903e-20)
(0.0208511 1.40767 -3.2145e-20)
(0.0250906 1.43923 0)
(0.00907999 1.38506 0)
(0.00185657 1.29696 -4.55106e-20)
(0.00529114 1.3769 1.28959e-20)
(0.00886312 1.37692 0)
(0.00769648 1.28903 -3.42231e-20)
(0.0180848 1.21286 6.94303e-20)
(1.04082 0.0121323 0)
(1.04704 0.00836049 -6.77723e-20)
(1.03872 0.0222997 -4.8923e-19)
(1.04857 0.0211218 0)
(1.0525 0.0209807 0)
(1.03636 0.0123254 -6.85593e-21)
(1.03099 0.0121475 7.8632e-19)
(1.03164 0.0171594 9.53297e-19)
(1.02544 0.021055 0)
(1.02213 0.0214342 0)
(1.03523 0.0260374 4.87808e-19)
(1.02546 0.0278829 0)
(1.02353 0.0279297 0)
(-0.0181934 2.02273 0)
(0.000924537 1.65233 -4.34135e-21)
(-0.0046223 1.75989 -3.01771e-20)
(-0.000871553 1.38584 0)
(-0.00663509 1.55314 -1.80898e-20)
(-0.00874749 1.46282 1.1392e-20)
(-0.00537366 1.39917 0)
(0.388657 1.64419 0)
(0.374051 1.30721 -7.26162e-20)
(0.300997 1.34075 0)
(0.425928 1.30577 7.8799e-21)
(0.476405 1.47001 0)
(0.456758 1.41438 2.45831e-20)
(1.03643 2.67554 -1.53728e-20)
(0.968439 2.40345 -9.13888e-19)
(0.921526 2.19167 1.02528e-18)
(0.852212 2.37168 2.42156e-19)
(0.847806 2.48507 0)
(0.917544 2.48129 0)
(0.931362 2.3682 0)
(0.910316 2.35733 -9.448e-19)
(0.686882 2.449 -3.94824e-19)
(0.799996 2.43851 -9.77895e-20)
(0.810312 2.41268 7.43013e-20)
(0.695595 2.38992 0)
(0.800814 2.38521 0)
(0.758996 2.39862 -3.68848e-19)
(0.767607 2.47479 0)
(0.630019 1.0936 0)
(0.48057 0.90142 -5.11932e-19)
(0.566623 0.945052 -3.24022e-20)
(0.519157 1.03485 0)
(0.519605 0.978327 7.66754e-19)
(0.798473 0.884139 -1.30166e-19)
(0.80772 1.02053 0)
(0.782816 0.986918 1.86018e-19)
(0.666806 1.03395 0)
(0.668114 0.935737 0)
(1.16352 2.75226 -2.30056e-19)
(1.14097 2.81559 -9.72653e-20)
(0.929062 2.33001 1.00645e-19)
(0.89687 2.30936 -8.33783e-20)
(1.12907 2.72524 0)
(1.08289 2.69471 1.00313e-19)
(1.08901 2.47863 -3.13971e-19)
(0.983509 2.23151 -3.03818e-20)
(0.492264 1.33113 0)
(0.507942 1.06103 -1.23271e-19)
(0.575797 1.16717 0)
(0.853817 0.248654 0)
(0.761212 0.198352 0)
(0.673752 0.155649 0)
(0.844967 0.2508 -6.40173e-19)
(0.734159 0.241636 3.7362e-19)
(0.922291 0.0895631 -4.11213e-19)
(0.927448 0.131918 0)
(0.913987 0.140712 1.7766e-19)
(0.851019 0.117945 7.10586e-19)
(0.81577 0.0793904 -4.45279e-19)
(1.15575 3.34945 -7.17983e-19)
(1.20467 3.26893 0)
(1.15351 3.37836 -1.48771e-18)
(0.641882 3.53983 1.26227e-18)
(0.863542 3.10842 7.17e-20)
(0.521806 0.802526 6.05311e-19)
(0.42437 0.799777 0)
(0.309248 0.391031 -1.49079e-19)
(0.471302 0.651575 8.5758e-19)
(0.559851 0.364899 -1.96473e-19)
(0.515104 0.467213 2.31427e-19)
(0.674193 0.511888 4.93518e-19)
(0.712568 0.549923 0)
(0.662769 0.576493 0)
(0.627261 0.526972 0)
(1.00748 0.614357 8.89203e-20)
(0.92238 0.553743 -5.14678e-19)
(0.947714 0.585485 3.87976e-19)
(0.978482 0.525424 -3.98319e-19)
(1.08596 0.494433 0)
(1.09438 0.585189 -9.7128e-20)
(0.85896 0.410524 -8.30596e-19)
(0.858216 0.39959 -1.03028e-18)
(0.793853 0.393547 6.44085e-19)
(0.80479 0.37387 -6.54063e-19)
(0.846118 0.334953 -5.19598e-19)
(0.793735 0.336966 6.35798e-19)
(1.02667 0.00610001 -4.93613e-19)
(1.02637 0.0063204 1.00338e-18)
(1.02945 0.00025002 6.27892e-19)
(1.03369 0.00116483 -7.56169e-19)
(1.03381 0.00932741 0)
(1.03005 0.0100275 -1.23132e-18)
(0.063974 1.64271 1.94254e-20)
(0.0508328 1.59078 0)
(0.0900826 1.69216 1.20118e-19)
(0.0986963 1.67356 -1.057e-19)
(0.093161 1.54982 2.50693e-20)
(0.0931592 1.54895 0)
(0.0114722 1.68575 0)
(-0.00403735 1.49333 7.09503e-21)
(-0.00193977 1.43924 -6.383e-21)
(-0.00737017 1.54993 5.37672e-21)
(0.0018639 1.88413 1.06073e-20)
(-0.00996444 1.9372 -1.55763e-21)
(0.496606 1.35788 -2.7599e-19)
(0.49013 1.35825 3.03201e-19)
(0.453059 1.30139 -3.16341e-20)
(0.436333 1.28442 7.77707e-21)
(0.639482 1.308 0)
(0.555294 1.39835 1.04744e-19)
(0.570446 1.40586 -1.01965e-19)
(0.466714 1.29066 3.08365e-20)
(0.521037 1.24074 0)
(0.572663 1.20349 0)
(0.653791 2.40855 5.79994e-19)
(0.669465 2.44998 1.26086e-18)
(0.713909 2.46065 -8.68805e-19)
(0.610168 2.43453 -2.01976e-19)
(0.559976 2.52494 2.83905e-19)
(0.509261 2.4997 -7.57603e-19)
(0.978182 2.37495 -5.73785e-19)
(1.01239 2.38715 0)
(0.925726 2.16973 -6.59596e-19)
(1.05386 2.67372 0)
(1.05614 2.66032 0)
(0.599319 2.25783 -1.26372e-19)
(1.03676 3.15423 1.28892e-19)
(0.907921 3.0246 -3.23254e-20)
(0.264828 0.851274 0)
(0.291907 0.695345 -3.17389e-19)
(0.461528 0.65497 -3.19149e-19)
(0.379163 2.00226 0)
(0.46237 2.77899 -4.99123e-20)
(0.416095 2.54165 0)
(0.714897 0.668093 -8.39004e-19)
(0.799449 0.684938 1.12498e-18)
(0.819536 0.626212 -1.11155e-18)
(0.692207 0.631184 -1.07616e-19)
(0.747291 0.588888 -4.41388e-19)
(1.00057 2.75338 -9.80255e-20)
(1.04138 2.81438 -1.65148e-19)
(0.632025 2.12226 6.95898e-19)
(0.584741 1.69062 -4.95826e-19)
(0.693921 1.88967 -4.06902e-19)
(0.986845 2.43722 -1.12905e-19)
(0.993721 2.43022 2.96327e-19)
(0.64993 1.82343 2.82695e-20)
(0.441404 1.3112 1.44374e-19)
)
;

boundaryField
{
    wall-4
    {
        type            noSlip;
    }
    velocity-inlet-5
    {
        type            fixedValue;
        value           uniform (1 0 0);
    }
    velocity-inlet-6
    {
        type            fixedValue;
        value           uniform (0 3 0);
    }
    pressure-outlet-7
    {
        type            zeroGradient;
    }
    wall-8
    {
        type            noSlip;
    }
    frontAndBackPlanes
    {
        type            empty;
    }
}


// ************************************************************************* //
