/*--------------------------------*- C++ -*----------------------------------*\
| =========                 |                                                 |
| \\      /  F ield         | OpenFOAM: The Open Source CFD Toolbox           |
|  \\    /   O peration     | Version:  4.0                                   |
|   \\  /    A nd           | Web:      www.OpenFOAM.org                      |
|    \\/     M anipulation  |                                                 |
\*---------------------------------------------------------------------------*/
FoamFile
{
    version     2.0;
    format      ascii;
    class       volScalarField;
    location    "72";
    object      p;
}
// * * * * * * * * * * * * * * * * * * * * * * * * * * * * * * * * * * * * * //

dimensions      [0 2 -2 0 0 0 0];

internalField   nonuniform List<scalar> 
2200
(
0.772664
0.751166
0.735264
0.719603
0.705001
0.692495
0.682159
0.674079
0.668396
0.665519
0.666057
0.669871
0.676267
0.684859
0.695557
0.708344
0.723145
0.73908
0.755128
0.776627
0.705081
0.701824
0.698902
0.69479
0.689338
0.682879
0.676282
0.670359
0.6659
0.663585
0.664131
0.66747
0.672676
0.679154
0.686161
0.692929
0.698602
0.702705
0.705557
0.70892
0.665135
0.665357
0.667426
0.668781
0.669183
0.668344
0.666383
0.66374
0.661241
0.659795
0.660412
0.662943
0.666265
0.669521
0.671873
0.672882
0.672615
0.671621
0.669983
0.669735
0.642633
0.644087
0.646684
0.649139
0.651595
0.653632
0.65481
0.655071
0.654743
0.654519
0.655202
0.656668
0.657919
0.658346
0.657689
0.656039
0.653895
0.651718
0.649112
0.647709
0.62823
0.630202
0.633026
0.635876
0.638754
0.641607
0.644097
0.646001
0.647274
0.64812
0.648935
0.64948
0.649306
0.648254
0.646428
0.644081
0.641553
0.63884
0.636054
0.634132
0.620833
0.622432
0.624644
0.627188
0.629872
0.632564
0.635188
0.637649
0.639726
0.641312
0.642283
0.642398
0.641633
0.640176
0.638325
0.636217
0.633911
0.631578
0.629485
0.62791
0.617349
0.618371
0.61965
0.621534
0.623702
0.6259
0.628138
0.630486
0.632784
0.634726
0.635862
0.63598
0.635283
0.634141
0.6328
0.631279
0.629607
0.628048
0.626942
0.625925
0.614612
0.61528
0.615921
0.61724
0.61888
0.620602
0.622407
0.624403
0.626562
0.628633
0.630016
0.630446
0.630225
0.629681
0.628964
0.628067
0.627051
0.626149
0.625714
0.625036
0.611272
0.611716
0.612122
0.613138
0.61443
0.615857
0.617412
0.619161
0.62113
0.623228
0.624902
0.625833
0.626212
0.626248
0.626038
0.625623
0.625085
0.624585
0.624411
0.623945
0.607111
0.607406
0.607772
0.608661
0.609801
0.611116
0.612611
0.614304
0.61623
0.618424
0.620478
0.621966
0.622882
0.623382
0.62356
0.623498
0.623259
0.62297
0.622858
0.622531
0.602254
0.602453
0.602831
0.603681
0.60481
0.606168
0.607761
0.609599
0.611703
0.614137
0.616627
0.618656
0.620044
0.620897
0.621355
0.62154
0.621493
0.621362
0.621276
0.621034
0.596914
0.597059
0.59744
0.598272
0.599447
0.600927
0.602706
0.604794
0.607234
0.610097
0.613156
0.615729
0.617545
0.618737
0.619451
0.619823
0.619992
0.620014
0.619962
0.619766
0.591103
0.59121
0.591594
0.592433
0.593692
0.595338
0.597368
0.599807
0.602731
0.606209
0.609911
0.613075
0.615352
0.616904
0.617921
0.618563
0.618957
0.619118
0.619111
0.618936
0.584867
0.584928
0.585322
0.586205
0.587588
0.589432
0.591745
0.594591
0.598081
0.602309
0.606837
0.610678
0.61351
0.61552
0.61694
0.617905
0.618549
0.618866
0.6189
0.618731
0.578092
0.578127
0.578556
0.579475
0.580996
0.583044
0.585655
0.588962
0.593129
0.598222
0.603785
0.608498
0.612002
0.614608
0.61653
0.617902
0.618822
0.619303
0.619387
0.619216
0.570635
0.570592
0.57103
0.572066
0.573817
0.576151
0.579163
0.58304
0.588003
0.594155
0.600801
0.606599
0.610989
0.61431
0.616817
0.618631
0.619868
0.620524
0.62066
0.620483
0.562249
0.562254
0.562689
0.563812
0.565818
0.568489
0.571985
0.576536
0.58241
0.589813
0.597893
0.604953
0.610451
0.61463
0.617817
0.620175
0.621772
0.622603
0.622792
0.6226
0.552703
0.552718
0.553178
0.554454
0.55676
0.559861
0.563988
0.569402
0.576427
0.585282
0.595083
0.60368
0.610428
0.615645
0.619627
0.622571
0.624577
0.625606
0.625849
0.625637
0.541653
0.541623
0.542198
0.543696
0.546358
0.55005
0.555008
0.561512
0.569963
0.580679
0.592446
0.602895
0.611066
0.617417
0.622277
0.625934
0.628407
0.629623
0.629909
0.62967
0.528503
0.528436
0.529129
0.531005
0.534223
0.538693
0.544728
0.552662
0.562935
0.575891
0.590065
0.602508
0.612313
0.619973
0.625876
0.630302
0.63327
0.634689
0.635004
0.634734
0.512886
0.512773
0.513556
0.515803
0.519808
0.525405
0.532906
0.54273
0.555351
0.571015
0.58798
0.602766
0.614402
0.623452
0.63046
0.635742
0.63923
0.640814
0.641138
0.640837
0.493941
0.493862
0.494884
0.497667
0.502639
0.509685
0.519153
0.531472
0.54708
0.566067
0.586161
0.603564
0.617128
0.627774
0.636055
0.642265
0.646262
0.647998
0.64829
0.647957
0.470557
0.47041
0.47175
0.475387
0.481837
0.491006
0.503226
0.51889
0.538228
0.561139
0.584854
0.605071
0.620799
0.633066
0.642615
0.649767
0.654225
0.656056
0.656273
0.655921
0.44039
0.440419
0.442551
0.447668
0.456533
0.468961
0.485081
0.505057
0.528876
0.556281
0.58403
0.607335
0.625296
0.639265
0.650163
0.65818
0.66296
0.664807
0.664909
0.664548
0.400734
0.400984
0.404562
0.412634
0.425515
0.442897
0.46437
0.489805
0.519019
0.551624
0.583775
0.610262
0.630519
0.646267
0.658443
0.667227
0.672171
0.6739
0.673868
0.673521
0.347869
0.348367
0.355545
0.368912
0.388379
0.413076
0.44163
0.473795
0.509321
0.547645
0.584362
0.614078
0.636634
0.654045
0.667448
0.676721
0.681424
0.68271
0.682547
0.682266
0.27891
0.281616
0.296999
0.318962
0.347485
0.381117
0.417896
0.457561
0.499943
0.544517
0.586299
0.619711
0.644926
0.664382
0.67898
0.688594
0.692887
0.693547
0.693432
0.693214
0.200537
0.210379
0.236025
0.267638
0.306358
0.349258
0.394339
0.441696
0.491303
0.542611
0.58995
0.627506
0.655724
0.677145
0.692996
0.70259
0.706218
0.706336
0.706354
0.706214
0.13046
0.145087
0.17758
0.218394
0.266882
0.318677
0.371822
0.426946
0.483814
0.541663
0.594359
0.63577
0.666675
0.689858
0.706532
0.715755
0.71882
0.718686
0.718835
0.718744
0.0770147
0.0909073
0.127882
0.174762
0.230786
0.290255
0.35093
0.413372
0.477095
0.541244
0.599219
0.644348
0.677529
0.702175
0.719581
0.729015
0.731416
0.73154
0.731788
0.731744
0.0328814
0.0459376
0.0869224
0.137821
0.199392
0.264911
0.332059
0.40097
0.470988
0.541198
0.604204
0.652863
0.688383
0.71464
0.732847
0.742532
0.745151
0.745639
0.745711
0.74579
-0.00431358
0.008646
0.0523254
0.106248
0.172177
0.242521
0.315143
0.389757
0.465515
0.541319
0.609011
0.661126
0.69918
0.726967
0.746376
0.756598
0.759756
0.760266
0.760249
0.760334
-0.0368899
-0.0236671
0.0221717
0.0787136
0.148311
0.222714
0.300051
0.379636
0.460516
0.541421
0.61364
0.669188
0.709586
0.739091
0.75974
0.770266
0.773674
0.774114
0.774141
0.774191
-0.0654883
-0.0524301
-0.0048141
0.0541546
0.126957
0.204861
0.286265
0.370195
0.455694
0.541408
0.618228
0.677105
0.719517
0.750334
0.771934
0.782916
0.786504
0.787023
0.787048
0.787089
-0.0916017
-0.0785129
-0.0295537
0.031747
0.107383
0.18839
0.273397
0.361175
0.450976
0.541485
0.622703
0.684431
0.728719
0.760869
0.782904
0.794278
0.798202
0.798781
0.798808
0.798828
-0.115532
-0.102441
-0.0526096
0.010896
0.0890608
0.172856
0.261069
0.352396
0.446299
0.541211
0.626294
0.691002
0.73731
0.770352
0.7927
0.80463
0.808639
0.809306
0.809311
0.809313
-0.138078
-0.124665
-0.0742298
-0.00875541
0.0715963
0.157918
0.249093
0.343691
0.441217
0.539979
0.629071
0.696937
0.745015
0.779144
0.801712
0.813764
0.817898
0.818607
0.818598
0.818582
-0.159364
-0.14559
-0.0946544
-0.0274683
0.0547696
0.143391
0.237213
0.334671
0.435376
0.537871
0.631257
0.702294
0.752327
0.787289
0.809989
0.822082
0.826044
0.82679
0.826753
0.826719
-0.179462
-0.165682
-0.114053
-0.045404
0.0384265
0.129062
0.225202
0.325181
0.428844
0.535078
0.632656
0.707057
0.759272
0.795312
0.817908
0.829419
0.833238
0.833934
0.833901
0.833846
-0.198647
-0.184791
-0.132594
-0.0627393
0.0224382
0.11482
0.212975
0.315238
0.421714
0.531512
0.633166
0.711276
0.76625
0.803273
0.825525
0.836403
0.83974
0.840244
0.840174
0.8401
-0.217358
-0.203087
-0.150425
-0.0795626
0.00675059
0.100622
0.200557
0.304948
0.414051
0.527139
0.632827
0.71492
0.773074
0.811764
0.83363
0.843176
0.845596
0.845612
0.845585
0.845582
-0.235625
-0.220679
-0.167681
-0.0959514
-0.0086579
0.0865154
0.188039
0.294369
0.405835
0.521916
0.631552
0.717984
0.779883
0.820834
0.842628
0.850569
0.850898
0.850472
0.850095
0.849973
-0.253497
-0.237833
-0.184459
-0.111905
-0.0237409
0.0725611
0.17547
0.283504
0.397077
0.515861
0.629238
0.720266
0.786462
0.83082
0.853697
0.859408
0.857348
0.855849
0.855854
0.856858
-0.270756
-0.25454
-0.200767
-0.127428
-0.0384799
0.0588036
0.16289
0.272375
0.387789
0.508984
0.625797
0.721554
0.792757
0.841522
0.867019
0.87198
0.866853
0.859901
0.855459
0.854929
-0.287449
-0.270819
-0.216579
-0.142476
-0.052827
0.0452815
0.150325
0.261013
0.378037
0.501376
0.621195
0.721509
0.798068
0.85275
0.882943
0.888995
0.883268
0.87346
0.874322
0.8785
-0.303487
-0.286523
-0.231819
-0.157028
-0.0667706
0.0320195
0.13783
0.249509
0.367909
0.493091
0.615421
0.719901
0.802129
0.86352
0.900425
0.910834
0.903433
0.874279
0.837944
0.806701
-0.318884
-0.30169
-0.246522
-0.171143
-0.0804007
0.0189007
0.125271
0.237714
0.357229
0.483932
0.608314
0.716298
0.80376
0.872995
0.919138
0.936766
0.942347
0.914169
0.931852
0.99504
-0.333561
-0.316279
-0.260755
-0.184977
-0.0939218
0.00569088
0.11239
0.22532
0.345568
0.473329
0.599227
0.709857
0.802005
0.878164
0.930772
0.953562
0.950241
0.919321
0.873816
0.892099
-0.347532
-0.330326
-0.274495
-0.198475
-0.107244
-0.0074987
0.0993165
0.212448
0.333024
0.461315
0.588087
0.700201
0.794455
0.87439
0.928952
0.952704
0.92864
0.867127
0.800104
0.786764
-0.360759
-0.343758
-0.287718
-0.211642
-0.120377
-0.0206715
0.0860622
0.199118
0.319602
0.447849
0.574742
0.68694
0.78074
0.85769
0.907391
0.905155
0.863155
0.779958
0.702365
0.675369
-0.373303
-0.356636
-0.300464
-0.224486
-0.133321
-0.0338221
0.0726297
0.185322
0.305312
0.43293
0.559064
0.669706
0.759056
0.824924
0.849982
0.83046
0.762981
0.65691
0.566706
0.541486
-0.385577
-0.369281
-0.313077
-0.237361
-0.146427
-0.0472667
0.0587423
0.170837
0.289979
0.416398
0.540806
0.647981
0.730308
0.779607
0.771443
0.73112
0.61166
0.484722
0.374315
0.344366
-0.398437
-0.382546
-0.326269
-0.250848
-0.160212
-0.0614495
0.0440138
0.155335
0.273356
0.398055
0.519692
0.621209
0.696208
0.719636
0.684558
0.589517
0.428365
0.271842
0.13934
0.10923
-0.412364
-0.396678
-0.340272
-0.265177
-0.174872
-0.0765156
0.0283495
0.138783
0.255451
0.377916
0.495657
0.590352
0.654587
0.648267
0.594656
0.438799
0.235489
0.0200906
-0.161976
-0.212767
-0.4275
-0.411937
-0.355236
-0.28036
-0.190355
-0.092411
0.0117959
0.121215
0.236318
0.356072
0.468693
0.556787
0.60566
0.567442
0.477376
0.285841
0.0528506
-0.237433
-0.55864
-0.709074
-0.443892
-0.428228
-0.371178
-0.296515
-0.206775
-0.109241
-0.00573973
0.102571
0.21591
0.332535
0.439004
0.520299
0.55063
0.482065
0.341775
0.134525
-0.09985
-0.444039
-1.02839
-1.59878
-0.461657
-0.445861
-0.388295
-0.313686
-0.224109
-0.126964
-0.0241977
0.0829229
0.194374
0.307678
0.407776
0.480863
0.491453
0.4068
0.211817
-0.0225098
-0.225359
-0.459524
-1.00982
-2.50715
-0.480786
-0.46466
-0.406553
-0.332029
-0.24258
-0.145826
-0.0438512
0.0619915
0.17138
0.281139
0.374889
0.438129
0.427071
0.347426
0.118075
-0.11982
-0.26822
-0.305955
-0.294971
-0.678124
-0.50124
-0.485073
-0.426282
-0.351806
-0.262508
-0.166263
-0.0652762
0.039015
0.145986
0.25161
0.339377
0.391769
0.364186
0.295907
0.068005
-0.134252
-0.245537
-0.254184
-0.201698
-0.241643
-0.522883
-0.506618
-0.447291
-0.373122
-0.284079
-0.188488
-0.0887031
0.0137947
0.117973
0.218898
0.30144
0.343342
0.308926
0.240736
0.0350902
-0.125266
-0.207987
-0.216404
-0.26414
-0.268167
-0.545686
-0.529592
-0.469718
-0.395935
-0.307179
-0.212442
-0.114115
-0.0137171
0.0873187
0.183392
0.260838
0.292745
0.260928
0.178438
0.00659464
-0.11623
-0.187075
-0.164044
-0.184497
-0.186185
-0.569351
-0.552977
-0.493184
-0.42019
-0.331792
-0.238161
-0.141528
-0.0434386
0.0541612
0.145455
0.217925
0.238595
0.219053
0.110435
-0.0290546
-0.111908
-0.151509
-0.199426
-0.173646
-0.182302
-0.593852
-0.577055
-0.517796
-0.445656
-0.357556
-0.265389
-0.170678
-0.075136
0.0186484
0.105415
0.173574
0.183548
0.175577
0.0491295
-0.0662963
-0.130374
-0.108514
-0.168005
-0.148511
-0.153572
-0.617956
-0.600979
-0.54322
-0.472002
-0.384305
-0.294022
-0.201379
-0.108508
-0.0189875
0.0636924
0.128958
0.131192
0.123033
-0.00223134
-0.0936166
-0.145182
-0.132448
-0.148281
-0.153411
-0.151722
-0.641492
-0.624658
-0.568951
-0.498509
-0.41155
-0.323579
-0.233151
-0.143141
-0.0582187
0.0206207
0.0844267
0.0828891
0.0657235
-0.0448291
-0.10722
-0.139509
-0.177214
-0.149036
-0.154583
-0.149015
-0.663266
-0.647155
-0.5935
-0.524295
-0.439165
-0.353657
-0.265556
-0.178513
-0.0982178
-0.0234571
0.0398643
0.0390275
0.00971319
-0.079362
-0.120056
-0.114419
-0.186701
-0.129197
-0.144275
-0.136376
-0.682788
-0.667802
-0.616275
-0.548419
-0.466471
-0.383352
-0.297889
-0.21406
-0.138041
-0.0680769
-0.00516678
-0.00155012
-0.0355592
-0.098012
-0.126845
-0.0876558
-0.133662
-0.115149
-0.121152
-0.117807
-0.69832
-0.684944
-0.636088
-0.570472
-0.492493
-0.411877
-0.329388
-0.248981
-0.17675
-0.112448
-0.050473
-0.0395178
-0.0671154
-0.0990231
-0.114775
-0.0924149
-0.106227
-0.110386
-0.111721
-0.111799
-0.709155
-0.697916
-0.652487
-0.58956
-0.515531
-0.438132
-0.359163
-0.28252
-0.213637
-0.155392
-0.0948675
-0.0745901
-0.0897827
-0.0958698
-0.104287
-0.113472
-0.107482
-0.112133
-0.111321
-0.112398
-0.713834
-0.704965
-0.663727
-0.604451
-0.534635
-0.461144
-0.386118
-0.31345
-0.24782
-0.195197
-0.135972
-0.10837
-0.117057
-0.0964953
-0.106162
-0.132332
-0.117352
-0.122563
-0.117611
-0.118973
-0.712471
-0.705666
-0.66886
-0.613663
-0.548317
-0.479451
-0.4091
-0.340793
-0.278705
-0.230057
-0.172464
-0.140312
-0.139902
-0.109631
-0.118161
-0.156346
-0.127476
-0.136459
-0.130066
-0.131665
-0.70411
-0.69687
-0.665108
-0.615737
-0.555991
-0.492277
-0.426821
-0.362797
-0.304287
-0.258398
-0.203315
-0.168269
-0.152457
-0.117864
-0.079031
-0.069702
-0.0692088
-0.0771306
-0.0789954
-0.0820293
-0.682864
-0.674571
-0.651196
-0.609491
-0.556224
-0.498337
-0.438505
-0.378642
-0.322915
-0.278301
-0.225977
-0.184682
-0.160113
-0.149196
-0.139809
-0.169934
-0.180045
-0.176994
-0.17463
-0.16986
-0.639924
-0.632215
-0.624107
-0.594551
-0.550031
-0.498467
-0.443603
-0.386891
-0.33236
-0.287362
-0.236582
-0.186299
-0.208395
-0.279263
-0.446175
-0.596194
-0.620291
-0.606967
-0.555954
-0.507525
-0.600112
-0.597471
-0.595901
-0.573564
-0.538001
-0.493539
-0.443162
-0.388445
-0.332099
-0.282564
-0.23296
-0.161526
-0.175478
-0.252893
-0.373586
-0.420394
-0.383428
-0.323345
-0.278999
-0.258079
-0.576851
-0.578691
-0.568406
-0.55573
-0.527466
-0.486871
-0.438149
-0.383943
-0.32332
-0.263077
-0.206678
-0.100249
0.0229953
0.19884
0.363235
0.533601
0.663685
0.738559
0.780978
0.817305
-0.546536
-0.546019
-0.543547
-0.542588
-0.518923
-0.481877
-0.433954
-0.377433
-0.31118
-0.236409
-0.161005
-0.0326992
0.163644
0.461656
0.747882
0.990697
1.16683
1.26671
1.31263
1.32731
-0.535342
-0.533502
-0.536967
-0.528599
-0.511939
-0.478662
-0.43041
-0.371298
-0.300593
-0.214196
-0.120503
0.0036133
0.227967
0.541345
0.846538
1.10322
1.29451
1.40399
1.45208
1.4686
-0.52077
-0.519279
-0.522836
-0.514476
-0.510978
-0.477912
-0.427703
-0.366132
-0.292869
-0.200039
-0.0969959
0.0096029
0.227681
0.506306
0.780053
1.01605
1.20114
1.31205
1.36128
1.37485
-0.50936
-0.509233
-0.50843
-0.507693
-0.506095
-0.477218
-0.429554
-0.366781
-0.29105
-0.196755
-0.0939808
-0.00896397
0.177887
0.416072
0.643461
0.838747
0.996684
1.09336
1.13562
1.14607
-0.505585
-0.50634
-0.504076
-0.507789
-0.501123
-0.475908
-0.430016
-0.369455
-0.295626
-0.205096
-0.10668
-0.0390158
0.109399
0.309861
0.492924
0.645066
0.768019
0.844664
0.877184
0.884899
-0.500939
-0.501906
-0.500793
-0.505131
-0.50055
-0.481886
-0.436704
-0.376029
-0.304319
-0.220248
-0.127546
-0.0705104
0.0403976
0.205681
0.350623
0.465901
0.557443
0.615757
0.640482
0.646512
-0.490617
-0.490168
-0.487868
-0.48733
-0.480553
-0.479696
-0.444026
-0.385297
-0.315094
-0.237577
-0.150399
-0.0994261
-0.0201977
0.113676
0.226965
0.3135
0.380413
0.423824
0.44098
0.444673
-0.496775
-0.493415
-0.488243
-0.481758
-0.47832
-0.481515
-0.446992
-0.391076
-0.322186
-0.25194
-0.171121
-0.124064
-0.0702268
0.0370509
0.124615
0.189072
0.238602
0.27085
0.282797
0.286809
-0.528645
-0.525531
-0.523467
-0.523106
-0.525328
-0.516298
-0.460492
-0.395707
-0.324402
-0.260545
-0.18696
-0.143273
-0.10751
-0.0221751
0.0445007
0.0927481
0.130717
0.155709
0.165062
0.167487
-0.585791
-0.588566
-0.596579
-0.605345
-0.603118
-0.569726
-0.480611
-0.401238
-0.322578
-0.262186
-0.19689
-0.156648
-0.131243
-0.0637317
-0.0135479
0.0224919
0.0508833
0.0683608
0.0760841
0.0782095
-0.59004
-0.59546
-0.610001
-0.623962
-0.621733
-0.573934
-0.480758
-0.393511
-0.313527
-0.255332
-0.199295
-0.163108
-0.142037
-0.0901406
-0.0533063
-0.0266972
-0.00674362
0.00471799
0.00941535
0.0101565
-0.491647
-0.498085
-0.516268
-0.527472
-0.52761
-0.491942
-0.426267
-0.35808
-0.290439
-0.237481
-0.192739
-0.162311
-0.142051
-0.104405
-0.0782922
-0.0600853
-0.0475158
-0.040973
-0.0389336
-0.039384
-0.327569
-0.333688
-0.342519
-0.351278
-0.35437
-0.341465
-0.315434
-0.283392
-0.24364
-0.207168
-0.176267
-0.15361
-0.135232
-0.109253
-0.0920575
-0.0809596
-0.0742765
-0.0717713
-0.0719143
-0.0729735
-0.164313
-0.167258
-0.172699
-0.181782
-0.190873
-0.195803
-0.196853
-0.193493
-0.181178
-0.166568
-0.150465
-0.136799
-0.123976
-0.107294
-0.097302
-0.0919448
-0.0897501
-0.090004
-0.0914133
-0.0927382
-0.040954
-0.0426004
-0.0465284
-0.0550568
-0.0685115
-0.0843113
-0.100392
-0.113966
-0.120244
-0.123044
-0.11905
-0.11428
-0.108852
-0.099985
-0.0958563
-0.0947505
-0.095522
-0.0974682
-0.0993739
-0.100753
0.0337916
0.0326262
0.0297929
0.0215881
0.00595043
-0.0148779
-0.0367504
-0.0568012
-0.0714378
-0.0839169
-0.0875398
-0.0896999
-0.0910063
-0.0880078
-0.0889156
-0.0912323
-0.0938779
-0.09652
-0.0984421
-0.0997518
0.068407
0.0676793
0.0655863
0.0583487
0.0433395
0.0221465
-0.000762751
-0.0224253
-0.039194
-0.0543825
-0.0606733
-0.0664096
-0.0724536
-0.074067
-0.0786191
-0.0830776
-0.0867916
-0.0896503
-0.0914133
-0.0926024
0.078547
0.0780034
0.0763889
0.0705324
0.0579584
0.0394313
0.018219
-0.00295298
-0.0198051
-0.0351036
-0.0416362
-0.0477131
-0.0551549
-0.060449
-0.0669949
-0.0724928
-0.076627
-0.0795488
-0.0810637
-0.0820968
0.0753461
0.0749756
0.0737678
0.0693528
0.059686
0.045041
0.0272732
0.0081477
-0.00780274
-0.0228341
-0.0293833
-0.0346345
-0.0416521
-0.0483871
-0.0554393
-0.0610666
-0.0652512
-0.0681227
-0.0693401
-0.0701736
0.0660131
0.065786
0.0648975
0.061721
0.0546158
0.0437102
0.029976
0.0141895
0.000330331
-0.0140873
-0.0209411
-0.0256199
-0.0319351
-0.0383581
-0.0449286
-0.0501091
-0.0539601
-0.0565839
-0.0575467
-0.0581979
0.0544555
0.0543425
0.0537109
0.0515366
0.0464917
0.0386404
0.0285447
0.0164767
0.00574
-0.007111
-0.01411
-0.0187921
-0.0243722
-0.0297837
-0.0355046
-0.0399631
-0.043278
-0.0455429
-0.046277
-0.0467672
0.0426938
0.0426737
0.0422355
0.04083
0.037385
0.0318919
0.0246626
0.015726
0.00816481
-0.00210516
-0.00806788
-0.0125557
-0.0175883
-0.0220988
-0.026952
-0.0307007
-0.0334795
-0.035382
-0.0359881
-0.0363643
0.0316202
0.0316264
0.0313236
0.0304534
0.0281914
0.0245177
0.019516
0.0130185
0.00800538
0.000475213
-0.00350984
-0.00696479
-0.0111859
-0.0150756
-0.0192687
-0.0223589
-0.0245893
-0.0260831
-0.0265349
-0.0268145
0.0215236
0.0215388
0.0213527
0.0208642
0.0194521
0.0171596
0.0139545
0.00945462
0.00639525
0.0011816
-0.0010609
-0.00317791
-0.00617777
-0.00909628
-0.0124864
-0.0148789
-0.016552
-0.0176355
-0.0179923
-0.0182321
0.012256
0.012278
0.0122253
0.0120652
0.0113318
0.0100969
0.00842702
0.00565251
0.00413668
0.000867913
-0.000241722
-0.00119556
-0.00293253
-0.0045659
-0.00703174
-0.00852206
-0.00955333
-0.0101592
-0.0102396
-0.0104066
0.00392899
0.00395077
0.00396064
0.00402189
0.00386603
0.0034801
0.00303806
0.00184128
0.00154438
0.000137565
3.00468e-05
-4.09231e-05
-0.000862822
-0.00129361
-0.00282123
-0.00350328
-0.00422543
-0.0045781
-0.00432601
-0.00429212
-1.07667
-0.242651
0.027116
0.300995
0.479229
0.631152
0.751382
0.874432
1.01206
1.09787
-0.102625
0.301082
0.314701
0.501088
0.62122
0.728968
0.82116
0.903761
0.930294
0.889343
0.26855
0.480108
0.512384
0.647528
0.730608
0.808095
0.872086
0.920253
0.921876
0.936576
0.494113
0.634556
0.668624
0.768018
0.824131
0.87992
0.923861
0.955747
0.964589
0.988494
0.66894
0.768323
0.797923
0.863547
0.907762
0.947569
0.979172
1.00324
1.01287
1.04462
0.810067
0.877693
0.907744
0.949635
0.985241
1.01484
1.0388
1.05951
1.07347
1.10189
0.927836
0.977742
1.00305
1.03056
1.05781
1.08133
1.10111
1.12034
1.13513
1.16173
1.03075
1.06742
1.08829
1.10871
1.12927
1.1485
1.16584
1.18395
1.1988
1.22249
1.12423
1.15317
1.16938
1.18454
1.20053
1.21653
1.23205
1.24894
1.26256
1.28489
1.21221
1.2326
1.24738
1.2605
1.27403
1.28776
1.30126
1.31585
1.32739
1.34702
1.29752
1.31328
1.32708
1.33887
1.35077
1.3624
1.37354
1.3852
1.39288
1.40967
1.3827
1.39524
1.40894
1.42068
1.43132
1.44111
1.44993
1.45818
1.46174
1.47297
1.47143
1.48226
1.49573
1.50525
1.51281
1.52011
1.52728
1.53374
1.53485
1.5422
1.56983
1.57444
1.58263
1.58735
1.59075
1.59522
1.60122
1.60886
1.61277
1.62265
1.6831
1.66999
1.6627
1.657
1.65427
1.65561
1.66191
1.67428
1.68911
1.71879
1.80507
1.74902
1.718
1.70081
1.69259
1.69251
1.70139
1.72102
1.75278
1.82207
)
;

boundaryField
{
    wall-4
    {
        type            zeroGradient;
    }
    pressure-outlet-7
    {
        type            fixedValue;
        value           uniform 0;
    }
    velocity-inlet-6
    {
        type            zeroGradient;
    }
    velocity-inlet-5
    {
        type            zeroGradient;
    }
    frontAndBackPlanes
    {
        type            empty;
    }
}


// ************************************************************************* //
