/*--------------------------------*- C++ -*----------------------------------*\
| =========                 |                                                 |
| \\      /  F ield         | OpenFOAM: The Open Source CFD Toolbox           |
|  \\    /   O peration     | Version:  4.0                                   |
|   \\  /    A nd           | Web:      www.OpenFOAM.org                      |
|    \\/     M anipulation  |                                                 |
\*---------------------------------------------------------------------------*/
FoamFile
{
    version     2.0;
    format      ascii;
    class       volScalarField;
    location    "0.001";
    object      mag(U);
}
// * * * * * * * * * * * * * * * * * * * * * * * * * * * * * * * * * * * * * //

dimensions      [0 1 -1 0 0 0 0];

internalField   nonuniform List<scalar> 
100
(
4.3616e-13
1.44414e-13
4.34702e-13
1.45873e-13
2.53934e-28
4.3616e-13
1.44414e-13
5.80575e-13
5.23224e-28
0
1.25275e-28
2.90287e-13
0
1.44414e-13
2.72943e-29
1.45873e-13
2.90287e-13
0
2.90287e-13
1.22342e-28
1.25275e-28
2.90287e-13
0
2.90287e-13
1.27467e-28
1.23992e-13
1.45873e-15
1.25451e-13
4.95968e-14
6.5497e-13
8.40958e-12
9.96108e-11
1.02791e-09
1.11177e-08
1.03041e-07
9.90534e-07
8.12064e-06
6.79911e-05
0.000483533
0.00343137
0.0205995
0.119053
0.577547
2.54024
8.70894
23.8312
52.103
94.9727
148.651
195.254
236.032
273.968
306.496
315.957
284.419
188.615
54.3075
7.86522
1.07846
0.140851
0.0177319
0.00211798
0.000239099
2.53555e-05
2.54394e-06
2.39991e-07
2.15592e-08
1.82645e-09
1.48203e-10
1.09215e-11
7.62917e-13
1.89635e-14
1.22084e-32
0
1.45873e-13
1.45873e-13
0
0
1.45873e-13
1.67515e-30
1.45873e-13
1.45873e-13
1.45873e-13
1.45873e-13
1.67515e-30
1.45873e-13
1.45873e-13
1.45873e-13
1.45873e-13
1.67515e-30
1.45873e-13
0
0
0
0
0
0
3.10949e-29
1.45873e-13
1.44414e-13
)
;

boundaryField
{
    sides
    {
        type            calculated;
        value           nonuniform List<scalar> 2(1.44414e-13 4.3616e-13);
    }
    empty
    {
        type            empty;
    }
}


// ************************************************************************* //
