/*--------------------------------*- C++ -*----------------------------------*\
| =========                 |                                                 |
| \\      /  F ield         | OpenFOAM: The Open Source CFD Toolbox           |
|  \\    /   O peration     | Version:  4.0                                   |
|   \\  /    A nd           | Web:      www.OpenFOAM.org                      |
|    \\/     M anipulation  |                                                 |
\*---------------------------------------------------------------------------*/
FoamFile
{
    version     2.0;
    format      ascii;
    class       surfaceScalarField;
    location    "0.001";
    object      phi;
}
// * * * * * * * * * * * * * * * * * * * * * * * * * * * * * * * * * * * * * //

dimensions      [1 0 -1 0 0 0 0];

internalField   nonuniform List<scalar> 
99
(
-1.34293e-12
7.24754e-13
1.08002e-12
2.70006e-13
-7.88702e-13
-1.34293e-12
1.03029e-12
1.07292e-12
0
0
-5.18696e-13
-6.82121e-13
3.76588e-13
2.34479e-13
3.12639e-13
-2.55795e-13
-6.89226e-13
6.82121e-13
5.11591e-13
0
-5.18696e-13
-6.89226e-13
6.82121e-13
5.32907e-13
2.27374e-13
2.98428e-13
-2.77112e-13
-2.06057e-13
1.03029e-12
1.32161e-11
1.58948e-10
1.68752e-09
1.82432e-08
1.74727e-07
1.68154e-06
1.42942e-05
0.00012015
0.00088959
0.00636955
0.0400184
0.235589
1.20719
5.53496
21.4524
67.202
150.324
269.226
385.043
470.547
504.067
476.72
442.279
403.261
381.991
325.911
74.2045
13.7897
1.85407
0.244746
0.0316453
0.00393222
0.000462639
5.13616e-05
5.36119e-06
5.29092e-07
4.91974e-08
4.35199e-09
3.63945e-10
2.90035e-11
2.09965e-12
1.34559e-13
2.66454e-15
-1.33227e-15
4.44089e-14
-1.77636e-15
-3.24185e-14
-8.88178e-16
3.37508e-14
4.35207e-14
-4.26326e-14
-6.57252e-14
-4.44089e-16
6.92779e-14
4.35207e-14
-4.26326e-14
-6.57252e-14
-4.44089e-16
6.92779e-14
4.35207e-14
-4.26326e-14
-3.86358e-14
8.88178e-16
0
0
0
-8.88178e-16
4.44089e-16
-3.19744e-14
-8.17124e-14
)
;

boundaryField
{
    sides
    {
        type            calculated;
        value           nonuniform List<scalar> 2(-7.13044e-14 1.72295e-12);
    }
    empty
    {
        type            empty;
        value           nonuniform 0();
    }
}


// ************************************************************************* //
