/*--------------------------------*- C++ -*----------------------------------*\
| =========                 |                                                 |
| \\      /  F ield         | OpenFOAM: The Open Source CFD Toolbox           |
|  \\    /   O peration     | Version:  4.0                                   |
|   \\  /    A nd           | Web:      www.OpenFOAM.org                      |
|    \\/     M anipulation  |                                                 |
\*---------------------------------------------------------------------------*/
FoamFile
{
    version     2.0;
    format      ascii;
    class       volVectorField;
    location    "0.001";
    object      U;
}
// * * * * * * * * * * * * * * * * * * * * * * * * * * * * * * * * * * * * * //

dimensions      [0 1 -1 0 0 0 0];

internalField   nonuniform List<vector> 
100
(
(-4.3616e-13 0 0)
(-1.44414e-13 0 0)
(4.34702e-13 0 0)
(1.45873e-13 0 0)
(-2.53934e-28 0 0)
(-4.3616e-13 0 0)
(-1.44414e-13 0 0)
(5.80575e-13 0 0)
(5.23224e-28 0 0)
(0 0 0)
(-1.25275e-28 0 0)
(-2.90287e-13 0 0)
(0 0 0)
(1.44414e-13 0 0)
(2.72943e-29 0 0)
(1.45873e-13 0 0)
(-2.90287e-13 0 0)
(0 0 0)
(2.90287e-13 0 0)
(1.22342e-28 0 0)
(-1.25275e-28 0 0)
(-2.90287e-13 0 0)
(0 0 0)
(2.90287e-13 0 0)
(1.27467e-28 0 0)
(1.23992e-13 0 0)
(1.45873e-15 0 0)
(-1.25451e-13 0 0)
(4.95968e-14 0 0)
(6.5497e-13 0 0)
(8.40958e-12 0 0)
(9.96108e-11 0 0)
(1.02791e-09 0 0)
(1.11177e-08 0 0)
(1.03041e-07 0 0)
(9.90534e-07 0 0)
(8.12064e-06 0 0)
(6.79911e-05 0 0)
(0.000483533 0 0)
(0.00343137 0 0)
(0.0205995 0 0)
(0.119053 0 0)
(0.577547 0 0)
(2.54024 0 0)
(8.70894 0 0)
(23.8312 0 0)
(52.103 0 0)
(94.9727 0 0)
(148.651 0 0)
(195.254 0 0)
(236.032 0 0)
(273.968 0 0)
(306.496 0 0)
(315.957 0 0)
(284.419 0 0)
(188.615 0 0)
(54.3075 0 0)
(7.86522 0 0)
(1.07846 0 0)
(0.140851 0 0)
(0.0177319 0 0)
(0.00211798 0 0)
(0.000239099 0 0)
(2.53555e-05 0 0)
(2.54394e-06 0 0)
(2.39991e-07 0 0)
(2.15592e-08 0 0)
(1.82645e-09 0 0)
(1.48203e-10 0 0)
(1.09215e-11 0 0)
(7.62917e-13 0 0)
(1.89635e-14 0 0)
(1.22084e-32 0 0)
(0 0 0)
(1.45873e-13 0 0)
(-1.45873e-13 0 0)
(0 0 0)
(0 0 0)
(1.45873e-13 0 0)
(1.67515e-30 0 0)
(-1.45873e-13 0 0)
(-1.45873e-13 0 0)
(1.45873e-13 0 0)
(1.45873e-13 0 0)
(1.67515e-30 0 0)
(-1.45873e-13 0 0)
(-1.45873e-13 0 0)
(1.45873e-13 0 0)
(1.45873e-13 0 0)
(1.67515e-30 0 0)
(-1.45873e-13 0 0)
(0 0 0)
(0 0 0)
(0 0 0)
(0 0 0)
(0 0 0)
(0 0 0)
(-3.10949e-29 0 0)
(-1.45873e-13 0 0)
(-1.44414e-13 0 0)
)
;

boundaryField
{
    sides
    {
        type            zeroGradient;
    }
    empty
    {
        type            empty;
    }
}


// ************************************************************************* //
