/*--------------------------------*- C++ -*----------------------------------*\
| =========                 |                                                 |
| \\      /  F ield         | OpenFOAM: The Open Source CFD Toolbox           |
|  \\    /   O peration     | Version:  4.0                                   |
|   \\  /    A nd           | Web:      www.OpenFOAM.org                      |
|    \\/     M anipulation  |                                                 |
\*---------------------------------------------------------------------------*/
FoamFile
{
    version     2.0;
    format      ascii;
    class       surfaceScalarField;
    location    "0.001";
    object      phi;
}
// * * * * * * * * * * * * * * * * * * * * * * * * * * * * * * * * * * * * * //

dimensions      [1 0 -1 0 0 0 0];

internalField   nonuniform List<scalar> 
999
(
-9.66338e-13
-9.66338e-13
-9.66338e-13
-7.95808e-13
-1.36424e-12
-6.82121e-13
-1.13687e-13
-4.54747e-13
-6.25278e-13
-6.82121e-13
-7.38964e-13
-8.52651e-13
-1.13687e-13
-5.68434e-13
-9.09495e-13
-8.52651e-13
-6.82121e-13
-7.95808e-13
-4.54747e-13
2.84217e-13
6.82121e-13
2.84217e-13
1.7053e-13
0
-4.54747e-13
-4.54747e-13
-1.7053e-13
-1.7053e-13
-2.84217e-13
-3.97904e-13
1.7053e-13
6.82121e-13
1.13687e-12
6.82121e-13
3.41061e-13
9.09495e-13
6.25278e-13
1.13687e-12
1.36424e-12
7.38964e-13
6.82121e-13
5.68434e-13
2.27374e-13
-2.84217e-13
-5.11591e-13
-5.68434e-13
-1.02318e-12
-3.97904e-13
-3.97904e-13
-6.82121e-13
-4.54747e-13
-3.97904e-13
-9.09495e-13
-2.27374e-13
3.97904e-13
3.97904e-13
6.25278e-13
7.38964e-13
7.95808e-13
4.54747e-13
6.82121e-13
9.09495e-13
1.08002e-12
6.25278e-13
1.7053e-13
-7.95808e-13
-1.42109e-12
-2.21689e-12
-1.98952e-12
-1.59162e-12
-1.59162e-12
-1.47793e-12
-1.13687e-12
-3.41061e-13
-3.41061e-13
-2.84217e-13
-1.7053e-13
-5.68434e-14
4.54747e-13
-6.25278e-13
-6.82121e-13
1.7053e-13
3.41061e-13
1.02318e-12
1.13687e-12
7.95808e-13
5.68434e-13
5.11591e-13
4.54747e-13
4.54747e-13
5.11591e-13
-3.41061e-13
-1.13687e-13
1.13687e-13
6.25278e-13
1.13687e-13
-2.27374e-13
-3.97904e-13
-7.95808e-13
-6.82121e-13
-7.95808e-13
-2.27374e-13
4.54747e-13
2.84217e-13
6.82121e-13
1.08002e-12
7.95808e-13
6.82121e-13
5.68434e-13
-1.13687e-13
-3.97904e-13
-5.68434e-13
-5.68434e-13
-4.54747e-13
-7.95808e-13
-2.27374e-13
-1.7053e-13
2.84217e-13
6.25278e-13
5.68434e-13
0
-3.41061e-13
-5.11591e-13
-1.02318e-12
-8.52651e-13
-1.25056e-12
-6.82121e-13
-1.64846e-12
-1.02318e-12
-7.38964e-13
-7.95808e-13
-7.95808e-13
-3.97904e-13
-5.68434e-13
-7.95808e-13
-5.68434e-13
-3.41061e-13
-5.68434e-14
1.13687e-13
-3.97904e-13
-8.52651e-13
-1.13687e-12
-6.25278e-13
-1.02318e-12
-1.36424e-12
-1.3074e-12
-1.59162e-12
-1.3074e-12
-1.42109e-12
-1.19371e-12
-1.19371e-12
-6.82121e-13
-6.82121e-13
-6.25278e-13
-1.7053e-13
3.97904e-13
-2.27374e-13
-2.84217e-13
-5.11591e-13
-3.41061e-13
2.27374e-13
-5.68434e-14
-1.7053e-13
-5.68434e-14
-2.84217e-13
3.97904e-13
6.82121e-13
6.82121e-13
8.52651e-13
7.95808e-13
9.66338e-13
8.52651e-13
5.68434e-13
5.68434e-13
3.97904e-13
7.38964e-13
3.41061e-13
-5.11591e-13
-1.02318e-12
-8.52651e-13
-2.84217e-13
-5.68434e-13
-5.68434e-13
-2.27374e-13
1.13687e-13
1.13687e-13
3.41061e-13
-3.41061e-13
-5.11591e-13
0
-3.97904e-13
-1.7053e-13
-1.7053e-13
-3.41061e-13
5.68434e-13
8.52651e-13
5.68434e-13
-2.84217e-13
-5.68434e-14
-3.97904e-13
-1.47793e-12
-1.02318e-12
2.27374e-13
8.52651e-13
1.08002e-12
1.25056e-12
3.97904e-13
5.68434e-14
-3.41061e-13
-5.68434e-14
-1.13687e-13
-3.41061e-13
-5.68434e-13
3.97904e-13
6.82121e-13
8.52651e-13
6.82121e-13
7.38964e-13
7.95808e-13
6.82121e-13
7.38964e-13
-5.68434e-14
-6.82121e-13
-2.84217e-13
2.84217e-13
2.27374e-13
3.97904e-13
5.11591e-13
6.82121e-13
1.7053e-13
-5.68434e-13
-2.84217e-13
-2.84217e-13
-1.13687e-13
-1.13687e-13
3.41061e-13
7.38964e-13
8.52651e-13
7.38964e-13
1.87583e-12
1.53477e-12
9.66338e-13
1.08002e-12
6.25278e-13
1.7053e-13
3.41061e-13
9.09495e-13
2.84217e-13
-1.7053e-13
2.27374e-13
3.97904e-13
1.25056e-12
5.68434e-13
-1.7053e-13
-2.27374e-13
-4.54747e-13
-1.3074e-12
-1.25056e-12
-5.11591e-13
-3.97904e-13
-5.68434e-14
3.41061e-13
1.13687e-13
-1.13687e-13
-1.13687e-13
2.27374e-13
6.25278e-13
9.09495e-13
6.82121e-13
2.84217e-13
-6.82121e-13
-6.82121e-13
-6.25278e-13
-1.13687e-13
-1.7053e-13
1.7053e-13
5.68434e-14
-5.68434e-14
-5.11591e-13
-9.66338e-13
-9.66338e-13
-3.41061e-13
5.68434e-14
3.97904e-13
6.82121e-13
4.54747e-13
2.27374e-13
-3.41061e-13
-3.41061e-13
-2.27374e-13
-5.11591e-13
-1.59162e-12
-1.7053e-12
-1.76215e-12
-2.04636e-12
-1.87583e-12
-1.13687e-12
-7.38964e-13
-7.38964e-13
-1.47793e-12
-1.13687e-12
-9.09495e-13
-9.09495e-13
-1.25056e-12
-1.42109e-12
-1.98952e-12
-2.44427e-12
-2.44427e-12
-2.27374e-12
-2.72848e-12
-3.12639e-12
-2.55795e-12
-2.55795e-12
-2.44427e-12
-3.12639e-12
-2.89901e-12
-2.27374e-12
-2.44427e-12
-2.16005e-12
-1.93268e-12
-1.87583e-12
-1.19371e-12
-1.47793e-12
-1.64846e-12
-2.16005e-12
-2.04636e-12
-1.87583e-12
-2.16005e-12
-1.93268e-12
-1.81899e-12
-2.16005e-12
-1.7053e-12
-1.13687e-12
-1.08002e-12
-1.08002e-12
-9.09495e-13
1.13687e-13
1.13687e-13
3.97904e-13
5.11591e-13
5.68434e-13
2.84217e-13
-5.68434e-13
-1.02318e-12
-5.68434e-13
-9.09495e-13
-6.25278e-13
-2.27374e-13
-4.54747e-13
-7.38964e-13
-8.52651e-13
-4.54747e-13
-5.68434e-13
-7.95808e-13
-1.19371e-12
-1.25056e-12
-1.19371e-12
-1.25056e-12
-7.38964e-13
-7.38964e-13
-9.09495e-13
-8.52651e-13
-2.84217e-13
1.13687e-13
3.41061e-13
5.11591e-13
6.82121e-13
1.02318e-12
6.82121e-13
1.42109e-12
9.09495e-13
1.25056e-12
8.52651e-13
6.25278e-13
5.11591e-13
5.11591e-13
5.68434e-14
1.13687e-13
1.13687e-13
2.84217e-13
1.13687e-13
8.52651e-13
5.11591e-13
1.7053e-13
4.54747e-13
6.25278e-13
6.25278e-13
5.11591e-13
1.02318e-12
5.68434e-13
4.54747e-13
2.27374e-13
0
2.27374e-13
6.25278e-13
8.52651e-13
1.08002e-12
1.19371e-12
1.42109e-12
2.16005e-12
1.98952e-12
2.04636e-12
1.7053e-12
1.25056e-12
1.3074e-12
7.95808e-13
2.27374e-13
6.25278e-13
6.25278e-13
5.68434e-13
9.09495e-13
2.27374e-13
0
-1.13687e-13
5.68434e-14
1.7053e-13
5.68434e-13
6.82121e-13
2.55795e-12
5.91172e-12
1.7792e-11
5.07043e-11
1.41711e-10
3.92049e-10
1.06905e-09
2.88384e-09
7.68426e-09
2.02226e-08
5.2543e-08
1.34736e-07
3.40891e-07
8.50653e-07
2.09285e-06
5.07463e-06
1.2122e-05
2.85142e-05
6.60192e-05
0.000150381
0.000336828
0.000741451
0.00160313
0.00340252
0.00708431
0.0144597
0.0289107
0.0565787
0.108286
0.202498
0.36964
0.657968
1.14088
1.92498
3.15726
5.02894
7.77273
11.6506
16.931
23.857
32.6121
43.2897
55.8754
70.2459
86.1833
103.404
121.598
140.457
159.7
179.079
198.389
217.46
236.163
254.393
272.075
289.149
305.573
321.314
336.351
350.665
364.259
377.089
389.263
400.531
411.372
421.129
430.383
439.21
446.577
454.049
460.834
466.343
471.614
476.713
480.874
484.139
487.166
490.067
492.36
493.858
494.875
495.814
496.745
497.289
497.182
496.791
496.667
496.733
496.577
496.309
495.946
495.584
495.302
495.162
495.107
494.978
494.639
494.196
493.789
493.511
493.345
493.185
492.976
492.387
490.147
483.734
467.652
445.586
421.087
396.923
375.133
356.88
342.493
331.724
324.029
318.768
315.337
313.211
311.995
311.384
311.135
311.05
311.087
311.161
311.244
311.27
311.247
311.116
310.917
310.555
309.857
308.549
305.298
298.256
281.724
245.063
180.996
106.754
47.9986
16.5125
4.66013
1.199
0.300158
0.0747069
0.0185773
0.00461916
0.00114848
0.000285521
7.09718e-05
1.76376e-05
4.38199e-06
1.08831e-06
2.70174e-07
6.70369e-08
1.66235e-08
4.11943e-09
1.02003e-09
2.52371e-10
6.24212e-11
1.54472e-11
3.83693e-12
9.166e-13
2.20268e-13
-2.84217e-14
-6.39488e-14
-7.10543e-14
-1.13687e-13
-7.81597e-14
-7.10543e-14
-3.55271e-14
-7.10543e-14
-2.84217e-14
-4.26326e-14
-3.55271e-14
-6.39488e-14
7.10543e-15
3.55271e-14
-7.10543e-15
-1.42109e-14
-2.13163e-14
-1.42109e-14
5.68434e-14
-2.13163e-14
-4.9738e-14
-9.9476e-14
-4.9738e-14
-9.23706e-14
-1.27898e-13
-8.52651e-14
-3.55271e-14
-7.10543e-14
-1.06581e-13
-9.9476e-14
-6.39488e-14
-5.68434e-14
-5.68434e-14
-7.81597e-14
-5.68434e-14
-2.13163e-14
-2.84217e-14
-2.84217e-14
-8.52651e-14
3.55271e-14
4.26326e-14
4.26326e-14
-7.10543e-15
-1.42109e-14
-2.84217e-14
-3.55271e-14
-4.26326e-14
-7.10543e-15
-4.26326e-14
-5.68434e-14
-5.68434e-14
-6.39488e-14
-7.81597e-14
2.84217e-14
4.9738e-14
6.39488e-14
7.81597e-14
5.68434e-14
1.27898e-13
7.10543e-14
7.10543e-15
-7.81597e-14
-2.06057e-13
-2.13163e-13
-1.13687e-13
-3.55271e-14
-4.9738e-14
-3.55271e-14
-6.39488e-14
-7.81597e-14
-2.84217e-14
-6.39488e-14
-2.84217e-14
1.35003e-13
1.56319e-13
1.49214e-13
9.23706e-14
1.20792e-13
1.06581e-13
7.81597e-14
4.9738e-14
0
0
4.26326e-14
1.27898e-13
9.23706e-14
8.52651e-14
7.10543e-15
2.13163e-14
3.55271e-14
9.9476e-14
5.68434e-14
2.84217e-14
2.13163e-14
0
-7.10543e-15
-4.9738e-14
-2.84217e-14
6.39488e-14
1.56319e-13
1.77636e-13
1.84741e-13
2.4869e-13
2.41585e-13
3.83693e-13
3.55271e-13
2.84217e-13
2.84217e-13
3.48166e-13
3.69482e-13
3.76588e-13
3.55271e-13
3.12639e-13
3.33955e-13
2.06057e-13
2.55795e-13
2.27374e-13
1.20792e-13
1.56319e-13
1.56319e-13
1.56319e-13
1.91847e-13
1.56319e-13
1.49214e-13
1.63425e-13
7.10543e-14
1.49214e-13
3.55271e-14
8.52651e-14
1.35003e-13
1.35003e-13
8.52651e-14
7.10543e-14
1.20792e-13
1.42109e-13
1.7053e-13
7.10543e-14
3.55271e-14
-7.10543e-15
-1.13687e-13
-1.27898e-13
-1.13687e-13
-1.35003e-13
-1.13687e-13
-1.49214e-13
-1.27898e-13
-8.52651e-14
-9.9476e-14
-6.39488e-14
-1.13687e-13
-6.39488e-14
-4.9738e-14
-7.10543e-15
-1.42109e-14
-7.81597e-14
-8.52651e-14
-6.39488e-14
-2.84217e-14
-4.9738e-14
7.10543e-14
4.9738e-14
9.9476e-14
4.26326e-14
1.42109e-14
-7.81597e-14
-2.13163e-14
7.81597e-14
1.49214e-13
1.49214e-13
1.35003e-13
9.23706e-14
3.55271e-14
-4.9738e-14
-5.68434e-14
-1.13687e-13
-1.91847e-13
-1.63425e-13
-5.68434e-14
-1.06581e-13
-1.56319e-13
-1.13687e-13
-9.23706e-14
-6.39488e-14
-3.55271e-14
-2.84217e-14
7.10543e-15
7.10543e-15
1.42109e-14
4.9738e-14
4.9738e-14
8.52651e-14
2.13163e-14
4.9738e-14
1.42109e-14
-7.10543e-15
-7.10543e-15
3.55271e-14
7.81597e-14
8.52651e-14
6.39488e-14
7.10543e-15
-4.26326e-14
-1.06581e-13
-1.27898e-13
-1.49214e-13
-1.84741e-13
-9.23706e-14
-1.06581e-13
-1.20792e-13
-1.06581e-13
-9.23706e-14
-2.84217e-14
7.10543e-15
4.26326e-14
1.63425e-13
1.35003e-13
1.35003e-13
7.81597e-14
9.23706e-14
1.27898e-13
1.35003e-13
2.27374e-13
1.98952e-13
1.98952e-13
1.27898e-13
5.68434e-14
-1.42109e-14
-7.81597e-14
-7.10543e-14
-1.49214e-13
-1.27898e-13
-1.13687e-13
-7.81597e-14
2.84217e-14
5.68434e-14
-2.84217e-14
4.26326e-14
9.9476e-14
9.9476e-14
6.39488e-14
6.39488e-14
7.81597e-14
0
-7.10543e-14
-4.26326e-14
-8.52651e-14
-5.68434e-14
7.10543e-15
0
7.81597e-14
7.10543e-15
-3.55271e-14
-4.26326e-14
-4.9738e-14
1.42109e-14
-2.13163e-14
7.10543e-14
9.23706e-14
9.23706e-14
1.06581e-13
2.13163e-14
3.55271e-14
6.39488e-14
-3.55271e-14
-5.68434e-14
-4.26326e-14
8.52651e-14
1.42109e-14
-2.84217e-14
-1.42109e-14
-2.84217e-14
-7.10543e-14
-2.13163e-14
1.42109e-14
7.81597e-14
4.9738e-14
3.55271e-14
7.81597e-14
7.10543e-14
-7.10543e-15
-4.9738e-14
-2.13163e-14
-7.10543e-15
6.39488e-14
6.39488e-14
6.39488e-14
1.13687e-13
1.84741e-13
1.06581e-13
9.9476e-14
6.39488e-14
-5.68434e-14
-2.13163e-14
-9.23706e-14
-3.55271e-14
0
-6.39488e-14
-5.68434e-14
-2.13163e-14
8.52651e-14
1.56319e-13
2.34479e-13
1.27898e-13
1.20792e-13
7.81597e-14
3.55271e-14
7.81597e-14
2.84217e-14
-7.10543e-15
7.10543e-15
2.13163e-14
-7.10543e-15
-7.81597e-14
-2.84217e-14
-1.13687e-13
-9.9476e-14
-4.9738e-14
-2.13163e-14
-7.10543e-14
-2.13163e-14
-4.26326e-14
7.10543e-14
9.9476e-14
1.42109e-14
3.55271e-14
7.10543e-14
7.10543e-14
4.26326e-14
1.35003e-13
8.52651e-14
7.81597e-14
1.06581e-13
7.81597e-14
7.81597e-14
9.23706e-14
1.42109e-14
3.55271e-14
6.39488e-14
7.10543e-15
8.52651e-14
5.68434e-14
4.9738e-14
1.35003e-13
1.13687e-13
4.9738e-14
-1.42109e-14
3.55271e-14
7.81597e-14
8.52651e-14
9.23706e-14
9.9476e-14
4.26326e-14
3.55271e-14
5.68434e-14
-2.13163e-14
4.26326e-14
3.55271e-14
7.10543e-14
9.23706e-14
-2.84217e-14
1.42109e-14
4.26326e-14
-3.55271e-14
-2.84217e-14
-8.52651e-14
-1.06581e-13
-5.68434e-14
-2.13163e-14
7.10543e-14
4.9738e-14
1.27898e-13
-2.13163e-14
0
9.23706e-14
1.63425e-13
5.68434e-14
7.10543e-14
3.55271e-14
-6.39488e-14
-7.10543e-14
-2.84217e-14
-1.42109e-14
0
-6.39488e-14
-5.68434e-14
-1.27898e-13
-7.81597e-14
-1.06581e-13
-1.56319e-13
-1.13687e-13
-1.63425e-13
-1.49214e-13
-1.63425e-13
-1.91847e-13
-2.06057e-13
-2.20268e-13
-1.56319e-13
-1.35003e-13
-1.56319e-13
-1.77636e-13
-1.7053e-13
-8.52651e-14
-2.84217e-14
-4.26326e-14
-2.13163e-14
-1.42109e-14
-7.10543e-15
-2.84217e-14
-7.81597e-14
-4.9738e-14
-9.9476e-14
-1.06581e-13
-7.10543e-14
-1.27898e-13
-5.68434e-14
-2.84217e-14
-7.10543e-14
-8.52651e-14
)
;

boundaryField
{
    sides
    {
        type            calculated;
        value           nonuniform List<scalar> 2(-1.16415e-13 9.31323e-13);
    }
    empty
    {
        type            empty;
        value           nonuniform 0();
    }
}


// ************************************************************************* //
