/*--------------------------------*- C++ -*----------------------------------*\
| =========                 |                                                 |
| \\      /  F ield         | OpenFOAM: The Open Source CFD Toolbox           |
|  \\    /   O peration     | Version:  4.0                                   |
|   \\  /    A nd           | Web:      www.OpenFOAM.org                      |
|    \\/     M anipulation  |                                                 |
\*---------------------------------------------------------------------------*/
FoamFile
{
    version     2.0;
    format      ascii;
    class       volVectorField;
    location    "0.001";
    object      U;
}
// * * * * * * * * * * * * * * * * * * * * * * * * * * * * * * * * * * * * * //

dimensions      [0 1 -1 0 0 0 0];

internalField   nonuniform List<vector> 
1000
(
(-2.47984e-13 0 0)
(-1.75048e-13 0 0)
(-2.1881e-13 0 0)
(-2.91746e-13 0 0)
(-1.89635e-13 0 0)
(-3.64683e-13 0 0)
(-5.83492e-14 0 0)
(-5.83492e-14 0 0)
(-1.31286e-13 0 0)
(-1.75048e-13 0 0)
(-1.45873e-13 0 0)
(-2.33397e-13 0 0)
(-5.83492e-14 0 0)
(-5.83492e-14 0 0)
(-2.91746e-13 0 0)
(-1.02111e-13 0 0)
(-2.62571e-13 0 0)
(-4.37619e-14 0 0)
(-2.77159e-13 0 0)
(1.45873e-14 0 0)
(1.31286e-13 0 0)
(7.29365e-14 0 0)
(1.02111e-13 0 0)
(-5.83492e-14 0 0)
(2.91746e-14 0 0)
(-1.45873e-13 0 0)
(-7.29365e-14 0 0)
(-1.45873e-14 0 0)
(-8.75238e-14 0 0)
(-2.91746e-14 0 0)
(-1.02111e-13 0 0)
(1.45873e-13 0 0)
(2.33397e-13 0 0)
(2.77159e-13 0 0)
(7.29365e-14 0 0)
(1.89635e-13 0 0)
(1.6046e-13 0 0)
(2.33397e-13 0 0)
(3.93857e-13 0 0)
(1.6046e-13 0 0)
(2.91746e-13 0 0)
(4.37619e-14 0 0)
(1.45873e-13 0 0)
(4.37619e-14 0 0)
(-2.04222e-13 0 0)
(-2.15355e-27 0 0)
(-2.91746e-13 0 0)
(-1.45873e-13 0 0)
(-7.29365e-14 0 0)
(-7.29365e-14 0 0)
(-1.89635e-13 0 0)
(-2.91746e-14 0 0)
(-2.04222e-13 0 0)
(-1.89635e-13 0 0)
(1.02111e-13 0 0)
(2.91746e-14 0 0)
(1.75048e-13 0 0)
(7.29365e-14 0 0)
(2.91746e-13 0 0)
(7.29365e-14 0 0)
(2.47984e-13 0 0)
(8.75238e-14 0 0)
(3.06333e-13 0 0)
(1.75048e-13 0 0)
(1.31286e-13 0 0)
(-8.75238e-14 0 0)
(-2.62571e-13 0 0)
(-4.66794e-13 0 0)
(-5.25143e-13 0 0)
(-5.25143e-13 0 0)
(-2.47984e-13 0 0)
(-5.3973e-13 0 0)
(-2.33397e-13 0 0)
(-2.62571e-13 0 0)
(-1.45873e-14 0 0)
(-7.29365e-14 0 0)
(-2.91746e-14 0 0)
(-5.83492e-14 0 0)
(4.37619e-14 0 0)
(1.16698e-13 0 0)
(-3.35508e-13 0 0)
(-6.72109e-28 0 0)
(4.37619e-14 0 0)
(2.04222e-13 0 0)
(2.1881e-13 0 0)
(3.20921e-13 0 0)
(1.45873e-13 0 0)
(8.75238e-14 0 0)
(1.75048e-13 0 0)
(4.37619e-14 0 0)
(1.75048e-13 0 0)
(9.75032e-28 0 0)
(-5.83492e-14 0 0)
(-7.29365e-14 0 0)
(1.75048e-13 0 0)
(1.16698e-13 0 0)
(-7.29365e-14 0 0)
(-8.75238e-14 0 0)
(-7.29365e-14 0 0)
(-2.77159e-13 0 0)
(-1.31286e-13 0 0)
(-2.04222e-13 0 0)
(1.31286e-13 0 0)
(4.37619e-14 0 0)
(1.6046e-13 0 0)
(3.35508e-13 0 0)
(1.31286e-13 0 0)
(1.75048e-13 0 0)
(2.04222e-13 0 0)
(1.45873e-14 0 0)
(-7.29365e-14 0 0)
(-8.75238e-14 0 0)
(-2.1881e-13 0 0)
(-1.31286e-13 0 0)
(-1.75048e-13 0 0)
(-1.31286e-13 0 0)
(-2.91746e-14 0 0)
(-1.45873e-14 0 0)
(1.89635e-13 0 0)
(1.16698e-13 0 0)
(1.6046e-13 0 0)
(-1.75048e-13 0 0)
(-4.37619e-14 0 0)
(-2.33397e-13 0 0)
(-2.91746e-13 0 0)
(-2.77159e-13 0 0)
(-1.75048e-13 0 0)
(-3.06333e-13 0 0)
(-3.93857e-13 0 0)
(-1.16698e-13 0 0)
(-2.1881e-13 0 0)
(-2.47984e-13 0 0)
(-2.24668e-27 0 0)
(-2.91746e-13 0 0)
(-2.91746e-14 0 0)
(-2.47984e-13 0 0)
(-1.0413e-28 0 0)
(-1.75048e-13 0 0)
(8.75238e-14 0 0)
(-1.45873e-14 0 0)
(-2.33397e-13 0 0)
(-1.89635e-13 0 0)
(-2.62571e-13 0 0)
(-1.45873e-13 0 0)
(-3.64683e-13 0 0)
(-3.06333e-13 0 0)
(-3.93857e-13 0 0)
(-3.06333e-13 0 0)
(-3.35508e-13 0 0)
(-3.50095e-13 0 0)
(-2.47984e-13 0 0)
(-3.20921e-13 0 0)
(-3.20593e-27 0 0)
(-2.47984e-13 0 0)
(1.45873e-14 0 0)
(-4.37619e-14 0 0)
(8.75238e-14 0 0)
(-8.75238e-14 0 0)
(-1.02111e-13 0 0)
(-1.89635e-13 0 0)
(8.75238e-14 0 0)
(2.91746e-14 0 0)
(-5.83492e-14 0 0)
(2.91746e-14 0 0)
(-7.29365e-14 0 0)
(-1.45873e-14 0 0)
(1.6046e-13 0 0)
(1.31286e-13 0 0)
(1.75048e-13 0 0)
(1.75048e-13 0 0)
(2.62571e-13 0 0)
(1.89635e-13 0 0)
(2.91746e-13 0 0)
(-2.91746e-14 0 0)
(2.04222e-13 0 0)
(5.83492e-14 0 0)
(1.75048e-13 0 0)
(-4.37619e-14 0 0)
(-1.75048e-13 0 0)
(-2.62571e-13 0 0)
(-8.75238e-14 0 0)
(-8.75238e-14 0 0)
(-1.6046e-13 0 0)
(-1.02111e-13 0 0)
(2.91746e-14 0 0)
(1.45873e-14 0 0)
(8.75238e-14 0 0)
(2.91746e-14 0 0)
(-1.16698e-13 0 0)
(-4.37619e-14 0 0)
(-5.83492e-14 0 0)
(-5.83492e-14 0 0)
(-8.75238e-14 0 0)
(-5.83492e-14 0 0)
(1.45873e-14 0 0)
(1.31286e-13 0 0)
(2.33397e-13 0 0)
(5.83492e-14 0 0)
(-1.31286e-13 0 0)
(4.37619e-14 0 0)
(-2.77159e-13 0 0)
(-2.91746e-13 0 0)
(-1.45873e-13 0 0)
(2.33397e-13 0 0)
(2.1881e-13 0 0)
(2.91746e-13 0 0)
(2.33397e-13 0 0)
(5.83492e-14 0 0)
(-8.75238e-14 0 0)
(-6.72109e-28 0 0)
(-7.29365e-14 0 0)
(2.91746e-14 0 0)
(-2.1881e-13 0 0)
(4.37619e-14 0 0)
(1.02111e-13 0 0)
(2.33397e-13 0 0)
(1.75048e-13 0 0)
(1.75048e-13 0 0)
(1.75048e-13 0 0)
(2.04222e-13 0 0)
(8.75238e-14 0 0)
(1.6046e-13 0 0)
(-1.31286e-13 0 0)
(-1.6046e-13 0 0)
(4.37619e-14 0 0)
(7.29365e-14 0 0)
(-1.45873e-14 0 0)
(1.75048e-13 0 0)
(1.02111e-13 0 0)
(2.33397e-13 0 0)
(-1.6046e-13 0 0)
(-4.37619e-14 0 0)
(-1.45873e-13 0 0)
(1.45873e-14 0 0)
(-1.45873e-13 0 0)
(1.02111e-13 0 0)
(5.83492e-14 0 0)
(2.33397e-13 0 0)
(5.83492e-14 0 0)
(4.23032e-13 0 0)
(3.93857e-13 0 0)
(3.64683e-13 0 0)
(2.04222e-13 0 0)
(1.75048e-13 0 0)
(1.6046e-13 0 0)
(-2.91746e-14 0 0)
(2.1881e-13 0 0)
(7.29365e-14 0 0)
(4.37619e-14 0 0)
(-5.83492e-14 0 0)
(7.29365e-14 0 0)
(1.89635e-13 0 0)
(2.62571e-13 0 0)
(2.91746e-14 0 0)
(-2.91746e-14 0 0)
(-1.6046e-13 0 0)
(-1.75048e-13 0 0)
(-4.08444e-13 0 0)
(-1.45873e-13 0 0)
(-2.62571e-13 0 0)
(7.29365e-14 0 0)
(-1.45873e-14 0 0)
(1.02111e-13 0 0)
(1.45873e-14 0 0)
(-1.31286e-13 0 0)
(1.45873e-13 0 0)
(-7.29365e-14 0 0)
(4.66794e-13 0 0)
(-1.45873e-14 0 0)
(2.1881e-13 0 0)
(-8.75238e-14 0 0)
(-1.75048e-13 0 0)
(-1.6046e-13 0 0)
(-1.6046e-13 0 0)
(4.37619e-14 0 0)
(-8.75238e-14 0 0)
(1.6046e-13 0 0)
(-1.16698e-13 0 0)
(4.37619e-14 0 0)
(-1.89635e-13 0 0)
(-2.77159e-13 0 0)
(-1.45873e-13 0 0)
(-2.91746e-14 0 0)
(2.91746e-14 0 0)
(1.31286e-13 0 0)
(2.04222e-13 0 0)
(1.45873e-14 0 0)
(5.83492e-14 0 0)
(-1.75048e-13 0 0)
(1.45873e-14 0 0)
(-1.45873e-13 0 0)
(-2.1881e-13 0 0)
(-3.7927e-13 0 0)
(-5.25143e-13 0 0)
(-3.93857e-13 0 0)
(-4.81381e-13 0 0)
(-4.08444e-13 0 0)
(-1.75048e-13 0 0)
(-2.47984e-13 0 0)
(-2.47984e-13 0 0)
(-3.50095e-13 0 0)
(-2.47984e-13 0 0)
(-2.1881e-13 0 0)
(-2.04222e-13 0 0)
(-3.64683e-13 0 0)
(-3.06333e-13 0 0)
(-6.12667e-13 0 0)
(-4.95968e-13 0 0)
(-6.71016e-13 0 0)
(-5.54317e-13 0 0)
(-7.0019e-13 0 0)
(-7.14778e-13 0 0)
(-6.56429e-13 0 0)
(-6.71016e-13 0 0)
(-7.0019e-13 0 0)
(-7.29365e-13 0 0)
(-7.29365e-13 0 0)
(-5.25143e-13 0 0)
(-6.71016e-13 0 0)
(-5.25143e-13 0 0)
(-4.81381e-13 0 0)
(-3.64683e-13 0 0)
(-3.35508e-13 0 0)
(-3.35508e-13 0 0)
(-4.52206e-13 0 0)
(-5.3973e-13 0 0)
(-4.66794e-13 0 0)
(-5.3973e-13 0 0)
(-4.08444e-13 0 0)
(-5.3973e-13 0 0)
(-3.7927e-13 0 0)
(-6.71016e-13 0 0)
(-1.75048e-13 0 0)
(-3.50095e-13 0 0)
(-1.75048e-13 0 0)
(-3.20921e-13 0 0)
(-2.91746e-14 0 0)
(-1.45873e-14 0 0)
(1.75048e-13 0 0)
(5.83492e-14 0 0)
(1.6046e-13 0 0)
(1.31286e-13 0 0)
(-5.83492e-14 0 0)
(-1.89635e-13 0 0)
(-1.31286e-13 0 0)
(-2.47984e-13 0 0)
(-1.45873e-13 0 0)
(-7.29365e-14 0 0)
(-5.83492e-14 0 0)
(-1.75048e-13 0 0)
(-1.89635e-13 0 0)
(-1.6046e-13 0 0)
(-7.29365e-14 0 0)
(-1.75048e-13 0 0)
(-2.77159e-13 0 0)
(-1.89635e-13 0 0)
(-4.37619e-13 0 0)
(-3.20921e-13 0 0)
(-2.91746e-13 0 0)
(-1.31286e-13 0 0)
(-2.62571e-13 0 0)
(-2.1881e-13 0 0)
(-1.45873e-13 0 0)
(5.83492e-14 0 0)
(-4.37619e-14 0 0)
(2.1881e-13 0 0)
(4.37619e-14 0 0)
(2.47984e-13 0 0)
(1.45873e-13 0 0)
(2.33397e-13 0 0)
(3.06333e-13 0 0)
(2.47984e-13 0 0)
(2.04222e-13 0 0)
(2.04222e-13 0 0)
(8.75238e-14 0 0)
(1.31286e-13 0 0)
(7.29365e-14 0 0)
(1.14858e-27 0 0)
(1.45873e-14 0 0)
(5.83492e-14 0 0)
(1.45873e-14 0 0)
(1.31286e-13 0 0)
(1.6046e-13 0 0)
(1.16698e-13 0 0)
(1.45873e-14 0 0)
(2.04222e-13 0 0)
(8.75238e-14 0 0)
(1.31286e-13 0 0)
(2.33397e-13 0 0)
(1.89635e-13 0 0)
(1.31286e-13 0 0)
(5.83492e-14 0 0)
(-1.01605e-27 0 0)
(4.37619e-14 0 0)
(1.02111e-13 0 0)
(1.45873e-13 0 0)
(2.62571e-13 0 0)
(1.75048e-13 0 0)
(4.81381e-13 0 0)
(3.64683e-13 0 0)
(5.98079e-13 0 0)
(4.52206e-13 0 0)
(4.81381e-13 0 0)
(3.7927e-13 0 0)
(2.47984e-13 0 0)
(3.50095e-13 0 0)
(4.37619e-14 0 0)
(1.02111e-13 0 0)
(1.31286e-13 0 0)
(1.6046e-13 0 0)
(1.31286e-13 0 0)
(2.1881e-13 0 0)
(-1.45873e-14 0 0)
(-2.91746e-14 0 0)
(-4.37619e-14 0 0)
(8.75238e-14 0 0)
(4.57539e-28 0 0)
(2.1881e-13 0 0)
(3.50095e-13 0 0)
(1.06487e-12 0 0)
(2.66948e-12 0 0)
(8.1543e-12 0 0)
(2.24644e-11 0 0)
(6.28713e-11 0 0)
(1.72101e-10 0 0)
(4.66721e-10 0 0)
(1.24923e-09 0 0)
(3.30459e-09 0 0)
(8.62998e-09 0 0)
(2.22487e-08 0 0)
(5.65978e-08 0 0)
(1.42029e-07 0 0)
(3.51457e-07 0 0)
(8.57283e-07 0 0)
(2.06044e-06 0 0)
(4.87748e-06 0 0)
(1.13669e-05 0 0)
(2.60673e-05 0 0)
(5.87951e-05 0 0)
(0.000130362 0 0)
(0.000283979 0 0)
(0.000607419 0 0)
(0.00127492 0 0)
(0.00262408 0 0)
(0.00529249 0 0)
(0.010452 0 0)
(0.0201946 0 0)
(0.0381409 0 0)
(0.0703503 0 0)
(0.126602 0 0)
(0.222065 0 0)
(0.379276 0 0)
(0.630151 0 0)
(1.01758 0 0)
(1.5959 0 0)
(2.42961 0 0)
(3.58973 0 0)
(5.14795 0 0)
(7.16925 0 0)
(9.70449 0 0)
(12.7845 0 0)
(16.4168 0 0)
(20.5863 0 0)
(25.2586 0 0)
(30.387 0 0)
(35.9187 0 0)
(41.8007 0 0)
(47.9826 0 0)
(54.4195 0 0)
(61.0724 0 0)
(67.9084 0 0)
(74.8996 0 0)
(82.023 0 0)
(89.2593 0 0)
(96.5916 0 0)
(104.006 0 0)
(111.488 0 0)
(119.028 0 0)
(126.614 0 0)
(134.234 0 0)
(141.881 0 0)
(149.539 0 0)
(157.212 0 0)
(164.863 0 0)
(172.524 0 0)
(180.135 0 0)
(187.725 0 0)
(195.271 0 0)
(202.737 0 0)
(210.138 0 0)
(217.448 0 0)
(224.632 0 0)
(231.675 0 0)
(238.558 0 0)
(245.238 0 0)
(251.671 0 0)
(257.818 0 0)
(263.631 0 0)
(269.051 0 0)
(274.013 0 0)
(278.459 0 0)
(282.335 0 0)
(285.602 0 0)
(288.238 0 0)
(290.249 0 0)
(291.68 0 0)
(292.605 0 0)
(293.139 0 0)
(293.379 0 0)
(293.435 0 0)
(293.413 0 0)
(293.324 0 0)
(293.187 0 0)
(293.071 0 0)
(292.998 0 0)
(292.963 0 0)
(292.952 0 0)
(292.952 0 0)
(292.966 0 0)
(292.983 0 0)
(293.002 0 0)
(293.047 0 0)
(293.124 0 0)
(293.255 0 0)
(293.256 0 0)
(293.068 0 0)
(292.919 0 0)
(292.854 0 0)
(292.848 0 0)
(292.884 0 0)
(292.933 0 0)
(292.98 0 0)
(293.017 0 0)
(293.041 0 0)
(293.052 0 0)
(293.053 0 0)
(293.049 0 0)
(293.042 0 0)
(293.03 0 0)
(293.012 0 0)
(292.997 0 0)
(292.983 0 0)
(292.962 0 0)
(292.939 0 0)
(292.888 0 0)
(292.82 0 0)
(292.686 0 0)
(292.552 0 0)
(292.19 0 0)
(291.811 0 0)
(290.675 0 0)
(288.255 0 0)
(282.684 0 0)
(269.465 0 0)
(240.379 0 0)
(185.441 0 0)
(112.335 0 0)
(50.1309 0 0)
(17.1131 0 0)
(4.93767 0 0)
(1.29853 0 0)
(0.328253 0 0)
(0.0819632 0 0)
(0.0204006 0 0)
(0.00507365 0 0)
(0.00126151 0 0)
(0.000313606 0 0)
(7.79463e-05 0 0)
(1.93687e-05 0 0)
(4.81141e-06 0 0)
(1.19475e-06 0 0)
(2.96541e-07 0 0)
(7.35618e-08 0 0)
(1.82367e-08 0 0)
(4.51791e-09 0 0)
(1.11829e-09 0 0)
(2.76707e-10 0 0)
(6.83416e-11 0 0)
(1.71109e-11 0 0)
(4.1428e-12 0 0)
(1.00653e-12 0 0)
(8.75239e-14 0 0)
(-4.3762e-14 0 0)
(-1.89635e-13 0 0)
(-1.16699e-13 0 0)
(-2.1881e-13 0 0)
(-1.89635e-13 0 0)
(-3.187e-28 0 0)
(-1.89635e-13 0 0)
(-8.75239e-14 0 0)
(-8.75239e-14 0 0)
(-2.91746e-14 0 0)
(-1.31286e-13 0 0)
(-7.29366e-14 0 0)
(8.75239e-14 0 0)
(8.75239e-14 0 0)
(-1.16699e-13 0 0)
(-1.45873e-14 0 0)
(-2.91746e-14 0 0)
(5.6798e-28 0 0)
(1.45873e-13 0 0)
(-1.45873e-13 0 0)
(-4.3762e-14 0 0)
(-2.33397e-13 0 0)
(-1.02111e-13 0 0)
(-2.62572e-13 0 0)
(-2.1881e-13 0 0)
(-3.02923e-28 0 0)
(-1.60461e-13 0 0)
(-1.16699e-13 0 0)
(-2.91746e-13 0 0)
(-1.45873e-13 0 0)
(-6.47153e-28 0 0)
(-2.1881e-13 0 0)
(-4.3762e-14 0 0)
(-1.60461e-13 0 0)
(-1.45873e-14 0 0)
(-1.16699e-13 0 0)
(5.83493e-14 0 0)
(-1.89635e-13 0 0)
(-1.45873e-14 0 0)
(8.75239e-14 0 0)
(1.02111e-13 0 0)
(1.45873e-14 0 0)
(-4.65874e-28 0 0)
(-7.29366e-14 0 0)
(1.45873e-14 0 0)
(-1.60461e-13 0 0)
(-7.54151e-28 0 0)
(-5.83493e-14 0 0)
(-1.16699e-13 0 0)
(-1.31286e-13 0 0)
(-1.02111e-13 0 0)
(-2.04222e-13 0 0)
(-4.3762e-14 0 0)
(1.02111e-13 0 0)
(1.16699e-13 0 0)
(2.04222e-13 0 0)
(-3.21855e-28 0 0)
(2.77159e-13 0 0)
(1.89635e-13 0 0)
(1.45873e-13 0 0)
(-1.16699e-13 0 0)
(-2.62572e-13 0 0)
(-3.93858e-13 0 0)
(-4.08445e-13 0 0)
(-1.31286e-13 0 0)
(-2.91746e-14 0 0)
(-1.16699e-13 0 0)
(-4.3762e-14 0 0)
(-2.04222e-13 0 0)
(-5.83493e-14 0 0)
(-1.16699e-13 0 0)
(-1.45873e-13 0 0)
(1.16699e-13 0 0)
(3.20921e-13 0 0)
(3.20921e-13 0 0)
(1.89635e-13 0 0)
(2.62572e-13 0 0)
(2.91746e-13 0 0)
(7.29366e-14 0 0)
(1.75048e-13 0 0)
(1.45873e-14 0 0)
(-4.3762e-14 0 0)
(2.91746e-14 0 0)
(1.75048e-13 0 0)
(2.04222e-13 0 0)
(2.04222e-13 0 0)
(1.45873e-13 0 0)
(-7.29366e-14 0 0)
(1.16699e-13 0 0)
(5.83493e-14 0 0)
(1.89635e-13 0 0)
(-2.91746e-14 0 0)
(1.60461e-13 0 0)
(-1.02111e-13 0 0)
(5.83493e-14 0 0)
(-4.3762e-14 0 0)
(-2.04222e-13 0 0)
(1.60461e-13 0 0)
(1.75048e-13 0 0)
(3.50096e-13 0 0)
(3.50096e-13 0 0)
(3.93858e-13 0 0)
(5.10556e-13 0 0)
(5.39731e-13 0 0)
(8.89827e-13 0 0)
(4.95969e-13 0 0)
(6.85604e-13 0 0)
(5.9808e-13 0 0)
(7.43953e-13 0 0)
(7.43953e-13 0 0)
(7.14779e-13 0 0)
(8.02303e-13 0 0)
(4.81382e-13 0 0)
(7.00191e-13 0 0)
(3.50096e-13 0 0)
(5.54318e-13 0 0)
(2.33397e-13 0 0)
(3.06334e-13 0 0)
(3.64683e-13 0 0)
(2.47984e-13 0 0)
(2.62572e-13 0 0)
(3.93858e-13 0 0)
(2.91746e-13 0 0)
(3.35508e-13 0 0)
(2.04222e-13 0 0)
(2.04222e-13 0 0)
(1.60461e-13 0 0)
(7.29366e-14 0 0)
(2.1881e-13 0 0)
(2.1881e-13 0 0)
(2.04222e-13 0 0)
(2.04222e-13 0 0)
(1.60461e-13 0 0)
(3.06334e-13 0 0)
(2.91746e-13 0 0)
(2.62572e-13 0 0)
(1.45873e-14 0 0)
(1.75048e-13 0 0)
(-2.47984e-13 0 0)
(-1.31286e-13 0 0)
(-2.91746e-13 0 0)
(-2.77159e-13 0 0)
(-2.1881e-13 0 0)
(-2.47984e-13 0 0)
(-2.04222e-13 0 0)
(-2.91746e-13 0 0)
(-7.29366e-14 0 0)
(-2.04222e-13 0 0)
(-1.89635e-13 0 0)
(-2.04222e-13 0 0)
(-8.75239e-14 0 0)
(-1.45873e-14 0 0)
(1.43888e-27 0 0)
(-1.02111e-13 0 0)
(-1.60461e-13 0 0)
(-1.16699e-13 0 0)
(-7.29366e-14 0 0)
(-1.31286e-13 0 0)
(5.83493e-14 0 0)
(1.02111e-13 0 0)
(1.60461e-13 0 0)
(7.29366e-14 0 0)
(1.75048e-13 0 0)
(-1.16699e-13 0 0)
(-1.60461e-13 0 0)
(8.75239e-14 0 0)
(1.75048e-13 0 0)
(3.35508e-13 0 0)
(2.62572e-13 0 0)
(2.77159e-13 0 0)
(1.02111e-13 0 0)
(-1.45873e-14 0 0)
(-1.16699e-13 0 0)
(-1.75048e-13 0 0)
(-2.47984e-13 0 0)
(-5.68906e-13 0 0)
(2.91746e-14 0 0)
(-2.47984e-13 0 0)
(-2.33397e-13 0 0)
(-3.64683e-13 0 0)
(-2.04222e-13 0 0)
(-1.02111e-13 0 0)
(-1.75048e-13 0 0)
(-2.91746e-14 0 0)
(-2.91746e-14 0 0)
(5.83493e-14 0 0)
(-2.91746e-14 0 0)
(1.16699e-13 0 0)
(7.63617e-28 0 0)
(2.33397e-13 0 0)
(2.91746e-14 0 0)
(1.02111e-13 0 0)
(2.91746e-14 0 0)
(2.91746e-14 0 0)
(-4.3762e-14 0 0)
(-1.45873e-14 0 0)
(1.16699e-13 0 0)
(2.47984e-13 0 0)
(1.45873e-13 0 0)
(4.3762e-14 0 0)
(1.45873e-14 0 0)
(-2.1881e-13 0 0)
(-1.89635e-13 0 0)
(-3.06334e-13 0 0)
(-2.47984e-13 0 0)
(-3.35508e-13 0 0)
(-1.45873e-13 0 0)
(-2.62572e-13 0 0)
(-1.75048e-13 0 0)
(-2.91746e-13 0 0)
(-5.83493e-14 0 0)
(-7.29366e-14 0 0)
(1.16699e-13 0 0)
(1.31286e-13 0 0)
(4.3762e-13 0 0)
(1.02111e-13 0 0)
(3.06334e-13 0 0)
(8.75239e-14 0 0)
(2.91746e-13 0 0)
(1.60461e-13 0 0)
(3.64683e-13 0 0)
(4.95969e-13 0 0)
(3.64683e-13 0 0)
(3.7927e-13 0 0)
(1.60461e-13 0 0)
(7.29366e-14 0 0)
(-1.31286e-13 0 0)
(-8.75239e-14 0 0)
(-3.20921e-13 0 0)
(-1.89635e-13 0 0)
(-3.64683e-13 0 0)
(-1.45873e-13 0 0)
(-1.02111e-13 0 0)
(1.89635e-13 0 0)
(-7.29366e-14 0 0)
(4.3762e-14 0 0)
(7.29366e-14 0 0)
(2.91746e-13 0 0)
(-1.45873e-14 0 0)
(2.1881e-13 0 0)
(5.83493e-14 0 0)
(1.31286e-13 0 0)
(-1.02111e-13 0 0)
(-1.45873e-13 0 0)
(-1.02111e-13 0 0)
(-1.60461e-13 0 0)
(4.3762e-14 0 0)
(-7.29366e-14 0 0)
(1.02111e-13 0 0)
(1.45873e-13 0 0)
(-8.75239e-14 0 0)
(-2.91746e-14 0 0)
(-1.31286e-13 0 0)
(-7.29366e-14 0 0)
(1.02111e-13 0 0)
(-1.60461e-13 0 0)
(4.3762e-13 0 0)
(-5.83493e-14 0 0)
(3.93858e-13 0 0)
(1.45873e-14 0 0)
(5.83493e-14 0 0)
(1.45873e-14 0 0)
(1.60461e-13 0 0)
(-2.1881e-13 0 0)
(-1.16699e-13 0 0)
(2.91746e-14 0 0)
(2.04222e-13 0 0)
(-1.02111e-13 0 0)
(-2.91746e-14 0 0)
(2.91746e-14 0 0)
(-1.75048e-13 0 0)
(-2.91746e-14 0 0)
(-5.83493e-14 0 0)
(1.02111e-13 0 0)
(1.60461e-13 0 0)
(7.29366e-14 0 0)
(8.75239e-14 0 0)
(1.60461e-13 0 0)
(5.83493e-14 0 0)
(-1.31286e-13 0 0)
(-1.45873e-14 0 0)
(-1.16699e-13 0 0)
(8.75239e-14 0 0)
(1.45873e-13 0 0)
(4.3762e-14 0 0)
(1.75048e-13 0 0)
(3.06334e-13 0 0)
(3.35508e-13 0 0)
(1.45873e-13 0 0)
(2.33397e-13 0 0)
(-7.29366e-14 0 0)
(-1.02111e-13 0 0)
(-5.83493e-14 0 0)
(-2.62572e-13 0 0)
(1.60461e-13 0 0)
(-2.1881e-13 0 0)
(-2.91746e-14 0 0)
(-2.04222e-13 0 0)
(1.31286e-13 0 0)
(1.60461e-13 0 0)
(5.25144e-13 0 0)
(2.62572e-13 0 0)
(3.06334e-13 0 0)
(1.60461e-13 0 0)
(1.16699e-13 0 0)
(8.75239e-14 0 0)
(8.75239e-14 0 0)
(4.3762e-14 0 0)
(-4.3762e-14 0 0)
(2.91746e-14 0 0)
(8.75239e-14 0 0)
(-1.60461e-13 0 0)
(-2.91746e-14 0 0)
(-1.60461e-13 0 0)
(-2.04222e-13 0 0)
(-1.89635e-13 0 0)
(1.45873e-14 0 0)
(-1.60461e-13 0 0)
(-4.3762e-14 0 0)
(-2.91746e-14 0 0)
(-5.83493e-14 0 0)
(2.62572e-13 0 0)
(7.29366e-14 0 0)
(-9.90809e-28 0 0)
(1.75048e-13 0 0)
(8.75239e-14 0 0)
(1.60461e-13 0 0)
(8.75239e-14 0 0)
(3.06334e-13 0 0)
(1.16699e-13 0 0)
(1.89635e-13 0 0)
(2.1881e-13 0 0)
(5.83493e-14 0 0)
(2.91746e-13 0 0)
(-5.83493e-14 0 0)
(1.02111e-13 0 0)
(8.75239e-14 0 0)
(7.29366e-14 0 0)
(4.79627e-28 0 0)
(2.1881e-13 0 0)
(1.31286e-13 0 0)
(1.45873e-13 0 0)
(2.1881e-13 0 0)
(2.91746e-13 0 0)
(-2.91746e-14 0 0)
(-2.91746e-14 0 0)
(1.02111e-13 0 0)
(1.60461e-13 0 0)
(1.89635e-13 0 0)
(2.1881e-13 0 0)
(1.16699e-13 0 0)
(7.29366e-14 0 0)
(1.16699e-13 0 0)
(1.45873e-14 0 0)
(8.01483e-28 0 0)
(1.02111e-13 0 0)
(4.3762e-14 0 0)
(2.33397e-13 0 0)
(7.29366e-14 0 0)
(-1.45873e-13 0 0)
(1.45873e-13 0 0)
(-4.3762e-14 0 0)
(-6.14665e-28 0 0)
(-1.02111e-13 0 0)
(-2.62572e-13 0 0)
(-1.31286e-13 0 0)
(-4.3762e-14 0 0)
(-1.45873e-14 0 0)
(2.04222e-13 0 0)
(1.31286e-13 0 0)
(1.75048e-13 0 0)
(-1.60461e-13 0 0)
(1.45873e-13 0 0)
(1.75048e-13 0 0)
(3.06334e-13 0 0)
(8.75239e-14 0 0)
(1.75048e-13 0 0)
(-8.75239e-14 0 0)
(-1.75048e-13 0 0)
(-1.45873e-14 0 0)
(-1.02111e-13 0 0)
(1.45873e-14 0 0)
(-4.3762e-14 0 0)
(-1.02111e-13 0 0)
(-1.89635e-13 0 0)
(-2.47984e-13 0 0)
(-8.75239e-14 0 0)
(-3.7927e-13 0 0)
(-1.60461e-13 0 0)
(-3.7927e-13 0 0)
(-2.77159e-13 0 0)
(-4.3762e-13 0 0)
(-2.47984e-13 0 0)
(-4.66794e-13 0 0)
(-4.08445e-13 0 0)
(-3.7927e-13 0 0)
(-3.20921e-13 0 0)
(-2.62572e-13 0 0)
(-3.50096e-13 0 0)
(-4.23032e-13 0 0)
(-2.47984e-13 0 0)
(-5.83493e-14 0 0)
(-7.29366e-14 0 0)
(-1.45873e-14 0 0)
(-1.02111e-13 0 0)
(2.91746e-14 0 0)
(-2.91746e-14 0 0)
(-1.31286e-13 0 0)
(-8.75239e-14 0 0)
(-1.60461e-13 0 0)
(-2.04222e-13 0 0)
(-2.04222e-13 0 0)
(-1.45873e-13 0 0)
(-2.62572e-13 0 0)
(-4.3762e-14 0 0)
(-5.83493e-14 0 0)
(-1.60461e-13 0 0)
(-2.1881e-13 0 0)
)
;

boundaryField
{
    sides
    {
        type            zeroGradient;
    }
    empty
    {
        type            empty;
    }
}


// ************************************************************************* //
