/*--------------------------------*- C++ -*----------------------------------*\
| =========                 |                                                 |
| \\      /  F ield         | OpenFOAM: The Open Source CFD Toolbox           |
|  \\    /   O peration     | Version:  4.0                                   |
|   \\  /    A nd           | Web:      www.OpenFOAM.org                      |
|    \\/     M anipulation  |                                                 |
\*---------------------------------------------------------------------------*/
FoamFile
{
    version     2.0;
    format      ascii;
    class       volScalarField;
    location    "72";
    object      p;
}
// * * * * * * * * * * * * * * * * * * * * * * * * * * * * * * * * * * * * * //

dimensions      [0 2 -2 0 0 0 0];

internalField   nonuniform List<scalar> 
918
(
0.557721
1.17988
0.0012934
0.557176
-0.0125711
1.1469
-0.51154
0.655799
0.537925
-0.106793
-0.0537183
0.540289
1.00745
0.773109
-1.12359
-0.0108628
0.652078
-0.381405
0.537043
-0.0612963
0.685284
0.544461
0.547485
0.538062
0.597928
0.747823
0.888416
0.0254312
0.0102608
0.0057043
-0.0119534
-0.0387314
-0.032804
1.03056
1.08164
1.10433
0.50565
0.334225
-0.376991
-0.450158
-0.437031
-0.543881
0.655339
0.655232
-0.21388
0.658483
0.659141
0.524937
0.537295
0.538206
0.539222
0.538209
0.539588
0.404002
-0.10747
-0.13879
-0.0874124
-0.0809938
0.0521371
-0.0544873
-0.0569546
-0.0521993
-0.0511401
0.454731
0.534553
0.531027
0.544585
0.553795
1.11943
1.09136
1.11751
1.03112
1.04765
0.98544
0.958136
0.79397
0.815865
0.758456
0.746757
-1.55422
-2.50362
-0.534769
-0.284526
-0.0106169
-0.00886722
-0.00345256
0.649405
0.650667
0.651515
0.65337
1.07958
-0.378925
-0.479777
0.537186
0.535997
0.544311
0.545013
0.541033
0.540123
-0.0522516
-0.0489406
-0.0520249
-0.057005
-0.0553232
0.669311
0.67121
0.53859
0.535591
0.561413
0.581849
0.57196
0.277793
0.608858
0.624793
0.580537
0.742595
0.734944
0.744401
0.861856
0.825683
0.925648
0.948716
0.0175112
-0.000127262
-0.0154442
-0.0195391
-0.0182877
0.501476
0.494008
0.521625
0.509092
0.511603
0.251082
0.117912
0.419133
0.44393
-0.296348
-0.363496
-0.429488
-0.460112
-0.568355
0.613302
0.655311
0.654089
-0.223559
-0.151819
-0.285547
-0.078724
-0.141855
0.515188
0.522212
0.517205
0.532775
0.527237
0.529202
0.541568
0.538637
0.540197
0.466078
0.589542
0.330283
0.294782
-0.24245
-0.154209
-0.241926
-0.0708133
-0.0686394
0.0661871
0.0918868
0.0388111
0.0270007
-0.064705
-0.059052
-0.061555
-0.0496817
-0.0489484
0.447458
0.436206
0.467435
0.475006
0.520886
0.522392
0.526909
0.524833
0.90892
0.931157
0.938847
0.912712
-3.49104
-6.26912
0.0394531
0.1754
-0.00676021
-0.00940951
0.00196539
-0.00591663
0.000145602
-0.0019987
-0.00829703
-0.00971493
-0.00474316
-0.00345186
0.643985
0.644905
1.00193
1.00906
0.977359
0.930283
0.525412
0.527481
0.532974
0.528858
-0.0482558
-0.0481292
-0.0478913
0.661848
0.666839
0.664519
0.239166
0.149145
0.329015
0.358255
0.637311
0.62622
0.635642
0.639917
0.676504
0.956099
0.974356
0.972579
0.981046
1.02513
1.04158
1.00688
0.48086
0.490876
0.485804
0.524608
0.522424
0.523301
0.519719
0.520651
0.518896
-0.0323456
-0.411742
0.491297
0.507994
0.493568
0.495776
0.693381
0.771939
0.652837
0.653982
0.653738
-0.00923331
-0.0677418
0.249897
0.215714
0.386824
0.423347
0.402262
0.880076
0.840616
0.89072
0.863904
0.82546
0.850761
-0.363309
-1.86075
-0.981055
0.52377
0.338606
0.425377
0.00879366
-0.00783324
-0.00331426
1.00178
1.07392
0.645318
0.8202
0.82276
0.714253
0.743655
0.799052
0.725866
0.759597
0.793638
0.774102
0.56922
0.504432
0.520535
0.840913
0.896541
0.118722
0.0566425
0.0128868
0.110878
0.168454
0.142399
1.03388
0.950162
1.02025
0.535353
0.536077
-0.00529293
-0.0178748
0.54033
0.540386
-0.0126207
-0.00167428
0.408781
-0.83114
0.0971998
0.528919
0.518791
0.535942
-0.092627
0.355467
-0.0538329
0.0474272
-0.00935281
0.530428
0.465869
0.424883
0.000223444
-0.0199656
-0.0516974
-0.212906
0.533023
0.531327
0.53541
0.536349
0.537031
-0.0188763
-0.0146896
-0.0103389
-0.0485029
-0.0414064
-0.0539832
0.499812
0.519276
-0.170752
0.535557
0.537693
0.537511
0.530779
0.536407
0.534661
-0.0107546
-0.0156728
-0.0179575
0.219134
0.351816
0.647428
0.733193
0.619929
0.396238
0.161971
0.551146
0.614141
0.520301
0.673424
0.650876
0.655001
0.162706
0.0122907
0.17165
0.113476
0.526783
0.525511
0.517043
0.513999
0.530809
0.528925
0.533482
0.530508
0.533458
0.534838
-0.0491043
-0.0751586
-0.0846629
-0.151401
0.310217
0.571244
0.254836
0.28418
0.14178
-0.0479616
-0.0498819
-0.0514079
-0.0593708
0.000831522
-0.0250715
0.0420599
0.042269
0.0139596
-0.0117696
-0.00934086
-0.0203948
-0.0146302
0.523689
0.523654
0.528126
0.536844
0.475551
0.47934
0.444103
0.464899
0.450121
0.388705
0.424131
0.3993
-0.00576132
0.00270999
-0.00265388
-0.0180106
-0.0147088
-0.0339221
-0.0308536
-0.026312
-0.0221209
-0.0290241
-0.0461333
-0.0489062
-0.170954
-0.286837
0.988434
0.909027
0.13758
0.522165
0.528627
0.525385
0.530321
0.53345
0.534244
0.531949
0.528495
0.519505
0.520962
0.517749
0.51884
-0.101924
-0.243644
-0.0719831
-0.146935
0.146158
0.628488
0.363708
0.298829
0.294242
0.523369
0.915989
0.698534
0.666681
0.6636
-0.343583
0.0446767
-0.280215
0.334314
0.162009
0.646632
0.695992
0.717895
0.665757
0.618902
-0.0994947
0.556367
-0.0747763
-0.02224
0.179646
0.0548312
0.657646
0.63909
0.646568
0.648664
0.661007
0.641655
0.623835
0.624064
0.643736
0.648454
0.482405
0.249776
0.200248
0.16179
0.643212
0.515782
0.564916
0.489521
0.522114
0.524623
0.523278
0.504652
0.512253
0.507765
0.514333
0.517993
0.52653
0.527014
0.522262
0.524391
-0.0558131
-0.0621045
-0.0247281
-0.135219
-0.127898
-0.190106
-0.0587843
0.0744463
0.036235
0.237304
0.340935
0.0519401
-0.056678
-0.0293611
0.0126763
0.179805
0.20848
0.0741828
0.161902
0.153211
0.134177
0.237133
0.240472
-0.0301864
-0.0315248
-0.0363779
-0.038829
0.0186214
0.0901078
0.0993122
-0.00807618
-0.0134827
-0.0460435
-0.0460849
-0.0225113
-0.0277589
-0.0227703
0.00475838
-0.0527894
-0.0204248
-0.0065619
-0.00562165
-0.00604959
-0.0115748
0.518609
0.52018
0.520522
0.528471
0.540726
0.555307
0.521767
0.497814
0.488581
0.491596
0.464509
0.474785
0.470642
0.484186
0.505386
0.51405
0.51236
0.515187
0.497459
0.499246
0.485723
0.489353
0.464525
0.445071
0.433085
-0.0425894
-0.0040806
-0.0122563
-0.0379337
-0.00834318
-0.0202736
-0.0114688
0.00764713
-0.00890993
-0.0101446
-0.0203368
-0.026646
-0.0262557
-0.0728867
0.013892
-0.184553
-0.219815
-0.293096
0.890657
1.01488
0.809788
0.582663
0.603116
0.846636
0.930921
0.542947
0.735292
0.75845
0.588056
0.855131
0.527017
0.526611
0.524211
0.52369
0.524911
-0.00670051
0.0998891
0.0974127
0.161309
0.277926
0.38946
0.320781
0.195309
0.325223
0.32767
0.621569
0.633703
0.588978
0.612979
0.613615
0.425364
0.50098
0.552681
0.51391
0.565872
0.587581
0.541501
0.574525
0.523841
0.479339
0.475527
0.425022
0.444677
0.420194
0.403316
0.516767
0.493892
0.504695
0.495048
0.516242
0.543844
0.540808
0.562684
0.577904
0.498383
0.453243
0.462652
0.492832
0.454309
0.469914
0.485872
0.233921
0.136185
0.219017
-0.0658293
0.00437327
-0.00792069
-0.0567557
-0.00510026
0.279036
-0.41158
-0.388383
-1.01503
0.50511
0.953698
0.587505
0.564089
0.6624
0.648968
0.655316
0.672271
0.669157
0.631795
0.640652
0.645397
0.594432
0.615187
0.634426
0.630267
0.524825
0.381499
0.381219
0.328569
0.198716
0.238798
0.434485
0.358854
0.284025
0.284108
0.456569
0.342989
0.413239
0.446284
0.377509
0.332241
0.535048
0.60129
0.594573
0.568124
0.478248
0.490207
0.514756
0.548152
0.571722
0.604733
0.513761
0.519713
0.520945
0.518411
0.515677
0.518785
0.519077
0.521665
0.522237
0.525266
0.524341
-0.0527012
-0.0383812
-0.050552
-0.0626784
-0.0180902
-0.0205316
0.0233054
0.0115168
-0.015633
-0.0114447
-0.0330123
-0.0370248
-0.0337206
-0.0259049
0.103164
0.1159
0.101061
0.0608242
0.250511
0.380656
0.454897
0.329838
0.223912
0.248621
0.267089
-0.0123333
0.0134413
0.000714247
0.040279
0.0321626
-0.0396503
-0.0434977
-0.039634
-0.0314284
-0.023392
-0.039293
-0.0448003
-0.035677
-0.0403709
-0.0431019
-0.0469583
0.50009
0.493562
0.495122
0.489063
0.487796
0.502057
0.506388
0.508336
0.513795
0.516184
0.506194
0.511583
0.515578
-0.0124035
-0.0355511
-0.0389436
-0.0304569
-0.032213
-0.0295749
-0.0311367
0.123987
0.0549098
0.0586558
0.0114641
-0.120984
-0.0629697
0.492647
0.491516
0.480773
0.72174
0.570954
0.491944
0.589111
0.694724
0.276786
0.473324
0.308568
0.888755
0.785534
0.931798
0.542611
0.246711
0.411413
0.453429
0.267382
0.343479
0.324512
0.21367
0.244321
0.28297
0.381696
0.266861
0.24384
0.000226072
0.191156
0.302781
0.284688
0.409028
0.469583
0.267951
0.187656
0.142566
0.605878
0.625614
0.63881
0.611151
0.633227
0.581853
0.574056
0.589241
0.59727
0.591406
-0.743431
-0.449699
-1.39681
-0.720076
-0.264202
0.535695
0.508371
0.770105
0.645649
0.679115
0.663624
0.623144
0.593205
0.618295
0.640225
0.339599
0.450073
0.425276
0.431172
0.334045
0.264139
0.562467
0.55987
0.593004
0.616662
0.588367
0.618677
0.511569
0.511293
0.510758
0.506993
0.50525
0.507604
0.0588765
0.0264719
0.06763
0.0499238
0.0275172
0.0155674
-0.0116428
-0.0217131
-0.0285245
-0.0279272
-0.0135213
-0.009438
0.172816
0.109955
0.0304062
0.0591967
-0.00162287
-0.0700539
-0.0893253
0.0163585
0.112513
0.102711
0.405817
0.655075
0.475152
0.642576
0.485322
0.540993
0.46916
0.460383
0.485268
0.380729
0.461109
0.252597
-0.25593
-0.165123
0.795699
0.806144
0.581814
0.407509
0.174887
0.351696
0.540954
0.470386
0.505783
0.57492
0.561819
0.0315624
0.0886199
0.377343
0.60407
0.242357
0.233288
0.2267
0.411635
0.329485
)
;

boundaryField
{
    wall-4
    {
        type            zeroGradient;
    }
    velocity-inlet-5
    {
        type            zeroGradient;
    }
    velocity-inlet-6
    {
        type            zeroGradient;
    }
    pressure-outlet-7
    {
        type            fixedValue;
        value           uniform 0;
    }
    wall-8
    {
        type            zeroGradient;
    }
    frontAndBackPlanes
    {
        type            empty;
    }
}


// ************************************************************************* //
