/*--------------------------------*- C++ -*----------------------------------*\
| =========                 |                                                 |
| \\      /  F ield         | OpenFOAM: The Open Source CFD Toolbox           |
|  \\    /   O peration     | Version:  4.0                                   |
|   \\  /    A nd           | Web:      www.OpenFOAM.org                      |
|    \\/     M anipulation  |                                                 |
\*---------------------------------------------------------------------------*/
FoamFile
{
    version     2.0;
    format      ascii;
    class       surfaceScalarField;
    location    "0.001";
    object      phi;
}
// * * * * * * * * * * * * * * * * * * * * * * * * * * * * * * * * * * * * * //

dimensions      [1 0 -1 0 0 0 0];

internalField   nonuniform List<scalar> 
9999
(
2.95586e-12
3.18323e-12
4.14957e-12
4.3201e-12
4.37694e-12
3.63798e-12
3.12639e-12
3.0127e-12
2.21689e-12
2.78533e-12
1.76215e-12
1.59162e-12
1.19371e-12
8.52651e-13
5.11591e-13
-2.84217e-13
-6.25278e-13
-5.11591e-13
-1.19371e-12
-1.59162e-12
-2.04636e-12
-1.7053e-12
-1.76215e-12
-1.19371e-12
-6.25278e-13
5.68434e-14
2.84217e-13
-5.68434e-13
-5.68434e-13
3.41061e-13
-6.25278e-13
-1.3074e-12
-1.64846e-12
-1.98952e-12
-2.38742e-12
-2.84217e-12
-2.33058e-12
-3.06954e-12
-3.46745e-12
-3.0127e-12
-2.72848e-12
-2.84217e-12
-2.55795e-12
-3.18323e-12
-3.06954e-12
-3.97904e-12
-3.75167e-12
-4.20641e-12
-4.43379e-12
-4.77485e-12
-5.22959e-12
-4.94538e-12
-5.05906e-12
-4.94538e-12
-5.28644e-12
-4.26326e-12
-3.46745e-12
-2.78533e-12
-2.38742e-12
-2.10321e-12
-1.19371e-12
-3.41061e-13
-3.97904e-13
-6.82121e-13
-2.84217e-13
3.41061e-13
9.09495e-13
3.41061e-13
5.68434e-13
1.42109e-12
1.3074e-12
1.7053e-12
1.98952e-12
1.36424e-12
7.95808e-13
1.3074e-12
1.36424e-12
1.13687e-12
1.25056e-12
2.33058e-12
2.72848e-12
2.44427e-12
1.87583e-12
1.98952e-12
2.67164e-12
3.0127e-12
3.12639e-12
3.29692e-12
3.41061e-12
4.26326e-12
4.54747e-12
4.3201e-12
4.09273e-12
4.03588e-12
4.26326e-12
3.41061e-12
2.89901e-12
2.95586e-12
2.44427e-12
1.93268e-12
2.04636e-12
1.53477e-12
9.09495e-13
3.41061e-13
-2.27374e-13
-6.82121e-13
-1.02318e-12
-1.36424e-12
-1.02318e-12
-1.47793e-12
-1.36424e-12
-3.41061e-13
-2.27374e-13
-1.7053e-13
4.54747e-13
8.52651e-13
1.59162e-12
1.36424e-12
1.13687e-12
2.10321e-12
3.35376e-12
3.52429e-12
4.20641e-12
4.3201e-12
3.41061e-12
3.41061e-12
3.9222e-12
3.97904e-12
3.69482e-12
3.12639e-12
2.04636e-12
1.36424e-12
1.02318e-12
3.41061e-13
5.68434e-14
-1.7053e-13
-3.41061e-13
-6.25278e-13
-5.11591e-13
0
-1.7053e-13
1.13687e-13
5.68434e-14
5.68434e-14
-2.84217e-13
2.27374e-13
-1.7053e-13
-1.02318e-12
-1.08002e-12
-1.87583e-12
-1.87583e-12
-1.98952e-12
-2.84217e-12
-2.6148e-12
-2.89901e-12
-2.33058e-12
-1.87583e-12
-2.10321e-12
-2.72848e-12
-3.41061e-12
-3.97904e-12
-4.54747e-12
-3.35376e-12
-3.97904e-12
-3.46745e-12
-2.95586e-12
-2.38742e-12
-2.55795e-12
-2.38742e-12
-1.98952e-12
-2.6148e-12
-2.33058e-12
-1.76215e-12
-7.95808e-13
-1.7053e-13
4.54747e-13
4.54747e-13
5.68434e-13
1.25056e-12
2.10321e-12
2.38742e-12
1.98952e-12
2.38742e-12
2.78533e-12
3.29692e-12
4.3201e-12
3.75167e-12
3.9222e-12
4.49063e-12
4.718e-12
5.22959e-12
5.40012e-12
5.11591e-12
4.49063e-12
4.09273e-12
2.78533e-12
2.67164e-12
2.38742e-12
2.04636e-12
1.02318e-12
2.84217e-13
-3.97904e-13
-1.08002e-12
-1.19371e-12
-9.66338e-13
-1.7053e-12
-2.10321e-12
-1.93268e-12
-2.55795e-12
-2.44427e-12
-1.59162e-12
-1.13687e-12
-1.42109e-12
-1.47793e-12
-6.25278e-13
-1.7053e-13
5.68434e-14
2.27374e-13
3.41061e-13
8.52651e-13
1.13687e-13
-5.68434e-14
-3.41061e-13
-1.13687e-13
-3.41061e-13
-5.68434e-13
-1.36424e-12
-1.02318e-12
-7.38964e-13
-6.25278e-13
-9.66338e-13
-1.47793e-12
-1.19371e-12
-4.54747e-13
-7.38964e-13
-6.25278e-13
-5.11591e-13
-1.19371e-12
-1.64846e-12
-1.53477e-12
-1.08002e-12
-1.19371e-12
-7.38964e-13
-2.27374e-13
4.54747e-13
1.42109e-12
1.76215e-12
1.76215e-12
3.35376e-12
3.58114e-12
3.97904e-12
4.83169e-12
3.58114e-12
3.52429e-12
3.69482e-12
3.52429e-12
3.0127e-12
2.6148e-12
3.12639e-12
2.10321e-12
2.04636e-12
2.27374e-12
2.44427e-12
1.64846e-12
1.13687e-12
6.82121e-13
5.11591e-13
3.97904e-13
-3.41061e-13
-5.68434e-13
-1.13687e-12
-5.11591e-13
-4.54747e-13
-6.25278e-13
-9.66338e-13
-5.68434e-13
-2.84217e-13
5.68434e-13
8.52651e-13
1.08002e-12
1.47793e-12
2.55795e-12
3.0127e-12
3.46745e-12
4.14957e-12
3.75167e-12
3.29692e-12
3.24007e-12
2.21689e-12
2.16005e-12
1.3074e-12
7.38964e-13
-6.82121e-13
-1.02318e-12
-1.7053e-12
-1.08002e-12
-2.27374e-13
2.84217e-13
5.11591e-13
1.02318e-12
1.7053e-12
2.16005e-12
2.78533e-12
3.80851e-12
4.3201e-12
5.34328e-12
6.42331e-12
6.87805e-12
8.07177e-12
8.35598e-12
8.6402e-12
9.49285e-12
8.6402e-12
7.90124e-12
8.18545e-12
7.3328e-12
6.53699e-12
5.45697e-12
5.51381e-12
5.79803e-12
5.74119e-12
5.57066e-12
5.79803e-12
5.91172e-12
5.91172e-12
6.36646e-12
6.87805e-12
7.04858e-12
6.19593e-12
6.53699e-12
6.0254e-12
6.25278e-12
6.70752e-12
6.19593e-12
6.30962e-12
6.08225e-12
4.26326e-12
3.80851e-12
2.95586e-12
3.06954e-12
2.38742e-12
2.95586e-12
2.33058e-12
2.27374e-12
1.59162e-12
1.53477e-12
2.04636e-12
2.55795e-12
2.16005e-12
2.16005e-12
2.21689e-12
2.67164e-12
1.59162e-12
2.10321e-12
2.44427e-12
2.38742e-12
1.93268e-12
2.6148e-12
1.76215e-12
1.7053e-12
1.19371e-12
1.13687e-12
3.97904e-13
9.66338e-13
1.47793e-12
2.16005e-12
2.44427e-12
2.44427e-12
2.6148e-12
2.50111e-12
2.72848e-12
3.06954e-12
2.78533e-12
2.95586e-12
2.50111e-12
1.81899e-12
7.95808e-13
2.84217e-13
-5.68434e-13
-1.3074e-12
-2.04636e-12
-2.44427e-12
-2.16005e-12
-2.95586e-12
-3.06954e-12
-3.24007e-12
-2.95586e-12
-2.44427e-12
-2.27374e-12
-2.89901e-12
-2.55795e-12
-3.18323e-12
-2.84217e-12
-3.24007e-12
-3.63798e-12
-3.29692e-12
-2.67164e-12
-2.67164e-12
-2.50111e-12
-2.10321e-12
-2.67164e-12
-1.76215e-12
-2.89901e-12
-1.64846e-12
-1.53477e-12
-1.76215e-12
-2.89901e-12
-3.41061e-12
-3.75167e-12
-4.26326e-12
-3.9222e-12
-3.80851e-12
-3.35376e-12
-2.67164e-12
-2.21689e-12
-1.53477e-12
-7.38964e-13
-1.7053e-13
7.95808e-13
4.54747e-13
1.59162e-12
1.76215e-12
1.53477e-12
2.04636e-12
2.44427e-12
3.0127e-12
3.35376e-12
2.89901e-12
3.75167e-12
4.54747e-12
4.66116e-12
4.94538e-12
3.9222e-12
4.20641e-12
3.63798e-12
3.75167e-12
3.18323e-12
2.50111e-12
1.59162e-12
1.25056e-12
6.25278e-13
1.13687e-13
-4.54747e-13
-9.66338e-13
-1.02318e-12
-1.47793e-12
-2.6148e-12
-3.0127e-12
-3.41061e-12
-4.60432e-12
-4.26326e-12
-4.3201e-12
-4.718e-12
-5.17275e-12
-4.94538e-12
-4.49063e-12
-3.9222e-12
-4.14957e-12
-3.86535e-12
-3.35376e-12
-2.89901e-12
-2.55795e-12
-1.36424e-12
-1.08002e-12
-6.25278e-13
-6.82121e-13
-8.52651e-13
-2.84217e-13
-5.11591e-13
-1.19371e-12
-1.19371e-12
-1.64846e-12
-1.76215e-12
-1.64846e-12
-1.53477e-12
-2.04636e-12
-1.3074e-12
-1.98952e-12
-2.6148e-12
-1.87583e-12
-2.21689e-12
-2.16005e-12
-1.36424e-12
-5.68434e-13
0
2.84217e-13
1.25056e-12
1.25056e-12
2.21689e-12
2.89901e-12
3.35376e-12
4.03588e-12
4.60432e-12
4.94538e-12
5.34328e-12
5.17275e-12
5.68434e-12
6.19593e-12
5.96856e-12
5.22959e-12
5.40012e-12
5.11591e-12
4.49063e-12
3.63798e-12
2.67164e-12
1.42109e-12
1.13687e-13
-1.08002e-12
-1.59162e-12
-1.7053e-12
-2.04636e-12
-2.27374e-12
-2.38742e-12
-2.21689e-12
-2.27374e-12
-2.44427e-12
-2.84217e-12
-2.16005e-12
-1.76215e-12
-6.25278e-13
1.13687e-13
6.82121e-13
1.36424e-12
2.27374e-12
2.67164e-12
2.21689e-12
1.53477e-12
1.3074e-12
1.53477e-12
1.53477e-12
7.38964e-13
1.25056e-12
1.47793e-12
1.59162e-12
2.27374e-12
2.78533e-12
2.72848e-12
2.44427e-12
1.98952e-12
2.50111e-12
2.27374e-12
1.7053e-12
1.13687e-12
1.08002e-12
1.64846e-12
1.59162e-12
1.98952e-12
1.93268e-12
1.93268e-12
2.44427e-12
3.29692e-12
2.67164e-12
2.38742e-12
1.64846e-12
1.76215e-12
9.09495e-13
2.84217e-13
-5.11591e-13
-6.82121e-13
-1.53477e-12
-1.98952e-12
-2.27374e-12
-2.72848e-12
-2.89901e-12
-2.27374e-12
-2.50111e-12
-1.81899e-12
-1.25056e-12
-1.59162e-12
-1.02318e-12
-1.3074e-12
-1.64846e-12
-1.25056e-12
-7.38964e-13
-5.11591e-13
-1.02318e-12
-2.27374e-13
1.13687e-13
-3.41061e-13
2.84217e-13
4.54747e-13
5.68434e-14
-7.38964e-13
-1.25056e-12
-1.19371e-12
-1.59162e-12
-1.25056e-12
-2.27374e-13
-2.27374e-13
3.41061e-13
1.08002e-12
9.66338e-13
3.41061e-13
-5.68434e-13
-2.84217e-13
-1.19371e-12
-1.42109e-12
-2.44427e-12
-3.12639e-12
-3.86535e-12
-4.54747e-12
-4.26326e-12
-4.54747e-12
-4.49063e-12
-4.26326e-12
-3.63798e-12
-3.12639e-12
-2.21689e-12
-1.19371e-12
-2.44427e-12
-2.38742e-12
-1.76215e-12
-1.25056e-12
-5.11591e-13
0
5.11591e-13
1.25056e-12
1.81899e-12
2.78533e-12
2.78533e-12
3.35376e-12
3.41061e-12
3.69482e-12
2.95586e-12
2.55795e-12
1.98952e-12
1.76215e-12
1.64846e-12
1.81899e-12
1.13687e-12
1.36424e-12
1.08002e-12
5.11591e-13
2.27374e-13
5.11591e-13
1.13687e-13
-6.25278e-13
-1.7053e-13
4.54747e-13
7.38964e-13
1.19371e-12
2.55795e-12
1.87583e-12
2.78533e-12
2.27374e-12
2.50111e-12
2.95586e-12
1.93268e-12
2.67164e-12
2.33058e-12
1.59162e-12
1.36424e-12
1.13687e-12
8.52651e-13
-5.68434e-14
-5.68434e-14
-7.38964e-13
-1.08002e-12
-1.59162e-12
-1.81899e-12
-2.27374e-12
-3.35376e-12
-3.24007e-12
-2.38742e-12
-2.6148e-12
-2.55795e-12
-2.33058e-12
-2.27374e-12
-2.50111e-12
-2.38742e-12
-2.33058e-12
-1.53477e-12
-1.64846e-12
-2.10321e-12
-1.64846e-12
-1.59162e-12
-2.27374e-12
-2.27374e-12
-1.98952e-12
-2.6148e-12
-3.63798e-12
-3.69482e-12
-4.20641e-12
-4.03588e-12
-4.718e-12
-5.22959e-12
-5.40012e-12
-4.77485e-12
-5.17275e-12
-5.28644e-12
-4.43379e-12
-4.14957e-12
-3.75167e-12
-3.0127e-12
-2.21689e-12
-1.3074e-12
-1.53477e-12
-5.68434e-13
2.27374e-13
1.3074e-12
2.04636e-12
2.95586e-12
2.89901e-12
4.03588e-12
4.60432e-12
5.96856e-12
6.42331e-12
7.10543e-12
6.99174e-12
6.70752e-12
6.76437e-12
7.27596e-12
6.70752e-12
6.48015e-12
5.85487e-12
5.6275e-12
5.34328e-12
4.49063e-12
4.09273e-12
4.37694e-12
3.86535e-12
3.35376e-12
2.72848e-12
1.7053e-12
1.19371e-12
6.82121e-13
3.97904e-13
-5.68434e-14
-5.11591e-13
-1.13687e-13
-5.11591e-13
1.7053e-13
1.02318e-12
1.7053e-12
2.44427e-12
3.63798e-12
4.14957e-12
5.17275e-12
5.22959e-12
5.79803e-12
6.65068e-12
8.29914e-12
8.92442e-12
9.15179e-12
8.81073e-12
8.18545e-12
8.35598e-12
9.32232e-12
9.09495e-12
8.98126e-12
8.52651e-12
8.52651e-12
8.46967e-12
8.29914e-12
9.0381e-12
8.46967e-12
7.95808e-12
7.50333e-12
7.04858e-12
7.16227e-12
6.9349e-12
7.21911e-12
8.2423e-12
7.84439e-12
8.81073e-12
9.43601e-12
9.0381e-12
8.6402e-12
8.46967e-12
8.46967e-12
8.18545e-12
8.12861e-12
7.67386e-12
8.58336e-12
9.60654e-12
1.04023e-11
1.09139e-11
1.13118e-11
1.23919e-11
1.3415e-11
1.40403e-11
1.4893e-11
1.55751e-11
1.50635e-11
1.48361e-11
1.51203e-11
1.38698e-11
1.39266e-11
1.33582e-11
1.25624e-11
1.1994e-11
1.14824e-11
1.06297e-11
8.81073e-12
8.12861e-12
7.38964e-12
6.53699e-12
6.76437e-12
4.66116e-12
3.9222e-12
3.24007e-12
3.18323e-12
2.6148e-12
3.52429e-12
2.67164e-12
2.95586e-12
3.63798e-12
3.63798e-12
3.18323e-12
3.41061e-12
3.35376e-12
3.41061e-12
3.52429e-12
3.52429e-12
3.12639e-12
3.75167e-12
3.75167e-12
3.97904e-12
3.80851e-12
3.63798e-12
4.09273e-12
3.97904e-12
3.24007e-12
3.06954e-12
3.52429e-12
4.88853e-12
5.00222e-12
5.45697e-12
6.70752e-12
7.78755e-12
7.67386e-12
8.6402e-12
9.20863e-12
9.60654e-12
1.08571e-11
1.14824e-11
1.15392e-11
1.28466e-11
1.44382e-11
1.4893e-11
1.42677e-11
1.45519e-11
1.50635e-11
1.43814e-11
1.44382e-11
1.39266e-11
1.31877e-11
1.3074e-11
1.24487e-11
1.16529e-11
1.10276e-11
1.0516e-11
1.00044e-11
9.89075e-12
9.72022e-12
1.02887e-11
1.06866e-11
1.08002e-11
1.14824e-11
1.21076e-11
1.29035e-11
1.29603e-11
1.24487e-11
1.21645e-11
1.27329e-11
1.25056e-11
1.1994e-11
1.10845e-11
1.02318e-11
9.72022e-12
8.92442e-12
8.6402e-12
7.56017e-12
7.50333e-12
7.16227e-12
6.65068e-12
6.53699e-12
6.76437e-12
5.79803e-12
6.30962e-12
6.30962e-12
6.13909e-12
6.87805e-12
7.04858e-12
8.12861e-12
8.98126e-12
9.09495e-12
9.43601e-12
1.0516e-11
1.0516e-11
1.17666e-11
1.22782e-11
1.32445e-11
1.30171e-11
1.33014e-11
1.35287e-11
1.40403e-11
1.46656e-11
1.52909e-11
1.56319e-11
1.64846e-11
1.63141e-11
1.54046e-11
1.57456e-11
1.55183e-11
1.51772e-11
1.44951e-11
1.4154e-11
1.3415e-11
1.37561e-11
1.32445e-11
1.29603e-11
1.30171e-11
1.26761e-11
1.22213e-11
1.16529e-11
1.11982e-11
1.11413e-11
1.11982e-11
1.04023e-11
9.77707e-12
9.26548e-12
8.92442e-12
8.07177e-12
8.12861e-12
6.87805e-12
6.19593e-12
6.08225e-12
5.51381e-12
5.22959e-12
5.28644e-12
5.51381e-12
5.79803e-12
5.85487e-12
5.91172e-12
5.68434e-12
5.68434e-12
6.48015e-12
6.42331e-12
6.70752e-12
6.30962e-12
6.82121e-12
6.9349e-12
7.27596e-12
7.67386e-12
8.41283e-12
8.92442e-12
9.43601e-12
8.69704e-12
9.37916e-12
9.83391e-12
1.0516e-11
1.15392e-11
1.18234e-11
1.24487e-11
1.40403e-11
1.55183e-11
1.63141e-11
1.64277e-11
1.60298e-11
1.65414e-11
1.7053e-11
1.7792e-11
1.80762e-11
1.87583e-11
1.87583e-11
1.8531e-11
1.81331e-11
1.71099e-11
1.65414e-11
1.69393e-11
1.60867e-11
1.51772e-11
1.46656e-11
1.36993e-11
1.34719e-11
1.37561e-11
1.39835e-11
1.33582e-11
1.27898e-11
1.31308e-11
1.29035e-11
1.27898e-11
1.25056e-11
1.29035e-11
1.39266e-11
1.42677e-11
1.45519e-11
1.59162e-11
1.68257e-11
1.6712e-11
1.6712e-11
1.71099e-11
1.71667e-11
1.65983e-11
1.60867e-11
1.52909e-11
1.4893e-11
1.46656e-11
1.5234e-11
1.55183e-11
1.43814e-11
1.4154e-11
1.3074e-11
1.28466e-11
1.25056e-11
1.15961e-11
1.15961e-11
1.22782e-11
1.18803e-11
1.22213e-11
1.26192e-11
1.36424e-11
1.34719e-11
1.4154e-11
1.37561e-11
1.45519e-11
1.55183e-11
1.6712e-11
1.6712e-11
1.72236e-11
1.7792e-11
1.84741e-11
1.82467e-11
1.80762e-11
1.93268e-11
2.05205e-11
2.05205e-11
1.98384e-11
1.92131e-11
1.87583e-11
1.89289e-11
1.80762e-11
1.7792e-11
1.84173e-11
1.80194e-11
1.67688e-11
1.56888e-11
1.48361e-11
1.43814e-11
1.3813e-11
1.31308e-11
1.21645e-11
1.22782e-11
1.26192e-11
1.15392e-11
1.1255e-11
1.17666e-11
1.10845e-11
1.17666e-11
1.21645e-11
1.30171e-11
1.3415e-11
1.40403e-11
1.42677e-11
1.43245e-11
1.36993e-11
1.26761e-11
1.26192e-11
1.18234e-11
1.10276e-11
1.0516e-11
9.15179e-12
8.35598e-12
8.2423e-12
7.27596e-12
7.56017e-12
7.44649e-12
6.9349e-12
7.7307e-12
7.44649e-12
8.07177e-12
9.66338e-12
9.72022e-12
9.49285e-12
1.06866e-11
1.08571e-11
1.08571e-11
1.17097e-11
1.25056e-11
1.3074e-11
1.46088e-11
1.53477e-11
1.6712e-11
1.7053e-11
1.75078e-11
1.72236e-11
1.59162e-11
1.53477e-11
1.49498e-11
1.46088e-11
1.33014e-11
1.30171e-11
1.20508e-11
1.18234e-11
1.02318e-11
9.66338e-12
8.92442e-12
8.01492e-12
7.44649e-12
6.82121e-12
6.42331e-12
6.13909e-12
5.17275e-12
4.83169e-12
5.00222e-12
4.94538e-12
5.00222e-12
5.91172e-12
6.70752e-12
8.69704e-12
8.2423e-12
8.81073e-12
9.20863e-12
1.00613e-11
1.04023e-11
1.02887e-11
1.11982e-11
1.14255e-11
1.26761e-11
1.28466e-11
1.31308e-11
1.36424e-11
1.38698e-11
1.35856e-11
1.26761e-11
1.22213e-11
1.15961e-11
1.07434e-11
1.02887e-11
9.37916e-12
8.35598e-12
7.16227e-12
6.42331e-12
6.30962e-12
6.13909e-12
5.57066e-12
6.19593e-12
6.76437e-12
5.85487e-12
6.13909e-12
6.30962e-12
7.10543e-12
7.61702e-12
8.29914e-12
8.86757e-12
8.41283e-12
8.81073e-12
9.43601e-12
9.43601e-12
9.83391e-12
9.83391e-12
9.49285e-12
1.0175e-11
1.14255e-11
1.11413e-11
1.09708e-11
1.08002e-11
1.08571e-11
1.06866e-11
1.0516e-11
9.54969e-12
8.52651e-12
7.44649e-12
6.53699e-12
6.9349e-12
6.99174e-12
6.70752e-12
5.40012e-12
4.43379e-12
4.43379e-12
4.26326e-12
4.60432e-12
5.22959e-12
5.57066e-12
5.00222e-12
4.49063e-12
4.43379e-12
3.97904e-12
3.63798e-12
3.80851e-12
4.20641e-12
3.86535e-12
4.14957e-12
3.46745e-12
4.20641e-12
3.58114e-12
3.86535e-12
2.89901e-12
2.72848e-12
2.33058e-12
2.89901e-12
3.35376e-12
3.12639e-12
3.9222e-12
4.14957e-12
4.83169e-12
5.74119e-12
6.65068e-12
6.82121e-12
8.2423e-12
8.81073e-12
1.00613e-11
1.08571e-11
1.14255e-11
1.15961e-11
1.18234e-11
1.21076e-11
1.26192e-11
1.22782e-11
1.17097e-11
1.19371e-11
1.1255e-11
9.83391e-12
8.46967e-12
7.56017e-12
6.87805e-12
6.13909e-12
6.9349e-12
6.82121e-12
6.65068e-12
6.13909e-12
5.91172e-12
5.40012e-12
6.19593e-12
5.51381e-12
5.34328e-12
5.6275e-12
5.74119e-12
5.17275e-12
5.22959e-12
5.11591e-12
5.51381e-12
5.74119e-12
6.36646e-12
6.99174e-12
6.53699e-12
6.42331e-12
6.13909e-12
7.50333e-12
8.58336e-12
9.77707e-12
1.0516e-11
1.02887e-11
1.13118e-11
1.2335e-11
1.19371e-11
1.18234e-11
1.1994e-11
1.11413e-11
1.10845e-11
1.09139e-11
1.04023e-11
9.54969e-12
8.29914e-12
8.29914e-12
7.90124e-12
8.86757e-12
8.46967e-12
7.78755e-12
8.58336e-12
8.18545e-12
8.92442e-12
9.09495e-12
9.9476e-12
9.66338e-12
9.15179e-12
8.35598e-12
8.07177e-12
7.90124e-12
8.75389e-12
8.52651e-12
8.01492e-12
7.78755e-12
7.38964e-12
5.74119e-12
5.45697e-12
5.22959e-12
3.97904e-12
3.58114e-12
2.95586e-12
3.24007e-12
3.18323e-12
3.46745e-12
3.35376e-12
3.63798e-12
3.35376e-12
4.20641e-12
4.20641e-12
4.60432e-12
4.49063e-12
5.28644e-12
5.57066e-12
6.36646e-12
6.19593e-12
6.76437e-12
8.2423e-12
8.75389e-12
9.43601e-12
9.60654e-12
1.04592e-11
9.89075e-12
9.15179e-12
8.98126e-12
9.37916e-12
8.69704e-12
8.12861e-12
7.38964e-12
6.9349e-12
6.08225e-12
5.51381e-12
5.17275e-12
5.34328e-12
5.40012e-12
5.85487e-12
4.43379e-12
4.60432e-12
3.63798e-12
3.0127e-12
2.33058e-12
2.04636e-12
2.04636e-12
1.64846e-12
6.82121e-13
8.52651e-13
1.81899e-12
9.09495e-13
1.08002e-12
1.64846e-12
2.16005e-12
1.98952e-12
1.93268e-12
2.21689e-12
2.67164e-12
3.35376e-12
3.18323e-12
3.24007e-12
3.86535e-12
3.75167e-12
4.26326e-12
3.52429e-12
2.84217e-12
2.38742e-12
2.55795e-12
3.29692e-12
3.97904e-12
4.20641e-12
4.60432e-12
5.11591e-12
4.66116e-12
5.22959e-12
5.00222e-12
5.6275e-12
6.08225e-12
7.21911e-12
8.18545e-12
8.86757e-12
9.32232e-12
8.92442e-12
8.29914e-12
8.41283e-12
8.69704e-12
9.15179e-12
9.60654e-12
8.69704e-12
6.65068e-12
6.48015e-12
5.74119e-12
3.97904e-12
2.50111e-12
1.3074e-12
8.52651e-13
8.52651e-13
1.7053e-13
5.68434e-14
-7.38964e-13
-1.02318e-12
-4.54747e-13
-7.38964e-13
-1.47793e-12
-7.38964e-13
5.68434e-14
-3.41061e-13
5.68434e-14
6.82121e-13
1.08002e-12
2.21689e-12
3.06954e-12
2.67164e-12
3.29692e-12
3.58114e-12
3.58114e-12
3.12639e-12
3.52429e-12
3.41061e-12
2.10321e-12
9.09495e-13
3.97904e-13
2.84217e-13
-1.08002e-12
-1.7053e-12
-9.66338e-13
-7.38964e-13
-1.7053e-12
-1.98952e-12
-2.55795e-12
-2.21689e-12
-3.12639e-12
-3.75167e-12
-4.49063e-12
-3.58114e-12
-4.88853e-12
-5.28644e-12
-5.28644e-12
-5.00222e-12
-4.60432e-12
-4.14957e-12
-3.80851e-12
-2.72848e-12
-2.27374e-12
-1.64846e-12
-1.08002e-12
6.25278e-13
1.42109e-12
2.16005e-12
2.89901e-12
3.9222e-12
5.05906e-12
5.79803e-12
6.42331e-12
6.65068e-12
6.19593e-12
6.08225e-12
6.13909e-12
5.17275e-12
5.17275e-12
5.68434e-12
4.77485e-12
3.97904e-12
3.41061e-12
2.04636e-12
1.25056e-12
5.68434e-13
-5.11591e-13
-9.09495e-13
-1.25056e-12
-1.64846e-12
-1.3074e-12
-1.64846e-12
-1.59162e-12
-1.93268e-12
-1.76215e-12
-1.53477e-12
-1.64846e-12
-1.81899e-12
-1.76215e-12
-1.7053e-12
-1.25056e-12
-7.38964e-13
-2.84217e-13
-1.13687e-13
1.13687e-13
-1.13687e-13
-4.54747e-13
-1.19371e-12
-1.64846e-12
-1.87583e-12
-2.84217e-12
-4.49063e-12
-4.37694e-12
-4.88853e-12
-5.11591e-12
-5.79803e-12
-6.30962e-12
-5.51381e-12
-6.0254e-12
-6.08225e-12
-6.76437e-12
-6.76437e-12
-5.91172e-12
-4.37694e-12
-3.9222e-12
-3.24007e-12
-2.89901e-12
-2.50111e-12
-2.38742e-12
-1.98952e-12
-1.13687e-12
-4.54747e-13
4.54747e-13
8.52651e-13
1.36424e-12
9.66338e-13
1.02318e-12
1.53477e-12
7.95808e-13
5.68434e-14
-8.52651e-13
-1.53477e-12
-2.72848e-12
-3.46745e-12
-4.03588e-12
-4.49063e-12
-4.66116e-12
-4.60432e-12
-4.66116e-12
-5.45697e-12
-6.25278e-12
-6.59384e-12
-5.91172e-12
-5.6275e-12
-4.718e-12
-4.37694e-12
-3.41061e-12
-3.0127e-12
-3.46745e-12
-3.69482e-12
-3.24007e-12
-2.38742e-12
-1.59162e-12
-1.3074e-12
-1.25056e-12
-1.42109e-12
-3.97904e-13
2.84217e-13
1.7053e-13
6.82121e-13
1.42109e-12
1.59162e-12
9.66338e-13
6.25278e-13
3.97904e-13
-1.13687e-13
-2.27374e-13
-5.68434e-14
-1.13687e-13
-2.84217e-13
-5.68434e-13
-9.09495e-13
-1.3074e-12
-1.08002e-12
-1.08002e-12
-7.38964e-13
-5.68434e-13
9.09495e-13
5.68434e-13
9.66338e-13
7.95808e-13
7.95808e-13
1.53477e-12
7.38964e-13
9.66338e-13
1.25056e-12
1.81899e-12
2.04636e-12
2.04636e-12
2.72848e-12
1.87583e-12
1.36424e-12
3.97904e-13
-1.13687e-12
-2.55795e-12
-3.0127e-12
-3.52429e-12
-4.60432e-12
-4.718e-12
-4.3201e-12
-4.60432e-12
-4.43379e-12
-4.43379e-12
-4.43379e-12
-4.43379e-12
-3.12639e-12
-3.35376e-12
-3.69482e-12
-3.35376e-12
-3.06954e-12
-2.50111e-12
-1.76215e-12
-1.19371e-12
-1.02318e-12
-9.09495e-13
-7.38964e-13
-2.84217e-13
-2.84217e-13
-1.7053e-13
-6.25278e-13
-1.02318e-12
-1.42109e-12
-1.98952e-12
-2.84217e-12
-2.84217e-12
-3.18323e-12
-3.97904e-12
-4.09273e-12
-4.88853e-12
-5.51381e-12
-5.96856e-12
-5.05906e-12
-4.94538e-12
-4.60432e-12
-3.69482e-12
-3.46745e-12
-2.55795e-12
-2.33058e-12
-1.81899e-12
-4.54747e-13
1.7053e-13
9.09495e-13
1.76215e-12
3.75167e-12
4.14957e-12
4.88853e-12
4.718e-12
5.17275e-12
4.718e-12
5.68434e-12
5.85487e-12
5.34328e-12
5.6275e-12
5.74119e-12
6.13909e-12
6.13909e-12
6.13909e-12
5.40012e-12
4.94538e-12
3.80851e-12
2.95586e-12
2.67164e-12
1.93268e-12
9.66338e-13
5.68434e-14
-1.36424e-12
-2.04636e-12
-2.67164e-12
-2.72848e-12
-2.38742e-12
-2.16005e-12
-2.27374e-12
-2.04636e-12
-2.84217e-12
-3.06954e-12
-2.33058e-12
-2.38742e-12
-2.27374e-12
-2.21689e-12
-1.02318e-12
-9.66338e-13
-1.13687e-13
9.66338e-13
1.47793e-12
1.87583e-12
2.84217e-12
3.41061e-12
3.9222e-12
3.75167e-12
4.83169e-12
4.14957e-12
5.28644e-12
5.6275e-12
5.45697e-12
5.00222e-12
4.20641e-12
4.718e-12
4.26326e-12
3.97904e-12
4.49063e-12
5.34328e-12
5.51381e-12
5.40012e-12
4.60432e-12
4.54747e-12
3.75167e-12
2.78533e-12
3.29692e-12
2.72848e-12
2.21689e-12
1.93268e-12
1.08002e-12
3.97904e-13
-2.84217e-13
-1.13687e-12
-1.93268e-12
-1.87583e-12
-1.47793e-12
-1.7053e-12
-1.36424e-12
-1.53477e-12
-7.95808e-13
-1.47793e-12
-1.36424e-12
-5.68434e-13
-1.7053e-13
2.84217e-13
1.25056e-12
2.50111e-12
2.78533e-12
3.52429e-12
3.75167e-12
2.89901e-12
2.84217e-12
3.24007e-12
2.89901e-12
2.84217e-12
3.75167e-12
3.75167e-12
3.63798e-12
4.14957e-12
4.20641e-12
4.77485e-12
4.09273e-12
3.9222e-12
4.09273e-12
3.9222e-12
4.14957e-12
3.46745e-12
3.46745e-12
3.12639e-12
3.75167e-12
2.95586e-12
3.52429e-12
3.12639e-12
2.27374e-12
1.36424e-12
1.76215e-12
1.87583e-12
2.50111e-12
3.12639e-12
2.78533e-12
2.6148e-12
2.67164e-12
2.16005e-12
2.78533e-12
2.44427e-12
2.04636e-12
1.3074e-12
7.38964e-13
1.19371e-12
1.3074e-12
1.13687e-12
1.93268e-12
2.04636e-12
1.02318e-12
1.02318e-12
5.68434e-13
-2.27374e-13
-5.11591e-13
-5.68434e-14
1.13687e-13
2.84217e-13
2.84217e-13
9.09495e-13
1.64846e-12
1.25056e-12
1.25056e-12
1.08002e-12
1.42109e-12
1.53477e-12
1.59162e-12
2.27374e-12
1.47793e-12
9.09495e-13
2.84217e-13
-3.41061e-13
-6.25278e-13
-8.52651e-13
-3.41061e-13
-4.54747e-13
-3.41061e-13
-9.09495e-13
-1.19371e-12
-7.38964e-13
-1.19371e-12
-1.25056e-12
-1.36424e-12
-1.47793e-12
-6.82121e-13
-1.7053e-13
0
5.68434e-14
6.82121e-13
1.42109e-12
1.19371e-12
1.7053e-12
2.72848e-12
3.46745e-12
4.14957e-12
4.60432e-12
5.45697e-12
4.49063e-12
5.57066e-12
5.68434e-12
6.42331e-12
6.53699e-12
6.0254e-12
5.79803e-12
6.19593e-12
5.79803e-12
5.74119e-12
5.17275e-12
4.83169e-12
4.718e-12
3.86535e-12
2.50111e-12
1.25056e-12
-7.95808e-13
-1.7053e-12
-2.16005e-12
-1.3074e-12
-1.93268e-12
-1.87583e-12
-1.19371e-12
-1.3074e-12
-1.87583e-12
-1.81899e-12
-2.72848e-12
-2.10321e-12
-2.33058e-12
-2.78533e-12
-3.0127e-12
-3.29692e-12
-3.41061e-12
-3.06954e-12
-2.89901e-12
-2.95586e-12
-2.21689e-12
-1.64846e-12
-1.47793e-12
-1.08002e-12
-6.82121e-13
-1.13687e-13
7.38964e-13
1.25056e-12
1.7053e-12
1.93268e-12
2.21689e-12
2.6148e-12
2.38742e-12
3.18323e-12
3.0127e-12
1.98952e-12
1.3074e-12
1.59162e-12
1.19371e-12
1.7053e-12
1.25056e-12
7.38964e-13
7.38964e-13
1.7053e-13
0
-7.95808e-13
-1.53477e-12
-1.81899e-12
-2.50111e-12
-2.38742e-12
-3.06954e-12
-2.55795e-12
-2.33058e-12
-2.38742e-12
-3.24007e-12
-3.52429e-12
-3.41061e-12
-2.95586e-12
-3.63798e-12
-3.63798e-12
-4.03588e-12
-3.69482e-12
-3.29692e-12
-3.41061e-12
-3.46745e-12
-3.46745e-12
-2.95586e-12
-2.72848e-12
-2.55795e-12
-2.50111e-12
-1.87583e-12
-1.7053e-12
-1.36424e-12
-8.52651e-13
-3.97904e-13
2.27374e-13
1.02318e-12
1.13687e-12
2.16005e-12
2.84217e-12
2.6148e-12
1.93268e-12
1.47793e-12
1.25056e-12
1.47793e-12
1.25056e-12
2.21689e-12
1.53477e-12
1.3074e-12
1.59162e-12
1.59162e-12
1.53477e-12
2.21689e-12
2.78533e-12
3.12639e-12
2.78533e-12
2.72848e-12
2.89901e-12
2.44427e-12
2.6148e-12
2.16005e-12
2.04636e-12
1.19371e-12
8.52651e-13
1.42109e-12
1.81899e-12
2.67164e-12
3.35376e-12
3.58114e-12
2.50111e-12
1.81899e-12
1.87583e-12
1.59162e-12
1.53477e-12
1.25056e-12
8.52651e-13
0
-4.54747e-13
-7.38964e-13
-1.19371e-12
-1.76215e-12
-1.7053e-12
-1.08002e-12
-1.59162e-12
-1.42109e-12
-1.36424e-12
-1.64846e-12
-1.25056e-12
-5.11591e-13
3.41061e-13
8.52651e-13
1.42109e-12
1.81899e-12
1.64846e-12
1.98952e-12
2.78533e-12
3.29692e-12
4.20641e-12
3.80851e-12
3.9222e-12
4.20641e-12
3.58114e-12
3.06954e-12
2.21689e-12
1.25056e-12
7.95808e-13
-7.95808e-13
-2.16005e-12
-3.18323e-12
-5.05906e-12
-5.91172e-12
-5.91172e-12
-6.42331e-12
-7.16227e-12
-6.76437e-12
-7.38964e-12
-7.7307e-12
-7.84439e-12
-8.92442e-12
-8.46967e-12
-8.07177e-12
-8.75389e-12
-9.09495e-12
-9.60654e-12
-9.37916e-12
-8.81073e-12
-8.07177e-12
-6.42331e-12
-6.08225e-12
-4.60432e-12
-3.46745e-12
-2.10321e-12
-1.19371e-12
-3.41061e-13
-3.41061e-13
-7.95808e-13
-6.25278e-13
-4.54747e-13
-6.25278e-13
-2.84217e-13
-3.97904e-13
-8.52651e-13
-5.68434e-13
-6.25278e-13
-1.19371e-12
-9.66338e-13
-1.19371e-12
-1.87583e-12
-2.67164e-12
-3.12639e-12
-2.67164e-12
-2.33058e-12
-2.04636e-12
-1.81899e-12
-2.44427e-12
-2.67164e-12
-2.21689e-12
-1.87583e-12
-3.12639e-12
-3.52429e-12
-4.77485e-12
-5.22959e-12
-5.57066e-12
-6.25278e-12
-7.78755e-12
-8.35598e-12
-7.84439e-12
-8.52651e-12
-8.35598e-12
-8.29914e-12
-7.67386e-12
-7.61702e-12
-7.61702e-12
-7.10543e-12
-6.53699e-12
-7.04858e-12
-7.3328e-12
-7.38964e-12
-6.65068e-12
-6.70752e-12
-5.6275e-12
-5.00222e-12
-4.49063e-12
-4.83169e-12
-4.14957e-12
-3.46745e-12
-2.89901e-12
-2.04636e-12
-2.16005e-12
-1.93268e-12
-2.38742e-12
-1.98952e-12
-1.76215e-12
-1.81899e-12
-1.64846e-12
-1.3074e-12
-1.08002e-12
-1.13687e-13
3.41061e-13
4.54747e-13
7.38964e-13
5.11591e-13
5.11591e-13
1.7053e-13
-3.41061e-13
-5.68434e-14
-6.82121e-13
1.7053e-13
3.97904e-13
1.13687e-13
-1.13687e-13
-1.13687e-13
0
2.84217e-13
5.68434e-14
-5.68434e-13
-1.59162e-12
-2.50111e-12
-2.84217e-12
-3.75167e-12
-4.66116e-12
-4.77485e-12
-5.40012e-12
-5.17275e-12
-5.17275e-12
-5.96856e-12
-6.19593e-12
-6.30962e-12
-6.87805e-12
-7.78755e-12
-7.27596e-12
-7.67386e-12
-8.52651e-12
-7.56017e-12
-6.59384e-12
-6.30962e-12
-5.45697e-12
-4.26326e-12
-4.54747e-12
-3.52429e-12
-2.72848e-12
-2.27374e-12
-1.08002e-12
-1.3074e-12
-6.82121e-13
-3.41061e-13
0
2.84217e-13
1.25056e-12
1.81899e-12
1.3074e-12
8.52651e-13
7.38964e-13
6.82121e-13
7.38964e-13
-3.97904e-13
-1.13687e-12
-1.64846e-12
-3.24007e-12
-3.63798e-12
-3.29692e-12
-3.86535e-12
-4.09273e-12
-4.54747e-12
-4.83169e-12
-5.00222e-12
-5.91172e-12
-6.0254e-12
-6.53699e-12
-6.42331e-12
-7.27596e-12
-7.50333e-12
-8.01492e-12
-8.01492e-12
-8.58336e-12
-9.32232e-12
-9.72022e-12
-9.9476e-12
-8.75389e-12
-8.6402e-12
-8.86757e-12
-8.18545e-12
-8.29914e-12
-7.7307e-12
-8.58336e-12
-8.52651e-12
-9.09495e-12
-9.49285e-12
-9.54969e-12
-9.72022e-12
-1.02887e-11
-9.32232e-12
-1.01181e-11
-9.77707e-12
-8.86757e-12
-8.69704e-12
-8.41283e-12
-8.01492e-12
-7.44649e-12
-6.99174e-12
-6.48015e-12
-5.96856e-12
-4.94538e-12
-3.97904e-12
-3.80851e-12
-3.29692e-12
-3.35376e-12
-3.9222e-12
-5.05906e-12
-5.51381e-12
-4.94538e-12
-6.19593e-12
-6.42331e-12
-6.48015e-12
-7.78755e-12
-8.12861e-12
-8.29914e-12
-8.46967e-12
-8.81073e-12
-8.75389e-12
-9.15179e-12
-8.98126e-12
-9.54969e-12
-8.75389e-12
-8.35598e-12
-8.2423e-12
-7.61702e-12
-7.95808e-12
-8.01492e-12
-5.96856e-12
-4.60432e-12
-4.20641e-12
-3.69482e-12
-3.80851e-12
-4.26326e-12
-4.88853e-12
-4.49063e-12
-4.3201e-12
-4.60432e-12
-5.28644e-12
-5.34328e-12
-5.51381e-12
-6.08225e-12
-5.91172e-12
-6.53699e-12
-5.85487e-12
-5.51381e-12
-5.74119e-12
-5.11591e-12
-4.77485e-12
-4.26326e-12
-3.52429e-12
-4.09273e-12
-5.00222e-12
-5.79803e-12
-5.40012e-12
-5.00222e-12
-5.05906e-12
-5.68434e-12
-4.94538e-12
-4.54747e-12
-4.718e-12
-5.11591e-12
-4.77485e-12
-4.37694e-12
-4.83169e-12
-4.49063e-12
-5.28644e-12
-5.22959e-12
-4.66116e-12
-4.43379e-12
-4.718e-12
-5.28644e-12
-4.83169e-12
-4.718e-12
-5.40012e-12
-6.08225e-12
-5.34328e-12
-4.718e-12
-4.20641e-12
-3.41061e-12
-3.46745e-12
-3.41061e-12
-2.84217e-12
-2.27374e-12
-2.10321e-12
-1.47793e-12
-5.11591e-13
1.02318e-12
1.98952e-12
3.29692e-12
3.18323e-12
3.80851e-12
4.26326e-12
4.54747e-12
5.34328e-12
5.40012e-12
5.57066e-12
5.6275e-12
5.57066e-12
4.83169e-12
3.12639e-12
2.84217e-12
1.76215e-12
4.54747e-13
-1.08002e-12
-1.53477e-12
-2.38742e-12
-2.50111e-12
-2.38742e-12
-3.18323e-12
-3.52429e-12
-3.41061e-12
-3.0127e-12
-2.72848e-12
-2.55795e-12
-1.98952e-12
-1.93268e-12
-1.87583e-12
-1.13687e-12
-7.95808e-13
2.84217e-13
7.38964e-13
1.25056e-12
1.87583e-12
1.64846e-12
2.33058e-12
2.21689e-12
2.10321e-12
2.50111e-12
2.72848e-12
2.38742e-12
3.18323e-12
2.84217e-12
2.33058e-12
1.87583e-12
1.7053e-12
1.76215e-12
2.21689e-12
1.64846e-12
9.09495e-13
2.84217e-13
6.82121e-13
3.41061e-13
-5.68434e-14
-6.25278e-13
-1.59162e-12
-3.06954e-12
-3.06954e-12
-3.97904e-12
-5.22959e-12
-5.22959e-12
-5.11591e-12
-5.11591e-12
-4.83169e-12
-4.83169e-12
-4.26326e-12
-2.84217e-12
-2.33058e-12
-1.53477e-12
-1.02318e-12
-3.97904e-13
2.84217e-13
6.25278e-13
1.7053e-13
-3.41061e-13
-2.84217e-13
-4.54747e-13
-7.38964e-13
-1.7053e-12
-2.72848e-12
-3.06954e-12
-4.77485e-12
-5.68434e-12
-6.99174e-12
-7.95808e-12
-8.6402e-12
-8.52651e-12
-8.81073e-12
-6.9349e-12
-6.13909e-12
-5.85487e-12
-4.718e-12
-4.77485e-12
-5.40012e-12
-4.94538e-12
-4.3201e-12
-4.37694e-12
-4.83169e-12
-4.20641e-12
-3.75167e-12
-4.49063e-12
-5.00222e-12
-4.77485e-12
-4.49063e-12
-5.05906e-12
-5.74119e-12
-6.13909e-12
-6.76437e-12
-6.70752e-12
-7.10543e-12
-7.95808e-12
-8.58336e-12
-7.10543e-12
-6.87805e-12
-5.91172e-12
-5.6275e-12
-4.66116e-12
-4.77485e-12
-4.37694e-12
-3.52429e-12
-3.35376e-12
-2.84217e-12
-3.0127e-12
-2.72848e-12
-1.98952e-12
-1.3074e-12
-1.36424e-12
-5.11591e-13
0
4.54747e-13
9.66338e-13
3.41061e-13
8.52651e-13
1.47793e-12
9.09495e-13
6.82121e-13
5.11591e-13
-5.68434e-13