/*--------------------------------*- C++ -*----------------------------------*\
| =========                 |                                                 |
| \\      /  F ield         | OpenFOAM: The Open Source CFD Toolbox           |
|  \\    /   O peration     | Version:  4.0                                   |
|   \\  /    A nd           | Web:      www.OpenFOAM.org                      |
|    \\/     M anipulation  |                                                 |
\*---------------------------------------------------------------------------*/
FoamFile
{
    version     2.0;
    format      ascii;
    class       volVectorField;
    location    "35";
    object      U;
}
// * * * * * * * * * * * * * * * * * * * * * * * * * * * * * * * * * * * * * //

dimensions      [0 1 -1 0 0 0 0];

internalField   nonuniform List<vector> 
8800
(
(0.980155 -0.0915211 0)
(1.00234 -0.0587226 0)
(0.999608 -0.0321235 0)
(0.999997 -0.016514 0)
(1.00005 -0.00882706 0)
(1.00003 -0.0050762 0)
(1 -0.00298418 0)
(0.99998 -0.00169756 0)
(0.999971 -0.0008126 0)
(1.00006 -0.000121743 0)
(0.999978 0.000579701 0)
(0.999998 0.00133464 0)
(1.00001 0.00236891 0)
(1.00002 0.00397949 0)
(1.00003 0.00672872 0)
(1.00001 0.0120358 0)
(0.99984 0.0230892 0)
(0.999055 0.0431559 0)
(1.00723 0.0790279 0)
(0.775024 0.0478396 0)
(0.358975 -0.0147491 0)
(1.04649 -0.0724946 0)
(1.08849 -0.0660322 0)
(1.04946 -0.0509254 0)
(1.02553 -0.0377051 0)
(1.01268 -0.0258975 0)
(1.00651 -0.016713 0)
(1.00357 -0.0102527 0)
(1.00214 -0.00564394 0)
(1.00148 -0.00206421 0)
(1.00136 0.00112478 0)
(1.00173 0.00442434 0)
(1.00271 0.00832534 0)
(1.00473 0.0136594 0)
(1.00896 0.021352 0)
(1.01795 0.0318503 0)
(1.03582 0.0446334 0)
(1.06745 0.0580881 0)
(1.09472 0.069961 0)
(0.845671 0.0555019 0)
(0.217755 -0.00138174 0)
(1.07566 -0.0506697 0)
(1.09941 -0.048957 0)
(1.06438 -0.0400441 0)
(1.03985 -0.0325837 0)
(1.02373 -0.0253704 0)
(1.01396 -0.0181826 0)
(1.00846 -0.0116038 0)
(1.00561 -0.00587432 0)
(1.00446 -0.000602389 0)
(1.00478 0.00449339 0)
(1.00664 0.00977114 0)
(1.01057 0.0157557 0)
(1.01788 0.0225377 0)
(1.0305 0.0296634 0)
(1.0505 0.0367642 0)
(1.08008 0.044553 0)
(1.10572 0.0518921 0)
(0.943365 0.0409891 0)
(0.217257 0.00140246 0)
(0.176595 -0.000629327 0)
(1.01935 -0.0354821 0)
(1.1057 -0.0414397 0)
(1.07795 -0.0364291 0)
(1.05237 -0.0303852 0)
(1.03513 -0.0245226 0)
(1.02329 -0.0187712 0)
(1.01549 -0.0128155 0)
(1.0109 -0.00675006 0)
(1.00889 -0.000547597 0)
(1.00944 0.00557864 0)
(1.01253 0.0114822 0)
(1.01849 0.0172724 0)
(1.02807 0.0228841 0)
(1.04229 0.0284594 0)
(1.06312 0.0342571 0)
(1.09393 0.0401605 0)
(1.09454 0.0417087 0)
(0.830422 0.0227448 0)
(0.175746 0.000645846 0)
(0.154668 -0.00046296 0)
(0.958073 -0.0257079 0)
(1.10435 -0.0351485 0)
(1.08802 -0.0327122 0)
(1.06114 -0.0282157 0)
(1.04308 -0.0232727 0)
(1.03073 -0.0180284 0)
(1.02215 -0.0125447 0)
(1.01661 -0.00668597 0)
(1.01399 -0.000274083 0)
(1.01466 0.00616048 0)
(1.01849 0.012014 0)
(1.02527 0.0173436 0)
(1.0354 0.0223906 0)
(1.05017 0.0272574 0)
(1.0721 0.0317196 0)
(1.10111 0.0356138 0)
(1.06991 0.0338589 0)
(0.74296 0.0144049 0)
(0.153399 0.000481617 0)
(0.139967 -0.000334824 0)
(0.901002 -0.0193397 0)
(1.09672 -0.0302544 0)
(1.09612 -0.0293858 0)
(1.0688 -0.0256045 0)
(1.04994 -0.0215505 0)
(1.037 -0.0169384 0)
(1.02804 -0.0117678 0)
(1.02213 -0.00611436 0)
(1.01919 0.000170491 0)
(1.01986 0.00649053 0)
(1.0239 0.012115 0)
(1.03093 0.0171083 0)
(1.04145 0.0216058 0)
(1.05688 0.0255936 0)
(1.07969 0.0291517 0)
(1.10351 0.0319042 0)
(1.03834 0.0279662 0)
(0.676442 0.0102385 0)
(0.138184 0.000357018 0)
(0.129216 -0.000253377 0)
(0.851071 -0.014932 0)
(1.08429 -0.0261439 0)
(1.10173 -0.0265186 0)
(1.07554 -0.0232331 0)
(1.05617 -0.0196372 0)
(1.04281 -0.0155354 0)
(1.03348 -0.0107551 0)
(1.02729 -0.00534741 0)
(1.02414 0.000724748 0)
(1.02473 0.00681147 0)
(1.02881 0.0121396 0)
(1.03603 0.0167123 0)
(1.04686 0.0206351 0)
(1.06267 0.024036 0)
(1.08593 0.0271071 0)
(1.10286 0.0289539 0)
(1.00399 0.0233479 0)
(0.624818 0.00780976 0)
(0.126807 0.000280392 0)
(0.121025 -0.000194497 0)
(0.808556 -0.0117309 0)
(1.0689 -0.0225242 0)
(1.10514 -0.0238506 0)
(1.08167 -0.0210037 0)
(1.06184 -0.0176422 0)
(1.04821 -0.0138634 0)
(1.03862 -0.00946656 0)
(1.03217 -0.00439148 0)
(1.02881 0.00140453 0)
(1.02927 0.00718781 0)
(1.03335 0.0121296 0)
(1.04065 0.0162074 0)
(1.0516 0.0196265 0)
(1.06769 0.022628 0)
(1.09135 0.0254258 0)
(1.09943 0.0264162 0)
(0.969436 0.0196745 0)
(0.583648 0.00620792 0)
(0.117857 0.000227228 0)
(0.114684 -0.00015008 0)
(0.772754 -0.00932147 0)
(1.05196 -0.0193211 0)
(1.10739 -0.0214118 0)
(1.08742 -0.0189833 0)
(1.06714 -0.0158151 0)
(1.05323 -0.0122143 0)
(1.04346 -0.00803059 0)
(1.0368 -0.00323133 0)
(1.0332 0.00223058 0)
(1.0335 0.00762718 0)
(1.0375 0.0121558 0)
(1.04478 0.0158321 0)
(1.05579 0.0188977 0)
(1.07217 0.0215842 0)
(1.0956 0.0240403 0)
(1.09333 0.0242322 0)
(0.936064 0.0167644 0)
(0.549983 0.00508552 0)
(0.110592 0.000189586 0)
(0.109749 -0.000114674 0)
(0.742792 -0.00743415 0)
(1.03456 -0.0164351 0)
(1.10855 -0.0190497 0)
(1.09274 -0.0169825 0)
(1.07219 -0.0139736 0)
(1.05804 -0.0105112 0)
(1.04808 -0.00650097 0)
(1.04122 -0.00194283 0)
(1.03738 0.00321641 0)
(1.03745 0.00824852 0)
(1.0413 0.0123613 0)
(1.0485 0.0156343 0)
(1.05951 0.018353 0)
(1.0761 0.0207331 0)
(1.09856 0.0228194 0)
(1.08494 0.0223068 0)
(0.904574 0.0144662 0)
(0.521829 0.00427339 0)
(0.104535 0.000162959 0)
(0.105936 -8.54333e-05 0)
(0.717899 -0.00589501 0)
(1.01761 -0.0138152 0)
(1.1089 -0.0167231 0)
(1.09792 -0.0149289 0)
(1.07708 -0.0119674 0)
(1.06262 -0.00862424 0)
(1.05246 -0.00478285 0)
(1.0454 -0.000425708 0)
(1.0413 0.00441536 0)
(1.04109 0.00903178 0)
(1.04469 0.0127391 0)
(1.05173 0.0156342 0)
(1.06278 0.0179746 0)
(1.07963 0.0200198 0)
(1.10028 0.0217763 0)
(1.07481 0.0206123 0)
(0.875241 0.0126509 0)
(0.497821 0.00367421 0)
(0.0993564 0.000143926 0)
(0.103055 -6.01265e-05 0)
(0.697486 -0.00457955 0)
(1.00172 -0.0113737 0)
(1.10851 -0.0144259 0)
(1.10287 -0.01292 0)
(1.08185 -0.0100236 0)
(1.06704 -0.0067155 0)
(1.05664 -0.00293341 0)
(1.0493 0.00127409 0)
(1.04486 0.00584439 0)
(1.04429 0.0100924 0)
(1.04763 0.0133784 0)
(1.05451 0.015871 0)
(1.0656 0.0178835 0)
(1.08269 0.0196426 0)
(1.10105 0.0209789 0)
(1.06325 0.0191658 0)
(0.848017 0.0112184 0)
(0.476957 0.00323355 0)
(0.0948064 0.000132249 0)
(0.101 -3.64648e-05 0)
(0.681173 -0.00339722 0)
(0.987442 -0.0090226 0)
(1.10751 -0.0119776 0)
(1.1074 -0.0106698 0)
(1.08657 -0.00781363 0)
(1.07145 -0.00449953 0)
(1.06073 -0.000778318 0)
(1.05304 0.00327381 0)
(1.0482 0.00759312 0)
(1.0472 0.0114725 0)
(1.0502 0.0143222 0)
(1.05692 0.0164028 0)
(1.06797 0.0180372 0)
(1.08513 0.0194443 0)
(1.10079 0.0203233 0)
(1.05056 0.0178991 0)
(0.822804 0.0100859 0)
(0.458516 0.00290785 0)
(0.0907093 0.000125302 0)
(0.0997139 -1.34755e-05 0)
(0.668703 -0.00228019 0)
(0.975241 -0.00671524 0)
(1.1064 -0.00936468 0)
(1.11176 -0.00810298 0)
(1.09129 -0.00523575 0)
(1.07579 -0.00194219 0)
(1.06472 0.00171321 0)
(1.05662 0.0056537 0)
(1.05126 0.0097318 0)
(1.04973 0.013198 0)
(1.05231 0.015566 0)
(1.05876 0.0171225 0)
(1.0698 0.0182338 0)
(1.08705 0.019284 0)
(1.09951 0.0197945 0)
(1.03707 0.0168177 0)
(0.799429 0.00919186 0)
(0.441955 0.002671 0)
(0.0869253 0.000122022 0)
(0.0991891 1.3255e-05 0)
(0.660016 -0.00118211 0)
(0.965429 -0.00436639 0)
(1.10544 -0.0065914 0)
(1.11609 -0.00542175 0)
(1.09603 -0.0025847 0)
(1.08013 0.000799302 0)
(1.0687 0.00453493 0)
(1.06017 0.00845938 0)
(1.0542 0.0123323 0)
(1.05201 0.015408 0)
(1.05401 0.0173223 0)
(1.06008 0.0184503 0)
(1.07101 0.0191458 0)
(1.08825 0.019695 0)
(1.09715 0.0196436 0)
(1.02288 0.0160261 0)
(0.777614 0.0085384 0)
(0.426806 0.00252524 0)
(0.0833231 0.000124578 0)
(0.0994441 4.49717e-05 0)
(0.65515 -3.9749e-05 0)
(0.958381 -0.0018805 0)
(1.10477 -0.00345807 0)
(1.12021 -0.00229257 0)
(1.10082 0.000570004 0)
(1.08458 0.00411284 0)
(1.07261 0.00793359 0)
(1.0634 0.0118277 0)
(1.05662 0.0155244 0)
(1.05362 0.0182169 0)
(1.05504 0.0195513 0)
(1.06076 0.0200558 0)
(1.07154 0.020216 0)
(1.08847 0.0203032 0)
(1.09342 0.0196087 0)
(1.00801 0.0153709 0)
(0.757151 0.00806864 0)
(0.412676 0.00244187 0)
(0.0797973 0.000128904 0)
(0.100601 7.02634e-05 0)
(0.654276 0.00118517 0)
(0.954455 0.000698424 0)
(1.10504 2.13447e-06 0)
(1.12458 0.00143988 0)
(1.10585 0.00445224 0)
(1.08922 0.00809649 0)
(1.07673 0.011994 0)
(1.06684 0.0159181 0)
(1.05918 0.0194484 0)
(1.05515 0.0216931 0)
(1.05568 0.0224717 0)
(1.06079 0.0223249 0)
(1.0713 0.0218098 0)
(1.08775 0.0212463 0)
(1.08828 0.0199054 0)
(0.992732 0.0150815 0)
(0.737698 0.00783671 0)
(0.399183 0.0024348 0)
(0.0762585 0.000135613 0)
(0.102729 0.000106563 0)
(0.657265 0.00243019 0)
(0.953939 0.00345275 0)
(1.10667 0.00364413 0)
(1.12941 0.00535551 0)
(1.11109 0.00860963 0)
(1.09396 0.0125237 0)
(1.08083 0.0166821 0)
(1.07005 0.020788 0)
(1.0612 0.0242628 0)
(1.05595 0.02611 0)
(1.05547 0.0262702 0)
(1.05988 0.0254303 0)
(1.07005 0.0242553 0)
(1.08589 0.0229729 0)
(1.08178 0.0208503 0)
(0.976622 0.0152369 0)
(0.718747 0.00791456 0)
(0.385848 0.00252519 0)
(0.0726172 0.000143158 0)
(0.105997 0.000158383 0)
(0.664747 0.00382357 0)
(0.956927 0.00629543 0)
(1.10972 0.00769351 0)
(1.13466 0.00976596 0)
(1.1168 0.0133712 0)
(1.09922 0.0177745 0)
(1.08536 0.0224206 0)
(1.07348 0.0268013 0)
(1.06316 0.0301961 0)
(1.05638 0.0315625 0)
(1.05465 0.0310405 0)
(1.05811 0.0294782 0)
(1.06768 0.0276028 0)
(1.08265 0.0255728 0)
(1.07349 0.0223829 0)
(0.959534 0.0160116 0)
(0.699666 0.00843747 0)
(0.371976 0.00275504 0)
(0.0687472 0.000153441 0)
(0.110582 0.00022045 0)
(0.676725 0.00534428 0)
(0.96396 0.00942767 0)
(1.11486 0.0122248 0)
(1.14075 0.0150096 0)
(1.12331 0.0192568 0)
(1.10523 0.0243038 0)
(1.09033 0.0294877 0)
(1.07701 0.0341648 0)
(1.06491 0.0374937 0)
(1.05626 0.0383133 0)
(1.05308 0.0369761 0)
(1.05544 0.0345762 0)
(1.0643 0.0319125 0)
(1.07784 0.0290759 0)
(1.06343 0.0248868 0)
(0.941238 0.0177216 0)
(0.679394 0.00953006 0)
(0.356619 0.00316004 0)
(0.0644439 0.000172431 0)
(0.116693 0.000298041 0)
(0.693438 0.00714712 0)
(0.975575 0.0130141 0)
(1.12292 0.0173315 0)
(1.14845 0.0212113 0)
(1.13092 0.0264587 0)
(1.11196 0.0322948 0)
(1.09569 0.0381132 0)
(1.08056 0.0431935 0)
(1.06624 0.0464438 0)
(1.0554 0.0466291 0)
(1.05048 0.0443397 0)
(1.05163 0.0409268 0)
(1.05969 0.0374006 0)
(1.07148 0.0338229 0)
(1.05165 0.028613 0)
(0.921026 0.0203681 0)
(0.6567 0.0111084 0)
(0.338869 0.00369836 0)
(0.0594909 0.000197049 0)
(0.12475 0.000407891 0)
(0.715584 0.00954323 0)
(0.992006 0.0174752 0)
(1.13434 0.02341 0)
(1.15838 0.0284546 0)
(1.14005 0.034932 0)
(1.1198 0.0418154 0)
(1.10179 0.0485413 0)
(1.08442 0.0542033 0)
(1.06738 0.0574272 0)
(1.0539 0.0569073 0)
(1.04691 0.0535454 0)
(1.04661 0.0490323 0)
(1.05387 0.0445095 0)
(1.06372 0.0400868 0)
(1.03765 0.0336045 0)
(0.897964 0.0238925 0)
(0.630431 0.0131114 0)
(0.318 0.00434116 0)
(0.0537213 0.000227996 0)
(0.135495 0.00057396 0)
(0.744419 0.0129368 0)
(1.01413 0.0234088 0)
(1.14943 0.0312089 0)
(1.17077 0.0376206 0)
(1.15102 0.0455404 0)
(1.12903 0.0538262 0)
(1.10869 0.061671 0)
(1.0884 0.0678691 0)
(1.06802 0.0708532 0)
(1.05148 0.0693639 0)
(1.04213 0.0647885 0)
(1.0402 0.0589974 0)
(1.04648 0.0533037 0)
(1.05402 0.0477944 0)
(1.02065 0.0396464 0)
(0.871196 0.0281492 0)
(0.599563 0.0153829 0)
(0.293576 0.00501942 0)
(0.0470718 0.000256732 0)
(0.150182 0.000842779 0)
(0.781909 0.0180064 0)
(1.04379 0.0317314 0)
(1.16913 0.0420067 0)
(1.18622 0.0504893 0)
(1.16432 0.0601016 0)
(1.13989 0.0699449 0)
(1.11634 0.0787376 0)
(1.0923 0.0850118 0)
(1.06794 0.0871096 0)
(1.04793 0.0839969 0)
(1.03604 0.0777056 0)
(1.03227 0.0705265 0)
(1.03721 0.0635423 0)
(1.042 0.0565032 0)
(1.00015 0.0468439 0)
(0.83976 0.033222 0)
(0.563229 0.0178809 0)
(0.265384 0.00571577 0)
(0.039584 0.000280659 0)
(0.171012 0.00131201 0)
(0.831268 0.0258947 0)
(1.08381 0.0439209 0)
(1.19493 0.0574931 0)
(1.20571 0.0688087 0)
(1.1801 0.0804618 0)
(1.15204 0.0916088 0)
(1.12412 0.100708 0)
(1.09544 0.10624 0)
(1.06649 0.10659 0)
(1.04262 0.101101 0)
(1.02814 0.0924897 0)
(1.02271 0.0833965 0)
(1.02608 0.0750749 0)
(1.02741 0.0668653 0)
(0.975628 0.0555692 0)
(0.802109 0.0390054 0)
(0.520911 0.0205798 0)
(0.233445 0.00641004 0)
(0.0313827 0.00029595 0)
(0.20136 0.00235703 0)
(0.89825 0.0393023 0)
(1.13683 0.0636341 0)
(1.22748 0.0805729 0)
(1.22951 0.09507 0)
(1.19796 0.108354 0)
(1.16456 0.119801 0)
(1.13112 0.128074 0)
(1.09712 0.131886 0)
(1.06317 0.129739 0)
(1.03525 0.12149 0)
(1.01804 0.110391 0)
(1.01106 0.0991939 0)
(1.0133 0.089308 0)
(1.01047 0.079927 0)
(0.945318 0.0658772 0)
(0.756748 0.0451856 0)
(0.472925 0.0235333 0)
(0.198553 0.00712559 0)
(0.0228509 0.000298386 0)
(0.242712 0.0086321 6.69518e-20)
(0.986822 0.0663592 5.81001e-20)
(1.20041 0.0971395 -2.0081e-20)
(1.26455 0.115249 0)
(1.25492 0.132558 -4.86921e-34)
(1.21575 0.145391 7.05077e-21)
(1.17591 0.155378 -1.23107e-20)
(1.13644 0.161645 0)
(1.09678 0.163063 2.44187e-34)
(1.05753 0.158223 -1.44339e-20)
(1.02521 0.147448 0)
(1.0048 0.134344 -1.67698e-20)
(0.995781 0.121534 -4.92138e-20)
(0.996693 0.110187 -2.3166e-20)
(0.987717 0.0985238 -6.93722e-21)
(0.90423 0.0800046 -4.1095e-21)
(0.699554 0.0541619 0)
(0.416226 0.0280587 2.87909e-21)
(0.161305 0.00893588 3.40176e-21)
(0.0149 0.000605357 6.12264e-20)
(0.270663 0.0242174 5.42118e-20)
(1.05888 0.108757 5.18885e-22)
(1.25163 0.145214 5.59674e-21)
(1.29826 0.163578 0)
(1.27739 0.179752 -2.55095e-20)
(1.23104 0.190414 -2.84884e-20)
(1.18498 0.198277 -1.26253e-20)
(1.13956 0.202547 -4.37251e-20)
(1.09406 0.201969 0)
(1.04899 0.195116 6.1729e-20)
(1.01139 0.182582 6.05612e-20)
(0.986593 0.168051 1.78757e-20)
(0.973544 0.153601 6.44762e-20)
(0.968086 0.138977 8.99085e-20)
(0.94569 0.12181 0)
(0.84653 0.098417 1.26431e-19)
(0.634136 0.0669173 1.81534e-19)
(0.359847 0.0353476 2.01721e-19)
(0.129383 0.0118914 -2.30624e-19)
(0.00868614 0.000792574 -4.33305e-21)
(0.270267 0.0395319 0)
(1.10277 0.163969 1.07337e-20)
(1.28548 0.20461 0)
(1.32363 0.222448 -3.66407e-20)
(1.29473 0.234571 0)
(1.24264 0.241335 -5.74383e-20)
(1.19117 0.245877 2.61408e-20)
(1.14033 0.247249 -8.94149e-20)
(1.0894 0.243933 -1.57031e-21)
(1.03888 0.234323 3.22453e-20)
(0.9962 0.219092 1.32969e-19)
(0.966672 0.202071 -3.06674e-22)
(0.948183 0.185023 -4.68433e-20)
(0.934669 0.167448 -8.48359e-20)
(0.903538 0.147413 1.00372e-19)
(0.803727 0.120871 -1.77683e-19)
(0.5999 0.0842282 -2.34554e-20)
(0.341257 0.0463252 0)
(0.126182 0.0167733 1.16241e-23)
(0.00890242 0.00126016 0)
(0.263013 0.0529307 1.70801e-19)
(1.12469 0.222421 -7.87821e-20)
(1.30534 0.268741 -5.46852e-20)
(1.33922 0.286228 1.81326e-20)
(1.30539 0.293962 -3.00725e-20)
(1.24958 0.296388 1.21284e-19)
(1.19399 0.297067 5.50224e-20)
(1.13856 0.294912 0)
(1.08279 0.28812 -1.64883e-19)
(1.0271 0.274849 0)
(0.979421 0.255934 -7.02179e-20)
(0.945134 0.235622 -8.54862e-20)
(0.921341 0.215849 -5.10461e-20)
(0.901673 0.19614 -6.1612e-20)
(0.866946 0.174875 0)
(0.773192 0.146775 0)
(0.584005 0.106085 -1.53684e-19)
(0.34383 0.0618316 3.03276e-20)
(0.135845 0.0244436 -1.78163e-20)
(0.01218 0.00233981 -2.08284e-20)
(0.255164 0.0648878 -9.05105e-20)
(1.13292 0.280761 0)
(1.31505 0.333871 1.23283e-19)
(1.34634 0.351587 5.37812e-20)
(1.30957 0.355345 6.77168e-20)
(1.25162 0.353596 0)
(1.19304 0.350355 5.51916e-20)
(1.13388 0.344365 1.00052e-19)
(1.07385 0.333639 8.5359e-20)
(1.01343 0.316095 1.51712e-19)
(0.961036 0.293055 0)
(0.922431 0.269399 -1.84524e-19)
(0.894281 0.247201 -1.10363e-19)
(0.87051 0.226234 -6.50206e-20)
(0.834817 0.20436 3.96863e-19)
(0.749154 0.17514 4.73166e-20)
(0.575801 0.13065 2.2285e-19)
(0.352393 0.0801645 -1.05306e-18)
(0.14953 0.0343679 6.25764e-19)
(0.0166893 0.00405457 -7.54196e-19)
(0.248117 0.075739 -7.11694e-20)
(1.13282 0.337112 1.72997e-20)
(1.3175 0.398131 -1.61163e-20)
(1.34686 0.416596 -6.34489e-20)
(1.30835 0.416954 -6.24456e-20)
(1.24923 0.411399 1.7565e-21)
(1.18845 0.404357 -5.96329e-20)
(1.12623 0.394454 1.04438e-19)
(1.06251 0.3796 -1.83661e-19)
(0.997834 0.357601 0)
(0.94126 0.330389 -8.41225e-20)
(0.898968 0.303635 -1.6096e-21)
(0.867526 0.279469 -1.20389e-19)
(0.841168 0.257601 0)
(0.80562 0.235298 -8.58345e-20)
(0.727024 0.205035 -2.04415e-19)
(0.569116 0.157011 5.47266e-19)
(0.360758 0.100007 -5.3838e-19)
(0.161799 0.0454513 7.6574e-19)
(0.0208718 0.00612154 -7.95684e-19)
(0.242537 0.0858807 -4.03592e-22)
(1.12787 0.390863 -1.42555e-20)
(1.31501 0.460575 -5.87697e-20)
(1.34256 0.479967 2.95413e-20)
(1.30291 0.477565 -3.21972e-20)
(1.24317 0.468641 0)
(1.18071 0.45801 -5.77033e-20)
(1.11593 0.444275 -1.09937e-19)
(1.04899 0.425315 -9.60769e-20)
(0.980567 0.398902 0)
(0.92034 0.367662 -8.77573e-20)
(0.875085 0.33798 -1.07195e-19)
(0.841281 0.311985 1.30265e-19)
(0.813438 0.289148 -7.85898e-20)
(0.778528 0.266275 -3.73255e-19)
(0.705353 0.234603 2.22988e-19)
(0.560647 0.183503 6.69123e-20)
(0.364796 0.119868 0)
(0.169867 0.056436 -7.38142e-19)
(0.0238809 0.00817547 -2.70463e-20)
(0.238385 0.0956275 -7.06056e-21)
(1.12022 0.44187 1.25569e-20)
(1.30931 0.52117 3.01566e-20)
(1.33484 0.541002 9.95486e-20)
(1.2943 0.536356 -1.26363e-19)
(1.23422 0.524498 1.27771e-19)
(1.17042 0.510554 1.23953e-19)
(1.10348 0.493182 -1.7579e-19)
(1.03371 0.470279 5.75926e-20)
(0.961959 0.439619 -3.73019e-19)
(0.898561 0.404497 -9.83223e-20)
(0.850886 0.371936 0)
(0.815388 0.344049 1.40844e-19)
(0.786605 0.319996 1.67806e-19)
(0.752395 0.29618 2.00329e-19)
(0.683792 0.262803 -2.4119e-19)
(0.549508 0.208768 -7.14158e-20)
(0.363472 0.138425 8.41154e-20)
(0.172565 0.0661799 0)
(0.0254423 0.00990672 -5.84772e-20)
(0.235458 0.105127 5.32473e-20)
(1.11134 0.490255 -4.24111e-20)
(1.30128 0.578885 -3.05685e-20)
(1.32477 0.59931 6.57012e-20)
(1.28342 0.592817 -6.15062e-20)
(1.22308 0.578411 -4.03618e-21)
(1.15818 0.561479 -1.34493e-19)
(1.08938 0.540746 -6.33501e-20)
(1.0171 0.514149 -1.66424e-19)
(0.942359 0.479473 2.50312e-22)
(0.876146 0.440578 -3.08779e-19)
(0.82644 0.405108 2.55996e-19)
(0.789679 0.375151 -1.53806e-19)
(0.760338 0.349683 1.83789e-19)
(0.726773 0.32458 0)
(0.661674 0.28934 -1.30122e-19)
(0.535418 0.231839 -7.29417e-22)
(0.356892 0.154437 -3.64551e-19)
(0.170475 0.0737887 -5.3638e-20)
(0.0256181 0.0111151 0)
(0.233562 0.114463 0)
(1.10195 0.536205 -4.19444e-20)
(1.29174 0.633645 -5.40703e-20)
(1.31314 0.654766 -6.55084e-20)
(1.27098 0.646679 -7.20735e-20)
(1.2104 0.63006 0)
(1.14455 0.610465 -6.40638e-20)
(1.0741 0.586688 -1.1568e-21)
(0.99957 0.556708 3.56172e-19)
(0.922083 0.518276 -5.15446e-20)
(0.853275 0.475706 -2.2237e-19)
(0.801793 0.437234 1.33687e-19)
(0.764022 0.404996 -2.04654e-21)
(0.734353 0.377812 1.95379e-19)
(0.70138 0.351055 1.19778e-19)
(0.638945 0.313353 -2.80548e-19)
(0.518276 0.251758 3.33013e-19)
(0.345346 0.167134 9.84471e-20)
(0.164195 0.0788022 4.05989e-19)
(0.0244236 0.0116251 -1.08661e-18)
(0.232587 0.123769 4.39383e-21)
(1.09256 0.579902 -1.44674e-20)
(1.28144 0.685535 1.67959e-20)
(1.3005 0.707362 6.18478e-20)
(1.25753 0.697827 0)
(1.19667 0.679276 -6.5082e-20)
(1.12998 0.657334 2.11785e-19)
(1.05807 0.630845 1.39899e-19)
(0.981474 0.597818 0)
(0.9014 0.555915 -7.36576e-19)
(0.83011 0.509776 5.99288e-19)
(0.776932 0.468204 0)
(0.73828 0.433441 1.7862e-19)
(0.708366 0.404231 -2.02248e-21)
(0.675849 0.375468 -3.82004e-19)
(0.615228 0.334813 1.49695e-19)
(0.498343 0.268177 0)
(0.329821 0.176296 5.3016e-19)
(0.154407 0.0813722 0)
(0.0222955 0.0115558 -5.12768e-19)
(0.232337 0.133083 -1.33911e-21)
(1.08354 0.621411 -7.58614e-21)
(1.27044 0.73466 1.9649e-20)
(1.28727 0.757086 0)
(1.2435 0.746259 -6.97967e-20)
(1.18234 0.726012 0)
(1.11488 0.702004 -2.13992e-19)
(1.04163 0.673134 -6.72518e-20)
(0.963122 0.637409 6.37092e-20)
(0.88056 0.592344 -3.63946e-19)
(0.806778 0.54277 6.21913e-20)
(0.75188 0.498002 0)
(0.712331 0.460486 -3.81218e-19)
(0.682188 0.428934 2.0598e-21)
(0.649938 0.397763 0)
(0.590333 0.353573 2.1734e-21)
(0.475765 0.281105 4.82654e-19)
(0.310779 0.181728 -4.57481e-19)
(0.142002 0.0815037 1.34861e-19)
(0.0195445 0.0109578 0)
(0.232452 0.142279 0)
(1.07498 0.660894 -1.91151e-21)
(1.25909 0.781146 -1.17297e-20)
(1.27377 0.804006 -2.33226e-21)
(1.22921 0.792011 -3.02825e-20)
(1.16773 0.770273 -1.46326e-19)
(1.09956 0.744464 7.87827e-20)
(1.02509 0.713526 -7.72586e-20)
(0.944784 0.675443 2.81398e-19)
(0.859767 0.627555 -5.80804e-19)
(0.783408 0.574719 -3.45189e-21)
(0.726639 0.526686 -1.68551e-19)
(0.686104 0.486183 6.16869e-19)
(0.655666 0.45198 -2.41513e-21)
(0.623482 0.418003 -2.95162e-19)
(0.564161 0.369628 -5.27468e-19)
(0.450815 0.290591 0)
(0.288842 0.183641 0)
(0.127569 0.0792729 1.45592e-19)
(0.0164325 0.00987106 -8.52304e-20)
(0.233097 0.151448 6.60584e-21)
(1.0669 0.698214 -3.46861e-21)
(1.24764 0.825056 1.21494e-20)
(1.26022 0.848218 0)
(1.21488 0.835154 -1.55599e-21)
(1.15309 0.8121 -1.42677e-19)
(1.08429 0.784734 1.96037e-19)
(1.0087 0.752022 3.10178e-19)
(0.926678 0.711922 3.67301e-19)
(0.839222 0.661563 -4.75249e-19)
(0.760145 0.605698 -5.12561e-19)
(0.701274 0.554384 4.50403e-19)
(0.659555 0.510657 0)
(0.628703 0.473466 -1.3406e-19)
(0.596401 0.436227 -3.18985e-19)
(0.536747 0.382954 -3.78355e-19)
(0.4235 0.296466 -4.4963e-19)
(0.264572 0.18202 1.33019e-19)
(0.111577 0.0747074 -7.82651e-20)
(0.0130012 0.00833636 3.03294e-22)
(0.233785 0.160505 0)
(1.05939 0.733861 0)
(1.23624 0.866501 2.58841e-21)
(1.24676 0.889833 0)
(1.20072 0.875788 8.85425e-20)
(1.13863 0.851567 1.042e-19)
(1.06925 0.822854 0)
(0.992636 0.788643 3.79248e-20)
(0.909 0.746854 6.14946e-19)
(0.819114 0.694397 -1.09069e-18)
(0.737155 0.6358 0)
(0.675872 0.581257 -2.89153e-19)
(0.632647 0.534077 -2.93635e-21)
(0.601183 0.493492 -2.38978e-21)
(0.568575 0.452412 3.40599e-19)
(0.508074 0.393389 -3.90697e-22)
(0.39403 0.298615 -9.6715e-19)
(0.238219 0.176796 2.86083e-19)
(0.0949757 0.0682695 8.45482e-20)
(0.00958853 0.00653957 0)
(0.234466 0.169379 -4.80684e-20)
(1.05218 0.767821 -1.50248e-20)
(1.22492 0.905526 2.42397e-21)
(1.23353 0.928958 -7.108e-20)
(1.18685 0.913994 1.41371e-19)
(1.12449 0.888751 0)
(1.05461 0.858885 1.22853e-19)
(0.977066 0.823425 -8.33639e-20)
(0.891904 0.780261 3.86356e-21)
(0.799619 0.726093 7.97308e-20)
(0.714597 0.665116 6.62533e-19)
(0.650517 0.607481 -1.0158e-19)
(0.605358 0.556666 -3.7885e-19)
(0.572958 0.512183 -1.557e-19)
(0.539843 0.466468 1.85068e-19)
(0.47816 0.400664 -2.24534e-22)
(0.363083 0.296877 2.60668e-19)
(0.210927 0.168317 -6.15098e-19)
(0.0784174 0.0603882 7.27358e-19)
(0.00634144 0.00460764 1.06023e-19)
(0.234975 0.177947 2.13743e-20)
(1.04529 0.800183 -1.06619e-20)
(1.2138 0.942249 6.12143e-21)
(1.22061 0.96571 -2.57489e-20)
(1.17336 0.949884 -2.34394e-20)
(1.11078 0.923733 -1.8857e-19)
(1.04047 0.892886 3.83627e-20)
(0.962103 0.856398 -3.49328e-19)
(0.875521 0.812152 -6.80666e-19)
(0.780872 0.756658 -6.50712e-19)
(0.692626 0.693721 0)
(0.625339 0.633234 -4.43163e-19)
(0.577713 0.578694 5.44314e-19)
(0.543832 0.52973 0)
(0.509904 0.478235 -3.95886e-19)
(0.44697 0.404259 2.36852e-19)
(0.331197 0.290832 -2.79888e-19)
(0.183859 0.156821 -3.31083e-19)
(0.0628232 0.0516053 -5.85793e-19)
(0.00345001 0.00270034 -4.56689e-19)
(0.235768 0.186347 -2.72682e-20)
(1.03858 0.830913 1.14742e-20)
(1.20292 0.976745 2.02087e-20)
(1.20806 1.00017 -2.53445e-20)
(1.16034 0.983551 5.35162e-20)
(1.09758 0.956606 -1.10245e-19)
(1.02692 0.924918 1.25789e-19)
(0.94783 0.887612 -3.62038e-19)
(0.859933 0.842552 -4.03537e-19)
(0.762993 0.786108 6.8176e-19)
(0.671397 0.721672 1.45218e-18)
(0.600509 0.658681 0)
(0.549765 0.600462 0)
(0.513564 0.546442 -1.78984e-19)
(0.478205 0.487583 0)
(0.414165 0.403295 5.097e-19)
(0.299139 0.279524 6.02462e-19)
(0.158775 0.142283 0)
(0.0495234 0.0425248 0)
(0.00110257 0.00102334 4.90803e-19)
(0.236169 0.194269 3.44487e-20)
(1.03207 0.860002 2.68364e-20)
(1.19233 1.00913 1.6361e-20)
(1.19592 1.03246 9.68407e-21)
(1.14781 1.0151 4.96251e-20)
(1.08493 0.98745 1.25084e-19)
(1.01402 0.955051 -1.74525e-19)
(0.934305 0.917102 9.89863e-23)
(0.845213 0.871472 -4.99902e-21)
(0.746077 0.814441 -5.54803e-21)
(0.651082 0.749004 7.47256e-19)
(0.576217 0.683951 0)
(0.521659 0.622279 5.48001e-19)
(0.481958 0.562786 3.81162e-19)
(0.443884 0.494695 9.21805e-19)
(0.378707 0.396748 2.7395e-19)
(0.26742 0.260763 -3.24938e-19)
(0.139034 0.122836 -1.9085e-19)
(0.0430508 0.0326934 0)
(0.000714435 0.000177439 5.27332e-19)
(0.236839 0.20217 -8.47186e-20)
(1.02575 0.887554 0)
(1.18202 1.03945 2.71447e-20)
(1.18421 1.06267 2.49491e-21)
(1.13583 1.04462 -4.13126e-20)
(1.07287 1.01635 -1.53966e-19)
(1.00179 0.983345 3.50265e-19)
(0.921559 0.94491 -2.88484e-20)
(0.8314 0.898925 0)
(0.730202 0.84163 -7.54176e-19)
(0.63183 0.775711 -1.62423e-18)
(0.552682 0.709138 6.53064e-20)
(0.493659 0.644416 7.52361e-19)
(0.448985 0.579374 0)
(0.405922 0.500347 6.20358e-19)
(0.33828 0.384271 0)
(0.233726 0.230771 0)
(0.127516 0.0877046 -2.0677e-19)
(0.0623693 0.0109357 0)
(0.026407 0.0106355 1.4134e-19)
(0.237106 0.209442 -1.00611e-19)
(1.01957 0.913899 0)
(1.17199 1.06791 5.16874e-20)
(1.17288 1.09102 0)
(1.12433 1.07237 1.66269e-20)
(1.06134 1.0436 0)
(0.990172 1.01012 1.92171e-20)
(0.909496 0.971378 5.01293e-20)
(0.818378 0.925281 5.04768e-20)
(0.715217 0.868069 -8.287e-19)
(0.613496 0.802229 4.91215e-20)
(0.529753 0.734824 5.22316e-19)
(0.46553 0.667523 7.32514e-19)
(0.414061 0.597165 9.82765e-20)
(0.362602 0.506286 4.84622e-19)
(0.288513 0.367739 0)
(0.18667 0.188896 6.85746e-19)
(0.0953423 0.0277081 -4.01867e-19)
(0.0443864 0.0444724 4.66177e-19)
(-0.0689035 0.426384 -5.50302e-19)
(0.237333 0.216485 8.67526e-20)
(1.01331 0.938825 1.24509e-19)
(1.16214 1.09483 0)
(1.1618 1.11793 5.18257e-21)
(1.11314 1.09892 -3.31457e-20)
(1.05007 1.06988 2.3576e-19)
(0.978862 1.03616 1.27867e-19)
(0.897723 0.997448 0)
(0.805637 0.951632 3.40566e-19)
(0.700476 0.895061 -4.39216e-20)
(0.595203 0.830024 0)
(0.506312 0.762772 0)
(0.435851 0.693379 6.53652e-19)
(0.375621 0.617776 -3.02342e-19)
(0.311082 0.51546 -4.88523e-19)
(0.224747 0.352592 0)
(0.107646 0.175126 3.45139e-19)
(0.00787505 0.434111 -4.00158e-19)
(0.0367761 1.86801 -2.21311e-19)
(0.0670193 2.79947 -2.81465e-19)
(0.237376 0.222665 -6.92901e-20)
(1.00716 0.96251 -1.6753e-19)
(1.1525 1.12019 3.52775e-20)
(1.15096 1.14327 1.53102e-20)
(1.1023 1.12404 0)
(1.03911 1.09489 1.52228e-19)
(0.968046 1.06117 1.83879e-19)
(0.886419 1.02269 -2.48506e-20)
(0.793432 0.97746 5.04745e-20)
(0.68635 0.92199 7.9229e-19)
(0.577544 0.858416 8.20786e-19)
(0.483336 0.792546 5.82643e-19)
(0.40569 0.721701 6.54688e-19)
(0.335678 0.639858 -7.05011e-19)
(0.257396 0.530707 -7.33913e-19)
(0.14875 0.379617 0)
(0.0528767 0.824229 0)
(0.109126 2.53623 1.91672e-19)
(0.11039 3.1917 0)
(0.113329 3.3843 4.64515e-19)
(0.239956 0.22828 0)
(1.0017 0.985121 0)
(1.14283 1.14384 0)
(1.14011 1.16681 7.15408e-21)
(1.0915 1.1475 -2.44423e-20)
(1.02825 1.1185 9.69761e-20)
(0.957615 1.08503 1.21656e-19)
(0.875538 1.047 -2.46001e-20)
(0.781729 1.00263 4.31655e-19)
(0.67287 0.94872 -9.91416e-21)
(0.560671 0.887296 1.62317e-18)
(0.461207 0.823982 -6.66448e-20)
(0.375498 0.75336 7.93649e-20)
(0.296579 0.660605 1.0122e-19)
(0.196149 0.553394 -1.46651e-21)
(0.113769 0.957214 1.78434e-21)
(0.150859 2.69086 -9.90956e-19)
(0.162066 3.28621 -3.76775e-19)
(0.149082 3.42563 1.9822e-19)
(0.134334 3.44883 -2.22016e-19)
(0.15744 0.184534 4.42664e-20)
(0.990896 1.00945 0)
(1.13291 1.16603 -8.46776e-20)
(1.12985 1.18901 -5.73569e-20)
(1.08149 1.17007 -1.60719e-20)
(1.01838 1.14136 -9.57715e-20)
(0.947467 1.10787 -1.29806e-19)
(0.865181 1.07051 2.90556e-19)
(0.770716 1.02729 -3.57059e-19)
(0.660358 0.975358 0)
(0.545035 0.916791 8.00161e-19)
(0.440518 0.856904 -4.75005e-19)
(0.345814 0.791278 0)
(0.258256 0.683974 9.41218e-20)
(0.165343 0.810843 2.24487e-19)
(0.166148 2.44831 -2.68276e-19)
(0.229857 3.32068 3.03167e-19)
(0.207274 3.44167 1.65639e-19)
(0.17196 3.46383 1.88797e-19)
(0.148587 3.47436 3.04706e-19)
(0.28322 0.267069 -7.79469e-20)
(0.975977 1.01939 0)
(1.11501 1.19107 1.0021e-19)
(1.11536 1.22152 8.09396e-20)
(1.0654 1.2033 -8.12122e-21)
(1.00171 1.17508 7.00324e-20)
(0.929912 1.14303 1.47896e-19)
(0.846971 1.10682 2.24544e-20)
(0.751196 1.06564 3.48556e-19)
(0.638208 1.01734 6.96375e-19)
(0.518046 0.964717 4.58151e-20)
(0.40561 0.912017 4.23623e-19)
(0.294078 0.854272 7.45549e-20)
(0.223021 0.975042 -9.28016e-20)
(0.239939 2.29517 -2.136e-19)
(0.30492 3.32481 2.10126e-19)
(0.289236 3.47458 -2.35441e-19)
(0.251831 3.4967 -1.37022e-19)
(0.213138 3.52434 -1.20773e-19)
(0.159939 3.51756 -1.41227e-20)
(0.27106 0.263832 0)
(0.973723 1.04197 3.48793e-20)
(1.10723 1.21437 -2.25475e-20)
(1.10565 1.24477 -1.17226e-20)
(1.05534 1.22642 -1.72016e-20)
(0.991689 1.19845 -6.13052e-20)
(0.919529 1.16657 -8.66655e-20)
(0.836445 1.13113 2.06409e-20)
(0.740289 1.09137 -3.67561e-19)
(0.626312 1.04575 -1.43339e-20)
(0.504011 0.997693 -1.45943e-18)
(0.388136 0.950867 6.01041e-20)
(0.281595 0.921439 -7.07579e-20)
(0.26314 1.46615 -8.66256e-20)
(0.341669 3.07777 1.77624e-20)
(0.365915 3.47195 8.74615e-22)
(0.324525 3.53241 3.5626e-19)
(0.286038 3.55683 1.79869e-19)
(0.235548 3.58086 -5.512e-20)
(0.174411 3.57645 -7.10221e-20)
(0.254501 0.262038 9.38082e-20)
(0.969853 1.06716 2.44087e-19)
(1.09896 1.23976 -6.56438e-20)
(1.09538 1.26945 -4.43267e-20)
(1.0448 1.25089 0)
(0.981255 1.22295 -5.0447e-20)
(0.909026 1.19131 -1.1009e-19)
(0.826078 1.15662 1.87184e-20)
(0.729864 1.11834 -4.0525e-20)
(0.615413 1.0756 -6.43612e-19)
(0.491761 1.03239 -6.79632e-19)
(0.374224 0.992347 -5.00181e-19)
(0.284053 1.04733 -5.344e-19)
(0.331974 2.14295 5.51208e-19)
(0.429556 3.37417 4.70924e-19)
(0.41134 3.53366 0)
(0.363844 3.57846 0)
(0.326118 3.62083 -4.42992e-20)
(0.271376 3.68256 0)
(0.186631 3.65685 -6.0754e-20)
(0.243418 0.263653 -1.46648e-19)
(0.963983 1.0934 -2.14903e-19)
(1.08929 1.26632 0)
(1.08382 1.29496 6.18743e-21)
(1.03307 1.27597 -4.07448e-20)
(0.969737 1.24793 -4.67714e-20)
(0.897768 1.21655 -6.1555e-20)
(0.81516 1.1825 1.34933e-20)
(0.719129 1.14562 -2.72726e-19)
(0.604599 1.1057 3.32869e-20)
(0.480401 1.06745 0)
(0.363891 1.03696 0)
(0.310762 1.27962 -4.94487e-19)
(0.416506 2.82191 2.02635e-19)