/*--------------------------------*- C++ -*----------------------------------*\
| =========                 |                                                 |
| \\      /  F ield         | OpenFOAM: The Open Source CFD Toolbox           |
|  \\    /   O peration     | Version:  4.0                                   |
|   \\  /    A nd           | Web:      www.OpenFOAM.org                      |
|    \\/     M anipulation  |                                                 |
\*---------------------------------------------------------------------------*/
FoamFile
{
    version     2.0;
    format      ascii;
    class       volScalarField;
    location    "69";
    object      p;
}
// * * * * * * * * * * * * * * * * * * * * * * * * * * * * * * * * * * * * * //

dimensions      [0 2 -2 0 0 0 0];

internalField   nonuniform List<scalar> 
8800
(
0.890045
0.84226
0.803573
0.774582
0.753725
0.738904
0.728322
0.720863
0.716073
0.714057
0.71537
0.719598
0.72627
0.735607
0.748401
0.766145
0.790929
0.824874
0.867427
0.92613
0.721288
0.728967
0.736447
0.739758
0.73826
0.73319
0.726716
0.720657
0.71596
0.713153
0.71292
0.715469
0.719992
0.725962
0.732749
0.739041
0.742689
0.741957
0.736544
0.727858
0.699682
0.705842
0.709972
0.712922
0.714979
0.715594
0.714503
0.712422
0.710439
0.709577
0.710589
0.713013
0.715843
0.718047
0.71867
0.717482
0.715149
0.711762
0.707206
0.703446
0.693855
0.696507
0.699263
0.701671
0.703315
0.704488
0.705247
0.70539
0.705132
0.705133
0.70594
0.707156
0.70803
0.708121
0.70753
0.706453
0.704646
0.702083
0.699684
0.698181
0.688453
0.689879
0.691662
0.6937
0.695494
0.696848
0.697857
0.698684
0.699341
0.699963
0.700677
0.701225
0.701364
0.701107
0.700431
0.699199
0.697515
0.695676
0.694374
0.693542
0.683349
0.68427
0.685515
0.687089
0.688732
0.690273
0.691581
0.692681
0.693694
0.694654
0.695416
0.695805
0.69581
0.695406
0.694551
0.693371
0.692059
0.690809
0.689992
0.68944
0.678407
0.679077
0.680044
0.681355
0.682776
0.684252
0.685717
0.687078
0.688332
0.689517
0.690423
0.690864
0.690835
0.690369
0.689594
0.688671
0.687677
0.686767
0.686187
0.685781
0.673581
0.674097
0.674886
0.676025
0.677317
0.678711
0.680186
0.681702
0.683194
0.68462
0.685727
0.686283
0.686325
0.685992
0.685428
0.684732
0.683982
0.683314
0.682886
0.682568
0.668796
0.669207
0.669868
0.670885
0.672106
0.673456
0.674935
0.676541
0.678236
0.679937
0.681301
0.682061
0.682306
0.682199
0.681864
0.681384
0.680843
0.680369
0.680052
0.679793
0.663967
0.664301
0.664874
0.665813
0.666988
0.668326
0.669845
0.671555
0.673447
0.675448
0.677145
0.678213
0.678745
0.6789
0.678802
0.678553
0.67821
0.677899
0.677667
0.677449
0.659003
0.65928
0.659791
0.660685
0.661845
0.663211
0.664809
0.666666
0.668796
0.671147
0.673262
0.674725
0.675603
0.676058
0.676222
0.676205
0.676061
0.675894
0.67573
0.675541
0.653812
0.654045
0.654518
0.655398
0.656582
0.65802
0.659738
0.661798
0.664233
0.667018
0.669643
0.671581
0.672864
0.673665
0.674121
0.674345
0.674406
0.674371
0.674263
0.674094
0.648303
0.6485
0.648954
0.649849
0.651099
0.652653
0.654549
0.656878
0.6597
0.663026
0.666272
0.668775
0.670532
0.671729
0.672515
0.673
0.67328
0.673371
0.673311
0.673155
0.642369
0.642538
0.64299
0.643929
0.645286
0.647008
0.649148
0.651827
0.65514
0.659134
0.66313
0.666309
0.668626
0.670279
0.671443
0.672241
0.67274
0.672954
0.672934
0.672786
0.635891
0.636036
0.636501
0.637514
0.639025
0.640974
0.643435
0.64656
0.650488
0.655301
0.660205
0.66419
0.667172
0.669364
0.670959
0.672104
0.672852
0.673192
0.67321
0.673066
0.628727
0.628846
0.629339
0.630457
0.632174
0.634417
0.637291
0.640981
0.645673
0.651487
0.657486
0.662433
0.6662
0.669028
0.671134
0.672672
0.673704
0.674177
0.674229
0.674083
0.620684
0.620791
0.621325
0.622581
0.624563
0.627183
0.630579
0.634979
0.640614
0.647649
0.654964
0.661058
0.665751
0.669326
0.672044
0.674049
0.675395
0.676005
0.676088
0.675938
0.611542
0.611641
0.612233
0.613652
0.615964
0.619075
0.623135
0.628422
0.635224
0.643745
0.65264
0.660092
0.665878
0.670332
0.673774
0.676322
0.678024
0.67878
0.678892
0.678733
0.600977
0.601056
0.601737
0.603382
0.606131
0.609866
0.614762
0.621162
0.629409
0.639738
0.650519
0.65957
0.666641
0.67213
0.676396
0.679593
0.681694
0.6826
0.682735
0.682565
0.588607
0.588673
0.589454
0.59141
0.594717
0.599252
0.605217
0.613026
0.62307
0.635597
0.648618
0.659538
0.668095
0.674789
0.68002
0.683957
0.68649
0.687546
0.687698
0.687511
0.573866
0.57392
0.574845
0.577218
0.581267
0.586854
0.59421
0.603822
0.616111
0.631305
0.646965
0.660047
0.670302
0.678371
0.684718
0.689483
0.692471
0.693664
0.69382
0.693615
0.555977
0.55602
0.557159
0.560119
0.565181
0.572192
0.581401
0.593357
0.608466
0.62688
0.645616
0.661156
0.673328
0.682943
0.690513
0.696202
0.699641
0.700941
0.701088
0.700862
0.533761
0.533803
0.535291
0.539137
0.545661
0.554675
0.566424
0.581471
0.600129
0.622401
0.644663
0.662942
0.677222
0.688541
0.697442
0.704089
0.707929
0.709285
0.709402
0.709156
0.505448
0.505511
0.507595
0.512871
0.521672
0.533629
0.54896
0.568115
0.591204
0.618025
0.644247
0.665497
0.682026
0.695153
0.705475
0.713034
0.717165
0.718496
0.718561
0.718297
0.467963
0.46813
0.471438
0.479354
0.491996
0.508459
0.528898
0.553447
0.581955
0.614009
0.644554
0.668922
0.687782
0.702753
0.714504
0.722825
0.727057
0.728258
0.728251
0.727977
0.415413
0.416416
0.423001
0.436353
0.455675
0.479115
0.506602
0.537966
0.572855
0.610707
0.645791
0.673321
0.694501
0.711261
0.724314
0.733126
0.737198
0.738169
0.738084
0.737808
0.338764
0.346173
0.361416
0.384962
0.414232
0.447014
0.483114
0.52232
0.564274
0.608389
0.648302
0.67918
0.702829
0.721499
0.735742
0.744802
0.748552
0.749281
0.749147
0.748907
0.256423
0.273931
0.298625
0.332984
0.372605
0.414859
0.459613
0.506819
0.556186
0.607175
0.65273
0.687639
0.714193
0.735029
0.750542
0.759357
0.762374
0.762815
0.762709
0.762546
0.187763
0.208389
0.24088
0.284427
0.333171
0.384337
0.437482
0.49253
0.549156
0.606799
0.657686
0.696313
0.725446
0.748
0.763927
0.772127
0.77463
0.775011
0.774964
0.774841
0.131529
0.153825
0.191881
0.241918
0.29787
0.356541
0.41711
0.479354
0.542799
0.606775
0.66271
0.704802
0.736243
0.76013
0.776472
0.784435
0.786714
0.787062
0.787052
0.786959
0.0847483
0.108227
0.150097
0.205283
0.267027
0.331897
0.398841
0.467485
0.537185
0.6071
0.667843
0.71323
0.746889
0.7722
0.789095
0.79693
0.799192
0.799545
0.799562
0.799494
0.0451455
0.0692741
0.114032
0.173285
0.239902
0.310051
0.382542
0.45689
0.532305
0.607783
0.673124
0.721729
0.757597
0.784315
0.801848
0.810022
0.812308
0.812634
0.81266
0.812612
0.0106731
0.0352141
0.0822396
0.144857
0.215595
0.290341
0.367758
0.447266
0.527967
0.608698
0.678459
0.730203
0.76825
0.796409
0.814823
0.823362
0.825759
0.826097
0.826128
0.826097
-0.0201851
0.00470951
0.0535811
0.119065
0.193367
0.272151
0.353999
0.438235
0.523867
0.609593
0.683634
0.738461
0.778692
0.808288
0.827546
0.836549
0.839142
0.83949
0.839519
0.8395
-0.0484189
-0.0232139
0.0272316
0.0951997
0.172632
0.255007
0.34085
0.429432
0.519696
0.61022
0.688443
0.746303
0.788644
0.819686
0.839747
0.849184
0.851992
0.852403
0.852413
0.8524
-0.0748496
-0.0492925
0.00256524
0.072708
0.15294
0.238524
0.327988
0.420585
0.515222
0.610379
0.692719
0.753567
0.797978
0.830381
0.851197
0.861051
0.864025
0.864467
0.864458
0.864433
-0.0998682
-0.0739618
-0.0207832
0.051217
0.133959
0.222429
0.315186
0.411496
0.51026
0.609908
0.696335
0.760169
0.806604
0.840286
0.861755
0.871883
0.874982
0.87543
0.875391
0.875351
-0.123932
-0.0976065
-0.0434109
0.0304858
0.115458
0.206524
0.30228
0.402014
0.504667
0.60868
0.69921
0.766079
0.814523
0.849373
0.87133
0.881647
0.884779
0.885213
0.885137
0.885082
-0.147181
-0.120369
-0.0652341
0.0103284
0.0972894
0.190687
0.289159
0.392047
0.498357
0.606609
0.70128
0.771286
0.821778
0.857704
0.880006
0.890338
0.893429
0.893843
0.893733
0.893663
-0.169771
-0.142545
-0.0863718
-0.00937189
0.0793753
0.174856
0.275772
0.381541
0.491268
0.603615
0.70248
0.775805
0.828469
0.865451
0.887929
0.898093
0.901069
0.901425
0.901291
0.901205
-0.191834
-0.164116
-0.10696
-0.0286645
0.0616696
0.159008
0.262112
0.370488
0.48337
0.59964
0.70275
0.779633
0.834715
0.872787
0.89527
0.905076
0.907806
0.908068
0.907914
0.907816
-0.213439
-0.18512
-0.127077
-0.0475635
0.0441835
0.143151
0.2482
0.358906
0.474668
0.59464
0.70202
0.782752
0.84061
0.879936
0.902271
0.911439
0.913746
0.913873
0.913695
0.913591
-0.234437
-0.205551
-0.146655
-0.0660607
0.0269309
0.127333
0.234077
0.34685
0.465198
0.588614
0.70021
0.785103
0.846202
0.887137
0.909282
0.91745
0.919025
0.918922
0.918733
0.918637
-0.254819
-0.225388
-0.16569
-0.0841195
0.00995441
0.111598
0.21982
0.334382
0.455019
0.581567
0.697254
0.786568
0.851461
0.894586
0.916792
0.923669
0.923972
0.923343
0.923148
0.923113
-0.274654
-0.244607
-0.184176
-0.101721
-0.00669249
0.0960207
0.205505
0.321591
0.444207
0.573546
0.693083
0.786989
0.856242
0.902319
0.925311
0.931062
0.929446
0.927545
0.927161
0.927465
-0.293789
-0.263194
-0.20206
-0.118816
-0.0229592
0.0806747
0.191217
0.30858
0.432867
0.564628
0.687663
0.786169
0.860283
0.910083
0.935026
0.940825
0.93753
0.933262
0.931364
0.931405
-0.312316
-0.281146
-0.219367
-0.135442
-0.0388814
0.0655167
0.176901
0.295294
0.420935
0.554742
0.680859
0.783831
0.863298
0.917446
0.945515
0.953512
0.950603
0.943362
0.935942
0.922527
-0.330169
-0.298451
-0.23621
-0.151797
-0.0547368
0.0502271
0.162159
0.281274
0.407905
0.543293
0.672073
0.779262
0.864833
0.923877
0.955379
0.967333
0.965347
0.95163
0.930771
0.920591
-0.347182
-0.315266
-0.252408
-0.16769
-0.0701719
0.0351424
0.147207
0.26683
0.394062
0.530506
0.661309
0.771899
0.863915
0.928137
0.960588
0.972617
0.972204
0.946845
0.879707
0.849815
-0.362701
-0.332866
-0.267657
-0.18265
-0.0843847
0.0207638
0.132364
0.252189
0.379618
0.516491
0.648462
0.761352
0.858929
0.929386
0.95572
0.9627
0.94737
0.890758
0.821346
0.778864
-0.41728
-0.348372
-0.281431
-0.197805
-0.0990455
0.00559433
0.117556
0.237059
0.364187
0.500758
0.632865
0.74684
0.845757
0.923225
0.923885
0.922337
0.867151
0.793653
0.715876
0.672614
-0.37898
-0.363064
-0.301977
-0.217244
-0.120745
-0.0161367
0.0947992
0.213692
0.33991
0.475237
0.605728
0.718571
0.810632
0.893979
0.875698
0.756033
0.646941
0.571091
0.496235
0.524944
-0.409165
-0.380175
-0.318217
-0.234335
-0.137883
-0.0333937
0.0778275
0.196099
0.321279
0.454869
0.582681
0.691371
0.773611
0.817784
0.765369
0.610614
0.479079
0.385199
0.285183
0.33352
-0.4324
-0.400496
-0.337431
-0.253428
-0.156861
-0.0524832
0.0586565
0.176098
0.299889
0.4311
0.555214
0.657613
0.730715
0.73985
0.628593
0.451718
0.295938
0.174808
0.0423325
0.0742322
-0.455077
-0.4217
-0.357523
-0.272625
-0.175991
-0.0717779
0.0388246
0.155295
0.277489
0.405909
0.525304
0.619604
0.676929
0.654209
0.491035
0.291419
0.0988049
-0.0707845
-0.260185
-0.27989
-0.477155
-0.443367
-0.378345
-0.292701
-0.195954
-0.0919835
0.0179474
0.133312
0.253631
0.378827
0.492724
0.578729
0.616082
0.556086
0.35994
0.14659
-0.0724836
-0.262934
-0.505425
-0.80138
-0.499521
-0.465751
-0.400231
-0.314139
-0.217236
-0.113463
-0.00414011
0.110071
0.228386
0.350056
0.458074
0.535463
0.550847
0.439113
0.245707
0.0331478
-0.17296
-0.346467
-0.416937
-0.495349
-0.523119
-0.489312
-0.423526
-0.337248
-0.240329
-0.136853
-0.0282377
0.0846365
0.200612
0.318192
0.419872
0.485897
0.475739
0.330185
0.14401
-0.0495111
-0.214371
-0.308564
-0.332947
-0.348754
-0.548253
-0.514344
-0.448399
-0.362104
-0.26536
-0.16236
-0.054702
0.0565211
0.16972
0.282533
0.377369
0.428715
0.400565
0.228915
0.0517594
-0.116618
-0.245055
-0.284748
-0.297571
-0.298875
-0.575122
-0.541018
-0.474915
-0.388701
-0.292279
-0.189991
-0.0835529
0.025674
0.135646
0.243096
0.330131
0.366757
0.318136
0.135406
-0.0326371
-0.183492
-0.261054
-0.27808
-0.279417
-0.27922
-0.603784
-0.569398
-0.503102
-0.41704
-0.321106
-0.219736
-0.114795
-0.00791941
0.0984021
0.199958
0.278268
0.302831
0.217627
0.050072
-0.109518
-0.233919
-0.271187
-0.269506
-0.268568
-0.267966
-0.633955
-0.599312
-0.532859
-0.447037
-0.351755
-0.251544
-0.1484
-0.044232
0.0580289
0.153232
0.22269
0.230084
0.126453
-0.0290087
-0.170199
-0.24778
-0.258187
-0.260789
-0.261449
-0.261171
-0.66509
-0.630304
-0.563932
-0.478471
-0.384045
-0.285259
-0.184216
-0.0831314
0.0147139
0.10328
0.163885
0.155981
0.0448085
-0.0959172
-0.214665
-0.246359
-0.255202
-0.256721
-0.256492
-0.256194
-0.696728
-0.661838
-0.595868
-0.51095
-0.417636
-0.320568
-0.221968
-0.12433
-0.0312509
0.0508096
0.100963
0.0858415
-0.0300249
-0.149957
-0.244817
-0.2624
-0.253702
-0.252798
-0.25276
-0.252523
-0.727973
-0.693209
-0.627824
-0.543879
-0.451992
-0.357002
-0.261211
-0.167352
-0.0793869
-0.00352595
0.0367436
0.021526
-0.0953904
-0.190284
-0.246583
-0.256084
-0.252794
-0.251486
-0.250895
-0.250651
-0.757297
-0.723245
-0.658827
-0.576348
-0.486359
-0.393873
-0.301302
-0.211516
-0.128893
-0.0591173
-0.0222932
-0.0491251
-0.148298
-0.226362
-0.229608
-0.248282
-0.252531
-0.250944
-0.250362
-0.249958
-0.78309
-0.750103
-0.68776
-0.607198
-0.519715
-0.430261
-0.341387
-0.255983
-0.178651
-0.115066
-0.0782352
-0.116881
-0.19491
-0.245574
-0.263948
-0.25935
-0.257531
-0.256775
-0.256326
-0.255839
-0.803243
-0.771987
-0.712518
-0.635032
-0.550789
-0.46505
-0.380398
-0.299746
-0.22754
-0.170036
-0.135537
-0.171437
-0.233505
-0.292474
-0.310446
-0.287514
-0.274117
-0.270976
-0.269168
-0.268264
-0.815547
-0.786992
-0.731315
-0.657954
-0.578108
-0.496941
-0.417165
-0.341622
-0.274521
-0.222419
-0.19017
-0.215579
-0.254506
-0.318844
-0.301481
-0.285167
-0.279158
-0.276164
-0.27448
-0.274214
-0.817404
-0.792884
-0.742162
-0.6742
-0.599996
-0.524539
-0.450388
-0.380389
-0.318474
-0.270859
-0.234942
-0.246624
-0.240904
-0.270522
-0.263389
-0.260512
-0.260421
-0.260867
-0.261716
-0.261796
-0.806576
-0.786855
-0.7429
-0.682196
-0.615008
-0.546392
-0.478766
-0.414792
-0.358238
-0.314461
-0.271723
-0.258654
-0.206893
-0.166617
-0.191985
-0.229688
-0.249454
-0.257391
-0.260279
-0.260811
-0.781184
-0.766399
-0.731749
-0.680701
-0.622152
-0.56152
-0.501154
-0.443578
-0.392662
-0.353073
-0.305662
-0.283603
-0.222363
-0.134739
-0.183207
-0.247391
-0.276964
-0.288071
-0.291632
-0.293116
-0.743791
-0.73428
-0.709555
-0.669862
-0.621401
-0.569633
-0.516883
-0.465738
-0.420325
-0.385906
-0.357766
-0.350509
-0.386637
-0.458331
-0.488883
-0.427852
-0.383135
-0.362819
-0.356698
-0.355487
-0.70108
-0.695685
-0.681127
-0.652469
-0.614637
-0.571477
-0.525958
-0.480626
-0.439319
-0.40933
-0.387874
-0.420911
-0.51435
-0.671977
-0.656801
-0.507145
-0.40636
-0.360078
-0.346654
-0.34334
-0.662725
-0.659464
-0.652555
-0.633854
-0.60473
-0.568803
-0.529352
-0.488037
-0.4485
-0.416212
-0.395871
-0.37168
-0.300596
-0.196995
-0.0604307
-0.0356175
-0.117531
-0.196439
-0.218961
-0.221241
-0.635084
-0.633071
-0.629532
-0.618173
-0.595458
-0.56459
-0.528733
-0.489181
-0.447718
-0.408408
-0.386047
-0.326183
-0.243935
-0.169842
-0.225432
-0.390666
-0.534289
-0.538583
-0.458157
-0.441275
-0.613997
-0.613226
-0.612047
-0.606459
-0.589421
-0.561598
-0.526536
-0.486135
-0.441415
-0.395937
-0.361723
-0.33674
-0.314127
-0.373069
-0.468499
-0.570848
-0.696431
-0.730309
-0.679724
-0.645249
-0.601796
-0.601526
-0.600962
-0.598481
-0.586454
-0.559988
-0.523869
-0.4807
-0.432068
-0.375993
-0.330876
-0.294707
-0.283406
-0.332809
-0.46755
-0.609611
-0.624881
-0.535025
-0.421845
-0.363512
-0.593289
-0.593224
-0.592945
-0.592333
-0.584812
-0.559958
-0.521833
-0.475154
-0.419353
-0.352091
-0.283619
-0.201453
-0.105683
-0.0244411
0.0528832
0.130584
0.268898
0.453461
0.586624
0.643621
-0.586737
-0.586757
-0.586694
-0.586971
-0.58207
-0.560983
-0.521788
-0.470466
-0.407104
-0.331135
-0.234106
-0.130071
0.0700811
0.352697
0.672654
0.989492
1.27821
1.48158
1.58908
1.62364
-0.581778
-0.581581
-0.580868
-0.579321
-0.577619
-0.563247
-0.524303
-0.4681
-0.39934
-0.311766
-0.204755
-0.0975637
0.122234
0.463187
0.880744
1.27365
1.58819
1.78118
1.86491
1.8856
-0.580659
-0.58092
-0.581422
-0.581452
-0.581349
-0.571355
-0.529897
-0.47081
-0.39802
-0.305717
-0.198022
-0.0845777
0.0774567
0.421835
0.795389
1.13196
1.39234
1.54144
1.60241
1.61633
-0.58122
-0.582565
-0.586453
-0.594345
-0.601714
-0.584149
-0.537641
-0.479569
-0.40509
-0.310446
-0.206583
-0.101035
0.0208403
0.292952
0.593299
0.849087
1.03886
1.14207
1.18222
1.19042
-0.594248
-0.595102
-0.592296
-0.580594
-0.567727
-0.558047
-0.539422
-0.494841
-0.419682
-0.324136
-0.224476
-0.128486
-0.0371055
0.158506
0.378268
0.557626
0.687771
0.755019
0.779993
0.783677
-0.637698
-0.636154
-0.618493
-0.568287
-0.517524
-0.522707
-0.552781
-0.520504
-0.440353
-0.34034
-0.245427
-0.162555
-0.091251
0.0469842
0.192733
0.307495
0.387558
0.42715
0.440648
0.442781
-0.709845
-0.708635
-0.716625
-0.72502
-0.719256
-0.699445
-0.670023
-0.574169
-0.466126
-0.356972
-0.266178
-0.192388
-0.132236
-0.0399732
0.0509702
0.116501
0.153558
0.170163
0.177081
0.178295
-0.854799
-0.876882
-0.931885
-0.988661
-1.00045
-0.956408
-0.824595
-0.644856
-0.490949
-0.368962
-0.280818
-0.219511
-0.17176
-0.104996
-0.0505796
-0.0176529
-0.0038359
-0.00026478
0.00431216
0.0065544
-0.959097
-0.985445
-1.03364
-1.07422
-1.08235
-1.03157
-0.874531
-0.664236
-0.491587
-0.365805
-0.285352
-0.237446
-0.205137
-0.151189
-0.107304
-0.0826017
-0.0708339
-0.0651933
-0.0601439
-0.0591547
-0.880736
-0.902257
-0.938555
-0.972577
-0.980068
-0.928423
-0.770947
-0.594425
-0.446546
-0.338093
-0.273275
-0.243095
-0.221863
-0.175893
-0.134344
-0.105286
-0.086559
-0.0778275
-0.0731305
-0.0723612
-0.611293
-0.630488
-0.665723
-0.704203
-0.720353
-0.679861
-0.573028
-0.458274
-0.360093
-0.286576
-0.242906
-0.226968
-0.214805
-0.170827
-0.129193
-0.0973347
-0.0756684
-0.0624438
-0.0585287
-0.0591243
-0.254088
-0.26639
-0.29155
-0.324865
-0.352367
-0.356766
-0.334538
-0.296951
-0.257388
-0.220362
-0.195657
-0.186237
-0.176263
-0.141066
-0.108229
-0.0828194
-0.0640223
-0.0537272
-0.0509376
-0.0517941
0.0327863
0.0267801
0.00983535
-0.0206801
-0.0616566
-0.101704
-0.132723
-0.151781
-0.156518
-0.149395
-0.138968
-0.128698
-0.115487
-0.0955228
-0.0773078
-0.0629232
-0.0517517
-0.0455617
-0.044217
-0.0452924
0.181454
0.177794
0.165548
0.139024
0.0960187
0.0423195
-0.00872845
-0.0489089
-0.0744528
-0.0850082
-0.081699
-0.070074
-0.0564313
-0.0505661
-0.0470722
-0.0428568
-0.0381836
-0.0355228
-0.0352933
-0.0365905
0.224056
0.221702
0.212699
0.191696
0.155807
0.109174
0.0596939
0.0154658
-0.0169861
-0.0337841
-0.0334569
-0.0216921
-0.011288
-0.0164189
-0.0233824
-0.0273871
-0.0292729
-0.0305959
-0.0318546
-0.0330606
0.213979
0.21246
0.206256
0.191333
0.16523
0.12998
0.0899621
0.0520081
0.0213276
0.00342484
0.00196785
0.0106277
0.015613
0.00468853
-0.00782666
-0.0181657
-0.0257227
-0.0314902
-0.0340985
-0.0348554
0.184293
0.183427
0.179447
0.169556
0.151806
0.126987
0.0972037
0.0674901
0.0423629
0.0273529
0.0263827
0.0324735
0.0326303
0.019537
0.0038035
-0.0100155
-0.0213835
-0.0295211
-0.0324366
-0.0327325
0.149752
0.149361
0.146975
0.140725
0.129135
0.112355
0.0913745
0.0696868
0.0506828
0.0396389
0.0410174
0.0488715
0.0482472
0.0326144
0.0155703
0.00116892
-0.0102613
-0.017538
-0.0198307
-0.0200182
0.115941
0.115745
0.114418
0.110641
0.103362
0.0924475
0.0783361
0.0633227
0.0498554
0.0423601
0.0458947
0.0562985
0.0587467
0.0413275
0.0245645
0.0130431
0.00503344
0.000739065
-0.000631331
-0.000981902
0.0846425
0.0845927
0.0838947
0.0817485
0.077355
0.0705122
0.0613986
0.0514109
0.0422026
0.0368108
0.0387197
0.0465965
0.0494501
0.0362907
0.0255268
0.0197457
0.0167685
0.015739
0.0150901
0.0145256
0.055888
0.0559285
0.0556532
0.0545866
0.0522219
0.0482784
0.0428504
0.0366266
0.0304644
0.0257126
0.0223247
0.01803
0.015103
0.013271
0.0143838
0.0174472
0.0192946
0.0204109
0.0201334
0.0194309
0.0296328
0.029711
0.0296548
0.0293052
0.0282351
0.0263964
0.0237124
0.0204776
0.0169389
0.0130934
0.0050183
-0.0129473
-0.0249954
-0.0147776
-0.000780359
0.0083164
0.0123234
0.0132273
0.012984
0.0124189
0.00538387
0.00544864
0.00541982
0.0055367
0.00577296
0.00573375
0.00534543
0.0047974
0.00409824
0.00307495
0.000989991
-0.00560673
-0.0140134
-0.0105509
-0.00368636
-0.00240498
-0.0021171
-0.00143856
-0.000166385
0.00049838
-0.0349577
0.130676
0.32368
0.49203
0.625982
0.730763
0.817003
0.890494
0.92421
0.901
0.263844
0.383467
0.51201
0.622838
0.715939
0.792714
0.854829
0.898986
0.921094
0.933306
0.480017
0.561939
0.649748
0.727105
0.793518
0.849049
0.893236
0.925568
0.94903
0.967104
0.639063
0.697775
0.758492
0.814979
0.864001
0.905656
0.939913
0.967292
0.989929
1.00828
0.763263
0.805896
0.851427
0.894782
0.933111
0.966611
0.995319
1.01925
1.03954
1.05741
0.866809
0.899405
0.937229
0.972494
1.00489
1.03396
1.05938
1.08078
1.09857
1.11593
0.958878
0.987411
1.02119
1.05316
1.08297
1.11003
1.13369
1.15335
1.16882
1.1859
1.04718
1.07628
1.11018
1.14212
1.17164
1.19816
1.22097
1.23942
1.25277
1.2698
1.14232
1.17547
1.21204
1.24556
1.27556
1.3017
1.32362
1.34087
1.35272
1.37012
1.25722
1.295
1.33361
1.36782
1.39713
1.42185
1.4422
1.45808
1.46953
1.4876
1.40209
1.44062
1.47673
1.5074
1.53306
1.55513
1.57418
1.5897
1.60211
1.62011
1.57713
1.60875
1.63491
1.65734
1.67731
1.69602
1.71373
1.7302
1.74554
1.76361
1.76572
1.78292
1.79795
1.81417
1.83007
1.8446
1.85779
1.87172
1.88926
1.90941
1.94743
1.95696
1.9685
1.97931
1.98859
1.99817
2.00895
2.02031
2.03167
2.04702
2.15465
2.15832
2.14337
2.12856
2.12228
2.12795
2.14643
2.17674
2.20891
2.23557
2.46098
2.32611
2.24947
2.20708
2.18966
2.19362
2.22102
2.27743
2.38005
2.60441
0.780642
0.778514
0.774032
0.76541
0.753191
0.741069
0.730851
0.722971
0.717375
0.714151
0.713833
0.716606
0.721736
0.728978
0.738379
0.749928
0.762585
0.773623
0.779737
0.782793
0.705086
0.710933
0.717268
0.721765
0.72424
0.723923
0.721197
0.717403
0.713916
0.711687
0.711579
0.713812
0.717503
0.721812
0.725633
0.727526
0.726597
0.723121
0.71796
0.71134
0.696645
0.698941
0.702347
0.705347
0.707429
0.708933
0.709701
0.709402
0.708402
0.707553
0.70777
0.709236
0.711081
0.712409
0.712605
0.711726
0.710185
0.707855
0.704596
0.701677
0.691111
0.692197
0.694033
0.696415
0.698446
0.699884
0.700918
0.70169
0.70212
0.702381
0.702919
0.70377
0.704401
0.704493
0.704099
0.703264
0.701804
0.699727
0.697646
0.696265
0.685877
0.68654
0.68765
0.689361
0.69115
0.692793
0.694105
0.695144
0.696059
0.696894
0.697677
0.698279
0.698512
0.698375
0.697829
0.696791
0.695375
0.693841
0.692529
0.691751
0.680862
0.681322
0.682111
0.683415
0.684912
0.686442
0.687925
0.689249
0.690423
0.69153
0.692508
0.693135
0.693327
0.693088
0.692417
0.691448
0.690338
0.689217
0.688309
0.687793
0.675985
0.676329
0.676943
0.678018
0.679323
0.680711
0.682171
0.683647
0.685063
0.686403
0.687588
0.688349
0.688582
0.688349
0.687783
0.687031
0.6862
0.685348
0.684684
0.684307
0.671191
0.671458
0.671954
0.67287
0.674052
0.675365
0.676784
0.678307
0.679897
0.681486
0.682921
0.683875
0.684243
0.684176
0.683823
0.683295
0.682671
0.682051
0.681569
0.681282
0.666396
0.666607
0.66702
0.667827
0.66893
0.670198
0.671611
0.673186
0.674915
0.676751
0.678485
0.679714
0.680334
0.680517
0.680403
0.680102
0.67969
0.679265
0.678924
0.6787
0.66151
0.66168
0.662034
0.662769
0.663828
0.665077
0.666522
0.668186
0.67008
0.672182
0.674275
0.675877
0.676833
0.677314
0.677461
0.677398
0.677205
0.676957
0.676734
0.676556
0.656444
0.656582
0.656894
0.657585
0.658629
0.659906
0.661422
0.663219
0.665333
0.667759
0.670289
0.672353
0.673714
0.674542
0.674988
0.67518
0.675203
0.675129
0.675007
0.674863
0.651107
0.651217
0.651502
0.652174
0.653239
0.654588
0.65622
0.658204
0.660605
0.663441
0.66651
0.66913
0.670968
0.672198
0.672983
0.673455
0.673709
0.673808
0.673773
0.673657
0.645399
0.645486
0.645755
0.646433
0.647554
0.649018
0.65082
0.653061
0.655829
0.659181
0.662909
0.666198
0.668602
0.6703
0.671467
0.672266
0.672776
0.673042
0.673086
0.67299
0.63921
0.639276
0.639538
0.640245
0.64146
0.643087
0.645124
0.647699
0.650934
0.654928
0.65946
0.663552
0.666629
0.668877
0.670488
0.671654
0.672449
0.672895
0.673014
0.672935
0.632406
0.632452
0.632716
0.633474
0.634824
0.636669
0.639013
0.642017
0.645842
0.650628
0.656136
0.661193
0.665071
0.667969
0.670102
0.671682
0.672804
0.673447
0.673639
0.673573
0.624835
0.624859
0.625126
0.625957
0.627485
0.629615
0.632353
0.6359
0.640462
0.646221
0.652913
0.659126
0.663951
0.667616
0.670368
0.672442
0.673937
0.674792
0.675057
0.675001
0.616271
0.616284
0.616563
0.617495
0.619258
0.621733
0.624979
0.629213
0.634689
0.641644
0.649769
0.657359
0.663308
0.667874
0.671356
0.674026
0.675944
0.67703
0.677369
0.677319
0.606432
0.606416
0.606748
0.607823
0.609875
0.61281
0.616697
0.621793
0.62841
0.636831
0.646684
0.655913
0.663186
0.668815
0.673153
0.676514
0.678926
0.680265
0.680676
0.680629
0.595006
0.594966
0.595345
0.596614
0.599036
0.602563
0.607265
0.61345
0.621493
0.631717
0.64365
0.654814
0.663633
0.670505
0.675849
0.680004
0.682982
0.68459
0.685069
0.685019
0.581499
0.581431
0.581891
0.583413
0.586323
0.590619
0.596377
0.603959
0.613799
0.626242
0.640667
0.654101
0.664705
0.673003
0.67952
0.684591
0.688191
0.690074
0.690611
0.690553
0.565246
0.56515
0.565737
0.567614
0.571176
0.576503
0.583659
0.593064
0.605192
0.620369
0.637759
0.653819
0.666461
0.676379
0.684217
0.690322
0.694597
0.696744
0.697319
0.697246
0.545295
0.545171
0.545963
0.548359
0.552841
0.559598
0.568665
0.580498
0.595564
0.614106
0.634989
0.654044
0.668967
0.680687
0.689968
0.697223
0.702184
0.704556
0.70514
0.705044
0.5202
0.520061
0.521191
0.524392
0.530268
0.539121
0.550898
0.566034
0.584892
0.607544
0.632483
0.654877
0.672283
0.685956
0.696806
0.705264
0.710858
0.713374
0.713924
0.713799
0.487614
0.487499
0.489248
0.493847
0.502042
0.514167
0.52992
0.54959
0.573298
0.600884
0.630429
0.656448
0.676481
0.692199
0.704676
0.714328
0.720413
0.722943
0.723409
0.723249
0.443323
0.443377
0.446491
0.454005
0.466505
0.483967
0.505617
0.531397
0.561144
0.594478
0.629087
0.658907
0.681626
0.699409
0.713496
0.724208
0.730511
0.732874
0.73321
0.733017
0.379431
0.380669
0.388287
0.402312
0.422694
0.448652
0.478606
0.512171
0.549061
0.588792
0.628735
0.662393
0.68774
0.707501
0.72302
0.734455
0.74066
0.742616
0.742779
0.742568
0.303739
0.305559
0.320145
0.344243
0.375656
0.411639
0.450635
0.492471
0.536976
0.583694
0.629726
0.668009
0.696625
0.718781
0.735883
0.747933
0.753773
0.755382
0.755495
0.755366
0.225697
0.232002
0.253541
0.287986
0.329878
0.375597
0.42359
0.473736
0.525919
0.579706
0.631945
0.674929
0.706781
0.731296
0.750144
0.762206
0.767189
0.768283
0.768342
0.768286
0.161831
0.170492
0.196626
0.238155
0.288259
0.342265
0.398364
0.456282
0.515787
0.576365
0.634525
0.681897
0.71672
0.743202
0.76287
0.774797
0.779401
0.780398
0.780501
0.780505
0.109895
0.119157
0.148871
0.195677
0.251973
0.31266
0.375612
0.440391
0.50658
0.573519
0.637292
0.688817
0.726392
0.754682
0.775301
0.78735
0.791709
0.792621
0.792778
0.792831
0.0664779
0.0760209
0.108198
0.159024
0.220404
0.286634
0.355401
0.426187
0.498398
0.57122
0.6403
0.695817
0.736072
0.766195
0.787838
0.800045
0.804356
0.805448
0.805636
0.805729
0.0292021
0.0388473
0.0728619
0.126904
0.192495
0.263459
0.337302
0.413416
0.491094
0.569383
0.643509
0.702888
0.745787
0.777708
0.800396
0.813162
0.817754
0.818889
0.819071
0.819178
-0.00362363
0.00604262
0.0414611
0.0982152
0.167338
0.242388
0.320729
0.401654
0.48437
0.567789
0.646739
0.709869
0.755367
0.789111
0.813005
0.826401
0.831265
0.8325
0.832679
0.832764
-0.0333023
-0.0236151
0.0129492
0.0720442
0.144195
0.222831
0.305186
0.39049
0.477871
0.566142
0.649746
0.716554
0.764612
0.800161
0.825146
0.839233
0.84446
0.845756
0.845916
0.845982
-0.060741
-0.0510259
-0.0134791
0.0476769
0.122507
0.204323
0.290275
0.379571
0.4713
0.564199
0.652336
0.722756
0.773324
0.810597
0.836692
0.851365
0.856981
0.858335
0.858463
0.858499
-0.0865233
-0.0767575
-0.0383072
0.0245907
0.101839
0.186501
0.275699
0.368654
0.464443
0.561762
0.654337
0.728345
0.781384
0.820321
0.847417
0.862615
0.868505
0.869895
0.869987
0.869986
-0.111146
-0.101265
-0.0619256
0.00245824
0.0819021
0.169109
0.261248
0.357554
0.457132
0.558674
0.655621
0.733246
0.788757
0.829296
0.857304
0.872855
0.878887
0.8803
0.88037
0.880339
-0.134904
-0.124821
-0.0847623
-0.0188929
0.0624962
0.151976
0.246772
0.346144
0.449245
0.55483
0.656105
0.73741
0.795443
0.837532
0.866281
0.882062
0.888127
0.889496
0.889554
0.889493
-0.157914
-0.147644
-0.106908
-0.0396166
0.0434872
0.135008
0.232189
0.334349
0.440715
0.550142
0.655703
0.740809
0.80148
0.845143
0.874508
0.890345
0.8963
0.897612
0.897623
0.897547
-0.180375
-0.16984
-0.128365
-0.0598252
0.0248095
0.11815
0.217462
0.322142
0.431508
0.54456
0.654344
0.743409
0.806937
0.852277
0.882152
0.897847
0.903565
0.904748
0.904713
0.904616
-0.202245
-0.191456
-0.149298
-0.0795777
0.0064417
0.101393
0.202602
0.309532
0.421619
0.538051
0.651968
0.745161
0.811866
0.859092
0.889432
0.904758
0.910047
0.911024
0.910931
0.910815
-0.223595
-0.21253
-0.169648
-0.0988736
-0.0116139
0.0847527
0.187632
0.296559
0.411082
0.530616
0.648516
0.745996
0.816274
0.865752
0.896627
0.91132
0.915859
0.916504
0.916343
0.916223
-0.244289
-0.233011
-0.189412
-0.117678
-0.0293259
0.0682859
0.172602
0.283278
0.399954
0.522291
0.643947
0.745826
0.82011
0.872367
0.904084
0.91797
0.921325
0.921327
0.921046
0.920952
-0.264463
-0.252865
-0.208591
-0.135983
-0.0466732
0.0520214
0.157596
0.26976
0.388306
0.513139
0.638252
0.744533
0.823242
0.878934
0.912133
0.925397
0.92713
0.925827
0.925169
0.92514
-0.283965
-0.272074
-0.227166
-0.153759
-0.0635847
0.0360368
0.142685
0.256114
0.376238
0.503211
0.631451
0.741992
0.825469
0.885278
0.920871
0.934396
0.934634
0.931229
0.929119
0.928539
-0.302861
-0.29069
-0.24509
-0.17096
-0.0800319
0.0203952
0.127947
0.242415
0.363855
0.492633
0.623595
0.738077
0.82653
0.89103
0.929905
0.945247
0.945561
0.940304
0.934078
0.926327
-0.321075
-0.308671
-0.262457
-0.187742
-0.0962203
0.00483313
0.113061
0.228282
0.350734
0.480937
0.614196
0.732292
0.82601
0.895974
0.938776
0.957567
0.960581
0.954668
0.943472
0.939061
-0.33856
-0.32594
-0.279256
-0.204081
-0.112162
-0.0106464
0.0980358
0.213692
0.33682
0.467993
0.603034
0.724209
0.823069