/*--------------------------------*- C++ -*----------------------------------*\
| =========                 |                                                 |
| \\      /  F ield         | OpenFOAM: The Open Source CFD Toolbox           |
|  \\    /   O peration     | Version:  4.0                                   |
|   \\  /    A nd           | Web:      www.OpenFOAM.org                      |
|    \\/     M anipulation  |                                                 |
\*---------------------------------------------------------------------------*/
FoamFile
{
    version     2.0;
    format      ascii;
    class       surfaceScalarField;
    location    "69";
    object      phi;
}
// * * * * * * * * * * * * * * * * * * * * * * * * * * * * * * * * * * * * * //

dimensions      [0 3 -1 0 0 0 0];

internalField   nonuniform List<scalar> 
17370
(
-0.0916061
0.0960093
0.284608
-0.0775945
0.0594198
0.36495
-0.0430418
0.0316217
0.427588
-0.0223175
0.0162648
0.505304
-0.0116716
0.00879781
0.602276
-0.00658666
0.00510165
0.720542
-0.00386463
0.00298424
0.863787
-0.00221118
0.00163281
1.03603
-0.00110098
0.000679618
1.24292
-0.000267701
-0.000127296
1.49159
0.000516338
-0.000930918
1.49161
0.00133681
-0.00184207
1.2432
0.00239141
-0.00313179
1.03638
0.00398673
-0.00520403
0.864124
0.00667749
-0.00887881
0.721259
0.0117419
-0.0163193
0.603792
0.0223554
-0.0316412
0.508725
0.0430415
-0.0594078
0.432534
0.0775869
-0.0960026
0.365191
0.0916214
0.197389
-0.127093
0.0880256
0.0390674
-0.364358
0.354033
-0.0714725
0.0817974
-0.446654
0.454258
-0.0791666
0.0715629
-0.521012
0.529113
-0.0637077
0.0556064
-0.612992
0.620763
-0.0482176
0.0404465
-0.727165
0.733688
-0.0338331
0.0273105
-0.867582
0.872437
-0.0221048
0.0172503
-1.03857
1.04191
-0.0135498
0.0102082
-1.24472
1.24713
-0.00765496
0.00524611
-1.49284
1.49486
-0.00327901
0.00126149
-1.49269
1.49452
0.000560297
-0.00238247
-1.2441
1.24602
0.00435838
-0.00627199
-1.03761
1.04008
0.00860778
-0.0110843
-0.866186
0.869809
0.0143374
-0.0179609
-0.724592
0.729744
0.0227433
-0.027895
-0.609062
0.61563
0.0343659
-0.0409332
-0.515122
0.522455
0.0486508
-0.055984
-0.43988
0.447654
0.0640025
-0.0717768
-0.374704
0.377355
0.0792654
-0.0819161
-0.256893
0.22443
0.0715654
-0.0391016
-0.0688159
0.0592065
0.00960937
-0.0520938
0.058916
-0.374842
0.36802
-0.058065
0.0542202
-0.453951
0.457796
-0.0487309
0.0441692
-0.527623
0.532185
-0.0396164
0.0357173
-0.620808
0.624707
-0.0315003
0.0275009
-0.734667
0.738666
-0.023139
0.0192468
-0.873964
0.877856
-0.0151961
0.011734
-1.04337
1.04683
-0.00820883
0.00517115
-1.24866
1.2517
-0.0019585
-0.00102671
-1.49695
1.49993
0.00398939
-0.00714033
-1.49742
1.50057
0.010087
-0.0134868
-1.25006
1.25346
0.0168185
-0.0207179
-1.04564
1.04954
0.0244769
-0.0287083
-0.877126
0.881357
0.0326027
-0.0367159
-0.738972
0.743085
0.040529
-0.0449971
-0.62596
0.630428
0.0494879
-0.0549077
-0.535008
0.540428
0.0586717
-0.0594273
-0.458067
0.458822
0.0524722
-0.032075
-0.33675
0.316353
0.00967675
-0.0686532
0.0589764
-0.0534201
0.0493116
0.00410848
-0.033223
0.0436373
-0.358581
0.348166
-0.0473055
0.0467133
-0.459593
0.460185
-0.0437799
0.040563
-0.536146
0.539363
-0.0368808
0.0335208
-0.628411
0.631771
-0.0298806
0.0266332
-0.742052
0.7453
-0.0231728
0.0199682
-0.881357
0.884561
-0.016367
0.0130078
-1.05027
1.05362
-0.00930053
0.0058889
-1.25496
1.25837
-0.00209145
-0.00152954
-1.50329
1.50691
0.00511808
-0.00882163
-1.50406
1.50776
0.012105
-0.015635
-1.25701
1.26054
0.0188097
-0.0221957
-1.05324
1.05663
0.0252102
-0.0284832
-0.884958
0.888231
0.0315794
-0.0350701
-0.74676
0.75025
0.0383031
-0.0418533
-0.634541
0.638092
0.0449557
-0.0477606
-0.544564
0.547369
0.0482196
-0.0443665
-0.45693
0.453077
0.0337252
-0.0163946
-0.297022
0.279691
0.00418314
-0.0531224
0.0489393
-0.0461456
0.0435939
0.0025517
-0.0230202
0.0333557
-0.337587
0.327251
-0.0390765
0.0400165
-0.459942
0.459002
-0.038757
0.0364223
-0.542025
0.544359
-0.0337722
0.0312178
-0.634746
0.6373
-0.0282314
0.0253744
-0.748393
0.75125
-0.0221264
0.0191031
-0.887626
0.890649
-0.0157417
0.0125979
-1.05681
1.05995
-0.00903055
0.00562158
-1.26178
1.26518
-0.00170313
-0.00209921
-1.51064
1.51445
0.00585945
-0.00965062
-1.51154
1.51533
0.0128888
-0.0162226
-1.26399
1.26732
0.0191238
-0.0222038
-1.05983
1.06291
0.0249761
-0.0279717
-0.891416
0.894412
0.0306214
-0.0334013
-0.753418
0.756198
0.0357817
-0.0382555
-0.641035
0.643509
0.0404395
-0.041501
-0.549194
0.550256
0.0403547
-0.0343325
-0.447937
0.441915
0.0236658
-0.0103946
-0.264483
0.251212
0.00264432
-0.0456896
0.0430453
-0.0414798
0.0396842
0.00179557
-0.0169102
0.0261761
-0.317399
0.308133
-0.0327527
0.0348588
-0.457453
0.455347
-0.0344115
0.0327021
-0.546397
0.548107
-0.0304623
0.0283224
-0.639621
0.641761
-0.0258708
0.0234791
-0.753861
0.756253
-0.0206496
0.0178896
-0.893519
0.896279
-0.0146907
0.011643
-1.06301
1.06606
-0.0081644
0.00483763
-1.26852
1.27184
-0.000988379
-0.00276419
-1.51822
1.52197
0.00646234
-0.0101507
-1.51906
1.52275
0.0132607
-0.016444
-1.27058
1.27377
0.0191847
-0.0220237
-1.06594
1.06877
0.0244587
-0.0269605
-0.897182
0.899684
0.0290841
-0.0312705
-0.758624
0.76081
0.0331887
-0.035201
-0.645723
0.647735
0.0366911
-0.036868
-0.550822
0.550999
0.0344449
-0.0274272
-0.4353
0.428282
0.0177169
-0.00749976
-0.239609
0.229392
0.00190901
-0.0408287
0.0389197
-0.0381396
0.0367938
0.00134584
-0.0129039
0.0208779
-0.299515
0.291541
-0.0276189
0.0305206
-0.452809
0.449907
-0.0307097
0.0295697
-0.549556
0.550696
-0.0275551
0.025613
-0.64383
0.645772
-0.0233828
0.0212244
-0.75851
0.760669
-0.0186975
0.0162119
-0.898845
0.901331
-0.013273
0.0104009
-1.06897
1.07184
-0.00705425
0.00382411
-1.27509
1.27832
-7.91063e-05
-0.00355739
-1.52564
1.52928
0.00712661
-0.010669
-1.52636
1.5299
0.0136279
-0.0166049
-1.27687
1.27985
0.0190921
-0.0215791
-1.07149
1.07398
0.0236586
-0.0257748
-0.901979
0.904095
0.0275947
-0.0294877
-0.762834
0.764727
0.0311493
-0.0328907
-0.649589
0.65133
0.0337107
-0.0331445
-0.550806
0.55024
0.0297893
-0.0224438
-0.421042
0.413697
0.0138986
-0.0058042
-0.220337
0.212243
0.00148422
-0.0372499
0.0357657
-0.035619
0.0345846
0.00103439
-0.0100714
0.0168151
-0.284206
0.277462
-0.0232996
0.0266583
-0.446755
0.443396
-0.0274197
0.0267094
-0.551611
0.552321
-0.0249254
0.0231246
-0.64768
0.649481
-0.0210419
0.0190167
-0.76276
0.764785
-0.0166343
0.014297
-0.903681
0.906018
-0.0115481
0.00885335
-1.07456
1.07726
-0.00568448
0.00259396
-1.28144
1.28453
0.00101071
-0.00451221
-1.53282
1.53632
0.00792946
-0.0112844
-1.53334
1.53669
0.0140382
-0.0167491
-1.2827
1.28541
0.0189692
-0.0211608
-1.07636
1.07855
0.0229959
-0.0248691
-0.906099
0.907972
0.0264747
-0.0281392
-0.766495
0.768159
0.0295922
-0.0310003
-0.652924
0.654332
0.0313123
-0.0300156
-0.549323
0.548027
0.0260321
-0.0187516
-0.406357
0.399077
0.0112905
-0.00468308
-0.204962
0.198354
0.00120271
-0.0344385
0.0332358
-0.0336766
0.0328728
0.00080379
-0.00797045
0.0136355
-0.271285
0.26562
-0.0196373
0.0231957
-0.439925
0.436366
-0.0244349
0.0239701
-0.552937
0.553402
-0.0224563
0.0207639
-0.651274
0.652966
-0.0187765
0.0168397
-0.766764
0.768701
-0.0145572
0.0123138
-0.908247
0.91049
-0.00967152
0.00708894
-1.07982
1.08241
-0.00406424
0.00111258
-1.2875
1.29045
0.00232904
-0.00566685
-1.53972
1.54306
0.00890271
-0.0120394
-1.53992
1.54305
0.014577
-0.0170437
-1.288
1.29047
0.0190456
-0.0210034
-1.0807
1.08266
0.0226294
-0.0242864
-0.909751
0.911408
0.0257074
-0.0271796
-0.769719
0.771191
0.028438
-0.029465
-0.655532
0.656559
0.029404
-0.0274341
-0.546397
0.544427
0.0230406
-0.0160172
-0.39192
0.384897
0.00946089
-0.00390944
-0.192325
0.186774
0.00100843
-0.0321427
0.0311343
-0.0321667
0.0315412
0.000625539
-0.00635072
0.0110929
-0.260443
0.2557
-0.0165039
0.0200637
-0.432803
0.429243
-0.0216267
0.0213864
-0.553785
0.554026
-0.0201041
0.0184734
-0.654673
0.656304
-0.0165417
0.0146538
-0.77061
0.772498
-0.0124297
0.0102458
-0.912633
0.914817
-0.0076754
0.00516631
-1.08488
1.08739
-0.00223532
-0.000602747
-1.29329
1.29613
0.00389952
-0.0070709
-1.54628
1.54945
0.0101161
-0.0130367
-1.54605
1.54898
0.0153772
-0.0176298
-1.29283
1.29508
0.0194323
-0.021168
-1.08459
1.08633
0.0225982
-0.024058
-0.912979
0.914439
0.0253142
-0.0266122
-0.772568
0.773866
0.0277231
-0.028329
-0.657369
0.657975
0.0278953
-0.0253575
-0.542188
0.53965
0.0207102
-0.014011
-0.378045
0.371346
0.00816909
-0.00337104
-0.181638
0.17684
0.000874014
-0.0302033
0.0293293
-0.030995
0.0305138
0.000481226
-0.00504732
0.00899306
-0.251381
0.247435
-0.0137669
0.0171782
-0.425761
0.42235
-0.0189239
0.0188727
-0.554208
0.554259
-0.0177862
0.0161894
-0.65798
0.659576
-0.0142805
0.0124077
-0.774372
0.776244
-0.0102019
0.00804126
-0.916907
0.919068
-0.00550747
0.00304476
-1.08979
1.09225
-0.000183807
-0.00258087
-1.29887
1.30164
0.00575781
-0.0087808
-1.55251
1.55553
0.0116506
-0.0143707
-1.55177
1.55449
0.0165243
-0.0185697
-1.29723
1.29928
0.0201784
-0.021698
-1.08806
1.08958
0.0229424
-0.0242211
-0.915819
0.917097
0.0253286
-0.0264665
-0.775074
0.776212
0.0273847
-0.0276091
-0.658386
0.658611
0.0267738
-0.0237529
-0.536886
0.533865
0.0189491
-0.0125659
-0.364824
0.35844
0.00726682
-0.00300183
-0.17234
0.168075
0.000783421
-0.02851
0.0277265
-0.0300999
0.0297407
0.000359147
-0.00395525
0.00720087
-0.243861
0.240615
-0.011325
0.0144771
-0.419079
0.415926
-0.0162789
0.0163789
-0.554278
0.554178
-0.0153759
0.0138507
-0.661211
0.662736
-0.0119372
0.0100472
-0.778115
0.780005
-0.00782133
0.00564832
-0.921141
0.923314
-0.00311344
0.000664284
-1.09462
1.09707
0.00216842
-0.00487788
-1.30431
1.30702
0.00796437
-0.0108654
-1.55845
1.56135
0.013581
-0.0161131
-1.55708
1.55961
0.018084
-0.0199241
-1.30121
1.30305
0.0213414
-0.0226497
-1.09112
1.09243
0.023714
-0.0248192
-0.918296
0.919402
0.025783
-0.0267526
-0.777257
0.778226
0.0274103
-0.0273451
-0.658706
0.658641
0.0260636
-0.0226114
-0.53064
0.527188
0.0176942
-0.0115708
-0.352212
0.346089
0.00666286
-0.00276142
-0.164021
0.16012
0.000726534
-0.0269809
0.0262543
-0.0294415
0.0291913
0.000250241
-0.00299789
0.00561131
-0.237705
0.235091
-0.00908553
0.0118948
-0.412961
0.410151
-0.0136378
0.0138174
-0.554086
0.553907
-0.0128546
0.0113724
-0.664322
0.665804
-0.00943105
0.0074941
-0.781902
0.783839
-0.00521244
0.00299302
-0.925403
0.927622
-0.000420573
-0.00205527
-1.09942
1.1019
0.00489211
-0.00758014
-1.30964
1.31233
0.0106064
-0.0134097
-1.56416
1.56696
0.015989
-0.018346
-1.56202
1.56437
0.0201429
-0.0217834
-1.30478
1.30642
0.0230087
-0.024099
-1.0938
1.09489
0.0249776
-0.0259069
-0.920424
0.921353
0.0267271
-0.0275256
-0.779089
0.779888
0.0278922
-0.0275362
-0.658429
0.658073
0.0258006
-0.0219272
-0.523546
0.519673
0.0168957
-0.0109482
-0.340088
0.334141
0.00629678
-0.00262276
-0.156361
0.152687
0.000696271
-0.0255526
0.0248564
-0.0289976
0.0288507
0.000146859
-0.00211154
0.00413152
-0.232792
0.230772
-0.00695096
0.00934712
-0.407567
0.405171
-0.0109233
0.0111034
-0.553784
0.553604
-0.0101474
0.00867009
-0.667384
0.668861
-0.00667427
0.00466092
-0.785788
0.787802
-0.00228834
-7.71402e-06
-0.929759
0.932055
0.00266757
-0.00520237
-1.10429
1.10682
0.00808193
-0.0107806
-1.31494
1.31764
0.0137773
-0.0165045
-1.56967
1.5724
0.0189613
-0.021151
-1.5666
1.56879
0.0227779
-0.0242209
-1.30795
1.30939
0.0252504
-0.0261096
-1.09606
1.09692
0.0267887
-0.0275257
-0.922183
0.92292
0.0281927
-0.0288466
-0.780562
0.781216
0.028896
-0.0281581
-0.657508
0.65677
0.0259652
-0.0216747
-0.515636
0.511346
0.0165034
-0.0106372
-0.328276
0.32241
0.00612429
-0.00256626
-0.149101
0.145543
0.000687535
-0.0241746
0.023487
-0.02876
0.0287177
4.23e-05
-0.00124738
0.00268867
-0.229055
0.227614
-0.0048395
0.00675885
-0.403033
0.401114
-0.00806383
0.00816159
-0.553535
0.553437
-0.00716551
0.00565542
-0.670477
0.671987
-0.0035663
0.00144212
-0.789833
0.791957
0.00106375
-0.00348415
-0.934276
0.936697
0.00626219
-0.00889346
-1.10928
1.11191
0.0118567
-0.0146011
-1.32027
1.32302
0.0176004
-0.020273
-1.57505
1.57772
0.0226199
-0.024647
-1.57085
1.57288
0.0261026
-0.0273429
-1.3107
1.31194
0.0281679
-0.0287925
-1.09791
1.09853
0.0292653
-0.0297964
-0.923554
0.924085
0.0302956
-0.0307403
-0.781668
0.782112
0.0304987
-0.0292925
-0.655817
0.654611
0.0266083
-0.021869
-0.5069
0.502161
0.0165004
-0.0106062
-0.316579
0.310685
0.00612086
-0.0025809
-0.142025
0.138485
0.000697464
-0.0228055
0.022108
-0.0287318
0.0287986
-6.67581e-05
-0.000363282
0.00121948
-0.226475
0.225619
-0.00267379
0.00405096
-0.399486
0.398109
-0.00498092
0.00491027
-0.55351
0.55358
-0.00381535
0.00221879
-0.673688
0.675284
-4.33029e-07
-0.00227316
-0.794104
0.796377
0.00495761
-0.00754024
-0.939036
0.941619
0.0104884
-0.0132604
-1.11447
1.11724
0.0163521
-0.0191787
-1.3257
1.32853
0.0222148
-0.0248562
-1.58031
1.58296
0.0271065
-0.0289724
-1.57477
1.57664
0.0302506
-0.031278
-1.31302
1.31405
0.0318918
-0.0322727
-1.09931
1.09969
0.0325303
-0.0328415
-0.924506
0.924817
0.0331488
-0.0333039
-0.782247
0.782402
0.0327604
-0.0310035
-0.653206
0.651449
0.0277762
-0.0225305
-0.497263
0.492018
0.0168834
-0.0108407
-0.304775
0.298732
0.00627406
-0.00266074
-0.134941
0.131328
0.000724378
-0.0214088
0.0206844
-0.0289284
0.029111
-0.000182588
0.00055868
-0.00032071
-0.225075
0.224837
-0.00038442
0.00114078
-0.39705
0.396294
-0.00158609
0.00126279
-0.553887
0.55421
-1.86052e-05
-0.00174078
-0.677131
0.67889
0.00414957
-0.00662474
-0.798685
0.80116
0.00954139
-0.0123361
-0.944124
0.946919
0.0155086
-0.0184685
-1.11995
1.12291
0.0217359
-0.0246823
-1.33131
1.33425
0.0277876
-0.0304173
-1.58552
1.58815
0.0325767
-0.0342764
-1.57836
1.58006
0.0353716
-0.0361696
-1.31488
1.31568
0.0365599
-0.0366839
-1.10022
1.10034
0.03671
-0.0367859
-0.925001
0.925077
0.0368956
-0.0366755
-0.782186
0.781966
0.0357446
-0.033366
-0.649526
0.647147
0.0295213
-0.0236797
-0.486594
0.480752
0.017649
-0.0113264
-0.292615
0.286293
0.00657118
-0.00279897
-0.12767
0.123898
0.000766087
-0.0199515
0.0191854
-0.0293777
0.0297086
-0.000330901
0.00159187
-0.00199567
-0.224943
0.225347
0.00214163
-0.00211577
-0.39586
0.395834
0.00228813
-0.00297764
-0.554888
0.555577
0.00446245
-0.00641788
-0.680952
0.682908
0.00906696
-0.0117949
-0.803664
0.806392
0.015005
-0.0180682
-0.949641
0.952704
0.021525
-0.0247245
-1.12582
1.12902
0.028218
-0.0313215
-1.33716
1.34026
0.0345242
-0.0371536
-1.59071
1.59334
0.0392192
-0.040735
-1.58159
1.58311
0.0416263
-0.0421877
-1.31625
1.31681
0.0423428
-0.0421841
-1.1006
1.10044
0.0419525
-0.0417742
-0.924987
0.924809
0.041678
-0.0409779
-0.781331
0.780631
0.039575
-0.036471
-0.644623
0.641519
0.0319024
-0.0253398
-0.474697
0.468134
0.0187974
-0.0120533
-0.279834
0.27309
0.00700204
-0.00298965
-0.120043
0.116031
0.000820538
-0.018405
0.0175845
-0.0301094
0.0306198
-0.000510399
0.00288919
-0.00406059
-0.226152
0.227323
0.00507863
-0.0058583
-0.396133
0.396912
0.00675345
-0.00790955
-0.556742
0.557898
0.00971932
-0.0119525
-0.685255
0.687488
0.0149294
-0.017984
-0.809157
0.812212
0.0215641
-0.0249628
-0.955699
0.959098
0.0287734
-0.0322701
-1.13217
1.13567
0.0360435
-0.0393419
-1.34333
1.34662
0.0426677
-0.0453039
-1.59589
1.59852
0.0472661
-0.0485806
-1.58445
1.58576
0.0492318
-0.0495365
-1.31708
1.31739
0.0494316
-0.0489649
-1.10038
1.09991
0.0484568
-0.0480097
-0.924402
0.923954
0.0475855
-0.0464235
-0.779537
0.778375
0.0443932
-0.0404227
-0.638277
0.634307
0.0349887
-0.0275412
-0.461308
0.453861
0.0203332
-0.0130124
-0.266142
0.258822
0.00755589
-0.00322598
-0.111899
0.107569
0.000885293
-0.0167451
0.0158598
-0.0311981
0.0319326
-0.000734502
0.00440443
-0.00646812
-0.228901
0.230964
0.0085544
-0.0102514
-0.398078
0.399775
0.0119778
-0.0137199
-0.559703
0.561445
0.0159888
-0.0186001
-0.690203
0.692815
0.0220127
-0.025479
-0.815311
0.818778
0.0295199
-0.0333325
-0.96244
0.966252
0.0375744
-0.041428
-1.13913
1.14299
0.0455307
-0.0490513
-1.34988
1.3534
0.0525085
-0.055137
-1.60107
1.6037
0.0569647
-0.0580351
-1.58688
1.58795
0.0584062
-0.0584125
-1.31731
1.31732
0.0580242
-0.0572271
-1.09952
1.09872
0.0564169
-0.0556649
-0.9232
0.922448
0.0548342
-0.0531437
-0.776853
0.775163
0.0503448
-0.0453196
-0.630192
0.625167
0.0388305
-0.0302901
-0.446086
0.437545
0.0222383
-0.0141769
-0.251226
0.243165
0.00820967
-0.00349478
-0.103089
0.0983738
0.000955737
-0.0149532
0.0139975
-0.0327276
0.033752
-0.00102447
0.00629709
-0.00942245
-0.233435
0.23656
0.0127905
-0.0155532
-0.401967
0.40473
0.0182566
-0.0207113
-0.564054
0.566508
0.023585
-0.0266977
-0.696014
0.699126
0.0306797
-0.0346692
-0.822299
0.826289
0.0392778
-0.0435895
-0.97002
0.974331
0.0483413
-0.0526057
-1.14681
1.15108
0.0570726
-0.0608216
-1.35687
1.36062
0.0643871
-0.066962
-1.6062
1.60877
0.0685968
-0.0693578
-1.58878
1.58954
0.0693909
-0.0690338
-1.31681
1.31645
0.0683376
-0.0671711
-1.09792
1.09675
0.0660208
-0.064973
-0.921327
0.920279
0.0636145
-0.0613016
-0.773118
0.770805
0.0575557
-0.051226
-0.619983
0.613654
0.0434396
-0.0335551
-0.428602
0.418718
0.0244616
-0.0154954
-0.234759
0.225793
0.00892444
-0.00377581
-0.0934849
0.0883362
0.00102541
-0.0130209
0.0119955
-0.0348227
0.036249
-0.00142631
0.00877456
-0.0132576
-0.240082
0.244565
0.0181244
-0.0221301
-0.408166
0.412172
0.025978
-0.0292964
-0.570122
0.57344
0.0329502
-0.0367235
-0.702954
0.706727
0.0414384
-0.0460807
-0.830336
0.834978
0.0513751
-0.0562741
-0.978612
0.983511
0.0616064
-0.0663159
-1.15531
1.16002
0.0711482
-0.0750939
-1.36429
1.36824
0.0786993
-0.0811319
-1.61117
1.61361
0.0824753
-0.0828259
-1.59001
1.59036
0.0824558
-0.0816424
-1.31547
1.31466
0.080578
-0.0790215
-1.0955
1.09394
0.077542
-0.0760778
-0.918752
0.917288
0.0742028
-0.0710479
-0.768096
0.764941
0.0661082
-0.0581529
-0.607133
0.599177
0.0487669
-0.037242
-0.408349
0.396824
0.0268977
-0.0168774
-0.216423
0.206403
0.00963706
-0.00403815
-0.0830059
0.0774069
0.00108482
-0.0109542
0.00986936
-0.0376867
0.0396782
-0.00199153
0.0122114
-0.0184263
-0.249359
0.255574
0.0250967
-0.0305563
-0.417173
0.422632
0.0357603
-0.0401396
-0.578298
0.582677
0.0447803
-0.0494141
-0.711362
0.715996
0.0550683
-0.0605116
-0.839673
0.845116
0.0666105
-0.0721642
-0.988387
0.993941
0.0781022
-0.0832333
-1.16467
1.1698
0.0883562
-0.0923903
-1.37203
1.37607
0.0958812
-0.0980078
-1.61577
1.6179
0.0988988
-0.0986906
-1.59033
1.59012
0.0978219
-0.0964465
-1.31314
1.31176
0.0949547
-0.092985
-1.09218
1.09021
0.091134
-0.0891281
-0.915185
0.913179
0.086719
-0.0824589
-0.761292
0.757032
0.0760136
-0.0660191
-0.590973
0.580979
0.0546611
-0.0411635
-0.384741
0.371244
0.0293665
-0.018183
-0.195945
0.184762
0.0102567
-0.00424021
-0.071643
0.0656264
0.00112192
-0.00877913
0.00765721
-0.0416398
0.0445087
-0.00286885
0.0172021
-0.0256797
-0.262012
0.270489
0.0345924
-0.0418117
-0.429653
0.436872
0.0486597
-0.0543083
-0.589073
0.594721
0.0602516
-0.0660299
-0.721659
0.727437
0.0728214
-0.0791768
-0.850585
0.856941
0.0861324
-0.0923216
-0.999451
1.00564
0.0987749
-0.104188
-1.17479
1.1802
0.109393
-0.113289
-1.37983
1.38372
0.116389
-0.117947
-1.61962
1.62118
0.118146
-0.117169
-1.58943
1.58845
0.115642
-0.113619
-1.30962
1.30759
0.111633
-0.109216
-1.08787
1.08545
0.106984
-0.104306
-0.910353
0.907676
0.101196
-0.095479
-0.752123
0.746407
0.0871118
-0.074567
-0.570635
0.55809
0.0608077
-0.0449974
-0.357152
0.341342
0.0315887
-0.0192151
-0.173163
0.16079
0.0106638
-0.00433082
-0.059498
0.053165
0.00112277
-0.00654636
0.0054236
-0.0472654
0.0516197
-0.00435426
0.0249338
-0.0364941
-0.279196
0.290757
0.048328
-0.0578827
-0.446645
0.4562
0.0667632
-0.0738809
-0.603051
0.610169
0.081369
-0.0886726
-0.734214
0.741517
0.0966668
-0.103853
-0.863276
0.870462
0.111499
-0.118104
-1.01168
1.01829
0.124757
-0.130114
-1.1853
1.19065
0.134992
-0.138358
-1.38714
1.3905
0.140633
-0.141236
-1.62213
1.62273
0.140411
-0.138413
-1.58685
1.58485
0.136052
-0.133253
-1.30471
1.30191
0.130687
-0.127787
-1.08245
1.07955
0.125053
-0.121708
-0.904075
0.90073
0.11756
-0.10987
-0.739814
0.732124
0.0989913
-0.0832812
-0.545028
0.529318
0.0666778
-0.0482786
-0.32499
0.306591
0.0332016
-0.0197427
-0.148129
0.13467
0.0107289
-0.00425854
-0.0468247
0.0403543
0.00107356
-0.00433288
0.00325931
-0.0556453
0.0631182
-0.00747287
0.0385251
-0.0545746
-0.303078
0.319127
0.0704913
-0.0832678
-0.46979
0.482566
0.0943308
-0.10282
-0.62067
0.629159
0.11181
-0.120391
-0.749421
0.758003
0.129316
-0.136921
-0.877436
0.885041
0.144674
-0.151092
-1.02447
1.03089
0.157261
-0.161915
-1.19538
1.20003
0.165782
-0.167996
-1.39307
1.39528
0.168862
-0.168053
-1.62245
1.62164
0.165848
-0.162526
-1.58208
1.57875
0.159112
-0.15536
-1.29815
1.29439
0.152136
-0.148751
-1.07577
1.07238
0.145426
-0.1412
-0.896106
0.891879
0.135474
-0.12503
-0.723166
0.712722
0.110843
-0.0912584
-0.512788
0.493204
0.0715253
-0.0504876
-0.287857
0.266819
0.0338931
-0.0196358
-0.121247
0.106989
0.01041
-0.00402171
-0.0340576
0.0276693
0.000975231
-0.00224201
0.00126678
-0.0700755
0.07426
-0.00418446
0.0295122
-0.043417
-0.337682
0.351587
0.0575242
-0.0692122
-0.50054
0.512228
0.0796926
-0.0894664
-0.641523
0.651296
0.100399
-0.110412
-0.76616
0.776173
0.121551
-0.131506
-0.891772
0.901726
0.142142
-0.151627
-1.03637
1.04585
0.161554
-0.170087
-1.2036
1.21213
0.178595
-0.185423
-1.39635
1.40318
0.191563
-0.195662
-1.61965
1.62374
0.197695
-0.198264
-1.57444
1.57501
0.197695
-0.196524
-1.28958
1.28841
0.195619
-0.194284
-1.06761
1.06627
0.192581
-0.188328
-0.885703
0.88145
0.180252
-0.164336
-0.700434
0.684518
0.142557
-0.113742
-0.472524
0.443709
0.0863504
-0.0586508
-0.24581
0.21811
0.0380867
-0.0213432
-0.093431
0.0766875
0.0109714
-0.00409544
-0.0217987
0.0149227
0.000955174
-0.00037548
-0.000579694
-0.081503
0.0796486
0.0018544
0.00760256
-0.0167902
-0.368328
0.377516
0.0275209
-0.0358175
-0.528635
0.536932
0.044247
-0.0525421
-0.663649
0.671944
0.0626046
-0.0719806
-0.785856
0.795232
0.0819774
-0.0911286
-0.911131
0.920283
0.100868
-0.109212
-1.05505
1.06339
0.118129
-0.125425
-1.22048
1.22777
0.132643
-0.138151
-1.4097
1.41521
0.142551
-0.145106
-1.62705
1.62961
0.14563
-0.144703
-1.57492
1.574
0.142636
-0.139848
-1.28641
1.28362
0.137384
-0.134715
-1.06239
1.05972
0.131768
-0.1264
-0.872743
0.867375
0.117615
-0.103095
-0.664445
0.649925
0.0858326
-0.0651218
-0.413266
0.392555
0.047318
-0.0310792
-0.191094
0.174855
0.0198454
-0.0111026
-0.0611027
0.0523599
0.00577105
-0.00218302
-0.00840039
0.00481235
0.000453693
0.0016105
-0.00206419
-0.0829665
0.0800262
0.00294025
-0.00173471
-0.00360594
-0.389039
0.394379
0.0109392
-0.0169412
-0.549445
0.555447
0.0231818
-0.0304452
-0.682385
0.689649
0.039147
-0.0472849
-0.803726
0.811864
0.0561857
-0.0641644
-0.928679
0.936658
0.0724008
-0.0798111
-1.07154
1.07895
0.0875043
-0.0938663
-1.2346
1.24096
0.0996734
-0.103855
-1.42
1.42419
0.107094
-0.108348
-1.63141
1.63266
0.107599
-0.105418
-1.57243
1.57025
0.102354
-0.0986757
-1.28041
1.27673
0.0949453
-0.0910412
-1.05466
1.05076
0.0870023
-0.0811213
-0.85784
0.851959
0.0730267
-0.0609604
-0.632315
0.620249
0.0483705
-0.0348632
-0.370294
0.356787
0.0246887
-0.0162566
-0.158468
0.150036
0.0106683
-0.006323
-0.0438433
0.039498
0.00349253
-0.0013178
-0.00136907
-0.000805659
0.000306605
0.00273294
-0.00303955
-0.0816535
0.078857
0.00279651
-0.00548913
0.00293877
-0.402836
0.405387
0.0018062
-0.00634417
-0.564808
0.569346
0.0115912
-0.017663
-0.697837
0.703909
0.0250673
-0.0320165
-0.81937
0.826319
0.0396072
-0.0464324
-0.944093
0.950918
0.0538504
-0.0600985
-1.0859
1.09215
0.0667537
-0.0717633
-1.24687
1.25188
0.076591
-0.0798887
-1.42808
1.43138
0.081988
-0.0819911
-1.63338
1.63338
0.0804244
-0.0774459
-1.56743
1.56445
0.0736668
-0.0688294
-1.27258
1.26774
0.0642937
-0.0593602
-1.045
1.04006
0.0543246
-0.0484912
-0.841826
0.835993
0.0412909
-0.0321259
-0.605515
0.59635
0.0237206
-0.0160724
-0.342167
0.334519
0.0111639
-0.00759114
-0.140845
0.137272
0.00533689
-0.00351867
-0.0347049
0.0328867
0.00208675
-0.00087399
0.00298735
-0.00420011
0.000228217
0.00359723
-0.00382545
-0.0800528
0.0775502
0.00250258
-0.00674157
0.00585521
-0.411972
0.412858
-0.00237925
-0.000866408
-0.577092
0.580338
0.00510754
-0.0105943
-0.710754
0.716241
0.0167828
-0.0228491
-0.832565
0.838631
0.029384
-0.035266
-0.957266
0.963148
0.0415697
-0.0470553
-1.09822
1.10371
0.0526019
-0.0570649
-1.25669
1.26115
0.0610276
-0.063559
-1.43423
1.43677
0.0648374
-0.0640874
-1.6331
1.63235
0.061816
-0.0579409
-1.56064
1.55677
0.0535584
-0.0482028
-1.26263
1.25727
0.0430177
-0.0371633
-1.0337
1.02785
0.0316784
-0.0257502
-0.826196
0.820267
0.0197533
-0.0129221
-0.585014
0.578183
0.00775945
-0.00414389
-0.325403
0.321787
0.00251742
-0.00185098
-0.132377
0.13171
0.00161539
-0.00135643
-0.0303991
0.0301401
0.000923132
-0.000448584
0.00559146
-0.00606601
0.000138595
0.00428682
-0.00442542
-0.0785185
0.0763507
0.00216784
-0.0067283
0.00640711
-0.418132
0.418453
-0.00436506
0.00176441
-0.586461
0.589062
0.00228233
-0.00694813
-0.721642
0.726308
0.0122301
-0.0174662
-0.8439
0.849136
0.023232
-0.028434
-0.968653
0.973855
0.0341206
-0.0388441
-1.10887
1.11359
0.0437147
-0.0475909
-1.26527
1.26915
0.0508841
-0.0528304
-1.43895
1.44089
0.053471
-0.0525317
-1.63139
1.63045
0.0497138
-0.0454986
-1.55231
1.54809
0.0406834
-0.0348509
-1.25154
1.24571
0.0294537
-0.0229753
-1.02109
1.01461
0.0170762
-0.0111437
-0.811176
0.805243
0.00589875
-0.000781644
-0.56934
0.564222
-0.00230546
0.00360191
-0.315949
0.314653
-0.00321483
0.00228393
-0.129538
0.130469
-0.00142143
0.0005878
-0.0294444
0.030278
-0.000188527
-3.16092e-06
0.00663466
-0.00644297
2.84108e-05
0.00472729
-0.0047557
-0.0772878
0.0755723
0.00171549
-0.00593428
0.00599736
-0.422574
0.422511
-0.00440453
0.00249493
-0.594554
0.596463
0.00123799
-0.00543277
-0.730987
0.735182
0.0104
-0.0148704
-0.853959
0.85843
0.0198855
-0.0244409
-0.978997
0.983553
0.0297528
-0.0339579
-1.11831
1.12251
0.0381703
-0.0416999
-1.27278
1.27631
0.0449448
-0.0465128
-1.44278
1.44435
0.0469068
-0.0455766
-1.62901
1.62768
0.0427887
-0.0380662
-1.54354
1.53882
0.0332087
-0.0273163
-1.23957
1.23368
0.0215778
-0.0150846
-1.00765
1.00116
0.00899925
-0.00277462
-0.796725
0.790501
-0.00157519
0.005651
-0.556678
0.552602
-0.00789437
0.00801184
-0.310722
0.310604
-0.00687279
0.00525338
-0.130051
0.13167
-0.00368923
0.00213017
-0.0307221
0.0322812
-0.00110765
0.00039367
0.00628983
-0.00557585
-7.39953e-05
0.00486226
-0.00478826
-0.07654
0.0751722
0.00136785
-0.00491637
0.00514445
-0.425961
0.425732
-0.00379428
0.00200199
-0.601501
0.603293
0.00153486
-0.00523824
-0.739309
0.743013
0.00945068
-0.0137174
-0.862824
0.867091
0.0182935
-0.022922
-0.987884
0.992513
0.0274176
-0.0313501
-1.12677
1.13071
0.0355776
-0.0387359
-1.27966
1.28282
0.0413348
-0.0431393
-1.44576
1.44756
0.043473
-0.0421566
-1.62632
1.625
0.0392263
-0.034745
-1.53419
1.52971
0.0299
-0.0240002
-1.22737
1.22147
0.0183497
-0.0118636
-0.994212
0.987725
0.00585818
0.000153277
-0.782745
0.776733
-0.00454025
0.00802888
-0.545874
0.542385
-0.0098704
0.00988506
-0.307695
0.30768
-0.0085756
0.00664083
-0.131923
0.133857
-0.00488836
0.00302981
-0.0333645
0.0352231
-0.00168152
0.000671624
0.00490019
-0.0038903
-0.000154675
0.00472712
-0.00457245
-0.0763116
0.0751599
0.00115175
-0.00367368
0.00369422
-0.428895
0.428874
-0.00266238
0.000925362
-0.607789
0.609526
0.00243227
-0.00597002
-0.746952
0.75049
0.00996883
-0.0137847
-0.871115
0.87493
0.0184232
-0.0222008
-0.99653
1.00031
0.0265938
-0.0302688
-1.13476
1.13843
0.0342851
-0.0375381
-1.28591
1.28916
0.0402928
-0.0417339
-1.44906
1.4505
0.0422246
-0.0411064
-1.62354
1.62242
0.0385964
-0.03419
-1.52504
1.52064
0.0295813
-0.0238725
-1.21563
1.20992
0.0184258
-0.012065
-0.980831
0.97447
0.00632929
-0.000306745
-0.769346
0.763323
-0.00406933
0.00740371
-0.536124
0.53279
-0.00929095
0.00957155
-0.305203
0.304922
-0.008695
0.0070384
-0.134215
0.135872
-0.00538963
0.00349409
-0.03652
0.0384155
-0.00202912
0.000877488
0.00294149
-0.00178986
-0.00023178
0.00440978
-0.004178
-0.0763583
0.0755409
0.000817405
-0.00253083
0.00210199
-0.431853
0.432282
-0.00123286
-0.000575523
-0.613267
0.615075
0.00358416
-0.00695045
-0.754017
0.757383
0.010744
-0.0146529
-0.878579
0.882488
0.0186246
-0.0225177
-1.00426
1.00816
0.0268164
-0.0302233
-1.1425
1.14591
0.0342559
-0.037384
-1.29217
1.2953
0.0400985
-0.0419675
-1.45231
1.45417
0.0428128
-0.0418334
-1.62129
1.62031
0.0394218
-0.0355905
-1.51637
1.51254
0.0314101
-0.0259641
-1.20408
1.19864
0.0206991
-0.0148446
-0.967953
0.962098
0.00900022
-0.00333687
-0.756224
0.750561
-0.00128102
0.0047923
-0.526828
0.523317
-0.0066303
0.00747259
-0.30231
0.301468
-0.00718074
0.00615561
-0.136002
0.137028
-0.00486235
0.00328513
-0.0395604
0.0411377
-0.00197977
0.000913663
0.000762376
0.000303728
-0.00025877
0.00395692
-0.00369815
-0.0768248
0.0761754
0.000649364
-0.0015598
0.00120952
-0.434999
0.435349
0.000120752
-0.00194279
-0.618734
0.620556
0.00506915
-0.00827215
-0.760511
0.763714
0.011885
-0.0153603
-0.886035
0.88951
0.0194225
-0.0229641
-1.01203
1.01557
0.0271701
-0.0309724
-1.14974
1.15354
0.0345872
-0.0379905
-1.29843
1.30184
0.0410565
-0.0429404
-1.4559
1.45778
0.0440634
-0.0437733
-1.61951
1.61922
0.0417118
-0.0384206
-1.50855
1.50526
0.0343979
-0.0293965
-1.19325
1.18825
0.0245703
-0.0189213
-0.955807
0.950158
0.0135
-0.00792816
-0.743722
0.73815
0.00324023
0.000811623
-0.517357
0.513306
-0.00309056
0.00438345
-0.298581
0.297289
-0.00479962
0.00442299
-0.136665
0.137041
-0.00369029
0.00263617
-0.0419005
0.0429546
-0.0016671
0.000793602
-0.00116498
0.00203848
-0.0002403
0.00347507
-0.00323477
-0.0775798
0.0771127
0.000467133
-0.000502588
5.67278e-05
-0.438319
0.438765
0.00136685
-0.00344148
-0.62392
0.625994
0.00645407
-0.0094791
-0.766718
0.769743
0.0131615
-0.0164626
-0.892939
0.89624
0.0203409
-0.0239818
-1.01957
1.02321
0.0280598
-0.0317963
-1.15717
1.1609
0.0355965
-0.0389862
-1.30512
1.30851
0.0421892
-0.0447723
-1.45992
1.4625
0.0462722
-0.0462073
-1.61883
1.61877
0.0447712
-0.0417451
-1.50184
1.49882
0.0382615
-0.0338326
-1.18322
1.1788
0.0291311
-0.023806
-0.94425
0.938925
0.0186441
-0.0130542
-0.731658
0.726069
0.00839067
-0.00388477
-0.50764
0.503134
0.00109842
0.000901497
-0.293867
0.291868
-0.00191682
0.00224592