/*--------------------------------*- C++ -*----------------------------------*\
| =========                 |                                                 |
| \\      /  F ield         | OpenFOAM: The Open Source CFD Toolbox           |
|  \\    /   O peration     | Version:  4.0                                   |
|   \\  /    A nd           | Web:      www.OpenFOAM.org                      |
|    \\/     M anipulation  |                                                 |
\*---------------------------------------------------------------------------*/
FoamFile
{
    version     2.0;
    format      ascii;
    class       surfaceScalarField;
    location    "15";
    object      phi;
}
// * * * * * * * * * * * * * * * * * * * * * * * * * * * * * * * * * * * * * //

dimensions      [0 3 -1 0 0 0 0];

internalField   nonuniform List<scalar> 
17370
(
-0.0916034
0.0960214
0.284593
-0.0776139
0.0594435
0.364946
-0.043052
0.0316046
0.427616
-0.0222684
0.0161902
0.50533
-0.0115771
0.00869796
0.602281
-0.00649668
0.00502705
0.720527
-0.00380594
0.00294034
0.863772
-0.00218776
0.00163231
1.03601
-0.00112735
0.000723161
1.24291
-0.000321143
-4.44278e-05
1.49156
0.000416324
-0.000829144
1.4916
0.00122981
-0.00173026
1.24319
0.00228052
-0.0030258
1.03638
0.00388359
-0.00509675
0.86412
0.00656037
-0.00875619
0.721253
0.0116287
-0.0162308
0.603817
0.0222977
-0.0316215
0.508763
0.0430568
-0.0594408
0.432552
0.0776119
-0.0960192
0.365183
0.0916116
0.197399
-0.127122
0.0880761
0.0390455
-0.364388
0.35407
-0.0714181
0.0817354
-0.446619
0.454286
-0.0791367
0.071469
-0.520995
0.529105
-0.063585
0.0554751
-0.613017
0.620751
-0.0481103
0.0403758
-0.727195
0.733726
-0.0337888
0.0272575
-0.867558
0.872443
-0.0220164
0.0171305
-1.03853
1.04184
-0.0134239
0.0101123
-1.24468
1.24703
-0.00760503
0.00526411
-1.49279
1.4947
-0.00337725
0.00146854
-1.49264
1.49437
0.00026371
-0.00198885
-1.24408
1.24594
0.00387748
-0.00574315
-1.03759
1.04007
0.00805341
-0.0105324
-0.866169
0.869851
0.0138156
-0.0174973
-0.724619
0.72983
0.0223558
-0.0275671
-0.609125
0.615678
0.0340604
-0.0406135
-0.515137
0.522473
0.0483158
-0.0556521
-0.439849
0.447693
0.0637223
-0.0715671
-0.374745
0.377356
0.079178
-0.0817891
-0.256968
0.224568
0.0714605
-0.0390606
-0.0689079
0.0593422
0.00956564
-0.0518379
0.0585817
-0.374892
0.368148
-0.0576694
0.0537467
-0.453985
0.457908
-0.0481519
0.0434958
-0.527633
0.532289
-0.0388679
0.0349162
-0.62077
0.624722
-0.0307109
0.0268034
-0.734609
0.738516
-0.022604
0.0188844
-0.873904
0.877623
-0.0150285
0.0117283
-1.04325
1.04655
-0.00836883
0.00546174
-1.24847
1.25137
-0.0023733
-0.000514506
-1.49673
1.49962
0.00338941
-0.00644236
-1.49721
1.50026
0.00930403
-0.0126063
-1.24995
1.25325
0.0158461
-0.0196281
-1.04563
1.04941
0.023282
-0.027412
-0.87716
0.88129
0.0312616
-0.0354117
-0.739002
0.743152
0.0393108
-0.0438868
-0.626051
0.630627
0.0485051
-0.054065
-0.535108
0.540668
0.0579486
-0.0588162
-0.458218
0.459085
0.0520094
-0.0318176
-0.336997
0.316805
0.00959648
-0.0688289
0.0592325
-0.0536194
0.0496008
0.0040186
-0.0326487
0.042873
-0.358833
0.348609
-0.0464769
0.0459396
-0.459704
0.460241
-0.0431403
0.0400424
-0.536247
0.539345
-0.0364206
0.0330731
-0.628389
0.631737
-0.0294223
0.0261635
-0.741891
0.745149
-0.0226751
0.0194997
-0.881046
0.884222
-0.0159975
0.0127746
-1.04987
1.05309
-0.00926324
0.00607525
-1.25449
1.25768
-0.00257216
-0.00073628
-1.50278
1.50609
0.00403014
-0.00748925
-1.50359
1.50705
0.0106135
-0.0140413
-1.25669
1.26012
0.0171813
-0.0205903
-1.05304
1.05645
0.0236823
-0.027077
-0.884895
0.88829
0.0302565
-0.0338343
-0.746877
0.750454
0.0371217
-0.0406743
-0.634793
0.638345
0.0437096
-0.0464399
-0.544846
0.547577
0.0469078
-0.0432126
-0.457305
0.45361
0.032881
-0.0159676
-0.297786
0.280873
0.00405414
-0.0534791
0.049425
-0.046534
0.0441103
0.00242371
-0.0219897
0.0318715
-0.338317
0.328435
-0.037252
0.0380178
-0.460018
0.459252
-0.0366634
0.0343699
-0.541847
0.54414
-0.0318414
0.0294443
-0.634622
0.637019
-0.0266466
0.0239741
-0.748217
0.750889
-0.0209505
0.0181638
-0.887223
0.89001
-0.015086
0.012243
-1.0561
1.05894
-0.0090399
0.00598736
-1.26083
1.26388
-0.0024464
-0.00103316
-1.50953
1.51301
0.00448519
-0.00795924
-1.51056
1.51403
0.0109293
-0.0140235
-1.26338
1.26647
0.0167565
-0.0197064
-1.0596
1.06255
0.0223703
-0.0252605
-0.891527
0.894418
0.0278117
-0.0304803
-0.753683
0.756352
0.0327697
-0.0352008
-0.641221
0.643652
0.037421
-0.0386807
-0.549419
0.550679
0.0378181
-0.0323003
-0.448778
0.44326
0.0222718
-0.00973878
-0.266211
0.253678
0.00246479
-0.0463213
0.0438565
-0.0421696
0.0405933
0.0015763
-0.0151641
0.0236099
-0.319204
0.310758
-0.0295943
0.0314573
-0.457926
0.456063
-0.0309544
0.0292702
-0.546208
0.547893
-0.0271086
0.0251022
-0.639182
0.641189
-0.0229445
0.0209398
-0.753155
0.75516
-0.0186157
0.0163247
-0.892536
0.894827
-0.0136244
0.0110162
-1.06166
1.06426
-0.00801821
0.00515438
-1.26683
1.26969
-0.00184938
-0.00136017
-1.51637
1.51958
0.00454075
-0.00775795
-1.51738
1.5206
0.0105059
-0.0133507
-1.26943
1.27227
0.0158064
-0.0183299
-1.06528
1.0678
0.020461
-0.0226104
-0.896901
0.899051
0.0244594
-0.0264852
-0.758614
0.76064
0.0283556
-0.0303849
-0.645913
0.647942
0.0319447
-0.0323064
-0.551481
0.551843
0.030296
-0.0241234
-0.437297
0.431124
0.0154961
-0.00647075
-0.243029
0.234003
0.00162591
-0.0418687
0.0402428
-0.0392932
0.038234
0.0010592
-0.0101633
0.0167473
-0.303198
0.296614
-0.0224502
0.024985
-0.453808
0.451273
-0.025297
0.024486
-0.549142
0.549953
-0.0230431
0.0216307
-0.642911
0.644323
-0.0199529
0.0182736
-0.756984
0.758663
-0.0162973
0.0143557
-0.896924
0.898866
-0.0120652
0.00978761
-1.06674
1.06902
-0.00707779
0.00440801
-1.27249
1.27516
-0.00128959
-0.00174057
-1.5227
1.52573
0.00473531
-0.00774056
-1.52373
1.52674
0.0102555
-0.0127598
-1.27499
1.27749
0.0148308
-0.016894
-1.0701
1.07216
0.0186288
-0.0203858
-0.900973
0.90273
0.0218815
-0.0233617
-0.762394
0.763874
0.024611
-0.0258924
-0.649607
0.650889
0.0265469
-0.0260552
-0.551782
0.55129
0.0233238
-0.0173749
-0.424975
0.419026
0.0105668
-0.00433124
-0.226413
0.220178
0.00112118
-0.0388881
0.0377669
-0.0374273
0.0368786
0.00054866
-0.00562406
0.0100496
-0.291092
0.286666
-0.0147756
0.0175576
-0.448536
0.445754
-0.0186427
0.0186516
-0.550314
0.550305
-0.0178635
0.0169008
-0.645491
0.646454
-0.0156531
0.0143825
-0.760208
0.761479
-0.0128227
0.0112485
-0.900651
0.902225
-0.00935916
0.00748874
-1.07108
1.07295
-0.00525725
0.00304009
-1.27761
1.27983
-0.000379276
-0.00226676
-1.52859
1.53124
0.00486103
-0.00736682
-1.52952
1.53203
0.00937879
-0.0113455
-1.27973
1.2817
0.0129544
-0.0145384
-1.07401
1.07559
0.0158358
-0.0171143
-0.904321
0.905599
0.018119
-0.0190716
-0.765096
0.766049
0.0198153
-0.0203762
-0.651783
0.652343
0.0201496
-0.0188161
-0.550332
0.548999
0.0157821
-0.0107655
-0.413447
0.40843
0.00608802
-0.00239104
-0.215262
0.211565
0.000621899
-0.0368922
0.0362703
-0.0365612
0.0364219
0.000139283
-0.00238029
0.00492311
-0.283276
0.280734
-0.00819849
0.0104895
-0.443152
0.440861
-0.0116591
0.0118841
-0.55012
0.549895
-0.0115653
0.0110685
-0.647183
0.64768
-0.0104446
0.00977065
-0.762401
0.763075
-0.00887324
0.00788958
-0.903508
0.904492
-0.00659602
0.00520521
-1.07459
1.07599
-0.00346106
0.00165212
-1.28183
1.28364
0.000577257
-0.00283114
-1.53368
1.53594
0.00501499
-0.00705186
-1.53428
1.53631
0.00862159
-0.0100496
-1.2834
1.28482
0.0111115
-0.0120268
-1.07684
1.07775
0.0126576
-0.0131527
-0.906403
0.906898
0.0135174
-0.0138392
-0.766684
0.767005
0.0140441
-0.0140636
-0.652638
0.652657
0.0135614
-0.0120744
-0.547514
0.546027
0.00946592
-0.00582887
-0.404116
0.400479
0.00297125
-0.00103496
-0.208886
0.206949
0.000232339
-0.035872
0.0356397
-0.0363883
0.0363943
-6.01285e-06
-0.00110992
0.00275471
-0.278762
0.277117
-0.00521916
0.00721142
-0.438811
0.436818
-0.00847284
0.00894416
-0.549598
0.549127
-0.00901899
0.00884676
-0.647986
0.648159
-0.00841012
0.00787851
-0.763644
0.764175
-0.00715145
0.00632597
-0.905322
0.906147
-0.00520649
0.00396959
-1.07722
1.07846
-0.00235072
0.000644579
-1.28533
1.28703
0.00144869
-0.00351911
-1.53805
1.54012
0.00551656
-0.00739171
-1.53821
1.54009
0.00880629
-0.0100346
-1.28608
1.28731
0.0108886
-0.0115828
-1.07849
1.07918
0.0120464
-0.0124047
-0.907329
0.907687
0.0125339
-0.0124366
-0.76707
0.766972
0.0121571
-0.0117064
-0.652397
0.651946
0.0108711
-0.00918442
-0.5445
0.542814
0.00678503
-0.00387169
-0.39732
0.394407
0.0018378
-0.000583055
-0.205464
0.20421
0.000107812
-0.0355002
0.0353924
-0.0364123
0.0364374
-2.50839e-05
-0.000701819
0.00200535
-0.275666
0.274362
-0.00427403
0.00650435
-0.434743
0.432513
-0.00839195
0.00937247
-0.548442
0.547462
-0.0096664
0.00971849
-0.648234
0.648182
-0.00959641
0.00914547
-0.764642
0.765093
-0.00836462
0.00738027
-0.907022
0.908007
-0.00599076
0.00443842
-1.07982
1.08137
-0.00243236
0.000360322
-1.28889
1.29096
0.00211423
-0.00450451
-1.54229
1.54468
0.00680166
-0.00897818
-1.54206
1.54424
0.0106318
-0.0121015
-1.28862
1.29009
0.013135
-0.0139257
-1.07987
1.08066
0.0143351
-0.0144643
-0.90783
0.907959
0.0143361
-0.0140166
-0.766799
0.76648
0.0136429
-0.0127928
-0.651394
0.650544
0.0113386
-0.00892495
-0.540847
0.538433
0.00619572
-0.00337905
-0.391581
0.388764
0.00159981
-0.000539264
-0.203072
0.202012
0.000115773
-0.0352861
0.0351703
-0.0364669
0.0365053
-3.84716e-05
-0.000320026
0.00127239
-0.273215
0.272262
-0.00328441
0.00573596
-0.430117
0.427665
-0.00844432
0.0103724
-0.545988
0.54406
-0.0117005
0.0120788
-0.647961
0.647582
-0.0119478
0.0114123
-0.765648
0.766183
-0.0103861
0.00904179
-0.909178
0.910522
-0.00717886
0.00516734
-1.08316
1.08517
-0.0026632
0.000134273
-1.29327
1.2958
0.00287471
-0.00579567
-1.54734
1.55026
0.00858719
-0.0112217
-1.54666
1.5493
0.0132668
-0.0151024
-1.29175
1.29359
0.0164252
-0.0175205
-1.08163
1.08273
0.0181802
-0.0185004
-0.908275
0.908596
0.0183065
-0.0177498
-0.765992
0.765436
0.0167338
-0.0147039
-0.649117
0.647087
0.0121514
-0.00875227
-0.535476
0.532077
0.00567388
-0.00298559
-0.385967
0.383278
0.00144038
-0.000533006
-0.201022
0.200115
0.000137009
-0.0350424
0.0349054
-0.0365592
0.036639
-7.97811e-05
0.000173164
0.000303654
-0.271533
0.271056
-0.00166565
0.0037063
-0.425336
0.423296
-0.00643167
0.00877163
-0.541819
0.539479
-0.0107614
0.0116844
-0.647033
0.64611
-0.0117592
0.011327
-0.766598
0.76703
-0.0101748
0.00868745
-0.911973
0.91346
-0.00663843
0.00444361
-1.08732
1.08952
-0.00173023
-0.000993464
-1.29847
1.30119
0.00424079
-0.0073822
-1.55336
1.5565
0.0103482
-0.0131045
-1.55205
1.55481
0.0151902
-0.0170645
-1.29552
1.2974
0.0183962
-0.0194157
-1.08383
1.08485
0.0198935
-0.0199146
-0.908773
0.908794
0.0196721
-0.0187026
-0.764779
0.763809
0.0168826
-0.0140443
-0.644545
0.641707
0.0109423
-0.00739544
-0.528472
0.524925
0.00460842
-0.00242645
-0.380807
0.378625
0.0012261
-0.000495418
-0.199299
0.198568
0.000141445
-0.0347652
0.0346238
-0.0367436
0.0368806
-0.000137036
0.000679769
-0.000698407
-0.270849
0.270867
0.000151153
0.00101231
-0.421667
0.420504
-0.00285717
0.0046354
-0.537339
0.535561
-0.00626272
0.00725663
-0.644968
0.643974
-0.00764405
0.00734648
-0.767499
0.767796
-0.00648899
0.00525513
-0.914866
0.9161
-0.00346635
0.00149599
-1.09163
1.0936
0.000990635
-0.00350225
-1.30386
1.30637
0.00647701
-0.00931615
-1.55955
1.56239
0.0119478
-0.0142953
-1.55743
1.55978
0.0160175
-0.0174418
-1.29908
1.30051
0.0183182
-0.0188584
-1.08568
1.08622
0.0189791
-0.0186494
-0.908711
0.908382
0.0177223
-0.0160474
-0.762356
0.760681
0.0139897
-0.0112661
-0.638829
0.636105
0.00853252
-0.00567875
-0.521666
0.518812
0.00359359
-0.00201336
-0.376757
0.375177
0.00110482
-0.000484331
-0.197907
0.197287
0.000146038
-0.034483
0.0343369
-0.0370406
0.0372297
-0.000189124
0.00110613
-0.00150377
-0.271035
0.271433
0.00162718
-0.00131345
-0.419775
0.419461
0.000489727
0.000426326
-0.534247
0.533331
-0.00132186
0.00187037
-0.643221
0.642672
-0.00206154
0.00183958
-0.76803
0.768252
-0.00117127
0.000189332
-0.917173
0.918155
0.00126573
-0.00289281
-1.09538
1.097
0.00495915
-0.00704085
-1.30866
1.31074
0.00945508
-0.0116786
-1.56493
1.56715
0.0136346
-0.0152452
-1.56177
1.56338
0.0162148
-0.0168822
-1.3016
1.30227
0.0171188
-0.0169987
-1.08639
1.08627
0.0165208
-0.0156074
-0.907694
0.906781
0.0144069
-0.0127444
-0.759014
0.757352
0.0109291
-0.00872409
-0.633649
0.631444
0.00667252
-0.00462836
-0.516402
0.514358
0.00314336
-0.00195086
-0.37383
0.372637
0.00116726
-0.000543474
-0.196682
0.196058
0.0001686
-0.0341864
0.0340178
-0.0374451
0.037687
-0.000241912
0.00148003
-0.00215865
-0.27196
0.272638
0.00275084
-0.00303163
-0.419472
0.419753
0.00303679
-0.00288086
-0.532877
0.532721
0.00270457
-0.00268162
-0.642473
0.64245
0.00289238
-0.00333513
-0.768585
0.769028
0.00410664
-0.00506108
-0.91906
0.920015
0.00636207
-0.00775948
-1.09844
1.09984
0.00948319
-0.0111639
-1.31257
1.31425
0.0130187
-0.0146162
-1.56903
1.57063
0.0158821
-0.0167383
-1.56464
1.5655
0.0170739
-0.0170112
-1.30253
1.30246
0.0167036
-0.0159973
-1.08577
1.08506
0.0150837
-0.0138464
-0.905664
0.904427
0.0125353
-0.0109378
-0.755719
0.754121
0.00936717
-0.00759494
-0.629507
0.627735
0.0060258
-0.00447266
-0.512634
0.511081
0.00328148
-0.00220673
-0.371542
0.370468
0.00139279
-0.00067015
-0.195404
0.194682
0.000211821
-0.0338399
0.0336281
-0.0379665
0.0382707
-0.000304226
0.00189352
-0.00282036
-0.273446
0.274373
0.00376678
-0.00446469
-0.420238
0.420936
0.00500225
-0.00538874
-0.53298
0.533367
0.00581504
-0.00630594
-0.6428
0.643291
0.00701153
-0.00782956
-0.769628
0.770446
0.00891193
-0.0100472
-0.920949
0.922084
0.0114233
-0.0127772
-1.10113
1.10248
0.014339
-0.0157653
-1.31572
1.31715
0.0172089
-0.0182942
-1.57191
1.573
0.018959
-0.0191165
-1.56603
1.56618
0.018851
-0.0182686
-1.30211
1.30153
0.0174616
-0.0163501
-1.08406
1.08295
0.0151589
-0.0137302
-0.903039
0.901611
0.0123494
-0.0107872
-0.752536
0.750973
0.0093421
-0.00777581
-0.62614
0.624574
0.00640529
-0.00500845
-0.509704
0.508307
0.00385102
-0.0026937
-0.369399
0.368242
0.00174065
-0.000849994
-0.193905
0.193014
0.000271904
-0.0334097
0.0331378
-0.0386281
0.0390123
-0.000384161
0.00240551
-0.00360711
-0.275468
0.27667
0.00487708
-0.00590447
-0.421874
0.422901
0.00685164
-0.00765621
-0.534152
0.534957
0.00858989
-0.0095751
-0.644124
0.645109
0.0107971
-0.0120344
-0.771384
0.772622
0.0135116
-0.01495
-0.923202
0.924641
0.01659
-0.018098
-1.10379
1.1053
0.019702
-0.0210417
-1.31843
1.31976
0.0222462
-0.0229686
-1.57383
1.57456
0.023173
-0.0228236
-1.56607
1.56572
0.022084
-0.0209518
-1.30064
1.29951
0.0197168
-0.0182127
-1.08156
1.08006
0.0167528
-0.0151121
-0.899998
0.898358
0.013608
-0.011976
-0.749341
0.747709
0.0105096
-0.00893925
-0.623083
0.621513
0.007549
-0.00607412
-0.507009
0.505534
0.00476815
-0.00337161
-0.367067
0.36567
0.00218879
-0.00107246
-0.192063
0.190947
0.000344069
-0.0328691
0.032525
-0.0394725
0.0399635
-0.000490947
0.00306591
-0.00460711
-0.2781
0.279641
0.00627087
-0.0076681
-0.424256
0.425653
0.0090343
-0.0102357
-0.536222
0.537423
0.011627
-0.0130564
-0.646368
0.647798
0.0147975
-0.0165112
-0.773955
0.775669
0.0184929
-0.0203502
-0.926063
0.927921
0.0223764
-0.0241534
-1.10674
1.10851
0.0259366
-0.0273132
-1.32099
1.32237
0.028406
-0.0288695
-1.57508
1.57554
0.0286904
-0.0278634
-1.5651
1.56427
0.0266821
-0.0250603
-1.29811
1.29649
0.0233928
-0.0214622
-1.07827
1.07634
0.0196715
-0.017731
-0.89645
0.89451
0.0160053
-0.014177
-0.745881
0.744053
0.0125563
-0.0108215
-0.619916
0.618181
0.00925793
-0.00753923
-0.504134
0.502415
0.00595556
-0.00423644
-0.364307
0.362587
0.00274886
-0.00134033
-0.189773
0.188364
0.000428436
-0.03219
0.0317615
-0.0405577
0.0412086
-0.000650901
0.00400169
-0.00600823
-0.281489
0.283496
0.00818772
-0.010026
-0.427436
0.429274
0.0118384
-0.0134526
-0.539175
0.540789
0.0153287
-0.0172449
-0.649554
0.65147
0.0195689
-0.0218424
-0.777426
0.7797
0.0244246
-0.0267771
-0.92971
0.932062
0.0292711
-0.0313911
-1.11023
1.11235
0.033439
-0.0349373
-1.32366
1.32516
0.0360019
-0.0362618
-1.57583
1.57609
0.0357258
-0.034413
-1.56317
1.56186
0.0327476
-0.0305881
-1.29458
1.29242
0.028443
-0.0260131
-1.0741
1.07167
0.0237993
-0.0214403
-0.89221
0.889851
0.0193748
-0.0172167
-0.741895
0.739737
0.0153187
-0.0132855
-0.616324
0.614291
0.0114264
-0.00934424
-0.500792
0.49871
0.00742239
-0.00529676
-0.360909
0.358784
0.00344948
-0.00167931
-0.186918
0.185148
0.000535013
-0.0313469
0.0308119
-0.041971
0.0428546
-0.000883641
0.00533427
-0.00798689
-0.285859
0.288512
0.0108557
-0.0132546
-0.431582
0.433981
0.0156073
-0.0177094
-0.543111
0.545214
0.020173
-0.0226874
-0.653786
0.6563
0.0257122
-0.0286197
-0.781973
0.784881
0.0318546
-0.0347575
-0.93436
0.937262
0.0377955
-0.0403364
-1.11445
1.11699
0.0427307
-0.0444023
-1.32658
1.32825
0.0454618
-0.0455103
-1.57614
1.57619
0.0445837
-0.0427271
-1.56023
1.55838
0.0405104
-0.0377227
-1.28993
1.28714
0.0350034
-0.0319594
-1.06888
1.06584
0.0292093
-0.0262999
-0.887051
0.884142
0.0237714
-0.0211529
-0.737122
0.734503
0.018867
-0.0164282
-0.612035
0.609596
0.0141865
-0.0116453
-0.49673
0.494189
0.00925964
-0.00660377
-0.35671
0.354054
0.00429141
-0.00208644
-0.183351
0.181146
0.000663215
-0.0303027
0.0296395
-0.0438435
0.0450607
-0.00121721
0.00724241
-0.010794
-0.291526
0.295077
0.0145717
-0.0176789
-0.43696
0.440067
0.0207013
-0.0234232
-0.54824
0.550962
0.0266466
-0.0299191
-0.659287
0.66256
0.0337909
-0.0374511
-0.787828
0.791488
0.0414724
-0.0450412
-0.940181
0.94375
0.0487259
-0.0517463
-1.11952
1.12254
0.0545017
-0.056322
-1.32981
1.33164
0.057313
-0.0570633
-1.57597
1.57572
0.0556412
-0.0531207
-1.55614
1.55362
0.0502398
-0.0466968
-1.28395
1.28041
0.0432848
-0.0394948
-1.06236
1.05857
0.0360866
-0.0324913
-0.880708
0.877113
0.0293762
-0.0261651
-0.7313
0.728089
0.0233768
-0.0204163
-0.606803
0.603842
0.0176891
-0.014573
-0.491724
0.488608
0.0115856
-0.00826627
-0.351483
0.348163
0.00536756
-0.00260553
-0.178921
0.176159
0.000826414
-0.0290188
0.0281924
-0.0463801
0.0480962
-0.00171618
0.0100149
-0.0147869
-0.298981
0.303753
0.0197024
-0.0236792
-0.443988
0.447965
0.0275383
-0.0310695
-0.554922
0.558453
0.0352786
-0.0395182
-0.666376
0.670616
0.0444667
-0.0490749
-0.795231
0.79984
0.0540643
-0.05842
-0.947358
0.951714
0.0628209
-0.0663273
-1.12553
1.12904
0.0693984
-0.0712853
-1.33331
1.33519
0.072079
-0.0713778
-1.57514
1.57444
0.0692937
-0.0659323
-1.55062
1.54726
0.062233
-0.0577738
-1.27638
1.27192
0.0535275
-0.0488414
-1.05426
1.04957
0.0446428
-0.0402205
-0.872891
0.868469
0.0363938
-0.0324561
-0.724151
0.720213
0.0290469
-0.0254385
-0.600366
0.596758
0.0221074
-0.0182799
-0.485501
0.481674
0.014572
-0.0103598
-0.344992
0.34078
0.0067064
-0.00323893
-0.173421
0.169954
0.00101942
-0.0274398
0.0264204
-0.0498948
0.0524426
-0.00254779
0.0143899
-0.0209111
-0.308937
0.315458
0.0273413
-0.0324426
-0.453218
0.458319
0.0374054
-0.0420183
-0.563655
0.568268
0.0475317
-0.0530064
-0.675475
0.680949
0.0592563
-0.0649429
-0.804533
0.81022
0.0709607
-0.076083
-0.956069
0.961192
0.0811135
-0.0849809
-1.13245
1.13631
0.0881911
-0.0899528
-1.33682
1.33858
0.0903086
-0.0889186
-1.57327
1.57188
0.085943
-0.0815205
-1.54331
1.53889
0.0768252
-0.0712723
-1.26687
1.26132
0.0660406
-0.0603
-1.04427
1.03853
0.0551715
-0.0497744
-0.863303
0.857906
0.045105
-0.0403018
-0.715379
0.710576
0.0361504
-0.0317629
-0.592433
0.588046
0.0276957
-0.0229828
-0.477755
0.473042
0.0183635
-0.0130661
-0.336805
0.331508
0.00840432
-0.00401178
-0.166598
0.162206
0.00124523
-0.0255064
0.0242611
-0.054984
0.0590027
-0.00401877
0.0216705
-0.0307846
-0.322527
0.331641
0.0392805
-0.0458245
-0.465543
0.472087
0.0522295
-0.0582694
-0.575137
0.581177
0.0654648
-0.072414
-0.687079
0.694028
0.080088
-0.0868499
-0.815958
0.82272
0.0937895
-0.0995077
-0.966236
0.971954
0.1049
-0.108823
-1.13993
1.14386
0.111788
-0.113053
-1.33989
1.34115
0.112564
-0.110131
-1.56981
1.56738
0.105959
-0.100219
-1.53373
1.52799
0.0943397
-0.0875236
-1.25509
1.24827
0.081175
-0.0742494
-1.0321
1.02517
0.0680778
-0.0615805
-0.851661
0.845164
0.05595
-0.0501494
-0.704697
0.698896
0.0451396
-0.0398508
-0.582677
0.577388
0.0349155
-0.0291325
-0.46807
0.462287
0.0233459
-0.0166222
-0.326505
0.319781
0.0106589
-0.00504412
-0.158052
0.152437
0.0015418
-0.0231468
0.0216049
-0.0627992
0.0700391
-0.00723987
0.0353005
-0.0485051
-0.34205
0.355254
0.0598759
-0.0680853
-0.482134
0.490343
0.0761124
-0.0838898
-0.590041
0.597818
0.092924
-0.10121
-0.701457
0.709743
0.10995
-0.117351
-0.829308
0.836708
0.124653
-0.130402
-0.977299
0.983047
0.135519
-0.1389
-1.14722
1.1506
0.140991
-0.141187
-1.34166
1.34186
0.139295
-0.135351
-1.56402
1.56008
0.129616
-0.122278
-1.52133
1.514
0.115026
-0.106808
-1.24068
1.23246
0.0992486
-0.0910697
-1.0175
1.00932
0.0838059
-0.0761665
-0.837762
0.830122
0.0695365
-0.0626891
-0.691872
0.685025
0.0567631
-0.0504956
-0.570783
0.564516
0.0445891
-0.0374603
-0.455901
0.448772
0.0301752
-0.0215873
-0.313326
0.304738
0.0138163
-0.00643612
-0.147278
0.139898
0.00187926
-0.0202712
0.0183919
-0.0769824
0.0804147
-0.00343233
0.024616
-0.0358735
-0.371379
0.382636
0.0459981
-0.053958
-0.503775
0.511735
0.062902
-0.072482
-0.608148
0.617728
0.0831186
-0.092662
-0.717749
0.727293
0.103311
-0.112731
-0.843352
0.852772
0.122509
-0.13089
-0.987864
0.996245
0.139212
-0.145861
-1.15292
1.15957
0.151746
-0.15554
-1.34092
1.34471
0.157468
-0.156679
-1.55492
1.55413
0.153045
-0.14697
-1.50556
1.49949
0.139873
-0.130889
-1.22338
1.2144
0.122122
-0.111632
-1.00038
0.989885
0.102041
-0.0915363
-0.821571
0.811066
0.0821866
-0.0723012
-0.676891
0.667006
0.0633294
-0.0539952
-0.556585
0.547251
0.0455808
-0.0353794
-0.440736
0.430535
0.0257134
-0.0159241
-0.296105
0.286316
0.00855318
-0.00310395
-0.133248
0.127798
0.00056792
-0.016832
0.0162641
-0.087579
0.0845404
0.0030386
0.00185873
-0.00838463
-0.396682
0.403208
0.0163437
-0.0229703
-0.524524
0.531151
0.0314934
-0.0399114
-0.627809
0.636227
0.0495487
-0.0583497
-0.736789
0.74559
0.0677226
-0.0762222
-0.861717
0.870216
0.085063
-0.0923659
-1.00434
1.01165
0.099837
-0.105497
-1.16606
1.17172
0.110486
-0.113445
-1.34828
1.35124
0.114335
-0.112798
-1.55262
1.55108
0.108559
-0.102035
-1.49269
1.48616
0.094496
-0.0852439
-1.20498
1.19572
0.0763609
-0.0662267
-0.979119
0.968985
0.0567668
-0.0463129
-0.799656
0.789202
0.0370153
-0.0275321
-0.654993
0.64551
0.0194717
-0.0112114
-0.535114
0.526854
0.00421264
0.00229203
-0.418749
0.412244
-0.00608143
0.00753378
-0.275255
0.273803
-0.00675968
0.00427644
-0.121206
0.123689
-0.00174585
-0.0148836
0.0166295
-0.0870428
0.0836482
0.00339463
-0.00617114
0.00320381
-0.412913
0.41588
0.00184961
-0.00727276
-0.54157
0.546994
0.0143237
-0.0215253
-0.645022
0.652224
0.0297378
-0.0372863
-0.7539
0.761449
0.0455564
-0.0529154
-0.878088
0.885447
0.0603608
-0.0668833
-1.01882
1.02534
0.0733977
-0.0784605
-1.17703
1.18209
0.0825544
-0.0848267
-1.35365
1.35592
0.0854685
-0.0837385
-1.54905
1.54732
0.0795486
-0.0733588
-1.47932
1.47313
0.0664245
-0.0582281
-1.18669
1.17849
0.050118
-0.0412118
-0.958884
0.949977
0.0329901
-0.0240137
-0.779156
0.77018
0.016295
-0.00839575
-0.635207
0.627307
0.00189159
0.00464624
-0.516504
0.509966
-0.00953692
0.013346
-0.403638
0.399829
-0.0146175
0.012802
-0.26839
0.270205
-0.00940267
0.00518139
-0.123558
0.12778
-0.00186102
-0.0169408
0.0188018
-0.0847289
0.0814747
0.00325422
-0.00881472
0.0079003
-0.423028
0.423942
-0.00471356
0.000536709
-0.555008
0.559184
0.00554575
-0.0115638
-0.659311
0.665329
0.0185731
-0.0250363
-0.768738
0.775202
0.0320847
-0.0383936
-0.892398
0.898707
0.0451763
-0.0507618
-1.03152
1.03711
0.0565568
-0.060678
-1.18687
1.19099
0.0643551
-0.0664068
-1.35813
1.36018
0.0668681
-0.0650695
-1.5454
1.5436
0.0614771
-0.056209
-1.4668
1.46153
0.0502873
-0.0430511
-1.17057
1.16333
0.0362959
-0.0289878
-0.941365
0.934056
0.0221884
-0.015142
-0.761782
0.754735
0.00880584
-0.00260982
-0.618951
0.612755
-0.00236996
0.00683091
-0.502084
0.497623
-0.00980025
0.0118861
-0.393584
0.391498
-0.0120992
0.009705
-0.266948
0.269342
-0.00688123
0.00365101
-0.128371
0.131601
-0.00129689
-0.0191659
0.0204628
-0.0824325
0.0797355
0.00269701
-0.00902541
0.00936894
-0.42952
0.429176
-0.00689904
0.00360215
-0.565982
0.569279
0.00128711
-0.00665747
-0.671389
0.676759
0.0125399
-0.0182233
-0.781274
0.786958
0.0243317
-0.0298389
-0.904685
0.910192
0.0357255
-0.0407916
-1.04265
1.04772
0.0458308
-0.0497786
-1.19511
1.19906
0.0531188
-0.0550257
-1.36206
1.36397
0.0555501
-0.054052
-1.54188
1.54038
0.0510103
-0.0463525
-1.45596
1.4513
0.0413116
-0.0353176
-1.15648
1.15049
0.0296677
-0.0234841
-0.926945
0.920762
0.0179852
-0.0122404
-0.747915
0.74217
0.00731726
-0.00245488
-0.606453
0.60159
-0.00130571
0.00456243
-0.491679
0.488422
-0.00675827
0.00805195
-0.386953
0.385659
-0.00785735
0.00618751
-0.266547
0.268217
-0.00431607
0.00223388
-0.131297
0.133379
-0.00085484
-0.0203707
0.0212256
-0.0805796
0.0783353
0.00224427
-0.00830449
0.00884792
-0.433702
0.433159
-0.00741957
0.00462448
-0.574597
0.577392
-6.59209e-05
-0.00453429
-0.681699
0.686299
0.00963854
-0.0146086
-0.792126
0.797096
0.0200684
-0.0250296
-0.915461
0.920422
0.0304789
-0.0350072
-1.05258
1.05711
0.0396788
-0.0433956
-1.20285
1.20657
0.0465463
-0.0484
-1.36579
1.36765
0.0490106
-0.0481272
-1.53901
1.53812
0.0454967
-0.041619
-1.44647
1.44259
0.0372522
-0.0320748
-1.14462
1.13945
0.0274393
-0.022068
-0.914806
0.909435
0.0173826
-0.0126598
-0.736661
0.731938
0.00856005
-0.00450364
-0.596728
0.592671
0.00132034
0.00159041
-0.483822
0.480911
-0.00324227
0.00430722
-0.381907
0.380842
-0.00458627
0.00371407
-0.265364
0.266236
-0.00260763
0.00142116
-0.132117
0.133304
-0.000588998
-0.0207883
0.0213773
-0.079245
0.0775142
0.00173075
-0.00701024
0.00770266
-0.436695
0.436003
-0.00641842
0.00422904
-0.582231
0.584421
-0.000130307
-0.00403125
-0.690706
0.694868
0.00889521
-0.0132141
-0.801885
0.806204
0.0180614
-0.0225181
-0.925451
0.929907
0.027756
-0.0319575
-1.06174
1.06594
0.036232
-0.0398833
-1.21019
1.21384
0.0433592
-0.0452718
-1.36966
1.37158
0.0461979
-0.045552
-1.53706
1.53641
0.0436172
-0.0400124
-1.43868
1.43507
0.0363033
-0.0318434
-1.13429
1.12983
0.0276122
-0.0229937
-0.90427
0.899652
0.0187761
-0.0143892
-0.72709
0.722704
0.0109424
-0.00721426
-0.588393
0.584665
0.00420465
-0.00164837
-0.476974
0.474418
-0.000129774
0.00143053
-0.377465
0.376165
-0.00195616
0.00182428
-0.263413
0.263545
-0.00138095
0.000832755
-0.131472
0.13202
-0.000408963
-0.0207349
0.0211439
-0.0785001
0.077135
0.00136514
-0.00569962
0.00647175
-0.439038
0.438266
-0.00524436
0.00303632
-0.588864
0.591072
0.000718902
-0.00445689
-0.698843
0.702581
0.00867024
-0.0128615
-0.81064
0.814831
0.0173808
-0.0219997
-0.934269
0.938888
0.0265821
-0.0306582
-1.0703
1.07438
0.0351315
-0.0386409
-1.21744
1.22095
0.0417857
-0.0442394
-1.37349
1.37595
0.0455157
-0.0453076
-1.53596
1.53575
0.0436783
-0.0407455
-1.43175
1.42882
0.0374205
-0.0333146
-1.12512
1.12101
0.029454
-0.0251211
-0.894949
0.890616
0.0211795
-0.0171982
-0.718352
0.71437
0.0136507
-0.0101639
-0.580675
0.577188
0.0073556
-0.00463031
-0.470856
0.468131
0.00265923
-0.00132185
-0.372759
0.371422
0.000375174
0.000224372
-0.260555
0.259956
-0.000438718
0.000423041
-0.129848
0.129864
-0.000291684
-0.0203753
0.020667
-0.078316
0.0771654
0.00115061
-0.00428857
0.0048485
-0.441217
0.440657
-0.00382143
0.00154707
-0.594906
0.59718
0.00190539
-0.00548743
-0.70643
0.710012
0.00954245
-0.0133689
-0.818962
0.822789
0.0180266
-0.0219188
-0.943036
0.946929
0.0265025
-0.0304421
-1.07867
1.08261
0.0348561
-0.0386085
-1.2245
1.22826
0.0421008
-0.0444254
-1.37822
1.38055
0.0461347
-0.0464162
-1.53557
1.53585
0.0454696
-0.0428513
-1.42582
1.4232
0.0398916
-0.036048
-1.11697
1.11312
0.0324024
-0.0281629
-0.886035
0.881795
0.0244109
-0.0203656
-0.710091
0.706046
0.0168454
-0.0132821
-0.57335
0.569786
0.010288
-0.00761961
-0.46461
0.461941
0.00537673
-0.00364707
-0.367812
0.366082
0.00227148
-0.00119365
-0.256813
0.255735
0.000462101
9.08815e-05
-0.127395
0.126842
-0.000193472
-0.0197547
0.0199482
-0.0783998
0.0775772
0.000822569
-0.0030713
0.00319558
-0.443577
0.443452
-0.00237666
7.88873e-05
-0.600223
0.60252
0.00311901
-0.00656424
-0.713517
0.716962
0.0104463
-0.0144034
-0.826599
0.830556
0.01849
-0.0225484
-0.951083
0.955142
0.0271161
-0.0308803
-1.08701
1.09078
0.0354151
-0.0391641
-1.23188
1.23563
0.0427726
-0.0456744
-1.38333
1.38623
0.0479343
-0.0485575
-1.53625
1.53687
0.0478819
-0.0459033
-1.42073
1.41875
0.0433465
-0.0396718
-1.10907
1.1054
0.0360704
-0.0320995
-0.877364
0.873393
0.0280326
-0.0240875
-0.701666
0.697721
0.0204859
-0.0167145
-0.566057
0.562286
0.0136916
-0.0106528
-0.458194
0.455155
0.00820983
-0.00592155
-0.362569
0.360281
0.00427951
-0.00270967
-0.252344
0.250774
0.00134093
-0.000291057
-0.124261
0.123211
-9.24757e-05
-0.0189154
0.0190079
-0.0788759
0.0782033
0.000672652
-0.0020899
0.00220885
-0.446134
0.446015
-0.000865664
-0.00127558
-0.605527
0.607668
0.00452166
-0.00780391
-0.720112
0.723394
0.0115272
-0.0151052
-0.834288
0.837866
0.0193133
-0.0230742
-0.959256
0.963017
0.027602
-0.0317988
-1.09503
1.09922
0.0360153
-0.0401156
-1.23947
1.24357
0.0441762
-0.0472203
-1.3891
1.39215
0.0499115
-0.0513499
-1.53778
1.53921
0.0511279
-0.0497068
-1.41665
1.41523
0.0472396
-0.0438213
-1.10165
1.09823
0.0404114
-0.0363682
-0.868828
0.864785
0.0324167
-0.028294
-0.693168
0.689046
0.0245398
-0.0204796
-0.558225
0.554164
0.0171198
-0.013876
-0.451408
0.448164
0.0109827
-0.00832658
-0.356564
0.353908
0.00621833
-0.00413724
-0.247038
0.244957
0.00232901
-0.000774859
-0.120446
0.118892
6.48631e-05
-0.0179057
0.0178409
-0.0795952
0.0790746
0.000520638
-0.00106714
0.000942258
-0.448843
0.448968
0.000246343
-0.00262172
-0.610442
0.612818
0.00572644
-0.00883028
-0.726427
0.729531
0.0126157
-0.0160406
-0.841485
0.84491
0.020096
-0.0239725
-0.967281
0.971157
0.0284072
-0.0325745
-1.10332
1.10749
0.0370143
-0.0411591
-1.24765
1.25179
0.0454357
-0.0492488
-1.39554
1.39935
0.0524332
-0.0542182
-1.54068
1.54246
0.0547102
-0.0536134
-1.41375
1.41265
0.0516368
-0.048597
-1.09472
1.09168
0.0450701
-0.0410041
-0.860224
0.856158
0.0370019
-0.0326056