/*--------------------------------*- C++ -*----------------------------------*\
| =========                 |                                                 |
| \\      /  F ield         | OpenFOAM: The Open Source CFD Toolbox           |
|  \\    /   O peration     | Version:  4.0                                   |
|   \\  /    A nd           | Web:      www.OpenFOAM.org                      |
|    \\/     M anipulation  |                                                 |
\*---------------------------------------------------------------------------*/
FoamFile
{
    version     2.0;
    format      ascii;
    class       surfaceScalarField;
    location    "28";
    object      phi;
}
// * * * * * * * * * * * * * * * * * * * * * * * * * * * * * * * * * * * * * //

dimensions      [0 3 -1 0 0 0 0];

internalField   nonuniform List<scalar> 
17370
(
-0.0916071
0.096007
0.284611
-0.0775906
0.0594141
0.364952
-0.0430357
0.0316162
0.427588
-0.0223113
0.0162567
0.505306
-0.0116596
0.0087806
0.602281
-0.00656368
0.00507621
0.720545
-0.00384213
0.00297017
0.863778
-0.00221124
0.00164734
1.03601
-0.00113081
0.000721037
1.24291
-0.000317535
-6.47357e-05
1.49157
0.000444464
-0.000854434
1.4916
0.0012607
-0.00177009
1.2432
0.00232634
-0.00307627
1.03639
0.00393948
-0.00516376
0.864131
0.00664244
-0.00884932
0.721264
0.0117176
-0.0163007
0.603798
0.0223418
-0.0316326
0.50873
0.0430377
-0.0594075
0.432538
0.0775865
-0.0960032
0.365192
0.0916175
0.197393
-0.127087
0.0880183
0.0390688
-0.36435
0.354024
-0.0714779
0.0818039
-0.446654
0.454246
-0.0791677
0.071576
-0.521009
0.529108
-0.0637263
0.0556273
-0.612986
0.620759
-0.0482383
0.0404653
-0.727158
0.733681
-0.03385
0.0273274
-0.867575
0.872416
-0.0221263
0.0172851
-1.03856
1.04187
-0.0136038
0.0102885
-1.24471
1.24709
-0.00776044
0.00537949
-1.49283
1.49482
-0.00343819
0.00144917
-1.49269
1.49449
0.00035317
-0.00215678
-1.2441
1.24602
0.00412055
-0.0060319
-1.0376
1.04009
0.00837413
-0.0108642
-0.866188
0.86983
0.0141365
-0.0177776
-0.724603
0.729764
0.0225748
-0.0277361
-0.609073
0.615651
0.0342165
-0.040795
-0.515128
0.522478
0.0485284
-0.0558787
-0.439881
0.447676
0.0639217
-0.0717171
-0.374716
0.377366
0.0792307
-0.0818805
-0.256914
0.224467
0.0715378
-0.0390907
-0.0688009
0.0591884
0.00961249
-0.0521136
0.0589485
-0.374831
0.367996
-0.0581044
0.0542665
-0.453937
0.457775
-0.0487828
0.0442259
-0.527602
0.532159
-0.0396764
0.0357783
-0.620779
0.624677
-0.0315641
0.0275758
-0.734639
0.738627
-0.0232376
0.0193765
-0.87394
0.877801
-0.015369
0.0119494
-1.04334
1.04676
-0.0084721
0.00547399
-1.24862
1.25162
-0.00229912
-0.000658659
-1.49691
1.49986
0.00360166
-0.00673675
-1.49739
1.50053
0.00967859
-0.0130825
-1.25007
1.25347
0.01643
-0.0203553
-1.04567
1.0496
0.0241409
-0.0283983
-0.877163
0.88142
0.032316
-0.0364556
-0.739006
0.743146
0.0402895
-0.0447762
-0.625996
0.630483
0.0492823
-0.0547175
-0.535041
0.540476
0.0585004
-0.0592815
-0.458106
0.458887
0.0523583
-0.0320122
-0.336812
0.316466
0.00965634
-0.0686941
0.0590378
-0.0533979
0.0492874
0.00411054
-0.0332421
0.0436676
-0.358543
0.348118
-0.047344
0.046757
-0.459559
0.460146
-0.0438262
0.040609
-0.536104
0.539321
-0.0369265
0.0335704
-0.62836
0.631716
-0.0299442
0.026724
-0.741993
0.745213
-0.0233072
0.0201547
-0.881282
0.884434
-0.0166212
0.0133226
-1.05017
1.05347
-0.00968055
0.00632425
-1.25486
1.25822
-0.00258551
-0.000984591
-1.5032
1.50677
0.0045332
-0.00821135
-1.50401
1.50769
0.0114847
-0.0150185
-1.25702
1.26055
0.0182085
-0.0216185
-1.05329
1.0567
0.0246597
-0.0279597
-0.885035
0.888335
0.0310772
-0.0345965
-0.746849
0.750368
0.0378619
-0.0414524
-0.634622
0.638212
0.0445919
-0.0474364
-0.544636
0.547481
0.047935
-0.0441373
-0.45703
0.453232
0.033565
-0.0163153
-0.297197
0.279948
0.00415903
-0.0532045
0.0490455
-0.0461173
0.0435648
0.00255244
-0.023024
0.0333673
-0.33752
0.327177
-0.0391026
0.0400611
-0.459882
0.458923
-0.0388252
0.0365162
-0.541957
0.544266
-0.0338937
0.0313643
-0.634653
0.637182
-0.0284063
0.0255835
-0.748278
0.751101
-0.0223849
0.019416
-0.887486
0.890455
-0.0161193
0.0130415
-1.05663
1.05971
-0.00955344
0.00622089
-1.26157
1.26491
-0.00238419
-0.00134887
-1.51045
1.51419
0.00505178
-0.00880114
-1.51144
1.51519
0.0120203
-0.0153633
-1.264
1.26735
0.0182987
-0.0214347
-1.05992
1.06306
0.0242595
-0.0273062
-0.891548
0.894594
0.0299925
-0.0328048
-0.753568
0.75638
0.0352082
-0.0377045
-0.641184
0.64368
0.0399098
-0.0410128
-0.54934
0.550443
0.0399188
-0.0339891
-0.448157
0.442227
0.0234346
-0.0102853
-0.264837
0.251688
0.00261232
-0.0458226
0.0432103
-0.0414502
0.0396572
0.00179307
-0.0168893
0.026151
-0.31732
0.308058
-0.0327275
0.0348344
-0.457352
0.455245
-0.0343891
0.0326828
-0.546263
0.547969
-0.03045
0.0283276
-0.639451
0.641573
-0.0259192
0.0235977
-0.753667
0.755988
-0.0208747
0.0182253
-0.89329
0.895939
-0.0151513
0.0122158
-1.06272
1.06565
-0.0088512
0.00562485
-1.26817
1.2714
-0.00187783
-0.00178699
-1.5179
1.52157
0.00541394
-0.00904555
-1.5189
1.52253
0.0121202
-0.0152927
-1.2706
1.27377
0.0180393
-0.0208977
-1.06608
1.06893
0.0233525
-0.0258718
-0.897388
0.899908
0.0280171
-0.0302434
-0.758843
0.76107
0.0322078
-0.0342802
-0.645923
0.647996
0.0358388
-0.0361051
-0.551059
0.551325
0.033793
-0.0269363
-0.435734
0.428877
0.017396
-0.00735054
-0.240231
0.230185
0.00186595
-0.0410315
0.0391655
-0.0381143
0.036776
0.00133829
-0.0128291
0.0207712
-0.299448
0.291506
-0.0275015
0.0304183
-0.452687
0.44977
-0.0306421
0.0295413
-0.549395
0.550495
-0.0275718
0.0256726
-0.643599
0.645498
-0.0235001
0.0214135
-0.758184
0.760271
-0.0189929
0.0166233
-0.89843
0.9008
-0.0138219
0.0110742
-1.06848
1.07122
-0.00786521
0.00476847
-1.27454
1.27764
-0.00118232
-0.00230581
-1.52513
1.52862
0.00574369
-0.00917772
-1.52608
1.52951
0.0120725
-0.0150269
-1.27684
1.2798
0.0175271
-0.0200555
-1.07162
1.07415
0.0221879
-0.0243632
-0.902211
0.904386
0.0262322
-0.0281735
-0.763144
0.765086
0.0298719
-0.0316438
-0.649916
0.651688
0.0325295
-0.0320574
-0.551222
0.55075
0.0288518
-0.021744
-0.421824
0.414716
0.0134493
-0.00560002
-0.221334
0.213484
0.00142722
-0.0375449
0.0361177
-0.0356111
0.0345907
0.00102042
-0.00992755
0.0165932
-0.284217
0.277551
-0.0230172
0.0263599
-0.446596
0.443254
-0.0271468
0.0264886
-0.55133
0.551988
-0.0247822
0.0230609
-0.647307
0.649028
-0.0210819
0.0191724
-0.762297
0.764206
-0.0169416
0.0147542
-0.903091
0.905279
-0.0121813
0.00965654
-1.07383
1.07635
-0.00668851
0.00378296
-1.28061
1.28352
-0.000378226
-0.00294858
-1.53202
1.53535
0.00621118
-0.00941736
-1.53286
1.53606
0.0120649
-0.0147082
-1.28261
1.28525
0.0169139
-0.0191301
-1.07652
1.07874
0.0210049
-0.0229165
-0.90643
0.908342
0.0245549
-0.0262533
-0.76689
0.768588
0.027729
-0.0291713
-0.653304
0.654746
0.0295638
-0.0284332
-0.549936
0.548806
0.0247001
-0.017786
-0.40767
0.400755
0.0106825
-0.00441144
-0.206492
0.200221
0.00112849
-0.0348589
0.0337304
-0.0337003
0.0329211
0.000779242
-0.00771912
0.0132404
-0.271478
0.265957
-0.0191216
0.0226255
-0.439814
0.43631
-0.0238584
0.0234195
-0.552555
0.552994
-0.0219548
0.020332
-0.650717
0.65234
-0.0184686
0.0167022
-0.766065
0.767832
-0.0146597
0.0126552
-0.907362
0.909366
-0.0102782
0.00793664
-1.07872
1.08106
-0.0051822
0.00248995
-1.28627
1.28896
0.000657634
-0.00372193
-1.53854
1.54161
0.00670619
-0.00961547
-1.53915
1.54206
0.0119846
-0.0143185
-1.28775
1.29008
0.0162487
-0.0181734
-1.0808
1.08273
0.0197948
-0.0214513
-0.9101
0.911757
0.0228872
-0.0244079
-0.770165
0.771685
0.0257227
-0.0268389
-0.656034
0.657151
0.0269177
-0.025213
-0.547397
0.545692
0.0211927
-0.0146929
-0.394039
0.387539
0.00863591
-0.00354608
-0.194591
0.189501
0.000910837
-0.0327257
0.0318149
-0.0322435
0.0316535
0.000590008
-0.00596467
0.0104686
-0.26096
0.256456
-0.0156649
0.0191282
-0.432804
0.429341
-0.0207042
0.0205522
-0.553298
0.55345
-0.0194075
0.0179357
-0.653911
0.655382
-0.0162112
0.0145503
-0.769588
0.771249
-0.012603
0.010678
-0.911314
0.913239
-0.00839907
0.00617283
-1.08328
1.08551
-0.00357727
0.00106616
-1.29151
1.29402
0.00184456
-0.00464996
-1.5445
1.5473
0.00735857
-0.00997569
-1.54484
1.54746
0.0120929
-0.014177
-1.29233
1.29441
0.015896
-0.0176015
-1.08456
1.08627
0.0190314
-0.0204887
-0.91328
0.914738
0.0217417
-0.0230481
-0.773072
0.774379
0.0241558
-0.0248384
-0.658068
0.658751
0.0245296
-0.0223326
-0.543754
0.541557
0.0182057
-0.0122394
-0.381308
0.375342
0.00708155
-0.00290126
-0.184904
0.180723
0.000751208
-0.0309987
0.0302475
-0.0311484
0.03072
0.000428475
-0.00447822
0.00805736
-0.252432
0.248853
-0.012471
0.0156809
-0.425991
0.422781
-0.017386
0.0174358
-0.55349
0.55344
-0.0165407
0.0151914
-0.656799
0.658148
-0.0135808
0.0120173
-0.77292
0.774483
-0.0101801
0.00836389
-0.915104
0.91692
-0.00622538
0.00414968
-1.08759
1.08967
-0.00174258
-0.000572727
-1.29639
1.2987
0.00324904
-0.00582072
-1.54996
1.55253
0.00827122
-0.0105888
-1.54994
1.55225
0.0124276
-0.0142057
-1.29638
1.29815
0.0156546
-0.0170876
-1.08787
1.0893
0.018274
-0.0194769
-0.916084
0.917287
0.0205191
-0.0216035
-0.775514
0.776599
0.022488
-0.0227757
-0.659207
0.659494
0.0221226
-0.0196143
-0.53922
0.536711
0.0155696
-0.0102106
-0.3697
0.364341
0.0058375
-0.00239163
-0.176945
0.173499
0.000625826
-0.0295726
0.0289468
-0.0303656
0.0300802
0.000285439
-0.00316451
0.00588755
-0.245715
0.242992
-0.00947721
0.0122954
-0.419763
0.416945
-0.0139556
0.0141013
-0.553344
0.553198
-0.0132797
0.0120156
-0.659497
0.660761
-0.0104909
0.00905081
-0.776062
0.777502
-0.00738994
0.00574701
-0.918606
0.920249
-0.00380092
0.00189873
-1.09156
1.09347
0.000316776
-0.00246039
-1.30087
1.30301
0.00492046
-0.00724223
-1.55495
1.55727
0.0094178
-0.0114289
-1.55443
1.55644
0.012969
-0.0143903
-1.2998
1.30122
0.0154978
-0.0165344
-1.09056
1.0916
0.0173757
-0.0182469
-0.918323
0.919194
0.0190614
-0.0199643
-0.777508
0.77841
0.0206476
-0.0207388
-0.659683
0.659774
0.0198078
-0.0171283
-0.53416
0.531481
0.0132701
-0.00852269
-0.359321
0.354574
0.00483283
-0.00199035
-0.170388
0.167546
0.000530336
-0.028385
0.0278546
-0.0298581
0.0296997
0.000158339
-0.00195356
0.00385664
-0.240686
0.238783
-0.0065971
0.00895963
-0.414355
0.411992
-0.0105494
0.0108521
-0.552999
0.552696
-0.0102213
0.00916928
-0.661985
0.663037
-0.0077946
0.0064317
-0.778958
0.780321
-0.00479803
0.00317016
-0.921807
0.923435
-0.0012546
-0.000592734
-1.09524
1.09709
0.00271113
-0.00471532
-1.30502
1.30703
0.00695482
-0.00900989
-1.55942
1.56147
0.01089
-0.0125953
-1.5583
1.56
0.0138732
-0.0150436
-1.30255
1.30372
0.0159369
-0.016769
-1.09256
1.09339
0.0174299
-0.018052
-0.919929
0.920551
0.018543
-0.019048
-0.77907
0.779575
0.0193283
-0.0190313
-0.659674
0.659377
0.0177238
-0.0148553
-0.528759
0.52589
0.0112216
-0.00708037
-0.35017
0.346029
0.00400124
-0.00167025
-0.164994
0.162663
0.000459587
-0.0273766
0.026917
-0.02961
0.0295861
2.3818e-05
-0.000764482
0.00187083
-0.23728
0.236174
-0.00372619
0.00551743
-0.409916
0.408125
-0.00688883
0.00727379
-0.552338
0.551953
-0.00683563
0.00598134
-0.664035
0.664889
-0.00472961
0.00341177
-0.781725
0.783043
-0.00179387
0.000184646
-0.924976
0.926585
0.00168155
-0.00344903
-1.09882
1.10058
0.00545167
-0.00731983
-1.30891
1.31077
0.00938496
-0.0112466
-1.56339
1.56525
0.0128717
-0.0142441
-1.56156
1.56293
0.0151989
-0.0159767
-1.30478
1.30555
0.0165092
-0.0169432
-1.09412
1.09455
0.0172653
-0.0175838
-0.921053
0.921371
0.0178559
-0.0181185
-0.779835
0.780098
0.0180442
-0.0173218
-0.658781
0.658059
0.0156794
-0.0127325
-0.523015
0.520068
0.00939293
-0.00583286
-0.342233
0.338673
0.00328928
-0.00139358
-0.160594
0.158698
0.000396281
-0.026509
0.0261127
-0.0296336
0.0297548
-0.000121194
0.000328463
3.54313e-05
-0.235446
0.235082
-0.00101787
0.00215784
-0.40669
0.40555
-0.00310441
0.00332529
-0.551674
0.551453
-0.00284304
0.00202743
-0.665801
0.666616
-0.000850941
-0.000389246
-0.784366
0.785606
0.00191627
-0.00343653
-0.928026
0.929547
0.00520201
-0.00688098
-1.10218
1.10386
0.00876364
-0.0104942
-1.31248
1.31421
0.0123618
-0.0139785
-1.56694
1.56856
0.0153174
-0.0163428
-1.56413
1.56516
0.0169502
-0.0173547
-1.30619
1.30659
0.0175297
-0.017588
-1.09489
1.09495
0.0175663
-0.0174912
-0.921466
0.92139
0.0173789
-0.0172002
-0.779966
0.779787
0.0167756
-0.0157747
-0.657155
0.656154
0.0139759
-0.0110675
-0.517251
0.514343
0.00801604
-0.00493397
-0.335449
0.332367
0.00279217
-0.00119697
-0.157025
0.15543
0.000344258
-0.0257722
0.0254279
-0.0299377
0.0301641
-0.000226388
0.00117174
-0.00137922
-0.235046
0.235254
0.00114493
-0.000600426
-0.404746
0.404201
5.3681e-05
-1.04982e-05
-0.551389
0.551346
0.000560882
-0.0014026
-0.667575
0.668417
0.00259426
-0.00385269
-0.786876
0.788134
0.00539811
-0.00692936
-0.930898
0.932429
0.00871595
-0.0104185
-1.10539
1.10709
0.012336
-0.0140769
-1.31584
1.31758
0.0158961
-0.0173818
-1.57004
1.57153
0.018521
-0.019321
-1.56606
1.56686
0.0196786
-0.0197639
-1.30691
1.307
0.0196377
-0.0193201
-1.09485
1.09453
0.0189265
-0.0184719
-0.92111
0.920655
0.0180774
-0.0176432
-0.77934
0.778906
0.0169015
-0.0155235
-0.654962
0.653584
0.0134496
-0.0104448
-0.511517
0.508512
0.00752981
-0.00470036
-0.329521
0.326692
0.00271888
-0.00118969
-0.153948
0.152419
0.000345591
-0.0251175
0.0247719
-0.0304419
0.0307645
-0.00032255
0.00185783
-0.00257249
-0.235707
0.236422
0.00301439
-0.00307189
-0.40398
0.404037
0.00293073
-0.00302871
-0.551476
0.551574
0.00358718
-0.00445501
-0.669426
0.670293
0.00570181
-0.00707546
-0.789443
0.790816
0.0088119
-0.0105517
-0.933847
0.935587
0.0125666
-0.014465
-1.10872
1.11062
0.0165498
-0.0183905
-1.31927
1.32111
0.0202336
-0.0216532
-1.57292
1.57434
0.0226385
-0.0231966
-1.56753
1.56809
0.0233177
-0.0231124
-1.30697
1.30676
0.0227129
-0.0221085
-1.09406
1.09346
0.0214622
-0.0207002
-0.919974
0.919212
0.0199903
-0.0191419
-0.778136
0.777288
0.0179857
-0.0161675
-0.652036
0.650218
0.0138081
-0.0106866
-0.505617
0.502496
0.00781382
-0.0050253
-0.324022
0.321234
0.00298436
-0.00132878
-0.150915
0.149259
0.000388087
-0.0244448
0.0240567
-0.0311396
0.0315628
-0.000423204
0.0025388
-0.00368899
-0.23737
0.23852
0.00475052
-0.00543276
-0.404413
0.405095
0.00591795
-0.00634862
-0.551971
0.552402
0.00704845
-0.00802694
-0.671363
0.672342
0.00947253
-0.0111088
-0.79227
0.793907
0.0131831
-0.0152191
-0.937252
0.939288
0.0175306
-0.019644
-1.11245
1.11457
0.0218935
-0.0238057
-1.32287
1.32478
0.0256401
-0.0269567
-1.57564
1.57696
0.0277393
-0.0279735
-1.56847
1.5687
0.0277653
-0.027188
-1.30641
1.30584
0.0264536
-0.0255116
-1.09267
1.09173
0.0245765
-0.0235066
-0.918215
0.917145
0.0224865
-0.0212363
-0.776088
0.774838
0.0197416
-0.0175622
-0.648289
0.64611
0.0149848
-0.0117548
-0.499524
0.496294
0.00878387
-0.00578332
-0.31851
0.31551
0.00348885
-0.0015688
-0.147561
0.145641
0.000460984
-0.023675
0.0232141
-0.0320505
0.0325992
-0.000548677
0.00334316
-0.00494523
-0.239916
0.241518
0.00658872
-0.00789683
-0.406109
0.407417
0.00908095
-0.0101218
-0.55337
0.554411
0.0113881
-0.0128361
-0.673703
0.675151
0.0147511
-0.0167863
-0.795635
0.79767
0.0192309
-0.0215524
-0.941209
0.94353
0.0241119
-0.0263891
-1.11656
1.11884
0.0287372
-0.030649
-1.32655
1.32846
0.0323774
-0.0334736
-1.57809
1.57919
0.0339163
-0.0337105
-1.56869
1.56849
0.033091
-0.032066
-1.30506
1.30403
0.0309362
-0.0295761
-1.09056
1.0892
0.028262
-0.0268036
-0.915748
0.91429
0.0254622
-0.0238773
-0.773249
0.771664
0.0221438
-0.0197694
-0.643921
0.641546
0.0170492
-0.0135849
-0.493239
0.489775
0.0102736
-0.00682781
-0.312481
0.309036
0.00413927
-0.00187109
-0.143652
0.141384
0.000553164
-0.0227606
0.0222074
-0.0332209
0.0339426
-0.000721692
0.00443377
-0.00659509
-0.243391
0.245553
0.0088507
-0.0107084
-0.409078
0.410935
0.0125361
-0.014172
-0.556117
0.557753
0.016107
-0.0181852
-0.677123
0.679201
0.0207533
-0.0232994
-0.799782
0.802328
0.0262253
-0.0289144
-0.945729
0.948418
0.0318049
-0.0343307
-1.12099
1.12352
0.0368802
-0.0388999
-1.33023
1.33225
0.0406103
-0.0415292
-1.58006
1.58098
0.0416579
-0.0410013
-1.56799
1.56733
0.0398649
-0.0382622
-1.30273
1.30112
0.0366226
-0.0347735
-1.08756
1.08571
0.0331318
-0.0313783
-0.912526
0.910773
0.0297663
-0.0279609
-0.769736
0.767931
0.0260306
-0.0233398
-0.63917
0.636479
0.0201733
-0.0160431
-0.486375
0.482245
0.0120973
-0.00801087
-0.305499
0.301412
0.0048586
-0.00220581
-0.139051
0.136398
0.000656205
-0.0216647
0.0210085
-0.0347442
0.0357056
-0.000961387
0.00593242
-0.00885222
-0.248033
0.250952
0.0118701
-0.0142645
-0.413167
0.415562
0.0165307
-0.0185523
-0.560108
0.56213
0.0209431
-0.0235152
-0.681776
0.684348
0.0267095
-0.0298638
-0.804927
0.808081
0.0334114
-0.0366312
-0.951026
0.954246
0.0400942
-0.0431199
-1.126
1.12903
0.0461793
-0.0485862
-1.33424
1.33665
0.0505897
-0.0516274
-1.58179
1.58283
0.0517231
-0.0508926
-1.56647
1.56564
0.0495047
-0.0475342
-1.29925
1.29728
0.045438
-0.0429818
-1.08346
1.081
0.0407214
-0.0383912
-0.908637
0.906307
0.0364813
-0.0342589
-0.765718
0.763495
0.0317996
-0.0282418
-0.63359
0.630032
0.0240841
-0.0188688
-0.477985
0.47277
0.0140837
-0.00930614
-0.29727
0.292493
0.00565977
-0.00257763
-0.1337
0.130618
0.000767352
-0.0203704
0.0196031
-0.0367445
0.0380478
-0.00130329
0.00804759
-0.0120309
-0.254229
0.258213
0.0161061
-0.0191914
-0.418465
0.42155
0.0218748
-0.0241214
-0.564956
0.567203
0.0267316
-0.0296514
-0.687352
0.690272
0.0334025
-0.0371145
-0.811209
0.814921
0.0413621
-0.0453207
-0.957459
0.961418
0.0496384
-0.0534372
-1.13214
1.13594
0.0572725
-0.0602831
-1.33913
1.34214
0.0628065
-0.0641637
-1.58388
1.58523
0.0644161
-0.0635995
-1.56474
1.56393
0.0621244
-0.0599539
-1.29514
1.29297
0.0576218
-0.0548149
-1.07824
1.07543
0.0521213
-0.0491379
-0.90337
0.900387
0.0463335
-0.042826
-0.760449
0.756941
0.038992
-0.0337775
-0.625862
0.620647
0.0282459
-0.021861
-0.467394
0.461009
0.0163016
-0.0108319
-0.287752
0.282282
0.006618
-0.00301859
-0.127493
0.123894
0.000896909
-0.0188536
0.0179567
-0.0394282
0.0412565
-0.00182835
0.0111297
-0.0165995
-0.262597
0.268067
0.0221665
-0.0263292
-0.425521
0.429684
0.0297492
-0.0323602
-0.570528
0.573139
0.0352685
-0.0385197
-0.693602
0.696854
0.042772
-0.0471244
-0.818514
0.822867
0.0522635
-0.0570974
-0.965413
0.970247
0.0623746
-0.0669666
-1.13984
1.14443
0.0715284
-0.0750458
-1.3452
1.34872
0.0779313
-0.0794147
-1.58654
1.58802
0.0795829
-0.0785159
-1.56294
1.56187
0.0767243
-0.0741259
-1.29057
1.28797
0.0713309
-0.0679295
-1.07221
1.06881
0.0645901
-0.0606465
-0.89663
0.892686
0.0565581
-0.0514666
-0.752373
0.747282
0.0460228
-0.039233
-0.61471
0.60792
0.0325903
-0.0252999
-0.454663
0.447373
0.0190116
-0.0127284
-0.276907
0.270623
0.00779658
-0.0035467
-0.120248
0.115998
0.00104664
-0.0170859
0.0160393
-0.0431274
0.0457865
-0.00265907
0.0157623
-0.0232781
-0.273936
0.281452
0.0308216
-0.0364974
-0.435337
0.441013
0.0411458
-0.0446266
-0.577383
0.580864
0.0483661
-0.0523803
-0.700592
0.704606
0.0575559
-0.0628044
-0.827185
0.832433
0.0688967
-0.0745168
-0.97508
0.9807
0.0805081
-0.0855725
-1.14898
1.15404
0.0904292
-0.0939913
-1.35207
1.35563
0.09666
-0.0976864
-1.58916
1.59019
0.0971904
-0.0952802
-1.56035
1.55844
0.092652
-0.0890653
-1.28487
1.28129
0.0853282
-0.0808627
-1.06475
1.06029
0.0764582
-0.0711987
-0.887683
0.882424
0.0658494
-0.0593392
-0.740976
0.734466
0.0527597
-0.0450052
-0.600656
0.592901
0.0376596
-0.0295914
-0.440335
0.432267
0.0224289
-0.0150609
-0.264472
0.257104
0.00919193
-0.00414194
-0.111712
0.106662
0.00120559
-0.0150309
0.0138253
-0.0484222
0.0525214
-0.00409919
0.0231735
-0.0335567
-0.289435
0.299818
0.0437175
-0.0514864
-0.449149
0.456917
0.0579927
-0.0630226
-0.586779
0.591809
0.0684972
-0.0739706
-0.709361
0.714834
0.0804526
-0.0866092
-0.837618
0.843775
0.0934142
-0.0994335
-0.986113
0.992133
0.105575
-0.110522
-1.15874
1.16369
0.114955
-0.117856
-1.35865
1.36155
0.119487
-0.119278
-1.59045
1.59024
0.117385
-0.113926
-1.55569
1.55223
0.109887
-0.104777
-1.27689
1.27178
0.0996875
-0.0937604
-1.05492
1.04899
0.0880529
-0.0814795
-0.875976
0.869402
0.0751318
-0.0677683
-0.726854
0.719491
0.0605835
-0.0522494
-0.584845
0.576511
0.04424
-0.035144
-0.42445
0.415354
0.0267525
-0.0179156
-0.249888
0.241052
0.0108359
-0.00480868
-0.101629
0.0956018
0.0013708
-0.0126777
0.0113069
-0.0563946
0.0635835
-0.00718893
0.0365993
-0.0512533
-0.311274
0.325928
0.0651245
-0.0754874
-0.468558
0.478921
0.0840165
-0.0908962
-0.600008
0.606887
0.0986269
-0.105705
-0.720977
0.728055
0.11334
-0.12005
-0.849684
0.856395
0.126996
-0.132764
-0.997619
1.00339
0.138273
-0.142328
-1.16786
1.17191
0.145486
-0.146923
-1.36347
1.36491
0.146669
-0.144457
-1.58884
1.58663
0.140509
-0.134947
-1.54758
1.54202
0.129103
-0.122171
-1.26567
1.25874
0.11553
-0.108042
-1.04206
1.03457
0.101084
-0.0934096
-0.861655
0.85398
0.0863356
-0.0784445
-0.710979
0.703088
0.0708461
-0.06183
-0.567727
0.558711
0.052798
-0.0421367
-0.406297
0.395636
0.032029
-0.0213209
-0.232407
0.221699
0.012757
-0.00556171
-0.0897685
0.0825732
0.00154084
-0.0100307
0.00848988
-0.0703997
0.0742349
-0.0038351
0.0272728
-0.0399389
-0.343332
0.355998
0.0523139
-0.061759
-0.494444
0.503889
0.0704704
-0.0793267
-0.617339
0.626195
0.089325
-0.0981893
-0.735028
0.743893
0.108158
-0.11711
-0.862349
0.871302
0.126608
-0.134962
-1.00813
1.01648
0.143523
-0.150652
-1.17469
1.18182
0.157376
-0.162234
-1.36491
1.36977
0.165648
-0.166497
-1.58288
1.58372
0.164601
-0.160305
-1.53501
1.53071
0.154657
-0.147037
-1.25069
1.24307
0.139292
-0.129668
-1.02608
1.01646
0.120687
-0.110707
-0.845144
0.835163
0.101644
-0.0916866
-0.693767
0.68381
0.0818433
-0.0700801
-0.548784
0.537021
0.0583717
-0.044442
-0.384634
0.370704
0.0318482
-0.0194802
-0.211109
0.198741
0.0105797
-0.00410557
-0.076042
0.0695679
0.000953581
-0.00721427
0.00626069
-0.0812371
0.0790677
0.00216947
0.00548839
-0.0135624
-0.371637
0.379711
0.0227451
-0.029901
-0.518091
0.525247
0.037805
-0.0456691
-0.636994
0.644858
0.0549515
-0.0633811
-0.752717
0.761147
0.0723657
-0.0805987
-0.879821
0.888054
0.0892674
-0.096535
-1.02453
1.0318
0.104114
-0.109999
-1.18867
1.19455
0.115377
-0.11882
-1.37409
1.37753
0.120377
-0.119545
-1.58333
1.5825
0.115975
-0.110046
-1.52505
1.51912
0.102916
-0.0939559
-1.23447
1.22551
0.0852054
-0.0750916
-1.00613
0.996017
0.0655888
-0.0550914
-0.823542
0.813044
0.0458648
-0.0366396
-0.670455
0.66123
0.0288901
-0.0206545
-0.523016
0.514781
0.0133064
-0.00673531
-0.35606
0.349489
0.00257923
0.000102849
-0.18643
0.183748
-0.00110667
0.0010073
-0.0629866
0.0630859
-0.000469567
-0.00497215
0.00544172
-0.0820458
0.0790709
0.0029749
-0.00308385
-0.00129087
-0.39065
0.395024
0.00728778
-0.0127966
-0.536445
0.541954
0.01932
-0.0262155
-0.65412
0.661016
0.0342838
-0.0416523
-0.769073
0.776442
0.0497169
-0.0569191
-0.895672
0.902875
0.0642367
-0.0706999
-1.03889
1.04535
0.0772083
-0.0823159
-1.19997
1.20507
0.0864954
-0.0888523
-1.38022
1.38258
0.0895674
-0.0878396
-1.58078
1.57905
0.0835481
-0.0770999
-1.51238
1.50593
0.0697851
-0.0610568
-1.21627
1.20754
0.0523607
-0.0427545
-0.985503
0.975896
0.0338637
-0.0241999
-0.802422
0.792759
0.0159718
-0.00776281
-0.649975
0.641766
0.0012792
0.00505514
-0.503952
0.497618
-0.00918962
0.0110745
-0.34068
0.338795
-0.0106753
0.00868747
-0.178714
0.180702
-0.00610165
0.00315382
-0.0622691
0.065217
-0.00105943
-0.00534419
0.00640363
-0.0805365
0.0777375
0.00279903
-0.00619029
0.00424114
-0.403068
0.405017
-0.000630234
-0.00369126
-0.550559
0.55488
0.00953217
-0.0153788
-0.66846
0.674307
0.0223363
-0.0287333
-0.783527
0.789924
0.0356872
-0.0419061
-0.90968
0.915899
0.0485976
-0.0541099
-1.05144
1.05695
0.0598326
-0.063868
-1.20979
1.21383
0.0674239
-0.0693171
-1.38471
1.38661
0.0695026
-0.0672826
-1.5769
1.57468
0.0630928
-0.0569963
-1.499
1.4929
0.050166
-0.0417985
-1.19869
1.19033
0.0339154
-0.0252959
-0.966107
0.957487
0.0172265
-0.00879061
-0.782986
0.77455
0.0012738
0.00586575
-0.631859
0.624719
-0.0112531
0.0155435
-0.489182
0.484892
-0.0176287
0.0172867
-0.333334
0.333676
-0.014875
0.0110312
-0.179941
0.183784
-0.00744256
0.00364744
-0.0668116
0.0706067
-0.00115548
-0.00683419
0.00798967
-0.0789271
0.0765275
0.00239967
-0.00690484
0.0063734
-0.411312
0.411843
-0.00367312
0.000499365
-0.562192
0.565366
0.00444237
-0.0097954
-0.680644
0.685997
0.0157022
-0.0213965
-0.795902
0.801597
0.027482
-0.0329402
-0.9218
0.927258
0.0387478
-0.0437293
-1.06239
1.06737
0.0486505
-0.0524566
-1.21779
1.2216
0.0555788
-0.0571917
-1.3882
1.38981
0.0572442
-0.0551093
-1.57237
1.57024
0.0512389
-0.0455123
-1.48631
1.48059
0.0393619
-0.0320267
-1.18216
1.17483
0.0250619
-0.0173655
-0.948788
0.941091
0.0104396
-0.00312145
-0.765942
0.758624
-0.00315312
0.00918024
-0.616545
0.610517
-0.013538
0.0167954
-0.478103
0.474846
-0.0183239
0.0175455
-0.330175
0.330953
-0.0147376
0.0108376
-0.184582
0.188482
-0.00722039
0.00346783
-0.0726914
0.0764439
-0.00110805
-0.00851231
0.00962035
-0.0775608
0.0755421
0.00201867
-0.00652855
0.00635343
-0.416964
0.417139
-0.00477141
0.0020427
-0.571251
0.57398
0.00262918
-0.00724117
-0.691145
0.695757
0.0123956
-0.017419
-0.806728
0.811751
0.0229066
-0.0278602
-0.932494
0.937448
0.0332669
-0.0377197
-1.07215
1.07661
0.0422569
-0.0457952
-1.22519
1.22873
0.0486728
-0.050179
-1.39125
1.39276
0.050252
-0.0486853
-1.56812
1.56656
0.0451886
-0.0402293
-1.47462
1.46966
0.034767
-0.0282859
-1.16758
1.1611
0.0223928
-0.015586
-0.933524
0.926717
0.00957787
-0.00343568
-0.751338
0.745196
-0.00184488
0.00686226
-0.603864
0.598847
-0.0104596
0.0131725
-0.469361
0.466648
-0.0140772
0.0134657
-0.328525
0.329137
-0.0114057
0.00822834
-0.189069
0.192246
-0.00538257
0.00262081
-0.0780106
0.0807724
-0.000851995
-0.0100134
0.0108654
-0.0765992
0.0750497
0.00154956
-0.00548917
0.00553648
-0.421205
0.421158
-0.00410221
0.0019508
-0.579345
0.581496
0.00229652
-0.00649804
-0.700373
0.704575
0.0114514
-0.015853
-0.816555
0.820956
0.0207546
-0.0252261
-0.942479
0.94695
0.0304479
-0.0345891
-1.08116
1.0853
0.0387364
-0.0422077
-1.23216
1.23563
0.0453916
-0.0469308
-1.39436
1.3959
0.0473087
-0.0459883
-1.56472
1.5634
0.0432415
-0.0386482
-1.46463
1.46004
0.0339834
-0.0284377
-1.15466
1.14912
0.0231873
-0.0174392
-0.920184
0.914436
0.0121952
-0.00673545
-0.738929
0.733469
0.00242862
0.00196321
-0.593205
0.588813
-0.00514306
0.00731187
-0.462072
0.459903
-0.00824466
0.00810317
-0.327013
0.327155
-0.00677365
0.00471007
-0.192093
0.194157
-0.00297895
0.00145261
-0.0813513
0.0828776
-0.000499256
-0.0109811
0.0114803
-0.0761688
0.0749649
0.0012039
-0.00433163
0.00443281
-0.424639
0.424538
-0.00301071
0.000929732
-0.586492
0.588573
0.00301339
-0.00681592
-0.70877
0.712573
0.0111323
-0.0154317
-0.82544
0.82974
0.0200326
-0.0246998
-0.951328
0.955995
0.0292868
-0.0333253
-1.0896
1.09364
0.037694
-0.0410303
-1.23905
1.24239
0.0438839
-0.0459738
-1.39743
1.39952
0.0467207
-0.0458978
-1.56221
1.56139
0.0435558
-0.0397861
-1.45574
1.45197
0.0356698
-0.0307123
-1.14336
1.1384
0.0261062
-0.0209838
-0.90868
0.903558
0.0163442
-0.0116488
-0.728129
0.723433
0.00754441
-0.00366432
-0.58393
0.580049
0.000801192
0.00149354
-0.455923
0.453628
-0.00262479
0.00281645
-0.324715
0.324523
-0.00250902
0.00180301
-0.192981
0.193687
-0.00118359
0.000627887
-0.0825516
0.0831073
-0.000266667
-0.0113286
0.0115953
-0.0762693
0.0752684
0.00100092
-0.00303476
0.00291416
-0.427816
0.427936
-0.00166676
-0.000482939
-0.593066
0.595216
0.00414098
-0.00784336
-0.716648
0.720351
0.0120239
-0.0159694
-0.833944
0.83789
0.0207324
-0.0246815
-0.960181
0.96413
0.0292956
-0.0332189
-1.09789
1.10181
0.0375539
-0.0411636
-1.24577
1.24938
0.0444026
-0.0463936
-1.40143
1.40342
0.047617
-0.0473274
-1.56056
1.56027
0.0457447
-0.0424146
-1.44813
1.4448
0.0388303
-0.0343462
-1.13357
1.12909
0.0301631
-0.0253865
-0.89823
0.893454
0.0211985
-0.0167419
-0.718493
0.714037
0.0129257
-0.0091903
-0.575661
0.571925
0.0062705
-0.00400975
-0.449838
0.447577
0.00246821
-0.00167648
-0.321529
0.320737
0.00102052
-0.000559078
-0.191778
0.191316
0.000212841
8.52068e-05
-0.0818787
0.0815806
-0.000123303
-0.0111854
0.0113087
-0.0766408
0.0759497
0.000691147
-0.00189538
0.00140075
-0.431171
0.431666
-0.000342379
-0.00208947
-0.598847
0.601278
0.00538049
-0.00896021
-0.724058
0.727638
0.0129963
-0.0170947
-0.841792
0.84589
0.0212996
-0.0254418
-0.968346
0.972488
0.0300652
-0.0338339
-1.1062
1.10997
0.0383182
-0.0419485
-1.25284
1.25647
0.0453283
-0.047923
-1.40587
1.40846
0.0497285
-0.0498155
-1.56006
1.56015
0.0485588
-0.0459735
-1.44165
1.43906
0.0429244
-0.0387801
-1.12446
1.12031
0.0348108
-0.0305065
-0.888572
0.884267
0.0261997
-0.0220708
-0.709292
0.705163
0.0183767
-0.0146035
-0.567904
0.56413
0.0117306
-0.00906283
-0.443644
0.440976
0.0071435
-0.00550103
-0.3174
0.315758
0.0041483
-0.00266884
-0.188725
0.187246
0.00138589
-0.000398511
-0.079705
0.0787177
3.67898e-06
-0.010655
0.0106513
-0.0774121
0.0768659
0.000546192
-0.000951348
0.00055084
-0.434751
0.435152
0.00117513
-0.00341229
-0.604819
0.607056
0.00683111
-0.0102851
-0.730992
0.734446
0.0141852
-0.0179166
-0.849743
0.853474
0.0222716
-0.0261375
-0.976692
0.980558
0.0307461
-0.034976
-1.11422
1.11845
0.0391554
-0.0431576
-1.26019
1.26419
0.0470126
-0.0497652
-1.411
1.41376
0.0520149
-0.0529385
-1.56048
1.56141
0.0521707
-0.0502182
-1.43635
1.4344
0.0473585
-0.0436065
-1.11615
1.1124
0.0399548
-0.0357059
-0.879501
0.875252
0.0316503
-0.0275054
-0.70048
0.696335
0.0238163
-0.0199044
-0.559945
0.556034
0.0167443
-0.0137809
-0.437068
0.434104
0.0111941
-0.00882464
-0.311908
0.309538
0.0066792
-0.00437337
-0.183897
0.181591
0.00247129
-0.000921449
-0.0763664
0.0748165
0.000169695
-0.0098912
0.00972151
-0.0784265
0.0780495
0.000377005
1.12702e-05
-0.000682624
-0.438419
0.439091
0.00229476
-0.00478805
-0.610387
0.612881
0.00811398
-0.0114125
-0.737699
0.740997
0.0153985
-0.0189966
-0.857243
0.860841
0.0232212
-0.0272269
-0.984937
0.988943
0.0317659
-0.035988
-1.12257
1.1268
0.0404176
-0.0444819
-1.26815
1.27222
0.0485671
-0.0521025
-1.41683
1.42036
0.0548502
-0.0561209
-1.5623
1.56357
0.0560736
-0.0544558
-1.43234
1.43072
0.0521227
-0.0488279
-1.10854
1.10524
0.0451583
-0.0410136
-0.87065
0.866506
0.0370192
-0.0327202
-0.691754
0.687455
0.0290428
-0.0249415
-0.551978
0.547877
0.021583
-0.0180649
-0.429923