/*--------------------------------*- C++ -*----------------------------------*\
| =========                 |                                                 |
| \\      /  F ield         | OpenFOAM: The Open Source CFD Toolbox           |
|  \\    /   O peration     | Version:  4.0                                   |
|   \\  /    A nd           | Web:      www.OpenFOAM.org                      |
|    \\/     M anipulation  |                                                 |
\*---------------------------------------------------------------------------*/
FoamFile
{
    version     2.0;
    format      ascii;
    class       volVectorField;
    location    "28";
    object      U;
}
// * * * * * * * * * * * * * * * * * * * * * * * * * * * * * * * * * * * * * //

dimensions      [0 1 -1 0 0 0 0];

internalField   nonuniform List<vector> 
8800
(
(0.980153 -0.0915211 0)
(1.00234 -0.0587238 0)
(0.999609 -0.0321241 0)
(0.999997 -0.0165151 0)
(1.00005 -0.00882742 0)
(1.00002 -0.0050725 0)
(1.00001 -0.00297336 0)
(1 -0.00168586 0)
(1 -0.000809103 0)
(1.00005 -0.000123307 0)
(1 0.000566156 0)
(1.00001 0.00132467 0)
(1.00001 0.00235975 0)
(1.00002 0.00397212 0)
(1.00004 0.00672442 0)
(1.00005 0.012034 0)
(0.999883 0.023086 0)
(0.999076 0.043153 0)
(1.00722 0.0790283 0)
(0.775024 0.0478396 0)
(0.35898 -0.0147488 0)
(1.04649 -0.0724915 0)
(1.08849 -0.0660288 0)
(1.04947 -0.0509212 0)
(1.02553 -0.0376972 0)
(1.01267 -0.0258854 0)
(1.00648 -0.0166954 0)
(1.00356 -0.0102361 0)
(1.00215 -0.00564689 0)
(1.00151 -0.00209703 0)
(1.00139 0.0010825 0)
(1.00175 0.0043733 0)
(1.00271 0.00827207 0)
(1.00473 0.0136071 0)
(1.00897 0.0213009 0)
(1.01799 0.0318029 0)
(1.0359 0.0445964 0)
(1.06752 0.058061 0)
(1.09475 0.0699581 0)
(0.845713 0.0554955 0)
(0.217767 -0.00138076 0)
(1.07567 -0.0506572 0)
(1.09942 -0.0489452 0)
(1.06437 -0.0400337 0)
(1.03981 -0.0325732 0)
(1.02368 -0.0253566 0)
(1.01392 -0.0181665 0)
(1.00844 -0.0116054 0)
(1.0056 -0.00591768 0)
(1.00446 -0.000681274 0)
(1.00479 0.00439849 0)
(1.00665 0.00967621 0)
(1.01058 0.0156603 0)
(1.01789 0.0224459 0)
(1.03052 0.0295786 0)
(1.05057 0.0366928 0)
(1.08019 0.0444901 0)
(1.10582 0.0518387 0)
(0.943476 0.040961 0)
(0.217323 0.0013987 0)
(0.176626 -0.000628152 0)
(1.0194 -0.0354576 0)
(1.10572 -0.0414023 0)
(1.07795 -0.0363801 0)
(1.05234 -0.0303237 0)
(1.03505 -0.0244558 0)
(1.02319 -0.0187206 0)
(1.01542 -0.0128178 0)
(1.01086 -0.00681179 0)
(1.00887 -0.00065943 0)
(1.00943 0.00543223 0)
(1.01253 0.0113284 0)
(1.01849 0.0171039 0)
(1.02809 0.0226976 0)
(1.04234 0.0282722 0)
(1.06324 0.034096 0)
(1.0941 0.0400348 0)
(1.09473 0.0416171 0)
(0.830693 0.0227034 0)
(0.175875 0.000642713 0)
(0.154727 -0.000461828 0)
(0.958182 -0.0256611 0)
(1.10438 -0.0350854 0)
(1.08801 -0.0326597 0)
(1.06108 -0.028185 0)
(1.04297 -0.0232518 0)
(1.03059 -0.0180109 0)
(1.02203 -0.0125572 0)
(1.01651 -0.00675833 0)
(1.0139 -0.000424211 0)
(1.01461 0.00594134 0)
(1.01848 0.0117755 0)
(1.02528 0.0171247 0)
(1.03543 0.0221972 0)
(1.05023 0.0270676 0)
(1.07224 0.0315291 0)
(1.10134 0.0354343 0)
(1.07024 0.0337139 0)
(0.743469 0.0143415 0)
(0.153605 0.000478263 0)
(0.140079 -0.000333115 0)
(0.901268 -0.0192622 0)
(1.09678 -0.0301235 0)
(1.09606 -0.0292257 0)
(1.06868 -0.0254364 0)
(1.04979 -0.0214019 0)
(1.03682 -0.0168535 0)
(1.02786 -0.0117832 0)
(1.02196 -0.00622851 0)
(1.01905 -2.35122e-05 0)
(1.01976 0.00623306 0)
(1.02386 0.0118115 0)
(1.03095 0.0167751 0)
(1.04149 0.0212393 0)
(1.05694 0.0251976 0)
(1.07981 0.0287727 0)
(1.1038 0.0315862 0)
(1.03893 0.0277445 0)
(0.677324 0.0101469 0)
(0.138504 0.000352662 0)
(0.129405 -0.000250922 0)
(0.851599 -0.0147961 0)
(1.08445 -0.0259307 0)
(1.10173 -0.0263006 0)
(1.07543 -0.0230301 0)
(1.05595 -0.0194443 0)
(1.04252 -0.015402 0)
(1.03318 -0.0107296 0)
(1.027 -0.00542642 0)
(1.02387 0.000501033 0)
(1.02452 0.00643441 0)
(1.02869 0.0116771 0)
(1.03596 0.0162269 0)
(1.04684 0.0201397 0)
(1.06276 0.0235399 0)
(1.08614 0.0266189 0)
(1.1033 0.0285071 0)
(1.00497 0.0230126 0)
(0.626248 0.0076767 0)
(0.12728 0.000274888 0)
(0.121335 -0.000191425 0)
(0.809543 -0.0115226 0)
(1.06916 -0.0221613 0)
(1.10502 -0.0234733 0)
(1.08142 -0.0206998 0)
(1.06156 -0.0174121 0)
(1.04787 -0.0137201 0)
(1.03822 -0.00943748 0)
(1.03175 -0.0045026 0)
(1.02842 0.00112525 0)
(1.02894 0.00674938 0)
(1.03312 0.0115615 0)
(1.04055 0.0155929 0)
(1.05161 0.018999 0)
(1.06776 0.0219716 0)
(1.09146 0.0247093 0)
(1.09996 0.02573 0)
(0.971029 0.0191865 0)
(0.58587 0.00602565 0)
(0.118542 0.000220683 0)
(0.115167 -0.000145154 0)
(0.774499 -0.00900544 0)
(1.0526 -0.0187595 0)
(1.10727 -0.0207448 0)
(1.08704 -0.0182995 0)
(1.06672 -0.0152056 0)
(1.05277 -0.0118196 0)
(1.04294 -0.00787966 0)
(1.03625 -0.00331278 0)
(1.03269 0.00191006 0)
(1.03306 0.00706585 0)
(1.0372 0.0113818 0)
(1.04461 0.0148942 0)
(1.05572 0.0178408 0)
(1.07218 0.0204452 0)
(1.09573 0.02291 0)
(1.09423 0.0232301 0)
(0.938664 0.0160712 0)
(0.553337 0.00483379 0)
(0.111561 0.000180974 0)
(0.110467 -0.000109074 0)
(0.745659 -0.00698977 0)
(1.03572 -0.0156252 0)
(1.10846 -0.0181558 0)
(1.09224 -0.0161654 0)
(1.07155 -0.0133069 0)
(1.05731 -0.0100753 0)
(1.04734 -0.00629412 0)
(1.04049 -0.00199902 0)
(1.03669 0.00282425 0)
(1.03687 0.00750943 0)
(1.04084 0.0113599 0)
(1.04813 0.0144911 0)
(1.05925 0.0171011 0)
(1.07606 0.0193722 0)
(1.09876 0.0213865 0)
(1.08633 0.0209375 0)
(0.908601 0.0135138 0)
(0.526744 0.00394322 0)
(0.105872 0.000153293 0)
(0.106968 -7.73217e-05 0)
(0.722435 -0.00527912 0)
(1.01961 -0.0126321 0)
(1.10861 -0.0153773 0)
(1.09697 -0.0137534 0)
(1.07616 -0.0110744 0)
(1.06167 -0.00803132 0)
(1.05144 -0.00447979 0)
(1.04436 -0.000491807 0)
(1.04032 0.00393866 0)
(1.04021 0.00817069 0)
(1.04396 0.0115212 0)
(1.05119 0.0141679 0)
(1.06239 0.0163349 0)
(1.07934 0.0182242 0)
(1.1003 0.0197776 0)
(1.07684 0.0186809 0)
(0.881357 0.0113516 0)
(0.504861 0.00324003 0)
(0.101159 0.000131815 0)
(0.104515 -4.88669e-05 0)
(0.704335 -0.00376356 0)
(1.00509 -0.00976486 0)
(1.1082 -0.0124569 0)
(1.10141 -0.0109999 0)
(1.08043 -0.00843866 0)
(1.06557 -0.00568647 0)
(1.05507 -0.00246793 0)
(1.04771 0.0012136 0)
(1.04339 0.0052814 0)
(1.04292 0.00903923 0)
(1.04642 0.0118601 0)
(1.05349 0.0138739 0)
(1.06473 0.0154024 0)
(1.08193 0.0168694 0)
(1.10092 0.0181243 0)
(1.06646 0.0165578 0)
(0.857073 0.00952262 0)
(0.486804 0.00268206 0)
(0.0972132 0.000117368 0)
(0.102983 -2.48133e-05 0)
(0.691049 -0.0023615 0)
(0.992641 -0.00696237 0)
(1.10741 -0.00955386 0)
(1.10549 -0.00845952 0)
(1.08449 -0.00615926 0)
(1.06939 -0.00344837 0)
(1.0588 -0.000275137 0)
(1.05124 0.0032297 0)
(1.04651 0.0069276 0)
(1.04565 0.0101814 0)
(1.04874 0.0125178 0)
(1.05547 0.0141694 0)
(1.06655 0.015379 0)
(1.08396 0.0162548 0)
(1.10065 0.0168358 0)
(1.0554 0.0145852 0)
(0.835741 0.0079298 0)
(0.471967 0.00223046 0)
(0.0938418 0.000109537 0)
(0.10236 2.36576e-06 0)
(0.682381 -0.000997538 0)
(0.98263 -0.00412874 0)
(1.10594 -0.00637683 0)
(1.10875 -0.0056274 0)
(1.08829 -0.00353631 0)
(1.07298 -0.000847571 0)
(1.06204 0.00223193 0)
(1.05412 0.00553884 0)
(1.04893 0.00894853 0)
(1.04753 0.0117692 0)
(1.05018 0.0135127 0)
(1.05665 0.0144893 0)
(1.06766 0.0150884 0)
(1.08483 0.0155824 0)
(1.09872 0.0155612 0)
(1.04369 0.0126784 0)
(0.817294 0.00654222 0)
(0.459888 0.00184623 0)
(0.0909461 0.000100527 0)
(0.102692 4.80713e-05 0)
(0.678191 0.000227248 0)
(0.975664 -0.0014187 0)
(1.10474 -0.00297608 0)
(1.11167 -0.00216784 0)
(1.09194 -0.00021491 0)
(1.07652 0.00231667 0)
(1.06534 0.00523833 0)
(1.057 0.00834566 0)
(1.05125 0.0114267 0)
(1.04915 0.0137363 0)
(1.05121 0.0148722 0)
(1.05724 0.015228 0)
(1.06786 0.0152124 0)
(1.08465 0.0149699 0)
(1.09575 0.0143076 0)
(1.03212 0.011128 0)
(0.801521 0.0055248 0)
(0.450043 0.00158721 0)
(0.0884942 8.78783e-05 0)
(0.103939 6.60146e-05 0)
(0.677949 0.0012105 0)
(0.971712 0.000782383 0)
(1.10435 -0.000101512 0)
(1.11469 0.000805858 0)
(1.09546 0.00276823 0)
(1.07986 0.00533495 0)
(1.06848 0.00828034 0)
(1.05978 0.0114458 0)
(1.05338 0.0144343 0)
(1.05044 0.016412 0)
(1.05168 0.0171209 0)
(1.05704 0.0169031 0)
(1.0673 0.0161785 0)
(1.0837 0.0154943 0)
(1.09179 0.0142758 0)
(1.02047 0.0105317 0)
(0.787519 0.00520995 0)
(0.441263 0.00158326 0)
(0.0862292 8.77925e-05 0)
(0.105854 9.51891e-05 0)
(0.680568 0.00198212 0)
(0.970544 0.00272583 0)
(1.10462 0.00245506 0)
(1.11782 0.00342553 0)
(1.09906 0.00549655 0)
(1.08331 0.00837709 0)
(1.07168 0.0117032 0)
(1.06242 0.0151427 0)
(1.0551 0.0181681 0)
(1.05119 0.0198876 0)
(1.05149 0.0201447 0)
(1.05602 0.019437 0)
(1.06565 0.0182812 0)
(1.08169 0.0169729 0)
(1.0865 0.0149978 0)
(1.00845 0.0107186 0)
(0.77429 0.00550149 0)
(0.432302 0.0017723 0)
(0.0838232 9.80665e-05 0)
(0.108458 0.000124451 0)
(0.686059 0.00276156 0)
(0.972242 0.00446478 0)
(1.10585 0.00522306 0)
(1.12117 0.00645711 0)
(1.10321 0.00886814 0)
(1.08749 0.0122957 0)
(1.07547 0.0161017 0)
(1.06547 0.0198076 0)
(1.05702 0.0228155 0)
(1.05179 0.0241689 0)
(1.05094 0.0238325 0)
(1.05454 0.0225273 0)
(1.06348 0.0208522 0)
(1.07858 0.0189658 0)
(1.07995 0.0163226 0)
(0.996064 0.0116521 0)
(0.760754 0.00629478 0)
(0.422185 0.00208912 0)
(0.0810203 0.000117378 0)
(0.11185 0.000160341 0)
(0.694139 0.00364655 0)
(0.976909 0.00632408 0)
(1.10917 0.00826508 0)
(1.12542 0.0104344 0)
(1.10818 0.0136297 0)
(1.09225 0.0176655 0)
(1.07949 0.0218839 0)
(1.06836 0.0257376 0)
(1.0585 0.0285624 0)
(1.05172 0.0293357 0)
(1.04959 0.0282538 0)
(1.05224 0.0262451 0)
(1.06034 0.023873 0)
(1.07441 0.0213748 0)
(1.07251 0.0182746 0)
(0.98323 0.013375 0)
(0.745643 0.00741236 0)
(0.41031 0.00248639 0)
(0.077677 0.000142557 0)
(0.116237 0.000210448 0)
(0.70507 0.00484922 0)
(0.984589 0.00852065 0)
(1.11527 0.0115252 0)
(1.13172 0.0148085 0)
(1.11434 0.0190699 0)
(1.09773 0.0238948 0)
(1.0839 0.0286538 0)
(1.07137 0.0328453 0)
(1.05975 0.0356288 0)
(1.05107 0.0358565 0)
(1.04749 0.0338803 0)
(1.04909 0.0309396 0)
(1.05642 0.0279625 0)
(1.06939 0.0249741 0)
(1.06447 0.0215119 0)
(0.968944 0.0158327 0)
(0.727972 0.00870117 0)
(0.396378 0.00292495 0)
(0.073685 0.000170833 0)
(0.121981 0.000280972 0)
(0.719653 0.00650049 0)
(0.994865 0.01141 0)
(1.12368 0.0151315 0)
(1.14001 0.0191898 0)
(1.12196 0.0244984 0)
(1.10417 0.0303476 0)
(1.08893 0.0360416 0)
(1.07468 0.0410712 0)
(1.06087 0.0443399 0)
(1.04993 0.0445354 0)
(1.04445 0.0420965 0)
(1.04476 0.0383417 0)
(1.05162 0.0342849 0)
(1.06367 0.0305743 0)
(1.05474 0.0261905 0)
(0.951197 0.0187563 0)
(0.707307 0.0100916 0)
(0.380271 0.00341878 0)
(0.069 0.000199283 0)
(0.129564 0.000383408 0)
(0.739067 0.00883143 0)
(1.00806 0.0154528 0)
(1.13357 0.0198415 0)
(1.14973 0.0242828 0)
(1.13119 0.0305179 0)
(1.11205 0.0375228 0)
(1.09519 0.0446432 0)
(1.07881 0.0509526 0)
(1.06232 0.0550853 0)
(1.04872 0.0555555 0)
(1.04103 0.0529468 0)
(1.03953 0.0487648 0)
(1.04507 0.04392 0)
(1.05559 0.0387534 0)
(1.04076 0.0317106 0)
(0.928991 0.0217686 0)
(0.683752 0.0117119 0)
(0.361683 0.00400955 0)
(0.0635314 0.000231059 0)
(0.139823 0.000547741 0)
(0.765111 0.0122015 0)
(1.02579 0.0212372 0)
(1.14495 0.0268564 0)
(1.16056 0.0317944 0)
(1.14181 0.0388669 0)
(1.12179 0.0473041 0)
(1.10299 0.0560198 0)
(1.08386 0.0635418 0)
(1.06413 0.0682809 0)
(1.04744 0.068612 0)
(1.0372 0.0654323 0)
(1.03344 0.0604069 0)
(1.03677 0.0543829 0)
(1.04343 0.0469934 0)
(1.02098 0.0371099 0)
(0.902873 0.0250779 0)
(0.657066 0.0137368 0)
(0.340024 0.00472625 0)
(0.0571814 0.000265311 0)
(0.154028 0.000814762 0)
(0.799989 0.0172056 0)
(1.0505 0.0294526 0)
(1.15926 0.0371248 0)
(1.17281 0.0434231 0)
(1.15446 0.0520152 0)
(1.13342 0.0620532 0)
(1.11201 0.0719454 0)
(1.08937 0.0799722 0)
(1.06575 0.0843648 0)
(1.04545 0.083553 0)
(1.03226 0.0788518 0)
(1.02578 0.0721037 0)
(1.02568 0.0641292 0)
(1.02666 0.0544135 0)
(0.996988 0.0424672 0)
(0.874045 0.0291497 0)
(0.626634 0.0162772 0)
(0.314645 0.00554767 0)
(0.0498603 0.000297321 0)
(0.174387 0.00128396 0)
(0.846897 0.0250422 0)
(1.08501 0.0415378 0)
(1.17917 0.0524195 0)
(1.18845 0.0615904 0)
(1.16946 0.0722278 0)
(1.14635 0.0834935 0)
(1.12137 0.093659 0)
(1.09442 0.101004 0)
(1.06624 0.103693 0)
(1.04187 0.100462 0)
(1.02528 0.093179 0)
(1.01561 0.0839526 0)
(1.01134 0.0735949 0)
(1.00656 0.0620337 0)
(0.970679 0.0489741 0)
(0.842346 0.0344755 0)
(0.591253 0.0194398 0)
(0.285039 0.00648596 0)
(0.0415902 0.000324556 0)
(0.204304 0.00234782 0)
(0.911554 0.0385891 0)
(1.13248 0.0612432 0)
(1.20654 0.075579 0)
(1.20879 0.0886089 0)
(1.18642 0.101045 0)
(1.15948 0.112585 0)
(1.1298 0.121725 0)
(1.09785 0.126973 0)
(1.06462 0.126549 0)
(1.03585 0.119723 0)
(1.01561 0.109108 0)
(1.00249 0.0970374 0)
(0.994139 0.0843806 0)
(0.984388 0.0714549 0)
(0.942567 0.0576108 0)
(0.806404 0.0413003 0)
(0.549822 0.023243 0)
(0.251389 0.00756553 0)
(0.0326251 0.000343456 0)
(0.245477 0.00871047 7.35476e-20)
(0.997518 0.0659725 6.37673e-20)
(1.19028 0.0945102 -2.19966e-20)
(1.24032 0.111011 0)
(1.23198 0.127226 -5.26528e-34)
(1.20365 0.139801 7.60694e-21)
(1.17128 0.150068 -1.31922e-20)
(1.13604 0.156855 0)
(1.09857 0.158889 2.59776e-34)
(1.05984 0.154477 -1.5294e-20)
(1.02617 0.143474 0)
(1.00182 0.129303 -1.76902e-20)
(0.984781 0.114409 -5.1858e-20)
(0.972352 0.099865 -2.43853e-20)
(0.958135 0.0862035 -7.29293e-21)
(0.909525 0.0718128 -4.31672e-21)
(0.761421 0.0524017 0)
(0.498263 0.0295265 3.02432e-21)
(0.213981 0.0103214 3.5748e-21)
(0.0245096 0.000881833 6.43514e-20)
(0.273146 0.024503 6.08815e-20)
(1.06798 0.109086 5.07021e-22)
(1.23818 0.142401 6.19996e-21)
(1.27225 0.160548 0)
(1.2535 0.175803 -2.77849e-20)
(1.2187 0.18707 -3.09035e-20)
(1.18036 0.195412 -1.35781e-20)
(1.13914 0.199764 -4.67442e-20)
(1.09562 0.19871 0)
(1.0506 0.190566 6.54564e-20)
(1.01082 0.175717 6.40702e-20)
(0.981091 0.158355 1.8882e-20)
(0.959167 0.141031 6.79401e-20)
(0.942016 0.12466 9.45307e-20)
(0.921979 0.109523 0)
(0.866547 0.0935822 1.32863e-19)
(0.708343 0.0698977 1.90773e-19)
(0.446458 0.0409914 2.11696e-19)
(0.182833 0.0158422 -2.42432e-19)
(0.0183022 0.00159349 -4.55701e-21)
(0.272503 0.0399184 0)
(1.11169 0.165301 1.23576e-20)
(1.27193 0.20202 0)
(1.29708 0.219776 -4.09168e-20)
(1.2705 0.231902 0)
(1.22988 0.240075 -6.26764e-20)
(1.18584 0.245183 2.81942e-20)
(1.13889 0.246145 -9.59171e-20)
(1.08954 0.241487 -1.5738e-21)
(1.03851 0.229444 3.42556e-20)
(0.993087 0.211031 1.40559e-19)
(0.958552 0.191 -3.10434e-22)
(0.932547 0.171974 -4.93257e-20)
(0.911787 0.154596 -8.91259e-20)
(0.888399 0.13863 1.05385e-19)
(0.831484 0.120872 -1.86803e-19)
(0.678486 0.0924246 -2.46709e-20)
(0.431339 0.057245 0)
(0.185235 0.0243405 3.50714e-23)
(0.0205576 0.00288874 0)
(0.265368 0.0534696 2.02644e-19)
(1.13433 0.22457 -9.288e-20)
(1.29339 0.266535 -6.35038e-20)
(1.31347 0.283627 2.04511e-20)
(1.28145 0.292118 -3.3762e-20)
(1.23629 0.296501 1.32527e-19)
(1.18746 0.297783 5.94477e-20)
(1.13551 0.294876 0)
(1.08097 0.286279 -1.75891e-19)
(1.0245 0.270269 0)
(0.974032 0.248425 -7.42802e-20)
(0.935424 0.226006 -9.01163e-20)
(0.906169 0.205497 -5.36998e-20)
(0.882836 0.187227 -6.46768e-20)
(0.857699 0.170358 0)
(0.802569 0.151159 0)
(0.662173 0.119535 -1.61721e-19)
(0.434572 0.078497 3.18628e-20)
(0.198976 0.0361664 -1.87654e-20)
(0.0258937 0.00502083 -2.19348e-20)
(0.257725 0.065592 -1.11318e-19)
(1.14343 0.28358 0)
(1.30545 0.331975 1.45701e-19)
(1.32233 0.34868 6.12671e-20)
(1.28644 0.35366 7.54637e-20)
(1.23784 0.354209 0)
(1.1852 0.351591 5.99571e-20)
(1.1291 0.344741 1.07541e-19)
(1.07011 0.332155 9.1244e-20)
(1.00895 0.312146 1.60894e-19)
(0.954165 0.286933 0)
(0.912165 0.262213 -1.94329e-19)
(0.880379 0.240261 -1.15961e-19)
(0.855094 0.221189 -6.82352e-20)
(0.829059 0.203792 4.15701e-19)
(0.7771 0.183521 4.96248e-20)
(0.650466 0.149141 2.33859e-19)
(0.441814 0.101837 -1.1084e-18)
(0.21342 0.0498948 6.57981e-19)
(0.0312169 0.00766773 -7.93045e-19)
(0.25079 0.0765885 -9.1141e-20)
(1.14404 0.340464 2.14444e-20)
(1.31051 0.396754 -1.95823e-20)
(1.32518 0.413151 -7.44578e-20)
(1.28645 0.414852 -7.09731e-20)
(1.23517 0.411741 1.71149e-21)
(1.17946 0.405386 -6.47221e-20)
(1.11994 0.39471 1.12433e-19)
(1.05718 0.378231 -1.96185e-19)
(0.992017 0.354294 0)
(0.93363 0.325708 -8.87339e-20)
(0.888906 0.298656 -1.57148e-21)
(0.855136 0.275223 -1.26272e-19)
(0.828486 0.25531 0)
(0.802128 0.237421 -8.97855e-20)
(0.753414 0.216131 -2.13735e-19)
(0.638865 0.179734 5.73589e-19)
(0.445635 0.126085 -5.65372e-19)
(0.223421 0.0640427 8.03385e-19)
(0.0352861 0.0104454 -8.34821e-19)
(0.245179 0.0868335 -4.10857e-22)
(1.13946 0.394627 -1.87118e-20)
(1.3105 0.459848 -7.35932e-20)
(1.32338 0.47597 3.54993e-20)
(1.2825 0.47471 -3.67393e-20)
(1.2291 0.468203 0)
(1.17089 0.458347 -6.31992e-20)
(1.10849 0.444053 -1.18458e-19)
(1.04252 0.423845 -1.02743e-19)
(0.973887 0.396079 0)
(0.912435 0.364093 -9.25638e-20)
(0.865553 0.334602 -1.12601e-19)
(0.830339 0.30958 1.36414e-19)
(0.802843 0.288641 -8.21495e-20)
(0.776588 0.270077 -3.89574e-19)
(0.730891 0.247883 2.32768e-19)
(0.625626 0.209403 7.01225e-20)
(0.443742 0.149126 0)
(0.226531 0.0768616 -7.70733e-19)
(0.0372246 0.0128299 -2.82708e-20)
(0.240878 0.0966342 -9.92841e-21)
(1.13183 0.445924 1.73186e-20)
(1.30658 0.520366 3.80781e-20)
(1.31805 0.536443 1.18319e-19)
(1.2755 0.532591 -1.45958e-19)
(1.22039 0.523039 1.42885e-19)
(1.16013 0.509959 1.35631e-19)
(1.09527 0.492293 -1.89388e-19)
(1.0265 0.468564 6.10897e-20)
(0.9548 0.437075 -3.9481e-19)
(0.890632 0.401671 -1.03389e-19)
(0.84197 0.369535 0)
(0.805737 0.342668 1.47278e-19)
(0.777809 0.320491 1.75148e-19)
(0.75195 0.300948 2.0887e-19)
(0.708794 0.277623 -2.51316e-19)
(0.610197 0.236503 -7.44979e-20)
(0.436429 0.169141 8.78021e-20)
(0.224277 0.0871863 0)
(0.0373162 0.0145758 -6.10029e-20)
(0.237722 0.10613 8.38379e-20)
(1.12263 0.494467 -6.26796e-20)
(1.29992 0.578054 -3.89665e-20)
(1.31012 0.59427 7.90481e-20)
(1.26619 0.588143 -7.20575e-20)
(1.20971 0.575862 -3.97466e-21)
(1.14772 0.559872 -1.46882e-19)
(1.08075 0.539123 -6.81628e-20)
(1.00947 0.512099 -1.77688e-19)
(0.934982 0.477042 2.15093e-22)
(0.868367 0.438177 -3.24722e-19)
(0.818092 0.403244 2.67893e-19)
(0.781087 0.374191 -1.60508e-19)
(0.752961 0.350404 1.91448e-19)
(0.727566 0.329562 0)
(0.686407 0.304575 -1.35364e-19)
(0.592632 0.260286 -9.78865e-22)
(0.42449 0.185845 -3.79629e-19)
(0.217691 0.0948794 -5.59461e-20)
(0.036073 0.0156626 0)
(0.235541 0.115432 0)
(1.11271 0.540458 -6.36942e-20)
(1.29134 0.632807 -7.20554e-20)
(1.3003 0.649303 -7.97724e-20)
(1.25522 0.641177 -8.31356e-20)
(1.1976 0.626475 0)
(1.13415 0.607875 -7.07756e-20)
(1.06533 0.584336 -1.18429e-21)
(0.99179 0.554287 3.7999e-19)
(0.914691 0.515838 -5.46001e-20)
(0.845724 0.473531 -2.33635e-19)
(0.793977 0.435598 1.40038e-19)
(0.756238 0.404132 -2.00134e-21)
(0.727996 0.378429 2.03533e-19)
(0.703038 0.35595 1.24484e-19)
(0.663365 0.328888 -2.91777e-19)
(0.572762 0.280611 3.46713e-19)
(0.408616 0.199114 1.02511e-19)
(0.207387 0.0999785 4.22648e-19)
(0.0336548 0.0160286 -1.13234e-18)
(0.234258 0.124652 1.13662e-20)
(1.10264 0.584088 -2.60388e-20)
(1.28156 0.684655 2.6402e-20)
(1.28915 0.701516 7.70875e-20)
(1.24309 0.691592 0)
(1.18452 0.67475 -7.43924e-20)
(1.11982 0.653843 2.3304e-19)
(1.04936 0.62781 1.5075e-19)
(0.973738 0.59502 0)
(0.894134 0.553407 -7.78361e-19)
(0.822836 0.507701 6.28863e-19)
(0.769547 0.466643 0)
(0.731052 0.432488 1.86143e-19)
(0.702685 0.404551 -1.99391e-21)
(0.678101 0.380106 -3.97064e-19)
(0.639403 0.350537 1.55583e-19)
(0.550732 0.297592 0)
(0.389603 0.208759 5.5193e-19)
(0.194306 0.102586 0)
(0.0304935 0.0158293 -5.34062e-19)
(0.233657 0.133852 -8.79649e-21)
(1.0928 0.625521 -1.99024e-20)
(1.27088 0.733654 2.99215e-20)
(1.27711 0.750897 0)
(1.23022 0.739381 -8.2452e-20)
(1.17085 0.720653 0)
(1.10507 0.697707 -2.36812e-19)
(1.03314 0.669475 -7.31164e-20)
(0.955574 0.634247 6.81946e-20)
(0.873519 0.589734 -3.84425e-19)
(0.79977 0.540736 6.53442e-20)
(0.744761 0.496449 0)
(0.705429 0.459373 -3.97307e-19)
(0.676881 0.428918 2.04842e-21)
(0.652542 0.402184 0)
(0.614299 0.369616 2.33883e-21)
(0.526461 0.311277 5.02161e-19)
(0.367676 0.214813 -4.76411e-19)
(0.179082 0.102746 1.40493e-19)
(0.0268287 0.0150495 0)
(0.233425 0.142871 0)
(1.08344 0.664816 -1.5096e-20)
(1.25967 0.779954 -2.2677e-20)
(1.26455 0.797496 -2.26326e-21)
(1.21693 0.784566 -3.71763e-20)
(1.15689 0.764184 -1.67285e-19)
(1.09017 0.739453 8.6801e-20)
(1.01691 0.709303 -8.3402e-20)
(0.937521 0.671938 3.00333e-19)
(0.853006 0.624833 -6.13125e-19)
(0.776657 0.572723 -3.30233e-21)
(0.719758 0.525162 -1.76061e-19)
(0.679344 0.484945 6.42637e-19)
(0.650485 0.45168 -2.42017e-21)
(0.626258 0.422338 -3.06807e-19)
(0.587975 0.38624 -5.48377e-19)
(0.499924 0.321773 0)
(0.343242 0.217492 0)
(0.162107 0.100477 1.51749e-19)
(0.0228724 0.0137366 -8.88024e-20)
(0.233739 0.151857 -1.93508e-21)
(1.07448 0.701857 2.48523e-20)
(1.24822 0.823632 2.3841e-20)
(1.25174 0.841396 0)
(1.20349 0.827201 -1.55123e-21)
(1.14289 0.805367 -1.65185e-19)
(1.07536 0.779087 2.17581e-19)
(1.0009 0.747287 3.36556e-19)
(0.919769 0.708097 3.92449e-19)
(0.832807 0.658743 -5.01878e-19)
(0.753711 0.603772 -5.37119e-19)
(0.694571 0.55296 4.70381e-19)
(0.652789 0.509395 0)
(0.623426 0.473029 -1.39422e-19)
(0.599163 0.440707 -3.31619e-19)
(0.560367 0.400441 -3.93458e-19)
(0.471254 0.328931 -4.68254e-19)
(0.316551 0.216695 1.38636e-19)
(0.143599 0.0957355 -8.15854e-20)
(0.0186052 0.0119068 3.45446e-22)
(0.234078 0.160703 0)
(1.06614 0.7371 0)
(1.23671 0.864763 2.58094e-21)
(1.23888 0.882691 0)
(1.19008 0.867371 1.12036e-19)
(1.12901 0.844262 1.22305e-19)
(1.0608 0.816638 0)
(0.985264 0.783443 4.14657e-20)
(0.902507 0.742733 6.57597e-19)
(0.813118 0.691499 -1.15118e-18)
(0.731064 0.633989 0)
(0.669309 0.58003 -3.01818e-19)
(0.625758 0.532958 -2.95808e-21)
(0.595627 0.493138 -2.42565e-21)
(0.571153 0.457353 3.54201e-19)
(0.531423 0.41215 -4.19e-22)
(0.440543 0.332691 -1.00765e-18)
(0.287646 0.212249 2.98457e-19)
(0.124068 0.0887212 8.82294e-20)
(0.0142869 0.00971738 0)
(0.234425 0.169342 -1.87439e-20)
(1.05814 0.770626 1.24027e-21)
(1.22523 0.90344 2.91833e-20)
(1.22613 0.921479 -1.13911e-19)
(1.17687 0.905141 1.83225e-19)
(1.11543 0.880925 0)
(1.04664 0.852152 1.37539e-19)
(0.970151 0.817795 -9.08362e-20)
(0.885874 0.775864 3.81196e-21)
(0.794083 0.723127 8.3975e-20)
(0.708878 0.663462 6.93933e-19)
(0.64412 0.606568 -1.06062e-19)
(0.598307 0.555899 -3.94529e-19)
(0.566979 0.512216 -1.61934e-19)
(0.542067 0.472274 1.92538e-19)
(0.501088 0.421133 -2.86126e-22)
(0.408127 0.33276 2.71906e-19)
(0.257195 0.204184 -6.41996e-19)
(0.104211 0.0797922 7.59591e-19)
(0.0100917 0.00729103 1.1067e-19)
(0.234609 0.177659 1.0881e-20)
(1.05051 0.802504 -1.92312e-21)
(1.21392 0.939787 6.07642e-21)
(1.21359 0.957881 -4.87073e-20)
(1.16396 0.940616 -3.24683e-20)
(1.10223 0.915425 -2.22892e-19)
(1.03298 0.885674 4.36723e-20)
(0.955661 0.850364 -3.81167e-19)
(0.869981 0.807487 -7.28692e-19)
(0.775832 0.75363 -6.86929e-19)
(0.687345 0.692264 0)
(0.619168 0.632749 -4.62042e-19)
(0.5705 0.578523 5.66536e-19)
(0.537342 0.53054 0)
(0.511596 0.48543 -4.11863e-19)
(0.469194 0.42694 2.46818e-19)
(0.374253 0.328632 -2.92016e-19)
(0.226295 0.192566 -3.46004e-19)
(0.0849813 0.0694659 -6.12207e-19)
(0.0062666 0.00482041 -4.77302e-19)
(0.235083 0.185776 -1.60437e-20)
(1.04307 0.832708 2.14542e-21)
(1.20284 0.97388 -2.8199e-21)
(1.20135 0.991982 -5.60717e-20)
(1.15144 0.973883 7.26322e-20)
(1.08951 0.947846 -1.32258e-19)
(1.0199 0.917257 1.42671e-19)
(0.941865 0.881192 -3.95963e-19)
(0.8549 0.837627 -4.32131e-19)
(0.758493 0.783022 7.19868e-19)
(0.666623 0.720439 1.52003e-18)
(0.594655 0.658728 0)
(0.542466 0.601133 0)
(0.50656 0.548503 -1.86107e-19)
(0.479205 0.49687 0)
(0.435246 0.428827 5.3155e-19)
(0.339272 0.319215 6.29287e-19)
(0.196454 0.177086 0)
(0.0677698 0.0582856 0)
(0.00305413 0.00255169 5.13434e-19)
(0.235171 0.193407 2.23712e-20)
(1.03588 0.861241 1.67545e-20)
(1.19203 1.00584 -5.9643e-23)
(1.18946 1.02391 3.60281e-20)
(1.13936 1.00504 7.01063e-20)
(1.0773 0.978258 1.52623e-19)
(1.00744 0.94696 -1.9849e-19)
(0.928813 0.910309 2.41915e-22)
(0.840703 0.866291 -4.91843e-21)
(0.742154 0.811294 -5.7515e-21)
(0.646881 0.748003 7.81944e-19)
(0.570798 0.684605 0)
(0.514432 0.624019 5.69605e-19)
(0.47456 0.566646 3.96045e-19)
(0.444109 0.506971 9.58835e-19)
(0.398035 0.425988 2.85556e-19)
(0.303171 0.302282 -3.40066e-19)
(0.170515 0.155797 -1.998e-19)
(0.0569044 0.0461829 0)
(0.00182809 0.00111116 5.52075e-19)
(0.235537 0.200999 -5.88618e-20)
(1.02891 0.888204 0)
(1.18151 1.03572 9.494e-21)
(1.17797 1.05374 2.36306e-20)
(1.12777 1.03418 -6.32977e-20)
(1.06565 1.00675 -1.91986e-19)
(0.995635 0.974841 4.0151e-19)
(0.916535 0.937752 -3.13121e-20)
(0.82742 0.893487 0)
(0.72688 0.838412 -7.96833e-19)
(0.628266 0.774936 -1.69939e-18)
(0.547832 0.710437 6.80431e-20)
(0.48673 0.647404 7.80905e-19)
(0.441463 0.585626 0)
(0.405451 0.516646 6.44593e-19)
(0.355231 0.418475 0)
(0.263131 0.274529 0)
(0.150482 0.119291 -2.16869e-19)
(0.0699978 0.021858 0)
(0.0257511 0.0104293 1.48064e-19)
(0.235509 0.207954 -7.28081e-20)
(1.02211 0.913925 0)
(1.17127 1.06374 2.37389e-20)
(1.16684 1.0817 0)
(1.11663 1.06156 2.81039e-20)
(1.05449 1.03359 0)
(0.984425 1.00121 2.25441e-20)
(0.904933 0.963858 5.49514e-20)
(0.814936 0.919577 5.40284e-20)
(0.712526 0.864765 -8.76016e-19)
(0.610646 0.801664 5.14949e-20)
(0.525624 0.736782 5.43355e-19)
(0.459178 0.671881 7.59821e-19)
(0.406848 0.606484 1.01841e-19)
(0.361709 0.527757 5.0282e-19)
(0.302813 0.408619 0)
(0.207416 0.236458 7.18453e-19)
(0.107103 0.0568391 -4.21291e-19)
(0.0468037 0.0466499 4.89258e-19)
(-0.0678857 0.416484 -5.77622e-19)
(0.23546 0.214668 6.43047e-20)
(1.01527 0.938235 8.75852e-20)
(1.16124 1.0902 0)
(1.15594 1.10822 5.09909e-21)
(1.10577 1.08773 -6.34376e-20)
(1.04358 1.05946 3.04464e-19)
(0.973517 1.02684 1.48387e-19)
(0.893628 0.989552 0)
(0.802754 0.945637 3.66356e-19)
(0.698471 0.891642 -4.66329e-20)
(0.593172 0.829645 0)
(0.503109 0.765407 0)
(0.430493 0.699243 6.772e-19)
(0.369472 0.63112 -3.12746e-19)
(0.310381 0.543731 -5.0575e-19)
(0.236184 0.402627 0)
(0.1189 0.217543 3.61877e-19)
(0.0119672 0.428201 -4.19713e-19)
(0.0406103 1.8432 -2.33001e-19)
(0.0714721 2.7865 -2.95686e-19)
(0.235261 0.220522 -5.31202e-20)
(1.00859 0.961284 -1.21563e-19)
(1.15141 1.11511 1.9515e-20)
(1.14526 1.13315 -1.30425e-21)
(1.09523 1.11248 0)
(1.03296 1.08406 2.0014e-19)
(0.963088 1.05144 2.15986e-19)
(0.88279 1.01441 -2.74246e-20)
(0.791121 0.971155 5.41952e-20)
(0.685068 0.918423 8.38254e-19)
(0.576424 0.858179 8.58463e-19)
(0.481257 0.795813 6.05213e-19)
(0.401809 0.72911 6.77335e-19)
(0.331592 0.657925 -7.27445e-19)
(0.257625 0.567487 -7.58129e-19)
(0.15857 0.428572 0)
(0.0598514 0.814169 0)
(0.116469 2.51689 2.00773e-19)
(0.118373 3.18128 0)
(0.121179 3.38048 4.89504e-19)
(0.237544 0.22592 0)
(1.00266 0.983219 0)
(1.14157 1.13831 0)
(1.13458 1.15626 2.73049e-21)
(1.0847 1.13557 -5.10285e-20)
(1.02242 1.10726 1.32086e-19)
(0.953033 1.07488 1.43868e-19)
(0.872372 1.03832 -2.72576e-20)
(0.780004 0.995998 4.66391e-19)
(0.672345 0.94497 -1.00691e-20)
(0.560548 0.887148 1.69769e-18)
(0.460439 0.827785 -6.90702e-20)
(0.373636 0.762264 8.20338e-20)
(0.295358 0.683777 1.0416e-19)
(0.200242 0.599004 1.15707e-22)
(0.122052 0.939692 1.80367e-21)
(0.160281 2.66105 -1.02976e-18)
(0.174413 3.27961 -3.93569e-19)
(0.159896 3.42486 2.07432e-19)
(0.143712 3.44926 -2.32413e-19)
(0.155104 0.18252 3.53191e-20)
(0.991015 1.00692 0)
(1.13148 1.16001 -5.55123e-20)
(1.12457 1.1781 -1.62439e-20)
(1.07495 1.15778 -6.90758e-20)
(1.01286 1.12971 -1.32535e-19)
(0.94325 1.09729 -1.54776e-19)
(0.862471 1.06142 3.27038e-19)
(0.769583 1.02029 -3.86788e-19)
(0.660635 0.971352 0)
(0.546024 0.916594 8.37102e-19)
(0.441312 0.861025 -4.92912e-19)
(0.346832 0.801096 0)
(0.261941 0.712327 9.71932e-20)
(0.176007 0.822683 2.29467e-19)
(0.175534 2.39448 -2.76975e-19)
(0.244366 3.31562 3.13603e-19)
(0.220612 3.44268 1.71611e-19)
(0.183375 3.46609 1.96585e-19)
(0.158605 3.47718 3.17199e-19)
(0.279979 0.263435 -6.08633e-20)
(0.975266 1.01569 0)
(1.11307 1.18424 7.04158e-20)
(1.11038 1.21015 3.92496e-20)
(1.05917 1.19036 4.47935e-20)
(0.996667 1.16279 1.06911e-19)
(0.926323 1.13178 1.82825e-19)
(0.845054 1.09706 2.52021e-20)
(0.751065 1.05804 3.80212e-19)
(0.639783 1.01288 7.40401e-19)
(0.520801 0.964359 4.81605e-20)
(0.408949 0.916582 4.39901e-19)
(0.29967 0.868477 7.71922e-20)
(0.230432 0.976697 -9.55592e-20)
(0.250624 2.24382 -2.20555e-19)
(0.31943 3.31893 2.17104e-19)
(0.304978 3.47806 -2.43099e-19)
(0.266132 3.50154 -1.41744e-19)
(0.226229 3.53007 -1.24823e-19)
(0.170341 3.52268 -1.46507e-20)
(0.267422 0.259861 0)
(0.972488 1.0375 2.77309e-20)
(1.10514 1.207 -1.68449e-20)
(1.10064 1.23289 -7.24024e-21)
(1.04935 1.21304 1.67947e-20)
(0.986949 1.1857 -9.68412e-20)
(0.91633 1.15484 -1.09278e-19)
(0.835037 1.1209 2.33188e-20)
(0.740828 1.08332 -4.02339e-19)
(0.62879 1.04092 -1.43403e-20)
(0.508007 0.997108 -1.53103e-18)
(0.393291 0.955595 6.23308e-20)
(0.287106 0.932982 -7.34151e-20)
(0.27145 1.42857 -8.93512e-20)
(0.355875 3.04888 1.80481e-20)
(0.385686 3.47272 9.08257e-22)
(0.341226 3.53949 3.67001e-19)
(0.301686 3.5642 1.85053e-19)
(0.24964 3.58869 -5.63413e-20)
(0.185398 3.58406 -7.33252e-20)
(0.250648 0.257791 7.68631e-20)
(0.967997 1.06183 1.96339e-19)
(1.09666 1.23175 -4.92672e-20)
(1.09039 1.25704 -2.72057e-20)
(1.03904 1.237 0)
(0.976813 1.20968 -9.99417e-20)
(0.906221 1.17904 -1.43141e-19)
(0.825189 1.14585 2.13318e-20)
(0.731091 1.10977 -4.42388e-20)
(0.618813 1.07031 -6.8844e-19)
(0.496971 1.03144 -7.1477e-19)
(0.381231 0.99709 -5.20762e-19)
(0.291123 1.05151 -5.53422e-19)
(0.343203 2.0728 5.71214e-19)
(0.447623 3.36597 4.86628e-19)
(0.434566 3.53881 0)
(0.383309 3.58663 0)
(0.344582 3.63065 -4.48343e-20)
(0.28412 3.69661 0)
(0.197885 3.66733 -6.05401e-20)
(0.239311 0.258974 -1.22313e-19)
(0.961524 1.08712 -1.75731e-19)
(1.08675 1.2576 0)
(1.07886 1.28199 6.00265e-21)
(1.02755 1.26154 -9.10587e-21)
(0.965605 1.23408 -1.18605e-19)
(0.895376 1.20368 -8.2984e-20)
(0.814814 1.17112 1.61399e-20)
(0.721076 1.13646 -3.02525e-19)
(0.608964 1.09985 3.5951e-20)
(0.486846 1.06603 0)
(0.372379 1.04114 0)
(0.318237 1.26386 -5.13539e-19)