/*--------------------------------*- C++ -*----------------------------------*\
| =========                 |                                                 |
| \\      /  F ield         | OpenFOAM: The Open Source CFD Toolbox           |
|  \\    /   O peration     | Version:  4.0                                   |
|   \\  /    A nd           | Web:      www.OpenFOAM.org                      |
|    \\/     M anipulation  |                                                 |
\*---------------------------------------------------------------------------*/
FoamFile
{
    version     2.0;
    format      ascii;
    class       volVectorField;
    location    "56";
    object      U;
}
// * * * * * * * * * * * * * * * * * * * * * * * * * * * * * * * * * * * * * //

dimensions      [0 1 -1 0 0 0 0];

internalField   nonuniform List<vector> 
918
(
(0.985161 -0.000505498 0)
(0.00501485 2.96625 0)
(0.00918048 0.885175 0)
(0.979704 0.0021467 0)
(-0.0101503 2.06551 3.79916e-20)
(-0.00704652 2.9488 -2.4713e-18)
(0.815198 1.15719 4.46193e-19)
(0.174102 0.0909195 -1.51681e-20)
(0.999909 -0.000278362 0)
(0.0599664 0.754875 0)
(0.0107519 0.551842 0)
(0.73528 -0.018777 0)
(0.0110911 2.9304 0)
(0.00259707 2.79507 0)
(-0.0177243 3.15073 7.80539e-19)
(-0.0213699 1.90908 6.84179e-21)
(0.28069 0.0388381 1.01912e-18)
(0.185307 1.1373 3.19629e-19)
(0.96274 0.00501929 0)
(0.00928255 0.505566 0)
(0.00433988 0.120893 -7.11786e-19)
(1.00197 -0.00497692 0)
(1.00022 -0.00978696 0)
(0.975734 -0.00643918 0)
(0.594244 0.000168161 0)
(0.0151465 2.64138 0)
(-0.0148916 2.91001 9.09529e-19)
(0.0117443 0.938847 0)
(-0.012932 1.18127 0)
(0.0137358 0.920265 0)
(-0.0106602 2.59768 0)
(0.0012213 2.11809 -3.03432e-20)
(-0.00965912 1.89366 0)
(-0.0206114 2.9876 -8.88362e-23)
(-0.0166871 3.00529 1.92066e-18)
(0.00209918 3.00018 0)
(0.871173 -0.00962205 0)
(0.403642 0.934958 1.79261e-19)
(0.80045 1.17161 -5.09013e-19)
(0.951194 1.01782 5.50645e-19)
(0.669417 1.2628 -1.03534e-19)
(0.670663 1.2364 5.95926e-19)
(0.210297 0.15044 1.47978e-20)
(0.187562 0.065874 0)
(1.15165 0.55928 0)
(0.182625 0.13995 6.74437e-20)
(0.14884 0.0882147 -6.99824e-20)
(0.919866 -0.00745412 0)
(1.00027 0.000158217 0)
(0.999909 0.000336703 0)
(1.00363 -0.00776313 0)
(1.00096 -0.000922025 0)
(1.00017 3.4796e-05 0)
(0.0739467 1.82287 -7.74592e-19)
(0.0268029 0.960578 0)
(0.0945057 0.823702 0)
(0.0108313 0.916242 0)
(0.0354093 0.686748 0)
(0.00665387 2.00706 0)
(0.00121671 0.818209 0)
(0.0113272 0.57035 0)
(-0.00306774 0.813878 0)
(0.00958321 0.5357 0)
(0.840835 -0.0158086 0)
(0.841498 0.0315883 0)
(0.767613 -0.00785266 0)
(0.806743 0.0416779 0)
(0.704483 -0.0176665 0)
(0.0146859 3.00041 9.16103e-19)
(0.0114933 3.00802 0)
(0.00611395 3.00276 0)
(0.0135311 2.99735 1.03933e-23)
(0.007973 2.95849 -1.36155e-18)
(0.0144935 2.98207 0)
(0.0108569 2.90358 0)
(0.0243938 2.93096 2.08417e-24)
(0.00468101 2.82487 0)
(0.0301051 2.9165 0)
(-0.00493071 2.74509 0)
(0.305984 3.54466 0)
(-0.131655 3.62551 0)
(0.138292 3.24089 -7.26367e-19)
(-0.0133217 2.97845 0)
(-0.0216869 1.98234 0)
(-0.00578483 2.16494 -6.74807e-21)
(-0.0156575 1.91561 -2.15113e-22)
(0.368058 0.145583 -3.53713e-19)
(0.306284 0.0246328 -3.43145e-19)
(0.330365 0.154384 -1.05959e-18)
(0.248374 0.046447 -6.91437e-19)
(0.227847 0.978039 0)
(0.268839 1.28396 -3.69483e-19)
(0.3628 1.2188 6.15843e-19)
(0.987447 0.00856647 0)
(0.941881 0.0058325 0)
(1.0003 0.000580002 0)
(1.00286 0.00930812 0)
(1.00301 0.00846857 -2.74288e-18)
(0.99191 0.00969657 2.07133e-18)
(-0.00341228 0.80377 0)
(0.00988754 0.518575 0)
(-0.039313 1.00825 0)
(-0.0198819 0.840656 0)
(0.00354904 0.501317 0)
(0.0157494 0.129563 2.1978e-19)
(0.0917124 0.100643 0)
(0.993549 -0.00837412 0)
(0.954451 -0.00652684 0)
(0.750204 0.0453545 0)
(0.685079 0.0410503 0)
(0.663632 -0.0178196 0)
(0.96842 -0.00781557 0)
(0.596619 0.0692411 0)
(0.443973 -0.0143182 1.5391e-18)
(-0.0374026 2.8618 6.72221e-19)
(0.0412983 2.90962 0)
(0.0534456 2.88611 0)
(-0.00436247 2.70027 0)
(-0.0132428 2.98526 8.60918e-19)
(-0.0178362 2.8951 0)
(-0.0153561 2.98809 -2.66996e-18)
(-0.0133323 2.92519 9.13949e-19)
(-0.0217121 1.34654 0)
(0.00184548 1.3755 0)
(-0.00573974 2.13027 4.2969e-22)
(-0.00448896 2.09415 0)
(-0.0229633 1.89829 0)
(0.938434 -0.00745338 0)
(0.8572 -0.00993746 0)
(0.863309 0.00583188 0)
(0.949489 -0.0078709 0)
(0.883948 -0.00817293 0)
(0.515254 1.12807 -2.26453e-19)
(0.56439 1.17914 0)
(0.368233 0.879941 3.3536e-20)
(0.310701 0.738748 0)
(0.912328 1.05515 -1.51741e-19)
(1.02902 0.865343 3.06708e-19)
(0.356506 1.3451 0)
(0.522449 1.31755 0)
(0.545625 1.25509 0)
(0.120197 0.185154 -3.01829e-19)
(0.235947 0.144846 0)
(0.210599 0.0727077 1.94007e-19)
(1.00006 0.919666 0)
(1.07294 0.774044 0)
(1.09804 0.715536 -2.41714e-19)
(1.13106 0.618745 0)
(1.18187 0.403017 5.66677e-20)
(0.957695 -0.00874023 0)
(0.962477 -0.0100545 0)
(0.901687 -0.00797421 0)
(0.984195 -0.00915429 0)
(0.974694 -0.00934717 0)
(0.937115 -0.00636926 0)
(1.00019 0.00233885 0)
(1.0009 0.00141023 0)
(0.99991 0.000854461 0)
(0.0352289 2.07318 4.29241e-19)
(0.119225 1.76593 0)
(0.0176117 2.18739 6.60212e-19)
(0.0467031 1.87651 -5.51381e-19)
(0.101155 1.14644 -2.61851e-19)
(0.0432343 1.03463 0)
(0.140054 0.978587 0)
(0.00492065 0.876406 0)
(0.0171282 0.634438 0)
(-0.00138893 2.23942 -8.75078e-22)
(0.0160074 2.01206 0)
(-0.0020894 2.24083 -3.35017e-20)
(0.00804751 2.01535 5.39247e-20)
(0.0021774 0.852574 0)
(0.00177777 0.831883 0)
(0.0116632 0.59597 0)
(-0.00670756 0.812534 0)
(0.00350475 0.524911 0)
(0.937678 0.00961164 0)
(0.849166 -0.0148658 0)
(0.927064 0.000273188 0)
(0.841956 -0.0129448 0)
(0.812084 -0.000873022 0)
(0.899753 0.0212912 0)
(0.874227 0.0262479 0)
(0.788752 -0.00385692 0)
(0.00574757 3.0649 -8.54142e-21)
(0.0167279 3.05774 0)
(0.0147164 2.96903 0)
(0.00869501 2.87619 0)
(0.92198 3.95816 0)
(1.23571 3.29155 9.28661e-19)
(0.0694262 3.07059 0)
(-0.0288886 2.90296 0)
(-0.00583107 1.39546 0)
(-0.0286992 1.69166 0)
(-0.0139194 1.52811 0)
(-0.0273947 2.55512 -7.5116e-21)
(-0.0101577 2.24007 0)
(-0.0158993 2.39102 0)
(-0.00116854 1.94101 9.02523e-22)
(-0.00291616 2.23638 -3.30603e-21)
(-0.00461029 2.19879 6.71242e-23)
(-0.0093003 1.92667 0)
(0.416136 0.127069 5.3896e-19)
(0.354457 0.0135649 -5.28906e-19)
(0.259261 1.58478 0)
(0.275987 0.751405 -3.15161e-19)
(0.176993 1.67154 -1.04912e-18)
(0.226169 1.21585 1.05147e-18)
(0.902073 0.00640257 0)
(0.967424 0.0111052 0)
(0.97456 0.010801 0)
(0.923336 0.00642567 0)
(-0.000888673 0.806529 0)
(-0.00508873 0.804165 0)
(-0.000198435 0.520188 0)
(0.158384 0.129793 6.23404e-19)
(0.132739 0.11831 -7.35213e-19)
(0.122753 0.0901946 0)
(1.09538 0.0852386 2.72556e-20)
(1.07758 0.0388675 0)
(1.01077 0.0395324 0)
(0.905339 -0.00594723 0)
(0.463888 0.106674 0)
(0.521276 0.0877689 -2.45881e-18)
(0.397942 0.00880926 9.19176e-19)
(0.00881523 2.98106 7.21479e-19)
(-0.0324047 2.86565 4.71668e-20)
(0.00359402 3.05024 -1.80824e-20)
(0.0202217 3.04336 6.43187e-19)
(-0.0150163 2.99658 3.00134e-20)
(-0.012932 2.94947 -1.20795e-22)
(-0.0172503 3.01194 -5.55541e-19)
(0.0148409 3.02386 4.01963e-19)
(0.0073606 3.03678 -6.36498e-19)
(0.933646 -0.00133706 0)
(0.939232 -0.00329219 0)
(0.845574 -0.00946467 0)
(0.956578 0.0118658 0)
(0.942751 0.0131819 0)
(0.88163 0.00591701 0)
(0.917115 0.0171774 0)
(0.926007 0.0149938 0)
(0.838534 0.00253465 0)
(0.717786 1.40553 4.22947e-20)
(0.751097 1.51428 0)
(0.18346 0.318089 7.06745e-20)
(0.226608 0.667875 5.69606e-19)
(0.262355 0.721277 -3.32327e-19)
(0.264493 0.525625 6.60852e-19)
(0.344268 0.808513 1.58832e-18)
(0.139264 0.229332 3.74726e-19)
(0.294341 0.15655 7.3287e-19)
(0.263965 0.153679 1.90514e-19)
(0.226165 0.0601869 3.61981e-19)
(1.1711 0.461085 5.78119e-20)
(1.18756 0.254978 5.32533e-20)
(0.00973434 2.23538 2.54895e-19)
(0.0408295 1.94363 0)
(0.969171 0.0290552 0)
(0.942227 0.0137159 0)
(0.86768 -0.0180365 0)
(0.0112024 3.07415 0)
(0.0196173 2.9441 1.1776e-18)
(0.016426 2.95624 0)
(0.00644558 2.85058 -1.16798e-18)
(0.00638345 3.09132 2.85722e-19)
(0.00721456 3.08268 0)
(0.783992 1.81603 -1.59906e-19)
(1.24359 2.4921 4.07263e-19)
(0.766005 1.95542 -1.23419e-18)
(0.0196787 2.98037 -6.22141e-19)
(0.0353957 2.99951 0)
(-0.03446 2.87667 0)
(-0.00407953 2.21979 -1.31364e-20)
(-0.00288672 2.241 2.70084e-21)
(0.00145751 1.97644 -7.35272e-21)
(0.277701 1.39319 1.02424e-18)
(0.236222 0.544119 -7.02418e-19)
(0.0635371 1.99795 7.64053e-19)
(0.135367 1.88447 -9.11208e-19)
(0.180308 1.50809 9.44198e-20)
(0.00324222 3.11805 -1.78203e-18)
(0.0169699 3.11803 1.91005e-18)
(-0.00917572 2.9808 7.91651e-19)
(-0.00336784 2.97723 -7.48379e-19)
(-0.021297 2.8813 -8.06274e-19)
(0.00866575 3.09884 -2.12376e-18)
(0.00191631 3.10687 2.07283e-18)
(0.280879 0.694485 0)
(0.247813 0.683913 -1.18219e-18)
(0.0960278 0.225637 5.24974e-19)
(0.356208 0.934849 1.1105e-18)
(0.19433 0.274741 -1.71213e-18)
(1.18055 0.173695 6.42844e-20)
(1.1881 0.309445 0)
(1.16891 0.121771 -8.33482e-21)
(0.000996593 2.25205 -1.51598e-21)
(0.00437309 2.24436 0)
(0.0249494 1.97864 0)
(0.340065 1.30217 -3.68037e-19)
(0.373459 1.14646 -7.99063e-19)
(0.20876 0.375564 1.42416e-18)
(1.00588 -0.0108389 0)
(1.00767 -0.00763979 5.06042e-19)
(-0.0179432 1.3264 0)
(-0.0322433 1.3232 0)
(1.00222 0.00350931 1.80847e-21)
(1.00366 0.00946054 1.03314e-18)
(-0.0155048 2.53902 9.51879e-21)
(-0.0214972 2.5822 0)
(0.0348254 3.1773 4.1148e-19)
(0.391761 3.4857 0)
(1.16981 0.659294 -5.98875e-20)
(1.01287 0.0131216 -2.14019e-21)
(1.02131 -0.0103259 0)
(1.0017 0.000120968 7.61431e-23)
(0.103405 1.36168 0)
(0.143974 2.5744 0)
(0.0259567 1.30425 0)
(-0.00139741 2.6249 3.12644e-20)
(-0.0225814 2.58127 7.04595e-21)
(0.99947 0.0291547 2.40294e-21)
(1.06272 0.00440395 0)
(1.09671 0.0245435 0)
(-0.0270316 1.73494 0)
(-0.0182491 2.58198 0)
(-0.00291042 1.30761 0)
(0.307562 1.47627 -1.70793e-19)
(1.01129 -0.00962723 0)
(1.0094 -0.0149212 0)
(1.00236 0.000741549 6.46632e-19)
(1.00547 -0.00480886 -7.60083e-19)
(1.00118 -0.000975311 0)
(-0.0127451 1.46037 0)
(-0.00545729 1.37258 0)
(-0.00521159 1.41845 0)
(-0.00694106 1.29598 0)
(-0.0129765 1.28424 0)
(-0.00447168 1.26543 0)
(1.03491 -0.00615213 0)
(1.01993 0.0156287 -8.59377e-22)
(0.820234 1.27 2.58563e-19)
(1.00224 0.000304926 -6.44353e-19)
(1.00406 0.00525421 7.54176e-19)
(1.00118 0.00207041 0)
(1.01275 0.0103398 6.41071e-19)
(1.008 0.00830491 -7.76757e-19)
(1.00856 0.0146919 0)
(-0.022448 2.60991 0)
(-0.0235963 2.5895 -1.59657e-20)
(-0.0214749 2.60367 1.14904e-20)
(1.2345 0.265144 5.86576e-19)
(1.16066 0.0862044 0)
(0.0412766 3.0779 -9.18846e-19)
(0.064744 2.85601 -6.68934e-20)
(0.139348 3.19231 1.40556e-18)
(0.134863 3.22021 -1.99366e-19)
(0.133729 3.23141 0)
(0.0193801 3.13723 2.37159e-19)
(0.0748755 3.16028 9.06189e-19)
(0.0678301 3.18532 -4.47051e-19)
(0.021826 3.13006 0)
(0.605386 0.277084 0)
(0.528614 0.308929 0)
(1.14046 0.695628 1.38234e-19)
(1.13537 0.816989 -1.24364e-19)
(1.19756 0.581993 0)
(1.22626 0.517029 0)
(1.01608 0.0133528 -1.19498e-18)
(1.01498 0.0142731 1.49999e-18)
(1.02533 -0.00984696 0)
(1.02339 -0.0118791 0)
(1.00642 0.00259933 0)
(1.01042 0.00372157 0)
(1.00459 0.00185185 0)
(1.0098 0.00622773 0)
(1.00782 0.00596092 0)
(1.00451 0.00469878 0)
(0.0926008 1.35942 0)
(0.0876092 1.32718 0)
(0.124968 1.39748 0)
(0.140462 1.40364 0)
(0.145363 2.59933 0)
(0.185516 2.66874 -4.24471e-19)
(0.100946 2.65508 0)
(0.0846923 2.65752 1.98812e-19)
(0.0378392 2.67964 -1.51913e-19)
(0.0173448 1.31877 0)
(0.0211757 1.24557 0)
(0.0208404 1.32881 0)
(0.034247 1.26777 0)
(0.00183513 1.98354 -3.71298e-22)
(-0.0212678 2.60914 -1.43691e-20)
(-0.00965103 2.66644 1.74622e-20)
(-0.0195481 2.68462 0)
(-0.0239744 2.61476 -1.35497e-20)
(-0.024293 2.60951 7.88233e-21)
(0.0107577 1.9821 2.84476e-21)
(-0.0081156 2.39735 1.92791e-20)
(-0.0143544 2.41926 -1.98036e-20)
(1.00973 0.0379198 1.21922e-18)
(1.00512 0.0160154 -1.50865e-18)
(1.00132 0.0455016 -1.22538e-18)
(0.976635 0.0250022 1.55816e-18)
(1.06395 0.00820354 0)
(1.04915 -0.00836469 0)
(1.09389 0.0345644 0)
(1.07396 0.0126394 0)
(1.07173 0.000376712 0)
(1.13977 0.0823683 0)
(1.11113 0.0440381 0)
(1.11467 0.0319412 0)
(-0.0228059 2.42998 5.26598e-22)
(-0.0129445 2.00735 0)
(-0.0135177 2.21248 0)
(-0.0199312 2.6028 -8.85088e-21)
(-0.0175902 2.61279 1.15859e-22)
(0.00333529 1.5698 -3.11933e-20)
(-0.00421205 1.49892 3.17597e-20)
(-0.0133283 1.38794 0)
(-0.0168376 1.39492 0)
(-0.0213531 1.39001 0)
(-0.00290593 1.30814 0)
(0.00789712 1.23602 0)
(0.385965 1.4932 2.78576e-19)
(0.429106 1.4934 1.45817e-19)
(0.598029 2.44814 -2.39935e-19)
(0.399668 2.54522 7.06305e-19)
(0.351698 2.05913 7.05999e-20)
(1.02104 -0.0081424 0)
(1.01549 -0.00976178 0)
(1.01491 -0.015507 0)
(1.0074 -0.00110441 0)
(1.00493 -0.000922518 0)
(1.00778 -0.00470665 0)
(1.00927 -0.00363794 0)
(1.01421 -0.00440664 0)
(1.02068 0.0162559 1.17043e-18)
(1.01777 0.0155887 -1.49768e-18)
(1.02101 0.0182508 -1.17943e-18)
(1.01873 0.0166872 1.47585e-18)
(0.783496 1.32096 0)
(0.721005 1.36997 2.45944e-19)
(0.894249 1.22172 9.60038e-20)
(0.940012 1.1662 -1.27734e-19)
(1.15566 2.60195 2.74371e-19)
(0.776816 0.11998 5.99312e-19)
(1.16268 0.10777 0)
(1.21068 0.192698 -4.71744e-19)
(1.1974 0.154359 -2.00309e-20)
(1.00583 0.155118 0)
(0.130772 2.95895 5.35479e-19)
(0.107502 2.86507 -1.16569e-18)
(0.0167481 2.37509 7.80904e-19)
(0.091956 -0.114469 -3.3945e-19)
(0.336746 3.41555 -2.14747e-19)
(0.191898 3.3096 0)
(0.235273 3.35049 2.79676e-19)
(0.240928 3.03164 -1.7857e-18)
(0.334566 3.19009 0)
(0.00552816 3.12118 4.62267e-20)
(0.0158666 3.12979 -5.452e-19)
(0.0139455 3.12584 8.02418e-19)
(0.0344938 3.14007 0)
(0.0329341 3.15024 0)
(1.21201 2.59993 0)
(0.542486 0.812455 -5.28325e-19)
(1.06236 0.990542 -5.34907e-21)
(0.996498 1.07607 0)
(0.850282 0.97279 -1.10578e-19)
(1.08631 0.891825 2.82162e-20)
(0.33112 0.351888 -8.76355e-19)
(0.667646 0.317306 -1.81389e-20)
(0.595835 0.220492 4.13748e-19)
(0.554713 0.344972 3.05391e-20)
(0.451166 0.294712 -1.22735e-18)
(0.630869 0.322261 0)
(0.702866 0.419954 7.04899e-19)
(0.710365 0.421431 0)
(0.591276 0.341438 0)
(0.535054 0.251691 0)
(0.815524 0.619534 4.1557e-19)
(1.23554 0.287528 -4.94393e-19)
(1.23513 0.426062 0)
(1.24342 0.366263 0)
(0.706818 0.193592 6.20573e-19)
(0.86453 0.548148 -3.82168e-19)
(0.76263 0.517842 6.78344e-19)
(0.958543 0.439312 -7.44567e-19)
(1.01936 0.0148862 8.03118e-19)
(1.01766 0.0143118 -8.08215e-19)
(1.01591 0.0154248 0)
(1.03637 -0.00568742 0)
(1.02982 -0.00842926 -7.56975e-19)
(1.02786 -0.0120057 7.49454e-19)
(1.0249 0.0103307 0)
(1.02344 0.0140377 0)
(1.01142 0.00412708 0)
(1.01422 0.00911067 0)
(1.01514 0.00411288 0)
(1.01426 0.00286226 0)
(0.0621027 1.34344 0)
(0.0670223 1.29634 0)
(0.143077 1.37831 1.19124e-20)
(0.278311 1.47361 9.11303e-20)
(0.170158 1.44466 1.9175e-19)
(0.20307 1.45019 -3.12479e-19)
(0.166534 1.40374 0)
(0.134521 1.59949 -7.01614e-20)
(0.117157 1.57553 0)
(0.349203 2.01022 -1.0265e-19)
(0.343984 2.34439 6.14608e-19)
(0.191759 1.46005 6.11547e-20)
(0.264283 1.39288 2.45392e-20)
(0.200524 1.38213 -1.98919e-20)
(0.277106 1.33717 -9.96887e-20)
(0.24337 1.58174 0)
(0.266696 1.6198 1.09655e-19)
(0.0303665 2.26453 -2.94953e-20)
(0.0429215 2.66924 0)
(0.0657694 2.40142 1.34634e-19)
(0.0621585 2.42223 0)
(0.0689299 2.67118 -2.20302e-19)
(0.0484481 2.6992 0)
(0.0265322 1.42395 2.78517e-20)
(0.0334882 1.4756 0)
(0.0288567 1.39192 0)
(0.023809 1.39553 -3.14264e-20)
(-0.000653056 2.65275 -1.72393e-20)
(0.028842 2.69824 1.7088e-19)
(0.00937641 2.72269 1.20876e-21)
(0.00194277 1.83284 1.32865e-21)
(-0.00382165 1.68494 -1.43589e-21)
(0.0152848 1.29795 0)
(0.0189393 1.22151 0)
(0.0461475 1.58372 -2.42382e-20)
(0.0292188 1.45766 -2.96852e-20)
(0.0360334 1.52239 3.74413e-20)
(0.0389673 1.60783 0)
(-0.0287485 2.26943 8.62182e-20)
(-0.0298753 2.54927 -3.57747e-20)
(-0.0164656 2.44646 2.71728e-21)
(-0.00427725 1.84954 -1.60997e-21)
(-0.0256435 2.49934 2.23751e-22)
(-0.0211551 2.44281 7.19994e-21)
(1.01886 0.0211293 -8.00877e-19)
(1.01465 0.0271889 8.03464e-19)
(1.01376 0.0166567 0)
(1.01169 0.0718884 1.12614e-18)
(0.99008 0.0597994 -1.2689e-18)
(0.947511 0.0495818 1.41791e-18)
(1.01451 0.111739 -1.50191e-19)
(1.04275 -0.0056954 0)
(1.05107 -0.00136669 7.21962e-19)
(1.03904 -0.00984058 -7.23466e-19)
(1.07133 0.0424526 -4.29405e-20)
(1.06461 0.0237534 3.70269e-19)
(1.06322 0.0561888 0)
(1.05356 0.0499416 -1.33167e-19)
(1.03256 0.0429748 0)
(1.02535 0.039269 0)
(1.02782 0.0133834 0)
(1.02393 0.0160581 0)
(1.03979 0.0323132 2.74337e-19)
(1.03911 0.0274186 -6.06524e-19)
(1.05105 0.0342069 -2.90681e-19)
(1.04818 0.0341769 -3.20255e-19)
(1.07128 0.0648315 6.24486e-19)
(1.09643 0.0523668 0)
(1.10515 0.0963263 0)
(-0.0244193 2.27439 4.80796e-20)
(-0.0225822 2.01612 1.88052e-22)
(-0.019194 2.0227 0)
(-0.02564 2.44388 -4.7869e-20)
(-0.0195497 2.39936 -6.86268e-22)
(-0.0309818 2.47166 4.49451e-21)
(-0.0211702 2.62202 -7.45321e-21)
(-0.022649 2.56343 -2.90151e-22)
(-0.021614 2.51498 -1.54152e-21)
(-0.0158249 2.61576 8.0601e-21)
(-0.0212551 2.61779 -8.21606e-21)
(-0.00447989 1.48905 -4.00942e-22)
(0.0044317 1.61798 -2.80132e-20)
(0.370319 1.4439 -1.17851e-19)
(0.370548 1.38158 3.29012e-20)
(0.661223 1.4203 -2.37946e-19)
(0.528377 1.48624 -1.43183e-19)
(0.587275 1.45232 0)
(0.593793 2.42495 2.06738e-19)
(0.661839 2.4196 3.37433e-19)
(0.411616 2.51531 8.73688e-20)
(0.403139 2.53987 -6.09074e-19)
(0.511229 2.48153 6.11529e-19)
(0.553621 2.46192 0)
(0.488845 2.51953 -5.5924e-19)
(0.248656 2.5925 1.14547e-18)
(0.354995 2.56459 -7.81113e-20)
(0.284371 2.65416 -1.5874e-18)
(0.947788 2.37685 7.26077e-19)
(0.838287 2.3823 0)
(1.01105 0.000492825 2.62332e-20)
(1.01532 -0.00541289 -2.12835e-20)
(1.01766 -0.00353303 -3.88737e-19)
(1.01501 -0.000887257 3.90768e-19)
(1.01243 0.00120145 0)
(0.647082 1.28703 0)
(0.669617 1.18267 0)
(0.782267 1.10033 0)
(0.662135 1.14561 0)
(1.18555 2.6156 5.97966e-20)
(1.07389 2.36271 0)
(0.835743 2.1698 3.80853e-21)
(0.825001 2.43506 0)
(0.92256 2.52795 -4.20462e-19)
(0.957874 2.48402 2.79721e-19)
(0.803718 0.178265 0)
(0.753327 0.153624 1.6256e-19)
(0.91313 0.149776 9.46307e-19)
(0.827651 0.152228 -3.55201e-19)
(0.786036 0.0876054 -1.09278e-18)
(1.08104 0.238375 -8.94064e-19)
(0.998491 0.299141 -1.66171e-20)
(0.929263 0.302112 8.6295e-19)
(1.00782 0.230525 7.21747e-19)
(0.950167 0.195443 -1.25279e-18)
(0.913639 0.199804 1.56611e-19)
(0.953285 0.263868 -3.32575e-19)
(0.92883 0.225959 0)
(0.99436 0.191815 6.17651e-19)
(1.04694 0.192 0)
(1.04443 0.219831 0)
(1.10664 0.119785 2.90113e-19)
(1.07087 0.178989 -1.48123e-20)
(1.07493 0.238635 -1.57828e-19)
(1.10139 0.204965 0)
(1.02315 0.047113 6.189e-19)
(1.03974 0.0597783 7.7145e-19)
(1.03397 0.0455305 -6.13617e-19)
(1.04297 0.0668281 -5.16986e-19)
(1.02007 0.0748256 -7.92385e-19)
(0.987235 0.16109 0)
(0.99604 0.106144 0)
(0.964567 0.0693494 -5.03964e-19)
(0.908635 0.0956503 1.98757e-19)
(1.03949 0.106527 7.14818e-19)
(1.06909 0.12316 -8.36716e-19)
(1.07488 0.15583 7.46968e-19)
(1.02999 0.146958 0)
(1.07473 0.111121 0)
(1.0548 0.0919379 -3.42664e-19)
(1.04357 0.0964387 -5.84424e-19)
(0.580089 1.06118 1.38781e-19)
(0.606772 1.38903 -4.02219e-20)
(1.15541 2.73153 -2.2491e-19)
(1.22129 3.07358 1.20261e-21)
(1.24737 2.7145 -1.19944e-19)
(1.2762 2.69797 -3.41856e-20)
(1.20392 2.33848 -1.08864e-20)
(1.20887 2.97749 -9.08634e-20)
(1.22884 2.94288 2.30622e-19)
(1.21167 3.22664 -1.44374e-19)
(1.37165 2.95787 1.9954e-19)
(1.36086 2.87603 0)
(0.556699 0.820465 -5.00079e-20)
(0.117989 1.23402 5.70307e-19)
(0.547669 0.385127 5.70193e-19)
(0.386385 0.13215 6.23235e-19)
(0.490311 0.334048 6.94261e-19)
(0.541373 0.444668 -1.11802e-18)
(0.543763 0.442254 9.14269e-19)
(0.474053 0.342698 -3.47587e-19)
(0.365886 0.272982 7.89441e-19)
(0.723089 0.264018 -3.57781e-19)
(0.684385 0.287341 0)
(0.642568 0.206465 7.57711e-21)
(0.737651 0.506359 3.71027e-19)
(0.711435 0.477238 -1.35099e-18)
(0.616012 0.451336 1.26089e-20)
(0.618815 0.441573 0)
(0.685489 0.720185 3.97737e-19)
(0.846279 0.777013 3.97906e-19)
(0.771166 0.859646 -4.65556e-19)
(0.894093 0.815431 -1.56426e-19)
(0.926181 0.859738 -3.79215e-20)
(0.933318 0.86007 3.88299e-20)
(0.858546 0.655421 -6.88483e-19)
(0.939897 0.709695 1.45292e-19)
(1.00058 0.725984 0)
(0.991279 0.702375 -1.96885e-19)
(1.02783 0.338694 2.14126e-19)
(1.14671 0.303184 2.90507e-19)
(1.06848 0.275513 3.65579e-19)
(1.01613 0.371058 -4.33503e-19)
(1.06392 0.434586 0)
(1.11976 0.417871 0)
(0.922649 0.373136 2.98287e-21)
(0.841778 0.307458 0)
(0.884544 0.30533 4.0688e-19)
(0.91142 0.309642 -6.91872e-21)
(0.951939 0.442179 2.07447e-18)
(0.91095 0.498391 5.35146e-19)
(0.91647 0.464923 -5.70002e-19)
(0.835831 0.449607 6.1091e-19)
(0.818284 0.442363 3.6671e-19)
(0.787097 0.424746 -3.60663e-19)
(1.02734 -0.000294372 6.47497e-19)
(1.02 1.69577e-05 0)
(1.01852 0.000942429 4.22183e-19)
(1.02169 -0.00161077 -9.56353e-19)
(1.02234 0.00442513 4.64601e-19)
(1.02033 0.0114153 -9.72925e-19)
(1.02125 0.010787 0)
(1.02052 0.0110119 -2.02774e-19)
(1.01595 0.00778888 5.08705e-19)
(1.01664 0.0105642 -2.53825e-19)
(1.01734 0.00991208 1.86936e-19)
(0.0283137 1.31921 0)
(0.0344488 1.36472 0)
(0.0428828 1.32025 0)
(0.0478836 1.27488 0)
(0.0701552 1.3886 -4.88149e-20)
(0.0768013 1.35778 2.16988e-20)
(0.114089 1.53095 -1.22866e-20)
(0.096135 1.37604 -7.43097e-21)
(0.0339483 1.46256 1.07149e-20)
(0.0378902 1.45568 -8.08993e-21)
(0.0621137 1.37329 -8.50095e-21)
(0.0542315 1.37446 4.20344e-20)
(0.0481155 1.34979 6.1038e-21)
(0.0388663 1.37284 2.77619e-21)
(0.107237 2.37135 -1.48594e-19)
(0.0960833 2.4187 0)
(0.171167 2.04628 1.06758e-19)
(0.111905 1.7104 3.81518e-20)
(0.233634 2.04093 -8.88384e-20)
(0.202397 2.43235 0)
(0.264035 2.38226 -6.01614e-19)
(0.304157 2.37988 4.25492e-19)
(0.230891 2.002 -2.4613e-19)
(0.155339 2.16121 1.67958e-19)
(0.142441 2.26937 0)
(0.0172865 1.8785 3.04572e-21)
(-0.00130373 2.39553 -3.95872e-20)
(0.00488051 2.15098 0)
(0.0104975 2.45791 -1.35474e-20)
(0.0271064 2.30197 1.01319e-20)
(0.0157114 1.40553 -5.78434e-21)
(0.0142097 1.39019 9.77251e-20)
(0.0135782 1.39539 -3.23369e-20)
(0.0204127 1.39641 -2.71209e-20)
(0.0251813 1.42774 0)
(0.00959064 1.37711 0)
(0.00049468 1.29179 -3.66589e-20)
(0.00734543 1.36844 1.03016e-20)
(0.00928233 1.36858 0)
(0.00745737 1.28546 -2.7023e-20)
(0.0156148 1.21126 5.53572e-20)
(1.04067 0.0118427 0)
(1.04681 0.00810311 -6.77391e-20)
(1.03858 0.0219196 -4.88827e-19)
(1.04824 0.0207598 0)
(1.05225 0.0206378 0)
(1.03627 0.0120282 -6.78256e-21)
(1.03096 0.0118572 7.85679e-19)
(1.0317 0.0167766 9.52576e-19)
(1.02552 0.020658 0)
(1.02239 0.0210251 0)
(1.03505 0.0256439 4.87696e-19)
(1.02562 0.027005 0)
(1.0237 0.027099 0)
(-0.0184394 2.0218 0)
(0.000976641 1.64802 -4.30652e-21)
(-0.00499837 1.75702 -2.82112e-20)
(0.00164321 1.37996 0)
(-0.00703389 1.54722 -1.4257e-20)
(-0.0071312 1.45716 9.3849e-21)
(-0.00106811 1.39314 0)
(0.391935 1.65369 0)
(0.374282 1.30967 -6.58285e-20)
(0.304125 1.34575 0)
(0.428327 1.30877 1.11591e-21)
(0.476121 1.46517 0)
(0.457141 1.4125 2.715e-20)
(1.03675 2.67811 -1.5351e-20)
(0.968463 2.4057 -9.12638e-19)
(0.921321 2.19321 1.02568e-18)
(0.852219 2.37412 2.41829e-19)
(0.848216 2.48842 0)
(0.918125 2.4844 0)
(0.931117 2.37049 0)
(0.909994 2.35958 -9.43125e-19)
(0.688495 2.4534 -3.92914e-19)
(0.801169 2.44297 -9.73535e-20)
(0.811605 2.41695 7.4014e-20)
(0.696005 2.39266 0)
(0.800949 2.38772 0)
(0.759251 2.40119 -3.68193e-19)
(0.768533 2.47867 0)
(0.627641 1.09387 0)
(0.481294 0.905852 -5.05718e-19)
(0.562615 0.946331 -3.20563e-20)
(0.52054 1.03936 0)
(0.520695 0.984011 7.58095e-19)
(0.792028 0.882556 -1.30547e-19)
(0.804873 1.01904 0)
(0.779727 0.985759 1.86677e-19)
(0.662182 1.03232 0)
(0.663598 0.935647 0)
(1.16432 2.75424 -2.28695e-19)
(1.14179 2.81757 -9.61547e-20)
(0.930234 2.33338 9.88003e-20)
(0.898145 2.3128 -8.28694e-20)
(1.12981 2.72729 0)
(1.0836 2.69686 9.97067e-20)
(1.08986 2.48082 -3.13557e-19)
(0.984512 2.23323 -3.04886e-20)
(0.495383 1.33782 0)
(0.510206 1.06551 -1.22349e-19)
(0.576467 1.1685 0)
(0.855141 0.244539 0)
(0.769925 0.194038 0)
(0.695177 0.155653 0)
(0.847711 0.245846 -6.40429e-19)
(0.741871 0.236539 3.73277e-19)
(0.925029 0.08355 -4.10322e-19)
(0.935467 0.128609 0)
(0.919179 0.138315 1.76913e-19)
(0.854778 0.115995 7.08714e-19)
(0.81978 0.0758002 -4.43989e-19)
(1.1574 3.35171 -7.21612e-19)
(1.20609 3.27115 0)
(1.15513 3.38045 -1.4921e-18)
(0.643207 3.54175 1.26664e-18)
(0.86593 3.11024 7.47733e-20)
(0.519867 0.813335 6.02545e-19)
(0.426204 0.809961 0)
(0.316697 0.419442 -1.49628e-19)
(0.464972 0.657471 8.57432e-19)
(0.550529 0.38751 -1.99802e-19)
(0.512327 0.474678 2.33096e-19)
(0.669685 0.516363 5.00428e-19)
(0.705849 0.550582 0)
(0.656439 0.584846 0)
(0.618571 0.532471 0)
(1.00189 0.61209 9.08721e-20)
(0.915868 0.54844 -5.20875e-19)
(0.941358 0.581152 3.93125e-19)
(0.973854 0.519704 -4.02629e-19)
(1.08127 0.491611 0)
(1.0896 0.581249 -9.86312e-20)
(0.857357 0.402906 -8.37819e-19)
(0.858059 0.391809 -1.03754e-18)
(0.796061 0.387809 6.53157e-19)
(0.801685 0.362731 -6.65469e-19)
(0.846317 0.325815 -5.24055e-19)
(0.795162 0.325929 6.41685e-19)
(1.02666 0.00596077 -4.93906e-19)
(1.02637 0.00618187 1.00455e-18)
(1.0294 0.00013212 6.27495e-19)
(1.03359 0.00103618 -7.55742e-19)
(1.03374 0.00909597 0)
(1.03004 0.00978269 -1.23023e-18)
(0.0628474 1.64371 2.01428e-20)
(0.0460464 1.58344 0)
(0.0864416 1.69466 1.18967e-19)
(0.0969513 1.67682 -1.04212e-19)
(0.088979 1.54043 2.30329e-20)
(0.0878731 1.5315 0)
(0.0101095 1.68085 0)
(-0.00363292 1.48578 4.98177e-21)
(-0.00329088 1.43208 -4.47927e-21)
(-0.00747146 1.54399 5.18558e-21)
(0.00104546 1.88235 7.38602e-21)
(-0.0108822 1.93516 -1.8113e-22)
(0.49888 1.36337 -2.72924e-19)
(0.492368 1.36541 2.99785e-19)
(0.455225 1.30307 -2.84706e-20)
(0.43894 1.29031 7.67235e-21)
(0.63888 1.30565 0)
(0.555133 1.3951 1.06481e-19)
(0.5704 1.40063 -1.03678e-19)
(0.46864 1.2908 2.76865e-20)
(0.522636 1.24227 0)
(0.574587 1.20473 0)
(0.655681 2.41314 5.77201e-19)
(0.670604 2.45426 1.25873e-18)
(0.715173 2.465 -8.67105e-19)
(0.611464 2.43952 -2.01671e-19)
(0.561308 2.52969 2.82779e-19)
(0.510117 2.5042 -7.54026e-19)
(0.978464 2.37678 -5.73888e-19)
(1.01316 2.38908 0)
(0.926035 2.17099 -6.60966e-19)
(1.0544 2.67597 0)
(1.05668 2.66262 0)
(0.602715 2.26221 -1.19824e-19)
(1.03855 3.15614 1.34437e-19)
(0.909588 3.02655 -3.8758e-20)
(0.269692 0.866281 0)
(0.299431 0.714316 -3.16442e-19)
(0.466999 0.672452 -3.17477e-19)
(0.382114 2.00729 0)
(0.463358 2.78068 -5.20484e-20)
(0.417901 2.54351 0)
(0.706341 0.670896 -8.41208e-19)
(0.787941 0.681156 1.13343e-18)
(0.810404 0.624818 -1.12031e-18)
(0.686195 0.634292 -1.08272e-19)
(0.741008 0.590888 -4.45206e-19)
(1.00179 2.75653 -1.02239e-19)
(1.04164 2.8163 -1.60925e-19)
(0.634494 2.12972 6.81705e-19)
(0.587759 1.69726 -4.86037e-19)
(0.695605 1.89414 -4.02602e-19)
(0.987825 2.44007 -1.13073e-19)
(0.994367 2.43316 2.93033e-19)
(0.653261 1.82958 2.79454e-20)
(0.443897 1.31726 1.43081e-19)
)
;

boundaryField
{
    wall-4
    {
        type            noSlip;
    }
    velocity-inlet-5
    {
        type            fixedValue;
        value           uniform (1 0 0);
    }
    velocity-inlet-6
    {
        type            fixedValue;
        value           uniform (0 3 0);
    }
    pressure-outlet-7
    {
        type            zeroGradient;
    }
    wall-8
    {
        type            noSlip;
    }
    frontAndBackPlanes
    {
        type            empty;
    }
}


// ************************************************************************* //
