/*--------------------------------*- C++ -*----------------------------------*\
| =========                 |                                                 |
| \\      /  F ield         | OpenFOAM: The Open Source CFD Toolbox           |
|  \\    /   O peration     | Version:  4.0                                   |
|   \\  /    A nd           | Web:      www.OpenFOAM.org                      |
|    \\/     M anipulation  |                                                 |
\*---------------------------------------------------------------------------*/
FoamFile
{
    version     2.0;
    format      ascii;
    class       volScalarField;
    location    "68";
    object      p;
}
// * * * * * * * * * * * * * * * * * * * * * * * * * * * * * * * * * * * * * //

dimensions      [0 2 -2 0 0 0 0];

internalField   nonuniform List<scalar> 
8800
(
0.867115
0.81933
0.780643
0.751652
0.730794
0.715972
0.70539
0.69793
0.693138
0.69112
0.692431
0.696656
0.703328
0.712663
0.725456
0.743199
0.767983
0.801928
0.844481
0.903183
0.698358
0.706037
0.713517
0.716828
0.71533
0.710259
0.703784
0.697724
0.693026
0.690218
0.689981
0.692529
0.69705
0.703019
0.709804
0.716095
0.719744
0.719011
0.713597
0.704911
0.676753
0.682914
0.687043
0.689993
0.692049
0.692663
0.691572
0.689489
0.687505
0.68664
0.68765
0.690071
0.692899
0.695102
0.695724
0.694536
0.692202
0.688815
0.684259
0.680499
0.670928
0.67358
0.676335
0.678743
0.680386
0.681558
0.682316
0.682458
0.682198
0.682196
0.683
0.684214
0.685086
0.685175
0.684584
0.683505
0.681698
0.679134
0.676736
0.675232
0.665528
0.666953
0.668736
0.670774
0.672567
0.67392
0.674928
0.675753
0.676408
0.677026
0.677737
0.678282
0.678419
0.67816
0.677483
0.67625
0.674565
0.672726
0.671423
0.670591
0.660426
0.661346
0.662592
0.664165
0.665807
0.667346
0.668653
0.669751
0.670762
0.671718
0.672476
0.672862
0.672863
0.672457
0.671601
0.670419
0.669106
0.667856
0.667038
0.666487
0.655487
0.656157
0.657123
0.658433
0.659854
0.661328
0.662791
0.66415
0.665401
0.666581
0.667483
0.667919
0.667887
0.667418
0.666642
0.665717
0.664722
0.663811
0.66323
0.662824
0.650664
0.651181
0.651969
0.653107
0.654398
0.65579
0.657263
0.658776
0.660264
0.661685
0.662786
0.663338
0.663375
0.663038
0.662472
0.661775
0.661023
0.660354
0.659925
0.659607
0.645884
0.646295
0.646956
0.647971
0.649191
0.650539
0.652016
0.653618
0.655308
0.657003
0.65836
0.659114
0.659353
0.659243
0.658904
0.658422
0.657879
0.657404
0.657087
0.656828
0.64106
0.641395
0.641967
0.642904
0.644078
0.645414
0.64693
0.648636
0.650521
0.652516
0.654204
0.655264
0.65579
0.65594
0.655838
0.655586
0.655241
0.654928
0.654695
0.654478
0.636102
0.636379
0.636891
0.637783
0.638941
0.640305
0.641898
0.643751
0.645874
0.648216
0.65032
0.651774
0.652644
0.653093
0.653252
0.653231
0.653084
0.652915
0.652751
0.652562
0.63092
0.631153
0.631625
0.632503
0.633685
0.63512
0.636834
0.638888
0.641315
0.644089
0.646702
0.648629
0.649902
0.650695
0.651145
0.651364
0.65142
0.651383
0.651275
0.651106
0.62542
0.625617
0.62607
0.626964
0.628211
0.629761
0.631652
0.633975
0.636787
0.640101
0.643331
0.64582
0.647566
0.648753
0.649531
0.65001
0.650284
0.650372
0.650312
0.650156
0.619498
0.619667
0.620118
0.621055
0.622409
0.624126
0.626261
0.628932
0.632234
0.636213
0.640191
0.643353
0.645655
0.647296
0.64845
0.64924
0.649733
0.649943
0.649922
0.649775
0.613033
0.613178
0.613642
0.614653
0.61616
0.618104
0.62056
0.623675
0.62759
0.632385
0.637268
0.641232
0.644196
0.646373
0.647956
0.649089
0.64983
0.650167
0.650184
0.65004
0.605885
0.606005
0.606496
0.607612
0.609324
0.611565
0.61443
0.61811
0.622786
0.628579
0.634552
0.639475
0.64322
0.646029
0.648119
0.649644
0.650667
0.651134
0.651186
0.651041
0.597862
0.597967
0.598501
0.599756
0.601732
0.604347
0.607735
0.612123
0.617741
0.62475
0.632036
0.6381
0.642767
0.646319
0.649017
0.651006
0.65234
0.652945
0.653027
0.652878
0.588743
0.588843
0.589433
0.59085
0.593157
0.596262
0.600313
0.605586
0.612368
0.62086
0.629719
0.637136
0.642891
0.647317
0.650735
0.653262
0.65495
0.655701
0.655812
0.655654
0.578207
0.578287
0.578967
0.580609
0.583353
0.587081
0.591966
0.598351
0.606575
0.616871
0.62761
0.636619
0.643653
0.649108
0.653344
0.656517
0.658601
0.659501
0.659636
0.659466
0.565871
0.565937
0.566717
0.56867
0.571973
0.5765
0.582454
0.590245
0.600263
0.612752
0.625725
0.636597
0.645109
0.651762
0.656958
0.660864
0.663379
0.664429
0.66458
0.664395
0.551171
0.551227
0.55215
0.55452
0.558563
0.564142
0.571486
0.581078
0.593338
0.608488
0.624094
0.637119
0.647323
0.655343
0.661647
0.666377
0.669345
0.670532
0.670689
0.670485
0.533334
0.533378
0.534516
0.537472
0.542529
0.54953
0.558726
0.570659
0.585735
0.6041
0.622773
0.63825
0.650362
0.65992
0.667441
0.67309
0.676508
0.677804
0.677953
0.677728
0.511184
0.511225
0.512712
0.516554
0.523071
0.532075
0.543808
0.558831
0.577451
0.599668
0.621859
0.640066
0.654276
0.665532
0.674377
0.68098
0.684801
0.686156
0.686276
0.686031
0.482951
0.483014
0.485095
0.490366
0.499159
0.511104
0.526416
0.545542
0.568589
0.595348
0.621492
0.642661
0.659114
0.672167
0.682427
0.689942
0.69406
0.695394
0.695463
0.6952
0.445571
0.445737
0.44904
0.456948
0.469578
0.486025
0.506441
0.530956
0.559416
0.591401
0.621861
0.64614
0.664916
0.679809
0.691489
0.69977
0.703997
0.705208
0.705205
0.704931
0.393161
0.394161
0.400736
0.41407
0.433374
0.45679
0.484246
0.515569
0.550404
0.588181
0.623175
0.650609
0.671696
0.688368
0.701351
0.710132
0.714213
0.715198
0.715118
0.714841
0.316706
0.324096
0.339311
0.362825
0.392065
0.424815
0.460874
0.500034
0.541929
0.585966
0.625786
0.656563
0.680111
0.698687
0.712863
0.721907
0.725681
0.72643
0.726301
0.726059
0.234572
0.252037
0.276686
0.310999
0.350578
0.39279
0.437499
0.484656
0.533966
0.584884
0.630354
0.665172
0.691627
0.712371
0.727833
0.736663
0.739725
0.740186
0.740086
0.739923
0.166091
0.186664
0.219098
0.262589
0.311282
0.362399
0.415496
0.470492
0.527064
0.584647
0.635465
0.674024
0.703079
0.725563
0.741477
0.749731
0.752286
0.752688
0.752648
0.752527
0.110006
0.132248
0.170238
0.220211
0.276106
0.334724
0.39524
0.457434
0.520832
0.584762
0.640652
0.682697
0.714092
0.737949
0.754342
0.762408
0.764747
0.765113
0.765108
0.765018
0.0633499
0.0867721
0.128571
0.183687
0.245371
0.310184
0.377074
0.445671
0.515329
0.58521
0.64593
0.691303
0.724951
0.75028
0.767263
0.77526
0.777621
0.77797
0.777993
0.777928
0.0238461
0.0479192
0.0926032
0.151783
0.218336
0.288425
0.360859
0.435158
0.510535
0.585993
0.651331
0.699944
0.735826
0.762588
0.780278
0.788677
0.791059
0.791402
0.791431
0.791381
-0.0105497
0.0139372
0.0608874
0.123427
0.194098
0.268781
0.346139
0.425599
0.506266
0.586981
0.656751
0.708517
0.746604
0.77484
0.793451
0.802219
0.804749
0.805105
0.805137
0.805108
-0.041351
-0.0165081
0.0322867
0.0976915
0.171921
0.25064
0.332426
0.416611
0.502204
0.587915
0.661971
0.716831
0.757105
0.78681
0.806258
0.815519
0.818257
0.818636
0.818669
0.818652
-0.0695446
-0.0443882
0.00598015
0.0738658
0.151223
0.233527
0.319303
0.407827
0.49805
0.588558
0.666794
0.724683
0.767069
0.798211
0.8185
0.828198
0.831163
0.831615
0.831626
0.831612
-0.09595
-0.0704371
-0.018655
0.0513995
0.131551
0.217059
0.306451
0.398985
0.493576
0.588708
0.671053
0.731925
0.776373
0.808876
0.82992
0.840046
0.843183
0.843675
0.843672
0.843646
-0.120957
-0.0950912
-0.0419996
0.029924
0.112579
0.200967
0.293647
0.389886
0.488592
0.588205
0.67463
0.73848
0.784947
0.81873
0.840422
0.85082
0.854085
0.854586
0.854549
0.85451
-0.14502
-0.118737
-0.0646097
0.00919828
0.0940782
0.185056
0.280725
0.380379
0.482965
0.586932
0.677448
0.744324
0.792791
0.827731
0.84991
0.860497
0.863795
0.86428
0.864208
0.864153
-0.168276
-0.141497
-0.0864353
-0.0109639
0.0759009
0.169203
0.26758
0.37038
0.476612
0.584802
0.679445
0.749452
0.799965
0.835986
0.858517
0.869105
0.872368
0.872822
0.87272
0.872647
-0.19088
-0.163682
-0.107578
-0.0306756
0.0579718
0.153351
0.254165
0.359835
0.469469
0.581739
0.680561
0.75388
0.806569
0.843658
0.86637
0.876795
0.879926
0.88033
0.880206
0.880117
-0.212964
-0.185269
-0.128181
-0.0499823
0.0402468
0.137477
0.240471
0.348738
0.461514
0.577688
0.680738
0.757609
0.812722
0.850921
0.87366
0.883724
0.886603
0.886915
0.886764
0.886662
-0.234595
-0.206293
-0.148317
-0.0688996
0.0227382
0.121592
0.226523
0.33711
0.452751
0.572607
0.679908
0.760617
0.818516
0.858001
0.880615
0.890049
0.892496
0.892664
0.892488
0.892381
-0.255619
-0.226747
-0.167914
-0.0874175
0.00546108
0.105744
0.212364
0.325007
0.443219
0.566497
0.67799
0.762846
0.823996
0.865124
0.887589
0.896037
0.897742
0.89767
0.897479
0.897378
-0.276029
-0.246608
-0.186972
-0.105498
-0.0115406
0.08998
0.198071
0.312492
0.432978
0.559367
0.674923
0.764178
0.829124
0.872482
0.895062
0.902246
0.902672
0.902057
0.901848
0.901811
-0.295894
-0.265852
-0.20548
-0.123122
-0.0282127
0.0743729
0.183719
0.299656
0.422107
0.551263
0.670638
0.764456
0.833755
0.880098
0.903527
0.909634
0.908147
0.906236
0.905816
0.90611
-0.315058
-0.284465
-0.223388
-0.140241
-0.0445044
0.0589983
0.169397
0.286602
0.410709
0.542265
0.665103
0.763485
0.837623
0.887708
0.91315
0.919363
0.916245
0.91196
0.909983
0.909981
-0.333614
-0.302443
-0.240717
-0.15689
-0.0604509
0.0438128
0.155049
0.273275
0.398723
0.532302
0.658184
0.760987
0.84044
0.894874
0.923484
0.931944
0.92935
0.92217
0.91472
0.901223
-0.351495
-0.319773
-0.257584
-0.173266
-0.07633
0.0284964
0.140276
0.259215
0.385639
0.520775
0.64928
0.756246
0.841744
0.901047
0.9331
0.945607
0.944082
0.930457
0.909705
0.899369
-0.368535
-0.336611
-0.273803
-0.189181
-0.0917886
0.0133858
0.125294
0.244733
0.371745
0.507912
0.638401
0.748705
0.840576
0.904995
0.937956
0.950522
0.950607
0.925484
0.858281
0.82833
-0.384078
-0.354228
-0.289072
-0.204161
-0.106026
-0.0010188
0.110422
0.230057
0.357253
0.493825
0.625443
0.737982
0.835337
0.905894
0.932669
0.940183
0.925251
0.86887
0.799495
0.757009
-0.43871
-0.369752
-0.302868
-0.219335
-0.120707
-0.0162101
0.0955864
0.214894
0.341777
0.478027
0.609746
0.723307
0.821927
0.899428
0.90041
0.899259
0.844559
0.771333
0.693649
0.650441
-0.400394
-0.384481
-0.323448
-0.238812
-0.142438
-0.0379755
0.0727932
0.191482
0.317441
0.452415
0.582474
0.69484
0.786491
0.869768
0.851864
0.73273
0.623966
0.548347
0.473615
0.502504
-0.430621
-0.401619
-0.339711
-0.255924
-0.159595
-0.0552521
0.0557982
0.173861
0.298774
0.431997
0.559354
0.667553
0.749397
0.793517
0.74141
0.58714
0.455912
0.362248
0.262344
0.310854
-0.453887
-0.421969
-0.358945
-0.275036
-0.178591
-0.0743595
0.0366071
0.153836
0.277356
0.408189
0.531834
0.633743
0.706469
0.715579
0.604689
0.428144
0.272615
0.151686
0.0193375
0.051344
-0.4766
-0.443202
-0.379059
-0.294253
-0.197741
-0.0936739
0.0167549
0.133012
0.25493
0.382965
0.501878
0.595718
0.652697
0.629975
0.467171
0.267824
0.0753936
-0.0940541
-0.283364
-0.302912
-0.498712
-0.464899
-0.399907
-0.314352
-0.217724
-0.113899
-0.00414138
0.11101
0.23105
0.355857
0.46927
0.554849
0.591896
0.531987
0.336133
0.123011
-0.0959216
-0.286286
-0.528742
-0.824785
-0.521112
-0.487314
-0.421819
-0.335812
-0.239027
-0.135397
-0.0262463
0.0877524
0.20579
0.327072
0.434609
0.511549
0.526723
0.415143
0.221968
0.00962061
-0.196366
-0.369807
-0.440219
-0.518703
-0.544745
-0.510906
-0.445141
-0.358944
-0.262139
-0.158804
-0.0503585
0.0623051
0.178005
0.295204
0.396409
0.461989
0.451673
0.306293
0.120349
-0.0729499
-0.237696
-0.331836
-0.35621
-0.372022
-0.569913
-0.535968
-0.470041
-0.383821
-0.287189
-0.184327
-0.0768346
0.0341813
0.147111
0.259551
0.35392
0.404856
0.376562
0.205101
0.0281815
-0.139947
-0.26829
-0.308021
-0.320839
-0.322133
-0.596815
-0.562673
-0.496583
-0.410439
-0.314125
-0.211971
-0.105694
0.00333137
0.113043
0.220131
0.306702
0.342867
0.294221
0.111651
-0.056151
-0.206678
-0.284156
-0.301297
-0.302651
-0.302457
-0.62551
-0.591084
-0.524795
-0.438798
-0.342966
-0.241725
-0.13694
-0.0302583
0.075813
0.177024
0.254882
0.279122
0.193782
0.0263011
-0.133027
-0.257026
-0.294231
-0.292692
-0.291834
-0.29125
-0.655713
-0.621025
-0.554575
-0.468812
-0.373627
-0.273537
-0.170542
-0.0665598
0.0354638
0.130344
0.199367
0.206283
0.10258
-0.0528256
-0.193945
-0.271068
-0.281493
-0.284213
-0.284915
-0.284653
-0.686876
-0.652044
-0.585668
-0.500259
-0.405923
-0.307253
-0.206351
-0.105441
-0.00781398
0.0804596
0.140684
0.132307
0.0207856
-0.11978
-0.238717
-0.270585
-0.279069
-0.280501
-0.280263
-0.279968
-0.718539
-0.683602
-0.61762
-0.532745
-0.439515
-0.342554
-0.244088
-0.146613
-0.0537292
0.0280751
0.0779204
0.062188
-0.0543844
-0.173924
-0.268777
-0.28646
-0.277714
-0.27683
-0.276818
-0.276589
-0.749803
-0.714987
-0.649583
-0.565675
-0.473864
-0.378974
-0.283308
-0.189598
-0.101812
-0.0261579
0.0139081
-0.00185807
-0.120436
-0.214835
-0.269079
-0.27971
-0.27704
-0.275867
-0.275314
-0.275091
-0.779134
-0.745027
-0.680584
-0.598136
-0.508214
-0.41582
-0.323366
-0.233718
-0.151261
-0.0816344
-0.0450746
-0.0721318
-0.174246
-0.254043
-0.254204
-0.273383
-0.2776
-0.27591
-0.275229
-0.274807
-0.804922
-0.771882
-0.709501
-0.628964
-0.54154
-0.452171
-0.363407
-0.278134
-0.200947
-0.13747
-0.100912
-0.139166
-0.220493
-0.28133
-0.298189
-0.289276
-0.284267
-0.282011
-0.281018
-0.280373
-0.825052
-0.793742
-0.734235
-0.656758
-0.572567
-0.486907
-0.40236
-0.321836
-0.249759
-0.192346
-0.157958
-0.192198
-0.254098
-0.328124
-0.353127
-0.318757
-0.299058
-0.294405
-0.292181
-0.291058
-0.837312
-0.808702
-0.75298
-0.679619
-0.599815
-0.518721
-0.439051
-0.363641
-0.296667
-0.244616
-0.212222
-0.232831
-0.257763
-0.314452
-0.305827
-0.298452
-0.298206
-0.297632
-0.29655
-0.29642
-0.839089
-0.814518
-0.763747
-0.695776
-0.621603
-0.546208
-0.472171
-0.402325
-0.34058
-0.293091
-0.256735
-0.262337
-0.232392
-0.216599
-0.238922
-0.26548
-0.278983
-0.284601
-0.287249
-0.288132
-0.828158
-0.808391
-0.764372
-0.703643
-0.636472
-0.567906
-0.500391
-0.436618
-0.380406
-0.337091
-0.294488
-0.291427
-0.244381
-0.16578
-0.219043
-0.26902
-0.291069
-0.299751
-0.303127
-0.304153
-0.802614
-0.787785
-0.753067
-0.701971
-0.643418
-0.582815
-0.522543
-0.465182
-0.414806
-0.376325
-0.332372
-0.3427
-0.364523
-0.365487
-0.380199
-0.370195
-0.35837
-0.351963
-0.349176
-0.348829
-0.765007
-0.755462
-0.730662
-0.690902
-0.642397
-0.590629
-0.537903
-0.486932
-0.441957
-0.40892
-0.384599
-0.409434
-0.512168
-0.697373
-0.672321
-0.506237
-0.406658
-0.37
-0.359459
-0.356092
-0.722014
-0.716598
-0.701961
-0.673218
-0.635303
-0.59207
-0.546482
-0.501109
-0.460052
-0.429945
-0.40629
-0.396835
-0.360684
-0.348703
-0.323085
-0.27947
-0.265223
-0.261225
-0.257238
-0.253901
-0.683311
-0.680032
-0.673061
-0.654266
-0.62505
-0.588986
-0.549285
-0.507697
-0.467654
-0.433841
-0.411694
-0.327608
-0.151997
0.0724533
0.237735
0.15784
-0.00265621
-0.120164
-0.156195
-0.166372
-0.655372
-0.653325
-0.649741
-0.638324
-0.615487
-0.584469
-0.548255
-0.50836
-0.466042
-0.427451
-0.402029
-0.351677
-0.31689
-0.371994
-0.572584
-0.828209
-0.974848
-0.943849
-0.825918
-0.791925
-0.634223
-0.633442
-0.632252
-0.626606
-0.609373
-0.581295
-0.545847
-0.504676
-0.459559
-0.413199
-0.38113
-0.38801
-0.518047
-0.839849
-1.22719
-1.43495
-1.48658
-1.37256
-1.21919
-1.1496
-0.622061
-0.621809
-0.621279
-0.618749
-0.606424
-0.579606
-0.542872
-0.499106
-0.448997
-0.38966
-0.342658
-0.303142
-0.373798
-0.512636
-0.703934
-0.791298
-0.676401
-0.464371
-0.290016
-0.208613
-0.613438
-0.613369
-0.613054
-0.612304
-0.60446
-0.579313
-0.540968
-0.49334
-0.435377
-0.36686
-0.289982
-0.193364
-0.067966
0.112281
0.347697
0.585131
0.861594
1.07577
1.19096
1.23262
-0.607067
-0.606996
-0.606688
-0.606558
-0.601548
-0.580595
-0.541126
-0.488629
-0.424459
-0.34408
-0.240432
-0.134274
0.0832048
0.445807
0.881186
1.31327
1.65599
1.8606
1.94644
1.96831
-0.60342
-0.603149
-0.602272
-0.600466
-0.598864
-0.584579
-0.544685
-0.487634
-0.417606
-0.326963
-0.217673
-0.10234
0.104969
0.497815
0.939811
1.34024
1.64493
1.81662
1.88343
1.89813
-0.603968
-0.604387
-0.605431
-0.606508
-0.607216
-0.59514
-0.552106
-0.492314
-0.417911
-0.324413
-0.215592
-0.102775
0.0488126
0.393653
0.753612
1.07171
1.30268
1.42718
1.47339
1.48258
-0.60541
-0.606762
-0.610466
-0.618413
-0.624328
-0.60612
-0.560975
-0.502565
-0.426747
-0.331543
-0.227955
-0.123325
-0.00750986
0.248262
0.517627
0.739471
0.896578
0.976479
1.00451
1.00795
-0.622844
-0.623212
-0.617261
-0.598304
-0.579293
-0.57489
-0.563999
-0.519953
-0.443074
-0.346515
-0.247749
-0.154603
-0.063132
0.112087
0.289688
0.428754
0.521644
0.564945
0.581378
0.585797
-0.669879
-0.667408
-0.648722
-0.60159
-0.55868
-0.566127
-0.589334
-0.548899
-0.463916
-0.362967
-0.272043
-0.192919
-0.121519
0.00141736
0.117473
0.195901
0.240871
0.261949
0.272357
0.276711
-0.754134
-0.756217
-0.773989
-0.800939
-0.799771
-0.774176
-0.719923
-0.604871
-0.48878
-0.379168
-0.292967
-0.228067
-0.174276
-0.0851433
-0.00512503
0.0489354
0.0782772
0.093307
0.102645
0.105786
-0.903693
-0.927234
-0.984106
-1.03619
-1.0443
-0.99831
-0.853733
-0.666448
-0.508281
-0.387343
-0.305698
-0.256011
-0.221025
-0.141797
-0.071655
-0.0216858
0.012088
0.0311474
0.0399758
0.041606
-0.974997
-1.00052
-1.04339
-1.07919
-1.08445
-1.03081
-0.870589
-0.666691
-0.499572
-0.377952
-0.303094
-0.265205
-0.2377
-0.168878
-0.104922
-0.0576995
-0.0223099
-0.00317644
0.0038985
0.004664
-0.853213
-0.874624
-0.910344
-0.944444
-0.951609
-0.897883
-0.743778
-0.581361
-0.444489
-0.342677
-0.280294
-0.250183
-0.224116
-0.167257
-0.114366
-0.0727259
-0.0414638
-0.0235831
-0.0169193
-0.0172935
-0.55225
-0.570073
-0.603666
-0.640788
-0.658391
-0.624016
-0.535397
-0.438192
-0.353394
-0.285932
-0.239344
-0.211262
-0.186693
-0.145742
-0.107572
-0.0771934
-0.0545695
-0.0412675
-0.0371337
-0.0377743
-0.200098
-0.210679
-0.233217
-0.265856
-0.295793
-0.308041
-0.301557
-0.279475
-0.250546
-0.217507
-0.187681
-0.161869
-0.138769
-0.116556
-0.0942744
-0.0751401
-0.0604322
-0.0520982
-0.049879
-0.0510951
0.0542042
0.0490308
0.0337161
0.00473063
-0.0375079
-0.0828666
-0.119442
-0.144655
-0.154727
-0.149963
-0.135228
-0.115719
-0.0986151
-0.0891222
-0.080094
-0.0714322
-0.0635001
-0.0590672
-0.0583003
-0.0598299
0.17213
0.169004
0.157778
0.132642
0.0911128
0.0386883
-0.0129261
-0.0546018
-0.0818328
-0.0933667
-0.0893273
-0.0776272
-0.0693031
-0.0701583
-0.07147
-0.0711064
-0.0708514
-0.0716371
-0.0728805
-0.0741987
0.197571
0.195502
0.187316
0.167932
0.134478
0.090663
0.0433646
0.000133516
-0.0330451
-0.0518286
-0.0545934
-0.0501094
-0.0492687
-0.0572578
-0.0660923
-0.0745265
-0.0814164
-0.0877866
-0.0905704
-0.0912543
0.180663
0.179336
0.173741
0.160129
0.136127
0.103388
0.0654285
0.0284337
-0.00289069
-0.0235817
-0.0296918
-0.0275201
-0.029675
-0.0431448
-0.0592711
-0.0735119
-0.0858911
-0.0947211
-0.0977426
-0.097984
0.149803
0.14902
0.145385
0.136301
0.119891
0.0966471
0.0680972
0.0384639
0.011387
-0.00817753
-0.0147838
-0.0110032
-0.0116342
-0.0307993
-0.0508403
-0.0669953
-0.0796124
-0.0871795
-0.0894125
-0.0896451
0.116959
0.116637
0.114386
0.108523
0.0975939
0.0814837
0.0607076
0.0378184
0.0150625
-0.00374531
-0.0129581
-0.0115233
-0.0121603
-0.0309539
-0.0482711
-0.0604515
-0.0687819
-0.0726943
-0.0738131
-0.0741879
0.08705
0.0867888
0.0854209
0.0817203
0.0745616
0.06358
0.0487433
0.0312967
0.0121921
-0.00739733
-0.0241617
-0.0350388
-0.0421861
-0.051581
-0.0566183
-0.0590221
-0.0606151
-0.0609059
-0.0611924
-0.0617098
0.060944
0.0608425
0.0600225
0.0577869
0.053249
0.045917
0.0355591
0.0224656
0.00646694
-0.0138921
-0.040696
-0.0745193
-0.0920245
-0.0823778
-0.0705987
-0.0625071
-0.0587125
-0.0570842
-0.0567085
-0.0570829
0.0386458
0.038618
0.0382058
0.0369985
0.0343893
0.0298684
0.023115
0.0139778
0.00167059
-0.0174559
-0.0487972
-0.0952149
-0.116159
-0.0943795
-0.0727177
-0.0621949
-0.0579074
-0.0561147
-0.0552399
-0.0551947
0.0197702
0.0197982
0.0196693
0.0191794
0.0179345
0.0156953
0.0121403
0.00700642
-0.000272121
-0.0133006
-0.0378014
-0.0758247
-0.0885908
-0.0676109
-0.0518023
-0.0463277
-0.0452222
-0.0448299
-0.0439258
-0.043496
0.00342967
0.00348848
0.00345118
0.00353556
0.00370837
0.00359368
0.00309397
0.00225742
0.000958322
-0.00106371
-0.00510338
-0.0137072
-0.0200027
-0.0173234
-0.01657
-0.0157063
-0.014819
-0.0136167
-0.0126236
-0.0117303
-0.0577577
0.108021
0.301214
0.469744
0.603892
0.708895
0.795357
0.869035
0.90282
0.8796
0.241452
0.361188
0.489868
0.600838
0.694087
0.77101
0.83325
0.877492
0.899641
0.911841
0.457902
0.539914
0.627819
0.705278
0.771791
0.827408
0.871662
0.90404
0.927525
0.945591
0.617128
0.675893
0.736699
0.793247
0.84233
0.884036
0.918332
0.945736
0.968386
0.986737
0.741451
0.784129
0.829703
0.873101
0.911466
0.944996
0.973727
0.997675
1.01797
1.03584
0.845074
0.877696
0.915548
0.950839
0.983259
1.01234
1.03778
1.05918
1.07698
1.09434
0.937189
0.965737
0.999534
1.03152
1.06134
1.08842
1.11209
1.13175
1.14722
1.1643
1.02552
1.05463
1.08854
1.12049
1.15002
1.17654
1.19936
1.21781
1.23116
1.24819
1.12067
1.15382
1.19041
1.22393
1.25393
1.28008
1.302
1.31926
1.33111
1.34851
1.23558
1.27337
1.31198
1.34619
1.37551
1.40023
1.42058
1.43646
1.44791
1.46598
1.38046
1.41899
1.4551
1.48577
1.51143
1.53351
1.55256
1.56808
1.58049
1.59849
1.5555
1.58712
1.61328
1.63572
1.65568
1.67439
1.6921
1.70858
1.72392
1.74199
1.7441
1.76129
1.77632
1.79254
1.80844
1.82297
1.83617
1.8501
1.86763
1.88779
1.92581
1.93534
1.94688
1.95768
1.96697
1.97654
1.98732
1.99869
2.01005
2.0254
2.13303
2.13669
2.12174
2.10694
2.10066
2.10633
2.12481
2.15512
2.18729
2.21395
2.43935
2.30449
2.22785
2.18546
2.16803
2.172
2.19939
2.25581
2.35843
2.58279
0.757712
0.755584
0.751102
0.74248
0.73026
0.718138
0.707919
0.700038
0.694441
0.691215
0.690894
0.693665
0.698794
0.706035
0.715435
0.726983
0.739639
0.750678
0.756791
0.759847
0.682156
0.688004
0.694339
0.698835
0.70131
0.700992
0.698265
0.69447
0.690982
0.688751
0.68864
0.690872
0.694561
0.698869
0.702689
0.704581
0.703651
0.700174
0.695013
0.688393
0.673717
0.676013
0.679419
0.682419
0.684499
0.686004
0.68677
0.68647
0.685468
0.684618
0.684831
0.686295
0.688138
0.689465
0.689659
0.68878
0.687238
0.684908
0.681648
0.678729
0.668184
0.66927
0.671106
0.673488
0.675518
0.676955
0.677988
0.678759
0.679187
0.679446
0.679981
0.680829
0.681458
0.681548
0.681152
0.680316
0.678855
0.676778
0.674697
0.673315
0.662953
0.663615
0.664726
0.666435
0.668225
0.669867
0.671177
0.672214
0.673128
0.673959
0.674739
0.675338
0.675567
0.675428
0.674881
0.673841
0.672424
0.670889
0.669577
0.668799
0.657941
0.658401
0.659189
0.660493
0.661988
0.663517
0.664999
0.666322
0.667492
0.668596
0.66957
0.670193
0.670381
0.670139
0.669466
0.668495
0.667384
0.666262
0.665354
0.664838
0.653067
0.653411
0.654024
0.655099
0.656402
0.65779
0.659248
0.660722
0.662134
0.66347
0.66465
0.665406
0.665635
0.665399
0.66483
0.664076
0.663243
0.66239
0.661726
0.661349
0.648276
0.648544
0.649039
0.649955
0.651135
0.652447
0.653864
0.655384
0.656971
0.658555
0.659984
0.660931
0.661295
0.661223
0.660867
0.660336
0.659711
0.659089
0.658606
0.658319
0.643486
0.643698
0.64411
0.644916
0.646018
0.647284
0.648695
0.650267
0.651991
0.653821
0.655548
0.65677
0.657383
0.657561
0.657443
0.657139
0.656724
0.656297
0.655956
0.655731
0.638606
0.638777
0.639131
0.639864
0.640921
0.642169
0.643611
0.645271
0.64716
0.649255
0.651339
0.652931
0.65388
0.654354
0.654497
0.65443
0.654233
0.653983
0.653759
0.65358
0.633548
0.633685
0.633998
0.634687
0.63573
0.637004
0.638516
0.640309
0.642416
0.644834
0.647354
0.649407
0.650757
0.651578
0.652017
0.652204
0.652224
0.652147
0.652023
0.65188
0.628219
0.628329
0.628614
0.629285
0.630347
0.631694
0.633322
0.635301
0.637694
0.64052
0.643576
0.646183
0.648009
0.64923
0.650007
0.650472
0.65072
0.650816
0.65078
0.650663
0.622521
0.622609
0.622877
0.623554
0.624673
0.626134
0.627931
0.630166
0.632925
0.636265
0.639977
0.64325
0.64564
0.647325
0.648484
0.649274
0.649778
0.650039
0.650081
0.649986
0.616344
0.616411
0.616673
0.617378
0.618591
0.620214
0.622245
0.624813
0.628038
0.632019
0.636532
0.640604
0.643664
0.645897
0.647496
0.648652
0.649438
0.649879
0.649995
0.649916
0.609556
0.609602
0.609866
0.610622
0.611968
0.61381
0.616148
0.619144
0.622957
0.627727
0.633213
0.638246
0.642102
0.644983
0.6471
0.648666
0.649778
0.650415
0.650605
0.650539
0.602001
0.602027
0.602294
0.603123
0.604648
0.606772
0.609504
0.613042
0.61759
0.62333
0.629996
0.636181
0.64098
0.644623
0.647356
0.649414
0.650896
0.651743
0.652005
0.651949
0.59346
0.593473
0.593751
0.594681
0.596441
0.598912
0.60215
0.606373
0.611834
0.618766
0.62686
0.634418
0.640336
0.644875
0.648334
0.650983
0.652886
0.653962
0.654298
0.654249
0.583648
0.583632
0.583963
0.585036
0.587084
0.590014
0.593893
0.598976
0.605575
0.61397
0.623789
0.632978
0.640214
0.645811
0.65012
0.653456
0.655849
0.657178
0.657586
0.657539
0.572253
0.572213
0.572591
0.573858
0.576276
0.579798
0.58449
0.590662
0.598685
0.608879
0.620772
0.63189
0.640666
0.647498
0.652807
0.656932
0.659887
0.661483
0.66196
0.661911
0.558783
0.558716
0.559174
0.560695
0.5636
0.567891
0.573638
0.581206
0.591024
0.603433
0.61781
0.631191
0.641745
0.649997
0.656472
0.661506
0.66508
0.666951
0.667486
0.667429
0.542577
0.542481
0.543067
0.544942
0.5485
0.55382
0.560965
0.570354
0.582456
0.597595
0.614931
0.630931
0.643514
0.653379
0.661168
0.667228
0.671474
0.673609
0.674184
0.674112
0.522683
0.52256
0.523351
0.525744
0.530221
0.536972
0.546026
0.55784
0.572877
0.591376
0.6122
0.631185
0.646041
0.657699
0.666922
0.674131
0.67906
0.681421
0.682006
0.681912
0.49766
0.497522
0.49865
0.501848
0.507719
0.516563
0.528326
0.543441
0.562265
0.584869
0.609742
0.632058
0.649389
0.662992
0.673776
0.68218
0.687745
0.690255
0.690809
0.690685
0.465166
0.465051
0.466797
0.471391
0.479579
0.491693
0.507429
0.527073
0.550744
0.578276
0.607746
0.63368
0.653629
0.669269
0.681674
0.691269
0.69733
0.69986
0.700333
0.700175
0.420996
0.421049
0.424157
0.431662
0.444151
0.461597
0.483223
0.508972
0.538675
0.571948
0.606476
0.636204
0.658831
0.676529
0.690536
0.701191
0.707481
0.709855
0.710199
0.710008
0.357272
0.358505
0.366106
0.380112
0.400472
0.426403
0.456325
0.489851
0.52669
0.566356
0.606212
0.639772
0.66502
0.684686
0.700121
0.711506
0.717713
0.719688
0.719861
0.71965
0.281774
0.283586
0.29814
0.322201
0.353577
0.389524
0.428481
0.470272
0.514723
0.561375
0.607325
0.645512
0.67403
0.696084
0.713104
0.725121
0.730983
0.73262
0.732745
0.732618
0.20393
0.210218
0.231708
0.266101
0.307944
0.353617
0.401564
0.451661
0.503793
0.557519
0.609685
0.65259
0.684357
0.70879
0.727564
0.739628
0.744662
0.745789
0.745857
0.745805
0.140231
0.148867
0.174947
0.216414
0.266461
0.320416
0.376463
0.43433
0.493784
0.55431
0.612415
0.659728
0.694491
0.72091
0.740549
0.752533
0.757211
0.758244
0.758358
0.758365
0.0884335
0.0976698
0.127324
0.174061
0.230294
0.290924
0.353822
0.41855
0.484692
0.551591
0.615326
0.66682
0.704364
0.732635
0.753288
0.765444
0.769883
0.770843
0.771014
0.771068
0.0451284
0.0546454
0.0867594
0.137512
0.198825
0.264995
0.333707
0.40444
0.476606
0.549393
0.618455
0.673966
0.714221
0.744357
0.76607
0.77844
0.78289
0.784039
0.784236
0.784329
0.00794089
0.0175606
0.0515114
0.105478
0.170998
0.241898
0.315681
0.391741
0.469377
0.547639
0.62176
0.68115
0.724067
0.756027
0.778832
0.791821
0.796571
0.797782
0.797976
0.798076
-0.0248177
-0.0151757
0.0201786
0.0768552
0.145903
0.220885
0.299165
0.380034
0.462708
0.5461
0.625048
0.688202
0.733735
0.767549
0.791585
0.805204
0.810278
0.811583
0.811771
0.81185
-0.0544477
-0.0447831
-0.00828233
0.0507333
0.122806
0.201371
0.28366
0.368903
0.456235
0.544479
0.628084
0.694917
0.743011
0.778618
0.803764
0.818111
0.823548
0.824932
0.825104
0.825165
-0.0818531
-0.0721586
-0.0346726
0.0263977
0.101148
0.182889
0.268768
0.357999
0.449675
0.542542
0.630674
0.701115
0.751716
0.789049
0.815303
0.830247
0.836094
0.837537
0.837675
0.837704
-0.107616
-0.0978699
-0.0594728
0.0033311
0.080498
0.165078
0.254198
0.347083
0.442811
0.540088
0.632648
0.706671
0.759735
0.798731
0.825994
0.841458
0.847576
0.849068
0.849184
0.849182
-0.132232
-0.122367
-0.0830825
-0.0187854
0.0605678
0.147688
0.239742
0.335969
0.435476
0.536966
0.63389
0.711519
0.767048
0.807637
0.835804
0.85162
0.857882
0.859399
0.859487
0.859452
-0.155994
-0.145924
-0.105924
-0.0401339
0.0411598
0.130546
0.225251
0.324535
0.427556
0.533077
0.634315
0.715613
0.773657
0.815792
0.8447
0.860746
0.867033
0.868519
0.868576
0.868515
-0.179015
-0.168756
-0.128072
-0.0608649
0.0221407
0.113564
0.210646
0.312709
0.418985
0.528333
0.633841
0.718929
0.779609
0.823323
0.852855
0.868955
0.875128
0.876536
0.876571
0.876489
-0.201494
-0.190967
-0.149539
-0.0810853
0.00344862
0.0966847
0.195892
0.300466
0.409729
0.522687
0.632401
0.721436
0.784972
0.830374
0.860432
0.8764
0.882331
0.883607
0.883592
0.883492
-0.223385
-0.212604
-0.170489
-0.100854
-0.0149376
0.0799041
0.181001
0.287816
0.399788
0.51611
0.629935
0.723085
0.789798
0.837105
0.867655
0.883263
0.888762
0.889828
0.889753
0.889633
-0.244762
-0.2337
-0.190859
-0.120168
-0.033015
0.0632376
0.165998
0.274802
0.389198
0.508603
0.626389
0.723809
0.794092
0.843674
0.874795
0.889793
0.894539
0.89526
0.895112
0.894989
-0.265483
-0.254208
-0.210644
-0.138994
-0.0507502
0.0467436
0.150936
0.26148
0.378016
0.500206
0.621724
0.723518
0.7978
0.850184
0.882196
0.896423
0.899987
0.900051
0.899774
0.899673
-0.285686
-0.274089
-0.229847
-0.157322
-0.0681212
0.0304519
0.135897
0.247921
0.366316
0.490984
0.615931
0.722097
0.800789
0.856624
0.890173
0.90383
0.905788
0.904534
0.90386
0.903814
-0.305218
-0.293325
-0.248446
-0.17512
-0.0850566
0.0144404
0.120954
0.234236
0.354198
0.480987
0.609034
0.719424
0.802858
0.862815
0.898807
0.912788
0.913319
0.90993
0.907786
0.907161
-0.324144
-0.311969
-0.266393
-0.192344
-0.101527
-0.00122731
0.106185
0.2205
0.341766
0.470343
0.601084
0.715375
0.803747
0.868383
0.90769
0.92355
0.924231
0.919061
0.912807
0.904982
-0.342386
-0.329976
-0.283785
-0.209148
-0.117739
-0.0168149
0.0912702
0.206331
0.328598
0.458583
0.59159
0.709447
0.803035
0.873099
0.916341
0.93571
0.939153
0.933478
0.922369
0.917882
-0.3599
-0.347273
-0.300606
-0.225509
-0.133703
-0.0323189
0.0762167
0.191707