/*--------------------------------*- C++ -*----------------------------------*\
| =========                 |                                                 |
| \\      /  F ield         | OpenFOAM: The Open Source CFD Toolbox           |
|  \\    /   O peration     | Version:  4.0                                   |
|   \\  /    A nd           | Web:      www.OpenFOAM.org                      |
|    \\/     M anipulation  |                                                 |
\*---------------------------------------------------------------------------*/
FoamFile
{
    version     2.0;
    format      ascii;
    class       volScalarField;
    location    "5";
    object      p;
}
// * * * * * * * * * * * * * * * * * * * * * * * * * * * * * * * * * * * * * //

dimensions      [0 2 -2 0 0 0 0];

internalField   nonuniform List<scalar> 
8800
(
0.530699
0.483268
0.445171
0.416885
0.396803
0.382797
0.373
0.366212
0.361862
0.359937
0.360816
0.364278
0.370008
0.378328
0.390118
0.406933
0.430902
0.464133
0.506057
0.564668
0.360923
0.368969
0.377663
0.381872
0.381394
0.377424
0.371925
0.366577
0.362242
0.3594
0.358889
0.361079
0.36497
0.370065
0.375752
0.380811
0.383268
0.38158
0.374939
0.365331
0.339346
0.346083
0.351594
0.355489
0.357977
0.359072
0.358631
0.357232
0.355768
0.355076
0.355544
0.357034
0.358866
0.360089
0.359926
0.358161
0.355058
0.350383
0.34436
0.340697
0.34047
0.342816
0.346395
0.349493
0.351803
0.352849
0.353254
0.353066
0.352546
0.352217
0.352657
0.353536
0.354194
0.354276
0.35373
0.352164
0.34952
0.346083
0.342941
0.342007
0.341083
0.341538
0.342511
0.343665
0.344896
0.346193
0.347098
0.347557
0.347726
0.347865
0.348192
0.348529
0.348577
0.348152
0.34716
0.345966
0.344856
0.343774
0.343086
0.342903
0.338639
0.338872
0.339409
0.340072
0.340752
0.341386
0.341943
0.342398
0.342744
0.343055
0.343392
0.343626
0.343638
0.343414
0.343009
0.342473
0.34187
0.341286
0.340911
0.340825
0.335285
0.335381
0.335605
0.335949
0.336389
0.336907
0.337455
0.337984
0.338474
0.338943
0.339334
0.339539
0.33953
0.339338
0.339036
0.338705
0.338405
0.338165
0.338032
0.337993
0.331234
0.331292
0.331426
0.33163
0.331903
0.332251
0.332672
0.333156
0.333686
0.334251
0.334745
0.335051
0.335169
0.335154
0.335064
0.334943
0.334821
0.334716
0.334653
0.33463
0.326909
0.326946
0.327038
0.327187
0.327404
0.327703
0.328096
0.328589
0.329184
0.329866
0.330499
0.330934
0.331178
0.331285
0.33131
0.331291
0.331255
0.331218
0.331191
0.331177
0.322338
0.322361
0.322433
0.322557
0.322747
0.323027
0.32342
0.323952
0.324634
0.325465
0.326277
0.326879
0.327268
0.327502
0.327632
0.327697
0.327723
0.327729
0.327726
0.327717
0.317531
0.317553
0.317619
0.317739
0.317933
0.318228
0.318661
0.319269
0.320082
0.321109
0.322147
0.322948
0.323501
0.323862
0.324087
0.324221
0.324295
0.324331
0.324343
0.324338
0.312475
0.312494
0.312567
0.3127
0.312918
0.313258
0.313766
0.314493
0.315488
0.316771
0.318094
0.319142
0.319885
0.320382
0.320705
0.320905
0.321022
0.321085
0.321111
0.321107
0.30714
0.30716
0.307243
0.307399
0.307659
0.308069
0.308688
0.309585
0.310825
0.312441
0.314128
0.315479
0.316442
0.317101
0.317533
0.317805
0.317967
0.318057
0.318095
0.318092
0.301455
0.301478
0.30158
0.301771
0.302093
0.302603
0.303376
0.3045
0.306062
0.308107
0.310252
0.311977
0.313215
0.314065
0.314626
0.314981
0.315196
0.315316
0.315368
0.315364
0.295335
0.295363
0.295492
0.295733
0.296139
0.296783
0.297761
0.299186
0.301166
0.303762
0.306487
0.308681
0.310259
0.311343
0.31206
0.312516
0.312792
0.312946
0.313014
0.313009
0.288664
0.2887
0.288863
0.289172
0.289691
0.290514
0.291762
0.293578
0.2961
0.299401
0.302859
0.305639
0.307639
0.309014
0.309924
0.310503
0.310853
0.31105
0.311136
0.311131
0.281282
0.281329
0.28154
0.281939
0.282608
0.283667
0.28527
0.287597
0.290817
0.295017
0.299402
0.302919
0.305445
0.30718
0.308328
0.309058
0.309501
0.309749
0.309857
0.309851
0.27298
0.273041
0.273318
0.273838
0.274706
0.276079
0.27815
0.281143
0.285266
0.290612
0.296164
0.300602
0.303782
0.305965
0.307409
0.308327
0.308884
0.309196
0.309332
0.309324
0.263472
0.263555
0.263921
0.264605
0.265744
0.267536
0.270228
0.274095
0.279384
0.28619
0.293209
0.298792
0.302786
0.305526
0.307336
0.308488
0.309186
0.309577
0.309747
0.309736
0.252368
0.252482
0.252973
0.253885
0.255396
0.25776
0.261285
0.266307
0.273107
0.281766
0.290614
0.297616
0.302615
0.306044
0.308311
0.309754
0.310629
0.31112
0.311333
0.311318
0.239122
0.239284
0.239953
0.241191
0.243228
0.246387
0.251049
0.25761
0.266372
0.277369
0.28848
0.297221
0.303456
0.307738
0.310576
0.312386
0.313485
0.314102
0.314368
0.31435
0.222954
0.223192
0.224126
0.225846
0.228655
0.232955
0.2392
0.247833
0.259138
0.27306
0.286927
0.297774
0.305518
0.310858
0.314415
0.316695
0.318084
0.318862
0.319198
0.319175
0.202694
0.203052
0.204399
0.20689
0.210898
0.216899
0.225401
0.236843
0.251423
0.268941
0.286101
0.299451
0.309015
0.315668
0.320147
0.323046
0.324822
0.325816
0.326243
0.326216
0.17642
0.176966
0.179061
0.182927
0.188936
0.19758
0.209359
0.224604
0.243336
0.265173
0.286156
0.302402
0.314124
0.322401
0.328086
0.331843
0.334182
0.335494
0.33605
0.336018
0.140663
0.141625
0.145415
0.152023
0.16155
0.1744
0.190933
0.211235
0.235086
0.261938
0.287207
0.306693
0.320902
0.331162
0.338441
0.343454
0.346721
0.348632
0.349455
0.349404
0.0886197
0.0914982
0.0998575
0.112175
0.127902
0.147307
0.170461
0.197159
0.227007
0.259413
0.289273
0.312226
0.32918
0.341762
0.351086
0.357925
0.36282
0.366058
0.367691
0.367655
0.00831822
0.0225346
0.0420673
0.0646746
0.0898666
0.118069
0.149231
0.183143
0.219482
0.257788
0.292536
0.319294
0.339423
0.354869
0.366937
0.37651
0.384198
0.390276
0.394736
0.396043
-0.0767881
-0.0466952
-0.0152606
0.0178214
0.0527433
0.0896216
0.128565
0.169531
0.212358
0.256845
0.297091
0.328385
0.352382
0.371332
0.38669
0.399457
0.410248
0.419768
0.429053
0.430966
-0.136648
-0.104326
-0.0650073
-0.023758
0.0191413
0.0636512
0.109668
0.157081
0.205797
0.255761
0.300664
0.335526
0.362285
0.383403
0.400408
0.414325
0.425873
0.435554
0.443519
0.445368
-0.181023
-0.146615
-0.103278
-0.0570482
-0.00866015
0.0414745
0.0929937
0.145625
0.199191
0.253664
0.302318
0.339894
0.368505
0.390807
0.408492
0.422717
0.434334
0.443936
0.451777
0.453706
-0.213414
-0.178619
-0.132654
-0.0831429
-0.0310767
0.0230731
0.0787645
0.135497
0.19295
0.25107
0.302742
0.342432
0.37241
0.395536
0.413652
0.428043
0.439625
0.449071
0.456561
0.458486
-0.238381
-0.203386
-0.155957
-0.10412
-0.0492676
0.00793574
0.0667659
0.126584
0.186964
0.247864
0.301953
0.343437
0.374623
0.398486
0.416995
0.431535
0.443127
0.452477
0.459733
0.461665
-0.258747
-0.22346
-0.174824
-0.121306
-0.0643977
-0.00488506
0.0563335
0.118443
0.180953
0.243933
0.300032
0.343221
0.375667
0.400364
0.419364
0.434142
0.445804
0.455099
0.46218
0.464128
-0.27598
-0.240203
-0.1905
-0.13557
-0.0770296
-0.0157557
0.0472179
0.110922
0.174819
0.239201
0.296988
0.341951
0.37589
0.401669
0.421361
0.436525
0.448359
0.457672
0.464649
0.466627
-0.290674
-0.254433
-0.203769
-0.147658
-0.0877437
-0.0250747
0.0391676
0.103852
0.168424
0.233518
0.292709
0.339648
0.375492
0.402757
0.423454
0.439228
0.45137
0.460793
0.467708
0.469699
-0.303623
-0.266779
-0.215144
-0.157967
-0.0969029
-0.0331193
0.0320043
0.0971364
0.161673
0.22673
0.286993
0.336214
0.374557
0.403891
0.426051
0.442742
0.455384
0.465037
0.471971
0.473992
-0.314944
-0.277537
-0.225114
-0.166861
-0.104758
-0.0400533
0.0256367
0.0907352
0.154522
0.218678
0.279548
0.331415
0.37305
0.405262
0.429519
0.447561
0.460979
0.471028
0.478043
0.480098
-0.325191
-0.287117
-0.233809
-0.174571
-0.111503
-0.0460139
0.0200154
0.0846647
0.146985
0.209207
0.27002
0.324883
0.370821
0.406989
0.43421
0.454191
0.468744
0.479409
0.48661
0.488726
-0.334491
-0.295759
-0.24149
-0.181298
-0.11728
-0.0510851
0.0151279
0.0789804
0.139123
0.198233
0.257994
0.316125
0.367588
0.409117
0.440449
0.463166
0.479332
0.490717
0.498395
0.500584
-0.343017
-0.303583
-0.24837
-0.187198
-0.122228
-0.0553301
0.0109791
0.0737804
0.131079
0.185722
0.243034
0.304496
0.362917
0.411611
0.448567
0.475041
0.493463
0.506094
0.514
0.516456
-0.350976
-0.310816
-0.254597
-0.192396
-0.126463
-0.0588299
0.00757671
0.0691698
0.123035
0.171741
0.224725
0.289224
0.356245
0.414377
0.4588
0.490308
0.511749
0.525944
0.53448
0.537021
-0.358586
-0.317473
-0.260281
-0.197019
-0.130071
-0.0616579
0.00491216
0.0652674
0.11523
0.156426
0.202689
0.269389
0.346858
0.417155
0.471337
0.509423
0.534873
0.551235
0.560672
0.563094
-0.365828
-0.323752
-0.265538
-0.201189
-0.133164
-0.0638725
0.00296245
0.0621522
0.107931
0.14006
0.176627
0.243953
0.333909
0.419448
0.486245
0.532837
0.563349
0.582388
0.592804
0.594885
-0.372777
-0.32975
-0.270461
-0.204985
-0.135841
-0.0655795
0.00169877
0.0598907
0.10139
0.123018
0.146369
0.211783
0.316035
0.42083
0.503429
0.560921
0.59785
0.619798
0.630847
0.632292
-0.379665
-0.335535
-0.275137
-0.208503
-0.138181
-0.0668596
0.0010538
0.0585382
0.0958515
0.105756
0.111801
0.171675
0.291848
0.420473
0.522572
0.593733
0.639089
0.66458
0.674571
0.673863
-0.386355
-0.341152
-0.279589
-0.211793
-0.140284
-0.0677902
0.000951949
0.058069
0.0915313
0.0888198
0.0730116
0.12274
0.259225
0.418104
0.54442
0.629365
0.684747
0.717299
0.724958
0.716745
-0.393119
-0.346668
-0.283849
-0.214914
-0.14222
-0.0684666
0.00132361
0.0584539
0.0885433
0.0725047
0.0291981
0.0605221
0.214477
0.41213
0.566771
0.665999
0.730957
0.77801
0.794052
0.768153
-0.39988
-0.352026
-0.287935
-0.217985
-0.144126
-0.0689886
0.00206085
0.0596772
0.0869774
0.0567105
-0.0219857
-0.0236326
0.146852
0.402912
0.592102
0.700107
0.758543
0.794856
0.803984
0.762175
-0.406396
-0.357001
-0.291683
-0.220988
-0.145937
-0.0693235
0.00308744
0.0617419
0.0871331
0.0426708
-0.0799239
-0.137391
0.0454046
0.381641
0.604912
0.706285
0.736936
0.736158
0.660141
0.603953
-0.411794
-0.361048
-0.294642
-0.223373
-0.147165
-0.0691832
0.00449049
0.0647156
0.0892675
0.0310955
-0.144865
-0.296251
-0.119979
0.352587
0.617595
0.689552
0.688788
0.614943
0.503282
0.432592
-0.480697
-0.361646
-0.29815
-0.226087
-0.149027
-0.0697219
0.00630645
0.0689099
0.094473
0.0240354
-0.217325
-0.537062
-0.417523
0.205622
0.593431
0.617088
0.528888
0.417585
0.292458
0.223315
-0.382049
-0.363561
-0.303241
-0.2303
-0.151741
-0.0699694
0.00852064
0.0744417
0.102208
0.0219215
-0.320351
-1.07787
-1.19936
-0.200136
0.245151
0.142847
0.0247723
-0.0561167
-0.156553
-0.0600249
-0.414335
-0.37228
-0.308571
-0.235228
-0.155167
-0.0716581
0.00990888
0.0794551
0.112466
0.034803
-0.372745
-1.4935
-1.91653
-0.776319
-0.249598
-0.299281
-0.386869
-0.459548
-0.577592
-0.427618
-0.432183
-0.384158
-0.31698
-0.241862
-0.159922
-0.0742881
0.0103303
0.0839617
0.12347
0.051598
-0.413511
-1.82483
-2.49836
-1.32829
-0.82942
-0.772721
-0.846818
-0.924223
-1.08679
-0.891084
-0.44965
-0.396522
-0.326298
-0.248652
-0.164643
-0.0766893
0.0108085
0.088893
0.135838
0.0760208
-0.410649
-1.95314
-2.70416
-1.66343
-1.24787
-1.19767
-1.31915
-1.4494
-1.68591
-1.55431
-0.465391
-0.409159
-0.336189
-0.256069
-0.169822
-0.0794829
0.0110601
0.0939027
0.149288
0.108242
-0.33921
-1.79496
-2.48971
-1.74114
-1.47208
-1.50783
-1.70667
-1.95475
-2.30128
-2.61946
-0.480243
-0.42226
-0.347071
-0.264633
-0.176041
-0.0832241
0.0105702
0.0981329
0.162672
0.144704
-0.220599
-1.40131
-1.97985
-1.57646
-1.55228
-1.69411
-1.92043
-2.17413
-2.30543
-2.65755
-0.495547
-0.43625
-0.35924
-0.274588
-0.183698
-0.0882445
0.00880628
0.101303
0.175519
0.183177
-0.0744657
-0.889955
-1.34762
-1.29497
-1.49105
-1.8085
-2.03618
-2.06942
-2.12125
-2.2061
-0.511862
-0.451517
-0.372858
-0.286143
-0.192977
-0.0948699
0.00541378
0.102969
0.186463
0.221549
0.0766385
-0.387094
-0.750051
-0.963234
-1.38731
-1.91398
-2.31796
-2.07827
-2.0571
-2.1813
-0.529872
-0.46848
-0.388185
-0.299486
-0.204035
-0.103372
0.000197577
0.102385
0.194965
0.254768
0.207499
-9.78898e-05
-0.271471
-0.636334
-1.23227
-2.04424
-3.01621
-3.18652
-2.85873
-2.75849
-0.550286
-0.487596
-0.405586
-0.314846
-0.217176
-0.113912
-0.00730341
0.0991791
0.199753
0.281152
0.304271
0.241162
0.0404733
-0.34138
-0.990224
-2.02421
-3.37053
-3.85838
-3.45926
-3.16374
-0.573463
-0.509266
-0.425359
-0.33251
-0.232544
-0.126836
-0.0173085
0.0933834
0.201126
0.298974
0.365637
0.373169
0.245642
-0.049797
-0.548298
-1.28296
-2.03143
-2.31958
-2.17741
-2.0158
-0.599432
-0.533721
-0.447709
-0.352626
-0.250322
-0.142055
-0.029598
0.0846196
0.198374
0.308999
0.401508
0.447409
0.394532
0.23784
-0.000484513
-0.283091
-0.481607
-0.557133
-0.517032
-0.48999
-0.628498
-0.561085
-0.472654
-0.375123
-0.270351
-0.159655
-0.0445356
0.0733793
0.192709
0.313186
0.42184
0.494227
0.504465
0.466611
0.405336
0.347776
0.341396
0.377061
0.406602
0.413891
-0.660292
-0.591037
-0.499976
-0.399945
-0.292628
-0.179234
-0.0611952
0.0602048
0.184212
0.313004
0.434084
0.526873
0.581374
0.611625
0.637498
0.673744
0.72328
0.773721
0.804525
0.811149
-0.694144
-0.622897
-0.529219
-0.426396
-0.316327
-0.200221
-0.0793328
0.0454328
0.173955
0.310062
0.441032
0.549016
0.631207
0.69726
0.757972
0.818471
0.877069
0.92617
0.955181
0.961438
-0.728693
-0.65591
-0.559522
-0.453815
-0.340908
-0.221939
-0.098082
0.0299209
0.16292
0.305036
0.444066
0.562083
0.658318
0.739085
0.809441
0.871764
0.925629
0.968645
0.995814
1.00228
-0.763168
-0.688563
-0.58949
-0.480874
-0.365049
-0.243292
-0.116621
0.0146063
0.15187
0.298945
0.443916
0.56729
0.669195
0.753869
0.824459
0.883119
0.931184
0.969369
0.99513
1.00175
-0.794993
-0.718776
-0.617428
-0.505917
-0.387396
-0.263096
-0.133761
0.000493232
0.141218
0.29264
0.440864
0.566471
0.669354
0.753462
0.821971
0.877518
0.922271
0.9579
0.981003
0.988123
-0.820642
-0.744266
-0.640726
-0.526827
-0.406144
-0.279732
-0.148244
-0.0117307
0.131435
0.285143
0.434558
0.559985
0.661599
0.743756
0.809989
0.863286
0.906119
0.940267
0.962492
0.969609
-0.836806
-0.761145
-0.656541
-0.541089
-0.418957
-0.291439
-0.158946
-0.0214947
0.122443
0.276448
0.424611
0.548082
0.64712
0.726808
0.790854
0.842324
0.883716
0.916703
0.938299
0.945551
-0.839347
-0.764805
-0.661198
-0.545503
-0.423495
-0.296322
-0.164624
-0.0282779
0.114244
0.266004
0.410722
0.530556
0.626067
0.702888
0.764736
0.81458
0.854834
0.886722
0.908066
0.915579
-0.822315
-0.751541
-0.65013
-0.536102
-0.416674
-0.292649
-0.164343
-0.0316657
0.1067
0.25339
0.392342
0.506607
0.597577
0.670926
0.730315
0.778452
0.817597
0.848512
0.86977
0.877517
-0.777527
-0.712822
-0.617272
-0.508884
-0.39551
-0.278024
-0.156649
-0.0310503
0.0999134
0.238341
0.368679
0.475126
0.559948
0.628679
0.684843
0.730778
0.768349
0.798635
0.82041
0.82814
-0.698978
-0.64357
-0.556958
-0.459518
-0.357116
-0.250811
-0.140481
-0.0257724
0.094173
0.22083
0.339346
0.435307
0.511464
0.573232
0.624169
0.666353
0.700924
0.728996
0.750671
0.758514
-0.580021
-0.539066
-0.466557
-0.385354
-0.299947
-0.209891
-0.115073
-0.0152605
0.0899978
0.201374
0.304889
0.387443
0.451774
0.502874
0.544273
0.57859
0.606787
0.628676
0.644006
0.649378
-0.399983
-0.38024
-0.337402
-0.284222
-0.223954
-0.156338
-0.0816425
0.000219231
0.0891598
0.185011
0.274653
0.345683
0.400071
0.442145
0.474609
0.499258
0.518334
0.534114
0.546273
0.549828
-0.223206
-0.217685
-0.200213
-0.174463
-0.139944
-0.0962547
-0.0429481
0.0198575
0.0918184
0.172147
0.248412
0.308574
0.353672
0.387129
0.41178
0.429932
0.442794
0.450852
0.455203
0.456265
-0.101973
-0.100607
-0.0949383
-0.0835908
-0.0658238
-0.0397981
-0.004226
0.0415738
0.0974858
0.1626
0.225811
0.275693
0.312468
0.339071
0.357674
0.369885
0.377386
0.381825
0.384011
0.38433
-0.0284912
-0.0291105
-0.0282359
-0.0234035
-0.0132556
0.00333239
0.0276446
0.0608901
0.103656
0.155441
0.206769
0.247311
0.276724
0.297278
0.311096
0.320076
0.325535
0.328345
0.329316
0.3294
0.0133225
0.0130056
0.0133848
0.015988
0.0220859
0.0330831
0.0503255
0.0749399
0.10768
0.148438
0.189519
0.222071
0.245553
0.261878
0.272761
0.279579
0.283496
0.285483
0.286254
0.286361
0.0400693
0.0400505
0.0405691
0.0425772
0.0469195
0.0546367
0.0669882
0.0852332
0.11027
0.1422
0.174857
0.20082
0.219452
0.232221
0.240573
0.245773
0.2488
0.250363
0.25099
0.251086
0.0577624
0.0578298
0.0583303
0.0598852
0.0631276
0.0688726
0.0780961
0.0918503
0.111031
0.135922
0.161685
0.182238
0.196951
0.207006
0.213581
0.217663
0.220023
0.221242
0.221736
0.221812
0.0692671
0.0693747
0.06986
0.0711238
0.0736196
0.0779634
0.084938
0.0954208
0.110194
0.129589
0.149848
0.166067
0.177672
0.185583
0.190735
0.193927
0.195777
0.196738
0.197131
0.19719
0.0764125
0.0765171
0.0769349
0.0779474
0.0798937
0.0832386
0.0885824
0.096627
0.108037
0.123141
0.139025
0.15178
0.160909
0.167125
0.171171
0.173676
0.175126
0.175878
0.176185
0.17623
0.0802704
0.080361
0.0807049
0.0815071
0.0830234
0.0856094
0.089731
0.0959404
0.104779
0.116544
0.128979
0.13899
0.146158
0.151038
0.154211
0.156174
0.15731
0.157896
0.158138
0.158171
0.0816174
0.0816918
0.0819672
0.0825977
0.0837801
0.0857868
0.0889777
0.0937869
0.100647
0.109812
0.119536
0.12738
0.133001
0.136829
0.139315
0.140852
0.141738
0.142196
0.14238
0.142405
0.0810265
0.0810864
0.0813044
0.0817985
0.0827195
0.0842789
0.0867556
0.0904874
0.0958192
0.102961
0.110559
0.116698
0.1211
0.124095
0.126041
0.127243
0.127936
0.128291
0.128432
0.12845
0.0789365
0.0789837
0.0791547
0.0795403
0.0802577
0.0814699
0.0833939
0.0862947
0.0904423
0.0960072
0.10194
0.106739
0.110181
0.112524
0.114046
0.114984
0.115524
0.1158
0.115909
0.115923
0.0756834
0.0757207
0.0758547
0.0761555
0.0767137
0.0776566
0.0791528
0.0814077
0.0846342
0.0889699
0.093598
0.0973464
0.100037
0.101867
0.103054
0.103787
0.104207
0.104421
0.104504
0.104515
0.0715281
0.0715571
0.0716613
0.0718951
0.0723295
0.0730628
0.0742259
0.0759796
0.0784903
0.0818668
0.0854752
0.0883989
0.0904973
0.0919253
0.0928515
0.093421
0.0937474
0.0939136
0.0939782
0.0939859
0.0666714
0.0666938
0.0667748
0.0669566
0.0672942
0.0678638
0.068767
0.0701293
0.0720813
0.0747082
0.0775177
0.0797954
0.0814299
0.0825414
0.0832621
0.0837062
0.0839607
0.0840894
0.084139
0.0841446
0.0612697
0.0612871
0.0613497
0.0614906
0.0617519
0.0621934
0.0628947
0.0639527
0.0654681
0.067508
0.0696918
0.0714622
0.0727324
0.0735969
0.0741573
0.0745014
0.0746976
0.0747965
0.0748343
0.0748386
0.0554456
0.0554588
0.055507
0.0556157
0.0558181
0.05616
0.0567019
0.0575198
0.0586929
0.0602737
0.061966
0.0633391
0.0643251
0.0649956
0.0654286
0.0656938
0.0658452
0.0659213
0.0659502
0.0659532
0.0492939
0.049304
0.0493411
0.0494245
0.0495794
0.0498418
0.0502595
0.05089
0.0517943
0.0530134
0.0543187
0.0553779
0.0561379
0.0566536
0.0569875
0.0571927
0.0573091
0.0573672
0.057389
0.0573914
0.0428909
0.0428985
0.042926
0.0429889
0.0431067
0.0433071
0.0436263
0.044109
0.0448012
0.0457342
0.0467334
0.0475431
0.0481233
0.0485176
0.0487726
0.0489289
0.049018
0.0490625
0.0490791
0.0490808
0.0362944
0.0362998
0.0363198
0.0363668
0.0364557
0.0366066
0.0368469
0.0372104
0.0377323
0.0384367
0.0391917
0.0398045
0.0402444
0.0405431
0.040736
0.0408529
0.0409186
0.040951
0.0409625
0.0409635
0.0295507
0.0295546
0.0295689
0.029603
0.029668
0.0297794
0.0299571
0.0302258
0.0306118
0.0311327
0.031691
0.0321436
0.0324673
0.0326857
0.0328256
0.0329115
0.0329601
0.0329837
0.0329922
0.0329929
0.0226971
0.0226996
0.022709
0.0227326
0.0227788
0.0228574
0.0229827
0.0231728
0.0234468
0.0238161
0.024211
0.0245305
0.024759
0.024914
0.0250139
0.0250739
0.0251072
0.0251232
0.0251282
0.0251285
0.0157651
0.0157664
0.0157731
0.0157886
0.0158181
0.0158684
0.0159495
0.016073
0.0162508
0.0164906
0.0167487
0.0169584
0.0171092
0.0172114
0.017276
0.0173142
0.0173343
0.0173428
0.017345
0.0173451
0.00878093
0.00878171
0.00878498
0.00879281
0.00880802
0.00883527
0.00887918
0.0089454
0.0090402
0.00916814
0.00930511
0.00941627
0.0094938
0.00954493
0.00957845
0.00959905
0.00961016
0.00961518
0.00961674
0.00961695
0.00175745
0.00175603
0.00175419
0.00175424
0.00175662
0.00176098
0.00176766
0.00177837
0.00179442
0.00181653
0.00184719
0.00187211
0.00189134
0.00190566
0.00191509
0.00192044
0.00192339
0.00192472
0.00192423
0.00192243
-1.09347
-0.750761
-0.381156
-0.0814445
0.157717
0.351481
0.514485
0.655067
0.733541
0.700989
-0.455813
-0.239076
-0.0205459
0.166526
0.32448
0.457384
0.566215
0.646246
0.684921
0.684532
-0.0583142
0.075651
0.212451
0.334365
0.438963
0.526206
0.59441
0.641699
0.668957
0.675222
0.192934
0.280252
0.370494
0.449848
0.518277
0.575149
0.619721
0.651172
0.671693
0.67914
0.363354
0.419631
0.478173
0.532001
0.579835
0.620838
0.653265
0.676142
0.690313
0.698226
0.484896
0.523025
0.565866
0.607253
0.643816
0.674115
0.697451
0.713704
0.725819
0.735992
0.576032
0.606744
0.642102
0.674934
0.704131
0.729699
0.751428
0.768508
0.780072
0.792523
0.650505
0.680815
0.715699
0.748359
0.779162
0.806389
0.828563
0.844824
0.85495
0.869153
0.735399
0.771854
0.811212
0.847238
0.878137
0.903667
0.924451
0.940317
0.950228
0.966135
0.848681
0.889401
0.930598
0.96532
0.995131
1.02002
1.03996
1.05474
1.06497
1.08218
0.994222
1.03383
1.07094
1.10265
1.12847
1.15039
1.16909
1.1843
1.19651
1.21427
1.16954
1.20217
1.22875
1.25123
1.27144
1.29037
1.30815
1.32446
1.3396
1.35759
1.35877
1.37617
1.3915
1.40789
1.42376
1.43822
1.45146
1.4655
1.48323
1.50328
1.54104
1.5505
1.56202
1.57287
1.58236
1.59204
1.60276
1.6141
1.62544
1.64082
1.74773
1.75153
1.73677
1.72225
1.71601
1.72167
1.74028
1.77058
1.80262
1.82922
2.05475
1.91997
1.84321
1.80039
1.78289
1.78704
1.81422
1.87066
1.97353
2.19798
0.420983
0.419184
0.415281
0.40752
0.396145
0.384907
0.37553
0.368365
0.36325
0.360185
0.359646
0.361908
0.366258
0.372565
0.380958
0.391467
0.403132
0.41327
0.418548
0.421134
0.344184
0.350225
0.357682
0.363304
0.366758
0.367452
0.365739
0.362772
0.359807
0.357781
0.357452
0.35908
0.36195
0.365242
0.367873
0.368559
0.366528
0.361916
0.355516
0.348005
0.339013
0.340984
0.345735
0.350078
0.352831
0.354316
0.355077
0.354898
0.354115
0.353344
0.353317
0.354171
0.355346
0.356112
0.356008
0.354967
0.352984
0.349503
0.344698
0.34105
0.341513
0.341911
0.343521
0.345698
0.347726
0.349489
0.350519
0.350952
0.350916
0.350728
0.350846
0.351403
0.3519
0.351966
0.351406
0.350136
0.348286
0.346231
0.344234
0.343221
0.339935
0.340042
0.340506
0.341249
0.342017
0.342801
0.343557
0.344158
0.344552
0.344808
0.345093
0.345413
0.345538
0.345353
0.344876
0.344229
0.343534
0.342828
0.342211
0.34196
0.337107
0.337166
0.337426
0.337881
0.338441
0.339057
0.339664
0.340206
0.340665
0.34107
0.341458
0.341752
0.341851
0.341729
0.341411
0.340966
0.340481
0.340027
0.339684
0.339547
0.333298
0.333325
0.333435
0.333641
0.333926
0.334292
0.334733
0.335224
0.335735
0.336249
0.336739
0.337095
0.337241
0.337208
0.337063
0.33687
0.336678
0.336511
0.33639
0.336341
0.329105
0.329122
0.3292
0.329343
0.32955
0.329831
0.330193
0.330637
0.33116
0.331754
0.332363
0.332835
0.333102
0.333209
0.333211
0.333156
0.333081
0.333005
0.332947
0.332919
0.324652
0.32466
0.324714
0.324819
0.324983
0.325222
0.325556
0.326003
0.326574
0.327271
0.328029
0.328659
0.329069
0.329304
0.329423
0.329472
0.329482
0.329473
0.329458
0.329448
0.319965
0.319972
0.320015
0.320107
0.320258
0.320491
0.320834
0.321316
0.321968
0.322803
0.323754
0.324584
0.325156
0.325534
0.325765
0.3259
0.325972
0.326007
0.326019
0.326018
0.315034
0.315036
0.315083
0.315179
0.315339
0.315593
0.315978
0.316537
0.317313
0.318336
0.319535
0.320609
0.321379
0.321908
0.322252
0.322466
0.322594
0.322665
0.322698
0.322705
0.309847
0.309848
0.309897
0.310005
0.31019
0.310488
0.310946
0.311621
0.312572
0.313847
0.315363
0.316743
0.317758
0.318456
0.318922
0.319221
0.319403
0.319508
0.319561
0.319574
0.304346
0.304345
0.304404
0.304532
0.304757
0.305122
0.305686
0.306522
0.307711
0.309315
0.311237
0.312999
0.3143
0.315211
0.315822
0.316216
0.31646
0.316602
0.316674
0.316694
0.298456
0.298454
0.298527
0.298687
0.298968
0.299425
0.300134
0.301187
0.302688
0.304718
0.307158
0.309402
0.311062
0.312227
0.313012
0.313521
0.313837
0.314021
0.314117
0.314143
0.292077
0.292075
0.292167
0.292371
0.292727
0.293308
0.294209
0.295549
0.297456
0.300037
0.303135
0.305984
0.308092
0.309573
0.310571
0.311219
0.311622
0.311858
0.31198
0.312015
0.285074
0.285071
0.285189
0.285451
0.285909
0.286654
0.287809
0.289523
0.291958
0.295245
0.299181
0.30279
0.305458
0.307331
0.308594
0.309414
0.309924
0.310223
0.310378
0.310421
0.277262
0.277259
0.277413
0.277753
0.278346
0.27931
0.280799
0.283003
0.286124
0.290317
0.295314
0.299881
0.303248
0.305608
0.307199
0.308231
0.308873
0.309251
0.309446
0.3095
0.268399
0.268395
0.268599
0.269044
0.26982
0.271075
0.273008
0.275857
0.279869
0.285225
0.291567
0.297331
0.301568
0.304535
0.306533
0.30783
0.308636
0.309109
0.309354
0.309422
0.258152
0.258149
0.258422
0.259013
0.260039
0.26169
0.264218
0.267921
0.273096
0.279944
0.28798
0.295236
0.300553
0.304271
0.306774
0.308399
0.309409
0.310003
0.310309
0.310393
0.246062
0.246061
0.246434
0.247234
0.248609
0.250806
0.254146
0.258994
0.265695
0.274454
0.284612
0.293712
0.300357
0.305003
0.308134
0.310168
0.311435
0.31218
0.312564
0.312669
0.231465
0.23147
0.231998
0.233111
0.23499
0.237965
0.242436
0.24884
0.257554
0.268753
0.281544
0.292895
0.301163
0.306951
0.310862
0.313412
0.315005
0.315945
0.316432
0.316564
0.213371
0.213393
0.21418
0.215785
0.218429
0.222547
0.228643
0.2372
0.248579
0.26287
0.278879
0.292935
0.303158
0.310347
0.315238
0.318449
0.32047
0.321674
0.322305
0.322477
0.190238
0.190316
0.19158
0.194004
0.197862
0.203755
0.212261
0.223836
0.238734
0.256884
0.276741
0.293974
0.306515
0.315411
0.321544
0.325629
0.328242
0.32983
0.330687
0.330926
0.159539
0.1598
0.162018
0.165911
0.171883
0.180709
0.192891
0.208689
0.228141
0.250975
0.275291
0.296136
0.311348
0.322293
0.330009
0.335295
0.338779
0.340973
0.342213
0.342582
0.116532
0.117306
0.121827
0.128846
0.138961
0.15284
0.170566
0.192086
0.217204
0.245479
0.274735
0.299514
0.31768
0.330997
0.340691
0.34763
0.352468
0.355712
0.357695
0.358284
0.052634
0.0552095
0.0659076
0.0802212
0.0984534
0.120473
0.145964
0.174735
0.206481
0.240738
0.275183
0.30402
0.325277
0.341184
0.353191
0.362276
0.369126
0.374285
0.377858
0.37852
-0.0255639
-0.0195373
0.000536725
0.0268503
0.055617
0.0869151
0.120763
0.157104
0.195729
0.23635
0.276615
0.310372
0.335692
0.35523
0.370634
0.38299
0.393059
0.401393
0.406759
0.408854
-0.104053
-0.0898929
-0.0591248
-0.0228448
0.0154521
0.0555428
0.0973536
0.140849
0.185975
0.232618
0.278451
0.316875
0.345876
0.368509
0.386637
0.401415
0.413561
0.423604
0.430947
0.434814
-0.156636
-0.141584
-0.106261
-0.0636987
-0.0186803
0.0281226
0.0764343
0.126047
0.176799
0.228596
0.27903
0.321092
0.352728
0.377258
0.396666
0.412211
0.42473
0.434852
0.442203
0.445955
-0.195365
-0.180157
-0.141436
-0.0951195
-0.0459181
0.00549754
0.0585904
0.112923
0.168175
0.224201
0.278427
0.323412
0.356994
0.382758
0.402896
0.418833
0.43152
0.441646
0.449058
0.452873
-0.223983
-0.208982
-0.168656
-0.119868
-0.0676471
-0.0128899
0.0437722
0.101729
0.160472
0.219781
0.276975
0.324283
0.359427
0.386177
0.406875
0.423078
0.435857
0.445955
0.453422
0.457272
-0.246812
-0.231778
-0.190429
-0.139885
-0.0854603
-0.0281416
0.0312527
0.0919233
0.153259
0.215013
0.274538
0.323853
0.360457
0.388183
0.409469
0.425983
0.438892
0.449011
0.456551
0.460422
-0.265728
-0.250672
-0.208276
-0.156306
-0.100196
-0.0409527
0.0204952
0.0831796
0.146359
0.20982
0.271128
0.322278
0.360433
0.389306
0.411338
0.428288
0.441423
0.451625
0.459256
0.463147
-0.281864
-0.266609
-0.22329
-0.170084
-0.112569
-0.0517789
0.0112186
0.0753098
0.139625
0.204063
0.266634
0.319569
0.359539
0.38989
0.412964
0.43057
0.444077
0.454471
0.462186
0.466155
-0.295798
-0.280397
-0.236094
-0.181825
-0.123089
-0.0610413
0.00313247
0.0681278
0.132944
0.197623
0.260894
0.315616
0.357818
0.390164
0.41472
0.433298
0.447379
0.458075
0.46594
0.469975
-0.308087
-0.292404
-0.2472
-0.191937
-0.132098
-0.0689842
-0.0039225
0.0615529
0.126257
0.190382
0.253684
0.310194
0.355192
0.39026
0.41692
0.436917
0.451864
0.46304
0.471156
0.47532
-0.319011
-0.303036
-0.256967
-0.200704
-0.139869
-0.0757955
-0.0100556
0.0555468
0.119563
0.182276
0.244758
0.302963
0.351469
0.390209
0.419827
0.441866
0.458081
0.469962
0.478438
0.482732
-0.328953
-0.312553
-0.265657
-0.20838
-0.146576
-0.0816292
-0.0153403
0.050122
0.112918
0.173291
0.233852
0.293463
0.346293
0.389947
0.423657
0.448584
0.466604
0.479505
0.488509
0.492998
-0.338006
-0.321225
-0.273368
-0.215158
-0.152377
-0.0865814
-0.0198228
0.0453189
0.106428
0.163477
0.220737
0.281153
0.339173
0.389295
0.428598
0.457509
0.478047
0.492395
0.502082
0.506807
-0.346435
-0.329255
-0.280405
-0.221192
-0.157407
-0.0907493
-0.0235355
0.0411785
0.100241
0.152966
0.205214
0.265396
0.329466
0.387959
0.43476
0.469058
0.493019
0.509349
0.520003
0.524977
-0.35426
-0.336642
-0.286838
-0.226612
-0.161791
-0.0942212
-0.0265042
0.0377564
0.0945151
0.141985
0.187195
0.245489
0.316354
0.385535
0.44219
0.483698
0.512174
0.531046
0.542942
0.548327
-0.361757
-0.343613
-0.292811
-0.231526
-0.16564
-0.0970993
-0.0287853
0.0351083
0.0894302
0.130794
0.166687
0.220678
0.298871
0.381507
0.450838
0.501581
0.535979
0.558117
0.571576
0.577419
-0.368849
-0.350266
-0.298432
-0.236051
-0.169046
-0.0994635
-0.0304528
0.0332417
0.085168
0.119739
0.143815
0.190197
0.275789
0.375002
0.460343
0.522987
0.565117
0.591406
0.606744
0.612899
-0.375808
-0.356694
-0.30378
-0.240271
-0.172117
-0.10142
-0.0315617
0.0321259
0.0818663
0.109204
0.118816
0.153226
0.245864
0.3649
0.470547
0.548033
0.59954
0.631188
0.647964
0.653564
-0.382592
-0.36291
-0.308925
-0.24425
-0.174914
-0.103053
-0.0321991
0.0317474
0.0796136
0.0995927
0.0920363
0.108888
0.206904
0.35018
0.481325
0.576629
0.639364
0.678115
0.696055
0.69739
-0.389378
-0.369093
-0.313876
-0.24802
-0.177521
-0.104446
-0.0324605
0.0320306
0.0784664
0.0912495
0.0640236
0.0571617
0.156318
0.32963
0.491269
0.605789
0.680528
0.729906
0.755777
0.745971
-0.396164
-0.375269
-0.318656
-0.251635
-0.180032
-0.105689
-0.0324033
0.0329288
0.0784574
0.0841836
0.0339076
-0.00717814
0.0867909
0.297645
0.50228
0.638892
0.719817
0.776708
0.814427
0.819294
-0.402891
-0.381318
-0.323148
-0.255124
-0.182531
-0.106882