/*--------------------------------*- C++ -*----------------------------------*\
| =========                 |                                                 |
| \\      /  F ield         | OpenFOAM: The Open Source CFD Toolbox           |
|  \\    /   O peration     | Version:  4.0                                   |
|   \\  /    A nd           | Web:      www.OpenFOAM.org                      |
|    \\/     M anipulation  |                                                 |
\*---------------------------------------------------------------------------*/
FoamFile
{
    version     2.0;
    format      ascii;
    class       surfaceScalarField;
    location    "5";
    object      phi;
}
// * * * * * * * * * * * * * * * * * * * * * * * * * * * * * * * * * * * * * //

dimensions      [0 3 -1 0 0 0 0];

internalField   nonuniform List<scalar> 
17370
(
-0.0915586
0.096115
0.284454
-0.077723
0.0595849
0.364914
-0.0433396
0.0320967
0.427411
-0.0228626
0.0167637
0.505351
-0.0120447
0.00902038
0.602426
-0.00663925
0.00508222
0.720615
-0.00383011
0.00298436
0.863752
-0.00226502
0.00171676
1.036
-0.00116901
0.00070787
1.24296
-0.000279744
-2.49045e-05
1.4915
0.000350659
-0.000798205
1.49164
0.00124835
-0.00177706
1.24322
0.00230998
-0.00301279
1.03634
0.0038442
-0.00508679
0.864149
0.00664152
-0.00902564
0.721442
0.0120554
-0.01678
0.603939
0.0228825
-0.0321174
0.508674
0.0433564
-0.059596
0.432408
0.07773
-0.096118
0.365164
0.0915641
0.197447
-0.127669
0.0897218
0.0379474
-0.364982
0.355304
-0.0690834
0.0787609
-0.447106
0.45559
-0.0757044
0.067221
-0.520827
0.529421
-0.0584934
0.0499003
-0.612754
0.62021
-0.0424265
0.0349702
-0.727141
0.732721
-0.0289251
0.0233449
-0.867499
0.871481
-0.0189917
0.0150101
-1.03828
1.04102
-0.0119504
0.00920959
-1.24434
1.24634
-0.00705952
0.00505878
-1.49247
1.49427
-0.00341888
0.00161906
-1.49236
1.49416
0.000216286
-0.00202243
-1.24377
1.24541
0.00378771
-0.00542789
-1.03732
1.03946
0.00744254
-0.00958165
-0.866041
0.869061
0.0122993
-0.0153198
-0.724644
0.72896
0.0192611
-0.0235775
-0.608988
0.615008
0.0291228
-0.0351426
-0.514889
0.522341
0.0425716
-0.0500232
-0.439967
0.448682
0.0585999
-0.0673147
-0.375319
0.378361
0.0757791
-0.0788212
-0.257464
0.226302
0.0691244
-0.0379628
-0.0721218
0.0646924
0.00742937
-0.0405765
0.0469134
-0.37588
0.369543
-0.0476016
0.0456826
-0.45421
0.456129
-0.0422165
0.0390689
-0.527293
0.530441
-0.0356223
0.0323805
-0.619731
0.622973
-0.0287499
0.0253792
-0.733173
0.736544
-0.0216308
0.0182588
-0.872534
0.875906
-0.014668
0.0115567
-1.04227
1.04539
-0.00827644
0.00538509
-1.24782
1.25071
-0.00236639
-0.000296215
-1.49657
1.49923
0.00297717
-0.00598056
-1.49672
1.49972
0.00882937
-0.0120369
-1.24906
1.25226
0.0151047
-0.0186532
-1.0443
1.04785
0.0220085
-0.0257281
-0.875526
0.879245
0.0290778
-0.032679
-0.737577
0.741179
0.0358947
-0.0393015
-0.625295
0.628702
0.0424129
-0.0458437
-0.535146
0.538577
0.0477306
-0.0470128
-0.458794
0.458077
0.0406494
-0.0245304
-0.339802
0.323683
0.00744382
-0.0720721
0.0646283
-0.0619114
0.0613871
0.00052431
-0.0119724
0.0188792
-0.362014
0.355107
-0.0247374
0.0286083
-0.454653
0.450783
-0.0310396
0.0319084
-0.531583
0.530714
-0.0315602
0.030419
-0.624772
0.625914
-0.0285089
0.0263519
-0.73925
0.741407
-0.0235942
0.0207887
-0.879027
0.881833
-0.017479
0.0142982
-1.0486
1.05178
-0.0106528
0.00718444
-1.25396
1.25743
-0.00321532
-0.000643765
-1.50258
1.50644
0.00449783
-0.00843232
-1.50331
1.50725
0.0118431
-0.0154146
-1.25577
1.25935
0.0185219
-0.0217292
-1.05131
1.05451
0.0244351
-0.0270855
-0.882459
0.885109
0.0291414
-0.0309417
-0.743611
0.745412
0.0319991
-0.0322896
-0.630423
0.630713
0.0313779
-0.028905
-0.538962
0.536489
0.0249963
-0.0190882
-0.454141
0.448233
0.0121217
-0.00441489
-0.311576
0.30387
0.000551629
-0.0618271
0.0612754
-0.0614453
0.0613609
8.43733e-05
-0.00400997
0.00817118
-0.34958
0.345419
-0.013257
0.0174795
-0.446219
0.441996
-0.0211053
0.0233065
-0.528743
0.526542
-0.0246132
0.0249448
-0.626121
0.62579
-0.0245061
0.0234838
-0.743033
0.744055
-0.0217394
0.0196468
-0.884385
0.886477
-0.0168853
0.0140094
-1.05494
1.05781
-0.0105426
0.00712016
-1.26099
1.26441
-0.00303292
-0.00100589
-1.51049
1.51453
0.00500723
-0.00900489
-1.51131
1.5153
0.0123604
-0.0157316
-1.26291
1.26629
0.0184765
-0.0211116
-1.05754
1.06018
0.0230895
-0.0247141
-0.887315
0.88894
0.025632
-0.025955
-0.746388
0.746711
0.0255107
-0.0240678
-0.629681
0.628238
0.0217433
-0.0179878
-0.532785
0.52903
0.0136538
-0.00845173
-0.442174
0.436972
0.00419439
-0.0011286
-0.299195
0.296129
0.000113058
-0.0613087
0.0611957
-0.0612357
0.0612007
3.5065e-05
-0.00165681
0.00369358
-0.342421
0.340384
-0.00659783
0.00934202
-0.438462
0.435718
-0.0120496
0.0140498
-0.524366
0.522365
-0.015666
0.0166198
-0.625082
0.624128
-0.0170501
0.0168964
-0.744633
0.744787
-0.0161424
0.0149736
-0.888096
0.889264
-0.0131928
0.0111616
-1.06026
1.06229
-0.00851116
0.00573452
-1.26754
1.27031
-0.00225569
-0.00128019
-1.51841
1.52195
0.00478114
-0.00817993
-1.51908
1.52248
0.0108956
-0.0134594
-1.26929
1.27185
0.0153355
-0.0169134
-1.06228
1.06386
0.0179033
-0.0184679
-0.890034
0.890599
0.0184579
-0.0178569
-0.746556
0.745955
0.0167482
-0.0149591
-0.62655
0.624761
0.0128091
-0.00995193
-0.525636
0.522778
0.00708164
-0.0040478
-0.432868
0.429835
0.00189559
-0.000537341
-0.294047
0.292689
7.54938e-05
-0.0610333
0.0609578
-0.0611986
0.0611785
2.00795e-05
-0.000736138
0.00162459
-0.339049
0.338161
-0.00296235
0.00432762
-0.433743
0.432378
-0.00581577
0.0070676
-0.520717
0.519465
-0.00824987
0.00909446
-0.623151
0.622307
-0.00970751
0.00994807
-0.744658
0.744417
-0.00982855
0.00934967
-0.890029
0.890508
-0.00840543
0.00715934
-1.06391
1.06516
-0.00537777
0.00339769
-1.2727
1.27468
-0.000901273
-0.00162937
-1.52499
1.52752
0.00412182
-0.00649907
-1.52538
1.52775
0.00831049
-0.0098817
-1.27392
1.27549
0.0109372
-0.011642
-1.06495
1.06565
0.0118934
-0.0117654
-0.890727
0.890599
0.0113028
-0.0104558
-0.745129
0.744282
0.00941277
-0.00803548
-0.623113
0.621736
0.00661889
-0.00496215
-0.520554
0.518897
0.00345314
-0.00196837
-0.427705
0.42622
0.000957304
-0.000306328
-0.291788
0.291137
5.53077e-05
-0.06092
0.0608647
-0.0611574
0.0611514
5.95004e-06
-0.000345068
0.000758029
-0.337554
0.337141
-0.00137845
0.00202836
-0.431436
0.430786
-0.00276932
0.00343075
-0.518547
0.517885
-0.00409733
0.00461082
-0.621634
0.62112
-0.00502878
0.00524798
-0.744167
0.743947
-0.00526992
0.00506086
-0.890814
0.891023
-0.00454693
0.00380265
-1.06611
1.06686
-0.00267274
0.00137001
-1.27629
1.27759
0.000290587
-0.0019878
-1.5296
1.5313
0.00364308
-0.00516223
-1.52967
1.53119
0.00623634
-0.00706598
-1.27664
1.27747
0.00755207
-0.00777753
-1.06608
1.0663
0.00771717
-0.0074004
-0.890344
0.890027
0.00691782
-0.00622318
-0.743502
0.742807
0.00547464
-0.00457597
-0.620622
0.619723
0.0037197
-0.00278046
-0.517661
0.516722
0.0019632
-0.00117438
-0.425155
0.424367
0.00062162
-0.000231773
-0.290638
0.290249
5.38787e-05
-0.0608033
0.0607494
-0.0611577
0.061173
-1.53308e-05
-8.39992e-05
0.000256071
-0.336867
0.336695
-0.000528125
0.000819367
-0.430344
0.430053
-0.00115799
0.00146652
-0.517423
0.517115
-0.00178503
0.00203642
-0.620748
0.620496
-0.00224516
0.00235169
-0.74378
0.743673
-0.00234729
0.00220691
-0.891182
0.891322
-0.00187471
0.00139212
-1.06745
1.06793
-0.000654664
-0.000202314
-1.27865
1.2795
0.0013021
-0.00241665
-1.53267
1.53379
0.00347359
-0.00439382
-1.53238
1.5333
0.00499599
-0.00539154
-1.27805
1.27845
0.00554941
-0.00552539
-1.06638
1.06636
0.00533805
-0.0049887
-0.889684
0.889335
0.00456937
-0.00403405
-0.742197
0.741661
0.00350276
-0.00290071
-0.618993
0.618391
0.00235254
-0.00177093
-0.515993
0.515412
0.00127491
-0.000795075
-0.423763
0.423283
0.000446252
-0.000181181
-0.289934
0.289669
4.68581e-05
-0.0607012
0.0606544
-0.061197
0.0612283
-3.13434e-05
8.3364e-05
-5.32356e-05
-0.336599
0.336569
-2.77847e-05
0.000123579
-0.429872
0.429776
-0.000235947
0.00033514
-0.516923
0.516824
-0.000430843
0.000496055
-0.620346
0.620281
-0.000530317
0.000513872
-0.743629
0.743646
-0.000425478
0.000264165
-0.891466
0.891628
1.93751e-05
-0.000387067
-1.06834
1.06871
0.000915964
-0.00150852
-1.28021
1.2808
0.00225165
-0.00297725
-1.53469
1.53541
0.00362858
-0.00415083
-1.534
1.53452
0.00443485
-0.00455427
-1.2787
1.27882
0.00454339
-0.00438698
-1.06626
1.0661
0.00414511
-0.00379906
-0.888987
0.888641
0.00343268
-0.00299915
-0.741185
0.740752
0.00259071
-0.0021447
-0.617881
0.617435
0.00174892
-0.00133614
-0.514931
0.514518
0.000986221
-0.000643736
-0.422886
0.422543
0.000383703
-0.000169859
-0.289436
0.289222
4.88375e-05
-0.0606071
0.0605582
-0.0612677
0.0613133
-4.56486e-05
0.000205267
-0.000257219
-0.336584
0.336636
0.000298377
-0.000332321
-0.429751
0.429785
0.000372422
-0.000416811
-0.516802
0.516847
0.000478748
-0.00055286
-0.62029
0.620364
0.000660171
-0.000789519
-0.74372
0.74385
0.000974728
-0.00119229
-0.891814
0.892032
0.00149257
-0.00182801
-1.06905
1.06939
0.00226312
-0.00271307
-1.28131
1.28176
0.00324025
-0.00371535
-1.536
1.53647
0.00409823
-0.00435148
-1.5349
1.53515
0.00444697
-0.00440953
-1.27884
1.2788
0.00424547
-0.00399112
-1.0659
1.06564
0.0037009
-0.00334071
-0.888291
0.887931
0.00298992
-0.00259626
-0.740345
0.739951
0.00223893
-0.00185864
-0.617031
0.616651
0.00152725
-0.00118533
-0.514149
0.513808
0.000895915
-0.000608333
-0.422236
0.421948
0.000380342
-0.000179172
-0.289018
0.288817
5.50584e-05
-0.0605068
0.0604518
-0.0613666
0.0614291
-6.25271e-05
0.000329038
-0.000460754
-0.33673
0.336862
0.000596524
-0.000723627
-0.429867
0.429994
0.000874056
-0.00102537
-0.516947
0.517098
0.00120903
-0.0013958
-0.620496
0.620683
0.0016242
-0.00185778
-0.744031
0.744265
0.00214463
-0.00243716
-0.892285
0.892577
0.00279259
-0.00314679
-1.06973
1.07008
0.00356073
-0.00394761
-1.28217
1.28256
0.00435485
-0.00467191
-1.53686
1.53718
0.00487198
-0.00492828
-1.5353
1.53535
0.00484668
-0.00466881
-1.2787
1.27853
0.00442739
-0.00409392
-1.06535
1.06501
0.00375185
-0.00335521
-0.887556
0.887159
0.00298606
-0.00258521
-0.739559
0.739159
0.0022297
-0.00185763
-0.61628
0.615908
0.00153697
-0.0012084
-0.513478
0.513149
0.000930203
-0.000650153
-0.421669
0.421389
0.000420169
-0.000206106
-0.288612
0.288398
6.58717e-05
-0.0603919
0.060326
-0.0615013
0.0615837
-8.23832e-05
0.000455737
-0.000657592
-0.337028
0.33723
0.000880378
-0.0010944
-0.430165
0.430379
0.00134698
-0.00159724
-0.517299
0.517549
0.00189466
-0.00218881
-0.620923
0.621217
0.00253652
-0.00287766
-0.744551
0.744893
0.00327655
-0.00366159
-0.892914
0.893299
0.0041014
-0.00451116
-1.07046
1.07087
0.00495466
-0.00533401
-1.28293
1.28331
0.00568857
-0.00591399
-1.53744
1.53767
0.00599267
-0.00591222
-1.53534
1.53526
0.00571511
-0.00539443
-1.27827
1.27795
0.00504263
-0.00461072
-1.06463
1.0642
0.00419378
-0.0037284
-0.886732
0.886267
0.00330711
-0.00285868
-0.738739
0.73829
0.00246674
-0.0020607
-0.615524
0.615118
0.00171323
-0.00135865
-0.512812
0.512458
0.00105825
-0.00075278
-0.4211
0.420794
0.000495767
-0.00024846
-0.28817
0.287922
8.09851e-05
-0.060253
0.060172
-0.0616774
0.0617841
-0.000106659
0.000603388
-0.000881368
-0.337469
0.337747
0.0011952
-0.0014992
-0.430637
0.430941
0.0018581
-0.00221215
-0.51785
0.518204
0.00263012
-0.00303964
-0.621567
0.621977
0.00351777
-0.00397959
-0.745292
0.745754
0.00450923
-0.00500836
-0.893738
0.894237
0.00556192
-0.00605908
-1.07132
1.07182
0.00657284
-0.00698522
-1.28371
1.28412
0.00733348
-0.00750702
-1.53786
1.53804
0.00749513
-0.0072917
-1.53511
1.53491
0.00697558
-0.00652515
-1.27757
1.27712
0.00605412
-0.00550132
-1.06371
1.06316
0.00498231
-0.0044148
-0.885755
0.885187
0.00390856
-0.00337555
-0.737804
0.737271
0.00291338
-0.00243751
-0.614681
0.614205
0.00203199
-0.00161927
-0.512078
0.511665
0.00126945
-0.000911661
-0.420466
0.420108
0.000606438
-0.000307315
-0.287651
0.287352
0.000101165
-0.0600817
0.0599805
-0.0619053
0.0620432
-0.000137887
0.000786876
-0.00115504
-0.338068
0.338436
0.00157429
-0.0019816
-0.431294
0.431702
0.00246225
-0.0029354
-0.518615
0.519088
0.00349241
-0.00403604
-0.62245
0.622994
0.00466741
-0.00527312
-0.746284
0.746889
0.00596159
-0.0066031
-0.894803
0.895445
0.00730403
-0.00792166
-1.07237
1.07299
0.00854299
-0.00902253
-1.28456
1.28504
0.00939868
-0.00954585
-1.53819
1.53834
0.00945773
-0.00913339
-1.53465
1.53432
0.00868714
-0.00808569
-1.27659
1.27599
0.00747414
-0.00676903
-1.06254
1.06183
0.00611656
-0.00541039
-0.884556
0.883849
0.00478556
-0.00413126
-0.736682
0.736028
0.00356628
-0.00298613
-0.613682
0.613102
0.00249283
-0.00199125
-0.511212
0.51071
0.00156594
-0.00112971
-0.419714
0.419278
0.000755043
-0.0003846
-0.28702
0.28665
0.000127152
-0.0598672
0.05974
-0.0622
0.0623783
-0.000178309
0.00102019
-0.00149997
-0.338857
0.339336
0.00204793
-0.0025808
-0.432168
0.432701
0.00320964
-0.00382802
-0.51963
0.520248
0.00455481
-0.00526265
-0.623615
0.624323
0.00608253
-0.00686613
-0.747579
0.748363
0.00775261
-0.00857335
-0.896171
0.896991
0.00946284
-0.0102379
-1.07368
1.07445
0.0110057
-0.0115838
-1.28556
1.28614
0.0120152
-0.0121505
-1.53848
1.53862
0.011987
-0.0115289
-1.53393
1.53348
0.0109306
-0.0101456
-1.2753
1.27452
0.00935869
-0.00846068
-1.06104
1.06014
0.00763528
-0.00674686
-0.883058
0.88217
0.0059637
-0.00514638
-0.735298
0.73448
0.00444231
-0.00372088
-0.612456
0.611735
0.00310815
-0.00248553
-0.510152
0.50953
0.00195745
-0.00141493
-0.418792
0.41825
0.000947419
-0.000483324
-0.286235
0.285771
0.000159899
-0.0595975
0.0594376
-0.0625813
0.0628126
-0.000231301
0.00132193
-0.00194363
-0.339883
0.340504
0.00265418
-0.00334513
-0.433308
0.433999
0.00416031
-0.00496115
-0.520953
0.521753
0.00590137
-0.00681571
-0.625128
0.626042
0.00787267
-0.0088804
-0.749252
0.750259
0.0100165
-0.0110641
-0.897919
0.898966
0.012193
-0.0131696
-1.07532
1.0763
0.0141266
-0.014835
-1.28678
1.28749
0.0153444
-0.0154739
-1.53875
1.53888
0.0152243
-0.0146051
-1.53294
1.53232
0.0138203
-0.0128052
-1.27362
1.27261
0.011797
-0.0106531
-1.05912
1.05798
0.00960645
-0.00848331
-0.881171
0.880048
0.00749553
-0.00646639
-0.733564
0.732535
0.00558101
-0.0046745
-0.610926
0.61002
0.00390516
-0.00312394
-0.508833
0.508052
0.0024616
-0.00178079
-0.417643
0.416962
0.00119321
-0.000608953
-0.285251
0.284667
0.000201407
-0.0592581
0.0590567
-0.0630765
0.0633778
-0.000301281
0.00171631
-0.00252131
-0.341212
0.342017
0.00344099
-0.00433488
-0.434785
0.435679
0.00538908
-0.00642361
-0.522664
0.523698
0.00763664
-0.00881447
-0.62708
0.628258
0.0101734
-0.0114659
-0.751401
0.752693
0.0129189
-0.0142536
-0.900149
0.901484
0.015685
-0.0169151
-1.0774
1.07863
0.0181096
-0.0189808
-1.28828
1.28915
0.019587
-0.019708
-1.53901
1.53913
0.0193493
-0.0185265
-1.53161
1.53078
0.0175056
-0.0161991
-1.27146
1.27015
0.0149098
-0.0134531
-1.05669
1.05523
0.0121243
-0.0107016
-0.878784
0.877361
0.00945264
-0.00815296
-0.731379
0.730079
0.00703581
-0.00589263
-0.609002
0.607859
0.00492275
-0.00393805
-0.507175
0.50619
0.0031031
-0.00224458
-0.416197
0.415339
0.00150343
-0.000766652
-0.284011
0.283274
0.000253239
-0.0588308
0.0585775
-0.0637231
0.0641181
-0.000395068
0.00223906
-0.00328396
-0.342933
0.343978
0.00447609
-0.0056337
-0.436695
0.437853
0.00699778
-0.00833449
-0.524874
0.52621
0.00989937
-0.0114162
-0.629595
0.631111
0.0131624
-0.0148188
-0.754157
0.755813
0.0166746
-0.018372
-0.902989
0.904687
0.0201827
-0.0217278
-1.08001
1.08155
0.0232132
-0.0242795
-1.29011
1.29118
0.0249948
-0.0250931
-1.53924
1.53934
0.0245867
-0.0234995
-1.52984
1.52875
0.0221766
-0.0204993
-1.26867
1.26699
0.0188534
-0.0170006
-1.05359
1.05174
0.0153147
-0.0135127
-0.87576
0.873958
0.0119326
-0.0102896
-0.728618
0.726975
0.00887815
-0.00743458
-0.606575
0.605131
0.0062103
-0.00496748
-0.505084
0.503841
0.00391358
-0.00282985
-0.414375
0.413291
0.00189433
-0.000964877
-0.282446
0.281517
0.00031817
-0.0582935
0.0579754
-0.0645738
0.0650967
-0.000522834
0.00294271
-0.00430681
-0.345168
0.346532
0.00585995
-0.00736563
-0.439169
0.440675
0.00913614
-0.0108672
-0.527731
0.529462
0.012889
-0.0148438
-0.632835
0.634789
0.0170877
-0.019209
-0.757689
0.75981
0.0215755
-0.0237287
-0.9066
0.908753
0.0260097
-0.0279393
-1.08328
1.08521
0.0297713
-0.0310606
-1.29235
1.29364
0.0318852
-0.0319296
-1.53941
1.53946
0.031217
-0.0297829
-1.5275
1.52607
0.028072
-0.0259238
-1.26509
1.26295
0.0238273
-0.021475
-1.04965
1.0473
0.019339
-0.0170592
-0.87193
0.869651
0.0150619
-0.0129863
-0.725127
0.723052
0.0112039
-0.00938114
-0.603509
0.601686
0.00783514
-0.00626538
-0.502445
0.500875
0.00493397
-0.00356488
-0.412074
0.410705
0.00238378
-0.00121207
-0.280473
0.279302
0.000398738
-0.0576193
0.0572206
-0.065706
0.0664081
-0.00070207
0.00391267
-0.00571275
-0.348085
0.349885
0.00775535
-0.00972795
-0.442386
0.444359
0.0120346
-0.0142812
-0.531437
0.533683
0.0168955
-0.0194159
-0.637017
0.639537
0.0222988
-0.025013
-0.762214
0.764929
0.0280239
-0.0307437
-0.911175
0.913894
0.0335983
-0.0359839
-1.08736
1.08974
0.0382112
-0.0397369
-1.29505
1.29657
0.0406479
-0.0405807
-1.53946
1.53939
0.039576
-0.0376848
-1.52442
1.52253
0.0354776
-0.032735
-1.26052
1.25777
0.0300735
-0.0270974
-1.04465
1.04167
0.0244002
-0.0215243
-0.867087
0.864211
0.0190062
-0.0163899
-0.720718
0.718102
0.0141431
-0.0118445
-0.599638
0.597339
0.00989357
-0.00791103
-0.499113
0.497131
0.00622796
-0.00449634
-0.409169
0.407438
0.0030033
-0.00152457
-0.277987
0.276508
0.000500556
-0.056774
0.0562735
-0.0672336
0.0682053
-0.000971696
0.00531876
-0.00773888
-0.351915
0.354335
0.0104599
-0.0130592
-0.446598
0.449197
0.0160647
-0.0189755
-0.536271
0.539182
0.0223493
-0.0255947
-0.642432
0.645678
0.0292952
-0.0327617
-0.768008
0.771475
0.0365775
-0.0399893
-0.91694
0.920352
0.043522
-0.0464248
-1.09237
1.09528
0.0490715
-0.0508156
-1.29821
1.29996
0.0517486
-0.0514727
-1.53923
1.53896
0.050054
-0.0475646
-1.52036
1.51787
0.0447298
-0.0412479
-1.25468
1.2512
0.0378903
-0.0341466
-1.03833
1.03458
0.0307593
-0.0271494
-0.86098
0.85737
0.0239892
-0.0207053
-0.715159
0.711875
0.0178835
-0.0149933
-0.594754
0.591864
0.0125355
-0.0100311
-0.49491
0.492405
0.00789806
-0.00569821
-0.405504
0.403304
0.00380152
-0.00192729
-0.274852
0.272978
0.000632683
-0.0557142
0.0550815
-0.0693343
0.0707523
-0.00141805
0.00751414
-0.0108403
-0.356998
0.360324
0.0144866
-0.0178911
-0.452179
0.455584
0.0217654
-0.0255072
-0.542636
0.546378
0.0298452
-0.0340232
-0.649467
0.653645
0.0387766
-0.0431978
-0.775402
0.779823
0.0480061
-0.0522373
-0.92413
0.928361
0.0565323
-0.0599751
-1.09843
1.10187
0.0630094
-0.0648956
-1.30177
1.30366
0.0657222
-0.0650851
-1.53851
1.53788
0.0630872
-0.0598265
-1.51501
1.51175
0.056213
-0.0518339
-1.24728
1.24291
0.0476386
-0.0429749
-1.03039
1.02573
0.0387597
-0.0342676
-0.853314
0.848822
0.0303338
-0.0262426
-0.708165
0.704074
0.0227231
-0.0191119
-0.588596
0.584984
0.0160297
-0.0128709
-0.489604
0.486445
0.0101583
-0.00733769
-0.400879
0.398059
0.00489528
-0.00248344
-0.270896
0.268485
0.000819925
-0.0543844
0.0535645
-0.0723162
0.0745305
-0.00221424
0.0111942
-0.0157974
-0.363891
0.368495
0.0206081
-0.0249804
-0.459728
0.4641
0.0299079
-0.0347114
-0.551097
0.555901
0.0403312
-0.0457528
-0.658596
0.664017
0.0518795
-0.0574898
-0.784742
0.790352
0.0634597
-0.0685818
-0.932914
0.938036
0.0736322
-0.0775388
-1.10547
1.10938
0.0808145
-0.0826653
-1.3055
1.30735
0.0831574
-0.081933
-1.53694
1.53572
0.0791407
-0.0749077
-1.50801
1.50378
0.0703556
-0.0649238
-1.238
1.23257
0.0597592
-0.0540352
-1.02052
1.0148
0.0488658
-0.0433537
-0.843767
0.838255
0.0385217
-0.0334896
-0.699402
0.69437
0.0291542
-0.0246974
-0.580828
0.576371
0.0208754
-0.0169233
-0.482885
0.478933
0.0134751
-0.00981293
-0.395029
0.391366
0.00658078
-0.00335516
-0.265899
0.262673
0.00112168
-0.0527095
0.0515878
-0.0767963
0.0805482
-0.00375194
0.0178576
-0.0242242
-0.373596
0.379963
0.0304819
-0.036079
-0.470151
0.475749
0.042452
-0.0487578
-0.562363
0.568669
0.0561683
-0.0632098
-0.670322
0.677364
0.070959
-0.0778231
-0.796296
0.80316
0.084875
-0.090709
-0.943264
0.949098
0.0962339
-0.100298
-1.11321
1.11727
0.10344
-0.104904
-1.30892
1.31038
0.104674
-0.102531
-1.53399
1.53184
0.098668
-0.0932349
-1.49892
1.49348
0.0875911
-0.080976
-1.22652
1.2199
0.0747474
-0.0678745
-1.00845
1.00158
0.0616716
-0.0550493
-0.832047
0.825425
0.0492318
-0.0431581
-0.688529
0.682456
0.0379112
-0.0325032
-0.571054
0.565646
0.0278375
-0.0229606
-0.474324
0.469447
0.0186077
-0.0137911
-0.387549
0.382733
0.0093761
-0.00482352
-0.25952
0.254968
0.00161868
-0.0505575
0.0489389
-0.0840726
0.0914025
-0.00732991
0.0319161
-0.040938
-0.388003
0.397025
0.048918
-0.0560465
-0.484668
0.491797
0.064401
-0.0726458
-0.577147
0.585391
0.082062
-0.0906124
-0.68497
0.693521
0.0995863
-0.107171
-0.809949
0.817534
0.114639
-0.120534
-0.954664
0.960558
0.125818
-0.129389
-1.12089
1.12446
0.13173
-0.132223
-1.31122
1.31171
0.130719
-0.12721
-1.52892
1.52541
0.121931
-0.115055
-1.48726
1.48038
0.108172
-0.100284
-1.21259
1.2047
0.0929529
-0.0849251
-0.994019
0.985991
0.0776984
-0.0699794
-0.818017
0.810298
0.0631803
-0.0560561
-0.675347
0.668223
0.0498701
-0.043453
-0.558955
0.552538
0.0378764
-0.0320006
-0.463421
0.457545
0.0265884
-0.020158
-0.377796
0.371365
0.0137795
-0.00695316
-0.250932
0.244106
0.00223164
-0.047645
0.0454134
-0.0989367
0.101511
-0.0025743
0.0187265
-0.0269965
-0.409677
0.417947
0.0351347
-0.0430964
-0.504131
0.512093
0.0527405
-0.0626407
-0.59531
0.60521
0.0733962
-0.082943
-0.701772
0.711319
0.0935218
-0.102856
-0.824405
0.833739
0.112522
-0.120791
-0.965603
0.973871
0.128993
-0.13555
-1.12706
1.13362
0.141395
-0.145235
-1.31115
1.31499
0.147348
-0.146873
-1.52081
1.52033
0.1437
-0.138191
-1.47256
1.46705
0.131627
-0.123207
-1.19608
1.18766
0.114898
-0.104826
-0.977308
0.967237
0.0954691
-0.0850397
-0.801853
0.791424
0.0755858
-0.065416
-0.660052
0.649883
0.0561419
-0.0465779
-0.544659
0.535095
0.0384305
-0.0295274
-0.45008
0.441177
0.0215456
-0.0130783
-0.364687
0.35622
0.00631335
-0.00151151
-0.237913
0.233111
-0.000293909
-0.0432221
0.0435161
-0.108571
0.10334
0.00523106
-0.00501487
-0.000302978
-0.429665
0.434983
0.00788707
-0.0151058
-0.523382
0.530601
0.024062
-0.032467
-0.615129
0.623534
0.0419539
-0.0505889
-0.720837
0.729472
0.0597793
-0.0680809
-0.842594
0.850896
0.0766766
-0.0837454
-0.981829
0.988898
0.0909491
-0.0964126
-1.14004
1.1455
0.101255
-0.104219
-1.31869
1.32166
0.105302
-0.104222
-1.51936
1.51828
0.100693
-0.0951423
-1.46115
1.4556
0.0886337
-0.0805862
-1.17923
1.17118
0.0728601
-0.0639965
-0.957414
0.94855
0.0556864
-0.046432
-0.780917
0.771663
0.0381536
-0.0296602
-0.638762
0.630268
0.0224489
-0.0150816
-0.523794
0.516426
0.00888202
-0.00287008
-0.42978
0.423768
-0.00176655
0.00559323
-0.345572
0.341746
-0.00702083
0.00562466
-0.225361
0.226757
-0.00271959
-0.0417325
0.044452
-0.104932
0.100461
0.00447061
-0.0100958
0.00752599
-0.444168
0.446738
-0.00263986
-0.00295992
-0.539841
0.545441
0.00993167
-0.0167966
-0.632027
0.638892
0.024532
-0.0316086
-0.737497
0.744573
0.0393459
-0.0462097
-0.858389
0.865253
0.053124
-0.0591727
-0.9957
1.00175
0.0652059
-0.0699067
-1.15057
1.15527
0.073723
-0.0759023
-1.32414
1.32632
0.0766864
-0.075429
-1.51689
1.51563
0.0720639
-0.0670514
-1.45002
1.44501
0.0614035
-0.0547824
-1.1637
1.15708
0.0482391
-0.0411406
-0.940179
0.93308
0.0346573
-0.0276184
-0.763527
0.756488
0.0216608
-0.0155919
-0.622203
0.616134
0.0106856
-0.00570456
-0.508358
0.503377
0.00195949
0.00133281
-0.415965
0.412673
-0.00374336
0.00541124
-0.335036
0.333368
-0.00537554
0.0035148
-0.221526
0.223387
-0.00165638
-0.0434738
0.0451302
-0.101298
0.0977082
0.00358983
-0.010145
0.00923506
-0.453862
0.454772
-0.00607336
0.00167744
-0.552228
0.556624
0.00395725
-0.00925519
-0.645318
0.650616
0.0153938
-0.0210546
-0.751225
0.756886
0.0272356
-0.0327595
-0.871536
0.877059
0.0386959
-0.0435448
-1.00729
1.01214
0.0485859
-0.0521056
-1.15955
1.16307
0.0552481
-0.0569989
-1.32838
1.33013
0.0574413
-0.0559939
-1.51426
1.51281
0.0531515
-0.0490392
-1.44005
1.43593
0.0444103
-0.0387916
-1.15091
1.14529
0.0336231
-0.0281406
-0.926465
0.920983
0.0230614
-0.0179151
-0.750234
0.745087
0.0132721
-0.00878756
-0.610177
0.605692
0.00515177
-0.00178258
-0.497922
0.494553
-0.000642404
0.0027726
-0.407182
0.405051
-0.00426055
0.00487603
-0.328256
0.32764
-0.00467175
0.00303345
-0.218944
0.220582
-0.00138708
-0.0438346
0.0452217
-0.0989529
0.0963959
0.00255702
-0.00821625
0.00828678
-0.460473
0.460402
-0.00589512
0.00264869
-0.562045
0.565291
0.00154979
-0.00596497
-0.655802
0.660217
0.0107361
-0.015392
-0.762032
0.766688
0.0203796
-0.0248527
-0.882082
0.886555
0.029611
-0.0336679
-1.01676
1.02082
0.0376571
-0.0407284
-1.1664
1.16947
0.043263
-0.0446187
-1.3316
1.33295
0.0448647
-0.0435079
-1.51144
1.51009
0.0410425
-0.0374108
-1.43164
1.42801
0.0335672
-0.0290888
-1.14017
1.1357
0.0249362
-0.0204439
-0.915786
0.911294
0.0164892
-0.0123942
-0.740207
0.736112
0.00888647
-0.00538781
-0.601334
0.597835
0.00263139
-9.53425e-05
-0.490434
0.487898
-0.00187273
0.00344182
-0.401006
0.399437
-0.0042326
0.00467224
-0.32362
0.323181
-0.00441166
0.00264163
-0.216612
0.218382
-0.00121599
-0.0440002
0.0452162
-0.0979118
0.0958724
0.00203941
-0.00660606
0.0066146
-0.465274
0.465265
-0.00510398
0.00238515
-0.569141
0.57186
0.00136708
-0.00485062
-0.664084
0.667567
0.00866844
-0.0124535
-0.77073
0.774515
0.016605
-0.0203519
-0.890659
0.894406
0.0244506
-0.0277411
-1.02452
1.02781
0.031068
-0.0336095
-1.17219
1.17474
0.0356111
-0.0366105
-1.33405
1.33505
0.036618
-0.0355984
-1.50876
1.50774
0.0333278
-0.0302955
-1.42428
1.42125
0.026991
-0.0231865
-1.13144
1.12763
0.0199053
-0.0160532
-0.907074
0.903222
0.0127423
-0.00947111
-0.732259
0.728987
0.00660853
-0.00375592
-0.59453
0.591678
0.00147219
0.000784383
-0.484733
0.482476
-0.00220034
0.00339551
-0.396208
0.395013
-0.00419073
0.00440709
-0.319776
0.319559
-0.0039892
0.0024423
-0.214871
0.216418
-0.00108003
-0.0440749
0.0451549
-0.0975184
0.0958899
0.0016285
-0.00523809
0.00524042
-0.469338
0.469336
-0.00363972
0.00149195
-0.575236
0.577384
0.00178389
-0.00478754
-0.670856
0.67386
0.00831296
-0.0113867
-0.778051
0.781124
0.0148178
-0.0179237
-0.898087
0.901193
0.0216092
-0.024363
-1.03104
1.03379
0.0270318
-0.0292166
-1.17701
1.17919
0.031163
-0.03185
-1.33598
1.33667
0.0317561
-0.0306326
-1.50638
1.50525
0.0287749
-0.0258085
-1.4182
1.41524
0.023035
-0.0198501
-1.12394
1.12076
0.0169172
-0.0137805
-0.899682
0.896545
0.0109081
-0.00794152
-0.725697
0.72273
0.00571031
-0.00318189
-0.588827
0.586298
0.00109416
0.000726046
-0.47986
0.478039
-0.00209438
0.00329132
-0.392401
0.391204
-0.00386902
0.00399826
-0.316793
0.316664
-0.00357295
0.00218797
-0.213425
0.21481
-0.00098009
-0.0441041
0.0450842
-0.0976012
0.0962221
0.00137912
-0.00411893
0.00409085
-0.472982
0.47301
-0.00234547
0.000230915
-0.58048
0.582595
0.00268111
-0.00528524
-0.676732
0.679336
0.00817786
-0.0111029
-0.784248
0.787173
0.0141531
-0.0173228
-0.904101
0.907271
0.0202328
-0.0226877
-1.03655
1.039
0.0252882
-0.0270434
-1.18115
1.1829
0.0282709
-0.0290829
-1.33713
1.33794
0.0288598
-0.0277589
-1.5041
1.503
0.0258905
-0.0233719
-1.41253
1.41001
0.0208692
-0.0180075
-1.11744
1.11458
0.015464
-0.0126621
-0.893474
0.890672
0.0101298
-0.0076459
-0.719971
0.717487
0.0053872
-0.00319365
-0.583758
0.581565
0.00141536
0.000412004
-0.47582
0.473992
-0.00178136
0.0026875
-0.38888
0.387974
-0.00329227
0.00351843
-0.314152
0.313926
-0.00321157
0.00195063
-0.212211
0.213472
-0.000888801
-0.0441608
0.0450496
-0.0980901
0.096836
0.00125409
-0.00296157
0.00266012
-0.476515
0.476816
-0.00100601
-0.00110501
-0.5853
0.587411
0.00372005
-0.00624931
-0.682107
0.684636
0.00903006
-0.0116104
-0.789981
0.792561
0.0147687
-0.0171768
-0.909883
0.912291
0.0199782
-0.0221481
-1.04151
1.04368
0.0244476
-0.0261476
-1.18449
1.18619
0.0273196
-0.0275709
-1.33834
1.33859
0.0272392
-0.0261265
-1.50166
1.50055
0.0245343
-0.0220594
-1.40737
1.40489
0.0198162
-0.0172185
-1.11191
1.10931
0.0149564
-0.0123645
-0.887815
0.885223
0.0101582
-0.00778522
-0.714926
0.712553
0.00571027
-0.00361363
-0.579308
0.577211
0.00182444
-0.000279755
-0.471939
0.470394
-0.00112418
0.00209978
-0.385698
0.384722
-0.00284597
0.00307999
-0.311662
0.311428
-0.002788
0.00178779
-0.21103
0.212031
-0.000756664
-0.0441817
0.0449384
-0.0987077
0.0977536
0.000954112
-0.00196466
0.00121129
-0.480219
0.480972
0.00035437
-0.00248875
-0.589551
0.591686
0.00480971
-0.00727434
-0.687099
0.689563
0.00996133
-0.0127039
-0.795083
0.797826
0.0153212
-0.0178642
-0.914859
0.917402
0.0205649
-0.0224342
-1.04613
1.048
0.0246223
-0.0260189
-1.18752
1.18892
0.0268674
-0.0271913
-1.33898
1.3393
0.0267751
-0.0254107
-1.49923
1.49786
0.0236123
-0.0214789
-1.40252
1.40038
0.0195509
-0.0171523
-1.10668
1.10428
0.0150344
-0.0128742
-0.88271
0.88055
0.0105233
-0.00846805
-0.710091
0.708036
0.00652927
-0.00445281
-0.575259
0.573183
0.00285489
-0.00120274
-0.468284
0.466632
-0.000129617
0.00135921
-0.382827
0.381598
-0.00207174
0.00242087
-0.3093
0.308951
-0.00239995
0.00156982
-0.209899
0.210729
-0.00066326
-0.0440869
0.0447502
-0.0996309
0.0988464
0.000784478
-0.00113033
0.000434655
-0.48406
0.484756
0.00178361
-0.00366281
-0.594008
0.595887
0.00615771
-0.0085737
-0.691775
0.694191
0.0112028
-0.0136452
-0.800327
0.802769
0.0164189
-0.0186749
-0.919919
0.922175
0.0212813
-0.0234469
-1.05016
1.05232
0.0251083
-0.0265424
-1.19014
1.19157
0.027361
-0.0272709
-1.33923
1.33914
0.026558
-0.0252851
-1.49638
1.49511
0.0233616
-0.0214378
-1.39801
1.39609
0.0195112
-0.0174622
-1.10203
1.09998
0.015707
-0.0136939
-0.878192
0.876179
0.0116909
-0.00971162
-0.705684
0.703705
0.00787172
-0.00578662
-0.571116
0.569031
0.00408757
-0.00248402
-0.464721
0.463118
0.000937885
0.00036062
-0.379753
0.378454
-0.00124945
0.00178145
-0.30684
0.306308
-0.001842
0.00121752
-0.208794
0.209418
-0.000491087
-0.0439425
0.0444336
-0.100776
0.100191
0.000584276
-0.000192999
-0.000839119
-0.487902
0.488934
0.00287075
-0.00495914
-0.598181
0.600269
0.00745236
-0.0098153
-0.696402
0.698765
0.0126241
-0.0150121
-0.805254
0.807642
0.0177123
-0.0201065
-0.924849
0.927243
0.0225932