/*--------------------------------*- C++ -*----------------------------------*\
| =========                 |                                                 |
| \\      /  F ield         | OpenFOAM: The Open Source CFD Toolbox           |
|  \\    /   O peration     | Version:  4.0                                   |
|   \\  /    A nd           | Web:      www.OpenFOAM.org                      |
|    \\/     M anipulation  |                                                 |
\*---------------------------------------------------------------------------*/
FoamFile
{
    version     2.0;
    format      ascii;
    class       volVectorField;
    location    "5";
    object      U;
}
// * * * * * * * * * * * * * * * * * * * * * * * * * * * * * * * * * * * * * //

dimensions      [0 1 -1 0 0 0 0];

internalField   nonuniform List<vector> 
8800
(
(0.979349 -0.0913852 0)
(1.00172 -0.0589132 0)
(0.999744 -0.0325289 0)
(1.00056 -0.016991 0)
(0.999952 -0.00910374 0)
(0.999758 -0.00508968 0)
(0.999973 -0.00296698 0)
(1.00011 -0.00174583 0)
(1.00018 -0.000819627 0)
(1.00004 -0.000101319 0)
(1.00015 0.000487525 0)
(1.00016 0.00132892 0)
(1.00004 0.00232409 0)
(0.999875 0.00387734 0)
(0.99973 0.0067795 0)
(1.00028 0.0124017 0)
(1.00053 0.0235512 0)
(0.998512 0.0432543 0)
(1.00654 0.0792739 0)
(0.774979 0.0479149 0)
(0.362334 -0.0140381 0)
(1.04885 -0.0697275 0)
(1.09065 -0.0623133 0)
(1.04905 -0.0461279 0)
(1.02374 -0.032739 0)
(1.01078 -0.0220281 0)
(1.0049 -0.0144092 0)
(1.00206 -0.00903065 0)
(1.00096 -0.00520031 0)
(1.0009 -0.0021861 0)
(1.00103 0.000982014 0)
(1.00079 0.00395944 0)
(1.00134 0.00731839 0)
(1.00315 0.0117497 0)
(1.00735 0.018137 0)
(1.01609 0.0271435 0)
(1.03454 0.0394463 0)
(1.0685 0.0535421 0)
(1.09718 0.0679328 0)
(0.84826 0.0540697 0)
(0.232476 -0.000822846 0)
(1.07902 -0.0397237 0)
(1.09923 -0.0406735 0)
(1.06436 -0.034959 0)
(1.04042 -0.0293284 0)
(1.02472 -0.0232525 0)
(1.01508 -0.0170732 0)
(1.00969 -0.0111892 0)
(1.00684 -0.00581077 0)
(1.00549 -0.000852895 0)
(1.00597 0.00380671 0)
(1.00798 0.00889117 0)
(1.01184 0.0144173 0)
(1.01905 0.0204613 0)
(1.03156 0.0265696 0)
(1.05087 0.032356 0)
(1.08037 0.0378993 0)
(1.10672 0.041885 0)
(0.956344 0.0322098 0)
(0.232285 0.00082841 0)
(0.212518 0.000235598 0)
(1.03304 -0.013977 0)
(1.08795 -0.0235672 0)
(1.06337 -0.0275015 0)
(1.04258 -0.0268817 0)
(1.02916 -0.0237528 0)
(1.01988 -0.0191534 0)
(1.01381 -0.0136769 0)
(1.01026 -0.00765614 0)
(1.00864 -0.00109102 0)
(1.00913 0.00554022 0)
(1.01157 0.0117239 0)
(1.01628 0.0173509 0)
(1.02382 0.0222894 0)
(1.03493 0.0259367 0)
(1.05154 0.0281531 0)
(1.07656 0.0263981 0)
(1.08427 0.0199372 0)
(0.884708 0.00739153 0)
(0.212179 -0.000230291 0)
(0.212419 3.23806e-05 0)
(1.00124 -0.00519622 0)
(1.06726 -0.0136303 0)
(1.05777 -0.0195362 0)
(1.04548 -0.0216632 0)
(1.03489 -0.0208963 0)
(1.02659 -0.0179497 0)
(1.02046 -0.0133504 0)
(1.01632 -0.00761347 0)
(1.01423 -0.000858299 0)
(1.0148 0.0060336 0)
(1.01776 0.012129 0)
(1.02276 0.017134 0)
(1.02983 0.020757 0)
(1.03926 0.02253 0)
(1.05078 0.0216959 0)
(1.06361 0.0175019 0)
(1.05588 0.00977679 0)
(0.857446 0.00188746 0)
(0.211899 -2.59566e-05 0)
(0.211763 2.24847e-05 0)
(0.983862 -0.00220999 0)
(1.04966 -0.00701164 0)
(1.04797 -0.0114674 0)
(1.04193 -0.0141186 0)
(1.03572 -0.0148074 0)
(1.03002 -0.013541 0)
(1.02514 -0.0105776 0)
(1.02147 -0.00617983 0)
(1.01967 -0.000416227 0)
(1.02007 0.00562719 0)
(1.02265 0.0105704 0)
(1.02668 0.0140093 0)
(1.03189 0.0158454 0)
(1.0378 0.0158696 0)
(1.04392 0.0138966 0)
(1.04912 0.0100224 0)
(1.03579 0.00484188 0)
(0.845558 0.000840273 0)
(0.210989 -1.26581e-05 0)
(0.211704 8.01457e-06 0)
(0.976177 -0.000963313 0)
(1.0403 -0.00317969 0)
(1.04159 -0.00563786 0)
(1.03887 -0.00758913 0)
(1.03545 -0.00859178 0)
(1.03172 -0.00837529 0)
(1.02807 -0.00679233 0)
(1.02504 -0.00382349 0)
(1.02344 0.000315247 0)
(1.02366 0.00461948 0)
(1.02573 0.00791711 0)
(1.02863 0.00984918 0)
(1.03218 0.0103315 0)
(1.03566 0.00951548 0)
(1.03864 0.00763601 0)
(1.04039 0.00507095 0)
(1.02562 0.00233158 0)
(0.840334 0.000451964 0)
(0.210681 3.34563e-06 0)
(0.211587 6.91376e-06 0)
(0.972697 -0.000453804 0)
(1.03576 -0.00148094 0)
(1.03788 -0.00270588 0)
(1.03662 -0.00380845 0)
(1.03478 -0.00449548 0)
(1.03252 -0.00452423 0)
(1.03006 -0.00366146 0)
(1.02781 -0.00177652 0)
(1.02642 0.00098008 0)
(1.0264 0.00383935 0)
(1.02775 0.00580127 0)
(1.02957 0.00669549 0)
(1.03165 0.00660239 0)
(1.0335 0.00573835 0)
(1.0349 0.00438672 0)
(1.03542 0.00283304 0)
(1.02051 0.00134943 0)
(0.837489 0.000326241 0)
(0.210283 8.54924e-06 0)
(0.211627 7.66166e-06 0)
(0.971119 -0.000133613 0)
(1.03364 -0.000584997 0)
(1.03603 -0.00114543 0)
(1.03536 -0.00167254 0)
(1.03429 -0.00201598 0)
(1.03285 -0.00200428 0)
(1.03115 -0.00144758 0)
(1.02946 -0.000217467 0)
(1.02822 0.00160582 0)
(1.02795 0.00343275 0)
(1.02864 0.00453896 0)
(1.02969 0.00483547 0)
(1.03082 0.00450632 0)
(1.03178 0.00375148 0)
(1.03246 0.00278865 0)
(1.0325 0.00179328 0)
(1.01761 0.000891708 0)
(0.835671 0.000247777 0)
(0.209947 9.82912e-06 0)
(0.211794 1.37249e-05 0)
(0.970571 6.72803e-05 0)
(1.03277 -6.48631e-05 0)
(1.03526 -0.000251342 0)
(1.03486 -0.000409522 0)
(1.03417 -0.000464809 0)
(1.0332 -0.0003163 0)
(1.03196 0.000155603 0)
(1.03061 0.00103354 0)
(1.02944 0.00226323 0)
(1.0289 0.00338745 0)
(1.02905 0.00392019 0)
(1.0295 0.0038897 0)
(1.03002 0.00346003 0)
(1.03045 0.00279872 0)
(1.03075 0.00205871 0)
(1.03057 0.0013396 0)
(1.0157 0.000703417 0)
(0.834327 0.000224897 0)
(0.20962 1.24162e-05 0)
(0.212064 1.52668e-05 0)
(0.970657 0.000202678 0)
(1.03265 0.000273329 0)
(1.03518 0.000340106 0)
(1.03489 0.000442736 0)
(1.03438 0.000620746 0)
(1.03363 0.000927724 0)
(1.03262 0.00142502 0)
(1.03143 0.00214475 0)
(1.03022 0.003014 0)
(1.02941 0.0036781 0)
(1.02908 0.00388576 0)
(1.0291 0.00358767 0)
(1.0292 0.00306125 0)
(1.02932 0.00242703 0)
(1.0294 0.00177913 0)
(1.02909 0.0011768 0)
(1.01422 0.000650298 0)
(0.833151 0.000231913 0)
(0.209265 1.54577e-05 0)
(0.212436 2.04631e-05 0)
(0.971203 0.000344092 0)
(1.03305 0.000572095 0)
(1.03558 0.000821888 0)
(1.03534 0.00112657 0)
(1.03489 0.00150446 0)
(1.03422 0.00197863 0)
(1.03328 0.00256526 0)
(1.03209 0.00324725 0)
(1.03074 0.00391494 0)
(1.0296 0.00425999 0)
(1.02892 0.00411417 0)
(1.02852 0.00370058 0)
(1.02833 0.00308648 0)
(1.02823 0.00241821 0)
(1.02816 0.00177354 0)
(1.02777 0.00119072 0)
(1.01288 0.000683879 0)
(0.831969 0.000262965 0)
(0.20885 1.9475e-05 0)
(0.212935 2.63102e-05 0)
(0.972164 0.000483202 0)
(1.03387 0.000855789 0)
(1.03639 0.00127529 0)
(1.03614 0.00176771 0)
(1.03569 0.00234319 0)
(1.035 0.00300183 0)
(1.03401 0.00372651 0)
(1.0327 0.00445489 0)
(1.0311 0.00503226 0)
(1.02958 0.00516768 0)
(1.0285 0.00481764 0)
(1.02779 0.00418741 0)
(1.02734 0.00343634 0)
(1.02705 0.00267403 0)
(1.02688 0.00196312 0)
(1.02642 0.00133176 0)
(1.01149 0.000784226 0)
(0.83065 0.000314623 0)
(0.208345 2.45166e-05 0)
(0.213585 3.37037e-05 0)
(0.973543 0.000643372 0)
(1.03512 0.00116769 0)
(1.0376 0.00176335 0)
(1.03732 0.00245591 0)
(1.03681 0.00324661 0)
(1.03602 0.00412102 0)
(1.03489 0.00503211 0)
(1.03333 0.00587421 0)
(1.03136 0.00643752 0)
(1.02939 0.00641696 0)
(1.02788 0.00585605 0)
(1.02684 0.00501066 0)
(1.02615 0.00407425 0)
(1.0257 0.00315772 0)
(1.02542 0.0023194 0)
(1.0249 0.00158268 0)
(1.00991 0.000944918 0)
(0.829087 0.000387626 0)
(0.207719 3.10078e-05 0)
(0.214426 4.34014e-05 0)
(0.975396 0.000840872 0)
(1.03682 0.00154111 0)
(1.03925 0.00233895 0)
(1.0389 0.0032613 0)
(1.03829 0.00430581 0)
(1.03734 0.00544185 0)
(1.03596 0.00659532 0)
(1.03405 0.0076128 0)
(1.03157 0.00821851 0)
(1.02903 0.00806652 0)
(1.02703 0.00727348 0)
(1.02563 0.00617448 0)
(1.02467 0.00499629 0)
(1.02405 0.00386482 0)
(1.02366 0.00283997 0)
(1.02308 0.00194344 0)
(1.00801 0.00116788 0)
(0.827169 0.000484333 0)
(0.206934 3.91261e-05 0)
(0.215512 5.60851e-05 0)
(0.977826 0.00109105 0)
(1.03907 0.00200601 0)
(1.04143 0.00304967 0)
(1.04098 0.00425339 0)
(1.04021 0.00560915 0)
(1.03903 0.00707195 0)
(1.0373 0.00853503 0)
(1.0349 0.00979145 0)
(1.03176 0.010484 0)
(1.02851 0.0102022 0)
(1.02592 0.00913791 0)
(1.02408 0.00772355 0)
(1.02283 0.00623318 0)
(1.02202 0.00481482 0)
(1.0215 0.00353775 0)
(1.02084 0.00242438 0)
(1.00567 0.00146135 0)
(0.824778 0.000608474 0)
(0.205946 4.92192e-05 0)
(0.216919 7.2875e-05 0)
(0.980982 0.00141365 0)
(1.04199 0.00259992 0)
(1.04426 0.00395285 0)
(1.04368 0.00550946 0)
(1.0427 0.0072575 0)
(1.04119 0.0091319 0)
(1.03899 0.0109886 0)
(1.03593 0.0125543 0)
(1.03194 0.0133705 0)
(1.02778 0.0129408 0)
(1.02448 0.011543 0)
(1.02212 0.00972993 0)
(1.02051 0.0078395 0)
(1.01946 0.00605069 0)
(1.0188 0.00444447 0)
(1.01804 0.00304632 0)
(1.00275 0.00183838 0)
(0.821774 0.000766678 0)
(0.204703 6.19271e-05 0)
(0.218748 9.52255e-05 0)
(0.985068 0.00183449 0)
(1.04578 0.00336931 0)
(1.04791 0.00511914 0)
(1.04716 0.00712733 0)
(1.04589 0.009374 0)
(1.04394 0.0117708 0)
(1.04111 0.0141246 0)
(1.0372 0.0160786 0)
(1.0321 0.0170485 0)
(1.02682 0.0164311 0)
(1.02261 0.0146118 0)
(1.01961 0.0122924 0)
(1.01757 0.00989166 0)
(1.01623 0.00762946 0)
(1.01539 0.00560266 0)
(1.01453 0.00384036 0)
(0.999075 0.00231744 0)
(0.817987 0.000965649 0)
(0.203138 7.77044e-05 0)
(0.221139 0.000125454 0)
(0.990358 0.0023912 0)
(1.05067 0.00437968 0)
(1.05263 0.00664453 0)
(1.05163 0.00923459 0)
(1.04997 0.0121213 0)
(1.04745 0.015182 0)
(1.04379 0.0181591 0)
(1.03875 0.0205891 0)
(1.03225 0.0217324 0)
(1.02554 0.0208617 0)
(1.02022 0.0185014 0)
(1.01643 0.0155393 0)
(1.01385 0.0124927 0)
(1.01216 0.0096302 0)
(1.0111 0.0070695 0)
(1.01009 0.00484449 0)
(0.994435 0.00292245 0)
(0.81321 0.00121624 0)
(0.201172 9.7321e-05 0)
(0.224291 0.000167088 0)
(0.997221 0.00313893 0)
(1.05699 0.00572727 0)
(1.05873 0.00866829 0)
(1.05738 0.0120142 0)
(1.05519 0.0157223 0)
(1.05188 0.0196245 0)
(1.04712 0.0233749 0)
(1.04063 0.0263727 0)
(1.03233 0.0276894 0)
(1.02385 0.0264646 0)
(1.01714 0.0234094 0)
(1.01238 0.019634 0)
(1.00913 0.0157733 0)
(1.007 0.0121548 0)
(1.00567 0.00892094 0)
(1.00449 0.00611121 0)
(0.988578 0.00368308 0)
(0.807188 0.00152913 0)
(0.198705 0.000121545 0)
(0.228496 0.000226506 0)
(1.00615 0.0041679 0)
(1.06517 0.0075684 0)
(1.06658 0.0114028 0)
(1.06477 0.0157282 0)
(1.06184 0.0204912 0)
(1.05745 0.0254544 0)
(1.05121 0.0301477 0)
(1.04284 0.0337939 0)
(1.03228 0.0352468 0)
(1.0216 0.0335203 0)
(1.0132 0.029573 0)
(1.00723 0.0247776 0)
(1.00316 0.0199008 0)
(1.0005 0.0153382 0)
(0.99882 0.0112618 0)
(0.997426 0.00771656 0)
(0.981192 0.00464732 0)
(0.799598 0.00192485 0)
(0.195611 0.000152097 0)
(0.234222 0.000319075 0)
(1.01783 0.00565706 0)
(1.07579 0.0101828 0)
(1.07675 0.0151805 0)
(1.07424 0.0207611 0)
(1.07024 0.0268725 0)
(1.06434 0.0331616 0)
(1.05613 0.0389719 0)
(1.04531 0.0433088 0)
(1.03193 0.0447939 0)
(1.01858 0.0423558 0)
(1.00814 0.0372766 0)
(1.00071 0.0312201 0)
(0.995629 0.0250922 0)
(0.992286 0.0193657 0)
(0.990187 0.0142463 0)
(0.988529 0.00978129 0)
(0.971884 0.00589274 0)
(0.790017 0.00243419 0)
(0.191722 0.00019218 0)
(0.242278 0.000479802 0)
(1.0333 0.00796933 0)
(1.08981 0.0140244 0)
(1.0901 0.020467 0)
(1.08648 0.027641 0)
(1.08084 0.0354905 0)
(1.07276 0.043415 0)
(1.06185 0.0504848 0)
(1.04788 0.0554651 0)
(1.03105 0.0567733 0)
(1.01452 0.0533364 0)
(1.00167 0.0468478 0)
(0.992493 0.0392713 0)
(0.986157 0.0316405 0)
(0.981956 0.0245097 0)
(0.979315 0.0181253 0)
(0.977329 0.0125287 0)
(0.960155 0.0075878 0)
(0.777863 0.00313405 0)
(0.186792 0.000251183 0)
(0.254112 0.000772329 0)
(1.0544 0.0117768 0)
(1.10901 0.0197378 0)
(1.10809 0.0279306 0)
(1.1025 0.0372315 0)
(1.09425 0.0473509 0)
(1.08298 0.057195 0)
(1.06839 0.0655218 0)
(1.05042 0.0709089 0)
(1.02942 0.071666 0)
(1.00921 0.0668564 0)
(0.993559 0.058662 0)
(0.982301 0.0493208 0)
(0.974401 0.0399526 0)
(0.969061 0.0311879 0)
(0.965643 0.0233206 0)
(0.963168 0.0163866 0)
(0.945309 0.0101171 0)
(0.762334 0.00422535 0)
(0.180438 0.000350142 0)
(0.272248 0.00132077 0)
(1.08419 0.0184669 0)
(1.13587 0.0287318 0)
(1.13241 0.0393461 0)
(1.12343 0.051642 0)
(1.11113 0.064445 0)
(1.0953 0.0760885 0)
(1.07581 0.0852184 0)
(1.05285 0.0903991 0)
(1.02696 0.0899654 0)
(1.00257 0.0832987 0)
(0.983752 0.073111 0)
(0.970044 0.0618277 0)
(0.960168 0.0505721 0)
(0.953225 0.0400084 0)
(0.948532 0.0304747 0)
(0.945114 0.0220119 0)
(0.926366 0.0141045 0)
(0.742546 0.00605482 0)
(0.172189 0.000508498 0)
(0.299969 0.00263924 0)
(1.12715 0.0320441 0)
(1.17238 0.0451266 0)
(1.16388 0.05919 0)
(1.14935 0.074823 0)
(1.13109 0.089642 0)
(1.10908 0.101992 0)
(1.0835 0.11073 0)
(1.05475 0.114575 0)
(1.02344 0.112018 0)
(0.994536 0.102889 0)
(0.972259 0.090436 0)
(0.955758 0.0771367 0)
(0.943469 0.0640134 0)
(0.934329 0.0516574 0)
(0.927603 0.0404094 0)
(0.922329 0.0302452 0)
(0.902415 0.0204411 0)
(0.71747 0.00877297 0)
(0.16221 0.0006762 0)
(0.341418 0.0116205 1.20595e-21)
(1.18385 0.0608657 2.72741e-21)
(1.21763 0.0772047 -1.61675e-21)
(1.19995 0.0940878 0)
(1.17711 0.110705 -8.93008e-35)
(1.15099 0.125122 1.41257e-21)
(1.12171 0.136253 -3.18754e-21)
(1.08946 0.143118 0)
(1.05455 0.144551 7.98616e-35)
(1.01749 0.139166 -5.28566e-21)
(0.983695 0.127293 0)
(0.957522 0.112615 -6.88358e-21)
(0.937671 0.0975516 -2.07048e-20)
(0.922274 0.0829853 -9.92339e-21)
(0.910047 0.0694426 -3.06604e-21)
(0.90015 0.0573325 -1.84711e-21)
(0.891549 0.046577 0)
(0.869281 0.0363776 1.33041e-21)
(0.683671 0.0226086 1.5742e-21)
(0.151917 0.00464786 2.83493e-20)
(0.360433 0.0315484 -1.09996e-20)
(1.23199 0.111277 5.00196e-22)
(1.25874 0.128829 -1.8419e-23)
(1.23251 0.143538 0)
(1.20143 0.157965 -3.09738e-21)
(1.16772 0.170185 -4.37721e-21)
(1.13139 0.179055 -2.87661e-21)
(1.09253 0.1835 -1.23702e-20)
(1.05135 0.182436 0)
(1.00811 0.174507 2.22763e-20)
(0.968593 0.160544 2.3269e-20)
(0.937465 0.14459 7.17618e-21)
(0.913188 0.128934 2.74056e-20)
(0.893581 0.114264 3.97711e-20)
(0.877236 0.101065 0)
(0.863129 0.0897728 5.83868e-20)
(0.850145 0.080652 8.547e-20)
(0.824369 0.0722971 9.57132e-20)
(0.654142 0.0542876 -1.11692e-19)
(0.150219 0.0129283 -2.06864e-21)
(0.346354 0.0510327 0)
(1.26308 0.178078 -3.87534e-21)
(1.28948 0.193526 0)
(1.2571 0.203696 2.10468e-21)
(1.21973 0.213553 0)
(1.17976 0.221541 -6.11716e-21)
(1.13736 0.226558 5.31272e-21)
(1.09266 0.227523 -2.2541e-20)
(1.04585 0.223243 -1.36905e-21)
(0.997116 0.212412 1.10556e-20)
(0.952733 0.196332 5.21303e-20)
(0.917728 0.179328 -1.34357e-22)
(0.890269 0.163581 -2.01398e-20)
(0.868012 0.149629 -3.80172e-20)
(0.849521 0.137715 4.59712e-20)
(0.833808 0.128031 -8.21825e-20)
(0.81988 0.120622 -1.1164e-20)
(0.796119 0.113823 0)
(0.64018 0.0906943 7.43315e-22)
(0.153426 0.0222798 0)
(0.333227 0.0678869 -1.17305e-19)
(1.27748 0.247987 4.51254e-20)
(1.30664 0.262631 2.04655e-20)
(1.27105 0.268179 -2.38112e-21)
(1.22979 0.272978 3.05899e-21)
(1.18564 0.276184 1.1818e-20)
(1.13887 0.276772 1.0452e-20)
(1.08974 0.273642 0)
(1.0385 0.26561 -4.95791e-20)
(0.985416 0.25152 0)
(0.937274 0.233155 -2.65305e-20)
(0.899451 0.215065 -3.52444e-20)
(0.870009 0.199132 -2.19666e-20)
(0.846454 0.185522 -2.77354e-20)
(0.82722 0.17422 0)
(0.811234 0.165268 0)
(0.797374 0.158619 -7.33729e-20)
(0.77447 0.15196 1.46141e-20)
(0.626617 0.122385 -8.67732e-21)
(0.152511 0.0303134 -1.01438e-20)
(0.323721 0.0832721 8.90044e-20)
(1.28069 0.316886 0)
(1.31324 0.331386 -5.92889e-20)
(1.27609 0.332632 -1.07152e-20)
(1.23268 0.332892 -3.13396e-21)
(1.18589 0.331554 0)
(1.13603 0.32772 8.06089e-21)
(1.08349 0.320356 2.3305e-20)
(1.02875 0.308406 2.37717e-20)
(0.972214 0.290823 5.20953e-20)
(0.921239 0.269939 0)
(0.881507 0.250493 -7.51033e-20)
(0.850886 0.233983 -4.67734e-20)
(0.826672 0.220244 -2.7843e-20)
(0.807172 0.209053 1.79245e-19)
(0.791197 0.200186 2.178e-20)
(0.777575 0.193604 1.04375e-19)
(0.755443 0.186518 -5.05153e-19)
(0.613336 0.151095 3.03224e-19)
(0.15098 0.037747 -3.66112e-19)
(0.31734 0.0978307 9.47563e-20)
(1.27757 0.381661 -1.63309e-20)
(1.31239 0.397519 1.08815e-20)
(1.27456 0.395259 2.57896e-20)
(1.22984 0.391487 1.12211e-20)
(1.18125 0.386027 1.57909e-21)
(1.12921 0.378054 -9.15752e-21)
(1.0742 0.366571 2.25172e-20)
(1.01688 0.350671 -5.08893e-20)
(0.957808 0.329477 0)
(0.904824 0.305888 -3.29653e-20)
(0.863832 0.284835 -1.14777e-21)
(0.832511 0.267409 -5.12437e-20)
(0.807997 0.253187 0)
(0.788466 0.241698 -3.85744e-20)
(0.772636 0.232613 -9.30185e-20)
(0.759262 0.225761 2.56227e-19)
(0.737742 0.218104 -2.56707e-19)
(0.600555 0.177239 3.67484e-19)
(0.149079 0.0445619 -3.82633e-19)
(0.312485 0.111547 -5.71009e-22)
(1.27108 0.442191 2.01437e-20)
(1.30665 0.459946 5.42422e-20)
(1.26841 0.454992 -1.70257e-20)
(1.2229 0.447881 6.43661e-21)
(1.17309 0.438793 0)
(1.11944 0.426981 -4.99492e-21)
(1.06257 0.411601 -2.25419e-20)
(1.00327 0.391803 -2.51862e-20)
(0.942342 0.366933 0)
(0.887976 0.340504 -3.20249e-20)
(0.846183 0.317637 -4.24219e-20)
(0.814497 0.299069 5.49722e-20)
(0.789887 0.284105 -3.48626e-20)
(0.77045 0.272073 -1.66287e-19)
(0.754845 0.262532 1.017e-19)
(0.741764 0.255245 3.19873e-20)
(0.720836 0.246894 0)
(0.588032 0.201052 -3.51596e-19)
(0.146951 0.0508242 -1.28537e-20)
(0.30858 0.124664 1.54026e-20)
(1.26249 0.499152 -2.30779e-20)
(1.29769 0.518713 -2.89169e-20)
(1.25902 0.511486 -4.74517e-20)
(1.21286 0.501562 3.49057e-20)
(1.16213 0.489325 -7.26135e-21)
(1.10725 0.474057 1.17753e-20)
(1.04896 0.454994 -3.55602e-20)
(0.988171 0.431376 1.79224e-20)
(0.925935 0.402802 -1.21838e-19)
(0.870704 0.373466 -3.73904e-20)
(0.828475 0.348668 0)
(0.796641 0.328819 5.89116e-20)
(0.772073 0.312914 7.19232e-20)
(0.752808 0.300174 8.83218e-20)
(0.737465 0.290065 -1.09405e-19)
(0.724707 0.282224 -3.28284e-20)
(0.704366 0.273051 3.93646e-20)
(0.575671 0.222712 0)
(0.144725 0.0565904 -2.77954e-20)
(0.305359 0.137243 -1.7676e-19)
(1.25258 0.552821 1.07319e-19)
(1.28657 0.57402 3.00802e-20)
(1.24747 0.56485 -3.61102e-20)
(1.20071 0.552508 2.23778e-20)
(1.14914 0.537478 -2.90928e-21)
(1.09322 0.519071 -1.47113e-20)
(1.03375 0.496506 -1.3118e-20)
(0.971841 0.469157 -4.33049e-20)
(0.908752 0.43687 -2.74258e-22)
(0.853109 0.404599 -1.1017e-19)
(0.810736 0.377864 1.02263e-19)
(0.77887 0.356664 -6.42923e-20)
(0.754401 0.339715 7.95018e-20)
(0.735336 0.326149 0)
(0.720256 0.315323 -5.85251e-20)
(0.707842 0.306841 -1.61252e-21)
(0.688153 0.296738 -1.69287e-19)
(0.563473 0.242478 -2.53338e-20)
(0.142323 0.0618469 0)
(0.302789 0.149248 0)
(1.24183 0.603576 1.10708e-19)
(1.2741 0.626073 7.16603e-20)
(1.23445 0.615279 4.08254e-20)
(1.18711 0.600818 1.82209e-20)
(1.13473 0.58329 0)
(1.0778 0.561959 -2.3419e-21)
(1.01727 0.536051 -7.62847e-22)
(0.954493 0.505003 9.09087e-20)
(0.89095 0.468966 -1.53289e-20)
(0.83533 0.433782 -7.89661e-20)
(0.793035 0.405196 5.09494e-20)
(0.761207 0.382671 -1.54999e-21)
(0.736821 0.364633 8.25988e-20)
(0.717903 0.350123 5.40645e-20)
(0.703087 0.338476 -1.26779e-19)
(0.691018 0.329259 1.53362e-19)
(0.671994 0.318185 4.5982e-20)
(0.551249 0.260339 1.92579e-19)
(0.139637 0.0665405 -5.13952e-19)
(0.300885 0.161001 -4.40531e-20)
(1.23068 0.651644 6.42378e-20)
(1.26082 0.675116 -4.60572e-20)
(1.22049 0.662979 -4.70519e-20)
(1.17255 0.646663 0)
(1.11932 0.626874 1.12564e-20)
(1.06138 0.602796 1.41809e-20)
(0.999798 0.573627 2.64718e-20)
(0.936286 0.538864 0)
(0.872636 0.498997 -2.19538e-19)
(0.817499 0.460951 2.05455e-19)
(0.775571 0.430699 0)
(0.743751 0.407029 7.33631e-20)
(0.719283 0.387893 -1.76204e-21)
(0.700416 0.372331 -1.68851e-19)
(0.685784 0.359717 6.6616e-20)
(0.674039 0.349634 0)
(0.655715 0.337545 2.47759e-19)
(0.538915 0.276528 0)
(0.136652 0.07069 -2.43705e-19)
(0.299596 0.172537 4.81797e-20)
(1.21937 0.697194 7.37699e-20)
(1.24703 0.721518 -4.69173e-20)
(1.20603 0.708132 0)
(1.15736 0.690227 2.57134e-20)
(1.10322 0.668388 0)
(1.04424 0.64172 -7.88346e-21)
(0.981567 0.609287 -9.29454e-21)
(0.917339 0.570714 1.40281e-20)
(0.853905 0.526867 -1.06285e-19)
(0.799817 0.486001 1.99411e-20)
(0.758542 0.454489 0)
(0.726652 0.429969 -1.51892e-19)
(0.701828 0.409814 2.00281e-21)
(0.682741 0.393058 0)
(0.668131 0.379293 2.89406e-21)
(0.656658 0.368124 2.23354e-19)
(0.639067 0.354884 -2.17431e-19)
(0.526341 0.290983 6.46844e-20)
(0.133169 0.074155 0)
(0.298667 0.183702 0)
(1.20843 0.740351 8.11707e-20)
(1.23313 0.765505 5.53002e-20)
(1.19138 0.75099 -2.2563e-21)
(1.14186 0.731662 1.8426e-20)
(1.08671 0.70796 2.02301e-20)
(1.02658 0.678842 5.44525e-21)
(0.962749 0.643192 -1.34414e-20)
(0.897791 0.600607 6.43234e-20)
(0.834803 0.552492 -1.58176e-19)
(0.782414 0.50885 1.79623e-21)
(0.742286 0.476573 -6.03201e-20)
(0.710181 0.451739 2.44175e-19)
(0.684532 0.430802 -2.63287e-21)
(0.664744 0.41278 -1.31444e-19)
(0.649802 0.397519 -2.43283e-19)
(0.638505 0.384944 0)
(0.621658 0.370359 0)
(0.513058 0.303752 7.23616e-20)
(0.128935 0.0767519 -4.18439e-20)
(0.298465 0.194812 5.82859e-20)
(1.19766 0.781363 -1.71402e-19)
(1.21942 0.807219 -5.70586e-20)
(1.1768 0.791744 0)
(1.12633 0.771159 -5.33697e-22)
(1.07 0.745741 2.7482e-20)
(1.00855 0.714293 7.14911e-21)
(0.94343 0.675482 4.64401e-20)
(0.877688 0.628662 7.91586e-20)
(0.815357 0.57582 -1.20048e-19)
(0.765485 0.529294 -1.50514e-19)
(0.727231 0.496966 1.54925e-19)
(0.694775 0.472725 0)
(0.667505 0.451415 -5.77758e-20)
(0.646144 0.432013 -1.45032e-19)
(0.630353 0.414947 -1.77075e-19)
(0.618977 0.400565 -2.17867e-19)
(0.602869 0.384049 6.5952e-20)
(0.498335 0.314693 -3.87931e-20)
(0.123504 0.0781302 7.8689e-22)
(0.298389 0.206013 0)
(1.18716 0.820573 0)
(1.20599 0.84687 7.2104e-22)
(1.16243 0.830552 0)
(1.11096 0.808869 -6.40049e-20)
(1.05332 0.781893 -2.54285e-20)
(0.990358 0.748243 0)
(0.923709 0.70627 4.48446e-21)
(0.857037 0.655059 1.25166e-19)
(0.795549 0.596829 -2.63664e-19)
(0.749148 0.547068 0)
(0.713874 0.515593 -9.05912e-20)
(0.680977 0.493381 -4.16362e-21)
(0.650957 0.472493 -3.90353e-21)
(0.626889 0.451574 1.5362e-19)
(0.609492 0.431956 -6.43311e-22)
(0.59759 0.415185 -4.79447e-19)
(0.581739 0.396003 1.46648e-19)
(0.481339 0.323187 4.40305e-20)
(0.116203 0.0781035 0)
(0.298588 0.217088 -2.09383e-19)
(1.177 0.857926 -1.01946e-19)
(1.193 0.884566 -1.37512e-19)
(1.14842 0.867546 1.6893e-19)
(1.09586 0.844903 -1.1585e-19)
(1.03684 0.816541 0)
(0.972205 0.780823 3.22846e-21)
(0.903697 0.735745 -1.13265e-20)
(0.835768 0.679909 1.48406e-21)
(0.775319 0.615565 1.81772e-20)
(0.733477 0.561808 1.60877e-19)
(0.702859 0.532195 -2.93292e-20)
(0.669648 0.514054 -1.3831e-19)
(0.635473 0.49525 -6.78474e-20)
(0.606817 0.473092 8.77135e-20)
(0.586435 0.44956 -4.40702e-22)
(0.572737 0.429122 1.35282e-19)
(0.557124 0.406243 -3.2352e-19)
(0.461174 0.328813 3.93255e-19)
(0.106585 0.0759575 5.63352e-20)
(0.298824 0.227839 7.5961e-20)
(1.16735 0.893643 -5.35958e-20)
(1.18051 0.920476 4.41157e-21)
(1.13491 0.902849 9.2765e-20)
(1.08116 0.879377 2.78813e-20)
(1.02066 0.84978 4.50195e-20)
(0.954232 0.812195 -1.59829e-21)
(0.883605 0.764099 -4.75323e-20)
(0.81389 0.703395 -1.27303e-19)
(0.754358 0.632096 -1.34301e-19)
(0.71851 0.573115 0)
(0.694862 0.54631 -1.17892e-19)
(0.661859 0.535364 1.93582e-19)
(0.622094 0.520775 0)
(0.586008 0.49691 -1.87494e-19)
(0.560475 0.469245 1.22901e-19)
(0.54422 0.442074 -1.49157e-19)
(0.529898 0.414906 -1.85049e-19)
(0.436435 0.330802 -3.29443e-19)
(0.0933804 0.0705443 -2.57899e-19)
(0.299621 0.23858 -8.20106e-20)
(1.15816 0.927784 5.72145e-20)
(1.16858 0.954696 1.2492e-19)
(1.12193 0.936537 1.27158e-19)
(1.06699 0.912368 -5.35534e-20)
(1.00494 0.881714 2.8778e-20)
(0.936544 0.842448 -9.98198e-22)
(0.863545 0.791526 -4.87976e-20)
(0.791515 0.725815 -7.21978e-20)
(0.732352 0.646461 1.18254e-19)
(0.703966 0.580556 2.65186e-19)
(0.690642 0.557022 0)
(0.659404 0.557283 0)
(0.611407 0.550902 -7.93395e-20)
(0.564392 0.525882 0)
(0.527367 0.495459 2.74268e-19)
(0.507759 0.459464 3.37762e-19)
(0.493996 0.423789 0)
(0.402146 0.328967 0)
(0.0753498 0.0610263 2.94086e-19)
(0.300272 0.248875 8.95843e-20)
(1.14945 0.960429 6.90287e-20)
(1.15724 0.987316 8.81562e-20)
(1.10956 0.968695 -1.09551e-19)
(1.05339 0.943935 -5.82498e-20)
(0.989769 0.912402 -3.84759e-20)
(0.91931 0.871691 -6.34078e-22)
(0.843607 0.818153 -2.1334e-21)
(0.768755 0.74745 -9.75265e-22)
(0.709086 0.658916 -8.99456e-21)
(0.688896 0.58366 1.13369e-19)
(0.690406 0.563039 0)
(0.664005 0.580633 1.74328e-19)
(0.60519 0.588589 1.60139e-19)
(0.539976 0.565719 4.66215e-19)
(0.489142 0.522804 1.5045e-19)
(0.462467 0.475812 -1.9827e-19)
(0.447853 0.427305 -1.19049e-19)
(0.356857 0.318211 0)
(0.052812 0.0457826 3.36077e-19)
(0.301512 0.259482 -1.9393e-19)
(1.14119 0.991588 0)
(1.14647 1.01838 9.6415e-20)
(1.09782 0.999354 -8.67582e-20)
(1.04047 0.974125 6.36367e-20)
(0.975227 0.941882 5.71996e-20)
(0.902663 0.900003 1.12751e-21)
(0.823984 0.844164 -2.60701e-21)
(0.745612 0.76858 0)
(0.684474 0.669876 -9.6408e-20)
(0.673155 0.581866 -1.4964e-19)
(0.694995 0.56384 7.55749e-21)
(0.67946 0.604225 2.01364e-19)
(0.606495 0.627973 0)
(0.510355 0.61963 3.21679e-19)
(0.441354 0.573297 0)
(0.399513 0.507169 0)
(0.38028 0.420968 -1.4129e-19)
(0.299326 0.285563 0)
(0.0502124 0.0316978 9.36525e-20)
(0.30248 0.269549 -2.09953e-19)
(1.1333 1.02149 0)
(1.13623 1.04801 1.56466e-19)
(1.08669 1.02867 0)
(1.02819 1.00313 -3.34524e-20)
(0.961327 0.970404 0)
(0.886603 0.92771 -1.16142e-21)
(0.804692 0.870029 7.88985e-21)
(0.721979 0.789846 8.04696e-21)
(0.657975 0.680023 -8.7542e-20)
(0.655846 0.575033 2.57906e-21)
(0.705331 0.556465 4.51904e-20)
(0.709101 0.62676 1.78098e-19)
(0.617625 0.686535 3.58971e-20)
(0.491466 0.68234 2.63239e-19)
(0.387684 0.62436 0)
(0.321595 0.541262 4.61733e-19)
(0.279794 0.414614 -2.84207e-19)
(0.15742 0.222001 3.33804e-19)
(-0.0488697 0.442072 -4.05228e-19)
(0.303691 0.279618 1.70615e-19)
(1.12552 1.05026 2.517e-19)
(1.12637 1.07646 0)
(1.07606 1.05704 9.30339e-22)
(1.01638 1.03151 9.13674e-20)
(0.947777 0.99865 -1.02991e-19)
(0.870787 0.955683 1.05322e-21)
(0.785091 0.896793 0)
(0.696798 0.812384 5.78091e-20)
(0.627198 0.690203 -4.99591e-21)
(0.633591 0.56127 0)
(0.721919 0.534363 0)
(0.763634 0.645675 1.14249e-19)
(0.644686 0.755248 -1.24674e-19)
(0.473877 0.786333 -2.74583e-19)
(0.312643 0.737952 0)
(0.194334 0.612737 2.41524e-19)
(0.0839154 0.685818 -2.92128e-19)
(0.0855864 1.89718 -1.62873e-19)
(0.110361 2.8144 -2.00268e-19)
(0.304955 0.288599 -1.24092e-19)
(1.1177 1.07781 -3.13171e-19)
(1.11687 1.10352 8.63422e-20)
(1.06601 1.08429 7.18703e-20)
(1.00511 1.05901 0)
(0.934743 1.02632 -7.10328e-20)
(0.855573 0.983676 6.31999e-22)
(0.765646 0.924254 -4.39252e-21)
(0.670579 0.836226 7.97173e-21)
(0.592072 0.701114 5.54433e-20)
(0.604137 0.53957 -7.07285e-20)
(0.743656 0.489257 -1.16566e-19)
(0.840171 0.666985 5.16109e-20)
(0.694014 0.875835 -2.76464e-19)
(0.472442 0.933235 -4.27685e-19)
(0.239695 0.849823 0)
(0.130816 1.0355 0)
(0.196449 2.50175 1.25579e-19)
(0.1925 3.12762 0)
(0.183587 3.29564 2.91844e-19)
(0.309748 0.295931 0)
(1.10942 1.10391 0)
(1.10763 1.12886 0)
(1.05629 1.11017 2.06239e-20)
(0.994173 1.08539 7.447e-20)
(0.9221 1.05329 -4.94104e-20)
(0.841012 1.01173 2.23805e-21)
(0.746487 0.952339 -4.68135e-21)
(0.643369 0.862005 7.77152e-20)
(0.552405 0.713926 -6.07204e-21)
(0.565112 0.508589 -3.18275e-19)
(0.771964 0.4064 2.10079e-20)
(0.991753 0.608721 -1.6443e-20)
(0.845213 0.946416 4.38037e-20)
(0.515074 1.07711 -7.34382e-21)
(0.2231 1.15548 6.56694e-22)
(0.259347 2.51079 -6.33588e-19)
(0.291338 3.19569 -2.35109e-19)
(0.255403 3.33808 1.07784e-19)
(0.22703 3.36795 -1.0845e-19)
(0.195416 0.230362 7.03366e-20)
(1.099 1.12787 0)
(1.09953 1.15286 -1.6546e-19)
(1.0474 1.13523 -1.81013e-19)
(0.984265 1.11128 1.58091e-19)
(0.91069 1.08007 5.18352e-20)
(0.828612 1.03894 -4.85349e-21)
(0.730298 0.981769 6.03993e-20)
(0.618368 0.894698 -6.92988e-20)
(0.509408 0.74068 0)
(0.509578 0.489922 -2.52616e-19)
(0.78522 0.281514 2.62142e-19)
(1.1498 0.539947 0)
(1.07532 1.11617 5.77627e-21)
(0.605614 1.31887 1.35312e-19)
(0.282673 1.98558 -1.61659e-19)
(0.42377 3.19472 1.69063e-19)
(0.373235 3.35238 7.71743e-20)
(0.303176 3.39882 8.74919e-20)
(0.257269 3.42146 9.66876e-20)
(0.376375 0.363175 -1.14215e-19)
(1.07939 1.14282 0)
(1.08885 1.18835 1.67586e-19)
(1.03286 1.17265 1.83308e-19)
(0.967474 1.1501 -1.5916e-19)
(0.890691 1.12021 -5.17994e-20)
(0.801914 1.0802 5.19528e-21)
(0.695949 1.02306 5.5617e-21)
(0.570637 0.932742 8.48111e-20)
(0.433089 0.75751 2.57757e-20)
(0.389688 0.394866 -1.47028e-20)
(0.738777 0.120133 -6.14325e-19)
(1.34902 0.801463 -1.10236e-19)
(1.21131 1.61024 4.84453e-20)
(0.741605 2.12625 -5.67065e-20)
(0.627003 3.17404 2.87062e-20)
(0.555304 3.44541 -1.54335e-20)
(0.458434 3.4873 -1.52314e-20)
(0.372437 3.528 4.08938e-20)
(0.274971 3.5022 1.6338e-21)
(0.36809 0.364005 0)
(1.07982 1.16919 4.99783e-20)
(1.08131 1.21413 -3.43722e-20)
(1.02449 1.19928 -2.14718e-20)
(0.957592 1.1776 -1.02324e-19)
(0.879163 1.14878 5.03477e-20)
(0.787374 1.10993 -5.28738e-21)
(0.676479 1.05495 5.78826e-21)
(0.539873 0.966501 -1.01387e-19)
(0.370544 0.784806 8.88566e-21)
(0.244765 0.367025 8.21752e-19)
(0.481336 0.199735 -1.3638e-19)
(1.28061 1.21462 1.71979e-19)
(1.28035 2.18118 5.83291e-20)
(0.81339 2.74661 8.10446e-20)
(0.751413 3.4997 2.50294e-20)
(0.591916 3.59163 -2.17026e-19)
(0.500972 3.60396 -1.63116e-19)
(0.392536 3.64629 1.55756e-19)
(0.292609 3.60928 7.83505e-20)
(0.349439 0.361299 1.30929e-19)
(1.07843 1.19974 3.33528e-19)
(1.0742 1.24288 -9.43612e-20)
(1.01597 1.22831 -7.79867e-20)
(0.947554 1.20732 0)
(0.867505 1.1795 7.62072e-20)
(0.773037 1.14228 -5.83663e-21)
(0.657603 1.09034 5.9869e-21)
(0.509967 1.00709 -1.13713e-20)
(0.306877 0.833506 -6.55789e-20)
(0.0644678 0.45166 4.51116e-19)
(0.132018 0.507886 1.1769e-18)
(0.979199 1.80677 1.79093e-18)
(1.15757 2.79472 -8.8794e-19)
(0.850863 3.3661 -4.89249e-19)
(0.779857 3.71751 0)
(0.625966 3.70933 0)
(0.533591 3.74309 1.60569e-19)
(0.416107 3.78244 0)
(0.293024 3.74015 2.596e-19)
(0.335684 0.362506 -1.95006e-19)
(1.07487 1.2329 -2.80583e-19)
(1.06624 1.274 0)
(1.00653 1.2592 2.11089e-21)
(0.936761 1.2387 -1.02874e-19)
(0.855194 1.21185 1.14089e-19)
(0.758518 1.17667 -5.27888e-21)
(0.639072 1.1286 4.24925e-21)
(0.481462 1.05393 -1.04424e-19)
(0.244755 0.902649 7.44965e-21)
(-0.119209 0.615861 0)