/*--------------------------------*- C++ -*----------------------------------*\
| =========                 |                                                 |
| \\      /  F ield         | OpenFOAM: The Open Source CFD Toolbox           |
|  \\    /   O peration     | Version:  4.0                                   |
|   \\  /    A nd           | Web:      www.OpenFOAM.org                      |
|    \\/     M anipulation  |                                                 |
\*---------------------------------------------------------------------------*/
FoamFile
{
    version     2.0;
    format      ascii;
    class       surfaceScalarField;
    location    "56";
    object      phi;
}
// * * * * * * * * * * * * * * * * * * * * * * * * * * * * * * * * * * * * * //

dimensions      [0 3 -1 0 0 0 0];

internalField   nonuniform List<scalar> 
4262
(
0.107138
0.47085
0.0955677
0.705157
0.0693887
0.858482
0.0474031
1.02075
0.0310411
1.21488
0.0198193
1.44944
0.0123991
1.73328
0.00717894
2.07626
0.00323162
2.48919
-0.000467306
2.98599
-0.00408697
2.98591
-0.00786417
2.48902
-0.0128817
2.07605
-0.0200756
1.73306
-0.0310687
1.44921
-0.047159
1.21461
-0.0689214
1.02053
-0.0951956
0.858577
-0.107066
0.705456
0.470922
0.112881
0.357969
0.135314
0.682724
0.120425
0.873371
0.0978549
1.04332
0.0746026
1.23813
0.0528807
1.47116
0.0344823
1.75168
0.0202869
2.09045
0.00902698
2.50045
-0.00109649
2.99611
-0.0112915
2.99611
-0.0225065
2.50024
-0.0365616
2.09011
-0.0548115
1.75131
-0.0765939
1.471
-0.100301
1.23831
-0.123456
1.04368
-0.136993
0.872114
-0.113555
0.682019
0.357367
0.0920322
0.265937
0.124946
0.64981
0.121063
0.877254
0.104809
1.05957
0.0861504
1.25679
0.0670351
1.49028
0.0480874
1.77063
0.0300142
2.10852
0.0134192
2.51705
-0.00253005
3.01206
-0.0181051
3.01168
-0.0341296
2.51626
-0.0516912
2.10767
-0.0701288
1.76974
-0.0884575
1.48932
-0.105689
1.25554
-0.119819
1.05781
-0.125203
0.877498
-0.0923289
0.649145
0.265038
0.0640504
0.201887
0.104946
0.608914
0.106757
0.875443
0.0953865
1.07094
0.0814597
1.27072
0.0667069
1.50503
0.050569
1.78677
0.0334093
2.12568
0.0157809
2.53467
-0.00288653
3.03073
-0.0215276
3.03032
-0.0389145
2.53365
-0.0553661
2.12412
-0.0706516
1.78503
-0.0845077
1.50318
-0.0982181
1.26925
-0.109979
1.06957
-0.107023
0.874542
-0.0649007
0.607023
0.200137
0.0374703
0.164416
0.0806789
0.565705
0.0909555
0.865167
0.0837331
1.07817
0.0711422
1.28331
0.0593278
1.51685
0.0463801
1.79972
0.0314523
2.14061
0.0144041
2.55172
-0.00481959
3.04995
-0.02342
3.04892
-0.0393072
2.54953
-0.0532719
2.13809
-0.0654076
1.79717
-0.0766635
1.51444
-0.0885755
1.28117
-0.0949655
1.07596
-0.0831398
0.862716
-0.0383708
0.562254
0.161766
0.01946
0.144956
0.0572306
0.527934
0.0726665
0.849731
0.0705815
1.08025
0.0617769
1.29211
0.0508791
1.52774
0.0396905
1.8109
0.0270919
2.15321
0.0121526
2.56666
-0.00529925
3.06741
-0.0226439
3.06627
-0.0369856
2.56388
-0.0484764
2.14958
-0.0585495
1.80724
-0.0685111
1.5244
-0.0762439
1.2889
-0.0771046
1.07682
-0.0599779
0.845589
-0.0203695
0.522646
0.141397
0.0106514
0.134305
0.0424205
0.496165
0.0585702
0.833581
0.0588774
1.07994
0.0527519
1.29824
0.0433754
1.53712
0.0329798
1.8213
0.0216199
2.16457
0.00831213
2.57997
-0.00777257
3.08349
-0.0231199
3.08162
-0.034991
2.57575
-0.0448746
2.15946
-0.0536639
1.81603
-0.0615159
1.53225
-0.0660644
1.29345
-0.0641663
1.07492
-0.0458425
0.827266
-0.0116841
0.488487
0.129713
0.00658604
0.127719
0.0330025
0.469749
0.0493006
0.817283
0.050825
1.07842
0.045764
1.3033
0.0374623
1.54542
0.0278394
1.83092
0.0169074
2.1755
0.00484114
2.59204
-0.00885631
3.09719
-0.0222775
3.09504
-0.0332214
2.58669
-0.0425147
2.16875
-0.0503158
1.82383
-0.056886
1.53882
-0.0600724
1.29663
-0.0563679
1.07122
-0.0372168
0.808114
-0.00787127
0.459142
0.121842
0.0047305
0.122988
0.0266217
0.447857
0.0424737
0.801431
0.0446383
1.07625
0.0400536
1.30788
0.03244
1.55304
0.0233629
1.84
0.0128934
2.18597
0.00119979
2.60373
-0.0120446
3.11043
-0.0241135
3.10711
-0.0338254
2.5964
-0.0420053
2.17693
-0.0487517
1.83058
-0.0540779
1.54415
-0.0563652
1.29892
-0.0514407
1.0663
-0.0318828
0.788557
-0.00633495
0.433594
0.115507
0.00379319
0.119195
0.0218325
0.429818
0.0370531
0.78621
0.0398054
1.0735
0.0354131
1.31228
0.0280425
1.56041
0.0192721
1.84877
0.00917907
2.19607
-0.00209908
2.61501
-0.0140518
3.12239
-0.0254305
3.11848
-0.0348643
2.60584
-0.0423118
2.18438
-0.0483494
1.83661
-0.0531327
1.54893
-0.0544187
1.30021
-0.0480451
1.05992
-0.0281569
0.768668
-0.00572144
0.411158
0.109785
0.00306682
0.116128
0.017607
0.415278
0.0316119
0.772205
0.0346496
1.07046
0.0305631
1.31636
0.0234584
1.56751
0.0150012
1.85723
0.00522866
2.20584
-0.00597448
2.62621
-0.0182975
3.13471
-0.0291959
3.12938
-0.0372409
2.61388
-0.0437719
2.19091
-0.049054
1.8419
-0.0528795
1.55275
-0.0530808
1.30041
-0.0454253
1.05227
-0.0254436
0.748687
-0.00547624
0.391191
0.104309
0.00240707
0.113721
0.013956
0.403729
0.0266756
0.759486
0.0299058
1.06723
0.0259553
1.32031
0.0189084
1.57456
0.0104269
1.86571
0.000762905
2.2155
-0.00993738
2.63691
-0.021596
3.14637
-0.0320083
3.13979
-0.0400565
2.62193
-0.0458913
2.19675
-0.0502754
1.84628
-0.0530856
1.55556
-0.0524817
1.29981
-0.0433904
1.04318
-0.0233737
0.72867
-0.00528861
0.373106
0.0990204
0.00171037
0.112011
0.010584
0.394855
0.0214377
0.748632
0.0241454
1.06453
0.0202294
1.32423
0.0133726
1.58141
0.00491997
1.87416
-0.00481902
2.22524
-0.0158554
2.64795
-0.0276835
3.1582
-0.0377192
3.14983
-0.0442895
2.6285
-0.0489637
2.20142
-0.0525668
1.84988
-0.0542744
1.55727
-0.0528325
1.29836
-0.0424127
1.03276
-0.0221425
0.7084
-0.00522979
0.356193
0.0937906
0.000887865
0.111123
0.00724713
0.388496
0.0165394
0.73934
0.0189299
1.06214
0.0146284
1.32853
0.00733331
1.58871
-0.00127262
1.88277
-0.0109458
2.23491
-0.021492
2.65849
-0.0327154
3.16942
-0.0419834
3.1591
-0.0483235
2.63484
-0.0524121
2.20551
-0.0550731
1.85254
-0.0558602
1.55806
-0.0533285
1.29583
-0.0417483
1.02118
-0.0212676
0.687919
-0.00517084
0.340096
0.0886197
0.000188574
0.110935
0.00436119
0.384323
0.0112427
0.732458
0.0123437
1.06104
0.00764532
1.33323
0.000166634
1.59619
-0.00900142
1.89194
-0.0193017
2.24521
-0.0303923
2.66958
-0.0414751
3.1805
-0.0499323
3.16756
-0.0545739
2.63948
-0.057302
2.20824
-0.0592903
1.85453
-0.0592502
1.55802
-0.0551942
1.29178
-0.0420392
1.00802
-0.0209555
0.666836
-0.00519091
0.324332
0.0834288
-0.000794491
0.111729
0.00062045
0.382908
0.00550958
0.727569
0.00594992
1.06059
0.000438171
1.33874
-0.00815322
1.60478
-0.0179177
1.9017
-0.0282221
2.25552
-0.0387726
2.68013
-0.0491123
3.19084
-0.0566991
3.17514
-0.0609899
2.64377
-0.063193
2.21044
-0.0642092
1.85555
-0.0632842
1.55709
-0.0578494
1.28634
-0.0430008
0.993172
-0.0211373
0.644972
-0.00533693
0.308531
0.0780919
-0.00161528
0.113344
-0.00239753
0.383691
-0.000332553
0.725504
-0.00197859
1.06224
-0.00837532
1.34514
-0.0174089
1.61381
-0.0279361
1.91223
-0.0394327
2.26702
-0.0512251
2.69193
-0.0617325
3.20135
-0.0682574
3.18167
-0.0712826
2.6468
-0.0721862
2.21135
-0.0718019
1.85516
-0.0692521
1.55454
-0.0618596
1.27895
-0.0448778
0.97619
-0.0218404
0.621935
-0.00558654
0.292277
0.0725053
-0.00297024
0.116315
-0.00609791
0.386818
-0.00758833
0.726995
-0.0104928
1.06515
-0.0178084
1.35245
-0.0280875
1.62409
-0.0396228
1.92376
-0.0516441
2.27904
-0.0633698
2.70365
-0.0734453
3.21142
-0.0796004
3.18782
-0.0816683
2.64887
-0.0810566
2.21073
-0.0798609
1.85397
-0.0763517
1.55104
-0.0669804
1.26958
-0.0476575
0.956867
-0.0230634
0.597341
-0.00595852
0.275172
0.0665468
-0.00426402
0.120579
-0.0103412
0.392896
-0.0152262
0.73188
-0.0211406
1.07106
-0.0297776
1.36109
-0.0411162
1.63543
-0.053852
1.9365
-0.067548
2.29273
-0.0809335
2.71704
-0.0916681
3.22216
-0.0963051
3.19246
-0.0966192
2.64918
-0.0953523
2.20947
-0.0918144
1.85043
-0.0856674
1.54489
-0.0736349
1.25754
-0.0514751
0.934707
-0.02477
0.570636
-0.00642311
0.256826
0.0601237
-0.00573691
0.126315
-0.0154015
0.40256
-0.0242728
0.740751
-0.0330699
1.07986
-0.0436335
1.37165
-0.0567039
1.6485
-0.0710181
1.95081
-0.085688
2.3074
-0.0991772
2.73053
-0.108878
3.23186
-0.112774
3.19636
-0.112212
2.64862
-0.108586
2.20584
-0.104023
1.84587
-0.0968097
1.53768
-0.081834
1.24257
-0.0561779
0.909051
-0.0268853
0.541343
-0.00695362
0.236894
0.0531701
-0.00803204
0.134347
-0.0221977
0.416726
-0.0364273
0.75498
-0.0487283
1.09216
-0.0614929
1.38442
-0.0768469
1.66386
-0.0933237
1.96729
-0.10994
2.32402
-0.124591
2.74518
-0.134631
3.2419
-0.136395
3.19812
-0.133153
2.64538
-0.128154
2.20084
-0.12087
1.83858
-0.110166
1.52697
-0.0916572
1.22406
-0.0619423
0.879336
-0.0293843
0.508785
-0.007532
0.215042
0.0456381
-0.0104618
0.144809
-0.02942
0.435684
-0.0497266
0.775287
-0.0668764
1.10931
-0.08286
1.4004
-0.100867
1.68186
-0.119617
1.98604
-0.137409
2.34181
-0.151939
2.75971
-0.160392
3.25035
-0.16062
3.19835
-0.155331
2.64009
-0.147269
2.19278
-0.138307
1.82962
-0.125722
1.51439
-0.102863
1.2012
-0.0682266
0.844699
-0.0319595
0.472518
-0.00805494
0.191137
0.0375832
-0.0151101
0.159919
-0.04144
0.462014
-0.0684988
0.802346
-0.0907019
1.13151
-0.110679
1.42038
-0.132758
1.70394
-0.15449
2.00777
-0.174342
2.36166
-0.189343
2.77471
-0.195905
3.25692
-0.192054
3.1945
-0.183322
2.63135
-0.173372
2.18283
-0.161309
1.81756
-0.143978
1.49706
-0.11614
1.17336
-0.0756968
0.804256
-0.034765
0.431586
-0.0085424
0.164914
0.0290408
-0.0193257
0.179245
-0.0547914
0.49748
-0.0918873
0.839442
-0.121795
1.16142
-0.147338
1.44592
-0.173322
1.72992
-0.197158
2.03161
-0.21653
2.38104
-0.228901
2.78708
-0.232253
3.26027
-0.226098
3.18834
-0.214362
2.61962
-0.199931
2.1684
-0.184727
1.80235
-0.164328
1.47666
-0.129917
1.13895
-0.0825242
0.756863
-0.0370351
0.386097
-0.00870532
0.136585
0.0203354
-0.032501
0.211746
-0.0816596
0.546638
-0.129213
0.886995
-0.165502
1.19771
-0.196251
1.47667
-0.226136
1.75981
-0.250851
2.05632
-0.270103
2.40029
-0.281459
2.79844
-0.280393
3.2592
-0.266754
3.1747
-0.249652
2.60251
-0.233595
2.15234
-0.214637
1.7834
-0.18696
1.44898
-0.145323
1.09732
-0.0904668
0.702006
-0.0392805
0.334911
-0.00865801
0.105962
0.0116774
-0.0468925
0.258639
-0.120311
0.620057
-0.183387
0.950071
-0.228243
1.24256
-0.26501
1.51344
-0.295614
1.79041
-0.318225
2.07893
-0.332928
2.41499
-0.336697
2.80221
-0.327607
3.25011
-0.310356
3.15745
-0.29072
2.58288
-0.268192
2.12981
-0.244108
1.75931
-0.211527
1.4164
-0.160098
1.04589
-0.0950927
0.637001
-0.0393263
0.279144
-0.00850677
0.0751427
0.00317066
-0.0338812
0.29252
-0.0972487
0.683424
-0.155772
1.00859
-0.202956
1.28975
-0.245518
1.556
-0.283571
1.82847
-0.319001
2.11436
-0.350755
2.44674
-0.375436
2.82689
-0.389294
3.26397
-0.383844
3.152
-0.365751
2.56479
-0.34587
2.10993
-0.316094
1.72954
-0.265598
1.3659
-0.19135
0.971639
-0.106137
0.551789
-0.0413047
0.214312
-0.00933449
0.0431724
-0.00616383
-0.0128097
0.305329
-0.0478004
0.718415
-0.089307
1.0501
-0.128525
1.32897
-0.167429
1.5949
-0.201808
1.86285
-0.23362
2.14617
-0.260768
2.47389
-0.278923
2.84504
-0.280066
3.26511
-0.265537
3.13747
-0.246877
2.54613
-0.22004
2.0831
-0.187337
1.69683
-0.146748
1.32531
-0.0944873
0.919378
-0.0435227
0.500824
-0.0151875
0.185977
-0.00364019
0.0316251
-0.00980402
8.54317e-05
0.305244
-0.0248828
0.743383
-0.0545334
1.07975
-0.0845412
1.35897
-0.115848
1.62621
-0.146239
1.89324
-0.174277
2.17421
-0.197219
2.49683
-0.211029
2.85885
-0.21154
3.26562
-0.1988
3.12473
-0.174477
2.5218
-0.14525
2.05387
-0.112783
1.66437
-0.0735951
1.28613
-0.0338279
0.879611
-0.00759947
0.474596
-0.000403305
0.17878
-0.00032155
0.0315433
-0.0101256
0.000660949
0.304583
-0.0127531
0.756797
-0.0342037
1.1012
-0.0588356
1.38361
-0.084725
1.6521
-0.110325
1.91884
-0.133807
2.19769
-0.152544
2.51557
-0.162844
2.86915
-0.160345
3.26312
-0.141987
3.10638
-0.115642
2.49546
-0.0872223
2.02545
-0.0537954
1.63094
-0.0234184
1.25575
-0.00054939
0.856742
0.00966485
0.464382
0.00684176
0.181604
0.00177015
0.0366149
-0.00835542
0.00405081
0.300532
-0.00531444
0.766163
-0.0233069
1.11919
-0.0439353
1.40423
-0.065518
1.67368
-0.0869859
1.9403
-0.107118
2.21783
-0.123353
2.53181
-0.132043
2.87784
-0.12841
3.25949
-0.109312
3.08728
-0.0831372
2.46928
-0.0529043
1.99522
-0.0259691
1.604
0.00168648
1.22809
0.0205892
0.837839
0.0220292
0.462942
0.0125615
0.191071
0.00346193
0.0457145
-0.00489349
0.00515462
0.295378
-0.000942644
0.77226
-0.0168426
1.13509
-0.0351009
1.42249
-0.0542206
1.6928
-0.0731712
1.95925
-0.0909404
2.2356
-0.105306
2.54617
-0.112383
2.88492
-0.107222
3.25433
-0.0887858
3.06884
-0.0639902
2.44449
-0.0371447
1.96837
-0.00758502
1.57444
0.0136644
1.20684
0.0252705
0.826233
0.0245918
0.46362
0.0139471
0.201716
0.00401441
0.0556472
-0.000879081
0.00412252
0.291255
-0.000174206
0.776557
-0.0135185
1.14844
-0.0301661
1.43914
-0.0474142
1.71005
-0.0646301
1.97647
-0.080835
2.2518
-0.0937395
2.55908
-0.100022
2.8912
-0.0953887
3.2497
-0.0782178
3.05167
-0.0545972
2.42087
-0.0280827
1.94186
-0.00563705
1.552
0.014869
1.18634
0.026322
0.81478
0.0234496
0.466493
0.0133958
0.21177
0.00390136
0.0651416
0.00302227
0.0025431
0.288712
-0.00113415
0.780234
-0.0130752
1.16038
-0.027968
1.45403
-0.0441188
1.7262
-0.0601185
1.99247
-0.075216
2.2669
-0.0877489
2.57161
-0.094945
2.8984
-0.0912526
3.246
-0.075205
3.03562
-0.0535113
2.39917
-0.0305229
1.91887
-0.00574855
1.52722
0.0118398
1.16875
0.0204716
0.806148
0.0195802
0.467384
0.0111407
0.220209
0.00334425
0.0729381
0.00636652
0.000423708
0.288288
-0.00310126
0.783759
-0.0137308
1.17101
-0.0271802
1.46748
-0.0422259
1.74125
-0.0574749
2.00772
-0.0722222
2.28165
-0.084801
2.58419
-0.0921011
2.9057
-0.0891272
3.24303
-0.0749393
3.02143
-0.0541879
2.37842
-0.0318981
1.89658
-0.0139429
1.50927
0.00375973
1.15105
0.0147478
0.79516
0.0138265
0.468306
0.00814198
0.225894
0.00250926
0.0785708
0.00887579
-0.000546175
0.288835
-0.00549829
0.788711
-0.0151802
1.18069
-0.0276055
1.47991
-0.0419665
1.75561
-0.0566733
2.02243
-0.071198
2.29617
-0.0841614
2.59715
-0.0927423
2.91428
-0.0924544
3.24274
-0.079303
3.00828
-0.0600258
2.35914
-0.0416446
1.8782
-0.0202003
1.48782
-0.00473154
1.13558
0.00433508
0.786094
0.00715092
0.46549
0.00439498
0.22865
0.00163091
0.0813349
0.0105067
-0.00197052
0.290805
-0.00712789
0.793868
-0.0165641
1.19013
-0.0283515
1.49169
-0.0419342
1.76919
-0.056278
2.03677
-0.0709165
2.31081
-0.0843932
2.61063
-0.0939525
2.92384
-0.0953652
3.24416
-0.0843819
2.9973
-0.0669893
2.34175
-0.0469578
1.85817
-0.0310486
1.47191
-0.0148543
1.11938
-0.00272657
0.773966
0.000479572
0.462284
0.000986279
0.228143
0.000554452
0.0817667
0.0110611
-0.00343417
0.294239
-0.00903389
0.799468
-0.0180394
1.19913
-0.0293861
1.50304
-0.0426023
1.78241
-0.0566228
2.05079
-0.0712308
2.32542
-0.0853506
2.62475
-0.0964896
2.93498
-0.100291
3.24796
-0.0909664
2.98798
-0.0753688
2.32615
-0.0590977
1.8419
-0.0388444
1.45166
-0.0228044
1.10334
-0.0115657
0.762727
-0.00436997
0.455088
-0.00172122
0.225494
-0.000199414
0.0802449
0.0108617
-0.00409415
0.298333
-0.0100724
0.805446
-0.0191641
1.20822
-0.0301803
1.51406
-0.0428591
1.79509
-0.0566104
2.06454
-0.0714277
2.34023
-0.0862655
2.63959
-0.098804
2.94751
-0.105033
3.25419
-0.100243
2.98319
-0.0863772
2.31229
-0.0652422
1.82076
-0.0478888
1.43431
-0.0300177
1.08547
-0.0156825
0.748392
-0.00861614
0.448022
-0.00326231
0.22014
-0.000628558
0.0776111
0.0102332
-0.00437971
0.302713
-0.011142
0.812209
-0.0200959
1.21718
-0.030796
1.52476
-0.0432644
1.80755
-0.0568567
2.07813
-0.0717621
2.35514
-0.087215
2.65504
-0.101215
2.96151
-0.109975
3.26295
-0.107157
2.98037
-0.0943315
2.29946
-0.0775943
1.80402
-0.0541013
1.41082
-0.0347001
1.06607
-0.0205639
0.734256
-0.0100739
0.437532
-0.00409896
0.214165
-0.000851767
0.0743639
0.0093814
-0.00440574
0.307119
-0.011461
0.819264
-0.0205393
1.22626
-0.0310458
1.53526
-0.0431289
1.81964
-0.0565088
2.09151
-0.0715605
2.37019
-0.0875697
2.67105
-0.103044
2.97699
-0.114692
3.27459
-0.116138
2.98181
-0.105184
2.28851
-0.0825748
1.78141
-0.0606641
1.3889
-0.037966
1.04337
-0.0201589
0.716449
-0.0103608
0.427733
-0.00362418
0.207429
-0.00079519
0.071535
0.00858621
-0.00454379
0.311663
-0.0119613
0.826681
-0.020787
1.23508
-0.0310147
1.54549
-0.0429294
1.83155
-0.0561841
2.10477
-0.071275
2.38528
-0.0878207
2.68759
-0.104675
2.99384
-0.11847
3.28839
-0.12194
2.98528
-0.112357
2.27893
-0.0948497
1.76391
-0.0658486
1.3599
-0.0388272
1.01635
-0.0193804
0.697002
-0.00589617
0.414249
-0.000511849
0.202044
0.000676229
0.0703469
0.00926244
-0.0045411
0.316204
-0.0118731
0.834013
-0.0206453
1.24385
-0.0306887
1.55554
-0.042249
1.84311
-0.0552545
2.11777
-0.0703772
2.4004
-0.0873435
2.70456
-0.105305
3.0118
-0.121665
3.30475
-0.12983
2.99345
-0.122786
2.27188
-0.0998928
1.74101
-0.0719513
1.33196
-0.038669
0.98307
-0.0118573
0.67019
0.0022574
0.400135
0.00455408
0.199748
-0.00108605
0.075987
0.00817638
-0.00459923
0.320803
-0.0120044
0.841419
-0.0204182
1.25227
-0.0301138
1.56523
-0.041437
1.85444
-0.0542803
2.13062
-0.0693701
2.41549
-0.0866962
2.72189
-0.105688
3.0308
-0.12406
3.32312
-0.134214
3.0036
-0.129602
2.26727
-0.11318
1.72459
-0.0785063
1.29729
-0.0381195
0.942683
-0.000602233
0.632673
0.0291336
0.370399
0.0395798
0.189302
0.0262899
0.0892768
0.0344663
-0.00446087
0.325264
-0.0116155
0.848573
-0.019893
1.26055
-0.0293463
1.57468
-0.0402757
1.86537
-0.0528112
2.14315
-0.0677936
2.43048
-0.0852949
2.73939
-0.104983
3.05048
-0.125306
3.34344
-0.139032
3.01733
-0.139445
2.26768
-0.119426
1.70457
-0.0869485
1.26481
-0.038799
0.894533
0.00970264
0.584171
0.0508781
0.329223
0.0488822
0.191298
0.0215285
0.116631
0.0559949
-0.00434666
0.32961
-0.0114634
0.85569
-0.0193414
1.26842
-0.0283702
1.58371
-0.0390237
1.87602
-0.0513441
2.15547
-0.0661969
2.44533
-0.0838423
2.75703
-0.104241
3.07088
-0.126304
3.3655
-0.14183
3.03286
-0.145309
2.27116
-0.134432
1.6937
-0.0990799
1.22946
-0.0470658
0.842519
0.0251962
0.511909
0.12371
0.230709
0.196008
0.119
0.182749
0.12989
0.238744
-0.00418424
0.333795
-0.0110782
0.862584
-0.0190058
1.27635
-0.0281177
1.59282
-0.0389204
1.88682
-0.0516493
2.1682
-0.0673876
2.46107
-0.0865694
2.77622
-0.109543
3.09386
-0.135877
3.39184
-0.157849
3.05483
-0.167949
2.28126
-0.156283
1.68203
-0.125311
1.19849
-0.065079
0.782287
-0.00769956
0.45453
-0.0634337
0.286443
-0.356573
0.412139
-0.942581
0.715898
0.90065
-1.60449
-0.00404054
0.337835
-0.0108932
0.869436
-0.0185167
1.28398
-0.0273939
1.6017
-0.0381401
1.89757
-0.0510526
2.18111
-0.0672627
2.47728
-0.0874566
2.79641
-0.112426
3.11883
-0.142521
3.42193
-0.169271
3.08158
-0.183729
2.29572
-0.189812
1.68811
-0.168286
1.17696
-0.138999
0.753
-0.233245
0.548776
-0.693369
0.746568
-1.44507
1.16383
-2.05203
1.32286
1.21657
-2.36795
-0.00380036
0.341636
-0.0102744
0.875911
-0.0177712
1.29147
-0.0265532
1.61048
-0.0371649
1.90818
-0.0501171
2.19407
-0.066683
2.49384
-0.0877186
2.81744
-0.114461
3.14557
-0.148047
3.45552
-0.18134
3.11487
-0.205967
2.32035
-0.213044
1.69519
-0.200026
1.16394
-0.285769
0.838742
-0.75329
1.0163
-1.54789
1.54117
-2.11159
1.72754
-2.35041
1.56168
1.33067
-2.4645
-0.00366362
0.345299
-0.00992405
0.882171
-0.0170389
1.29859
-0.0255181
1.61896
-0.0359905
1.91865
-0.0490479
2.20712
-0.0659819
2.51078
-0.0879211
2.83938
-0.116561
3.17421
-0.154031
3.49299
-0.193296
3.15414
-0.223336
2.35039
-0.249094
1.72095
-0.326596
1.24144
-0.682909
1.19506
-1.43918
1.77257
-2.02802
2.13001
-2.26745
1.96697
-2.38048
1.6747
1.39472
-2.44453
-0.00334667
0.348646
-0.00912598
0.88795
-0.0160222
1.30548
-0.0243378
1.62728
-0.0346818
1.929
-0.0477
2.22014
-0.0648481
2.52793
-0.0874547
2.86199
-0.117714
3.20447
-0.158733
3.53401
-0.20542
3.20082
-0.248597
2.39356
-0.289071
1.76142
-0.469783
1.42216
-1.09438
1.81965
-1.78917
2.46737
-2.10885
2.44968
-2.25678
2.1149
-2.33874
1.75667
1.46062
-2.40464
-0.00332883
0.351975
-0.00914438
0.893766
-0.0159108
1.31225
-0.0241759
1.63554
-0.0347645
1.93958
-0.0481553
2.23353
-0.0658917
2.54566
-0.0895523
2.88565
-0.121737
3.23665
-0.166515
3.57879
-0.219354
3.25366
-0.265449
2.43966
-0.353662
1.84963
-0.74551
1.814
-1.49084
2.56498
-1.9632
2.93973
-2.16298
2.64946
-2.26909
2.22101
-2.34617
1.83375
1.52402
-2.40957
-0.00338679
0.355362
-0.00930525
0.899684
-0.0165696
1.31951
-0.0254001
1.64437
-0.0365152
1.9507
-0.0505081
2.24753
-0.0690679
2.56422
-0.0938982
2.91048
-0.12804
3.27079
-0.176794
3.62754
-0.23449
3.31136
-0.296279
2.50145
-0.484019
2.03737
-1.04614
2.37612
-1.67863
3.19747
-1.95343
3.21453
-2.10017
2.79619
-2.2139
2.33475
-2.30742
1.92727
1.58561
-2.36902
-0.00350815
0.35887
-0.00995514
0.906131
-0.0174889
1.32705
-0.0266599
1.65355
-0.0382954
1.96233
-0.0530393
2.26227
-0.072581
2.58376
-0.0988444
2.93674
-0.135121
3.30707
-0.18755
3.67997
-0.250419
3.37423
-0.335831
2.58686
-0.617373
2.31892
-1.26395
3.0227
-1.7525
3.68603
-1.95946
3.42148
-2.09913
2.93586
-2.22278
2.45839
-2.33306
2.03755
1.64416
-2.39161
-0.00343019
0.3623
-0.0099079
0.912609
-0.018118
1.33526
-0.0280376
1.66347
-0.0402891
1.97459
-0.0556715
2.27765
-0.0760716
2.60416
-0.10351
2.96418
-0.141654
3.34521
-0.197385
3.7357
-0.26521
3.44205
-0.389291
2.71094
-0.775308
2.70494
-1.41033
3.65771
-1.76251
4.03822
-1.93523
3.5942
-2.03696
3.03759
-2.12536
2.54679
-2.19239
2.10458
1.63688
-2.1851
-0.0034413
0.365741
-0.0105627
0.91973
-0.0190175
1.34371
-0.029257
1.6737
-0.0420909
1.98742
-0.0583084
2.29387
-0.0797603
2.62562
-0.108695
2.99312
-0.148902
3.38542
-0.20626
3.79306
-0.28449
3.52028
-0.454231
2.88068
-0.906646
3.15735
-1.46255
4.21361
-1.72399
4.29966
-1.87541
3.74562
-1.96852
3.1307
-1.96971
2.54797
-1.90033
2.03521
1.60085
-1.86431
-0.00318576
0.368927
-0.0100976
0.926642
-0.0193079
1.35292
-0.0303656
1.68476
-0.0437552
2.00081
-0.0603463
2.31046
-0.0821449
2.64741
-0.11132
3.02229
-0.151755
3.42586
-0.208859
3.85016
-0.294672
3.6061
-0.498824
3.08483
-0.98858
3.64711
-1.42944
4.65448
-1.59425
4.46446
-1.66119
3.81256
-1.66552
3.13504
-1.51775
2.40021
-1.01766
1.53512
0.583192
-0.00278578
0.371713
-0.0106011
0.934457
-0.0199801
1.3623
-0.0313844
1.69617
-0.0456939
2.01512
-0.0637533
2.32852
-0.0875766
2.67124
-0.119687
3.0544
-0.16431
3.47048
-0.22772
3.91357
-0.330205
3.70858
-0.584503
3.33913
-1.12419
4.18679
-1.48231
5.0126
-1.58139
4.56354
-1.57907
3.81024
-1.47515
3.03112
-1.23621
2.16126
-0.632041
0.930951
-0.0488497
-0.00241455
0.374127
-0.00931803
0.941361
-0.0195826
1.37257
-0.0322525
1.70884
-0.0477005
2.03057
-0.0669686
2.34779
-0.0925349
2.6968
-0.127098
3.08897
-0.17584
3.51922
-0.245722
3.98346
-0.368644
3.8315
-0.682867
3.65335
-1.24254
4.74647
-1.50287
5.27292
-1.56103
4.6217
-1.53882
3.78803
-1.33692
2.82922
-0.783123
1.60746
-0.10887
0.256698
-0.15772
-0.00173211
0.375859
-0.00944568
0.949075
-0.0195355
1.38266
-0.0322731
1.72157
-0.048458
2.04675
-0.0691953
2.36853
-0.096871
2.72448
-0.134597
3.12669
-0.187266
3.57189
-0.264836
4.06103
-0.412839
3.97951
-0.785375
4.02589
-1.32085
5.28195
-1.49693
5.449
-1.52816
4.65293
-1.43998
3.69985
-1.10222
2.49146
-0.313294
0.818536
0.0248967
-0.0814926
-0.132823
-0.000526742
0.376386
-0.00662252
0.95517
-0.0175766
1.39361
-0.0317985
1.7358
-0.0491456
2.0641
-0.0709818
2.39036
-0.100252
2.75375
-0.140079
3.16652
-0.195536
3.62735
-0.281846
4.14734
-0.457093
4.15475
-0.895305
4.4641
-1.36616
5.7528
-1.48234
5.56518
-1.48494
4.65554
-1.25981
3.47471
-0.686652
1.91831
-0.0625511
0.194435
0.0304141
-0.174458
-0.102409
0.000177473
0.376209
-0.00557805
0.960926
-0.0158908
1.40392
-0.0297805
1.74969
-0.0473662
2.08169
-0.0705503
2.41355
-0.101767
2.78497
-0.144385
3.20914
-0.203096
3.68606
-0.298493
4.24273
-0.499168
4.35543
-0.987397
4.95233
-1.36143
6.12683
-1.42577
5.62952
-1.37918
4.60895
-1.09038
3.18592
-0.322659
1.15058
0.00516005
-0.133384
0.0152753
-0.184573
-0.0871336
0.00330075
0.372908
0.000355959
0.963871
-0.0110281
1.41531
-0.0266027
1.76526
-0.0451352
2.10022
-0.0692283
2.43764
-0.101515
2.81725
-0.145384
3.25301
-0.206583
3.74726
-0.309995
4.34615
-0.537314
4.58275
-1.05025
5.46526
-1.32588
6.40247
-1.36614
5.66978
-1.22589
4.46871
-0.772538
2.73256
-0.0691101
0.447155
0.0449132
-0.247407
0.0245486
-0.164208
-0.062585
0.00461424
0.368294
0.00272845
0.965756
-0.00694297
1.42498
-0.0207118
1.77903
-0.0386413
2.11815
-0.0636852
2.46268
-0.0973335
2.8509
-0.143399
3.29907
-0.207382
3.81124
-0.318975
4.45774
-0.576369
4.84014
-1.07169
5.96058
-1.26115
6.59194
-1.27076
5.67938
-1.05167
4.24962
-0.460386
2.14128
-0.0177575
0.00452723
-0.00593587
-0.259229
0.00535334
-0.175498
-0.0572317
0.00866847
0.359625
0.00994764
0.964477
0.00228247
1.43264
-0.0122666
1.79358
-0.0312517
2.13713
-0.0565508
2.48798
-0.0901716
2.88452
-0.13576
3.34466
-0.200954
3.87643
-0.318211
4.575
-0.596513
5.11844
-1.04798
6.41204
-1.17252
6.71648
-1.15778
5.66464
-0.897017
3.98886
-0.263784
1.50805
-0.0708465
-0.188411
-0.0387896
-0.291286
-0.0139347
-0.200352
-0.0711664
0.0116207
0.348004
0.0164517
0.959646
0.0116236
1.43747
0.00125632
1.80395
-0.0172679
2.15566
-0.0419664
2.51268
-0.07556
2.91812
-0.122072
3.39117
-0.188281
3.94264
-0.310104
4.69682
-0.597103
5.40544
-0.984364
6.7993
-1.04922
6.78133
-0.978115
5.59353
-0.678977
3.68972
-0.0742991
0.903368
0.0129707
-0.275681
-0.00199108
-0.276324
-0.00234132
-0.200002
-0.0735077
0.0184993
0.329505
0.0300562
0.948089
0.0282689
1.43926
0.0166224
1.81559
-0.00164499
2.17392
-0.024302
2.53534
-0.0561899
2.95
-0.100077
3.43506
-0.163948
4.00651
-0.28416
4.81703
-0.561796
5.68308
-0.870009
7.10752
-0.904436
6.81576
-0.806998
5.4961
-0.450395
3.33312
0.0628168
0.390156
0.0732095
-0.286073
0.0540513
-0.257166
0.0206046
-0.166555
-0.0529031
0.0244697
0.305035
0.0428561
0.929703
0.0462253
1.43589
0.0397013
1.82212
0.0271807
2.18644
0.00556541
2.55695
-0.0243552
2.97993
-0.0663751
3.47708
-0.127656
4.06779
-0.24311
4.93249
-0.490736
5.9307
-0.712272
7.32905
-0.743878
6.84737
-0.633721
5.38594
-0.306853
3.00625
-0.00464093
0.0879441
0.015914
-0.306628
0.0314154
-0.272667
0.0165751
-0.151715
-0.036328
0.0350915
0.269944
0.0651107
0.899684
0.0755332
1.42547
0.0713574
1.82629
0.0600502
2.19775
0.0410402
2.57596
0.0146251
3.00634
-0.0222411
3.51394
-0.0760024
4.12155
-0.173468
5.02995
-0.373095
6.13033
-0.527725
7.48368
-0.551114
6.87076
-0.459659
5.29448
-0.181768
2.72836
-0.0622996
-0.031524
-0.0450393
-0.323888
-0.0160174
-0.301689
-0.00170292
-0.16603
-0.0380309
0.0445605
0.225383
0.0872979
0.856946
0.107837
1.40493
0.112738
1.82139
0.108681
2.20181
0.0947783
2.58987
0.0740786
3.02704
0.0426874
3.54534
-0.00717171
4.17141
-0.0802506
5.10303
-0.21555
6.26563
-0.303019
7.57115
-0.321653
6.88939
-0.261231
5.23406
-0.0486139
2.51574
-0.0757691
-0.00436884
-0.0752945
-0.324363
-0.03455
-0.342434
0.0110893
-0.211669
-0.0269416
0.0575791
0.167804
0.120001
0.794525
0.155911
1.36902
0.167284
1.81002
0.166818
2.20227
0.157036
2.59965
0.143244
3.04083
0.12295
3.56563
0.0912138
4.20315
0.0478498
5.1464
0.00109626
6.31238
-0.0356809
7.60793
-0.0369165
6.89063
-0.0440307
5.24118
-0.0342193
2.50593
-0.236334
0.197745
-0.227478
-0.333219
-0.126453
-0.443459
0.00253961
-0.340661
-0.024402
0.0600151
0.107789
0.150086
0.704454
0.206801
1.3123
0.234111
1.78271
0.245887
2.1905
0.245332
2.6002
0.240039
3.04613
0.229385
3.57628
0.214743
4.21779
0.197821
5.16332
0.261569
6.24863
0.316709
7.55279
0.282153
6.92518
0.0899109
5.43342
-0.243571
2.83941
-0.586711
0.540886
-0.583626
-0.336304
-0.430691
-0.596394
-0.193397
-0.577955
-0.217799
0.0505631
0.0572262
0.182591
0.572426
0.276669
1.21822
0.320735
1.73864
0.339951
2.17128
0.347587
2.59257
0.34921
3.0445
0.354538
3.57095
0.364258
4.20807
0.390775
5.1368
0.548317
6.09109
0.720538
7.38057
0.73509
6.91063
0.627962
5.54055
0.153047
3.31433
-0.402668
1.0966
-0.687664
-0.051308
-0.60442
-0.679638
-0.331268
-0.851107
-0.549067
0.0349601
0.0222661
0.217088
0.390298
0.342774
1.09254
0.41963
1.66179
0.460359
2.13055
0.483804
2.56912
0.493786
3.03452
0.511059
3.55368
0.543507
4.17562
0.613209
5.0671
0.900993
5.80331
1.33542
6.94614
1.65653
6.58952
1.87367
5.32341
1.53154
3.65646
0.820076
1.80806
0.223636
0.545133
-0.109447
-0.346556
-0.178148
-0.782406
-0.727215
0.0311026
-0.00883652
0.235873
0.185528
0.440273
0.888139
0.551444
1.55061
0.602327
2.07967
0.635588
2.53586
0.657522
3.01259
0.687947
3.52326
0.748382
4.11519
0.877949
4.93753
1.26798
5.41328
1.97342
6.24069
2.34863
6.21431
2.56089
5.11115
2.40931
3.80804
1.83491
2.38246
1.27179
1.10826
0.664876
0.260356
0.224654
-0.342184
-0.502561
0.02705
-0.0358865
0.167669
0.0449092
0.488023
0.567785
0.67787
1.36077
0.774902
1.98264
0.825516
2.48525
0.862399
2.9757
0.89104
3.49462
0.966497
4.03973
1.11198
4.79205
1.49311
5.03214
2.27884
5.45497
2.65136
5.84179
2.84378
4.91873
2.74098
3.91084
2.25767
2.86576
1.60849
1.75744
0.996019
0.872826
0.43614
0.217694
-0.0664205
0.00683137
-0.0427179
0.0868217
-0.0350811
0.412583
0.242023
0.692264
1.08109
0.820561
1.85434
0.858624
2.44718
0.870702
2.96363
0.858971
3.50635
0.856973
4.04173
0.900231
4.74879
1.03972
4.89265
1.45853
5.03617
1.63783
5.66249
1.66248
4.89408
1.58339
3.98993
1.36603
3.08312
1.00628
2.1172
0.638894
1.24021
0.260183
0.596406
0.193762
0.00170081
-0.0444187
0.0418399
-0.0752202
0.226525
0.0573388
0.520364
0.787247
0.685778
1.68893
0.738958
2.394
0.751648
2.95094
0.746728
3.51127
0.730912
4.05755
0.751197
4.7285
0.813533
4.83032
1.0801
4.7696
1.28783
5.45476
1.29207
4.88984
1.23025
4.05176
1.07732
3.23605
0.803028
2.39149
0.501707
1.54153
0.210071
0.888042
0.403834
0.00178066
-0.0461994
0.0233689
-0.0968084
0.101894
-0.0211862
0.360358
0.528782
0.532627
1.51666
0.612103
2.31453
0.631142
2.9319
0.630379
3.51203
0.605348
4.08258
0.597432
4.73642
0.624464
4.80329
0.783664
4.6104
0.965771
5.27265
0.961142
4.89447
0.899932
4.11297
0.783637
3.35234
0.594108
2.58102
0.364162
1.77147
0.143872
1.10833
0.547705
-0.0104129
-0.0357865
-0.00583361
-0.101388
0.035303
-0.0623228
0.245185
0.3189
0.403616
1.35823
0.476508
2.24164
0.496552
2.91185
0.501233
3.50735
0.484721
4.09909
0.46924
4.7519
0.471352
4.80117
0.56689
4.51486
0.699194
5.14035
0.695289
4.89837
0.631893
4.17636
0.537519
3.44672
0.404333
2.7142
0.23853
1.93728
0.0841524
1.26271
0.631858
0.00455976
-0.0403463
0.0354729
-0.132301
0.075375
-0.102225
0.193255
0.201021
0.314463