/*--------------------------------*- C++ -*----------------------------------*\
| =========                 |                                                 |
| \\      /  F ield         | OpenFOAM: The Open Source CFD Toolbox           |
|  \\    /   O peration     | Version:  4.0                                   |
|   \\  /    A nd           | Web:      www.OpenFOAM.org                      |
|    \\/     M anipulation  |                                                 |
\*---------------------------------------------------------------------------*/
FoamFile
{
    version     2.0;
    format      ascii;
    class       volVectorField;
    location    "41";
    object      U;
}
// * * * * * * * * * * * * * * * * * * * * * * * * * * * * * * * * * * * * * //

dimensions      [0 1 -1 0 0 0 0];

internalField   nonuniform List<vector> 
918
(
(0.985163 -0.000502658 0)
(0.00501144 2.96625 0)
(0.000893782 0.817947 0)
(0.979703 0.00214794 0)
(-0.0144431 2.02932 3.23831e-20)
(-0.00704475 2.94879 -2.55718e-18)
(0.823873 1.16319 4.22924e-19)
(0.272156 0.129343 -1.62865e-20)
(0.999908 -0.000281782 0)
(0.0606942 0.809985 0)
(0.0180396 0.619499 0)
(0.734862 -0.0154845 0)
(0.0111277 2.93036 0)
(0.00227022 2.79518 0)
(-0.0176153 3.15562 7.60056e-19)
(-0.0156855 1.86913 -1.10788e-20)
(0.33759 0.0341789 1.06682e-18)
(0.19026 1.1744 2.93289e-19)
(0.96277 0.00501961 0)
(-0.00135759 0.595239 0)
(0.0590169 0.17335 -7.7164e-19)
(1.00198 -0.00498066 0)
(1.00022 -0.0097911 0)
(0.975727 -0.00644012 0)
(0.585242 -0.0376793 0)
(0.0160049 2.63911 0)
(-0.0149762 2.91007 9.46733e-19)
(0.00137031 0.893725 0)
(0.00896617 1.1179 0)
(-0.00252848 0.870136 0)
(-0.0151525 2.60942 0)
(0.000792801 2.08794 -2.58451e-20)
(-0.0107225 1.84882 0)
(-0.0206026 2.9876 -9.21839e-23)
(-0.0166891 3.00529 1.98737e-18)
(0.00209999 3.00018 0)
(0.870745 -0.00942218 0)
(0.404123 0.937881 1.91341e-19)
(0.802523 1.18098 -4.60702e-19)
(0.948176 1.01896 5.08423e-19)
(0.673517 1.27398 -9.71534e-20)
(0.672335 1.26076 5.61619e-19)
(0.312037 0.207795 1.58889e-20)
(0.286611 0.100064 0)
(1.12593 0.54797 0)
(0.277746 0.199765 7.26222e-20)
(0.24212 0.130608 -7.53606e-20)
(0.919777 -0.00745303 0)
(1.00027 0.00015149 0)
(0.99991 0.000334363 0)
(1.00363 -0.00776928 0)
(1.00096 -0.000930116 0)
(1.00017 2.97447e-05 0)
(0.0775067 1.81284 -8.31248e-19)
(0.0273621 0.990765 0)
(0.0939691 0.873078 0)
(0.0129895 0.940372 0)
(0.0339707 0.751571 0)
(0.0212071 1.99714 0)
(0.0155672 0.83019 0)
(0.0119328 0.645737 0)
(0.0157318 0.811234 0)
(0.00470056 0.595293 0)
(0.838425 -0.0157392 0)
(0.846964 0.02891 0)
(0.767731 -0.00411815 0)
(0.817378 0.038976 0)
(0.703201 -0.0187106 0)
(0.0146878 3.00041 9.49129e-19)
(0.0114953 3.00804 0)
(0.00610963 3.00277 0)
(0.0135456 2.99737 1.07868e-23)
(0.00796685 2.95847 -1.41064e-18)
(0.0145034 2.98203 0)
(0.0108747 2.90355 0)
(0.0243195 2.93067 2.18819e-24)
(0.00459831 2.82527 0)
(0.030818 2.91642 0)
(-0.00504624 2.74505 0)
(0.308441 3.5525 0)
(-0.131848 3.63397 0)
(0.139597 3.24614 -7.07317e-19)
(-0.0127797 2.98177 0)
(-0.0108964 2.02888 0)
(-0.00680674 2.15289 1.09266e-20)
(-0.000971763 1.89289 -2.09659e-20)
(0.43671 0.142869 -3.69119e-19)
(0.337877 0.018415 -3.55919e-19)
(0.418025 0.159489 -1.11171e-18)
(0.322913 0.0515229 -7.33492e-19)
(0.222357 0.961313 0)
(0.272411 1.31957 -3.54679e-19)
(0.371274 1.25898 5.93953e-19)
(0.987471 0.00854988 0)
(0.941928 0.00584561 0)
(1.0003 0.000578119 0)
(1.00286 0.00930571 0)
(1.00302 0.00845992 -2.83962e-18)
(0.991913 0.00970076 2.1444e-18)
(-0.0164163 0.801769 0)
(-0.00178581 0.587875 0)
(-0.0128299 0.934511 0)
(-0.000883735 0.806906 0)
(-0.0134662 0.587285 0)
(0.0943803 0.176802 2.38509e-19)
(0.15174 0.153368 0)
(0.99354 -0.00838078 0)
(0.954424 -0.00651786 0)
(0.765824 0.0461626 0)
(0.701501 0.0567549 0)
(0.663805 -0.030738 0)
(0.96189 -0.00881842 0)
(0.618028 0.076258 0)
(0.445326 -0.0113514 1.57438e-18)
(-0.0368476 2.86278 7.16121e-19)
(0.0414984 2.9095 0)
(0.0544456 2.88531 0)
(-0.00467623 2.69965 0)
(-0.0130325 2.98525 8.98745e-19)
(-0.0179602 2.89519 0)
(-0.0153882 2.98806 -2.78189e-18)
(-0.0133045 2.9252 9.51718e-19)
(0.0312345 1.33843 0)
(0.052185 1.38694 0)
(-0.00326908 2.11777 1.98764e-22)
(-0.00275191 2.06927 0)
(-0.0227238 1.85283 0)
(0.938029 -0.0076531 0)
(0.856437 -0.00968062 0)
(0.863375 0.00625333 0)
(0.949221 -0.0080378 0)
(0.883686 -0.00811298 0)
(0.51639 1.13166 -2.4108e-19)
(0.565872 1.18335 0)
(0.367849 0.881849 3.52401e-20)
(0.310032 0.740801 0)
(0.907977 1.05797 -1.38262e-19)
(1.01726 0.86006 2.74292e-19)
(0.364899 1.36973 0)
(0.528975 1.33633 0)
(0.543109 1.2902 0)
(0.115817 0.180201 -3.06975e-19)
(0.34532 0.199778 0)
(0.310963 0.0930359 2.07578e-19)
(0.988198 0.915752 0)
(1.05342 0.76547 0)
(1.07737 0.705591 -2.05023e-19)
(1.10722 0.608609 0)
(1.15637 0.393416 5.47005e-20)
(0.957537 -0.0088254 0)
(0.962399 -0.0101008 0)
(0.901521 -0.00799182 0)
(0.984173 -0.00917264 0)
(0.974653 -0.00937607 0)
(0.937064 -0.00636046 0)
(1.00019 0.00233684 0)
(1.0009 0.00140271 0)
(0.99991 0.00085451 0)
(0.0350125 2.06553 4.58302e-19)
(0.120827 1.75509 0)
(0.0160721 2.18141 7.16947e-19)
(0.0516805 1.8671 -6.06419e-19)
(0.106304 1.18121 -2.39633e-19)
(0.0464226 1.06727 0)
(0.141917 1.0255 0)
(0.00588633 0.895722 0)
(0.018301 0.703442 0)
(-0.00516797 2.23438 -1.27492e-21)
(0.0268323 2.00399 0)
(-0.00662686 2.23707 -5.83151e-20)
(0.021187 2.00204 1.04587e-19)
(0.00395984 0.87118 0)
(0.0101534 0.849913 0)
(0.00960428 0.669695 0)
(-0.0052167 0.802516 0)
(0.0030628 0.583265 0)
(0.935749 0.00898522 0)
(0.845974 -0.0152421 0)
(0.925661 -0.000171957 0)
(0.840397 -0.0127438 0)
(0.812065 0.00102907 0)
(0.901469 0.0200285 0)
(0.877677 0.0241917 0)
(0.788739 -0.000957466 0)
(0.00562121 3.06471 -8.90054e-21)
(0.0166267 3.05788 0)
(0.0146606 2.96905 0)
(0.00858704 2.87621 0)
(0.925599 3.96909 0)
(1.24023 3.30168 9.29474e-19)
(0.06994 3.07394 0)
(-0.0284921 2.90545 0)
(0.0334307 1.43216 0)
(-0.0111391 1.74965 0)
(0.0255885 1.60645 0)
(-0.027771 2.56396 -4.03496e-22)
(-0.0152047 2.25184 0)
(-0.0210292 2.40257 0)
(0.0157764 1.9304 -9.13022e-22)
(-0.00578527 2.21888 2.01763e-20)
(-0.0137683 2.1801 2.13163e-20)
(0.00984405 1.90707 0)
(0.465339 0.12087 5.54879e-19)
(0.366154 0.00560015 -5.44964e-19)
(0.259847 1.57552 0)
(0.270505 0.736097 -3.20911e-19)
(0.177606 1.66108 -1.07696e-18)
(0.227459 1.20281 1.07961e-18)
(0.902218 0.00649783 0)
(0.967492 0.0110535 0)
(0.974618 0.010788 0)
(0.923432 0.00649581 0)
(-0.00615091 0.788137 0)
(-0.0139194 0.791493 0)
(-0.0104989 0.585065 0)
(0.239217 0.194825 6.69522e-19)
(0.200087 0.182474 -7.93278e-19)
(0.204419 0.141334 0)
(1.08492 0.0819973 2.99236e-20)
(1.0678 0.036919 0)
(1.004 0.0383495 0)
(0.900033 -0.00721381 0)
(0.497409 0.10118 0)
(0.541881 0.0848554 -2.51741e-18)
(0.399628 0.00249612 9.42695e-19)
(0.00901375 2.98081 7.61948e-19)
(-0.0330816 2.86568 4.64537e-20)
(0.0036887 3.05021 -1.88083e-20)
(0.0201621 3.04342 6.69088e-19)
(-0.0150115 2.99657 3.12192e-20)
(-0.012974 2.94948 -1.25548e-22)
(-0.0172703 3.01193 -5.76405e-19)
(0.0148728 3.02378 4.17017e-19)
(0.00737044 3.03681 -6.61925e-19)
(0.932741 -0.00175459 0)
(0.938622 -0.00360041 0)
(0.844482 -0.00925624 0)
(0.956707 0.0117558 0)
(0.942998 0.0130108 0)
(0.88175 0.00605147 0)
(0.917979 0.0164762 0)
(0.926464 0.0147176 0)
(0.838601 0.00360354 0)
(0.719949 1.41064 2.84167e-20)
(0.753573 1.51987 0)
(0.18677 0.324538 7.33612e-20)
(0.218937 0.658228 5.93134e-19)
(0.259615 0.719026 -3.45171e-19)
(0.265142 0.533398 6.86391e-19)
(0.337075 0.790114 1.61376e-18)
(0.134193 0.221455 3.79215e-19)
(0.391987 0.179049 7.78367e-19)
(0.37214 0.192728 2.02808e-19)
(0.320198 0.0729559 3.87218e-19)
(1.14738 0.451717 2.49908e-20)
(1.16599 0.248417 1.96186e-20)
(0.00710444 2.23028 2.82292e-19)
(0.0472558 1.93519 0)
(0.964803 0.0283616 0)
(0.939058 0.0131651 0)
(0.863506 -0.0185899 0)
(0.0112329 3.07445 0)
(0.0197242 2.944 1.23081e-18)
(0.0164603 2.95636 0)
(0.00629725 2.85067 -1.22108e-18)
(0.00617385 3.09084 2.99244e-19)
(0.00727223 3.08255 0)
(0.786714 1.82266 -1.57131e-19)
(1.248 2.50087 3.9893e-19)
(0.768931 1.96246 -1.23018e-18)
(0.0202343 2.98155 -6.61646e-19)
(0.0358941 3.0018 0)
(-0.0336391 2.87876 0)
(-0.00490406 2.21269 -1.32591e-20)
(-0.00531495 2.23382 -4.25445e-20)
(0.0152825 1.96092 -9.71799e-21)
(0.275945 1.38324 1.04421e-18)
(0.229166 0.524038 -7.16154e-19)
(0.0633041 1.98929 7.94199e-19)
(0.13596 1.87691 -9.40678e-19)
(0.180497 1.49607 9.19409e-20)
(0.00166866 3.11897 -1.87453e-18)
(0.0154669 3.11823 2.0136e-18)
(-0.00892926 2.98122 8.29387e-19)
(-0.00363969 2.97758 -7.86927e-19)
(-0.0210744 2.88137 -8.4471e-19)
(0.00867743 3.10003 -2.22887e-18)
(0.00241337 3.10575 2.18083e-18)
(0.27367 0.681592 0)
(0.238265 0.671963 -1.22165e-18)
(0.0956022 0.22255 5.41634e-19)
(0.351384 0.916084 1.1263e-18)
(0.189606 0.266411 -1.73658e-18)
(1.16534 0.168767 7.65897e-20)
(1.16771 0.302165 0)
(1.15346 0.117775 -2.30529e-20)
(-0.0024686 2.24788 -1.93635e-21)
(0.00154448 2.23893 0)
(0.0332719 1.97008 0)
(0.33982 1.29144 -3.75866e-19)
(0.36944 1.12846 -8.11897e-19)
(0.203161 0.365387 1.44617e-18)
(1.00587 -0.0108594 0)
(1.00766 -0.00765298 5.24142e-19)
(0.0285939 1.31343 0)
(0.00253085 1.27535 0)
(1.00221 0.00350322 1.80095e-21)
(1.00366 0.00945069 1.06964e-18)
(-0.020344 2.54636 5.10946e-22)
(-0.028195 2.58852 0)
(0.0359617 3.17876 4.45725e-19)
(0.395424 3.49128 0)
(1.1535 0.647925 -7.46523e-20)
(1.01294 0.0130534 -2.15268e-21)
(1.02127 -0.0104028 0)
(1.00169 0.000109931 7.54139e-23)
(0.101357 1.35778 0)
(0.146586 2.57498 0)
(0.0238489 1.29282 0)
(0.00205612 2.63042 5.90104e-20)
(-0.0229994 2.58962 2.67798e-20)
(1.00139 0.0287243 2.44367e-21)
(1.06156 0.0034033 0)
(1.09442 0.0228158 0)
(-0.0115745 1.7752 0)
(-0.0268209 2.59227 0)
(-0.000656961 1.28409 0)
(0.294012 1.47077 -1.44279e-19)
(1.01127 -0.00965362 0)
(1.00939 -0.0149354 0)
(1.00237 0.000728235 6.69752e-19)
(1.00548 -0.00482305 -7.87206e-19)
(1.00118 -0.000995323 0)
(0.00374588 1.49316 0)
(0.025354 1.38005 0)
(0.0288708 1.45467 0)
(0.00379933 1.27177 0)
(0.0114377 1.23813 0)
(0.00718452 1.21548 0)
(1.03458 -0.00641055 0)
(1.02048 0.0157014 -9.13441e-22)
(0.798759 1.26527 2.34058e-19)
(1.00223 0.000283665 -6.67174e-19)
(1.00406 0.00524747 7.80882e-19)
(1.00117 0.00206332 0)
(1.0128 0.0102763 6.64084e-19)
(1.00802 0.00829538 -8.04207e-19)
(1.00857 0.0146865 0)
(-0.0297905 2.61956 0)
(-0.0304086 2.59784 -8.74174e-21)
(-0.0299426 2.61205 7.38189e-21)
(1.22698 0.256322 6.47424e-19)
(1.15623 0.0837517 0)
(0.0437397 3.07718 -9.76558e-19)
(0.0656007 2.85374 -7.09835e-20)
(0.141843 3.19293 1.48902e-18)
(0.136663 3.22195 -2.22318e-19)
(0.134978 3.23423 0)
(0.0204781 3.13768 2.53242e-19)
(0.0767449 3.16034 9.63733e-19)
(0.0692821 3.18645 -4.76918e-19)
(0.0230731 3.12952 0)
(0.640168 0.289128 0)
(0.565751 0.341333 0)
(1.11931 0.684119 1.84392e-19)
(1.11471 0.811361 -1.85112e-19)
(1.18144 0.568559 0)
(1.21228 0.504262 0)
(1.01614 0.0132851 -1.23816e-18)
(1.01498 0.01425 1.55421e-18)
(1.02522 -0.00991624 0)
(1.02329 -0.0119057 0)
(1.00644 0.00255568 0)
(1.01042 0.00369146 0)
(1.00461 0.00181495 0)
(1.00978 0.00616837 0)
(1.00786 0.00596983 0)
(1.00451 0.0046662 0)
(0.089351 1.35419 0)
(0.084071 1.3266 0)
(0.122444 1.39219 0)
(0.13557 1.40244 0)
(0.146624 2.59919 0)
(0.186604 2.66631 -4.48495e-19)
(0.102084 2.65615 0)
(0.0876687 2.65996 2.22417e-19)
(0.0412809 2.68337 -1.92693e-19)
(0.0299535 1.30892 0)
(0.0180931 1.24427 0)
(0.0233064 1.32317 0)
(0.0284518 1.26309 0)
(0.00420367 1.98266 -2.22324e-20)
(-0.021118 2.61755 9.64444e-21)
(-0.00801385 2.67341 4.71711e-20)
(-0.0183173 2.69189 0)
(-0.0253216 2.62344 -6.1528e-20)
(-0.0250254 2.61822 -2.52603e-20)
(0.0138246 1.9821 1.92821e-20)
(-0.00884881 2.40705 -1.29422e-20)
(-0.0133286 2.42676 -5.34897e-20)
(1.01125 0.0365547 1.26186e-18)
(1.00707 0.0162005 -1.55842e-18)
(1.00256 0.04314 -1.26231e-18)
(0.980913 0.0223871 1.60857e-18)
(1.06289 0.00726592 0)
(1.04841 -0.00870735 0)
(1.09192 0.0326992 0)
(1.07256 0.0115708 0)
(1.07037 -0.000561215 0)
(1.13699 0.0795013 0)
(1.10861 0.0420328 0)
(1.11162 0.0301487 0)
(-0.0179829 2.44471 -2.12098e-21)
(-0.0229793 2.0101 0)
(-0.0133475 2.22662 0)
(-0.0258784 2.61307 1.04733e-21)
(-0.0232671 2.62032 -4.53013e-22)
(-0.00130183 1.57222 -2.39183e-22)
(0.00889011 1.51604 2.41068e-22)
(-0.00118703 1.38602 0)
(0.00625701 1.39735 0)
(0.010361 1.39422 0)
(-0.00598538 1.28738 0)
(0.00727724 1.22122 0)
(0.378353 1.48589 2.29279e-19)
(0.417608 1.49022 1.29864e-19)
(0.596605 2.44671 -2.43905e-19)
(0.401784 2.54129 7.20487e-19)
(0.350725 2.06568 7.94466e-20)
(1.02096 -0.00820106 0)
(1.01545 -0.00979698 0)
(1.01489 -0.0155313 0)
(1.00745 -0.00118787 0)
(1.00493 -0.000955026 0)
(1.00776 -0.00476166 0)
(1.00924 -0.00371323 0)
(1.01417 -0.00448236 0)
(1.02119 0.0160812 1.21242e-18)
(1.01801 0.015729 -1.55392e-18)
(1.02163 0.0180255 -1.22093e-18)
(1.01952 0.0167045 1.52867e-18)
(0.765244 1.31435 0)
(0.700888 1.36667 2.15277e-19)
(0.87478 1.211 7.01503e-20)
(0.917695 1.16298 -9.3299e-20)
(1.15714 2.60874 3.16242e-19)
(0.804028 0.111139 6.14698e-19)
(1.15929 0.104004 0)
(1.20487 0.186906 -5.2015e-19)
(1.18853 0.150012 -2.19849e-20)
(1.00396 0.1469 0)
(0.13574 2.96075 5.73823e-19)
(0.112965 2.86637 -1.23675e-18)
(0.0234155 2.37275 8.34234e-19)
(0.0909626 -0.0269979 -3.73119e-19)
(0.340207 3.42035 -1.97577e-19)
(0.194156 3.31296 0)
(0.237193 3.35496 2.57311e-19)
(0.245168 3.03398 -1.88379e-18)
(0.340055 3.19334 0)
(0.00673686 3.12094 4.89304e-20)
(0.0162324 3.12984 -5.75738e-19)
(0.0149027 3.12589 8.47382e-19)
(0.0359279 3.13994 0)
(0.0344477 3.15063 0)
(1.21597 2.60796 0)
(0.541303 0.834864 -5.46641e-19)
(1.0395 0.987525 1.70387e-20)
(0.975891 1.06491 0)
(0.828549 0.968116 -1.22819e-19)
(1.06422 0.879388 2.86443e-20)
(0.364042 0.389835 -9.60899e-19)
(0.6858 0.316576 -2.14601e-20)
(0.647315 0.229424 4.40625e-19)
(0.585856 0.372725 3.25844e-20)
(0.499713 0.339404 -1.31224e-18)
(0.657898 0.332704 0)
(0.703788 0.418588 7.48293e-19)
(0.711481 0.419729 0)
(0.621142 0.361292 0)
(0.586194 0.284373 0)
(0.803698 0.614522 4.43498e-19)
(1.22669 0.278362 -5.46864e-19)
(1.2238 0.413429 0)
(1.23348 0.354602 0)
(0.735636 0.186149 6.53534e-19)
(0.851032 0.535387 -4.07301e-19)
(0.747503 0.507002 7.21763e-19)
(0.951628 0.424187 -7.9439e-19)
(1.01967 0.0147349 8.33464e-19)
(1.01783 0.014219 -8.38344e-19)
(1.01594 0.0155486 0)
(1.036 -0.0059503 0)
(1.02963 -0.00859979 -7.85782e-19)
(1.0276 -0.0121391 7.78022e-19)
(1.02503 0.00990131 0)
(1.02364 0.0135245 0)
(1.01142 0.00406824 0)
(1.01427 0.00901371 0)
(1.01513 0.00395556 0)
(1.01423 0.00276688 0)
(0.0593883 1.33902 0)
(0.0626701 1.29685 0)
(0.144579 1.36668 -2.08858e-20)
(0.269679 1.46761 7.31167e-20)
(0.163123 1.43941 1.51453e-19)
(0.194078 1.44654 -2.4845e-19)
(0.165377 1.38969 0)
(0.131273 1.59336 -1.02718e-19)
(0.116035 1.56571 0)
(0.34876 2.01829 -1.15483e-19)
(0.345472 2.34983 6.50019e-19)
(0.18674 1.45057 8.95743e-20)
(0.262046 1.38136 1.15722e-20)
(0.197053 1.37017 -9.37136e-21)
(0.272526 1.32326 -1.28512e-19)
(0.240423 1.57676 0)
(0.261117 1.61651 1.32565e-19)
(0.0348523 2.26561 -4.34988e-20)
(0.0439625 2.67211 0)
(0.0673416 2.40302 1.66714e-19)
(0.0627396 2.42429 0)
(0.0710865 2.67308 -2.46295e-19)
(0.0512975 2.70202 0)
(0.0310724 1.40556 -3.54617e-21)
(0.0383526 1.45899 0)
(0.0317156 1.37679 0)
(0.0275027 1.37741 4.00095e-21)
(0.00137603 2.6581 -1.81952e-20)
(0.0305427 2.70158 2.21301e-19)
(0.0123494 2.72756 1.54378e-21)
(0.00538639 1.82983 2.05045e-20)
(-0.00170272 1.67556 8.61637e-21)
(0.0232069 1.29417 0)
(0.0241898 1.22433 0)
(0.0495624 1.57006 1.6817e-20)
(0.0303835 1.44343 1.17056e-20)
(0.0394957 1.50862 -1.4391e-20)
(0.041281 1.59467 0)
(-0.0308086 2.28075 4.10586e-20)
(-0.0338205 2.5605 -1.67534e-20)
(-0.0172709 2.45787 -2.91673e-21)
(-0.00413166 1.84804 -2.4856e-20)
(-0.0276295 2.50873 -8.47085e-21)
(-0.0228455 2.45077 4.23876e-20)
(1.0196 0.0207884 -8.28581e-19)
(1.01578 0.0263516 8.32058e-19)
(1.01495 0.0162968 0)
(1.01166 0.0687988 1.16908e-18)
(0.990688 0.0575902 -1.31148e-18)
(0.950648 0.0422762 1.46819e-18)
(1.01392 0.105748 -1.55918e-19)
(1.04225 -0.00600706 0)
(1.05035 -0.0018332 7.50998e-19)
(1.03859 -0.0100401 -7.52393e-19)
(1.06949 0.0409929 -4.4792e-20)
(1.06326 0.0224328 3.85242e-19)
(1.06271 0.0538536 0)
(1.0521 0.04829 -1.38577e-19)
(1.03268 0.0410963 0)
(1.02603 0.0370698 0)
(1.02783 0.0128514 0)
(1.02426 0.0156696 0)
(1.03986 0.0310274 2.85184e-19)
(1.03926 0.0260524 -6.29556e-19)
(1.05037 0.0324366 -3.02449e-19)
(1.04869 0.0322267 -3.32876e-19)
(1.07009 0.0628624 6.52034e-19)
(1.09445 0.0502772 0)
(1.10242 0.0938205 0)
(-0.0269436 2.28916 2.88208e-20)
(-0.0207356 2.02945 -2.98859e-21)
(-0.0213307 2.03302 0)
(-0.0303722 2.45327 -2.87321e-20)
(-0.0217066 2.412 5.03825e-21)
(-0.035645 2.48557 1.65822e-21)
(-0.0230102 2.63016 2.16344e-20)
(-0.0284274 2.57213 -2.22705e-21)
(-0.0227498 2.52489 7.18033e-21)
(-0.0199694 2.62353 -8.53804e-21)
(-0.0240769 2.62545 1.16147e-20)
(-0.013786 1.48282 -2.10774e-22)
(0.00530705 1.6188 4.18018e-21)
(0.365845 1.42817 -9.19433e-20)
(0.364551 1.36891 6.01551e-20)
(0.646383 1.41476 -2.08132e-19)
(0.515204 1.48062 -1.2661e-19)
(0.568964 1.45059 0)
(0.592312 2.42267 2.16045e-19)
(0.660152 2.41559 3.43929e-19)
(0.410413 2.51537 8.42368e-20)
(0.40346 2.54324 -6.50087e-19)
(0.511443 2.48832 6.3536e-19)
(0.551692 2.46048 0)
(0.48863 2.51553 -5.74344e-19)
(0.248648 2.59043 1.20141e-18)
(0.353597 2.56373 -8.17039e-20)
(0.284466 2.65208 -1.64788e-18)
(0.944101 2.38021 7.40374e-19)
(0.836243 2.38238 0)
(1.01098 0.000420461 2.71785e-20)
(1.01524 -0.00549798 -2.20651e-20)
(1.01764 -0.00363501 -4.03121e-19)
(1.01491 -0.000961426 4.04945e-19)
(1.01233 0.00104174 0)
(0.634327 1.28263 0)
(0.65407 1.18072 0)
(0.760029 1.09021 0)
(0.646933 1.14381 0)
(1.18662 2.62321 5.84172e-20)
(1.07461 2.36812 0)
(0.838741 2.18902 3.97647e-21)
(0.825377 2.44859 0)
(0.922511 2.53988 -4.41082e-19)
(0.957824 2.49585 2.93601e-19)
(0.815351 0.165797 0)
(0.779105 0.137254 1.67742e-19)
(0.923629 0.141276 9.75837e-19)
(0.839497 0.143581 -3.64609e-19)
(0.810722 0.0822661 -1.12339e-18)
(1.07709 0.228392 -9.47218e-19)
(0.994095 0.286274 -1.55771e-20)
(0.925303 0.28591 9.05085e-19)
(1.00198 0.217701 7.56972e-19)
(0.953176 0.184907 -1.29864e-18)
(0.91741 0.187175 1.62364e-19)
(0.952747 0.249181 -3.4786e-19)
(0.931047 0.212091 0)
(0.99204 0.180756 6.40954e-19)
(1.0426 0.182008 0)
(1.04039 0.207962 0)
(1.10623 0.116125 3.04162e-19)
(1.06636 0.170941 -1.4147e-20)
(1.07184 0.229551 -1.66247e-19)
(1.10397 0.198064 0)
(1.02272 0.04461 6.42805e-19)
(1.04101 0.0571713 8.02423e-19)
(1.03422 0.0434162 -6.37663e-19)
(1.04278 0.0636725 -5.37675e-19)
(1.0193 0.0714805 -8.22279e-19)
(0.987809 0.153695 0)
(0.99865 0.102041 0)
(0.967076 0.0647609 -5.22952e-19)
(0.916475 0.0878109 2.05412e-19)
(1.03795 0.101734 7.43539e-19)
(1.0676 0.119391 -8.7805e-19)
(1.07114 0.151153 7.83971e-19)
(1.02921 0.140144 0)
(1.07362 0.106571 0)
(1.05455 0.0884535 -3.5812e-19)
(1.04447 0.093542 -6.08565e-19)
(0.579758 1.07604 1.46437e-19)
(0.613147 1.41048 -4.80481e-20)
(1.1573 2.74079 -2.36834e-19)
(1.22389 3.0816 3.37997e-21)
(1.24933 2.72247 -1.54189e-19)
(1.27938 2.70631 -2.02599e-20)
(1.20741 2.34618 -1.01473e-20)
(1.21111 2.9856 -1.00886e-19)
(1.23042 2.95084 2.46562e-19)
(1.21489 3.23505 -1.40581e-19)
(1.3757 2.96689 1.94424e-19)
(1.36626 2.88496 0)
(0.546558 0.842833 -5.11469e-20)
(0.135645 1.25305 5.86745e-19)
(0.533781 0.443581 6.20748e-19)
(0.372225 0.194868 6.84725e-19)
(0.525347 0.373236 7.41094e-19)
(0.546695 0.471508 -1.19077e-18)
(0.54806 0.472562 9.7252e-19)
(0.495419 0.392866 -3.74774e-19)
(0.415425 0.324626 8.4947e-19)
(0.739846 0.247587 -3.74034e-19)
(0.705174 0.276738 0)
(0.683857 0.199562 9.13872e-21)
(0.731395 0.508227 3.93906e-19)
(0.703368 0.479067 -1.43562e-18)
(0.615591 0.468666 1.51385e-20)
(0.625542 0.457896 0)
(0.677765 0.730283 4.14169e-19)
(0.83053 0.773126 4.25137e-19)
(0.7541 0.854745 -4.96555e-19)
(0.873566 0.807855 -1.70013e-19)
(0.90402 0.851524 -4.30436e-20)
(0.911785 0.851951 4.40767e-20)
(0.846963 0.644664 -7.36196e-19)
(0.925829 0.702979 1.57966e-19)
(0.980806 0.716911 0)
(0.972108 0.692561 -2.16967e-19)
(1.02301 0.322865 2.2947e-19)
(1.14148 0.292646 3.17822e-19)
(1.06425 0.262858 3.87435e-19)
(1.01149 0.35591 -4.60863e-19)
(1.05675 0.420269 0)
(1.10921 0.404815 0)
(0.915222 0.354662 6.38165e-21)
(0.841094 0.286765 0)
(0.876229 0.281963 4.25647e-19)
(0.907363 0.291654 -4.47505e-21)
(0.944816 0.426856 2.21579e-18)
(0.902278 0.487082 5.7342e-19)
(0.905675 0.450366 -6.07887e-19)
(0.82283 0.433814 6.51205e-19)
(0.805884 0.428764 3.90418e-19)
(0.776194 0.412841 -3.83668e-19)
(1.02724 -0.000512704 6.7161e-19)
(1.02001 -0.000136344 0)
(1.01849 0.00079015 4.37616e-19)
(1.02152 -0.00184745 -9.91376e-19)
(1.02229 0.00424869 4.81725e-19)
(1.02042 0.011116 -1.00884e-18)
(1.02139 0.0105145 0)
(1.02068 0.0107947 -2.1018e-19)
(1.016 0.00763339 5.27267e-19)
(1.01673 0.0104013 -2.63071e-19)
(1.01743 0.00974583 1.93761e-19)
(0.0304975 1.31333 0)
(0.0344107 1.34943 0)
(0.0425057 1.317 0)
(0.0402292 1.27418 0)
(0.0704032 1.37675 1.86165e-20)
(0.0766197 1.34939 1.30778e-21)
(0.112535 1.50726 -3.04866e-20)
(0.0942683 1.35816 9.82539e-21)
(0.0345036 1.44826 -3.63251e-20)
(0.0380748 1.44098 2.83947e-20)
(0.0616225 1.36081 -8.07345e-21)
(0.0543609 1.36251 -4.40831e-22)
(0.0458765 1.33843 -2.64568e-22)
(0.0388542 1.35987 -3.35031e-21)
(0.10842 2.37315 -1.84431e-19)
(0.0973676 2.42014 0)
(0.172266 2.04846 1.20503e-19)
(0.111416 1.7107 5.37348e-20)
(0.230552 2.04431 -9.89211e-20)
(0.205748 2.43732 0)
(0.265871 2.38868 -6.33136e-19)
(0.30393 2.38665 4.49139e-19)
(0.231476 2.00433 -2.74794e-19)
(0.155139 2.16547 1.81035e-19)
(0.145137 2.27734 0)
(0.0205505 1.87274 -4.34519e-20)
(-0.000689739 2.4007 -9.53023e-20)
(0.00610454 2.15294 0)
(0.0131658 2.4614 -1.40021e-20)
(0.0282601 2.30534 3.34888e-20)
(0.0239558 1.39065 -6.45364e-22)
(0.0193457 1.37731 1.54044e-20)
(0.0193706 1.38045 -9.0677e-21)
(0.0252347 1.37879 2.10106e-22)
(0.0301535 1.4098 0)
(0.0162081 1.36118 0)
(0.000464299 1.28184 -6.67325e-21)
(0.0123079 1.35027 8.67024e-22)
(0.013514 1.35272 0)
(0.0143787 1.28157 -6.65817e-21)
(0.0127529 1.2112 1.30089e-20)
(1.0403 0.0111396 0)
(1.04633 0.00743 -7.04435e-20)
(1.03857 0.0206913 -5.07627e-19)
(1.04801 0.0196266 0)
(1.05168 0.0194265 0)
(1.03631 0.0111545 -6.64501e-21)
(1.03093 0.011042 8.14833e-19)
(1.03184 0.0159948 9.88211e-19)
(1.02586 0.0199725 0)
(1.0231 0.0203696 0)
(1.03519 0.0243586 5.06432e-19)
(1.02624 0.025766 0)
(1.02447 0.0258774 0)
(-0.0254884 2.02623 0)
(0.00669028 1.65051 -4.80297e-21)
(-0.00616067 1.76028 -2.01035e-20)
(0.00264619 1.36242 0)
(-0.0122656 1.55127 4.02632e-21)
(0.00252012 1.45001 -1.96e-21)
(0.00100945 1.37123 0)
(0.389195 1.66833 0)
(0.36655 1.29748 -1.11446e-19)
(0.301531 1.34173 0)
(0.420617 1.29525 5.89603e-20)
(0.466416 1.45595 0)
(0.447385 1.40126 9.46959e-22)
(1.03564 2.68728 -1.57822e-20)
(0.965426 2.41087 -9.30653e-19)
(0.915521 2.19176 1.0614e-18)
(0.849752 2.37479 2.46957e-19)
(0.847268 2.4979 0)
(0.917214 2.49434 0)
(0.927445 2.37347 0)
(0.906261 2.35983 -9.59344e-19)
(0.688654 2.46592 -4.12738e-19)
(0.801025 2.45611 -1.01284e-19)
(0.811632 2.43006 7.72062e-20)
(0.694507 2.39064 0)
(0.799355 2.38658 0)
(0.758018 2.39882 -3.74259e-19)
(0.769072 2.48746 0)
(0.614354 1.09899 0)
(0.484967 0.927366 -5.17378e-19)
(0.553585 0.961756 -3.28998e-20)
(0.521202 1.05548 0)
(0.522342 1.00531 7.76916e-19)
(0.777128 0.879818 -1.40221e-19)
(0.785245 1.0164 0)
(0.759641 0.97672 2.05055e-19)
(0.64571 1.03506 0)
(0.65056 0.94304 0)
(1.165 2.76257 -2.42153e-19)
(1.14276 2.82608 -1.04534e-19)
(0.932387 2.34635 1.12053e-19)
(0.900031 2.32421 -8.71969e-20)
(1.12981 2.73564 0)
(1.08309 2.70577 1.0497e-19)
(1.08972 2.48775 -3.26475e-19)
(0.983515 2.23582 -3.05471e-20)
(0.496092 1.35327 0)
(0.509794 1.07494 -1.29146e-19)
(0.563722 1.16602 0)
(0.858725 0.224187 0)
(0.786753 0.176048 0)
(0.727949 0.139301 0)
(0.855132 0.228834 -6.69968e-19)
(0.758659 0.212913 3.92664e-19)
(0.931836 0.074545 -4.24248e-19)
(0.947173 0.120628 0)
(0.926674 0.133554 1.81832e-19)
(0.86633 0.109274 7.29791e-19)
(0.837053 0.0669239 -4.56628e-19)
(1.162 3.36031 -7.15097e-19)
(1.20979 3.27965 0)
(1.16037 3.38832 -1.4753e-18)
(0.647914 3.5491 1.25317e-18)
(0.872687 3.11642 6.31067e-20)
(0.518053 0.849168 6.16282e-19)
(0.433588 0.844462 0)
(0.336935 0.480002 -1.56287e-19)
(0.455255 0.677904 8.86756e-19)
(0.537006 0.448206 -2.14482e-19)
(0.509913 0.505041 2.45351e-19)
(0.663466 0.528194 5.31156e-19)
(0.694089 0.552058 0)
(0.647161 0.608323 0)
(0.604193 0.548238 0)
(0.988827 0.600985 1.06955e-19)
(0.905848 0.536336 -5.57873e-19)
(0.93125 0.571088 4.26422e-19)
(0.966322 0.506011 -4.31478e-19)
(1.07003 0.478473 0)
(1.07778 0.569191 -1.08802e-19)
(0.846263 0.38589 -8.90322e-19)
(0.849355 0.373525 -1.10048e-18)
(0.795966 0.37821 6.9421e-19)
(0.792376 0.348747 -7.09909e-19)
(0.842387 0.307289 -5.54625e-19)
(0.794144 0.305377 6.80846e-19)
(1.02667 0.0056642 -5.15344e-19)
(1.02641 0.00588338 1.05083e-18)
(1.02931 -0.000131112 6.5129e-19)
(1.03334 0.000740078 -7.84535e-19)
(1.03355 0.00851615 0)
(1.03008 0.0090945 -1.27539e-18)
(0.0648774 1.64328 2.937e-20)
(0.0455009 1.57297 0)
(0.0879335 1.69635 1.8189e-19)
(0.0986307 1.67785 -1.61681e-19)
(0.0884562 1.52507 5.71992e-20)
(0.0860227 1.50635 0)
(0.0130098 1.6793 0)
(0.00105707 1.48205 -3.48571e-21)
(0.00114993 1.42331 3.13813e-21)
(-0.00646034 1.54256 4.42502e-21)
(0.00115315 1.88456 -8.11497e-21)
(-0.0151403 1.93676 6.85815e-21)
(0.495205 1.37148 -3.00428e-19)
(0.489346 1.37449 3.2926e-19)
(0.443555 1.29249 -5.56381e-20)
(0.432611 1.29168 9.30572e-21)
(0.625958 1.29899 0)
(0.543801 1.3868 7.78816e-20)
(0.559411 1.39507 -7.5793e-20)
(0.455014 1.27785 5.39862e-20)
(0.509118 1.233 0)
(0.561535 1.19935 0)
(0.654855 2.42448 6.06486e-19)
(0.669507 2.46108 1.30384e-18)
(0.715519 2.47316 -8.9826e-19)
(0.614846 2.44822 -2.10637e-19)
(0.559926 2.54076 2.94438e-19)
(0.509958 2.51415 -7.84601e-19)
(0.976125 2.38032 -5.94183e-19)
(1.01226 2.39407 0)
(0.922012 2.16997 -6.87984e-19)
(1.05325 2.68496 0)
(1.05543 2.67171 0)
(0.612621 2.27389 -1.23144e-19)
(1.04278 3.16316 1.29072e-19)
(0.913879 3.03309 -3.27202e-20)
(0.280625 0.908241 0)
(0.320379 0.76751 -3.25594e-19)
(0.481072 0.72433 -3.28282e-19)
(0.390356 2.02055 0)
(0.467227 2.78512 -4.39301e-20)
(0.423749 2.54903 0)
(0.693354 0.678087 -8.78554e-19)
(0.7754 0.678971 1.19897e-18)
(0.796197 0.621855 -1.18742e-18)
(0.674753 0.641072 -1.13662e-19)
(0.730184 0.594255 -4.71037e-19)
(1.00501 2.76624 -9.81456e-20)
(1.0423 2.82341 -1.75488e-19)
(0.640935 2.15064 6.77705e-19)
(0.597462 1.71549 -4.82205e-19)
(0.700513 1.9082 -4.17564e-19)
(0.990733 2.44961 -1.15111e-19)
(0.995553 2.44349 3.09254e-19)
(0.661762 1.84751 2.88745e-20)
(0.452918 1.3353 1.5056e-19)
)
;

boundaryField
{
    wall-4
    {
        type            noSlip;
    }
    velocity-inlet-5
    {
        type            fixedValue;
        value           uniform (1 0 0);
    }
    velocity-inlet-6
    {
        type            fixedValue;
        value           uniform (0 3 0);
    }
    pressure-outlet-7
    {
        type            zeroGradient;
    }
    wall-8
    {
        type            noSlip;
    }
    frontAndBackPlanes
    {
        type            empty;
    }
}


// ************************************************************************* //
