/*--------------------------------*- C++ -*----------------------------------*\
| =========                 |                                                 |
| \\      /  F ield         | OpenFOAM: The Open Source CFD Toolbox           |
|  \\    /   O peration     | Version:  4.0                                   |
|   \\  /    A nd           | Web:      www.OpenFOAM.org                      |
|    \\/     M anipulation  |                                                 |
\*---------------------------------------------------------------------------*/
FoamFile
{
    version     2.0;
    format      ascii;
    class       volVectorField;
    location    "63";
    object      U;
}
// * * * * * * * * * * * * * * * * * * * * * * * * * * * * * * * * * * * * * //

dimensions      [0 1 -1 0 0 0 0];

internalField   nonuniform List<vector> 
8800
(
(0.980138 -0.0915205 0)
(1.00234 -0.05873 0)
(0.999582 -0.0321288 0)
(0.999978 -0.0165219 0)
(1.00008 -0.00884186 0)
(1.0001 -0.00509799 0)
(1.00006 -0.0029945 0)
(1.00002 -0.00168306 0)
(1 -0.000780337 0)
(1.00006 -8.04047e-05 0)
(0.999985 0.00062934 0)
(0.999993 0.00138625 0)
(1.00002 0.00241011 0)
(1.00005 0.00400884 0)
(1.00004 0.00675114 0)
(0.999996 0.0120514 0)
(0.999799 0.0230947 0)
(0.999031 0.0431558 0)
(1.00724 0.0790251 0)
(0.775026 0.0478395 0)
(0.358994 -0.0147482 0)
(1.04651 -0.0724798 0)
(1.08847 -0.0660164 0)
(1.04944 -0.050909 0)
(1.02555 -0.0376876 0)
(1.01276 -0.0258818 0)
(1.00659 -0.0166845 0)
(1.00364 -0.0101917 0)
(1.00219 -0.00555693 0)
(1.00151 -0.00195907 0)
(1.00138 0.00125627 0)
(1.00173 0.00456771 0)
(1.0027 0.00845653 0)
(1.00475 0.013763 0)
(1.00898 0.0214328 0)
(1.01794 0.0319187 0)
(1.03579 0.0446878 0)
(1.06741 0.0581273 0)
(1.09468 0.069953 0)
(0.845612 0.0555088 0)
(0.21781 -0.00138002 0)
(1.07569 -0.050638 0)
(1.09942 -0.0489178 0)
(1.0644 -0.0399983 0)
(1.03993 -0.0325362 0)
(1.02384 -0.0253183 0)
(1.01405 -0.0180917 0)
(1.00853 -0.0114624 0)
(1.00566 -0.00569849 0)
(1.00448 -0.000401642 0)
(1.00478 0.00471258 0)
(1.00662 0.0100013 0)
(1.01057 0.0159636 0)
(1.01789 0.0227067 0)
(1.03048 0.0297994 0)
(1.05046 0.0368785 0)
(1.08002 0.0446483 0)
(1.10563 0.0519652 0)
(0.94322 0.0410225 0)
(0.217156 0.00140656 0)
(0.176681 -0.000627954 0)
(1.01945 -0.0354442 0)
(1.10574 -0.0413803 0)
(1.07801 -0.0363582 0)
(1.0525 -0.0303075 0)
(1.03528 -0.0244234 0)
(1.02341 -0.0186171 0)
(1.01558 -0.0126071 0)
(1.01096 -0.00649988 0)
(1.00891 -0.000253476 0)
(1.00942 0.00590774 0)
(1.01249 0.0118222 0)
(1.01846 0.0175786 0)
(1.02805 0.0231353 0)
(1.04223 0.0286703 0)
(1.06304 0.0344391 0)
(1.09382 0.040314 0)
(1.09437 0.0418252 0)
(0.830077 0.0227963 0)
(0.175564 0.000649263 0)
(0.154792 -0.000461682 0)
(0.958289 -0.0256664 0)
(1.10446 -0.0350742 0)
(1.08814 -0.0326158 0)
(1.06134 -0.0281009 0)
(1.0433 -0.0231279 0)
(1.03089 -0.0178116 0)
(1.02227 -0.0122542 0)
(1.0167 -0.00632882 0)
(1.01403 0.000136242 0)
(1.01464 0.00659961 0)
(1.01841 0.0124705 0)
(1.0252 0.017772 0)
(1.03534 0.0227547 0)
(1.05005 0.0275601 0)
(1.07197 0.0319844 0)
(1.10093 0.0358471 0)
(1.06957 0.0340348 0)
(0.742314 0.0144781 0)
(0.153117 0.000485601 0)
(0.140131 -0.000333481 0)
(0.901351 -0.0192971 0)
(1.09691 -0.0301699 0)
(1.0963 -0.0292791 0)
(1.06907 -0.0254865 0)
(1.05024 -0.0213884 0)
(1.03726 -0.0166717 0)
(1.02825 -0.0114033 0)
(1.02228 -0.00566241 0)
(1.01926 0.000707181 0)
(1.01984 0.00708428 0)
(1.02381 0.0127317 0)
(1.03084 0.0176934 0)
(1.04134 0.0221328 0)
(1.05667 0.0260586 0)
(1.07946 0.0295552 0)
(1.10319 0.0322509 0)
(1.03769 0.0282152 0)
(0.675375 0.0103382 0)
(0.13777 0.000361923 0)
(0.12942 -0.000251917 0)
(0.851565 -0.014896 0)
(1.08461 -0.0260607 0)
(1.10202 -0.0263897 0)
(1.07593 -0.0230566 0)
(1.05659 -0.0193868 0)
(1.04318 -0.0151708 0)
(1.03379 -0.0102862 0)
(1.02754 -0.00476567 0)
(1.02429 0.00141936 0)
(1.02475 0.00757955 0)
(1.02872 0.0129433 0)
(1.0359 0.0174801 0)
(1.04668 0.0213112 0)
(1.06238 0.0246367 0)
(1.08561 0.0276533 0)
(1.10236 0.0294439 0)
(1.00289 0.0236951 0)
(0.623178 0.00794298 0)
(0.126221 0.000286515 0)
(0.121264 -0.000192996 0)
(0.809168 -0.0117069 0)
(1.06937 -0.0224579 0)
(1.10558 -0.0237486 0)
(1.08221 -0.0208663 0)
(1.06241 -0.0174219 0)
(1.04872 -0.0134868 0)
(1.03908 -0.00892273 0)
(1.03255 -0.00367526 0)
(1.02906 0.0022783 0)
(1.02934 0.00817059 0)
(1.03326 0.0131802 0)
(1.0405 0.0172567 0)
(1.05137 0.0206097 0)
(1.06731 0.0235378 0)
(1.09092 0.0262366 0)
(1.09866 0.0271145 0)
(0.967637 0.0201451 0)
(0.58123 0.00638358 0)
(0.117047 0.000234982 0)
(0.11495 -0.000148264 0)
(0.773443 -0.00931928 0)
(1.05259 -0.0192848 0)
(1.10797 -0.0213064 0)
(1.08811 -0.018804 0)
(1.0679 -0.0155185 0)
(1.05395 -0.0117506 0)
(1.04411 -0.00738776 0)
(1.03735 -0.00237854 0)
(1.03359 0.0033146 0)
(1.03366 0.00889591 0)
(1.03744 0.0135249 0)
(1.04461 0.0171945 0)
(1.05549 0.020166 0)
(1.07166 0.0227637 0)
(1.09496 0.0251165 0)
(1.09211 0.0251859 0)
(0.933288 0.0174011 0)
(0.546521 0.00531579 0)
(0.109494 0.000199187 0)
(0.110028 -0.000112892 0)
(0.743465 -0.0074685 0)
(1.03534 -0.0164692 0)
(1.1094 -0.0190092 0)
(1.09371 -0.0168189 0)
(1.0732 -0.0136324 0)
(1.05897 -0.00996256 0)
(1.04894 -0.00572372 0)
(1.04196 -0.000884776 0)
(1.03792 0.00456067 0)
(1.03769 0.00982057 0)
(1.04124 0.01409 0)
(1.04827 0.0174005 0)
(1.05914 0.0200212 0)
(1.07553 0.0223249 0)
(1.09772 0.0243041 0)
(1.08312 0.0236065 0)
(0.900426 0.0153147 0)
(0.51698 0.00457167 0)
(0.103068 0.000174595 0)
(0.106208 -8.36656e-05 0)
(0.718412 -0.0059779 0)
(1.01847 -0.0139403 0)
(1.10999 -0.0167876 0)
(1.0992 -0.0148797 0)
(1.07842 -0.0117109 0)
(1.06389 -0.00807649 0)
(1.05363 -0.00390342 0)
(1.0464 0.000821882 0)
(1.04203 0.00605741 0)
(1.04144 0.0110135 0)
(1.04468 0.0149405 0)
(1.05153 0.0179043 0)
(1.06237 0.0201871 0)
(1.07894 0.0222296 0)
(1.09911 0.0238106 0)
(1.07204 0.022371 0)
(0.869177 0.0137726 0)
(0.491138 0.00405935 0)
(0.0974196 0.000158631 0)
(0.103298 -5.83879e-05 0)
(0.697641 -0.00472914 0)
(1.00258 -0.0116319 0)
(1.10991 -0.0146052 0)
(1.10453 -0.0129 0)
(1.08363 -0.00970099 0)
(1.06877 -0.00604556 0)
(1.05825 -0.00187737 0)
(1.05072 0.00278487 0)
(1.04595 0.00785917 0)
(1.04492 0.0125445 0)
(1.04779 0.0161464 0)
(1.05442 0.0187728 0)
(1.06519 0.0207188 0)
(1.08191 0.0225026 0)
(1.09949 0.0236736 0)
(1.05919 0.0214895 0)
(0.839387 0.012685 0)
(0.467896 0.00372181 0)
(0.0922867 0.000149407 0)
(0.101176 -3.51261e-05 0)
(0.680676 -0.00363392 0)
(0.988131 -0.00947398 0)
(1.10935 -0.0123774 0)
(1.10968 -0.010794 0)
(1.08892 -0.00754561 0)
(1.07371 -0.00380911 0)
(1.06287 0.000418274 0)
(1.05496 0.00507111 0)
(1.04971 0.0100362 0)
(1.04814 0.0144806 0)
(1.05056 0.0177622 0)
(1.05692 0.0200493 0)
(1.06761 0.0216546 0)
(1.08438 0.0231689 0)
(1.09887 0.023917 0)
(1.0447 0.020979 0)
(0.810736 0.0119808 0)
(0.446394 0.00352105 0)
(0.0874655 0.000145536 0)
(0.0997786 -1.21703e-05 0)
(0.667212 -0.00262276 0)
(0.975491 -0.00739247 0)
(1.10863 -0.0100435 0)
(1.11476 -0.00849692 0)
(1.09436 -0.00516168 0)
(1.07876 -0.0012827 0)
(1.06754 0.00306276 0)
(1.05918 0.00776933 0)
(1.05333 0.0126713 0)
(1.05111 0.0168939 0)
(1.05301 0.0198625 0)
(1.05904 0.0218019 0)
(1.06961 0.0230449 0)
(1.0864 0.0242976 0)
(1.09701 0.024588 0)
(1.02864 0.0208225 0)
(0.7828 0.0116033 0)
(0.425934 0.00343062 0)
(0.0827921 0.000145945 0)
(0.0990887 1.24692e-05 0)
(0.657092 -0.00164143 0)
(0.964969 -0.00531517 0)
(1.10807 -0.00754152 0)
(1.11993 -0.00594302 0)
(1.10004 -0.0024753 0)
(1.08402 0.00161221 0)
(1.07235 0.00614368 0)
(1.06342 0.0109723 0)
(1.05685 0.0158619 0)
(1.05385 0.0198838 0)
(1.05511 0.022533 0)
(1.06075 0.0241149 0)
(1.07118 0.0249775 0)
(1.08789 0.0259329 0)
(1.09385 0.0257149 0)
(1.011 0.0210565 0)
(0.755115 0.0115252 0)
(0.405934 0.0034363 0)
(0.078132 0.000150138 0)
(0.0991265 3.4804e-05 0)
(0.650282 -0.00064311 0)
(0.95687 -0.00316908 0)
(1.10802 -0.00479632 0)
(1.12533 -0.00303848 0)
(1.10604 0.00062366 0)
(1.08957 0.00499317 0)
(1.07736 0.00978666 0)
(1.06775 0.0148056 0)
(1.0603 0.0197311 0)
(1.05636 0.0235683 0)
(1.05685 0.0258849 0)
(1.06202 0.0270833 0)
(1.07228 0.0275502 0)
(1.08862 0.0281402 0)
(1.0892 0.0273155 0)
(0.991603 0.0217067 0)
(0.727151 0.0117284 0)
(0.385861 0.00352872 0)
(0.0733626 0.000157675 0)
(0.0999275 7.13532e-05 0)
(0.64686 0.000383089 0)
(0.95151 -0.000881027 0)
(1.10883 -0.00172556 0)
(1.13118 0.000311188 0)
(1.1125 0.00424931 0)
(1.09551 0.00898819 0)
(1.08265 0.0141288 0)
(1.07221 0.019413 0)
(1.0637 0.0244219 0)
(1.05863 0.0280828 0)
(1.05821 0.0300455 0)
(1.06282 0.0308392 0)
(1.07285 0.0308779 0)
(1.08846 0.0310495 0)
(1.08282 0.0294786 0)
(0.970199 0.022805 0)
(0.698332 0.0122042 0)
(0.36522 0.00370055 0)
(0.0683755 0.000168046 0)
(0.101704 0.000101363 0)
(0.647213 0.00154604 0)
(0.949237 0.00163274 0)
(1.11094 0.00178549 0)
(1.13766 0.00419705 0)
(1.11955 0.00854059 0)
(1.10196 0.0137477 0)
(1.08832 0.0193335 0)
(1.07686 0.0249631 0)
(1.06706 0.0301023 0)
(1.06063 0.03359 0)
(1.05915 0.0351597 0)
(1.06308 0.0355127 0)
(1.07284 0.0350887 0)
(1.08718 0.0347783 0)
(1.07441 0.0322932 0)
(0.946403 0.0243905 0)
(0.668037 0.0129495 0)
(0.34354 0.00394638 0)
(0.0630736 0.000180782 0)
(0.104511 0.000149053 0)
(0.651743 0.00298955 0)
(0.950552 0.00453594 0)
(1.11483 0.00583328 0)
(1.14501 0.00880306 0)
(1.12733 0.0136989 0)
(1.10906 0.0194918 0)
(1.09446 0.0256284 0)
(1.08175 0.0316816 0)
(1.07038 0.0369777 0)
(1.06234 0.0402519 0)
(1.05961 0.0413674 0)
(1.06274 0.0412547 0)
(1.07216 0.0403191 0)
(1.08457 0.0394637 0)
(1.06363 0.0358636 0)
(0.919708 0.0265019 0)
(0.635596 0.0139586 0)
(0.320373 0.00425851 0)
(0.0573735 0.000195106 0)
(0.108626 0.000211541 0)
(0.66094 0.00467465 0)
(0.955904 0.00796552 0)
(1.121 0.0106057 0)
(1.15351 0.0143213 0)
(1.13607 0.0199464 0)
(1.11696 0.0264649 0)
(1.10118 0.0332757 0)
(1.08692 0.0398316 0)
(1.07366 0.0452962 0)
(1.06372 0.0483018 0)
(1.05955 0.0488923 0)
(1.06173 0.0482424 0)
(1.07072 0.0467219 0)
(1.08071 0.0452634 0)
(1.05001 0.0402957 0)
(0.889454 0.0291657 0)
(0.60028 0.0152158 0)
(0.295293 0.00462419 0)
(0.0512106 0.00020981 0)
(0.11439 0.000295362 0)
(0.675533 0.00676534 0)
(0.965929 0.0121234 0)
(1.13001 0.0163438 0)
(1.16351 0.0210187 0)
(1.14601 0.0275964 0)
(1.12585 0.0350094 0)
(1.10858 0.042624 0)
(1.09241 0.0497361 0)
(1.07685 0.055335 0)
(1.06469 0.0579697 0)
(1.05879 0.0579005 0)
(1.05994 0.0566556 0)
(1.06847 0.0544978 0)
(1.07536 0.0523114 0)
(1.03294 0.0456727 0)
(0.854846 0.0323868 0)
(0.561343 0.0166848 0)
(0.267944 0.00502167 0)
(0.0445542 0.000223261 0)
(0.122306 0.000416532 0)
(0.696496 0.00950646 0)
(0.981503 0.0173149 0)
(1.14254 0.0233951 0)
(1.1755 0.0293025 0)
(1.15746 0.0371287 0)
(1.13591 0.0456253 0)
(1.11672 0.0541488 0)
(1.09816 0.0618112 0)
(1.07985 0.0674129 0)
(1.06511 0.0694881 0)
(1.05726 0.0686092 0)
(1.0573 0.066642 0)
(1.06533 0.0637704 0)
(1.06818 0.0607452 0)
(1.01163 0.0520629 0)
(0.814941 0.0361305 0)
(0.518052 0.0182961 0)
(0.23808 0.00541731 0)
(0.0374205 0.000233234 0)
(0.133096 0.000587979 0)
(0.725066 0.0132675 0)
(1.00379 0.0240186 0)
(1.15936 0.0323062 0)
(1.19008 0.039771 0)
(1.17077 0.0492094 0)
(1.14731 0.0589687 0)
(1.12561 0.0684452 0)
(1.10406 0.0765392 0)
(1.08248 0.0818948 0)
(1.06481 0.0831294 0)
(1.05484 0.0812362 0)
(1.05366 0.078398 0)
(1.06101 0.0746517 0)
(1.0585 0.0706043 0)
(0.98505 0.0594561 0)
(0.768694 0.0402832 0)
(0.469789 0.0199291 0)
(0.205659 0.00576164 0)
(0.0298928 0.000236952 0)
(0.148021 0.000864759 0)
(0.763276 0.0186617 0)
(1.03446 0.0330245 0)
(1.18143 0.0440242 0)
(1.20801 0.0535363 0)
(1.18625 0.0648575 0)
(1.16009 0.0759863 0)
(1.13508 0.0862899 0)
(1.10984 0.094483 0)
(1.08446 0.0991416 0)
(1.06356 0.0991162 0)
(1.05136 0.095931 0)
(1.04892 0.0920631 0)
(1.05513 0.087447 0)
(1.04561 0.0819445 0)
(0.951928 0.0677119 0)
(0.715057 0.0446241 0)
(0.416224 0.0214027 0)
(0.17096 0.00599015 0)
(0.0221433 0.000231306 0)
(0.169284 0.00134326 0)
(0.814397 0.0268588 0)
(1.07607 0.0459017 0)
(1.20985 0.060408 0)
(1.22988 0.0726742 0)
(1.20399 0.0857152 0)
(1.17399 0.0980113 0)
(1.14471 0.108623 0)
(1.11506 0.11624 0)
(1.08539 0.119481 0)
(1.06105 0.117611 0)
(1.04662 0.112782 0)
(1.04295 0.107703 0)
(1.04766 0.102197 0)
(1.02845 0.0947325 0)
(0.910673 0.0765182 0)
(0.653232 0.0487994 0)
(0.357647 0.0224878 0)
(0.134756 0.00603277 0)
(0.0144547 0.000212814 0)
(0.200292 0.00240481 0)
(0.884175 0.0405643 0)
(1.1323 0.0665001 0)
(1.2451 0.0850248 0)
(1.25545 0.0999023 0)
(1.22338 0.114121 0)
(1.1882 0.126622 0)
(1.15368 0.136416 0)
(1.11898 0.142344 0)
(1.08473 0.143162 0)
(1.05694 0.13869 0)
(1.04039 0.131779 0)
(1.0356 0.125262 0)
(1.03822 0.118674 0)
(1.00559 0.108676 0)
(0.859443 0.0852433 0)
(0.583217 0.0523032 0)
(0.295684 0.0230062 0)
(0.0987143 0.00587361 0)
(0.00732014 0.000180983 0)
(0.242544 0.00866182 5.09616e-20)
(0.976734 0.0679044 4.44204e-20)
(1.20091 0.100996 -1.54745e-20)
(1.28407 0.121474 0)
(1.28192 0.138791 -3.89764e-34)
(1.24227 0.15237 5.68471e-21)
(1.20115 0.163319 -1.01564e-20)
(1.16087 0.170892 0)
(1.12078 0.174047 2.06788e-34)
(1.08168 0.17164 -1.23896e-20)
(1.05023 0.164079 0)
(1.03142 0.154896 -1.46362e-20)
(1.0257 0.14707 -4.31275e-20)
(1.02549 0.140227 -2.03582e-20)
(0.973231 0.126292 -6.11782e-21)
(0.792341 0.0954793 -3.63304e-21)
(0.499766 0.0555881 0)
(0.228628 0.0233473 2.53901e-21)
(0.0628437 0.00581624 2.99753e-21)
(0.000712415 0.000158684 5.40625e-20)
(0.272158 0.0241803 3.81252e-20)
(1.05313 0.110619 5.38761e-22)
(1.25751 0.150149 4.16465e-21)
(1.31885 0.170829 0)
(1.30512 0.187961 -1.9901e-20)
(1.25844 0.199349 -2.25182e-20)
(1.21141 0.207967 -1.02787e-20)
(1.1653 0.213029 -3.63271e-20)
(1.11959 0.213359 0)
(1.0752 0.207768 5.27418e-20)
(1.03956 0.197193 5.21555e-20)
(1.01819 0.185721 1.54585e-20)
(1.01043 0.176051 5.62373e-20)
(1.00231 0.166724 7.89343e-20)
(0.922628 0.146942 0)
(0.70219 0.106359 1.11025e-19)
(0.401949 0.0585654 1.5915e-19)
(0.159017 0.0229804 1.76697e-19)
(0.0269829 0.00452403 -2.0197e-19)
(-0.00607356 -0.000491609 -3.80463e-21)
(0.273185 0.040025 0)
(1.10136 0.165979 6.90286e-21)
(1.29554 0.210629 0)
(1.34582 0.230757 -2.64496e-20)
(1.32327 0.244824 0)
(1.2707 0.252342 -4.44518e-20)
(1.21814 0.257214 2.10398e-20)
(1.1665 0.258665 -7.33098e-20)
(1.11542 0.255321 -1.58027e-21)
(1.06597 0.245933 2.73147e-20)
(1.02634 0.231919 1.1449e-19)
(1.00245 0.217879 -2.3193e-22)
(0.992327 0.206183 -4.08117e-20)
(0.976201 0.194048 -7.41958e-20)
(0.877026 0.167538 8.77126e-20)
(0.638374 0.116782 -1.55236e-19)
(0.345924 0.0614755 -2.04775e-20)
(0.124133 0.0224671 0)
(0.00985152 0.00258671 -1.06325e-23)
(-0.0095346 -0.00135148 0)
(0.266745 0.0537326 9.468e-20)
(1.12729 0.224624 -4.55254e-20)
(1.3189 0.275554 -3.40993e-20)
(1.36365 0.295852 1.26043e-20)
(1.33498 0.306012 -2.11325e-20)
(1.27797 0.309 9.32363e-20)
(1.22085 0.30945 4.39456e-20)
(1.16443 0.306654 0)
(1.10855 0.299091 -1.37465e-19)
(1.05444 0.285436 0)
(1.01104 0.267642 -6.01168e-20)
(0.98467 0.2508 -7.39647e-20)
(0.972166 0.236817 -4.43938e-20)
(0.949612 0.221299 -5.3825e-20)
(0.839615 0.188257 0)
(0.59752 0.12882 0)
(0.317344 0.0669292 -1.33125e-19)
(0.107901 0.0231423 2.62744e-20)
(0.00088517 0.00070993 -1.53999e-20)
(-0.0119135 -0.00234804 -1.80106e-20)
(0.259059 0.0658378 -4.08049e-20)
(1.13857 0.283095 0)
(1.33164 0.341378 7.10217e-20)
(1.3733 0.362336 3.5798e-20)
(1.34035 0.368672 4.86264e-20)
(1.2801 0.367106 0)
(1.2194 0.363024 4.31908e-20)
(1.15903 0.355792 8.12212e-20)
(1.09902 0.343795 7.05398e-20)
(1.04072 0.32566 1.28478e-19)
(0.993801 0.303907 0)
(0.964988 0.284103 -1.5946e-19)
(0.950129 0.267695 -9.58664e-20)
(0.922747 0.248873 -5.66401e-20)
(0.808528 0.210052 3.45909e-19)
(0.571834 0.143085 4.1056e-20)
(0.304617 0.0748358 1.9277e-19)
(0.103783 0.0253111 -9.12468e-19)
(-0.00172213 -0.000531956 5.39452e-19)
(-0.013146 -0.00326973 -6.4993e-19)
(0.251649 0.0767475 -2.32231e-20)
(1.14045 0.339531 7.50498e-21)
(1.33666 0.40619 -8.00127e-21)
(1.37636 0.428315 -3.73456e-20)
(1.34032 0.431061 -4.17018e-20)
(1.27766 0.425124 1.80281e-21)
(1.21412 0.416669 -4.67721e-20)
(1.15049 0.405076 8.41435e-20)
(1.08691 0.388671 -1.51803e-19)
(1.02489 0.366036 0)
(0.974723 0.340251 -7.23434e-20)
(0.943516 0.317379 -1.6072e-21)
(0.926364 0.298497 -1.04851e-19)
(0.895623 0.276513 0)
(0.781765 0.232701 -7.49423e-20)
(0.555116 0.159356 -1.77676e-19)
(0.301538 0.0850458 4.72673e-19)
(0.107067 0.0293576 -4.65889e-19)
(0.000705016 -0.000520139 6.61295e-19)
(-0.0130951 -0.00391592 -6.87119e-19)
(0.24537 0.0868106 -4.15619e-22)
(1.13648 0.393276 -3.59996e-21)
(1.3361 0.468997 -2.37087e-20)
(1.37426 0.492579 1.54233e-20)
(1.33596 0.492135 -2.10928e-20)
(1.27147 0.482122 0)
(1.20565 0.46955 -4.38551e-20)
(1.1393 0.453799 -8.82263e-20)
(1.07264 0.433141 -7.90233e-20)
(1.00727 0.406109 0)
(0.954078 0.376322 -7.5203e-20)
(0.920562 0.35042 -9.28645e-20)
(0.901249 0.329138 1.13764e-19)
(0.868155 0.304217 -6.89098e-20)
(0.757214 0.255839 -3.27556e-19)
(0.542313 0.177129 1.94233e-19)
(0.302259 0.0968393 5.75282e-20)
(0.113924 0.0350952 0)
(0.00638022 0.000946917 -6.40066e-19)
(-0.0119884 -0.00416151 -2.34858e-20)
(0.240335 0.0963399 -8.16827e-23)
(1.12897 0.444147 1.07144e-21)
(1.33148 0.529333 1.13507e-20)
(1.36825 0.554438 5.4572e-20)
(1.32822 0.551234 -7.86775e-20)
(1.26235 0.537516 9.02226e-20)
(1.19467 0.52113 9.44861e-20)
(1.126 0.501486 -1.41061e-19)
(1.05662 0.476811 4.85157e-20)
(0.988195 0.445551 -3.16216e-19)
(0.932186 0.411897 -8.49189e-20)
(0.896479 0.383069 0)
(0.875118 0.359419 1.23476e-19)
(0.840278 0.331632 1.47893e-19)
(0.733226 0.279116 1.76682e-19)
(0.530228 0.195697 -2.11327e-19)
(0.303682 0.109602 -6.24818e-20)
(0.121505 0.0422517 7.34122e-20)
(0.0134114 0.00361501 0)
(-0.0102633 -0.00404545 -5.10537e-20)
(0.236467 0.1055 -2.18434e-20)
(1.11958 0.492252 6.94437e-21)
(1.32405 0.587047 -1.04809e-20)
(1.35934 0.613562 3.36392e-20)
(1.31791 0.607962 -3.59381e-20)
(1.25098 0.590905 -4.09041e-21)
(1.18178 0.571054 -1.03223e-19)
(1.11112 0.547835 -5.10341e-20)
(1.03929 0.519407 -1.37366e-19)
(0.968064 0.484148 3.19425e-22)
(0.909419 0.446792 -2.66436e-19)
(0.871646 0.415087 2.23999e-19)
(0.848403 0.389086 -1.3575e-19)
(0.812154 0.358565 1.63059e-19)
(0.708779 0.302056 0)
(0.516945 0.214405 -1.15017e-19)
(0.303024 0.122735 1.89765e-22)
(0.127987 0.0502202 -3.20803e-19)
(0.0204263 0.00709539 -4.70817e-20)
(-0.00824044 -0.00363485 0)
(0.233634 0.114438 0)
(1.10926 0.537817 1.0879e-20)
(1.31472 0.642403 -1.0931e-20)
(1.34835 0.669806 -3.12382e-20)
(1.30571 0.662105 -4.50878e-20)
(1.23795 0.642065 0)
(1.16751 0.619098 -4.73083e-20)
(1.09511 0.592633 -1.05102e-21)
(1.02108 0.56076 2.94582e-19)
(0.947219 0.521759 -4.35511e-20)
(0.886056 0.480824 -1.92394e-19)
(0.846322 0.446259 1.16643e-19)
(0.821354 0.417953 -2.23632e-21)
(0.783777 0.384656 1.73659e-19)
(0.683139 0.324319 1.0669e-19)
(0.50187 0.232391 -2.48455e-19)
(0.299328 0.135562 2.94022e-19)
(0.131814 0.0582004 8.70788e-20)
(0.0260818 0.0108127 3.58819e-19)
(-0.00631921 -0.00307038 -9.5831e-19)
(0.231775 0.123292 -1.27964e-20)
(1.09869 0.581029 1.37931e-20)
(1.30412 0.694797 -6.3743e-21)
(1.33589 0.723136 2.53061e-20)
(1.2922 0.713562 0)
(1.22379 0.690866 -4.23648e-20)
(1.1523 0.66513 1.58788e-19)
(1.07838 0.635755 1.12273e-19)
(1.00231 0.600754 0)
(0.92593 0.558283 -6.26871e-19)
(0.862314 0.513877 5.20708e-19)
(0.820716 0.476512 0)
(0.794154 0.445914 1.58802e-19)
(0.755254 0.409711 -2.23955e-21)
(0.656804 0.345236 -3.42013e-19)
(0.484718 0.248824 1.33692e-19)
(0.292552 0.147286 0)
(0.132317 0.0653695 4.7002e-19)
(0.0296254 0.0140921 0)
(-0.00477786 -0.00251618 -4.53896e-19)
(0.230728 0.132141 1.6976e-20)
(1.08832 0.622086 2.26022e-20)
(1.29271 0.744331 -5.01412e-21)
(1.32244 0.773556 0)
(1.27782 0.762312 -3.93507e-20)
(1.2089 0.737266 0)
(1.13654 0.709079 -1.57518e-19)
(1.06125 0.677126 -5.25155e-20)
(0.983272 0.639328 5.2212e-20)
(0.904454 0.593669 -3.10202e-19)
(0.838385 0.545942 5.38588e-20)
(0.794965 0.50584 0)
(0.766902 0.472823 -3.39407e-19)
(0.726641 0.433412 2.18578e-21)
(0.629678 0.36438 0)
(0.465378 0.263228 1.25376e-21)
(0.282684 0.157022 4.30112e-19)
(0.129555 0.0709008 -4.05924e-19)
(0.0307196 0.0164159 1.19741e-19)
(-0.00379134 -0.00212666 0)
(0.230175 0.140869 0)
(1.07841 0.661079 3.0241e-20)
(1.28075 0.791158 1.46039e-20)
(1.30843 0.821116 -2.52094e-21)
(1.26296 0.80838 -1.3836e-20)
(1.19363 0.781265 -9.57867e-20)
(1.12053 0.75093 5.89893e-20)
(1.044 0.716714 -6.17625e-20)
(0.964238 0.676447 2.32779e-19)
(0.883002 0.627905 -4.96445e-19)
(0.814431 0.577053 -4.0279e-21)
(0.76917 0.534212 -1.48901e-19)
(0.739601 0.498495 5.50839e-19)
(0.697902 0.455479 -2.59431e-21)
(0.601937 0.381393 -2.65615e-19)
(0.44421 0.275132 -4.72259e-19)
(0.270093 0.164502 0)
(0.124121 0.0744809 0)
(0.0298815 0.0175569 1.29224e-19)
(-0.00329111 -0.00196896 -7.58063e-20)
(0.230303 0.149597 2.73367e-20)
(1.06907 0.697892 -7.19151e-20)
(1.26854 0.835371 -1.5787e-20)
(1.29417 0.865888 0)
(1.2479 0.851827 -1.51687e-21)
(1.17826 0.822891 -8.8989e-20)
(1.10454 0.790691 1.43413e-19)
(1.02689 0.754513 2.44324e-19)
(0.94542 0.712105 3.03166e-19)
(0.861772 0.661007 -4.06148e-19)
(0.790605 0.607259 -4.48345e-19)
(0.743376 0.561588 3.98425e-19)
(0.712249 0.522846 0)
(0.669015 0.475703 -1.20866e-19)
(0.57356 0.396001 -2.87074e-19)
(0.421192 0.284278 -3.39428e-19)
(0.255161 0.169254 -4.00818e-19)
(0.116291 0.0759439 1.1838e-19)
(0.0274828 0.0175787 -6.95197e-20)
(-0.00318377 -0.00202285 2.95624e-22)
(0.230545 0.158268 0)
(1.06043 0.732975 0)
(1.25631 0.877072 2.49591e-21)
(1.27986 0.908006 0)
(1.23286 0.892744 3.33969e-20)
(1.163 0.862208 6.15125e-20)
(1.08877 0.82839 0)
(1.01011 0.790536 2.9224e-20)
(0.927009 0.746306 5.07003e-19)
(0.840948 0.693003 -9.342e-19)
(0.767038 0.636604 0)
(0.717628 0.587986 -2.56619e-19)
(0.68478 0.545891 -3.05156e-21)
(0.639845 0.49396 -2.3636e-21)
(0.544592 0.407941 3.07234e-19)
(0.396813 0.290382 -1.16672e-22)
(0.238415 0.171184 -8.63234e-19)
(0.106606 0.0753106 2.54604e-19)
(0.0238789 0.0165801 7.52134e-20)
(-0.00330608 -0.00220854 0)
(0.230908 0.166797 -1.18111e-19)
(1.05223 0.766405 -5.37739e-20)
(1.24414 0.916346 -6.04847e-20)
(1.26568 0.947594 2.86552e-20)
(1.21804 0.931206 4.4172e-20)
(1.14802 0.899279 0)
(1.07336 0.864074 8.77847e-20)
(0.993794 0.824808 -6.50468e-20)
(0.909156 0.779068 3.90876e-21)
(0.820694 0.723934 6.879e-20)
(0.743851 0.665142 5.81519e-19)
(0.691954 0.613533 -9.01092e-20)
(0.657101 0.567745 -3.39767e-19)
(0.610243 0.510106 -1.40753e-19)
(0.515059 0.416859 1.66659e-19)
(0.371688 0.293182 6.66257e-23)
(0.220379 0.170185 2.32383e-19)
(0.0958545 0.0726895 -5.47613e-19)
(0.0197004 0.0147515 6.4719e-19)
(-0.0035664 -0.00248991 9.4374e-20)
(0.231185 0.175066 4.61588e-20)
(1.04449 0.798276 -3.11779e-20)
(1.23218 0.953292 6.23336e-21)
(1.25174 0.984785 2.70063e-20)
(1.20355 0.967326 -2.68182e-21)
(1.13345 0.934179 -1.08681e-19)
(1.05846 0.897794 2.5861e-20)
(0.978081 0.85735 -2.71765e-19)
(0.891993 0.810395 -5.60742e-19)
(0.801142 0.753807 -5.58043e-19)
(0.72118 0.692944 0)
(0.666396 0.638434 -3.95616e-19)
(0.629098 0.588565 4.89745e-19)
(0.579926 0.523999 0)
(0.48486 0.422376 -3.57019e-19)
(0.346366 0.292282 2.12193e-19)
(0.202351 0.166117 -2.49777e-19)
(0.0852921 0.068406 -2.94504e-19)
(0.0156515 0.0124779 -5.21063e-19)
(-0.00385066 -0.00281678 -4.06247e-19)
(0.231813 0.183207 -5.3468e-20)
(1.03705 0.828576 3.33883e-20)
(1.22047 0.987985 7.32764e-20)
(1.23814 1.01966 4.49024e-20)
(1.1895 1.0012 9.90092e-21)
(1.11939 0.966997 -5.9818e-20)
(1.04415 0.929601 8.6166e-20)
(0.963054 0.888207 -2.80137e-19)
(0.875607 0.840311 -3.32712e-19)
(0.782414 0.782641 5.8522e-19)
(0.69915 0.720089 1.27925e-18)
(0.641026 0.662914 0)
(0.600652 0.608525 0)
(0.548536 0.535641 -1.62028e-19)
(0.453651 0.424127 0)
(0.321027 0.286862 4.55923e-19)
(0.185634 0.158183 5.36765e-19)
(0.0768957 0.0624195 0)
(0.012955 0.0101281 0)
(-0.00405271 -0.00309649 4.36277e-19)
(0.232112 0.190924 6.22432e-20)
(1.02993 0.857298 4.98605e-20)
(1.20908 1.02055 5.39247e-20)
(1.22495 1.05233 -4.96054e-20)
(1.17596 1.03294 3.39074e-21)
(1.10588 0.997808 6.26835e-20)
(1.03049 0.959559 -1.18789e-19)
(0.948779 0.917407 -4.86376e-22)
(0.86008 0.868824 -5.08245e-21)
(0.764603 0.810434 -4.68804e-21)
(0.677905 0.746652 6.59323e-19)
(0.615957 0.687157 0)
(0.571714 0.627844 4.96196e-19)
(0.51569 0.54525 3.4599e-19)
(0.420692 0.421964 8.32246e-19)
(0.295177 0.275694 2.45529e-19)
(0.171597 0.143788 -2.88717e-19)
(0.0748361 0.0517778 -1.69569e-19)
(0.0174992 0.0066434 0)
(-0.00217608 -0.00254241 4.68766e-19)
(0.232727 0.198656 -1.43314e-19)
(1.0231 0.884542 0)
(1.19801 1.05103 6.68473e-20)
(1.2122 1.08286 -4.4482e-20)
(1.16298 1.06264 7.51104e-21)
(1.09299 1.0267 -6.87638e-20)
(1.01753 0.987724 2.32615e-19)
(0.935294 0.944985 -2.26437e-20)
(0.845456 0.895945 0)
(0.747787 0.837161 -6.47607e-19)
(0.657587 0.772672 -1.43543e-18)
(0.591344 0.711303 5.85469e-20)
(0.542354 0.646795 6.85162e-19)
(0.481125 0.553294 0)
(0.38484 0.41634 5.61603e-19)
(0.266549 0.257843 0)
(0.158288 0.117274 0)
(0.0837007 0.0225854 -1.83209e-19)
(0.0503227 -0.00861281 0)
(0.0275888 0.0109458 1.25584e-19)
(0.232983 0.205804 -1.62692e-19)
(1.01652 0.910634 0)
(1.18724 1.07964 1.14169e-19)
(1.19984 1.11152 0)
(1.15051 1.09056 -8.4874e-21)
(1.08064 1.05396 0)
(1.0052 1.01441 1.17061e-20)
(0.922501 0.97128 3.87555e-20)
(0.831611 0.922033 4.18253e-20)
(0.731798 0.863208 -7.1137e-19)
(0.638006 0.798598 4.31986e-20)
(0.56695 0.735956 4.71124e-19)
(0.512167 0.666177 6.687e-19)
(0.443959 0.560433 9.00121e-20)
(0.344161 0.408719 4.40165e-19)
(0.230236 0.234256 0)
(0.133588 0.0744716 6.07669e-19)
(0.0717648 -0.0226683 -3.5468e-19)
(0.0425431 0.0436619 4.12812e-19)
(-0.0690889 0.43697 -4.86901e-19)
(0.233232 0.212764 1.36216e-19)
(1.00992 0.935352 2.06012e-19)
(1.17669 1.1067 0)
(1.18774 1.13873 4.97953e-21)
(1.13836 1.11728 3.26409e-20)
(1.06857 1.08026 8.48621e-20)
(0.993188 1.04041 8.15873e-20)
(0.909987 0.997223 0)
(0.818009 0.948171 2.78487e-19)
(0.715962 0.889874 -3.72791e-20)
(0.61825 0.825922 0)
(0.541517 0.762775 0)
(0.479214 0.68751 5.99569e-19)
(0.401847 0.567253 -2.78149e-19)
(0.295458 0.401027 -4.46182e-19)
(0.18137 0.208463 0)
(0.077834 0.0819649 3.06122e-19)
(0.00350887 0.438545 -3.53773e-19)
(0.0331491 1.89141 -1.94227e-19)
(0.0624231 2.81223 -2.4807e-19)
(0.233308 0.218907 -1.04114e-19)
(1.0035 0.958883 -2.67665e-19)
(1.16637 1.13219 6.97203e-20)
(1.17589 1.16437 5.11797e-20)
(1.12655 1.14258 0)
(1.05686 1.10533 4.79338e-20)
(0.98169 1.06541 1.12402e-19)
(0.897945 1.02239 -1.89002e-20)
(0.804921 0.973847 4.15718e-20)
(0.700665 0.916557 6.79687e-19)
(0.598919 0.854003 7.28239e-19)
(0.51597 0.791327 5.29399e-19)
(0.444336 0.710897 6.03772e-19)
(0.356363 0.572675 -6.54294e-19)
(0.244286 0.397043 -6.74247e-19)
(0.122104 0.250617 0)
(0.0430038 0.827774 0)
(0.100484 2.55099 1.69499e-19)
(0.101671 3.20189 0)
(0.104936 3.38841 4.04839e-19)
(0.235931 0.224561 0)
(0.997855 0.981432 0)
(1.15606 1.15595 0)
(1.16408 1.18829 1.66168e-20)
(1.11473 1.16619 3.21754e-20)
(1.04529 1.12902 2.17986e-20)
(0.970599 1.08932 7.2653e-20)
(0.886332 1.04666 -1.8521e-20)
(0.792313 0.998926 3.49711e-19)
(0.68594 0.943125 -9.06936e-21)
(0.58017 0.882743 1.44159e-18)
(0.490617 0.821433 -6.10683e-20)
(0.407703 0.737404 7.32989e-20)
(0.310159 0.57434 9.47271e-20)
(0.181106 0.409495 -5.23158e-21)
(0.0987947 0.960142 1.83565e-21)
(0.139387 2.72209 -8.95004e-19)
(0.147494 3.29263 -3.35777e-19)
(0.136611 3.42573 1.74223e-19)
(0.124189 3.44797 -1.9432e-19)
(0.15455 0.181737 6.3028e-20)
(0.986912 1.00575 0)
(1.14538 1.17817 -1.45103e-19)
(1.15282 1.21097 -1.46018e-19)
(1.1038 1.18895 9.49353e-20)
(1.03478 1.15204 -1.74325e-20)
(0.959867 1.11219 -7.54185e-20)
(0.875263 1.07019 2.08912e-19)
(0.780359 1.02358 -2.87381e-19)
(0.67208 0.969764 0)
(0.562419 0.912342 7.09822e-19)
(0.46603 0.852977 -4.33391e-19)
(0.370537 0.769681 0)
(0.257082 0.573277 8.85674e-20)
(0.143688 0.74278 2.11828e-19)
(0.155112 2.49428 -2.46198e-19)
(0.212032 3.32232 2.76292e-19)
(0.192195 3.43828 1.49042e-19)
(0.159982 3.46002 1.67334e-19)
(0.138307 3.47044 2.6719e-19)
(0.278917 0.262728 -1.13875e-19)
(0.971702 1.01561 0)
(1.12734 1.2036 1.61868e-19)
(1.13806 1.24142 1.66998e-19)
(1.08651 1.22199 -1.1701e-19)
(1.01674 1.18547 -6.56169e-21)
(0.940906 1.14725 7.3651e-20)
(0.855801 1.10649 1.63439e-20)
(0.759605 1.06207 2.76225e-19)
(0.64862 1.01221 5.91997e-19)
(0.53376 0.961415 4.02374e-20)
(0.426821 0.907289 3.86758e-19)
(0.30271 0.808108 6.90336e-20)
(0.212984 0.921004 -8.73994e-20)
(0.229493 2.34218 -1.9819e-19)
(0.291151 3.32434 1.90707e-19)
(0.274119 3.46694 -2.11085e-19)
(0.238661 3.48909 -1.21793e-19)
(0.201549 3.51699 -1.03824e-19)
(0.150011 3.51128 -1.21071e-20)
(0.266817 0.259634 0)
(0.969385 1.03829 4.94872e-20)
(1.11906 1.22709 -3.4237e-20)
(1.12749 1.26508 -2.08913e-20)
(1.07575 1.2452 -8.62217e-20)
(1.00593 1.2089 1.20803e-20)
(0.929783 1.17083 -3.92812e-20)
(0.844486 1.13088 1.47586e-20)
(0.747781 1.08795 -2.88946e-19)
(0.63554 1.04099 -1.37873e-20)
(0.517919 0.995118 -1.29096e-18)
(0.406028 0.945478 5.52248e-20)
(0.284796 0.872948 -6.5256e-20)
(0.255291 1.47482 -8.10959e-20)
(0.331068 3.09746 1.81252e-20)
(0.350518 3.46424 3.03434e-22)
(0.310082 3.52091 3.09984e-19)
(0.272652 3.54792 1.52501e-19)
(0.22391 3.57167 -4.00122e-20)
(0.164835 3.5679 -5.79996e-20)
(0.250646 0.258147 1.27734e-19)
(0.965492 1.06365 3.40279e-19)
(1.11037 1.25268 -9.8491e-20)
(1.11634 1.29014 -7.87403e-20)
(1.06436 1.26974 0)
(0.994695 1.2335 4.95598e-20)
(0.918531 1.19568 -4.17856e-20)
(0.83332 1.15651 1.3057e-20)
(0.736425 1.11517 -3.21521e-20)
(0.623453 1.07138 -5.40049e-19)
(0.503904 1.03074 -5.97943e-19)
(0.388674 0.985062 -4.53441e-19)
(0.286875 1.00064 -4.96211e-19)
(0.325357 2.19373 5.11389e-19)
(0.418597 3.373 4.29633e-19)
(0.395285 3.52191 0)
(0.349615 3.56747 0)
(0.31146 3.60882 -3.16269e-20)
(0.260408 3.66941 0)
(0.177393 3.64569 -3.63515e-20)
(0.239998 0.260082 -1.93964e-19)
(0.959659 1.09011 -2.92244e-19)
(1.10026 1.27946 0)
(1.10382 1.31593 5.96793e-21)
(1.0517 1.2949 -1.03395e-19)
(0.982326 1.25859 9.64393e-20)
(0.906489 1.22106 -1.80136e-20)
(0.821568 1.18258 7.94842e-21)
(0.724722 1.14275 -2.07335e-19)