/*--------------------------------*- C++ -*----------------------------------*\
| =========                 |                                                 |
| \\      /  F ield         | OpenFOAM: The Open Source CFD Toolbox           |
|  \\    /   O peration     | Version:  4.0                                   |
|   \\  /    A nd           | Web:      www.OpenFOAM.org                      |
|    \\/     M anipulation  |                                                 |
\*---------------------------------------------------------------------------*/
FoamFile
{
    version     2.0;
    format      ascii;
    class       volScalarField;
    location    "66";
    object      p;
}
// * * * * * * * * * * * * * * * * * * * * * * * * * * * * * * * * * * * * * //

dimensions      [0 2 -2 0 0 0 0];

internalField   nonuniform List<scalar> 
8800
(
0.787806
0.74002
0.701334
0.672342
0.651483
0.63666
0.626076
0.618614
0.613819
0.611796
0.613102
0.617323
0.623991
0.633324
0.646116
0.663858
0.688641
0.722585
0.765138
0.82384
0.61905
0.626729
0.634209
0.637519
0.63602
0.630949
0.624472
0.61841
0.613708
0.610896
0.610654
0.613197
0.617714
0.623681
0.630464
0.636754
0.640401
0.639668
0.634254
0.625567
0.597446
0.603607
0.607736
0.610685
0.61274
0.613353
0.612259
0.610174
0.608186
0.607316
0.60832
0.610737
0.613562
0.615761
0.616382
0.615192
0.612858
0.60947
0.604913
0.601153
0.591624
0.594276
0.59703
0.599438
0.601079
0.60225
0.603006
0.603144
0.60288
0.602872
0.603671
0.604879
0.605747
0.605833
0.605239
0.604159
0.602351
0.599786
0.597387
0.595883
0.586227
0.587653
0.589435
0.591472
0.593263
0.594615
0.59562
0.596441
0.597091
0.597703
0.598406
0.598946
0.599078
0.598815
0.598135
0.5969
0.595214
0.593373
0.592069
0.591237
0.58113
0.582051
0.583295
0.584867
0.586508
0.588045
0.589348
0.590442
0.591446
0.592395
0.593145
0.593523
0.593519
0.593109
0.592249
0.591065
0.58975
0.588498
0.58768
0.587128
0.576198
0.576867
0.577833
0.579141
0.580559
0.582031
0.583491
0.584844
0.586088
0.587259
0.588151
0.588578
0.58854
0.588065
0.587285
0.586356
0.585359
0.584446
0.583865
0.583458
0.571382
0.571899
0.572685
0.573822
0.57511
0.576499
0.577968
0.579475
0.580954
0.582364
0.583453
0.583994
0.584023
0.58368
0.583108
0.582407
0.581652
0.58098
0.580551
0.580233
0.566611
0.567022
0.567681
0.568695
0.569912
0.571256
0.572727
0.574323
0.576003
0.577685
0.579027
0.579768
0.579997
0.579877
0.579532
0.579045
0.578497
0.57802
0.577702
0.577443
0.561798
0.562133
0.562703
0.563639
0.564808
0.56614
0.567649
0.569347
0.571221
0.5732
0.57487
0.575914
0.576427
0.576567
0.576456
0.576197
0.575847
0.575531
0.575297
0.57508
0.556854
0.557131
0.55764
0.55853
0.559684
0.561042
0.562628
0.564471
0.56658
0.568904
0.570987
0.572421
0.573275
0.573711
0.573858
0.573829
0.573676
0.573502
0.573337
0.573149
0.551687
0.55192
0.552391
0.553266
0.554443
0.555871
0.557577
0.559619
0.562029
0.564781
0.567369
0.569272
0.570525
0.571302
0.571738
0.571947
0.571994
0.571952
0.571843
0.571674
0.546206
0.546404
0.546855
0.547745
0.548987
0.55053
0.552411
0.554719
0.557513
0.560799
0.563999
0.566459
0.56818
0.569347
0.570108
0.570573
0.570837
0.570919
0.570857
0.570702
0.540307
0.540477
0.540926
0.541859
0.543207
0.544916
0.547039
0.549694
0.552973
0.55692
0.560861
0.563988
0.56626
0.567876
0.569009
0.569782
0.570261
0.570463
0.570442
0.570295
0.533871
0.534016
0.534478
0.535484
0.536985
0.53892
0.541362
0.544459
0.548347
0.553105
0.557943
0.561865
0.564792
0.566938
0.568493
0.569604
0.570329
0.570658
0.570674
0.57053
0.526757
0.526876
0.527366
0.528477
0.530182
0.532411
0.535262
0.53892
0.543566
0.549315
0.555235
0.560107
0.563807
0.566577
0.568634
0.570132
0.571134
0.571592
0.571642
0.571498
0.518774
0.518876
0.51941
0.52066
0.522628
0.525232
0.528603
0.532967
0.538549
0.545507
0.55273
0.558734
0.563346
0.56685
0.569507
0.571463
0.572771
0.573365
0.573446
0.573298
0.509704
0.509804
0.510392
0.511803
0.514102
0.517194
0.521226
0.526471
0.533212
0.541645
0.550431
0.557776
0.563465
0.567833
0.5712
0.573684
0.575344
0.576082
0.576191
0.576035
0.499226
0.499306
0.499985
0.501621
0.504356
0.508069
0.512934
0.519287
0.527465
0.537693
0.548348
0.557271
0.564226
0.569611
0.573786
0.576906
0.578955
0.579842
0.579976
0.579808
0.486961
0.487027
0.487806
0.489753
0.493046
0.497558
0.503489
0.511245
0.52121
0.533622
0.546497
0.557268
0.565689
0.572256
0.577379
0.581222
0.583697
0.584733
0.584885
0.584702
0.472348
0.472404
0.473325
0.475689
0.479722
0.485285
0.492604
0.502157
0.514358
0.529419
0.544912
0.557823
0.567919
0.57584
0.582055
0.586711
0.589636
0.590811
0.59097
0.590768
0.454618
0.454663
0.455797
0.458747
0.463792
0.470776
0.479943
0.491833
0.506842
0.525108
0.543654
0.559
0.570987
0.580431
0.587846
0.593413
0.596787
0.598075
0.598227
0.598005
0.432599
0.432641
0.434124
0.437958
0.444463
0.453447
0.465149
0.480122
0.498668
0.520774
0.542823
0.560883
0.574951
0.586077
0.594803
0.601313
0.605095
0.606447
0.606573
0.60633
0.404532
0.404595
0.406671
0.411932
0.420708
0.43263
0.447905
0.466974
0.489938
0.516575
0.542562
0.563566
0.579862
0.592762
0.602895
0.610318
0.614405
0.615746
0.615823
0.615562
0.367364
0.367529
0.370823
0.378716
0.391322
0.407738
0.428107
0.452555
0.480921
0.512771
0.543062
0.567162
0.585764
0.600496
0.612032
0.620227
0.624444
0.625674
0.625681
0.625407
0.315236
0.31623
0.322783
0.336087
0.355351
0.378721
0.406117
0.437361
0.472091
0.509725
0.544539
0.571781
0.592679
0.609172
0.622009
0.630725
0.634821
0.635837
0.635767
0.635488
0.239167
0.24652
0.26168
0.28513
0.314313
0.346999
0.382983
0.42205
0.463831
0.50772
0.547361
0.57794
0.60129
0.619675
0.633717
0.642726
0.646547
0.647336
0.647218
0.646974
0.157441
0.174824
0.199385
0.233608
0.273105
0.315235
0.359859
0.406921
0.456124
0.506909
0.552222
0.586872
0.61314
0.633724
0.649076
0.657939
0.66109
0.661597
0.66151
0.661348
0.0893098
0.109784
0.142107
0.185486
0.234081
0.285103
0.338105
0.393005
0.449477
0.506951
0.55765
0.596084
0.625006
0.647353
0.663276
0.671653
0.674328
0.67478
0.674759
0.674639
0.0335125
0.0556506
0.0935145
0.143362
0.199147
0.25766
0.318078
0.38018
0.443495
0.507345
0.56316
0.605132
0.636457
0.660279
0.676788
0.685071
0.687534
0.687945
0.68795
0.687863
-0.0129088
0.0104068
0.0520718
0.107053
0.16862
0.233325
0.300114
0.36862
0.4382
0.508026
0.568717
0.614075
0.647717
0.673087
0.690288
0.698628
0.701156
0.701545
0.701576
0.701513
-0.0522283
-0.0282593
0.0162852
0.0753244
0.141754
0.211728
0.284055
0.358263
0.433578
0.509004
0.574346
0.622982
0.6589
0.685765
0.703809
0.712599
0.715206
0.715591
0.715625
0.71558
-0.0864843
-0.0620973
-0.0152889
0.0471035
0.117643
0.192206
0.269456
0.348828
0.429433
0.510122
0.579915
0.631733
0.669903
0.698297
0.717269
0.726517
0.729322
0.729728
0.72977
0.729746
-0.117187
-0.0924379
-0.0437866
0.0214675
0.0955595
0.174152
0.255824
0.33991
0.425436
0.511127
0.585213
0.640135
0.680485
0.710387
0.730226
0.739999
0.743049
0.743508
0.743558
0.74354
-0.145318
-0.120248
-0.0700228
-0.0022942
0.0749182
0.157086
0.242738
0.331158
0.421312
0.511794
0.590054
0.647994
0.690458
0.721778
0.742503
0.752736
0.756025
0.756574
0.756599
0.756583
-0.171694
-0.146259
-0.0946126
-0.0247271
0.0552732
0.140636
0.229896
0.322319
0.416825
0.511914
0.59427
0.655178
0.699688
0.732375
0.753864
0.76451
0.767985
0.768578
0.768578
0.768555
-0.1967
-0.1709
-0.117967
-0.0461883
0.036305
0.12454
0.217075
0.313186
0.411793
0.511349
0.597766
0.661636
0.708145
0.742091
0.764181
0.775131
0.778733
0.77935
0.779324
0.779284
-0.220782
-0.194543
-0.140569
-0.066922
0.0177872
0.1086
0.204112
0.303625
0.406096
0.509984
0.600469
0.667346
0.71584
0.75093
0.773527
0.784647
0.788257
0.78887
0.788812
0.788753
-0.244077
-0.217362
-0.162408
-0.0871116
-0.000423942
0.0927026
0.190911
0.293555
0.39965
0.507735
0.602326
0.672321
0.722853
0.759038
0.781991
0.793079
0.796668
0.79724
0.79716
0.797083
-0.266733
-0.239577
-0.18359
-0.106862
-0.0183989
0.0767949
0.177428
0.282925
0.3924
0.504537
0.603283
0.676577
0.729293
0.766562
0.789713
0.800642
0.804088
0.804602
0.804494
0.8044
-0.288884
-0.261217
-0.204245
-0.126217
-0.0361794
0.0608563
0.163656
0.271733
0.384328
0.50034
0.603284
0.680119
0.735271
0.773692
0.796902
0.807469
0.81065
0.811064
0.810922
0.810813
-0.310587
-0.282303
-0.224436
-0.145191
-0.0537509
0.0448995
0.149625
0.260006
0.375442
0.495103
0.602264
0.682922
0.74088
0.780639
0.803777
0.813724
0.81645
0.816701
0.816532
0.816414
-0.331687
-0.302823
-0.244094
-0.163769
-0.071095
0.0289772
0.13538
0.247801
0.365784
0.488833
0.600146
0.684926
0.74615
0.78762
0.810685
0.819669
0.82163
0.821616
0.821423
0.821313
-0.352176
-0.322754
-0.263217
-0.181914
-0.0881652
0.0131376
0.121001
0.235183
0.355418
0.481542
0.596868
0.686011
0.751037
0.79481
0.81809
0.825857
0.826524
0.825926
0.825692
0.825646
-0.372122
-0.342071
-0.281792
-0.199604
-0.104906
-0.00254499
0.106564
0.222248
0.344424
0.473278
0.592369
0.686025
0.755389
0.802211
0.826457
0.833227
0.831998
0.830044
0.82955
0.829825
-0.391367
-0.360759
-0.299767
-0.216789
-0.121267
-0.0179938
0.0921589
0.209097
0.332907
0.464124
0.58662
0.684775
0.758937
0.809541
0.835913
0.842898
0.840088
0.835744
0.833594
0.833513
-0.410004
-0.37881
-0.317164
-0.233503
-0.137281
-0.0332517
0.0777307
0.195676
0.320806
0.454009
0.579489
0.681984
0.761394
0.816343
0.845959
0.855325
0.853189
0.846101
0.838576
0.824954
-0.427965
-0.396213
-0.334098
-0.249945
-0.153227
-0.0486399
0.0628775
0.181524
0.307608
0.44233
0.570368
0.676925
0.762276
0.822036
0.855102
0.868651
0.8677
0.854325
0.833794
0.823209
-0.445082
-0.413119
-0.350384
-0.265923
-0.168752
-0.0638214
0.0478185
0.166952
0.293603
0.429319
0.559277
0.669058
0.760651
0.825406
0.859288
0.872784
0.873735
0.84903
0.781746
0.751723
-0.460697
-0.430794
-0.365712
-0.280963
-0.183057
-0.0782965
0.0328713
0.152189
0.279005
0.415091
0.546117
0.658013
0.75495
0.825664
0.853209
0.861657
0.847435
0.791523
0.722278
0.679813
-0.515477
-0.446375
-0.379571
-0.296194
-0.197798
-0.0935507
0.0179635
0.136944
0.26343
0.399161
0.530236
0.643045
0.741105
0.818654
0.820265
0.819789
0.766009
0.693309
0.615846
0.572762
-0.477129
-0.461206
-0.400254
-0.315778
-0.219622
-0.115416
-0.00493386
0.113413
0.23895
0.373363
0.502714
0.614215
0.705092
0.78825
0.771139
0.653048
0.544928
0.469754
0.39528
0.424457
-0.507472
-0.47842
-0.416585
-0.332955
-0.236839
-0.132753
-0.0219977
0.0957149
0.220196
0.352841
0.479463
0.586785
0.667887
0.711969
0.660542
0.507274
0.376678
0.283434
0.18377
0.232545
-0.530829
-0.498858
-0.435884
-0.352129
-0.255896
-0.151923
-0.0412557
0.0756172
0.198695
0.32894
0.451836
0.552887
0.624896
0.634061
0.52403
0.348239
0.193279
0.0727554
-0.0593366
-0.0271885
-0.553641
-0.520179
-0.456072
-0.371414
-0.275113
-0.171304
-0.0611775
0.0547177
0.176186
0.303632
0.421801
0.514828
0.571194
0.548599
0.386705
0.18804
-0.00389428
-0.172972
-0.362095
-0.381486
-0.575854
-0.541968
-0.477001
-0.391586
-0.295167
-0.191599
-0.0821444
0.0326408
0.152229
0.276451
0.38914
0.473995
0.51049
0.450968
0.255908
0.043441
-0.17502
-0.365033
-0.607277
-0.903707
-0.598356
-0.564478
-0.498998
-0.413123
-0.316541
-0.213167
-0.104319
0.00931154
0.126896
0.247605
0.354455
0.430739
0.445513
0.334497
0.14199
-0.0696929
-0.275161
-0.448201
-0.518257
-0.596799
-0.622093
-0.588166
-0.522408
-0.436334
-0.339727
-0.236644
-0.128501
-0.0162079
0.0990408
0.215682
0.316266
0.381259
0.370739
0.225934
0.0406243
-0.152014
-0.316164
-0.409881
-0.434154
-0.450004
-0.647367
-0.613326
-0.547398
-0.461292
-0.364851
-0.262237
-0.155048
-0.0444036
0.0680775
0.17998
0.273801
0.324297
0.295921
0.125021
-0.0513073
-0.218835
-0.346591
-0.386068
-0.398916
-0.400232
-0.674376
-0.640131
-0.574032
-0.487991
-0.391861
-0.289951
-0.183976
-0.0753245
0.0339399
0.140514
0.226611
0.262554
0.213915
0.0317852
-0.135468
-0.285521
-0.362508
-0.3796
-0.380975
-0.380793
-0.703178
-0.668644
-0.602334
-0.516429
-0.420774
-0.319772
-0.215288
-0.108984
-0.0033611
0.0973604
0.174829
0.198801
0.113674
-0.0534035
-0.212236
-0.335946
-0.372986
-0.371337
-0.370457
-0.369869
-0.733486
-0.698682
-0.632199
-0.546518
-0.451501
-0.351647
-0.248954
-0.145354
-0.0437847
0.0506216
0.119315
0.126125
0.0224257
-0.132474
-0.273061
-0.349899
-0.360379
-0.363116
-0.363822
-0.363565
-0.76475
-0.729796
-0.663371
-0.578029
-0.483855
-0.385415
-0.284819
-0.184301
-0.087145
0.00065361
0.0605611
0.0522034
-0.0595149
-0.199643
-0.317481
-0.349462
-0.358106
-0.359652
-0.35947
-0.359199
-0.796501
-0.761437
-0.695392
-0.610567
-0.51749
-0.420756
-0.322602
-0.225534
-0.133157
-0.051829
-0.00234009
-0.0178085
-0.134676
-0.254859
-0.348374
-0.365364
-0.357231
-0.356462
-0.356479
-0.356263
-0.827837
-0.792881
-0.7274
-0.64353
-0.551861
-0.457194
-0.361851
-0.268575
-0.181341
-0.1062
-0.0665875
-0.0817285
-0.200253
-0.298567
-0.351956
-0.361396
-0.357996
-0.35621
-0.355434
-0.355146
-0.857208
-0.822952
-0.758411
-0.675996
-0.5862
-0.494029
-0.401911
-0.31274
-0.230891
-0.161897
-0.125944
-0.152005
-0.251719
-0.338519
-0.344827
-0.358109
-0.359093
-0.356065
-0.354889
-0.354318
-0.882992
-0.849811
-0.787293
-0.706779
-0.619467
-0.530324
-0.441913
-0.357176
-0.280688
-0.218034
-0.182092
-0.219127
-0.29262
-0.35455
-0.384153
-0.36967
-0.362495
-0.359937
-0.35898
-0.358281
-0.903064
-0.871599
-0.811965
-0.734458
-0.650373
-0.564932
-0.480766
-0.400844
-0.329628
-0.273299
-0.239757
-0.273666
-0.319293
-0.362402
-0.40289
-0.382839
-0.373947
-0.373531
-0.372754
-0.371913
-0.915172
-0.886406
-0.83054
-0.757135
-0.67741
-0.596519
-0.517251
-0.442518
-0.376649
-0.326193
-0.295287
-0.321359
-0.333288
-0.335445
-0.342995
-0.370719
-0.387731
-0.392521
-0.392079
-0.392371
-0.91668
-0.891956
-0.841034
-0.772996
-0.698869
-0.62365
-0.550001
-0.480888
-0.420535
-0.37551
-0.342503
-0.372188
-0.387018
-0.366678
-0.37889
-0.39729
-0.400953
-0.400951
-0.401508
-0.402133
-0.905377
-0.885472
-0.841261
-0.780426
-0.713257
-0.644818
-0.577633
-0.514541
-0.459857
-0.419714
-0.385477
-0.420807
-0.493906
-0.578277
-0.533456
-0.466921
-0.429963
-0.416224
-0.41144
-0.409793
-0.879263
-0.864307
-0.829402
-0.778161
-0.719552
-0.658985
-0.5989
-0.542027
-0.49277
-0.457024
-0.418912
-0.435745
-0.479243
-0.604522
-0.549845
-0.445193
-0.398665
-0.38529
-0.379572
-0.376894
-0.840874
-0.831227
-0.806247
-0.76634
-0.717722
-0.66586
-0.613084
-0.562169
-0.517385
-0.484887
-0.453589
-0.383986
-0.255817
-0.167591
-0.187123
-0.242679
-0.28742
-0.307362
-0.312877
-0.313051
-0.796909
-0.79142
-0.77664
-0.747769
-0.709718
-0.666265
-0.620405
-0.574457
-0.532563
-0.499613
-0.465932
-0.355533
-0.162646
0.0588194
0.00884466
-0.153997
-0.276153
-0.335365
-0.352028
-0.357291
-0.757198
-0.753861
-0.746816
-0.727934
-0.69857
-0.662227
-0.622045
-0.579886
-0.538357
-0.50431
-0.479344
-0.4543
-0.500349
-0.546885
-0.604247
-0.701457
-0.715713
-0.70083
-0.664055
-0.673194
-0.728578
-0.726471
-0.722866
-0.711338
-0.688268
-0.656892
-0.620215
-0.579502
-0.536994
-0.498713
-0.47769
-0.550103
-0.88672
-1.45223
-1.9898
-2.14471
-1.98069
-1.74539
-1.55096
-1.43852
-0.70697
-0.706209
-0.705043
-0.699263
-0.681607
-0.653032
-0.616977
-0.575174
-0.528459
-0.476137
-0.438615
-0.435211
-0.584829
-0.759736
-0.901382
-0.883092
-0.74014
-0.596649
-0.47873
-0.415309
-0.694131
-0.693869
-0.693306
-0.690609
-0.677985
-0.65089
-0.61337
-0.56892
-0.515307
-0.453583
-0.396802
-0.340039
-0.248898
-0.0355058
0.213022
0.472199
0.679071
0.793541
0.851119
0.875383
-0.685085
-0.684924
-0.684368
-0.683247
-0.675368
-0.650483
-0.611778
-0.562346
-0.503475
-0.43155
-0.344283
-0.253605
-0.0416164
0.364086
0.784295
1.19484
1.47787
1.60389
1.65028
1.65975
-0.679463
-0.679227
-0.678518
-0.677886
-0.673437
-0.653068
-0.612343
-0.558379
-0.492783
-0.408078
-0.306585
-0.198634
0.0424109
0.458129
0.895804
1.29247
1.56705
1.69277
1.72698
1.72933
-0.678122
-0.677884
-0.677155
-0.675753
-0.675029
-0.659781
-0.616947
-0.558596
-0.486547
-0.397848
-0.290786
-0.179449
0.0156276
0.372009
0.715031
1.01874
1.22422
1.3163
1.34681
1.3536
-0.679621
-0.680487
-0.682877
-0.68678
-0.689125
-0.672048
-0.624924
-0.56362
-0.488092
-0.395259
-0.291775
-0.190453
-0.0414551
0.241316
0.500649
0.700782
0.831566
0.898999
0.934621
0.94818
-0.681192
-0.682519
-0.684641
-0.688083
-0.690371
-0.672722
-0.632715
-0.574989
-0.497178
-0.402257
-0.305008
-0.213773
-0.0971781
0.12062
0.325973
0.482817
0.595812
0.661843
0.696587
0.70851
-0.704853
-0.704058
-0.691164
-0.658415
-0.626728
-0.63584
-0.64026
-0.593139
-0.511032
-0.412882
-0.322546
-0.245295
-0.156638
0.0285702
0.201526
0.337357
0.443081
0.50745
0.537528
0.545617
-0.759798
-0.755932
-0.742875
-0.712042
-0.689484
-0.693907
-0.692982
-0.624795
-0.528229
-0.424347
-0.336669
-0.265072
-0.193637
-0.0505495
0.0944891
0.211581
0.303633
0.359699
0.383826
0.388997
-0.871877
-0.883034
-0.918084
-0.962025
-0.964364
-0.927954
-0.822884
-0.679211
-0.546948
-0.431784
-0.343131
-0.278148
-0.222848
-0.108004
0.0110871
0.104485
0.177951
0.220592
0.237518
0.239701
-1.00597
-1.03241
-1.08383
-1.12418
-1.12594
-1.07215
-0.910915
-0.71517
-0.553368
-0.429668
-0.341568
-0.279982
-0.228058
-0.1449
-0.0542661
0.0176946
0.073449
0.104411
0.117046
0.117199
-1.00311
-1.02338
-1.06081
-1.09201
-1.09323
-1.03418
-0.86768
-0.68069
-0.526439
-0.408647
-0.327651
-0.272281
-0.226347
-0.166939
-0.1016
-0.0472327
-0.00647462
0.0162752
0.0245287
0.024462
-0.794467
-0.815558
-0.851946
-0.887967
-0.895522
-0.83812
-0.704351
-0.570242
-0.45599
-0.366376
-0.30212
-0.257584
-0.225937
-0.185376
-0.139618
-0.10019
-0.0708018
-0.054685
-0.0492789
-0.0506267
-0.450472
-0.464866
-0.49258
-0.526204
-0.54695
-0.53284
-0.482371
-0.420167
-0.361878
-0.30939
-0.266815
-0.236378
-0.216337
-0.194868
-0.16532
-0.140797
-0.12356
-0.115933
-0.114186
-0.115877
-0.133303
-0.140716
-0.158935
-0.189112
-0.225101
-0.252512
-0.269924
-0.27425
-0.266262
-0.248529
-0.22863
-0.21167
-0.202635
-0.192883
-0.182781
-0.175553
-0.172854
-0.174017
-0.175196
-0.176166
0.0538882
0.0498758
0.0369519
0.00989988
-0.0329216
-0.0848028
-0.130586
-0.165368
-0.186482
-0.194389
-0.191269
-0.183104
-0.177513
-0.18158
-0.188912
-0.197788
-0.206961
-0.214912
-0.217736
-0.218095
0.12122
0.118726
0.10904
0.0864584
0.048059
-0.00107762
-0.0520378
-0.0971899
-0.131485
-0.153479
-0.162299
-0.160339
-0.157364
-0.171126
-0.189245
-0.205819
-0.220682
-0.229604
-0.232067
-0.232242
0.124106
0.122385
0.115391
0.098587
0.0693067
0.0301143
-0.0140985
-0.0573134
-0.0954975
-0.126081
-0.146299
-0.155498
-0.160134
-0.175399
-0.1915
-0.206057
-0.217497
-0.223063
-0.224345
-0.224619
0.102833
0.101694
0.0969253
0.0852547
0.0644958
0.0355111
0.000316466
-0.03693
-0.073761
-0.10907
-0.141391
-0.170766
-0.188589
-0.193197
-0.195822
-0.201163
-0.205433
-0.20723
-0.207644
-0.208046
0.0769481
0.0762329
0.0731129
0.065301
0.0510256
0.0302173
0.0034357
-0.0270601
-0.0601869
-0.0966254
-0.138138
-0.186393
-0.215747
-0.205905
-0.196631
-0.19106
-0.190303
-0.189923
-0.189808
-0.190067
0.0537395
0.0532789
0.0513259
0.0462756
0.0366991
0.0221189
0.00246027
-0.0213518
-0.0491807
-0.0828253
-0.124137
-0.174616
-0.199229
-0.185441
-0.172605
-0.16897
-0.168729
-0.168993
-0.169062
-0.169221
0.0355346
0.0352563
0.0340435
0.0308456
0.0245523
0.0145934
0.000627888
-0.0170508
-0.0382959
-0.0639201
-0.0955719
-0.128803
-0.140058
-0.135367
-0.13346
-0.136979
-0.141001
-0.143232
-0.143813
-0.143887
0.0219005
0.0217669
0.0210731
0.0191956
0.0153285
0.00886875
-0.000505688
-0.012734
-0.0275442
-0.0448548
-0.0603481
-0.0705311
-0.071146
-0.0752613
-0.0865854
-0.0987094
-0.107397
-0.11159
-0.112698
-0.112675
0.0122004
0.0121514
0.0117983
0.0108265
0.00867522
0.00489356
-0.000826482
-0.00841192
-0.0173169
-0.0259691
-0.0283399
-0.0185468
-0.00592375
-0.0231545
-0.0439445
-0.0599661
-0.0695687
-0.0739333
-0.0752751
-0.0752516
0.00552432
0.0055476
0.00543476
0.00503228
0.00404154
0.00220498
-0.000667501
-0.00441126
-0.00863259
-0.0116983
-0.00800154
0.00592229
0.0197896
0.00265249
-0.0146076
-0.0269532
-0.0335138
-0.0361347
-0.0370806
-0.0372752
0.000669714
0.000721334
0.000694306
0.000773025
0.000902979
0.00080062
0.000435113
-0.000209272
-0.00111897
-0.00185071
-0.00125296
0.0018964
0.00622741
0.00296694
-0.000181115
-0.00334627
-0.00370181
-0.00450787
-0.00580278
-0.00596892
-0.136067
0.0298383
0.223236
0.391978
0.526387
0.631716
0.718522
0.792501
0.8264
0.803172
0.163633
0.283495
0.41234
0.523498
0.61696
0.694104
0.756539
0.800916
0.823131
0.835313
0.380437
0.462565
0.550599
0.628202
0.694861
0.750611
0.794968
0.827415
0.850937
0.868991
0.539906
0.598746
0.65968
0.716316
0.765492
0.807275
0.841628
0.869072
0.891743
0.910087
0.664405
0.707151
0.752787
0.79625
0.834669
0.868244
0.89701
0.920982
0.941292
0.959154
0.76814
0.800802
0.838695
0.874027
0.90648
0.935593
0.961051
0.982469
1.00027
1.01763
0.860324
0.888895
0.92272
0.954731
0.984575
1.01166
1.03535
1.05502
1.0705
1.08758
0.948695
0.977822
1.01174
1.04371
1.07325
1.09979
1.12261
1.14107
1.15442
1.17145
1.04388
1.07704
1.11363
1.14716
1.17717
1.20332
1.22525
1.24251
1.25436
1.27176
1.1588
1.19659
1.23521
1.26943
1.29875
1.32347
1.34383
1.35971
1.37116
1.38923
1.30369
1.34222
1.37834
1.40901
1.43467
1.45675
1.4758
1.49132
1.50374
1.52174
1.47873
1.51035
1.53652
1.55896
1.57892
1.59764
1.61535
1.63182
1.64716
1.66523
1.66733
1.68453
1.69956
1.71578
1.73168
1.74621
1.75941
1.77334
1.79087
1.81103
1.84904
1.85858
1.87011
1.88092
1.8902
1.89978
1.91056
1.92193
1.93329
1.94864
2.05627
2.05993
2.04498
2.03018
2.0239
2.02957
2.04805
2.07836
2.11053
2.13719
2.36259
2.22773
2.15108
2.1087
2.09127
2.09524
2.12263
2.17905
2.28167
2.50603
0.678403
0.676276
0.671793
0.663171
0.65095
0.638827
0.628606
0.620723
0.615123
0.611893
0.611567
0.614333
0.619459
0.626697
0.636095
0.647642
0.660297
0.671335
0.677448
0.680504
0.602849
0.608697
0.615031
0.619527
0.622001
0.621682
0.618953
0.615156
0.611665
0.60943
0.609313
0.61154
0.615225
0.61953
0.623348
0.625239
0.624308
0.62083
0.615669
0.609048
0.594411
0.596708
0.600113
0.603113
0.605192
0.606695
0.60746
0.607157
0.606152
0.605297
0.605505
0.606963
0.608802
0.610125
0.610317
0.609436
0.607893
0.605561
0.602301
0.599382
0.588882
0.589968
0.591803
0.594185
0.596214
0.597649
0.59868
0.599448
0.599872
0.600125
0.600654
0.601495
0.60212
0.602206
0.601807
0.600969
0.599507
0.597428
0.595346
0.593964
0.583655
0.584317
0.585427
0.587136
0.588924
0.590564
0.591872
0.592906
0.593814
0.59464
0.595412
0.596003
0.596227
0.596083
0.595532
0.59449
0.593071
0.591535
0.590221
0.589443
0.578648
0.579108
0.579896
0.581199
0.582693
0.584219
0.585698
0.587016
0.588182
0.589278
0.590243
0.590857
0.591038
0.590791
0.590114
0.589139
0.588026
0.586902
0.585992
0.585476
0.573781
0.574125
0.574738
0.575811
0.577113
0.578497
0.579952
0.581421
0.582827
0.584154
0.585323
0.586069
0.586289
0.586046
0.585471
0.584714
0.583878
0.583022
0.582356
0.581979
0.568999
0.569266
0.569761
0.570675
0.571853
0.573162
0.574574
0.576089
0.577668
0.579242
0.580658
0.581592
0.581945
0.581865
0.581502
0.580966
0.580336
0.579711
0.579227
0.57894
0.564218
0.56443
0.564842
0.565646
0.566745
0.568008
0.569413
0.570978
0.572694
0.574511
0.576223
0.577429
0.57803
0.578197
0.57807
0.577759
0.577339
0.576908
0.576565
0.57634
0.559351
0.559521
0.559875
0.560606
0.56166
0.562903
0.564339
0.565992
0.567869
0.56995
0.572015
0.573588
0.574521
0.574982
0.575114
0.575038
0.574835
0.57458
0.574354
0.574175
0.554307
0.554444
0.554756
0.555444
0.556482
0.557751
0.559257
0.56104
0.563135
0.565535
0.568032
0.570062
0.571393
0.572197
0.572623
0.5728
0.572811
0.572727
0.572601
0.572457
0.548995
0.549106
0.54939
0.550059
0.551117
0.552457
0.554077
0.556045
0.558423
0.561228
0.564257
0.566836
0.568638
0.569839
0.570599
0.571051
0.571288
0.571377
0.571338
0.571221
0.543319
0.543406
0.543674
0.544349
0.545462
0.546917
0.548705
0.550926
0.553668
0.556983
0.560664
0.563902
0.566262
0.567924
0.569061
0.569835
0.570324
0.570576
0.570615
0.570519
0.537167
0.537234
0.537495
0.538198
0.539405
0.54102
0.543041
0.545595
0.548799
0.55275
0.557225
0.561257
0.564281
0.566483
0.568056
0.56919
0.569958
0.570389
0.570501
0.570422
0.530409
0.530456
0.530719
0.531472
0.532812
0.534645
0.536972
0.539951
0.54374
0.548476
0.553917
0.558901
0.562713
0.565556
0.567641
0.569179
0.57027
0.570894
0.571079
0.571013
0.522888
0.522916
0.523184
0.52401
0.525528
0.527643
0.530362
0.533881
0.538401
0.544102
0.550715
0.55684
0.561587
0.565184
0.567876
0.569901
0.571356
0.572186
0.572444
0.572388
0.514396
0.51441
0.514685
0.515611
0.517365
0.519826
0.523049
0.52725
0.53268
0.539566
0.547598
0.555087
0.560941
0.565424
0.568834
0.57144
0.57331
0.574369
0.574699
0.57465
0.504637
0.504622
0.504952
0.506021
0.508061
0.51098
0.514843
0.519902
0.526465
0.534807
0.544553
0.553661
0.560822
0.566351
0.5706
0.573884
0.576238
0.577544
0.577947
0.577901
0.493306
0.493266
0.493643
0.494906
0.497317
0.500827
0.505502
0.511647
0.51963
0.529764
0.541573
0.552597
0.561282
0.568034
0.573271
0.577332
0.580238
0.581811
0.582282
0.582235
0.479915
0.479848
0.480305
0.481821
0.484719
0.488998
0.494726
0.502264
0.512036
0.524377
0.538659
0.55193
0.562379
0.570537
0.576922
0.581881
0.5854
0.587245
0.587776
0.587722
0.463805
0.46371
0.464293
0.466164
0.469714
0.475021
0.482146
0.491501
0.503551
0.518613
0.535841
0.551717
0.56418
0.573933
0.581618
0.58759
0.591774
0.593884
0.594457
0.594389
0.44403
0.443908
0.444695
0.447083
0.451552
0.458288
0.467319
0.479096
0.494076
0.512489
0.533191
0.552036
0.566753
0.578284
0.587387
0.594496
0.599358
0.601699
0.602286
0.602196
0.419154
0.419016
0.420141
0.423332
0.429193
0.438021
0.449757
0.464828
0.483588
0.506096
0.530833
0.552993
0.570172
0.583628
0.594276
0.602568
0.608071
0.610569
0.61113
0.61101
0.386848
0.386733
0.388473
0.393057
0.401231
0.413323
0.429026
0.448619
0.472216
0.499642
0.528964
0.554725
0.574504
0.589985
0.60224
0.611714
0.617723
0.620256
0.620742
0.620588
0.342922
0.342973
0.34607
0.353557
0.366023
0.383435
0.405016
0.430702
0.46032
0.493475
0.527844
0.557389
0.579832
0.597354
0.611196
0.621735
0.627995
0.630389
0.630752
0.630564
0.279531
0.280755
0.288325
0.302293
0.322609
0.348488
0.378348
0.411797
0.44854
0.488077
0.527767
0.561133
0.586183
0.605658
0.620919
0.632201
0.638407
0.640422
0.640615
0.640407
0.20442
0.206217
0.220708
0.244696
0.275998
0.311877
0.350756
0.392459
0.43681
0.483338
0.529131
0.56714
0.595465
0.617325
0.634183
0.646129
0.652036
0.653731
0.653878
0.653757
0.126964
0.13322
0.154616
0.188908
0.230655
0.276238
0.324096
0.374101
0.426133
0.479746
0.531782
0.574542
0.606159
0.630443
0.649069
0.661159
0.666301
0.667494
0.667583
0.667536
0.0635904
0.0721794
0.0981567
0.139501
0.189437
0.243289
0.299238
0.357007
0.416368
0.476804
0.534814
0.582027
0.616689
0.643007
0.662607
0.674722
0.679565
0.680665
0.680782
0.680793
0.012055
0.0212426
0.0507843
0.0973874
0.1535
0.214018
0.276814
0.341447
0.407505
0.474329
0.538004
0.589453
0.626954
0.655209
0.675943
0.688326
0.692946
0.693998
0.694191
0.694251
-0.0310394
-0.0215717
0.010425
0.0610374
0.122224
0.188277
0.256881
0.327515
0.399598
0.472328
0.541366
0.596877
0.637143
0.667313
0.689172
0.701898
0.706645
0.707909
0.708128
0.708221
-0.0680635
-0.0584917
-0.0246593
0.0291628
0.0945474
0.165323
0.238993
0.314954
0.392516
0.470734
0.544848
0.604268
0.647231
0.679283
0.702357
0.715755
0.72083
0.722193
0.722409
0.722503
-0.100702
-0.0911046
-0.0558685
0.000661161
0.0695648
0.144418
0.222581
0.303349
0.385941
0.469286
0.548238
0.611442
0.657041
0.690975
0.715258
0.72939
0.734859
0.736329
0.73654
0.736614
-0.130251
-0.120627
-0.0842419
-0.0253755
0.0465471
0.124976
0.207138
0.292269
0.379515
0.467713
0.551323
0.618202
0.666364
0.702084
0.727546
0.742387
0.748273
0.749837
0.750031
0.750082
-0.157609
-0.147951
-0.110574
-0.0496646
0.0249336
0.106529
0.192273
0.281385
0.37297
0.46578
0.553904
0.62438
0.675032
0.712473
0.739024
0.754505
0.760815
0.762452
0.762628
0.762651
-0.183353
-0.173642
-0.135343
-0.0727103
0.00430233
0.088729
0.177706
0.270461
0.366081
0.463284
0.555823
0.629865
0.682966
0.722057
0.749626
0.765591
0.772174
0.773874
0.774034
0.774024
-0.207982
-0.198142
-0.158966
-0.0948165
-0.0156299
0.0713272
0.163226
0.259308
0.358693
0.460095
0.556977
0.634605
0.69015
0.730812
0.759263
0.77559
0.782309
0.784027
0.784171
0.784132
-0.231774
-0.221727
-0.181829
-0.116177
-0.0350596
0.0541539
0.148691
0.247818
0.350703
0.456113
0.557283
0.638562
0.696609
0.738813
0.768009
0.784564
0.791277
0.792965
0.79309
0.793024
-0.254842
-0.244602
-0.203991
-0.136942
-0.0541149
0.0371259
0.13403
0.235924
0.342042
0.451255
0.556669
0.64172
0.702398
0.746189
0.776017
0.792621
0.799228
0.80084
0.80092
0.80083
-0.277377
-0.266859
-0.225508
-0.157206
-0.072854
0.0201917
0.119209
0.223598
0.332685
0.445483
0.555074
0.644051
0.707584
0.753083
0.78347
0.799955
0.80631
0.807778
0.807809
0.807698
-0.299334
-0.288559
-0.246513
-0.177026
-0.0912962
0.00334723
0.104244
0.21086
0.322636
0.438771
0.55244
0.645508
0.712218
0.759657
0.790587
0.806731
0.812647
0.813891
0.81385
0.813722
-0.320787
-0.309727
-0.266942
-0.196398
-0.109436
-0.0133882
0.0891628
0.197754
0.311935
0.431124
0.548717
0.646022
0.716302
0.766056
0.797627
0.813204
0.818354
0.819228
0.819104
0.818972
-0.341586
-0.330307
-0.286792
-0.215285
-0.127236
-0.0299533
0.0740207
0.184339
0.300639
0.422585
0.543869
0.645506
0.719774
0.77237
0.804925
0.819796
0.823765
0.82395
0.823675
0.82356
-0.36187
-0.350264
-0.306063
-0.233678
-0.144674
-0.0463169
0.0589012
0.170687
0.288827
0.413222
0.537891
0.643849
0.722497
0.778577
0.812769
0.827165
0.829554
0.828391
0.827671
0.827599
-0.381483
-0.369578
-0.324732
-0.251542
-0.161677
-0.0624001
0.0438791
0.156911
0.276601
0.403088
0.53081
0.640931
0.724272
0.784485
0.821213
0.836048
0.837077
0.833765
0.831528
0.830817
-0.400491
-0.388299
-0.342749
-0.268832
-0.178214
-0.0781379
0.0290338
0.143087
0.264065
0.392312
0.52268
0.636634
0.724845
0.789717
0.829819
0.846654
0.847969
0.842943
0.836631
0.828656
-0.418815
-0.406384
-0.36021
-0.285702
-0.194492
-0.0937952
0.0140429
0.128833
0.250794
0.380421
0.513006
0.630446
0.723779
0.794016
0.838059
0.858505
0.862756
0.857378
0.846419
0.841795
-0.436408
-0.423758
-0.3771