/*--------------------------------*- C++ -*----------------------------------*\
| =========                 |                                                 |
| \\      /  F ield         | OpenFOAM: The Open Source CFD Toolbox           |
|  \\    /   O peration     | Version:  4.0                                   |
|   \\  /    A nd           | Web:      www.OpenFOAM.org                      |
|    \\/     M anipulation  |                                                 |
\*---------------------------------------------------------------------------*/
FoamFile
{
    version     2.0;
    format      ascii;
    class       volScalarField;
    location    "74";
    object      p;
}
// * * * * * * * * * * * * * * * * * * * * * * * * * * * * * * * * * * * * * //

dimensions      [0 2 -2 0 0 0 0];

internalField   nonuniform List<scalar> 
918
(
0.557439
1.17904
0.00130829
0.556897
-0.0125539
1.14603
-0.512122
0.653756
0.537644
-0.106863
-0.055405
0.540001
1.00683
0.772809
-1.12369
-0.0113516
0.65183
-0.381858
0.536766
-0.0625844
0.682955
0.544179
0.547203
0.53778
0.597343
0.745558
0.888137
0.0263603
0.0105918
0.00606279
-0.0119723
-0.0387056
-0.0328412
1.02967
1.08076
1.10347
0.505368
0.334018
-0.377695
-0.451055
-0.437577
-0.542827
0.654091
0.654377
-0.215124
0.656039
0.656136
0.524654
0.537014
0.537926
0.53894
0.537928
0.539306
0.403332
-0.10776
-0.139141
-0.0874628
-0.0808445
0.0512736
-0.0557735
-0.0579493
-0.0541026
-0.0531607
0.454459
0.534356
0.530791
0.544306
0.5535
1.11859
1.09051
1.11666
1.03036
1.04682
0.984799
0.957453
0.79324
0.815341
0.758531
0.744231
-1.55418
-2.50298
-0.535124
-0.285074
-0.0105976
-0.00943033
-0.00401862
0.649179
0.650314
0.651351
0.653162
1.07913
-0.379259
-0.480369
0.536909
0.535721
0.544032
0.544734
0.540755
0.539844
-0.0536184
-0.050532
-0.0527797
-0.0580408
-0.0561872
0.665054
0.667626
0.538307
0.535309
0.561063
0.581526
0.571634
0.277369
0.608423
0.624451
0.579891
0.738801
0.732751
0.741507
0.86175
0.825979
0.924995
0.948123
0.0177591
-0.000159942
-0.0158073
-0.0196968
-0.0185054
0.501195
0.493728
0.521416
0.508809
0.51132
0.250963
0.117896
0.418847
0.443637
-0.297219
-0.364665
-0.430008
-0.460535
-0.568404
0.613489
0.654664
0.65343
-0.224592
-0.152897
-0.286818
-0.0797896
-0.142977
0.514904
0.521929
0.516921
0.532492
0.526954
0.528919
0.541288
0.538357
0.539917
0.465412
0.588897
0.329603
0.294088
-0.242964
-0.154544
-0.242342
-0.0707662
-0.0683767
0.0653136
0.0910055
0.0379476
0.0261404
-0.0645047
-0.0593306
-0.0617016
-0.0520584
-0.0514754
0.447183
0.435919
0.467162
0.474732
0.520669
0.522186
0.526701
0.52473
0.908202
0.93061
0.938175
0.911851
-3.48994
-6.26704
0.0385704
0.174446
-0.00668183
-0.00935404
0.00202004
-0.00596751
0.000100537
-0.00203295
-0.00904554
-0.0103985
-0.00529776
-0.00403924
0.643682
0.644641
1.00156
1.00886
0.976876
0.929818
0.525147
0.52721
0.532698
0.528584
-0.0504982
-0.0499744
-0.0498086
0.65841
0.662645
0.660712
0.238703
0.148604
0.328635
0.357905
0.637182
0.626209
0.635534
0.640635
0.677399
0.955539
0.973761
0.971955
0.980281
1.02426
1.04061
1.00607
0.480583
0.490597
0.485526
0.524346
0.522193
0.523057
0.519527
0.52046
0.518712
-0.0322761
-0.411546
0.491091
0.507644
0.493304
0.495407
0.69357
0.772126
0.652569
0.653589
0.653422
-0.010177
-0.068691
0.249175
0.214914
0.386509
0.423053
0.401952
0.879564
0.839579
0.889852
0.863037
0.824268
0.850427
-0.363166
-1.8599
-0.980582
0.523011
0.337994
0.425173
0.00792423
-0.00864484
-0.00415068
1.00161
1.07362
0.644697
0.819711
0.822169
0.711347
0.739796
0.80033
0.727135
0.761295
0.794131
0.771576
0.569365
0.504279
0.520544
0.841047
0.896617
0.118091
0.0558662
0.012128
0.110079
0.167623
0.141569
1.03354
0.950154
1.02016
0.535071
0.535795
-0.00542008
-0.0181909
0.540051
0.540107
-0.0127867
-0.00189352
0.407593
-0.831483
0.0962736
0.528646
0.518509
0.535662
-0.0928363
0.354788
-0.0560541
0.0465966
-0.0101542
0.530057
0.465597
0.424611
-7.12398e-05
-0.0204787
-0.0528744
-0.213238
0.532741
0.531045
0.535129
0.536067
0.53675
-0.0191133
-0.014869
-0.0103615
-0.049551
-0.0420293
-0.0548729
0.499531
0.518979
-0.171283
0.535277
0.537414
0.537231
0.530503
0.536129
0.534384
-0.0111672
-0.0159683
-0.0183089
0.218558
0.351466
0.645606
0.730979
0.618703
0.395149
0.160882
0.549789
0.612245
0.518904
0.671387
0.650096
0.652207
0.161764
0.0112898
0.170828
0.112699
0.526513
0.52525
0.51676
0.513716
0.53053
0.528647
0.533203
0.530231
0.533181
0.534559
-0.0494896
-0.0753488
-0.0849712
-0.151532
0.309577
0.570597
0.254244
0.283524
0.140875
-0.0497981
-0.0516735
-0.0532869
-0.0602262
0.000215327
-0.0259689
0.0412559
0.0413987
0.0131985
-0.0125652
-0.0102165
-0.0213209
-0.0154259
0.523329
0.523345
0.527731
0.536449
0.475275
0.479064
0.443822
0.46464
0.44984
0.388386
0.423876
0.399017
-0.00605997
0.00229655
-0.00289194
-0.0185839
-0.0152807
-0.0344403
-0.0314295
-0.0270232
-0.0226809
-0.0295499
-0.0472891
-0.0504533
-0.171254
-0.287127
0.988175
0.908438
0.137788
0.521883
0.528345
0.525102
0.530041
0.533169
0.533963
0.531667
0.528213
0.519219
0.520722
0.517416
0.518444
-0.102345
-0.244226
-0.0725464
-0.147697
0.146078
0.62826
0.363354
0.298367
0.293816
0.523214
0.914621
0.697064
0.664294
0.659628
-0.344258
0.0438134
-0.280814
0.333177
0.161251
0.646791
0.694303
0.714129
0.663636
0.617518
-0.0994447
0.556097
-0.0757117
-0.0230338
0.179056
0.0538418
0.654736
0.638681
0.646156
0.645906
0.657535
0.640739
0.622436
0.622879
0.64156
0.647123
0.48151
0.249194
0.199596
0.161132
0.643208
0.514741
0.563398
0.488783
0.521859
0.524367
0.523025
0.504371
0.51197
0.507483
0.51404
0.517704
0.526253
0.52674
0.521983
0.524112
-0.0559958
-0.0619705
-0.025504
-0.135564
-0.128202
-0.190459
-0.0594075
0.0744717
0.036148
0.237117
0.3404
0.0517304
-0.0570527
-0.0298598
0.0125234
0.179697
0.208499
0.0736743
0.161029
0.152676
0.133546
0.236499
0.239733
-0.0310592
-0.0322951
-0.0373178
-0.0401572
0.0177751
0.0891698
0.0985328
-0.00915654
-0.0143457
-0.0479598
-0.0484708
-0.0233676
-0.0283767
-0.0235161
0.00384855
-0.0530779
-0.020871
-0.0070838
-0.00697694
-0.00695046
-0.0124547
0.51818
0.519891
0.520135
0.52852
0.540628
0.555308
0.521586
0.497535
0.488303
0.491314
0.464262
0.474533
0.4704
0.483959
0.505157
0.513773
0.512055
0.514869
0.497194
0.498976
0.48545
0.489084
0.464287
0.444825
0.432814
-0.0429546
-0.00455059
-0.0127162
-0.0383313
-0.00877552
-0.0206817
-0.0122457
0.00702922
-0.00971574
-0.0107727
-0.0210279
-0.0273473
-0.0268727
-0.0731654
0.0136934
-0.185074
-0.220169
-0.293646
0.890414
1.01464
0.809363
0.582142
0.602835
0.846417
0.930537
0.542426
0.73486
0.757986
0.588216
0.855221
0.526736
0.526329
0.523929
0.523408
0.52463
-0.00687849
0.0999042
0.097051
0.161231
0.27786
0.389265
0.321135
0.19551
0.325357
0.327788
0.621205
0.633251
0.588981
0.612906
0.613645
0.425071
0.500682
0.552445
0.513623
0.565894
0.587687
0.541399
0.574598
0.523674
0.479013
0.475178
0.424722
0.444341
0.419823
0.40295
0.516663
0.493713
0.504515
0.494844
0.51639
0.543615
0.540697
0.562726
0.577862
0.498061
0.453001
0.462389
0.49258
0.454075
0.469647
0.485531
0.234071
0.13646
0.219175
-0.0654437
0.00434732
-0.00781131
-0.0566703
-0.00488427
0.279182
-0.411181
-0.38817
-1.01452
0.505239
0.952888
0.583339
0.560735
0.658946
0.646373
0.652804
0.669621
0.665299
0.631733
0.640397
0.645094
0.592509
0.61338
0.631998
0.627865
0.524406
0.380539
0.380575
0.327599
0.197833
0.238038
0.433524
0.35792
0.283167
0.283238
0.4562
0.342511
0.412962
0.445694
0.376897
0.331649
0.534646
0.60104
0.593986
0.567808
0.477413
0.489288
0.51387
0.547308
0.570633
0.60388
0.513477
0.519431
0.520663
0.51813
0.515393
0.518503
0.518791
0.521391
0.521959
0.524994
0.524075
-0.0529028
-0.0389982
-0.0505119
-0.0622901
-0.0182095
-0.0210183
0.0225525
0.0104195
-0.0162829
-0.0121204
-0.0334911
-0.0374838
-0.0342507
-0.0265852
0.102742
0.115407
0.100292
0.059975
0.250304
0.380309
0.454583
0.329399
0.223689
0.24815
0.266728
-0.0132751
0.0125048
-6.55532e-05
0.0392584
0.0312726
-0.0404746
-0.0446337
-0.040804
-0.0323209
-0.0242833
-0.0409352
-0.0465787
-0.0372479
-0.0420817
-0.0451691
-0.0493306
0.49981
0.49329
0.494876
0.488808
0.487534
0.501778
0.506097
0.508045
0.513486
0.515845
0.505891
0.511299
0.515292
-0.0131599
-0.0362817
-0.0396099
-0.0316554
-0.0330973
-0.0304661
-0.0320887
0.123992
0.0550227
0.0587172
0.0114621
-0.121244
-0.0631677
0.49284
0.491659
0.480728
0.721796
0.570994
0.492057
0.589253
0.694886
0.276906
0.473278
0.308637
0.888636
0.785542
0.931774
0.542483
0.246791
0.411882
0.453539
0.267698
0.344002
0.324071
0.213282
0.243899
0.282788
0.381413
0.266962
0.244027
0.000383864
0.19143
0.302827
0.284755
0.408873
0.469339
0.26826
0.187831
0.142724
0.605303
0.62511
0.638493
0.610496
0.633078
0.581722
0.573824
0.589139
0.597145
0.591153
-0.742873
-0.44908
-1.39637
-0.720169
-0.264092
0.535797
0.508987
0.76992
0.644999
0.677131
0.66156
0.621346
0.591596
0.617222
0.638733
0.338729
0.449216
0.424351
0.430421
0.333339
0.263308
0.56183
0.559454
0.592274
0.616244
0.58822
0.618545
0.511281
0.511004
0.510472
0.506708
0.504966
0.507317
0.058228
0.0255766
0.0668569
0.0490342
0.0267663
0.0151703
-0.0130194
-0.0231861
-0.0296876
-0.0289048
-0.0144065
-0.0104649
0.173058
0.110019
0.030427
0.0591778
-0.00175492
-0.0702454
-0.0896195
0.0163291
0.112543
0.10272
0.405823
0.654871
0.47496
0.642414
0.485303
0.540952
0.469023
0.460133
0.484959
0.380738
0.461205
0.25337
-0.255196
-0.164509
0.795838
0.805999
0.58146
0.40755
0.174893
0.351363
0.540201
0.469403
0.504806
0.573879
0.560639
0.032185
0.0888496
0.378696
0.605435
0.242525
0.2334
0.226797
0.412081
0.329737
)
;

boundaryField
{
    wall-4
    {
        type            zeroGradient;
    }
    velocity-inlet-5
    {
        type            zeroGradient;
    }
    velocity-inlet-6
    {
        type            zeroGradient;
    }
    pressure-outlet-7
    {
        type            fixedValue;
        value           uniform 0;
    }
    wall-8
    {
        type            zeroGradient;
    }
    frontAndBackPlanes
    {
        type            empty;
    }
}


// ************************************************************************* //
