/*--------------------------------*- C++ -*----------------------------------*\
| =========                 |                                                 |
| \\      /  F ield         | OpenFOAM: The Open Source CFD Toolbox           |
|  \\    /   O peration     | Version:  4.0                                   |
|   \\  /    A nd           | Web:      www.OpenFOAM.org                      |
|    \\/     M anipulation  |                                                 |
\*---------------------------------------------------------------------------*/
FoamFile
{
    version     2.0;
    format      ascii;
    class       surfaceScalarField;
    location    "24";
    object      phi;
}
// * * * * * * * * * * * * * * * * * * * * * * * * * * * * * * * * * * * * * //

dimensions      [0 3 -1 0 0 0 0];

internalField   nonuniform List<scalar> 
17370
(
-0.0916067
0.0960083
0.284609
-0.0775926
0.0594165
0.364952
-0.0430376
0.0316169
0.427589
-0.0223109
0.0162548
0.505308
-0.0116559
0.00877603
0.602282
-0.00655962
0.00507343
0.720544
-0.00384
0.00296754
0.863779
-0.00220843
0.00164575
1.03601
-0.001132
0.000724896
1.24291
-0.000322328
-6.13713e-05
1.49157
0.000441738
-0.000847844
1.4916
0.00125035
-0.00175644
1.2432
0.00231164
-0.00306239
1.03639
0.0039272
-0.00515256
0.864132
0.0066317
-0.00883983
0.721266
0.0117103
-0.0162963
0.603801
0.0223397
-0.0316323
0.508732
0.0430394
-0.0594105
0.432539
0.0775888
-0.0960048
0.365191
0.0916163
0.197395
-0.12709
0.0880224
0.0390677
-0.364354
0.354027
-0.0714749
0.0818014
-0.446654
0.45425
-0.0791692
0.0715732
-0.521009
0.529113
-0.0637198
0.0556157
-0.612988
0.620761
-0.0482251
0.0404527
-0.72716
0.733683
-0.033839
0.0273156
-0.867571
0.872414
-0.0221114
0.0172684
-1.03855
1.04186
-0.013589
0.0102796
-1.24471
1.24708
-0.00775743
0.00538299
-1.49283
1.49481
-0.00344676
0.00146667
-1.49268
1.49447
0.000329493
-0.00212311
-1.2441
1.24601
0.00408212
-0.00599022
-1.0376
1.04009
0.00832866
-0.0108153
-0.866185
0.869829
0.0140847
-0.0177282
-0.724603
0.72977
0.0225323
-0.0276995
-0.609077
0.615656
0.0341827
-0.0407618
-0.515131
0.522486
0.0484974
-0.0558519
-0.439881
0.447683
0.0639036
-0.0717057
-0.374722
0.377367
0.0792283
-0.0818728
-0.256922
0.224479
0.0715305
-0.039088
-0.0688087
0.0592013
0.00960747
-0.0520871
0.0589135
-0.374835
0.368009
-0.0580635
0.0542223
-0.453937
0.457778
-0.0487387
0.0441827
-0.5276
0.532156
-0.0396333
0.0357338
-0.620775
0.624675
-0.0315199
0.0275355
-0.734639
0.738624
-0.0232045
0.0193518
-0.87394
0.877793
-0.015355
0.0119445
-1.04333
1.04674
-0.00847778
0.00549152
-1.2486
1.25159
-0.00233198
-0.000608542
-1.49688
1.49982
0.00353925
-0.00666279
-1.49737
1.50049
0.00960057
-0.0130023
-1.25006
1.25346
0.0163466
-0.020267
-1.04568
1.0496
0.0240495
-0.0283046
-0.877173
0.881428
0.0322225
-0.0363677
-0.739012
0.743157
0.0402076
-0.0446969
-0.626002
0.630492
0.0492038
-0.0546406
-0.535048
0.540484
0.0584297
-0.0592206
-0.458118
0.458909
0.0523117
-0.031986
-0.336835
0.316509
0.0096474
-0.0687099
0.0590625
-0.0534156
0.0493114
0.00410423
-0.0331966
0.0436062
-0.358566
0.348156
-0.0472738
0.0466817
-0.459572
0.460164
-0.0437451
0.0405199
-0.536113
0.539339
-0.036829
0.0334686
-0.628361
0.631721
-0.0298423
0.0266258
-0.74198
0.745196
-0.0232129
0.0200699
-0.881255
0.884398
-0.0165536
0.0132748
-1.05014
1.05341
-0.00966033
0.00633397
-1.25481
1.25814
-0.0026276
-0.000916255
-1.50315
1.50669
0.00444003
-0.00808942
-1.50396
1.50761
0.0113422
-0.0148585
-1.25699
1.26051
0.0180385
-0.0214412
-1.05327
1.05668
0.0244788
-0.0277783
-0.885032
0.888332
0.0308953
-0.0344189
-0.746864
0.750387
0.0376926
-0.0412959
-0.634648
0.638251
0.0444474
-0.047303
-0.544664
0.54752
0.0478129
-0.0440339
-0.457068
0.453289
0.0334902
-0.0162781
-0.297265
0.280053
0.00414808
-0.0532369
0.0490888
-0.0461506
0.0436085
0.00254213
-0.0229464
0.0332565
-0.337583
0.327273
-0.0389712
0.0399267
-0.459899
0.458944
-0.0386986
0.0364065
-0.541961
0.544253
-0.0337993
0.0312763
-0.634653
0.637176
-0.0283157
0.0254847
-0.748261
0.751092
-0.0222764
0.019308
-0.887442
0.89041
-0.0160228
0.0129684
-1.05656
1.05962
-0.00951643
0.00622324
-1.26148
1.26477
-0.00243461
-0.00125261
-1.51033
1.51402
0.00491201
-0.00862338
-1.51133
1.51504
0.0118141
-0.0151311
-1.26394
1.26726
0.0180523
-0.0211873
-1.05989
1.06303
0.024018
-0.0270778
-0.891557
0.894617
0.0297765
-0.0325984
-0.753602
0.756424
0.0350024
-0.0374902
-0.641221
0.643709
0.0396851
-0.0407905
-0.549379
0.550485
0.0397112
-0.0338204
-0.448238
0.442347
0.0233188
-0.01023
-0.26499
0.251901
0.00259627
-0.045879
0.0432827
-0.0415073
0.0397326
0.00177466
-0.0167505
0.0259427
-0.317468
0.308276
-0.0324595
0.0345305
-0.457394
0.455323
-0.0340597
0.0323367
-0.546249
0.547972
-0.0300977
0.0279838
-0.63943
0.641544
-0.025603
0.0233152
-0.753631
0.755918
-0.0206314
0.0180207
-0.89322
0.89583
-0.0149941
0.0121066
-1.06259
1.06548
-0.00879852
0.00562635
-1.268
1.27117
-0.00194173
-0.00166006
-1.5177
1.5213
0.00522785
-0.00881301
-1.5187
1.52229
0.0118512
-0.0149833
-1.27048
1.27361
0.0176939
-0.0205161
-1.06603
1.06885
0.0229371
-0.025418
-0.897399
0.89988
0.0275335
-0.0297432
-0.758875
0.761084
0.0317089
-0.0337982
-0.645955
0.648045
0.0353839
-0.0356883
-0.551124
0.551429
0.0334286
-0.0266558
-0.435914
0.429141
0.0172102
-0.00726369
-0.240522
0.230575
0.00184087
-0.041122
0.0392811
-0.038209
0.0368934
0.00131555
-0.0126269
0.0204652
-0.299746
0.291908
-0.0271143
0.0299958
-0.452803
0.449921
-0.0302146
0.0291197
-0.549406
0.550501
-0.0271688
0.0252813
-0.643557
0.645444
-0.0231225
0.0210543
-0.758078
0.760146
-0.0186655
0.0163356
-0.898272
0.900602
-0.0135941
0.01091
-1.06827
1.07095
-0.00778022
0.00476133
-1.27427
1.27729
-0.00126757
-0.00212587
-1.52478
1.52818
0.00547547
-0.00883974
-1.52577
1.52913
0.0116831
-0.0145824
-1.27664
1.27954
0.0170374
-0.0195236
-1.0715
1.07399
0.0216257
-0.0237771
-0.902156
0.904307
0.0256339
-0.0275695
-0.763149
0.765085
0.0292677
-0.0310335
-0.649975
0.651741
0.0319276
-0.0314788
-0.551362
0.550913
0.0283335
-0.0213427
-0.422184
0.415193
0.0131863
-0.00548172
-0.221836
0.214132
0.00139598
-0.0376858
0.0362898
-0.035758
0.0347763
0.000981718
-0.00960201
0.0160836
-0.284765
0.278283
-0.0223398
0.0255946
-0.446799
0.443544
-0.0263583
0.0257225
-0.551305
0.551941
-0.0240715
0.0224052
-0.647204
0.648871
-0.020479
0.0186112
-0.762133
0.764
-0.0164277
0.0142959
-0.90285
0.904982
-0.0118094
0.00938742
-1.0735
1.07592
-0.00655048
0.00377239
-1.28018
1.28296
-0.000502558
-0.00270906
-1.53148
1.5347
0.00586212
-0.00895965
-1.53237
1.53547
0.0115152
-0.0140664
-1.28228
1.28483
0.0162061
-0.0183673
-1.07632
1.07848
0.0202037
-0.0220782
-0.906332
0.908206
0.0236771
-0.0253207
-0.766871
0.768514
0.026747
-0.0281479
-0.653317
0.654717
0.0285363
-0.0274579
-0.55012
0.549041
0.0238493
-0.0171535
-0.408308
0.401612
0.0102801
-0.00423213
-0.207322
0.201274
0.00107964
-0.0350677
0.0339881
-0.0339242
0.0331915
0.000732704
-0.00726822
0.012521
-0.272425
0.267172
-0.0181431
0.0214877
-0.44022
0.436875
-0.0226429
0.0221992
-0.552496
0.552939
-0.0207712
0.0192027
-0.6505
0.652069
-0.0174176
0.0157506
-0.765786
0.767453
-0.013847
0.0119887
-0.906978
0.908836
-0.00978565
0.00760694
-1.0782
1.08038
-0.00502357
0.00248235
-1.2856
1.28814
0.000504382
-0.00342518
-1.53776
1.54068
0.00627273
-0.00904129
-1.53841
1.54118
0.01129
-0.0134999
-1.2872
1.28941
0.0153117
-0.0171022
-1.08045
1.08224
0.0185937
-0.0201162
-0.909906
0.911429
0.0214504
-0.0228888
-0.770048
0.771486
0.0241585
-0.0252599
-0.655974
0.657075
0.0253785
-0.0238002
-0.547705
0.546127
0.0199939
-0.0138212
-0.395154
0.388981
0.008092
-0.00331351
-0.195895
0.191117
0.000852971
-0.0330308
0.0321779
-0.0325692
0.0320451
0.000524135
-0.00533536
0.00945218
-0.262499
0.258382
-0.0142765
0.017526
-0.433549
0.430299
-0.019021
0.0189004
-0.553244
0.553365
-0.0178453
0.0165011
-0.653557
0.654901
-0.0149281
0.0134178
-0.769062
0.770572
-0.0116472
0.00989226
-0.910632
0.912387
-0.00780094
0.00574125
-1.08246
1.08452
-0.00332592
0.000989267
-1.29054
1.29288
0.00170826
-0.00429207
-1.54341
1.546
0.00678651
-0.00920413
-1.54379
1.5462
0.0111691
-0.0131149
-1.29148
1.29343
0.0147083
-0.01627
-1.0839
1.08546
0.0175571
-0.0188557
-0.912804
0.914102
0.0199647
-0.0211196
-0.772788
0.773943
0.0221042
-0.0227219
-0.657974
0.658592
0.0224203
-0.020373
-0.544311
0.542263
0.0165365
-0.011034
-0.383131
0.377629
0.00633964
-0.00258717
-0.186887
0.183135
0.000672159
-0.0314282
0.0307561
-0.0316102
0.0312572
0.000353028
-0.00367293
0.0067303
-0.254799
0.251742
-0.0106209
0.0135312
-0.42719
0.424279
-0.0151617
0.0153205
-0.553335
0.553176
-0.0146291
0.0135034
-0.656132
0.657257
-0.0120934
0.0106918
-0.772075
0.773477
-0.00904212
0.00741945
-0.914103
0.915726
-0.00551167
0.00364599
-1.08645
1.08831
-0.00147295
-0.000636442
-1.29507
1.29718
0.00307719
-0.00542143
-1.54845
1.55079
0.00764888
-0.00972917
-1.54849
1.55057
0.0113647
-0.0129365
-1.2952
1.29677
0.014211
-0.0154629
-1.0869
1.08815
0.0165045
-0.0175433
-0.915302
0.91634
0.0184146
-0.0192764
-0.774913
0.775775
0.0199307
-0.0200414
-0.658932
0.659043
0.0193248
-0.016987
-0.540045
0.537707
0.0133535
-0.00864536
-0.372516
0.367808
0.00489448
-0.0020054
-0.179835
0.176946
0.000535792
-0.0301639
0.0296281
-0.0309945
0.0308185
0.000175939
-0.00207467
0.00411024
-0.249211
0.247175
-0.00699888
0.0093729
-0.421641
0.419267
-0.0108496
0.0110701
-0.55298
0.552759
-0.0104881
0.0095148
-0.658328
0.659301
-0.00831649
0.00716957
-0.774827
0.775974
-0.00581886
0.00444873
-0.917221
0.918591
-0.00278794
0.00115452
-1.08997
1.0916
0.00076628
-0.00261782
-1.29909
1.30094
0.00475767
-0.00678201
-1.55296
1.55498
0.00865261
-0.010342
-1.55247
1.55416
0.011595
-0.0127235
-1.29815
1.29928
0.0135756
-0.0143334
-1.08918
1.08993
0.014933
-0.0155272
-0.917143
0.917737
0.0160592
-0.0166407
-0.776443
0.777024
0.0170451
-0.0169309
-0.659027
0.658913
0.0159976
-0.0136217
-0.535377
0.533001
0.0103431
-0.00645114
-0.36354
0.359648
0.00357237
-0.0014643
-0.17448
0.172372
0.000402784
-0.0291729
0.0287702
-0.0307324
0.0307196
1.28312e-05
-0.000714184
0.00186188
-0.245609
0.244461
-0.00383969
0.0057272
-0.417154
0.415267
-0.00710224
0.00745152
-0.552507
0.552158
-0.00705894
0.00631655
-0.660184
0.660927
-0.00533287
0.0043737
-0.777084
0.778043
-0.00320613
0.00198277
-0.919834
0.921057
-0.000470362
-0.00106494
-1.09308
1.09462
0.00288331
-0.00464511
-1.30267
1.30443
0.00664157
-0.00847145
-1.55685
1.55868
0.0101256
-0.0115793
-1.55575
1.55721
0.0126249
-0.0135161
-1.30031
1.3012
0.0141183
-0.014592
-1.09056
1.09103
0.0148735
-0.0150703
-0.918088
0.918284
0.0151788
-0.0152929
-0.77729
0.777404
0.0152679
-0.0147504
-0.658613
0.658096
0.0134568
-0.0109268
-0.530621
0.528091
0.00792605
-0.00473805
-0.356156
0.352968
0.00256715
-0.00105061
-0.170616
0.169099
0.000293042
-0.0284444
0.0281513
-0.0307725
0.0308861
-0.000113564
0.000253603
0.000184482
-0.243714
0.243276
-0.00129861
0.00262566
-0.413661
0.412334
-0.00383573
0.00433073
-0.551706
0.551211
-0.00419012
0.00367892
-0.661569
0.66208
-0.00287508
0.00199684
-0.779077
0.779955
-0.000839543
-0.000424303
-0.922239
0.923503
0.00199542
-0.00354954
-1.09604
1.09759
0.00535749
-0.00706859
-1.30609
1.3078
0.00894741
-0.0106111
-1.56038
1.56205
0.0120545
-0.0132548
-1.55855
1.55975
0.0140275
-0.0146055
-1.302
1.30258
0.0149484
-0.0151421
-1.0914
1.09159
0.0151948
-0.0151436
-0.91836
0.918309
0.0150476
-0.0148406
-0.777221
0.777014
0.0143748
-0.0133507
-0.657253
0.656229
0.0116879
-0.00907665
-0.525562
0.52295
0.00640434
-0.00380533
-0.350155
0.347556
0.00208433
-0.000863481
-0.167804
0.166584
0.00023994
-0.0279126
0.0276726
-0.0310356
0.0312179
-0.000182288
0.000799232
-0.000821832
-0.243114
0.243137
0.00040465
0.000282697
-0.411354
0.410667
-0.00102426
0.00134667
-0.550752
0.55043
-0.00119879
0.000748693
-0.662571
0.663022
3.63953e-05
-0.000951785
-0.78097
0.781886
0.00219234
-0.00353716
-0.924726
0.926071
0.00515063
-0.00670083
-1.09904
1.10059
0.00844464
-0.0100452
-1.30939
1.31099
0.0117746
-0.0132695
-1.56358
1.56508
0.0144781
-0.0153671
-1.56081
1.5617
0.0158407
-0.0160809
-1.30305
1.30329
0.0161072
-0.0159715
-1.09163
1.0915
0.0157384
-0.0154228
-0.918101
0.917786
0.0150858
-0.0146016
-0.776549
0.776065
0.0138702
-0.0126107
-0.655048
0.653788
0.0108516
-0.00838672
-0.52048
0.518015
0.00602848
-0.00373805
-0.345224
0.342934
0.00213155
-0.000908341
-0.165432
0.164208
0.00025463
-0.0274535
0.0271989
-0.0314282
0.031668
-0.000239745
0.00118828
-0.00149998
-0.243296
0.243608
0.00153464
-0.00138944
-0.410323
0.410178
0.00127795
-0.00144725
-0.550326
0.550496
0.00198896
-0.00270758
-0.663636
0.664355
0.00370781
-0.00479404
-0.783
0.784087
0.00617918
-0.00756205
-0.927322
0.928705
0.00916279
-0.0106523
-1.10199
1.10348
0.0122919
-0.0137654
-1.31244
1.31391
0.015302
-0.0165471
-1.56639
1.56764
0.0174437
-0.0179594
-1.5624
1.56292
0.0180807
-0.017967
-1.30341
1.3033
0.0177223
-0.0173377
-1.09123
1.09085
0.0168808
-0.0162792
-0.91726
0.916658
0.0156693
-0.0149336
-0.77534
0.774605
0.0140581
-0.0127737
-0.652492
0.651207
0.0111151
-0.00881689
-0.515772
0.513474
0.006543
-0.00419836
-0.340749
0.338405
0.00245475
-0.0010686
-0.162969
0.161583
0.000304898
-0.0269507
0.0266458
-0.0319367
0.0322367
-0.000299967
0.00160861
-0.00214185
-0.244015
0.244548
0.00245095
-0.00256574
-0.410249
0.410364
0.00278594
-0.00330181
-0.550884
0.5514
0.00426462
-0.00537741
-0.665404
0.666517
0.00668928
-0.00800353
-0.785391
0.786705
0.00959751
-0.0111613
-0.929991
0.931555
0.0129152
-0.0145413
-1.10486
1.10649
0.0163281
-0.0178987
-1.31529
1.31686
0.019465
-0.0206453
-1.56875
1.56993
0.0214042
-0.0217003
-1.56329
1.56359
0.0215872
-0.0211297
-1.30305
1.3026
0.0205237
-0.0197544
-1.09029
1.08952
0.0190418
-0.0183016
-0.915916
0.915176
0.0176055
-0.0168001
-0.773672
0.772867
0.0158849
-0.0145436
-0.649908
0.648566
0.0127477
-0.0101661
-0.511263
0.508681
0.00755806
-0.00486396
-0.33602
0.333326
0.00286883
-0.0012722
-0.16016
0.158564
0.00037246
-0.0263441
0.0259717
-0.0325794
0.0329642
-0.000384725
0.00222653
-0.00308266
-0.245226
0.246082
0.00367238
-0.00389355
-0.410564
0.410785
0.00408176
-0.00455929
-0.55197
0.552447
0.00547756
-0.00661337
-0.667841
0.668976
0.00811954
-0.00972888
-0.788258
0.789868
0.011731
-0.0136692
-0.933097
0.935035
0.0158865
-0.0179737
-1.10814
1.11023
0.0202715
-0.0223005
-1.31851
1.32054
0.0243186
-0.0258402
-1.57117
1.57269
0.026856
-0.0273231
-1.5639
1.56436
0.0272843
-0.0268366
-1.30211
1.30167
0.0261563
-0.0252026
-1.08853
1.08757
0.024204
-0.023026
-0.914214
0.913036
0.0219856
-0.0209491
-0.771912
0.770875
0.0196812
-0.0177198
-0.647053
0.645091
0.0151627
-0.0117498
-0.505922
0.502509
0.00857863
-0.00550101
-0.330568
0.32749
0.00327726
-0.00148255
-0.156948
0.155154
0.000444724
-0.0256052
0.0251605
-0.0334085
0.033926
-0.000517431
0.00315198
-0.00452727
-0.24718
0.248555
0.00563415
-0.00612205
-0.411099
0.411587
0.00617407
-0.00631354
-0.552887
0.553027
0.0069025
-0.00786472
-0.670222
0.671184
0.00937289
-0.0111869
-0.791641
0.793455
0.0135756
-0.0160451
-0.936987
0.939456
0.0189792
-0.0217632
-1.11246
1.11525
0.0248348
-0.0275467
-1.32278
1.32549
0.0302752
-0.0323834
-1.57442
1.57652
0.0338689
-0.0347287
-1.56499
1.56585
0.0349108
-0.0346612
-1.30134
1.30109
0.0340748
-0.0331379
-1.08656
1.08562
0.0320081
-0.0305512
-0.911549
0.910093
0.0290685
-0.0270644
-0.769299
0.767295
0.0246027
-0.0211976
-0.642572
0.639167
0.0174613
-0.0131334
-0.49886
0.494532
0.00950561
-0.00615628
-0.324443
0.321093
0.00373065
-0.00171898
-0.15336
0.151348
0.000524011
-0.0247303
0.0242063
-0.0345137
0.0352132
-0.000699521
0.00438408
-0.00647809
-0.250254
0.252348
0.00841842
-0.00952509
-0.412321
0.413428
0.00987359
-0.00986122
-0.553273
0.553261
0.0101137
-0.0109177
-0.672272
0.673076
0.0124263
-0.0144328
-0.795325
0.797331
0.0173441
-0.0204234
-0.94196
0.945039
0.0240858
-0.0275519
-1.11818
1.12165
0.0313412
-0.0346482
-1.32839
1.33169
0.0379416
-0.0404562
-1.57879
1.58131
0.0421808
-0.0431278
-1.56677
1.56772
0.043324
-0.0429447
-1.30082
1.30044
0.0421704
-0.0409115
-1.08446
1.08321
0.0394392
-0.0374804
-0.908234
0.906275
0.0351885
-0.0319508
-0.764528
0.76129
0.028368
-0.0237232
-0.635188
0.630543
0.019192
-0.014393
-0.490213
0.485414
0.010548
-0.00698482
-0.317868
0.314305
0.00430792
-0.00200845
-0.14933
0.147031
0.000616443
-0.0237014
0.023085
-0.0360029
0.0369578
-0.000954874
0.00599646
-0.00899195
-0.254825
0.25782
0.0120006
-0.0140534
-0.415014
0.417066
0.0152597
-0.0157158
-0.55384
0.554296
0.0161539
-0.0170912
-0.674083
0.675021
0.0190015
-0.0215646
-0.799463
0.802026
0.0250547
-0.0286321
-0.948077
0.951655
0.0328194
-0.0367185
-1.12512
1.12902
0.0409026
-0.0444637
-1.335
1.33856
0.0478784
-0.0503212
-1.58375
1.58619
0.0517878
-0.0522935
-1.56845
1.56896
0.0519867
-0.0509757
-1.29978
1.29877
0.0495493
-0.0475603
-1.08154
1.07955
0.0453756
-0.0424876
-0.903663
0.900775
0.0392902
-0.0351234
-0.757305
0.753139
0.0308095
-0.0256836
-0.625678
0.620552
0.0209686
-0.0160843
-0.480935
0.476051
0.0120761
-0.0081675
-0.310897
0.306989
0.00509519
-0.00238365
-0.144706
0.141994
0.00072948
-0.0224976
0.0217681
-0.0380071
0.0393171
-0.00130993
0.00812179
-0.0122196
-0.261217
0.265315
0.0164934
-0.0197127
-0.41985
0.42307
0.0221492
-0.023729
-0.555966
0.557545
0.0252935
-0.0271316
-0.676535
0.678373
0.0299362
-0.0331277
-0.804584
0.807775
0.0371415
-0.0410995
-0.955067
0.959025
0.0456007
-0.0496813
-1.13275
1.13683
0.053926
-0.0573813
-1.3419
1.34536
0.0604499
-0.0623279
-1.58827
1.59015
0.0630304
-0.0625795
-1.56898
1.56853
0.0613169
-0.059203
-1.2972
1.29509
0.0567769
-0.0536956
-1.07694
1.07385
0.0505169
-0.0466435
-0.897118
0.893245
0.0427421
-0.0380862
-0.748403
0.743747
0.0335413
-0.0283912
-0.61545
0.6103
0.0237026
-0.0186941
-0.471577
0.466569
0.01432
-0.00982219
-0.30321
0.298713
0.00616214
-0.00287442
-0.139241
0.135953
0.000872197
-0.0210745
0.0202023
-0.0407089
0.0425437
-0.00183484
0.011138
-0.0166689
-0.26981
0.275341
0.0224492
-0.0269988
-0.427346
0.431896
0.030887
-0.033806
-0.560745
0.563664
0.0368607
-0.0400743
-0.681051
0.684265
0.0441255
-0.0482088
-0.810969
0.815052
0.0529643
-0.0574066
-0.96282
0.967263
0.0622304
-0.0664093
-1.14066
1.14484
0.0705249
-0.0736205
-1.34842
1.35152
0.0759917
-0.0769279
-1.59143
1.59237
0.076478
-0.0746798
-1.56735
1.56555
0.0721677
-0.0687299
-1.29227
1.28883
0.0651522
-0.0608675
-1.07004
1.06576
0.0567091
-0.0519852
-0.888627
0.883904
0.0475451
-0.0425663
-0.738566
0.733587
0.0378987
-0.03268
-0.605152
0.599933
0.0278147
-0.0223512
-0.461871
0.456407
0.017308
-0.0119016
-0.294341
0.288934
0.00743018
-0.00343676
-0.132637
0.128644
0.0010307
-0.0193694
0.0183387
-0.0444328
0.047089
-0.00265619
0.015638
-0.0230912
-0.281257
0.28871
0.0307056
-0.0367318
-0.437979
0.444005
0.0421104
-0.046476
-0.568556
0.572921
0.0512843
-0.0560834
-0.688379
0.693178
0.061686
-0.0669288
-0.819216
0.824459
0.0726615
-0.0777213
-0.971585
0.976644
0.0829141
-0.0871393
-1.14871
1.15293
0.0909746
-0.0935077
-1.35409
1.35662
0.0949138
-0.0946453
-1.59253
1.59226
0.0928033
-0.0894615
-1.56289
1.55955
0.0855806
-0.0807258
-1.28462
1.27977
0.0759366
-0.0704567
-1.06073
1.05525
0.0653731
-0.0598352
-0.878407
0.87287
0.0548465
-0.0494585
-0.727946
0.722558
0.0445038
-0.0389187
-0.594521
0.588936
0.0335245
-0.0271924
-0.451121
0.444789
0.0211259
-0.0144963
-0.28365
0.27702
0.00899522
-0.00411858
-0.124639
0.119762
0.00121877
-0.0173598
0.0161411
-0.049741
0.0538374
-0.00409644
0.0229334
-0.0331101
-0.296653
0.30683
0.043123
-0.0509686
-0.452436
0.460282
0.0580243
-0.0640172
-0.579756
0.585749
0.0708305
-0.0773457
-0.698822
0.705337
0.0845581
-0.0909575
-0.829738
0.836138
0.0976005
-0.103161
-0.981518
0.987079
0.108532
-0.112581
-1.15673
1.16078
0.115854
-0.117548
-1.35847
1.36017
0.117682
-0.115946
-1.59107
1.58933
0.1125
-0.107468
-1.55523
1.5502
0.102134
-0.0957963
-1.27409
1.26775
0.0897716
-0.0830931
-1.04901
1.04233
0.0770637
-0.070643
-0.866475
0.860055
0.064988
-0.0589906
-0.716263
0.710265
0.0534969
-0.0472003
-0.582855
0.576558
0.0409029
-0.0332895
-0.438475
0.430862
0.0258498
-0.0176576
-0.270553
0.262361
0.0108597
-0.00490112
-0.114949
0.10899
0.00142233
-0.0149954
0.0135731
-0.0577108
0.0649143
-0.00720351
0.036369
-0.0507351
-0.318147
0.332513
0.0643189
-0.0742498
-0.471834
0.481765
0.0828915
-0.090539
-0.594777
0.602425
0.0994475
-0.107448
-0.712422
0.720422
0.11582
-0.122891
-0.842352
0.849422
0.129882
-0.135411
-0.992209
0.997739
0.140383
-0.14373
-1.16413
1.16748
0.145904
-0.146278
-1.36092
1.36129
0.144692
-0.141118
-1.58645
1.58288
0.135801
-0.128901
-1.54407
1.53717
0.122007
-0.11413
-1.26054
1.25266
0.10684
-0.098935
-1.03486
1.02695
0.0919149
-0.0845441
-0.852679
0.845308
0.0781254
-0.0713656
-0.703078
0.696319
0.0651416
-0.0577995
-0.569375
0.562032
0.0501965
-0.0408453
-0.423039
0.413688
0.0316181
-0.0214833
-0.254342
0.244207
0.0130895
-0.00581195
-0.103301
0.0960239
0.00163584
-0.0122724
0.0106366
-0.0717683
0.0755086
-0.00374034
0.0266902
-0.0391388
-0.349715
0.362164
0.0509546
-0.060115
-0.496757
0.505917
0.0691562
-0.0785705
-0.613471
0.622886
0.0891701
-0.0986101
-0.728133
0.737573
0.109096
-0.118361
-0.855749
0.865014
0.127988
-0.136264
-1.00232
1.0106
0.144519
-0.151164
-1.16967
1.17632
0.157122
-0.161069
-1.36037
1.36432
0.16327
-0.162826
-1.57792
1.57748
0.159588
-0.153953
-1.52902
1.52338
0.147249
-0.138696
-1.24382
1.23527
0.130348
-0.120359
-1.01821
1.00822
0.111302
-0.101493
-0.836891
0.827082
0.0928454
-0.0836541
-0.688057
0.678866
0.0748859
-0.0647773
-0.553468
0.543359
0.0543791
-0.0417147
-0.403803
0.391139
0.0300767
-0.0184742
-0.234089
0.222487
0.0100228
-0.00385143
-0.0893818
0.0832104
0.00086286
-0.00929656
0.0084337
-0.0825501
0.0801962
0.00235386
0.00470788
-0.0124672
-0.377618
0.385377
0.0211952
-0.0282632
-0.519789
0.526856
0.0365516
-0.0448074
-0.633754
0.64201
0.054434
-0.0631928
-0.74691
0.755669
0.0724884
-0.0809076
-0.873822
0.882241
0.0896522
-0.0968692
-1.01859
1.02581
0.104258
-0.109849
-1.18277
1.18836
0.114776
-0.117687
-1.36792
1.37083
0.118528
-0.116959
-1.57607
1.5745
0.112688
-0.106122
-1.51674
1.51017
0.0985251
-0.0892049
-1.22604
1.21672
0.0802845
-0.0701433
-0.997707
0.987566
0.0607298
-0.050409
-0.815853
0.805533
0.0413561
-0.0322839
-0.666562
0.65749
0.0246228
-0.0166824
-0.530198
0.522258
0.00971305
-0.00351943
-0.377677
0.371483
-0.000164919
0.00224625
-0.21046
0.208379
-0.00265024
0.00185647
-0.0765275
0.0773213
-0.000792693
-0.00708198
0.00787467
-0.0830667
0.0800016
0.00306504
-0.00379617
-0.000133353
-0.396153
0.400083
0.00580997
-0.0113139
-0.537883
0.543387
0.0182262
-0.0253567
-0.651252
0.658382
0.0336001
-0.0411538
-0.763903
0.771457
0.0494015
-0.0567212
-0.890027
0.897347
0.0641036
-0.0705585
-1.0329
1.03935
0.0769738
-0.0819226
-1.19357
1.19852
0.0858592
-0.0879444
-1.37312
1.3752
0.0883262
-0.0862738
-1.57227
1.57021
0.0817017
-0.0750636
-1.50301
1.49637
0.0676666
-0.058916
-1.20735
1.1986
0.0502635
-0.0407657
-0.977123
0.967625
0.0320097
-0.0224886
-0.795134
0.785613
0.0143487
-0.00614347
-0.646641
0.638436
-0.000436739
0.00672792
-0.511623
0.505332
-0.0110323
0.013244
-0.362987
0.360775
-0.0127796
0.010464
-0.203424
0.20574
-0.00741817
0.00389183
-0.0769098
0.0804361
-0.00132937
-0.00788963
0.009219
-0.0813776
0.0784817
0.00289582
-0.00677931
0.0051297
-0.407958
0.409607
-0.00178986
-0.00243457
-0.551863
0.556088
0.00858452
-0.014579
-0.66578
0.671775
0.0216348
-0.0281364
-0.778731
0.785233
0.035197
-0.0414888
-0.904257
0.910549
0.0482308
-0.0537594
-1.04545
1.05098
0.0594624
-0.0634497
-1.20315
1.20714
0.0669152
-0.0687051
-1.37717
1.37896
0.0687797
-0.0664865
-1.56787
1.56557
0.0622815
-0.0562604
-1.48937
1.48335
0.049587
-0.041453
-1.18988
1.18174
0.033809
-0.0254708
-0.95811
0.949772
0.0176825
-0.00954955
-0.776187
0.768054
0.00225526
0.00480584
-0.62893
0.621869
-0.0102902
0.0148558
-0.496837
0.492271
-0.0174418
0.0180271
-0.355264
0.354679
-0.0160046
0.0120169
-0.204658
0.208646
-0.00823595
0.00411551
-0.0822042
0.0863246
-0.00133245
-0.00973112
0.0110636
-0.0796197
0.0771507
0.00246901
-0.00740044
0.00711946
-0.415722
0.416003
-0.00457027
0.00134879
-0.563298
0.56652
0.00366965
-0.00906853
-0.678074
0.683473
0.0150314
-0.0207873
-0.791322
0.797078
0.0269392
-0.0324511
-0.916527
0.922039
0.0383067
-0.043317
-1.05645
1.06146
0.0482564
-0.0520712
-1.21109
1.2149
0.0551999
-0.0568252
-1.38053
1.38215
0.0569089
-0.0548458
-1.56329
1.56122
0.0511059
-0.0455903
-1.47692
1.4714
0.039704
-0.032735
-1.17385
1.16688
0.0261505
-0.0188815
-0.94148
0.934211
0.0123397
-0.00542337
-0.759914
0.752997
-0.000538271
0.00636199
-0.614121
0.608298
-0.0106985
0.0141097
-0.485411
0.482
-0.0159907
0.0161093
-0.350976
0.350857
-0.0139496
0.0104056
-0.208655
0.212199
-0.00704902
0.00345976
-0.08816
0.0917492
-0.001144
-0.0115638
0.0127078
-0.0781382
0.0760702
0.00206796
-0.00694066
0.00697111
-0.420964
0.420934
-0.00547269
0.00271129
-0.572273
0.575034
0.0019619
-0.00659503
-0.6886
0.693233
0.0117861
-0.0168411
-0.802276
0.807331
0.0223658
-0.0273567
-0.927327
0.932318
0.0328049
-0.0372954
-1.06628
1.07077
0.0418748
-0.0454523
-1.21853
1.22211
0.0483843
-0.0499608
-1.38364
1.38522
0.050148
-0.0487339
-1.55924
1.55783
0.0454445
-0.040761
-1.46571
1.46103
0.0355946
-0.0294938
-1.16
1.1539
0.0239983
-0.0176591
-0.927094
0.920755
0.0120765
-0.00638256
-0.746258
0.740564
0.00146606
0.00327801
-0.60219
0.597446
-0.00678403
0.00959288
-0.47669
0.473881
-0.010765
0.0107438
-0.347911
0.347933
-0.00932603
0.00670179
-0.211761
0.214386
-0.0043662
0.00215497
-0.0926262
0.0948374
-0.000730673
-0.0129398
0.0136705
-0.0770933
0.0755058
0.00158748
-0.00583765
0.00606266
-0.424854
0.424629
-0.00470224
0.0025417
-0.580256
0.582416
0.00168454
-0.00589203
-0.697827
0.702034
0.0108672
-0.01529
-0.812179
0.816602
0.0202204
-0.0247239
-0.937387
0.941891
0.0299823
-0.034163
-1.07537
1.07955
0.0383611
-0.0418881
-1.2256
1.22912
0.0451497
-0.0467826
-1.38691
1.38855
0.0473018
-0.0461658
-1.55616
1.55503
0.0436549
-0.0393563
-1.45631
1.45201
0.034976
-0.0297573
-1.14786
1.14264
0.0248346
-0.0194842
-0.914636
0.909286
0.0146179
-0.0095511
-0.73479
0.729724
0.00554741
-0.00136611
-0.592298
0.588117
-0.00181418
0.004129
-0.469488
0.467173
-0.00531445
0.00566893
-0.345323
0.344969
-0.00495687
0.00349681
-0.213243
0.214703
-0.00222612
0.00113075
-0.0947282
0.0958235
-0.000425758
-0.0135586
0.0139844
-0.0765951
0.0753573
0.00123774
-0.00464324
0.00490314
-0.427979
0.427719
-0.00354899
0.00146126
-0.587279
0.589367
0.00244893
-0.00624603
-0.706197
0.709994
0.0105711
-0.0148785
-0.821114
0.825421
0.019497
-0.0241862
-0.946301
0.95099
0.0288082
-0.0328857
-1.08389
1.08797
0.0373083
-0.0407081
-1.23261
1.23601
0.0436519
-0.0458455
-1.39018
1.39237
0.0467433
-0.0461009
-1.55404
1.5534
0.0439786
-0.0404768
-1.44798
1.44448
0.0366218
-0.0319484
-1.13722
1.13255
0.0275894
-0.0227387
-0.903887
0.899036
0.018358
-0.0139377
-0.724718
0.720297
0.0100412
-0.00629641
-0.583548
0.579803
0.00343477
-0.000949508
-0.463294
0.460809
-0.000498258
0.0010525
-0.34217
0.341616
-0.00119484
0.000976734
-0.21281
0.213028
-0.000723981
0.000455172
-0.0948919
0.0951607
-0.00024422
-0.0136466
0.0138909
-0.0766324
0.0756004
0.00103203
-0.00332667
0.00337167
-0.430878
0.430833
-0.00220611
9.14739e-05
-0.593754
0.595869
0.00358015
-0.00728587
-0.714035
0.717741
0.0114646
-0.015413
-0.829643
0.833592
0.0201862
-0.0241553
-0.955201
0.95917
0.028798
-0.0327581
-1.09226
1.09622
0.0371456
-0.0408184
-1.23946
1.24314
0.0441469
-0.0462456
-1.39441
1.3965
0.0476205
-0.0475081
-1.55275
1.55264
0.046125
-0.0430138
-1.44089
1.43778
0.039629
-0.0353684
-1.12796
1.1237
0.0313794
-0.0267957
-0.893984
0.889401
0.0227681
-0.0184724
-0.715599
0.711303
0.0147762
-0.0111169
-0.575619
0.57196
0.00818185
-0.00578796
-0.457119
0.454726
0.00399942
-0.00289856
-0.338315
0.337214
0.0019578
-0.00115479
-0.21061
0.209807
0.000528736
-9.45071e-06
-0.093435
0.0929157
-0.000124881
-0.0132856
0.0134105
-0.0769366
0.0762208
0.000715815
-0.00216556
0.00182045
-0.433974
0.434319
-0.000816401
-0.00155836
-0.599398
0.601773
0.00483267
-0.00840224
-0.721407
0.724976
0.0124285
-0.0165232
-0.837506
0.841601
0.0207347
-0.0248899
-0.963405
0.967561
0.0295369
-0.0333393
-1.10065
1.10445
0.0378725
-0.0415643
-1.24667
1.25036
0.0450337
-0.0477331
-1.39906
1.40176
0.0496842
-0.0499367
-1.55261
1.55287
0.0488559
-0.0464528
-1.43483
1.43243
0.0435592
-0.039578
-1.11926
1.11528
0.0357478
-0.0315746
-0.884686
0.880512
0.0273623
-0.0233074
-0.706711
0.702656
0.0196546
-0.015894
-0.568069
0.564308
0.0129793
-0.0101873
-0.450846
0.448054
0.00807242
-0.00620495
-0.333683
0.331816
0.00469446
-0.00302443
-0.206858
0.205188
0.00158287
-0.000461522
-0.0907187
0.0895973
6.93197e-06
-0.0126138
0.0126069
-0.0776448
0.0770702
0.000574627
-0.00121699
0.000942585
-0.437298
0.437573
0.000632426
-0.00287993
-0.605182
0.60743
0.00627663
-0.00971554
-0.728292
0.731731
0.013601
-0.017325
-0.845454
0.849178
0.0216793
-0.0255538
-0.971776
0.975651
0.0301811
-0.0344381
-1.10874
1.11299
0.0386637
-0.0427219
-1.25414
1.2582
0.0466611
-0.0495151
-1.40441
1.40727
0.0519066
-0.052986
-1.55337
1.55445
0.0523859
-0.0506037
-1.4299
1.42812
0.0478755
-0.0442334
-1.11126
1.10762
0.0406515
-0.0364568
-0.875826
0.871631
0.0324371
-0.0283141
-0.698035
0.693912
0.0246236
-0.0206874
-0.560187
0.556251
0.0174768
-0.0144198
-0.444188
0.441131
0.0117013
-0.00919899
-0.327867
0.325365
0.00698985
-0.00460225
-0.201608
0.19922
0.002614
-0.000966726
-0.0870358
0.0853885
0.000169736
-0.0117403
0.0115705
-0.0785911
0.0781812
0.000409856
-0.000234559
-0.000202958
-0.440774
0.441212
0.00178506
-0.00425771
-0.610628
0.6131
0.00754511
-0.0108217
-0.734942
0.738219
0.0147897
-0.0183775
-0.852943
0.856531
0.0225972
-0.0266062
-0.980037
0.984046
0.0311582
-0.0354016
-1.11715
1.12139
0.0398704
-0.0439867
-1.26222
1.26634
0.048153
-0.0517882
-1.41045
1.41408
0.0546782
-0.0561063
-1.55551
1.55694
0.056221
-0.0547567
-1.42622
1.42476
0.0525349
-0.0493295
-1.10385
1.10064
0.0457086
-0.0415826
-0.867071
0.862945
0.0375823
-0.0332577
-0.689338
0.685014
0.0295419
-0.0253903
-0.552212
0.54806