/*--------------------------------*- C++ -*----------------------------------*\
| =========                 |                                                 |
| \\      /  F ield         | OpenFOAM: The Open Source CFD Toolbox           |
|  \\    /   O peration     | Version:  4.0                                   |
|   \\  /    A nd           | Web:      www.OpenFOAM.org                      |
|    \\/     M anipulation  |                                                 |
\*---------------------------------------------------------------------------*/
FoamFile
{
    version     2.0;
    format      ascii;
    class       volVectorField;
    location    "24";
    object      U;
}
// * * * * * * * * * * * * * * * * * * * * * * * * * * * * * * * * * * * * * //

dimensions      [0 1 -1 0 0 0 0];

internalField   nonuniform List<vector> 
8800
(
(0.980144 -0.0915206 0)
(1.00234 -0.0587271 0)
(0.99961 -0.0321248 0)
(0.999999 -0.0165141 0)
(1.00004 -0.00882348 0)
(1.00002 -0.00506949 0)
(1.00002 -0.00297139 0)
(1.00001 -0.00168359 0)
(1 -0.000811574 0)
(1.00005 -0.000128044 0)
(0.999998 0.000562034 0)
(1 0.00131386 0)
(1.00001 0.00234687 0)
(1.00002 0.00396221 0)
(1.00003 0.00671526 0)
(1.00004 0.0120287 0)
(0.999883 0.0230856 0)
(0.99908 0.0431548 0)
(1.00721 0.0790306 0)
(0.775022 0.0478396 0)
(0.358991 -0.0147482 0)
(1.0465 -0.0724838 0)
(1.0885 -0.0660238 0)
(1.04948 -0.0509128 0)
(1.02554 -0.0376858 0)
(1.01268 -0.0258768 0)
(1.00648 -0.0166807 0)
(1.00356 -0.0102254 0)
(1.00215 -0.00564762 0)
(1.00151 -0.00210803 0)
(1.00139 0.00105545 0)
(1.00174 0.00433839 0)
(1.00269 0.00823157 0)
(1.00471 0.0135618 0)
(1.00897 0.0212677 0)
(1.018 0.031774 0)
(1.03592 0.0445715 0)
(1.06753 0.0580425 0)
(1.09477 0.0699719 0)
(0.845746 0.0554927 0)
(0.217802 -0.00137859 0)
(1.0757 -0.0506265 0)
(1.09943 -0.0489091 0)
(1.06436 -0.0399958 0)
(1.03982 -0.0325344 0)
(1.0237 -0.0253196 0)
(1.01395 -0.0181421 0)
(1.00847 -0.0115979 0)
(1.00563 -0.00592544 0)
(1.00448 -0.000716698 0)
(1.00481 0.00433665 0)
(1.00667 0.00960814 0)
(1.01061 0.015587 0)
(1.01792 0.0223657 0)
(1.03054 0.0294989 0)
(1.05059 0.0366223 0)
(1.08021 0.0444227 0)
(1.10586 0.0517828 0)
(0.943572 0.0409342 0)
(0.217393 0.00139491 0)
(0.176696 -0.000626636 0)
(1.01948 -0.0354097 0)
(1.10576 -0.0413396 0)
(1.07798 -0.036307 0)
(1.05235 -0.0302362 0)
(1.03502 -0.0243668 0)
(1.02317 -0.0186424 0)
(1.01541 -0.0127664 0)
(1.01085 -0.00680819 0)
(1.00887 -0.000709203 0)
(1.00943 0.00534075 0)
(1.01252 0.0111973 0)
(1.01847 0.0169532 0)
(1.02808 0.0225392 0)
(1.04236 0.0281147 0)
(1.0633 0.0339546 0)
(1.09419 0.0399142 0)
(1.09486 0.0415201 0)
(0.83094 0.0226566 0)
(0.176005 0.000639742 0)
(0.154856 -0.000459844 0)
(0.958396 -0.025579 0)
(1.10441 -0.0349686 0)
(1.088 -0.0325565 0)
(1.06108 -0.028108 0)
(1.04296 -0.0231709 0)
(1.03058 -0.0179123 0)
(1.02201 -0.012482 0)
(1.0165 -0.00674418 0)
(1.01389 -0.00048921 0)
(1.0146 0.00580209 0)
(1.01846 0.0115874 0)
(1.02527 0.0169069 0)
(1.03546 0.0219922 0)
(1.05029 0.0268867 0)
(1.07232 0.0313483 0)
(1.10145 0.0352403 0)
(1.07049 0.0335493 0)
(0.743995 0.0142681 0)
(0.153827 0.000474668 0)
(0.140305 -0.000329259 0)
(0.901784 -0.0191115 0)
(1.09691 -0.0298747 0)
(1.09603 -0.0289314 0)
(1.06862 -0.0251302 0)
(1.0497 -0.0211437 0)
(1.03674 -0.016659 0)
(1.02777 -0.0116664 0)
(1.02186 -0.00620662 0)
(1.01895 -0.000106041 0)
(1.01966 0.00605067 0)
(1.02378 0.0115616 0)
(1.03089 0.0164608 0)
(1.04149 0.0208641 0)
(1.05696 0.0247687 0)
(1.0799 0.0283425 0)
(1.10402 0.0312077 0)
(1.03949 0.0274637 0)
(0.678313 0.0100298 0)
(0.138861 0.000347101 0)
(0.129766 -0.000247756 0)
(0.852584 -0.0145721 0)
(1.08477 -0.025579 0)
(1.10174 -0.0259315 0)
(1.07532 -0.022682 0)
(1.05572 -0.0191195 0)
(1.04224 -0.0151353 0)
(1.0329 -0.0105595 0)
(1.02675 -0.00538383 0)
(1.02365 0.000390113 0)
(1.02431 0.00616495 0)
(1.02848 0.0113159 0)
(1.03577 0.0157867 0)
(1.04673 0.0196394 0)
(1.06274 0.0230117 0)
(1.08629 0.0260923 0)
(1.1037 0.027995 0)
(1.00602 0.0226108 0)
(0.627905 0.00751164 0)
(0.12782 0.000269555 0)
(0.121906 -0.000184197 0)
(0.811378 -0.0111569 0)
(1.06975 -0.0215285 0)
(1.10494 -0.0227965 0)
(1.08119 -0.0201035 0)
(1.06127 -0.0169045 0)
(1.04752 -0.0132917 0)
(1.03783 -0.00915729 0)
(1.03132 -0.00443985 0)
(1.02798 0.000965374 0)
(1.02856 0.00639834 0)
(1.03284 0.0110444 0)
(1.04036 0.0149514 0)
(1.0515 0.0182857 0)
(1.06773 0.0211852 0)
(1.09152 0.0238308 0)
(1.10049 0.0248551 0)
(0.972897 0.0185346 0)
(0.588608 0.00577883 0)
(0.119351 0.000211008 0)
(0.116016 -0.000138953 0)
(0.777605 -0.00849095 0)
(1.05377 -0.0178344 0)
(1.10714 -0.0196809 0)
(1.08657 -0.0172918 0)
(1.06618 -0.0143304 0)
(1.05214 -0.0111724 0)
(1.04229 -0.00752628 0)
(1.03561 -0.0032475 0)
(1.0321 0.00171148 0)
(1.03251 0.00663364 0)
(1.03671 0.0107246 0)
(1.0442 0.0140237 0)
(1.05542 0.0167351 0)
(1.07194 0.0191554 0)
(1.09565 0.0215338 0)
(1.09509 0.0219419 0)
(0.941835 0.015164 0)
(0.55757 0.0045055 0)
(0.112718 0.000172355 0)
(0.111705 -9.88823e-05 0)
(0.750645 -0.00626743 0)
(1.03779 -0.0143079 0)
(1.10838 -0.0166989 0)
(1.09158 -0.0148588 0)
(1.0707 -0.0122634 0)
(1.05638 -0.00932877 0)
(1.04647 -0.00584728 0)
(1.03969 -0.0018532 0)
(1.03596 0.00261102 0)
(1.03618 0.00692243 0)
(1.04021 0.0104907 0)
(1.0475 0.0133996 0)
(1.05867 0.0157579 0)
(1.07564 0.0177664 0)
(1.09868 0.0195644 0)
(1.08777 0.0191566 0)
(0.913649 0.0122436 0)
(0.533119 0.00350394 0)
(0.1075 0.000140456 0)
(0.108684 -6.92691e-05 0)
(0.729965 -0.0043475 0)
(1.02281 -0.0108584 0)
(1.10821 -0.0134788 0)
(1.0956 -0.0122018 0)
(1.07474 -0.00985168 0)
(1.06016 -0.00712407 0)
(1.04993 -0.00396994 0)
(1.04289 -0.000349245 0)
(1.03892 0.00369129 0)
(1.03887 0.00753236 0)
(1.04268 0.0105226 0)
(1.04998 0.0128375 0)
(1.06129 0.014731 0)
(1.07828 0.0163141 0)
(1.09974 0.0174722 0)
(1.07877 0.0162828 0)
(0.888978 0.00968127 0)
(0.514016 0.00269114 0)
(0.10336 0.000121412 0)
(0.10687 -3.2152e-05 0)
(0.715371 -0.00251367 0)
(1.01013 -0.0073652 0)
(1.10744 -0.0097475 0)
(1.09924 -0.00869189 0)
(1.07859 -0.00669764 0)
(1.06394 -0.00445627 0)
(1.0536 -0.00170208 0)
(1.0464 0.00146874 0)
(1.04217 0.00500579 0)
(1.04176 0.00824981 0)
(1.04526 0.0105368 0)
(1.05228 0.0121021 0)
(1.06337 0.0131917 0)
(1.0803 0.0141418 0)
(1.09971 0.0148787 0)
(1.06931 0.0133082 0)
(0.868339 0.00731321 0)
(0.499709 0.00194842 0)
(0.100166 9.80432e-05 0)
(0.106273 4.73782e-06 0)
(0.706327 -0.000955588 0)
(0.999942 -0.00429284 0)
(1.10642 -0.00652904 0)
(1.10217 -0.00583581 0)
(1.08153 -0.0041988 0)
(1.06673 -0.00227282 0)
(1.05635 0.000255225 0)
(1.04905 0.00326506 0)
(1.04457 0.00655999 0)
(1.0437 0.00942105 0)
(1.04665 0.011325 0)
(1.05325 0.0124676 0)
(1.0641 0.0130028 0)
(1.08114 0.0131899 0)
(1.09873 0.0131841 0)
(1.0596 0.0109354 0)
(0.851367 0.00541772 0)
(0.489444 0.00139641 0)
(0.0978475 7.29743e-05 0)
(0.10664 4.65173e-05 0)
(0.701987 0.00014399 0)
(0.99216 -0.00172995 0)
(1.10457 -0.00371979 0)
(1.10425 -0.00346344 0)
(1.08426 -0.0021234 0)
(1.06959 -0.000199705 0)
(1.05928 0.00239363 0)
(1.05181 0.00538399 0)
(1.04685 0.0084875 0)
(1.04546 0.0109817 0)
(1.04793 0.012438 0)
(1.05396 0.0130438 0)
(1.06425 0.0131537 0)
(1.08077 0.0129853 0)
(1.09594 0.0121968 0)
(1.04924 0.00922876 0)
(0.837606 0.00432028 0)
(0.481804 0.00115861 0)
(0.0961116 5.75709e-05 0)
(0.107677 6.00325e-05 0)
(0.701021 0.00080501 0)
(0.987385 8.30951e-05 0)
(1.10276 -0.00114604 0)
(1.10588 -0.000894194 0)
(1.08695 0.000392832 0)
(1.07256 0.00246275 0)
(1.06225 0.0051331 0)
(1.05453 0.008011 0)
(1.04907 0.0108588 0)
(1.047 0.0129628 0)
(1.04868 0.013848 0)
(1.05406 0.0139213 0)
(1.06388 0.0134909 0)
(1.07969 0.0129141 0)
(1.09202 0.0116467 0)
(1.0391 0.0084636 0)
(0.82613 0.0041663 0)
(0.474962 0.00122442 0)
(0.0944972 6.04804e-05 0)
(0.109119 7.71149e-05 0)
(0.70191 0.0012161 0)
(0.98559 0.00126563 0)
(1.10231 0.00109227 0)
(1.10782 0.00200184 0)
(1.08988 0.00364961 0)
(1.07556 0.00595344 0)
(1.06496 0.00857686 0)
(1.05675 0.0112858 0)
(1.05068 0.0138099 0)
(1.04775 0.0153655 0)
(1.04871 0.0156287 0)
(1.05346 0.0152173 0)
(1.06261 0.0143931 0)
(1.07778 0.0133021 0)
(1.08767 0.0117497 0)
(1.0298 0.00874604 0)
(0.815307 0.00463317 0)
(0.467578 0.00143253 0)
(0.0926589 7.47496e-05 0)
(0.110972 9.17974e-05 0)
(0.704265 0.00169039 0)
(0.985799 0.00218099 0)
(1.10387 0.00255078 0)
(1.11123 0.0041708 0)
(1.09342 0.00633814 0)
(1.0788 0.00899925 0)
(1.06787 0.0118924 0)
(1.05918 0.0148244 0)
(1.0523 0.0173931 0)
(1.04833 0.018712 0)
(1.04831 0.0185394 0)
(1.0524 0.0174695 0)
(1.06097 0.0161857 0)
(1.07538 0.0149139 0)
(1.08334 0.0133201 0)
(1.02056 0.010069 0)
(0.803458 0.0053574 0)
(0.459089 0.00168935 0)
(0.0904268 9.59295e-05 0)
(0.113349 0.000112302 0)
(0.708211 0.00238839 0)
(0.986667 0.00331191 0)
(1.1061 0.00365959 0)
(1.11546 0.00520363 0)
(1.09765 0.00768621 0)
(1.08263 0.0109941 0)
(1.07124 0.0146588 0)
(1.06189 0.018446 0)
(1.05396 0.0217578 0)
(1.04869 0.0235155 0)
(1.04744 0.0234896 0)
(1.05045 0.0222908 0)
(1.0587 0.0204728 0)
(1.07285 0.0185776 0)
(1.07826 0.0164448 0)
(1.00907 0.0117939 0)
(0.789752 0.00602736 0)
(0.449447 0.00195423 0)
(0.0877273 0.000118871 0)
(0.116473 0.000147715 0)
(0.714655 0.00341738 0)
(0.988131 0.00522575 0)
(1.10764 0.00525445 0)
(1.11936 0.00633239 0)
(1.10253 0.00882066 0)
(1.08744 0.0128018 0)
(1.07576 0.0176337 0)
(1.06562 0.0226993 0)
(1.05633 0.0271814 0)
(1.04955 0.0297626 0)
(1.0469 0.0301842 0)
(1.04857 0.0291713 0)
(1.05538 0.0271552 0)
(1.06857 0.0243958 0)
(1.06968 0.0200581 0)
(0.993897 0.0133155 0)
(0.774539 0.00668327 0)
(0.438692 0.00225793 0)
(0.0845442 0.000142693 0)
(0.120659 0.000199888 0)
(0.724679 0.00480506 0)
(0.991572 0.00794144 0)
(1.10815 0.00839804 0)
(1.12273 0.00901868 0)
(1.10778 0.0114528 0)
(1.09356 0.0163012 0)
(1.08161 0.0223518 0)
(1.07036 0.0285985 0)
(1.05939 0.0340135 0)
(1.05077 0.0370128 0)
(1.0464 0.0374107 0)
(1.04637 0.036059 0)
(1.05127 0.0334265 0)
(1.06107 0.0291825 0)
(1.05626 0.0227099 0)
(0.97596 0.0145182 0)
(0.758352 0.00750972 0)
(0.426554 0.00263782 0)
(0.0808004 0.00016833 0)
(0.126321 0.000276518 0)
(0.739264 0.00658743 0)
(0.998808 0.011457 0)
(1.10953 0.0133954 0)
(1.1258 0.0142447 0)
(1.11392 0.0174562 0)
(1.10098 0.0231843 0)
(1.08855 0.0300987 0)
(1.07581 0.0369963 0)
(1.0627 0.0426073 0)
(1.05175 0.0451667 0)
(1.04533 0.0446744 0)
(1.0432 0.0421389 0)
(1.04546 0.0382062 0)
(1.05032 0.0324058 0)
(1.03995 0.0245825 0)
(0.957289 0.0159969 0)
(0.741111 0.0087285 0)
(0.412502 0.00313704 0)
(0.076411 0.000197014 0)
(0.133951 0.000386339 0)
(0.759303 0.00891206 0)
(1.01137 0.0158891 0)
(1.11479 0.0198822 0)
(1.13058 0.0224833 0)
(1.12154 0.0272233 0)
(1.10935 0.0338218 0)
(1.09603 0.0412431 0)
(1.08133 0.0482387 0)
(1.06555 0.0532773 0)
(1.0518 0.0545234 0)
(1.04282 0.0523072 0)
(1.03822 0.0479489 0)
(1.03726 0.042219 0)
(1.03757 0.0351508 0)
(1.02299 0.0268878 0)
(0.938636 0.018348 0)
(0.721932 0.010472 0)
(0.39585 0.00379484 0)
(0.0712257 0.000231301 0)
(0.144278 0.000552991 0)
(0.78593 0.012195 0)
(1.03047 0.0216254 0)
(1.12566 0.0280408 0)
(1.13934 0.033163 0)
(1.13102 0.0399085 0)
(1.11856 0.0477454 0)
(1.10365 0.0556973 0)
(1.08638 0.0624815 0)
(1.06733 0.0663677 0)
(1.05024 0.0656252 0)
(1.03831 0.0611432 0)
(1.03098 0.054695 0)
(1.0269 0.0471722 0)
(1.02373 0.0391186 0)
(1.00606 0.0306179 0)
(0.919177 0.0217677 0)
(0.699898 0.0127056 0)
(0.375941 0.00455853 0)
(0.0650696 0.000267658 0)
(0.158551 0.000818911 0)
(0.820913 0.0170348 0)
(1.05714 0.029419 0)
(1.14264 0.0383755 0)
(1.15294 0.046447 0)
(1.14324 0.0556413 0)
(1.12898 0.0650928 0)
(1.11135 0.0736628 0)
(1.09064 0.0799928 0)
(1.06762 0.0822881 0)
(1.04671 0.0791412 0)
(1.03158 0.0721652 0)
(1.0214 0.0635064 0)
(1.01459 0.0542918 0)
(1.00879 0.0452248 0)
(0.988454 0.0361892 0)
(0.897419 0.0263925 0)
(0.673473 0.0155205 0)
(0.352006 0.00548938 0)
(0.0578584 0.000308745 0)
(0.178964 0.00129134 0)
(0.867383 0.0247191 0)
(1.09301 0.0409635 0)
(1.16634 0.0527211 0)
(1.17172 0.0642013 0)
(1.15858 0.0759802 0)
(1.14067 0.0869583 0)
(1.11893 0.0958406 0)
(1.09379 0.101256 0)
(1.06614 0.101458 0)
(1.04102 0.0955342 0)
(1.02252 0.0858962 0)
(1.00952 0.0749704 0)
(1.0003 0.06402 0)
(0.992298 0.0537219 0)
(0.969004 0.0436947 0)
(0.871824 0.0322728 0)
(0.64154 0.0189789 0)
(0.323482 0.00657791 0)
(0.049504 0.00034718 0)
(0.208862 0.00236178 0)
(0.93106 0.0382403 0)
(1.14008 0.0602792 0)
(1.19728 0.0745215 0)
(1.19531 0.0897426 0)
(1.17641 0.103442 0)
(1.15297 0.115026 0)
(1.12575 0.123265 0)
(1.09529 0.12687 0)
(1.06253 0.124225 0)
(1.03301 0.115029 0)
(1.01107 0.102507 0)
(0.995346 0.0892552 0)
(0.983856 0.0764813 0)
(0.973659 0.0647631 0)
(0.946427 0.0533784 0)
(0.840864 0.0396207 0)
(0.603054 0.0231665 0)
(0.290577 0.00787621 0)
(0.0403013 0.000373213 0)
(0.250006 0.00882217 -1.26289e-20)
(1.01548 0.0657832 -9.80437e-21)
(1.1958 0.0930103 2.73141e-21)
(1.23386 0.110052 0)
(1.22105 0.126963 2.64759e-36)
(1.19464 0.140593 1.27739e-22)
(1.16444 0.151047 -1.23915e-21)
(1.13086 0.157338 0)
(1.09443 0.158214 4.76319e-35)
(1.05604 0.152143 -3.634e-21)
(1.02168 0.139423 0)
(0.995923 0.123971 -5.23124e-21)
(0.977111 0.10844 -1.60146e-20)
(0.962993 0.0939483 -7.75303e-21)
(0.950102 0.0810121 -2.44115e-21)
(0.918536 0.0685115 -1.47645e-21)
(0.800969 0.0516925 0)
(0.554401 0.0304579 1.05529e-21)
(0.252999 0.0113351 1.24934e-21)
(0.0319974 0.00109785 2.21673e-20)
(0.277293 0.0248219 -2.35781e-20)
(1.0848 0.109597 5.07204e-22)
(1.24256 0.140864 -1.35435e-21)
(1.26683 0.159224 0)
(1.24419 0.174568 2.0954e-21)
(1.21047 0.18656 1.11327e-21)
(1.17343 0.195138 -7.84124e-22)
(1.13331 0.199233 -6.12988e-21)
(1.09044 0.197517 0)
(1.04552 0.188352 1.5442e-20)
(1.00519 0.172535 1.71165e-20)
(0.974375 0.154534 5.51469e-21)
(0.951298 0.136998 2.17903e-20)
(0.93343 0.120791 3.20813e-20)
(0.91623 0.106285 0)
(0.877577 0.0919796 4.76102e-20)
(0.752114 0.0717623 6.92669e-20)
(0.505009 0.0447442 7.72237e-20)
(0.222892 0.0188489 -8.89973e-20)
(0.0261473 0.00225695 -1.64706e-21)
(0.275757 0.040365 0)
(1.12683 0.166476 -7.30985e-21)
(1.27588 0.200685 0)
(1.29225 0.218171 1.17404e-20)
(1.26226 0.230013 0)
(1.22222 0.238674 5.81823e-21)
(1.17895 0.244038 8.23305e-22)
(1.13272 0.244936 -9.03328e-21)
(1.08386 0.239941 -1.56691e-21)
(1.03285 0.227414 7.49751e-21)
(0.986937 0.208562 4.00568e-20)
(0.951598 0.188369 -3.03087e-22)
(0.92472 0.16934 -1.64038e-20)
(0.903536 0.152184 -3.18571e-20)
(0.883315 0.136854 3.86001e-20)
(0.842912 0.121448 -6.93806e-20)
(0.722954 0.0976426 -9.45264e-21)
(0.491255 0.0646867 0)
(0.228636 0.0300412 5.83972e-23)
(0.0299076 0.00421498 0)
(0.267975 0.0539701 -1.81944e-19)
(1.14779 0.226259 7.52701e-20)
(1.29701 0.265477 4.04218e-20)
(1.30893 0.281785 -7.71965e-21)
(1.27387 0.289808 1.17731e-20)
(1.22904 0.294513 -1.40283e-20)
(1.18073 0.29603 8.79023e-22)
(1.12926 0.293205 0)
(1.07506 0.284533 -2.93856e-20)
(1.01866 0.26838 0)
(0.967831 0.24649 -2.04925e-20)
(0.928589 0.224251 -2.88665e-20)
(0.898625 0.204009 -1.84566e-20)
(0.874957 0.186116 -2.38121e-20)
(0.852936 0.170251 0)
(0.813329 0.153917 0)
(0.704749 0.127726 -6.38473e-20)
(0.493744 0.0895787 1.27255e-20)
(0.243589 0.0446473 -7.39763e-21)
(0.0361804 0.00704848 -8.64192e-21)
(0.259859 0.0661367 1.35069e-19)
(1.1555 0.285697 0)
(1.3089 0.331523 -1.13637e-19)
(1.31794 0.346654 -2.91031e-20)
(1.27929 0.351029 -2.19926e-20)
(1.2309 0.351794 0)
(1.17864 0.349419 -2.6744e-21)
(1.12292 0.342729 8.08492e-21)
(1.0642 0.330257 1.28751e-20)
(1.00314 0.310359 3.82558e-20)
(0.948161 0.285371 0)
(0.90577 0.261036 -6.31391e-20)
(0.873451 0.239612 -4.04579e-20)
(0.847955 0.22112 -2.44208e-20)
(0.824819 0.204973 1.60163e-19)
(0.787023 0.187979 1.96799e-20)
(0.689846 0.16034 9.36779e-20)
(0.49766 0.116079 -4.5055e-19)
(0.256592 0.0607681 2.68013e-19)
(0.0415918 0.010269 -3.2304e-19)
(0.252571 0.077141 1.42939e-19)
(1.1549 0.342909 -2.65826e-20)
(1.31377 0.396758 2.00436e-20)
(1.32084 0.41098 5.4367e-20)
(1.27961 0.411956 3.32111e-20)
(1.2285 0.408997 1.691e-21)
(1.17311 0.402886 2.29527e-21)
(1.11391 0.392434 6.02012e-21)
(1.05143 0.376183 -2.84359e-20)
(0.98638 0.352543 0)
(0.927927 0.324359 -2.71076e-20)
(0.883052 0.297837 -1.5442e-21)
(0.849055 0.275062 -4.5406e-20)
(0.822443 0.255909 0)
(0.798906 0.239465 -3.50448e-20)
(0.763203 0.222143 -8.53623e-20)
(0.674701 0.193125 2.35421e-19)
(0.496818 0.142699 -2.33711e-19)
(0.262598 0.0764141 3.31992e-19)
(0.0447751 0.0133152 -3.4577e-19)
(0.246695 0.0873781 -4.15477e-22)
(1.14928 0.397296 3.26222e-20)
(1.31336 0.45991 9.59126e-20)
(1.31904 0.473584 -3.3367e-20)
(1.27589 0.471525 1.89795e-20)
(1.22266 0.465168 0)
(1.16476 0.455565 8.44641e-21)
(1.10267 0.441543 -4.62115e-21)
(1.03698 0.42165 -1.30078e-20)
(0.968525 0.39428 0)
(0.907082 0.362817 -2.65704e-20)
(0.860192 0.333915 -3.73807e-20)
(0.825028 0.309535 4.97933e-20)
(0.797834 0.28943 -3.19047e-20)
(0.774408 0.272385 -1.54833e-19)
(0.740763 0.254413 9.52219e-20)
(0.658923 0.223552 2.99027e-20)
(0.490754 0.166635 0)
(0.262145 0.0896818 -3.22781e-19)
(0.0455275 0.0157215 -1.18807e-20)
(0.242169 0.0971571 2.35079e-20)
(1.14073 0.448706 -3.75735e-20)
(1.30909 0.52042 -5.25035e-20)
(1.31373 0.533847 -1.02664e-19)
(1.2691 0.529135 9.23069e-20)
(1.21418 0.519723 -4.88038e-20)
(1.15422 0.50691 -1.76899e-20)
(1.08969 0.489561 -6.6873e-21)
(1.02119 0.466208 1.30182e-20)
(0.949725 0.435197 -9.41323e-20)
(0.885689 0.400356 -3.27316e-20)
(0.837046 0.368817 0)
(0.800962 0.34252 5.45424e-20)
(0.773528 0.32107 6.75134e-20)
(0.750428 0.303026 8.31976e-20)
(0.71856 0.284012 -1.04002e-19)
(0.641572 0.250819 -3.128e-20)
(0.480058 0.187179 3.69637e-20)
(0.257098 0.100338 0)
(0.044807 0.0175076 -2.59083e-20)
(0.238803 0.106613 -2.73316e-19)
(1.1307 0.497273 1.72183e-19)
(1.3021 0.578045 5.78211e-20)
(1.30582 0.591415 -7.84383e-20)
(1.25999 0.58441 5.53057e-20)
(1.20371 0.572278 -3.93595e-21)
(1.14204 0.556569 1.71659e-20)
(1.07541 0.536173 -2.99621e-21)
(1.00444 0.509577 -2.35621e-20)
(0.930201 0.47505 1.95458e-22)
(0.863767 0.436783 -9.78307e-20)
(0.813681 0.402408 9.54706e-20)
(0.776863 0.373884 -6.11926e-20)
(0.749281 0.350673 7.61798e-20)
(0.726568 0.331304 0)
(0.69611 0.31085 -5.64983e-20)
(0.62244 0.2747 -1.10602e-21)
(0.465481 0.204473 -1.61845e-19)
(0.248079 0.108317 -2.38583e-20)
(0.0427843 0.0185895 0)
(0.236414 0.11586 0)
(1.12002 0.543226 1.87168e-19)
(1.29316 0.632667 1.34927e-19)
(1.29603 0.646182 8.85807e-20)
(1.24919 0.637157 5.31549e-20)
(1.19181 0.622614 0)
(1.12871 0.604318 1.68821e-20)
(1.06025 0.581168 -1.19289e-21)
(0.987039 0.551596 5.01856e-20)
(0.910227 0.513736 -1.1575e-20)
(0.841489 0.472026 -7.17675e-20)
(0.78997 0.434612 4.78187e-20)
(0.752468 0.403601 -1.97565e-21)
(0.724755 0.378371 8.02317e-20)
(0.702449 0.357311 5.24778e-20)
(0.673068 0.334984 -1.23001e-19)
(0.601467 0.295205 1.48562e-19)
(0.447717 0.218229 4.42671e-20)
(0.235987 0.113785 1.82718e-19)
(0.0398182 0.0189741 -4.89303e-19)
(0.234921 0.125005 -7.02722e-20)
(1.10927 0.586744 1.0806e-19)
(1.28303 0.684364 -8.41658e-20)
(1.28491 0.698111 -1.02904e-19)
(1.23724 0.68728 0)
(1.17894 0.670612 4.2785e-20)
(1.11462 0.650031 -4.83431e-20)
(1.04454 0.624422 1.62011e-21)
(0.969292 0.59216 0)
(0.890003 0.551188 -1.7967e-19)
(0.818899 0.506088 1.95838e-19)
(0.765771 0.465501 0)
(0.727555 0.431662 7.24497e-20)
(0.699738 0.404106 -1.97467e-21)
(0.677763 0.381075 -1.65981e-19)
(0.649073 0.356488 6.53028e-20)
(0.578606 0.312532 0)
(0.427353 0.22857 2.39991e-19)
(0.221592 0.11684 0)
(0.0362287 0.0188027 -2.33018e-19)
(0.2341 0.134104 7.84287e-20)
(1.09874 0.628015 1.2354e-19)
(1.27205 0.733152 -8.82476e-20)
(1.2729 0.747198 0)
(1.22454 0.734767 7.33051e-20)
(1.16548 0.716234 0)
(1.10011 0.693637 6.4026e-20)
(1.0286 0.665862 6.56674e-21)
(0.951429 0.631214 5.30471e-21)
(0.869673 0.587395 -8.88194e-20)
(0.796088 0.539038 1.90298e-20)
(0.741238 0.495172 0)
(0.702089 0.458339 -1.54074e-19)
(0.674069 0.428163 2.03555e-21)
(0.652323 0.402841 0)
(0.623953 0.37557 2.39715e-21)
(0.553723 0.326791 2.18586e-19)
(0.404408 0.235488 -2.09666e-19)
(0.205247 0.117482 6.18994e-20)
(0.0321517 0.018024 0)
(0.233629 0.143004 0)
(1.08865 0.667101 1.38295e-19)
(1.26058 0.779189 1.0354e-19)
(1.26038 0.7935 -2.23914e-21)
(1.21143 0.779646 4.60148e-20)
(1.15173 0.759478 1.0074e-19)
(1.08546 0.735119 -2.04644e-20)
(1.01265 0.705461 1.88449e-21)
(0.933665 0.66873 3.12008e-20)
(0.84946 0.622393 -1.38744e-19)
(0.773269 0.570974 -3.19944e-21)
(0.716421 0.523815 -6.30829e-20)
(0.676104 0.483767 2.52447e-19)
(0.647684 0.450707 -2.41644e-21)
(0.626047 0.422776 -1.30647e-19)
(0.597624 0.392348 -2.38722e-19)
(0.526884 0.338061 0)
(0.379129 0.239139 0)
(0.187184 0.115651 6.76765e-20)
(0.0277756 0.0166718 -3.96322e-20)
(0.233728 0.151841 9.76797e-20)
(1.07907 0.703937 -3.03261e-19)
(1.24884 0.822584 -1.10955e-19)
(1.2476 0.837093 0)
(1.19815 0.821973 -1.53475e-21)
(1.13793 0.800371 1.21189e-19)
(1.07089 0.774487 -6.90663e-20)
(0.996907 0.743216 -2.80761e-20)
(0.916224 0.704721 3.26626e-20)
(0.829595 0.656213 -1.07119e-19)
(0.75059 0.602009 -1.65959e-19)
(0.691371 0.551614 1.68226e-19)
(0.649564 0.508195 0)
(0.620527 0.471931 -5.87442e-20)
(0.598853 0.441027 -1.43313e-19)
(0.570019 0.406877 -1.72786e-19)
(0.498044 0.346233 -2.09204e-19)
(0.351638 0.239375 6.24033e-20)
(0.167541 0.111225 -3.66122e-20)
(0.0230681 0.01474 3.70322e-22)
(0.233823 0.160527 0)
(1.07013 0.73885 0)
(1.23705 0.863396 2.53833e-21)
(1.23478 0.878067 0)
(1.18491 0.861831 -1.72919e-19)
(1.12426 0.838972 -1.07183e-19)
(1.05657 0.811768 0)
(0.981559 0.779142 -7.21763e-21)
(0.899291 0.739189 4.20014e-20)
(0.810232 0.688884 -2.46269e-19)
(0.728209 0.632238 0)
(0.666261 0.578781 -1.07819e-19)
(0.622496 0.531833 -2.96463e-21)
(0.592524 0.492018 -2.4401e-21)
(0.570634 0.457707 1.52853e-19)
(0.541049 0.419164 -4.26434e-22)
(0.467202 0.351263 -4.53845e-19)
(0.321861 0.236025 1.35614e-19)
(0.146504 0.104257 4.0199e-20)
(0.0181907 0.0123462 0)
(0.233927 0.168964 -3.59612e-19)
(1.06158 0.772032 -1.86349e-19)
(1.22532 0.901742 -2.78233e-19)
(1.22205 0.916525 3.87187e-19)
(1.17185 0.899285 -3.24289e-19)
(1.11088 0.875339 0)
(1.04265 0.847008 -5.88953e-20)
(0.966736 0.813261 1.33411e-20)
(0.882984 0.772147 3.76104e-21)
(0.791532 0.720438 1.9439e-20)
(0.706322 0.661759 2.0842e-19)
(0.64123 0.60549 -3.69068e-20)
(0.59499 0.554981 -1.55762e-19)
(0.563593 0.511253 -6.96721e-20)
(0.541243 0.472916 8.49743e-20)
(0.510635 0.429073 -3.19335e-22)
(0.434521 0.352888 1.24097e-19)
(0.290047 0.228921 -2.93828e-19)
(0.124706 0.0949853 3.49053e-19)
(0.0133709 0.0096259 5.0652e-20)
(0.233921 0.177087 1.32142e-19)
(1.05342 0.803524 -1.02069e-19)
(1.21377 0.937743 6.02066e-21)
(1.20955 0.952596 2.18858e-19)
(1.15909 0.934444 7.58652e-20)
(1.09787 0.909539 2.13915e-19)
(1.02923 0.880253 -2.62201e-20)
(0.952531 0.845591 6.42295e-20)
(0.86742 0.803595 -2.48608e-20)
(0.773646 0.750873 -1.35061e-19)
(0.685113 0.690639 0)
(0.616471 0.631913 -1.6605e-19)
(0.567127 0.577939 2.261e-19)
(0.53363 0.529954 0)
(0.51038 0.486725 -1.81831e-19)
(0.478537 0.436252 1.12294e-19)
(0.400108 0.350538 -1.33992e-19)
(0.257226 0.217959 -1.60242e-19)
(0.103122 0.0838896 -2.83432e-19)
(0.00885976 0.00676456 -2.21083e-19)
(0.234119 0.184978 -1.45377e-19)
(1.04548 0.833314 1.09122e-19)
(1.20246 0.971477 2.59723e-19)
(1.19735 0.986361 3.0095e-19)
(1.14671 0.967395 -1.58714e-19)
(1.08533 0.941657 1.47606e-19)
(1.01637 0.911554 -8.14353e-20)
(0.939019 0.876177 7.9944e-20)
(0.852681 0.833558 -8.81193e-21)
(0.756689 0.780197 1.29753e-19)
(0.664754 0.718911 4.43903e-19)
(0.592209 0.65819 0)
(0.5391 0.601012 0)
(0.502537 0.548578 -8.05939e-20)
(0.477547 0.499328 0)
(0.444174 0.440098 2.44122e-19)
(0.364016 0.343075 2.91953e-19)
(0.22466 0.202615 0)
(0.0831551 0.0714322 0)
(0.00497724 0.00405737 2.39883e-19)
(0.234016 0.192394 1.604e-19)
(1.0378 0.861412 1.30827e-19)
(1.19144 1.00307 1.86687e-19)
(1.1855 1.01795 -2.68747e-19)
(1.13476 0.998238 -1.76983e-19)
(1.07331 0.971767 -1.95843e-19)
(1.00414 0.940975 1.20697e-19)
(0.926252 0.905048 2.96123e-22)
(0.838829 0.862038 -4.84012e-21)
(0.740745 0.808396 -5.84774e-21)
(0.645422 0.746584 2.25197e-19)
(0.568676 0.684398 0)
(0.511176 0.624493 2.2858e-19)
(0.470319 0.567716 1.70206e-19)
(0.442039 0.511251 4.32849e-19)
(0.406252 0.440048 1.31796e-19)
(0.325791 0.328299 -1.60251e-19)
(0.194794 0.180785 -9.39127e-20)
(0.0690109 0.0576388 0)
(0.00306564 0.00212138 2.59924e-19)
(0.23412 0.199735 -3.529e-19)
(1.03036 0.88792 0)
(1.18073 1.03258 2.08669e-19)
(1.17404 1.04744 -2.20198e-19)
(1.1233 1.02707 2.004e-19)
(1.06182 0.999954 2.86181e-19)
(0.99256 0.968572 -2.79915e-19)
(0.914254 0.932241 2.64893e-21)
(0.82589 0.889044 0)
(0.725883 0.835435 -1.22374e-19)
(0.627258 0.773625 -4.68299e-19)
(0.546124 0.710582 2.27519e-20)
(0.483727 0.648576 3.11402e-19)
(0.437207 0.588039 0)
(0.403138 0.523522 2.92718e-19)
(0.362483 0.436482 0)
(0.28222 0.303191 0)
(0.168894 0.143755 -1.04014e-19)
(0.0768854 0.0316481 0)
(0.0255092 0.0105308 7.00823e-20)
(0.233887 0.206451 -3.85963e-19)
(1.02312 0.913155 0)
(1.17032 1.06023 3.37884e-19)
(1.16295 1.07507 0)
(1.11228 1.05413 -1.08781e-19)
(1.05083 1.02649 0)
(0.981565 0.994652 -2.09825e-20)
(0.902929 0.958091 -1.3934e-20)
(0.813752 0.914936 4.06519e-23)
(0.711958 0.861699 -1.20958e-19)
(0.610137 0.80045 1.23435e-20)
(0.524436 0.737292 1.8806e-19)
(0.456607 0.673809 3.0183e-19)
(0.402915 0.610586 4.30348e-20)
(0.359521 0.538123 2.29762e-19)
(0.309099 0.432108 0)
(0.22166 0.268867 3.48736e-19)
(0.118445 0.0801722 -2.05222e-19)
(0.0496336 0.0502922 2.35969e-19)
(-0.0670411 0.408668 -2.76062e-19)
(0.233639 0.212904 3.1471e-19)
(1.01586 0.936984 4.97683e-19)
(1.16013 1.08632 0)
(1.1521 1.10125 4.97157e-21)
(1.10154 1.07999 2.95609e-19)
(1.04008 1.05205 -5.53951e-19)
(0.97087 1.01999 -1.23497e-19)
(0.891906 0.983515 0)
(0.801936 0.940783 -2.22195e-20)
(0.698368 0.888471 -3.756e-21)
(0.593238 0.828518 0)
(0.502596 0.766294 0)
(0.428618 0.702049 2.6534e-19)
(0.366356 0.63732 -1.34651e-19)
(0.308893 0.558738 -2.30159e-19)
(0.241404 0.433671 0)
(0.126211 0.248614 1.7818e-19)
(0.0173874 0.429038 -2.06469e-19)
(0.0428461 1.81896 -1.07313e-19)
(0.0747594 2.77449 -1.39805e-19)
(0.233249 0.218505 -2.30373e-19)
(1.00881 0.959542 -6.28209e-19)
(1.15015 1.11085 1.94863e-19)
(1.14147 1.12584 1.87113e-19)
(1.09111 1.10442 0)
(1.02962 1.07634 -3.96659e-19)
(0.960651 1.04428 -2.07097e-19)
(0.88135 1.00809 9.35138e-21)
(0.790677 0.966072 -2.85145e-21)
(0.685458 0.915128 9.33442e-20)
(0.577127 0.857118 2.09999e-19)
(0.481554 0.797041 1.94411e-19)
(0.400963 0.732899 2.61008e-19)
(0.329892 0.66653 -3.08037e-19)
(0.257427 0.588033 -3.41592e-19)
(0.16315 0.460706 0)
(0.0651935 0.809023 0)
(0.122432 2.49888 9.22377e-20)
(0.12501 3.17431 0)
(0.127333 3.37756 2.10779e-19)
(0.235304 0.223743 0)
(1.00253 0.98096 0)
(1.14017 1.13367 0)
(1.13086 1.14861 5.21592e-20)
(1.0807 1.12721 2.63885e-19)
(1.01923 1.09923 -3.02849e-19)
(0.950803 1.06742 -1.48343e-19)
(0.871217 1.03171 1.06638e-20)
(0.779941 0.990671 -5.95832e-20)
(0.673249 0.941529 -1.01055e-20)
(0.561934 0.886114 3.80749e-19)
(0.461658 0.829302 -2.28429e-20)
(0.374193 0.767004 2.94958e-20)
(0.295412 0.695299 4.39502e-20)
(0.206826 0.625612 5.01146e-22)
(0.127994 0.919239 1.81858e-21)
(0.167238 2.63856 -4.68947e-19)
(0.184006 3.27473 -1.75417e-19)
(0.168384 3.4245 8.14807e-20)
(0.151071 3.44979 -8.43272e-20)
(0.15299 0.180678 1.31686e-19)
(0.99027 1.00416 0)
(1.12994 1.15499 -3.79412e-19)
(1.12096 1.17014 -4.81379e-19)
(1.07104 1.14912 5.50366e-19)
(1.00981 1.12136 3.21713e-19)
(0.941226 1.08951 1.73607e-19)
(0.861601 1.0545 -1.85176e-19)
(0.769918 1.01468 6.5834e-20)
(0.662094 0.967692 0)
(0.548182 0.915444 1.65076e-19)
(0.443632 0.862606 -1.456e-19)
(0.349296 0.806378 0)
(0.2645 0.726805 3.86768e-20)
(0.185704 0.829665 9.24342e-20)
(0.180841 2.34472 -1.14645e-19)
(0.254932 3.31166 1.27637e-19)
(0.230761 3.4436 6.15e-20)
(0.192216 3.46804 6.93782e-20)
(0.166389 3.47959 8.74002e-20)
(0.277097 0.260229 -2.44948e-19)
(0.973921 1.01203 0)
(1.11115 1.17858 3.9156e-19)
(1.107 1.20178 5.02227e-19)
(1.05541 1.18118 -5.66791e-19)
(0.993882 1.15394 -3.4255e-19)
(0.924653 1.12348 -2.68276e-19)
(0.844649 1.08963 -1.36872e-20)
(0.752009 1.05196 -9.74112e-20)
(0.642052 1.00883 1.26864e-20)
(0.52403 0.962978 6.45975e-21)
(0.412754 0.918177 1.12419e-19)
(0.304178 0.874694 2.41121e-20)
(0.235861 0.978404 -3.47605e-20)
(0.259467 2.2063 -8.1811e-20)
(0.331165 3.31332 5.89373e-20)
(0.317416 3.48091 -5.32617e-20)
(0.277054 3.50542 -2.97326e-20)
(0.2363 3.53458 3.28606e-21)
(0.178396 3.52684 -6.43916e-22)
(0.264234 0.256398 0)
(0.970753 1.03322 1.03201e-19)
(1.10311 1.20092 -7.76764e-20)
(1.09718 1.22411 -5.61225e-20)
(1.0457 1.2035 -3.72794e-19)
(0.984318 1.17648 3.34701e-19)
(0.914882 1.14617 1.80837e-19)
(0.834941 1.1131 -1.44109e-20)
(0.742196 1.0769 1.21802e-19)
(0.63165 1.03657 -1.42283e-20)
(0.512003 0.995499 -2.13189e-19)
(0.398121 0.957151 1.59519e-20)
(0.292423 0.937623 -2.08883e-20)
(0.277821 1.40381 -2.86906e-20)
(0.367269 3.02562 1.83583e-20)
(0.401211 3.47316 8.90628e-22)
(0.354865 3.54436 -1.97646e-20)
(0.314132 3.57034 -4.25709e-20)
(0.260002 3.59552 7.3961e-20)
(0.193852 3.59018 2.8198e-20)
(0.247312 0.254127 2.53348e-19)
(0.965791 1.05688 6.95629e-19)
(1.09447 1.22518 -2.22084e-19)
(1.0869 1.24785 -2.13228e-19)
(1.0355 1.22706 0)
(0.974338 1.20005 4.90897e-19)
(0.905001 1.16996 2.76386e-19)
(0.82541 1.13763 -1.52207e-20)
(0.732889 1.10295 1.2579e-20)
(0.622268 1.06559 5.49781e-20)
(0.50176 1.02951 -6.5617e-20)
(0.38708 0.998418 -1.08418e-19)
(0.297473 1.05115 -1.36388e-19)
(0.352189 2.0222 1.50632e-19)
(0.461644 3.35838 7.76553e-20)
(0.452967 3.54285 0)
(0.399023 3.59235 0)
(0.359818 3.63911 7.02179e-20)
(0.293489 3.70914 0)
(0.206552 3.67562 1.48812e-19)
(0.235802 0.254998 -3.70417e-19)
(0.958857 1.08144 -5.79279e-19)
(1.08439 1.25048 0)
(1.07536 1.27236 5.78893e-21)
(1.02413 1.25115 -3.6365e-19)
(0.963298 1.22401 7.3019e-19)
(0.894398 1.19414 1.86189e-19)
(0.815374 1.16244 -1.9137e-20)
(0.723339 1.12919 1.39078e-19)
(0.613051 1.09473 -6.79962e-21)
(0.492489 1.06376 0)
(0.379247 1.04195 0)
(0.32497 1.25491 -9.89536e-20)
(0.445763 2.69699 3.30486e-20)