/*--------------------------------*- C++ -*----------------------------------*\
| =========                 |                                                 |
| \\      /  F ield         | OpenFOAM: The Open Source CFD Toolbox           |
|  \\    /   O peration     | Version:  4.0                                   |
|   \\  /    A nd           | Web:      www.OpenFOAM.org                      |
|    \\/     M anipulation  |                                                 |
\*---------------------------------------------------------------------------*/
FoamFile
{
    version     2.0;
    format      ascii;
    class       volScalarField;
    location    "0.006";
    object      mag(U);
}
// * * * * * * * * * * * * * * * * * * * * * * * * * * * * * * * * * * * * * //

dimensions      [0 1 -1 0 0 0 0];

internalField   nonuniform List<scalar> 
1000
(
6.27254e-13
4.66794e-13
2.47984e-13
1.16698e-13
1.45873e-13
2.04222e-13
2.04222e-13
2.47984e-13
4.52206e-13
5.10556e-13
6.12667e-13
7.5854e-13
1.09405e-12
7.5854e-13
1.2691e-12
9.04413e-13
1.28368e-12
7.73127e-13
1.23992e-12
1.23992e-12
1.32744e-12
1.47332e-12
1.4879e-12
1.41497e-12
1.70671e-12
1.61919e-12
1.66295e-12
1.45873e-12
1.69213e-12
1.29827e-12
1.76506e-12
1.47332e-12
1.28368e-12
1.23992e-12
1.07946e-12
1.34203e-12
9.48175e-13
1.34203e-12
8.60651e-13
1.32744e-12
9.04413e-13
1.21075e-12
7.0019e-13
1.09405e-12
7.43952e-13
1.1524e-12
8.60651e-13
1.10863e-12
9.91936e-13
1.06487e-12
1.13781e-12
1.54625e-12
1.53167e-12
1.66295e-12
1.13781e-12
1.75048e-12
1.06487e-12
1.31286e-12
1.0357e-12
1.38579e-12
1.35662e-12
1.61919e-12
1.69213e-12
1.7213e-12
2.02763e-12
1.96929e-12
1.94011e-12
1.99846e-12
1.92552e-12
1.96929e-12
1.7213e-12
2.1881e-12
1.89635e-12
1.98387e-12
1.64836e-12
1.82341e-12
1.59002e-12
1.63378e-12
1.53167e-12
1.40038e-12
1.44414e-12
1.13781e-12
1.31286e-12
1.13781e-12
1.1524e-12
1.35662e-12
1.25451e-12
1.73589e-12
1.25451e-12
2.04222e-12
1.82341e-12
2.30479e-12
1.92552e-12
2.24644e-12
2.04222e-12
2.15892e-12
2.34856e-12
1.94011e-12
2.0714e-12
2.10057e-12
2.1881e-12
2.27562e-12
2.20268e-12
2.34856e-12
2.04222e-12
2.15892e-12
1.91094e-12
2.05681e-12
2.05681e-12
1.77965e-12
1.99846e-12
1.77965e-12
2.12975e-12
2.29021e-12
2.08598e-12
2.26103e-12
2.08598e-12
2.66948e-12
2.47984e-12
2.72783e-12
2.21727e-12
2.93205e-12
2.08598e-12
2.59654e-12
2.12975e-12
2.43608e-12
2.14433e-12
2.23186e-12
2.08598e-12
1.96929e-12
2.0714e-12
2.17351e-12
2.08598e-12
2.24644e-12
2.01305e-12
2.61113e-12
2.17351e-12
2.58195e-12
2.1881e-12
2.39232e-12
2.14433e-12
2.29021e-12
2.10057e-12
1.63378e-12
1.79424e-12
1.45873e-12
1.44414e-12
1.29827e-12
1.07946e-12
1.02111e-12
9.77349e-13
1.25451e-12
8.02302e-13
1.22533e-12
1.00652e-12
1.29827e-12
1.1524e-12
1.13781e-12
1.34203e-12
1.50249e-12
1.47332e-12
1.38579e-12
1.41497e-12
1.63378e-12
1.91094e-12
2.17351e-12
2.26103e-12
2.39232e-12
2.29021e-12
2.47984e-12
2.1881e-12
2.30479e-12
2.24644e-12
2.15892e-12
2.14433e-12
1.7213e-12
1.85259e-12
1.82341e-12
1.85259e-12
1.80883e-12
1.63378e-12
1.4879e-12
1.13781e-12
1.38579e-12
8.89825e-13
1.25451e-12
1.06487e-12
1.10863e-12
7.5854e-13
6.12667e-13
2.1659e-26
1.00652e-12
2.30479e-12
5.10556e-12
9.72973e-12
1.82341e-11
3.34633e-11
5.94287e-11
1.04795e-10
1.82166e-10
3.14546e-10
5.40095e-10
9.21173e-10
1.56409e-09
2.6404e-09
4.43746e-09
7.41859e-09
1.23445e-08
2.04376e-08
3.36725e-08
5.52005e-08
9.00409e-08
1.46131e-07
2.35955e-07
3.79037e-07
6.05733e-07
9.6295e-07
1.52275e-06
2.39516e-06
3.74713e-06
5.83037e-06
9.02205e-06
1.38836e-05
2.12451e-05
3.23262e-05
4.8906e-05
7.35621e-05
0.000110003
0.000163526
0.000241643
0.000354924
0.000518134
0.000751736
0.00108386
0.00155289
0.00221069
0.00312685
0.00439386
0.00613353
0.00850485
0.0117133
0.0160221
0.0217644
0.0293583
0.039322
0.0522914
0.069037
0.0904816
0.117716
0.152015
0.194843
0.247865
0.31294
0.392118
0.487614
0.601791
0.737116
0.896118
1.08134
1.29527
1.54031
1.81869
2.13242
2.48326
2.87265
3.30171
3.77121
4.28159
4.83291
5.42493
6.0571
6.72859
7.43836
8.18516
8.96757
9.78407
10.6331
11.5129
12.422
13.3586
14.3211
15.3079
16.3175
17.3485
18.3995
19.469
20.556
21.6593
22.7777
23.9104
25.0562
26.2144
27.3842
28.5649
29.7557
30.956
32.1653
33.383
34.6087
35.8417
37.0819
38.3286
39.5817
40.8406
42.1052
43.3751
44.6501
45.9299
47.2142
48.5028
49.7956
51.0922
52.3926
53.6965
55.0038
56.3143
57.6278
58.9442
60.2634
61.5852
62.9096
64.2363
65.5653
66.8965
68.2297
69.565
70.9021
72.241
73.5816
74.9239
76.2677
77.613
78.9597
80.3078
81.6572
83.0078
84.3596
85.7125
87.0665
88.4215
89.7775
91.1344
92.4922
93.8509
95.2104
96.5707
97.9317
99.2934
100.656
102.019
103.383
104.747
106.112
107.477
108.843
110.209
111.576
112.943
114.311
115.679
117.047
118.416
119.785
121.154
122.524
123.894
125.264
126.635
128.005
129.376
130.747
132.119
133.49
134.862
136.233
137.605
138.977
140.349
141.721
143.093
144.465
145.838
147.21
148.582
149.954
151.326
152.698
154.071
155.443
156.815
158.186
159.558
160.93
162.301
163.673
165.044
166.415
167.786
169.157
170.527
171.897
173.267
174.637
176.006
177.375
178.744
180.112
181.48
182.848
184.215
185.582
186.949
188.315
189.681
191.046
192.41
193.774
195.138
196.501
197.863
199.224
200.585
201.945
203.305
204.663
206.021
207.378
208.734
210.089
211.443
212.796
214.148
215.499
216.849
218.197
219.544
220.89
222.234
223.576
224.917
226.256
227.594
228.929
230.263
231.594
232.923
234.25
235.574
236.896
238.215
239.531
240.844
242.153
243.459
244.761
246.06
247.354
248.643
249.928
251.208
252.482
253.751
255.014
256.27
257.519
258.76
259.994
261.219
262.436
263.642
264.838
266.023
267.197
268.357
269.504
270.637
271.754
272.855
273.938
275.003
276.047
277.07
278.071
279.048
279.999
280.923
281.819
282.685
283.52
284.323
285.091
285.824
286.52
287.179
287.799
288.381
288.923
289.425
289.888
290.311
290.697
291.044
291.356
291.633
291.877
292.091
292.276
292.436
292.571
292.686
292.782
292.861
292.926
292.979
293.022
293.057
293.084
293.106
293.123
293.137
293.147
293.156
293.163
293.169
293.173
293.177
293.18
293.183
293.185
293.186
293.188
293.189
293.19
293.191
293.192
293.193
293.193
293.194
293.194
293.194
293.194
293.195
293.195
293.195
293.195
293.195
293.195
293.195
293.195
293.195
293.195
293.195
293.195
293.195
293.195
293.195
293.195
293.195
293.195
293.195
293.195
293.195
293.195
293.195
293.195
293.196
293.196
293.196
293.196
293.196
293.196
293.196
293.196
293.196
293.196
293.196
293.196
293.196
293.196
293.196
293.196
293.196
293.196
293.196
293.196
293.196
293.196
293.196
293.196
293.196
293.196
293.196
293.196
293.196
293.196
293.196
293.196
293.196
293.196
293.196
293.197
293.197
293.197
293.197
293.197
293.197
293.197
293.197
293.197
293.197
293.197
293.197
293.197
293.197
293.197
293.197
293.197
293.197
293.197
293.197
293.198
293.197
293.197
293.198
293.198
293.197
293.197
293.197
293.197
293.197
293.197
293.196
293.196
293.196
293.196
293.196
293.196
293.196
293.196
293.196
293.196
293.195
293.195
293.195
293.195
293.195
293.195
293.195
293.195
293.195
293.195
293.195
293.195
293.195
293.195
293.195
293.195
293.195
293.195
293.195
293.195
293.195
293.194
293.193
293.191
293.189
293.186
293.182
293.178
293.174
293.17
293.167
293.164
293.162
293.161
293.162
293.163
293.166
293.169
293.172
293.176
293.179
293.182
293.185
293.187
293.189
293.191
293.192
293.192
293.192
293.193
293.193
293.193
293.193
293.192
293.192
293.192
293.192
293.192
293.192
293.192
293.192
293.192
293.192
293.192
293.192
293.192
293.192
293.191
293.191
293.191
293.191
293.19
293.19
293.19
293.19
293.19
293.19
293.19
293.19
293.19
293.19
293.19
293.19
293.19
293.189
293.189
293.189
293.189
293.188
293.188
293.188
293.188
293.188
293.188
293.188
293.188
293.188
293.188
293.188
293.188
293.188
293.187
293.187
293.187
293.186
293.186
293.185
293.185
293.185
293.184
293.184
293.184
293.184
293.185
293.185
293.185
293.185
293.185
293.185
293.184
293.184
293.183
293.183
293.182
293.181
293.181
293.18
293.18
293.18
293.18
293.18
293.181
293.181
293.181
293.181
293.181
293.18
293.18
293.179
293.178
293.178
293.177
293.176
293.175
293.174
293.174
293.174
293.174
293.175
293.175
293.176
293.176
293.176
293.175
293.175
293.174
293.173
293.172
293.171
293.169
293.168
293.167
293.166
293.165
293.164
293.164
293.165
293.167
293.169
293.169
293.168
293.167
293.164
293.16
293.155
293.149
293.143
293.132
293.116
293.083
293.035
292.918
292.801
292.456
292.105
290.994
288.631
283.17
270.145
241.367
186.629
113.349
50.6892
17.3127
4.99166
1.31068
0.330647
0.0823791
0.0204585
0.00507694
0.00125967
0.000312532
7.75404e-05
1.92381e-05
4.77304e-06
1.18421e-06
2.93808e-07
7.2896e-08
1.80861e-08
4.48795e-09
1.11408e-09
2.76955e-10
6.93627e-11
1.76069e-11
5.13474e-12
1.64837e-12
1.19616e-12
8.31477e-13
7.43953e-13
7.73128e-13
8.46065e-13
8.02303e-13
8.1689e-13
4.52207e-13
6.71017e-13
2.62572e-13
1.60461e-13
1.31286e-13
1.60461e-13
2.91746e-13
1.16699e-13
1.89635e-13
2.91746e-14
1.75048e-13
1.45873e-13
2.91746e-14
1.45873e-13
1.31286e-13
4.3762e-13
2.91746e-13
7.00191e-13
4.52207e-13
6.12667e-13
2.04222e-13
3.64683e-13
2.04222e-13
1.75048e-13
5.10556e-13
2.33397e-13
4.08445e-13
1.16699e-13
5.83493e-14
1.75048e-13
2.47984e-13
1.75048e-13
7.29366e-14
1.60461e-13
4.08445e-13
3.20921e-13
4.23032e-13
1.45873e-14
1.60461e-13
2.1881e-13
7.29366e-14
1.16699e-13
1.75048e-13
3.06334e-13
1.16699e-13
3.20921e-13
2.91746e-14
4.3762e-14
1.89635e-13
1.45873e-13
5.83493e-14
7.29366e-14
1.02111e-13
2.04222e-13
2.1881e-13
3.7927e-13
7.29366e-14
1.60461e-13
8.75239e-14
7.29366e-14
1.89635e-13
2.91746e-14
5.83493e-14
1.29373e-27
2.1881e-13
3.20921e-13
3.50096e-13
4.3762e-13
4.52207e-13
5.9808e-13
5.25144e-13
6.85604e-13
6.71017e-13
9.19001e-13
8.31477e-13
1.16699e-12
9.77351e-13
1.23992e-12
8.89827e-13
6.85604e-13
7.43953e-13
5.83493e-13
6.85604e-13
6.71017e-13
8.89827e-13
9.77351e-13
9.48176e-13
1.02111e-12
1.12322e-12
1.22533e-12
1.21075e-12
1.31286e-12
1.34203e-12
1.18157e-12
1.21075e-12
9.77351e-13
9.77351e-13
8.89827e-13
9.77351e-13
8.60652e-13
9.04414e-13
6.85604e-13
9.48176e-13
6.27255e-13
6.27255e-13
4.3762e-13
4.23032e-13
2.47984e-13
4.52207e-13
4.08445e-13
4.23032e-13
2.47984e-13
3.64683e-13
8.75239e-14
5.83493e-14
1.31286e-13
2.91746e-13
1.45873e-13
3.68135e-26
2.1881e-13
4.3762e-14
1.75048e-13
1.45873e-14
1.75048e-13
7.29366e-14
1.45873e-13
1.75048e-13
1.60461e-13
1.02111e-13
1.45873e-13
1.02111e-13
1.45873e-14
2.47984e-13
1.45873e-13
7.29366e-14
4.3762e-14
)
;

boundaryField
{
    sides
    {
        type            calculated;
        value           nonuniform List<scalar> 2(4.3762e-14 6.27254e-13);
    }
    empty
    {
        type            empty;
    }
}


// ************************************************************************* //
