/*--------------------------------*- C++ -*----------------------------------*\
| =========                 |                                                 |
| \\      /  F ield         | OpenFOAM: The Open Source CFD Toolbox           |
|  \\    /   O peration     | Version:  4.0                                   |
|   \\  /    A nd           | Web:      www.OpenFOAM.org                      |
|    \\/     M anipulation  |                                                 |
\*---------------------------------------------------------------------------*/
FoamFile
{
    version     2.0;
    format      ascii;
    class       volScalarField;
    location    "0.006";
    object      p;
}
// * * * * * * * * * * * * * * * * * * * * * * * * * * * * * * * * * * * * * //

dimensions      [1 -1 -2 0 0 0 0];

internalField   nonuniform List<scalar> 
1000
(
100000
100000
100000
100000
100000
100000
100000
100000
100000
100000
100000
100000
100000
100000
100000
100000
100000
100000
100000
100000
100000
100000
100000
100000
100000
100000
100000
100000
100000
100000
100000
100000
100000
100000
100000
100000
100000
100000
100000
100000
100000
100000
100000
100000
100000
100000
100000
100000
100000
100000
100000
100000
100000
100000
100000
100000
100000
100000
100000
100000
100000
100000
100000
100000
100000
100000
100000
100000
100000
100000
100000
100000
100000
100000
100000
100000
100000
100000
100000
100000
100000
100000
100000
100000
100000
100000
100000
100000
100000
100000
100000
100000
100000
100000
100000
100000
100000
100000
100000
100000
100000
100000
100000
100000
100000
100000
100000
100000
100000
100000
100000
100000
100000
100000
100000
100000
100000
100000
100000
100000
100000
100000
100000
100000
100000
100000
100000
100000
100000
100000
100000
100000
100000
100000
100000
100000
100000
100000
100000
100000
100000
100000
100000
100000
100000
100000
100000
100000
100000
100000
100000
100000
100000
100000
100000
100000
100000
100000
100000
100000
100000
100000
100000
100000
100000
100000
100000
100000
100000
100000
100000
100000
100000
100000
100000
100000
100000
100000
100000
100000
100000
100000
100000
100000
100000
100000
100000
100000
100000
100000
100000
100000
100000
100000
100000
100000
100000
100000
100000
100000
100000
100000
100000
100000
100000
100000
100000
100000
100000
100000
100000
100000
100000
100000
100000
100000
100000
100000
100000
100000
100000
100000
100000
100000
100000
100000
100000
100000
99999.9
99999.9
99999.9
99999.8
99999.7
99999.6
99999.4
99999.2
99998.8
99998.4
99997.7
99996.9
99995.7
99994.1
99991.9
99989.1
99985.4
99980.6
99974.4
99966.4
99956.3
99943.5
99927.6
99907.9
99883.6
99854.1
99818.6
99776.1
99725.7
99666.5
99597.6
99518
99426.9
99323.5
99207
99076.8
98932.5
98773.7
98600.2
98411.8
98208.7
97990.9
97758.8
97512.8
97253.4
96981
96696.4
96400.1
96092.8
95775.3
95448.2
95112.2
94768
94416.2
94057.4
93692.3
93321.3
92945.1
92564.2
92178.9
91789.7
91397.1
91001.4
90602.9
90201.9
89798.8
89393.8
88987.2
88579.2
88169.9
87759.7
87348.6
86936.9
86524.6
86112
85699.1
85286.1
84873.1
84460.1
84047.4
83634.9
83222.8
82811.2
82400
81989.4
81579.5
81170.3
80761.8
80354.2
79947.4
79541.6
79136.7
78732.8
78329.9
77928.2
77527.5
77128
76729.6
76332.5
75936.6
75541.9
75148.5
74756.5
74365.7
73976.3
73588.2
73201.5
72816.3
72432.4
72049.9
71668.8
71289.2
70911.1
70534.4
70159.1
69785.4
69413.1
69042.3
68673
68305.2
67938.9
67574.2
67210.9
66849.2
66489
66130.3
65773.1
65417.4
65063.3
64710.7
64359.7
64010.2
63662.2
63315.7
62970.8
62627.4
62285.6
61945.3
61606.5
61269.2
60933.5
60599.2
60266.6
59935.4
59605.8
59277.6
58951
58625.9
58302.4
57980.3
57659.7
57340.7
57023.1
56707.1
56392.5
56079.5
55767.9
55457.8
55149.2
54842.1
54536.5
54232.3
53929.7
53628.5
53328.7
53030.4
52733.6
52438.3
52144.4
51851.9
51560.9
51271.3
50983.2
50696.6
50411.3
50127.5
49845.2
49564.2
49284.7
49006.6
48729.9
48454.6
48180.8
47908.3
47637.3
47367.7
47099.5
46832.6
46567.2
46303.2
46040.6
45779.4
45519.5
45261.1
45004
44748.4
44494.1
44241.3
43989.8
43739.7
43491
43243.7
42997.8
42753.3
42510.2
42268.5
42028.1
41789.2
41551.7
41315.6
41081
40847.7
40615.9
40385.5
40156.6
39929.1
39703.1
39478.5
39255.5
39033.9
38813.8
38595.3
38378.2
38162.8
37948.9
37736.6
37525.9
37316.9
37109.5
36903.8
36699.8
36497.6
36297.2
36098.6
35901.9
35707.1
35514.3
35323.5
35134.7
34948.2
34763.8
34581.7
34401.9
34224.6
34049.8
33877.6
33708.1
33541.5
33377.8
33217.2
33059.7
32905.6
32754.9
32607.8
32464.5
32325.1
32189.8
32058.7
31932
31809.9
31692.6
31580.1
31472.7
31370.4
31273.5
31181.9
31095.8
31015.3
30940.3
30870.9
30807.1
30748.6
30695.6
30647.6
30604.7
30566.5
30532.8
30503.4
30477.8
30455.8
30437
30421.2
30407.9
30396.9
30387.9
30380.5
30374.5
30369.8
30365.9
30362.9
30360.5
30358.6
30357
30355.8
30354.9
30354.1
30353.5
30352.9
30352.5
30352.1
30351.8
30351.6
30351.4
30351.2
30351
30350.9
30350.8
30350.7
30350.6
30350.6
30350.5
30350.5
30350.4
30350.4
30350.4
30350.4
30350.3
30350.3
30350.3
30350.3
30350.3
30350.3
30350.3
30350.3
30350.2
30350.2
30350.2
30350.2
30350.2
30350.2
30350.2
30350.2
30350.2
30350.1
30350.1
30350.1
30350.1
30350.1
30350.1
30350.1
30350
30350
30350
30350
30350
30350
30350
30350
30349.9
30349.9
30349.9
30349.9
30349.9
30349.9
30349.9
30349.9
30349.9
30349.8
30349.8
30349.8
30349.8
30349.8
30349.8
30349.8
30349.8
30349.8
30349.7
30349.7
30349.7
30349.7
30349.7
30349.7
30349.7
30349.7
30349.7
30349.6
30349.6
30349.6
30349.6
30349.6
30349.6
30349.6
30349.5
30349.5
30349.5
30349.5
30349.5
30349.5
30349.4
30349.4
30349.4
30349.4
30349.3
30349.3
30349.3
30349.3
30349.3
30349.3
30349.3
30349.3
30349.3
30349.3
30349.3
30349.3
30349.4
30349.4
30349.4
30349.4
30349.4
30349.4
30349.4
30349.4
30349.3
30349.3
30349.3
30349.3
30349.3
30349.3
30349.3
30349.3
30349.3
30349.2
30349.2
30349.2
30349.2
30349.2
30349.2
30349.2
30349.2
30349.1
30349.1
30349
30348.9
30348.8
30348.7
30348.6
30348.5
30348.4
30348.2
30348.1
30348.1
30348.1
30348.1
30348.1
30348.2
30348.3
30348.5
30348.6
30348.7
30348.9
30349
30349.1
30349.1
30349.2
30349.2
30349.2
30349.1
30349.1
30349.1
30349
30349
30348.9
30348.9
30348.8
30348.8
30348.8
30348.7
30348.7
30348.7
30348.6
30348.6
30348.6
30348.6
30348.5
30348.5
30348.5
30348.4
30348.4
30348.4
30348.4
30348.4
30348.4
30348.4
30348.4
30348.4
30348.4
30348.4
30348.4
30348.4
30348.3
30348.3
30348.3
30348.2
30348.2
30348.2
30348.2
30348.2
30348.2
30348.2
30348.2
30348.2
30348.2
30348.2
30348.2
30348.2
30348.1
30348.1
30348.1
30348
30348
30347.9
30347.9
30347.9
30347.8
30347.8
30347.8
30347.8
30347.8
30347.9
30347.9
30347.9
30347.9
30347.9
30347.8
30347.8
30347.7
30347.7
30347.6
30347.5
30347.5
30347.4
30347.4
30347.4
30347.4
30347.4
30347.4
30347.5
30347.5
30347.5
30347.5
30347.5
30347.4
30347.4
30347.3
30347.2
30347.1
30347
30346.9
30346.9
30346.9
30346.9
30346.9
30346.9
30346.9
30347
30347
30347
30347
30346.9
30346.9
30346.8
30346.6
30346.5
30346.3
30346.2
30346.1
30346.1
30346.1
30346.1
30346.1
30346.1
30346.1
30346.2
30346.2
30346.2
30346.3
30346.2
30346.2
30346.1
30345.8
30345.5
30345.2
30345
30344.8
30344.8
30344.8
30344.8
30344.6
30344.3
30343.6
30342.1
30340.2
30336.3
30330.8
30323.1
30306.2
30280.6
30230.7
30084.7
29849.7
29136.3
27707.3
24581
19772.4
15167.5
12095.8
10670.9
10183.7
10047
10011.7
10002.9
10000.7
10000.2
10000
10000
10000
10000
10000
10000
10000
10000
10000
10000
10000
10000
10000
10000
10000
10000
10000
10000
10000
10000
10000
10000
10000
10000
10000
10000
10000
10000
10000
10000
10000
10000
10000
10000
10000
10000
10000
10000
10000
10000
10000
10000
10000
10000
10000
10000
10000
10000
10000
10000
10000
10000
10000
10000
10000
10000
10000
10000
10000
10000
10000
10000
10000
10000
10000
10000
10000
10000
10000
10000
10000
10000
10000
10000
10000
10000
10000
10000
10000
10000
10000
10000
10000
10000
10000
10000
10000
10000
10000
10000
10000
10000
10000
10000
10000
10000
10000
10000
10000
10000
10000
10000
10000
10000
10000
10000
10000
10000
10000
10000
10000
10000
10000
10000
10000
10000
10000
10000
10000
10000
10000
10000
10000
10000
10000
10000
10000
10000
10000
10000
10000
10000
10000
10000
10000
10000
10000
10000
10000
10000
10000
10000
10000
10000
10000
10000
10000
10000
10000
10000
10000
10000
10000
10000
10000
10000
10000
10000
10000
)
;

boundaryField
{
    sides
    {
        type            zeroGradient;
    }
    empty
    {
        type            empty;
    }
}


// ************************************************************************* //
