/*--------------------------------*- C++ -*----------------------------------*\
| =========                 |                                                 |
| \\      /  F ield         | OpenFOAM: The Open Source CFD Toolbox           |
|  \\    /   O peration     | Version:  4.0                                   |
|   \\  /    A nd           | Web:      www.OpenFOAM.org                      |
|    \\/     M anipulation  |                                                 |
\*---------------------------------------------------------------------------*/
FoamFile
{
    version     2.0;
    format      ascii;
    class       volScalarField;
    location    "0.006";
    object      T;
}
// * * * * * * * * * * * * * * * * * * * * * * * * * * * * * * * * * * * * * //

dimensions      [0 0 0 1 0 0 0];

internalField   nonuniform List<scalar> 
1000
(
348.432
348.432
348.432
348.432
348.432
348.432
348.432
348.432
348.432
348.432
348.432
348.432
348.432
348.432
348.432
348.432
348.432
348.432
348.432
348.432
348.432
348.432
348.432
348.432
348.432
348.432
348.432
348.432
348.432
348.432
348.432
348.432
348.432
348.432
348.432
348.432
348.432
348.432
348.432
348.432
348.432
348.432
348.432
348.432
348.432
348.432
348.432
348.432
348.432
348.432
348.432
348.432
348.432
348.432
348.432
348.432
348.432
348.432
348.432
348.432
348.432
348.432
348.432
348.432
348.432
348.432
348.432
348.432
348.432
348.432
348.432
348.432
348.432
348.432
348.432
348.432
348.432
348.432
348.432
348.432
348.432
348.432
348.432
348.432
348.432
348.432
348.432
348.432
348.432
348.432
348.432
348.432
348.432
348.432
348.432
348.432
348.432
348.432
348.432
348.432
348.432
348.432
348.432
348.432
348.432
348.432
348.432
348.432
348.432
348.432
348.432
348.432
348.432
348.432
348.432
348.432
348.432
348.432
348.432
348.432
348.432
348.432
348.432
348.432
348.432
348.432
348.432
348.432
348.432
348.432
348.432
348.432
348.432
348.432
348.432
348.432
348.432
348.432
348.432
348.432
348.432
348.432
348.432
348.432
348.432
348.432
348.432
348.432
348.432
348.432
348.432
348.432
348.432
348.432
348.432
348.432
348.432
348.432
348.432
348.432
348.432
348.432
348.432
348.432
348.432
348.432
348.432
348.432
348.432
348.432
348.432
348.432
348.432
348.432
348.432
348.432
348.432
348.432
348.432
348.432
348.432
348.432
348.432
348.432
348.432
348.432
348.432
348.432
348.432
348.432
348.432
348.432
348.432
348.432
348.432
348.432
348.432
348.432
348.432
348.432
348.432
348.432
348.432
348.432
348.432
348.432
348.432
348.432
348.432
348.432
348.432
348.432
348.432
348.432
348.432
348.432
348.432
348.432
348.432
348.432
348.432
348.432
348.432
348.432
348.432
348.432
348.432
348.432
348.432
348.432
348.432
348.432
348.432
348.432
348.431
348.431
348.431
348.43
348.43
348.429
348.428
348.426
348.424
348.421
348.417
348.413
348.406
348.398
348.388
348.376
348.36
348.34
348.316
348.286
348.251
348.208
348.158
348.099
348.03
347.95
347.859
347.756
347.639
347.508
347.363
347.204
347.029
346.839
346.634
346.414
346.179
345.93
345.666
345.389
345.099
344.796
344.481
344.155
343.819
343.472
343.116
342.751
342.378
341.998
341.61
341.216
340.815
340.409
339.997
339.58
339.159
338.734
338.305
337.872
337.435
336.995
336.553
336.107
335.659
335.209
334.756
334.302
333.845
333.386
332.926
332.464
332.001
331.536
331.07
330.603
330.134
329.664
329.194
328.722
328.25
327.777
327.302
326.828
326.352
325.876
325.4
324.923
324.445
323.967
323.489
323.01
322.531
322.051
321.572
321.092
320.612
320.132
319.651
319.171
318.69
318.209
317.728
317.247
316.767
316.286
315.805
315.324
314.843
314.362
313.882
313.401
312.921
312.44
311.96
311.48
311
310.52
310.04
309.561
309.082
308.603
308.124
307.645
307.167
306.688
306.21
305.733
305.255
304.778
304.301
303.824
303.348
302.872
302.396
301.92
301.445
300.97
300.496
300.021
299.547
299.074
298.601
298.128
297.655
297.183
296.711
296.239
295.768
295.297
294.827
294.357
293.887
293.418
292.95
292.479
292.014
291.541
291.084
290.6
290.161
289.653
289.249
288.699
288.344
287.748
287.43
286.818
286.49
285.923
285.524
285.043
284.567
284.139
283.649
283.204
282.748
282.276
281.831
281.37
280.907
280.459
279.999
279.542
279.092
278.635
278.181
277.73
277.277
276.824
276.374
275.924
275.473
275.024
274.577
274.129
273.681
273.236
272.79
272.345
271.901
271.458
271.016
270.574
270.133
269.693
269.255
268.817
268.38
267.944
267.509
267.076
266.643
266.211
265.781
265.352
264.925
264.498
264.074
263.65
263.229
262.809
262.39
261.974
261.559
261.146
260.736
260.327
259.921
259.517
259.117
258.718
258.323
257.93
257.541
257.156
256.774
256.396
256.022
255.652
255.287
254.928
254.573
254.224
253.881
253.544
253.214
252.891
252.576
252.268
251.969
251.679
251.398
251.127
250.866
250.616
250.377
250.149
249.933
249.729
249.538
249.359
249.192
249.038
248.897
248.768
248.651
248.546
248.452
248.37
248.297
248.233
248.179
248.132
248.093
248.06
248.033
248.011
247.993
247.979
247.968
247.959
247.953
247.948
247.944
247.942
247.94
247.939
247.939
247.939
247.939
247.939
247.94
247.941
247.942
247.943
247.945
247.946
247.948
247.949
247.951
247.952
247.955
247.956
247.958
247.96
247.962
247.963
247.966
247.968
247.97
247.972
247.975
247.976
247.979
247.981
247.984
247.985
247.989
247.99
247.994
247.995
247.999
248
248.004
248.006
248.01
248.011
248.016
248.017
248.021
248.023
248.028
248.029
248.034
248.035
248.04
248.042
248.047
248.049
248.054
248.056
248.062
248.064
248.069
248.071
248.077
248.079
248.086
248.088
248.094
248.097
248.103
248.106
248.113
248.115
248.123
248.125
248.133
248.136
248.144
248.147
248.156
248.159
248.168
248.171
248.18
248.184
248.194
248.197
248.208
248.211
248.223
248.227
248.239
248.243
248.255
248.26
248.273
248.278
248.292
248.297
248.313
248.318
248.334
248.34
248.357
248.364
248.381
248.392
248.407
248.419
248.436
248.45
248.468
248.483
248.502
248.519
248.539
248.559
248.581
248.603
248.627
248.651
248.678
248.705
248.735
248.766
248.8
248.835
248.873
248.914
248.957
249.004
249.055
249.112
249.173
249.238
249.301
249.357
249.403
249.444
249.494
249.582
249.751
250.056
250.563
251.344
252.477
254.039
256.1
258.726
261.966
265.857
270.415
275.639
281.499
287.947
294.908
302.288
309.971
317.829
325.723
333.516
341.073
348.274
355.019
361.23
366.855
371.868
376.264
380.063
383.297
386.013
388.262
390.102
391.587
392.772
393.708
394.438
395.001
395.432
395.758
396.003
396.186
396.321
396.42
396.492
396.545
396.584
396.612
396.633
396.649
396.661
396.67
396.678
396.684
396.689
396.693
396.696
396.699
396.702
396.704
396.706
396.708
396.71
396.711
396.712
396.713
396.714
396.715
396.716
396.717
396.718
396.718
396.719
396.719
396.72
396.72
396.72
396.72
396.72
396.72
396.721
396.721
396.721
396.721
396.721
396.721
396.721
396.722
396.722
396.722
396.722
396.722
396.722
396.723
396.723
396.723
396.722
396.722
396.722
396.722
396.722
396.722
396.722
396.722
396.723
396.723
396.723
396.723
396.724
396.724
396.724
396.724
396.724
396.724
396.724
396.724
396.723
396.723
396.723
396.723
396.723
396.723
396.724
396.724
396.724
396.724
396.724
396.725
396.725
396.724
396.724
396.724
396.723
396.723
396.722
396.722
396.722
396.722
396.722
396.722
396.723
396.723
396.723
396.723
396.723
396.723
396.724
396.724
396.724
396.723
396.722
396.72
396.72
396.718
396.719
396.719
396.72
396.72
396.72
396.716
396.716
396.705
396.706
396.68
396.679
396.625
396.604
396.436
396.346
395.567
394.786
391.474
385.439
371.052
344.215
316.005
294.464
283.784
280.131
279.104
278.836
278.768
278.752
278.747
278.746
278.746
278.746
278.746
278.746
278.746
278.746
278.746
278.746
278.746
278.746
278.746
278.746
278.746
278.746
278.746
278.746
278.746
278.746
278.746
278.746
278.746
278.746
278.746
278.746
278.746
278.746
278.746
278.746
278.746
278.746
278.746
278.746
278.746
278.746
278.746
278.746
278.746
278.746
278.746
278.746
278.746
278.746
278.746
278.746
278.746
278.746
278.746
278.746
278.746
278.746
278.746
278.746
278.746
278.746
278.746
278.746
278.746
278.746
278.746
278.746
278.746
278.746
278.746
278.746
278.746
278.746
278.746
278.746
278.746
278.746
278.746
278.746
278.746
278.746
278.746
278.746
278.746
278.746
278.746
278.746
278.746
278.746
278.746
278.746
278.746
278.746
278.746
278.746
278.746
278.746
278.746
278.746
278.746
278.746
278.746
278.746
278.746
278.746
278.746
278.746
278.746
278.746
278.746
278.746
278.746
278.746
278.746
278.746
278.746
278.746
278.746
278.746
278.746
278.746
278.746
278.746
278.746
278.746
278.746
278.746
278.746
278.746
278.746
278.746
278.746
278.746
278.746
278.746
278.746
278.746
278.746
278.746
278.746
278.746
278.746
278.746
278.746
278.746
278.746
278.746
278.746
278.746
278.746
278.746
278.746
278.746
278.746
278.746
278.746
278.746
278.746
278.746
278.746
278.746
278.746
278.746
278.746
278.746
)
;

boundaryField
{
    sides
    {
        type            zeroGradient;
    }
    empty
    {
        type            empty;
    }
}


// ************************************************************************* //
