/*--------------------------------*- C++ -*----------------------------------*\
| =========                 |                                                 |
| \\      /  F ield         | OpenFOAM: The Open Source CFD Toolbox           |
|  \\    /   O peration     | Version:  4.0                                   |
|   \\  /    A nd           | Web:      www.OpenFOAM.org                      |
|    \\/     M anipulation  |                                                 |
\*---------------------------------------------------------------------------*/
FoamFile
{
    version     2.0;
    format      ascii;
    class       volVectorField;
    location    "0.006";
    object      U;
}
// * * * * * * * * * * * * * * * * * * * * * * * * * * * * * * * * * * * * * //

dimensions      [0 1 -1 0 0 0 0];

internalField   nonuniform List<vector> 
1000
(
(-6.27254e-13 0 0)
(-4.66794e-13 0 0)
(-2.47984e-13 0 0)
(-1.16698e-13 0 0)
(-1.45873e-13 0 0)
(-2.04222e-13 0 0)
(-2.04222e-13 0 0)
(-2.47984e-13 0 0)
(-4.52206e-13 0 0)
(-5.10556e-13 0 0)
(-6.12667e-13 0 0)
(-7.5854e-13 0 0)
(-1.09405e-12 0 0)
(-7.5854e-13 0 0)
(-1.2691e-12 0 0)
(-9.04413e-13 0 0)
(-1.28368e-12 0 0)
(-7.73127e-13 0 0)
(-1.23992e-12 0 0)
(-1.23992e-12 0 0)
(-1.32744e-12 0 0)
(-1.47332e-12 0 0)
(-1.4879e-12 0 0)
(-1.41497e-12 0 0)
(-1.70671e-12 0 0)
(-1.61919e-12 0 0)
(-1.66295e-12 0 0)
(-1.45873e-12 0 0)
(-1.69213e-12 0 0)
(-1.29827e-12 0 0)
(-1.76506e-12 0 0)
(-1.47332e-12 0 0)
(-1.28368e-12 0 0)
(-1.23992e-12 0 0)
(-1.07946e-12 0 0)
(-1.34203e-12 0 0)
(-9.48175e-13 0 0)
(-1.34203e-12 0 0)
(-8.60651e-13 0 0)
(-1.32744e-12 0 0)
(-9.04413e-13 0 0)
(-1.21075e-12 0 0)
(-7.0019e-13 0 0)
(-1.09405e-12 0 0)
(-7.43952e-13 0 0)
(-1.1524e-12 0 0)
(-8.60651e-13 0 0)
(-1.10863e-12 0 0)
(-9.91936e-13 0 0)
(-1.06487e-12 0 0)
(-1.13781e-12 0 0)
(-1.54625e-12 0 0)
(-1.53167e-12 0 0)
(-1.66295e-12 0 0)
(-1.13781e-12 0 0)
(-1.75048e-12 0 0)
(-1.06487e-12 0 0)
(-1.31286e-12 0 0)
(-1.0357e-12 0 0)
(-1.38579e-12 0 0)
(-1.35662e-12 0 0)
(-1.61919e-12 0 0)
(-1.69213e-12 0 0)
(-1.7213e-12 0 0)
(-2.02763e-12 0 0)
(-1.96929e-12 0 0)
(-1.94011e-12 0 0)
(-1.99846e-12 0 0)
(-1.92552e-12 0 0)
(-1.96929e-12 0 0)
(-1.7213e-12 0 0)
(-2.1881e-12 0 0)
(-1.89635e-12 0 0)
(-1.98387e-12 0 0)
(-1.64836e-12 0 0)
(-1.82341e-12 0 0)
(-1.59002e-12 0 0)
(-1.63378e-12 0 0)
(-1.53167e-12 0 0)
(-1.40038e-12 0 0)
(-1.44414e-12 0 0)
(-1.13781e-12 0 0)
(-1.31286e-12 0 0)
(-1.13781e-12 0 0)
(-1.1524e-12 0 0)
(-1.35662e-12 0 0)
(-1.25451e-12 0 0)
(-1.73589e-12 0 0)
(-1.25451e-12 0 0)
(-2.04222e-12 0 0)
(-1.82341e-12 0 0)
(-2.30479e-12 0 0)
(-1.92552e-12 0 0)
(-2.24644e-12 0 0)
(-2.04222e-12 0 0)
(-2.15892e-12 0 0)
(-2.34856e-12 0 0)
(-1.94011e-12 0 0)
(-2.0714e-12 0 0)
(-2.10057e-12 0 0)
(-2.1881e-12 0 0)
(-2.27562e-12 0 0)
(-2.20268e-12 0 0)
(-2.34856e-12 0 0)
(-2.04222e-12 0 0)
(-2.15892e-12 0 0)
(-1.91094e-12 0 0)
(-2.05681e-12 0 0)
(-2.05681e-12 0 0)
(-1.77965e-12 0 0)
(-1.99846e-12 0 0)
(-1.77965e-12 0 0)
(-2.12975e-12 0 0)
(-2.29021e-12 0 0)
(-2.08598e-12 0 0)
(-2.26103e-12 0 0)
(-2.08598e-12 0 0)
(-2.66948e-12 0 0)
(-2.47984e-12 0 0)
(-2.72783e-12 0 0)
(-2.21727e-12 0 0)
(-2.93205e-12 0 0)
(-2.08598e-12 0 0)
(-2.59654e-12 0 0)
(-2.12975e-12 0 0)
(-2.43608e-12 0 0)
(-2.14433e-12 0 0)
(-2.23186e-12 0 0)
(-2.08598e-12 0 0)
(-1.96929e-12 0 0)
(-2.0714e-12 0 0)
(-2.17351e-12 0 0)
(-2.08598e-12 0 0)
(-2.24644e-12 0 0)
(-2.01305e-12 0 0)
(-2.61113e-12 0 0)
(-2.17351e-12 0 0)
(-2.58195e-12 0 0)
(-2.1881e-12 0 0)
(-2.39232e-12 0 0)
(-2.14433e-12 0 0)
(-2.29021e-12 0 0)
(-2.10057e-12 0 0)
(-1.63378e-12 0 0)
(-1.79424e-12 0 0)
(-1.45873e-12 0 0)
(-1.44414e-12 0 0)
(-1.29827e-12 0 0)
(-1.07946e-12 0 0)
(-1.02111e-12 0 0)
(-9.77349e-13 0 0)
(-1.25451e-12 0 0)
(-8.02302e-13 0 0)
(-1.22533e-12 0 0)
(-1.00652e-12 0 0)
(-1.29827e-12 0 0)
(-1.1524e-12 0 0)
(-1.13781e-12 0 0)
(-1.34203e-12 0 0)
(-1.50249e-12 0 0)
(-1.47332e-12 0 0)
(-1.38579e-12 0 0)
(-1.41497e-12 0 0)
(-1.63378e-12 0 0)
(-1.91094e-12 0 0)
(-2.17351e-12 0 0)
(-2.26103e-12 0 0)
(-2.39232e-12 0 0)
(-2.29021e-12 0 0)
(-2.47984e-12 0 0)
(-2.1881e-12 0 0)
(-2.30479e-12 0 0)
(-2.24644e-12 0 0)
(-2.15892e-12 0 0)
(-2.14433e-12 0 0)
(-1.7213e-12 0 0)
(-1.85259e-12 0 0)
(-1.82341e-12 0 0)
(-1.85259e-12 0 0)
(-1.80883e-12 0 0)
(-1.63378e-12 0 0)
(-1.4879e-12 0 0)
(-1.13781e-12 0 0)
(-1.38579e-12 0 0)
(-8.89825e-13 0 0)
(-1.25451e-12 0 0)
(-1.06487e-12 0 0)
(-1.10863e-12 0 0)
(-7.5854e-13 0 0)
(-6.12667e-13 0 0)
(2.1659e-26 0 0)
(1.00652e-12 0 0)
(2.30479e-12 0 0)
(5.10556e-12 0 0)
(9.72973e-12 0 0)
(1.82341e-11 0 0)
(3.34633e-11 0 0)
(5.94287e-11 0 0)
(1.04795e-10 0 0)
(1.82166e-10 0 0)
(3.14546e-10 0 0)
(5.40095e-10 0 0)
(9.21173e-10 0 0)
(1.56409e-09 0 0)
(2.6404e-09 0 0)
(4.43746e-09 0 0)
(7.41859e-09 0 0)
(1.23445e-08 0 0)
(2.04376e-08 0 0)
(3.36725e-08 0 0)
(5.52005e-08 0 0)
(9.00409e-08 0 0)
(1.46131e-07 0 0)
(2.35955e-07 0 0)
(3.79037e-07 0 0)
(6.05733e-07 0 0)
(9.6295e-07 0 0)
(1.52275e-06 0 0)
(2.39516e-06 0 0)
(3.74713e-06 0 0)
(5.83037e-06 0 0)
(9.02205e-06 0 0)
(1.38836e-05 0 0)
(2.12451e-05 0 0)
(3.23262e-05 0 0)
(4.8906e-05 0 0)
(7.35621e-05 0 0)
(0.000110003 0 0)
(0.000163526 0 0)
(0.000241643 0 0)
(0.000354924 0 0)
(0.000518134 0 0)
(0.000751736 0 0)
(0.00108386 0 0)
(0.00155289 0 0)
(0.00221069 0 0)
(0.00312685 0 0)
(0.00439386 0 0)
(0.00613353 0 0)
(0.00850485 0 0)
(0.0117133 0 0)
(0.0160221 0 0)
(0.0217644 0 0)
(0.0293583 0 0)
(0.039322 0 0)
(0.0522914 0 0)
(0.069037 0 0)
(0.0904816 0 0)
(0.117716 0 0)
(0.152015 0 0)
(0.194843 0 0)
(0.247865 0 0)
(0.31294 0 0)
(0.392118 0 0)
(0.487614 0 0)
(0.601791 0 0)
(0.737116 0 0)
(0.896118 0 0)
(1.08134 0 0)
(1.29527 0 0)
(1.54031 0 0)
(1.81869 0 0)
(2.13242 0 0)
(2.48326 0 0)
(2.87265 0 0)
(3.30171 0 0)
(3.77121 0 0)
(4.28159 0 0)
(4.83291 0 0)
(5.42493 0 0)
(6.0571 0 0)
(6.72859 0 0)
(7.43836 0 0)
(8.18516 0 0)
(8.96757 0 0)
(9.78407 0 0)
(10.6331 0 0)
(11.5129 0 0)
(12.422 0 0)
(13.3586 0 0)
(14.3211 0 0)
(15.3079 0 0)
(16.3175 0 0)
(17.3485 0 0)
(18.3995 0 0)
(19.469 0 0)
(20.556 0 0)
(21.6593 0 0)
(22.7777 0 0)
(23.9104 0 0)
(25.0562 0 0)
(26.2144 0 0)
(27.3842 0 0)
(28.5649 0 0)
(29.7557 0 0)
(30.956 0 0)
(32.1653 0 0)
(33.383 0 0)
(34.6087 0 0)
(35.8417 0 0)
(37.0819 0 0)
(38.3286 0 0)
(39.5817 0 0)
(40.8406 0 0)
(42.1052 0 0)
(43.3751 0 0)
(44.6501 0 0)
(45.9299 0 0)
(47.2142 0 0)
(48.5028 0 0)
(49.7956 0 0)
(51.0922 0 0)
(52.3926 0 0)
(53.6965 0 0)
(55.0038 0 0)
(56.3143 0 0)
(57.6278 0 0)
(58.9442 0 0)
(60.2634 0 0)
(61.5852 0 0)
(62.9096 0 0)
(64.2363 0 0)
(65.5653 0 0)
(66.8965 0 0)
(68.2297 0 0)
(69.565 0 0)
(70.9021 0 0)
(72.241 0 0)
(73.5816 0 0)
(74.9239 0 0)
(76.2677 0 0)
(77.613 0 0)
(78.9597 0 0)
(80.3078 0 0)
(81.6572 0 0)
(83.0078 0 0)
(84.3596 0 0)
(85.7125 0 0)
(87.0665 0 0)
(88.4215 0 0)
(89.7775 0 0)
(91.1344 0 0)
(92.4922 0 0)
(93.8509 0 0)
(95.2104 0 0)
(96.5707 0 0)
(97.9317 0 0)
(99.2934 0 0)
(100.656 0 0)
(102.019 0 0)
(103.383 0 0)
(104.747 0 0)
(106.112 0 0)
(107.477 0 0)
(108.843 0 0)
(110.209 0 0)
(111.576 0 0)
(112.943 0 0)
(114.311 0 0)
(115.679 0 0)
(117.047 0 0)
(118.416 0 0)
(119.785 0 0)
(121.154 0 0)
(122.524 0 0)
(123.894 0 0)
(125.264 0 0)
(126.635 0 0)
(128.005 0 0)
(129.376 0 0)
(130.747 0 0)
(132.119 0 0)
(133.49 0 0)
(134.862 0 0)
(136.233 0 0)
(137.605 0 0)
(138.977 0 0)
(140.349 0 0)
(141.721 0 0)
(143.093 0 0)
(144.465 0 0)
(145.838 0 0)
(147.21 0 0)
(148.582 0 0)
(149.954 0 0)
(151.326 0 0)
(152.698 0 0)
(154.071 0 0)
(155.443 0 0)
(156.815 0 0)
(158.186 0 0)
(159.558 0 0)
(160.93 0 0)
(162.301 0 0)
(163.673 0 0)
(165.044 0 0)
(166.415 0 0)
(167.786 0 0)
(169.157 0 0)
(170.527 0 0)
(171.897 0 0)
(173.267 0 0)
(174.637 0 0)
(176.006 0 0)
(177.375 0 0)
(178.744 0 0)
(180.112 0 0)
(181.48 0 0)
(182.848 0 0)
(184.215 0 0)
(185.582 0 0)
(186.949 0 0)
(188.315 0 0)
(189.681 0 0)
(191.046 0 0)
(192.41 0 0)
(193.774 0 0)
(195.138 0 0)
(196.501 0 0)
(197.863 0 0)
(199.224 0 0)
(200.585 0 0)
(201.945 0 0)
(203.305 0 0)
(204.663 0 0)
(206.021 0 0)
(207.378 0 0)
(208.734 0 0)
(210.089 0 0)
(211.443 0 0)
(212.796 0 0)
(214.148 0 0)
(215.499 0 0)
(216.849 0 0)
(218.197 0 0)
(219.544 0 0)
(220.89 0 0)
(222.234 0 0)
(223.576 0 0)
(224.917 0 0)
(226.256 0 0)
(227.594 0 0)
(228.929 0 0)
(230.263 0 0)
(231.594 0 0)
(232.923 0 0)
(234.25 0 0)
(235.574 0 0)
(236.896 0 0)
(238.215 0 0)
(239.531 0 0)
(240.844 0 0)
(242.153 0 0)
(243.459 0 0)
(244.761 0 0)
(246.06 0 0)
(247.354 0 0)
(248.643 0 0)
(249.928 0 0)
(251.208 0 0)
(252.482 0 0)
(253.751 0 0)
(255.014 0 0)
(256.27 0 0)
(257.519 0 0)
(258.76 0 0)
(259.994 0 0)
(261.219 0 0)
(262.436 0 0)
(263.642 0 0)
(264.838 0 0)
(266.023 0 0)
(267.197 0 0)
(268.357 0 0)
(269.504 0 0)
(270.637 0 0)
(271.754 0 0)
(272.855 0 0)
(273.938 0 0)
(275.003 0 0)
(276.047 0 0)
(277.07 0 0)
(278.071 0 0)
(279.048 0 0)
(279.999 0 0)
(280.923 0 0)
(281.819 0 0)
(282.685 0 0)
(283.52 0 0)
(284.323 0 0)
(285.091 0 0)
(285.824 0 0)
(286.52 0 0)
(287.179 0 0)
(287.799 0 0)
(288.381 0 0)
(288.923 0 0)
(289.425 0 0)
(289.888 0 0)
(290.311 0 0)
(290.697 0 0)
(291.044 0 0)
(291.356 0 0)
(291.633 0 0)
(291.877 0 0)
(292.091 0 0)
(292.276 0 0)
(292.436 0 0)
(292.571 0 0)
(292.686 0 0)
(292.782 0 0)
(292.861 0 0)
(292.926 0 0)
(292.979 0 0)
(293.022 0 0)
(293.057 0 0)
(293.084 0 0)
(293.106 0 0)
(293.123 0 0)
(293.137 0 0)
(293.147 0 0)
(293.156 0 0)
(293.163 0 0)
(293.169 0 0)
(293.173 0 0)
(293.177 0 0)
(293.18 0 0)
(293.183 0 0)
(293.185 0 0)
(293.186 0 0)
(293.188 0 0)
(293.189 0 0)
(293.19 0 0)
(293.191 0 0)
(293.192 0 0)
(293.193 0 0)
(293.193 0 0)
(293.194 0 0)
(293.194 0 0)
(293.194 0 0)
(293.194 0 0)
(293.195 0 0)
(293.195 0 0)
(293.195 0 0)
(293.195 0 0)
(293.195 0 0)
(293.195 0 0)
(293.195 0 0)
(293.195 0 0)
(293.195 0 0)
(293.195 0 0)
(293.195 0 0)
(293.195 0 0)
(293.195 0 0)
(293.195 0 0)
(293.195 0 0)
(293.195 0 0)
(293.195 0 0)
(293.195 0 0)
(293.195 0 0)
(293.195 0 0)
(293.195 0 0)
(293.195 0 0)
(293.195 0 0)
(293.195 0 0)
(293.196 0 0)
(293.196 0 0)
(293.196 0 0)
(293.196 0 0)
(293.196 0 0)
(293.196 0 0)
(293.196 0 0)
(293.196 0 0)
(293.196 0 0)
(293.196 0 0)
(293.196 0 0)
(293.196 0 0)
(293.196 0 0)
(293.196 0 0)
(293.196 0 0)
(293.196 0 0)
(293.196 0 0)
(293.196 0 0)
(293.196 0 0)
(293.196 0 0)
(293.196 0 0)
(293.196 0 0)
(293.196 0 0)
(293.196 0 0)
(293.196 0 0)
(293.196 0 0)
(293.196 0 0)
(293.196 0 0)
(293.196 0 0)
(293.196 0 0)
(293.196 0 0)
(293.196 0 0)
(293.196 0 0)
(293.196 0 0)
(293.196 0 0)
(293.197 0 0)
(293.197 0 0)
(293.197 0 0)
(293.197 0 0)
(293.197 0 0)
(293.197 0 0)
(293.197 0 0)
(293.197 0 0)
(293.197 0 0)
(293.197 0 0)
(293.197 0 0)
(293.197 0 0)
(293.197 0 0)
(293.197 0 0)
(293.197 0 0)
(293.197 0 0)
(293.197 0 0)
(293.197 0 0)
(293.197 0 0)
(293.197 0 0)
(293.198 0 0)
(293.197 0 0)
(293.197 0 0)
(293.198 0 0)
(293.198 0 0)
(293.197 0 0)
(293.197 0 0)
(293.197 0 0)
(293.197 0 0)
(293.197 0 0)
(293.197 0 0)
(293.196 0 0)
(293.196 0 0)
(293.196 0 0)
(293.196 0 0)
(293.196 0 0)
(293.196 0 0)
(293.196 0 0)
(293.196 0 0)
(293.196 0 0)
(293.196 0 0)
(293.195 0 0)
(293.195 0 0)
(293.195 0 0)
(293.195 0 0)
(293.195 0 0)
(293.195 0 0)
(293.195 0 0)
(293.195 0 0)
(293.195 0 0)
(293.195 0 0)
(293.195 0 0)
(293.195 0 0)
(293.195 0 0)
(293.195 0 0)
(293.195 0 0)
(293.195 0 0)
(293.195 0 0)
(293.195 0 0)
(293.195 0 0)
(293.195 0 0)
(293.195 0 0)
(293.194 0 0)
(293.193 0 0)
(293.191 0 0)
(293.189 0 0)
(293.186 0 0)
(293.182 0 0)
(293.178 0 0)
(293.174 0 0)
(293.17 0 0)
(293.167 0 0)
(293.164 0 0)
(293.162 0 0)
(293.161 0 0)
(293.162 0 0)
(293.163 0 0)
(293.166 0 0)
(293.169 0 0)
(293.172 0 0)
(293.176 0 0)
(293.179 0 0)
(293.182 0 0)
(293.185 0 0)
(293.187 0 0)
(293.189 0 0)
(293.191 0 0)
(293.192 0 0)
(293.192 0 0)
(293.192 0 0)
(293.193 0 0)
(293.193 0 0)
(293.193 0 0)
(293.193 0 0)
(293.192 0 0)
(293.192 0 0)
(293.192 0 0)
(293.192 0 0)
(293.192 0 0)
(293.192 0 0)
(293.192 0 0)
(293.192 0 0)
(293.192 0 0)
(293.192 0 0)
(293.192 0 0)
(293.192 0 0)
(293.192 0 0)
(293.192 0 0)
(293.191 0 0)
(293.191 0 0)
(293.191 0 0)
(293.191 0 0)
(293.19 0 0)
(293.19 0 0)
(293.19 0 0)
(293.19 0 0)
(293.19 0 0)
(293.19 0 0)
(293.19 0 0)
(293.19 0 0)
(293.19 0 0)
(293.19 0 0)
(293.19 0 0)
(293.19 0 0)
(293.19 0 0)
(293.189 0 0)
(293.189 0 0)
(293.189 0 0)
(293.189 0 0)
(293.188 0 0)
(293.188 0 0)
(293.188 0 0)
(293.188 0 0)
(293.188 0 0)
(293.188 0 0)
(293.188 0 0)
(293.188 0 0)
(293.188 0 0)
(293.188 0 0)
(293.188 0 0)
(293.188 0 0)
(293.188 0 0)
(293.187 0 0)
(293.187 0 0)
(293.187 0 0)
(293.186 0 0)
(293.186 0 0)
(293.185 0 0)
(293.185 0 0)
(293.185 0 0)
(293.184 0 0)
(293.184 0 0)
(293.184 0 0)
(293.184 0 0)
(293.185 0 0)
(293.185 0 0)
(293.185 0 0)
(293.185 0 0)
(293.185 0 0)
(293.185 0 0)
(293.184 0 0)
(293.184 0 0)
(293.183 0 0)
(293.183 0 0)
(293.182 0 0)
(293.181 0 0)
(293.181 0 0)
(293.18 0 0)
(293.18 0 0)
(293.18 0 0)
(293.18 0 0)
(293.18 0 0)
(293.181 0 0)
(293.181 0 0)
(293.181 0 0)
(293.181 0 0)
(293.181 0 0)
(293.18 0 0)
(293.18 0 0)
(293.179 0 0)
(293.178 0 0)
(293.178 0 0)
(293.177 0 0)
(293.176 0 0)
(293.175 0 0)
(293.174 0 0)
(293.174 0 0)
(293.174 0 0)
(293.174 0 0)
(293.175 0 0)
(293.175 0 0)
(293.176 0 0)
(293.176 0 0)
(293.176 0 0)
(293.175 0 0)
(293.175 0 0)
(293.174 0 0)
(293.173 0 0)
(293.172 0 0)
(293.171 0 0)
(293.169 0 0)
(293.168 0 0)
(293.167 0 0)
(293.166 0 0)
(293.165 0 0)
(293.164 0 0)
(293.164 0 0)
(293.165 0 0)
(293.167 0 0)
(293.169 0 0)
(293.169 0 0)
(293.168 0 0)
(293.167 0 0)
(293.164 0 0)
(293.16 0 0)
(293.155 0 0)
(293.149 0 0)
(293.143 0 0)
(293.132 0 0)
(293.116 0 0)
(293.083 0 0)
(293.035 0 0)
(292.918 0 0)
(292.801 0 0)
(292.456 0 0)
(292.105 0 0)
(290.994 0 0)
(288.631 0 0)
(283.17 0 0)
(270.145 0 0)
(241.367 0 0)
(186.629 0 0)
(113.349 0 0)
(50.6892 0 0)
(17.3127 0 0)
(4.99166 0 0)
(1.31068 0 0)
(0.330647 0 0)
(0.0823791 0 0)
(0.0204585 0 0)
(0.00507694 0 0)
(0.00125967 0 0)
(0.000312532 0 0)
(7.75404e-05 0 0)
(1.92381e-05 0 0)
(4.77304e-06 0 0)
(1.18421e-06 0 0)
(2.93808e-07 0 0)
(7.2896e-08 0 0)
(1.80861e-08 0 0)
(4.48795e-09 0 0)
(1.11408e-09 0 0)
(2.76955e-10 0 0)
(6.93627e-11 0 0)
(1.76069e-11 0 0)
(5.13474e-12 0 0)
(1.64837e-12 0 0)
(1.19616e-12 0 0)
(8.31477e-13 0 0)
(7.43953e-13 0 0)
(7.73128e-13 0 0)
(8.46065e-13 0 0)
(8.02303e-13 0 0)
(8.1689e-13 0 0)
(4.52207e-13 0 0)
(6.71017e-13 0 0)
(2.62572e-13 0 0)
(1.60461e-13 0 0)
(-1.31286e-13 0 0)
(-1.60461e-13 0 0)
(-2.91746e-13 0 0)
(-1.16699e-13 0 0)
(-1.89635e-13 0 0)
(-2.91746e-14 0 0)
(-1.75048e-13 0 0)
(-1.45873e-13 0 0)
(-2.91746e-14 0 0)
(-1.45873e-13 0 0)
(-1.31286e-13 0 0)
(-4.3762e-13 0 0)
(-2.91746e-13 0 0)
(-7.00191e-13 0 0)
(-4.52207e-13 0 0)
(-6.12667e-13 0 0)
(-2.04222e-13 0 0)
(-3.64683e-13 0 0)
(2.04222e-13 0 0)
(1.75048e-13 0 0)
(5.10556e-13 0 0)
(2.33397e-13 0 0)
(4.08445e-13 0 0)
(1.16699e-13 0 0)
(5.83493e-14 0 0)
(-1.75048e-13 0 0)
(-2.47984e-13 0 0)
(-1.75048e-13 0 0)
(-7.29366e-14 0 0)
(-1.60461e-13 0 0)
(-4.08445e-13 0 0)
(-3.20921e-13 0 0)
(-4.23032e-13 0 0)
(-1.45873e-14 0 0)
(-1.60461e-13 0 0)
(2.1881e-13 0 0)
(-7.29366e-14 0 0)
(1.16699e-13 0 0)
(1.75048e-13 0 0)
(3.06334e-13 0 0)
(1.16699e-13 0 0)
(3.20921e-13 0 0)
(2.91746e-14 0 0)
(4.3762e-14 0 0)
(-1.89635e-13 0 0)
(1.45873e-13 0 0)
(-5.83493e-14 0 0)
(-7.29366e-14 0 0)
(1.02111e-13 0 0)
(2.04222e-13 0 0)
(2.1881e-13 0 0)
(3.7927e-13 0 0)
(7.29366e-14 0 0)
(1.60461e-13 0 0)
(-8.75239e-14 0 0)
(7.29366e-14 0 0)
(1.89635e-13 0 0)
(-2.91746e-14 0 0)
(-5.83493e-14 0 0)
(-1.29373e-27 0 0)
(2.1881e-13 0 0)
(3.20921e-13 0 0)
(3.50096e-13 0 0)
(4.3762e-13 0 0)
(4.52207e-13 0 0)
(5.9808e-13 0 0)
(5.25144e-13 0 0)
(6.85604e-13 0 0)
(6.71017e-13 0 0)
(9.19001e-13 0 0)
(8.31477e-13 0 0)
(1.16699e-12 0 0)
(9.77351e-13 0 0)
(1.23992e-12 0 0)
(8.89827e-13 0 0)
(6.85604e-13 0 0)
(7.43953e-13 0 0)
(5.83493e-13 0 0)
(6.85604e-13 0 0)
(6.71017e-13 0 0)
(8.89827e-13 0 0)
(9.77351e-13 0 0)
(9.48176e-13 0 0)
(1.02111e-12 0 0)
(1.12322e-12 0 0)
(1.22533e-12 0 0)
(1.21075e-12 0 0)
(1.31286e-12 0 0)
(1.34203e-12 0 0)
(1.18157e-12 0 0)
(1.21075e-12 0 0)
(9.77351e-13 0 0)
(9.77351e-13 0 0)
(8.89827e-13 0 0)
(9.77351e-13 0 0)
(8.60652e-13 0 0)
(9.04414e-13 0 0)
(6.85604e-13 0 0)
(9.48176e-13 0 0)
(6.27255e-13 0 0)
(6.27255e-13 0 0)
(4.3762e-13 0 0)
(4.23032e-13 0 0)
(2.47984e-13 0 0)
(4.52207e-13 0 0)
(4.08445e-13 0 0)
(4.23032e-13 0 0)
(2.47984e-13 0 0)
(3.64683e-13 0 0)
(8.75239e-14 0 0)
(-5.83493e-14 0 0)
(1.31286e-13 0 0)
(-2.91746e-13 0 0)
(1.45873e-13 0 0)
(3.68135e-26 0 0)
(2.1881e-13 0 0)
(-4.3762e-14 0 0)
(1.75048e-13 0 0)
(-1.45873e-14 0 0)
(1.75048e-13 0 0)
(7.29366e-14 0 0)
(-1.45873e-13 0 0)
(1.75048e-13 0 0)
(1.60461e-13 0 0)
(1.02111e-13 0 0)
(-1.45873e-13 0 0)
(-1.02111e-13 0 0)
(-1.45873e-14 0 0)
(-2.47984e-13 0 0)
(-1.45873e-13 0 0)
(-7.29366e-14 0 0)
(-4.3762e-14 0 0)
)
;

boundaryField
{
    sides
    {
        type            zeroGradient;
    }
    empty
    {
        type            empty;
    }
}


// ************************************************************************* //
