/*--------------------------------*- C++ -*----------------------------------*\
| =========                 |                                                 |
| \\      /  F ield         | OpenFOAM: The Open Source CFD Toolbox           |
|  \\    /   O peration     | Version:  4.0                                   |
|   \\  /    A nd           | Web:      www.OpenFOAM.org                      |
|    \\/     M anipulation  |                                                 |
\*---------------------------------------------------------------------------*/
FoamFile
{
    version     2.0;
    format      ascii;
    class       volScalarField;
    location    "57";
    object      p;
}
// * * * * * * * * * * * * * * * * * * * * * * * * * * * * * * * * * * * * * //

dimensions      [0 2 -2 0 0 0 0];

internalField   nonuniform List<scalar> 
8800
(
0.855966
0.808179
0.76949
0.740495
0.719632
0.704804
0.694211
0.686736
0.681924
0.679878
0.681159
0.68536
0.692013
0.701334
0.714117
0.731854
0.756633
0.790574
0.833125
0.891827
0.687215
0.694894
0.70237
0.705678
0.704175
0.699099
0.692614
0.686541
0.681825
0.678991
0.678725
0.681243
0.685741
0.691693
0.698466
0.704749
0.708392
0.707656
0.702238
0.693548
0.665619
0.671778
0.675906
0.67885
0.6809
0.681506
0.680402
0.678303
0.676295
0.6754
0.676377
0.678769
0.681576
0.683762
0.684373
0.683176
0.680836
0.677444
0.672886
0.669126
0.65981
0.662461
0.665212
0.667615
0.66925
0.670413
0.671157
0.67128
0.670994
0.670958
0.671725
0.672906
0.673754
0.673825
0.673219
0.67213
0.670315
0.667746
0.665343
0.663839
0.654432
0.655856
0.657635
0.659666
0.66145
0.662792
0.663784
0.664587
0.665211
0.66579
0.666458
0.666966
0.667074
0.666792
0.666099
0.664852
0.663158
0.661311
0.660004
0.659172
0.649358
0.650279
0.651519
0.653085
0.654716
0.656242
0.657529
0.658601
0.659576
0.660486
0.661193
0.661535
0.661502
0.661068
0.660191
0.658993
0.657667
0.656408
0.655586
0.655035
0.644456
0.645125
0.646086
0.647387
0.648795
0.650253
0.651694
0.653022
0.654231
0.655356
0.656197
0.65658
0.656505
0.656002
0.655199
0.654254
0.653242
0.65232
0.651735
0.651329
0.639677
0.640194
0.640976
0.642104
0.643379
0.644752
0.646199
0.647676
0.649114
0.65047
0.651497
0.651984
0.651968
0.651589
0.65099
0.650266
0.649494
0.64881
0.648376
0.648059
0.634952
0.635363
0.636017
0.63702
0.638223
0.639548
0.640993
0.642553
0.644185
0.645802
0.64707
0.647744
0.647917
0.647753
0.647373
0.646858
0.646287
0.645795
0.645472
0.645215
0.630194
0.630529
0.631094
0.632017
0.633171
0.63448
0.635959
0.637614
0.63943
0.641332
0.642912
0.643874
0.644319
0.644402
0.644248
0.643953
0.643574
0.64324
0.643001
0.642785
0.625317
0.625594
0.626098
0.626974
0.628109
0.629441
0.630991
0.632784
0.634825
0.637054
0.639029
0.640363
0.641133
0.641499
0.641591
0.641516
0.641327
0.641132
0.64096
0.640774
0.620231
0.620464
0.620929
0.621789
0.622944
0.624343
0.626006
0.627989
0.630318
0.632957
0.635414
0.637195
0.638345
0.639035
0.639402
0.639554
0.639553
0.639486
0.63937
0.639204
0.614848
0.615046
0.615491
0.616364
0.617581
0.619089
0.620922
0.623161
0.625859
0.629011
0.632054
0.634367
0.635961
0.637019
0.637692
0.638084
0.63829
0.63834
0.63827
0.638119
0.609067
0.609237
0.609679
0.610594
0.611915
0.613585
0.615652
0.618228
0.621395
0.625185
0.628937
0.631883
0.633999
0.635481
0.636502
0.637183
0.637589
0.637753
0.637724
0.637581
0.602773
0.602919
0.603373
0.60436
0.60583
0.607721
0.610101
0.613107
0.616866
0.621439
0.626051
0.629755
0.63249
0.634469
0.635884
0.636878
0.637514
0.637797
0.637804
0.637666
0.59583
0.59595
0.596432
0.597523
0.599194
0.601375
0.604154
0.607708
0.612202
0.617734
0.623389
0.627999
0.631466
0.634031
0.635913
0.637264
0.638156
0.638562
0.638604
0.638467
0.58806
0.588158
0.588682
0.589913
0.591843
0.594394
0.597684
0.601929
0.607336
0.614041
0.620952
0.626646
0.630978
0.634231
0.636671
0.638442
0.639618
0.640152
0.640225
0.640085
0.579238
0.579339
0.579917
0.581304
0.583565
0.586596
0.590538
0.59565
0.602193
0.610335
0.618757
0.625735
0.631088
0.63515
0.638251
0.64051
0.642007
0.642678
0.642781
0.642635
0.569059
0.569141
0.56981
0.571422
0.574115
0.577763
0.582529
0.588734
0.59669
0.606587
0.616819
0.625313
0.631867
0.636882
0.64074
0.643575
0.645437
0.646253
0.646384
0.646228
0.557157
0.557223
0.557991
0.559915
0.563165
0.567606
0.573428
0.581018
0.590734
0.602773
0.615166
0.62544
0.633389
0.63952
0.644253
0.647763
0.650023
0.650988
0.651141
0.650971
0.542987
0.543042
0.543952
0.54629
0.550274
0.555759
0.562958
0.572326
0.584245
0.598887
0.613841
0.626188
0.635741
0.643147
0.648904
0.653167
0.655857
0.656967
0.657135
0.656948
0.525788
0.525831
0.526954
0.529875
0.534867
0.541764
0.550799
0.562487
0.57719
0.594995
0.61294
0.627648
0.639015
0.647864
0.65476
0.659866
0.663
0.66424
0.664412
0.664205
0.504417
0.504458
0.505927
0.509724
0.516169
0.525055
0.536608
0.551354
0.569562
0.591165
0.612559
0.629915
0.6433
0.65375
0.66187
0.667893
0.671452
0.672789
0.672947
0.672718
0.477158
0.477218
0.47927
0.48448
0.493168
0.504975
0.520075
0.538888
0.56148
0.587575
0.612862
0.633112
0.648662
0.660825
0.670282
0.67721
0.681126
0.6825
0.682624
0.682373
0.44098
0.441139
0.444391
0.452209
0.464689
0.480953
0.501106
0.525257
0.553216
0.584496
0.614062
0.637372
0.65518
0.669126
0.67995
0.687693
0.691829
0.693151
0.693216
0.692946
0.390123
0.39109
0.397552
0.410721
0.429792
0.452948
0.480071
0.510975
0.545269
0.582313
0.616394
0.642833
0.662909
0.678601
0.690732
0.699101
0.703246
0.704411
0.704402
0.704118
0.315712
0.322921
0.337872
0.361051
0.389957
0.422341
0.45798
0.496655
0.537975
0.581288
0.620248
0.650082
0.672636
0.690255
0.703736
0.712604
0.716656
0.71765
0.717594
0.717347
0.235667
0.252751
0.276988
0.310839
0.349952
0.391706
0.435951
0.482621
0.53141
0.581721
0.626501
0.660603
0.686277
0.706279
0.721421
0.730671
0.734349
0.735081
0.735042
0.73489
0.168963
0.189097
0.221018
0.263927
0.312069
0.362656
0.415241
0.469745
0.525841
0.582951
0.633308
0.671415
0.700007
0.722088
0.73832
0.747553
0.750948
0.751602
0.751609
0.751507
0.114327
0.136112
0.173532
0.222853
0.278127
0.336159
0.39613
0.457837
0.520826
0.584426
0.640084
0.681948
0.713188
0.737055
0.754327
0.76378
0.767248
0.767965
0.767995
0.767929
0.0688195
0.0917877
0.132989
0.187405
0.248419
0.312605
0.378926
0.447039
0.51633
0.585994
0.646667
0.692086
0.725826
0.751466
0.769785
0.779925
0.783651
0.784294
0.784359
0.784323
0.0301813
0.0538237
0.0978837
0.156345
0.222182
0.291603
0.363436
0.437241
0.512278
0.587592
0.653007
0.701818
0.737982
0.765373
0.784808
0.79564
0.799662
0.800361
0.800449
0.80044
-0.00360409
0.0204854
0.0668146
0.128601
0.198513
0.272486
0.349211
0.428157
0.50848
0.589076
0.658977
0.711017
0.749481
0.778535
0.799022
0.810512
0.814888
0.815737
0.815874
0.815887
-0.0340246
-0.00953952
0.0386404
0.103273
0.1767
0.254662
0.335772
0.419406
0.504629
0.590207
0.664379
0.719494
0.760119
0.790663
0.812155
0.824232
0.828943
0.829991
0.830123
0.830133
-0.0620357
-0.0371905
0.0125656
0.0796541
0.156176
0.237673
0.322724
0.410653
0.500462
0.590783
0.669076
0.727132
0.769781
0.801681
0.824037
0.836618
0.84161
0.842799
0.842932
0.842931
-0.0884316
-0.0631805
-0.0119234
0.057233
0.136522
0.221169
0.309785
0.401668
0.495779
0.59065
0.672972
0.733907
0.778492
0.811667
0.83469
0.847642
0.852814
0.854093
0.854224
0.854208
-0.113582
-0.0879077
-0.0354521
0.0357072
0.117433
0.204909
0.296755
0.392278
0.490433
0.589703
0.676013
0.739831
0.786314
0.820658
0.84426
0.857414
0.862667
0.86399
0.864093
0.864052
-0.137897
-0.111666
-0.0581835
0.0148085
0.0987095
0.188722
0.2835
0.382372
0.484326
0.587854
0.678162
0.74493
0.79335
0.828803
0.852872
0.866107
0.871383
0.872705
0.872784
0.872719
-0.161505
-0.134878
-0.080223
-0.00562307
0.0802243
0.172513
0.269941
0.371888
0.477398
0.585046
0.679388
0.749242
0.79971
0.836298
0.860759
0.873976
0.879168
0.880427
0.880497
0.880411
-0.184539
-0.157389
-0.101711
-0.0256685
0.0619229
0.156243
0.256052
0.360797
0.469616
0.581226
0.679649
0.752798
0.805504
0.843305
0.868091
0.881161
0.886183
0.887344
0.887353
0.887242
-0.207127
-0.1794
-0.122726
-0.0453602
0.0437771
0.139908
0.241844
0.349114
0.460978
0.576364
0.678902
0.755591
0.810825
0.849979
0.875009
0.887777
0.892478
0.893474
0.893422
0.893287
-0.229285
-0.200899
-0.143296
-0.0647006
0.025815
0.123535
0.22736
0.33688
0.451509
0.570435
0.677087
0.75758
0.815727
0.856493
0.881711
0.893939
0.898131
0.898886
0.898774
0.898621
-0.25086
-0.221848
-0.163357
-0.0836692
0.00806745
0.107187
0.212655
0.324165
0.441264
0.56346
0.674138
0.75869
0.820204
0.863005
0.88849
0.899913
0.903271
0.903645
0.903463
0.903309
-0.271831
-0.242225
-0.182897
-0.102219
-0.00941143
0.0909194
0.197818
0.311043
0.430316
0.555465
0.670003
0.758797
0.824172
0.869601
0.895739
0.906213
0.908219
0.907845
0.90754
0.907437
-0.292266
-0.261993
-0.201891
-0.12032
-0.0265609
0.0748132
0.182933
0.297615
0.418755
0.54651
0.664633
0.757752
0.827448
0.876188
0.903808
0.913711
0.913878
0.911886
0.911145
0.911324
-0.311994
-0.281132
-0.220285
-0.137912
-0.043323
0.05895
0.168094
0.283992
0.406696
0.536688
0.658013
0.755382
0.829747
0.882404
0.912663
0.923395
0.922225
0.917793
0.915091
0.914624
-0.33111
-0.299631
-0.238096
-0.155026
-0.0597311
0.0432874
0.153246
0.270117
0.394072
0.525925
0.650007
0.751413
0.830752
0.887717
0.921648
0.935515
0.935655
0.929333
0.921035
0.906941
-0.349539
-0.317476
-0.255441
-0.171859
-0.0760678
0.0274974
0.13798
0.255514
0.380356
0.513596
0.63998
0.745074
0.829896
0.891391
0.929033
0.947835
0.949993
0.937526
0.917798
0.906035
-0.367107
-0.334802
-0.272126
-0.188208
-0.0919862
0.0119213
0.122519
0.240507
0.36585
0.499954
0.62799
0.735882
0.826342
0.892273
0.930585
0.949203
0.954132
0.93094
0.863221
0.832814
-0.383145
-0.352851
-0.287821
-0.203572
-0.106705
-0.00294069
0.107177
0.225321
0.350768
0.485117
0.613964
0.723514
0.818661
0.889695
0.921329
0.934476
0.923949
0.869804
0.800704
0.758186
-0.438813
-0.368779
-0.302076
-0.219067
-0.121837
-0.0185464
0.091887
0.209675
0.334739
0.468621
0.597296
0.707311
0.802988
0.880567
0.88543
0.88816
0.838576
0.768225
0.691537
0.64885
-0.400229
-0.384165
-0.323379
-0.239476
-0.144184
-0.0409619
0.068449
0.185574
0.30962
0.442038
0.568731
0.676986
0.764695
0.846872
0.833732
0.720324
0.614967
0.541642
0.468152
0.498647
-0.431248
-0.401847
-0.340122
-0.257024
-0.16174
-0.0586599
0.0510118
0.167491
0.290452
0.421041
0.544899
0.64893
0.727351
0.771154
0.722651
0.573594
0.445579
0.354046
0.2552
0.305241
-0.455155
-0.422815
-0.359838
-0.276566
-0.181176
-0.0781968
0.0313907
0.14703
0.268578
0.396739
0.51686
0.61472
0.684296
0.693759
0.5872
0.414207
0.261382
0.142452
0.0112366
0.0440038
-0.478568
-0.444679
-0.380504
-0.296305
-0.200813
-0.0979754
0.0110934
0.125765
0.245708
0.371068
0.486527
0.576611
0.630911
0.609114
0.45063
0.254326
0.0640095
-0.10392
-0.292513
-0.310945
-0.501395
-0.467044
-0.401962
-0.316976
-0.221318
-0.118688
-0.0102615
0.103323
0.221406
0.343569
0.453659
0.535973
0.571017
0.513124
0.320768
0.110387
-0.106773
-0.29596
-0.537897
-0.836149
-0.524528
-0.490162
-0.424521
-0.339029
-0.243164
-0.140687
-0.0328273
0.0796375
0.195755
0.314463
0.418869
0.492984
0.507183
0.398209
0.207853
-0.00185693
-0.205983
-0.378149
-0.447241
-0.526431
-0.548927
-0.514485
-0.44853
-0.362786
-0.26685
-0.164614
-0.0574118
0.0537642
0.1676
0.282332
0.380707
0.443876
0.433275
0.29069
0.10759
-0.0831032
-0.245719
-0.338447
-0.362467
-0.378384
-0.574901
-0.540323
-0.474161
-0.38833
-0.292505
-0.190681
-0.0843713
0.0252177
0.136358
0.246475
0.338309
0.387517
0.359342
0.190954
0.0167718
-0.14883
-0.275166
-0.314082
-0.326948
-0.328274
-0.602655
-0.567855
-0.501483
-0.415657
-0.320082
-0.21889
-0.113723
-0.00604885
0.101965
0.2069
0.291252
0.326176
0.278798
0.0988922
-0.0661932
-0.214454
-0.290501
-0.307512
-0.308783
-0.30858
-0.632254
-0.597147
-0.530518
-0.444765
-0.349595
-0.249231
-0.14547
-0.0400477
0.0644349
0.163674
0.239656
0.263109
0.179777
0.0148258
-0.141886
-0.264017
-0.300586
-0.29887
-0.29785
-0.297213
-0.663416
-0.628017
-0.561166
-0.475568
-0.380957
-0.281647
-0.179577
-0.0767481
0.0238107
0.116901
0.184321
0.19083
0.0895068
-0.063443
-0.201863
-0.276877
-0.287329
-0.29011
-0.290854
-0.290548
-0.69559
-0.660031
-0.593175
-0.507838
-0.413983
-0.315982
-0.215889
-0.116013
-0.0197167
0.0669301
0.125696
0.117019
0.00814035
-0.129487
-0.24509
-0.276151
-0.284599
-0.286174
-0.286057
-0.285805
-0.728314
-0.692634
-0.626103
-0.541182
-0.44833
-0.351913
-0.254123
-0.15755
-0.0658576
0.0144364
0.0627681
0.0464425
-0.0674211
-0.182709
-0.274792
-0.290742
-0.283061
-0.282248
-0.282283
-0.282129
-0.760693
-0.7251
-0.659059
-0.575018
-0.483456
-0.388968
-0.293829
-0.200869
-0.114136
-0.0399366
-0.00143889
-0.0194055
-0.135674
-0.223206
-0.273528
-0.285706
-0.282816
-0.28124
-0.280627
-0.280405
-0.791154
-0.756255
-0.691085
-0.608425
-0.5186
-0.426453
-0.334354
-0.245273
-0.163728
-0.0955504
-0.0604552
-0.0929278
-0.195987
-0.26252
-0.259041
-0.278554
-0.283828
-0.282037
-0.281182
-0.2807
-0.818103
-0.784302
-0.721057
-0.640205
-0.55273
-0.463443
-0.374837
-0.289904
-0.213463
-0.151461
-0.116897
-0.163921
-0.257094
-0.303904
-0.305388
-0.301262
-0.295161
-0.290948
-0.28935
-0.288504
-0.839421
-0.807347
-0.746985
-0.668967
-0.584586
-0.498797
-0.414201
-0.333733
-0.262136
-0.206192
-0.174533
-0.219768
-0.313025
-0.413708
-0.413115
-0.365474
-0.330177
-0.316975
-0.311604
-0.309018
-0.852876
-0.823517
-0.766873
-0.692873
-0.612676
-0.531232
-0.451242
-0.375565
-0.308663
-0.257698
-0.228117
-0.257555
-0.332391
-0.486666
-0.455225
-0.380865
-0.353005
-0.340036
-0.332735
-0.3307
-0.855846
-0.830562
-0.778844
-0.710097
-0.635332
-0.559359
-0.484689
-0.414199
-0.351837
-0.303961
-0.268106
-0.255223
-0.241668
-0.344125
-0.320492
-0.302766
-0.301078
-0.299767
-0.299607
-0.299536
-0.846152
-0.825786
-0.780729
-0.719054
-0.651103
-0.581754
-0.513302
-0.448403
-0.390505
-0.344924
-0.295519
-0.222943
-0.044791
0.157637
0.0153656
-0.138293
-0.221354
-0.253237
-0.266408
-0.269683
-0.821749
-0.8064
-0.770706
-0.718541
-0.659023
-0.597405
-0.535951
-0.477105
-0.42439
-0.382427
-0.326383
-0.249285
-0.0155515
0.246989
0.0321143
-0.192141
-0.301738
-0.343837
-0.360617
-0.367425
-0.785151
-0.775249
-0.749544
-0.708687
-0.659047
-0.606028
-0.551995
-0.499401
-0.452757
-0.417128
-0.387432
-0.463055
-0.720775
-1.07458
-1.14639
-0.915982
-0.736775
-0.659397
-0.641402
-0.638693
-0.743024
-0.737432
-0.722085
-0.692247
-0.652986
-0.608257
-0.56128
-0.514546
-0.4724
-0.444543
-0.435955
-0.675831
-1.11212
-1.53845
-1.48569
-1.11636
-0.903842
-0.817777
-0.77654
-0.764396
-0.705147
-0.701823
-0.694512
-0.674606
-0.64363
-0.605769
-0.564375
-0.521221
-0.4806
-0.449315
-0.445366
-0.495269
-0.507017
-0.482259
-0.424343
-0.463497
-0.554763
-0.536709
-0.503165
-0.499888
-0.678198
-0.676175
-0.672598
-0.660086
-0.635218
-0.601543
-0.562841
-0.520159
-0.475971
-0.433439
-0.414712
-0.37991
-0.333565
-0.302396
-0.330084
-0.423159
-0.510002
-0.484757
-0.406079
-0.364031
-0.657724
-0.656969
-0.655881
-0.649696
-0.630276
-0.598754
-0.559436
-0.514696
-0.464985
-0.416432
-0.381093
-0.359236
-0.215571
-0.0332602
0.130649
0.216009
0.237341
0.244738
0.261097
0.275236
-0.646008
-0.64563
-0.645043
-0.642459
-0.628414
-0.597707
-0.55553
-0.505756
-0.450845
-0.388455
-0.327228
-0.264662
-0.0733978
0.187037
0.426228
0.594255
0.670599
0.717822
0.74197
0.749575
-0.63896
-0.638695
-0.63811
-0.637847
-0.629335
-0.598886
-0.552394
-0.496985
-0.431789
-0.355448
-0.274911
-0.177938
0.0405049
0.302935
0.537489
0.712332
0.843502
0.952866
1.02778
1.05825
-0.635146
-0.635361
-0.635909
-0.637428
-0.631978
-0.601878
-0.551164
-0.489285
-0.414801
-0.329337
-0.229132
-0.126631
0.111507
0.404767
0.689405
0.938293
1.13333
1.27444
1.35906
1.38967
-0.628951
-0.6299
-0.632159
-0.634882
-0.630572
-0.602247
-0.551576
-0.485129
-0.403246
-0.305378
-0.199948
-0.107712
0.116277
0.417809
0.751328
1.04853
1.2819
1.43115
1.50285
1.52379
-0.623784
-0.622913
-0.617842
-0.6093
-0.605008
-0.594767
-0.556502
-0.487826
-0.39855
-0.294136
-0.186336
-0.0803657
0.0819016
0.39038
0.686536
0.952004
1.16328
1.29126
1.34923
1.36443
-0.652068
-0.64649
-0.628424
-0.604313
-0.598818
-0.609371
-0.577929
-0.499171
-0.398527
-0.287429
-0.180171
-0.074311
0.0536607
0.284806
0.541225
0.760198
0.928947
1.02668
1.06905
1.07885
-0.734286
-0.734273
-0.739052
-0.751262
-0.746469
-0.725997
-0.634524
-0.518223
-0.399314
-0.28318
-0.177787
-0.0814595
0.0124191
0.175736
0.380039
0.548437
0.679956
0.751908
0.781541
0.785927
-0.854003
-0.872533
-0.910415
-0.936664
-0.925672
-0.853314
-0.693015
-0.531013
-0.394255
-0.27584
-0.1791
-0.0994451
-0.0344594
0.0819454
0.232954
0.35933
0.455247
0.505485
0.524593
0.525579
-0.871898
-0.892258
-0.927343
-0.952674
-0.937913
-0.84797
-0.671304
-0.504749
-0.370111
-0.260233
-0.176383
-0.112992
-0.0665602
0.0109919
0.116388
0.205007
0.267976
0.300648
0.311308
0.312163
-0.681322
-0.702124
-0.735484
-0.762538
-0.752483
-0.668801
-0.540522
-0.41945
-0.316708
-0.230838
-0.1646
-0.1164
-0.0800209
-0.0301732
0.0312942
0.0839695
0.120241
0.136686
0.1425
0.141631
-0.35505
-0.367099
-0.388907
-0.412867
-0.421586
-0.397195
-0.350865
-0.296513
-0.243321
-0.191045
-0.146108
-0.110865
-0.0831864
-0.0519427
-0.0220873
-0.000731526
0.0108034
0.0145334
0.0151278
0.0146834
-0.0675433
-0.0727237
-0.0866709
-0.110949
-0.140536
-0.165874
-0.17931
-0.179794
-0.168603
-0.148589
-0.126339
-0.104535
-0.0841496
-0.0703104
-0.060587
-0.0565379
-0.0588781
-0.0625457
-0.063671
-0.0639202
0.0905477
0.0879481
0.0777876
0.054204
0.0160699
-0.0276348
-0.0655334
-0.0927432
-0.107627
-0.111977
-0.110029
-0.103611
-0.094155
-0.0911301
-0.0901231
-0.0917116
-0.0962853
-0.0993784
-0.100062
-0.100246
0.143992
0.142156
0.134181
0.114486
0.0810877
0.0397886
-0.00143874
-0.0367412
-0.0636216
-0.0832244
-0.100177
-0.116438
-0.125554
-0.118644
-0.109627
-0.107458
-0.107607
-0.108924
-0.109146
-0.10951
0.146392
0.145009
0.139218
0.124852
0.100024
0.0677579
0.0323781
-0.00157498
-0.0319868
-0.0601028
-0.092258
-0.136211
-0.159955
-0.141563
-0.12129
-0.110081
-0.105797
-0.104688
-0.104348
-0.104581
0.130982
0.130037
0.126144
0.116401
0.0991874
0.0757856
0.0482769
0.0198633
-0.00800514
-0.0369574
-0.072851
-0.121821
-0.146726
-0.121069
-0.0988975
-0.0896661
-0.0873097
-0.0873035
-0.0872857
-0.0874374
0.112116
0.111543
0.109091
0.102815
0.0914031
0.0752889
0.0554847
0.0340271
0.0121652
-0.0102131
-0.037089
-0.0696507
-0.0780199
-0.0613694
-0.0514169
-0.050702
-0.0539063
-0.0563212
-0.0568999
-0.0568735
0.0944889
0.0942104
0.0927954
0.0889906
0.0817998
0.071318
0.0581006
0.0436172
0.0294937
0.0171258
0.00825956
0.00199923
0.00894333
0.016266
0.0108717
0.00248628
-0.00484109
-0.0083215
-0.00904856
-0.00910436
0.079063
0.0789404
0.078229
0.0761148
0.071919
0.0656309
0.0577099
0.0494885
0.0431006
0.0422059
0.0521271
0.0722128
0.0982264
0.0909701
0.0738472
0.0593493
0.0508904
0.0487158
0.0470716
0.0466472
0.0653038
0.0653103
0.065054
0.0640716
0.0619431
0.0586765
0.0547582
0.0515095
0.0515436
0.0599692
0.0838738
0.120223
0.152574
0.14172
0.120334
0.104868
0.0977707
0.0953891
0.0945774
0.0937911
0.0524042
0.0524914
0.0525134
0.0522597
0.0514945
0.050239
0.0490581
0.0492418
0.053537
0.0675063
0.0981514
0.139269
0.170862
0.160758
0.141919
0.131629
0.127699
0.126731
0.125354
0.124128
0.0398142
0.0399324
0.0400993
0.0402503
0.0402678
0.0402468
0.0406578
0.0427026
0.048838
0.0643442
0.0946134
0.131857
0.15567
0.146607
0.134843
0.130377
0.131268
0.132013
0.13068
0.129446
0.0272119
0.0273066
0.0274801
0.027813
0.0282244
0.0287813
0.0298024
0.0323029
0.0381748
0.0515173
0.0762994
0.103918
0.118273
0.10959
0.105229
0.106992
0.111331
0.112721
0.111507
0.110371
0.0147844
0.0148446
0.0149819
0.0152812
0.015715
0.0162768
0.0171722
0.0189598
0.0228702
0.0312618
0.0465968
0.0632665
0.0689471
0.0623124
0.0623613
0.0668621
0.0717405
0.0742038
0.0730256
0.0717959
0.0027472
0.00276539
0.00276915
0.00283758
0.00307455
0.00321544
0.00336335
0.00363071
0.00410438
0.0050845
0.007196
0.0105203
0.0134785
0.0158838
0.0155549
0.016661
0.0172591
0.0129037
0.0128621
0.0133002
-0.0641087
0.102659
0.297377
0.467309
0.603069
0.709955
0.798327
0.873561
0.907837
0.884565
0.238298
0.358907
0.488669
0.600801
0.69529
0.773462
0.836754
0.881696
0.904193
0.916303
0.456938
0.539675
0.628371
0.70669
0.774039
0.830388
0.875209
0.907968
0.931665
0.94967
0.6176
0.676823
0.738396
0.795438
0.845051
0.887191
0.921814
0.949446
0.972223
0.990537
0.742947
0.786027
0.83196
0.875731
0.914407
0.948198
0.97713
1.00122
1.0216
1.03944
0.847211
0.880069
0.918164
0.953691
0.986308
1.01555
1.04111
1.0626
1.08045
1.0978
0.939727
0.968411
1.00237
1.0345
1.06444
1.09162
1.11536
1.13508
1.15059
1.16767
1.0283
1.0575
1.0915
1.12354
1.15314
1.17973
1.20259
1.22108
1.23445
1.25149
1.1236
1.15681
1.19345
1.22703
1.25707
1.28326
1.30521
1.32249
1.33436
1.35176
1.23859
1.27642
1.31506
1.34931
1.37865
1.4034
1.42377
1.43966
1.45113
1.4692
1.38353
1.42208
1.45822
1.4889
1.51458
1.53667
1.55573
1.57126
1.58369
1.60168
1.55861
1.59023
1.61641
1.63886
1.65883
1.67755
1.69527
1.71175
1.7271
1.74516
1.74722
1.76442
1.77946
1.79569
1.81159
1.82613
1.83933
1.85326
1.8708
1.89095
1.92894
1.93848
1.95002
1.96083
1.97011
1.9797
1.99048
2.00184
2.01321
2.02856
2.13618
2.13984
2.12489
2.11008
2.10381
2.10948
2.12796
2.15827
2.19045
2.2171
2.4425
2.30763
2.23099
2.18861
2.17119
2.17515
2.20255
2.25897
2.36158
2.58595
0.746565
0.744436
0.739953
0.731328
0.719104
0.706976
0.696747
0.688853
0.683238
0.679988
0.679638
0.68238
0.687486
0.694711
0.704099
0.715639
0.72829
0.739324
0.745436
0.74849
0.671017
0.676864
0.683197
0.687689
0.690159
0.689835
0.687098
0.68329
0.679782
0.677526
0.677384
0.679585
0.68325
0.68754
0.691347
0.693231
0.692294
0.688812
0.683649
0.677028
0.66259
0.664886
0.66829
0.671286
0.673361
0.674857
0.675612
0.675297
0.674274
0.673395
0.673575
0.675005
0.676822
0.678128
0.678308
0.677418
0.675868
0.673531
0.670268
0.667347
0.657077
0.658163
0.659996
0.662373
0.664396
0.665824
0.666844
0.667597
0.668001
0.668228
0.668723
0.669533
0.670132
0.670199
0.669786
0.668936
0.667466
0.665381
0.663294
0.661911
0.651871
0.652533
0.653641
0.655345
0.657125
0.658756
0.660052
0.661068
0.661953
0.662748
0.663482
0.664036
0.664229
0.664062
0.663493
0.662437
0.661008
0.659463
0.658144
0.657364
0.646891
0.647351
0.648137
0.649433
0.650919
0.652434
0.653898
0.655197
0.656335
0.657394
0.658314
0.658883
0.659028
0.658752
0.658052
0.657061
0.655933
0.654799
0.653883
0.653366
0.642057
0.642402
0.643012
0.644078
0.64537
0.646742
0.648179
0.649624
0.650998
0.652282
0.653396
0.654088
0.654263
0.653985
0.653382
0.652603
0.651749
0.650881
0.650207
0.649829
0.637316
0.637584
0.638076
0.638983
0.640149
0.641443
0.642835
0.644321
0.645862
0.647384
0.648735
0.649604
0.649902
0.649777
0.649379
0.648815
0.648163
0.647522
0.647029
0.64674
0.632586
0.632799
0.633208
0.634004
0.635089
0.636334
0.637715
0.639247
0.640917
0.642674
0.644307
0.645432
0.645965
0.646077
0.645906
0.645559
0.645111
0.64466
0.644307
0.64408
0.627779
0.627951
0.628301
0.629023
0.630062
0.631284
0.632691
0.634305
0.636129
0.638136
0.640107
0.641582
0.642432
0.642825
0.642901
0.64278
0.642542
0.642261
0.642022
0.641842
0.622809
0.622947
0.623256
0.623933
0.624955
0.6262
0.627672
0.629409
0.63144
0.633752
0.636135
0.638047
0.639277
0.639996
0.640353
0.640469
0.64044
0.640322
0.640181
0.640036
0.617586
0.617698
0.617979
0.618637
0.619675
0.620988
0.622569
0.624484
0.626788
0.629487
0.632379
0.634815
0.636493
0.637589
0.638263
0.638641
0.638818
0.638868
0.638813
0.638695
0.612018
0.612106
0.612371
0.613033
0.614125
0.615548
0.617292
0.619452
0.622106
0.625298
0.628816
0.631882
0.634089
0.635621
0.636649
0.637331
0.637745
0.637949
0.637968
0.637872
0.605996
0.606063
0.606321
0.607011
0.608194
0.609774
0.611746
0.614229
0.617333
0.62114
0.625422
0.629246
0.632081
0.634124
0.635561
0.636579
0.637252
0.637623
0.637713
0.637634
0.599393
0.599441
0.599701
0.600441
0.601755
0.603548
0.60582
0.608719
0.612391
0.616959
0.622172
0.626907
0.630492
0.633139
0.635053
0.636447
0.63742
0.637971
0.638131
0.638066
0.592059
0.59209
0.592354
0.593166
0.594657
0.596728
0.599385
0.602812
0.607197
0.612703
0.619049
0.624879
0.629354
0.632712
0.635192
0.637032
0.638346
0.63909
0.63932
0.639266
0.583803
0.58382
0.584086
0.584997
0.586719
0.589134
0.592287
0.596384
0.60166
0.60832
0.616041
0.623183
0.628713
0.632908
0.636057
0.638436
0.640133
0.641087
0.641387
0.641341
0.574315
0.574302
0.57463
0.575679
0.577687
0.580556
0.584342
0.589286
0.595677
0.603765
0.613153
0.621855
0.628628
0.633807
0.637739
0.640745
0.642885
0.644074
0.644447
0.644406
0.563315
0.563277
0.563649
0.564892
0.567271
0.570726
0.575318
0.581335
0.589125
0.598971
0.610372
0.620926
0.629158
0.635494
0.640347
0.644075
0.646727
0.648167
0.648611
0.648571
0.550325
0.55026
0.55071
0.552205
0.555068
0.55929
0.564927
0.572323
0.58188
0.593895
0.607716
0.620452
0.63038
0.63805
0.643977
0.648537
0.651761
0.653467
0.653977
0.653934
0.534704
0.534609
0.535183
0.537028
0.540541
0.545784
0.552808
0.562006
0.573818
0.58852
0.605236
0.620509
0.632378
0.641562
0.648722
0.654221
0.658075
0.660049
0.660613
0.660562
0.515514
0.515393
0.516167
0.518527
0.522957
0.529623
0.538542
0.550146
0.564863
0.582883
0.603021
0.621198
0.635249
0.646136
0.654645
0.661196
0.665712
0.667937
0.668535
0.668466
0.491366
0.491228
0.492332
0.495486
0.501295
0.510041
0.521646
0.536518
0.554986
0.577066
0.601195
0.62263
0.639081
0.651825
0.661788
0.669485
0.674648
0.677075
0.677674
0.67758
0.459952
0.459834
0.461547
0.466079
0.474181
0.486159
0.501702
0.521064
0.544332
0.571291
0.599971
0.62497
0.643975
0.658686
0.670196
0.679051
0.684766
0.687298
0.687855
0.687729
0.417144
0.417186
0.420235
0.427635
0.439981
0.457236
0.478606
0.504015
0.53327
0.565936
0.599643
0.628404
0.650033
0.666749
0.679815
0.689752
0.695828
0.698311
0.698773
0.698613
0.355226
0.356414
0.363869
0.377665
0.397762
0.423407
0.45298
0.486089
0.522421
0.56144
0.600466
0.633067
0.657309
0.675963
0.69047
0.701256
0.70744
0.709635
0.709929
0.709744
0.281743
0.283478
0.297747
0.32144
0.352407
0.387956
0.426484
0.467811
0.511748
0.557803
0.603023
0.640393
0.668044
0.689198
0.70551
0.717232
0.723429
0.725435
0.725694
0.725603
0.205878
0.21201
0.233089
0.266967
0.308297
0.353465
0.400921
0.450531
0.50217
0.555382
0.606984
0.6493
0.68048
0.704302
0.722609
0.735092
0.740918
0.742496
0.742685
0.742655
0.143816
0.15224
0.177876
0.218742
0.268182
0.321561
0.377062
0.434414
0.4934
0.553508
0.611244
0.658231
0.692686
0.718849
0.738596
0.751572
0.757365
0.758775
0.759026
0.759058
0.0933243
0.102343
0.131518
0.177604
0.233177
0.293174
0.355489
0.419695
0.485401
0.55197
0.615508
0.666919
0.704415
0.732747
0.753989
0.76756
0.773366
0.775119
0.775457
0.775534
0.051033
0.0603361
0.0919596
0.142039
0.202646
0.26814
0.336233
0.406425
0.478165
0.550685
0.619676
0.675281
0.71569
0.746124
0.76877
0.783231
0.789543
0.791596
0.791965
0.792051
0.0145902
0.0240095
0.0574784
0.110758
0.175522
0.245702
0.318828
0.394323
0.471534
0.549559
0.623677
0.683268
0.726461
0.75892
0.78298
0.798362
0.805293
0.807514
0.807933
0.808002
-0.0176688
-0.0082061
0.0266811
0.0826634
0.150913
0.225131
0.302714
0.382985
0.465208
0.548354
0.627315
0.690692
0.736532
0.770875
0.796263
0.812516
0.820036
0.822453
0.822907
0.822972
-0.0470178
-0.037507
-0.00145407
0.0568706
0.128104
0.205859
0.287401
0.372002
0.458847
0.546812
0.630393
0.697398
0.745739
0.78181
0.808385
0.825352
0.833445
0.836047
0.836518
0.836566
-0.0743211
-0.0647549
-0.0276607
0.0326502
0.106557
0.187443
0.272524
0.361064
0.452201
0.544728
0.632767
0.703296
0.754026
0.791736
0.819336
0.836888
0.845363
0.848105
0.848598
0.848625
-0.100135
-0.0905042
-0.05244
0.00956006
0.0858815
0.169552
0.257823
0.349958
0.445081
0.541945
0.63433
0.708348
0.761427
0.800676
0.829202
0.847216
0.855842
0.858692
0.859193
0.859187
-0.124962
-0.115163
-0.0762481
-0.0126414
0.0658075
0.151963
0.243113
0.338529
0.437361
0.538355
0.635013
0.712546
0.768
0.808748
0.838083
0.856395
0.865103
0.867958
0.868461
0.868432
-0.149031
-0.139005
-0.0993388
-0.0341813
0.046152
0.134529
0.228275
0.326685
0.428955
0.533888
0.634759
0.715881
0.773811
0.816089
0.846161
0.864679
0.873368
0.876177
0.876639
0.87658
-0.17245
-0.162212
-0.121738
-0.0552096
0.0268102
0.117181
0.213253
0.31438
0.419823
0.52848
0.633512
0.718358
0.778934
0.822851
0.853657
0.872273
0.88083
0.883529
0.883934
0.883856
-0.195377
-0.184835
-0.143602
-0.0757931
0.00773768
0.0998838
0.198032
0.301607
0.409954
0.522112
0.631226
0.719957
0.783428
0.829171
0.86072
0.879297
0.887621
0.890129
0.890442
0.890328
-0.217775
-0.206952
-0.164979
-0.0959679
-0.0110731
0.0826471
0.182641
0.288397
0.39937
0.514775
0.627859
0.720625
0.787317
0.835175
0.867526
0.885896
0.893773
0.895992
0.896188
0.896051
-0.239701
-0.228568
-0.185805
-0.115721
-0.0296035
0.0655033
0.167121
0.274809
0.388123
0.50649
0.623374
0.720294
0.790578
0.840964
0.874293
0.892296
0.899438
0.901185
0.901234
0.901074
-0.260981
-0.249607
-0.206074
-0.135011
-0.0478068
0.0485222
0.151537
0.260913
0.376285
0.497311
0.61775
0.718876
0.793126
0.846571
0.881276
0.898892
0.904913
0.905837
0.905637
0.905467
-0.281755
-0.270032
-0.225775
-0.153818
-0.0656522
0.0317422
0.135979
0.246787
0.363941
0.487318
0.610996
0.716265
0.794811
0.851907
0.888661
0.906259
0.910862
0.910297
0.909472
0.909292
-0.301858
-0.289817
-0.244877
-0.172097
-0.0830608
0.0152474
0.120528
0.232553
0.351201
0.476574
0.603148
0.712359
0.79543
0.856722
0.896373
0.915013
0.918598
0.915782
0.913256
0.912274
-0.321351
-0.309004
-0.263324
-0.189797
-0.0999961
-0.000892857
0.105267
0.218289
0.338175
0.465216
0.594273
0.707056
0.794746
0.860604
0.903879
0.925192
0.929663
0.925447
0.918925
0.91043
-0.34015
-0.32755
-0.281211
-0.207071
-0.116665
-0.0169501
0.0898673
0.203602
0.324421
0.452748
0.583845
0.699804
0.79226
0.863172
0.910486
0.936036
0.944316
0.940469
0.930214
0.924719
-0.358207
-0.345379
-0.298523
-0.22389
-0.133073
-0.0329191
0.074341
0.188471
0.309894
0.439051
0.571664
0.690214
0.787186
0.863623
0.914181
0.943161
0.953834
0.954112
0.916351