/*--------------------------------*- C++ -*----------------------------------*\
| =========                 |                                                 |
| \\      /  F ield         | OpenFOAM: The Open Source CFD Toolbox           |
|  \\    /   O peration     | Version:  4.0                                   |
|   \\  /    A nd           | Web:      www.OpenFOAM.org                      |
|    \\/     M anipulation  |                                                 |
\*---------------------------------------------------------------------------*/
FoamFile
{
    version     2.0;
    format      ascii;
    class       surfaceScalarField;
    location    "57";
    object      phi;
}
// * * * * * * * * * * * * * * * * * * * * * * * * * * * * * * * * * * * * * //

dimensions      [0 3 -1 0 0 0 0];

internalField   nonuniform List<scalar> 
17370
(
-0.0916068
0.0960096
0.284608
-0.0775951
0.0594207
0.36495
-0.0430435
0.0316246
0.427587
-0.0223218
0.0162703
0.505303
-0.0116779
0.00880425
0.602276
-0.00659279
0.00510744
0.720543
-0.00387019
0.00298969
0.863787
-0.00221669
0.0016386
1.03603
-0.00110726
0.000686311
1.24292
-0.000275067
-0.000118695
1.49158
0.000506923
-0.000920348
1.4916
0.00132449
-0.00182916
1.2432
0.00237997
-0.00312348
1.03638
0.00398119
-0.00520036
0.864126
0.0066748
-0.00887682
0.72126
0.0117404
-0.0163183
0.603793
0.0223551
-0.0316418
0.508726
0.0430433
-0.05941
0.432535
0.0775885
-0.0960035
0.365191
0.0916209
0.19739
-0.127091
0.088022
0.0390687
-0.364355
0.354029
-0.071476
0.081802
-0.446654
0.454254
-0.0791714
0.0715716
-0.521011
0.529109
-0.0637198
0.0556225
-0.612991
0.62076
-0.0482363
0.0404675
-0.727164
0.733685
-0.0338557
0.0273347
-0.867581
0.872434
-0.0221302
0.0172771
-1.03857
1.04191
-0.0135776
0.0102372
-1.24472
1.24713
-0.00768575
0.00527909
-1.49284
1.49486
-0.00331381
0.00129753
-1.49269
1.49451
0.000523444
-0.00234488
-1.24411
1.24602
0.00431907
-0.00623104
-1.03761
1.04009
0.0085677
-0.0110481
-0.866187
0.869815
0.0143072
-0.0179352
-0.724594
0.729747
0.0227202
-0.0278733
-0.609064
0.615633
0.0343462
-0.0409153
-0.515123
0.522458
0.0486349
-0.0559703
-0.43988
0.447657
0.0639922
-0.07177
-0.374707
0.377355
0.0792648
-0.0819129
-0.256897
0.224435
0.0715628
-0.0391008
-0.0688106
0.0591988
0.00961182
-0.0521077
0.0589344
-0.374837
0.368011
-0.0580874
0.0542458
-0.453946
0.457788
-0.0487595
0.0442007
-0.527618
0.532177
-0.0396515
0.035756
-0.620803
0.624698
-0.0315432
0.0275475
-0.734661
0.738657
-0.0231893
0.0193002
-0.873957
0.877846
-0.0152526
0.0117932
-1.04336
1.04682
-0.00827113
0.00523615
-1.24865
1.25169
-0.00202597
-0.00095748
-1.49695
1.49993
0.00391906
-0.00706855
-1.49742
1.50057
0.0100142
-0.0134158
-1.25006
1.25347
0.0167533
-0.0206619
-1.04565
1.04956
0.0244284
-0.0286643
-0.877134
0.88137
0.0325612
-0.0366774
-0.738979
0.743095
0.0404931
-0.0449641
-0.625967
0.630438
0.0494575
-0.0548799
-0.535013
0.540436
0.0586476
-0.059407
-0.458073
0.458832
0.0524585
-0.0320676
-0.33676
0.316369
0.00967434
-0.06866
0.0589857
-0.05341
0.0492989
0.00411106
-0.0332406
0.043663
-0.358565
0.348143
-0.047338
0.0467508
-0.459582
0.460169
-0.0438221
0.0406096
-0.536135
0.539347
-0.0369329
0.0335786
-0.628399
0.631753
-0.0299451
0.0267037
-0.742039
0.74528
-0.0232493
0.0200497
-0.881341
0.884541
-0.0164539
0.0130992
-1.05025
1.05361
-0.00939669
0.00598892
-1.25495
1.25836
-0.00219504
-0.00142376
-1.50328
1.5069
0.00501125
-0.00871389
-1.50406
1.50777
0.0119969
-0.01553
-1.25702
1.26056
0.0187129
-0.0221118
-1.05326
1.05666
0.0251362
-0.0284147
-0.884976
0.888255
0.0315138
-0.0350079
-0.746777
0.750271
0.0382451
-0.0418001
-0.634556
0.638111
0.0449071
-0.0477172
-0.544577
0.547387
0.0481817
-0.0443362
-0.456945
0.4531
0.0337044
-0.0163846
-0.297046
0.279727
0.0041802
-0.0531343
0.0489541
-0.0461301
0.0435752
0.0025549
-0.0230428
0.0333899
-0.337554
0.327207
-0.0391214
0.0400686
-0.459921
0.458974
-0.038816
0.0364873
-0.542006
0.544334
-0.0338451
0.0312991
-0.634724
0.63727
-0.0283223
0.0254736
-0.748368
0.751217
-0.0222339
0.0192176
-0.887598
0.890615
-0.0158632
0.0127256
-1.05678
1.05992
-0.00916491
0.00576148
-1.26175
1.26516
-0.00184801
-0.00195161
-1.51063
1.51443
0.00571101
-0.0095022
-1.51155
1.51534
0.0127411
-0.0160797
-1.26401
1.26735
0.0189912
-0.0220868
-1.05986
1.06295
0.0248706
-0.0278727
-0.891448
0.89445
0.0305259
-0.0333106
-0.753448
0.756233
0.0356969
-0.0381778
-0.64106
0.643541
0.0403681
-0.0414378
-0.549218
0.550287
0.0403002
-0.0342908
-0.44797
0.44196
0.0236383
-0.0103818
-0.264532
0.251275
0.00264062
-0.0457082
0.0430676
-0.0414577
0.0396582
0.00179951
-0.0169385
0.0262199
-0.317341
0.30806
-0.032812
0.0349291
-0.457416
0.455299
-0.0344918
0.0327907
-0.546367
0.548068
-0.0305612
0.0284317
-0.639586
0.641715
-0.0259921
0.0236111
-0.753821
0.756202
-0.0207926
0.0180422
-0.893474
0.896225
-0.0148532
0.011814
-1.06296
1.066
-0.00834413
0.00502462
-1.26848
1.2718
-0.00118173
-0.00256731
-1.5182
1.52195
0.00626474
-0.00995369
-1.51908
1.52277
0.0130649
-0.0162537
-1.27062
1.27381
0.019006
-0.0218641
-1.06598
1.06884
0.0243142
-0.0268246
-0.897231
0.899741
0.0289527
-0.0311452
-0.758671
0.760864
0.0330709
-0.0350924
-0.645763
0.647784
0.0365918
-0.03678
-0.550862
0.551051
0.0343703
-0.0273718
-0.435361
0.428362
0.0176813
-0.00748341
-0.23969
0.229492
0.00190433
-0.0408557
0.0389514
-0.0381097
0.0367591
0.00135056
-0.0129382
0.0209321
-0.299425
0.291431
-0.0276941
0.0306117
-0.452749
0.449831
-0.0308148
0.0296872
-0.54951
0.550637
-0.0276852
0.0257559
-0.643778
0.645707
-0.0235403
0.0213946
-0.758449
0.760595
-0.0188809
0.0164073
-0.898778
0.901251
-0.0134816
0.0106214
-1.0689
1.07176
-0.00728702
0.00406669
-1.27503
1.27825
-0.00033077
-0.00330178
-1.52561
1.52925
0.00686973
-0.0104131
-1.52637
1.52992
0.0133741
-0.016358
-1.27692
1.2799
0.0188588
-0.0213683
-1.07155
1.07406
0.0234651
-0.0255916
-0.902051
0.904177
0.0274179
-0.029319
-0.762903
0.764804
0.0309902
-0.0327433
-0.649647
0.6514
0.0335761
-0.0330258
-0.55087
0.55032
0.0296902
-0.0223719
-0.421146
0.413827
0.0138532
-0.00578358
-0.22046
0.21239
0.00147837
-0.0372875
0.0358091
-0.0355795
0.0345396
0.00103996
-0.0101124
0.0168804
-0.284074
0.277306
-0.0233922
0.0267726
-0.446661
0.44328
-0.0275535
0.0268587
-0.551542
0.552237
-0.0250904
0.0233046
-0.647606
0.649392
-0.021239
0.0192292
-0.762673
0.764683
-0.0168638
0.0145419
-0.903584
0.905906
-0.01181
0.00913084
-1.07447
1.07714
-0.00597845
0.00290164
-1.28136
1.28444
0.000691061
-0.00418492
-1.53278
1.53627
0.00759888
-0.0109536
-1.53336
1.53671
0.0137089
-0.0164272
-1.28277
1.28549
0.0186635
-0.0208823
-1.07645
1.07867
0.0227376
-0.0246227
-0.906198
0.908084
0.0262365
-0.0279121
-0.766589
0.768265
0.0293785
-0.0308041
-0.653004
0.654429
0.0311314
-0.029858
-0.549421
0.548147
0.0259025
-0.0186595
-0.406521
0.399278
0.011233
-0.00465717
-0.205138
0.198562
0.00119541
-0.0344894
0.033294
-0.0336259
0.0328155
0.000810384
-0.00801906
0.0137136
-0.271103
0.265408
-0.0197498
0.0233368
-0.439786
0.436199
-0.0246024
0.0241578
-0.552839
0.553284
-0.0226644
0.0209907
-0.651174
0.652848
-0.0190239
0.0171059
-0.766645
0.768563
-0.0148437
0.0126192
-0.908115
0.910339
-0.00999831
0.00743568
-1.07969
1.08225
-0.00443233
0.00149927
-1.28739
1.29032
0.00192638
-0.00525343
-1.53966
1.54298
0.00848429
-0.0116198
-1.53994
1.54308
0.0141595
-0.0166353
-1.28809
1.29057
0.0186578
-0.0206498
-1.08081
1.0828
0.0223
-0.0239695
-0.909885
0.911554
0.0253982
-0.0268821
-0.769846
0.771329
0.0281567
-0.0292077
-0.655642
0.656693
0.0291666
-0.0272287
-0.546546
0.544608
0.0228744
-0.0159007
-0.392166
0.385192
0.00938886
-0.00387717
-0.19257
0.187058
0.0009994
-0.0322101
0.0312107
-0.0321028
0.0314696
0.000633258
-0.00640781
0.0111852
-0.260199
0.255422
-0.0166381
0.020234
-0.432607
0.429011
-0.0218305
0.0216152
-0.55365
0.553865
-0.0203585
0.0187487
-0.654539
0.656149
-0.0168413
0.0149761
-0.770452
0.772317
-0.0127775
0.0106178
-0.912456
0.914616
-0.00807485
0.00559148
-1.0847
1.08718
-0.00268937
-0.000123271
-1.29314
1.29595
0.00339903
-0.00655448
-1.54619
1.54934
0.00958948
-0.0125052
-1.54608
1.549
0.0148457
-0.0171054
-1.29295
1.29521
0.0189295
-0.0207034
-1.08474
1.08651
0.0221604
-0.0236351
-0.913154
0.914628
0.0249028
-0.0262186
-0.772732
0.774048
0.0273497
-0.0279899
-0.65752
0.65816
0.0275833
-0.0250911
-0.542407
0.539915
0.0204971
-0.0138632
-0.3784
0.371766
0.00807832
-0.00333059
-0.181968
0.177221
0.000862751
-0.0302911
0.0294283
-0.0309157
0.0304254
0.000490211
-0.00511378
0.00910088
-0.251065
0.247078
-0.0139251
0.017381
-0.425492
0.422036
-0.0191698
0.0191512
-0.554025
0.554044
-0.018098
0.0165273
-0.657808
0.659379
-0.0146486
0.0128041
-0.774166
0.77601
-0.0106298
0.00849856
-0.916674
0.918805
-0.00599831
0.00356718
-1.08955
1.09198
-0.000737661
-0.00199312
-1.29866
1.30139
0.00513922
-0.00814053
-1.55238
1.55538
0.0109965
-0.0137099
-1.55179
1.5545
0.0158636
-0.0179169
-1.29737
1.29943
0.0195517
-0.0211184
-1.08825
1.08981
0.0223917
-0.0236833
-0.916041
0.917332
0.024801
-0.0259581
-0.775284
0.776441
0.0269047
-0.027169
-0.658596
0.65886
0.0263708
-0.0234108
-0.537202
0.534242
0.0186779
-0.0123797
-0.365321
0.359022
0.00715325
-0.00295164
-0.17278
0.168579
0.00076958
-0.0286231
0.0278535
-0.0300024
0.0296329
0.000369566
-0.00403219
0.00732588
-0.243461
0.240167
-0.0115092
0.0147149
-0.418718
0.415513
-0.0165697
0.0167111
-0.554033
0.553891
-0.0157474
0.0142545
-0.660988
0.662481
-0.012376
0.0105192
-0.777849
0.779706
-0.00833139
0.0061956
-0.92084
0.922976
-0.00370428
0.0012941
-1.0943
1.09671
0.00148966
-0.00415802
-1.30402
1.30669
0.00720512
-0.0100762
-1.55827
1.56114
0.0127709
-0.0152911
-1.55709
1.55962
0.0172585
-0.0191022
-1.30138
1.30323
0.0205463
-0.0219074
-1.09135
1.09272
0.0230015
-0.0241177
-0.918574
0.91969
0.0250918
-0.0260843
-0.777516
0.778509
0.0267799
-0.0267477
-0.658991
0.658959
0.0255431
-0.0221719
-0.531094
0.527723
0.0173488
-0.0113359
-0.352895
0.346883
0.00652071
-0.00269908
-0.164599
0.160777
0.00070946
-0.0271251
0.0264157
-0.0293231
0.0290608
0.000262293
-0.00308639
0.00575516
-0.237207
0.234538
-0.00929818
0.0121712
-0.412492
0.409619
-0.013979
0.0142097
-0.553762
0.553531
-0.0132941
0.0118498
-0.664036
0.66548
-0.0099494
0.00805349
-0.781564
0.78346
-0.00582098
0.00364974
-0.925016
0.927188
-0.00112979
-0.0012912
-1.09901
1.10144
0.00406961
-0.00670592
-1.30926
1.3119
0.00967953
-0.0124408
-1.56391
1.56667
0.0149893
-0.0173272
-1.56201
1.56435
0.0191166
-0.0207584
-1.30498
1.30662
0.0220149
-0.0231659
-1.09407
1.09522
0.0240739
-0.0250105
-0.920762
0.921699
0.0258401
-0.0266591
-0.779411
0.78023
0.0270717
-0.0267808
-0.658792
0.658501
0.0251289
-0.0213698
-0.524178
0.520419
0.0164627
-0.0106566
-0.34101
0.335204
0.00612187
-0.00254688
-0.157111
0.153536
0.000675797
-0.0257349
0.0250591
-0.0288549
0.0286942
0.000160702
-0.00221246
0.0042955
-0.232181
0.230098
-0.00719372
0.00966411
-0.40697
0.404499
-0.0113182
0.0115618
-0.55336
0.553117
-0.0106651
0.00923532
-0.667018
0.668447
-0.00729015
0.00532716
-0.785361
0.787324
-0.0030137
0.000772812
-0.929266
0.931507
0.00181418
-0.00428173
-1.10377
1.10623
0.00708802
-0.00972142
-1.31445
1.31708
0.0126513
-0.015325
-1.56933
1.572
0.0177409
-0.019901
-1.56656
1.56872
0.0215106
-0.0229455
-1.30816
1.3096
0.024009
-0.0249393
-1.09639
1.09732
0.0256457
-0.0263849
-0.922589
0.923328
0.0270594
-0.0277318
-0.780948
0.781621
0.0278385
-0.027186
-0.657984
0.657331
0.0251093
-0.0209715
-0.516512
0.512374
0.0159616
-0.0102753
-0.329505
0.323819
0.00590888
-0.00247363
-0.150065
0.146629
0.000662784
-0.0244029
0.0237401
-0.0285893
0.0285312
5.81254e-05
-0.00136119
0.00287387
-0.228318
0.226805
-0.0051138
0.007118
-0.402287
0.400282
-0.00851374
0.00868615
-0.552988
0.552816
-0.00775934
0.00630554
-0.670008
0.671462
-0.00427515
0.0022124
-0.789295
0.791358
0.000217029
-0.00256467
-0.933654
0.936002
0.0052554
-0.00780281
-1.10861
1.11116
0.0106714
-0.0133299
-1.31963
1.32229
0.0162392
-0.0188374
-1.57457
1.57717
0.0211243
-0.023105
-1.57075
1.57273
0.024531
-0.0257512
-1.31092
1.31214
0.0266095
-0.0273046
-1.09828
1.09897
0.0277992
-0.0283268
-0.924032
0.924559
0.0288389
-0.0293157
-0.782125
0.782602
0.0291364
-0.0280675
-0.65643
0.655361
0.0255303
-0.0209884
-0.508103
0.503561
0.0158269
-0.0101605
-0.318201
0.312535
0.00585797
-0.00246917
-0.143255
0.139866
0.000668043
-0.0230893
0.0224213
-0.028529
0.0285798
-5.08146e-05
-0.00048685
0.00142381
-0.225596
0.224659
-0.00297793
0.00445178
-0.398568
0.397094
-0.00548794
0.00550766
-0.552818
0.552798
-0.00449868
0.00297145
-0.673096
0.674623
-0.000827082
-0.00137271
-0.793432
0.795632
0.00396543
-0.00645631
-0.938255
0.940746
0.00929661
-0.0119647
-1.11362
1.11629
0.0149381
-0.0176548
-1.32487
1.32759
0.0205727
-0.0231134
-1.57967
1.58221
0.0252792
-0.0270782
-1.57458
1.57638
0.0283126
-0.0293068
-1.31324
1.31423
0.02995
-0.0304005
-1.09972
1.10017
0.0306684
-0.0309661
-0.925054
0.925352
0.031289
-0.0314976
-0.782794
0.783003
0.0310449
-0.0294653
-0.654028
0.652449
0.0264205
-0.0214299
-0.498899
0.493908
0.0160491
-0.0102949
-0.306896
0.301142
0.00595585
-0.0025274
-0.136499
0.133071
0.000689858
-0.0217585
0.0210686
-0.0286858
0.0288519
-0.000166098
0.000434381
-0.000103586
-0.224039
0.223708
-0.000715116
0.0015771
-0.39594
0.395079
-0.00214691
0.00192574
-0.553019
0.55324
-0.000775757
-0.000890282
-0.676388
0.678054
0.00320187
-0.00558381
-0.797847
0.800229
0.00838808
-0.0110703
-0.943148
0.94583
0.0141095
-0.0169402
-1.11888
1.12171
0.0200595
-0.0228677
-1.33024
1.33304
0.0258231
-0.0283217
-1.58466
1.58716
0.0303686
-0.0319763
-1.57803
1.57964
0.0330035
-0.033741
-1.31508
1.31581
0.0341441
-0.0343347
-1.10066
1.10085
0.0343628
-0.0344096
-0.925613
0.92566
0.0345301
-0.0344078
-0.782831
0.782709
0.0336104
-0.0314294
-0.650648
0.648467
0.0278239
-0.0223151
-0.488797
0.483288
0.0166258
-0.0106664
-0.295367
0.289407
0.00619177
-0.00264282
-0.129627
0.126078
0.00072657
-0.020378
0.0196515
-0.0290979
0.0294049
-0.000306939
0.00142951
-0.00174505
-0.223733
0.224049
0.00176732
-0.00162448
-0.394532
0.394389
0.0016528
-0.00222228
-0.553808
0.554378
0.00359891
-0.00545748
-0.680021
0.681879
0.00799751
-0.0106145
-0.802625
0.805242
0.0136865
-0.0166094
-0.948424
0.951347
0.0198997
-0.022938
-1.12447
1.12751
0.0262472
-0.0291778
-1.33578
1.33872
0.0321898
-0.0346485
-1.58955
1.59201
0.0365647
-0.0379527
-1.58107
1.58246
0.0387486
-0.0392048
-1.31638
1.31683
0.0393466
-0.0392493
-1.10104
1.10094
0.0390105
-0.0387832
-0.92565
0.925422
0.0386971
-0.0381342
-0.782112
0.781549
0.0368944
-0.0340422
-0.646124
0.643272
0.0297906
-0.0236632
-0.477646
0.471518
0.0175571
-0.0112667
-0.283378
0.277087
0.00655775
-0.00281083
-0.122481
0.118734
0.000776557
-0.0189193
0.0181427
-0.0297829
0.0302658
-0.000482968
0.00270924
-0.00376937
-0.224749
0.225809
0.00465791
-0.00530872
-0.394568
0.395219
0.0060546
-0.0070763
-0.555424
0.556445
0.00875774
-0.0108762
-0.684106
0.686224
0.0137187
-0.0166353
-0.807876
0.810792
0.0200455
-0.023274
-0.954189
0.957417
0.026884
-0.0301855
-1.13048
1.13378
0.0337326
-0.0368158
-1.34158
1.34466
0.0399011
-0.0423183
-1.59435
1.59677
0.0440837
-0.0452234
-1.58366
1.5848
0.0457343
-0.045889
-1.31708
1.31723
0.0457409
-0.0453196
-1.10078
1.10036
0.0447838
-0.0442585
-0.925089
0.924563
0.0438665
-0.0428514
-0.780491
0.779476
0.0410521
-0.0374081
-0.64029
0.636646
0.0323933
-0.0255121
-0.465231
0.45835
0.018857
-0.0120965
-0.270673
0.263913
0.00705036
-0.00302856
-0.114905
0.110884
0.000838695
-0.0173563
0.0165176
-0.0308183
0.0315202
-0.000701867
0.00419857
-0.00614791
-0.227286
0.229235
0.00809655
-0.00965021
-0.396257
0.397811
0.0112191
-0.0128174
-0.55811
0.559708
0.0149419
-0.0174117
-0.688793
0.691262
0.0206544
-0.0239516
-0.813732
0.81703
0.0277876
-0.0313962
-0.960576
0.964185
0.0353967
-0.0390134
-1.13703
1.14064
0.0428395
-0.0460946
-1.34767
1.35093
0.0492503
-0.0515987
-1.59906
1.6014
0.0531689
-0.0540047
-1.58572
1.58656
0.0541792
-0.0539905
-1.3171
1.31691
0.0535175
-0.052738
-1.09982
1.09904
0.0518742
-0.0510074
-0.923862
0.922995
0.0502173
-0.0486982
-0.777952
0.776433
0.0461942
-0.0416107
-0.632901
0.628317
0.0356832
-0.0278786
-0.451275
0.44347
0.0205218
-0.0131424
-0.256972
0.249592
0.0076566
-0.00328791
-0.10675
0.102381
0.000909936
-0.0156662
0.0147563
-0.0322857
0.0332747
-0.000988964
0.00607557
-0.00907713
-0.231602
0.234604
0.0122883
-0.0148997
-0.399869
0.40248
0.017438
-0.0197435
-0.562153
0.564459
0.0224584
-0.0254111
-0.694281
0.697234
0.02919
-0.0329733
-0.820367
0.82415
0.0373338
-0.0413983
-0.967732
0.971796
0.0458568
-0.0498334
-1.14421
1.14818
0.0539642
-0.0573885
-1.3541
1.35752
0.060582
-0.0628062
-1.60358
1.60581
0.0641135
-0.0645679
-1.58714
1.58759
0.0643535
-0.0637293
-1.31633
1.3157
0.0628745
-0.0616795
-1.09805
1.09685
0.0604468
-0.059235
-0.921876
0.920664
0.0579194
-0.0558016
-0.774384
0.772266
0.0524588
-0.0467387
-0.62364
0.61792
0.0397032
-0.0307662
-0.43543
0.426493
0.022534
-0.0143797
-0.241977
0.233822
0.00835476
-0.00357632
-0.0978762
0.0930978
0.000985907
-0.013833
0.0128471
-0.0343138
0.0356958
-0.00138204
0.00851614
-0.0128722
-0.238012
0.242368
0.0175711
-0.0214197
-0.405772
0.40962
0.0250952
-0.0282541
-0.567887
0.571046
0.0317283
-0.0353141
-0.700853
0.704439
0.0397828
-0.0441759
-0.827979
0.832373
0.049175
-0.0537824
-0.97581
0.980418
0.0587696
-0.0631398
-1.1521
1.15647
0.0675729
-0.0711299
-1.36082
1.36438
0.0742851
-0.0762881
-1.6078
1.6098
0.0772219
-0.0771802
-1.58772
1.58768
0.0764943
-0.0753186
-1.31456
1.31339
0.0740224
-0.0723588
-1.09534
1.09368
0.0707198
-0.0690857
-0.919097
0.917462
0.0671818
-0.0643355
-0.769578
0.766732
0.059952
-0.0528425
-0.612103
0.604993
0.0444584
-0.0341416
-0.417282
0.406965
0.0248426
-0.0157571
-0.225383
0.216298
0.00910561
-0.0038728
-0.088168
0.0829352
0.00105956
-0.0118509
0.0107913
-0.0370962
0.0390351
-0.00193887
0.0119309
-0.0179979
-0.247052
0.253119
0.0244987
-0.0298006
-0.414457
0.419759
0.0348271
-0.0390264
-0.575693
0.579892
0.0434629
-0.0478746
-0.708824
0.713236
0.0532284
-0.0583748
-0.836813
0.84196
0.0641305
-0.0693477
-0.984986
0.990203
0.0748856
-0.0796205
-1.16075
1.16549
0.084274
-0.0878478
-1.36775
1.37132
0.0907996
-0.0924025
-1.61148
1.61308
0.0927839
-0.0920754
-1.58722
1.58651
0.0907795
-0.0889497
-1.31162
1.30979
0.0871241
-0.0849771
-1.09156
1.08941
0.0829226
-0.0806871
-0.915331
0.913095
0.0782324
-0.0744036
-0.763178
0.759349
0.0687278
-0.0599177
-0.597767
0.588957
0.0498937
-0.0379127
-0.396346
0.384365
0.0273465
-0.0171873
-0.206897
0.196737
0.00984745
-0.00414668
-0.0775533
0.0718525
0.00112132
-0.00972871
0.00860739
-0.0409575
0.0437652
-0.00280778
0.016867
-0.0251897
-0.259439
0.267761
0.0339343
-0.0409927
-0.426597
0.433655
0.0476709
-0.0531438
-0.586056
0.591529
0.0588282
-0.0643273
-0.718609
0.724108
0.0707861
-0.0768068
-0.847136
0.853157
0.0833657
-0.0891638
-0.995352
1.00115
0.0951536
-0.10011
-1.17005
1.175
0.104774
-0.108136
-1.37458
1.37794
0.110601
-0.111532
-1.61422
1.61515
0.11111
-0.109511
-1.58527
1.58367
0.107436
-0.104824
-1.30729
1.30468
0.102355
-0.0996377
-1.08659
1.08387
0.0971296
-0.0942182
-0.910182
0.907271
0.0911287
-0.0860574
-0.754668
0.749597
0.0787543
-0.0678528
-0.579965
0.569064
0.0558515
-0.0419014
-0.372082
0.358132
0.0298752
-0.0185356
-0.186275
0.174936
0.0104906
-0.00435595
-0.0660339
0.0598993
0.00115873
-0.0074958
0.00633707
-0.0464734
0.0507458
-0.00427235
0.0245292
-0.0359227
-0.276337
0.28773
0.0475752
-0.0569575
-0.443216
0.452598
0.0656507
-0.0725875
-0.599592
0.606528
0.0797972
-0.0867753
-0.730609
0.737587
0.0943896
-0.101197
-0.859143
0.86595
0.108394
-0.114559
-1.00678
1.01294
0.120692
-0.125536
-1.17961
1.18446
0.129804
-0.132564
-1.38078
1.38354
0.134114
-0.133994
-1.6154
1.61528
0.132435
-0.12967
-1.58139
1.57863
0.126628
-0.123071
-1.30132
1.29776
0.119863
-0.116487
-1.08029
1.07691
0.113454
-0.109795
-0.903465
0.899806
0.105806
-0.0990943
-0.74348
0.736768
0.08977
-0.0763339
-0.557867
0.54443
0.0620063
-0.0458081
-0.343936
0.327738
0.032173
-0.0196168
-0.163397
0.150841
0.0109168
-0.00444735
-0.0537284
0.047259
0.00115578
-0.00520665
0.00405087
-0.0547066
0.0620502
-0.00734358
0.0379901
-0.0538556
-0.299889
0.315755
0.0695766
-0.08216
-0.465961
0.478544
0.0930196
-0.101298
-0.61673
0.625008
0.109997
-0.118217
-0.745182
0.753402
0.126707
-0.133895
-0.872541
0.879729
0.141167
-0.147115
-1.01867
1.02462
0.152728
-0.156829
-1.18864
1.19274
0.160032
-0.161571
-1.38546
1.387
0.161607
-0.15995
-1.6142
1.61254
0.156876
-0.152646
-1.57502
1.57079
0.148408
-0.14372
-1.29335
1.28866
0.139664
-0.135588
-1.07244
1.06836
0.131894
-0.12739
-0.895003
0.890499
0.122079
-0.113203
-0.728707
0.71983
0.101297
-0.0847648
-0.530426
0.513893
0.0678018
-0.0492221
-0.311417
0.292837
0.0339636
-0.0202893
-0.138366
0.124692
0.0110582
-0.00439969
-0.0409287
0.0342702
0.00110374
-0.00294798
0.00184424
-0.0689009
0.0730203
-0.00411936
0.0291238
-0.0428694
-0.334099
0.347844
0.0567872
-0.0683036
-0.496279
0.507795
0.0785667
-0.0880973
-0.63702
0.64655
0.0986731
-0.10831
-0.761232
0.770868
0.118987
-0.128477
-0.886057
0.895547
0.138543
-0.14744
-1.02962
1.03852
0.156634
-0.1644
-1.19573
1.2035
0.171934
-0.177723
-1.38734
1.39313
0.182516
-0.185146
-1.60963
1.61226
0.185575
-0.184361
-1.56549
1.56428
0.182096
-0.178931
-1.28302
1.27985
0.17612
-0.17284
-1.06283
1.05955
0.169909
-0.165453
-0.884242
0.879786
0.158181
-0.145166
-0.709126
0.696111
0.127498
-0.103914
-0.496491
0.472908
0.0808988
-0.0566976
-0.274191
0.249989
0.037899
-0.0218901
-0.111667
0.0956584
0.0115679
-0.00446973
-0.0281613
0.0210631
0.00109976
-0.000828846
-0.00027091
-0.0801573
0.0783323
0.001825
0.00748117
-0.0165307
-0.364403
0.373452
0.0270907
-0.0352282
-0.524004
0.532141
0.0434424
-0.0515057
-0.658567
0.66663
0.0612526
-0.0702813
-0.780188
0.789216
0.0798451
-0.088555
-0.904481
0.913191
0.0977534
-0.105539
-1.04711
1.05489
0.113758
-0.120319
-1.21104
1.2176
0.126593
-0.131075
-1.39856
1.40304
0.134123
-0.135168
-1.61397
1.61502
0.133999
-0.131153
-1.56222
1.55937
0.127256
-0.122332
-1.27594
1.27102
0.117792
-0.1128
-1.05417
1.04918
0.10814
-0.102209
-0.870497
0.864565
0.0945677
-0.0831398
-0.679143
0.667715
0.0698363
-0.0538433
-0.447834
0.431841
0.039737
-0.0265003
-0.226185
0.212949
0.0171278
-0.00966512
-0.0806955
0.0732328
0.00507697
-0.0019789
-0.0144331
0.0113351
0.000430522
0.00137064
-0.00180117
-0.0816106
0.0787319
0.00287866
-0.00169068
-0.00356156
-0.384854
0.390106
0.0107587
-0.0166294
-0.544463
0.550333
0.0227128
-0.0297603
-0.676777
0.683824
0.0381763
-0.0460098
-0.79739
0.805223
0.0545341
-0.0621293
-0.921159
0.928754
0.0698939
-0.0768112
-1.06248
1.0694
0.083881
-0.0895788
-1.22369
1.22939
0.0945275
-0.0977693
-1.40678
1.41003
0.0997522
-0.0995792
-1.61525
1.61507
0.0972012
-0.0931431
-1.55577
1.55171
0.0882809
-0.0825383
-1.26574
1.26
0.076842
-0.0707361
-1.04263
1.03653
0.0649982
-0.0582596
-0.854917
0.848178
0.0512969
-0.0418808
-0.652889
0.643473
0.0323455
-0.0222791
-0.414053
0.403987
0.0149132
-0.00917302
-0.199159
0.193419
0.0057414
-0.00336488
-0.0657571
0.0633806
0.00190618
-0.000800011
-0.00828351
0.00717734
0.00015133
0.00239733
-0.00254866
-0.0803634
0.0776394
0.00272398
-0.0053104
0.00278543
-0.39848
0.401005
0.00186177
-0.00629176
-0.559558
0.563988
0.0114197
-0.0173176
-0.691797
0.697695
0.0244925
-0.0311916
-0.812445
0.819144
0.0384706
-0.0449796
-0.935821
0.94233
0.0520068
-0.0578488
-1.07587
1.08172
0.0639847
-0.0684417
-1.23464
1.2391
0.0725463
-0.0750466
-1.41299
1.41549
0.0760722
-0.0748513
-1.61437
1.61315
0.0718792
-0.0672739
-1.54701
1.54241
0.0619279
-0.0552896
-1.25385
1.24721
0.0490523
-0.0422398
-1.02922
1.02241
0.0357207
-0.0288263
-0.838493
0.831599
0.0223092
-0.0150364
-0.631027
0.623755
0.00867811
-0.00351671
-0.392757
0.387596
0.000900531
0.000317081
-0.186185
0.184967
-0.000556372
0.000289642
-0.0599991
0.0602659
-8.8352e-05
2.61712e-05
-0.0058028
0.00586498
-4.9893e-05
0.00298365
-0.00293376
-0.0788629
0.0764468
0.00241605
-0.00644805
0.00552617
-0.407555
0.408477
-0.0021134
-0.00108575
-0.571634
0.574833
0.00524511
-0.0105889
-0.704374
0.709717
0.0166061
-0.0224787
-0.825164
0.831036
0.0287752
-0.0344171
-0.948385
0.954027
0.0404241
-0.0455968
-1.08741
1.09258
0.0507434
-0.0547752
-1.24339
1.24742
0.0581749
-0.0600847
-1.41758
1.41949
0.0605272
-0.0588259
-1.61169
1.60999
0.055451
-0.0502832
-1.53706
1.53189
0.0446484
-0.0378659
-1.24043
1.23365
0.0313703
-0.0241091
-1.01475
1.00749
0.0174862
-0.0104869
-0.822317
0.815318
0.00463937
0.00114689
-0.61379
0.608003
-0.00523681
0.00740961
-0.380162
0.377989
-0.0074564
0.00629825
-0.181567
0.182726
-0.00476003
0.00300454
-0.0597204
0.0614759
-0.00167157
0.000679688
-0.00580705
0.00679893
-0.000213807
0.00314274
-0.00292893
-0.0774635
0.0753912
0.0020723
-0.00633882
0.00592831
-0.413764
0.414174
-0.00390176
0.00133424
-0.580913
0.58348
0.00271263
-0.00727733
-0.715014
0.719579
0.0124433
-0.0175391
-0.836136
0.841232
0.0231339
-0.0281656
-0.959316
0.964348
0.0336406
-0.0381435
-1.09746
1.10196
0.0427323
-0.0463069
-1.25114
1.25472
0.0492085
-0.0507222
-1.4211
1.42262
0.0507759
-0.0491522
-1.60815
1.60653
0.0455311
-0.0403666
-1.52624
1.52108
0.0346443
-0.0278083
-1.22664
1.2198
0.0215135
-0.0141059
-0.999782
0.992375
0.00741322
-0.000612039
-0.806645
0.799844
-0.00466635
0.00931428
-0.599687
0.595039
-0.0122418
0.0132159
-0.372932
0.371958
-0.0119279
0.0096491
-0.181724
0.184003
-0.0073752
0.00478819
-0.0625017
0.0650887
-0.00274523
0.00112437
-0.00769049
0.00931136
-0.000334209
0.00286755
-0.00253335
-0.0763942
0.0747768
0.00161743
-0.00547259
0.00539712
-0.418359
0.418434
-0.00377637
0.00185279
-0.588988
0.590912
0.00193354
-0.00605679
-0.72421
0.728333
0.0109546
-0.015338
-0.845938
0.850321
0.0202454
-0.0246948
-0.969341
0.97379
0.0298734
-0.0339459
-1.10649
1.11056
0.0379929
-0.0413446
-1.25809
1.26144
0.0443553
-0.0456681
-1.42413
1.42544
0.0457083
-0.0439624
-1.60448
1.60274
0.0406865
-0.0354145
-1.51571
1.51044
0.0300437
-0.023602
-1.21285
1.2064
0.0173952
-0.0104249
-0.984868
0.977898
0.00390591
0.00277036
-0.791643
0.784967
-0.00768544
0.0117773
-0.58755
0.583459
-0.0142439
0.0147915
-0.368116
0.367568
-0.0135126
0.0110815
-0.184132
0.186564
-0.00856806
0.00569619
-0.066922
0.0697938
-0.0033593
0.00142286
-0.0106817
0.0126181
-0.000422251
0.00230855
-0.0018863
-0.0758244
0.0745528
0.00127157
-0.00441
0.0044627
-0.421993
0.42194
-0.00304372
0.00120657
-0.596004
0.597841
0.00242675
-0.00610132
-0.732459
0.736133
0.0102956
-0.0145192
-0.854648
0.858872
0.0190419
-0.0236156
-0.978039
0.982612
0.0280539
-0.0319312
-1.11471
1.11859
0.0360911
-0.0391828
-1.26466
1.26776
0.041697
-0.0434005
-1.42665
1.42835
0.0435969
-0.0421253
-1.60105
1.59957
0.039027
-0.0343608
-1.50541
1.50075
0.0293398
-0.0232522
-1.19972
1.19363
0.0174507
-0.0108319
-0.970742
0.964123
0.00470148
0.0014821
-0.777451
0.771267
-0.00643527
0.0102899
-0.576453
0.572598
-0.0124752
0.0133856
-0.36441
0.3635
-0.0126091
0.0104903
-0.186701
0.18882
-0.00824841
0.00559365
-0.0716715
0.0743263
-0.00338454
0.00149204
-0.0141117
0.0160041
-0.000433398
0.00157454
-0.00114114
-0.0757789
0.0747212
0.00105773
-0.00314657
0.0029683
-0.425243
0.425421
-0.00180803
3.37459e-05
-0.602451
0.604225
0.0034582
-0.00701224
-0.740118
0.743672
0.0110313
-0.0148435
-0.862871
0.866683
0.0194719
-0.0232497
-0.986601
0.990379
0.0276471
-0.0313362
-1.12261
1.1263
0.0353736
-0.0386525
-1.27082
1.2741
0.0414427
-0.0429247
-1.42981
1.43129
0.0434664
-0.0424126
-1.59804
1.59699
0.0399709
-0.0356245
-1.49601
1.49166
0.0310416
-0.0253695
-1.18771
1.18204
0.0200082
-0.0138216
-0.957306
0.951119
0.00826322
-0.00235655
-0.764292
0.758386
-0.00245846
0.00640294
-0.566109
0.562165
-0.00865914
0.00969838
-0.360386
0.359347
-0.00960943
0.00826729
-0.188591
0.189933
-0.00666149
0.00460996
-0.075816
0.0778676
-0.00284025
0.00128875
-0.0172879
0.0188394
-0.000375022
0.000821766
-0.000446744
-0.076014
0.0752798
0.000734218
-0.00200043
0.00138666
-0.428578
0.429192
-0.000402084
-0.00166696
-0.608044
0.610114
0.00472017
-0.00811513
-0.747254
0.750649
0.0119609
-0.0158958
-0.870347
0.874282
0.0199019
-0.0238348
-0.994353
0.998286
0.0281921
-0.031673
-1.13041
1.13389
0.0357985
-0.0390309
-1.27717
1.2804
0.0418827
-0.0439004
-1.43318
1.43519
0.0449461
-0.0441918
-1.59599
1.59523
0.0420026
-0.0383712
-1.48752
1.48389
0.0343535
-0.0291321
-1.17633
1.1711
0.0241641
-0.0187314
-0.944953
0.93952
0.0132775
-0.00788972
-0.751842
0.746454
0.00318812
0.00116111
-0.556339
0.55199
-0.00357368
0.00506292
-0.355727
0.354238
-0.0055313
0.00515804
-0.189278
0.189652
-0.0042854
0.00306881
-0.0786566
0.0798732
-0.00196461
0.000920481
-0.0196963
0.0207404
-0.000267251
0.000184371
8.288e-05
-0.0766734
0.0760962
0.000577164
-0.00102727
0.000517104
-0.432139
0.432649
0.00112234
-0.00304634
-0.613857
0.615781
0.00624572
-0.00950838
-0.75386
0.757123
0.0132022
-0.0167318
-0.877874
0.881404
0.0208582
-0.0244768
-1.00221
1.00583
0.0287862
-0.0327035
-1.13781
1.14173
0.0364734
-0.0400394
-1.28367
1.28724
0.0433201
-0.0454438
-1.43711
1.43924
0.0468803
-0.0469196
-1.5947
1.59474
0.0451859
-0.0422212
-1.48017
1.4772
0.0385078
-0.0339102
-1.16604
1.16144
0.0295381
-0.0244602
-0.933778
0.9287
0.0195268
-0.014324
-0.740247
0.735044
0.00970858
-0.00513025
-0.546271
0.541693
0.0020402
8.03848e-05
-0.350248
0.348127
-0.00131729
0.00179385
-0.18832
0.187844
-0.00173825
0.00136832
-0.0798453
0.0802152
-0.000943817
0.000485904
-0.0210711
0.0215291
-0.000156876
-0.000238676
0.000395552
-0.0776066
0.0772138
0.000392793
-1.36165e-05
-0.000765872
-0.435804
0.436583
0.00229266
-0.00453603
-0.619259
0.621502
0.00764939
-0.0107453
-0.760234
0.76333
0.0145261
-0.0179041
-0.884901
0.888279
0.0218747
-0.0256192
-1.00992
1.01367
0.0298363
-0.0337236
-1.14549
1.14938
0.0377208
-0.0413214
-1.29072
1.29432
0.0448016
-0.0476857
-1.44165
1.44453
0.0495808
-0.0499301
-1.59472
1.59507
0.0489207
-0.0463654
-1.47418
1.47163
0.0433319
-0.0394277
-1.15692
1.15302
0.0352485
-0.0304987
-0.923408
0.918659
0.025807
-0.0205923
-0.729165
0.72395
0.0160357
-0.0111365
-0.536157
0.531258
0.00752561
-0.00453392
-0.34369