/*--------------------------------*- C++ -*----------------------------------*\
| =========                 |                                                 |
| \\      /  F ield         | OpenFOAM: The Open Source CFD Toolbox           |
|  \\    /   O peration     | Version:  4.0                                   |
|   \\  /    A nd           | Web:      www.OpenFOAM.org                      |
|    \\/     M anipulation  |                                                 |
\*---------------------------------------------------------------------------*/
FoamFile
{
    version     2.0;
    format      ascii;
    class       volVectorField;
    location    "57";
    object      U;
}
// * * * * * * * * * * * * * * * * * * * * * * * * * * * * * * * * * * * * * //

dimensions      [0 1 -1 0 0 0 0];

internalField   nonuniform List<vector> 
8800
(
(0.98014 -0.091521 0)
(1.00234 -0.0587306 0)
(0.999577 -0.0321305 0)
(0.99997 -0.0165254 0)
(1.00006 -0.00884577 0)
(1.00008 -0.00509999 0)
(1.00005 -0.00299525 0)
(1.00002 -0.00168402 0)
(0.999998 -0.000782768 0)
(1.00006 -8.42019e-05 0)
(0.999987 0.000624049 0)
(0.999995 0.00137877 0)
(1.00002 0.00240394 0)
(1.00004 0.00400621 0)
(1.00004 0.00675081 0)
(0.999995 0.0120517 0)
(0.999792 0.0230953 0)
(0.999029 0.0431569 0)
(1.00724 0.0790258 0)
(0.775025 0.0478395 0)
(0.358988 -0.0147485 0)
(1.0465 -0.0724832 0)
(1.08847 -0.066021 0)
(1.04943 -0.0509162 0)
(1.02553 -0.0376975 0)
(1.01273 -0.0258919 0)
(1.00657 -0.0166945 0)
(1.00363 -0.0102024 0)
(1.00219 -0.00557023 0)
(1.00151 -0.00197525 0)
(1.00138 0.00123859 0)
(1.00173 0.00454765 0)
(1.0027 0.00843706 0)
(1.00474 0.0137489 0)
(1.00898 0.0214222 0)
(1.01795 0.0319112 0)
(1.03578 0.0446822 0)
(1.06741 0.0581221 0)
(1.09469 0.0699569 0)
(0.845618 0.0555083 0)
(0.217798 -0.00138055 0)
(1.07568 -0.0506466 0)
(1.09941 -0.0489289 0)
(1.06438 -0.0400124 0)
(1.03989 -0.0325527 0)
(1.0238 -0.0253375 0)
(1.01403 -0.0181139 0)
(1.00852 -0.0114874 0)
(1.00566 -0.0057263 0)
(1.00448 -0.000432548 0)
(1.00479 0.00468002 0)
(1.00663 0.00996659 0)
(1.01056 0.0159332 0)
(1.01789 0.0226846 0)
(1.03049 0.0297811 0)
(1.05047 0.0368632 0)
(1.08002 0.0446352 0)
(1.10563 0.0519555 0)
(0.943235 0.0410183 0)
(0.21717 0.00140603 0)
(0.17666 -0.000628335 0)
(1.01942 -0.0354543 0)
(1.10572 -0.0413962 0)
(1.07798 -0.036378 0)
(1.05245 -0.0303312 0)
(1.03524 -0.0244524 0)
(1.02338 -0.0186517 0)
(1.01556 -0.0126468 0)
(1.01095 -0.006544 0)
(1.00891 -0.000301156 0)
(1.00943 0.0058587 0)
(1.0125 0.0117721 0)
(1.01846 0.0175357 0)
(1.02805 0.0231028 0)
(1.04224 0.0286405 0)
(1.06305 0.0344135 0)
(1.09382 0.0402929 0)
(1.09438 0.0418094 0)
(0.830118 0.0227895 0)
(0.175588 0.000648814 0)
(0.154761 -0.000462104 0)
(0.95823 -0.0256792 0)
(1.10443 -0.0350961 0)
(1.0881 -0.0326432 0)
(1.06128 -0.0281346 0)
(1.04324 -0.0231702 0)
(1.03086 -0.0178616 0)
(1.02225 -0.0123108 0)
(1.0167 -0.00639125 0)
(1.01403 6.94026e-05 0)
(1.01466 0.00653178 0)
(1.01843 0.0124025 0)
(1.02521 0.0177114 0)
(1.03535 0.0227059 0)
(1.05007 0.0275155 0)
(1.07199 0.0319458 0)
(1.10095 0.0358163 0)
(1.0696 0.0340123 0)
(0.742395 0.014469 0)
(0.153154 0.000485118 0)
(0.140088 -0.000334005 0)
(0.901252 -0.0193133 0)
(1.09686 -0.0301991 0)
(1.09625 -0.0293165 0)
(1.069 -0.0255325 0)
(1.05018 -0.021445 0)
(1.03721 -0.0167386 0)
(1.02822 -0.0114796 0)
(1.02226 -0.00574668 0)
(1.01926 0.000617224 0)
(1.01986 0.00699335 0)
(1.02384 0.0126417 0)
(1.03086 0.0176136 0)
(1.04136 0.0220683 0)
(1.05671 0.0259971 0)
(1.07949 0.0295003 0)
(1.10323 0.032207 0)
(1.03777 0.0281842 0)
(0.675507 0.0103261 0)
(0.137824 0.000361306 0)
(0.129362 -0.000252546 0)
(0.851413 -0.0149159 0)
(1.08452 -0.0260982 0)
(1.10195 -0.0264396 0)
(1.07585 -0.0231183 0)
(1.05651 -0.0194614 0)
(1.04312 -0.0152571 0)
(1.03375 -0.0103848 0)
(1.02751 -0.00487593 0)
(1.02429 0.00130149 0)
(1.02477 0.00746112 0)
(1.02876 0.0128265 0)
(1.03593 0.0173753 0)
(1.04672 0.0212248 0)
(1.06243 0.0245547 0)
(1.08566 0.0275782 0)
(1.10242 0.0293835 0)
(1.00302 0.0236537 0)
(0.623377 0.0079275 0)
(0.126295 0.000285754 0)
(0.121188 -0.000193724 0)
(0.808951 -0.0117306 0)
(1.06923 -0.0225044 0)
(1.10548 -0.0238119 0)
(1.08211 -0.0209437 0)
(1.06232 -0.0175142 0)
(1.04865 -0.0135944 0)
(1.03902 -0.00904596 0)
(1.03251 -0.00381346 0)
(1.02905 0.00212762 0)
(1.02937 0.00801587 0)
(1.03331 0.013025 0)
(1.04054 0.0171148 0)
(1.05142 0.0204902 0)
(1.06738 0.0234252 0)
(1.09099 0.0261341 0)
(1.09874 0.0270317 0)
(0.967844 0.0200916 0)
(0.581515 0.00636411 0)
(0.117147 0.000234072 0)
(0.114853 -0.000149135 0)
(0.773146 -0.00934729 0)
(1.05239 -0.0193414 0)
(1.10784 -0.0213866 0)
(1.08799 -0.0189031 0)
(1.06778 -0.015637 0)
(1.05385 -0.0118872 0)
(1.04403 -0.00754306 0)
(1.0373 -0.00255355 0)
(1.03358 0.00312422 0)
(1.03368 0.0087012 0)
(1.03749 0.0133323 0)
(1.04466 0.0170219 0)
(1.05557 0.0200209 0)
(1.07176 0.0226219 0)
(1.09506 0.0249832 0)
(1.09225 0.02508 0)
(0.933601 0.0173337 0)
(0.546915 0.0052918 0)
(0.109626 0.000198113 0)
(0.109906 -0.000113916 0)
(0.743072 -0.00750121 0)
(1.03507 -0.0165367 0)
(1.10923 -0.0191058 0)
(1.09356 -0.0169377 0)
(1.07306 -0.0137736 0)
(1.05884 -0.0101258 0)
(1.04883 -0.00591152 0)
(1.04189 -0.00109786 0)
(1.03789 0.00432454 0)
(1.03772 0.00957174 0)
(1.04131 0.0138381 0)
(1.04834 0.0171633 0)
(1.05924 0.0198165 0)
(1.07565 0.0221316 0)
(1.09785 0.0241284 0)
(1.08333 0.0234687 0)
(0.900885 0.0152288 0)
(0.517515 0.00454145 0)
(0.103239 0.000173238 0)
(0.106058 -8.48614e-05 0)
(0.717908 -0.00601566 0)
(1.01809 -0.0140198 0)
(1.10977 -0.0169048 0)
(1.09902 -0.0150261 0)
(1.07824 -0.0118857 0)
(1.06372 -0.00827946 0)
(1.05349 -0.00413626 0)
(1.0463 0.000558088 0)
(1.04199 0.00576467 0)
(1.04147 0.0107066 0)
(1.04476 0.0146339 0)
(1.05162 0.0176196 0)
(1.06249 0.0199358 0)
(1.0791 0.0219847 0)
(1.0993 0.0235919 0)
(1.07236 0.0221945 0)
(0.86983 0.0136633 0)
(0.491852 0.00402159 0)
(0.0976404 0.000156987 0)
(0.103114 -5.9778e-05 0)
(0.697009 -0.00477247 0)
(1.00209 -0.0117239 0)
(1.10962 -0.0147431 0)
(1.10431 -0.0130746 0)
(1.0834 -0.00990888 0)
(1.06856 -0.00628634 0)
(1.05807 -0.00215725 0)
(1.05059 0.00246306 0)
(1.0459 0.00750036 0)
(1.04495 0.0121645 0)
(1.04788 0.0157583 0)
(1.05451 0.0184012 0)
(1.06535 0.0203856 0)
(1.0821 0.0221765 0)
(1.09976 0.0233781 0)
(1.05965 0.0212591 0)
(0.840294 0.0125456 0)
(0.468837 0.00367468 0)
(0.0925691 0.000147415 0)
(0.100954 -3.67425e-05 0)
(0.679899 -0.00368317 0)
(0.987502 -0.00957953 0)
(1.10897 -0.0125381 0)
(1.1094 -0.0109967 0)
(1.08863 -0.00778541 0)
(1.07344 -0.00409356 0)
(1.06264 8.29804e-05 0)
(1.05479 0.00468314 0)
(1.04962 0.00959721 0)
(1.04816 0.014008 0)
(1.05066 0.0172812 0)
(1.05703 0.0195864 0)
(1.0678 0.0212293 0)
(1.08463 0.0227506 0)
(1.09922 0.0235417 0)
(1.04536 0.0206845 0)
(0.811967 0.0118045 0)
(0.447618 0.00346283 0)
(0.0878221 0.000143219 0)
(0.0995135 -1.40623e-05 0)
(0.666271 -0.00267821 0)
(0.974699 -0.00751167 0)
(1.10814 -0.01023 0)
(1.11441 -0.00873936 0)
(1.094 -0.0054536 0)
(1.07842 -0.00162907 0)
(1.06725 0.00265581 0)
(1.05895 0.00729585 0)
(1.05321 0.0121367 0)
(1.05112 0.0163192 0)
(1.05311 0.0192674 0)
(1.05917 0.0212255 0)
(1.06984 0.022506 0)
(1.08669 0.023761 0)
(1.09748 0.0240989 0)
(1.02958 0.0204471 0)
(0.784454 0.0113835 0)
(0.427515 0.00335926 0)
(0.0832397 0.000143203 0)
(0.0987743 1.01642e-05 0)
(0.655969 -0.00170308 0)
(0.963994 -0.00544828 0)
(1.10745 -0.00775056 0)
(1.11947 -0.0062141 0)
(1.09959 -0.00280136 0)
(1.08359 0.00121989 0)
(1.07197 0.00567163 0)
(1.06312 0.0104118 0)
(1.05667 0.0152158 0)
(1.05383 0.0191765 0)
(1.05521 0.021794 0)
(1.06089 0.0233817 0)
(1.07143 0.0242779 0)
(1.08823 0.0252423 0)
(1.09446 0.0250835 0)
(1.01231 0.0205818 0)
(0.757314 0.0112516 0)
(0.407958 0.00334946 0)
(0.0786891 0.000146993 0)
(0.0987563 3.20353e-05 0)
(0.648963 -0.000711018 0)
(0.955685 -0.0033162 0)
(1.10725 -0.00503195 0)
(1.12476 -0.00335196 0)
(1.1055 0.000243282 0)
(1.08904 0.00452885 0)
(1.07688 0.009225 0)
(1.06736 0.014136 0)
(1.06005 0.0189492 0)
(1.0563 0.0227009 0)
(1.05694 0.0249756 0)
(1.06216 0.0261737 0)
(1.07256 0.0266611 0)
(1.08903 0.0272596 0)
(1.08995 0.0265372 0)
(0.99341 0.0211106 0)
(0.730047 0.0113919 0)
(0.388433 0.00342498 0)
(0.0740499 0.000154181 0)
(0.099496 6.99449e-05 0)
(0.64533 0.000309727 0)
(0.950093 -0.00104035 0)
(1.10787 -0.00198497 0)
(1.13045 -4.51772e-05 0)
(1.11182 0.00380755 0)
(1.09485 0.00844374 0)
(1.08205 0.013466 0)
(1.07171 0.0186149 0)
(1.06337 0.0234849 0)
(1.05852 0.0270329 0)
(1.05826 0.0289318 0)
(1.06293 0.0297016 0)
(1.07316 0.0297555 0)
(1.08894 0.0299339 0)
(1.08382 0.0284989 0)
(0.97266 0.0220623 0)
(0.70211 0.0117941 0)
(0.368458 0.00357859 0)
(0.0692133 0.000164345 0)
(0.101199 9.79417e-05 0)
(0.645454 0.00146995 0)
(0.947564 0.001465 0)
(1.10976 0.00149414 0)
(1.13676 0.00381308 0)
(1.1187 0.00805875 0)
(1.10114 0.0131404 0)
(1.08756 0.0185725 0)
(1.07621 0.0240309 0)
(1.06661 0.0289888 0)
(1.06044 0.032322 0)
(1.05915 0.033792 0)
(1.06316 0.0340916 0)
(1.07315 0.0336736 0)
(1.08775 0.0333674 0)
(1.07575 0.0310611 0)
(0.949733 0.0234646 0)
(0.672929 0.0124537 0)
(0.347584 0.00380482 0)
(0.0640833 0.00017694 0)
(0.103925 0.000145029 0)
(0.649696 0.00289537 0)
(0.948593 0.0043441 0)
(1.11341 0.00551589 0)
(1.14391 0.00837183 0)
(1.1263 0.0131459 0)
(1.10804 0.018783 0)
(1.09351 0.0247381 0)
(1.08092 0.0305854 0)
(1.06977 0.0356594 0)
(1.06203 0.0387427 0)
(1.05953 0.039714 0)
(1.06276 0.0394996 0)
(1.07247 0.038543 0)
(1.08528 0.0376882 0)
(1.06545 0.0343226 0)
(0.924174 0.0253707 0)
(0.641876 0.0133742 0)
(0.325366 0.00410063 0)
(0.0585718 0.000191585 0)
(0.10795 0.000206726 0)
(0.658625 0.00457368 0)
(0.953642 0.00775678 0)
(1.11929 0.0102685 0)
(1.15217 0.0138549 0)
(1.13479 0.019319 0)
(1.11571 0.025654 0)
(1.1 0.0322491 0)
(1.08588 0.0385531 0)
(1.07286 0.0437398 0)
(1.06325 0.0464923 0)
(1.05934 0.0468828 0)
(1.06164 0.0460922 0)
(1.07101 0.0445206 0)
(1.08152 0.043058 0)
(1.05248 0.0383884 0)
(0.895406 0.0278038 0)
(0.60827 0.0145453 0)
(0.301378 0.00445596 0)
(0.0526051 0.000207219 0)
(0.113609 0.000290261 0)
(0.672949 0.00666015 0)
(0.963366 0.0118983 0)
(1.128 0.0159876 0)
(1.16187 0.0205334 0)
(1.14445 0.0269267 0)
(1.12432 0.0341189 0)
(1.10712 0.0414644 0)
(1.09111 0.0482681 0)
(1.07582 0.0535169 0)
(1.06402 0.0558233 0)
(1.05845 0.0555106 0)
(1.05969 0.0540321 0)
(1.06865 0.0517914 0)
(1.07627 0.049588 0)
(1.03631 0.0433454 0)
(0.862716 0.0307857 0)
(0.571399 0.0159457 0)
(0.275234 0.00485522 0)
(0.0461355 0.000222484 0)
(0.121408 0.000409353 0)
(0.693586 0.00938486 0)
(0.978634 0.0170699 0)
(1.1402 0.0230106 0)
(1.17353 0.0287747 0)
(1.15557 0.0363723 0)
(1.13404 0.0446052 0)
(1.11493 0.0528195 0)
(1.09653 0.0601231 0)
(1.07851 0.0653144 0)
(1.06416 0.066988 0)
(1.0567 0.0657931 0)
(1.05681 0.0635029 0)
(1.06531 0.060494 0)
(1.06924 0.0574035 0)
(1.01624 0.0492684 0)
(0.82528 0.0343068 0)
(0.530545 0.0175274 0)
(0.246631 0.00527169 0)
(0.0391552 0.000235284 0)
(0.132059 0.000579027 0)
(0.721867 0.0131365 0)
(1.00061 0.023762 0)
(1.15665 0.0319062 0)
(1.18769 0.0391986 0)
(1.16848 0.0483524 0)
(1.14506 0.0578154 0)
(1.12344 0.0669416 0)
(1.10206 0.0746168 0)
(1.08078 0.0794814 0)
(1.06353 0.0802183 0)
(1.05397 0.0779107 0)
(1.05285 0.0746584 0)
(1.06073 0.0707308 0)
(1.05985 0.0665626 0)
(0.991408 0.056188 0)
(0.782168 0.0382999 0)
(0.485059 0.0192031 0)
(0.21542 0.00566489 0)
(0.0317138 0.000243046 0)
(0.146849 0.000855523 0)
(0.759797 0.0185058 0)
(1.03093 0.032746 0)
(1.1783 0.0436052 0)
(1.20513 0.0528963 0)
(1.18352 0.0639424 0)
(1.15739 0.0747226 0)
(1.13247 0.0846132 0)
(1.10741 0.0923236 0)
(1.08234 0.0963994 0)
(1.06186 0.0957655 0)
(1.05008 0.0920526 0)
(1.04767 0.0876381 0)
(1.05452 0.0827218 0)
(1.04738 0.0772639 0)
(0.960709 0.0640239 0)
(0.732428 0.0426209 0)
(0.4345 0.0208325 0)
(0.181712 0.00597812 0)
(0.0239413 0.000242743 0)
(0.167949 0.0013303 0)
(0.810626 0.026671 0)
(1.07216 0.0455814 0)
(1.20629 0.0599271 0)
(1.22651 0.0719497 0)
(1.20074 0.0846907 0)
(1.17079 0.0965911 0)
(1.14161 0.106747 0)
(1.11214 0.113825 0)
(1.08277 0.116418 0)
(1.05885 0.113834 0)
(1.04479 0.108338 0)
(1.04111 0.10255 0)
(1.04657 0.0966388 0)
(1.03105 0.0893087 0)
(0.922795 0.0725306 0)
(0.675282 0.0469956 0)
(0.378929 0.0222175 0)
(0.146079 0.00613887 0)
(0.016082 0.000230272 0)
(0.198737 0.00238427 0)
(0.880049 0.0403296 0)
(1.12794 0.0661079 0)
(1.24104 0.0844359 0)
(1.25152 0.0990455 0)
(1.21956 0.112922 0)
(1.18444 0.125019 0)
(1.15003 0.134339 0)
(1.1155 0.139686 0)
(1.08152 0.13978 0)
(1.05409 0.134484 0)
(1.03787 0.126772 0)
(1.03302 0.119392 0)
(1.0366 0.112361 0)
(1.0096 0.102584 0)
(0.876077 0.0812426 0)
(0.610523 0.0509927 0)
(0.319613 0.023179 0)
(0.11004 0.00611367 0)
(0.00862055 0.000202411 0)
(0.240712 0.00859767 4.62915e-20)
(0.972175 0.0675711 4.04177e-20)
(1.19607 0.100479 -1.41235e-20)
(1.27945 0.120795 0)
(1.27741 0.137811 -3.60345e-34)
(1.23789 0.151024 5.26793e-21)
(1.19683 0.161554 -9.48688e-21)
(1.15666 0.168623 0)
(1.11673 0.171156 1.94665e-34)
(1.07783 0.167952 -1.17173e-20)
(1.04665 0.159458 0)
(1.02803 0.149293 -1.38983e-20)
(1.02202 0.140379 -4.09859e-20)
(1.02326 0.132824 -1.93643e-20)
(0.979768 0.119831 -5.82412e-21)
(0.815203 0.0920579 -3.4603e-21)
(0.532679 0.0552715 0)
(0.25466 0.0241027 2.4203e-21)
(0.073814 0.00624659 2.85763e-21)
(0.00164147 0.000205397 5.14894e-20)
(0.270166 0.0240039 3.37226e-20)
(1.04821 0.110105 5.31195e-22)
(1.25227 0.149445 3.7613e-21)
(1.3137 0.169957 0)
(1.30008 0.186833 -1.82899e-20)
(1.25351 0.197849 -2.07828e-20)
(1.20653 0.206034 -9.57514e-21)
(1.16048 0.210585 -3.40847e-20)
(1.11482 0.210281 0)
(1.07048 0.203846 4.99258e-20)
(1.03492 0.192235 4.9491e-20)
(1.01344 0.179628 1.47037e-20)
(1.00531 0.168702 5.35833e-20)
(0.999538 0.158647 7.52985e-20)
(0.933763 0.140899 0)
(0.734298 0.104637 1.06064e-19)
(0.441988 0.0601092 1.5213e-19)
(0.187089 0.0247417 1.68962e-19)
(0.0383572 0.00535572 -1.93151e-19)
(-0.00522114 -0.000412527 -3.63501e-21)
(0.271253 0.0397462 0)
(1.09621 0.165253 5.90295e-21)
(1.28997 0.209683 0)
(1.34024 0.229676 -2.37057e-20)
(1.31776 0.243513 0)
(1.26525 0.250683 -4.08237e-20)
(1.21272 0.255155 1.95673e-20)
(1.1611 0.256127 -6.86156e-20)
(1.11001 0.252163 -1.57323e-21)
(1.06047 0.241919 2.58522e-20)
(1.02064 0.226821 1.0893e-19)
(0.996333 0.211573 -2.55543e-22)
(0.985789 0.198651 -3.89613e-20)
(0.973267 0.186074 -7.10071e-20)
(0.892277 0.162986 8.40193e-20)
(0.677839 0.117606 -1.48777e-19)
(0.391486 0.0652983 -1.9658e-20)
(0.155232 0.0256811 0)
(0.0230676 0.0042115 -8.3622e-24)
(-0.0082337 -0.00118532 0)
(0.264979 0.0533884 7.56526e-20)
(1.12207 0.22372 -3.71599e-20)
(1.31312 0.274394 -2.8884e-20)
(1.35772 0.294561 1.11619e-20)
(1.32907 0.304522 -1.88105e-20)
(1.27211 0.307205 8.56009e-20)
(1.21501 0.30731 4.08635e-20)
(1.15855 0.304082 0)
(1.10256 0.295948 -1.29655e-19)
(1.04818 0.281491 0)
(1.00433 0.262679 -5.72299e-20)
(0.977248 0.244691 -7.06466e-20)
(0.964254 0.229584 -4.24808e-20)
(0.946574 0.214217 -5.16212e-20)
(0.857664 0.185869 0)
(0.641576 0.132818 0)
(0.366735 0.0735648 -1.27987e-19)
(0.143154 0.0284252 2.53183e-20)
(0.0172142 0.00345573 -1.48162e-20)
(-0.00993602 -0.00199006 -1.73324e-20)
(0.257522 0.0654656 -2.88568e-20)
(1.13343 0.282058 0)
(1.32575 0.340054 5.82501e-20)
(1.3671 0.360873 3.12694e-20)
(1.33412 0.367038 4.36808e-20)
(1.27391 0.365229 0)
(1.21319 0.360865 3.99651e-20)
(1.15272 0.35326 7.60209e-20)
(1.0925 0.340763 6.64382e-20)
(1.03381 0.321922 1.2205e-19)
(0.986251 0.29924 0)
(0.956457 0.278337 -1.5255e-19)
(0.941068 0.260996 -9.19077e-20)
(0.919511 0.243017 -5.43445e-20)
(0.828181 0.209956 3.33027e-19)
(0.618322 0.150191 3.96067e-20)
(0.357065 0.0847674 1.85888e-19)
(0.143916 0.0333393 -8.80712e-19)
(0.0186547 0.00391757 5.21103e-19)
(-0.0101105 -0.00254292 -6.28037e-19)
(0.250384 0.0763832 -1.20453e-20)
(1.13555 0.338428 5.18668e-21)
(1.33076 0.404758 -6.0841e-21)
(1.36997 0.426727 -3.10213e-20)
(1.33385 0.429335 -3.65181e-20)
(1.27122 0.423218 1.79967e-21)
(1.20764 0.414533 -4.33434e-20)
(1.14388 0.402634 7.8674e-20)
(1.08003 0.385819 -1.43125e-19)
(1.01749 0.362584 0)
(0.966485 0.335942 -6.91148e-20)
(0.934104 0.312086 -1.61891e-21)
(0.916441 0.292563 -1.00677e-19)
(0.892005 0.271992 0)
(0.801707 0.234737 -7.22941e-20)
(0.601872 0.169563 -1.71637e-19)
(0.355586 0.0982881 4.56996e-19)
(0.150759 0.0404414 -4.50599e-19)
(0.0250357 0.00611116 6.40148e-19)
(-0.00878279 -0.00265973 -6.65149e-19)
(0.244402 0.0864888 -4.11515e-22)
(1.13194 0.392179 -1.16271e-21)
(1.3303 0.46751 -1.55944e-20)
(1.36779 0.490902 1.20848e-20)
(1.32933 0.490349 -1.8343e-20)
(1.26487 0.480208 0)
(1.19898 0.467459 -4.02354e-20)
(1.13245 0.451482 -8.24127e-20)
(1.06545 0.430515 -7.4413e-20)
(0.999459 0.402989 0)
(0.945292 0.37251 -7.18034e-20)
(0.910486 0.345851 -8.9004e-20)
(0.890657 0.3242 1.09354e-19)
(0.864017 0.301143 -6.64164e-20)
(0.776395 0.260097 -3.16619e-19)
(0.587709 0.190388 1.88098e-19)
(0.356841 0.113104 5.59727e-20)
(0.159846 0.0491942 0)
(0.0335942 0.00974708 -6.20512e-19)
(-0.00665473 -0.00235884 -2.2773e-20)
(0.239673 0.0960928 1.49051e-21)
(1.1249 0.443116 -1.51969e-21)
(1.32588 0.527832 7.02589e-21)
(1.36177 0.552677 4.38431e-20)
(1.3215 0.549399 -6.69948e-20)
(1.25563 0.5356 8.06813e-20)
(1.18787 0.519103 8.67545e-20)
(1.11901 0.499323 -1.31747e-19)
(1.04924 0.474436 4.60406e-20)
(0.980124 0.442818 -3.00733e-19)
(0.923068 0.408694 -8.1287e-20)
(0.885986 0.379285 0)
(0.864098 0.355455 1.18749e-19)
(0.835747 0.330088 1.42449e-19)
(0.750662 0.285683 1.7065e-19)
(0.573367 0.211795 -2.04781e-19)
(0.356669 0.128828 -6.06564e-20)
(0.168047 0.0593303 7.12043e-20)
(0.0423015 0.0144498 0)
(-0.00416709 -0.00169682 -4.95308e-20)
(0.236102 0.105354 -3.85819e-20)
(1.11603 0.491345 1.79908e-20)
(1.31875 0.585691 -5.85402e-21)
(1.35295 0.611731 2.60116e-20)
(1.31117 0.606081 -2.97193e-20)
(1.24421 0.58899 -4.07344e-21)
(1.17493 0.569107 -9.49243e-20)
(1.10406 0.545842 -4.77057e-20)
(1.03182 0.517301 -1.29456e-19)
(0.959848 0.481836 3.05615e-22)
(0.90011 0.444151 -2.54701e-19)
(0.86092 0.411916 2.15119e-19)
(0.837209 0.385923 -1.30647e-19)
(0.807449 0.358421 1.57236e-19)
(0.724424 0.310711 0)
(0.557531 0.233029 -1.11388e-19)
(0.353593 0.144697 3.69401e-23)
(0.173523 0.0697926 -3.11181e-19)
(0.0494661 0.0195668 -4.56785e-20)
(-0.00182084 -0.000851309 0)
(0.233552 0.11442 0)
(1.10626 0.537093 2.27133e-20)
(1.3097 0.641039 -1.06354e-21)
(1.3421 0.667931 -2.3087e-20)
(1.29901 0.660184 -3.83854e-20)
(1.23121 0.640158 0)
(1.16067 0.617245 -4.28934e-20)
(1.08805 0.590821 -1.06714e-21)
(1.01357 0.558931 2.77577e-19)
(0.938941 0.519856 -4.13199e-20)
(0.876642 0.478636 -1.83984e-19)
(0.835489 0.443582 1.11861e-19)
(0.810193 0.415598 -2.21533e-21)
(0.779088 0.385821 1.67261e-19)
(0.697741 0.334614 1.03264e-19)
(0.539916 0.252816 -2.40805e-19)
(0.347135 0.159662 2.85079e-19)
(0.175132 0.0795152 8.44276e-20)
(0.0539787 0.024263 3.48029e-19)
(-1.54427e-05 -4.14152e-05 -9.29486e-19)
(0.23198 0.123412 -1.66487e-20)
(1.09624 0.580542 2.01277e-20)
(1.29948 0.693466 -1.16371e-20)
(1.32979 0.721233 1.65745e-20)
(1.28558 0.711604 0)
(1.21711 0.688979 -3.65285e-20)
(1.14553 0.663381 1.44474e-19)
(1.07136 0.634125 1.04569e-19)
(0.99482 0.599202 0)
(0.917654 0.556756 -5.95493e-19)
(0.852852 0.5121 4.97865e-19)
(0.809862 0.47439 0)
(0.783144 0.444425 1.52784e-19)
(0.750645 0.412062 -2.22674e-21)
(0.670355 0.356958 -3.30294e-19)
(0.520076 0.270552 1.29252e-19)
(0.337426 0.172827 0)
(0.172811 0.0876348 4.55345e-19)
(0.0554435 0.0278805 0)
(0.00108528 0.000547396 -4.40067e-19)
(0.231194 0.132421 2.11202e-20)
(1.08642 0.621852 2.94045e-20)
(1.28837 0.743073 -1.06642e-20)
(1.31654 0.771631 0)
(1.27134 0.760325 -3.16231e-20)
(1.20234 0.735416 0)
(1.12987 0.707441 -1.42184e-19)
(1.05432 0.675677 -4.84007e-20)
(0.975863 0.638047 4.89239e-20)
(0.89622 0.592486 -2.94611e-19)
(0.828927 0.544612 5.13954e-20)
(0.784157 0.504373 0)
(0.756035 0.472123 -3.26281e-19)
(0.722108 0.436687 2.20014e-21)
(0.642435 0.377189 0)
(0.498233 0.285834 1.47871e-21)
(0.324508 0.183473 4.16503e-19)
(0.167126 0.0934961 -3.93453e-19)
(0.0542744 0.0300297 1.1602e-19)
(0.00149931 0.000837323 0)
(0.230888 0.141306 0)
(1.07712 0.661104 3.75749e-20)
(1.27671 0.790003 2.06612e-20)
(1.30275 0.819202 -2.4915e-21)
(1.25663 0.806383 -9.73046e-21)
(1.18722 0.779465 -8.21617e-20)
(1.11401 0.749405 5.34469e-20)
(1.0372 0.715441 -5.72907e-20)
(0.95694 0.675422 2.18561e-19)
(0.874848 0.627054 -4.70963e-19)
(0.805038 0.576228 -3.86494e-21)
(0.758441 0.533395 -1.42763e-19)
(0.728842 0.498387 5.29502e-19)
(0.69343 0.459448 -2.58821e-21)
(0.613862 0.395033 -2.56305e-19)
(0.474522 0.298356 -4.56888e-19)
(0.308912 0.191376 0)
(0.158429 0.0969288 0)
(0.0510343 0.0307036 1.25061e-19)
(0.00134563 0.000799722 -7.34581e-20)
(0.231209 0.150208 3.21516e-20)
(1.06831 0.698162 -8.77681e-20)
(1.26482 0.834324 -2.23047e-20)
(1.2887 0.864031 0)
(1.24174 0.849835 -1.53041e-21)
(1.17202 0.821151 -7.43441e-20)
(1.09818 0.789277 1.28541e-19)
(1.02024 0.753409 2.25127e-19)
(0.938265 0.711325 2.83956e-19)
(0.853741 0.660488 -3.84661e-19)
(0.781331 0.606958 -4.27918e-19)
(0.732739 0.561304 3.81818e-19)
(0.701553 0.523135 0)
(0.664573 0.480347 -1.16425e-19)
(0.584607 0.410357 -2.7717e-19)
(0.449188 0.307994 -3.28198e-19)
(0.290954 0.196282 -3.88212e-19)
(0.14713 0.0978226 1.14695e-19)
(0.0460675 0.0300161 -6.73923e-20)
(0.000852968 0.000563988 2.82237e-22)
(0.231659 0.15904 0)
(1.06016 0.733569 0)
(1.25289 0.876143 2.52347e-21)
(1.2746 0.906228 0)
(1.22689 0.890771 1.90507e-20)
(1.15695 0.860534 4.96831e-20)
(1.08258 0.827083 0)
(1.00362 0.789595 2.66397e-20)
(0.920019 0.745757 4.73689e-19)
(0.833077 0.692819 -8.84434e-19)
(0.757922 0.636793 0)
(0.707086 0.588091 -2.45701e-19)
(0.674159 0.546525 -3.05817e-21)
(0.635439 0.499386 -2.42004e-21)
(0.554703 0.422929 2.96302e-19)
(0.422736 0.314561 -1.93997e-22)
(0.270989 0.198083 -8.35817e-19)
(0.133846 0.0962183 2.46644e-19)
(0.0398571 0.0280346 7.28861e-20)
(0.000134407 0.000145197 0)
(0.232184 0.167725 -1.34765e-19)
(1.05241 0.767311 -6.29603e-20)
(1.24102 0.915539 -7.56366e-20)
(1.26063 0.945912 5.36533e-20)
(1.21227 0.929263 1.83488e-20)
(1.14217 0.897674 0)
(1.06736 0.862871 7.73438e-20)
(0.987494 0.824021 -5.94372e-20)
(0.902348 0.778738 3.8876e-21)
(0.813014 0.724077 6.51799e-20)
(0.734921 0.665746 5.53977e-19)
(0.681525 0.613931 -8.61788e-20)
(0.6466 0.568839 -3.26223e-19)
(0.605798 0.516441 -1.35578e-19)
(0.524157 0.432399 1.60932e-19)
(0.39567 0.317837 -4.54879e-24)
(0.249735 0.196655 2.25044e-19)
(0.119477 0.0922504 -5.3044e-19)
(0.0332328 0.0250559 6.26927e-19)
(-0.000678091 -0.00042381 9.14138e-20)
(0.232599 0.176144 5.21531e-20)
(1.04507 0.799493 -3.61436e-20)
(1.22934 0.952608 6.23124e-21)
(1.24691 0.983175 4.05277e-20)
(1.19799 0.965423 2.85736e-21)
(1.12779 0.932643 -8.58133e-20)
(1.05265 0.896689 2.21459e-20)
(0.971972 0.856711 -2.47589e-19)
(0.885381 0.810269 -5.21746e-19)
(0.793676 0.754258 -5.26963e-19)
(0.712454 0.693877 0)
(0.656114 0.639114 -3.78396e-19)
(0.618766 0.590339 4.70125e-19)
(0.575328 0.531301 0)
(0.492916 0.438455 -3.4457e-19)
(0.368363 0.317445 2.05255e-19)
(0.228323 0.19178 -2.41824e-19)
(0.105336 0.0863026 -2.85278e-19)
(0.0269249 0.0215329 -5.04735e-19)
(-0.00143614 -0.00100652 -3.93516e-19)
(0.233346 0.184431 -5.99112e-20)
(1.038 0.830095 3.8692e-20)
(1.2179 0.987424 8.64718e-20)
(1.23354 1.0181 6.30371e-20)
(1.18414 0.999342 -2.06537e-21)
(1.11392 0.965526 -4.49534e-20)
(1.03853 0.92859 7.41388e-20)
(0.957142 0.887708 -2.54043e-19)
(0.869199 0.840378 -3.08909e-19)
(0.775177 0.783369 5.51318e-19)
(0.690641 0.721276 1.21645e-18)
(0.630943 0.663955 0)
(0.590534 0.611206 0)
(0.543658 0.543881 -1.56064e-19)
(0.460686 0.440891 0)
(0.340891 0.312563 4.41166e-19)
(0.207947 0.18269 5.19804e-19)
(0.0933709 0.0784181 0)
(0.022168 0.0179177 0)
(-0.00201503 -0.0014956 4.22655e-19)
(0.233745 0.192282 6.92149e-20)
(1.03122 0.859107 5.5668e-20)
(1.20678 1.02011 6.33683e-20)
(1.22058 1.05081 -6.53029e-20)
(1.1708 1.03113 -9.50289e-21)
(1.10062 0.9964 4.40372e-20)
(1.02506 0.958638 -1.01463e-19)
(0.943065 0.917038 -3.18226e-22)
(0.853881 0.869069 -5.04816e-21)
(0.757602 0.811402 -4.92074e-21)
(0.669629 0.748042 6.26436e-19)
(0.606141 0.68869 0)
(0.561837 0.631572 4.75822e-19)
(0.510468 0.55436 3.32874e-19)
(0.426784 0.439777 8.03329e-19)
(0.312624 0.301989 2.3748e-19)
(0.189791 0.167046 -2.79705e-19)
(0.0875052 0.0660757 -1.64267e-19)
(0.0243679 0.0132715 0)
(-0.000563997 -0.0011354 4.53963e-19)
(0.234446 0.200141 -1.58314e-19)
(1.02469 0.88663 0)
(1.19594 1.05071 7.70602e-20)
(1.20805 1.0814 -5.71688e-20)
(1.15802 1.06087 2.14481e-20)
(1.08791 1.02535 -4.30046e-20)
(1.01229 0.986891 1.95221e-19)
(0.929775 0.944739 -2.08853e-20)
(0.839467 0.896352 0)
(0.741025 0.83833 -6.07882e-19)
(0.649563 0.774241 -1.36129e-18)
(0.581866 0.713467 5.57785e-20)
(0.532741 0.651563 6.56165e-19)
(0.475611 0.563251 0)
(0.39013 0.435784 5.41876e-19)
(0.281318 0.284857 0)
(0.172232 0.139715 0)
(0.0918214 0.0360983 -1.77563e-19)
(0.0539993 -0.00329742 0)
(0.0282334 0.0115845 1.21598e-19)
(0.234772 0.207403 -1.78878e-19)
(1.01836 0.912985 0)
(1.18541 1.07944 1.30357e-19)
(1.19592 1.1101 0)
(1.14575 1.08885 -1.57975e-20)
(1.07575 1.05267 0)
(1.00014 1.01366 9.30958e-21)
(0.917178 0.971149 3.48438e-20)
(0.825836 0.922589 3.86856e-20)
(0.725284 0.864545 -6.66394e-19)
(0.63027 0.80035 4.08216e-20)
(0.557893 0.738868 4.48993e-19)
(0.502866 0.671815 6.40022e-19)
(0.43833 0.57137 8.63758e-20)
(0.348794 0.430502 4.24519e-19)
(0.242214 0.262218 0)
(0.143524 0.0969005 5.89229e-19)
(0.0772105 -0.0128256 -3.45079e-19)
(0.0432376 0.0452379 4.00107e-19)
(-0.0690532 0.435856 -4.71777e-19)
(0.235081 0.21447 1.49293e-19)
(1.012 0.937955 2.27412e-19)
(1.17509 1.10662 0)
(1.18403 1.13737 5.04953e-21)
(1.13379 1.11562 5.19077e-20)
(1.06387 1.07903 3.79212e-20)
(0.988319 1.03975 6.64587e-20)
(0.904863 0.997202 0)
(0.812456 0.948867 2.55844e-19)
(0.709709 0.891355 -3.47216e-20)
(0.610843 0.827889 0)
(0.532976 0.766524 0)
(0.470347 0.693787 5.73036e-19)
(0.396472 0.579602 -2.66948e-19)
(0.299585 0.426027 -4.29831e-19)
(0.19047 0.237785 0)
(0.0836311 0.100072 2.9674e-19)
(0.00437466 0.439674 -3.43229e-19)
(0.0336726 1.8888 -1.88045e-19)
(0.0630428 2.81092 -2.40417e-19)
(0.235202 0.220702 -1.13549e-19)
(1.00578 0.961723 -2.94345e-19)
(1.16499 1.13221 7.89116e-20)
(1.17238 1.16306 6.1191e-20)
(1.12218 1.14096 0)
(1.05235 1.10415 1.50785e-20)
(0.977008 1.06483 8.86641e-20)
(0.89302 1.02247 -1.67753e-20)
(0.799595 0.974669 3.81884e-20)
(0.694683 0.918157 6.34501e-19)
(0.591887 0.85623 6.87481e-19)
(0.508025 0.795866 5.02422e-19)
(0.436089 0.717442 5.76106e-19)
(0.351788 0.587159 -6.2654e-19)
(0.248106 0.425868 -6.48625e-19)
(0.127134 0.276504 0)
(0.0447109 0.828927 0)
(0.10187 2.54996 1.63942e-19)
(0.102907 3.20088 0)
(0.106022 3.38801 3.91241e-19)
(0.237883 0.226394 0)
(1.00029 0.984488 0)
(1.15489 1.15608 0)
(1.16075 1.18702 1.92529e-20)
(1.11059 1.16463 4.93572e-20)
(1.04095 1.12791 -2.43953e-21)
(0.966105 1.08882 5.61318e-20)
(0.88161 1.04685 -1.63115e-20)
(0.787221 0.999863 3.18474e-19)
(0.680241 0.944831 -9.29707e-21)
(0.57356 0.88528 1.35727e-18)
(0.483333 0.826558 -5.79486e-20)
(0.400353 0.743887 6.97281e-20)
(0.306998 0.591967 9.05773e-20)
(0.185106 0.439314 -4.71665e-21)
(0.101253 0.960738 1.83348e-21)
(0.141207 2.71871 -8.63127e-19)
(0.149493 3.2922 -3.24117e-19)
(0.138232 3.42596 1.67665e-19)
(0.125445 3.44826 -1.86557e-19)
(0.155997 0.183119 6.82385e-20)
(0.98956 1.00902 0)
(1.14444 1.17844 -1.62464e-19)
(1.14966 1.20971 -1.7056e-19)
(1.09987 1.18744 1.2902e-19)
(1.03062 1.15098 7.96007e-21)
(0.955573 1.11176 -5.66131e-20)
(0.870746 1.07046 1.78837e-19)
(0.775501 1.02462 -2.60206e-19)
(0.666676 0.971562 0)
(0.556264 0.915225 6.65987e-19)
(0.459441 0.858308 -4.09803e-19)
(0.364113 0.776119 0)
(0.256155 0.59611 8.4348e-20)
(0.147449 0.758867 2.02418e-19)
(0.156883 2.48957 -2.36047e-19)
(0.214306 3.32287 2.64917e-19)
(0.194074 3.43919 1.42523e-19)
(0.161372 3.46085 1.60292e-19)
(0.13945 3.47118 2.54484e-19)
(0.281204 0.26512 -1.23734e-19)
(0.974579 1.01915 0)
(1.12652 1.204 1.79297e-19)
(1.13521 1.24069 1.92385e-19)
(1.08277 1.22057 -1.5101e-19)
(1.01282 1.18451 -3.20642e-20)
(0.936857 1.14694 4.75931e-20)
(0.851528 1.10688 1.40363e-20)
(0.755013 1.06323 2.47201e-19)
(0.643518 1.01409 5.46342e-19)
(0.528124 0.964762 3.75223e-20)
(0.420734 0.911908 3.63881e-19)
(0.299481 0.816548 6.51894e-20)
(0.214294 0.934843 -8.287e-20)
(0.23085 2.33838 -1.88601e-19)
(0.292395 3.3256 1.80463e-19)
(0.275467 3.46866 -1.99203e-19)
(0.23985 3.49056 -1.15014e-19)
(0.202542 3.51828 -9.62594e-20)
(0.150951 3.5123 -1.13082e-20)
(0.269181 0.262067 0)
(0.972412 1.04202 5.36274e-20)
(1.1184 1.22759 -3.75574e-20)
(1.12482 1.26439 -2.35777e-20)
(1.07215 1.24384 -1.0807e-19)
(1.00219 1.20801 3.66419e-20)
(0.925915 1.1706 -2.23782e-20)
(0.840406 1.13135 1.25029e-20)
(0.743405 1.08918 -2.56841e-19)
(0.630707 1.04295 -1.39471e-20)
(0.512706 0.998683 -1.20322e-18)
(0.40048 0.949031 5.1905e-20)
(0.284288 0.882446 -6.14592e-20)
(0.256001 1.4795 -7.66188e-20)
(0.331602 3.09708 1.80184e-20)
(0.35152 3.46643 4.6987e-22)
(0.311002 3.52298 2.86023e-19)
(0.273498 3.54954 1.38719e-19)
(0.224665 3.5731 -3.23932e-20)
(0.165543 3.56915 -5.21085e-20)
(0.252927 0.26054 1.37556e-19)
(0.968675 1.06758 3.67881e-19)
(1.10986 1.25329 -1.08044e-19)
(1.11385 1.28949 -8.90773e-20)
(1.06094 1.26845 0)
(0.991134 1.23268 8.35333e-20)
(0.914847 1.19553 -1.72003e-20)
(0.829433 1.15706 1.08561e-20)
(0.732264 1.11645 -2.86286e-20)
(0.618889 1.0734 -4.92461e-19)
(0.499076 1.03434 -5.54365e-19)
(0.383798 0.98747 -4.24365e-19)
(0.284177 1.01031 -4.65218e-19)
(0.325406 2.19256 4.8059e-19)
(0.418546 3.37501 4.0099e-19)
(0.395989 3.52443 0)
(0.350187 3.56955 0)
(0.312 3.61058 -2.48474e-20)
(0.260829 3.67105 0)
(0.177874 3.64721 -2.40281e-20)
(0.242201 0.262477 -2.08023e-19)
(0.962972 1.09424 -3.1482e-19)
(1.09991 1.28022 0)
(1.10153 1.31534 6.05553e-21)
(1.04846 1.29368 -1.2351e-19)
(0.97896 1.25784 1.45547e-19)
(0.902997 1.22099 -2.09985e-21)
(0.817881 1.1832 5.8339e-21)
(0.720783 1.14409 -1.79927e-19)