/*--------------------------------*- C++ -*----------------------------------*\
| =========                 |                                                 |
| \\      /  F ield         | OpenFOAM: The Open Source CFD Toolbox           |
|  \\    /   O peration     | Version:  4.0                                   |
|   \\  /    A nd           | Web:      www.OpenFOAM.org                      |
|    \\/     M anipulation  |                                                 |
\*---------------------------------------------------------------------------*/
FoamFile
{
    version     2.0;
    format      ascii;
    class       surfaceScalarField;
    location    "23";
    object      phi;
}
// * * * * * * * * * * * * * * * * * * * * * * * * * * * * * * * * * * * * * //

dimensions      [0 3 -1 0 0 0 0];

internalField   nonuniform List<scalar> 
1300
(
3.75095
5.62643
-5.84455
3.75095
-5.77984
5.62643
-4.52311
4.52311
-1.18144
1.18144
1.87654
1.87441
-2.92156
2.92156
-2.72443
2.72443
-2.59441
2.59441
-5.2464
5.2464
-5.06843
5.06843
4.68171
-4.68171
-4.62719
4.62719
-1.62474
1.62474
-3.91439
3.91439
3.17044
-3.17044
-4.31596
4.31596
-0.388258
0.388258
-0.553486
4.30444
3.19747
3.19747
-2.28191
2.28191
-4.85611
4.85611
6.21816
-6.21816
8.83595
-8.83595
-2.9914
-3.43203
1.3574
-8.3997
-4.42245
-4.42245
-8.4404
8.4404
-2.81397
2.81246
2.94263
-2.94263
-1.77117
1.77117
-4.45073
-0.0723744
-4.45073
4.52959
-0.00648109
4.52959
-1.31829
0.136847
-1.31829
3.99062
-3.99062
1.01333
0.168113
1.01333
3.06435
-3.06435
-1.87706
3.7536
1.8739
-1.87172
6.17616
-1.87923
3.75364
-5.86832
5.86832
-3.15793
0.236372
-3.15793
2.64305
0.278511
2.64305
-5.72714
5.72714
-2.36517
-0.359253
-2.36517
3.1434
-0.418973
3.1434
2.85045
-2.85045
-2.65766
0.0632517
-2.65766
2.53752
0.056892
2.53752
0.353565
5.27287
-5.97999
8.79245
-5.27287
0.0264651
5.20843
0.037971
5.20843
-5.1061
0.0376675
-5.1061
5.01094
0.0574949
5.01094
4.77712
-0.095415
4.77712
-4.79389
0.112181
-4.79389
-3.28716
-3.62905
-4.67278
0.0455889
-4.67278
-1.63823
0.0134886
-1.63823
1.60623
0.0185093
1.60623
-3.51001
3.51001
-4.31003
0.395643
-4.31003
3.12494
0.0454993
3.12494
1.86849
1.88246
5.61945
-5.61945
2.449
-4.13092
-0.185042
-4.13092
-4.48792
-4.34802
4.48792
-0.171963
-0.664042
0.275784
-0.664042
3.15929
0.0381777
3.15929
2.45041
0.0871077
-2.45041
0.168504
3.29599
-3.29599
1.65794
0.623965
1.65794
-5.56983
5.56983
4.95088
0.0600617
-4.95088
0.0947688
6.15715
0.0610116
6.15715
-6.19961
-0.0185532
-6.19961
3.24898
-6.68101
-3.51785
4.52119
0.106004
-4.52119
0.0987448
2.91272
0.0299115
2.91272
-2.92398
2.92398
-2.98194
0.039305
-2.98194
-2.18356
0.412384
-2.18356
1.45536
0.315807
1.45536
-4.31018
-0.140559
-4.31018
-4.46213
0.152101
4.46213
0.0674598
0.983693
-0.983693
-1.45651
0.138227
-1.45651
-4.13821
-0.171962
4.13821
-0.147594
-3.88045
-0.110171
-3.88045
-3.0227
0.0407646
3.0227
0.0416435
3.11222
0.0470688
-3.11222
0.047873
-1.87087
3.75333
-1.88009
3.75398
-5.46055
-0.407768
-5.46055
6.1846
-0.316288
6.1846
3.52674
0.387648
-3.52674
0.368804
2.45228
0.190767
2.45228
-6.14685
0.419715
-6.14685
5.24834
0.478799
5.24834
2.30805
0.144235
-2.30805
-0.0571253
3.52124
-0.377845
3.52124
2.88504
-0.0345898
2.88504
-2.84695
-0.0035008
-2.84695
2.80231
-2.80231
2.73065
0.0716621
-2.73065
0.072985
-11.1326
11.1141
-0.0349565
-11.0977
5.17347
5.17347
4.20675
0.570373
4.20675
-5.00577
0.211883
-5.00577
3.21223
-6.73008
3.58574
-6.8729
3.58918
-11.9889
3.35303
-6.98209
4.79501
-4.79501
4.70013
0.0948861
-4.70013
0.0273441
-1.65856
0.0203244
-1.65856
-2.8927
-0.617312
-2.8927
4.1606
-0.650588
4.1606
-3.03073
3.03073
-3.07886
0.0481314
3.07886
0.046087
3.87545
-0.354209
-3.87545
-0.255463
0.845752
0.167575
-0.845752
0.18171
3.51171
-0.215712
3.51171
-3.09726
-0.198731
-3.09726
-1.66374
0.0051856
1.66374
-0.00579916
-5.81619
0.246363
-5.81619
-11.1908
0.093072
-11.1528
-6.10653
-6.10653
2.33387
11.1263
-2.87816
0.031203
2.87816
0.0345662
2.97888
0.0518438
-2.97888
0.0549057
-2.86629
0.0639775
2.86629
0.057689
-2.56819
0.384632
-2.56819
-1.03936
1.03936
-1.22656
0.187198
1.22656
0.228807
1.21731
-0.233614
1.21731
1.56202
0.0442181
-1.56202
0.105502
-3.78892
-0.0915286
-3.78892
6.36709
-0.182484
6.36709
-2.96591
-0.131354
2.96591
-0.0808644
-0.0333203
11.1474
-5.14015
0.0340518
5.14015
-11.2084
11.2425
-3.248
0.679812
3.248
0.958749
5.29379
0.276035
-5.29379
0.28802
4.99141
0.256927
-4.99141
0.196396
-2.38798
-0.504712
-2.38798
-4.88367
-0.576883
4.88367
-0.72307
-11.4747
-0.203867
11.6786
-11.4172
6.02006
0.137091
-6.02006
11.3796
-0.935431
-0.0482613
0.935431
0.103929
1.53315
-0.315842
1.53315
3.69326
-0.181558
-3.69326
-0.0956571
-6.37009
0.22324
6.37009
-0.00300259
-1.94432
-0.44366
1.94432
-0.411174
-4.26658
4.30476
1.90958
-3.12347
-3.55755
-7.47149
1.85224
1.90109
4.30125
-7.51002
-4.47885
-7.41128
7.27139
-6.98337
-9.2985
9.20308
7.5316
-7.64177
-5.785
5.83108
6.48181
-6.44016
1.87864
1.87496
7.8732
-7.63683
-15.5937
15.186
5.90993
-6.26918
16.3951
-15.9754
-17.129
17.3859
-5.76039
5.82364
-6.65808
6.65458
-6.85204
6.77118
-2.98182
-3.89108
10.169
-10.1234
10.6852
-10.8702
-8.4749
8.87054
3.38269
0.922066
3.42976
-1.88239
3.76103
-1.87125
3.78083
3.61689
-6.59872
3.11319
-6.67073
5.81458
4.87061
-5.64261
-1.82888
-5.91509
5.945
-5.82232
5.88001
8.90733
-8.9797
-1.88539
3.76035
-1.86859
3.76967
-3.42538
-2.35962
3.37988
0.921363
6.0912
4.07778
-6.1972
-1.21408
-7.74638
7.56482
-8.02796
7.82923
-0.450047
5.8225
-5.37245
4.40606
-1.55397
7.37647
5.71742
5.9293
5.86786
-5.59183
1.11551
-6.48796
-6.39319
-2.55209
2.69031
2.53385
-2.36574
5.92143
1.61017
5.77383
-5.5175
-2.12426
-5.60903
3.8213
2.00978
3.86943
4.07676
2.40505
4.11753
3.03095
-3.03542
0.00446953
-3.05635
6.0873
0.724933
-5.41597
-4.49461
4.64799
3.2252
4.9265
-5.47729
-2.15953
-5.10849
-9.49596
-6.09777
-10.0728
10.0613
5.12467
9.74501
-11.9628
11.9598
4.38949
1.52044
3.97051
-3.67697
-2.59221
-3.73409
13.1693
-2.52127
-10.6481
-10.4459
-6.68303
9.96715
6.42792
9.89014
7.49576
10.0865
4.1017
9.06765
-10.5296
3.84659
-3.87159
-1.8888
-3.79861
3.73669
2.08696
3.79358
-4.18694
-2.47114
-4.15573
-4.21575
-2.63629
4.25034
2.40424
-4.30807
-3.71989
4.43942
2.33175
3.43069
-7.90954
3.55139
-7.44247
-7.38773
-2.73566
-7.36039
4.58476
2.04213
-6.62689
-2.01396
10.5136
-5.64296
8.68469
-6.10631
-4.76392
-6.36177
-6.82174
-1.65316
-6.66964
-8.83692
8.33221
-9.14506
8.49447
12.7317
-5.72397
-7.0077
-3.968
-2.47216
3.92013
-0.490366
-3.71177
3.71624
0.0492634
3.83009
4.75216
4.26179
-3.88534
-1.93698
-3.83044
3.83251
2.04749
3.89649
6.74704
2.16029
6.74056
-6.39599
-2.58372
-6.53655
9.10149
-8.6891
2.96649
-2.9613
5.23398
2.59525
-5.01827
-2.72811
6.07042
-3.0353
-3.03512
-12.2161
10.5852
1.63091
-4.83962
-0.433562
-0.0453036
-5.51051
-3.78799
5.39833
0.530973
11.1162
7.32817
-5.51445
5.76081
6.16414
6.2242
-0.168987
5.85722
-5.17741
5.32312
-2.38819
-2.93493
5.26898
-5.44094
-1.26757
-5.24516
3.97759
0.332893
1.82899
-1.55321
-2.05092
-0.501169
-1.94541
1.53417
0.999682
1.70175
0.989563
1.70075
-2.92491
0.528143
2.39677
-1.93535
-1.8376
-3.62439
-1.03606
4.66045
5.51623
2.0486
-5.42057
-0.188461
2.72921
-2.7107
-0.751277
-2.87311
2.13849
-2.88976
-3.5196
-1.91642
5.43602
-3.36948
-0.460954
3.31764
0.551793
-3.82329
-2.0918
3.78399
0.333539
-3.12362
6.19043
-3.06682
-5.06059
2.5294
3.5579
4.53919
-4.78957
2.44537
2.34419
-1.23166
3.58279
1.34372
3.77355
-6.94399
4.78446
5.69916
3.17139
-6.0868
0.978314
-5.96568
8.4452
-7.21113
-1.23406
4.00354
4.44166
7.18117
5.5505
-5.74742
12.9286
-1.01252
-6.19861
6.9782
-3.80682
4.78745
-8.59427
-10.3379
4.13934
-9.29079
11.5273
-2.2365
-3.58869
-8.37413
12.8795
-1.1884
-11.6911
8.55661
-4.95733
-3.63011
8.58744
-7.4786
6.22233
-1.69546
-4.52687
-10.3997
-5.57565
10.1765
1.78335
-9.65615
13.5027
-0.588499
4.1941
-0.223582
3.81625
3.41725
-6.33033
2.91309
4.06135
-5.75681
1.39348
-7.72381
-5.90655
10.4462
-4.53963
-8.6422
-8.66966
0.0274532
1.40289
12.0998
-8.89865
5.84862
3.05003
3.30765
0.588842
-3.37931
-0.419296
0.337239
4.52202
-4.85926
4.13082
4.21793
3.40513
1.1169
3.82566
2.11935
-3.86022
-0.295509
-4.12289
1.4866
-1.71865
-3.65302
5.13962
-4.08056
0.427541
-2.7272
-3.55812
6.28532
-4.616
3.04289
3.14754
5.09039
-4.94581
1.38768
-2.44026
-2.50554
2.69288
-4.41153
1.96218
3.17744
4.29394
0.574042
5.59794
4.84824
-7.64007
0.197603
8.92602
-7.71194
2.77217
7.31437
-8.62079
-0.0488667
-7.40925
0.457005
-6.09997
-6.16989
5.10932
-6.76247
-3.48495
6.16339
0.577168
-6.23085
-0.43879
-5.98091
-2.85602
-6.42456
-3.05963
-6.08543
-8.80705
-1.62947
-7.17758
6.70274
-6.64609
-3.42675
7.36916
1.12531
-7.36767
7.31941
-7.43932
7.12348
0.0945793
3.62166
4.35637
1.88421
-2.39
4.27421
-5.06101
7.2213
-8.44876
3.38775
3.93659
-6.52031
-4.51217
5.03708
4.06441
5.35288
8.9709
-10.5733
1.60239
-10.8832
12.153
-1.26976
-16.6621
5.77894
-7.69123
2.70557
0.260917
2.72589
0.676918
2.41312
-3.09004
-2.28438
-2.29018
-2.28469
-3.34112
5.62582
1.12353
-3.33734
2.2138
-3.46274
4.58627
-0.0755835
-3.26176
5.23693
-2.82381
5.49784
-3.53832
1.95952
3.24661
5.54645
-2.29983
4.27595
-1.68069
1.79329
-4.09312
-1.54783
-3.01886
5.10581
-3.26647
3.69401
-0.246552
3.94056
-4.02108
0.985782
-0.615957
3.60197
3.77047
4.22135
-3.10446
2.90689
-4.58758
-1.18623
-4.01354
-0.836104
-0.322446
-3.74408
4.06652
6.08378
-6.40622
-5.29454
9.61119
-4.31665
7.74179
-5.42784
-2.31395
-4.2872
-4.4019
3.90257
1.95465
9.69644
0.205936
-5.63378
-4.97147
-4.01273
3.24191
2.08121
-2.04067
3.67158
2.08598
-0.256985
0.562396
1.13935
1.89158
-1.32918
0.23215
1.65943
-1.32106
2.01481
0.714401
-2.05903
0.113611
-1.35064
3.48913
1.04613
-2.04581
0.71663
1.03992
-3.42811
4.7138
-2.44043
-2.27337
5.75372
1.14448
-3.58491
4.10068
-3.76779
2.2862
-3.32225
-1.29871
-5.0665
-3.45633
-2.46371
4.67752
-3.1621
5.2107
1.15792
-5.02224
6.18016
-3.54245
1.62603
-3.03203
3.74643
-1.04383
-1.9882
2.75102
2.685
-2.91081
0.0376964
-0.159791
2.29555
-2.45534
-0.594216
-2.52957
-4.57263
4.90616
-2.10663
4.552
2.16758
-1.91362
6.46562
1.8124
-3.72602
-3.24819
-3.70914
-1.38183
3.15735
-0.385547
-3.34854
-4.91242
3.20431
0.569243
-7.02503
7.36279
-0.337755
-3.79983
-0.984636
4.98818
-5.72089
-0.0359218
-4.32741
3.03538
4.3791
4.94834
-11.3663
-0.324799
-6.24161
1.19303
-7.43464
5.63469
-3.61721
7.75654
-10.4367
7.00994
-9.31138
6.52248
-0.912162
7.19709
-4.284
3.45099
-9.02664
-7.24329
5.14521
-3.62477
4.92162
-4.37418
9.2958
-4.96268
6.46566
2.83015
-1.94266
-4.41911
-5.50858
3.56593
0.957071
4.77332
4.95727
-2.83792
4.66176
2.22092
-4.66118
-2.19061
-6.52279
1.86161
-3.37525
-1.9115
3.7731
3.17889
3.76773
1.26756
-3.34844
8.05296
-8.02551
-3.51333
-2.65656
6.10665
-2.54073
4.75723
-7.41379
-1.34273
4.86995
-0.824812
-4.04514
0.854013
-4.33896
1.63353
-5.9725
5.12894
-5.56773
2.18216
-9.87339
-5.18551
-5.08158
-2.22867
-5.21065
-7.65408
5.42541
-1.87514
5.44427
-8.67064
7.84583
-3.48232
8.90773
-5.38834
-1.03622
5.79952
1.32396
10.2317
0.11585
-4.62802
-1.82489
3.95708
-2.13218
1.41702
-3.62823
0.328852
2.43226
3.32147
-6.40985
-0.110462
-4.73848
-3.91998
7.9844
5.6912
11.775
1.20169
9.19698
-1.21259
10.3987
4.1403
4.3691
-2.99404
4.59643
1.07248
4.46024
-0.858657
2.81818
1.86724
1.88073
0.829972
2.30187
1.4686
3.28765
0.197617
-2.09257
4.657
-8.66972
-0.976776
-8.09935
1.10373
5.74372
-4.63999
3.18105
-1.09984
1.04886
0.112557
-1.74479
1.63224
-2.82237
-2.00178
-0.342352
-1.63869
2.35532
1.85044
-2.01297
-0.809407
0.313513
-3.76984
3.00874
-2.97105
-0.28605
5.89411
-2.7012
0.245858
-1.07517
-2.28371
-2.78488
2.67127
6.17382
0.291799
3.10701
5.19796
3.10616
0.268244
3.624
-5.86051
-4.09981
-6.1853
-0.550615
4.43756
3.76235
8.3375
6.59249
4.05177
-3.36202
-11.3875
6.52682
-1.93039
5.25706
-1.21192
-4.76058
4.97703
2.24427
-5.55419
-0.0135363
-4.77412
-6.70451
-0.538865
8.38469
-9.69283
8.65661
5.80059
1.37699
-4.38859
-0.692997
4.20139
0.167713
10.5664
-1.12825
-6.89216
8.02041
-4.61547
3.63869
0.881286
2.79029
2.51352
1.41369
-5.47848
-10.1185
-1.89988
-1.52823
-4.17325
0.487199
-2.33764
6.28021
-2.64152
3.96626
5.37889
6.42775
-2.18825
-4.21797
6.5049
-2.53863
3.88912
)
;

boundaryField
{
    wall-4
    {
        type            calculated;
        value           uniform 0;
    }
    velocity-inlet-5
    {
        type            calculated;
        value           uniform -3.75095;
    }
    velocity-inlet-6
    {
        type            calculated;
        value           uniform -5.62643;
    }
    pressure-outlet-7
    {
        type            calculated;
        value           nonuniform List<scalar> 8(5.84455 5.77984 6.42343 7.0423 6.91621 6.76683 6.79797 6.94221);
    }
    wall-8
    {
        type            calculated;
        value           uniform 0;
    }
    frontAndBackPlanes
    {
        type            empty;
        value           nonuniform 0();
    }
}


// ************************************************************************* //
