/*--------------------------------*- C++ -*----------------------------------*\
| =========                 |                                                 |
| \\      /  F ield         | OpenFOAM: The Open Source CFD Toolbox           |
|  \\    /   O peration     | Version:  4.0                                   |
|   \\  /    A nd           | Web:      www.OpenFOAM.org                      |
|    \\/     M anipulation  |                                                 |
\*---------------------------------------------------------------------------*/
FoamFile
{
    version     2.0;
    format      ascii;
    class       volVectorField;
    location    "23";
    object      U;
}
// * * * * * * * * * * * * * * * * * * * * * * * * * * * * * * * * * * * * * //

dimensions      [0 1 -1 0 0 0 0];

internalField   nonuniform List<vector> 
918
(
(0.985158 -0.000521579 0)
(0.00500393 2.96626 0)
(-0.0173397 1.54526 0)
(0.979699 0.00215968 0)
(-0.00154091 1.53613 1.84395e-20)
(-0.00703574 2.94878 -1.87152e-18)
(0.851579 1.19378 7.28692e-19)
(0.396248 0.179363 -9.01318e-21)
(0.999906 -0.00029733 0)
(0.0616206 0.844491 0)
(-0.0561543 0.783788 0)
(0.74515 -0.0116459 0)
(0.0111387 2.93032 0)
(0.0018947 2.79502 0)
(-0.0176662 3.16625 1.08123e-18)
(0.00549744 1.40813 5.12442e-20)
(0.507584 0.0776241 5.65669e-19)
(0.192508 1.21203 6.37853e-19)
(0.96306 0.00508889 0)
(-0.00172692 1.23505 0)
(0.125212 0.233616 -4.72414e-19)
(1.00206 -0.00498631 0)
(1.00022 -0.00977768 0)
(0.975728 -0.00645443 0)
(0.654636 -0.0397272 0)
(0.0172402 2.63341 0)
(-0.0150722 2.91016 6.46593e-19)
(-0.0262331 1.56453 0)
(-0.0369616 1.71357 0)
(-0.0260722 1.5568 0)
(-0.00514042 1.88117 0)
(0.00842822 1.56441 -1.4581e-20)
(0.00197868 1.42177 0)
(-0.0206134 2.98759 -6.54645e-23)
(-0.0166995 3.0053 1.45465e-18)
(0.0021056 3.0002 0)
(0.870406 -0.00950638 0)
(0.397627 0.935675 -3.1541e-20)
(0.828188 1.21305 -1.01688e-18)
(0.975225 1.04635 9.55255e-19)
(0.696203 1.30968 -1.69042e-19)
(0.694943 1.2996 9.46952e-19)
(0.434661 0.272294 8.79385e-21)
(0.428685 0.165778 0)
(1.16066 0.560464 0)
(0.397784 0.280004 4.10337e-20)
(0.350565 0.177618 -4.25852e-20)
(0.919565 -0.00741804 0)
(1.00028 0.000122854 0)
(0.999908 0.000338948 0)
(1.00359 -0.00779835 0)
(1.00095 -0.00100584 0)
(1.00017 9.61708e-06 0)
(0.0776663 1.79198 -2.42324e-19)
(0.0156935 0.978021 0)
(0.0997626 0.930179 0)
(0.032004 0.906578 0)
(0.0210165 0.756983 0)
(-0.0933958 1.68189 0)
(-0.0543419 0.833249 0)
(-0.0217017 0.668675 0)
(-0.0577089 0.955674 0)
(-0.0495847 0.914734 0)
(0.83297 -0.00857924 0)
(0.854879 0.0158081 0)
(0.76681 0.000842511 0)
(0.842725 0.0185625 0)
(0.731813 -0.0160422 0)
(0.0146997 3.0004 6.85163e-19)
(0.0115211 3.00795 0)
(0.00612678 3.00283 0)
(0.0135552 2.99735 7.63975e-24)
(0.00798495 2.95845 -1.01832e-18)
(0.0144924 2.98203 0)
(0.0108182 2.90361 0)
(0.0247782 2.93028 1.37002e-24)
(0.00423414 2.82533 0)
(0.0317542 2.91574 0)
(-0.00619139 2.74461 0)
(0.311634 3.56693 0)
(-0.132375 3.64928 0)
(0.141259 3.25711 -1.00623e-18)
(-0.0113454 2.98938 0)
(-0.0429462 1.84462 0)
(0.032049 1.58565 -5.05531e-20)
(0.00957404 1.38637 8.0268e-20)
(0.570847 0.156507 -1.94877e-19)
(0.50981 0.0482132 -1.89289e-19)
(0.554775 0.176771 -5.86728e-19)
(0.500878 0.102653 -3.95681e-19)
(0.216384 0.903864 0)
(0.272964 1.35822 -6.61248e-19)
(0.393965 1.31396 1.08668e-18)
(0.987681 0.00858425 0)
(0.942151 0.00596402 0)
(1.00029 0.000578564 0)
(1.00286 0.00930026 0)
(1.00301 0.00846957 -1.10128e-18)
(0.991933 0.00967083 8.31607e-19)
(-0.0217981 1.38349 0)
(-0.0218482 1.19798 0)
(-0.0360384 1.5696 0)
(-0.0232273 1.45439 0)
(-0.00208591 1.28883 0)
(0.184347 0.242861 1.45585e-19)
(0.231256 0.219439 0)
(0.993539 -0.00832015 0)
(0.954378 -0.00639768 0)
(0.81044 0.0264297 0)
(0.776528 0.0379701 0)
(0.707968 -0.0308684 0)
(0.980237 -0.00364473 0)
(0.716577 0.0538593 0)
(0.56187 -0.019175 7.56179e-19)
(-0.0356821 2.86565 3.30975e-19)
(0.0427999 2.90858 0)
(0.0564529 2.88342 0)
(-0.00520189 2.69738 0)
(-0.0129878 2.98524 5.93993e-19)
(-0.0182314 2.89541 0)
(-0.0154019 2.9881 -1.87996e-18)
(-0.0133583 2.92523 6.49558e-19)
(-0.0430712 1.79683 0)
(-0.0386266 1.8033 0)
(0.0161821 1.56943 1.13795e-21)
(0.0123668 1.54922 0)
(-0.00426449 1.41582 0)
(0.937178 -0.00664175 0)
(0.855782 -0.00921812 0)
(0.864915 0.0082025 0)
(0.948623 -0.00762995 0)
(0.883188 -0.00875058 0)
(0.511511 1.13105 2.85707e-20)
(0.563034 1.18532 0)
(0.357232 0.874806 4.39352e-21)
(0.300305 0.736182 0)
(0.934915 1.08386 -2.76057e-19)
(1.04779 0.881729 5.65349e-19)
(0.389219 1.40458 0)
(0.549066 1.37743 0)
(0.550586 1.33653 0)
(0.0997153 0.15903 -1.30243e-19)
(0.478219 0.256081 0)
(0.461632 0.154409 1.13342e-19)
(1.01799 0.9359 0)
(1.085 0.780364 0)
(1.1104 0.722973 -4.95161e-19)
(1.14077 0.619808 0)
(1.19197 0.403819 5.78495e-20)
(0.95726 -0.00883551 0)
(0.962183 -0.0101553 0)
(0.9011 -0.00807259 0)
(0.984174 -0.00914836 0)
(0.974512 -0.00944234 0)
(0.936918 -0.00628322 0)
(1.00018 0.00234574 0)
(1.00085 0.00135061 0)
(0.999925 0.000859204 0)
(0.0399817 2.02135 1.54213e-19)
(0.128431 1.70463 0)
(0.013167 2.11573 1.39683e-19)
(0.0475026 1.87071 -5.58541e-20)
(0.135127 1.20212 -5.28681e-19)
(0.0561602 1.06247 0)
(0.0978515 1.0647 0)
(0.000816035 0.840539 0)
(-0.00109714 0.693813 0)
(-0.0812211 1.95637 2.93561e-21)
(-0.0484041 1.835 0)
(-0.0447908 1.81488 1.94117e-19)
(-0.0736982 1.51294 -3.929e-19)
(0.0179043 0.789898 0)
(-0.00822799 0.778117 0)
(-0.00749954 0.648341 0)
(-0.0603735 1.08342 0)
(-0.0437847 1.02293 0)
(0.927514 0.0130966 0)
(0.849478 -0.00373301 0)
(0.916508 0.00216327 0)
(0.834164 -0.0112608 0)
(0.812863 0.0055133 0)
(0.903677 0.0162305 0)
(0.881104 0.0184206 0)
(0.787573 0.0041301 0)
(0.0057307 3.06471 -6.02222e-21)
(0.0164163 3.058 0)
(0.014635 2.96913 0)
(0.00849954 2.87635 0)
(0.930034 3.98746 0)
(1.24596 3.31759 1.01536e-18)
(0.0712638 3.0816 0)
(-0.0268281 2.91041 0)
(-0.0534311 1.79407 0)
(-0.0586904 1.83275 0)
(-0.0469548 1.81138 0)
(-0.022125 1.87079 4.70315e-21)
(-0.0510545 1.85976 0)
(-0.0316051 1.85296 0)
(0.0126093 1.38638 -3.99609e-20)
(0.0567703 1.59759 -1.65562e-19)
(0.0492548 1.5883 -8.17974e-20)
(0.010426 1.37044 0)
(0.602612 0.124553 2.87181e-19)
(0.526603 0.0186016 -2.80157e-19)
(0.261692 1.53355 0)
(0.258611 0.673438 -2.10218e-19)
(0.169706 1.61864 -7.04301e-19)
(0.236933 1.15535 7.06321e-19)
(0.903162 0.00662313 0)
(0.967716 0.0107842 0)
(0.974811 0.0107702 0)
(0.923983 0.0066489 0)
(-0.0548457 1.2078 0)
(-0.0361014 1.31146 0)
(-0.0394099 1.12214 0)
(0.350251 0.276741 3.76976e-19)
(0.294343 0.257547 -4.59434e-19)
(0.301842 0.198064 0)
(1.1058 0.0860704 -3.4192e-21)
(1.09065 0.0400039 0)
(1.01811 0.039585 0)
(0.918434 0.00405 0)
(0.625637 0.0946334 0)
(0.657221 0.0686865 -1.21714e-18)
(0.542146 0.00384915 4.64895e-19)
(0.00967064 2.98153 4.19357e-19)
(-0.032869 2.8669 4.66614e-20)
(0.00379227 3.05021 -1.30142e-20)
(0.0200074 3.04348 4.6803e-19)
(-0.0149992 2.99655 2.16018e-20)
(-0.0130023 2.94945 -8.74216e-23)
(-0.0172919 3.01198 -4.09573e-19)
(0.0148477 3.02391 2.96326e-19)
(0.00733794 3.03682 -4.6308e-19)
(0.927337 -0.00166461 0)
(0.936138 -0.00288086 0)
(0.842245 -0.00738549 0)
(0.957158 0.0113464 0)
(0.943896 0.0129068 0)
(0.883228 0.00660259 0)
(0.919531 0.0151161 0)
(0.927897 0.0145307 0)
(0.840249 0.00718117 0)
(0.719194 1.41479 3.28522e-19)
(0.754276 1.52562 0)
(0.220538 0.354796 2.56775e-20)
(0.185754 0.595279 2.09514e-19)
(0.268205 0.696807 -1.17014e-19)
(0.230593 0.577896 2.13825e-19)
(0.300095 0.711295 7.43577e-19)
(0.107912 0.187673 2.14868e-19)
(0.537952 0.209643 4.24151e-19)
(0.51091 0.239194 1.06443e-19)
(0.489542 0.13546 2.1349e-19)
(1.18125 0.460817 2.94932e-19)
(1.1983 0.256113 3.07523e-19)
(-0.0117759 2.13713 8.87735e-21)
(-0.0102573 1.93114 0)
(0.969345 0.0305703 0)
(0.936677 0.0192032 0)
(0.875109 -0.00371533 0)
(0.0111837 3.07476 0)
(0.0199905 2.94411 8.02986e-19)
(0.0165094 2.95652 0)
(0.00606373 2.85073 -7.96691e-19)
(0.00606787 3.09128 1.90276e-19)
(0.0072239 3.08228 0)
(0.788068 1.83062 -2.39723e-19)
(1.25321 2.51378 6.60125e-19)
(0.770761 1.97172 -1.49519e-18)
(0.0210894 2.98412 -3.06773e-19)
(0.0369801 3.00648 0)
(-0.0324717 2.88201 0)
(0.0125182 1.68599 -8.13766e-21)
(0.0559718 1.64864 4.33921e-19)
(0.0244677 1.43555 -1.82311e-20)
(0.277151 1.34148 6.82012e-19)
(0.211734 0.448528 -4.70152e-19)
(0.0621234 1.94513 4.63542e-19)
(0.133779 1.83986 -5.80608e-19)
(0.184149 1.44282 8.41338e-20)
(0.00249761 3.11907 -1.11815e-18)
(0.0135687 3.1189 1.20998e-18)
(-0.00862131 2.98129 5.14091e-19)
(-0.00362863 2.97786 -4.53494e-19)
(-0.0213219 2.88177 -5.2359e-19)
(0.00871682 3.1002 -1.3952e-18)
(0.00234904 3.10496 1.37255e-18)
(0.238008 0.62829 0)
(0.191792 0.617249 -4.07039e-19)
(0.112984 0.207061 1.83736e-19)
(0.323829 0.83194 6.48258e-19)
(0.171752 0.230013 -9.92012e-19)
(1.19144 0.17246 -5.62963e-20)
(1.19746 0.308878 0)
(1.18025 0.120451 1.20019e-19)
(-0.0569904 2.05932 2.30096e-21)
(-0.0517157 2.12735 0)
(-0.0427105 1.91587 0)
(0.333824 1.23125 -2.46616e-19)
(0.349798 1.04686 -5.26299e-19)
(0.18723 0.324237 9.06027e-19)
(1.00584 -0.010986 0)
(1.00761 -0.00762372 2.00922e-19)
(-0.0476876 1.76895 0)
(-0.0546273 1.77171 0)
(1.00224 0.00348218 1.79263e-21)
(1.00352 0.009239 4.13435e-19)
(-0.0258539 1.8886 -6.07659e-21)
(-0.0171668 1.89935 0)
(0.0387925 3.1829 1.16926e-19)
(0.400743 3.50199 0)
(1.1206 0.643835 6.43825e-20)
(1.01316 0.0128818 -2.00584e-21)
(1.02096 -0.0106946 0)
(1.00175 1.19301e-05 7.15708e-23)
(0.140854 1.33799 0)
(0.151171 2.56544 0)
(-0.164301 1.05561 0)
(-0.176503 2.6797 -2.51149e-19)
(-0.234343 2.47737 -1.33633e-19)
(1.00781 0.0201802 3.04873e-21)
(1.05237 -0.00056705 0)
(1.07712 0.0292513 0)
(-0.0673828 1.82998 0)
(-0.0357749 2.00335 0)
(-0.116079 1.64877 0)
(0.289983 1.46318 -4.36768e-19)
(1.0112 -0.00964522 0)
(1.00945 -0.0151872 0)
(1.00249 0.000501754 2.56403e-19)
(1.00548 -0.00498095 -3.02084e-19)
(1.00123 -0.00105387 0)
(-0.0877541 1.80214 0)
(-0.0632341 1.76535 0)
(-0.0671268 1.79036 0)
(-0.0994296 1.65797 0)
(-0.0593872 1.71539 0)
(-0.0717817 1.7025 0)
(1.03413 -0.00854544 0)
(1.02059 0.015016 -1.17303e-21)
(0.780085 1.26015 5.16643e-19)
(1.0022 0.00030836 -2.54334e-19)
(1.00402 0.00524621 3.01497e-19)
(1.00121 0.00208098 0)
(1.01296 0.0101811 2.49352e-19)
(1.00809 0.00817331 -3.09377e-19)
(1.00875 0.014587 0)
(-0.0335924 1.99582 0)
(-0.0302741 1.94168 -2.19538e-20)
(-0.022998 1.95155 1.91398e-20)
(1.19314 0.258946 -6.47155e-20)
(1.13131 0.088372 0)
(0.0507674 3.07734 -5.20625e-19)
(0.0679354 2.85116 -4.15214e-20)
(0.146911 3.19626 8.25683e-19)
(0.141033 3.2256 -3.59836e-21)
(0.139066 3.24133 0)
(0.0215176 3.13853 1.13414e-19)
(0.0801293 3.16161 5.07469e-19)
(0.0725181 3.18905 -2.18988e-19)
(0.0250874 3.12863 0)
(0.660848 0.323614 0)
(0.586765 0.371719 0)
(1.09344 0.672861 -2.47852e-19)
(1.09179 0.81027 3.84383e-19)
(1.14974 0.560847 0)
(1.18177 0.504325 0)
(1.01615 0.0130415 -4.61256e-19)
(1.01493 0.0140143 5.76246e-19)
(1.0251 -0.0105109 0)
(1.02331 -0.0121588 0)
(1.00692 0.00253826 0)
(1.01045 0.00340715 0)
(1.00461 0.00159596 0)
(1.00995 0.0061763 0)
(1.00797 0.0061998 0)
(1.00427 0.00437372 0)
(0.131985 1.33416 0)
(0.12246 1.24633 0)
(0.138957 1.39574 0)
(0.131996 1.38858 0)
(0.141341 2.58821 0)
(0.183069 2.64666 -2.10267e-19)
(0.108744 2.64091 0)
(0.0871331 2.64156 -9.19022e-22)
(0.0171949 2.67648 2.08515e-19)
(-0.152884 1.08912 0)
(-0.172534 1.09104 0)
(-0.0853313 1.05957 0)
(-0.0196432 0.946355 0)
(-0.145678 2.34461 4.4476e-19)
(-0.247262 2.57308 -2.79977e-19)
(-0.205188 2.69454 -3.70103e-19)
(-0.21576 2.63851 0)
(-0.221937 2.46706 3.10496e-19)
(-0.169244 2.37285 2.50384e-19)
(-0.204901 2.33165 -3.72244e-19)
(-0.275808 2.52631 3.85109e-19)
(-0.257448 2.56829 4.68332e-19)
(1.01672 0.0308962 4.54492e-19)
(1.00982 0.0193863 -5.6195e-19)
(1.00864 0.0291817 -4.72207e-19)
(0.990969 0.0125797 6.06676e-19)
(1.05292 0.00222297 0)
(1.04052 -0.01498 0)
(1.07415 0.0358601 0)
(1.05812 0.0115072 0)
(1.0557 0.00536731 0)
(1.11528 0.0781881 0)
(1.08739 0.048711 0)
(1.08943 0.0408434 0)
(-0.0601453 1.88727 -6.45431e-22)
(-0.0872702 1.86145 0)
(-0.0635244 1.8655 0)
(-0.0524889 2.06422 -1.52332e-20)
(-0.0375899 2.08715 2.02257e-21)
(-0.158025 1.82456 2.16369e-21)
(-0.106835 1.79892 -2.19361e-21)
(-0.139618 1.70949 0)
(-0.106356 1.74747 0)
(-0.0917741 1.75588 0)
(-0.151664 1.59672 0)
(-0.107546 1.51216 0)
(0.378844 1.47755 8.25258e-19)
(0.407619 1.49294 3.23641e-19)
(0.595013 2.43344 -1.55784e-19)
(0.406799 2.52698 4.30853e-19)
(0.356339 2.08953 -4.85026e-20)
(1.02088 -0.00876421 0)
(1.01535 -0.0100824 0)
(1.01477 -0.0155252 0)
(1.0078 -0.00131923 0)
(1.00473 -0.00133562 0)
(1.00759 -0.00471781 0)
(1.00919 -0.00373277 0)
(1.01418 -0.00468821 0)
(1.02173 0.0156348 4.3885e-19)
(1.01747 0.0155531 -5.64461e-19)
(1.02296 0.0185026 -4.40965e-19)
(1.0188 0.0180709 5.52479e-19)
(0.753429 1.31002 0)
(0.687007 1.36646 6.09996e-19)
(0.857026 1.20111 3.54136e-19)
(0.901027 1.1588 -4.71493e-19)
(1.15302 2.61758 -5.44879e-19)
(0.835252 0.104158 2.95329e-19)
(1.1318 0.102226 0)
(1.17541 0.182291 5.6493e-20)
(1.16088 0.157668 2.51387e-21)
(0.987 0.123296 0)
(0.145779 2.96551 1.41147e-19)
(0.12329 2.87114 -6.74946e-19)
(0.0347541 2.35925 4.84739e-19)
(0.100641 0.0767208 -2.04542e-19)
(0.345239 3.42999 -4.38989e-19)
(0.198944 3.32066 0)
(0.240636 3.36509 5.71702e-19)
(0.253965 3.03932 -7.76761e-19)
(0.349154 3.19934 0)
(0.00804593 3.12058 2.65405e-20)
(0.0179833 3.1297 -3.37923e-19)
(0.0163764 3.12561 4.97383e-19)
(0.037931 3.13979 0)
(0.0364355 3.15159 0)
(1.21762 2.61886 0)
(0.525756 0.851005 -2.41536e-19)
(1.02284 0.984093 -2.00887e-19)
(0.959853 1.05082 0)
(0.801968 0.94818 5.2445e-20)
(1.04471 0.863715 2.99394e-20)
(0.402226 0.439303 -5.42945e-19)
(0.699596 0.340469 -2.3933e-20)
(0.685152 0.277378 2.2843e-19)
(0.60069 0.40141 1.78812e-20)
(0.536978 0.378326 -7.33145e-19)
(0.670366 0.358247 0)
(0.697146 0.42848 3.74786e-19)
(0.696532 0.426174 0)
(0.630017 0.392403 0)
(0.618111 0.328157 0)
(0.773991 0.593059 1.34086e-19)
(1.19135 0.275778 3.9134e-20)
(1.18838 0.408352 0)
(1.19982 0.360486 0)
(0.768715 0.19718 3.38545e-19)
(0.823656 0.534044 -1.86371e-19)
(0.73525 0.502404 3.05056e-19)
(0.914816 0.420022 -2.86804e-19)
(1.01946 0.0144561 3.03733e-19)
(1.0178 0.0139795 -3.10707e-19)
(1.0157 0.0153454 0)
(1.03498 -0.00623918 0)
(1.02924 -0.00955804 -2.80003e-19)
(1.0272 -0.0127391 2.7717e-19)
(1.02527 0.00872287 0)
(1.02426 0.0126276 0)
(1.01136 0.00366069 0)
(1.01425 0.00871787 0)
(1.01506 0.00328649 0)
(1.01421 0.0022113 0)
(0.130034 1.23832 0)
(0.109163 1.08308 0)
(0.150897 1.38964 3.50171e-19)
(0.271957 1.45625 2.49531e-19)
(0.175561 1.43488 5.46672e-19)
(0.20194 1.43578 -8.85577e-19)
(0.163455 1.39393 0)
(0.106483 1.58951 2.55917e-19)
(0.0890504 1.56478 0)
(0.346897 2.04165 7.0502e-20)
(0.348458 2.3697 2.4023e-19)
(0.143866 1.45926 -2.23778e-19)
(0.263801 1.36375 1.91905e-19)
(0.17961 1.37529 -1.53999e-19)
(0.273825 1.31062 3.14525e-19)
(0.245291 1.57639 0)
(0.260693 1.62685 -2.06805e-19)
(0.058874 2.34965 1.19428e-19)
(0.0176774 2.68269 0)
(0.0739914 2.40959 -1.73337e-19)
(0.0515103 2.45715 0)
(0.0844976 2.64589 -1.72872e-22)
(0.0446806 2.69388 0)
(-0.161763 1.45773 5.32733e-19)
(-0.0538726 1.63012 0)
(0.0182261 1.30605 0)
(-0.111124 1.24518 -6.00488e-19)
(-0.147703 2.70472 -7.42546e-20)
(-0.0225307 2.74009 -3.11038e-19)
(-0.105927 2.7331 -1.83115e-21)
(-0.450089 2.16712 -1.6966e-19)
(-0.366556 2.10371 -1.81968e-19)
(-0.173103 1.18775 0)
(-0.131949 1.2092 0)
(0.168739 1.78547 -6.33903e-19)
(0.127807 1.47517 -7.08748e-19)
(0.0931673 1.66578 9.14147e-19)
(0.184023 1.78527 0)
(-0.157794 1.96837 4.7173e-20)
(-0.127058 2.04847 -2.47935e-20)
(-0.159618 2.10727 1.07923e-20)
(-0.437233 2.02929 2.05399e-19)
(-0.250372 2.28419 4.05106e-20)
(-0.265377 2.35294 -2.31183e-19)
(1.02114 0.0228679 -2.99775e-19)
(1.01792 0.0271156 2.99998e-19)
(1.01385 0.0210703 0)
(1.00999 0.0492682 4.33791e-19)
(0.994963 0.0365987 -5.08562e-19)
(0.964066 0.0228194 5.89266e-19)
(1.01034 0.0851968 -5.6169e-20)
(1.04031 -0.00791737 0)
(1.04365 -0.00839923 2.50047e-19)
(1.03503 -0.0154972 -2.51254e-19)
(1.06176 0.0407332 -1.37931e-20)
(1.05636 0.0209619 1.2277e-19)
(1.05886 0.0508698 0)
(1.05328 0.041909 -4.5861e-20)
(1.03947 0.0304002 0)
(1.03544 0.0271461 0)
(1.02746 0.0121036 0)
(1.02573 0.015115 0)
(1.04775 0.0266438 9.57124e-20)
(1.04519 0.0182169 -2.16923e-19)
(1.05278 0.0245596 -9.6266e-20)
(1.05124 0.026076 -1.12012e-19)
(1.06207 0.0586277 2.0029e-19)
(1.07932 0.0520037 0)
(1.08526 0.0942926 0)
(-0.146856 1.95341 2.35995e-20)
(-0.107714 1.86964 -2.74972e-22)
(-0.11869 1.88874 0)
(-0.0873286 1.95868 -2.36267e-20)
(-0.0648526 1.90208 8.75191e-22)
(-0.0750671 1.92851 2.85107e-21)
(-0.140933 2.33364 -2.52384e-19)
(-0.157429 2.17132 5.45209e-21)
(-0.202318 2.23758 -3.92843e-20)
(-0.0729187 2.19209 8.26003e-20)
(-0.0838656 2.21508 -9.35021e-20)
(-0.212523 1.76364 -1.29862e-21)
(-0.193838 1.83702 -6.75058e-22)
(0.376074 1.39762 -4.1001e-19)
(0.372854 1.35579 -3.91231e-19)
(0.638274 1.41503 -5.8802e-19)
(0.511069 1.47901 -3.15609e-19)
(0.555673 1.45359 0)
(0.590334 2.40618 1.23856e-19)
(0.654122 2.39413 2.25874e-19)
(0.411268 2.50388 7.9298e-20)
(0.40715 2.55188 -1.75302e-19)
(0.519425 2.51007 2.67288e-19)
(0.548939 2.44677 0)
(0.489192 2.49401 -3.58301e-19)
(0.242036 2.57889 6.03565e-19)
(0.351942 2.5545 -8.23285e-20)
(0.283897 2.63564 -9.0922e-19)
(0.925096 2.37635 2.29863e-19)
(0.828758 2.36798 0)
(1.01032 0.000242765 1.00935e-20)
(1.01476 -0.00575168 -8.24661e-21)
(1.01809 -0.00389949 -1.49253e-19)
(1.01498 -0.000647926 1.49496e-19)
(1.01219 0.00105898 0)
(0.621164 1.26983 0)
(0.628825 1.16704 0)
(0.731396 1.07552 0)
(0.62654 1.1197 0)
(1.18303 2.634 5.61961e-20)
(1.06772 2.37026 0)
(0.840569 2.23496 -1.80353e-21)
(0.822339 2.47956 0)
(0.91605 2.56619 1.74584e-20)
(0.951852 2.52143 -1.16554e-20)
(0.843537 0.14585 0)
(0.813283 0.143304 8.51265e-20)
(0.927984 0.125246 4.36312e-19)
(0.86548 0.116119 -1.74104e-19)
(0.848327 0.0655633 -5.25638e-19)
(1.0402 0.216509 -2.52475e-19)
(0.957663 0.272318 -1.57775e-20)
(0.904138 0.272947 3.97228e-19)
(0.973165 0.199283 2.95024e-19)
(0.937652 0.159175 -5.50243e-19)
(0.911134 0.169971 7.12734e-20)
(0.938106 0.233933 -1.38805e-19)
(0.914755 0.193479 0)
(0.973079 0.157356 2.63675e-19)
(1.01641 0.164338 0)
(1.00994 0.191012 0)
(1.07782 0.110006 8.51201e-20)
(1.04038 0.157003 -1.30518e-20)
(1.03431 0.218814 -4.77117e-20)
(1.07037 0.191578 0)
(1.027 0.0304102 2.26425e-19)
(1.04496 0.0477769 2.69621e-19)
(1.04173 0.0319885 -2.23339e-19)
(1.04277 0.0531445 -1.81602e-19)
(1.02196 0.0548341 -3.04954e-19)
(0.974926 0.125517 0)
(0.989294 0.0784946 0)
(0.968654 0.0426108 -2.1241e-19)
(0.933458 0.0582314 8.82199e-20)
(1.03021 0.0852576 2.55449e-19)
(1.04624 0.110807 -2.60323e-19)
(1.05083 0.137598 2.37886e-19)
(1.017 0.124318 0)
(1.05573 0.0980281 0)
(1.04352 0.0806474 -1.08254e-19)
(1.03962 0.0818518 -2.05177e-19)
(0.578675 1.0817 -9.54228e-20)
(0.619723 1.44014 1.9647e-19)
(1.15758 2.7584 1.00595e-19)
(1.22433 3.09624 -7.07621e-20)
(1.24765 2.73458 5.57807e-19)
(1.28025 2.71852 -3.38373e-19)
(1.20705 2.35445 -8.30851e-21)
(1.21056 2.99982 1.93648e-19)
(1.22862 2.96483 -2.13822e-19)
(1.21651 3.24991 -2.68285e-19)
(1.37903 2.98131 3.71489e-19)
(1.37198 2.89866 0)
(0.523593 0.861088 -1.32884e-20)
(0.159984 1.28244 3.77957e-19)
(0.527225 0.512833 3.56354e-19)
(0.364625 0.281822 3.90779e-19)
(0.550605 0.407156 4.11392e-19)
(0.556499 0.485554 -6.39242e-19)
(0.559497 0.490465 5.24089e-19)
(0.517562 0.442296 -2.14043e-19)
(0.460148 0.378482 4.90666e-19)
(0.777292 0.249421 -1.89372e-19)
(0.730374 0.298277 0)
(0.7265 0.231522 1.08764e-20)
(0.724701 0.513112 1.91847e-19)
(0.692017 0.482976 -7.09705e-19)
(0.620339 0.477997 1.85223e-20)
(0.631 0.460828 0)
(0.657169 0.722697 1.54604e-19)
(0.796446 0.750265 6.2987e-20)
(0.718309 0.832746 -8.146e-20)
(0.839965 0.786895 -1.90192e-20)
(0.872923 0.831027 1.32965e-20)
(0.881469 0.831683 -1.36202e-20)
(0.814423 0.631342 -2.29378e-19)
(0.889002 0.683819 1.76834e-20)
(0.944246 0.698416 0)
(0.933865 0.676916 -1.73858e-20)
(0.983719 0.311292 6.39156e-20)
(1.10118 0.284622 7.97545e-21)
(1.02434 0.250653 1.03004e-19)
(0.966868 0.344243 -1.46752e-19)
(1.01554 0.404276 0)
(1.06254 0.392499 0)
(0.889102 0.353654 5.02459e-21)
(0.831451 0.28225 0)
(0.85177 0.274469 2.03925e-19)
(0.884579 0.278854 -5.77424e-21)
(0.9065 0.423488 7.85434e-19)
(0.869572 0.48362 1.98714e-19)
(0.871512 0.449987 -2.54661e-19)
(0.800681 0.437099 2.73304e-19)
(0.786173 0.436601 1.85388e-19)
(0.752271 0.418553 -1.82018e-19)
(1.02676 -0.000926813 2.40464e-19)
(1.0199 -0.000123413 0)
(1.01834 0.000825591 1.59785e-19)
(1.02208 -0.0012946 -3.59635e-19)
(1.02193 0.00411948 1.74354e-19)
(1.0206 0.0105668 -3.66001e-19)
(1.02147 0.0100817 0)
(1.02067 0.0108082 -7.72724e-20)
(1.01594 0.00760175 1.93696e-19)
(1.01683 0.010274 -9.76164e-20)
(1.01774 0.00948913 7.19696e-20)
(0.0199869 1.0449 0)
(0.0973511 1.2247 0)
(0.090833 1.09319 0)
(0.0589341 0.967364 0)
(0.183051 1.3622 -7.57383e-19)
(0.172905 1.33631 2.45426e-19)
(0.171245 1.48558 1.59405e-19)
(0.145448 1.38454 -1.89795e-19)
(0.178 1.51374 5.95145e-19)
(0.196767 1.48078 -4.55677e-19)
(0.227966 1.35064 -2.63194e-20)
(0.238054 1.29807 5.2341e-19)
(0.187625 1.22295 7.57243e-20)
(0.180555 1.22309 7.56236e-20)
(0.104391 2.37436 1.91486e-19)
(0.0947136 2.41645 0)
(0.14996 2.06466 -3.61704e-20)
(0.116094 1.73167 -1.0793e-19)
(0.232 2.057 2.63029e-20)
(0.206348 2.45642 0)
(0.269289 2.40887 -1.3059e-19)
(0.298751 2.41009 9.31264e-20)
(0.223156 2.01621 8.08476e-20)
(0.137144 2.18648 -2.43464e-21)
(0.136723 2.31668 0)
(0.0974982 2.12472 6.28107e-19)
(-0.103675 2.59803 6.3471e-19)
(-0.0451151 2.45899 0)
(0.0239788 2.57625 -3.07913e-20)
(0.040634 2.41119 -2.85172e-19)
(-0.275395 1.33856 -6.34745e-20)
(-0.276156 1.35178 9.22001e-19)
(-0.302079 1.43476 -1.9566e-19)
(-0.36427 1.48142 -3.98545e-19)
(-0.235743 1.41781 0)
(-0.309754 1.4076 0)
(-0.179765 1.46447 -8.1521e-20)
(-0.277536 1.49383 2.65e-20)
(-0.303739 1.41661 0)
(-0.19974 1.31151 -8.27129e-20)
(-0.128196 1.36828 1.42381e-19)
(1.04038 0.00281134 0)
(1.04169 0.000323671 -2.30778e-20)
(1.04513 0.0134968 -1.72439e-19)
(1.05086 0.0107114 0)
(1.05018 0.00802028 0)
(1.03816 0.00468165 -6.6045e-21)
(1.03325 0.00652396 2.83878e-19)
(1.03414 0.0114678 3.43244e-19)
(1.02748 0.01879 0)
(1.02611 0.0199803 0)
(1.03999 0.0203117 1.73492e-19)
(1.03234 0.0235094 0)
(1.02922 0.022648 0)
(-0.310929 2.00645 0)
(-0.237867 1.85048 -5.81182e-21)
(-0.252937 1.95904 -1.39675e-20)
(-0.260903 1.57336 0)
(-0.306483 1.7984 -3.43133e-20)
(-0.244523 1.7304 -1.76042e-22)
(-0.236002 1.63966 0)
(0.3941 1.68004 0)
(0.371705 1.28682 6.42213e-19)
(0.302157 1.3406 0)
(0.422603 1.27632 -8.37534e-19)
(0.463299 1.44454 0)
(0.443305 1.39021 3.92658e-19)
(1.02649 2.70467 -4.27722e-21)
(0.947798 2.4118 -2.90256e-19)
(0.88519 2.16463 3.32626e-19)
(0.83892 2.36243 1.18585e-19)
(0.839261 2.51919 0)
(0.905773 2.51451 0)
(0.903212 2.37041 0)
(0.888678 2.34555 -4.45512e-19)
(0.691638 2.49444 -2.34848e-20)
(0.799423 2.48699 -1.51901e-20)
(0.807452 2.45894 1.16339e-20)
(0.686182 2.37361 0)
(0.793071 2.36914 0)
(0.751832 2.38017 -2.2743e-19)
(0.768354 2.50224 0)
(0.587449 1.08946 0)
(0.480696 0.939843 -4.52864e-21)
(0.528782 0.970056 -1.53393e-21)
(0.512765 1.06047 0)
(0.512421 1.01683 9.40993e-21)
(0.740572 0.858572 1.18757e-20)
(0.758952 1.00002 0)
(0.731317 0.95521 -5.95542e-20)
(0.608802 1.02213 0)
(0.614444 0.936949 0)
(1.16167 2.77847 5.48724e-20)
(1.1401 2.84278 1.23804e-19)
(0.934375 2.37147 -2.83309e-19)
(0.901738 2.34534 3.53602e-20)
(1.12478 2.74921 0)
(1.07555 2.72001 -4.22646e-20)
(1.0816 2.49455 -7.59176e-20)
(0.975361 2.23151 -3.03652e-20)
(0.487812 1.37172 0)
(0.497896 1.06951 8.40889e-20)
(0.540193 1.14936 0)
(0.856683 0.21872 0)
(0.819638 0.176805 0)
(0.779477 0.163795 0)
(0.849863 0.223704 -3.20693e-19)
(0.798447 0.221283 1.98028e-19)
(0.940638 0.0505867 -1.8134e-19)
(0.95305 0.0999284 0)
(0.925629 0.104913 8.16379e-20)
(0.888024 0.0808802 3.34413e-19)
(0.878338 0.0467235 -2.05354e-19)
(1.16692 3.3754 -9.81866e-19)
(1.21274 3.29485 0)
(1.16705 3.40201 -1.9327e-18)
(0.653694 3.56235 1.65926e-18)
(0.880767 3.12758 3.77459e-19)
(0.504323 0.886771 2.29301e-19)
(0.432339 0.87573 0)
(0.361048 0.54518 -8.56431e-20)
(0.453172 0.694427 3.9158e-19)
(0.534813 0.512518 -1.13598e-19)
(0.518616 0.538116 1.32352e-19)
(0.661883 0.528662 2.72568e-19)
(0.688863 0.545425 0)
(0.647977 0.617501 0)
(0.598764 0.549741 0)
(0.941828 0.585761 -5.00435e-20)
(0.87326 0.528468 -1.92146e-19)
(0.89648 0.561423 9.15152e-20)
(0.925465 0.501069 -1.41793e-19)
(1.02873 0.46276 0)
(1.03793 0.555907 -6.79264e-21)
(0.823226 0.391319 -4.11469e-19)
(0.826576 0.374927 -4.76503e-19)
(0.779284 0.389728 3.22603e-19)
(0.773564 0.357178 -3.63679e-19)
(0.825785 0.308546 -2.7028e-19)
(0.779632 0.313062 3.3247e-19)
(1.02589 0.00518726 -1.79405e-19)
(1.02571 0.00510504 3.64156e-19)
(1.03113 -0.000848119 2.28104e-19)
(1.03205 -0.000163039 -2.75617e-19)
(1.03423 0.00252225 0)
(1.03088 0.00389619 -4.43944e-19)
(0.15585 1.7393 -7.74851e-20)
(0.155981 1.68398 0)
(0.147689 1.74535 -5.31275e-19)
(0.138069 1.72449 4.85755e-19)
(0.163189 1.56189 -2.94021e-19)
(0.236834 1.58192 0)
(-0.468696 2.0146 0)
(-0.420851 1.72271 3.48747e-20)
(-0.390423 1.69402 -3.161e-20)
(-0.327727 1.82266 -1.10432e-20)
(-0.328938 2.02842 3.85085e-20)
(-0.384653 2.04689 -3.36762e-20)
(0.48244 1.38422 4.11173e-19)
(0.476822 1.38709 -4.4152e-19)
(0.435254 1.2763 4.14032e-19)
(0.42635 1.29653 -2.51104e-20)
(0.612976 1.27886 0)
(0.530818 1.37014 5.35952e-19)
(0.552981 1.39677 -5.20342e-19)
(0.443512 1.26118 -3.98398e-19)
(0.488569 1.21885 0)
(0.5421 1.17869 0)
(0.661353 2.45441 3.44798e-20)
(0.669384 2.4724 5.41099e-19)
(0.719859 2.489 -3.71968e-19)
(0.62826 2.47418 -1.20581e-19)
(0.567606 2.57159 9.95984e-20)
(0.51598 2.54178 -3.00193e-19)
(0.961549 2.37398 -1.79121e-19)
(1.00596 2.39653 0)
(0.89988 2.14565 -2.48627e-19)
(1.04431 2.70009 0)
(1.04542 2.68736 0)
(0.624879 2.29571 2.40459e-19)
(1.0463 3.17661 4.81909e-19)
(0.917854 3.04602 -4.28322e-19)
(0.295344 0.967075 0)
(0.350276 0.840383 -1.56127e-19)
(0.496253 0.791925 -7.08625e-20)
(0.408243 2.04548 0)
(0.474642 2.79344 -2.6277e-19)
(0.434925 2.55863 0)
(0.673797 0.662233 -3.20689e-19)
(0.743732 0.654577 4.07638e-19)
(0.771458 0.606412 -3.97635e-19)
(0.671128 0.631691 -4.73444e-20)
(0.720771 0.587131 -1.92528e-19)
(1.00666 2.78407 -3.66356e-19)
(1.03987 2.83935 2.85875e-19)
(0.651476 2.19275 5.54033e-20)
(0.606349 1.73955 -7.02606e-20)
(0.704353 1.92743 1.06494e-19)
(0.991029 2.46698 -6.93749e-20)
(0.993744 2.46466 -1.60416e-19)
(0.671658 1.87916 -5.01001e-21)
(0.457805 1.35241 -7.73303e-20)
)
;

boundaryField
{
    wall-4
    {
        type            noSlip;
    }
    velocity-inlet-5
    {
        type            fixedValue;
        value           uniform (1 0 0);
    }
    velocity-inlet-6
    {
        type            fixedValue;
        value           uniform (0 3 0);
    }
    pressure-outlet-7
    {
        type            zeroGradient;
    }
    wall-8
    {
        type            noSlip;
    }
    frontAndBackPlanes
    {
        type            empty;
    }
}


// ************************************************************************* //
