/*--------------------------------*- C++ -*----------------------------------*\
| =========                 |                                                 |
| \\      /  F ield         | OpenFOAM: The Open Source CFD Toolbox           |
|  \\    /   O peration     | Version:  4.0                                   |
|   \\  /    A nd           | Web:      www.OpenFOAM.org                      |
|    \\/     M anipulation  |                                                 |
\*---------------------------------------------------------------------------*/
FoamFile
{
    version     2.0;
    format      ascii;
    class       volScalarField;
    location    "44";
    object      p;
}
// * * * * * * * * * * * * * * * * * * * * * * * * * * * * * * * * * * * * * //

dimensions      [0 2 -2 0 0 0 0];

internalField   nonuniform List<scalar> 
2200
(
0.780092
0.758592
0.742682
0.727008
0.712391
0.699861
0.68949
0.681374
0.675654
0.672665
0.673101
0.676881
0.68318
0.691715
0.702378
0.715127
0.729901
0.745788
0.761811
0.783314
0.712524
0.709264
0.706337
0.702217
0.696751
0.690273
0.683646
0.677673
0.673144
0.670707
0.671154
0.674417
0.679555
0.685979
0.692934
0.699664
0.705307
0.709423
0.7123
0.715646
0.672614
0.672832
0.67489
0.67623
0.676612
0.675749
0.673758
0.671061
0.668488
0.66696
0.667462
0.669863
0.673111
0.676309
0.678633
0.679641
0.679363
0.678315
0.676609
0.676366
0.650167
0.651618
0.654206
0.656645
0.659075
0.661078
0.662214
0.662419
0.662017
0.661689
0.662265
0.663583
0.664741
0.6651
0.664391
0.662708
0.66054
0.658328
0.65573
0.654319
0.635839
0.637811
0.640622
0.643453
0.646306
0.649123
0.651562
0.653396
0.654587
0.655346
0.656011
0.656416
0.656115
0.654961
0.65306
0.650656
0.648083
0.645357
0.642573
0.640644
0.628518
0.630116
0.632316
0.634842
0.637499
0.640151
0.642718
0.645113
0.647085
0.648533
0.64932
0.649271
0.648387
0.646816
0.644876
0.64269
0.640337
0.63798
0.635874
0.634299
0.625163
0.626183
0.627449
0.629305
0.631432
0.633572
0.635728
0.637969
0.640127
0.641893
0.642835
0.642761
0.64192
0.640659
0.639231
0.637646
0.635923
0.63433
0.633205
0.632187
0.622594
0.623264
0.623889
0.625178
0.626775
0.628438
0.630154
0.63202
0.634008
0.635873
0.637007
0.637212
0.636804
0.636126
0.635284
0.634291
0.633197
0.632247
0.631787
0.631111
0.619444
0.619894
0.620287
0.621268
0.622507
0.623861
0.625321
0.626935
0.628709
0.630567
0.631955
0.632622
0.632771
0.632615
0.632248
0.631702
0.631064
0.630489
0.63028
0.629819
0.615456
0.615749
0.616109
0.616983
0.618096
0.619356
0.620755
0.622296
0.623996
0.625875
0.627572
0.628729
0.629377
0.629643
0.629613
0.629383
0.629014
0.628633
0.628478
0.62816
0.610903
0.611103
0.61147
0.612294
0.613382
0.614679
0.616176
0.617857
0.619721
0.621804
0.623893
0.625532
0.626561
0.627101
0.627273
0.627215
0.627012
0.626756
0.626616
0.626389
0.605908
0.606055
0.60643
0.607239
0.608373
0.60979
0.611485
0.613449
0.615677
0.618201
0.620762
0.622803
0.624124
0.624864
0.625227
0.625306
0.625232
0.625099
0.624991
0.624814
0.600464
0.600569
0.600945
0.601773
0.603013
0.604619
0.606567
0.608859
0.611546
0.614634
0.61777
0.62025
0.621899
0.622903
0.62347
0.623751
0.623851
0.623846
0.623775
0.623624
0.594671
0.59473
0.595111
0.595965
0.597299
0.59906
0.601255
0.603924
0.607123
0.61087
0.614722
0.617811
0.619928
0.621314
0.622186
0.622704
0.622991
0.623104
0.623074
0.622944
0.588482
0.588517
0.588927
0.589814
0.591254
0.593185
0.595638
0.59871
0.602552
0.607136
0.61185
0.615644
0.618317
0.62018
0.621459
0.622296
0.622825
0.623077
0.623099
0.622978
0.581742
0.581697
0.582117
0.583095
0.584757
0.586929
0.589695
0.593235
0.597734
0.603237
0.609009
0.613755
0.617178
0.619681
0.621486
0.622704
0.62348
0.623866
0.623939
0.623815
0.574144
0.574124
0.574548
0.57565
0.577533
0.580032
0.583242
0.58734
0.592563
0.599094
0.606124
0.612162
0.616678
0.61994
0.622292
0.623912
0.624937
0.625477
0.625607
0.625481
0.565628
0.565641
0.566051
0.567226
0.569441
0.572375
0.576193
0.581095
0.587362
0.595227
0.603876
0.611349
0.616942
0.621058
0.624038
0.626077
0.62741
0.628105
0.628282
0.628152
0.555795
0.555759
0.556306
0.557758
0.5603
0.563796
0.568491
0.5746
0.582394
0.59208
0.602542
0.61151
0.618258
0.623157
0.626736
0.629318
0.630995
0.631854
0.632088
0.631953
0.544081
0.543993
0.54465
0.546504
0.549665
0.553994
0.559798
0.56739
0.577125
0.589099
0.601743
0.612395
0.62035
0.626359
0.630785
0.633895
0.635925
0.636954
0.637242
0.637093
0.530293
0.53016
0.530895
0.533081
0.536926
0.542275
0.549456
0.558805
0.570734
0.585333
0.600681
0.613568
0.62331
0.63058
0.63592
0.639776
0.642278
0.643517
0.643868
0.64369
0.513437
0.513337
0.514299
0.516925
0.521609
0.52826
0.537225
0.548841
0.563508
0.581248
0.599802
0.61534
0.62706
0.635868
0.642412
0.647124
0.650168
0.65164
0.652045
0.651825
0.492396
0.49223
0.493505
0.496942
0.503015
0.511675
0.523262
0.538092
0.556362
0.577896
0.599958
0.618305
0.632129
0.642514
0.650282
0.655989
0.659632
0.661322
0.661762
0.661481
0.464903
0.464909
0.466966
0.471829
0.480214
0.492034
0.507468
0.526603
0.549399
0.575468
0.601479
0.622786
0.638712
0.650722
0.659812
0.666385
0.67053
0.672397
0.672843
0.672507
0.428089
0.428336
0.431867
0.439638
0.451999
0.468745
0.489437
0.513961
0.542105
0.573352
0.603757
0.628291
0.64658
0.660378
0.670756
0.67826
0.682863
0.684838
0.685245
0.684839
0.378699
0.379121
0.386112
0.399084
0.417803
0.441595
0.469213
0.500318
0.534653
0.571667
0.606829
0.634772
0.655487
0.67116
0.68302
0.691484
0.696423
0.69833
0.698552
0.69816
0.313005
0.315838
0.331003
0.352272
0.379836
0.412359
0.447979
0.486492
0.527736
0.571122
0.61165
0.643646
0.667561
0.685744
0.699482
0.709396
0.714946
0.716828
0.716867
0.716683
0.238022
0.247622
0.2729
0.303944
0.341565
0.383112
0.42691
0.473204
0.52183
0.572221
0.618893
0.655752
0.683219
0.704281
0.720484
0.73197
0.738124
0.739761
0.739705
0.739739
0.170927
0.185827
0.21749
0.257379
0.304525
0.354966
0.406797
0.460868
0.51684
0.574033
0.626325
0.667644
0.698615
0.722297
0.740288
0.753074
0.759893
0.762
0.762375
0.762407
0.119891
0.133237
0.170214
0.216198
0.270641
0.328512
0.387724
0.449005
0.511802
0.575389
0.633475
0.67893
0.712911
0.738875
0.758577
0.772844
0.780031
0.782556
0.782865
0.782936
0.0777257
0.0903394
0.131
0.180871
0.240705
0.304449
0.370042
0.437814
0.507031
0.577011
0.640296
0.689421
0.726011
0.753828
0.774777
0.789743
0.797572
0.800446
0.800824
0.800929
0.0413164
0.0541445
0.0975482
0.150334
0.214459
0.282927
0.353931
0.427366
0.502194
0.577574
0.645398
0.69834
0.737236
0.766489
0.788568
0.803954
0.812175
0.815422
0.815904
0.816013
0.00953358
0.0225397
0.0679509
0.123296
0.191056
0.263501
0.339077
0.417311
0.497089
0.5776
0.650564
0.706296
0.746848
0.777417
0.799824
0.815601
0.824344
0.82778
0.828426
0.828508
-0.0190591
-0.00597423
0.0411038
0.0988709
0.169796
0.245603
0.32507
0.407517
0.491998
0.577461
0.654133
0.7125
0.755038
0.786275
0.809262
0.825362
0.83435
0.838062
0.838803
0.838869
-0.0451683
-0.0320998
0.0162092
0.0763327
0.149997
0.228751
0.311681
0.397925
0.486493
0.576026
0.656404
0.718117
0.76176
0.794005
0.817459
0.833628
0.843083
0.846841
0.847712
0.847701
-0.0696666
-0.056314
-0.00709077
0.0551857
0.131238
0.212617
0.298586
0.388105
0.480242
0.573959
0.658739
0.722655
0.767968
0.801019
0.824901
0.841241
0.85047
0.854432
0.855191
0.855017
-0.0927548
-0.0791382
-0.029157
0.0350325
0.113177
0.196896
0.285504
0.377931
0.473525
0.571167
0.659463
0.726329
0.773839
0.807575
0.831738
0.847974
0.857167
0.860966
0.861813
0.861669
-0.114529
-0.100883
-0.0501957
0.0156188
0.0955681
0.181395
0.272405
0.367531
0.466292
0.567424
0.659754
0.730297
0.779416
0.813975
0.83824
0.854364
0.863345
0.867104
0.867851
0.867772
-0.135348
-0.121625
-0.0703535
-0.00318522
0.0783035
0.166038
0.259244
0.356811
0.458372
0.562998
0.65939
0.733076
0.784554
0.820497
0.844832
0.860672
0.869472
0.872954
0.873672
0.873566
-0.15568
-0.141483
-0.0897722
-0.0214604
0.0613454
0.150767
0.245927
0.345676
0.449819
0.557799
0.658133
0.735377
0.789801
0.827082
0.851881
0.867352
0.875481
0.878675
0.879179
0.879081
-0.175653
-0.160682
-0.108583
-0.039267
0.0446571
0.135541
0.232426
0.334168
0.44076
0.55185
0.655982
0.737078
0.794683
0.834247
0.859697
0.874506
0.881787
0.88409
0.884425
0.884288
-0.195178
-0.179422
-0.126904
-0.0566462
0.0282476
0.120388
0.218789
0.322384
0.431281
0.545139
0.652659
0.73802
0.799431
0.841834
0.868633
0.882805
0.888428
0.889265
0.88918
0.889063
-0.214116
-0.19776
-0.144761
-0.073608
0.0121372
0.105368
0.205112
0.310369
0.421263
0.537487
0.648191
0.737854
0.803468
0.849795
0.879065
0.893019
0.89647
0.894095
0.893394
0.894228
-0.232425
-0.21564
-0.16213
-0.0901311
-0.00361847
0.0905534
0.191442
0.2981
0.410676
0.529014
0.642727
0.736311
0.806696
0.857796
0.891078
0.906268
0.907653
0.901108
0.895803
0.894171
-0.250082
-0.232954
-0.178932
-0.106167
-0.0189757
0.0759884
0.177809
0.285612
0.399639
0.519872
0.636074
0.733152
0.808504
0.865473
0.904425
0.923408
0.926814
0.914396
0.912633
0.916935
-0.267087
-0.249622
-0.195105
-0.121661
-0.0338796
0.0617272
0.164277
0.273007
0.38829
0.510133
0.62819
0.728396
0.80853
0.871685
0.918105
0.944197
0.95258
0.924443
0.882755
0.845508
-0.283384
-0.265647
-0.210669
-0.136674
-0.0484339
0.0476446
0.150719
0.260152
0.37641
0.499458
0.618992
0.7216
0.805634
0.875315
0.930745
0.96772
0.99066
0.976977
0.993799
1.0502
-0.298928
-0.281078
-0.225725
-0.151348
-0.0628122
0.0335359
0.136899
0.246729
0.363517
0.487297
0.607987
0.711952
0.798857
0.873495
0.933991
0.975081
0.991567
0.974228
0.935059
0.948356
-0.313697
-0.295895
-0.24023
-0.165628
-0.0769349
0.0195098
0.122953
0.232879
0.349774
0.473849
0.595124
0.699387
0.786475
0.861903
0.92239
0.962069
0.95436
0.903577
0.840946
0.829097
-0.327682
-0.310093
-0.254193
-0.179523
-0.090798
0.00557364
0.108894
0.218634
0.335264
0.45912
0.58008
0.683419
0.768159
0.838635
0.892928
0.905222
0.872573
0.797991
0.724519
0.704266
-0.34092
-0.323669
-0.267623
-0.193048
-0.104427
-0.00829553
0.0947115
0.204017
0.320041
0.443084
0.562873
0.664167
0.743037
0.801672
0.831251
0.820627
0.766239
0.665952
0.579404
0.558421
-0.353869
-0.337026
-0.280923
-0.206581
-0.118182
-0.0224161
0.0801309
0.188807
0.303923
0.425597
0.543349
0.640796
0.712335
0.755263
0.750874
0.717547
0.609587
0.488466
0.381927
0.355846
-0.367425
-0.350962
-0.294783
-0.220742
-0.132643
-0.0372831
0.0647327
0.172653
0.286606
0.40637
0.521169
0.61338
0.677795
0.69669
0.663291
0.577689
0.423055
0.271487
0.143261
0.116531
-0.382113
-0.365881
-0.309541
-0.235782
-0.147994
-0.0530259
0.0484258
0.155491
0.268066
0.385481
0.496384
0.582611
0.635994
0.627783
0.574955
0.42699
0.22781
0.01574
-0.163881
-0.21146
-0.398041
-0.381881
-0.325238
-0.25171
-0.164216
-0.0696224
0.0312332
0.137345
0.248351
0.362965
0.468905
0.549664
0.588506
0.548879
0.461713
0.274156
0.04265
-0.246445
-0.568341
-0.714915
-0.415288
-0.399048
-0.342015
-0.268631
-0.181359
-0.0871291
0.0130874
0.118146
0.227427
0.338977
0.439138
0.513663
0.535575
0.464951
0.328979
0.122777
-0.112404
-0.457643
-1.04684
-1.62007
-0.433931
-0.417483
-0.359916
-0.286583
-0.199447
-0.105548
-0.00597849
0.0979854
0.205481
0.313806
0.408088
0.475038
0.478625
0.390854
0.20024
-0.0349384
-0.23936
-0.476434
-1.03709
-2.56439
-0.453989
-0.437245
-0.379072
-0.305715
-0.218635
-0.125067
-0.0261953
0.0765828
0.182153
0.287153
0.375666
0.433338
0.417362
0.332566
0.106117
-0.133877
-0.283451
-0.322567
-0.315353
-0.70606
-0.475395
-0.458529
-0.399618
-0.326292
-0.239327
-0.146191
-0.0481796
0.0531927
0.156529
0.257635
0.340601
0.388163
0.356726
0.284187
0.0561196
-0.148843
-0.261193
-0.269984
-0.217397
-0.258282
-0.497968
-0.481177
-0.421589
-0.348413
-0.261593
-0.169023
-0.0720676
0.0276511
0.128371
0.225085
0.303353
0.341031
0.302867
0.231871
0.0236229
-0.139911
-0.222758
-0.230257
-0.277981
-0.283019
-0.521712
-0.504993
-0.444835
-0.372026
-0.285425
-0.193596
-0.0979051
-8.71814e-05
0.097704
0.189856
0.263501
0.291992
0.255889
0.172144
-0.00404244
-0.130206
-0.201596
-0.17588
-0.197316
-0.19894
-0.546414
-0.529523
-0.469321
-0.397087
-0.310663
-0.219804
-0.125589
-0.0298967
0.064671
0.152266
0.221258
0.239523
0.214572
0.10459
-0.0386082
-0.1249
-0.16736
-0.211176
-0.187041
-0.195186
-0.57177
-0.554485
-0.494837
-0.42334
-0.337085
-0.247504
-0.154946
-0.0615585
0.029415
0.112742
0.177671
0.185963
0.172372
0.0435699
-0.0756016
-0.141268
-0.123653
-0.182921
-0.162183
-0.16696
-0.596954
-0.579434
-0.521278
-0.45047
-0.364349
-0.276412
-0.185642
-0.0947087
-0.00780367
0.0715697
0.133682
0.134352
0.121302
-0.00906773
-0.103796
-0.15722
-0.141696
-0.161245
-0.165481
-0.164441
-0.621489
-0.604128
-0.547765
-0.47767
-0.392119
-0.306168
-0.217289
-0.128936
-0.0464329
0.0291721
0.0897914
0.0861437
0.0651193
-0.0533722
-0.119608
-0.152065
-0.184195
-0.161603
-0.168076
-0.163662
-0.644461
-0.627802
-0.573322
-0.504186
-0.420004
-0.336176
-0.24928
-0.163623
-0.0855511
-0.0140794
0.0457041
0.0408495
0.00977314
-0.0913272
-0.137169
-0.128182
-0.193841
-0.151379
-0.163778
-0.156883
-0.665122
-0.649575
-0.596919
-0.529007
-0.44752
-0.365638
-0.280934
-0.19813
-0.124144
-0.0576474
0.00156738
-0.00215477
-0.0401822
-0.112067
-0.153437
-0.118482
-0.169441
-0.141646
-0.146737
-0.144639
-0.682008
-0.668048
-0.617847
-0.551689
-0.473577
-0.393529
-0.311342
-0.231536
-0.161096
-0.100649
-0.0428961
-0.0457355
-0.081734
-0.117624
-0.148377
-0.136682
-0.143013
-0.143022
-0.14104
-0.13992
-0.694207
-0.682291
-0.635064
-0.57126
-0.496616
-0.418872
-0.339505
-0.262878
-0.195477
-0.141699
-0.0858756
-0.0892802
-0.128033
-0.122957
-0.11697
-0.125028
-0.122508
-0.145988
-0.14343
-0.147107
-0.700379
-0.690797
-0.64752
-0.58657
-0.515212
-0.440466
-0.364264
-0.290814
-0.226114
-0.178424
-0.124018
-0.130134
-0.185973
-0.159696
-0.0705589
-0.082851
-0.0907597
-0.126262
-0.141808
-0.153133
-0.700298
-0.692815
-0.653619
-0.59609
-0.528318
-0.457006
-0.384174
-0.313868
-0.251915
-0.208118
-0.157203
-0.165099
-0.248983
-0.286839
-0.252418
-0.307119
-0.315539
-0.307792
-0.301965
-0.295806
-0.692982
-0.685718
-0.651566
-0.598514
-0.534798
-0.467315
-0.397953
-0.330302
-0.270152
-0.228062
-0.183193
-0.193597
-0.324241
-0.541057
-0.813786
-0.952878
-0.984229
-0.938898
-0.863554
-0.802659
-0.674023
-0.666069
-0.639052
-0.592525
-0.533933
-0.47049
-0.404507
-0.338602
-0.278088
-0.234234
-0.193721
-0.19156
-0.347516
-0.635752
-0.996258
-1.1464
-1.15465
-1.06973
-0.99815
-0.940015
-0.635651
-0.628281
-0.614781
-0.578163
-0.525426
-0.466223
-0.403313
-0.33762
-0.273157
-0.22219
-0.178315
-0.137195
-0.168577
-0.237122
-0.351918
-0.353735
-0.279471
-0.207327
-0.115005
-0.0580921
-0.590961
-0.58743
-0.584616
-0.556433
-0.511245
-0.456022
-0.394647
-0.327553
-0.255925
-0.187736
-0.125614
-0.0105447
0.144295
0.402701
0.627868
0.834052
1.00309
1.10603
1.15654
1.18616
-0.563459
-0.56418
-0.556706
-0.535783
-0.496095
-0.442777
-0.380437
-0.310645
-0.229673
-0.137229
-0.0398576
0.118274
0.375551
0.767964
1.15194
1.46721
1.68011
1.80327
1.85947
1.8781
-0.531287
-0.532542
-0.526114
-0.517045
-0.482673
-0.430418
-0.36493
-0.291203
-0.203899
-0.0982313
0.0166848
0.153679
0.424194
0.773722
1.11686
1.4095
1.62326
1.75146
1.81045
1.828
-0.502453
-0.501234
-0.500424
-0.497489
-0.470283
-0.420148
-0.352504
-0.274344
-0.184784
-0.0773084
0.0374502
0.135006
0.368219
0.666142
0.948994
1.19415
1.38894
1.50811
1.56236
1.57745
-0.490111
-0.487431
-0.489257
-0.484241
-0.462674
-0.411519
-0.341912
-0.261894
-0.174597
-0.0751381
0.0327319
0.0995208
0.280523
0.525879
0.751188
0.944247
1.10193
1.1999
1.24325
1.25432
-0.487154
-0.485547
-0.488728
-0.487424
-0.46504
-0.405773
-0.333211
-0.253243
-0.170461
-0.0845666
0.0164792
0.0675377
0.196895
0.392745
0.571308
0.717079
0.833239
0.908452
0.941776
0.950394
-0.479971
-0.480503
-0.486821
-0.486462
-0.460845
-0.395287
-0.322031
-0.244052
-0.166573
-0.0949298
-0.00137639
0.0440207
0.128309
0.279047
0.418192
0.525916
0.609084
0.663893
0.687203
0.692262
-0.440943
-0.442806
-0.449056
-0.448295
-0.422794
-0.363796
-0.29866
-0.228017
-0.157848
-0.0991566
-0.0160157
0.0271596
0.079169
0.192193
0.296959
0.375203
0.434727
0.474437
0.490406
0.495711
-0.35463
-0.357837
-0.362518
-0.362313
-0.342622
-0.302321
-0.254886
-0.200064
-0.140729
-0.0943565
-0.0254326
0.0139843
0.0462932
0.132828
0.209171
0.264408
0.307291
0.338591
0.349826
0.352868
-0.243355
-0.24577
-0.248237
-0.248824
-0.239081
-0.219056
-0.192509
-0.158249
-0.115588
-0.081252
-0.0291206
0.00469666
0.0257038
0.0933119
0.147508
0.184659
0.21559
0.235481
0.244695
0.247521
-0.13827
-0.139657
-0.141578
-0.143928
-0.142743
-0.137496
-0.127552
-0.110931
-0.086201
-0.0631554
-0.0279465
-0.0020781
0.0136716
0.0662225
0.102783
0.128546
0.147945
0.159192
0.163972
0.164896
-0.0572113
-0.0581118
-0.0597927
-0.0636814
-0.068323
-0.0720204
-0.0726372
-0.0680904
-0.0571825
-0.0445069
-0.0233582
-0.00522163
0.00735955
0.0443311
0.069033
0.0858138
0.0967801
0.101671
0.102453
0.101876
-0.0037334
-0.00445718
-0.00612051
-0.0111201
-0.0190974
-0.0272701
-0.0333183
-0.0355433
-0.0330796
-0.0286526
-0.0169538
-0.00500831
0.00542665
0.0271141
0.0423956
0.0522016
0.057466
0.0586482
0.0576233
0.0563809
0.0256114
0.0250603
0.0235759
0.0185122
0.00962409
-0.000220571
-0.00872441
-0.0145002
-0.0163647
-0.0168135
-0.010774
-0.00392609
0.00295396
0.0147782
0.0228874
0.0272378
0.0287601
0.0280605
0.0263577
0.0248834
0.0386224
0.0381935
0.0369353
0.0324773
0.0243316
0.0147426
0.0056353
-0.00187131
-0.00580583
-0.00836604
-0.00551733
-0.00242225
1.60813e-05
0.00566901
0.00887898
0.0100321
0.0098077
0.0080535
0.00589515
0.00441656
0.0417225
0.0414148
0.0404338
0.0369818
0.030442
0.0223724
0.0140218
0.00624149
0.00146636
-0.00234013
-0.00108268
-0.000978101
-0.00152056
0.0011917
0.00137315
0.000992362
-0.000602422
-0.00296963
-0.00497205
-0.0063419
0.0396386
0.0394003
0.0386345
0.0361161
0.031344
0.0253298
0.0186093
0.0117574
0.00691965
0.00221716
0.00221005
0.00147406
-0.000366943
0.000729548
0.000301134
-0.00112333
-0.00308883
-0.00520058
-0.00691761
-0.00822699
0.0355799
0.0353963
0.0348388
0.0330655
0.0296747
0.0253436
0.0202192
0.0146391
0.0104278
0.00547375
0.00463027
0.00397374
0.00266557
0.00308691
0.0026071
0.000806209
-0.00112328
-0.00283174
-0.0041189
-0.00525184
0.0310833
0.0309428
0.0305315
0.0292766
0.0268979
0.0236863
0.019852
0.0155145
0.0121776
0.00768152
0.00686049
0.00656196
0.00592726
0.00611084
0.0054644
0.0041486
0.00262886
0.00168793
0.0011679
0.000153757
0.0268476
0.0267506
0.0264851
0.0256071
0.023849
0.0214137
0.0184409
0.0149301
0.0124831
0.0090036
0.00846733
0.00836264
0.00831835
0.0087479
0.00806718
0.00748689
0.00740487
0.00753174
0.00755331
0.00653264
0.0227646
0.0227033
0.0224971
0.0219526
0.0207373
0.0189148
0.0167343
0.0139818
0.0121027
0.00926937
0.00898323
0.00888427
0.00836266
0.00950107
0.0101824
0.011105
0.0113734
0.0112123
0.0114745
0.0107072
0.0187463
0.0186952
0.0185397
0.0181913
0.0173458
0.0161062
0.0145073
0.0123905
0.0110579
0.00871099
0.00836134
0.0082316
0.00790928
0.00903102
0.0104991
0.0125556
0.0137693
0.0143329
0.0148032
0.0141181
0.0149577
0.0149031
0.0147776
0.0145702
0.0139995
0.0132555
0.012146
0.0105259
0.00953344
0.00732902
0.00696754
0.00527754
0.00523088
0.00825775
0.0110599
0.0137519
0.0162611
0.017731
0.0183485
0.0176284
0.0114317
0.0113679
0.0112688
0.0111481
0.0108204
0.0103813
0.00967683
0.00856967
0.00782539
0.00597383
0.00556841
0.00324938
0.00215433
0.0061641
0.0113833
0.015464
0.0186921
0.0205754
0.0211966
0.0203151
0.00842484
0.00833335
0.0082378
0.00814689
0.00792138
0.00768922
0.00719221
0.00631011
0.00586768
0.00433917
0.00417783
0.00199741
0.0016499
0.0054523
0.0105979
0.0153854
0.0191868
0.0209241
0.0214528
0.020743
0.00583736
0.005761
0.00572688
0.00564764
0.00544333
0.00520215
0.00494434
0.00432945
0.00424785
0.00298722
0.00340674
0.000907573
0.00104372
0.00468236
0.00864316
0.0130833
0.017335
0.0197691
0.0202781
0.0192184
0.00336633
0.00326592
0.00322934
0.0031607
0.0031097
0.00305492
0.00273628
0.00222901
0.00272945
0.00188784
0.00242258
0.000818028
0.00117847
0.00252549
0.005426
0.00905028
0.0126782
0.0152873
0.016387
0.0151734
0.00130873
0.00122411
0.00113665
0.00106429
0.00109868
0.00115866
0.00127003
0.00114946
0.00145363
0.000809146
0.000794637
0.00102737
0.00233213
0.00169461
0.00203597
0.00190778
0.00192876
0.00197985
0.00314303
0.00288989
-1.07672
-0.231709
0.0383873
0.316244
0.499948
0.658104
0.787422
0.919011
1.06239
1.14293
-0.0918513
0.3171
0.335357
0.524793
0.650847
0.763829
0.86129
0.947857
0.97568
0.933188
0.288578
0.503822
0.540652
0.67782
0.765166
0.846191
0.912915
0.962915
0.965272
0.979038
0.520293
0.664702
0.700362
0.803517
0.860643
0.919422
0.964615
0.997176
1.00637
1.02996
0.700004
0.802561
0.83238
0.901155
0.945581
0.987295
1.01966
1.04406
1.05396
1.08546
0.84448
0.913951
0.944388
0.987855
1.02415
1.05456
1.07905
1.09984
1.11411
1.14234
0.964381
1.01531
1.04097
1.06921
1.09712
1.12105
1.14116
1.16047
1.17545
1.2019
1.06859
1.10576
1.12696
1.14778
1.16876
1.18828
1.20577
1.22392
1.2388
1.26245
1.16287
1.1921
1.20853
1.22392
1.24017
1.25631
1.27189
1.28881
1.30239
1.3247
1.25141
1.27193
1.28686
1.30012
1.31374
1.32753
1.34101
1.35557
1.36711
1.38675
1.33708
1.35292
1.36677
1.37859
1.39048
1.40208
1.41319
1.42487
1.43254
1.44936
1.42244
1.43502
1.44871
1.46039
1.47097
1.48074
1.48955
1.49782
1.50138
1.51265
1.51117
1.52199
1.53543
1.54491
1.55245
1.55972
1.56692
1.57343
1.57449
1.58188
1.6095
1.61405
1.62224
1.62701
1.63041
1.63489
1.64089
1.64858
1.65245
1.66233
1.72271
1.70959
1.70231
1.6966
1.69389
1.69524
1.70163
1.714
1.7288
1.75846
1.84467
1.78866
1.75765
1.74046
1.73225
1.73222
1.74101
1.7606
1.79248
1.86171
)
;

boundaryField
{
    wall-4
    {
        type            zeroGradient;
    }
    pressure-outlet-7
    {
        type            fixedValue;
        value           uniform 0;
    }
    velocity-inlet-6
    {
        type            zeroGradient;
    }
    velocity-inlet-5
    {
        type            zeroGradient;
    }
    frontAndBackPlanes
    {
        type            empty;
    }
}


// ************************************************************************* //
