/*--------------------------------*- C++ -*----------------------------------*\
| =========                 |                                                 |
| \\      /  F ield         | OpenFOAM: The Open Source CFD Toolbox           |
|  \\    /   O peration     | Version:  4.0                                   |
|   \\  /    A nd           | Web:      www.OpenFOAM.org                      |
|    \\/     M anipulation  |                                                 |
\*---------------------------------------------------------------------------*/
FoamFile
{
    version     2.0;
    format      ascii;
    class       surfaceScalarField;
    location    "44";
    object      phi;
}
// * * * * * * * * * * * * * * * * * * * * * * * * * * * * * * * * * * * * * //

dimensions      [0 3 -1 0 0 0 0];

internalField   nonuniform List<scalar> 
4262
(
0.107137
0.470851
0.0955664
0.705156
0.0693733
0.858496
0.0473523
1.02078
0.0309881
1.21488
0.0198147
1.44939
0.0124465
1.73323
0.0072902
2.07619
0.00337418
2.48916
-0.000197946
2.98586
-0.00380415
2.9859
-0.00777437
2.48921
-0.0129315
2.07619
-0.0201411
1.73307
-0.031107
1.44919
-0.0472284
1.21464
-0.0690331
1.02057
-0.095277
0.858547
-0.107088
0.705396
0.470901
0.112899
0.357952
0.135332
0.682724
0.12046
0.873368
0.0979393
1.04331
0.0746994
1.23812
0.0529683
1.47112
0.0345369
1.75166
0.0202493
2.09048
0.00888128
2.50053
-0.00135167
2.9961
-0.0115334
2.99608
-0.0226337
2.50031
-0.0365915
2.09015
-0.0547377
1.75122
-0.0764316
1.47088
-0.100004
1.23821
-0.122997
1.04356
-0.136777
0.872327
-0.113487
0.682107
0.357413
0.0920854
0.265866
0.125054
0.649756
0.12122
0.877202
0.104956
1.05957
0.0863001
1.25678
0.0671852
1.49024
0.0483405
1.77051
0.0304043
2.10842
0.0139992
2.51693
-0.00179344
3.01189
-0.0174126
3.0117
-0.0334809
2.51638
-0.0510347
2.10771
-0.0697058
1.76989
-0.0882991
1.48947
-0.105778
1.25569
-0.120249
1.05803
-0.125318
0.877396
-0.0923568
0.649145
0.265056
0.0640111
0.201855
0.104886
0.60888
0.106709
0.875379
0.0953718
1.07091
0.0814711
1.27068
0.0667055
1.505
0.0505392
1.78667
0.033399
2.12556
0.0156927
2.53464
-0.00304564
3.03063
-0.0215081
3.03016
-0.0386172
2.53349
-0.0550886
2.12418
-0.0703431
1.78514
-0.0842144
1.50334
-0.0978962
1.26937
-0.109596
1.06973
-0.106723
0.874524
-0.0647607
0.607183
0.200296
0.0375445
0.164311
0.0809011
0.565524
0.0912582
0.865022
0.0841392
1.07803
0.0716196
1.2832
0.0598393
1.51678
0.0468364
1.79968
0.0319247
2.14047
0.0151469
2.55142
-0.00385803
3.04963
-0.022599
3.0489
-0.0387779
2.54967
-0.0528576
2.13826
-0.0651659
1.79745
-0.076511
1.51469
-0.0884509
1.28131
-0.0947691
1.07605
-0.083045
0.8628
-0.0383247
0.562462
0.161971
0.0195208
0.14479
0.0573495
0.527695
0.0727852
0.849586
0.0707206
1.08009
0.0620299
1.29189
0.0512901
1.52752
0.040143
1.81082
0.0275423
2.15307
0.0124377
2.56652
-0.00524949
3.06732
-0.0225014
3.06615
-0.0367035
2.56387
-0.0482672
2.14982
-0.0582978
1.80748
-0.0680093
1.5244
-0.0756628
1.28896
-0.0766078
1.077
-0.0597077
0.8459
-0.0202959
0.523051
0.141675
0.0106599
0.13413
0.0424895
0.495865
0.0587656
0.83331
0.0591471
1.07971
0.0530036
1.29803
0.0436678
1.53686
0.0334667
1.82103
0.0222557
2.16428
0.00927756
2.5795
-0.00645933
3.08306
-0.0219179
3.08161
-0.0339487
2.5759
-0.0438209
2.15969
-0.0525949
1.81626
-0.0607383
1.53254
-0.0655365
1.29376
-0.0637475
1.07521
-0.045551
0.827703
-0.0115968
0.489096
0.130078
0.00662265
0.127507
0.0331019
0.469386
0.0494017
0.817011
0.0509581
1.07815
0.0459767
1.30301
0.0376965
1.54514
0.028196
1.83053
0.017461
2.17501
0.00545579
2.5915
-0.00833673
3.09685
-0.0214732
3.09475
-0.0321104
2.58654
-0.0413609
2.16894
-0.0492024
1.8241
-0.0558269
1.53917
-0.0591607
1.2971
-0.0557346
1.07178
-0.0368754
0.808844
-0.0077793
0.46
0.122299
0.0047885
0.122719
0.0268571
0.447318
0.0429449
0.800923
0.0452117
1.07589
0.040661
1.30756
0.0331377
1.55266
0.0242079
1.83946
0.0139319
2.18529
0.00249083
2.60295
-0.0101942
3.10953
-0.022143
3.1067
-0.0321076
2.59651
-0.0403584
2.17719
-0.0473227
1.83106
-0.0529821
1.54483
-0.0555049
1.29962
-0.0507286
1.067
-0.0314168
0.789532
-0.00619359
0.434777
0.116105
0.00385151
0.118867
0.0219747
0.429194
0.0373747
0.785523
0.0403986
1.07286
0.0362868
1.31167
0.0291077
1.55984
0.0204254
1.84814
0.0104375
2.19528
-0.000770081
2.61415
-0.0129142
3.12168
-0.0242227
3.11801
-0.0333551
2.60564
-0.0409552
2.18479
-0.0470874
1.8372
-0.0517043
1.54944
-0.0531086
1.30102
-0.0469557
1.06085
-0.0275186
0.770095
-0.00554792
0.412806
0.110557
0.00305624
0.115811
0.0175796
0.414671
0.0316295
0.771473
0.034877
1.06961
0.0311875
1.31536
0.0245871
1.56644
0.0165104
1.85621
0.00687126
2.20492
-0.00416441
2.62519
-0.016017
3.13353
-0.026774
3.12876
-0.035309
2.61417
-0.0419734
2.19146
-0.0472356
1.84246
-0.0509726
1.55318
-0.0513671
1.30142
-0.0439262
1.05341
-0.0245212
0.75069
-0.00519956
0.393485
0.105358
0.00241964
0.113391
0.0140717
0.403019
0.0269371
0.758607
0.0302696
1.06628
0.0264883
1.31915
0.0197495
1.57318
0.0116791
1.86429
0.00247855
2.21412
-0.00783947
2.63551
-0.0193476
3.14504
-0.0297591
3.13918
-0.0375079
2.62192
-0.0431121
2.19706
-0.047293
1.84664
-0.0501902
1.55608
-0.0496554
1.30088
-0.0412381
1.04499
-0.0221585
0.73161
-0.00494726
0.376274
0.100411
0.00173064
0.111661
0.0105081
0.394242
0.0214293
0.747686
0.024324
1.06339
0.0205669
1.3229
0.0138968
1.57985
0.00586221
1.87232
-0.00317932
2.22316
-0.0134667
2.64579
-0.0246005
3.15617
-0.0338315
3.14841
-0.0400649
2.62815
-0.0446264
2.20162
-0.0483046
1.85032
-0.0503521
1.55813
-0.0491312
1.29966
-0.0396424
1.0355
-0.0205905
0.712558
-0.00480953
0.360493
0.0956011
0.000889725
0.110771
0.0071518
0.387979
0.0164106
0.738428
0.0187873
1.06101
0.0145928
1.3271
0.00760912
1.58684
-0.000472108
1.8804
-0.00942636
2.23211
-0.0189822
2.65535
-0.0292027
3.16639
-0.0378691
3.15707
-0.0434337
2.63372
-0.046995
2.20518
-0.049849
1.85317
-0.051021
1.5593
-0.0490579
1.2977
-0.038359
1.0248
-0.0193743
0.693574
-0.00470393
0.345822
0.0908972
9.33268e-05
0.110678
0.00389896
0.384174
0.0106574
0.731669
0.0121939
1.05947
0.00798142
1.33131
0.000870397
1.59395
-0.00762557
1.8889
-0.0168056
2.24129
-0.0268612
2.66541
-0.0372101
3.17674
-0.0448127
3.16468
-0.0488996
2.63781
-0.0514904
2.20778
-0.0531497
1.85483
-0.0529933
1.55914
-0.049496
1.2942
-0.0376544
1.01296
-0.018601
0.67452
-0.00462821
0.331849
0.086269
-0.000781264
0.111459
0.000448271
0.382944
0.00531059
0.726807
0.00591302
1.05887
0.00101634
1.33621
-0.00668504
1.60165
-0.015718
1.89793
-0.0255847
2.25116
-0.0353963
2.67522
-0.0441681
3.18551
-0.0505008
3.17101
-0.0541099
2.64142
-0.0559003
2.20957
-0.0567787
1.85571
-0.0559195
1.55828
-0.0510445
1.28933
-0.0376723
0.999591
-0.0183584
0.655206
-0.0046949
0.318186
0.0815741
-0.00168116
0.11314
-0.00280333
0.384066
-0.00128539
0.725289
-0.00248823
1.06007
-0.00798504
1.3417
-0.0159926
1.60966
-0.0255268
1.90746
-0.0358488
2.26148
-0.0463183
2.68569
-0.0554997
3.1947
-0.0611296
3.17664
-0.0633488
2.64363
-0.0635512
2.20977
-0.0623988
1.85456
-0.0596295
1.55551
-0.0530919
1.28279
-0.0385154
0.985015
-0.0187467
0.635438
-0.00494635
0.304386
0.0766277
-0.00301463
0.116155
-0.00651282
0.387565
-0.00833586
0.727112
-0.0111817
1.06292
-0.017775
1.3483
-0.0268748
1.61876
-0.0371168
1.91771
-0.0480724
2.27244
-0.0585318
2.69615
-0.0666475
3.20281
-0.0704544
3.18044
-0.0711988
2.64438
-0.070063
2.20863
-0.0684939
1.85299
-0.0648936
1.55191
-0.0564214
1.27432
-0.0399577
0.968551
-0.0193666
0.614847
-0.00520519
0.290224
0.0714226
-0.00443853
0.120593
-0.0110586
0.394185
-0.0163808
0.732434
-0.0223093
1.06885
-0.0301071
1.35609
-0.0400782
1.62873
-0.0512838
1.92891
-0.0629244
2.28408
-0.0741104
2.70733
-0.0830341
3.21174
-0.0868011
3.18421
-0.0860444
2.64362
-0.0827173
2.20531
-0.0778113
1.84808
-0.0714015
1.5455
-0.0608781
1.26379
-0.0424
0.950073
-0.0205901
0.593037
-0.00564641
0.275281
0.0657762
-0.00586069
0.126454
-0.0161224
0.404446
-0.0255782
0.74189
-0.033845
1.07712
-0.0437118
1.36596
-0.056063
1.64108
-0.0689991
1.94185
-0.0818507
2.29693
-0.0930761
2.71856
-0.100171
3.21883
-0.100433
3.18447
-0.0967161
2.63991
-0.0917343
2.20032
-0.0867009
1.84305
-0.0793478
1.53815
-0.0662315
1.25068
-0.0451721
0.929013
-0.0219443
0.569809
-0.00606076
0.259397
0.0597154
-0.00835273
0.134807
-0.0237214
0.419815
-0.0390474
0.757216
-0.0511869
1.08926
-0.0625769
1.37735
-0.0760953
1.6546
-0.0906642
1.95642
-0.104869
2.31114
-0.116587
2.73028
-0.123287
3.22553
-0.122875
3.18406
-0.117913
2.63494
-0.110238
2.19265
-0.100671
1.83348
-0.0893579
1.52684
-0.0731411
1.23446
-0.0493272
0.905199
-0.0241592
0.544641
-0.00668287
0.241921
0.0530325
-0.0108216
0.145628
-0.0309824
0.439976
-0.0518246
0.778058
-0.0682955
1.10573
-0.0831774
1.39223
-0.0999778
1.6714
-0.116752
1.97319
-0.132304
2.32669
-0.14418
2.74215
-0.149044
3.2304
-0.144685
3.1797
-0.135029
2.62529
-0.124273
2.18189
-0.113925
1.82313
-0.101441
1.51435
-0.0819878
1.21501
-0.054689
0.877901
-0.0268688
0.516821
-0.00730567
0.222358
0.0457269
-0.0154885
0.161117
-0.0429024
0.46739
-0.0702682
0.805424
-0.0919032
1.12736
-0.110288
1.41062
-0.12987
1.69098
-0.149221
1.99254
-0.166493
2.34396
-0.178741
2.7544
-0.182433
3.23409
-0.17611
3.17338
-0.164838
2.61401
-0.151699
2.16875
-0.136146
1.80758
-0.118033
1.49624
-0.0939487
1.19092
-0.0622871
0.846239
-0.0305914
0.485125
-0.00810864
0.199875
0.0376182
-0.0196257
0.180743
-0.055769
0.503533
-0.0924491
0.842104
-0.120869
1.15578
-0.144772
1.43452
-0.169157
1.71536
-0.190948
2.01433
-0.208528
2.36154
-0.219067
2.76494
-0.219102
3.23412
-0.208151
3.16243
-0.191727
2.59759
-0.173672
2.1507
-0.156574
1.79048
-0.136679
1.47635
-0.108125
1.16237
-0.0710746
0.809189
-0.0343977
0.448448
-0.00878938
0.174266
0.0288288
-0.032763
0.213506
-0.0818669
0.552637
-0.128279
0.888516
-0.163644
1.19115
-0.193554
1.46443
-0.221252
1.74306
-0.244241
2.03732
-0.261396
2.37869
-0.269675
2.77322
-0.265004
3.22945
-0.248276
3.1457
-0.227941
2.57726
-0.207678
2.13043
-0.185575
1.76838
-0.158787
1.44956
-0.123888
1.12747
-0.0806602
0.76596
-0.0383598
0.406148
-0.00928351
0.14519
0.0195453
-0.0474228
0.260929
-0.120746
0.62596
-0.182609
0.950379
-0.225794
1.23433
-0.261118
1.49976
-0.290195
1.77214
-0.311336
2.05846
-0.324207
2.39156
-0.325686
2.7747
-0.313648
3.21741
-0.290947
3.123
-0.265272
2.55158
-0.23863
2.10379
-0.212465
1.74222
-0.182734
1.41983
-0.141527
1.08626
-0.0898944
0.714328
-0.0404582
0.356712
-0.00915272
0.113885
0.0103926
-0.033859
0.294788
-0.0963862
0.688487
-0.153259
1.00725
-0.199665
1.28074
-0.242017
1.54211
-0.278637
1.80876
-0.312435
2.09226
-0.341862
2.42099
-0.362994
2.79583
-0.369644
3.22406
-0.356258
3.10961
-0.33247
2.52779
-0.305531
2.07685
-0.271847
1.70853
-0.226897
1.37487
-0.16737
1.02674
-0.0976598
0.644618
-0.0388123
0.297864
-0.00853512
0.0836074
0.00185748
-0.0124634
0.307251
-0.0468087
0.722832
-0.0879641
1.04841
-0.126729
1.3195
-0.164623
1.58
-0.198034
1.84217
-0.228679
2.12291
-0.253795
2.44611
-0.26867
2.8107
-0.26685
3.22224
-0.249153
3.09192
-0.2225
2.50114
-0.189534
2.04389
-0.154789
1.67379
-0.117226
1.33731
-0.0743492
0.98386
-0.0340253
0.604294
-0.00993107
0.27377
-0.00182186
0.0754982
3.56254e-05
0.000633935
0.306617
-0.0234472
0.746913
-0.0526284
1.07759
-0.0826607
1.34953
-0.113683
1.61102
-0.143902
1.87239
-0.171254
2.15026
-0.193148
2.468
-0.205869
2.82343
-0.205334
3.22171
-0.18579
3.07237
-0.155421
2.47077
-0.12353
2.012
-0.0888362
1.63909
-0.0508039
1.29928
-0.0149733
0.948029
0.00661215
0.582709
0.00841293
0.271969
0.00268805
0.0812231
0.00272367
0.00111132
0.305506
-0.0121376
0.760162
-0.0338812
1.09933
-0.0587469
1.3744
-0.0844072
1.63668
-0.109452
1.89743
-0.132723
2.17353
-0.15114
2.48642
-0.16063
2.83292
-0.154899
3.21598
-0.134412
3.05189
-0.108775
2.44513
-0.0772351
1.98046
-0.0421745
1.60403
-0.0123951
1.2695
0.00948895
0.926145
0.0189316
0.573266
0.0142172
0.276684
0.0046356
0.0908047
0.00735928
0.00422274
0.301283
-0.00464809
0.769033
-0.0229165
1.1176
-0.0439561
1.39544
-0.0659048
1.65863
-0.087623
1.91915
-0.107928
2.19383
-0.124371
2.50286
-0.133911
2.84246
-0.131281
3.21335
-0.114444
3.03505
-0.0877926
2.41848
-0.0567356
1.9494
-0.0275359
1.57483
0.00191281
1.24005
0.0221295
0.905928
0.0256101
0.569786
0.0166441
0.28565
0.00519687
0.102252
0.0125561
0.0053093
0.295974
-0.000662348
0.775005
-0.0169094
1.13385
-0.0357725
1.4143
-0.055241
1.6781
-0.0743863
1.9383
-0.0925861
2.21203
-0.10767
2.51795
-0.115669
2.85045
-0.111914
3.20959
-0.0962521
3.01939
-0.0747273
2.39696
-0.0480954
1.92277
-0.0178241
1.54456
0.00627168
1.21596
0.0219213
0.890279
0.0242541
0.567453
0.015129
0.294775
0.00473506
0.112646
0.0172912
0.00393011
0.292044
-0.000326044
0.779261
-0.0138236
1.14734
-0.0309134
1.43139
-0.0486782
1.69587
-0.0664423
1.95606
-0.0834129
2.22901
-0.0975865
2.53212
-0.106106
2.85897
-0.105879
3.20937
-0.0922149
3.00572
-0.0678749
2.37262
-0.0429901
1.89788
-0.0199869
1.52156
0.0038079
1.19216
0.0180571
0.87603
0.0192089
0.566301
0.0119388
0.302045
0.00365864
0.120926
0.0209499
0.00269292
0.289351
-0.000837547
0.782791
-0.0131391
1.15965
-0.0287343
1.44699
-0.0454259
1.71256
-0.0619743
1.97261
-0.0779769
2.24501
-0.0919931
2.54614
-0.101339
2.86832
-0.10047
3.2085
-0.0866988
2.99195
-0.0690083
2.35493
-0.0468993
1.87577
-0.0212759
1.49593
-0.00185836
1.17274
0.00983115
0.86434
0.0128095
0.563323
0.00758905
0.307265
0.00235921
0.126156
0.0233091
0.000180234
0.28917
-0.00328736
0.786259
-0.0140942
1.17045
-0.0279862
1.46088
-0.0435738
1.72815
-0.0595344
1.98857
-0.0754557
2.26093
-0.0899075
2.56059
-0.100011
2.87842
-0.100793
3.20928
-0.0914245
2.98258
-0.0729129
2.33642
-0.0504534
1.85331
-0.0300948
1.47558
-0.0110512
1.1537
0.00146136
0.851827
0.00391755
0.560867
0.00287858
0.308304
0.00112787
0.127907
0.0244369
-0.000453925
0.289624
-0.00508862
0.790893
-0.0151618
1.18053
-0.0282125
1.47393
-0.043157
1.74309
-0.0585902
2.004
-0.074262
2.2766
-0.0887595
2.57508
-0.0993955
2.88906
-0.102799
3.21268
-0.0933923
2.97318
-0.0763724
2.3194
-0.0570603
1.834
-0.0360014
1.45452
-0.0200614
1.13776
-0.00927374
0.84104
-0.00294767
0.554541
-0.00203409
0.30739
-0.000500473
0.126373
0.0239365
-0.00206379
0.291688
-0.00733704
0.796167
-0.0167608
1.18995
-0.0288688
1.48604
-0.0429855
1.75721
-0.0580616
2.01908
-0.0738068
2.29235
-0.0891606
2.59044
-0.101951
2.90185
-0.107405
3.21814
-0.0988028
2.96457
-0.0825591
2.30315
-0.0628231
1.81427
-0.0456327
1.43733
-0.0283449
1.12047
-0.0157954
0.82849
-0.00921769
0.547963
-0.00420718
0.30238
-0.00109131
0.123257
0.0228452
-0.00351941
0.295208
-0.00881201
0.801459
-0.0179482
1.19909
-0.0296682
1.49776
-0.0432814
1.77082
-0.057966
2.03376
-0.0737749
2.30815
-0.0896208
2.60628
-0.102758
2.91499
-0.10911
3.22449
-0.104103
2.95957
-0.0889969
2.28805
-0.0717649
1.79703
-0.051775
1.41734
-0.0360468
1.10474
-0.0234336
0.815877
-0.0135269
0.538056
-0.00695945
0.295813
-0.00188707
0.118185
0.0209581
-0.00420843
0.299416
-0.0102206
0.807471
-0.0191951
1.20806
-0.0303472
1.50891
-0.0433702
1.78384
-0.05781
2.0482
-0.0737599
2.3241
-0.0902438
2.62277
-0.105524
2.93027
-0.11575
3.23471
-0.112266
2.95608
-0.0984648
2.27425
-0.0774975
1.77607
-0.0593045
1.39914
-0.0417255
1.08716
-0.0277676
0.801919
-0.0176438
0.527933
-0.00784805
0.286017
-0.00208574
0.112422
0.0188723
-0.00434737
0.303763
-0.0108672
0.813991
-0.0198657
1.21706
-0.0308051
1.51985
-0.0435295
1.79657
-0.0576797
2.06235
-0.0736347
2.34006
-0.0906308
2.63976
-0.106699
2.94634
-0.117558
3.24557
-0.117145
2.95567
-0.105432
2.26253
-0.0877596
1.7584
-0.0651692
1.37655
-0.0472643
1.06926
-0.0322157
0.786871
-0.0186835
0.5144
-0.00866199
0.275995
-0.00206806
0.105828
0.0168043
-0.00442404
0.308187
-0.0114825
0.82105
-0.0204202
1.226
-0.0309706
1.5304
-0.0432651
1.80886
-0.0571908
2.07628
-0.0732037
2.35607
-0.090733
2.65729
-0.108538
2.96414
-0.12321
3.26024
-0.126112
2.95857
-0.114853
2.25127
-0.0931878
1.73673
-0.0720175
1.35538
-0.0500584
1.0473
-0.0328039
0.769616
-0.0197556
0.501352
-0.00795415
0.264194
-0.00169133
0.0995656
0.015113
-0.00447724
0.312665
-0.0116534
0.828226
-0.0204488
1.23479
-0.0308204
1.54077
-0.0428894
1.82093
-0.0565656
2.08995
-0.072537
2.37204
-0.0904889
2.67525
-0.109068
2.98272
-0.124478
3.27565
-0.12971
2.9638
-0.120976
2.24254
-0.104472
1.72023
-0.078139
1.32905
-0.0532204
1.02238
-0.031643
0.748039
-0.0149097
0.484619
-0.00551152
0.254796
-0.000661683
0.0947158
0.0144513
-0.0045573
0.317222
-0.0118454
0.835514
-0.0204239
1.24337
-0.030417
1.55077
-0.0420844
1.8326
-0.0555439
2.10341
-0.0715205
2.38802
-0.0897826
2.69351
-0.109542
3.00248
-0.128184
3.2943
-0.137377
2.973
-0.131349
2.23651
-0.110866
1.69974
-0.0853812
1.30357
-0.0538408
0.990841
-0.0267457
0.720944
-0.00816167
0.466035
-8.25823e-05
0.246716
-0.00188895
0.0965222
0.0125623
-0.00454394
0.321766
-0.0117006
0.842671
-0.0200096
1.25168
-0.0297552
1.56051
-0.0411743
1.84402
-0.0543796
2.11662
-0.0702082
2.40385
-0.0886336
2.71193
-0.108954
3.0228
-0.128594
3.31394
-0.139629
2.98403
-0.137117
2.234
-0.123306
1.68593
-0.0934401
1.2737
-0.0567451
0.954146
-0.0171822
0.681381
0.0178347
0.431018
0.0328236
0.231728
0.0242964
0.105049
0.0368587
-0.00446031
0.326226
-0.0115554
0.849766
-0.0196103
1.25973
-0.028947
1.56985
-0.0399236
1.85499
-0.0528395
2.12954
-0.0685208
2.41953
-0.087045
2.73046
-0.108192
3.04395
-0.130185
3.33593
-0.144512
2.99836
-0.147127
2.23661
-0.131082
1.66989
-0.103394
1.24601
-0.0585202
0.909272
-0.0109508
0.633811
0.0358649
0.384202
0.0438167
0.223776
0.0191444
0.129722
0.0560031
-0.00427839
0.330505
-0.0111557
0.856643
-0.0189009
1.26748
-0.0279246
1.57887
-0.0386307
1.8657
-0.051233
2.14214
-0.0666629
2.43496
-0.0851809
2.74898
-0.106616
3.06538
-0.129395
3.35871
-0.14618
3.01514
-0.151566
2.242
-0.145157
1.66348
-0.117154
1.21801
-0.0717247
0.863843
0.00195956
0.560127
0.102738
0.283424
0.185844
0.140669
0.180053
0.135514
0.236056
-0.00414835
0.334653
-0.0109881
0.863483
-0.0186933
1.27519
-0.0276492
1.58783
-0.0384349
1.87649
-0.0514595
2.15516
-0.0677852
2.45129
-0.0878544
2.76904
-0.112027
3.08955
-0.139735
3.38642
-0.162712
3.03812
-0.174918
2.2542
-0.169005
1.65757
-0.146057
1.19506
-0.0959855
0.813771
-0.0426039
0.506745
-0.0827532
0.323573
-0.359621
0.417537
-0.938289
0.714181
0.898669
-1.6009
-0.0039598
0.338613
-0.0105765
0.8701
-0.0180554
1.28266
-0.0268871
1.59666
-0.0376309
1.88723
-0.0507618
2.16829
-0.0674574
2.46798
-0.0883883
2.78998
-0.114176
3.11534
-0.144809
3.41705
-0.172796
3.06611
-0.189969
2.27138
-0.202338
1.66994
-0.192587
1.18531
-0.172796
0.79398
-0.259315
0.593265
-0.692642
0.756901
-1.43419
1.15909
-2.04374
1.32373
1.21766
-2.36274
-0.00375831
0.342371
-0.0101666
0.876508
-0.0174442
1.28994
-0.0260391
1.60525
-0.0365773
1.89777
-0.0497595
2.18148
-0.0668127
2.48503
-0.0885688
2.81173
-0.116295
3.14307
-0.15106
3.45181
-0.18515
3.1002
-0.213095
2.29932
-0.227053
1.68389
-0.224404
1.18266
-0.311475
0.881051
-0.752914
1.0347
-1.53465
1.53864
-2.1052
1.72964
-2.34575
1.56428
1.33244
-2.46053
-0.00356236
0.345933
-0.00960621
0.882552
-0.0165702
1.29691
-0.0249762
1.61366
-0.0354096
1.9082
-0.048629
2.19469
-0.0659339
2.50234
-0.0884483
2.83425
-0.117758
3.17238
-0.155603
3.48966
-0.196144
3.14074
-0.229039
2.33222
-0.262431
1.71728
-0.347706
1.26794
-0.691523
1.22487
-1.43095
1.77413
-2.02314
2.13083
-2.26383
1.97033
-2.37763
1.67808
1.39735
-2.44253
-0.00330184
0.349235
-0.0090123
0.888262
-0.0156939
1.30359
-0.0238033
1.62177
-0.034035
1.91843
-0.0472147
2.20787
-0.0647408
2.51987
-0.0879323
2.85744
-0.118964
3.20341
-0.16083
3.53153
-0.2079
3.18781
-0.254678
2.379
-0.302068
1.76467
-0.482551
1.44842
-1.08999
1.83231
-1.78211
2.46624
-2.10593
2.45465
-2.25518
2.11959
-2.33761
1.7605
1.46312
-2.40338
-0.00322922
0.352464
-0.00880678
0.89384
-0.0154177
1.3102
-0.0235961
1.62995
-0.034126
1.92896
-0.0476127
2.22136
-0.0656267
2.53788
-0.0897426
2.88155
-0.122392
3.23606
-0.167473
3.57661
-0.221749
3.24209
-0.271711
2.42896
-0.364329
1.85729
-0.750892
1.83498
-1.48554
2.56695
-1.96186
2.94256
-2.1623
2.6551
-2.26887
2.22616
-2.34594
1.83757
1.52694
-2.40977
-0.00332405
0.355788
-0.00919266
0.899708
-0.0162092
1.31721
-0.0247773
1.63852
-0.0357312
1.93992
-0.049834
2.23546
-0.0687291
2.55678
-0.0940685
2.90689
-0.128753
3.27074
-0.178047
3.6259
-0.23582
3.29986
-0.30124
2.49438
-0.491845
2.0479
-1.04429
2.38743
-1.67409
3.19675
-1.95253
3.22101
-2.10005
2.80262
-2.21421
2.34032
-2.30783
1.93119
1.58888
-2.36976
-0.00336858
0.359157
-0.00949942
0.905839
-0.0168613
1.32458
-0.0259406
1.64759
-0.0374965
1.95147
-0.0523018
2.25027
-0.0720696
2.57654
-0.0986766
2.9335
-0.135153
3.30722
-0.18752
3.67827
-0.252177
3.36452
-0.341919
2.58412
-0.622549
2.32853
-1.26031
3.02519
-1.75146
3.6879
-1.95915
3.4287
-2.09997
2.94343
-2.22413
2.46448
-2.33524
2.0423
1.64765
-2.39401
-0.0033564
0.362513
-0.00981052
0.912293
-0.017713
1.33248
-0.0272742
1.65716
-0.0392808
1.96348
-0.0547432
2.26573
-0.0754497
2.59725
-0.103308
2.96136
-0.141759
3.34567
-0.197331
3.73384
-0.265647
3.43283
-0.391497
2.70997
-0.774532
2.71156
-1.40604
3.6567
-1.76223
4.04409
-1.93608
3.60254
-2.03875
3.0461
-2.12803
2.55377
-2.1961
2.11036
1.64074
-2.18918
-0.00327731
0.365791
-0.00995631
0.918972
-0.01822
1.34074
-0.0283679
1.6673
-0.0411041
1.97622
-0.0573458
2.28197
-0.0789526
2.61886
-0.108087
2.99049
-0.148223
3.38581
-0.205611
3.79123
-0.285877
3.5131
-0.456658
2.88075
-0.90488
3.15979
-1.46001
4.21183
-1.72339
4.30747
-1.87665
3.75581
-1.97058
3.14004
-1.97304
2.55623
-1.90557
2.04289
1.60808
-1.87291
-0.00306298
0.368854
-0.0100337
0.925943
-0.0188697
1.34958
-0.0294483
1.67788
-0.0424942
1.98926
-0.0591179
2.2986
-0.0811669
2.64091
-0.110657
3.01998
-0.151248
3.4264
-0.207843
3.84782
-0.293758
3.59901
-0.498037
3.08503
-0.983586
3.64534
-1.4265
4.65474
-1.59416
4.47513
-1.66243
3.82407
-1.66769
3.14529
-1.52094
2.40948
-1.0214
1.54334
0.586681
-0.00263634
0.37149
-0.00980331
0.93311
-0.0189717
1.35875
-0.0302948
1.68921
-0.0445036
2.00347
-0.06252
2.31661
-0.0863927
2.66478
-0.118555
3.05214
-0.162958
3.4708
-0.226257
3.91112
-0.330919
3.70367
-0.584396
3.33851
-1.11918
4.18012
-1.48022
5.01579
-1.58063
4.57554
-1.57904
3.82248
-1.47675
3.04301
-1.23775
2.17048
-0.63621
0.941799
-0.0495294
-0.00212058
0.373611
-0.00932354
0.940313
-0.0191288
1.36855
-0.0311377
1.70121
-0.0460718
2.0184
-0.0652844
2.33583
-0.0910112
2.6905
-0.125774
3.08691
-0.174573
3.5196
-0.243726
3.98028
-0.365537
3.82548
-0.677561
3.65053
-1.2348
4.73736
-1.49968
5.28067
-1.55967
4.63553
-1.53904
3.80185
-1.33723
2.8412
-0.788136
1.62139
-0.111194
0.264857
-0.160723
-0.00156488
0.375176
-0.00841796
0.947166
-0.0182484
1.37838
-0.0309364
1.7139
-0.0470162
2.03448
-0.0676191
2.35643
-0.095183
2.71807
-0.132718
3.12444
-0.18487
3.57175
-0.26264
4.05805
-0.411812
3.97466
-0.780641
4.01936
-1.31488
5.2716
-1.49396
5.45975
-1.52526
4.66683
-1.4383
3.71488
-1.10677
2.50968
-0.318037
0.832651
0.0264466
-0.0796265
-0.134277
-0.000610333
0.375786
-0.00677549
0.953331
-0.0171434
1.38875
-0.0304952
1.72725
-0.0470778
2.05107
-0.0687273
2.37808
-0.0980044
2.74735
-0.137814
3.16425
-0.19295
3.62689
-0.278743
4.14384
-0.451407
4.14732
-0.88318
4.45113
-1.35705
5.74546
-1.47612
5.57882
-1.47998
4.67069
-1.26129
3.49619
-0.695537
1.94393
-0.0640222
0.201136
0.0314638
-0.175112
-0.102813
0.00071933
0.375067
-0.00421731
0.958268
-0.0143093
1.39884
-0.0282129
1.74116
-0.045696
2.06855
-0.0686113
2.40099
-0.0994729
2.77821
-0.14151
3.20629
-0.199325
3.6847
-0.294187
4.2387
-0.496043
4.34918
-0.976946
4.93203
-1.35517
6.12368
-1.42064
5.64429
-1.37795
4.628
-1.08891
3.20715
-0.331358
1.18637
0.00186898
-0.132091
0.0139032
-0.187147
-0.0889099
0.00307968
0.371987
0.000132898
0.961215
-0.0107568
1.40973
-0.02518
1.75558
-0.0426406
2.08601
-0.0663126
2.42467
-0.0983343
2.81023
-0.141915
3.24987
-0.202498
3.74529
-0.30515
4.34135
-0.52781
4.57184
-1.03367
5.43789
-1.31394
6.40396
-1.35597
5.68632
-1.22288
4.49491
-0.785514
2.76979
-0.0781505
0.47901
0.0468691
-0.257111
0.0261583
-0.166436
-0.0627516
0.00512001
0.366867
0.00370755
0.962627
-0.00529747
1.41874
-0.0189721
1.76926
-0.0369089
2.10395
-0.0614409
2.4492
-0.0943769
2.84316
-0.139254
3.29475
-0.201736
3.80777
-0.311658
4.45128
-0.566165
4.82634
-1.05666
5.92839
-1.25044
6.59774
-1.26336
5.69923
-1.0498
4.28135
-0.469184
2.18917
-0.00870796
0.0185333
0.0029962
-0.268815
0.0113169
-0.174756
-0.0514347
0.00834163
0.358525
0.00958255
0.961386
0.00223589
1.42608
-0.0108781
1.78237
-0.0285362
2.1216
-0.0529979
2.47366
-0.0859107
2.87608
-0.130733
3.33957
-0.194693
3.87173
-0.310741
4.56732
-0.580287
5.09589
-1.02892
6.37702
-1.15411
6.72293
-1.14307
5.68819
-0.891708
4.02999
-0.272816
1.57028
-0.0636555
-0.190627
-0.0355481
-0.296922
-0.0110251
-0.199279
-0.0624597
0.0120309
0.346494
0.0174344
0.955983
0.013136
1.43038
0.00250761
1.793
-0.0158319
2.13994
-0.0397299
2.49756
-0.0720215
2.90837
-0.116472
3.38402
-0.180131
3.93539
-0.298419
4.68561
-0.577863
5.37533
-0.963544
6.7627
-1.03471
6.7941
-0.971149
5.62463
-0.698926
3.75777
-0.108828
0.980181
-0.034202
-0.265253
-0.0284691
-0.302655
-0.0108948
-0.216854
-0.0733545
0.0179212
0.328573
0.0290464
0.944857
0.0273971
1.43203
0.0172881
1.80311
0.000831565
2.1564
-0.0205919
2.51898
-0.0508896
2.93867
-0.0930734
3.4262
-0.154515
3.99683
-0.27224
4.80334
-0.533368
5.63646
-0.844675
7.07401
-0.882229
6.83165
-0.78881
5.53121
-0.464968
3.43393
0.0224788
0.492734
0.0405493
-0.283323
0.024498
-0.286604
0.00720348
-0.199559
-0.066151
0.0244452
0.304128
0.0430849
0.926218
0.0469431
1.42817
0.0402468
1.8098
0.0276705
2.16898
0.00760366
2.53905
-0.0204718
2.96674
-0.0591812
3.46491
-0.116254
4.0539
-0.224908
4.91199
-0.451905
5.86346
-0.679365
7.30147
-0.724144
6.87643
-0.614857
5.42193
-0.284663
3.10374
0.0201439
0.187928
0.0298726
-0.293052
0.0359611
-0.292692
0.0195623
-0.18316
-0.0465887
0.0338129
0.270315
0.0627161
0.897314
0.0728632
1.41803
0.0701863
1.81248
0.0610514
2.17811
0.0443439
2.55576
0.0206149
2.99047
-0.0131627
3.49869
-0.0621801
4.10292
-0.152234
5.00204
-0.325112
6.03634
-0.474229
7.45058
-0.521895
6.92409
-0.444317
5.34435
-0.136754
2.79617
-0.016757
0.0679301
-0.010784
-0.299025
0.0230882
-0.326564
0.0413474
-0.20142
-0.00524126
0.0434141
0.226901
0.0854678
0.855261
0.105738
1.39776
0.110237
1.80798
0.106271
2.18208
0.0941699
2.56786
0.0768356
3.00781
0.0512982
3.52423
0.00865656
4.14556
-0.0487671
5.05947
-0.161469
6.14904
-0.240397
7.52951
-0.265888
6.94959
-0.293943
5.37241
-0.192805
2.69503
-0.332429
0.207554
-0.303209
-0.328245
-0.163739
-0.466034
-0.00688224
-0.358277
-0.0121235
0.0549082
0.171993
0.114814
0.795354
0.149035
1.36354
0.161045
1.79597
0.162818
2.1803
0.156243
2.57443
0.146556
3.01749
0.131793
3.53899
0.111629
4.16573
0.0825525
5.08854
0.0734175
6.15817
0.0596737
7.54326
-0.0115083
7.02077
-0.177001
5.5379
-0.411881
2.92991
-0.723823
0.519496
-0.708357
-0.343711
-0.512053
-0.662337
-0.234301
-0.636029
-0.246425
0.0584739
0.113519
0.144351
0.709478
0.198378
1.30951
0.224332
1.77002
0.235931
2.16871
0.237336
2.57303
0.236546
3.01828
0.234211
3.54133
0.234065
4.16587
0.241703
5.08091
0.341727
6.05815
0.451152
7.43383
0.439531
7.03239
0.348514
5.62892
-0.0353815
3.31381
-0.533307
1.01742
-0.763534
-0.113484
-0.647118
-0.778753
-0.3609
-0.922248
-0.607324
0.0510293
0.0624897
0.17409
0.586417
0.261258
1.22234
0.302935
1.72834
0.323918
2.14772
0.334957
2.56199
0.343449
3.00979
0.357514
3.52726
0.385486
4.1379
0.440951
5.02544
0.677035
5.82207
1.0262
7.08466
1.32221
6.73638
1.53497
5.41615
1.20126
3.64752
0.559993
1.65869
0.0549607
0.391548
-0.202657
-0.521135
-0.212217
-0.912688
-0.819541
0.0365711
0.0259185
0.205216
0.417771
0.323592
1.10396
0.39499
1.65694
0.432826
2.10989
0.456619
2.53819
0.473184
2.99323
0.500024
3.50042
0.553194
4.08473
0.672452
4.90618
1.03452
5.46
1.6798
6.43938
2.07356
6.34262
2.33268
5.15703
2.19763
3.78257
1.64397
2.21235
1.13264
0.902883
0.552694
0.0588099
0.183002
-0.542995
-0.63654
0.031299
-0.00538047
0.226392
0.222678
0.408913
0.921444
0.50775
1.55811
0.558794
2.05884
0.595907
2.50108
0.6232
2.96593
0.662871
3.46075
0.74065
4.00695
0.896405
4.75043
1.31286
5.04355
2.08151
5.67073
2.47986
5.94428
2.68498
4.9519
2.62471
3.84284
2.14487
2.69219
1.54192
1.50583
0.975303
0.62543
0.429134
0.00317445
-0.207406
0.0282955
-0.033676
0.181413
0.0695607
0.460635
0.642222
0.629938
1.3888
0.709323
1.97946
0.755662
2.45474
0.793999
2.92759
0.832931
3.42182
0.904456
3.93543
1.0473
4.60758
1.34366
4.74719
2.06346
4.95093
2.42149
5.58624
2.55741
4.81599
2.48857
3.91168
2.16112
3.01963
1.59916
2.06779
1.01474
1.20985
0.416961
0.600954
0.209555
0.0117049
-0.0453809
0.0964077
-0.0151421
0.403631
0.334999
0.628674
1.16376
0.736912
1.87122
0.769512
2.42214
0.779966
2.91714
0.769693
3.43209
0.764391
3.94073
0.798659
4.57331
0.87934
4.66651
1.18798
4.64228
1.41754
5.35669
1.41705
4.81648
1.34025
3.98848
1.17175
3.18813
0.874127
2.36542
0.545211
1.53876
0.228972
0.917194
0.438527
-0.00160896
-0.0437719
0.0398038
-0.0565549
0.24359
0.131212
0.470714
0.936637
0.580591
1.76134
0.619291
2.38344
0.636365
2.90007
0.633292
3.43516
0.621953
3.95207
0.622133
4.57313
0.658062
4.63058
0.838521
4.46182
1.05306
5.14215
1.05385
4.81569
0.984587
4.05774
0.857295
3.31542
0.651366
2.57135
0.396573
1.79355
0.156425
1.15734
0.594952
0.0148522
-0.0586241
0.0560877
-0.0977904
0.15226
0.0350404
0.334104
0.754792
0.435167
1.66028
0.474207
2.3444
0.488524
2.88575
0.492812
3.43087
0.486578
3.9583
0.481067
4.57864
0.488904
4.62275
0.598389
4.35234
0.752274
4.98827
0.754221
4.81374
0.685772
4.12619
0.582606
3.41859
0.437329
2.71662
0.258016
1.97287
0.0921242
1.32323
0.687076
0.034953
-0.0935772
0.0818827
-0.14472
0.112829
0.00409373
0.202513
0.665108
0.279381
1.58341
0.322871
2.30091
0.343528
2.86509
0.357991
3.41641
0.364621
3.95167
0.364495
4.57877
0.357889
4.62935
0.413638
4.29659
0.518532
4.88337
0.516399
4.81588
0.453815
4.18878
0.373261
3.49914
0.271374
2.81851
0.148863
2.09538
0.0384249
1.43367
0.725501
0.0373067
-0.130884
0.0705725
-0.177986
0.0422872
0.032379
0.0520835
0.655312
0.105195
1.5303
0.155203
2.2509
0.19376
2.82654
0.225232
3.38494
0.251427
3.92548
0.261863