/*--------------------------------*- C++ -*----------------------------------*\
| =========                 |                                                 |
| \\      /  F ield         | OpenFOAM: The Open Source CFD Toolbox           |
|  \\    /   O peration     | Version:  4.0                                   |
|   \\  /    A nd           | Web:      www.OpenFOAM.org                      |
|    \\/     M anipulation  |                                                 |
\*---------------------------------------------------------------------------*/
FoamFile
{
    version     2.0;
    format      ascii;
    class       volVectorField;
    location    "31";
    object      U;
}
// * * * * * * * * * * * * * * * * * * * * * * * * * * * * * * * * * * * * * //

dimensions      [0 1 -1 0 0 0 0];

internalField   nonuniform List<vector> 
2200
(
(0.878853 -0.0304146 0)
(1.0058 -0.0512824 0)
(1.0033 -0.0353991 0)
(1.00025 -0.0244394 0)
(0.999826 -0.0166404 0)
(1 -0.0106898 0)
(1.00002 -0.00685895 0)
(1.00003 -0.00423364 0)
(1.00006 -0.00222914 0)
(1.00016 -0.000693169 0)
(1.00007 0.000861591 0)
(1.00005 0.002461 0)
(1.00004 0.00445135 0)
(0.99996 0.00705452 0)
(0.999982 0.0107618 0)
(0.999832 0.0166553 0)
(1.00025 0.024455 0)
(1.0035 0.0351295 0)
(1.00592 0.0513435 0)
(0.878987 0.030362 0)
(0.711975 -0.0327685 0)
(0.996618 -0.0630351 0)
(1.03328 -0.0561905 0)
(1.02495 -0.0464996 0)
(1.01601 -0.0362487 0)
(1.00962 -0.0265396 0)
(1.00582 -0.0182801 0)
(1.00372 -0.0115475 0)
(1.00254 -0.00619631 0)
(1.002 -0.0016454 0)
(1.00201 0.0025664 0)
(1.00254 0.00701203 0)
(1.00366 0.012189 0)
(1.00572 0.0188126 0)
(1.00952 0.0272029 0)
(1.01587 0.0368607 0)
(1.0248 0.0471418 0)
(1.03301 0.0572718 0)
(0.996597 0.0631704 0)
(0.711737 0.0329466 0)
(0.53546 -0.0238971 0)
(0.969841 -0.0569388 0)
(1.05634 -0.0547575 0)
(1.05205 -0.048752 0)
(1.03604 -0.0404787 0)
(1.02444 -0.0324176 0)
(1.01595 -0.0240504 0)
(1.01045 -0.0161469 0)
(1.00719 -0.00895542 0)
(1.00565 -0.00245184 0)
(1.00552 0.00381135 0)
(1.00695 0.0102407 0)
(1.01019 0.017381 0)
(1.0158 0.0251747 0)
(1.02417 0.0332378 0)
(1.03579 0.0411253 0)
(1.05182 0.0491853 0)
(1.05627 0.054069 0)
(0.969252 0.0574251 0)
(0.534515 0.0239158 0)
(0.392267 -0.0136348 0)
(0.911803 -0.046394 0)
(1.0574 -0.0468562 0)
(1.06947 -0.0442698 0)
(1.05467 -0.0380366 0)
(1.03919 -0.0313425 0)
(1.0276 -0.024731 0)
(1.01912 -0.0176369 0)
(1.01379 -0.0102143 0)
(1.01118 -0.00268291 0)
(1.0111 0.00485462 0)
(1.01362 0.0122982 0)
(1.01881 0.019482 0)
(1.02694 0.0262205 0)
(1.03845 0.0325025 0)
(1.05406 0.0391009 0)
(1.06871 0.045264 0)
(1.05599 0.0477896 0)
(0.910344 0.0468054 0)
(0.390541 0.0137038 0)
(0.307569 -0.00452416 0)
(0.846427 -0.0324208 0)
(1.04929 -0.040082 0)
(1.07948 -0.0384113 0)
(1.06819 -0.0336755 0)
(1.05156 -0.0279187 0)
(1.03811 -0.0225716 0)
(1.0279 -0.0166761 0)
(1.02092 -0.0100088 0)
(1.01722 -0.00259038 0)
(1.01704 0.0052773 0)
(1.02041 0.0124457 0)
(1.02708 0.0188242 0)
(1.03724 0.0244618 0)
(1.05055 0.0296919 0)
(1.06695 0.0351619 0)
(1.0779 0.0396565 0)
(1.04739 0.0412387 0)
(0.843599 0.0328286 0)
(0.304793 0.00467493 0)
(0.264187 9.94955e-05 0)
(0.788809 -0.0200446 0)
(1.03306 -0.031369 0)
(1.08351 -0.0319956 0)
(1.07743 -0.0288403 0)
(1.06088 -0.0240487 0)
(1.04699 -0.0194923 0)
(1.03604 -0.0144675 0)
(1.0282 -0.00855665 0)
(1.02382 -0.00176789 0)
(1.02352 0.00550784 0)
(1.0274 0.0120414 0)
(1.03488 0.0175216 0)
(1.04562 0.0222721 0)
(1.05924 0.0262322 0)
(1.07569 0.0306571 0)
(1.08149 0.0334811 0)
(1.03042 0.032623 0)
(0.784528 0.0204967 0)
(0.260416 4.67869e-05 0)
(0.240339 0.00109031 0)
(0.738476 -0.0122183 0)
(1.01369 -0.0248917 0)
(1.08364 -0.026719 0)
(1.0826 -0.0246008 0)
(1.06758 -0.0206927 0)
(1.05407 -0.0168307 0)
(1.04324 -0.0123819 0)
(1.03527 -0.00710627 0)
(1.03068 -0.000948623 0)
(1.03031 0.00557322 0)
(1.03419 0.0114629 0)
(1.04171 0.0164152 0)
(1.05194 0.020323 0)
(1.06536 0.0238689 0)
(1.08008 0.0273089 0)
(1.08038 0.0288314 0)
(1.00879 0.0264951 0)
(0.731556 0.0128553 0)
(0.235227 -0.000916364 0)
(0.225941 0.000930036 0)
(0.695131 -0.00804383 0)
(0.992365 -0.0208327 0)
(1.08137 -0.0232193 0)
(1.08605 -0.0215021 0)
(1.07265 -0.0181431 0)
(1.05937 -0.0144946 0)
(1.04889 -0.010225 0)
(1.04098 -0.00532291 0)
(1.03619 0.000185778 0)
(1.03564 0.00575286 0)
(1.03942 0.0108814 0)
(1.04658 0.0151156 0)
(1.05675 0.0187084 0)
(1.0697 0.0218344 0)
(1.08242 0.0244773 0)
(1.077 0.0256114 0)
(0.986026 0.0226226 0)
(0.685985 0.00876921 0)
(0.219503 -0.000761406 0)
(0.2165 0.000610789 0)
(0.660415 -0.00556103 0)
(0.97264 -0.0173876 0)
(1.07897 -0.0199926 0)
(1.08926 -0.0184629 0)
(1.07722 -0.0155398 0)
(1.06396 -0.0122337 0)
(1.0536 -0.00834028 0)
(1.04577 -0.00383993 0)
(1.04085 0.00113016 0)
(1.04012 0.00609949 0)
(1.04373 0.0106699 0)
(1.05054 0.0144786 0)
(1.0602 0.0177514 0)
(1.07297 0.0201616 0)
(1.08431 0.0224997 0)
(1.0725 0.023318 0)
(0.962764 0.0196703 0)
(0.647443 0.00650181 0)
(0.208144 -0.000409401 0)
(0.209584 0.000359152 0)
(0.632333 -0.0038796 0)
(0.953249 -0.014383 0)
(1.07541 -0.017312 0)
(1.09206 -0.0160717 0)
(1.08134 -0.0133228 0)
(1.068 -0.00999106 0)
(1.05762 -0.00625748 0)
(1.04984 -0.00214646 0)
(1.0449 0.00235506 0)
(1.04397 0.00695559 0)
(1.04722 0.0108577 0)
(1.05381 0.0141179 0)
(1.063 0.016762 0)
(1.07579 0.0192633 0)
(1.0855 0.0210655 0)
(1.06693 0.0212409 0)
(0.940443 0.0170901 0)
(0.615844 0.00506382 0)
(0.199183 -0.000104174 0)
(0.204539 0.00014644 0)
(0.610521 -0.00270341 0)
(0.936332 -0.0115719 0)
(1.07228 -0.0145759 0)
(1.09483 -0.0136583 0)
(1.08532 -0.011226 0)
(1.07173 -0.00818694 0)
(1.06107 -0.00480827 0)
(1.0532 -0.000919305 0)
(1.04828 0.00336681 0)
(1.047 0.00779919 0)
(1.04968 0.0113513 0)
(1.05583 0.0142175 0)
(1.06553 0.0164954 0)
(1.07839 0.0185703 0)
(1.08629 0.0199107 0)
(1.06064 0.0196408 0)
(0.918823 0.0149504 0)
(0.588932 0.00411871 0)
(0.191321 0.000160258 0)
(0.200758 2.35275e-05 0)
(0.594104 -0.00173435 0)
(0.921716 -0.00904189 0)
(1.06912 -0.0120739 0)
(1.09785 -0.0112717 0)
(1.08971 -0.00897425 0)
(1.0756 -0.00605904 0)
(1.06423 -0.00289343 0)
(1.0558 0.000814982 0)
(1.05046 0.00507093 0)
(1.04875 0.009362 0)
(1.05118 0.0127508 0)
(1.0574 0.0150135 0)
(1.06719 0.0167553 0)
(1.08019 0.0178741 0)
(1.08635 0.0187917 0)
(1.05344 0.0179259 0)
(0.898586 0.0130202 0)
(0.566666 0.00350269 0)
(0.184325 0.000379367 0)
(0.198186 -3.60146e-05 0)
(0.582214 -0.000838379 0)
(0.909008 -0.00637264 0)
(1.06662 -0.00874822 0)
(1.10073 -0.00809721 0)
(1.094 -0.00598493 0)
(1.07986 -0.00330203 0)
(1.06817 -0.000359318 0)
(1.05915 0.00302336 0)
(1.0531 0.00687805 0)
(1.05101 0.0104484 0)
(1.05347 0.0132035 0)
(1.05979 0.0150076 0)
(1.06969 0.0159766 0)
(1.08235 0.0172661 0)
(1.08624 0.0175044 0)
(1.04684 0.0164741 0)
(0.880057 0.0112627 0)
(0.547998 0.00300617 0)
(0.177689 0.000475386 0)
(0.197372 -0.000134091 0)
(0.575318 0.000110676 0)
(0.900371 -0.00325758 0)
(1.06436 -0.00568112 0)
(1.10343 -0.00486305 0)
(1.09811 -0.0028515 0)
(1.08439 -0.000232569 0)
(1.07286 0.00275567 0)
(1.06379 0.00600423 0)
(1.05736 0.00941115 0)
(1.05474 0.0121517 0)
(1.05647 0.0141908 0)
(1.06206 0.0154013 0)
(1.07121 0.016437 0)
(1.08261 0.016469 0)
(1.08469 0.016359 0)
(1.03816 0.0145383 0)
(0.86201 0.00933114 0)
(0.532816 0.0025018 0)
(0.171835 0.000475868 0)
(0.197983 -0.000114024 0)
(0.573712 0.00109232 0)
(0.893231 -0.000898963 0)
(1.06333 -0.00230602 0)
(1.10598 -0.0014476 0)
(1.10165 0.000426852 0)
(1.08832 0.0028014 0)
(1.07689 0.00577976 0)
(1.06773 0.00895473 0)
(1.06081 0.0121261 0)
(1.05736 0.0145443 0)
(1.05814 0.0161117 0)
(1.0629 0.0166856 0)
(1.07113 0.0169034 0)
(1.08199 0.0163179 0)
(1.0822 0.0155908 0)
(1.03002 0.0134598 0)
(0.846429 0.00806229 0)
(0.52031 0.00227243 0)
(0.166611 0.00047522 0)
(0.200269 0.000411447 0)
(0.574887 0.00164862 0)
(0.890438 0.00208721 0)
(1.0624 0.000665331 0)
(1.10838 0.00195269 0)
(1.10476 0.0039386 0)
(1.09134 0.00646478 0)
(1.07945 0.00938428 0)
(1.06975 0.0125638 0)
(1.06228 0.0155999 0)
(1.05826 0.0177645 0)
(1.05833 0.0186657 0)
(1.06246 0.0186104 0)
(1.07053 0.0179663 0)
(1.08057 0.0168677 0)
(1.078 0.0154854 0)
(1.01958 0.0126316 0)
(0.830289 0.00717382 0)
(0.508735 0.00228845 0)
(0.161618 0.000492479 0)
(0.205271 0.000623779 0)
(0.57963 0.00253898 0)
(0.891811 0.00407078 0)
(1.06345 0.00452652 0)
(1.11113 0.00612428 0)
(1.10827 0.00823024 0)
(1.09465 0.0108056 0)
(1.08212 0.0137521 0)
(1.07146 0.0167834 0)
(1.06269 0.0194841 0)
(1.05736 0.0212325 0)
(1.05674 0.0214554 0)
(1.06065 0.0206256 0)
(1.06859 0.0191441 0)
(1.07755 0.0175418 0)
(1.07356 0.0156347 0)
(1.01089 0.0124666 0)
(0.81767 0.00703745 0)
(0.498707 0.00247255 0)
(0.156691 0.000505411 0)
(0.210915 0.000654824 0)
(0.58745 0.00340692 0)
(0.896028 0.00634603 0)
(1.06648 0.00779181 0)
(1.11516 0.0100557 0)
(1.1127 0.0127266 0)
(1.09894 0.0159686 0)
(1.08601 0.0191629 0)
(1.07466 0.0223386 0)
(1.06491 0.024862 0)
(1.05858 0.0260242 0)
(1.05652 0.0251825 0)
(1.05901 0.0234786 0)
(1.06597 0.021482 0)
(1.07374 0.0192865 0)
(1.06724 0.0165303 0)
(0.99891 0.0126581 0)
(0.801915 0.00722529 0)
(0.486901 0.00279789 0)
(0.151028 0.000538416 0)
(0.219526 0.000843538 0)
(0.601331 0.00434151 0)
(0.905671 0.0087387 0)
(1.07216 0.0114677 0)
(1.12015 0.014087 0)
(1.1182 0.0174103 0)
(1.1042 0.0208733 0)
(1.09069 0.024697 0)
(1.07843 0.0282884 0)
(1.06717 0.0309223 0)
(1.05855 0.031716 0)
(1.05484 0.0304254 0)
(1.05665 0.0279767 0)
(1.06283 0.0248247 0)
(1.06945 0.0217761 0)
(1.06103 0.0184123 0)
(0.989337 0.0141254 0)
(0.790169 0.00848304 0)
(0.475996 0.00339386 0)
(0.145053 0.000605213 0)
(0.228733 0.0011324 0)
(0.615453 0.00514924 0)
(0.917178 0.0108032 0)
(1.08013 0.0146596 0)
(1.12722 0.0184259 0)
(1.12461 0.0223716 0)
(1.10961 0.026793 0)
(1.09505 0.0313446 0)
(1.08145 0.0355273 0)
(1.06877 0.0387319 0)
(1.05877 0.0394048 0)
(1.05358 0.0374659 0)
(1.0532 0.0340485 0)
(1.05813 0.0303524 0)
(1.06351 0.0264611 0)
(1.05224 0.0221615 0)
(0.97457 0.0166565 0)
(0.770942 0.01013 0)
(0.459571 0.00418045 0)
(0.136946 0.000738296 0)
(0.242134 0.00150453 0)
(0.636367 0.00699991 0)
(0.933884 0.0142047 0)
(1.09021 0.0195302 0)
(1.13457 0.0237614 0)
(1.13174 0.0287719 0)
(1.1159 0.0339865 0)
(1.10002 0.039417 0)
(1.08451 0.0444842 0)
(1.06937 0.0480973 0)
(1.0563 0.0483596 0)
(1.04912 0.045833 0)
(1.04831 0.0418145 0)
(1.05258 0.0366865 0)
(1.05622 0.0320984 0)
(1.04267 0.0262073 0)
(0.961357 0.0197727 0)
(0.75573 0.0123193 0)
(0.444044 0.00507384 0)
(0.128273 0.000855734 0)
(0.25804 0.00200405 0)
(0.660554 0.00847673 0)
(0.953692 0.0177652 0)
(1.10347 0.0245906 0)
(1.14506 0.030443 0)
(1.141 0.0366576 0)
(1.12381 0.0430815 0)
(1.10621 0.0498854 0)
(1.08851 0.0556758 0)
(1.07085 0.0594869 0)
(1.05566 0.0593589 0)
(1.04639 0.0562755 0)
(1.04252 0.0509862 0)
(1.04467 0.0448637 0)
(1.04667 0.0390255 0)
(1.02896 0.0318101 0)
(0.940693 0.0235691 0)
(0.729044 0.0145 0)
(0.419874 0.00594807 0)
(0.116465 0.000983197 0)
(0.280147 0.00279195 0)
(0.693696 0.01217 0)
(0.980524 0.0237646 0)
(1.12047 0.0328164 0)
(1.15714 0.0396741 0)
(1.15205 0.0471469 0)
(1.13334 0.0552748 0)
(1.11366 0.063137 0)
(1.09319 0.0698036 0)
(1.07211 0.073802 0)
(1.05323 0.0730734 0)
(1.04088 0.0682222 0)
(1.03612 0.0618788 0)
(1.03662 0.0542184 0)
(1.03548 0.0464336 0)
(1.0134 0.0372954 0)
(0.920765 0.0275429 0)
(0.707492 0.0172448 0)
(0.398199 0.00702917 0)
(0.104741 0.00104144 0)
(0.310447 0.00373195 0)
(0.737113 0.0150141 0)
(1.01455 0.0310078 0)
(1.14214 0.0427898 0)
(1.17298 0.0519047 0)
(1.16546 0.0622262 0)
(1.14436 0.0715544 0)
(1.12183 0.0805994 0)
(1.09802 0.0875098 0)
(1.0733 0.0906135 0)
(1.05105 0.0882801 0)
(1.03594 0.0824422 0)
(1.0272 0.0743198 0)
(1.02442 0.0652063 0)
(1.02065 0.0556526 0)
(0.993241 0.0450099 0)
(0.892485 0.0329857 0)
(0.670541 0.0204586 0)
(0.363411 0.0079972 0)
(0.0886799 0.00114565 0)
(0.346362 0.00742669 0)
(0.792043 0.0245158 0)
(1.05712 0.0436727 0)
(1.16924 0.0589456 0)
(1.19214 0.0708838 0)
(1.18077 0.0826845 0)
(1.1563 0.0937056 0)
(1.13 0.102984 0)
(1.10196 0.109399 0)
(1.07274 0.11139 0)
(1.04661 0.10761 0)
(1.02826 0.098866 0)
(1.01801 0.0884067 0)
(1.01274 0.0771082 0)
(1.004 0.0652522 0)
(0.970514 0.0522237 0)
(0.863483 0.038447 0)
(0.639353 0.0239715 0)
(0.334117 0.00945332 0)
(0.0741585 0.00107216 0)
(0.428275 0.0112032 0)
(0.874786 0.0351545 0)
(1.11453 0.0638129 0)
(1.20326 0.0839016 0)
(1.21541 0.0967863 1.2837e-33)
(1.19803 0.11238 -5.5651e-34)
(1.16854 0.123192 0)
(1.13766 0.131662 0)
(1.105 0.136337 0)
(1.07113 0.135451 0)
(1.04041 0.127853 0)
(1.01815 0.116188 0)
(1.00365 0.103654 0)
(0.99444 0.0905475 0)
(0.982883 0.0769779 0)
(0.94327 0.0624877 0)
(0.825934 0.0459265 0)
(0.588412 0.0284499 0)
(0.284361 0.00966978 0)
(0.0529544 0.000797852 0)
(0.49761 0.0262489 1.09569e-19)
(0.970017 0.0591197 -8.21443e-20)
(1.17562 0.0965428 0)
(1.23846 0.119458 5.86718e-20)
(1.24067 0.136225 -4.7538e-20)
(1.21478 0.151767 5.87154e-34)
(1.17992 0.161121 0)
(1.14381 0.167647 2.87271e-20)
(1.1056 0.169841 -9.26681e-20)
(1.06625 0.166056 1.85614e-20)
(1.03135 0.155703 0)
(1.00612 0.14148 -4.38969e-20)
(0.989218 0.12549 -5.17054e-20)
(0.976216 0.109422 9.01576e-20)
(0.955716 0.0930278 -7.08154e-20)
(0.904161 0.0751595 0)
(0.771749 0.0555387 -2.52515e-20)
(0.522328 0.033029 0)
(0.231381 0.0122661 -1.39236e-19)
(0.0350515 0.00121062 1.64552e-19)
(0.530171 0.0542208 -1.36331e-20)
(1.02718 0.102263 2.81253e-19)
(1.22067 0.147099 -2.63823e-20)
(1.26961 0.167353 -1.68112e-19)
(1.26314 0.184753 -1.01039e-19)
(1.22956 0.198475 1.63276e-19)
(1.18929 0.205725 0)
(1.14755 0.210258 0)
(1.10373 0.209913 1.48255e-19)
(1.05877 0.202791 0)
(1.0175 0.188467 1.61625e-19)
(0.984305 0.169371 4.70975e-20)
(0.959594 0.151286 3.41815e-22)
(0.939507 0.134358 -9.80843e-20)
(0.917793 0.117913 0)
(0.86401 0.100261 0)
(0.728348 0.0746048 -4.12236e-19)
(0.485004 0.0475098 1.03179e-18)
(0.216394 0.0180009 -6.11776e-19)
(0.0308236 0.00340239 -7.22933e-19)
(0.535443 0.0770651 -2.21418e-19)
(1.06012 0.159067 7.69984e-20)
(1.25443 0.20836 3.46573e-20)
(1.29495 0.226617 2.97518e-19)
(1.28084 0.241763 1.39572e-20)
(1.24081 0.251396 -4.31595e-19)
(1.19523 0.255175 1.42087e-19)
(1.14784 0.256738 0)
(1.09833 0.253068 -3.15426e-19)
(1.04744 0.242449 2.65623e-19)
(1.00062 0.225066 -4.34905e-19)
(0.965237 0.205412 2.01454e-19)
(0.940231 0.187269 -1.25121e-19)
(0.919638 0.168923 2.8441e-19)
(0.889116 0.149587 0)
(0.829396 0.128414 -1.01898e-19)
(0.697806 0.100679 0)
(0.473547 0.062963 5.65679e-19)
(0.219151 0.0297122 -1.34308e-18)
(0.0383807 0.00476953 8.41136e-19)
(0.526087 0.10902 7.99011e-19)
(1.07506 0.216178 -3.33841e-19)
(1.2737 0.273729 -6.31449e-20)
(1.31145 0.290755 0)
(1.29227 0.303351 -2.11404e-19)
(1.24762 0.308318 2.57238e-19)
(1.1976 0.307981 -1.51997e-19)
(1.14534 0.305716 0)
(1.091 0.29791 2.24565e-19)
(1.03514 0.283247 -1.87797e-19)
(0.983321 0.261795 3.75461e-19)
(0.94177 0.239155 0)
(0.908528 0.216959 -2.66546e-19)
(0.879194 0.196371 1.51671e-19)
(0.853313 0.178603 3.73029e-19)
(0.80144 0.159764 -3.2805e-19)
(0.681189 0.129265 5.23071e-19)
(0.473025 0.0864835 -1.15786e-18)
(0.234617 0.0433445 7.31229e-19)
(0.0500005 0.00933282 -9.15225e-19)
(0.512712 0.133382 -3.96088e-19)
(1.08135 0.271222 2.89285e-19)
(1.2842 0.34042 -2.04666e-19)
(1.32018 0.356275 3.51679e-19)
(1.29729 0.366272 -2.98505e-19)
(1.2495 0.366672 8.72954e-20)
(1.19602 0.362308 3.64827e-21)
(1.13975 0.356018 -2.76601e-19)
(1.08094 0.34412 -2.37608e-19)
(1.01965 0.325699 -4.02902e-19)
(0.963181 0.301423 -8.0574e-19)
(0.9189 0.276014 -2.40794e-19)
(0.886782 0.253762 2.49592e-21)
(0.862935 0.235719 -5.07661e-19)
(0.83005 0.217108 -6.34195e-21)
(0.774142 0.192322 4.7379e-19)
(0.660096 0.15811 -1.42243e-19)
(0.469445 0.109945 -8.32757e-20)
(0.246615 0.0587851 0)
(0.059432 0.0144723 1.92862e-18)
(0.494117 0.153947 0)
(1.07287 0.320439 -6.99753e-20)
(1.28551 0.40345 -6.32374e-20)
(1.32239 0.419771 -1.23964e-20)
(1.29702 0.428258 3.09255e-19)
(1.24695 0.424756 -1.9335e-19)
(1.19076 0.416718 1.70099e-19)
(1.13123 0.406532 4.49158e-19)
(1.06879 0.390554 -1.29971e-19)
(1.00399 0.367765 2.06116e-19)
(0.944483 0.338954 4.32275e-19)
(0.896865 0.31071 5.21245e-19)
(0.859764 0.287256 -3.08279e-19)
(0.826409 0.264854 5.46633e-19)
(0.799881 0.244545 -4.30096e-19)
(0.754067 0.224215 0)
(0.652281 0.187745 -1.07457e-18)
(0.474266 0.135345 1.44711e-18)
(0.257989 0.0749373 1.07786e-19)
(0.0667226 0.0197227 -2.02162e-18)
(0.48003 0.174718 -5.24457e-21)
(1.06536 0.3697 4.28012e-19)
(1.28294 0.46502 4.71895e-19)
(1.31986 0.481661 -4.64429e-19)
(1.29235 0.488579 2.31085e-19)
(1.24065 0.481467 -1.98997e-19)
(1.18241 0.470168 3.51309e-19)
(1.12037 0.456372 -1.46919e-19)
(1.05497 0.436561 -5.37413e-19)
(0.986408 0.410091 4.04212e-22)
(0.922501 0.37886 -4.6601e-19)
(0.87317 0.348202 -5.58142e-19)
(0.837248 0.321644 3.36071e-19)
(0.812883 0.300233 -1.95797e-19)
(0.780361 0.280163 4.63844e-19)
(0.730563 0.253818 0)
(0.633195 0.216001 -6.61952e-19)
(0.469132 0.15859 9.77192e-19)
(0.263669 0.0898301 1.85398e-18)
(0.0713616 0.0246065 -2.18204e-18)
(0.465036 0.192148 6.77899e-19)
(1.05096 0.413577 -3.56369e-19)
(1.27568 0.522087 -4.16692e-19)
(1.31379 0.540058 4.93467e-19)
(1.28456 0.546215 1.13566e-20)
(1.23148 0.536179 -4.11176e-19)
(1.17162 0.521981 -1.94729e-19)
(1.10763 0.504815 -1.71305e-19)
(1.0398 0.481333 -2.95342e-19)
(0.969119 0.451299 4.71118e-19)
(0.90432 0.414864 4.81585e-19)
(0.85275 0.380959 8.89121e-19)
(0.813665 0.353454 0)
(0.77841 0.328324 5.81544e-21)
(0.753174 0.306732 -1.26029e-18)
(0.712541 0.285016 2.93453e-19)
(0.623098 0.244239 1.42141e-18)
(0.464477 0.182025 -4.18883e-19)
(0.262013 0.103413 8.7258e-19)
(0.0720715 0.0278804 -7.3178e-20)
(0.456311 0.211247 6.02514e-21)
(1.04045 0.45779 -2.80519e-19)
(1.26684 0.577501 -2.84382e-19)
(1.30508 0.596351 7.46132e-19)
(1.27422 0.601358 -6.80581e-19)
(1.22023 0.588474 4.27953e-19)
(1.15923 0.571704 2.0494e-19)
(1.0937 0.551578 5.30156e-19)
(1.02397 0.525112 6.11028e-19)
(0.950184 0.491271 -5.25504e-19)
(0.881139 0.451965 0)
(0.828154 0.415796 -3.28357e-19)
(0.790734 0.383967 3.76983e-19)
(0.765926 0.361407 4.61273e-19)
(0.734073 0.338706 -2.67274e-19)
(0.687871 0.30895 -6.44698e-19)
(0.601499 0.268484 -1.91927e-19)
(0.452121 0.199732 -1.27873e-21)
(0.254225 0.113246 0)
(0.0696449 0.0299764 0)
(0.447838 0.226906 2.45572e-19)
(1.0272 0.497489 0)
(1.2557 0.628628 -2.88432e-19)
(1.29438 0.64921 1.04521e-19)
(1.2623 0.653519 7.37046e-19)
(1.20756 0.638188 -1.95061e-19)
(1.14545 0.619145 2.13426e-19)
(1.07849 0.59642 -3.68231e-19)
(1.00645 0.566849 4.74104e-19)
(0.930253 0.52994 -1.58326e-19)
(0.860911 0.487874 2.74738e-19)
(0.807617 0.446587 1.04424e-18)
(0.767165 0.41481 1.36576e-20)
(0.732031 0.384945 -4.84829e-19)
(0.707231 0.359809 8.80941e-19)
(0.670651 0.336302 4.47263e-21)
(0.589678 0.289084 2.05338e-19)
(0.441042 0.216731 -9.78264e-19)
(0.244931 0.11995 9.9774e-19)
(0.0655196 0.0315353 -1.18633e-18)
(0.441809 0.245842 3.89217e-23)
(1.01629 0.536834 0)
(1.24404 0.677764 0)
(1.2824 0.699671 -1.26506e-19)
(1.24916 0.702877 -2.52265e-19)
(1.19382 0.685242 2.28812e-19)
(1.13099 0.664313 -4.31185e-19)
(1.06291 0.639265 0)
(0.989768 0.607623 -6.88718e-19)
(0.912923 0.568514 7.55929e-19)
(0.840676 0.521421 7.6262e-19)
(0.783098 0.477553 -3.79622e-19)
(0.742275 0.441193 -4.50191e-19)
(0.718163 0.413429 1.05096e-18)
(0.68821 0.388735 -3.1316e-19)
(0.645482 0.354133 -3.72114e-19)
(0.56549 0.308221 -2.22116e-19)
(0.423794 0.227845 -1.05218e-18)
(0.233017 0.124468 1.51971e-19)
(0.0603473 0.0318516 1.27699e-18)
(0.438139 0.264421 8.28221e-20)
(1.00493 0.572937 1.52836e-19)
(1.23128 0.723213 2.34384e-20)
(1.2695 0.746983 -3.84178e-23)
(1.23539 0.749458 -1.59558e-19)
(1.17961 0.72973 4.53241e-19)
(1.11597 0.706982 0)
(1.047 0.67988 2.15694e-19)
(0.972425 0.645739 -1.70077e-19)
(0.892184 0.602715 1.27146e-18)
(0.815988 0.552624 -1.70904e-19)
(0.758944 0.506992 1.92985e-19)
(0.720282 0.467694 0)
(0.682673 0.434485 -5.66599e-19)
(0.660263 0.404479 6.77755e-19)
(0.626561 0.377122 0)
(0.550236 0.322021 -4.78888e-19)
(0.406613 0.23837 1.40767e-18)
(0.21999 0.126857 1.65388e-19)
(0.0545537 0.0313395 -1.56907e-18)
(0.436225 0.281307 1.58996e-19)
(0.995437 0.608216 -2.0314e-19)
(1.21866 0.766565 0)
(1.25623 0.791787 -2.69376e-19)
(1.22129 0.793312 0)
(1.16509 0.771669 -5.09478e-19)
(1.10092 0.747402 0)
(1.03106 0.718581 0)
(0.954609 0.682847 -2.03423e-19)
(0.872155 0.639207 -1.2011e-18)
(0.795556 0.588685 -1.40311e-18)
(0.735571 0.536855 2.18406e-19)
(0.690265 0.493677 7.75245e-19)
(0.668649 0.458768 6.17937e-19)
(0.639873 0.429297 -2.17493e-18)
(0.599708 0.388354 -8.68221e-19)
(0.523363 0.336007 5.08428e-19)
(0.385647 0.243187 0)
(0.205789 0.12735 1.42374e-18)
(0.0486015 0.0298884 -1.68781e-18)
(0.434861 0.297075 -1.54934e-19)
(0.985511 0.64054 2.05705e-19)
(1.20575 0.806539 0)
(1.24277 0.833652 -1.04664e-20)
(1.20719 0.834667 1.22201e-19)
(1.15068 0.811341 0)
(1.0859 0.785559 1.31577e-19)
(1.01514 0.755103 1.36117e-19)
(0.937885 0.717682 -4.0546e-19)
(0.854879 0.670999 1.68846e-19)
(0.77457 0.614874 0)
(0.711075 0.561815 9.13696e-19)
(0.669781 0.516469 4.30435e-21)
(0.631633 0.476244 3.32506e-19)
(0.609788 0.439115 3.92772e-19)
(0.578809 0.407556 0)
(0.505553 0.342669 -8.30715e-19)
(0.366171 0.24779 1.63091e-18)
(0.191016 0.125962 -1.72679e-18)
(0.0428727 0.0279333 3.63062e-18)
(0.433837 0.31213 0)
(0.976966 0.672278 0)
(1.19338 0.844558 1.32535e-19)
(1.22942 0.873084 0)
(1.1932 0.873394 0)
(1.13642 0.848609 -5.33918e-19)
(1.07119 0.821647 1.38038e-19)
(0.999729 0.789759 1.72856e-20)
(0.920916 0.751158 -1.00056e-19)
(0.833925 0.704085 0)
(0.749266 0.648763 -2.0819e-19)
(0.685294 0.59123 -7.41163e-19)
(0.639116 0.539241 -8.7798e-19)
(0.615325 0.497057 -3.48296e-19)
(0.588516 0.460682 4.24735e-19)
(0.550367 0.411405 -1.00046e-18)
(0.476749 0.351519 1.78531e-18)
(0.342579 0.246821 4.86138e-21)
(0.176071 0.122832 -1.65654e-18)
(0.0375518 0.0256382 -2.44608e-19)
(0.432778 0.326843 0)
(0.968209 0.701584 1.48861e-19)
(1.18111 0.879631 -1.3125e-19)
(1.21629 0.909867 0)
(1.17953 0.909857 0)
(1.12253 0.883833 1.12485e-18)
(1.05691 0.855693 0)
(0.984788 0.822578 0)
(0.90471 0.782844 -9.04674e-19)
(0.81756 0.733777 2.14961e-19)
(0.73395 0.673865 -1.89858e-18)
(0.664991 0.615301 0)
(0.615659 0.563492 -9.45993e-19)
(0.57598 0.512839 1.11912e-20)
(0.55455 0.464969 -1.36213e-18)
(0.527172 0.425184 5.37849e-19)
(0.458157 0.34889 2.85229e-21)
(0.325061 0.245002 -1.88201e-18)
(0.163113 0.118538 8.91739e-19)
(0.0330982 0.0235638 2.6196e-19)
(0.431842 0.341117 0)
(0.960682 0.730357 1.22864e-19)
(1.16943 0.913075 -1.41111e-19)
(1.20342 0.944424 -4.39332e-19)
(1.16612 0.943815 -1.58349e-19)
(1.10902 0.916744 1.40761e-19)
(1.04313 0.887785 -1.27206e-19)
(0.970397 0.853658 1.04028e-18)
(0.889285 0.812905 9.67745e-19)
(0.799025 0.763808 1.7142e-18)
(0.708661 0.706016 1.57826e-18)
(0.634803 0.64404 2.6903e-19)
(0.584315 0.583534 1.35769e-18)
(0.556707 0.531405 8.21412e-19)
(0.53037 0.484157 9.76209e-19)
(0.495637 0.418824 -5.8611e-19)
(0.427624 0.349378 -6.88068e-19)
(0.302388 0.234565 8.06092e-19)
(0.150584 0.111753 -4.76568e-19)
(0.0317222 0.0254442 8.46448e-19)
(0.430843 0.35494 -1.26268e-19)
(0.952944 0.756729 -2.02924e-19)
(1.1579 0.943929 -7.10906e-20)
(1.19094 0.976648 1.63116e-20)
(1.15324 0.975739 4.76349e-19)
(1.09603 0.947768 -3.1973e-19)
(1.02993 0.917987 1.3227e-19)
(0.956786 0.882976 -2.12709e-20)
(0.874868 0.841775 -1.1411e-18)
(0.78393 0.791621 -1.84886e-18)
(0.693653 0.730676 1.13508e-19)
(0.618653 0.667644 0)
(0.560828 0.609182 0)
(0.51354 0.54832 -4.30925e-19)
(0.489344 0.48275 -1.58515e-18)
(0.46614 0.426336 1.26112e-18)
(0.410101 0.326602 7.50039e-19)
(0.302254 0.214958 0)
(0.158876 0.0898353 1.52e-18)
(0.0257207 0.00284865 -9.05927e-19)
(0.429973 0.368069 6.9428e-20)
(0.946168 0.782465 -5.58957e-20)
(1.14693 0.973351 1.38442e-19)
(1.1788 1.00686 2.1769e-19)
(1.14066 1.00535 1.5395e-19)
(1.08347 0.976588 -8.97133e-20)
(1.01731 0.946315 0)
(0.943905 0.910702 -1.32298e-18)
(0.861164 0.868834 1.392e-19)
(0.767685 0.818737 0)
(0.671668 0.760047 0)
(0.588745 0.696707 1.64657e-19)
(0.52699 0.630407 2.11035e-19)
(0.491436 0.566402 -4.63069e-19)
(0.459449 0.50338 1.13603e-18)
(0.424785 0.410006 -1.36658e-18)
(0.368965 0.311628 -1.60353e-18)
(0.290894 0.190304 1.41508e-18)
(0.197748 0.116604 -5.42976e-19)
(0.1164 0.0861931 3.18281e-19)
(0.428876 0.380434 -5.35184e-20)
(0.939075 0.805838 0)
(1.13614 1.00042 0)
(1.16714 1.03502 8.46898e-20)
(1.12873 1.03319 -6.85586e-20)
(1.07158 1.00372 -2.09746e-20)
(1.00543 0.972887 5.40399e-19)
(0.931806 0.936772 1.42873e-18)
(0.848232 0.89463 2.1144e-18)
(0.753837 0.844359 -1.35509e-19)
(0.657843 0.783635 2.69341e-19)
(0.574225 0.719279 -1.5045e-18)
(0.505857 0.657878 -1.44335e-18)
(0.444086 0.588388 -2.47477e-19)
(0.405188 0.500314 0)
(0.376263 0.419185 -1.1059e-20)
(0.333513 0.253278 8.69747e-19)
(0.289185 0.0905931 -1.48994e-18)
(0.248657 -0.0530563 1.14277e-18)
(0.0798749 -0.093517 9.66448e-19)
(0.427846 0.392235 1.06488e-19)
(0.932727 0.828669 3.41309e-20)
(1.12584 1.02633 6.70084e-21)
(1.15576 1.06157 -6.09896e-20)
(1.11701 1.05922 0)
(1.05993 1.0292 -6.58189e-19)
(0.993756 0.998137 -7.30288e-19)
(0.91988 0.961735 4.25294e-20)
(0.835726 0.919571 -1.12166e-18)
(0.739408 0.86941 -1.3371e-19)
(0.638093 0.81213 1.24191e-19)
(0.545836 0.751019 1.31835e-18)
(0.469937 0.683317 1.40932e-18)
(0.419634 0.608993 2.40073e-19)
(0.370879 0.533729 1.19472e-18)
(0.306357 0.401389 0)
(0.198902 0.243856 0)
(0.0283808 0.249945 1.01139e-18)
(-0.0724222 0.628843 -3.27798e-20)
(0.00280504 1.51781 -1.19904e-18)
(0.426488 0.403428 -5.26194e-20)
(0.926109 0.849488 -1.65424e-19)
(1.11569 1.05038 3.67917e-19)
(1.14478 1.08672 -3.39926e-19)
(1.10578 1.08425 9.0273e-20)
(1.04873 1.05386 -7.15772e-19)
(0.982549 1.02261 0)
(0.908492 0.98623 -1.23599e-18)
(0.823683 0.944398 0)
(0.726319 0.895321 2.0072e-18)
(0.624054 0.836533 -1.40562e-19)
(0.531995 0.774991 1.57606e-19)
(0.452479 0.715917 1.60866e-18)
(0.366391 0.648335 -5.08497e-19)
(0.280227 0.544141 -6.05022e-19)
(0.208582 0.462298 0)
(0.10234 0.556161 0)
(0.032642 1.28077 0)
(0.0759264 2.44146 -5.78705e-19)
(0.105447 2.90011 -3.51431e-19)
(0.425139 0.414092 0)
(0.920176 0.869795 0)
(1.10603 1.07345 -1.234e-19)
(1.13412 1.11046 2.95701e-19)
(1.09478 1.10774 -3.12271e-19)
(1.03779 1.07712 6.73509e-19)
(0.971556 1.04605 8.94778e-20)
(0.897332 1.00987 -6.96669e-20)
(0.811996 0.968633 1.5284e-19)
(0.712935 0.92014 -2.30596e-18)
(0.606904 0.865875 2.66051e-19)
(0.506794 0.81208 1.3212e-18)
(0.413434 0.750612 -1.6099e-18)
(0.342647 0.673775 -1.70474e-18)
(0.272224 0.608671 5.69179e-19)
(0.203276 0.731133 0)
(0.136647 1.51449 7.92932e-19)
(0.134844 2.67838 8.97181e-19)
(0.142184 3.08273 -1.0039e-18)
(0.132907 3.21972 1.09577e-18)
(0.423471 0.424138 0)
(0.913992 0.888127 -7.03983e-20)
(1.09655 1.09475 3.5301e-20)
(1.12391 1.13292 -3.0084e-19)
(1.08435 1.1303 3.27778e-19)
(1.0274 1.09962 0)
(0.961199 1.06866 0)
(0.886825 1.03289 0)
(0.80097 0.992534 9.77028e-19)
(0.701178 0.946087 1.17259e-19)
(0.593774 0.892427 0)
(0.491828 0.835619 -1.32252e-18)
(0.406322 0.784837 0)
(0.292989 0.728895 1.22351e-18)
(0.21314 0.803754 -8.24764e-19)
(0.166863 1.45088 -6.5733e-19)
(0.170436 2.66786 -1.54854e-18)
(0.190475 3.12614 -8.35063e-19)
(0.180925 3.27002 -1.21401e-18)
(0.165966 3.31075 9.59747e-19)
(0.421905 0.43348 1.43588e-20)
(0.908454 0.906006 1.53649e-20)
(1.08759 1.11521 3.40387e-20)
(1.11407 1.15408 2.58872e-19)
(1.07419 1.15144 0)
(1.01731 1.12084 0)
(0.951053 1.09034 0)
(0.876607 1.05516 8.52512e-20)
(0.790473 1.01585 -1.22475e-18)
(0.689568 0.970711 0)
(0.580192 0.921383 0)
(0.476909 0.87676 0)
(0.367363 0.827928 0)
(0.310435 0.816364 9.14774e-19)
(0.280221 1.18185 2.21204e-18)
(0.266121 2.35257 6.50602e-19)
(0.276764 3.08191 1.36739e-18)
(0.270007 3.28848 -1.09652e-18)
(0.219915 3.35572 4.11444e-19)
(0.186193 3.36828 0)
(0.420075 0.442374 -9.67668e-21)
(0.902455 0.922458 1.01658e-19)
(1.07855 1.13459 5.55195e-20)
(1.10443 1.17469 2.4408e-20)
(1.06437 1.17236 -8.70757e-20)
(1.00757 1.1419 7.83849e-19)
(0.941407 1.11174 -7.00202e-20)
(0.866905 1.07719 -1.19802e-18)
(0.780574 1.03922 0)
(0.679612 0.996957 -1.33366e-19)
(0.56813 0.949957 1.21321e-19)
(0.457859 0.900269 0)
(0.373118 0.867679 0)
(0.320285 0.994298 -1.14574e-18)
(0.288279 1.84341 1.77013e-19)
(0.283981 2.93459 -5.30774e-19)
(0.30307 3.29331 1.15145e-18)
(0.276473 3.39418 9.12122e-19)
(0.20903 3.41946 -1.39392e-18)
(0.183353 3.42825 6.97734e-19)
(0.418038 0.451381 -4.37191e-21)
(0.896523 0.940053 -6.53845e-20)
(1.06924 1.15487 -8.10747e-20)
(1.09436 1.19562 0)
(1.05407 1.19331 0)
(0.997438 1.163 -5.97765e-19)
(0.93134 1.13338 5.81367e-19)
(0.857058 1.09959 1.08061e-18)
(0.770809 1.06278 5.9919e-20)
(0.668781 1.02187 1.87523e-18)
(0.558258 0.978611 -1.96152e-18)
(0.45283 0.942541 0)
(0.375085 0.953009 0)
(0.347399 1.34911 -8.21148e-19)
(0.350206 2.46009 -9.65742e-19)
(0.391686 3.19928 0)
(0.417383 3.37879 -1.36975e-18)
(0.347311 3.44328 -7.55141e-20)
(0.274359 3.48749 9.91865e-19)
(0.25042 3.5133 -4.21238e-19)
(0.415361 0.460805 -1.29468e-21)
(0.88932 0.957561 2.34918e-20)
(1.05887 1.17566 0)
(1.08352 1.21764 0)
(1.0432 1.21556 0)
(0.986815 1.18522 0)
(0.92107 1.15582 -6.35761e-19)
(0.847023 1.12249 1.11028e-18)
(0.760952 1.08703 0)
(0.660261 1.04933 -1.71424e-18)
(0.548437 1.01049 3.55875e-18)
(0.439193 0.977225 1.39481e-19)
(0.381882 1.05654 1.72988e-19)
(0.392355 1.73069 1.36957e-18)
(0.416738 2.88632 -7.85857e-19)
(0.454493 3.32685 0)
(0.436341 3.45568 4.18943e-19)
(0.348455 3.5436 9.63011e-20)
(0.267402 3.61067 1.67264e-20)
(0.19175 3.59041 2.18722e-19)
(0.412374 0.470445 5.04125e-21)
(0.881902 0.977034 -8.40734e-21)
(1.04782 1.19802 0)
(1.07183 1.24036 5.19187e-20)
(1.03141 1.2381 -2.46571e-19)
(0.975393 1.20772 0)
(0.909977 1.17868 0)
(0.836554 1.14605 -1.99451e-18)
(0.751104 1.11156 -1.27218e-19)
(0.64954 1.07508 1.78547e-18)
(0.537912 1.03827 -1.71238e-18)
(0.453052 1.02601 9.48945e-19)
(0.421145 1.24283 0)
(0.444969 2.1632 -7.41842e-19)
(0.485448 3.14311 4.62334e-19)
(0.544007 3.43416 3.71521e-19)
(0.537917 3.53384 0)
(0.471238 3.62255 7.21138e-20)
(0.397213 3.6664 -1.91432e-19)
(0.314544 3.6372 -2.83431e-20)