/*--------------------------------*- C++ -*----------------------------------*\
| =========                 |                                                 |
| \\      /  F ield         | OpenFOAM: The Open Source CFD Toolbox           |
|  \\    /   O peration     | Version:  4.0                                   |
|   \\  /    A nd           | Web:      www.OpenFOAM.org                      |
|    \\/     M anipulation  |                                                 |
\*---------------------------------------------------------------------------*/
FoamFile
{
    version     2.0;
    format      ascii;
    class       surfaceScalarField;
    location    "22";
    object      phi;
}
// * * * * * * * * * * * * * * * * * * * * * * * * * * * * * * * * * * * * * //

dimensions      [0 3 -1 0 0 0 0];

internalField   nonuniform List<scalar> 
17370
(
-0.0916065
0.0960095
0.284608
-0.0775946
0.0594192
0.364951
-0.0430392
0.0316166
0.427591
-0.0223088
0.0162521
0.505308
-0.0116539
0.00877449
0.602282
-0.00655596
0.00506668
0.720547
-0.00383294
0.00296281
0.863777
-0.00220539
0.00164215
1.03601
-0.00112689
0.000719557
1.24291
-0.000320022
-5.55721e-05
1.49157
0.000430082
-0.000837896
1.4916
0.00124216
-0.00175146
1.2432
0.00230826
-0.00305793
1.03639
0.00392037
-0.00514492
0.864131
0.0066251
-0.0088334
0.721266
0.011703
-0.0162894
0.603801
0.0223349
-0.0316309
0.508735
0.0430411
-0.0594136
0.432541
0.0775911
-0.0960062
0.365191
0.0916158
0.197395
-0.127093
0.0880275
0.0390652
-0.364356
0.354033
-0.0714683
0.0817921
-0.446651
0.454255
-0.0791607
0.0715563
-0.521004
0.529113
-0.0636978
0.055589
-0.612977
0.620757
-0.0481947
0.0404154
-0.727152
0.733673
-0.0337956
0.0272747
-0.867582
0.872414
-0.0220813
0.0172493
-1.03857
1.04187
-0.0135753
0.0102711
-1.24471
1.24707
-0.00775585
0.00539262
-1.49282
1.4948
-0.00346454
0.00148351
-1.49267
1.49447
0.000315038
-0.00211665
-1.2441
1.246
0.00407257
-0.00597208
-1.03761
1.0401
0.00830059
-0.0107818
-0.866202
0.86984
0.0140472
-0.0176849
-0.724605
0.729766
0.0224774
-0.0276385
-0.609066
0.615655
0.0341272
-0.0407161
-0.515125
0.522482
0.0484585
-0.0558153
-0.439877
0.447686
0.0638718
-0.0716808
-0.374724
0.377368
0.0792157
-0.0818595
-0.256927
0.22449
0.0715209
-0.0390843
-0.0688171
0.0592123
0.00960487
-0.0520718
0.0588949
-0.374841
0.368018
-0.0580463
0.0542044
-0.453949
0.45779
-0.0487167
0.0441523
-0.52762
0.532184
-0.0395958
0.0356908
-0.620794
0.624699
-0.0314682
0.0274743
-0.734627
0.738621
-0.0231377
0.0192869
-0.873906
0.877756
-0.0152983
0.0118969
-1.04331
1.04671
-0.00844
0.00546631
-1.24858
1.25156
-0.00232929
-0.000589786
-1.49687
1.49979
0.00349519
-0.00659633
-1.49736
1.50047
0.00951981
-0.0129094
-1.25004
1.25343
0.0162447
-0.0201585
-1.04564
1.04955
0.0239428
-0.0282091
-0.877146
0.881412
0.0321376
-0.0362887
-0.739027
0.743178
0.0401348
-0.0446363
-0.62603
0.630531
0.0491574
-0.0546029
-0.535069
0.540515
0.0583957
-0.0591879
-0.458133
0.458926
0.0522863
-0.0319715
-0.336853
0.316538
0.00964333
-0.0687227
0.0590794
-0.0534327
0.0493359
0.00409679
-0.033148
0.0435374
-0.358585
0.348196
-0.0471928
0.0466035
-0.459566
0.460155
-0.0436856
0.0404922
-0.536103
0.539296
-0.036836
0.0334969
-0.628361
0.6317
-0.0298789
0.0266585
-0.741999
0.745219
-0.0232291
0.0200712
-0.881265
0.884423
-0.0165455
0.0132663
-1.05012
1.0534
-0.00966042
0.00634441
-1.25477
1.25809
-0.00265344
-0.000876022
-1.50307
1.5066
0.00438332
-0.0080209
-1.5039
1.50753
0.0112659
-0.0147781
-1.25697
1.26048
0.0179617
-0.0213777
-1.05328
1.0567
0.0244371
-0.0277618
-0.885061
0.888386
0.0308896
-0.0344122
-0.746884
0.750407
0.0376682
-0.0412379
-0.634651
0.638221
0.0443585
-0.0471979
-0.54466
0.5475
0.0477086
-0.0439468
-0.457084
0.453322
0.033429
-0.0162477
-0.297319
0.280138
0.00413866
-0.0532621
0.0491235
-0.0461829
0.0436517
0.00253116
-0.0228698
0.0331448
-0.337652
0.327377
-0.0388219
0.0397345
-0.459926
0.459013
-0.0384446
0.0360832
-0.541954
0.544316
-0.0334112
0.0308639
-0.634632
0.63718
-0.027926
0.0251498
-0.748243
0.751019
-0.0220205
0.0191245
-0.887422
0.890318
-0.0159051
0.0128979
-1.05651
1.05951
-0.00948603
0.00622145
-1.2614
1.26467
-0.00245418
-0.00120888
-1.51026
1.51393
0.00484734
-0.00854134
-1.51125
1.51495
0.0117084
-0.0149937
-1.26387
1.26716
0.0178728
-0.0209444
-1.05987
1.06294
0.0237018
-0.0266798
-0.89156
0.894538
0.0293244
-0.0321303
-0.753594
0.7564
0.0345658
-0.0371255
-0.641223
0.643783
0.0393936
-0.0405639
-0.54941
0.550581
0.0395302
-0.0336822
-0.448313
0.442465
0.0232238
-0.0101838
-0.265113
0.252073
0.00258264
-0.0459233
0.0433406
-0.0415619
0.0397987
0.00176321
-0.0166374
0.0257805
-0.317604
0.308461
-0.0322838
0.0343886
-0.457462
0.455357
-0.0339943
0.0323609
-0.546318
0.547951
-0.0302021
0.0281154
-0.639454
0.641541
-0.0257071
0.0233644
-0.75356
0.755903
-0.0206131
0.0179495
-0.893105
0.895769
-0.0148847
0.0119837
-1.06248
1.06538
-0.00868594
0.0055528
-1.26787
1.271
-0.00194095
-0.00157944
-1.51752
1.52104
0.00506732
-0.00858528
-1.51856
1.52208
0.0115917
-0.0147181
-1.27037
1.2735
0.0174495
-0.0203244
-1.06593
1.0688
0.0228139
-0.0253793
-0.897318
0.899884
0.0275574
-0.029796
-0.758883
0.761122
0.0317342
-0.0337439
-0.646046
0.648055
0.0352426
-0.0354776
-0.551218
0.551453
0.0331947
-0.0264512
-0.436055
0.429311
0.01707
-0.00720081
-0.24075
0.230881
0.00182544
-0.0411941
0.0393686
-0.0382967
0.0370098
0.0012869
-0.0124114
0.0201266
-0.300026
0.292311
-0.026648
0.0294391
-0.452849
0.450058
-0.0295969
0.0284712
-0.549302
0.550428
-0.0265335
0.0246886
-0.643479
0.645324
-0.0226039
0.0206043
-0.758064
0.760063
-0.0182871
0.0160276
-0.89824
0.900499
-0.0133743
0.0107753
-1.06815
1.07075
-0.00773462
0.00478271
-1.27405
1.27701
-0.00133263
-0.00205536
-1.52451
1.5279
0.00539885
-0.0087214
-1.52551
1.52883
0.0115083
-0.0143313
-1.2765
1.27932
0.0167133
-0.0191154
-1.07147
1.07387
0.0211427
-0.0232097
-0.902193
0.90426
0.0249948
-0.0268611
-0.763157
0.765023
0.0285218
-0.0302802
-0.649891
0.65165
0.0312155
-0.0308393
-0.551354
0.550978
0.0277978
-0.0209532
-0.422443
0.415598
0.0129381
-0.00536787
-0.222254
0.214684
0.00136292
-0.0377978
0.0364349
-0.035899
0.0349422
0.000956785
-0.00933593
0.0156746
-0.285291
0.278952
-0.0218136
0.0249971
-0.447046
0.443862
-0.0256979
0.0250017
-0.551335
0.552031
-0.023279
0.0215707
-0.647117
0.648825
-0.0196544
0.0178605
-0.761955
0.763749
-0.0158076
0.013808
-0.902599
0.904598
-0.0114494
0.00912103
-1.07319
1.07552
-0.00636968
0.00366197
-1.27983
1.28254
-0.00048668
-0.00260504
-1.53114
1.53423
0.00564458
-0.00865545
-1.532
1.53501
0.011145
-0.0136119
-1.28196
1.28443
0.0156562
-0.0176971
-1.07606
1.07811
0.0194093
-0.0211606
-0.906154
0.907905
0.02269
-0.0243337
-0.766769
0.768412
0.0258143
-0.027295
-0.653317
0.654798
0.0277493
-0.0267457
-0.550307
0.549303
0.0232279
-0.0166772
-0.408862
0.402311
0.00997257
-0.00410081
-0.208015
0.202143
0.00104945
-0.0352413
0.0341919
-0.0341284
0.0334447
0.000683686
-0.00682713
0.011821
-0.273296
0.268302
-0.017226
0.0205023
-0.440584
0.437308
-0.0217289
0.0214353
-0.552525
0.552818
-0.0202177
0.0188213
-0.65039
0.651786
-0.0171587
0.0155232
-0.765467
0.767102
-0.013593
0.0117006
-0.906541
0.908433
-0.00948818
0.00733767
-1.07775
1.0799
-0.00482304
0.00237511
-1.28512
1.28756
0.000489153
-0.0032791
-1.53718
1.53997
0.00600114
-0.00866303
-1.53786
1.54052
0.0108375
-0.012994
-1.28675
1.2889
0.014791
-0.0166008
-1.08002
1.08183
0.0181302
-0.0196872
-0.909539
0.911096
0.0209978
-0.0223137
-0.769905
0.771221
0.02341
-0.0243089
-0.655995
0.656894
0.0242894
-0.0226614
-0.547962
0.546334
0.0189521
-0.0130352
-0.39604
0.390123
0.00759875
-0.00310058
-0.196999
0.192501
0.00079733
-0.0332776
0.0324802
-0.0328699
0.0323958
0.000474141
-0.00480074
0.00857415
-0.263929
0.260155
-0.0130409
0.0160682
-0.434117
0.43109
-0.0174891
0.0174283
-0.552967
0.553028
-0.0165053
0.0152911
-0.653068
0.654282
-0.0138167
0.0123895
-0.768677
0.770104
-0.0107279
0.00909728
-0.910239
0.911869
-0.00717123
0.00527816
-1.08193
1.08382
-0.00305389
0.000877764
-1.28986
1.29203
0.00166709
-0.00414612
-1.54258
1.54506
0.00653388
-0.00881102
-1.54299
1.54526
0.0106323
-0.0124073
-1.29088
1.29265
0.0138527
-0.0152695
-1.0835
1.08491
0.0164404
-0.0176109
-0.912522
0.913693
0.01861
-0.0196438
-0.772383
0.773417
0.0204867
-0.0209829
-0.657552
0.658048
0.0206386
-0.0187024
-0.544503
0.542567
0.0151352
-0.0100455
-0.384604
0.379514
0.00573941
-0.00233946
-0.188574
0.185174
0.000615125
-0.0317823
0.0311672
-0.0320224
0.0317572
0.000265235
-0.00286136
0.00545331
-0.256973
0.254381
-0.00889976
0.0115078
-0.428267
0.425659
-0.0129252
0.0129921
-0.553056
0.552989
-0.0122756
0.0112405
-0.655455
0.65649
-0.0100492
0.00893728
-0.771402
0.772514
-0.00765073
0.00634612
-0.913317
0.914621
-0.00474976
0.00313746
-1.08552
1.08714
-0.00119077
-0.000737063
-1.29405
1.29597
0.00300462
-0.0051859
-1.54738
1.54956
0.00725063
-0.00917464
-1.54737
1.54929
0.0106485
-0.0120098
-1.2942
1.29557
0.0130445
-0.0139667
-1.08605
1.08697
0.0146736
-0.0153685
-0.91458
0.915275
0.0159765
-0.0166505
-0.774286
0.77496
0.0172451
-0.0174199
-0.658423
0.658598
0.0168283
-0.0147418
-0.540577
0.53849
0.011451
-0.00724232
-0.374869
0.370661
0.0040085
-0.00162413
-0.182298
0.179914
0.000440097
-0.0306437
0.0302036
-0.0315972
0.031528
6.91966e-05
-0.00121023
0.00274376
-0.252343
0.250809
-0.00519787
0.00741662
-0.42324
0.421021
-0.0089839
0.00943552
-0.552771
0.55232
-0.00918987
0.0085295
-0.657352
0.658013
-0.00761697
0.00668467
-0.773563
0.774496
-0.00552418
0.00430134
-0.915877
0.9171
-0.00277527
0.00121161
-1.08866
1.09022
0.000665868
-0.00249328
-1.29779
1.29962
0.00458156
-0.00652194
-1.55158
1.55352
0.00832811
-0.00998756
-1.55111
1.55277
0.0112525
-0.0124167
-1.2968
1.29796
0.0132747
-0.0140266
-1.0878
1.08855
0.0145332
-0.0149313
-0.91581
0.916208
0.0151838
-0.0153625
-0.775349
0.775528
0.0153868
-0.0149049
-0.658465
0.657983
0.0137458
-0.011329
-0.536255
0.533838
0.00828575
-0.00492825
-0.366887
0.36353
0.00262338
-0.00104621
-0.177985
0.176408
0.000285521
-0.0298577
0.0295722
-0.0315369
0.0316029
-6.59745e-05
-0.000136848
0.000855244
-0.249724
0.249006
-0.00232158
0.00392318
-0.419086
0.417485
-0.00533454
0.00596512
-0.551725
0.551095
-0.00597626
0.00557161
-0.65853
0.658935
-0.00487386
0.00406989
-0.775433
0.776237
-0.00299899
0.0018338
-0.918291
0.919456
-0.000358855
-0.00113162
-1.09167
1.09316
0.00287889
-0.00456704
-1.30134
1.30303
0.00647423
-0.0082304
-1.55537
1.55713
0.0098034
-0.0111475
-1.55432
1.55566
0.0120688
-0.0128187
-1.29898
1.29973
0.013297
-0.0136186
-1.08912
1.08944
0.0138182
-0.0139327
-0.916474
0.916588
0.0139781
-0.0139118
-0.775482
0.775416
0.0135897
-0.0127093
-0.657232
0.656352
0.0112281
-0.00879399
-0.531386
0.528952
0.00619466
-0.00360985
-0.360605
0.358021
0.00191676
-0.000763121
-0.175114
0.173961
0.000204211
-0.0293537
0.0291495
-0.031715
0.0318496
-0.000134622
0.000377795
-0.000104125
-0.248563
0.248289
-0.000650413
0.00156218
-0.416268
0.415357
-0.00240501
0.00274207
-0.550576
0.550239
-0.00263372
0.00223001
-0.659304
0.659708
-0.00151517
0.000735194
-0.777119
0.777899
0.000301231
-0.00143482
-0.920576
0.92171
0.00282165
-0.00417261
-1.09449
1.09584
0.00572185
-0.00718007
-1.30453
1.30599
0.00881706
-0.0102988
-1.5587
1.56019
0.0115489
-0.0125081
-1.55685
1.55781
0.0130788
-0.01347
-1.30031
1.30071
0.0136745
-0.0137263
-1.08964
1.0897
0.013641
-0.013456
-0.91647
0.916285
0.0132048
-0.012847
-0.775128
0.77477
0.0123134
-0.0113329
-0.655388
0.654407
0.00989304
-0.00773655
-0.526712
0.524555
0.00554885
-0.00336675
-0.355743
0.353561
0.00186016
-0.000761683
-0.172901
0.171803
0.000204376
-0.0289746
0.0287702
-0.0320056
0.0321794
-0.000173777
0.000669892
-0.000596572
-0.248155
0.248082
0.000160531
0.000354
-0.414725
0.41421
-0.000704438
0.000637477
-0.550107
0.550174
-0.000103642
-0.000617498
-0.660252
0.660973
0.00150375
-0.00236353
-0.778873
0.779733
0.00342719
-0.00452519
-0.922755
0.923853
0.00586174
-0.00716262
-1.09701
1.09831
0.00865736
-0.0100522
-1.30729
1.30869
0.011563
-0.01285
-1.5615
1.56278
0.0138672
-0.0145593
-1.55862
1.55932
0.0148564
-0.0149188
-1.301
1.30106
0.0148134
-0.0146115
-1.08966
1.08945
0.0143462
-0.0139792
-0.915943
0.915576
0.0135726
-0.0130226
-0.774176
0.773626
0.0124048
-0.0114567
-0.653397
0.652449
0.0101335
-0.00810775
-0.52261
0.520584
0.00596794
-0.00373173
-0.351476
0.34924
0.00211802
-0.000894247
-0.170693
0.169469
0.000247862
-0.0285708
0.028323
-0.0323717
0.0325828
-0.000211105
0.00100065
-0.00111597
-0.248101
0.248216
0.000805765
-0.000305211
-0.413785
0.413285
-4.18201e-05
-6.90964e-05
-0.550299
0.55041
0.000658774
-0.00150586
-0.661865
0.662712
0.00254989
-0.00357799
-0.78085
0.781878
0.00486491
-0.00623029
-0.924949
0.926315
0.00784239
-0.0094007
-1.09956
1.10111
0.0111914
-0.0128508
-1.31007
1.31173
0.0146132
-0.0160743
-1.56404
1.5655
0.0172024
-0.0179637
-1.55999
1.56075
0.0182628
-0.0182471
-1.30109
1.30107
0.0179852
-0.0174553
-1.08904
1.08851
0.016891
-0.0163166
-0.915119
0.914545
0.0158027
-0.0152414
-0.772985
0.772423
0.0146031
-0.0134724
-0.651435
0.650304
0.0117936
-0.00928312
-0.518508
0.515998
0.0067462
-0.0042072
-0.34695
0.344411
0.00241759
-0.00105244
-0.16822
0.166855
0.000305091
-0.0280719
0.0277668
-0.0328275
0.0331059
-0.000278379
0.00153863
-0.00197116
-0.248452
0.248885
0.0019206
-0.00140101
-0.412818
0.412298
0.000673178
-0.000466151
-0.550372
0.550165
0.0007101
-0.00124462
-0.663489
0.664024
0.00220371
-0.00339373
-0.783202
0.784392
0.00505098
-0.00681653
-0.927738
0.929503
0.00897279
-0.0110988
-1.1028
1.10492
0.0135421
-0.0158054
-1.31358
1.31584
0.0182117
-0.020228
-1.56715
1.56916
0.0218354
-0.0229989
-1.56167
1.56283
0.0235956
-0.0238379
-1.3012
1.30144
0.0237941
-0.0235159
-1.08801
1.08773
0.0230326
-0.0222125
-0.913705
0.912884
0.0213139
-0.0202207
-0.77161
0.770517
0.0187542
-0.0165512
-0.648797
0.646594
0.0138323
-0.0103896
-0.513191
0.509748
0.00736027
-0.00458551
-0.341845
0.33907
0.00268474
-0.00120712
-0.165497
0.164019
0.000363537
-0.0274666
0.0271031
-0.0334379
0.0338204
-0.000382503
0.00230697
-0.00322179
-0.249525
0.25044
0.00373569
-0.00353726
-0.411921
0.411722
0.00269328
-0.00188918
-0.549605
0.548801
0.00167599
-0.00199373
-0.664529
0.664847
0.00277197
-0.00400372
-0.785762
0.786994
0.00596344
-0.0082094
-0.931323
0.933569
0.0110156
-0.0137742
-1.10724
1.10999
0.0169183
-0.0198002
-1.31833
1.32121
0.0228613
-0.0254306
-1.57142
1.57399
0.0274899
-0.0290199
-1.5642
1.56573
0.0298442
-0.0302767
-1.30186
1.3023
0.0303
-0.0299624
-1.08737
1.08703
0.0292941
-0.0282489
-0.911792
0.910747
0.026957
-0.0249315
-0.768921
0.766895
0.0223144
-0.0187724
-0.64379
0.640248
0.0150626
-0.0109913
-0.506111
0.50204
0.00776366
-0.00493818
-0.336395
0.33357
0.00297115
-0.00137186
-0.162569
0.16097
0.000422053
-0.0267531
0.026331
-0.0342733
0.034796
-0.000522702
0.00328661
-0.00481051
-0.251658
0.253182
0.00610954
-0.00664217
-0.411903
0.412436
0.00631939
-0.0056176
-0.548087
0.547385
0.00498243
-0.00507366
-0.665077
0.665168
0.00591814
-0.00739868
-0.788396
0.789877
0.00980809
-0.0124735
-0.935853
0.938518
0.0157469
-0.0189275
-1.11282
1.116
0.0225002
-0.0257204
-1.32418
1.3274
0.0290739
-0.0318094
-1.57663
1.57936
0.0338879
-0.0352972
-1.56725
1.56866
0.0359365
-0.0360632
-1.30268
1.3028
0.0357379
-0.0349737
-1.0864
1.08564
0.0339368
-0.0323593
-0.909316
0.907739
0.0302906
-0.0272593
-0.764203
0.761172
0.0238846
-0.0196278
-0.636345
0.632088
0.0156034
-0.0114951
-0.498139
0.49403
0.008329
-0.00548719
-0.33093
0.328088
0.00338882
-0.00159058
-0.159385
0.157587
0.000493127
-0.0259268
0.0254337
-0.0354067
0.0361237
-0.000717047
0.00450597
-0.00674663
-0.255073
0.257313
0.00897501
-0.0104424
-0.413418
0.414886
0.0111634
-0.0112607
-0.547351
0.547448
0.0112551
-0.0116718
-0.665412
0.665829
0.0129534
-0.0148479
-0.791484
0.793378
0.017544
-0.0204079
-0.941032
0.943896
0.0238573
-0.0271556
-1.11907
1.12237
0.0307978
-0.034002
-1.33052
1.33372
0.0372016
-0.0396302
-1.58191
1.58434
0.0412532
-0.0420526
-1.56976
1.57056
0.0420571
-0.0414027
-1.30262
1.30196
0.0403301
-0.0387626
-1.08441
1.08284
0.0369706
-0.0344888
-0.905505
0.903023
0.0317428
-0.028202
-0.757657
0.754116
0.024559
-0.0203001
-0.627874
0.623615
0.0164501
-0.0125447
-0.490333
0.486428
0.00941119
-0.00638168
-0.325424
0.322394
0.00400154
-0.00188923
-0.155774
0.153661
0.000584465
-0.0249626
0.0243781
-0.0369234
0.0378848
-0.000961325
0.00600785
-0.00906557
-0.259918
0.262976
0.0122938
-0.0147694
-0.416919
0.419395
0.0166517
-0.0178589
-0.548624
0.549831
0.0190406
-0.0204189
-0.666893
0.668271
0.0225165
-0.0249412
-0.795234
0.797659
0.0280447
-0.0311621
-0.946552
0.94967
0.0347783
-0.0381304
-1.12546
1.12881
0.0417043
-0.0446958
-1.33668
1.33967
0.0474459
-0.049233
-1.58637
1.58816
0.0500369
-0.0498465
-1.57086
1.57067
0.0489019
-0.0471945
-1.3008
1.29909
0.0451987
-0.0426255
-1.08065
1.07808
0.0399375
-0.0367004
-0.899911
0.896674
0.0335004
-0.0297522
-0.750227
0.746479
0.0261371
-0.0220766
-0.619542
0.615482
0.0184051
-0.0145161
-0.482951
0.479062
0.0111563
-0.00769876
-0.319489
0.316032
0.00487052
-0.00230261
-0.151498
0.14893
0.000710629
-0.0238166
0.023106
-0.0389326
0.0402372
-0.00130465
0.00804796
-0.0121301
-0.266391
0.270473
0.0164926
-0.0199898
-0.422581
0.426078
0.0230058
-0.0252975
-0.552268
0.554559
0.0277024
-0.0302394
-0.670417
0.672954
0.0334557
-0.0367175
-0.80014
0.803402
0.0405432
-0.0441524
-0.952651
0.95626
0.0481248
-0.0516269
-1.13195
1.13546
0.0551509
-0.0578756
-1.34234
1.34506
0.0600567
-0.0610448
-1.58944
1.59043
0.0608508
-0.0594797
-1.56983
1.56846
0.0574484
-0.0546173
-1.29679
1.29396
0.0516377
-0.0480499
-1.07488
1.0713
0.044585
-0.0406952
-0.892853
0.888964
0.0370956
-0.0331294
-0.742332
0.738366
0.0294675
-0.0254148
-0.611492
0.60744
0.0216576
-0.0174544
-0.475509
0.471306
0.0135818
-0.00945553
-0.312658
0.308531
0.00599997
-0.0028269
-0.146307
0.143134
0.000866916
-0.0224332
0.0215662
-0.0416264
0.0434469
-0.00182054
0.0109777
-0.0164089
-0.274912
0.280343
0.0221229
-0.0267261
-0.430524
0.435127
0.030877
-0.0342681
-0.558331
0.561722
0.0380087
-0.0418015
-0.676284
0.680077
0.0463173
-0.0506234
-0.806751
0.811057
0.0554037
-0.0596907
-0.959797
0.964084
0.0641766
-0.0679177
-1.13876
1.1425
0.0714311
-0.0738796
-1.34743
1.34988
0.0754425
-0.0755605
-1.59084
1.59096
0.0742957
-0.0716955
-1.5664
1.5638
0.068548
-0.064536
-1.29049
1.28648
0.0605392
-0.0559621
-1.0671
1.06253
0.0517295
-0.0471422
-0.884446
0.879859
0.0430467
-0.0386809
-0.733837
0.729471
0.0347342
-0.030365
-0.603219
0.59885
0.0262009
-0.0213551
-0.467295
0.46245
0.0167154
-0.0115984
-0.304486
0.299369
0.00729454
-0.00339972
-0.139949
0.136054
0.00102794
-0.0207529
0.019725
-0.0453189
0.0479602
-0.00264132
0.0154424
-0.0227429
-0.28614
0.29344
0.0301924
-0.0361091
-0.441181
0.447098
0.0415601
-0.0461794
-0.566973
0.571592
0.0514291
-0.0566228
-0.684653
0.689847
0.0625825
-0.0680397
-0.815449
0.820906
0.073863
-0.0788802
-0.968317
0.973334
0.0838947
-0.0878473
-1.14602
1.14997
0.0912729
-0.0933409
-1.35189
1.35395
0.0941463
-0.0932584
-1.59041
1.58953
0.0908017
-0.0868753
-1.56045
1.55653
0.0825451
-0.0772933
-1.28179
1.27654
0.0722452
-0.0666262
-1.05731
1.05169
0.0615485
-0.056149
-0.874547
0.869148
0.0514154
-0.0464437
-0.724343
0.719371
0.0419764
-0.0369873
-0.594064
0.589075
0.0321195
-0.0262919
-0.457663
0.451835
0.0205885
-0.0142468
-0.2944
0.288058
0.00890872
-0.00411427
-0.132172
0.127378
0.00122968
-0.0187547
0.017525
-0.0505914
0.0546687
-0.00407729
0.0227011
-0.0326909
-0.301228
0.311218
0.0424962
-0.0500926
-0.455339
0.462936
0.0570615
-0.0631498
-0.578586
0.584675
0.0702194
-0.0769801
-0.695782
0.702543
0.0844375
-0.0910071
-0.82639
0.83296
0.0977604
-0.103346
-0.978217
0.983802
0.108653
-0.112564
-1.15357
1.15748
0.115594
-0.116989
-1.35542
1.35682
0.116725
-0.114569
-1.58781
1.58566
0.110702
-0.105272
-1.55174
1.54631
0.0996404
-0.0930531
-1.27055
1.26396
0.0868816
-0.0801301
-1.04537
1.03861
0.0741071
-0.0677656
-0.862899
0.856558
0.062253
-0.0564964
-0.7134
0.707644
0.0513158
-0.0454415
-0.583398
0.577524
0.039595
-0.0324661
-0.445935
0.438806
0.0254024
-0.0175083
-0.281914
0.27402
0.0108599
-0.0049462
-0.122685
0.116771
0.00144987
-0.0163822
0.0149324
-0.058536
0.0657386
-0.00720252
0.0361542
-0.0502972
-0.322378
0.336521
0.0635139
-0.0731066
-0.474162
0.483755
0.0816257
-0.089329
-0.593778
0.601481
0.0983362
-0.106485
-0.709801
0.71795
0.115031
-0.122239
-0.839321
0.846529
0.129339
-0.13492
-0.988975
0.994557
0.139889
-0.143179
-1.16075
1.16404
0.145225
-0.145428
-1.35735
1.35755
0.143601
-0.139768
-1.58244
1.57861
0.134184
-0.127028
-1.53987
1.53271
0.119943
-0.111908
-1.25656
1.24853
0.104523
-0.0965537
-1.0311
1.02313
0.0895061
-0.0821349
-0.849263
0.841892
0.0757493
-0.0690878
-0.700643
0.693981
0.0630781
-0.0561631
-0.570677
0.563762
0.0490266
-0.0402038
-0.431382
0.42256
0.0313935
-0.021563
-0.266311
0.256481
0.0132772
-0.00596114
-0.111175
0.103859
0.00168901
-0.0136211
0.0119321
-0.0726095
0.0762902
-0.00368074
0.0263167
-0.0386245
-0.353576
0.365883
0.0500367
-0.0589437
-0.498401
0.507308
0.067937
-0.0773947
-0.612478
0.621936
0.0880406
-0.0975505
-0.725761
0.735271
0.10812
-0.117454
-0.852961
0.862295
0.127139
-0.135447
-0.99919
1.0075
0.143707
-0.150317
-1.16621
1.17282
0.156191
-0.160021
-1.35651
1.36034
0.162037
-0.161373
-1.57345
1.57279
0.157905
-0.152041
-1.52436
1.51849
0.145156
-0.136437
-1.23957
1.23085
0.127959
-0.117844
-1.01435
1.00423
0.108677
-0.098745
-0.83351
0.823578
0.0899939
-0.0807464
-0.685877
0.676629
0.0720775
-0.0623662
-0.555376
0.545665
0.0524895
-0.0403552
-0.413151
0.401016
0.0291688
-0.0179586
-0.246637
0.235427
0.00972961
-0.00370402
-0.097182
0.0911565
0.000809479
-0.0105535
0.00974401
-0.0833558
0.0808925
0.00246325
0.00423143
-0.0117594
-0.381168
0.388696
0.0202603
-0.0271967
-0.520943
0.52788
0.0355553
-0.0438644
-0.632628
0.640937
0.0535133
-0.0622979
-0.744668
0.753452
0.0716271
-0.0800785
-0.871159
0.879611
0.0888552
-0.0960982
-1.01552
1.02276
0.103499
-0.109087
-1.17925
1.18483
0.113984
-0.116846
-1.36386
1.36672
0.117619
-0.115966
-1.57124
1.56959
0.1116
-0.104949
-1.51169
1.50504
0.0973049
-0.0879526
-1.22149
1.21214
0.0790069
-0.0688357
-0.993628
0.983456
0.059386
-0.0490111
-0.812325
0.80195
0.0398892
-0.0307203
-0.664465
0.655296
0.0229734
-0.0150428
-0.532849
0.524919
0.00814834
-0.0019793
-0.388087
0.381918
-0.00155264
0.00337545
-0.223558
0.221735
-0.00347878
0.00231387
-0.0844568
0.0856217
-0.000970795
-0.00837439
0.00934519
-0.0837003
0.0805857
0.00311456
-0.00420396
0.000461378
-0.399294
0.403037
0.00499113
-0.0104235
-0.538765
0.544197
0.0174411
-0.0246232
-0.650043
0.657225
0.0328691
-0.0404289
-0.76172
0.76928
0.0486878
-0.056019
-0.887434
0.894765
0.0634191
-0.0698867
-1.02987
1.03633
0.0763199
-0.081287
-1.19004
1.19501
0.0852402
-0.0873349
-1.36899
1.37108
0.0877123
-0.0856692
-1.56732
1.56527
0.0811186
-0.0745052
-1.49787
1.49126
0.0671458
-0.0584568
-1.20278
1.19409
0.0498784
-0.0404668
-0.973031
0.96362
0.0317829
-0.0223204
-0.7916
0.782137
0.0142061
-0.00599344
-0.644567
0.636355
-0.000634853
0.00697327
-0.514268
0.50793
-0.0114377
0.0140272
-0.373644
0.371055
-0.0137152
0.0112846
-0.216794
0.219224
-0.00805218
0.00425614
-0.0853901
0.0891861
-0.00146576
-0.00942463
0.0108904
-0.081911
0.0789496
0.00296145
-0.00715104
0.00567253
-0.41077
0.412249
-0.00244778
-0.00173912
-0.552576
0.556763
0.0079582
-0.013976
-0.664543
0.670561
0.0210224
-0.027528
-0.776578
0.783084
0.0346033
-0.0409131
-0.901698
0.908008
0.047674
-0.0532189
-1.04245
1.048
0.0589408
-0.062948
-1.19966
1.20367
0.0664485
-0.0682796
-1.37307
1.3749
0.0684101
-0.0661818
-1.56298
1.56075
0.0620692
-0.056177
-1.48435
1.47846
0.0496224
-0.0416211
-1.18549
1.17749
0.0341118
-0.0259417
-0.954233
0.946063
0.0183236
-0.0103765
-0.772847
0.7649
0.00323343
0.00372943
-0.626988
0.620025
-0.00921874
0.0138874
-0.499381
0.494712
-0.0167035
0.0177883
-0.365504
0.364419
-0.0161745
0.0123053
-0.21783
0.221699
-0.00851547
0.00430184
-0.0909206
0.0951342
-0.00141194
-0.0114203
0.0128323
-0.0800539
0.0775465
0.00250748
-0.00769308
0.00755671
-0.418248
0.418384
-0.00505756
0.00180429
-0.563916
0.56717
0.0032081
-0.00859791
-0.676815
0.682205
0.0145484
-0.0203001
-0.789185
0.794936
0.0264535
-0.0319727
-0.913999
0.919518
0.0378421
-0.0428729
-1.05349
1.05852
0.0478404
-0.0516857
-1.20766
1.2115
0.054856
-0.0565336
-1.37652
1.3782
0.0567043
-0.0547473
-1.55856
1.55661
0.051133
-0.0457904
-1.47216
1.46682
0.0400871
-0.0333182
-1.16981
1.16304
0.026913
-0.0198507
-0.938016
0.930954
0.0135176
-0.00684429
-0.757015
0.750342
0.00110183
0.00453129
-0.612554
0.606921
-0.00877383
0.0121922
-0.487988
0.48457
-0.0141726
0.0146398
-0.360371
0.359904
-0.0129085
0.00967172
-0.221157
0.224394
-0.00657882
0.00326142
-0.0966652
0.0999826
-0.00110104
-0.0132784
0.0143795
-0.0785092
0.0764141
0.00209508
-0.00718229
0.00732803
-0.423248
0.423102
-0.00586994
0.0030982
-0.572823
0.575595
0.00155536
-0.00618386
-0.687306
0.691935
0.0113724
-0.016425
-0.800142
0.805195
0.021952
-0.0269492
-0.924818
0.929816
0.0324098
-0.0369178
-1.06337
1.06788
0.0415237
-0.0451377
-1.21517
1.21879
0.0481219
-0.0497577
-1.37976
1.3814
0.0500285
-0.0487251
-1.55474
1.55343
0.045577
-0.0410592
-1.46131
1.45679
0.0360663
-0.0301814
-1.15636
1.15047
0.0248877
-0.0187682
-0.924096
0.917976
0.0133863
-0.00791265
-0.743882
0.738409
0.00317834
0.00142194
-0.601094
0.596494
-0.00487234
0.00771575
-0.479385
0.476541
-0.00895379
0.00917079
-0.35677
0.356553
-0.00813614
0.00585775
-0.223385
0.225663
-0.00382002
0.00190246
-0.100419
0.102337
-0.000658952
-0.0144796
0.0151386
-0.0774189
0.0758096
0.00160933
-0.00604435
0.00636694
-0.426939
0.426616
-0.00504283
0.00287715
-0.580735
0.582901
0.00133392
-0.00553881
-0.696501
0.700706
0.0105046
-0.0149179
-0.810047
0.81446
0.0198442
-0.0243516
-0.934891
0.939398
0.0296215
-0.0338198
-1.0725
1.07669
0.0380467
-0.0416082
-1.22231
1.22588
0.0449217
-0.0466216
-1.38316
1.38486
0.0472379
-0.0462122
-1.5519
1.55087
0.0438236
-0.0396673
-1.45225
1.44809
0.035424
-0.0303792
-1.14461
1.13956
0.0256398
-0.0204891
-0.912063
0.906912
0.015784
-0.0108735
-0.732863
0.727952
0.00699045
-0.00289787
-0.591552
0.587459
-0.00027187
0.00265291
-0.472208
0.469827
-0.00394921
0.00453813
-0.353768
0.35318
-0.00414017
0.0029842
-0.22406
0.225216
-0.00192698
0.00101236
-0.101884
0.102798
-0.000405691
-0.0149161
0.0153218
-0.0768819
0.075625
0.00125694
-0.00482665
0.00517261
-0.429892
0.429546
-0.00385281
0.00176571
-0.587691
0.589778
0.00212097
-0.00591102
-0.704844
0.708634
0.0102295
-0.0145275
-0.818972
0.82327
0.0191427
-0.0238333
-0.943814
0.948505
0.0284647
-0.0325571
-1.08106
1.08515
0.0370057
-0.0404389
-1.2294
1.23284
0.0434332
-0.0456879
-1.38657
1.38882
0.0466779
-0.0461454
-1.55
1.54946
0.0441468
-0.0407821
-1.44421
1.44085
0.0370484
-0.0325029
-1.13432
1.12977
0.0282629
-0.0235469
-0.901661
0.896945
0.0192788
-0.0149604
-0.723112
0.718794
0.011141
-0.007455
-0.583046
0.57936
0.00460562
-0.00205973
-0.466016
0.46347
0.000488729
0.000286896
-0.350221
0.349445
-0.000630016
0.000635688
-0.222997
0.222992
-0.000545039
0.000387641
-0.101546
0.101703
-0.000236103
-0.0148835
0.0151196
-0.0768844
0.0758333
0.00105116
-0.0034976
0.00363224
-0.432641
0.432507
-0.00250552
0.000358424
-0.594082
0.596229
0.00326811
-0.00695768
-0.712649
0.716338
0.0111284
-0.0150672
-0.827488
0.831427
0.0198331
-0.023803
-0.952719
0.956689
0.0284528
-0.0324255
-1.08946
1.09343
0.0368359
-0.0405398
-1.23632
1.24003
0.0439199
-0.0460815
-1.39092
1.39308
0.0475423
-0.0475232
-1.54893
1.54891
0.0462406
-0.0432436
-1.43738
1.43439
0.0399571
-0.0357884
-1.12531
1.12114
0.0318753
-0.0273801
-0.891982
0.887487
0.0234386
-0.0192275
-0.714194
0.709983
0.0155843
-0.0119478
-0.57528
0.571644
0.00899085
-0.00651353
-0.459823
0.457346
0.00459993
-0.00333156
-0.346034
0.344766
0.00226048
-0.00133159
-0.220365
0.219436
0.000618066
-3.14104e-05
-0.0997654
0.0991787
-0.000127571
-0.0144311
0.0145587
-0.0771523
0.0764203
0.00073201
-0.00232538
0.00206487
-0.435599
0.435859
-0.00109219
-0.00125296
-0.599676
0.602021
0.00451587
-0.00807374
-0.719981
0.723538
0.0120872
-0.0161691
-0.835337
0.839419
0.0203732
-0.0245274
-0.960925
0.965079
0.0291787
-0.0329928
-1.09787
1.10169
0.0375464
-0.0412684
-1.2436
1.24732
0.044785
-0.0475421
-1.3957
1.39846
0.04957
-0.0499061
-1.54898
1.54931
0.0489212
-0.0466174
-1.43155
1.42924
0.0438027
-0.039889
-1.11678
1.11287
0.036093
-0.0319397
-0.882849
0.878696
0.0277525
-0.0237353
-0.705427
0.70141
0.0201099
-0.0163532
-0.567789
0.564032
0.0134137
-0.0105588
-0.453485
0.45063
0.00835594
-0.00637356
-0.341194
0.339211
0.00480535
-0.00309341
-0.216346
0.214635
0.00161386
-0.000461023
-0.0968609
0.095708
-2.38526e-06
-0.013698
0.0137004
-0.0778225
0.0772319
0.000590573
-0.00137653
0.001176
-0.438779
0.43898
0.00030726
-0.00257662
-0.605347
0.607616
0.00595476
-0.00937687
-0.72683
0.730252
0.0132467
-0.0169576
-0.843264
0.846975
0.0213027
-0.0251741
-0.969294
0.973166
0.0298024
-0.0340665
-1.10599
1.11025
0.0383108
-0.0423968
-1.25113
1.25522
0.0463805
-0.0492898
-1.40117
1.40408
0.0517591
-0.0529272
-1.54991
1.55108
0.0524151
-0.0507095
-1.42681
1.4251
0.0480364
-0.0444523
-1.1089
1.10531
0.0409206
-0.0367644
-0.874066
0.86991
0.0327558
-0.0286246
-0.696822
0.692691
0.0249175
-0.0209518
-0.559922
0.555956
0.0177015
-0.0145896
-0.446769
0.443657
0.0118126
-0.0092461
-0.335248
0.332681
0.00702411
-0.00463747
-0.210965
0.208578
0.00263824
-0.000967886
-0.0930688
0.0913985
0.000163488
-0.012781
0.0126175
-0.0787293
0.0783
0.000429306
-0.000392259
7.00906e-05
-0.442139
0.442461
0.00148806
-0.00394998
-0.610727
0.613189
0.0072083
-0.0104657
-0.733436
0.736694
0.0144168
-0.0179906
-0.850729
0.854303
0.0221989
-0.0262013
-0.977547
0.981549
0.0307516
-0.0350006
-1.11441
1.11866
0.0394866
-0.0436298
-1.25927
1.26341
0.0478409
-0.05153
-1.40732
1.41101
0.0544963
-0.0560099
-1.55223
1.55374
0.0562137
-0.0548314
-1.42329
1.42191
0.0526638
-0.0494947
-1.1016
1.09843
0.0458941
-0.0417792
-0.865349
0.861234
0.0377767
-0.0334309
-0.68811
0.683764
0.0296799
-0.0254842