/*--------------------------------*- C++ -*----------------------------------*\
| =========                 |                                                 |
| \\      /  F ield         | OpenFOAM: The Open Source CFD Toolbox           |
|  \\    /   O peration     | Version:  4.0                                   |
|   \\  /    A nd           | Web:      www.OpenFOAM.org                      |
|    \\/     M anipulation  |                                                 |
\*---------------------------------------------------------------------------*/
FoamFile
{
    version     2.0;
    format      ascii;
    class       volScalarField;
    location    "40";
    object      p;
}
// * * * * * * * * * * * * * * * * * * * * * * * * * * * * * * * * * * * * * //

dimensions      [0 2 -2 0 0 0 0];

internalField   nonuniform List<scalar> 
2200
(
0.796293
0.774792
0.758881
0.743208
0.728592
0.71606
0.705689
0.697563
0.691837
0.688827
0.689251
0.693016
0.699292
0.70781
0.718459
0.731199
0.745962
0.761836
0.777854
0.799358
0.728717
0.725457
0.722531
0.718411
0.712941
0.706459
0.699831
0.693849
0.689306
0.686848
0.687264
0.690513
0.695644
0.702062
0.709011
0.715733
0.721374
0.725491
0.728372
0.731713
0.688839
0.689058
0.691107
0.692436
0.69281
0.691939
0.689933
0.687231
0.684649
0.68311
0.683588
0.685964
0.689187
0.692372
0.694691
0.695703
0.695428
0.694376
0.69266
0.692418
0.666367
0.667817
0.670407
0.672853
0.675289
0.677295
0.678427
0.678631
0.67822
0.677882
0.678438
0.679721
0.68085
0.68118
0.680455
0.678752
0.676565
0.674345
0.671748
0.670334
0.652027
0.653996
0.656815
0.659653
0.662505
0.665319
0.667758
0.669587
0.67076
0.671486
0.672128
0.672509
0.672199
0.671025
0.669113
0.666692
0.664106
0.661365
0.658574
0.656645
0.644779
0.646376
0.648573
0.651088
0.653729
0.656361
0.658912
0.661285
0.663238
0.664646
0.665401
0.665325
0.66441
0.662827
0.660869
0.658692
0.656341
0.65399
0.651884
0.650306
0.641456
0.64248
0.643741
0.645585
0.647703
0.649838
0.651981
0.654203
0.656346
0.658089
0.658986
0.658871
0.657976
0.656691
0.655234
0.65362
0.651879
0.650273
0.649142
0.648126
0.638854
0.639524
0.64015
0.641445
0.643048
0.644714
0.646423
0.648282
0.650248
0.652088
0.653179
0.653326
0.652884
0.652153
0.651283
0.650246
0.649123
0.648148
0.647675
0.647003
0.635724
0.636166
0.636564
0.63756
0.638817
0.640178
0.641624
0.643202
0.644916
0.646704
0.648036
0.648647
0.648771
0.648591
0.648194
0.647626
0.64696
0.646365
0.646145
0.645687
0.631871
0.632168
0.632524
0.633393
0.634498
0.635751
0.637141
0.638663
0.640326
0.642133
0.643768
0.644889
0.645477
0.645687
0.645597
0.645303
0.644896
0.644489
0.644323
0.644008
0.627372
0.627577
0.627952
0.62878
0.629867
0.631163
0.632672
0.63437
0.636242
0.638304
0.640314
0.641839
0.642755
0.643177
0.643274
0.643153
0.642892
0.642595
0.642438
0.642211
0.622336
0.622475
0.622853
0.623699
0.624884
0.626347
0.628064
0.630018
0.63222
0.634688
0.637149
0.639052
0.640249
0.640885
0.641129
0.64116
0.641011
0.64082
0.640689
0.64052
0.61703
0.617122
0.617495
0.618335
0.619592
0.62121
0.623165
0.625448
0.628083
0.631075
0.634111
0.636513
0.638053
0.638946
0.639375
0.639494
0.639513
0.639459
0.639372
0.639242
0.611466
0.611521
0.611905
0.61275
0.614062
0.615802
0.61798
0.620657
0.623863
0.627577
0.631298
0.634209
0.636135
0.637345
0.638079
0.638461
0.638689
0.638759
0.63872
0.638604
0.605402
0.605431
0.60584
0.606726
0.608176
0.610098
0.612514
0.615551
0.619348
0.62386
0.628402
0.631977
0.634474
0.636199
0.637377
0.638134
0.63856
0.638753
0.638763
0.638649
0.598774
0.59869
0.599142
0.600116
0.601769
0.603931
0.606628
0.610035
0.614338
0.619648
0.625237
0.629876
0.63326
0.635711
0.637413
0.638487
0.639111
0.639434
0.639495
0.639392
0.591501
0.591491
0.591874
0.592913
0.594804
0.597272
0.600408
0.604369
0.609417
0.615729
0.622622
0.628554
0.632957
0.636085
0.638253
0.639698
0.64061
0.641077
0.641189
0.641094
0.583312
0.583312
0.583737
0.584936
0.587146
0.590049
0.593851
0.598772
0.605008
0.612746
0.62116
0.628335
0.633646
0.637486
0.640203
0.642061
0.643249
0.643855
0.644022
0.643927
0.573849
0.573784
0.574332
0.575835
0.578388
0.581875
0.586562
0.592676
0.600483
0.610115
0.620345
0.628922
0.635263
0.639887
0.643246
0.645607
0.647109
0.64789
0.648125
0.648022
0.562627
0.562518
0.563149
0.56495
0.568031
0.572246
0.577896
0.585299
0.594838
0.606629
0.619133
0.62961
0.637481
0.643281
0.647504
0.650443
0.652346
0.653336
0.653636
0.653509
0.549337
0.549202
0.549906
0.551955
0.555575
0.560683
0.567604
0.576664
0.588286
0.602636
0.617884
0.630717
0.640327
0.64747
0.65273
0.65652
0.65898
0.660225
0.660601
0.660439
0.532785
0.532691
0.533643
0.536162
0.540669
0.547121
0.555874
0.567302
0.581773
0.599296
0.617591
0.632928
0.644424
0.653089
0.659514
0.664142
0.667169
0.668658
0.669087
0.668875
0.511992
0.511827
0.513117
0.516518
0.522472
0.530999
0.542456
0.55719
0.575353
0.596727
0.618512
0.636547
0.650065
0.660206
0.667755
0.673257
0.676849
0.678564
0.679037
0.67877
0.484683
0.484701
0.486782
0.49159
0.499848
0.511548
0.526812
0.545772
0.5684
0.594322
0.620166
0.641232
0.656938
0.668754
0.677593
0.68398
0.688084
0.689987
0.690475
0.690157
0.447972
0.448253
0.451827
0.459543
0.471719
0.488255
0.508705
0.532986
0.560913
0.592007
0.62231
0.646723
0.66487
0.678507
0.688747
0.696196
0.700864
0.702928
0.703404
0.703002
0.398534
0.398974
0.40604
0.419015
0.437616
0.461223
0.48857
0.51946
0.553621
0.590496
0.62561
0.653481
0.674081
0.689646
0.701438
0.709917
0.715014
0.717079
0.717398
0.716986
0.332615
0.335535
0.350843
0.372241
0.399773
0.432105
0.467527
0.505922
0.54708
0.59044
0.630955
0.662916
0.68672
0.704828
0.718519
0.728525
0.73441
0.736582
0.736719
0.736517
0.257421
0.267115
0.292663
0.323976
0.361611
0.402965
0.446555
0.492741
0.541309
0.591684
0.638349
0.675289
0.70285
0.723967
0.740298
0.752085
0.758901
0.760974
0.760984
0.761092
0.190374
0.205381
0.237372
0.277393
0.324506
0.374741
0.426317
0.480224
0.536083
0.593259
0.645833
0.687296
0.718434
0.742296
0.760452
0.773668
0.781257
0.784193
0.78473
0.784734
0.139451
0.152911
0.190227
0.236208
0.290537
0.348148
0.407121
0.468319
0.53111
0.594935
0.653073
0.698729
0.732775
0.758757
0.778579
0.793343
0.801378
0.804637
0.805144
0.805218
0.0974166
0.110019
0.150968
0.200851
0.260607
0.324061
0.389437
0.457135
0.526251
0.596091
0.659375
0.708933
0.745562
0.773313
0.794258
0.809731
0.818414
0.822007
0.822633
0.82275
0.0613101
0.0741471
0.11756
0.1703
0.234336
0.302481
0.373231
0.446511
0.521228
0.596731
0.66527
0.718083
0.756723
0.785774
0.807569
0.823288
0.832355
0.836272
0.837054
0.837162
0.0297116
0.0427118
0.0881174
0.14339
0.210965
0.282993
0.358286
0.436442
0.516326
0.597229
0.669822
0.725451
0.765967
0.796087
0.818199
0.834115
0.843715
0.847872
0.848837
0.848926
0.00137361
0.0144094
0.0614978
0.119108
0.189705
0.265044
0.344263
0.42666
0.511023
0.59627
0.672853
0.73153
0.773453
0.804328
0.82711
0.843288
0.853242
0.857672
0.858745
0.858815
-0.0244605
-0.0114743
0.0368918
0.09674
0.169967
0.248178
0.330762
0.416791
0.5052
0.594911
0.675946
0.73674
0.780107
0.811889
0.835082
0.851468
0.861732
0.866172
0.86732
0.867217
-0.0486995
-0.0353848
0.0137815
0.0757179
0.151271
0.232018
0.317562
0.4069
0.499146
0.592989
0.677177
0.740949
0.786211
0.81866
0.842418
0.858935
0.868859
0.873439
0.874486
0.874312
-0.0714558
-0.0579352
-0.0080721
0.0556871
0.133256
0.216305
0.30452
0.39684
0.492364
0.589765
0.678029
0.745305
0.791817
0.825255
0.849064
0.865577
0.875487
0.879887
0.881046
0.880933
-0.0929053
-0.0794351
-0.0288702
0.0364435
0.115728
0.200838
0.291412
0.3863
0.484811
0.586027
0.678571
0.748303
0.797209
0.831592
0.855644
0.872106
0.88184
0.886173
0.887193
0.887118
-0.113507
-0.0998593
-0.04878
0.0178077
0.0985366
0.185464
0.278135
0.375416
0.476884
0.581627
0.677787
0.751101
0.802537
0.837994
0.862464
0.87871
0.888239
0.892289
0.893265
0.893156
-0.133733
-0.119487
-0.0680048
-0.00032747
0.0816274
0.170155
0.26474
0.364277
0.46845
0.57639
0.676406
0.753603
0.807545
0.844773
0.869741
0.885691
0.89461
0.89838
0.899106
0.898986
-0.153629
-0.138543
-0.0867063
-0.0180584
0.0649549
0.154919
0.251261
0.352833
0.459345
0.570164
0.673918
0.75499
0.812393
0.851942
0.87775
0.893247
0.901314
0.904208
0.904705
0.904542
-0.173081
-0.157234
-0.104966
-0.0353892
0.0485587
0.139781
0.237662
0.341008
0.449596
0.563159
0.670705
0.75571
0.816914
0.85943
0.886844
0.901984
0.908438
0.909855
0.90985
0.909716
-0.191945
-0.175534
-0.122777
-0.0523108
0.0324632
0.124752
0.223924
0.328833
0.439417
0.555548
0.666029
0.755027
0.820627
0.867261
0.897345
0.912709
0.917091
0.915048
0.914342
0.91512
-0.210195
-0.19337
-0.140085
-0.0687867
0.0167117
0.109883
0.210138
0.316445
0.428816
0.546944
0.659918
0.753248
0.82361
0.875003
0.909238
0.926267
0.9291
0.922826
0.917391
0.91561
-0.227797
-0.210625
-0.156824
-0.0847819
0.00134868
0.0952554
0.196411
0.303885
0.417683
0.537472
0.652936
0.749801
0.82483
0.882278
0.922312
0.943464
0.948999
0.936669
0.934342
0.938718
-0.244762
-0.22724
-0.172937
-0.100241
-0.0135595
0.0809555
0.182834
0.29121
0.406119
0.527412
0.644952
0.744546
0.824421
0.887899
0.935446
0.96398
0.975679
0.948522
0.905928
0.867542
-0.261023
-0.243222
-0.188457
-0.115225
-0.0281017
0.0668688
0.169253
0.278249
0.393989
0.516501
0.635518
0.737274
0.820907
0.890722
0.947249
0.987064
1.01342
1.00316
1.02001
1.07508
-0.27654
-0.258624
-0.203478
-0.129865
-0.0424538
0.05277
0.155404
0.264713
0.380926
0.504185
0.624214
0.727316
0.813469
0.88798
0.949337
0.993017
1.01278
0.998491
0.960842
0.973127
-0.291284
-0.273417
-0.217955
-0.144112
-0.0565428
0.0387565
0.141429
0.250786
0.367097
0.490569
0.610969
0.714282
0.800349
0.8753
0.936335
0.978073
0.9729
0.924047
0.86237
0.85086
-0.305252
-0.287598
-0.231893
-0.157972
-0.0703754
0.0248289
0.127353
0.236509
0.352528
0.475644
0.595692
0.698013
0.78158
0.851162
0.905644
0.919984
0.888439
0.815078
0.742173
0.723246
-0.318477
-0.301156
-0.245303
-0.171469
-0.0839776
0.0109737
0.113176
0.221886
0.337239
0.459425
0.578267
0.678254
0.75601
0.813282
0.843254
0.83375
0.781143
0.68137
0.595108
0.574835
-0.331414
-0.314504
-0.258584
-0.184975
-0.0977066
-0.00312723
0.0986134
0.206672
0.321049
0.441764
0.558495
0.65468
0.725404
0.766556
0.762429
0.729711
0.623133
0.502465
0.396206
0.370729
-0.344962
-0.328425
-0.27243
-0.199114
-0.11214
-0.017965
0.0832399
0.190513
0.303673
0.422393
0.536032
0.627102
0.690117
0.708136
0.674376
0.589596
0.435255
0.283968
0.156138
0.129861
-0.359647
-0.343342
-0.287171
-0.214124
-0.12746
-0.0336766
0.0669542
0.173343
0.285086
0.401362
0.511034
0.596631
0.648287
0.639231
0.58574
0.438183
0.238612
0.0262318
-0.15351
-0.200651
-0.375571
-0.359332
-0.302858
-0.230027
-0.143645
-0.050233
0.0497889
0.155201
0.265357
0.37881
0.483495
0.563657
0.600497
0.559892
0.472586
0.284422
0.0516921
-0.238521
-0.56156
-0.707323
-0.392817
-0.376506
-0.319614
-0.246909
-0.160743
-0.067693
0.0316783
0.136013
0.244428
0.354775
0.453571
0.52769
0.547416
0.475795
0.339569
0.131921
-0.10528
-0.452584
-1.04449
-1.61911
-0.411451
-0.394933
-0.337499
-0.264824
-0.178775
-0.086045
0.0126722
0.115886
0.222494
0.32966
0.422512
0.488967
0.491024
0.401058
0.210192
-0.0269147
-0.23396
-0.47398
-1.03971
-2.57747
-0.431485
-0.414713
-0.356623
-0.283899
-0.197892
-0.105482
-0.00746329
0.094539
0.199196
0.303038
0.389978
0.447147
0.429869
0.34221
0.115132
-0.127874
-0.279708
-0.321174
-0.317195
-0.710394
-0.452833
-0.435952
-0.377137
-0.304424
-0.218498
-0.126495
-0.0293282
0.0712504
0.173654
0.273619
0.355113
0.402104
0.368981
0.293636
0.063591
-0.144227
-0.258718
-0.268602
-0.216982
-0.258437
-0.475394
-0.458557
-0.399053
-0.326458
-0.240651
-0.149193
-0.0530647
0.0458516
0.145619
0.241108
0.317983
0.35526
0.314996
0.241642
0.0301982
-0.136301
-0.220179
-0.227808
-0.275526
-0.281357
-0.499102
-0.482292
-0.422255
-0.349989
-0.264348
-0.173591
-0.0787011
0.0183096
0.115128
0.206018
0.278359
0.306305
0.267678
0.1813
0.00228637
-0.126626
-0.199769
-0.172292
-0.194349
-0.196114
-0.523774
-0.50677
-0.446678
-0.374924
-0.289411
-0.199587
-0.106134
-0.0112346
0.082343
0.168686
0.236474
0.254233
0.225666
0.113909
-0.0324307
-0.121552
-0.166756
-0.208793
-0.185225
-0.193242
-0.549009
-0.531657
-0.472136
-0.401058
-0.315631
-0.227013
-0.135173
-0.0425591
0.047408
0.129439
0.19306
0.200885
0.183253
0.0518022
-0.0701855
-0.1372
-0.123077
-0.182302
-0.160232
-0.165395
-0.574116
-0.556549
-0.498488
-0.428011
-0.342635
-0.255584
-0.165487
-0.0752863
0.0106335
0.0887448
0.149766
0.149483
0.132319
-0.00190934
-0.100834
-0.155817
-0.136836
-0.159621
-0.163138
-0.162791
-0.598528
-0.581157
-0.524847
-0.455022
-0.370106
-0.284922
-0.196651
-0.108974
-0.0273938
0.046886
0.106381
0.101252
0.0763078
-0.0472585
-0.117664
-0.152885
-0.179439
-0.162126
-0.168073
-0.164446
-0.621451
-0.604792
-0.550272
-0.481302
-0.397606
-0.314431
-0.228053
-0.142986
-0.0657549
0.00428426
0.0631852
0.0560056
0.0203714
-0.0858381
-0.138068
-0.134613
-0.195233
-0.158244
-0.167255
-0.16091
-0.642017
-0.626473
-0.5737
-0.505844
-0.424714
-0.343324
-0.258952
-0.176585
-0.10334
-0.0384534
0.0196776
0.0120617
-0.0300569
-0.10659
-0.155129
-0.129567
-0.18565
-0.147776
-0.152141
-0.148809
-0.658926
-0.644943
-0.594502
-0.528232
-0.450307
-0.370495
-0.288428
-0.208895
-0.139052
-0.0804087
-0.0231119
-0.0323993
-0.074133
-0.110551
-0.142092
-0.135778
-0.140039
-0.140353
-0.14034
-0.138001
-0.671123
-0.659142
-0.611583
-0.547498
-0.472791
-0.395006
-0.315508
-0.238814
-0.171794
-0.119812
-0.0640985
-0.0758632
-0.124758
-0.113723
-0.0793216
-0.07762
-0.0951501
-0.129033
-0.13714
-0.140061
-0.677432
-0.667737
-0.624013
-0.562544
-0.490731
-0.41559
-0.338931
-0.265107
-0.200383
-0.154561
-0.100092
-0.115961
-0.189731
-0.174314
-0.0746137
-0.0892929
-0.102144
-0.130341
-0.141341
-0.146594
-0.677404
-0.669768
-0.630051
-0.571701
-0.503113
-0.431054
-0.357355
-0.286084
-0.223517
-0.181164
-0.131656
-0.147482
-0.260325
-0.362853
-0.394019
-0.473459
-0.478555
-0.449665
-0.423092
-0.407689
-0.670129
-0.66287
-0.628139
-0.573925
-0.508886
-0.440111
-0.369365
-0.300169
-0.238315
-0.196437
-0.154097
-0.167318
-0.345757
-0.644427
-1.06489
-1.29622
-1.32809
-1.2774
-1.16176
-1.07285
-0.651421
-0.643638
-0.615777
-0.567546
-0.507151
-0.44198
-0.374016
-0.305795
-0.242244
-0.196246
-0.159724
-0.154077
-0.338858
-0.664195
-1.02956
-1.15986
-1.13099
-1.0224
-0.937734
-0.893972
-0.614348
-0.607253
-0.591905
-0.553048
-0.497889
-0.43612
-0.370589
-0.301755
-0.233025
-0.176517
-0.131145
-0.0781127
-0.0516314
-0.00689186
0.00923882
0.0939784
0.200903
0.289171
0.372743
0.444748
-0.568915
-0.565227
-0.561123
-0.530874
-0.482795
-0.424316
-0.359438
-0.288644
-0.211543
-0.133688
-0.0594457
0.0745634
0.281571
0.620002
0.93281
1.1996
1.40444
1.52693
1.58623
1.60419
-0.538206
-0.538497
-0.531846
-0.509287
-0.466583
-0.409342
-0.3426
-0.268249
-0.182091
-0.0811408
0.0276764
0.187917
0.473432
0.880314
1.28087
1.61363
1.84027
1.96729
2.02091
2.03822
-0.506345
-0.50731
-0.500764
-0.490339
-0.452474
-0.395231
-0.325146
-0.247071
-0.156474
-0.047018
0.0714172
0.19612
0.462544
0.800075
1.13131
1.41619
1.62913
1.75668
1.81426
1.8313
-0.477375
-0.476021
-0.475219
-0.472733
-0.438379
-0.382121
-0.310102
-0.229242
-0.138987
-0.0333938
0.0783442
0.161
0.377758
0.656574
0.920382
1.14961
1.33301
1.44572
1.49607
1.50937
-0.467587
-0.465354
-0.469763
-0.463245
-0.429446
-0.370243
-0.297062
-0.216238
-0.131095
-0.0387177
0.0650986
0.121617
0.28051
0.507587
0.714471
0.88809
1.02805
1.1173
1.15723
1.16799
-0.452678
-0.451637
-0.45921
-0.452357
-0.419125
-0.356192
-0.28354
-0.205705
-0.127744
-0.0503076
0.0460203
0.0926445
0.197259
0.375256
0.538477
0.667927
0.769533
0.837359
0.86728
0.873787
-0.417063
-0.417775
-0.424015
-0.418008
-0.388173
-0.329411
-0.263138
-0.19204
-0.121799
-0.0581769
0.028474
0.0728483
0.137151
0.269949
0.396131
0.492186
0.564967
0.613768
0.634154
0.640352
-0.347061
-0.349233
-0.354242
-0.350094
-0.326097
-0.281153
-0.229196
-0.170592
-0.109474
-0.0584112
0.0151393
0.0574315
0.0974533
0.196514
0.289671
0.357679
0.409812
0.445244
0.460305
0.465481
-0.24859
-0.250902
-0.253396
-0.251758
-0.237613
-0.211308
-0.178503
-0.138139
-0.089801
-0.0505264
0.0073858
0.0450727
0.0717146
0.148256
0.214947
0.26109
0.299498
0.32616
0.336732
0.339687
-0.148768
-0.150226
-0.151899
-0.152286
-0.147212
-0.136295
-0.120236
-0.0971742
-0.0651978
-0.0368409
0.00495512
0.0347651
0.0544569
0.114425
0.161895
0.192849
0.218676
0.235509
0.242926
0.245063
-0.065654
-0.0666508
-0.0682613
-0.070797
-0.0721864
-0.0714074
-0.0669073
-0.0568231
-0.0392663
-0.0214661
0.00634166
0.0289503
0.0428066
0.0881272
0.120714
0.142703
0.158048
0.166888
0.170085
0.17023
-0.00703367
-0.00772579
-0.00924794
-0.0132717
-0.0189712
-0.0239092
-0.0260805
-0.0242244
-0.0167473
-0.0078477
0.00929071
0.0263717
0.0377789
0.0680027
0.0888501
0.10251
0.110731
0.113868
0.11375
0.112641
0.027446
0.0269216
0.0255209
0.0210017
0.0133371
0.00579597
5.51271e-05
-0.00275635
-0.000938967
0.00276409
0.01266
0.0242454
0.0334788
0.0508808
0.0633572
0.0703609
0.0736427
0.0735133
0.0716292
0.0702649
0.0436999
0.0432913
0.0420499
0.0379289
0.0303725
0.0223684
0.0152098
0.0100927
0.00902127
0.0102933
0.0164386
0.0231555
0.0287543
0.0373846
0.0436057
0.0467242
0.0478835
0.0470025
0.045201
0.0436046
0.0490335
0.0486931
0.0476457
0.0442445
0.0379416
0.0309404
0.024
0.018249
0.0157299
0.015225
0.0192947
0.0219526
0.0238797
0.0283302
0.0304134
0.0316511
0.0319725
0.0308025
0.0291523
0.0274308
0.0485522
0.0482839
0.0474785
0.0449934
0.0403533
0.0348912
0.0291066
0.0236609
0.0204729
0.0182623
0.0202558
0.0210822
0.0196749
0.0221258
0.023148
0.0233591
0.0223377
0.0198467
0.0179055
0.0165334
0.0457035
0.0455032
0.044918
0.0431454
0.0398065
0.035693
0.0311661
0.0263982
0.0232668
0.020108
0.0207402
0.0204027
0.0186436
0.0201744
0.0210663
0.0204761
0.0191972
0.0174703
0.0160158
0.0146819
0.0417463
0.0416209
0.0412064
0.0400049
0.0375612
0.0344275
0.0309082
0.0269668
0.0243316
0.0211963
0.0212386
0.0201613
0.0197787
0.0213486
0.0227164
0.0227976
0.021551
0.0204752
0.0198039
0.0186718
0.0371655
0.0370761
0.036748
0.0359385
0.0341895
0.0319207
0.029258
0.0261545
0.024146
0.0215955
0.0214116
0.0213684
0.0218451
0.0236834
0.0250594
0.0264056
0.0264513
0.0262142
0.0261099
0.025239
0.0323686
0.0322894
0.0320398
0.031528
0.0302775
0.028749
0.0268158
0.0245184
0.0231921
0.0210075
0.0215618
0.0221024
0.0226893
0.0260739
0.027986
0.0295087
0.0326283
0.0343252
0.0345295
0.0335495
0.0277458
0.0276614
0.0274389
0.0270599
0.0262621
0.0253274
0.0240084
0.0224104
0.021504
0.0197946
0.0209959
0.021559
0.0233304
0.0267577
0.0306899
0.0341128
0.0371888
0.0399143
0.0415355
0.0399633
0.0236721
0.0235848
0.0234597
0.0231823
0.0226003
0.0220519
0.0211724
0.0198015
0.0192193
0.0178929
0.0192212
0.0196613
0.0231189
0.0260706
0.0310158
0.0370442
0.0399679
0.0417374
0.043255
0.0422397
0.0199189
0.0198179
0.0197264
0.0195587
0.0191907
0.0188083
0.0183618
0.0173108
0.0167738
0.0154052
0.0161771
0.0164993
0.0196089
0.023783
0.0299207
0.0354879
0.0409026
0.0429932
0.0436844
0.0430357
0.0164542
0.0163452
0.0163059
0.0161651
0.0159259
0.0157256
0.0153771
0.0145184
0.0140656
0.0123972
0.0122378
0.0114851
0.013771
0.0178735
0.0264098
0.0326925
0.0377698
0.0410706
0.0421253
0.0408304
0.0131564
0.0130197
0.0130449
0.0130176
0.0129868
0.0124932
0.0123909
0.0114034
0.0105169
0.00896672
0.0080475
0.00822093
0.00822346
0.0120328
0.020654
0.0279991
0.0325372
0.0363801
0.0385497
0.0373492
0.00961892
0.00949373
0.00948603
0.00951731
0.00953144
0.00902786
0.00894418
0.00818734
0.00791003
0.00667556
0.00430264
0.00422787
0.00207053
0.0109875
0.0184023
0.0237821
0.0314185
0.0356572
0.0367186
0.0354094
0.00614138
0.00592755
0.00573604
0.00571369
0.00570686
0.00533556
0.00480236
0.00463093
0.00515434
0.00554861
0.00416563
0.000344785
-0.00523434
0.00518201
0.0135562
0.0192605
0.0248306
0.0260778
0.0260577
0.0253939
0.00250746
0.00243136
0.0023753
0.00204018
0.00126276
0.00115718
0.000725567
0.0015669
0.00340414
0.00488403
0.0065502
0.00165439
-0.00234997
0.000881075
0.00273562
0.00281799
0.00211735
0.0019411
0.00349024
0.0036942
-1.0676
-0.218026
0.0523302
0.331566
0.516931
0.676624
0.807904
0.941373
1.08609
1.16571
-0.0787174
0.332251
0.351821
0.542204
0.669845
0.784037
0.88269
0.970195
0.998395
0.955631
0.304543
0.52106
0.559076
0.696895
0.785235
0.867103
0.934469
0.984947
0.987552
1.0011
0.538063
0.683657
0.719607
0.823902
0.881019
0.940693
0.98616
1.01892
1.02823
1.05173
0.719142
0.822539
0.852311
0.92198
0.966304
1.00861
1.04115
1.06563
1.07561
1.10705
0.864469
0.934394
0.964923
1.00878
1.04522
1.07584
1.10047
1.12128
1.13561
1.16379
0.984848
1.03607
1.06184
1.09024
1.1183
1.14232
1.16249
1.18182
1.19685
1.22327
1.08938
1.12664
1.14795
1.16887
1.18993
1.20951
1.22703
1.24523
1.26014
1.28379
1.18383
1.21308
1.22955
1.24498
1.26131
1.27752
1.29315
1.31013
1.32374
1.34605
1.2724
1.2929
1.30787
1.32121
1.33494
1.34881
1.36233
1.37692
1.38846
1.4081
1.35806
1.37402
1.38796
1.39984
1.41181
1.42345
1.43457
1.44623
1.45388
1.47069
1.44369
1.45638
1.47014
1.48182
1.49242
1.50216
1.51093
1.51915
1.5227
1.53397
1.53264
1.54375
1.55724
1.56647
1.57389
1.58108
1.58824
1.59475
1.5958
1.6032
1.63118
1.63583
1.64386
1.64838
1.65169
1.65616
1.66218
1.6699
1.67376
1.68364
1.74422
1.73069
1.72336
1.71778
1.71512
1.7165
1.72292
1.73531
1.7501
1.77976
1.86563
1.80979
1.77887
1.76171
1.75354
1.75351
1.76228
1.78186
1.81378
1.883
)
;

boundaryField
{
    wall-4
    {
        type            zeroGradient;
    }
    pressure-outlet-7
    {
        type            fixedValue;
        value           uniform 0;
    }
    velocity-inlet-6
    {
        type            zeroGradient;
    }
    velocity-inlet-5
    {
        type            zeroGradient;
    }
    frontAndBackPlanes
    {
        type            empty;
    }
}


// ************************************************************************* //
