/*--------------------------------*- C++ -*----------------------------------*\
| =========                 |                                                 |
| \\      /  F ield         | OpenFOAM: The Open Source CFD Toolbox           |
|  \\    /   O peration     | Version:  4.0                                   |
|   \\  /    A nd           | Web:      www.OpenFOAM.org                      |
|    \\/     M anipulation  |                                                 |
\*---------------------------------------------------------------------------*/
FoamFile
{
    version     2.0;
    format      ascii;
    class       surfaceScalarField;
    location    "40";
    object      phi;
}
// * * * * * * * * * * * * * * * * * * * * * * * * * * * * * * * * * * * * * //

dimensions      [0 3 -1 0 0 0 0];

internalField   nonuniform List<scalar> 
4262
(
0.107147
0.470841
0.09558
0.705153
0.0694093
0.858474
0.0474197
1.02075
0.0310351
1.2149
0.0198401
1.44941
0.0124944
1.73321
0.00733993
2.07619
0.00339655
2.48919
-0.000231064
2.98592
-0.00389341
2.98595
-0.00788482
2.48923
-0.0129943
2.07615
-0.0202249
1.73309
-0.0312265
1.44922
-0.0473416
1.21463
-0.0691164
1.02054
-0.0953233
0.85851
-0.107104
0.705367
0.470884
0.112902
0.357939
0.135361
0.682694
0.120504
0.873331
0.0979794
1.04328
0.0747529
1.23813
0.0529744
1.47119
0.0344812
1.7517
0.0201931
2.09048
0.0089173
2.50046
-0.00117157
2.99601
-0.0111489
2.99593
-0.0220069
2.50009
-0.0359727
2.09011
-0.0543853
1.75151
-0.0762206
1.47106
-0.0998168
1.23823
-0.122821
1.04354
-0.136687
0.872376
-0.113452
0.682131
0.357432
0.0920506
0.265888
0.124986
0.649758
0.121109
0.877208
0.10486
1.05953
0.0863063
1.25668
0.067292
1.49021
0.0483907
1.7706
0.0304459
2.10842
0.0140455
2.51686
-0.00176837
3.01182
-0.0175014
3.01166
-0.0337497
2.51634
-0.0514896
2.10785
-0.0698857
1.7699
-0.0882355
1.48941
-0.105715
1.25571
-0.120297
1.05812
-0.125314
0.877393
-0.0923383
0.649156
0.265094
0.0640765
0.201812
0.105021
0.608813
0.106872
0.875358
0.0955114
1.07089
0.0815659
1.27063
0.0668627
1.50491
0.0507314
1.78674
0.0335448
2.12561
0.0157936
2.53461
-0.0030115
3.03063
-0.0215752
3.03023
-0.0388349
2.5336
-0.0552253
2.12424
-0.0704558
1.78513
-0.0843346
1.50329
-0.0979706
1.26934
-0.109578
1.06973
-0.106692
0.874507
-0.0647534
0.607217
0.20034
0.0375424
0.16427
0.0808453
0.56551
0.0911678
0.865035
0.0839748
1.07808
0.0713503
1.28325
0.0595117
1.51675
0.0467566
1.79949
0.0320372
2.14033
0.0153492
2.5513
-0.00353664
3.04951
-0.0221101
3.0488
-0.0381574
2.54965
-0.0521071
2.13819
-0.064362
1.79739
-0.0758507
1.51477
-0.0879507
1.28144
-0.0944067
1.07619
-0.082841
0.862941
-0.0382607
0.562637
0.16208
0.0194695
0.1448
0.0572597
0.52772
0.0727336
0.849561
0.0707139
1.0801
0.06198
1.29198
0.0511205
1.52761
0.0399662
1.81064
0.0274923
2.1528
0.0125202
2.56627
-0.005076
3.06711
-0.0223189
3.06605
-0.036376
2.56371
-0.0478849
2.1497
-0.0578154
1.80732
-0.0676721
1.52463
-0.0754581
1.28923
-0.0764758
1.07721
-0.0596151
0.84608
-0.0202475
0.52327
0.141832
0.0106807
0.134119
0.0425724
0.495829
0.0588552
0.833279
0.0592975
1.07966
0.053335
1.29795
0.0441373
1.53681
0.033871
1.82091
0.0225764
2.1641
0.00958501
2.57927
-0.00607611
3.08277
-0.0213726
3.08134
-0.0334919
2.57582
-0.0435741
2.15978
-0.0527676
1.81651
-0.0609092
1.53277
-0.0655968
1.29392
-0.0637241
1.07533
-0.0455122
0.827868
-0.011589
0.489346
0.130243
0.00667503
0.127444
0.0332384
0.469265
0.0496922
0.816825
0.0513732
1.07798
0.0465283
1.30279
0.0384167
1.54492
0.028861
1.83047
0.0179569
2.175
0.0058165
2.59141
-0.00797078
3.09656
-0.0211051
3.09448
-0.0319794
2.5867
-0.0413537
2.16916
-0.0491945
1.82435
-0.0555971
1.53917
-0.0587744
1.29709
-0.0553445
1.0719
-0.0366315
0.809155
-0.00771589
0.460431
0.122527
0.00476173
0.122683
0.0267302
0.447297
0.0427751
0.80078
0.0450905
1.07566
0.0406458
1.30724
0.03328
1.55228
0.024461
1.83929
0.0142422
2.18522
0.00282225
2.60283
-0.00975051
3.10913
-0.0217455
3.10647
-0.0317003
2.59665
-0.0399816
2.17744
-0.0468234
1.83119
-0.0523957
1.54475
-0.0549175
1.29962
-0.0502523
1.06724
-0.0311042
0.790007
-0.00610291
0.43543
0.116424
0.00375876
0.118924
0.0217332
0.429322
0.0369072
0.785606
0.0398238
1.07274
0.0357135
1.31135
0.028619
1.55938
0.0202268
1.84768
0.0105747
2.19487
-0.00034511
2.61375
-0.0123153
3.1211
-0.0233964
3.11755
-0.0322967
2.60555
-0.0397214
2.18486
-0.0457964
1.83727
-0.0504774
1.54943
-0.0521266
1.30127
-0.0462101
1.06132
-0.0270898
0.770887
-0.00541836
0.413758
0.111006
0.00306828
0.115856
0.0176719
0.414719
0.0318803
0.771398
0.0350433
1.06958
0.0310594
1.31533
0.0242213
1.56622
0.0162768
1.85562
0.00713091
2.20402
-0.00326073
2.62414
-0.0149757
3.13282
-0.0257437
3.12832
-0.033879
2.61369
-0.0401193
2.1911
-0.0452304
1.84238
-0.0493815
1.55358
-0.0501966
1.30208
-0.0430641
1.05419
-0.0240235
0.751846
-0.00505137
0.394786
0.105955
0.00243155
0.113424
0.0138857
0.403264
0.0265756
0.758708
0.0300101
1.06615
0.0263648
1.31898
0.0195877
1.57299
0.0115098
1.8637
0.00251871
2.21301
-0.00759055
2.63425
-0.0189405
3.14417
-0.0289112
3.13829
-0.0360532
2.62083
-0.0415026
2.19655
-0.0459142
1.84679
-0.048982
1.55665
-0.0485276
1.30163
-0.0402592
1.04592
-0.0215748
0.733162
-0.00481867
0.37803
0.101136
0.00155708
0.111867
0.0099111
0.39491
0.0206586
0.74796
0.0237044
1.0631
0.0203544
1.32233
0.0141925
1.57916
0.00656595
1.87133
-0.00227469
2.22185
-0.0122888
2.64426
-0.0229822
3.15486
-0.0322241
3.14753
-0.038787
2.62739
-0.0433299
2.2011
-0.0468704
1.85033
-0.0485216
1.5583
-0.0472323
1.30034
-0.0379474
1.03664
-0.0195601
0.714775
-0.00454441
0.363014
0.0965914
0.000732958
0.111134
0.00668374
0.38896
0.0156394
0.739005
0.0180841
1.06066
0.0143857
1.32602
0.00800291
1.58554
0.000267676
1.87906
-0.00855225
2.23067
-0.0182273
2.65394
-0.0282975
3.16493
-0.0365736
3.15581
-0.0420112
2.63283
-0.0455692
2.20465
-0.0477928
1.85256
-0.0484412
1.55895
-0.0462416
1.29814
-0.0359941
1.02639
-0.0180421
0.696823
-0.00434644
0.349319
0.092245
3.27082e-05
0.111101
0.00342362
0.385569
0.0098005
0.732628
0.0112065
1.05925
0.00716107
1.33007
0.000527707
1.59217
-0.00757055
1.88716
-0.016613
2.23971
-0.026113
2.66344
-0.0351279
3.17394
-0.0416911
3.16237
-0.0456049
2.63675
-0.0480538
2.2071
-0.0495779
1.85408
-0.0495459
1.55891
-0.0461826
1.29477
-0.0351799
1.01539
-0.0173304
0.678973
-0.0043434
0.336332
0.0879016
-0.000791321
0.111893
-1.8026e-06
0.384779
0.00436105
0.728265
0.00457023
1.05904
-0.000414514
1.33506
-0.00787551
1.59963
-0.0164578
1.89574
-0.0256022
2.24886
-0.0344897
2.67232
-0.0424251
3.18188
-0.0479928
3.16794
-0.0508483
2.6396
-0.0521508
2.20841
-0.0527116
1.85464
-0.0517118
1.55791
-0.047091
1.29015
-0.0348018
1.0031
-0.016967
0.661138
-0.0044536
0.323818
0.083448
-0.00192358
0.113816
-0.00359319
0.386449
-0.00287731
0.727549
-0.00408483
1.06025
-0.00939987
1.34037
-0.0171896
1.60742
-0.0261364
1.90469
-0.0355116
2.25823
-0.0450217
2.68183
-0.0533056
3.19016
-0.0577232
3.17236
-0.0587895
2.64067
-0.0584137
2.20803
-0.0572147
1.85344
-0.0543618
1.55506
-0.0483094
1.2841
-0.0348729
0.98966
-0.0168575
0.643123
-0.00453959
0.3115
0.0789084
-0.00323823
0.117054
-0.00732465
0.390535
-0.00964652
0.729871
-0.0126512
1.06325
-0.0190447
1.34676
-0.0277433
1.61612
-0.0372754
1.91422
-0.0472424
2.2682
-0.0567208
2.69131
-0.0643106
3.19775
-0.0679414
3.17599
-0.0679748
2.6407
-0.0660145
2.20607
-0.063447
1.85087
-0.0592798
1.55089
-0.0510558
1.27588
-0.0356761
0.97428
-0.0171671
0.624614
-0.00474028
0.299073
0.0741681
-0.00474707
0.121801
-0.0123489
0.398137
-0.018451
0.735973
-0.0242493
1.06905
-0.0314166
1.35393
-0.0408604
1.62556
-0.0514073
1.92477
-0.062145
2.27894
-0.0724134
2.70158
-0.080239
3.20558
-0.0824146
3.17816
-0.0800454
2.63833
-0.075634
2.20166
-0.0704375
1.84568
-0.0639761
1.54443
-0.0538131
1.26571
-0.0370807
0.957548
-0.0180246
0.605558
-0.00508088
0.28613
0.0690873
-0.00623477
0.128036
-0.0176961
0.409598
-0.0282515
0.746528
-0.0365736
1.07737
-0.0455774
1.36293
-0.0567654
1.63675
-0.0686477
1.93665
-0.080691
2.29098
-0.0909028
2.71179
-0.0966972
3.21137
-0.0960893
3.17756
-0.0921619
2.6344
-0.0863145
2.19581
-0.0798666
1.83923
-0.071583
1.53615
-0.0587368
1.25287
-0.0396655
0.938476
-0.0195045
0.585397
-0.00554766
0.272173
0.0635396
-0.00863092
0.136667
-0.0248059
0.425773
-0.0406907
0.762413
-0.0527026
1.08939
-0.0632585
1.37349
-0.0756121
1.64911
-0.0892007
1.95024
-0.10263
2.30441
-0.113881
2.72304
-0.120009
3.2175
-0.118791
3.17634
-0.112254
2.62787
-0.102856
2.18641
-0.0920994
1.82847
-0.0805043
1.52455
-0.0651202
1.23748
-0.0439909
0.917347
-0.0220694
0.563475
-0.00626482
0.256368
0.0572748
-0.0109049
0.147572
-0.0313261
0.446195
-0.0522728
0.78336
-0.0684752
1.10559
-0.0827746
1.38779
-0.0987638
1.6651
-0.114825
1.9663
-0.129999
2.31958
-0.141477
2.73452
-0.145481
3.2215
-0.139977
3.17083
-0.129779
2.61767
-0.118619
2.17525
-0.107187
1.81704
-0.0936664
1.51103
-0.0749405
1.21876
-0.0503168
0.892723
-0.0253665
0.538525
-0.00706369
0.238065
0.0502111
-0.0155858
0.163158
-0.0431594
0.473768
-0.0704378
0.810638
-0.0919396
1.12709
-0.110006
1.40586
-0.128888
1.68398
-0.147704
1.98512
-0.164245
2.33612
-0.175559
2.74584
-0.17836
3.22431
-0.171361
3.16384
-0.158847
2.60515
-0.14358
2.15999
-0.127
1.80046
-0.10913
1.49316
-0.0868961
1.19652
-0.0586036
0.864431
-0.0296489
0.50957
-0.00810001
0.216516
0.0421111
-0.0196518
0.18281
-0.0557777
0.509894
-0.0921866
0.847047
-0.120263
1.15517
-0.144194
1.42979
-0.168421
1.70821
-0.18993
2.00663
-0.207032
2.35323
-0.216659
2.75546
-0.215023
3.22267
-0.201508
3.15032
-0.183063
2.58671
-0.164549
2.14147
-0.147024
1.78294
-0.127431
1.47357
-0.101254
1.17035
-0.0677787
0.830956
-0.0336414
0.475433
-0.00882315
0.191698
0.0332879
-0.0328634
0.215673
-0.0815604
0.558591
-0.127256
0.892743
-0.162745
1.19066
-0.193215
1.46026
-0.220621
1.73561
-0.2432
2.02921
-0.259466
2.36949
-0.26637
2.76237
-0.26048
3.21678
-0.242589
3.13243
-0.221182
2.5653
-0.199212
2.1195
-0.175793
1.75952
-0.149913
1.44769
-0.117942
1.13837
-0.0781559
0.79117
-0.0381779
0.435455
-0.00955468
0.163075
0.0237332
-0.0473223
0.262995
-0.119769
0.631037
-0.180625
0.9536
-0.223402
1.23343
-0.259101
1.49596
-0.288429
1.76494
-0.309588
2.05037
-0.322111
2.38201
-0.323205
2.76346
-0.310049
3.20362
-0.284984
3.10736
-0.25672
2.53704
-0.228916
2.0917
-0.203443
1.73404
-0.175461
1.41971
-0.137166
1.10008
-0.0887827
0.742787
-0.0409745
0.387647
-0.00946085
0.131561
0.0142724
-0.0333905
0.296386
-0.0949335
0.69258
-0.15111
1.00978
-0.197524
1.27985
-0.240328
1.53876
-0.276703
1.80131
-0.310404
2.08407
-0.339607
2.41122
-0.359867
2.78372
-0.365137
3.20889
-0.351527
3.09375
-0.32766
2.51317
-0.299777
2.06382
-0.264404
1.69867
-0.218604
1.37391
-0.1605
1.04198
-0.0943139
0.676601
-0.037989
0.331322
-0.00833539
0.101908
0.00593701
-0.0120163
0.308402
-0.0452583
0.725822
-0.085467
1.04999
-0.124041
1.31842
-0.161898
1.57662
-0.195762
1.83518
-0.226498
2.1148
-0.251576
2.4363
-0.266927
2.79907
-0.267279
3.20925
-0.250075
3.07655
-0.222897
2.48599
-0.18761
2.02853
-0.149153
1.66021
-0.109161
1.33392
-0.0668797
0.999694
-0.0296478
0.639369
-0.00765529
0.309329
-0.00103606
0.0952886
0.00490095
0.00122667
0.307175
-0.0219905
0.74904
-0.0507179
1.07871
-0.0804985
1.3482
-0.111092
1.60721
-0.141029
1.86511
-0.168562
2.14234
-0.191027
2.45876
-0.205346
2.81339
-0.205361
3.20926
-0.1874
3.05859
-0.158213
2.45681
-0.124259
1.99457
-0.0870765
1.62303
-0.0473552
1.2942
-0.011575
0.963914
0.00947976
0.618314
0.0108319
0.307977
0.00382612
0.102294
0.00872707
0.00181193
0.305364
-0.010275
0.761126
-0.0313679
1.09981
-0.0559472
1.37278
-0.0812015
1.63247
-0.10613
1.89004
-0.129715
2.16592
-0.149165
2.47821
-0.160103
2.82433
-0.157151
3.20631
-0.140586
3.04202
-0.114453
2.43067
-0.0806748
1.9608
-0.0442672
1.58662
-0.0127693
1.2627
0.010412
0.940733
0.0199513
0.608775
0.0155018
0.312427
0.00524577
0.11255
0.0139728
0.00458753
0.300776
-0.00346108
0.769175
-0.020953
1.1173
-0.0412641
1.39309
-0.062623
1.65382
-0.0842393
1.91166
-0.105046
2.18673
-0.122658
2.49582
-0.133778
2.83545
-0.13411
3.20664
-0.117757
3.02567
-0.090349
2.40327
-0.0606911
1.93114
-0.0304542
1.55639
-9.64057e-05
1.23234
0.0202942
0.920342
0.0249294
0.60414
0.0170012
0.320355
0.00548949
0.124062
0.0194623
0.00550404
0.295272
1.77812e-05
0.774661
-0.015433
1.13275
-0.0334714
1.41113
-0.0521409
1.67249
-0.0711035
1.93062
-0.0896318
2.20526
-0.105311
2.5115
-0.114473
2.84461
-0.110812
3.20298
-0.0946663
3.00953
-0.0732403
2.38184
-0.0475453
1.90544
-0.0190462
1.52789
0.00423837
1.20906
0.019345
0.905236
0.0226443
0.60084
0.0145568
0.328443
0.00460799
0.134011
0.0240703
0.00410272
0.291169
0.000400919
0.778363
-0.0123609
1.14551
-0.0286494
1.42742
-0.0457654
1.68961
-0.0632677
1.94812
-0.0805065
2.2225
-0.0956588
2.52665
-0.106058
2.85501
-0.107355
3.20428
-0.0947812
2.99695
-0.0725446
2.3596
-0.0463671
1.87927
-0.0220251
1.50355
0.000305228
1.18673
0.0142009
0.89134
0.0165858
0.598456
0.0106667
0.334362
0.00323188
0.141446
0.0273022
0.00265006
0.288519
-0.000650181
0.781663
-0.0123061
1.15717
-0.0271898
1.4423
-0.0430127
1.70543
-0.0592809
1.96439
-0.0757483
2.23896
-0.0906203
2.54153
-0.100156
2.86455
-0.0993803
3.2035
-0.0861782
2.98375
-0.0682173
2.34164
-0.047545
1.85859
-0.0238432
1.47984
-0.00576983
1.16865
0.00612735
0.879443
0.00979717
0.594786
0.00601242
0.338146
0.00198111
0.145477
0.0292833
0.000143572
0.288376
-0.00292564
0.784733
-0.0132252
1.16747
-0.0264396
1.45552
-0.0414898
1.72048
-0.0573005
1.9802
-0.0733596
2.25502
-0.0880322
2.5562
-0.0987772
2.87529
-0.101833
3.20656
-0.091237
2.97315
-0.0704926
2.3209
-0.0487714
1.83687
-0.0318256
1.4629
-0.0144299
1.15126
-0.00331524
0.868328
0.000369278
0.591101
0.000460665
0.338055
0.000325844
0.145612
0.0296092
-0.000526742
0.288902
-0.00542516
0.789631
-0.0150403
1.17708
-0.0273507
1.46783
-0.0415403
1.73467
-0.0566617
1.99532
-0.0725085
2.27087
-0.087685
2.57137
-0.099292
2.8869
-0.100887
3.20815
-0.0903365
2.9626
-0.0757813
2.30634
-0.0583535
1.81944
-0.0382543
1.4428
-0.0238012
1.1368
-0.0128861
0.857413
-0.0059621
0.584177
-0.0037306
0.335824
-0.00103602
0.142917
0.0285731
-0.00241978
0.291322
-0.00747883
0.79469
-0.0164923
1.18609
-0.0280439
1.47938
-0.041642
1.74827
-0.0565878
2.01027
-0.0726025
2.28688
-0.0882031
2.58697
-0.100468
2.89916
-0.105481
3.21317
-0.0997385
2.95686
-0.0829256
2.28953
-0.063302
1.79982
-0.0473509
1.42685
-0.031651
1.1211
-0.0198453
0.845607
-0.0123923
0.576724
-0.0058995
0.329331
-0.00166332
0.138681
0.0269098
-0.00379431
0.295116
-0.00923064
0.800126
-0.0181205
1.19498
-0.0293542
1.49061
-0.0424257
1.76134
-0.0569346
2.02478
-0.0728473
2.3028
-0.0888103
2.60294
-0.102536
2.91289
-0.11008
3.22071
-0.10297
2.94975
-0.0893262
2.27589
-0.0725499
1.78304
-0.0536886
1.40799
-0.0391559
1.10657
-0.0266294
0.833081
-0.0162043
0.566299
-0.00851834
0.321645
-0.00241221
0.132575
0.0244976
-0.00433738
0.299454
-0.0104707
0.80626
-0.019275
1.20379
-0.03006
1.5014
-0.0427222
1.774
-0.0570582
2.03911
-0.0731193
2.31886
-0.0898274
2.61965
-0.104963
2.92802
-0.113753
3.2295
-0.111093
2.94709
-0.0981903
2.26298
-0.078715
1.76357
-0.0619618
1.39123
-0.0449665
1.08958
-0.0314371
0.819552
-0.0204062
0.555268
-0.0092881
0.310527
-0.00252179
0.125809
0.0219758
-0.0044444
0.303898
-0.0112066
0.813022
-0.0201571
1.21274
-0.0308156
1.51205
-0.0431717
1.78636
-0.0571991
2.05314
-0.0732437
2.3349
-0.0903955
2.6368
-0.106587
2.94422
-0.118555
3.24147
-0.118856
2.94739
-0.106457
2.25059
-0.0898082
1.74692
-0.0682988
1.36972
-0.0508314
1.07211
-0.0352244
0.803944
-0.0212147
0.541258
-0.0100834
0.299395
-0.00246909
0.118194
0.0195067
-0.004527
0.308425
-0.0117597
0.820255
-0.0206281
1.22161
-0.0309601
1.52239
-0.0430261
1.79843
-0.056944
2.06706
-0.0731052
2.35106
-0.0908097
2.6545
-0.108586
2.96199
-0.122656
3.25554
-0.124757
2.94949
-0.115411
2.24124
-0.0959073
1.72742
-0.0754076
1.34922
-0.0537454
1.05045
-0.0365234
0.786722
-0.0226309
0.527366
-0.00936838
0.286133
-0.00204369
0.11087
0.017463
-0.00458423
0.313009
-0.0119379
0.827608
-0.0207436
1.23041
-0.0309856
1.53263
-0.0428663
1.81031
-0.0565377
2.08073
-0.0725954
2.36712
-0.0905715
2.67248
-0.109106
2.98053
-0.125154
3.27159
-0.132145
2.95648
-0.124073
2.23317
-0.107321
1.71067
-0.082038
1.32394
-0.0576258
1.02603
-0.0350874
0.764184
-0.0174749
0.509754
-0.00702855
0.275687
-0.00108603
0.104927
0.016377
-0.00465695
0.317666
-0.0120989
0.83505
-0.0206627
1.23898
-0.0305663
1.54253
-0.0421537
1.82189
-0.0556596
2.09424
-0.0716894
2.38315
-0.090012
2.6908
-0.109955
3.00047
-0.128564
3.29019
-0.137605
2.96552
-0.132614
2.22818
-0.113998
1.69205
-0.0895969
1.29954
-0.0588533
0.99529
-0.0318339
0.737165
-0.0117237
0.489643
-0.00166821
0.265631
-0.00200701
0.105266
0.01437
-0.00461591
0.322282
-0.0119132
0.842347
-0.0202892
1.24735
-0.0300149
1.55226
-0.0413588
1.83324
-0.0545813
2.10746
-0.070466
2.39904
-0.0889817
2.70932
-0.109261
3.02075
-0.128895
3.30983
-0.141532
2.97816
-0.140358
2.227
-0.127251
1.67894
-0.0986509
1.27094
-0.0629724
0.959611
-0.0226274
0.69682
0.0137255
0.45329
0.0303215
0.249035
0.0235848
0.112002
0.0379549
-0.00452553
0.326808
-0.0117544
0.849576
-0.0198415
1.25544
-0.0291668
1.56158
-0.0401359
1.84421
-0.053127
2.12045
-0.068875
2.41478
-0.0874369
2.72788
-0.108588
3.0419
-0.131011
3.33225
-0.145717
2.99287
-0.149111
2.2304
-0.134939
1.66477
-0.10903
1.24503
-0.0660268
0.916608
-0.0189018
0.649695
0.0298729
0.404516
0.0418597
0.237048
0.0182543
0.135608
0.0562092
-0.00432222
0.33113
-0.0113019
0.856556
-0.0191389
1.26328
-0.0282006
1.57064
-0.0388992
1.85491
-0.0515591
2.13311
-0.0670561
2.43028
-0.0855923
2.74641
-0.106963
3.06327
-0.129912
3.3552
-0.147478
3.01043
-0.154294
2.23721
-0.149515
1.65999
-0.123729
1.21924
-0.0803294
0.873209
-0.00826598
0.577631
0.0939518
0.302298
0.181212
0.149788
0.178673
0.138147
0.234882
-0.00418961
0.33532
-0.0111319
0.863498
-0.0188839
1.27103
-0.0278733
1.57963
-0.0387114
1.86574
-0.0518463
2.14625
-0.0682184
2.44665
-0.0882543
2.76645
-0.112502
3.08752
-0.140864
3.38356
-0.164463
3.03403
-0.177776
2.25053
-0.173866
1.65608
-0.153467
1.19885
-0.106641
0.826382
-0.0552074
0.526198
-0.0904117
0.337502
-0.360644
0.42002
-0.935882
0.713385
0.897671
-1.59867
-0.00398426
0.339304
-0.0106664
0.87018
-0.0182438
1.27861
-0.0271542
1.58854
-0.0379414
1.87653
-0.0511466
2.15945
-0.0678806
2.46339
-0.0888292
2.7874
-0.114643
3.11333
-0.145298
3.41422
-0.173936
3.06267
-0.192488
2.26908
-0.207377
1.67097
-0.2015
1.19297
-0.185115
0.809997
-0.268846
0.609928
-0.691705
0.760361
-1.42885
1.15717
-2.03955
1.32409
1.2182
-2.36009
-0.00378291
0.343087
-0.0102613
0.876659
-0.0175917
1.28594
-0.0262485
1.5972
-0.0368713
1.88715
-0.0501671
2.17275
-0.0672486
2.48047
-0.0889786
2.80913
-0.116751
3.1411
-0.152212
3.44968
-0.187319
3.09778
-0.216912
2.29867
-0.233095
1.68715
-0.233134
1.19301
-0.32042
0.897283
-0.751621
1.04113
-1.52861
1.53735
-2.10201
1.73057
-2.3434
1.56548
1.33334
-2.45854
-0.00356163
0.346648
-0.00965019
0.882747
-0.0167164
1.293
-0.0252234
1.60571
-0.0357226
1.89765
-0.0490145
2.18604
-0.0663487
2.4978
-0.0888793
2.83166
-0.118197
3.17042
-0.156041
3.48752
-0.197016
3.13875
-0.230824
2.33248
-0.267057
1.72338
-0.355093
1.28104
-0.693812
1.236
-1.42673
1.77404
-2.02058
2.1312
-2.26195
1.97195
-2.37617
1.6797
1.39865
-2.44148
-0.00330576
0.349954
-0.00906769
0.888509
-0.0158047
1.29974
-0.0239884
1.61389
-0.0343192
1.90798
-0.0476137
2.19933
-0.0651632
2.51535
-0.0882978
2.85479
-0.119304
3.20143
-0.161908
3.53013
-0.210199
3.18704
-0.259595
2.38188
-0.307886
1.77168
-0.486396
1.45955
-1.08663
1.83624
-1.77816
2.46557
-2.1041
2.45714
-2.25413
2.12198
-2.3369
1.76246
1.46445
-2.40271
-0.00321459
0.353169
-0.00881537
0.89411
-0.0155348
1.30646
-0.0238321
1.62219
-0.0344464
1.9186
-0.0479975
2.21288
-0.0660213
2.53338
-0.0901148
2.87889
-0.122756
3.23407
-0.167709
3.57508
-0.22231
3.24164
-0.27252
2.43209
-0.366316
1.86547
-0.751649
1.84489
-1.4821
2.56669
-1.96059
2.94406
-2.16159
2.65815
-2.26848
2.22887
-2.34563
1.83961
1.52852
-2.40969
-0.00330828
0.356477
-0.00922537
0.900027
-0.0162991
1.31353
-0.0249543
1.63084
-0.0360329
1.92968
-0.0502531
2.2271
-0.0691505
2.55227
-0.0943864
2.90412
-0.128981
3.26866
-0.178951
3.62505
-0.238323
3.30101
-0.306243
2.50001
-0.496408
2.05564
-1.04209
2.39057
-1.67091
3.19551
-1.95131
3.22446
-2.09938
2.80622
-2.21393
2.34341
-2.30771
1.93339
1.59074
-2.36994
-0.00332785
0.359805
-0.00946408
0.906163
-0.0169633
1.32103
-0.0261987
1.64008
-0.0378565
1.94133
-0.0527132
2.24196
-0.0724524
2.57201
-0.0989897
2.93066
-0.135401
3.30508
-0.18724
3.67689
-0.25154
3.36531
-0.342238
2.59071
-0.621607
2.335
-1.25617
3.02513
-1.74975
3.68909
-1.95824
3.43295
-2.09978
2.94776
-2.22446
2.46809
-2.33622
2.04515
1.64978
-2.39526
-0.00331357
0.363119
-0.0098173
0.912667
-0.0177721
1.32899
-0.0274286
1.64974
-0.0395832
1.95349
-0.0551725
2.25755
-0.075853
2.59269
-0.103551
2.95836
-0.141822
3.34335
-0.198025
3.73309
-0.26834
3.43563
-0.393735
2.7161
-0.773452
2.71472
-1.40315
3.65482
-1.76111
4.04705
-1.93556
3.6074
-2.03911
3.05131
-2.12926
2.55824
-2.19808
2.11397
1.64314
-2.19143
-0.00320922
0.366328
-0.00985919
0.919317
-0.0182918
1.33742
-0.0286381
1.66008
-0.0414888
1.96634
-0.0577587
2.27382
-0.0792865
2.61422
-0.108289
2.98736
-0.148346
3.3834
-0.205141
3.78989
-0.284471
3.51496
-0.455302
2.88693
-0.901964
3.16138
-1.45666
4.20952
-1.72168
4.31207
-1.8765
3.76222
-1.97126
3.14607
-1.97459
2.56157
-1.90845
2.04783
1.61261
-1.87792
-0.00295222
0.36928
-0.0100093
0.926374
-0.0188797
1.34629
-0.0295509
1.67075
-0.0427611
1.97955
-0.059511
2.29057
-0.0815007
2.63621
-0.11078
3.01664
-0.151158
3.42378
-0.20844
3.84717
-0.296102
3.60262
-0.498238
3.08907
-0.979125
3.64227
-1.42396
4.65436
-1.59364
4.48174
-1.66229
3.83087
-1.66833
3.15211
-1.52236
2.41561
-1.02354
1.54901
0.589072
-0.00256224
0.371842
-0.00962614
0.933438
-0.0189931
1.35566
-0.0305682
1.68233
-0.0449034
1.99389
-0.062904
2.30857
-0.0866312
2.65994
-0.118585
3.0486
-0.162844
3.46804
-0.225252
3.90958
-0.328077
3.70545
-0.580849
3.34184
-1.11423
4.17565
-1.47753
5.01766
-1.5782
4.58241
-1.57766
3.83032
-1.47653
3.05098
-1.23836
2.17744
-0.638842
0.949489
-0.0497697
-0.00205412
0.373896
-0.00926505
0.940649
-0.0190725
1.36546
-0.0311578
1.69441
-0.0462668
2.00899
-0.065607
2.32791
-0.0912317
2.68556
-0.125714
3.08308
-0.174213
3.51654
-0.244197
3.97956
-0.367506
3.82876
-0.675461
3.64979
-1.22896
4.72915
-1.49632
5.28502
-1.55736
4.64345
-1.53793
3.81089
-1.33707
2.85012
-0.791195
1.63156
-0.11266
0.270954
-0.162429
-0.00137874
0.375275
-0.00811053
0.947381
-0.0181988
1.37555
-0.031207
1.70742
-0.0474205
2.02521
-0.0679483
2.34844
-0.0952675
2.71288
-0.132483
3.12029
-0.184299
3.56836
-0.260822
4.05608
-0.406709
3.97464
-0.77303
4.01611
-1.3088
5.26492
-1.48989
5.46611
-1.52124
4.6748
-1.43621
3.72586
-1.1097
2.52361
-0.32099
0.842856
0.0276311
-0.0776671
-0.134798
-0.000540916
0.375816
-0.00665203
0.953492
-0.0170043
1.38591
-0.030392
1.72081
-0.0471311
2.04195
-0.0688918
2.3702
-0.0979992
2.74199
-0.137395
3.15969
-0.1923
3.62326
-0.278373
4.14216
-0.45138
4.14765
-0.877101
4.44184
-1.3499
5.73772
-1.47051
5.58672
-1.47617
4.68046
-1.26143
3.51111
-0.700887
1.96307
-0.065191
0.20716
0.0321378
-0.174996
-0.10266
0.00105675
0.374759
-0.0037045
0.958253
-0.0141212
1.39632
-0.028457
1.73515
-0.0460814
2.05957
-0.0688281
2.39295
-0.0992905
2.77245
-0.140842
3.20124
-0.198086
3.6805
-0.291745
4.23581
-0.489518
4.34542
-0.964747
4.91706
-1.34748
6.12046
-1.41564
5.65488
-1.37501
4.63983
-1.08721
3.22332
-0.337677
1.21354
-0.00172172
-0.128796
0.0123898
-0.189107
-0.0902706
0.00313117
0.371628
0.000266272
0.961118
-0.0105841
1.40717
-0.0249323
1.74949
-0.0425006
2.07714
-0.0662076
2.41665
-0.0979582
2.8042
-0.140907
3.24419
-0.200973
3.74057
-0.303171
4.33801
-0.524597
4.56685
-1.02392
5.41639
-1.30573
6.40227
-1.34703
5.69619
-1.22031
4.51311
-0.794977
2.79798
-0.0849003
0.503465
0.0457996
-0.259496
0.0260716
-0.169379
-0.064199
0.00540111
0.366227
0.00412974
0.962389
-0.00507195
1.41637
-0.0191848
1.76361
-0.0372857
2.09524
-0.0614937
2.44086
-0.0937862
2.83649
-0.137899
3.2883
-0.199373
3.80204
-0.307705
4.44634
-0.554934
4.81408
-1.04068
5.90214
-1.23865
6.60023
-1.25554
5.71308
-1.04772
4.30528
-0.475317
2.22558
-0.00346136
0.0316092
0.00946682
-0.272424
0.0141848
-0.174097
-0.0500141
0.00834808
0.357879
0.00970666
0.961031
0.00241848
1.42366
-0.0105422
1.77657
-0.028216
2.11291
-0.0525231
2.46517
-0.0850088
2.86898
-0.12892
3.33221
-0.191873
3.865
-0.30608
4.56055
-0.570455
5.07845
-1.0153
6.34699
-1.14247
6.7274
-1.13004
5.70064
-0.885167
4.06041
-0.284102
1.62451
-0.064565
-0.187928
-0.0377574
-0.299231
-0.0108126
-0.201042
-0.0608267
0.0123182
0.345561
0.0179818
0.955367
0.0134554
1.42819
0.00231553
1.78771
-0.0162422
2.13147
-0.0397405
2.48867
-0.0709798
2.90022
-0.114212
3.37545
-0.175949
3.92674
-0.291679
4.67628
-0.56057
5.34734
-0.9429
6.72932
-1.01785
6.80235
-0.963688
5.64648
-0.705671
3.80239
-0.130716
1.04956
-0.0611058
-0.257538
-0.0407283
-0.319609
-0.0148369
-0.226934
-0.0756636
0.0178474
0.327713
0.0290277
0.944187
0.0273974
1.42982
0.0174337
1.79767
0.00127956
2.14763
-0.0197643
2.50971
-0.0493654
2.92982
-0.090134
3.41621
-0.149623
3.98622
-0.263659
4.79032
-0.513903
5.59759
-0.823125
7.03854
-0.865754
6.84498
-0.77189
5.55262
-0.464888
3.49539
-0.00387375
0.588543
0.0207585
-0.28217
0.0105838
-0.309434
0.00254479
-0.218895
-0.0731188
0.0245903
0.303123
0.0434504
0.925327
0.0470934
1.42618
0.0398698
1.80489
0.0269515
2.16054
0.00753765
2.52912
-0.019197
2.95655
-0.0559454
3.45296
-0.110176
4.04045
-0.214354
4.8945
-0.42764
5.81087
-0.650322
7.26122
-0.701173
6.89583
-0.597532
5.44898
-0.256135
3.154
0.0655264
0.266881
0.056228
-0.272872
0.053637
-0.306843
0.0334754
-0.198733
-0.0396434
0.0333486
0.269774
0.0620796
0.896596
0.0721118
1.41614
0.0696482
1.80736
0.0608725
2.16932
0.0449655
2.54503
0.0224752
2.97904
-0.00917761
3.48461
-0.0554408
4.08672
-0.139272
4.97833
-0.302093
5.97369
-0.44249
7.40162
-0.484697
6.93803
-0.431895
5.39618
-0.159451
2.88155
-0.0353779
0.142808
-0.0214125
-0.286837
0.0161665
-0.344422
0.0350899
-0.217656
-0.00455352
0.0429553
0.226819
0.0849494
0.854602
0.105022
1.39607
0.108912
1.80347
0.10452
2.17371
0.0929715
2.55658
0.0772658
2.99475
0.0544557
3.50743
0.0174508
4.12372
-0.0302288
5.02601
-0.127377
6.07084
-0.208886
7.48313
-0.259747
6.98889
-0.339542
5.47597
-0.301403
2.84341
-0.512477
0.353883
-0.507924
-0.291391
-0.341234
-0.511112
-0.135829
-0.423061
-0.140383
0.0535649
0.173254
0.112741
0.795425
0.146202
1.36261
0.158098
1.79157
0.160488
2.17132
0.155015
2.56205
0.147135
3.00263
0.135076
3.51948
0.119858
4.13894
0.0982395
5.04763
0.110817
6.05826
0.115722
7.47822
0.031214
7.0734
-0.148812
5.656
-0.450921
3.14552
-0.810015
0.712976
-0.816375
-0.28503
-0.617249
-0.710239
-0.288331
-0.751978
-0.428714
0.0574796
0.115775
0.141839
0.711066
0.195042
1.30941
0.220064
1.76655
0.23107
2.16032
0.232842
2.56028
0.233969
3.0015
0.235659
3.51779
0.243325
4.13127
0.262826
5.02812
0.382005
5.93909
0.530101
7.33013
0.569595
7.03391
0.539898
5.68569
0.188771
3.49665
-0.330439
1.23219
-0.643107
0.027637
-0.644228
-0.709118
-0.33477
-1.06144
-0.763484
0.0508308
0.0649438
0.170021
0.591875
0.253922
1.22551
0.294422
1.72605
0.315818
2.13892
0.327854
2.54824
0.339064
2.99029
0.356307
3.50055
0.391145
4.09644
0.465674
4.9536
0.743204
5.66155
1.20657
6.86676
1.61181
6.62867
1.9549
5.3426
1.74278
3.70878
1.05548
1.91949
0.498805
0.58431
0.110761
-0.321073
-0.0686935
-0.881981
-0.832178
0.0370862
0.0278576
0.199355
0.429606
0.315275
1.10959
0.383882
1.65744
0.420091
2.10271
0.444115
2.52422
0.463078
2.97133
0.494181
3.46945
0.557669
4.03295
0.695164
4.8161
1.09121
5.26551
1.8135
6.14446
2.23075
6.21143
2.47064
5.10271
2.36512
3.8143
1.90531
2.37929
1.40562
1.084
0.898809
0.185736
0.342138
-0.32531
-0.490039
0.0308218
-0.00296416
0.21978
0.240648
0.393148
0.936218
0.487834
1.56276
0.536958
2.05359
0.57424
2.48694
0.603278
2.94229
0.647926
3.4248
0.728841
3.95203
0.890157
4.65478
1.27732
4.87835
2.04057
5.38122
2.44816
5.80384
2.66349
4.88738
2.62512
3.85267
2.20263
2.80179
1.58529
1.70135
0.95568
0.815343
0.423489
0.20688
-0.0665501
0.0279958
-0.03096
0.185824
0.08282
0.447494
0.674547
0.605634
1.40462
0.679812
1.97941
0.72538
2.44137
0.762199
2.90547
0.801897
3.3851
0.866207
3.88772
1.00237
4.51862
1.24928
4.63145
1.88609
4.7444
2.25293
5.43699
2.35627
4.78404
2.28883
3.92011
2.00636
3.08426
1.50201
2.2057
0.947743
1.36961
0.397861
0.756762
0.331311
0.0168715
-0.0478315
0.107341
-0.00764992
0.40109
0.380799
0.598734
1.20698
0.690887
1.88726
0.721083
2.41117
0.732638
2.89392
0.724839
3.3929
0.718957
3.89361
0.740781
4.4968
0.802883
4.56934
1.05134
4.49595
1.2841
5.20423
1.28156
4.78658
1.20305
3.99862
1.04979
3.23752
0.791109
2.46438
0.48995
1.67077
0.199924
1.04679
0.531235
0.00602192
-0.0538534
0.0540389
-0.0556669
0.250772
0.184066
0.439993
1.01775
0.533558
1.79369
0.566602
2.37813
0.583384
2.87713
0.580698
3.39559
0.575846
3.89846
0.570494
4.50215
0.592749
4.54709
0.744833
4.34387
0.932333
5.01673
0.929201
4.78971
0.852053
4.07576
0.73235
3.35722
0.553392
2.64334
0.331329
1.89283
0.125454
1.25266
0.65669
0.02493
-0.0787835
0.0678294
-0.0985663
0.148781
0.103114
0.285315
0.881221
0.368694
1.71031
0.407605
2.33922
0.428375
2.85636
0.438208
3.38576
0.440095
3.89657
0.434599
4.50764
0.43263
4.54906
0.519514
4.25698
0.651282
4.88496
0.649652
4.79134
0.579814
4.1456
0.486588
3.45045
0.362851
2.76707
0.211484
2.0442
0.0691735
1.39497
0.725863
0.0308311
-0.109615
0.0625198
-0.130255
0.061392
0.104242
0.126178
0.816435
0.194399
1.64209
0.24531
2.28831
0.278213
2.82346
0.301579
3.36239
0.315484
3.88267
0.32009
4.50304
0.309195
4.55995
0.349601
4.21658
0.435372
4.79919
0.434231
4.79248
0.380209
4.19962
0.306778
3.52388
0.215401
2.85845
0.108145
2.15145
0.0173974
1.48572
0.74326
0.0206337
-0.130248
0.0219364
-0.131558
-0.0227525
0.148931
-0.0206211
0.814303
0.0289873
1.59248
0.0842564
2.23304
0.135362
2.77236
0.176584
3.32117
0.209321
3.84993
0.223591
4.48877
0.214014
4.56953