/*--------------------------------*- C++ -*----------------------------------*\
| =========                 |                                                 |
| \\      /  F ield         | OpenFOAM: The Open Source CFD Toolbox           |
|  \\    /   O peration     | Version:  4.0                                   |
|   \\  /    A nd           | Web:      www.OpenFOAM.org                      |
|    \\/     M anipulation  |                                                 |
\*---------------------------------------------------------------------------*/
FoamFile
{
    version     2.0;
    format      ascii;
    class       volVectorField;
    location    "40";
    object      U;
}
// * * * * * * * * * * * * * * * * * * * * * * * * * * * * * * * * * * * * * //

dimensions      [0 1 -1 0 0 0 0];

internalField   nonuniform List<vector> 
2200
(
(0.878852 -0.0304156 0)
(1.00579 -0.0512866 0)
(1.00331 -0.0353991 0)
(1.0003 -0.0244603 0)
(0.999869 -0.0166857 0)
(1 -0.0107407 0)
(1.00003 -0.00688558 0)
(1.00003 -0.00425706 0)
(1.00004 -0.00229788 0)
(1.00017 -0.000708406 0)
(1.00006 0.000903748 0)
(1.00006 0.00253248 0)
(1.00004 0.0045021 0)
(0.999991 0.00708607 0)
(1.00002 0.0108871 0)
(0.999863 0.0167147 0)
(1.00023 0.0244488 0)
(1.00348 0.0350326 0)
(1.00593 0.0513636 0)
(0.878985 0.0303353 0)
(0.711954 -0.032768 0)
(0.996614 -0.0630327 0)
(1.03324 -0.056208 0)
(1.02482 -0.046466 0)
(1.01589 -0.0361823 0)
(1.00965 -0.0264555 0)
(1.00584 -0.0181633 0)
(1.0037 -0.0114206 0)
(1.00251 -0.00604144 0)
(1.00197 -0.00157348 0)
(1.00195 0.00261176 0)
(1.00245 0.00695373 0)
(1.00359 0.0121179 0)
(1.00577 0.018759 0)
(1.00948 0.0270818 0)
(1.01566 0.0368053 0)
(1.0247 0.0472303 0)
(1.03304 0.0575644 0)
(0.996637 0.063149 0)
(0.711771 0.03298 0)
(0.535517 -0.0238939 0)
(0.969854 -0.0569396 0)
(1.05641 -0.0547148 0)
(1.05224 -0.0487593 0)
(1.03623 -0.0404468 0)
(1.02449 -0.0323325 0)
(1.01598 -0.0240896 0)
(1.01045 -0.0162421 0)
(1.00725 -0.00899679 0)
(1.00578 -0.00243986 0)
(1.00571 0.00393991 0)
(1.00708 0.0104547 0)
(1.01023 0.0176206 0)
(1.01577 0.0253418 0)
(1.02424 0.0332814 0)
(1.03603 0.0412568 0)
(1.05204 0.049313 0)
(1.05634 0.0536917 0)
(0.969228 0.0575468 0)
(0.534467 0.0239284 0)
(0.39216 -0.0136664 0)
(0.911643 -0.0464462 0)
(1.05739 -0.0470125 0)
(1.0694 -0.0444226 0)
(1.05472 -0.038274 0)
(1.03922 -0.0316169 0)
(1.02754 -0.0248276 0)
(1.01902 -0.0175968 0)
(1.0136 -0.0101025 0)
(1.01091 -0.00252379 0)
(1.0108 0.00507627 0)
(1.01331 0.0125082 0)
(1.0186 0.0197395 0)
(1.02681 0.0265871 0)
(1.03841 0.0329744 0)
(1.05402 0.0394188 0)
(1.0685 0.0454813 0)
(1.05577 0.0480841 0)
(0.910121 0.0469126 0)
(0.390207 0.0137495 0)
(0.307453 -0.00452465 0)
(0.846496 -0.0324194 0)
(1.0493 -0.0400053 0)
(1.07942 -0.0382395 0)
(1.06814 -0.0335938 0)
(1.05158 -0.0279496 0)
(1.03823 -0.022653 0)
(1.02804 -0.0166999 0)
(1.02102 -0.00987557 0)
(1.01724 -0.00237127 0)
(1.01702 0.00537718 0)
(1.02047 0.0126707 0)
(1.02715 0.0191742 0)
(1.03724 0.0248292 0)
(1.05044 0.0299334 0)
(1.06678 0.0353223 0)
(1.07778 0.0397708 0)
(1.04732 0.0414296 0)
(0.843332 0.032878 0)
(0.304259 0.00469675 0)
(0.26398 0.000103595 0)
(0.788689 -0.0200838 0)
(1.03321 -0.0314983 0)
(1.08347 -0.0321176 0)
(1.07729 -0.0288801 0)
(1.06081 -0.0239916 0)
(1.04711 -0.0194914 0)
(1.03626 -0.014465 0)
(1.02846 -0.00846773 0)
(1.02406 -0.0014904 0)
(1.02377 0.00583567 0)
(1.02764 0.0125284 0)
(1.035 0.0180759 0)
(1.04543 0.0227336 0)
(1.05884 0.0265929 0)
(1.07522 0.0311041 0)
(1.08091 0.0338713 0)
(1.02988 0.0330451 0)
(0.783612 0.0206412 0)
(0.259574 8.37756e-05 0)
(0.23997 0.00105687 0)
(0.737851 -0.0123361 0)
(1.01327 -0.0251272 0)
(1.08373 -0.0269672 0)
(1.08277 -0.0247671 0)
(1.06762 -0.0207026 0)
(1.05403 -0.016749 0)
(1.04322 -0.0122523 0)
(1.03516 -0.00695182 0)
(1.03033 -0.000701544 0)
(1.02987 0.00592749 0)
(1.03386 0.0118333 0)
(1.0414 0.0167092 0)
(1.05174 0.0206363 0)
(1.06525 0.0243022 0)
(1.08 0.0277448 0)
(1.08041 0.0294154 0)
(1.00819 0.02696 0)
(0.730051 0.0130391 0)
(0.234069 -0.000862568 0)
(0.225504 0.000939731 0)
(0.694737 -0.00811785 0)
(0.992537 -0.02091 0)
(1.08183 -0.0233685 0)
(1.08652 -0.0215897 0)
(1.07305 -0.0181636 0)
(1.05964 -0.014414 0)
(1.04905 -0.0101149 0)
(1.0411 -0.00515559 0)
(1.03623 0.000501916 0)
(1.03566 0.00635487 0)
(1.03947 0.0115694 0)
(1.04651 0.0158633 0)
(1.05656 0.0195035 0)
(1.0695 0.0224604 0)
(1.08231 0.0251914 0)
(1.07636 0.026192 0)
(0.984567 0.023015 0)
(0.683803 0.0089652 0)
(0.217983 -0.000741165 0)
(0.215799 0.000613195 0)
(0.65911 -0.00570885 0)
(0.97176 -0.017751 0)
(1.07888 -0.0204548 0)
(1.08961 -0.0189474 0)
(1.07771 -0.0158975 0)
(1.06446 -0.0123916 0)
(1.05413 -0.00829926 0)
(1.04636 -0.0036388 0)
(1.04135 0.00157163 0)
(1.04043 0.00680712 0)
(1.04395 0.011618 0)
(1.0507 0.0154561 0)
(1.06024 0.0186571 0)
(1.07306 0.0214026 0)
(1.08412 0.023647 0)
(1.07196 0.0242857 0)
(0.961051 0.0204409 0)
(0.644366 0.00683286 0)
(0.206197 -0.000381022 0)
(0.208551 0.000299659 0)
(0.630385 -0.00422784 0)
(0.952498 -0.0150229 0)
(1.07552 -0.0179906 0)
(1.09264 -0.0167624 0)
(1.08214 -0.0139592 0)
(1.06878 -0.0104812 0)
(1.05844 -0.00658535 0)
(1.05078 -0.00209677 0)
(1.04597 0.00282653 0)
(1.04505 0.00774071 0)
(1.048 0.0119677 0)
(1.0541 0.0155178 0)
(1.06332 0.0184114 0)
(1.07595 0.0208657 0)
(1.08505 0.0226485 0)
(1.06523 0.0227697 0)
(0.937035 0.0183516 0)
(0.610651 0.00560834 0)
(0.196356 -1.32302e-05 0)
(0.202704 7.63448e-05 0)
(0.607125 -0.00316861 0)
(0.934884 -0.0126923 0)
(1.07234 -0.0158518 0)
(1.09561 -0.0147411 0)
(1.08662 -0.0120647 0)
(1.07311 -0.00872498 0)
(1.06241 -0.00499101 0)
(1.05441 -0.000728402 0)
(1.04917 0.00399271 0)
(1.04757 0.00883913 0)
(1.05024 0.0128648 0)
(1.05653 0.015957 0)
(1.06596 0.0184114 0)
(1.0785 0.0205671 0)
(1.08597 0.0220529 0)
(1.05934 0.0216992 0)
(0.914645 0.0166063 0)
(0.581785 0.0048357 0)
(0.187407 0.000258666 0)
(0.197969 4.63871e-06 0)
(0.588453 -0.00228294 0)
(0.918317 -0.0102886 0)
(1.06896 -0.0135794 0)
(1.09904 -0.0127118 0)
(1.0913 -0.0101185 0)
(1.07742 -0.00666019 0)
(1.06633 -0.00297926 0)
(1.05803 0.00121513 0)
(1.05276 0.0058219 0)
(1.05118 0.0104064 0)
(1.05343 0.0140238 0)
(1.05909 0.0167186 0)
(1.06841 0.0189022 0)
(1.08113 0.0207528 0)
(1.08605 0.0216699 0)
(1.05062 0.0206934 0)
(0.891216 0.0150535 0)
(0.556004 0.00434132 0)
(0.178878 0.000432285 0)
(0.194614 1.93242e-05 0)
(0.574529 -0.00140671 0)
(0.905046 -0.00777127 0)
(1.06614 -0.010825 0)
(1.10193 -0.00999959 0)
(1.0959 -0.0076557 0)
(1.0821 -0.00449175 0)
(1.07065 -0.000932479 0)
(1.06195 0.00326231 0)
(1.05601 0.00773621 0)
(1.05347 0.0119521 0)
(1.05527 0.0153379 0)
(1.06137 0.0178271 0)
(1.07078 0.0194886 0)
(1.08275 0.020933 0)
(1.08556 0.0212676 0)
(1.04331 0.0198486 0)
(0.870166 0.0137431 0)
(0.53379 0.00395846 0)
(0.170938 0.000504181 0)
(0.192591 5.56392e-05 0)
(0.564385 -0.000667883 0)
(0.892507 -0.005696 0)
(1.06306 -0.00843774 0)
(1.10521 -0.00747702 0)
(1.1006 -0.00495654 0)
(1.08675 -0.00174878 0)
(1.07497 0.00182346 0)
(1.06572 0.00582732 0)
(1.05925 0.010161 0)
(1.05658 0.0140828 0)
(1.05802 0.0170945 0)
(1.06305 0.0190025 0)
(1.07228 0.0203078 0)
(1.08363 0.0208968 0)
(1.08397 0.0211193 0)
(1.03197 0.0191716 0)
(0.846981 0.0126322 0)
(0.512681 0.00373176 0)
(0.163157 0.000538274 0)
(0.191945 4.59885e-05 0)
(0.557195 -6.13584e-05 0)
(0.8837 -0.00333095 0)
(1.06144 -0.00558974 0)
(1.10825 -0.00433262 0)
(1.10506 -0.00177816 0)
(1.0915 0.00162372 0)
(1.07948 0.0052343 0)
(1.06961 0.0093051 0)
(1.06208 0.0133783 0)
(1.05836 0.0167277 0)
(1.05957 0.0189567 0)
(1.0652 0.0202907 0)
(1.07397 0.0210663 0)
(1.08401 0.0216114 0)
(1.08202 0.0213448 0)
(1.02307 0.0189142 0)
(0.827162 0.0120668 0)
(0.494319 0.00369865 0)
(0.155859 0.000579075 0)
(0.192634 -6.93827e-05 0)
(0.554614 0.00100756 0)
(0.877151 -0.00122534 0)
(1.06047 -0.00283641 0)
(1.11241 -0.00122169 0)
(1.11034 0.00181464 0)
(1.09667 0.00533438 0)
(1.08439 0.00924364 0)
(1.07416 0.0130879 0)
(1.06609 0.0167632 0)
(1.06176 0.0195851 0)
(1.06191 0.0214467 0)
(1.06588 0.0222598 0)
(1.07428 0.0225999 0)
(1.08357 0.0227877 0)
(1.07802 0.0220517 0)
(1.00959 0.0189016 0)
(0.803868 0.011701 0)
(0.475108 0.00374522 0)
(0.14804 0.000636419 0)
(0.194928 0.000338148 0)
(0.555506 0.00162397 0)
(0.873832 0.0015384 0)
(1.06145 0.000754789 0)
(1.11685 0.00267028 0)
(1.11568 0.00561177 0)
(1.10194 0.00951767 0)
(1.08919 0.0133517 0)
(1.07827 0.0175322 0)
(1.06931 0.0214573 0)
(1.06388 0.0242024 0)
(1.063 0.0252111 0)
(1.06699 0.0253134 0)
(1.07484 0.0251245 0)
(1.08253 0.0243214 0)
(1.07455 0.0226925 0)
(0.998885 0.0191413 0)
(0.784693 0.0115268 0)
(0.45853 0.00380704 0)
(0.140634 0.000665721 0)
(0.199221 0.00068354 0)
(0.559112 0.00252913 0)
(0.874976 0.00405267 0)
(1.06316 0.00406568 0)
(1.12168 0.00659063 0)
(1.12156 0.0101394 0)
(1.10722 0.0140179 0)
(1.09354 0.0183391 0)
(1.0817 0.022614 0)
(1.07159 0.0263685 0)
(1.06455 0.0287075 0)
(1.06229 0.029531 0)
(1.06486 0.029096 0)
(1.07266 0.0279791 0)
(1.07966 0.0267735 0)
(1.0677 0.0244377 0)
(0.982238 0.0198426 0)
(0.760211 0.0115321 0)
(0.439373 0.00397958 0)
(0.132256 0.000706875 0)
(0.206481 0.000851705 0)
(0.567928 0.00392425 0)
(0.879874 0.00688665 0)
(1.06768 0.00878118 0)
(1.12735 0.0118921 0)
(1.12767 0.0153943 0)
(1.11272 0.0200354 0)
(1.09785 0.0245449 0)
(1.08441 0.0291393 0)
(1.07253 0.0332504 0)
(1.06461 0.0355153 0)
(1.06192 0.0353689 0)
(1.06462 0.0337414 0)
(1.07148 0.0316965 0)
(1.07631 0.0291846 0)
(1.06076 0.0260395 0)
(0.968363 0.0206167 0)
(0.740497 0.0119262 0)
(0.422867 0.00430416 0)
(0.124304 0.000745966 0)
(0.21544 0.00103775 0)
(0.581047 0.00524312 0)
(0.88968 0.0103718 0)
(1.07448 0.0137465 0)
(1.13397 0.0174413 0)
(1.13498 0.0221104 0)
(1.11927 0.0270935 0)
(1.10352 0.0323662 0)
(1.08888 0.0372606 0)
(1.07522 0.0409222 0)
(1.0645 0.0419216 0)
(1.05917 0.0408491 0)
(1.05962 0.0387375 0)
(1.06614 0.035894 0)
(1.07051 0.0330937 0)
(1.05041 0.0287959 0)
(0.948313 0.0220433 0)
(0.714097 0.012748 0)
(0.401896 0.00476943 0)
(0.114656 0.000782305 0)
(0.228833 0.00144439 0)
(0.602242 0.00717564 0)
(0.90662 0.0148278 0)
(1.0852 0.0201391 0)
(1.14258 0.0249304 0)
(1.14344 0.0297152 0)
(1.12708 0.0356338 0)
(1.11013 0.0415359 0)
(1.09373 0.0469666 0)
(1.07787 0.0509636 0)
(1.06544 0.0519097 0)
(1.05976 0.0504183 0)
(1.0595 0.0467568 0)
(1.06385 0.0422642 0)
(1.06427 0.0375569 0)
(1.03925 0.0319246 0)
(0.930415 0.0242888 0)
(0.692297 0.0143123 0)
(0.382749 0.00548592 0)
(0.105142 0.000826887 0)
(0.245139 0.00201459 0)
(0.627811 0.00879184 0)
(0.928556 0.0188767 0)
(1.09934 0.0262965 0)
(1.15295 0.0322912 0)
(1.1535 0.0391907 0)
(1.13554 0.0461244 0)
(1.11689 0.0529818 0)
(1.09836 0.0589641 0)
(1.0799 0.0626723 0)
(1.06424 0.062235 0)
(1.05434 0.0586163 0)
(1.05117 0.0538787 0)
(1.05456 0.0488033 0)
(1.05547 0.0439005 0)
(1.02509 0.0369804 0)
(0.90581 0.0276381 0)
(0.661137 0.0165357 0)
(0.356154 0.00628187 0)
(0.0929641 0.000874408 0)
(0.267814 0.00285537 0)
(0.6625 0.0125978 0)
(0.957545 0.0253457 0)
(1.11808 0.0354114 0)
(1.16625 0.0433836 0)
(1.165 0.0514061 0)
(1.14496 0.0597461 0)
(1.12356 0.0675255 0)
(1.1017 0.0738543 0)
(1.07967 0.0771581 0)
(1.06152 0.0761973 0)
(1.05166 0.0719893 0)
(1.04892 0.0658566 0)
(1.05039 0.0585748 0)
(1.04477 0.051442 0)
(1.00786 0.0427281 0)
(0.881351 0.0321158 0)
(0.63267 0.0194095 0)
(0.330166 0.00730321 0)
(0.0806769 0.000932094 0)
(0.299551 0.00374974 0)
(0.708858 0.0156507 0)
(0.996164 0.0332167 0)
(1.14281 0.0465412 0)
(1.18299 0.0564434 0)
(1.17916 0.0675658 0)
(1.15549 0.0775396 0)
(1.13079 0.0861046 0)
(1.10545 0.0922047 0)
(1.07999 0.0942779 0)
(1.05813 0.0909372 0)
(1.04344 0.0837982 0)
(1.03612 0.0754023 0)
(1.03567 0.0672837 0)
(1.03178 0.0598192 0)
(0.988803 0.050035 0)
(0.849423 0.0372276 0)
(0.591554 0.0224867 0)
(0.294044 0.00807625 0)
(0.065098 0.000926155 0)
(0.336104 0.00723647 0)
(0.767103 0.0247867 0)
(1.04362 0.0460427 0)
(1.17333 0.0632635 0)
(1.20459 0.0762311 0)
(1.19554 0.0895976 0)
(1.1675 0.100553 0)
(1.13849 0.109232 0)
(1.10863 0.114619 0)
(1.07835 0.115071 0)
(1.05268 0.10996 0)
(1.03727 0.101045 0)
(1.03148 0.0915981 0)
(1.03012 0.0813621 0)
(1.01678 0.0708243 0)
(0.964006 0.058278 0)
(0.814829 0.0433941 0)
(0.551676 0.0257413 0)
(0.259571 0.00900587 0)
(0.0504068 0.000813143 0)
(0.41716 0.0108776 0)
(0.853368 0.0357749 0)
(1.10689 0.0662717 0)
(1.21165 0.0882733 0)
(1.22997 0.102942 6.94577e-34)
(1.21383 0.119289 -3.10447e-34)
(1.17936 0.13021 0)
(1.1453 0.137863 0)
(1.11072 0.141241 0)
(1.07655 0.139069 0)
(1.04731 0.130456 0)
(1.02748 0.118483 0)
(1.01597 0.105756 0)
(1.00999 0.0933906 0)
(0.998163 0.0825517 0)
(0.937123 0.0685837 0)
(0.770325 0.0500143 0)
(0.495074 0.0290733 0)
(0.210921 0.00899272 0)
(0.031798 0.000711935 0)
(0.487953 0.0261268 5.28159e-20)
(0.953572 0.0593255 -3.991e-20)
(1.1744 0.0999969 0)
(1.25077 0.125204 3.04444e-20)
(1.25768 0.141419 -2.46789e-20)
(1.2312 0.158697 3.27545e-34)
(1.18998 0.167801 0)
(1.15032 0.173613 1.71664e-20)
(1.11015 0.174851 -5.62195e-20)
(1.06999 0.170029 1.14335e-20)
(1.03548 0.158689 0)
(1.01364 0.144125 -2.87236e-20)
(1.00424 0.130128 -3.43129e-20)
(0.999892 0.11708 5.99747e-20)
(0.972728 0.101841 -4.73594e-20)
(0.891015 0.0819353 0)
(0.705184 0.0583238 -1.71264e-20)
(0.422029 0.0313803 0)
(0.157273 0.00977506 -9.42791e-20)
(0.0140132 0.00084258 1.11175e-19)
(0.522635 0.053861 -6.88434e-21)
(1.015 0.102656 1.23051e-19)
(1.22285 0.150038 -7.90417e-21)
(1.284 0.172775 -7.75432e-20)
(1.28175 0.190285 -5.22881e-20)
(1.24604 0.205471 8.49543e-20)
(1.19851 0.212037 0)
(1.15307 0.21548 0)
(1.10712 0.213973 8.96464e-20)
(1.06196 0.206157 0)
(1.02356 0.192142 1.0422e-19)
(0.996723 0.175574 3.08185e-20)
(0.97918 0.159938 3.59629e-22)
(0.961914 0.142114 -6.55841e-20)
(0.934459 0.125175 0)
(0.846647 0.10355 0)
(0.651184 0.0724872 -2.80533e-19)
(0.375114 0.0398771 7.03024e-19)
(0.137507 0.0122756 -4.17126e-19)
(0.00706266 0.00125019 -4.91772e-19)
(0.52953 0.0764161 -7.58617e-20)
(1.05086 0.159372 2.83149e-20)
(1.2585 0.210607 1.47575e-20)
(1.31033 0.231635 1.35815e-19)
(1.30047 0.247144 1.42696e-20)
(1.2573 0.257881 -2.22149e-19)
(1.20417 0.260689 7.52111e-20)
(1.15308 0.261161 0)
(1.10147 0.25692 -1.89966e-19)
(1.05047 0.247062 1.6737e-19)
(1.00563 0.230137 -2.81307e-19)
(0.974646 0.211584 1.31694e-19)
(0.955669 0.19291 -8.50576e-20)
(0.942245 0.17602 1.91644e-19)
(0.903252 0.155973 0)
(0.808168 0.127295 -7.01392e-20)
(0.619771 0.090459 0)
(0.36511 0.0488801 3.88097e-19)
(0.138153 0.0185369 -9.21061e-19)
(0.0103386 0.00100432 5.76942e-19)
(0.522453 0.108207 2.2807e-19)
(1.06836 0.215981 -9.85154e-20)
(1.27945 0.275707 -2.03368e-20)
(1.3276 0.296042 0)
(1.31256 0.308978 -9.96395e-20)
(1.26424 0.314359 1.2256e-19)
(1.20673 0.312561 -8.04631e-20)
(1.15091 0.309287 0)
(1.09485 0.301327 1.35066e-19)
(1.03913 0.286621 -1.17721e-19)
(0.990508 0.26677 2.43869e-19)
(0.955306 0.246646 0)
(0.929206 0.226676 -1.80814e-19)
(0.902545 0.205383 1.01979e-19)
(0.868341 0.183946 2.57104e-19)
(0.780559 0.156106 -2.26196e-19)
(0.605012 0.114552 3.61636e-19)
(0.366907 0.0665736 -8.00349e-19)
(0.152425 0.0274617 5.05482e-19)
(0.0193835 0.00339991 -6.32422e-19)
(0.509903 0.132431 -8.97862e-20)
(1.07458 0.270179 6.47772e-20)
(1.28965 0.341526 -6.71539e-20)
(1.3366 0.361077 1.2861e-19)
(1.31812 0.371656 -1.18335e-19)
(1.26633 0.372216 3.92682e-20)
(1.20524 0.366124 3.66015e-21)
(1.14527 0.358961 -1.55142e-19)
(1.08417 0.347113 -1.41841e-19)
(1.02322 0.329834 -2.52882e-19)
(0.970149 0.308061 -5.24276e-19)
(0.929907 0.282803 -1.61011e-19)
(0.90227 0.260653 2.40543e-21)
(0.883208 0.241125 -3.48628e-19)
(0.840092 0.218334 -6.28792e-21)
(0.750519 0.183337 3.28897e-19)
(0.587243 0.137389 -9.94368e-20)
(0.368194 0.0842022 -5.78144e-20)
(0.165557 0.0380132 0)
(0.0280586 0.00659882 1.34338e-18)
(0.492317 0.153014 0)
(1.0679 0.319889 -9.72816e-21)
(1.29168 0.405026 -1.40314e-20)
(1.33882 0.425183 -1.27076e-20)
(1.3178 0.434119 1.16302e-19)
(1.2638 0.430125 -9.0632e-20)
(1.20037 0.419944 8.81956e-20)
(1.13754 0.408851 2.54226e-19)
(1.07407 0.392951 -7.87039e-20)
(1.01114 0.371216 1.25667e-19)
(0.953751 0.342401 2.8177e-19)
(0.909892 0.316997 3.5067e-19)
(0.878089 0.293413 -2.1068e-19)
(0.844361 0.269583 3.76984e-19)
(0.808028 0.245036 -2.98442e-19)
(0.73063 0.214226 0)
(0.581718 0.163758 -7.54138e-19)
(0.376138 0.105092 1.01509e-18)
(0.179665 0.0506928 7.57642e-20)
(0.0365083 0.0105894 -1.41705e-18)
(0.477717 0.173258 -5.13403e-21)
(1.05897 0.367814 4.10562e-20)
(1.2882 0.465456 1.03217e-19)
(1.33605 0.486478 -1.22414e-19)
(1.31312 0.494248 9.38785e-20)
(1.25765 0.486565 -8.88604e-20)
(1.1924 0.472921 1.75937e-19)
(1.12708 0.458089 -7.73703e-20)
(1.05987 0.438552 -3.18507e-19)
(0.990287 0.412957 1.23784e-22)
(0.928472 0.38388 -3.05556e-19)
(0.883198 0.353578 -3.76353e-19)
(0.850693 0.327361 2.31975e-19)
(0.827654 0.303486 -1.35474e-19)
(0.784757 0.278976 3.23505e-19)
(0.705988 0.240033 0)
(0.56658 0.188679 -4.66718e-19)
(0.376992 0.124475 6.89257e-19)
(0.188446 0.0630074 1.30682e-18)
(0.0423173 0.0144362 -1.53745e-18)
(0.463167 0.190692 8.0696e-21)
(1.04597 0.412371 -1.09997e-20)
(1.28098 0.523211 -7.83174e-20)
(1.32934 0.545728 1.27652e-19)
(1.30483 0.552578 1.17522e-20)
(1.24836 0.541312 -1.75759e-19)
(1.18184 0.524478 -1.01055e-19)
(1.11469 0.506392 -9.71374e-20)
(1.04555 0.483376 -1.78556e-19)
(0.976217 0.453957 2.87877e-19)
(0.914374 0.419463 3.09775e-19)
(0.865162 0.386028 5.97373e-19)
(0.826929 0.358656 0)
(0.791131 0.330246 6.0086e-21)
(0.756932 0.303407 -8.85848e-19)
(0.689119 0.27045 2.06236e-19)
(0.560001 0.213834 1.00598e-18)
(0.379303 0.145112 -2.96685e-19)
(0.194698 0.0748304 6.19258e-19)
(0.0462877 0.0179984 -5.16733e-20)
(0.453603 0.209176 5.86859e-21)
(1.03382 0.455101 1.52909e-20)
(1.27112 0.577735 -4.29622e-20)
(1.31994 0.601556 1.58564e-19)
(1.29415 0.607611 -2.07298e-19)
(1.23702 0.593594 1.76032e-19)
(1.16962 0.574223 1.04761e-19)
(1.1012 0.553003 2.91935e-19)
(1.03013 0.526587 3.60669e-19)
(0.956667 0.493981 -3.30011e-19)
(0.887753 0.455933 0)
(0.837187 0.419183 -2.24764e-19)
(0.803425 0.386521 2.58052e-19)
(0.776605 0.361834 3.24096e-19)
(0.735383 0.334087 -1.87363e-19)
(0.664484 0.292484 -4.5714e-19)
(0.541761 0.236717 -1.36625e-19)
(0.372048 0.161429 -1.46414e-21)
(0.193013 0.0843858 0)
(0.0471945 0.0201421 0)
(0.445245 0.224676 -4.21217e-20)
(1.02121 0.495278 0)
(1.25967 0.629501 -3.00293e-20)
(1.30839 0.655125 -6.65823e-22)
(1.28152 0.660416 2.31413e-19)
(1.22397 0.643588 -5.95807e-20)
(1.15596 0.621652 1.06481e-19)
(1.08641 0.597837 -1.98295e-19)
(1.01334 0.568567 2.73698e-19)
(0.937534 0.532312 -1.06649e-19)
(0.869894 0.488948 1.76873e-19)
(0.818555 0.449407 7.12299e-19)
(0.777947 0.418084 1.39247e-20)
(0.742252 0.38579 -3.3805e-19)
(0.707785 0.354903 6.24755e-19)
(0.646461 0.320144 4.2809e-21)
(0.530557 0.257185 1.4617e-19)
(0.364699 0.177104 -6.97836e-19)
(0.187294 0.0913769 7.15146e-19)
(0.045768 0.0215678 -8.46177e-19)
(0.438736 0.243452 2.82029e-23)
(1.00931 0.533514 0)
(1.24726 0.678004 0)
(1.29563 0.705361 -1.42862e-20)
(1.26785 0.709817 -7.17324e-20)
(1.20997 0.690799 8.46072e-20)
(1.14147 0.666986 -2.01751e-19)
(1.07081 0.640752 0)
(0.996394 0.608952 -4.02824e-19)
(0.919341 0.569561 4.76848e-19)
(0.848805 0.524746 5.01568e-19)
(0.791696 0.482112 -2.6125e-19)
(0.753665 0.443463 -3.14691e-19)
(0.726562 0.413452 7.37216e-19)
(0.687314 0.383346 -2.2183e-19)
(0.622264 0.336317 -2.64983e-19)
(0.510447 0.274986 -1.58792e-19)
(0.352968 0.188528 -7.52019e-19)
(0.179965 0.0956616 1.08946e-19)
(0.042834 0.0223382 9.13123e-19)
(0.435008 0.261859 -2.47267e-20)
(0.998391 0.569843 -2.8479e-20)
(1.23409 0.723728 2.35167e-20)
(1.28182 0.75312 -1.33522e-22)
(1.25332 0.756982 -6.38053e-20)
(1.19522 0.735765 1.44111e-19)
(1.12637 0.709932 0)
(1.05515 0.681624 1.18722e-19)
(0.979529 0.647398 -9.36137e-20)
(0.899436 0.605327 7.9452e-19)
(0.823634 0.555947 -1.14435e-19)
(0.768724 0.507485 1.29666e-19)
(0.729242 0.469942 0)
(0.691768 0.434227 -3.98821e-19)
(0.660312 0.398403 4.82116e-19)
(0.60341 0.360152 0)
(0.496063 0.288891 -3.42724e-19)
(0.338547 0.198125 1.00724e-18)
(0.169878 0.0978577 1.18672e-19)
(0.0387475 0.0221841 -1.12363e-18)
(0.432914 0.278688 -6.77539e-20)
(0.98843 0.604373 8.74413e-20)
(1.22086 0.766697 0)
(1.26774 0.797739 -1.25957e-20)
(1.23855 0.800883 0)
(1.18031 0.777962 -1.79356e-19)
(1.11132 0.750684 0)
(1.0394 0.720555 0)
(0.962359 0.684577 -1.21862e-19)
(0.880717 0.640497 -7.54666e-19)
(0.805909 0.588531 -9.25811e-19)
(0.747885 0.538825 1.50859e-19)
(0.702675 0.493861 5.42853e-19)
(0.676818 0.457622 4.38382e-19)
(0.639345 0.423669 -1.54683e-18)
(0.578624 0.370012 -6.21697e-19)
(0.472667 0.30139 3.63756e-19)
(0.321876 0.202745 0)
(0.158997 0.0982235 1.02086e-18)
(0.0343918 0.0211238 -1.21039e-18)
(0.431535 0.294328 8.50073e-20)
(0.978722 0.636768 -1.05019e-19)
(1.20748 0.806776 0)
(1.25335 0.839794 -1.08118e-20)
(1.2236 0.8426 1.1358e-20)
(1.1653 0.81803 0)
(1.09613 0.789155 6.15212e-20)
(1.02354 0.757355 8.08978e-20)
(0.944966 0.719385 -2.3094e-19)
(0.860698 0.672661 1.00669e-19)
(0.779807 0.617443 0)
(0.717217 0.562481 6.25122e-19)
(0.678667 0.517401 4.68614e-21)
(0.640849 0.475767 2.36428e-19)
(0.610424 0.432582 2.80685e-19)
(0.557585 0.388903 0)
(0.455955 0.3084 -5.96274e-19)
(0.304719 0.206289 1.17067e-18)
(0.147446 0.0969188 -1.23866e-18)
(0.0300951 0.0196804 2.6068e-18)
(0.430474 0.309332 0)
(0.969959 0.668067 0)
(1.19466 0.844624 -4.83417e-20)
(1.23926 0.879108 0)
(1.20891 0.881328 0)
(1.15051 0.855452 -1.56532e-19)
(1.08122 0.82551 6.31442e-20)
(1.00804 0.792386 1.75105e-20)
(0.928461 0.753319 -5.33417e-20)
(0.842743 0.7059 0)
(0.762241 0.64921 -1.4018e-19)
(0.700001 0.59216 -5.09649e-19)
(0.650167 0.540083 -6.12289e-19)
(0.623702 0.494495 -2.45704e-19)
(0.588782 0.453899 3.04405e-19)
(0.532133 0.391292 -7.17985e-19)
(0.430832 0.314718 1.28315e-18)
(0.286082 0.204886 3.37437e-21)
(0.13595 0.0942192 -1.18932e-18)
(0.0263208 0.0180065 -1.75897e-19)
(0.429482 0.32402 0)
(0.961364 0.697439 -8.80147e-20)
(1.18198 0.879737 6.21295e-20)
(1.22527 0.915978 0)
(1.1944 0.918036 0)
(1.13596 0.89097 3.1772e-19)
(1.06655 0.859773 0)
(0.992846 0.825365 0)
(0.912092 0.784841 -5.06141e-19)
(0.824131 0.735152 1.37364e-19)
(0.73752 0.674894 -1.24573e-18)
(0.667505 0.615238 0)
(0.625445 0.561235 -6.62859e-19)
(0.585793 0.510735 1.08234e-20)
(0.557012 0.455583 -9.77e-19)
(0.508798 0.404034 3.86519e-19)
(0.414198 0.312966 2.13058e-21)
(0.271015 0.20264 -1.35254e-18)
(0.126553 0.0905715 6.41618e-19)
(0.0228011 0.0162741 1.88226e-19)
(0.428631 0.338339 0)
(0.953833 0.726023 -1.30173e-19)
(1.17002 0.913172 6.56472e-20)
(1.21179 0.950535 6.34562e-20)
(1.18036 0.952059 -2.37203e-20)
(1.12186 0.924013 3.33931e-20)
(1.05249 0.892103 -4.12279e-20)
(0.978512 0.856736 4.98225e-19)
(0.896821 0.815463 5.41429e-19)
(0.806602 0.765732 1.05107e-18)
(0.719284 0.706263 1.03521e-18)
(0.651023 0.643919 1.81114e-19)
(0.595075 0.583066 9.53589e-19)
(0.56589 0.525983 5.87459e-19)
(0.532482 0.473716 7.01408e-19)
(0.481768 0.396134 -4.23566e-19)
(0.388628 0.309676 -4.94668e-19)
(0.255515 0.191303 5.79259e-19)
(0.119711 0.087743 -3.43741e-19)
(0.0240544 0.0204573 6.09274e-19)
(0.427802 0.35223 1.88069e-19)
(0.946305 0.752508 2.0293e-19)
(1.15818 0.944046 3.94162e-20)
(1.19858 0.982814 1.62347e-20)
(1.16673 0.984225 4.35059e-20)
(1.10828 0.955336 -8.88366e-20)
(1.03895 0.922506 4.0355e-20)
(0.96445 0.886215 -2.06223e-20)
(0.881406 0.843815 -6.29926e-19)
(0.789522 0.792381 -1.13972e-18)
(0.698481 0.730337 7.20533e-20)
(0.620308 0.665531 0)
(0.56983 0.604679 0)
(0.524131 0.542799 -3.06112e-19)
(0.494301 0.46883 -1.14582e-18)
(0.452932 0.400078 9.12345e-19)
(0.375706 0.287896 5.41984e-19)
(0.260335 0.173547 0)
(0.131343 0.0637074 1.096e-18)
(0.0176681 -0.00424322 -6.51774e-19)
(0.427106 0.365482 -9.95281e-20)
(0.939652 0.778212 8.85942e-20)
(1.14706 0.973568 -9.77647e-20)
(1.18599 1.01312 -7.01671e-20)
(1.15368 1.01399 -4.56524e-22)
(1.09525 0.984349 -2.77527e-20)
(1.02603 0.951096 0)
(0.951328 0.914159 -6.26368e-19)
(0.867691 0.871395 7.77087e-20)
(0.774303 0.820633 0)
(0.680714 0.760506 0)
(0.603033 0.695079 1.14668e-19)
(0.537598 0.627204 1.53465e-19)
(0.500493 0.556661 -3.30094e-19)
(0.463285 0.486896 8.22687e-19)
(0.415804 0.379144 -9.93744e-19)
(0.340649 0.268146 -1.15909e-18)
(0.257938 0.150236 1.02555e-18)
(0.17974 0.0989922 -3.91152e-19)
(0.113606 0.0818528 2.27855e-19)
(0.426246 0.377979 1.28261e-19)
(0.932811 0.801741 0)
(1.13606 1.00063 0)
(1.17374 1.0413 -1.74417e-20)
(1.14111 1.04207 1.41202e-20)
(1.08282 1.01181 -2.09299e-20)
(1.01369 0.977899 1.74608e-19)
(0.938665 0.940403 6.45149e-19)
(0.854081 0.896984 1.14372e-18)
(0.75907 0.844986 -8.52152e-20)
(0.662016 0.782444 1.75232e-19)
(0.575716 0.715988 -1.02601e-18)
(0.514024 0.650644 -1.01734e-18)
(0.454158 0.578247 -1.76806e-19)
(0.411267 0.47858 0)
(0.371426 0.384724 -9.15457e-21)
(0.311081 0.204667 6.36243e-19)
(0.273808 0.0493365 -1.07484e-18)
(0.234403 -0.07593 8.17662e-19)
(0.0819002 -0.096333 6.79812e-19)
(0.425421 0.389971 -2.8463e-19)
(0.926641 0.824625 -1.29645e-19)
(1.12569 1.0267 6.87882e-21)
(1.16202 1.068 4.65743e-20)
(1.129 1.0683 0)
(1.07072 1.03751 -1.13519e-19)
(1.00176 1.00348 -2.47819e-19)
(0.926695 0.965734 6.4357e-22)
(0.841689 0.922405 -5.99883e-19)
(0.74505 0.871498 -8.35749e-20)
(0.645227 0.812216 7.76258e-20)
(0.558955 0.748231 9.00959e-19)
(0.478345 0.677091 9.93141e-19)
(0.426717 0.594598 1.71755e-19)
(0.37411 0.508337 8.77894e-19)
(0.300213 0.357548 0)
(0.184702 0.191459 0)
(0.013432 0.222606 7.42659e-19)
(-0.076333 0.629162 -3.12768e-20)
(0.00523958 1.53 -9.07484e-19)
(0.424346 0.401349 1.57854e-19)
(0.920296 0.845645 3.576e-19)
(1.11538 1.05071 -4.78835e-19)
(1.15053 1.09309 2.27733e-19)
(1.11718 1.09352 1.13165e-22)
(1.05902 1.0625 -7.35886e-20)
(0.990157 1.02825 0)
(0.914816 0.9905 -5.40026e-19)
(0.828849 0.947178 0)
(0.73077 0.895887 1.1845e-18)
(0.628375 0.835065 -9.34714e-20)
(0.531892 0.77042 1.04807e-19)
(0.458252 0.706448 1.13222e-18)
(0.373313 0.632817 -3.71451e-19)
(0.282447 0.510671 -4.47414e-19)
(0.203581 0.415746 0)
(0.0944452 0.52636 0)
(0.0282477 1.3101 0)
(0.0736672 2.45436 -4.22305e-19)
(0.102041 2.90647 -2.59088e-19)
(0.423214 0.412139 0)
(0.914553 0.86606 0)
(1.10571 1.074 1.75675e-19)
(1.1396 1.11702 -1.8342e-19)
(1.10585 1.1172 6.78441e-20)
(1.04766 1.086 7.68569e-20)
(0.978951 1.05205 3.14905e-20)
(0.903591 1.01456 -2.4518e-20)
(0.817325 0.971934 8.39648e-20)
(0.717715 0.922473 -1.35943e-18)
(0.611601 0.865828 1.70125e-19)
(0.516505 0.807519 8.96516e-19)
(0.418885 0.742218 -1.12868e-18)
(0.344969 0.653482 -1.23166e-18)
(0.269604 0.573814 4.15095e-19)
(0.196874 0.701859 0)
(0.128085 1.53873 5.79273e-19)
(0.127876 2.68723 6.42099e-19)
(0.135821 3.08585 -7.18237e-19)
(0.127014 3.22119 7.761e-19)
(0.421813 0.422485 0)
(0.908644 0.884631 3.2336e-19)
(1.0961 1.09524 -4.37733e-20)
(1.12894 1.13936 2.67465e-19)
(1.09486 1.1399 -7.12134e-20)
(1.03682 1.10878 0)
(0.968199 1.07495 0)
(0.8926 1.03787 0)
(0.805485 0.995882 4.80214e-19)
(0.704812 0.947058 6.33971e-20)
(0.597729 0.890385 0)
(0.491663 0.832033 -8.924e-19)
(0.409138 0.774718 0)
(0.295525 0.70557 8.82232e-19)
(0.209021 0.776463 -5.92311e-19)
(0.160309 1.45787 -4.77258e-19)
(0.162379 2.67565 -1.12571e-18)
(0.183444 3.1266 -5.95242e-19)
(0.174122 3.26844 -8.16616e-19)
(0.159716 3.30888 6.32735e-19)
(0.420458 0.432023 -1.13967e-19)
(0.903295 0.902659 1.53705e-20)
(1.08716 1.11598 -4.92211e-20)
(1.11888 1.16078 -2.04658e-19)
(1.08442 1.16124 0)
(1.02633 1.13019 0)
(0.95783 1.09695 0)
(0.882249 1.06051 3.74814e-20)
(0.795111 1.01972 -6.06353e-19)
(0.693266 0.973265 0)
(0.581976 0.921166 0)
(0.481364 0.870782 0)
(0.366508 0.814755 0)
(0.306489 0.796317 6.43228e-19)
(0.275146 1.17476 1.58127e-18)
(0.255979 2.37143 4.69942e-19)
(0.267879 3.08298 9.52955e-19)
(0.262094 3.28543 -7.32554e-19)
(0.212752 3.35169 2.72263e-19)
(0.179762 3.36428 0)
(0.418876 0.441239 1.17777e-19)
(0.897587 0.919389 -7.23524e-19)
(1.07801 1.13527 -1.92079e-19)
(1.10885 1.18124 -4.12902e-20)
(1.07408 1.18226 1.60148e-20)
(1.01618 1.15152 -2.17878e-20)
(0.947778 1.11863 -7.52517e-21)
(0.872081 1.08285 -4.34185e-19)
(0.784264 1.04312 0)
(0.681824 0.998153 -7.90627e-20)
(0.571804 0.947823 7.19225e-20)
(0.459653 0.897811 0)
(0.376472 0.856745 0)
(0.320752 0.979882 -8.04186e-19)
(0.279609 1.85238 9.97093e-20)
(0.275335 2.94037 -3.53923e-19)
(0.296302 3.29002 7.40214e-19)
(0.269269 3.38922 5.42679e-19)
(0.202876 3.41389 -7.44981e-19)
(0.177778 3.4231 3.70617e-19)
(0.417052 0.450598 2.33239e-19)
(0.891854 0.937155 7.08656e-19)
(1.06875 1.15593 2.29529e-19)
(1.09861 1.20254 0)
(1.06355 1.20347 0)
(1.00565 1.17281 1.80591e-20)
(0.937467 1.14057 1.0242e-19)
(0.861963 1.10557 3.87999e-19)
(0.774508 1.06719 2.45109e-20)
(0.67147 1.02492 1.02194e-18)
(0.557272 0.979068 -1.18803e-18)
(0.449088 0.93389 0)
(0.36797 0.934573 0)
(0.338681 1.34324 -5.48934e-19)
(0.340871 2.47812 -6.59683e-19)
(0.38328 3.19894 0)
(0.408028 3.37333 -7.54751e-19)
(0.338193 3.43655 4.46277e-20)
(0.267456 3.48096 3.69978e-19)
(0.244425 3.50637 -1.2603e-19)
(0.414713 0.460389 -4.45019e-19)
(0.88503 0.955043 -3.41099e-19)
(1.05827 1.17657 0)
(1.08738 1.2243 0)
(1.05212 1.22581 0)
(0.994612 1.19535 0)
(0.926742 1.16332 -1.17356e-19)
(0.851427 1.12885 3.50808e-19)
(0.763663 1.09155 0)
(0.660952 1.05111 -9.31081e-19)
(0.55093 1.00834 2.13309e-18)
(0.443489 0.973559 8.66175e-20)
(0.389002 1.05938 1.13682e-19)
(0.390393 1.74517 8.96725e-19)
(0.406807 2.89607 -4.83237e-19)
(0.44422 3.32322 0)
(0.426982 3.44839 2.11897e-19)
(0.340848 3.5363 9.32963e-20)
(0.263251 3.601 1.47639e-19)
(0.187946 3.58055 -3.5547e-21)
(0.41197 0.470524 2.12375e-19)
(0.877827 0.974699 -3.51741e-19)
(1.04733 1.19948 0)
(1.07554 1.24759 -5.95457e-20)
(1.04012 1.24873 1.99836e-19)
(0.982745 1.21808 0)
(0.915365 1.18652 0)
(0.840584 1.15271 -6.12942e-19)
(0.753763 1.11662 -6.07876e-20)
(0.651258 1.07878 9.1786e-19)
(0.534247 1.03933 -1.01429e-18)
(0.444598 1.02102 5.87511e-19)
(0.40581 1.23363 0)
(0.429279 2.17985 -4.75987e-19)
(0.4719 3.1456 3.11268e-19)
(0.533967 3.428 1.96957e-19)
(0.526813 3.52536 0)
(0.46287 3.60894 -3.56896e-20)