/*--------------------------------*- C++ -*----------------------------------*\
| =========                 |                                                 |
| \\      /  F ield         | OpenFOAM: The Open Source CFD Toolbox           |
|  \\    /   O peration     | Version:  4.0                                   |
|   \\  /    A nd           | Web:      www.OpenFOAM.org                      |
|    \\/     M anipulation  |                                                 |
\*---------------------------------------------------------------------------*/
FoamFile
{
    version     2.0;
    format      ascii;
    class       volScalarField;
    location    "53";
    object      p;
}
// * * * * * * * * * * * * * * * * * * * * * * * * * * * * * * * * * * * * * //

dimensions      [0 2 -2 0 0 0 0];

internalField   nonuniform List<scalar> 
918
(
0.559011
1.19251
0.00139289
0.558415
-0.0116492
1.15952
-0.50323
0.689996
0.539191
-0.102162
-0.0359479
0.537273
1.02026
0.78767
-1.12234
-0.00451039
0.65534
-0.381789
0.538267
-0.0473003
0.716455
0.545748
0.548775
0.539357
0.605615
0.762523
0.901542
0.0213102
0.00814516
0.00433072
-0.0113242
-0.037995
-0.0318475
1.04316
1.09426
1.11695
0.507142
0.334853
-0.369403
-0.438748
-0.431809
-0.542887
0.685199
0.683629
-0.197835
0.692759
0.696611
0.526275
0.538558
0.539463
0.540507
0.539479
0.540866
0.409402
-0.105462
-0.13789
-0.0822122
-0.0734089
0.062443
-0.03664
-0.0395074
-0.0342893
-0.0341618
0.456755
0.53203
0.529011
0.542549
0.552372
1.13206
1.10397
1.13012
1.04384
1.0603
0.998226
0.97088
0.807215
0.829016
0.774261
0.760391
-1.55648
-2.51172
-0.530338
-0.278538
-0.0103518
-0.00205273
0.0043201
0.65111
0.651394
0.655658
0.660547
1.08357
-0.380298
-0.477049
0.538405
0.537208
0.545554
0.546252
0.542269
0.541361
-0.0372477
-0.03385
-0.043539
-0.0452097
-0.0445727
0.705545
0.704905
0.539889
0.536898
0.559237
0.580287
0.572576
0.282507
0.610916
0.624994
0.593128
0.754733
0.748717
0.757422
0.87513
0.839512
0.938434
0.961526
0.0168858
0.00073681
-0.0103569
-0.0175734
-0.0150481
0.503005
0.495606
0.522605
0.510547
0.513032
0.250949
0.116731
0.420364
0.445653
-0.286573
-0.349575
-0.426975
-0.456375
-0.566654
0.613055
0.677459
0.674416
-0.211488
-0.138535
-0.270036
-0.0649226
-0.126537
0.516587
0.523563
0.518581
0.534085
0.528563
0.530521
0.542814
0.539889
0.541447
0.471822
0.595549
0.33565
0.300865
-0.243062
-0.155475
-0.243971
-0.0610672
-0.0568115
0.0761254
0.101403
0.0495917
0.0379079
-0.0502209
-0.0430071
-0.0462354
-0.0322009
-0.0313069
0.449595
0.438518
0.469367
0.476862
0.521064
0.52238
0.526181
0.524437
0.921591
0.943975
0.951589
0.925311
-3.50557
-6.29519
0.047615
0.184614
-0.00539622
-0.00814816
0.00256793
-0.00460304
0.00127677
-0.00151288
0.00209018
0.000383761
0.00438582
0.00671288
0.644139
0.644718
1.00404
1.00845
0.981969
0.933922
0.526568
0.528656
0.534177
0.530048
-0.0314043
-0.0320224
-0.0309866
0.698642
0.703101
0.701632
0.244554
0.155875
0.332978
0.361713
0.637441
0.626279
0.636119
0.653933
0.691502
0.968945
0.987207
0.985386
0.993768
1.03775
1.05411
1.01956
0.482629
0.492514
0.487514
0.525749
0.523497
0.524413
0.520125
0.521496
0.519398
-0.0343861
-0.415953
0.494562
0.512583
0.495356
0.499654
0.692654
0.770247
0.66164
0.668947
0.66674
0.00350016
-0.0547092
0.256862
0.223496
0.389692
0.425809
0.40492
0.892896
0.853181
0.903319
0.876528
0.837694
0.863593
-0.367661
-1.87226
-0.988679
0.535786
0.349338
0.437029
0.0198047
0.00270313
0.00738921
1.00188
1.07655
0.651375
0.82421
0.828482
0.725268
0.754687
0.813804
0.742051
0.77526
0.807052
0.785052
0.56974
0.507967
0.522691
0.839294
0.894954
0.126867
0.0672265
0.0231171
0.119848
0.176584
0.150879
1.03772
0.949364
1.02007
0.536655
0.537368
-0.0012621
-0.0141792
0.541575
0.541625
-0.00930018
0.00241028
0.419721
-0.831088
0.109103
0.530121
0.520139
0.537206
-0.085278
0.361752
-0.0371792
0.0569978
0.0016762
0.53432
0.467721
0.427309
0.00601384
-0.0135614
-0.0400199
-0.213211
0.534326
0.532632
0.536673
0.537628
0.538301
-0.0127162
-0.00895153
-0.00645856
-0.0378684
-0.0337247
-0.0437144
0.501322
0.519917
-0.16597
0.536812
0.538942
0.538762
0.531996
0.537636
0.535881
-0.00396913
-0.0108163
-0.0124811
0.226253
0.355163
0.660676
0.74901
0.632303
0.407006
0.170813
0.56302
0.62657
0.53193
0.685978
0.673886
0.68875
0.174343
0.024215
0.183435
0.124694
0.527979
0.526672
0.518395
0.515394
0.532066
0.53017
0.534737
0.531739
0.534691
0.536082
-0.0431573
-0.0670075
-0.0806423
-0.148297
0.316549
0.578368
0.258815
0.289299
0.149617
-0.0317626
-0.0319675
-0.0361778
-0.0434358
0.0109809
-0.0130761
0.0521037
0.0528537
0.0254874
-0.00141408
0.00311382
-0.0078342
-0.00462411
0.527323
0.525739
0.532073
0.541359
0.477284
0.481052
0.446257
0.466773
0.452145
0.391441
0.426546
0.401736
-0.000209621
0.0100634
0.0020898
-0.00996623
-0.00627836
-0.0242355
-0.0219581
-0.0176681
-0.0137919
-0.021119
-0.0348424
-0.0333751
-0.171333
-0.286805
0.990715
0.915656
0.134281
0.523492
0.529932
0.526704
0.531583
0.534711
0.535526
0.53325
0.529804
0.520306
0.521879
0.518626
0.519427
-0.0983285
-0.239311
-0.0670507
-0.139131
0.145683
0.628966
0.3671
0.304008
0.298905
0.525981
0.925839
0.712335
0.68802
0.701348
-0.339845
0.0523358
-0.274752
0.342586
0.167444
0.660045
0.707917
0.72897
0.677863
0.631214
-0.103067
0.557224
-0.0642453
-0.0139764
0.185846
0.0659797
0.685391
0.658494
0.661617
0.678765
0.695373
0.664666
0.648512
0.643256
0.675164
0.678278
0.494143
0.257416
0.209066
0.170557
0.645542
0.530102
0.583871
0.499725
0.523113
0.525759
0.52438
0.506122
0.513659
0.509222
0.515609
0.519044
0.527776
0.528214
0.523532
0.525676
-0.0476946
-0.0510453
-0.0249615
-0.134578
-0.126003
-0.187922
-0.0603885
0.0779557
0.0395393
0.237841
0.343611
0.0549461
-0.0565257
-0.0291895
0.0111101
0.181762
0.207769
0.08088
0.169362
0.158087
0.141353
0.242851
0.24737
-0.0168673
-0.02118
-0.0241608
-0.0258809
0.0282362
0.0980678
0.107992
0.0059511
-6.70992e-05
-0.0293971
-0.0292311
-0.0147254
-0.0189285
-0.0153184
0.0186742
-0.0426862
-0.0107989
0.00445
0.00911084
0.00610807
0.000740708
0.51956
0.521924
0.521518
0.52841
0.546942
0.562786
0.519468
0.49933
0.490187
0.493183
0.46629
0.476543
0.472228
0.485939
0.507031
0.51646
0.513755
0.516526
0.499179
0.500847
0.487348
0.491063
0.466061
0.447209
0.43536
-0.0329295
0.00512634
-0.00250477
-0.0299607
-0.000898821
-0.0133113
-0.000765847
0.0189775
0.0026257
-0.000245254
-0.0108931
-0.0164351
-0.0156688
-0.0725967
0.0129463
-0.181025
-0.218649
-0.289322
0.89237
1.01629
0.813588
0.586817
0.60497
0.848132
0.933273
0.548507
0.73872
0.762604
0.588135
0.853884
0.528314
0.527919
0.525521
0.524998
0.526217
-0.00505631
0.0994894
0.100355
0.161548
0.277705
0.390155
0.318743
0.193531
0.324428
0.3274
0.621304
0.633788
0.589351
0.613454
0.613548
0.429442
0.505389
0.557606
0.514931
0.567133
0.588041
0.543709
0.575978
0.526192
0.480747
0.476755
0.427627
0.447252
0.423763
0.406619
0.518273
0.495514
0.506101
0.496318
0.515729
0.540622
0.536757
0.567802
0.579197
0.499793
0.45586
0.465094
0.495499
0.456413
0.471398
0.487597
0.232829
0.13413
0.216549
-0.0714058
0.00299392
-0.0108331
-0.0587206
-0.00937024
0.27562
-0.418079
-0.394035
-1.02334
0.502282
0.958997
0.631622
0.604565
0.692317
0.674309
0.679042
0.695759
0.699859
0.635185
0.650176
0.652714
0.615649
0.638513
0.658038
0.655226
0.527277
0.391016
0.387908
0.33863
0.20882
0.247241
0.447255
0.369805
0.294568
0.295521
0.462747
0.349979
0.418865
0.454501
0.385749
0.339815
0.54322
0.608309
0.600397
0.574802
0.490402
0.503889
0.527918
0.562807
0.588657
0.619508
0.515126
0.521007
0.522248
0.519739
0.516996
0.520012
0.52022
0.522759
0.523455
0.526429
0.52546
-0.0380228
-0.0258399
-0.0387979
-0.0469009
-0.0147699
-0.0183398
0.02489
0.0111282
-0.00457945
0.00141792
-0.0247893
-0.0291434
-0.0241668
-0.0151156
0.103718
0.11617
0.0996738
0.0602389
0.251398
0.381778
0.455356
0.331009
0.223758
0.247237
0.268013
-0.00543834
0.0221683
0.00909311
0.0478994
0.0393311
-0.0236208
-0.0278566
-0.0252643
-0.0185424
-0.00914058
-0.0247978
-0.0266997
-0.0190944
-0.0230369
-0.0246683
-0.0270818
0.501571
0.495083
0.496786
0.490642
0.489362
0.503626
0.507846
0.509819
0.515264
0.517542
0.507673
0.513415
0.517195
8.41925e-05
-0.0232986
-0.0269072
-0.0155777
-0.0186458
-0.0172977
-0.0195998
0.123496
0.0518596
0.0564471
0.0100973
-0.120517
-0.0628601
0.491917
0.491656
0.482995
0.721364
0.570811
0.491467
0.588878
0.694196
0.275391
0.473394
0.307521
0.889312
0.784829
0.931254
0.543047
0.2449
0.405237
0.451906
0.263005
0.336518
0.329306
0.217263
0.248639
0.284456
0.384805
0.266115
0.242248
-0.000162454
0.189574
0.302571
0.284292
0.410099
0.47179
0.265728
0.186579
0.140809
0.607193
0.626305
0.641464
0.613701
0.634738
0.578871
0.568189
0.586277
0.595729
0.590647
-0.751018
-0.457566
-1.40359
-0.722909
-0.269674
0.532814
0.500959
0.768306
0.650373
0.697302
0.68253
0.641367
0.609478
0.629647
0.655726
0.351559
0.462953
0.438082
0.443151
0.344687
0.275974
0.575036
0.570093
0.604019
0.627681
0.59819
0.628735
0.512936
0.512627
0.512148
0.508428
0.506692
0.509011
0.0637573
0.0326936
0.0683478
0.0489801
0.0260414
0.0144869
0.00377633
-0.00561169
-0.012898
-0.0135181
-0.000361341
0.00329866
0.170504
0.109436
0.0292788
0.0592341
-0.000956322
-0.0700967
-0.0876888
0.0146725
0.110094
0.100631
0.405382
0.656013
0.47594
0.643299
0.484901
0.540733
0.471933
0.463614
0.489735
0.381076
0.461115
0.241521
-0.265317
-0.174144
0.790001
0.803463
0.583466
0.404201
0.172892
0.355102
0.547773
0.480325
0.517131
0.586063
0.574887
0.0228532
0.084043
0.360951
0.588259
0.239268
0.230233
0.224285
0.404759
0.325163
)
;

boundaryField
{
    wall-4
    {
        type            zeroGradient;
    }
    velocity-inlet-5
    {
        type            zeroGradient;
    }
    velocity-inlet-6
    {
        type            zeroGradient;
    }
    pressure-outlet-7
    {
        type            fixedValue;
        value           uniform 0;
    }
    wall-8
    {
        type            zeroGradient;
    }
    frontAndBackPlanes
    {
        type            empty;
    }
}


// ************************************************************************* //
