/*--------------------------------*- C++ -*----------------------------------*\
| =========                 |                                                 |
| \\      /  F ield         | OpenFOAM: The Open Source CFD Toolbox           |
|  \\    /   O peration     | Version:  4.0                                   |
|   \\  /    A nd           | Web:      www.OpenFOAM.org                      |
|    \\/     M anipulation  |                                                 |
\*---------------------------------------------------------------------------*/
FoamFile
{
    version     2.0;
    format      ascii;
    class       volVectorField;
    location    "53";
    object      U;
}
// * * * * * * * * * * * * * * * * * * * * * * * * * * * * * * * * * * * * * //

dimensions      [0 1 -1 0 0 0 0];

internalField   nonuniform List<vector> 
918
(
(0.985162 -0.000504751 0)
(0.00501352 2.96625 0)
(0.0086911 0.879631 0)
(0.979703 0.00214714 0)
(-0.010349 2.06886 3.62073e-20)
(-0.00704515 2.94879 -2.48245e-18)
(0.812199 1.15316 4.42806e-19)
(0.192197 0.0976405 -1.53432e-20)
(0.999908 -0.000280039 0)
(0.060485 0.766871 0)
(0.00998231 0.568015 0)
(0.734948 -0.0183605 0)
(0.0110948 2.93037 0)
(0.00274683 2.79473 0)
(-0.0176271 3.15157 7.77665e-19)
(-0.0207391 1.91 3.09148e-21)
(0.283348 0.0366094 1.0239e-18)
(0.185277 1.14477 3.16837e-19)
(0.962745 0.00502004 0)
(0.0061547 0.50856 0)
(0.0137363 0.129543 -7.20692e-19)
(1.00198 -0.00497768 0)
(1.00022 -0.00978817 0)
(0.975732 -0.00643931 0)
(0.588666 -0.0191994 0)
(0.0150923 2.6412 0)
(-0.0148492 2.90999 9.14503e-19)
(0.0112285 0.936186 0)
(-0.0115806 1.17859 0)
(0.0127098 0.916898 0)
(-0.0104009 2.60145 0)
(0.00097262 2.1213 -2.89189e-20)
(-0.00951742 1.89731 0)
(-0.0206128 2.9876 -8.92703e-23)
(-0.0166881 3.0053 1.92937e-18)
(0.00210186 3.00018 0)
(0.871096 -0.00959843 0)
(0.404213 0.936007 1.80962e-19)
(0.797385 1.16758 -5.03122e-19)
(0.94765 1.01444 5.44538e-19)
(0.666598 1.25856 -1.02682e-19)
(0.668077 1.23303 5.91428e-19)
(0.227989 0.160771 1.49686e-20)
(0.20517 0.0719709 0)
(1.14884 0.557867 0)
(0.198265 0.151666 6.82214e-20)
(0.16531 0.0955834 -7.079e-20)
(0.91985 -0.00745066 0)
(1.00027 0.000156725 0)
(0.999909 0.00033571 0)
(1.00363 -0.00776507 0)
(1.00096 -0.000921309 0)
(1.00017 3.40275e-05 0)
(0.0746169 1.82081 -7.82889e-19)
(0.0277995 0.969332 0)
(0.0945426 0.836469 0)
(0.0125524 0.923932 0)
(0.0355518 0.699237 0)
(0.00743157 2.00471 0)
(0.000305233 0.82125 0)
(0.0120334 0.582284 0)
(-0.000987828 0.814445 0)
(0.00782732 0.554593 0)
(0.840469 -0.0158365 0)
(0.842841 0.0307888 0)
(0.767575 -0.00717498 0)
(0.809477 0.0410291 0)
(0.705009 -0.0196008 0)
(0.0146889 3.0004 9.2041e-19)
(0.0115021 3.00801 0)
(0.00611831 3.00277 0)
(0.0135377 2.99735 1.04461e-23)
(0.00797489 2.95848 -1.36796e-18)
(0.0144866 2.98204 0)
(0.0108365 2.90361 0)
(0.0246978 2.93076 2.09681e-24)
(0.00461064 2.82473 0)
(0.0303396 2.91635 0)
(-0.00523404 2.74544 0)
(0.306431 3.54601 0)
(-0.131661 3.62701 0)
(0.138589 3.24171 -7.23695e-19)
(-0.0130983 2.97874 0)
(-0.01889 1.98278 0)
(-0.00519367 2.16692 -3.04916e-21)
(-0.0143807 1.91689 -3.97607e-21)
(0.377278 0.144724 -3.55189e-19)
(0.306089 0.0229675 -3.4432e-19)
(0.342428 0.154626 -1.06486e-18)
(0.254704 0.0430458 -6.9629e-19)
(0.227042 0.974664 0)
(0.267674 1.29019 -3.67373e-19)
(0.360424 1.22063 6.11896e-19)
(0.987451 0.00856214 0)
(0.94189 0.00583237 0)
(1.0003 0.000579354 0)
(1.00286 0.00930741 0)
(1.00302 0.00846683 -2.75411e-18)
(0.99191 0.00969736 2.07981e-18)
(-0.00290066 0.80601 0)
(0.00719341 0.524427 0)
(-0.036963 1.00436 0)
(-0.0219724 0.841563 0)
(0.00288055 0.504548 0)
(0.0291006 0.135855 2.2257e-19)
(0.100463 0.108213 0)
(0.993547 -0.00837607 0)
(0.954445 -0.00652524 0)
(0.753482 0.0472046 0)
(0.688487 0.0515876 0)
(0.664117 -0.028005 0)
(0.967402 -0.00790696 0)
(0.59965 0.0708954 0)
(0.444082 -0.0126345 1.54304e-18)
(-0.0372259 2.86246 6.78926e-19)
(0.0415585 2.90971 0)
(0.0535901 2.88585 0)
(-0.00420372 2.7001 0)
(-0.0133733 2.98515 8.66348e-19)
(-0.017894 2.89505 0)
(-0.0153984 2.98809 -2.68542e-18)
(-0.0133371 2.92518 9.19066e-19)
(-0.01753 1.34612 0)
(0.004944 1.3744 0)
(-0.0054223 2.13403 3.41004e-22)
(-0.00434701 2.09857 0)
(-0.0226778 1.90114 0)
(0.938362 -0.00748636 0)
(0.857071 -0.00991358 0)
(0.863328 0.0059265 0)
(0.949439 -0.00789139 0)
(0.883898 -0.00816402 0)
(0.515909 1.12919 -2.28534e-19)
(0.565035 1.18022 0)
(0.368744 0.881044 3.37924e-20)
(0.311107 0.739923 0)
(0.909099 1.05168 -1.49969e-19)
(1.026 0.862487 3.02508e-19)
(0.352412 1.34545 0)
(0.520442 1.31355 0)
(0.544301 1.25411 0)
(0.119534 0.185232 -3.0265e-19)
(0.255823 0.153627 0)
(0.227383 0.0747087 1.95998e-19)
(0.997091 0.916893 0)
(1.07011 0.771891 0)
(1.09519 0.713505 -2.37149e-19)
(1.12826 0.617214 0)
(1.17891 0.402175 5.6421e-20)
(0.957664 -0.00875398 0)
(0.962461 -0.0100658 0)
(0.901657 -0.00797394 0)
(0.984191 -0.00915949 0)
(0.974685 -0.00935575 0)
(0.937105 -0.00636749 0)
(1.00019 0.00233761 0)
(1.0009 0.00140933 0)
(0.99991 0.000853583 0)
(0.0350738 2.07191 4.33477e-19)
(0.119563 1.76391 0)
(0.0172975 2.1863 6.68692e-19)
(0.0471801 1.87438 -5.5993e-19)
(0.100559 1.15371 -2.5946e-19)
(0.0434868 1.04304 0)
(0.140318 0.990338 0)
(0.00719127 0.882187 0)
(0.0167724 0.647733 0)
(-0.00132013 2.23749 -9.4716e-22)
(0.0167389 2.00934 0)
(-0.00189371 2.23864 -3.81108e-20)
(0.00892196 2.01304 6.30917e-20)
(0.00325207 0.856491 0)
(0.000867643 0.837368 0)
(0.010685 0.607342 0)
(-0.0048465 0.81461 0)
(0.00826342 0.538197 0)
(0.937354 0.0095477 0)
(0.848677 -0.0149213 0)
(0.926823 0.000216258 0)
(0.841704 -0.0129603 0)
(0.812087 -0.000588001 0)
(0.900041 0.0211114 0)
(0.874951 0.0258016 0)
(0.788784 -0.00335536 0)
(0.00578937 3.06495 -8.58936e-21)
(0.0166658 3.05768 0)
(0.0146953 2.96904 0)
(0.00871175 2.87624 0)
(0.922557 3.96001 0)
(1.23647 3.29326 9.29009e-19)
(0.069596 3.07088 0)
(-0.028868 2.90302 0)
(-0.00198969 1.39518 0)
(-0.0243254 1.68964 0)
(-0.00998651 1.52723 0)
(-0.0261109 2.55778 -6.26106e-21)
(-0.00768464 2.24065 0)
(-0.0146812 2.3931 0)
(0.000246143 1.93984 1.01722e-21)
(-0.00233956 2.23578 1.1656e-21)
(-0.00412618 2.19967 3.9155e-21)
(-0.00800297 1.92633 0)
(0.422372 0.127599 5.40621e-19)
(0.353148 0.0126752 -5.30599e-19)
(0.259494 1.58373 0)
(0.275067 0.748225 -3.15593e-19)
(0.176999 1.67015 -1.05254e-18)
(0.226329 1.21324 1.05493e-18)
(0.902104 0.00641215 0)
(0.96744 0.0110958 0)
(0.97457 0.0107949 0)
(0.923356 0.00642896 0)
(-0.00219833 0.813068 0)
(0.00199999 0.807915 0)
(-0.00110069 0.530038 0)
(0.170277 0.141903 6.30126e-19)
(0.141621 0.12937 -7.43434e-19)
(0.135973 0.0986259 0)
(1.09385 0.0848589 2.75876e-20)
(1.07603 0.0386662 0)
(1.00971 0.0393219 0)
(0.904603 -0.00614349 0)
(0.468661 0.107372 0)
(0.523341 0.0879361 -2.46594e-18)
(0.39603 0.0077653 9.22401e-19)
(0.0088229 2.98131 7.29161e-19)
(-0.0322441 2.86586 4.81207e-20)
(0.00358903 3.05028 -1.81797e-20)
(0.0201897 3.04333 6.46121e-19)
(-0.0149999 2.99657 3.0176e-20)
(-0.0129321 2.94945 -1.2142e-22)
(-0.0172627 3.01195 -5.58234e-19)
(0.0148532 3.02385 4.04243e-19)
(0.00737696 3.03684 -6.40257e-19)
(0.933481 -0.00138196 0)
(0.939126 -0.0033453 0)
(0.845395 -0.0094607 0)
(0.956605 0.0118478 0)
(0.942804 0.0131417 0)
(0.881657 0.00594526 0)
(0.917282 0.017054 0)
(0.926101 0.0149314 0)
(0.83856 0.00271504 0)
(0.718476 1.40667 4.05186e-20)
(0.751757 1.51542 0)
(0.18478 0.320467 7.11947e-20)
(0.225387 0.667016 5.7423e-19)
(0.262348 0.72184 -3.34754e-19)
(0.26521 0.528428 6.65537e-19)
(0.342789 0.806138 1.59187e-18)
(0.138515 0.228456 3.74922e-19)
(0.310268 0.158813 7.38218e-19)
(0.282864 0.158192 1.92303e-19)
(0.238027 0.0591081 3.65429e-19)
(1.16819 0.460042 5.35861e-20)
(1.1851 0.254188 4.89274e-20)
(0.00955588 2.2339 2.59237e-19)
(0.0412488 1.94104 0)
(0.968479 0.0289394 0)
(0.941731 0.0136565 0)
(0.867103 -0.0181501 0)
(0.0112805 3.07422 0)
(0.0197237 2.94418 1.18456e-18)
(0.0164222 2.95629 0)
(0.00641669 2.85052 -1.17484e-18)
(0.00640229 3.09176 2.87515e-19)
(0.00708929 3.08245 0)
(0.784666 1.81725 -1.5967e-19)
(1.24435 2.49354 4.06612e-19)
(0.766662 1.95665 -1.23423e-18)
(0.0196726 2.98071 -6.28497e-19)
(0.0353202 2.99965 0)
(-0.0345749 2.87675 0)
(-0.00356801 2.21803 -1.31012e-20)
(-0.00225032 2.23966 -6.4879e-21)
(0.0027534 1.97455 -7.37633e-21)
(0.277328 1.39187 1.02621e-18)
(0.234778 0.539747 -7.03845e-19)
(0.063509 1.99673 7.68328e-19)
(0.135613 1.88368 -9.15229e-19)
(0.180197 1.50566 9.39235e-20)
(0.00543645 3.11797 -1.60487e-18)
(0.01413 3.11847 1.73344e-18)
(-0.00928357 2.9805 7.99446e-19)
(-0.00374239 2.97717 -7.57176e-19)
(-0.021437 2.881 -8.14219e-19)
(0.00852365 3.09865 -2.13585e-18)
(0.0017605 3.10667 2.11983e-18)
(0.279956 0.693674 0)
(0.246699 0.683128 -1.19018e-18)
(0.0963107 0.22577 5.28391e-19)
(0.355244 0.932149 1.11173e-18)
(0.193598 0.273534 -1.71407e-18)
(1.17849 0.173111 6.58474e-20)
(1.18561 0.308575 0)
(1.1668 0.121345 -1.02587e-20)
(0.000993323 2.25004 -1.58797e-21)
(0.0042411 2.24273 0)
(0.0255316 1.97622 0)
(0.340093 1.3009 -3.68911e-19)
(0.372666 1.14348 -8.00245e-19)
(0.207914 0.373651 1.42601e-18)
(1.00588 -0.010842 0)
(1.00767 -0.007642 5.08151e-19)
(-0.0141478 1.32569 0)
(-0.0292026 1.32113 0)
(1.00222 0.00350638 1.80666e-21)
(1.00366 0.00945797 1.03737e-18)
(-0.0144889 2.54122 7.93271e-21)
(-0.0205324 2.58451 0)
(0.0347921 3.17741 4.16439e-19)
(0.392387 3.4866 0)
(1.16837 0.658131 -6.16728e-20)
(1.01288 0.0131121 -2.1433e-21)
(1.0213 -0.0103351 0)
(1.0017 0.000119091 7.46172e-23)
(0.103024 1.36059 0)
(0.144015 2.57526 0)
(0.024856 1.30511 0)
(-0.00153389 2.62481 3.61046e-20)
(-0.0224954 2.58067 1.13679e-20)
(0.999841 0.0293767 2.48522e-21)
(1.06253 0.00424955 0)
(1.09637 0.0242731 0)
(-0.0234902 1.73305 0)
(-0.0166685 2.58241 0)
(-0.000312133 1.30792 0)
(0.302357 1.47469 -1.68347e-19)
(1.01129 -0.00963259 0)
(1.0094 -0.0149199 0)
(1.00236 0.000737182 6.49274e-19)
(1.00547 -0.00481303 -7.63243e-19)
(1.00118 -0.000980673 0)
(-0.00925897 1.45949 0)
(-0.00200494 1.37222 0)
(-0.00170482 1.41795 0)
(-0.00473209 1.29618 0)
(-0.0104271 1.28299 0)
(-0.000566952 1.26478 0)
(1.03485 -0.0061904 0)
(1.02003 0.0156302 -8.68176e-22)
(0.819076 1.26629 2.5552e-19)
(1.00224 0.000301035 -6.47185e-19)
(1.00407 0.0052506 7.57278e-19)
(1.00118 0.00206747 0)
(1.01276 0.0103311 6.4374e-19)
(1.008 0.00830205 -7.7995e-19)
(1.00857 0.014691 0)
(-0.0211636 2.61104 0)
(-0.0226001 2.59138 -1.30025e-20)
(-0.0203791 2.60527 9.31305e-21)
(1.2335 0.264416 5.94029e-19)
(1.15985 0.0856576 0)
(0.0412201 3.07791 -9.26481e-19)
(0.0647165 2.85571 -6.74493e-20)
(0.139797 3.19221 1.41974e-18)
(0.135143 3.22026 -2.02641e-19)
(0.134136 3.23172 0)
(0.0189601 3.13724 2.39389e-19)
(0.0748455 3.16018 9.1378e-19)
(0.0677326 3.18535 -4.51221e-19)
(0.021668 3.12993 0)
(0.608814 0.27703 0)
(0.53268 0.312837 0)
(1.13892 0.694471 1.4379e-19)
(1.13399 0.815373 -1.31626e-19)
(1.19561 0.580657 0)
(1.22409 0.51528 0)
(1.01609 0.0133408 -1.19998e-18)
(1.01499 0.0142672 1.50626e-18)
(1.0253 -0.00986189 0)
(1.02337 -0.0118924 0)
(1.00642 0.00259478 0)
(1.01042 0.00371495 0)
(1.00459 0.00185115 0)
(1.0098 0.00621345 0)
(1.00783 0.00595913 0)
(1.00451 0.00469015 0)
(0.091994 1.3581 0)
(0.0861575 1.32674 0)
(0.123546 1.39528 0)
(0.138557 1.40335 0)
(0.145118 2.60022 0)
(0.185475 2.66934 -4.27903e-19)
(0.100677 2.65607 0)
(0.0845508 2.65833 2.02213e-19)
(0.0375685 2.67992 -1.58485e-19)
(0.0186183 1.31801 0)
(0.0194755 1.24428 0)
(0.0188626 1.32629 0)
(0.0350997 1.26985 0)
(0.00114147 1.98306 -4.98732e-21)
(-0.0211453 2.60865 -9.26782e-21)
(-0.00984996 2.66629 2.36186e-20)
(-0.0194586 2.68427 0)
(-0.0235592 2.61417 -2.43967e-20)
(-0.0238375 2.60894 1.34723e-21)
(0.00999331 1.98167 6.25837e-21)
(-0.0082943 2.39687 1.24345e-20)
(-0.014601 2.41898 -2.67862e-20)
(1.01013 0.0375027 1.22539e-18)
(1.0054 0.0160799 -1.51386e-18)
(1.00128 0.0450052 -1.2272e-18)
(0.977259 0.0228084 1.5652e-18)
(1.06377 0.00805905 0)
(1.04902 -0.00843968 0)
(1.09355 0.0342744 0)
(1.07374 0.0124785 0)
(1.07152 0.000213356 0)
(1.13936 0.0819772 0)
(1.11071 0.0437822 0)
(1.11411 0.0317662 0)
(-0.0206172 2.43075 9.22667e-23)
(-0.00938507 2.00469 0)
(-0.0111019 2.21183 0)
(-0.0184473 2.60314 -6.13994e-21)
(-0.0164082 2.61287 1.50814e-23)
(0.00545772 1.5685 -2.64985e-20)
(-0.00167777 1.49804 2.69859e-20)
(-0.011453 1.3877 0)
(-0.0143704 1.3948 0)
(-0.0182786 1.38991 0)
(-0.00152668 1.30883 0)
(0.0096531 1.23532 0)
(0.381983 1.4912 2.73663e-19)
(0.424124 1.49212 1.44652e-19)
(0.598143 2.44983 -2.4028e-19)
(0.400131 2.54617 7.07996e-19)
(0.351679 2.06165 7.12266e-20)
(1.02102 -0.00815663 0)
(1.01548 -0.00976893 0)
(1.01491 -0.0155094 0)
(1.00741 -0.00111844 0)
(1.00493 -0.000927654 0)
(1.00777 -0.00471564 0)
(1.00926 -0.00365605 0)
(1.0142 -0.0044234 0)
(1.02077 0.0162204 1.17521e-18)
(1.01782 0.0156127 -1.50427e-18)
(1.02113 0.0182033 -1.18417e-18)
(1.01889 0.016761 1.48084e-18)
(0.781707 1.31762 0)
(0.71895 1.36695 2.42338e-19)
(0.893139 1.21844 9.29781e-20)
(0.939362 1.16322 -1.23737e-19)
(1.15648 2.6032 2.80167e-19)
(0.781396 0.11864 6.01168e-19)
(1.16196 0.107177 0)
(1.20962 0.191888 -4.77635e-19)
(1.19633 0.153705 -2.02741e-20)
(1.00553 0.154456 0)
(0.131535 2.95905 5.41468e-19)
(0.108318 2.86515 -1.17688e-18)
(0.0175301 2.37558 7.8893e-19)
(0.0911054 -0.0993325 -3.45298e-19)
(0.337472 3.41635 -2.12434e-19)
(0.19263 3.31 0)
(0.235919 3.35113 2.76664e-19)
(0.241675 3.03199 -1.80141e-18)
(0.335461 3.19063 0)
(0.00578084 3.12101 4.66904e-20)
(0.0166542 3.12954 -5.48338e-19)
(0.0145019 3.12566 8.07045e-19)
(0.0345125 3.13984 0)
(0.0327674 3.15031 0)
(1.21306 2.60133 0)
(0.543016 0.814551 -5.30754e-19)
(1.06135 0.988201 -2.69363e-21)
(0.995885 1.07319 0)
(0.849271 0.970722 -1.12116e-19)
(1.08531 0.890151 2.82573e-20)
(0.339757 0.357461 -8.90014e-19)
(0.66929 0.314948 -1.88019e-20)
(0.605064 0.218977 4.18204e-19)
(0.558258 0.348261 3.08333e-20)
(0.458455 0.302148 -1.23958e-18)
(0.633697 0.321814 0)
(0.700873 0.419792 7.11271e-19)
(0.709287 0.421323 0)
(0.593579 0.343073 0)
(0.540177 0.255446 0)
(0.812195 0.618036 4.19441e-19)
(1.2341 0.286501 -5.01211e-19)
(1.23384 0.424827 0)
(1.24217 0.365381 0)
(0.715339 0.191226 6.2357e-19)
(0.860642 0.545995 -3.85542e-19)
(0.759352 0.516242 6.84149e-19)
(0.955749 0.437285 -7.5152e-19)
(1.01942 0.0148583 8.06682e-19)
(1.01769 0.0142934 -8.11746e-19)
(1.01592 0.0154459 0)
(1.03631 -0.00573046 0)
(1.02979 -0.00845506 -7.60408e-19)
(1.02781 -0.0120314 7.52866e-19)
(1.02492 0.0102494 0)
(1.02347 0.0139457 0)
(1.01142 0.00411395 0)
(1.01423 0.00909075 0)
(1.01513 0.00408152 0)
(1.01425 0.00284465 0)
(0.0620636 1.34232 0)
(0.0670372 1.29672 0)
(0.143075 1.37346 6.91896e-21)
(0.274095 1.4716 8.8476e-20)
(0.166657 1.44248 1.85171e-19)
(0.199014 1.44879 -3.02494e-19)
(0.164937 1.39869 0)
(0.132804 1.59762 -7.39176e-20)
(0.116013 1.57278 0)
(0.349316 2.01329 -1.03556e-19)
(0.344345 2.34662 6.18363e-19)
(0.189885 1.45714 6.44403e-20)
(0.261893 1.38888 2.29802e-20)
(0.198139 1.37779 -1.86226e-20)
(0.274411 1.33314 -1.02441e-19)
(0.241674 1.58055 0)
(0.264894 1.61928 1.11809e-19)
(0.0299047 2.26534 -3.1569e-20)
(0.0425086 2.66981 0)
(0.0652814 2.40231 1.39011e-19)
(0.0615813 2.42305 0)
(0.0687894 2.67198 -2.2404e-19)
(0.0482222 2.69971 0)
(0.0260088 1.42149 2.18363e-20)
(0.0329272 1.47284 0)
(0.0284732 1.39002 0)
(0.0236261 1.39395 -2.46384e-20)
(-0.000930899 2.65274 -1.71842e-20)
(0.0284 2.69851 1.79018e-19)
(0.009116 2.72259 1.26617e-21)
(0.00151966 1.83186 5.73117e-21)
(-0.00437797 1.68405 7.22216e-22)
(0.0128596 1.2976 0)
(0.0180454 1.22195 0)
(0.0458314 1.58083 -1.73466e-20)
(0.0287806 1.45557 -2.26454e-20)
(0.0355376 1.51995 2.86163e-20)
(0.0385339 1.60493 0)
(-0.0270504 2.26705 7.30457e-20)
(-0.0277966 2.54863 -2.9819e-20)
(-0.0155062 2.44469 1.13145e-21)
(-0.00411675 1.84855 -6.94516e-21)
(-0.0251616 2.49832 -1.73417e-21)
(-0.020672 2.44199 1.5416e-20)
(1.019 0.0210823 -8.03259e-19)
(1.01489 0.0270157 8.06996e-19)
(1.01396 0.0164473 0)
(1.01212 0.0717549 1.1323e-18)
(0.989359 0.0602834 -1.27607e-18)
(0.946378 0.0463397 1.42768e-18)
(1.01421 0.110686 -1.50872e-19)
(1.04266 -0.00574493 0)
(1.05095 -0.00144556 7.25393e-19)
(1.03896 -0.00987184 -7.26838e-19)
(1.07108 0.0420859 -4.31664e-20)
(1.06441 0.0235836 3.72148e-19)
(1.0632 0.056042 0)
(1.05336 0.0495322 -1.33835e-19)
(1.0325 0.0426281 0)
(1.02552 0.0388495 0)
(1.02782 0.0132651 0)
(1.02399 0.0159744 0)
(1.03968 0.0320788 2.75629e-19)
(1.03891 0.0270473 -6.09253e-19)
(1.05101 0.0339403 -2.9211e-19)
(1.0482 0.0339271 -3.21808e-19)
(1.07106 0.0644866 6.27875e-19)
(1.09611 0.0520846 0)
(1.10475 0.0956706 0)
(-0.0221393 2.27211 4.27539e-20)
(-0.0197208 2.01351 -3.4014e-22)
(-0.0164053 2.0198 0)
(-0.0236457 2.44352 -4.25625e-20)
(-0.0175223 2.39941 2.59454e-22)
(-0.0290702 2.4723 3.70057e-21)
(-0.0204198 2.62153 -1.85414e-21)
(-0.021359 2.56271 -7.36139e-22)
(-0.0208081 2.51391 3.10752e-22)
(-0.0147258 2.61551 4.90263e-21)
(-0.0203708 2.61742 -4.3612e-21)
(-0.00355545 1.48796 -3.43502e-22)
(0.00643608 1.617 -2.19961e-20)
(0.366432 1.44186 -1.15518e-19)
(0.367767 1.37883 3.50017e-20)
(0.658682 1.41732 -2.3461e-19)
(0.524759 1.48461 -1.42204e-19)
(0.583819 1.44982 0)
(0.593857 2.42666 2.07257e-19)
(0.661744 2.42095 3.38145e-19)
(0.411518 2.51699 8.69988e-20)
(0.402986 2.54188 -6.13399e-19)
(0.511238 2.48403 6.13376e-19)
(0.553646 2.46362 0)
(0.489134 2.52079 -5.60909e-19)
(0.248454 2.59347 1.15318e-18)
(0.354811 2.56604 -7.84984e-20)
(0.284361 2.65514 -1.59516e-18)
(0.947448 2.37847 7.28854e-19)
(0.838202 2.38402 0)
(1.01105 0.00047443 2.63444e-20)
(1.01531 -0.00542819 -2.13738e-20)
(1.01764 -0.00355246 -3.90396e-19)
(1.015 -0.000904216 3.92457e-19)
(1.01243 0.00118296 0)
(0.6455 1.28689 0)
(0.669561 1.18323 0)
(0.781881 1.09766 0)
(0.662067 1.14547 0)
(1.18616 2.61695 5.9733e-20)
(1.07478 2.36411 0)
(0.836953 2.17198 3.83636e-21)
(0.82568 2.43788 0)
(0.923073 2.5302 -4.22282e-19)
(0.958529 2.48609 2.80945e-19)
(0.805967 0.176993 0)
(0.758263 0.15199 1.63107e-19)
(0.914681 0.148935 9.49889e-19)
(0.829278 0.150777 -3.5602e-19)
(0.789098 0.0858343 -1.09694e-18)
(1.0803 0.237162 -9.00914e-19)
(0.997701 0.296599 -1.63147e-20)
(0.929261 0.299425 8.68186e-19)
(1.00794 0.228558 7.25775e-19)
(0.950306 0.194085 -1.25836e-18)
(0.914346 0.198283 1.57279e-19)
(0.954036 0.261113 -3.34304e-19)
(0.929364 0.223474 0)
(0.99346 0.190324 6.20447e-19)
(1.04706 0.190964 0)
(1.04416 0.21833 0)
(1.10601 0.119093 2.91902e-19)
(1.07108 0.178017 -1.46985e-20)
(1.07445 0.237801 -1.5874e-19)
(1.1013 0.204208 0)
(1.02299 0.0467252 6.2191e-19)
(1.03982 0.0594767 7.75228e-19)
(1.03379 0.045003 -6.1677e-19)
(1.04261 0.0664015 -5.19578e-19)
(1.01926 0.0741176 -7.96314e-19)
(0.987651 0.16116 0)
(0.997447 0.106181 0)
(0.964744 0.0684234 -5.08051e-19)
(0.909548 0.0931403 1.99639e-19)
(1.03939 0.105878 7.18026e-19)
(1.06896 0.122323 -8.41735e-19)
(1.07471 0.155412 7.51362e-19)
(1.02938 0.145967 0)
(1.07445 0.110529 0)
(1.05461 0.0911924 -3.44491e-19)
(1.04361 0.0961305 -5.87278e-19)
(0.581647 1.06573 1.40273e-19)
(0.608135 1.39267 -4.17654e-20)
(1.15604 2.73269 -2.26734e-19)
(1.22202 3.07467 1.49535e-21)
(1.24811 2.7158 -1.24617e-19)
(1.2771 2.69931 -3.24051e-20)
(1.205 2.34005 -1.07921e-20)
(1.20957 2.97862 -9.22494e-20)
(1.22948 2.94397 2.32919e-19)
(1.21246 3.22786 -1.4395e-19)
(1.37258 2.95927 1.98971e-19)
(1.36194 2.8775 0)
(0.555056 0.822151 -5.01809e-20)
(0.121592 1.237 5.7298e-19)
(0.545013 0.394986 5.77943e-19)
(0.384314 0.142446 6.33469e-19)
(0.49588 0.340459 7.0078e-19)
(0.541613 0.447456 -1.1288e-18)
(0.544067 0.446117 9.22891e-19)
(0.478524 0.351772 -3.51377e-19)
(0.375857 0.282785 7.97776e-19)
(0.726831 0.261884 -3.59187e-19)
(0.688209 0.284639 0)
(0.651457 0.204451 7.85273e-21)
(0.736517 0.506706 3.7427e-19)
(0.709281 0.476326 -1.36344e-18)
(0.614673 0.451885 1.31087e-20)
(0.619017 0.441941 0)
(0.683977 0.71935 3.99943e-19)
(0.845495 0.775493 4.01767e-19)
(0.770339 0.857494 -4.69954e-19)
(0.893096 0.813504 -1.58202e-19)
(0.924909 0.857791 -3.8557e-20)
(0.932071 0.857893 3.9481e-20)
(0.856398 0.653706 -6.94998e-19)
(0.93874 0.708448 1.46946e-19)
(0.999012 0.724638 0)
(0.989649 0.701241 -1.99522e-19)
(1.02702 0.33639 2.16239e-19)
(1.14475 0.301601 2.94202e-19)
(1.0675 0.274555 3.68468e-19)
(1.01429 0.368859 -4.37094e-19)
(1.06247 0.434016 0)
(1.11887 0.416731 0)
(0.921573 0.371013 3.58399e-21)
(0.842084 0.303115 0)
(0.88348 0.301479 4.09095e-19)
(0.911273 0.306659 -6.55453e-21)
(0.949303 0.440165 2.09404e-18)
(0.907934 0.497167 5.40339e-19)
(0.912764 0.46309 -5.75234e-19)
(0.833051 0.447598 6.1634e-19)
(0.815621 0.440803 3.70097e-19)
(0.784194 0.422921 -3.6392e-19)
(1.02734 -0.000323951 6.50306e-19)
(1.02 -8.38324e-06 0)
(1.01852 0.000917434 4.23985e-19)
(1.02168 -0.00165029 -9.60423e-19)
(1.02233 0.00438873 4.66571e-19)
(1.02035 0.0113622 -9.77106e-19)
(1.02128 0.01074 0)
(1.02055 0.010974 -2.03631e-19)
(1.01596 0.00776095 5.10859e-19)
(1.01665 0.0105338 -2.5489e-19)
(1.01735 0.0098825 1.87726e-19)
(0.0287487 1.31868 0)
(0.0343245 1.36278 0)
(0.0433218 1.31966 0)
(0.0479534 1.27571 0)
(0.070754 1.38595 -3.94781e-20)
(0.077679 1.35547 1.89554e-20)
(0.112703 1.52562 -1.49053e-20)
(0.0945513 1.37049 -4.60394e-21)
(0.0336029 1.46016 3.11144e-21)
(0.0376531 1.45303 -2.22812e-21)
(0.0624676 1.37048 -8.36281e-21)
(0.0546529 1.37181 3.59617e-20)
(0.048643 1.34733 5.17816e-21)
(0.0392579 1.37065 1.82189e-21)
(0.106802 2.37246 -1.53457e-19)
(0.0956172 2.41964 0)
(0.170566 2.04716 1.08387e-19)
(0.110851 1.70954 4.02911e-20)
(0.232289 2.04241 -8.98138e-20)
(0.202797 2.43465 0)
(0.264189 2.38481 -6.03902e-19)
(0.303879 2.3825 4.27404e-19)
(0.230232 2.00317 -2.49178e-19)
(0.154398 2.16285 1.6899e-19)
(0.142379 2.27208 0)
(0.0165318 1.87826 -4.63058e-21)
(-0.00192891 2.39633 -4.95812e-20)
(0.00405566 2.15123 0)
(0.0099855 2.45858 -1.34984e-20)
(0.0264492 2.30299 1.39435e-20)
(0.0156772 1.40355 -4.67364e-21)
(0.0136903 1.38877 8.04042e-20)
(0.0134343 1.39361 -2.74614e-20)
(0.0202487 1.3942 -2.13601e-20)
(0.024854 1.42531 0)
(0.00910188 1.37471 0)
(0.00105942 1.29089 -2.89145e-20)
(0.0106176 1.36668 7.94028e-21)
(0.0105381 1.36683 0)
(0.00857114 1.28491 -2.14395e-20)
(0.0151283 1.21167 4.39186e-20)
(1.04059 0.0117199 0)
(1.04672 0.00798848 -6.80613e-20)
(1.03854 0.0218031 -4.91011e-19)
(1.04823 0.0206105 0)
(1.05212 0.0204563 0)
(1.03626 0.0118899 -6.74131e-21)
(1.03096 0.0117308 7.89093e-19)
(1.0317 0.0166264 9.5664e-19)
(1.02558 0.020505 0)
(1.02254 0.0208808 0)
(1.03505 0.02546 4.89808e-19)
(1.02579 0.0267777 0)
(1.02386 0.0268459 0)
(-0.0174385 2.01972 0)
(0.00249106 1.64735 -3.88529e-21)
(-0.00388576 1.75505 -2.5052e-20)
(0.0041884 1.37849 0)
(-0.00582551 1.54693 -1.0668e-20)
(-0.00582595 1.45622 7.32449e-21)
(0.00041928 1.39134 0)
(0.392743 1.65918 0)
(0.371998 1.3076 -6.87465e-20)
(0.304218 1.3459 0)
(0.426437 1.30841 5.36857e-21)
(0.472595 1.46392 0)
(0.453922 1.41134 2.4974e-20)
(1.03685 2.67999 -1.54235e-20)
(0.968277 2.40741 -9.16175e-19)
(0.920936 2.19417 1.03275e-18)
(0.852064 2.37585 2.42417e-19)
(0.848428 2.49079 0)
(0.918397 2.48655 0)
(0.930758 2.3722 0)
(0.909563 2.36114 -9.45261e-19)
(0.689094 2.45642 -3.94188e-19)
(0.801576 2.44594 -9.76484e-20)
(0.812216 2.41985 7.42572e-20)
(0.696103 2.39417 0)
(0.800955 2.38931 0)
(0.759303 2.40264 -3.68732e-19)
(0.768897 2.48124 0)
(0.628032 1.09521 0)
(0.482789 0.909376 -5.07007e-19)
(0.562176 0.947879 -3.21479e-20)
(0.522415 1.0436 0)
(0.522546 0.988743 7.60407e-19)
(0.791832 0.880672 -1.31836e-19)
(0.804259 1.0171 0)
(0.778989 0.983178 1.89019e-19)
(0.662382 1.03215 0)
(0.663987 0.935847 0)
(1.16485 2.75529 -2.30673e-19)
(1.14236 2.81858 -9.75671e-20)
(0.931103 2.33513 1.01277e-19)
(0.898982 2.31474 -8.35898e-20)
(1.13032 2.72854 0)
(1.08406 2.6982 1.00582e-19)
(1.09041 2.48232 -3.15725e-19)
(0.985216 2.23445 -3.05941e-20)
(0.497484 1.3424 0)
(0.512139 1.06973 -1.23684e-19)
(0.57677 1.17041 0)
(0.856474 0.242267 0)
(0.773761 0.192157 0)
(0.702716 0.155682 0)
(0.84958 0.243021 -6.43913e-19)
(0.744596 0.232859 3.74547e-19)
(0.926114 0.0800376 -4.12196e-19)
(0.938819 0.126351 0)
(0.920508 0.137708 1.77417e-19)
(0.856907 0.113673 7.1142e-19)
(0.822691 0.0723827 -4.45322e-19)
(1.15823 3.35304 -7.20976e-19)
(1.20687 3.27241 0)
(1.15593 3.38172 -1.49022e-18)
(0.643934 3.5429 1.26517e-18)
(0.867001 3.1113 7.33798e-20)
(0.520071 0.818671 6.04808e-19)
(0.428083 0.815974 0)
(0.319856 0.429941 -1.50507e-19)
(0.461589 0.659024 8.61366e-19)
(0.547723 0.397245 -2.01981e-19)
(0.512173 0.476814 2.34706e-19)
(0.667958 0.516286 5.04771e-19)
(0.703182 0.549748 0)
(0.653703 0.586657 0)
(0.614565 0.533104 0)
(1.00037 0.611203 9.29799e-20)
(0.913169 0.547085 -5.25788e-19)
(0.939026 0.580083 3.97552e-19)
(0.971473 0.518453 -4.06562e-19)
(1.07957 0.490391 0)
(1.08785 0.580741 -9.9987e-20)
(0.855305 0.400795 -8.44936e-19)
(0.857209 0.389312 -1.04518e-18)
(0.795294 0.387168 6.58889e-19)
(0.799961 0.360517 -6.72286e-19)
(0.84611 0.322404 -5.28374e-19)
(0.795134 0.321812 6.47329e-19)
(1.02666 0.00589823 -4.96337e-19)
(1.02638 0.00611767 1.00974e-18)
(1.02936 8.01457e-05 6.30282e-19)
(1.03356 0.000988139 -7.5912e-19)
(1.03369 0.00899256 0)
(1.03004 0.00966684 -1.23555e-18)
(0.0623091 1.64306 2.15294e-20)
(0.0452775 1.58072 0)
(0.085876 1.69396 1.27998e-19)
(0.0961939 1.67607 -1.12447e-19)
(0.0884196 1.53657 2.79464e-20)
(0.086819 1.52602 0)
(0.00996258 1.67948 0)
(-0.00352557 1.48388 2.98775e-21)
(-0.00296401 1.43052 -2.68743e-21)
(-0.00639601 1.54317 5.28239e-21)
(0.00150458 1.88066 4.09021e-21)
(-0.00999085 1.93459 1.40391e-21)
(0.499835 1.36657 -2.7524e-19)
(0.493389 1.36934 3.02303e-19)
(0.453727 1.303 -3.06255e-20)
(0.439312 1.29269 7.80178e-21)
(0.637648 1.3045 0)
(0.55265 1.39452 1.03417e-19)
(0.568486 1.3994 -1.00717e-19)
(0.466524 1.2907 2.97767e-20)
(0.52224 1.24316 0)
(0.574304 1.20702 0)
(0.656198 2.41607 5.79122e-19)
(0.670891 2.45697 1.26325e-18)
(0.715617 2.46765 -8.7014e-19)
(0.611956 2.44225 -2.02193e-19)
(0.561384 2.53278 2.83607e-19)
(0.510022 2.50701 -7.56222e-19)
(0.978553 2.37813 -5.77848e-19)
(1.01359 2.39045 0)
(0.926186 2.17194 -6.66288e-19)
(1.05474 2.67743 0)
(1.05703 2.66412 0)
(0.60434 2.26426 -1.20163e-19)
(1.03939 3.1572 1.33837e-19)
(0.910335 3.02762 -3.80881e-20)
(0.272114 0.873718 0)
(0.30296 0.723419 -3.17611e-19)
(0.469292 0.68105 -3.19625e-19)
(0.382952 2.00972 0)
(0.463996 2.78151 -5.10797e-20)
(0.418671 2.54452 0)
(0.703863 0.670467 -8.46255e-19)
(0.784988 0.679598 1.1425e-18)
(0.807289 0.623566 -1.12954e-18)
(0.68347 0.633447 -1.09005e-19)
(0.738398 0.590251 -4.48781e-19)
(1.00254 2.7581 -1.0178e-19)
(1.04204 2.8171 -1.63008e-19)
(0.635335 2.13244 6.81211e-19)
(0.589547 1.70093 -4.85729e-19)
(0.69668 1.89667 -4.05154e-19)
(0.98857 2.4416 -1.13534e-19)
(0.994894 2.43434 2.95583e-19)
(0.654839 1.83225 2.80935e-20)
(0.445724 1.32132 1.44551e-19)
)
;

boundaryField
{
    wall-4
    {
        type            noSlip;
    }
    velocity-inlet-5
    {
        type            fixedValue;
        value           uniform (1 0 0);
    }
    velocity-inlet-6
    {
        type            fixedValue;
        value           uniform (0 3 0);
    }
    pressure-outlet-7
    {
        type            zeroGradient;
    }
    wall-8
    {
        type            noSlip;
    }
    frontAndBackPlanes
    {
        type            empty;
    }
}


// ************************************************************************* //
