/*--------------------------------*- C++ -*----------------------------------*\
| =========                 |                                                 |
| \\      /  F ield         | OpenFOAM: The Open Source CFD Toolbox           |
|  \\    /   O peration     | Version:  4.0                                   |
|   \\  /    A nd           | Web:      www.OpenFOAM.org                      |
|    \\/     M anipulation  |                                                 |
\*---------------------------------------------------------------------------*/
FoamFile
{
    version     2.0;
    format      ascii;
    class       volScalarField;
    location    "17";
    object      p;
}
// * * * * * * * * * * * * * * * * * * * * * * * * * * * * * * * * * * * * * //

dimensions      [0 2 -2 0 0 0 0];

internalField   nonuniform List<scalar> 
8800
(
0.410909
0.363133
0.324466
0.295491
0.274648
0.259841
0.249265
0.241793
0.23695
0.234802
0.235872
0.23984
0.246277
0.255419
0.268065
0.2857
0.310407
0.344294
0.386791
0.445488
0.242121
0.249803
0.257315
0.260648
0.259176
0.254136
0.247688
0.241645
0.236924
0.234017
0.23358
0.235865
0.240124
0.245858
0.252455
0.258601
0.26214
0.261344
0.255839
0.247102
0.220485
0.226664
0.230829
0.233828
0.235932
0.236593
0.235538
0.233452
0.231398
0.230369
0.231121
0.233264
0.235829
0.237792
0.23821
0.236859
0.234388
0.230895
0.226286
0.222513
0.214598
0.217272
0.220107
0.222606
0.22433
0.225564
0.22636
0.226512
0.2262
0.226027
0.226541
0.227419
0.22797
0.22778
0.226949
0.225659
0.223663
0.220935
0.218434
0.216928
0.209167
0.210613
0.212522
0.214718
0.216666
0.218149
0.219227
0.220048
0.220619
0.221043
0.221419
0.221588
0.221374
0.220782
0.219773
0.218224
0.216251
0.214163
0.212726
0.211905
0.204086
0.205012
0.206447
0.208271
0.210153
0.211896
0.213347
0.2145
0.215444
0.216173
0.21654
0.216466
0.216003
0.215134
0.213826
0.212207
0.21048
0.208873
0.20789
0.207372
0.199414
0.20007
0.201279
0.202937
0.204695
0.20647
0.208181
0.209655
0.210804
0.211662
0.212132
0.212078
0.211473
0.210372
0.208971
0.207461
0.205903
0.204525
0.203759
0.203408
0.195111
0.195561
0.19662
0.19816
0.199771
0.201351
0.202905
0.204456
0.205892
0.207034
0.207565
0.207419
0.206782
0.205861
0.204754
0.203467
0.202076
0.200851
0.200239
0.200019
0.19164
0.191902
0.192811
0.194258
0.19582
0.197404
0.198986
0.20047
0.201858
0.203076
0.203821
0.203948
0.203594
0.202833
0.201804
0.20063
0.199358
0.198283
0.197829
0.197726
0.18928
0.189422
0.190025
0.191106
0.192344
0.193639
0.195007
0.196508
0.198039
0.199463
0.200423
0.200748
0.200585
0.200134
0.199492
0.198715
0.197856
0.197181
0.196924
0.196875
0.187095
0.187197
0.187537
0.18817
0.189004
0.190026
0.191233
0.19261
0.194148
0.195744
0.197015
0.197721
0.197981
0.197918
0.19766
0.197336
0.197003
0.196747
0.196629
0.196584
0.184175
0.184257
0.1845
0.184924
0.185644
0.186526
0.187707
0.189186
0.190928
0.192822
0.19445
0.195477
0.19602
0.196233
0.1962
0.196234
0.196225
0.196174
0.19612
0.196078
0.180445
0.180506
0.180745
0.181191
0.181742
0.18265
0.183863
0.185438
0.187378
0.189628
0.191715
0.193191
0.194114
0.194695
0.195093
0.195305
0.195414
0.195424
0.195404
0.195371
0.176119
0.176156
0.176406
0.176936
0.177689
0.178611
0.180011
0.181823
0.184104
0.186832
0.189478
0.191464
0.192814
0.193695
0.194267
0.194613
0.194762
0.194805
0.194824
0.194804
0.171339
0.171362
0.171608
0.172195
0.173103
0.174256
0.175847
0.177959
0.180677
0.184025
0.187366
0.189963
0.191787
0.193075
0.193881
0.194367
0.194593
0.194706
0.194762
0.194746
0.166089
0.166115
0.16637
0.167013
0.168013
0.169432
0.171305
0.173833
0.177147
0.181292
0.185502
0.18882
0.191243
0.192863
0.193983
0.194678
0.195066
0.19528
0.19537
0.195352
0.160129
0.160156
0.160468
0.161166
0.162305
0.163935
0.166214
0.169319
0.173417
0.178582
0.183869
0.188101
0.191128
0.193307
0.194763
0.195703
0.196276
0.196599
0.196719
0.196694
0.15314
0.153174
0.153561
0.154393
0.155699
0.157677
0.160474
0.164318
0.169426
0.175885
0.182511
0.187806
0.191714
0.194427
0.196292
0.197525
0.198303
0.198738
0.198889
0.198857
0.14479
0.144835
0.145299
0.146311
0.14798
0.15042
0.153894
0.158711
0.165123
0.173212
0.181487
0.188122
0.192961
0.196374
0.198721
0.200291
0.201291
0.201846
0.202034
0.201993
0.13469
0.13475
0.135351
0.136634
0.138737
0.141836
0.146256
0.152366
0.160446
0.170577
0.180884
0.189108
0.195092
0.199317
0.202235
0.204197
0.205451
0.206141
0.206375
0.206324
0.122292
0.122369
0.123155
0.12484
0.127581
0.131597
0.137296
0.145098
0.155323
0.168006
0.180779
0.190905
0.198258
0.203457
0.207055
0.209485
0.211041
0.211892
0.212179
0.212113
0.106839
0.106948
0.108006
0.110269
0.113921
0.119217
0.126656
0.136719
0.149709
0.165556
0.181296
0.193679
0.202656
0.209015
0.213431
0.216429
0.218356
0.219397
0.219742
0.21966
0.087199
0.087359
0.0888321
0.0919786
0.096984
0.104134
0.114019
0.12712
0.143636
0.163342
0.182587
0.197602
0.208479
0.216214
0.221622
0.225323
0.227721
0.229015
0.229429
0.229321
0.0615335
0.0617829
0.0639742
0.0686173
0.0757678
0.0857308
0.0991115
0.116268
0.137224
0.161548
0.184839
0.202852
0.215909
0.225259
0.231869
0.236452
0.23945
0.241071
0.241573
0.241432
0.0267938
0.027275
0.0309365
0.0383233
0.0490888
0.0634248
0.08179
0.104298
0.13072
0.160414
0.188234
0.209562
0.22506
0.23628
0.244346
0.250056
0.253861
0.255916
0.256521
0.256331
-0.0229918
-0.0213889
-0.0139497
-0.000948579
0.0161051
0.0371624
0.062406
0.0916758
0.124537
0.160225
0.19292
0.217777
0.23591
0.249225
0.259025
0.266179
0.271112
0.273843
0.274619
0.274354
-0.0974589
-0.0884028
-0.071384
-0.0482118
-0.0216916
0.00833599
0.0419734
0.0790248
0.119044
0.161298
0.19934
0.228167
0.249397
0.265304
0.277404
0.286702
0.293526
0.297618
0.298953
0.298919
-0.177067
-0.15668
-0.129411
-0.0959006
-0.0597112
-0.0206012
0.0215072
0.0665222
0.114115
0.163688
0.208135
0.242036
0.267385
0.286819
0.302068
0.314202
0.323642
0.330419
0.333028
0.333164
-0.240293
-0.217466
-0.182005
-0.140252
-0.0955271
-0.0480369
0.00213233
0.0548145
0.109679
0.166172
0.216502
0.254847
0.283628
0.30584
0.323384
0.337442
0.348434
0.356315
0.358602
0.359007
-0.291607
-0.266672
-0.226411
-0.178738
-0.127442
-0.0730655
-0.0159232
0.043648
0.105173
0.167999
0.223538
0.265582
0.296952
0.321006
0.339854
0.354867
0.36653
0.374621
0.377344
0.377791
-0.333396
-0.307691
-0.263958
-0.211857
-0.155392
-0.0954779
-0.0324833
0.0330748
0.100531
0.169029
0.229135
0.274188
0.307428
0.332628
0.352167
0.367572
0.379406
0.387435
0.390376
0.39079
-0.368966
-0.342823
-0.296653
-0.240931
-0.180279
-0.115703
-0.0477035
0.0230669
0.0958032
0.169412
0.233572
0.28123
0.316015
0.342071
0.361996
0.37746
0.389237
0.397215
0.400297
0.400703
-0.400227
-0.373878
-0.325805
-0.267143
-0.202964
-0.13439
-0.062023
0.0134049
0.090932
0.16928
0.237282
0.287367
0.323512
0.350239
0.370416
0.385878
0.397582
0.405407
0.408599
0.40899
-0.428641
-0.402108
-0.352501
-0.291353
-0.224156
-0.152091
-0.0758251
0.00382001
0.0857844
0.168609
0.240263
0.292682
0.330174
0.357607
0.378095
0.393637
0.405282
0.412969
0.416181
0.416586
-0.455054
-0.428342
-0.377457
-0.314129
-0.2443
-0.169173
-0.08944
-0.00596326
0.0801203
0.167189
0.242502
0.297402
0.336389
0.364652
0.385535
0.401217
0.412868
0.420388
0.423556
0.424042
-0.480154
-0.45321
-0.40111
-0.335928
-0.263786
-0.18594
-0.1031
-0.0161359
0.073798
0.165054
0.244128
0.301676
0.342334
0.37159
0.393003
0.408919
0.420617
0.428056
0.431116
0.43161
-0.5042
-0.47699
-0.423785
-0.357028
-0.282809
-0.202539
-0.11691
-0.0267489
0.0668254
0.162151
0.245056
0.30548
0.348061
0.378529
0.400652
0.416935
0.428766
0.436157
0.439079
0.439505
-0.527536
-0.499949
-0.445883
-0.377597
-0.301515
-0.2191
-0.13095
-0.0378637
0.0590859
0.158332
0.245184
0.30877
0.353595
0.385535
0.408569
0.425363
0.437408
0.444792
0.44755
0.447876
-0.550199
-0.522193
-0.46742
-0.397721
-0.320008
-0.235672
-0.145273
-0.0495583
0.0505066
0.153542
0.244407
0.311421
0.358858
0.392582
0.41675
0.434211
0.446564
0.453961
0.456588
0.456755
-0.572255
-0.543913
-0.48837
-0.417435
-0.338282
-0.252258
-0.159882
-0.0618176
0.0411029
0.14772
0.242596
0.31328
0.363672
0.39956
0.425146
0.443452
0.456197
0.463601
0.466092
0.4661
-0.593775
-0.565038
-0.508777
-0.436751
-0.356341
-0.268834
-0.174723
-0.0745846
0.0308886
0.140819
0.239627
0.314166
0.367868
0.406338
0.433687
0.453047
0.466265
0.473651
0.475955
0.475815
-0.614809
-0.585602
-0.528631
-0.455647
-0.374128
-0.28534
-0.189728
-0.0878066
0.0198992
0.132823
0.235395
0.313863
0.371222
0.41275
0.442303
0.462955
0.476677
0.483963
0.485983
0.485716
-0.635173
-0.605531
-0.547907
-0.474077
-0.391589
-0.301703
-0.204833
-0.101396
0.00822048
0.123777
0.229813
0.31217
0.373421
0.418523
0.45089
0.473209
0.487398
0.494354
0.495975
0.495576
-0.654841
-0.624795
-0.566574
-0.491987
-0.40867
-0.317863
-0.219939
-0.115258
-0.0040535
0.113729
0.22285
0.308908
0.374124
0.42326
0.459254
0.483984
0.498672
0.504748
0.505619
0.505106
-0.673871
-0.643348
-0.584598
-0.509342
-0.425309
-0.333735
-0.234952
-0.129281
-0.016812
0.102778
0.21451
0.30395
0.373009
0.426413
0.466954
0.49546
0.511324
0.515618
0.514644
0.513997
-0.692109
-0.661182
-0.601929
-0.526078
-0.441446
-0.349238
-0.24978
-0.14335
-0.0299226
0.0910538
0.204852
0.297216
0.369789
0.42727
0.473048
0.507299
0.526768
0.529705
0.524506
0.522464
-0.709644
-0.678296
-0.618592
-0.542225
-0.457118
-0.364423
-0.264479
-0.157523
-0.0434502
0.0784933
0.193777
0.288477
0.36417
0.425013
0.475903
0.517784
0.544997
0.552763
0.543973
0.522544
-0.726419
-0.694702
-0.634708
-0.557958
-0.472601
-0.379603
-0.279446
-0.172267
-0.0579279
0.0644425
0.180579
0.276854
0.355318
0.418446
0.472247
0.521439
0.55606
0.563219
0.547651
0.522476
-0.742293
-0.710582
-0.650113
-0.573029
-0.48762
-0.394445
-0.29446
-0.187256
-0.073024
0.0492321
0.165487
0.262223
0.342856
0.40717
0.457624
0.506818
0.538382
0.535115
0.465305
0.423358
-0.756686
-0.726909
-0.66444
-0.58688
-0.501496
-0.408502
-0.30924
-0.202274
-0.0885196
0.0330265
0.148551
0.244559
0.326132
0.391833
0.432793
0.462158
0.478964
0.435748
0.360217
0.311019
-0.809792
-0.740581
-0.677434
-0.60095
-0.515607
-0.423103
-0.323853
-0.217566
-0.104721
0.0154764
0.129356
0.223596
0.302976
0.373921
0.383465
0.391731
0.363146
0.297463
0.212988
0.165513
-0.769672
-0.75491
-0.695871
-0.620926
-0.535837
-0.44387
-0.345826
-0.2407
-0.129629
-0.0121533
0.0976804
0.187545
0.258367
0.321015
0.324669
0.207192
0.0926465
0.0140027
-0.068176
-0.0246772
-0.797951
-0.770408
-0.711289
-0.636204
-0.551673
-0.460142
-0.362107
-0.257914
-0.148347
-0.0333741
0.0726404
0.157504
0.221033
0.252826
0.199778
0.0368376
-0.112272
-0.217711
-0.333411
-0.264618
-0.819376
-0.788517
-0.728932
-0.653458
-0.569119
-0.477839
-0.38014
-0.277053
-0.169273
-0.0573098
0.0442351
0.122812
0.176433
0.180257
0.0610229
-0.151633
-0.336991
-0.479812
-0.647103
-0.586102
-0.839838
-0.807557
-0.747087
-0.670967
-0.58659
-0.495549
-0.398545
-0.296661
-0.190821
-0.0821587
0.0142262
0.0859457
0.126286
0.0914076
-0.0947409
-0.342533
-0.581425
-0.797352
-1.04086
-1.03013
-0.859173
-0.826836
-0.765751
-0.689085
-0.604655
-0.513911
-0.417683
-0.317079
-0.213367
-0.108279
-0.0175714
0.0467756
0.0696958
-0.00638102
-0.245428
-0.517649
-0.803139
-1.06019
-1.37935
-1.75006
-0.878506
-0.846444
-0.785118
-0.708162
-0.623675
-0.53319
-0.437654
-0.338326
-0.23678
-0.135412
-0.0505221
0.00590653
0.0118736
-0.115647
-0.37897
-0.654473
-0.938414
-1.17888
-1.277
-1.42914
-0.898435
-0.866789
-0.805445
-0.728455
-0.64402
-0.55387
-0.459093
-0.361165
-0.262035
-0.164772
-0.086109
-0.0386456
-0.0554168
-0.238787
-0.49703
-0.754058
-0.983427
-1.12762
-1.15599
-1.18433
-0.919324
-0.887979
-0.826884
-0.749964
-0.66573
-0.576042
-0.482208
-0.385902
-0.289517
-0.196856
-0.124915
-0.0876564
-0.13389
-0.354553
-0.604208
-0.83374
-1.01574
-1.09421
-1.11248
-1.11573
-0.941334
-0.910112
-0.849347
-0.772616
-0.688679
-0.599614
-0.506895
-0.41244
-0.319121
-0.231547
-0.166773
-0.14199
-0.216233
-0.463827
-0.707386
-0.913845
-1.05464
-1.08717
-1.08685
-1.08653
-0.964369
-0.93326
-0.872785
-0.796312
-0.712784
-0.624464
-0.533015
-0.440625
-0.350621
-0.268574
-0.211424
-0.199071
-0.302011
-0.568275
-0.811158
-0.993548
-1.04578
-1.06816
-1.07461
-1.07538
-0.988144
-0.957237
-0.896992
-0.820886
-0.737851
-0.650402
-0.56037
-0.470217
-0.383728
-0.307473
-0.258279
-0.255603
-0.397089
-0.664891
-0.916519
-1.07406
-1.08502
-1.08019
-1.07665
-1.07549
-1.01217
-0.981605
-0.921716
-0.846075
-0.763614
-0.677126
-0.588621
-0.500842
-0.417968
-0.347564
-0.306123
-0.315718
-0.487069
-0.750099
-1.01301
-1.18264
-1.13412
-1.09935
-1.0804
-1.07407
-1.03583
-1.00586
-0.946553
-0.871463
-0.789625
-0.704196
-0.617281
-0.531941
-0.452685
-0.387964
-0.353763
-0.381035
-0.563351
-0.794198
-1.05798
-1.19266
-1.1551
-1.09114
-1.05809
-1.04973
-1.05865
-1.02923
-0.971114
-0.896485
-0.815359
-0.731005
-0.645708
-0.562732
-0.486998
-0.427404
-0.400038
-0.441882
-0.642548
-0.771645
-0.903225
-1.11775
-1.1553
-1.13079
-1.10967
-1.09354
-1.07958
-1.05118
-0.994084
-0.920392
-0.840101
-0.756804
-0.673077
-0.59223
-0.519689
-0.464395
-0.444174
-0.494819
-0.754773
-0.818436
-0.580341
-0.685466
-1.19598
-1.52553
-1.50531
-1.48233
-1.0975
-1.07061
-1.01501
-0.942216
-0.862864
-0.780671
-0.698461
-0.619186
-0.549075
-0.49742
-0.484864
-0.545147
-0.941427
-1.19342
-0.981626
-1.08118
-1.44509
-1.61123
-1.53759
-1.57512
-1.11141
-1.08644
-1.03275
-0.961043
-0.882625
-0.801542
-0.720377
-0.642378
-0.573254
-0.524405
-0.517703
-0.609991
-1.21697
-2.13414
-3.18824
-3.74429
-3.666
-3.0863
-2.50597
-2.33823
-1.11995
-1.09757
-1.04625
-0.975768
-0.898278
-0.81817
-0.737845
-0.660242
-0.590555
-0.540302
-0.534444
-0.660458
-1.40129
-2.62856
-4.05367
-4.54138
-4.47592
-4.05498
-3.52805
-3.21497
-1.12257
-1.10296
-1.05432
-0.985323
-0.90874
-0.829504
-0.749654
-0.67175
-0.599031
-0.540961
-0.526224
-0.598512
-1.12871
-1.78718
-2.45293
-2.78173
-2.67128
-2.34499
-2.02036
-1.82776
-1.11713
-1.10065
-1.05573
-0.988583
-0.912843
-0.834497
-0.755258
-0.67636
-0.598671
-0.52554
-0.472077
-0.460615
-0.491069
-0.416893
-0.194069
0.0996158
0.418789
0.674592
0.848891
0.924557
-1.10291
-1.08954
-1.04873
-0.983895
-0.9094
-0.832618
-0.754575
-0.674648
-0.590429
-0.496281
-0.396368
-0.318276
-0.0411789
0.473255
1.07993
1.65754
2.10401
2.37751
2.50691
2.54395
-1.0783
-1.06831
-1.0319
-0.969825
-0.897443
-0.823475
-0.748206
-0.669365
-0.580918
-0.469322
-0.333704
-0.191194
0.0488465
0.643381
1.30216
1.87043
2.2894
2.54143
2.66277
2.6988
-1.04127
-1.03433
-1.00239
-0.944011
-0.876342
-0.80747
-0.738488
-0.666333
-0.582056
-0.461311
-0.294508
-0.113426
0.0763147
0.518135
1.068
1.53107
1.87144
2.07656
2.18039
2.21409
-0.98678
-0.981917
-0.955984
-0.905513
-0.845596
-0.786012
-0.728823
-0.671358
-0.598937
-0.489265
-0.30692
-0.0973705
0.109395
0.354711
0.722448
1.05694
1.31909
1.48416
1.57543
1.60628
-0.917951
-0.913825
-0.894433
-0.855198
-0.80757
-0.761816
-0.722176
-0.689731
-0.660327
-0.601691
-0.457403
-0.222157
0.000295483
0.158247
0.369419
0.593937
0.779721
0.902309
0.965246
0.983377
-0.835823
-0.833298
-0.821442
-0.79687
-0.766586
-0.739661
-0.723615
-0.727527
-0.764502
-0.846891
-0.843409
-0.593844
-0.301001
-0.128153
0.0547308
0.242625
0.388164
0.486407
0.542898
0.554196
-0.760694
-0.75963
-0.753853
-0.741925
-0.728308
-0.720839
-0.730804
-0.780585
-0.920671
-1.22314
-1.46796
-1.19102
-0.743989
-0.50605
-0.303587
-0.103919
0.0522953
0.150446
0.192161
0.197428
-0.692324
-0.692572
-0.691326
-0.687776
-0.686528
-0.695326
-0.728928
-0.822491
-1.06926
-1.60995
-2.1668
-1.85827
-1.22454
-0.881613
-0.594452
-0.361049
-0.200826
-0.111339
-0.0774247
-0.07644
-0.617924
-0.6194
-0.620057
-0.620861
-0.626775
-0.64521
-0.692091
-0.805332
-1.08833
-1.72592
-2.33885
-2.03864
-1.45416
-1.07273
-0.752432
-0.519421
-0.381329
-0.318905
-0.29805
-0.297338
-0.52562
-0.527311
-0.529087
-0.532113
-0.540012
-0.559102
-0.602593
-0.70437
-0.954119
-1.48959
-1.95137
-1.72698
-1.32324
-0.983155
-0.709874
-0.541827
-0.470552
-0.449335
-0.441203
-0.438825
-0.41917
-0.420702
-0.422705
-0.425798
-0.432277
-0.446193
-0.476119
-0.543758
-0.704354
-1.03874
-1.30067
-1.1695
-0.902062
-0.661118
-0.510308
-0.453671
-0.448696
-0.453848
-0.45373
-0.451897
-0.309819
-0.310854
-0.312585
-0.31476
-0.318527
-0.32544
-0.339348
-0.369728
-0.439147
-0.578568
-0.683025
-0.588507
-0.439533
-0.343178
-0.316402
-0.331961
-0.351037
-0.362967
-0.366138
-0.365743
-0.209861
-0.210393
-0.211615
-0.212793
-0.214017
-0.215319
-0.217328
-0.221735
-0.23223
-0.247521
-0.227812
-0.198557
-0.139917
-0.146419
-0.176176
-0.208478
-0.230172
-0.241785
-0.246012
-0.246683
-0.127327
-0.1275
-0.128287
-0.128851
-0.128609
-0.12684
-0.122775
-0.115065
-0.101584
-0.0775486
-0.0445763
-0.0323964
-0.0225438
-0.0496818
-0.0841729
-0.111131
-0.128129
-0.137224
-0.141257
-0.142367
-0.0647669
-0.0647518
-0.06528
-0.0656485
-0.0650186
-0.0623832
-0.0566005
-0.0458794
-0.027902
-0.000816579
0.0245736
0.0262311
0.0186725
-0.00362313
-0.0283323
-0.0469033
-0.0586149
-0.0650165
-0.0680675
-0.0690749
-0.0207875
-0.0207106
-0.0211237
-0.021522
-0.0210859
-0.0188755
-0.0137966
-0.00436602
0.0107791
0.0313078
0.0467669
0.0453834
0.0348012
0.0190711
0.00330412
-0.00872635
-0.0165367
-0.0209255
-0.0230804
-0.0237505
0.00801213
0.0080836
0.00772979
0.00723224
0.00734085
0.00882003
0.0124666
0.0192816
0.0299759
0.0434748
0.0519868
0.0497951
0.0412673
0.0305814
0.0204823
0.0126159
0.00729323
0.00422287
0.00275323
0.00226729
0.0255013
0.0255397
0.0252215
0.0246602
0.0244637
0.0252343
0.0275625
0.0320227
0.0388551
0.0470246
0.0513886
0.0490907
0.0429227
0.0356996
0.0290609
0.0237526
0.019997
0.0177768
0.0167522
0.0164147
0.0351199
0.0351208
0.0348202
0.0342298
0.0338216
0.0340284
0.0352518
0.0378756
0.041957
0.0465753
0.0484792
0.0463063
0.0419481
0.0370401
0.0325393
0.0288561
0.0261552
0.0245291
0.0238081
0.0235804
0.0395101
0.0394832
0.0391943
0.0385978
0.038075
0.0379115
0.0383734
0.0396671
0.0418023
0.0441544
0.0447439
0.042853
0.0396911
0.0362455
0.0330985
0.0304818
0.0285125
0.0273152
0.0268038
0.0266469
0.0404975
0.0404554
0.04018
0.0396065
0.0390295
0.0386427
0.0386301
0.0391162
0.0400633
0.0410188
0.0408167
0.0391333
0.0367532
0.034265
0.0320026
0.0301018
0.0286481
0.0277615
0.0273953
0.0272857
0.0392826
0.0392355
0.0389792
0.0384461
0.0378583
0.037351
0.0370417
0.0370017
0.0372041
0.0373444
0.036745
0.0352874
0.033458
0.0316114
0.0299471
0.0285447
0.0274632
0.0268046
0.0265401
0.0264624
0.0366533
0.0366082
0.0363815
0.0359071
0.0353505
0.0348094
0.0343604
0.034041
0.0338222
0.0335036
0.0327157
0.0314465
0.0300029
0.0285987
0.027349
0.0262976
0.0254847
0.0249911
0.0247972
0.0247414
0.0331336
0.0330939
0.0329019
0.0324929
0.0319913
0.0314669
0.0309682
0.0305156
0.0300856
0.0295428
0.0286978
0.0276037
0.0264539
0.0253715
0.0244212
0.0236257
0.0230111
0.0226391
0.0224956
0.0224551
0.0290652
0.0290322
0.0288758
0.0285355
0.0281026
0.0276287
0.0271424
0.026653
0.026142
0.0255209
0.024708
0.0237804
0.0228611
0.02202
0.0212917
0.020686
0.0202187
0.0199371
0.0198306
0.0198011
0.0246714
0.0246448
0.0245218
0.0242485
0.0238898
0.0234846
0.0230482
0.0225841
0.0220778
0.0214704
0.0207393
0.0199697
0.0192405
0.0185886
0.0180311
0.0175701
0.0172155
0.0170032
0.0169245
0.0169032
0.020095
0.0200742
0.0199806
0.0197688
0.0194837
0.019154
0.0187875
0.0183847
0.0179348
0.0173991
0.0167839
0.0161681
0.0156026
0.015106
0.0146849
0.014338
0.0140719
0.013914
0.0138566
0.0138412
0.0154235
0.0154078
0.0153391
0.0151817
0.014966
0.0147133
0.0144276
0.0141077
0.0137454
0.0133158
0.0128363
0.0123712
0.0119528
0.0115891
0.0112818
0.0110284
0.0108341
0.0107198
0.0106789
0.0106678
0.0107056
0.0106944
0.0106466
0.010536
0.0103844
0.0102079
0.0100081
0.00978315
0.00952693
0.00922421
0.00889174
0.00857505
0.00829348
0.0080495
0.00784231
0.00766964
0.00753573
0.00745682
0.00742884
0.00742096
0.0059616
0.00595416
0.00592541
0.00585877
0.00577026
0.00567096
0.00556016
0.0054357
0.00529403
0.00512761
0.00494587
0.00477391
0.00462174
0.0044896
0.00437616
0.00427904
0.00420111
0.0041545
0.00413767
0.0041318
0.00121089
0.00121253
0.00122209
0.00122261
0.00120654
0.00118312
0.0011558
0.00112563
0.00109125
0.00105041
0.00100386
0.000958157
0.000918118
0.000883536
0.000854185
0.000829333
0.000809254
0.000799747
0.000805454
0.000810981
-0.748155
-0.521584
-0.265574
-0.0556809
0.114721
0.252159
0.368354
0.46651
0.511664
0.489224
-0.341748
-0.186503
-0.024748
0.114619
0.233019
0.332305
0.413195
0.471085
0.501204
0.512428
-0.0635672
0.0393691
0.14765
0.243968
0.327119
0.396937
0.452466
0.493024
0.521465
0.538539
0.131172
0.201842
0.277665
0.346441
0.406218
0.456826
0.498103
0.530588
0.556195
0.573917
0.278118
0.329186
0.383407
0.434651
0.479784
0.518917
0.552045
0.579201
0.601319
0.618813
0.396022
0.433814
0.476793
0.517191
0.553904
0.586509
0.614718
0.638135
0.657119
0.674309
0.496786
0.528227
0.565616
0.600673
0.633181
0.662473
0.687895
0.708843
0.72512
0.742158
0.590389
0.621318
0.657429
0.691279
0.722456
0.75038
0.774319
0.793603
0.807516
0.824575
0.68882
0.723032
0.76095
0.795643
0.826678
0.853718
0.876363
0.894159
0.906417
0.923866
0.805786
0.844002
0.883486
0.918487
0.948448
0.973726
0.994532
1.01076
1.0225
1.04062
0.951963
0.990926
1.02734
1.05844
1.08449
1.1069
1.12623
1.14197
1.15457
1.17261
1.12743
1.15949
1.18594
1.20859
1.22879
1.24771
1.26557
1.28217
1.29763
1.31574
1.31647
1.33384
1.34911
1.36551
1.38154
1.39618
1.40948
1.42348
1.44109
1.46128
1.49863
1.50813
1.51974
1.5306
1.53993
1.54961
1.56051
1.57195
1.58335
1.59873
1.7059
1.70961
1.69468
1.67989
1.67371
1.67946
1.69796
1.72831
1.76052
1.78719
2.01222
1.87738
1.80083
1.75859
1.74118
1.74515
1.77259
1.829
1.93163
2.15601
0.301503
0.299387
0.294904
0.286295
0.274098
0.262003
0.25181
0.243939
0.238311
0.234988
0.234476
0.236986
0.241865
0.248886
0.258104
0.269512
0.282063
0.293026
0.299111
0.302133
0.225897
0.23175
0.238114
0.242646
0.245153
0.244871
0.242176
0.238393
0.234882
0.232554
0.232238
0.234193
0.237607
0.241675
0.2453
0.247033
0.245981
0.242402
0.237161
0.230511
0.217418
0.219718
0.223167
0.226238
0.228394
0.229962
0.230775
0.230503
0.229478
0.228508
0.228493
0.229668
0.231215
0.23226
0.232216
0.231134
0.229412
0.226925
0.223554
0.220587
0.211835
0.212917
0.214819
0.217308
0.219448
0.220985
0.222092
0.222888
0.22329
0.223435
0.22372
0.224216
0.224496
0.224267
0.223582
0.222481
0.220781
0.218492
0.216247
0.214814
0.206584
0.20723
0.20844
0.21035
0.212347
0.214175
0.215626
0.216726
0.21761
0.218315
0.218807
0.21899
0.218807
0.218275
0.217337
0.215914
0.214133
0.212259
0.210704
0.209872
0.201698
0.202119
0.203026
0.204609
0.206407
0.208223
0.209948
0.211417
0.212577
0.213481
0.214097
0.214287
0.213996
0.21323
0.212009
0.210498
0.208878
0.207295
0.206071
0.205513
0.197207
0.197489
0.198227
0.199652
0.201328
0.203001
0.204679
0.206331
0.20781
0.208993
0.209765
0.20994
0.209513
0.208599
0.207409
0.206079
0.204642
0.203206
0.20217
0.201768
0.193228
0.193379
0.193976
0.195291
0.196872
0.198463
0.20001
0.201502
0.202938
0.204255
0.205196
0.205492
0.205233
0.204599
0.203674
0.202517
0.201219
0.199913
0.199021
0.198762
0.190357
0.190416
0.190841
0.191935
0.193352
0.194813
0.196344
0.197893
0.199413
0.200825
0.201941
0.202471
0.2024
0.20189
0.201074
0.200121
0.199043
0.197978
0.197329
0.197186
0.188245
0.18828
0.18853
0.189186
0.190134
0.191195
0.192356
0.193676
0.195141
0.196679
0.198029
0.19884
0.199106
0.199018
0.198721
0.198241
0.197676
0.197142
0.196835
0.196753
0.185742
0.185774
0.185945
0.186341
0.186964
0.187815
0.188903
0.190233
0.191772
0.193471
0.195112
0.196281
0.196898
0.197108
0.196989
0.196825
0.196699
0.196551
0.196444
0.19639
0.1824
0.182422
0.182568
0.182905
0.183411
0.18413
0.18515
0.186489
0.18817
0.190137
0.192156
0.193723
0.194659
0.195166
0.195533
0.195748
0.195815
0.19583
0.195795
0.19576
0.178337
0.178342
0.178477
0.178846
0.179421
0.180177
0.181281
0.182755
0.184644
0.186937
0.18943
0.191512
0.192919
0.193833
0.194406
0.194774
0.194998
0.19507
0.195076
0.195067
0.173785
0.173781
0.173904
0.17432
0.175011
0.175923
0.17716
0.17887
0.181092
0.183852
0.186953
0.189639
0.191544
0.192847
0.193729
0.194265
0.194548
0.194664
0.194718
0.194729
0.168788
0.168768
0.1689
0.169336
0.170093
0.171193
0.172729
0.174692
0.17733
0.180696
0.184554
0.187984
0.190484
0.192218
0.193402
0.194194
0.194629
0.19486
0.194979
0.195004
0.163234
0.163211
0.163369
0.163836
0.164685
0.165943
0.167705
0.170115
0.173344
0.177504
0.182324
0.186681
0.189893
0.192134
0.193715
0.194747
0.195387
0.195763
0.195949
0.195982
0.156811
0.156783
0.15697
0.157516
0.158471
0.159951
0.162066
0.165024
0.169021
0.1742
0.180232
0.185705
0.189728
0.192667
0.194671
0.196021
0.196897
0.19743
0.197682
0.197726
0.149172
0.149136
0.149364
0.150032
0.151226
0.153007
0.155608
0.159291
0.164285
0.170763
0.178308
0.185147
0.190255
0.193895
0.19643
0.198149
0.199289
0.199991
0.200314
0.200368
0.139979
0.139932
0.140235
0.141081
0.142555
0.144812
0.148103
0.152738
0.159017
0.167151
0.176585
0.185109
0.19145
0.195984
0.19914
0.201294
0.202732
0.20362
0.204023
0.20409
0.128788
0.128732
0.129142
0.130247
0.132138
0.135026
0.139234
0.145138
0.153107
0.163348
0.175115
0.185674
0.193491
0.199086
0.202993
0.205665
0.207456
0.208568
0.209069
0.209147
0.114949
0.114883
0.115452
0.116926
0.119412
0.123191
0.128666
0.136296
0.14647
0.159363
0.173985
0.186982
0.196562
0.203418
0.208215
0.211508
0.213721
0.215099
0.215721
0.215815
0.0974961
0.097421
0.0982368
0.100268
0.103638
0.108719
0.115996
0.12597
0.139019
0.155241
0.173315
0.189193
0.200844
0.20919
0.21505
0.219094
0.221825
0.22353
0.224304
0.224415
0.0750131
0.0749492
0.0761825
0.079079
0.0838028
0.0908286
0.100707
0.11391
0.130728
0.151082
0.173254
0.192471
0.206515
0.216605
0.223739
0.228703
0.232083
0.234199
0.235153
0.235286
0.0451526
0.0451519
0.0471433
0.051533
0.0585322
0.0686583
0.0823989
0.100066
0.121733
0.14709
0.174001
0.196981
0.213722
0.225819
0.234472
0.240579
0.244793
0.247448
0.248632
0.248789
0.00362151
0.00384937
0.00755317
0.0150822
0.026268
0.0415401
0.061006
0.0846822
0.112383
0.143593
0.175791
0.202866
0.222545
0.236882
0.247313
0.254843
0.260164
0.263562
0.265042
0.265217
-0.0574021
-0.055763
-0.0469422
-0.0328032
-0.0138247
0.00960947
0.0370825
0.0683996
0.103233
0.140973
0.178817
0.210164
0.232915
0.249648
0.26206
0.2713
0.278047
0.282449
0.284388
0.284617
-0.13043
-0.127759
-0.111299
-0.086468
-0.0569321
-0.0239987
0.0122389
0.0517462
0.0942622
0.139269
0.183776
0.220587
0.247601
0.267886
0.283372
0.295324
0.304593
0.310474
0.312523
0.313172
-0.205634
-0.197156
-0.172852
-0.137905
-0.0987588
-0.0566555
-0.0117717
0.0358585
0.0860372
0.138325
0.189557
0.231885
0.263144
0.28692
0.305444
0.320088
0.331583
0.339135
0.342769
0.34396
-0.263682
-0.253873
-0.224636
-0.183063
-0.13652
-0.0867837
-0.0342733
0.0208084
0.0781592
0.137278
0.194693
0.241855
0.276593
0.302997
0.323548
0.339778
0.35251
0.361374
0.366075
0.367445
-0.310669
-0.300313
-0.267682
-0.221369
-0.169295
-0.113554
-0.0547554
0.00674824
0.0704685
0.135759
0.198702
0.249993
0.28744
0.315623
0.337344
0.354367
0.367652
0.377169
0.382119
0.383579
-0.349514
-0.339091
-0.304407
-0.254439
-0.197949
-0.137372
-0.0733233
-0.00630239
0.0630184
0.133817
0.201692
0.256507
0.296098
0.325562
0.348017
0.365407
0.378829
0.388358
0.393316
0.394881
-0.383182
-0.372792
-0.336551
-0.283697
-0.223591
-0.158932
-0.0903833
-0.0185674
0.0557436
0.131521
0.203899
0.26196
0.303481
0.334008
0.356959
0.374498
0.387907
0.397428
0.402388
0.40389
-0.413192
-0.402867
-0.365468
-0.310268
-0.247136
-0.178984
-0.1065
-0.0303915
0.0484606
0.128879
0.205537
0.266663
0.309958
0.341438
0.364831
0.382526
0.395933
0.405427
0.410419
0.411768
-0.440756
-0.430454
-0.392144
-0.334917
-0.269216
-0.198007
-0.122041
-0.0420788
0.0409329
0.125702
0.206437
0.270594
0.315742
0.348276
0.37221
0.390121
0.403581
0.413057
0.418056
0.419266
-0.466637
-0.456336
-0.417207
-0.35823
-0.290267
-0.216386
-0.137342
-0.0539026
0.0329316
0.121796
0.20661
0.273958
0.321133
0.354861
0.379447
0.397673
0.411241
0.420696
0.425689
0.426795
-0.491284
-0.48096
-0.441088
-0.380594
-0.310638
-0.234374
-0.15258
-0.0660009
0.0243714
0.117195
0.206083
0.276767
0.326189
0.361333
0.386743
0.40541
0.419178
0.428662
0.433622
0.434686
-0.515072
-0.504664
-0.464064
-0.40227
-0.330505
-0.252116
-0.167862
-0.0784354
0.0152267
0.111798
0.204717
0.278938
0.330894
0.36774
0.394193
0.413457
0.427532
0.437102
0.441964
0.443016
-0.538187
-0.527613
-0.486357
-0.423395
-0.34999
-0.269736
-0.183273
-0.0912675
0.00538698
0.10549
0.202431
0.280387
0.335179
0.37403
0.401791
0.421844
0.436346
0.446067
0.450835
0.45186
-0.560644
-0.549885
-0.508084
-0.443991
-0.369165
-0.287248
-0.198833
-0.104543
-0.00517037
0.0982447
0.199126
0.280987
0.338948
0.380143
0.409514
0.43057
0.44563
0.455545
0.460229
0.461148
-0.582573
-0.571596
-0.529246
-0.464104
-0.388029
-0.304653
-0.214529
-0.118218
-0.0164044
0.0900489
0.194705
0.28057
0.342022
0.385976
0.417298
0.439591
0.455339
0.465482
0.470056
0.470838
-0.603906
-0.592712
-0.549822
-0.483745
-0.40657
-0.321915
-0.230296
-0.132228
-0.0282782
0.0808984
0.189106
0.278974
0.344159
0.391309
0.425018
0.448856
0.465421
0.475792
0.480222
0.48081
-0.624665
-0.61323
-0.569786
-0.502882
-0.424735
-0.338972
-0.246073
-0.146504
-0.0407249
0.0708382
0.182292
0.276046
0.345115
0.395859
0.432511
0.458323
0.475841
0.486314
0.490433
0.490812
-0.6447
-0.633095
-0.589109
-0.521472
-0.442467
-0.355751
-0.261792
-0.160962
-0.0536465
0.0599489
0.174254
0.271662
0.344644
0.399312
0.439545
0.468001
0.486729
0.497042
0.500528
0.500616
-0.664112
-0.652261
-0.607764
-0.539478
-0.459734
-0.372209
-0.277353
-0.175507
-0.0669404
0.0483329
0.16504
0.265737
0.342486
0.401231
0.445685
0.47783
0.498511
0.508303
0.510314
0.509867
-0.682776
-0.670676
-0.625728
-0.556851
-0.476454
-0.388262
-0.292672
-0.190016
-0.0804846
0.0360846
0.154739
0.258235
0.338455
0.401131
0.450221
0.487401
0.511812
0.521573
0.520466
0.518167
-0.700724
-0.688419
-0.642955
-0.573546
-0.492591
-0.403844
-0.307672
-0.204409
-0.0941579
0.0233653
0.143477
0.249168
0.332442
0.398577
0.452087
0.495437