/*--------------------------------*- C++ -*----------------------------------*\
| =========                 |                                                 |
| \\      /  F ield         | OpenFOAM: The Open Source CFD Toolbox           |
|  \\    /   O peration     | Version:  4.0                                   |
|   \\  /    A nd           | Web:      www.OpenFOAM.org                      |
|    \\/     M anipulation  |                                                 |
\*---------------------------------------------------------------------------*/
FoamFile
{
    version     2.0;
    format      ascii;
    class       surfaceScalarField;
    location    "17";
    object      phi;
}
// * * * * * * * * * * * * * * * * * * * * * * * * * * * * * * * * * * * * * //

dimensions      [0 3 -1 0 0 0 0];

internalField   nonuniform List<scalar> 
17370
(
-0.0916036
0.0960177
0.284597
-0.0776075
0.0594351
0.364948
-0.0430532
0.0316288
0.427593
-0.0223234
0.0162697
0.505305
-0.0116761
0.00879916
0.602279
-0.00657364
0.00507022
0.720561
-0.00382016
0.00294121
0.863785
-0.00218236
0.0016222
1.03601
-0.00111153
0.000710375
1.2429
-0.000319476
-5.30934e-05
1.49156
0.000421793
-0.000813575
1.49158
0.00121152
-0.00171517
1.24319
0.0022685
-0.00302043
1.03639
0.00389403
-0.00513818
0.864151
0.00663375
-0.00884845
0.721272
0.011715
-0.0162976
0.603797
0.0223418
-0.0316377
0.508735
0.0430524
-0.0594289
0.432545
0.0776035
-0.0960144
0.365186
0.0916118
0.197399
-0.127111
0.0880524
0.0390583
-0.364379
0.354056
-0.0714496
0.0817731
-0.446655
0.454283
-0.0791629
0.0715341
-0.521014
0.529173
-0.0636469
0.0554879
-0.612975
0.620795
-0.0480557
0.0402364
-0.727128
0.733666
-0.0335833
0.0270446
-0.867575
0.872364
-0.0218634
0.0170745
-1.03857
1.04182
-0.0134514
0.0102016
-1.2447
1.24703
-0.00772116
0.00538292
-1.4928
1.49477
-0.00346662
0.00150139
-1.49264
1.49443
0.000291064
-0.00207645
-1.24409
1.24598
0.00402698
-0.00591673
-1.03761
1.04006
0.00822327
-0.0106695
-0.866205
0.869792
0.0138783
-0.0174647
-0.72459
0.729743
0.0222157
-0.0273682
-0.609057
0.615682
0.0338807
-0.040505
-0.515133
0.522532
0.0482891
-0.0556877
-0.439883
0.447727
0.063801
-0.0716447
-0.374749
0.377369
0.0792135
-0.0818341
-0.256956
0.224534
0.0714969
-0.0390755
-0.0688609
0.0592854
0.0095755
-0.0519228
0.0587061
-0.374866
0.368083
-0.0578482
0.0540258
-0.453959
0.457781
-0.0486012
0.0440971
-0.527644
0.532148
-0.0395843
0.0356871
-0.620813
0.62471
-0.031456
0.0274418
-0.734636
0.73865
-0.0230686
0.0191811
-0.873881
0.877769
-0.0151648
0.0117548
-1.04326
1.04667
-0.00831569
0.00538858
-1.24852
1.25145
-0.0023249
-0.000516564
-1.49679
1.49963
0.00334839
-0.00637858
-1.49728
1.50031
0.00926564
-0.012648
-1.24998
1.25336
0.0160046
-0.019961
-1.0456
1.04956
0.0237927
-0.0281013
-0.877148
0.881457
0.0320559
-0.0362251
-0.739057
0.743226
0.0400729
-0.0445371
-0.626068
0.630532
0.0490011
-0.0543859
-0.535098
0.540483
0.0581627
-0.0589679
-0.458167
0.458972
0.052114
-0.0318721
-0.336931
0.31669
0.00960987
-0.0687781
0.0591683
-0.053533
0.0494719
0.00406106
-0.0328871
0.0431716
-0.358715
0.34843
-0.046734
0.0460527
-0.459605
0.460287
-0.0430199
0.0397299
-0.536094
0.539384
-0.03602
0.0326945
-0.628373
0.631698
-0.0291421
0.0260141
-0.742
0.745129
-0.0226936
0.0196424
-0.881215
0.884266
-0.0162349
0.0130597
-1.05001
1.05318
-0.00955797
0.00632343
-1.2546
1.25783
-0.00269539
-0.000794577
-1.50288
1.50637
0.00426491
-0.0078381
-1.5037
1.50727
0.0110081
-0.0144278
-1.25683
1.26025
0.0175174
-0.020823
-1.05321
1.05652
0.0237781
-0.0269961
-0.885065
0.888283
0.030032
-0.0334881
-0.746929
0.750385
0.0367343
-0.0403692
-0.634674
0.638309
0.0435996
-0.0465665
-0.544681
0.547648
0.0471809
-0.0435264
-0.457201
0.453546
0.0331302
-0.0161005
-0.297572
0.280542
0.00409693
-0.0533832
0.0492863
-0.0463691
0.0438969
0.00247225
-0.0224316
0.032531
-0.338015
0.327916
-0.0381253
0.0390618
-0.460093
0.459156
-0.0378499
0.0355851
-0.542084
0.544349
-0.0329695
0.0304289
-0.634635
0.637175
-0.027474
0.0246797
-0.748096
0.75089
-0.0215413
0.0186581
-0.887191
0.890074
-0.0154664
0.0125052
-1.05622
1.05918
-0.0091674
0.00600592
-1.26106
1.26422
-0.002398
-0.00107274
-1.50989
1.51336
0.00452358
-0.00806499
-1.51087
1.51441
0.0111315
-0.0143459
-1.26357
1.26678
0.0171873
-0.0202449
-1.05963
1.06269
0.0230078
-0.0260138
-0.891392
0.894398
0.0286932
-0.0315403
-0.753556
0.756403
0.0339833
-0.0364944
-0.641358
0.643869
0.038669
-0.0397705
-0.549608
0.550709
0.0387264
-0.0329858
-0.448626
0.442886
0.0227313
-0.00994784
-0.265714
0.252931
0.00251641
-0.0461418
0.0436253
-0.0418765
0.0402037
0.00167285
-0.015871
0.0246346
-0.318412
0.309649
-0.0308404
0.0328112
-0.45763
0.455659
-0.0323979
0.0308325
-0.546202
0.547768
-0.0288048
0.0268478
-0.639369
0.641326
-0.0245714
0.022332
-0.753423
0.755663
-0.019688
0.0171267
-0.892848
0.895409
-0.0141972
0.011442
-1.06207
1.06482
-0.00832625
0.00536579
-1.2673
1.27026
-0.00194067
-0.00141695
-1.51679
1.52015
0.00474163
-0.00807729
-1.51787
1.52121
0.0109209
-0.0138809
-1.26989
1.27285
0.0164766
-0.0192245
-1.06564
1.06839
0.0216175
-0.0240851
-0.897189
0.899657
0.0261744
-0.0282996
-0.758862
0.760987
0.0301172
-0.0320148
-0.645992
0.647889
0.0334682
-0.0337462
-0.551282
0.55156
0.0316224
-0.0252093
-0.436684
0.430271
0.016242
-0.00682511
-0.241953
0.232536
0.00172739
-0.0415567
0.0398293
-0.0388178
0.0376669
0.00115094
-0.0112341
0.018334
-0.301702
0.294602
-0.0243526
0.0268984
-0.453355
0.45081
-0.0269724
0.0258256
-0.549137
0.550284
-0.023947
0.0221894
-0.643157
0.644915
-0.0202791
0.0185166
-0.757654
0.759416
-0.0165188
0.0145625
-0.897667
0.899623
-0.0122376
0.00991465
-1.06737
1.0697
-0.00715836
0.00445202
-1.27308
1.27579
-0.00127243
-0.00185525
-1.5234
1.52652
0.00493854
-0.0079925
-1.5244
1.52745
0.0105382
-0.0130862
-1.27562
1.27817
0.0152044
-0.0172932
-1.07083
1.07292
0.0190397
-0.0208175
-0.90176
0.903538
0.0223779
-0.0240743
-0.762864
0.76456
0.0256593
-0.0273658
-0.649682
0.651388
0.0283383
-0.0280649
-0.551571
0.551297
0.0253037
-0.019017
-0.423839
0.417553
0.0116718
-0.00480183
-0.22448
0.21761
0.00121583
-0.038384
0.0371681
-0.0367062
0.0359209
0.000785327
-0.00761265
0.0130068
-0.288352
0.282958
-0.0183668
0.0212064
-0.448098
0.445258
-0.0219051
0.0214048
-0.551132
0.551632
-0.0200576
0.0187413
-0.646502
0.647819
-0.0172429
0.0157858
-0.761005
0.762462
-0.0140506
0.0123333
-0.901405
0.903122
-0.0102707
0.00822183
-1.07184
1.07389
-0.00576954
0.003339
-1.27836
1.28079
-0.00046873
-0.00232259
-1.5295
1.53229
0.00506963
-0.00779627
-1.53036
1.53309
0.0100332
-0.0122256
-1.28051
1.28271
0.0140069
-0.0157677
-1.07478
1.07654
0.0172124
-0.0186499
-0.905085
0.906523
0.0198544
-0.0211011
-0.766051
0.767297
0.0221994
-0.0233199
-0.652896
0.654016
0.0235965
-0.0226402
-0.550721
0.549765
0.0195213
-0.0138249
-0.411525
0.405829
0.00813641
-0.00331478
-0.211796
0.206974
0.000865532
-0.0361354
0.0352699
-0.0353203
0.0349114
0.0004089
-0.00423101
0.00782448
-0.27845
0.274857
-0.0121326
0.0150327
-0.442329
0.439429
-0.0164621
0.0166741
-0.551762
0.551549
-0.0161395
0.0153232
-0.648853
0.64967
-0.0141988
0.0130142
-0.763795
0.76498
-0.0115548
0.0100546
-0.904771
0.906272
-0.00824477
0.00642051
-1.07586
1.07769
-0.00423084
0.0020636
-1.2831
1.28527
0.000490257
-0.00298347
-1.53492
1.53742
0.00541373
-0.00777684
-1.53564
1.538
0.00968273
-0.0115264
-1.28476
1.2866
0.0130159
-0.0144503
-1.07819
1.07963
0.0156001
-0.0167031
-0.907844
0.908947
0.0175489
-0.0182905
-0.768276
0.769017
0.0188036
-0.0190301
-0.654651
0.654877
0.0185254
-0.0167425
-0.548356
0.546573
0.0134902
-0.00878574
-0.400557
0.395852
0.00485285
-0.00191163
-0.20312
0.200179
0.000505556
-0.0345808
0.0340752
-0.0346836
0.034597
8.66126e-05
-0.0017057
0.00371477
-0.272133
0.270124
-0.00659372
0.00889306
-0.436753
0.434454
-0.0103416
0.010767
-0.551141
0.550716
-0.010576
0.0100777
-0.650332
0.65083
-0.00940676
0.00865415
-0.765951
0.766704
-0.00765181
0.00659454
-0.907546
0.908603
-0.00525811
0.00387233
-1.07929
1.08068
-0.00217653
0.000446173
-1.28723
1.28896
0.0016609
-0.00376785
-1.53974
1.54185
0.00578359
-0.00763348
-1.54012
1.54197
0.00903394
-0.0102991
-1.28815
1.28942
0.0112361
-0.0120427
-1.08074
1.08155
0.0126009
-0.013044
-0.909707
0.91015
0.013392
-0.0137117
-0.769579
0.769898
0.0138749
-0.0136712
-0.654838
0.654634
0.0128818
-0.0110086
-0.544637
0.542764
0.00828547
-0.00492422
-0.391829
0.388468
0.00249344
-0.000890637
-0.198014
0.196412
0.000209069
-0.0337392
0.0335301
-0.0345937
0.0346269
-3.32132e-05
-0.000709589
0.00193602
-0.26861
0.267384
-0.00388729
0.0055602
-0.432533
0.430861
-0.00666365
0.00700889
-0.550339
0.549993
-0.0069875
0.00670249
-0.651174
0.651459
-0.00618006
0.00560802
-0.767321
0.767893
-0.00487486
0.00406887
-0.909502
0.910308
-0.00300732
0.00187157
-1.0819
1.08304
-0.000426528
-0.00106339
-1.29052
1.29201
0.00288443
-0.00467887
-1.54376
1.54555
0.00637337
-0.00790531
-1.54361
1.54514
0.00902397
-0.00996731
-1.29048
1.29142
0.0106188
-0.0111433
-1.08216
1.08268
0.0114741
-0.0116856
-0.910458
0.91067
0.0116921
-0.0115301
-0.769929
0.769767
0.0112608
-0.0107745
-0.654283
0.653797
0.0099313
-0.00824832
-0.541018
0.539335
0.00601764
-0.003451
-0.385609
0.383042
0.00169249
-0.000574629
-0.195139
0.194021
0.000118951
-0.0333902
0.0332713
-0.0346725
0.0347254
-5.28956e-05
-0.000406249
0.00137519
-0.266313
0.265344
-0.00307957
0.00471033
-0.429273
0.427642
-0.0059553
0.0064445
-0.549611
0.549121
-0.00642745
0.00613955
-0.651779
0.652067
-0.00569519
0.00516325
-0.768456
0.768988
-0.00442226
0.00358463
-0.911089
0.911926
-0.00246215
0.00122293
-1.08416
1.0854
0.000377492
-0.00203285
-1.29353
1.29519
0.00400485
-0.00588324
-1.54733
1.54921
0.00763692
-0.00922341
-1.54665
1.54824
0.0103517
-0.0112737
-1.29232
1.29325
0.0118379
-0.0121681
-1.0831
1.08343
0.0122571
-0.0122234
-0.910774
0.910741
0.0121364
-0.01193
-0.769548
0.769342
0.0116437
-0.0110122
-0.65323
0.652599
0.00993511
-0.0079927
-0.537603
0.535661
0.00568534
-0.00323084
-0.380592
0.378137
0.00161305
-0.000580584
-0.192966
0.191933
0.000133719
-0.0331505
0.0330167
-0.0347803
0.034844
-6.37015e-05
-0.000119995
0.000867312
-0.264466
0.263719
-0.00248055
0.00438429
-0.425879
0.423976
-0.00632654
0.00751263
-0.548391
0.547204
-0.00809691
0.00818453
-0.652198
0.65211
-0.00786329
0.00721572
-0.76956
0.770208
-0.00625762
0.00507841
-0.912914
0.914094
-0.00346638
0.00173244
-1.08685
1.08858
0.000425254
-0.00259103
-1.29706
1.29923
0.0051163
-0.00750203
-1.5513
1.55368
0.00972818
-0.011769
-1.55003
1.55207
0.0132842
-0.0145772
-1.29431
1.2956
0.0154465
-0.0160917
-1.08388
1.08453
0.0164137
-0.0164675
-0.910647
0.910701
0.0161401
-0.0155645
-0.768993
0.768417
0.0148463
-0.0133622
-0.651682
0.650198
0.0113664
-0.00850351
-0.533317
0.530454
0.00573974
-0.00319216
-0.375625
0.373077
0.00163081
-0.00063639
-0.190917
0.189922
0.000169202
-0.0328677
0.0326985
-0.0349226
0.0350295
-0.000106882
0.000325561
4.44502e-05
-0.263113
0.262743
-0.00124911
0.00308465
-0.422026
0.420191
-0.00548695
0.00744572
-0.545604
0.543645
-0.00891005
0.00929425
-0.65188
0.651496
-0.00910617
0.00859986
-0.770865
0.771371
-0.00748525
0.00599129
-0.915463
0.916956
-0.00392834
0.0017371
-1.09054
1.09274
0.000933319
-0.00356823
-1.30163
1.30427
0.00663856
-0.00954052
-1.55635
1.55925
0.0122232
-0.0146572
-1.55435
1.55679
0.0164464
-0.0180373
-1.29711
1.2987
0.0191602
-0.0200044
-1.08529
1.08613
0.0203727
-0.0202752
-0.910703
0.910606
0.0198748
-0.0189666
-0.767723
0.766815
0.0173289
-0.014694
-0.648119
0.645484
0.0116886
-0.00814298
-0.527161
0.523616
0.00526463
-0.00291806
-0.370586
0.368239
0.00154812
-0.000650435
-0.188976
0.188079
0.000190001
-0.0325217
0.0323317
-0.0351609
0.0353258
-0.000164885
0.000890305
-0.00097605
-0.262612
0.262698
0.000450978
0.000785691
-0.418601
0.417364
-0.00281111
0.00478169
-0.541605
0.539634
-0.00657042
0.00758967
-0.650803
0.649784
-0.00770736
0.00711639
-0.771935
0.772526
-0.00582023
0.00418723
-0.918568
0.920201
-0.00198237
-0.000330772
-1.09499
1.0973
0.00313873
-0.0058951
-1.30697
1.30973
0.00908159
-0.0120593
-1.56223
1.56521
0.0147697
-0.0171348
-1.55929
1.56165
0.018845
-0.0202888
-1.30024
1.30168
0.021173
-0.0216566
-1.08686
1.08734
0.0216838
-0.0214378
-0.910368
0.910122
0.0207169
-0.0190169
-0.765504
0.763804
0.0167022
-0.0135765
-0.642527
0.639401
0.0103839
-0.00702945
-0.520097
0.516743
0.00455856
-0.00264296
-0.366112
0.364196
0.00149428
-0.00067033
-0.187239
0.186415
0.000206122
-0.0321465
0.0319404
-0.0355303
0.0357639
-0.00023359
0.00141879
-0.00196638
-0.262972
0.26352
0.0021644
-0.00178923
-0.416594
0.416219
0.000701789
0.000542639
-0.538112
0.536868
-0.00174366
0.00243425
-0.648924
0.648234
-0.00254553
0.00203299
-0.773076
0.773588
-0.000920608
-0.000533707
-0.921644
0.923099
0.00252134
-0.00462879
-1.09946
1.10156
0.00720248
-0.00972028
-1.31233
1.31485
0.0125787
-0.0151634
-1.568
1.57058
0.0174
-0.0192104
-1.56383
1.56564
0.0203257
-0.0211494
-1.30285
1.30367
0.0214601
-0.0214652
-1.08757
1.08757
0.0211349
-0.0202101
-0.909516
0.908591
0.0188018
-0.0167672
-0.761813
0.759778
0.0144405
-0.0115602
-0.636382
0.633502
0.00885591
-0.00616761
-0.51377
0.511082
0.00422348
-0.00265111
-0.36251
0.360938
0.0016025
-0.000753154
-0.185618
0.184768
0.000237328
-0.0317431
0.0315058
-0.0360518
0.0363595
-0.000307736
0.00193028
-0.00283011
-0.264262
0.265162
0.0036084
-0.00395186
-0.416318
0.416661
0.00384694
-0.0034978
-0.53628
0.535931
0.00314063
-0.00306552
-0.647941
0.647866
0.00337439
-0.00404114
-0.774063
0.77473
0.00517925
-0.00654999
-0.924326
0.925697
0.00837294
-0.0102711
-1.10343
1.10533
0.0125388
-0.0146936
-1.3171
1.31926
0.0170295
-0.0190126
-1.57283
1.57481
0.0205729
-0.021622
-1.56713
1.56818
0.0220349
-0.0219841
-1.3041
1.30405
0.0216982
-0.0209928
-1.08704
1.08633
0.0199872
-0.0185347
-0.907239
0.905787
0.0169343
-0.0149074
-0.757697
0.75567
0.0128311
-0.0104249
-0.630929
0.628522
0.00826774
-0.00612761
-0.508819
0.506679
0.00448829
-0.00300507
-0.359529
0.358045
0.00188805
-0.000905736
-0.183912
0.182929
0.000287007
-0.0312797
0.0309927
-0.0367389
0.0371314
-0.000392505
0.00248445
-0.00371645
-0.266295
0.267527
0.00497212
-0.0058766
-0.417369
0.418274
0.00652547
-0.00697167
-0.536207
0.536653
0.00747802
-0.00805474
-0.648209
0.648786
0.00890585
-0.00994249
-0.775485
0.776522
0.0113755
-0.0129044
-0.926918
0.928447
0.0147721
-0.0165978
-1.10698
1.10881
0.0186654
-0.0205195
-1.32113
1.32299
0.0223763
-0.0237649
-1.57643
1.57782
0.0246258
-0.0248916
-1.56887
1.56914
0.0246167
-0.0238917
-1.30367
1.30295
0.022931
-0.0215844
-1.08512
1.08378
0.0201304
-0.0183621
-0.904035
0.902266
0.0166276
-0.0146263
-0.753571
0.751569
0.012728
-0.0106247
-0.626354
0.62425
0.00875624
-0.00683151
-0.504858
0.502933
0.00522852
-0.00361919
-0.356681
0.355072
0.00231127
-0.0011139
-0.181919
0.180722
0.000352175
-0.0307138
0.0303617
-0.0376111
0.0381237
-0.000512599
0.00321007
-0.00483255
-0.269043
0.270666
0.00656987
-0.00798259
-0.419577
0.42099
0.00924434
-0.0102631
-0.537622
0.538641
0.0113822
-0.0125835
-0.649769
0.65097
0.0141062
-0.0156838
-0.777692
0.77927
0.0176028
-0.0194643
-0.929854
0.931715
0.0215723
-0.0235012
-1.11047
1.1124
0.0255464
-0.0272489
-1.32462
1.32632
0.0287775
-0.0296919
-1.57888
1.5798
0.0299523
-0.0295111
-1.56901
1.56857
0.0285965
-0.0272146
-1.30189
1.30051
0.0256765
-0.0237977
-1.08208
1.0802
0.021961
-0.0198924
-0.900205
0.898137
0.0179867
-0.0159071
-0.74941
0.74733
0.0140159
-0.0119595
-0.622256
0.620199
0.0101074
-0.0081134
-0.501234
0.49924
0.00634196
-0.00446859
-0.353533
0.35166
0.00288423
-0.00139417
-0.179484
0.177994
0.000440545
-0.0300157
0.0295751
-0.0387271
0.039409
-0.000681988
0.00421383
-0.00635039
-0.272606
0.274743
0.00868094
-0.0106283
-0.422806
0.424754
0.012468
-0.0140226
-0.540269
0.541824
0.0157679
-0.0175517
-0.652565
0.654349
0.0197409
-0.0219107
-0.780918
0.783088
0.0243979
-0.0266962
-0.933512
0.93581
0.0291892
-0.0313742
-1.11424
1.11643
0.033571
-0.0352665
-1.32786
1.32956
0.0366027
-0.037151
-1.58042
1.58097
0.0368992
-0.0358435
-1.56777
1.56672
0.0343512
-0.0323133
-1.29877
1.29673
0.0302135
-0.0277759
-1.07797
1.07553
0.025511
-0.0230529
-0.895726
0.893267
0.0208653
-0.0185495
-0.744968
0.742652
0.0164881
-0.0142598
-0.618114
0.615886
0.0122149
-0.00993103
-0.497408
0.495124
0.00783563
-0.00554999
-0.349823
0.347537
0.00358671
-0.00173362
-0.176458
0.174605
0.000547231
-0.0291466
0.0285994
-0.0401821
0.0410943
-0.000912165
0.00558227
-0.00840116
-0.277207
0.280025
0.011473
-0.0140325
-0.427132
0.429691
0.0164777
-0.0185896
-0.544101
0.546213
0.0209977
-0.023442
-0.656586
0.65903
0.0263779
-0.0292057
-0.78532
0.788147
0.0323721
-0.0352389
-0.938116
0.940982
0.0382749
-0.0408493
-1.11859
1.12116
0.0433155
-0.0450871
-1.33113
1.3329
0.0462934
-0.0465062
-1.58124
1.58146
0.0457459
-0.0440429
-1.56528
1.56358
0.0419299
-0.0392119
-1.29432
1.29161
0.0365181
-0.0334689
-1.07273
1.06968
0.0306884
-0.0277219
-0.890388
0.887422
0.025124
-0.0224146
-0.739919
0.737209
0.0200283
-0.0174551
-0.613499
0.610926
0.0150632
-0.0123316
-0.492985
0.490253
0.00976778
-0.00692337
-0.345286
0.342442
0.00447015
-0.00215571
-0.172704
0.170389
0.000679295
-0.0280755
0.0273962
-0.0421061
0.0433497
-0.00124366
0.00749586
-0.011217
-0.283179
0.2869
0.0152107
-0.018495
-0.432808
0.436092
0.0216364
-0.0243886
-0.549256
0.552009
0.0275764
-0.0308031
-0.661977
0.665204
0.0346323
-0.0382647
-0.791052
0.794685
0.0422702
-0.0458373
-0.943873
0.947441
0.0495301
-0.0525663
-1.12371
1.12675
0.0553566
-0.0572303
-1.33455
1.33642
0.0583058
-0.0581504
-1.58138
1.58123
0.0568237
-0.0543898
-1.56146
1.55903
0.0515674
-0.0480656
-1.28847
1.28496
0.0446731
-0.0408893
-1.06619
1.0624
0.0374757
-0.0338642
-0.883934
0.880323
0.0307245
-0.0274725
-0.733937
0.730685
0.0246245
-0.0215597
-0.608053
0.604988
0.0186901
-0.0153689
-0.487642
0.48432
0.0121779
-0.00863556
-0.339672
0.336129
0.00556925
-0.00268186
-0.168044
0.165156
0.000842588
-0.02676
0.0259174
-0.0446873
0.0464494
-0.00176206
0.0103622
-0.0153537
-0.290982
0.295974
0.0205707
-0.0247731
-0.440197
0.4444
0.0287771
-0.0323308
-0.555995
0.559549
0.0365079
-0.0407094
-0.669009
0.67321
0.0456189
-0.0501962
-0.798394
0.802971
0.0551547
-0.0594806
-0.951021
0.955347
0.0638533
-0.0673443
-1.12975
1.13324
0.0704214
-0.0723344
-1.33813
1.34005
0.0731757
-0.0725308
-1.58071
1.58006
0.0705044
-0.0671969
-1.55611
1.5528
0.0635357
-0.0591057
-1.28097
1.27654
0.0548782
-0.0502074
-1.05809
1.05342
0.0460208
-0.0416111
-0.876074
0.871664
0.0377918
-0.03385
-0.726711
0.722769
0.0304096
-0.026714
-0.601461
0.597765
0.0232376
-0.0191827
-0.481057
0.477002
0.0152264
-0.0107628
-0.332717
0.328253
0.00691569
-0.0033032
-0.162278
0.158666
0.00102707
-0.0251469
0.0241199
-0.0482598
0.0508436
-0.00258375
0.0147807
-0.0215676
-0.301316
0.308103
0.0283842
-0.0337281
-0.449897
0.455241
0.0388156
-0.0434232
-0.564806
0.569414
0.0488993
-0.0543275
-0.678076
0.683504
0.0605425
-0.0662069
-0.807628
0.813292
0.0722066
-0.0773171
-0.959677
0.964788
0.0823332
-0.0861856
-1.13664
1.14049
0.089382
-0.0911373
-1.34168
1.34344
0.0914982
-0.0901267
-1.57892
1.57755
0.0871796
-0.0827928
-1.54889
1.5445
0.0781277
-0.0726049
-1.27153
1.266
0.0673999
-0.0616894
-1.04814
1.04243
0.0565907
-0.0512295
-0.866503
0.861142
0.0465919
-0.0418142
-0.717932
0.713154
0.0376547
-0.0331906
-0.593406
0.588942
0.028965
-0.0239927
-0.472894
0.467922
0.0190727
-0.0134568
-0.324001
0.318385
0.00857897
-0.00405276
-0.155146
0.15062
0.00124322
-0.0231858
0.0219426
-0.0534191
0.0574545
-0.00403539
0.0220208
-0.0314248
-0.315372
0.324776
0.0403507
-0.0472117
-0.462772
0.469633
0.0537379
-0.0597779
-0.576353
0.582393
0.0669514
-0.073873
-0.689619
0.696541
0.0815206
-0.088263
-0.818973
0.825715
0.0951815
-0.10088
-0.969772
0.975471
0.106255
-0.110164
-1.14407
1.14798
0.113106
-0.114347
-1.34473
1.34597
0.113835
-0.111391
-1.5755
1.57306
0.107221
-0.101494
-1.53936
1.53364
0.0956363
-0.0888501
-1.2598
1.25301
0.0825367
-0.0756587
-1.03603
1.02916
0.0695381
-0.0631035
-0.854931
0.848497
0.0575335
-0.051793
-0.707301
0.70156
0.0468028
-0.0414413
-0.583547
0.578186
0.0363016
-0.0301842
-0.462724
0.456606
0.0240349
-0.0169509
-0.313053
0.305969
0.0107596
-0.0050308
-0.146293
0.140564
0.00151782
-0.0208184
0.0193006
-0.0612713
0.0684934
-0.00722214
0.0356057
-0.0491858
-0.335469
0.349049
0.0611065
-0.0697364
-0.480019
0.488649
0.0778961
-0.0855937
-0.591384
0.599082
0.0945881
-0.10284
-0.703913
0.712165
0.111541
-0.118894
-0.832242
0.839596
0.126142
-0.131841
-0.980758
0.986457
0.136915
-0.140269
-1.15128
1.15463
0.142338
-0.142512
-1.34644
1.34661
0.140591
-0.136621
-1.56968
1.56571
0.130868
-0.123526
-1.52699
1.51965
0.116284
-0.10809
-1.24545
1.23726
0.100565
-0.0924397
-1.02153
1.0134
0.0852386
-0.0776819
-0.841147
0.833591
0.0711344
-0.064368
-0.69458
0.687814
0.0584673
-0.0521062
-0.57156
0.565199
0.0459234
-0.0383406
-0.449972
0.442389
0.0306107
-0.0216403
-0.299131
0.29016
0.0136999
-0.0063336
-0.135261
0.127895
0.00183056
-0.0179718
0.0161412
-0.0754235
0.0789429
-0.00351944
0.0251796
-0.0368564
-0.365553
0.37723
0.047342
-0.0555313
-0.502406
0.510595
0.0644469
-0.074008
-0.609618
0.619179
0.0846469
-0.0941907
-0.720123
0.729667
0.104815
-0.114207
-0.84619
0.855582
0.123949
-0.132299
-0.991224
0.999573
0.140592
-0.147218
-1.15688
1.16351
0.153092
-0.156889
-1.34559
1.34939
0.15882
-0.158028
-1.5605
1.55971
0.154392
-0.148322
-1.51119
1.50512
0.141239
-0.132288
-1.22819
1.21924
0.123573
-0.113164
-1.0045
0.994089
0.103677
-0.0933235
-0.8251
0.814747
0.0841433
-0.0744577
-0.679736
0.67005
0.0656307
-0.05632
-0.557203
0.547892
0.0476268
-0.0368036
-0.433998
0.423175
0.0267422
-0.0165721
-0.28113
0.270959
0.0089519
-0.00329693
-0.121218
0.115563
0.000646251
-0.0146491
0.0140029
-0.0860831
0.0832405
0.00284268
0.00265997
-0.00947184
-0.391753
0.398565
0.0175097
-0.024106
-0.523609
0.530205
0.0326279
-0.0410824
-0.629374
0.637828
0.0507474
-0.0595557
-0.739115
0.747923
0.068935
-0.0774336
-0.864507
0.873006
0.0862606
-0.0935435
-1.00766
1.01494
0.100983
-0.106604
-1.16998
1.1756
0.11154
-0.114447
-1.3529
1.35581
0.115284
-0.113693
-1.55812
1.55653
0.109386
-0.102787
-1.49826
1.49167
0.095179
-0.0858585
-1.20979
1.20047
0.0769208
-0.0667337
-0.983337
0.973149
0.0572376
-0.0467618
-0.803362
0.792886
0.0374727
-0.0280371
-0.658014
0.648579
0.0200402
-0.0118548
-0.535615
0.52743
0.00492429
0.00140249
-0.411467
0.40514
-0.00494526
0.0063649
-0.259611
0.258191
-0.00578768
0.00366553
-0.108913
0.111036
-0.0014968
-0.0126186
0.0141154
-0.0858209
0.0825423
0.00327853
-0.00550987
0.00232694
-0.408542
0.411725
0.00282492
-0.00819137
-0.540839
0.546205
0.01522
-0.0224476
-0.646661
0.653888
0.0306792
-0.0382435
-0.756223
0.763787
0.046525
-0.053889
-0.880856
0.888221
0.0613392
-0.0678543
-1.02209
1.02861
0.0743407
-0.0793625
-1.18088
1.18591
0.0833931
-0.0855833
-1.35817
1.36036
0.0861131
-0.0842691
-1.55438
1.55253
0.0799581
-0.0736295
-1.48467
1.47834
0.0665514
-0.0581809
-1.19129
1.18292
0.0498974
-0.040794
-0.962909
0.953805
0.0323818
-0.0231943
-0.782711
0.773523
0.0152876
-0.00720609
-0.638126
0.630045
0.000564819
0.00603146
-0.516978
0.510382
-0.0108976
0.0144539
-0.396587
0.393031
-0.0151441
0.0129068
-0.253003
0.255241
-0.00940826
0.00509948
-0.111019
0.115328
-0.00179723
-0.0143579
0.0161552
-0.083696
0.0805414
0.00315453
-0.00824814
0.00716948
-0.419025
0.420103
-0.00396875
-0.000124932
-0.554415
0.558508
0.00623438
-0.0122896
-0.661008
0.667063
0.0193295
-0.0258133
-0.771085
0.777569
0.0328724
-0.0391881
-0.895166
0.901482
0.0459772
-0.0515673
-1.03476
1.04035
0.0573587
-0.0614524
-1.19064
1.19474
0.0650661
-0.0670374
-1.36251
1.36448
0.0673785
-0.0654226
-1.55049
1.54854
0.0616468
-0.0561635
-1.4718
1.46632
0.0500334
-0.0425565
-1.17474
1.16726
0.0355695
-0.0279978
-0.944909
0.937338
0.0209444
-0.0136102
-0.764817
0.757483
0.00700483
-0.000525102
-0.621344
0.614864
-0.00468664
0.00931469
-0.502242
0.497614
-0.012318
0.0142217
-0.386877
0.384974
-0.013972
0.0110163
-0.252612
0.255568
-0.0077815
0.00406911
-0.116423
0.120135
-0.00140325
-0.0166374
0.0180406
-0.0815517
0.0789246
0.00262707
-0.00855744
0.00875245
-0.4258
0.425605
-0.0062555
0.00299749
-0.565465
0.568723
0.00188852
-0.00727022
-0.673156
0.678537
0.0131829
-0.0188892
-0.783657
0.789363
0.0250109
-0.0305197
-0.907473
0.912982
0.0364
-0.0414626
-1.04587
1.05094
0.0464976
-0.0504394
-1.1988
1.20274
0.0537547
-0.0556013
-1.36628
1.36813
0.0560105
-0.0543526
-1.54669
1.54503
0.0511157
-0.0462433
-1.46052
1.45565
0.0410045
-0.0347808
-1.16016
1.15394
0.0289101
-0.0224721
-0.929942
0.923504
0.0167345
-0.0107235
-0.750334
0.744323
0.00556512
-0.000475917
-0.608193
0.603104
-0.00342963
0.00672721
-0.49137
0.488072
-0.00881643
0.00989147
-0.380598
0.379523
-0.00926569
0.00707006
-0.253429
0.255624
-0.00485263
0.00245656
-0.120439
0.122835
-0.000890279
-0.0181528
0.0190431
-0.0798113
0.07762
0.00219129
-0.00791844
0.00833882
-0.430237
0.429817
-0.00689423
0.00412165
-0.574157
0.576929
0.000431987
-0.00505071
-0.683514
0.688133
0.0101966
-0.0151974
-0.794545
0.799546
0.0206849
-0.025664
-0.918273
0.923252
0.0311223
-0.0356485
-1.05581
1.06034
0.0403078
-0.0440064
-1.20649
1.21019
0.0471328
-0.0489482
-1.36986
1.37168
0.0494713
-0.0484612
-1.54351
1.5425
0.045666
-0.0415866
-1.45064
1.44656
0.0370256
-0.031624
-1.14785
1.14245
0.0267777
-0.0211786
-0.917286
0.911687
0.0162957
-0.0113743
-0.738537
0.733615
0.00711381
-0.00291539
-0.597976
0.593778
-0.000344752
0.00323216
-0.48328
0.480393
-0.00476049
0.00564213
-0.375938
0.375056
-0.00556178
0.00423651
-0.253185
0.25451
-0.00285903
0.00151808
-0.122117
0.123458
-0.000597728
-0.0187669
0.0193646
-0.0785624
0.0768742
0.00168823
-0.00668337
0.00725432
-0.433446
0.432875
-0.00597518
0.00379678
-0.581867
0.584046
0.000340907
-0.00451409
-0.692587
0.69676
0.00942762
-0.013786
-0.80437
0.808729
0.0186677
-0.02315
-0.928311
0.932793
0.0284055
-0.0326112
-1.06498
1.06918
0.0368763
-0.0405037
-1.2138
1.21742
0.0439351
-0.0457925
-1.3736
1.37546
0.0466398
-0.0458946
-1.54129
1.54054
0.0438378
-0.0400835
-1.44246
1.43871
0.0362249
-0.0315901
-1.13709
1.13246
0.0271998
-0.0224189
-0.906326
0.901545
0.0180635
-0.0135396
-0.728578
0.724054
0.00998692
-0.00617464
-0.589326
0.585513
0.00312952
-0.000597609
-0.476344
0.473812
-0.00105209
0.00220157
-0.371849
0.370699
-0.00247324
0.00204372
-0.251936
0.252365
-0.00146273
0.000849051
-0.12201
0.122624
-0.000397581
-0.0188442
0.0192418
-0.0778894
0.0765615
0.00132794
-0.00541217
0.0060491
-0.435979
0.435343
-0.00482842
0.00264266
-0.588593
0.590778
0.0011942
-0.00493624
-0.700809
0.704551
0.00918541
-0.0134225
-0.813201
0.817438
0.0179896
-0.0226473
-0.937189
0.941846
0.0272606
-0.0313537
-1.07356
1.07765
0.0358279
-0.0393145
-1.22102
1.22451
0.0424112
-0.0448051
-1.37732
1.37971
0.0460035
-0.0457136
-1.53996
1.53967
0.0439838
-0.0409312
-1.4352
1.43215
0.0374918
-0.0332741
-1.12758
1.12336
0.029328
-0.0249061
-0.896702
0.89228
0.0208843
-0.0168164
-0.719587
0.715519
0.0131979
-0.00965888
-0.581411
0.577872
0.00683263
-0.00412959
-0.470185
0.467482
0.00223517
-0.00100377
-0.36742
0.366188
0.000204601
0.000235557
-0.249526
0.249085
-0.000400099
0.000386725
-0.120674
0.120687
-0.000270208
-0.0185571
0.0188273
-0.0777662
0.076649
0.00111723
-0.00403319
0.00444922
-0.438333
0.437917
-0.00341515
0.00117361
-0.594758
0.597
0.002354
-0.00597003
-0.708482
0.712098
0.0100759
-0.0139557
-0.821617
0.825497
0.0186666
-0.0225981
-0.946031
0.949962
0.0272186
-0.0311833
-1.08196
1.08593
0.0356106
-0.0393586
-1.22806
1.2318
0.0428238
-0.0450989
-1.38196
1.38423
0.0467311
-0.0469203
-1.53938
1.53957
0.0458689
-0.0431256
-1.42899
1.42625
0.0400622
-0.0361461
-1.11918
1.11527
0.0324731
-0.0282194
-0.887584
0.88333
0.0244438
-0.0203626
-0.711175
0.707094
0.0168001
-0.0131973
-0.573981
0.570379
0.0101948
-0.00755201
-0.463923
0.461281
0.00536839
-0.0037222
-0.36261
0.360964
0.00241914
-0.00135231
-0.246029
0.244962
0.000580143
2.54327e-05
-0.118339
0.117734
-0.000168265
-0.0179715
0.0181398
-0.0779088
0.0771154
0.000793424
-0.00284135
0.00283497
-0.440881
0.440888
-0.00196129
-0.000337005
-0.600195
0.602493
0.00357001
-0.00706568
-0.715662
0.719158
0.0110088
-0.0150237
-0.829358
0.833373
0.0191652
-0.0232711
-0.954158
0.958264
0.0278845
-0.031681
-1.09037
1.09416
0.0362374
-0.0399886
-1.23542
1.23918
0.0435776
-0.046437
-1.38698
1.38984
0.0486217
-0.0491459
-1.53986
1.54038
0.048365
-0.0462733
-1.42368
1.42159
0.0436236
-0.0398668
-1.11114
1.10738
0.0362228
-0.0322407
-0.8788
0.874818
0.0281691
-0.024218
-0.702665
0.698714
0.0206043
-0.0168146
-0.566642
0.562853
0.0138026
-0.0108083
-0.457499
0.454504
0.0084179
-0.00617974
-0.357409
0.355171
0.00454924
-0.0029096
-0.24159
0.23995
0.00147145
-0.000357226
-0.115206
0.114092
-6.37799e-05
-0.0171485
0.0172122
-0.0784434
0.0777968
0.000646507
-0.00187879
0.00191564
-0.443662
0.443625
-0.00054464
-0.00168073
-0.605609
0.607835
0.00498809
-0.00833154
-0.722368
0.725712
0.012123
-0.0157609
-0.837158
0.840796
0.0200333
-0.0238501
-0.96243
0.966247
0.0284309
-0.0326668
-1.09845
1.10268
0.0369076
-0.0410149
-1.24303
1.24714
0.0450623
-0.0480699
-1.39267
1.39567
0.0506938
-0.0520425
-1.54119
1.54254
0.0517269
-0.0502203
-1.41939
1.41788
0.0476912
-0.0442067
-1.10359
1.10011
0.0407231
-0.0366063
-0.870229
0.866112
0.0326298
-0.0285124
-0.694133
0.690015
0.0247903
-0.0207733
-0.558781
0.554764
0.0174499
-0.0142444
-0.450708
0.447502
0.0113745
-0.00871682
-0.351348
0.34869
0.00657123
-0.00437271
-0.236175
0.233977
0.0024737
-0.000855048
-0.111348
0.109729
0.000102815
-0.0161668
0.016064
-0.0792186
0.0787269
0.000491717
-0.000866203
0.000683096
-0.446563
0.446746
0.000620854
-0.00303229
-0.610723
0.613134
0.00620112
-0.00937565
-0.728809
0.731984
0.0132394
-0.0167333
-0.844478
0.847972
0.020862
-0.0248012
-0.97057
0.974509
0.0292966
-0.0335106
-1.10682
1.11103
0.0379845
-0.0421432
-1.25122
1.25538
0.0464079
-0.0501823
-1.39902
1.4028
0.0532956
-0.0549965
-1.54389
1.54559
0.0554043
-0.0542317
-1.41628
1.4151
0.0522194
-0.0491613
-1.09651
1.09345
0.0455931
-0.0414602
-0.861583
0.85745
0.0374226