/*--------------------------------*- C++ -*----------------------------------*\
| =========                 |                                                 |
| \\      /  F ield         | OpenFOAM: The Open Source CFD Toolbox           |
|  \\    /   O peration     | Version:  4.0                                   |
|   \\  /    A nd           | Web:      www.OpenFOAM.org                      |
|    \\/     M anipulation  |                                                 |
\*---------------------------------------------------------------------------*/
FoamFile
{
    version     2.0;
    format      ascii;
    class       volScalarField;
    location    "15";
    object      p;
}
// * * * * * * * * * * * * * * * * * * * * * * * * * * * * * * * * * * * * * //

dimensions      [0 2 -2 0 0 0 0];

internalField   nonuniform List<scalar> 
918
(
0.205878
0.884148
0.00785554
0.205213
-0.000279838
0.85128
-0.859795
0.389943
0.185824
-0.228344
0.0180616
0.17755
0.711829
0.478724
-1.49069
0.0125485
0.344268
-0.730799
0.184496
0.00605406
0.459249
0.192657
0.195639
0.186231
0.243604
0.471595
0.592183
0.00266089
-0.00321522
-0.00205871
0.00299502
-0.00336743
0.00218383
0.734902
0.786005
0.808651
0.155942
-0.0204935
-0.70897
-0.788702
-0.770017
-0.922688
0.379185
0.383029
-0.512714
0.3913
0.406574
0.173362
0.185168
0.186182
0.187392
0.18618
0.187661
0.250084
-0.284397
-0.349482
-0.148483
-0.108505
0.0680523
0.0203021
0.0126983
0.0238376
0.0217841
0.114986
0.174411
0.171919
0.183062
0.19152
0.823693
0.795574
0.8217
0.735513
0.751967
0.689769
0.662195
0.499039
0.520132
0.463803
0.453949
-1.93324
-2.90421
-0.890034
-0.631415
0.00209019
0.0195461
0.0242889
0.326975
0.334134
0.336068
0.348827
0.738409
-0.723456
-0.85188
0.184449
0.18341
0.1924
0.193069
0.189105
0.188234
0.012997
0.0190432
-0.00362091
0.00425483
0.00331567
0.439408
0.436597
0.186745
0.183566
0.199552
0.222451
0.212033
-0.0420042
0.258044
0.282806
0.272541
0.452198
0.450323
0.4577
0.565728
0.528126
0.629595
0.653006
0.00773522
0.0019483
0.00963399
0.00726685
0.0104473
0.151207
0.145703
0.16721
0.158015
0.159857
-0.0986134
-0.231362
0.0560876
0.0735241
-0.612763
-0.686035
-0.789529
-0.801635
-0.9068
0.174402
0.364627
0.36865
-0.526332
-0.442228
-0.593533
-0.367142
-0.440421
0.163607
0.171174
0.165956
0.180675
0.175211
0.177039
0.189568
0.186627
0.188145
0.265838
0.350398
0.18942
0.186395
-0.598164
-0.427044
-0.556131
-0.0629573
-0.0434722
0.0770175
0.0872907
0.0593157
0.0559956
-0.0166594
0.00692115
-0.00731418
0.0228509
0.0230916
0.108946
0.100278
0.12358
0.13016
0.165871
0.166728
0.168764
0.168871
0.61289
0.635311
0.642813
0.616597
-3.91268
-6.73413
-0.297856
-0.154092
0.0017764
0.00297749
0.00105942
0.00236174
0.00388409
0.00156122
0.0335229
0.0325492
0.0276731
0.0316271
0.31223
0.318571
0.713056
0.717654
0.66296
0.663687
0.172773
0.174964
0.180133
0.175833
0.0230579
0.020398
0.0238946
0.405354
0.423033
0.424147
-0.0755191
-0.1642
0.00581963
0.0328186
0.30029
0.285065
0.303453
0.336689
0.373682
0.660391
0.678724
0.67704
0.685448
0.729491
0.745896
0.711209
0.13462
0.143122
0.138558
0.172382
0.16857
0.169871
0.165608
0.167441
0.165003
-0.384156
-0.771098
0.125899
0.128534
0.105692
0.10993
0.263183
0.337225
0.344708
0.353191
0.358068
-0.301211
-0.369252
0.159072
0.146838
0.0573264
0.0884137
0.0718861
0.584064
0.544715
0.594553
0.568133
0.529675
0.555529
-0.723076
-2.25335
-1.35539
0.212328
0.0161637
0.108241
0.0513065
0.03577
0.044356
0.650516
0.713422
0.409263
0.559159
0.536809
0.416158
0.448702
0.500783
0.424095
0.459956
0.497627
0.480699
0.135115
0.13103
0.111229
0.405672
0.470253
-0.189867
-0.237192
-0.296761
0.0944538
0.124357
0.118183
0.680294
0.543176
0.638179
0.183681
0.184271
0.011771
0.0217399
0.188331
0.188543
0.00632584
0.00817815
0.0874394
-1.20414
-0.19589
0.176738
0.167064
0.18375
-0.288242
0.310221
0.0140843
0.079867
0.0556439
0.176116
0.125524
0.0912698
0.00669635
0.0179087
0.0132039
-0.520859
0.181326
0.17952
0.183366
0.184452
0.185262
0.00834249
0.0103643
0.00695133
0.0110712
0.0111245
0.00890139
0.150786
0.163879
-0.510708
0.183433
0.185627
0.18547
0.178952
0.184183
0.182171
0.0157429
0.0102729
0.00954597
-0.0902518
0.0255955
0.346449
0.461378
0.291593
0.0673775
-0.17556
0.242971
0.312442
0.208081
0.378327
0.346637
0.376064
-0.138044
-0.285162
-0.128539
-0.183342
0.17428
0.173273
0.165674
0.163612
0.17921
0.17749
0.181525
0.178809
0.181271
0.182491
-0.190514
-0.137151
-0.348909
-0.413443
0.273564
0.412406
0.204466
0.207124
0.127794
0.0186975
0.0214228
0.0145863
0.0122197
0.0436204
0.0574226
0.0754807
0.0591809
0.0492744
0.0396935
0.0428116
0.0506116
0.0533561
0.170528
0.168581
0.174908
0.181819
0.133234
0.135862
0.107652
0.12354
0.113598
0.0582294
0.0886293
0.0681476
0.00787699
0.00763311
0.00556347
0.02161
0.0262933
0.0132822
0.0106649
0.0133374
0.0107349
0.00992293
0.0165569
0.0192329
-0.518305
-0.598827
0.653859
0.581135
-0.548205
0.170077
0.176467
0.173125
0.178471
0.181512
0.182075
0.179807
0.176857
0.164815
0.167107
0.162754
0.163
-0.449718
-0.586725
-0.409867
-0.476371
-0.207485
0.289533
0.0368998
-0.0223514
-0.0261951
0.182877
0.543596
0.357964
0.413869
0.439015
-0.701663
-0.302346
-0.632396
-0.0216756
-0.191827
0.346833
0.400951
0.425597
0.370188
0.317409
-0.462341
0.176786
-0.385371
-0.35134
-0.161573
-0.256156
0.391663
0.330801
0.338322
0.362995
0.385984
0.338406
0.319538
0.318834
0.354504
0.359172
0.151036
-0.0549643
-0.102953
-0.137467
0.314555
0.193918
0.248812
0.167051
0.169063
0.172085
0.171067
0.155531
0.160967
0.155985
0.162698
0.164939
0.175014
0.1744
0.170321
0.172906
-0.0868128
-0.0584828
-0.317778
-0.516466
-0.439183
-0.514134
-0.43417
-0.376707
-0.232322
-0.386035
-0.0273048
-0.564271
-0.600823
-0.528202
-0.644535
-0.482315
-0.515512
0.0780947
0.142308
0.117582
0.145533
0.178672
0.178987
0.0326522
0.0347382
0.0136096
0.0217656
0.0748314
0.0879971
0.0990687
0.0370906
0.0378923
0.0230975
0.022346
0.0273801
0.0133227
0.021358
0.036332
0.0204744
0.0224584
0.0263654
0.0296903
0.0349071
0.0377973
0.163315
0.165838
0.164663
0.177819
0.188568
0.202715
0.172811
0.149774
0.142555
0.144811
0.123806
0.130513
0.128527
0.138002
0.156233
0.162617
0.160727
0.16321
0.150449
0.151238
0.138363
0.142219
0.12422
0.106601
0.0960191
0.0169998
0.0108792
0.0138488
0.0148747
0.0104513
0.0121314
0.0375449
0.0300282
0.0342617
0.0298697
0.0331767
0.0169569
0.0168083
-0.509701
-0.516759
-0.541835
-0.560313
-0.633558
0.530729
0.633673
0.466765
0.240512
0.192188
0.472151
0.629229
0.338819
0.380781
0.47658
0.137423
0.407265
0.175309
0.175131
0.17268
0.172226
0.17299
-0.357913
-0.26094
-0.250894
-0.20029
-0.0852271
0.0232703
-0.0414454
-0.140575
-0.00426815
0.0257555
0.284744
0.300648
0.244701
0.269836
0.268316
0.0973928
0.172794
0.22094
0.181727
0.222573
0.242787
0.207193
0.23526
0.185452
0.145993
0.145692
0.0945184
0.109788
0.0894382
0.0748634
0.166248
0.146112
0.155583
0.147572
0.167172
0.195551
0.189066
0.21252
0.228014
0.155643
0.116585
0.126054
0.154132
0.115123
0.127239
0.141004
-0.173195
-0.272042
-0.192043
-0.459189
-0.35879
-0.375416
-0.418134
-0.400947
-0.121737
-0.804815
-0.766143
-1.40172
0.112913
0.57796
0.344135
0.309705
0.381589
0.356001
0.355735
0.390517
0.399417
0.306251
0.32293
0.32578
0.281017
0.306273
0.332996
0.331979
0.154273
0.0440259
0.031867
0.000206972
-0.124642
-0.0943206
0.116666
0.0395323
-0.0356028
-0.0292866
0.133188
0.0301991
0.0884222
0.125827
0.0597197
0.0176549
0.205331
0.275767
0.266436
0.237797
0.159765
0.17349
0.19619
0.227877
0.255708
0.294692
0.164071
0.16686
0.168921
0.167613
0.163048
0.166217
0.16638
0.168438
0.169059
0.171937
0.171159
0.00695415
0.00413328
-0.0305591
-0.00896837
-0.130022
-0.165323
-0.208185
-0.20317
0.00874523
-0.0122615
-0.0858423
-0.0454658
-0.0250075
-0.00994906
0.0311842
0.0445508
-0.0668873
-0.10153
-0.223464
0.0485226
0.0930347
-0.0528455
-0.21868
-0.108645
-0.0295248
0.0442345
0.0653348
0.0587265
0.0611225
0.0590489
0.0296694
0.025859
0.0255871
0.0311875
0.0307655
0.0232918
0.0210437
0.0229619
0.0234222
0.0227552
0.0219823
0.150028
0.144774
0.147345
0.142153
0.141048
0.152712
0.156048
0.157631
0.162259
0.163924
0.155596
0.159677
0.163044
0.0259063
0.0207521
0.0228584
0.0222851
0.0215499
0.0191193
0.0192536
-0.104087
-0.459179
-0.454877
-0.420806
-0.497546
-0.459379
0.140391
0.0791015
0.113211
0.276205
0.171489
0.0553712
0.116725
0.238936
-0.011092
0.137607
-0.00372381
0.485473
0.35878
0.503155
0.187505
-0.134505
0.00973241
0.0579194
-0.134294
-0.057997
-0.0286564
-0.142894
-0.109806
-0.0817781
0.0133743
-0.110448
-0.148524
-0.379762
-0.195765
-0.0694805
-0.0869347
0.0337746
0.0853532
-0.0958241
-0.200643
-0.234992
0.271877
0.293227
0.309756
0.281752
0.302719
0.231485
0.221228
0.239008
0.249402
0.244212
-1.13611
-0.846362
-1.79162
-1.10765
-0.651797
0.14551
0.100325
0.377732
0.280212
0.356221
0.339951
0.306638
0.272765
0.277395
0.313193
0.0272325
0.134277
0.110559
0.113316
0.0201343
-0.0422285
0.240131
0.233481
0.274669
0.298594
0.2664
0.300086
0.159622
0.159301
0.162288
0.159106
0.155407
0.157349
0.0168353
0.0223414
-0.0522342
-0.0827682
-0.0965429
-0.0454967
0.0294924
0.0274739
0.0240772
0.0241678
0.0279368
0.03035
-0.154041
-0.207925
-0.354985
-0.231439
-0.356853
-0.443098
-0.451774
-0.377472
-0.255948
-0.265445
0.0119755
0.267155
0.122566
0.214007
-0.047523
0.0298033
0.113783
0.088974
0.1185
0.0171409
0.10817
-0.161065
-0.655819
-0.564562
0.391386
0.418322
0.20844
0.0195682
-0.202508
-0.0117935
0.18712
0.130959
0.171055
0.235627
0.233406
-0.370162
-0.3001
-0.0678715
0.154086
-0.168044
-0.172047
-0.193062
-0.00145962
-0.0655603
)
;

boundaryField
{
    wall-4
    {
        type            zeroGradient;
    }
    velocity-inlet-5
    {
        type            zeroGradient;
    }
    velocity-inlet-6
    {
        type            zeroGradient;
    }
    pressure-outlet-7
    {
        type            fixedValue;
        value           uniform 0;
    }
    wall-8
    {
        type            zeroGradient;
    }
    frontAndBackPlanes
    {
        type            empty;
    }
}


// ************************************************************************* //
