/*--------------------------------*- C++ -*----------------------------------*\
| =========                 |                                                 |
| \\      /  F ield         | OpenFOAM: The Open Source CFD Toolbox           |
|  \\    /   O peration     | Version:  4.0                                   |
|   \\  /    A nd           | Web:      www.OpenFOAM.org                      |
|    \\/     M anipulation  |                                                 |
\*---------------------------------------------------------------------------*/
FoamFile
{
    version     2.0;
    format      ascii;
    class       volVectorField;
    location    "15";
    object      U;
}
// * * * * * * * * * * * * * * * * * * * * * * * * * * * * * * * * * * * * * //

dimensions      [0 1 -1 0 0 0 0];

internalField   nonuniform List<vector> 
918
(
(0.985211 -0.00044477 0)
(0.00499192 2.96626 0)
(-0.00502753 1.63335 0)
(0.979755 0.00207654 0)
(-0.000543092 1.59319 2.56821e-21)
(-0.00702524 2.94877 -1.8055e-18)
(0.84998 1.19303 7.5357e-19)
(0.483853 0.228646 -8.53284e-21)
(0.99992 -0.000360426 0)
(-0.00584476 1.09918 0)
(-0.000511402 1.33305 0)
(0.814034 -0.00629543 0)
(0.0111529 2.93027 0)
(0.00142458 2.79504 0)
(-0.0173787 3.16731 1.11435e-18)
(-0.00501713 1.50771 -1.49541e-20)
(0.582804 0.102679 5.28304e-19)
(0.167393 1.16925 6.62325e-19)
(0.964259 0.00522247 0)
(-0.00225633 1.45732 0)
(0.164251 0.269745 -4.52262e-19)
(1.00155 -0.00518115 0)
(1.00023 -0.00980584 0)
(0.975653 -0.00653709 0)
(0.731312 -0.0248648 0)
(0.0182913 2.62974 0)
(-0.0152337 2.91019 6.17681e-19)
(-0.0133226 1.66015 0)
(-0.0132192 1.76212 0)
(-0.0124322 1.65643 0)
(-0.000817875 1.81347 0)
(-0.000539452 1.61158 -2.03264e-21)
(-0.00448135 1.51576 0)
(-0.020622 2.98758 -6.28906e-23)
(-0.016712 3.00531 1.4035e-18)
(0.00210989 3.00022 0)
(0.865987 -0.00664106 0)
(0.38021 0.917172 -4.68677e-20)
(0.843284 1.2078 -1.06938e-18)
(0.990587 1.05943 9.97873e-19)
(0.705547 1.29747 -1.76174e-19)
(0.710351 1.27386 1.002e-18)
(0.511855 0.298989 8.32566e-21)
(0.504542 0.201776 0)
(1.18904 0.573307 0)
(0.479244 0.317666 3.9096e-20)
(0.441234 0.222123 -4.05705e-20)
(0.920402 -0.00673606 0)
(1.00042 2.97773e-05 0)
(0.999941 0.000362454 0)
(1.00365 -0.00773783 0)
(1.00086 -0.00102142 0)
(1.00015 6.36619e-06 0)
(0.0578755 1.55987 -4.67066e-19)
(-0.0253431 1.16721 0)
(0.00673989 1.00405 0)
(-0.0389547 1.26416 0)
(-0.01751 1.18586 0)
(-0.00614438 1.57449 0)
(-0.0036784 1.49485 0)
(-0.00156065 1.32825 0)
(-0.0108009 1.5215 0)
(-0.00690568 1.3481 0)
(0.890521 -0.000926746 0)
(0.89572 0.0087053 0)
(0.827112 0.000534057 0)
(0.887981 0.0134172 0)
(0.799553 -0.00815195 0)
(0.0147155 3.00039 6.59719e-19)
(0.0115486 3.00787 0)
(0.00614581 3.00289 0)
(0.0135696 2.99733 7.33666e-24)
(0.00800383 2.95843 -9.80506e-19)
(0.0145136 2.98202 0)
(0.010813 2.90359 0)
(0.024824 2.93028 1.29244e-24)
(0.00413857 2.82545 0)
(0.0319706 2.91556 0)
(-0.00656913 2.74411 0)
(0.310521 3.56703 0)
(-0.132791 3.6485 0)
(0.140808 3.25831 -1.03706e-18)
(-0.0117529 2.99152 0)
(-0.0115197 1.79365 0)
(-0.00441721 1.64069 1.47522e-20)
(-0.00572237 1.52374 -2.36679e-20)
(0.646015 0.166275 -1.81991e-19)
(0.606108 0.06674 -1.76023e-19)
(0.611013 0.194332 -5.43493e-19)
(0.564323 0.129231 -3.63502e-19)
(0.24679 1.01324 0)
(0.247919 1.2725 -6.52891e-19)
(0.324797 1.26611 1.07719e-18)
(0.988204 0.00843173 0)
(0.943971 0.00640447 0)
(1.00032 0.000572 0)
(1.00282 0.00933645 0)
(1.00271 0.00844889 -9.59028e-19)
(0.99204 0.00980545 7.24149e-19)
(-0.0130584 1.57659 0)
(-0.00797826 1.44393 0)
(-0.0187845 1.66839 0)
(-0.0155428 1.60937 0)
(-0.000776508 1.4822 0)
(0.239113 0.283248 1.39381e-19)
(0.283242 0.265084 0)
(0.993485 -0.00840686 0)
(0.954169 -0.0068132 0)
(0.862721 0.0171069 0)
(0.829717 0.0337713 0)
(0.7782 -0.0140055 0)
(1.01861 -0.00581385 0)
(0.776367 0.0450276 0)
(0.646698 -0.0168662 7.00317e-19)
(-0.0351473 2.86635 2.90954e-19)
(0.0434326 2.90788 0)
(0.057398 2.88284 0)
(-0.00582046 2.69635 0)
(-0.0128772 2.98529 5.64568e-19)
(-0.0183353 2.89558 0)
(-0.0153996 2.98813 -1.793e-18)
(-0.013407 2.9252 6.20449e-19)
(-0.0103394 1.81287 0)
(-0.0082606 1.8077 0)
(-0.00108824 1.64078 -2.86645e-22)
(-0.00307511 1.61249 0)
(-0.00593348 1.50824 0)
(0.930269 -0.0035781 0)
(0.858902 -0.00335279 0)
(0.857201 0.0091384 0)
(0.940019 -0.00414344 0)
(0.882599 -0.00611865 0)
(0.494525 1.11491 4.78694e-20)
(0.548671 1.17617 0)
(0.337624 0.845485 1.53867e-21)
(0.282516 0.70665 0)
(0.956569 1.08835 -2.88422e-19)
(1.06994 0.897557 5.92833e-19)
(0.427979 1.34274 0)
(0.559729 1.35997 0)
(0.540787 1.29553 0)
(0.0980477 0.122883 -1.01226e-19)
(0.54343 0.273897 0)
(0.528707 0.176529 1.05061e-19)
(1.04206 0.945951 0)
(1.11149 0.792112 0)
(1.13793 0.738286 -5.20593e-19)
(1.16731 0.631145 0)
(1.21828 0.413278 6.03391e-20)
(0.953517 -0.00728082 0)
(0.962031 -0.00937733 0)
(0.901463 -0.00820887 0)
(0.98406 -0.00894743 0)
(0.975423 -0.0087015 0)
(0.937245 -0.00625496 0)
(1.00004 0.00224208 0)
(1.00086 0.00147428 0)
(0.999903 0.000815534 0)
(0.0671108 1.7603 2.5766e-19)
(0.0844809 1.51653 0)
(0.0381927 1.77215 3.9775e-19)
(0.0348822 1.59035 -3.40254e-19)
(0.0854331 1.16111 -5.45233e-19)
(-0.00828763 1.10817 0)
(0.105955 1.03179 0)
(-0.0276158 1.36726 0)
(-0.00470141 1.25636 0)
(-0.00913803 1.70813 -1.06402e-21)
(-0.00494602 1.60252 0)
(-0.00638192 1.69141 -5.02191e-20)
(-0.0045367 1.56393 9.67222e-20)
(-0.0166971 1.43356 0)
(-0.00996594 1.47496 0)
(-0.00284877 1.29782 0)
(-0.0145519 1.54019 0)
(-0.0103148 1.37195 0)
(0.96389 0.0140937 0)
(0.909407 0.00367176 0)
(0.946991 0.00892534 0)
(0.879821 0.00145574 0)
(0.828481 -0.00463363 0)
(0.91479 4.90565e-05 0)
(0.908084 0.00580962 0)
(0.828317 -0.00403241 0)
(0.00579183 3.06478 -5.74436e-21)
(0.0163174 3.0581 0)
(0.0146624 2.96914 0)
(0.00847534 2.87636 0)
(0.928353 3.98625 0)
(1.2438 3.31585 1.01946e-18)
(0.0711864 3.08387 0)
(-0.026478 2.91247 0)
(-0.0119806 1.79374 0)
(-0.0127084 1.79198 0)
(-0.0117725 1.79257 0)
(-0.00626257 1.80275 3.83695e-21)
(-0.011694 1.7981 0)
(-0.00704709 1.79632 0)
(-0.00142541 1.53883 1.40792e-21)
(-0.00350368 1.66855 2.87575e-20)
(-0.00499395 1.65673 2.41831e-20)
(-0.00383299 1.52851 0)
(0.676607 0.122279 2.65326e-19)
(0.62711 0.0311049 -2.58403e-19)
(0.17585 1.44348 0)
(0.295428 0.747159 -2.25486e-19)
(0.140021 1.52658 -7.39731e-19)
(0.205734 1.19489 7.37886e-19)
(0.901919 0.0100045 0)
(0.968253 0.0126856 0)
(0.975933 0.0114816 0)
(0.925627 0.00854862 0)
(-0.0169754 1.55483 0)
(-0.0166863 1.56613 0)
(-0.0105758 1.40482 0)
(0.435797 0.333774 3.58203e-19)
(0.3602 0.312959 -4.35876e-19)
(0.377162 0.241943 0)
(1.13515 0.0828873 -5.66372e-21)
(1.11969 0.038027 0)
(1.05201 0.0331943 0)
(0.965656 0.00525213 0)
(0.688316 0.0820322 0)
(0.714915 0.0611846 -1.12751e-18)
(0.629645 0.0121889 4.31631e-19)
(0.00995805 2.98199 3.85062e-19)
(-0.0326319 2.86764 4.766e-20)
(0.00385147 3.05024 -1.2455e-20)
(0.0198929 3.04356 4.49049e-19)
(-0.0150268 2.99656 2.06741e-20)
(-0.0130177 2.94944 -8.37576e-23)
(-0.0173077 3.01202 -3.93527e-19)
(0.01481 3.02406 2.84526e-19)
(0.00729191 3.03678 -4.43849e-19)
(0.941648 0.00838633 0)
(0.935926 0.00388043 0)
(0.864535 0.00119415 0)
(0.955677 0.0129143 0)
(0.940652 0.0136224 0)
(0.879649 0.00807016 0)
(0.917009 0.0032244 0)
(0.92184 0.010968 0)
(0.835357 0.00188586 0)
(0.708993 1.409 3.46285e-19)
(0.747518 1.52196 0)
(0.219179 0.368804 1.82462e-20)
(0.17279 0.535474 1.38249e-19)
(0.250686 0.655559 -7.89274e-20)
(0.212814 0.543423 1.41301e-19)
(0.27989 0.664387 5.99017e-19)
(0.118769 0.156557 1.89549e-19)
(0.591517 0.225453 3.9305e-19)
(0.564878 0.246021 9.60973e-20)
(0.543501 0.157515 1.98564e-19)
(1.20584 0.468908 3.14366e-19)
(1.22131 0.260406 3.29919e-19)
(0.0226542 1.76678 1.60727e-19)
(0.0246061 1.61122 0)
(1.00601 0.0253577 0)
(0.976525 0.016304 0)
(0.932943 -0.00152938 0)
(0.0110221 3.07478 0)
(0.0200036 2.94406 7.61871e-19)
(0.016551 2.95651 0)
(0.00603734 2.85083 -7.55885e-19)
(0.00597367 3.09113 1.79761e-19)
(0.00740449 3.08236 0)
(0.783065 1.82845 -2.43751e-19)
(1.25059 2.51196 6.72802e-19)
(0.767216 1.96986 -1.50781e-18)
(0.0214193 2.98518 -2.69949e-19)
(0.0372115 3.00858 0)
(-0.0314498 2.8837 0)
(-0.000509579 1.66369 -4.85805e-21)
(-0.00133066 1.67108 -6.53204e-20)
(0.000653397 1.54808 -6.73315e-21)
(0.246718 1.32727 6.75497e-19)
(0.264841 0.499479 -4.6206e-19)
(0.0739031 1.70618 4.93835e-19)
(0.108999 1.625 -6.11325e-19)
(0.115429 1.38852 8.14898e-20)
(0.00199174 3.11898 -1.04768e-18)
(0.0150904 3.11839 1.12593e-18)
(-0.00846943 2.98141 4.83237e-19)
(-0.00315103 2.97807 -4.2097e-19)
(-0.0212789 2.88228 -4.92163e-19)
(0.00887477 3.10009 -1.31478e-18)
(0.00259572 3.10526 1.28393e-18)
(0.195532 0.575378 0)
(0.139532 0.535924 -2.88051e-19)
(0.148863 0.19852 1.25109e-19)
(0.31882 0.801257 5.74474e-19)
(0.178894 0.203394 -8.79466e-19)
(1.21647 0.170718 -6.54925e-20)
(1.21939 0.31195 0)
(1.20369 0.118608 1.31578e-19)
(-0.00314293 1.74386 -1.34094e-21)
(0.00865864 1.76287 0)
(0.0041385 1.60492 0)
(0.324635 1.1893 -2.35537e-19)
(0.366661 1.01925 -5.11864e-19)
(0.181709 0.313859 8.52631e-19)
(1.00576 -0.0110904 0)
(1.00775 -0.00780791 1.74401e-19)
(-0.0104354 1.80151 0)
(-0.0182319 1.81013 0)
(1.00244 0.00368723 1.94388e-21)
(1.00318 0.00919078 3.59411e-19)
(-0.00653338 1.80634 -5.03982e-21)
(-0.00529205 1.80512 0)
(0.039586 3.1843 7.75091e-20)
(0.399287 3.50327 0)
(1.09987 0.645093 7.23276e-20)
(1.01173 0.0121345 -2.49359e-21)
(1.02025 -0.0142171 0)
(1.00175 0.000234564 3.54683e-23)
(-0.159184 1.33263 0)
(-0.0766615 2.26763 0)
(-0.0366287 1.74902 0)
(-0.044744 1.89074 6.63105e-20)
(-0.0233868 1.84485 4.21551e-20)
(1.0035 0.00914791 2.31647e-21)
(1.04534 0.013324 0)
(1.07065 0.0269749 0)
(-0.0137626 1.7926 0)
(-0.0103825 1.81755 0)
(-0.0236794 1.79345 0)
(0.291909 1.22785 -4.58342e-19)
(1.01117 -0.00986906 0)
(1.00964 -0.014938 0)
(1.00234 0.000574406 2.19522e-19)
(1.00587 -0.00502007 -2.62684e-19)
(1.00095 -0.000894593 0)
(-0.0153166 1.79142 0)
(-0.0130007 1.79449 0)
(-0.0124192 1.79475 0)
(-0.0215411 1.79648 0)
(-0.0165993 1.79365 0)
(-0.0202156 1.79666 0)
(1.0242 -0.00252182 0)
(1.02209 0.0154574 -1.08996e-21)
(0.79881 1.25864 5.44995e-19)
(1.00291 0.000386017 -2.22372e-19)
(1.00336 0.00568413 2.67196e-19)
(1.00121 0.00200408 0)
(1.01113 0.00999663 2.15693e-19)
(1.00793 0.00817292 -2.68742e-19)
(1.00835 0.0142388 0)
(-0.00931474 1.81758 0)
(-0.00691455 1.81249 1.26352e-20)
(-0.00738321 1.81166 -8.70427e-21)
(1.18149 0.255107 -1.13455e-19)
(1.12038 0.0814981 0)
(0.0570369 3.07913 -4.7232e-19)
(0.0690692 2.85101 -3.88367e-20)
(0.146846 3.2006 7.20541e-19)
(0.141537 3.22896 1.99342e-20)
(0.13917 3.24395 0)
(0.0227145 3.13897 9.85813e-20)
(0.0812134 3.16344 4.60416e-19)
(0.0743778 3.19089 -1.91813e-19)
(0.0271236 3.12816 0)
(0.704177 0.32745 0)
(0.62308 0.394397 0)
(1.08049 0.674292 -2.73539e-19)
(1.07391 0.807059 4.21354e-19)
(1.13506 0.560979 0)
(1.16783 0.51055 0)
(1.01556 0.0130703 -4.01864e-19)
(1.01364 0.0149719 5.01821e-19)
(1.02278 -0.0162711 0)
(1.01576 -0.0221443 0)
(1.00703 0.00301432 0)
(1.00994 0.00358635 0)
(1.004 0.00229969 0)
(1.00963 0.00693904 0)
(1.00722 0.00548109 0)
(1.00562 0.00493204 0)
(-0.155775 1.36621 0)
(-0.146605 1.40813 0)
(-0.143853 1.28327 0)
(-0.00843801 1.2592 0)
(-0.112287 2.36828 0)
(0.0370245 2.3885 -2.86357e-19)
(-0.0701685 2.26828 0)
(-0.0383349 2.15646 1.36586e-19)
(-0.0328348 1.99445 -1.30256e-19)
(-0.0306164 1.75411 0)
(-0.0210872 1.76168 0)
(-0.0533412 1.728 0)
(-0.041311 1.68886 0)
(-0.0842997 1.84101 -3.64466e-20)
(-0.0370601 1.85778 5.32401e-20)
(-0.0434964 1.88739 6.58397e-20)
(-0.0327674 1.87119 0)
(-0.0172906 1.84529 -9.3764e-20)
(-0.00850147 1.83633 -4.90681e-20)
(-0.0776002 1.83327 2.89379e-20)
(-0.0502964 1.84367 -6.9486e-20)
(-0.0575106 1.86049 -8.64199e-20)
(1.01136 0.0165405 3.92139e-19)
(1.01136 0.0058922 -4.83134e-19)
(1.00544 0.0199155 -4.11588e-19)
(0.993219 0.0154704 5.21819e-19)
(1.04083 0.0208215 0)
(1.03869 0.0100004 0)
(1.06283 0.0412519 0)
(1.05002 0.0232757 0)
(1.05622 0.0115643 0)
(1.10415 0.075059 0)
(1.08009 0.0475461 0)
(1.09076 0.0358567 0)
(-0.0105419 1.80753 -1.51435e-21)
(-0.0139595 1.7967 0)
(-0.0116936 1.8007 0)
(-0.0104355 1.82143 1.37105e-20)
(-0.00982689 1.82242 -6.37969e-22)
(-0.0186117 1.79266 1.36667e-20)
(-0.0183965 1.79322 -1.38293e-20)
(-0.0219381 1.79573 0)
(-0.0186843 1.79604 0)
(-0.0177562 1.79625 0)
(-0.0247514 1.79276 0)
(-0.0244688 1.78601 0)
(0.452628 1.31558 9.07581e-19)
(0.404096 1.38135 3.29278e-19)
(0.628921 2.43958 -1.52347e-19)
(0.293967 2.5497 3.92751e-19)
(0.562412 2.2828 -1.74569e-19)
(1.02064 -0.00885684 0)
(1.01586 -0.00909021 0)
(1.01642 -0.0148395 0)
(1.00807 -0.000917702 0)
(1.00446 -0.00127185 0)
(1.00715 -0.00488279 0)
(1.01019 -0.00359841 0)
(1.0135 -0.00457576 0)
(1.02265 0.0155269 3.83256e-19)
(1.01475 0.021787 -4.84237e-19)
(1.02456 0.010669 -3.82159e-19)
(1.02085 0.00715928 4.79357e-19)
(0.763407 1.28597 0)
(0.682226 1.35461 6.49781e-19)
(0.871435 1.18839 3.85734e-19)
(0.905257 1.16906 -5.12158e-19)
(1.13198 2.61971 -6.06021e-19)
(0.831878 0.100071 2.701e-19)
(1.12215 0.0949805 0)
(1.16266 0.168696 9.73164e-20)
(1.15733 0.150791 4.16705e-21)
(0.971575 0.123803 0)
(0.148819 2.97285 7.60054e-20)
(0.128484 2.87885 -5.95686e-19)
(0.044487 2.34796 4.45361e-19)
(0.115701 0.127182 -1.82117e-19)
(0.344505 3.43073 -4.64404e-19)
(0.198281 3.32319 0)
(0.238446 3.36688 6.04802e-19)
(0.256296 3.04339 -5.99854e-19)
(0.347656 3.19957 0)
(0.00800812 3.12059 2.42953e-20)
(0.0179897 3.12974 -3.1632e-19)
(0.0164549 3.12549 4.65589e-19)
(0.0388831 3.14011 0)
(0.0377371 3.15212 0)
(1.21371 2.61849 0)
(0.502417 0.840316 -2.08024e-19)
(1.01489 0.980791 -2.18189e-19)
(0.960598 1.05323 0)
(0.800334 0.956703 6.99313e-20)
(1.03686 0.869978 3.16695e-20)
(0.405626 0.480234 -4.9914e-19)
(0.727445 0.323417 -2.22697e-20)
(0.711449 0.28626 2.07466e-19)
(0.623743 0.427379 1.67527e-20)
(0.566167 0.418118 -6.89813e-19)
(0.708662 0.353447 0)
(0.70945 0.430755 3.44772e-19)
(0.716076 0.423429 0)
(0.667601 0.408771 0)
(0.673124 0.340925 0)
(0.734297 0.600066 1.12777e-19)
(1.17679 0.269977 7.55272e-20)
(1.17808 0.406542 0)
(1.18789 0.364931 0)
(0.769382 0.214265 3.09146e-19)
(0.779266 0.525216 -1.70345e-19)
(0.698005 0.507137 2.71706e-19)
(0.898804 0.396546 -2.46683e-19)
(1.01928 0.0172579 2.61131e-19)
(1.01746 0.0140015 -2.68414e-19)
(1.01362 0.0176179 0)
(1.02237 -0.00796496 0)
(1.02166 -0.0168666 -2.35646e-19)
(1.01183 -0.0207342 2.32773e-19)
(1.0355 0.00591263 0)
(1.02886 0.011988 0)
(1.01156 0.0038882 0)
(1.01497 0.00819734 0)
(1.01765 0.00334217 0)
(1.01381 0.00102409 0)
(-0.149413 1.48201 0)
(-0.113378 1.52825 0)
(-0.192981 1.23069 2.77656e-19)
(0.28042 1.23605 2.75269e-19)
(0.0357964 1.20301 5.83287e-19)
(0.182401 1.1906 -9.43906e-19)
(-0.0318012 1.2757 0)
(-0.31452 1.97387 5.07875e-19)
(-0.34937 1.90747 0)
(0.46973 2.3395 2.5759e-19)
(0.30396 2.52236 1.71918e-19)
(-0.185651 1.84018 -4.48305e-19)
(0.290369 1.13364 2.96692e-19)
(0.0121357 1.23137 -2.35092e-19)
(0.371651 1.17576 7.43007e-19)
(0.113128 1.84809 0)
(0.308963 1.88108 -5.62216e-19)
(-0.157618 1.95678 -1.98928e-20)
(-0.0350005 2.02721 0)
(-0.174412 2.07438 7.99386e-20)
(-0.143765 1.99756 0)
(-0.0364484 2.12667 -1.51956e-19)
(-0.0226794 2.05807 0)
(-0.0830239 1.78397 -2.82043e-20)
(-0.108019 1.81244 0)
(-0.104172 1.73671 0)
(-0.0872091 1.75717 3.18214e-20)
(-0.0499397 1.91106 -8.37991e-21)
(-0.0375841 1.9734 1.45862e-19)
(-0.037263 1.94664 1.03356e-21)
(-0.0428521 1.82024 2.49358e-20)
(-0.054669 1.81273 1.53115e-20)
(-0.021692 1.77012 0)
(-0.0207882 1.77154 0)
(-0.157405 1.87532 4.37891e-20)
(-0.148474 1.75241 2.32748e-20)
(-0.138855 1.81972 -3.5039e-20)
(-0.220276 1.88985 0)
(-0.0157419 1.81181 -4.98425e-20)
(-0.0152334 1.82005 2.28559e-20)
(-0.0155263 1.81977 -7.14771e-21)
(-0.0358057 1.81827 -2.98897e-20)
(-0.0173703 1.82988 -1.15451e-20)
(-0.0198062 1.83811 5.97414e-20)
(1.02275 0.0047753 -2.56265e-19)
(1.01856 0.00928097 2.60827e-19)
(1.01731 0.000969677 0)
(0.998776 0.0452779 3.65666e-19)
(0.993295 0.0328965 -4.39092e-19)
(0.966308 0.0241563 5.0984e-19)
(0.993757 0.0805364 -4.83754e-20)
(1.02533 0.00366458 0)
(1.03154 0.0120981 2.151e-19)
(1.02781 0.00601969 -2.11244e-19)
(1.03645 0.0392978 -1.16089e-20)
(1.0405 0.0265632 1.03269e-19)
(1.03262 0.0524571 0)
(1.02732 0.0419065 -3.88977e-20)
(1.02259 0.0234497 0)
(1.02001 0.0222684 0)
(1.03745 0.00690689 0)
(1.03149 0.00646024 0)
(1.02965 0.0238445 8.10486e-20)
(1.03179 0.0173749 -1.82239e-19)
(1.03093 0.0287059 -8.11291e-20)
(1.03065 0.0285806 -9.52665e-20)
(1.02908 0.0559072 1.67785e-19)
(1.06407 0.0508708 0)
(1.05776 0.0906028 0)
(-0.0159819 1.81226 -2.02342e-20)
(-0.0149701 1.80072 -1.76661e-21)
(-0.0167391 1.80042 0)
(-0.0109338 1.81375 2.15424e-20)
(-0.0101963 1.80865 3.14771e-21)
(-0.0103607 1.81279 -3.42006e-21)
(-0.00796657 1.83401 4.11531e-20)
(-0.0150895 1.82497 -2.65049e-21)
(-0.0147086 1.82573 1.28668e-20)
(-0.00903983 1.82725 -2.11396e-20)
(-0.00820339 1.82914 2.51237e-20)
(-0.0221322 1.79475 4.68036e-22)
(-0.021001 1.79592 2.2617e-20)
(0.526952 1.23383 -4.73335e-19)
(0.551789 1.3283 -6.52789e-19)
(0.649237 1.38231 -6.27951e-19)
(0.53737 1.40478 -3.17507e-19)
(0.535729 1.4173 0)
(0.605827 2.4174 1.10378e-19)
(0.702256 2.38279 2.23084e-19)
(0.391921 2.54606 1.10004e-19)
(0.334644 2.6454 -9.36398e-20)
(0.512685 2.61449 1.35101e-19)
(0.526517 2.47555 0)
(0.544131 2.46988 -3.49071e-19)
(0.0546306 2.51176 7.3361e-19)
(0.236515 2.54939 -4.21844e-20)
(0.185046 2.51241 -8.93273e-19)
(0.919317 2.34209 1.43616e-19)
(0.825631 2.33861 0)
(1.01066 -0.000272453 8.76034e-21)
(1.01394 -0.00520938 -7.14534e-21)
(1.016 -0.00488341 -1.29286e-19)
(1.01317 -0.00429478 1.28533e-19)
(1.01294 0.000305606 0)
(0.64933 1.26321 0)
(0.647197 1.15981 0)
(0.746825 1.06634 0)
(0.634734 1.10636 0)
(1.16682 2.63864 4.79581e-20)
(1.03721 2.35875 0)
(0.790426 2.27558 -2.05527e-21)
(0.830253 2.47212 0)
(0.896418 2.55988 -9.46393e-21)
(0.912073 2.52562 6.42559e-21)
(0.836444 0.13257 0)
(0.804041 0.150632 7.82843e-20)
(0.910279 0.121888 3.93563e-19)
(0.861475 0.114125 -1.60255e-19)
(0.85659 0.0732407 -4.76403e-19)
(1.02296 0.214076 -2.00268e-19)
(0.957637 0.268593 -1.52053e-20)
(0.888666 0.263836 3.49672e-19)
(0.963743 0.208554 2.59444e-19)
(0.930607 0.161581 -4.88479e-19)
(0.899342 0.175538 6.32464e-20)
(0.915496 0.239878 -1.22403e-19)
(0.898205 0.195664 0)
(0.969376 0.16247 2.32232e-19)
(1.00011 0.162366 0)
(0.997323 0.196355 0)
(1.05434 0.0976717 6.92178e-20)
(1.01814 0.149524 -1.29982e-20)
(1.01459 0.213337 -3.80245e-20)
(1.04696 0.179646 0)
(1.01359 0.0240366 1.95838e-19)
(1.02263 0.0434385 2.28524e-19)
(1.02022 0.0270104 -1.94293e-19)
(1.01435 0.0481333 -1.53983e-19)
(1.00157 0.0484896 -2.5879e-19)
(0.975457 0.12651 0)
(0.985142 0.0785843 0)
(0.967512 0.0470189 -1.85462e-19)
(0.931288 0.0556026 7.73516e-20)
(0.997529 0.0790961 2.18312e-19)
(1.01884 0.097955 -2.13186e-19)
(1.02611 0.121542 1.95066e-19)
(0.993874 0.120456 0)
(1.03039 0.0880319 0)
(1.01719 0.0747815 -9.06202e-20)
(1.01408 0.0774357 -1.7456e-19)
(0.568696 1.06937 -1.24645e-19)
(0.629351 1.49539 2.23988e-19)
(1.15141 2.78516 1.57088e-19)
(1.22514 3.1036 -7.75441e-20)
(1.23523 2.74357 6.08855e-19)
(1.27309 2.72342 -3.60596e-19)
(1.19265 2.34869 -4.00359e-21)
(1.20943 3.01153 2.32327e-19)
(1.2219 2.97992 -2.80318e-19)
(1.21639 3.25325 -2.77919e-19)
(1.37586 2.9848 3.8498e-19)
(1.37038 2.89648 0)
(0.506503 0.850749 -9.1856e-21)
(0.156907 1.30193 3.40093e-19)
(0.520317 0.547387 3.32418e-19)
(0.344504 0.318905 3.59126e-19)
(0.560825 0.450911 3.85277e-19)
(0.540795 0.502361 -6.06078e-19)
(0.542966 0.525437 4.96311e-19)
(0.515511 0.484965 -1.99216e-19)
(0.478712 0.431966 4.63934e-19)
(0.773666 0.256257 -1.72084e-19)
(0.741953 0.299266 0)
(0.737713 0.251011 1.14314e-20)
(0.690006 0.522448 1.76657e-19)
(0.673775 0.488746 -6.53145e-19)
(0.60457 0.507126 1.96138e-20)
(0.626646 0.482033 0)
(0.627456 0.735369 1.29068e-19)
(0.775464 0.767695 3.15249e-20)
(0.707627 0.851616 -4.58563e-20)
(0.8171 0.794057 -8.58001e-21)
(0.86696 0.833506 1.84993e-20)
(0.87356 0.83953 -1.89419e-20)
(0.780825 0.627356 -1.94028e-19)
(0.867107 0.682181 7.97073e-21)
(0.929728 0.695018 0)
(0.920305 0.671581 -3.34531e-21)
(0.978945 0.303276 5.15107e-20)
(1.07123 0.27853 -1.07412e-20)
(1.00768 0.256859 8.17526e-20)
(0.956506 0.332119 -1.23365e-19)
(0.992067 0.397127 0)
(1.05244 0.389249 0)
(0.883253 0.32482 4.05612e-21)
(0.834142 0.269731 0)
(0.83499 0.2606 1.85114e-19)
(0.887318 0.266508 -7.20438e-21)
(0.886822 0.398485 6.72775e-19)
(0.831462 0.462396 1.73199e-19)
(0.842337 0.427186 -2.24074e-19)
(0.787788 0.41532 2.40589e-19)
(0.771989 0.414479 1.69266e-19)
(0.769036 0.407902 -1.65401e-19)
(1.02506 -0.0123397 2.04978e-19)
(1.02436 -0.00871375 0)
(1.02206 -0.00882563 1.38551e-19)
(1.02393 -0.013018 -3.06191e-19)
(1.03243 -0.000360659 1.50268e-19)
(1.02662 0.0103864 -3.17978e-19)
(1.02576 0.0144027 0)
(1.02136 0.0140522 -6.6485e-20)
(1.01976 0.00629544 1.65478e-19)
(1.01677 0.0105169 -8.40833e-20)
(1.0211 0.0121664 6.27679e-20)
(-0.0696602 1.67275 0)
(-0.12228 1.7182 0)
(-0.100888 1.59488 0)
(-0.0612393 1.6175 0)
(-0.289734 1.64337 -2.71482e-19)
(-0.277095 1.47793 7.90041e-20)
(-0.343205 1.91686 7.32062e-20)
(-0.416339 1.67763 -1.92218e-19)
(-0.195322 1.75768 -1.69141e-21)
(-0.211045 1.74946 -2.91857e-22)
(-0.250505 1.62215 4.96982e-20)
(-0.228571 1.63052 8.97602e-20)
(-0.17216 1.6557 6.94932e-21)
(-0.161412 1.69322 8.01781e-23)
(-0.207262 2.14264 -8.23961e-20)
(-0.223949 2.22844 0)
(-0.32083 2.23314 -4.03034e-20)
(-0.37214 1.99133 -4.09475e-20)
(-0.038414 2.28196 8.33213e-20)
(-0.0365258 2.56599 0)
(0.0715678 2.54951 -4.77817e-20)
(0.143012 2.57661 3.39644e-20)
(-0.197971 2.28134 1.64088e-19)
(-0.284462 2.26071 -1.43413e-19)
(-0.206607 2.43794 0)
(-0.123176 1.86826 -6.90258e-20)
(-0.095519 1.86718 -1.26667e-19)
(-0.101403 1.85274 0)
(-0.0984118 1.92819 -3.88585e-21)
(-0.1375 1.92726 4.0377e-20)
(-0.0441189 1.78231 5.11871e-21)
(-0.0301742 1.78412 -7.7768e-20)
(-0.0315826 1.79275 2.01052e-20)
(-0.0480513 1.79438 2.87668e-20)
(-0.0675433 1.79414 0)
(-0.0288065 1.7929 0)
(-0.0251879 1.78536 2.34411e-20)
(-0.0268672 1.79318 -7.8385e-21)
(-0.0268866 1.79305 0)
(-0.0234231 1.7781 1.78953e-20)
(-0.0227866 1.77814 -3.52609e-20)
(1.03236 0.017512 0)
(1.03493 0.0176758 -1.99519e-20)
(1.03578 0.0189078 -1.45776e-19)
(1.03392 0.0197557 0)
(1.03354 0.021485 0)
(1.03822 0.0107928 -5.34505e-21)
(1.03752 0.00970499 2.44853e-19)
(1.03399 0.00956657 2.97813e-19)
(1.03188 0.00737428 0)
(1.02588 0.00536052 0)
(1.0304 0.0160274 1.48831e-19)
(1.02426 0.0115596 0)
(1.02526 0.00857419 0)
(-0.0192109 1.81459 0)
(-0.0219685 1.79637 2.08163e-21)
(-0.0205239 1.80636 1.19708e-20)
(-0.0266351 1.79461 0)
(-0.0238966 1.79892 1.54022e-20)
(-0.0245542 1.79681 -7.64023e-21)
(-0.0262053 1.79436 0)
(0.565645 1.64003 0)
(0.600773 1.30465 9.93159e-19)
(0.528382 1.45079 0)
(0.596496 1.3202 -1.09984e-18)
(0.543085 1.34365 0)
(0.581843 1.32024 4.89835e-19)
(1.01749 2.69203 -3.27106e-21)
(0.942794 2.36796 -1.80168e-19)
(0.859172 2.09799 2.50031e-19)
(0.838015 2.32783 9.4862e-20)
(0.85761 2.49362 0)
(0.882486 2.50353 0)
(0.889856 2.339 0)
(0.904941 2.28537 -3.71204e-19)
(0.750347 2.47288 -3.34039e-21)
(0.829823 2.46964 -1.74462e-20)
(0.819465 2.44922 1.38235e-20)
(0.700491 2.36802 0)
(0.791312 2.34058 0)
(0.762063 2.36254 -1.97235e-19)
(0.803888 2.4687 0)
(0.603918 1.07341 0)
(0.48589 0.918317 4.68131e-20)
(0.5292 0.948745 2.10413e-21)
(0.512608 1.03201 0)
(0.517262 0.985388 -6.87975e-20)
(0.724803 0.874685 2.59279e-20)
(0.762694 1.00139 0)
(0.736804 0.974457 -8.52028e-20)
(0.626618 1.00423 0)
(0.608742 0.927399 0)
(1.14551 2.80173 8.24822e-20)
(1.12699 2.86654 1.48594e-19)
(0.912679 2.40618 -3.2702e-19)
(0.884018 2.37823 4.52357e-20)
(1.1049 2.76348 0)
(1.05531 2.73275 -5.45136e-20)
(1.06072 2.48916 -4.28344e-20)
(0.940543 2.20464 -2.57694e-20)
(0.454201 1.42264 0)
(0.457581 1.06498 1.09803e-19)
(0.540412 1.15732 0)
(0.839938 0.22005 0)
(0.810523 0.174096 0)
(0.772209 0.191574 0)
(0.829544 0.225244 -2.91858e-19)
(0.782276 0.227302 1.81008e-19)
(0.93294 0.0533693 -1.53749e-19)
(0.939546 0.101939 0)
(0.925954 0.107089 7.34438e-20)
(0.887603 0.0807114 3.02293e-19)
(0.886752 0.0558219 -1.85856e-19)
(1.16625 3.37518 -1.00213e-18)
(1.21332 3.29575 0)
(1.16662 3.40125 -1.98033e-18)
(0.652564 3.56319 1.69833e-18)
(0.875927 3.12703 4.00765e-19)
(0.482241 0.872451 1.91524e-19)
(0.440564 0.854088 0)
(0.34118 0.565138 -7.56889e-20)
(0.402872 0.69036 3.37256e-19)
(0.515503 0.543027 -1.02609e-19)
(0.499039 0.566193 1.16092e-19)
(0.620872 0.547889 2.48172e-19)
(0.637303 0.562432 0)
(0.594 0.629533 0)
(0.559147 0.565075 0)
(0.9114 0.581592 -6.23298e-20)
(0.836302 0.516403 -1.67135e-19)
(0.859694 0.556439 7.02371e-20)
(0.904366 0.489371 -1.18746e-19)
(1.00583 0.461644 0)
(1.01806 0.544188 -9.98699e-23)
(0.83077 0.363588 -3.6527e-19)
(0.836312 0.351806 -4.10832e-19)
(0.81539 0.362096 2.86408e-19)
(0.798353 0.33561 -3.30021e-19)
(0.831123 0.296792 -2.45036e-19)
(0.794001 0.302668 3.00297e-19)
(1.03688 0.000353789 -1.56827e-19)
(1.03912 0.00119039 3.19573e-19)
(1.02752 -0.0066843 1.94775e-19)
(1.03282 -0.00380369 -2.33297e-19)
(1.03475 0.0117765 0)
(1.03725 0.0101283 -3.8541e-19)
(-0.243141 1.91249 3.09754e-20)
(-0.249521 1.87529 0)
(-0.337665 1.97472 -1.23042e-19)
(-0.338788 1.97274 1.33291e-19)
(-0.341999 1.90403 -1.31527e-19)
(-0.326747 1.90734 0)
(-0.0287835 1.81624 0)
(-0.0277088 1.80191 -8.57949e-21)
(-0.0261835 1.7989 7.71672e-21)
(-0.0253706 1.80099 1.94581e-21)
(-0.0219638 1.81425 -1.52157e-20)
(-0.0222095 1.81647 9.54119e-21)
(0.50217 1.43042 3.62492e-19)
(0.505511 1.43347 -3.88744e-19)
(0.560735 1.32712 4.80494e-19)
(0.600776 1.39675 -2.19479e-20)
(0.631818 1.2874 0)
(0.579641 1.36095 5.72513e-19)
(0.595694 1.3633 -5.70679e-19)
(0.557053 1.30209 -4.70863e-19)
(0.554649 1.28166 0)
(0.547335 1.23557 0)
(0.793926 2.4684 4.96172e-21)
(0.739647 2.49194 4.70442e-19)
(0.799213 2.47757 -3.19453e-19)
(0.704709 2.49313 -1.0129e-19)
(0.661496 2.6629 -2.87599e-21)
(0.536845 2.68129 -8.44361e-20)
(0.951337 2.34072 -1.37283e-19)
(0.985155 2.37989 0)
(0.870059 2.10038 -1.63866e-19)
(1.02828 2.71396 0)
(1.01979 2.69171 0)
(0.618411 2.28418 2.66013e-19)
(1.04598 3.1717 5.05362e-19)
(0.92075 3.03809 -4.53646e-19)
(0.284951 0.981374 0)
(0.337626 0.851761 -1.38044e-19)
(0.483634 0.78833 -4.95612e-20)
(0.410889 2.05926 0)
(0.467156 2.78989 -2.79346e-19)
(0.434131 2.56231 0)
(0.63281 0.689184 -2.66366e-19)
(0.712376 0.670884 3.42303e-19)
(0.732603 0.61639 -3.33234e-19)
(0.611681 0.644254 -4.11125e-20)
(0.671042 0.59982 -1.70055e-19)
(1.01386 2.77932 -3.84095e-19)
(1.04145 2.84088 3.37948e-19)
(0.661148 2.20333 4.36137e-22)
(0.596762 1.72996 -3.28806e-20)
(0.722658 1.92739 1.77326e-19)
(0.997865 2.47366 -4.29201e-20)
(1.0037 2.49892 -2.40253e-19)
(0.688448 1.88229 -9.51663e-21)
(0.469643 1.33068 -1.1565e-19)
)
;

boundaryField
{
    wall-4
    {
        type            noSlip;
    }
    velocity-inlet-5
    {
        type            fixedValue;
        value           uniform (1 0 0);
    }
    velocity-inlet-6
    {
        type            fixedValue;
        value           uniform (0 3 0);
    }
    pressure-outlet-7
    {
        type            zeroGradient;
    }
    wall-8
    {
        type            noSlip;
    }
    frontAndBackPlanes
    {
        type            empty;
    }
}


// ************************************************************************* //
