/*--------------------------------*- C++ -*----------------------------------*\
| =========                 |                                                 |
| \\      /  F ield         | OpenFOAM: The Open Source CFD Toolbox           |
|  \\    /   O peration     | Version:  4.0                                   |
|   \\  /    A nd           | Web:      www.OpenFOAM.org                      |
|    \\/     M anipulation  |                                                 |
\*---------------------------------------------------------------------------*/
FoamFile
{
    version     2.0;
    format      ascii;
    class       volScalarField;
    location    "67";
    object      p;
}
// * * * * * * * * * * * * * * * * * * * * * * * * * * * * * * * * * * * * * //

dimensions      [0 2 -2 0 0 0 0];

internalField   nonuniform List<scalar> 
2200
(
0.771165
0.749667
0.733763
0.718101
0.703497
0.690988
0.680649
0.672563
0.666885
0.663968
0.664501
0.668337
0.674703
0.683279
0.693972
0.706756
0.721556
0.737492
0.75354
0.775038
0.703587
0.70033
0.697408
0.693295
0.68784
0.681376
0.674772
0.668839
0.664365
0.662028
0.662536
0.665898
0.671102
0.677583
0.684582
0.691344
0.697008
0.701103
0.703953
0.707317
0.663648
0.66387
0.665934
0.667285
0.667682
0.66684
0.664872
0.662216
0.6597
0.658248
0.658846
0.661346
0.664669
0.667923
0.670273
0.671283
0.671021
0.670021
0.668379
0.668131
0.64114
0.642592
0.645191
0.647649
0.650102
0.652136
0.65331
0.653568
0.65323
0.652983
0.653674
0.655094
0.656334
0.656752
0.656089
0.65443
0.652283
0.650112
0.64751
0.646105
0.626759
0.628732
0.631555
0.634401
0.637272
0.640118
0.642598
0.644488
0.645754
0.646605
0.647405
0.647929
0.647733
0.646667
0.644833
0.642476
0.639935
0.637214
0.634425
0.632502
0.619381
0.62098
0.623189
0.625728
0.628409
0.631097
0.633715
0.636166
0.638232
0.639812
0.640745
0.640834
0.640052
0.638574
0.636713
0.6346
0.632289
0.629951
0.627854
0.626279
0.615906
0.616928
0.618204
0.620082
0.622245
0.624435
0.626663
0.629001
0.631276
0.633187
0.634303
0.634392
0.633683
0.632529
0.631174
0.629646
0.627971
0.626409
0.625301
0.624284
0.61319
0.613859
0.614498
0.615813
0.617447
0.619161
0.620951
0.622928
0.625066
0.627119
0.628465
0.62887
0.62862
0.628056
0.627322
0.626412
0.625384
0.624476
0.624038
0.62336
0.609877
0.610321
0.610725
0.611736
0.61302
0.614435
0.615978
0.617706
0.619642
0.621719
0.623348
0.624236
0.624583
0.624602
0.624376
0.623948
0.623402
0.622893
0.622715
0.622249
0.605747
0.606043
0.606406
0.607288
0.608419
0.609722
0.6112
0.612873
0.614769
0.616913
0.618925
0.620372
0.621257
0.62172
0.621874
0.621794
0.621541
0.621242
0.621126
0.6208
0.600934
0.601135
0.601513
0.602357
0.603474
0.604817
0.606389
0.608199
0.610269
0.612648
0.61509
0.617069
0.618409
0.61923
0.619653
0.619808
0.619741
0.619597
0.619506
0.619266
0.595617
0.595761
0.596137
0.596962
0.59813
0.599598
0.601363
0.603427
0.605823
0.608648
0.611635
0.614136
0.615892
0.617035
0.617711
0.618055
0.618201
0.618206
0.618148
0.617954
0.589875
0.589984
0.590368
0.591201
0.592451
0.594081
0.596087
0.598498
0.60137
0.604773
0.608409
0.611496
0.613706
0.61519
0.616159
0.616761
0.617121
0.617266
0.617252
0.617079
0.583705
0.583772
0.584161
0.585027
0.586382
0.588195
0.590472
0.593274
0.59672
0.600858
0.605312
0.609083
0.611821
0.613757
0.615117
0.616036
0.616644
0.616941
0.616969
0.616803
0.576957
0.576994
0.577419
0.578341
0.579862
0.581908
0.584512
0.587797
0.591925
0.596965
0.602343
0.606921
0.610344
0.612843
0.614676
0.615976
0.61685
0.617304
0.61738
0.617214
0.569613
0.569573
0.57001
0.571036
0.572769
0.575083
0.578058
0.581884
0.586764
0.592809
0.599353
0.604996
0.609268
0.612499
0.614916
0.616658
0.617838
0.618458
0.618584
0.618411
0.561325
0.561325
0.561758
0.562864
0.564848
0.567479
0.570931
0.57543
0.581238
0.588519
0.596438
0.603339
0.60868
0.612761
0.615839
0.618111
0.61964
0.620439
0.620622
0.620438
0.55191
0.551927
0.552387
0.553654
0.555937
0.559015
0.563107
0.568457
0.57539
0.584165
0.593744
0.602156
0.608731
0.613763
0.617618
0.620456
0.622386
0.623377
0.623611
0.623406
0.540986
0.540959
0.541531
0.543022
0.545657
0.54931
0.554218
0.560651
0.568979
0.579509
0.591173
0.601368
0.609333
0.615506
0.620219
0.623746
0.626124
0.627302
0.627584
0.627354
0.527959
0.527887
0.528571
0.530442
0.53367
0.538134
0.54413
0.551992
0.562155
0.574909
0.588852
0.601103
0.610685
0.618119
0.623827
0.628078
0.630936
0.632309
0.632622
0.632364
0.512642
0.512537
0.513309
0.515523
0.519479
0.525028
0.532474
0.542205
0.554699
0.570218
0.586887
0.601432
0.612758
0.621592
0.628384
0.633498
0.636874
0.638415
0.638741
0.638449
0.493935
0.493861
0.494885
0.497668
0.502601
0.509594
0.519019
0.531279
0.546778
0.565572
0.5854
0.60243
0.615701
0.626023
0.634023
0.640021
0.643882
0.645586
0.645896
0.645573
0.470831
0.470677
0.472006
0.475651
0.482134
0.49132
0.503509
0.519077
0.538258
0.560916
0.584332
0.604212
0.619583
0.631486
0.640724
0.647616
0.65194
0.653739
0.653987
0.65364
0.441167
0.441197
0.443302
0.448376
0.457158
0.46949
0.485525
0.50538
0.529046
0.556246
0.583673
0.606581
0.62414
0.637787
0.648372
0.656155
0.660825
0.662673
0.662827
0.662461
0.40195
0.402201
0.405766
0.413791
0.426615
0.443906
0.465262
0.490575
0.519642
0.551994
0.583799
0.609887
0.629765
0.645101
0.656936
0.665471
0.67034
0.672094
0.672129
0.671766
0.349785
0.350234
0.357324
0.370671
0.390073
0.414668
0.4431
0.475079
0.510357
0.548383
0.584742
0.614101
0.63622
0.653256
0.666302
0.675361
0.680047
0.681409
0.681295
0.680999
0.281557
0.284317
0.299568
0.321287
0.349632
0.383142
0.419772
0.459219
0.501364
0.545719
0.58721
0.6202
0.645108
0.664189
0.678482
0.687998
0.692331
0.693118
0.69302
0.69281
0.203863
0.213603
0.239122
0.270588
0.309141
0.351839
0.396722
0.44394
0.493405
0.544431
0.591495
0.628792
0.656785
0.67791
0.693669
0.703386
0.707209
0.707459
0.707483
0.707358
0.134763
0.149423
0.181377
0.221951
0.270217
0.321809
0.374832
0.429799
0.486471
0.544118
0.596693
0.638037
0.668598
0.691713
0.708399
0.718063
0.721554
0.721549
0.721694
0.721643
0.0821004
0.0956132
0.132358
0.179024
0.234771
0.294029
0.354502
0.41671
0.48028
0.544446
0.602382
0.647399
0.680612
0.705386
0.723065
0.733112
0.736175
0.736479
0.73672
0.736693
0.0385051
0.0512357
0.0919638
0.142621
0.203831
0.26904
0.335959
0.404734
0.474679
0.544744
0.607607
0.656324
0.692267
0.718834
0.737732
0.748194
0.751829
0.752436
0.752468
0.752529
0.00157558
0.0143815
0.057763
0.1113
0.176877
0.246971
0.319403
0.393825
0.469349
0.544855
0.61272
0.665199
0.703482
0.73174
0.751978
0.763171
0.767037
0.767667
0.767695
0.76776
-0.0307328
-0.0176829
0.0278839
0.0840294
0.15327
0.227381
0.304429
0.383702
0.464346
0.545309
0.618087
0.673758
0.714223
0.744134
0.765559
0.777014
0.781262
0.78195
0.782013
0.782059
-0.0591885
-0.0462455
0.00102839
0.0596054
0.132034
0.20962
0.290716
0.374387
0.459888
0.545939
0.622935
0.681569
0.72429
0.755402
0.777669
0.789739
0.794191
0.794998
0.795049
0.795081
-0.0851859
-0.0722031
-0.0236429
0.0373008
0.112561
0.193238
0.277966
0.365641
0.455486
0.545878
0.626825
0.688609
0.733344
0.765732
0.788375
0.800909
0.805725
0.806624
0.806691
0.806706
-0.109104
-0.0960319
-0.0466689
0.0165095
0.0942793
0.177769
0.265772
0.356935
0.450537
0.545025
0.630197
0.695043
0.741495
0.774838
0.797864
0.810956
0.815862
0.816881
0.816948
0.816941
-0.131683
-0.118267
-0.0682706
-0.00309523
0.076864
0.162872
0.253722
0.347911
0.444993
0.543619
0.632911
0.700702
0.748867
0.783391
0.806592
0.819817
0.824835
0.825896
0.825953
0.825922
-0.152948
-0.139304
-0.0886734
-0.0217952
0.059998
0.148205
0.241565
0.338528
0.438907
0.541401
0.634658
0.705731
0.755921
0.791252
0.814704
0.82784
0.832681
0.833784
0.83382
0.833765
-0.17307
-0.15944
-0.108085
-0.0398067
0.0435192
0.133666
0.229285
0.328819
0.432242
0.538353
0.635673
0.710176
0.762584
0.799037
0.822445
0.834909
0.839767
0.840648
0.840704
0.840608
-0.192405
-0.178572
-0.126701
-0.0572831
0.0273491
0.11921
0.216874
0.318779
0.424998
0.534493
0.635819
0.714013
0.76915
0.806719
0.829934
0.841806
0.845955
0.846715
0.846652
0.846568
-0.21137
-0.196973
-0.144683
-0.0742862
0.0114892
0.104875
0.204372
0.308396
0.417107
0.529745
0.635097
0.717314
0.775605
0.814932
0.837895
0.848527
0.851657
0.851933
0.851933
0.851954
-0.229896
-0.214772
-0.162129
-0.0908333
-0.00404029
0.0906708
0.191747
0.29762
0.408576
0.524151
0.633412
0.719902
0.782014
0.823687
0.846821
0.856139
0.857159
0.856754
0.856478
0.856318
-0.247991
-0.232177
-0.1791
-0.106932
-0.0192387
0.0766052
0.179015
0.286488
0.399471
0.517723
0.630673
0.721668
0.788116
0.83327
0.85766
0.865205
0.863689
0.861997
0.861804
0.862838
-0.26545
-0.249126
-0.195588
-0.122589
-0.0341025
0.0626896
0.166201
0.275059
0.389878
0.510523
0.626784
0.72233
0.793809
0.843479
0.870713
0.877745
0.873379
0.86641
0.861692
0.860867
-0.282331
-0.265617
-0.211572
-0.137798
-0.0486246
0.048958
0.153389
0.263446
0.379889
0.502607
0.621727
0.721689
0.798435
0.854085
0.886214
0.894726
0.89
0.879554
0.879944
0.884106
-0.298558
-0.281508
-0.226984
-0.15253
-0.0627641
0.0354765
0.140664
0.251734
0.369559
0.494014
0.615518
0.719423
0.801728
0.864054
0.903079
0.91644
0.911016
0.881812
0.844498
0.81215
-0.314142
-0.296847
-0.24186
-0.166841
-0.0766055
0.0221445
0.127913
0.239769
0.358665
0.484537
0.607989
0.715152
0.802489
0.872485
0.920731
0.941984
0.949947
0.923511
0.941103
1.0034
-0.329004
-0.311606
-0.256263
-0.180862
-0.0903116
0.00875921
0.114869
0.227195
0.346756
0.473604
0.598482
0.707982
0.799714
0.876382
0.93094
0.957076
0.956863
0.927812
0.8832
0.900708
-0.343154
-0.325818
-0.270164
-0.194526
-0.103797
-0.00458476
0.101645
0.214138
0.333951
0.461267
0.586942
0.697704
0.791149
0.871097
0.927328
0.954098
0.93266
0.872837
0.806398
0.793258
-0.356551
-0.339414
-0.283537
-0.207837
-0.117061
-0.0178852
0.0882426
0.200607
0.320272
0.447504
0.573212
0.683874
0.776436
0.853009
0.904257
0.904669
0.864273
0.782522
0.705591
0.679715
-0.369255
-0.352449
-0.296423
-0.220808
-0.13013
-0.0311697
0.0746534
0.186624
0.305762
0.432329
0.557183
0.666212
0.754057
0.819207
0.845744
0.827973
0.762815
0.657811
0.568253
0.543732
-0.381684
-0.365251
-0.309175
-0.233808
-0.143355
-0.0447441
0.060612
0.171961
0.290234
0.41556
0.538616
0.644074
0.724771
0.773579
0.766453
0.727715
0.610452
0.484664
0.374989
0.345711
-0.394703
-0.378676
-0.322511
-0.24743
-0.15728
-0.059081
0.0457216
0.1563
0.27344
0.397023
0.517284
0.617056
0.690501
0.713747
0.679182
0.586272
0.426571
0.271105
0.13943
0.109955
-0.408804
-0.392985
-0.336678
-0.261914
-0.172089
-0.074295
0.0299077
0.139594
0.255369
0.376703
0.493047
0.586028
0.648702
0.642632
0.589499
0.43551
0.233336
0.0188257
-0.162656
-0.212829
-0.42413
-0.408429
-0.351814
-0.277266
-0.187744
-0.0903618
0.0131965
0.121885
0.236084
0.354711
0.465964
0.552461
0.599818
0.561873
0.472867
0.282621
0.0504248
-0.239187
-0.560228
-0.710002
-0.440729
-0.424926
-0.36795
-0.293602
-0.204326
-0.107338
-0.00447465
0.1031
0.215527
0.33104
0.436248
0.516013
0.545012
0.476597
0.337833
0.131446
-0.102434
-0.446182
-1.03087
-1.60151
-0.45872
-0.442772
-0.385262
-0.310955
-0.221839
-0.125232
-0.0230841
0.0833234
0.193864
0.306092
0.405087
0.476617
0.486164
0.401605
0.208195
-0.025519
-0.227887
-0.461792
-1.013
-2.51421
-0.478097
-0.461807
-0.403736
-0.329492
-0.240474
-0.144236
-0.0428649
0.0622679
0.170755
0.279475
0.372293
0.433888
0.422285
0.342606
0.114642
-0.122682
-0.270612
-0.307904
-0.296763
-0.681026
-0.498818
-0.482463
-0.423687
-0.34946
-0.260593
-0.164857
-0.0644484
0.0391741
0.145271
0.249907
0.336908
0.387638
0.359699
0.29191
0.0650049
-0.136842
-0.247664
-0.255925
-0.203133
-0.243127
-0.520752
-0.504282
-0.444945
-0.370991
-0.282341
-0.187228
-0.0879973
0.0138498
0.117191
0.217183
0.29898
0.339521
0.304848
0.237284
0.0324893
-0.12737
-0.209839
-0.218074
-0.265835
-0.269871
-0.543856
-0.52755
-0.467627
-0.394004
-0.305647
-0.211376
-0.113566
-0.013762
0.0864967
0.181682
0.258418
0.289192
0.257103
0.17573
0.00422199
-0.118226
-0.188579
-0.165683
-0.186116
-0.187774
-0.567837
-0.551276
-0.491368
-0.418497
-0.330457
-0.237241
-0.14109
-0.0435648
0.0533047
0.143774
0.215573
0.235512
0.215786
0.1077
-0.0313392
-0.113561
-0.152551
-0.200877
-0.174988
-0.183661
-0.592653
-0.575693
-0.51625
-0.444179
-0.356435
-0.264655
-0.170381
-0.0753433
0.0177881
0.103843
0.171304
0.180686
0.172569
0.0467392
-0.0682888
-0.132
-0.109488
-0.169183
-0.14982
-0.154833
-0.617102
-0.599924
-0.54194
-0.470816
-0.383392
-0.293428
-0.201185
-0.108775
-0.0198509
0.0622294
0.12682
0.128599
0.120636
-0.00434169
-0.0952038
-0.146428
-0.134142
-0.149566
-0.154825
-0.153075
-0.640997
-0.623939
-0.567938
-0.497584
-0.410815
-0.323149
-0.233059
-0.143453
-0.0590657
0.0193244
0.0824438
0.0805399
0.0632586
-0.0468347
-0.108759
-0.140321
-0.178767
-0.150142
-0.155842
-0.150216
-0.663106
-0.646786
-0.592826
-0.523714
-0.438609
-0.353385
-0.265573
-0.178872
-0.0990731
-0.0246686
0.0380532
0.0370413
0.00762964
-0.0815546
-0.121428
-0.114843
-0.187563
-0.130234
-0.145318
-0.137472
-0.682987
-0.667791
-0.615923
-0.548084
-0.466064
-0.383222
-0.297942
-0.214403
-0.138858
-0.0691015
-0.00688656
-0.00329206
-0.0372066
-0.100369
-0.129396
-0.0884888
-0.134308
-0.116468
-0.122556
-0.119318
-0.698852
-0.685271
-0.636069
-0.570424
-0.492377
-0.411891
-0.329573
-0.249389
-0.177519
-0.113335
-0.0521168
-0.0410629
-0.0685305
-0.101042
-0.117248
-0.0947897
-0.108545
-0.112621
-0.113804
-0.114005
-0.710034
-0.698602
-0.65277
-0.589702
-0.51559
-0.438219
-0.359279
-0.282775
-0.214222
-0.156029
-0.0964144
-0.0762268
-0.0906517
-0.0970868
-0.108834
-0.119674
-0.112059
-0.115592
-0.113836
-0.114971
-0.714999
-0.705968
-0.664315
-0.604856
-0.534921
-0.461354
-0.386352
-0.313741
-0.248258
-0.19568
-0.137165
-0.110265
-0.119038
-0.0963429
-0.106777
-0.141587
-0.118649
-0.125054
-0.118134
-0.11919
-0.713926
-0.707016
-0.669759
-0.614255
-0.548679
-0.479642
-0.409118
-0.34077
-0.278823
-0.230263
-0.173535
-0.14242
-0.140677
-0.102253
-0.0981237
-0.126356
-0.106972
-0.127003
-0.124767
-0.126814
-0.705813
-0.698529
-0.666334
-0.616608
-0.556512
-0.49252
-0.426888
-0.362764
-0.304208
-0.258268
-0.203999
-0.171457
-0.157467
-0.116094
-0.0568426
-0.0473631
-0.0617288
-0.071318
-0.0750005
-0.0786495
-0.685005
-0.676658
-0.652711
-0.610507
-0.556767
-0.498442
-0.438232
-0.378117
-0.322316
-0.277729
-0.22674
-0.191598
-0.176769
-0.184938
-0.208366
-0.258187
-0.26902
-0.258399
-0.244864
-0.233996
-0.6422
-0.634348
-0.625941
-0.595993
-0.550531
-0.49846
-0.443208
-0.386105
-0.331255
-0.285986
-0.236822
-0.196113
-0.248727
-0.355792
-0.565795
-0.737502
-0.749859
-0.730847
-0.665469
-0.605333
-0.601567
-0.598803
-0.597515
-0.574474
-0.538092
-0.492901
-0.442161
-0.386866
-0.330047
-0.280677
-0.231694
-0.165323
-0.187339
-0.274203
-0.386543
-0.416154
-0.356764
-0.287131
-0.246748
-0.224011
-0.578623
-0.580402
-0.570157
-0.556497
-0.527766
-0.486578
-0.436878
-0.38138
-0.319332
-0.258092
-0.200353
-0.0877181
0.0488311
0.251875
0.448005
0.637885
0.778047
0.860839
0.904689
0.942941
-0.547374
-0.547037
-0.543953
-0.542726
-0.518531
-0.480619
-0.431462
-0.373871
-0.305797
-0.227906
-0.147566
-0.0135474
0.197612
0.514422
0.819702
1.07402
1.25162
1.35612
1.40659
1.42271
-0.535445
-0.533557
-0.536423
-0.529082
-0.512231
-0.477149
-0.426435
-0.365221
-0.292876
-0.20304
-0.104209
0.0223208
0.25591
0.574846
0.885045
1.14482
1.33628
1.44872
1.49891
1.51492
-0.523115
-0.52144
-0.524672
-0.516447
-0.51145
-0.476894
-0.424887
-0.360365
-0.283752
-0.187537
-0.0809418
0.0240325
0.242843
0.520857
0.793729
1.02943
1.21352
1.32474
1.37408
1.38767
-0.51322
-0.513301
-0.513196
-0.512761
-0.510334
-0.475577
-0.424529
-0.359712
-0.281484
-0.184852
-0.0802338
0.00193841
0.186551
0.422274
0.647054
0.840882
0.996958
1.09195
1.13307
1.14319
-0.505864
-0.507333
-0.505523
-0.510879
-0.506085
-0.476928
-0.427563
-0.362609
-0.285361
-0.193306
-0.093912
-0.0290407
0.117116
0.314888
0.494759
0.644288
0.764138
0.838153
0.869541
0.877285
-0.494109
-0.494491
-0.491174
-0.493333
-0.486236
-0.472704
-0.43181
-0.367976
-0.293016
-0.207583
-0.113733
-0.059343
0.049507
0.211582
0.352955
0.465494
0.554471
0.610426
0.633911
0.638948
-0.493292
-0.490331
-0.484998
-0.480581
-0.475596
-0.473738
-0.434981
-0.372178
-0.299727
-0.222411
-0.134423
-0.0858958
-0.00962571
0.120577
0.231025
0.315537
0.380761
0.422489
0.438333
0.442649
-0.517989
-0.514694
-0.511784
-0.510236
-0.511536
-0.503258
-0.44418
-0.375814
-0.302945
-0.23326
-0.152223
-0.107221
-0.0567261
0.046468
0.131676
0.194733
0.243056
0.273876
0.285692
0.289791
-0.569869
-0.571759
-0.577461
-0.585996
-0.580946
-0.544965
-0.459872
-0.379529
-0.301407
-0.237716
-0.165033
-0.122647
-0.0895164
-0.00855649
0.0556439
0.102185
0.139376
0.163052
0.172372
0.174794
-0.5824
-0.587511
-0.600835
-0.614205
-0.607268
-0.552943
-0.460012
-0.373518
-0.292493
-0.233798
-0.170945
-0.132014
-0.108173
-0.0450726
0.00212663
0.0358703
0.0631693
0.0795775
0.0866156
0.0884293
-0.494615
-0.500581
-0.518986
-0.529811
-0.527412
-0.484601
-0.414376
-0.342547
-0.27224
-0.218711
-0.168465
-0.134975
-0.114602
-0.0667367
-0.0330218
-0.00903991
0.00867967
0.018728
0.0224931
0.0228586
-0.332804
-0.339247
-0.347922
-0.356094
-0.357257
-0.340731
-0.310652
-0.274149
-0.230242
-0.191124
-0.156365
-0.130804
-0.112087
-0.0780525
-0.0549922
-0.0396831
-0.0296486
-0.0247799
-0.0237354
-0.0244754
-0.169545
-0.17243
-0.177673
-0.186044
-0.193617
-0.196576
-0.195152
-0.188561
-0.172413
-0.154335
-0.135345
-0.11926
-0.104268
-0.082412
-0.0681113
-0.0593922
-0.054784
-0.0536101
-0.0545472
-0.0558152
-0.0455126
-0.0470345
-0.0506723
-0.0587183
-0.0713338
-0.0859874
-0.10035
-0.111767
-0.115105
-0.114985
-0.108464
-0.101219
-0.0930601
-0.0809194
-0.0735019
-0.07014
-0.0694182
-0.0705406
-0.0723411
-0.0737528
0.0289592
0.0278853
0.0252741
0.017348
0.00210906
-0.0177971
-0.0379543
-0.0561535
-0.0685595
-0.0789946
-0.0803983
-0.0797629
-0.0791058
-0.0734262
-0.072034
-0.072932
-0.074876
-0.0774179
-0.0794778
-0.0808481
0.0632343
0.0625647
0.0605747
0.0535005
0.0387428
0.0184017
-0.0028556
-0.0226644
-0.0376591
-0.0512351
-0.0561837
-0.0596268
-0.0636044
-0.062854
-0.0661415
-0.0699492
-0.0735511
-0.0766963
-0.0787153
-0.0799572
0.0732881
0.0727725
0.0711877
0.0654506
0.0531346
0.0353542
0.0155922
-0.00385948
-0.0192742
-0.0329978
-0.0386255
-0.0437588
-0.0493962
-0.0528621
-0.058339
-0.0633455
-0.0675741
-0.0708007
-0.0726282
-0.0736954
0.0705619
0.0701904
0.0689591
0.0645914
0.0551665
0.0411473
0.0245765
0.00692793
-0.00786184
-0.0213803
-0.0270074
-0.0322773
-0.0382911
-0.0436548
-0.0498285
-0.0549776
-0.0590652
-0.0620011
-0.063491
-0.0643819
0.0621939
0.0619523
0.0610471
0.0578614
0.0509674
0.0405254
0.0277033
0.0130707
0.000143636
-0.0129502
-0.0189881
-0.023874
-0.0293872
-0.0349052
-0.0409158
-0.0457383
-0.0494087
-0.0519169
-0.0530168
-0.0537431
0.0519621
0.0518273
0.0511874
0.04896
0.044071
0.0364974
0.0269949
0.0156662
0.0055579
-0.00624773
-0.0124743
-0.01706
-0.0219841
-0.026823
-0.0321413
-0.036373
-0.0395573
-0.0416996
-0.042535
-0.0431253
0.0416317
0.041567
0.0411198
0.0396315
0.0362577
0.0309055
0.0240109
0.0154487
0.00811755
-0.00156889
-0.00698477
-0.0109348
-0.0153584
-0.0195985
-0.0241923
-0.0277937
-0.0304667
-0.0322342
-0.0328294
-0.0332981
0.0321046
0.0320765
0.0317776
0.0308152
0.0285374
0.0248533
0.0199582
0.0135883
0.00848804
0.00105964
-0.00295115
-0.0061174
-0.0097681
-0.0133624
-0.0173097
-0.0202774
-0.0224334
-0.023844
-0.0243112
-0.0247027
0.0235458
0.0235503
0.023342
0.0227564
0.0212642
0.018802
0.0154693
0.0108196
0.00748088
0.00199764
-0.000566482
-0.00282427
-0.00564969
-0.00851396
-0.0116775
-0.0139218
-0.015543
-0.0166056
-0.0169146
-0.017234
0.0158652
0.0158688
0.0157347
0.0154146
0.0144898
0.0129325
0.0108469
0.00758708
0.00562231
0.00175275
0.000340233
-0.00101298
-0.0029441
-0.0049329
-0.00729423
-0.00884686
-0.00988751
-0.0105053
-0.0106962
-0.0110075
0.00894417
0.00893512
0.00888907
0.00879277
0.00834625
0.00752655
0.00652377
0.0044742
0.00360957
0.00102253
0.000331989
-0.00038308
-0.00147954
-0.00252556
-0.00411203
-0.00499339
-0.00550407
-0.00579704
-0.00577256
-0.00599583
0.00286238
0.00288116
0.00292532
0.00297267
0.00291111
0.00266706
0.00247921
0.00152094
0.00144099
0.000254797
0.000181636
0.000115458
-0.000544963
-0.000742453
-0.00173303
-0.00229168
-0.00280992
-0.00321925
-0.00296776
-0.00295314
-1.07671
-0.241319
0.0285565
0.303039
0.482116
0.635071
0.756812
0.881216
1.01979
1.10485
-0.101121
0.303324
0.317659
0.504508
0.625576
0.734176
0.827219
0.910448
0.937186
0.895937
0.271465
0.483572
0.516549
0.651994
0.735774
0.813817
0.878247
0.926701
0.928422
0.942962
0.497979
0.639028
0.67335
0.77331
0.829634
0.885862
0.930009
0.961995
0.970883
0.994726
0.673565
0.773436
0.803081
0.869181
0.913466
0.953552
0.985276
1.00939
1.01904
1.05075
0.815216
0.883128
0.913248
0.955377
0.991101
1.02082
1.04485
1.06557
1.07957
1.10796
0.933322
0.983387
1.00876
1.03638
1.06372
1.0873
1.10713
1.12636
1.14117
1.16775
1.03644
1.07319
1.09411
1.11458
1.1352
1.15447
1.17183
1.18993
1.20479
1.22847
1.13004
1.15902
1.17527
1.19045
1.20647
1.22248
1.23801
1.25491
1.26853
1.29085
1.21809
1.23849
1.2533
1.26642
1.27996
1.29371
1.3072
1.32179
1.33333
1.35297
1.30343
1.31919
1.333
1.3448
1.3567
1.36834
1.37947
1.39114
1.39882
1.41561
1.38862
1.40116
1.41487
1.42661
1.43725
1.44704
1.45586
1.46412
1.46768
1.47891
1.47736
1.48819
1.50166
1.51118
1.51874
1.52604
1.53322
1.53968
1.54079
1.54814
1.57576
1.58037
1.58856
1.59329
1.59669
1.60116
1.60716
1.61481
1.61872
1.62859
1.68905
1.67593
1.66864
1.66293
1.66021
1.66155
1.66786
1.68023
1.69506
1.72473
1.81101
1.75497
1.72395
1.70676
1.69854
1.69846
1.70733
1.72695
1.75873
1.82801
)
;

boundaryField
{
    wall-4
    {
        type            zeroGradient;
    }
    pressure-outlet-7
    {
        type            fixedValue;
        value           uniform 0;
    }
    velocity-inlet-6
    {
        type            zeroGradient;
    }
    velocity-inlet-5
    {
        type            zeroGradient;
    }
    frontAndBackPlanes
    {
        type            empty;
    }
}


// ************************************************************************* //
