/*--------------------------------*- C++ -*----------------------------------*\
| =========                 |                                                 |
| \\      /  F ield         | OpenFOAM: The Open Source CFD Toolbox           |
|  \\    /   O peration     | Version:  4.0                                   |
|   \\  /    A nd           | Web:      www.OpenFOAM.org                      |
|    \\/     M anipulation  |                                                 |
\*---------------------------------------------------------------------------*/
FoamFile
{
    version     2.0;
    format      ascii;
    class       volVectorField;
    location    "67";
    object      U;
}
// * * * * * * * * * * * * * * * * * * * * * * * * * * * * * * * * * * * * * //

dimensions      [0 1 -1 0 0 0 0];

internalField   nonuniform List<vector> 
2200
(
(0.878834 -0.0304118 0)
(1.00578 -0.0512797 0)
(1.00327 -0.0353993 0)
(1.00025 -0.0244391 0)
(0.999877 -0.0166639 0)
(1.00004 -0.0107335 0)
(1.00004 -0.00683891 0)
(0.999997 -0.00419047 0)
(0.99991 -0.00220141 0)
(1.00019 -0.000653412 0)
(1.0001 0.00113096 0)
(1.00038 0.00265628 0)
(1.00038 0.00453317 0)
(1.00028 0.00711567 0)
(1.00012 0.0108378 0)
(1.00004 0.0166613 0)
(1.00036 0.0243739 0)
(1.00347 0.0348579 0)
(1.00599 0.0513827 0)
(0.879054 0.0302939 0)
(0.71203 -0.03276 0)
(0.996647 -0.0630031 0)
(1.03332 -0.0561341 0)
(1.02491 -0.046399 0)
(1.01588 -0.0360868 0)
(1.00965 -0.0263481 0)
(1.00591 -0.0181106 0)
(1.00377 -0.0114135 0)
(1.00266 -0.00601993 0)
(1.00221 -0.00156532 0)
(1.00195 0.00250139 0)
(1.00207 0.00701455 0)
(1.00324 0.0123663 0)
(1.00547 0.018952 0)
(1.00939 0.0272531 0)
(1.01549 0.0369956 0)
(1.02459 0.0474872 0)
(1.03315 0.0580103 0)
(0.996704 0.0631455 0)
(0.711778 0.0330384 0)
(0.535581 -0.0238921 0)
(0.969934 -0.0569236 0)
(1.05645 -0.0547191 0)
(1.05225 -0.048732 0)
(1.03626 -0.0403901 0)
(1.02447 -0.032216 0)
(1.01592 -0.0239334 0)
(1.01039 -0.0160265 0)
(1.00712 -0.00872794 0)
(1.00543 -0.00201248 0)
(1.00565 0.00441561 0)
(1.00738 0.0108453 0)
(1.0105 0.0177604 0)
(1.01576 0.0254666 0)
(1.02406 0.0334314 0)
(1.03609 0.041396 0)
(1.05217 0.0493966 0)
(1.0563 0.0532918 0)
(0.969198 0.0576463 0)
(0.534363 0.0239427 0)
(0.392388 -0.0136435 0)
(0.911887 -0.0463786 0)
(1.05755 -0.0468624 0)
(1.06962 -0.0442812 0)
(1.05492 -0.0381313 0)
(1.03936 -0.0314419 0)
(1.02758 -0.0246388 0)
(1.01913 -0.0174295 0)
(1.01386 -0.00993306 0)
(1.01136 -0.00244545 0)
(1.01097 0.00507264 0)
(1.01294 0.0125068 0)
(1.01808 0.0198948 0)
(1.02658 0.0266864 0)
(1.0385 0.0331284 0)
(1.054 0.0395918 0)
(1.06823 0.0456661 0)
(1.05547 0.0482909 0)
(0.9099 0.0470025 0)
(0.389903 0.0137777 0)
(0.307804 -0.00450988 0)
(0.846827 -0.0323616 0)
(1.04944 -0.0398957 0)
(1.07951 -0.03813 0)
(1.06828 -0.0334621 0)
(1.05176 -0.0278478 0)
(1.03835 -0.0224432 0)
(1.02806 -0.0163426 0)
(1.02087 -0.00940574 0)
(1.01681 -0.00168221 0)
(1.01676 0.00614032 0)
(1.02068 0.0135031 0)
(1.02753 0.0197994 0)
(1.0373 0.0255171 0)
(1.0502 0.0304227 0)
(1.06664 0.0357455 0)
(1.07765 0.0401083 0)
(1.04721 0.0417855 0)
(0.842892 0.0330002 0)
(0.303669 0.00474345 0)
(0.264428 0.000104083 0)
(0.789196 -0.0200562 0)
(1.03356 -0.0314312 0)
(1.0837 -0.0320004 0)
(1.07738 -0.0287178 0)
(1.06088 -0.0238248 0)
(1.04731 -0.0193306 0)
(1.03653 -0.0142569 0)
(1.02882 -0.00821644 0)
(1.02448 -0.00130503 0)
(1.02395 0.00617208 0)
(1.02716 0.0128398 0)
(1.03432 0.0186842 0)
(1.04497 0.0231814 0)
(1.0586 0.0271417 0)
(1.07486 0.0315325 0)
(1.08033 0.0342477 0)
(1.02919 0.0333625 0)
(0.782528 0.0207485 0)
(0.258643 0.000124221 0)
(0.240505 0.00107019 0)
(0.738572 -0.0122677 0)
(1.0138 -0.0249521 0)
(1.0841 -0.0266982 0)
(1.08311 -0.0243875 0)
(1.06789 -0.0202182 0)
(1.05427 -0.0162158 0)
(1.04327 -0.0116287 0)
(1.03492 -0.00615366 0)
(1.0298 0.000354676 0)
(1.02942 0.00694668 0)
(1.03398 0.0129183 0)
(1.04164 0.0173904 0)
(1.05178 0.0213857 0)
(1.0647 0.024758 0)
(1.0794 0.0282077 0)
(1.07985 0.0297799 0)
(1.00745 0.027285 0)
(0.728716 0.0131617 0)
(0.232956 -0.000832001 0)
(0.226248 0.000964384 0)
(0.695857 -0.00801061 0)
(0.993416 -0.0206824 0)
(1.08248 -0.0230336 0)
(1.08701 -0.0211652 0)
(1.0735 -0.0175952 0)
(1.0601 -0.0137278 0)
(1.04963 -0.00946616 0)
(1.04183 -0.0045746 0)
(1.03701 0.000991213 0)
(1.03611 0.00708585 0)
(1.039 0.0123215 0)
(1.04565 0.0168268 0)
(1.05574 0.020155 0)
(1.06917 0.023149 0)
(1.08189 0.0258868 0)
(1.07554 0.0268512 0)
(0.983143 0.0235084 0)
(0.681566 0.0091537 0)
(0.216475 -0.000705413 0)
(0.216695 0.000625741 0)
(0.660457 -0.00564473 0)
(0.972794 -0.0175573 0)
(1.07965 -0.0201182 0)
(1.09041 -0.0185205 0)
(1.0784 -0.0153321 0)
(1.06491 -0.0116698 0)
(1.05423 -0.00738931 0)
(1.04604 -0.00246262 0)
(1.04074 0.00303618 0)
(1.03996 0.00836158 0)
(1.04387 0.0129835 0)
(1.0508 0.0165406 0)
(1.06011 0.0198338 0)
(1.07253 0.0225285 0)
(1.08336 0.0246799 0)
(1.07085 0.0250948 0)
(0.959071 0.021082 0)
(0.641395 0.00709241 0)
(0.204333 -0.000331656 0)
(0.209617 0.000304047 0)
(0.63216 -0.00417799 0)
(0.954234 -0.0149193 0)
(1.07678 -0.0178016 0)
(1.09361 -0.0164495 0)
(1.08312 -0.0135186 0)
(1.06974 -0.00987402 0)
(1.0594 -0.00581643 0)
(1.05183 -0.0011578 0)
(1.04698 0.00381117 0)
(1.04537 0.00894187 0)
(1.04737 0.0135032 0)
(1.05305 0.0173444 0)
(1.06245 0.0200395 0)
(1.07546 0.0223717 0)
(1.08428 0.0240397 0)
(1.06364 0.0239927 0)
(0.934076 0.0192249 0)
(0.606284 0.00597185 0)
(0.19381 4.83963e-05 0)
(0.203801 8.85508e-05 0)
(0.608856 -0.00312146 0)
(0.93623 -0.0124938 0)
(1.07359 -0.0154742 0)
(1.09694 -0.0142756 0)
(1.08786 -0.0114335 0)
(1.07433 -0.00785718 0)
(1.06345 -0.00372045 0)
(1.05501 0.00102967 0)
(1.04939 0.00624456 0)
(1.04798 0.0110793 0)
(1.05096 0.0150268 0)
(1.05709 0.0179781 0)
(1.06593 0.0206459 0)
(1.0778 0.0227129 0)
(1.08453 0.0239221 0)
(1.05693 0.0231781 0)
(0.910239 0.0177076 0)
(0.575907 0.00532174 0)
(0.184118 0.000328806 0)
(0.199359 1.49531e-05 0)
(0.590952 -0.00224856 0)
(0.921123 -0.0101337 0)
(1.07089 -0.013287 0)
(1.10045 -0.0122112 0)
(1.09281 -0.00950125 0)
(1.07916 -0.00591187 0)
(1.06829 -0.00199955 0)
(1.06024 0.00254819 0)
(1.05486 0.00741591 0)
(1.05232 0.0122276 0)
(1.05342 0.0163307 0)
(1.05851 0.0195349 0)
(1.06749 0.0215157 0)
(1.08005 0.0232071 0)
(1.08422 0.0240296 0)
(1.04752 0.0227067 0)
(0.885318 0.0165393 0)
(0.547991 0.00495915 0)
(0.17455 0.000500356 0)
(0.195824 3.68529e-05 0)
(0.576309 -0.00151975 0)
(0.906633 -0.00800089 0)
(1.06805 -0.0108587 0)
(1.10397 -0.00969709 0)
(1.0978 -0.00685205 0)
(1.08415 -0.00319129 0)
(1.07273 0.000914006 0)
(1.0636 0.00562309 0)
(1.0569 0.0106526 0)
(1.05445 0.0151417 0)
(1.05658 0.0185698 0)
(1.06208 0.0208197 0)
(1.07066 0.0228094 0)
(1.08142 0.0241257 0)
(1.08339 0.0245327 0)
(1.03845 0.022597 0)
(0.861225 0.0157212 0)
(0.522638 0.00481096 0)
(0.165276 0.000588536 0)
(0.19384 6.87214e-05 0)
(0.566046 -0.000728528 0)
(0.895649 -0.00581314 0)
(1.06609 -0.00854107 0)
(1.10788 -0.00726216 0)
(1.10317 -0.00439917 0)
(1.08933 -0.000647805 0)
(1.07758 0.0032951 0)
(1.06837 0.00772885 0)
(1.06191 0.0126136 0)
(1.05814 0.0173982 0)
(1.05824 0.020884 0)
(1.06267 0.0232766 0)
(1.07149 0.0244458 0)
(1.08261 0.0253709 0)
(1.08128 0.0252955 0)
(1.0262 0.0227944 0)
(0.835457 0.0152547 0)
(0.497846 0.00476282 0)
(0.155845 0.000624779 0)
(0.19304 0.000104504 0)
(0.558652 -0.000192381 0)
(0.885477 -0.00379801 0)
(1.06442 -0.00592238 0)
(1.11187 -0.00439378 0)
(1.1086 -0.0012469 0)
(1.09486 0.00268996 0)
(1.08269 0.00712179 0)
(1.07263 0.0121282 0)
(1.06459 0.0172969 0)
(1.06041 0.0212291 0)
(1.06118 0.0240778 0)
(1.06597 0.025674 0)
(1.07406 0.0268963 0)
(1.08241 0.0272561 0)
(1.07868 0.0266804 0)
(1.01407 0.02347 0)
(0.810053 0.0151432 0)
(0.474247 0.00483216 0)
(0.14656 0.000648995 0)
(0.193703 8.53416e-05 0)
(0.554675 0.000904242 0)
(0.879468 -0.00144559 0)
(1.06408 -0.00303755 0)
(1.11646 -0.00111637 0)
(1.11445 0.00224248 0)
(1.10051 0.00648698 0)
(1.0878 0.0108705 0)
(1.0771 0.0155484 0)
(1.06851 0.0202114 0)
(1.06323 0.0247323 0)
(1.06214 0.0276818 0)
(1.06535 0.0291039 0)
(1.07356 0.0294667 0)
(1.08229 0.029627 0)
(1.07381 0.0284948 0)
(0.99831 0.0244444 0)
(0.78242 0.0153636 0)
(0.449978 0.00498911 0)
(0.136866 0.000664877 0)
(0.195926 0.000287088 0)
(0.555088 0.00156531 0)
(0.875016 0.000804143 0)
(1.06498 0.000118916 0)
(1.12171 0.00242147 0)
(1.12092 0.00613185 0)
(1.10698 0.0106229 0)
(1.0938 0.0156431 0)
(1.08242 0.0211867 0)
(1.07292 0.0268402 0)
(1.06652 0.0306036 0)
(1.06486 0.0323515 0)
(1.06822 0.0333278 0)
(1.0752 0.0338643 0)
(1.08037 0.0329281 0)
(1.06842 0.0311406 0)
(0.982344 0.026095 0)
(0.75438 0.0159928 0)
(0.425703 0.00529708 0)
(0.126976 0.000695608 0)
(0.200257 0.000678871 0)
(0.557974 0.00241185 0)
(0.875642 0.00348704 0)
(1.06773 0.00361843 0)
(1.1278 0.00667435 0)
(1.12791 0.0108542 0)
(1.11351 0.0160828 0)
(1.09963 0.0214419 0)
(1.08718 0.0268303 0)
(1.07569 0.031483 0)
(1.06766 0.0353007 0)
(1.06486 0.0377045 0)
(1.0664 0.0382556 0)
(1.07314 0.0374049 0)
(1.07869 0.0368928 0)
(1.06045 0.0342624 0)
(0.961886 0.0280093 0)
(0.723207 0.0169587 0)
(0.399595 0.00567065 0)
(0.116294 0.000713849 0)
(0.206879 0.000888341 0)
(0.565224 0.00356117 0)
(0.87978 0.00591952 0)
(1.07278 0.00779017 0)
(1.13498 0.011391 0)
(1.13608 0.0162074 0)
(1.12127 0.0218007 0)
(1.10635 0.0278026 0)
(1.09267 0.0340924 0)
(1.08058 0.0402711 0)
(1.07159 0.0444266 0)
(1.067 0.0451354 0)
(1.06787 0.044945 0)
(1.07355 0.0442574 0)
(1.07445 0.0420929 0)
(1.05119 0.0384406 0)
(0.940511 0.0309383 0)
(0.690427 0.0183752 0)
(0.372232 0.00618669 0)
(0.105039 0.000747316 0)
(0.215336 0.00105898 0)
(0.576236 0.00482793 0)
(0.887913 0.00910408 0)
(1.08055 0.0123639 0)
(1.14365 0.0171159 0)
(1.14517 0.0227261 0)
(1.12946 0.0294304 0)
(1.11356 0.0361984 0)
(1.09867 0.0429198 0)
(1.08397 0.0482999 0)
(1.07139 0.0511371 0)
(1.06586 0.0523163 0)
(1.06529 0.0519063 0)
(1.06927 0.0498809 0)
(1.0708 0.0481352 0)
(1.03886 0.0433013 0)
(0.913255 0.0339538 0)
(0.652989 0.0200354 0)
(0.341873 0.00669381 0)
(0.092699 0.000757566 0)
(0.228054 0.0014333 0)
(0.595459 0.00680076 0)
(0.903772 0.0135885 0)
(1.09184 0.0188304 0)
(1.15398 0.0243153 0)
(1.1558 0.0308042 0)
(1.13912 0.0381503 0)
(1.12146 0.0457216 0)
(1.10401 0.0530356 0)
(1.08716 0.0593863 0)
(1.07438 0.0636036 0)
(1.06674 0.0636323 0)
(1.06499 0.061864 0)
(1.06855 0.0594736 0)
(1.06316 0.0556504 0)
(1.02387 0.0492437 0)
(0.884099 0.0382471 0)
(0.612751 0.0221 0)
(0.309355 0.00725592 0)
(0.0796758 0.000766308 0)
(0.243702 0.00197874 0)
(0.618455 0.00856438 0)
(0.924448 0.017912 0)
(1.10736 0.0254241 0)
(1.16677 0.0329715 0)
(1.16808 0.0407293 0)
(1.14964 0.0496151 0)
(1.13015 0.0582123 0)
(1.11096 0.0664676 0)
(1.09174 0.0725764 0)
(1.07407 0.0745359 0)
(1.06421 0.0734291 0)
(1.06098 0.0716225 0)
(1.06108 0.0681929 0)
(1.0564 0.0639724 0)
(1.00518 0.0563451 0)
(0.846817 0.0424262 0)
(0.565442 0.0241718 0)
(0.272825 0.00769616 0)
(0.0655428 0.000749525 0)
(0.266022 0.00282105 0)
(0.652023 0.0124431 0)
(0.95378 0.0250246 0)
(1.1275 0.0353446 0)
(1.1823 0.0438884 0)
(1.18236 0.0537338 0)
(1.16158 0.0637927 0)
(1.13922 0.0734103 0)
(1.11612 0.0816374 0)
(1.09273 0.0872672 0)
(1.07372 0.0893398 0)
(1.06303 0.0883087 0)
(1.05859 0.0846964 0)
(1.05888 0.0802953 0)
(1.04402 0.0742958 0)
(0.981619 0.063948 0)
(0.806048 0.0478339 0)
(0.514634 0.0264263 0)
(0.234209 0.00801494 0)
(0.0511146 0.00072542 0)
(0.297517 0.00376729 0)
(0.697756 0.0155715 0)
(0.993298 0.0332119 0)
(1.1543 0.0471062 0)
(1.20152 0.0588036 0)
(1.19904 0.0706847 0)
(1.17461 0.0823941 0)
(1.14886 0.0926933 0)
(1.12283 0.101233 0)
(1.09695 0.106453 0)
(1.07426 0.107074 0)
(1.05941 0.102998 0)
(1.05224 0.0981597 0)
(1.04787 0.0922009 0)
(1.0322 0.0849695 0)
(0.95343 0.0730048 0)
(0.754389 0.052547 0)
(0.453707 0.0280373 0)
(0.19125 0.00794475 0)
(0.0359562 0.000619625 0)
(0.33416 0.00712236 0)
(0.755704 0.024885 0)
(1.04246 0.0466662 0)
(1.18708 0.0649397 0)
(1.22488 0.0780503 0)
(1.21802 0.093124 0)
(1.18886 0.105854 0)
(1.15885 0.116364 0)
(1.12804 0.123903 0)
(1.09688 0.127193 0)
(1.07026 0.125184 0)
(1.05472 0.120263 0)
(1.04783 0.114346 0)
(1.04328 0.107533 0)
(1.01343 0.0981345 0)
(0.916887 0.0817864 0)
(0.696845 0.0581419 0)
(0.390662 0.029662 0)
(0.148549 0.00768989 0)
(0.0222908 0.0005738 0)
(0.414631 0.010797 0)
(0.843792 0.0357509 0)
(1.10958 0.0678227 0)
(1.22786 0.0906087 0)
(1.25209 0.106957 6.13236e-34)
(1.23801 0.123884 -2.77215e-34)
(1.20225 0.136649 0)
(1.16705 0.146038 0)
(1.13176 0.151829 0)
(1.09718 0.152701 0)
(1.06844 0.148621 0)
(1.04985 0.141103 0)
(1.03879 0.132263 0)
(1.02733 0.12253 0)
(0.992717 0.110559 0)
(0.873912 0.0914201 0)
(0.625323 0.0616404 0)
(0.312931 0.028943 0)
(0.0995475 0.00706039 0)
(0.00742356 0.000743778 0)
(0.48609 0.0259955 4.46034e-20)
(0.9462 0.0603612 -3.38182e-20)
(1.18007 0.102364 0)
(1.26955 0.129729 2.63872e-20)
(1.28098 0.145618 -2.13981e-20)
(1.2576 0.164326 2.92489e-34)
(1.21499 0.175062 0)
(1.17486 0.182195 1.56529e-20)
(1.13454 0.185234 -5.14428e-20)
(1.09471 0.183005 1.052e-20)
(1.06105 0.175318 0)
(1.03949 0.164434 -2.68039e-20)
(1.02885 0.154616 -3.22848e-20)
(1.01606 0.144444 5.6562e-20)
(0.956944 0.128663 -4.46732e-20)
(0.803203 0.100835 0)
(0.522908 0.0639362 -1.60521e-20)
(0.222338 0.0269087 0)
(0.0505962 0.00667735 -8.87591e-20)
(-0.00850822 0.00034534 1.04606e-19)
(0.522503 0.0540452 -5.90086e-21)
(1.01243 0.102666 9.93345e-20)
(1.23245 0.153303 -5.03406e-21)
(1.30429 0.177724 -6.38508e-20)
(1.30642 0.195199 -4.51601e-20)
(1.27397 0.21217 7.34738e-20)
(1.22491 0.220205 0)
(1.17895 0.224731 0)
(1.13289 0.225387 8.16667e-20)
(1.08814 0.220167 0)
(1.05091 0.208864 9.64264e-20)
(1.02857 0.19702 2.8761e-20)
(1.0119 0.184892 5.6613e-22)
(0.98406 0.169219 -6.12684e-20)
(0.913067 0.147858 0)
(0.733871 0.113942 0)
(0.440037 0.065906 -2.61012e-19)
(0.161923 0.024423 6.56378e-19)
(0.0176876 0.00455349 -3.87972e-19)
(-0.0201331 -0.00150717 -4.56914e-19)
(0.529541 0.0773014 -5.29306e-20)
(1.04705 0.160007 2.07081e-20)
(1.26766 0.21352 1.16938e-20)
(1.3309 0.237042 1.10902e-19)
(1.32605 0.25346 1.46368e-20)
(1.28634 0.265751 -1.90951e-19)
(1.23178 0.269625 6.53364e-20)
(1.18072 0.270688 0)
(1.12942 0.267351 -1.72316e-19)
(1.07939 0.258063 1.53598e-19)
(1.03863 0.244662 -2.60164e-19)
(1.01042 0.230029 1.21998e-19)
(0.991784 0.214044 -7.91207e-20)
(0.96604 0.197759 1.7847e-19)
(0.877766 0.172051 0)
(0.683067 0.126534 -6.49341e-20)
(0.389036 0.0690817 0)
(0.137757 0.0238866 3.57458e-19)
(0.00473894 0.00241036 -8.46848e-19)
(-0.0254552 -0.00349952 5.30063e-19)
(0.526799 0.108416 1.35999e-19)
(1.07207 0.218615 -6.07059e-20)
(1.29188 0.279771 -1.33394e-20)
(1.34887 0.302138 0)
(1.33889 0.315654 -8.23257e-20)
(1.29394 0.322908 1.0174e-19)
(1.23463 0.322165 -6.97396e-20)
(1.17855 0.318871 0)
(1.12244 0.311586 1.22355e-19)
(1.06824 0.298508 -1.07852e-19)
(1.02322 0.280655 2.24836e-19)
(0.993678 0.261182 0)
(0.971415 0.244044 -1.6803e-19)
(0.932444 0.223305 9.47311e-20)
(0.843934 0.19001 2.381e-19)
(0.647762 0.140084 -2.09467e-19)
(0.366867 0.0758175 3.30531e-19)
(0.132524 0.0259909 -7.31242e-19)
(0.001037 0.00101232 4.62458e-19)
(-0.028285 -0.00570194 -5.784e-19)
(0.512406 0.132531 -3.94047e-20)
(1.07447 0.270413 2.78089e-20)
(1.30078 0.344229 -4.45855e-20)
(1.35772 0.367749 9.2421e-20)
(1.34463 0.379959 -8.93317e-20)
(1.29613 0.381894 3.16958e-20)
(1.23342 0.376017 3.78929e-21)
(1.17367 0.368275 -1.371e-19)
(1.11333 0.356419 -1.27836e-19)
(1.05439 0.338516 -2.31007e-19)
(1.00568 0.316702 -4.83186e-19)
(0.972309 0.29508 -1.49118e-19)
(0.947773 0.2739 2.23183e-21)
(0.914739 0.251621 -3.23872e-19)
(0.818621 0.217071 -5.00804e-21)
(0.625013 0.15588 3.04568e-19)
(0.360346 0.0850099 -9.13e-20)
(0.135747 0.030714 -5.29024e-20)
(0.00578939 0.000285845 0)
(-0.027372 -0.00691614 1.22869e-18)
(0.497465 0.154178 0)
(1.07363 0.322601 3.68998e-22)
(1.30487 0.409194 -5.8017e-21)
(1.36039 0.432336 -1.2977e-20)
(1.34486 0.442386 8.50053e-20)
(1.29402 0.439989 -7.46274e-20)
(1.22843 0.430081 7.57812e-20)
(1.16518 0.418025 2.25311e-19)
(1.10153 0.40176 -7.10833e-20)
(1.04037 0.379832 1.14033e-19)
(0.988815 0.353692 2.59593e-19)
(0.952488 0.327652 3.25146e-19)
(0.925429 0.305353 -1.95872e-19)
(0.881927 0.279246 3.50662e-19)
(0.790543 0.237184 -2.779e-19)
(0.604856 0.175434 0)
(0.355737 0.0982662 -6.93254e-19)
(0.144376 0.0378072 9.33165e-19)
(0.0153623 0.00260983 6.96338e-20)
(-0.0234911 -0.00723659 -1.29933e-18)
(0.479808 0.173223 -5.15367e-21)
(1.06038 0.36797 -2.40786e-20)
(1.29993 0.468353 4.15853e-20)
(1.35745 0.494016 -6.56057e-20)
(1.34008 0.503999 7.20012e-20)
(1.28734 0.497476 -7.14919e-20)
(1.21985 0.483145 1.49158e-19)
(1.15468 0.466754 -6.68833e-20)
(1.08856 0.446079 -2.86555e-19)
(1.0231 0.41938 -2.64434e-22)
(0.966531 0.388706 -2.82458e-19)
(0.927285 0.360216 -3.50147e-19)
(0.89992 0.334791 2.16621e-19)
(0.863601 0.307252 -1.26105e-19)
(0.768267 0.265969 3.02554e-19)
(0.589869 0.193708 0)
(0.355167 0.113063 -4.31102e-19)
(0.153841 0.0465092 6.36742e-19)
(0.0257467 0.00645823 1.204e-18)
(-0.0187556 -0.00683176 -1.41605e-18)
(0.467066 0.191769 -1.0495e-19)
(1.05163 0.415143 4.72687e-20)
(1.29404 0.52769 -2.16774e-20)
(1.35096 0.553704 6.71055e-20)
(1.33202 0.562114 1.22236e-20)
(1.27821 0.552059 -1.39065e-19)
(1.20912 0.534485 -8.70235e-20)
(1.14163 0.514446 -8.65361e-20)
(1.07261 0.490018 -1.62476e-19)
(1.00455 0.459507 2.61184e-19)
(0.946282 0.425046 2.85016e-19)
(0.906401 0.393088 5.55552e-19)
(0.875651 0.366024 0)
(0.830251 0.335707 6.44359e-21)
(0.742659 0.285549 -8.32361e-19)
(0.574169 0.21467 1.95604e-19)
(0.353728 0.128006 9.36353e-19)
(0.162552 0.0564958 -2.76332e-19)
(0.0362891 0.0115194 5.73009e-19)
(-0.0135199 -0.00566927 -4.7748e-20)
(0.45397 0.208065 5.867e-21)
(1.0351 0.454878 6.52763e-20)
(1.28294 0.580888 -2.63485e-21)
(1.34136 0.609819 6.14395e-20)
(1.32114 0.618457 -1.30836e-19)
(1.26608 0.605161 1.371e-19)
(1.19566 0.584043 9.00083e-20)
(1.1267 0.560368 2.57641e-19)
(1.05561 0.532287 3.24899e-19)
(0.984687 0.497591 -3.03086e-19)
(0.923329 0.45875 0)
(0.880331 0.424149 -2.10777e-19)
(0.849123 0.393745 2.41996e-19)
(0.811536 0.361772 3.05871e-19)
(0.721411 0.314526 -1.77084e-19)
(0.559981 0.233039 -4.29912e-19)
(0.351855 0.143709 -1.27997e-19)
(0.16957 0.0669229 -2.03259e-21)
(0.0454156 0.0172269 0)
(-0.00867132 -0.00414035 0)
(0.44626 0.225071 -9.04491e-20)
(1.02482 0.49707 0)
(1.27242 0.634211 1.30017e-20)
(1.32982 0.664001 -1.83198e-20)
(1.30846 0.671148 1.51311e-19)
(1.2528 0.654924 -3.78708e-20)
(1.18128 0.631278 9.14969e-20)
(1.11069 0.604741 -1.7396e-19)
(1.03787 0.573512 2.46444e-19)
(0.965615 0.53543 -1.00588e-19)
(0.902584 0.493013 1.63653e-19)
(0.858285 0.455966 6.69444e-19)
(0.825475 0.423297 1.43007e-20)
(0.779075 0.387984 -3.19488e-19)
(0.696727 0.331563 5.9137e-19)
(0.543702 0.253726 3.35413e-21)
(0.347545 0.158224 1.36939e-19)
(0.173849 0.0774119 -6.52715e-19)
(0.0522684 0.0227584 6.72542e-19)
(-0.00463605 -0.00255196 -7.92147e-19)
(0.438133 0.240594 2.54428e-23)
(1.00979 0.532455 0)
(1.25874 0.681336 0)
(1.31668 0.714403 3.98729e-21)
(1.29444 0.721754 -4.30937e-20)
(1.23782 0.702987 6.30774e-20)
(1.1654 0.676511 -1.68476e-19)
(1.09415 0.646965 0)
(1.01996 0.612776 -3.63849e-19)
(0.944517 0.571213 4.39698e-19)
(0.878132 0.525406 4.68711e-19)
(0.831616 0.484551 -2.45841e-19)
(0.798499 0.447876 -2.98277e-19)
(0.760774 0.410837 6.99771e-19)
(0.675325 0.358694 -2.10439e-19)
(0.527425 0.269637 -2.50567e-19)
(0.341281 0.172103 -1.49743e-19)
(0.174911 0.0865281 -7.05728e-19)
(0.0565973 0.0275754 1.03452e-19)
(-0.00153716 -0.00110413 8.58221e-19)
(0.432858 0.257876 -4.32797e-20)
(0.999839 0.570262 -5.86216e-20)
(1.24622 0.728663 2.3827e-20)
(1.30259 0.762951 -2.05932e-22)
(1.27956 0.768915 -4.9872e-20)
(1.22268 0.747732 9.81792e-20)
(1.14978 0.71921 0)
(1.07743 0.687454 1.05787e-19)
(1.00154 0.650946 -8.34136e-20)
(0.924665 0.606721 7.34763e-19)
(0.857232 0.557573 -1.05626e-19)
(0.809565 0.513414 1.21864e-19)
(0.774867 0.475687 0)
(0.72825 0.434425 -3.79102e-19)
(0.650211 0.371375 4.59437e-19)
(0.509418 0.287423 0)
(0.332235 0.183343 -3.22348e-19)
(0.173253 0.0943388 9.48977e-19)
(0.0584745 0.0314299 1.1281e-19)
(0.000581403 3.73597e-05 -1.05854e-18)
(0.428811 0.27512 -1.06954e-19)
(0.987004 0.602253 1.35528e-19)
(1.23166 0.770097 0)
(1.288 0.80757 2.85813e-20)
(1.26443 0.813799 0)
(1.20687 0.790666 -1.30828e-19)
(1.13335 0.759929 0)
(1.06046 0.725797 0)
(0.983366 0.686963 -1.11625e-19)
(0.903815 0.639989 -6.98742e-19)
(0.832939 0.588157 -8.67207e-19)
(0.782561 0.540558 1.43055e-19)
(0.746736 0.497072 5.17105e-19)
(0.709585 0.453255 4.18087e-19)
(0.628084 0.395116 -1.47493e-18)
(0.491784 0.298482 -5.89037e-19)
(0.322114 0.19364 3.4547e-19)
(0.16945 0.100133 0)
(0.0583299 0.0341672 9.70003e-19)
(0.00178618 0.000815212 -1.14179e-18)
(0.426782 0.290697 1.25895e-19)
(0.978526 0.636423 -1.56032e-19)
(1.21867 0.812044 0)
(1.27319 0.850522 -1.13977e-20)
(1.24899 0.855569 -5.88991e-21)
(1.19131 0.830532 0)
(1.11756 0.798176 5.22241e-20)
(1.04377 0.762324 7.42175e-20)
(0.965121 0.721842 -2.09214e-19)
(0.884042 0.673095 9.23467e-20)
(0.811481 0.618409 0)
(0.759966 0.566941 5.93219e-19)
(0.723105 0.522542 6.19345e-21)
(0.676373 0.473709 2.2572e-19)
(0.602841 0.401828 2.67598e-19)
(0.472643 0.311548 0)
(0.310527 0.200389 -5.62364e-19)
(0.163742 0.104536 1.10237e-18)
(0.0570009 0.0356591 -1.1716e-18)
(0.00216507 0.0013252 2.46017e-18)
(0.424951 0.30549 0)
(0.967279 0.664988 0)
(1.20444 0.848259 -7.73023e-20)
(1.25853 0.889622 0)
(1.23389 0.895047 0)
(1.17564 0.868556 -1.03799e-19)
(1.10138 0.834507 5.34139e-20)
(1.02716 0.796862 1.79056e-20)
(0.947505 0.754622 -4.75597e-20)
(0.864061 0.703816 0)
(0.788076 0.647054 -1.32731e-19)
(0.732897 0.59268 -4.83966e-19)
(0.693295 0.541266 -5.83555e-19)
(0.656701 0.487439 -2.3487e-19)
(0.580145 0.421159 2.89827e-19)
(0.454378 0.31569 -6.82572e-19)
(0.300043 0.205278 1.20975e-18)
(0.157807 0.10611 1.52611e-21)
(0.0549836 0.0368598 -1.11897e-18)
(0.00245621 0.00204086 -1.65951e-19)
(0.423784 0.319502 0)
(0.959717 0.695895 -1.25827e-19)
(1.19201 0.885263 9.34396e-20)
(1.24399 0.927381 0)
(1.21871 0.931805 0)
(1.16037 0.903841 2.05982e-19)
(1.08609 0.868563 0)
(1.01125 0.829608 0)
(0.930297 0.786309 -4.60056e-19)
(0.845221 0.734527 1.28864e-19)
(0.766591 0.675686 -1.17721e-18)
(0.709551 0.617275 0)
(0.669121 0.564508 -6.35951e-19)
(0.621566 0.504604 9.97089e-21)
(0.553648 0.419914 -9.33814e-19)
(0.435426 0.321341 3.6698e-19)
(0.289871 0.204501 1.22626e-21)
(0.155846 0.104717 -1.26304e-18)
(0.0544412 0.0349922 6.01982e-19)
(0.000648307 -0.00044268 1.77489e-19)
(0.422376 0.33331 0)
(0.949835 0.721702 -1.69783e-19)
(1.17869 0.916841 9.82922e-20)
(1.22989 0.961503 1.39119e-19)
(1.20422 0.966351 -5.09542e-21)
(1.14543 0.9373 2.035e-20)
(1.07084 0.900775 -2.98729e-20)
(0.995754 0.860585 4.33572e-19)
(0.913892 0.816017 4.92129e-19)
(0.826508 0.762889 9.80348e-19)
(0.744497 0.702653 9.78073e-19)
(0.682713 0.642425 1.72449e-19)
(0.637004 0.581455 9.14566e-19)
(0.599422 0.513241 5.65552e-19)
(0.528298 0.433335 6.70032e-19)
(0.417013 0.314561 -4.01416e-19)
(0.280274 0.197329 -4.61426e-19)
(0.15791 0.102787 5.44785e-19)
(0.0634593 0.0443433 -3.23619e-19)
(0.00874899 0.0099283 5.75488e-19)
(0.421407 0.346619 2.36611e-19)
(0.943261 0.74985 2.66236e-19)
(1.16713 0.949617 5.62059e-20)
(1.21609 0.994665 1.54347e-20)
(1.1898 0.998576 -1.79222e-20)
(1.13104 0.968382 -5.67407e-20)
(1.05663 0.930979 2.846e-20)
(0.981115 0.889823 -1.90473e-20)
(0.898059 0.844636 -5.73794e-19)
(0.809074 0.791184 -1.06445e-18)
(0.724028 0.729784 6.79003e-20)
(0.659005 0.665883 0)
(0.612144 0.603638 0)
(0.560285 0.529001 -2.9534e-19)
(0.496595 0.422666 -1.09957e-18)
(0.396318 0.307988 8.6477e-19)
(0.279617 0.179483 5.05908e-19)
(0.171271 0.0809693 0)
(0.0811134 0.0134987 1.03568e-18)
(0.00248964 -0.0175523 -6.13e-19)
(0.4202 0.359569 -1.25597e-19)
(0.93459 0.773013 1.10652e-19)
(1.15478 0.977176 -1.34027e-19)
(1.20288 1.0244 -1.13498e-19)
(1.17632 1.02872 -2.21051e-20)
(1.11725 0.997695 -1.81515e-20)
(1.04268 0.95939 0)
(0.966998 0.917469 -5.45421e-19)
(0.883091 0.871402 6.92107e-20)
(0.791931 0.817168 0)
(0.70369 0.75552 0)
(0.632995 0.691455 1.10742e-19)
(0.577388 0.620725 1.48907e-19)
(0.53341 0.534369 -3.19655e-19)
(0.464271 0.432151 7.8897e-19)
(0.369346 0.285848 -9.42862e-19)
(0.264741 0.154054 -1.08618e-18)
(0.195285 0.0706358 9.62569e-19)
(0.151516 0.0679684 -3.68056e-19)
(0.109765 0.0745582 2.14106e-19)
(0.419369 0.371667 1.55449e-19)
(0.928806 0.798387 0)
(1.14411 1.00626 0)
(1.19006 1.05352 -3.19825e-20)
(1.16298 1.05691 2.5891e-20)
(1.10402 1.02497 -1.97727e-20)
(1.02974 0.98607 1.31101e-19)
(0.953723 0.943441 5.57811e-19)
(0.868777 0.897097 1.04208e-18)
(0.776265 0.843072 -8.06406e-20)
(0.685036 0.781209 1.67254e-19)
(0.60995 0.714067 -9.92634e-19)
(0.552437 0.64344 -9.92365e-19)
(0.4882 0.55287 -1.72068e-19)
(0.417561 0.414191 0)
(0.334499 0.273684 -4.23853e-21)
(0.247887 0.0796485 6.00049e-19)
(0.242007 -0.0340734 -1.00668e-18)
(0.209259 -0.111188 7.64786e-19)
(0.0884319 -0.100139 6.32776e-19)
(0.418104 0.383516 -3.42572e-19)
(0.920888 0.818852 -1.53897e-19)
(1.1326 1.03028 6.89873e-21)
(1.17779 1.07955 6.23506e-20)
(1.1505 1.08343 0)
(1.0913 1.05093 -4.41421e-20)
(1.01688 1.01145 -1.90809e-19)
(0.940707 0.968536 -2.2758e-21)
(0.855045 0.921791 -5.45975e-19)
(0.760518 0.867517 -7.92485e-20)
(0.666073 0.806498 7.36101e-20)
(0.58508 0.74188 8.72277e-19)
(0.514318 0.664054 9.67855e-19)
(0.454651 0.558317 1.68196e-19)
(0.37608 0.431455 8.57402e-19)
(0.272408 0.237341 0)
(0.146261 0.0603967 0)
(-0.0125345 0.173641 6.87136e-19)
(-0.0786734 0.629625 -2.6922e-20)
(0.00983118 1.54523 -8.53982e-19)
(0.417319 0.394577 1.8881e-19)
(0.91571 0.841863 4.35107e-19)
(1.1227 1.0565 -6.03139e-19)
(1.16578 1.10567 3.08467e-19)
(1.13794 1.10882 -1.15893e-20)
(1.07879 1.0758 6.08503e-21)
(1.00463 1.03618 0)
(0.928124 0.993043 -4.64423e-19)
(0.841523 0.946679 0)
(0.745671 0.893448 1.1132e-18)
(0.648022 0.833423 -9.04116e-20)
(0.561652 0.766653 1.01381e-19)
(0.48926 0.692286 1.11627e-18)
(0.399554 0.591319 -3.65525e-19)
(0.286385 0.414443 -4.35078e-19)
(0.182371 0.286647 0)
(0.0737385 0.457518 0)
(0.024192 1.36268 0)
(0.0710787 2.47418 -3.89885e-19)
(0.0971934 2.91596 -2.40982e-19)
(0.415774 0.405179 0)
(0.908341 0.859849 0)
(1.11191 1.07755 2.19441e-19)
(1.15434 1.12882 -2.51244e-19)
(1.12628 1.13272 1.17928e-19)
(1.06687 1.0995 3.26069e-21)
(0.992539 1.05975 2.5148e-20)
(0.915926 1.01698 -1.95794e-20)
(0.828739 0.970955 7.77159e-20)
(0.730976 0.918301 -1.27765e-18)
(0.630057 0.860278 1.63598e-19)
(0.538271 0.799631 8.78571e-19)
(0.44743 0.722175 -1.1115e-18)
(0.361304 0.598811 -1.22887e-18)
(0.263446 0.470831 4.12576e-19)
(0.179528 0.618454 0)
(0.112504 1.58984 5.60258e-19)
(0.117668 2.70165 6.03569e-19)
(0.125064 3.0907 -6.74241e-19)
(0.11785 3.2235 7.1744e-19)
(0.414764 0.415504 0)
(0.903704 0.880581 3.79954e-19)
(1.1028 1.10121 -5.49875e-20)
(1.1432 1.15228 3.4638e-19)
(1.11456 1.15562 -1.23786e-19)
(1.0552 1.12223 0)
(0.981156 1.08275 0)
(0.904284 1.04015 0)
(0.816346 0.995105 4.34349e-19)
(0.71752 0.944373 5.86655e-20)
(0.613699 0.888615 0)
(0.515867 0.82643 -8.73057e-19)
(0.429205 0.754852 0)
(0.304881 0.643618 8.79226e-19)
(0.199328 0.692004 -5.96527e-19)
(0.143987 1.46683 -4.77519e-19)
(0.148405 2.68814 -1.09638e-18)
(0.172027 3.12601 -5.75725e-19)
(0.162629 3.26515 -7.72607e-19)
(0.149793 3.30534 5.60446e-19)
(0.413127 0.424801 -1.32111e-19)
(0.896765 0.896104 1.47612e-20)
(1.09272 1.11945 -6.09123e-20)
(1.13267 1.17275 -2.68724e-19)
(1.10383 1.17711 0)
(1.04423 1.14382 0)
(0.970024 1.10452 0)
(0.893129 1.06281 3.28802e-20)
(0.804779 1.0187 -5.49437e-19)
(0.704325 0.969316 0)
(0.597664 0.916501 0)
(0.497512 0.863282 0)
(0.385167 0.787487 0)
(0.308714 0.73613 6.46502e-19)
(0.264938 1.13743 1.58461e-18)
(0.2376 2.40176 4.64533e-19)
(0.25508 3.08137 9.28382e-19)
(0.249681 3.2783 -7.10835e-19)
(0.201543 3.34365 2.59747e-19)
(0.169955 3.35689 0)
(0.411958 0.43397 1.35677e-19)
(0.892505 0.915301 -8.40374e-19)
(1.0842 1.14151 -2.26916e-19)
(1.12219 1.19448 -5.04087e-20)
(1.09276 1.19836 2.87274e-20)
(1.03325 1.16514 -1.16146e-19)
(0.95939 1.12643 -4.46357e-22)
(0.882323 1.08513 -3.58869e-19)
(0.793441 1.04241 0)
(0.692409 0.995677 -7.5404e-20)
(0.584032 0.946359 6.85964e-20)
(0.47783 0.890879 0)
(0.382813 0.8284 0)
(0.32103 0.9289 -8.10145e-19)
(0.265593 1.85188 1.01886e-19)
(0.262064 2.94491 -3.49486e-19)
(0.287234 3.28129 7.30555e-19)
(0.258522 3.37949 5.22284e-19)
(0.194209 3.40411 -7.05373e-19)
(0.169866 3.41435 3.47741e-19)
(0.409868 0.443393 2.65576e-19)
(0.884927 0.930054 8.17184e-19)
(1.07362 1.159 2.73111e-19)
(1.11147 1.21453 0)
(1.08194 1.21967 0)
(1.02229 1.1866 8.99974e-20)
(0.948375 1.14808 5.16717e-20)
(0.871506 1.10791 3.19451e-19)
(0.782547 1.06643 2.12143e-20)
(0.680423 1.02153 9.59866e-19)
(0.570115 0.975519 -1.14636e-18)
(0.459146 0.926258 0)
(0.37983 0.908149 0)
(0.333136 1.30617 -5.52975e-19)
(0.32816 2.49615 -6.63529e-19)
(0.373208 3.19377 0)
(0.398423 3.36157 -7.37776e-19)
(0.327601 3.42454 5.12565e-20)
(0.259462 3.47022 3.38031e-19)
(0.237413 3.49572 -1.09553e-19)
(0.408063 0.453142 -5.0451e-19)
(0.880092 0.951309 -3.91901e-19)
(1.06405 1.18344 0)
(1.09976 1.238 0)
(1.0697 1.24232 0)
(1.01033 1.20919 0)
(0.937031 1.17124 -6.2689e-20)
(0.860245 1.13129 2.77692e-19)
(0.771158 1.0912 0)
(0.669261 1.0492 -8.73572e-19)
(0.55924 1.00711 2.05777e-18)
(0.448542 0.965119 8.44543e-20)
(0.395868 1.02833 1.14048e-19)
(0.384764 1.74071 9.00883e-19)
(0.395422 2.90139 -4.8435e-19)
(0.435582 3.31294 0)
(0.41859 3.43425 2.07429e-19)
(0.332756 3.52346 9.1118e-20)
(0.259206 3.58779 1.49093e-19)
(0.183702 3.56725 -1.62806e-20)
(0.405071 0.463438 2.39647e-19)
(0.870505 0.96696 -3.98467e-19)
(1.05141 1.20193 0)
(1.08739 1.25951 -7.38226e-20)
(1.05741 1.26525 2.55136e-19)
(0.998068 1.23207 0)
(0.924941 1.19401 0)
(0.848763 1.15523 -4.81222e-19)
(0.760135 1.11637 -5.5604e-20)
(0.658052 1.07628 8.57074e-19)
(0.544377 1.03702 -9.77585e-19)
(0.451968 1.01605 5.75788e-19)
(0.412311 1.21834 0)
(0.419941 2.18615 -4.77786e-19)
(0.461775 3.14205 3.13242e-19)
(0.526968 3.41462 1.96516e-19)