/*--------------------------------*- C++ -*----------------------------------*\
| =========                 |                                                 |
| \\      /  F ield         | OpenFOAM: The Open Source CFD Toolbox           |
|  \\    /   O peration     | Version:  4.0                                   |
|   \\  /    A nd           | Web:      www.OpenFOAM.org                      |
|    \\/     M anipulation  |                                                 |
\*---------------------------------------------------------------------------*/
FoamFile
{
    version     2.0;
    format      ascii;
    class       surfaceScalarField;
    location    "4";
    object      phi;
}
// * * * * * * * * * * * * * * * * * * * * * * * * * * * * * * * * * * * * * //

dimensions      [0 3 -1 0 0 0 0];

internalField   nonuniform List<scalar> 
1300
(
3.75095
5.62643
-6.49542
3.75095
-6.35727
5.62643
-5.7755
5.7755
-1.69476
1.69476
1.88098
1.86998
-5.63653
5.63653
-5.50217
5.50217
-3.01849
3.01849
-5.24648
5.24648
-5.09991
5.09991
4.66286
-4.66286
-5.23227
5.23227
-2.18003
2.18003
-6.18242
6.18242
3.1596
-3.1596
-5.54897
5.54897
-0.671483
0.671483
-0.565886
4.31684
3.18507
3.18507
-2.80702
2.80702
-4.84906
4.84906
6.22779
-6.22779
9.766
-9.766
-3.27059
-3.31662
1.34891
-8.0854
-5.00836
-5.00836
-8.44027
8.44027
-2.81384
2.81259
3.15971
-3.15971
-1.34471
1.34471
-5.4233
-0.352205
-5.4233
6.13319
-0.357692
6.13319
-1.81419
0.119431
-1.81419
4.39611
-4.39611
1.55559
0.13917
1.55559
3.14074
-3.14074
-1.88405
3.76503
1.8669
-1.84912
6.16596
-1.90183
3.77181
-4.97639
4.97639
-5.70193
0.0653994
-5.70193
5.58561
0.0509274
5.58561
-5.40699
5.40699
-5.53904
0.0368631
-5.53904
5.50711
-0.00493236
5.50711
3.20474
-3.20474
-3.04253
0.0240386
-3.04253
2.99519
0.0233014
2.99519
0.35334
5.27309
-5.97977
8.79236
-5.27309
0.0266076
5.20783
0.0386516
5.20783
-5.11862
0.0187112
-5.11862
5.06678
0.0331218
5.06678
4.61088
0.0519777
4.61088
-4.82984
0.166981
-4.82984
-3.29675
-3.25711
-5.32768
0.0954109
-5.32768
-2.18124
0.00120936
-2.18124
2.13131
0.0487225
2.13131
-3.86016
3.86016
-6.43389
0.251468
-6.43389
3.07814
0.0814617
3.07814
1.86057
1.89038
5.61153
-5.61153
2.45192
-5.54253
-0.00643768
-5.54253
-5.54173
-4.22427
5.54173
0.00723637
-1.17011
0.498626
-1.17011
3.14144
0.0436242
3.14144
2.96378
0.0314119
-2.96378
0.156762
3.62665
-3.62665
2.1243
0.682722
2.1243
-5.56326
5.56326
4.99655
0.070229
-4.99655
0.147495
6.16385
0.063942
6.16385
-6.20818
-0.0196116
-6.20818
3.31794
-6.63456
-3.29673
5.10793
0.124344
-5.10793
0.099568
3.19008
-0.0303678
3.19008
-3.11083
3.11083
-3.15985
0.000135273
-3.15985
-1.46415
0.119438
-1.46415
1.51409
-0.169377
1.51409
-4.98834
-0.434956
-4.98834
-6.38697
-0.046921
6.38697
-0.253778
2.87785
-2.87785
-1.95242
0.138228
-1.95242
-4.61732
-0.371021
4.61732
-0.221212
-4.17037
-0.225737
-4.17037
-3.13816
-0.0216862
3.13816
0.00258091
3.12195
0.0194918
-3.12195
-0.018791
-1.87457
3.76495
-1.87639
3.74329
-4.74016
-0.236228
-4.74016
5.05668
-0.0802914
5.05668
5.90304
0.279385
-5.90304
0.201107
5.51913
0.0664738
5.51913
-5.36133
-0.0456602
-5.36133
5.43835
-0.0313598
5.43835
5.54081
-0.021678
-5.54081
0.00177329
5.52319
-0.0160883
5.52319
3.26878
-0.0640333
3.26878
-3.19021
-0.0145354
-3.19021
3.11633
-3.11633
3.09913
0.0172028
-3.09913
0.0565967
-11.1275
11.1079
-0.0378201
-11.0897
5.17001
5.17001
3.63653
0.974354
3.63653
-5.02374
0.193901
-5.02374
3.28539
-6.58212
3.27059
-6.56734
3.30008
-11.3855
3.31237
-6.56948
5.45151
-5.45151
5.38495
0.066558
-5.38495
0.0572663
-2.17529
-0.00594831
-2.17529
-3.719
-0.141161
-3.719
4.07841
-0.218241
4.07841
-3.12283
3.12283
-3.10021
-0.0226155
3.10021
-0.0220731
5.50495
0.0182456
-5.50495
-0.0375805
1.39959
0.155996
-1.39959
0.229486
3.79603
-0.169378
3.79603
-3.45678
-0.169875
-3.45678
-2.16061
-0.0146812
2.16061
-0.0363136
-5.80925
0.245993
-5.80925
-11.1884
0.098673
-11.1497
-6.10951
-6.10951
2.33076
11.1231
-3.17544
-0.0147699
3.17544
0.014643
3.13657
-0.0137424
-3.13657
0.0257454
-3.11234
-0.00398698
3.11234
-0.00151746
-1.74916
0.285014
-1.74916
-2.27077
2.27077
-1.87332
-0.397453
1.87332
-0.359228
3.0645
-0.186649
3.0645
2.06783
0.0634808
-2.06783
0.115408
-4.04965
-0.120721
-4.04965
5.17119
-0.114508
5.17119
-3.34332
-0.113452
3.34332
-0.0745475
-0.0313262
11.1392
-5.13869
0.0200682
5.13869
-11.2032
11.2233
-2.51681
0.767651
2.51681
1.11971
5.29288
0.270381
-5.29288
0.269137
5.46917
-0.0308222
-5.46917
0.0176588
-3.53905
-0.179959
-3.53905
-4.37683
-0.363325
4.37683
-0.298428
-11.4224
-0.207327
11.6297
-11.3892
6.01658
0.147269
-6.01658
11.3705
-2.60268
-0.275165
2.60268
-0.331914
3.1831
-0.118607
3.1831
3.9376
-0.14157
-3.9376
-0.112052
-5.31461
-0.0467175
5.31461
-0.143423
-3.34732
-0.191726
3.34732
-0.164217
-4.17547
4.21909
1.9905
-3.32443
-3.31013
-7.5487
1.7996
1.96534
4.25153
-6.9997
-4.38578
-6.90013
7.35556
-7.08643
-9.44526
9.49724
7.16472
-7.39045
-5.81878
5.79671
6.4019
-6.39932
1.84669
1.91833
10.6607
-10.5953
-10.1937
9.95743
10.2161
-10.1792
10.5339
-10.5795
-12.17
12.1392
-5.68329
5.70733
-6.61162
6.59708
-6.68196
6.60741
-3.24213
-3.32521
9.04852
-8.9531
11.6652
-11.6716
-11.2615
11.513
3.29933
0.919758
3.31883
-1.92093
3.76762
-1.85088
3.84137
3.29353
-6.53566
3.28859
-6.59872
5.98748
5.67769
-5.99471
-1.55399
-5.87837
5.848
-5.79539
5.79387
10.0215
-10.3737
-1.86967
3.788
-1.87362
3.83896
-3.3886
-2.43018
3.30714
0.94439
5.52834
3.52018
-5.65268
-1.24745
-7.54043
7.39886
-7.7839
7.61403
-0.574459
5.85181
-5.27735
4.2746
-1.4859
7.33772
5.86966
6.06356
5.88439
-5.61401
1.20204
-6.47939
-6.3319
-2.63763
2.77586
2.67489
-2.53572
5.85049
1.31423
5.62928
-5.44462
-1.94583
-5.56534
3.85835
1.93836
3.83574
4.08562
2.31628
4.06393
3.06069
-3.06638
0.00569319
-3.07479
6.13548
0.721621
-5.50497
-4.56058
6.98341
3.67728
7.03434
-7.22796
-3.36734
-7.02685
-6.03077
-4.16288
-6.39409
6.44414
3.51328
6.36385
-7.89463
7.7512
6.7362
3.47989
6.73127
-6.81606
-3.36317
-6.81428
10.2317
-2.63805
-7.59362
-6.79486
-5.37515
6.82622
3.70764
7.43977
4.69942
7.45743
3.51715
6.71452
-7.22479
1.84964
-3.82076
-1.86253
-3.76417
3.65234
2.05498
3.67564
-4.17022
-2.4414
-4.18499
-4.19309
-2.48887
4.25712
2.33996
-4.25502
-3.52889
4.36847
2.23894
2.98387
-7.36965
3.5856
-6.91082
-6.27807
-2.67504
-6.2208
3.96209
2.55843
-6.52052
-2.57357
10.7263
-5.04859
9.17229
-7.23099
-4.44062
-7.26857
-8.59842
-2.66313
-8.64534
-5.48645
5.30649
-5.51873
5.30049
10.3698
-5.67185
-4.69797
-3.85782
-2.54151
3.87661
-0.557781
-3.80822
3.81391
-0.0405961
3.80078
4.72054
4.16276
-3.85549
-1.9399
-3.82974
3.84181
1.95206
3.83782
8.35646
1.66506
7.99877
-6.7389
-3.63483
-7.17385
6.56924
-6.4498
2.98815
-3.00283
5.05363
2.56039
-4.88426
-2.65618
5.90582
-2.89141
-3.01441
-12.3125
11.2224
1.09009
-4.97474
-0.700142
-0.0286586
-5.6601
-3.78517
5.49311
0.570449
11.7928
8.00765
-5.50005
5.74604
6.12963
6.19986
-0.132035
4.82975
-4.0621
3.01243
-1.34722
-1.66522
5.35217
-5.72319
-1.82169
-5.12998
3.3083
-0.0939071
2.39994
-1.90132
-2.12768
-0.509943
-2.01228
1.69823
0.976661
1.85423
0.957201
1.81865
-2.83557
0.597635
2.23794
-1.87837
-1.93809
-3.38863
-0.9743
4.36293
5.42091
1.97796
-5.30886
-0.256484
2.80096
-2.75223
-0.639273
-2.74936
2.03447
-2.67374
-3.23823
-1.89172
5.12996
-3.34469
-0.485052
3.35843
0.477302
-3.76699
-2.11138
3.76686
0.297079
-3.00616
6.07614
-3.06997
-4.94606
2.59622
3.53926
4.53458
-4.73928
2.39041
2.34887
-1.20002
6.00699
1.02735
6.07346
-9.09126
5.72392
7.66596
3.84706
-7.94535
0.918496
-8.17276
9.58336
-8.35646
-1.2269
4.99211
4.59125
5.16001
5.20982
-3.77052
8.93052
-1.24756
-7.10891
9.42032
-5.57327
5.7254
-11.2987
-10.9352
3.82631
-6.70939
8.38807
-1.67869
-2.49477
-5.39985
9.20416
-0.84949
-8.35467
5.51436
-5.30231
-5.32026
10.6226
-7.94036
8.68343
-2.53734
-6.14609
-6.60434
-3.97518
6.65106
1.10014
-9.75258
11.6022
-3.03806
5.85795
0.873324
5.84186
3.8102
-5.89078
2.08058
4.13016
-6.6675
2.48187
-8.37265
-4.75673
9.44931
-4.69258
-7.43177
-6.51808
-0.913691
2.04638
9.55583
-6.74581
5.21489
1.53091
3.32151
0.516313
-3.33871
-0.425456
0.326256
4.36326
-4.68951
4.0019
4.03331
3.37417
0.989082
3.82588
2.02213
-3.84052
-0.344464
-3.91933
1.43047
-1.57938
-3.41001
4.84048
-3.80174
0.391731
-2.64858
-3.45028
6.09886
-4.51111
3.03116
3.04497
4.98323
-4.74152
1.29124
-2.37829
-2.36323
2.51051
-4.08988
1.89066
2.94982
4.1296
0.600716
4.80687
4.64244
-7.36531
0.454492
8.16261
-6.91516
1.63607
5.82136
-6.85096
0.332883
-5.88792
1.12696
-6.17554
-5.39357
6.07335
-8.73648
-5.22532
7.88462
0.114154
-7.63084
-1.0145
-3.83636
-1.65008
-4.02809
-1.61553
-3.9032
-5.38605
-1.26213
-4.12392
4.04436
-4.1428
-2.2513
4.44122
0.859264
-4.87109
4.59592
-4.68015
4.56154
0.180052
3.63386
4.34281
1.8013
-2.43384
4.23514
-6.81717
8.48223
-9.64292
2.82575
3.1387
-6.77353
-6.50422
3.76225
2.80699
3.59288
6.35513
-8.35626
2.00113
-6.88178
7.68241
-0.800635
-10.4811
3.5993
-4.12595
2.75878
0.22937
2.75283
0.718067
2.31641
-3.03448
-2.28476
-2.32108
-2.19404
-3.16661
5.36066
1.05432
-3.21358
2.15926
-3.19899
4.25331
-0.192269
-3.02131
5.12576
-2.80935
5.35513
-3.39126
1.96387
3.09648
5.21535
-2.11887
4.13858
-1.57819
1.68421
-3.80308
-1.4824
-2.91785
4.97284
-3.18101
3.57274
-0.283326
3.85607
-3.93913
1.04772
-0.564953
3.46836
3.62512
4.04748
-3.0584
2.77001
-4.3482
-1.03307
-3.74749
-0.797665
-3.0199
-4.09752
7.11743
4.81185
-7.83175
-4.76423
7.23017
-2.46594
6.09927
-5.29775
-0.801522
-3.21664
-3.23317
2.93162
1.89813
7.9974
-0.364749
-4.933
-4.42685
-3.30714
2.29421
0.718227
-3.31678
4.40687
3.34544
-0.945495
0.515099
1.33913
1.94942
-1.43433
0.332706
1.61672
-1.56861
2.06383
0.73713
-2.12731
0.115032
-1.18484
3.21931
1.0531
-2.02976
0.595433
1.29283
-2.64005
4.10688
-1.67132
-2.43556
5.39971
1.48807
-3.15939
3.64191
-3.73582
2.10608
-3.08038
-1.0533
-4.78912
-3.4749
-2.33917
4.49843
-3.02148
4.99944
1.2602
-4.74295
6.00315
-3.36947
1.47775
-2.84951
3.58664
-0.883836
-1.96568
2.58878
2.54118
-2.70614
-0.0432177
-0.117366
2.14171
-2.25907
-0.532032
-2.4104
-4.44613
4.74321
-2.1053
4.49571
2.12984
-1.92963
6.42534
1.79095
-3.72059
-3.15511
-3.64016
-1.37172
3.16286
-0.905273
-5.90901
-7.05136
5.93069
0.142773
-8.92779
10.0669
-1.13907
-5.2505
-0.473418
5.46553
-7.34372
0.676221
-4.86185
5.20501
6.23237
6.37514
-8.24336
-0.111314
-4.73008
1.24495
-5.97502
5.8362
-2.70448
6.53079
-7.08531
4.83401
-6.22605
5.30389
-0.67113
5.47467
-3.3941
2.11895
-6.09412
-4.99398
6.99392
-3.51404
7.86725
-4.07047
11.9377
-7.10853
6.88866
5.04906
-1.36651
-5.90205
-6.84671
5.4802
0.04195
5.88381
4.7869
-2.76478
4.44244
2.08884
-4.46713
-2.00104
-6.26739
1.80025
-3.22241
-1.84965
3.64991
3.13357
3.64989
1.28668
-3.22443
6.48385
-7.39754
-1.79126
-3.6023
6.73851
-1.25832
3.87765
-7.47995
-2.2979
5.36597
-0.908099
-4.45787
0.30588
-5.5312
2.61868
-8.14988
6.11779
-7.13229
1.57298
-5.69892
-3.29811
-3.63002
-1.34637
-3.33378
-4.6748
3.32843
-1.0755
3.52042
-5.54747
4.63938
-2.13494
5.46336
-3.45017
-0.577913
3.61439
0.947149
6.41051
-1.97792
-4.5263
0.297621
3.88212
-4.17974
2.59183
-6.07544
-2.19332
2.62834
2.77137
-5.93663
-0.836899
-5.3632
-2.62883
5.43582
4.60134
9.41319
1.05694
5.89834
-0.462519
6.95527
3.13036
2.77113
-3.58991
5.59104
3.52752
6.35327
-0.834635
2.79851
1.91819
1.9194
0.832832
2.23183
1.39329
3.27954
0.245064
-2.07601
4.88532
-8.19246
-0.047678
-7.2181
2.27914
6.27643
-3.9973
3.20208
-2.48385
-0.977666
-0.685701
-1.42237
2.10807
-2.35092
-2.36786
-0.751146
-1.59449
2.18992
1.62482
-1.43878
-0.91214
0.319746
-3.79464
2.76064
-2.80386
-0.262676
5.74048
-2.49264
0.233569
-1.0149
-2.17684
-2.68678
2.57175
6.10454
0.320799
3.03457
5.064
2.95262
0.187845
4.35193
-6.03061
-4.02072
-6.14193
-0.305728
5.1598
1.938
7.61783
6.98706
5.72874
-1.75121
-9.14875
7.28193
-1.69089
6.48129
-2.02342
-6.12647
6.46904
2.01319
-6.58319
-0.549101
-6.67557
-8.36646
-0.491719
5.13109
-5.91879
5.34088
3.6908
0.433121
-2.74219
-0.887836
3.13964
-0.368513
6.58676
-2.09304
-8.04145
10.1345
-4.1834
4.13572
1.14181
3.26506
3.24988
0.766032
-7.27541
-11.2727
-1.49978
-1.14027
-3.93534
0.427595
-2.05241
5.54595
-1.41023
4.74443
8.72425
7.74659
-3.281
-4.55075
5.74694
-1.00252
6.74407
)
;

boundaryField
{
    wall-4
    {
        type            calculated;
        value           uniform 0;
    }
    velocity-inlet-5
    {
        type            calculated;
        value           uniform -3.75095;
    }
    velocity-inlet-6
    {
        type            calculated;
        value           uniform -5.62643;
    }
    pressure-outlet-7
    {
        type            calculated;
        value           nonuniform List<scalar> 8(6.49542 6.35727 6.58721 6.73649 6.55386 6.61467 6.55598 6.61245);
    }
    wall-8
    {
        type            calculated;
        value           uniform 0;
    }
    frontAndBackPlanes
    {
        type            empty;
        value           nonuniform 0();
    }
}


// ************************************************************************* //
