/*--------------------------------*- C++ -*----------------------------------*\
| =========                 |                                                 |
| \\      /  F ield         | OpenFOAM: The Open Source CFD Toolbox           |
|  \\    /   O peration     | Version:  4.0                                   |
|   \\  /    A nd           | Web:      www.OpenFOAM.org                      |
|    \\/     M anipulation  |                                                 |
\*---------------------------------------------------------------------------*/
FoamFile
{
    version     2.0;
    format      ascii;
    class       volVectorField;
    location    "4";
    object      U;
}
// * * * * * * * * * * * * * * * * * * * * * * * * * * * * * * * * * * * * * //

dimensions      [0 1 -1 0 0 0 0];

internalField   nonuniform List<vector> 
918
(
(0.984474 -0.0152039 0)
(0.00485721 2.96631 0)
(-0.0217716 1.72336 0)
(0.949942 0.027594 0)
(-0.0152134 1.69744 -3.94449e-21)
(-0.00702391 2.94885 -1.95945e-18)
(1.10834 1.49631 6.31467e-19)
(0.572005 0.303895 -8.09375e-21)
(0.998013 -0.00207991 0)
(0.00769388 1.69184 0)
(0.0155007 1.67104 0)
(0.915528 0.0228476 0)
(0.0123315 2.93077 0)
(-0.0183086 2.82017 0)
(-0.0320322 3.17386 1.21773e-18)
(0.00857673 1.66011 -2.42501e-20)
(0.704125 0.139622 6.05256e-19)
(0.265034 1.96311 6.17961e-19)
(0.962288 0.0345193 0)
(0.0090374 1.6852 0)
(0.254385 0.31098 -5.71361e-19)
(0.975943 -0.00814077 0)
(0.977217 -0.0147507 0)
(0.967716 -0.00191522 0)
(0.843727 0.0233603 0)
(0.0392356 2.63451 0)
(-0.0122629 2.91558 6.73167e-19)
(-0.012445 1.72874 0)
(-0.00283742 1.75748 0)
(-0.00416116 1.73428 0)
(0.00721362 1.78853 0)
(-0.0101246 1.71331 3.12743e-21)
(-0.00255408 1.65527 0)
(-0.0208701 2.98781 -6.89341e-23)
(-0.0166748 3.00513 1.52293e-18)
(0.00204451 3.00016 0)
(0.960202 0.00487754 0)
(0.355332 0.494205 -1.20798e-19)
(1.03176 1.5526 -6.23491e-19)
(1.15352 1.26982 7.07316e-19)
(0.887872 1.75396 -1.42274e-19)
(0.971393 1.73135 8.87217e-19)
(0.608657 0.337055 7.89715e-21)
(0.578779 0.292718 0)
(1.26531 0.631905 0)
(0.597707 0.350492 3.51742e-20)
(0.537961 0.331736 -3.64964e-20)
(0.952515 -0.00509362 0)
(0.997968 0.000414856 0)
(0.99963 0.00208572 0)
(0.974679 -0.030419 0)
(0.999984 -0.00479993 0)
(1.00482 -0.000343 0)
(0.00899851 1.6228 -4.94594e-19)
(0.00205034 1.76833 0)
(0.0598368 1.73338 0)
(0.00369325 1.76645 0)
(0.00610137 1.67764 0)
(0.00300868 1.6639 0)
(0.0108717 1.72267 0)
(0.0145353 1.67588 0)
(0.00668482 1.72165 0)
(0.0114687 1.66807 0)
(0.9664 -0.00858983 0)
(0.952017 0.0100596 0)
(0.914326 0.0108442 0)
(0.933152 0.013484 0)
(0.910085 -0.00564135 0)
(0.0146249 3.00052 7.17433e-19)
(0.0113436 3.00788 0)
(0.0060572 3.00263 0)
(0.0137353 2.99713 7.96612e-24)
(0.00836442 2.9588 -1.06628e-18)
(0.0151916 2.9823 0)
(0.0136132 2.90237 0)
(0.00565759 2.93655 1.46924e-24)
(-0.00966008 2.8368 0)
(0.0123586 2.92929 0)
(-0.0274608 2.78656 0)
(0.212224 3.46699 0)
(-0.123163 3.54291 0)
(0.106251 3.25267 -1.12918e-18)
(-0.0125704 3.01118 0)
(0.00463339 1.74772 0)
(0.00309747 1.7206 2.39257e-20)
(0.0183229 1.66947 -3.60036e-20)
(0.733929 0.17385 -2.10063e-19)
(0.709112 0.112007 -2.13395e-19)
(0.727916 0.21279 -6.32164e-19)
(0.66974 0.192294 -4.14431e-19)
(0.189984 1.34457 0)
(0.357313 2.0388 -6.33891e-19)
(0.476611 2.01474 1.08499e-18)
(0.978379 0.0196424 0)
(0.934906 0.016706 0)
(1.00284 -0.0017177 0)
(0.985593 0.0233251 0)
(0.999033 0.0219642 -1.48677e-18)
(0.991205 0.0382247 1.14642e-18)
(0.00267448 1.72847 0)
(-0.00404753 1.68678 0)
(0.00164237 1.74376 0)
(0.0105631 1.73182 0)
(0.0126194 1.68176 0)
(0.301905 0.437526 1.58669e-19)
(0.45035 0.351379 0)
(0.989396 0.0101217 0)
(0.960068 0.0150487 0)
(0.925944 -0.00627993 0)
(0.908492 0.018727 0)
(0.90434 -0.00397368 0)
(1.09165 -0.00495471 0)
(0.84637 0.0673532 0)
(0.768865 0.0288548 8.77617e-19)
(-0.0411895 2.86121 3.10164e-19)
(0.0330797 2.92938 0)
(0.0623075 2.89917 0)
(-0.00759502 2.73338 0)
(-0.016019 2.98863 6.24027e-19)
(-0.0254117 2.89982 0)
(-0.0148531 2.9918 -1.96315e-18)
(-0.00939274 2.931 6.76011e-19)
(2.35725e-05 1.76987 0)
(0.00228354 1.76314 0)
(-0.00812581 1.71799 -2.86816e-22)
(0.000926862 1.70562 0)
(-0.0108748 1.65324 0)
(0.989774 0.00869464 0)
(0.962361 0.00352577 0)
(0.936966 -0.00648959 0)
(0.986222 0.0134884 0)
(0.959171 0.0105776 0)
(0.519564 0.826841 1.35967e-19)
(0.325389 0.714493 0)
(0.610515 0.791824 -5.1073e-21)
(0.432319 0.500614 0)
(1.09207 1.31923 -1.89212e-19)
(1.20878 1.00862 3.96196e-19)
(0.561627 2.02578 0)
(0.723709 1.93023 0)
(0.769508 1.92403 0)
(0.576772 1.11581 -3.45006e-19)
(0.64872 0.314973 0)
(0.628043 0.24055 1.11008e-19)
(1.15758 1.08299 0)
(1.20242 0.885989 0)
(1.22406 0.808576 -3.29868e-19)
(1.23116 0.688624 0)
(1.27924 0.43582 5.83892e-20)
(0.984946 -0.000621437 0)
(0.980553 -0.00425435 0)
(0.951095 -0.013331 0)
(0.974044 0.0133266 0)
(0.979243 0.005759 0)
(0.945634 0.0137693 0)
(0.999653 0.0019312 0)
(0.995928 0.00184111 0)
(0.99953 0.00122657 0)
(0.0168766 1.64792 2.66456e-19)
(0.0578381 1.57095 0)
(-0.015367 1.66367 4.4669e-19)
(-0.0146996 1.61013 -3.82402e-19)
(0.18395 1.9237 -5.2013e-19)
(0.0511891 1.79859 0)
(0.113901 1.80446 0)
(0.0132453 1.74439 0)
(-0.0112373 1.6732 0)
(0.00102504 1.69667 -1.2513e-21)
(-0.00615009 1.655 0)
(-0.00441405 1.71238 -6.03362e-20)
(-0.00946353 1.66842 1.17966e-19)
(-0.0252393 1.73394 0)
(-0.0044719 1.73646 0)
(-0.0165439 1.67249 0)
(0.000684298 1.72176 0)
(-0.00214272 1.67628 0)
(1.01129 0.0085972 0)
(0.986748 0.0151837 0)
(1.00332 0.00783265 0)
(0.966018 0.0108712 0)
(0.940278 -0.00748351 0)
(0.974646 -0.00111241 0)
(0.966456 0.0138115 0)
(0.940037 -0.00848459 0)
(0.00543672 3.06499 -6.28556e-21)
(0.0187326 3.05869 0)
(0.0156173 2.96878 0)
(0.01251 2.8749 0)
(0.719145 3.74498 0)
(0.978679 2.98707 8.80635e-19)
(0.0719362 3.10959 0)
(-0.0178182 2.9063 0)
(-0.00286353 1.75126 0)
(0.00497519 1.74971 0)
(0.00276397 1.74866 0)
(0.0112151 1.78108 5.21352e-21)
(0.00785393 1.74693 0)
(0.00423094 1.76375 0)
(-0.0133517 1.67644 -1.45002e-21)
(-0.0119299 1.7202 4.25521e-20)
(0.0147293 1.72541 3.655e-20)
(0.0111489 1.67349 0)
(0.762725 0.127427 3.26035e-19)
(0.726293 0.0696693 -3.14111e-19)
(0.174673 1.419 0)
(0.2807 1.32375 -2.17684e-19)
(0.128229 1.42451 -6.44946e-19)
(0.148443 1.38503 6.43801e-19)
(0.943815 -0.00952627 0)
(0.973826 -0.004349 0)
(0.963371 -0.00424235 0)
(0.935425 0.00310348 0)
(0.00347238 1.72262 0)
(-0.00665919 1.71965 0)
(-0.000298308 1.67183 0)
(0.55749 0.379768 3.14206e-19)
(0.498331 0.400105 -3.84251e-19)
(0.506775 0.337712 0)
(1.19374 0.0829907 5.90986e-21)
(1.19262 0.0372048 0)
(1.11747 0.0380783 0)
(1.04029 0.0108066 0)
(0.782737 0.093999 0)
(0.799191 0.0603105 -1.41707e-18)
(0.74995 0.0210599 5.41898e-19)
(-0.00420549 2.98116 4.38811e-19)
(-0.0455032 2.86285 6.13844e-20)
(0.0074772 3.04649 -1.31672e-20)
(0.0184156 3.04445 4.87128e-19)
(-0.013851 2.99629 2.2611e-20)
(-0.0129709 2.9517 -9.22226e-23)
(-0.0167536 3.01136 -4.32381e-19)
(0.0138961 3.02471 2.97648e-19)
(0.00733254 3.03281 -4.62967e-19)
(0.997439 0.0183673 0)
(1.00325 0.00231958 0)
(0.958392 0.0174447 0)
(0.979748 -0.0170782 0)
(0.983513 -0.00186264 0)
(0.948052 -0.0186989 0)
(0.973583 0.00782427 0)
(0.973466 0.0014895 0)
(0.94379 0.00705939 0)
(0.496183 0.981009 3.52091e-19)
(0.480656 1.05401 0)
(0.580131 0.862599 9.11784e-20)
(0.638043 1.01007 6.14806e-19)
(0.638724 0.880405 -2.79438e-19)
(0.520585 0.671939 5.00059e-19)
(0.491239 1.29369 1.68379e-18)
(0.492217 1.18367 3.39848e-19)
(0.695218 0.247535 4.41938e-19)
(0.677594 0.271851 1.05125e-19)
(0.659324 0.21488 2.14041e-19)
(1.26447 0.498376 1.94475e-19)
(1.28736 0.281765 2.22448e-19)
(-0.00635263 1.66703 1.78894e-19)
(0.0151061 1.62668 0)
(1.06284 0.0233502 0)
(1.03826 0.0150621 0)
(1.01361 -0.00262383 0)
(0.0131095 3.07154 0)
(0.00766256 2.94362 8.5484e-19)
(0.0135868 2.95376 0)
(0.00277607 2.85058 -8.48565e-19)
(0.0112457 3.08876 2.0292e-19)
(0.00922907 3.07807 0)
(0.487552 1.38534 -1.92635e-19)
(0.945832 2.13538 4.28505e-19)
(0.466688 1.56376 -1.1697e-18)
(0.0185424 2.99211 -2.88175e-19)
(0.0438703 3.02543 0)
(-0.0255571 2.87372 0)
(0.00346964 1.7067 -7.52361e-21)
(-0.000721459 1.73114 -8.27025e-20)
(0.0144505 1.68526 -8.09934e-21)
(0.252355 1.37884 6.84597e-19)
(0.341716 1.29668 -4.71936e-19)
(0.0468052 1.58389 4.3455e-19)
(0.0786591 1.49631 -5.16779e-19)
(0.0824327 1.46294 4.76462e-20)
(0.0197067 3.09907 -1.11132e-18)
(0.0252536 3.10658 1.2313e-18)
(-0.0221167 2.98366 5.50359e-19)
(-0.0171219 2.97323 -4.89098e-19)
(-0.0367096 2.87961 -5.60557e-19)
(0.0197505 3.0952 -1.49644e-18)
(0.019529 3.09666 1.5276e-18)
(0.553978 1.20777 0)
(0.596752 1.13313 -1.56399e-18)
(0.590198 1.02225 7.06876e-19)
(0.415488 1.30013 9.34905e-19)
(0.458885 1.19614 -1.45887e-18)
(1.26489 0.170634 -1.68891e-20)
(1.26607 0.312098 0)
(1.26826 0.126041 7.85203e-20)
(-0.00661604 1.70482 -1.48312e-21)
(0.012712 1.68862 0)
(0.0112286 1.65365 0)
(0.315044 1.34728 -2.42036e-19)
(0.379455 1.32832 -6.03582e-19)
(0.403638 1.23861 1.0907e-18)
(0.998913 -0.0408176 0)
(1.00548 -0.0507466 2.73808e-19)
(-0.00107879 1.76983 0)
(-0.00448272 1.77646 0)
(1.00901 0.0100483 6.12799e-21)
(0.990538 0.0119202 5.61576e-19)
(0.00884386 1.77828 -6.74011e-21)
(0.00408908 1.77885 0)
(0.0667004 3.22062 8.14196e-21)
(0.317191 3.57374 0)
(1.06285 0.6745 -5.29483e-21)
(1.01005 -0.0112148 -1.6429e-21)
(1.01164 0.00620234 0)
(1.00988 -0.00478649 -2.35267e-21)
(0.0398884 1.84769 0)
(0.0742055 1.6852 0)
(0.00922865 1.7907 0)
(0.0102159 1.75737 8.33404e-20)
(0.0236583 1.75397 4.52782e-20)
(0.992437 0.00175283 6.51845e-22)
(1.04262 -0.00570718 0)
(1.05682 0.0255273 0)
(-0.00123407 1.75008 0)
(-0.0163597 1.78585 0)
(-0.0101995 1.78078 0)
(0.239971 1.96086 -2.5308e-19)
(0.983819 -0.0302702 0)
(0.981626 -0.0226495 0)
(1.01791 -0.00908508 3.61454e-19)
(1.0178 -0.0148853 -4.08907e-19)
(1.01473 -0.00887625 0)
(-0.00859205 1.74936 0)
(0.00550564 1.76003 0)
(-0.00311236 1.75518 0)
(-0.00391371 1.78462 0)
(-0.000798838 1.77587 0)
(-0.00569814 1.78078 0)
(1.02037 0.00679743 0)
(1.01549 -0.00348781 -1.32192e-21)
(0.746264 1.53997 3.21072e-19)
(1.01094 -0.00494423 -3.52849e-19)
(1.02624 0.0149285 4.22635e-19)
(0.998422 0.00100374 0)
(1.01362 -0.000796529 3.42523e-19)
(0.991103 0.0145655 -4.26342e-19)
(0.989205 0.0214067 0)
(-0.0175712 1.78607 0)
(-0.00634229 1.77937 1.28976e-20)
(-0.0102157 1.78281 -7.67761e-21)
(1.17023 0.252035 1.51809e-19)
(1.09841 0.0618209 0)
(0.142438 3.05871 -5.37714e-19)
(0.0838563 2.86199 -4.86342e-20)
(0.216354 3.23949 6.59877e-19)
(0.165857 3.28794 7.24076e-20)
(0.172111 3.31111 0)
(0.0345799 3.13988 9.99509e-20)
(0.113366 3.17627 5.25557e-19)
(0.103685 3.22187 -1.9856e-19)
(0.0645001 3.10117 0)
(0.704091 0.346247 0)
(0.638327 0.408758 0)
(1.00901 0.68839 -1.43717e-20)
(1.10065 0.826714 4.64759e-20)
(1.12095 0.526417 0)
(1.17207 0.515231 0)
(1.01902 -0.0062508 -6.43809e-19)
(1.01884 -0.00707122 8.05459e-19)
(1.01825 0.0133849 0)
(1.0154 0.0142402 0)
(1.0069 0.0113485 0)
(1.02022 -0.00380665 0)
(1.01388 -0.00376049 0)
(1.03058 -0.0124205 0)
(1.0225 0.0148275 0)
(1.02648 0.0128238 0)
(0.0380957 1.84541 0)
(0.0251629 1.85048 0)
(0.042915 1.86641 0)
(0.0489255 1.88205 0)
(0.0928129 1.67729 0)
(0.106527 1.66635 -2.94326e-19)
(0.0399491 1.71377 0)
(0.0119488 1.70131 1.59639e-19)
(0.0353342 1.76075 -1.49161e-19)
(0.0055337 1.79024 0)
(-0.0100918 1.78494 0)
(0.0135862 1.79124 0)
(0.00746121 1.80557 0)
(-0.00319952 1.75463 -5.51085e-20)
(0.0137937 1.7591 6.10813e-20)
(0.00796097 1.76317 7.99241e-20)
(0.0162963 1.76583 0)
(0.018254 1.77189 -9.72419e-20)
(0.00459481 1.7688 -6.31688e-20)
(0.00239567 1.74366 4.19457e-20)
(0.0116127 1.75271 -7.97238e-20)
(0.00821311 1.75739 -9.38684e-20)
(1.00141 0.0145633 6.11679e-19)
(1.00355 0.0155743 -7.43361e-19)
(0.995049 0.00408775 -6.30919e-19)
(0.961964 -0.000662819 8.13423e-19)
(1.03805 -0.000866371 0)
(1.04831 -0.0135165 0)
(1.04668 0.0286386 0)
(1.05376 0.0153294 0)
(1.06323 0.0269699 0)
(1.07433 0.0660834 0)
(1.06788 0.0324672 0)
(1.0852 0.0393492 0)
(0.00163423 1.7696 -2.52227e-21)
(-0.0118668 1.75367 0)
(0.00628388 1.75325 0)
(-0.00535776 1.7842 1.83292e-20)
(-0.011798 1.78739 -7.79807e-22)
(-0.00380881 1.71837 2.24634e-20)
(-0.00330181 1.73883 -2.29649e-20)
(0.0062138 1.76472 0)
(0.00804307 1.7582 0)
(0.00515585 1.75811 0)
(-0.0116081 1.77881 0)
(-0.0126765 1.77522 0)
(0.381913 1.92577 3.91676e-19)
(0.38154 1.9424 1.9833e-19)
(0.28333 1.53389 -1.70613e-19)
(0.123542 1.54858 4.45753e-19)
(0.290602 1.63231 1.13984e-19)
(1.00312 0.00779613 0)
(0.987595 -0.0107906 0)
(0.994459 0.00342168 0)
(1.03199 -0.0117435 0)
(1.01444 -0.0198425 0)
(1.01118 -0.0206829 0)
(0.983094 0.0253795 0)
(1.01617 0.0447467 0)
(1.00927 0.00745248 6.04184e-19)
(1.01668 0.0171005 -7.62098e-19)
(1.01335 -0.0126393 -6.16208e-19)
(1.01305 -0.0108345 7.55612e-19)
(0.741008 1.62869 0)
(0.657339 1.73646 2.89051e-19)
(0.842028 1.42285 1.12622e-19)
(0.878567 1.35747 -1.49386e-19)
(0.842445 1.91391 -3.31628e-19)
(0.847316 0.117311 3.33758e-19)
(1.10833 0.0849095 0)
(1.12833 0.160875 -1.24124e-19)
(1.12997 0.134567 -4.35313e-21)
(0.963917 0.130499 0)
(0.280735 3.07555 -3.84612e-19)
(0.211762 2.88801 -6.45004e-19)
(0.153529 2.24996 5.44427e-19)
(0.169091 0.27636 -1.81445e-19)
(0.236217 3.49884 -6.26946e-19)
(0.184718 3.42718 0)
(0.214844 3.45233 8.17501e-19)
(0.301662 3.23545 5.72628e-19)
(0.368027 3.36734 0)
(0.0171287 3.10504 2.84332e-20)
(0.0313019 3.12088 -3.57139e-19)
(0.0322424 3.11013 5.25745e-19)
(0.0534293 3.13843 0)
(0.0571357 3.15451 0)
(0.77209 2.17425 0)
(0.275629 0.556664 4.2946e-20)
(1.01657 1.11659 -4.55809e-20)
(0.929 1.14425 0)
(0.686602 1.04672 -7.0392e-20)
(0.948652 0.90132 1.93771e-20)
(0.527401 0.630969 -3.09543e-19)
(0.707359 0.339293 -2.27922e-20)
(0.703509 0.319004 2.19812e-19)
(0.626849 0.421813 1.46718e-20)
(0.612083 0.421247 -6.01872e-19)
(0.705335 0.354089 0)
(0.696724 0.404956 3.17291e-19)
(0.70262 0.396501 0)
(0.662278 0.382634 0)
(0.669821 0.354315 0)
(0.698205 0.613757 1.75412e-19)
(1.17334 0.274936 -1.20643e-19)
(1.16217 0.406939 0)
(1.16858 0.387139 0)
(0.788096 0.232019 3.56464e-19)
(0.761399 0.478763 -1.87367e-19)
(0.713453 0.450863 3.12564e-19)
(0.855766 0.413878 -3.45348e-19)
(1.01355 0.0183954 4.17836e-19)
(1.0198 -0.00820397 -4.32992e-19)
(1.01532 0.010223 0)
(1.01685 0.000685937 0)
(1.02341 -0.0103829 -4.03573e-19)
(1.02128 -0.0155442 3.98064e-19)
(1.00691 -0.00333931 0)
(1.00057 -0.00287572 0)
(1.02196 -0.00777989 0)
(1.01977 -0.00975504 0)
(1.00606 -0.00460377 0)
(1.0077 0.00577384 0)
(0.0238731 1.84455 0)
(0.0218192 1.83811 0)
(0.0888305 1.82135 -9.93376e-21)
(0.241992 1.929 1.28367e-19)
(0.105614 1.91115 2.71303e-19)
(0.142557 1.9473 -4.40318e-19)
(0.179346 1.86528 0)
(0.138689 1.7561 -9.71733e-20)
(0.114364 1.78599 0)
(0.273606 1.6898 -1.65053e-19)
(0.196159 1.6241 5.26181e-19)
(0.194681 1.77223 8.37183e-20)
(0.259978 1.86645 4.05604e-20)
(0.215054 1.86026 -3.27033e-20)
(0.305281 1.7902 -8.49657e-20)
(0.250395 1.7371 0)
(0.25725 1.74884 8.20753e-20)
(0.0385044 1.75332 -5.04939e-20)
(0.0422168 1.74948 0)
(0.0563422 1.7296 1.87795e-19)
(0.054097 1.74176 0)
(0.0190665 1.71222 -1.71932e-19)
(0.0273472 1.73663 0)
(0.00367172 1.76755 -3.23211e-20)
(-0.00298906 1.76945 0)
(0.0110348 1.76493 0)
(0.0146303 1.76218 3.56823e-20)
(0.0040274 1.76061 -3.01831e-21)
(0.0128264 1.76481 1.79303e-19)
(0.00562248 1.76261 1.22162e-21)
(-0.00275724 1.74809 3.15216e-20)
(-0.0079852 1.74432 2.34338e-20)
(-0.0093248 1.78377 0)
(-0.00804599 1.77727 0)
(0.0128406 1.74661 1.1541e-19)
(0.0260205 1.75678 8.20882e-20)
(0.0111479 1.74688 -1.18783e-19)
(0.015541 1.75129 0)
(0.0105188 1.76837 -6.0043e-20)
(0.0174637 1.76935 3.12846e-20)
(0.0212047 1.75701 -1.0695e-20)
(0.0066564 1.74299 -3.93576e-20)
(-0.00555202 1.74787 -1.7294e-20)
(0.0152899 1.76307 5.92207e-20)
(1.01412 -0.00410863 -4.00495e-19)
(1.00312 0.0243706 4.05766e-19)
(1.00759 0.0105232 0)
(0.978797 0.052519 5.68013e-19)
(0.952804 0.0305136 -6.60651e-19)
(0.929208 0.031106 7.52227e-19)
(0.970167 0.0467751 -7.52326e-20)
(1.03526 0.00710478 0)
(1.04397 -0.0154938 3.73887e-19)
(1.03289 -0.0120216 -3.6971e-19)
(1.00375 0.024243 -2.08956e-20)
(1.01606 0.019745 1.8144e-19)
(0.992794 0.0506955 0)
(0.984636 0.0404592 -6.6516e-20)
(1.013 0.0409444 0)
(1.0013 0.0301348 0)
(1.00993 0.00808055 0)
(1.01474 0.00653545 0)
(1.01155 0.0227989 1.36041e-19)
(1.00054 0.00475587 -2.98842e-19)
(0.953617 0.00784317 -1.44781e-19)
(0.971814 0.014269 -1.59913e-19)
(0.991378 0.0634576 3.00376e-19)
(1.0472 0.0660838 0)
(1.02425 0.0812077 0)
(-0.00705426 1.77013 -3.59058e-20)
(-0.0226052 1.76053 -2.28245e-21)
(-0.014389 1.75585 0)
(-0.0163211 1.77903 3.40684e-20)
(-0.00235752 1.77597 4.51825e-21)
(-0.0114819 1.78245 -4.05721e-21)
(0.00336449 1.76839 5.08702e-20)
(0.00601759 1.7525 -2.95211e-21)
(-0.00716437 1.74872 1.94481e-20)
(0.00487496 1.78739 -2.6517e-20)
(0.000475564 1.76655 3.13949e-20)
(0.0105274 1.73147 1.78184e-21)
(0.00558467 1.71369 2.50106e-20)
(0.363344 1.80808 -1.48675e-19)
(0.303661 1.79255 1.1093e-19)
(0.660063 1.80613 -2.78406e-19)
(0.531091 1.89979 -1.91292e-19)
(0.549509 1.87676 0)
(0.32425 1.53335 1.7648e-19)
(0.36434 1.52256 2.49553e-19)
(0.169993 1.55338 3.79244e-20)
(0.170441 1.54777 -5.99369e-19)
(0.227017 1.55237 4.93134e-19)
(0.257253 1.55674 0)
(0.185309 1.54974 -3.77379e-19)
(0.135149 1.63351 7.38365e-19)
(0.13232 1.57628 -5.30873e-20)
(0.104734 1.60757 -1.01386e-18)
(0.683996 1.47495 9.71845e-19)
(0.475252 1.50676 0)
(1.02923 -0.00397131 1.22105e-20)
(1.02623 0.0506677 -1.05623e-20)
(1.01392 0.0334249 -1.93258e-19)
(1.00353 0.015931 2.03144e-19)
(1.01259 0.013317 0)
(0.557654 1.60089 0)
(0.471318 1.49622 0)
(0.601089 1.23866 0)
(0.411018 1.44574 0)
(0.832637 1.85916 1.80198e-19)
(0.917479 1.67643 0)
(0.621693 1.76475 6.8501e-21)
(0.506398 1.61481 0)
(0.600486 1.58869 -6.78342e-19)
(0.622228 1.63601 4.31648e-19)
(0.862617 0.144636 0)
(0.836554 0.15668 9.22183e-20)
(0.910136 0.101074 5.00429e-19)
(0.86216 0.100759 -1.89111e-19)
(0.860429 0.0651225 -6.1402e-19)
(0.9841 0.197753 -3.94603e-19)
(0.927301 0.266028 -1.2974e-20)
(0.83588 0.262395 4.36188e-19)
(0.918246 0.216721 3.78943e-19)
(0.92657 0.132254 -6.37664e-19)
(0.899607 0.149365 8.11248e-20)
(0.834313 0.23782 -1.73706e-19)
(0.895879 0.198202 0)
(0.955556 0.159813 3.09833e-19)
(0.949774 0.161067 0)
(0.949233 0.205893 0)
(1.06334 0.108536 1.37215e-19)
(0.966433 0.160705 -1.09368e-20)
(0.984449 0.18737 -7.54795e-20)
(1.01908 0.208998 0)
(1.01114 0.0473696 3.04832e-19)
(1.00746 0.0467808 3.80738e-19)
(1.01221 0.052271 -2.95336e-19)
(1.01401 0.0574115 -2.58838e-19)
(0.983887 0.0628896 -4.07616e-19)
(0.960313 0.0726682 0)
(0.951816 0.0435329 0)
(0.923899 0.0705395 -2.67681e-19)
(0.909681 0.0697404 1.0828e-19)
(1.0065 0.0747159 3.48219e-19)
(0.985508 0.0859221 -3.9439e-19)
(0.988904 0.0982685 3.48311e-19)
(0.984864 0.107365 0)
(0.991432 0.0761967 0)
(0.99487 0.0748795 -1.65311e-19)
(1.00638 0.079739 -2.81841e-19)
(0.309005 1.736 3.03739e-19)
(0.352155 2.10506 -2.94011e-19)
(0.67407 2.27683 -1.35422e-19)
(0.705 2.85146 -6.5212e-20)
(0.881769 2.16054 4.97871e-19)
(0.885283 2.26184 -3.55668e-19)
(0.896222 1.72662 -1.50474e-20)
(0.703733 2.61661 8.86072e-20)
(0.781059 2.45873 1.88027e-20)
(0.721288 3.04905 -2.34899e-19)
(0.943194 2.64858 3.19916e-19)
(0.958017 2.62901 0)
(0.204713 0.563715 -2.63199e-21)
(0.540924 1.46262 1.01762e-19)
(0.761663 0.542574 2.32239e-19)
(0.740915 0.427677 3.50428e-19)
(0.605704 0.43988 3.32148e-19)
(0.617137 0.43988 -4.2548e-19)
(0.600315 0.480509 3.13794e-19)
(0.608406 0.466158 -1.54229e-19)
(0.564192 0.482398 4.11082e-19)
(0.786568 0.262852 -2.02058e-19)
(0.745707 0.292668 0)
(0.758528 0.265384 1.00231e-20)
(0.654961 0.467622 1.62834e-19)
(0.655172 0.419977 -5.96283e-19)
(0.615851 0.434618 1.93071e-20)
(0.63516 0.438823 0)
(0.459086 0.675669 1.10521e-19)
(0.675585 0.813878 2.11527e-19)
(0.564666 0.805374 -2.40171e-19)
(0.691134 0.820434 -8.30294e-20)
(0.79195 0.884302 -2.10609e-20)
(0.788027 0.88791 2.14008e-20)
(0.796373 0.567938 -3.08636e-19)
(0.815249 0.645829 7.77698e-20)
(0.879989 0.722671 0)
(0.87659 0.696308 -8.43542e-20)
(0.940767 0.291674 1.00001e-19)
(1.07773 0.276867 8.92175e-20)
(1.0049 0.235281 1.5929e-19)
(0.911823 0.374978 -2.14088e-19)
(0.977487 0.394673 0)
(0.997907 0.390497 0)
(0.853191 0.341071 1.30151e-20)
(0.788233 0.296575 0)
(0.808683 0.286937 2.20839e-19)
(0.851784 0.271161 -1.59563e-20)
(0.847023 0.40921 9.33368e-19)
(0.830114 0.447922 2.60003e-19)
(0.81707 0.42719 -2.81889e-19)
(0.749192 0.378726 2.99222e-19)
(0.733735 0.389388 1.81481e-19)
(0.709246 0.40346 -1.77323e-19)
(0.990047 0.0147012 3.42897e-19)
(1.00194 -0.0146658 0)
(1.00768 -0.00049559 2.2621e-19)
(1.00617 0.00458722 -5.06692e-19)
(1.01085 -0.00404692 2.41369e-19)
(1.01601 0.0269217 -5.10897e-19)
(1.00728 0.00298318 0)
(0.996847 -0.0137203 -1.07479e-19)
(1.00565 0.00970155 2.71382e-19)
(1.00571 0.00715892 -1.3845e-19)
(0.997892 -0.00823708 1.01973e-19)
(0.00797954 1.81021 0)
(0.0129137 1.77134 0)
(0.0146019 1.83449 0)
(0.0112211 1.82463 0)
(0.0449027 1.76226 8.40512e-20)
(0.0427576 1.7802 -3.18428e-20)
(0.0786549 1.77623 -3.19056e-20)
(0.0579715 1.76551 -9.61246e-21)
(0.0333778 1.76368 -6.90807e-20)
(0.0272763 1.76551 5.1577e-20)
(0.0441429 1.76962 -3.71268e-20)
(0.0255777 1.79201 -9.26739e-21)
(0.0251259 1.78618 -4.83521e-22)
(0.0135016 1.77102 -7.42009e-21)
(0.0506387 1.72136 -1.94432e-19)
(0.0456891 1.70798 0)
(0.0705402 1.70023 1.29179e-19)
(0.0862102 1.77519 7.56819e-20)
(0.214249 1.69771 -8.78223e-20)
(0.171715 1.66537 0)
(0.168619 1.63276 -5.58783e-19)
(0.197098 1.65432 3.98478e-19)
(0.151126 1.71802 -2.38306e-19)
(0.1108 1.69132 1.33366e-19)
(0.102923 1.66804 0)
(0.0122025 1.74544 -1.37486e-19)
(0.00247499 1.75065 -1.66652e-19)
(0.00604751 1.74738 0)
(0.00873153 1.74804 -3.84117e-21)
(0.0175816 1.74427 7.17259e-20)
(0.00696731 1.78444 5.16019e-21)
(0.00594165 1.78783 -6.76426e-20)
(-0.00189554 1.78545 9.80005e-21)
(-0.0021412 1.77076 3.33971e-20)
(0.0112211 1.77025 0)
(-0.00117241 1.78618 0)
(0.000486989 1.77978 2.83497e-20)
(0.000314222 1.78601 -8.43765e-21)
(0.00262069 1.78543 0)
(0.00370527 1.77862 2.36026e-20)
(0.00594888 1.77542 -4.51356e-20)
(0.984784 0.0189552 0)
(1.00914 0.0413673 -3.30477e-20)
(1.01301 0.00302708 -2.31362e-19)
(0.997702 0.00739718 0)
(1.02203 0.0343284 0)
(0.996853 -0.00467581 -1.37139e-20)
(0.985236 0.00418013 3.83599e-19)
(1.00022 0.0104253 4.68643e-19)
(1.00605 0.0175151 0)
(1.00232 0.0121388 0)
(1.00043 0.00772461 2.4338e-19)
(1.00521 0.0112301 0)
(0.997903 0.0153938 0)
(0.034325 1.75752 0)
(0.0188631 1.72537 -7.06603e-22)
(0.0196661 1.76522 1.31214e-20)
(-0.000148224 1.77985 0)
(0.0148688 1.7226 1.96964e-20)
(0.00557901 1.73678 -9.07933e-21)
(-0.0081197 1.78148 0)
(0.389097 1.66964 0)
(0.331846 1.7515 -2.64806e-19)
(0.322188 1.71313 0)
(0.454664 1.75843 2.1628e-19)
(0.478543 1.80099 0)
(0.444293 1.79282 -4.91384e-20)
(0.693139 1.55432 -2.01383e-20)
(0.73424 1.48109 -1.11116e-18)
(0.785385 1.45837 1.23109e-18)
(0.50874 1.51284 2.73437e-19)
(0.506407 1.53431 0)
(0.547132 1.52379 0)
(0.636619 1.49637 0)
(0.577023 1.49445 -9.91352e-19)
(0.367895 1.58143 -5.19645e-19)
(0.465134 1.53676 -1.32808e-19)
(0.495666 1.57288 1.08166e-19)
(0.399495 1.50847 0)
(0.457738 1.51994 0)
(0.414219 1.51447 -2.85954e-19)
(0.443088 1.56109 0)
(0.257838 1.37176 0)
(-0.126722 1.213 -1.67729e-19)
(0.171106 0.838254 -1.7009e-20)
(0.0517333 1.61485 0)
(-0.063113 1.65908 3.02636e-19)
(0.57967 0.845185 -8.52593e-20)
(0.593022 1.11964 0)
(0.63885 1.04328 1.22211e-19)
(0.37806 1.07186 0)
(0.403297 0.991787 0)
(0.823019 1.90783 -1.80867e-19)
(0.71749 2.12018 -2.52473e-19)
(0.591888 2.01624 4.89208e-19)
(0.642556 1.89284 -1.46789e-19)
(0.857435 1.75459 0)
(0.858606 1.71605 1.85074e-19)
(0.915774 1.61384 -2.02278e-19)
(0.925263 1.50465 -1.24869e-20)
(0.539989 1.7096 0)
(0.406768 1.7315 -2.66075e-19)
(0.42927 1.6691 0)
(0.865882 0.210493 0)
(0.834087 0.158291 0)
(0.798542 0.175731 0)
(0.84206 0.22112 -3.47171e-19)
(0.800538 0.218877 2.12498e-19)
(0.9032 0.0688997 -2.25334e-19)
(0.9266 0.0836188 0)
(0.917875 0.0847214 9.789e-20)
(0.873286 0.0585243 3.88327e-19)
(0.877343 0.0624713 -2.4324e-19)
(0.778218 3.25635 -6.70801e-19)
(0.75126 3.18197 0)
(0.814908 3.26625 -1.79819e-18)
(0.382831 3.54383 1.69651e-18)
(0.462747 3.27894 7.81276e-19)
(0.0994294 0.895754 -5.12061e-19)
(-0.172384 1.38008 0)
(0.442425 0.36076 6.86205e-22)
(0.476737 0.380887 -6.92382e-20)
(0.712987 0.373736 -8.62673e-20)
(0.680779 0.468528 2.30351e-20)
(0.634355 0.474236 1.75459e-19)
(0.644281 0.474341 0)
(0.641275 0.474751 0)
(0.639166 0.425959 0)
(0.958979 0.562503 8.07705e-21)
(0.814602 0.455882 -2.54144e-19)
(0.806291 0.526686 1.94056e-19)
(0.857342 0.476821 -1.9535e-19)
(1.01841 0.439845 0)
(1.05989 0.518735 -3.90845e-20)
(0.75798 0.359407 -4.29042e-19)
(0.76765 0.35155 -5.23308e-19)
(0.733006 0.372536 3.36044e-19)
(0.750538 0.335705 -3.51909e-19)
(0.773068 0.303148 -2.74058e-19)
(0.75752 0.312632 3.36429e-19)
(1.01465 -0.00621476 -2.52267e-19)
(1.01869 -0.00192421 5.02913e-19)
(0.993468 0.0277599 3.27905e-19)
(1.00151 0.0386662 -3.85903e-19)
(0.97713 0.0249784 0)
(0.979743 -0.00128418 -6.16788e-19)
(0.0516345 1.7783 2.87427e-20)
(0.0424739 1.75005 0)
(0.0738335 1.77519 2.5625e-19)
(0.0760996 1.77651 -2.33205e-19)
(0.0708892 1.77255 5.82466e-20)
(0.0486053 1.73607 0)
(0.0201199 1.73577 0)
(0.00803348 1.77445 -7.47076e-21)
(0.000994424 1.77608 6.79385e-21)
(0.0110374 1.75503 -2.19359e-21)
(0.0226434 1.74201 -1.50041e-20)
(0.00853041 1.7369 1.33833e-20)
(0.502158 1.65925 -6.54129e-19)
(0.471237 1.64343 6.97912e-19)
(0.455598 1.70796 -1.77463e-19)
(0.461092 1.68099 2.81629e-20)
(0.572826 1.66513 0)
(0.547574 1.76412 9.08978e-20)
(0.559773 1.72485 -8.97343e-20)
(0.484403 1.72564 1.71009e-19)
(0.511193 1.67694 0)
(0.493009 1.68317 0)
(0.361896 1.5529 7.99027e-19)
(0.390903 1.52009 1.18225e-18)
(0.408441 1.5594 -8.09069e-19)
(0.335034 1.53325 -1.49282e-19)
(0.299204 1.54505 2.52368e-19)
(0.230038 1.54016 -6.33156e-19)
(0.827775 1.44199 -6.7661e-19)
(0.903695 1.4615 0)
(0.867149 1.44071 -6.82978e-19)
(0.798013 1.61633 0)
(0.801148 1.57184 0)
(0.199758 2.90382 6.0208e-19)
(0.492331 3.13398 6.01019e-19)
(0.45224 3.21006 -7.49604e-19)
(0.522339 1.38898 0)
(0.403685 1.12688 2.41732e-19)
(0.1265 1.22521 3.15665e-19)
(0.182794 2.81207 0)
(0.352391 3.12133 -5.56319e-19)
(0.379286 2.97957 0)
(0.500922 0.502379 -2.46793e-19)
(0.649575 0.650877 4.13189e-19)
(0.687221 0.627472 -4.22371e-19)
(0.601835 0.464654 -3.17335e-20)
(0.661431 0.502873 -1.48385e-19)
(0.418285 2.96656 -4.70666e-19)
(0.435436 2.74396 2.22472e-19)
(0.200595 2.73712 -4.65074e-19)
(0.0892939 2.57985 2.32998e-19)
(0.207579 2.29285 -4.55544e-19)
(0.350591 2.64544 -2.07934e-19)
(0.398338 2.29681 1.26884e-19)
(0.0535329 2.50296 9.46114e-22)
(0.100795 2.39136 2.44328e-19)
)
;

boundaryField
{
    wall-4
    {
        type            noSlip;
    }
    velocity-inlet-5
    {
        type            fixedValue;
        value           uniform (1 0 0);
    }
    velocity-inlet-6
    {
        type            fixedValue;
        value           uniform (0 3 0);
    }
    pressure-outlet-7
    {
        type            zeroGradient;
    }
    wall-8
    {
        type            noSlip;
    }
    frontAndBackPlanes
    {
        type            empty;
    }
}


// ************************************************************************* //
