/*--------------------------------*- C++ -*----------------------------------*\
| =========                 |                                                 |
| \\      /  F ield         | OpenFOAM: The Open Source CFD Toolbox           |
|  \\    /   O peration     | Version:  4.0                                   |
|   \\  /    A nd           | Web:      www.OpenFOAM.org                      |
|    \\/     M anipulation  |                                                 |
\*---------------------------------------------------------------------------*/
FoamFile
{
    version     2.0;
    format      ascii;
    class       volScalarField;
    location    "21";
    object      p;
}
// * * * * * * * * * * * * * * * * * * * * * * * * * * * * * * * * * * * * * //

dimensions      [0 2 -2 0 0 0 0];

internalField   nonuniform List<scalar> 
918
(
0.218135
0.90037
0.0103762
0.217177
-0.00193005
0.867452
-0.84472
0.393677
0.1982
-0.473233
-0.150113
0.187783
0.728154
0.495129
-1.4735
-0.0050122
0.350051
-0.728921
0.196899
-0.00438259
0.46834
0.204889
0.207901
0.19847
0.258194
0.482948
0.608967
0.00234869
-0.00074255
-0.00423776
0.00436119
-0.0101525
-0.00768565
0.751073
0.802184
0.824854
0.16696
-0.00733128
-0.695285
-0.771352
-0.756343
-0.894174
0.383053
0.387966
-0.499029
0.395738
0.411343
0.185743
0.197468
0.198303
0.199681
0.198537
0.199956
0.15677
-0.466158
-0.490707
-0.469125
-0.473154
-0.173856
-0.202146
-0.257397
-0.115288
-0.0876143
0.123195
0.184735
0.182614
0.192607
0.202429
0.839919
0.811804
0.837939
0.75177
0.768194
0.706085
0.678559
0.515004
0.536715
0.48132
0.468464
-1.91763
-2.89223
-0.87074
-0.611395
0.000587145
-0.00854446
-0.0101071
0.336406
0.34319
0.347855
0.361989
0.747127
-0.718918
-0.86377
0.197085
0.1958
0.204326
0.205012
0.200999
0.200116
0.00540936
0.00574081
-0.015321
-0.00188247
-0.00731308
0.452079
0.445669
0.199022
0.196083
0.210297
0.232628
0.221512
-0.0335802
0.26845
0.289448
0.291287
0.464554
0.463307
0.470398
0.582565
0.545971
0.646005
0.669319
0.0125841
0.00371746
-0.0121206
-0.00861728
-0.0117869
0.163248
0.156436
0.18045
0.170572
0.172865
-0.0911651
-0.226603
0.0764604
0.0997668
-0.602507
-0.670196
-0.777682
-0.79222
-0.901791
0.217672
0.373357
0.375961
-0.517154
-0.43314
-0.578699
-0.358089
-0.428136
0.176384
0.183053
0.178221
0.193287
0.187967
0.189864
0.20162
0.198705
0.200298
0.198137
0.319472
0.0905065
0.0603507
-0.588745
-0.490581
-0.574617
-0.475107
-0.44399
-0.15107
-0.152067
-0.174765
-0.125872
-0.419737
-0.321107
-0.36954
-0.0589368
-0.041417
0.115929
0.107082
0.133427
0.139379
0.176785
0.17748
0.180408
0.178396
0.629233
0.651727
0.659175
0.632771
-3.90558
-6.73305
-0.27694
-0.133587
0.00153771
0.00322628
0.00255037
0.00596867
0.00243161
0.000149278
-0.0566925
-0.041701
-0.0144327
-0.0228202
0.323611
0.327033
0.663254
0.658975
0.650719
0.61258
0.185133
0.187233
0.19268
0.188568
-0.018685
0.00136148
-0.00874052
0.413241
0.432234
0.428737
-0.0689269
-0.155563
0.0128453
0.0398332
0.310001
0.294022
0.310898
0.355861
0.393217
0.676794
0.695111
0.693341
0.701727
0.745671
0.762001
0.727453
0.144007
0.153389
0.148669
0.184135
0.181618
0.182786
0.177256
0.179299
0.176425
-0.380538
-0.7679
0.16683
0.181912
0.142692
0.151168
0.293923
0.373752
0.358138
0.364944
0.369559
-0.294178
-0.358505
0.0112208
-0.0359936
0.0651848
0.0963749
0.0803501
0.600529
0.560636
0.610706
0.584122
0.545335
0.571724
-0.719804
-2.25111
-1.35184
0.23161
0.0371052
0.128799
-0.096353
-0.0986793
-0.0823453
0.641258
0.719372
0.35521
0.509322
0.532622
0.431256
0.46215
0.519884
0.444054
0.479707
0.515251
0.494265
0.181322
0.171167
0.156809
0.454491
0.509986
-0.181795
-0.232107
-0.285821
-0.137573
-0.0610609
-0.0940904
0.690386
0.574417
0.653094
0.195891
0.196555
0.00987537
0.0139005
0.200389
0.200331
0.0057671
0.000597291
0.108811
-1.18524
-0.191717
0.188626
0.179502
0.196113
-0.43615
0.0802999
-0.208754
-0.18341
0.0302101
0.186243
0.132834
0.0997324
0.0058645
0.00389569
-0.0123123
-0.530566
0.193512
0.191837
0.195654
0.196684
0.197348
0.0049773
0.00584827
0.00451163
-0.00595674
0.000716784
-0.00198718
0.161649
0.176584
-0.492874
0.195657
0.197864
0.197567
0.190519
0.196249
0.194501
0.00663392
0.00166712
-0.00667146
-0.0821746
0.0325488
0.365472
0.472668
0.320289
0.0911342
-0.153815
0.261153
0.329769
0.227252
0.393645
0.360458
0.382436
-0.131755
-0.27755
-0.121552
-0.176682
0.186622
0.185307
0.177696
0.174936
0.191261
0.189388
0.193619
0.1905
0.193418
0.195025
-0.443312
-0.451507
-0.424255
-0.477313
0.0314677
0.283734
-0.0477417
0.0423555
-0.144225
-0.169651
-0.122178
-0.292529
-0.336654
-0.362672
-0.0365246
-0.140159
-0.205757
0.0491651
-0.060907
-0.258425
-0.119291
-0.203977
0.180648
0.17796
0.186472
0.193122
0.140707
0.142387
0.115182
0.131448
0.119118
0.0643366
0.0974394
0.0751718
0.00688833
0.00780438
0.00493758
0.00736331
0.0017139
0.00534262
0.00740846
0.0108732
6.03613e-05
0.00136504
-0.012749
-0.00385606
-0.501559
-0.611779
0.64008
0.60267
-0.208463
0.182725
0.189152
0.185956
0.190875
0.193764
0.194508
0.192304
0.189033
0.177573
0.179584
0.175336
0.176125
-0.435676
-0.569988
-0.392883
-0.456056
-0.200687
0.300531
0.0451965
-0.0139622
-0.0178656
0.191908
0.586914
0.395308
0.424713
0.451529
-0.683948
-0.280765
-0.613405
0.00489212
-0.176357
0.364727
0.416131
0.43803
0.384867
0.33418
-0.454667
0.194506
-0.373689
-0.331706
-0.143885
-0.242749
0.410998
0.34468
0.350053
0.373195
0.39675
0.349996
0.328416
0.325843
0.36346
0.367562
0.165847
-0.0500423
-0.0957149
-0.13158
0.332905
0.205048
0.259169
0.178272
0.181374
0.184271
0.182776
0.166312
0.173252
0.16912
0.174532
0.177244
0.186812
0.186826
0.182455
0.18463
-0.448213
-0.4642
-0.410859
-0.456312
-0.472147
-0.51417
-0.420615
-0.224184
-0.285336
-0.0644191
0.0228319
-0.256134
-0.40711
-0.368272
-0.354996
-0.122463
-0.092226
-0.438286
-0.173067
-0.266225
-0.320313
-0.0687833
-0.0514815
-0.328258
-0.411102
-0.44331
-0.346164
-0.214168
-0.195679
-0.216459
-0.0800359
-0.161745
-0.0992018
-0.0545147
-0.500958
-0.501864
-0.486911
-0.500414
0.00689458
0.0048
0.00244984
-0.0236435
-0.0130657
-0.0168744
0.175747
0.175753
0.175723
0.189403
0.201362
0.21665
0.182688
0.159872
0.152475
0.154514
0.130663
0.138908
0.135516
0.147611
0.165391
0.1731
0.172356
0.174411
0.15891
0.159467
0.149245
0.153007
0.131452
0.114476
0.104633
0.00734803
0.00566473
0.00523135
0.00374017
0.0102982
0.00916647
-0.00255872
0.00663687
0.000780859
0.0037549
-0.0190893
0.0121738
0.00709847
-0.423676
-0.353945
-0.520947
-0.553694
-0.621457
0.554022
0.663841
0.491254
0.275355
0.274247
0.497113
0.592513
0.258078
0.424848
0.458369
0.195967
0.481142
0.18758
0.186842
0.184275
0.183908
0.185232
-0.34589
-0.24954
-0.236739
-0.185754
-0.071185
0.0426922
-0.0434623
-0.165967
-0.0260351
-0.0103591
0.295295
0.310225
0.254134
0.280274
0.280488
0.10659
0.181449
0.235316
0.192371
0.234175
0.256018
0.218344
0.247736
0.194626
0.154348
0.153566
0.101141
0.120808
0.0987429
0.0818216
0.177074
0.156756
0.165364
0.159135
0.177805
0.205597
0.200499
0.223942
0.237102
0.16403
0.126792
0.13495
0.1613
0.126168
0.138505
0.152422
-0.138967
-0.237514
-0.148237
-0.44172
-0.347556
-0.363571
-0.408977
-0.374522
-0.0879352
-0.79214
-0.7569
-1.39526
0.129906
0.616881
0.365002
0.337299
0.39476
0.371258
0.375051
0.407963
0.413436
0.323354
0.336137
0.343039
0.292221
0.316951
0.348112
0.343858
0.175059
0.0571986
0.0459204
0.0120524
-0.107627
-0.0779867
0.122479
0.0463508
-0.0249185
-0.0182375
0.141589
0.0358521
0.0975857
0.135437
0.0681174
0.0274932
0.222029
0.290518
0.280944
0.253428
0.168892
0.181121
0.205782
0.242252
0.267755
0.301783
0.174289
0.179859
0.181117
0.178774
0.176293
0.178817
0.178736
0.181339
0.182266
0.184936
0.183999
-0.409028
-0.455927
-0.478807
-0.436468
-0.4869
-0.456327
-0.334401
-0.381242
-0.53566
-0.549542
-0.499937
-0.479054
-0.480779
-0.49117
-0.275867
-0.252605
-0.21939
-0.288999
-0.0485861
0.0910831
0.143882
0.020386
-0.0617144
-0.0452052
-0.0140927
-0.493086
-0.311106
-0.391809
-0.326292
-0.449046
-0.162193
-0.130194
-0.145059
-0.17938
-0.217565
-0.0905874
-0.00847645
-0.0242772
-0.0405339
-0.0248764
-0.0117679
0.164031
0.157999
0.155367
0.151463
0.150785
0.161074
0.16589
0.168514
0.174116
0.174748
0.165943
0.170207
0.173191
0.00713346
0.00703472
0.0113958
-0.0140781
0.000777427
0.00651938
-0.00454606
-0.229764
-0.295812
-0.299494
-0.336191
-0.464255
-0.407761
0.133299
0.113188
0.140215
0.345505
0.196416
0.110786
0.197235
0.302319
-0.0752229
0.114445
-0.0478306
0.532729
0.415952
0.560377
0.18325
-0.114128
0.0291238
0.0844649
-0.111859
-0.0391713
-0.0144741
-0.125351
-0.0914653
-0.0638683
0.0357391
-0.087186
-0.118799
-0.362337
-0.177559
-0.0473091
-0.0676385
0.0599679
0.121428
-0.100898
-0.183972
-0.222673
0.284303
0.303249
0.320258
0.292487
0.316693
0.240644
0.232479
0.250832
0.261782
0.254851
-1.12714
-0.838514
-1.77867
-1.08806
-0.643502
0.159052
0.115528
0.406883
0.300761
0.382171
0.365057
0.323234
0.285437
0.294734
0.332969
0.0349995
0.141042
0.115607
0.124132
0.0294242
-0.0354579
0.25649
0.251348
0.286726
0.310182
0.280184
0.311697
0.172433
0.171962
0.171685
0.168723
0.167085
0.168568
-0.404318
-0.473253
-0.311636
-0.326559
-0.386643
-0.452385
0.0159014
-0.0176784
-0.0166173
-0.00910038
0.0193319
-0.00123904
-0.192979
-0.251374
-0.318137
-0.294684
-0.348438
-0.414547
-0.434165
-0.330713
-0.238043
-0.248932
0.0517242
0.304899
0.126884
0.298796
0.132737
0.193408
0.138903
0.127187
0.162902
0.0313467
0.109638
-0.154945
-0.651016
-0.559736
0.417458
0.439797
0.221426
0.0265817
-0.19661
0.00167082
0.203673
0.144369
0.184576
0.250563
0.244659
-0.36051
-0.284061
-0.0552541
0.171745
-0.132704
-0.137642
-0.142847
0.0208966
-0.0463504
)
;

boundaryField
{
    wall-4
    {
        type            zeroGradient;
    }
    velocity-inlet-5
    {
        type            zeroGradient;
    }
    velocity-inlet-6
    {
        type            zeroGradient;
    }
    pressure-outlet-7
    {
        type            fixedValue;
        value           uniform 0;
    }
    wall-8
    {
        type            zeroGradient;
    }
    frontAndBackPlanes
    {
        type            empty;
    }
}


// ************************************************************************* //
