/*--------------------------------*- C++ -*----------------------------------*\
| =========                 |                                                 |
| \\      /  F ield         | OpenFOAM: The Open Source CFD Toolbox           |
|  \\    /   O peration     | Version:  4.0                                   |
|   \\  /    A nd           | Web:      www.OpenFOAM.org                      |
|    \\/     M anipulation  |                                                 |
\*---------------------------------------------------------------------------*/
FoamFile
{
    version     2.0;
    format      ascii;
    class       volVectorField;
    location    "21";
    object      U;
}
// * * * * * * * * * * * * * * * * * * * * * * * * * * * * * * * * * * * * * //

dimensions      [0 1 -1 0 0 0 0];

internalField   nonuniform List<vector> 
918
(
(0.98515 -0.000533933 0)
(0.00500184 2.96626 0)
(-0.0160388 1.57091 0)
(0.979691 0.00216779 0)
(-0.00304719 1.55597 8.72683e-21)
(-0.00703203 2.94878 -1.84102e-18)
(0.855525 1.19932 7.43148e-19)
(0.413007 0.187253 -8.64661e-21)
(0.999905 -0.000322691 0)
(0.0718978 0.809348 0)
(-0.0535599 0.997879 0)
(0.761365 -0.0115125 0)
(0.0111187 2.93031 0)
(0.0020074 2.79452 0)
(-0.0176097 3.16742 1.09748e-18)
(-0.00306856 1.44049 6.35679e-21)
(0.534428 0.0833855 5.41825e-19)
(0.193126 1.20391 6.56794e-19)
(0.962989 0.00514352 0)
(0.00407628 1.29429 0)
(0.13693 0.246094 -4.63767e-19)
(1.00208 -0.00499551 0)
(1.00023 -0.00975271 0)
(0.975757 -0.00645096 0)
(0.673289 -0.037709 0)
(0.0174038 2.63246 0)
(-0.0150505 2.91013 6.33471e-19)
(-0.0263828 1.59058 0)
(-0.033164 1.72997 0)
(-0.0271611 1.58323 0)
(-0.00503151 1.85129 0)
(0.00268055 1.5817 -6.90248e-21)
(-0.0026088 1.45533 0)
(-0.0206227 2.98758 -6.42745e-23)
(-0.0167039 3.00531 1.43106e-18)
(0.00210817 3.00021 0)
(0.870865 -0.00913132 0)
(0.394358 0.931509 -4.08071e-20)
(0.83571 1.21717 -1.04432e-18)
(0.982073 1.05358 9.77299e-19)
(0.702296 1.31294 -1.72324e-19)
(0.698949 1.30252 9.66278e-19)
(0.447379 0.275165 8.43621e-21)
(0.441293 0.173301 0)
(1.16403 0.562029 0)
(0.414974 0.286036 3.96176e-20)
(0.373447 0.189024 -4.11131e-20)
(0.919493 -0.00744509 0)
(1.00028 5.62769e-05 0)
(0.99991 0.000305911 0)
(1.00352 -0.00778794 0)
(1.00094 -0.0010617 0)
(1.00017 -8.19927e-06 0)
(0.0505136 1.81816 -2.91543e-19)
(0.0390197 0.949123 0)
(0.0806403 0.912727 0)
(0.0142313 0.863099 0)
(0.00892459 0.729164 0)
(0.00433889 1.53522 0)
(-0.0669703 1.04659 0)
(-0.0510815 0.853735 0)
(-0.0472016 1.1869 0)
(-0.0349344 1.11605 0)
(0.842157 -0.00411833 0)
(0.861372 0.0107239 0)
(0.774657 -0.00268469 0)
(0.854408 0.0159204 0)
(0.7476 -0.0131423 0)
(0.0147056 3.00039 6.73438e-19)
(0.0115355 3.00789 0)
(0.00614019 3.00285 0)
(0.0135543 2.99733 7.50099e-24)
(0.00799682 2.95845 -1.0009e-18)
(0.0144847 2.98204 0)
(0.0107777 2.90365 0)
(0.0252999 2.93019 1.33155e-24)
(0.0041075 2.82495 0)
(0.0317865 2.91538 0)
(-0.00668101 2.74475 0)
(0.311435 3.56787 0)
(-0.132436 3.65014 0)
(0.141215 3.25819 -1.02137e-18)
(-0.0111738 2.9902 0)
(-0.0242399 1.82649 0)
(0.00763776 1.61791 -6.27044e-21)
(-0.00307864 1.44791 1.11953e-20)
(0.586879 0.151394 -1.86247e-19)
(0.52883 0.051469 -1.81393e-19)
(0.575305 0.181325 -5.62083e-19)
(0.523686 0.112873 -3.78087e-19)
(0.207359 0.893812 0)
(0.271945 1.34907 -6.77678e-19)
(0.39779 1.30341 1.11236e-18)
(0.98754 0.00847054 0)
(0.942383 0.0059553 0)
(1.00029 0.000561413 0)
(1.00288 0.00927853 0)
(1.00306 0.00849634 -1.01937e-18)
(0.99195 0.00966284 7.69784e-19)
(-0.0110001 1.45722 0)
(-0.00611196 1.27928 0)
(-0.0347429 1.59723 0)
(-0.0205553 1.50065 0)
(-0.00230486 1.32921 0)
(0.202927 0.257228 1.42995e-19)
(0.249084 0.234514 0)
(0.993559 -0.00827001 0)
(0.95439 -0.0064096 0)
(0.823068 0.0245807 0)
(0.790119 0.0365041 0)
(0.725419 -0.0283804 0)
(0.990542 -0.00374703 0)
(0.732434 0.05149 0)
(0.583773 -0.0169757 7.19918e-19)
(-0.0354926 2.86649 3.1364e-19)
(0.0434032 2.90829 0)
(0.0566412 2.88308 0)
(-0.00510636 2.69673 0)
(-0.0131991 2.98516 5.80966e-19)
(-0.0182862 2.89539 0)
(-0.0154186 2.98812 -1.84084e-18)
(-0.0134087 2.92521 6.36267e-19)
(-0.0300063 1.81206 0)
(-0.025429 1.81095 0)
(0.00261964 1.59931 2.81749e-22)
(0.00422611 1.57451 0)
(-0.005542 1.45088 0)
(0.936622 -0.00599959 0)
(0.855205 -0.0093795 0)
(0.864523 0.00859706 0)
(0.948616 -0.00723982 0)
(0.883379 -0.00840158 0)
(0.508194 1.12732 3.98543e-20)
(0.56011 1.18276 0)
(0.353921 0.869203 3.03576e-21)
(0.297174 0.730781 0)
(0.942015 1.08993 -2.82702e-19)
(1.05386 0.888215 5.79369e-19)
(0.39497 1.4017 0)
(0.554954 1.37948 0)
(0.556267 1.33242 0)
(0.0980731 0.149738 -1.18443e-19)
(0.490482 0.259407 0)
(0.474463 0.158974 1.07889e-19)
(1.02352 0.94108 0)
(1.08912 0.783814 0)
(1.11507 0.726336 -5.0788e-19)
(1.14413 0.621279 0)
(1.19543 0.404302 5.80986e-20)
(0.956996 -0.00896899 0)
(0.962185 -0.0102313 0)
(0.900929 -0.00809919 0)
(0.9842 -0.0091276 0)
(0.97453 -0.00935855 0)
(0.936879 -0.0062592 0)
(1.0002 0.00231824 0)
(1.00086 0.00129742 0)
(0.999931 0.00086261 0)
(0.00923644 2.02565 1.75427e-19)
(0.126035 1.71839 0)
(-0.0345997 2.07639 1.93632e-19)
(-0.0182698 1.85511 -1.05177e-19)
(0.133854 1.19708 -5.44408e-19)
(0.0723291 1.04702 0)
(0.10518 1.04798 0)
(0.00608164 0.822786 0)
(-0.0108224 0.699457 0)
(-0.0062952 1.75766 2.22322e-21)
(-0.063831 1.62682 0)
(0.0533554 1.70863 1.30935e-19)
(-0.00274559 1.46453 -2.27187e-19)
(-0.0240462 0.819829 0)
(-0.054529 0.912357 0)
(-0.0352633 0.746357 0)
(-0.0350948 1.29946 0)
(-0.0217645 1.19149 0)
(0.933458 0.015246 0)
(0.863477 -0.00086002 0)
(0.917301 0.00585692 0)
(0.835721 -0.00782419 0)
(0.811012 0.00531194 0)
(0.902531 0.0151946 0)
(0.881262 0.0133583 0)
(0.786704 0.0034268 0)
(0.00588875 3.06486 -5.89531e-21)
(0.0163653 3.05794 0)
(0.0146623 2.96915 0)
(0.00855633 2.87639 0)
(0.929611 3.98806 0)
(1.24546 3.3177 1.01889e-18)
(0.0714938 3.08242 0)
(-0.0266221 2.91067 0)
(-0.0306157 1.80216 0)
(-0.0331283 1.81993 0)
(-0.0287099 1.80862 0)
(-0.0100711 1.83985 4.90283e-21)
(-0.0245111 1.83789 0)
(-0.0179126 1.83354 0)
(0.00860374 1.46268 -2.50405e-20)
(0.0228134 1.6579 -4.31836e-20)
(0.0109909 1.6347 -1.12699e-20)
(-0.000955684 1.456 0)
(0.616624 0.124714 2.74401e-19)
(0.547748 0.021646 -2.67176e-19)
(0.267034 1.5267 0)
(0.259051 0.663749 -2.06284e-19)
(0.183258 1.61419 -6.94172e-19)
(0.244642 1.16117 6.95915e-19)
(0.90383 0.00671146 0)
(0.967807 0.0106788 0)
(0.974934 0.0105981 0)
(0.924395 0.00662361 0)
(-0.027953 1.38152 0)
(-0.0179114 1.43171 0)
(-0.0147515 1.24018 0)
(0.372796 0.290284 3.66539e-19)
(0.316107 0.272491 -4.48183e-19)
(0.322971 0.210566 0)
(1.11459 0.0849524 -4.91296e-21)
(1.0999 0.0391296 0)
(1.02714 0.0387171 0)
(0.930086 0.00464938 0)
(0.641966 0.0931756 0)
(0.673121 0.0678978 -1.15922e-18)
(0.563142 0.00600445 4.43434e-19)
(0.00978248 2.98224 4.05799e-19)
(-0.0321971 2.86763 4.81173e-20)
(0.00377331 3.05023 -1.27582e-20)
(0.0199732 3.04347 4.5885e-19)
(-0.0150015 2.99654 2.1177e-20)
(-0.012985 2.94941 -8.57498e-23)
(-0.0172964 3.01201 -4.02165e-19)
(0.0148136 3.02402 2.91048e-19)
(0.00731606 3.03682 -4.54272e-19)
(0.924262 -0.000234066 0)
(0.933562 -0.00200479 0)
(0.840417 -0.00752767 0)
(0.957363 0.0115183 0)
(0.944054 0.0133777 0)
(0.883447 0.0072724 0)
(0.918569 0.0144242 0)
(0.927788 0.0145481 0)
(0.8393 0.00774818 0)
(0.716836 1.41297 3.40604e-19)
(0.75257 1.52434 0)
(0.221876 0.362209 2.40042e-20)
(0.182139 0.585195 1.92521e-19)
(0.266006 0.689927 -1.06031e-19)
(0.227659 0.573193 1.92502e-19)
(0.291381 0.699689 6.89877e-19)
(0.104121 0.179883 2.1019e-19)
(0.552947 0.218111 4.06482e-19)
(0.520935 0.241478 1.00213e-19)
(0.500747 0.141827 2.04465e-19)
(1.18472 0.461317 3.06323e-19)
(1.20237 0.256083 3.2048e-19)
(-0.0583795 2.05391 3.34474e-20)
(-0.0175212 1.8366 0)
(0.978336 0.0287146 0)
(0.945873 0.0190511 0)
(0.88951 -0.00214853 0)
(0.0111491 3.07471 0)
(0.0200896 2.94424 7.83897e-19)
(0.0165109 2.95652 0)
(0.00607686 2.85066 -7.7758e-19)
(0.00617199 3.09203 1.85543e-19)
(0.00713176 3.08214 0)
(0.786614 1.82975 -2.42924e-19)
(1.25257 2.51359 6.70184e-19)
(0.769533 1.97111 -1.50568e-18)
(0.0210251 2.98453 -2.91201e-19)
(0.0369714 3.00691 0)
(-0.0324894 2.88204 0)
(0.0751858 1.67113 1.87567e-20)
(0.0445369 1.68971 1.47866e-19)
(0.0372444 1.4602 -1.03392e-21)
(0.279014 1.33715 6.67815e-19)
(0.218603 0.444521 -4.60826e-19)
(0.0566798 1.94574 4.60309e-19)
(0.133942 1.82323 -5.77414e-19)
(0.2043 1.46331 8.26404e-20)
(0.00575448 3.11844 -9.69861e-19)
(0.0119411 3.11911 1.05908e-18)
(-0.00881462 2.98079 5.03016e-19)
(-0.00366197 2.9777 -4.42058e-19)
(-0.0216371 2.88162 -5.12313e-19)
(0.00856428 3.09931 -1.35643e-18)
(0.00180553 3.10533 1.36035e-18)
(0.225449 0.617896 0)
(0.178033 0.601754 -3.78353e-19)
(0.121225 0.204646 1.69046e-19)
(0.320901 0.821065 6.3107e-19)
(0.170927 0.224991 -9.63568e-19)
(1.19826 0.171312 -6.21637e-20)
(1.20199 0.308398 0)
(1.18692 0.11955 1.2678e-19)
(-0.0435622 1.88758 2.41188e-21)
(-0.0392102 1.99042 0)
(-0.0503107 1.75785 0)
(0.329999 1.22003 -2.42909e-19)
(0.350681 1.03749 -5.17485e-19)
(0.190113 0.320133 8.86527e-19)
(1.00584 -0.0110678 0)
(1.00759 -0.00761503 1.86046e-19)
(-0.0314641 1.79474 0)
(-0.0391338 1.8009 0)
(1.00221 0.00337863 1.6733e-21)
(1.00354 0.00923806 3.82629e-19)
(-0.0115378 1.84769 -6.42966e-21)
(-0.00759585 1.84997 0)
(0.0390738 3.18339 1.00199e-19)
(0.400429 3.50283 0)
(1.11771 0.645255 7.0022e-20)
(1.01313 0.0127601 -2.07999e-21)
(1.02119 -0.0105094 0)
(1.00173 -4.27362e-05 1.7381e-24)
(0.162705 1.24567 0)
(0.191728 2.58089 0)
(-0.227763 1.24045 0)
(-0.217825 2.54477 -1.69517e-19)
(-0.151883 2.18826 3.09987e-20)
(1.00659 0.0128444 3.06601e-21)
(1.04964 0.00786873 0)
(1.07469 0.0307746 0)
(-0.0347502 1.82243 0)
(-0.0326402 1.90804 0)
(-0.0520943 1.74398 0)
(0.285758 1.45358 -4.52209e-19)
(1.01109 -0.00960769 0)
(1.00947 -0.0153068 0)
(1.00238 0.000392856 2.35653e-19)
(1.0055 -0.00500237 -2.79932e-19)
(1.00123 -0.00109047 0)
(-0.0442838 1.80883 0)
(-0.034914 1.7921 0)
(-0.0362355 1.80167 0)
(-0.0433296 1.74924 0)
(-0.0326985 1.76794 0)
(-0.0368981 1.76399 0)
(1.03268 -0.0120896 0)
(1.02069 0.0158528 -1.1562e-21)
(0.781684 1.26476 5.3093e-19)
(1.00244 0.000256127 -2.36667e-19)
(1.00375 0.00533381 2.79058e-19)
(1.00127 0.00213235 0)
(1.01303 0.0100786 2.29882e-19)
(1.00828 0.00830932 -2.86378e-19)
(1.00865 0.0144645 0)
(-0.0297484 1.90415 0)
(-0.0176485 1.87393 -2.36336e-22)
(-0.0162529 1.87606 2.1463e-21)
(1.19006 0.256438 -9.66475e-20)
(1.1286 0.0897827 0)
(0.0524457 3.078 -4.98996e-19)
(0.0681945 2.85118 -4.02657e-20)
(0.147547 3.19739 7.87689e-19)
(0.141614 3.22642 7.12849e-21)
(0.140086 3.24243 0)
(0.0210148 3.13853 1.06737e-19)
(0.0803185 3.16216 4.86076e-19)
(0.072967 3.18952 -2.06791e-19)
(0.0250709 3.12855 0)
(0.664065 0.325215 0)
(0.603235 0.367708 0)
(1.09065 0.671817 -2.6485e-19)
(1.08791 0.81231 4.06174e-19)
(1.14628 0.561384 0)
(1.17767 0.50296 0)
(1.01601 0.0130129 -4.2426e-19)
(1.01461 0.01398 5.29985e-19)
(1.02515 -0.0104988 0)
(1.02336 -0.0121337 0)
(1.00689 0.00275341 0)
(1.01023 0.00313492 0)
(1.00493 0.00156565 0)
(1.00987 0.00580977 0)
(1.00824 0.00635848 0)
(1.0042 0.00462669 0)
(0.181803 1.24782 0)
(0.126645 1.09319 0)
(0.209606 1.33557 0)
(0.12471 1.3361 0)
(0.167737 2.59159 0)
(0.20467 2.63443 -2.05527e-19)
(0.0951456 2.65688 0)
(0.0839855 2.64129 -1.27621e-20)
(-0.0972116 2.70928 2.1144e-19)
(-0.189984 1.30201 0)
(-0.181152 1.33969 0)
(-0.210921 1.22411 0)
(-0.147373 1.07186 0)
(-0.399216 2.2276 2.39905e-19)
(-0.223439 2.32625 -8.06512e-20)
(-0.209209 2.5302 -1.75633e-19)
(-0.16841 2.42416 0)
(-0.140216 2.18274 -4.65885e-20)
(-0.0830433 2.11428 3.66494e-20)
(-0.430728 2.1974 -2.22154e-19)
(-0.318643 2.25958 1.05678e-19)
(-0.296324 2.3927 2.34441e-19)
(1.01645 0.02541 4.18234e-19)
(1.01193 0.0129373 -5.13106e-19)
(1.00812 0.0229776 -4.38833e-19)
(0.991791 0.0124561 5.58989e-19)
(1.04968 0.00849831 0)
(1.03633 -0.0114098 0)
(1.07126 0.0392429 0)
(1.05569 0.0180507 0)
(1.05424 0.0120818 0)
(1.11217 0.0773858 0)
(1.08456 0.0485521 0)
(1.08757 0.0391898 0)
(-0.0276628 1.85284 -1.43546e-21)
(-0.0418863 1.83984 0)
(-0.0299752 1.84081 0)
(-0.0440569 1.94051 3.81932e-21)
(-0.0351313 1.95578 1.62491e-22)
(-0.0751084 1.81475 7.51097e-21)
(-0.0529091 1.80863 -7.61472e-21)
(-0.063297 1.7689 0)
(-0.0493696 1.78784 0)
(-0.0470081 1.78968 0)
(-0.0718633 1.72171 0)
(-0.0529908 1.67111 0)
(0.390129 1.47189 8.5509e-19)
(0.409517 1.48652 3.31498e-19)
(0.588677 2.4321 -1.51872e-19)
(0.403826 2.52098 4.2577e-19)
(0.341418 2.09023 -4.50092e-20)
(1.02067 -0.00872704 0)
(1.01515 -0.00985411 0)
(1.01485 -0.0157059 0)
(1.00752 -0.00123701 0)
(1.00464 -0.0014979 0)
(1.00745 -0.00472684 0)
(1.00956 -0.00399763 0)
(1.01376 -0.00461832 0)
(1.02216 0.0162741 4.01558e-19)
(1.01737 0.0156236 -5.16113e-19)
(1.0238 0.0200836 -4.08318e-19)
(1.01751 0.0207795 5.11633e-19)
(0.756373 1.31169 0)
(0.687576 1.36983 6.30626e-19)
(0.858066 1.20279 3.6861e-19)
(0.898894 1.16076 -4.90503e-19)
(1.14876 2.61685 -5.80157e-19)
(0.835566 0.108126 2.80444e-19)
(1.1283 0.101173 0)
(1.17348 0.180598 8.25789e-20)
(1.15935 0.156942 3.61289e-21)
(0.982047 0.122393 0)
(0.147911 2.96707 1.1409e-19)
(0.12539 2.87306 -6.45097e-19)
(0.0377775 2.35628 4.68786e-19)
(0.10313 0.0957958 -1.96722e-19)
(0.345133 3.43096 -4.51484e-19)
(0.1994 3.32177 0)
(0.240769 3.36634 5.87976e-19)
(0.255769 3.0407 -7.07341e-19)
(0.349839 3.20017 0)
(0.00769582 3.12048 2.56107e-20)
(0.0189059 3.12938 -3.26636e-19)
(0.0165536 3.12531 4.80772e-19)
(0.0377748 3.13973 0)
(0.0361303 3.15177 0)
(1.21572 2.61847 0)
(0.51027 0.854381 -2.24863e-19)
(1.01925 0.987552 -2.09704e-19)
(0.954369 1.05371 0)
(0.798238 0.949347 6.06212e-20)
(1.04047 0.861258 3.05172e-20)
(0.408032 0.455525 -5.27089e-19)
(0.701154 0.336241 -2.22194e-20)
(0.68808 0.280072 2.15403e-19)
(0.614919 0.398591 1.72656e-20)
(0.552948 0.385331 -7.1106e-19)
(0.674565 0.359323 0)
(0.708539 0.424409 3.51169e-19)
(0.705909 0.421772 0)
(0.640872 0.388152 0)
(0.624794 0.329919 0)
(0.765697 0.58714 1.21355e-19)
(1.18863 0.272237 6.48269e-20)
(1.18497 0.402959 0)
(1.19703 0.358158 0)
(0.766552 0.198337 3.25349e-19)
(0.820486 0.520771 -1.75438e-19)
(0.737746 0.492917 2.84644e-19)
(0.913456 0.418861 -2.61755e-19)
(1.01928 0.0144909 2.77874e-19)
(1.01763 0.013837 -2.85596e-19)
(1.01506 0.0155308 0)
(1.03427 -0.00889901 0)
(1.02905 -0.00948991 -2.53838e-19)
(1.02681 -0.0124035 2.50958e-19)
(1.02595 0.00794208 0)
(1.02467 0.0130631 0)
(1.0115 0.00395427 0)
(1.01427 0.00902114 0)
(1.01515 0.00366919 0)
(1.01389 0.00206183 0)
(0.139074 1.05974 0)
(0.0539937 0.960567 0)
(0.270087 1.37774 4.21928e-19)
(0.260818 1.45007 2.62852e-19)
(0.196685 1.43293 6.00496e-19)
(0.202548 1.42717 -9.60167e-19)
(0.219265 1.41009 0)
(0.209528 1.60909 2.51523e-19)
(0.243942 1.61371 0)
(0.328342 2.03967 6.53823e-20)
(0.340137 2.37916 2.23314e-19)
(0.204903 1.46731 -2.28659e-19)
(0.243393 1.39318 2.01752e-19)
(0.22312 1.38633 -1.61757e-19)
(0.255052 1.33634 3.32061e-19)
(0.197317 1.58326 0)
(0.281396 1.61153 -2.09766e-19)
(-0.0199898 2.52135 1.89768e-19)
(-0.070287 2.73615 0)
(0.104408 2.51016 -3.0432e-19)
(0.0276497 2.59114 0)
(0.0513326 2.70569 1.2864e-20)
(-0.028265 2.73713 0)
(-0.380921 1.54754 3.5443e-19)
(-0.420929 1.69066 0)
(-0.247695 1.33888 0)
(-0.302994 1.33824 -3.9961e-19)
(-0.221504 2.6284 -7.37437e-20)
(-0.168455 2.72111 -2.7899e-19)
(-0.181021 2.68485 -1.79819e-21)
(-0.396529 2.02192 -3.70937e-20)
(-0.43967 1.97899 -8.32087e-20)
(-0.156855 1.42959 0)
(-0.111716 1.4626 0)
(-0.178454 1.85244 -7.22189e-19)
(-0.203006 1.40632 -7.01029e-19)
(-0.255372 1.65484 8.87884e-19)
(0.0787164 1.81433 0)
(-0.0886535 1.88379 -1.79673e-20)
(-0.0766988 1.9227 5.22863e-21)
(-0.0915691 1.94555 -1.12492e-21)
(-0.330156 1.9202 4.33279e-20)
(-0.150172 2.05118 2.77047e-21)
(-0.182506 2.10851 1.43338e-20)
(1.02048 0.0237703 -2.74244e-19)
(1.01893 0.0239319 2.73059e-19)
(1.01447 0.0209174 0)
(1.00529 0.0481955 3.99112e-19)
(0.993802 0.034518 -4.69979e-19)
(0.965453 0.0229392 5.45372e-19)
(1.00616 0.0825843 -5.15902e-20)
(1.03805 -0.0111955 0)
(1.03946 -0.00753718 2.2603e-19)
(1.03135 -0.0202405 -2.28077e-19)
(1.05708 0.0433838 -1.23656e-20)
(1.05521 0.0262625 1.10773e-19)
(1.05421 0.0513789 0)
(1.04667 0.0434965 -4.16022e-20)
(1.03862 0.0278275 0)
(1.03413 0.023057 0)
(1.02926 0.0112238 0)
(1.02772 0.0151532 0)
(1.04642 0.0265204 8.67302e-20)
(1.04678 0.0193289 -1.96689e-19)
(1.04931 0.028555 -8.69482e-20)
(1.04716 0.0286374 -1.01397e-19)
(1.05502 0.0572901 1.8025e-19)
(1.07692 0.0508112 0)
(1.0805 0.0932579 0)
(-0.082108 1.87893 -7.43019e-21)
(-0.0530529 1.84307 -1.3074e-21)
(-0.0643801 1.85185 0)
(-0.0542861 1.88257 7.43698e-21)
(-0.033982 1.85774 2.63082e-21)
(-0.0402711 1.86963 -1.51162e-21)
(-0.0686322 2.08453 -4.16639e-20)
(-0.0968096 1.97984 -4.50748e-22)
(-0.114695 2.01177 -3.37095e-22)
(-0.0461288 2.00567 6.60414e-21)
(-0.0471349 2.0251 -6.71481e-21)
(-0.0986292 1.78838 -1.35061e-22)
(-0.0962844 1.81794 1.00628e-20)
(0.38778 1.39675 -4.3888e-19)
(0.365745 1.37703 -4.30577e-19)
(0.64068 1.41781 -6.06883e-19)
(0.518929 1.47918 -3.27857e-19)
(0.557813 1.45606 0)
(0.58759 2.40528 1.19718e-19)
(0.653816 2.38949 2.21149e-19)
(0.408163 2.49614 7.74568e-20)
(0.405382 2.55311 -1.56968e-19)
(0.515681 2.51652 2.53926e-19)
(0.542241 2.44493 0)
(0.482857 2.48722 -3.46614e-19)
(0.258109 2.55185 5.99352e-19)
(0.343719 2.53711 -7.34583e-20)
(0.287832 2.61424 -9.13063e-19)
(0.924546 2.37247 2.04836e-19)
(0.832057 2.36323 0)
(1.01046 0.000488463 9.27009e-21)
(1.01539 -0.00572979 -7.67103e-21)
(1.018 -0.00404706 -1.38011e-19)
(1.01507 -0.000482046 1.37987e-19)
(1.01231 0.00102982 0)
(0.623157 1.2581 0)
(0.621563 1.17418 0)
(0.729907 1.07785 0)
(0.6197 1.12359 0)
(1.17939 2.63343 5.62274e-20)
(1.0626 2.36664 0)
(0.831692 2.23351 -1.90274e-21)
(0.829555 2.47938 0)
(0.917564 2.56219 2.56408e-20)
(0.95 2.51807 -1.71786e-20)
(0.843353 0.145929 0)
(0.812223 0.151092 8.09746e-20)
(0.927941 0.126001 4.09589e-19)
(0.866813 0.116494 -1.65092e-19)
(0.852245 0.0666735 -4.97612e-19)
(1.03379 0.213681 -2.19682e-19)
(0.954626 0.273104 -1.59668e-20)
(0.901051 0.271339 3.71358e-19)
(0.968427 0.197821 2.73202e-19)
(0.935334 0.158948 -5.12368e-19)
(0.909676 0.172767 6.66113e-20)
(0.934929 0.235139 -1.28956e-19)
(0.912047 0.193992 0)
(0.970417 0.158928 2.44519e-19)
(1.00934 0.163008 0)
(1.0056 0.189464 0)
(1.07329 0.109029 7.49814e-20)
(1.03335 0.154043 -1.29632e-20)
(1.02777 0.216182 -4.20006e-20)
(1.06412 0.189128 0)
(1.0237 0.0273411 2.07731e-19)
(1.04051 0.0473931 2.45566e-19)
(1.03907 0.0319438 -2.06239e-19)
(1.0372 0.0517955 -1.65399e-19)
(1.01698 0.0533095 -2.8081e-19)
(0.975038 0.123789 0)
(0.984043 0.0765163 0)
(0.96873 0.0429735 -1.96656e-19)
(0.936017 0.0576618 8.25967e-20)
(1.02445 0.0824765 2.33186e-19)
(1.03979 0.110391 -2.31384e-19)
(1.04283 0.135178 2.11841e-19)
(1.00804 0.123034 0)
(1.04906 0.0968385 0)
(1.03638 0.0793699 -9.71059e-20)
(1.03406 0.0801006 -1.86894e-19)
(0.567731 1.07561 -1.06848e-19)
(0.614566 1.45051 2.06732e-19)
(1.15435 2.76251 1.18108e-19)
(1.2231 3.09794 -7.41404e-20)
(1.24453 2.73528 5.87539e-19)
(1.27793 2.71893 -3.51538e-19)
(1.20359 2.35262 -7.77023e-21)
(1.20885 3.0017 2.08153e-19)
(1.22621 2.96677 -2.36815e-19)
(1.21539 3.25108 -2.74096e-19)
(1.37767 2.98218 3.79583e-19)
(1.37099 2.89871 0)
(0.514096 0.863119 -1.13809e-20)
(0.161362 1.2901 3.64857e-19)
(0.526696 0.531396 3.47397e-19)
(0.360623 0.301082 3.79025e-19)
(0.561462 0.419667 3.98023e-19)
(0.562388 0.48686 -6.34337e-19)
(0.564579 0.50504 5.22763e-19)
(0.525692 0.456196 -2.08627e-19)
(0.47472 0.393751 4.78018e-19)
(0.774052 0.256038 -1.82104e-19)
(0.729454 0.303831 0)
(0.720072 0.247384 1.03454e-20)
(0.730299 0.509047 1.82873e-19)
(0.70174 0.472097 -6.75602e-19)
(0.627138 0.483297 1.90979e-20)
(0.642168 0.456559 0)
(0.637864 0.731394 1.42389e-19)
(0.78366 0.751889 4.58336e-20)
(0.710473 0.838621 -6.21065e-20)
(0.831198 0.788755 -1.28071e-20)
(0.868087 0.82978 1.56723e-20)
(0.876708 0.832936 -1.60457e-20)
(0.805347 0.622551 -2.0743e-19)
(0.880141 0.678719 1.19005e-20)
(0.939124 0.694846 0)
(0.92767 0.671655 -8.80688e-21)
(0.98067 0.310548 5.62601e-20)
(1.09596 0.280103 -5.6101e-21)
(1.01863 0.247364 8.96124e-20)
(0.965016 0.346618 -1.32139e-19)
(1.01636 0.403652 0)
(1.05604 0.390322 0)
(0.88686 0.35699 5.53947e-21)
(0.822889 0.287004 0)
(0.846381 0.272613 1.93555e-19)
(0.879356 0.279138 -5.91537e-21)
(0.906493 0.421397 7.1425e-19)
(0.868565 0.475431 1.81045e-19)
(0.874552 0.444448 -2.36444e-19)
(0.804167 0.428876 2.5361e-19)
(0.790583 0.426741 1.74337e-19)
(0.75659 0.410587 -1.71461e-19)
(1.02768 -0.0021949 2.21477e-19)
(1.01981 -0.000412045 0)
(1.01827 0.00046248 1.46977e-19)
(1.02202 -0.00113744 -3.30444e-19)
(1.0214 0.0035105 1.596e-19)
(1.02082 0.0101823 -3.35645e-19)
(1.02189 0.0096083 0)
(1.02058 0.0106604 -7.09111e-20)
(1.01624 0.00746979 1.77983e-19)
(1.01694 0.0103249 -8.93527e-20)
(1.01762 0.00950921 6.54075e-20)
(-0.142775 1.09556 0)
(-0.201805 1.27739 0)
(-0.0336551 1.03413 0)
(-0.0513727 0.945901 0)
(0.243357 1.32783 -1.03502e-18)
(0.243842 1.26248 3.4484e-19)
(0.283544 1.55913 2.13779e-19)
(0.283724 1.32829 -2.12959e-19)
(-0.0539894 1.47416 8.44342e-19)
(0.0245288 1.46039 -6.25619e-19)
(0.218205 1.25224 6.59202e-21)
(0.140462 1.18086 6.70355e-19)
(0.0284377 1.14757 9.47843e-20)
(-0.0755692 1.20941 9.57632e-20)
(0.13229 2.46272 3.11608e-19)
(0.117733 2.48042 0)
(0.232103 2.10312 -3.03451e-20)
(0.235875 1.77978 -1.23266e-19)
(0.229786 2.0817 2.0736e-20)
(0.217032 2.44441 0)
(0.261067 2.4058 -1.35578e-19)
(0.297741 2.40949 9.62698e-20)
(0.228891 2.00604 5.83884e-20)
(0.185859 2.19591 2.62332e-20)
(0.164277 2.32957 0)
(-0.211383 2.30453 7.54781e-19)
(-0.287316 2.57504 5.11109e-19)
(-0.320664 2.44243 0)
(-0.150347 2.63986 -1.95935e-20)
(-0.0775625 2.56302 -3.6222e-19)
(-0.348169 1.50136 -2.71112e-20)
(-0.267351 1.54116 4.09102e-19)
(-0.281459 1.61537 -9.46805e-20)
(-0.390275 1.6012 -1.62135e-19)
(-0.391845 1.54359 0)
(-0.25006 1.60931 0)
(-0.0991694 1.64705 -1.36956e-20)
(-0.161528 1.6802 5.72011e-21)
(-0.20723 1.6321 0)
(-0.12694 1.54497 -1.52022e-20)
(-0.0697755 1.57688 2.37861e-20)
(1.03713 0.000582357 0)
(1.04121 -0.00141012 -2.1087e-20)
(1.0477 0.0145537 -1.55816e-19)
(1.04996 0.0140073 0)
(1.05042 0.0126101 0)
(1.04234 0.00363924 -6.93477e-21)
(1.03623 0.00394707 2.5953e-19)
(1.03823 0.011326 3.1343e-19)
(1.02917 0.0185469 0)
(1.0282 0.0190207 0)
(1.04254 0.0203626 1.57025e-19)
(1.03428 0.0196084 0)
(1.03153 0.0191685 0)
(-0.162832 1.89324 0)
(-0.12203 1.81969 1.28526e-21)
(-0.134732 1.87483 5.00253e-21)
(-0.133019 1.70247 0)
(-0.155378 1.79362 -2.61601e-21)
(-0.119724 1.77062 -4.05348e-21)
(-0.112728 1.74394 0)
(0.402352 1.68753 0)
(0.360017 1.30132 6.90175e-19)
(0.28563 1.35897 0)
(0.432351 1.27113 -8.80357e-19)
(0.481166 1.43956 0)
(0.441884 1.38085 4.15269e-19)
(1.02513 2.70132 -3.86442e-21)
(0.947234 2.40571 -2.58555e-19)
(0.879708 2.15157 3.1271e-19)
(0.845614 2.35627 1.11651e-19)
(0.842758 2.51943 0)
(0.90488 2.51197 0)
(0.891741 2.37012 0)
(0.895445 2.33929 -4.15184e-19)
(0.697407 2.50027 -1.65947e-21)
(0.806771 2.48802 -1.01247e-20)
(0.817238 2.46134 7.73493e-21)
(0.686247 2.36869 0)
(0.794769 2.36567 0)
(0.750492 2.37684 -2.25002e-19)
(0.775987 2.50483 0)
(0.583056 1.08606 0)
(0.478217 0.931722 2.07008e-20)
(0.520621 0.96234 3.167e-23)
(0.505533 1.05142 0)
(0.507347 1.00766 -2.85618e-20)
(0.733134 0.865828 1.89866e-20)
(0.756676 1.00178 0)
(0.728603 0.958883 -7.19398e-20)
(0.611571 1.02414 0)
(0.613703 0.934589 0)
(1.15806 2.78078 6.67464e-20)
(1.13622 2.84579 1.32519e-19)
(0.927407 2.3749 -2.99499e-19)
(0.895275 2.34783 3.90105e-20)
(1.12079 2.74947 0)
(1.0721 2.71945 -4.67721e-20)
(1.07796 2.49156 -6.51674e-20)
(0.96999 2.22533 -2.96854e-20)
(0.482961 1.37229 0)
(0.488803 1.06697 9.41354e-20)
(0.541402 1.15012 0)
(0.857454 0.215266 0)
(0.821363 0.175937 0)
(0.780889 0.157874 0)
(0.849924 0.219764 -3.04177e-19)
(0.797172 0.213815 1.90146e-19)
(0.941597 0.0513481 -1.7019e-19)
(0.952314 0.101552 0)
(0.925454 0.104494 7.71157e-20)
(0.887682 0.0802815 3.16484e-19)
(0.881804 0.0482049 -1.94221e-19)
(1.16615 3.37629 -9.94509e-19)
(1.21193 3.2959 0)
(1.16655 3.40269 -1.95608e-18)
(0.653199 3.56324 1.67961e-18)
(0.879835 3.12814 3.94554e-19)
(0.495839 0.884817 2.06656e-19)
(0.431295 0.869925 0)
(0.357817 0.560043 -8.13001e-20)
(0.435548 0.701534 3.64806e-19)
(0.531791 0.532099 -1.09587e-19)
(0.516556 0.554945 1.25848e-19)
(0.664897 0.528337 2.59996e-19)
(0.687645 0.539637 0)
(0.635859 0.629371 0)
(0.595164 0.557012 0)
(0.935632 0.58256 -5.61681e-20)
(0.86908 0.521554 -1.75011e-19)
(0.890198 0.554147 7.64432e-20)
(0.925047 0.495844 -1.27491e-19)
(1.0217 0.467166 0)
(1.03116 0.557421 -2.38878e-21)
(0.82405 0.388176 -3.86122e-19)
(0.823991 0.373159 -4.4674e-19)
(0.777141 0.383939 3.0326e-19)
(0.773195 0.353398 -3.44697e-19)
(0.820469 0.314747 -2.55875e-19)
(0.778256 0.314789 3.14836e-19)
(1.02627 0.00366819 -1.64202e-19)
(1.02624 0.00341345 3.33671e-19)
(1.0298 -0.00241546 2.10192e-19)
(1.03106 -0.00338198 -2.53048e-19)
(1.03566 -0.000964325 0)
(1.03273 0.000699202 -4.06315e-19)
(0.147894 1.8465 -1.35767e-19)
(0.133333 1.78343 0)
(0.231926 1.80787 -6.6437e-19)
(0.232442 1.78283 5.90782e-19)
(0.264964 1.64707 -3.99402e-19)
(0.293814 1.65182 0)
(-0.306017 1.91682 0)
(-0.273396 1.74057 5.63278e-21)
(-0.216179 1.73837 -5.11475e-21)
(-0.182162 1.79621 5.23024e-21)
(-0.196658 1.91113 -2.88295e-21)
(-0.232806 1.91996 -2.21377e-21)
(0.487358 1.38192 4.4388e-19)
(0.495655 1.38409 -4.76638e-19)
(0.44722 1.27323 4.36451e-19)
(0.439251 1.28986 -2.7303e-20)
(0.613526 1.2924 0)
(0.538651 1.36498 5.59764e-19)
(0.55211 1.38603 -5.42047e-19)
(0.454007 1.2611 -4.18953e-19)
(0.496896 1.22138 0)
(0.546462 1.18664 0)
(0.66456 2.45812 2.44298e-21)
(0.673319 2.47527 5.05695e-19)
(0.724332 2.49378 -3.47297e-19)
(0.629389 2.48184 -1.16387e-19)
(0.565358 2.57732 9.13257e-20)
(0.513517 2.55019 -2.80864e-19)
(0.96096 2.36606 -1.68492e-19)
(1.00312 2.3913 0)
(0.895264 2.13649 -2.2833e-19)
(1.04092 2.6999 0)
(1.04018 2.68521 0)
(0.62345 2.29546 2.59288e-19)
(1.04489 3.1772 4.98146e-19)
(0.917051 3.04641 -4.4815e-19)
(0.294239 0.975022 0)
(0.34768 0.847151 -1.45798e-19)
(0.492003 0.793777 -5.66698e-20)
(0.409522 2.05161 0)
(0.473749 2.79486 -2.74702e-19)
(0.436325 2.56156 0)
(0.654026 0.672741 -2.94138e-19)
(0.726232 0.653797 3.73553e-19)
(0.760326 0.601413 -3.64711e-19)
(0.656905 0.633557 -4.40673e-20)
(0.717111 0.581426 -1.80262e-19)
(1.00668 2.78432 -3.78691e-19)
(1.03769 2.84169 3.07824e-19)
(0.652946 2.19862 2.2293e-20)
(0.602846 1.73756 -4.85015e-20)
(0.704003 1.93006 1.36363e-19)
(0.990492 2.46765 -6.46729e-20)
(0.992657 2.47139 -1.85901e-19)
(0.675095 1.88383 -6.7718e-21)
(0.456975 1.34894 -9.20263e-20)
)
;

boundaryField
{
    wall-4
    {
        type            noSlip;
    }
    velocity-inlet-5
    {
        type            fixedValue;
        value           uniform (1 0 0);
    }
    velocity-inlet-6
    {
        type            fixedValue;
        value           uniform (0 3 0);
    }
    pressure-outlet-7
    {
        type            zeroGradient;
    }
    wall-8
    {
        type            noSlip;
    }
    frontAndBackPlanes
    {
        type            empty;
    }
}


// ************************************************************************* //
