/*--------------------------------*- C++ -*----------------------------------*\
| =========                 |                                                 |
| \\      /  F ield         | OpenFOAM: The Open Source CFD Toolbox           |
|  \\    /   O peration     | Version:  4.0                                   |
|   \\  /    A nd           | Web:      www.OpenFOAM.org                      |
|    \\/     M anipulation  |                                                 |
\*---------------------------------------------------------------------------*/
FoamFile
{
    version     2.0;
    format      ascii;
    class       surfaceScalarField;
    location    "6";
    object      phi;
}
// * * * * * * * * * * * * * * * * * * * * * * * * * * * * * * * * * * * * * //

dimensions      [0 3 -1 0 0 0 0];

internalField   nonuniform List<scalar> 
4262
(
0.110442
0.467547
0.100879
0.703149
0.0720908
0.861091
0.0478807
1.02297
0.0304028
1.21599
0.0184843
1.45014
0.0107887
1.73356
0.00580386
2.07602
0.00263031
2.48842
-7.25869e-05
2.985
-0.00277714
2.985
-0.00593975
2.48841
-0.0109195
2.07602
-0.0186084
1.73355
-0.0305144
1.45013
-0.0479732
1.21598
-0.0721669
1.02296
-0.100929
0.861065
-0.110467
0.703124
0.467521
0.106136
0.36141
0.125424
0.683861
0.114069
0.872446
0.0931525
1.04389
0.0706211
1.23853
0.0504389
1.47032
0.0338321
1.75017
0.0207402
2.08911
0.00962902
2.49953
-0.000640439
2.99526
-0.0110302
2.99539
-0.0218919
2.49927
-0.0347721
2.0889
-0.0511952
1.74998
-0.0712167
1.47015
-0.0936153
1.23837
-0.11441
1.04375
-0.125677
0.872333
-0.106256
0.683702
0.361266
0.0674185
0.293992
0.0891934
0.662086
0.0885492
0.87309
0.0813568
1.05108
0.0715678
1.24831
0.0591467
1.48274
0.0446368
1.76468
0.0294002
2.10435
0.0143942
2.51453
-0.000836787
3.0105
-0.0159132
3.01046
-0.0307356
2.51409
-0.0457929
2.10395
-0.0601002
1.76428
-0.0723104
1.48236
-0.0819469
1.24801
-0.0890072
1.05081
-0.0894873
0.872813
-0.06755
0.661765
0.293716
0.035465
0.258527
0.0532125
0.644339
0.0546038
0.871699
0.0525045
1.05318
0.0488527
1.25197
0.043182
1.48841
0.0351106
1.77275
0.024647
2.11481
0.0123742
2.52681
-0.00147139
3.02434
-0.0152334
3.02423
-0.0272738
2.52613
-0.0373741
2.11405
-0.0450237
1.77193
-0.0503428
1.48768
-0.0536089
1.25128
-0.0553342
1.05254
-0.0536341
0.871113
-0.0356515
0.643782
0.258064
0.0141091
0.244418
0.0271967
0.631251
0.0338902
0.865005
0.0370853
1.04999
0.037104
1.25195
0.0343679
1.49115
0.0290887
1.77803
0.0212988
2.1226
0.0109411
2.53716
-0.0020888
3.03737
-0.014848
3.03698
-0.0248498
2.53613
-0.0319689
2.12117
-0.036521
1.77648
-0.0385608
1.48972
-0.0380994
1.25081
-0.0346766
1.04911
-0.0279169
0.864353
-0.014458
0.630323
0.243606
0.0013124
0.243105
0.00745437
0.625109
0.0152693
0.85719
0.0222766
1.04298
0.0260015
1.24822
0.0260264
1.49112
0.022759
1.78129
0.016617
2.12875
0.00788561
2.5459
-0.00290886
3.04817
-0.0132635
3.04734
-0.0211066
2.54398
-0.0265506
2.12662
-0.0292953
1.77923
-0.0288029
1.48922
-0.0245137
1.24653
-0.016856
1.04146
-0.00839543
0.855892
-0.00167739
0.623605
0.241929
-0.00131009
0.244415
0.000257997
0.623541
0.00492388
0.852524
0.0102781
1.03763
0.0142862
1.24421
0.0159888
1.48942
0.0150596
1.78222
0.0113488
2.13246
0.00516031
2.55208
-0.00321326
3.05654
-0.0117117
3.05584
-0.0175567
2.54982
-0.0205057
2.12957
-0.0204934
1.77922
-0.0177865
1.48652
-0.0128325
1.24157
-0.00665678
1.03528
-0.00107876
0.850314
0.00103264
0.621494
0.242961
-0.000319099
0.244735
7.37771e-05
0.623148
0.00244966
0.850148
0.00516369
1.03491
0.00747082
1.24191
0.00879771
1.48809
0.00863084
1.78239
0.00652092
2.13457
0.00224818
2.55636
-0.00396856
3.06276
-0.0100341
3.0619
-0.0135703
2.55336
-0.0144707
2.13047
-0.0134013
1.77815
-0.0110022
1.48412
-0.00774581
1.23832
-0.00417501
1.03171
-0.00107276
0.847212
-1.56178e-05
0.620437
0.242946
5.89301e-05
0.244676
0.000340668
0.622867
0.00151498
0.848974
0.00287202
1.03355
0.00403108
1.24075
0.00460644
1.48752
0.0041916
1.7828
0.00247655
2.13628
-0.000738876
2.55957
-0.00531809
3.06734
-0.00908659
3.06567
-0.0109244
2.55519
-0.0112226
2.13076
-0.0102235
1.77715
-0.00833273
1.48223
-0.00602164
1.236
-0.00367467
1.02936
-0.00164561
0.845183
-0.000563185
0.619354
0.242383
-0.000257071
0.244933
-0.000333213
0.622943
2.55933e-06
0.848638
0.000520072
1.03304
0.000995739
1.24027
0.00107238
1.48744
0.000466957
1.78341
-0.0010348
2.13778
-0.0035201
2.56206
-0.00681922
3.07063
-0.00925674
3.06811
-0.00999212
2.55593
-0.0097309
2.1305
-0.0085536
1.77597
-0.00680511
1.48048
-0.00484064
1.23404
-0.00296504
1.02749
-0.00137275
0.843591
-0.000388369
0.61837
0.241994
-0.00047864
0.245411
-0.000787902
0.623252
-0.000947166
0.848798
-0.00106475
1.03315
-0.00130162
1.24051
-0.00183143
1.48797
-0.00276347
1.78434
-0.00419877
2.13922
-0.00616593
2.56403
-0.00831379
3.07278
-0.00966886
3.06946
-0.00983626
2.5561
-0.00894297
2.12961
-0.00754783
1.77458
-0.00587543
1.47881
-0.00415216
1.23232
-0.00257857
1.02591
-0.00126116
0.842273
-0.000328705
0.617438
0.241665
-0.000562033
0.245973
-0.00113182
0.623822
-0.00159055
0.849256
-0.00221169
1.03378
-0.00308516
1.24138
-0.00417041
1.48906
-0.00550397
1.78568
-0.00709729
2.14081
-0.00887185
2.5658
-0.0104252
3.07434
-0.0109441
3.06998
-0.0104827
2.55564
-0.00918532
2.12831
-0.0075344
1.77293
-0.005817
1.47709
-0.00418224
1.23068
-0.00272874
1.02446
-0.00148956
0.841034
-0.000507671
0.616456
0.241158
-0.00068005
0.246653
-0.00162489
0.624767
-0.00256064
0.850192
-0.00366542
1.03488
-0.00495992
1.24268
-0.00647262
1.49057
-0.00820614
1.78741
-0.0100846
2.14269
-0.0119048
2.56762
-0.013174
3.0756
-0.0130681
3.06988
-0.011958
2.55453
-0.0102845
2.12664
-0.00835485
1.771
-0.00644747
1.47518
-0.00469158
1.22893
-0.00314289
1.02291
-0.0017958
0.839687
-0.000660608
0.615321
0.240497
-0.000901159
0.247555
-0.00219179
0.626057
-0.0035801
0.85158
-0.0051383
1.03644
-0.00692399
1.24446
-0.00895464
1.4926
-0.011191
1.78965
-0.0134887
2.14499
-0.0155299
2.56966
-0.0167019
3.07678
-0.0162216
3.0694
-0.0145176
2.55282
-0.0122636
2.12439
-0.00988486
1.76862
-0.00761147
1.47291
-0.00555598
1.22687
-0.003753
1.02111
-0.0021717
0.838106
-0.00080877
0.613958
0.239688
-0.00117051
0.248725
-0.0028593
0.627746
-0.00469672
0.853418
-0.00677778
1.03852
-0.00915959
1.24685
-0.0118345
1.49528
-0.0147173
1.79253
-0.0175877
2.14786
-0.0200019
2.57208
-0.0211746
3.07795
-0.0202745
3.0685
-0.0179574
2.5505
-0.0150624
2.12149
-0.012091
1.76565
-0.00929714
1.47011
-0.00679572
1.22437
-0.00461045
1.01892
-0.00268698
0.836182
-0.0010087
0.612279
0.23868
-0.00150512
0.25023
-0.00368384
0.629925
-0.0060644
0.855798
-0.00877675
1.04123
-0.0118834
1.24995
-0.0153544
1.49875
-0.0190555
1.79623
-0.0226748
2.15148
-0.0256154
2.57502
-0.0268672
3.0792
-0.0255007
3.06713
-0.0224589
2.54746
-0.018771
2.1178
-0.0150356
1.76191
-0.0115534
1.46663
-0.00845194
1.22127
-0.00574872
1.01622
-0.00336467
0.833798
-0.00126946
0.610184
0.23741
-0.0019417
0.252172
-0.00475501
0.632738
-0.00784337
0.858887
-0.01136
1.04475
-0.0153728
1.25396
-0.0198329
1.50321
-0.0245539
1.80095
-0.0291175
2.15604
-0.032737
2.57864
-0.0341202
3.08058
-0.0321956
3.06521
-0.0282511
2.54352
-0.0235613
2.11311
-0.0188508
1.7572
-0.0144804
1.46226
-0.010597
1.21738
-0.00721329
1.01284
-0.00422552
0.83081
-0.00159518
0.607554
0.235815
-0.00252488
0.254697
-0.0061421
0.636355
-0.0100915
0.862836
-0.014608
1.04926
-0.0197771
1.25913
-0.0255139
1.50894
-0.0315548
1.80699
-0.0373286
2.16181
-0.041807
2.58311
-0.0433531
3.08213
-0.0407209
3.06257
-0.0356235
2.53842
-0.0296483
2.10714
-0.0236833
1.75123
-0.0181695
1.45675
-0.0132847
1.2125
-0.00904094
1.00859
-0.00529857
0.827068
-0.00199956
0.604255
0.233816
-0.00332254
0.258019
-0.00806815
0.641101
-0.0132451
0.868013
-0.0191081
1.05513
-0.025738
1.26576
-0.0330516
1.51626
-0.0406953
1.81464
-0.0479205
2.16904
-0.0533899
2.58858
-0.0550483
3.08379
-0.0514831
3.05901
-0.044936
2.53187
-0.0373611
2.09956
-0.029842
1.74372
-0.0229109
1.44982
-0.0167714
1.20636
-0.0114214
1.00324
-0.00668802
0.822335
-0.00251568
0.600082
0.2313
-0.00432416
0.262343
-0.0103413
0.647118
-0.0169076
0.874579
-0.0244488
1.06267
-0.0330865
1.2744
-0.0425858
1.52576
-0.052416
1.82447
-0.0615261
2.17815
-0.0681975
2.59525
-0.0699047
3.0855
-0.0650908
3.05419
-0.0566665
2.52345
-0.0470228
2.08992
-0.0374729
1.73417
-0.0286757
1.44102
-0.0209032
1.19859
-0.0141771
0.996517
-0.00827498
0.816433
-0.00311349
0.594921
0.228186
-0.00603604
0.26838
-0.0143975
0.65548
-0.0231913
0.883373
-0.0330466
1.07252
-0.0440078
1.28536
-0.0559461
1.53769
-0.0681382
1.83666
-0.0792143
2.18923
-0.0869927
2.60303
-0.088426
3.08693
-0.081933
3.0477
-0.0712196
2.51274
-0.059133
2.07783
-0.0472372
1.72227
-0.0363132
1.4301
-0.0266556
1.18893
-0.0182308
0.988092
-0.0107222
0.808924
-0.00400724
0.588206
0.224179
-0.00762642
0.276006
-0.0177796
0.665633
-0.0291595
0.894753
-0.0422326
1.0856
-0.0570161
1.30015
-0.0728286
1.55351
-0.0884816
1.85231
-0.10213
2.20287
-0.111129
2.61203
-0.111974
3.08777
-0.103222
3.03895
-0.0895723
2.49909
-0.0743275
2.06259
-0.0592616
1.7072
-0.0452906
1.41612
-0.0328529
1.17649
-0.02205
0.977289
-0.012675
0.799549
-0.00475934
0.58029
0.21942
-0.01225
0.288256
-0.0278473
0.68123
-0.0428566
0.909762
-0.0596727
1.10241
-0.0780654
1.31854
-0.0973396
1.57278
-0.115984
1.87095
-0.131603
2.21849
-0.141043
2.62147
-0.140447
3.08718
-0.128731
3.02723
-0.111647
2.482
-0.0929351
2.04387
-0.0746215
1.68889
-0.0577598
1.39926
-0.0427859
1.16152
-0.0296784
0.964182
-0.0177448
0.787615
-0.00663021
0.569176
0.21279
-0.0156264
0.303882
-0.0348522
0.700456
-0.0565636
0.931474
-0.0804948
1.12634
-0.105539
1.34358
-0.130281
1.59752
-0.152741
1.89341
-0.170176
2.23593
-0.179357
2.63065
-0.176311
3.08413
-0.160673
3.01159
-0.139429
2.46076
-0.116504
2.02095
-0.0938744
1.66626
-0.0725647
1.37795
-0.0530672
1.14202
-0.0356019
0.946717
-0.0203283
0.772342
-0.00743784
0.556285
0.205352
-0.0308123
0.334695
-0.0608209
0.730464
-0.0882728
0.958926
-0.117625
1.1557
-0.147282
1.37324
-0.176043
1.62628
-0.200678
1.91805
-0.218268
2.25352
-0.22551
2.6379
-0.218557
3.07718
-0.198052
2.99109
-0.172112
2.43482
-0.144785
1.99362
-0.118116
1.63959
-0.0932248
1.35306
-0.0707142
1.11951
-0.0503778
0.92638
-0.031164
0.753128
-0.0113535
0.536475
0.193998
-0.0423458
0.377041
-0.0931966
0.781315
-0.135171
1.0009
-0.173922
1.19445
-0.209857
1.40917
-0.240767
1.65719
-0.264691
1.94197
-0.279447
2.26827
-0.282077
2.64053
-0.269006
3.06411
-0.242304
2.96439
-0.211211
2.40373
-0.179418
1.96183
-0.148583
1.60876
-0.119343
1.32382
-0.091876
1.09204
-0.0661312
0.900635
-0.0401296
0.727126
-0.0139995
0.510345
0.179999
-0.0266398
0.40368
-0.0673162
0.821992
-0.1107
1.04428
-0.15388
1.23763
-0.195724
1.45102
-0.234167
1.69564
-0.268626
1.97643
-0.296762
2.29641
-0.314703
2.65847
-0.316231
3.06564
-0.297815
2.94597
-0.26689
2.3728
-0.228927
1.92387
-0.187502
1.56733
-0.145099
1.28142
-0.103459
1.0504
-0.0641101
0.861287
-0.0307387
0.693755
-0.00823242
0.487838
0.171766
0.00376257
0.399918
-0.0192361
0.84499
-0.054167
1.07921
-0.0905552
1.27402
-0.126342
1.4868
-0.160776
1.73007
-0.192014
2.00767
-0.216911
2.32131
-0.23179
2.67334
-0.231033
3.06488
-0.212348
2.92729
-0.18361
2.34406
-0.150321
1.89058
-0.11601
1.53302
-0.0829453
1.24835
-0.052505
1.01996
-0.0253119
0.834094
-0.00381317
0.672256
0.00375848
0.480267
0.175525
0.00208102
0.397837
-0.0115749
0.858646
-0.0331915
1.10083
-0.0588194
1.29964
-0.0865722
1.51456
-0.114953
1.75845
-0.141085
2.0338
-0.162078
2.3423
-0.174396
2.68566
-0.173184
3.06367
-0.156905
2.91101
-0.133139
2.3203
-0.107089
1.86453
-0.0816406
1.50757
-0.0582191
1.22493
-0.0374341
0.999177
-0.0198519
0.816511
-0.00537131
0.657775
0.00174594
0.473149
0.177271
0.00451644
0.39332
-0.00653959
0.869702
-0.0247573
1.11905
-0.0445492
1.31944
-0.065695
1.5357
-0.0879222
1.78068
-0.108766
2.05465
-0.125847
2.35938
-0.135846
2.69566
-0.134617
3.06244
-0.121079
2.89747
-0.101897
2.30112
-0.0814672
1.8441
-0.0620219
1.48813
-0.044551
1.20746
-0.0293989
0.984025
-0.016723
0.803835
-0.00706141
0.648114
-0.000567787
0.466656
0.176703
0.00431382
0.389006
-0.00388959
0.877906
-0.0196386
1.1348
-0.0364549
1.33625
-0.0540851
1.55333
-0.071855
1.79845
-0.088491
2.07128
-0.102277
2.37317
-0.110333
2.70372
-0.109124
3.06123
-0.0977693
2.88611
-0.081919
2.28527
-0.0652057
1.82738
-0.0494447
1.47237
-0.0354333
1.19345
-0.0234054
0.971997
-0.0134258
0.793856
-0.00567708
0.640365
-0.000568014
0.461547
0.176135
0.00180019
0.387206
-0.00485371
0.88456
-0.0172192
1.14716
-0.0312925
1.35033
-0.0464561
1.5685
-0.0614334
1.81343
-0.0753925
2.08524
-0.0869074
2.38468
-0.0936092
2.71042
-0.0925011
3.06012
-0.0828193
2.87643
-0.0693627
2.27181
-0.0551978
1.81322
-0.0418757
1.45905
-0.0300783
1.18165
-0.0199834
0.961903
-0.0115793
0.785452
-0.0050219
0.633808
-0.000682779
0.457208
0.175452
-0.000723522
0.38793
-0.00686864
0.890705
-0.0166531
1.15695
-0.0283683
1.36204
-0.0413924
1.58152
-0.05444
1.82647
-0.0667278
2.09753
-0.0768064
2.39476
-0.0826926
2.7163
-0.081835
3.05927
-0.0735496
2.86815
-0.0619046
2.26016
-0.0495224
1.80084
-0.0377776
1.4473
-0.0273071
1.17118
-0.0182993
0.952895
-0.010721
0.777874
-0.004718
0.627805
-0.00084518
0.453335
0.174607
-0.00230167
0.390231
-0.00828558
0.896689
-0.0168034
1.16547
-0.0269934
1.37223
-0.0383289
1.59286
-0.0499045
1.83805
-0.0609745
2.1086
-0.070115
2.4039
-0.0755793
2.72177
-0.0751487
3.05883
-0.0681589
2.86116
-0.0579721
2.24998
-0.046835
1.7897
-0.0360426
1.43651
-0.0262561
1.1614
-0.0177416
0.94438
-0.01054
0.770672
-0.00476648
0.622031
-0.00100692
0.449575
0.1736
-0.00317909
0.393411
-0.00901828
0.902528
-0.0170799
1.17353
-0.0264334
1.38158
-0.0366927
1.60312
-0.0472579
1.84862
-0.057432
2.11877
-0.0659057
2.41238
-0.0711124
2.72698
-0.0711561
3.05888
-0.0654454
2.85545
-0.0566141
2.24115
-0.0464662
1.77955
-0.036232
1.42627
-0.026721
1.15188
-0.0183231
0.935982
-0.0110883
0.763437
-0.00516626
0.616109
-0.00122737
0.445636
0.172373
-0.00367891
0.397089
-0.00952144
0.90837
-0.0173728
1.18138
-0.0262764
1.39049
-0.035918
1.61276
-0.0458182
1.85852
-0.0553163
2.12827
-0.063244
2.4203
-0.068258
2.73199
-0.0688321
3.05945
-0.0644991
2.85111
-0.0570661
2.23371
-0.0477783
1.77026
-0.0378811
1.41638
-0.0282875
1.14229
-0.0195804
0.927275
-0.0120425
0.755899
-0.00585111
0.609918
-0.00157117
0.441356
0.170801
-0.0039759
0.401065
-0.0100803
0.914475
-0.0177321
1.18903
-0.0263701
1.39913
-0.0356191
1.62201
-0.0450928
1.86799
-0.0541556
2.13733
-0.0617165
2.42787
-0.0666046
2.73688
-0.0676607
3.06051
-0.0648167
2.84827
-0.059252
2.22815
-0.0511803
1.76219
-0.0414901
1.40669
-0.0315357
1.13234
-0.0222025
0.917942
-0.0139258
0.747623
-0.00696044
0.602952
-0.00208123
0.436477
0.16872
-0.00428899
0.405354
-0.0106849
0.920871
-0.0181526
1.1965
-0.0266389
1.40761
-0.035637
1.631
-0.0448568
1.87721
-0.0536326
2.14611
-0.0608355
2.43507
-0.0654158
2.74146
-0.0666975
3.06179
-0.0652744
2.84685
-0.0617291
2.2246
-0.0551248
1.75559
-0.0460324
1.39759
-0.0358849
1.12219
-0.0257275
0.907785
-0.0165839
0.738479
-0.0085669
0.594935
-0.00272014
0.430631
0.166
-0.00463073
0.409985
-0.01128
0.92752
-0.0186339
1.20385
-0.0270412
1.41602
-0.0358771
1.63984
-0.0449267
1.88626
-0.0534567
2.15464
-0.0603174
2.44193
-0.0646056
2.74575
-0.0662291
3.06341
-0.0668148
2.84743
-0.0667366
2.22452
-0.0624707
1.75132
-0.0537938
1.38892
-0.0424019
1.1108
-0.0306269
0.89601
-0.0202024
0.728054
-0.0114743
0.586207
-0.00423075
0.423387
0.161769
-0.00494457
0.41493
-0.0117958
0.934371
-0.0191215
1.21118
-0.0274931
1.42439
-0.0362311
1.64858
-0.0451684
1.8952
-0.0534956
2.16297
-0.060033
2.44847
-0.0637754
2.74949
-0.0648655
3.0645
-0.0658779
2.84844
-0.068109
2.22676
-0.0677139
1.75093
-0.0611041
1.38231
-0.0494501
1.09914
-0.036308
0.882868
-0.0233209
0.715067
-0.0120621
0.574948
-0.00443443
0.415759
0.157335
-0.00520352
0.420133
-0.0122228
0.94139
-0.0195817
1.21854
-0.0279434
1.43275
-0.0366395
1.65727
-0.0455101
1.90407
-0.0536554
2.17111
-0.0598493
2.45466
-0.0629454
2.75258
-0.0638245
3.06538
-0.0675097
2.85213
-0.0754839
2.23473
-0.078666
1.75411
-0.07363
1.37727
-0.0616303
1.08714
-0.0460686
0.867306
-0.0324317
0.70143
-0.0202953
0.562812
-0.00866495
0.404129
0.14867
-0.00540738
0.425541
-0.0125654
0.948548
-0.0199873
1.22596
-0.0283546
1.44112
-0.0370528
1.66597
-0.0458948
1.91291
-0.0538953
2.17911
-0.0597271
2.46049
-0.0620111
2.75487
-0.0615698
3.06494
-0.0642651
2.85482
-0.0751349
2.2456
-0.0871707
1.76614
-0.0866635
1.37676
-0.0753724
1.07585
-0.0589923
0.850926
-0.0393903
0.681828
-0.0212659
0.544688
-0.00813252
0.390995
0.140537
-0.00556989
0.43111
-0.0128398
0.955818
-0.0203277
1.23345
-0.0287051
1.4495
-0.0374304
1.6747
-0.0462705
1.92175
-0.0541382
2.18698
-0.0595212
2.46587
-0.0607625
2.75611
-0.0586852
3.06286
-0.0621813
2.85832
-0.0790707
2.26249
-0.0972612
1.78434
-0.104781
1.38428
-0.095892
1.06696
-0.0719985
0.827032
-0.0479282
0.657758
-0.0285435
0.525303
-0.0111977
0.37365
0.12934
-0.00569993
0.43681
-0.0130328
0.963151
-0.0205831
1.241
-0.0289715
1.45789
-0.0377447
1.68347
-0.0466085
1.93061
-0.0543962
2.19477
-0.059426
2.4709
-0.0597857
2.75647
-0.0560951
3.05917
-0.058463
2.86069
-0.0804365
2.28446
-0.109193
1.81309
-0.121035
1.39613
-0.109846
1.05577
-0.0858019
0.802989
-0.0556377
0.627594
-0.0280793
0.497745
-0.0044363
0.350007
0.124903
-0.00576915
0.442579
-0.0131578
0.97054
-0.0207502
1.24859
-0.0291377
1.46627
-0.0379653
1.6923
-0.0468723
1.93952
-0.0546287
2.20252
-0.059323
2.4756
-0.0584787
2.75562
-0.05147
3.05216
-0.0521306
2.86135
-0.0782098
2.31054
-0.116394
1.85128
-0.141385
1.42112
-0.146534
1.06092
-0.128679
0.785133
-0.0853661
0.584281
-0.0335843
0.445963
-0.00444291
0.320865
0.12046
-0.00579347
0.448373
-0.013197
0.977943
-0.0208116
1.2562
-0.0292213
1.47468
-0.0380893
1.70117
-0.0470879
1.94852
-0.0548956
2.21033
-0.0593309
2.48003
-0.0572765
2.75357
-0.0473387
3.04223
-0.0446578
2.85867
-0.0732072
2.33909
-0.127676
1.90575
-0.177929
1.47137
-0.194796
1.07779
-0.164967
0.755304
-0.0880417
0.507356
0.0248619
0.333059
0.103569
0.242158
0.22403
-0.00588504
0.454258
-0.0134179
0.985476
-0.0212609
1.26405
-0.0300254
1.48345
-0.0394556
1.7106
-0.0492452
1.95831
-0.0579763
2.21906
-0.0630632
2.48512
-0.0603295
2.75084
-0.0466321
3.02853
-0.0377028
2.84974
-0.0719992
2.37339
-0.154877
1.98862
-0.231031
1.54752
-0.253536
1.1003
-0.23895
0.740718
-0.250463
0.518869
-0.404511
0.487107
-0.866804
0.704451
0.859875
-1.50265
-0.00593155
0.46019
-0.0134785
0.993023
-0.021439
1.27201
-0.030394
1.4924
-0.0402202
1.72042
-0.0505978
1.96869
-0.0600679
2.22853
-0.0657134
2.49077
-0.0619812
2.7471
-0.0423943
3.00894
-0.0256402
2.83299
-0.0674459
2.41519
-0.175561
2.09674
-0.279783
1.65175
-0.352933
1.17345
-0.431597
0.819382
-0.689551
0.776823
-1.31432
1.11188
-1.92002
1.31014
1.22273
-2.28287
-0.00597689
0.466166
-0.0134558
1.0005
-0.021485
1.28004
-0.0306178
1.50154
-0.0408616
1.73067
-0.0518923
1.97972
-0.0622144
2.23886
-0.068616
2.49717
-0.06406
2.74255
-0.0381042
2.98299
-0.01059
2.80547
-0.0441378
2.44874
-0.163049
2.21565
-0.297051
1.78575
-0.421005
1.2974
-0.707203
1.10558
-1.38107
1.45069
-1.9914
1.72222
-2.2658
1.58454
1.35513
-2.3982
-0.0059348
0.472101
-0.0133277
1.0079
-0.0213953
1.2881
-0.0306837
1.51082
-0.0413619
1.74135
-0.0530558
1.99141
-0.0643376
2.25014
-0.0717321
2.50456
-0.0668389
2.73766
-0.0344622
2.95061
0.0163302
2.75468
0.00665175
2.45842
-0.144374
2.36667
-0.377595
2.01897
-0.699367
1.61917
-1.26896
1.67517
-1.88072
2.06245
-2.16634
2.00784
-2.30502
1.72322
1.43395
-2.38384
-0.00577325
0.477875
-0.0130502
1.01517
-0.0211202
1.29617
-0.0306219
1.52033
-0.0417135
1.75244
-0.0541142
2.00381
-0.0664755
2.2625
-0.0751269
2.51321
-0.0698141
2.73234
-0.0284758
2.90927
0.0702654
2.65594
0.0815538
2.44713
-0.137222
2.58545
-0.470659
2.35241
-0.897344
2.04586
-1.52869
2.30651
-1.96177
2.49553
-2.15833
2.20439
-2.26476
1.82964
1.51636
-2.34717
-0.00591562
0.48379
-0.0134449
1.0227
-0.0219141
1.30464
-0.0320646
1.53048
-0.0438679
1.76424
-0.057352
2.01729
-0.0710869
2.27623
-0.0811143
2.52324
-0.075912
2.72714
-0.01544
2.8488
0.126752
2.51375
0.142211
2.43167
-0.123155
2.85082
-0.546007
2.77526
-1.12655
2.6264
-1.73177
2.91173
-2.03453
2.7983
-2.19086
2.36072
-2.28905
1.92783
1.59673
-2.36941
-0.00647803
0.490268
-0.0147818
1.03101
-0.0241574
1.31402
-0.0353508
1.54167
-0.0484236
1.77731
-0.063455
2.03233
-0.0790484
2.29183
-0.0908607
2.53505
-0.0856594
2.72194
-0.00386313
2.767
0.158374
2.35151
0.170584
2.41946
-0.133161
3.15456
-0.66017
3.30227
-1.30732
3.27356
-1.77167
3.37608
-1.99531
3.02193
-2.14389
2.5093
-2.25642
2.04036
1.68158
-2.34127
-0.00709734
0.497366
-0.0163351
1.04024
-0.026769
1.32445
-0.0391481
1.55405
-0.0537243
1.79189
-0.0705737
2.04918
-0.0885835
2.30984
-0.103155
2.54963
-0.0975376
2.71632
-0.00525621
2.67472
0.153121
2.19313
0.139235
2.43335
-0.215344
3.50914
-0.810817
3.89774
-1.44093
3.90367
-1.79622
3.73136
-2.0045
3.23021
-2.17407
2.67887
-2.34314
2.20944
1.77181
-2.43338
-0.00776358
0.505129
-0.0180602
1.05054
-0.0297144
1.33611
-0.0434942
1.56783
-0.059817
1.80821
-0.0788631
2.06822
-0.0998243
2.3308
-0.118437
2.56824
-0.115324
2.71321
-0.0361617
2.59556
0.0558832
2.10109
-0.0165098
2.50574
-0.384913
3.87754
-1.00718
4.52001
-1.55861
4.4551
-1.85413
4.02689
-2.02977
3.40585
-2.16819
2.8173
-2.28426
2.3255
1.78668
-2.29912
-0.00849261
0.513622
-0.0199955
1.06204
-0.0330553
1.34917
-0.048465
1.58324
-0.0667882
1.82653
-0.0883969
2.08983
-0.113008
2.35541
-0.137456
2.59269
-0.145638
2.72139
-0.112289
2.56221
-0.110813
2.09961
-0.254717
2.64964
-0.666509
4.28934
-1.24305
5.09656
-1.6316
4.84364
-1.85943
4.25472
-2.00508
3.5515
-2.04933
2.86154
-2.05918
2.33536
1.87531
-2.14781
-0.00918819
0.52281
-0.0220398
1.07489
-0.0365887
1.36372
-0.0536846
1.60033
-0.073994
1.84684
-0.0981733
2.11401
-0.12646
2.3837
-0.157512
2.62374
-0.185067
2.74895
-0.21874
2.59588
-0.315904
2.19677
-0.532551
2.86629
-0.960711
4.7175
-1.37859
5.51443
-1.5933
5.05836
-1.70198
4.36339
-1.73214
3.58167
-1.61387
2.74327
-1.15095
1.87243
0.724358
-0.00993301
0.532743
-0.0243484
1.08931
-0.0408613
1.38023
-0.0604199
1.61989
-0.0838758
1.8703
-0.112446
2.14258
-0.147357
2.41861
-0.19006
2.66644
-0.245562
2.80445
-0.359531
2.70985
-0.568849
2.40609
-0.870467
3.16791
-1.28842
5.13545
-1.52428
5.75029
-1.61616
5.15024
-1.61419
4.36142
-1.54909
3.51657
-1.34242
2.53661
-0.766759
1.29677
-0.042401
-0.0106276
0.543371
-0.026688
1.10537
-0.04537
1.39891
-0.0676804
1.6422
-0.0948193
1.89744
-0.12854
2.1763
-0.17154
2.46161
-0.229486
2.72439
-0.320365
2.89533
-0.51375
2.90324
-0.832565
2.72491
-1.19754
3.53288
-1.52869
5.46661
-1.61685
5.83844
-1.62768
5.16108
-1.58806
4.32179
-1.44258
3.37109
-1.01188
2.10591
-0.211517
0.49641
-0.253918
-0.0112888
0.554659
-0.0292249
1.12331
-0.0503019
1.41999
-0.0756519
1.66755
-0.106804
1.92859
-0.14625
2.21575
-0.198394
2.51375
-0.273461
2.79945
-0.401398
3.02326
-0.663845
3.16569
-1.06533
3.12639
-1.44573
3.91328
-1.65111
5.67198
-1.64441
5.83175
-1.57635
5.09301
-1.46248
4.20792
-1.185
3.09361
-0.595831
1.51674
-0.0692423
-0.0301788
-0.323161
-0.0116548
0.566314
-0.0313884
1.14304
-0.0550435
1.44364
-0.0837339
1.69624
-0.119287
1.96414
-0.164918
2.26138
-0.226743
2.57557
-0.318977
2.89169
-0.47923
3.18352
-0.792339
3.4788
-1.24111
3.57516
-1.58391
4.25608
-1.67752
5.76559
-1.60084
5.75507
-1.43999
4.93216
-1.19068
3.95862
-0.816549
2.71947
-0.351693
1.05188
-0.128454
-0.253418
-0.451615
-0.0118529
0.578167
-0.0336067
1.16479
-0.0599132
1.46995
-0.0919976
1.72833
-0.131948
2.00409
-0.183763
2.31319
-0.255014
2.64683
-0.362593
2.99927
-0.546509
3.36743
-0.887107
3.81939
-1.34833
4.03638
-1.64632
4.55407
-1.61819
5.73746
-1.41262
5.54949
-1.11689
4.63643
-0.740287
3.58201
-0.33815
2.31734
-0.0845923
0.798322
-0.0631771
-0.274833
-0.514792
-0.0113746
0.589542
-0.0346121
1.18803
-0.0637072
1.49904
-0.0993546
1.76398
-0.14369
2.04843
-0.201216
2.37072
-0.280337
2.72595
-0.398783
3.11771
-0.595067
3.56372
-0.936617
4.16094
-1.36473
4.4645
-1.60206
4.7914
-1.42099
5.55639
-1.0714
5.1999
-0.658336
4.22337
-0.234537
3.15822
0.117161
1.96564
0.207613
0.707869
0.0932015
-0.160421
-0.42159
-0.010507
0.600049
-0.0355531
1.21308
-0.0671039
1.5306
-0.105724
1.8026
-0.153567
2.09627
-0.215701
2.43285
-0.300558
2.8108
-0.424842
3.242
-0.620595
3.75947
-0.934778
4.47513
-1.28515
4.81487
-1.40323
4.90948
-1.10634
5.2595
-0.69674
4.79031
-0.263892
3.79052
0.134547
2.75978
0.375087
1.7251
0.373261
0.709695
0.183202
0.0296381
-0.238389
-0.0082743
0.608323
-0.0341757
1.23898
-0.0682902
1.56471
-0.109542
1.84385
-0.160338
2.14707
-0.22593
2.49844
-0.313913
2.89879
-0.438606
3.36669
-0.622755
3.94362
-0.891011
4.74338
-1.14314
5.067
-1.14651
4.91285
-0.782645
4.89564
-0.351327
4.35899
0.0207586
3.41843
0.321819
2.45872
0.483198
1.56372
0.421356
0.771537
0.193515
0.257479
-0.0448739
-0.00564299
0.613966
-0.0331393
1.26647
-0.0684006
1.59997
-0.110506
1.88595
-0.162771
2.19933
-0.229556
2.56523
-0.316919
2.98615
-0.435912
3.48568
-0.600572
4.10828
-0.817095
4.95991
-0.975065
5.22497
-0.900346
4.83813
-0.533123
4.52842
-0.105346
3.93121
0.222138
3.09095
0.43063
2.25022
0.497327
1.49702
0.385155
0.883709
0.16989
0.472744
0.125016
-0.00339097
0.617357
-0.0294159
1.2925
-0.0644691
1.63502
-0.107236
1.92872
-0.160036
2.25213
-0.226013
2.6312
-0.309646
3.06978
-0.417878
3.59392
-0.557824
4.24823
-0.72116
5.12324
-0.802953
5.30676
-0.6925
4.72768
-0.369292
4.20521
0.00321732
3.5587
0.278609
2.81556
0.416935
2.1119
0.418526
1.49543
0.289134
1.0131
0.114601
0.647277
0.239618
-0.000525455
0.617882
-0.0249968
1.31697
-0.0581123
1.66814
-0.0997045
1.97031
-0.150778
2.30321
-0.213394
2.69382
-0.291228
3.14762
-0.387686
3.69037
-0.501012
4.36155
-0.614881
5.23711
-0.64366
5.33554
-0.524479
4.60849
-0.267459
3.94819
0.0164403
3.2748
0.219274
2.61273
0.310771
2.0204
0.290408
1.5158
0.184204
1.1193
0.0630444
0.768437
0.302662
0.00406162
0.613821
-0.015339
1.33637
-0.0467413
1.69954
-0.0874322
2.011
-0.136046
2.35182
-0.192669
2.75044
-0.262744
3.21769
-0.345747
3.77338
-0.434078
4.44988
-0.507669
5.3107
-0.505103
5.33298
-0.393734
4.49713
-0.205544
3.76
-0.0113504
3.08061
0.125544
2.47583
0.186014
1.95993
0.168527
1.53328
0.100982
1.18685
0.0290123
0.840406
0.331675
0.00984148
0.603979
-0.00210332
1.34832
-0.031933
1.72937
-0.0681061
2.04718
-0.110189
2.3939
-0.159826
2.80008
-0.219988
3.27785
-0.288247
3.84164
-0.356544
4.51818
-0.401062
5.35522
-0.383707
5.31562
-0.292506
4.40592
-0.162054
3.62955
-0.0380834
2.95664
0.0488017
2.38895
0.0887984
1.91994
0.0823507
1.53973
0.0483715
1.22083
0.0131483
0.875629
0.344823
0.0163311
0.587648
0.00949193
1.35516
-0.014158
1.75302
-0.0438356
2.07685
-0.077304
2.42737
-0.118862
2.84164
-0.166693
3.32568
-0.219381
3.89432
-0.268637
4.56743
-0.293028
5.37961
-0.272017
5.29461
-0.206101
4.34001
-0.120166
3.54361
-0.0442047
2.88068
0.00768692
2.33705
0.0333688
1.89425
0.0354341
1.53766
0.0223263
1.23394
0.00743136
0.890524
0.352254
0.0239299
0.563718
0.0270536
1.35203
0.0136192
1.76646
-0.00706741
2.09754
-0.0321778
2.45248
-0.0644631
2.87392
-0.0997903
3.36101
-0.137901
3.93243
-0.172442
4.60198
-0.186428
5.3936
-0.167494
5.27568
-0.124643
4.29716
-0.0737907
3.49276
-0.0315169
2.8384
-0.00233681
2.30787
0.0121239
1.87979
0.0161344
1.53365
0.0131515
1.23692
0.0061532
0.897523
0.358407
0.0350525
0.528666
0.0507869
1.3363
0.0459133
1.77133
0.0348932
2.10856
0.0180257
2.46935
-0.000301919
2.89225
-0.0213567
3.38207
-0.0448631
3.95594
-0.066561
4.62367
-0.0749752
5.40201
-0.0620356
5.26274
-0.0380375
4.27316
-0.0133643
3.46809
0.00543147
2.81961
0.0159663
2.29734
0.0213277
1.87443
0.0204575
1.53452
0.016773
1.2406
0.00892996
0.905366
0.367337
0.0471651
0.481501
0.0799843
1.30348
0.0912017
1.76011
0.0937764
2.10599
0.0914841
2.47164
0.087558
2.89618
0.0794667
3.39016
0.0696238
3.96578
0.0590161
4.63428
0.0534482
5.40758
0.0569196
5.25927
0.0625325
4.26755
0.0638352
3.46679
0.0604609
2.82298
0.0533356
2.30446
0.0441131
1.88365
0.0351183
1.54352
0.0253219
1.2504
0.0128793
0.917808
0.380217
0.0658326
0.415668
0.119355
1.24996
0.14757
1.7319
0.165481
2.08808
0.179125
2.458
0.191365
2.88394
0.200292
3.38123
0.205489
3.96059
0.20692
4.63285
0.204863
5.40964
0.199964
5.26417
0.189847
4.27766
0.172557
3.48407
0.15036
2.84518
0.126104
2.32872
0.10056
1.9092
0.0762566
1.56782
0.0521858
1.27447
0.0253107
0.944683
0.405527
0.0846617
0.331007
0.173199
1.16142
0.228942
1.67616
0.26697
2.05005
0.297414
2.42755
0.326307
2.85504
0.351654
3.35588
0.372458
3.93978
0.38694
4.61837
0.391099
5.40548
0.38163
5.27363
0.359455
4.29984
0.325966
3.51756
0.284532
2.88661
0.23867
2.37458
0.190542
1.95733
0.142746
1.61562
0.0954561
1.32176
0.0442417
0.995898
0.449769
0.0493739
0.281633
0.13085
1.07994
0.199379
1.60763
0.253792
1.99563
0.297606
2.38374
0.332118
2.82053
0.35745
3.33055
0.372039
3.92519
0.373855
4.61655
0.359751
5.41958
0.332024
5.30136
0.298022
4.33384
0.260043
3.55554
0.2203
2.92636
0.180251
2.41463
0.140531
1.99705
0.101487
1.65466
0.0633008
1.35995
0.0247644
1.03443
0.474533
-0.0111089
0.292742
0.0199208
1.04891
0.0651589
1.56239
0.115171
1.94562
0.163974
2.33494
0.208144
2.77636
0.246697
3.292
0.274708
3.89718
0.288235
4.60302
0.283689
5.42413
0.261848
5.3232
0.231143
4.36455
0.195538
3.59115
0.157968
2.96393
0.120477
2.45212
0.0845719
2.03295
0.0518556
1.68738
0.0226698
1.38913
0.00138191
1.05572
0.475915
-0.0319554
0.324697
-0.0230924
1.04005
0.00709381
1.5322
0.0440927
1.90862
0.0850352
2.294
0.126825
2.73457
0.165421
3.2534
0.19633
3.86627
0.215992
4.58336
0.218877
5.42124
0.202799
5.33928
0.176372
4.39097
0.145195
3.62233
0.11277
2.99635
0.0814336
2.48346
0.0528056
2.06158
0.0277048
1.71248
0.00629375
1.41054
-0.00565521
1.06767
0.47026
-0.0353885
0.360086
-0.0368844
1.04154
-0.0146117
1.50993
0.0159181
1.87809
0.0487469
2.26117
0.0818945
2.70142
0.113544
3.22175
0.141237
3.83858
0.160712
4.56389
0.166273
5.41568
0.15497
5.35058
0.133875
4.41207
0.10863
3.64757
0.0828218
3.02216
0.0583922
2.50789
0.0361598
2.08381
0.0160102
1.73263
-0.00139586
1.42795
-0.00890432
1.07518
0.461356
-0.0251257
0.385211
-0.0340805
1.0505
-0.0202791
1.49613