/*--------------------------------*- C++ -*----------------------------------*\
| =========                 |                                                 |
| \\      /  F ield         | OpenFOAM: The Open Source CFD Toolbox           |
|  \\    /   O peration     | Version:  4.0                                   |
|   \\  /    A nd           | Web:      www.OpenFOAM.org                      |
|    \\/     M anipulation  |                                                 |
\*---------------------------------------------------------------------------*/
FoamFile
{
    version     2.0;
    format      ascii;
    class       volVectorField;
    location    "6";
    object      U;
}
// * * * * * * * * * * * * * * * * * * * * * * * * * * * * * * * * * * * * * //

dimensions      [0 1 -1 0 0 0 0];

internalField   nonuniform List<vector> 
2200
(
(0.879868 -0.0307299 0)
(1.0038 -0.0539254 0)
(1.00491 -0.0373741 0)
(1.00201 -0.0251012 0)
(1.00085 -0.0165541 0)
(1.00028 -0.0102524 0)
(1 -0.00613916 0)
(0.999774 -0.00351049 0)
(0.999547 -0.00159723 0)
(0.999848 -0.000813224 0)
(0.999734 0.000880779 0)
(0.999576 0.00165682 0)
(0.999812 0.00357267 0)
(1.00004 0.006194 0)
(1.00032 0.0103057 0)
(1.00087 0.0165994 0)
(1.00201 0.0251358 0)
(1.00487 0.0374054 0)
(1.0038 0.0539408 0)
(0.879859 0.0307347 0)
(0.698513 -0.0318098 0)
(0.994112 -0.0578361 0)
(1.03613 -0.0535308 0)
(1.02605 -0.044073 0)
(1.01504 -0.0340923 0)
(1.00818 -0.0251047 0)
(1.00392 -0.0174223 0)
(1.00166 -0.0113987 0)
(1.00058 -0.00633394 0)
(1.00116 -0.00176221 0)
(1.00105 0.00234459 0)
(1.00047 0.00689494 0)
(1.00156 0.0118594 0)
(1.0038 0.0177864 0)
(1.00807 0.0253935 0)
(1.01494 0.0343199 0)
(1.02597 0.044257 0)
(1.03611 0.0536399 0)
(0.993995 0.0579339 0)
(0.698426 0.0318288 0)
(0.55886 -0.0160659 0)
(0.975974 -0.0436941 0)
(1.05334 -0.0373197 0)
(1.0518 -0.0367607 0)
(1.03798 -0.0331105 0)
(1.02481 -0.0278247 0)
(1.01518 -0.0219101 0)
(1.00899 -0.0154878 0)
(1.00581 -0.00908782 0)
(1.00475 -0.00251855 0)
(1.0047 0.00322131 0)
(1.00559 0.00970836 0)
(1.00882 0.0160224 0)
(1.01508 0.0223593 0)
(1.02471 0.0281989 0)
(1.03788 0.0333894 0)
(1.05166 0.0369764 0)
(1.05314 0.0375063 0)
(0.975625 0.0437774 0)
(0.558438 0.0160873 0)
(0.471525 -0.00715224 0)
(0.947057 -0.0260422 0)
(1.05582 -0.0220512 0)
(1.0611 -0.0238379 0)
(1.0499 -0.022034 0)
(1.0388 -0.0197944 0)
(1.03008 -0.0168615 0)
(1.02328 -0.0127678 0)
(1.01829 -0.00785796 0)
(1.01528 -0.00218731 0)
(1.01524 0.00344779 0)
(1.01811 0.00906905 0)
(1.02299 0.0138334 0)
(1.02963 0.0177522 0)
(1.03829 0.0205017 0)
(1.04939 0.0226224 0)
(1.06057 0.0242331 0)
(1.05524 0.0223088 0)
(0.946501 0.026154 0)
(0.470989 0.00720979 0)
(0.42904 -0.00154514 0)
(0.920034 -0.0122984 0)
(1.04818 -0.0126521 0)
(1.05805 -0.0162771 0)
(1.04902 -0.0161067 0)
(1.03966 -0.0155434 0)
(1.03208 -0.0138284 0)
(1.02605 -0.0108834 0)
(1.02161 -0.00698849 0)
(1.01885 -0.00186444 0)
(1.01869 0.00362622 0)
(1.02115 0.0086463 0)
(1.02535 0.0122843 0)
(1.0313 0.0149457 0)
(1.03886 0.0163527 0)
(1.04824 0.0165885 0)
(1.05725 0.0166421 0)
(1.04737 0.0130067 0)
(0.919047 0.0125645 0)
(0.42799 0.00163093 0)
(0.419562 0.000922026 0)
(0.902933 -0.00253393 0)
(1.03255 -0.00455771 0)
(1.04568 -0.00891161 0)
(1.04117 -0.0107749 0)
(1.03515 -0.011616 0)
(1.02971 -0.0107228 0)
(1.02512 -0.00863647 0)
(1.02161 -0.00528773 0)
(1.01954 -0.00100111 0)
(1.01942 0.00351614 0)
(1.02125 0.0074142 0)
(1.02441 0.010438 0)
(1.0287 0.0122357 0)
(1.03396 0.0129235 0)
(1.03992 0.0119061 0)
(1.04446 0.0097164 0)
(1.03118 0.00513024 0)
(0.90115 0.00284414 0)
(0.417736 -0.0008684 0)
(0.421017 0.000753493 0)
(0.898458 0.000338813 0)
(1.02446 -0.000709483 0)
(1.03892 -0.00372203 0)
(1.0374 -0.00558145 0)
(1.03391 -0.00690478 0)
(1.03011 -0.00698075 0)
(1.02644 -0.0059087 0)
(1.02347 -0.00364602 0)
(1.02151 -0.000478498 0)
(1.02128 0.00326423 0)
(1.02286 0.00647364 0)
(1.02553 0.00847397 0)
(1.02895 0.00915093 0)
(1.03237 0.00862179 0)
(1.03553 0.00690605 0)
(1.03685 0.00465103 0)
(1.02213 0.00130189 0)
(0.895597 -0.000121829 0)
(0.418817 -0.000710279 0)
(0.423409 8.82798e-05 0)
(0.898529 0.000222755 0)
(1.02259 -0.000352924 0)
(1.03763 -0.0018431 0)
(1.03759 -0.00283627 0)
(1.03591 -0.00371882 0)
(1.03365 -0.00400347 0)
(1.03106 -0.00346813 0)
(1.02845 -0.00206226 0)
(1.02643 0.000311907 0)
(1.02607 0.00309978 0)
(1.02715 0.00534166 0)
(1.02902 0.00624903 0)
(1.03108 0.00625829 0)
(1.03317 0.00550129 0)
(1.03478 0.00417762 0)
(1.03472 0.00278681 0)
(1.01949 0.000948633 0)
(0.895025 5.16259e-05 0)
(0.420524 -2.76076e-05 0)
(0.423443 -2.96994e-05 0)
(0.898382 1.48227e-06 0)
(1.021 -0.000354551 0)
(1.03597 -0.00102271 0)
(1.0364 -0.00156049 0)
(1.03538 -0.00198166 0)
(1.03399 -0.00203182 0)
(1.03237 -0.00157182 0)
(1.03063 -0.000485869 0)
(1.02908 0.00124567 0)
(1.02841 0.00328367 0)
(1.02857 0.00445073 0)
(1.02963 0.00493136 0)
(1.03094 0.00479445 0)
(1.03215 0.00414436 0)
(1.033 0.00315886 0)
(1.0324 0.00217853 0)
(1.01716 0.00109546 0)
(0.894172 0.000378291 0)
(0.420147 0.000117193 0)
(0.423523 6.67055e-05 0)
(0.898067 0.00016931 0)
(1.01966 0.000108568 0)
(1.03439 -0.000132855 0)
(1.03489 -0.000355006 0)
(1.03413 -0.000522986 0)
(1.03311 -0.000405159 0)
(1.03189 3.48743e-05 0)
(1.0305 0.000918781 0)
(1.02918 0.00220656 0)
(1.02848 0.00359176 0)
(1.02839 0.00430299 0)
(1.02886 0.00436722 0)
(1.02934 0.00404299 0)
(1.02985 0.00339407 0)
(1.03026 0.00255571 0)
(1.02948 0.00172285 0)
(1.01432 0.000923549 0)
(0.892197 0.000321049 0)
(0.418907 5.25138e-05 0)
(0.424034 0.000129964 0)
(0.898243 0.000283942 0)
(1.0196 0.000396043 0)
(1.03419 0.000439981 0)
(1.03469 0.000479546 0)
(1.03418 0.000636968 0)
(1.0334 0.000948223 0)
(1.03237 0.00144776 0)
(1.0311 0.00219636 0)
(1.02979 0.00317613 0)
(1.0288 0.00390545 0)
(1.02837 0.00437359 0)
(1.02823 0.0041195 0)
(1.02832 0.00362783 0)
(1.02846 0.00295039 0)
(1.02857 0.00219474 0)
(1.02764 0.00147055 0)
(1.01247 0.000824489 0)
(0.890669 0.000288705 0)
(0.418333 4.44262e-05 0)
(0.425084 0.000146805 0)
(0.898874 0.000384477 0)
(1.01997 0.000580987 0)
(1.03464 0.000799877 0)
(1.03538 0.00114419 0)
(1.03498 0.00155296 0)
(1.0343 0.00206851 0)
(1.03334 0.0026973 0)
(1.03209 0.00343026 0)
(1.03063 0.00422596 0)
(1.02934 0.00467018 0)
(1.02842 0.0047042 0)
(1.02791 0.00432818 0)
(1.02768 0.00365041 0)
(1.02754 0.00291379 0)
(1.02743 0.00217706 0)
(1.02636 0.00150046 0)
(1.01115 0.000908902 0)
(0.889456 0.000394022 0)
(0.417686 0.000100566 0)
(0.426149 0.000157392 0)
(0.900111 0.000503459 0)
(1.02093 0.00089306 0)
(1.03566 0.00134126 0)
(1.03638 0.00186354 0)
(1.03596 0.00246186 0)
(1.03525 0.00316234 0)
(1.03424 0.00394584 0)
(1.03287 0.0047556 0)
(1.03115 0.00547657 0)
(1.02944 0.00577146 0)
(1.02815 0.0054305 0)
(1.02727 0.00487138 0)
(1.02669 0.00405888 0)
(1.02633 0.00321643 0)
(1.02607 0.00241776 0)
(1.02492 0.00169801 0)
(1.00966 0.00106617 0)
(0.887975 0.000502778 0)
(0.416681 0.000136943 0)
(0.427504 0.000205356 0)
(0.90172 0.000659781 0)
(1.02237 0.00124585 0)
(1.03701 0.0018856 0)
(1.03767 0.00260853 0)
(1.03719 0.00342848 0)
(1.03639 0.00435186 0)
(1.03523 0.00533919 0)
(1.03362 0.00629562 0)
(1.03152 0.00703583 0)
(1.02929 0.00721245 0)
(1.0275 0.00669516 0)
(1.02625 0.0058319 0)
(1.0254 0.00480819 0)
(1.02484 0.0037948 0)
(1.02444 0.00285454 0)
(1.02321 0.00201688 0)
(1.00788 0.00127978 0)
(0.886166 0.000615951 0)
(0.415407 0.000169005 0)
(0.429288 0.000265687 0)
(0.903861 0.000854958 0)
(1.02431 0.00163303 0)
(1.03883 0.0024823 0)
(1.03941 0.00344838 0)
(1.03883 0.00453931 0)
(1.03788 0.00574352 0)
(1.03648 0.00699826 0)
(1.03451 0.00816732 0)
(1.0319 0.00899129 0)
(1.02903 0.00906678 0)
(1.02667 0.00832989 0)
(1.02498 0.00717453 0)
(1.02382 0.00588851 0)
(1.02305 0.00463505 0)
(1.02253 0.00348649 0)
(1.02121 0.00247068 0)
(1.00577 0.00157662 0)
(0.883975 0.000766595 0)
(0.41384 0.000212696 0)
(0.4316 0.000341458 0)
(0.90667 0.00109939 0)
(1.02688 0.00210663 0)
(1.04128 0.00320805 0)
(1.04175 0.00447113 0)
(1.04102 0.00589235 0)
(1.03983 0.00744826 0)
(1.03807 0.0090464 0)
(1.0356 0.0105005 0)
(1.03231 0.0114636 0)
(1.02865 0.0114483 0)
(1.02558 0.0104444 0)
(1.02338 0.00895125 0)
(1.02187 0.00732799 0)
(1.02086 0.00575954 0)
(1.02018 0.00433268 0)
(1.01876 0.00307545 0)
(1.00318 0.00196948 0)
(0.881261 0.000963388 0)
(0.411877 0.000268847 0)
(0.434572 0.000440387 0)
(0.910267 0.00141772 0)
(1.03016 0.00272139 0)
(1.04441 0.00415211 0)
(1.04475 0.0057857 0)
(1.0438 0.00761795 0)
(1.04229 0.00960968 0)
(1.04006 0.0116382 0)
(1.03692 0.0134552 0)
(1.03273 0.014606 0)
(1.02807 0.0144933 0)
(1.02415 0.0131589 0)
(1.02133 0.0112449 0)
(1.01939 0.00919116 0)
(1.01811 0.00721868 0)
(1.01725 0.00543061 0)
(1.0157 0.00385751 0)
(0.999959 0.00247215 0)
(0.877862 0.00121089 0)
(0.409407 0.000337762 0)
(0.438425 0.000578747 0)
(0.914959 0.00183403 0)
(1.03451 0.00351011 0)
(1.04855 0.00533002 0)
(1.04869 0.00744376 0)
(1.04744 0.00979886 0)
(1.04549 0.012357 0)
(1.04261 0.0149394 0)
(1.03858 0.0172187 0)
(1.03324 0.0186076 0)
(1.02731 0.0183732 0)
(1.02234 0.0166168 0)
(1.01876 0.0141639 0)
(1.0163 0.0115564 0)
(1.01467 0.00906331 0)
(1.01358 0.00681087 0)
(1.01186 0.00483394 0)
(0.995897 0.00309936 0)
(0.873588 0.00151813 0)
(0.406309 0.000423764 0)
(0.44349 0.000752273 0)
(0.920952 0.00242278 0)
(1.03991 0.00459815 0)
(1.05371 0.00699986 0)
(1.0536 0.00970251 0)
(1.05197 0.0127197 0)
(1.04944 0.0159636 0)
(1.04572 0.0192172 0)
(1.04053 0.0220456 0)
(1.03372 0.0236955 0)
(1.02621 0.0232789 0)
(1.01993 0.0209833 0)
(1.01543 0.0178557 0)
(1.01234 0.0145598 0)
(1.0103 0.0114227 0)
(1.00896 0.0085927 0)
(1.00706 0.00610787 0)
(0.990836 0.0039147 0)
(0.868232 0.00191566 0)
(0.402415 0.000528691 0)
(0.450026 0.00102869 0)
(0.928915 0.0030816 0)
(1.04733 0.00590931 0)
(1.06074 0.00889071 0)
(1.06024 0.0124603 0)
(1.05802 0.0163651 0)
(1.05464 0.0205683 0)
(1.04976 0.0247154 0)
(1.04303 0.0282367 0)
(1.03432 0.0301847 0)
(1.02487 0.0295025 0)
(1.017 0.0264989 0)
(1.01135 0.0224984 0)
(1.00746 0.0183072 0)
(1.00487 0.0143231 0)
(1.00316 0.010734 0)
(1.00097 0.00759189 0)
(0.984375 0.00484941 0)
(0.86145 0.00236084 0)
(0.397564 0.000663784 0)
(0.459142 0.00133626 0)
(0.939067 0.00443472 0)
(1.05631 0.00807484 0)
(1.06934 0.0121846 0)
(1.06836 0.0166503 0)
(1.06541 0.0216031 0)
(1.06092 0.0268442 0)
(1.05449 0.0319549 0)
(1.04579 0.0361805 0)
(1.03471 0.0383408 0)
(1.02283 0.0372275 0)
(1.013 0.0333294 0)
(1.00597 0.0282782 0)
(1.00112 0.0230368 0)
(0.997916 0.0180798 0)
(0.995833 0.0136273 0)
(0.993419 0.00972335 0)
(0.976448 0.00626714 0)
(0.853113 0.00308002 0)
(0.391449 0.000821913 0)
(0.470663 0.00195434 0)
(0.953292 0.00520251 0)
(1.06916 0.0102253 0)
(1.08129 0.0152981 0)
(1.07939 0.0214852 0)
(1.07522 0.0280691 0)
(1.06906 0.0349228 0)
(1.0605 0.0413678 0)
(1.0492 0.0464512 0)
(1.03516 0.0487805 0)
(1.02044 0.0470327 0)
(1.00835 0.0419635 0)
(0.999661 0.0355678 0)
(0.993613 0.0289429 0)
(0.989532 0.0226338 0)
(0.986807 0.0169103 0)
(0.983841 0.0118768 0)
(0.966119 0.00747263 0)
(0.842001 0.00356942 0)
(0.383778 0.00104796 0)
(0.487815 0.00273125 0)
(0.970461 0.0089631 0)
(1.08486 0.0150985 0)
(1.0963 0.0221052 0)
(1.09321 0.0297165 0)
(1.08729 0.0378508 0)
(1.07879 0.0461641 0)
(1.06733 0.0537439 0)
(1.0527 0.0594041 0)
(1.03504 0.0615446 0)
(1.01683 0.0588268 0)
(1.00196 0.0523258 0)
(0.991254 0.0443916 0)
(0.983734 0.0362794 0)
(0.978604 0.0286128 0)
(0.975189 0.0217163 0)
(0.971801 0.015651 0)
(0.953736 0.0102868 0)
(0.829825 0.00515916 0)
(0.374472 0.00131773 0)
(0.512133 0.00403006 0)
(0.998669 0.0102153 0)
(1.10702 0.0198 0)
(1.11635 0.029539 0)
(1.11089 0.0402084 0)
(1.10213 0.0509948 0)
(1.09029 0.0613563 0)
(1.07501 0.070176 0)
(1.05629 0.0762122 0)
(1.03443 0.0777843 0)
(1.01243 0.0736464 0)
(0.994618 0.0653394 0)
(0.981706 0.0555713 0)
(0.972506 0.045606 0)
(0.966093 0.0360352 0)
(0.961661 0.0271723 0)
(0.957272 0.0191748 0)
(0.937126 0.0119568 0)
(0.809933 0.00559903 0)
(0.361263 0.00169128 0)
(0.543358 0.00796272 0)
(1.02856 0.0204545 0)
(1.13634 0.0314537 0)
(1.14255 0.0442903 0)
(1.13313 0.057051 0)
(1.12013 0.0700772 0)
(1.10361 0.0817634 0)
(1.08341 0.0911836 0)
(1.05972 0.0968496 0)
(1.03294 0.0971381 0)
(1.00657 0.0910601 0)
(0.985297 0.0806355 0)
(0.969706 0.068847 0)
(0.958304 0.0570035 0)
(0.95003 0.0457533 0)
(0.944018 0.0353783 0)
(0.938353 0.0260866 0)
(0.918223 0.0176584 0)
(0.793263 0.0089894 0)
(0.349062 0.00230651 0)
(0.62441 0.0126265 0)
(1.0869 0.028724 0)
(1.17378 0.0485623 0)
(1.17486 0.0667351 0)
(1.15897 0.0836933 1.98148e-34)
(1.13998 0.0977991 -1.00339e-34)
(1.11717 0.109985 0)
(1.09094 0.118685 0)
(1.06157 0.12272 0)
(1.02953 0.120681 0)
(0.998679 0.111888 0)
(0.973965 0.0989139 0)
(0.955734 0.0849967 0)
(0.942166 0.0712751 0)
(0.932072 0.0581952 0)
(0.924509 0.0459916 0)
(0.916911 0.0340999 0)
(0.891302 0.0228581 0)
(0.753085 0.0113889 0)
(0.320774 0.00279299 0)
(0.677523 0.0305629 3.33292e-21)
(1.15325 0.0563293 -3.14348e-21)
(1.21922 0.0822825 0)
(1.20866 0.106238 6.84346e-21)
(1.1857 0.121529 -5.52841e-21)
(1.15949 0.135457 1.05859e-34)
(1.12994 0.146662 0)
(1.09743 0.153436 7.03737e-21)
(1.06207 0.155144 -2.40786e-20)
(1.02431 0.150374 5.13895e-21)
(0.988431 0.138772 0)
(0.959515 0.12342 -1.50872e-20)
(0.937582 0.10757 -1.8683e-20)
(0.920557 0.09212 3.28481e-20)
(0.907054 0.0774038 -2.62423e-20)
(0.895981 0.06378 0)
(0.884708 0.0520785 -9.93595e-21)
(0.854949 0.0368174 0)
(0.714793 0.0273027 -5.44592e-20)
(0.301726 0.00981853 6.47212e-20)
(0.692603 0.0592018 -2.89969e-21)
(1.18888 0.108553 -1.62e-20)
(1.26015 0.137571 9.00398e-21)
(1.24091 0.156136 -1.41275e-21)
(1.21031 0.168345 -1.07531e-20)
(1.17641 0.181188 1.79626e-20)
(1.14022 0.190154 0)
(1.10129 0.194779 0)
(1.05968 0.19426 3.75678e-20)
(1.01566 0.187086 0)
(0.973854 0.173297 5.22625e-20)
(0.939654 0.156542 1.61849e-20)
(0.912986 0.140153 6.01621e-22)
(0.891477 0.124942 -3.61952e-20)
(0.873618 0.111242 0)
(0.858354 0.0989046 0)
(0.843657 0.0876004 -1.66833e-19)
(0.815794 0.0798908 4.2288e-19)
(0.695259 0.0590308 -2.49015e-19)
(0.29815 0.0280783 -3.0092e-19)
(0.689357 0.103885 5.45709e-20)
(1.21759 0.178441 -1.38729e-20)
(1.29069 0.209062 -2.00366e-21)
(1.2668 0.217218 2.01491e-22)
(1.22927 0.22509 1.32723e-20)
(1.18884 0.233587 -4.24271e-20)
(1.14656 0.238397 1.7411e-20)
(1.10164 0.239722 0)
(1.05438 0.236068 -7.7615e-20)
(1.0049 0.226029 7.81059e-20)
(0.958064 0.210007 -1.41837e-19)
(0.919665 0.192088 6.80999e-20)
(0.889642 0.175577 -4.81185e-20)
(0.865414 0.161048 1.06678e-19)
(0.845423 0.148624 0)
(0.828614 0.138223 -4.09005e-20)
(0.813359 0.127253 0)
(0.786442 0.122633 2.37494e-19)
(0.678898 0.0957094 -5.62757e-19)
(0.300903 0.0467875 3.55984e-19)
(0.673174 0.137756 -2.65758e-19)
(1.22684 0.244034 1.03818e-19)
(1.30684 0.281577 1.42987e-20)
(1.28172 0.282981 0)
(1.23999 0.287078 -5.06499e-21)
(1.19557 0.289996 8.32005e-21)
(1.14866 0.28986 -1.82077e-20)
(1.09904 0.286976 0)
(1.04728 0.279469 5.47113e-20)
(0.993446 0.266142 -5.39916e-20)
(0.942772 0.247674 1.21253e-19)
(0.901473 0.228433 0)
(0.869513 0.211527 -1.00659e-19)
(0.844115 0.19717 5.6207e-20)
(0.82358 0.185201 1.48747e-19)
(0.806733 0.175492 -1.30534e-19)
(0.791979 0.166215 2.16073e-19)
(0.76625 0.159206 -4.82091e-19)
(0.663059 0.131412 3.0685e-19)
(0.299783 0.0618582 -3.879e-19)
(0.655352 0.169425 1.66317e-19)
(1.22431 0.306233 -1.22353e-19)
(1.31124 0.350065 4.26604e-20)
(1.28608 0.347695 -5.26438e-20)
(1.24231 0.349202 2.86216e-20)
(1.19614 0.346917 -8.96833e-22)
(1.14629 0.342308 3.5063e-21)
(1.09352 0.335007 -4.68225e-20)
(1.03841 0.323417 -5.4263e-20)
(0.981221 0.306535 -1.12711e-19)
(0.927625 0.285324 -2.59509e-19)
(0.884282 0.264416 -8.44656e-20)
(0.851138 0.246653 3.09622e-21)
(0.825174 0.231897 -1.95334e-19)
(0.804495 0.219758 -6.17333e-21)
(0.787769 0.209975 1.89442e-19)
(0.773327 0.201497 -5.84657e-20)
(0.749123 0.192362 -3.46681e-20)
(0.648635 0.162667 0)
(0.295887 0.0752962 8.15325e-19)
(0.640425 0.200248 0)
(1.21703 0.366569 3.73043e-20)
(1.30815 0.414645 2.34151e-20)
(1.28267 0.4097 -1.10513e-20)
(1.23827 0.408347 -3.85789e-20)
(1.19121 0.401847 -3.90426e-21)
(1.1396 0.393625 1.70919e-20)
(1.08483 0.382276 7.95563e-20)
(1.02733 0.366796 -3.08981e-20)
(0.967627 0.346321 5.33791e-20)
(0.911833 0.322176 1.38852e-19)
(0.866991 0.299309 1.8579e-19)
(0.833011 0.280339 -1.14221e-19)
(0.806661 0.264809 2.10629e-19)
(0.785885 0.252163 -1.68541e-19)
(0.769245 0.241948 0)
(0.754977 0.233545 -4.46519e-19)
(0.731908 0.223078 6.00605e-19)
(0.634113 0.190504 4.57673e-20)
(0.291185 0.0879829 -8.55025e-19)
(0.62991 0.229482 -8.88898e-21)
(1.2075 0.423855 -2.60008e-19)
(1.30041 0.475549 -1.73904e-19)
(1.2748 0.468796 1.37237e-19)
(1.2303 0.464152 -1.71603e-20)
(1.18237 0.454206 2.52778e-21)
(1.12956 0.442823 2.50797e-20)
(1.0734 0.427859 -1.63865e-20)
(1.01421 0.408799 -1.14546e-19)
(0.9527 0.384847 2.35658e-21)
(0.895301 0.357734 -1.475e-19)
(0.849359 0.33275 -1.95206e-19)
(0.814774 0.312346 1.27871e-19)
(0.788183 0.295779 -7.53286e-20)
(0.767411 0.282376 1.82542e-19)
(0.750945 0.271515 0)
(0.736909 0.262768 -2.75945e-19)
(0.714738 0.251437 4.08257e-19)
(0.6199 0.215349 7.91163e-19)
(0.285898 0.0999466 -9.23133e-19)
(0.622263 0.256734 -5.04587e-19)
(1.19692 0.476925 2.50862e-19)
(1.28979 0.532844 1.70911e-19)
(1.26445 0.524747 -1.47393e-19)
(1.21986 0.516967 1.02808e-20)
(1.17104 0.504049 1.67476e-20)
(1.11731 0.489634 -1.90976e-20)
(1.06008 0.471359 -2.88818e-20)
(0.999639 0.448996 -6.55704e-20)
(0.936836 0.421769 1.13982e-19)
(0.878286 0.391779 1.42051e-19)
(0.831521 0.364619 3.06418e-19)
(0.79646 0.342618 0)
(0.769699 0.3248 5.39346e-21)
(0.748992 0.310417 -5.05574e-19)
(0.732754 0.29874 1.16232e-19)
(0.718983 0.289365 5.92087e-19)
(0.697574 0.277229 -1.72244e-19)
(0.605755 0.2378 3.79574e-19)
(0.280184 0.110764 -2.88541e-20)
(0.616055 0.283081 1.01929e-20)
(1.18567 0.525967 2.3311e-19)
(1.27738 0.586519 1.2989e-19)
(1.25234 0.577348 -2.69352e-19)
(1.20759 0.56689 1.50955e-19)
(1.15808 0.551472 -2.73058e-20)
(1.10364 0.534213 1.73417e-20)
(1.04554 0.512858 7.5953e-20)
(0.984143 0.487358 1.25377e-19)
(0.920375 0.456986 -1.35766e-19)
(0.860964 0.424214 0)
(0.813511 0.394896 -1.19012e-19)
(0.777994 0.37123 1.36636e-19)
(0.751088 0.352017 1.83834e-19)
(0.730453 0.336466 -1.05397e-19)
(0.714458 0.323838 -2.66694e-19)
(0.701065 0.313688 -8.12083e-20)
(0.680454 0.300636 -1.62356e-21)
(0.591589 0.258106 0)
(0.274102 0.120405 0)
(0.610648 0.308134 -2.49019e-19)
(1.17364 0.571727 0)
(1.26395 0.63661 1.49858e-19)
(1.23881 0.626738 -7.17203e-20)
(1.19395 0.613883 -1.51019e-19)
(1.1439 0.596371 4.25418e-20)
(1.08888 0.576455 1.36758e-20)
(1.03007 0.552169 -4.55753e-20)
(0.967957 0.52365 8.29179e-20)
(0.903543 0.490322 -4.84389e-20)
(0.843627 0.455037 7.74593e-20)
(0.79566 0.423721 3.6688e-19)
(0.759596 0.398314 1.47061e-20)
(0.732283 0.377489 -1.86997e-19)
(0.7116 0.360551 3.63568e-19)
(0.695778 0.34673 5.23005e-21)
(0.682544 0.335504 8.6885e-20)
(0.662532 0.321326 -4.27106e-19)
(0.576592 0.276119 4.38526e-19)
(0.267558 0.12881 -5.15553e-19)
(0.6059 0.33139 1.05159e-23)
(1.16116 0.615084 0)
(1.24996 0.683294 0)
(1.22429 0.673194 6.19239e-20)
(1.17937 0.657998 6.21216e-20)
(1.12878 0.63868 -2.75906e-20)
(1.07329 0.616322 -8.247e-21)
(1.01392 0.589336 0)
(0.951267 0.557984 -1.29013e-19)
(0.886423 0.521842 1.93441e-19)
(0.826146 0.484193 2.21338e-19)
(0.77756 0.451086 -1.38553e-19)
(0.740716 0.424164 -1.74632e-19)
(0.713089 0.401773 4.14002e-19)
(0.692231 0.383216 -1.28664e-19)
(0.676588 0.367968 -1.56747e-19)
(0.664074 0.355741 -9.69467e-20)
(0.645147 0.340375 -4.67091e-19)
(0.561881 0.292344 6.3287e-20)
(0.260438 0.136184 5.63015e-19)
(0.601656 0.353351 -9.92097e-20)
(1.14869 0.656321 -1.46447e-19)
(1.23565 0.726898 2.29437e-20)
(1.20924 0.716926 7.68607e-22)
(1.16423 0.69946 1.21051e-20)
(1.11307 0.67856 -8.63255e-20)
(1.05714 0.653938 0)
(0.997284 0.624384 2.83889e-20)
(0.9343 0.590216 -2.23858e-20)
(0.869437 0.551324 2.94836e-19)
(0.809497 0.511739 -6.56129e-20)
(0.761001 0.477438 6.18004e-20)
(0.723216 0.449001 0)
(0.693902 0.424668 -2.26563e-19)
(0.672311 0.404185 2.86804e-19)
(0.656364 0.387341 0)
(0.643396 0.373265 -2.14222e-19)
(0.624922 0.356226 6.25589e-19)
(0.545025 0.305687 7.68746e-20)
(0.25242 0.142081 -7.05889e-19)
(0.597882 0.374467 -2.16502e-19)
(1.13649 0.695464 2.74176e-19)
(1.22121 0.767792 0)
(1.19396 0.758113 1.53959e-19)
(1.1488 0.738522 0)
(1.09701 0.716174 7.27948e-20)
(1.04066 0.689362 0)
(0.980315 0.65728 0)
(0.917062 0.620331 -3.91116e-20)
(0.852186 0.578822 -2.84818e-19)
(0.792205 0.5375 -4.05788e-19)
(0.742771 0.502506 7.83061e-20)
(0.703399 0.473609 2.96117e-19)
(0.673801 0.447858 2.57911e-19)
(0.651271 0.425244 -9.21969e-19)
(0.63535 0.40556 -3.8717e-19)
(0.623839 0.390153 2.2411e-19)
(0.606129 0.371522 0)
(0.528108 0.318242 6.71348e-19)
(0.243079 0.146497 -7.74461e-19)
(0.59457 0.394918 2.38585e-19)
(1.12464 0.732498 -3.00212e-19)
(1.20682 0.806244 0)
(1.17872 0.796904 -9.30362e-21)
(1.1333 0.775387 -6.06977e-20)
(1.08087 0.751676 0)
(1.02405 0.722753 2.00365e-21)
(0.963216 0.688221 2.42419e-20)
(0.899861 0.648521 -5.92131e-20)
(0.83567 0.604403 3.04022e-20)
(0.777633 0.561674 0)
(0.730428 0.526819 2.97053e-19)
(0.689644 0.497369 4.71986e-22)
(0.654644 0.470207 1.41066e-19)
(0.62962 0.444358 1.71979e-19)
(0.612552 0.422204 0)
(0.599962 0.403403 -3.908e-19)
(0.583896 0.381818 7.66121e-19)
(0.509708 0.325918 -8.30625e-19)
(0.232706 0.149545 1.71433e-18)
(0.591703 0.414743 0)
(1.11325 0.767565 0)
(1.19269 0.842492 -1.50654e-19)
(1.16366 0.83346 0)
(1.11786 0.810215 0)
(1.06476 0.785209 1.11977e-19)
(1.0074 0.75425 1.60646e-22)
(0.946027 0.717272 1.18741e-20)
(0.882539 0.674655 -9.46402e-21)
(0.818768 0.627655 0)
(0.760891 0.583464 -6.12046e-20)
(0.711792 0.550057 -2.48317e-19)
(0.668892 0.522957 -3.2279e-19)
(0.63405 0.49407 -1.38385e-19)
(0.605693 0.466756 1.93443e-19)
(0.586693 0.439168 -4.63833e-19)
(0.575205 0.417388 8.62492e-19)
(0.558874 0.394815 1.85857e-20)
(0.487449 0.33538 -8.13439e-19)
(0.218755 0.150182 -1.21382e-19)
(0.589231 0.433965 0)
(1.10231 0.800786 -2.20838e-19)
(1.17892 0.876733 1.75522e-19)
(1.14889 0.867943 0)
(1.10262 0.843164 0)
(1.04881 0.81691 -2.48181e-19)
(0.990811 0.784004 0)
(0.928831 0.74459 0)
(0.865237 0.698941 -1.03999e-19)
(0.802619 0.6491 4.62738e-20)
(0.748613 0.604114 -4.40284e-19)
(0.705258 0.572829 0)
(0.659638 0.547601 -3.3951e-19)
(0.614521 0.521254 2.04065e-20)
(0.580612 0.487533 -6.19369e-19)
(0.55923 0.457133 2.53692e-19)
(0.545947 0.431032 9.99345e-21)
(0.532413 0.399905 -9.46993e-19)
(0.463828 0.335764 4.5325e-19)
(0.203303 0.147218 1.29818e-19)
(0.587114 0.452608 0)
(1.09189 0.832353 -2.64139e-19)
(1.16561 0.909146 1.77576e-19)
(1.13448 0.900521 3.43237e-19)
(1.08766 0.874355 5.90358e-20)
(1.03309 0.846904 -3.42218e-20)
(0.974367 0.812125 2.06728e-20)
(0.911743 0.770246 2.50962e-20)
(0.848107 0.721342 1.11243e-19)
(0.786766 0.668113 2.70759e-19)
(0.735012 0.621031 3.61984e-19)
(0.691754 0.592853 7.10258e-20)
(0.645344 0.574279 5.01111e-19)
(0.595085 0.547702 3.5241e-19)
(0.553227 0.51737 4.50886e-19)
(0.526584 0.476139 -2.95251e-19)
(0.511611 0.435935 -3.57471e-19)
(0.498301 0.402551 4.21778e-19)
(0.433407 0.336965 -2.60663e-19)
(0.185476 0.142082 4.39165e-19)
(0.585301 0.470734 3.60369e-19)
(1.08196 0.862299 4.15237e-19)
(1.15279 0.939854 9.12608e-20)
(1.1205 0.931327 6.98042e-21)
(1.07307 0.903938 -2.18027e-19)
(1.01769 0.875341 7.41881e-20)
(0.958142 0.838762 -2.3857e-20)
(0.894747 0.794408 -1.36461e-20)
(0.83078 0.742082 -1.03551e-19)
(0.770283 0.68514 -2.98301e-19)
(0.722086 0.636808 2.01295e-20)
(0.686366 0.613527 0)
(0.637064 0.603397 0)
(0.579496 0.583991 -1.71773e-19)
(0.52581 0.540644 -7.57525e-19)
(0.492592 0.48814 6.47267e-19)
(0.478651 0.445552 4.09164e-19)
(0.465667 0.402875 0)
(0.409604 0.326701 8.46899e-19)
(0.167791 0.128206 -4.96654e-19)
(0.583835 0.488256 -1.88505e-19)
(1.07258 0.890828 1.62202e-19)
(1.14052 0.968996 -2.13652e-19)
(1.10702 0.960499 -2.18215e-19)
(1.05892 0.932004 -8.70193e-20)
(1.00265 0.902319 2.14251e-20)
(0.942158 0.863973 0)
(0.877869 0.817145 -2.06963e-20)
(0.813649 0.761273 2.15612e-20)
(0.755262 0.700169 0)
(0.714061 0.649169 0)
(0.68324 0.631967 5.05912e-20)
(0.634846 0.631975 1.01147e-19)
(0.562076 0.614377 -1.84349e-19)
(0.49324 0.576455 5.54377e-19)
(0.441981 0.52577 -7.26118e-19)
(0.414795 0.463477 -8.91468e-19)
(0.416468 0.402753 8.08308e-19)
(0.373141 0.31805 -3.16764e-19)
(0.202535 0.15324 1.77173e-19)
(0.582478 0.505086 2.18043e-19)
(1.06367 0.917895 0)
(1.12878 0.996648 0)
(1.09404 0.988138 -6.89332e-20)
(1.04524 0.958672 5.57025e-20)
(0.988026 0.927952 -7.12866e-21)
(0.926492 0.887924 -7.51821e-20)
(0.861174 0.83865 -1.13886e-20)
(0.796529 0.778966 1.43777e-19)
(0.739104 0.712385 -1.76898e-20)
(0.701959 0.656934 4.39723e-20)
(0.683184 0.646094 -3.09461e-19)
(0.637805 0.661596 -4.59755e-19)
(0.549595 0.664181 -9.7639e-20)
(0.450712 0.636625 0)
(0.378012 0.569025 -2.25313e-20)
(0.355903 0.465782 4.92144e-19)
(0.347914 0.33488 -8.78352e-19)
(0.344804 0.176003 6.49738e-19)
(0.120925 -0.0101999 5.37451e-19)
(0.581442 0.521585 -4.73549e-19)
(1.05524 0.943806 -1.99087e-19)
(1.11754 1.02307 6.98709e-22)
(1.0815 1.01456 9.37842e-20)
(1.03191 0.984284 0)
(0.973633 0.952694 2.09352e-19)
(0.910874 0.911138 8.94289e-20)
(0.844249 0.859451 -1.70755e-20)
(0.778832 0.795741 -6.60582e-20)
(0.722729 0.723663 -1.37705e-20)
(0.694929 0.665813 1.27878e-20)
(0.689868 0.656826 2.73074e-19)
(0.64587 0.696023 4.50297e-19)
(0.540942 0.72898 9.31376e-20)
(0.420999 0.70042 6.36705e-19)
(0.330776 0.610849 0)
(0.229601 0.493997 0)
(0.108797 0.452847 6.37567e-19)
(-0.00902705 0.656231 -2.71811e-20)
(-0.0125788 1.37006 -8.06616e-19)
(0.580483 0.537647 2.56869e-19)
(1.04725 0.968573 5.78612e-19)
(1.10675 1.04841 -8.21931e-19)
(1.06933 1.04002 4.62447e-19)
(1.01891 1.00917 -4.59761e-20)
(0.959444 0.97692 2.69205e-19)
(0.89523 0.934082 0)
(0.826932 0.880047 2.48687e-20)
(0.760296 0.812089 0)
(0.70556 0.732717 9.66973e-20)
(0.685458 0.664685 -1.62652e-20)
(0.701165 0.665943 1.826e-20)
(0.668368 0.747432 4.39326e-19)
(0.541727 0.797018 -2.52662e-19)
(0.376272 0.759024 -3.47621e-19)
(0.211982 0.696747 0)
(0.101067 0.729454 0)
(0.0675746 1.15743 0)
(0.0997487 2.30589 -3.64343e-19)
(0.129747 2.83826 -2.22403e-19)
(0.579765 0.553613 0)
(1.03974 0.992288 0)
(1.09646 1.07274 2.92056e-19)
(1.05767 1.0645 -3.81577e-19)
(1.00635 1.03326 2.33793e-19)
(0.945551 1.00058 -2.43326e-19)
(0.879672 0.956671 -8.68134e-21)
(0.809335 0.900437 6.75905e-21)
(0.74089 0.827832 4.54789e-21)
(0.686297 0.739525 -1.07241e-19)
(0.678016 0.663188 1.34237e-20)
(0.719354 0.669251 8.08829e-20)
(0.705601 0.770859 -4.03407e-19)
(0.575478 0.843588 -7.72942e-19)
(0.394772 0.838686 2.94979e-19)
(0.247024 0.88089 0)
(0.18111 1.36375 4.58081e-19)
(0.184269 2.56695 5.07904e-19)
(0.191862 3.03227 -5.68784e-19)
(0.186472 3.19585 6.32591e-19)
(0.579141 0.569007 0)
(1.03267 1.01491 4.64895e-19)
(1.08665 1.09603 -7.2472e-20)
(1.04647 1.08806 4.73188e-19)
(0.994226 1.05664 -2.45406e-19)
(0.932015 1.02372 0)
(0.864267 0.979003 0)
(0.791595 0.920784 0)
(0.720675 0.843401 5.0242e-21)
(0.665648 0.745638 1.16769e-21)
(0.66759 0.65778 0)
(0.7428 0.653316 -6.00151e-20)
(0.778986 0.777733 0)
(0.610753 0.919149 5.58018e-19)
(0.371238 1.02701 -4.45362e-19)
(0.191705 1.4081 -3.84441e-19)
(0.213105 2.4415 -8.91707e-19)
(0.25409 3.06733 -4.5268e-19)
(0.260133 3.25318 -5.45803e-19)
(0.234595 3.31068 4.53947e-19)
(0.578651 0.583637 -1.63798e-19)
(1.02603 1.03649 6.40253e-21)
(1.07736 1.11841 -7.7417e-20)
(1.03583 1.11077 -3.74031e-19)
(0.982605 1.07934 0)
(0.918831 1.04643 0)
(0.849063 1.00114 0)
(0.773629 0.94121 -2.21243e-21)
(0.699362 0.859062 -5.035e-21)
(0.643271 0.748144 0)
(0.653351 0.637534 0)
(0.793955 0.593312 0)
(0.869614 0.79882 0)
(0.689888 1.0775 3.37389e-19)
(0.458707 1.33774 1.21798e-18)
(0.37275 2.00957 3.77982e-19)
(0.389104 2.96705 6.99977e-19)
(0.396448 3.26907 -4.74102e-19)
(0.315503 3.36744 1.67867e-19)
(0.267629 3.38846 0)
(0.578197 0.598054 1.64303e-19)
(1.01959 1.05763 -9.91218e-19)
(1.06829 1.14044 -2.63525e-19)
(1.0254 1.13324 -6.20011e-20)
(0.971175 1.10196 5.68938e-20)
(0.90581 1.06921 -3.59615e-19)
(0.833791 1.02359 2.21574e-20)
(0.755178 0.96215 7.26936e-20)
(0.676736 0.874991 0)
(0.617179 0.750855 1.32238e-20)
(0.641259 0.582444 -1.19302e-20)
(0.836632 0.540767 0)
(0.968682 0.854009 0)
(0.809027 1.24294 -4.32389e-19)
(0.555562 1.6519 -5.09739e-20)
(0.431378 2.59923 -2.27913e-19)
(0.440962 3.23366 3.86236e-19)
(0.409851 3.40219 1.92381e-19)
(0.312602 3.45394 -4.99761e-20)
(0.276945 3.46749 2.24096e-20)
(0.577661 0.613325 3.1127e-19)
(1.01297 1.0797 9.41461e-19)
(1.05897 1.16353 3.21127e-19)
(1.01469 1.15673 0)
(0.959425 1.1256 0)
(0.892299 1.09312 2.73859e-19)
(0.81784 1.04722 -1.22913e-19)
(0.735546 0.984409 -6.70616e-20)
(0.651613 0.89205 -2.50095e-21)
(0.584119 0.747123 -1.60422e-19)
(0.622178 0.524811 5.57006e-19)
(0.849458 0.530869 0)
(1.06883 0.950232 0)
(0.950958 1.47042 -4.64709e-23)
(0.700053 2.11196 -4.05205e-19)
(0.595778 3.07693 0)
(0.625388 3.42618 1.0533e-20)
(0.536926 3.53023 2.58146e-19)
(0.411337 3.56578 -4.74336e-19)
(0.365725 3.59919 2.9244e-19)
(0.577067 0.629937 -5.82984e-19)
(1.00584 1.10346 -4.46396e-19)
(1.04895 1.18825 0)
(1.00324 1.18186 0)
(0.946886 1.15091 0)
(0.877942 1.11869 0)
(0.800756 1.07269 1.29126e-19)
(0.714164 1.00871 -8.03604e-20)
(0.622964 0.911564 0)
(0.546279 0.735948 1.29751e-19)
(0.582646 0.494617 -1.19976e-18)
(0.821135 0.552798 -6.83114e-20)
(1.12768 1.11819 -6.29867e-20)
(1.08584 1.807 -2.08454e-19)
(0.827127 2.60341 1.99813e-19)
(0.715073 3.34083 0)
(0.683663 3.55663 -9.42806e-20)
(0.524601 3.63661 1.67434e-19)
(0.364081 3.72258 4.7525e-19)
(0.261272 3.7353 -3.54902e-19)
(0.576275 0.648002 2.72728e-19)
(0.998286 1.12917 -4.32956e-19)
(1.03837 1.21496 0)
(0.99113 1.20885 -8.78451e-20)
(0.93362 1.178 3.12877e-19)
(0.862633 1.14612 0)
(0.782653 1.10025 0)
(0.691218 1.03543 1.36934e-19)
(0.590575 0.9335 8.92171e-21)
(0.499465 0.731838 -2.09985e-19)
(0.503848 0.505667 6.45501e-19)
(0.706252 0.684073 -1.07544e-18)
(1.0901 1.42147 0)
(1.17545 2.17596 2.78469e-19)