/*--------------------------------*- C++ -*----------------------------------*\
| =========                 |                                                 |
| \\      /  F ield         | OpenFOAM: The Open Source CFD Toolbox           |
|  \\    /   O peration     | Version:  4.0                                   |
|   \\  /    A nd           | Web:      www.OpenFOAM.org                      |
|    \\/     M anipulation  |                                                 |
\*---------------------------------------------------------------------------*/
FoamFile
{
    version     2.0;
    format      ascii;
    class       volScalarField;
    location    "19";
    object      p;
}
// * * * * * * * * * * * * * * * * * * * * * * * * * * * * * * * * * * * * * //

dimensions      [0 2 -2 0 0 0 0];

internalField   nonuniform List<scalar> 
2200
(
0.402999
0.381515
0.365626
0.349985
0.335429
0.322961
0.312647
0.30454
0.2988
0.29582
0.296108
0.299618
0.305739
0.314121
0.324629
0.337238
0.351887
0.367588
0.383512
0.405015
0.335384
0.332133
0.329239
0.325168
0.319748
0.31333
0.306789
0.300887
0.296389
0.293912
0.294204
0.297242
0.302137
0.30834
0.315093
0.321655
0.327186
0.331332
0.334267
0.337534
0.295413
0.295658
0.29775
0.29912
0.299559
0.298775
0.296835
0.294242
0.291768
0.290171
0.29051
0.292687
0.29561
0.298525
0.300697
0.301642
0.30131
0.300066
0.298076
0.297847
0.272758
0.274242
0.276924
0.279471
0.282043
0.284171
0.285356
0.285599
0.285171
0.284728
0.285116
0.286229
0.287161
0.287293
0.286384
0.284461
0.282034
0.279573
0.276932
0.275473
0.258417
0.26035
0.263301
0.266321
0.269312
0.272246
0.274817
0.276782
0.277946
0.278544
0.279012
0.279208
0.278639
0.277115
0.274866
0.272163
0.269338
0.266404
0.263509
0.261592
0.251518
0.253075
0.255327
0.257922
0.260639
0.263346
0.265964
0.268468
0.270549
0.271972
0.272506
0.272025
0.27068
0.268723
0.266488
0.264062
0.26155
0.259097
0.256921
0.255367
0.24849
0.249506
0.250849
0.252835
0.255085
0.257282
0.25936
0.261459
0.263529
0.265227
0.265861
0.265311
0.264144
0.262706
0.261097
0.259241
0.257236
0.255417
0.254158
0.253144
0.246112
0.246709
0.247568
0.249346
0.251403
0.253392
0.255219
0.256948
0.258626
0.260087
0.260905
0.260873
0.260294
0.259371
0.258111
0.256527
0.254756
0.253166
0.252394
0.2518
0.243926
0.244189
0.244862
0.246535
0.248467
0.250444
0.252348
0.254109
0.255678
0.257027
0.258044
0.258432
0.258172
0.257421
0.256228
0.254785
0.253198
0.251765
0.251192
0.250945
0.24221
0.242247
0.242736
0.243949
0.245413
0.247061
0.248877
0.250771
0.252591
0.254184
0.255426
0.255981
0.255779
0.255126
0.254263
0.25325
0.252214
0.251291
0.250924
0.250859
0.240068
0.240038
0.240354
0.24102
0.241902
0.243029
0.244424
0.246125
0.248057
0.250025
0.251626
0.252506
0.252717
0.252489
0.252161
0.251754
0.251384
0.251055
0.250907
0.250906
0.237042
0.236985
0.23724
0.237673
0.238352
0.239244
0.240344
0.24181
0.243614
0.24574
0.247748
0.249186
0.25011
0.25053
0.25061
0.250681
0.250692
0.250658
0.250628
0.250632
0.233605
0.233561
0.233813
0.234251
0.234996
0.235956
0.237181
0.238784
0.240717
0.243061
0.245461
0.247358
0.248689
0.24956
0.250085
0.250372
0.250437
0.250449
0.250444
0.250448
0.229769
0.229758
0.229981
0.230473
0.231284
0.232385
0.233873
0.235773
0.238142
0.24102
0.244002
0.246382
0.248025
0.249177
0.24997
0.250412
0.250626
0.250733
0.250771
0.250772
0.225262
0.225259
0.225444
0.225927
0.226718
0.227849
0.229501
0.231691
0.23456
0.238161
0.241994
0.245109
0.247321
0.248865
0.249954
0.250653
0.251092
0.251353
0.25146
0.251451
0.219769
0.219747
0.219988
0.220508
0.22137
0.222625
0.224438
0.22696
0.230384
0.234801
0.239645
0.243702
0.24666
0.248741
0.250227
0.251231
0.2519
0.252307
0.252483
0.252469
0.213361
0.213325
0.21362
0.214226
0.215257
0.216822
0.219053
0.222153
0.226348
0.231779
0.237788
0.242916
0.246681
0.249374
0.25127
0.252547
0.253379
0.253863
0.254071
0.25405
0.205725
0.205696
0.206078
0.20692
0.208265
0.210242
0.213062
0.216977
0.222248
0.22904
0.236498
0.242851
0.247502
0.250824
0.253121
0.254673
0.255689
0.256285
0.256546
0.256522
0.196797
0.196755
0.197214
0.198248
0.199941
0.202447
0.206014
0.210957
0.217603
0.226122
0.235394
0.243222
0.248951
0.253038
0.255883
0.257829
0.259094
0.259823
0.260131
0.260091
0.185882
0.185855
0.186486
0.187827
0.189986
0.193156
0.197688
0.203978
0.212375
0.223045
0.234537
0.244166
0.251206
0.256224
0.25971
0.262087
0.263652
0.26457
0.264959
0.264911
0.172746
0.172683
0.173465
0.175158
0.177943
0.18208
0.187941
0.195992
0.206632
0.219956
0.234094
0.245848
0.254425
0.260539
0.26482
0.267758
0.269683
0.270802
0.271259
0.271188
0.156093
0.156121
0.157252
0.159535
0.163252
0.168737
0.176429
0.186875
0.200406
0.216982
0.23427
0.248514
0.258893
0.266304
0.271487
0.275046
0.277391
0.278749
0.279311
0.279228
0.135116
0.135083
0.136628
0.139852
0.14501
0.152531
0.162878
0.176548
0.19373
0.214227
0.235167
0.252242
0.264649
0.273541
0.279832
0.284194
0.287103
0.288802
0.289467
0.289323
0.107493
0.107803
0.110277
0.114961
0.122377
0.133046
0.147092
0.164964
0.186655
0.211768
0.236865
0.257119
0.271832
0.282439
0.290032
0.295374
0.298936
0.300975
0.301797
0.301628
0.0705451
0.071114
0.0752248
0.083062
0.0945014
0.109851
0.129031
0.152336
0.17946
0.20988
0.239603
0.263319
0.280542
0.293063
0.302127
0.30863
0.313136
0.315818
0.316849
0.316527
0.0211432
0.0217358
0.0295213
0.04288
0.0609046
0.0830331
0.109098
0.139067
0.172512
0.208853
0.243496
0.27083
0.290707
0.305314
0.316124
0.324076
0.329664
0.332907
0.333947
0.333522
-0.0459778
-0.0424391
-0.0257671
-0.00320393
0.0236168
0.0540956
0.0880675
0.125464
0.165967
0.20895
0.249203
0.280936
0.304333
0.321862
0.335141
0.345298
0.352939
0.357513
0.358855
0.358647
-0.124523
-0.112125
-0.0835539
-0.0508845
-0.0143835
0.0247947
0.0669096
0.112087
0.160015
0.210079
0.256699
0.293606
0.32112
0.34225
0.358834
0.371916
0.382342
0.389264
0.392627
0.393125
-0.190496
-0.173751
-0.137728
-0.096759
-0.0514034
-0.00372965
0.0465566
0.0994861
0.154615
0.211459
0.263968
0.305464
0.336579
0.36059
0.37959
0.394676
0.406297
0.414633
0.418138
0.418402
-0.239532
-0.224752
-0.183725
-0.137243
-0.0850748
-0.0302372
0.0273705
0.0873471
0.149151
0.212374
0.270329
0.315885
0.349834
0.375751
0.395974
0.411864
0.424074
0.432309
0.435828
0.436264
-0.279818
-0.265733
-0.221833
-0.172033
-0.114701
-0.0541594
0.00954385
0.075642
0.143572
0.212778
0.275728
0.324604
0.36041
0.387329
0.407858
0.423791
0.43612
0.444486
0.448312
0.448739
-0.314497
-0.300177
-0.254195
-0.202031
-0.140633
-0.0756113
-0.00692069
0.0644628
0.137878
0.212291
0.279345
0.330674
0.367838
0.39543
0.4164
0.432589
0.444872
0.453687
0.457573
0.458007
-0.344881
-0.330539
-0.282587
-0.228153
-0.1635
-0.0949964
-0.0222123
0.0536796
0.131799
0.210738
0.281559
0.335503
0.374036
0.402457
0.423739
0.43996
0.452382
0.460967
0.464876
0.465076
-0.372257
-0.358002
-0.308231
-0.251399
-0.184021
-0.112779
-0.036632
0.0430803
0.125301
0.208486
0.283166
0.339532
0.37944
0.408578
0.430449
0.446901
0.459199
0.467802
0.471432
0.471592
-0.397301
-0.38322
-0.332056
-0.272866
-0.203005
-0.129411
-0.0504237
0.0325649
0.118477
0.205642
0.284016
0.343059
0.38485
0.414981
0.437103
0.453558
0.465736
0.474107
0.477881
0.478151
-0.420903
-0.406409
-0.354572
-0.293383
-0.221208
-0.145361
-0.0638032
0.0220791
0.111298
0.20227
0.284499
0.346775
0.390222
0.421117
0.44372
0.460372
0.472602
0.480879
0.484576
0.484864
-0.443086
-0.428406
-0.376049
-0.313334
-0.239093
-0.161016
-0.0770026
0.0115371
0.103833
0.198555
0.284777
0.349815
0.395019
0.427192
0.450417
0.467352
0.479659
0.487679
0.491522
0.49181
-0.464032
-0.44943
-0.39666
-0.332718
-0.256807
-0.176631
-0.0902684
0.000787936
0.0959847
0.194103
0.283923
0.352121
0.400127
0.433689
0.457536
0.474695
0.48708
0.495189
0.498782
0.499009
-0.484254
-0.469495
-0.416418
-0.351489
-0.274317
-0.192322
-0.103811
-0.0104117
0.087387
0.188536
0.281985
0.353985
0.404547
0.440032
0.464932
0.482568
0.494963
0.5027
0.506225
0.50642
-0.504217
-0.488878
-0.435458
-0.369615
-0.291484
-0.208033
-0.117715
-0.0222606
0.0778769
0.182005
0.27931
0.355023
0.408829
0.446681
0.472871
0.49089
0.503253
0.510894
0.514097
0.514123
-0.52387
-0.507715
-0.453932
-0.387161
-0.308219
-0.22364
-0.131874
-0.0346484
0.0676798
0.174651
0.275487
0.354994
0.41269
0.453567
0.481645
0.500258
0.512283
0.519091
0.522035
0.521926
-0.54304
-0.526167
-0.471941
-0.404213
-0.324495
-0.238994
-0.146047
-0.0473139
0.0569533
0.166283
0.270137
0.353801
0.415595
0.460145
0.490961
0.510752
0.522303
0.528222
0.53018
0.529817
-0.561562
-0.544192
-0.489513
-0.420842
-0.340336
-0.253998
-0.160056
-0.0600878
0.045769
0.157111
0.263959
0.351752
0.417622
0.466463
0.500986
0.523223
0.534512
0.537471
0.537116
0.537102
-0.57942
-0.561707
-0.506574
-0.437048
-0.35578
-0.268649
-0.173836
-0.0728793
0.0342564
0.147364
0.256644
0.347688
0.418058
0.471815
0.511322
0.537462
0.550099
0.550197
0.545115
0.542503
-0.59659
-0.578605
-0.523053
-0.452784
-0.370834
-0.282981
-0.187422
-0.0856655
0.022467
0.1369
0.247847
0.34167
0.416312
0.475615
0.521346
0.55382
0.572039
0.567831
0.560618
0.565467
-0.613079
-0.594823
-0.538864
-0.467978
-0.38547
-0.297012
-0.200843
-0.0984563
0.0104442
0.125861
0.238332
0.334703
0.412976
0.477127
0.529161
0.569973
0.598987
0.589215
0.544998
0.49621
-0.628828
-0.610367
-0.554034
-0.482672
-0.399766
-0.310879
-0.214276
-0.111448
-0.0020012
0.114149
0.227557
0.324952
0.405627
0.474769
0.533628
0.584597
0.628837
0.651292
0.675166
0.725622
-0.643801
-0.625307
-0.568655
-0.496979
-0.41386
-0.324766
-0.227968
-0.124958
-0.0153524
0.10099
0.21468
0.312785
0.394998
0.466771
0.527931
0.578868
0.614728
0.629341
0.609495
0.615496
-0.657963
-0.639613
-0.582696
-0.510844
-0.427643
-0.338526
-0.24174
-0.138824
-0.0294186
0.0866994
0.200208
0.297675
0.378687
0.449172
0.507996
0.552108
0.559721
0.525059
0.472874
0.465905
-0.671361
-0.653294
-0.596171
-0.524275
-0.4411
-0.352123
-0.255541
-0.152975
-0.0441301
0.0711499
0.183494
0.278993
0.356611
0.420847
0.472439
0.490302
0.461724
0.39473
0.3247
0.316177
-0.684031
-0.666339
-0.609104
-0.537305
-0.454255
-0.365568
-0.269362
-0.167392
-0.059451
0.054462
0.164876
0.258001
0.329272
0.380337
0.40738
0.397841
0.35153
0.251249
0.164127
0.148692
-0.696422
-0.679157
-0.621883
-0.550301
-0.467466
-0.379169
-0.283465
-0.182264
-0.0755152
0.0365361
0.144456
0.232936
0.297002
0.332398
0.325087
0.288286
0.183455
0.0600056
-0.0486645
-0.0709214
-0.70939
-0.692489
-0.635177
-0.563869
-0.481297
-0.3934
-0.298262
-0.197973
-0.0926711
0.0170151
0.121321
0.204674
0.261612
0.274098
0.231774
0.142857
-0.0191647
-0.175219
-0.304634
-0.329338
-0.723417
-0.70677
-0.649281
-0.578224
-0.495924
-0.408391
-0.313855
-0.21456
-0.110828
-0.00380849
0.0963156
0.174522
0.219293
0.204763
0.136578
-0.0197479
-0.233806
-0.45751
-0.643854
-0.690435
-0.738547
-0.722024
-0.664237
-0.59337
-0.511306
-0.424103
-0.330184
-0.23194
-0.129948
-0.0260202
0.0688099
0.141096
0.172747
0.12251
0.0192178
-0.188715
-0.443979
-0.757552
-1.09871
-1.23963
-0.75485
-0.738391
-0.680126
-0.609367
-0.527475
-0.440574
-0.347293
-0.250188
-0.150014
-0.0492603
0.0395802
0.10513
0.120761
0.0338715
-0.123129
-0.360293
-0.627601
-1.01014
-1.6384
-2.23167
-0.772275
-0.75585
-0.697001
-0.626257
-0.544419
-0.457765
-0.365086
-0.269096
-0.170807
-0.0734424
0.00927204
0.0674926
0.0642139
-0.0481557
-0.264626
-0.541653
-0.7846
-1.06735
-1.69808
-3.35812
-0.790886
-0.774433
-0.714912
-0.644134
-0.562261
-0.475825
-0.383754
-0.288983
-0.192767
-0.0987897
-0.0219648
0.0263257
0.00375644
-0.118373
-0.377972
-0.66883
-0.858169
-0.935037
-0.97185
-1.39822
-0.810629
-0.794112
-0.734034
-0.663263
-0.581334
-0.495172
-0.403817
-0.310386
-0.216458
-0.126258
-0.0549357
-0.0161886
-0.0592295
-0.171885
-0.43825
-0.700909
-0.854464
-0.886388
-0.843739
-0.893716
-0.831466
-0.814771
-0.754349
-0.683683
-0.601664
-0.515863
-0.425304
-0.333358
-0.242127
-0.156562
-0.0904136
-0.0620096
-0.119559
-0.227275
-0.487311
-0.70273
-0.816653
-0.844283
-0.881844
-0.899192
-0.85323
-0.836157
-0.775787
-0.705409
-0.623182
-0.537846
-0.448226
-0.357956
-0.269658
-0.188907
-0.126799
-0.107393
-0.174672
-0.290895
-0.526737
-0.704499
-0.80047
-0.77521
-0.802432
-0.803288
-0.87557
-0.858226
-0.798301
-0.728304
-0.64568
-0.560972
-0.472362
-0.383668
-0.29825
-0.222387
-0.164999
-0.154207
-0.222755
-0.3601
-0.572479
-0.71814
-0.792259
-0.800518
-0.802627
-0.810747
-0.898051
-0.88066
-0.821849
-0.752013
-0.668844
-0.584937
-0.497404
-0.410398
-0.328009
-0.25693
-0.203784
-0.205275
-0.273905
-0.434492
-0.616353
-0.737493
-0.782308
-0.826392
-0.797726
-0.804817
-0.920453
-0.903236
-0.845675
-0.775927
-0.692329
-0.609478
-0.523028
-0.437534
-0.35821
-0.291456
-0.242487
-0.253933
-0.328101
-0.498547
-0.65364
-0.768233
-0.778839
-0.814359
-0.784258
-0.786295
-0.942264
-0.925546
-0.868901
-0.799248
-0.715937
-0.634088
-0.548393
-0.46419
-0.387673
-0.324979
-0.278531
-0.294984
-0.396419
-0.576964
-0.670026
-0.734439
-0.743324
-0.745765
-0.761389
-0.764391
-0.962909
-0.946903
-0.891001
-0.821363
-0.739283
-0.658073
-0.572869
-0.490138
-0.415602
-0.356934
-0.313169
-0.321106
-0.46234
-0.669829
-0.686587
-0.596712
-0.627436
-0.658824
-0.69899
-0.709156
-0.981381
-0.966338
-0.911348
-0.841876
-0.761716
-0.680581
-0.595656
-0.514242
-0.440215
-0.384002
-0.349442
-0.340344
-0.520856
-0.786348
-0.856242
-0.78563
-0.814719
-0.825804
-0.838373
-0.832872
-0.996946
-0.983151
-0.929638
-0.860712
-0.78202
-0.700172
-0.615648
-0.535602
-0.460934
-0.403382
-0.380843
-0.351631
-0.576288
-0.941197
-1.32115
-1.53425
-1.60511
-1.55777
-1.49506
-1.42759
-1.00833
-0.99601
-0.944711
-0.876619
-0.798528
-0.716503
-0.63261
-0.552873
-0.477706
-0.413671
-0.401127
-0.352836
-0.592596
-1.02815
-1.62681
-2.11147
-2.2399
-2.14774
-2.02309
-1.93285
-1.01485
-1.00415
-0.955528
-0.888187
-0.81033
-0.72894
-0.645215
-0.564131
-0.487472
-0.416963
-0.400371
-0.34988
-0.555749
-0.904694
-1.34332
-1.65279
-1.67273
-1.57675
-1.4012
-1.31562
-1.0148
-1.00562
-0.960265
-0.894112
-0.816644
-0.735818
-0.652109
-0.568503
-0.488706
-0.410994
-0.376703
-0.309629
-0.385619
-0.381668
-0.374435
-0.337502
-0.232131
-0.131238
-0.0560309
0.0140034
-1.00688
-0.999204
-0.95794
-0.893174
-0.816512
-0.736119
-0.652431
-0.566811
-0.482309
-0.391263
-0.329851
-0.228679
-0.0977403
0.182889
0.506862
0.767185
0.970793
1.11097
1.1861
1.21295
-0.98915
-0.982563
-0.947083
-0.88509
-0.810049
-0.730128
-0.646727
-0.55973
-0.470412
-0.363409
-0.263003
-0.160845
0.10726
0.512136
0.963069
1.33208
1.60127
1.76117
1.8282
1.84337
-0.960066
-0.954254
-0.925629
-0.867435
-0.79547
-0.718002
-0.636104
-0.548814
-0.454522
-0.34022
-0.208708
-0.12009
0.154242
0.553119
0.97888
1.33573
1.60496
1.76261
1.82769
1.84287
-0.920018
-0.916072
-0.894423
-0.841691
-0.77367
-0.700186
-0.622307
-0.538404
-0.442569
-0.332013
-0.18462
-0.0786966
0.138268
0.446869
0.787821
1.07856
1.30868
1.45248
1.51892
1.53951
-0.869288
-0.86815
-0.85162
-0.805669
-0.744629
-0.677891
-0.60756
-0.533202
-0.447075
-0.345422
-0.193235
-0.0482366
0.0906644
0.298954
0.553838
0.764443
0.93385
1.05144
1.11079
1.13243
-0.80275
-0.803837
-0.79094
-0.754639
-0.705057
-0.650162
-0.593078
-0.532658
-0.461189
-0.379067
-0.243192
-0.0974432
0.00917571
0.174904
0.368237
0.51783
0.643348
0.728489
0.77125
0.7854
-0.722908
-0.72388
-0.715698
-0.692375
-0.657998
-0.618911
-0.578626
-0.535334
-0.486077
-0.433221
-0.32387
-0.197835
-0.0758222
0.0655068
0.212038
0.32618
0.423048
0.487926
0.518091
0.521641
-0.651887
-0.651781
-0.646945
-0.634952
-0.615166
-0.592139
-0.570175
-0.549523
-0.534636
-0.517198
-0.46474
-0.358314
-0.216809
-0.0914281
0.0332476
0.134592
0.211677
0.269622
0.285168
0.288259
-0.598804
-0.598946
-0.597008
-0.592033
-0.584078
-0.575813
-0.572706
-0.579365
-0.608506
-0.643155
-0.68259
-0.600597
-0.434541
-0.288356
-0.164008
-0.0555537
0.029523
0.0743692
0.0907127
0.098887
-0.559287
-0.560156
-0.560663
-0.560908
-0.560924
-0.565366
-0.580475
-0.61678
-0.695239
-0.813747
-0.958409
-0.894759
-0.717077
-0.537088
-0.350382
-0.216517
-0.133753
-0.0967959
-0.0783534
-0.0737115
-0.519608
-0.521455
-0.523478
-0.527754
-0.534992
-0.545318
-0.575047
-0.635258
-0.756469
-0.970522
-1.1971
-1.13088
-0.915862
-0.703641
-0.503051
-0.364072
-0.291128
-0.250187
-0.236478
-0.236519
-0.468726
-0.470848
-0.473283
-0.478462
-0.488806
-0.506409
-0.540482
-0.607308
-0.740116
-0.971666
-1.23979
-1.16588
-0.941785
-0.712604
-0.546277
-0.451783
-0.387758
-0.366726
-0.359501
-0.359492
-0.404162
-0.406145
-0.409174
-0.413648
-0.422352
-0.438849
-0.471179
-0.532917
-0.65218
-0.849417
-1.04812
-0.962106
-0.770567
-0.61943
-0.527617
-0.462462
-0.429565
-0.424155
-0.420949
-0.420468
-0.327417
-0.328912
-0.331504
-0.335108
-0.341693
-0.354126
-0.377715
-0.423289
-0.509584
-0.645517
-0.763179
-0.663587
-0.528513
-0.468122
-0.443589
-0.416522
-0.416098
-0.415235
-0.414322
-0.413457
-0.24556
-0.246493
-0.248201
-0.250688
-0.254449
-0.261742
-0.275226
-0.301514
-0.350907
-0.426177
-0.493277
-0.39098
-0.323791
-0.316134
-0.307099
-0.332409
-0.342708
-0.34773
-0.349717
-0.349518
-0.167513
-0.167951
-0.168768
-0.169663
-0.171134
-0.174075
-0.179017
-0.188721
-0.206674
-0.232473
-0.238677
-0.201292
-0.197815
-0.199424
-0.214368
-0.243484
-0.254258
-0.26185
-0.264714
-0.26539
-0.101063
-0.101158
-0.101424
-0.10133
-0.101087
-0.100938
-0.100271
-0.0992216
-0.0964619
-0.083499
-0.0611176
-0.078644
-0.10592
-0.124949
-0.149415
-0.169683
-0.178345
-0.184606
-0.18722
-0.188051
-0.0496686
-0.0495873
-0.0495823
-0.049067
-0.0480023
-0.0463276
-0.0431377
-0.0377836
-0.0284934
-0.00919397
0.0154872
-0.0067429
-0.0433167
-0.0693519
-0.0941664
-0.109422
-0.117593
-0.122514
-0.124672
-0.125445
-0.0128908
-0.0127747
-0.0127145
-0.0122519
-0.01114
-0.0092528
-0.00560415
0.000307011
0.00957004
0.0245233
0.0415656
0.0182981
-0.0115415
-0.033851
-0.0539605
-0.0657241
-0.0723307
-0.0759869
-0.0776916
-0.0783569
0.0116616
0.0117516
0.0117298
0.011808
0.0124476
0.013738
0.0166343
0.0214673
0.0287426
0.0387196
0.0475002
0.0287937
0.00566974
-0.0119148
-0.0269102
-0.0357256
-0.0409458
-0.0437589
-0.0450832
-0.0456022
0.0264918
0.0265439
0.026396
0.0260529
0.0260772
0.026521
0.0281533
0.0312391
0.0360613
0.0420607
0.0452488
0.032066
0.0146684
0.00136414
-0.00952317
-0.016111
-0.0201191
-0.0222926
-0.023374
-0.0237567
0.0339007
0.0339219
0.0336869
0.0330959
0.0326956
0.0325027
0.0330142
0.0343946
0.0369005
0.0398486
0.0399476
0.0308645
0.018289
0.00868084
0.000979661
-0.00385318
-0.00686517
-0.00853267
-0.00934635
-0.00962096
0.036146
0.0361455
0.0358968
0.0352658
0.0347042
0.0342204
0.0340781
0.0343111
0.0351012
0.035854
0.034332
0.0277035
0.0189032
0.012146
0.00681423
0.0033594
0.00116519
-7.1412e-05
-0.000663429
-0.000856532
0.0352546
0.0352461
0.0350204
0.0344408
0.0338427
0.0332558
0.0328074
0.0324693
0.0322859
0.0317292
0.0294317
0.024336
0.0181632
0.0134079
0.00971136
0.007245
0.00564938
0.00473669
0.00431059
0.00417774
0.0325242
0.0325174
0.0323139
0.0317916
0.0311838
0.030541
0.0299199
0.0293178
0.0286903
0.0275829
0.0251606
0.0211902
0.0167967
0.0133915
0.0107638
0.00896046
0.00777105
0.00708104
0.00676682
0.00670554
0.0286432
0.0286397
0.0284525
0.0279794
0.0273909
0.0267348
0.0260197
0.0252893
0.0244712
0.0232499
0.0210969
0.0180694
0.0149335
0.0124754
0.0105766
0.00924296
0.00834733
0.00781857
0.00758575
0.00754004
0.0240091
0.024009
0.0238475
0.0234456
0.0229228
0.0223235
0.021623
0.0208794
0.0200132
0.0188555
0.0170874
0.0148386
0.0126196
0.0108654
0.00950792
0.00854005
0.00788237
0.0074894
0.00732245
0.00728919
0.0189448
0.0189461
0.0188227
0.0185077
0.0180919
0.0176015
0.0170094
0.0163656
0.0155722
0.0145693
0.0131748
0.0115436
0.0100043
0.00878976
0.00784865
0.00717179
0.00670936
0.00643051
0.00631741
0.0062917
0.0136752
0.0136797
0.0135957
0.0133661
0.0130683
0.0127029
0.0122664
0.0117874
0.0111664
0.0104048
0.00938573
0.00826028
0.00723545
0.00643484
0.00581499
0.00536867
0.0050636
0.00487849
0.00480744
0.00479053
0.00827437
0.00827991
0.00823702
0.00809178
0.00790863
0.00767163
0.00740156
0.00711548
0.00671698
0.00625966
0.00563996
0.00498243
0.00438764
0.00393065
0.00356859
0.00330036
0.00311774
0.00300864
0.00297335
0.00296409
0.00280763
0.00281217
0.00280953
0.00274503
0.00267584
0.00257744
0.00247383
0.00239386
0.00223104
0.0020977
0.00188018
0.00167064
0.0014641
0.00131963
0.00119233
0.0010903
0.00101517
0.000968263
0.000961275
0.000961195
-1.58581
-0.67889
-0.403268
-0.107655
0.0933378
0.267987
0.416065
0.56649
0.726303
0.803512
-0.54802
-0.110155
-0.0766611
0.123208
0.264415
0.390797
0.501234
0.598016
0.631654
0.586227
-0.130394
0.10122
0.150449
0.292803
0.391291
0.481005
0.555267
0.61047
0.616377
0.627712
0.122683
0.280721
0.318023
0.430859
0.493116
0.557552
0.606942
0.641704
0.652491
0.675259
0.318474
0.427382
0.456728
0.53543
0.580444
0.626435
0.661285
0.686899
0.69787
0.728595
0.468788
0.544283
0.574734
0.62358
0.661188
0.693834
0.719879
0.741251
0.756285
0.783914
0.594389
0.648335
0.674957
0.705608
0.735128
0.760246
0.781255
0.800949
0.816294
0.84242
0.701923
0.741182
0.76313
0.784993
0.807115
0.8274
0.845317
0.863733
0.87883
0.902384
0.798703
0.828184
0.845787
0.861767
0.878683
0.895268
0.911128
0.928363
0.942007
0.964306
0.888374
0.909508
0.924884
0.938475
0.952463
0.966578
0.980214
0.994901
1.00643
1.0261
0.975152
0.991127
1.00522
1.01733
1.0295
1.04125
1.05243
1.06412
1.07178
1.08859
1.06095
1.07396
1.08782
1.09957
1.11018
1.11995
1.12872
1.13697
1.14058
1.15187
1.15048
1.16147
1.17498
1.18419
1.19162
1.19879
1.20601
1.21265
1.21365
1.22106
1.249
1.25373
1.26176
1.26625
1.26952
1.274
1.28001
1.28778
1.29159
1.30147
1.36235
1.34863
1.34118
1.33552
1.33283
1.33422
1.34076
1.35319
1.36791
1.39756
1.48312
1.4275
1.3966
1.37952
1.3714
1.37142
1.38005
1.39948
1.43155
1.50071
)
;

boundaryField
{
    wall-4
    {
        type            zeroGradient;
    }
    pressure-outlet-7
    {
        type            fixedValue;
        value           uniform 0;
    }
    velocity-inlet-6
    {
        type            zeroGradient;
    }
    velocity-inlet-5
    {
        type            zeroGradient;
    }
    frontAndBackPlanes
    {
        type            empty;
    }
}


// ************************************************************************* //
