/*--------------------------------*- C++ -*----------------------------------*\
| =========                 |                                                 |
| \\      /  F ield         | OpenFOAM: The Open Source CFD Toolbox           |
|  \\    /   O peration     | Version:  4.0                                   |
|   \\  /    A nd           | Web:      www.OpenFOAM.org                      |
|    \\/     M anipulation  |                                                 |
\*---------------------------------------------------------------------------*/
FoamFile
{
    version     2.0;
    format      ascii;
    class       surfaceScalarField;
    location    "19";
    object      phi;
}
// * * * * * * * * * * * * * * * * * * * * * * * * * * * * * * * * * * * * * //

dimensions      [0 3 -1 0 0 0 0];

internalField   nonuniform List<scalar> 
4262
(
0.107126
0.470862
0.0955994
0.705112
0.0694644
0.858438
0.0476145
1.02061
0.0314573
1.21467
0.020256
1.44942
0.0125762
1.73354
0.00711564
2.0765
0.00318606
2.48917
-0.000149134
2.98563
-0.00354116
2.98568
-0.00748414
2.48919
-0.0129671
2.07652
-0.0206159
1.73351
-0.0317512
1.44935
-0.0478562
1.21462
-0.0696438
1.02055
-0.0957001
0.858359
-0.107185
0.705071
0.470803
0.112634
0.358228
0.134911
0.682835
0.119738
0.873611
0.0967787
1.04357
0.0733503
1.2381
0.0518507
1.47092
0.0338843
1.75151
0.0200246
2.09036
0.00893322
2.50026
-0.000773563
2.99533
-0.0105041
2.99541
-0.0214878
2.50017
-0.0351368
2.09017
-0.0528869
1.75126
-0.0742013
1.47067
-0.0974375
1.23786
-0.120263
1.04338
-0.135298
0.873394
-0.112834
0.682608
0.357969
0.0917622
0.266466
0.124362
0.650235
0.120349
0.877624
0.103727
1.0602
0.0845905
1.25724
0.0653934
1.49012
0.0470008
1.7699
0.0299318
2.10743
0.0143175
2.51588
-0.00133259
3.01098
-0.0168316
3.01091
-0.0321519
2.51549
-0.0489031
2.10692
-0.0669496
1.76931
-0.0858473
1.48957
-0.104766
1.25678
-0.121159
1.05977
-0.124997
0.877233
-0.0920714
0.649682
0.265897
0.0634847
0.202981
0.104043
0.609676
0.106009
0.875659
0.0950154
1.07119
0.0809129
1.27134
0.0662094
1.50482
0.050017
1.78609
0.033105
2.12434
0.0160374
2.53295
-0.00190776
3.02893
-0.0196203
3.02863
-0.0362213
2.53209
-0.0526541
2.12335
-0.0685485
1.7852
-0.0829992
1.50402
-0.0968233
1.2706
-0.107508
1.07045
-0.105061
0.874786
-0.0639147
0.608536
0.201982
0.0364404
0.166541
0.0781804
0.567936
0.0881486
0.865691
0.081742
1.0776
0.0704619
1.28262
0.0588025
1.51648
0.0462177
1.79868
0.031867
2.13869
0.015587
2.54923
-0.00264784
3.04716
-0.0206795
3.04666
-0.0365377
2.54795
-0.050424
2.13724
-0.0624205
1.7972
-0.073376
1.51497
-0.0840556
1.28128
-0.0898735
1.07627
-0.0793151
0.864227
-0.0368568
0.566078
0.165126
0.0183122
0.148229
0.0537736
0.532475
0.067488
0.851976
0.0652476
1.07984
0.0575074
1.29036
0.0480073
1.52598
0.0378347
1.80885
0.0264004
2.15012
0.0128345
2.56279
-0.00327897
3.06328
-0.019157
3.06254
-0.0322065
2.561
-0.0427657
2.1478
-0.0520712
1.80651
-0.0609643
1.52387
-0.0681154
1.28843
-0.069726
1.07788
-0.0551752
0.849677
-0.0187698
0.529672
0.146356
0.00947426
0.138754
0.0391862
0.502763
0.0538569
0.837306
0.0533844
1.08031
0.047276
1.29647
0.0389402
1.53432
0.0298491
1.81794
0.0196523
2.16032
0.00849217
2.57395
-0.00421021
3.07598
-0.0165273
3.07485
-0.0269035
2.57138
-0.0361328
2.15703
-0.0443992
1.81477
-0.0519279
1.5314
-0.0572184
1.29372
-0.0568653
1.07753
-0.0410415
0.833853
-0.0100686
0.498699
0.136287
0.00493101
0.133823
0.0280376
0.479656
0.042768
0.822575
0.0439239
1.07915
0.0391817
1.30121
0.0319922
1.54151
0.0237637
1.82617
0.0149423
2.16914
0.00544172
2.58345
-0.00537902
3.0868
-0.0157351
3.08521
-0.0243353
2.57998
-0.0320759
2.16477
-0.0389276
1.82162
-0.0449784
1.53745
-0.0486077
1.29735
-0.0462355
1.07516
-0.0300333
0.81765
-0.00561242
0.474279
0.130675
0.00166143
0.132162
0.015934
0.465384
0.0283656
0.810144
0.0310543
1.07646
0.0284758
1.30379
0.0238212
1.54616
0.0181746
1.83182
0.0112424
2.17607
0.00294131
2.59175
-0.00695243
3.09669
-0.0163084
3.09457
-0.0233231
2.58699
-0.0287908
2.17024
-0.0327324
1.82557
-0.035897
1.54061
-0.0369023
1.29836
-0.0325663
1.07082
-0.0183512
0.803435
-0.0024989
0.458426
0.128176
-0.000412044
0.132574
0.00620351
0.458768
0.0150798
0.801267
0.0184291
1.07311
0.017859
1.30436
0.0153218
1.5487
0.0120069
1.83513
0.00697312
2.18111
3.10508e-05
2.5987
-0.00865266
3.10538
-0.0165845
3.1025
-0.0215749
2.59198
-0.0243512
2.17301
-0.0261505
1.82736
-0.0265301
1.54099
-0.0252074
1.29703
-0.019928
1.06554
-0.00910098
0.792608
-0.000619653
0.449945
0.127556
-0.000770798
0.133345
0.00168901
0.456309
0.0072419
0.795714
0.010318
1.07004
0.0108114
1.30387
0.00953187
1.54998
0.00675175
1.83791
0.00262797
2.18523
-0.00316485
2.60449
-0.0103814
3.11259
-0.0167578
3.10887
-0.0206973
2.59592
-0.0229706
2.17528
-0.0232987
1.82769
-0.0219618
1.53965
-0.0191602
1.29423
-0.0136553
1.06004
-0.00538669
0.78434
-0.00050345
0.445062
0.127053
-0.00061967
0.133964
-4.23646e-05
0.455731
0.00375793
0.791914
0.00667962
1.06712
0.00769553
1.30285
0.00712464
1.55055
0.00433824
1.8407
-0.000276988
2.18985
-0.00653515
2.61075
-0.0136441
3.1197
-0.0195746
3.1148
-0.0233307
2.59968
-0.0245215
2.17648
-0.023465
1.82664
-0.0214349
1.53762
-0.0174967
1.29029
-0.011723
1.05426
-0.00480519
0.777422
-0.00100006
0.441257
0.126053
-0.000965394
0.13493
-0.00149084
0.456257
0.000941656
0.789482
0.00355496
1.0645
0.00523268
1.30117
0.00496099
1.55082
0.00236889
1.84329
-0.00248792
2.1947
-0.00925835
2.61752
-0.0169855
3.12743
-0.0233333
3.12115
-0.0268592
2.6032
-0.0272051
2.17682
-0.0258073
1.82524
-0.0226151
1.53443
-0.0172818
1.28496
-0.0107212
1.0477
-0.00444611
0.771147
-0.00115988
0.43797
0.124893
-0.00152741
0.136457
-0.00324904
0.457978
-0.00234406
0.788577
0.000566416
1.06159
0.00250986
1.29923
0.00206758
1.55126
-0.000915681
1.84627
-0.0062499
2.20004
-0.0134139
2.62468
-0.0213238
3.13534
-0.027528
3.12736
-0.0305289
2.6062
-0.0307497
2.17704
-0.0286042
1.82309
-0.0235628
1.52939
-0.0168266
1.27822
-0.00961299
1.04049
-0.00386977
0.765404
-0.00102481
0.435125
0.123868
-0.00197382
0.138431
-0.00478677
0.460791
-0.00551757
0.789307
-0.00376293
1.05984
-0.00219087
1.29766
-0.00266154
1.55173
-0.00583038
1.84944
-0.0113722
2.20558
-0.0186426
2.63195
-0.0263923
3.14309
-0.0319702
3.13293
-0.0342754
2.60851
-0.0337841
2.17655
-0.0308944
1.8202
-0.0252613
1.52376
-0.0179718
1.27093
-0.0103722
1.03289
-0.00458413
0.759616
-0.00137509
0.431916
0.122493
-0.00218102
0.140612
-0.00595126
0.464561
-0.00765922
0.791015
-0.00717022
1.05935
-0.00669305
1.29718
-0.00828969
1.55333
-0.012496
1.85365
-0.0186919
2.21177
-0.0261672
2.63943
-0.0335635
3.15049
-0.0381155
3.13749
-0.0391727
2.60957
-0.0373248
2.1747
-0.0330299
1.81591
-0.0265227
1.51725
-0.018813
1.26323
-0.0112949
1.02537
-0.00559913
0.75392
-0.00184856
0.428166
0.120644
-0.00282026
0.143432
-0.00773933
0.469481
-0.0109072
0.794183
-0.0121083
1.06055
-0.0130748
1.29815
-0.0156098
1.55586
-0.0203739
1.85841
-0.0270954
2.2185
-0.0348075
2.64714
-0.0418352
3.15751
-0.0452668
3.14092
-0.0447234
2.60902
-0.0415297
2.17151
-0.036108
1.81049
-0.029137
1.51028
-0.0213299
1.25542
-0.0136686
1.01771
-0.00726504
0.747516
-0.00243982
0.423341
0.118205
-0.00337556
0.146808
-0.00932023
0.475425
-0.0141221
0.798985
-0.0171879
1.06362
-0.0204142
1.30137
-0.0250096
1.56046
-0.0312356
1.86464
-0.0386804
2.22594
-0.0463751
2.65483
-0.0525322
3.16367
-0.0542573
3.14264
-0.0517089
2.60647
-0.0465918
2.16639
-0.0394995
1.80339
-0.0313443
1.50212
-0.022883
1.24696
-0.0150099
1.00984
-0.00832137
0.740828
-0.00286166
0.417881
0.115343
-0.00470361
0.151512
-0.0130241
0.483746
-0.0203219
0.806283
-0.025482
1.06878
-0.0302918
1.30618
-0.0363233
1.56649
-0.0437879
1.8721
-0.0521221
2.23428
-0.0600196
2.66273
-0.065171
3.16882
-0.0648464
3.14232
-0.0599885
2.60162
-0.0527358
2.15914
-0.0442537
1.79491
-0.0354515
1.49332
-0.0268441
1.23835
-0.0185121
1.0015
-0.0105047
0.73282
-0.00355234
0.410929
0.111791
-0.00572273
0.157234
-0.0156372
0.49366
-0.0247948
0.815441
-0.0326553
1.07664
-0.0407502
1.31428
-0.0497346
1.57548
-0.0595238
1.88189
-0.0694359
2.24419
-0.0778098
2.67111
-0.0819257
3.17294
-0.0792888
3.13968
-0.0720041
2.59433
-0.0624715
2.14961
-0.0520313
1.78447
-0.0414233
1.48271
-0.0311511
1.22808
-0.0214826
0.991835
-0.0123527
0.72369
-0.0042397
0.402816
0.107551
-0.00814248
0.165377
-0.0220607
0.507578
-0.034522
0.827902
-0.0447297
1.08684
-0.0547808
1.32433
-0.066122
1.58682
-0.0782669
1.89404
-0.0898305
2.25575
-0.0986266
2.6799
-0.101496
3.17581
-0.096162
3.13435
-0.085886
2.58406
-0.0735156
2.13724
-0.0608226
1.77178
-0.0489409
1.47083
-0.0380368
1.21717
-0.0272429
0.981042
-0.0158165
0.712264
-0.00532948
0.392328
0.102221
-0.00996691
0.175344
-0.0265684
0.52418
-0.0424306
0.843764
-0.0567045
1.10112
-0.0714687
1.33909
-0.0868348
1.60218
-0.102117
1.90932
-0.115803
2.26944
-0.125238
2.68934
-0.126712
3.17728
-0.118488
3.12612
-0.105145
2.57071
-0.0899503
2.12204
-0.0746435
1.75647
-0.0598438
1.45603
-0.0457663
1.2031
-0.0321011
0.967376
-0.0185129
0.698676
-0.00625021
0.380066
0.0959712
-0.0149811
0.190325
-0.038339
0.547538
-0.0588319
0.864257
-0.0766849
1.11897
-0.0947847
1.35719
-0.113792
1.62119
-0.132453
1.92798
-0.148063
2.28505
-0.157466
2.69874
-0.156829
3.17665
-0.14494
3.11423
-0.127582
2.55335
-0.108372
2.10283
-0.0894905
1.73759
-0.072206
1.43875
-0.0564107
1.1873
-0.0406594
0.951625
-0.023599
0.681615
-0.00775406
0.364221
0.0882171
-0.0190501
0.209375
-0.0490961
0.577584
-0.0770578
0.892219
-0.101084
1.143
-0.125861
1.38197
-0.150175
1.6455
-0.172085
1.94989
-0.188921
2.30188
-0.197467
2.70729
-0.193694
3.17287
-0.177194
3.09773
-0.155443
2.5316
-0.132602
2.07999
-0.110513
1.7155
-0.0896455
1.41788
-0.0696461
1.1673
-0.0491649
0.931144
-0.0278611
0.660312
-0.00886238
0.345222
0.0793547
-0.0334666
0.242841
-0.0748095
0.618927
-0.109519
0.926928
-0.140048
1.17353
-0.17084
1.41276
-0.198895
1.67356
-0.222544
1.97354
-0.239156
2.31849
-0.245273
2.7134
-0.236917
3.16452
-0.215113
3.07593
-0.188397
2.50489
-0.160615
2.05221
-0.133831
1.68872
-0.108922
1.39297
-0.0853485
1.14373
-0.0613375
0.907133
-0.0355114
0.634486
-0.0109601
0.320671
0.0683946
-0.0465269
0.289368
-0.11076
0.68316
-0.160086
0.976254
-0.199187
1.21263
-0.235017
1.44859
-0.26497
1.70351
-0.288305
1.99688
-0.302129
2.33232
-0.303212
2.71449
-0.288043
3.14935
-0.259309
3.0472
-0.226805
2.47238
-0.194438
2.01984
-0.163843
1.65812
-0.135472
1.3646
-0.108004
1.11626
-0.0778231
0.876952
-0.0419932
0.598656
-0.0115579
0.290236
0.0568367
-0.0305494
0.319918
-0.0838482
0.736459
-0.131696
1.0241
-0.175596
1.25653
-0.216642
1.48964
-0.255467
1.74234
-0.290536
2.03195
-0.318838
2.36062
-0.336345
2.73199
-0.336362
3.14936
-0.31575
3.02658
-0.283248
2.43988
-0.244295
1.98089
-0.202414
1.61624
-0.159455
1.32164
-0.116109
1.07292
-0.0719234
0.832766
-0.0319583
0.558691
-0.00675619
0.265034
0.0500805
-0.00680995
0.326728
-0.0336074
0.763256
-0.069469
1.05996
-0.106893
1.29395
-0.14402
1.52676
-0.179203
1.77752
-0.210641
2.06338
-0.235689
2.38567
-0.250027
2.74633
-0.247413
3.14675
-0.224789
3.00396
-0.190402
2.40549
-0.151159
1.94165
-0.111263
1.57635
-0.0727951
1.28317
-0.0374564
1.03758
-0.00905663
0.804366
0.00669257
0.542941
0.00606069
0.265665
0.0561412
0.00400773
0.32272
-0.0130456
0.78031
-0.0393663
1.08628
-0.0692382
1.32382
-0.0996131
1.55714
-0.129633
1.80754
-0.157235
2.09098
-0.1793
2.40773
-0.191491
2.75852
-0.187505
3.14276
-0.165481
2.98194
-0.135125
2.37514
-0.101522
1.90804
-0.0679843
1.54281
-0.0371275
1.25231
-0.0106004
1.01105
0.00873293
0.785032
0.0145812
0.537093
0.00773606
0.272511
0.0638772
0.00481852
0.317902
-0.00479866
0.789927
-0.0247333
1.10622
-0.0490695
1.34816
-0.0736562
1.58173
-0.0990186
1.8329
-0.12284
2.11481
-0.141987
2.42688
-0.152302
2.76884
-0.148281
3.13874
-0.129371
2.96303
-0.103335
2.3491
-0.0757251
1.88043
-0.0490164
1.5161
-0.0244895
1.22779
-0.00335111
0.989911
0.010606
0.771075
0.0135034
0.534196
0.00604602
0.279968
0.0699233
0.00679416
0.311107
5.20069e-05
0.796669
-0.0176138
1.12388
-0.037838
1.36838
-0.0587971
1.60269
-0.0807308
1.85484
-0.101496
2.13557
-0.118512
2.4439
-0.128257
2.77858
-0.126237
3.13672
-0.110484
2.94727
-0.0882776
2.32689
-0.0647024
1.85686
-0.041919
1.49332
-0.0209812
1.20685
-0.00396115
0.972891
0.0066875
0.760427
0.00806549
0.532818
0.00325412
0.284779
0.0731774
0.00641156
0.304696
0.00172637
0.801354
-0.0134872
1.1391
-0.0316884
1.38659
-0.0506383
1.62164
-0.0701553
1.87435
-0.0888669
2.15428
-0.104682
2.45971
-0.114262
2.78816
-0.11249
3.13495
-0.0985441
2.93333
-0.0799444
2.30829
-0.0598546
1.83677
-0.0401096
1.47357
-0.0227876
1.18953
-0.00912819
0.959231
-0.000163772
0.751462
0.00252968
0.530124
0.00100012
0.286309
0.0741775
0.00456677
0.300129
0.00153952
0.804382
-0.0117932
1.15243
-0.0286151
1.40341
-0.0464445
1.63946
-0.0644893
1.8924
-0.0818882
2.17168
-0.0969126
2.47474
-0.106321
2.79757
-0.106248
3.13487
-0.0947662
2.92185
-0.0769367
2.29046
-0.0582238
1.81806
-0.0415291
1.45688
-0.0264751
1.17447
-0.0143744
0.947131
-0.00709027
0.744178
-0.00352099
0.526555
-0.000923771
0.283712
0.0732537
0.00272219
0.297407
0.000367836
0.806736
-0.0115835
1.16438
-0.0272974
1.41912
-0.0442945
1.65646
-0.0615208
1.90962
-0.0781995
2.18836
-0.0928613
2.4894
-0.102707
2.80742
-0.103728
3.1359
-0.0929573
2.91108
-0.0774808
2.27499
-0.061093
1.80167
-0.0451596
1.44094
-0.0314938
1.16081
-0.0206107
0.936248
-0.0119887
0.735556
-0.00642128
0.520988
-0.00200304
0.279293
0.0712507
0.00023973
0.297167
-0.00226668
0.809242
-0.0128432
1.17496
-0.0271999
1.43348
-0.0432674
1.67253
-0.0599652
1.92632
-0.0764214
2.20482
-0.0912601
2.50424
-0.10216
2.81832
-0.104936
3.13867
-0.0967975
2.90294
-0.0824604
2.26065
-0.0660404
1.78525
-0.0509123
1.42582
-0.0374602
1.14736
-0.0257789
0.924566
-0.0164238
0.726201
-0.00859233
0.513156
-0.00261402
0.273315
0.0686367
-0.000547164
0.297714
-0.00520307
0.813898
-0.0147367
1.18449
-0.0279277
1.44667
-0.0429415
1.68754
-0.059105
1.94249
-0.0755872
2.2213
-0.0908985
2.51955
-0.10276
2.83018
-0.106988
3.1429
-0.099992
2.89594
-0.0862405
2.2469
-0.0707773
1.76979
-0.0545267
1.40956
-0.0403857
1.13321
-0.0280264
0.912207
-0.0179666
0.716141
-0.00995457
0.505144
-0.00317334
0.266534
0.0654633
-0.00266622
0.30038
-0.00764592
0.818878
-0.0168332
1.19368
-0.0288972
1.45873
-0.043041
1.70169
-0.0587191
1.95816
-0.0752515
2.23783
-0.0912321
2.53553
-0.10472
2.84367
-0.112045
3.15023
-0.107463
2.89136
-0.0943513
2.23379
-0.0776345
1.75307
-0.0628152
1.39475
-0.0481173
1.11852
-0.0355859
0.899676
-0.023872
0.704427
-0.0120247
0.493297
-0.00377101
0.25828
0.0616923
-0.00398157
0.304362
-0.00926666
0.824163
-0.0182456
1.20266
-0.0298574
1.47034
-0.0433709
1.7152
-0.0585865
1.97338
-0.0751274
2.25437
-0.0918406
2.55224
-0.106773
2.8586
-0.115595
3.15905
-0.112681
2.88845
-0.101094
2.2222
-0.0852058
1.73718
-0.06652
1.37606
-0.050919
1.10292
-0.0363511
0.885108
-0.0235358
0.691612
-0.0132959
0.483057
-0.00425145
0.249236
0.0574409
-0.00437979
0.308742
-0.0102778
0.830061
-0.0191439
1.21152
-0.0304935
1.48169
-0.0436531
1.72836
-0.0585632
1.98829
-0.0751002
2.27091
-0.0924125
2.56955
-0.108836
2.87502
-0.120685
3.1709
-0.121934
2.88969
-0.111324
2.21159
-0.0933406
1.7192
-0.0756264
1.35835
-0.0590448
1.08633
-0.0447971
0.87086
-0.0309661
0.677781
-0.0156998
0.467791
-0.00483973
0.238376
0.0526011
-0.00432316
0.313065
-0.0106741
0.836412
-0.019541
1.22039
-0.030678
1.49283
-0.0436298
1.74131
-0.0583293
2.00299
-0.0748425
2.28742
-0.0925923
2.5873
-0.110208
2.89264
-0.124142
3.18483
-0.126975
2.89253
-0.119132
2.20375
-0.104985
1.70505
-0.0849511
1.33831
-0.0637827
1.06517
-0.0445701
0.851648
-0.0287464
0.661957
-0.0159227
0.454967
-0.0048704
0.227323
0.0477307
-0.00429235
0.317357
-0.0110085
0.843128
-0.0197126
1.2291
-0.0305315
1.50365
-0.0432501
1.75403
-0.0577655
2.0175
-0.0742577
2.30391
-0.0924699
2.60552
-0.111491
2.91166
-0.12853
3.20187
-0.135783
2.89978
-0.129237
2.1972
-0.111634
1.68745
-0.0910879
1.31777
-0.0701189
1.0442
-0.0531101
0.834639
-0.0363599
0.645207
-0.0181548
0.436762
-0.00484855
0.214017
0.0428822
-0.00425964
0.321617
-0.0109811
0.849849
-0.0194809
1.2376
-0.0299918
1.51416
-0.0424317
1.76647
-0.0567687
2.03184
-0.0732768
2.32042
-0.0919125
2.62415
-0.111944
2.93169
-0.130785
3.22071
-0.14029
2.90929
-0.136306
2.19322
-0.12446
1.6756
-0.103059
1.29636
-0.078319
1.01946
-0.050652
0.806972
-0.0291352
0.62369
-0.0148445
0.422471
-0.00364461
0.202817
0.0392376
-0.00427263
0.32589
-0.0110259
0.856603
-0.0192013
1.24577
-0.02931
1.52427
-0.0413745
1.77853
-0.0554555
2.04592
-0.071895
2.33686
-0.0907958
2.64305
-0.111676
2.95257
-0.132535
3.24157
-0.14605
2.9228
-0.146748
2.19392
-0.13345
1.6623
-0.112554
1.27547
-0.0851144
0.992017
-0.0585069
0.780364
-0.0337362
0.598919
-0.0130232
0.401758
-0.00282641
0.19262
0.0364112
-0.00417333
0.330063
-0.010715
0.863144
-0.0186275
1.25368
-0.0283838
1.53403
-0.0400453
1.7902
-0.053809
2.05969
-0.0700993
2.35315
-0.0891314
2.66208
-0.110801
2.97424
-0.133957
3.26472
-0.151197
2.94004
-0.155793
2.19851
-0.148392
1.6549
-0.127673
1.25475
-0.0967647
0.961109
-0.0551001
0.7387
-0.0140702
0.55789
0.0120862
0.375602
0.0179582
0.186748
0.0543694
-0.0040246
0.334088
-0.0104718
0.869592
-0.018052
1.26126
-0.0273924
1.54337
-0.038617
1.80142
-0.0519935
2.07306
-0.0680238
2.36918
-0.0870838
2.68114
-0.109327
2.99648
-0.133822
3.28922
-0.153288
2.95951
-0.16267
2.20789
-0.156582
1.64882
-0.138843
1.23701
-0.107449
0.929715
-0.0679643
0.699215
-0.0132093
0.503135
0.0240762
0.338316
0.0132444
0.19758
0.0676139
-0.00377429
0.337862
-0.00993371
0.875751
-0.0172452
1.26857
-0.0262059
1.55233
-0.0370301
1.81225
-0.0499853
2.08602
-0.0656952
2.38489
-0.0846328
2.70008
-0.107161
3.01901
-0.133145
3.3152
-0.155489
2.98185
-0.167745
2.22015
-0.171531
1.6526
-0.158585
1.22406
-0.130231
0.90136
-0.073344
0.642328
0.0217452
0.408045
0.132208
0.227854
0.160223
0.169565
0.227837
-0.0035758
0.341438
-0.00969443
0.88187
-0.0168779
1.27576
-0.0257487
1.5612
-0.0366676
1.82316
-0.0499509
2.0993
-0.0663972
2.40134
-0.0867809
2.72047
-0.112025
3.04426
-0.142795
3.34597
-0.171848
3.01091
-0.192285
2.24059
-0.196837
1.65715
-0.187988
1.21522
-0.163415
0.876787
-0.134684
0.613597
-0.153809
0.42717
-0.371449
0.445494
-0.911151
0.709266
0.887531
-1.57085
-0.003345
0.344783
-0.00916441
0.887689
-0.0161591
1.28275
-0.024838
1.56988
-0.0355929
1.83392
-0.0488752
2.11258
-0.065602
2.41807
-0.0867199
2.74158
-0.113405
3.07094
-0.146504
3.37907
-0.178551
3.04295
-0.204391
2.26643
-0.231291
1.68405
-0.24407
1.228
-0.250963
0.88368
-0.327348
0.689982
-0.682048
0.78187
-1.38121
1.14466
-1.99896
1.32702
1.22331
-2.33474
-0.00316484
0.347947
-0.00872082
0.893245
-0.0154339
1.28947
-0.0238483
1.57829
-0.0344161
1.84449
-0.0476654
2.12583
-0.0645713
2.43497
-0.0863327
2.76334
-0.114772
3.09938
-0.15285
3.41715
-0.194926
3.08503
-0.231063
2.30256
-0.256707
1.7097
-0.273301
1.24459
-0.361452
0.971831
-0.734472
1.063
-1.48098
1.52837
-2.07383
1.73751
-2.3224
1.5756
1.34202
-2.44112
-0.00288129
0.350829
-0.00806793
0.898432
-0.0145195
1.29592
-0.0226842
1.58646
-0.0330231
1.85483
-0.0461961
2.13901
-0.0632598
2.45204
-0.0856618
2.78575
-0.115501
3.12922
-0.155186
3.45684
-0.198515
3.12836
-0.239885
2.34393
-0.289059
1.75887
-0.385123
1.34065
-0.693425
1.28013
-1.39128
1.76086
-1.99694
2.13403
-2.2451
1.98567
-2.36332
1.69381
1.41016
-2.43146
-0.00262877
0.353457
-0.00747715
0.90328
-0.0135808
1.30202
-0.0214176
1.59429
-0.0315577
1.86497
-0.0446087
2.15206
-0.0617267
2.46915
-0.0845391
2.80856
-0.115642
3.16032
-0.160056
3.50125
-0.214979
3.18328
-0.271631
2.40059
-0.32702
1.81426
-0.492294
1.50593
-1.04725
1.83509
-1.74145
2.45505
-2.08531
2.47789
-2.24284
2.1432
-2.32975
1.78073
1.47791
-2.3975
-0.00244674
0.355904
-0.00710605
0.907939
-0.0131885
1.3081
-0.0210429
1.60215
-0.0313483
1.87527
-0.0445535
2.16526
-0.0620415
2.48664
-0.085637
2.83215
-0.118337
3.19302
-0.164661
3.54757
-0.221093
3.23971
-0.27764
2.45713
-0.374216
1.91084
-0.733253
1.86496
-1.44143
2.54327
-1.94114
2.95476
-2.1506
2.68736
-2.26176
2.25436
-2.3409
1.85987
1.54427
-2.40726
-0.00242602
0.35833
-0.00731295
0.912826
-0.0136653
1.31446
-0.0218589
1.61034
-0.0325982
1.88601
-0.0463395
2.179
-0.0645552
2.50486
-0.0891273
2.85673
-0.123208
3.2271
-0.173508
3.59787
-0.237299
3.3035
-0.31044
2.53027
-0.489994
2.09039
-0.996339
2.37131
-1.6312
3.17812
-1.93279
3.25636
-2.08772
2.84228
-2.20765
2.3743
-2.30415
1.95637
1.61017
-2.37006
-0.00228961
0.36062
-0.00727712
0.917814
-0.0140124
1.32119
-0.022654
1.61898
-0.0338261
1.89718
-0.0481135
2.19329
-0.0669791
2.52372
-0.0925411
2.88229
-0.128526
3.26309
-0.181254
3.6506
-0.248985
3.37123
-0.339165
2.62045
-0.599505
2.35073
-1.20684
2.97865
-1.72048
3.69176
-1.93771
3.47359
-2.08808
2.99265
-2.22294
2.50916
-2.34378
2.07721
1.67451
-2.40812
-0.00215452
0.362774
-0.0074103
0.92307
-0.0144641
1.32824
-0.0235014
1.62802
-0.0351317
1.90881
-0.0499762
2.20813
-0.0696155
2.54336
-0.0962763
2.90895
-0.133365
3.30018
-0.188038
3.70527
-0.258968
3.44216
-0.38117
2.74266
-0.728482
2.69804
-1.34653
3.5967
-1.7323
4.07752
-1.92006
3.66135
-2.03598
3.10857
-2.1393
2.61248
-2.21703
2.15494
1.67087
-2.21339
-0.00184191
0.364616
-0.0071029
0.928331
-0.0145868
1.33573
-0.0241461
1.63758
-0.0362807
1.92095
-0.0517005
2.22355
-0.0719394
2.5636
-0.0993139
2.93632
-0.138069
3.33893
-0.196116
3.76332
-0.278178
3.52423
-0.431988
2.89647
-0.845114
3.11117
-1.40524
4.15682
-1.68966
4.36194
-1.86523
3.83691
-1.97283
3.21618
-1.98519
2.62485
-1.93631
2.10605
1.66579
-1.93123
-0.00160295
0.366219
-0.00705887
0.933786
-0.0147732
1.34344
-0.0246464
1.64745
-0.0371097
1.93341
-0.0527815
2.23923
-0.0732644
2.58408
-0.100966
2.96403
-0.139719
3.37768
-0.194895
3.8185
-0.27421
3.60354
-0.459802
3.08206
-0.905107
3.55647
-1.36715
4.61886
-1.56239
4.55718
-1.6475
3.92203
-1.66563
3.23431
-1.53195
2.49116
-1.04554
1.61965
0.620247
-0.00102317
0.367242
-0.00618104
0.938944
-0.0143675
1.35163
-0.0249268
1.65801
-0.038223
1.94671
-0.0549642
2.25597
-0.0768959
2.60602
-0.106459
2.99359
-0.148032
3.41926
-0.210218
3.88068
-0.309852
3.70317
-0.534929
3.30713
-1.02944
4.05099
-1.42241
5.01183
-1.53824
4.67301
-1.54952
3.93331
-1.46571
3.15051
-1.24016
2.26561
-0.670317
1.0498
-0.050071
-0.000583244
0.367826
-0.00555223
0.943913
-0.013873
1.35995
-0.0249431
1.66908
-0.038908
1.96067
-0.056588
2.27365
-0.0797969
2.62922
-0.111278
3.02507
-0.156549
3.46453
-0.222983
3.94712
-0.330757
3.81095
-0.600412
3.57679
-1.12591
4.57649
-1.43446
5.32039
-1.51514
4.75368
-1.50932
3.92749
-1.32075
2.96193
-0.827964
1.77282
-0.132105
0.353943
-0.182176
0.000488883
0.367337
-0.00360692
0.948009
-0.0123391
1.36868
-0.0241361
1.68088
-0.0387798
1.97532
-0.0573938
2.29226
-0.0820101
2.65384
-0.115686
3.05875
-0.163645
3.51249
-0.235588
4.01906
-0.364526
3.93988
-0.681931
3.8942
-1.2019
5.09646
-1.41557
5.53405
-1.45579
4.7939
-1.39269
3.8644
-1.1146
2.68384
-0.372817
1.03104
0.0342828
-0.0531567
-0.147893
0.00158928
0.365747
-0.00159892
0.951197
-0.0106897
1.37777
-0.0227591
1.69295
-0.0377631
1.99032
-0.0571102
2.31161
-0.0826571
2.67939
-0.11699
3.09308
-0.165527
3.56102
-0.243058
4.09659
-0.387573
4.0844
-0.7421
4.24872
-1.22675
5.58111
-1.36821
5.67552
-1.38959
4.81528
-1.2437
3.71851
-0.777776
2.21792
-0.102924
0.356188
0.0372886
-0.19337
-0.110604
0.00321232
0.362535
0.00138614
0.953024
-0.00761819
1.38678
-0.0199865
1.70532
-0.0353263
2.00566
-0.0552126
2.33149
-0.0814931
2.70567
-0.117166
3.12875
-0.168311
3.61217
-0.253045
4.18133
-0.412457
4.24381
-0.802575
4.63884
-1.22147
6
-1.31576
5.7698
-1.2956
4.79512
-1.04107
3.46398
-0.43586
1.61271
-0.025913
-0.0537589
0.00976118
-0.229044
-0.100843
0.00450233
0.358033
0.00376313
0.953763
-0.00401557
1.39456
-0.0159876
1.71729
-0.0312501
2.02092
-0.0514939
2.35174
-0.0782072
2.73238
-0.114294
3.16484
-0.164617
3.66249
-0.249129
4.26584
-0.42199
4.41667
-0.828439
5.04529
-1.15154
6.3231
-1.19961
5.81787
-1.13703
4.73254
-0.850471
3.17742
-0.210937
0.973175
-0.0342863
-0.230409
-0.0139992
-0.249331
-0.114842
0.00692206
0.351111
0.00832369
0.952361
0.00177217
1.40111
-0.00978806
1.72885
-0.0251201
2.03625
-0.0452117
2.37183
-0.0710438
2.75821
-0.105548
3.19934
-0.153609
3.71055
-0.240832
4.35306
-0.422609
4.59845
-0.812432
5.43511
-1.059
6.56967
-1.11346
5.87233
-0.969601
4.58869
-0.567738
2.77555
-0.0294651
0.434902
0.0182129
-0.278087
0.0118868
-0.243005
-0.102956
0.00943993
0.341671
0.0136871
0.948114
0.00897669
1.40582
-0.000555278
1.73838
-0.0162558
2.05195
-0.0354274
2.391
-0.0600877
2.78287
-0.094542
3.2338
-0.142576
3.75859
-0.225628
4.43611
-0.412756
4.78558
-0.750133
5.77249
-0.917136
6.73667
-0.946657
5.90185
-0.772599
4.41463
-0.286807
2.28976
0.0562503
0.0918443
0.0346159
-0.256453
0.0284211
-0.23681
-0.0745346
0.0134017
0.328269
0.021611
0.939905
0.0188965
1.40853
0.00942272
1.74785
-0.00472623
2.0661
-0.0213879
2.40766
-0.0437447
2.80523
-0.0750732
3.26513
-0.117865
3.80138
-0.187545
4.50579
-0.356985
4.95502
-0.614976
6.03048
-0.741408
6.86311
-0.796631
5.95707
-0.705978
4.32398
-0.31038
1.89416
-0.211167
-0.00736842
-0.143507
-0.324112
-0.0576474
-0.32267
-0.132182
0.0172623
0.311007
0.0302727
0.926894
0.030998
1.40781
0.023935
1.75492
0.0129179
2.07712
-0.001297
2.42188
-0.0212798
2.82521
-0.0466893
3.29054
-0.0820458
3.83674
-0.132196
4.55594
-0.27469
5.09751
-0.448446
6.20424
-0.542964
6.95762
-0.630116
6.04422
-0.675548
4.36941
-0.605998
1.82462
-0.635543
0.0221764
-0.468474
-0.491181
-0.231604
-0.55954
-0.363786
0.0225297
0.288477
0.0419998
0.907424
0.0471458
1.40266
0.0435759
1.75849
0.034902
2.08579
0.0228766
2.4339
0.00808135
2.84001
-0.0113159
3.30993
-0.0385934
3.86401
-0.066264
4.58361
-0.138087
5.16933
-0.192771
6.25892
-0.249814
7.01467
-0.306429
6.10084
-0.388409
4.45139
-0.549812
1.98602
-0.755399
0.227764
-0.618381
-0.628199
-0.32284
-0.855081
-0.686626
0.0274418
0.261035
0.0547853
0.880081
0.0665236
1.39092
0.0674482
1.75756
0.0624917
2.09075
0.0560763
2.44032
0.0480522
2.84803
0.0364587
3.32153
0.0207268
3.87975
0.00262187
4.60172
0.0476862
5.12427
0.147094
6.15951
0.226425
6.93534
0.3361
5.99116
0.342364
4.44512
0.0827039
2.24568
-0.255523
0.565991
-0.389418
-0.494305
-0.250203
-0.994296
-0.936829
0.0335693
0.227466
0.0713408
0.842309
0.0907772
1.37149
0.097035
1.75131
0.0975433
2.09024
0.0959211
2.44194
0.0942949
2.84966
0.0945992
3.32122
0.0938393
3.8805
0.122064
4.57349
0.229856
5.01648
0.619426
5.76994
0.958307
6.59646
1.33245
5.61702
1.48881
4.28877
1.15901
2.57547
0.747109
0.977894
0.303881
-0.0510769
0.0935147
-0.783929
-0.843314
0.0374776
0.189988
0.0872604
0.792526
0.117108
1.34164
0.130741
1.73767
0.138877
2.08211
0.145069
2.43575
0.153341
2.84139
0.16701
3.30755
0.186989
3.86053
0.259148
4.50134
0.444185
4.83144
1.01769
5.19643
1.44639
6.16776
1.77586
5.28756
1.91368
4.15095
1.67355
2.81561
1.22931
1.42213
0.817446
0.360791
0.352757
-0.31924
-0.490557
0.0410274
0.148961
0.105118
0.728436
0.148647
1.29811
0.172262
1.71406
0.189301
2.06507
0.202307
2.42274
0.21991
2.82379
0.243437
3.28403
0.285425
3.81854
0.369761
4.417
0.633345
4.56785
1.19418
4.6356
1.64047
5.72147
1.90984
5.01818
2.02347
4.03732
1.85098
2.98809
1.4232
1.84991
0.916148
0.867841
0.382861
0.214048
-0.107697
0.0407749
0.108186
0.119007
0.650204
0.17802
1.2391
0.214865
1.67721
0.243388
2.03654
0.265949
2.40018
0.295046
2.79469
0.328657
3.25041
0.371063
3.77613
0.409945
4.37812
0.606706
4.37109
1.06463
4.17767
1.50204
5.28406
1.66315
4.85707
1.70769
3.99278
1.5766
3.11918
1.23282
2.19369
0.788401
1.31226
0.338978
0.66347
0.231281
0.0386401
0.0695461
0.132783
0.556061
0.212687
1.15919
0.264424
1.62548
0.305856
1.99511
0.341621
2.36442
0.382402
2.75391
0.417447
3.21537
0.442355
3.75122
0.430378
4.3901
0.468836
4.33264
0.722121
3.92439
1.16667
4.83951
1.28451
4.73923
1.27951
3.99779
1.15996
3.23873
0.895975
2.45768
0.555114
1.65312
0.221835
0.996749
0.453116
0.036196
0.0333501
0.14008
0.452177
0.242302
1.05697
0.318538
1.54924
0.378162
1.93549
0.431765
2.31081
0.486735
2.69894
0.524978
3.17713
0.568249
3.70795
0.562498
4.39585
0.497042
4.39809
0.506496
3.91494
0.85249
4.49351
0.946271
4.64545
0.891613
4.05245
0.770998
3.35935
0.577896
2.65078
0.335651
1.89537
0.119478
1.21292
0.572594
0.0322823
0.00106781
0.136257
0.348202
0.259956
0.933271
0.365491
1.44371
0.451704
1.84928
0.534339
2.22818
0.615456
2.61782
0.697924
3.09466
0.807131
3.59875
0.862596
4.34038
0.75929
4.5014
0.64888
4.02535
0.80158
4.34081
0.836233
4.61079
0.735374
4.15331
0.602937
3.49178
0.448762
2.80495
0.251039
2.09309
0.0779233
1.38604
0.650517
0.020086
-0.0190182
0.0821711
0.286117
0.187444
0.827998
0.304303
1.32685
0.41136
1.74222
0.513368
2.12617
0.611725
2.51946
0.726499
2.97988
0.85558
3.46967
0.930583
4.26538
0.804101
4.62788
0.577605
4.25184
0.528062
4.39036
0.478369
4.66049
0.395461
4.23621
0.319485
3.56776
0.236498
2.88794
0.125671
2.20392
0.0294801
1.48223
0.679998
-0.00603985
-0.0129784
-0.00276278
0.28284
0.0493945
0.775841
0.143412
1.23283
0.263245
1.62239
0.398982
1.99043
0.550911
2.36753
0.741312
2.78948
0.951028
3.25995
1.09672
4.11969
0.982341
4.74226
0.6096
4.62458
0.415892
4.58406
0.315439
4.76094
0.242967
4.30869
0.184023
3.6267
0.091437
2.98053
0.014281
2.28107
-0.012785
1.50929
0.667213
-0.0172996
0.00432125
-0.0339044
0.299445
-0.0142909
0.756227
0.0572966
1.16124
0.173374
1.50631
0.324146
1.83966
0.510139
2.18154
0.746399
2.55322
0.999647
3.0067
1.19576
3.92358
1.12198
4.81603
0.715349
5.03121
0.400729
4.89868
0.252835
4.90883
0.158748
4.40277
0.0541896
3.73126
-0.0572556
3.09197
-0.0642926
2.28811
-0.0447265
1.48973
0.622486
-0.0166905
0.0210117
-0.040867
0.323622
-0.0366326
0.751993
0.0191972
1.10541
0.119784
1.40572
0.262706
1.69674
0.447255
1.99699
0.685177
2.3153
0.953596
2.73828
1.18773
3.68944
1.14657
4.85719
0.805799
5.37199
0.430127
5.27435
0.199276
5.13969
0.0226276
4.57942
-0.1501
3.90399
-0.197383
3.13925
-0.149892
2.24062
-0.0890679
1.4289
0.533418
-0.0144417
0.0354534
-0.0412297
0.35041
-0.0421376
0.752901
-0.0050767
1.06835
0.070047
1.3306
0.18109
1.5857
0.328616
1.84947
0.521712
2.12221
0.758587
2.50141