/*--------------------------------*- C++ -*----------------------------------*\
| =========                 |                                                 |
| \\      /  F ield         | OpenFOAM: The Open Source CFD Toolbox           |
|  \\    /   O peration     | Version:  4.0                                   |
|   \\  /    A nd           | Web:      www.OpenFOAM.org                      |
|    \\/     M anipulation  |                                                 |
\*---------------------------------------------------------------------------*/
FoamFile
{
    version     2.0;
    format      ascii;
    class       surfaceScalarField;
    location    "64";
    object      phi;
}
// * * * * * * * * * * * * * * * * * * * * * * * * * * * * * * * * * * * * * //

dimensions      [0 3 -1 0 0 0 0];

internalField   nonuniform List<scalar> 
1300
(
3.75095
5.62643
-3.32811
3.75095
-7.75143
5.62643
-4.38484
4.38484
-0.430871
0.430871
1.87639
1.87456
-2.68289
2.68289
-2.15541
2.15541
-2.52656
2.52656
-5.24649
5.24649
-5.06919
5.06919
4.65593
-4.65593
-6.30366
6.30366
-0.949229
0.949229
-3.67692
3.67692
3.16963
-3.16963
-2.1062
2.1062
0.000286393
-0.000286393
-0.553477
4.30443
3.19748
3.19748
-2.01148
2.01148
-4.86811
4.86811
6.21812
-6.21812
5.31935
-5.31935
-1.99123
-2.45248
1.81077
-11.5109
-5.94066
-5.94066
-8.44038
8.44038
-2.81395
2.81248
2.94605
-2.94605
-1.77418
1.77418
-4.34378
-0.0410601
-4.34378
4.35664
0.0281967
4.35664
-0.502698
0.0718265
-0.502698
3.98258
-3.98258
0.347125
0.0837464
0.347125
3.06531
-3.06531
-1.87711
3.7535
1.87384
-1.87189
6.17632
-1.87906
3.75362
-6.01635
6.01635
-2.92195
0.239066
-2.92195
2.4844
0.198487
2.4844
-6.84694
6.84694
-2.18547
0.0300687
-2.18547
2.12482
0.0305851
2.12482
2.88034
-2.88034
-2.63802
0.111457
-2.63802
2.39487
0.131693
2.39487
0.353517
5.27291
-5.97995
8.79243
-5.27291
0.0264231
5.20837
0.0381205
5.20837
-5.106
0.0368133
-5.106
5.01187
0.057314
5.01187
4.74171
-0.085781
4.74171
-4.77414
0.118215
-4.77414
-3.36935
-4.05388
-6.45467
0.151009
-6.45467
-1.0386
0.0893671
-1.0386
0.835383
0.113845
0.835383
-3.68412
3.68412
-4.09989
0.422974
-4.09989
3.124
0.0456265
3.124
1.86849
1.88246
5.61944
-5.61944
2.44982
-2.07969
-0.0265135
-2.07969
-2.16388
-3.15546
2.16388
-0.057682
-0.230896
0.231182
-0.230896
3.15942
0.0380533
3.15942
2.23736
0.157501
-2.23736
0.225887
3.27235
-3.27235
1.34179
0.669687
1.34179
-5.56395
5.56395
4.95577
0.0560989
-4.95577
0.0876623
6.15674
0.0613785
6.15674
-6.19953
-0.018594
-6.19953
2.52762
-4.9801
-2.61137
6.12161
0.182049
-6.12161
0.180952
2.91785
0.0281995
2.91785
-2.91973
2.91973
-2.9846
0.0385443
-2.9846
-2.1732
0.399011
-2.1732
1.47539
0.298791
1.47539
-4.24234
-0.101443
-4.24234
-4.24773
0.147838
4.24773
0.108911
1.12803
-1.12803
-0.617908
0.11521
-0.617908
-4.10617
-0.136168
4.10617
-0.12359
-3.87309
-0.109489
-3.87309
-3.02446
0.0398611
3.02446
0.0408534
3.11286
0.046563
-3.11286
0.0475478
-1.87082
3.75328
-1.88013
3.75397
-5.63586
-0.380485
-5.63586
6.3271
-0.310753
6.3271
3.31603
0.360892
-3.31603
0.394075
2.3404
0.143997
2.3404
-6.81065
-0.0362855
-6.81065
6.83052
0.0164156
6.83052
2.24378
0.0966197
-2.24378
0.0583093
2.09463
0.0301939
2.09463
2.89996
-0.0196219
2.89996
-2.87476
-0.00557802
-2.87476
2.79653
-2.79653
2.72305
0.073473
-2.72305
0.0850382
-11.1331
11.1146
-0.0353221
-11.0978
5.17305
5.17305
4.16906
0.572649
4.16906
-4.99169
0.217548
-4.99169
2.68056
-5.29193
3.07835
-6.44771
4.66772
-16.1786
4.30112
-8.355
6.69508
-6.69508
6.58363
0.111446
-6.58363
0.128956
-1.15446
0.115861
-1.15446
-3.08138
-0.602737
-3.08138
4.32718
-0.643063
4.32718
-3.02819
3.02819
-3.07748
0.0492952
3.07748
0.0465177
2.07773
0.0168957
-2.07773
-0.001958
0.286439
0.0606856
-0.286439
0.0555437
3.48322
-0.210874
3.48322
-3.07538
-0.196968
-3.07538
-1.25348
0.0990254
1.25348
0.0883092
-5.81448
0.250536
-5.81448
-11.1907
0.0929147
-11.1526
-6.10661
-6.10661
2.33376
11.1262
-2.89299
0.0182236
2.89299
0.0248688
2.97515
0.0530346
-2.97515
0.0554236
-2.86061
0.0640786
2.86061
0.0591238
-2.54831
0.375112
-2.54831
-1.07271
1.07271
-1.23901
0.166301
1.23901
0.236383
1.39954
-0.271504
1.39954
0.72867
0.106713
-0.72867
0.110763
-3.77552
-0.0975651
-3.77552
6.56176
-0.234656
6.56176
-2.96139
-0.113993
2.96139
-0.0614264
-0.0333031
11.1479
-5.13974
0.0337458
5.13974
-11.2092
11.243
-3.2192
0.67089
3.2192
0.949862
5.28441
0.279541
-5.28441
0.292719
6.77968
0.050842
-6.77968
0.0846027
-2.58871
-0.492672
-2.58871
-5.05334
-0.58252
5.05334
-0.726162
-11.4752
-0.204196
11.6794
-11.4179
6.01868
0.138062
-6.01868
11.381
-1.02976
-0.0982756
1.02976
0.0429545
1.72692
-0.327386
1.72692
3.67648
-0.193253
-3.67648
-0.0990476
-6.71506
-0.0955852
6.71506
-0.153309
-2.14386
-0.444847
2.14386
-0.416939
-4.26711
4.30516
1.90922
-2.38894
-2.59116
-5.5444
1.85186
1.90142
4.30168
-10.153
-6.0256
-9.97205
7.26227
-6.96955
-9.24555
9.15977
7.86531
-7.9748
-5.78489
5.83141
6.48282
-6.44197
1.8788
1.8747
8.00705
-7.76799
-15.6078
15.2274
7.50709
-7.47702
15.7637
-15.8
-17.8478
17.8986
-5.69707
5.80853
-6.73882
6.73324
-6.97306
6.91163
-2.83076
-3.61695
13.1175
-12.9665
8.54848
-8.57499
-8.6086
9.03157
3.38258
0.92258
3.42914
-1.88217
3.76097
-1.87146
3.78068
2.71229
-5.54305
2.57964
-5.1708
4.3349
4.21359
-4.27721
-1.26719
-5.92433
5.95253
-5.81458
5.8737
9.12029
-9.16135
-1.88516
3.75986
-1.86882
3.77024
-3.42502
-2.35987
3.37939
0.922286
8.07384
5.04368
-8.25588
-1.71617
-8.02936
7.83611
-8.22553
8.02857
-0.435821
5.81947
-5.38365
4.43229
-1.56207
7.38154
5.70021
5.91775
5.86584
-5.5863
1.10371
-6.48736
-6.3997
-2.32274
2.43795
2.21094
-2.12719
6.12136
1.74395
5.99776
-5.74843
-2.22637
-5.846
3.82068
2.01073
3.86998
4.0783
2.40452
4.11816
3.0305
-3.03592
0.00541498
-3.05659
6.08709
0.723941
-5.41646
-4.49418
4.97319
3.03387
5.17167
-5.55175
-2.21624
-5.15768
-9.53875
-6.06909
-10.1213
10.0839
5.14342
9.77319
-11.9567
11.8034
4.78954
2.71755
4.82013
-4.91812
-2.5589
-4.85981
11.6438
-2.63015
-9.01363
-10.3175
-7.53024
10.3011
5.46261
10.9618
6.93678
11.0464
4.42547
7.21831
-9.88808
2.35784
-3.86452
-1.83255
-3.77948
3.6669
2.14163
3.79859
-4.21706
-2.52176
-4.19884
-4.29505
-2.67801
4.31467
2.41857
-4.41577
-3.80977
4.52976
2.38187
4.03997
-10.0656
4.31502
-7.93197
-9.19745
-3.76905
-9.0685
3.50702
2.60544
-6.11246
-2.03603
8.47402
-4.26043
7.20683
-5.17529
-3.39971
-5.17725
-6.87696
-1.73164
-6.72912
-8.8782
8.38553
-9.17486
8.5318
12.5234
-5.64912
-6.87428
-3.96841
-2.47355
3.92087
-0.491723
-3.71055
3.71597
0.0504177
3.83109
4.75367
4.26195
-3.8846
-1.92998
-3.82918
3.82532
2.04838
3.8894
6.83173
2.28856
6.85992
-6.59427
-2.56707
-6.69571
9.0422
-8.64319
2.84391
-2.74488
5.39122
2.63734
-5.18035
-2.84901
6.21294
-3.21737
-2.99557
-12.1987
10.531
1.66771
-4.81713
-0.384841
-0.385128
-5.48988
-3.75567
5.37166
0.546091
11.077
7.32137
-5.51152
5.76205
6.16785
6.22395
-0.175749
5.80953
-5.13864
5.26415
-2.5768
-2.68734
5.45574
-5.5919
-1.23998
-5.50254
4.26256
0.405861
1.52362
-1.29243
-1.81512
-0.507621
-1.70436
1.31088
0.90006
1.37156
0.937837
1.50011
-2.9575
0.555252
2.40224
-2.01966
-1.57194
-3.79491
-1.14086
4.93577
5.7268
2.10931
-5.62775
-0.218242
2.556
-2.44215
-0.760005
-3.0349
2.24424
-3.00425
-3.67363
-2.05576
5.72938
-3.36986
-0.459319
3.31683
0.553149
-3.82705
-2.09728
3.7885
0.329651
-3.12766
6.19061
-3.06295
-5.05763
2.52771
3.55938
4.53844
-4.78952
2.44748
2.34205
-1.23014
4.24579
0.925885
4.38979
-6.93406
4.71782
5.79661
3.23496
-6.1575
0.999827
-5.93423
8.54003
-7.36861
-1.17142
4.14364
4.39639
7.06869
5.4547
-5.67516
12.7439
-1.20115
-6.16747
7.13537
-3.90041
4.8469
-8.74732
-10.3016
4.13414
-9.14136
10.9189
-1.77752
-3.62345
-8.33328
12.7648
-1.20525
-11.5596
8.56794
-4.25632
-4.34011
8.59643
-6.88646
6.89901
-1.99298
-4.90604
-10.1037
-5.69634
10.1992
1.60419
-9.8998
12.2576
-2.68149
4.10715
0.71298
4.13734
3.2948
-5.4817
2.1869
3.59166
-5.58464
2.08298
-7.56468
-6.73139
12.0646
-5.3332
-10.5004
-9.51812
-0.98233
2.53515
9.72248
-9.47193
7.42874
2.04319
3.30066
0.588743
-3.37413
-0.405352
0.239759
4.5251
-4.76486
4.03835
4.19585
3.28138
1.24372
3.84506
2.10747
-3.86993
-0.328914
-4.16294
1.48494
-1.74437
-3.69337
5.17831
-4.06692
0.373552
-2.74861
-3.49905
6.24766
-4.58116
3.03583
3.15478
5.08421
-4.9133
1.41425
-2.39283
-2.52048
2.65267
-4.39705
1.99095
3.18737
4.37282
0.563048
5.87415
6.19044
-8.47959
0.547624
11.2341
-9.51795
2.46602
8.5804
-9.89476
0.376647
-8.69185
0.993672
-5.25411
-5.11879
5.1884
-6.92004
-3.55891
6.20964
0.650281
-6.31855
-0.410569
-6.03393
-2.84427
-6.47878
-3.04382
-6.13105
-8.71898
-1.65175
-7.06723
6.73378
-6.68041
-3.44087
7.40657
1.12523
-7.40991
7.31163
-7.4879
7.16051
0.0953487
3.62062
4.3573
1.88375
-2.39047
4.27422
-5.11851
7.40707
-8.70242
3.58392
4.18378
-6.75086
-4.51864
5.0233
4.0189
5.32209
8.8878
-10.3598
1.47203
-10.6599
11.9917
-1.33184
-16.4215
5.7616
-7.53367
2.45126
0.392652
2.56712
0.547452
2.49886
-3.04631
-2.19743
-2.10912
-2.43147
-3.46562
5.89709
1.10277
-3.522
2.41923
-3.57045
4.67322
-0.200571
-3.32143
5.27815
-2.77929
5.6708
-3.77102
1.89979
3.43364
5.7529
-2.31926
4.39444
-1.7571
1.92019
-4.23945
-1.54543
-2.96416
5.10579
-3.2835
3.65705
-0.34093
3.99798
-4.05492
0.837553
-0.773542
3.42231
3.6482
4.31286
-3.06914
2.92216
-4.67925
-1.31729
-4.11621
-0.92884
-0.264332
-3.7083
3.97264
5.98647
-6.2508
-5.23622
9.53031
-4.29409
7.69476
-5.38304
-2.31172
-4.25422
-4.38897
3.87911
1.93043
9.62519
0.209427
-5.59247
-4.92922
-3.97935
3.11787
2.14628
-1.77597
3.44368
2.1611
-0.637481
0.440909
0.930654
1.78704
-1.34613
0.306236
1.4808
-0.986198
1.75866
0.79734
-1.86537
0.161011
-1.30601
3.55025
1.09623
-1.99629
0.650167
0.982867
-3.55967
5.02891
-2.6667
-2.3622
6.01177
1.13963
-3.80634
4.3629
-3.95704
2.37867
-3.51953
-1.42767
-5.38471
-3.64076
-2.52725
4.94648
-3.36984
5.47915
1.27285
-5.2609
6.53376
-3.72168
1.66593
-3.06566
3.863
-0.951532
-2.11412
2.90032
2.82907
-3.05873
0.0238259
-0.15841
2.40607
-2.56448
-0.598182
-2.61784
-4.5733
4.90295
-2.10544
4.55292
2.16878
-1.91669
6.46961
1.80913
-3.72582
-3.2485
-3.70782
-1.38377
3.15467
-0.599877
-4.25993
-5.50591
4.16331
0.226473
-7.04719
7.85522
-0.808025
-4.01332
-0.704496
4.84813
-6.066
0.48136
-3.98302
3.8722
4.79808
5.02455
-11.3422
-0.217392
-6.19875
1.12309
-7.32185
5.51949
-3.54042
7.67456
-10.3287
6.8878
-9.20343
6.50314
-0.818704
6.25157
-4.06467
2.76206
-8.4584
-6.85422
5.49472
-2.77718
6.2077
-3.13777
9.34547
-5.81926
5.2798
4.06567
-1.01609
-4.16116
-5.27288
4.25679
0.00692423
4.14426
4.98001
-2.87254
4.6511
2.2677
-4.66053
-2.12934
-6.49456
1.83403
-3.33979
-1.92051
3.75454
3.1637
3.75245
1.23406
-3.34709
7.18685
-8.16918
-1.85365
-3.26514
5.25694
-1.00015
3.39688
-6.66201
-1.85723
4.79901
-0.784556
-4.01446
0.850109
-4.40902
1.67273
-6.08175
5.24731
-5.65788
2.22181
-9.75548
-5.1881
-5.14514
-2.25869
-5.22921
-7.57251
5.31382
-1.81091
5.50072
-8.50965
7.72509
-3.48207
8.79589
-5.42827
-1.05051
5.84521
1.3153
10.1112
0.211158
-4.7298
-1.91154
3.86199
-1.95045
1.20632
-3.49715
0.364845
2.48805
3.52372
-6.75061
-0.000249272
-4.73005
-3.91748
7.93638
5.61283
11.5993
1.23947
9.1183
-1.18192
10.3578
4.14017
4.37655
-2.99237
4.4644
0.98027
4.56419
-0.919022
2.81881
1.6481
1.73747
0.704685
2.30312
1.34508
3.14067
0.0943596
-2.01476
4.62255
-8.60191
-0.96992
-8.02926
1.13051
5.70985
-4.57934
2.97012
-0.823841
1.01967
-0.077478
-1.29281
1.37029
-2.76482
-1.93029
-0.449493
-1.68583
2.33599
1.86443
-1.8865
-0.878322
0.359413
-4.00017
3.16011
-3.13629
-0.307222
6.22654
-2.81931
0.25483
-1.15338
-2.36301
-2.87063
2.70962
6.17598
0.293624
3.11303
5.19658
3.0993
0.226755
3.8939
-5.67142
-3.67078
-5.88881
-0.369323
4.47881
1.75234
7.97015
5.818
4.81786
-1.84416
-10.0133
6.52054
-2.05615
5.18871
-1.17425
-4.90751
5.04488
2.36219
-5.69516
0.0372743
-4.87023
-6.92638
-0.51372
8.23881
-9.59747
8.54696
5.70269
1.36454
-4.40599
-0.739152
4.23969
0.136867
10.4946
-1.12816
-6.73217
7.86033
-4.58169
3.61177
0.75999
2.68369
2.13028
1.30644
-5.42573
-10.0051
-2.04034
-1.51933
-4.40254
0.533225
-2.39765
6.22534
-2.61357
3.91362
5.24676
6.26643
-2.13453
-4.11627
6.42862
-2.515
3.75143
)
;

boundaryField
{
    wall-4
    {
        type            calculated;
        value           uniform 0;
    }
    velocity-inlet-5
    {
        type            calculated;
        value           uniform -3.75095;
    }
    velocity-inlet-6
    {
        type            calculated;
        value           uniform -5.62643;
    }
    pressure-outlet-7
    {
        type            calculated;
        value           nonuniform List<scalar> 8(3.32811 7.75143 4.44371 9.70012 7.42323 5.13899 5.75891 8.96884);
    }
    wall-8
    {
        type            calculated;
        value           uniform 0;
    }
    frontAndBackPlanes
    {
        type            empty;
        value           nonuniform 0();
    }
}


// ************************************************************************* //
