/*--------------------------------*- C++ -*----------------------------------*\
| =========                 |                                                 |
| \\      /  F ield         | OpenFOAM: The Open Source CFD Toolbox           |
|  \\    /   O peration     | Version:  4.0                                   |
|   \\  /    A nd           | Web:      www.OpenFOAM.org                      |
|    \\/     M anipulation  |                                                 |
\*---------------------------------------------------------------------------*/
FoamFile
{
    version     2.0;
    format      ascii;
    class       volScalarField;
    location    "44";
    object      p;
}
// * * * * * * * * * * * * * * * * * * * * * * * * * * * * * * * * * * * * * //

dimensions      [0 2 -2 0 0 0 0];

internalField   nonuniform List<scalar> 
918
(
0.567788
1.21679
0.00330066
0.56716
-0.0120305
1.1838
-0.488204
0.718749
0.547944
-0.0841198
-0.0160972
0.544175
1.04446
0.809467
-1.1121
-0.00355727
0.670635
-0.366759
0.546996
-0.0248651
0.753811
0.554522
0.557552
0.548137
0.613102
0.788066
0.925226
0.0194915
0.00375761
0.00118121
-0.0110424
-0.0383759
-0.0284168
1.06746
1.11853
1.14121
0.516107
0.343903
-0.353863
-0.420813
-0.413543
-0.532032
0.712515
0.711927
-0.174703
0.721622
0.72807
0.535096
0.547307
0.548215
0.549281
0.548239
0.549631
0.425561
-0.0870937
-0.119204
-0.0636432
-0.0558616
0.0765613
-0.0183831
-0.0193656
-0.0149686
-0.0173115
0.466431
0.539671
0.536772
0.549418
0.558523
1.15633
1.12826
1.15439
1.06804
1.08454
1.02247
0.995021
0.830969
0.852635
0.793698
0.781525
-1.54905
-2.50991
-0.517171
-0.263923
-0.0118005
0.00299889
0.015733
0.663546
0.662697
0.672517
0.682125
1.09607
-0.365175
-0.473574
0.547128
0.545928
0.554302
0.554997
0.551012
0.550105
-0.0242495
-0.0231714
-0.0223825
-0.0251626
-0.0261626
0.742846
0.740488
0.548675
0.54569
0.565217
0.586207
0.5779
0.294711
0.616513
0.629813
0.613466
0.778319
0.77287
0.781624
0.898842
0.861579
0.962431
0.985782
0.0154693
0.00223149
-0.0089386
-0.0152862
-0.0137065
0.512015
0.504686
0.531245
0.519482
0.521935
0.259679
0.124762
0.429534
0.454628
-0.268218
-0.328321
-0.418014
-0.442125
-0.556102
0.615296
0.702969
0.700907
-0.191672
-0.117643
-0.246949
-0.0443489
-0.105003
0.52546
0.532397
0.527438
0.542881
0.537373
0.539325
0.551563
0.548641
0.550197
0.488055
0.611648
0.351825
0.317415
-0.225961
-0.137531
-0.228626
-0.0424791
-0.0365812
0.0912068
0.117216
0.063412
0.0524484
-0.030638
-0.0219656
-0.0262647
-0.0167711
-0.0197296
0.459337
0.448443
0.478878
0.486245
0.529494
0.530698
0.534136
0.532555
0.9459
0.968295
0.97572
0.949496
-3.50959
-6.31017
0.0645526
0.202839
-0.00465906
-0.0091189
0.00231418
-0.00384732
0.00164914
-0.000905247
0.0132376
0.0116041
0.0175762
0.0206155
0.652895
0.652891
1.01558
1.01745
0.995621
0.946408
0.535248
0.537355
0.542889
0.538752
-0.0202035
-0.0227258
-0.0232176
0.729581
0.736651
0.734655
0.257251
0.169751
0.344466
0.372727
0.644752
0.633174
0.642986
0.674894
0.710085
0.993219
1.01137
1.00969
1.01798
1.06203
1.07846
1.04374
0.491904
0.501643
0.496731
0.53442
0.532141
0.533067
0.528639
0.530094
0.527927
-0.0270376
-0.41031
0.503869
0.522306
0.503646
0.509227
0.694899
0.7723
0.683821
0.693299
0.691159
0.0223506
-0.0352382
0.273589
0.239912
0.400259
0.435949
0.415287
0.917055
0.877444
0.927466
0.901009
0.862322
0.888517
-0.361896
-1.87298
-0.985766
0.555935
0.368542
0.456516
0.0342628
0.0165788
0.0228782
1.01031
1.08696
0.667443
0.83696
0.843496
0.748263
0.779263
0.834605
0.75837
0.794335
0.830744
0.812503
0.572213
0.516141
0.527218
0.842326
0.899045
0.141947
0.0842932
0.0400064
0.136459
0.193001
0.167589
1.04889
0.954962
1.02698
0.545442
0.546144
0.0056683
-0.000422711
0.550325
0.550372
-0.0086423
0.000807532
0.439425
-0.821477
0.126016
0.538823
0.528975
0.545954
-0.0664043
0.379978
-0.0172267
0.0732281
0.0156237
0.542041
0.47713
0.437265
0.0112696
-0.0126179
-0.0207102
-0.195656
0.543114
0.541422
0.545425
0.546393
0.547058
-0.00631835
-0.00159042
-0.00320564
-0.022072
-0.0198055
-0.0242405
0.510334
0.52831
-0.151217
0.545567
0.547692
0.547516
0.540718
0.546372
0.544605
-0.00231743
-0.00879174
-0.0121577
0.24073
0.366518
0.683914
0.775386
0.653212
0.426414
0.188504
0.584562
0.649432
0.553069
0.70934
0.697998
0.715208
0.191513
0.0417902
0.199488
0.141031
0.536685
0.535376
0.527235
0.524267
0.540823
0.538936
0.543486
0.540484
0.543429
0.544824
-0.024761
-0.049176
-0.0625261
-0.129114
0.336269
0.596486
0.276522
0.30683
0.167156
-0.0114352
-0.0116143
-0.0157449
-0.0216069
0.0272584
0.00058646
0.0677211
0.0685487
0.0370559
0.0112826
0.0188516
0.00599281
0.0103324
0.535283
0.533647
0.539987
0.548791
0.486527
0.490281
0.455876
0.476234
0.461684
0.402201
0.43649
0.412009
0.00398866
0.0155074
0.00651823
-0.00643586
-0.00104222
-0.0157894
-0.0122508
-0.0140058
-0.00595947
-0.0119652
-0.0174253
-0.0240962
-0.155269
-0.269271
1.00162
0.933359
0.142859
0.532304
0.538727
0.535508
0.540334
0.543459
0.544299
0.542039
0.538605
0.528793
0.530463
0.527035
0.527741
-0.0869522
-0.223802
-0.0524818
-0.12323
0.153682
0.63561
0.378303
0.316785
0.311102
0.535956
0.944146
0.735216
0.718583
0.73764
-0.327044
0.0684764
-0.260767
0.359123
0.181238
0.682725
0.732351
0.753939
0.701567
0.653857
-0.0967852
0.567068
-0.047663
0.00137271
0.199233
0.0833272
0.719127
0.681392
0.685452
0.704439
0.722675
0.687664
0.670426
0.6651
0.699912
0.703569
0.511132
0.271864
0.224767
0.186429
0.663944
0.548841
0.604277
0.515993
0.531738
0.534453
0.533053
0.515071
0.522541
0.518154
0.5243
0.527638
0.536537
0.536925
0.532297
0.534456
-0.0296104
-0.0325514
-0.00778446
-0.117519
-0.108132
-0.167809
-0.0447214
0.0951334
0.05837
0.251945
0.358077
0.070635
-0.0436475
-0.014566
0.0212515
0.196663
0.222048
0.0997507
0.187084
0.176202
0.159826
0.261306
0.266462
-0.000392265
-0.0041542
-0.00458661
-0.00707974
0.0439298
0.115995
0.125675
0.0185805
0.013941
-0.0122649
-0.0142108
0.00326632
-0.000730118
0.00210907
0.0382971
-0.0379114
-0.00586469
0.00925595
0.0205622
0.0156397
0.0108103
0.527825
0.530024
0.529678
0.537339
0.555114
0.571097
0.528413
0.508345
0.4993
0.502282
0.475845
0.485994
0.481898
0.495316
0.515757
0.524867
0.522471
0.525136
0.507961
0.509585
0.496585
0.5002
0.475728
0.456902
0.445401
-0.0281579
0.00945129
0.00197814
-0.0253791
0.00511125
-0.00786043
0.00732871
0.0239824
0.0101247
0.00582347
-0.00383103
-0.0111197
-0.00759613
-0.0598076
0.02349
-0.168636
-0.203375
-0.272374
0.905254
1.02619
0.827892
0.603035
0.617484
0.858256
0.945024
0.565354
0.751596
0.77549
0.589905
0.857588
0.537105
0.536719
0.534319
0.533797
0.535019
0.00304081
0.105214
0.111997
0.168906
0.285119
0.398466
0.320801
0.197004
0.329723
0.333591
0.629289
0.642883
0.597196
0.620062
0.62069
0.441777
0.518136
0.571505
0.527271
0.576901
0.598003
0.555685
0.586919
0.536636
0.492212
0.488798
0.43786
0.459285
0.436111
0.417879
0.526948
0.504654
0.515003
0.505232
0.52475
0.54878
0.545588
0.577702
0.588784
0.509306
0.466186
0.476107
0.505694
0.466394
0.480917
0.496733
0.23625
0.135959
0.221148
-0.0679108
0.010198
-0.00454433
-0.0517577
-0.00490891
0.280512
-0.414983
-0.389589
-1.0212
0.507761
0.974241
0.670917
0.64409
0.719577
0.699827
0.704622
0.725468
0.730264
0.654447
0.671595
0.675055
0.636799
0.660064
0.682316
0.679388
0.537306
0.405639
0.400204
0.354087
0.225707
0.262025
0.464246
0.385994
0.31097
0.312692
0.476499
0.363225
0.431658
0.469548
0.400922
0.355043
0.560213
0.624952
0.614858
0.589591
0.507791
0.522364
0.546585
0.582336
0.608834
0.640576
0.523972
0.529778
0.531031
0.528565
0.525767
0.528737
0.528881
0.531414
0.532186
0.535124
0.534137
-0.0168875
-0.00507328
-0.0190525
-0.0256861
0.00392206
-0.000477761
0.043946
0.0298244
0.0145915
0.0210507
-0.00537905
-0.00978459
-0.00451919
0.00480939
0.121095
0.134282
0.118364
0.0787911
0.265749
0.396537
0.46711
0.345403
0.238564
0.262566
0.285043
0.0124506
0.0390013
0.026124
0.0659536
0.057987
-0.00858807
-0.0128428
-0.0107948
-0.00441928
0.00638274
-0.0130641
-0.0195537
-0.00923444
-0.0142279
-0.0164334
-0.0209204
0.510548
0.504091
0.50559
0.499623
0.498377
0.512392
0.51663
0.518513
0.523861
0.525959
0.51637
0.5219
0.525555
0.00587133
-0.0172222
-0.021989
-0.00562426
-0.0108872
-0.0102084
-0.00863596
0.131594
0.0613491
0.0657888
0.0204562
-0.107703
-0.0503772
0.495902
0.494279
0.489583
0.726096
0.576429
0.495467
0.591424
0.696808
0.282074
0.480802
0.313784
0.897407
0.790573
0.937137
0.551604
0.250042
0.408225
0.458068
0.265416
0.338156
0.340032
0.227022
0.259236
0.292794
0.394528
0.271858
0.246888
0.00413678
0.192117
0.308656
0.289539
0.418084
0.480468
0.268384
0.189215
0.144107
0.620138
0.637899
0.654365
0.627466
0.650135
0.587091
0.57536
0.593456
0.603161
0.598979
-0.748551
-0.455642
-1.40029
-0.71585
-0.264256
0.538846
0.502997
0.779433
0.662589
0.721885
0.706244
0.663062
0.629817
0.645862
0.675593
0.368625
0.480765
0.455266
0.460281
0.360796
0.292485
0.594694
0.588685
0.624164
0.647757
0.615862
0.647771
0.521717
0.521382
0.520965
0.517304
0.515609
0.51787
0.0824395
0.0512396
0.0862181
0.0671662
0.0445632
0.0330304
0.0152321
0.0062749
-0.00289188
-0.00394937
0.00794906
0.0136589
0.173951
0.114597
0.037473
0.066308
0.00712843
-0.0593199
-0.0775564
0.0235175
0.11676
0.107203
0.413669
0.665686
0.486187
0.654939
0.494288
0.550197
0.479973
0.472869
0.499632
0.386965
0.466281
0.242341
-0.264309
-0.172198
0.795776
0.812037
0.594968
0.41223
0.181538
0.367221
0.560923
0.49471
0.532963
0.602524
0.592981
0.0240754
0.0879689
0.356555
0.583896
0.242461
0.234548
0.228711
0.405952
0.327931
)
;

boundaryField
{
    wall-4
    {
        type            zeroGradient;
    }
    velocity-inlet-5
    {
        type            zeroGradient;
    }
    velocity-inlet-6
    {
        type            zeroGradient;
    }
    pressure-outlet-7
    {
        type            fixedValue;
        value           uniform 0;
    }
    wall-8
    {
        type            zeroGradient;
    }
    frontAndBackPlanes
    {
        type            empty;
    }
}


// ************************************************************************* //
