/*--------------------------------*- C++ -*----------------------------------*\
| =========                 |                                                 |
| \\      /  F ield         | OpenFOAM: The Open Source CFD Toolbox           |
|  \\    /   O peration     | Version:  4.0                                   |
|   \\  /    A nd           | Web:      www.OpenFOAM.org                      |
|    \\/     M anipulation  |                                                 |
\*---------------------------------------------------------------------------*/
FoamFile
{
    version     2.0;
    format      ascii;
    class       volScalarField;
    location    "29";
    object      p;
}
// * * * * * * * * * * * * * * * * * * * * * * * * * * * * * * * * * * * * * //

dimensions      [0 2 -2 0 0 0 0];

internalField   nonuniform List<scalar> 
8800
(
1.53581
1.48802
1.44932
1.42032
1.39945
1.3846
1.37397
1.36645
1.36158
1.35944
1.3606
1.36469
1.37126
1.38051
1.39324
1.41095
1.4357
1.46963
1.51216
1.57086
1.36707
1.37475
1.38221
1.38552
1.384
1.37891
1.37241
1.3663
1.36153
1.35861
1.35823
1.36062
1.36502
1.37089
1.3776
1.38384
1.38745
1.3867
1.38125
1.37255
1.34549
1.35165
1.35578
1.35871
1.36075
1.36134
1.3602
1.35806
1.35598
1.35497
1.35582
1.35809
1.36079
1.3629
1.36345
1.3622
1.35983
1.35641
1.35184
1.34807
1.33972
1.34237
1.34512
1.34752
1.34915
1.35029
1.351
1.35107
1.3507
1.35054
1.35116
1.35221
1.35294
1.35291
1.35223
1.35108
1.34922
1.34662
1.34419
1.34269
1.3344
1.33582
1.3376
1.33963
1.34141
1.34274
1.3437
1.34444
1.34498
1.34542
1.34592
1.34626
1.34623
1.34583
1.34504
1.34371
1.34195
1.34005
1.33872
1.33789
1.3294
1.33032
1.33157
1.33314
1.33477
1.33629
1.33754
1.33856
1.33943
1.34018
1.34068
1.34083
1.34062
1.34004
1.33903
1.33773
1.33631
1.33498
1.33413
1.33358
1.32459
1.32526
1.32624
1.32756
1.32898
1.33044
1.33186
1.33314
1.33424
1.33518
1.33578
1.33591
1.33561
1.33491
1.33393
1.33284
1.3317
1.33068
1.33006
1.32966
1.31995
1.32047
1.32127
1.32243
1.32373
1.32512
1.32655
1.32798
1.32931
1.33044
1.33118
1.33136
1.33106
1.33042
1.32959
1.32867
1.32773
1.32693
1.32646
1.32615
1.31542
1.31582
1.31651
1.31756
1.3188
1.32015
1.32158
1.32308
1.32458
1.32596
1.32687
1.32715
1.32697
1.32649
1.32584
1.32507
1.32428
1.32364
1.32327
1.32303
1.31093
1.31125
1.31185
1.31284
1.31405
1.31538
1.31684
1.3184
1.32004
1.32163
1.32279
1.32332
1.32336
1.32307
1.32257
1.32196
1.32131
1.32079
1.3205
1.32031
1.30644
1.30669
1.30723
1.30819
1.3094
1.31077
1.3123
1.31399
1.31581
1.31767
1.31915
1.31996
1.32024
1.32014
1.3198
1.31933
1.31879
1.31838
1.31816
1.31801
1.3019
1.3021
1.3026
1.30356
1.30481
1.30625
1.30789
1.30975
1.31183
1.31402
1.3159
1.31707
1.31762
1.31774
1.31758
1.31724
1.31682
1.31649
1.31633
1.3162
1.29728
1.29743
1.2979
1.29887
1.30016
1.30167
1.30341
1.30546
1.30784
1.31049
1.31283
1.31442
1.31533
1.31577
1.31586
1.31571
1.31541
1.31518
1.31507
1.31497
1.29253
1.29264
1.29309
1.29407
1.29543
1.29706
1.299
1.30132
1.30405
1.3072
1.31017
1.31233
1.31369
1.31445
1.31478
1.31484
1.31469
1.31456
1.3145
1.31443
1.28766
1.28772
1.28814
1.28913
1.29056
1.29232
1.29447
1.29713
1.30039
1.30424
1.30794
1.31072
1.3126
1.31379
1.31448
1.31478
1.31484
1.31484
1.31484
1.31478
1.28245
1.2825
1.28289
1.28385
1.28532
1.2872
1.2896
1.29264
1.29647
1.30113
1.30578
1.3094
1.31196
1.31371
1.31485
1.31553
1.31591
1.31609
1.31614
1.31609
1.27651
1.27655
1.27695
1.27794
1.27952
1.28164
1.28443
1.28808
1.29274
1.29847
1.30422
1.30878
1.31209
1.31444
1.3161
1.31719
1.31786
1.31821
1.3183
1.31824
1.26949
1.26952
1.26997
1.27103
1.27282
1.27528
1.27857
1.28293
1.28859
1.29562
1.30279
1.30856
1.31281
1.31588
1.3181
1.31965
1.32065
1.32116
1.32129
1.32122
1.26103
1.26106
1.26159
1.26284
1.26496
1.26792
1.27194
1.2773
1.28428
1.29297
1.30184
1.30899
1.31431
1.3182
1.32104
1.32305
1.32438
1.32504
1.3252
1.32512
1.2507
1.25074
1.25139
1.25294
1.25555
1.25922
1.26421
1.27088
1.27955
1.29032
1.30125
1.31007
1.31664
1.32147
1.32503
1.32755
1.32922
1.33001
1.33021
1.33012
1.23797
1.23803
1.23886
1.24083
1.24413
1.24878
1.2551
1.26352
1.27437
1.28772
1.30116
1.31193
1.31996
1.32586
1.33023
1.33336
1.33539
1.33634
1.33657
1.33646
1.22209
1.22216
1.22324
1.22583
1.23013
1.23616
1.24431
1.25507
1.26872
1.28525
1.30166
1.31472
1.3244
1.33154
1.3369
1.3407
1.34312
1.34423
1.34451
1.34438
1.202
1.20207
1.20352
1.20703
1.21282
1.22084
1.23155
1.24541
1.26263
1.283
1.3029
1.31858
1.33021
1.33882
1.34523
1.34979
1.35265
1.35396
1.35428
1.35412
1.17607
1.17618
1.17825
1.1832
1.19127
1.20225
1.21657
1.23455
1.25622
1.28118
1.30506
1.32371
1.33752
1.34777
1.35539
1.3608
1.36416
1.3657
1.36605
1.36586
1.14146
1.14172
1.14506
1.15263
1.1644
1.17987
1.19926
1.22264
1.24976
1.28003
1.30836
1.33025
1.34643
1.3585
1.36747
1.37385
1.37779
1.37957
1.37993
1.37969
1.09255
1.09371
1.10039
1.11328
1.13141
1.15365
1.17997
1.21012
1.24368
1.27989
1.31301
1.3383
1.35698
1.37094
1.38139
1.38888
1.39351
1.39552
1.39585
1.39556
1.02031
1.02799
1.04343
1.06619
1.09374
1.1249
1.15964
1.19762
1.23835
1.28113
1.31952
1.34863
1.37015
1.38636
1.39866
1.40765
1.4133
1.41581
1.41629
1.41608
0.942883
0.96056
0.985498
1.01856
1.05578
1.09604
1.13929
1.18533
1.23375
1.28393
1.32875
1.36282
1.38816
1.40741
1.42227
1.43349
1.44056
1.44368
1.44454
1.44452
0.87921
0.899821
0.932571
0.974117
1.01985
1.06859
1.12002
1.17389
1.22979
1.28711
1.33795
1.3765
1.40522
1.42712
1.44401
1.45668
1.46501
1.46896
1.46961
1.46969
0.827319
0.849733
0.887657
0.935226
0.987646
1.04343
1.10204
1.16304
1.22588
1.28986
1.34624
1.38874
1.42026
1.4442
1.46267
1.47652
1.486
1.49012
1.49091
1.49107
0.784242
0.807721
0.849149
0.901526
0.959293
1.02087
1.08557
1.15283
1.22193
1.29197
1.35332
1.39925
1.43309
1.45867
1.47833
1.49307
1.50303
1.50761
1.50871
1.50891
0.747401
0.771499
0.81568
0.871763
0.933984
1.00046
1.07044
1.14322
1.21792
1.29344
1.35925
1.40818
1.44395
1.47081
1.4913
1.50663
1.51694
1.52192
1.52323
1.52343
0.714875
0.739393
0.785659
0.844865
0.910863
0.981595
1.05621
1.13392
1.21371
1.29426
1.36417
1.41578
1.45321
1.48104
1.50209
1.51777
1.52816
1.53336
1.53478
1.53495
0.685248
0.710141
0.758144
0.820025
0.889259
0.963711
1.04248
1.12466
1.20913
1.29439
1.36819
1.42233
1.46125
1.48991
1.51134
1.5272
1.53764
1.54291
1.54442
1.54455
0.657655
0.682888
0.73243
0.796582
0.868682
0.946433
1.02891
1.11517
1.20402
1.29377
1.37135
1.428
1.4684
1.49786
1.5197
1.53565
1.54615
1.55142
1.55302
1.55313
0.631381
0.657011
0.707947
0.774107
0.848758
0.929453
1.01528
1.1053
1.19823
1.29231
1.37368
1.4329
1.47489
1.50526
1.52755
1.54369
1.55421
1.5594
1.561
1.56116
0.606148
0.632199
0.684227
0.752321
0.829248
0.912585
1.00145
1.0949
1.19168
1.28996
1.37515
1.43714
1.48089
1.51231
1.53518
1.55158
1.56217
1.5673
1.56879
1.56889
0.581599
0.608195
0.66124
0.731037
0.809997
0.895706
0.987318
1.08392
1.1843
1.28666
1.37579
1.44076
1.4865
1.51916
1.54275
1.55952
1.57019
1.57525
1.57659
1.57661
0.557658
0.584673
0.638822
0.710139
0.790919
0.878755
0.972846
1.07233
1.17606
1.28238
1.37552
1.4437
1.49171
1.52585
1.55032
1.56752
1.57829
1.58323
1.58444
1.58435
0.534243
0.56179
0.616869
0.689576
0.771994
0.86173
0.958037
1.06013
1.16696
1.27707
1.37424
1.4459
1.49652
1.53239
1.55789
1.5756
1.58641
1.59117
1.5922
1.59202
0.511262
0.539395
0.595379
0.669347
0.753223
0.844653
0.942929
1.04735
1.157
1.27066
1.37186
1.44724
1.50083
1.53878
1.5655
1.58372
1.59451
1.59897
1.5998
1.59955
0.488723
0.517492
0.574368
0.649481
0.734657
0.827568
0.92758
1.03405
1.14622
1.26316
1.36831
1.44758
1.50451
1.54497
1.57318
1.59192
1.6025
1.60654
1.60712
1.60682
0.466797
0.496157
0.553876
0.630016
0.716344
0.810556
0.912062
1.02031
1.1347
1.2546
1.3635
1.44675
1.50739
1.55089
1.58105
1.60034
1.61039
1.61374
1.61402
1.61368
0.445516
0.475439
0.533938
0.611012
0.698349
0.793682
0.896474
1.00624
1.12252
1.24503
1.35738
1.44459
1.50921
1.55637
1.58922
1.60939
1.61848
1.62052
1.62034
1.62001
0.424821
0.455377
0.514596
0.59251
0.680741
0.777033
0.880909
0.991926
1.1098
1.23451
1.34995
1.44096
1.50968
1.56103
1.59764
1.6197
1.62773
1.62739
1.62604
1.62587
0.404884
0.435995
0.495906
0.57458
0.663581
0.760695
0.865466
0.9775
1.09665
1.22317
1.34121
1.43574
1.50849
1.5643
1.60578
1.63169
1.64018
1.63696
1.63258
1.63147
0.385619
0.417302
0.477851
0.557195
0.646838
0.744619
0.850085
0.962894
1.08301
1.21094
1.33105
1.42867
1.50531
1.56537
1.61241
1.6446
1.65738
1.65521
1.64463
1.6271
0.367097
0.399304
0.460308
0.540166
0.630221
0.728473
0.834348
0.94762
1.06832
1.19715
1.31878
1.41889
1.49944
1.56302
1.61478
1.65426
1.67232
1.66389
1.64825
1.62934
0.349487
0.381862
0.44346
0.523736
0.614025
0.712604
0.818483
0.932011
1.05291
1.1821
1.30456
1.40608
1.49041
1.55637
1.6077
1.64769
1.66811
1.65123
1.58014
1.54598
0.333431
0.363829
0.427642
0.508495
0.598962
0.697495
0.802786
0.916293
1.037
1.16594
1.2884
1.39012
1.47718
1.54567
1.5874
1.61837
1.62258
1.57325
1.50079
1.45544
0.277714
0.348105
0.413152
0.493235
0.583599
0.681758
0.787194
0.9002
1.02026
1.14827
1.26981
1.37064
1.45663
1.5323
1.53523
1.55123
1.51759
1.45313
1.37519
1.33121
0.316623
0.332501
0.392094
0.471581
0.561313
0.659149
0.763536
0.875615
0.99426
1.12015
1.23866
1.33653
1.41385
1.48872
1.48678
1.38104
1.27628
1.20403
1.12955
1.16563
0.285804
0.314913
0.375268
0.454336
0.543975
0.641459
0.745973
0.857268
0.974621
1.09835
1.21354
1.3071
1.37683
1.41614
1.37105
1.22525
1.09451
1.00178
0.900006
0.955954
0.262098
0.294213
0.355704
0.435095
0.524756
0.622078
0.726393
0.836711
0.952461
1.0735
1.18465
1.27249
1.33249
1.34094
1.23611
1.05658
0.896527
0.772523
0.636172
0.674924
0.239007
0.272656
0.335291
0.415504
0.505324
0.602496
0.706228
0.815454
0.929426
1.04746
1.15382
1.23529
1.28058
1.25575
1.0959
0.889274
0.686034
0.502688
0.301452
0.295276
0.216694
0.250656
0.314143
0.395072
0.485086
0.582055
0.685099
0.793136
0.905107
1.0198
1.12083
1.19516
1.2234
1.16371
0.962115
0.738694
0.504482
0.294218
0.0301968
-0.299315
0.194164
0.22805
0.292009
0.373414
0.463633
0.560452
0.662886
0.76972
0.879613
0.990786
1.08632
1.1525
1.16339
1.05269
0.84585
0.622057
0.399491
0.209477
0.136699
0.0337354
0.170587
0.204408
0.268581
0.350208
0.440506
0.537091
0.638832
0.744305
0.851826
0.95901
1.0486
1.10512
1.09125
0.941745
0.74319
0.538739
0.362331
0.259722
0.235584
0.21645
0.145637
0.179417
0.243709
0.325393
0.415605
0.511804
0.612631
0.716464
0.821215
0.923799
1.00697
1.05153
1.01556
0.839325
0.650142
0.471618
0.3344
0.28984
0.274622
0.272423
0.119111
0.152955
0.21735
0.299012
0.389013
0.484627
0.584317
0.686202
0.787766
0.885181
0.961201
0.992258
0.93791
0.742909
0.564011
0.403331
0.310282
0.29661
0.294259
0.294119
0.0910121
0.125
0.189508
0.271108
0.360762
0.455623
0.553947
0.653575
0.75155
0.843289
0.911246
0.930004
0.842675
0.653609
0.483848
0.350135
0.309257
0.304068
0.303649
0.304337
0.0616526
0.0958236
0.160337
0.241809
0.330992
0.424912
0.52163
0.618701
0.712683
0.798295
0.857686
0.861748
0.742426
0.567359
0.417608
0.323088
0.314497
0.311583
0.310024
0.310234
0.0316054
0.0658271
0.130106
0.211379
0.299945
0.392728
0.487608
0.58183
0.671471
0.750526
0.801642
0.786238
0.649764
0.48488
0.358139
0.336096
0.315314
0.312048
0.312599
0.312867
0.00133321
0.0354118
0.0994195
0.180229
0.268027
0.359478
0.452275
0.543376
0.628415
0.700658
0.743365
0.71133
0.558526
0.402637
0.301481
0.282755
0.296401
0.306424
0.310834
0.312167
-0.0283547
0.00540398
0.068979
0.149031
0.235828
0.325731
0.416216
0.503976
0.584231
0.649621
0.682795
0.636439
0.468408
0.317786
0.231147
0.258438
0.276095
0.29363
0.303729
0.30691
-0.05596
-0.0230466
0.0395876
0.118668
0.204194
0.292284
0.380252
0.464526
0.539879
0.598615
0.623782
0.567294
0.385343
0.227367
0.144247
0.189498
0.219253
0.239205
0.252491
0.259092
-0.0802156
-0.0483388
0.0123495
0.0902513
0.174136
0.260177
0.345442
0.426178
0.496759
0.548932
0.57118
0.50295
0.332207
0.157592
0.147037
0.126678
0.138415
0.137993
0.145507
0.152438
-0.0992715
-0.0692345
-0.0107176
0.0650678
0.14693
0.230653
0.313095
0.390338
0.456598
0.502473
0.524905
0.447172
0.317528
0.178683
-0.0592404
0.00833807
0.0157896
0.00642639
0.0105003
0.012578
-0.11138
-0.0839007
-0.0283784
0.0447887
0.124103
0.205165
0.284752
0.358709
0.421113
0.462058
0.481865
0.391429
0.304027
0.332268
0.31059
0.0884039
-0.125587
-0.147705
-0.135593
-0.131484
-0.114408
-0.0906141
-0.0389677
0.0309052
0.10722
0.185306
0.262053
0.333203
0.392314
0.429556
0.436603
0.322296
0.228296
0.470676
0.593285
0.213316
-0.10436
-0.150153
-0.168007
-0.175924
-0.107122
-0.0875202
-0.0408216
0.0247171
0.0975707
0.172569
0.246763
0.315991
0.373226
0.406938
0.396264
0.21573
-0.18219
-0.703999
-1.10966
-1.5033
-1.34433
-0.884256
-0.576541
-0.547142
-0.0878638
-0.0723173
-0.0327496
0.0271123
0.0959865
0.168027
0.24029
0.30902
0.367662
0.402273
0.387734
0.131069
-0.61519
-1.75207
-2.47213
-2.78277
-2.5875
-2.15593
-1.71339
-1.47352
-0.0579546
-0.0471574
-0.0150565
0.0378908
0.102503
0.171862
0.243404
0.31374
0.377214
0.424499
0.421654
0.239989
-0.238536
-0.774357
-1.22599
-1.32737
-1.13549
-0.809302
-0.532223
-0.36916
-0.0212561
-0.0147654
0.00914829
0.0550419
0.115552
0.183092
0.255189
0.329735
0.403009
0.472355
0.517341
0.566825
0.627539
0.854413
1.18034
1.55572
1.87512
2.09494
2.2237
2.27429
0.0169625
0.0205583
0.0357603
0.0749178
0.132202
0.199015
0.272968
0.35328
0.44026
0.532296
0.645952
0.779693
1.11457
1.70309
2.35387
2.93341
3.34932
3.58034
3.67517
3.70201
0.0513285
0.0533746
0.0621498
0.0937579
0.147903
0.215602
0.292336
0.377964
0.474065
0.584193
0.703398
0.834205
1.07455
1.63007
2.224
2.74421
3.11466
3.32748
3.42276
3.44976
0.0858341
0.0867777
0.089799
0.111313
0.161184
0.230134
0.308842
0.396575
0.492065
0.602232
0.715875
0.83453
0.98648
1.37091
1.84419
2.22656
2.5086
2.67808
2.75931
2.78487
0.110867
0.111995
0.112546
0.127066
0.174381
0.244317
0.324291
0.410251
0.502789
0.606926
0.711299
0.813383
0.910013
1.14332
1.47628
1.75624
1.96785
2.09425
2.15146
2.16628
0.125606
0.124127
0.12245
0.137112
0.189381
0.26363
0.343591
0.425384
0.511487
0.605602
0.697774
0.780846
0.86161
0.998387
1.21355
1.40483
1.54715
1.63219
1.6718
1.67993
0.165728
0.161527
0.158708
0.174809
0.227186
0.298432
0.372493
0.445698
0.521119
0.601592
0.680188
0.749042
0.816678
0.901284
1.04001
1.1626
1.25119
1.30408
1.32565
1.32885
0.266578
0.262674
0.260416
0.272939
0.309746
0.36074
0.416131
0.473183
0.533387
0.598655
0.661179
0.713464
0.76348
0.817524
0.905685
0.985721
1.04264
1.07492
1.08869
1.08959
0.399013
0.397172
0.395347
0.399438
0.414016
0.437285
0.467977
0.504769
0.547633
0.596214
0.641864
0.677128
0.709406
0.741209
0.797073
0.852102
0.891653
0.914908
0.923983
0.923656
0.503847
0.503349
0.501766
0.49896
0.498038
0.502686
0.514694
0.534596
0.562417
0.595512
0.624459
0.642722
0.657655
0.676031
0.714158
0.755395
0.78635
0.803964
0.81115
0.810387
0.563605
0.56338
0.561535
0.556759
0.550465
0.546889
0.549343
0.559033
0.575825
0.596863
0.612199
0.612803
0.604767
0.616401
0.655886
0.692939
0.718071
0.731336
0.736155
0.735087
0.589179
0.588843
0.587105
0.582936
0.577123
0.572452
0.571641
0.576566
0.58761
0.602273
0.609649
0.598489
0.573082
0.585087
0.62583
0.65966
0.679911
0.689304
0.692448
0.691876
0.596167
0.59582
0.594493
0.591518
0.587682
0.584569
0.584114
0.588329
0.59794
0.611843
0.619972
0.610289
0.588754
0.607151
0.642383
0.666302
0.679135
0.684587
0.686619
0.68603
0.593544
0.593378
0.592678
0.590873
0.588731
0.587567
0.588886
0.594673
0.606922
0.624437
0.641744
0.648141
0.649505
0.671498
0.693123
0.705139
0.710674
0.713169
0.713765
0.713002
0.583508
0.583647
0.583697
0.583142
0.582552
0.583267
0.586717
0.595789
0.612342
0.637267
0.667428
0.69501
0.722918
0.744627
0.752809
0.755795
0.75812
0.760937
0.76265
0.76197
0.564695
0.565138
0.565871
0.566557
0.567745
0.57083
0.57756
0.59024
0.612501
0.645783
0.68793
0.731415
0.779215
0.801792
0.801126
0.804091
0.811795
0.819781
0.822489
0.820017
0.535065
0.535833
0.537219
0.539014
0.542016
0.547715
0.557903
0.575175
0.603781
0.645648
0.695732
0.744254
0.79438
0.814673
0.818878
0.827972
0.837619
0.847644
0.849873
0.84828
0.493129
0.494244
0.496069
0.49886
0.503459
0.511469
0.524975
0.547057
0.582251
0.632622
0.689157
0.735079
0.776217
0.794007
0.809202
0.83017
0.851419
0.858944
0.860375
0.859038
0.436552
0.437833
0.440129
0.443675
0.44937
0.458776
0.474182
0.499476
0.539424
0.598276
0.664788
0.713857
0.735855
0.74746
0.78595
0.825896
0.85215
0.864278
0.864126
0.863652
0.362534
0.364042
0.366532
0.370295
0.37602
0.384815
0.398679
0.421856
0.460074
0.524071
0.610698
0.681675
0.69863
0.717415
0.775652
0.834819
0.871002
0.882773
0.882871
0.883544
0.27009
0.271534
0.273638
0.276564
0.280267
0.284651
0.290285
0.300064
0.321078
0.379647
0.500817
0.617286
0.660789
0.699855
0.789745
0.866575
0.923838
0.93868
0.936263
0.937341
0.162122
0.163024
0.163852
0.164278
0.162757
0.15694
0.143968
0.121816
0.0978933
0.131973
0.30838
0.499964
0.588921
0.667975
0.799902
0.914996
0.984628
1.00149
0.998175
0.995733
0.0481781
0.047971
0.0465475
0.0425919
0.0322635
0.00966782
-0.0345987
-0.113125
-0.217042
-0.225303
0.0207975
0.319522
0.477487
0.620311
0.779153
0.915654
0.985421
0.987192
0.98313
0.979835
-0.0548393
-0.0565249
-0.0607416
-0.0701803
-0.0913322
-0.134573
-0.218811
-0.371188
-0.578993
-0.633534
-0.303087
0.092088
0.333665
0.538536
0.731609
0.846351
0.886069
0.894557
0.895665
0.894246
-0.126047
-0.129256
-0.135932
-0.149817
-0.179963
-0.240576
-0.358964
-0.573816
-0.859502
-0.95167
-0.570201
-0.0992677
0.194291
0.475414
0.697776
0.789648
0.795436
0.796475
0.796725
0.795426
-0.149806
-0.153124
-0.159996
-0.175261
-0.208529
-0.274524
-0.405314
-0.642727
-0.949525
-1.06666
-0.672349
-0.214549
0.0993353
0.423017
0.651709
0.705867
0.706393
0.698659
0.692174
0.687553
-0.123866
-0.126579
-0.131948
-0.14408
-0.17143
-0.227941
-0.341506
-0.54929
-0.803512
-0.901779
-0.571918
-0.225052
0.0116104
0.264203
0.511497
0.548615
0.540101
0.525097
0.51502
0.507796
-0.0676335
-0.0689894
-0.0713512
-0.0774329
-0.0924716
-0.12573
-0.196922
-0.331132
-0.482364
-0.512303
-0.325587
-0.152214
-0.0897944
-0.139979
0.0514059
0.1795
0.224665
0.232644
0.234617
0.232943
-0.00690179
-0.00700254
-0.00560046
-0.00388375
-0.00416275
-0.00734515
-0.0167699
-0.0437324
-0.0908852
-0.103737
-0.0942543
-0.0613454
-0.0415138
-0.162918
-0.27711
-0.119417
-0.0190322
0.0145228
0.0241714
0.0312765
0.548266
0.734201
0.950891
1.13539
1.28412
1.40292
1.50222
1.58604
1.62353
1.60072
0.886756
1.01929
1.16056
1.28284
1.38643
1.47272
1.54262
1.59223
1.61746
1.62923
1.12638
1.21663
1.31249
1.39754
1.47091
1.53236
1.58116
1.61677
1.64223
1.65987
1.29973
1.36285
1.42996
1.49145
1.54489
1.59021
1.62731
1.65675
1.68059
1.69868
1.43315
1.47929
1.52807
1.57466
1.61577
1.65156
1.68207
1.70731
1.72835
1.74607
1.54224
1.57689
1.61693
1.65429
1.68847
1.71898
1.74554
1.76777
1.78605
1.80334
1.63778
1.66754
1.70285
1.73609
1.767
1.79499
1.81937
1.83957
1.85538
1.87244
1.72827
1.75814
1.79297
1.8257
1.85591
1.88301
1.9063
1.9251
1.93868
1.95573
1.82479
1.85831
1.89549
1.92952
1.95995
1.98648
2.0087
2.02618
2.0382
2.05562
1.94062
1.97845
2.01746
2.05204
2.08163
2.10658
2.12712
2.14314
2.15471
2.1728
2.08611
2.12483
2.16096
2.19179
2.21761
2.23982
2.25897
2.27458
2.28708
2.30509
2.26113
2.29305
2.31933
2.34182
2.36187
2.38066
2.39843
2.41496
2.43035
2.44843
2.4499
2.4672
2.48237
2.49867
2.51462
2.52919
2.54243
2.55638
2.57395
2.59412
2.63192
2.64136
2.65293
2.66377
2.67307
2.68269
2.69352
2.70492
2.7163
2.73166
2.83905
2.84275
2.82782
2.81303
2.80679
2.81249
2.83099
2.86131
2.8935
2.92017
3.1454
3.01053
2.93392
2.89161
2.8742
2.87817
2.90559
2.962
3.06463
3.289
1.42641
1.42427
1.41979
1.41116
1.39892
1.38678
1.37653
1.36861
1.36294
1.3596
1.35914
1.36176
1.36677
1.37391
1.38324
1.39474
1.40736
1.41837
1.42447
1.42752
1.35087
1.35672
1.36305
1.36754
1.37
1.36966
1.3669
1.36306
1.3595
1.35715
1.35689
1.35896
1.36252
1.36672
1.37047
1.3723
1.37133
1.36782
1.36263
1.356
1.34248
1.34478
1.34818
1.35117
1.35324
1.35472
1.35545
1.3551
1.35401
1.35304
1.35309
1.35438
1.35608
1.35728
1.35739
1.35644
1.35484
1.35247
1.34918
1.34625
1.33701
1.3381
1.33993
1.34231
1.34432
1.34574
1.34674
1.34745
1.34778
1.3479
1.34825
1.3489
1.34936
1.34931
1.3488
1.34788
1.34635
1.34421
1.34209
1.34069
1.33187
1.33253
1.33364
1.33535
1.33713
1.33876
1.34003
1.341
1.34181
1.34248
1.34305
1.34341
1.34344
1.34313
1.34244
1.34128
1.33977
1.33815
1.33679
1.33599
1.32698
1.32744
1.32823
1.32954
1.33103
1.33255
1.334
1.33526
1.33632
1.33724
1.33796
1.3383
1.33824
1.33777
1.33691
1.33578
1.33454
1.33331
1.33234
1.33181
1.32226
1.3226
1.32322
1.32431
1.32562
1.32701
1.32844
1.32986
1.33116
1.33229
1.33316
1.33358
1.33348
1.33296
1.33214
1.33118
1.33017
1.32918
1.32843
1.32804
1.31768
1.31794
1.31844
1.31938
1.3206
1.32192
1.32331
1.32477
1.32623
1.32759
1.32865
1.32918
1.32914
1.3287
1.32804
1.32724
1.32638
1.32557
1.32498
1.32469
1.31318
1.31338
1.3138
1.31464
1.31578
1.31706
1.31845
1.31993
1.32149
1.32304
1.32434
1.32505
1.32518
1.32494
1.32444
1.3238
1.32309
1.32243
1.32197
1.32174
1.30869
1.30884
1.3092
1.30998
1.3111
1.31238
1.31379
1.31535
1.31703
1.31878
1.32035
1.32134
1.32172
1.32168
1.32135
1.32086
1.32029
1.31975
1.31938
1.31921
1.30418
1.30429
1.3046
1.30535
1.30647
1.30778
1.30927
1.31095
1.3128
1.31479
1.31668
1.31804
1.31872
1.31891
1.31877
1.31843
1.31798
1.31754
1.31726
1.31712
1.29961
1.29969
1.29997
1.3007
1.30184
1.30322
1.30479
1.30661
1.30872
1.31107
1.3134
1.31515
1.31615
1.31661
1.31671
1.31655
1.31623
1.31589
1.31569
1.31559
1.29493
1.29498
1.29523
1.29594
1.29711
1.29855
1.30023
1.30221
1.30455
1.30726
1.31011
1.31242
1.31391
1.31477
1.31515
1.31522
1.31508
1.31487
1.31474
1.31467
1.29011
1.29013
1.29035
1.29107
1.2923
1.29386
1.29571
1.29798
1.30073
1.30398
1.30749
1.31043
1.31241
1.31364
1.31436
1.31466
1.3147
1.31462
1.31457
1.31454
1.28512
1.28513
1.28532
1.286
1.28723
1.28885
1.29086
1.29339
1.29655
1.30043
1.30475
1.3085
1.31119
1.31302
1.31411
1.31481
1.31519
1.31533
1.31539
1.31538
1.27959
1.27957
1.27978
1.28045
1.2817
1.28344
1.2857
1.28864
1.29241
1.29711
1.30243
1.30718
1.31062
1.31305
1.31473
1.31585
1.31657
1.31696
1.31712
1.31713
1.27316
1.27313
1.27335
1.27406
1.27541
1.27735
1.27997
1.28344
1.28798
1.29373
1.30031
1.30623
1.31064
1.31384
1.31612
1.31772
1.31881
1.31944
1.3197
1.31971
1.26546
1.26542
1.26567
1.26648
1.26803
1.27029
1.27341
1.27761
1.28314
1.29018
1.29832
1.30571
1.31125
1.31532
1.31828
1.32042
1.3219
1.32279
1.32313
1.32314
1.25611
1.25606
1.25637
1.25737
1.25922
1.26199
1.26582
1.27101
1.27786
1.28659
1.29665
1.30576
1.31263
1.31771
1.32142
1.32413
1.32602
1.32714
1.32756
1.32758
1.24463
1.24457
1.24498
1.24624
1.24856
1.25201
1.25682
1.26332
1.27188
1.28274
1.29516
1.30636
1.3148
1.32104
1.32563
1.32899
1.33135
1.3327
1.3332
1.33323
1.23041
1.23033
1.23088
1.23252
1.23549
1.23992
1.24607
1.25436
1.26519
1.27874
1.29403
1.3077
1.31794
1.32553
1.33109
1.33523
1.33811
1.33973
1.34031
1.34035
1.2125
1.2124
1.21316
1.21535
1.21928
1.22513
1.23319
1.24391
1.25767
1.27458
1.29332
1.30987
1.32222
1.33134
1.33812
1.34311
1.34656
1.34845
1.34914
1.34918
1.18964
1.18953
1.19064
1.19366
1.19901
1.20696
1.21776
1.2318
1.24937
1.2704
1.2932
1.31306
1.32781
1.33872
1.34683
1.35277
1.35684
1.35908
1.35988
1.35992
1.15967
1.15958
1.16134
1.16576
1.17341
1.18462
1.19939
1.21798
1.24042
1.26642
1.2939
1.31745
1.33484
1.34774
1.35734
1.36438
1.36916
1.37178
1.3727
1.37272
1.1186
1.11869
1.1219
1.12924
1.14101
1.15744
1.17801
1.20266
1.23114
1.26296
1.29565
1.32321
1.34344
1.35847
1.3697
1.37795
1.38356
1.3866
1.3876
1.38759
1.05889
1.06018
1.068
1.08171
1.10099
1.12555
1.15416
1.18648
1.22212
1.26046
1.29874
1.33045
1.3536
1.3708
1.3837
1.39327
1.39984
1.40329
1.4043
1.40425
0.987616
0.9897
1.00452
1.02817
1.05803
1.09204
1.12944
1.16998
1.21336
1.25903
1.30397
1.34105
1.36823
1.38858
1.40397
1.41544
1.42343
1.42768
1.42881
1.42882
0.914355
0.921118
0.943023
0.976582
1.01615
1.05937
1.10548
1.15426
1.20545
1.25856
1.31037
1.35298
1.38427
1.40786
1.42595
1.43974
1.44929
1.45354
1.45504
1.45537
0.855462
0.864168
0.890756
0.931046
0.97816
1.02912
1.08298
1.1394
1.19799
1.25818
1.31642
1.36408
1.39897
1.42523
1.44536
1.46063
1.47122
1.47661
1.47892
1.47937
0.807576
0.816844
0.846888
0.892065
0.94492
1.00208
1.06245
1.12555
1.1908
1.2575
1.32164
1.37378
1.41173
1.44015
1.46187
1.47843
1.49007
1.49629
1.49894
1.49946
0.767422
0.77691
0.809266
0.858223
0.915723
0.977992
1.04385
1.11273
1.18389
1.25646
1.32594
1.38204
1.42258
1.45275
1.47568
1.49313
1.50549
1.51238
1.51529
1.51584
0.732502
0.742076
0.776139
0.82816
0.889509
0.956115
1.02674
1.1007
1.17715
1.25503
1.32936
1.38903
1.4318
1.46338
1.4872
1.50521
1.51799
1.52534
1.52837
1.52894
0.701262
0.710869
0.746256
0.800854
0.865421
0.935764
1.01058
1.08909
1.17035
1.25312
1.33197
1.39495
1.43974
1.47249
1.49696
1.51529
1.52828
1.5358
1.53883
1.53946
0.672513
0.682169
0.71866
0.775471
0.842818
0.916431
0.994964
1.07758
1.16325
1.25062
1.33378
1.39994
1.44667
1.48052
1.50556
1.52414
1.53718
1.54483
1.54785
1.54844
0.645483
0.655195
0.692667
0.751379
0.821215
0.897737
0.979588
1.06593
1.15568
1.24739
1.33475
1.4041
1.4528
1.4878
1.51345
1.53232
1.54548
1.55313
1.55618
1.5566
0.619675
0.629472
0.667857
0.728196
0.800281
0.879395
0.964236
1.05397
1.1475
1.24334
1.33485
1.40747
1.4583
1.49459
1.52096
1.54018
1.55348
1.56111
1.56412
1.56453
0.594678
0.60465
0.643864
0.705733
0.779803
0.861242
0.948776
1.0416
1.13864
1.23841
1.33403
1.4101
1.46327
1.50104
1.52828
1.54798
1.56148
1.56911
1.572
1.5724
0.570316
0.580529
0.620486
0.683818
0.759654
0.843168
0.93313
1.02876
1.12904
1.23255
1.33228
1.41198
1.46773
1.50721
1.5355
1.55579
1.56955
1.57718
1.57993
1.58028
0.546534
0.556963
0.597685
0.66233
0.739763
0.825139
0.917275
1.01544
1.11869
1.22573
1.32951
1.41301
1.47165
1.51312
1.54266
1.56365
1.57769
1.58526
1.58785
1.5881
0.52321
0.53395
0.575395
0.641243
0.720116
0.807156
0.901227
1.00166
1.1076
1.21794
1.32565
1.41309
1.47493
1.51874
1.54977
1.57157
1.58587
1.59332
1.59568
1.59581
0.500414
0.51144
0.553617
0.620567
0.700735
0.78925
0.885035
0.987471
1.09582
1.20916
1.32063
1.41211
1.47748
1.52402
1.55685
1.57955
1.59403
1.60122
1.60327
1.60329
0.478115
0.489446
0.532375
0.600336
0.68166
0.771472
0.868756
0.972948
1.08341
1.19943
1.31444
1.40995
1.47909
1.52883
1.56391
1.58771
1.6022
1.60888
1.61052
1.61042
0.4565
0.468062
0.511713
0.580594
0.662953
0.753907
0.852469
0.958172
1.07046
1.18885
1.30706
1.40649
1.47959
1.53298
1.57095
1.59626
1.6106
1.61629
1.61727
1.61704
0.435439
0.447338
0.491667
0.561381
0.644656
0.736601
0.836273
0.943238
1.05707
1.17748
1.29851
1.40163
1.47875
1.53619
1.57784
1.60552
1.61984
1.62381
1.62348
1.62303
0.415099
0.427305
0.472271
0.542753
0.626853
0.719642
0.820254
0.92827
1.04335
1.16542
1.28886
1.39532
1.47636
1.53803
1.58414
1.61562
1.63111
1.63299
1.62979
1.62813
0.39543
0.40792
0.453578
0.524765
0.609587
0.703103
0.804497
0.913352
1.02943
1.15282
1.27822
1.3875
1.47225
1.53802
1.58899
1.62589
1.64526
1.64738
1.64024
1.62992
0.376512
0.38923
0.435488
0.507267
0.592648
0.686698
0.78866
0.89807
1.01484
1.13915
1.26599
1.37752
1.46581
1.5355
1.59104
1.63456
1.66101
1.66729
1.65938
1.64955
0.358398
0.371328
0.417997
0.490301
0.576052
0.670426
0.772768
0.882413
0.999547
1.1243
1.25203
1.36509
1.45639
1.52979
1.58769
1.63593
1.66577
1.67692
1.64161
1.58709
0.341346
0.354978
0.401206
0.473922
0.559681
0.654157
0.756777
0.866503
0.983619
1.10837
1.23632
1.3501
1.44309
1.52069
1.57725
1.61849
1.64934
1.6413
1.58393
1.51709
0.32506
0.339448
0.385308
0.458728
0.543861
0.638366
0.74047
0.850403
0.967206
1.09152
1.21891
1.33245
1.42495
1.50933
1.55922
1.61214
1.58797
1.5496
1.47965
1.40921
0.339283
0.35732
0.405776
0.483073
0.573021
0.671184
0.778474
0.891184
1.01081
1.1382
1.25901
1.35926
1.44326
1.53232
1.58466
1.5031
1.46024
1.39854
1.32449
1.27504
0.314974
0.331501
0.36693
0.434653
0.519402
0.613354
0.715539
0.824751
0.940585
1.06336
1.18839
1.29952
1.38814
1.46653
1.53684
1.53965
1.41923
1.33536
1.27223
1.18673
0.295145
0.310848
0.352075
0.421219
0.506222
0.599716
0.700696
0.808927
0.923649
1.04478
1.16772
1.27623
1.36163
1.42713
1.4538
1.38449
1.24091
1.14267
1.06596
0.974189
0.274926
0.287419
0.333173
0.403629
0.488786
0.582433
0.68332
0.791132
0.904811
1.02421
1.14402
1.24771
1.32603
1.37576
1.35326
1.22286
1.06486
0.942627
0.841475
0.69992
0.251532
0.264603
0.31235
0.38394
0.4694
0.563069
0.663797
0.77093
0.883366
1.00067
1.11683
1.21506
1.28542
1.31582
1.25628
1.06801
0.877042
0.714548
0.565272
0.362734
0.229257
0.241968
0.290911
0.363661
0.449606
0.543233
0.643555
0.749764
0.860715
0.975569
1.08771
1.17994
1.24174
1.24341
1.1311
0.921523
0.696662
0.475223
0.289833
-0.138181
0.20709
0.219335
0.268758
0.34237
0.428708
0.522354
0.622263
0.727542
0.836899
0.949078
1.05687
1.14248
1.19397
1.16047
1.00543
0.791376
0.559399
0.329068
0.130633
-0.193303
0.184086
0.196153
0.245693
0.319825
0.406435
0.50011
0.599645
0.704018
0.811729
0.921067
1.02426
1.1028
1.1414
1.0868
0.891725
0.685868
0.473342
0.291032
0.213674
0.177149
0.159814
0.171681
0.221362
0.295748
0.382433
0.47598
0.574992
0.678239
0.783984
0.889999
0.987968
1.05868
1.08266
0.999224
0.789944
0.596685
0.421916
0.303745
0.265936
0.253412
0.134075
0.145845
0.195618
0.270142
0.356783
0.450038
0.548326
0.650201
0.753622
0.855813
0.947871
1.01045
1.01302
0.893267
0.697688
0.518308
0.367982
0.30549
0.289349
0.284942
0.10683
0.118355
0.168403
0.243025
0.329527
0.422325
0.519693
0.619922
0.720668
0.818585
0.904023
0.958165
0.932756
0.791338
0.610404
0.442469
0.331219
0.291015
0.298148
0.298854
0.0780919
0.0896301
0.139749
0.214471
0.300743
0.392937
0.489167
0.58749
0.685212
0.77839
0.856741
0.900669
0.855701
0.693184
0.529214
0.379566
0.326681
0.311603
0.307552
0.307188
0.0482823
0.0598097
0.109872
0.184686
0.270612
0.362041
0.456919
0.553074
0.647431
0.735452
0.806449
0.838624
0.7837
0.603254
0.453532
0.348712
0.301116
0.310329
0.31143
0.31138
0.0178783
0.0293213
0.0794516
0.154022
0.239466
0.329955
0.423272
0.516993
0.607688
0.690199
0.753443
0.776033
0.700408
0.517465
0.379547
0.316718
0.310013
0.309319