/*--------------------------------*- C++ -*----------------------------------*\
| =========                 |                                                 |
| \\      /  F ield         | OpenFOAM: The Open Source CFD Toolbox           |
|  \\    /   O peration     | Version:  4.0                                   |
|   \\  /    A nd           | Web:      www.OpenFOAM.org                      |
|    \\/     M anipulation  |                                                 |
\*---------------------------------------------------------------------------*/
FoamFile
{
    version     2.0;
    format      ascii;
    class       volVectorField;
    location    "58";
    object      U;
}
// * * * * * * * * * * * * * * * * * * * * * * * * * * * * * * * * * * * * * //

dimensions      [0 1 -1 0 0 0 0];

internalField   nonuniform List<vector> 
2200
(
(0.878856 -0.0304114 0)
(1.0058 -0.0512811 0)
(1.00331 -0.0353849 0)
(1.00033 -0.024437 0)
(0.99991 -0.0166589 0)
(1 -0.0107287 0)
(1.00002 -0.0068355 0)
(1.00002 -0.00418828 0)
(0.999996 -0.00216558 0)
(1.00018 -0.000624701 0)
(0.999993 0.00109949 0)
(0.99997 0.00256079 0)
(1.00018 0.00447914 0)
(1.00014 0.00704923 0)
(1.00009 0.0108249 0)
(1.00006 0.0166453 0)
(1.00038 0.024372 0)
(1.00349 0.0348725 0)
(1.00599 0.0513763 0)
(0.879054 0.0302997 0)
(0.711992 -0.0327668 0)
(0.99664 -0.0630169 0)
(1.03329 -0.0561895 0)
(1.02482 -0.0464414 0)
(1.01583 -0.036153 0)
(1.00967 -0.0264168 0)
(1.00593 -0.0181771 0)
(1.00378 -0.0114581 0)
(1.0026 -0.00613392 0)
(1.00206 -0.00167674 0)
(1.00206 0.00251423 0)
(1.00243 0.00708304 0)
(1.00341 0.0123468 0)
(1.00561 0.0189531 0)
(1.00938 0.027204 0)
(1.01546 0.0369607 0)
(1.02457 0.0474483 0)
(1.03315 0.057966 0)
(0.996704 0.063143 0)
(0.711775 0.0330319 0)
(0.535576 -0.0238884 0)
(0.969915 -0.0569231 0)
(1.05645 -0.0546881 0)
(1.05231 -0.0487284 0)
(1.03629 -0.0403809 0)
(1.02445 -0.0322174 0)
(1.01589 -0.0239369 0)
(1.01037 -0.0160829 0)
(1.00712 -0.00875635 0)
(1.00564 -0.00205898 0)
(1.00569 0.00432839 0)
(1.00716 0.0107161 0)
(1.01039 0.0177663 0)
(1.01572 0.025433 0)
(1.02421 0.0334254 0)
(1.03624 0.0413955 0)
(1.05229 0.0493894 0)
(1.05633 0.0532814 0)
(0.969222 0.0576373 0)
(0.534415 0.0239344 0)
(0.392298 -0.0136573 0)
(0.911766 -0.0464075 0)
(1.05748 -0.0469584 0)
(1.06948 -0.0443406 0)
(1.05483 -0.0382116 0)
(1.03934 -0.0315129 0)
(1.02759 -0.0247246 0)
(1.01912 -0.0174661 0)
(1.01378 -0.0100156 0)
(1.0111 -0.00251317 0)
(1.01071 0.00499235 0)
(1.01298 0.0125261 0)
(1.01813 0.0198027 0)
(1.02659 0.0266462 0)
(1.03839 0.0330665 0)
(1.05389 0.0395267 0)
(1.0681 0.045623 0)
(1.0555 0.0483169 0)
(0.909893 0.0469893 0)
(0.389944 0.0137783 0)
(0.307682 -0.00451388 0)
(0.846755 -0.0323814 0)
(1.04946 -0.039923 0)
(1.07953 -0.0381661 0)
(1.06828 -0.0335192 0)
(1.05172 -0.0279414 0)
(1.03832 -0.0225455 0)
(1.02807 -0.0165129 0)
(1.02095 -0.00956973 0)
(1.01716 -0.00186484 0)
(1.01721 0.00605099 0)
(1.02082 0.0132793 0)
(1.02752 0.0197602 0)
(1.03735 0.0254445 0)
(1.05037 0.0303757 0)
(1.06679 0.0356657 0)
(1.07783 0.0399788 0)
(1.04743 0.0417056 0)
(0.843081 0.0329438 0)
(0.303815 0.00473073 0)
(0.264249 0.000105041 0)
(0.788958 -0.0200619 0)
(1.03335 -0.0314534 0)
(1.08349 -0.0320202 0)
(1.07725 -0.0287573 0)
(1.06082 -0.0238483 0)
(1.04723 -0.0193935 0)
(1.03638 -0.0142892 0)
(1.0286 -0.00825073 0)
(1.02414 -0.00129331 0)
(1.02342 0.00594832 0)
(1.02702 0.0127953 0)
(1.0344 0.0184476 0)
(1.04498 0.0230322 0)
(1.05851 0.0270624 0)
(1.0748 0.0314956 0)
(1.08028 0.0342526 0)
(1.02911 0.0333073 0)
(0.782643 0.0207324 0)
(0.258816 0.000117724 0)
(0.240329 0.00106523 0)
(0.738361 -0.0122956 0)
(1.01371 -0.0250128 0)
(1.08409 -0.0267983 0)
(1.08305 -0.024514 0)
(1.06781 -0.0203632 0)
(1.05425 -0.0163208 0)
(1.04338 -0.0118244 0)
(1.03518 -0.00645268 0)
(1.03022 -3.97121e-05 0)
(1.03008 0.00677514 0)
(1.0343 0.0125592 0)
(1.04165 0.0172471 0)
(1.05191 0.0211802 0)
(1.06493 0.0245323 0)
(1.07958 0.0279863 0)
(1.0801 0.0295892 0)
(1.00779 0.0271849 0)
(0.729128 0.013126 0)
(0.233238 -0.000841911 0)
(0.225964 0.000956372 0)
(0.69541 -0.00805047 0)
(0.993016 -0.0207669 0)
(1.08218 -0.0231481 0)
(1.08685 -0.0212871 0)
(1.0734 -0.0177192 0)
(1.05991 -0.0139234 0)
(1.04931 -0.00960461 0)
(1.04138 -0.00461943 0)
(1.03653 0.000991493 0)
(1.03542 0.00674355 0)
(1.0388 0.0121287 0)
(1.04585 0.0164721 0)
(1.0559 0.0199427 0)
(1.06923 0.0230239 0)
(1.08199 0.0258055 0)
(1.07562 0.0267405 0)
(0.983325 0.0234047 0)
(0.681994 0.00910461 0)
(0.216801 -0.000715435 0)
(0.216391 0.000623541 0)
(0.660022 -0.00567709 0)
(0.972532 -0.0176302 0)
(1.07954 -0.0202377 0)
(1.09026 -0.0186827 0)
(1.07824 -0.0155663 0)
(1.06488 -0.0119046 0)
(1.05436 -0.00772987 0)
(1.04639 -0.00294058 0)
(1.04119 0.00247883 0)
(1.04058 0.00803247 0)
(1.04423 0.0126405 0)
(1.05084 0.0163796 0)
(1.06025 0.0196231 0)
(1.07274 0.0222756 0)
(1.08357 0.0244145 0)
(1.07114 0.0249128 0)
(0.959606 0.020949 0)
(0.642141 0.00705156 0)
(0.204786 -0.000338225 0)
(0.209166 0.000293954 0)
(0.631365 -0.00423539 0)
(0.953538 -0.0150557 0)
(1.07627 -0.0179996 0)
(1.09328 -0.0166653 0)
(1.08286 -0.0137274 0)
(1.06943 -0.0101475 0)
(1.05899 -0.00604138 0)
(1.05125 -0.00133767 0)
(1.0464 0.00366832 0)
(1.04481 0.00859006 0)
(1.04717 0.0131159 0)
(1.05329 0.016867 0)
(1.06268 0.0196334 0)
(1.07558 0.022029 0)
(1.08447 0.0237827 0)
(1.06406 0.0237185 0)
(0.934732 0.0190462 0)
(0.607203 0.00589241 0)
(0.194354 3.25242e-05 0)
(0.203313 8.11916e-05 0)
(0.608057 -0.00316658 0)
(0.935641 -0.0126002 0)
(1.0733 -0.0156256 0)
(1.09669 -0.0144715 0)
(1.08758 -0.0117346 0)
(1.07411 -0.00821577 0)
(1.06339 -0.00421658 0)
(1.05525 0.000421399 0)
(1.04973 0.00555608 0)
(1.04837 0.0104505 0)
(1.05135 0.0146162 0)
(1.05722 0.0176032 0)
(1.06609 0.0202601 0)
(1.07808 0.0223044 0)
(1.08494 0.0235043 0)
(1.05743 0.0229309 0)
(0.9112 0.01751 0)
(0.577161 0.00524312 0)
(0.184833 0.000317138 0)
(0.198695 1.73912e-06 0)
(0.589738 -0.00231527 0)
(0.920104 -0.0103027 0)
(1.07018 -0.0135594 0)
(1.09995 -0.0125145 0)
(1.09244 -0.00975743 0)
(1.07883 -0.00617665 0)
(1.06794 -0.00227813 0)
(1.05975 0.00218695 0)
(1.05435 0.00697595 0)
(1.05207 0.011756 0)
(1.05334 0.0155497 0)
(1.05871 0.0187948 0)
(1.06779 0.0208499 0)
(1.08035 0.0226205 0)
(1.08469 0.0235412 0)
(1.04838 0.0222604 0)
(0.886615 0.0162522 0)
(0.549622 0.00484206 0)
(0.175439 0.000483004 0)
(0.195101 2.61841e-05 0)
(0.575009 -0.00156585 0)
(0.905497 -0.00813734 0)
(1.06743 -0.011071 0)
(1.10356 -0.0100081 0)
(1.09738 -0.00733512 0)
(1.08361 -0.00380147 0)
(1.07214 0.00019769 0)
(1.06317 0.00479489 0)
(1.05667 0.00981853 0)
(1.05418 0.0143207 0)
(1.05656 0.0180442 0)
(1.06214 0.0201484 0)
(1.07086 0.0221218 0)
(1.08192 0.0235113 0)
(1.08396 0.0238909 0)
(1.03952 0.0221304 0)
(0.863051 0.0153835 0)
(0.524838 0.00465686 0)
(0.166432 0.000569782 0)
(0.192961 6.39472e-05 0)
(0.564411 -0.000796552 0)
(0.89417 -0.0059494 0)
(1.06498 -0.00883091 0)
(1.10705 -0.0076318 0)
(1.10254 -0.00477774 0)
(1.08884 -0.00105471 0)
(1.07724 0.00284571 0)
(1.06816 0.00726191 0)
(1.06166 0.0119345 0)
(1.05823 0.0164941 0)
(1.05838 0.0196811 0)
(1.06291 0.0222887 0)
(1.07183 0.0235315 0)
(1.083 0.0244359 0)
(1.0822 0.0244683 0)
(1.02756 0.0221501 0)
(0.837736 0.0147874 0)
(0.500633 0.00458715 0)
(0.157273 0.000610127 0)
(0.192038 9.98062e-05 0)
(0.556861 -0.000243821 0)
(0.883761 -0.0040112 0)
(1.06328 -0.00614788 0)
(1.11109 -0.00473404 0)
(1.10788 -0.00176665 0)
(1.09407 0.00198161 0)
(1.08174 0.00621683 0)
(1.07155 0.0109696 0)
(1.06363 0.0160146 0)
(1.05973 0.0201688 0)
(1.06096 0.0231439 0)
(1.0661 0.0244875 0)
(1.07438 0.0256702 0)
(1.08307 0.0261619 0)
(1.07956 0.0256257 0)
(1.01605 0.0225785 0)
(0.81345 0.0145556 0)
(0.478041 0.00460683 0)
(0.148392 0.000626226 0)
(0.192584 8.65621e-05 0)
(0.552469 0.000813433 0)
(0.877472 -0.0015933 0)
(1.06253 -0.00347331 0)
(1.11529 -0.00167445 0)
(1.11355 0.00161721 0)
(1.09983 0.00578782 0)
(1.08746 0.0100911 0)
(1.07721 0.0147617 0)
(1.069 0.019322 0)
(1.06375 0.0233672 0)
(1.06255 0.0260068 0)
(1.06566 0.0275429 0)
(1.07394 0.0280676 0)
(1.08285 0.0281734 0)
(1.0751 0.027211 0)
(1.00076 0.023383 0)
(0.786521 0.0146787 0)
(0.4546 0.00474393 0)
(0.139054 0.000651652 0)
(0.194601 0.000223367 0)
(0.552663 0.00150961 0)
(0.87253 0.000448134 0)
(1.0632 -0.000133793 0)
(1.12038 0.00207185 0)
(1.11967 0.00570014 0)
(1.10568 0.0100711 0)
(1.09231 0.014875 0)
(1.08057 0.0199903 0)
(1.07072 0.0250456 0)
(1.06489 0.0287946 0)
(1.06429 0.0305924 0)
(1.0685 0.0315785 0)
(1.07578 0.031831 0)
(1.08129 0.0311105 0)
(1.07001 0.0294455 0)
(0.985937 0.0247325 0)
(0.760269 0.0151326 0)
(0.43185 0.00500012 0)
(0.129711 0.000680774 0)
(0.198707 0.000660757 0)
(0.555241 0.00229464 0)
(0.872766 0.00328279 0)
(1.06567 0.00316135 0)
(1.12631 0.00599638 0)
(1.1267 0.0100023 0)
(1.11246 0.0149916 0)
(1.09888 0.0200815 0)
(1.08711 0.025321 0)
(1.07684 0.0301255 0)
(1.069 0.0336087 0)
(1.06538 0.0355405 0)
(1.06634 0.0358455 0)
(1.07338 0.0353004 0)
(1.07967 0.0346895 0)
(1.06256 0.0323413 0)
(0.966245 0.0264668 0)
(0.730248 0.0159766 0)
(0.406899 0.00536447 0)
(0.119432 0.000715304 0)
(0.204999 0.000866663 0)
(0.561791 0.00340064 0)
(0.876396 0.00573453 0)
(1.07025 0.00733408 0)
(1.13317 0.0107956 0)
(1.13443 0.0155034 0)
(1.11967 0.0209868 0)
(1.10469 0.0268053 0)
(1.09078 0.0327559 0)
(1.07793 0.0380878 0)
(1.06904 0.0416598 0)
(1.06622 0.0424373 0)
(1.06857 0.0421359 0)
(1.07447 0.0413548 0)
(1.07573 0.0393318 0)
(1.05399 0.0358416 0)
(0.946602 0.0288806 0)
(0.700135 0.0171519 0)
(0.38164 0.00582509 0)
(0.108821 0.000752807 0)
(0.213366 0.00104936 0)
(0.572994 0.00471568 0)
(0.884496 0.00885911 0)
(1.07764 0.0119213 0)
(1.14142 0.0164456 0)
(1.14322 0.0216013 0)
(1.12756 0.0278874 0)
(1.1117 0.0341984 0)
(1.09713 0.0404867 0)
(1.08368 0.0459073 0)
(1.0724 0.0488713 0)
(1.06573 0.0497826 0)
(1.06449 0.0488874 0)
(1.06945 0.0467282 0)
(1.07209 0.0448286 0)
(1.04235 0.0403249 0)
(0.920863 0.031686 0)
(0.664761 0.0186802 0)
(0.352927 0.00634605 0)
(0.0969083 0.000782078 0)
(0.225572 0.00139211 0)
(0.590959 0.00666879 0)
(0.89903 0.0131724 0)
(1.08819 0.0181435 0)
(1.15119 0.0235754 0)
(1.15316 0.0298019 0)
(1.13664 0.0370044 0)
(1.11918 0.044355 0)
(1.102 0.0515325 0)
(1.08484 0.0572233 0)
(1.07134 0.0598176 0)
(1.06529 0.0592635 0)
(1.06537 0.0576022 0)
(1.06915 0.0553219 0)
(1.06479 0.0514554 0)
(1.02857 0.0455423 0)
(0.894369 0.0353242 0)
(0.628207 0.0205114 0)
(0.323021 0.00691763 0)
(0.0844964 0.000809472 0)
(0.241231 0.00193469 0)
(0.614296 0.00848992 0)
(0.91973 0.0178328 0)
(1.10336 0.0251331 0)
(1.16348 0.0323451 0)
(1.16502 0.0396011 0)
(1.14669 0.048077 0)
(1.12717 0.0560245 0)
(1.10775 0.0632624 0)
(1.08881 0.0685264 0)
(1.07308 0.0708547 0)
(1.06339 0.0700238 0)
(1.05946 0.067277 0)
(1.06094 0.0630626 0)
(1.05784 0.0590539 0)
(1.01097 0.0517167 0)
(0.859779 0.0391042 0)
(0.584559 0.0225042 0)
(0.28865 0.00743728 0)
(0.0706516 0.000812258 0)
(0.26304 0.00279762 0)
(0.647119 0.0122233 0)
(0.948683 0.0245819 0)
(1.12298 0.034656 0)
(1.17846 0.0430861 0)
(1.17881 0.0525581 0)
(1.15824 0.0622119 0)
(1.13614 0.0714247 0)
(1.11364 0.0795651 0)
(1.09097 0.0851318 0)
(1.07168 0.0856588 0)
(1.06108 0.0826301 0)
(1.05826 0.0785593 0)
(1.05894 0.0744796 0)
(1.04656 0.0681534 0)
(0.989836 0.0586947 0)
(0.823675 0.0440374 0)
(0.538993 0.0247145 0)
(0.252874 0.00792521 0)
(0.0565376 0.000793719 0)
(0.294077 0.00367954 0)
(0.691762 0.015405 0)
(0.986945 0.0327215 0)
(1.14909 0.0464248 0)
(1.19702 0.0578191 0)
(1.19466 0.0693016 0)
(1.17032 0.0807385 0)
(1.14458 0.0904604 0)
(1.11827 0.0978182 0)
(1.09169 0.101209 0)
(1.06971 0.100679 0)
(1.05661 0.0972751 0)
(1.05004 0.0919661 0)
(1.04737 0.0848429 0)
(1.03453 0.0781436 0)
(0.963648 0.0667814 0)
(0.776312 0.048431 0)
(0.48329 0.0266461 0)
(0.211691 0.00815829 0)
(0.04108 0.000699383 0)
(0.330419 0.00707874 0)
(0.749942 0.024661 0)
(1.03668 0.0466148 0)
(1.1814 0.0645304 0)
(1.21955 0.0773266 0)
(1.21299 0.0918617 0)
(1.18399 0.103966 0)
(1.15416 0.113732 0)
(1.12395 0.12074 0)
(1.09431 0.123985 0)
(1.06897 0.121715 0)
(1.05268 0.114467 0)
(1.04541 0.106646 0)
(1.04227 0.0997214 0)
(1.01742 0.0897151 0)
(0.931365 0.0749794 0)
(0.726577 0.0539333 0)
(0.427334 0.0287943 0)
(0.170786 0.0081871 0)
(0.0268571 0.000609833 0)
(0.410221 0.0106146 0)
(0.837213 0.0356775 0)
(1.10218 0.0671452 0)
(1.22146 0.0897893 0)
(1.24635 0.105889 6.26936e-34)
(1.23263 0.122108 -2.82725e-34)
(1.19711 0.13431 0)
(1.16222 0.14297 0)
(1.12719 0.147883 0)
(1.09205 0.147195 0)
(1.06185 0.140344 0)
(1.04426 0.132353 0)
(1.03564 0.123583 0)
(1.02628 0.112932 0)
(0.997674 0.101729 0)
(0.892758 0.0842014 0)
(0.662025 0.0579162 0)
(0.3554 0.0291745 0)
(0.121349 0.00771693 0)
(0.010856 0.000748203 0)
(0.481037 0.0258562 4.61668e-20)
(0.939436 0.0595772 -3.4961e-20)
(1.17335 0.101868 0)
(1.26255 0.128732 2.70874e-20)
(1.27402 0.144027 -2.19667e-20)
(1.25101 0.162248 2.98301e-34)
(1.20848 0.172545 0)
(1.16821 0.179026 1.59074e-20)
(1.12761 0.181255 -5.2257e-20)
(1.0882 0.178299 1.06691e-20)
(1.0574 0.171146 0)
(1.03674 0.15917 -2.7104e-20)
(1.02371 0.146315 -3.25384e-20)
(1.01426 0.135092 5.69489e-20)
(0.964667 0.119117 -4.49837e-20)
(0.830421 0.0939769 0)
(0.574017 0.0619309 -1.61995e-20)
(0.272885 0.0285394 0)
(0.0711909 0.00737381 -8.93953e-20)
(-0.00613478 0.000508789 1.05356e-19)
(0.517358 0.0535351 -6.06264e-21)
(1.00405 0.102485 1.04143e-19)
(1.22364 0.151975 -5.69429e-21)
(1.29626 0.176368 -6.65593e-20)
(1.2987 0.19372 -4.65145e-20)
(1.26656 0.210056 7.56853e-20)
(1.2176 0.217502 0)
(1.1718 0.221215 0)
(1.1263 0.221003 8.31403e-20)
(1.08232 0.214872 0)
(1.04305 0.201197 9.78362e-20)
(1.0176 0.185661 2.90829e-20)
(1.00507 0.172712 4.55203e-22)
(0.980906 0.157831 -6.19752e-20)
(0.924381 0.13816 0)
(0.771721 0.109396 0)
(0.501762 0.0670128 -2.64165e-19)
(0.214766 0.0278533 6.64154e-19)
(0.0404378 0.0058223 -3.92523e-19)
(-0.0172767 -0.00118415 -4.62592e-19)
(0.524956 0.0760128 -5.81567e-20)
(1.04098 0.159411 2.23742e-20)
(1.26008 0.212416 1.23236e-20)
(1.3225 0.235662 1.15988e-19)
(1.31767 0.251376 1.4511e-20)
(1.27823 0.263266 -1.97187e-19)
(1.22371 0.26677 6.73119e-20)
(1.17246 0.267259 0)
(1.12071 0.263289 -1.75725e-19)
(1.06974 0.252893 1.56187e-19)
(1.02818 0.236586 -2.64016e-19)
(1.00234 0.220778 1.23757e-19)
(0.983246 0.204833 -8.02751e-20)
(0.964151 0.187677 1.80901e-19)
(0.892168 0.165226 0)
(0.727673 0.124756 -6.60263e-20)
(0.459752 0.074853 0)
(0.198178 0.0298524 3.63096e-19)
(0.0344965 0.00560188 -8.60886e-19)
(-0.0200344 -0.00288832 5.39445e-19)
(0.521051 0.107881 1.5764e-19)
(1.06249 0.216328 -6.94457e-20)
(1.28226 0.277669 -1.49284e-20)
(1.33963 0.300287 0)
(1.32992 0.313917 -8.59792e-20)
(1.28526 0.320684 1.06144e-19)
(1.22608 0.319391 -7.19823e-20)
(1.17012 0.315508 0)
(1.11436 0.307468 1.24834e-19)
(1.06061 0.29295 -1.09715e-19)
(1.01546 0.273917 2.28613e-19)
(0.982983 0.254359 0)
(0.961756 0.235929 -1.70551e-19)
(0.928737 0.215262 9.60691e-20)
(0.85968 0.186858 2.42168e-19)
(0.697717 0.144624 -2.13075e-19)
(0.442656 0.0870188 3.37274e-19)
(0.195731 0.0361563 -7.45507e-19)
(0.0373348 0.00669851 4.72094e-19)
(-0.0191323 -0.00394971 -5.90574e-19)
(0.509074 0.13196 -5.15109e-20)
(1.06891 0.269577 3.66967e-20)
(1.29269 0.343047 -4.97279e-20)
(1.34864 0.365823 1.00527e-19)
(1.33555 0.377289 -9.57756e-20)
(1.28726 0.37902 3.34052e-20)
(1.2247 0.37302 3.68609e-21)
(1.165 0.364813 -1.4092e-19)
(1.10461 0.352215 -1.30786e-19)
(1.04452 0.333292 -2.35675e-19)
(0.993294 0.310018 -4.9168e-19)
(0.959847 0.287368 -1.5165e-19)
(0.936636 0.266147 2.24039e-21)
(0.910883 0.2457 -3.29361e-19)
(0.835221 0.21658 -5.50906e-21)
(0.675406 0.164733 3.10239e-19)
(0.434189 0.100473 -9.33815e-20)
(0.201119 0.0447382 -5.40479e-20)
(0.0464486 0.00932127 0)
(-0.0150508 -0.00400765 1.25607e-18)
(0.493145 0.152929 0)
(1.06522 0.320012 -2.10967e-21)
(1.29544 0.406682 -7.76806e-21)
(1.35085 0.42993 -1.28641e-20)
(1.33532 0.440261 9.2088e-20)
(1.28463 0.437566 -7.81362e-20)
(1.21923 0.427113 7.8459e-20)
(1.1559 0.414518 2.31492e-19)
(1.09163 0.397871 -7.28941e-20)
(1.02866 0.375049 1.16391e-19)
(0.976031 0.348245 2.64356e-19)
(0.939694 0.322072 3.3066e-19)
(0.912936 0.299455 -1.99264e-19)
(0.87623 0.274285 3.56761e-19)
(0.805816 0.239467 -2.82782e-19)
(0.655959 0.188502 0)
(0.430326 0.118133 -7.0898e-19)
(0.212082 0.0563493 9.54235e-19)
(0.0598986 0.0149888 7.12289e-20)
(-0.00871691 -0.00295148 -1.32895e-18)
(0.477828 0.172735 -5.08295e-21)
(1.05569 0.367129 -7.88666e-21)
(1.29207 0.46694 5.63551e-20)
(1.34818 0.491732 -7.90494e-20)
(1.33063 0.501022 7.70305e-20)
(1.27794 0.494355 -7.54253e-20)
(1.21035 0.480107 1.55283e-19)
(1.14465 0.463656 -6.92792e-20)
(1.07763 0.442527 -2.93821e-19)
(1.01167 0.414943 -1.45089e-22)
(0.95502 0.384131 -2.8755e-19)
(0.913998 0.354687 -3.56039e-19)
(0.886205 0.330021 2.20214e-19)
(0.858186 0.305199 -1.2839e-19)
(0.784159 0.271156 3.07702e-19)
(0.639276 0.209718 0)
(0.426651 0.136558 -4.40717e-19)
(0.220876 0.0687101 6.50939e-19)
(0.0717642 0.0217716 1.23143e-18)
(-0.0024884 -0.00122319 -1.44819e-18)
(0.464082 0.190587 -7.65162e-20)
(1.04462 0.412478 3.26498e-20)
(1.28544 0.524922 -3.54025e-20)
(1.34143 0.550892 8.15826e-20)
(1.32214 0.559731 1.20955e-20)
(1.26814 0.549655 -1.47667e-19)
(1.19899 0.531779 -9.02931e-20)
(1.13126 0.511422 -8.89418e-20)
(1.06187 0.486597 -1.65979e-19)
(0.993038 0.455771 2.67108e-19)
(0.932515 0.42075 2.90439e-19)
(0.891695 0.389171 5.64947e-19)
(0.86251 0.362095 0)
(0.823238 0.333483 6.51433e-21)
(0.757228 0.292809 -8.46184e-19)
(0.621891 0.234809 1.98274e-19)
(0.423172 0.155166 9.55697e-19)
(0.228649 0.0822722 -2.82046e-19)
(0.082709 0.0295027 5.85643e-19)
(0.00354125 0.00103574 -4.88102e-20)
(0.453423 0.208279 5.8329e-21)
(1.03167 0.4543 5.26163e-20)
(1.27561 0.579378 -1.25033e-20)
(1.33208 0.607417 8.5011e-20)
(1.31146 0.615462 -1.49122e-19)
(1.25636 0.602132 1.46318e-19)
(1.18594 0.581203 9.3433e-20)
(1.1168 0.557688 2.65448e-19)
(1.04529 0.529315 3.32939e-19)
(0.973565 0.494542 -3.0901e-19)
(0.911763 0.455706 0)
(0.867041 0.421634 -2.13951e-19)
(0.834944 0.390696 2.4564e-19)
(0.805823 0.362537 3.10413e-19)
(0.736283 0.324235 -1.79575e-19)
(0.605309 0.25531 -4.37467e-19)
(0.417562 0.173626 -1.30441e-19)
(0.23346 0.0955794 -1.90527e-21)
(0.0908376 0.0371807 0)
(0.0083072 0.00331098 0)
(0.44541 0.224483 -7.82159e-20)
(1.02039 0.495204 0)
(1.26476 0.631524 2.41926e-21)
(1.32059 0.661051 -1.39357e-20)
(1.29875 0.668574 1.70423e-19)
(1.24283 0.652545 -4.30863e-20)
(1.17143 0.628776 9.49106e-20)
(1.10079 0.602063 -1.79497e-19)
(1.02734 0.570716 2.52539e-19)
(0.95363 0.53277 -1.01889e-19)
(0.889006 0.490161 1.66557e-19)
(0.843384 0.45217 6.78923e-19)
(0.811986 0.420638 1.43526e-20)
(0.772371 0.388349 -3.23839e-19)
(0.70973 0.343099 6.00166e-19)
(0.586416 0.279288 3.85112e-21)
(0.410281 0.190693 1.39553e-19)
(0.234398 0.108338 -6.654e-19)
(0.095337 0.0438104 6.85837e-19)
(0.0116344 0.00531231 -8.08003e-19)
(0.438224 0.241898 2.78127e-23)
(1.00767 0.532357 0)
(1.25221 0.679883 0)
(1.30784 0.711958 -4.56559e-22)
(1.28509 0.718715 -4.99281e-20)
(1.22844 0.699991 6.81327e-20)
(1.15617 0.673774 -1.76177e-19)
(1.08449 0.644613 0)
(1.00946 0.610485 -3.72544e-19)
(0.933191 0.569282 4.47829e-19)
(0.866593 0.523822 4.75595e-19)
(0.818002 0.48312 -2.49277e-19)
(0.784572 0.447166 -3.02e-19)
(0.755216 0.413819 7.08338e-19)
(0.688541 0.372027 -2.13341e-19)
(0.567861 0.295904 -2.54533e-19)
(0.398886 0.206246 -1.52273e-19)
(0.231217 0.118262 -7.18641e-19)
(0.0960598 0.0491241 1.05366e-19)
(0.0134815 0.00665709 8.74199e-19)
(0.433826 0.259851 -3.83868e-20)
(0.997524 0.569403 -5.10872e-20)
(1.23959 0.726151 2.36402e-20)
(1.29407 0.759847 -1.95815e-22)
(1.27041 0.766071 -5.30989e-20)
(1.21312 0.745221 1.09e-19)
(1.14013 0.716814 0)
(1.06744 0.685119 1.08697e-19)
(0.991058 0.64877 -8.5708e-20)
(0.913292 0.605 7.47337e-19)
(0.84394 0.555907 -1.0781e-19)
(0.795115 0.510343 1.23498e-19)
(0.76195 0.474465 0)
(0.721529 0.43783 -3.83649e-19)
(0.661681 0.385668 4.65053e-19)
(0.547207 0.315967 0)
(0.387397 0.21923 -3.27975e-19)
(0.225765 0.127054 9.65219e-19)
(0.0939756 0.0526528 1.14397e-19)
(0.0138502 0.00746523 -1.07652e-18)
(0.430922 0.27687 -9.65544e-20)
(0.98652 0.602835 1.23479e-19)
(1.22605 0.768803 0)
(1.27986 0.805017 1.86252e-20)
(1.25549 0.810697 0)
(1.19767 0.78767 -1.42228e-19)
(1.12422 0.757255 0)
(1.05097 0.723681 0)
(0.973332 0.68522 -1.13804e-19)
(0.892877 0.63888 -7.10491e-19)
(0.820742 0.587403 -8.79257e-19)
(0.76911 0.539542 1.44645e-19)
(0.733391 0.498292 5.22289e-19)
(0.703992 0.458579 4.22839e-19)
(0.639842 0.410997 -1.49226e-18)
(0.527214 0.326379 -5.97697e-19)
(0.37272 0.22998 3.5025e-19)
(0.217459 0.132973 0)
(0.09044 0.0544205 9.80068e-19)
(0.0131703 0.00788022 -1.1597e-18)
(0.429276 0.292484 1.15188e-19)
(0.97773 0.636279 -1.43343e-19)
(1.21309 0.809727 0)
(1.2654 0.847286 -1.12069e-20)
(1.24029 0.852522 -1.76758e-21)
(1.18205 0.827883 0)
(1.10821 0.795812 5.43286e-20)
(1.03418 0.760279 7.55969e-20)
(0.955147 0.720219 -2.13811e-19)
(0.873253 0.672204 9.40608e-20)
(0.798762 0.6176 0)
(0.74578 0.565514 5.99167e-19)
(0.710117 0.523454 5.57423e-21)
(0.669639 0.479475 2.28162e-19)
(0.612512 0.41828 2.70911e-19)
(0.505904 0.341235 0)
(0.359025 0.237076 -5.71157e-19)
(0.20815 0.136529 1.11932e-18)
(0.085675 0.0550863 -1.18556e-18)
(0.0120588 0.00781349 2.49746e-18)
(0.42787 0.307436 0)
(0.967845 0.666214 0)
(1.19979 0.847141 -7.02862e-20)
(1.25107 0.88704 0)
(1.22536 0.891946 0)
(1.16675 0.865594 -1.15977e-19)
(1.09267 0.831921 5.55707e-20)
(1.01822 0.794972 1.77393e-20)
(0.938078 0.75333 -4.87791e-20)
(0.853763 0.703355 0)
(0.776004 0.646781 -1.3409e-19)
(0.719033 0.593299 -4.88787e-19)
(0.680475 0.544687 -5.89032e-19)
(0.650312 0.49495 -2.37043e-19)
(0.589666 0.438591 2.93382e-19)
(0.485046 0.344462 -6.91327e-19)
(0.343358 0.241564 1.22923e-18)
(0.198818 0.137361 1.81722e-21)
(0.0809449 0.0549023 -1.13417e-18)
(0.0109943 0.00766461 -1.68423e-19)
(0.426856 0.32186 0)
(0.960103 0.696704 -1.16684e-19)
(1.18744 0.883238 8.57619e-20)
(1.23694 0.924164 0)
(1.21057 0.928661 0)
(1.15167 0.901105 2.31593e-19)
(1.07736 0.866247 0)
(1.00227 0.827848 0)
(0.920905 0.785136 -4.69073e-19)
(0.835045 0.73434 1.30387e-19)
(0.754565 0.675837 -1.18879e-18)
(0.695661 0.618331 0)
(0.655807 0.567543 -6.40365e-19)
(0.613913 0.512684 1.04886e-20)
(0.56014 0.437563 -9.43779e-19)
(0.463004 0.35197 3.71866e-19)
(0.330511 0.240864 1.35172e-21)
(0.191533 0.134855 -1.28583e-18)
(0.0777624 0.0531393 6.10291e-19)
(0.00891946 0.00587926 1.80155e-19)
(0.42577 0.336031 0)
(0.951404 0.723787 -1.6042e-19)
(1.17496 0.916059 9.04917e-20)
(1.2232 0.959046 1.21571e-19)
(1.19628 0.963337 -9.25854e-21)
(1.13709 0.934421 2.30301e-20)
(1.06268 0.898309 -3.23944e-20)
(0.987359 0.858904 4.46759e-19)
(0.90501 0.815089 5.01775e-19)
(0.816617 0.762854 9.92611e-19)
(0.732916 0.702788 9.87729e-19)
(0.669109 0.644343 1.73819e-19)
(0.624245 0.58687 9.21252e-19)
(0.591732 0.523221 5.69673e-19)
(0.534291 0.452294 6.77419e-19)
(0.441453 0.344283 -4.06941e-19)
(0.315218 0.234017 -4.70739e-19)
(0.188863 0.129428 5.51982e-19)
(0.0820334 0.058117 -3.28088e-19)
(0.0147771 0.0137938 5.83486e-19)
(0.424987 0.349712 2.25231e-19)
(0.944744 0.751588 2.51333e-19)
(1.16348 0.94799 5.23692e-20)
(1.20981 0.991593 1.58208e-20)
(1.18233 0.995428 -3.99109e-21)
(1.12295 0.965606 -6.40632e-20)
(1.04848 0.928701 3.10596e-20)
(0.972653 0.888292 -1.96305e-20)
(0.8891 0.843801 -5.84163e-19)
(0.799265 0.791378 -1.07741e-18)
(0.713055 0.731057 6.85639e-20)
(0.646096 0.669478 0)
(0.598876 0.608991 0)
(0.551369 0.539763 -2.97097e-19)
(0.499395 0.442527 -1.10968e-18)
(0.416893 0.34075 8.76727e-19)
(0.310305 0.215086 5.14972e-19)
(0.198127 0.109985 0)
(0.0975582 0.0304453 1.05017e-18)
(0.00866189 -0.0120894 -6.22474e-19)
(0.424083 0.362923 -1.19478e-19)
(0.937026 0.775798 1.05614e-19)
(1.15185 0.976774 -1.25639e-19)
(1.19694 1.02214 -1.03569e-19)
(1.16898 1.02584 -1.728e-20)
(1.10943 0.994918 -2.04819e-20)
(1.03498 0.957045 0)
(0.959014 0.915961 -5.61543e-19)
(0.874646 0.870772 7.11122e-20)
(0.782561 0.817531 0)
(0.693006 0.756519 0)
(0.620217 0.694232 1.112e-19)
(0.564978 0.627906 1.49665e-19)
(0.524757 0.547229 -3.21141e-19)
(0.466881 0.454368 7.96518e-19)
(0.386699 0.317721 -9.55417e-19)
(0.288675 0.190771 -1.10344e-18)
(0.213954 0.0949649 9.77694e-19)
(0.160635 0.0781795 -3.73472e-19)
(0.112111 0.0775756 2.17286e-19)
(0.423378 0.375286 1.49338e-19)
(0.931113 0.800827 0)
(1.1412 1.00499 0)
(1.18448 1.0506 -2.87655e-20)
(1.15609 1.05378 2.3288e-20)
(1.09646 1.02218 -2.02465e-20)
(1.0221 0.983833 1.40047e-19)
(0.945745 0.942123 5.74555e-19)
(0.860353 0.896604 1.05999e-18)
(0.76709 0.843626 -8.12588e-20)
(0.675083 0.78349 1.68198e-19)
(0.598664 0.719774 -9.94895e-19)
(0.540032 0.65155 -9.93365e-19)
(0.47901 0.566561 -1.72555e-19)
(0.417918 0.438793 0)
(0.348261 0.311387 -5.70598e-21)
(0.266936 0.119373 6.08727e-19)
(0.251203 -0.00764833 -1.02296e-18)
(0.216426 -0.100239 7.77461e-19)
(0.0870041 -0.097775 6.43802e-19)
(0.422335 0.387337 -3.29732e-19)
(0.923945 0.822179 -1.4862e-19)
(1.13031 1.03022 6.94136e-21)
(1.17247 1.07747 5.88642e-20)
(1.14367 1.08067 0)
(1.08394 1.04826 -5.89758e-20)
(1.00963 1.00925 -2.02455e-19)
(0.933207 0.967236 -2.07256e-21)
(0.847186 0.921482 -5.55344e-19)
(0.751756 0.868296 -7.97728e-20)
(0.656096 0.808426 7.40959e-20)
(0.573679 0.745506 8.74104e-19)
(0.50295 0.672878 9.6915e-19)
(0.446665 0.574421 1.6831e-19)
(0.377292 0.459011 8.59803e-19)
(0.282457 0.278324 0)
(0.157526 0.10385 0)
(-0.00455193 0.188685 7.01369e-19)
(-0.0784927 0.630096 -2.83032e-20)
(0.0085262 1.54094 -8.67472e-19)
(0.421592 0.398626 1.82085e-19)
(0.918586 0.844873 4.18121e-19)
(1.12038 1.05551 -5.75993e-19)
(1.16079 1.10288 2.9112e-19)
(1.13156 1.1057 -9.12284e-21)
(1.07172 1.07299 -1.03903e-20)
(0.997515 1.03402 0)
(0.920724 0.991971 -4.78519e-19)
(0.833717 0.946549 0)
(0.737201 0.894392 1.12206e-18)
(0.639177 0.836527 -9.05165e-20)
(0.552424 0.774231 1.01496e-19)
(0.478656 0.703228 1.11296e-18)
(0.392277 0.608682 -3.65562e-19)
(0.285473 0.447532 -4.36912e-19)
(0.189255 0.330582 0)
(0.0804426 0.479801 0)
(0.0251573 1.34704 0)
(0.0716621 2.46863 -3.98208e-19)
(0.0986129 2.91329 -2.45598e-19)
(0.420197 0.409416 0)
(0.911855 0.863653 0)
(1.11016 1.07782 2.09945e-19)
(1.14958 1.12692 -2.3671e-19)
(1.11992 1.13008 1.07555e-19)
(1.05997 1.09696 1.84407e-20)
(0.9858 1.05774 2.63327e-20)
(0.908975 1.01592 -2.05018e-20)
(0.821531 0.970957 7.85865e-20)
(0.722957 0.919534 -1.28775e-18)
(0.620822 0.863124 1.63913e-19)
(0.528083 0.804009 8.76001e-19)
(0.438099 0.731963 -1.10843e-18)
(0.355912 0.619069 -1.22177e-18)
(0.265835 0.506275 4.10778e-19)
(0.184658 0.646606 0)
(0.117248 1.57403 5.63647e-19)
(0.120385 2.69762 6.12831e-19)
(0.128172 3.0894 -6.84894e-19)
(0.120431 3.22289 7.32215e-19)
(0.419199 0.419936 0)
(0.907002 0.884096 3.6822e-19)
(1.10097 1.10048 -5.26306e-20)
(1.13875 1.14961 3.30024e-19)
(1.10867 1.15252 -1.12897e-19)
(1.04864 1.11941 0)
(0.974599 1.08065 0)
(0.897493 1.03931 0)
(0.809193 0.995307 4.40931e-19)
(0.709799 0.945731 5.92769e-20)
(0.605863 0.892196 0)
(0.508721 0.834905 -8.70803e-19)
(0.421828 0.767433 0)
(0.302625 0.665986 8.74105e-19)
(0.202339 0.721121 -5.91101e-19)
(0.149239 1.46419 -4.74562e-19)
(0.152488 2.68472 -1.10013e-18)
(0.175198 3.12644 -5.79022e-19)
(0.165952 3.26623 -7.82094e-19)
(0.152584 3.30645 5.78513e-19)
(0.417651 0.429406 -1.28493e-19)
(0.900646 0.900334 1.51332e-20)
(1.09144 1.12006 -5.8497e-20)
(1.12843 1.17106 -2.55459e-19)
(1.09791 1.17462 0)
(1.0378 1.14142 0)
(0.963783 1.1027 0)
(0.88671 1.06195 3.35867e-20)
(0.798216 1.01895 -5.57552e-19)
(0.697099 0.970934 0)
(0.589367 0.919946 0)
(0.488817 0.868033 0)
(0.378271 0.79688 0)
(0.308171 0.757914 6.40238e-19)
(0.268237 1.1509 1.57304e-18)
(0.242801 2.39348 4.63653e-19)
(0.25842 3.08236 9.30904e-19)
(0.25303 3.28066 -7.13339e-19)
(0.204576 3.34615 2.62238e-19)
(0.172539 3.35911 0)
(0.416488 0.438726 1.32191e-19)
(0.896118 0.919237 -8.16851e-19)
(1.08279 1.14099 -2.19915e-19)
(1.11824 1.19191 -4.85654e-20)
(1.08734 1.19527 2.62514e-20)
(1.02718 1.1623 -9.82779e-20)
(0.953365 1.12436 -1.76179e-21)
(0.876121 1.08446 -3.70624e-19)
(0.786926 1.04286 0)
(0.685434 0.997368 -7.55449e-20)
(0.577236 0.9501 6.87231e-20)
(0.472524 0.899071 0)
(0.380011 0.843352 0)
(0.320729 0.947566 -8.01776e-19)
(0.269119 1.85387 9.96266e-20)
(0.265594 2.94442 -3.48426e-19)
(0.289484 3.28428 7.28259e-19)
(0.261266 3.38254 5.24818e-19)
(0.196346 3.40701 -7.1156e-19)
(0.171809 3.41691 3.51887e-19)
(0.414446 0.448296 2.59411e-19)
(0.889168 0.934716 7.95812e-19)
(1.07281 1.16009 2.64328e-19)
(1.10771 1.21316 0)
(1.07645 1.21738 0)
(1.01631 1.18438 7.63967e-20)
(0.942619 1.14647 6.03322e-20)
(0.865594 1.10722 3.30218e-19)
(0.776597 1.06684 2.16767e-20)
(0.674012 1.02339 9.6392e-19)
(0.563056 0.979159 -1.14404e-18)
(0.452093 0.930914 0)
(0.375382 0.916233 0)
(0.333761 1.31917 -5.46397e-19)
(0.331592 2.49299 -6.56931e-19)
(0.375449 3.1961 0)
(0.400171 3.36544 -7.36445e-19)
(0.329803 3.42817 4.97166e-20)
(0.261118 3.47336 3.42871e-19)
(0.238873 3.49872 -1.12446e-19)
(0.412646 0.458181 -4.93235e-19)
(0.883935 0.955631 -3.82021e-19)
(1.06302 1.18298 0)
(1.09632 1.23544 0)
(1.06479 1.23916 0)
(1.00477 1.20625 0)
(0.931551 1.16914 -7.19501e-20)
(0.854646 1.13075 2.88286e-19)
(0.765297 1.09182 0)
(0.663146 1.05111 -8.77512e-19)
(0.55359 1.0107 2.05221e-18)
(0.444738 0.972214 8.39759e-20)
(0.395379 1.04261 1.12697e-19)
(0.385689 1.74659 8.90362e-19)
(0.397469 2.9018 -4.79102e-19)
(0.436582 3.3166 0)
(0.419824 3.43866 2.06703e-19)
(0.33424 3.52738 9.13245e-20)
(0.259824 3.59118 1.48811e-19)
(0.184432 3.57064 -1.36279e-20)
(0.409645 0.468622 2.34475e-19)
(0.875112 0.97206 -3.89896e-19)
(1.0511 1.20363 0)
(1.08414 1.25855 -7.11657e-20)
(1.05235 1.26325 2.45079e-19)
(0.992557 1.23011 0)
(0.91969 1.19267 0)
(0.843359 1.15469 -4.99773e-19)
(0.754831 1.11686 -5.60406e-20)
(0.652517 1.0782 8.59939e-19)
(0.537984 1.04019 -9.75053e-19)
(0.447396 1.01976 5.7114e-19)
(0.408916 1.22369 0)
(0.420309 2.18702 -4.72029e-19)
(0.463283 3.14434 3.0969e-19)
(0.527546 3.4192 1.94371e-19)