/*--------------------------------*- C++ -*----------------------------------*\
| =========                 |                                                 |
| \\      /  F ield         | OpenFOAM: The Open Source CFD Toolbox           |
|  \\    /   O peration     | Version:  4.0                                   |
|   \\  /    A nd           | Web:      www.OpenFOAM.org                      |
|    \\/     M anipulation  |                                                 |
\*---------------------------------------------------------------------------*/
FoamFile
{
    version     2.0;
    format      ascii;
    class       surfaceScalarField;
    location    "48";
    object      phi;
}
// * * * * * * * * * * * * * * * * * * * * * * * * * * * * * * * * * * * * * //

dimensions      [0 3 -1 0 0 0 0];

internalField   nonuniform List<scalar> 
17370
(
-0.0916071
0.0960091
0.284609
-0.0775942
0.0594195
0.36495
-0.0430424
0.0316235
0.427587
-0.02232
0.0162674
0.505304
-0.011674
0.0087995
0.602277
-0.00658805
0.00510411
0.720541
-0.00386974
0.00299193
0.863784
-0.00222082
0.00164339
1.03603
-0.00111239
0.000692014
1.24292
-0.000281951
-0.000110118
1.49158
0.000497116
-0.00090833
1.4916
0.00131094
-0.00181459
1.24319
0.00236555
-0.00311084
1.03638
0.00397149
-0.00519443
0.864129
0.00667172
-0.00887549
0.721261
0.0117397
-0.016318
0.603793
0.0223553
-0.0316427
0.508727
0.0430449
-0.059412
0.432535
0.0775899
-0.0960044
0.36519
0.0916204
0.19739
-0.127089
0.0880193
0.0390696
-0.364353
0.354027
-0.0714785
0.0818051
-0.446655
0.454251
-0.0791732
0.0715773
-0.521011
0.529106
-0.0637274
0.0556316
-0.612989
0.620758
-0.0482459
0.0404773
-0.727162
0.733682
-0.033866
0.0273464
-0.86758
0.872428
-0.0221451
0.017297
-1.03856
1.0419
-0.0136019
0.0102642
-1.24472
1.24712
-0.00771413
0.00530903
-1.49284
1.49485
-0.00334556
0.00133175
-1.49269
1.49451
0.000487665
-0.00230647
-1.24411
1.24602
0.00427838
-0.00618856
-1.03761
1.04009
0.00852416
-0.0110054
-0.866187
0.869821
0.0142682
-0.0179019
-0.724595
0.729753
0.0226937
-0.0278521
-0.609065
0.615636
0.0343287
-0.0408997
-0.515124
0.522461
0.0486206
-0.0559575
-0.43988
0.447661
0.0639821
-0.071763
-0.374709
0.377356
0.079263
-0.0819092
-0.2569
0.22444
0.0715597
-0.0390998
-0.0688059
0.0591917
0.00961416
-0.0521198
0.0589506
-0.374834
0.368003
-0.058106
0.0542665
-0.453943
0.457783
-0.048782
0.044225
-0.527614
0.532171
-0.0396775
0.0357839
-0.620797
0.624691
-0.031574
0.0275826
-0.734656
0.738647
-0.0232302
0.0193462
-0.87395
0.877835
-0.0153032
0.0118473
-1.04336
1.04681
-0.00832892
0.0052972
-1.24865
1.25168
-0.00209019
-0.000890189
-1.49694
1.49992
0.0038488
-0.00699529
-1.49742
1.50057
0.00993976
-0.0133419
-1.25007
1.25347
0.0166817
-0.0205952
-1.04565
1.04957
0.0243685
-0.0286133
-0.87714
0.881384
0.0325184
-0.0366416
-0.738985
0.743109
0.0404611
-0.0449343
-0.625975
0.630448
0.0494296
-0.0548539
-0.535019
0.540444
0.0586246
-0.0593873
-0.458079
0.458842
0.0524448
-0.0320602
-0.336769
0.316385
0.00967201
-0.0686668
0.0589948
-0.0534014
0.0492878
0.00411362
-0.0332568
0.0436864
-0.358553
0.348123
-0.0473677
0.0467852
-0.459573
0.460156
-0.0438616
0.0406535
-0.536126
0.539334
-0.0369812
0.0336303
-0.628388
0.631739
-0.0300005
0.0267631
-0.742025
0.745262
-0.0233145
0.0201199
-0.881325
0.88452
-0.0165296
0.0131804
-1.05023
1.05358
-0.00948446
0.00608219
-1.25494
1.25834
-0.0022933
-0.00132165
-1.50327
1.50689
0.00490595
-0.00860597
-1.50407
1.50777
0.0118873
-0.0154208
-1.25704
1.26057
0.0186065
-0.0220117
-1.05327
1.05668
0.0250453
-0.0283358
-0.88499
0.88828
0.0314457
-0.03495
-0.74679
0.750295
0.0381933
-0.0417528
-0.63457
0.63813
0.0448628
-0.0476766
-0.544589
0.547403
0.0481457
-0.0443069
-0.456961
0.453122
0.033684
-0.0163749
-0.297072
0.279763
0.00417736
-0.0531464
0.048969
-0.0461171
0.0435591
0.002558
-0.0230635
0.0334214
-0.337526
0.327169
-0.0391635
0.0401187
-0.459904
0.458949
-0.0388739
0.0365506
-0.541989
0.544313
-0.0339135
0.0313712
-0.634703
0.637245
-0.028399
0.0255558
-0.748343
0.751186
-0.022323
0.0193129
-0.887569
0.89058
-0.0159656
0.0128353
-1.05675
1.05988
-0.00928392
0.00588922
-1.26173
1.26512
-0.00198421
-0.0018094
-1.51062
1.51441
0.00556437
-0.0093525
-1.51155
1.51534
0.0125903
-0.0159319
-1.26403
1.26737
0.0188504
-0.0219565
-1.05988
1.06299
0.0247506
-0.0277633
-0.891475
0.894487
0.0304266
-0.0332233
-0.753474
0.75627
0.0356183
-0.0381058
-0.641086
0.643573
0.0403013
-0.0413769
-0.549242
0.550318
0.0402469
-0.0342493
-0.448003
0.442006
0.0236107
-0.0103688
-0.264582
0.25134
0.00263687
-0.0457272
0.0430903
-0.0414392
0.0396364
0.0018028
-0.0169619
0.0262569
-0.317293
0.307998
-0.0328636
0.0349925
-0.457385
0.455256
-0.034566
0.0328732
-0.54634
0.548033
-0.0306512
0.0285276
-0.639551
0.641675
-0.0260943
0.0237199
-0.75378
0.756154
-0.0209097
0.0181675
-0.893428
0.896171
-0.0149893
0.0119615
-1.06292
1.06595
-0.00850429
0.00519576
-1.26844
1.27175
-0.00136265
-0.00237999
-1.51817
1.52192
0.00607355
-0.00975991
-1.51908
1.52277
0.0128694
-0.0160601
-1.27065
1.27384
0.0188188
-0.0216888
-1.06602
1.06889
0.0241523
-0.0266767
-0.897274
0.899799
0.0288171
-0.0310231
-0.758712
0.760918
0.0329581
-0.0349871
-0.645802
0.647831
0.036494
-0.0366908
-0.550903
0.5511
0.0342936
-0.0273142
-0.435423
0.428444
0.0176441
-0.00746623
-0.239774
0.229596
0.00189938
-0.0408834
0.0389841
-0.0380848
0.0367305
0.0013543
-0.0129651
0.0209753
-0.29935
0.29134
-0.0277558
0.0306883
-0.452698
0.449765
-0.0309042
0.0297861
-0.549467
0.550585
-0.0277915
0.0258686
-0.643727
0.64565
-0.0236612
0.0215249
-0.75839
0.760526
-0.0190241
0.0165634
-0.89871
0.901171
-0.0136531
0.0108078
-1.06883
1.07168
-0.00748955
0.00428353
-1.27497
1.27818
-0.000562266
-0.00305821
-1.52558
1.5292
0.00661693
-0.0101542
-1.52638
1.52992
0.0131125
-0.0160998
-1.27696
1.27995
0.0186103
-0.0211363
-1.07161
1.07413
0.0232495
-0.0253906
-0.902114
0.904255
0.0272285
-0.029144
-0.762965
0.76488
0.0308286
-0.032594
-0.649703
0.651468
0.0334415
-0.0329034
-0.550936
0.550398
0.0295865
-0.0222957
-0.421253
0.413962
0.0138048
-0.00576151
-0.220587
0.212544
0.00147211
-0.0373266
0.0358545
-0.0355474
0.0345033
0.00104417
-0.0101427
0.0169296
-0.283968
0.277181
-0.0234638
0.0268634
-0.446582
0.443183
-0.0276625
0.0269814
-0.551479
0.55216
-0.0252264
0.0234519
-0.647536
0.64931
-0.0213989
0.0194013
-0.762588
0.764585
-0.0170503
0.014743
-0.903487
0.905794
-0.0120299
0.00937019
-1.07437
1.07703
-0.00624002
0.00318221
-1.28127
1.28433
0.000393724
-0.00387447
-1.53272
1.5362
0.00728
-0.0106285
-1.53336
1.53671
0.0133809
-0.0161033
-1.28282
1.28555
0.0183517
-0.0205914
-1.07652
1.07876
0.0224671
-0.0243688
-0.906286
0.908188
0.0259939
-0.0276834
-0.766676
0.768366
0.029162
-0.0305988
-0.653084
0.65452
0.030938
-0.0296902
-0.549516
0.548268
0.0257617
-0.018558
-0.406692
0.399489
0.0111693
-0.00462832
-0.205324
0.198783
0.00118724
-0.0345428
0.0333555
-0.0335857
0.0327707
0.000814968
-0.00805229
0.0137679
-0.27096
0.265245
-0.0198299
0.0234392
-0.439672
0.436063
-0.0247258
0.0242964
-0.552749
0.553179
-0.0228174
0.0211558
-0.651076
0.652737
-0.0192033
0.0173004
-0.766529
0.768432
-0.0150584
0.0128555
-0.907982
0.910185
-0.0102612
0.00772431
-1.07955
1.08209
-0.00474993
0.00184344
-1.28726
1.29016
0.00155656
-0.00486352
-1.53957
1.54288
0.00807868
-0.0112021
-1.53994
1.54307
0.0137338
-0.0162079
-1.28816
1.29064
0.0182385
-0.0202501
-1.08091
1.08292
0.021923
-0.0236122
-0.910001
0.91169
0.0250549
-0.0265565
-0.76996
0.771461
0.0278486
-0.0289205
-0.655749
0.656821
0.0289009
-0.0269963
-0.546698
0.544793
0.0226857
-0.0157682
-0.392424
0.385506
0.00930676
-0.00384034
-0.192831
0.187364
0.000989045
-0.0322812
0.0312921
-0.0320534
0.0314153
0.000638132
-0.00644307
0.011243
-0.260016
0.255216
-0.0167248
0.0203475
-0.432449
0.428826
-0.0219715
0.0217779
-0.55353
0.553723
-0.0205437
0.0189528
-0.654412
0.656003
-0.0170682
0.0152255
-0.770297
0.77214
-0.0130536
0.0109193
-0.912274
0.914409
-0.00840584
0.00595136
-1.0845
1.08696
-0.00308302
0.000299566
-1.29295
1.29574
0.00293981
-0.00606772
-1.54606
1.54919
0.00908253
-0.0119836
-1.54607
1.54897
0.0143164
-0.0165795
-1.29302
1.29529
0.0184195
-0.020224
-1.08486
1.08666
0.02171
-0.0232026
-0.913303
0.914795
0.024477
-0.0258012
-0.772888
0.774212
0.026945
-0.0276134
-0.657671
0.658339
0.0272352
-0.0247885
-0.542634
0.540188
0.0202527
-0.013693
-0.378778
0.372218
0.00797369
-0.00328423
-0.182327
0.177637
0.000849988
-0.0303849
0.0295349
-0.0308561
0.0303607
0.000495381
-0.00515004
0.00915992
-0.250838
0.246828
-0.0140133
0.0174975
-0.42528
0.421796
-0.0193171
0.0193258
-0.55386
0.553851
-0.0183028
0.0167591
-0.657638
0.659182
-0.0149101
0.0130936
-0.77396
0.775776
-0.0109525
0.00885486
-0.916437
0.918534
-0.00639501
0.00400315
-1.08929
1.09168
-0.00121783
-0.00147075
-1.29841
1.3011
0.00457357
-0.00753936
-1.55219
1.55516
0.0103679
-0.0130592
-1.55175
1.55444
0.0151956
-0.0172386
-1.29746
1.29951
0.0188777
-0.0204686
-1.0884
1.08999
0.0217727
-0.0230881
-0.916226
0.917541
0.0242184
-0.0253876
-0.775472
0.776642
0.0263494
-0.026656
-0.658796
0.659103
0.0259034
-0.023012
-0.537531
0.53464
0.0183603
-0.0121609
-0.36586
0.35966
0.0070198
-0.00289293
-0.173264
0.169137
0.000753505
-0.0287453
0.0279918
-0.0299322
0.0295566
0.000375555
-0.00407008
0.00738655
-0.243188
0.239871
-0.0116005
0.0148384
-0.418449
0.415211
-0.0167306
0.0169049
-0.553817
0.553643
-0.0159756
0.0145124
-0.660769
0.662232
-0.0126691
0.0108483
-0.777583
0.779404
-0.00870589
0.0066155
-0.920526
0.922616
-0.00417639
0.0018163
-1.09395
1.09631
0.000910614
-0.00352687
-1.30368
1.30629
0.00651421
-0.00933259
-1.55801
1.56082
0.0119851
-0.0144744
-1.55701
1.5595
0.0164226
-0.0182594
-1.30147
1.30331
0.0197133
-0.021105
-1.09153
1.09292
0.0222317
-0.0233647
-0.918801
0.919934
0.0243431
-0.0253442
-0.777756
0.778757
0.0260567
-0.0260719
-0.659262
0.659277
0.0249287
-0.0216547
-0.531565
0.528291
0.0169412
-0.0110578
-0.353648
0.347765
0.00635244
-0.00262583
-0.165244
0.161517
0.000689695
-0.0272829
0.0265932
-0.0292411
0.0289723
0.000268731
-0.00312375
0.00581426
-0.236888
0.234197
-0.00938831
0.0122969
-0.412158
0.409249
-0.0141511
0.0144272
-0.553481
0.553205
-0.0135624
0.0121646
-0.663753
0.665151
-0.0103164
0.00846841
-0.781219
0.783067
-0.00628962
0.00416924
-0.924606
0.926727
-0.00170851
-0.000649405
-1.09856
1.10092
0.00335954
-0.00592881
-1.30881
1.31137
0.00883007
-0.0115296
-1.56353
1.56623
0.0140271
-0.0163221
-1.56187
1.56416
0.0180785
-0.0196981
-1.30506
1.30668
0.0209564
-0.0221413
-1.09426
1.09545
0.0230885
-0.0240446
-0.921025
0.921981
0.0248777
-0.0257071
-0.779689
0.780519
0.0261574
-0.0259129
-0.659151
0.658906
0.0243495
-0.0207094
-0.524856
0.521216
0.0159442
-0.010306
-0.342044
0.336406
0.00591189
-0.00245669
-0.157961
0.154506
0.000651927
-0.0259366
0.0252846
-0.0287602
0.0285931
0.000167066
-0.00224714
0.00435007
-0.231819
0.229716
-0.00727821
0.00978429
-0.406568
0.404061
-0.0114865
0.0117779
-0.552997
0.552706
-0.0109357
0.00955756
-0.666644
0.668022
-0.00767218
0.00576684
-0.784914
0.786819
-0.00352248
0.00134962
-0.92874
0.930913
0.00115247
-0.00353873
-1.10317
1.10556
0.00625001
-0.00879487
-1.31384
1.31639
0.0116274
-0.0142144
-1.56882
1.5714
0.0165568
-0.0186569
-1.56633
1.56843
0.0202226
-0.0216232
-1.30821
1.30962
0.0226763
-0.0236322
-1.09659
1.09755
0.0243725
-0.0251216
-0.922887
0.923636
0.0257891
-0.0264684
-0.781262
0.781941
0.0266305
-0.0260562
-0.65844
0.657865
0.0240894
-0.0201214
-0.517459
0.513491
0.0153021
-0.00983421
-0.330905
0.325437
0.00564725
-0.00236249
-0.151174
0.147889
0.00063371
-0.024658
0.0240242
-0.0284815
0.0284166
6.48462e-05
-0.00139369
0.00292294
-0.227917
0.226388
-0.00518923
0.00722912
-0.401816
0.399776
-0.00867971
0.00891067
-0.552536
0.552305
-0.00805108
0.00666136
-0.669535
0.670925
-0.00470472
0.002715
-0.788728
0.790717
-0.00037075
-0.00189009
-0.932974
0.935235
0.00447846
-0.0069264
-1.10784
1.11029
0.00967932
-0.0122261
-1.31883
1.32138
0.0150089
-0.017491
-1.57387
1.57635
0.0196766
-0.0215716
-1.57039
1.57229
0.022933
-0.0241011
-1.31092
1.31209
0.0249411
-0.025662
-1.09847
1.09919
0.0261833
-0.0267102
-0.924359
0.924886
0.0272058
-0.0276952
-0.782486
0.782975
0.0275697
-0.026614
-0.657026
0.65607
0.0242284
-0.0199109
-0.50942
0.505102
0.0149973
-0.00961127
-0.320076
0.31469
0.00553574
-0.00233414
-0.144689
0.141487
0.000633323
-0.0234091
0.0227758
-0.028408
0.0284518
-4.37535e-05
-0.000513808
0.00146103
-0.225165
0.224218
-0.00303423
0.00454035
-0.39803
0.396524
-0.00563626
0.00572779
-0.552255
0.552164
-0.00480718
0.00336687
-0.67249
0.67393
-0.00132225
-0.000782976
-0.792708
0.794813
0.00327137
-0.00566168
-0.937388
0.939779
0.00838224
-0.0109298
-1.11263
1.11518
0.0137597
-0.0163382
-1.32383
1.32641
0.0191009
-0.0215006
-1.57872
1.58111
0.0235408
-0.0252285
-1.57404
1.57572
0.0263746
-0.0272914
-1.31315
1.31407
0.0278938
-0.0283495
-1.09989
1.10034
0.0286317
-0.0289145
-0.925389
0.925672
0.0292112
-0.0294228
-0.7832
0.783411
0.0290325
-0.0276022
-0.65482
0.65339
0.0247611
-0.0200705
-0.500707
0.496017
0.015014
-0.00961842
-0.309381
0.303985
0.00556389
-0.00236562
-0.138337
0.135139
0.000649025
-0.0221553
0.0215063
-0.0285513
0.0287111
-0.000159736
0.000415719
-8.28119e-05
-0.223591
0.223258
-0.000746774
0.00163625
-0.395344
0.394455
-0.00226482
0.00211971
-0.55233
0.552475
-0.00106573
-0.000503655
-0.67561
0.677179
0.00269961
-0.00497087
-0.796926
0.799197
0.00764569
-0.0101971
-0.942055
0.944606
0.0130775
-0.0157508
-1.11763
1.1203
0.0186869
-0.0213198
-1.32889
1.33153
0.0240763
-0.0263894
-1.58339
1.5857
0.0282662
-0.029718
-1.57725
1.5787
0.0306224
-0.0312464
-1.31485
1.31547
0.0315787
-0.031746
-1.10077
1.10093
0.0317671
-0.0317832
-0.925928
0.925944
0.0318619
-0.0317611
-0.783272
0.783171
0.0310469
-0.0290786
-0.651689
0.64972
0.0257407
-0.0206263
-0.491265
0.486151
0.0153539
-0.00984671
-0.298631
0.293124
0.0057237
-0.00245312
-0.13196
0.128689
0.000679746
-0.0208652
0.0201854
-0.0289503
0.0292504
-0.000300161
0.0014199
-0.00174096
-0.223284
0.223605
0.00176123
-0.00159558
-0.393888
0.393723
0.00155931
-0.00203749
-0.552987
0.553465
0.00330144
-0.00504821
-0.679052
0.680799
0.00745236
-0.00993231
-0.801469
0.803949
0.0128435
-0.0156071
-0.947039
0.949803
0.0187083
-0.0215604
-1.12288
1.12573
0.0246503
-0.0273668
-1.33406
1.33678
0.0301293
-0.0323517
-1.58788
1.59011
0.0340457
-0.0352254
-1.57996
1.58114
0.0358635
-0.0361631
-1.31594
1.31624
0.0361962
-0.0360453
-1.10102
1.10087
0.0357755
-0.0354878
-0.925902
0.925614
0.0353349
-0.0348153
-0.782619
0.782099
0.0337013
-0.0311044
-0.647544
0.644947
0.0272064
-0.0215919
-0.48098
0.475365
0.0160176
-0.0102919
-0.287622
0.281896
0.00601108
-0.00259443
-0.125409
0.121992
0.000724868
-0.019509
0.0187841
-0.0296231
0.0301014
-0.000478267
0.00271767
-0.00379622
-0.224316
0.225395
0.00469214
-0.00532769
-0.393885
0.39452
0.00600668
-0.00691816
-0.554445
0.555357
0.00845128
-0.0104223
-0.682898
0.684869
0.0130964
-0.0158485
-0.806427
0.809179
0.0190739
-0.0221212
-0.952462
0.955509
0.0255127
-0.0285945
-1.12849
1.13158
0.0318795
-0.0347056
-1.3394
1.34223
0.0374923
-0.0396218
-1.59218
1.59431
0.0411107
-0.0419818
-1.58211
1.58298
0.0422876
-0.0422201
-1.31635
1.31628
0.0419148
-0.0414081
-1.10057
1.10007
0.0408166
-0.0401844
-0.925212
0.92458
0.039715
-0.0387126
-0.781056
0.780054
0.0370784
-0.0337611
-0.642207
0.63889
0.0292152
-0.0230033
-0.469698
0.463486
0.0170222
-0.0109581
-0.276138
0.270074
0.00642564
-0.00278808
-0.118538
0.114901
0.000783417
-0.0180594
0.017276
-0.0306507
0.0313461
-0.000695326
0.00420794
-0.0061765
-0.226895
0.228863
0.00815901
-0.00969681
-0.395559
0.397097
0.011202
-0.0126935
-0.556949
0.558441
0.0146621
-0.0169753
-0.68728
0.689593
0.0200338
-0.023143
-0.811934
0.815043
0.0267532
-0.0301341
-0.958453
0.961834
0.0338623
-0.0372113
-1.13457
1.13792
0.0407233
-0.043671
-1.34495
1.3479
0.0464665
-0.0484638
-1.59627
1.59827
0.049693
-0.0502024
-1.5836
1.58411
0.0501071
-0.0496145
-1.31597
1.31547
0.0489039
-0.0479717
-1.09932
1.09839
0.0470095
-0.0459898
-0.923761
0.922741
0.0450844
-0.0435844
-0.778488
0.776988
0.0413015
-0.0371633
-0.635486
0.631348
0.0318585
-0.0249125
-0.457214
0.450268
0.0183943
-0.0118565
-0.263936
0.257398
0.00697061
-0.00303381
-0.111197
0.10726
0.000854837
-0.0164895
0.0156346
-0.0321103
0.0330921
-0.000981886
0.00608796
-0.00913113
-0.231263
0.234306
0.0123551
-0.0149504
-0.399168
0.401763
0.0174284
-0.0196228
-0.560803
0.562997
0.0221698
-0.0249447
-0.692446
0.695221
0.0285067
-0.0320672
-0.818156
0.821717
0.0361562
-0.0399517
-0.965118
0.968914
0.0440958
-0.0477656
-1.14118
1.14485
0.0515357
-0.054606
-1.35072
1.35379
0.0573804
-0.0591922
-1.60005
1.60186
0.0600915
-0.0601443
-1.58432
1.58437
0.0595931
-0.058571
-1.31465
1.31363
0.0573884
-0.0559558
-1.09712
1.09569
0.0545558
-0.0530773
-0.921438
0.91996
0.0516633
-0.0495692
-0.774888
0.772793
0.0465244
-0.0414114
-0.627143
0.62203
0.0351962
-0.0273508
-0.443252
0.435407
0.0201456
-0.0129842
-0.250745
0.243583
0.00763804
-0.00332495
-0.10323
0.0989173
0.000936323
-0.0147749
0.0138386
-0.0341315
0.0355015
-0.00137004
0.0085472
-0.0129345
-0.237764
0.242152
0.0176464
-0.0214774
-0.405068
0.408899
0.0250847
-0.028113
-0.566306
0.569335
0.031385
-0.0347545
-0.698636
0.702005
0.0389645
-0.043107
-0.82529
0.829433
0.0478134
-0.0521336
-0.972642
0.976962
0.05678
-0.0608108
-1.14843
1.15247
0.0648364
-0.0679856
-1.3567
1.35985
0.0706516
-0.0721647
-1.60338
1.60489
0.0726052
-0.0720664
-1.58404
1.5835
0.0709566
-0.0693029
-1.31217
1.31052
0.0675858
-0.0655869
-1.09381
1.09182
0.0636908
-0.0617037
-0.918108
0.916121
0.0596598
-0.0568634
-0.770038
0.767241
0.0528925
-0.0466098
-0.616862
0.61058
0.0393012
-0.0303499
-0.427486
0.418534
0.0222767
-0.0143235
-0.236265
0.228312
0.0084071
-0.00364724
-0.0944905
0.0897307
0.00102232
-0.0128988
0.0118765
-0.0369104
0.0388441
-0.00193362
0.0119551
-0.0180462
-0.246901
0.252992
0.0245567
-0.0298358
-0.413744
0.419023
0.0347877
-0.0388506
-0.573828
0.57789
0.0430782
-0.0472596
-0.706147
0.710329
0.0523269
-0.0571933
-0.833593
0.83846
0.0626188
-0.067509
-0.981216
0.986106
0.0726586
-0.0770087
-1.15637
1.16072
0.0812043
-0.084322
-1.36277
1.36589
0.0867259
-0.0877726
-1.60603
1.60708
0.0875812
-0.0862779
-1.58249
1.58118
0.0844517
-0.082049
-1.30832
1.30592
0.079705
-0.0770937
-1.08922
1.08661
0.0746827
-0.0720928
-0.913621
0.911031
0.0693641
-0.0656618
-0.763673
0.75997
0.0605813
-0.0528921
-0.60424
0.596551
0.0442501
-0.0339302
-0.409503
0.399183
0.0247724
-0.0158389
-0.220172
0.211239
0.00924107
-0.00397682
-0.084848
0.0795837
0.00110374
-0.0108569
0.00975318
-0.0407774
0.0435772
-0.00279981
0.0168727
-0.0252025
-0.259379
0.267709
0.0339303
-0.0409477
-0.425855
0.432872
0.0475251
-0.0528533
-0.583874
0.589202
0.0583254
-0.0635991
-0.715439
0.720713
0.0697517
-0.0754648
-0.843333
0.849046
0.0816598
-0.0870994
-0.990903
0.996343
0.0926675
-0.0972094
-1.16487
1.16941
0.101381
-0.104247
-1.36865
1.37152
0.106106
-0.106412
-1.6076
1.60791
0.105341
-0.103059
-1.5793
1.57702
0.100357
-0.0970432
-1.30287
1.29956
0.0939482
-0.0906237
-1.08322
1.0799
0.0876355
-0.0843387
-0.90771
0.904413
0.0809339
-0.0761329
-0.755356
0.750555
0.0697064
-0.0603163
-0.588768
0.579378
0.0500585
-0.0380674
-0.388799
0.376808
0.0275767
-0.0174593
-0.202115
0.191997
0.0100777
-0.00427742
-0.0742098
0.0684095
0.0011675
-0.00866504
0.00749754
-0.0462955
0.0505542
-0.00425873
0.024486
-0.0358525
-0.27634
0.287706
0.0474448
-0.056753
-0.442402
0.451711
0.0653085
-0.0720712
-0.597039
0.603802
0.0790466
-0.0857717
-0.726936
0.733661
0.0930672
-0.0995597
-0.854716
0.861208
0.106388
-0.112193
-1.0016
1.0074
0.117903
-0.122327
-1.17359
1.17802
0.126089
-0.128332
-1.37383
1.37607
0.129239
-0.128445
-1.60749
1.60669
0.126178
-0.122649
-1.57399
1.57046
0.118902
-0.114546
-1.29551
1.29116
0.110598
-0.106462
-1.07563
1.07149
0.102825
-0.098709
-0.900145
0.89603
0.0945004
-0.0883455
-0.744646
0.738491
0.0802795
-0.0688483
-0.569794
0.558363
0.0566683
-0.0426762
-0.364783
0.350791
0.0305811
-0.0190748
-0.18175
0.170243
0.0108308
-0.00450418
-0.0625583
0.0562317
0.00119857
-0.00636548
0.00516691
-0.0545207
0.0618448
-0.00732412
0.0379059
-0.0537045
-0.299896
0.315694
0.0692917
-0.0817111
-0.464983
0.477403
0.0923447
-0.100445
-0.613724
0.621824
0.108918
-0.116863
-0.740967
0.748911
0.12504
-0.131933
-0.867484
0.874376
0.13886
-0.144468
-1.01278
1.01839
0.149673
-0.153359
-1.18177
1.18546
0.156048
-0.157053
-1.37745
1.37845
0.15641
-0.154025
-1.60488
1.60249
0.150173
-0.145096
-1.56602
1.56094
0.14007
-0.13449
-1.28598
1.2804
0.129582
-0.124593
-1.06625
1.06127
0.120298
-0.115406
-0.890676
0.885785
0.110101
-0.102245
-0.730979
0.723123
0.0921737
-0.0782413
-0.546513
0.532581
0.0637598
-0.0474892
-0.336772
0.320501
0.0335848
-0.020576
-0.158821
0.145812
0.011445
-0.00463924
-0.050024
0.0432182
0.00118712
-0.00403163
0.0028445
-0.068698
0.0728017
-0.0041037
0.0290174
-0.0426826
-0.334019
0.347684
0.0564718
-0.0677703
-0.494981
0.50628
0.0778276
-0.0872218
-0.633522
0.642917
0.097663
-0.107055
-0.756454
0.765846
0.117419
-0.126606
-0.880423
0.88961
0.136303
-0.144813
-1.02305
1.03156
0.153515
-0.160754
-1.18802
1.19526
0.167605
-0.172649
-1.37824
1.38328
0.176454
-0.177974
-1.59881
1.60033
0.177147
-0.174494
-1.55474
1.55209
0.170844
-0.166056
-1.2739
1.26911
0.161633
-0.156511
-1.05497
1.04985
0.152198
-0.146993
-0.879084
0.87388
0.140405
-0.129329
-0.713506
0.70243
0.114765
-0.0952812
-0.517891
0.498407
0.0757998
-0.0544619
-0.303991
0.282653
0.037145
-0.0218108
-0.133339
0.118005
0.0116375
-0.00452113
-0.0370122
0.0298959
0.00110303
-0.00176973
0.000666702
-0.0799229
0.078094
0.00182897
0.00740469
-0.0163951
-0.36421
0.373201
0.0268512
-0.0348398
-0.522317
0.530305
0.0428898
-0.050907
-0.654664
0.662681
0.0605492
-0.0693934
-0.774927
0.783771
0.0787074
-0.0871618
-0.898266
0.90672
0.0960394
-0.103489
-1.03977
1.04721
0.11128
-0.117387
-1.20227
1.20838
0.123077
-0.126917
-1.38795
1.39179
0.129109
-0.129181
-1.6009
1.60097
0.126901
-0.122763
-1.54849
1.54435
0.117615
-0.11123
-1.26362
1.25723
0.105246
-0.0985687
-1.04326
1.03658
0.0924509
-0.0855025
-0.864371
0.857422
0.0783953
-0.0688005
-0.687471
0.677876
0.0580207
-0.0449945
-0.477304
0.464278
0.0332425
-0.0219586
-0.261356
0.250072
0.0139091
-0.00764627
-0.103461
0.0971983
0.00392367
-0.0015114
-0.0232316
0.0208193
0.000373444
0.00042462
-0.000798064
-0.0813616
0.0784983
0.00286323
-0.00170442
-0.0035131
-0.384582
0.3898
0.0106183
-0.0164761
-0.542471
0.548329
0.0225375
-0.0294803
-0.672672
0.679615
0.0378229
-0.0455039
-0.791753
0.799434
0.0538216
-0.0612084
-0.91445
0.921837
0.0687193
-0.0753758
-1.05449
1.06114
0.0821212
-0.0874769
-1.21404
1.21939
0.0919827
-0.0947292
-1.39492
1.39767
0.0960315
-0.0950598
-1.60024
1.59926
0.0917406
-0.0865671
-1.53944
1.53427
0.0806176
-0.0736082
-1.25052
1.24351
0.0666863
-0.0592045
-1.0288
1.02132
0.0523159
-0.0446433
-0.847859
0.840186
0.0377035
-0.0295003
-0.66462
0.656417
0.0215239
-0.0131904
-0.449333
0.441
0.00733994
-0.00321697
-0.238061
0.233938
0.00119047
-0.000262351
-0.0905307
0.0896026
2.99335e-05
-1.47069e-05
-0.0181358
0.0181205
-2.3135e-05
0.00128564
-0.00126251
-0.0801375
0.0774445
0.00269298
-0.00524095
0.00271834
-0.398176
0.400699
0.00185243
-0.00631384
-0.55746
0.561922
0.0114559
-0.0172705
-0.687551
0.693366
0.0244218
-0.0310269
-0.806504
0.813109
0.0381651
-0.0445321
-0.928721
0.935088
0.0513908
-0.0570684
-1.06739
1.07306
0.0629987
-0.0672361
-1.22434
1.22858
0.0710384
-0.0731854
-1.40017
1.40232
0.0737022
-0.0718618
-1.59777
1.59593
0.0681395
-0.0626356
-1.52843
1.52292
0.0564216
-0.0488113
-1.23613
1.22852
0.0416973
-0.033969
-1.01311
1.00539
0.0266612
-0.0189676
-0.83062
0.822926
0.0120244
-0.00519632
-0.644984
0.638156
-0.000553724
0.0050427
-0.43114
0.426651
-0.00685271
0.00683738
-0.227514
0.227529
-0.00581006
0.00403409
-0.0875531
0.0893291
-0.00247789
0.0010595
-0.0176581
0.0190765
-0.000315751
0.00145659
-0.00114084
-0.0786937
0.0763227
0.00237105
-0.00629988
0.0053426
-0.407276
0.408233
-0.0019748
-0.00129895
-0.569508
0.572781
0.00550306
-0.0107788
-0.700038
0.705313
0.016807
-0.0226338
-0.819027
0.824854
0.028857
-0.0344317
-0.941037
0.946612
0.0403667
-0.0454703
-1.07863
1.08373
0.0505266
-0.0544498
-1.23269
1.23661
0.0576897
-0.0594044
-1.4041
1.40582
0.0595637
-0.0575325
-1.59392
1.59189
0.0537815
-0.0481868
-1.51681
1.51121
0.0421372
-0.0348495
-1.22093
1.21364
0.0278094
-0.0198302
-0.997061
0.989082
0.0124646
-0.00462535
-0.813481
0.805642
-0.0019286
0.00763984
-0.628378
0.622667
-0.0116648
0.0141085
-0.419655
0.417211
-0.0141038
0.0121582
-0.224572
0.226517
-0.00963834
0.00662516
-0.0900017
0.0930149
-0.00403426
0.00173327
-0.020085
0.0223859
-0.000472283
0.000960244
-0.000487961
-0.0773789
0.0753591
0.00201983
-0.00612805
0.00564367
-0.413575
0.41406
-0.00363283
0.000985497
-0.578846
0.581493
0.00316473
-0.00769027
-0.710649
0.715174
0.0129058
-0.0179991
-0.8299
0.834993
0.0235815
-0.0286138
-0.951871
0.956904
0.0341
-0.0386166
-1.08858
1.0931
0.0432108
-0.046777
-1.24027
1.24384
0.0496553
-0.0511369
-1.4073
1.40878
0.0511544
-0.0495065
-1.58984
1.58819
0.0458684
-0.0406481
-1.5053
1.50008
0.034811
-0.0277447
-1.20624
1.19917
0.0211272
-0.013273
-0.980852
0.972998
0.00616165
0.00108744
-0.796901
0.789652
-0.00693605
0.0119693
-0.613981
0.608948
-0.0152144
0.0170843
-0.412033
0.410163
-0.0163624
0.0137866
-0.225408
0.227984
-0.0109395
0.00752413
-0.0949428
0.0983581
-0.00459086
0.00201127
-0.0241169
0.0266965
-0.000534042
4.47752e-05
0.000489266
-0.0764125
0.0748499
0.0015626
-0.00521934
0.00504298
-0.418324
0.418501
-0.00340295
0.00137509
-0.587031
0.589059
0.00254496
-0.00665769
-0.719881
0.723993
0.0116385
-0.0160629
-0.839696
0.84412
0.0210122
-0.025516
-0.96193
0.966434
0.0307647
-0.0349089
-1.09766
1.1018
0.0390353
-0.0424623
-1.24724
1.25066
0.0455672
-0.0469914
-1.41031
1.41174
0.0471863
-0.0455974
-1.58621
1.58462
0.0424322
-0.0371787
-1.49467
1.48942
0.0317291
-0.0251401
-1.19198
1.18539
0.0188128
-0.0117976
-0.965259
0.958244
0.00534689
0.00133081
-0.781758
0.77508
-0.00640661
0.0112026
-0.601261
0.596465
-0.0141518
0.0157311
-0.405799
0.40422
-0.0153445
0.0132074
-0.227493
0.22963
-0.0105401
0.00729206
-0.100536
0.103784
-0.00449815
0.00203543
-0.0285201
0.0309828
-0.000590101
-0.000930621
0.00152072
-0.0759549
0.0747362
0.00121865
-0.00413908
0.00407599
-0.422157
0.42222
-0.00260748
0.000669727
-0.59421
0.596147
0.00313562
-0.00684726
-0.728228
0.73194
0.0111528
-0.0154484
-0.848487
0.852782
0.020053
-0.0247138
-0.970763
0.975424
0.0292645
-0.0332534
-1.10605
1.11004
0.0375478
-0.0407885
-1.25399
1.25723
0.0435036
-0.0454234
-1.41311
1.41503
0.045887
-0.0446364
-1.5831
1.58185
0.0416654
-0.0370277
-1.48436
1.47972
0.0320066
-0.0259919
-1.17859
1.17258
0.0204096
-0.0142251
-0.951322
0.945138
0.00856137
-0.00266563
-0.768181
0.762285
-0.00256194
0.00728694
-0.589497
0.584772
-0.0102267
0.0119559
-0.400181
0.398452
-0.0120244
0.0104193
-0.229139
0.230744
-0.00839219
0.00586587
-0.105429
0.107955
-0.00367079
0.00169796
-0.0325052
0.034478
-0.000517232
-0.00189627
0.0024135
-0.076023
0.0750101
0.00101299
-0.0028778
0.00257199
-0.425626
0.425932
-0.00128293
-0.000727653
-0.600808
0.602818
0.00423446
-0.00783811
-0.736046
0.73965
0.0119895
-0.0159014
-0.856858
0.86077
0.0206369
-0.0245293
-0.979525
0.983417
0.0290647
-0.0328982
-1.11419
1.11802
0.0371216
-0.0406111
-1.26048
1.26397
0.0436846
-0.0454669
-1.41675
1.41853
0.04635
-0.0455757
-1.58056
1.57978
0.043351
-0.0392405
-1.47506
1.47095
0.0349582
-0.0297775
-1.16689
1.16171
0.0250128
-0.019553
-0.938985
0.933525
0.0145282
-0.00881567
-0.755859
0.750147
0.00360751
0.00144642
-0.578175
0.573121
-0.00476427
0.00652653
-0.394254
0.392491
-0.00708701
0.0063998
-0.229789
0.230476
-0.00527759
0.00373819
-0.108828
0.110367
-0.0023819
0.00114915
-0.0354027
0.0366355
-0.000366347
-0.00266278
0.00302912
-0.0763693
0.0756686
0.000700765
-0.00175239
0.0010468
-0.429208
0.429913
1.39665e-05
-0.00231888
-0.606648
0.608953
0.0054866
-0.0089741
-0.743365
0.746852
0.0129641
-0.0170119
-0.864535
0.868582
0.0211456
-0.0252059
-0.987521
0.991581
0.0297218
-0.0333778
-1.12229
1.12595
0.0377369
-0.0412375
-1.26729
1.27079
0.0444428
-0.0468229
-1.42075
1.42313
0.0482858
-0.0479316
-1.5791
1.57875
0.0461851
-0.0431428
-1.46719
1.46415
0.039792
-0.0353992
-1.15668
1.15229
0.0311724
-0.0263677
-0.928111
0.923306
0.021165
-0.0155757
-0.743799
0.73821
0.0102822
-0.00497842
-0.566889
0.561586
0.00141397
0.000941312
-0.387878
0.385523
-0.0019289
0.00223516
-0.229012
0.228706
-0.00199235
0.00147997
-0.110283
0.110796
-0.00100872
0.000528947
-0.0368606
0.0373404
-0.000188081
-0.00311579
0.00330388
-0.0771244
0.0765783
0.000546009
-0.000804701
0.00022389
-0.433012
0.433593
0.0016007
-0.00366513
-0.612745
0.614809
0.00698179
-0.0103536
-0.750202
0.753574
0.0141931
-0.0178487
-0.872292
0.875947
0.0221135
-0.0258734
-0.995652
0.999412
0.0303616
-0.0344801
-1.13006
1.13418
0.0385314
-0.0424106
-1.27436
1.27824
0.0460974
-0.0486406
-1.42545
1.42799
0.0505855
-0.0511872
-1.5787
1.5793
0.0501588
-0.0480997
-1.4612
1.45914
0.0452718
-0.0415695
-1.14813
1.14443
0.0377924
-0.0329878
-0.918046
0.913242
0.0278815
-0.022079
-0.731703
0.7259
0.0167015
-0.0112458
-0.555211
0.549755
0.00736729
-0.00452893
-0.380919
0.378081
0.00275109
-0.0016307
-0.226436
0.225316
0.000945559
-0.000433756
-0.109754
0.109242
0.000108497
7.09397e-05
-0.0369419
0.0367625
-7.08863e-05
-0.00323795
0.00330884
-0.0781438
0.0777828
0.000361066
0.000236575
-0.00108242
-0.436898
0.437744
0.00271221
-0.00508473
-0.618376
0.620748
0.00833342
-0.0115538
-0.756813
0.760033
0.0154706
-0.0189779
-0.879571
0.883079
0.0230958
-0.0269917
-1.00365
1.00755
0.0314086
-0.0355249
-1.13817
1.14228
0.0398387
-0.0437871
-1.28206
1.28601
0.0477121
-0.0510582
-1.43085
1.43419
0.0535549
-0.0546244
-1.57994
1.58101
0.0545148
-0.0530165
-1.45714
1.45564
0.050876
-0.0477028
-1.14074
1.13757
0.0438478
-0.0390024
-0.908018
0.903172
0.0338412
-0.027858
-0.719394
0.713411
0.0226047
-0.0171325
-0.543713
0.538241
0.0131285
-0.00965517
-0.373314
0.36984