/*--------------------------------*- C++ -*----------------------------------*\
| =========                 |                                                 |
| \\      /  F ield         | OpenFOAM: The Open Source CFD Toolbox           |
|  \\    /   O peration     | Version:  4.0                                   |
|   \\  /    A nd           | Web:      www.OpenFOAM.org                      |
|    \\/     M anipulation  |                                                 |
\*---------------------------------------------------------------------------*/
FoamFile
{
    version     2.0;
    format      ascii;
    class       volScalarField;
    location    "53";
    object      p;
}
// * * * * * * * * * * * * * * * * * * * * * * * * * * * * * * * * * * * * * //

dimensions      [0 2 -2 0 0 0 0];

internalField   nonuniform List<scalar> 
2200
(
0.776669
0.75517
0.739262
0.723595
0.708987
0.696465
0.686111
0.678006
0.672298
0.669353
0.669813
0.673607
0.679955
0.688516
0.699196
0.711962
0.726745
0.742658
0.758695
0.780195
0.709097
0.705839
0.702916
0.698797
0.693329
0.686854
0.680235
0.67428
0.669774
0.667379
0.667869
0.671159
0.676333
0.682785
0.68976
0.696509
0.702173
0.706276
0.709133
0.712489
0.669186
0.669406
0.671457
0.672797
0.673188
0.672334
0.670345
0.667666
0.665123
0.663632
0.664192
0.666644
0.669912
0.673122
0.67546
0.676456
0.676183
0.675178
0.673524
0.673276
0.646671
0.648118
0.650724
0.653193
0.655636
0.657653
0.658809
0.659037
0.65866
0.658361
0.658986
0.660361
0.661555
0.661944
0.661257
0.659585
0.657419
0.655211
0.652596
0.651191
0.632357
0.634332
0.637149
0.639976
0.642826
0.645653
0.64811
0.649971
0.651196
0.65199
0.652712
0.653183
0.652938
0.651821
0.649951
0.647575
0.645026
0.642302
0.639504
0.637579
0.625012
0.62661
0.628808
0.631332
0.633997
0.636663
0.639248
0.64166
0.643668
0.645173
0.646026
0.646035
0.645206
0.643688
0.641792
0.639648
0.637317
0.634974
0.632878
0.631302
0.621593
0.622615
0.623881
0.625742
0.627886
0.630053
0.632243
0.634526
0.636742
0.638579
0.639597
0.639596
0.638809
0.637598
0.636193
0.63463
0.63294
0.631367
0.630247
0.629231
0.618956
0.619627
0.620259
0.621559
0.623169
0.624848
0.626596
0.628519
0.630577
0.632526
0.633764
0.634069
0.633729
0.633101
0.632314
0.631351
0.630283
0.629348
0.628899
0.628223
0.615712
0.616158
0.616553
0.617545
0.618807
0.620189
0.621681
0.623334
0.625171
0.62712
0.628612
0.629378
0.629632
0.629567
0.629278
0.628802
0.628213
0.627669
0.627477
0.627013
0.611673
0.611969
0.612327
0.613195
0.614303
0.615569
0.616997
0.618599
0.620389
0.622379
0.624227
0.625529
0.626283
0.626645
0.626707
0.626551
0.626238
0.6259
0.625767
0.625444
0.607003
0.607205
0.607575
0.608403
0.609491
0.610794
0.612309
0.614038
0.615996
0.618229
0.620469
0.622251
0.623425
0.624096
0.6244
0.62446
0.624317
0.624121
0.624008
0.623773
0.601841
0.601987
0.602358
0.603167
0.604314
0.60575
0.607462
0.609442
0.611721
0.61436
0.617116
0.61937
0.620902
0.621845
0.622362
0.622579
0.622634
0.622581
0.622501
0.622313
0.596265
0.596375
0.596753
0.597569
0.598781
0.600365
0.602316
0.60464
0.607374
0.61057
0.613934
0.616738
0.618678
0.619929
0.620694
0.621134
0.621375
0.621445
0.621405
0.621243
0.590294
0.590362
0.590741
0.591585
0.592921
0.594692
0.59691
0.599629
0.602952
0.606896
0.611009
0.614396
0.616788
0.618414
0.619527
0.620258
0.620703
0.620909
0.620908
0.620757
0.583827
0.583866
0.584286
0.585193
0.586665
0.588647
0.591176
0.594346
0.598296
0.603059
0.608081
0.612209
0.615224
0.617408
0.618945
0.620001
0.620694
0.621045
0.62109
0.620941
0.576759
0.576734
0.577154
0.578145
0.579829
0.58207
0.584932
0.588593
0.593252
0.598973
0.605064
0.61025
0.614078
0.616897
0.618986
0.620446
0.62141
0.621911
0.62201
0.621861
0.568791
0.568764
0.569215
0.570333
0.572242
0.574785
0.5781
0.582396
0.587907
0.594783
0.602206
0.6086
0.613465
0.617077
0.619762
0.621692
0.622978
0.623646
0.623799
0.623641
0.559846
0.559869
0.560293
0.561515
0.563739
0.566724
0.570664
0.575782
0.582381
0.590676
0.599702
0.607502
0.613492
0.618024
0.621406
0.623841
0.62547
0.626314
0.62652
0.62635
0.549448
0.549427
0.549967
0.551408
0.554019
0.557608
0.562384
0.568587
0.576558
0.586564
0.597495
0.607014
0.614329
0.619852
0.623967
0.627008
0.62902
0.63004
0.630296
0.630108
0.537131
0.537064
0.537739
0.539557
0.542686
0.547039
0.552896
0.560519
0.570308
0.582531
0.595772
0.607211
0.615968
0.622612
0.627629
0.631276
0.633707
0.634909
0.63521
0.634997
0.522543
0.522436
0.523206
0.525412
0.5293
0.534732
0.542035
0.551575
0.563774
0.578747
0.594616
0.608121
0.618487
0.626402
0.632368
0.636755
0.639645
0.641012
0.641349
0.641109
0.504724
0.504639
0.505633
0.508389
0.513282
0.520201
0.529514
0.54156
0.556738
0.574972
0.593929
0.609862
0.621997
0.631292
0.638328
0.643518
0.64687
0.648416
0.648774
0.6485
0.4827
0.482548
0.483855
0.487456
0.493855
0.502905
0.514907
0.530179
0.548934
0.570973
0.593471
0.612267
0.626522
0.637352
0.645575
0.651615
0.655428
0.657123
0.657485
0.657174
0.454313
0.454315
0.456377
0.461393
0.470033
0.482146
0.497877
0.517273
0.540346
0.566807
0.593411
0.615377
0.631929
0.64451
0.65407
0.661002
0.665267
0.667095
0.667427
0.667073
0.416756
0.416994
0.420493
0.428335
0.440906
0.457869
0.478834
0.503649
0.532115
0.563752
0.59467
0.619794
0.638645
0.652982
0.663874
0.671738
0.676368
0.678209
0.678465
0.678071
0.366602
0.366971
0.373901
0.387053
0.406083
0.430233
0.458239
0.489749
0.524475
0.561815
0.597302
0.625653
0.64678
0.662832
0.675033
0.68359
0.688283
0.689881
0.689972
0.68962
0.30042
0.303238
0.318248
0.339514
0.367418
0.400492
0.436661
0.475649
0.517328
0.561087
0.60186
0.633943
0.657947
0.676232
0.689942
0.699488
0.704312
0.705616
0.705572
0.705401
0.225142
0.234514
0.259522
0.290623
0.328615
0.370706
0.415032
0.461705
0.510634
0.561176
0.607645
0.644573
0.672231
0.693149
0.709086
0.719738
0.724635
0.725532
0.725451
0.725413
0.157739
0.172403
0.203685
0.243578
0.291066
0.341926
0.394228
0.448495
0.504487
0.561591
0.614034
0.655422
0.6862
0.709733
0.727167
0.73881
0.743916
0.744713
0.74495
0.744921
0.106267
0.119416
0.156036
0.202033
0.256825
0.315158
0.374823
0.436376
0.499475
0.563325
0.621515
0.666515
0.700206
0.725667
0.744563
0.757091
0.762572
0.763891
0.764039
0.764085
0.0638385
0.0762396
0.116545
0.16649
0.226774
0.291127
0.357292
0.425437
0.494981
0.564798
0.627604
0.676661
0.713082
0.740487
0.760979
0.77414
0.780297
0.78197
0.782074
0.78216
0.0274617
0.040136
0.0831159
0.135949
0.200616
0.269822
0.341442
0.415187
0.490221
0.565557
0.633575
0.686303
0.724826
0.753951
0.775756
0.789678
0.796161
0.798062
0.798221
0.798304
-0.00426905
0.00861508
0.0537641
0.109183
0.177443
0.250621
0.32682
0.405397
0.485526
0.566314
0.639002
0.694525
0.735449
0.766073
0.788627
0.803186
0.81012
0.812183
0.812427
0.8125
-0.0325811
-0.0196448
0.0272036
0.0850763
0.156426
0.232992
0.31316
0.396075
0.480934
0.566393
0.642875
0.701765
0.74463
0.77629
0.799577
0.814779
0.821926
0.824207
0.824513
0.82456
-0.0584143
-0.0454442
0.00260253
0.0628532
0.136972
0.216541
0.300215
0.386953
0.475931
0.565662
0.646526
0.708247
0.752533
0.78547
0.809032
0.82452
0.832031
0.834495
0.834863
0.834882
-0.082569
-0.0692663
-0.0204049
0.042017
0.118582
0.20086
0.287642
0.377709
0.470401
0.564349
0.649194
0.713323
0.759544
0.793301
0.81748
0.833157
0.840767
0.843358
0.843729
0.843702
-0.10527
-0.0917854
-0.0420545
0.0222571
0.100917
0.185602
0.275114
0.368161
0.464324
0.562212
0.650771
0.718013
0.766001
0.800623
0.825188
0.840655
0.848393
0.850904
0.851263
0.851105
-0.126671
-0.11314
-0.0626291
0.00329172
0.0837192
0.17052
0.26248
0.358275
0.457623
0.559072
0.651419
0.72204
0.771924
0.807496
0.832238
0.847534
0.85494
0.857448
0.857787
0.857682
-0.147186
-0.133484
-0.0823438
-0.0150856
0.0668632
0.15555
0.249707
0.347977
0.450148
0.554978
0.651407
0.725449
0.777566
0.814387
0.839011
0.85384
0.861065
0.863342
0.863677
0.863576
-0.16722
-0.152991
-0.101403
-0.0329924
0.0502832
0.140645
0.236764
0.33724
0.441989
0.550174
0.650625
0.728226
0.783295
0.821336
0.845997
0.860259
0.866831
0.868818
0.869061
0.868962
-0.186942
-0.171949
-0.119932
-0.0504838
0.0339575
0.125803
0.223654
0.326107
0.433262
0.544549
0.648809
0.730386
0.788683
0.828769
0.853718
0.866987
0.872673
0.873882
0.874004
0.873931
-0.206209
-0.190481
-0.138009
-0.0675726
0.0178931
0.111019
0.210377
0.31462
0.423989
0.538062
0.646021
0.731864
0.793906
0.836691
0.862537
0.874868
0.878687
0.878619
0.878473
0.878348
-0.224948
-0.208621
-0.155623
-0.0842589
0.00210128
0.0963276
0.196995
0.30285
0.414239
0.530818
0.642145
0.732262
0.798599
0.845116
0.87304
0.884415
0.885828
0.883157
0.882769
0.883624
-0.243057
-0.22628
-0.172746
-0.100521
-0.0133721
0.0817916
0.183582
0.290851
0.404011
0.522755
0.637018
0.731415
0.802662
0.853767
0.885248
0.89719
0.895728
0.8891
0.884061
0.882721
-0.260557
-0.2434
-0.189318
-0.116317
-0.0284767
0.0674861
0.170219
0.278672
0.393329
0.513953
0.630758
0.729125
0.805394
0.862337
0.899077
0.91409
0.913391
0.901779
0.900901
0.905087
-0.277412
-0.259897
-0.205293
-0.131597
-0.0431472
0.0534812
0.156971
0.266375
0.382268
0.504501
0.623452
0.725186
0.8065
0.869742
0.913577
0.934947
0.937272
0.908453
0.868524
0.833181
-0.293595
-0.275801
-0.220698
-0.146419
-0.0574802
0.0396535
0.143691
0.253792
0.370633
0.494174
0.61481
0.719116
0.804814
0.874957
0.927822
0.958792
0.97613
0.956568
0.973569
1.0326
-0.309039
-0.291129
-0.235629
-0.16093
-0.0716558
0.0257771
0.130108
0.240605
0.358023
0.482423
0.604222
0.710282
0.799322
0.875059
0.933558
0.968994
0.979138
0.956836
0.915295
0.930388
-0.323735
-0.305878
-0.250034
-0.175071
-0.0856032
0.0119469
0.116356
0.226971
0.344576
0.469313
0.591667
0.698364
0.788059
0.865506
0.924771
0.959756
0.94679
0.892508
0.828337
0.815982
-0.337652
-0.320007
-0.263915
-0.188852
-0.0993225
-0.00182867
0.102459
0.212919
0.330318
0.454864
0.577068
0.683118
0.77091
0.843802
0.897522
0.905508
0.870153
0.792958
0.718285
0.695753
-0.350841
-0.333537
-0.277277
-0.202282
-0.112833
-0.015562
0.0884185
0.198461
0.315268
0.439063
0.560259
0.664236
0.74645
0.807817
0.836864
0.823864
0.765557
0.663805
0.576363
0.554083
-0.363748
-0.346841
-0.290516
-0.215734
-0.126486
-0.0295617
0.0739619
0.183367
0.299257
0.421771
0.541058
0.641246
0.716134
0.761686
0.756738
0.721837
0.610757
0.488248
0.380785
0.35356
-0.377272
-0.360757
-0.304325
-0.229817
-0.140849
-0.0443156
0.0586716
0.167298
0.282027
0.402747
0.519134
0.613655
0.68136
0.702891
0.6694
0.581604
0.425664
0.273023
0.143709
0.116055
-0.391926
-0.375631
-0.319034
-0.244784
-0.156103
-0.0599533
0.0424575
0.150209
0.263576
0.382018
0.494492
0.582486
0.63985
0.633245
0.580816
0.431248
0.231735
0.0193935
-0.160548
-0.209
-0.407842
-0.391638
-0.334695
-0.26064
-0.172231
-0.0764533
0.0253462
0.132134
0.243952
0.359655
0.467107
0.549179
0.591899
0.55358
0.466459
0.278966
0.0482016
-0.240028
-0.560862
-0.708772
-0.425076
-0.408783
-0.351445
-0.277507
-0.189295
-0.0938752
0.00727585
0.113008
0.2231
0.335695
0.437337
0.513108
0.538102
0.469382
0.333307
0.128343
-0.105172
-0.448321
-1.03438
-1.60597
-0.443732
-0.427269
-0.369338
-0.295414
-0.207314
-0.112218
-0.0117245
0.0929016
0.201181
0.310568
0.406314
0.474363
0.48063
0.39528
0.204624
-0.0282962
-0.230482
-0.464452
-1.01896
-2.53246
-0.463803
-0.447032
-0.388499
-0.314531
-0.22646
-0.13168
-0.0318926
0.0715386
0.177872
0.283897
0.37369
0.432321
0.418252
0.337386
0.111824
-0.125851
-0.273067
-0.309775
-0.299059
-0.686453
-0.485251
-0.468408
-0.40907
-0.335104
-0.247123
-0.152765
-0.0538596
0.0481468
0.152233
0.254344
0.338631
0.387017
0.357224
0.28837
0.0621062
-0.139625
-0.249839
-0.257357
-0.203983
-0.244138
-0.507881
-0.49102
-0.431087
-0.357265
-0.269409
-0.175604
-0.0777765
0.0225688
0.124056
0.221678
0.301146
0.339702
0.30352
0.235449
0.0305477
-0.12976
-0.211456
-0.21913
-0.267075
-0.2712
-0.531837
-0.514967
-0.454415
-0.380924
-0.293277
-0.200216
-0.103692
-0.00526853
0.0932866
0.186298
0.261201
0.290245
0.257004
0.175224
0.00270355
-0.119675
-0.189661
-0.166519
-0.186983
-0.18856
-0.55665
-0.539624
-0.479022
-0.406093
-0.31863
-0.226533
-0.131522
-0.0352311
0.0600933
0.148587
0.218916
0.237469
0.216433
0.107898
-0.0318211
-0.114631
-0.15358
-0.20087
-0.175738
-0.184179
-0.582176
-0.564768
-0.504658
-0.432457
-0.345175
-0.254378
-0.161089
-0.0671317
0.0246136
0.108878
0.175198
0.183608
0.17419
0.0476745
-0.0685858
-0.132951
-0.110488
-0.170153
-0.150835
-0.155652
-0.607415
-0.589832
-0.531241
-0.45979
-0.372656
-0.28354
-0.192104
-0.100605
-0.0129038
0.0675813
0.131144
0.132165
0.122873
-0.00393617
-0.0952745
-0.14699
-0.135395
-0.150601
-0.156048
-0.154234
-0.632077
-0.614628
-0.55794
-0.487192
-0.400613
-0.313614
-0.224159
-0.135285
-0.0519526
0.0249596
0.087123
0.0844658
0.0664847
-0.0468896
-0.1095
-0.139931
-0.178823
-0.151126
-0.157214
-0.151745
-0.655055
-0.638347
-0.583665
-0.514013
-0.42883
-0.344109
-0.256727
-0.170591
-0.0916668
-0.0186518
0.0428109
0.0404055
0.0112805
-0.0839536
-0.124493
-0.113074
-0.185742
-0.132004
-0.147572
-0.139988
-0.675759
-0.660175
-0.607416
-0.538995
-0.4567
-0.374161
-0.289098
-0.20593
-0.131073
-0.062773
-0.00193016
-0.000608128
-0.0357157
-0.102785
-0.135937
-0.0952092
-0.14008
-0.121655
-0.128109
-0.125252
-0.692508
-0.678582
-0.62842
-0.562004
-0.483414
-0.402833
-0.320473
-0.240484
-0.169223
-0.106545
-0.0471247
-0.0403383
-0.070393
-0.106709
-0.130726
-0.109649
-0.121496
-0.121804
-0.122239
-0.122566
-0.704535
-0.692725
-0.645793
-0.581787
-0.506916
-0.429142
-0.349875
-0.273338
-0.205231
-0.148684
-0.09121
-0.0783724
-0.0992591
-0.104815
-0.122212
-0.135462
-0.123924
-0.132006
-0.12585
-0.127134
-0.71037
-0.70098
-0.658256
-0.597591
-0.526453
-0.452008
-0.376264
-0.303277
-0.238131
-0.187247
-0.131574
-0.115772
-0.136465
-0.109877
-0.0992779
-0.130722
-0.112032
-0.141153
-0.13848
-0.140995
-0.70998
-0.70272
-0.664239
-0.607327
-0.54028
-0.469958
-0.398256
-0.329037
-0.266993
-0.220264
-0.167155
-0.151601
-0.178112
-0.140339
-0.0398686
-0.0758933
-0.0743072
-0.0917218
-0.0976405
-0.10697
-0.702352
-0.695045
-0.661806
-0.61027
-0.548098
-0.482126
-0.414588
-0.34888
-0.289744
-0.245388
-0.196351
-0.187959
-0.21494
-0.241399
-0.20678
-0.269186
-0.27715
-0.26688
-0.259151
-0.253898
-0.682574
-0.674342
-0.64883
-0.604383
-0.548045
-0.487191
-0.424166
-0.361538
-0.304052
-0.260106
-0.214227
-0.207655
-0.281553
-0.456105
-0.761933
-0.911122
-0.950453
-0.919715
-0.841734
-0.777342
-0.641814
-0.634082
-0.623664
-0.590679
-0.541494
-0.485502
-0.42659
-0.365681
-0.307279
-0.260579
-0.215898
-0.191469
-0.302815
-0.518363
-0.780513
-0.87514
-0.85657
-0.776488
-0.708183
-0.674612
-0.599188
-0.596058
-0.594883
-0.569074
-0.528217
-0.478137
-0.422328
-0.361543
-0.29856
-0.243338
-0.190661
-0.118064
-0.0630422
0.0132295
0.0633031
0.169063
0.283217
0.358981
0.4238
0.476849
-0.575557
-0.576709
-0.568141
-0.550532
-0.516184
-0.468624
-0.412526
-0.350362
-0.279824
-0.205184
-0.130069
0.0124546
0.20708
0.52735
0.838887
1.09632
1.27816
1.38135
1.42585
1.44348
-0.54427
-0.544716
-0.540311
-0.534476
-0.50503
-0.459664
-0.402266
-0.336642
-0.258316
-0.165033
-0.0639132
0.0849616
0.334096
0.685477
1.02966
1.31442
1.51476
1.63224
1.68633
1.7057
-0.522949
-0.521495
-0.523406
-0.517787
-0.494201
-0.451264
-0.392732
-0.322907
-0.239891
-0.137231
-0.0245087
0.0989076
0.344002
0.655934
0.964852
1.23073
1.4334
1.5572
1.61279
1.62896
-0.506308
-0.504587
-0.507927
-0.500885
-0.487111
-0.447279
-0.386938
-0.313169
-0.227601
-0.123824
-0.0133941
0.0765645
0.282811
0.547941
0.805507
1.02909
1.20852
1.31753
1.36584
1.37834
-0.487815
-0.486489
-0.485167
-0.479548
-0.479262
-0.4434
-0.383631
-0.308393
-0.223568
-0.125803
-0.0220905
0.0445654
0.204467
0.426415
0.633999
0.808838
0.949903
1.03643
1.07352
1.08269
-0.489914
-0.488068
-0.484233
-0.485037
-0.483152
-0.443385
-0.381653
-0.305871
-0.22344
-0.136204
-0.0387725
0.016135
0.132051
0.312841
0.476753
0.607971
0.711278
0.7763
0.804581
0.811533
-0.506262
-0.505839
-0.505934
-0.516081
-0.503864
-0.452169
-0.38106
-0.302303
-0.222305
-0.14647
-0.0554374
-0.00615065
0.0729265
0.215399
0.341796
0.438025
0.511822
0.559775
0.579325
0.584076
-0.517201
-0.519675
-0.52678
-0.534018
-0.516321
-0.452881
-0.374969
-0.293856
-0.216301
-0.15113
-0.0684307
-0.0226193
0.0276769
0.137345
0.232492
0.302095
0.355776
0.391398
0.404929
0.409713
-0.475154
-0.478449
-0.48855
-0.493455
-0.475416
-0.418058
-0.347432
-0.274017
-0.202301
-0.14713
-0.0763433
-0.0342144
-0.0024889
0.0809047
0.150776
0.200652
0.240685
0.268269
0.278649
0.281281
-0.351465
-0.356921
-0.363207
-0.368438
-0.358391
-0.326275
-0.282244
-0.232516
-0.17677
-0.132902
-0.0777453
-0.0421382
-0.0203583
0.0445416
0.0942017
0.128688
0.157349
0.174986
0.182947
0.18527
-0.212188
-0.214769
-0.2183
-0.22233
-0.219319
-0.209641
-0.194024
-0.171598
-0.13918
-0.109302
-0.0723312
-0.0442735
-0.0283564
0.021242
0.0552406
0.0786785
0.0964698
0.106502
0.110398
0.111031
-0.0938858
-0.0952563
-0.0979427
-0.103205
-0.107902
-0.1122
-0.113916
-0.109749
-0.0970551
-0.0821787
-0.061237
-0.0419333
-0.027955
0.00586903
0.0282159
0.0428827
0.0523643
0.0566872
0.0573604
0.056567
-0.0128643
-0.0138262
-0.0158465
-0.0221035
-0.0332224
-0.0455329
-0.0551907
-0.0604606
-0.0599719
-0.0568433
-0.0469785
-0.0356568
-0.025107
-0.00414401
0.00905165
0.0167043
0.0204233
0.0207816
0.019461
0.0181774
0.0310624
0.0304586
0.0287747
0.0226902
0.0106379
-0.00416217
-0.0172782
-0.0272895
-0.0327366
-0.0363054
-0.0327119
-0.0273133
-0.0215185
-0.01082
-0.00484714
-0.00220481
-0.00158965
-0.00297371
-0.00513902
-0.00657074
0.0511546
0.0506171
0.0490619
0.0435961
0.0327933
0.0187031
0.005146
-0.00666297
-0.0146888
-0.0212777
-0.020462
-0.0190656
-0.0178886
-0.013975
-0.0130307
-0.0134712
-0.014811
-0.0171464
-0.019313
-0.0206645
0.0565788
0.0561635
0.0549095
0.0504818
0.0416614
0.0297174
0.0173553
0.00555939
-0.00319778
-0.010928
-0.0113923
-0.0119179
-0.014109
-0.0140805
-0.015622
-0.0176446
-0.0201791
-0.0229384
-0.0249601
-0.026232
0.0544347
0.0541311
0.0531607
0.0497936
0.0430854
0.0337263
0.0233673
0.0127339
0.00435216
-0.0036611
-0.00520241
-0.0068318
-0.0101194
-0.0116736
-0.0142172
-0.0171343
-0.0201232
-0.0227107
-0.0244641
-0.0256165
0.0489801
0.0487755
0.0480665
0.0456124
0.0407114
0.0337534
0.0255796
0.0167122
0.00951187
0.00166851
-0.00062505
-0.00306439
-0.00603903
-0.00765378
-0.0105563
-0.0137924
-0.0166735
-0.018825
-0.0201217
-0.021124
0.0423149
0.0421962
0.0417073
0.0400067
0.0365601
0.0315471
0.0254344
0.0184348
0.0127237
0.00537976
0.00286765
0.000669759
-0.00197585
-0.00390573
-0.00671102
-0.0094283
-0.01171
-0.0133371
-0.0141769
-0.0150575
0.0354347
0.0353584
0.0350092
0.0338142
0.0313929
0.02781
0.0233291
0.0179175
0.0138738
0.0076962
0.00549142
0.00396347
0.00161998
-0.000540422
-0.00325261
-0.00557889
-0.00728488
-0.00835779
-0.0087472
-0.00950746
0.0290205
0.0289822
0.0287678
0.0279724
0.026271
0.0236343
0.0202599
0.015987
0.0132411
0.0084275
0.00686294
0.0057212
0.00365069
0.00193824
-0.000387034
-0.0022858
-0.00353692
-0.00436913
-0.00458846
-0.00523478
0.0229631
0.0229378
0.0227844
0.0222725
0.0211818
0.0194059
0.0170121
0.013749
0.0118253
0.00811924
0.00688969
0.00595551
0.00413691
0.00284695
0.00125105
0.00015908
-0.000659683
-0.00128465
-0.00136937
-0.00190581
0.0174606
0.0174223
0.017307
0.0169703
0.0162829
0.0151859
0.0136835
0.0113438
0.0100828
0.00710601
0.0060315
0.00511757
0.00339144
0.00269923
0.00184414
0.00155569
0.00131687
0.00103888
0.000990557
0.000474466
0.0128366
0.012795
0.0127241
0.0125409
0.0121421
0.011437
0.0104959
0.00881278
0.0081041
0.00556755
0.0046959
0.00361112
0.00191132
0.00192711
0.00194307
0.00214807
0.002282
0.00221466
0.00221035
0.00175652
0.00873604
0.00869991
0.00864995
0.00852405
0.00829883
0.0078978
0.00738573
0.00618147
0.00596727
0.00391532
0.00324768
0.0021042
0.000665925
0.000989256
0.00134039
0.00182376
0.00223579
0.00232089
0.00231241
0.0018655
0.0050075
0.00497039
0.00495118
0.00491418
0.00480911
0.00455176
0.00440057
0.00359979
0.00370487
0.0021726
0.00194636
0.00102176
-5.14126e-05
0.000610993
0.000661813
0.000915418
0.00135902
0.00159601
0.00175986
0.00144171
0.00179953
0.00178719
0.0018001
0.00182563
0.00181791
0.00167056
0.00168132
0.00119822
0.00141561
0.000546197
0.000902264
0.000702283
0.000121603
0.000675116
-7.16225e-05
-0.000651595
-0.00112097
-0.00140403
-0.00104229
-0.00103343
-1.07288
-0.23328
0.0367721
0.312955
0.494483
0.65039
0.776556
0.905183
1.04664
1.12917
-0.0927776
0.31386
0.330277
0.518491
0.642309
0.753421
0.849041
0.934247
0.961645
0.91963
0.283986
0.497733
0.532763
0.669131
0.754951
0.834689
0.900471
0.949848
0.951924
0.966009
0.51333
0.656198
0.691237
0.79296
0.849821
0.907463
0.952245
0.984576
0.993622
1.0173
0.691194
0.792538
0.822292
0.88988
0.934311
0.975307
1.00741
1.03167
1.04144
1.07302
0.834427
0.903212
0.933531
0.976411
1.01248
1.0426
1.06688
1.0876
1.10172
1.13001
0.953566
1.00412
1.02968
1.05765
1.0853
1.10907
1.12902
1.14826
1.16314
1.18965
1.05733
1.09433
1.1154
1.13605
1.15684
1.17622
1.19362
1.21173
1.22661
1.25027
1.15131
1.18042
1.19675
1.21202
1.22812
1.24418
1.25973
1.27664
1.29026
1.31258
1.23957
1.26003
1.27488
1.28804
1.30161
1.31538
1.32888
1.34347
1.35502
1.37466
1.32501
1.34079
1.35462
1.36643
1.37834
1.38998
1.40112
1.4128
1.42048
1.43728
1.41024
1.42278
1.43649
1.44824
1.45888
1.46868
1.4775
1.48576
1.48933
1.50058
1.49898
1.5098
1.52327
1.53281
1.54038
1.54767
1.55486
1.56135
1.56244
1.56981
1.5974
1.602
1.61019
1.61495
1.61834
1.62283
1.62882
1.6365
1.64039
1.65027
1.7107
1.6976
1.69032
1.68459
1.68186
1.68321
1.68956
1.70192
1.71674
1.7464
1.8327
1.77666
1.74564
1.72845
1.72023
1.72016
1.72899
1.74859
1.78042
1.84967
)
;

boundaryField
{
    wall-4
    {
        type            zeroGradient;
    }
    pressure-outlet-7
    {
        type            fixedValue;
        value           uniform 0;
    }
    velocity-inlet-6
    {
        type            zeroGradient;
    }
    velocity-inlet-5
    {
        type            zeroGradient;
    }
    frontAndBackPlanes
    {
        type            empty;
    }
}


// ************************************************************************* //
