/*--------------------------------*- C++ -*----------------------------------*\
| =========                 |                                                 |
| \\      /  F ield         | OpenFOAM: The Open Source CFD Toolbox           |
|  \\    /   O peration     | Version:  4.0                                   |
|   \\  /    A nd           | Web:      www.OpenFOAM.org                      |
|    \\/     M anipulation  |                                                 |
\*---------------------------------------------------------------------------*/
FoamFile
{
    version     2.0;
    format      ascii;
    class       surfaceScalarField;
    location    "53";
    object      phi;
}
// * * * * * * * * * * * * * * * * * * * * * * * * * * * * * * * * * * * * * //

dimensions      [0 3 -1 0 0 0 0];

internalField   nonuniform List<scalar> 
4262
(
0.107141
0.470847
0.0955784
0.705149
0.0694051
0.858476
0.0474252
1.02074
0.0310647
1.21488
0.0198461
1.44944
0.0124296
1.73328
0.00722572
2.07624
0.00331137
2.48916
-0.000388955
2.98599
-0.00407059
2.98597
-0.00790892
2.48908
-0.0129495
2.07608
-0.0201364
1.73305
-0.0311403
1.44922
-0.0472263
1.2146
-0.068973
1.02051
-0.0952253
0.858555
-0.107076
0.705437
0.470912
0.112878
0.357969
0.135297
0.682729
0.120393
0.873381
0.0977983
1.04334
0.0745357
1.23814
0.0528434
1.47113
0.0344626
1.75166
0.0202433
2.09046
0.0089043
2.5005
-0.0012426
2.99614
-0.0113181
2.99605
-0.0224955
2.50026
-0.0365635
2.09014
-0.0548385
1.75133
-0.0765477
1.47093
-0.100199
1.23825
-0.123338
1.04365
-0.136934
0.872152
-0.113534
0.682036
0.357378
0.092053
0.265916
0.124991
0.649791
0.121144
0.877228
0.104947
1.05954
0.0863045
1.25678
0.0671583
1.49028
0.0482145
1.7706
0.0301703
2.1085
0.0136652
2.517
-0.00217784
3.01198
-0.0178138
3.01169
-0.0338789
2.51632
-0.0514154
2.10768
-0.0699088
1.76982
-0.0883454
1.48937
-0.105673
1.25558
-0.119879
1.05786
-0.125216
0.877488
-0.0923277
0.649148
0.26505
0.0640479
0.201868
0.104935
0.608904
0.106703
0.87546
0.0952847
1.07095
0.0813623
1.2707
0.0666203
1.50502
0.0504981
1.78673
0.0333655
2.12564
0.0156825
2.53468
-0.00302821
3.03069
-0.0215721
3.03023
-0.0388063
2.53356
-0.0552889
2.12416
-0.0705891
1.78512
-0.0844811
1.50326
-0.0981871
1.26929
-0.109935
1.0696
-0.106991
0.874545
-0.0648914
0.607048
0.200159
0.0374655
0.164403
0.0806972
0.565672
0.0910314
0.865126
0.0838143
1.07817
0.0712116
1.28331
0.0593831
1.51685
0.0463972
1.79971
0.0314656
2.14057
0.0145206
2.55163
-0.00456626
3.04978
-0.0231452
3.04881
-0.0391334
2.54955
-0.0530944
2.13813
-0.065234
1.79726
-0.0765071
1.51453
-0.0884614
1.28124
-0.0948624
1.076
-0.0830755
0.862758
-0.0383459
0.562318
0.161813
0.0194929
0.14491
0.0572987
0.527866
0.0727784
0.849646
0.0707572
1.08019
0.0620055
1.29206
0.0511476
1.52771
0.0399524
1.81091
0.0273236
2.1532
0.0123457
2.56661
-0.00527478
3.0674
-0.0227707
3.0663
-0.037176
2.56395
-0.0487175
2.14967
-0.0586703
1.80721
-0.0684963
1.52436
-0.0761759
1.28892
-0.077037
1.07687
-0.059941
0.845662
-0.0203545
0.522732
0.141459
0.0106488
0.134261
0.0424148
0.4961
0.0585205
0.833541
0.0588089
1.0799
0.0527171
1.29815
0.0434352
1.53699
0.0331408
1.8212
0.0217887
2.16455
0.00841404
2.57998
-0.00763169
3.08345
-0.0229848
3.08166
-0.0348993
2.57587
-0.0448065
2.15957
-0.0536208
1.81603
-0.0614911
1.53223
-0.0660381
1.29347
-0.0641272
1.07495
-0.0458062
0.827341
-0.0116747
0.4886
0.129784
0.00659995
0.127661
0.0330752
0.469625
0.0494317
0.817184
0.0509767
1.07836
0.0458688
1.30326
0.0374941
1.54536
0.0278973
1.8308
0.0170772
2.17537
0.00514185
2.59192
-0.00856464
3.09715
-0.0220053
3.0951
-0.0329027
2.58676
-0.0420569
2.16873
-0.0498544
1.82382
-0.05652
1.5389
-0.0598059
1.29675
-0.0562087
1.07136
-0.0371357
0.808268
-0.00785032
0.459315
0.121934
0.0047685
0.122893
0.0267055
0.447688
0.042601
0.801289
0.0447849
1.07617
0.0401982
1.30784
0.032556
1.553
0.0234711
1.83988
0.0130357
2.1858
0.0013442
2.60361
-0.0117743
3.11027
-0.0236837
3.10701
-0.033347
2.59643
-0.0416012
2.17698
-0.0484558
1.83068
-0.0538691
1.54431
-0.0562113
1.2991
-0.0513224
1.06647
-0.0317959
0.788741
-0.00630539
0.433824
0.115628
0.00379231
0.1191
0.0218539
0.429627
0.0371275
0.786015
0.0399553
1.07335
0.0356383
1.31216
0.0283376
1.5603
0.0195814
1.84864
0.00951795
2.19587
-0.00166148
2.61479
-0.0135981
3.12221
-0.0249826
3.11839
-0.0343311
2.60578
-0.0418717
2.18452
-0.0481079
1.83691
-0.0529544
1.54916
-0.0542159
1.30036
-0.0478554
1.06011
-0.0280427
0.768928
-0.00569494
0.411477
0.109933
0.00306917
0.116031
0.0176255
0.41507
0.0316779
0.771963
0.0348373
1.07019
0.0309024
1.3161
0.0239226
1.56728
0.0154938
1.85707
0.00568916
2.20567
-0.00553191
2.62601
-0.0179269
3.1346
-0.0288555
3.12932
-0.0370338
2.61395
-0.0436105
2.1911
-0.0487868
1.84209
-0.0524584
1.55283
-0.0526614
1.30056
-0.0450651
1.05251
-0.025239
0.749102
-0.00541305
0.391651
0.10452
0.00243369
0.113598
0.0140309
0.403473
0.0267625
0.759231
0.0299758
1.06697
0.0260966
1.31998
0.019194
1.57419
0.0108068
1.86546
0.00112329
2.21536
-0.0095956
2.63673
-0.0210882
3.1461
-0.0315721
3.1398
-0.0396874
2.62207
-0.0454782
2.19689
-0.0497893
1.8464
-0.0525866
1.55563
-0.0520203
1.29999
-0.0430158
1.04351
-0.0231579
0.729244
-0.00522486
0.373718
0.0992954
0.0017323
0.111865
0.0106516
0.394554
0.0215706
0.748312
0.02431
1.06423
0.0203678
1.32392
0.0135005
1.58105
0.00520427
1.87375
-0.00422888
2.22479
-0.0150127
2.64751
-0.0268883
3.15797
-0.0367549
3.14967
-0.043213
2.62853
-0.0479471
2.20162
-0.0515386
1.84999
-0.0534063
1.55749
-0.0520386
1.29863
-0.0418952
1.03336
-0.0218839
0.709233
-0.0051673
0.357001
0.0941281
0.000902552
0.110963
0.00730092
0.388155
0.0166777
0.738935
0.0190833
1.06183
0.0147385
1.32826
0.00741189
1.58838
-0.00114479
1.88231
-0.0107359
2.23438
-0.0211098
2.65789
-0.032005
3.16887
-0.0410877
3.15875
-0.0472479
2.63469
-0.0511457
2.20552
-0.0539375
1.85278
-0.054884
1.55844
-0.0524879
1.29623
-0.0411025
1.02198
-0.0208858
0.689016
-0.00505883
0.341174
0.0890693
0.000182043
0.110781
0.00434627
0.383991
0.0112457
0.732036
0.012443
1.06063
0.00782308
1.33288
0.000359775
1.59584
-0.00870539
1.89137
-0.0186882
2.24436
-0.0294499
2.66865
-0.0403667
3.17978
-0.048726
3.16711
-0.0533131
2.63927
-0.0560862
2.2083
-0.0580745
1.85477
-0.0581219
1.55849
-0.0543361
1.29245
-0.0413461
1.00899
-0.0205819
0.668252
-0.00510781
0.3257
0.0839615
-0.000747614
0.111528
0.00071932
0.382524
0.00571195
0.727043
0.00634086
1.06
0.00100754
1.33822
-0.00738567
1.60424
-0.0170102
1.901
-0.0273339
2.25469
-0.0379724
2.67929
-0.0480966
3.18991
-0.0553703
3.17439
-0.0595632
2.64347
-0.0617324
2.21046
-0.0627534
1.85579
-0.0618013
1.55753
-0.0565002
1.28714
-0.0419548
0.994443
-0.020608
0.646905
-0.00521522
0.310307
0.0787463
-0.00158708
0.113115
-0.00234938
0.383287
-0.000264527
0.724958
-0.00182776
1.06157
-0.00790928
1.3443
-0.0165819
1.61291
-0.0269035
1.91132
-0.0383168
2.2661
-0.0499422
2.69091
-0.0602096
3.20017
-0.0669124
3.18109
-0.0699124
2.64647
-0.0706349
2.21119
-0.0701583
1.85532
-0.0674938
1.55487
-0.0601885
1.27984
-0.0436796
0.977935
-0.0212469
0.624473
-0.00545253
0.294513
0.0732937
-0.00296909
0.116085
-0.00611343
0.386431
-0.00755455
0.726399
-0.0103072
1.06432
-0.0174771
1.35147
-0.0275375
1.62297
-0.0388088
1.92259
-0.0506308
2.27792
-0.0621588
2.70244
-0.0719719
3.20999
-0.0775179
3.18664
-0.0793193
2.64827
-0.0788818
2.21075
-0.0775128
1.85395
-0.0740392
1.5514
-0.0648983
1.2707
-0.0462112
0.959248
-0.022367
0.600628
-0.005815
0.277961
0.0674787
-0.0042602
0.120345
-0.0103449
0.392516
-0.0152365
0.731291
-0.0211816
1.07026
-0.0296756
1.35996
-0.040721
1.63402
-0.0531772
1.93505
-0.0664854
2.29123
-0.0793838
2.71534
-0.0894119
3.22002
-0.0936885
3.19091
-0.0940998
2.64868
-0.0927155
2.20937
-0.0891103
1.85034
-0.0829589
1.54525
-0.0712093
1.25895
-0.0497383
0.937777
-0.0239745
0.574865
-0.00626776
0.260254
0.061211
-0.00572069
0.126065
-0.015365
0.40216
-0.0241841
0.74011
-0.0329092
1.07899
-0.0435511
1.3706
-0.0567134
1.64718
-0.0707652
1.9491
-0.0847579
2.30522
-0.0974357
2.72802
-0.106916
3.2295
-0.110411
3.19441
-0.109064
2.64733
-0.104666
2.20497
-0.10018
1.84586
-0.0932397
1.5383
-0.0788376
1.24455
-0.0541348
0.913074
-0.0260187
0.546748
-0.00681168
0.241047
0.0543993
-0.00798802
0.134053
-0.0221115
0.416283
-0.036289
0.754288
-0.0484097
1.09111
-0.0609334
1.38313
-0.075958
1.6622
-0.0919957
1.96514
-0.108124
2.32135
-0.122476
2.74237
-0.132237
3.23926
-0.133447
3.19562
-0.129507
2.64339
-0.124096
2.19956
-0.116532
1.83829
-0.10591
1.52768
-0.087974
1.22661
-0.0595202
0.88462
-0.02841
0.515638
-0.00739179
0.220029
0.0470075
-0.0104442
0.144498
-0.029411
0.43525
-0.0496702
0.774547
-0.0665736
1.10801
-0.0822555
1.39881
-0.100066
1.68001
-0.118622
1.98369
-0.13616
2.33889
-0.150098
2.75631
-0.15735
3.24651
-0.156834
3.1951
-0.151021
2.63758
-0.142566
2.1911
-0.133239
1.82897
-0.120734
1.51518
-0.0986967
1.20457
-0.0655661
0.851489
-0.0309882
0.48106
-0.00795873
0.196999
0.0390488
-0.0151164
0.159614
-0.0415981
0.461732
-0.0687008
0.80165
-0.0907461
1.13006
-0.11035
1.41841
-0.131911
1.70157
-0.153036
2.00482
-0.172153
2.35801
-0.186309
2.77046
-0.192554
3.25275
-0.188314
3.19086
-0.178947
2.62821
-0.168206
2.18036
-0.1554
1.81616
-0.137995
1.49777
-0.111066
1.17765
-0.0726378
0.813061
-0.0338443
0.442267
-0.00849114
0.171646
0.0305576
-0.0194283
0.179042
-0.0551872
0.497491
-0.0923771
0.838839
-0.121908
1.15959
-0.146727
1.44323
-0.171881
1.72673
-0.195067
2.028
-0.214188
2.37713
-0.226556
2.78283
-0.228644
3.25484
-0.220879
3.1831
-0.208212
2.61554
-0.193322
2.16547
-0.177845
1.80068
-0.157392
1.47732
-0.124401
1.14465
-0.0795882
0.768249
-0.0363267
0.399005
-0.00871103
0.144031
0.0218466
-0.0325028
0.211545
-0.0815804
0.546568
-0.128853
0.886112
-0.164928
1.19566
-0.195472
1.47378
-0.225007
1.75626
-0.249461
2.05246
-0.268211
2.39588
-0.278293
2.79291
-0.275964
3.25251
-0.261955
3.16909
-0.244456
2.59805
-0.227103
2.14812
-0.207246
1.78083
-0.179903
1.44998
-0.139988
1.10474
-0.0878855
0.716146
-0.0389606
0.35008
-0.00875647
0.113826
0.0130901
-0.0469451
0.25849
-0.120386
0.620009
-0.183317
0.949044
-0.227834
1.24018
-0.264212
1.51016
-0.29435
1.7864
-0.316396
2.0745
-0.33034
2.40982
-0.333478
2.79605
-0.324426
3.24346
-0.305738
3.1504
-0.284002
2.57631
-0.260602
2.12472
-0.236182
1.75641
-0.204379
1.41817
-0.155285
1.05565
-0.0935625
0.654423
-0.0396058
0.296124
-0.00865974
0.0828804
0.0044304
-0.0339167
0.292407
-0.0972111
0.683303
-0.155548
1.00738
-0.202623
1.28726
-0.245104
1.55264
-0.28284
1.82414
-0.317742
2.10941
-0.348947
2.44103
-0.372885
2.81999
-0.382945
3.25352
-0.373809
3.14126
-0.354743
2.55724
-0.333493
2.10347
-0.303521
1.72643
-0.254534
1.36918
-0.18427
0.985381
-0.103681
0.573834
-0.0405869
0.23303
-0.00910172
0.0513952
-0.00467131
-0.0128625
0.305269
-0.0479215
0.718362
-0.0893432
1.0488
-0.128479
1.32639
-0.167267
1.59143
-0.201434
1.8583
-0.232837
2.14081
-0.259062
2.46725
-0.275263
2.83619
-0.275814
3.25407
-0.263194
3.12864
-0.243563
2.53761
-0.214077
2.07398
-0.179035
1.69139
-0.139018
1.32917
-0.0895512
0.935915
-0.0414656
0.525748
-0.0140324
0.205597
-0.00331494
0.0406777
-0.00798625
9.91102e-05
0.30517
-0.0248692
0.743331
-0.0545435
1.07848
-0.0844983
1.35635
-0.115606
1.62253
-0.145792
1.88849
-0.173298
2.16831
-0.195516
2.48947
-0.209036
2.84971
-0.211172
3.25621
-0.195732
3.1132
-0.166878
2.50876
-0.137591
2.04469
-0.10529
1.65909
-0.0667493
1.29063
-0.0289725
0.898138
-0.00425104
0.501027
0.00164575
0.1997
0.000315793
0.0420077
-0.00767046
0.00074675
0.304424
-0.0125362
0.756614
-0.0340039
1.09994
-0.0586595
1.381
-0.0844396
1.64831
-0.109735
1.91378
-0.132848
2.19143
-0.151335
2.50796
-0.161515
2.85989
-0.157347
3.25204
-0.136388
3.09224
-0.110744
2.48312
-0.08082
2.01477
-0.0478296
1.6261
-0.0188596
1.26166
0.00299706
0.876281
0.0126044
0.49142
0.00895271
0.203352
0.00252717
0.0484332
-0.00514329
0.0039024
0.300521
-0.00562404
0.76614
-0.0235507
1.11787
-0.0440283
1.40148
-0.0654777
1.66976
-0.0868729
1.93518
-0.10705
2.2116
-0.123411
2.52432
-0.132342
2.86882
-0.12815
3.24785
-0.110063
3.07416
-0.0838293
2.45688
-0.0526357
1.98358
-0.0243667
1.59783
0.00325761
1.23403
0.022219
0.85732
0.0238977
0.489741
0.0140638
0.213186
0.00403657
0.0584605
-0.00110671
0.00519455
0.295327
-0.000865895
0.772201
-0.0168508
1.13386
-0.0351685
1.4198
-0.0543202
1.68891
-0.0732714
1.95413
-0.0909827
2.22932
-0.105081
2.53842
-0.111844
2.87558
-0.10581
3.24182
-0.0873563
3.0557
-0.0620038
2.43153
-0.0358245
1.9574
-0.00737097
1.56938
0.0138909
1.21277
0.025728
0.845483
0.0254895
0.489979
0.0147462
0.223929
0.00431109
0.0688956
0.00320438
0.00392827
0.291398
-0.000532988
0.776662
-0.0139534
1.14728
-0.0306734
1.43652
-0.0478191
1.70606
-0.0648667
1.97118
-0.0810313
2.24548
-0.0942101
2.5516
-0.10133
2.8827
-0.0974695
3.23796
-0.0798689
3.0381
-0.0555551
2.40722
-0.029198
1.93104
-0.00735204
1.54753
0.0133019
1.19212
0.0254051
0.83338
0.0232932
0.492091
0.0136406
0.233582
0.00410012
0.0784361
0.00730449
0.00245624
0.288942
-0.00131202
0.78043
-0.013339
1.1593
-0.0282356
1.45141
-0.044404
1.72223
-0.0604549
1.98723
-0.0757431
2.26077
-0.0886396
2.56449
-0.0956905
2.88975
-0.0917341
3.234
-0.0750684
3.02144
-0.0535363
2.38568
-0.0326086
1.91011
-0.00860559
1.52353
0.00868132
1.17483
0.0183582
0.823703
0.0185548
0.491895
0.0106584
0.241478
0.00323484
0.0858597
0.0105393
0.000218114
0.288724
-0.0036352
0.784283
-0.0143046
1.16997
-0.0277452
1.46485
-0.0427911
1.73727
-0.058085
2.00252
-0.0730691
2.27575
-0.0859832
2.57741
-0.0935274
2.8973
-0.0917838
3.23226
-0.0777411
3.00739
-0.0578535
2.3658
-0.0360051
1.88826
-0.017643
1.50517
0.000602465
1.15659
0.0120937
0.812211
0.0119819
0.492006
0.00725059
0.246209
0.00230209
0.0908082
0.0128414
-0.000633066
0.289357
-0.00569296
0.789343
-0.0155573
1.17984
-0.0280793
1.47738
-0.0425076
1.7517
-0.0573902
2.01741
-0.0722207
2.29058
-0.0855062
2.59069
-0.0944208
2.90621
-0.0943725
3.23221
-0.0821274
2.99515
-0.0649559
2.34862
-0.0465033
1.86981
-0.0251246
1.48379
-0.00901059
1.14047
0.00104474
0.802156
0.00473292
0.488318
0.00303504
0.247907
0.00128892
0.0925543
0.0141303
-0.00216369
0.291521
-0.00751644
0.794696
-0.0170677
1.18939
-0.0290041
1.48931
-0.0427144
1.76541
-0.0571725
2.03186
-0.072037
2.30545
-0.0859138
2.60457
-0.0959878
2.91629
-0.0975896
3.23381
-0.088317
2.98588
-0.072458
2.33277
-0.0525312
1.84988
-0.0361176
1.46738
-0.0188413
1.12319
-0.0061442
0.789459
-0.00196794
0.484142
-0.000522506
0.246462
6.07602e-06
0.0920257
0.0141364
-0.00355806
0.295079
-0.00927923
0.800417
-0.0184652
1.19857
-0.0299533
1.5008
-0.0432633
1.77872
-0.0574631
2.04606
-0.0724519
2.32044
-0.0870748
2.61919
-0.0987851
2.928
-0.103375
3.2384
-0.096587
2.97909
-0.0818055
2.31798
-0.0647671
1.83285
-0.0435877
1.4462
-0.0268503
1.10646
-0.0148412
0.77745
-0.00679261
0.476093
-0.00298771
0.242657
-0.000557083
0.0895951
0.0135793
-0.00417517
0.299254
-0.0103748
0.806617
-0.0196103
1.20781
-0.0307531
1.51194
-0.0435946
1.79156
-0.0575932
2.06006
-0.0727708
2.33561
-0.0879842
2.6344
-0.100914
2.94093
-0.107944
3.24543
-0.103743
2.97489
-0.0904807
2.30472
-0.0701132
1.81248
-0.0521615
1.42824
-0.0333439
1.08764
-0.0186861
0.762792
-0.0108684
0.468276
-0.00444862
0.236237
-0.00101641
0.0861629
0.0125629
-0.00441566
0.30367
-0.0113008
0.813502
-0.0204466
1.21696
-0.0313222
1.52282
-0.0439309
1.80417
-0.0577438
2.07387
-0.0730022
2.35087
-0.0888534
2.65026
-0.103621
2.95569
-0.113953
3.25576
-0.11236
2.97329
-0.0995132
2.29188
-0.0817739
1.79474
-0.0578159
1.40429
-0.0382942
1.06812
-0.0236771
0.748175
-0.0121457
0.456744
-0.00519558
0.229287
-0.00113793
0.0821052
0.011425
-0.00445171
0.308121
-0.011654
0.820704
-0.0208683
1.22617
-0.0315229
1.53347
-0.0437942
1.81644
-0.0574469
2.08753
-0.0728291
2.36625
-0.0892618
2.66669
-0.105324
2.97176
-0.117894
3.26833
-0.120025
2.97542
-0.109093
2.28094
-0.0867402
1.77239
-0.0642597
1.38181
-0.0411303
1.04499
-0.0233778
0.730422
-0.0126203
0.445987
-0.00460053
0.221267
-0.000961546
0.0784663
0.0104635
-0.00455913
0.31268
-0.0120471
0.828192
-0.0210426
1.23517
-0.0314802
1.54391
-0.0435673
1.82853
-0.0570163
2.10098
-0.0724025
2.38164
-0.0893498
2.68364
-0.106813
2.98922
-0.122096
3.28361
-0.126576
2.9799
-0.116587
2.27095
-0.0985873
1.75439
-0.0694351
1.35265
-0.0426203
1.01817
-0.0226373
0.710439
-0.00820194
0.431551
-0.00177311
0.214838
0.000323716
0.0763694
0.0107872
-0.00456236
0.317243
-0.0119994
0.835629
-0.0208954
1.24406
-0.0310798
1.55409
-0.0428147
1.84027
-0.0560795
2.11424
-0.0715098
2.39707
-0.0888504
2.70098
-0.107374
3.00774
-0.124637
3.30088
-0.133447
2.98871
-0.126852
2.26436
-0.103854
1.73139
-0.0757515
1.32455
-0.042582
0.985004
-0.0156824
0.68354
-0.000606446
0.416475
0.00343397
0.210798
-0.00126261
0.081066
0.00952456
-0.00459426
0.321837
-0.0120383
0.843073
-0.0206009
1.25262
-0.0304991
1.56399
-0.0420009
1.85177
-0.0550276
2.12727
-0.0703614
2.4124
-0.0880044
2.71862
-0.107483
3.02722
-0.126749
3.32014
-0.137769
2.99974
-0.133174
2.25976
-0.116585
1.7148
-0.082641
1.29061
-0.0428638
0.945227
-0.00450557
0.645182
0.0263812
0.385589
0.0378709
0.199308
0.0257332
0.0932037
0.0352578
-0.00446625
0.326303
-0.0116885
0.850295
-0.0200704
1.26101
-0.0296479
1.57357
-0.0407363
1.86286
-0.0535136
2.14005
-0.0687601
2.42765
-0.0865559
2.73642
-0.106743
3.04741
-0.127727
3.34113
-0.142066
3.01407
-0.142957
2.26066
-0.12312
1.69496
-0.0913161
1.2588
-0.043858
0.897769
0.00477868
0.596545
0.0472786
0.343089
0.0475409
0.199046
0.0209366
0.119808
0.0561944
-0.00433345
0.330637
-0.011454
0.857416
-0.0194512
1.269
-0.0286697
1.58279
-0.0395051
1.87369
-0.051993
2.15253
-0.0670279
2.44269
-0.0849131
2.7543
-0.105679
3.06817
-0.128138
3.36359
-0.14408
3.03002
-0.147683
2.26426
-0.137429
1.68471
-0.103738
1.22511
-0.0533102
0.847341
0.0193625
0.523872
0.118566
0.243886
0.193448
0.124164
0.182001
0.131255
0.238195
-0.00417797
0.334815
-0.0111102
0.864348
-0.019121
1.27701
-0.0283446
1.59201
-0.0392926
1.88464
-0.0522375
2.16548
-0.0682037
2.45865
-0.087647
2.77374
-0.111052
3.09158
-0.137922
3.39046
-0.160412
3.05251
-0.170729
2.27458
-0.159841
1.67382
-0.130576
1.19585
-0.0729716
0.789737
-0.0164018
0.467303
-0.06814
0.295624
-0.357383
0.413406
-0.941674
0.715547
0.900205
-1.60368
-0.00401747
0.338832
-0.010852
0.871183
-0.0185725
1.28473
-0.0276277
1.60107
-0.0385519
1.89556
-0.0516183
2.17854
-0.0679804
2.47501
-0.0883914
2.79415
-0.113672
3.11686
-0.143928
3.42071
-0.17051
3.07909
-0.185045
2.28911
-0.192778
1.68155
-0.174228
1.1773
-0.147221
0.76273
-0.239591
0.559672
-0.693236
0.749269
-1.4426
1.16277
-2.05016
1.32311
1.21683
-2.36678
-0.00378097
0.342613
-0.0102771
0.877679
-0.0178423
1.2923
-0.0267182
1.60994
-0.0374499
1.9063
-0.050589
2.19168
-0.0673582
2.49178
-0.088629
2.81543
-0.11571
3.14394
-0.14967
3.45467
-0.183231
3.11265
-0.208468
2.31435
-0.21669
1.68977
-0.205986
1.16659
-0.292128
0.848873
-0.753449
1.02099
-1.54487
1.54069
-2.11018
1.72808
-2.34937
1.5623
1.33108
-2.46363
-0.00362944
0.346243
-0.00985977
0.883909
-0.0170534
1.29949
-0.0256927
1.61858
-0.03633
1.91693
-0.0495265
2.20488
-0.0665836
2.50884
-0.0886941
2.83754
-0.117597
3.17284
-0.155214
3.49229
-0.19396
3.1514
-0.223885
2.34427
-0.251685
1.71757
-0.331634
1.24654
-0.685221
1.20246
-1.43743
1.77321
-2.02703
2.13028
-2.26672
1.96777
-2.37989
1.67548
1.39531
-2.44412
-0.00332378
0.349566
-0.00910709
0.889693
-0.0160575
1.30644
-0.0244499
1.62698
-0.0348927
1.92738
-0.0480701
2.21806
-0.0653892
2.52616
-0.0881949
2.86034
-0.118736
3.20338
-0.159912
3.53347
-0.206388
3.19787
-0.250432
2.38832
-0.292413
1.75955
-0.473183
1.42731
-1.09375
1.82303
-1.78784
2.4673
-2.10837
2.45081
-2.25654
2.11593
-2.33857
1.75751
1.46116
-2.40442
-0.00328611
0.352853
-0.00905611
0.895463
-0.0158889
1.31328
-0.0243077
1.63539
-0.0350618
1.93813
-0.048574
2.23157
-0.0663995
2.54399
-0.0901928
2.88414
-0.122608
3.2358
-0.167589
3.57845
-0.219988
3.25027
-0.266099
2.43443
-0.355727
1.84918
-0.747167
1.81875
-1.49004
2.5659
-1.96315
2.9404
-2.16299
2.65065
-2.26917
2.22212
-2.34623
1.83457
1.52464
-2.4097
-0.00334861
0.356201
-0.00926863
0.901383
-0.0165809
1.32059
-0.0254747
1.64429
-0.0366746
1.94933
-0.0508079
2.2457
-0.06952
2.5627
-0.0945377
2.90915
-0.128906
3.27017
-0.177599
3.62714
-0.234592
3.30726
-0.297169
2.497
-0.486383
2.0384
-1.04631
2.37868
-1.67803
3.19762
-1.95353
3.21591
-2.10039
2.79751
-2.21415
2.33588
-2.30765
1.92806
1.58627
-2.36928
-0.00344304
0.359644
-0.00981541
0.907755
-0.0174159
1.32819
-0.0267664
1.65364
-0.0385884
1.96115
-0.0534405
2.26055
-0.0730419
2.5823
-0.0994056
2.93552
-0.135833
3.3066
-0.188489
3.67979
-0.251384
3.37016
-0.337047
2.58267
-0.618492
2.31984
-1.26362
3.0238
-1.75272
3.68673
-1.95973
3.42292
-2.09957
2.93735
-2.22324
2.45955
-2.33362
2.03845
1.64483
-2.39218
-0.00338
0.363024
-0.00985434
0.914229
-0.0181043
1.33644
-0.0280627
1.6636
-0.0403668
1.97346
-0.0558735
2.27606
-0.0764194
2.60284
-0.104037
2.96313
-0.142331
3.34489
-0.197708
3.73517
-0.264561
3.43701
-0.389258
2.70736
-0.775693
2.70628
-1.41012
3.65823
-1.76287
4.03948
-1.93571
3.59576
-2.03756
3.0392
-2.12602
2.54801
-2.19321
2.10564
1.6376
-2.18598
-0.00335481
0.366379
-0.0103605
0.921235
-0.0188758
1.34495
-0.0293218
1.67404
-0.0423663
1.9865
-0.0586773
2.29237
-0.0801607
2.62433
-0.109154
2.99213
-0.149412
3.38515
-0.206829
3.79259
-0.285674
3.51586
-0.455621
2.87731
-0.906938
3.15759
-1.46251
4.2138
-1.72432
4.30128
-1.87599
3.74744
-1.96914
3.13234
-1.97051
2.54938
-1.90141
2.03654
1.60212
-1.86594
-0.00312837
0.369507
-0.0100296
0.928136
-0.0192663
1.35419
-0.0303215
1.6851
-0.0437166
1.9999
-0.0604096
2.30907
-0.0823372
2.64626
-0.111671
3.02146
-0.152207
3.42568
-0.208757
3.84914
-0.293857
3.60096
-0.498222
3.08168
-0.988146
3.64752
-1.42956
4.65521
-1.59466
4.46639
-1.66173
3.8145
-1.66617
3.13678
-1.5185
2.40172
-1.01838
1.53641
0.583746
-0.0026684
0.372176
-0.0103227
0.935791
-0.0197464
1.36361
-0.0313889
1.69674
-0.0459486
2.01446
-0.0640791
2.3272
-0.0878917
2.67007
-0.12002
3.05359
-0.164657
3.47032
-0.227834
3.91231
-0.331175
3.7043
-0.58557
3.33607
-1.12427
4.18622
-1.48247
5.01341
-1.58165
4.56557
-1.57947
3.81233
-1.47577
3.03308
-1.23663
2.16257
-0.632714
0.932495
-0.0489676
-0.00228003
0.374456
-0.00923657
0.942747
-0.0195059
1.37388
-0.0321118
1.70935
-0.0474873
2.02983
-0.0668257
2.34653
-0.0925047
2.69575
-0.127223
3.08831
-0.176027
3.51913
-0.245315
3.9816
-0.367584
3.82657
-0.681684
3.65017
-1.24173
4.74627
-1.50299
5.27466
-1.56127
4.62386
-1.53933
3.79038
-1.33724
2.83099
-0.7839
1.60923
-0.10921
0.257806
-0.158178
-0.00167126
0.376127
-0.00907526
0.950151
-0.0191665
1.38398
-0.0321916
1.72237
-0.0486843
2.04632
-0.0694665
2.36732
-0.097083
2.72336
-0.134766
3.12599
-0.187375
3.57173
-0.264685
4.05891
-0.413149
3.97503
-0.785989
4.02301
-1.32101
5.28129
-1.497
5.45065
-1.5283
4.65516
-1.44013
3.70222
-1.10292
2.49378
-0.314009
0.82032
0.0250786
-0.081282
-0.133099
-0.000448522
0.376576
-0.00653054
0.956233
-0.0174575
1.3949
-0.031534
1.73645
-0.0486757
2.06347
-0.0705376
2.38918
-0.0999022
2.75273
-0.13985
3.16594
-0.195221
3.62711
-0.281225
4.14492
-0.455878
4.14968
-0.893771
4.46091
-1.36494
5.75246
-1.482
5.56771
-1.48469
4.65785
-1.26026
3.47779
-0.687945
1.92146
-0.0626282
0.195003
0.0306134
-0.174524
-0.102486
0.000308566
0.376267
-0.00507701
0.961619
-0.0153654
1.40519
-0.0295807
1.75066
-0.0475368
2.08142
-0.0707405
2.41238
-0.101837
2.78383
-0.144289
3.20839
-0.202747
3.68556
-0.297882
4.24005
-0.49896
4.35076
-0.986985
4.94893
-1.36173
6.1272
-1.42539
5.63137
-1.37924
4.6117
-1.09027
3.18882
-0.323626
1.15482
0.00501303
-0.133637
0.015306
-0.184817
-0.0871799
0.003327
0.37294
0.000452408
0.964493
-0.0109171
1.41656
-0.0261941
1.76594
-0.044336
2.09956
-0.0683828
2.43643
-0.100723
2.81617
-0.14467
3.25234
-0.205681
3.74657
-0.308853
4.34322
-0.5363
4.57821
-1.04874
5.46137
-1.32405
6.40252
-1.36518
5.6725
-1.22561
4.47214
-0.773943
2.73715
-0.0703162
0.45119
0.0453289
-0.249282
0.0248378
-0.164325
-0.0623421
0.00478015
0.36816
0.00312196
0.966151
-0.00630919
1.42599
-0.0203433
1.77997
-0.0387562
2.11798
-0.063787
2.46146
-0.0972275
2.84961
-0.142974
3.29808
-0.206521
3.81012
-0.317732
4.45443
-0.574913
4.83539
-1.06989
5.95634
-1.26072
6.59335
-1.27005
5.68183
-1.05072
4.25281
-0.460642
2.14707
-0.0158366
0.0063846
-0.00440618
-0.260712
0.00627283
-0.175004
-0.0560692
0.00865213
0.359508
0.0100553
0.964748
0.0024101
1.43364
-0.0116969
1.79408
-0.0301107
2.13639
-0.0552318
2.48658
-0.0888463
2.88322
-0.134475
3.34371
-0.199467
3.87511
-0.316631
4.5716
-0.59512
5.11388
-1.04809
6.40931
-1.16926
6.71453
-1.15556
5.66813
-0.8976
3.99484
-0.264469
1.51394
-0.0702742
-0.187811
-0.037877
-0.293109
-0.0131987
-0.199683
-0.069268
0.0117664
0.347741
0.0169304
0.959584
0.0124271
1.43814
0.00168103
1.80483
-0.0173119
2.15538
-0.04204
2.51131
-0.0753164
2.9165
-0.121335
3.38973
-0.186938
3.94072
-0.308287
4.69295
-0.594277
5.39987
-0.980413
6.79545
-1.04982
6.78393
-0.978657
5.59697
-0.681091
3.69728
-0.0780819
0.910931
0.00763885
-0.273531
-0.00656124
-0.278909
-0.00366177
-0.202582
-0.0729298
0.0184286
0.329313
0.0300517
0.947961
0.0282683
1.43992
0.0171293
1.81597
-0.000419954
2.17293
-0.02256
2.53345
-0.0542636
2.9482
-0.0981829
3.43365
-0.161819
4.00435
-0.282038
4.81317
-0.5584
5.67623
-0.868332
7.10538
-0.902922
6.81852
-0.807375
5.50142
-0.456165
3.34607
0.0529353
0.401831
0.0655742
-0.28617
0.0473418
-0.260677
0.0174366
-0.172677
-0.0554931
0.024485
0.304828
0.0431642
0.929282
0.047007
1.43608
0.0403144
1.82266
0.0272366
2.18601
0.00553507
2.55515
-0.0240923
2.97783
-0.0654525
3.47501
-0.125952
4.06485
-0.240451
4.92767
-0.485161
5.92094
-0.708229
7.32845
-0.738415
6.84871
-0.62705
5.39006
-0.304688
3.02371
-0.00669773
0.10384
0.0162992
-0.309167
0.0312232
-0.275601
0.0159609
-0.157415
-0.0395323
0.0348125
0.270015
0.0647619
0.899333
0.0752268
1.42562
0.0716277
1.82626
0.0613273
2.19631
0.04313
2.57335
0.0170839
3.00387
-0.0197876
3.51188
-0.0731726
4.11824
-0.170119
5.02461
-0.367097
6.11792
-0.520577
7.48192
-0.551998
6.88013
-0.456258
5.29432
-0.173696
2.74115
-0.0501126
-0.0197438
-0.02771
-0.33157
8.70967e-05
-0.303398
0.00465012
-0.161978
-0.0348821
0.0443084
0.225707
0.0871892
0.856452
0.108228
1.40458
0.113156
1.82133
0.108565
2.2009
0.0944587
2.58745
0.0741359
3.0242
0.0437707
3.54225
-0.00531978
4.16733
-0.0762882
5.09558
-0.207945
6.24958
-0.290693
7.56467
-0.311027
6.90046
-0.248514
5.2318
-0.0350132
2.52764
-0.0598118
0.0050549
-0.0694085
-0.321973
-0.0282173
-0.344589
0.0118062
-0.202001
-0.0230759
0.0569427
0.168764
0.11892
0.794475
0.154588
1.36891
0.16634
1.80958
0.167127
2.20012
0.158503
2.59608
0.145455
3.03724
0.125572
3.56213
0.0950182
4.19788
0.0537318
5.13687
0.0103571
6.29295
-0.0254559
7.60049
-0.0231954
6.8982
-0.0600281
5.26864
-0.076691
2.54431
-0.309056
0.23742
-0.321281
-0.309748
-0.206574
-0.459296
-0.0460967
-0.362478
-0.0691727
0.0597308
0.109033
0.149063
0.705142
0.205997
1.31197
0.233645
1.78193
0.244962
2.1888
0.244013
2.59703
0.239165
3.04209
0.230058
3.57124
0.217709
4.21023
0.203518
5.15106
0.275555
6.22091
0.336456
7.53958
0.283709
6.95095
0.0648303
5.48751
-0.292284
2.90142
-0.667341
0.612477
-0.669967
-0.307123
-0.504643
-0.624619
-0.229851
-0.63727
-0.299024
0.050704
0.0583293
0.180682
0.575164
0.273325
1.21933
0.316988
1.73827
0.337537
2.16825
0.346484
2.58808
0.349401
3.03918
0.355635
3.565
0.368004
4.19786
0.398115
5.12095
0.560991
6.05804
0.749439
7.35114
0.780805
6.91958
0.706784
5.56153
0.237174
3.37103
-0.326331
1.17598
-0.649107
0.0156529
-0.624472
-0.649255
-0.336901
-0.924841
-0.635925
0.0353533
0.022976
0.214648
0.39587
0.33973
1.09425
0.416655
1.66134
0.456474
2.12843
0.479615
2.56494
0.490567
3.02822
0.50991
3.54566
0.545466
4.1623
0.622659
5.04375
0.925694
5.755
1.39974
6.87709
1.76922
6.5501
2.04382
5.28693
1.75827
3.65658
1.04724
1.88702
0.434712
0.628179
0.0463768
-0.26092
-0.098176
-0.780288
-0.734101
0.0311712
-0.00819515
0.234055
0.192986
0.432847
0.895457
0.541256
1.55293
0.593731
2.07595
0.628685
2.52999
0.651715
3.00519
0.682976
3.5144
0.746574
4.09871
0.884601
4.90573
1.29465
5.34496
2.03576
6.13598
2.41961
6.16625
2.6232
5.08334
2.46407
3.81571
1.92632
2.42476
1.37494
1.17956
0.821191
0.292832
0.305294
-0.264391
-0.428807
0.0276315
-0.0358267
0.171283
0.0493352
0.483071
0.583669
0.669521
1.36648
0.763035
1.98244
0.813634
2.47939
0.852664
2.96616
0.88439
3.48267
0.960349
4.02275
1.10798
4.7581
1.48257
4.97037
2.26909
5.34946
2.63717
5.79817
2.82151
4.899
2.72757
3.90966
2.26042
2.89191
1.62121
1.81877
0.976915
0.937126
0.419958
0.292565
-0.00884837
0.00806921
-0.0438959
0.0890756
-0.0316711
0.40949
0.263254
0.67819
1.09778
0.804213
1.85642
0.841134
2.44246
0.85165
2.95565
0.842083
3.49224
0.841661
4.02317
0.885867
4.71389
1.01272
4.84351
1.40994
4.95224
1.60969
5.59843
1.63189
4.87679
1.55552
3.98604
1.34599
3.10143
0.995549
2.16922
0.629546
1.30313
0.258671
0.66344
0.249823
-0.000134763
-0.0437611
0.0388082
-0.0706141
0.228621
0.0734414
0.50808
0.818324
0.665897
1.6986
0.718819
2.38954
0.732319
2.94215
0.726629
3.49793
0.710508
4.03929
0.727728
4.69667
0.782108
4.78913
1.03041
4.70393
1.25104
5.3778
1.25819
4.86964
1.19597
4.04826
1.04782
3.24958
0.785534
2.43151
0.489196
1.59947
0.201061
0.951575
0.450884
-0.000275524
-0.0434856
0.0226743
-0.0935639
0.106767
-0.0106517
0.356084
0.569007
0.510911
1.54377
0.580353
2.3201
0.600603
2.9219
0.602242
3.49629
0.581321
4.06021
0.572579
4.70541
0.595664
4.76605
0.745514
4.55408
0.925557
5.19775
0.92435
4.87084
0.860685
4.11193
0.745292
3.36497
0.564771
2.61203
0.342614
1.82162
0.132249
1.16194
0.583132
-0.00355682
-0.0399288
0.0130492
-0.11017
0.0609544
-0.0585569
0.255397
0.374565
0.390077
1.40909
0.449674
2.2605
0.465197
2.90638
0.470402
3.49109
0.459093
4.07152
0.447209
4.7173
0.447032
4.76623
0.535052
4.46606
0.662757
5.07005
0.658685
4.87492
0.593831
4.17678
0.500839
3.45796
0.37327
2.7396
0.217923
1.97697
0.0744268
1.30544
0.657559
0.0225571
-0.0624859
0.0700488
-0.157662
0.111102
-0.0996102
0.194462
0.291205
0.287087
1.31647
0.326672
2.22092
0.337294