/*--------------------------------*- C++ -*----------------------------------*\
| =========                 |                                                 |
| \\      /  F ield         | OpenFOAM: The Open Source CFD Toolbox           |
|  \\    /   O peration     | Version:  4.0                                   |
|   \\  /    A nd           | Web:      www.OpenFOAM.org                      |
|    \\/     M anipulation  |                                                 |
\*---------------------------------------------------------------------------*/
FoamFile
{
    version     2.0;
    format      ascii;
    class       volScalarField;
    location    "48";
    object      p;
}
// * * * * * * * * * * * * * * * * * * * * * * * * * * * * * * * * * * * * * //

dimensions      [0 2 -2 0 0 0 0];

internalField   nonuniform List<scalar> 
918
(
0.562897
1.20461
0.00172686
0.562282
-0.0114653
1.17164
-0.49434
0.704564
0.543061
-0.0923396
-0.0244391
0.540021
1.03227
0.79886
-1.11669
-0.00194205
0.661711
-0.373652
0.542125
-0.0390167
0.736051
0.549631
0.55266
0.543244
0.609394
0.776041
0.913331
0.0190895
0.00643327
0.00294008
-0.0105335
-0.036648
-0.0291484
1.05528
1.10638
1.12907
0.511126
0.339876
-0.361702
-0.429468
-0.421764
-0.538092
0.699193
0.698096
-0.187053
0.707368
0.712606
0.530182
0.542428
0.543336
0.544391
0.543354
0.544745
0.417856
-0.0950545
-0.127742
-0.0716417
-0.063234
0.0723625
-0.0252971
-0.0275386
-0.0239783
-0.0226766
0.461075
0.535236
0.532296
0.545241
0.554409
1.14416
1.11607
1.14222
1.05592
1.07241
1.01024
0.982918
0.819061
0.840926
0.78526
0.77304
-1.55243
-2.5107
-0.523071
-0.270379
-0.0101771
0.00359409
0.0121954
0.656162
0.656147
0.663384
0.670783
1.09014
-0.372578
-0.473611
0.542257
0.541057
0.549423
0.550119
0.546134
0.545226
-0.0329673
-0.0299128
-0.0360006
-0.0376639
-0.0352044
0.72507
0.723327
0.543779
0.540792
0.561142
0.582059
0.573958
0.288125
0.612508
0.625988
0.60405
0.768095
0.761727
0.770602
0.886789
0.850867
0.950423
0.973489
0.016064
0.000845294
-0.0100214
-0.0157859
-0.0150406
0.507012
0.499648
0.5264
0.514511
0.516982
0.255715
0.121032
0.425568
0.450818
-0.277506
-0.338827
-0.421114
-0.448266
-0.559205
0.614214
0.690361
0.687896
-0.201976
-0.128576
-0.258877
-0.0552599
-0.116331
0.520521
0.527477
0.522507
0.53798
0.532464
0.53442
0.546683
0.543761
0.545317
0.480296
0.603863
0.344286
0.309935
-0.234297
-0.1454
-0.235843
-0.0510674
-0.0464373
0.0859778
0.111087
0.059186
0.0477786
-0.0397821
-0.0314909
-0.0357526
-0.0213456
-0.0249369
0.453972
0.443002
0.473622
0.481062
0.524766
0.526018
0.529593
0.527926
0.93361
0.955931
0.963618
0.937418
-3.50774
-6.30359
0.0569775
0.194493
-0.00591042
-0.00949679
0.00170691
-0.00397027
0.00137453
-0.00115531
0.00994265
0.00723404
0.0108333
0.0127602
0.64813
0.648255
1.00967
1.01239
0.988835
0.940172
0.530394
0.532491
0.538024
0.533891
-0.0240672
-0.0272869
-0.0250494
0.714521
0.720387
0.7185
0.25043
0.162372
0.338275
0.36677
0.640812
0.629355
0.639275
0.664408
0.701785
0.980906
0.999212
0.99738
1.00585
1.04987
1.06627
1.03166
0.486772
0.496586
0.491628
0.52957
0.527303
0.528228
0.523835
0.525269
0.52312
-0.0304843
-0.413096
0.50028
0.518508
0.500277
0.505384
0.693545
0.770648
0.672277
0.681316
0.67893
0.0125338
-0.0452811
0.266043
0.232674
0.394561
0.430366
0.409646
0.904856
0.865353
0.915436
0.888636
0.84999
0.875451
-0.364756
-1.87305
-0.987509
0.546701
0.359607
0.447422
0.0293713
0.0114968
0.0171417
1.00554
1.08156
0.659774
0.830783
0.836312
0.738494
0.768324
0.824616
0.751963
0.785368
0.818703
0.798375
0.571187
0.513165
0.525602
0.840042
0.896211
0.133948
0.0753046
0.0311154
0.129711
0.185827
0.160438
1.04315
0.951471
1.02292
0.540545
0.541253
0.000359495
-0.00855391
0.545444
0.545493
-0.00814459
0.00307859
0.430483
-0.825589
0.116846
0.533968
0.524049
0.541075
-0.0753982
0.371292
-0.0252891
0.0677393
0.0105674
0.537566
0.471942
0.431784
0.00531227
-0.0103306
-0.0330518
-0.204384
0.538216
0.536522
0.540544
0.541508
0.542175
-0.012315
-0.00750699
-0.00655695
-0.0324218
-0.0283809
-0.0380401
0.505335
0.523579
-0.159285
0.540685
0.542809
0.542634
0.535849
0.5415
0.539736
-0.00253723
-0.00959947
-0.0119219
0.232915
0.360554
0.673236
0.762886
0.643927
0.41765
0.180555
0.574454
0.638786
0.543267
0.698531
0.686134
0.701941
0.182173
0.0323914
0.190583
0.132539
0.531826
0.530512
0.522305
0.519325
0.53594
0.534044
0.538609
0.535601
0.538553
0.539946
-0.0334249
-0.0572909
-0.0709176
-0.136854
0.326866
0.588018
0.26792
0.298218
0.159907
-0.0203467
-0.0215821
-0.0253474
-0.0316974
0.0214625
-0.00450806
0.0624371
0.062502
0.0341039
0.00723688
0.0133286
0.00104243
0.005442
0.530727
0.529125
0.535508
0.544572
0.481417
0.48516
0.450622
0.471033
0.456489
0.396412
0.431044
0.406467
0.00100534
0.00989745
0.00248282
-0.00559703
-0.00109359
-0.0204871
-0.018044
-0.0165006
-0.0125811
-0.0180245
-0.0268145
-0.0269445
-0.163942
-0.27867
0.995988
0.924504
0.13738
0.527392
0.533824
0.530602
0.535458
0.538582
0.539412
0.537143
0.533701
0.524018
0.525648
0.52231
0.523041
-0.0924716
-0.230801
-0.0604869
-0.132201
0.149977
0.631971
0.372404
0.309677
0.304443
0.530958
0.936423
0.725102
0.704098
0.720597
-0.332643
0.061277
-0.266906
0.351947
0.175432
0.671093
0.720421
0.742431
0.690324
0.642995
-0.0997463
0.563429
-0.0567008
-0.00705484
0.192802
0.0741285
0.703256
0.67015
0.674134
0.69163
0.709166
0.676401
0.659718
0.654258
0.687617
0.691294
0.502665
0.264157
0.217028
0.178173
0.653716
0.539259
0.593803
0.507782
0.52691
0.529596
0.528205
0.510099
0.517601
0.513188
0.519449
0.522826
0.531654
0.532064
0.527403
0.529562
-0.0377517
-0.0407058
-0.0157244
-0.125502
-0.115801
-0.17694
-0.0519226
0.0861906
0.0488875
0.24455
0.350292
0.0625502
-0.0497563
-0.0216945
0.0158693
0.188775
0.214561
0.0910658
0.179367
0.167757
0.151444
0.252256
0.257175
-0.00634663
-0.0106368
-0.0132054
-0.0152917
0.0386552
0.108935
0.11903
0.0155046
0.0100645
-0.0170692
-0.0169709
-0.00355593
-0.00831763
-0.00471244
0.0299554
-0.0399271
-0.00694848
0.00856128
0.0175153
0.0140803
0.00920579
0.523173
0.525413
0.525087
0.532673
0.550747
0.566924
0.523755
0.503338
0.494249
0.497238
0.4706
0.480761
0.476502
0.489993
0.510904
0.520114
0.517606
0.520324
0.503046
0.504719
0.491478
0.495115
0.470424
0.451579
0.439971
-0.0313789
0.0062018
-0.000237648
-0.0290508
0.000291414
-0.012337
0.00619017
0.0235736
0.00906111
0.00514693
-0.0041622
-0.014099
-0.0121542
-0.0666155
0.0177847
-0.175158
-0.212184
-0.281924
0.897493
1.02057
0.820564
0.594325
0.6107
0.853072
0.939048
0.557186
0.745211
0.769326
0.589182
0.854938
0.532208
0.531819
0.529419
0.528895
0.530117
-0.00105853
0.101966
0.105713
0.164833
0.281706
0.394787
0.319191
0.194441
0.326349
0.329845
0.624482
0.637592
0.593029
0.616528
0.616952
0.435701
0.511446
0.564181
0.520949
0.571818
0.592736
0.549287
0.581256
0.531329
0.486345
0.482748
0.432554
0.452838
0.429587
0.411808
0.522237
0.499594
0.510116
0.500434
0.519969
0.54426
0.541064
0.573553
0.584578
0.504353
0.46062
0.470151
0.500446
0.460917
0.475756
0.491943
0.234825
0.135248
0.219037
-0.0693985
0.00690854
-0.00743618
-0.0549372
-0.00686263
0.278372
-0.416222
-0.39167
-1.02234
0.505488
0.967333
0.653357
0.62666
0.706092
0.687511
0.692572
0.711156
0.715347
0.644481
0.661219
0.663708
0.625749
0.649286
0.6705
0.667557
0.533263
0.398702
0.394354
0.346346
0.217207
0.254729
0.455215
0.377411
0.302429
0.303655
0.46948
0.35643
0.425699
0.462054
0.393369
0.347113
0.551493
0.616475
0.60756
0.581898
0.498867
0.512915
0.537105
0.57267
0.598865
0.630116
0.51905
0.524887
0.526137
0.523638
0.520878
0.523866
0.524042
0.526575
0.527309
0.530265
0.529287
-0.0261288
-0.0147481
-0.0281545
-0.0355818
-0.00496149
-0.00918021
0.0345667
0.0210464
0.00597157
0.0122159
-0.0144127
-0.0186002
-0.0135456
-0.00440798
0.112602
0.125128
0.108971
0.0697208
0.257924
0.38867
0.460793
0.337546
0.2306
0.254433
0.276085
0.00601903
0.0331103
0.0203381
0.0589389
0.0504084
-0.0142116
-0.0178976
-0.0172148
-0.00878663
0.000955248
-0.0184871
-0.0228519
-0.0130874
-0.017754
-0.0186303
-0.0237085
0.505551
0.499107
0.500706
0.494673
0.493406
0.507502
0.511727
0.513669
0.519055
0.521225
0.511531
0.517119
0.520815
0.006197
-0.0191308
-0.0222218
-0.00881763
-0.0143937
-0.0139183
-0.0140175
0.126676
0.0553055
0.0597719
0.0141377
-0.114838
-0.0571992
0.49368
0.493297
0.487228
0.723163
0.573113
0.49317
0.590129
0.695279
0.277693
0.47643
0.309795
0.892865
0.787022
0.933517
0.546722
0.247562
0.406963
0.455848
0.26464
0.337433
0.334874
0.221967
0.2542
0.288714
0.390519
0.269178
0.244666
0.0019925
0.190742
0.305837
0.287096
0.414592
0.47686
0.266437
0.188039
0.142117
0.613342
0.631422
0.64687
0.620426
0.641395
0.582947
0.571131
0.589392
0.599304
0.594901
-0.749632
-0.456233
-1.40172
-0.718586
-0.26608
0.536526
0.502307
0.775684
0.656465
0.710927
0.695134
0.652416
0.61965
0.637643
0.665827
0.359895
0.471291
0.446156
0.451167
0.352373
0.283821
0.585196
0.579393
0.614311
0.637736
0.606687
0.637971
0.516825
0.516498
0.51607
0.512368
0.51063
0.512924
0.0734057
0.0427739
0.0773989
0.0584616
0.0357959
0.0243371
0.0121317
0.00198853
-0.00571505
-0.00690551
0.00821155
0.0127703
0.171309
0.111483
0.0324199
0.0621213
0.00224355
-0.0655359
-0.0832521
0.0179521
0.112531
0.103063
0.408776
0.66054
0.480465
0.647802
0.488951
0.544665
0.476852
0.469035
0.495728
0.384323
0.463759
0.242904
-0.264431
-0.17254
0.792943
0.808101
0.590909
0.409967
0.178419
0.362266
0.554931
0.487837
0.525304
0.594571
0.584128
0.0237839
0.0863035
0.359228
0.586496
0.241317
0.232766
0.226834
0.405842
0.326932
)
;

boundaryField
{
    wall-4
    {
        type            zeroGradient;
    }
    velocity-inlet-5
    {
        type            zeroGradient;
    }
    velocity-inlet-6
    {
        type            zeroGradient;
    }
    pressure-outlet-7
    {
        type            fixedValue;
        value           uniform 0;
    }
    wall-8
    {
        type            zeroGradient;
    }
    frontAndBackPlanes
    {
        type            empty;
    }
}


// ************************************************************************* //
