/*--------------------------------*- C++ -*----------------------------------*\
| =========                 |                                                 |
| \\      /  F ield         | OpenFOAM: The Open Source CFD Toolbox           |
|  \\    /   O peration     | Version:  4.0                                   |
|   \\  /    A nd           | Web:      www.OpenFOAM.org                      |
|    \\/     M anipulation  |                                                 |
\*---------------------------------------------------------------------------*/
FoamFile
{
    version     2.0;
    format      ascii;
    class       volScalarField;
    location    "12";
    object      p;
}
// * * * * * * * * * * * * * * * * * * * * * * * * * * * * * * * * * * * * * //

dimensions      [0 2 -2 0 0 0 0];

internalField   nonuniform List<scalar> 
918
(
0.228778
0.934551
0.00643186
0.228139
0.000262659
0.901717
-0.846249
0.418226
0.208599
-0.135728
0.0206123
0.200047
0.762057
0.529895
-1.45392
0.0146281
0.367828
-0.637395
0.206932
0.00596565
0.504995
0.215318
0.218531
0.209285
0.263954
0.524966
0.642604
0.000328795
-0.00227626
-0.00190801
0.00279039
-0.00223198
0.00404525
0.785361
0.836447
0.859088
0.176646
0.0421578
-0.692835
-0.772884
-0.759058
-0.878503
0.402849
0.408791
-0.491546
0.415682
0.429582
0.197297
0.208044
0.209052
0.209922
0.209197
0.210627
0.30306
-0.153965
-0.214923
-0.0803956
-0.0613656
0.0832648
0.0189183
0.0124683
0.0211667
0.0224861
0.13915
0.196992
0.193092
0.203353
0.213692
0.874099
0.846013
0.872142
0.785807
0.802342
0.740041
0.712619
0.54966
0.57072
0.515864
0.506959
-1.8921
-2.86401
-0.853627
-0.590274
0.00152713
0.02138
0.0268829
0.347445
0.35603
0.361308
0.374385
0.796618
-0.594454
-0.818806
0.206558
0.205023
0.215127
0.216011
0.212347
0.211285
0.0131988
0.0191637
-0.00394654
0.00562913
0.00309699
0.479177
0.471395
0.210157
0.20708
0.221196
0.245363
0.23187
-0.0187635
0.278885
0.308571
0.322105
0.505195
0.503206
0.510824
0.616013
0.578703
0.680108
0.703444
0.00736287
0.00210109
0.0113293
0.00727713
0.010519
0.175399
0.170486
0.189148
0.178427
0.182752
-0.0465561
-0.179985
0.131679
0.164194
-0.600506
-0.6748
-0.735193
-0.781412
-0.847497
0.151089
0.392212
0.395944
-0.509949
-0.416499
-0.576872
-0.34251
-0.419129
0.184845
0.19411
0.188149
0.203821
0.199129
0.199735
0.212156
0.209486
0.210931
0.333178
0.400749
0.25661
0.232663
-0.423851
-0.272523
-0.422365
-0.032888
-0.0229432
0.0935697
0.10738
0.0727503
0.0699329
-0.00600918
0.00966111
-0.00345666
0.0253913
0.027307
0.133157
0.123264
0.148029
0.154792
0.188514
0.188402
0.19153
0.191156
0.663149
0.685437
0.693217
0.667072
-3.87148
-6.68075
-0.256347
-0.108822
0.00204484
0.00270099
0.0015988
0.00231407
0.00357882
0.000613464
0.0428566
0.0384539
0.0306617
0.0348707
0.336363
0.340827
0.784647
0.864014
0.70275
0.71844
0.194656
0.198375
0.202577
0.198455
0.0265276
0.0211626
0.0270007
0.430112
0.451765
0.452673
-0.0540101
-0.141584
0.0295377
0.0565189
0.325364
0.308893
0.330609
0.38604
0.424173
0.710562
0.728865
0.727457
0.735918
0.779951
0.796358
0.761515
0.159531
0.168645
0.164605
0.193607
0.190762
0.191327
0.186641
0.189894
0.187856
-0.33446
-0.713277
0.241796
0.264162
0.220952
0.229056
0.244607
0.399323
0.369855
0.381704
0.388382
-0.276476
-0.346563
0.199713
0.181396
0.0827858
0.109487
0.0950449
0.634451
0.595078
0.645035
0.618359
0.580027
0.605461
-0.664047
-2.19283
-1.28861
0.26145
0.0639201
0.1563
0.0610802
0.0479946
0.0505697
0.811274
0.844242
0.45398
0.602598
0.565403
0.467611
0.499755
0.551414
0.475754
0.510608
0.54806
0.530574
0.105585
0.188966
0.101439
0.497764
0.604828
-0.165243
-0.210996
-0.273822
0.117909
0.153056
0.134032
0.779337
0.629207
0.746708
0.206582
0.207071
0.0106424
0.0162521
0.210799
0.211218
0.00608753
0.00863154
0.136294
-1.16168
-0.175573
0.198827
0.189938
0.206514
-0.11738
0.302301
0.0194344
0.0922631
0.0603023
0.195846
0.148945
0.112912
0.00678513
0.0189194
0.0139233
-0.477585
0.203895
0.202166
0.205986
0.207364
0.208139
0.00944845
0.0096699
0.00641361
0.0118162
0.00911382
0.00920591
0.176685
0.186955
-0.498781
0.206392
0.208365
0.208408
0.20187
0.207132
0.205116
0.0154948
0.0116538
0.0113603
-0.0669919
0.0487323
0.400272
0.515021
0.346579
0.115258
-0.136476
0.291554
0.363438
0.255745
0.429932
0.373314
0.398614
-0.120197
-0.265952
-0.102891
-0.15712
0.196852
0.196605
0.188638
0.182468
0.201633
0.200118
0.204164
0.202276
0.204784
0.205509
-0.0684324
-0.0647516
-0.152583
-0.233825
0.328774
0.415364
0.232956
0.247397
0.14626
0.0229273
0.0236973
0.0199613
0.01339
0.0570898
0.063508
0.0790454
0.0754319
0.0495085
0.0468417
0.0524152
0.0576409
0.0620172
0.191046
0.191171
0.195358
0.202444
0.155465
0.15958
0.130718
0.146822
0.137594
0.0802754
0.113449
0.092793
0.00821828
0.00981758
0.00835848
0.0236778
0.0293806
0.0149286
0.0136836
0.0128989
0.0104014
0.0113581
0.0179501
0.0222006
-0.504881
-0.56826
0.881039
0.675416
-0.0480332
0.193374
0.199119
0.196849
0.202122
0.204096
0.204312
0.202297
0.19974
0.187432
0.189065
0.185605
0.185756
-0.445534
-0.580538
-0.402125
-0.456692
-0.143401
0.311076
0.0604499
-0.000555437
-0.00407975
0.208727
0.593161
0.414861
0.468565
0.487152
-0.674011
-0.27215
-0.603452
0.00756192
-0.187214
0.39626
0.451481
0.477284
0.420619
0.366918
-0.402744
0.196224
-0.370495
-0.336645
-0.15135
-0.234475
0.426558
0.358021
0.364187
0.386546
0.409525
0.360203
0.341586
0.336724
0.377586
0.382357
0.176803
-0.029272
-0.0784058
-0.111152
0.337716
0.218578
0.271392
0.193506
0.191367
0.194376
0.19288
0.179074
0.185203
0.178285
0.186088
0.187525
0.197589
0.1972
0.192788
0.194986
-0.0372505
-0.0235323
-0.120788
-0.352724
-0.247285
-0.339942
-0.184263
0.0887648
0.0945778
0.118705
0.235734
0.0106998
-0.323729
-0.219164
-0.383117
-0.00484679
-0.128361
0.104862
0.156753
0.16919
0.141425
0.209709
0.195303
0.0383117
0.0477067
0.0303448
0.0299252
0.0991236
0.122195
0.114335
0.0482402
0.0491069
0.0257612
0.0271639
0.0710224
0.0420674
0.0544581
0.0646846
0.0223899
0.0247346
0.0291038
0.0405338
0.039806
0.0426338
0.186966
0.188576
0.187949
0.198346
0.210417
0.22351
0.194012
0.172642
0.165711
0.169366
0.146087
0.152942
0.150923
0.159648
0.178444
0.184326
0.183885
0.185149
0.170987
0.173175
0.160811
0.163929
0.147303
0.131918
0.119598
0.0189904
0.0114684
0.0149957
0.0160865
0.0105118
0.0131398
0.0430977
0.0341984
0.0394862
0.0338022
0.0370845
0.0169608
0.0182082
-0.542923
-0.492927
-0.566879
-0.579391
-0.62917
0.801471
0.8228
0.668301
0.403356
0.42234
0.681193
0.788467
0.418808
0.485793
0.525932
0.0358949
0.512368
0.200664
0.198818
0.195271
0.195664
0.198118
-0.33647
-0.240617
-0.233773
-0.185496
-0.000514025
0.10611
0.110451
-0.240257
-0.0773731
-0.0452531
0.303781
0.320801
0.266465
0.292283
0.291165
0.126845
0.193286
0.242344
0.208001
0.24548
0.264867
0.227255
0.256012
0.209254
0.170818
0.171287
0.117556
0.135661
0.116438
0.0990304
0.18764
0.167553
0.177053
0.170733
0.18856
0.220533
0.211779
0.232373
0.249766
0.177796
0.142504
0.150378
0.177288
0.139658
0.150388
0.165106
-0.0201428
-0.106668
-0.0572562
-0.419205
-0.298619
-0.315733
-0.365233
-0.330677
-0.0397813
-0.77234
-0.715689
-1.35269
0.138618
0.621775
0.384698
0.357056
0.406442
0.380576
0.379818
0.419829
0.426479
0.328485
0.349825
0.350426
0.301662
0.328691
0.35615
0.354408
0.176198
0.0686426
0.0569919
0.0247346
-0.102142
-0.0736351
0.13426
0.0589925
-0.0126281
-0.00298383
0.154296
0.0575123
0.117065
0.150748
0.0840381
0.0445001
0.234229
0.296222
0.293309
0.262965
0.184632
0.195725
0.2207
0.251625
0.279225
0.314339
0.187086
0.191493
0.193151
0.190654
0.186972
0.189383
0.188667
0.19091
0.191835
0.194612
0.193125
0.0120919
0.0191443
-0.00635894
0.00130724
-0.00266352
-0.0328167
0.0377654
-0.0361844
0.0316564
0.0283735
-0.00266233
-0.0115708
-0.00095481
0.0163029
0.148687
0.1742
0.159406
0.107023
0.153878
0.354629
0.316237
0.277235
0.17198
0.21732
0.300466
0.0816314
0.0929237
0.0779198
0.103072
0.098005
0.0299149
0.0285214
0.0319671
0.0407526
0.0380732
0.0299349
0.0248746
0.0253674
0.0277442
0.0266252
0.0263978
0.17287
0.169047
0.170895
0.164631
0.163215
0.17585
0.178662
0.179804
0.18421
0.185628
0.1785
0.181689
0.184363
0.0284955
0.0224063
0.0242082
0.0234609
0.0245032
0.0210744
0.0204617
-0.635005
-0.600025
-0.603578
-0.620413
-0.53783
-0.579344
0.089609
-0.0629231
0.108518
0.363994
0.194989
0.135159
0.157383
0.251401
-0.212249
0.0508787
-0.159949
0.670097
0.484814
0.635068
0.173583
-0.0927982
0.0478376
0.106303
-0.0587368
-0.008829
-0.00249308
-0.110484
-0.0831825
-0.0446773
0.0575434
0.00456708
0.0154207
-0.167695
0.028846
0.0185733
-0.0151128
0.134737
0.218448
-0.0139253
-0.0814868
-0.175558
0.295412
0.313535
0.328509
0.304781
0.324191
0.253263
0.24354
0.263263
0.272688
0.265517
-1.09924
-0.821753
-1.75009
-1.06825
-0.659221
0.157361
0.12956
0.38235
0.290316
0.381204
0.363816
0.328618
0.293693
0.294881
0.33334
0.053086
0.155327
0.128658
0.137129
0.0451842
-0.0152072
0.264767
0.261138
0.296552
0.321235
0.282394
0.323449
0.183218
0.183584
0.183323
0.180362
0.176588
0.178215
0.0894787
0.0677262
0.0984172
0.0807468
0.0554346
0.0563387
0.0344228
0.0301549
0.0270379
0.0279761
0.031934
0.0363366
-0.266482
-0.400299
-0.622981
-0.637877
-0.375529
-0.474412
-0.460622
-0.521191
-0.367288
-0.317608
0.0277935
0.395937
0.116935
0.409041
0.160508
0.336709
0.187218
0.245848
0.269063
0.101719
0.134697
-0.194689
-0.632923
-0.560775
0.403848
0.409638
0.191045
-0.0283049
-0.247173
-0.0325145
0.211507
0.153731
0.194904
0.259718
0.256138
-0.340501
-0.261359
-0.0603642
0.175594
-0.0904388
-0.103358
-0.0984044
0.0391468
-0.0273029
)
;

boundaryField
{
    wall-4
    {
        type            zeroGradient;
    }
    velocity-inlet-5
    {
        type            zeroGradient;
    }
    velocity-inlet-6
    {
        type            zeroGradient;
    }
    pressure-outlet-7
    {
        type            fixedValue;
        value           uniform 0;
    }
    wall-8
    {
        type            zeroGradient;
    }
    frontAndBackPlanes
    {
        type            empty;
    }
}


// ************************************************************************* //
