/*--------------------------------*- C++ -*----------------------------------*\
| =========                 |                                                 |
| \\      /  F ield         | OpenFOAM: The Open Source CFD Toolbox           |
|  \\    /   O peration     | Version:  4.0                                   |
|   \\  /    A nd           | Web:      www.OpenFOAM.org                      |
|    \\/     M anipulation  |                                                 |
\*---------------------------------------------------------------------------*/
FoamFile
{
    version     2.0;
    format      ascii;
    class       surfaceScalarField;
    location    "12";
    object      phi;
}
// * * * * * * * * * * * * * * * * * * * * * * * * * * * * * * * * * * * * * //

dimensions      [0 3 -1 0 0 0 0];

internalField   nonuniform List<scalar> 
1300
(
3.75095
5.62643
-6.24119
3.75095
-6.10486
5.62643
-4.48096
4.48096
-1.48998
1.48998
1.8766
1.87435
-4.69598
4.69598
-4.86418
4.86418
-2.84905
2.84905
-5.24645
5.24645
-5.06781
5.06781
4.69279
-4.69279
-4.94046
4.94046
-1.91074
1.91074
-4.31909
4.31909
3.17752
-3.17752
-5.14136
5.14136
-0.533114
0.533114
-0.554962
4.30592
3.19599
3.19599
-2.57305
2.57305
-4.84739
4.84739
6.21825
-6.21825
9.46565
-9.46565
-3.22445
-3.38926
1.35959
-8.11015
-4.74527
-4.74527
-8.4404
8.4404
-2.81397
2.81246
2.9588
-2.9588
-1.69642
1.69642
-4.46209
-0.0188674
-4.46209
4.43073
0.0502236
4.43073
-1.62251
0.132527
-1.62251
4.09539
-4.09539
1.31449
0.175495
1.31449
3.05628
-3.05628
-1.87699
3.75359
1.87397
-1.87296
6.17888
-1.87799
3.75234
-4.97952
4.97952
-4.6383
-0.0576734
-4.6383
4.73102
-0.0350427
4.73102
-5.25365
5.25365
-4.80483
-0.059346
-4.80483
4.94057
-0.0763941
4.94057
3.06262
-3.06262
-2.87723
0.0281791
-2.87723
2.80743
0.0416206
2.80743
0.35356
5.27287
-5.97999
8.79245
-5.27287
0.0264209
5.20842
0.0380257
5.20842
-5.106
0.0381882
-5.106
5.00783
0.0599853
5.00783
4.78267
-0.0898766
4.78267
-4.80862
0.115827
-4.80862
-3.33241
-3.33053
-5.03535
0.0948885
-5.03535
-1.94595
0.0352109
-1.94595
1.86639
0.0443515
1.86639
-3.55105
3.55105
-4.20463
-0.114458
-4.20463
3.12864
0.0488774
3.12864
1.86803
1.88292
5.61899
-5.61899
2.44147
-5.11887
-0.022488
-5.11887
-5.17132
-4.29433
5.17132
-0.0299629
-0.843744
0.31063
-0.843744
3.15918
0.0368151
3.15918
2.71863
0.0888019
-2.71863
0.14558
3.44722
-3.44722
1.9355
0.637546
1.9355
-5.57213
5.57213
4.94677
0.0610616
-4.94677
0.0993731
6.15799
0.0602631
6.15799
-6.19952
-0.0187371
-6.19952
3.38081
-6.77006
-3.38978
4.84308
0.0973753
-4.84308
0.0978087
2.97635
-0.0175555
2.97635
-2.91141
2.91141
-2.96764
0.00884004
-2.96764
-2.10901
0.412586
-2.10901
1.39193
0.304491
1.39193
-4.39215
-0.0699363
-4.39215
-4.32838
0.123742
4.32838
0.102356
0.715565
-0.715565
-1.74965
0.127137
-1.74965
-4.23695
-0.155201
4.23695
-0.141559
-4.00149
-0.0939001
-4.00149
-3.00534
0.0377043
3.00534
0.0509389
3.11519
0.0439902
-3.11519
0.0589061
-1.87124
3.75416
-1.87971
3.75368
-4.78712
-0.192395
-4.78712
5.1126
-0.133083
5.1126
4.52012
-0.201029
-4.52012
-0.118184
4.76849
-0.0374719
4.76849
-5.21597
-0.0376708
-5.21597
5.26757
-0.0139235
5.26757
4.78118
-0.0126891
-4.78118
-0.0236492
5.01627
-0.0757013
5.01627
3.11235
-0.0497369
3.11235
-3.0289
-0.0337135
-3.0289
2.91059
-2.91059
2.90091
0.00967613
-2.90091
0.0236852
-11.1328
11.1141
-0.0350298
-11.0978
5.17339
5.17339
4.18907
0.593596
4.18907
-5.01588
0.207267
-5.01588
3.34245
-6.73223
3.35203
-6.68444
3.33179
-11.4419
3.34323
-6.67376
5.17521
-5.17521
5.11262
0.062585
-5.11262
0.0772785
-1.99107
0.0451124
-1.99107
-3.08285
-0.468194
-3.08285
4.00789
-0.456841
4.00789
-3.01628
3.01628
-3.07478
0.0584974
3.07478
0.0538568
5.07703
-0.0607583
-5.07703
-0.0418383
1.08311
0.231384
-1.08311
0.239362
3.64239
-0.195178
3.64239
-3.27453
-0.172682
-3.27453
-1.97872
-0.0123504
1.97872
-0.0432149
-5.81923
0.247101
-5.81923
-11.1908
0.0930211
-11.1528
-6.1065
-6.1065
2.3339
11.1264
-3.00015
-0.0287549
3.00015
-0.0237957
2.9502
0.0660863
-2.9502
0.0387846
-2.90873
-0.00185688
2.90873
0.00267959
-2.50964
0.400631
-2.50964
-0.958727
0.958727
-1.17255
0.213819
1.17255
0.219386
1.07239
-0.356823
1.07239
1.81197
0.0544265
-1.81197
0.0623166
-3.90939
-0.0921069
-3.90939
5.17852
-0.0659263
5.17852
-3.17208
-0.102458
3.17208
-0.0597235
-0.0332595
11.1473
-5.14013
0.0341317
5.14013
-11.2076
11.2417
-3.20939
0.699755
3.20939
0.979676
5.29819
0.273936
-5.29819
0.28231
5.22812
0.039453
-5.22812
0.0529076
-2.63485
-0.448002
-2.63485
-4.45315
-0.333973
4.45315
-0.44526
-11.4763
-0.202317
11.6787
-11.4164
6.02155
0.136443
-6.02155
11.3782
-0.672583
-0.0429826
0.672583
0.286144
1.51741
-0.445017
1.51741
3.80863
-0.166234
-3.80863
-0.100757
-5.19539
-0.0205866
5.19539
-0.0168639
-2.00296
-0.631893
2.00296
-0.485552
-4.26795
4.30476
1.91093
-3.36805
-3.40201
-7.66237
1.85253
1.90163
4.294
-7.05319
-4.38874
-6.95538
7.27893
-6.99662
-9.32336
9.23349
7.43915
-7.53306
-5.77309
5.82695
6.4365
-6.38556
1.88059
1.873
9.619
-9.67667
-11.4292
11.2369
10.143
-10.2023
10.8969
-10.9345
-12.4845
12.5239
-5.74659
5.77477
-6.60543
6.57172
-6.78536
6.72563
-3.29866
-3.38578
9.11201
-9.01712
11.7606
-11.7831
-7.98668
7.87222
3.38696
0.917805
3.43095
-1.88257
3.76316
-1.86977
3.7807
3.38269
-6.68135
3.34955
-6.75156
6.06921
5.69138
-6.03924
-1.62313
-5.86598
5.84842
-5.85889
5.86157
8.79557
-8.81444
-1.88461
3.75761
-1.86907
3.7707
-3.41823
-2.35486
3.36935
0.924647
5.58602
3.52599
-5.6834
-1.27199
-7.62953
7.4633
-7.90093
7.72825
-0.463533
5.82704
-5.36351
4.38386
-1.54767
7.37472
5.73126
5.93852
5.86988
-5.59595
1.12674
-6.49025
-6.39087
-2.70938
2.83652
2.64971
-2.47422
5.87176
1.5674
5.7302
-5.42296
-2.1101
-5.51506
3.80803
2.01892
3.86653
4.01506
2.42144
4.05276
3.03597
-3.03546
-0.000506819
-3.06263
6.0986
0.722144
-5.41749
-4.49285
6.53827
3.08073
6.50323
-6.02371
-3.65296
-6.14189
-6.93101
-4.49824
-7.26498
7.14024
4.09661
7.00716
-8.20111
8.18424
6.77387
3.3691
6.69748
-6.69896
-3.50336
-6.72261
10.5741
-2.65136
-7.92277
-7.01699
-5.46748
7.03091
3.86596
7.58539
4.93853
7.6383
3.59144
6.98269
-7.4574
1.98992
-3.83845
-1.90814
-3.81476
3.73571
2.03906
3.77733
-4.13213
-2.4733
-4.16088
-4.20017
-2.58519
4.24991
2.32181
-4.32266
-3.57828
4.42511
2.30052
3.05243
-7.44117
3.62132
-7.00711
-6.34977
-2.66735
-6.2725
4.12206
2.61357
-6.73564
-2.55929
10.934
-5.2426
9.31085
-7.31312
-4.46995
-7.35496
-5.90858
-2.0781
-5.78484
-7.68867
7.24067
-7.00968
6.55284
14.3055
-5.34079
-8.96471
-3.96552
-2.42004
3.90661
-0.475663
-3.71552
3.71502
0.0476371
3.82833
4.74614
4.27048
-3.87248
-1.98641
-3.8337
3.86673
1.99484
3.86487
6.42995
2.36562
6.48017
-6.38911
-2.42533
-6.45905
8.94246
-8.52988
2.92433
-2.93668
5.15007
2.57818
-4.95489
-2.67464
5.99573
-3.03482
-2.96092
-12.2269
10.6339
1.593
-4.8522
-0.468343
0.0647711
-5.52782
-3.79554
5.41199
0.526531
11.1604
7.36491
-5.51413
5.76123
6.16453
6.2256
-0.165279
5.81481
-5.11505
5.1235
-2.24698
-2.87652
5.24662
-5.40182
-1.21243
-5.30799
4.09556
0.328378
1.89921
-1.58858
-2.13694
-0.572434
-2.07463
1.59403
1.05569
1.82541
1.01278
1.82373
-2.90623
0.517958
2.38827
-1.89344
-1.95626
-3.60131
-0.892261
4.49357
5.4395
2.0238
-5.33874
-0.176322
2.7888
-2.74445
-0.879496
-2.72182
1.92088
-2.80037
-3.39932
-1.8224
5.22172
-3.36741
-0.466291
3.30132
0.565206
-3.74096
-2.12502
3.73212
0.320646
-3.11031
6.20916
-3.09885
-5.09672
2.52933
3.56927
4.54825
-4.83237
2.45935
2.37302
-1.2631
5.7478
0.755423
5.71033
-8.26672
4.61377
6.05781
1.81441
-5.85679
-0.285108
-8.55183
10.501
-8.12663
-2.37435
6.20863
4.29235
6.08847
8.21703
-5.82094
11.9094
0.839424
-8.96605
7.71241
-5.898
3.73686
-9.63486
-11.9539
2.98784
-7.50796
8.74751
-1.23955
-2.36217
-5.83894
9.87013
-1.1023
-8.76783
5.90486
-5.44117
-5.34038
10.7816
-8.09253
8.84374
-2.74171
-6.10203
-6.87206
-4.06249
6.89264
1.2916
-9.97723
11.9671
-2.99454
5.912
0.785477
5.8363
4.06387
-6.01002
1.94615
4.02866
-6.77037
2.96395
-8.97397
-4.90998
9.5807
-4.67072
-7.57733
-6.78276
-0.794568
2.02937
9.93778
-6.96791
5.35438
1.61353
3.33732
0.527557
-3.34699
-0.467771
0.347043
4.43959
-4.78663
4.12437
4.21317
3.35536
1.08423
3.82144
2.02698
-3.79764
-0.36324
-4.01908
1.43389
-1.69727
-3.51678
4.95067
-3.94127
0.424495
-2.63645
-3.47449
6.11094
-4.54459
3.07739
3.13177
5.07223
-4.83471
1.36022
-2.39771
-2.43701
2.58105
-4.27832
1.86868
3.08199
4.1692
0.59092
4.87556
4.70515
-7.48913
0.482024
8.23113
-6.95915
1.7082
5.93009
-7.06258
0.279816
-5.99268
1.10003
-6.34263
-5.63561
3.59891
-5.67701
-6.03595
5.60615
0.874028
-5.7085
-0.0763367
-5.32023
-2.36844
-5.95212
-2.15065
-4.85903
-7.97159
-1.91344
-6.05815
5.32723
-4.87988
-2.3851
5.32514
1.2277
-7.48187
7.43889
-7.60763
7.16261
0.0764838
3.63853
4.34696
1.92692
-2.37543
4.30235
-4.74623
7.11185
-8.76604
4.01982
4.1282
-6.55352
-4.63785
4.91668
4.02579
5.22117
9.47963
-10.2945
0.81487
-11.0172
13.031
-2.01379
-17.0667
6.04951
-7.58704
2.64271
0.281616
2.68782
0.665137
2.33695
-3.00209
-2.27154
-2.31475
-2.24165
-3.25159
5.49324
1.1789
-3.2575
2.0786
-3.42231
4.60121
-0.0307185
-3.22678
5.10029
-2.76334
5.3819
-3.45303
1.92888
3.2324
5.46843
-2.23603
4.16515
-1.58696
1.76109
-3.99712
-1.4905
-2.95899
4.99805
-3.15195
3.57644
-0.211416
3.78786
-3.99498
0.960159
-0.639615
3.57356
3.71914
4.11932
-3.03509
2.83871
-4.42568
-1.1584
-3.83476
-0.752769
-0.712553
-3.72222
4.43478
5.89432
-6.60687
-5.34631
9.5028
-4.15649
7.66075
-5.46201
-2.19874
-4.22648
-4.3034
3.82585
1.98896
9.6497
0.157546
-5.61955
-4.9575
-3.97783
3.13001
1.9935
-2.09454
3.68754
2.02977
-0.13056
0.640612
1.1848
1.8955
-1.25488
0.164419
1.73108
-1.42416
2.06305
0.72575
-2.11748
0.0428504
-1.40356
3.32444
0.984706
-2.04039
0.785509
1.07754
-3.32453
4.66972
-2.29394
-2.37578
5.74726
1.2095
-3.50344
4.09849
-3.77012
2.30876
-3.20102
-1.19468
-4.9648
-3.3974
-2.45376
4.53236
-3.03948
5.06328
1.13304
-4.88696
6.02
-3.43369
1.61129
-3.07498
3.80073
-1.16752
-1.90746
2.60786
2.61386
-2.79647
0.0746534
-0.188614
2.17926
-2.36787
-0.621115
-2.51456
-4.56549
4.88613
-2.1583
4.61765
2.14404
-1.92347
6.54113
1.84297
-3.76645
-3.25374
-3.72003
-1.39342
3.15483
-1.00013
-5.72248
-7.10216
5.73517
-0.0248381
-8.51187
10.178
-1.66612
-5.43115
0.817381
5.39125
-7.661
0.890632
-4.69705
5.48094
6.23636
6.21153
-9.08862
0.320782
-4.99201
1.87525
-6.86726
6.1676
-4.55937
7.54721
-8.57774
6.19264
-7.35004
5.17286
-1.6944
5.61593
-3.66978
2.30684
-6.36933
-5.07772
7.00156
-3.63246
7.78704
-4.15454
11.9416
-7.14909
6.98859
4.953
-1.43698
-5.91798
-6.84615
5.40917
0.142443
5.97874
4.90833
-2.88134
4.54509
2.20653
-4.60424
-2.07178
-6.45381
1.84957
-3.32205
-1.87289
3.72246
3.19934
3.7269
1.28546
-3.25913
6.71197
-7.50654
-2.04125
-3.59436
6.75526
-1.34609
4.05732
-7.65168
-2.28531
7.35648
-1.88854
-5.46794
-2.01569
-4.02026
1.52429
-5.54456
4.15272
-4.22905
2.22908
-9.81612
-5.25279
-4.96665
-2.40993
-5.1977
-7.93388
5.52395
-1.88437
5.55452
-9.14606
7.25752
-3.8849
9.40885
-5.19825
-0.753874
5.6838
1.47881
10.8877
0.0129712
-4.65082
-1.76849
3.83831
-2.06982
1.36152
-3.70925
0.129057
2.40254
3.34472
-6.4981
-0.0554231
-4.70624
-3.82632
7.8521
5.67648
11.5708
1.2763
9.05948
-1.20738
10.3358
4.01379
4.23318
-3.89232
4.70719
0.542452
4.56227
-0.838501
2.76738
1.84932
1.88453
0.859916
2.26612
1.45302
3.22628
0.224194
-2.09056
4.7011
-8.67893
-0.918454
-8.08533
1.14815
5.80552
-4.65736
3.03112
-1.03762
0.961297
0.195245
-1.82246
1.62722
-2.68128
-1.95302
-0.221947
-1.48256
2.26807
1.84188
-2.04613
-0.635149
0.273947
-3.67134
2.92707
-2.85242
-0.238557
5.78144
-2.62076
0.25289
-1.00947
-2.26167
-2.8341
2.79125
6.22875
0.312374
3.1299
5.1985
3.07349
0.192143
5.03548
-6.27503
-3.93849
-5.95425
0.213353
5.60461
2.09143
7.84635
7.04443
5.69834
-1.95334
-9.45988
8.45604
-3.74884
6.44225
-0.974311
-4.57025
4.12126
2.99058
-4.99529
0.766237
-3.80401
-7.55285
-1.16348
8.421
-9.72417
8.97029
6.60186
-0.543706
-4.29231
-0.674335
4.07849
0.154681
10.4905
-1.1871
-6.98468
8.17179
-4.61841
3.69996
0.818728
2.86881
2.44595
1.40833
-5.57636
-10.2337
-1.76744
-1.55709
-4.14322
0.350357
-2.19223
6.25104
-2.55108
4.0523
5.6207
6.582
-2.36359
-4.24328
6.52008
-2.46778
4.11423
)
;

boundaryField
{
    wall-4
    {
        type            calculated;
        value           uniform 0;
    }
    velocity-inlet-5
    {
        type            calculated;
        value           uniform -3.75095;
    }
    velocity-inlet-6
    {
        type            calculated;
        value           uniform -5.62643;
    }
    pressure-outlet-7
    {
        type            calculated;
        value           nonuniform List<scalar> 8(6.24119 6.10486 6.61371 6.75056 6.66294 6.77059 6.69448 6.67501);
    }
    wall-8
    {
        type            calculated;
        value           uniform 0;
    }
    frontAndBackPlanes
    {
        type            empty;
        value           nonuniform 0();
    }
}


// ************************************************************************* //
