/*--------------------------------*- C++ -*----------------------------------*\
| =========                 |                                                 |
| \\      /  F ield         | OpenFOAM: The Open Source CFD Toolbox           |
|  \\    /   O peration     | Version:  4.0                                   |
|   \\  /    A nd           | Web:      www.OpenFOAM.org                      |
|    \\/     M anipulation  |                                                 |
\*---------------------------------------------------------------------------*/
FoamFile
{
    version     2.0;
    format      ascii;
    class       volVectorField;
    location    "12";
    object      U;
}
// * * * * * * * * * * * * * * * * * * * * * * * * * * * * * * * * * * * * * //

dimensions      [0 1 -1 0 0 0 0];

internalField   nonuniform List<vector> 
918
(
(0.985253 -0.000477668 0)
(0.00500434 2.96626 0)
(-0.00423074 1.6561 0)
(0.979752 0.00211337 0)
(0.000706429 1.62581 1.29842e-21)
(-0.00703352 2.94878 -1.91627e-18)
(0.835561 1.1874 7.38834e-19)
(0.508246 0.245816 -9.13393e-21)
(0.999951 -0.000441213 0)
(0.0346269 1.37916 0)
(-0.0094262 1.4234 0)
(0.842352 -0.00443783 0)
(0.0111092 2.93035 0)
(0.00106227 2.79441 0)
(-0.0205132 3.17578 1.08012e-18)
(-0.00297696 1.53944 -1.6766e-20)
(0.605964 0.110061 5.64823e-19)
(0.208957 1.3647 5.32934e-19)
(0.966422 0.00623502 0)
(0.00279343 1.52589 0)
(0.177267 0.282298 -4.97534e-19)
(1.00133 -0.00517947 0)
(0.999985 -0.0101874 0)
(0.975373 -0.00666736 0)
(0.758886 -0.0257452 0)
(0.0189387 2.62728 0)
(-0.0153952 2.91023 6.66314e-19)
(-0.00943678 1.68085 0)
(-0.0100223 1.76615 0)
(-0.00836557 1.67852 0)
(0.00473006 1.79933 0)
(0.00250192 1.63955 -1.02806e-21)
(-0.00129204 1.55198 0)
(-0.0206081 2.98759 -6.72088e-23)
(-0.0167043 3.0053 1.4895e-18)
(0.00210236 3.0002 0)
(0.882733 -0.00367115 0)
(0.377475 0.898336 -1.08617e-20)
(0.83867 1.19388 -1.04258e-18)
(0.984726 1.04737 9.75673e-19)
(0.717651 1.27003 -1.75718e-19)
(0.681686 1.26811 9.92178e-19)
(0.544137 0.312224 8.91173e-21)
(0.53647 0.216313 0)
(1.19578 0.571648 0)
(0.4997 0.330136 4.12874e-20)
(0.46546 0.241284 -4.28403e-20)
(0.916023 -0.00752736 0)
(1.00032 6.35088e-05 0)
(0.99995 0.000300517 0)
(1.00458 -0.00797229 0)
(1.00045 -0.000509541 0)
(1.00014 0.000149899 0)
(0.0371867 1.58266 -5.80548e-19)
(0.0080081 1.496 0)
(0.0439448 1.36284 0)
(0.00418107 1.53004 0)
(0.0260915 1.37549 0)
(0.0032628 1.58866 0)
(-0.0152289 1.55408 0)
(-0.00414649 1.40952 0)
(-0.0160086 1.58271 0)
(-0.0115594 1.45036 0)
(0.914023 0.000510163 0)
(0.911605 0.00529518 0)
(0.853494 0.000175457 0)
(0.905983 0.00869614 0)
(0.830048 -0.00310928 0)
(0.0146976 3.0004 7.02319e-19)
(0.0115202 3.00793 0)
(0.00612754 3.00283 0)
(0.0135569 2.99735 7.84282e-24)
(0.00797905 2.95846 -1.04382e-18)
(0.0145394 2.98206 0)
(0.0107876 2.90356 0)
(0.0252005 2.93023 1.42476e-24)
(0.00416475 2.82507 0)
(0.0319286 2.91503 0)
(-0.00679837 2.74282 0)
(0.30798 3.57142 0)
(-0.132726 3.65415 0)
(0.137962 3.26573 -1.00523e-18)
(-0.00900043 2.99827 0)
(0.00301773 1.77633 0)
(-0.00336056 1.65142 1.654e-20)
(-0.00233994 1.55118 -2.6187e-20)
(0.666327 0.163529 -1.93798e-19)
(0.625482 0.0711172 -1.87675e-19)
(0.63468 0.197954 -5.82263e-19)
(0.59058 0.133671 -3.89614e-19)
(0.270664 1.14534 0)
(0.179965 1.37757 -5.86543e-19)
(0.381705 1.3104 9.89173e-19)
(0.988511 0.0102007 0)
(0.943554 0.00944937 0)
(1.00034 0.000661237 0)
(1.00263 0.00953214 0)
(1.00227 0.0086074 -1.06518e-18)
(0.991837 0.00951808 8.12981e-19)
(-0.00400359 1.62966 0)
(-0.00131173 1.52568 0)
(-0.0122815 1.69062 0)
(-0.00758671 1.6479 0)
(0.00156477 1.53716 0)
(0.263618 0.292109 1.52598e-19)
(0.305448 0.270413 0)
(0.99285 -0.0085115 0)
(0.954737 -0.00570215 0)
(0.881174 0.0226909 0)
(0.845274 0.0295186 0)
(0.803027 -0.00293906 0)
(1.03027 -0.00208688 0)
(0.797511 0.0319597 0)
(0.685549 -0.0176086 7.61885e-19)
(-0.0347708 2.86672 3.50164e-19)
(0.044152 2.90684 0)
(0.0582161 2.88207 0)
(-0.00602002 2.6947 0)
(-0.0127741 2.98534 6.13699e-19)
(-0.0184246 2.89593 0)
(-0.015346 2.98812 -1.93883e-18)
(-0.0134892 2.92519 6.69268e-19)
(-0.00562685 1.80992 0)
(-0.00300663 1.8051 0)
(-0.00116702 1.65344 -3.38333e-22)
(0.00138279 1.63891 0)
(-0.00219339 1.53787 0)
(0.941404 0.00126557 0)
(0.884463 0.00222531 0)
(0.862959 -6.21657e-06 0)
(0.941431 -0.00298038 0)
(0.883611 -0.00265146 0)
(0.489882 1.08871 3.03086e-21)
(0.537354 1.14743 0)
(0.343544 0.837906 7.74076e-21)
(0.277436 0.711396 0)
(0.954613 1.08097 -2.82821e-19)
(1.07707 0.89709 5.83103e-19)
(0.383049 1.34991 0)
(0.55553 1.33444 0)
(0.515044 1.30509 0)
(0.0850693 0.00325923 -9.12987e-20)
(0.575783 0.288558 0)
(0.567098 0.198413 1.12806e-19)
(1.04577 0.943835 0)
(1.1156 0.789211 0)
(1.14183 0.737893 -5.0595e-19)
(1.17697 0.628822 0)
(1.23104 0.415987 6.18128e-20)
(0.948534 -0.0029227 0)
(0.955619 -0.00808656 0)
(0.897923 -0.00496133 0)
(0.985193 -0.00883914 0)
(0.974168 -0.00787853 0)
(0.939254 -0.0058793 0)
(1.00023 0.00232199 0)
(1.00076 0.00138445 0)
(0.999937 0.000744834 0)
(0.0210153 1.6852 3.15422e-19)
(0.0635485 1.5594 0)
(0.0100299 1.71258 5.09173e-19)
(0.0190438 1.59583 -4.3288e-19)
(0.0498073 1.40552 -4.3957e-19)
(-0.0100005 1.46186 0)
(0.0752579 1.36183 0)
(0.000318681 1.54458 0)
(0.0176082 1.38127 0)
(0.000959218 1.6762 -1.26664e-21)
(0.00375052 1.58667 0)
(-0.00106987 1.68789 -6.19208e-20)
(-0.00346278 1.59373 1.18497e-19)
(0.00153398 1.55285 0)
(-0.00654151 1.55007 0)
(0.010697 1.39522 0)
(-0.0176248 1.60481 0)
(-0.0103771 1.47472 0)
(0.979466 0.0135011 0)
(0.931395 0.00450154 0)
(0.963425 0.00657182 0)
(0.905489 0.00177334 0)
(0.859889 -0.00532221 0)
(0.931353 0.00194022 0)
(0.924245 0.00819601 0)
(0.857284 0.00201253 0)
(0.00591079 3.06478 -6.2089e-21)
(0.0162537 3.05812 0)
(0.0147522 2.96912 0)
(0.00846481 2.87633 0)
(0.921393 3.98687 0)
(1.23449 3.30995 1.00769e-18)
(0.0721503 3.09061 0)
(-0.024422 2.91481 0)
(-0.00609578 1.79603 0)
(-0.00467179 1.78093 0)
(-0.0013189 1.78457 0)
(0.00124476 1.78726 3.67736e-21)
(-0.00125685 1.77796 0)
(0.00481708 1.78003 0)
(-0.00302724 1.56154 4.17199e-21)
(-0.00324137 1.67196 3.53844e-20)
(-0.00343338 1.66344 2.67611e-20)
(-0.00213027 1.55414 0)
(0.692941 0.132382 2.85119e-19)
(0.660634 0.0507187 -2.7652e-19)
(0.237773 1.32173 0)
(0.301442 0.962407 -2.72946e-19)
(0.170257 1.43577 -7.90736e-19)
(0.204693 1.29935 7.90195e-19)
(0.896871 0.00977969 0)
(0.965654 0.0136932 0)
(0.975823 0.0136164 0)
(0.922233 0.011433 0)
(-0.0147749 1.61965 0)
(-0.00853618 1.62787 0)
(-0.0070662 1.50048 0)
(0.452565 0.347856 3.79912e-19)
(0.373549 0.326596 -4.65471e-19)
(0.388009 0.245692 0)
(1.14845 0.084449 -3.42002e-21)
(1.13394 0.0387213 0)
(1.06344 0.0339423 0)
(0.979579 0.00193278 0)
(0.720475 0.0914995 0)
(0.744427 0.0527796 -1.22396e-18)
(0.677424 0.0155644 4.68676e-19)
(0.0101463 2.98284 4.3889e-19)
(-0.0319319 2.86883 4.89098e-20)
(0.00384706 3.05019 -1.33892e-20)
(0.0199662 3.04358 4.81648e-19)
(-0.0150335 2.99655 2.22244e-20)
(-0.0130071 2.94943 -8.99262e-23)
(-0.0172973 3.01199 -4.20499e-19)
(0.0147982 3.024 3.03832e-19)
(0.00727387 3.03674 -4.75572e-19)
(0.959342 0.0063885 0)
(0.952266 0.00551634 0)
(0.892378 0.00470574 0)
(0.952095 0.012589 0)
(0.936894 0.00959255 0)
(0.873371 0.00821998 0)
(0.932813 -0.00261596 0)
(0.925986 -0.000119223 0)
(0.860547 -0.00738509 0)
(0.691772 1.38049 3.02471e-19)
(0.730886 1.49605 0)
(0.209531 0.378792 3.0432e-20)
(0.145413 0.548448 2.99813e-19)
(0.246878 0.6662 -1.5073e-19)
(0.213363 0.573341 2.94537e-19)
(0.35665 0.621867 6.03969e-19)
(0.113672 0.109708 2.56834e-19)
(0.619921 0.225889 4.22811e-19)
(0.599854 0.254367 1.03424e-19)
(0.575662 0.164138 2.16554e-19)
(1.2194 0.469143 2.95042e-19)
(1.23756 0.263408 3.09525e-19)
(-0.00154731 1.7161 2.00814e-19)
(0.00382257 1.59672 0)
(1.01877 0.0230107 0)
(0.993207 0.0129182 0)
(0.950713 -0.00295296 0)
(0.0107742 3.07455 0)
(0.0201079 2.94403 8.30891e-19)
(0.0166339 2.95641 0)
(0.00608763 2.85081 -8.2413e-19)
(0.00595473 3.09132 1.97351e-19)
(0.00774166 3.08245 0)
(0.763655 1.80598 -2.29336e-19)
(1.23886 2.5023 6.2352e-19)
(0.747549 1.95211 -1.46346e-18)
(0.0217279 2.98609 -3.24483e-19)
(0.0387012 3.01187 0)
(-0.0311443 2.884 0)
(-0.00860332 1.67472 -8.13146e-21)
(-0.00537763 1.67653 -8.27595e-20)
(-0.00557879 1.5782 -5.63728e-21)
(0.306267 1.22101 8.42308e-19)
(0.312073 0.777757 -5.60755e-19)
(0.039891 1.63735 5.27557e-19)
(0.0882387 1.5449 -6.5156e-19)
(0.112746 1.45698 8.10809e-20)
(0.00246029 3.11864 -1.17148e-18)
(0.0178058 3.11767 1.25089e-18)
(-0.00842556 2.98141 5.33978e-19)
(-0.00241668 2.97831 -4.74754e-19)
(-0.021279 2.88301 -5.43836e-19)
(0.00909724 3.09924 -1.44898e-18)
(0.00267752 3.10624 1.40645e-18)
(0.226608 0.497404 0)
(0.0603682 0.494369 -3.55421e-19)
(0.122291 0.12124 1.50405e-19)
(0.389448 0.773685 7.28296e-19)
(0.222387 0.239075 -1.10338e-18)
(1.2308 0.171479 -5.54564e-20)
(1.23455 0.313849 0)
(1.2189 0.120587 1.2136e-19)
(-0.0061131 1.68827 -1.61447e-21)
(-0.008917 1.6988 0)
(-0.00049645 1.58599 0)
(0.335738 1.0648 -2.90065e-19)
(0.346755 0.960997 -5.79339e-19)
(0.243236 0.50176 1.0005e-18)
(1.00552 -0.0098892 0)
(1.00742 -0.00799872 1.95009e-19)
(-0.00522621 1.80282 0)
(-0.010309 1.80896 0)
(1.00263 0.00368388 1.87181e-21)
(1.00218 0.00847651 3.99199e-19)
(0.00206676 1.78962 -4.73578e-21)
(0.00167586 1.79026 0)
(0.0437108 3.18985 1.26079e-19)
(0.399737 3.50959 0)
(1.10141 0.640165 6.40974e-20)
(1.01332 0.0132925 -2.68496e-21)
(1.01375 -0.0217325 0)
(1.0015 0.000439048 2.16018e-22)
(-0.0582814 1.67521 0)
(0.0226596 1.90165 0)
(-0.0185578 1.78524 0)
(0.00347738 1.81946 9.05808e-20)
(-0.00741949 1.80914 4.22431e-20)
(1.00347 0.0116277 2.27021e-21)
(1.04489 0.0150715 0)
(1.07435 0.0234303 0)
(-0.00812588 1.78328 0)
(-0.00746364 1.80043 0)
(-0.0108201 1.79634 0)
(0.0629345 1.36064 -4.35082e-19)
(1.01149 -0.00880052 0)
(1.01032 -0.0137398 0)
(1.003 0.000636765 2.48911e-19)
(1.0061 -0.00542906 -2.97041e-19)
(1.00108 -0.00132401 0)
(-0.0107241 1.78619 0)
(-0.00540352 1.79772 0)
(-0.00567943 1.79251 0)
(-0.0080651 1.79838 0)
(-0.00648045 1.79547 0)
(-0.00799973 1.79818 0)
(1.0232 0.0114436 0)
(1.02319 0.00177856 -9.6589e-22)
(0.769749 1.23668 5.30357e-19)
(1.00202 0.000655757 -2.47504e-19)
(1.00378 0.00529838 2.99521e-19)
(1.00126 0.00196233 0)
(1.01046 0.0103992 2.43024e-19)
(1.00793 0.00978679 -2.99572e-19)
(1.00514 0.0149705 0)
(-0.00675134 1.80062 0)
(-0.00136208 1.7948 1.41538e-20)
(-0.0028819 1.79491 -9.70631e-21)
(1.1781 0.260678 -6.23414e-20)
(1.11375 0.0791218 0)
(0.0599435 3.07855 -5.48931e-19)
(0.071063 2.84934 -4.39822e-20)
(0.152812 3.19912 8.36065e-19)
(0.144543 3.22758 -1.04256e-20)
(0.145086 3.25234 0)
(0.0231057 3.13966 1.1952e-19)
(0.0847338 3.16349 5.35919e-19)
(0.076785 3.19202 -2.30981e-19)
(0.0272641 3.12848 0)
(0.708563 0.342862 0)
(0.612083 0.395076 0)
(1.08126 0.670071 -2.48254e-19)
(1.07076 0.811627 3.87111e-19)
(1.12846 0.557038 0)
(1.1626 0.50725 0)
(1.01547 0.0125247 -4.55013e-19)
(1.01231 0.0163217 5.6511e-19)
(1.01215 -0.0207947 0)
(1.0104 -0.0175011 0)
(1.00711 0.00117264 0)
(1.01147 0.00258667 0)
(1.00452 0.00317932 0)
(1.01161 0.00710421 0)
(1.00627 0.00561493 0)
(1.00547 0.00441191 0)
(-0.0441584 1.68532 0)
(-0.0276762 1.71639 0)
(-0.0838495 1.65372 0)
(-0.0645455 1.61039 0)
(0.0317236 1.90792 0)
(0.0918364 1.89238 -3.39012e-19)
(0.0124024 1.89899 0)
(0.00431998 1.88029 1.56617e-19)
(-0.0191569 1.8424 -1.5774e-19)
(-0.0212191 1.7841 0)
(-0.0236747 1.78358 0)
(-0.0138624 1.78542 0)
(-0.00694783 1.77551 0)
(-0.0152694 1.81179 -4.53863e-20)
(-0.00592959 1.81114 5.70786e-20)
(0.00326409 1.82045 7.5985e-20)
(0.0020101 1.8163 0)
(-0.00999675 1.81143 -9.55384e-20)
(-0.00918619 1.80855 -5.46025e-20)
(-0.010149 1.8104 3.63369e-20)
(-0.012304 1.8068 -7.80767e-20)
(-0.00612339 1.81647 -9.58953e-20)
(1.01017 0.0164455 4.39487e-19)
(1.00889 0.00433309 -5.51505e-19)
(1.00444 0.0199557 -4.58754e-19)
(0.989848 0.0152037 5.80501e-19)
(1.0383 0.016251 0)
(1.04018 0.00977019 0)
(1.06019 0.0349106 0)
(1.0453 0.0192012 0)
(1.05961 0.0124951 0)
(1.10118 0.0650503 0)
(1.07753 0.0474042 0)
(1.09472 0.0340767 0)
(-0.00270284 1.78714 -1.55721e-21)
(-0.00806493 1.77947 0)
(-0.0056364 1.78066 0)
(-0.00662155 1.80249 1.53331e-20)
(-0.00537108 1.8025 -7.50549e-22)
(-0.0131098 1.7812 1.60909e-20)
(-0.0111234 1.78573 -1.60754e-20)
(-0.0106501 1.79389 0)
(-0.00883126 1.79487 0)
(-0.0102752 1.79615 0)
(-0.0126115 1.79505 0)
(-0.0129865 1.79725 0)
(0.21531 1.30062 9.10464e-19)
(0.343382 1.32045 3.38022e-19)
(0.432479 2.09909 -2.04544e-19)
(0.23593 1.93436 4.88535e-19)
(-0.0809903 2.3835 1.9493e-20)
(1.01524 -0.0203098 0)
(1.01584 -0.0136158 0)
(1.01267 -0.0234398 0)
(1.00901 -0.00152652 0)
(1.00546 -0.00239394 0)
(1.00648 -0.00436871 0)
(1.00974 -0.00427977 0)
(1.01136 -0.00924908 0)
(1.02439 0.00376599 4.34322e-19)
(1.01765 0.0100291 -5.47791e-19)
(1.02368 0.00119382 -4.24539e-19)
(1.02063 0.00208268 5.22742e-19)
(0.756179 1.24731 0)
(0.639961 1.32253 6.4366e-19)
(0.866068 1.16984 3.71118e-19)
(0.905068 1.12916 -4.95647e-19)
(1.11861 2.57791 -4.43731e-19)
(0.821448 0.109088 2.91445e-19)
(1.11505 0.090345 0)
(1.15753 0.173396 5.71181e-20)
(1.14733 0.150415 2.51702e-21)
(0.96421 0.134499 0)
(0.164646 2.97042 1.18538e-19)
(0.133407 2.87653 -6.93146e-19)
(0.0443232 2.34178 5.08346e-19)
(0.11943 0.150355 -2.08727e-19)
(0.342534 3.43996 -4.44485e-19)
(0.200677 3.33037 0)
(0.242402 3.37992 5.78865e-19)
(0.260526 3.049 -7.21309e-19)
(0.360694 3.21083 0)
(0.00700048 3.12069 2.78049e-20)
(0.0177825 3.12985 -3.55302e-19)
(0.0157792 3.1256 5.22957e-19)
(0.0396972 3.14051 0)
(0.0384704 3.15259 0)
(1.17784 2.59915 0)
(0.509249 0.823044 -2.19805e-19)
(1.01075 0.982954 -2.06071e-19)
(0.964381 1.05611 0)
(0.824169 0.94112 6.03453e-20)
(1.03584 0.863685 3.30604e-20)
(0.407666 0.487969 -5.51988e-19)
(0.735503 0.334315 -2.3932e-20)
(0.737411 0.283432 2.24031e-19)
(0.609862 0.437713 1.7854e-20)
(0.557459 0.431025 -7.3523e-19)
(0.705614 0.370428 0)
(0.681428 0.433313 3.70148e-19)
(0.695254 0.433493 0)
(0.655384 0.411824 0)
(0.67124 0.35992 0)
(0.732788 0.604805 1.30971e-19)
(1.16386 0.267697 2.89215e-20)
(1.16327 0.398069 0)
(1.18615 0.368336 0)
(0.784455 0.21871 3.32085e-19)
(0.782596 0.535807 -1.84295e-19)
(0.686463 0.509271 3.00934e-19)
(0.876681 0.404221 -2.85275e-19)
(1.01768 0.0144489 2.9507e-19)
(1.0156 0.0173125 -3.06942e-19)
(1.01284 0.0214986 0)
(1.02014 0.0103945 0)
(1.0112 -0.00913075 -2.66348e-19)
(1.00847 -0.0012469 2.69742e-19)
(1.03063 0.00347743 0)
(1.02886 0.00166267 0)
(1.01322 0.00537053 0)
(1.01634 0.0118081 0)
(1.02578 0.00200913 0)
(1.01946 0.00196421 0)
(-0.0243406 1.73491 0)
(-0.0213219 1.7411 0)
(-0.143343 1.67479 8.45851e-20)
(0.0105711 1.43795 1.84334e-19)
(-0.0736991 1.56255 3.65085e-19)
(-0.0256174 1.47433 -5.96328e-19)
(-0.181473 1.64734 0)
(-0.173806 1.90287 -5.39246e-20)
(-0.142048 1.89736 0)
(-0.11831 2.36995 -2.73393e-20)
(-0.0175691 2.28155 4.05495e-19)
(-0.220769 1.92448 4.86421e-20)
(-0.159069 1.51561 1.4322e-19)
(-0.199504 1.6197 -1.14218e-19)
(-0.209379 1.51407 4.00659e-19)
(-0.220054 2.01675 0)
(-0.212852 2.06011 -2.28009e-19)
(-0.0424184 1.82507 -4.3164e-20)
(-0.0201127 1.84992 0)
(-0.0323964 1.8349 1.77616e-19)
(-0.0409639 1.83073 0)
(-0.00580388 1.8733 -1.74416e-19)
(-0.00997835 1.86316 0)
(-0.0136429 1.79728 -3.38267e-20)
(-0.0121831 1.80219 0)
(-0.0181041 1.79275 0)
(-0.016547 1.79552 3.98451e-20)
(-0.0113153 1.82533 -5.30779e-22)
(-0.0206081 1.83954 1.90676e-19)
(-0.00912472 1.83082 1.27037e-21)
(-0.0147344 1.79821 3.08622e-20)
(-0.0151057 1.79859 1.84063e-20)
(-0.0244737 1.78606 0)
(-0.0216637 1.78752 0)
(-0.0323549 1.80801 1.02068e-19)
(-0.0233278 1.79161 6.4953e-20)
(-0.0227722 1.79845 -9.42443e-20)
(-0.0464984 1.81707 0)
(-0.0114563 1.79259 -5.40305e-20)
(-0.0100862 1.80216 2.57651e-20)
(-0.00976274 1.80166 -8.04398e-21)
(-0.0140582 1.79859 -3.83102e-20)
(-0.00922885 1.80558 -1.29612e-20)
(-0.011384 1.80825 6.30822e-20)
(1.02006 0.00362975 -2.82088e-19)
(1.01393 0.0102185 2.875e-19)
(1.01442 0.00350102 0)
(0.994838 0.0465316 4.09801e-19)
(0.988706 0.0324618 -4.88586e-19)
(0.962319 0.0278317 5.68262e-19)
(0.993177 0.0852644 -5.49381e-20)
(1.02578 0.012003 0)
(1.03203 0.0102363 2.52727e-19)
(1.03165 0.00742135 -2.515e-19)
(1.03271 0.0413869 -1.36669e-20)
(1.0306 0.0265521 1.20183e-19)
(1.02066 0.0472204 0)
(1.01379 0.0419353 -4.48873e-20)
(1.01309 0.0228992 0)
(1.0163 0.0173282 0)
(1.02945 0.00620052 0)
(1.0239 0.00278599 0)
(1.01929 0.0228595 9.23539e-20)
(1.02374 0.0150066 -2.10616e-19)
(1.02059 0.0323439 -9.4849e-20)
(1.01975 0.0329494 -1.0938e-19)
(1.01779 0.0457838 1.92169e-19)
(1.05384 0.0445744 0)
(1.04226 0.0853091 0)
(-0.0122394 1.7923 -2.24716e-20)
(-0.0105758 1.78536 -1.82083e-21)
(-0.0114594 1.78533 0)
(-0.00832426 1.79579 2.37101e-20)
(-0.006351 1.79242 3.1927e-21)
(-0.0052746 1.7944 -3.82861e-21)
(-0.0082735 1.80835 4.79339e-20)
(-0.00776752 1.80537 -2.86114e-21)
(-0.00832689 1.80454 1.38164e-20)
(-0.00570625 1.80587 -2.41115e-20)
(-0.00681157 1.80609 2.82855e-20)
(-0.0137423 1.78373 5.81686e-22)
(-0.0144658 1.78228 2.2788e-20)
(0.123562 1.18581 -4.89303e-19)
(-0.0889306 1.57982 -6.81157e-19)
(0.634143 1.29818 -6.27644e-19)
(0.487781 1.26891 -3.19808e-19)
(0.514654 1.35458 0)
(0.484487 2.17207 1.90502e-19)
(0.680213 2.09042 2.87435e-19)
(0.258857 1.95187 1.06222e-19)
(0.200839 2.28085 -4.21956e-19)
(0.195122 2.34918 4.24062e-19)
(0.392377 2.07997 0)
(0.336429 1.95617 -4.76711e-19)
(0.0982144 1.91057 8.80932e-19)
(0.213007 1.92927 -7.0585e-20)
(0.1746 1.87023 -1.18681e-18)
(0.911062 2.43491 -2.37843e-20)
(0.834703 2.37784 0)
(1.00974 -0.00401816 9.86037e-21)
(1.01292 -0.0118876 -8.14793e-21)
(1.01402 -0.0135316 -1.4358e-19)
(1.02226 -0.0150565 1.46193e-19)
(1.02016 -0.00765853 0)
(0.700822 1.20269 0)
(0.70078 1.16601 0)
(0.765534 1.0596 0)
(0.674393 1.15883 0)
(1.14378 2.594 7.36908e-20)
(1.04215 2.31263 0)
(0.960479 2.15399 9.93577e-22)
(0.904767 2.58749 0)
(1.05629 2.607 8.41393e-20)
(1.07371 2.52321 -5.59565e-20)
(0.830745 0.154518 0)
(0.798907 0.167357 8.39567e-20)
(0.888155 0.122548 4.29444e-19)
(0.852766 0.10402 -1.71837e-19)
(0.856017 0.0652426 -5.15767e-19)
(1.01386 0.214018 -2.62578e-19)
(0.939801 0.249546 -1.69983e-20)
(0.901196 0.244599 3.78353e-19)
(0.963103 0.18675 2.9017e-19)
(0.914481 0.162511 -5.39834e-19)
(0.887905 0.168826 6.93914e-20)
(0.92506 0.219461 -1.35284e-19)
(0.89925 0.186634 0)
(0.969915 0.164962 2.60205e-19)
(0.999798 0.169833 0)
(0.993978 0.190248 0)
(1.04565 0.0967379 8.52964e-20)
(1.01537 0.15736 -1.20704e-20)
(1.00779 0.218221 -4.67586e-20)
(1.04665 0.191216 0)
(1.00798 0.0252309 2.2017e-19)
(1.00938 0.0406788 2.63128e-19)
(1.01185 0.0303108 -2.17927e-19)
(1.00674 0.045046 -1.76762e-19)
(0.998006 0.0503212 -2.90361e-19)
(0.967079 0.133063 0)
(0.99082 0.0860865 0)
(0.964002 0.0450075 -2.04799e-19)
(0.924516 0.0531183 8.46755e-20)
(0.997544 0.0784928 2.50947e-19)
(1.00952 0.0942662 -2.59742e-19)
(1.0212 0.134896 2.36729e-19)
(1.00435 0.122157 0)
(1.02009 0.0798109 0)
(1.00977 0.0665983 -1.07653e-19)
(1.00925 0.0697614 -2.01767e-19)
(0.552116 1.17886 -3.3091e-20)
(0.552307 1.53802 9.45619e-20)
(1.09337 2.7684 5.53947e-20)
(1.18741 3.10593 -6.95645e-20)
(1.21031 2.71074 4.85855e-19)
(1.24243 2.70306 -3.10485e-19)
(1.16799 2.31418 -8.59488e-21)
(1.16954 2.99932 1.70854e-19)
(1.18973 2.95338 -1.6423e-19)
(1.18506 3.25905 -2.63444e-19)
(1.34916 2.97858 3.65188e-19)
(1.34475 2.8939 0)
(0.499558 0.831223 -1.28745e-20)
(0.176211 1.29552 3.68065e-19)
(0.512114 0.550959 3.62298e-19)
(0.343411 0.327605 4.04476e-19)
(0.557678 0.453891 4.09233e-19)
(0.540322 0.50365 -6.47763e-19)
(0.540169 0.52834 5.30334e-19)
(0.516548 0.474171 -2.1549e-19)
(0.489664 0.434122 4.94857e-19)
(0.783824 0.259527 -1.84458e-19)
(0.756133 0.28832 0)
(0.756523 0.255984 1.23002e-20)
(0.677206 0.514604 1.88995e-19)
(0.65679 0.483167 -7.00014e-19)
(0.598833 0.500107 2.06491e-20)
(0.619663 0.473351 0)
(0.620979 0.721631 1.46628e-19)
(0.774785 0.770938 5.78993e-20)
(0.709815 0.82475 -7.58904e-20)
(0.814527 0.803198 -1.84768e-20)
(0.875677 0.831197 1.48403e-20)
(0.882874 0.843912 -1.51785e-20)
(0.779904 0.622166 -2.24641e-19)
(0.857198 0.701485 1.71861e-20)
(0.92846 0.699615 0)
(0.915075 0.662945 -1.90742e-20)
(0.962328 0.287981 6.42153e-20)
(1.0656 0.264578 1.48804e-20)
(1.00126 0.242078 1.07289e-19)
(0.935942 0.326857 -1.4524e-19)
(0.980153 0.404545 0)
(1.04573 0.383723 0)
(0.862161 0.334717 5.13647e-21)
(0.848584 0.279291 0)
(0.847544 0.244631 2.01207e-19)
(0.885066 0.251856 -3.01441e-21)
(0.869008 0.408948 7.81955e-19)
(0.824623 0.472186 1.97289e-19)
(0.82283 0.436155 -2.49563e-19)
(0.760191 0.42964 2.67999e-19)
(0.747554 0.432256 1.82417e-19)
(0.734392 0.424762 -1.78706e-19)
(1.02419 0.00490829 2.37013e-19)
(1.03166 -0.00275023 0)
(1.03096 -0.00803174 1.57169e-19)
(1.02273 -0.00609947 -3.52034e-19)
(1.03621 0.00292211 1.6717e-19)
(1.03157 0.00661658 -3.62844e-19)
(1.0293 0.00555263 0)
(1.02331 0.00833191 -7.51908e-20)
(1.02826 0.00621548 1.89031e-19)
(1.02005 0.0126198 -9.5121e-20)
(1.02127 0.0131777 6.93327e-20)
(-0.0101965 1.77463 0)
(-0.0224019 1.78926 0)
(-0.017844 1.75647 0)
(-0.00864513 1.7598 0)
(-0.0789237 1.75409 -2.39933e-20)
(-0.0805536 1.71275 2.93275e-21)
(-0.126437 1.86551 -2.76772e-20)
(-0.159001 1.73965 -6.91959e-20)
(-0.0372674 1.79288 -4.84858e-20)
(-0.0491339 1.78918 3.45216e-20)
(-0.0595184 1.7587 -5.96934e-21)
(-0.0471916 1.77985 1.08533e-20)
(-0.032589 1.78135 1.23162e-21)
(-0.0294093 1.78545 -4.51137e-21)
(-0.0337752 1.85127 -1.8875e-19)
(-0.0246546 1.88187 0)
(-0.0643049 1.87625 1.15597e-19)
(-0.0916501 1.86727 6.6892e-20)
(-0.105557 2.08297 -6.10322e-20)
(0.0414637 2.03704 0)
(0.0120234 2.08903 -4.4062e-19)
(0.0107985 2.20171 3.09455e-19)
(-0.0667206 1.99226 -2.13495e-19)
(-0.0648141 1.9348 1.11544e-19)
(-0.0166844 1.95445 0)
(-0.0285495 1.80869 -1.31005e-19)
(-0.0206773 1.81426 -1.77177e-19)
(-0.020692 1.81322 0)
(-0.0265095 1.82389 -5.22754e-21)
(-0.0368585 1.8217 6.8697e-20)
(-0.0201343 1.79334 5.2469e-21)
(-0.0233951 1.79043 -8.59625e-20)
(-0.0248272 1.78972 1.96009e-20)
(-0.0205339 1.79176 3.59911e-20)
(-0.0142146 1.79852 0)
(-0.0239223 1.78751 0)
(-0.0168584 1.79393 2.76368e-20)
(-0.0184121 1.78591 -8.78248e-21)
(-0.0238848 1.78692 0)
(-0.0220701 1.79022 2.20128e-20)
(-0.0169594 1.79424 -4.17595e-20)
(1.02471 0.0164941 0)
(1.02656 0.0149085 -2.24945e-20)
(1.02426 0.0148736 -1.69045e-19)
(1.02412 0.0180669 0)
(1.02443 0.0204099 0)
(1.02694 0.00875876 -4.56521e-21)
(1.02733 0.00930972 2.78652e-19)
(1.02379 0.00836385 3.40852e-19)
(1.02288 0.00579279 0)
(1.01911 0.00597338 0)
(1.02135 0.0140476 1.71023e-19)
(1.01862 0.0121936 0)
(1.01954 0.0112547 0)
(-0.0119684 1.79367 0)
(-0.0143843 1.78181 2.00872e-21)
(-0.0147682 1.78544 1.2924e-20)
(-0.0163572 1.78669 0)
(-0.0148573 1.78332 1.79047e-20)
(-0.0130326 1.785 -7.77214e-21)
(-0.0133065 1.78444 0)
(0.448464 2.28752 0)
(-0.081379 1.70834 1.27304e-18)
(0.0249642 2.23667 0)
(0.330381 1.15965 -1.57432e-18)
(0.433798 1.06853 0)
(0.340535 1.14224 6.78642e-19)
(1.08704 2.73239 1.67807e-22)
(0.938898 2.4644 2.99864e-20)
(0.801502 2.15789 3.12627e-19)
(0.885141 2.40334 1.23542e-19)
(0.966125 2.59901 0)
(0.99812 2.54543 0)
(0.877016 2.42631 0)
(0.91519 2.37142 -3.81558e-19)
(0.562998 2.68632 7.64379e-20)
(0.898347 2.63105 1.09963e-20)
(0.900515 2.59259 -9.01841e-21)
(0.593401 2.30718 0)
(0.768524 2.38837 0)
(0.7518 2.26391 -2.5458e-19)
(0.767817 2.65756 0)
(0.596211 1.11676 0)
(0.455082 0.904859 -1.48365e-20)
(0.518906 0.942044 -2.17437e-21)
(0.469035 1.07139 0)
(0.473863 1.028 2.28965e-20)
(0.742478 0.859218 1.42696e-20)
(0.784316 0.980433 0)
(0.755853 0.939237 -6.80408e-20)
(0.616961 1.02417 0)
(0.63196 0.923021 0)
(1.13404 2.73599 -1.53448e-21)
(1.09924 2.81723 3.30678e-20)
(0.90232 2.34501 -1.21465e-19)
(0.882834 2.31113 -2.35102e-21)
(1.10624 2.71208 0)
(1.08939 2.67009 1.3807e-21)
(1.05103 2.44591 -1.26651e-19)
(0.936056 2.1507 -3.11888e-20)
(0.741484 1.47071 0)
(0.667086 1.15904 2.92828e-20)
(0.681005 1.18596 0)
(0.840402 0.201903 0)
(0.811673 0.179546 0)
(0.776283 0.186889 0)
(0.841924 0.206309 -3.16731e-19)
(0.79834 0.21291 1.93463e-19)
(0.925288 0.0509153 -1.68103e-19)
(0.932688 0.0962887 0)
(0.907035 0.0985298 8.05844e-20)
(0.884071 0.0654867 3.28997e-19)
(0.886106 0.0586286 -2.02686e-19)
(1.14413 3.38464 -9.73066e-19)
(1.18614 3.30565 0)
(1.15152 3.40927 -1.919e-18)
(0.644687 3.56922 1.64712e-18)
(0.871195 3.13621 4.20537e-19)
(0.493604 0.837709 1.88091e-19)
(0.396299 0.842111 0)
(0.353971 0.56127 -7.92001e-20)
(0.412508 0.674872 3.55944e-19)
(0.509407 0.544032 -1.12524e-19)
(0.495315 0.55974 1.24433e-19)
(0.607469 0.535723 2.66004e-19)
(0.62528 0.551319 0)
(0.587126 0.617176 0)
(0.543467 0.557782 0)
(0.915538 0.576731 -4.55105e-20)
(0.830811 0.516792 -1.90639e-19)
(0.864564 0.558273 9.19935e-20)
(0.892967 0.495045 -1.40038e-19)
(1.00828 0.466386 0)
(1.00499 0.546645 -8.25623e-21)
(0.797254 0.374603 -4.00525e-19)
(0.80737 0.355102 -4.67188e-19)
(0.783695 0.387058 3.13127e-19)
(0.791526 0.346106 -3.56319e-19)
(0.836576 0.290155 -2.497e-19)
(0.81458 0.292091 3.14175e-19)
(1.03563 0.00436452 -1.69904e-19)
(1.03534 0.00555948 3.52093e-19)
(1.02695 0.00941234 2.24446e-19)
(1.02923 0.0127788 -2.66911e-19)
(1.02468 0.0168477 0)
(1.02848 0.0118044 -4.38866e-19)
(-0.0453457 1.81781 2.70488e-20)
(-0.0543702 1.81974 0)
(-0.0613863 1.82555 1.93032e-19)
(-0.0678081 1.85736 -1.71192e-19)
(-0.106475 1.85097 4.95553e-20)
(-0.0865518 1.83851 0)
(-0.0153974 1.79493 0)
(-0.0195094 1.78901 -9.53506e-21)
(-0.0179086 1.78473 8.49242e-21)
(-0.0162053 1.78411 2.27363e-21)
(-0.013825 1.79212 -1.74957e-20)
(-0.0138058 1.79445 1.11216e-20)
(0.815435 1.47226 6.71218e-19)
(0.77826 1.61126 -7.10113e-19)
(0.506624 1.24534 7.84042e-19)
(0.665903 1.60525 -5.43374e-20)
(0.729615 1.15653 0)
(0.584239 1.09056 6.12227e-19)
(0.605015 1.17234 -5.89505e-19)
(0.556183 1.01647 -7.68153e-19)
(0.770209 1.10928 0)
(0.741321 1.18473 0)
(0.438819 2.65003 -1.17563e-19)
(0.558986 2.56024 6.10935e-19)
(0.648954 2.60908 -4.12104e-19)
(0.44466 2.57488 -1.64145e-19)
(0.206172 2.65599 1.44691e-19)
(0.232292 2.53431 -4.54348e-19)
(0.939977 2.33204 -1.79764e-19)
(0.976149 2.33384 0)
(0.843982 2.07418 -3.54978e-19)
(1.07001 2.65939 0)
(1.05509 2.65356 0)
(0.619359 2.32887 2.73077e-19)
(1.01209 3.19127 4.799e-19)
(0.885906 3.06147 -4.6288e-19)
(0.331035 0.971194 0)
(0.353185 0.834859 -1.30595e-19)
(0.473619 0.76357 -5.21967e-20)
(0.410693 2.10341 0)
(0.492306 2.81695 -2.92665e-19)
(0.437124 2.58325 0)
(0.643024 0.664047 -3.03881e-19)
(0.69806 0.680602 3.94341e-19)
(0.735822 0.626436 -3.85868e-19)
(0.604548 0.636527 -4.58025e-20)
(0.657237 0.593841 -1.89269e-19)
(0.963699 2.80173 -3.64556e-19)
(0.998176 2.87347 2.72903e-19)
(0.622958 2.22371 1.23991e-20)
(0.583399 1.78374 -4.73687e-20)
(0.656797 1.99348 9.0255e-20)
(0.954853 2.50158 -7.47579e-20)
(0.961712 2.5197 -1.1778e-19)
(0.661884 1.941 -4.19021e-21)
(0.400845 1.42411 -6.67331e-20)
)
;

boundaryField
{
    wall-4
    {
        type            noSlip;
    }
    velocity-inlet-5
    {
        type            fixedValue;
        value           uniform (1 0 0);
    }
    velocity-inlet-6
    {
        type            fixedValue;
        value           uniform (0 3 0);
    }
    pressure-outlet-7
    {
        type            zeroGradient;
    }
    wall-8
    {
        type            noSlip;
    }
    frontAndBackPlanes
    {
        type            empty;
    }
}


// ************************************************************************* //
