/*--------------------------------*- C++ -*----------------------------------*\
| =========                 |                                                 |
| \\      /  F ield         | OpenFOAM: The Open Source CFD Toolbox           |
|  \\    /   O peration     | Version:  4.0                                   |
|   \\  /    A nd           | Web:      www.OpenFOAM.org                      |
|    \\/     M anipulation  |                                                 |
\*---------------------------------------------------------------------------*/
FoamFile
{
    version     2.0;
    format      ascii;
    class       volScalarField;
    location    "6";
    object      p;
}
// * * * * * * * * * * * * * * * * * * * * * * * * * * * * * * * * * * * * * //

dimensions      [0 2 -2 0 0 0 0];

internalField   nonuniform List<scalar> 
8800
(
0.458449
0.410916
0.372619
0.344133
0.323866
0.309688
0.299729
0.292801
0.288366
0.286423
0.287319
0.290861
0.296722
0.305209
0.317178
0.33417
0.358327
0.391773
0.433886
0.492514
0.288931
0.296824
0.30523
0.309165
0.308387
0.304092
0.298332
0.292859
0.288518
0.285761
0.28528
0.287415
0.291285
0.296463
0.302362
0.30774
0.310509
0.309101
0.302762
0.293411
0.266471
0.273117
0.278279
0.282112
0.284817
0.286041
0.285641
0.284208
0.282659
0.281899
0.282423
0.284033
0.285923
0.287158
0.286916
0.28496
0.28176
0.277266
0.271721
0.267919
0.263449
0.266183
0.270378
0.273965
0.276343
0.277819
0.278575
0.278681
0.278385
0.278202
0.278607
0.279329
0.279766
0.279553
0.278589
0.27683
0.273923
0.26987
0.266237
0.265115
0.264735
0.265476
0.267048
0.268811
0.270635
0.272286
0.273461
0.274134
0.27446
0.274689
0.275013
0.275252
0.275125
0.274455
0.273206
0.271524
0.269833
0.268125
0.266973
0.266696
0.263342
0.263625
0.264341
0.265202
0.266077
0.266949
0.26775
0.268453
0.269001
0.269427
0.269756
0.26987
0.269684
0.269234
0.268625
0.267833
0.267082
0.266295
0.265814
0.265713
0.260855
0.260985
0.261341
0.261877
0.262519
0.263243
0.263983
0.264684
0.265317
0.265879
0.266273
0.266399
0.266267
0.265921
0.26544
0.264915
0.26443
0.264024
0.263809
0.263763
0.257432
0.257497
0.257677
0.257961
0.258329
0.258791
0.259344
0.259966
0.260622
0.261272
0.261781
0.262035
0.262064
0.261946
0.261757
0.261547
0.261347
0.261182
0.261096
0.261072
0.253613
0.253657
0.25378
0.253982
0.254269
0.254653
0.255143
0.25574
0.256435
0.257198
0.257858
0.258271
0.258466
0.258513
0.258476
0.2584
0.258316
0.258243
0.258203
0.258187
0.24948
0.249505
0.249599
0.249754
0.249989
0.250328
0.250796
0.251413
0.252184
0.253094
0.253948
0.254552
0.254921
0.255126
0.255225
0.255263
0.255268
0.255259
0.255251
0.255241
0.24507
0.245095
0.245173
0.245315
0.245541
0.245883
0.246376
0.247056
0.247952
0.249062
0.250161
0.250992
0.251545
0.251901
0.252117
0.252242
0.252309
0.25234
0.252351
0.252344
0.24037
0.24039
0.240474
0.240626
0.240872
0.241251
0.241813
0.24261
0.243689
0.245064
0.246465
0.247557
0.248331
0.248844
0.249174
0.249378
0.249497
0.249561
0.249588
0.249583
0.235363
0.235385
0.235478
0.235652
0.235939
0.236388
0.237061
0.23803
0.239361
0.241084
0.242871
0.244296
0.245306
0.245996
0.246448
0.246734
0.246906
0.247001
0.247041
0.247037
0.229981
0.230005
0.230117
0.230328
0.230679
0.23123
0.232063
0.233268
0.234934
0.237107
0.239379
0.241201
0.242508
0.243406
0.244
0.244377
0.244607
0.244736
0.244792
0.244788
0.224135
0.224165
0.224305
0.224569
0.225008
0.225701
0.226748
0.228267
0.230372
0.233124
0.236007
0.238326
0.239995
0.241145
0.241906
0.242393
0.24269
0.242857
0.24293
0.242926
0.217707
0.217744
0.217923
0.218259
0.218818
0.219699
0.22103
0.222961
0.225634
0.229126
0.232782
0.235721
0.237837
0.239296
0.240263
0.240882
0.24126
0.241473
0.241565
0.24156
0.210531
0.21058
0.21081
0.211242
0.211961
0.213092
0.214797
0.217264
0.220671
0.225108
0.229738
0.233453
0.236125
0.237965
0.239186
0.239967
0.240444
0.240714
0.24083
0.240824
0.202391
0.202455
0.202754
0.203316
0.204248
0.20571
0.207907
0.211075
0.215429
0.221069
0.226926
0.231609
0.23497
0.237284
0.238818
0.2398
0.240399
0.240739
0.240885
0.240876
0.19299
0.193075
0.19347
0.194208
0.195426
0.197332
0.200182
0.204267
0.209845
0.217016
0.22441
0.230297
0.234514
0.237413
0.239336
0.240566
0.241317
0.241742
0.241925
0.241913
0.181926
0.182043
0.182569
0.18355
0.185162
0.18767
0.191395
0.196689
0.20385
0.212961
0.222274
0.229648
0.23492
0.238544
0.240949
0.242488
0.243429
0.243961
0.244188
0.244173
0.168643
0.168808
0.169519
0.170843
0.17301
0.176353
0.181267
0.18817
0.197382
0.208941
0.220623
0.22982
0.236386
0.240905
0.24391
0.245836
0.247015
0.24768
0.247965
0.247946
0.152344
0.152583
0.153566
0.155399
0.158377
0.162913
0.169477
0.178538
0.190404
0.205022
0.219591
0.230991
0.239134
0.244758
0.248515
0.250933
0.252414
0.253248
0.253604
0.253581
0.13182
0.132167
0.13358
0.136229
0.140467
0.146768
0.155671
0.167651
0.182932
0.201314
0.219334
0.233352
0.243392
0.25038
0.255093
0.258154
0.260036
0.26109
0.261536
0.261508
0.105105
0.105627
0.107821
0.111905
0.118206
0.127219
0.139503
0.155433
0.175052
0.19797
0.220012
0.237064
0.24935
0.258016
0.263968
0.267911
0.270374
0.27176
0.272338
0.272298
0.0688185
0.0697449
0.0736388
0.0804964
0.0903334
0.103626
0.120801
0.14198
0.166959
0.195172
0.22175
0.242212
0.257085
0.267788
0.275363
0.280579
0.283992
0.285998
0.286852
0.286784
0.0162899
0.0190201
0.0273842
0.0399549
0.0560442
0.0760221
0.0999954
0.127802
0.159076
0.193185
0.224653
0.248777
0.266505
0.279582
0.289212
0.296232
0.30123
0.304502
0.3061
0.306034
-0.0640732
-0.0507958
-0.0314185
-0.00851142
0.017153
0.0460732
0.078274
0.11362
0.151794
0.192267
0.229029
0.257223
0.278278
0.294297
0.306693
0.316435
0.324169
0.330181
0.334254
0.335264
-0.149323
-0.121159
-0.0900392
-0.0567677
-0.0213866
0.0163567
0.0566546
0.0995125
0.144777
0.19214
0.235057
0.26827
0.293525
0.313272
0.329116
0.342162
0.353101
0.362688
0.37135
0.372821
-0.21098
-0.180641
-0.141727
-0.100304
-0.0567796
-0.0111558
0.0365718
0.0863968
0.138259
0.19198
0.2404
0.277791
0.306213
0.328404
0.346098
0.360456
0.372288
0.382084
0.389492
0.390962
-0.258761
-0.226342
-0.183097
-0.1364
-0.0871134
-0.0354941
0.018254
0.0739856
0.131574
0.190842
0.243976
0.284765
0.315476
0.33912
0.357653
0.372414
0.384366
0.394116
0.401532
0.403106
-0.294981
-0.262211
-0.216121
-0.16584
-0.112547
-0.0565188
0.00191394
0.062478
0.124965
0.189152
0.246507
0.290235
0.322813
0.347577
0.366709
0.38172
0.393676
0.403266
0.410405
0.411992
-0.32401
-0.291137
-0.243351
-0.190514
-0.134173
-0.0747358
-0.0125995
0.0518894
0.118477
0.186934
0.248111
0.294581
0.328925
0.354737
0.374429
0.389676
0.401669
0.411179
0.418136
0.419724
-0.348199
-0.315265
-0.266338
-0.211715
-0.153121
-0.0910407
-0.025988
0.0416562
0.111688
0.183981
0.248856
0.298139
0.334367
0.361339
0.381685
0.397247
0.409342
0.418806
0.425614
0.427209
-0.369296
-0.336152
-0.286286
-0.230292
-0.169983
-0.105904
-0.0385853
0.031573
0.104472
0.180229
0.248803
0.301152
0.339541
0.367911
0.389084
0.405079
0.417359
0.426841
0.433561
0.435164
-0.388055
-0.354636
-0.304053
-0.246936
-0.185267
-0.119641
-0.0506211
0.0214344
0.0966242
0.175499
0.247887
0.303708
0.344704
0.374828
0.397078
0.413677
0.426235
0.435805
0.442442
0.444036
-0.405235
-0.371419
-0.320099
-0.262065
-0.199331
-0.13255
-0.0623104
0.0110725
0.0879778
0.169597
0.245963
0.305809
0.350005
0.382362
0.40603
0.423446
0.436414
0.446141
0.452751
0.45435
-0.42084
-0.386664
-0.334735
-0.275921
-0.212348
-0.144742
-0.0737424
0.000400827
0.0783942
0.162316
0.242807
0.307354
0.355502
0.390714
0.416235
0.434752
0.4483
0.458238
0.464859
0.466547
-0.435294
-0.400711
-0.348129
-0.288654
-0.224441
-0.156291
-0.0849445
-0.0106192
0.0677748
0.153427
0.238146
0.308144
0.361167
0.400016
0.427949
0.447917
0.462259
0.472586
0.479108
0.480951
-0.448599
-0.413773
-0.360456
-0.300377
-0.235667
-0.167216
-0.0958934
-0.0219486
0.0560797
0.142731
0.231645
0.307923
0.366904
0.410336
0.441361
0.46322
0.478592
0.489388
0.496063
0.497853
-0.460867
-0.425499
-0.371807
-0.311165
-0.246042
-0.177493
-0.10653
-0.0335215
0.043317
0.13005
0.222953
0.306363
0.372532
0.421678
0.45662
0.480892
0.49761
0.509032
0.515869
0.517609
-0.472256
-0.436418
-0.382138
-0.321017
-0.255581
-0.187079
-0.116775
-0.0452143
0.029572
0.115257
0.211702
0.303076
0.377814
0.433955
0.473746
0.501052
0.51953
0.531827
0.538909
0.540432
-0.482813
-0.446457
-0.39158
-0.32997
-0.264278
-0.195938
-0.126517
-0.0568938
0.0149669
0.0982932
0.197529
0.297648
0.382473
0.446941
0.492711
0.523795
0.544446
0.55785
0.565245
0.566463
-0.492524
-0.455601
-0.400143
-0.338061
-0.27214
-0.204032
-0.13566
-0.0683722
-0.000331121
0.0791749
0.180082
0.289642
0.386091
0.460393
0.513197
0.548973
0.572265
0.586885
0.594528
0.59537
-0.501416
-0.463945
-0.407894
-0.345332
-0.279187
-0.211337
-0.144119
-0.0794857
-0.0160957
0.057968
0.159084
0.278643
0.388435
0.473769
0.534701
0.576412
0.6032
0.619084
0.626527
0.626653
-0.509719
-0.47155
-0.414888
-0.351829
-0.285445
-0.21785
-0.151816
-0.0900681
-0.0320649
0.0348157
0.13425
0.264196
0.388927
0.486684
0.556796
0.605215
0.636925
0.654501
0.660198
0.658785
-0.517334
-0.478491
-0.421159
-0.357594
-0.290957
-0.223572
-0.158699
-0.0999539
-0.047981
0.00997248
0.105307
0.245904
0.387355
0.498677
0.577868
0.633742
0.672608
0.695019
0.69721
0.690238
-0.524499
-0.484836
-0.426762
-0.362694
-0.2958
-0.228561
-0.164795
-0.109129
-0.0638096
-0.01671
0.0715145
0.222619
0.383669
0.509865
0.596059
0.658153
0.705826
0.741338
0.748756
0.722165
-0.531222
-0.490581
-0.43176
-0.367268
-0.300122
-0.232961
-0.170254
-0.117779
-0.079932
-0.0465256
0.0300095
0.191003
0.376867
0.519835
0.60919
0.672763
0.72316
0.754196
0.753414
0.717701
-0.537363
-0.495616
-0.436027
-0.371291
-0.303832
-0.236649
-0.174978
-0.125601
-0.0957934
-0.0788876
-0.0200631
0.148875
0.366297
0.532232
0.615227
0.664918
0.699281
0.703082
0.632846
0.582197
-0.542186
-0.499563
-0.439179
-0.374275
-0.306514
-0.239374
-0.178826
-0.132369
-0.111
-0.113849
-0.0799503
0.0940744
0.35348
0.54666
0.614208
0.621282
0.633285
0.582084
0.492066
0.432565
-0.601209
-0.49991
-0.442373
-0.377207
-0.309318
-0.242124
-0.181653
-0.13754
-0.124874
-0.151814
-0.153136
0.0192814
0.326603
0.556057
0.602266
0.563735
0.509529
0.42115
0.313507
0.253525
-0.517871
-0.501762
-0.446091
-0.380891
-0.312415
-0.244518
-0.18503
-0.144692
-0.145104
-0.21383
-0.299417
-0.16155
0.243237
0.535809
0.562468
0.362011
0.181816
0.0669904
-0.0402933
0.0164675
-0.544308
-0.508579
-0.450378
-0.384826
-0.315461
-0.246812
-0.186495
-0.147488
-0.155293
-0.251697
-0.422016
-0.371914
0.0964097
0.452037
0.387966
0.125207
-0.10275
-0.252751
-0.399137
-0.288589
-0.55849
-0.517556
-0.456614
-0.389622
-0.318934
-0.249118
-0.187625
-0.149009
-0.162846
-0.291584
-0.585235
-0.69463
-0.138753
0.228975
0.12088
-0.19558
-0.4456
-0.63462
-0.855833
-0.707081
-0.571197
-0.526183
-0.462967
-0.39392
-0.321653
-0.250392
-0.187626
-0.148819
-0.16762
-0.332599
-0.791887
-1.17555
-0.518051
-0.127126
-0.267534
-0.574607
-0.869083
-1.11637
-1.43749
-1.34277
-0.581466
-0.53436
-0.4691
-0.398043
-0.324035
-0.251
-0.186521
-0.146404
-0.168031
-0.362532
-1.00865
-1.78722
-1.05811
-0.571352
-0.696778
-0.953307
-1.29758
-1.64914
-2.07963
-2.40987
-0.590377
-0.542145
-0.4753
-0.402382
-0.326439
-0.251307
-0.18448
-0.141814
-0.163241
-0.377492
-1.18607
-2.3379
-1.58733
-1.03768
-1.07812
-1.26644
-1.58845
-1.96036
-2.14315
-2.53617
-0.599264
-0.550022
-0.481814
-0.407091
-0.329047
-0.251505
-0.181617
-0.135097
-0.152508
-0.377776
-1.32483
-2.66609
-1.96418
-1.43597
-1.40864
-1.51184
-1.65211
-1.89087
-2.03556
-2.07643
-0.608542
-0.558381
-0.488806
-0.412246
-0.331988
-0.251668
-0.178104
-0.126171
-0.135028
-0.355845
-1.33319
-2.69914
-2.0881
-1.6687
-1.66279
-1.75227
-1.64423
-1.6831
-1.82884
-1.8281
-0.618706
-0.567555
-0.496493
-0.418019
-0.33539
-0.251977
-0.17417
-0.115239
-0.110808
-0.29715
-1.17365
-2.35034
-1.89274
-1.71679
-1.85886
-2.10682
-1.82333
-1.51779
-1.72555
-1.85543
-0.630415
-0.577937
-0.505212
-0.424706
-0.339511
-0.25279
-0.170116
-0.103074
-0.081075
-0.21157
-0.859835
-1.66737
-1.43886
-1.54816
-2.04411
-2.83686
-3.1976
-2.95021
-2.68771
-2.6114
-0.64397
-0.58995
-0.515356
-0.432631
-0.344739
-0.254439
-0.166603
-0.090607
-0.048203
-0.110929
-0.478323
-0.893131
-0.872345
-1.18823
-2.02182
-3.50867
-4.71674
-4.45758
-3.82651
-3.50131
-0.659713
-0.603969
-0.527287
-0.442169
-0.3514
-0.257421
-0.164192
-0.0787394
-0.0155566
-0.0113882
-0.131057
-0.232723
-0.311412
-0.654698
-1.43044
-2.58881
-3.45688
-3.35011
-2.89657
-2.65682
-0.677952
-0.620388
-0.54134
-0.453626
-0.359835
-0.26203
-0.163396
-0.0689544
0.0139781
0.0741549
0.112644
0.178337
0.140116
-0.0270405
-0.36327
-0.736356
-1.00372
-1.00334
-0.902531
-0.855714
-0.698968
-0.63942
-0.55771
-0.467162
-0.370219
-0.268665
-0.164781
-0.061489
0.0387139
0.139334
0.257714
0.390239
0.432522
0.412647
0.338037
0.281814
0.289091
0.33079
0.35363
0.359328
-0.722649
-0.661056
-0.57636
-0.482833
-0.382613
-0.277152
-0.168159
-0.0569282
0.0574459
0.185242
0.3391
0.495222
0.593916
0.65721
0.704756
0.756431
0.815063
0.861895
0.883016
0.885497
-0.748062
-0.684538
-0.596891
-0.500136
-0.396549
-0.287333
-0.173541
-0.0551638
0.0703908
0.215639
0.384608
0.548389
0.6744
0.773306
0.856683
0.930844
0.995098
1.04181
1.06589
1.07027
-0.774435
-0.709142
-0.618317
-0.51839
-0.411438
-0.298514
-0.180178
-0.0559003
0.0780608
0.233955
0.408562
0.571959
0.705018
0.812027
0.899841
0.972561
1.03117
1.07453
1.09984
1.10528
-0.799657
-0.732718
-0.639434
-0.536181
-0.425972
-0.309629
-0.187406
-0.0583477
0.0818195
0.243412
0.41844
0.576995
0.707278
0.8117
0.895029
0.961296
1.01392
1.05348
1.07842
1.0841
-0.820303
-0.752953
-0.657608
-0.5516
-0.438551
-0.319334
-0.194067
-0.0614523
0.0826537
0.246669
0.418889
0.570432
0.694005
0.792549
0.870365
0.931666
0.979844
1.01716
1.0398
1.04631
-0.83384
-0.766822
-0.670108
-0.561932
-0.446969
-0.325874
-0.198705
-0.0641604
0.0814125
0.24552
0.412253
0.555766
0.671796
0.764112
0.837093
0.89472
0.940309
0.975894
0.997732
1.00439
-0.835939
-0.769907
-0.673603
-0.564417
-0.448613
-0.327158
-0.199855
-0.0654594
0.0791483
0.239515
0.399222
0.534353
0.642725
0.729166
0.797872
0.85248
0.896009
0.92997
0.951301
0.958172
-0.820101
-0.75721
-0.663086
-0.554947
-0.440778
-0.32124
-0.196126
-0.0645021
0.0761336
0.230078
0.380474
0.506362
0.606866
0.687444
0.752066
0.803875
0.845599
0.878016
0.899144
0.906317
-0.778524
-0.721426
-0.633116
-0.529218
-0.419755
-0.30551
-0.186196
-0.0608253
0.0725844
0.217084
0.355891
0.47126
0.562912
0.637014
0.697093
0.745813
0.785339
0.816526
0.837321
0.844933
-0.707428
-0.659667
-0.57732
-0.482756
-0.382699
-0.278082
-0.168583
-0.0533731
0.069011
0.200678
0.325943
0.428365
0.509583
0.575129
0.628816
0.67302
0.708934
0.737724
0.758726
0.766235
-0.596943
-0.562144
-0.492794
-0.412603
-0.327601
-0.237634
-0.142294
-0.0411427
0.0666523
0.182137
0.290757
0.378021
0.446077
0.499951
0.543282
0.578937
0.608261
0.631057
0.646443
0.651404
-0.431523
-0.4143
-0.37099
-0.315685
-0.253823
-0.184618
-0.108324
-0.0244743
0.0671605
0.166751
0.260621
0.33528
0.392412
0.436548
0.47068
0.496692
0.516569
0.532725
0.544841
0.548145
-0.261999
-0.256708
-0.236837
-0.207863
-0.17043
-0.124179
-0.0686155
-0.00362813
0.0707704
0.154128
0.233761
0.296891
0.344337
0.379563
0.405359
0.424216
0.437791
0.446557
0.451313
0.452373
-0.135105
-0.133312
-0.12608
-0.113054
-0.0933452
-0.065445
-0.0279729
0.01977
0.0778343
0.145489
0.211302
0.263346
0.301758
0.329605
0.349319
0.362487
0.370615
0.375417
0.377864
0.378193
-0.0518004
-0.0523974
-0.0513889
-0.0462147
-0.0355368
-0.0183182
0.00681236
0.0411849
0.0854352
0.139131
0.192547
0.234883
0.265689
0.287249
0.301653
0.310943
0.316652
0.319669
0.320722
0.320764
-0.00283092
-0.00352934
-0.00396856
-0.00210476
0.00367119
0.0147083
0.032291
0.0575233
0.091223
0.133333
0.175897
0.209665
0.234011
0.250919
0.262223
0.269314
0.273314
0.275235
0.27588
0.275907
0.0262934
0.0260048
0.025935
0.0273193
0.0311457
0.0385101
0.0507951
0.069312
0.0949566
0.127836
0.161589
0.188475
0.20779
0.221017
0.229602
0.234866
0.237866
0.239349
0.239881
0.239923
0.0454219
0.0453208
0.0454067
0.0464995
0.0493372
0.0547708
0.0638198
0.0776027
0.0970893
0.122597
0.149117
0.170292
0.185422
0.195715
0.2024
0.206505
0.208822
0.209952
0.210362
0.210396
0.0578252
0.057816
0.0580076
0.0589285
0.0610887
0.0651441
0.0719313
0.0823766
0.0973042
0.11708
0.137839
0.154477
0.166365
0.174438
0.17965
0.182832
0.184629
0.185508
0.185835
0.185862
0.065631
0.065662
0.065896
0.0666856
0.0684005
0.0715275
0.0767001
0.0846648
0.0961316
0.111464
0.127672
0.140696
0.149995
0.156294
0.160356
0.162835
0.164234
0.164922
0.165175
0.165194
0.070101
0.0701409
0.0703636
0.0710154
0.0723691
0.0747946
0.0787794
0.0849061
0.0937501
0.105638
0.118268
0.128442
0.135709
0.140629
0.143798
0.14573
0.146818
0.147352
0.147546
0.147559
0.0720561
0.0720945
0.0722877
0.0728152
0.073883
0.075771
0.0788532
0.0835843
0.0904222
0.0996455
0.109481
0.117416
0.123086
0.126923
0.129392
0.130894
0.131738
0.13215
0.132298
0.132307
0.0720791
0.0721122
0.0722713
0.0726914
0.073529
0.0749995
0.0773904
0.0810534
0.0863505
0.093509
0.10116
0.107343
0.111761
0.114749
0.116671
0.117838
0.118493
0.11881
0.118923
0.118928
0.0706062
0.0706332
0.0707604
0.0710911
0.0717459
0.0728902
0.0747458
0.0775857
0.0816927
0.0872504
0.0932002
0.0980121
0.101451
0.103776
0.10527
0.106175
0.106681
0.106926
0.107011
0.107015
0.0679712
0.067993
0.0680939
0.0683529
0.068863
0.0697525
0.0711931
0.0733962
0.0765818
0.0808956
0.0855183
0.0892593
0.0919337
0.0937412
0.0949017
0.0956043
0.0959953
0.096182
0.0962463
0.0962482
0.0644356
0.0644526
0.0645312
0.0647328
0.0651297
0.0658209
0.0669386
0.0686468
0.0711171
0.0744644
0.0780543
0.0809608
0.0830381
0.0844406
0.0853395
0.0858826
0.0861845
0.0863293
0.0863786
0.0863796
0.0601995
0.0602127
0.0602739
0.0604306
0.0607384
0.061274
0.06214
0.0634639
0.0653788
0.067974
0.070758
0.073012
0.0746225
0.0757095
0.0764054
0.0768255
0.0770587
0.077169
0.0772059
0.0772064
0.0554211
0.0554311
0.0554783
0.0555992
0.055837
0.0562512
0.0569213
0.0579456
0.0594271
0.0614353
0.0635909
0.0653357
0.0665816
0.0674225
0.0679611
0.0682855
0.0684643
0.0685483
0.0685762
0.0685763
0.0502222
0.0502298
0.0502659
0.0503588
0.0505421
0.0508614
0.051378
0.0521681
0.0533113
0.0548617
0.0565262
0.0578739
0.0588365
0.0594851
0.0598988
0.060147
0.0602837
0.0603471
0.0603678
0.0603677
0.0446997
0.0447054
0.0447324
0.0448029
0.0449425
0.0451869
0.0455834
0.0461899
0.047068
0.0482596
0.0495384
0.0505737
0.0513129
0.0518104
0.0521277
0.0523183
0.0524224
0.0524705
0.0524849
0.0524847
0.0389264
0.0389304
0.03895
0.0390028
0.0391086
0.0392947
0.039597
0.0400599
0.0407298
0.0416389
0.0426147
0.0434037
0.0439651
0.0443426
0.0445835
0.044728
0.0448071
0.0448435
0.0448547
0.0448543
0.0329605
0.0329633
0.0329777
0.0330171
0.0330966
0.033236
0.0334626
0.0338101
0.034314
0.0349981
0.0357323
0.0363263
0.0367498
0.0370345
0.0372155
0.0373228
0.0373804
0.0374064
0.0374134
0.0374131
0.0268512
0.0268529
0.0268626
0.0268904
0.026948
0.0270499
0.0272159
0.0274711
0.0278416
0.0283453
0.0288867
0.0293251
0.0296373
0.029846
0.0299772
0.0300549
0.0300965
0.0301144
0.0301188
0.0301186
0.0206331
0.0206337
0.0206399
0.020659
0.0206987
0.0207696
0.0208865
0.021067
0.0213293
0.0216855
0.0220674
0.0223752
0.0225938
0.0227405
0.0228337
0.0228885
0.0229174
0.0229297
0.0229325
0.0229321
0.0143385
0.0143385
0.0143418
0.0143535
0.0143786
0.0144244
0.0145001
0.0146173
0.0147876
0.0150195
0.0152685
0.0154694
0.0156119
0.0157071
0.0157661
0.0157996
0.0158162
0.0158222
0.0158225
0.0158221
0.00798795
0.00798786
0.00798901
0.00799448
0.00800745
0.00803174
0.00807206
0.0081341
0.00822458
0.00834769
0.00848147
0.0085873
0.00866196
0.00871056
0.00874092
0.00875851
0.00876661
0.00876872
0.00876825
0.00876829
0.00160042
0.00159893
0.00159645
0.00159569
0.0015971
0.00160068
0.00160717
0.00161782
0.00163359
0.00165552
0.0016836
0.00170952
0.00172753
0.00173971
0.00174784
0.00175262
0.00175514
0.00175581
0.0017544
0.00175187
-0.938258
-0.621679
-0.287168
-0.0221346
0.18926
0.359066
0.503958
0.629557
0.6925
0.662213
-0.378495
-0.17975
0.0193631
0.18882
0.331813
0.451385
0.549425
0.620605
0.65497
0.656731
-0.0249354
0.0998136
0.226617
0.338321
0.43436
0.51475
0.578649
0.623139
0.650166
0.659732
0.202954
0.283886
0.3678
0.443989
0.510919
0.567249
0.611814
0.64366
0.66541
0.676954
0.361609
0.415816
0.476161
0.531871
0.580344
0.620908
0.653196
0.677659
0.696293
0.709359
0.479698
0.520664
0.565494
0.607755
0.644908
0.677135
0.704472
0.726081
0.742707
0.756899
0.575913
0.608588
0.647354
0.683276
0.716593
0.746097
0.770772
0.790296
0.804727
0.819998
0.665526
0.698122
0.735112
0.769977
0.801641
0.829352
0.852676
0.871229
0.883931
0.899964
0.761767
0.797467
0.837009
0.872164
0.903559
0.930645
0.952976
0.969971
0.981281
0.998179
0.878684
0.917942
0.958224
0.993743
1.02375
1.04894
1.06941
1.08529
1.09656
1.11443
1.0251
1.06451
1.10137
1.13269
1.15884
1.18122
1.2005
1.216
1.22834
1.2463
1.20093
1.23317
1.25965
1.28239
1.3026
1.32142
1.33926
1.35596
1.37146
1.3895
1.39006
1.40766
1.42294
1.43916
1.45514
1.46983
1.48316
1.49713
1.51484
1.53497
1.57245
1.58184
1.59351
1.60451
1.61394
1.62357
1.6343
1.6457
1.65714
1.67253
1.77934
1.78303
1.76819
1.75367
1.7476
1.75325
1.7718
1.80211
1.83424
1.86085
2.08631
1.95157
1.87483
1.83201
1.81437
1.8186
1.84588
1.90236
2.00522
2.22968
0.348778
0.346852
0.342674
0.33463
0.323021
0.311574
0.302033
0.29476
0.289627
0.286601
0.28609
0.288319
0.292682
0.299071
0.307611
0.318317
0.330213
0.34058
0.346209
0.348968
0.272398
0.278439
0.285457
0.290839
0.294131
0.29468
0.292798
0.289661
0.286553
0.284374
0.284024
0.285802
0.288828
0.292282
0.295102
0.295943
0.294063
0.289639
0.283584
0.276435
0.263892
0.266011
0.270727
0.275093
0.278018
0.27987
0.280851
0.280932
0.280355
0.279761
0.279782
0.280532
0.281546
0.282102
0.281746
0.280448
0.278177
0.2746
0.2698
0.266163
0.264276
0.264832
0.267142
0.270179
0.272857
0.274881
0.276186
0.276835
0.276981
0.276916
0.277083
0.277598
0.277962
0.277838
0.277038
0.275536
0.273237
0.270425
0.267572
0.266161
0.264261
0.264412
0.265059
0.266116
0.267201
0.268342
0.269527
0.270462
0.271106
0.271532
0.271873
0.272104
0.272049
0.271598
0.270751
0.269721
0.268698
0.267693
0.266812
0.266461
0.262235
0.262302
0.262682
0.263361
0.264136
0.264959
0.265734
0.266449
0.267071
0.267599
0.268031
0.268284
0.268272
0.26801
0.26755
0.266933
0.266248
0.265573
0.265053
0.264868
0.259215
0.259246
0.259395
0.259699
0.260111
0.260632
0.261246
0.261913
0.262584
0.263222
0.263767
0.264086
0.264131
0.263963
0.263667
0.263329
0.26301
0.26273
0.262541
0.262478
0.255563
0.255582
0.255681
0.255878
0.25616
0.256529
0.256991
0.257546
0.258183
0.258874
0.259537
0.260001
0.260216
0.260252
0.260179
0.260053
0.259911
0.259779
0.259686
0.25965
0.251582
0.251592
0.25166
0.251797
0.252009
0.252311
0.252725
0.253263
0.253932
0.254718
0.255536
0.256177
0.25656
0.256753
0.256825
0.25683
0.256803
0.256766
0.256735
0.256721
0.247312
0.24732
0.247368
0.247481
0.247665
0.247942
0.248343
0.248898
0.249632
0.250551
0.251571
0.25243
0.253012
0.253373
0.253586
0.253702
0.253759
0.253782
0.253788
0.253786
0.242756
0.242758
0.242812
0.242922
0.243107
0.243397
0.24383
0.244452
0.245305
0.246415
0.247694
0.248823
0.249613
0.250156
0.250501
0.250715
0.25084
0.250908
0.250941
0.250947
0.237909
0.237909
0.237964
0.238086
0.238294
0.238625
0.239129
0.239865
0.240895
0.242263
0.243876
0.24533
0.246395
0.247123
0.247607
0.247917
0.248107
0.248216
0.248271
0.248285
0.232724
0.232723
0.232787
0.23293
0.233177
0.233575
0.234187
0.235089
0.236364
0.238075
0.240116
0.241979
0.243351
0.244309
0.244953
0.245369
0.245628
0.245779
0.245857
0.245878
0.227123
0.227121
0.2272
0.227376
0.227682
0.228176
0.228938
0.230067
0.231667
0.233825
0.236411
0.238783
0.240539
0.241771
0.242602
0.243143
0.243481
0.24368
0.243783
0.243811
0.221003
0.221001
0.2211
0.221322
0.221709
0.222334
0.223298
0.224727
0.226754
0.22949
0.232768
0.23578
0.23801
0.239578
0.240638
0.241328
0.24176
0.242016
0.242148
0.242185
0.214225
0.214221
0.214349
0.214634
0.215129
0.215928
0.21716
0.218982
0.221564
0.225041
0.2292
0.233014
0.235835
0.237819
0.23916
0.240034
0.240581
0.240905
0.241073
0.241118
0.206599
0.206594
0.20676
0.207129
0.207769
0.208799
0.210384
0.212722
0.216024
0.220453
0.225727
0.230547
0.234104
0.236603
0.238291
0.239392
0.240081
0.240489
0.240701
0.240758
0.197872
0.197867
0.198086
0.198568
0.199403
0.200742
0.202794
0.20581
0.210047
0.215696
0.22238
0.228458
0.23293
0.236068
0.238186
0.239567
0.240432
0.240944
0.24121
0.241281
0.187702
0.187697
0.187988
0.188628
0.189728
0.191486
0.194164
0.198076
0.203532
0.210744
0.219204
0.226846
0.232452
0.236379
0.239031
0.240759
0.241841
0.242483
0.242815
0.242903
0.175609
0.175605
0.176004
0.176868
0.178339
0.180671
0.184201
0.189311
0.196364
0.205577
0.216261
0.225835
0.232832
0.237733
0.241043
0.243203
0.244558
0.245363
0.24578
0.245891
0.16091
0.16091
0.161474
0.162671
0.164677
0.167821
0.172532
0.179268
0.188425
0.200191
0.213632
0.225565
0.234261
0.240356
0.244484
0.247187
0.248888
0.249904
0.250433
0.250571
0.142599
0.142615
0.143453
0.145168
0.147965
0.152294
0.158695
0.167673
0.179611
0.194612
0.211427
0.226195
0.236937
0.244494
0.249644
0.253037
0.25519
0.256492
0.257178
0.257357
0.119152
0.119224
0.120549
0.123102
0.127135
0.133292
0.142188
0.154296
0.169896
0.188932
0.209787
0.227889
0.241053
0.250385
0.25682
0.261117
0.263885
0.265591
0.266517
0.266764
0.0880314
0.0882696
0.0905388
0.0945826
0.100783
0.109962
0.122639
0.139101
0.159429
0.183367
0.208912
0.230811
0.246762
0.258211
0.266269
0.271786
0.275434
0.277746
0.279047
0.279412
0.0444511
0.0451444
0.0496518
0.0568886
0.0673163
0.0816458
0.0999818
0.12234
0.148573
0.17824
0.209018
0.235074
0.254112
0.268006
0.278073
0.28525
0.290239
0.293581
0.295575
0.296113
-0.0200082
-0.0175291
-0.007033
0.00741121
0.0259573
0.0484786
0.0747346
0.104601
0.137799
0.173839
0.210193
0.240589
0.262885
0.279455
0.291867
0.301187
0.308151
0.313323
0.316766
0.317358
-0.0982603
-0.0929704
-0.0734021
-0.0470997
-0.018034
0.0138747
0.0487045
0.0864564
0.126972
0.169931
0.212703
0.248497
0.275166
0.29556
0.311484
0.324134
0.334359
0.342713
0.347664
0.349633
-0.177204
-0.164239
-0.134633
-0.0984101
-0.0597711
-0.0189303
0.0241052
0.0694068
0.116978
0.166666
0.215779
0.256894
0.287699
0.311503
0.330375
0.345616
0.358045
0.368263
0.375454
0.379193
-0.232568
-0.218635
-0.184273
-0.141731
-0.0962365
-0.0484491
0.00147583
0.0534409
0.107366
0.163121
0.217815
0.263354
0.29731
0.323345
0.343715
0.359867
0.372768
0.383124
0.390399
0.393937
-0.274998
-0.260885
-0.223068
-0.176451
-0.126404
-0.073622
-0.0184758
0.0387971
0.0980222
0.159037
0.218669
0.268068
0.304572
0.33221
0.353528
0.370198
0.383333
0.393712
0.401071
0.404623
-0.307692
-0.293807
-0.254328
-0.204904
-0.15156
-0.0951223
-0.0359455
0.0256244
0.0892941
0.154856
0.21886
0.271694
0.310447
0.33947
0.361574
0.378631
0.391914
0.40229
0.409706
0.413268
-0.334497
-0.320773
-0.280132
-0.228849
-0.1731
-0.113812
-0.0514727
0.0134906
0.0807872
0.150231
0.218213
0.274364
0.315362
0.3458
0.368725
0.386214
0.399685
0.410104
0.417611
0.421175
-0.357319
-0.343643
-0.302125
-0.249463
-0.191956
-0.13055
-0.0657664
0.00191113
0.0721893
0.14501
0.216748
0.276294
0.319734
0.351782
0.375679
0.393705
0.407447
0.417962
0.425565
0.429126
-0.377399
-0.363762
-0.321395
-0.267641
-0.208748
-0.145697
-0.0790493
-0.00930061
0.0633341
0.139037
0.214382
0.277556
0.323808
0.357796
0.38292
0.401661
0.415778
0.426467
0.434165
0.437768
-0.395447
-0.381741
-0.338798
-0.284027
-0.224011
-0.159672
-0.0916287
-0.0203648
0.0540307
0.132126
0.210951
0.278117
0.327706
0.36411
0.390815
0.410505
0.425141
0.436082
0.443882
0.447511
-0.411967
-0.398091
-0.354575
-0.298935
-0.238007
-0.172702
-0.103665
-0.0314074
0.0441425
0.12408
0.20625
0.277852
0.33145
0.370898
0.399648
0.420598
0.435944
0.447238
0.455223
0.458886
-0.427136
-0.413103
-0.368889
-0.312606
-0.250918
-0.184893
-0.115233
-0.0424799
0.033599
0.114742
0.200014
0.276548
0.334985
0.378251
0.409649
0.432253
0.448557
0.460341
0.468519
0.472214
-0.441163
-0.426937
-0.38201
-0.325117
-0.26284
-0.196314
-0.12636
-0.0535887
0.0223695
0.103978
0.191973
0.273917
0.338151
0.386195
0.420974
0.445734
0.463291
0.475742
0.484187
0.48791
-0.454066
-0.439607
-0.394185
-0.336629
-0.273837
-0.206965
-0.137005
-0.0646736
0.0104763
0.0916994
0.181839
0.269621
0.340718
0.394676
0.433737
0.46125
0.480426
0.493746
0.502558
0.506366
-0.466065
-0.45126
-0.405328
-0.347185
-0.283939
-0.216856
-0.147112
-0.0756418
-0.00198581
0.0778687
0.169349
0.263275
0.342399
0.403567
0.447973
0.478989
0.500224
0.514645
0.523923
0.527873
-0.477098
-0.462115
-0.415471
-0.356808
-0.293153
-0.225963
-0.156621
-0.086366
-0.0148995
0.0625098
0.15426
0.254466
0.342853
0.412678
0.463627
0.499004
0.522837
0.538615
0.548492
0.552501
-0.487322
-0.472056
-0.424748
-0.365545
-0.30151
-0.234265
-0.165465
-0.0967195
-0.0280652
0.0457067
0.136369
0.242779
0.341673
0.42176
0.480478
0.521117
0.548251
0.565785
0.57642
0.580429
-0.49665
-0.481127
-0.433171
-0.373427
-0.309027
-0.241752
-0.17358
-0.106572
-0.0413001
0.0276448
0.115525
0.227789
0.338542
0.430357
0.498082
0.545104
0.576277
0.595969
0.607324
0.61119
-0.505296
-0.489467
-0.440825
-0.380523
-0.315749
-0.248448
-0.180923
-0.115796
-0.0543868
0.00853746
0.0916591
0.209021
0.333033
0.438072
0.51595
0.570455
0.606794
0.629245
0.640666
0.643573
-0.513271
-0.497078
-0.447766
-0.386869
-0.321705
-0.254362
-0.187462
-0.124278
-0.0670994
-0.0113724
0.0647566
0.186138
0.324777
0.444661
0.533119
0.595794
0.639052
0.666213
0.677405
0.676213
-0.520704
-0.504158
-0.454021
-0.39251
-0.326954
-0.259532
-0.193193
-0.131942
-0.0792342
-0.0317779
0.0348912
0.158574
0.31331
0.449854
0.549146
0.618991
0.669918
0.705797
0.722004
0.710608
-0.527644
-0.510704
-0.459649
-0.39753
-0.331621
-0.264085
-0.198251
-0.13895
-0.0910646
-0.0534157
6.00251e-05
0.123543
0.297027
0.454124
0.563354
0.637413
0.69388
0.740288
0.764578
0.764444
-0.534123
-0.516686
-0.464619