/*--------------------------------*- C++ -*----------------------------------*\
| =========                 |                                                 |
| \\      /  F ield         | OpenFOAM: The Open Source CFD Toolbox           |
|  \\    /   O peration     | Version:  4.0                                   |
|   \\  /    A nd           | Web:      www.OpenFOAM.org                      |
|    \\/     M anipulation  |                                                 |
\*---------------------------------------------------------------------------*/
FoamFile
{
    version     2.0;
    format      ascii;
    class       volVectorField;
    location    "6";
    object      U;
}
// * * * * * * * * * * * * * * * * * * * * * * * * * * * * * * * * * * * * * //

dimensions      [0 1 -1 0 0 0 0];

internalField   nonuniform List<vector> 
8800
(
(0.979563 -0.091406 0)
(1.0022 -0.0588359 0)
(0.999983 -0.0323415 0)
(0.999906 -0.0164901 0)
(0.999381 -0.00862431 0)
(0.999465 -0.00499815 0)
(0.999743 -0.00309852 0)
(0.999904 -0.00189429 0)
(1.00001 -0.00092346 0)
(1.00005 -0.000126346 0)
(1.00004 0.000588496 0)
(0.999965 0.00147594 0)
(0.999827 0.0025124 0)
(0.999623 0.00397307 0)
(0.999277 0.00649809 0)
(0.999571 0.0118601 0)
(1.00015 0.023217 0)
(0.99929 0.0432785 0)
(1.00665 0.0791768 0)
(0.774986 0.0478644 0)
(0.360999 -0.0143936 0)
(1.04794 -0.0708143 0)
(1.08803 -0.0634459 0)
(1.04832 -0.0474265 0)
(1.02507 -0.0344519 0)
(1.01288 -0.0232609 0)
(1.00646 -0.0146044 0)
(1.00324 -0.00863658 0)
(1.00177 -0.0046757 0)
(1.00122 -0.00183669 0)
(1.00118 0.000842499 0)
(1.00138 0.00348633 0)
(1.00232 0.00675346 0)
(1.00452 0.011574 0)
(1.00917 0.0188514 0)
(1.01796 0.0287443 0)
(1.03507 0.0410373 0)
(1.06617 0.0546175 0)
(1.09521 0.0690454 0)
(0.847813 0.0547763 0)
(0.225537 -0.00109557 0)
(1.08041 -0.0451192 0)
(1.10168 -0.0433983 0)
(1.06515 -0.0348571 0)
(1.0401 -0.0276718 0)
(1.02374 -0.021279 0)
(1.01395 -0.0155626 0)
(1.00843 -0.0102137 0)
(1.00555 -0.00537822 0)
(1.00458 -0.000796128 0)
(1.00484 0.0037417 0)
(1.0067 0.00826202 0)
(1.01067 0.0132767 0)
(1.01798 0.0187241 0)
(1.0307 0.0245461 0)
(1.05117 0.0314384 0)
(1.08179 0.0390497 0)
(1.10943 0.0461071 0)
(0.951788 0.0367173 0)
(0.225321 0.00110238 0)
(0.196538 -7.5666e-06 0)
(1.03186 -0.0204466 0)
(1.10155 -0.0280706 0)
(1.07226 -0.0285331 0)
(1.04709 -0.0263942 0)
(1.03117 -0.0226761 0)
(1.02072 -0.0178521 0)
(1.0141 -0.0125435 0)
(1.01023 -0.0069084 0)
(1.00858 -0.000998813 0)
(1.00906 0.00482179 0)
(1.01168 0.0105569 0)
(1.01679 0.0159096 0)
(1.02513 0.0209279 0)
(1.038 0.0251778 0)
(1.05781 0.0280514 0)
(1.08862 0.0289275 0)
(1.09513 0.0260372 0)
(0.864046 0.0119405 0)
(0.196195 1.41384e-05 0)
(0.193372 7.09778e-05 0)
(0.993404 -0.00708219 0)
(1.08391 -0.0165773 0)
(1.06843 -0.0222094 0)
(1.04924 -0.0237184 0)
(1.03536 -0.0222517 0)
(1.02558 -0.0187673 0)
(1.01884 -0.0137972 0)
(1.01458 -0.00779397 0)
(1.01249 -0.00093696 0)
(1.01309 0.00602359 0)
(1.0161 0.0122712 0)
(1.02145 0.0175965 0)
(1.02953 0.021659 0)
(1.04108 0.0240244 0)
(1.05757 0.0239235 0)
(1.07879 0.0202743 0)
(1.06703 0.0124578 0)
(0.825353 0.00259045 0)
(0.192836 -6.55698e-05 0)
(0.192763 1.66478e-05 0)
(0.969885 -0.00332812 0)
(1.06293 -0.0104207 0)
(1.05921 -0.0163511 0)
(1.04853 -0.0190453 0)
(1.03925 -0.0188668 0)
(1.03176 -0.0165591 0)
(1.02588 -0.0125605 0)
(1.02172 -0.00724388 0)
(1.0196 -0.000622149 0)
(1.02012 0.00623944 0)
(1.02303 0.0120479 0)
(1.02789 0.0164541 0)
(1.03443 0.0193734 0)
(1.0427 0.0204513 0)
(1.05271 0.0189554 0)
(1.06288 0.0143682 0)
(1.04155 0.00709882 0)
(0.808942 0.00117717 0)
(0.191988 -6.8653e-06 0)
(0.192733 2.32578e-05 0)
(0.957578 -0.00128563 0)
(1.04772 -0.00505658 0)
(1.05 -0.00905526 0)
(1.04486 -0.0117305 0)
(1.03924 -0.0127119 0)
(1.03387 -0.011911 0)
(1.0291 -0.00942123 0)
(1.02539 -0.00540671 0)
(1.02348 -1.05599e-05 0)
(1.02381 0.00561727 0)
(1.02636 0.0101167 0)
(1.03023 0.013052 0)
(1.03517 0.0143121 0)
(1.04059 0.0138433 0)
(1.04594 0.0116381 0)
(1.04959 0.007904 0)
(1.02524 0.00338754 0)
(0.80137 0.00047569 0)
(0.191671 -1.02278e-05 0)
(0.192733 8.93479e-06 0)
(0.952136 -0.000606058 0)
(1.03986 -0.002367 0)
(1.04417 -0.00450428 0)
(1.04195 -0.00625694 0)
(1.03898 -0.00719872 0)
(1.03566 -0.00707422 0)
(1.03229 -0.00570643 0)
(1.0294 -0.00303091 0)
(1.02776 0.00076321 0)
(1.02785 0.00470063 0)
(1.02969 0.0075963 0)
(1.03228 0.00915995 0)
(1.03538 0.00938578 0)
(1.03835 0.00845604 0)
(1.04084 0.00662623 0)
(1.04168 0.00424255 0)
(1.01699 0.00183323 0)
(0.797705 0.000352534 0)
(0.191363 6.59477e-06 0)
(0.192803 1.10847e-05 0)
(0.949676 -0.000193634 0)
(1.03606 -0.000974571 0)
(1.04091 -0.0020038 0)
(1.03987 -0.00294785 0)
(1.03822 -0.00354263 0)
(1.03615 -0.00355667 0)
(1.03382 -0.00276577 0)
(1.03163 -0.00103642 0)
(1.03016 0.00149113 0)
(1.02999 0.00407064 0)
(1.0311 0.00576219 0)
(1.03269 0.00641714 0)
(1.03448 0.00617036 0)
(1.03606 0.00524682 0)
(1.03723 0.00391867 0)
(1.0371 0.00245042 0)
(1.01261 0.00110493 0)
(0.795499 0.00025569 0)
(0.191045 7.63131e-06 0)
(0.192999 1.5539e-05 0)
(0.948733 4.77319e-05 0)
(1.03442 -0.00024352 0)
(1.03941 -0.000665048 0)
(1.03889 -0.00105853 0)
(1.03791 -0.00128867 0)
(1.03656 -0.00120412 0)
(1.03492 -0.000633562 0)
(1.03323 0.000532804 0)
(1.03188 0.00221532 0)
(1.03142 0.0038344 0)
(1.03187 0.00471576 0)
(1.03268 0.00485994 0)
(1.03358 0.00442413 0)
(1.03435 0.00361679 0)
(1.03488 0.00264753 0)
(1.03434 0.00167251 0)
(1.01001 0.000813938 0)
(0.793971 0.000231302 0)
(0.190736 1.14707e-05 0)
(0.193302 1.70657e-05 0)
(0.948676 0.000206081 0)
(1.03389 0.000201823 0)
(1.03892 0.000142031 0)
(1.03861 0.000111385 0)
(1.03795 0.000179156 0)
(1.03698 0.000432124 0)
(1.03573 0.000969594 0)
(1.03431 0.00185484 0)
(1.03297 0.003011 0)
(1.0322 0.00399088 0)
(1.03207 0.00440501 0)
(1.03233 0.00418164 0)
(1.03266 0.00363407 0)
(1.03295 0.00289862 0)
(1.03314 0.00211232 0)
(1.03243 0.00136656 0)
(1.00817 0.000718468 0)
(0.792683 0.000239274 0)
(0.190384 1.51286e-05 0)
(0.193698 2.13884e-05 0)
(0.949141 0.000353078 0)
(1.03409 0.000544117 0)
(1.03912 0.000728108 0)
(1.03888 0.000960858 0)
(1.03835 0.00127515 0)
(1.03755 0.00171392 0)
(1.03646 0.00231912 0)
(1.03513 0.00309732 0)
(1.03369 0.00394411 0)
(1.03258 0.00449166 0)
(1.032 0.00450888 0)
(1.03176 0.00410187 0)
(1.0317 0.00344862 0)
(1.03169 0.00271028 0)
(1.03168 0.00198066 0)
(1.03085 0.00131309 0)
(1.00662 0.000733884 0)
(0.791417 0.000271859 0)
(0.189964 1.95576e-05 0)
(0.194221 2.75946e-05 0)
(0.950098 0.000503904 0)
(1.03481 0.000862805 0)
(1.03981 0.00124668 0)
(1.03959 0.00169969 0)
(1.03909 0.00223939 0)
(1.03832 0.00287729 0)
(1.03724 0.00361227 0)
(1.03583 0.00439783 0)
(1.03416 0.00508489 0)
(1.03266 0.00533916 0)
(1.03165 0.00504886 0)
(1.03102 0.00444875 0)
(1.03064 0.00367673 0)
(1.03041 0.0028689 0)
(1.03026 0.00210506 0)
(1.02935 0.00142182 0)
(1.00509 0.000827921 0)
(0.790024 0.000326277 0)
(0.189448 2.49842e-05 0)
(0.1949 3.4987e-05 0)
(0.951517 0.000671339 0)
(1.036 0.00119702 0)
(1.04096 0.00177555 0)
(1.04071 0.00244804 0)
(1.04017 0.00322038 0)
(1.03934 0.00408467 0)
(1.03814 0.00500316 0)
(1.03652 0.00588071 0)
(1.0345 0.00651098 0)
(1.03253 0.00656186 0)
(1.03106 0.00603844 0)
(1.03006 0.00520163 0)
(1.02941 0.00424841 0)
(1.02899 0.00330162 0)
(1.02871 0.00242881 0)
(1.02773 0.00165863 0)
(1.0034 0.000987934 0)
(0.788385 0.000401872 0)
(0.188804 3.16959e-05 0)
(0.195773 4.48389e-05 0)
(0.953441 0.000876977 0)
(1.03769 0.00158909 0)
(1.04258 0.00238121 0)
(1.04227 0.00329529 0)
(1.04164 0.00433214 0)
(1.04066 0.00546494 0)
(1.03923 0.00662495 0)
(1.03727 0.00766491 0)
(1.03476 0.00831134 0)
(1.03221 0.00820166 0)
(1.03023 0.00743047 0)
(1.02884 0.00633052 0)
(1.02791 0.00513788 0)
(1.0273 0.00398479 0)
(1.02691 0.00293643 0)
(1.02585 0.0020172 0)
(1.00142 0.00121559 0)
(0.786381 0.000502256 0)
(0.187995 4.00973e-05 0)
(0.196898 5.77939e-05 0)
(0.955974 0.00113738 0)
(1.03995 0.00207335 0)
(1.04475 0.00311827 0)
(1.04435 0.00432055 0)
(1.04356 0.00567522 0)
(1.04235 0.00713914 0)
(1.04058 0.00860838 0)
(1.03814 0.00987939 0)
(1.03497 0.0105964 0)
(1.0317 0.0103385 0)
(1.02912 0.00928428 0)
(1.02729 0.00786554 0)
(1.02604 0.00636267 0)
(1.02523 0.00492775 0)
(1.02471 0.00363334 0)
(1.02356 0.00250267 0)
(0.998997 0.0015164 0)
(0.78389 0.0006306 0)
(0.186977 5.0474e-05 0)
(0.198352 7.48961e-05 0)
(0.959267 0.00147272 0)
(1.0429 0.00268918 0)
(1.04758 0.00404825 0)
(1.04704 0.00560773 0)
(1.04604 0.00735833 0)
(1.04451 0.009236 0)
(1.04228 0.0110982 0)
(1.03919 0.0126733 0)
(1.03516 0.0135033 0)
(1.03099 0.0130854 0)
(1.02767 0.0116902 0)
(1.02531 0.009871 0)
(1.0237 0.00796933 0)
(1.02264 0.00616707 0)
(1.02197 0.00454717 0)
(1.02073 0.0031348 0)
(0.995984 0.00190363 0)
(0.780765 0.000793598 0)
(0.185696 6.34473e-05 0)
(0.20024 9.76318e-05 0)
(0.963529 0.00191005 0)
(1.04672 0.00348586 0)
(1.05124 0.00524523 0)
(1.05052 0.00725827 0)
(1.04923 0.0095093 0)
(1.04727 0.0119101 0)
(1.04441 0.0142682 0)
(1.04046 0.0162274 0)
(1.03533 0.0172036 0)
(1.03003 0.0165901 0)
(1.0258 0.0147683 0)
(1.0228 0.0124418 0)
(1.02074 0.0100309 0)
(1.0194 0.00775734 0)
(1.01854 0.0057191 0)
(1.01718 0.00394465 0)
(0.992205 0.00239663 0)
(0.776832 0.000998822 0)
(0.184085 7.95647e-05 0)
(0.202705 0.000128251 0)
(0.969039 0.00248839 0)
(1.05165 0.00453289 0)
(1.05596 0.00681031 0)
(1.05499 0.00940496 0)
(1.05331 0.0122947 0)
(1.05076 0.0153579 0)
(1.04707 0.0183369 0)
(1.04201 0.0207681 0)
(1.03547 0.0219117 0)
(1.02874 0.0210389 0)
(1.0234 0.0186731 0)
(1.0196 0.0157031 0)
(1.017 0.0126479 0)
(1.0153 0.00977634 0)
(1.01422 0.00720613 0)
(1.01271 0.0049699 0)
(0.987445 0.00301886 0)
(0.771877 0.0012565 0)
(0.182062 9.95252e-05 0)
(0.20595 0.000170506 0)
(0.976171 0.0032663 0)
(1.05799 0.00593491 0)
(1.06203 0.00889047 0)
(1.06072 0.0122337 0)
(1.05851 0.0159383 0)
(1.05516 0.0198391 0)
(1.05037 0.0235885 0)
(1.04385 0.0265833 0)
(1.03553 0.0278949 0)
(1.02703 0.0266631 0)
(1.02031 0.0236003 0)
(1.01553 0.0198174 0)
(1.01227 0.0159503 0)
(1.01013 0.012326 0)
(1.00878 0.00908605 0)
(1.00707 0.00626534 0)
(0.981446 0.00380162 0)
(0.765636 0.00157811 0)
(0.179528 0.000124202 0)
(0.210284 0.000232568 0)
(0.985433 0.00434862 0)
(1.06615 0.00786585 0)
(1.06982 0.0117032 0)
(1.06804 0.0159976 0)
(1.06508 0.0207417 0)
(1.06065 0.0257006 0)
(1.05439 0.0303928 0)
(1.04599 0.0340341 0)
(1.03542 0.0354785 0)
(1.02473 0.033742 0)
(1.01632 0.029786 0)
(1.01035 0.0249852 0)
(1.00628 0.0201069 0)
(1.00361 0.0155466 0)
(1.00192 0.0114716 0)
(0.999988 0.00791621 0)
(0.973892 0.00479878 0)
(0.757772 0.00198657 0)
(0.176352 0.000155863 0)
(0.216198 0.000332168 0)
(0.997579 0.00593416 0)
(1.07676 0.0106004 0)
(1.07996 0.0155372 0)
(1.07745 0.0210236 0)
(1.07339 0.0271037 0)
(1.06743 0.0334025 0)
(1.05918 0.0392262 0)
(1.04835 0.0435666 0)
(1.03498 0.0450479 0)
(1.02163 0.0426008 0)
(1.01121 0.0375137 0)
(1.00379 0.0314565 0)
(0.99871 0.025338 0)
(0.995376 0.0196324 0)
(0.993284 0.014534 0)
(0.991077 0.0100656 0)
(0.964376 0.00610627 0)
(0.747825 0.00252105 0)
(0.172357 0.000199203 0)
(0.224514 0.000499569 0)
(1.01383 0.00836597 0)
(1.09097 0.0145023 0)
(1.09346 0.0207428 0)
(1.08976 0.0277675 0)
(1.08398 0.0356234 0)
(1.07582 0.0436076 0)
(1.06485 0.0507249 0)
(1.05087 0.0557293 0)
(1.03404 0.0570481 0)
(1.01753 0.0536102 0)
(1.0047 0.0471177 0)
(0.995548 0.0395481 0)
(0.989228 0.0319427 0)
(0.985043 0.0248647 0)
(0.982412 0.0185438 0)
(0.979851 0.0129729 0)
(0.952363 0.00793244 0)
(0.735158 0.0032753 0)
(0.167288 0.000265143 0)
(0.236635 0.000780963 0)
(1.03609 0.0122533 0)
(1.11051 0.0201869 0)
(1.11171 0.0281001 0)
(1.106 0.0373079 0)
(1.09761 0.0475091 0)
(1.08626 0.0574332 0)
(1.07159 0.0658038 0)
(1.05356 0.0712136 0)
(1.03253 0.0719821 0)
(1.01231 0.0671758 0)
(0.996667 0.0589813 0)
(0.985422 0.0496517 0)
(0.977528 0.0403218 0)
(0.972184 0.0316408 0)
(0.968739 0.0238916 0)
(0.965618 0.0170375 0)
(0.93716 0.0106457 0)
(0.719015 0.00443406 0)
(0.160799 0.000367249 0)
(0.254988 0.00130373 0)
(1.06701 0.0190315 0)
(1.13716 0.0292701 0)
(1.13597 0.0397355 0)
(1.12703 0.0520067 0)
(1.11476 0.0648479 0)
(1.09889 0.0764845 0)
(1.07934 0.0855919 0)
(1.05631 0.0907619 0)
(1.03034 0.0903257 0)
(1.00588 0.0836479 0)
(0.987018 0.073445 0)
(0.973291 0.0621576 0)
(0.963405 0.0509282 0)
(0.956429 0.0404385 0)
(0.95166 0.031031 0)
(0.947521 0.0226631 0)
(0.917978 0.0146168 0)
(0.698774 0.0061965 0)
(0.152537 0.000501118 0)
(0.28284 0.00257934 0)
(1.11136 0.0326485 0)
(1.17319 0.0457731 0)
(1.16702 0.0597613 0)
(1.15259 0.0752378 0)
(1.13439 0.0899582 0)
(1.11244 0.102269 0)
(1.08692 0.111013 0)
(1.05818 0.114889 0)
(1.02683 0.112358 0)
(0.997841 0.103217 0)
(0.975514 0.0907184 0)
(0.958995 0.0773772 0)
(0.946719 0.0642357 0)
(0.937593 0.0518931 0)
(0.930866 0.0407032 0)
(0.924953 0.0305488 0)
(0.893737 0.0205517 0)
(0.673325 0.00864277 0)
(0.142646 0.000618752 0)
(0.323835 0.010994 -9.3881e-21)
(1.17027 0.0610641 -6.45058e-21)
(1.2183 0.0777305 1.48953e-21)
(1.20257 0.0946359 0)
(1.17984 0.11106 -2.39296e-35)
(1.15383 0.125367 4.94256e-22)
(1.12468 0.136457 -1.75107e-21)
(1.09255 0.143335 0)
(1.05774 0.144832 5.54275e-35)
(1.02069 0.139502 -3.99756e-21)
(0.986852 0.127643 0)
(0.960637 0.112925 -5.57537e-21)
(0.940789 0.0977925 -1.6987e-20)
(0.925438 0.0831588 -8.20849e-21)
(0.913295 0.0695838 -2.57474e-21)
(0.903481 0.0574712 -1.56007e-21)
(0.894366 0.0467115 0)
(0.861069 0.0359278 1.13127e-21)
(0.639117 0.0212997 1.34015e-21)
(0.132506 0.00404461 2.40031e-20)
(0.343806 0.0300511 -2.14646e-20)
(1.21922 0.110558 5.09871e-22)
(1.2591 0.128881 -9.79713e-22)
(1.23489 0.143527 0)
(1.20416 0.157894 6.70785e-22)
(1.17074 0.170133 -3.69104e-22)
(1.1346 0.179077 -1.31836e-21)
(1.09585 0.183647 -7.57177e-21)
(1.05468 0.182713 0)
(1.01137 0.1749 1.67976e-20)
(0.971741 0.160933 1.82792e-20)
(0.940517 0.144881 5.80228e-21)
(0.916184 0.129088 2.27936e-20)
(0.896571 0.114254 3.35971e-20)
(0.880266 0.100883 0)
(0.866209 0.0894179 5.00634e-20)
(0.852568 0.0799512 7.36147e-20)
(0.816269 0.0705809 8.25571e-20)
(0.61223 0.0507128 -9.66868e-20)
(0.131217 0.0112427 -1.77671e-21)
(0.330679 0.0484321 0)
(1.24849 0.174805 -6.44766e-21)
(1.28926 0.192548 0)
(1.25924 0.20303 8.98606e-21)
(1.22236 0.213041 0)
(1.18278 0.221167 2.64657e-21)
(1.14066 0.226351 1.9238e-21)
(1.09613 0.22753 -1.20635e-20)
(1.04934 0.223495 -1.46555e-21)
(1.00046 0.212893 8.11173e-21)
(0.955787 0.196908 4.18681e-20)
(0.920505 0.179841 -1.94798e-22)
(0.892844 0.163931 -1.69649e-20)
(0.870424 0.149765 -3.27184e-20)
(0.851793 0.137631 3.97942e-20)
(0.835921 0.12775 -7.14295e-20)
(0.821296 0.120068 -9.7891e-21)
(0.788561 0.111839 0)
(0.602115 0.0853684 6.1954e-22)
(0.13581 0.0197227 0)
(0.316566 0.0641664 -1.68206e-19)
(1.2615 0.242238 6.77704e-20)
(1.30685 0.260777 3.45868e-20)
(1.27361 0.266971 -6.15945e-21)
(1.23277 0.272062 9.2409e-21)
(1.18894 0.275509 -7.33874e-21)
(1.14241 0.27636 3.06964e-21)
(1.09342 0.273554 0)
(1.04218 0.265932 -3.27416e-20)
(0.988874 0.252214 0)
(0.94033 0.234022 -2.11041e-20)
(0.902107 0.21588 -2.94456e-20)
(0.872332 0.199765 -1.87492e-20)
(0.848521 0.185933 -2.4122e-20)
(0.829069 0.17442 0)
(0.812858 0.165305 0)
(0.798348 0.158479 -6.50136e-20)
(0.767576 0.150192 1.3006e-20)
(0.591319 0.115704 -7.68326e-21)
(0.135466 0.026915 -8.99523e-21)
(0.305349 0.0782377 1.23278e-19)
(1.26345 0.309057 0)
(1.31392 0.328854 -9.62839e-20)
(1.2791 0.331007 -2.34579e-20)
(1.23598 0.331559 -1.66054e-20)
(1.18951 0.330477 0)
(1.13999 0.327008 -1.94607e-22)
(1.08769 0.320146 1.10192e-20)
(1.03295 0.308805 1.45419e-20)
(0.976032 0.291812 3.92594e-20)
(0.924398 0.271234 0)
(0.88404 0.251753 -6.33069e-20)
(0.852932 0.235034 -4.03506e-20)
(0.828365 0.221037 -2.42585e-20)
(0.808612 0.209604 1.58996e-19)
(0.792432 0.200571 1.94828e-20)
(0.778259 0.193791 9.33785e-20)
(0.748789 0.184796 -4.5354e-19)
(0.579341 0.143056 2.7226e-19)
(0.134022 0.0335143 -3.29065e-19)
(0.297311 0.0913711 1.28888e-19)
(1.25862 0.372562 -2.33849e-20)
(1.31344 0.39465 1.6863e-20)
(1.27788 0.393227 4.48544e-20)
(1.23343 0.389668 2.63842e-20)
(1.18524 0.384515 1.54786e-21)
(1.13364 0.37701 -2.1974e-22)
(1.07897 0.366232 8.91802e-21)
(1.02163 0.351198 -3.11194e-20)
(0.962041 0.330881 0)
(0.908113 0.307775 -2.72354e-20)
(0.866215 0.286711 -1.38925e-21)
(0.834223 0.269014 -4.4852e-20)
(0.809253 0.254448 0)
(0.78943 0.242624 -3.45289e-20)
(0.773402 0.233278 -8.38899e-20)
(0.759528 0.226148 2.32494e-19)
(0.731061 0.216248 -2.33295e-19)
(0.567345 0.167842 3.33757e-19)
(0.131953 0.0394565 -3.47977e-19)
(0.291379 0.103734 -5.20909e-22)
(1.24984 0.432067 2.82273e-20)
(1.30753 0.456895 8.07688e-20)
(1.27177 0.452615 -2.76096e-20)
(1.22663 0.445564 1.4969e-20)
(1.17739 0.436745 0)
(1.1244 0.425513 5.17342e-21)
(1.06805 0.411065 -7.5685e-21)
(1.00882 0.392489 -1.43258e-20)
(0.947184 0.368901 0)
(0.891479 0.343203 -2.60674e-20)
(0.848398 0.320338 -3.6509e-20)
(0.815767 0.301388 4.8725e-20)
(0.790565 0.285917 -3.12994e-20)
(0.770771 0.273408 -1.51333e-19)
(0.75495 0.263467 9.31554e-20)
(0.741411 0.255781 2.96292e-20)
(0.713808 0.244884 0)
(0.555138 0.190318 -3.23212e-19)
(0.129447 0.0447957 -1.18734e-20)
(0.286706 0.115506 2.06752e-20)
(1.23894 0.487429 -3.2136e-20)
(1.29797 0.515264 -4.35768e-20)
(1.26214 0.508646 -8.29788e-20)
(1.21665 0.498611 7.30296e-20)
(1.16677 0.486578 -3.66785e-20)
(1.11284 0.47199 -1.08621e-20)
(1.05532 0.45414 -1.09728e-20)
(0.994738 0.432249 1.27895e-20)
(0.931605 0.405514 -9.17904e-20)
(0.874509 0.377257 -3.17586e-20)
(0.830445 0.352471 0)
(0.797313 0.332057 5.30211e-20)
(0.771945 0.315422 6.5684e-20)
(0.752235 0.30197 8.11103e-20)
(0.736659 0.291258 -1.0162e-19)
(0.723456 0.282833 -3.0667e-20)
(0.696694 0.270819 3.65812e-20)
(0.542696 0.2106 0)
(0.12662 0.0495473 -2.59857e-20)
(0.28283 0.126782 -2.36197e-19)
(1.227 0.539221 1.47563e-19)
(1.28598 0.569897 4.67956e-20)
(1.25007 0.561276 -6.2727e-20)
(1.20441 0.548642 4.36913e-20)
(1.15411 0.533751 -3.2837e-21)
(1.09955 0.516119 1.0254e-20)
(1.04124 0.495158 -4.24064e-21)
(0.979749 0.470184 -2.4401e-20)
(0.91554 0.440527 -1.86589e-22)
(0.857327 0.409827 -9.27935e-20)
(0.812365 0.383106 9.19534e-20)
(0.778712 0.361074 -5.92789e-20)
(0.753164 0.343054 7.41639e-20)
(0.73354 0.328456 0)
(0.718213 0.31676 -5.53315e-20)
(0.7054 0.307464 -1.42743e-21)
(0.679479 0.294167 -1.60339e-19)
(0.529922 0.228864 -2.38271e-20)
(0.123401 0.0536719 0)
(0.279549 0.137458 0)
(1.21464 0.587764 1.56108e-19)
(1.27241 0.620928 1.08759e-19)
(1.23636 0.610546 7.03304e-20)
(1.19058 0.595686 4.13266e-20)
(1.14002 0.578254 0)
(1.08506 0.557848 1.19478e-20)
(1.0262 0.533976 -1.22269e-21)
(0.964108 0.506148 4.98853e-20)
(0.899209 0.473822 -1.08458e-20)
(0.840085 0.440886 -6.74752e-20)
(0.794218 0.41231 4.54926e-20)
(0.759901 0.388577 -2.07679e-21)
(0.734073 0.368983 7.79875e-20)
(0.714462 0.352999 5.15768e-20)
(0.699389 0.340116 -1.20869e-19)
(0.686977 0.329777 1.47023e-19)
(0.661931 0.315079 4.42708e-20)
(0.516671 0.245046 1.84289e-19)
(0.119691 0.0570919 -4.93026e-19)
(0.276813 0.147788 -5.89517e-20)
(1.20197 0.633422 8.95104e-20)
(1.25782 0.668623 -6.72491e-20)
(1.22157 0.656673 -8.05208e-20)
(1.17569 0.639818 0)
(1.12491 0.620116 3.23447e-20)
(1.06969 0.597177 -3.35436e-20)
(1.01051 0.570553 3.98926e-21)
(0.948095 0.540012 0)
(0.882839 0.505277 -1.62059e-19)
(0.823009 0.470471 1.7983e-19)
(0.776103 0.440266 0)
(0.740878 0.414827 7.01831e-20)
(0.714526 0.393459 -2.30912e-21)
(0.694801 0.375829 -1.63941e-19)
(0.67991 0.361494 6.43893e-20)
(0.66793 0.349898 0)
(0.643791 0.333744 2.41195e-19)
(0.502687 0.259304 0)
(0.115479 0.059829 -2.37082e-19)
(0.274584 0.157797 6.4767e-20)
(1.18918 0.676524 1.01737e-19)
(1.24277 0.713179 -6.98196e-20)
(1.20614 0.699905 0)
(1.16013 0.68124 5.56139e-20)
(1.10914 0.659454 0)
(1.05371 0.634135 4.56479e-20)
(0.994394 0.604924 3.9811e-21)
(0.931937 0.571756 5.10067e-21)
(0.866648 0.534845 -7.83088e-20)
(0.806323 0.498648 1.69953e-20)
(0.758249 0.467191 0)
(0.721688 0.440104 -1.48816e-19)
(0.694391 0.416799 2.51177e-21)
(0.674304 0.397191 0)
(0.659479 0.381088 2.86824e-21)
(0.647921 0.367942 2.20406e-19)
(0.624773 0.35004 -2.14292e-19)
(0.487767 0.271516 6.35154e-20)
(0.110594 0.0616308 0)
(0.272602 0.167395 0)
(1.17633 0.717104 1.12229e-19)
(1.22748 0.754854 8.09704e-20)
(1.19043 0.740406 -2.05949e-21)
(1.14422 0.720142 3.49363e-20)
(1.09299 0.696419 7.37934e-20)
(1.03734 0.66883 -1.44604e-20)
(0.977959 0.637095 6.59907e-22)
(0.915778 0.601383 2.68942e-20)
(0.850864 0.562459 -1.14312e-19)
(0.790367 0.525423 -1.21672e-21)
(0.740865 0.49333 -5.86416e-20)
(0.702412 0.464822 2.4497e-19)
(0.673587 0.439403 -3.25076e-21)
(0.652683 0.417482 -1.32241e-19)
(0.637715 0.399192 -2.4296e-19)
(0.626535 0.384136 0)
(0.604377 0.364155 0)
(0.471588 0.281487 7.16237e-20)
(0.104807 0.0624584 -4.1614e-20)
(0.271236 0.176732 7.84726e-20)
(1.1638 0.755384 -2.40333e-19)
(1.21203 0.794071 -8.53247e-20)
(1.17463 0.778423 0)
(1.12816 0.756697 -9.09602e-22)
(1.07666 0.731166 8.78932e-20)
(1.02076 0.701391 -4.93673e-20)
(0.961353 0.667124 -1.9019e-20)
(0.899673 0.628894 2.55538e-20)
(0.835708 0.588078 -8.1909e-20)
(0.775418 0.550816 -1.39929e-19)
(0.724313 0.518912 1.54383e-19)
(0.683242 0.489442 0)
(0.652053 0.4618 -5.97561e-20)
(0.629669 0.43707 -1.47386e-19)
(0.614239 0.416032 -1.79236e-19)
(0.603322 0.398651 -2.19521e-19)
(0.582011 0.376051 6.64346e-20)
(0.453447 0.289074 -3.8789e-20)
(0.0977009 0.062124 9.33823e-22)
(0.270031 0.185738 0)
(1.15178 0.791513 0)
(1.19676 0.830904 1.19903e-21)
(1.15891 0.814168 0)
(1.11212 0.791105 -1.26483e-19)
(1.06028 0.763859 -7.65244e-20)
(1.00412 0.731955 0)
(0.944663 0.695137 -5.22739e-21)
(0.883634 0.65424 2.58326e-20)
(0.821258 0.611661 -1.78265e-19)
(0.761864 0.574769 0)
(0.709075 0.544173 -9.62846e-20)
(0.664498 0.514517 -4.27481e-21)
(0.62978 0.484835 -3.60346e-21)
(0.605114 0.456802 1.59658e-19)
(0.588719 0.431868 -2.28811e-22)
(0.577526 0.411409 -4.86421e-19)
(0.556987 0.385643 1.48089e-19)
(0.432852 0.293882 4.43936e-20)
(0.0890822 0.0601893 0)
(0.268985 0.194699 -2.82058e-19)
(1.13997 0.825691 -1.43387e-19)
(1.1818 0.865571 -2.06853e-19)
(1.14341 0.847837 2.8261e-19)
(1.09625 0.823526 -2.32295e-19)
(1.04397 0.794661 0)
(0.987461 0.760666 -4.14068e-20)
(0.927985 0.721248 1.01877e-20)
(0.867685 0.677497 2.51401e-21)
(0.807462 0.633062 1.32811e-20)
(0.750046 0.597171 1.58392e-19)
(0.695653 0.569341 -3.18636e-20)
(0.646569 0.540717 -1.50891e-19)
(0.60693 0.509286 -7.37478e-20)
(0.578345 0.477043 9.12176e-20)
(0.560097 0.447648 -8.37421e-24)
(0.548514 0.422418 1.37447e-19)
(0.529685 0.39288 -3.27456e-19)
(0.408719 0.294884 3.9608e-19)
(0.0786179 0.0563031 5.67976e-20)
(0.268025 0.203445 1.02311e-19)
(1.12847 0.858108 -7.64755e-20)
(1.16723 0.898246 4.47228e-21)
(1.12825 0.879602 1.55964e-19)
(1.08064 0.854137 5.35601e-20)
(1.02783 0.823731 1.48653e-19)
(0.970867 0.787686 -1.81837e-20)
(0.911292 0.745582 4.96279e-20)
(0.851881 0.698738 3.04694e-21)
(0.794318 0.652108 -7.82407e-20)
(0.740076 0.617878 0)
(0.684723 0.594514 -1.43172e-19)
(0.630116 0.568861 2.21118e-19)
(0.583171 0.536533 0)
(0.548796 0.498933 -1.97452e-19)
(0.526726 0.465149 1.26553e-19)
(0.515248 0.43357 -1.51965e-19)
(0.497454 0.398431 -1.86194e-19)
(0.378818 0.292151 -3.30669e-19)
(0.0656275 0.0499036 -2.58639e-19)
(0.267495 0.21213 -1.10868e-19)
(1.11734 0.888837 8.17178e-20)
(1.15313 0.929074 1.87088e-19)
(1.11353 0.909599 2.12607e-19)
(1.06539 0.883083 -1.09901e-19)
(1.01194 0.851221 9.93648e-20)
(0.95442 0.813169 -5.5892e-20)
(0.894594 0.7683 6.20947e-20)
(0.836103 0.718055 1.28398e-20)
(0.781799 0.668761 5.21055e-20)
(0.731908 0.636554 2.89533e-19)
(0.676841 0.619826 0)
(0.61567 0.599622 0)
(0.559076 0.566805 -8.67154e-20)
(0.515595 0.524925 0)
(0.488654 0.481972 2.81105e-19)
(0.47651 0.443487 3.41737e-19)
(0.458874 0.400613 0)
(0.341974 0.283871 0)
(0.0498488 0.0405565 2.91913e-19)
(0.266948 0.22041 1.20721e-19)
(1.10668 0.918013 9.57505e-20)
(1.13955 0.958196 1.32926e-19)
(1.0993 0.937975 -1.84867e-19)
(1.05056 0.910499 -1.20167e-19)
(0.996385 0.877273 -1.29271e-19)
(0.93816 0.837282 8.15643e-20)
(0.877921 0.789576 1.2924e-21)
(0.820234 0.735526 -2.40915e-21)
(0.769766 0.682939 -1.257e-20)
(0.726049 0.652559 1.33902e-19)
(0.673049 0.645331 0)
(0.604964 0.632637 2.25704e-19)
(0.535101 0.599511 1.84054e-19)
(0.479536 0.557031 4.96504e-19)
(0.445927 0.505723 1.54736e-19)
(0.429217 0.453446 -1.96845e-19)
(0.411783 0.395101 -1.17236e-19)
(0.297425 0.266375 0)
(0.0328854 0.0279543 3.28523e-19)
(0.266958 0.228938 -2.61688e-19)
(1.09648 0.945698 0)
(1.12652 0.985723 1.45148e-19)
(1.08562 0.964828 -1.48254e-19)
(1.03622 0.936496 1.32064e-19)
(0.981222 0.902011 1.85214e-19)
(0.92216 0.860182 -1.84272e-19)
(0.861255 0.809563 2.27669e-21)
(0.804203 0.751289 0)
(0.75788 0.694573 -3.98815e-21)
(0.722567 0.665595 -2.14958e-19)
(0.673636 0.670196 1.59399e-20)
(0.598386 0.668378 3.08008e-19)
(0.511891 0.642532 0)
(0.443595 0.593313 3.42896e-19)
(0.396551 0.533398 0)
(0.368906 0.469292 0)
(0.350574 0.38286 -1.36298e-19)
(0.248311 0.230088 0)
(0.0359203 0.02042 9.06801e-20)
(0.266881 0.236961 -2.82101e-19)
(1.08666 0.972109 0)
(1.114 1.01182 2.33596e-19)
(1.07248 0.990365 0)
(1.02237 0.961319 -6.98138e-20)
(0.966422 0.925728 0)
(0.906372 0.882256 -1.3396e-20)
(0.844488 0.828686 -1.14981e-20)
(0.787754 0.765811 -4.94525e-21)
(0.745742 0.703775 2.92051e-20)
(0.721512 0.675121 2.94604e-21)
(0.679647 0.694376 1.36607e-19)
(0.596088 0.708678 2.98972e-19)
(0.493142 0.688354 4.74842e-20)
(0.409626 0.646016 2.75549e-19)
(0.341308 0.579486 0)
(0.286111 0.487378 4.46031e-19)
(0.253927 0.355442 -2.71894e-19)
(0.134162 0.174391 3.17995e-19)
(-0.0521385 0.40329 -3.80997e-19)
(0.267096 0.244985 2.27916e-19)
(1.07702 0.997382 3.49377e-19)
(1.10185 1.03676 0)
(1.05975 1.01498 1.31192e-21)
(1.00879 0.985498 1.87511e-19)
(0.951678 0.949059 -3.43605e-19)
(0.890354 0.904247 -7.7958e-20)
(0.826959 0.847702 0)
(0.769857 0.779728 -4.87989e-20)
(0.732395 0.710427 4.02883e-21)
(0.723398 0.680109 0)
(0.693759 0.718855 0)
(0.60134 0.7559 2.61426e-19)
(0.484131 0.75103 -1.57055e-19)
(0.371994 0.704303 -2.81761e-19)
(0.280618 0.635413 0)
(0.181355 0.534533 2.30193e-19)
(0.0726886 0.606335 -2.76312e-19)
(0.0675155 1.79514 -1.51394e-19)
(0.0979463 2.76064 -1.89038e-19)
(0.26745 0.252096 -1.64232e-19)
(1.06745 1.02152 -4.34193e-19)
(1.09006 1.06041 1.30155e-19)
(1.04753 1.03857 1.20606e-19)
(0.995602 1.00886 0)
(0.937142 0.971827 -2.41315e-19)
(0.874396 0.926038 -1.2682e-19)
(0.808909 0.866599 7.34399e-21)
(0.750619 0.792958 -8.89384e-21)
(0.717643 0.713951 -8.86339e-20)
(0.727211 0.680172 -7.60017e-21)
(0.716308 0.742117 9.10564e-20)
(0.62098 0.810922 2.55787e-19)
(0.470742 0.820389 -3.73303e-19)
(0.329402 0.779938 -4.31576e-19)
(0.216159 0.725765 0)
(0.115224 0.958473 0)
(0.168561 2.45368 1.20153e-19)
(0.170718 3.13174 0)
(0.167581 3.32582 2.82129e-19)
(0.271097 0.258009 0)
(1.05765 1.04428 0)
(1.07847 1.08247 0)
(1.03558 1.06094 3.33257e-20)
(0.982605 1.03126 1.61063e-19)
(0.922715 0.994006 -1.77053e-19)
(0.858507 0.94771 -8.7685e-20)
(0.79033 0.885529 8.04227e-21)
(0.729847 0.805671 -9.51024e-20)
(0.701205 0.71429 -2.15109e-20)
(0.73255 0.672137 -1.74744e-19)
(0.747909 0.755419 -1.2639e-20)
(0.645564 0.876912 2.49811e-20)
(0.455703 0.919541 5.71858e-20)
(0.270146 0.880895 -2.59608e-21)
(0.182243 1.06193 2.00128e-21)
(0.226909 2.52863 -5.8458e-19)
(0.252223 3.22464 -2.21196e-19)
(0.228485 3.37481 1.0438e-19)
(0.205918 3.40383 -1.07388e-19)
(0.166997 0.200713 9.18732e-20)
(1.04469 1.06578 0)
(1.06785 1.10328 -2.45141e-19)
(1.02444 1.08269 -3.03488e-19)
(0.970469 1.05336 3.287e-19)
(0.909121 1.01614 1.85906e-19)
(0.84402 0.969423 1.00561e-19)
(0.772719 0.907286 -1.19078e-19)
(0.707381 0.823187 8.95533e-20)
(0.681027 0.716932 0)
(0.736346 0.654013 -1.89504e-19)
(0.798921 0.740856 -1.13143e-20)
(0.722294 0.934886 0)
(0.467091 1.04666 5.10924e-20)
(0.250972 1.04926 1.29895e-19)
(0.213668 2.12446 -1.49575e-19)
(0.338931 3.23414 1.6374e-19)
(0.316153 3.38676 7.80981e-20)
(0.265936 3.42572 8.72869e-20)
(0.231842 3.44508 1.05768e-19)
(0.329537 0.313808 -1.58833e-19)
(1.02368 1.07656 0)
(1.05374 1.13415 2.47274e-19)
(1.00677 1.11468 3.03765e-19)
(0.95043 1.08588 -3.285e-19)
(0.885776 1.04836 -1.87146e-19)
(0.814784 0.999146 -1.44312e-19)
(0.738553 0.931342 -9.35102e-21)
(0.669487 0.835553 -1.19688e-19)
(0.645995 0.704617 -2.48926e-19)
(0.752615 0.603525 -1.93433e-20)
(0.939063 0.718008 -1.25465e-19)
(0.88681 1.07322 1.07561e-20)
(0.53454 1.30518 -4.74389e-20)
(0.370746 1.93675 -1.23472e-19)
(0.472021 3.17889 8.17421e-20)
(0.457045 3.41915 -6.79111e-20)
(0.39989 3.47136 -3.65526e-20)
(0.338684 3.51707 1.25602e-20)
(0.253056 3.50858 -1.312e-22)
(0.31931 0.312178 0)
(1.02228 1.10023 6.76739e-20)
(1.04425 1.15684 -4.91815e-20)
(0.995939 1.13785 -3.39447e-20)
(0.937931 1.10946 -2.10262e-19)
(0.871244 1.07203 1.80562e-19)
(0.796961 1.02207 9.25772e-20)
(0.716012 0.95205 -9.34108e-21)
(0.639918 0.848647 1.41155e-19)
(0.609546 0.689167 -2.28231e-20)
(0.744736 0.52503 9.32886e-19)
(1.08615 0.646714 -2.00308e-20)
(1.07227 1.19755 3.02596e-21)
(0.652769 1.58036 -4.60195e-20)
(0.548719 2.61874 2.73277e-20)
(0.617679 3.38098 2.03221e-21)
(0.522975 3.51085 -5.50507e-20)
(0.467964 3.5632 -8.05873e-20)
(0.374648 3.616 1.16107e-19)
(0.279417 3.59348 4.71571e-20)
(0.300719 0.309241 1.69916e-19)
(1.01876 1.12787 4.48952e-19)
(1.03471 1.18211 -1.36221e-19)
(0.98463 1.16315 -1.25581e-19)
(0.924814 1.13504 0)
(0.855941 1.0977 2.53788e-19)
(0.778125 1.04721 1.36142e-19)
(0.691636 0.975132 -9.20157e-21)
(0.606087 0.863381 1.76311e-20)
(0.564599 0.672205 3.82464e-19)
(0.739046 0.403124 6.91397e-19)
(1.19743 0.628229 4.22993e-19)
(1.24713 1.40167 1.54386e-19)
(0.825423 1.95782 1.59415e-19)
(0.734962 3.10147 9.61875e-20)
(0.735226 3.51594 0)
(0.605968 3.59575 0)
(0.524556 3.67978 1.16815e-19)
(0.4262 3.74601 0)
(0.29443 3.71552 1.8533e-19)
(0.287857 0.310642 -2.47081e-19)
(1.01305 1.1577 -3.71129e-19)
(1.0241 1.20955 0)
(0.972204 1.19024 1.24873e-21)
(0.910578 1.16228 -1.98924e-19)
(0.83942 1.12511 3.67422e-19)
(0.758014 1.07456 8.62463e-20)
(0.665372 1.00135 -9.42135e-21)
(0.567749 0.882891 1.26083e-19)