/*--------------------------------*- C++ -*----------------------------------*\
| =========                 |                                                 |
| \\      /  F ield         | OpenFOAM: The Open Source CFD Toolbox           |
|  \\    /   O peration     | Version:  4.0                                   |
|   \\  /    A nd           | Web:      www.OpenFOAM.org                      |
|    \\/     M anipulation  |                                                 |
\*---------------------------------------------------------------------------*/
FoamFile
{
    version     2.0;
    format      ascii;
    class       volScalarField;
    location    "0.005";
    object      p;
}
// * * * * * * * * * * * * * * * * * * * * * * * * * * * * * * * * * * * * * //

dimensions      [1 -1 -2 0 0 0 0];

internalField   nonuniform List<scalar> 
1000
(
100000
100000
100000
100000
100000
100000
100000
100000
100000
100000
100000
100000
100000
100000
100000
100000
100000
100000
100000
100000
100000
100000
100000
100000
100000
100000
100000
100000
100000
100000
100000
100000
100000
100000
100000
100000
100000
100000
100000
100000
100000
100000
100000
100000
100000
100000
100000
100000
100000
100000
100000
100000
100000
100000
100000
100000
100000
100000
100000
100000
100000
100000
100000
100000
100000
100000
100000
100000
100000
100000
100000
100000
100000
100000
100000
100000
100000
100000
100000
100000
100000
100000
100000
100000
100000
100000
100000
100000
100000
100000
100000
100000
100000
100000
100000
100000
100000
100000
100000
100000
100000
100000
100000
100000
100000
100000
100000
100000
100000
100000
100000
100000
100000
100000
100000
100000
100000
100000
100000
100000
100000
100000
100000
100000
100000
100000
100000
100000
100000
100000
100000
100000
100000
100000
100000
100000
100000
100000
100000
100000
100000
100000
100000
100000
100000
100000
100000
100000
100000
100000
100000
100000
100000
100000
100000
100000
100000
100000
100000
100000
100000
100000
100000
100000
100000
100000
100000
100000
100000
100000
100000
100000
100000
100000
100000
100000
100000
100000
100000
100000
100000
100000
100000
100000
100000
100000
100000
100000
100000
100000
100000
100000
100000
100000
100000
100000
100000
100000
100000
100000
100000
100000
100000
100000
100000
100000
100000
100000
100000
100000
100000
100000
100000
100000
100000
100000
100000
100000
100000
100000
100000
100000
100000
100000
100000
100000
100000
100000
100000
100000
100000
100000
100000
100000
100000
100000
100000
100000
100000
100000
100000
100000
100000
100000
100000
100000
100000
100000
100000
100000
100000
100000
100000
100000
100000
100000
100000
100000
100000
100000
100000
100000
100000
100000
100000
100000
100000
100000
100000
99999.9
99999.9
99999.9
99999.8
99999.7
99999.5
99999.3
99999
99998.5
99997.9
99997
99995.7
99993.9
99991.6
99988.3
99984
99978.2
99970.6
99960.6
99947.8
99931.3
99910.4
99884.2
99851.7
99811.7
99763
99704.4
99634.5
99551.9
99455.5
99344
99216.2
99071.2
98908.1
98726.4
98525.7
98305.6
98066.4
97808
97531
97235.9
96923.4
96594.3
96249.4
95889.9
95516.5
95130.4
94732.5
94323.8
93905.2
93477.6
93041.9
92598.9
92149.3
91693.9
91233.2
90768
90298.7
89825.8
89349.9
88871.3
88390.4
87907.6
87423.2
86937.5
86450.8
85963.2
85475.1
84986.7
84498
84009.4
83521
83032.8
82545.1
82058
81571.6
81086
80601.3
80117.6
79635
79153.6
78673.5
78194.6
77717.2
77241.2
76766.8
76293.9
75822.6
75353
74885.1
74419
73954.7
73492.2
73031.5
72572.8
72116
71661.1
71208.2
70757.3
70308.4
69861.6
69416.8
68974
68533.4
68094.8
67658.4
67224
66791.8
66361.7
65933.8
65508
65084.3
64662.8
64243.5
63826.3
63411.3
62998.5
62587.8
62179.3
61772.9
61368.8
60966.8
60567
60169.3
59773.8
59380.5
58989.3
58600.3
58213.5
57828.8
57446.2
57065.8
56687.6
56311.5
55937.5
55565.7
55195.9
54828.4
54462.9
54099.5
53738.3
53379.2
53022.1
52667.2
52314.4
51963.6
51614.9
51268.4
50923.8
50581.4
50241
49902.8
49566.5
49232.3
48900.1
48570
48242
47916
47592
47270
46950.1
46632.2
46316.3
46002.5
45690.7
45380.9
45073.1
44767.3
44463.6
44161.9
43862.2
43564.5
43268.8
42975.2
42683.6
42394.1
42106.6
41821.1
41537.7
41256.4
40977.1
40700
40424.9
40151.9
39881.1
39612.4
39345.9
39081.6
38819.5
38559.7
38302.1
38046.8
37793.8
37543.2
37295.1
37049.4
36806.2
36565.6
36327.6
36092.4
35859.8
35630.2
35403.5
35179.8
34959.2
34741.9
34527.9
34317.5
34110.6
33907.5
33708.4
33513.3
33322.5
33136.2
32954.6
32777.8
32606.2
32439.8
32279.1
32124.1
31975.1
31832.5
31696.3
31566.9
31444.3
31328.8
31220.6
31119.7
31026.1
30940
30861.3
30789.8
30725.5
30668.1
30617.2
30572.7
30534
30500.8
30472.6
30448.9
30429.2
30413.1
30400
30389.5
30381.1
30374.6
30369.5
30365.5
30362.5
30360.2
30358.4
30357
30355.9
30354.9
30354.2
30353.6
30353.1
30352.6
30352.2
30351.9
30351.6
30351.3
30351.1
30350.9
30350.7
30350.6
30350.5
30350.4
30350.3
30350.3
30350.2
30350.2
30350.2
30350.1
30350.1
30350.1
30350.1
30350.1
30350.1
30350.1
30350.1
30350.1
30350
30350
30350
30350
30350
30350
30350
30349.9
30349.9
30349.9
30349.9
30349.9
30349.8
30349.8
30349.8
30349.8
30349.8
30349.8
30349.7
30349.7
30349.7
30349.7
30349.7
30349.7
30349.6
30349.6
30349.6
30349.6
30349.6
30349.6
30349.5
30349.5
30349.5
30349.5
30349.5
30349.5
30349.5
30349.4
30349.4
30349.4
30349.4
30349.4
30349.4
30349.3
30349.3
30349.3
30349.3
30349.3
30349.3
30349.3
30349.3
30349.2
30349.2
30349.2
30349.2
30349.2
30349.2
30349.1
30349.1
30349.1
30349.1
30349.1
30349.1
30349
30349
30349
30349
30349
30349
30348.9
30348.9
30348.8
30348.8
30348.8
30348.8
30348.9
30348.8
30348.9
30348.9
30348.9
30348.7
30348.5
30348.4
30348.3
30348.2
30348
30347.8
30347.7
30347.6
30347.5
30347.5
30347.6
30347.7
30347.8
30348
30348.2
30348.4
30348.6
30348.7
30348.8
30348.9
30348.9
30348.9
30348.8
30348.8
30348.7
30348.6
30348.5
30348.5
30348.4
30348.4
30348.3
30348.3
30348.2
30348.2
30348.2
30348.2
30348.2
30348.1
30348.1
30348.1
30348.1
30348
30348
30347.9
30347.9
30347.8
30347.8
30347.8
30347.8
30347.8
30347.8
30347.8
30347.8
30347.8
30347.8
30347.8
30347.8
30347.7
30347.7
30347.6
30347.6
30347.5
30347.4
30347.4
30347.3
30347.3
30347.3
30347.3
30347.3
30347.3
30347.3
30347.3
30347.3
30347.3
30347.3
30347.3
30347.2
30347.1
30347
30346.9
30346.9
30346.8
30346.7
30346.7
30346.7
30346.7
30346.7
30346.7
30346.7
30346.7
30346.7
30346.7
30346.7
30346.6
30346.5
30346.4
30346.3
30346.2
30346
30345.9
30345.9
30345.8
30345.8
30345.8
30345.8
30345.8
30345.8
30345.8
30345.8
30345.8
30345.8
30345.7
30345.6
30345.5
30345.3
30345.2
30345
30344.8
30344.6
30344.5
30344.4
30344.4
30344.5
30344.6
30344.7
30344.7
30344.6
30344.4
30343.9
30342.9
30341.9
30340.7
30338.5
30335
30328.9
30316.5
30301
30269.4
30198.7
30080.5
29689.1
28984.4
27189.5
23655.8
18735.9
14370.9
11679.4
10516.2
10138.5
10035.1
10008.8
10002.2
10000.5
10000.1
10000
10000
10000
10000
10000
10000
10000
10000
10000
10000
10000
10000
10000
10000
10000
10000
10000
10000
10000
10000
10000
10000
10000
10000
10000
10000
10000
10000
10000
10000
10000
10000
10000
10000
10000
10000
10000
10000
10000
10000
10000
10000
10000
10000
10000
10000
10000
10000
10000
10000
10000
10000
10000
10000
10000
10000
10000
10000
10000
10000
10000
10000
10000
10000
10000
10000
10000
10000
10000
10000
10000
10000
10000
10000
10000
10000
10000
10000
10000
10000
10000
10000
10000
10000
10000
10000
10000
10000
10000
10000
10000
10000
10000
10000
10000
10000
10000
10000
10000
10000
10000
10000
10000
10000
10000
10000
10000
10000
10000
10000
10000
10000
10000
10000
10000
10000
10000
10000
10000
10000
10000
10000
10000
10000
10000
10000
10000
10000
10000
10000
10000
10000
10000
10000
10000
10000
10000
10000
10000
10000
10000
10000
10000
10000
10000
10000
10000
10000
10000
10000
10000
10000
10000
10000
10000
10000
10000
10000
10000
10000
10000
10000
10000
10000
10000
10000
10000
10000
10000
10000
10000
10000
10000
10000
10000
10000
10000
10000
10000
10000
10000
10000
10000
10000
10000
10000
10000
10000
10000
10000
10000
10000
10000
10000
10000
10000
10000
10000
10000
10000
10000
10000
10000
10000
10000
10000
10000
10000
10000
10000
10000
10000
10000
10000
)
;

boundaryField
{
    sides
    {
        type            zeroGradient;
    }
    empty
    {
        type            empty;
    }
}


// ************************************************************************* //
