/*--------------------------------*- C++ -*----------------------------------*\
| =========                 |                                                 |
| \\      /  F ield         | OpenFOAM: The Open Source CFD Toolbox           |
|  \\    /   O peration     | Version:  4.0                                   |
|   \\  /    A nd           | Web:      www.OpenFOAM.org                      |
|    \\/     M anipulation  |                                                 |
\*---------------------------------------------------------------------------*/
FoamFile
{
    version     2.0;
    format      ascii;
    class       volScalarField;
    location    "0.005";
    object      T;
}
// * * * * * * * * * * * * * * * * * * * * * * * * * * * * * * * * * * * * * //

dimensions      [0 0 0 1 0 0 0];

internalField   nonuniform List<scalar> 
1000
(
348.432
348.432
348.432
348.432
348.432
348.432
348.432
348.432
348.432
348.432
348.432
348.432
348.432
348.432
348.432
348.432
348.432
348.432
348.432
348.432
348.432
348.432
348.432
348.432
348.432
348.432
348.432
348.432
348.432
348.432
348.432
348.432
348.432
348.432
348.432
348.432
348.432
348.432
348.432
348.432
348.432
348.432
348.432
348.432
348.432
348.432
348.432
348.432
348.432
348.432
348.432
348.432
348.432
348.432
348.432
348.432
348.432
348.432
348.432
348.432
348.432
348.432
348.432
348.432
348.432
348.432
348.432
348.432
348.432
348.432
348.432
348.432
348.432
348.432
348.432
348.432
348.432
348.432
348.432
348.432
348.432
348.432
348.432
348.432
348.432
348.432
348.432
348.432
348.432
348.432
348.432
348.432
348.432
348.432
348.432
348.432
348.432
348.432
348.432
348.432
348.432
348.432
348.432
348.432
348.432
348.432
348.432
348.432
348.432
348.432
348.432
348.432
348.432
348.432
348.432
348.432
348.432
348.432
348.432
348.432
348.432
348.432
348.432
348.432
348.432
348.432
348.432
348.432
348.432
348.432
348.432
348.432
348.432
348.432
348.432
348.432
348.432
348.432
348.432
348.432
348.432
348.432
348.432
348.432
348.432
348.432
348.432
348.432
348.432
348.432
348.432
348.432
348.432
348.432
348.432
348.432
348.432
348.432
348.432
348.432
348.432
348.432
348.432
348.432
348.432
348.432
348.432
348.432
348.432
348.432
348.432
348.432
348.432
348.432
348.432
348.432
348.432
348.432
348.432
348.432
348.432
348.432
348.432
348.432
348.432
348.432
348.432
348.432
348.432
348.432
348.432
348.432
348.432
348.432
348.432
348.432
348.432
348.432
348.432
348.432
348.432
348.432
348.432
348.432
348.432
348.432
348.432
348.432
348.432
348.432
348.432
348.432
348.432
348.432
348.432
348.432
348.432
348.432
348.432
348.432
348.432
348.432
348.432
348.432
348.432
348.432
348.432
348.432
348.432
348.432
348.432
348.432
348.432
348.432
348.432
348.432
348.432
348.432
348.432
348.432
348.432
348.432
348.432
348.432
348.432
348.432
348.432
348.432
348.432
348.432
348.432
348.432
348.432
348.432
348.432
348.432
348.432
348.432
348.432
348.432
348.432
348.432
348.432
348.432
348.432
348.432
348.432
348.432
348.432
348.432
348.432
348.432
348.432
348.432
348.432
348.431
348.431
348.431
348.43
348.429
348.428
348.426
348.424
348.42
348.416
348.41
348.403
348.393
348.38
348.363
348.343
348.317
348.284
348.244
348.195
348.137
348.067
347.984
347.888
347.776
347.648
347.503
347.339
347.156
346.954
346.732
346.491
346.229
345.948
345.649
345.331
344.995
344.642
344.273
343.889
343.491
343.08
342.656
342.22
341.774
341.318
340.852
340.378
339.896
339.407
338.911
338.41
337.902
337.389
336.871
336.349
335.823
335.293
334.759
334.222
333.682
333.139
332.594
332.046
331.496
330.943
330.389
329.833
329.275
328.716
328.155
327.593
327.03
326.465
325.9
325.333
324.766
324.197
323.628
323.058
322.488
321.917
321.346
320.774
320.201
319.629
319.056
318.482
317.909
317.335
316.762
316.188
315.614
315.04
314.466
313.892
313.318
312.744
312.17
311.596
311.023
310.449
309.876
309.303
308.73
308.158
307.586
307.014
306.442
305.871
305.299
304.729
304.158
303.588
303.019
302.449
301.881
301.312
300.744
300.177
299.609
299.043
298.477
297.911
297.346
296.781
296.217
295.653
295.09
294.527
293.965
293.404
292.841
292.285
291.716
291.173
290.587
290.074
289.448
288.988
288.304
287.906
287.175
286.798
286.089
285.648
285.04
284.49
283.975
283.381
282.86
282.31
281.744
281.218
280.664
280.112
279.58
279.03
278.485
277.949
277.406
276.864
276.328
275.79
275.251
274.716
274.183
273.647
273.115
272.585
272.054
271.525
270.997
270.471
269.946
269.421
268.9
268.379
267.86
267.343
266.827
266.314
265.801
265.292
264.783
264.278
263.774
263.273
262.775
262.278
261.786
261.295
260.809
260.325
259.845
259.369
258.897
258.43
257.966
257.508
257.055
256.608
256.166
255.732
255.303
254.883
254.47
254.065
253.67
253.283
252.908
252.542
252.188
251.847
251.518
251.202
250.9
250.614
250.342
250.086
249.846
249.623
249.416
249.226
249.053
248.896
248.756
248.63
248.521
248.425
248.342
248.272
248.213
248.164
248.124
248.092
248.066
248.046
248.031
248.019
248.011
248.005
248.001
247.998
247.997
247.996
247.996
247.997
247.997
247.999
248
248.002
248.003
248.006
248.007
248.01
248.011
248.015
248.016
248.02
248.022
248.026
248.028
248.032
248.034
248.038
248.04
248.045
248.047
248.052
248.054
248.059
248.061
248.067
248.069
248.074
248.077
248.083
248.085
248.091
248.093
248.1
248.102
248.109
248.112
248.119
248.122
248.129
248.132
248.14
248.143
248.151
248.154
248.163
248.166
248.175
248.178
248.188
248.192
248.202
248.206
248.217
248.22
248.232
248.236
248.248
248.253
248.266
248.27
248.284
248.289
248.304
248.309
248.325
248.33
248.347
248.353
248.372
248.378
248.398
248.405
248.426
248.433
248.457
248.465
248.49
248.499
248.526
248.536
248.566
248.577
248.611
248.622
248.66
248.672
248.715
248.729
248.777
248.792
248.846
248.865
248.927
248.948
249.02
249.045
249.129
249.158
249.254
249.286
249.389
249.427
249.531
249.565
249.644
249.691
249.83
250.076
250.601
251.48
252.816
254.707
257.244
260.503
264.536
269.371
275.006
281.407
288.505
296.201
304.362
312.835
321.447
330.018
338.373
346.349
353.81
360.651
366.802
372.228
376.927
380.925
384.269
387.021
389.251
391.03
392.43
393.516
394.347
394.976
395.445
395.791
396.043
396.226
396.356
396.449
396.515
396.562
396.595
396.619
396.636
396.649
396.658
396.666
396.673
396.678
396.683
396.687
396.691
396.694
396.697
396.699
396.702
396.704
396.706
396.707
396.709
396.71
396.711
396.712
396.712
396.713
396.714
396.714
396.715
396.715
396.716
396.716
396.717
396.717
396.717
396.718
396.718
396.718
396.718
396.718
396.718
396.717
396.717
396.717
396.717
396.717
396.717
396.718
396.718
396.718
396.718
396.718
396.718
396.719
396.719
396.718
396.718
396.718
396.718
396.717
396.717
396.717
396.717
396.717
396.717
396.717
396.717
396.718
396.718
396.718
396.718
396.718
396.718
396.718
396.718
396.718
396.717
396.717
396.716
396.716
396.715
396.714
396.714
396.715
396.715
396.716
396.717
396.717
396.716
396.715
396.711
396.709
396.703
396.705
396.689
396.693
396.644
396.631
396.518
396.474
396.087
395.771
393.821
390.996
383.202
366.11
338.207
310.655
291.367
282.621
279.792
279.014
278.813
278.763
278.75
278.747
278.746
278.746
278.746
278.746
278.746
278.746
278.746
278.746
278.746
278.746
278.746
278.746
278.746
278.746
278.746
278.746
278.746
278.746
278.746
278.746
278.746
278.746
278.746
278.746
278.746
278.746
278.746
278.746
278.746
278.746
278.746
278.746
278.746
278.746
278.746
278.746
278.746
278.746
278.746
278.746
278.746
278.746
278.746
278.746
278.746
278.746
278.746
278.746
278.746
278.746
278.746
278.746
278.746
278.746
278.746
278.746
278.746
278.746
278.746
278.746
278.746
278.746
278.746
278.746
278.746
278.746
278.746
278.746
278.746
278.746
278.746
278.746
278.746
278.746
278.746
278.746
278.746
278.746
278.746
278.746
278.746
278.746
278.746
278.746
278.746
278.746
278.746
278.746
278.746
278.746
278.746
278.746
278.746
278.746
278.746
278.746
278.746
278.746
278.746
278.746
278.746
278.746
278.746
278.746
278.746
278.746
278.746
278.746
278.746
278.746
278.746
278.746
278.746
278.746
278.746
278.746
278.746
278.746
278.746
278.746
278.746
278.746
278.746
278.746
278.746
278.746
278.746
278.746
278.746
278.746
278.746
278.746
278.746
278.746
278.746
278.746
278.746
278.746
278.746
278.746
278.746
278.746
278.746
278.746
278.746
278.746
278.746
278.746
278.746
278.746
278.746
278.746
278.746
278.746
278.746
278.746
278.746
278.746
278.746
278.746
278.746
278.746
278.746
278.746
278.746
278.746
278.746
278.746
278.746
278.746
278.746
278.746
278.746
278.746
278.746
278.746
278.746
278.746
278.746
278.746
278.746
278.746
278.746
278.746
278.746
278.746
278.746
278.746
278.746
278.746
278.746
278.746
278.746
278.746
278.746
278.746
278.746
278.746
278.746
278.746
278.746
278.746
278.746
278.746
278.746
278.746
278.746
278.746
278.746
278.746
278.746
278.746
278.746
278.746
)
;

boundaryField
{
    sides
    {
        type            zeroGradient;
    }
    empty
    {
        type            empty;
    }
}


// ************************************************************************* //
