/*--------------------------------*- C++ -*----------------------------------*\
| =========                 |                                                 |
| \\      /  F ield         | OpenFOAM: The Open Source CFD Toolbox           |
|  \\    /   O peration     | Version:  4.0                                   |
|   \\  /    A nd           | Web:      www.OpenFOAM.org                      |
|    \\/     M anipulation  |                                                 |
\*---------------------------------------------------------------------------*/
FoamFile
{
    version     2.0;
    format      ascii;
    class       volVectorField;
    location    "0.005";
    object      U;
}
// * * * * * * * * * * * * * * * * * * * * * * * * * * * * * * * * * * * * * //

dimensions      [0 1 -1 0 0 0 0];

internalField   nonuniform List<vector> 
1000
(
(-8.02302e-13 0 0)
(-9.19e-13 0 0)
(-1.12322e-12 0 0)
(-1.13781e-12 0 0)
(-1.22533e-12 0 0)
(-1.25451e-12 0 0)
(-1.22533e-12 0 0)
(-1.13781e-12 0 0)
(-1.23992e-12 0 0)
(-1.12322e-12 0 0)
(-1.23992e-12 0 0)
(-1.00652e-12 0 0)
(-1.06487e-12 0 0)
(-6.41841e-13 0 0)
(-1.19616e-12 0 0)
(-8.60651e-13 0 0)
(-1.16698e-12 0 0)
(-1.00652e-12 0 0)
(-1.32744e-12 0 0)
(-1.32744e-12 0 0)
(-1.22533e-12 0 0)
(-1.38579e-12 0 0)
(-1.2691e-12 0 0)
(-1.00652e-12 0 0)
(-1.16698e-12 0 0)
(-1.10863e-12 0 0)
(-1.07946e-12 0 0)
(-1.21075e-12 0 0)
(-1.6046e-12 0 0)
(-1.45873e-12 0 0)
(-1.80883e-12 0 0)
(-1.59002e-12 0 0)
(-1.56084e-12 0 0)
(-1.57543e-12 0 0)
(-1.35662e-12 0 0)
(-1.73589e-12 0 0)
(-1.18157e-12 0 0)
(-1.50249e-12 0 0)
(-9.77349e-13 0 0)
(-1.38579e-12 0 0)
(-9.04413e-13 0 0)
(-1.23992e-12 0 0)
(-9.77349e-13 0 0)
(-1.19616e-12 0 0)
(-6.41841e-13 0 0)
(-1.02111e-12 0 0)
(-7.73127e-13 0 0)
(-6.85603e-13 0 0)
(-4.66794e-13 0 0)
(-6.27254e-13 0 0)
(-4.66794e-13 0 0)
(-7.29365e-13 0 0)
(-7.0019e-13 0 0)
(-1.10863e-12 0 0)
(-9.04413e-13 0 0)
(-1.56084e-12 0 0)
(-1.28368e-12 0 0)
(-1.59002e-12 0 0)
(-1.57543e-12 0 0)
(-1.61919e-12 0 0)
(-1.70671e-12 0 0)
(-1.77965e-12 0 0)
(-1.92552e-12 0 0)
(-1.75048e-12 0 0)
(-1.86717e-12 0 0)
(-1.94011e-12 0 0)
(-1.54625e-12 0 0)
(-1.80883e-12 0 0)
(-1.54625e-12 0 0)
(-1.64836e-12 0 0)
(-1.50249e-12 0 0)
(-1.7213e-12 0 0)
(-1.19616e-12 0 0)
(-1.59002e-12 0 0)
(-1.41497e-12 0 0)
(-1.32744e-12 0 0)
(-1.35662e-12 0 0)
(-1.10863e-12 0 0)
(-1.2691e-12 0 0)
(-1.09405e-12 0 0)
(-1.40038e-12 0 0)
(-8.46063e-13 0 0)
(-8.89825e-13 0 0)
(-7.29365e-13 0 0)
(-8.46063e-13 0 0)
(-1.22533e-12 0 0)
(-1.00652e-12 0 0)
(-1.41497e-12 0 0)
(-9.48175e-13 0 0)
(-1.31286e-12 0 0)
(-8.46063e-13 0 0)
(-1.32744e-12 0 0)
(-9.33587e-13 0 0)
(-1.19616e-12 0 0)
(-1.09405e-12 0 0)
(-1.34203e-12 0 0)
(-1.51708e-12 0 0)
(-1.42956e-12 0 0)
(-1.54625e-12 0 0)
(-1.69213e-12 0 0)
(-1.88176e-12 0 0)
(-2.12975e-12 0 0)
(-1.99846e-12 0 0)
(-2.24644e-12 0 0)
(-1.80883e-12 0 0)
(-2.14433e-12 0 0)
(-1.79424e-12 0 0)
(-1.94011e-12 0 0)
(-1.75048e-12 0 0)
(-1.67754e-12 0 0)
(-1.70671e-12 0 0)
(-1.45873e-12 0 0)
(-1.42956e-12 0 0)
(-1.47332e-12 0 0)
(-1.21075e-12 0 0)
(-1.38579e-12 0 0)
(-9.91936e-13 0 0)
(-1.19616e-12 0 0)
(-8.75238e-13 0 0)
(-1.2691e-12 0 0)
(-9.33587e-13 0 0)
(-1.31286e-12 0 0)
(-1.00652e-12 0 0)
(-1.51708e-12 0 0)
(-1.13781e-12 0 0)
(-1.66295e-12 0 0)
(-1.4879e-12 0 0)
(-1.53167e-12 0 0)
(-1.54625e-12 0 0)
(-1.66295e-12 0 0)
(-1.63378e-12 0 0)
(-1.75048e-12 0 0)
(-1.79424e-12 0 0)
(-1.96929e-12 0 0)
(-1.76506e-12 0 0)
(-2.02763e-12 0 0)
(-1.61919e-12 0 0)
(-2.14433e-12 0 0)
(-1.76506e-12 0 0)
(-2.01305e-12 0 0)
(-1.92552e-12 0 0)
(-1.91094e-12 0 0)
(-2.01305e-12 0 0)
(-1.51708e-12 0 0)
(-1.64836e-12 0 0)
(-1.32744e-12 0 0)
(-1.34203e-12 0 0)
(-1.4879e-12 0 0)
(-1.16698e-12 0 0)
(-1.21075e-12 0 0)
(-1.1524e-12 0 0)
(-1.44414e-12 0 0)
(-1.35662e-12 0 0)
(-1.80883e-12 0 0)
(-1.44414e-12 0 0)
(-1.79424e-12 0 0)
(-1.42956e-12 0 0)
(-1.838e-12 0 0)
(-1.4879e-12 0 0)
(-1.57543e-12 0 0)
(-1.7213e-12 0 0)
(-1.67754e-12 0 0)
(-1.77965e-12 0 0)
(-1.4879e-12 0 0)
(-1.57543e-12 0 0)
(-1.40038e-12 0 0)
(-1.4879e-12 0 0)
(-1.67754e-12 0 0)
(-1.64836e-12 0 0)
(-1.77965e-12 0 0)
(-1.56084e-12 0 0)
(-1.59002e-12 0 0)
(-1.54625e-12 0 0)
(-1.37121e-12 0 0)
(-1.76506e-12 0 0)
(-1.53167e-12 0 0)
(-1.70671e-12 0 0)
(-1.40038e-12 0 0)
(-1.51708e-12 0 0)
(-1.19616e-12 0 0)
(-1.13781e-12 0 0)
(-1.07946e-12 0 0)
(-6.12667e-13 0 0)
(-8.02302e-13 0 0)
(-2.47984e-13 0 0)
(-4.08444e-13 0 0)
(2.91746e-14 0 0)
(5.83492e-14 0 0)
(1.75048e-13 0 0)
(1.31286e-13 0 0)
(1.89635e-13 0 0)
(1.45873e-14 0 0)
(-4.37619e-14 0 0)
(-2.91746e-14 0 0)
(-1.16698e-13 0 0)
(-3.35508e-13 0 0)
(-4.08444e-13 0 0)
(-8.46063e-13 0 0)
(-1.12322e-12 0 0)
(-1.25451e-12 0 0)
(-1.23992e-12 0 0)
(-1.73589e-12 0 0)
(-1.838e-12 0 0)
(-1.94011e-12 0 0)
(-1.99846e-12 0 0)
(-2.01305e-12 0 0)
(-2.14433e-12 0 0)
(-1.79424e-12 0 0)
(-1.96929e-12 0 0)
(-1.57543e-12 0 0)
(-1.73589e-12 0 0)
(-1.25451e-12 0 0)
(-1.45873e-12 0 0)
(-1.16698e-12 0 0)
(-1.12322e-12 0 0)
(-8.75238e-13 0 0)
(-9.91936e-13 0 0)
(-5.10556e-13 0 0)
(-6.56429e-13 0 0)
(-2.77159e-13 0 0)
(-3.93857e-13 0 0)
(-3.64683e-13 0 0)
(-4.66794e-13 0 0)
(-4.37619e-13 0 0)
(-6.41841e-13 0 0)
(-6.12667e-13 0 0)
(-1.06487e-12 0 0)
(-1.07946e-12 0 0)
(-1.23992e-12 0 0)
(-9.33587e-13 0 0)
(-1.29827e-12 0 0)
(-9.04413e-13 0 0)
(-9.33587e-13 0 0)
(-1.45873e-13 0 0)
(3.64683e-13 0 0)
(2.05681e-12 0 0)
(4.2449e-12 0 0)
(8.8399e-12 0 0)
(1.67316e-11 0 0)
(3.17274e-11 0 0)
(5.81012e-11 0 0)
(1.05977e-10 0 0)
(1.90992e-10 0 0)
(3.42043e-10 0 0)
(6.08407e-10 0 0)
(1.0764e-09 0 0)
(1.89356e-09 0 0)
(3.31229e-09 0 0)
(5.76268e-09 0 0)
(9.971e-09 0 0)
(1.7157e-08 0 0)
(2.93599e-08 0 0)
(4.99617e-08 0 0)
(8.45435e-08 0 0)
(1.42251e-07 0 0)
(2.3798e-07 0 0)
(3.9583e-07 0 0)
(6.54537e-07 0 0)
(1.07595e-06 0 0)
(1.75812e-06 0 0)
(2.8555e-06 0 0)
(4.60957e-06 0 0)
(7.39526e-06 0 0)
(1.17905e-05 0 0)
(1.86795e-05 0 0)
(2.94048e-05 0 0)
(4.59899e-05 0 0)
(7.14598e-05 0 0)
(0.000110302 0 0)
(0.000169119 0 0)
(0.000257544 0 0)
(0.000389515 0 0)
(0.000585025 0 0)
(0.000872494 0 0)
(0.00129196 0 0)
(0.0018993 0 0)
(0.00277176 0 0)
(0.00401505 0 0)
(0.00577242 0 0)
(0.00823594 0 0)
(0.0116603 0 0)
(0.0163798 0 0)
(0.0228274 0 0)
(0.0315584 0 0)
(0.0432747 0 0)
(0.0588534 0 0)
(0.0793753 0 0)
(0.106153 0 0)
(0.140759 0 0)
(0.185047 0 0)
(0.241167 0 0)
(0.311574 0 0)
(0.399017 0 0)
(0.506523 0 0)
(0.637356 0 0)
(0.794967 0 0)
(0.982919 0 0)
(1.20481 0 0)
(1.46418 0 0)
(1.7644 0 0)
(2.10861 0 0)
(2.49958 0 0)
(2.93967 0 0)
(3.43077 0 0)
(3.97424 0 0)
(4.57089 0 0)
(5.22101 0 0)
(5.92436 0 0)
(6.68024 0 0)
(7.4875 0 0)
(8.34465 0 0)
(9.24987 0 0)
(10.2011 0 0)
(11.1962 0 0)
(12.2328 0 0)
(13.3086 0 0)
(14.4212 0 0)
(15.5683 0 0)
(16.7475 0 0)
(17.9568 0 0)
(19.194 0 0)
(20.4571 0 0)
(21.7443 0 0)
(23.0539 0 0)
(24.3842 0 0)
(25.7338 0 0)
(27.1013 0 0)
(28.4854 0 0)
(29.8849 0 0)
(31.2988 0 0)
(32.7261 0 0)
(34.1659 0 0)
(35.6173 0 0)
(37.0797 0 0)
(38.5524 0 0)
(40.0346 0 0)
(41.5258 0 0)
(43.0255 0 0)
(44.5332 0 0)
(46.0484 0 0)
(47.5707 0 0)
(49.0997 0 0)
(50.635 0 0)
(52.1763 0 0)
(53.7232 0 0)
(55.2755 0 0)
(56.8329 0 0)
(58.395 0 0)
(59.9617 0 0)
(61.5327 0 0)
(63.1078 0 0)
(64.6867 0 0)
(66.2694 0 0)
(67.8554 0 0)
(69.4448 0 0)
(71.0373 0 0)
(72.6328 0 0)
(74.231 0 0)
(75.8319 0 0)
(77.4354 0 0)
(79.0412 0 0)
(80.6493 0 0)
(82.2595 0 0)
(83.8718 0 0)
(85.486 0 0)
(87.102 0 0)
(88.7198 0 0)
(90.3392 0 0)
(91.9602 0 0)
(93.5826 0 0)
(95.2064 0 0)
(96.8316 0 0)
(98.458 0 0)
(100.086 0 0)
(101.714 0 0)
(103.344 0 0)
(104.975 0 0)
(106.607 0 0)
(108.239 0 0)
(109.873 0 0)
(111.507 0 0)
(113.142 0 0)
(114.778 0 0)
(116.414 0 0)
(118.051 0 0)
(119.689 0 0)
(121.327 0 0)
(122.965 0 0)
(124.605 0 0)
(126.244 0 0)
(127.884 0 0)
(129.524 0 0)
(131.165 0 0)
(132.806 0 0)
(134.447 0 0)
(136.088 0 0)
(137.73 0 0)
(139.372 0 0)
(141.014 0 0)
(142.656 0 0)
(144.298 0 0)
(145.94 0 0)
(147.582 0 0)
(149.224 0 0)
(150.867 0 0)
(152.509 0 0)
(154.151 0 0)
(155.793 0 0)
(157.435 0 0)
(159.076 0 0)
(160.718 0 0)
(162.359 0 0)
(164 0 0)
(165.641 0 0)
(167.282 0 0)
(168.922 0 0)
(170.562 0 0)
(172.201 0 0)
(173.84 0 0)
(175.478 0 0)
(177.117 0 0)
(178.754 0 0)
(180.391 0 0)
(182.028 0 0)
(183.663 0 0)
(185.299 0 0)
(186.933 0 0)
(188.567 0 0)
(190.2 0 0)
(191.832 0 0)
(193.463 0 0)
(195.093 0 0)
(196.722 0 0)
(198.351 0 0)
(199.978 0 0)
(201.604 0 0)
(203.228 0 0)
(204.852 0 0)
(206.474 0 0)
(208.094 0 0)
(209.713 0 0)
(211.33 0 0)
(212.946 0 0)
(214.56 0 0)
(216.172 0 0)
(217.782 0 0)
(219.389 0 0)
(220.995 0 0)
(222.598 0 0)
(224.198 0 0)
(225.796 0 0)
(227.391 0 0)
(228.982 0 0)
(230.571 0 0)
(232.156 0 0)
(233.737 0 0)
(235.315 0 0)
(236.888 0 0)
(238.456 0 0)
(240.02 0 0)
(241.579 0 0)
(243.132 0 0)
(244.68 0 0)
(246.221 0 0)
(247.756 0 0)
(249.283 0 0)
(250.803 0 0)
(252.314 0 0)
(253.817 0 0)
(255.31 0 0)
(256.792 0 0)
(258.264 0 0)
(259.724 0 0)
(261.171 0 0)
(262.605 0 0)
(264.023 0 0)
(265.426 0 0)
(266.811 0 0)
(268.178 0 0)
(269.526 0 0)
(270.851 0 0)
(272.154 0 0)
(273.432 0 0)
(274.684 0 0)
(275.908 0 0)
(277.101 0 0)
(278.262 0 0)
(279.389 0 0)
(280.479 0 0)
(281.53 0 0)
(282.54 0 0)
(283.508 0 0)
(284.431 0 0)
(285.306 0 0)
(286.134 0 0)
(286.911 0 0)
(287.637 0 0)
(288.311 0 0)
(288.933 0 0)
(289.502 0 0)
(290.019 0 0)
(290.484 0 0)
(290.9 0 0)
(291.268 0 0)
(291.591 0 0)
(291.871 0 0)
(292.111 0 0)
(292.314 0 0)
(292.485 0 0)
(292.627 0 0)
(292.744 0 0)
(292.838 0 0)
(292.913 0 0)
(292.973 0 0)
(293.02 0 0)
(293.056 0 0)
(293.084 0 0)
(293.106 0 0)
(293.122 0 0)
(293.135 0 0)
(293.145 0 0)
(293.153 0 0)
(293.159 0 0)
(293.165 0 0)
(293.169 0 0)
(293.173 0 0)
(293.176 0 0)
(293.179 0 0)
(293.181 0 0)
(293.183 0 0)
(293.185 0 0)
(293.187 0 0)
(293.188 0 0)
(293.189 0 0)
(293.19 0 0)
(293.191 0 0)
(293.191 0 0)
(293.192 0 0)
(293.192 0 0)
(293.192 0 0)
(293.193 0 0)
(293.193 0 0)
(293.193 0 0)
(293.193 0 0)
(293.193 0 0)
(293.193 0 0)
(293.193 0 0)
(293.193 0 0)
(293.193 0 0)
(293.193 0 0)
(293.193 0 0)
(293.193 0 0)
(293.193 0 0)
(293.193 0 0)
(293.193 0 0)
(293.193 0 0)
(293.193 0 0)
(293.193 0 0)
(293.193 0 0)
(293.193 0 0)
(293.193 0 0)
(293.193 0 0)
(293.193 0 0)
(293.193 0 0)
(293.193 0 0)
(293.193 0 0)
(293.193 0 0)
(293.193 0 0)
(293.193 0 0)
(293.193 0 0)
(293.193 0 0)
(293.193 0 0)
(293.193 0 0)
(293.193 0 0)
(293.194 0 0)
(293.194 0 0)
(293.194 0 0)
(293.194 0 0)
(293.194 0 0)
(293.194 0 0)
(293.194 0 0)
(293.194 0 0)
(293.194 0 0)
(293.194 0 0)
(293.194 0 0)
(293.194 0 0)
(293.194 0 0)
(293.194 0 0)
(293.194 0 0)
(293.194 0 0)
(293.194 0 0)
(293.194 0 0)
(293.194 0 0)
(293.194 0 0)
(293.194 0 0)
(293.194 0 0)
(293.194 0 0)
(293.194 0 0)
(293.194 0 0)
(293.194 0 0)
(293.194 0 0)
(293.194 0 0)
(293.194 0 0)
(293.194 0 0)
(293.194 0 0)
(293.194 0 0)
(293.194 0 0)
(293.194 0 0)
(293.194 0 0)
(293.194 0 0)
(293.194 0 0)
(293.194 0 0)
(293.194 0 0)
(293.194 0 0)
(293.194 0 0)
(293.194 0 0)
(293.194 0 0)
(293.194 0 0)
(293.195 0 0)
(293.195 0 0)
(293.195 0 0)
(293.195 0 0)
(293.195 0 0)
(293.195 0 0)
(293.194 0 0)
(293.194 0 0)
(293.193 0 0)
(293.192 0 0)
(293.192 0 0)
(293.192 0 0)
(293.193 0 0)
(293.194 0 0)
(293.192 0 0)
(293.191 0 0)
(293.189 0 0)
(293.187 0 0)
(293.185 0 0)
(293.181 0 0)
(293.176 0 0)
(293.171 0 0)
(293.166 0 0)
(293.161 0 0)
(293.156 0 0)
(293.153 0 0)
(293.151 0 0)
(293.15 0 0)
(293.151 0 0)
(293.154 0 0)
(293.158 0 0)
(293.162 0 0)
(293.167 0 0)
(293.171 0 0)
(293.175 0 0)
(293.178 0 0)
(293.181 0 0)
(293.184 0 0)
(293.185 0 0)
(293.187 0 0)
(293.187 0 0)
(293.188 0 0)
(293.188 0 0)
(293.188 0 0)
(293.188 0 0)
(293.188 0 0)
(293.187 0 0)
(293.187 0 0)
(293.187 0 0)
(293.187 0 0)
(293.186 0 0)
(293.186 0 0)
(293.186 0 0)
(293.186 0 0)
(293.186 0 0)
(293.186 0 0)
(293.186 0 0)
(293.186 0 0)
(293.186 0 0)
(293.186 0 0)
(293.186 0 0)
(293.186 0 0)
(293.186 0 0)
(293.185 0 0)
(293.185 0 0)
(293.184 0 0)
(293.184 0 0)
(293.184 0 0)
(293.183 0 0)
(293.183 0 0)
(293.182 0 0)
(293.182 0 0)
(293.182 0 0)
(293.183 0 0)
(293.183 0 0)
(293.183 0 0)
(293.183 0 0)
(293.183 0 0)
(293.183 0 0)
(293.183 0 0)
(293.182 0 0)
(293.182 0 0)
(293.181 0 0)
(293.181 0 0)
(293.18 0 0)
(293.179 0 0)
(293.179 0 0)
(293.178 0 0)
(293.178 0 0)
(293.178 0 0)
(293.178 0 0)
(293.178 0 0)
(293.178 0 0)
(293.178 0 0)
(293.178 0 0)
(293.178 0 0)
(293.178 0 0)
(293.178 0 0)
(293.177 0 0)
(293.177 0 0)
(293.176 0 0)
(293.175 0 0)
(293.174 0 0)
(293.173 0 0)
(293.172 0 0)
(293.172 0 0)
(293.171 0 0)
(293.171 0 0)
(293.171 0 0)
(293.171 0 0)
(293.171 0 0)
(293.172 0 0)
(293.172 0 0)
(293.172 0 0)
(293.172 0 0)
(293.171 0 0)
(293.17 0 0)
(293.169 0 0)
(293.168 0 0)
(293.167 0 0)
(293.166 0 0)
(293.164 0 0)
(293.163 0 0)
(293.163 0 0)
(293.162 0 0)
(293.162 0 0)
(293.161 0 0)
(293.161 0 0)
(293.161 0 0)
(293.162 0 0)
(293.162 0 0)
(293.163 0 0)
(293.163 0 0)
(293.163 0 0)
(293.162 0 0)
(293.16 0 0)
(293.158 0 0)
(293.155 0 0)
(293.152 0 0)
(293.148 0 0)
(293.144 0 0)
(293.142 0 0)
(293.142 0 0)
(293.142 0 0)
(293.135 0 0)
(293.122 0 0)
(293.097 0 0)
(293.06 0 0)
(292.989 0 0)
(292.916 0 0)
(292.714 0 0)
(292.513 0 0)
(291.816 0 0)
(290.665 0 0)
(287.822 0 0)
(281.098 0 0)
(266.033 0 0)
(232.054 0 0)
(172.024 0 0)
(98.265 0 0)
(41.2354 0 0)
(13.4839 0 0)
(3.7917 0 0)
(0.983704 0 0)
(0.24716 0 0)
(0.0615137 0 0)
(0.0152732 0 0)
(0.00379012 0 0)
(0.000940421 0 0)
(0.000233335 0 0)
(5.78942e-05 0 0)
(1.43644e-05 0 0)
(3.56404e-06 0 0)
(8.84295e-07 0 0)
(2.19408e-07 0 0)
(5.44391e-08 0 0)
(1.35081e-08 0 0)
(3.35214e-09 0 0)
(8.32644e-10 0 0)
(2.07155e-10 0 0)
(5.2281e-11 0 0)
(1.36975e-11 0 0)
(3.98234e-12 0 0)
(1.9547e-12 0 0)
(1.19616e-12 0 0)
(1.44414e-12 0 0)
(1.06487e-12 0 0)
(1.35662e-12 0 0)
(1.19616e-12 0 0)
(1.05029e-12 0 0)
(1.10864e-12 0 0)
(1.22533e-12 0 0)
(1.10864e-12 0 0)
(1.10864e-12 0 0)
(1.09405e-12 0 0)
(9.33589e-13 0 0)
(7.14779e-13 0 0)
(9.04414e-13 0 0)
(7.73128e-13 0 0)
(8.1689e-13 0 0)
(6.12667e-13 0 0)
(5.83493e-13 0 0)
(7.14779e-13 0 0)
(7.87715e-13 0 0)
(6.56429e-13 0 0)
(6.41842e-13 0 0)
(9.33589e-13 0 0)
(6.56429e-13 0 0)
(1.10864e-12 0 0)
(8.31477e-13 0 0)
(1.06487e-12 0 0)
(5.83493e-13 0 0)
(9.62763e-13 0 0)
(6.27255e-13 0 0)
(8.1689e-13 0 0)
(4.66794e-13 0 0)
(7.14779e-13 0 0)
(3.06334e-13 0 0)
(5.10556e-13 0 0)
(4.95969e-13 0 0)
(5.25144e-13 0 0)
(1.89635e-13 0 0)
(4.52207e-13 0 0)
(1.75048e-13 0 0)
(1.02111e-13 0 0)
(-1.45873e-13 0 0)
(-1.45873e-13 0 0)
(-1.89635e-13 0 0)
(-2.62572e-13 0 0)
(-4.66794e-13 0 0)
(-4.95969e-13 0 0)
(-3.50096e-13 0 0)
(-1.31286e-13 0 0)
(-1.45873e-13 0 0)
(-2.33397e-13 0 0)
(-1.89635e-13 0 0)
(-1.16699e-13 0 0)
(8.75239e-14 0 0)
(3.06334e-13 0 0)
(2.77159e-13 0 0)
(2.04222e-13 0 0)
(2.04222e-13 0 0)
(-4.3762e-14 0 0)
(-7.55579e-27 0 0)
(-1.02111e-13 0 0)
(-1.45873e-14 0 0)
(-4.08445e-13 0 0)
(-1.60461e-13 0 0)
(-4.66794e-13 0 0)
(-5.83493e-14 0 0)
(-2.04222e-13 0 0)
(4.3762e-14 0 0)
(-1.45873e-14 0 0)
(8.75239e-14 0 0)
(-1.45873e-13 0 0)
(1.29373e-28 0 0)
(-1.60461e-13 0 0)
(-4.08445e-13 0 0)
(-1.16699e-13 0 0)
(-1.89635e-13 0 0)
(-1.02111e-13 0 0)
(-2.47984e-13 0 0)
(-2.04222e-13 0 0)
(-3.93858e-13 0 0)
(-8.75239e-14 0 0)
(-4.3762e-14 0 0)
(7.29366e-14 0 0)
(4.98131e-27 0 0)
(3.20921e-13 0 0)
(-8.75239e-14 0 0)
(5.83493e-14 0 0)
(-2.62572e-13 0 0)
(-2.62572e-13 0 0)
(-3.93858e-13 0 0)
(-4.3762e-13 0 0)
(-3.06334e-13 0 0)
(-4.23032e-13 0 0)
(-2.1881e-13 0 0)
(-1.16699e-13 0 0)
(-1.16699e-13 0 0)
(-1.45873e-13 0 0)
(2.91746e-14 0 0)
(5.83493e-14 0 0)
(8.75239e-14 0 0)
(1.60461e-13 0 0)
(1.60461e-13 0 0)
(2.91746e-14 0 0)
(-4.3762e-14 0 0)
(-1.31286e-13 0 0)
(-8.75239e-14 0 0)
(-2.1881e-13 0 0)
(-2.04222e-13 0 0)
(-4.66794e-13 0 0)
(-4.66794e-13 0 0)
(-5.68906e-13 0 0)
(-3.20921e-13 0 0)
(-1.89635e-13 0 0)
(5.83493e-14 0 0)
(-1.31286e-13 0 0)
(-1.45873e-13 0 0)
(-3.20921e-13 0 0)
(8.75239e-14 0 0)
(8.5197e-29 0 0)
(-1.02111e-13 0 0)
(-8.75239e-14 0 0)
(-7.29366e-14 0 0)
(-2.91746e-14 0 0)
(1.02111e-13 0 0)
(2.91746e-14 0 0)
(3.64683e-13 0 0)
(3.06334e-13 0 0)
(3.35508e-13 0 0)
(3.20921e-13 0 0)
(3.64683e-13 0 0)
(2.62572e-13 0 0)
(2.62572e-13 0 0)
(1.45873e-13 0 0)
(4.08445e-13 0 0)
(1.60461e-13 0 0)
(2.62572e-13 0 0)
(1.45873e-13 0 0)
(2.91746e-14 0 0)
(5.83493e-14 0 0)
(-1.02111e-13 0 0)
(-8.75239e-14 0 0)
(-2.91746e-14 0 0)
(2.77159e-13 0 0)
(2.1881e-13 0 0)
(2.1881e-13 0 0)
(2.62572e-13 0 0)
(2.04222e-13 0 0)
(2.04222e-13 0 0)
(1.60461e-13 0 0)
(-4.3762e-14 0 0)
(1.45873e-14 0 0)
(-1.45873e-14 0 0)
(1.02111e-13 0 0)
(8.75239e-14 0 0)
(1.02111e-13 0 0)
(8.75239e-14 0 0)
(2.91746e-14 0 0)
(-7.29366e-14 0 0)
(2.47984e-13 0 0)
(3.06334e-13 0 0)
(2.77159e-13 0 0)
(1.89635e-13 0 0)
(4.66794e-13 0 0)
(4.08445e-13 0 0)
(6.41842e-13 0 0)
(6.56429e-13 0 0)
(8.02303e-13 0 0)
(8.75239e-13 0 0)
(9.48176e-13 0 0)
(8.1689e-13 0 0)
(1.2691e-12 0 0)
(8.89827e-13 0 0)
(1.02111e-12 0 0)
(8.75239e-13 0 0)
(8.75239e-13 0 0)
(7.73128e-13 0 0)
(7.87715e-13 0 0)
(6.56429e-13 0 0)
(6.27255e-13 0 0)
(8.46065e-13 0 0)
(5.25144e-13 0 0)
(8.75239e-13 0 0)
(4.95969e-13 0 0)
(5.68906e-13 0 0)
(3.20921e-13 0 0)
(5.10556e-13 0 0)
(3.93858e-13 0 0)
(4.52207e-13 0 0)
(4.66794e-13 0 0)
(3.64683e-13 0 0)
(3.35508e-13 0 0)
(3.06334e-13 0 0)
(2.47984e-13 0 0)
(1.60461e-13 0 0)
(1.45873e-13 0 0)
(1.60461e-13 0 0)
(5.39731e-13 0 0)
(2.33397e-13 0 0)
)
;

boundaryField
{
    sides
    {
        type            zeroGradient;
    }
    empty
    {
        type            empty;
    }
}


// ************************************************************************* //
