/*--------------------------------*- C++ -*----------------------------------*\
| =========                 |                                                 |
| \\      /  F ield         | OpenFOAM: The Open Source CFD Toolbox           |
|  \\    /   O peration     | Version:  4.0                                   |
|   \\  /    A nd           | Web:      www.OpenFOAM.org                      |
|    \\/     M anipulation  |                                                 |
\*---------------------------------------------------------------------------*/
FoamFile
{
    version     2.0;
    format      ascii;
    class       volScalarField;
    location    "50";
    object      p;
}
// * * * * * * * * * * * * * * * * * * * * * * * * * * * * * * * * * * * * * //

dimensions      [0 2 -2 0 0 0 0];

internalField   nonuniform List<scalar> 
918
(
0.561197
1.2007
0.00158035
0.560588
-0.0112943
1.1677
-0.497673
0.698424
0.541367
-0.0958451
-0.0284709
0.538727
1.02852
0.794296
-1.11892
-0.00124259
0.658797
-0.376942
0.540436
-0.0415781
0.727704
0.547932
0.55096
0.541543
0.608231
0.769877
0.909727
0.0201485
0.00706258
0.00356311
-0.0104016
-0.0364437
-0.0296451
1.05133
1.10243
1.12513
0.509396
0.338046
-0.364804
-0.433571
-0.426093
-0.541631
0.693321
0.692074
-0.191652
0.701199
0.705806
0.528476
0.540734
0.541641
0.542692
0.541658
0.543047
0.414439
-0.0989488
-0.131644
-0.0754562
-0.0669055
0.0686483
-0.0306094
-0.0325804
-0.0265156
-0.0265229
0.459215
0.533783
0.530822
0.543984
0.553284
1.14025
1.11217
1.1383
1.05204
1.06849
1.0065
0.979094
0.814888
0.837024
0.779988
0.765715
-1.554
-2.51099
-0.525995
-0.273808
-0.010344
0.00255565
0.00929752
0.653855
0.654002
0.660015
0.666197
1.08766
-0.375989
-0.474507
0.540571
0.539373
0.547729
0.548425
0.544442
0.543533
-0.0332305
-0.0306434
-0.0397089
-0.0402696
-0.0379818
0.716746
0.715426
0.542078
0.53909
0.560067
0.581128
0.573213
0.285731
0.611637
0.625483
0.599596
0.760628
0.755677
0.76411
0.883395
0.847305
0.946582
0.969809
0.0163725
0.000669111
-0.00907499
-0.0164676
-0.0147953
0.505273
0.497897
0.524739
0.512786
0.515262
0.253959
0.119401
0.423718
0.449016
-0.281339
-0.343375
-0.4231
-0.451382
-0.562377
0.614117
0.685009
0.68233
-0.205917
-0.132719
-0.263605
-0.0593983
-0.120622
0.518808
0.525769
0.520794
0.536277
0.53076
0.532716
0.544988
0.542066
0.543622
0.476884
0.600637
0.340877
0.306312
-0.237905
-0.149099
-0.238992
-0.0549671
-0.0506155
0.0823132
0.107554
0.0557149
0.0440223
-0.0435238
-0.0356264
-0.0393587
-0.0253145
-0.0266174
0.452101
0.441093
0.47179
0.479251
0.523153
0.524428
0.528085
0.526383
0.929855
0.952322
0.959803
0.933454
-3.50673
-6.29996
0.0530036
0.190389
-0.00571842
-0.00903124
0.0018515
-0.00384866
0.00126131
-0.00118368
0.00760456
0.00541826
0.00872377
0.0111701
0.646442
0.646713
1.00741
1.01068
0.986166
0.937796
0.528722
0.530814
0.536341
0.53221
-0.025456
-0.0277592
-0.0252406
0.707771
0.712982
0.711278
0.247935
0.159646
0.336027
0.364632
0.639366
0.628219
0.638035
0.661243
0.697635
0.97727
0.995474
0.993682
1.00196
1.04592
1.06226
1.02773
0.484983
0.494826
0.48985
0.527901
0.525639
0.526562
0.52221
0.523618
0.521489
-0.0319758
-0.414226
0.498386
0.516537
0.498637
0.503454
0.693483
0.770686
0.667491
0.676218
0.673692
0.00876514
-0.0492274
0.26239
0.229062
0.392506
0.428421
0.407641
0.901213
0.861234
0.911436
0.884748
0.845889
0.872277
-0.36596
-1.87258
-0.987933
0.542249
0.35561
0.443576
0.0258878
0.00858422
0.0139186
1.00402
1.07957
0.656535
0.828331
0.833299
0.732154
0.761287
0.821521
0.747134
0.782074
0.815864
0.793691
0.571003
0.511523
0.524869
0.83987
0.895774
0.130987
0.0719852
0.0277771
0.126118
0.182375
0.157014
1.04101
0.950668
1.02179
0.538843
0.539553
-0.000219739
-0.0104877
0.54375
0.543799
-0.0081336
0.00343935
0.425978
-0.827961
0.113564
0.532286
0.52234
0.539382
-0.0793753
0.367247
-0.0304691
0.0634535
0.00774766
0.536142
0.470125
0.42987
0.00637887
-0.0104899
-0.0358034
-0.207959
0.536515
0.534821
0.53885
0.53981
0.54048
-0.0115119
-0.00752466
-0.00579552
-0.0342796
-0.0299556
-0.0404438
0.503591
0.52198
-0.162103
0.53899
0.541116
0.540938
0.534164
0.539808
0.53805
-0.00210191
-0.00935171
-0.0110063
0.229992
0.358283
0.667736
0.756757
0.639093
0.413255
0.176406
0.569732
0.633463
0.538536
0.692901
0.681147
0.696311
0.178858
0.0290161
0.187703
0.129447
0.530144
0.528833
0.520598
0.517613
0.534245
0.532349
0.536915
0.533912
0.536863
0.538255
-0.0371657
-0.0607053
-0.0747241
-0.141076
0.322408
0.584017
0.264237
0.294888
0.15571
-0.0233469
-0.0244197
-0.029819
-0.0360323
0.0178877
-0.00708682
0.0586849
0.0593242
0.0315772
0.00461437
0.00982192
-0.00167332
0.00196487
0.529235
0.527629
0.534044
0.543217
0.479637
0.483388
0.448761
0.469207
0.454636
0.394289
0.429151
0.404464
0.00117211
0.0109868
0.00284836
-0.00623228
-0.00222561
-0.0206314
-0.0188009
-0.0153281
-0.0119012
-0.0184821
-0.0296756
-0.0280093
-0.167068
-0.282261
0.993714
0.920963
0.136094
0.525688
0.532122
0.528899
0.533764
0.536889
0.537713
0.535441
0.531996
0.522394
0.523997
0.520706
0.521465
-0.0944062
-0.234255
-0.0633308
-0.135196
0.148415
0.630658
0.370183
0.30718
0.302075
0.52891
0.932086
0.719903
0.697189
0.712493
-0.335783
0.0575153
-0.270247
0.347974
0.171803
0.667938
0.715852
0.735741
0.684953
0.6383
-0.101142
0.561017
-0.0597709
-0.0100013
0.189869
0.070621
0.695579
0.665477
0.669082
0.686122
0.703279
0.671579
0.655088
0.649667
0.682364
0.685973
0.499064
0.261265
0.213709
0.17489
0.649757
0.535383
0.589416
0.504569
0.52525
0.527918
0.526534
0.508372
0.515885
0.511465
0.517777
0.521175
0.529959
0.530382
0.525712
0.527866
-0.0414223
-0.0445135
-0.0192155
-0.128956
-0.119653
-0.181099
-0.0550923
0.0828476
0.0450148
0.241909
0.347591
0.0595517
-0.052338
-0.0245067
0.0140639
0.185985
0.211881
0.0866449
0.175428
0.163636
0.147097
0.248635
0.253526
-0.0105809
-0.0147487
-0.0175668
-0.019381
0.0345021
0.104512
0.114354
0.0123933
0.00671794
-0.0226044
-0.0216832
-0.00828965
-0.0124956
-0.00890891
0.025267
-0.0395194
-0.00722571
0.00846433
0.0148891
0.0116318
0.00667619
0.521599
0.523879
0.523528
0.530977
0.549247
0.565449
0.521939
0.501596
0.492491
0.495482
0.468754
0.47894
0.474622
0.488229
0.50925
0.518518
0.51593
0.518672
0.501392
0.503064
0.489675
0.493356
0.468546
0.449752
0.438009
-0.0304476
0.00720961
0.000579619
-0.0283701
0.000725126
-0.0118635
0.00444698
0.023131
0.00744613
0.00401664
-0.0057306
-0.0134303
-0.0122019
-0.0689686
0.0159647
-0.177373
-0.215005
-0.284871
0.895254
1.01882
0.817718
0.591156
0.608409
0.851062
0.93673
0.55364
0.742779
0.766841
0.589162
0.85464
0.530506
0.530115
0.527717
0.527193
0.528414
-0.00224107
0.101131
0.103363
0.163556
0.280289
0.393148
0.319228
0.194108
0.325542
0.328802
0.623054
0.635889
0.591436
0.615154
0.615634
0.433144
0.508884
0.561339
0.518289
0.569884
0.590764
0.546809
0.579
0.529216
0.48392
0.480164
0.430486
0.450385
0.427081
0.409581
0.520592
0.497881
0.508426
0.498757
0.518259
0.542479
0.53927
0.571735
0.582654
0.502378
0.458623
0.467952
0.498326
0.459017
0.473942
0.490141
0.234433
0.135293
0.21838
-0.0699351
0.00548226
-0.00874512
-0.0563275
-0.00765561
0.277543
-0.416724
-0.392566
-1.0226
0.504465
0.963921
0.644357
0.617621
0.700169
0.681951
0.686969
0.704468
0.708644
0.640262
0.656669
0.658802
0.621297
0.644855
0.665206
0.662354
0.530882
0.39563
0.391772
0.343174
0.213612
0.251609
0.451822
0.374206
0.299145
0.300278
0.466621
0.353848
0.422969
0.458987
0.390148
0.343943
0.547953
0.613053
0.604689
0.578882
0.495304
0.509068
0.533203
0.568517
0.594516
0.625773
0.517337
0.523193
0.524439
0.521934
0.519187
0.522183
0.522374
0.524909
0.525625
0.528589
0.527614
-0.0309447
-0.0190262
-0.0322605
-0.0402409
-0.00887003
-0.012872
0.0307268
0.0171981
0.0017852
0.00789894
-0.018455
-0.0226505
-0.0177923
-0.00859342
0.108859
0.121464
0.105269
0.0657715
0.25521
0.385843
0.45864
0.334842
0.227791
0.251493
0.272696
0.00118922
0.0289536
0.0161783
0.0544889
0.045654
-0.0170908
-0.0210014
-0.0191869
-0.0117248
-0.00279067
-0.0203457
-0.0228543
-0.0142241
-0.0185978
-0.0182289
-0.0223665
0.503816
0.497359
0.499022
0.492933
0.491661
0.505825
0.51004
0.511999
0.517406
0.51962
0.509861
0.515501
0.519229
0.00517365
-0.0194202
-0.0228071
-0.00987801
-0.0146712
-0.0139398
-0.0155466
0.125367
0.0538273
0.0583623
0.012414
-0.117183
-0.0596243
0.493118
0.493031
0.485961
0.722602
0.57233
0.492726
0.589995
0.69514
0.276685
0.475249
0.308877
0.891427
0.78621
0.932661
0.54527
0.246781
0.406483
0.45458
0.264424
0.337324
0.332662
0.220073
0.251907
0.287087
0.38843
0.268184
0.243995
0.00144678
0.190613
0.304768
0.286233
0.413038
0.475137
0.266387
0.18789
0.141876
0.610489
0.629107
0.644497
0.617476
0.638196
0.58105
0.569623
0.587958
0.597747
0.592695
-0.749948
-0.456502
-1.40232
-0.72047
-0.267592
0.535364
0.502164
0.772325
0.65415
0.705089
0.689701
0.647643
0.615267
0.63436
0.661418
0.35641
0.467707
0.442727
0.447786
0.349115
0.280516
0.581017
0.575438
0.610099
0.633618
0.60303
0.634097
0.515134
0.514813
0.514367
0.510658
0.508914
0.511218
0.0695169
0.0387346
0.0738524
0.0545547
0.0318465
0.0204068
0.00959774
-0.000367061
-0.00683724
-0.00801229
0.00619518
0.00999062
0.171077
0.110707
0.0311725
0.0609173
0.00108211
-0.0672996
-0.0849849
0.0166354
0.111478
0.102144
0.407395
0.658693
0.478639
0.645944
0.487328
0.543138
0.475259
0.467192
0.493714
0.383291
0.462907
0.242683
-0.264513
-0.172991
0.79133
0.805833
0.588084
0.407871
0.176305
0.359154
0.552012
0.484796
0.521893
0.591027
0.580198
0.0237004
0.0856427
0.360496
0.587845
0.240985
0.232085
0.226214
0.405848
0.326651
)
;

boundaryField
{
    wall-4
    {
        type            zeroGradient;
    }
    velocity-inlet-5
    {
        type            zeroGradient;
    }
    velocity-inlet-6
    {
        type            zeroGradient;
    }
    pressure-outlet-7
    {
        type            fixedValue;
        value           uniform 0;
    }
    wall-8
    {
        type            zeroGradient;
    }
    frontAndBackPlanes
    {
        type            empty;
    }
}


// ************************************************************************* //
