/*--------------------------------*- C++ -*----------------------------------*\
| =========                 |                                                 |
| \\      /  F ield         | OpenFOAM: The Open Source CFD Toolbox           |
|  \\    /   O peration     | Version:  4.0                                   |
|   \\  /    A nd           | Web:      www.OpenFOAM.org                      |
|    \\/     M anipulation  |                                                 |
\*---------------------------------------------------------------------------*/
FoamFile
{
    version     2.0;
    format      ascii;
    class       surfaceScalarField;
    location    "50";
    object      phi;
}
// * * * * * * * * * * * * * * * * * * * * * * * * * * * * * * * * * * * * * //

dimensions      [0 3 -1 0 0 0 0];

internalField   nonuniform List<scalar> 
1300
(
3.75095
5.62643
-3.27463
3.75095
-7.77182
5.62643
-4.34078
4.34078
-0.655239
0.655239
1.8764
1.87456
-2.81211
2.81211
-2.28848
2.28848
-2.54294
2.54294
-5.2464
5.2464
-5.06824
5.06824
4.66048
-4.66048
-6.30104
6.30104
-1.02081
1.02081
-3.71522
3.71522
3.16968
-3.16968
-2.16698
2.16698
-0.109879
0.109879
-0.553494
4.30445
3.19746
3.19746
-2.00334
2.00334
-4.86702
4.86702
6.21802
-6.21802
5.26996
-5.26996
-1.99534
-2.41884
1.82278
-11.5675
-5.94904
-5.94904
-8.44039
8.44039
-2.81396
2.81247
2.94517
-2.94517
-1.78158
1.78158
-4.29345
-0.0473261
-4.29345
4.3219
0.0188854
4.3219
-0.729931
0.0746919
-0.729931
3.93828
-3.93828
0.546055
0.109184
0.546055
3.06514
-3.06514
-1.8771
3.7535
1.87385
-1.87188
6.17633
-1.87907
3.75363
-5.99966
5.99966
-3.03217
0.220063
-3.03217
2.62735
0.184757
2.62735
-6.82072
6.82072
-2.31989
0.0314103
-2.31989
2.25374
0.0347374
2.25374
2.87606
-2.87606
-2.65025
0.10731
-2.65025
2.42695
0.11599
2.42695
0.353537
5.27289
-5.97997
8.79243
-5.27289
0.0264893
5.20837
0.0380323
5.20837
-5.1058
0.0375675
-5.1058
5.01284
0.0553958
5.01284
4.74904
-0.0885642
4.74904
-4.77644
0.115962
-4.77644
-3.39104
-4.03835
-6.44711
0.146065
-6.44711
-1.08145
0.0606368
-1.08145
0.94461
0.0762036
0.94461
-3.66406
3.66406
-4.10631
0.391094
-4.10631
3.1241
0.0455869
3.1241
1.8685
1.88245
5.61945
-5.61945
2.44977
-2.16305
-0.003935
-2.16305
-2.20486
-3.06511
2.20486
-0.0378721
-0.339295
0.229417
-0.339295
3.15937
0.0380917
3.15937
2.26418
0.162769
-2.26418
0.260849
3.25713
-3.25713
1.34134
0.661991
1.34134
-5.56593
5.56593
4.95503
0.0578126
-4.95503
0.0880101
6.15616
0.0618566
6.15616
-6.19952
-0.0185021
-6.19952
2.55736
-4.97619
-2.57997
6.12399
0.177051
-6.12399
0.174949
2.9164
0.0287671
2.9164
-2.92009
2.92009
-2.98404
0.0388697
-2.98404
-2.18077
0.399195
-2.18077
1.48236
0.29922
1.48236
-4.19144
-0.102019
-4.19144
-4.22749
0.121178
4.22749
0.0944069
1.11898
-1.11898
-0.825639
0.0957077
-0.825639
-4.05824
-0.133198
4.05824
-0.119956
-3.83219
-0.106092
-3.83219
-3.02411
0.0400791
3.02411
0.0410266
3.11276
0.0466033
-3.11276
0.0476225
-1.87083
3.75328
-1.88013
3.75398
-5.61942
-0.38024
-5.61942
6.30835
-0.308695
6.30835
3.39118
0.324037
-3.39118
0.359004
2.48578
0.141577
2.48578
-6.78396
-0.0367591
-6.78396
6.80582
0.0148957
6.80582
2.3847
0.101083
-2.3847
0.0648075
2.21876
0.0349765
2.21876
2.89426
-0.0181989
2.89426
-2.87161
-0.00445316
-2.87161
2.79735
-2.79735
2.72791
0.0694382
-2.72791
0.0776608
-11.133
11.1145
-0.0351276
-11.0978
5.17324
5.17324
4.17804
0.570995
4.17804
-4.99283
0.216391
-4.99283
2.7015
-5.28147
3.04712
-6.43816
4.66896
-16.2364
4.32377
-8.36212
6.67802
-6.67802
6.57095
0.107072
-6.57095
0.123844
-1.17926
0.0978116
-1.17926
-3.05869
-0.605367
-3.05869
4.31049
-0.646427
4.31049
-3.02849
3.02849
-3.07768
0.0491844
3.07768
0.0464192
2.19445
0.0243097
-2.19445
0.0314053
0.442401
0.103654
-0.442401
0.103106
3.46178
-0.204646
3.46178
-3.06447
-0.192669
-3.06447
-1.26535
0.0860922
1.26535
0.0759909
-5.81486
0.248934
-5.81486
-11.1908
0.0929754
-11.1528
-6.10654
-6.10654
2.33385
11.1263
-2.89083
0.0192219
2.89083
0.0255692
2.97546
0.0530338
-2.97546
0.0553717
-2.86136
0.0640074
2.86136
0.0587288
-2.55597
0.375202
-2.55597
-1.07627
1.07627
-1.24614
0.169867
1.24614
0.236217
1.38397
-0.264994
1.38397
0.88688
0.0577295
-0.88688
0.0612416
-3.73957
-0.0926236
-3.73957
6.53944
-0.231084
6.53944
-2.9536
-0.110867
2.9536
-0.0593394
-0.033354
11.1478
-5.13989
0.0340864
5.13989
-11.2097
11.2438
-3.22736
0.671386
3.22736
0.950684
5.28567
0.280254
-5.28567
0.292843
6.75879
0.0470368
-6.75879
0.0807655
-2.56647
-0.492225
-2.56647
-5.03737
-0.582051
5.03737
-0.726882
-11.475
-0.202991
11.678
-11.4196
6.01785
0.13831
-6.01785
11.3821
-1.02705
-0.091927
1.02705
0.0492225
1.7082
-0.324222
1.7082
3.64772
-0.185935
-3.64772
-0.0918511
-6.69022
-0.0937382
6.69022
-0.150783
-2.1233
-0.443166
2.1233
-0.415107
-4.26706
4.30515
1.90926
-2.42507
-2.55112
-5.49018
1.8519
1.90138
4.30167
-10.1799
-6.05646
-10.005
7.26299
-6.97015
-9.25543
9.16687
7.80928
-7.91537
-5.7851
5.83152
6.48254
-6.44151
1.87874
1.87476
7.94586
-7.72579
-15.6447
15.2645
7.48844
-7.45703
15.7766
-15.8134
-17.855
17.902
-5.7013
5.80861
-6.73367
6.72922
-6.96301
6.90367
-2.86888
-3.56928
13.138
-12.9919
8.53679
-8.54072
-8.56488
8.95597
3.38253
0.922626
3.42913
-1.88223
3.76097
-1.8714
3.78066
2.67832
-5.5472
2.60315
-5.15427
4.30219
4.2346
-4.26432
-1.22586
-5.92268
5.95145
-5.81723
5.87596
9.04791
-9.09523
-1.88513
3.75988
-1.86885
3.77024
-3.42505
-2.36005
3.37947
0.9222
8.09671
5.04128
-8.27376
-1.73123
-7.9934
7.80746
-8.20555
8.01288
-0.43564
5.81852
-5.38288
4.43138
-1.56044
7.37896
5.70255
5.91894
5.86643
-5.58617
1.10372
-6.4866
-6.39859
-2.38585
2.48156
2.29967
-2.19049
6.07654
1.73274
5.95659
-5.71306
-2.20232
-5.80568
3.82088
2.01064
3.87007
4.07774
2.4048
4.11782
3.03064
-3.0358
0.00516017
-3.05647
6.08711
0.724085
-5.41652
-4.49432
4.95938
2.98647
5.14414
-5.5062
-2.21959
-5.1472
-9.55807
-6.08666
-10.1401
10.1013
5.16318
9.7926
-11.9712
11.8204
4.78699
2.70145
4.82173
-4.91894
-2.53809
-4.85414
11.6261
-2.60347
-9.02259
-10.3223
-7.53269
10.3074
5.46923
10.9685
6.93351
11.0492
4.41999
7.20608
-9.88921
2.35652
-3.86232
-1.83899
-3.78466
3.67117
2.13744
3.78716
-4.21538
-2.51828
-4.19616
-4.2918
-2.67121
4.31
2.41921
-4.40936
-3.79618
4.52023
2.38344
4.02593
-10.0824
4.33619
-7.90547
-9.20611
-3.78582
-9.08227
3.47049
2.62686
-6.09736
-2.0767
8.45683
-4.22224
7.23097
-5.1795
-3.36122
-5.1481
-6.81908
-1.7458
-6.6979
-8.89828
8.40605
-9.19523
8.5488
12.5896
-5.67962
-6.90997
-3.9683
-2.47321
3.92068
-0.49155
-3.71073
3.71589
0.050235
3.8309
4.75353
4.26197
-3.88561
-1.93163
-3.83023
3.82811
2.04785
3.89212
6.78384
2.26407
6.80273
-6.54505
-2.55018
-6.64707
9.06023
-8.66104
2.87719
-2.7911
5.36954
2.64334
-5.16489
-2.82851
6.20845
-3.20741
-3.00104
-12.2009
10.5412
1.65975
-4.82196
-0.390585
-0.280706
-5.49252
-3.76291
5.37656
0.542384
11.0836
7.32065
-5.51275
5.76169
6.16527
6.22308
-0.175514
5.8218
-5.15041
5.2899
-2.53621
-2.75369
5.4174
-5.55059
-1.22967
-5.46346
4.23378
0.405994
1.60901
-1.37959
-1.85626
-0.529594
-1.79501
1.37627
0.923403
1.47993
0.924503
1.55705
-2.93645
0.558745
2.3777
-2.01195
-1.63175
-3.73482
-1.12316
4.85797
5.69276
2.1147
-5.60091
-0.204768
2.60547
-2.52927
-0.741547
-2.99327
2.21175
-2.9533
-3.66093
-1.99453
5.65547
-3.37022
-0.460016
3.31718
0.552883
-3.82653
-2.09615
3.78766
0.330151
-3.12662
6.19052
-3.0639
-5.05825
2.52807
3.55904
4.53871
-4.78962
2.44704
2.34258
-1.23059
4.23921
0.904929
4.38079
-6.84577
4.62618
5.77255
3.18342
-6.09659
0.949389
-5.89638
8.50984
-7.3271
-1.18274
4.1227
4.38714
7.10659
5.483
-5.69723
12.8038
-1.17049
-6.15661
7.06687
-3.88345
4.8126
-8.69605
-10.2956
4.13899
-9.17651
10.944
-1.76748
-3.62307
-8.34814
12.7996
-1.21338
-11.5862
8.57922
-4.21601
-4.29703
8.51305
-6.81948
6.83512
-1.97944
-4.85568
-10.113
-5.70037
10.2067
1.61371
-9.86291
12.2194
-2.65684
4.10157
0.72016
4.13655
3.26978
-5.43505
2.16526
3.5497
-5.52914
2.08193
-7.51697
-6.71832
12.0509
-5.33263
-10.5041
-9.51103
-0.993114
2.53648
9.68296
-9.46999
7.43698
2.03302
3.30507
0.587041
-3.37451
-0.410145
0.234863
4.53697
-4.77183
4.02202
4.18479
3.31303
1.22394
3.84343
2.10802
-3.869
-0.327161
-4.15939
1.48818
-1.74018
-3.6862
5.17438
-4.06546
0.379261
-2.74298
-3.50218
6.24515
-4.58196
3.03736
3.15316
5.08521
-4.91184
1.40966
-2.39523
-2.51661
2.6558
-4.39597
1.98349
3.19089
4.36693
0.57075
5.84811
6.20284
-8.47497
0.5695
11.2441
-9.51289
2.46014
8.5891
-9.89712
0.386095
-8.69617
1.00619
-5.22842
-5.09117
5.14088
-6.88668
-3.55517
6.17249
0.630234
-6.2669
-0.431003
-6.04668
-2.85159
-6.48985
-3.05072
-6.14451
-8.74795
-1.65618
-7.09177
6.74987
-6.69322
-3.4469
7.4201
1.1287
-7.4203
7.32837
-7.50044
7.17622
0.095134
3.62076
4.35711
1.8839
-2.39017
4.27407
-5.11301
7.37708
-8.69495
3.58194
4.16519
-6.71538
-4.52976
5.0342
4.02604
5.33342
8.91642
-10.3975
1.48106
-10.7018
12.0373
-1.33557
-16.4758
5.77404
-7.55937
2.51569
0.361505
2.6135
0.573183
2.49815
-3.07133
-2.21792
-2.14192
-2.40955
-3.46152
5.87107
1.12553
-3.49389
2.36836
-3.56351
4.68904
-0.161572
-3.33232
5.2926
-2.79446
5.65411
-3.72508
1.92903
3.41399
5.74187
-2.32789
4.38855
-1.7452
1.90148
-4.22936
-1.56004
-2.96318
5.10062
-3.28198
3.66124
-0.32879
3.99003
-4.08185
0.874439
-0.768818
3.41597
3.67682
4.29968
-3.07575
2.93072
-4.67592
-1.29865
-4.10517
-0.914282
-0.275377
-3.75013
4.0255
6.0153
-6.29068
-5.24367
9.54709
-4.30342
7.70771
-5.39056
-2.31715
-4.26397
-4.39707
3.88877
1.93303
9.64074
0.211366
-5.60193
-4.93905
-3.98836
3.14876
2.14114
-1.83863
3.49837
2.11933
-0.510327
0.48226
0.997665
1.80586
-1.3236
0.278818
1.52704
-1.10077
1.84929
0.756184
-1.90702
0.112005
-1.30578
3.51754
1.07192
-1.99532
0.671726
0.990982
-3.52719
4.98544
-2.64218
-2.34326
5.97642
1.13332
-3.7755
4.33014
-3.92415
2.35661
-3.47976
-1.41889
-5.34303
-3.61029
-2.53606
4.90442
-3.33501
5.44972
1.24349
-5.24495
6.48843
-3.68171
1.68718
-3.08122
3.8374
-1.00733
-2.07389
2.8693
2.78617
-3.01104
0.0177767
-0.141743
2.37854
-2.52029
-0.574758
-2.5867
-4.57276
4.90291
-2.10612
4.55316
2.16796
-1.91592
6.46908
1.80991
-3.72583
-3.24834
-3.70835
-1.38324
3.15547
-0.594718
-4.25942
-5.4504
4.15834
0.222451
-6.95725
7.77024
-0.81299
-3.97077
-0.655407
4.77811
-6.01331
0.484165
-3.93138
3.83885
4.74378
4.96623
-11.3815
-0.204704
-6.21831
1.1369
-7.35521
5.52404
-3.56723
7.70622
-10.3653
6.91839
-9.23659
6.52348
-0.831731
6.24453
-4.07927
2.77806
-8.47844
-6.86473
5.45034
-2.74889
6.1705
-3.10732
9.27782
-5.76416
5.23424
4.04358
-0.990717
-4.15738
-5.23771
4.247
-0.00347521
4.13307
4.97774
-2.86973
4.65058
2.26368
-4.65891
-2.1323
-6.49537
1.83646
-3.34221
-1.91864
3.7551
3.16658
3.75362
1.23849
-3.34347
7.15529
-8.1484
-1.82266
-3.26851
5.2244
-0.977402
3.36524
-6.63375
-1.86318
4.83982
-0.792235
-4.04758
0.839804
-4.39497
1.68228
-6.07725
5.2044
-5.6354
2.22033
-9.7797
-5.19996
-5.15074
-2.25858
-5.24186
-7.59556
5.33697
-1.82152
5.50685
-8.54676
7.75453
-3.49057
8.82754
-5.43906
-1.05079
5.85417
1.32205
10.1496
0.202588
-4.73235
-1.91124
3.91453
-2.00329
1.23751
-3.54754
0.36699
2.4735
3.50292
-6.70728
-0.00809316
-4.74044
-3.92383
7.94986
5.62326
11.6386
1.24108
9.13515
-1.18529
10.3762
4.14813
4.38435
-3.02981
4.51087
0.99569
4.57763
-0.899535
2.82856
1.71396
1.7746
0.75467
2.30792
1.3689
3.18236
0.111032
-2.03089
4.6277
-8.61606
-0.974227
-8.04507
1.1218
5.71638
-4.59458
3.03752
-0.896385
1.03424
-0.0137093
-1.4261
1.43981
-2.76739
-1.93642
-0.409385
-1.66056
2.33229
1.85697
-1.9229
-0.84449
0.359114
-3.96941
3.12065
-3.10287
-0.316707
6.17173
-2.79784
0.277551
-1.11066
-2.30915
-2.83875
2.72674
6.17641
0.29267
3.11251
5.19558
3.09943
0.229704
3.90703
-5.67452
-3.60994
-5.87922
-0.355181
4.42293
1.74048
7.94248
5.78406
4.80666
-1.82709
-9.97549
6.56796
-2.05709
5.23238
-1.1848
-4.89245
5.02681
2.35027
-5.65704
0.0216391
-4.87081
-6.9279
-0.518092
8.27262
-9.6315
8.58071
5.72912
1.36265
-4.41479
-0.73595
4.24493
0.139423
10.5157
-1.12662
-6.76787
7.89448
-4.58976
3.61553
0.78836
2.71001
2.22817
1.33178
-5.43609
-10.0307
-2.00009
-1.5271
-4.34336
0.514614
-2.37159
6.23737
-2.62184
3.92022
5.27264
6.30688
-2.14184
-4.14884
6.44526
-2.52504
3.78185
)
;

boundaryField
{
    wall-4
    {
        type            calculated;
        value           uniform 0;
    }
    velocity-inlet-5
    {
        type            calculated;
        value           uniform -3.75095;
    }
    velocity-inlet-6
    {
        type            calculated;
        value           uniform -5.62643;
    }
    pressure-outlet-7
    {
        type            calculated;
        value           nonuniform List<scalar> 8(3.27463 7.77182 4.41417 9.74467 7.42938 5.13733 5.74862 8.99273);
    }
    wall-8
    {
        type            calculated;
        value           uniform 0;
    }
    frontAndBackPlanes
    {
        type            empty;
        value           nonuniform 0();
    }
}


// ************************************************************************* //
