/*--------------------------------*- C++ -*----------------------------------*\
| =========                 |                                                 |
| \\      /  F ield         | OpenFOAM: The Open Source CFD Toolbox           |
|  \\    /   O peration     | Version:  4.0                                   |
|   \\  /    A nd           | Web:      www.OpenFOAM.org                      |
|    \\/     M anipulation  |                                                 |
\*---------------------------------------------------------------------------*/
FoamFile
{
    version     2.0;
    format      ascii;
    class       volScalarField;
    location    "67";
    object      p;
}
// * * * * * * * * * * * * * * * * * * * * * * * * * * * * * * * * * * * * * //

dimensions      [0 2 -2 0 0 0 0];

internalField   nonuniform List<scalar> 
8800
(
0.816283
0.768497
0.72981
0.700819
0.67996
0.665138
0.654555
0.647093
0.6423
0.640279
0.641587
0.645811
0.652481
0.661815
0.674608
0.692351
0.717134
0.751078
0.793632
0.852334
0.647526
0.655205
0.662685
0.665996
0.664496
0.659425
0.652949
0.646888
0.642189
0.639378
0.639139
0.641684
0.646203
0.652171
0.658956
0.665247
0.668894
0.668162
0.662748
0.654061
0.625921
0.632082
0.636211
0.63916
0.641216
0.64183
0.640737
0.638653
0.636666
0.635799
0.636806
0.639225
0.642052
0.644253
0.644875
0.643686
0.641352
0.637964
0.633408
0.629648
0.620098
0.622749
0.625504
0.627912
0.629554
0.630725
0.631482
0.631622
0.63136
0.631355
0.632156
0.633368
0.634238
0.634326
0.633733
0.632653
0.630846
0.628282
0.625883
0.624379
0.614698
0.616124
0.617906
0.619944
0.621736
0.623088
0.624095
0.624918
0.62557
0.626185
0.626892
0.627435
0.627569
0.627308
0.62663
0.625396
0.623711
0.621871
0.620567
0.619735
0.609598
0.610519
0.611764
0.613337
0.614978
0.616516
0.617821
0.618917
0.619924
0.620876
0.621631
0.622013
0.622012
0.621603
0.620746
0.619563
0.618249
0.616998
0.61618
0.615628
0.604662
0.605332
0.606298
0.607607
0.609026
0.610499
0.611961
0.613316
0.614564
0.61574
0.616637
0.617068
0.617033
0.616562
0.615783
0.614857
0.613861
0.612949
0.612368
0.611962
0.599842
0.600359
0.601146
0.602284
0.603573
0.604964
0.606435
0.607945
0.609428
0.610844
0.611939
0.612485
0.612519
0.612179
0.61161
0.61091
0.610157
0.609487
0.609058
0.60874
0.595066
0.595477
0.596137
0.597152
0.59837
0.599716
0.60119
0.602789
0.604474
0.606162
0.607512
0.60826
0.608494
0.608379
0.608037
0.607553
0.607007
0.606531
0.606213
0.605955
0.590247
0.590582
0.591153
0.592089
0.593261
0.594595
0.596107
0.597809
0.599689
0.601675
0.603355
0.604407
0.604927
0.605072
0.604966
0.60471
0.604362
0.604048
0.603815
0.603597
0.585295
0.585572
0.586082
0.586974
0.588129
0.58949
0.59108
0.592928
0.595044
0.597377
0.59947
0.600915
0.601777
0.60222
0.602373
0.602348
0.602198
0.602026
0.601862
0.601673
0.58012
0.580352
0.580824
0.581701
0.58288
0.584312
0.586022
0.588069
0.590488
0.593251
0.595851
0.597766
0.59903
0.599815
0.600259
0.600473
0.600525
0.600485
0.600376
0.600207
0.574628
0.574826
0.575278
0.576169
0.577414
0.57896
0.580846
0.583162
0.585965
0.589265
0.59248
0.594955
0.596689
0.597866
0.598636
0.599107
0.599376
0.599462
0.599401
0.599245
0.568717
0.568886
0.569336
0.570271
0.571622
0.573335
0.575464
0.578127
0.581417
0.58538
0.58934
0.592485
0.594772
0.596401
0.597544
0.598326
0.598812
0.599018
0.598998
0.59885
0.562265
0.56241
0.562873
0.563881
0.565385
0.567325
0.569773
0.57288
0.576781
0.581558
0.586419
0.590362
0.593308
0.595469
0.597039
0.598161
0.598894
0.599227
0.599243
0.5991
0.555133
0.555252
0.555743
0.556856
0.558564
0.5608
0.563658
0.567326
0.571987
0.577758
0.583705
0.588603
0.592326
0.595116
0.597189
0.598701
0.599714
0.600177
0.600227
0.600083
0.547128
0.547232
0.547766
0.549018
0.55099
0.5536
0.55698
0.561355
0.566955
0.573939
0.581194
0.587228
0.591867
0.595396
0.598074
0.600046
0.601368
0.601967
0.602049
0.6019
0.538033
0.538132
0.538722
0.540135
0.542438
0.545537
0.549578
0.554837
0.561599
0.570061
0.578884
0.586265
0.591988
0.596385
0.599778
0.602284
0.603958
0.604703
0.604813
0.604656
0.527524
0.527604
0.528283
0.529922
0.532662
0.536383
0.541257
0.547626
0.555827
0.56609
0.576787
0.585754
0.592748
0.598168
0.602374
0.605521
0.607588
0.608482
0.608616
0.608447
0.515222
0.515289
0.516068
0.518018
0.521316
0.525835
0.531777
0.539551
0.549542
0.561993
0.574917
0.585739
0.594206
0.600817
0.605977
0.609852
0.612347
0.61339
0.613541
0.613357
0.500565
0.50062
0.501542
0.503909
0.507947
0.513518
0.520849
0.530422
0.542652
0.557759
0.573308
0.586276
0.596427
0.604397
0.610658
0.615351
0.618297
0.619479
0.619637
0.619434
0.48278
0.482824
0.48396
0.486913
0.491964
0.498956
0.508138
0.520049
0.535091
0.553407
0.572016
0.587428
0.599478
0.608979
0.616448
0.622057
0.625453
0.626745
0.626895
0.626672
0.460693
0.460735
0.46222
0.466058
0.472569
0.481562
0.49328
0.508278
0.526861
0.549022
0.571142
0.589275
0.603415
0.614607
0.623393
0.62995
0.633752
0.635106
0.635228
0.634984
0.432542
0.432604
0.434683
0.439949
0.448734
0.460667
0.47596
0.495058
0.518063
0.54476
0.570826
0.591912
0.608287
0.621264
0.631461
0.638931
0.643034
0.644371
0.644444
0.644182
0.395266
0.395432
0.398731
0.406631
0.419249
0.435681
0.456073
0.480554
0.508966
0.540883
0.571258
0.595447
0.614136
0.628949
0.640558
0.648797
0.653019
0.654239
0.654241
0.653967
0.342997
0.343994
0.350558
0.363877
0.383161
0.406553
0.433979
0.465261
0.500043
0.537748
0.57265
0.599988
0.62098
0.637563
0.650473
0.659223
0.663311
0.664311
0.664236
0.663958
0.266734
0.274106
0.289293
0.312775
0.341986
0.374704
0.410725
0.449838
0.491675
0.535636
0.575365
0.606041
0.629489
0.64797
0.662078
0.671104
0.674902
0.67567
0.675546
0.675303
0.184805
0.202229
0.226833
0.261101
0.300639
0.34281
0.387475
0.434583
0.483838
0.534687
0.580076
0.614807
0.641165
0.661824
0.67723
0.686076
0.689181
0.689664
0.68957
0.689407
0.116501
0.137024
0.169401
0.212836
0.261479
0.312549
0.365597
0.420544
0.477064
0.534589
0.585344
0.623837
0.652821
0.675235
0.691149
0.699459
0.702069
0.702492
0.702457
0.70234
0.0605619
0.082751
0.120677
0.170586
0.226426
0.28499
0.345456
0.407602
0.470957
0.534844
0.590692
0.632697
0.664054
0.687889
0.704337
0.71251
0.714915
0.715301
0.715303
0.715214
0.0140255
0.0373933
0.079124
0.134172
0.195796
0.260553
0.327392
0.395942
0.465559
0.53541
0.596112
0.641474
0.675116
0.700463
0.717552
0.725711
0.728171
0.728531
0.728558
0.728493
-0.0253839
-0.00136417
0.0432487
0.102357
0.168848
0.238878
0.311257
0.385508
0.460851
0.53629
0.601628
0.650251
0.686148
0.71296
0.73083
0.739423
0.741906
0.742269
0.7423
0.742252
-0.0597071
-0.0352717
0.0116063
0.0740715
0.144676
0.219296
0.296599
0.376013
0.456647
0.537346
0.607125
0.658916
0.697044
0.725358
0.74416
0.753156
0.755818
0.756195
0.756228
0.756201
-0.0904555
-0.0656613
-0.0169399
0.0483882
0.122548
0.201202
0.28293
0.367063
0.452619
0.538317
0.612385
0.667276
0.707588
0.737392
0.757032
0.76655
0.769439
0.769851
0.769887
0.769872
-0.118614
-0.0935023
-0.0432074
0.0245982
0.101882
0.184116
0.269827
0.358296
0.448481
0.538973
0.617219
0.675134
0.717559
0.748794
0.769304
0.779268
0.782397
0.782905
0.782943
0.782916
-0.145
-0.119527
-0.0678156
0.00215265
0.0822268
0.16766
0.256983
0.349457
0.444002
0.539109
0.621457
0.682347
0.726827
0.759424
0.780697
0.791088
0.794389
0.79493
0.794927
0.794903
-0.170002
-0.144171
-0.0911601
-0.0193117
0.06326
0.151569
0.244173
0.340344
0.438995
0.538575
0.624993
0.688854
0.735344
0.769214
0.79111
0.801779
0.805212
0.805771
0.805739
0.8057
-0.19407
-0.16782
-0.113762
-0.0400371
0.0447544
0.135647
0.231233
0.330811
0.433334
0.537256
0.627753
0.694628
0.743111
0.778129
0.800519
0.811369
0.814832
0.815377
0.815313
0.815256
-0.21734
-0.190594
-0.135591
-0.0602093
0.026564
0.119775
0.218063
0.320779
0.426936
0.535066
0.629678
0.699678
0.750201
0.786307
0.809053
0.819892
0.823317
0.823836
0.823741
0.823666
-0.239965
-0.21279
-0.156748
-0.079936
0.00861582
0.103898
0.204616
0.310193
0.41974
0.531935
0.630712
0.704017
0.75672
0.793903
0.816838
0.827518
0.830806
0.831265
0.831142
0.831053
-0.262077
-0.234399
-0.177373
-0.0992625
-0.00913273
0.0879958
0.190887
0.299051
0.411727
0.52781
0.630799
0.707649
0.762782
0.801096
0.824075
0.834391
0.837422
0.837784
0.837638
0.837532
-0.283739
-0.255449
-0.197531
-0.118203
-0.0266684
0.0720785
0.1769
0.287375
0.402904
0.52265
0.629872
0.710551
0.76848
0.808105
0.830986
0.840679
0.843265
0.843475
0.843302
0.843191
-0.304796
-0.27593
-0.217154
-0.136747
-0.0439746
0.0561972
0.162701
0.275224
0.39331
0.51646
0.627852
0.712663
0.773851
0.815153
0.837923
0.846642
0.848476
0.848434
0.848243
0.848138
-0.32524
-0.295822
-0.236239
-0.154855
-0.0610061
0.0403995
0.148369
0.26266
0.383008
0.509248
0.624676
0.713868
0.778854
0.822423
0.845358
0.852838
0.853388
0.852783
0.852563
0.852522
-0.34514
-0.315097
-0.254775
-0.172507
-0.0777082
0.0247589
0.133978
0.249777
0.372076
0.501064
0.620281
0.714009
0.78334
0.829925
0.85377
0.860214
0.858862
0.856932
0.856484
0.856774
-0.364338
-0.333741
-0.272711
-0.189654
-0.0940296
0.00935155
0.119619
0.236678
0.360621
0.491988
0.614637
0.712894
0.787041
0.837389
0.863303
0.86991
0.866955
0.862645
0.860589
0.860547
-0.382929
-0.35175
-0.290069
-0.20633
-0.110005
-0.00586576
0.105234
0.223308
0.348579
0.481949
0.607608
0.710245
0.789672
0.844366
0.873487
0.882409
0.880055
0.872939
0.865474
0.851914
-0.400844
-0.369111
-0.306964
-0.222734
-0.125913
-0.0212135
0.0904252
0.209205
0.335441
0.470346
0.598592
0.70534
0.790758
0.85029
0.882855
0.895896
0.894653
0.881187
0.860572
0.85011
-0.417917
-0.385977
-0.323211
-0.238676
-0.1414
-0.036355
0.0754089
0.194682
0.321494
0.45741
0.587604
0.69763
0.789354
0.853941
0.887362
0.900399
0.900934
0.876036
0.808794
0.778808
-0.433491
-0.403618
-0.338505
-0.253681
-0.155667
-0.0507905
0.0605037
0.179966
0.306951
0.443252
0.574541
0.686739
0.783878
0.85451
0.881664
0.889642
0.875074
0.818943
0.749639
0.707167
-0.488189
-0.419164
-0.352327
-0.268878
-0.170373
-0.0660087
0.0456363
0.164766
0.29143
0.427388
0.558749
0.67191
0.770244
0.847768
0.849041
0.848225
0.793992
0.721043
0.643474
0.600334
-0.449853
-0.433938
-0.372951
-0.288401
-0.192143
-0.0878168
0.0227984
0.141302
0.267028
0.401686
0.531347
0.643251
0.734515
0.817741
0.800199
0.681575
0.573134
0.497745
0.423144
0.45219
-0.480131
-0.451108
-0.389242
-0.30554
-0.209325
-0.105119
0.00577349
0.123647
0.248322
0.381218
0.508161
0.615884
0.697359
0.741469
0.689671
0.53588
0.404962
0.311512
0.211731
0.260385
-0.503437
-0.471496
-0.408502
-0.324678
-0.228346
-0.124251
-0.0134446
0.103593
0.22687
0.357371
0.480586
0.582018
0.654392
0.663535
0.553036
0.376847
0.221589
0.100863
-0.0313523
0.000738837
-0.526192
-0.492766
-0.428647
-0.343922
-0.247523
-0.143593
-0.033325
0.0827382
0.20441
0.332109
0.450587
0.543963
0.600625
0.577968
0.415585
0.216561
0.0243618
-0.144911
-0.334122
-0.353569
-0.548347
-0.514501
-0.449528
-0.364051
-0.267534
-0.163846
-0.0542497
0.0607057
0.180499
0.304973
0.417952
0.503089
0.539837
0.480108
0.284633
0.0718238
-0.14689
-0.337103
-0.579474
-0.875651
-0.57079
-0.536956
-0.471475
-0.385541
-0.288866
-0.185372
-0.0763816
0.0374213
0.155213
0.276169
0.383282
0.459774
0.474712
0.363405
0.170561
-0.0414602
-0.247209
-0.420491
-0.490786
-0.569308
-0.594466
-0.560587
-0.494832
-0.408704
-0.312007
-0.208805
-0.10052
0.0119476
0.127404
0.244286
0.345095
0.410247
0.399745
0.254665
0.0690332
-0.12392
-0.288375
-0.382353
-0.406713
-0.422542
-0.619678
-0.585689
-0.519768
-0.433613
-0.337084
-0.234355
-0.127022
-0.016201
0.0964901
0.208627
0.302632
0.353176
0.324767
0.153589
-0.0230499
-0.190848
-0.318848
-0.358494
-0.371358
-0.372667
-0.646623
-0.612434
-0.546346
-0.460262
-0.364048
-0.262023
-0.155905
-0.0470737
0.0624039
0.169206
0.255465
0.291423
0.242603
0.0602312
-0.107344
-0.257601
-0.334715
-0.351879
-0.353283
-0.353106
-0.675359
-0.640883
-0.574592
-0.488649
-0.392914
-0.291801
-0.187172
-0.080684
0.0251577
0.126101
0.2037
0.227579
0.142287
-0.0250662
-0.184233
-0.308143
-0.345175
-0.343554
-0.342683
-0.342101
-0.705601
-0.67086
-0.604402
-0.518689
-0.423597
-0.323632
-0.220793
-0.117004
-0.0152071
0.0794284
0.148262
0.154911
0.0510781
-0.104156
-0.245189
-0.322355
-0.332663
-0.335303
-0.335975
-0.335707
-0.736799
-0.701912
-0.635521
-0.550155
-0.45591
-0.357362
-0.256616
-0.155901
-0.058501
0.0295418
0.0896042
0.0810507
-0.0308509
-0.171106
-0.289578
-0.321826
-0.330269
-0.331696
-0.331461
-0.33117
-0.76849
-0.733496
-0.667492
-0.582654
-0.48951
-0.39267
-0.294363
-0.197085
-0.104438
-0.0228585
0.0268169
0.0110696
-0.106214
-0.225708
-0.319446
-0.33713
-0.32886
-0.328137
-0.328188
-0.327976
-0.799773
-0.764894
-0.699462
-0.615585
-0.523857
-0.429086
-0.333584
-0.240079
-0.152545
-0.0771068
-0.0372753
-0.0528543
-0.172409
-0.268497
-0.320701
-0.331494
-0.328952
-0.327604
-0.326987
-0.32675
-0.829104
-0.794931
-0.730452
-0.648032
-0.558187
-0.465914
-0.37363
-0.284207
-0.202014
-0.132624
-0.096372
-0.122908
-0.225733
-0.310901
-0.311819
-0.328041
-0.330394
-0.327876
-0.326849
-0.326328
-0.85487
-0.821767
-0.759335
-0.678823
-0.59147
-0.502224
-0.413641
-0.328622
-0.251732
-0.188554
-0.152296
-0.1894
-0.268889
-0.338297
-0.36031
-0.344513
-0.336153
-0.332698
-0.331317
-0.330527
-0.874949
-0.843571
-0.784015
-0.706543
-0.622422
-0.536886
-0.452535
-0.372303
-0.300594
-0.243559
-0.209371
-0.241714
-0.294862
-0.362634
-0.40061
-0.36387
-0.346533
-0.343131
-0.341393
-0.340326
-0.887112
-0.858434
-0.802656
-0.729293
-0.64955
-0.568579
-0.489123
-0.414044
-0.34756
-0.296111
-0.264048
-0.283032
-0.291424
-0.318207
-0.319104
-0.335559
-0.34708
-0.3507
-0.350382
-0.350591
-0.888733
-0.864096
-0.813265
-0.745282
-0.671157
-0.595878
-0.522064
-0.452594
-0.391504
-0.345078
-0.309627
-0.321695
-0.295415
-0.24729
-0.282361
-0.32424
-0.342387
-0.348946
-0.352104
-0.353346
-0.877592
-0.857766
-0.813667
-0.752908
-0.685764
-0.617295
-0.549996
-0.486625
-0.431234
-0.389364
-0.350379
-0.371362
-0.387365
-0.350411
-0.370332
-0.379392
-0.378574
-0.377659
-0.377358
-0.37743
-0.851745
-0.836861
-0.802061
-0.750908
-0.692352
-0.631801
-0.571691
-0.514693
-0.465125
-0.428405
-0.389747
-0.424905
-0.512007
-0.674545
-0.608777
-0.489269
-0.427988
-0.405219
-0.396787
-0.394264
-0.813728
-0.804137
-0.779251
-0.739424
-0.690872
-0.639092
-0.586384
-0.535596
-0.491052
-0.459444
-0.434178
-0.434546
-0.45336
-0.537455
-0.508684
-0.403652
-0.352267
-0.336118
-0.331049
-0.328353
-0.77022
-0.764771
-0.750055
-0.721239
-0.683249
-0.639909
-0.594209
-0.548592
-0.507386
-0.476146
-0.44764
-0.365685
-0.188635
-0.00586179
-0.00614022
-0.101114
-0.190814
-0.234107
-0.244693
-0.245097
-0.730957
-0.727649
-0.720625
-0.701768
-0.672464
-0.636227
-0.59622
-0.554291
-0.513401
-0.478924
-0.453359
-0.360515
-0.217901
0.0100915
0.0815276
-0.0885533
-0.230648
-0.305627
-0.320055
-0.33763
-0.702617
-0.700529
-0.696916
-0.685438
-0.662462
-0.631247
-0.594673
-0.554206
-0.511282
-0.473077
-0.445788
-0.450847
-0.615628
-1.04284
-1.53087
-1.77868
-1.80189
-1.66083
-1.47402
-1.37836
-0.681289
-0.680509
-0.679325
-0.673596
-0.656099
-0.62772
-0.591862
-0.550055
-0.504022
-0.454112
-0.419001
-0.444169
-0.702126
-1.10129
-1.54024
-1.67786
-1.54981
-1.31849
-1.11843
-1.01891
-0.66891
-0.668663
-0.668135
-0.665517
-0.65295
-0.625897
-0.588595
-0.54421
-0.491708
-0.429276
-0.376988
-0.327961
-0.326878
-0.302873
-0.241564
-0.144975
0.0792034
0.264733
0.37881
0.429002
-0.660108
-0.659998
-0.659567
-0.658603
-0.650638
-0.625585
-0.586886
-0.538179
-0.478996
-0.408776
-0.323726
-0.226193
-0.0609728
0.260024
0.643674
1.04321
1.36098
1.53402
1.60455
1.62476
-0.654158
-0.653988
-0.653435
-0.652948
-0.648056
-0.627402
-0.587554
-0.534001
-0.469209
-0.385195
-0.280532
-0.17359
0.064986
0.48505
0.95372
1.38891
1.71334
1.88441
1.94831
1.96087
-0.651925
-0.651641
-0.650756
-0.649003
-0.64775
-0.633105
-0.591885
-0.534233
-0.462993
-0.37228
-0.263662
-0.147581
0.0475109
0.447211
0.859458
1.23075
1.50152
1.64073
1.68676
1.69458
-0.65355
-0.654196
-0.655933
-0.658401
-0.660038
-0.64553
-0.600495
-0.539966
-0.464787
-0.371469
-0.263969
-0.153761
-0.00501287
0.313069
0.62671
0.895021
1.08227
1.17196
1.20186
1.20728
-0.655434
-0.656774
-0.6599
-0.666368
-0.670828
-0.652405
-0.609614
-0.551238
-0.474659
-0.379977
-0.279181
-0.178951
-0.0631396
0.161924
0.380394
0.547317
0.655519
0.707446
0.730067
0.737315
-0.676304
-0.676136
-0.666858
-0.640619
-0.615154
-0.61685
-0.614215
-0.569609
-0.490802
-0.394025
-0.300364
-0.21662
-0.12952
0.0368448
0.190197
0.297672
0.366629
0.403345
0.423631
0.43123
-0.727044
-0.723602
-0.706539
-0.666792
-0.632804
-0.639783
-0.653807
-0.600695
-0.510387
-0.409192
-0.323486
-0.253601
-0.187909
-0.0609041
0.0602848
0.150227
0.211561
0.246224
0.263722
0.26893
-0.825656
-0.83212
-0.860742
-0.897481
-0.898804
-0.868538
-0.78671
-0.656449
-0.532281
-0.421653
-0.338062
-0.280818
-0.232228
-0.124661
-0.0221768
0.0569374
0.117382
0.153683
0.169199
0.171784
-0.971569
-0.997043
-1.05108
-1.0973
-1.10216
-1.05242
-0.896916
-0.705482
-0.54528
-0.424157
-0.342057
-0.292229
-0.251967
-0.161623
-0.0743232
-0.00773217
0.0433214
0.0729493
0.0843107
0.0856561
-1.00671
-1.02871
-1.06861
-1.10165
-1.10468
-1.0483
-0.884401
-0.688067
-0.527276
-0.407606
-0.329736
-0.283869
-0.243637
-0.176016
-0.108048
-0.0546331
-0.0131297
0.0102786
0.0193853
0.0193111
-0.840661
-0.861624
-0.897767
-0.932805
-0.939895
-0.883857
-0.737822
-0.589401
-0.463463
-0.366828
-0.301073
-0.257681
-0.220456
-0.172321
-0.12467
-0.0851349
-0.0558742
-0.0383976
-0.0322912
-0.0327288
-0.514085
-0.530569
-0.561545
-0.59668
-0.615966
-0.591
-0.521119
-0.441449
-0.369913
-0.308882
-0.26055
-0.224048
-0.195719
-0.166393
-0.134933
-0.107296
-0.0863677
-0.0746621
-0.0710529
-0.0723968
-0.175678
-0.184623
-0.204698
-0.236356
-0.269138
-0.288506
-0.295723
-0.287932
-0.269674
-0.243434
-0.216425
-0.191753
-0.174504
-0.158855
-0.140516
-0.124261
-0.111592
-0.105322
-0.104021
-0.105714
0.0454648
0.0408784
0.0269093
-0.00108732
-0.0440514
-0.0936736
-0.13525
-0.165624
-0.181524
-0.182971
-0.173849
-0.1618
-0.154593
-0.1516
-0.146134
-0.141247
-0.139173
-0.139798
-0.141
-0.142252
0.136031
0.133291
0.122911
0.0990649
0.0590012
0.00808119
-0.0436267
-0.0874067
-0.11825
-0.134732
-0.137273
-0.133767
-0.134322
-0.140088
-0.147139
-0.155329
-0.162635
-0.170024
-0.172996
-0.173561
0.14863
0.146753
0.139191
0.121128
0.0897629
0.0482121
0.0023348
-0.0410302
-0.0768231
-0.100965
-0.110086
-0.109101
-0.109647
-0.125142
-0.143498
-0.159534
-0.173979
-0.183122
-0.186046
-0.186254
0.128656
0.127427
0.12224
0.109587
0.0871659
0.0562031
0.0193757
-0.0181765
-0.0526404
-0.08018
-0.0949302
-0.0972041
-0.0984403
-0.118678
-0.140315
-0.157644
-0.170922
-0.178156
-0.180131
-0.180421
0.100078
0.0992911
0.0958591
0.0873081
0.0717905
0.0494503
0.0212118
-0.00980701
-0.0413804
-0.070921
-0.0939147
-0.107584
-0.11586
-0.131515
-0.145104
-0.155103
-0.162704
-0.165972
-0.166866
-0.1673
0.0724412
0.0720196
0.0698193
0.0641778
0.0536206
0.0377496
0.0165912
-0.00843813
-0.0367473
-0.0683671
-0.102456
-0.137619
-0.157831
-0.158957
-0.155927
-0.155508
-0.155845
-0.155917
-0.156017
-0.156422
0.0495172
0.0491963
0.047784
0.0441192
0.0370083
0.0258604
0.0102385
-0.00956901
-0.0341046
-0.0658869
-0.107642
-0.158381
-0.187709
-0.173842
-0.159343
-0.152043
-0.149483
-0.148534
-0.148107
-0.148211
0.0315214
0.0313562
0.0304863
0.0282144
0.0236155
0.0160166
0.00491096
-0.0100504
-0.029742
-0.0577031
-0.0977479
-0.14749
-0.169276
-0.153185
-0.139832
-0.13573
-0.13553
-0.135691
-0.135281
-0.13511
0.0180631
0.0179825
0.0175051
0.0162353
0.0135366
0.00879372
0.00152079
-0.00871825
-0.022854
-0.0435068
-0.0722648
-0.103176
-0.110944
-0.104999
-0.101535
-0.104725
-0.108728
-0.110595
-0.110437
-0.110041
0.00837901
0.0083796
0.0082025
0.0076537
0.00632313
0.00390386
7.64659e-06
-0.00562118
-0.0135068
-0.0250249
-0.0394094
-0.0504004
-0.0489474
-0.0491954
-0.053286
-0.0607472
-0.0668598
-0.0692642
-0.0692543
-0.0686759
0.00118749
0.00124044
0.00120102
0.00126364
0.0013801
0.00122264
0.000704926
-0.000209971
-0.00149492
-0.00331106
-0.0053901
-0.00578998
-0.00682961
-0.00663637
-0.0097874
-0.0136671
-0.014668
-0.0145384
-0.0144558
-0.0141801
-0.108254
0.0576101
0.250924
0.419581
0.553879
0.659065
0.745721
0.819573
0.85343
0.830206
0.191247
0.31106
0.439838
0.550917
0.644288
0.721337
0.783689
0.828011
0.8502
0.86239
0.407907
0.489987
0.577967
0.655509
0.722106
0.777799
0.822113
0.854532
0.878039
0.896098
0.567278
0.626086
0.686964
0.743562
0.792699
0.834449
0.868778
0.896206
0.918868
0.937214
0.691703
0.734419
0.780028
0.823463
0.861859
0.895415
0.924166
0.948127
0.968432
0.986295
0.79539
0.828035
0.86591
0.901224
0.933663
0.962764
0.988212
1.00962
1.02742
1.04478
0.887545
0.916106
0.949918
0.981919
1.01175
1.03883
1.06251
1.08218
1.09765
1.11474
0.975898
1.00502
1.03893
1.07089
1.10043
1.12696
1.14978
1.16824
1.18159
1.19862
1.07107
1.10422
1.14081
1.17434
1.20435
1.2305
1.25242
1.26968
1.28153
1.29893
1.18598
1.22378
1.26239
1.2966
1.32592
1.35065
1.371
1.38688
1.39833
1.4164
1.33087
1.36939
1.40551
1.43618
1.46185
1.48393
1.50297
1.51849
1.53091
1.54891
1.50591
1.53753
1.5637
1.58613
1.6061
1.62481
1.64252
1.65899
1.67434
1.6924
1.69451
1.71171
1.72674
1.74296
1.75886
1.77339
1.78659
1.80051
1.81805
1.8382
1.87622
1.88575
1.89729
1.9081
1.91738
1.92696
1.93774
1.9491
1.96046
1.97582
2.08344
2.08711
2.07216
2.05735
2.05107
2.05674
2.07522
2.10553
2.13771
2.16436
2.38977
2.2549
2.17826
2.13587
2.11845
2.12241
2.14981
2.20622
2.30884
2.53321
0.706879
0.704752
0.700269
0.691647
0.679427
0.667304
0.657084
0.649202
0.643603
0.640375
0.640052
0.642821
0.647948
0.655187
0.664587
0.676134
0.68879
0.699828
0.705942
0.708997
0.631324
0.637172
0.643507
0.648002
0.650477
0.650159
0.647431
0.643635
0.640144
0.637912
0.637798
0.640027
0.643714
0.648021
0.65184
0.653731
0.652801
0.649324
0.644163
0.637543
0.622885
0.625182
0.628588
0.631587
0.633667
0.635171
0.635936
0.635635
0.634631
0.633778
0.633989
0.63545
0.637291
0.638616
0.63881
0.637929
0.636387
0.634056
0.630796
0.627877
0.617354
0.618441
0.620276
0.622658
0.624687
0.626123
0.627155
0.627924
0.62835
0.628606
0.629138
0.629983
0.63061
0.630698
0.630301
0.629464
0.628002
0.625925
0.623843
0.622461
0.612125
0.612787
0.613897
0.615607
0.617395
0.619036
0.620345
0.621381
0.622291
0.62312
0.623896
0.624491
0.624718
0.624576
0.624027
0.622986
0.621569
0.620033
0.61872
0.617942
0.607115
0.607575
0.608363
0.609666
0.611161
0.612688
0.614169
0.615489
0.616657
0.617757
0.618727
0.619345
0.61953
0.619286
0.61861
0.617638
0.616526
0.615403
0.614494
0.613978
0.602244
0.602588
0.603201
0.604274
0.605577
0.606963
0.608419
0.609891
0.6113
0.612632
0.613806
0.614557
0.614781
0.614542
0.61397
0.613215
0.612381
0.611526
0.610861
0.610484
0.597457
0.597724
0.598219
0.599134
0.600313
0.601623
0.603038
0.604555
0.606138
0.607717
0.609139
0.61008
0.610439
0.610363
0.610004
0.609471
0.608843
0.608219
0.607736
0.607449
0.59267
0.592882
0.593295
0.5941
0.5952
0.596464
0.597872
0.59944
0.60116
0.602984
0.604704
0.605917
0.606525
0.606697
0.606575
0.606267
0.605851
0.605421
0.605079
0.604855
0.587796
0.587967
0.58832
0.589053
0.590108
0.591353
0.592792
0.594449
0.596332
0.59842
0.600494
0.602077
0.603018
0.603486
0.603623
0.603552
0.603352
0.6031
0.602875
0.602696
0.582744
0.582881
0.583193
0.583882
0.584923
0.586194
0.587703
0.589491
0.591592
0.594001
0.596509
0.598551
0.599892
0.600704
0.601138
0.601319
0.601335
0.601255
0.60113
0.600986
0.577423
0.577533
0.577818
0.578487
0.579547
0.580891
0.582515
0.584488
0.586874
0.589689
0.592732
0.595325
0.597139
0.598351
0.599119
0.599577
0.59982
0.599913
0.599875
0.599759
0.571735
0.571822
0.57209
0.572766
0.573882
0.57534
0.577132
0.57936
0.582111
0.585439
0.589135
0.592391
0.594766
0.59644
0.597588
0.59837
0.598866
0.599123
0.599164
0.599068
0.565569
0.565636
0.565897
0.566601
0.567811
0.56943
0.571456
0.574017
0.577232
0.581198
0.585692
0.589744
0.592786
0.595004
0.59659
0.597736
0.598513
0.598949
0.599063
0.598984
0.558794
0.558841
0.559104
0.559859
0.561202
0.563039
0.565372
0.568359
0.57216
0.576914
0.582377
0.587386
0.59122
0.594083
0.596183
0.597736
0.598838
0.599468
0.599656
0.59959
0.551255
0.551282
0.551549
0.552377
0.553899
0.556019
0.558744
0.562272
0.566806
0.572527
0.579167
0.585322
0.590095
0.593715
0.596429
0.59847
0.599939
0.600777
0.601037
0.600981
0.542737
0.542751
0.543028
0.543956
0.545713
0.548178
0.551409
0.555621
0.561067
0.567976
0.576039
0.583562
0.589449
0.59396
0.597395
0.600023
0.60191
0.602977
0.60331
0.603261
0.532951
0.532935
0.533266
0.534337
0.536381
0.539305
0.543176
0.548247
0.554828
0.563197
0.572979
0.582128
0.589327
0.59489
0.59917
0.60248
0.604854
0.606172
0.606577
0.606531
0.521586
0.521546
0.521924
0.523189
0.525604
0.529119
0.533803
0.539961
0.547964
0.558128
0.569979
0.581051
0.589782
0.596575
0.601848
0.605941
0.608872
0.610457
0.610931
0.610883
0.508154
0.508087
0.508545
0.510063
0.512965
0.517249
0.522987
0.53054
0.540335
0.55271
0.56704
0.580366
0.590868
0.599074
0.605504
0.610501
0.614048
0.615906
0.616439
0.616383
0.491995
0.491899
0.492484
0.494357
0.497911
0.503224
0.510359
0.519731
0.531807
0.546908
0.56419
0.580128
0.592651
0.60246
0.610198
0.616215
0.620431
0.622553
0.623127
0.623057
0.472159
0.472036
0.472825
0.475216
0.479689
0.486432
0.495475
0.50727
0.522278
0.540734
0.561497
0.580412
0.595199
0.606794
0.615957
0.623118
0.628014
0.630365
0.630951
0.630859
0.447208
0.44707
0.448196
0.451391
0.457257
0.466093
0.477842
0.492935
0.511727
0.534283
0.559087
0.581325
0.59858
0.612111
0.622827
0.631176
0.636711
0.639214
0.639772
0.63965
0.414806
0.414691
0.416435
0.421024
0.429205
0.441308
0.457027
0.476645
0.500279
0.527757
0.557153
0.583
0.602864
0.618424
0.630756
0.640291
0.646326
0.648858
0.649337
0.649181
0.370758
0.37081
0.373912
0.381408
0.393886
0.411315
0.432918
0.458635
0.488295
0.521508
0.555956
0.585591
0.608126
0.625736
0.639661
0.650259
0.656535
0.658918
0.659271
0.659082
0.307199
0.308428
0.316014
0.33
0.350339
0.376242
0.406133
0.43962
0.476411
0.516011
0.555783
0.589244
0.614392
0.633964
0.649311
0.660645
0.666852
0.668847
0.669029
0.66882
0.231895
0.233699
0.248222
0.272246
0.303585
0.339498
0.378415
0.420161
0.464561
0.511149
0.557018
0.595114
0.623534
0.645489
0.662424
0.674406
0.680291
0.681956
0.682092
0.681968
0.154247
0.160518
0.181961
0.216302
0.258097
0.303725
0.351627
0.401677
0.453757
0.507425
0.559523
0.602352
0.634039
0.658394
0.677094
0.689165
0.69425
0.695407
0.695483
0.695432
0.0907121
0.0993244
0.125352
0.166757
0.216748
0.270651
0.326648
0.384465
0.44387
0.504348
0.562402
0.609661
0.64437
0.670733
0.69035
0.702396
0.707154
0.708224
0.708347
0.708358
0.039048
0.0482596
0.0778565
0.124525
0.180697
0.24127
0.304115
0.368795
0.434894
0.501753
0.565455
0.616922
0.654441
0.6827
0.70339
0.715658
0.720186
0.721194
0.721375
0.721432
-0.00414954
0.00534238
0.0373963
0.0880774
0.149326
0.215437
0.284094
0.354776
0.426898
0.499654
0.5687
0.624209
0.664468
0.694619
0.716405
0.728946
0.733539
0.734745
0.734954
0.735046
-0.041253
-0.0316578
0.00223229
0.0561252
0.121577
0.192414
0.266139
0.342147
0.419743
0.497981
0.572096
0.631499
0.674437
0.706441
0.729378
0.742583
0.747457
0.748758
0.748964
0.749063
-0.0739482
-0.0643294
-0.0290359
0.0275659
0.0965407
0.171457
0.249677
0.330494
0.413125
0.49649
0.575437
0.638614
0.684181
0.718058
0.74222
0.756084
0.761355
0.762735
0.762933
0.763009
-0.103534
-0.0938904
-0.0574494
0.00148986
0.0734867
0.151982
0.234206
0.31939
0.406676
0.494893
0.578498
0.645353
0.693481
0.729145
0.75445
0.769048
0.774704
0.776173
0.77635
0.776404
-0.130911
-0.121236
-0.0838064
-0.0228183
0.0518545
0.133521
0.21933
0.308498
0.400125
0.49296
0.581085
0.651542
0.70217
0.739558
0.765963
0.781177
0.787258
0.7888
0.788957
0.788984
-0.15666
-0.146932
-0.108586
-0.0458701
0.0312174
0.115719
0.204764
0.29758
0.393251
0.490486
0.583032
0.657063
0.710146
0.749194
0.776619
0.79233
0.798684
0.800275
0.800412
0.800407
-0.181278
-0.171427
-0.132195
-0.0679768
0.01129
0.098326
0.190299
0.28645
0.385891
0.487331
0.58423
0.661857
0.717395
0.758023
0.786338
0.802408
0.808905
0.810514
0.810631
0.810595
-0.20505
-0.194992
-0.155046
-0.0893273
-0.00812482
0.0811722
0.175789
0.274989
0.377937
0.483397
0.584595
0.66588
0.723926
0.766098
0.795152
0.811452
0.817957
0.81954
0.819638
0.819573
-0.228089
-0.217841
-0.177196
-0.110071
-0.0271581
0.0641702
0.161159
0.263132
0.369323
0.478595
0.584049
0.669115
0.729794
0.773548
0.803232
0.819587
0.825979
0.827488
0.827545
0.82746
-0.250592
-0.24007
-0.198683
-0.130309
-0.0458694
0.0472676
0.146375
0.25085
0.360017
0.472886
0.58253
0.671532
0.735065
0.780517
0.810744
0.826975
0.833117
0.834489
0.834497
0.834392
-0.27251
-0.261733
-0.219657
-0.150099
-0.0642792
0.0304591
0.13145
0.238159
0.350024
0.466242
0.579978
0.673082
0.739791
0.787166
0.81791
0.83379
0.839498
0.840654
0.840595
0.840471
-0.293921
-0.28286
-0.240051
-0.169437
-0.082383
0.0137623
0.116411
0.225101
0.33938
0.458665
0.576342
0.673697
0.743975
0.793646
0.824997
0.840288
0.845238
0.846036
0.8459
0.845772
-0.314674
-0.303399
-0.259863
-0.188288
-0.100146
-0.00276308
0.101313
0.211736
0.328143
0.450198
0.571584
0.67329
0.747562
0.800054
0.832342
0.846896
0.850665
0.850791
0.850516
0.850409
-0.334912
-0.323312
-0.279095
-0.206644
-0.117546
-0.0190863
0.0862379
0.198134
0.316389
0.440905
0.565698
0.671747
0.750413
0.806372
0.840248
0.85428
0.856458
0.855255
0.854558
0.854503
-0.354479
-0.342582
-0.297723
-0.22447
-0.13451
-0.0351292
0.0712595
0.184407
0.304219
0.43084
0.558707
0.668948
0.75233
0.812415
0.848781
0.863197
0.863981
0.860638
0.858448
0.857765
-0.37344
-0.361258
-0.3157
-0.241722
-0.15101
-0.0508275
0.0564568
0.17063
0.291738
0.420131
0.550665
0.664771
0.753056
0.817808
0.85752
0.873875
0.874883
0.869793
0.863514
0.855629
-0.391717
-0.379299
-0.33312
-0.258554
-0.16725
-0.0664453
0.0415081
0.156422
0.278522
0.408307
0.54108
0.658709
0.75216
0.822309
0.865957
0.885873
0.889735
0.88422
0.873212
0.868672
-0.409265
-0.396628
-0.349971
-0.274942
-0.183241
-0.0819787
0.026422
0.14176
0.264517
0.395238