/*--------------------------------*- C++ -*----------------------------------*\
| =========                 |                                                 |
| \\      /  F ield         | OpenFOAM: The Open Source CFD Toolbox           |
|  \\    /   O peration     | Version:  4.0                                   |
|   \\  /    A nd           | Web:      www.OpenFOAM.org                      |
|    \\/     M anipulation  |                                                 |
\*---------------------------------------------------------------------------*/
FoamFile
{
    version     2.0;
    format      ascii;
    class       surfaceScalarField;
    location    "67";
    object      phi;
}
// * * * * * * * * * * * * * * * * * * * * * * * * * * * * * * * * * * * * * //

dimensions      [0 3 -1 0 0 0 0];

internalField   nonuniform List<scalar> 
17370
(
-0.0916062
0.0960093
0.284608
-0.0775945
0.0594198
0.36495
-0.0430419
0.0316219
0.427588
-0.0223179
0.0162653
0.505304
-0.0116723
0.00879876
0.602276
-0.00658788
0.0051031
0.720542
-0.00386622
0.00298588
0.863787
-0.00221281
0.00163439
1.03603
-0.00110249
0.00068105
1.24292
-0.000269026
-0.000125638
1.49159
0.000514715
-0.000929678
1.49161
0.00133552
-0.00184081
1.2432
0.00239038
-0.00313111
1.03638
0.00398619
-0.00520342
0.864124
0.0066768
-0.00887813
0.721259
0.0117413
-0.0163188
0.603792
0.0223551
-0.0316412
0.508725
0.0430417
-0.0594081
0.432535
0.0775871
-0.0960027
0.365191
0.0916213
0.19739
-0.127093
0.0880251
0.0390676
-0.364358
0.354033
-0.0714731
0.0817981
-0.446654
0.454257
-0.0791673
0.0715642
-0.521012
0.529113
-0.0637094
0.0556087
-0.612992
0.620763
-0.0482204
0.0404498
-0.727165
0.733687
-0.0338369
0.0273149
-0.867582
0.872436
-0.0221095
0.0172553
-1.03857
1.04191
-0.013555
0.0102133
-1.24472
1.24713
-0.00766021
0.00525144
-1.49284
1.49486
-0.00328443
0.00126704
-1.49269
1.49452
0.000554834
-0.0023771
-1.2441
1.24602
0.00435277
-0.0062662
-1.03761
1.04008
0.00860227
-0.0110795
-0.866186
0.86981
0.0143338
-0.0179579
-0.724592
0.729744
0.0227403
-0.0278916
-0.609063
0.61563
0.0343624
-0.0409298
-0.515122
0.522455
0.0486477
-0.0559813
-0.43988
0.447655
0.0640005
-0.0717755
-0.374704
0.377355
0.0792652
-0.0819156
-0.256894
0.22443
0.071565
-0.0391015
-0.0688151
0.0592053
0.00960975
-0.052096
0.0589188
-0.374842
0.368019
-0.0580684
0.054224
-0.45395
0.457794
-0.0487352
0.044174
-0.527622
0.532184
-0.0396219
0.0357235
-0.620807
0.624705
-0.0315073
0.0275086
-0.734666
0.738665
-0.0231472
0.0192555
-0.873963
0.877854
-0.0152052
0.0117434
-1.04337
1.04683
-0.00821863
0.00518128
-1.24866
1.25169
-0.00196893
-0.00101606
-1.49695
1.49993
0.00397842
-0.0071291
-1.49742
1.50057
0.0100758
-0.0134763
-1.25006
1.25346
0.0168096
-0.0207109
-1.04564
1.04954
0.024471
-0.0287025
-0.877127
0.881359
0.0325968
-0.0367101
-0.738973
0.743086
0.0405233
-0.0449917
-0.625961
0.63043
0.0494828
-0.0549031
-0.535009
0.540429
0.0586678
-0.0594241
-0.458068
0.458824
0.0524701
-0.0320739
-0.336751
0.316355
0.00967639
-0.0686542
0.0589778
-0.0534186
0.0493097
0.00410887
-0.0332257
0.0436413
-0.358579
0.348163
-0.0473105
0.0467191
-0.459591
0.460182
-0.0437865
0.0405703
-0.536144
0.539361
-0.0368891
0.0335303
-0.62841
0.631768
-0.0298912
0.0266447
-0.74205
0.745297
-0.0231852
0.0199812
-0.881354
0.884558
-0.0163806
0.0130218
-1.05026
1.05362
-0.00931513
0.00590403
-1.25496
1.25837
-0.00210711
-0.00151353
-1.50329
1.50691
0.00510181
-0.00880509
-1.50406
1.50776
0.0120884
-0.0156188
-1.25701
1.26054
0.0187949
-0.0221831
-1.05325
1.05664
0.0251994
-0.0284733
-0.884961
0.888235
0.0315702
-0.0350615
-0.746762
0.750253
0.0382951
-0.0418458
-0.634544
0.638094
0.0449488
-0.0477545
-0.544566
0.547372
0.0482142
-0.0443622
-0.456932
0.45308
0.0337223
-0.0163932
-0.297025
0.279696
0.00418276
-0.0531242
0.0489414
-0.0461433
0.0435911
0.00255219
-0.0230237
0.0333609
-0.337582
0.327244
-0.0390834
0.0400246
-0.459939
0.458998
-0.0387663
0.0364326
-0.542022
0.544356
-0.0337837
0.0312307
-0.634743
0.637296
-0.0282455
0.0253896
-0.748389
0.751245
-0.0221428
0.0191204
-0.887622
0.890644
-0.0157598
0.0126169
-1.05681
1.05995
-0.0090505
0.00564233
-1.26177
1.26518
-0.00172456
-0.00207743
-1.51064
1.51444
0.00583762
-0.00962897
-1.51154
1.51533
0.0128676
-0.0162027
-1.26399
1.26733
0.019106
-0.0221889
-1.05984
1.06292
0.0249626
-0.0279586
-0.891421
0.894417
0.0306086
-0.0333892
-0.753423
0.756203
0.0357706
-0.0382454
-0.641039
0.643514
0.0404301
-0.0414926
-0.549198
0.55026
0.0403474
-0.0343269
-0.447942
0.441922
0.023662
-0.0103928
-0.26449
0.251221
0.00264384
-0.0456924
0.0430485
-0.0414764
0.0396803
0.00179619
-0.0169146
0.0261829
-0.31739
0.308122
-0.032762
0.0348698
-0.457447
0.455339
-0.0344242
0.0327162
-0.546393
0.548101
-0.0304779
0.0283395
-0.639616
0.641754
-0.0258895
0.0234993
-0.753855
0.756245
-0.0206712
0.0179125
-0.893513
0.896271
-0.014715
0.0116685
-1.063
1.06605
-0.00819117
0.00486529
-1.26851
1.27184
-0.00101662
-0.00273587
-1.51821
1.52197
0.00643434
-0.010123
-1.51907
1.52276
0.0132331
-0.0164166
-1.27059
1.27377
0.0191583
-0.0219997
-1.06594
1.06878
0.0244368
-0.0269402
-0.897189
0.899693
0.029065
-0.0312529
-0.758631
0.760819
0.0331725
-0.0351863
-0.645729
0.647742
0.0366775
-0.0368559
-0.550828
0.551007
0.0344346
-0.0274194
-0.435309
0.428293
0.0177118
-0.00749741
-0.239621
0.229407
0.00190833
-0.0408326
0.0389243
-0.0381351
0.0367885
0.00134659
-0.0129093
0.0208864
-0.299502
0.291524
-0.0276307
0.030535
-0.4528
0.449896
-0.0307262
0.0295881
-0.549549
0.550687
-0.0275752
0.0256348
-0.643822
0.645763
-0.0234065
0.0212497
-0.758502
0.760658
-0.0187247
0.0162408
-0.898836
0.90132
-0.013304
0.0104336
-1.06896
1.07183
-0.00708867
0.0038598
-1.27508
1.27831
-0.000115903
-0.00352015
-1.52564
1.52927
0.00708931
-0.010632
-1.52636
1.5299
0.0135914
-0.0165694
-1.27688
1.27985
0.0190583
-0.0215484
-1.0715
1.07399
0.0236299
-0.0257475
-0.90199
0.904107
0.0275686
-0.0294633
-0.762844
0.764739
0.0311267
-0.0328699
-0.649597
0.651341
0.0336915
-0.0331275
-0.550816
0.550252
0.0297752
-0.0224335
-0.421057
0.413716
0.0138921
-0.00580122
-0.220355
0.212264
0.00148336
-0.0372553
0.035772
-0.0356129
0.0345777
0.00103526
-0.0100778
0.0168254
-0.284185
0.277438
-0.0233142
0.0266763
-0.44674
0.443378
-0.0274408
0.0267328
-0.551601
0.552309
-0.024951
0.0231524
-0.647669
0.649468
-0.0210721
0.0190491
-0.762747
0.76477
-0.0166692
0.0143341
-0.903667
0.906002
-0.0115877
0.00889533
-1.07455
1.07724
-0.00572889
0.00264028
-1.28143
1.28452
0.000962916
-0.00446356
-1.53282
1.53632
0.0078804
-0.0112354
-1.53334
1.53669
0.0139902
-0.0167034
-1.28271
1.28542
0.0189271
-0.0211234
-1.07637
1.07857
0.0229608
-0.0248348
-0.906114
0.907988
0.0264413
-0.0281077
-0.766509
0.768175
0.0295631
-0.0309734
-0.652936
0.654347
0.0312871
-0.0299933
-0.549338
0.548044
0.0260137
-0.0187386
-0.406381
0.399106
0.0112824
-0.00467943
-0.204987
0.198384
0.00120168
-0.0344459
0.0332442
-0.0336688
0.032864
0.000804821
-0.00797811
0.0136478
-0.271257
0.265587
-0.019655
0.0232178
-0.439903
0.436341
-0.024461
0.0239992
-0.552922
0.553384
-0.0224883
0.0207985
-0.651259
0.652949
-0.0188139
0.0168798
-0.766747
0.768681
-0.0146002
0.0123596
-0.908228
0.910469
-0.00972035
0.00714055
-1.0798
1.08238
-0.00411875
0.00116964
-1.28749
1.29044
0.00226966
-0.00560558
-1.53971
1.54305
0.00884001
-0.0119758
-1.53992
1.54306
0.0145137
-0.0169818
-1.28802
1.29048
0.0189873
-0.0209507
-1.08071
1.08268
0.0225798
-0.0242383
-0.909771
0.91143
0.025661
-0.0271363
-0.769737
0.771212
0.0283982
-0.0294288
-0.655548
0.656578
0.0293702
-0.0274048
-0.546419
0.544454
0.0230169
-0.0160007
-0.391956
0.384939
0.00945065
-0.00390485
-0.19236
0.186815
0.00100714
-0.0321524
0.0311453
-0.0321568
0.0315301
0.000626764
-0.00635985
0.0111077
-0.260405
0.255657
-0.0165252
0.0200907
-0.432773
0.429207
-0.0216589
0.0214223
-0.553765
0.554002
-0.0201438
0.0185158
-0.654653
0.656281
-0.0165874
0.0147028
-0.770587
0.772471
-0.0124828
0.0103025
-0.912608
0.914788
-0.00773609
0.00523054
-1.08485
1.08736
-0.00230338
-0.000531495
-1.29327
1.29611
0.00382596
-0.00699612
-1.54626
1.54943
0.010041
-0.0129619
-1.54606
1.54898
0.0153029
-0.0175565
-1.29285
1.2951
0.0193631
-0.021105
-1.08461
1.08635
0.0225375
-0.0239977
-0.913006
0.914466
0.0252552
-0.0265565
-0.772592
0.773893
0.0276712
-0.0282819
-0.657392
0.658002
0.0278517
-0.02532
-0.54222
0.539689
0.0206801
-0.0139901
-0.378096
0.371406
0.00815629
-0.00336534
-0.181685
0.176894
0.000872431
-0.0302159
0.0293435
-0.0309827
0.0305
0.000482662
-0.00505807
0.00901048
-0.251331
0.247379
-0.0137923
0.0172106
-0.42572
0.422301
-0.0189629
0.0189165
-0.55418
0.554227
-0.0178349
0.0162418
-0.657954
0.659547
-0.014337
0.0124681
-0.774341
0.77621
-0.0102667
0.00811013
-0.916874
0.91903
-0.00558106
0.00312286
-1.08975
1.09221
-0.00026618
-0.00249385
-1.29884
1.3016
0.00566705
-0.00868797
-1.55249
1.55551
0.0115569
-0.014277
-1.55177
1.55449
0.0164303
-0.0184751
-1.29726
1.2993
0.0200871
-0.021614
-1.08809
1.08962
0.0228616
-0.0241413
-0.915853
0.917132
0.0252508
-0.0263931
-0.775105
0.776247
0.0273163
-0.0275459
-0.658417
0.658646
0.0267178
-0.0237051
-0.536932
0.533919
0.0189113
-0.01254
-0.364895
0.358524
0.00725098
-0.00299483
-0.172403
0.168147
0.000781494
-0.0285262
0.0277447
-0.0300847
0.0297238
0.000360829
-0.00396787
0.00722136
-0.243798
0.240544
-0.0113551
0.0145157
-0.419023
0.415862
-0.0163255
0.0164313
-0.554241
0.554135
-0.0154335
0.0139123
-0.661178
0.662699
-0.0120031
0.0101176
-0.778076
0.779962
-0.00789747
0.00573029
-0.921098
0.923265
-0.00320211
0.000758572
-1.09457
1.09702
0.00206717
-0.00477084
-1.30427
1.30697
0.00785153
-0.0107481
-1.55843
1.56132
0.0134606
-0.0159922
-1.55708
1.55962
0.0179645
-0.0198072
-1.30124
1.30308
0.0212302
-0.0225459
-1.09116
1.09248
0.0236122
-0.0247173
-0.91834
0.919445
0.0256831
-0.0266573
-0.777295
0.778269
0.0273216
-0.0272616
-0.658748
0.658688
0.0259893
-0.022549
-0.530706
0.527265
0.0176453
-0.0115377
-0.35231
0.346202
0.00664284
-0.00275262
-0.164103
0.160213
0.000724109
-0.0270014
0.0262773
-0.0294229
0.0291707
0.0002522
-0.0030126
0.00563526
-0.237626
0.235003
-0.00912081
0.0119404
-0.412887
0.410068
-0.0136937
0.013881
-0.554037
0.55385
-0.0129251
0.0114484
-0.66428
0.665757
-0.00951291
0.00758187
-0.781853
0.783784
-0.00530738
0.00309497
-0.925347
0.927559
-0.000529798
-0.00193836
-1.09936
1.10183
0.00476705
-0.00744818
-1.30959
1.31227
0.0104677
-0.0132654
-1.56413
1.56692
0.0158403
-0.0181944
-1.56202
1.56438
0.0199905
-0.0216334
-1.30482
1.30646
0.0228678
-0.0239691
-1.09384
1.09494
0.0248503
-0.0257793
-0.920476
0.921405
0.0266012
-0.0274025
-0.779137
0.779939
0.0277753
-0.0274293
-0.658482
0.658136
0.0257073
-0.0218502
-0.523637
0.51978
0.016836
-0.0109081
-0.340219
0.334291
0.00627271
-0.00261231
-0.156468
0.152807
0.000693444
-0.0255786
0.0248852
-0.0289749
0.0288258
0.000149105
-0.00212853
0.00415922
-0.232694
0.230663
-0.00699181
0.00939998
-0.407473
0.405065
-0.0109881
0.011177
-0.553719
0.55353
-0.0102289
0.0087576
-0.66733
0.668801
-0.00676811
0.00476126
-0.785726
0.787733
-0.00239674
0.000107973
-0.929688
0.931977
0.00253994
-0.00506468
-1.10421
1.10674
0.00793398
-0.0106238
-1.31487
1.31756
0.0136117
-0.0163319
-1.56963
1.57235
0.0187835
-0.0209692
-1.56661
1.56879
0.0225932
-0.0240359
-1.30798
1.30943
0.0250737
-0.0259448
-1.09611
1.09699
0.0266255
-0.0273622
-0.922247
0.922983
0.0280318
-0.0286892
-0.780621
0.781278
0.0287468
-0.0280216
-0.657578
0.656852
0.0258464
-0.0215778
-0.515762
0.511493
0.0164289
-0.0105874
-0.32845
0.322608
0.00609465
-0.00255347
-0.149236
0.145695
0.0006841
-0.024207
0.0235229
-0.0287327
0.0286879
4.48099e-05
-0.0012669
0.00272051
-0.228935
0.227482
-0.00488641
0.0068199
-0.402914
0.400981
-0.00813943
0.00824837
-0.553452
0.553343
-0.00726208
0.00575982
-0.670409
0.671911
-0.00367875
0.00156349
-0.789755
0.791871
0.00093087
-0.00334051
-0.934188
0.936597
0.00610619
-0.0087259
-1.10918
1.1118
0.0116762
-0.0144091
-1.32019
1.32292
0.0173975
-0.020062
-1.57498
1.57765
0.0224031
-0.0244254
-1.57085
1.57287
0.0258766
-0.027115
-1.31074
1.31198
0.0279497
-0.0285859
-1.09797
1.0986
0.0290595
-0.0295906
-0.923628
0.924159
0.030094
-0.030542
-0.781739
0.782187
0.0303082
-0.0291254
-0.655904
0.654722
0.0264603
-0.0217479
-0.507072
0.50236
0.0164079
-0.010545
-0.316807
0.310945
0.00608477
-0.00256552
-0.142197
0.138678
0.000693393
-0.0228456
0.0221522
-0.0286989
0.0287643
-6.54421e-05
-0.000381892
0.00125363
-0.226331
0.225459
-0.00272567
0.00411937
-0.399338
0.397944
-0.00506679
0.0050099
-0.553403
0.55346
-0.00392775
0.00234149
-0.673601
0.675188
-0.000134356
-0.00212955
-0.794006
0.79627
0.00480174
-0.0073718
-0.938926
0.941496
0.0103048
-0.0130621
-1.11435
1.11711
0.0161368
-0.018948
-1.32559
1.3284
0.0219678
-0.0245959
-1.58023
1.58286
0.0268352
-0.0286936
-1.57476
1.57661
0.0299666
-0.0309922
-1.31306
1.31409
0.0316163
-0.0320092
-1.09938
1.09977
0.0322663
-0.0325769
-0.924593
0.924903
0.03289
-0.0330542
-0.78233
0.782495
0.0325256
-0.0307913
-0.65333
0.651596
0.0275898
-0.0223798
-0.497496
0.492286
0.0167695
-0.0107661
-0.305072
0.299069
0.00623054
-0.00264241
-0.135159
0.131571
0.000719586
-0.021458
0.0207385
-0.028888
0.0290683
-0.000180239
0.000539852
-0.000284531
-0.224903
0.224648
-0.000441949
0.00121724
-0.39687
0.396095
-0.00168176
0.00137378
-0.553753
0.554061
-0.00013968
-0.00160663
-0.677023
0.678769
0.00400173
-0.00646384
-0.798565
0.801027
0.00936416
-0.0121422
-0.943987
0.946765
0.0152952
-0.0182367
-1.1198
1.12274
0.0214833
-0.0244104
-1.33116
1.33409
0.0274942
-0.0301045
-1.58541
1.58802
0.0322476
-0.0339351
-1.57833
1.58002
0.0350208
-0.0358152
-1.31493
1.31572
0.0362162
-0.0363526
-1.1003
1.10043
0.0363766
-0.0364492
-0.925101
0.925173
0.0365635
-0.0363595
-0.782287
0.782083
0.0354477
-0.0330974
-0.649692
0.647342
0.0292865
-0.0234913
-0.486905
0.48111
0.017508
-0.0112355
-0.292998
0.286726
0.0065189
-0.00277739
-0.127942
0.1242
0.000760599
-0.0200113
0.0192507
-0.0293315
0.0296584
-0.000326939
0.00156278
-0.00195009
-0.224738
0.225125
0.00207413
-0.00202723
-0.395641
0.395594
0.00217723
-0.00284719
-0.554721
0.555391
0.00431564
-0.00625625
-0.680818
0.682759
0.00888892
-0.0116001
-0.803517
0.806228
0.0147898
-0.0178331
-0.949468
0.952512
0.0212671
-0.0244449
-1.12563
1.12881
0.0279138
-0.030995
-1.33697
1.34005
0.0341744
-0.0367841
-1.59056
1.59317
0.0388325
-0.0403321
-1.58154
1.58304
0.0412096
-0.0417586
-1.31629
1.31684
0.0419187
-0.0417739
-1.10068
1.10053
0.0415401
-0.0413565
-0.925097
0.924914
0.0412659
-0.0405874
-0.781455
0.780776
0.0392079
-0.0361388
-0.644845
0.641776
0.0316145
-0.0251119
-0.475113
0.468611
0.0186291
-0.0119466
-0.280326
0.273644
0.00694164
-0.00296522
-0.120381
0.116404
0.000814474
-0.0184772
0.0176627
-0.0300553
0.0305608
-0.000505564
0.00285548
-0.00400573
-0.225911
0.227061
0.00499985
-0.00575713
-0.395871
0.396628
0.0066286
-0.0077653
-0.556535
0.557672
0.00955695
-0.0117732
-0.685088
0.687304
0.01473
-0.0177645
-0.808975
0.812009
0.0213204
-0.024695
-0.955487
0.958861
0.028477
-0.0319456
-1.13194
1.13541
0.0356869
-0.0389552
-1.34309
1.34636
0.0422485
-0.0448557
-1.59569
1.5983
0.0467927
-0.0480855
-1.58436
1.58566
0.0487174
-0.0490082
-1.31711
1.3174
0.0489074
-0.0484533
-1.10046
1.10001
0.0479411
-0.0474855
-0.92452
0.924065
0.0470688
-0.0459282
-0.77969
0.778549
0.0439319
-0.0400078
-0.638574
0.63465
0.0346327
-0.0272639
-0.461861
0.454492
0.020132
-0.0128876
-0.266769
0.259525
0.00748689
-0.00319885
-0.112314
0.108026
0.00087878
-0.0168306
0.0159518
-0.0311341
0.0318629
-0.000728776
0.00436612
-0.00640812
-0.228619
0.230661
0.00846694
-0.0101389
-0.397769
0.399441
0.0118395
-0.0135604
-0.559453
0.561174
0.0158093
-0.0184014
-0.689999
0.692591
0.0217905
-0.0252329
-0.815088
0.81853
0.0292439
-0.0330263
-0.962177
0.96596
0.0372328
-0.0410522
-1.13884
1.14266
0.0451155
-0.0485985
-1.34958
1.35307
0.0520132
-0.0546029
-1.60081
1.6034
0.0563966
-0.0574375
-1.58675
1.58779
0.0577862
-0.0577726
-1.31732
1.31731
0.0573822
-0.056593
-1.09959
1.0988
0.0557745
-0.05501
-0.923325
0.92256
0.0541909
-0.0525298
-0.777029
0.775368
0.0497752
-0.0448135
-0.63059
0.625629
0.0384027
-0.0299639
-0.446814
0.438375
0.0220069
-0.0140379
-0.252018
0.244049
0.0081354
-0.00346697
-0.103592
0.0989238
0.000949554
-0.0150527
0.0141032
-0.0326521
0.0336701
-0.00101795
0.00625453
-0.00935618
-0.233109
0.236211
0.0126953
-0.0154311
-0.401606
0.404342
0.018106
-0.0205364
-0.563754
0.566185
0.0233843
-0.0264714
-0.695765
0.698852
0.0304215
-0.0343795
-0.822026
0.825984
0.0389516
-0.0432284
-0.969695
0.973972
0.0479396
-0.0521643
-1.14645
1.15067
0.0565852
-0.0602906
-1.35649
1.3602
0.0638075
-0.0663377
-1.60586
1.60839
0.0679308
-0.0686515
-1.58859
1.58932
0.0686518
-0.0682634
-1.31679
1.3164
0.0675561
-0.0663917
-1.09798
1.09682
0.0652286
-0.0641601
-0.921446
0.920377
0.062814
-0.0605389
-0.773328
0.771052
0.0568554
-0.050613
-0.620519
0.614277
0.0429318
-0.033178
-0.429558
0.419804
0.0242021
-0.0153458
-0.23575
0.226894
0.00884813
-0.00374903
-0.0940862
0.0889871
0.00102005
-0.0131337
0.0121137
-0.0347342
0.0361529
-0.00141872
0.00872666
-0.0131826
-0.239708
0.244164
0.018019
-0.0219975
-0.407748
0.411726
0.0258169
-0.02911
-0.569766
0.573059
0.0327352
-0.0364786
-0.702648
0.706392
0.0411557
-0.0457615
-0.83
0.834606
0.0510135
-0.0558706
-0.978216
0.983073
0.0611528
-0.0658128
-1.15486
1.15952
0.0705872
-0.0744771
-1.36382
1.36771
0.0780187
-0.0803921
-1.61074
1.61311
0.081681
-0.0819807
-1.58974
1.59004
0.0815686
-0.0807081
-1.3154
1.31454
0.0796283
-0.0780694
-1.09553
1.09397
0.0765696
-0.0750897
-0.918851
0.917371
0.0732223
-0.0701202
-0.768353
0.765251
0.0652605
-0.0574274
-0.60786
0.600027
0.0481823
-0.0368246
-0.409597
0.398239
0.0266231
-0.0167288
-0.21765
0.207755
0.00956694
-0.00401639
-0.0837097
0.0781592
0.00108146
-0.0110782
0.00999674
-0.0375829
0.0395652
-0.00198231
0.0121551
-0.0183418
-0.248933
0.25512
0.024981
-0.0304125
-0.416694
0.422125
0.0355858
-0.0399372
-0.577885
0.582236
0.0445485
-0.0491499
-0.710992
0.715594
0.0547594
-0.0601586
-0.839266
0.844665
0.0662054
-0.0717077
-0.987904
0.993406
0.0775852
-0.0826575
-1.16411
1.16919
0.0877114
-0.0916783
-1.37144
1.37541
0.0950917
-0.0971452
-1.61521
1.61726
0.0979672
-0.0976927
-1.58996
1.58969
0.0967682
-0.0953337
-1.313
1.31157
0.0938065
-0.0918252
-1.09216
1.09018
0.0899532
-0.0879288
-0.915271
0.913247
0.0855355
-0.0813442
-0.761626
0.757435
0.0750098
-0.0651872
-0.591968
0.582145
0.0540185
-0.0407315
-0.38636
0.373073
0.0291018
-0.018055
-0.197439
0.186392
0.0102053
-0.00422897
-0.0724446
0.0664683
0.00112207
-0.00890982
0.00778775
-0.0415177
0.0443749
-0.0028572
0.0171369
-0.0255844
-0.261529
0.269976
0.0344656
-0.041655
-0.429108
0.436298
0.0484719
-0.0540898
-0.588596
0.594214
0.059991
-0.065723
-0.721216
0.726948
0.0724607
-0.0787641
-0.850091
0.856395
0.0856597
-0.091791
-0.998861
1.00499
0.0981762
-0.103522
-1.17411
1.17946
0.108649
-0.112469
-1.3791
1.38292
0.11548
-0.116952
-1.6189
1.62038
0.117067
-0.116008
-1.58892
1.58786
0.114409
-0.11231
-1.30939
1.30729
0.110266
-0.107826
-1.08778
1.08534
0.105565
-0.102865
-0.910419
0.907719
0.0997803
-0.0941705
-0.752568
0.746958
0.0859647
-0.0736607
-0.572003
0.559699
0.0601515
-0.044598
-0.359232
0.343679
0.031375
-0.0191359
-0.174944
0.162704
0.0106476
-0.00433682
-0.0603778
0.054067
0.00112808
-0.00667618
0.00554809
-0.0471206
0.0514593
-0.00433871
0.0248553
-0.0363838
-0.278652
0.29018
0.0481849
-0.0577081
-0.446028
0.455551
0.0665558
-0.0736411
-0.602501
0.609587
0.0810816
-0.0883314
-0.733682
0.740932
0.0962647
-0.103393
-0.862677
0.869806
0.110972
-0.117511
-1.01097
1.01751
0.124085
-0.129365
-1.18448
1.18976
0.134151
-0.137427
-1.38625
1.38952
0.139596
-0.140094
-1.62123
1.62173
0.139168
-0.137067
-1.58617
1.58407
0.134618
-0.131721
-1.30435
1.30146
0.129075
-0.126133
-1.08226
1.07932
0.123375
-0.119991
-0.904111
0.900727
0.115898
-0.108378
-0.74045
0.73293
0.0977363
-0.0823612
-0.546912
0.531537
0.0660813
-0.047983
-0.327625
0.309527
0.0330952
-0.0197474
-0.150187
0.136839
0.0107662
-0.00428819
-0.0477428
0.0412647
0.00108534
-0.00445105
0.00336571
-0.0554708
0.0629181
-0.00744725
0.0384183
-0.0544332
-0.302463
0.318478
0.0703177
-0.0830652
-0.469097
0.481845
0.0940988
-0.102549
-0.620046
0.628496
0.11149
-0.120016
-0.748791
0.757318
0.128874
-0.136412
-0.876721
0.884259
0.144085
-0.150426
-1.02363
1.02997
0.156505
-0.161071
-1.1944
1.19897
0.164834
-0.166944
-1.39199
1.3941
0.167685
-0.166752
-1.62133
1.6204
0.164423
-0.160973
-1.58119
1.57774
0.157446
-0.153568
-1.29762
1.29374
0.150244
-0.146802
-1.07545
1.07201
0.143438
-0.139191
-0.896113
0.891866
0.133568
-0.123394
-0.724123
0.713949
0.109562
-0.0904317
-0.515384
0.496253
0.071093
-0.0503851
-0.291127
0.270419
0.0339582
-0.0197599
-0.123528
0.10933
0.010517
-0.00407963
-0.0349522
0.0285148
0.000993676
-0.00233551
0.00134183
-0.0698521
0.0740219
-0.00416979
0.0294272
-0.0433012
-0.336986
0.35086
0.0573756
-0.0690398
-0.499773
0.511437
0.079487
-0.0892153
-0.640814
0.650542
0.100078
-0.110028
-0.765425
0.775375
0.121091
-0.130969
-0.890922
0.9008
0.141511
-0.150901
-1.03537
1.04476
0.160709
-0.169119
-1.20245
1.21086
0.177472
-0.184137
-1.39506
1.40172
0.190067
-0.193938
-1.61827
1.62214
0.195729
-0.196032
-1.5733
1.5736
0.195213
-0.193752
-1.28883
1.28737
0.192579
-0.190997
-1.06714
1.06555
0.189166
-0.184931
-0.885731
0.881496
0.177049
-0.161652
-0.701928
0.686531
0.140547
-0.112544
-0.476065
0.448062
0.0858009
-0.0585848
-0.249743
0.222527
0.0382335
-0.0215433
-0.0958178
0.0791275
0.0111325
-0.00418169
-0.0225922
0.0156413
0.000983734
-0.000430361
-0.000553373
-0.0812422
0.0793912
0.00185097
0.00756567
-0.0167232
-0.367559
0.376717
0.0274231
-0.0356943
-0.527806
0.536077
0.0440871
-0.0523324
-0.662842
0.671088
0.0623312
-0.0716445
-0.784998
0.794311
0.0815679
-0.090646
-0.910127
0.919205
0.100296
-0.108548
-1.05385
1.0621
0.117348
-0.124521
-1.21907
1.22624
0.131582
-0.136919
-1.40807
1.41341
0.141094
-0.143402
-1.6252
1.6275
0.143651
-0.142419
-1.57321
1.57198
0.140062
-0.136934
-1.2851
1.28197
0.134141
-0.131104
-1.06149
1.05845
0.127906
-0.122577
-0.872818
0.867489
0.114049
-0.100105
-0.666992
0.653047
0.0835321
-0.0636076
-0.418462
0.398537
0.0463948
-0.030624
-0.195937
0.180166
0.0196444
-0.0110496
-0.0635976
0.0550028
0.00577984
-0.00220658
-0.00905346
0.00548021
0.000468734
0.00161138
-0.00208011
-0.0826986
0.0797684
0.00293025
-0.00174045
-0.00357626
-0.388211
0.393527
0.0108847
-0.0168589
-0.548553
0.554527
0.0230649
-0.0302884
-0.681477
0.6887
0.038933
-0.0470169
-0.802751
0.810835
0.0558544
-0.0637682
-0.927529
0.935443
0.0719232
-0.0792471
-1.07016
1.07748
0.0868302
-0.0930746
-1.23295
1.23919
0.0987298
-0.102746
-1.41802
1.42204
0.105766
-0.106773
-1.62904
1.63005
0.10574
-0.103233
-1.57009
1.56758
0.0998604
-0.095829
-1.27844
1.27441
0.0917638
-0.087492
-1.0532
1.04893
0.0831856
-0.0772392
-0.857831
0.851885
0.0693859
-0.0578325
-0.635975
0.624422
0.0458284
-0.0329621
-0.377061
0.364195
0.023284
-0.0152983
-0.164202
0.156217
0.0100507
-0.00599657
-0.0466222
0.0425681
0.00335551
-0.0012539
-0.00206458
-3.70241e-05
0.000290109
0.00275454
-0.00304465
-0.0813932
0.0786072
0.00278595
-0.00547274
0.00293525
-0.401962
0.404499
0.00179073
-0.00630451
-0.56386
0.568374
0.0115243
-0.017566
-0.696847
0.702888
0.0249244
-0.0318277
-0.818293
0.825197
0.0393626
-0.0461296
-0.942814
0.94958
0.0534742
-0.059646
-1.08434
1.09051
0.0662044
-0.0711112
-1.24497
1.24988
0.0758049
-0.0789549
-1.42576
1.42891
0.0808545
-0.0806283
-1.63051
1.63028
0.0787972
-0.0755116
-1.56442
1.56113
0.0714344
-0.0662529
-1.2699
1.26472
0.0613927
-0.0561001
-1.04289
1.0376
0.0507922
-0.0448205
-0.841789
0.835817
0.0377735
-0.0289839
-0.610128
0.601338
0.0210183
-0.0138929
-0.350193
0.343067
0.00944607
-0.0063271
-0.147432
0.144313
0.00444128
-0.00298042
-0.038009
0.0365481
0.00181258
-0.000748681
0.00204012
-0.00310402
0.000194127
0.00359936
-0.00379349
-0.0798047
0.0773151
0.00248963
-0.00670605
0.00582315
-0.411069
0.411952
-0.00236079
-0.000867608
-0.5761
0.579328
0.0050877
-0.0105497
-0.709701
0.715163
0.0167023
-0.0227315
-0.831403
0.837432
0.0292208
-0.0350556
-0.955872
0.961707
0.0413009
-0.0467253
-1.09652
1.10194
0.0521939
-0.0565722
-1.2546
1.25898
0.0604232
-0.0628302
-1.43162
1.43403
0.0639413
-0.0630021
-1.62977
1.62883
0.0605102
-0.0563727
-1.55703
1.55289
0.0517325
-0.0460816
-1.25928
1.25363
0.0406245
-0.034472
-1.03099
1.02483
0.0287504
-0.0226472
-0.826092
0.819988
0.0167295
-0.0101494
-0.59035
0.58377
0.00527288
-0.00203438
-0.334319
0.331081
0.000768075
-0.000477374
-0.139721
0.13943
0.000576506
-0.000665274
-0.0343919
0.0344807
0.000534198
-0.000265082
0.00426034
-0.00452946
8.40156e-05
0.00422294
-0.00430696
-0.0782885
0.0761354
0.00215316
-0.0066759
0.00634997
-0.417218
0.417544
-0.00431443
0.0017268
-0.585439
0.588026
0.00230667
-0.0069524
-0.72054
0.725186
0.0122077
-0.0174155
-0.842669
0.847877
0.0231468
-0.028314
-0.967167
0.972335
0.0339572
-0.0386349
-1.10705
1.11173
0.0434465
-0.0472587
-1.26301
1.26682
0.050468
-0.0523211
-1.4361
1.43795
0.0528356
-0.0517499
-1.62769
1.62661
0.0487579
-0.0443322
-1.54819
1.54376
0.039314
-0.0332573
-1.24763
1.24157
0.0276549
-0.0209634
-1.01787
1.01118
0.0149029
-0.00877611
-0.810977
0.80485
0.00356536
0.00136292
-0.575034
0.570105
-0.00435477
0.00548443
-0.325443
0.324314
-0.00484839
0.00362357
-0.137552
0.138777
-0.00248045
0.00130711
-0.0341107
0.035284
-0.00060709
0.000197176
0.00482349
-0.00441358
-3.19685e-05
0.00455429
-0.00452232
-0.0770808
0.0753809
0.00169994
-0.00586733
0.00591687
-0.421665
0.421616
-0.00432465
0.00242077
-0.593512
0.595416
0.00130561
-0.0054825
-0.729851
0.734028
0.0104311
-0.0148818
-0.852676
0.857127
0.0198737
-0.0244067
-0.977446
0.981979
0.0296902
-0.0338657
-1.1164
1.12058
0.0380398
-0.0415272
-1.2704
1.27388
0.0447155
-0.0462207
-1.43975
1.44126
0.0465273
-0.0450929
-1.62503
1.6236
0.0421821
-0.0373194
-1.53902
1.53416
0.032327
-0.0262843
-1.23524
1.2292
0.0204147
-0.0137943
-1.00407
0.997452
0.00760003
-0.0012233
-0.796453
0.790076
-0.00309452
0.00712327
-0.562597
0.558568
-0.0093841
0.00948765
-0.320481
0.320378
-0.00819715
0.00637119
-0.138519
0.140345
-0.00460095
0.00276832
-0.0360073
0.0378399
-0.0014893
0.000590306
0.0039958
-0.00309681
-0.000136712
0.0045699
-0.00443319
-0.0763597
0.0750076
0.00135209
-0.00483864
0.00504532
-0.425075
0.424868
-0.00368973
0.00189866
-0.600454
0.602245
0.00164015
-0.00533274
-0.738147
0.74184
0.00953448
-0.0137891
-0.861505
0.86576
0.0183525
-0.0229685
-0.986292
0.990908
0.0274491
-0.031365
-1.12481
1.12873
0.0355704
-0.0387049
-1.27721
1.28034
0.0412727
-0.0430415
-1.44261
1.44438
0.0433254
-0.0419512
-1.62215
1.62077
0.0389597
-0.0344118
-1.52942
1.52487
0.0294986
-0.0235194
-1.22278
1.2168
0.0178009
-0.0112496
-0.990436
0.983885
0.00519106
0.000838547
-0.782371
0.776341
-0.005342
0.00884746
-0.551806
0.5483
-0.0107329
0.0108551
-0.317503
0.317381
-0.00953972
0.00748861
-0.140692
0.142743
-0.00559542
0.00353798
-0.0391112
0.0411687
-0.00199181
0.000847159
0.00220785
-0.00106319
-0.000213975
0.0043291
-0.00411513
-0.0761598
0.0750239
0.00113585
-0.00358916
0.00358256
-0.428047
0.428053
-0.00253708
0.000798099
-0.60675
0.608488
0.0025696
-0.00610403
-0.745779
0.749313
0.0100988
-0.0139097
-0.869775
0.873586
0.0185429
-0.0223165
-0.994916
0.99869
0.0267037
-0.030373
-1.13276
1.13643
0.0343821
-0.0376281
-1.28341
1.28666
0.040374
-0.0418052
-1.44586
1.44729
0.0422807
-0.0411469
-1.61927
1.61814
0.0386217
-0.0341936
-1.52016
1.51573
0.0295546
-0.0238155
-1.21091
1.20517
0.0183562
-0.0119965
-0.97697
0.97061
0.006267
-0.000239361
-0.768994
0.762966
-0.00424162
0.0076322
-0.541994
0.538604
-0.00956823
0.0099859
-0.314837
0.314419
-0.00919112
0.00752116
-0.143066
0.144736
-0.00582214
0.00382776
-0.0425671
0.0445615
-0.00224389
0.00100648
-5.7462e-05
0.00129487
-0.000279686
0.00392591
-0.00364622
-0.0762369
0.0754339
0.000803022
-0.00244293
0.00198342
-0.431055
0.431514
-0.00109928
-0.000739105
-0.612237
0.614075
0.00374839
-0.00711554
-0.752843
0.75621
0.010911
-0.0148202
-0.877234
0.881143
0.0187934
-0.0226883
-1.00264
1.00654
0.0269895
-0.0304011
-1.1405
1.14391
0.0344395
-0.0375749
-1.28967
1.2928
0.0402992
-0.0421779
-1.44909
1.45097
0.0430368
-0.0420742
-1.617
1.61604
0.0396767
-0.035852
-1.51145
1.50762
0.0316762
-0.0262473
-1.19932
1.19389
0.0210135
-0.0152056
-0.964128
0.95832
0.00940601
-0.00376411
-0.755945
0.750303
-0.000936363
0.00453818
-0.532591
0.528989
-0.00643086
0.00738755
-0.311688
0.310732
-0.00720689
0.00625211
-0.14478
0.145734
-0.00499012
0.00341858
-0.0457234
0.047295
-0.00209398
0.000952067
-0.00233823
0.00348014
-0.000276891
0.00340569
-0.0031288
-0.076735
0.0760983
0.000636744
-0.00147007
0.00109201
-0.434261
0.434639
0.000293812
-0.00211308
-0.617757
0.619576
0.00524844
-0.00845889
-0.759345
0.762555
0.012079
-0.0155594
-0.884694
0.888174
0.0196278
-0.0231768
-1.01041
1.01396
0.0273927
-0.0312068
-1.14775
1.15157
0.0348384
-0.0382597
-1.29595
1.29937
0.0413498
-0.0432612
-1.45271
1.45462
0.0444212
-0.0441703
-1.61527
1.61502
0.0421457
-0.0388937
-1.50366
1.50041
0.0349178
-0.0299796
-1.18855
1.18361
0.0252182
-0.0196494
-0.952105
0.946536
0.0143036
-0.00878692
-0.743568
0.738052
0.00409808
9.59579e-05
-0.523008
0.518814
-0.00247967
0.0038956
-0.307679
0.306263
-0.00444403
0.00418305
-0.14524
0.145501
-0.00353553
0.00255917
-0.0479874
0.0489638
-0.00163751
0.000777861
-0.00428674
0.00514639
-0.000243982
0.00290293
-0.00265895
-0.0775196
0.0770653
0.000454323
-0.000418186
-7.22572e-05
-0.43764
0.438131
0.00151529
-0.00361306
-0.622963
0.625061
0.00664227
-0.00967808
-0.765572
0.768608
0.0133715
-0.0166816
-0.891612
0.894922
0.0205702
-0.0242226
-1.01797
1.02162
0.0283165
-0.0320714
-1.1552
1.15896
0.0358966
-0.0393137
-1.30268
1.3061
0.0425536
-0.0451772
-1.45679
1.45941
0.0467317
-0.0467244
-1.61467
1.61467
0.0453493
-0.042399
-1.49705
1.4941
0.0389933
-0.0346467
-1.17867
1.17432
0.030019
-0.0247802
-0.940722
0.935483
0.0196975
-0.0141683
-0.731661
0.726132
0.00950834
-0.00490749
-0.513196
0.508595
0.00200304
0.000111016