/*--------------------------------*- C++ -*----------------------------------*\
| =========                 |                                                 |
| \\      /  F ield         | OpenFOAM: The Open Source CFD Toolbox           |
|  \\    /   O peration     | Version:  4.0                                   |
|   \\  /    A nd           | Web:      www.OpenFOAM.org                      |
|    \\/     M anipulation  |                                                 |
\*---------------------------------------------------------------------------*/
FoamFile
{
    version     2.0;
    format      ascii;
    class       surfaceScalarField;
    location    "58";
    object      phi;
}
// * * * * * * * * * * * * * * * * * * * * * * * * * * * * * * * * * * * * * //

dimensions      [0 3 -1 0 0 0 0];

internalField   nonuniform List<scalar> 
1300
(
3.75095
5.62643
-3.32194
3.75095
-7.75796
5.62643
-4.37328
4.37328
-0.521651
0.521651
1.87639
1.87456
-2.7273
2.7273
-2.20559
2.20559
-2.53517
2.53517
-5.24642
5.24642
-5.06829
5.06829
4.65708
-4.65708
-6.29188
6.29188
-0.968631
0.968631
-3.65921
3.65921
3.16965
-3.16965
-2.14338
2.14338
-0.0408086
0.0408086
-0.553482
4.30443
3.19747
3.19747
-2.0086
2.0086
-4.8679
4.8679
6.21803
-6.21803
5.32332
-5.32332
-2.00138
-2.44672
1.82184
-11.5256
-5.93612
-5.93612
-8.44039
8.44039
-2.81396
2.81247
2.94573
-2.94573
-1.77608
1.77608
-4.33285
-0.0404272
-4.33285
4.34344
0.0298361
4.34344
-0.586515
0.0648642
-0.586515
3.96807
-3.96807
0.429873
0.0917777
0.429873
3.06525
-3.06525
-1.87711
3.7535
1.87385
-1.87189
6.17632
-1.87907
3.75363
-6.01357
6.01357
-2.94412
0.216823
-2.94412
2.545
0.182294
2.545
-6.83681
6.83681
-2.24546
0.039868
-2.24546
2.17599
0.029595
2.17599
2.87888
-2.87888
-2.64614
0.110961
-2.64614
2.40658
0.128598
2.40658
0.353531
5.2729
-5.97996
8.79243
-5.2729
0.026483
5.20837
0.0380488
5.20837
-5.10578
0.0374989
-5.10578
5.01285
0.0554309
5.01285
4.7438
-0.0867233
4.7438
-4.77428
0.117196
-4.77428
-3.369
-4.04365
-6.44175
0.149876
-6.44175
-1.0506
0.0819736
-1.0506
0.862914
0.105717
0.862914
-3.67998
3.67998
-4.07944
0.42023
-4.07944
3.12403
0.0456163
3.12403
1.86849
1.88246
5.61945
-5.61945
2.4498
-2.12881
-0.0145717
-2.12881
-2.18939
-3.13393
2.18939
-0.0460043
-0.273151
0.232342
-0.273151
3.15941
0.0380658
3.15941
2.23857
0.168008
-2.23857
0.229972
3.26713
-3.26713
1.33851
0.670089
1.33851
-5.56533
5.56533
4.95544
0.057412
-4.95544
0.0875398
6.15614
0.0618838
6.15614
-6.19951
-0.0185172
-6.19951
2.53838
-4.9851
-2.60693
6.11277
0.179108
-6.11277
0.176647
2.91733
0.0283965
2.91733
-2.91986
2.91986
-2.9844
0.0386718
-2.9844
-2.17515
0.399069
-2.17515
1.47725
0.298828
1.47725
-4.23061
-0.102247
-4.23061
-4.23229
0.152848
4.23229
0.111154
1.12703
-1.12703
-0.685774
0.0992585
-0.685774
-4.09291
-0.137696
4.09291
-0.124838
-3.85841
-0.109662
-3.85841
-3.02434
0.0399415
3.02434
0.0409151
3.11283
0.0465796
-3.11283
0.0475716
-1.87082
3.75328
-1.88013
3.75398
-5.63342
-0.380149
-5.63342
6.32302
-0.309451
6.32302
3.31344
0.345768
-3.31344
0.36932
2.40877
0.136237
2.40877
-6.80173
-0.0350802
-6.80173
6.81922
0.017591
6.81922
2.31276
0.0960087
-2.31276
0.0673016
2.14967
0.0263258
2.14967
2.89811
-0.0192334
2.89811
-2.87366
-0.00521664
-2.87366
2.79673
-2.79673
2.72563
0.0711028
-2.72563
0.0794945
-11.133
11.1145
-0.0351778
-11.0978
5.17319
5.17319
4.17142
0.572382
4.17142
-4.99146
0.217183
-4.99146
2.68354
-5.29048
3.07395
-6.44295
4.66119
-16.1868
4.30491
-8.34857
6.68226
-6.68226
6.57063
0.111624
-6.57063
0.12888
-1.16176
0.111152
-1.16176
-3.07652
-0.603459
-3.07652
4.32412
-0.644139
4.32412
-3.02829
3.02829
-3.07754
0.0492527
3.07754
0.0464867
2.12458
0.0250861
-2.12458
-0.00423053
0.351501
0.0783727
-0.351501
0.0783502
3.47592
-0.20879
3.47592
-3.0715
-0.195629
-3.0715
-1.25514
0.0933846
1.25514
0.083366
-5.8148
0.249474
-5.8148
-11.1908
0.0929593
-11.1528
-6.10655
-6.10655
2.33384
11.1263
-2.89223
0.0185666
2.89223
0.0251016
2.97527
0.0530214
-2.97527
0.0554132
-2.86085
0.0641179
2.86085
0.0590047
-2.55026
0.375107
-2.55026
-1.07385
1.07385
-1.24106
0.167211
1.24106
0.236192
1.39712
-0.270097
1.39712
0.772206
0.0907079
-0.772206
0.0864319
-3.76279
-0.095619
-3.76279
6.55597
-0.232953
6.55597
-2.9588
-0.112709
2.9588
-0.0606837
-0.0333563
11.1479
-5.13983
0.034049
5.13983
-11.2097
11.2438
-3.22125
0.670993
3.22125
0.950171
5.28476
0.280562
-5.28476
0.293305
6.76761
0.0516062
-6.76761
0.0853526
-2.58403
-0.492491
-2.58403
-5.05081
-0.582608
5.05081
-0.72669
-11.4751
-0.202931
11.6781
-11.4197
6.01773
0.138412
-6.01773
11.3822
-1.03007
-0.0969607
1.03007
0.0437822
1.72354
-0.326416
1.72354
3.66657
-0.190649
-3.66657
-0.0962165
-6.7077
-0.0940273
6.7077
-0.151728
-2.13979
-0.444244
2.13979
-0.416245
-4.26709
4.30515
1.90923
-2.40123
-2.58388
-5.53516
1.85187
1.90141
4.30167
-10.1548
-6.03202
-9.97814
7.26226
-6.96895
-9.24815
9.16143
7.84151
-7.95118
-5.78496
5.83145
6.48272
-6.44181
1.87878
1.87472
7.96472
-7.7479
-15.6296
15.2495
7.50436
-7.46449
15.7804
-15.8155
-17.8609
17.9125
-5.69489
5.80585
-6.73716
6.73195
-6.9698
6.90912
-2.8311
-3.61185
13.1228
-12.973
8.53711
-8.55168
-8.58585
9.00608
3.38257
0.922588
3.42915
-1.88218
3.76096
-1.87145
3.78068
2.70776
-5.53886
2.58271
-5.16659
4.32503
4.21208
-4.27902
-1.25613
-5.92375
5.95214
-5.81559
5.87459
9.11215
-9.15258
-1.88516
3.75987
-1.86882
3.77023
-3.42503
-2.35994
3.37941
0.922262
8.07868
5.04416
-8.25779
-1.72034
-8.01638
7.82573
-8.2198
8.02417
-0.434979
5.81908
-5.3841
4.43292
-1.56189
7.38097
5.70037
5.91755
5.86631
-5.58575
1.10264
-6.48674
-6.3992
-2.35704
2.4563
2.24065
-2.14887
6.10509
1.73642
5.98025
-5.73548
-2.21569
-5.8311
3.82075
2.0107
3.87001
4.07811
2.40462
4.11805
3.03057
-3.03587
0.00529783
-3.05656
6.08713
0.724002
-5.4165
-4.49423
4.96639
2.99833
5.14869
-5.52109
-2.22681
-5.15177
-9.55057
-6.07904
-10.1332
10.096
5.15349
9.78652
-11.9698
11.8181
4.79073
2.71363
4.82032
-4.91873
-2.54576
-4.85143
11.638
-2.61594
-9.02209
-10.3267
-7.53418
10.3091
5.47133
10.9691
6.94341
11.0544
4.42421
7.21381
-9.89555
2.36137
-3.8609
-1.83399
-3.7814
3.66259
2.14326
3.79119
-4.21649
-2.52067
-4.19793
-4.29386
-2.67595
4.31309
2.41886
-4.41404
-3.80576
4.52675
2.38237
4.03396
-10.066
4.31461
-7.92646
-9.20221
-3.77076
-9.07333
3.49941
2.60305
-6.10245
-2.03946
8.46218
-4.2501
7.20604
-5.16625
-3.38543
-5.17048
-6.86214
-1.72371
-6.70929
-8.88576
8.39327
-9.18454
8.5404
12.5511
-5.66901
-6.88206
-3.96838
-2.47343
3.92081
-0.491664
-3.7106
3.71589
0.050365
3.83105
4.75364
4.26197
-3.88499
-1.9306
-3.82957
3.82647
2.04812
3.89059
6.82212
2.29003
6.85196
-6.5851
-2.56748
-6.68735
9.04678
-8.64771
2.85356
-2.76018
5.38418
2.64
-5.17538
-2.84099
6.21447
-3.21557
-2.9989
-12.2003
10.5344
1.66588
-4.81931
-0.386383
-0.345574
-5.49017
-3.75798
5.37298
0.544577
11.079
7.32099
-5.5124
5.76187
6.16567
6.22308
-0.176122
5.81274
-5.14174
5.2671
-2.5518
-2.7153
5.44323
-5.58093
-1.24411
-5.4927
4.24859
0.399324
1.55185
-1.31951
-1.8351
-0.521943
-1.74867
1.32985
0.9108
1.40823
0.929256
1.52705
-2.94995
0.556964
2.39298
-2.02069
-1.59191
-3.77295
-1.12785
4.90081
5.71449
2.11124
-5.61827
-0.212833
2.57994
-2.47422
-0.752637
-3.02032
2.23123
-2.98387
-3.67413
-2.02948
5.70361
-3.36998
-0.45959
3.31696
0.553044
-3.82687
-2.09687
3.7882
0.329849
-3.12725
6.19052
-3.06327
-5.05785
2.52785
3.55928
4.53855
-4.78957
2.44732
2.34225
-1.2303
4.24348
0.90521
4.37972
-6.9057
4.67889
5.78454
3.22154
-6.13031
0.97854
-5.92716
8.53826
-7.36458
-1.17367
4.13742
4.40084
7.08561
5.46546
-5.68206
12.7677
-1.19587
-6.16871
7.12303
-3.90149
4.84891
-8.7504
-10.3144
4.14565
-9.16206
10.937
-1.77497
-3.62556
-8.34425
12.7876
-1.20932
-11.5783
8.5772
-4.23281
-4.31534
8.54814
-6.84874
6.8611
-1.98524
-4.87586
-10.1144
-5.70114
10.2084
1.60969
-9.88062
12.242
-2.66681
4.10361
0.716715
4.12993
3.28208
-5.45859
2.17651
3.56666
-5.5519
2.08646
-7.54505
-6.73441
12.0656
-5.33116
-10.5052
-9.52424
-0.980941
2.53353
9.70846
-9.47694
7.43153
2.04541
3.30265
0.587941
-3.37375
-0.407647
0.237008
4.53245
-4.76946
4.02819
4.1962
3.29624
1.23622
3.84449
2.10765
-3.8696
-0.328331
-4.16192
1.48598
-1.74307
-3.69132
5.1773
-4.06605
0.374722
-2.74647
-3.5002
6.24666
-4.58046
3.03634
3.15418
5.08446
-4.91294
1.41275
-2.39367
-2.51927
2.6533
-4.39637
1.98867
3.18863
4.37104
0.565281
5.874
6.19157
-8.47705
0.550591
11.2357
-9.51539
2.46886
8.58554
-9.9004
0.376162
-8.69717
0.992904
-5.243
-5.10955
5.18775
-6.91146
-3.56265
6.19564
0.656321
-6.30679
-0.402499
-6.03873
-2.84702
-6.48298
-3.04743
-6.13711
-8.72949
-1.6527
-7.07679
6.74057
-6.68762
-3.44556
7.41431
1.1261
-7.41283
7.31587
-7.49161
7.16519
0.0952706
3.62062
4.35724
1.88382
-2.39033
4.27415
-5.10845
7.39848
-8.69342
3.58497
4.17643
-6.74391
-4.517
5.02596
4.02082
5.32479
8.89568
-10.3699
1.47423
-10.6697
12.0043
-1.33459
-16.4348
5.76514
-7.53913
2.47407
0.379486
2.58523
0.556658
2.50012
-3.05678
-2.20352
-2.12015
-2.4239
-3.46444
5.88833
1.10998
-3.51285
2.40286
-3.56917
4.67916
-0.187852
-3.32499
5.28668
-2.78656
5.66617
-3.75703
1.90914
3.42791
5.74889
-2.32098
4.39279
-1.75279
1.91264
-4.23362
-1.5518
-2.96245
5.10572
-3.28421
3.65893
-0.336256
3.99519
-4.06508
0.849509
-0.768841
3.42736
3.65733
4.308
-3.07179
2.92452
-4.67731
-1.3091
-4.11203
-0.9234
-0.267954
-3.7146
3.98256
5.99419
-6.26214
-5.23831
9.53488
-4.29657
7.69818
-5.38512
-2.31306
-4.25672
-4.39099
3.88161
1.93112
9.6293
0.209884
-5.59501
-4.93186
-3.98169
3.12696
2.14014
-1.79537
3.46125
2.14094
-0.58909
0.458989
0.949236
1.79007
-1.33108
0.291925
1.49815
-1.02759
1.79755
0.782388
-1.88826
0.139594
-1.30876
3.53999
1.08422
-1.99502
0.663935
0.994629
-3.54643
5.00366
-2.64554
-2.35812
5.99829
1.14524
-3.79079
4.34746
-3.94813
2.37277
-3.50063
-1.41801
-5.36614
-3.62972
-2.53075
4.93361
-3.35759
5.46883
1.25948
-5.25599
6.51548
-3.70865
1.67916
-3.07263
3.85501
-0.970509
-2.10212
2.8924
2.81122
-3.03967
0.0193487
-0.147269
2.39907
-2.54634
-0.584797
-2.60549
-4.57306
4.90291
-2.1057
4.55303
2.16844
-1.9164
6.46943
1.80942
-3.72583
-3.24843
-3.70802
-1.38358
3.15497
-0.595644
-4.25578
-5.4715
4.15977
0.219941
-6.99703
7.81179
-0.814758
-3.99871
-0.680183
4.8176
-6.0374
0.485495
-3.95094
3.86086
4.76607
4.98601
-11.3662
-0.212098
-6.21271
1.12844
-7.34115
5.52928
-3.54805
7.69371
-10.3457
6.90015
-9.21962
6.52003
-0.821116
6.25022
-4.07372
2.77187
-8.47301
-6.86332
5.4732
-2.75957
6.18992
-3.12176
9.31168
-5.78857
5.26103
4.05065
-1.00973
-4.16075
-5.25529
4.24556
0.00573659
4.13567
4.97922
-2.87158
4.65089
2.26615
-4.65982
-2.13022
-6.4948
1.83498
-3.34061
-1.9198
3.75478
3.16465
3.75259
1.23551
-3.34495
7.18328
-8.16423
-1.85212
-3.25743
5.2414
-0.99584
3.38703
-6.64445
-1.85597
4.81361
-0.783647
-4.02996
0.855404
-4.41806
1.66849
-6.08655
5.24297
-5.64547
2.22194
-9.76107
-5.19089
-5.14711
-2.25901
-5.2326
-7.57831
5.3193
-1.81317
5.5027
-8.51893
7.73529
-3.48532
8.80462
-5.43198
-1.051
5.84823
1.31697
10.1216
0.207232
-4.72423
-1.9057
3.87129
-1.96558
1.22126
-3.50737
0.363915
2.48924
3.50905
-6.73782
-0.00608303
-4.73031
-3.91908
7.93989
5.6158
11.61
1.24008
9.12253
-1.18264
10.3626
4.14216
4.37835
-3.00142
4.47565
0.981142
4.56612
-0.911858
2.821
1.67337
1.75534
0.718882
2.30678
1.35055
3.15629
0.0995083
-2.02064
4.62409
-8.60577
-0.970919
-8.03339
1.12803
5.71179
-4.58376
2.98801
-0.847875
1.02243
-0.0532431
-1.3407
1.39394
-2.76855
-1.92979
-0.431643
-1.67441
2.33835
1.86558
-1.90671
-0.861841
0.357566
-3.98729
3.14306
-3.12371
-0.312497
6.20298
-2.81585
0.269511
-1.13669
-2.33598
-2.85792
2.71833
6.17612
0.293308
3.11285
5.19621
3.09934
0.227765
3.9043
-5.67927
-3.64075
-5.89137
-0.362088
4.45551
1.74724
7.96122
5.79789
4.80205
-1.8424
-10.0066
6.53832
-2.06267
5.20373
-1.17377
-4.91278
5.03248
2.366
-5.6888
0.0433329
-4.86945
-6.93212
-0.513659
8.24895
-9.60793
8.55693
5.70991
1.36689
-4.40835
-0.738759
4.24114
0.137213
10.4998
-1.12793
-6.74456
7.87249
-4.58386
3.61294
0.769088
2.69216
2.16303
1.31516
-5.4294
-10.0132
-2.01843
-1.528
-4.37655
0.524259
-2.38984
6.22894
-2.616
3.91589
5.25648
6.27891
-2.13718
-4.12496
6.43375
-2.51786
3.76105
)
;

boundaryField
{
    wall-4
    {
        type            calculated;
        value           uniform 0;
    }
    velocity-inlet-5
    {
        type            calculated;
        value           uniform -3.75095;
    }
    velocity-inlet-6
    {
        type            calculated;
        value           uniform -5.62643;
    }
    pressure-outlet-7
    {
        type            calculated;
        value           nonuniform List<scalar> 8(3.32194 7.75796 4.4481 9.70378 7.41265 5.14531 5.75749 8.9661);
    }
    wall-8
    {
        type            calculated;
        value           uniform 0;
    }
    frontAndBackPlanes
    {
        type            empty;
        value           nonuniform 0();
    }
}


// ************************************************************************* //
