/*--------------------------------*- C++ -*----------------------------------*\
| =========                 |                                                 |
| \\      /  F ield         | OpenFOAM: The Open Source CFD Toolbox           |
|  \\    /   O peration     | Version:  4.0                                   |
|   \\  /    A nd           | Web:      www.OpenFOAM.org                      |
|    \\/     M anipulation  |                                                 |
\*---------------------------------------------------------------------------*/
FoamFile
{
    version     2.0;
    format      ascii;
    class       volScalarField;
    location    "66";
    object      p;
}
// * * * * * * * * * * * * * * * * * * * * * * * * * * * * * * * * * * * * * //

dimensions      [0 2 -2 0 0 0 0];

internalField   nonuniform List<scalar> 
918
(
0.557399
1.18445
0.00128427
0.556847
-0.0125649
1.15144
-0.509572
0.664068
0.537599
-0.109449
-0.0483451
0.539629
1.01224
0.778505
-1.12338
-0.0100226
0.652049
-0.381087
0.536712
-0.0578524
0.692139
0.544139
0.547163
0.537742
0.598591
0.752165
0.893531
0.0230619
0.00919103
0.00474934
-0.0118851
-0.0388922
-0.0329579
1.03508
1.08618
1.10888
0.505359
0.333591
-0.375051
-0.447793
-0.435593
-0.544337
0.661325
0.659984
-0.210286
0.66744
0.669764
0.524625
0.536968
0.53788
0.538899
0.537884
0.539264
0.404405
-0.109407
-0.140685
-0.0908977
-0.0840381
0.053427
-0.0501973
-0.0522594
-0.046636
-0.0467413
0.454493
0.533869
0.530268
0.543984
0.554149
1.124
1.09591
1.12206
1.03578
1.05224
0.990214
0.962861
0.798806
0.820844
0.764297
0.75009
-1.55511
-2.50635
-0.533611
-0.282929
-0.0106136
-0.00775098
-0.00209744
0.64895
0.650223
0.651522
0.653937
1.08047
-0.378553
-0.478898
0.536854
0.535665
0.543983
0.544684
0.540704
0.539794
-0.0494125
-0.0464733
-0.0486303
-0.0544307
-0.052642
0.680568
0.6812
0.53827
0.535274
0.561652
0.581416
0.571689
0.278188
0.609296
0.62533
0.584818
0.744733
0.738953
0.747644
0.867153
0.831372
0.930392
0.95353
0.0165935
4.01297e-05
-0.0150065
-0.0195422
-0.0182856
0.501188
0.493726
0.521177
0.508796
0.511305
0.250324
0.11694
0.418524
0.443396
-0.293978
-0.360182
-0.428604
-0.459162
-0.567546
0.612292
0.658175
0.656513
-0.220701
-0.14882
-0.281892
-0.0757612
-0.13863
0.514885
0.521902
0.516898
0.532457
0.526923
0.528886
0.54124
0.53831
0.539869
0.466612
0.590266
0.330558
0.295159
-0.242538
-0.155498
-0.242515
-0.0731012
-0.0695603
0.06741
0.0929784
0.0402678
0.028583
-0.063888
-0.0561225
-0.0597585
-0.0448493
-0.0448079
0.447245
0.436039
0.467187
0.474752
0.520291
0.521849
0.526363
0.524136
0.913602
0.93601
0.943581
0.917267
-3.49592
-6.27771
0.0415348
0.177906
-0.00670481
-0.00935424
0.0020118
-0.0056904
0.000316617
-0.00188901
-0.00699575
-0.00840825
-0.00345334
-0.00227434
0.643287
0.644496
1.00261
1.00938
0.978309
0.931181
0.525077
0.527146
0.532641
0.528525
-0.0443675
-0.0448946
-0.0437685
0.673098
0.678437
0.676027
0.239716
0.150037
0.32923
0.35835
0.637132
0.625726
0.635408
0.645785
0.682674
0.960946
0.979175
0.977378
0.985708
1.02967
1.04602
1.01148
0.480595
0.490598
0.485533
0.52427
0.52205
0.522947
0.518995
0.520129
0.518197
-0.0335118
-0.413539
0.490712
0.507655
0.492977
0.495449
0.692477
0.77114
0.653692
0.655535
0.654947
-0.00670922
-0.0651959
0.250387
0.216301
0.386788
0.423204
0.402171
0.884959
0.845058
0.895268
0.868485
0.829693
0.855813
-0.365132
-1.86466
-0.983796
0.527696
0.341992
0.429467
0.0103812
-0.00640246
-0.00190408
1.00205
1.0744
0.646093
0.821041
0.823713
0.716758
0.745337
0.805698
0.732575
0.766676
0.799473
0.776984
0.568255
0.503783
0.519723
0.840324
0.896119
0.119991
0.0585794
0.0146663
0.111794
0.169066
0.1432
1.03445
0.94995
1.0202
0.535035
0.535755
-0.00496772
-0.0187229
0.540002
0.540057
-0.0121681
-0.00132902
0.41185
-0.831244
0.099705
0.528585
0.518481
0.535616
-0.0937521
0.355825
-0.0484499
0.0484748
-0.00791166
0.53068
0.465635
0.42471
0.00101113
-0.0190083
-0.0495724
-0.212819
0.532705
0.531009
0.535083
0.536025
0.536706
-0.0182079
-0.0137044
-0.0100661
-0.0463553
-0.0403908
-0.0518322
0.49952
0.518817
-0.169768
0.53523
0.537365
0.537184
0.530448
0.536077
0.53433
-0.00986742
-0.0151423
-0.0174178
0.220133
0.351907
0.650868
0.737894
0.62272
0.399035
0.164059
0.554682
0.617453
0.523633
0.676807
0.654147
0.664461
0.165239
0.0150292
0.173945
0.115569
0.526446
0.525164
0.516735
0.513696
0.530484
0.528598
0.533156
0.530178
0.533128
0.534509
-0.0497559
-0.0778747
-0.0864204
-0.153791
0.31063
0.571912
0.254456
0.284323
0.14211
-0.0430353
-0.0437005
-0.0470902
-0.0555544
0.000884262
-0.0231802
0.0433618
0.043624
0.0153197
-0.0103977
-0.00738494
-0.0182296
-0.0130444
0.524296
0.52417
0.52769
0.536605
0.475289
0.479076
0.443909
0.464665
0.449924
0.388643
0.423938
0.399164
-0.00493103
0.00373713
-0.00201041
-0.0168353
-0.0136311
-0.0325101
-0.029305
-0.0250153
-0.0209878
-0.0276549
-0.0437591
-0.0459085
-0.170773
-0.286655
0.988945
0.910257
0.137484
0.521851
0.528309
0.525069
0.529995
0.533123
0.533923
0.531632
0.528179
0.519078
0.520522
0.517487
0.518494
-0.101334
-0.242561
-0.0708069
-0.145045
0.1453
0.628227
0.363809
0.29935
0.294611
0.5232
0.916948
0.700456
0.672377
0.676075
-0.342624
0.046432
-0.278825
0.335768
0.163284
0.652031
0.699656
0.719678
0.669042
0.62272
-0.101134
0.556189
-0.0723011
-0.0202372
0.181111
0.0575025
0.664639
0.64153
0.647942
0.657343
0.672335
0.64572
0.630839
0.628281
0.651992
0.654646
0.484877
0.250873
0.20172
0.163242
0.642644
0.518986
0.570506
0.491083
0.521703
0.524264
0.52291
0.504359
0.511953
0.507468
0.514071
0.517649
0.526203
0.526675
0.521944
0.524074
-0.0573692
-0.0634225
-0.0276212
-0.135234
-0.128302
-0.190321
-0.0606756
0.0770283
0.0382773
0.237982
0.342177
0.0535412
-0.0568083
-0.0296518
0.0129012
0.181048
0.209012
0.0746861
0.162356
0.153484
0.134986
0.237546
0.241013
-0.0274337
-0.0303272
-0.034285
-0.0359579
0.0192756
0.0903659
0.0999301
-0.00562126
-0.0116528
-0.0416639
-0.0422973
-0.0205356
-0.027167
-0.0222314
0.00799135
-0.0520656
-0.0193994
-0.00545465
-0.00269209
-0.00434531
-0.00992996
0.518545
0.520583
0.520783
0.527372
0.540983
0.555903
0.520729
0.497519
0.488294
0.491316
0.464169
0.474493
0.470222
0.483893
0.504884
0.514172
0.512165
0.515038
0.497034
0.498863
0.485395
0.489064
0.464077
0.444793
0.432879
-0.0416457
-0.00283314
-0.0109407
-0.0370375
-0.00724956
-0.0193446
-0.0100435
0.00897671
-0.00734525
-0.00887987
-0.0191299
-0.0252825
-0.0247458
-0.0726137
0.0140795
-0.18372
-0.219521
-0.292383
0.891087
1.01521
0.810666
0.583751
0.603897
0.846979
0.931645
0.543806
0.736167
0.759316
0.587065
0.854656
0.5267
0.526297
0.523897
0.523377
0.524598
-0.00677173
0.0992872
0.0980436
0.160994
0.277018
0.38871
0.319213
0.194429
0.324631
0.327106
0.621009
0.633243
0.588665
0.612853
0.613064
0.425482
0.501058
0.552811
0.513309
0.565447
0.586887
0.540898
0.573756
0.523691
0.478963
0.474989
0.424929
0.44458
0.420312
0.403404
0.515536
0.493402
0.503809
0.494484
0.514789
0.542928
0.539344
0.561781
0.576595
0.498179
0.453101
0.46248
0.492708
0.453983
0.469474
0.485658
0.232517
0.134358
0.217309
-0.0680589
0.00328661
-0.00937962
-0.0579315
-0.00707368
0.27721
-0.414081
-0.390644
-1.01802
0.503563
0.954258
0.598478
0.572977
0.672114
0.65596
0.661886
0.67865
0.679114
0.631009
0.640795
0.645607
0.600905
0.621907
0.640565
0.63681
0.525034
0.383752
0.38258
0.330892
0.201067
0.24072
0.437322
0.361293
0.286297
0.286473
0.457108
0.343861
0.413641
0.447415
0.378834
0.333421
0.535891
0.601903
0.595558
0.568733
0.480497
0.492968
0.517231
0.550966
0.575342
0.606591
0.513463
0.519403
0.520633
0.518104
0.515386
0.518473
0.518749
0.521303
0.52191
0.524917
0.523977
-0.0502455
-0.0364656
-0.0501778
-0.0607219
-0.0194445
-0.0213816
0.0242019
0.00876153
-0.0142108
-0.00868792
-0.0320312
-0.0367534
-0.0331169
-0.0246658
0.101377
0.114136
0.0983107
0.0587065
0.251922
0.381211
0.455647
0.331016
0.224938
0.248038
0.267309
-0.0108963
0.0137523
0.000918182
0.0405348
0.0329222
-0.0365987
-0.0400247
-0.0367051
-0.0296058
-0.0205168
-0.0363618
-0.0414029
-0.0322776
-0.0369954
-0.0396991
-0.0432185
0.499782
0.493221
0.494885
0.4887
0.487429
0.501882
0.506187
0.508142
0.5137
0.516151
0.505936
0.511631
0.515695
-0.010674
-0.0336351
-0.0372707
-0.0276829
-0.0300369
-0.0277149
-0.0291758
0.123835
0.0547121
0.0587195
0.0111185
-0.120968
-0.0629374
0.491752
0.490481
0.479928
0.721264
0.570527
0.491134
0.588137
0.693883
0.27637
0.473216
0.308206
0.888811
0.785239
0.931606
0.542732
0.245651
0.408967
0.452175
0.265362
0.340835
0.325364
0.214335
0.245134
0.282941
0.381973
0.265732
0.242408
-0.000917591
0.189547
0.301804
0.283617
0.408314
0.469011
0.266488
0.186199
0.141317
0.605981
0.625456
0.638604
0.611443
0.632593
0.580673
0.572712
0.588317
0.596339
0.590742
-0.746163
-0.452565
-1.39924
-0.721174
-0.266212
0.534023
0.505393
0.769579
0.646579
0.683733
0.66876
0.627494
0.59717
0.620793
0.644025
0.342043
0.452799
0.428017
0.433569
0.336021
0.266459
0.564223
0.56101
0.593759
0.617033
0.589431
0.618917
0.511295
0.511024
0.510468
0.506703
0.504969
0.507344
0.0578845
0.0257341
0.064654
0.0463631
0.0229706
0.00950659
-0.00859457
-0.0185147
-0.0257812
-0.0255006
-0.0114147
-0.00736853
0.171743
0.109428
0.0299627
0.0590035
-0.00176459
-0.0702206
-0.0891544
0.0159736
0.112056
0.102253
0.405736
0.655504
0.475509
0.642995
0.485461
0.541292
0.468457
0.459874
0.484853
0.37979
0.460232
0.24864
-0.259223
-0.16828
0.794042
0.805252
0.581246
0.405469
0.17373
0.35245
0.542336
0.472762
0.508344
0.577315
0.564746
0.0284123
0.0865612
0.371993
0.598784
0.240399
0.231486
0.224991
0.408736
0.327306
)
;

boundaryField
{
    wall-4
    {
        type            zeroGradient;
    }
    velocity-inlet-5
    {
        type            zeroGradient;
    }
    velocity-inlet-6
    {
        type            zeroGradient;
    }
    pressure-outlet-7
    {
        type            fixedValue;
        value           uniform 0;
    }
    wall-8
    {
        type            zeroGradient;
    }
    frontAndBackPlanes
    {
        type            empty;
    }
}


// ************************************************************************* //
