/*--------------------------------*- C++ -*----------------------------------*\
| =========                 |                                                 |
| \\      /  F ield         | OpenFOAM: The Open Source CFD Toolbox           |
|  \\    /   O peration     | Version:  4.0                                   |
|   \\  /    A nd           | Web:      www.OpenFOAM.org                      |
|    \\/     M anipulation  |                                                 |
\*---------------------------------------------------------------------------*/
FoamFile
{
    version     2.0;
    format      ascii;
    class       surfaceScalarField;
    location    "66";
    object      phi;
}
// * * * * * * * * * * * * * * * * * * * * * * * * * * * * * * * * * * * * * //

dimensions      [0 3 -1 0 0 0 0];

internalField   nonuniform List<scalar> 
1300
(
3.75095
5.62643
-3.32679
3.75095
-7.75439
5.62643
-4.38681
4.38681
-0.405273
0.405273
1.87639
1.87456
-2.68197
2.68197
-2.13625
2.13625
-2.52408
2.52408
-5.24643
5.24643
-5.06834
5.06834
4.65565
-4.65565
-6.30734
6.30734
-0.945074
0.945074
-3.68128
3.68128
3.16962
-3.16962
-2.09295
2.09295
0.0146648
-0.0146648
-0.553475
4.30443
3.19748
3.19748
-2.01296
2.01296
-4.86818
4.86818
6.21804
-6.21804
5.31532
-5.31532
-1.98853
-2.45455
1.81014
-11.5075
-5.94425
-5.94425
-8.44039
8.44039
-2.81396
2.81247
2.94614
-2.94614
-1.77386
1.77386
-4.34649
-0.0403103
-4.34649
4.35836
0.0284408
4.35836
-0.482294
0.0770203
-0.482294
3.98692
-3.98692
0.321434
0.083839
0.321434
3.06533
-3.06533
-1.87711
3.7535
1.87384
-1.8719
6.17632
-1.87906
3.75362
-6.01616
6.01616
-2.92582
0.243854
-2.92582
2.47553
0.206435
2.47553
-6.84887
6.84887
-2.16332
0.027067
-2.16332
2.10409
0.0321624
2.10409
2.8807
-2.8807
-2.63501
0.110936
-2.63501
2.39459
0.129494
2.39459
0.353528
5.2729
-5.97996
8.79243
-5.2729
0.0264702
5.20837
0.0380614
5.20837
-5.1058
0.037456
-5.1058
5.01277
0.0555687
5.01277
4.74133
-0.0856842
4.74133
-4.77353
0.117885
-4.77353
-3.36987
-4.05338
-6.45819
0.150851
-6.45819
-1.03615
0.0910738
-1.03615
0.829743
0.115331
0.829743
-3.68464
3.68464
-4.10252
0.421237
-4.10252
3.12399
0.0456305
3.12399
1.86849
1.88246
5.61944
-5.61944
2.44982
-2.06457
-0.0283814
-2.06457
-2.15293
-3.16238
2.15293
-0.0599861
-0.216524
0.231189
-0.216524
3.15943
0.0380489
3.15943
2.23594
0.158645
-2.23594
0.222976
3.27375
-3.27375
1.34104
0.671928
1.34104
-5.56502
5.56502
4.9556
0.0571751
-4.9556
0.0874238
6.15619
0.061856
6.15619
-6.1995
-0.0185437
-6.1995
2.52677
-4.98132
-2.61349
6.1253
0.182045
-6.1253
0.181044
2.918
0.0281462
2.918
-2.91975
2.91975
-2.98466
0.0385137
-2.98466
-2.17282
0.398959
-2.17282
1.4751
0.298754
1.4751
-4.24591
-0.100584
-4.24591
-4.24919
0.146669
4.24919
0.109174
1.12832
-1.12832
-0.603519
0.121225
-0.603519
-4.11038
-0.135534
4.11038
-0.123455
-3.87722
-0.109705
-3.87722
-3.02449
0.0398395
3.02449
0.0408358
3.11287
0.0465577
-3.11287
0.047541
-1.87082
3.75328
-1.88014
3.75397
-5.63579
-0.380373
-5.63579
6.32698
-0.310824
6.32698
3.32119
0.36009
-3.32119
0.39537
2.32218
0.153357
2.32218
-6.81187
-0.0370018
-6.81187
6.83309
0.0157791
6.83309
2.22074
0.101434
-2.22074
0.0574245
2.07922
0.0248723
2.07922
2.90043
-0.0197302
2.90043
-2.87504
-0.00566097
-2.87504
2.79553
-2.79553
2.72207
0.0734554
-2.72207
0.0870588
-11.1331
11.1145
-0.0352161
-11.0979
5.17315
5.17315
4.16828
0.573051
4.16828
-4.99097
0.21744
-4.99097
2.6815
-5.295
3.07947
-6.44934
4.66677
-16.1743
4.30044
-8.35383
6.69837
-6.69837
6.58702
0.111349
-6.58702
0.12883
-1.15425
0.118099
-1.15425
-3.08208
-0.602566
-3.08208
4.32747
-0.642823
4.32747
-3.02815
3.02815
-3.07746
0.0493073
3.07746
0.0465291
2.06308
0.0161375
-2.06308
-0.00148628
0.264646
0.0567879
-0.264646
0.0481224
3.48533
-0.21158
3.48533
-3.07637
-0.197384
-3.07637
-1.25367
0.0994187
1.25367
0.0873711
-5.81485
0.249835
-5.81485
-11.1908
0.0929443
-11.1527
-6.10656
-6.10656
2.33383
11.1263
-2.89319
0.0181455
2.89319
0.0248076
2.97514
0.0530156
-2.97514
0.0553893
-2.86055
0.0650206
2.86055
0.0591982
-2.54778
0.374966
-2.54778
-1.07266
1.07266
-1.23879
0.166133
1.23879
0.236315
1.4
-0.271682
1.4
0.720088
0.109655
-0.720088
0.116569
-3.77905
-0.0981658
-3.77905
6.5619
-0.234917
6.5619
-2.96206
-0.114307
2.96206
-0.0616252
-0.033347
11.1479
-5.13981
0.0340085
5.13981
-11.2097
11.2437
-3.21846
0.670682
3.21846
0.949819
5.28441
0.280607
-5.28441
0.293433
6.78269
0.0504024
-6.78269
0.0843163
-2.58943
-0.492648
-2.58943
-5.05342
-0.582362
5.05342
-0.725957
-11.4752
-0.202895
11.6781
-11.4196
6.01775
0.138442
-6.01775
11.3822
-1.02982
-0.0985035
1.02982
0.0428405
1.72751
-0.327507
1.72751
3.67939
-0.194064
-3.67939
-0.0996578
-6.71562
-0.0962467
6.71562
-0.153721
-2.14453
-0.444899
2.14453
-0.417024
-4.26711
4.30516
1.90921
-2.38754
-2.59378
-5.54992
1.85186
1.90142
4.30168
-10.1503
-6.02397
-9.96928
7.26206
-6.96863
-9.24495
9.15927
7.87235
-7.98205
-5.78487
5.83139
6.48285
-6.44201
1.87881
1.8747
8.01595
-7.77209
-15.6029
15.2226
7.51081
-7.48374
15.7564
-15.7934
-17.8411
17.8915
-5.69939
5.81033
-6.73926
6.7336
-6.97382
6.9122
-2.83209
-3.61725
13.1133
-12.9625
8.5559
-8.58428
-8.6131
9.03434
3.38259
0.922574
3.42914
-1.88216
3.76097
-1.87146
3.78068
2.71444
-5.54654
2.58056
-5.17434
4.34037
4.21553
-4.28038
-1.26954
-5.9245
5.95265
-5.81411
5.87331
9.12285
-9.16316
-1.88516
3.75986
-1.86881
3.77024
-3.42502
-2.35985
3.37939
0.922294
8.07139
5.04194
-8.25343
-1.71584
-8.03267
7.83861
-8.22716
8.02977
-0.434862
5.81937
-5.38451
4.43331
-1.56221
7.38158
5.69985
5.91729
5.86623
-5.58562
1.1024
-6.48691
-6.39948
-2.3076
2.42882
2.20264
-2.1188
6.12657
1.74578
6.00311
-5.7522
-2.22985
-5.85037
3.82066
2.01074
3.86997
4.07835
2.4045
4.11819
3.03048
-3.03593
0.0054512
-3.05661
6.08709
0.723925
-5.41646
-4.49416
4.97467
3.04127
5.18111
-5.55628
-2.21581
-5.16091
-9.53638
-6.06656
-10.1187
10.0808
5.14174
9.77
-11.9526
11.7988
4.78961
2.7212
4.82177
-4.92169
-2.56205
-4.86427
11.6434
-2.63523
-9.00816
-10.3133
-7.5278
10.2975
5.45892
10.9578
6.93364
11.0422
4.42491
7.21848
-9.88383
2.35603
-3.86626
-1.83313
-3.7792
3.66899
2.14134
3.79848
-4.21723
-2.52203
-4.19909
-4.29531
-2.67851
4.31505
2.41856
-4.4162
-3.81096
4.5305
2.38169
4.03896
-10.0629
4.31486
-7.93211
-9.19438
-3.7681
-9.06555
3.51001
2.60636
-6.11637
-2.03653
8.48041
-4.26488
7.21087
-5.17852
-3.40576
-5.18001
-6.87819
-1.73491
-6.73152
-8.87688
8.38424
-9.17298
8.53016
12.5188
-5.64552
-6.87323
-3.96843
-2.47358
3.92089
-0.49174
-3.71053
3.71598
0.0504386
3.83111
4.75369
4.26195
-3.88442
-1.9297
-3.82903
3.82471
2.04861
3.88973
6.83238
2.29047
6.86082
-6.59799
-2.56517
-6.69857
9.04109
-8.64213
2.84071
-2.74129
5.39312
2.63666
-5.18154
-2.85113
6.21228
-3.21768
-2.9946
-12.1982
10.5309
1.66729
-4.81659
-0.383273
-0.397938
-5.48948
-3.75547
5.37159
0.545696
11.0766
7.3211
-5.51213
5.76196
6.16597
6.22314
-0.17634
5.80853
-5.13785
5.26096
-2.5838
-2.67716
5.45992
-5.59545
-1.23866
-5.5072
4.26854
0.407659
1.51451
-1.28332
-1.80809
-0.499501
-1.69153
1.30405
0.898585
1.36084
0.940526
1.4883
-2.96049
0.553482
2.40701
-2.01996
-1.56532
-3.80217
-1.1426
4.94477
5.73018
2.10843
-5.63052
-0.219845
2.54805
-2.43272
-0.764107
-3.03806
2.24651
-3.01062
-3.6739
-2.06193
5.73583
-3.3698
-0.459222
3.31679
0.553177
-3.8271
-2.0974
3.78859
0.329599
-3.12784
6.19071
-3.06287
-5.05754
2.52767
3.55942
4.53841
-4.78951
2.44754
2.34198
-1.23009
4.24645
0.934659
4.39981
-6.93613
4.72031
5.79993
3.23441
-6.16002
0.999105
-5.93702
8.53892
-7.36718
-1.17174
4.14672
4.3922
7.06548
5.45327
-5.67399
12.7395
-1.1998
-6.16738
7.13682
-3.90241
4.84495
-8.74735
-10.2982
4.13083
-9.13637
10.911
-1.77465
-3.62223
-8.33032
12.7586
-1.20476
-11.5538
8.56524
-4.26437
-4.35323
8.6176
-6.89961
6.91528
-1.99354
-4.92174
-10.0996
-5.6938
10.1959
1.60297
-9.90728
12.2633
-2.6888
4.10985
0.711917
4.13473
3.29783
-5.48581
2.18798
3.60178
-5.59531
2.08143
-7.56724
-6.72918
12.0626
-5.3334
-10.4973
-9.51487
-0.982407
2.53564
9.72767
-9.46928
7.42692
2.04237
3.30068
0.589045
-3.37414
-0.405062
0.239711
4.52368
-4.76339
4.03819
4.19684
3.27813
1.24555
3.84521
2.10744
-3.87002
-0.329069
-4.16328
1.48477
-1.74472
-3.69361
5.17838
-4.06719
0.373579
-2.74821
-3.49879
6.247
-4.58134
3.0357
3.15502
5.0843
-4.91343
1.41464
-2.39267
-2.52076
2.65255
-4.39727
1.99154
3.18685
4.37323
0.562271
5.8734
6.18917
-8.47977
0.547658
11.2311
-9.51527
2.46476
8.57739
-9.89168
0.376813
-8.68874
0.994025
-5.2589
-5.12235
5.18772
-6.92263
-3.55964
6.21025
0.65057
-6.31942
-0.412095
-6.03321
-2.84367
-6.47811
-3.04303
-6.12996
-8.71702
-1.65171
-7.0653
6.73252
-6.67903
-3.43971
7.40499
1.12517
-7.40952
7.31102
-7.48743
7.15993
0.0953665
3.62061
4.35732
1.88373
-2.39052
4.27425
-5.11898
7.40945
-8.70607
3.58709
4.18804
-6.75321
-4.51803
5.02277
4.01832
5.32152
8.88612
-10.3565
1.47033
-10.6576
11.9894
-1.3318
-16.4185
5.7609
-7.53241
2.44527
0.395448
2.56336
0.545521
2.49826
-3.04378
-2.19577
-2.1084
-2.43397
-3.46601
5.89998
1.10049
-3.52478
2.4243
-3.56964
4.67013
-0.205291
-3.31949
5.27519
-2.77693
5.67064
-3.77493
1.89571
3.43535
5.75346
-2.31811
4.39481
-1.75816
1.92233
-4.24045
-1.54368
-2.96344
5.10478
-3.28356
3.65714
-0.341392
3.99853
-4.05249
0.834808
-0.774365
3.42247
3.64545
4.31393
-3.06838
2.92111
-4.67927
-1.31933
-4.117
-0.930153
-0.262415
-3.707
3.96942
5.98441
-6.24683
-5.23533
9.52884
-4.29351
7.69397
-5.38224
-2.31173
-4.25353
-4.38861
3.87856
1.92997
9.62394
0.209458
-5.59169
-4.92839
-3.97857
3.1134
2.14756
-1.7698
3.43709
2.16774
-0.653228
0.436093
0.924747
1.78563
-1.34954
0.310451
1.47518
-0.972869
1.74659
0.801457
-1.85624
0.164719
-1.30845
3.55495
1.09856
-1.99715
0.647609
0.980008
-3.5638
5.03693
-2.67225
-2.36468
6.01693
1.1389
-3.81115
4.3683
-3.96064
2.38149
-3.52409
-1.42966
-5.3903
-3.64452
-2.52634
4.95064
-3.37365
5.48207
1.27673
-5.26223
6.53896
-3.72439
1.66246
-3.06317
3.86463
-0.945738
-2.11743
2.90183
2.834
-3.06356
0.0254935
-0.161722
2.40755
-2.56927
-0.603063
-2.62303
-4.57338
4.90298
-2.10537
4.5529
2.16888
-1.9168
6.4697
1.80902
-3.72582
-3.24852
-3.70774
-1.38384
3.15457
-0.597067
-4.2672
-5.51881
4.16577
0.234037
-7.05613
7.864
-0.807872
-4.01485
-0.705463
4.85218
-6.07333
0.478012
-3.9919
3.8721
4.80676
5.04079
-11.3366
-0.217242
-6.19485
1.12262
-7.31747
5.51482
-3.53949
7.67033
-10.3252
6.88544
-9.19998
6.49858
-0.818883
6.24939
-4.06141
2.75877
-8.45257
-6.8496
5.5048
-2.7836
6.21672
-3.1452
9.36192
-5.834
5.29104
4.07088
-1.01952
-4.16049
-5.28141
4.26189
0.00962729
4.14435
4.98022
-2.87278
4.65115
2.26815
-4.66082
-2.12912
-6.49465
1.83382
-3.33963
-1.92074
3.75457
3.16356
3.7526
1.2338
-3.34754
7.18853
-8.17094
-1.85513
-3.26722
5.26419
-1.0023
3.40047
-6.66769
-1.85843
4.79755
-0.784829
-4.01272
0.847971
-4.40761
1.67477
-6.08237
5.24786
-5.65996
2.22179
-9.75421
-5.18773
-5.14489
-2.25862
-5.22881
-7.57142
5.3128
-1.81052
5.5005
-8.50794
7.72311
-3.48149
8.7943
-5.42778
-1.05033
5.84481
1.31512
10.1094
0.213899
-4.73193
-1.91373
3.85843
-1.94469
1.19966
-3.4931
0.365323
2.48834
3.52859
-6.75688
0.00367667
-4.72826
-3.91714
7.93546
5.61171
11.5961
1.23967
9.11712
-1.18166
10.3568
4.13987
4.37618
-2.99181
4.46214
0.977606
4.5647
-0.921645
2.81735
1.64172
1.73279
0.699923
2.30327
1.34218
3.13808
0.0942944
-2.01411
4.6221
-8.60068
-0.969592
-8.02762
1.13164
5.70937
-4.57773
2.96339
-0.815828
1.0187
-0.0861577
-1.27748
1.36363
-2.76332
-1.9307
-0.455525
-1.6887
2.33631
1.86625
-1.88079
-0.882536
0.359089
-4.00361
3.165
-3.1395
-0.305502
6.23346
-2.82104
0.25177
-1.15859
-2.37126
-2.87076
2.70604
6.17597
0.293728
3.1131
5.1967
3.09931
0.226526
3.89179
-5.66644
-3.67545
-5.88368
-0.368865
4.48332
1.75427
7.9734
5.82515
4.82285
-1.84483
-10.0158
6.51892
-2.05678
5.18712
-1.1744
-4.90798
5.04567
2.36378
-5.69624
0.036283
-4.87169
-6.92847
-0.513845
8.23696
-9.59557
8.54525
5.70157
1.36373
-4.40562
-0.739271
4.23949
0.136693
10.4935
-1.12843
-6.72827
7.85669
-4.58095
3.61135
0.755851
2.68124
2.11948
1.30366
-5.42461
-10.0023
-2.04552
-1.51829
-4.4102
0.534571
-2.40082
6.2244
-2.61304
3.91266
5.24365
6.26235
-2.13345
-4.11338
6.42696
-2.51429
3.74806
)
;

boundaryField
{
    wall-4
    {
        type            calculated;
        value           uniform 0;
    }
    velocity-inlet-5
    {
        type            calculated;
        value           uniform -3.75095;
    }
    velocity-inlet-6
    {
        type            calculated;
        value           uniform -5.62643;
    }
    pressure-outlet-7
    {
        type            calculated;
        value           nonuniform List<scalar> 8(3.32679 7.75439 4.44308 9.69738 7.42326 5.14027 5.76097 8.96721);
    }
    wall-8
    {
        type            calculated;
        value           uniform 0;
    }
    frontAndBackPlanes
    {
        type            empty;
        value           nonuniform 0();
    }
}


// ************************************************************************* //
