/*--------------------------------*- C++ -*----------------------------------*\
| =========                 |                                                 |
| \\      /  F ield         | OpenFOAM: The Open Source CFD Toolbox           |
|  \\    /   O peration     | Version:  4.0                                   |
|   \\  /    A nd           | Web:      www.OpenFOAM.org                      |
|    \\/     M anipulation  |                                                 |
\*---------------------------------------------------------------------------*/
FoamFile
{
    version     2.0;
    format      ascii;
    class       volScalarField;
    location    "75";
    object      p;
}
// * * * * * * * * * * * * * * * * * * * * * * * * * * * * * * * * * * * * * //

dimensions      [0 2 -2 0 0 0 0];

internalField   nonuniform List<scalar> 
8800
(
0.86017
0.812385
0.7737
0.744711
0.723855
0.709037
0.69846
0.691008
0.686227
0.684223
0.685548
0.689787
0.696468
0.705811
0.71861
0.736356
0.761142
0.795088
0.837643
0.896346
0.69141
0.69909
0.706572
0.709884
0.708387
0.70332
0.69685
0.690797
0.686108
0.683312
0.683092
0.685654
0.690187
0.696165
0.702957
0.709252
0.712903
0.712173
0.706761
0.698077
0.6698
0.675961
0.680092
0.683044
0.685104
0.685723
0.684637
0.682563
0.680591
0.679742
0.680769
0.683204
0.686044
0.688255
0.688883
0.687699
0.685369
0.681985
0.677429
0.673669
0.663966
0.666618
0.669376
0.671787
0.673433
0.674611
0.675376
0.675528
0.675281
0.675296
0.67612
0.67735
0.678235
0.678334
0.67775
0.676676
0.674874
0.672313
0.669915
0.668412
0.658554
0.65998
0.661765
0.663806
0.665604
0.666964
0.66798
0.668816
0.669486
0.670125
0.670858
0.671423
0.671575
0.671327
0.670659
0.669432
0.667753
0.665917
0.664615
0.663784
0.653436
0.654357
0.655605
0.657183
0.658831
0.660377
0.661694
0.662806
0.663834
0.664814
0.665599
0.666007
0.666027
0.665635
0.664789
0.663616
0.662309
0.661064
0.660248
0.659696
0.648478
0.649149
0.650118
0.651433
0.65286
0.654343
0.655818
0.657193
0.658466
0.659674
0.660608
0.661071
0.661061
0.660609
0.659846
0.658931
0.657945
0.657039
0.656461
0.656055
0.643631
0.644148
0.644939
0.646084
0.647382
0.648785
0.650273
0.651805
0.653319
0.654774
0.655912
0.656497
0.656562
0.656247
0.655697
0.655012
0.654271
0.653608
0.653182
0.652864
0.638822
0.639233
0.639897
0.64092
0.642149
0.64351
0.645003
0.646629
0.64835
0.650085
0.651488
0.652283
0.652555
0.652471
0.652153
0.651688
0.651158
0.650691
0.650377
0.650117
0.633963
0.634297
0.634873
0.635819
0.637003
0.638354
0.63989
0.641624
0.643546
0.645589
0.647333
0.648443
0.64901
0.649193
0.649117
0.648886
0.648557
0.648255
0.648025
0.647807
0.628962
0.629239
0.629754
0.630656
0.631827
0.633209
0.634826
0.636711
0.638878
0.641279
0.64345
0.644965
0.645885
0.646376
0.646567
0.646574
0.646448
0.64629
0.646129
0.645939
0.623728
0.623961
0.624437
0.625326
0.626523
0.627979
0.629721
0.631813
0.634292
0.637137
0.639831
0.641832
0.643167
0.644012
0.644503
0.644752
0.644837
0.644815
0.644711
0.644541
0.618166
0.618363
0.618821
0.619726
0.620991
0.622566
0.62449
0.626857
0.629731
0.633129
0.636457
0.639037
0.640858
0.642109
0.642939
0.64346
0.643767
0.643873
0.643817
0.64366
0.61217
0.612338
0.612795
0.613745
0.61512
0.616865
0.619037
0.62176
0.625134
0.629214
0.633309
0.63658
0.638977
0.640697
0.641916
0.642762
0.643294
0.643525
0.643509
0.643359
0.605616
0.60576
0.606231
0.607256
0.608787
0.610762
0.61326
0.616436
0.620436
0.625349
0.630372
0.63447
0.637549
0.639824
0.641488
0.642687
0.64348
0.643842
0.643864
0.643717
0.598362
0.598482
0.598981
0.600111
0.601849
0.604124
0.607038
0.610787
0.615562
0.621493
0.627633
0.632717
0.636602
0.639533
0.641724
0.643336
0.644419
0.644916
0.644972
0.644824
0.590215
0.590324
0.590861
0.592129
0.59413
0.596785
0.600229
0.604696
0.610429
0.617601
0.625083
0.631339
0.636176
0.639877
0.642702
0.644796
0.646206
0.646845
0.646932
0.646778
0.58094
0.581037
0.581637
0.583069
0.585407
0.588554
0.592667
0.598031
0.604944
0.613626
0.622717
0.63036
0.636321
0.640927
0.644502
0.64716
0.64894
0.649727
0.649842
0.649679
0.570215
0.570294
0.57098
0.572642
0.575419
0.579193
0.584148
0.590634
0.599009
0.609524
0.620535
0.629812
0.637092
0.642765
0.647192
0.650524
0.652714
0.653655
0.653792
0.653616
0.557653
0.557717
0.558504
0.560478
0.563814
0.568393
0.574423
0.582329
0.592518
0.605259
0.618547
0.629733
0.638536
0.64545
0.650877
0.654976
0.65761
0.6587
0.658851
0.658659
0.542679
0.542732
0.543663
0.546055
0.550133
0.555767
0.563195
0.572916
0.585371
0.600809
0.616776
0.630168
0.640709
0.64904
0.655618
0.660573
0.663671
0.664894
0.665046
0.664835
0.5245
0.524541
0.525689
0.52867
0.533763
0.540825
0.550114
0.562194
0.577492
0.596185
0.615269
0.631166
0.643668
0.65359
0.661427
0.667333
0.670882
0.672203
0.672341
0.672109
0.501924
0.501964
0.503465
0.507336
0.513893
0.522963
0.534804
0.549994
0.568866
0.591453
0.61411
0.632792
0.647451
0.659125
0.668326
0.675207
0.679147
0.680507
0.680609
0.680357
0.473156
0.473218
0.475317
0.480625
0.489472
0.501492
0.516933
0.536253
0.559587
0.586761
0.613429
0.635131
0.652087
0.665608
0.676268
0.684064
0.688264
0.689574
0.689618
0.689351
0.435075
0.435244
0.438581
0.446544
0.459252
0.475805
0.49638
0.521126
0.549914
0.582363
0.613402
0.638274
0.657609
0.673003
0.685132
0.693663
0.697912
0.699062
0.699031
0.698757
0.381714
0.382736
0.389386
0.402832
0.422262
0.445835
0.473501
0.505103
0.540311
0.578601
0.614221
0.642308
0.664012
0.681255
0.694684
0.703646
0.707663
0.708555
0.708447
0.708177
0.303928
0.31145
0.326861
0.350596
0.38004
0.413012
0.44934
0.488824
0.531128
0.575705
0.616184
0.647662
0.671896
0.69109
0.705688
0.714806
0.718409
0.719033
0.718877
0.718646
0.220356
0.238129
0.263094
0.29773
0.337594
0.380083
0.425097
0.472594
0.522304
0.573732
0.619817
0.655303
0.682467
0.703884
0.719666
0.728385
0.731155
0.731483
0.73135
0.731191
0.150633
0.17159
0.204431
0.248312
0.297348
0.348794
0.402222
0.457563
0.514507
0.572532
0.623872
0.663
0.692677
0.715724
0.731817
0.73975
0.741971
0.742235
0.742155
0.742026
0.0935148
0.116154
0.154613
0.205032
0.261304
0.320277
0.381139
0.443665
0.507386
0.571651
0.627908
0.670356
0.70219
0.726416
0.742636
0.750095
0.752044
0.7523
0.752256
0.752155
0.045993
0.06983
0.112138
0.167733
0.229817
0.294999
0.362236
0.431141
0.501062
0.571165
0.632072
0.677645
0.711494
0.736867
0.753272
0.760421
0.762208
0.762481
0.762478
0.7624
0.00579834
0.0302836
0.0755003
0.135187
0.202159
0.272628
0.345408
0.419997
0.495587
0.571157
0.636506
0.685092
0.720932
0.74743
0.76413
0.771192
0.773022
0.77328
0.773305
0.773242
-0.0291302
-0.00423913
0.0432572
0.106325
0.177434
0.25251
0.330218
0.409955
0.490789
0.571526
0.641171
0.692746
0.730584
0.758252
0.775451
0.782745
0.78454
0.784801
0.784844
0.784795
-0.0603187
-0.035087
0.014262
0.0802138
0.154902
0.234029
0.316173
0.40063
0.48637
0.572055
0.645894
0.700442
0.740315
0.769283
0.787165
0.794721
0.796593
0.796844
0.796872
0.796843
-0.0887707
-0.0632446
-0.0123197
0.0561304
0.133968
0.2167
0.302852
0.391663
0.482037
0.572496
0.65047
0.707992
0.74994
0.780223
0.798831
0.806717
0.808702
0.808931
0.808947
0.808933
-0.11532
-0.0894613
-0.037154
0.0335122
0.11417
0.200133
0.289929
0.382774
0.477529
0.572619
0.654705
0.71522
0.759228
0.790847
0.810142
0.818354
0.820467
0.820705
0.82069
0.820672
-0.140369
-0.114183
-0.0605427
0.0119692
0.0951661
0.184041
0.277155
0.373737
0.472645
0.572257
0.658451
0.721967
0.768015
0.800909
0.820834
0.829335
0.83153
0.831736
0.831684
0.83166
-0.164401
-0.137799
-0.0831113
-0.00873924
0.0767109
0.168208
0.26435
0.364393
0.467235
0.571255
0.661584
0.728161
0.776239
0.810303
0.830734
0.839406
0.841625
0.841803
0.841716
0.84168
-0.187561
-0.160505
-0.104886
-0.0288191
0.0586421
0.1525
0.251394
0.354634
0.461182
0.569497
0.664019
0.733761
0.783892
0.819026
0.83977
0.848505
0.850681
0.850816
0.850695
0.850645
-0.210006
-0.182577
-0.125935
-0.0483987
0.0408702
0.136843
0.238218
0.344384
0.454405
0.566892
0.665672
0.738754
0.791035
0.827143
0.848019
0.856608
0.858704
0.858796
0.858645
0.858582
-0.23188
-0.203987
-0.146387
-0.0675365
0.0233392
0.121202
0.224801
0.333622
0.446866
0.563361
0.666465
0.743127
0.797777
0.834857
0.85565
0.863874
0.865771
0.865788
0.865624
0.865552
-0.253266
-0.224801
-0.166332
-0.086257
0.00605244
0.105573
0.211154
0.322356
0.43855
0.558843
0.666315
0.746865
0.804226
0.842377
0.862878
0.870443
0.871983
0.871912
0.871727
0.87165
-0.274036
-0.245028
-0.185716
-0.104558
-0.0109842
0.0899967
0.197309
0.310628
0.429479
0.553321
0.66513
0.749909
0.810444
0.849977
0.870073
0.876583
0.877463
0.877228
0.877056
0.876986
-0.294171
-0.264646
-0.204546
-0.122409
-0.0277352
0.0745114
0.183335
0.29849
0.419704
0.54679
0.662832
0.752138
0.816432
0.857915
0.877761
0.882847
0.882513
0.881869
0.881746
0.881748
-0.313754
-0.283634
-0.222815
-0.139795
-0.0441531
0.0591833
0.169299
0.286026
0.409291
0.539283
0.659338
0.753388
0.822066
0.866288
0.886545
0.890266
0.887993
0.886236
0.886107
0.886504
-0.332633
-0.301985
-0.24048
-0.156673
-0.0601916
0.0440836
0.155285
0.273332
0.398338
0.530867
0.654599
0.753445
0.827087
0.874901
0.896749
0.900146
0.896033
0.892011
0.890706
0.891009
-0.350904
-0.3197
-0.257565
-0.173082
-0.0758879
0.0291676
0.141238
0.260354
0.386781
0.521472
0.648476
0.75203
0.831225
0.883375
0.908098
0.913247
0.909065
0.901576
0.894356
0.881396
-0.368503
-0.336769
-0.274187
-0.189219
-0.0915181
0.0141186
0.12676
0.246638
0.374124
0.510517
0.640392
0.748464
0.834076
0.891273
0.919381
0.928174
0.924239
0.909905
0.888301
0.878974
-0.385271
-0.353363
-0.290166
-0.204899
-0.106728
-0.000728202
0.112065
0.232491
0.360643
0.498212
0.630316
0.742137
0.834585
0.897288
0.926589
0.935643
0.93259
0.906021
0.839212
0.809606
-0.400557
-0.37077
-0.305207
-0.219647
-0.12071
-0.014869
0.097475
0.218138
0.346549
0.484661
0.618128
0.732608
0.83103
0.900485
0.924035
0.928034
0.910474
0.852632
0.783049
0.740617
-0.454814
-0.386081
-0.318767
-0.234605
-0.135164
-0.029823
0.0829105
0.203281
0.331445
0.46936
0.603135
0.719029
0.819198
0.895983
0.89446
0.890626
0.832722
0.757791
0.679557
0.636038
-0.416342
-0.400403
-0.338963
-0.253693
-0.156544
-0.0512173
0.060499
0.1803
0.307626
0.444432
0.576802
0.691873
0.785809
0.868865
0.847924
0.725247
0.614478
0.537469
0.462013
0.489797
-0.44622
-0.417264
-0.354984
-0.270565
-0.173472
-0.0682594
0.0437628
0.162964
0.289288
0.424422
0.554204
0.665141
0.749109
0.792871
0.738329
0.580782
0.447632
0.352673
0.252174
0.299587
-0.469177
-0.437312
-0.373973
-0.28944
-0.192233
-0.0871322
0.0248199
0.143204
0.268161
0.40095
0.527078
0.631672
0.706328
0.714905
0.601186
0.422453
0.265323
0.143184
0.0101978
0.0415949
-0.491543
-0.458234
-0.393809
-0.308395
-0.211127
-0.106192
0.00522311
0.122643
0.246012
0.376023
0.497436
0.593705
0.652318
0.629024
0.463389
0.262231
0.0686271
-0.101617
-0.291255
-0.311751
-0.513289
-0.479594
-0.414349
-0.328206
-0.230834
-0.126151
-0.0154132
0.100899
0.222391
0.349167
0.46504
0.552695
0.591211
0.529999
0.331905
0.117209
-0.102604
-0.293449
-0.535944
-0.830446
-0.535308
-0.501645
-0.435931
-0.349361
-0.25185
-0.147378
-0.03726
0.0778877
0.197361
0.320576
0.430443
0.509502
0.525422
0.412099
0.21719
0.00336372
-0.20352
-0.377444
-0.448458
-0.526212
-0.558533
-0.524857
-0.458899
-0.372171
-0.274663
-0.170505
-0.0611131
0.052678
0.169783
0.288845
0.392218
0.459826
0.449825
0.302545
0.114885
-0.0799007
-0.245685
-0.340449
-0.364952
-0.380691
-0.58327
-0.549515
-0.483423
-0.396707
-0.299398
-0.195741
-0.0873292
0.0247825
0.13907
0.253276
0.349659
0.402222
0.374049
0.20053
0.0219328
-0.147648
-0.276939
-0.316969
-0.32973
-0.331021
-0.609718
-0.57579
-0.509566
-0.422964
-0.326006
-0.22309
-0.115929
-0.00585115
0.105153
0.213889
0.302309
0.339842
0.290416
0.106275
-0.0632181
-0.215128
-0.293115
-0.310228
-0.311628
-0.311445
-0.637932
-0.603739
-0.537358
-0.450943
-0.354507
-0.252543
-0.146918
-0.0392384
0.0680468
0.170768
0.250268
0.275544
0.189021
0.0201665
-0.140773
-0.266024
-0.303511
-0.301833
-0.300924
-0.300344
-0.667629
-0.633204
-0.566698
-0.480563
-0.384816
-0.28405
-0.180268
-0.075353
0.0277927
0.12403
0.194488
0.202218
0.0972757
-0.0595425
-0.202134
-0.280455
-0.290781
-0.293375
-0.294034
-0.293761
-0.698264
-0.663708
-0.597333
-0.511602
-0.416752
-0.317458
-0.215829
-0.114063
-0.0154184
0.0740478
0.135469
0.127813
0.0151578
-0.127039
-0.247309
-0.27936
-0.288125
-0.289569
-0.289304
-0.288997
-0.729379
-0.69473
-0.628806
-0.543673
-0.449976
-0.352452
-0.253326
-0.155079
-0.0612919
0.0215417
0.072367
0.0574131
-0.0597505
-0.181653
-0.278002
-0.296353
-0.287087
-0.285785
-0.285648
-0.285397
-0.760078
-0.725585
-0.660288
-0.576172
-0.483956
-0.388566
-0.292313
-0.197921
-0.109347
-0.0328216
0.00803446
-0.00675749
-0.124688
-0.222121
-0.280808
-0.289154
-0.285834
-0.284409
-0.283772
-0.283515
-0.788853
-0.755095
-0.69081
-0.608192
-0.51794
-0.425111
-0.332144
-0.241909
-0.158774
-0.0884342
-0.0511378
-0.0768999
-0.175926
-0.257248
-0.263693
-0.281949
-0.285744
-0.284191
-0.283586
-0.283142
-0.814095
-0.781386
-0.719266
-0.638598
-0.550909
-0.461166
-0.371966
-0.286197
-0.208448
-0.144416
-0.107068
-0.144158
-0.219131
-0.271211
-0.291841
-0.288626
-0.289164
-0.289202
-0.288856
-0.288463
-0.833701
-0.802739
-0.74348
-0.666003
-0.581589
-0.495625
-0.410705
-0.329769
-0.257248
-0.199445
-0.164321
-0.198592
-0.253997
-0.302513
-0.324652
-0.306836
-0.297753
-0.29623
-0.295445
-0.295186
-0.845487
-0.817231
-0.761797
-0.688479
-0.608522
-0.527187
-0.447198
-0.371431
-0.304129
-0.251934
-0.219401
-0.243631
-0.275563
-0.320924
-0.309971
-0.30167
-0.297697
-0.296309
-0.296039
-0.296084
-0.846887
-0.822651
-0.772185
-0.704296
-0.630031
-0.554445
-0.48014
-0.409959
-0.347945
-0.30053
-0.26512
-0.279505
-0.281818
-0.302257
-0.295535
-0.295446
-0.295338
-0.294815
-0.294626
-0.294391
-0.83564
-0.816153
-0.772497
-0.711912
-0.644693
-0.575964
-0.508203
-0.444086
-0.387488
-0.344182
-0.30287
-0.302926
-0.278931
-0.276142
-0.285469
-0.29033
-0.294211
-0.295772
-0.296146
-0.296105
-0.809965
-0.795381
-0.760997
-0.71009
-0.651525
-0.590786
-0.530265
-0.472507
-0.421449
-0.382172
-0.336466
-0.319616
-0.290571
-0.263459
-0.270634
-0.289168
-0.298275
-0.302071
-0.303301
-0.30376
-0.77245
-0.763068
-0.738569
-0.699
-0.650536
-0.59865
-0.545689
-0.494219
-0.448332
-0.413063
-0.382139
-0.352375
-0.326748
-0.321137
-0.334661
-0.327323
-0.323424
-0.322043
-0.321556
-0.321671
-0.72975
-0.72441
-0.710012
-0.681459
-0.643638
-0.600345
-0.554592
-0.508758
-0.46666
-0.434313
-0.406779
-0.387549
-0.387737
-0.429088
-0.420399
-0.389205
-0.354432
-0.335869
-0.330358
-0.329214
-0.69146
-0.688214
-0.681361
-0.662786
-0.633708
-0.597699
-0.55804
-0.516286
-0.475701
-0.441744
-0.416477
-0.384691
-0.359943
-0.37063
-0.343727
-0.275584
-0.261295
-0.270032
-0.277881
-0.276445
-0.663867
-0.661844
-0.658337
-0.647116
-0.624531
-0.593705
-0.557881
-0.518153
-0.476173
-0.43592
-0.408987
-0.360007
-0.284425
-0.186536
-0.181122
-0.297092
-0.413266
-0.433061
-0.394347
-0.391582
-0.642929
-0.642176
-0.641019
-0.635476
-0.618619
-0.591106
-0.556387
-0.51611
-0.471054
-0.423542
-0.384588
-0.34453
-0.329117
-0.393324
-0.503685
-0.572387
-0.645353
-0.666846
-0.624265
-0.602828
-0.630667
-0.630413
-0.629825
-0.627293
-0.615621
-0.589876
-0.554506
-0.512083
-0.463501
-0.407417
-0.360602
-0.324178
-0.317075
-0.36875
-0.500015
-0.649883
-0.704099
-0.644323
-0.543033
-0.500094
-0.622133
-0.621967
-0.621443
-0.620572
-0.613661
-0.590206
-0.553466
-0.508149
-0.454091
-0.389123
-0.324059
-0.255292
-0.17963
-0.104767
-0.0400807
0.0045944
0.102918
0.241647
0.354957
0.406657
-0.616739
-0.616677
-0.616476
-0.616597
-0.612271
-0.592275
-0.554374
-0.505106
-0.444756
-0.371946
-0.283099
-0.193954
-0.0124837
0.255433
0.558292
0.860598
1.12766
1.31227
1.40679
1.43781
-0.612548
-0.612587
-0.612599
-0.612394
-0.611203
-0.595734
-0.557611
-0.504182
-0.43843
-0.35617
-0.25595
-0.15467
0.0520909
0.392201
0.796438
1.18086
1.49483
1.6854
1.7655
1.78516
-0.609316
-0.609368
-0.609219
-0.608448
-0.607754
-0.600226
-0.563616
-0.506664
-0.436421
-0.349943
-0.247895
-0.140058
0.024519
0.363747
0.729866
1.06274
1.32811
1.4833
1.5446
1.55832
-0.607919
-0.608658
-0.610437
-0.613156
-0.616382
-0.610246
-0.571851
-0.511741
-0.440788
-0.354392
-0.256388
-0.156129
-0.0313487
0.245404
0.538931
0.790966
0.982213
1.08909
1.1295
1.13746
-0.604785
-0.606805
-0.612989
-0.626791
-0.643287
-0.628911
-0.577098
-0.518619
-0.452272
-0.367952
-0.275623
-0.183726
-0.0875565
0.114817
0.328146
0.499837
0.625421
0.691094
0.714203
0.717496
-0.615163
-0.616448
-0.617155
-0.608691
-0.593625
-0.577151
-0.558854
-0.527957
-0.469049
-0.386196
-0.300866
-0.220786
-0.145676
-0.00573148
0.134665
0.241394
0.312774
0.346839
0.360599
0.363854
-0.657602
-0.6567
-0.646909
-0.592671
-0.512653
-0.485376
-0.539215
-0.54483
-0.491523
-0.408203
-0.327661
-0.256883
-0.195778
-0.0968508
-0.00466291
0.0578885
0.092578
0.107607
0.116977
0.120362
-0.713516
-0.710754
-0.713273
-0.699652
-0.683407
-0.655867
-0.660459
-0.61121
-0.525366
-0.43162
-0.351704
-0.292377
-0.245957
-0.169816
-0.101678
-0.0554599
-0.028238
-0.0135927
-0.00553339
-0.00319965
-0.849617
-0.866946
-0.922027
-0.992687
-1.01854
-0.981935
-0.885549
-0.717734
-0.57002
-0.451873
-0.3697
-0.317689
-0.282832
-0.216628
-0.155155
-0.109826
-0.0768853
-0.0599517
-0.0529608
-0.0519603
-1.0081
-1.03903
-1.09927
-1.15411
-1.17635
-1.13447
-1.00284
-0.780098
-0.593096
-0.457333
-0.373069
-0.328472
-0.299026
-0.241164
-0.183887
-0.139137
-0.104817
-0.0853101
-0.0782579
-0.0786357
-1.01035
-1.032
-1.07366
-1.11395
-1.13124
-1.09321
-0.949708
-0.737622
-0.562367
-0.43433
-0.358119
-0.319349
-0.29232
-0.242416
-0.192759
-0.152512
-0.122676
-0.105346
-0.0992613
-0.0995879
-0.798143
-0.819849
-0.858941
-0.902488
-0.925108
-0.890125
-0.762456
-0.609239
-0.477913
-0.381871
-0.321128
-0.287874
-0.264587
-0.227304
-0.189521
-0.158647
-0.13559
-0.122196
-0.118078
-0.119047
-0.445856
-0.461299
-0.49182
-0.530892
-0.561686
-0.557793
-0.505414
-0.434273
-0.366314
-0.310347
-0.270047
-0.243772
-0.223731
-0.19961
-0.175623
-0.155906
-0.140652
-0.132095
-0.129819
-0.131124
-0.108969
-0.117257
-0.136564
-0.170707
-0.211258
-0.243082
-0.258939
-0.260871
-0.251736
-0.232633
-0.212819
-0.194944
-0.181987
-0.170951
-0.160098
-0.151168
-0.143842
-0.140195
-0.139676
-0.141066
0.101851
0.0972426
0.0832417
0.0548513
0.0109081
-0.0431742
-0.093243
-0.130567
-0.153125
-0.161003
-0.157612
-0.149868
-0.144763
-0.144315
-0.14498
-0.146012
-0.147996
-0.150866
-0.152308
-0.153186
0.18485
0.181992
0.171662
0.148218
0.10824
0.0552848
0.000194598
-0.0483002
-0.0835498
-0.103975
-0.109857
-0.109412
-0.11099
-0.117511
-0.126805
-0.137037
-0.146675
-0.153837
-0.156334
-0.156682
0.1919
0.189907
0.182358
0.164719
0.133947
0.0919918
0.0451361
-0.00039487
-0.0374255
-0.0619419
-0.0712354
-0.0720066
-0.0749273
-0.0878561
-0.103928
-0.118923
-0.131611
-0.13973
-0.142069
-0.142215
0.166933
0.165619
0.160422
0.148117
0.126369
0.0958536
0.0596891
0.0226297
-0.00966043
-0.0332405
-0.0428087
-0.0416742
-0.0427448
-0.0597589
-0.0784375
-0.0935863
-0.104675
-0.110473
-0.112107
-0.112392
0.1327
0.131934
0.128563
0.120381
0.105656
0.0844423
0.0580931
0.0296062
0.00320031
-0.0171618
-0.027045
-0.0265869
-0.0278896
-0.0436674
-0.0585753
-0.0685505
-0.0745998
-0.0769735
-0.0778141
-0.0782965
0.0978854
0.0976112
0.0955917
0.0904199
0.0808293
0.0665885
0.0482582
0.0277699
0.00741324
-0.0105879
-0.0236087
-0.031554
-0.0368907
-0.0436979
-0.0474124
-0.0492147
-0.049463
-0.0490996
-0.0493998
-0.0500505
0.0654791
0.0653628
0.0643183
0.0612988
0.0554259
0.0464523
0.034578
0.0208907
0.00639347
-0.00855186
-0.0250527
-0.0456569
-0.0559033
-0.0496249
-0.0416117
-0.0366172
-0.0333775
-0.0319005
-0.0318845
-0.0324655
0.0353961
0.0354349
0.0350532
0.0335985
0.0305621
0.0258251
0.0194483
0.0119484
0.00339868
-0.00648992
-0.0209898
-0.0439571
-0.0554264
-0.0428191
-0.0304717
-0.0243878
-0.0219124
-0.0211701
-0.0210906
-0.0213786
0.00653361
0.00663257
0.00670778
0.00696118
0.00686437
0.00620626
0.00499928
0.00347118
0.00178743
9.36186e-05
-0.00310217
-0.00895251
-0.0164508
-0.0132736
-0.0111808
-0.00995409
-0.00910778
-0.00865965
-0.00769267
-0.00687583
-0.0679435
0.0968972
0.288754
0.456118
0.589011
0.692616
0.777674
0.850172
0.88354
0.860374
0.228617
0.347601
0.475371
0.585426
0.677731
0.753718
0.815161
0.858861
0.88074
0.893013
0.443284
0.524705
0.611969
0.68879
0.754664
0.809724
0.853542
0.885624
0.90895
0.927065
0.601373
0.659727
0.720011
0.776168
0.824847
0.866219
0.900263
0.927492
0.950048
0.968428
0.724904
0.767281
0.812587
0.855684
0.893812
0.927143
0.955722
0.979564
0.999801
1.01768
0.828032
0.860478
0.898144
0.933254
0.965523
0.994488
1.01983
1.04117
1.05892
1.0763
0.919842
0.948285
0.981959
1.01384
1.04357
1.07057
1.09418
1.1138
1.12925
1.14633
1.00799
1.03703
1.07086
1.10275
1.13222
1.1587
1.18148
1.19991
1.21324
1.23027
1.10303
1.13614
1.17268
1.20617
1.23613
1.26225
1.28415
1.30139
1.31323
1.33062
1.21787
1.25563
1.29421
1.32841
1.3577
1.38241
1.40275
1.41861
1.43006
1.44812
1.36271
1.40122
1.43732
1.46798
1.49362
1.51569
1.53473
1.55024
1.56265
1.58065
1.53772
1.56934
1.59549
1.61792
1.63787
1.65658
1.67428
1.69075
1.70609
1.72415
1.7263
1.7435
1.75852
1.77474
1.79063
1.80516
1.81835
1.83228
1.84981
1.86996
1.90801
1.91754
1.92907
1.93987
1.94916
1.95873
1.96951
1.98087
1.99223
2.00758
2.11522
2.11888
2.10394
2.08913
2.08285
2.08852
2.10699
2.1373
2.16948
2.19613
2.42155
2.28668
2.21004
2.16764
2.15022
2.15418
2.18158
2.238
2.34061
2.56498
0.750766
0.748639
0.744157
0.735537
0.723319
0.7112
0.700986
0.693112
0.687524
0.68431
0.684005
0.68679
0.691931
0.69918
0.708586
0.720138
0.732797
0.743838
0.749953
0.753009
0.675206
0.681054
0.68739
0.691888
0.694366
0.694052
0.691329
0.687542
0.684063
0.681846
0.681751
0.683998
0.687699
0.692016
0.695842
0.697739
0.696813
0.693339
0.688179
0.681559
0.666759
0.669056
0.672463
0.675465
0.677549
0.679057
0.67983
0.679537
0.678546
0.67771
0.677942
0.679423
0.68128
0.682616
0.682818
0.681945
0.680407
0.678079
0.674822
0.671904
0.661217
0.662303
0.66414
0.666525
0.668559
0.67
0.67104
0.67182
0.67226
0.672536
0.673091
0.673958
0.674603
0.674705
0.674318
0.673489
0.672034
0.66996
0.667882
0.666501
0.655971
0.656634
0.657746
0.659459
0.661252
0.662901
0.664219
0.665267
0.666195
0.667046
0.667849
0.668471
0.668719
0.668594
0.668058
0.667026
0.665616
0.664086
0.662777
0.661999
0.650942
0.651402
0.652192
0.653499
0.655
0.656536
0.658028
0.659363
0.660551
0.661678
0.66268
0.66333
0.66354
0.663316
0.662657
0.661696
0.660593
0.659477
0.658572
0.658058
0.646047
0.64639
0.647005
0.648084
0.649394
0.65079
0.65226
0.653749
0.655182
0.656545
0.657758
0.658548
0.658803
0.658589
0.658036
0.657296
0.656474
0.655628
0.654968
0.654592
0.64123
0.641496
0.641994
0.642914
0.644102
0.645425
0.646855
0.648393
0.650004
0.651621
0.65309
0.654077
0.654475
0.654429
0.654094
0.653581
0.652968
0.652355
0.651878
0.651591
0.636407
0.636619
0.637033
0.637844
0.638955
0.640234
0.64166
0.643253
0.645006
0.646876
0.648651
0.649922
0.650577
0.650787
0.650695
0.650412
0.650014
0.649598
0.649264
0.64904
0.631488
0.631658
0.632014
0.632754
0.633822
0.635084
0.636544
0.63823
0.640153
0.642295
0.644437
0.646089
0.647089
0.647604
0.647779
0.647739
0.647563
0.647327
0.64711
0.646933
0.626383
0.62652
0.626834
0.627531
0.628586
0.629877
0.631411
0.633234
0.635382
0.637855
0.640446
0.642571
0.643984
0.644854
0.645336
0.645556
0.645601
0.645543
0.645428
0.645285
0.620998
0.621107
0.621394
0.622073
0.62315
0.624515
0.626169
0.628183
0.630626
0.633517
0.636658
0.639353
0.641255
0.642538
0.643366
0.643872
0.644156
0.644274
0.644247
0.644131
0.615233
0.615319
0.61559
0.616276
0.61741
0.618893
0.620721
0.622996
0.625812
0.629231
0.633045
0.636424
0.638907
0.640669
0.641891
0.642734
0.643283
0.643571
0.643623
0.643528
0.608975
0.60904
0.609305
0.610019
0.61125
0.612898
0.614963
0.617579
0.62087
0.624944
0.629578
0.633778
0.636952
0.63928
0.640959
0.642181
0.64302
0.643496
0.643625
0.643546
0.602091
0.602135
0.6024
0.603167
0.604533
0.606403
0.60878
0.611829
0.61572
0.620598
0.626228
0.631415
0.635409
0.638406
0.640624
0.642274
0.643453
0.64413
0.644334
0.644268
0.594424
0.594444
0.594711
0.595553
0.5971
0.599253
0.602029
0.60563
0.610266
0.616133
0.622969
0.629337
0.634303
0.638088
0.640947
0.643109
0.644672
0.645569
0.645847
0.645791
0.585737
0.585749
0.586034
0.586975
0.588755
0.591258
0.594545
0.598839
0.604403
0.611482
0.619775
0.62755
0.633667
0.63838
0.641992
0.644772
0.646775
0.647911
0.648263
0.648212
0.575754
0.575736
0.57607
0.577158
0.579231
0.582196
0.586129
0.591292
0.598008
0.606573
0.616623
0.626068
0.633542
0.639349
0.643846
0.647343
0.649857
0.651253
0.651679
0.651629
0.564153
0.564111
0.564494
0.565774
0.568217
0.571778
0.576531
0.582792
0.590947
0.601335
0.613497
0.624915
0.633971
0.641057
0.646592
0.650913
0.654012
0.655683
0.656175
0.656122
0.550434
0.550364
0.550829
0.552364
0.555294
0.559626
0.565439
0.573106
0.583073
0.595705
0.610392
0.624121
0.635003
0.643553
0.650301
0.655569
0.65931
0.661258
0.661805
0.661742
0.533923
0.533824
0.534417
0.536308
0.539891
0.545256
0.552473
0.561972
0.574244
0.589636
0.607325
0.623726
0.636689
0.646902
0.655013
0.661346
0.665778
0.667988
0.668567
0.668487
0.513649
0.513525
0.514324
0.516735
0.521239
0.528038
0.537172
0.549112
0.564342
0.583129
0.604353
0.623792
0.639086
0.651146
0.66074
0.668255
0.673383
0.675806
0.676384
0.676279
0.488151
0.488011
0.489151
0.49237
0.498274
0.507173
0.519028
0.534289
0.553334
0.576263
0.601586
0.624414
0.642241
0.656298
0.667503
0.676248
0.682002
0.684545
0.685076
0.684939
0.455043
0.454928
0.456693
0.461318
0.469553
0.481741
0.497592
0.51741
0.541335
0.569234
0.599207
0.625713
0.646214
0.662363
0.675231
0.685188
0.691399
0.693918
0.694351
0.69418
0.410058
0.410117
0.413267
0.420831
0.433396
0.450955
0.472735
0.498699
0.5287
0.562386
0.597467
0.627824
0.651063
0.669315
0.683842
0.694845
0.701212
0.703514
0.703805
0.703603
0.345193
0.34646
0.354176
0.368313
0.388821
0.414934
0.44507
0.478868
0.516055
0.556177
0.596631
0.63087
0.656792
0.677075
0.693063
0.704747
0.710923
0.712773
0.712889
0.712674
0.268352
0.270217
0.285004
0.30932
0.340954
0.377143
0.416367
0.458466
0.503283
0.550395
0.596934
0.635802
0.665019
0.687751
0.705339
0.717545
0.723239
0.724688
0.724748
0.724614
0.189137
0.19554
0.217385
0.252142
0.294321
0.340303
0.388563
0.43899
0.491484
0.545636
0.598334
0.641847
0.674274
0.699392
0.718631
0.730712
0.735415
0.736326
0.736324
0.736251
0.124272
0.133088
0.159561
0.201471
0.251901
0.306207
0.362597
0.420804
0.480601
0.541492
0.600017
0.647806
0.683075
0.710002
0.730018
0.741741
0.74597
0.746771
0.746804
0.746781
0.0715219
0.0809432
0.111031
0.158257
0.214908
0.275914
0.339168
0.404231
0.47068
0.537859
0.601868
0.653654
0.691525
0.720084
0.740703
0.752211
0.756132
0.756873
0.756951
0.756975
0.0274329
0.0371401
0.0697127
0.120986
0.182741
0.249305
0.318377
0.389435
0.46187
0.534859
0.604049
0.65964
0.699984
0.730121
0.751437
0.762876
0.766541
0.767332
0.767484
0.767553
-0.0103718
-0.000563284
0.0338593
0.0883649
0.154349
0.225659
0.29981
0.37619
0.454066
0.532457
0.606571
0.665859
0.708655
0.740372
0.762416
0.773964
0.7777
0.778543
0.778722
0.77883
-0.0435941
-0.0337708
0.00206007
0.0592886
0.128825
0.204235
0.282893
0.36408
0.446971
0.530441
0.609293
0.672215
0.717462
0.750808
0.773743
0.785701
0.789598
0.790462
0.790616
0.790737
-0.0735478
-0.0637133
-0.0267394
0.0328379
0.105426
0.184435
0.267117
0.352687
0.440238
0.528543
0.612
0.678516
0.726238
0.761271
0.785201
0.797684
0.801781
0.802672
0.802802
0.802898
-0.101158
-0.0913053
-0.0533594
0.00830326
0.0835761
0.165785
0.252082
0.341662
0.433573
0.526501
0.614467
0.684572
0.734783
0.771525
0.796474
0.809476
0.8138
0.814693
0.814778
0.814858
-0.127022
-0.117122
-0.0782822
-0.0148751
0.0628336
0.147913
0.237481
0.330743
0.426731
0.524093
0.616511
0.690217
0.742906
0.781313
0.807252
0.820723
0.825305
0.8262
0.826231
0.82627
-0.151639
-0.141647
-0.101944
-0.0370215
0.0428972
0.130547
0.223082
0.319723
0.419533
0.521159
0.617983
0.695325
0.75051
0.790533
0.817357
0.831203
0.835922
0.836805
0.836795
0.836799
-0.175334
-0.165166
-0.124716
-0.0583363
0.0235553
0.1135
0.208724
0.308467
0.411846
0.517563
0.618761
0.699819
0.757544
0.79913
0.826709
0.840788
0.845561
0.84637
0.846325
0.846297
-0.198224
-0.18787
-0.146765
-0.0789772
0.00465687
0.0966693
0.194312
0.296884
0.403575
0.513193
0.618744
0.703646
0.764019
0.807149
0.835291
0.849415
0.854101
0.854875
0.854802
0.854746
-0.220516
-0.209918
-0.168111
-0.0990557
-0.0138736
0.0799861
0.179795
0.284926
0.394671
0.507988
0.617844
0.706754
0.769976
0.814706
0.843274
0.857244
0.861705
0.86239
0.862266
0.862193
-0.242193
-0.231349
-0.188884
-0.118646
-0.0320659
0.0634321
0.16517
0.272594
0.385119
0.501896
0.615979
0.709081
0.77547
0.821976
0.850853
0.864391
0.868452
0.868972
0.868805
0.86872
-0.263315
-0.252211
-0.209048
-0.137758
-0.0499248
0.0470136
0.150452
0.259918
0.374939
0.4949
0.613078
0.710557
0.780518
0.829129
0.858318
0.871113
0.874477
0.874728
0.87452
0.874429
-0.283776
-0.272467
-0.228608
-0.156363
-0.0674255
0.03078
0.135686
0.246941
0.364173
0.487027
0.609087
0.711084
0.785078
0.836318
0.86606
0.877862
0.88005
0.879754
0.879493
0.879439
-0.3037
-0.292086
-0.247571
-0.174458
-0.0845535
0.0147534
0.120944
0.233725
0.352887
0.478328
0.603981
0.710533
0.789027
0.843584
0.87448
0.885375
0.885852
0.884381
0.883862
0.883948
-0.322945
-0.31105
-0.265923
-0.192018
-0.101243
-0.00099366
0.106294
0.220377
0.341174
0.468844
0.597767
0.708767
0.792163
0.850787
0.88378
0.89456
0.893315
0.889785
0.888001
0.887716
-0.341583
-0.32942
-0.28362
-0.209002
-0.117469
-0.0164012
0.0918112
0.206965
0.329131
0.458694
0.590485
0.70564
0.794209
0.857575
0.893647
0.905868
0.904395
0.898682
0.892683
0.885428
-0.35954
-0.347154
-0.300761
-0.225565
-0.133436
-0.0317299
0.0771789
0.193117
0.316347
0.447426
0.581667
0.700687
0.794794
0.86381
0.903757
0.919146
0.919838
0.912937
0.901233
0.897237
-0.376773
-0.364177
-0.317334
-0.241688
-0.14916
-0.0469798
0.0624018
0.178806