/*--------------------------------*- C++ -*----------------------------------*\
| =========                 |                                                 |
| \\      /  F ield         | OpenFOAM: The Open Source CFD Toolbox           |
|  \\    /   O peration     | Version:  4.0                                   |
|   \\  /    A nd           | Web:      www.OpenFOAM.org                      |
|    \\/     M anipulation  |                                                 |
\*---------------------------------------------------------------------------*/
FoamFile
{
    version     2.0;
    format      ascii;
    class       volVectorField;
    location    "75";
    object      U;
}
// * * * * * * * * * * * * * * * * * * * * * * * * * * * * * * * * * * * * * //

dimensions      [0 1 -1 0 0 0 0];

internalField   nonuniform List<vector> 
8800
(
(0.980134 -0.0915198 0)
(1.00234 -0.0587303 0)
(0.999587 -0.0321279 0)
(0.99999 -0.0165196 0)
(1.0001 -0.00883737 0)
(1.00012 -0.00509074 0)
(1.00007 -0.00298608 0)
(1.00003 -0.0016753 0)
(0.999997 -0.000773788 0)
(1.00007 -7.45888e-05 0)
(0.99997 0.000635524 0)
(0.999983 0.00139443 0)
(1.00003 0.00241422 0)
(1.00006 0.0040096 0)
(1.00005 0.0067534 0)
(1.00001 0.0120539 0)
(0.999819 0.0230953 0)
(0.999037 0.0431545 0)
(1.00724 0.0790243 0)
(0.775027 0.0478395 0)
(0.359003 -0.0147477 0)
(1.04651 -0.0724741 0)
(1.08848 -0.0660094 0)
(1.04945 -0.0508991 0)
(1.02557 -0.0376733 0)
(1.01278 -0.0258624 0)
(1.00661 -0.0166607 0)
(1.00365 -0.0101656 0)
(1.00219 -0.00552976 0)
(1.00151 -0.00193093 0)
(1.00137 0.0012828 0)
(1.00171 0.00459589 0)
(1.0027 0.00848304 0)
(1.00476 0.0137796 0)
(1.00898 0.0214481 0)
(1.01795 0.0319336 0)
(1.0358 0.0446998 0)
(1.06743 0.0581367 0)
(1.09468 0.0699458 0)
(0.845603 0.0555093 0)
(0.21783 -0.0013791 0)
(1.07571 -0.0506236 0)
(1.09944 -0.0489 0)
(1.06442 -0.0399756 0)
(1.03995 -0.0325066 0)
(1.02386 -0.0252811 0)
(1.01406 -0.018049 0)
(1.00854 -0.0114157 0)
(1.00566 -0.00564825 0)
(1.00447 -0.000349553 0)
(1.00476 0.00476441 0)
(1.0066 0.010053 0)
(1.01057 0.0160051 0)
(1.01789 0.022738 0)
(1.03047 0.0298292 0)
(1.05046 0.0369041 0)
(1.08003 0.0446697 0)
(1.10563 0.0519806 0)
(0.943199 0.0410289 0)
(0.217133 0.00140731 0)
(0.176717 -0.000627252 0)
(1.0195 -0.0354267 0)
(1.10578 -0.0413528 0)
(1.07804 -0.0363231 0)
(1.05253 -0.0302629 0)
(1.03531 -0.0243687 0)
(1.02343 -0.0185544 0)
(1.01559 -0.0125376 0)
(1.01096 -0.00642455 0)
(1.0089 -0.000174472 0)
(1.00939 0.00598719 0)
(1.01246 0.0119001 0)
(1.01846 0.0176428 0)
(1.02804 0.0231861 0)
(1.04221 0.0287174 0)
(1.06303 0.0344793 0)
(1.09383 0.0403476 0)
(1.09435 0.0418499 0)
(0.830014 0.022807 0)
(0.175527 0.000649948 0)
(0.154845 -0.000460894 0)
(0.958393 -0.0256438 0)
(1.10452 -0.0350352 0)
(1.08819 -0.0325658 0)
(1.06139 -0.028039 0)
(1.04334 -0.0230533 0)
(1.03093 -0.0177261 0)
(1.0223 -0.0121587 0)
(1.01672 -0.00622436 0)
(1.01402 0.000246266 0)
(1.01461 0.00671054 0)
(1.01838 0.0125791 0)
(1.0252 0.0178627 0)
(1.03532 0.0228283 0)
(1.05001 0.0276287 0)
(1.07194 0.0320428 0)
(1.10092 0.0358962 0)
(1.06952 0.0340704 0)
(0.742192 0.0144926 0)
(0.153059 0.000486364 0)
(0.140206 -0.000332561 0)
(0.901526 -0.0192687 0)
(1.09701 -0.030118 0)
(1.09637 -0.0292116 0)
(1.06914 -0.0254039 0)
(1.05031 -0.0212899 0)
(1.03731 -0.0165589 0)
(1.02829 -0.0112771 0)
(1.0223 -0.00552389 0)
(1.01925 0.000853466 0)
(1.0198 0.00723157 0)
(1.02377 0.0128754 0)
(1.03083 0.0178162 0)
(1.0413 0.0222357 0)
(1.05662 0.0261536 0)
(1.0794 0.0296356 0)
(1.10316 0.0323194 0)
(1.03759 0.0282629 0)
(0.675172 0.0103567 0)
(0.137687 0.000362808 0)
(0.129521 -0.000250829 0)
(0.851832 -0.0148611 0)
(1.08477 -0.0259943 0)
(1.10212 -0.0263018 0)
(1.07603 -0.0229499 0)
(1.05668 -0.0192611 0)
(1.04325 -0.0150266 0)
(1.03385 -0.010124 0)
(1.02757 -0.00458693 0)
(1.02429 0.00160905 0)
(1.0247 0.00777127 0)
(1.02867 0.0131304 0)
(1.03587 0.0176425 0)
(1.04662 0.0214511 0)
(1.0623 0.0247657 0)
(1.08553 0.0277617 0)
(1.10229 0.0295358 0)
(1.0027 0.0237568 0)
(0.622872 0.00796607 0)
(0.126107 0.000287587 0)
(0.121397 -0.000191699 0)
(0.809551 -0.0116645 0)
(1.06961 -0.0223749 0)
(1.10573 -0.0236362 0)
(1.08233 -0.0207307 0)
(1.06253 -0.0172637 0)
(1.04883 -0.0133054 0)
(1.03916 -0.00871754 0)
(1.0326 -0.00344783 0)
(1.02906 0.00252057 0)
(1.0293 0.00841577 0)
(1.0332 0.0134187 0)
(1.04045 0.0174651 0)
(1.05128 0.0207935 0)
(1.0672 0.0237087 0)
(1.09081 0.0263805 0)
(1.09853 0.0272365 0)
(0.967322 0.0202247 0)
(0.580791 0.00641261 0)
(0.116892 0.000236339 0)
(0.11512 -0.000146726 0)
(0.773968 -0.00926837 0)
(1.05293 -0.0191826 0)
(1.10817 -0.0211654 0)
(1.08827 -0.0186353 0)
(1.06806 -0.0153236 0)
(1.05409 -0.0115268 0)
(1.04423 -0.00713273 0)
(1.03743 -0.00209423 0)
(1.03361 0.00361935 0)
(1.0336 0.00920716 0)
(1.03737 0.0138308 0)
(1.04455 0.0174652 0)
(1.05537 0.0204107 0)
(1.07151 0.0229917 0)
(1.0948 0.0253071 0)
(1.0919 0.0253468 0)
(0.932804 0.0175033 0)
(0.545912 0.00535233 0)
(0.10929 0.000200892 0)
(0.110243 -0.00011109 0)
(0.744162 -0.00740798 0)
(1.03582 -0.0163454 0)
(1.10967 -0.0188348 0)
(1.09392 -0.01661 0)
(1.07341 -0.0133921 0)
(1.05916 -0.00968607 0)
(1.04909 -0.00540747 0)
(1.04206 -0.000530898 0)
(1.03795 0.00494101 0)
(1.03763 0.0102106 0)
(1.04116 0.0144745 0)
(1.04819 0.0177389 0)
(1.05898 0.0203332 0)
(1.07533 0.0226201 0)
(1.09749 0.0245525 0)
(1.08279 0.0238152 0)
(0.899718 0.0154451 0)
(0.516157 0.00461734 0)
(0.102803 0.000176676 0)
(0.106475 -8.15594e-05 0)
(0.719314 -0.00590648 0)
(1.01912 -0.0137921 0)
(1.11035 -0.0165756 0)
(1.09947 -0.0146245 0)
(1.07869 -0.0114187 0)
(1.06413 -0.00773995 0)
(1.05383 -0.00351664 0)
(1.04654 0.00125715 0)
(1.04208 0.00652986 0)
(1.04138 0.0115037 0)
(1.04459 0.0154291 0)
(1.05143 0.0183375 0)
(1.06216 0.0205925 0)
(1.0787 0.0226133 0)
(1.09881 0.0241311 0)
(1.07156 0.0226394 0)
(0.868177 0.013937 0)
(0.490045 0.00411605 0)
(0.097079 0.000161128 0)
(0.103626 -5.59369e-05 0)
(0.698784 -0.00464536 0)
(1.00344 -0.0114562 0)
(1.11039 -0.0143504 0)
(1.10489 -0.0125927 0)
(1.08397 -0.00934891 0)
(1.06909 -0.00563756 0)
(1.05851 -0.00140636 0)
(1.0509 0.00331719 0)
(1.04603 0.00844271 0)
(1.04485 0.0131543 0)
(1.04768 0.0167565 0)
(1.05428 0.0193128 0)
(1.06492 0.021235 0)
(1.08161 0.0229946 0)
(1.09906 0.0241206 0)
(1.05848 0.0218356 0)
(0.838011 0.012892 0)
(0.466468 0.00379171 0)
(0.0918547 0.000152401 0)
(0.101576 -3.22972e-05 0)
(0.682101 -0.00353623 0)
(0.989247 -0.0092679 0)
(1.10998 -0.0120746 0)
(1.11013 -0.0104259 0)
(1.08935 -0.00712182 0)
(1.07411 -0.00331705 0)
(1.06321 0.000988424 0)
(1.05521 0.00571877 0)
(1.04982 0.0107505 0)
(1.04808 0.0152305 0)
(1.05044 0.0185223 0)
(1.05676 0.0207261 0)
(1.06728 0.022313 0)
(1.08402 0.0237957 0)
(1.0983 0.0244989 0)
(1.04369 0.0214144 0)
(0.80887 0.0122383 0)
(0.444546 0.00360642 0)
(0.0869213 0.000149052 0)
(0.100262 -8.95951e-06 0)
(0.668961 -0.0025098 0)
(0.976911 -0.00715363 0)
(1.10944 -0.00968825 0)
(1.11534 -0.00806327 0)
(1.0949 -0.00466136 0)
(1.07927 -0.000696932 0)
(1.06798 0.00374634 0)
(1.0595 0.00855267 0)
(1.05349 0.0135426 0)
(1.05107 0.0178181 0)
(1.05288 0.0208073 0)
(1.05884 0.0226459 0)
(1.06921 0.023884 0)
(1.08596 0.0250903 0)
(1.0963 0.0253238 0)
(1.02722 0.021369 0)
(0.78031 0.0119227 0)
(0.423564 0.0035344 0)
(0.0821127 0.000150018 0)
(0.0996664 1.64298e-05 0)
(0.659211 -0.00151305 0)
(0.966751 -0.00504219 0)
(1.10912 -0.00712683 0)
(1.12066 -0.00543215 0)
(1.10071 -0.00188147 0)
(1.08465 0.00231251 0)
(1.07291 0.00696383 0)
(1.06385 0.0119189 0)
(1.05708 0.0169233 0)
(1.05383 0.0210222 0)
(1.05498 0.0237099 0)
(1.06053 0.0251733 0)
(1.0707 0.026049 0)
(1.08736 0.026938 0)
(1.093 0.0266139 0)
(1.00901 0.0217445 0)
(0.751828 0.0119193 0)
(0.402919 0.00356175 0)
(0.0772906 0.000154814 0)
(0.0998121 3.58275e-05 0)
(0.652829 -0.000502457 0)
(0.959076 -0.00286038 0)
(1.10934 -0.00431764 0)
(1.12625 -0.00244671 0)
(1.10688 0.00131623 0)
(1.09036 0.00581676 0)
(1.07807 0.0107604 0)
(1.0683 0.0159391 0)
(1.06062 0.021014 0)
(1.05638 0.0249589 0)
(1.05673 0.0273411 0)
(1.06179 0.0284275 0)
(1.07173 0.0289134 0)
(1.08798 0.0294271 0)
(1.08807 0.0284435 0)
(0.988878 0.0225689 0)
(0.722852 0.0122128 0)
(0.382055 0.00367873 0)
(0.0723297 0.00016299 0)
(0.100767 7.2677e-05 0)
(0.649932 0.000547155 0)
(0.954203 -0.000528736 0)
(1.11049 -0.00117814 0)
(1.13232 0.000989334 0)
(1.11354 0.00505223 0)
(1.0965 0.00995283 0)
(1.08354 0.0152791 0)
(1.07292 0.0207629 0)
(1.06413 0.0259647 0)
(1.0587 0.0297727 0)
(1.05811 0.0318333 0)
(1.06258 0.0325324 0)
(1.07223 0.032603 0)
(1.08768 0.0326896 0)
(1.08127 0.0309013 0)
(0.966496 0.0238816 0)
(0.692756 0.012794 0)
(0.360453 0.0038772 0)
(0.06712 0.000173811 0)
(0.102695 0.000107671 0)
(0.650863 0.00174015 0)
(0.95249 0.00203525 0)
(1.11301 0.00239431 0)
(1.13908 0.00497168 0)
(1.12083 0.00947441 0)
(1.10319 0.0148792 0)
(1.08944 0.0206903 0)
(1.07777 0.0265675 0)
(1.06764 0.0319535 0)
(1.0608 0.0356333 0)
(1.0591 0.037327 0)
(1.06287 0.0376299 0)
(1.07214 0.0372518 0)
(1.08618 0.0368472 0)
(1.0723 0.0340809 0)
(0.941415 0.0257195 0)
(0.660861 0.0136558 0)
(0.337623 0.00414898 0)
(0.0615667 0.000186654 0)
(0.105678 0.000156981 0)
(0.656073 0.00321414 0)
(0.95442 0.00499389 0)
(1.11737 0.00652112 0)
(1.14676 0.00966886 0)
(1.1289 0.0147663 0)
(1.11058 0.0207989 0)
(1.09586 0.0272122 0)
(1.08292 0.0335738 0)
(1.07117 0.0391877 0)
(1.06265 0.0427198 0)
(1.05966 0.0440203 0)
(1.06257 0.0438905 0)
(1.07141 0.0430138 0)
(1.08336 0.0420957 0)
(1.06076 0.0380964 0)
(0.913034 0.0281221 0)
(0.626433 0.0147878 0)
(0.313107 0.00448354 0)
(0.0555931 0.000200522 0)
(0.110001 0.00022069 0)
(0.665966 0.00492157 0)
(0.960437 0.00847542 0)
(1.12408 0.0113661 0)
(1.15564 0.015283 0)
(1.138 0.0211618 0)
(1.11885 0.0279704 0)
(1.10293 0.035118 0)
(1.08841 0.0420514 0)
(1.07471 0.0479148 0)
(1.06422 0.0512561 0)
(1.05971 0.0521022 0)
(1.06164 0.051502 0)
(1.06996 0.0500594 0)
(1.07928 0.048545 0)
(1.04609 0.0430581 0)
(0.880585 0.0311081 0)
(0.588681 0.0161614 0)
(0.286489 0.00486186 0)
(0.0491489 0.000213916 0)
(0.116007 0.000306682 0)
(0.681337 0.00704669 0)
(0.971188 0.0126838 0)
(1.13369 0.017176 0)
(1.16611 0.0220822 0)
(1.14838 0.0289789 0)
(1.12817 0.0367405 0)
(1.11074 0.0447599 0)
(1.09428 0.0523317 0)
(1.07823 0.0584235 0)
(1.06543 0.0614879 0)
(1.0591 0.0617623 0)
(1.06001 0.0606524 0)
(1.06778 0.0586043 0)
(1.07366 0.0563874 0)
(1.02756 0.0490381 0)
(0.843129 0.0346599 0)
(0.54681 0.017717 0)
(0.257454 0.00525318 0)
(0.042228 0.000224779 0)
(0.124207 0.000429982 0)
(0.703117 0.00982542 0)
(0.987549 0.0179297 0)
(1.14688 0.0242981 0)
(1.17867 0.0304641 0)
(1.16035 0.0386815 0)
(1.13875 0.0475942 0)
(1.11939 0.0566063 0)
(1.1005 0.0648256 0)
(1.08164 0.0710382 0)
(1.06618 0.0736659 0)
(1.0578 0.0732333 0)
(1.0576 0.0714905 0)
(1.06477 0.0687649 0)
(1.06608 0.065563 0)
(1.00423 0.0560851 0)
(0.799564 0.038696 0)
(0.500079 0.019348 0)
(0.22586 0.00561198 0)
(0.034885 0.000230588 0)
(0.135327 0.000604501 0)
(0.732555 0.0136341 0)
(1.01069 0.0246851 0)
(1.16443 0.0332832 0)
(1.19391 0.0410284 0)
(1.17429 0.0509463 0)
(1.15078 0.0612037 0)
(1.12889 0.0712622 0)
(1.10697 0.0800202 0)
(1.08478 0.0861158 0)
(1.06631 0.0880437 0)
(1.05574 0.0867339 0)
(1.05435 0.0843098 0)
(1.06053 0.0806958 0)
(1.05577 0.076381 0)
(0.974849 0.0641415 0)
(0.748675 0.04303 0)
(0.447942 0.0208844 0)
(0.191838 0.0058764 0)
(0.0272556 0.000228452 0)
(0.150652 0.000886992 0)
(0.771719 0.0190811 0)
(1.04226 0.0337464 0)
(1.18729 0.0450848 0)
(1.21266 0.0550189 0)
(1.19052 0.0668176 0)
(1.16429 0.0785296 0)
(1.13907 0.0895082 0)
(1.11343 0.0984786 0)
(1.08739 0.10402 0)
(1.06561 0.104849 0)
(1.05272 0.102403 0)
(1.05015 0.099184 0)
(1.0548 0.094803 0)
(1.0418 0.0888378 0)
(0.937812 0.0729733 0)
(0.689274 0.047319 0)
(0.390274 0.0220806 0)
(0.155931 0.00597137 0)
(0.019571 0.000215579 0)
(0.172413 0.00137437 0)
(0.823899 0.0273521 0)
(1.08497 0.0467102 0)
(1.21658 0.0615928 0)
(1.2354 0.0743232 0)
(1.20913 0.0879246 0)
(1.17904 0.100894 0)
(1.14953 0.112283 0)
(1.11943 0.120796 0)
(1.08906 0.125079 0)
(1.06378 0.124249 0)
(1.0486 0.120338 0)
(1.04485 0.116122 0)
(1.0476 0.110824 0)
(1.02285 0.102777 0)
(0.891145 0.0820929 0)
(0.620554 0.0510482 0)
(0.327782 0.0226463 0)
(0.119248 0.00582498 0)
(0.0121692 0.000189111 0)
(0.204076 0.00246046 0)
(0.894904 0.041209 0)
(1.14229 0.0674669 0)
(1.25271 0.086346 0)
(1.26197 0.101787 0)
(1.2295 0.116635 0)
(1.19421 0.129894 0)
(1.15942 0.140559 0)
(1.12427 0.147498 0)
(1.08929 0.149519 0)
(1.06052 0.1463 0)
(1.04318 0.140533 0)
(1.03836 0.135151 0)
(1.03827 0.128833 0)
(0.997037 0.117714 0)
(0.832562 0.0906505 0)
(0.542845 0.0535683 0)
(0.262752 0.0223916 0)
(0.083775 0.00543615 0)
(0.00557222 0.000152047 0)
(0.247201 0.00883294 4.45499e-20)
(0.988795 0.0688943 3.8975e-20)
(1.21195 0.10229 -1.36584e-20)
(1.29266 0.122959 0)
(1.2895 0.141034 -3.5193e-34)
(1.24948 0.155284 5.15255e-21)
(1.20822 0.167046 -9.31491e-21)
(1.16766 0.17556 0)
(1.12712 0.179835 1.92387e-34)
(1.08732 0.178793 -1.16137e-20)
(1.05493 0.172735 0)
(1.03541 0.165025 -1.38557e-20)
(1.02993 0.158845 -4.09304e-20)
(1.02541 0.152152 -1.93581e-20)
(0.959586 0.13601 -5.83309e-21)
(0.755065 0.0997491 -3.46695e-21)
(0.45088 0.0549553 0)
(0.193927 0.021618 2.42154e-21)
(0.0495657 0.00501404 2.85843e-21)
(-0.00027711 9.54053e-05 5.15847e-20)
(0.277434 0.0246457 3.15232e-20)
(1.06637 0.112197 5.55277e-22)
(1.26937 0.151937 3.59158e-21)
(1.32856 0.172793 0)
(1.31374 0.190607 -1.76624e-20)
(1.26674 0.202696 -2.01393e-20)
(1.21958 0.212156 -9.35089e-21)
(1.17324 0.218221 -3.34071e-20)
(1.12718 0.219789 0)
(1.08226 0.215784 4.92854e-20)
(1.04592 0.207065 4.89693e-20)
(1.02409 0.197536 1.45509e-20)
(1.01629 0.189861 5.32401e-20)
(1.00141 0.18112 7.49932e-20)
(0.899256 0.156799 0)
(0.648458 0.108287 1.05748e-19)
(0.342807 0.0553435 1.51493e-19)
(0.122794 0.0199719 1.68146e-19)
(0.0156443 0.00337472 -1.92166e-19)
(-0.00601756 -0.000513083 -3.62228e-21)
(0.27851 0.0408175 0)
(1.11554 0.168267 5.29476e-21)
(1.30822 0.212989 0)
(1.35655 0.23325 -2.23053e-20)
(1.33287 0.247883 0)
(1.28 0.256077 -3.91823e-20)
(1.22736 0.261786 1.89854e-20)
(1.17557 0.264262 -6.68397e-20)
(1.1243 0.262216 -1.59738e-21)
(1.07457 0.254559 2.5368e-20)
(1.03459 0.242684 1.07398e-19)
(1.01064 0.231008 -1.79586e-22)
(1.00024 0.221649 -3.85981e-20)
(0.974816 0.209743 -7.03003e-20)
(0.843588 0.17609 8.32882e-20)
(0.569485 0.115159 -1.47365e-19)
(0.277377 0.0555993 -1.94054e-20)
(0.0840092 0.0181377 0)
(-0.00268587 0.00100155 -1.67731e-23)
(-0.00928288 -0.00132235 0)
(0.27189 0.0547761 6.20543e-20)
(1.14214 0.227611 -3.13719e-20)
(1.3323 0.278532 -2.55051e-20)
(1.37521 0.298856 1.03306e-20)
(1.34543 0.309439 -1.74284e-20)
(1.28819 0.313055 8.16654e-20)
(1.23104 0.314303 3.93895e-20)
(1.17458 0.312503 0)
(1.1187 0.306241 -1.26315e-19)
(1.06463 0.294389 0)
(1.02137 0.278911 -5.6104e-20)
(0.995508 0.264701 -6.95191e-20)
(0.982587 0.253134 -4.18732e-20)
(0.948067 0.237053 -5.09189e-20)
(0.797551 0.194158 0)
(0.516153 0.122842 0)
(0.239115 0.0572886 -1.25866e-19)
(0.0608991 0.0164435 2.48111e-20)
(-0.0151467 -0.00185259 -1.45453e-20)
(-0.0119872 -0.00233815 -1.70158e-20)
(0.263889 0.0670528 -1.92692e-20)
(1.15377 0.286723 0)
(1.34557 0.344926 4.90111e-20)
(1.38551 0.365796 2.82663e-20)
(1.35151 0.372407 4.06293e-20)
(1.29109 0.371399 0)
(1.23043 0.36805 3.81487e-20)
(1.17015 0.361747 7.34014e-20)
(1.11032 0.350993 6.43875e-20)
(1.05242 0.334626 1.18875e-19)
(1.00617 0.315209 0)
(0.978457 0.29812 -1.49405e-19)
(0.96313 0.283956 -9.00693e-20)
(0.9214 0.263237 -5.32636e-20)
(0.760787 0.211666 3.25852e-19)
(0.482087 0.13144 3.86632e-20)
(0.217985 0.0600807 1.81675e-19)
(0.0472949 0.0148877 -8.57917e-19)
(-0.0242887 -0.00511367 5.06437e-19)
(-0.0145373 -0.00357029 -6.10389e-19)
(0.256052 0.0780679 -2.31383e-21)
(1.15568 0.343699 3.28775e-21)
(1.3509 0.410225 -4.55043e-21)
(1.38906 0.432166 -2.63016e-20)
(1.35206 0.435043 -3.29098e-20)
(1.28928 0.429579 1.79722e-21)
(1.22586 0.421766 -4.13104e-20)
(1.16244 0.411 7.55089e-20)
(1.09925 0.395726 -1.38317e-19)
(1.03795 0.374738 0)
(0.988946 0.35118 -6.75503e-20)
(0.959449 0.330963 -1.56012e-21)
(0.941877 0.313957 -9.84241e-20)
(0.894824 0.288644 0)
(0.731077 0.229361 -7.04115e-20)
(0.460668 0.141432 -1.66626e-19)
(0.207284 0.0640253 4.43099e-19)
(0.0408247 0.0137752 -4.3591e-19)
(-0.0297785 -0.00827365 6.18027e-19)
(-0.0165476 -0.0048805 -6.42363e-19)
(0.249273 0.0881647 -4.28622e-22)
(1.15146 0.39785 1.02249e-21)
(1.35048 0.473422 -8.69758e-21)
(1.3873 0.496766 9.41343e-21)
(1.34813 0.496305 -1.63201e-20)
(1.28358 0.486664 0)
(1.21794 0.474627 -3.7891e-20)
(1.1519 0.459575 -7.88603e-20)
(1.08581 0.439897 -7.17028e-20)
(1.02146 0.414321 0)
(0.96987 0.386567 -6.98233e-20)
(0.938553 0.363089 -8.66941e-20)
(0.918889 0.343102 1.06612e-19)
(0.868346 0.313221 -6.46681e-20)
(0.706089 0.247378 -3.06528e-19)
(0.446769 0.152778 1.8129e-19)
(0.203843 0.0693141 5.36645e-20)
(0.040059 0.0137603 0)
(-0.0316331 -0.0107519 -5.96185e-19)
(-0.0177683 -0.00608553 -2.18822e-20)
(0.243689 0.0976577 2.97905e-21)
(1.14344 0.448983 -3.92671e-21)
(1.34581 0.534049 3.28154e-21)
(1.38149 0.55888 3.52376e-20)
(1.34069 0.555535 -5.80429e-20)
(1.27481 0.542082 7.39173e-20)
(1.20737 0.526115 8.16191e-20)
(1.13911 0.507027 -1.2592e-19)
(1.07044 0.483149 4.45705e-20)
(1.00329 0.453117 -2.91504e-19)
(0.94924 0.421208 -7.90954e-20)
(0.916096 0.394426 0)
(0.89444 0.371421 1.15672e-19)
(0.841554 0.33719 1.3865e-19)
(0.683443 0.265766 1.65179e-19)
(0.436448 0.165147 -1.96954e-19)
(0.203584 0.0758214 -5.81689e-20)
(0.0427501 0.0151015 6.83144e-20)
(-0.0303422 -0.0121688 0)
(-0.0180511 -0.00700926 -4.75084e-20)
(0.239249 0.106716 -5.48629e-20)
(1.13333 0.497208 2.8523e-20)
(1.33816 0.591896 -1.81359e-21)
(1.37265 0.61817 1.97666e-20)
(1.33057 0.612346 -2.48188e-20)
(1.26366 0.595449 -4.12467e-21)
(1.19475 0.575896 -8.94434e-20)
(1.12457 0.553078 -4.56212e-20)
(1.05359 0.525251 -1.24641e-19)
(0.983819 0.490964 3.24784e-22)
(0.927389 0.455 -2.47594e-19)
(0.892413 0.424961 2.09499e-19)
(0.868832 0.398967 -1.27268e-19)
(0.814376 0.360651 1.52894e-19)
(0.661628 0.284099 0)
(0.426985 0.17812 -1.07282e-19)
(0.204143 0.0832625 3.41698e-22)
(0.0471695 0.0177077 -2.98713e-19)
(-0.0269614 -0.012486 -4.38065e-20)
(-0.0175631 -0.0075888 0)
(0.23585 0.115487 0)
(1.12214 0.542754 3.38889e-20)
(1.32848 0.647416 7.73478e-21)
(1.36163 0.674521 -1.63631e-20)
(1.31845 0.666538 -3.32608e-20)
(1.25075 0.646555 0)
(1.18062 0.623761 -3.98884e-20)
(1.10877 0.59754 -1.04016e-21)
(1.03567 0.566066 2.67345e-19)
(0.963416 0.527764 -4.00051e-20)
(0.904642 0.48789 -1.7896e-19)
(0.867821 0.45467 1.0893e-19)
(0.842392 0.425754 -2.22473e-21)
(0.786713 0.383447 1.63036e-19)
(0.639668 0.301923 9.95681e-20)
(0.416643 0.191211 -2.31653e-19)
(0.204142 0.0910091 2.73734e-19)
(0.0518658 0.0211085 8.11685e-20)
(-0.0224456 -0.0118295 3.34165e-19)
(-0.0164981 -0.00783999 -8.92941e-19)
(0.233418 0.124148 -2.03685e-20)
(1.11062 0.585816 2.61471e-20)
(1.31738 0.699901 -1.64456e-20)
(1.34904 0.727926 9.37736e-21)
(1.30492 0.718019 0)
(1.23659 0.69528 -3.22899e-20)
(1.16545 0.669592 1.35164e-19)
(1.09212 0.640305 9.99641e-20)
(1.01706 0.605503 0)
(0.942379 0.563458 -5.77899e-19)
(0.881282 0.519842 4.85153e-19)
(0.842647 0.483508 0)
(0.815442 0.451685 1.49227e-19)
(0.758659 0.405428 -2.18976e-21)
(0.616734 0.318964 -3.20699e-19)
(0.404619 0.203765 1.25082e-19)
(0.20214 0.0987411 0)
(0.0555763 0.0250301 4.38919e-19)
(-0.0177537 -0.0104695 0)
(-0.0150889 -0.00780575 -4.23521e-19)
(0.231828 0.132751 2.50426e-20)
(1.09921 0.626648 3.58345e-20)
(1.30545 0.749452 -1.57192e-20)
(1.33538 0.778397 0)
(1.29045 0.766776 -2.58638e-20)
(1.22164 0.741594 0)
(1.14963 0.713331 -1.32282e-19)
(1.07496 0.681313 -4.59293e-20)
(0.998045 0.643519 4.70804e-20)
(0.920999 0.598025 -2.86175e-19)
(0.85755 0.550837 5.01012e-20)
(0.817096 0.511426 0)
(0.788176 0.476645 -3.19406e-19)
(0.730309 0.426316 2.07082e-21)
(0.592631 0.334835 0)
(0.390728 0.215088 7.94956e-22)
(0.197801 0.105775 4.02263e-19)
(0.0575044 0.0287777 -3.79814e-19)
(-0.0137822 -0.00891512 1.11971e-19)
(-0.0136506 -0.00760149 0)
(0.230747 0.141219 0)
(1.08817 0.665397 4.43319e-20)
(1.29298 0.79622 2.60586e-20)
(1.32109 0.825995 -2.5729e-21)
(1.27543 0.81284 -6.57914e-21)
(1.20623 0.785499 -7.3166e-20)
(1.1335 0.754969 5.01188e-20)
(1.05761 0.720542 -5.48301e-20)
(0.978928 0.680089 2.11066e-19)
(0.899518 0.631469 -4.58717e-19)
(0.83364 0.580887 -4.29471e-21)
(0.791338 0.538392 -1.39816e-19)
(0.760736 0.500519 5.19206e-19)
(0.701709 0.445868 -2.53908e-21)
(0.567349 0.349162 -2.50132e-19)
(0.374849 0.224769 -4.42822e-19)
(0.191214 0.111566 0)
(0.0573855 0.0318287 0)
(-0.0109548 -0.00755972 1.21018e-19)
(-0.0123639 -0.00735296 -7.101e-20)
(0.230398 0.149669 3.64539e-20)
(1.07775 0.701964 -1.01778e-19)
(1.28021 0.840349 -2.79344e-20)
(1.30649 0.870787 0)
(1.26015 0.856272 -1.496e-21)
(1.19067 0.82703 -6.4949e-20)
(1.11732 0.794519 1.19805e-19)
(1.04032 0.757996 2.14836e-19)
(0.959943 0.715222 2.74529e-19)
(0.87815 0.663812 -3.75341e-19)
(0.809725 0.610029 -4.19456e-19)
(0.765469 0.564423 3.74538e-19)
(0.733173 0.523205 0)
(0.672952 0.463769 -1.14227e-19)
(0.541352 0.361451 -2.70384e-19)
(0.35733 0.232457 -3.18884e-19)
(0.182621 0.115727 -3.75836e-19)
(0.0555386 0.0337798 1.10961e-19)
(-0.00925359 -0.00666721 -6.52136e-20)
(-0.0112994 -0.00713562 3.25293e-22)
(0.23024 0.15803 0)
(1.06809 0.736593 0)
(1.26738 0.881936 2.45178e-21)
(1.29182 0.912888 0)
(1.24486 0.897167 8.96907e-21)
(1.17516 0.866249 4.24014e-20)
(1.1013 0.832016 0)
(1.02329 0.79369 2.53268e-20)
(0.941291 0.748927 4.58903e-19)
(0.857092 0.695084 -8.64614e-19)
(0.785954 0.638333 0)
(0.739562 0.58957 -2.41837e-19)
(0.705449 0.544617 -2.98055e-21)
(0.643922 0.479734 -2.17457e-21)
(0.514747 0.371351 2.90183e-19)
(0.33852 0.237675 5.19984e-23)
(0.172409 0.118023 -8.10367e-19)
(0.0522751 0.0345237 2.38804e-19)
(-0.00852453 -0.00628123 7.05868e-20)
(-0.0104511 -0.00696516 0)
(0.230211 0.166255 -1.49075e-19)
(1.05894 0.769571 -7.06976e-20)
(1.25463 0.921073 -8.78121e-20)
(1.27726 0.952432 7.21911e-20)
(1.22975 0.935601 1.11163e-21)
(1.15992 0.903224 0)
(1.08563 0.867507 7.20683e-20)
(1.0067 0.827654 -5.68634e-20)
(0.923142 0.781228 3.93703e-21)
(0.836525 0.72533 6.39452e-20)
(0.762468 0.665886 5.45542e-19)
(0.713634 0.613922 -8.49385e-20)
(0.677467 0.564737 -3.21485e-19)
(0.61455 0.493539 -1.33357e-19)
(0.487694 0.378466 1.57263e-19)
(0.318717 0.240116 1.93797e-22)
(0.161257 0.118203 2.18396e-19)
(0.048063 0.0341051 -5.14445e-19)
(-0.00844361 -0.00633577 6.07663e-19)
(-0.00977276 -0.00684038 8.86508e-20)
(0.230183 0.174261 5.7051e-20)
(1.05031 0.800972 -4.01043e-20)
(1.2421 0.957868 6.26782e-21)
(1.26294 0.989556 4.99921e-20)
(1.21495 0.971689 6.47787e-21)
(1.14505 0.938029 -7.29445e-20)
(1.07043 0.901046 2.02634e-20)
(0.990671 0.859914 -2.3717e-19)
(0.90564 0.812133 -5.07646e-19)
(0.816594 0.754565 -5.17197e-19)
(0.739409 0.692782 0)
(0.687714 0.637613 -3.74302e-19)
(0.649108 0.583633 4.64311e-19)
(0.584587 0.504964 0)
(0.460219 0.382282 -3.37373e-19)
(0.298874 0.239271 1.99929e-19)
(0.150107 0.116062 -2.35013e-19)
(0.043841 0.0327122 -2.76912e-19)
(-0.00863268 -0.00662275 -4.89728e-19)
(-0.00924981 -0.00675532 -3.82038e-19)
(0.230487 0.182139 -6.50423e-20)
(1.04204 0.830797 4.29259e-20)
(1.22984 0.992399 9.62543e-20)
(1.24896 1.02435 7.54696e-20)
(1.20059 1.00553 -9.39474e-21)
(1.13067 0.970753 -3.73102e-20)
(1.0558 0.932686 6.84473e-20)
(0.975311 0.890513 -2.43706e-19)
(0.888885 0.841667 -3.01524e-19)
(0.797433 0.782816 5.43053e-19)
(0.716907 0.719103 1.20355e-18)
(0.66186 0.660818 0)
(0.620219 0.601468 0)
(0.553646 0.513922 -1.53659e-19)
(0.432061 0.382259 0)
(0.279459 0.23412 4.2956e-19)
(0.140793 0.110698 5.05151e-19)
(0.0417767 0.0300763 0)
(-0.00795818 -0.00700106 0)
(-0.00893913 -0.00675436 4.10716e-19)
(0.230532 0.189601 7.44753e-20)
(1.03417 0.85905 5.985e-20)
(1.21793 1.02479 7.0165e-20)
(1.23538 1.05695 -7.53437e-20)
(1.18672 1.03722 -1.70257e-20)
(1.11686 1.00148 3.4901e-20)
(1.04182 0.96249 -9.39374e-20)
(0.96069 0.91948 -8.27578e-22)
(0.872966 0.869839 -5.13672e-21)
(0.779149 0.810088 -4.17282e-21)
(0.695112 0.744913 6.21081e-19)
(0.636171 0.683721 0)
(0.590689 0.61851 4.72349e-19)
(0.521241 0.520531 3.28948e-19)
(0.402441 0.378034 7.88128e-19)
(0.26015 0.222976 2.3172e-19)
(0.135093 0.0988361 -2.71753e-19)
(0.0471756 0.0223627 -1.59602e-19)
(0.000782646 -0.00883851 0)
(-0.00648367 -0.00605044 4.41512e-19)
(0.230925 0.197089 -1.69038e-19)
(1.02664 0.885822 0)
(1.20635 1.05511 8.39478e-20)
(1.22226 1.08742 -6.48356e-20)
(1.17341 1.06687 2.89961e-20)
(1.10364 1.03028 -3.0937e-20)
(1.02853 0.990514 1.80345e-19)
(0.946853 0.946851 -1.98273e-20)
(0.857938 0.896657 0)
(0.761833 0.836359 -6.01662e-19)
(0.674168 0.77024 -1.35428e-18)
(0.610791 0.706513 5.56135e-20)
(0.560509 0.635102 6.54554e-19)
(0.486961 0.525226 0)
(0.369972 0.369859 5.32942e-19)
(0.238443 0.204296 0)
(0.130875 0.0729898 0)
(0.0654318 -0.00684508 -1.72499e-19)
(0.0409617 -0.022168 0)
(0.0255175 0.00883195 1.18425e-19)
(0.23099 0.204011 -1.89812e-19)
(1.01942 0.911459 0)
(1.19511 1.08355 1.41038e-19)
(1.20954 1.11599 0)
(1.16062 1.09475 -1.95066e-20)
(1.09098 1.05746 0)
(1.01588 1.01707 8.37767e-21)
(0.933704 0.972961 3.37649e-20)
(0.843676 0.922478 3.80753e-20)
(0.745312 0.862009 -6.61109e-19)
(0.653879 0.795519 4.06733e-20)
(0.585461 0.729863 4.48981e-19)
(0.52917 0.652103 6.39773e-19)
(0.449785 0.528629 8.61064e-20)
(0.332398 0.359014 4.18761e-19)
(0.208487 0.178772 0)
(0.114793 0.0279341 5.72446e-19)
(0.0634576 -0.0473745 -3.33961e-19)
(0.0403085 0.0377188 3.88918e-19)
(-0.0690917 0.43961 -4.58234e-19)
(0.231072 0.210755 1.57749e-19)
(1.01224 0.935742 2.41071e-19)
(1.18411 1.11044 0)
(1.19709 1.14312 4.8393e-21)
(1.14815 1.12143 6.14071e-20)
(1.07859 1.08369 1.82158e-20)
(1.00353 1.04295 6.1138e-20)
(0.920821 0.998734 0)
(0.829633 0.948375 2.5161e-19)
(0.7289 0.888322 -3.44386e-20)
(0.633306 0.822216 0)
(0.558857 0.755417 0)
(0.494541 0.670908 5.75304e-19)
(0.407114 0.53118 -2.6661e-19)
(0.286261 0.347177 -4.26024e-19)
(0.164876 0.149438 0)
(0.0683656 0.0427712 2.8923e-19)
(0.00218517 0.434637 -3.33209e-19)
(0.0319384 1.8983 -1.82029e-19)
(0.0609944 2.81567 -2.33155e-19)
(0.231022 0.216711 -1.1905e-19)
(1.00532 0.958857 -3.1059e-19)
(1.17336 1.13576 8.44395e-20)
(1.18491 1.16868 6.65679e-20)
(1.13602 1.14666 0)
(1.06656 1.10868 1.99947e-21)
(0.991706 1.06784 8.09489e-20)
(0.908405 1.02374 -1.6312e-20)
(0.816091 0.973837 3.77559e-20)
(0.712994 0.914701 6.31998e-19)
(0.613066 0.849729 6.89523e-19)
(0.531901 0.782856 5.07113e-19)
(0.457402 0.691854 5.81169e-19)
(0.360335 0.53209 -6.30037e-19)
(0.236471 0.338166 -6.46114e-19)
(0.112456 0.197063 0)
(0.0402912 0.838366 0)
(0.0975097 2.55641 1.59587e-19)
(0.0989302 3.20516 0)
(0.102429 3.38939 3.79053e-19)
(0.233503 0.222261 0)
(0.999255 0.98101 0)
(1.16263 1.15936 0)
(1.17279 1.19251 2.06447e-20)
(1.12389 1.17022 5.68985e-20)
(1.05467 1.1323 -1.11262e-20)
(0.980281 1.09163 5.11906e-20)
(0.896413 1.04789 -1.58892e-20)
(0.803018 0.998733 3.14596e-19)
(0.69763 0.941015 -8.54825e-21)
(0.593327 0.877985 1.3665e-18)
(0.504902 0.812062 -5.87354e-20)
(0.417934 0.716314 7.06391e-20)
(0.311924 0.529085 9.1518e-20)
(0.172813 0.349295 -6.24317e-21)
(0.093731 0.962788 1.842e-21)
(0.135379 2.7293 -8.51472e-19)
(0.143051 3.29373 -3.17753e-19)
(0.132935 3.42526 1.63348e-19)
(0.121267 3.44739 -1.81852e-19)
(0.152442 0.179852 7.10241e-20)
(0.987733 1.00493 0)
(1.15151 1.18144 -1.70959e-19)
(1.16125 1.21512 -1.83498e-19)
(1.11265 1.19293 1.4321e-19)
(1.04386 1.15526 1.68198e-20)
(0.969193 1.11444 -5.15519e-20)
(0.884962 1.0713 1.73568e-19)
(0.790592 1.02324 -2.57685e-19)
(0.683116 0.967452 0)
(0.574534 0.907214 6.73425e-19)
(0.478431 0.842957 -4.16138e-19)
(0.378835 0.747338 0)
(0.256315 0.522634 8.61444e-20)
(0.136015 0.71328 2.04612e-19)
(0.151179 2.50556 -2.35787e-19)
(0.206864 3.32149 2.63691e-19)
(0.187931 3.43646 1.41242e-19)
(0.156724 3.4583 1.57443e-19)
(0.135587 3.46883 2.49398e-19)
(0.276032 0.259588 -1.29162e-19)
(0.971864 1.01416 0)
(1.13293 1.20651 1.87866e-19)
(1.14578 1.24546 2.03577e-19)
(1.09497 1.22587 -1.64002e-19)
(1.0254 1.18855 -3.97622e-20)
(0.949802 1.14938 4.15232e-20)
(0.865022 1.10746 1.37304e-20)
(0.769254 1.06157 2.45752e-19)
(0.658839 1.00972 5.48882e-19)
(0.544557 0.955995 3.79774e-20)
(0.4364 0.895821 3.72127e-19)
(0.305571 0.779047 6.69609e-20)
(0.20874 0.892936 -8.50563e-20)
(0.2261 2.35308 -1.91106e-19)
(0.287794 3.32216 1.81478e-19)
(0.270596 3.46342 -1.99441e-19)
(0.235567 3.48601 -1.14422e-19)
(0.198941 3.5142 -9.53151e-20)
(0.147659 3.50902 -1.11076e-20)
(0.263743 0.256353 0)
(0.969137 1.03648 5.56112e-20)
(1.1243 1.22981 -3.91463e-20)
(1.1349 1.26902 -2.47541e-20)
(1.08391 1.24901 -1.15794e-19)
(1.01429 1.21192 4.38278e-20)
(0.938354 1.17287 -1.88896e-20)
(0.853336 1.13175 1.22564e-20)
(0.756973 1.08736 -2.56035e-19)
(0.645116 1.03843 -1.34169e-20)
(0.527712 0.98966 -1.22376e-18)
(0.413713 0.933671 5.33051e-20)
(0.2849 0.843457 -6.32501e-20)
(0.25261 1.46876 -7.86637e-20)
(0.328781 3.09955 1.82354e-20)
(0.347334 3.45981 -4.31707e-23)
(0.307298 3.51651 2.86793e-19)
(0.270144 3.54437 1.38494e-19)
(0.221707 3.56844 -3.18262e-20)
(0.162911 3.56504 -5.12959e-20)
(0.247577 0.254818 1.41927e-19)
(0.964816 1.06145 3.80485e-19)
(1.11527 1.25521 -1.122e-19)
(1.12343 1.29399 -9.32096e-20)
(1.07222 1.27349 0)
(1.00274 1.23646 9.24714e-20)
(0.926772 1.19765 -1.25358e-20)
(0.841799 1.15733 1.06625e-20)
(0.745165 1.11453 -2.86794e-20)
(0.632407 1.06881 -4.98067e-19)
(0.512745 1.0254 -5.65696e-19)
(0.394572 0.972716 -4.35841e-19)
(0.285739 0.974013 -4.80845e-19)
(0.323917 2.20058 4.94804e-19)
(0.417278 3.36915 4.10733e-19)
(0.392511 3.51654 0)
(0.347412 3.56292 0)
(0.309439 3.6048 -2.46766e-20)
(0.258894 3.66545 0)
(0.175896 3.6421 -2.2683e-20)
(0.236939 0.25665 -2.13548e-19)
(0.958586 1.0875 -3.24354e-19)
(1.10479 1.28177 0)
(1.11057 1.31967 5.8055e-21)
(1.05923 1.29857 -1.29968e-19)
(0.990045 1.26147 1.57598e-19)
(0.914386 1.22295 5.02244e-22)
(0.829663 1.18334 5.60201e-21)
(0.733 1.14209 -1.80278e-19)