/*--------------------------------*- C++ -*----------------------------------*\
| =========                 |                                                 |
| \\      /  F ield         | OpenFOAM: The Open Source CFD Toolbox           |
|  \\    /   O peration     | Version:  4.0                                   |
|   \\  /    A nd           | Web:      www.OpenFOAM.org                      |
|    \\/     M anipulation  |                                                 |
\*---------------------------------------------------------------------------*/
FoamFile
{
    version     2.0;
    format      ascii;
    class       volScalarField;
    location    "38";
    object      p;
}
// * * * * * * * * * * * * * * * * * * * * * * * * * * * * * * * * * * * * * //

dimensions      [0 2 -2 0 0 0 0];

internalField   nonuniform List<scalar> 
2200
(
0.804301
0.782799
0.766889
0.751218
0.736603
0.724072
0.713702
0.705568
0.699835
0.696819
0.697229
0.700982
0.707253
0.715764
0.726407
0.73914
0.7539
0.769765
0.785778
0.807283
0.73674
0.733481
0.730555
0.72643
0.720954
0.714468
0.707834
0.701849
0.6973
0.694832
0.695236
0.698474
0.703596
0.710008
0.716953
0.723673
0.729316
0.733437
0.73632
0.739657
0.696865
0.697083
0.699126
0.700454
0.70083
0.699958
0.697946
0.695246
0.692664
0.691121
0.691592
0.693951
0.697155
0.700322
0.702637
0.703643
0.703362
0.702308
0.700587
0.700344
0.674358
0.675804
0.678403
0.680862
0.683301
0.685309
0.686445
0.686645
0.68623
0.685881
0.686426
0.687694
0.688813
0.689134
0.688398
0.686687
0.684493
0.682261
0.67966
0.678246
0.660061
0.662031
0.66485
0.66768
0.670521
0.673326
0.675762
0.677581
0.678744
0.679447
0.680073
0.680447
0.680125
0.67895
0.677026
0.67461
0.672024
0.669285
0.666495
0.664565
0.65284
0.65444
0.656632
0.659139
0.661773
0.664403
0.666944
0.669309
0.671258
0.672656
0.673389
0.673296
0.672352
0.670752
0.668783
0.66659
0.664234
0.66188
0.659773
0.658195
0.649472
0.650495
0.651757
0.653609
0.655737
0.657881
0.660023
0.662247
0.664386
0.666124
0.667001
0.666853
0.66594
0.664627
0.663156
0.661512
0.659754
0.658131
0.656994
0.655979
0.64689
0.647555
0.648185
0.649487
0.651099
0.652762
0.654464
0.656308
0.658248
0.660064
0.661132
0.661248
0.660795
0.660051
0.659168
0.658126
0.656989
0.656007
0.655528
0.654857
0.643837
0.644281
0.644679
0.645671
0.646922
0.648275
0.649711
0.651268
0.652953
0.654706
0.656007
0.656602
0.656701
0.65651
0.656089
0.655505
0.654825
0.65422
0.653996
0.653538
0.639994
0.640295
0.640652
0.641522
0.642626
0.64388
0.64528
0.646814
0.648484
0.650287
0.651887
0.652963
0.653498
0.653649
0.653513
0.653181
0.652749
0.652321
0.652147
0.651832
0.635455
0.635652
0.636035
0.636889
0.638009
0.639333
0.64086
0.642565
0.644436
0.646483
0.648449
0.649899
0.65075
0.651114
0.651147
0.650981
0.650684
0.650358
0.65019
0.649969
0.630495
0.630628
0.631006
0.63187
0.633079
0.634568
0.636295
0.638239
0.64041
0.642829
0.645243
0.647118
0.648269
0.648863
0.64905
0.648979
0.648779
0.648561
0.648422
0.648266
0.62534
0.62543
0.625804
0.626635
0.627882
0.629497
0.631459
0.633759
0.636397
0.63937
0.642355
0.644694
0.64616
0.646966
0.647329
0.647414
0.647393
0.647304
0.647205
0.647079
0.619822
0.619876
0.620258
0.621108
0.622422
0.62416
0.626334
0.629029
0.632256
0.63597
0.639617
0.642384
0.644193
0.64531
0.645991
0.646384
0.646561
0.646605
0.646559
0.646444
0.613777
0.613792
0.614201
0.615097
0.616564
0.618474
0.62086
0.62385
0.627581
0.632027
0.636496
0.639999
0.64244
0.644141
0.645283
0.64597
0.64633
0.646496
0.646499
0.646399
0.6073
0.607211
0.607643
0.608626
0.610265
0.612407
0.615058
0.618376
0.622566
0.627757
0.633286
0.637926
0.641314
0.643729
0.645355
0.646329
0.646901
0.647183
0.647235
0.647153
0.600273
0.60027
0.600624
0.601637
0.603543
0.606002
0.609122
0.613069
0.618075
0.624299
0.631099
0.636935
0.641238
0.644259
0.646322
0.647683
0.648548
0.648972
0.64908
0.649003
0.592289
0.592277
0.592709
0.593929
0.596134
0.599027
0.60284
0.607791
0.61404
0.621751
0.630039
0.637028
0.64214
0.645824
0.648445
0.650233
0.651349
0.651923
0.652092
0.652013
0.583086
0.583004
0.583555
0.58505
0.587552
0.590983
0.595605
0.601637
0.609386
0.618957
0.629094
0.637561
0.643822
0.648388
0.651673
0.653952
0.655384
0.656151
0.656389
0.656297
0.572121
0.572009
0.572621
0.574344
0.577313
0.5814
0.586893
0.594137
0.603507
0.61517
0.627626
0.638102
0.645951
0.651735
0.655919
0.658839
0.660734
0.661733
0.662047
0.661928
0.558971
0.558842
0.559533
0.561511
0.565007
0.56999
0.576789
0.585721
0.597207
0.611438
0.626588
0.639357
0.648913
0.656058
0.661267
0.665012
0.667486
0.668747
0.669136
0.668978
0.542497
0.542406
0.543365
0.545854
0.550296
0.556671
0.565337
0.576702
0.591111
0.608545
0.62671
0.641919
0.653319
0.661853
0.668171
0.672731
0.675745
0.677242
0.677682
0.677476
0.521771
0.52161
0.522913
0.526298
0.532181
0.540633
0.552003
0.566661
0.584755
0.606062
0.62778
0.645682
0.65906
0.669079
0.676521
0.681926
0.685484
0.687208
0.687697
0.687441
0.494447
0.494483
0.496579
0.501352
0.50953
0.521146
0.536284
0.555125
0.577652
0.603504
0.629303
0.650308
0.665938
0.677677
0.686442
0.692775
0.696872
0.698792
0.699298
0.698989
0.457626
0.457925
0.461543
0.46927
0.481381
0.49782
0.518142
0.542322
0.570164
0.601196
0.63148
0.655862
0.673942
0.687515
0.697704
0.705128
0.709822
0.711935
0.712446
0.712047
0.4081
0.408541
0.415651
0.42866
0.447256
0.470819
0.498083
0.528911
0.56303
0.599881
0.634989
0.662834
0.683374
0.698887
0.71061
0.719064
0.724218
0.726357
0.726732
0.726312
0.342136
0.345098
0.360466
0.381926
0.409455
0.441728
0.477097
0.515461
0.556606
0.59998
0.640495
0.672472
0.696252
0.714293
0.727933
0.737947
0.743997
0.74631
0.746505
0.746291
0.266885
0.276617
0.302294
0.333729
0.371346
0.412614
0.456099
0.50224
0.550791
0.601186
0.647938
0.684944
0.71256
0.733701
0.750055
0.761958
0.769127
0.771453
0.771527
0.771671
0.199984
0.215038
0.24719
0.287214
0.334243
0.38435
0.435828
0.489711
0.54558
0.602842
0.655479
0.69702
0.728187
0.75208
0.770261
0.783624
0.791623
0.795007
0.795696
0.795679
0.14928
0.162776
0.200247
0.246158
0.300338
0.357765
0.416664
0.477855
0.540662
0.604492
0.662647
0.708452
0.742516
0.768462
0.788337
0.803243
0.811783
0.815419
0.816085
0.816167
0.107534
0.120139
0.161132
0.210916
0.270494
0.333718
0.398997
0.466669
0.535765
0.605661
0.669224
0.718793
0.755352
0.78304
0.803943
0.819573
0.828711
0.832652
0.833448
0.833561
0.0716104
0.0844609
0.127859
0.180482
0.244291
0.312163
0.382803
0.456089
0.530861
0.606598
0.67511
0.727818
0.766389
0.795294
0.81698
0.832784
0.842307
0.846568
0.847536
0.847643
0.0402088
0.0532139
0.098601
0.153733
0.220982
0.292691
0.367866
0.446006
0.525902
0.606679
0.679196
0.734894
0.775271
0.805175
0.827207
0.843283
0.853354
0.857867
0.859036
0.859129
0.0121013
0.0251659
0.0722115
0.129618
0.199801
0.274761
0.353796
0.436096
0.520451
0.605755
0.68271
0.741055
0.782719
0.813371
0.836057
0.852366
0.862752
0.867533
0.8688
0.868859
-0.0135733
-0.000541372
0.0477626
0.107351
0.180146
0.257928
0.340297
0.426287
0.514792
0.604697
0.685273
0.745982
0.789272
0.820831
0.843987
0.860502
0.871071
0.875894
0.877146
0.876968
-0.0376976
-0.0243142
0.0247698
0.0864011
0.16149
0.241797
0.327135
0.416439
0.508602
0.602238
0.686291
0.750354
0.79518
0.827521
0.851159
0.867797
0.878048
0.882946
0.884166
0.884002
-0.0603414
-0.0468341
0.00302077
0.0664589
0.143529
0.226096
0.314032
0.406174
0.501544
0.598991
0.687658
0.754311
0.800809
0.834125
0.857779
0.874433
0.884691
0.889389
0.890721
0.890611
-0.0817082
-0.0682333
-0.0176869
0.0472861
0.126042
0.210603
0.300824
0.395566
0.494142
0.59547
0.687637
0.757162
0.806236
0.84035
0.864466
0.881034
0.891146
0.895774
0.896949
0.896876
-0.102305
-0.088608
-0.037557
0.028681
0.108867
0.195219
0.287549
0.384751
0.486244
0.590834
0.686745
0.760364
0.811407
0.846856
0.871352
0.887763
0.897671
0.90202
0.903151
0.903039
-0.122562
-0.108223
-0.0567945
0.0105241
0.0919368
0.179918
0.274201
0.373595
0.477564
0.585302
0.685378
0.762409
0.81636
0.853671
0.878703
0.894901
0.904228
0.908297
0.909161
0.90903
-0.14251
-0.127332
-0.0755301
-0.0072251
0.0752574
0.164681
0.260685
0.362031
0.46831
0.579114
0.683001
0.763838
0.821239
0.860782
0.886815
0.902688
0.911141
0.914358
0.914956
0.914779
-0.161996
-0.146079
-0.0938279
-0.0245731
0.0588426
0.149499
0.246987
0.350105
0.458624
0.572262
0.679459
0.76432
0.825546
0.868255
0.896006
0.911639
0.918528
0.920271
0.920302
0.920159
-0.180895
-0.164418
-0.111671
-0.0415239
0.0427065
0.134409
0.233191
0.337933
0.448456
0.564332
0.674353
0.763594
0.829232
0.876005
0.90653
0.922591
0.927516
0.925664
0.924941
0.925686
-0.199176
-0.182291
-0.129016
-0.0580401
0.0269081
0.119496
0.219379
0.325498
0.437648
0.555451
0.668482
0.761629
0.831942
0.883622
0.918356
0.936292
0.939907
0.933805
0.928325
0.926461
-0.216817
-0.199579
-0.145791
-0.0740734
0.0115099
0.104838
0.205613
0.31283
0.426344
0.545959
0.661333
0.757759
0.833038
0.890657
0.931267
0.953495
0.960095
0.947911
0.945248
0.949673
-0.233824
-0.21624
-0.161941
-0.0895575
-0.00341524
0.090513
0.191976
0.300048
0.414688
0.535772
0.652974
0.752446
0.832298
0.895951
0.944074
0.973927
0.987088
0.960659
0.917656
0.87862
-0.250125
-0.232261
-0.177496
-0.104561
-0.0179707
0.0763994
0.178341
0.287018
0.402492
0.524758
0.64348
0.74506
0.828386
0.898377
0.955401
0.996552
1.02455
1.01629
1.03327
1.08769
-0.265682
-0.247709
-0.192552
-0.119222
-0.0323347
0.0622816
0.164463
0.27345
0.389365
0.512323
0.632025
0.734749
0.820642
0.895109
0.956868
1.00164
1.02298
1.01047
0.973776
0.985556
-0.280457
-0.262537
-0.207065
-0.133495
-0.046439
0.048258
0.150476
0.259491
0.37546
0.498605
0.618691
0.721559
0.807149
0.881927
0.943172
0.985773
0.981775
0.933962
0.872872
0.861597
-0.294457
-0.276755
-0.221037
-0.147381
-0.0602862
0.0343247
0.136393
0.245182
0.36083
0.483616
0.603326
0.705092
0.788132
0.857355
0.91192
0.92716
0.896084
0.823347
0.75074
0.732537
-0.307709
-0.290341
-0.234478
-0.160904
-0.0739052
0.0204595
0.122204
0.230532
0.345502
0.467328
0.585667
0.685188
0.762446
0.819172
0.849212
0.840184
0.788455
0.688894
0.602741
0.582823
-0.320674
-0.303721
-0.247788
-0.174432
-0.0876507
0.00634444
0.10763
0.215306
0.32928
0.449555
0.565726
0.661558
0.731597
0.772412
0.768317
0.735784
0.629796
0.509284
0.403118
0.377923
-0.334251
-0.317667
-0.261664
-0.188595
-0.102101
-0.00850741
0.0922424
0.19913
0.311872
0.430119
0.543264
0.633876
0.696529
0.714108
0.680086
0.595551
0.441204
0.289978
0.162315
0.136247
-0.34897
-0.332621
-0.276436
-0.203627
-0.117435
-0.024228
0.0759473
0.181939
0.293245
0.40903
0.51823
0.60333
0.65491
0.645373
0.59133
0.443757
0.243801
0.0311258
-0.14875
-0.195699
-0.364925
-0.348639
-0.292155
-0.219553
-0.133631
-0.040786
0.0587737
0.163762
0.273459
0.386419
0.490529
0.570065
0.606616
0.565876
0.478189
0.289407
0.0559036
-0.235134
-0.558897
-0.704249
-0.382204
-0.365855
-0.308941
-0.236451
-0.150735
-0.058244
0.0406661
0.144561
0.252501
0.362359
0.460618
0.534199
0.553367
0.481575
0.344748
0.136154
-0.102128
-0.450829
-1.04439
-1.61983
-0.400862
-0.384309
-0.326854
-0.254384
-0.168769
-0.0765877
0.0216681
0.12443
0.23055
0.337246
0.429558
0.495574
0.497036
0.406192
0.214846
-0.0234928
-0.231956
-0.473814
-1.04261
-2.58636
-0.420909
-0.404138
-0.345997
-0.273466
-0.187885
-0.0960145
0.00155297
0.103107
0.207277
0.310669
0.397094
0.453844
0.43628
0.34684
0.118817
-0.125596
-0.278813
-0.32172
-0.319637
-0.714338
-0.442251
-0.425392
-0.36653
-0.294003
-0.208478
-0.117
-0.0202772
0.0798567
0.18175
0.281222
0.362364
0.4089
0.37518
0.298063
0.0667688
-0.142828
-0.258685
-0.26924
-0.218135
-0.259959
-0.464827
-0.448006
-0.388448
-0.316032
-0.230612
-0.139662
-0.0439601
0.0545192
0.153769
0.2488
0.325255
0.362053
0.321191
0.246611
0.0330179
-0.135572
-0.220274
-0.227764
-0.275303
-0.281687
-0.488533
-0.471724
-0.411665
-0.339565
-0.254271
-0.164
-0.069516
0.027085
0.123394
0.213798
0.285676
0.313554
0.273572
0.185993
0.00480455
-0.126182
-0.20042
-0.171546
-0.194042
-0.195873
-0.513205
-0.496166
-0.436083
-0.364477
-0.279284
-0.189922
-0.0968545
-0.00235699
0.0907198
0.176516
0.243799
0.261698
0.231575
0.119053
-0.0294208
-0.120925
-0.168529
-0.209265
-0.185594
-0.193601
-0.5384
-0.521025
-0.461556
-0.390599
-0.305435
-0.217242
-0.12576
-0.0335272
0.055989
0.137484
0.200865
0.208585
0.189128
0.0564538
-0.0679863
-0.136115
-0.12442
-0.183979
-0.160343
-0.16583
-0.563475
-0.545893
-0.48789
-0.417489
-0.332353
-0.245685
-0.155907
-0.0660806
0.0194055
0.0969189
0.157411
0.157019
0.138573
0.00329871
-0.0977515
-0.15483
-0.133728
-0.1593
-0.161776
-0.161931
-0.587852
-0.570509
-0.514239
-0.444444
-0.359724
-0.274852
-0.186845
-0.0995053
-0.0183409
0.0553321
0.114388
0.107974
0.0826193
-0.0418057
-0.115244
-0.152412
-0.175909
-0.161106
-0.16701
-0.163568
-0.610772
-0.594146
-0.539604
-0.470609
-0.3871
-0.30415
-0.217976
-0.133165
-0.0563172
0.0130025
0.0717738
0.0622625
0.0253708
-0.0798132
-0.131964
-0.134749
-0.194514
-0.158801
-0.166783
-0.160498
-0.631344
-0.615833
-0.563001
-0.495068
-0.414069
-0.332774
-0.24854
-0.166354
-0.0933933
-0.0294003
0.0290055
0.0175298
-0.026981
-0.101907
-0.148839
-0.132629
-0.188917
-0.148018
-0.152935
-0.148661
-0.648305
-0.634339
-0.583767
-0.517348
-0.439436
-0.359648
-0.277601
-0.198122
-0.128441
-0.0707734
-0.0127881
-0.0271891
-0.076967
-0.110131
-0.133262
-0.121845
-0.130641
-0.135849
-0.138948
-0.137699
-0.660571
-0.648578
-0.600855
-0.536548
-0.461684
-0.383769
-0.30416
-0.227405
-0.160435
-0.109511
-0.0524535
-0.0698975
-0.134599
-0.122182
-0.0589375
-0.0474698
-0.0750417
-0.121794
-0.139417
-0.14492
-0.667038
-0.657303
-0.613328
-0.551496
-0.479349
-0.40395
-0.326993
-0.252886
-0.188087
-0.143176
-0.0885588
-0.107194
-0.201027
-0.219458
-0.134733
-0.161748
-0.175577
-0.194196
-0.203267
-0.202827
-0.667135
-0.659423
-0.619444
-0.560603
-0.491458
-0.418907
-0.344709
-0.272928
-0.20987
-0.168373
-0.120317
-0.138016
-0.283773
-0.468826
-0.597212
-0.694399
-0.702728
-0.649706
-0.60365
-0.571219
-0.659982
-0.652746
-0.617671
-0.562734
-0.496906
-0.427373
-0.355886
-0.285884
-0.223124
-0.181374
-0.142307
-0.153784
-0.348283
-0.692644
-1.14444
-1.38613
-1.40431
-1.352
-1.22472
-1.1297
-0.64156
-0.633875
-0.605567
-0.556378
-0.49487
-0.4286
-0.359461
-0.290031
-0.224977
-0.177736
-0.142946
-0.130792
-0.282869
-0.54814
-0.872794
-0.98903
-0.925261
-0.834988
-0.752304
-0.697603
-0.605283
-0.598371
-0.581996
-0.541799
-0.485188
-0.421954
-0.354851
-0.284489
-0.213679
-0.153538
-0.105526
-0.0402001
0.0206804
0.142149
0.239287
0.360346
0.476863
0.56495
0.630514
0.694793
-0.559647
-0.555865
-0.55109
-0.519572
-0.469706
-0.409276
-0.342459
-0.269673
-0.19018
-0.107539
-0.02789
0.115115
0.338235
0.700659
1.05247
1.3447
1.55883
1.6907
1.75608
1.77436
-0.527379
-0.527461
-0.521361
-0.497613
-0.452747
-0.393195
-0.324286
-0.247723
-0.159555
-0.0552829
0.0560184
0.214561
0.508378
0.913903
1.31165
1.64361
1.87715
2.00832
2.06422
2.08016
-0.495375
-0.496164
-0.490321
-0.477483
-0.437424
-0.37779
-0.305619
-0.225945
-0.134152
-0.0240006
0.093619
0.20965
0.47275
0.804012
1.12568
1.40137
1.60911
1.73375
1.79102
1.80841
-0.466589
-0.465381
-0.464561
-0.460812
-0.422346
-0.363143
-0.289564
-0.207841
-0.118237
-0.0152089
0.095686
0.172261
0.378997
0.650508
0.903483
1.1211
1.29611
1.40514
1.45425
1.46747
-0.453787
-0.452053
-0.457344
-0.449425
-0.410124
-0.348649
-0.27506
-0.194887
-0.111876
-0.023372
0.0796141
0.134836
0.2786
0.495862
0.696262
0.860281
0.991943
1.07869
1.11764
1.12811
-0.429967
-0.428979
-0.436835
-0.428081
-0.391672
-0.329366
-0.258432
-0.183331
-0.108053
-0.034684
0.0593122
0.106633
0.196899
0.36318
0.520711
0.64298
0.738255
0.802828
0.830987
0.837048
-0.38064
-0.381281
-0.388491
-0.381102
-0.352401
-0.29504
-0.234197
-0.16761
-0.100981
-0.0413794
0.0412815
0.0863901
0.140603
0.264369
0.384335
0.474065
0.542182
0.587702
0.607102
0.613906
-0.300829
-0.303175
-0.306753
-0.302204
-0.280448
-0.242022
-0.196822
-0.144059
-0.0880067
-0.0404838
0.0282383
0.0705639
0.103726
0.197487
0.285209
0.348603
0.398077
0.433899
0.446838
0.450342
-0.202822
-0.204641
-0.20644
-0.204522
-0.192931
-0.172212
-0.145259
-0.110867
-0.0681277
-0.0319471
0.0212554
0.057395
0.0806902
0.152637
0.215086
0.257854
0.293638
0.318313
0.329671
0.333128
-0.110609
-0.111815
-0.113359
-0.113956
-0.110689
-0.103117
-0.0907707
-0.0719272
-0.0440937
-0.0190516
0.0190752
0.0476933
0.0655742
0.121046
0.164421
0.193514
0.21664
0.231212
0.238292
0.240297
-0.038296
-0.0391476
-0.0406197
-0.0432918
-0.0457064
-0.0463766
-0.0436785
-0.0359385
-0.0208296
-0.00615176
0.0188897
0.0418055
0.0547687
0.0957068
0.124545
0.144197
0.158133
0.165229
0.167537
0.167435
0.00942005
0.00885354
0.00745383
0.00360691
-0.00238508
-0.00741335
-0.0100552
-0.0091339
-0.00296998
0.00467438
0.0189792
0.0356499
0.0450643
0.0722866
0.0915538
0.103994
0.111523
0.113809
0.113071
0.111889
0.0358449
0.0353769
0.0340418
0.0299018
0.0226334
0.0157379
0.0103001
0.00743737
0.00881445
0.0127446
0.0207474
0.0297449
0.0369749
0.0521634
0.0642327
0.0721238
0.0757605
0.0761586
0.0747812
0.0731101
0.0474059
0.0470207
0.0458509
0.042201
0.0355132
0.0285107
0.0221807
0.0176231
0.0166733
0.0182477
0.0234601
0.0267548
0.0307297
0.0384552
0.0443259
0.0478414
0.0489692
0.0476915
0.0459937
0.0445014
0.0507705
0.050453
0.0495138
0.0466148
0.041299
0.0353658
0.0295142
0.0244918
0.0224522
0.0218475
0.0252838
0.0265967
0.0267402
0.0300873
0.0325431
0.0330123
0.0324147
0.0298901
0.0275243
0.0261947
0.0498076
0.0495756
0.0488678
0.0468236
0.042973
0.0383483
0.0335359
0.0287068
0.0261444
0.0241195
0.0261762
0.0274863
0.0273667
0.0289087
0.0294123
0.0288933
0.0273573
0.0258384
0.0238623
0.0222363
0.0468938
0.0467304
0.046191
0.0447448
0.0418802
0.0383884
0.0345424
0.0303695
0.0278224
0.0252882
0.0261673
0.0268798
0.0278496
0.0300158
0.0304796
0.0303389
0.0290852
0.0276748
0.0266837
0.0252123
0.0429021
0.0427818
0.0423503
0.0413634
0.0392449
0.0366873
0.0336837
0.0302707
0.0279885
0.0255211
0.0256626
0.0261643
0.0264593
0.0284289
0.0302176
0.0303668
0.0315283
0.0311085
0.0304762
0.0293838
0.0386882
0.0385738
0.0382142
0.0374764
0.0359519
0.0341642
0.031866
0.029183
0.0270999
0.024346
0.0243883
0.0239908
0.0256968
0.0263438
0.0290343
0.0314002
0.0333411
0.0354036
0.0362356
0.0345176
0.0347744
0.0346672
0.0344111
0.0338911
0.0327733
0.0315051
0.029765
0.0276132
0.0258037
0.0224352
0.0222094
0.0207784
0.0226687
0.0243352
0.0282296
0.0330187
0.0352139
0.0378557
0.0397891
0.0380968
0.0314139
0.0313014
0.0311234
0.0307228
0.029947
0.029093
0.0277895
0.0258335
0.0245994
0.021135
0.019144
0.0170827
0.0169025
0.0213934
0.0273755
0.0328284
0.0383492
0.0401465
0.04129
0.0403361
0.0284606
0.0283458
0.0282772
0.0280014
0.0274329
0.0267671
0.0260934
0.0242053
0.0226239
0.0194278
0.0156864
0.0119198
0.00923436
0.0142961
0.0242299
0.0301405
0.0351891
0.0367705
0.0366571
0.0359365
0.0256536
0.0255297
0.0254728
0.0253223
0.0251763
0.0247692
0.0245398
0.0232961
0.0214419
0.0172183
0.012371
0.00826579
0.00311114
0.00899663
0.0175792
0.0227342
0.0235519
0.026137
0.0281956
0.0270331
0.0228419
0.0227613
0.0227982
0.0228418
0.0229354
0.0225689
0.0226398
0.021828
0.0197192
0.0164161
0.0120384
0.00782136
0.0012686
0.00946677
0.0156753
0.0184116
0.0243482
0.0286831
0.0310831
0.0305584
0.0192297
0.0191151
0.019217
0.0195048
0.0196017
0.0196407
0.0192414
0.0202064
0.0212528
0.0182385
0.0148665
0.00962885
0.0032921
0.0106345
0.0172512
0.024273
0.0350584
0.0397912
0.0394869
0.0371009
0.0149835
0.0148205
0.0148558
0.0153539
0.0154414
0.0160729
0.0162398
0.0183046
0.0216732
0.0202497
0.0185406
0.0150247
0.00957818
0.00989842
0.0119307
0.0188078
0.0178743
0.0144106
0.0132761
0.0122115
0.0105356
0.010344
0.0104214
0.0108846
0.0110727
0.0115685
0.0118663
0.0126626
0.0164269
0.0178329
0.019227
0.0224032
0.0138205
0.00853291
-0.00145993
-0.0105924
-0.0179961
-0.0222314
-0.0202077
-0.0182534
0.0037621
0.00362057
0.00306352
0.00161125
0.000475296
-6.87294e-05
-0.000488549
0.000135423
0.00222111
0.00943749
0.024504
0.0225949
0.0116144
0.00669109
-0.00444711
-0.0149817
-0.0197191
-0.0207305
-0.0176416
-0.015649
-1.06366
-0.211489
0.0590152
0.339006
0.525194
0.685712
0.818056
0.952548
1.09804
1.17722
-0.0725879
0.339551
0.359862
0.550729
0.679208
0.794072
0.893393
0.98141
1.00984
0.966922
0.312246
0.529527
0.568191
0.706328
0.795245
0.877549
0.945268
0.995995
0.998746
1.01217
0.546848
0.693104
0.729182
0.834105
0.891216
0.951305
0.996936
1.02979
1.03916
1.06262
0.7287
0.83256
0.862265
0.932409
0.976673
1.01923
1.05187
1.0764
1.08643
1.11783
0.87452
0.944613
0.975159
1.01921
1.05571
1.08643
1.11113
1.13197
1.14634
1.1745
0.995076
1.04649
1.07218
1.10064
1.12881
1.1529
1.17312
1.19248
1.20753
1.23393
1.09969
1.13702
1.15834
1.17931
1.20047
1.2201
1.23765
1.25585
1.27077
1.29442
1.19411
1.22329
1.24004
1.25552
1.27188
1.2881
1.30374
1.32074
1.33434
1.35666
1.28288
1.30341
1.31837
1.33174
1.3455
1.35939
1.37292
1.38752
1.39905
1.4187
1.36859
1.38456
1.39851
1.41043
1.42241
1.43405
1.44516
1.45683
1.46448
1.48129
1.45422
1.46702
1.48078
1.49244
1.50301
1.51275
1.52153
1.52975
1.5333
1.54457
1.54329
1.55435
1.56783
1.57707
1.5845
1.59169
1.59885
1.60536
1.60639
1.6138
1.64181
1.64652
1.65454
1.65901
1.6623
1.66676
1.67277
1.6805
1.68436
1.69424
1.75499
1.74133
1.73393
1.72834
1.72568
1.72708
1.73352
1.74592
1.76071
1.79037
1.87609
1.82032
1.78946
1.77235
1.76419
1.76415
1.7729
1.79246
1.82439
1.89361
)
;

boundaryField
{
    wall-4
    {
        type            zeroGradient;
    }
    pressure-outlet-7
    {
        type            fixedValue;
        value           uniform 0;
    }
    velocity-inlet-6
    {
        type            zeroGradient;
    }
    velocity-inlet-5
    {
        type            zeroGradient;
    }
    frontAndBackPlanes
    {
        type            empty;
    }
}


// ************************************************************************* //
