/*--------------------------------*- C++ -*----------------------------------*\
| =========                 |                                                 |
| \\      /  F ield         | OpenFOAM: The Open Source CFD Toolbox           |
|  \\    /   O peration     | Version:  4.0                                   |
|   \\  /    A nd           | Web:      www.OpenFOAM.org                      |
|    \\/     M anipulation  |                                                 |
\*---------------------------------------------------------------------------*/
FoamFile
{
    version     2.0;
    format      ascii;
    class       surfaceScalarField;
    location    "20";
    object      phi;
}
// * * * * * * * * * * * * * * * * * * * * * * * * * * * * * * * * * * * * * //

dimensions      [0 3 -1 0 0 0 0];

internalField   nonuniform List<scalar> 
4262
(
0.107144
0.470844
0.0956104
0.705119
0.0695144
0.858399
0.0476737
1.0206
0.0314487
1.21474
0.0202118
1.44946
0.0126096
1.73347
0.00724053
2.07641
0.00331546
2.48917
-0.000177417
2.98579
-0.00369594
2.98581
-0.00759465
2.48914
-0.012967
2.07641
-0.0205385
1.73344
-0.0317197
1.4494
-0.0479076
1.2147
-0.0696884
1.02054
-0.0957044
0.858319
-0.107206
0.705087
0.470783
0.112695
0.358149
0.135034
0.682781
0.119967
0.873466
0.0972485
1.04332
0.0741077
1.23788
0.0526256
1.47094
0.0343536
1.75174
0.0201127
2.09065
0.00882105
2.50046
-0.000749653
2.99536
-0.0103731
2.99543
-0.0215659
2.50034
-0.035637
2.09048
-0.0537351
1.75153
-0.075043
1.47071
-0.0979864
1.23765
-0.120578
1.04314
-0.135475
0.873217
-0.112915
0.682526
0.357868
0.0917767
0.266372
0.124392
0.650165
0.120278
0.877579
0.103491
1.06011
0.0844022
1.25697
0.0653231
1.49002
0.0469821
1.77008
0.0298831
2.10775
0.0142183
2.51613
-0.00137807
3.01095
-0.0168543
3.01091
-0.032308
2.51579
-0.0490932
2.10726
-0.0670218
1.76946
-0.0857201
1.48941
-0.104512
1.25644
-0.121006
1.05963
-0.124988
0.877198
-0.0920723
0.64961
0.265796
0.0635947
0.202778
0.104232
0.609528
0.106052
0.875759
0.0946961
1.07147
0.0801893
1.27148
0.0654443
1.50476
0.0495328
1.78599
0.0329602
2.12432
0.0161051
2.53298
-0.00193124
3.02899
-0.0197203
3.0287
-0.0360966
2.53217
-0.052138
2.12331
-0.0677078
1.78503
-0.0822325
1.50393
-0.0965258
1.27073
-0.107615
1.07072
-0.105287
0.874871
-0.0640385
0.608361
0.201757
0.0367551
0.166022
0.0790377
0.567246
0.0893096
0.865487
0.0828827
1.07789
0.071174
1.28319
0.0591663
1.51677
0.0463474
1.79881
0.0318974
2.13877
0.0156346
2.54924
-0.00272442
3.04735
-0.0208207
3.0468
-0.0365599
2.5479
-0.0505296
2.13728
-0.0628469
1.79735
-0.0742021
1.51529
-0.0853211
1.28185
-0.0911588
1.07656
-0.0802642
0.863977
-0.0372057
0.565303
0.164552
0.0185211
0.147501
0.054203
0.531564
0.0683778
0.851312
0.0666196
1.07965
0.0590909
1.29072
0.0493479
1.52651
0.0388307
1.80933
0.027158
2.15044
0.0132011
2.5632
-0.00341535
3.06396
-0.0198112
3.06319
-0.0332646
2.56136
-0.0441098
2.14812
-0.0536807
1.80692
-0.0627234
1.52433
-0.0695826
1.28871
-0.0706431
1.07762
-0.0556033
0.848937
-0.0189825
0.528682
0.145569
0.00961064
0.137891
0.039392
0.501782
0.0540273
0.836677
0.0538406
1.07984
0.0482171
1.29634
0.0401481
1.53458
0.0311091
1.81837
0.0206154
2.16093
0.00890969
2.57491
-0.00430402
3.07718
-0.0171767
3.07606
-0.0281438
2.57232
-0.0375872
2.15756
-0.0457348
1.81507
-0.0529976
1.53159
-0.0577805
1.29349
-0.0571179
1.07695
-0.0413064
0.833125
-0.0102156
0.497591
0.135353
0.00538344
0.132507
0.0295291
0.477637
0.0444376
0.821769
0.045359
1.07892
0.0405252
1.30117
0.0332532
1.54185
0.0248217
1.8268
0.0155596
2.1702
0.00560196
2.58486
-0.00544977
3.08823
-0.0160023
3.08662
-0.024974
2.5813
-0.0330852
2.16568
-0.0402801
1.82226
-0.0464038
1.53772
-0.0501587
1.29725
-0.0480623
1.07486
-0.0316555
0.816719
-0.00608782
0.472024
0.129266
0.00247603
0.130031
0.0188693
0.461244
0.0321889
0.808449
0.0344524
1.07665
0.0310944
1.30453
0.0256626
1.54729
0.0191629
1.8333
0.0116394
2.17772
0.00304254
2.59346
-0.00699954
3.09827
-0.0165099
3.09613
-0.0238958
2.58868
-0.0301617
2.17194
-0.0348469
1.82695
-0.0387961
1.54167
-0.0406167
1.29907
-0.036674
1.07092
-0.0214165
0.801461
-0.00334575
0.453953
0.12592
0.000230409
0.129801
0.00871369
0.45276
0.0188342
0.798328
0.0219332
1.07355
0.0203762
1.30609
0.0168763
1.55079
0.0127978
1.83738
0.00723681
2.18328
-1.3413e-05
2.60071
-0.0089669
3.10722
-0.017191
3.10435
-0.0224643
2.59396
-0.0255841
2.17506
-0.0280075
1.82937
-0.0295354
1.54319
-0.0291129
1.29865
-0.0239617
1.06576
-0.0117564
0.789256
-0.00130444
0.443501
0.124615
-0.000604506
0.130405
0.00284574
0.44931
0.00939186
0.791782
0.012301
1.07064
0.0119273
1.30646
0.00974829
1.55296
0.00658775
1.84054
0.00235102
2.18752
-0.0034005
2.60646
-0.0106346
3.11446
-0.0169928
3.11071
-0.0208055
2.59777
-0.0230013
2.17726
-0.0239244
1.83029
-0.0233231
1.54259
-0.0213395
1.29666
-0.0158817
1.06031
-0.00657861
0.779953
-0.000696004
0.437618
0.123919
-0.000617195
0.131023
0.000328412
0.448364
0.00457201
0.787539
0.00724449
1.06797
0.00748572
1.30622
0.00623268
1.55422
0.0031385
1.84363
-0.00138259
2.19204
-0.00723752
2.61232
-0.0137959
3.12102
-0.0191619
3.11608
-0.0225567
2.60116
-0.0239918
2.17869
-0.0232811
1.82958
-0.0215831
1.54089
-0.0183778
1.29346
-0.0128209
1.05475
-0.00528245
0.772414
-0.00102793
0.433364
0.122892
-0.000904408
0.131927
-0.00127478
0.448735
0.00137946
0.784885
0.0035175
1.06583
0.00439151
1.30535
0.00372647
1.55488
0.000992022
1.84636
-0.00373891
2.19677
-0.0101038
2.61868
-0.0172343
3.12815
-0.0229461
3.12179
-0.0260582
2.60427
-0.0262968
2.17893
-0.0248605
1.82815
-0.0223778
1.53841
-0.0178639
1.28894
-0.0116645
1.04855
-0.00494877
0.765698
-0.00127398
0.429689
0.121618
-0.00149443
0.133421
-0.00305113
0.450292
-0.00189799
0.783731
0.000524917
1.06341
0.00180725
1.30406
0.000950591
1.55574
-0.0021186
1.84943
-0.00726316
2.20191
-0.0141172
2.62554
-0.0216687
3.1357
-0.0275115
3.12763
-0.0302083
2.60697
-0.0301291
2.17885
-0.0279985
1.82602
-0.0235062
1.53392
-0.0173182
1.28276
-0.0103536
1.04159
-0.0042674
0.759612
-0.00112964
0.426551
0.120488
-0.00200683
0.135428
-0.00476015
0.453045
-0.00538866
0.78436
-0.00363299
1.06166
-0.00228017
1.30271
-0.00298092
1.55644
-0.00620228
1.85265
-0.0117623
2.20747
-0.0190461
2.63282
-0.0267456
3.1434
-0.0322874
3.13317
-0.0345566
2.60924
-0.0340816
2.17838
-0.0313144
1.82325
-0.0258206
1.52843
-0.0186418
1.27558
-0.0109145
1.03386
-0.00475505
0.753453
-0.00138062
0.423177
0.119107
-0.0022474
0.137676
-0.00611816
0.456916
-0.00779172
0.786033
-0.00699633
1.06086
-0.00636771
1.30208
-0.00797829
1.55805
-0.0123084
1.85698
-0.0186905
2.21386
-0.0263732
2.6405
-0.03396
3.15099
-0.038735
3.13795
-0.04006
2.61057
-0.0384042
2.17672
-0.0343462
1.81919
-0.027758
1.52184
-0.0197833
1.2676
-0.0118212
1.0259
-0.00572329
0.747355
-0.0018437
0.419297
0.117264
-0.00286911
0.140545
-0.00788931
0.461936
-0.0109825
0.789127
-0.0118558
1.06173
-0.0123578
1.30258
-0.01469
1.56038
-0.0196043
1.8619
-0.0266642
2.22092
-0.0348426
2.64868
-0.0423721
3.15852
-0.0463025
3.14188
-0.0462651
2.61053
-0.0433596
2.17382
-0.0381256
1.81396
-0.030939
1.51465
-0.0226372
1.2593
-0.0143476
1.01761
-0.00748572
0.740493
-0.00247493
0.414286
0.114789
-0.00341966
0.143964
-0.00947166
0.467988
-0.0141598
0.793815
-0.0167988
1.06437
-0.0194658
1.30525
-0.0237822
1.5647
-0.0301173
1.86823
-0.0379943
2.22879
-0.0463459
2.65703
-0.0533022
3.16547
-0.0558022
3.14438
-0.0538933
2.60862
-0.0491614
2.16908
-0.0421288
1.80692
-0.0336037
1.50613
-0.0244508
1.25015
-0.0158327
1.00899
-0.00864808
0.733308
-0.0029397
0.408578
0.111849
-0.00474142
0.148706
-0.0131999
0.476446
-0.02045
0.801065
-0.0252005
1.06912
-0.0295144
1.30957
-0.0352643
1.57045
-0.0427835
1.87575
-0.0514647
2.23747
-0.0599619
2.66553
-0.0659518
3.17146
-0.0664469
3.14487
-0.0621578
2.60433
-0.0552154
2.16214
-0.0466567
1.79837
-0.0374696
1.49694
-0.0282479
1.24093
-0.0192641
1.00001
-0.0108025
0.724847
-0.00361751
0.401393
0.108231
-0.00574276
0.154449
-0.0158447
0.486548
-0.0251275
0.810348
-0.0327347
1.07673
-0.0403869
1.31722
-0.0490593
1.57912
-0.0588106
1.8855
-0.0689862
2.24765
-0.0779219
2.67447
-0.0828304
3.17637
-0.0810015
3.14304
-0.0742288
2.59756
-0.0649612
2.15287
-0.0544334
1.78784
-0.0434005
1.48591
-0.0325002
1.23003
-0.0222119
0.989717
-0.0126574
0.715292
-0.00429597
0.393032
0.103935
-0.00816321
0.162612
-0.0223578
0.500743
-0.0350498
0.82304
-0.0451411
1.08682
-0.0548429
1.32692
-0.0659311
1.59021
-0.0780517
1.89763
-0.0898334
2.25943
-0.0990671
2.6837
-0.102581
3.17988
-0.0978954
3.13836
-0.087992
2.58765
-0.0757491
2.14063
-0.0629201
1.77501
-0.0507081
1.47369
-0.0393285
1.21865
-0.0280133
0.978402
-0.0161425
0.703421
-0.00538394
0.382273
0.0985516
-0.0100542
0.172666
-0.0270401
0.517729
-0.0432293
0.839229
-0.0574293
1.10102
-0.071909
1.3414
-0.0871013
1.6054
-0.102298
1.91282
-0.116085
2.27322
-0.125797
2.69341
-0.127726
3.18181
-0.119952
3.13059
-0.106887
2.57459
-0.0918383
2.12558
-0.0764979
1.75967
-0.0615039
1.4587
-0.0471037
1.20425
-0.0329824
0.96428
-0.0189219
0.689361
-0.00632637
0.369677
0.0922252
-0.0149963
0.187662
-0.0386656
0.541398
-0.0595539
0.860117
-0.0775668
1.11903
-0.0955474
1.35938
-0.114371
1.62423
-0.132927
1.93138
-0.148599
2.28889
-0.15822
2.70303
-0.157933
3.18152
-0.146452
3.1191
-0.129371
2.55751
-0.110248
2.10646
-0.0912983
1.74072
-0.0737874
1.44119
-0.0576235
1.18808
-0.0414233
0.94808
-0.0239188
0.671856
-0.0077731
0.353532
0.0844521
-0.0191369
0.206799
-0.0497281
0.571989
-0.078279
0.888668
-0.102454
1.14321
-0.126977
1.3839
-0.151144
1.64839
-0.173046
1.95328
-0.18989
2.30574
-0.198544
2.71168
-0.194968
3.17795
-0.178641
3.10278
-0.156991
2.53586
-0.134209
2.08368
-0.112134
1.71864
-0.0912625
1.42032
-0.0711244
1.16794
-0.0502035
0.927159
-0.0282811
0.649934
-0.00890708
0.334158
0.075545
-0.0334795
0.240279
-0.0754023
0.613912
-0.110755
0.92402
-0.141321
1.17378
-0.172103
1.41468
-0.20011
1.6764
-0.223674
1.97684
-0.24021
2.32227
-0.246314
2.71779
-0.238032
3.16967
-0.216356
3.0811
-0.189837
2.50934
-0.162207
2.05605
-0.135508
1.69195
-0.110541
1.39535
-0.086692
1.14409
-0.0621686
0.902636
-0.0357332
0.623499
-0.0109147
0.309339
0.0646303
-0.0466066
0.286885
-0.111364
0.67867
-0.161282
0.973938
-0.200439
1.21293
-0.236406
1.45065
-0.266266
1.70626
-0.289445
2.00002
-0.303202
2.33603
-0.304311
2.7189
-0.289238
3.15459
-0.260623
3.05249
-0.228162
2.47688
-0.195822
2.02371
-0.165293
1.66142
-0.136972
1.36703
-0.109302
1.11643
-0.0784999
0.871834
-0.0420125
0.587011
-0.0113951
0.278722
0.0532352
-0.0307736
0.317659
-0.084649
0.732545
-0.132843
1.02213
-0.1768
1.25689
-0.217958
1.49181
-0.256666
1.74497
-0.291693
2.03505
-0.320045
2.36438
-0.337607
2.73646
-0.337599
3.15459
-0.316978
3.03186
-0.284673
2.44457
-0.245955
1.98499
-0.204222
1.61968
-0.161368
1.32417
-0.117902
1.07296
-0.0731388
0.82707
-0.032427
0.546299
-0.00688165
0.253177
0.0463536
-0.00736831
0.325027
-0.0344906
0.759667
-0.0706563
1.0583
-0.10812
1.29435
-0.145145
1.52884
-0.180219
1.78004
-0.211615
2.06645
-0.236558
2.38932
-0.250728
2.75063
-0.248
3.15186
-0.225456
3.00932
-0.191042
2.41016
-0.151779
1.94573
-0.111938
1.57984
-0.0733943
1.28563
-0.0379278
1.03749
-0.00953315
0.798676
0.00606353
0.530703
0.00565259
0.253587
0.0520061
0.00393049
0.321097
-0.0136863
0.777284
-0.0402659
1.08488
-0.070133
1.32422
-0.10046
1.55916
-0.130412
1.80999
-0.157933
2.09397
-0.179886
2.41128
-0.192015
2.76276
-0.188133
3.14798
-0.165895
2.98708
-0.135111
2.37937
-0.101116
1.91173
-0.0672384
1.54597
-0.0360569
1.25445
-0.00942401
1.01086
0.00985057
0.779401
0.0150968
0.525456
0.00774365
0.260941
0.0597498
0.00459583
0.316501
-0.00510954
0.78699
-0.0250744
1.10484
-0.0494965
1.34864
-0.0742058
1.58387
-0.0995593
1.83535
-0.123331
2.11774
-0.142418
2.43036
-0.152634
2.77297
-0.148212
3.14355
-0.128905
2.96778
-0.102833
2.3533
-0.0749275
1.88382
-0.0477808
1.51882
-0.0229464
1.22961
-0.00163002
0.989544
0.0121028
0.765668
0.0144321
0.523127
0.0062717
0.269101
0.0660215
0.00662713
0.309874
-0.000173982
0.793791
-0.0178836
1.12255
-0.0381915
1.36895
-0.0591729
1.60485
-0.0810985
1.85727
-0.101806
2.13845
-0.118708
2.44727
-0.128212
2.78248
-0.125981
3.14132
-0.11004
2.95184
-0.0871894
2.33045
-0.0631407
1.85978
-0.0400507
1.49573
-0.0188454
1.20841
-0.00158322
0.972282
0.00862455
0.75546
0.00930625
0.522445
0.00361952
0.274788
0.069641
0.00633065
0.303543
0.00157924
0.798542
-0.0137047
1.13784
-0.0319339
1.38718
-0.0508547
1.62377
-0.0703693
1.87679
-0.0890144
2.15709
-0.104705
2.46296
-0.114174
2.79195
-0.112283
3.13943
-0.0979276
2.93748
-0.0790529
2.31158
-0.0587309
1.83945
-0.0386432
1.47564
-0.0210864
1.19085
-0.0073668
0.958562
0.00148326
0.74661
0.00356207
0.520367
0.00136597
0.276984
0.071007
0.00451259
0.299031
0.00139389
0.801661
-0.0119641
1.15119
-0.02873
1.40395
-0.0465277
1.64157
-0.0645649
1.89482
-0.0819464
2.17447
-0.096949
2.47796
-0.106399
2.8014
-0.106032
3.13907
-0.0944551
2.9259
-0.0766612
2.29378
-0.0576516
1.82044
-0.040452
1.45844
-0.0250733
1.17547
-0.0129194
0.946408
-0.00588015
0.739571
-0.00278364
0.51727
-0.000733292
0.274934
0.0702737
0.00274227
0.296288
0.00024648
0.804157
-0.0117392
1.16318
-0.0274347
1.41964
-0.0443905
1.65853
-0.0615846
1.91202
-0.078248
2.19114
-0.0928957
2.49261
-0.102584
2.81109
-0.103348
3.13983
-0.0922616
2.91482
-0.0761589
2.27768
-0.0596006
1.80389
-0.0437563
1.4426
-0.0300739
1.16179
-0.0192811
0.935615
-0.0110935
0.731384
-0.00616107
0.512338
-0.00192292
0.270695
0.0683508
0.000220569
0.296068
-0.00223632
0.806613
-0.0128366
1.17378
-0.0272609
1.43407
-0.0433646
1.67463
-0.0600665
1.92872
-0.0764987
2.20757
-0.0913089
2.50742
-0.102092
2.82187
-0.104865
3.1426
-0.0963973
2.90635
-0.0820307
2.26331
-0.0656346
1.78749
-0.0507099
1.42767
-0.0371231
1.1482
-0.0255417
0.924034
-0.0162168
0.722059
-0.00839875
0.50452
-0.002568
0.264865
0.0657828
-0.000491836
0.29656
-0.00514808
0.81127
-0.0147205
1.18335
-0.0279734
1.44732
-0.0430523
1.68971
-0.0592469
1.94492
-0.0757084
2.22403
-0.0909834
2.52269
-0.102719
2.8336
-0.106631
3.14652
-0.0995479
2.89927
-0.0858639
2.24963
-0.0702432
1.77187
-0.0534947
1.41092
-0.0396005
1.13431
-0.0274262
0.91186
-0.0175467
0.712179
-0.00987263
0.496846
-0.00313893
0.258131
0.0626438
-0.00263929
0.299199
-0.00764866
0.816279
-0.0168985
1.1926
-0.0289842
1.4594
-0.0431778
1.7039
-0.058891
1.96063
-0.0754164
2.24055
-0.0913335
2.53861
-0.10466
2.84693
-0.111802
3.15366
-0.107329
2.89479
-0.0940175
2.23632
-0.0772858
1.75514
-0.062775
1.39641
-0.0480076
1.11954
-0.035321
0.899173
-0.0236759
0.700534
-0.0118182
0.484988
-0.00369194
0.250005
0.0589519
-0.00397164
0.30317
-0.00924274
0.82155
-0.0182348
1.20159
-0.0298962
1.47107
-0.0434777
1.71749
-0.0587419
1.97589
-0.0752871
2.2571
-0.0919166
2.55524
-0.106693
2.86171
-0.115481
3.16245
-0.112135
2.89145
-0.100695
2.22488
-0.0850448
1.73949
-0.0667052
1.37807
-0.050787
1.10362
-0.0362034
0.884589
-0.0234439
0.687774
-0.013155
0.474699
-0.00415857
0.241008
0.0547933
-0.00439572
0.307566
-0.0103675
0.827522
-0.0192523
1.21048
-0.0306063
1.48242
-0.0437801
1.73066
-0.0587003
1.99081
-0.0752383
2.27364
-0.0925242
2.57252
-0.108877
2.87806
-0.120697
3.17427
-0.121688
2.89244
-0.110586
2.21378
-0.0921937
1.72109
-0.0741344
1.36001
-0.0583261
1.08782
-0.0446678
0.870931
-0.0307456
0.673852
-0.0154601
0.459413
-0.0047153
0.230263
0.050078
-0.00434134
0.311908
-0.0107238
0.833904
-0.0196396
1.21939
-0.0308136
1.49359
-0.0437722
1.74362
-0.0584789
2.00552
-0.0750107
2.29017
-0.0927646
2.59028
-0.110318
2.89561
-0.124121
3.18807
-0.126827
2.89514
-0.118615
2.20556
-0.104537
1.70702
-0.0846271
1.3401
-0.0637762
1.06697
-0.044344
0.851499
-0.0285519
0.65806
-0.015757
0.446619
-0.00473927
0.219246
0.0453388
-0.00431719
0.316225
-0.0111001
0.840687
-0.01985
1.22814
-0.0307122
1.50446
-0.0434443
1.75635
-0.0579593
2.02003
-0.074456
2.30667
-0.0926182
2.60844
-0.111472
2.91447
-0.128039
3.20464
-0.135016
2.90212
-0.129132
2.19968
-0.111686
1.68957
-0.0912505
1.31967
-0.0696577
1.04537
-0.052574
0.834415
-0.0360766
0.641563
-0.0178239
0.428366
-0.00468311
0.206105
0.0406557
-0.00428174
0.320506
-0.0110542
0.84746
-0.0196282
1.23672
-0.030206
1.51503
-0.0426653
1.76881
-0.0569821
2.03435
-0.0734696
2.32315
-0.0920296
2.627
-0.112032
2.93447
-0.131067
3.22367
-0.141198
2.91225
-0.136974
2.19546
-0.124112
1.67671
-0.102159
1.29772
-0.0773324
1.02055
-0.0500432
0.807126
-0.028573
0.620093
-0.0144455
0.414238
-0.00351657
0.195176
0.0371391
-0.00429735
0.324804
-0.0111075
0.85427
-0.0193472
1.24496
-0.0295233
1.52521
-0.041624
1.78091
-0.0557009
2.04843
-0.0721328
2.33959
-0.0910065
2.64587
-0.111906
2.95537
-0.132647
3.24441
-0.145587
2.92519
-0.145441
2.19531
-0.132379
1.66365
-0.111379
1.27672
-0.0841505
0.993318
-0.0576106
0.780586
-0.0326624
0.595144
-0.0123606
0.393936
-0.00276473
0.18558
0.0343744
-0.00419718
0.329001
-0.0107966
0.860869
-0.0187829
1.25294
-0.0286061
1.53503
-0.0403026
1.79261
-0.0540681
2.06219
-0.070361
2.35588
-0.0893653
2.66488
-0.110914
2.97692
-0.133639
3.26714
-0.149953
2.94151
-0.154188
2.19954
-0.147159
1.65662
-0.126373
1.25593
-0.0953675
0.962312
-0.0532696
0.738488
-0.0120459
0.553921
0.0134672
0.368423
0.0184565
0.180591
0.0528309
-0.0040536
0.333055
-0.0105603
0.867376
-0.0182064
1.26059
-0.0276048
1.54443
-0.0388619
1.80386
-0.0522527
2.07558
-0.0682834
2.37191
-0.0873412
2.68394
-0.109687
2.99926
-0.134521
3.29197
-0.154473
2.96146
-0.163548
2.20862
-0.155922
1.64899
-0.137574
1.23758
-0.105286
0.930023
-0.0651887
0.698391
-0.0106237
0.499356
0.0255059
0.332294
0.0134491
0.192648
0.06628
-0.00380898
0.336864
-0.0100281
0.873595
-0.0174037
1.26797
-0.0264246
1.55345
-0.0372832
1.81472
-0.0502551
2.08856
-0.0659972
2.38765
-0.0849611
2.7029
-0.107427
3.02173
-0.132618
3.31716
-0.153687
2.98253
-0.166278
2.22121
-0.170618
1.65333
-0.15716
1.22412
-0.1277
0.900564
-0.0696494
0.64034
0.0262326
0.403474
0.136081
0.222446
0.161828
0.1669
0.228108
-0.00362196
0.340486
-0.00980394
0.879777
-0.0170476
1.27521
-0.0259737
1.56238
-0.0369242
1.82567
-0.0502349
2.10187
-0.0667169
2.40413
-0.0870721
2.72326
-0.112272
3.04693
-0.143552
3.34844
-0.17384
3.01282
-0.193199
2.24057
-0.19608
1.65621
-0.18639
1.21443
-0.160705
0.874879
-0.130278
0.609913
-0.149381
0.422577
-0.370588
0.443652
-0.913063
0.709376
0.888312
-1.57327
-0.00339793
0.343883
-0.00927857
0.885658
-0.0163326
1.28226
-0.0250735
1.57112
-0.0358671
1.83647
-0.0491738
2.11517
-0.0659243
2.42088
-0.0870864
2.74442
-0.113872
3.07371
-0.146611
3.38118
-0.177784
3.04399
-0.20393
2.26671
-0.230873
1.68316
-0.24229
1.22585
-0.247903
0.880493
-0.324445
0.686455
-0.682859
0.780991
-1.3845
1.1453
-2.00195
1.32682
1.22293
-2.33657
-0.00322156
0.347105
-0.00885031
0.891287
-0.0156195
1.28903
-0.0240893
1.57959
-0.0346915
1.84707
-0.0479762
2.12846
-0.0649573
2.43787
-0.0867484
2.76621
-0.115066
3.10203
-0.152858
3.41897
-0.19443
3.08556
-0.230323
2.30261
-0.255779
1.70861
-0.271763
1.24183
-0.359965
0.968694
-0.736043
1.06253
-1.48415
1.5291
-2.07584
1.73699
-2.3239
1.57488
1.34134
-2.44232
-0.00294401
0.350049
-0.00819661
0.896539
-0.0147046
1.29554
-0.0229309
1.58781
-0.0333134
1.85745
-0.0465277
2.14167
-0.0636188
2.45496
-0.0860245
2.78861
-0.116007
3.13201
-0.156036
3.459
-0.199984
3.12951
-0.240115
2.34274
-0.28878
1.75728
-0.384674
1.33773
-0.694195
1.27821
-1.3941
1.76244
-1.99871
2.13371
-2.24631
1.98459
-2.3642
1.69277
1.4093
-2.43215
-0.00269515
0.352744
-0.00761619
0.90146
-0.0137719
1.3017
-0.0216636
1.59571
-0.0318434
1.86763
-0.0449434
2.15477
-0.0621502
2.47216
-0.0850844
2.81155
-0.116185
3.16311
-0.159939
3.50276
-0.213082
3.18265
-0.26934
2.399
-0.325472
1.81341
-0.493164
1.50542
-1.05059
1.83564
-1.74401
2.45586
-2.08666
2.47636
-2.24371
2.14164
-2.33027
1.77934
1.47682
-2.3978
-0.00252667
0.355271
-0.00725035
0.906184
-0.0133855
1.30783
-0.0213033
1.60362
-0.0316625
1.87799
-0.0449333
2.16804
-0.0624804
2.48971
-0.0860715
2.83514
-0.118872
3.19592
-0.166082
3.54996
-0.224402
3.24097
-0.280117
2.45471
-0.37475
1.90804
-0.73454
1.86521
-1.44448
2.54558
-1.94295
2.95433
-2.15169
2.68509
-2.26241
2.25236
-2.34133
1.85826
1.54302
-2.40753
-0.00250771
0.357779
-0.00748571
0.911162
-0.0138903
1.31424
-0.0221445
1.61188
-0.0329322
1.88878
-0.046736
2.18185
-0.0650291
2.508
-0.0897538
2.85986
-0.123975
3.23014
-0.173481
3.59947
-0.23462
3.30211
-0.308466
2.52856
-0.490587
2.09016
-1.00022
2.37485
-1.6345
3.17986
-1.93424
3.25407
-2.08852
2.83937
-2.20816
2.372
-2.30449
1.95458
1.60862
-2.37008
-0.00239941
0.360178
-0.00746828
0.916231
-0.0142639
1.32103
-0.0229768
1.62059
-0.0342135
1.90001
-0.0485935
2.19623
-0.0675825
2.52699
-0.0932093
2.88549
-0.129085
3.26601
-0.182632
3.65302
-0.252678
3.37216
-0.341898
2.61778
-0.601893
2.35016
-1.21104
2.98399
-1.72309
3.69191
-1.93966
3.47065
-2.08937
2.98908
-2.22324
2.50587
-2.34331
2.07465
1.67246
-2.40715
-0.00226622
0.362444
-0.00763257
0.921597
-0.0147467
1.32815
-0.0238552
1.6297
-0.0355428
1.9117
-0.0504749
2.21116
-0.0701621
2.54668
-0.0968568
2.91219
-0.134302
3.30346
-0.188943
3.70766
-0.257748
3.44096
-0.380532
2.74056
-0.732489
2.70212
-1.35113
3.60263
-1.73503
4.07581
-1.92154
3.65715
-2.0365
3.10404
-2.13859
2.60797
-2.21563
2.15168
1.66861
-2.21177
-0.0019731
0.364417
-0.00735611
0.92698
-0.0149141
1.3357
-0.0245528
1.63934
-0.0367641
1.92391
-0.0522923
2.22669
-0.0727142
2.5671
-0.100394
2.93987
-0.139098
3.34216
-0.196788
3.76535
-0.279465
3.52364
-0.436529
2.89763
-0.851626
3.11721
-1.41066
4.16167
-1.69252
4.35767
-1.86617
3.8308
-1.97271
3.21058
-1.98454
2.6198
-1.93424
2.10138
1.66145
-1.92708
-0.00172943
0.366147
-0.0073267
0.932577
-0.0151211
1.3435
-0.0250816
1.6493
-0.0376169
1.93645
-0.0534105
2.24248
-0.0739689
2.58766
-0.101536
2.96743
-0.140231
3.38086
-0.196613
3.82173
-0.279596
3.60662
-0.466929
3.08496
-0.911659
3.56194
-1.37223
4.62224
-1.5657
4.55114
-1.64884
3.91394
-1.66588
3.22762
-1.53137
2.48529
-1.04386
1.61386
0.617589
-0.00116135
0.367308
-0.00651939
0.937935
-0.0147967
1.35178
-0.0254423
1.65994
-0.0388359
1.94984
-0.0556832
2.25933
-0.0777712
2.60975
-0.107762
2.99742
-0.150017
3.42311
-0.211845
3.88356
-0.310467
3.70525
-0.538372
3.31286
-1.03821
4.06178
-1.42814
5.01217
-1.5411
4.6641
-1.55195
3.92479
-1.46719
3.14286
-1.23956
2.25766
-0.667918
1.04223
-0.0503295
-0.000715898
0.368024
-0.00589408
0.943114
-0.0143424
1.36022
-0.0254872
1.67109
-0.0395559
1.96391
-0.0574183
2.27719
-0.0808756
2.63321
-0.11249
3.02904
-0.157152
3.46777
-0.223525
3.94993
-0.335149
3.81687
-0.60682
3.58453
-1.13349
4.58844
-1.43871
5.3174
-1.52054
4.74593
-1.51278
3.91703
-1.3209
2.95097
-0.824932
1.76169
-0.130598
0.347891
-0.180928
0.000224085
0.3678
-0.0040896
0.947427
-0.0129093
1.36904
-0.0248034
1.68298
-0.0395855
1.97869
-0.058322
2.29593
-0.0829787
2.65786
-0.116536
3.06259
-0.165094
3.51633
-0.238137
4.02297
-0.365541
3.94427
-0.687403
3.9064
-1.21299
5.11403
-1.42516
5.52956
-1.46136
4.78214
-1.39455
3.85022
-1.11554
2.67197
-0.367695
1.01384
0.0351425
-0.0549459
-0.145785
0.00140151
0.366398
-0.00213654
0.950965
-0.0112037
1.37811
-0.0234104
1.69519
-0.0385775
1.99386
-0.0581527
2.3155
-0.0840925
2.6838
-0.11943
3.09793
-0.168902
3.5658
-0.245766
4.09984
-0.394201
4.09271
-0.754262
4.26646
-1.23603
5.59581
-1.37487
5.6684
-1.398
4.80527
-1.24683
3.69905
-0.768322
2.19346
-0.0951729
0.340695
0.0393347
-0.189454
-0.10645
0.00306825
0.36333
0.00108183
0.952952
-0.00823805
1.38743
-0.0208229
1.70778
-0.0363667
2.0094
-0.056468
2.3356
-0.0829112
2.71024
-0.118247
3.13327
-0.168174
3.61573
-0.252039
4.1837
-0.412811
4.25348
-0.812857
4.6665
-1.23364
6.01658
-1.32762
5.76238
-1.30637
4.78402
-1.04668
3.43936
-0.424095
1.57087
-0.0243595
-0.0590405
0.00937246
-0.223186
-0.0970779
0.00437702
0.358953
0.00340669
0.953922
-0.00463532
1.39547
-0.0167841
1.71992
-0.0322686
2.02489
-0.0527315
2.35607
-0.0796299
2.73714
-0.11616
3.1698
-0.167939
3.66751
-0.255644
4.27141
-0.432492
4.43033
-0.849866
5.08388
-1.16793
6.33465
-1.21333
5.80778
-1.14913
4.71982
-0.860894
3.15113
-0.197496
0.90747
-0.0284099
-0.228127
-0.0113044
-0.240291
-0.108382
0.00677588
0.352177
0.00787046
0.952828
0.00108926
1.40225
-0.0107217
1.73174
-0.0263596
2.04053
-0.0468009
2.37651
-0.073113
2.76346
-0.108788
3.20547
-0.158191
3.71691
-0.244718
4.35794
-0.427698
4.61331
-0.829705
5.48588
-1.07629
6.58124
-1.1262
5.85768
-0.976179
4.5698
-0.570174
2.74513
-0.0337024
0.370998
0.015764
-0.277593
0.010465
-0.234992
-0.0979172
0.00926045
0.342917
0.0131554
0.948933
0.00813911
1.40727
-0.00179426
1.74167
-0.0176148
2.05635
-0.0371019
2.396
-0.062113
2.78847
-0.0956342
3.23899
-0.141841
3.76312
-0.226453
4.44255
-0.419586
4.80644
-0.780012
5.84631
-0.946857
6.74808
-0.975463
5.88629
-0.792165
4.3865
-0.304364
2.25733
0.0247921
0.0418419
0.0172551
-0.270056
0.0210719
-0.238809
-0.0768453
0.0133174
0.329599
0.0212505
0.940999
0.0182995
1.41022
0.00864024
1.75133
-0.00597638
2.07096
-0.0233523
2.41337
-0.0463446
2.81146
-0.0779238
3.27057
-0.121327
3.80652
-0.195055
4.51628
-0.372072
4.98346
-0.642376
6.11661
-0.761292
6.867
-0.796716
5.92171
-0.672819
4.2626
-0.235978
1.82049
-0.132913
-0.0612232
-0.0876951
-0.315275
-0.0287251
-0.297779
-0.10557
0.0172634
0.312336
0.0299252
0.928338
0.0302162
1.40993
0.0225858
1.75896
0.0108565
2.08269
-0.00368411
2.42791
-0.0239027
2.83168
-0.0510713
3.29774
-0.0876873
3.84314
-0.144988
4.57358
-0.291474
5.12995
-0.480234
6.30537
-0.579479
6.96624
-0.657666
5.9999
-0.650849
4.25578
-0.507007
1.67665
-0.554665
-0.0135653
-0.403498
-0.466442
-0.207075
-0.494202
-0.312645
0.0228075
0.289529
0.0421652
0.90898
0.046931
1.40516
0.0426414
1.76325
0.0333975
2.09194
0.0202862
2.44102
0.00389328
2.84807
-0.0156217
3.31726
-0.0412902
3.86881
-0.0697503
4.60204
-0.153725
5.21392
-0.232957
6.3846
-0.296768
7.03006
-0.370532
6.07367
-0.472668
4.35792
-0.605548
1.80952
-0.740131
0.121018
-0.576688
-0.629884
-0.301134
-0.769756
-0.61378
0.027918
0.261611
0.0549734
0.881924
0.06591
1.39423
0.0660444
1.76311
0.0601627
2.09782
0.0527071
2.44848
0.0438568
2.85692
0.0321564
3.32896
0.0181488
3.88281
0.00800898
4.61218
0.0296544
5.19227
0.0833302
6.33093
0.111038
7.00235
0.13082
6.05388
0.0804846
4.40826
-0.164238
2.05425
-0.47183
0.42861
-0.53811
-0.563605
-0.275256
-1.03261
-0.889036
0.0345201
0.22709
0.0724806
0.843964
0.0915989
1.37511
0.0967445
1.75797
0.095689
2.09887
0.0926616
2.45151
0.0898264
2.85976
0.0866875
3.3321
0.0852841
3.88422
0.107349
4.59011
0.213684
5.08594
0.53015
6.01446
0.828391
6.70411
1.1986
5.68367
1.33069
4.27617
0.938231
2.44671
0.518983
0.847858
0.129891
-0.174512
-0.000400904
-0.902318
-0.889437
0.0390939
0.187997
0.0891836
0.793874
0.117978
1.34632
0.130293
1.74565
0.136518
2.09265
0.139356
2.44867
0.144772
2.85434
0.155658
3.32121
0.168662
3.87121
0.232569
4.52621
0.415036
4.90347
0.995015
5.43448
1.4193
6.27982
1.76454
5.33843
1.89219
4.14851
1.61228
2.72661
1.19261
1.26753
0.788355
0.229747
0.307964
-0.421927
-0.581473
0.0428089
0.145188
0.108474
0.728209
0.1516
1.30319
0.172624
1.72463
0.186544
2.07873
0.196566
2.43865
0.210579
2.84033
0.232416
3.29937
0.266184
3.83745
0.362199
4.43019
0.614484
4.65119
1.22038
4.82859
1.66052
5.83969
1.95674
5.04222
2.08473
4.02051
1.89218
2.91917
1.42122
1.73848
0.90612
0.74485
0.388179
0.0960136
-0.193294
0.0424014
0.102786
0.12425
0.64636
0.183795
1.24364
0.218597
1.68983
0.242902
2.05442
0.261096
2.42045
0.283954
2.81747
0.313662
3.26966
0.363869
3.78724
0.447536
4.34652
0.685032
4.41369
1.17669
4.33692
1.61688
5.3995
1.80417
4.85493
1.85434
3.97035
1.69917
3.07434
1.31337
2.12429
0.842743
1.21548
0.364948
0.573808
0.171655
0.0386102
0.0641761
0.139067
0.545904
0.219581
1.16313
0.268438
1.64097
0.303963
2.0189
0.332598
2.39182
0.364362
2.78571
0.401015
3.23301
0.436323
3.75193
0.449939
4.33291
0.575018
4.28861
0.932254
3.97969
1.35565
4.97611
1.45464
4.75593
1.43977
3.98522
1.30549
3.20862
1.01978
2.40999
0.642327
1.59293
0.261105
0.95503
0.432759
0.035251
0.0289251
0.150451
0.430704
0.255675
1.05791
0.325582
1.57106
0.375347
1.96913
0.417004
2.35016
0.458873
2.74384
0.489834
3.20205
0.506299
3.73547
0.475281
4.36393
0.458738
4.30516
0.600794
3.83763
0.987739
4.58916
1.06811
4.67556
1.01549
4.03784
0.892959
3.33116
0.681237
2.62171
0.400461
1.87371
0.145112
1.21038
0.577872
0.0329636
-0.00403859
0.148133
0.315535
0.281704
0.924335
0.38325
1.46952
0.457617
1.89477
0.520936
2.28684
0.578472
2.6863
0.614011
3.16651
0.65688
3.6926
0.640081
4.38073
0.549769
4.39547
0.520482
3.86692
0.816102
4.29354
0.889431
4.60223
0.812757
4.11451
0.680639
3.46327
0.493907
2.80844
0.269442
2.09817
0.0891198
1.3907
0.666992
0.0221351
-0.0261737
0.089536
0.248134
0.207604
0.806267
0.325298
1.35182
0.419018
1.80105
0.495079
2.21078
0.557804
2.62358
0.604369
3.11995
0.656002
3.64096
0.642997
4.39373
0.507223
4.53124
0.400616
3.97353
0.474577
4.21958
0.500184
4.57662
0.436058
4.17864
0.337795
3.56154
0.237407
2.90883
0.13382
2.20176
0.0324669
1.49205
0.699459
-0.00690084
-0.0192729
-0.00594807
0.247181
0.0509859
0.749333
0.147413
1.2554
0.255452
1.69301
0.364768
2.10146
0.469643
2.5187
0.579502
3.01009
0.685388
3.53508
0.729741
4.34938
0.595527
4.66545
0.386373
4.18268
0.343791
4.26216
0.315123
4.60529
0.239135
4.25463
0.163688
3.63698
0.109447
2.96307
0.0398274
2.27138
-0.00894225
1.54082
0.690516
-0.0213276
0.00205475
-0.0448211
0.270674
-0.0276516
0.732164
0.0443846
1.18336
0.153842
1.58355
0.285527
1.96978
0.433387
2.37084
0.611059
2.83241
0.793221
3.35292
0.909176
4.23342
0.777568
4.79706
0.419008
4.54124
0.250669
4.4305
0.164939
4.69102
0.0932384
4.32633
0.0533023
3.67692
0.0173959
2.99898
-0.0304017
2.31918
-0.0328336
1.54326
0.657683
-0.0209662
0.0230209
-0.0520609
0.301769
-0.0506527
0.730756
0.00589927
1.12681
0.110014
1.47944
0.253452
1.82634
0.431931
2.19236
0.658159
2.60619
0.896126
3.11495
1.06636
4.06319
0.943381
4.92004
0.521753
4.96287
0.222448
4.72981
0.0936262
4.81984
0.0210168
4.39894
-0.0182222
3.71616
-0.0888086
3.06956
-0.0983165
2.32869
-0.0698039
1.51474
0.587879
-0.0160193
0.0390402
-0.0438339
0.329584
-0.0453974
0.732319
0.00209461
1.07932
0.0972203
1.38431
0.237829
1.68573
0.422505