/*--------------------------------*- C++ -*----------------------------------*\
| =========                 |                                                 |
| \\      /  F ield         | OpenFOAM: The Open Source CFD Toolbox           |
|  \\    /   O peration     | Version:  4.0                                   |
|   \\  /    A nd           | Web:      www.OpenFOAM.org                      |
|    \\/     M anipulation  |                                                 |
\*---------------------------------------------------------------------------*/
FoamFile
{
    version     2.0;
    format      ascii;
    class       volScalarField;
    location    "19";
    object      p;
}
// * * * * * * * * * * * * * * * * * * * * * * * * * * * * * * * * * * * * * //

dimensions      [0 2 -2 0 0 0 0];

internalField   nonuniform List<scalar> 
918
(
0.238924
0.922551
0.0101296
0.237808
-0.00119166
0.889671
-0.829476
0.418594
0.21892
-0.439159
-0.033217
0.207809
0.750225
0.51819
-1.45328
0.00724813
0.373475
-0.707646
0.217624
-0.00160873
0.49549
0.225701
0.228689
0.219254
0.27823
0.508031
0.630957
0.00248474
-0.00139781
-0.00383133
0.00443824
-0.00601946
8.27788e-05
0.773283
0.82441
0.847079
0.188366
0.0179655
-0.677392
-0.75586
-0.741188
-0.881746
0.40617
0.4111
-0.476231
0.421417
0.437278
0.206582
0.218174
0.219023
0.220492
0.219289
0.220732
0.176551
-0.455434
-0.476005
-0.406817
-0.374732
-0.0291666
-0.0571836
-0.0874645
-0.012444
-0.00720373
0.145541
0.204536
0.203387
0.213411
0.222892
0.862103
0.83397
0.860119
0.773959
0.790406
0.728143
0.700699
0.537574
0.559037
0.505248
0.494251
-1.89705
-2.87158
-0.850691
-0.59061
0.000331537
0.00975866
0.012345
0.35974
0.368049
0.371356
0.383404
0.77895
-0.696011
-0.843262
0.217665
0.21631
0.225008
0.225645
0.221631
0.220727
0.00693451
0.0147746
-0.0114512
-0.0021988
-0.00504708
0.478522
0.473268
0.219785
0.216844
0.230451
0.253035
0.241447
-0.0113994
0.289151
0.31077
0.313614
0.490211
0.487985
0.495256
0.604337
0.568085
0.668149
0.691285
0.0134213
0.0038167
0.00201411
0.00220961
0.00141052
0.184418
0.177391
0.200803
0.191935
0.194013
-0.0661833
-0.201366
0.102325
0.125929
-0.58496
-0.652046
-0.763958
-0.778148
-0.89963
0.238898
0.395247
0.398169
-0.493475
-0.40915
-0.55671
-0.334863
-0.406707
0.197734
0.20425
0.199635
0.214079
0.208678
0.210638
0.222322
0.219422
0.221001
0.213436
0.309378
0.125852
0.058146
-0.577548
-0.49406
-0.570302
-0.341561
-0.287584
-0.0435565
-0.0557063
-0.0407902
-0.00978814
-0.241131
-0.128631
-0.184532
0.00238892
0.00335507
0.138549
0.129532
0.154704
0.161151
0.196167
0.197173
0.200657
0.198569
0.651257
0.673626
0.681301
0.655015
-3.88453
-6.71047
-0.256003
-0.112297
0.00282882
0.00279908
0.00204705
0.00466691
0.00274533
0.000981367
0.00662528
0.00785207
0.0125064
0.0132054
0.344046
0.348572
0.701032
0.694577
0.690585
0.671698
0.205549
0.207621
0.213343
0.209218
0.0115724
0.0165902
0.0127682
0.439624
0.459294
0.45655
-0.0469961
-0.134789
0.0355619
0.0620341
0.331152
0.316167
0.333101
0.377186
0.415897
0.698734
0.717183
0.715345
0.723929
0.767888
0.784239
0.749684
0.16621
0.173133
0.169311
0.204658
0.202221
0.20315
0.196916
0.199473
0.19628
-0.355572
-0.742116
0.196007
0.208428
0.170025
0.178148
0.327153
0.40166
0.377215
0.386965
0.390817
-0.271308
-0.33698
0.000762536
-0.0186136
0.0870899
0.118587
0.102447
0.622513
0.583018
0.632991
0.606261
0.56763
0.593134
-0.693999
-2.22623
-1.32561
0.253766
0.0584308
0.150237
0.00327555
-0.00356303
0.0026828
0.660199
0.738706
0.376721
0.5581
0.560148
0.455767
0.486849
0.541797
0.467818
0.501857
0.536681
0.516832
0.195652
0.196813
0.173722
0.473947
0.530525
-0.160508
-0.209411
-0.265244
-0.081666
-0.0459425
-0.0692995
0.709995
0.596014
0.673895
0.216678
0.217334
0.0117306
0.019703
0.221075
0.220921
0.00614454
0.0054047
0.130332
-1.16487
-0.167121
0.209456
0.200317
0.216785
-0.45255
0.0396399
-0.0674699
0.0634318
0.073238
0.20712
0.155063
0.121887
0.00578428
0.0149176
-0.00199522
-0.519684
0.214342
0.212699
0.216393
0.217459
0.21812
0.00641113
0.00797706
0.00586461
0.000409991
0.00333963
0.000447436
0.182916
0.196799
-0.478076
0.216295
0.218599
0.218282
0.211339
0.216836
0.215174
0.0121066
0.00650923
0.00504458
-0.0600987
0.0540375
0.388531
0.497682
0.341039
0.112009
-0.133288
0.283392
0.352729
0.249205
0.417351
0.380837
0.405826
-0.107174
-0.253454
-0.0989836
-0.155579
0.207265
0.205877
0.198675
0.19624
0.211774
0.209972
0.214226
0.211314
0.214081
0.21558
-0.467521
-0.382518
-0.439249
-0.464872
-0.00532139
0.282757
-0.122109
0.0179877
-0.0952618
-0.0389244
-0.0192137
-0.110789
-0.130716
-0.0836864
0.0456697
0.0602723
-0.0105568
0.0640761
0.0109034
-0.0698451
0.0135626
-0.0263541
0.201614
0.198384
0.206735
0.213515
0.162645
0.164418
0.137276
0.153025
0.141893
0.0859666
0.118994
0.097208
0.00663524
0.00697649
0.00562915
0.0184828
0.0170382
0.00772722
0.00785344
0.0142414
0.00800537
0.00649058
0.00189682
0.00971814
-0.480004
-0.593298
0.677269
0.673325
-0.110286
0.20359
0.209958
0.206822
0.211201
0.214445
0.215309
0.213221
0.209577
0.197727
0.199899
0.196098
0.196142
-0.422273
-0.556415
-0.375853
-0.437114
-0.175714
0.322002
0.0665488
0.00739467
0.00333591
0.213312
0.603651
0.41444
0.450188
0.477253
-0.664498
-0.261342
-0.593851
0.0230655
-0.158524
0.385988
0.438783
0.46261
0.408248
0.356697
-0.428757
0.211139
-0.351078
-0.3102
-0.122534
-0.220262
0.434806
0.365264
0.372041
0.396503
0.421684
0.372079
0.350574
0.349868
0.385361
0.389544
0.187233
-0.02779
-0.0737778
-0.109245
0.353597
0.227035
0.28316
0.201372
0.201737
0.204975
0.203435
0.18713
0.194447
0.190442
0.194247
0.197655
0.20752
0.207285
0.202949
0.205369
-0.365355
-0.354663
-0.426004
-0.452428
-0.459375
-0.511536
-0.408602
-0.362242
-0.503327
-0.0186522
0.0182011
-0.303258
-0.390382
-0.361729
-0.351827
-0.141693
-0.083573
-0.393634
-0.084596
-0.24846
-0.288516
-0.0597431
-0.0652322
-0.0929814
-0.13728
-0.215368
-0.128142
-0.00978279
-0.130764
-0.110616
0.0112598
-0.00570402
-0.0132886
0.00054466
-0.266294
-0.263327
-0.226159
-0.37481
0.0138264
0.0165461
0.0181275
0.0188111
0.0247208
0.0244522
0.195076
0.195558
0.194708
0.209556
0.220839
0.23596
0.203718
0.181523
0.173596
0.175397
0.15234
0.160044
0.157319
0.168916
0.186112
0.193843
0.19238
0.195096
0.179735
0.181017
0.170001
0.17364
0.153375
0.136162
0.126646
0.0102622
0.00745234
0.00856193
0.00830361
0.00851865
0.00877293
0.02823
0.0233168
0.0264563
0.0213095
0.013341
0.0149407
0.0116652
-0.391266
-0.323246
-0.503192
-0.536872
-0.602918
0.587363
0.697527
0.537918
0.289304
0.301281
0.524371
0.646318
0.269537
0.458587
0.515871
0.196091
0.491052
0.208003
0.207466
0.205492
0.204698
0.205928
-0.325831
-0.225058
-0.214872
-0.162421
-0.0445237
0.069083
-0.0142557
-0.163373
-0.0152493
0.00342464
0.316622
0.330182
0.27459
0.301446
0.30122
0.128632
0.202243
0.258127
0.213225
0.25437
0.276362
0.240982
0.26843
0.215347
0.175327
0.17447
0.123297
0.141754
0.119332
0.102636
0.19731
0.177706
0.186541
0.179807
0.198225
0.226472
0.220912
0.243968
0.257703
0.18591
0.148861
0.156807
0.183382
0.147872
0.159643
0.173431
-0.103251
-0.199576
-0.118313
-0.417275
-0.322571
-0.337732
-0.384215
-0.347925
-0.0604043
-0.769939
-0.732572
-1.37164
0.149378
0.63486
0.386144
0.356485
0.419428
0.394969
0.396481
0.431758
0.438475
0.342962
0.357185
0.360933
0.315166
0.340029
0.371026
0.366997
0.192292
0.0778924
0.0650304
0.0342557
-0.0847544
-0.055287
0.144066
0.0672257
-0.00217739
0.00495157
0.162964
0.0589558
0.120967
0.157209
0.0906137
0.0492653
0.243066
0.312575
0.30224
0.275094
0.19085
0.203617
0.227343
0.263793
0.290796
0.323996
0.196089
0.200466
0.201495
0.199531
0.196817
0.199333
0.199097
0.201794
0.202755
0.205421
0.204551
-0.194569
-0.242003
-0.31814
-0.24745
-0.579533
-0.583689
-0.51994
-0.485713
-0.3302
-0.40594
-0.50651
-0.417526
-0.34358
-0.312619
-0.36854
-0.343719
-0.288653
-0.391758
-0.0509222
0.09299
0.174727
0.0660002
-0.08962
-0.0746051
-0.056394
-0.234133
-0.097141
-0.0979042
-0.161051
-0.259613
-0.0225976
-0.0227341
-0.0270124
-0.01647
-0.0438465
-0.0163623
0.010035
0.00587783
0.00127141
0.00540558
0.0103051
0.185076
0.178002
0.176664
0.173014
0.172707
0.181641
0.186455
0.18864
0.193842
0.194827
0.186696
0.19126
0.194027
0.0195338
0.0156182
0.0194028
0.00744823
0.0113131
0.0139215
0.00924166
-0.220906
-0.24349
-0.23269
-0.30659
-0.438638
-0.38131
0.148704
0.118555
0.162421
0.361814
0.217947
0.135541
0.205165
0.312508
-0.0726854
0.136387
-0.0420972
0.567911
0.444802
0.588106
0.211992
-0.0895387
0.0508296
0.107773
-0.0856202
-0.0145444
0.00517654
-0.102978
-0.069821
-0.0408827
0.0563812
-0.0578398
-0.0861986
-0.32917
-0.146112
-0.0203549
-0.0425768
0.0875144
0.149965
-0.0710542
-0.150001
-0.196256
0.305235
0.324826
0.341794
0.312354
0.336648
0.262034
0.254149
0.271982
0.282867
0.276267
-1.10576
-0.818845
-1.75765
-1.06847
-0.628754
0.175825
0.133834
0.419628
0.316485
0.399451
0.383091
0.345566
0.307736
0.314472
0.352311
0.0586382
0.163961
0.13959
0.145376
0.0521642
-0.0112929
0.277391
0.27223
0.306705
0.330927
0.30105
0.332527
0.193128
0.192234
0.193542
0.189831
0.189342
0.189963
-0.489583
-0.451823
-0.456452
-0.464035
-0.507408
-0.496814
0.0260837
0.00597431
0.00665698
0.00912492
0.0282872
0.0275563
-0.175875
-0.23661
-0.294573
-0.285188
-0.327201
-0.390908
-0.408421
-0.305585
-0.223151
-0.232738
0.084587
0.338359
0.157694
0.339166
0.19509
0.244348
0.165738
0.156431
0.192165
0.056132
0.129706
-0.145088
-0.633111
-0.54484
0.432988
0.453618
0.234729
0.0363021
-0.184343
0.0162633
0.224754
0.165841
0.205413
0.272951
0.266082
-0.340368
-0.259734
-0.0418746
0.187357
-0.101279
-0.109132
-0.112733
0.045309
-0.0197164
)
;

boundaryField
{
    wall-4
    {
        type            zeroGradient;
    }
    velocity-inlet-5
    {
        type            zeroGradient;
    }
    velocity-inlet-6
    {
        type            zeroGradient;
    }
    pressure-outlet-7
    {
        type            fixedValue;
        value           uniform 0;
    }
    wall-8
    {
        type            zeroGradient;
    }
    frontAndBackPlanes
    {
        type            empty;
    }
}


// ************************************************************************* //
