/*--------------------------------*- C++ -*----------------------------------*\
| =========                 |                                                 |
| \\      /  F ield         | OpenFOAM: The Open Source CFD Toolbox           |
|  \\    /   O peration     | Version:  4.0                                   |
|   \\  /    A nd           | Web:      www.OpenFOAM.org                      |
|    \\/     M anipulation  |                                                 |
\*---------------------------------------------------------------------------*/
FoamFile
{
    version     2.0;
    format      ascii;
    class       volScalarField;
    location    "39";
    object      p;
}
// * * * * * * * * * * * * * * * * * * * * * * * * * * * * * * * * * * * * * //

dimensions      [0 2 -2 0 0 0 0];

internalField   nonuniform List<scalar> 
8800
(
0.902721
0.854932
0.816238
0.787237
0.766364
0.751519
0.740903
0.733398
0.728544
0.72644
0.72765
0.731793
0.738401
0.747687
0.760446
0.778165
0.802933
0.836867
0.87941
0.938112
0.733981
0.741659
0.749124
0.752428
0.750918
0.745829
0.739327
0.733228
0.728472
0.725585
0.725252
0.727701
0.732143
0.738054
0.744798
0.751059
0.754687
0.753943
0.748513
0.739817
0.712401
0.71856
0.722682
0.725618
0.727656
0.728245
0.727117
0.724985
0.722929
0.721966
0.722866
0.725191
0.727946
0.730093
0.730674
0.729455
0.727097
0.723693
0.719129
0.715367
0.706625
0.709273
0.712019
0.714413
0.716035
0.717178
0.717895
0.717979
0.717639
0.717527
0.71821
0.719317
0.720105
0.720128
0.719487
0.71837
0.716535
0.713949
0.711537
0.710033
0.70129
0.702713
0.704485
0.706506
0.708276
0.709597
0.710558
0.711316
0.711878
0.712372
0.712941
0.713362
0.713398
0.71306
0.712322
0.71104
0.709318
0.70745
0.706132
0.705301
0.696273
0.697192
0.698426
0.699981
0.701598
0.703101
0.704355
0.705377
0.706279
0.707089
0.70768
0.707915
0.707795
0.707291
0.706357
0.705113
0.70375
0.702463
0.701628
0.701078
0.691442
0.69211
0.693066
0.694356
0.695748
0.697182
0.698586
0.699858
0.700985
0.701992
0.702694
0.702947
0.702762
0.702168
0.701292
0.700287
0.699226
0.698269
0.69767
0.697266
0.686755
0.68727
0.688047
0.689166
0.690426
0.691773
0.69318
0.694596
0.695941
0.697158
0.698018
0.698343
0.698188
0.697691
0.696996
0.696194
0.695356
0.694629
0.69418
0.693866
0.682143
0.682552
0.683202
0.684198
0.685385
0.686683
0.688084
0.689574
0.691097
0.69255
0.693615
0.69409
0.694089
0.693776
0.693274
0.692658
0.692005
0.691457
0.691115
0.690862
0.677529
0.677861
0.678423
0.679341
0.68048
0.681759
0.683186
0.684757
0.686442
0.68815
0.689484
0.690203
0.690435
0.690337
0.690029
0.689604
0.689115
0.688712
0.688454
0.688245
0.672833
0.673107
0.673608
0.674481
0.675602
0.676902
0.678391
0.680081
0.68196
0.683955
0.685635
0.686681
0.687195
0.687337
0.687235
0.686995
0.686669
0.68639
0.686196
0.686019
0.667978
0.668206
0.668668
0.669527
0.670669
0.672034
0.673631
0.675497
0.677639
0.679996
0.682101
0.683535
0.684369
0.684777
0.684898
0.684838
0.684666
0.684495
0.684355
0.684202
0.66289
0.663081
0.663523
0.664398
0.665605
0.667077
0.668834
0.670943
0.673433
0.676258
0.67888
0.680766
0.681969
0.682677
0.683041
0.683167
0.68315
0.683077
0.682983
0.682848
0.657483
0.657642
0.65808
0.658997
0.660307
0.661934
0.663911
0.666331
0.669248
0.672653
0.675909
0.678347
0.679996
0.681056
0.681701
0.682049
0.682185
0.682207
0.682152
0.68203
0.65166
0.651791
0.652238
0.653226
0.654682
0.656517
0.658785
0.661602
0.665063
0.669183
0.673218
0.676329
0.678511
0.679983
0.680948
0.681534
0.681839
0.681956
0.681941
0.68183
0.645314
0.645417
0.645886
0.64697
0.648617
0.650726
0.653371
0.656702
0.660842
0.665843
0.670832
0.674765
0.677589
0.679544
0.680864
0.681729
0.682238
0.682461
0.682484
0.68238
0.638297
0.638381
0.638872
0.640079
0.64197
0.644424
0.64755
0.651535
0.656555
0.662674
0.668816
0.673704
0.677277
0.679829
0.681608
0.682787
0.683513
0.683846
0.683907
0.683806
0.630363
0.63044
0.630992
0.632338
0.634522
0.637412
0.641136
0.64592
0.651983
0.659438
0.66701
0.673112
0.677619
0.680881
0.683226
0.684813
0.685802
0.686266
0.686367
0.686268
0.621261
0.621307
0.621931
0.623483
0.626064
0.629526
0.634024
0.639855
0.647289
0.656436
0.665718
0.673219
0.678803
0.682901
0.685913
0.687989
0.689299
0.689913
0.690055
0.689953
0.610637
0.610668
0.611384
0.613204
0.616267
0.620445
0.625923
0.633064
0.642178
0.653389
0.664757
0.673968
0.680876
0.686
0.689798
0.692468
0.694173
0.69496
0.695141
0.695029
0.597887
0.597907
0.598752
0.600932
0.604644
0.609776
0.616552
0.625405
0.636666
0.650422
0.66429
0.675493
0.683929
0.690249
0.694997
0.698391
0.700554
0.701533
0.701746
0.701617
0.582175
0.582192
0.583244
0.585965
0.59061
0.59708
0.60563
0.616748
0.63075
0.647632
0.664442
0.677947
0.688132
0.695818
0.70165
0.705848
0.708511
0.709685
0.709923
0.709769
0.562313
0.562339
0.563733
0.5673
0.573329
0.581712
0.592713
0.606834
0.624298
0.644958
0.665216
0.681361
0.693522
0.702746
0.709775
0.71489
0.71808
0.719438
0.719688
0.719502
0.536495
0.536557
0.53856
0.543545
0.551788
0.563033
0.577543
0.595708
0.617556
0.642724
0.6669
0.685943
0.700261
0.711155
0.719474
0.725553
0.729253
0.730765
0.731012
0.730792
0.501716
0.501905
0.505152
0.512763
0.524771
0.540441
0.559971
0.583455
0.610683
0.641083
0.669607
0.691786
0.708396
0.721073
0.730781
0.73785
0.742009
0.743621
0.743838
0.743584
0.452231
0.45327
0.459805
0.472806
0.491373
0.513898
0.54036
0.570587
0.604178
0.640422
0.673589
0.699023
0.717995
0.732496
0.743687
0.7517
0.756241
0.75786
0.758013
0.75772
0.379159
0.386544
0.401721
0.424793
0.453082
0.48475
0.519701
0.557725
0.598417
0.641077
0.679329
0.708376
0.730042
0.746694
0.759592
0.768712
0.773721
0.775444
0.775601
0.775355
0.300467
0.317788
0.34236
0.376067
0.414476
0.455462
0.499009
0.545076
0.593363
0.643278
0.68774
0.721507
0.746772
0.766313
0.781613
0.792281
0.797834
0.799594
0.799797
0.79971
0.235162
0.255496
0.2879
0.330467
0.377741
0.427495
0.479354
0.533293
0.589018
0.645985
0.696382
0.734564
0.763183
0.785369
0.802565
0.814116
0.81999
0.822198
0.822446
0.822441
0.18166
0.203695
0.241515
0.290436
0.344708
0.401771
0.460958
0.522097
0.584789
0.648412
0.704381
0.746639
0.778246
0.802625
0.82124
0.833887
0.840795
0.84283
0.843136
0.843178
0.136985
0.160132
0.201624
0.255598
0.315533
0.378628
0.44408
0.511589
0.580607
0.650387
0.711499
0.757462
0.791678
0.817882
0.837763
0.851284
0.858738
0.861034
0.861491
0.861558
0.0987777
0.122542
0.166869
0.224773
0.289462
0.357699
0.428589
0.50174
0.576483
0.651904
0.717756
0.767049
0.803524
0.831161
0.851875
0.86603
0.873912
0.876685
0.877275
0.877368
0.0651099
0.0892692
0.135781
0.197007
0.265686
0.338397
0.414103
0.49233
0.572305
0.652959
0.723201
0.775514
0.813901
0.842664
0.864062
0.8787
0.886967
0.890103
0.890802
0.890894
0.0345815
0.0590852
0.107375
0.171416
0.243561
0.320192
0.400205
0.483061
0.567891
0.653466
0.727844
0.782928
0.822987
0.8527
0.874607
0.889615
0.898132
0.90149
0.90225
0.902327
0.00633032
0.0311538
0.0809236
0.147372
0.222579
0.302685
0.38658
0.473683
0.563055
0.653314
0.731666
0.789394
0.831007
0.861571
0.883896
0.899157
0.907806
0.911307
0.912088
0.912125
-0.0203675
0.00481321
0.0559821
0.124473
0.202366
0.285571
0.372983
0.464001
0.557642
0.652401
0.734651
0.794999
0.838164
0.869583
0.892365
0.907814
0.916562
0.920114
0.920924
0.920925
-0.0458427
-0.0202655
0.0320538
0.102406
0.182669
0.268641
0.359244
0.453875
0.551534
0.650644
0.736778
0.799811
0.844619
0.876958
0.900216
0.915874
0.924653
0.928135
0.928953
0.928955
-0.0704836
-0.0443756
0.00885688
0.080946
0.1633
0.251752
0.345255
0.443212
0.544642
0.647962
0.738017
0.803887
0.850487
0.883871
0.907666
0.923524
0.932312
0.935753
0.936458
0.936408
-0.0944069
-0.0678971
-0.0136115
0.0599677
0.144154
0.234827
0.330951
0.431962
0.536915
0.644301
0.738338
0.807246
0.85586
0.89044
0.914856
0.930928
0.939668
0.942985
0.943591
0.943467
-0.117748
-0.0907113
-0.0354958
0.0393857
0.1252
0.217844
0.316319
0.420104
0.528327
0.639613
0.737677
0.80987
0.860776
0.896758
0.92187
0.938125
0.946729
0.949838
0.950308
0.950127
-0.140639
-0.113012
-0.0569051
0.0191714
0.10642
0.200809
0.301383
0.407665
0.518882
0.633861
0.73596
0.811689
0.865241
0.902895
0.928795
0.945168
0.953517
0.956317
0.956645
0.956424
-0.163091
-0.134795
-0.0778284
-0.000672343
0.0878464
0.18376
0.286192
0.39469
0.508609
0.627022
0.73311
0.812608
0.869211
0.908919
0.93576
0.952121
0.959998
0.962379
0.962549
0.9623
-0.184953
-0.156022
-0.0982235
-0.0201146
0.0695168
0.166767
0.270811
0.381258
0.497571
0.619122
0.729058
0.812503
0.872577
0.914865
0.94297
0.95919
0.966231
0.967975
0.967963
0.967703
-0.206202
-0.176667
-0.118085
-0.0391077
0.0514914
0.149892
0.255333
0.36745
0.485849
0.610196
0.723761
0.811228
0.875161
0.920678
0.950684
0.966841
0.972507
0.973127
0.972832
0.97262
-0.226908
-0.196695
-0.137383
-0.0576208
0.0338323
0.13322
0.239848
0.353371
0.473543
0.600316
0.717181
0.808631
0.876713
0.926122
0.959049
0.975877
0.979813
0.978299
0.977197
0.977245
-0.246896
-0.216083
-0.156061
-0.0755906
0.0165991
0.116833
0.22445
0.339137
0.460774
0.589589
0.709323
0.804565
0.876927
0.93071
0.96776
0.987054
0.990318
0.985893
0.982334
0.981583
-0.26626
-0.23482
-0.174138
-0.0930467
-0.00024298
0.100684
0.209084
0.324687
0.447473
0.577941
0.700056
0.798763
0.875465
0.93376
0.975833
1.00014
1.00608
1.00123
0.991408
0.975569
-0.284924
-0.252898
-0.191732
-0.110186
-0.0169861
0.0844365
0.193327
0.309532
0.433092
0.564719
0.688709
0.790393
0.871666
0.934245
0.98093
1.01173
1.02143
1.01058
0.991757
0.976874
-0.302711
-0.270437
-0.208654
-0.126787
-0.0333117
0.0684384
0.177408
0.294002
0.41795
0.550205
0.67541
0.779068
0.864912
0.931053
0.978131
1.00866
1.02204
1.00141
0.932046
0.900047
-0.318952
-0.288636
-0.224578
-0.142289
-0.0484817
0.0531902
0.16163
0.278325
0.402267
0.534534
0.66013
0.76457
0.854033
0.923841
0.963152
0.986216
0.983661
0.932284
0.862095
0.818565
-0.3749
-0.304679
-0.239174
-0.157756
-0.0640167
0.0372553
0.145928
0.262226
0.385687
0.517277
0.642317
0.746444
0.835491
0.912432
0.918349
0.92888
0.888593
0.822141
0.745832
0.703066
-0.336399
-0.320446
-0.260738
-0.179188
-0.0867056
0.0143443
0.122
0.237532
0.359825
0.489665
0.612183
0.713983
0.794514
0.873167
0.86688
0.760395
0.658011
0.586617
0.51378
0.546982
-0.367644
-0.338343
-0.277699
-0.196889
-0.104394
-0.00364995
0.104207
0.219054
0.340202
0.468092
0.587542
0.685155
0.757741
0.798959
0.753839
0.610139
0.484122
0.394092
0.295328
0.347997
-0.391749
-0.3595
-0.297582
-0.21654
-0.124008
-0.0234335
0.0842941
0.198258
0.317943
0.443342
0.558939
0.650772
0.71388
0.722836
0.619842
0.448307
0.295644
0.176786
0.0461787
0.0803627
-0.415365
-0.381539
-0.318427
-0.236535
-0.143875
-0.0434607
0.0637291
0.176688
0.294729
0.417303
0.528228
0.613537
0.66136
0.638923
0.483382
0.287137
0.0955699
-0.0760149
-0.267662
-0.28197
-0.438365
-0.404087
-0.34008
-0.25746
-0.164617
-0.0644131
0.0421233
0.153967
0.270127
0.389533
0.495221
0.573238
0.603166
0.545667
0.353724
0.142247
-0.077533
-0.271673
-0.519078
-0.827109
-0.461661
-0.427372
-0.362818
-0.279711
-0.186669
-0.0866212
0.0193374
0.130048
0.244243
0.360276
0.460562
0.530119
0.541645
0.433449
0.241303
0.0299851
-0.177009
-0.352693
-0.421092
-0.507215
-0.486185
-0.451836
-0.386983
-0.303632
-0.210525
-0.110717
-0.00542618
0.103988
0.21592
0.328099
0.422588
0.481885
0.468732
0.32666
0.142005
-0.0500912
-0.214486
-0.308404
-0.332554
-0.34901
-0.512251
-0.477796
-0.412743
-0.329307
-0.23631
-0.136903
-0.0325134
0.0753082
0.184577
0.292286
0.380496
0.426793
0.395368
0.227612
0.0523192
-0.114103
-0.242138
-0.281071
-0.29502
-0.296325
-0.540058
-0.505415
-0.440155
-0.356722
-0.263964
-0.165171
-0.061929
0.0439729
0.150155
0.25284
0.33399
0.366549
0.318186
0.135652
-0.0304847
-0.179374
-0.258118
-0.274633
-0.276063
-0.27595
-0.569654
-0.534719
-0.469233
-0.385858
-0.293486
-0.195495
-0.0936585
0.0099837
0.112665
0.209847
0.283029
0.304793
0.221537
0.0515339
-0.107002
-0.229697
-0.264894
-0.265587
-0.265545
-0.264945
-0.600748
-0.565588
-0.49986
-0.416614
-0.324769
-0.227796
-0.127647
-0.0266113
0.072142
0.163411
0.228302
0.234309
0.131028
-0.0266329
-0.168153
-0.247561
-0.256624
-0.258286
-0.258494
-0.258209
-0.632764
-0.597478
-0.531768
-0.448748
-0.357602
-0.261889
-0.163713
-0.0656543
0.0287753
0.113811
0.170539
0.161078
0.0505251
-0.0934206
-0.214948
-0.243192
-0.253644
-0.254031
-0.252949
-0.252401
-0.665248
-0.62986
-0.564484
-0.481847
-0.39161
-0.297418
-0.201539
-0.106826
-0.0171231
0.0615643
0.108919
0.0902245
-0.0240115
-0.148139
-0.246575
-0.272335
-0.256703
-0.251466
-0.249759
-0.248707
-0.697334
-0.662101
-0.597135
-0.515266
-0.426218
-0.333865
-0.240618
-0.149605
-0.0650425
0.00723789
0.0454549
0.0227014
-0.091311
-0.186024
-0.255559
-0.257046
-0.254658
-0.25175
-0.249842
-0.248841
-0.727415
-0.692983
-0.628789
-0.54807
-0.460616
-0.370464
-0.280219
-0.193227
-0.114156
-0.0486046
-0.0143966
-0.0551802
-0.150577
-0.21165
-0.230482
-0.261256
-0.258286
-0.250768
-0.249714
-0.24947
-0.75402
-0.720555
-0.658336
-0.579092
-0.493723
-0.406189
-0.319362
-0.236686
-0.163295
-0.105213
-0.0715144
-0.143125
-0.227304
-0.206139
-0.221224
-0.259463
-0.283519
-0.292059
-0.293577
-0.292643
-0.775072
-0.743361
-0.683597
-0.606914
-0.524181
-0.439792
-0.356776
-0.278711
-0.211068
-0.161293
-0.130509
-0.23641
-0.35695
-0.309505
-0.244353
-0.353906
-0.428876
-0.454283
-0.443512
-0.434825
-0.788451
-0.759366
-0.702948
-0.629636
-0.550403
-0.469781
-0.390964
-0.317725
-0.255764
-0.214381
-0.192432
-0.331794
-0.594448
-0.847333
-0.789411
-0.674403
-0.60926
-0.578801
-0.559228
-0.553622
-0.791597
-0.766444
-0.714443
-0.64547
-0.570619
-0.494493
-0.420196
-0.351808
-0.295215
-0.260789
-0.249953
-0.403547
-0.717625
-1.33058
-1.42365
-0.851656
-0.55219
-0.490085
-0.488652
-0.488107
-0.782806
-0.762298
-0.716037
-0.652826
-0.583279
-0.512245
-0.442664
-0.378767
-0.326625
-0.296469
-0.282564
-0.348126
-0.327957
-0.326726
-0.434656
-0.415288
-0.417321
-0.40806
-0.406054
-0.404204
-0.759885
-0.743969
-0.706082
-0.650509
-0.587306
-0.521791
-0.456817
-0.396326
-0.347039
-0.318124
-0.307529
-0.200611
0.142355
0.770598
0.77748
0.242785
-0.158945
-0.275569
-0.313435
-0.312621
-0.724637
-0.714012
-0.684947
-0.638675
-0.582629
-0.522708
-0.461754
-0.403247
-0.353927
-0.323227
-0.316522
-0.286475
-0.299089
-0.498508
-0.963651
-1.30927
-1.242
-0.900641
-0.681683
-0.665934
-0.682513
-0.676386
-0.656809
-0.619638
-0.570907
-0.515776
-0.457564
-0.399328
-0.345806
-0.310764
-0.313263
-0.500484
-1.08859
-1.91951
-2.51218
-2.86218
-2.76089
-2.42835
-2.07889
-1.86253
-0.641587
-0.638076
-0.627176
-0.598454
-0.555248
-0.503255
-0.445576
-0.384398
-0.323425
-0.267657
-0.246745
-0.362606
-0.790517
-1.30474
-1.64217
-1.6061
-1.3346
-0.989818
-0.713069
-0.577024
-0.608801
-0.606632
-0.601092
-0.580013
-0.540696
-0.488845
-0.428979
-0.360816
-0.28589
-0.198967
-0.102955
0.0206422
0.161154
0.475242
0.879781
1.34152
1.75589
2.0225
2.14908
2.18883
-0.581317
-0.580434
-0.579002
-0.566218
-0.5305
-0.476936
-0.412031
-0.336283
-0.247849
-0.141658
-0.00402574
0.15513
0.454357
0.929588
1.53428
2.08268
2.49566
2.74523
2.86258
2.89475
-0.563113
-0.562683
-0.562604
-0.555764
-0.524268
-0.468305
-0.397581
-0.315488
-0.218867
-0.104887
0.0256139
0.165045
0.374416
0.85197
1.42039
1.94292
2.32644
2.53978
2.63148
2.65532
-0.548593
-0.548103
-0.548067
-0.54608
-0.519842
-0.46219
-0.38621
-0.299328
-0.202024
-0.0900188
0.0266391
0.153183
0.29782
0.666467
1.12938
1.52077
1.80985
1.97022
2.04001
2.05822
-0.53952
-0.537875
-0.537161
-0.537765
-0.516338
-0.456229
-0.375094
-0.285297
-0.189598
-0.0839317
0.0207301
0.123362
0.223928
0.464318
0.792805
1.07036
1.27394
1.38637
1.4349
1.44659
-0.541233
-0.540833
-0.543724
-0.544974
-0.517869
-0.446855
-0.359031
-0.267982
-0.175905
-0.0790804
0.00817071
0.0839732
0.15089
0.312236
0.530704
0.713745
0.847051
0.921196
0.952469
0.960196
-0.533718
-0.538987
-0.546482
-0.543215
-0.503452
-0.421937
-0.330898
-0.243315
-0.159975
-0.0776471
-0.00813371
0.0449465
0.0894021
0.19855
0.345983
0.46451
0.547168
0.591685
0.610112
0.612987
-0.458568
-0.466323
-0.474694
-0.469029
-0.429935
-0.358407
-0.281588
-0.207877
-0.139019
-0.0719904
-0.0166776
0.0207502
0.0530666
0.125703
0.221024
0.297112
0.346383
0.371955
0.382131
0.383043
-0.304316
-0.30982
-0.316148
-0.314016
-0.291835
-0.252637
-0.207164
-0.159058
-0.110221
-0.0603373
-0.0206712
0.0046586
0.0273689
0.079165
0.140547
0.187559
0.217389
0.232894
0.238919
0.238952
-0.134048
-0.136735
-0.141832
-0.147072
-0.147217
-0.141048
-0.126593
-0.105393
-0.0778033
-0.0453862
-0.0175058
0.00212904
0.0184433
0.0527036
0.0922906
0.122315
0.140808
0.15009
0.153546
0.153049
-0.011028
-0.0123964
-0.0172277
-0.0279732
-0.04281
-0.0549556
-0.0604856
-0.0578962
-0.0466006
-0.0277937
-0.00789135
0.00795775
0.0209204
0.0459449
0.0712806
0.0886953
0.0995331
0.104904
0.106644
0.105812
0.0525733
0.0516827
0.0472142
0.0357362
0.0177868
-0.000633928
-0.0147647
-0.0218913
-0.0207996
-0.0113918
0.00285078
0.0175576
0.0314433
0.047616
0.0623033
0.0727269
0.0791932
0.0824449
0.0833613
0.082293
0.0750622
0.0743981
0.0708777
0.061417
0.0458929
0.0285925
0.013273
0.00250257
-0.00173548
0.00179537
0.0121787
0.0267864
0.0415521
0.0513037
0.058032
0.0639827
0.0682355
0.0708177
0.0712716
0.0700462
0.076208
0.0757098
0.0732128
0.0664724
0.0550135
0.0412725
0.0279178
0.0171748
0.0108184
0.0107681
0.0180209
0.0308649
0.0449898
0.0497577
0.0511998
0.0546135
0.0589256
0.0618699
0.0625237
0.0611878
0.0686098
0.0682386
0.0665757
0.0621512
0.0543682
0.0444506
0.0339807
0.0245717
0.0176472
0.0149268
0.0181056
0.0268894
0.0363323
0.0374674
0.0382126
0.0423052
0.0472003
0.0505577
0.0513456
0.0500387
0.058751
0.0584598
0.0573758
0.0546271
0.0496393
0.042861
0.0350912
0.0273278
0.0203551
0.0151272
0.0130017
0.014127
0.0161442
0.014391
0.0161142
0.023052
0.0298451
0.033926
0.0348945
0.0336517
0.0496485
0.0494031
0.0486836
0.0470242
0.0439605
0.0394858
0.0338852
0.0275619
0.0207407
0.0132971
0.00501213
-0.00369342
-0.0128828
-0.0169211
-0.00934881
0.00059565
0.00816656
0.0121219
0.0129909
0.0120327
0.0425022
0.0422875
0.0417778
0.0407576
0.038886
0.0359734
0.0320088
0.0269894
0.0207129
0.0116314
-0.0020817
-0.0217379
-0.0398853
-0.0418669
-0.0297967
-0.0178741
-0.0107923
-0.00787343
-0.00731713
-0.00788794
0.0374549
0.0372817
0.0369157
0.0362448
0.0351169
0.0332401
0.030508
0.0267989
0.0214448
0.0125944
-0.00375484
-0.029228
-0.0538841
-0.052041
-0.0361128
-0.0243481
-0.0188418
-0.0175696
-0.0173682
-0.0176274
0.0339512
0.0338196
0.0335589
0.0330971
0.032446
0.0313642
0.0296552
0.027358
0.0239812
0.0175924
0.00409796
-0.0187098
-0.0392051
-0.0333134
-0.0197021
-0.0120511
-0.00992618
-0.0101176
-0.0101288
-0.0102429
0.0312782
0.03119
0.0310353
0.0307034
0.0302696
0.0298883
0.0292265
0.0283836
0.0273939
0.0258715
0.0210783
0.0100036
0.00124747
0.00809143
0.0150446
0.0165086
0.0156643
0.0147849
0.0145367
0.0142844
0.02874
0.0286836
0.028635
0.0284633
0.0283418
0.0283496
0.0287259
0.0296584
0.0315627
0.0356632
0.0420262
0.0478352
0.0518997
0.0582151
0.0568251
0.0524382
0.049307
0.0481136
0.0475191
0.047155
0.0257859
0.0257711
0.025834
0.0258577
0.0259939
0.0261286
0.0273761
0.0295532
0.0342316
0.0438107
0.0613635
0.0850204
0.105254
0.107813
0.0968008
0.0878801
0.0841576
0.0831088
0.0818669
0.0811626
0.0215681
0.0215802
0.0217532
0.0220489
0.0223178
0.0230693
0.0242387
0.0273806
0.0334583
0.0466528
0.0723133
0.111194
0.145809
0.14072
0.122476
0.111063
0.107815
0.10683
0.105142
0.104248
0.0159421
0.0159553
0.0161852
0.0166129
0.017227
0.018075
0.0193991
0.0221359
0.0281073
0.0414344
0.0677209
0.109807
0.145892
0.143273
0.123461
0.116452
0.11338
0.113594
0.111347
0.109925
0.00918442
0.00914213
0.00928231
0.00964607
0.0100684
0.0104817
0.0114616
0.0135404
0.017921
0.0274834
0.0466377
0.0790627
0.10783
0.0992508
0.0871094
0.08326
0.0893725
0.0913597
0.0882795
0.0862199
0.00211986
0.00198949
0.00178128
0.00153132
0.00134035
0.00147066
0.00175618
0.00212385
0.00307432
0.00473742
0.00707283
0.0131318
0.0206882
0.0302303
0.0290739
0.0280158
0.0238001
0.0180612
0.019229
0.0182939
-0.0321774
0.140437
0.342173
0.516965
0.657352
0.768807
0.861422
0.939791
0.974949
0.951701
0.282183
0.406571
0.540098
0.655765
0.753565
0.834763
0.900462
0.946977
0.970336
0.982284
0.507865
0.593038
0.684125
0.764924
0.834458
0.892632
0.938839
0.972556
0.996833
1.0147
0.672701
0.733228
0.797123
0.855541
0.906523
0.949771
0.985242
1.01349
1.03662
1.05485
0.800975
0.845207
0.89215
0.936874
0.9764
1.01088
1.04035
1.06483
1.08543
1.10323
0.906937
0.94049
0.979249
1.01541
1.04856
1.07824
1.10414
1.12589
1.14388
1.16121
1.00055
1.02962
1.06404
1.09655
1.12683
1.15428
1.17825
1.19813
1.21374
1.23081
1.08979
1.11922
1.15351
1.18579
1.2156
1.24236
1.26537
1.28396
1.29741
1.31444
1.18549
1.21886
1.25566
1.28939
1.31957
1.34586
1.36791
1.38526
1.39718
1.41458
1.30074
1.33866
1.3774
1.41174
1.44117
1.46599
1.48642
1.50235
1.51386
1.53193
1.44582
1.48444
1.52064
1.55138
1.57711
1.59925
1.61834
1.6339
1.64635
1.66435
1.62101
1.65266
1.67888
1.70136
1.72137
1.74012
1.75785
1.77435
1.78971
1.80779
1.80968
1.8269
1.84196
1.85821
1.87413
1.88868
1.9019
1.91583
1.93339
1.95354
1.99143
2.00098
2.01253
2.02335
2.03264
2.04223
2.05303
2.0644
2.07577
2.09113
2.19869
2.20236
2.18742
2.17261
2.16634
2.17202
2.19051
2.22082
2.253
2.27966
2.505
2.37014
2.29351
2.25115
2.23374
2.2377
2.2651
2.32152
2.42414
2.6485
0.793319
0.791188
0.786702
0.778072
0.76584
0.753701
0.743457
0.735536
0.729883
0.72658
0.726164
0.72884
0.733893
0.741076
0.750435
0.761955
0.774592
0.785616
0.791723
0.794772
0.717784
0.723629
0.729963
0.734449
0.736909
0.736572
0.733819
0.729983
0.726436
0.724125
0.723913
0.726042
0.729649
0.733896
0.737671
0.739532
0.738579
0.735084
0.729912
0.723288
0.709387
0.711683
0.715082
0.71807
0.720135
0.721617
0.722352
0.722006
0.720941
0.720001
0.720101
0.721456
0.72321
0.724466
0.724608
0.72369
0.722119
0.719767
0.716492
0.713567
0.703911
0.704997
0.706825
0.709195
0.711207
0.712618
0.713615
0.714332
0.714687
0.714845
0.715253
0.715975
0.716501
0.716509
0.71605
0.715166
0.713669
0.711563
0.709462
0.708074
0.698755
0.699418
0.700522
0.702217
0.703985
0.705598
0.706867
0.707845
0.708673
0.709388
0.71002
0.710469
0.710575
0.710337
0.709712
0.708611
0.707147
0.705575
0.704238
0.703453
0.693839
0.6943
0.695082
0.696371
0.697843
0.69934
0.700775
0.702029
0.703103
0.704069
0.704868
0.705312
0.70535
0.704985
0.704213
0.703163
0.70199
0.70082
0.699881
0.699359
0.689087
0.689431
0.690039
0.691098
0.692377
0.69373
0.695135
0.696533
0.697835
0.699012
0.699982
0.700521
0.700562
0.700169
0.699474
0.698618
0.697702
0.696787
0.696085
0.695703
0.684448
0.684715
0.685205
0.686106
0.68726
0.688532
0.68989
0.691325
0.692785
0.694185
0.695363
0.696044
0.696172
0.695902
0.695385
0.694723
0.693991
0.693288
0.692761
0.692469
0.679845
0.680057
0.680464
0.681256
0.682331
0.683553
0.684897
0.686368
0.687943
0.689555
0.690984
0.691879
0.692203
0.692136
0.691816
0.691342
0.69079
0.690259
0.689865
0.689635
0.675201
0.675372
0.67572
0.676439
0.677468
0.678666
0.68003
0.68157
0.683276
0.685105
0.686829
0.68803
0.688631
0.688808
0.688699
0.688417
0.688045
0.687664
0.687379
0.687196
0.670435
0.670572
0.670877
0.671554
0.672568
0.673788
0.675213
0.676866
0.678758
0.680859
0.682946
0.684527
0.685455
0.685907
0.686031
0.685944
0.68574
0.685499
0.685303
0.685157
0.665472
0.66558
0.665857
0.666516
0.667551
0.66884
0.67037
0.67219
0.674335
0.676785
0.679324
0.681367
0.682675
0.683437
0.683819
0.683941
0.683904
0.683794
0.683674
0.683558
0.660235
0.660318
0.660577
0.661242
0.662334
0.663732
0.665418
0.667469
0.669947
0.672859
0.675963
0.678548
0.680301
0.681421
0.682092
0.682447
0.682585
0.6826
0.682549
0.682456
0.654633
0.654694
0.654945
0.655637
0.656817
0.658364
0.660261
0.662609
0.665492
0.668957
0.672754
0.67602
0.678328
0.679886
0.680893
0.681514
0.681843
0.681991
0.682003
0.681932
0.648562
0.6486
0.648847
0.649584
0.650892
0.652645
0.654828
0.657567
0.660977
0.665145
0.669791
0.673878
0.676845
0.678914
0.6803
0.68121
0.681777
0.682063
0.68214
0.682089
0.641906
0.641916
0.642162
0.642967
0.644438
0.646455
0.648996
0.652233
0.656319
0.661367
0.667064
0.67215
0.675901
0.678579
0.680431
0.681678
0.68251
0.682951
0.683096
0.683062
0.634454
0.634454
0.63472
0.635606
0.637284
0.639608
0.642612
0.646474
0.651396
0.657539
0.664526
0.670808
0.675513
0.678931
0.681352
0.683037
0.684174
0.68479
0.685007
0.684989
0.625957
0.625922
0.626222
0.627233
0.629172
0.631911
0.635496
0.640144
0.64611
0.653587
0.662152
0.669927
0.675779
0.680073
0.683185
0.685416
0.686922
0.687749
0.688047
0.688044
0.616139
0.61608
0.616421
0.617601
0.619865
0.623136
0.627471
0.63314
0.640461
0.649656
0.660153
0.669658
0.67686
0.682201
0.686119
0.688987
0.690941
0.692022
0.692408
0.692416
0.604511
0.604427
0.604839
0.606238
0.608918
0.612862
0.618151
0.625113
0.634111
0.645385
0.658237
0.669882
0.67872
0.685323
0.690231
0.693866
0.696379
0.697758
0.698239
0.69825
0.590356
0.590246
0.590778
0.592496
0.595759
0.600643
0.607247
0.615956
0.627171
0.641102
0.656795
0.670891
0.681583
0.689626
0.695678
0.700197
0.703343
0.705052
0.705626
0.705633
0.57268
0.572549
0.573282
0.57549
0.579613
0.585839
0.594266
0.605313
0.619372
0.636573
0.655664
0.672648
0.685486
0.695173
0.702541
0.708044
0.711893
0.713945
0.714604
0.714598
0.550015
0.549874
0.550948
0.553944
0.559415
0.567657
0.578715
0.592989
0.610771
0.632022
0.655112
0.675352
0.690577
0.702069
0.710854
0.717467
0.722055
0.724437
0.725161
0.725135
0.520021
0.519909
0.521611
0.526014
0.533772
0.545217
0.56017
0.578903
0.601478
0.627633
0.655314
0.679165
0.69697
0.710417
0.720717
0.728507
0.733826
0.736493
0.737255
0.737202
0.478597
0.478656
0.481758
0.489073
0.501061
0.517757
0.538503
0.563254
0.59182
0.623715
0.656506
0.684228
0.704748
0.720228
0.732149
0.741192
0.747165
0.750021
0.750767
0.750679
0.418083
0.4193
0.426915
0.44068
0.460397
0.485432
0.514325
0.546754
0.582416
0.620737
0.658973
0.690683
0.713964
0.731506
0.745028
0.755233
0.761815
0.764712
0.765331
0.7652
0.345865
0.347734
0.362258
0.386026
0.41661
0.451429
0.489239
0.529911
0.573255
0.61877
0.663474
0.700304
0.727375
0.747876
0.763652
0.775453
0.782857
0.785969
0.786691
0.786685
0.271316
0.277665
0.299085
0.333009
0.373821
0.418184
0.464885
0.513846
0.564971
0.617834
0.669258
0.711463
0.74249
0.766141
0.784582
0.798225
0.806396
0.809201
0.809763
0.809862
0.210614
0.219146
0.245223
0.286137
0.334824
0.38726
0.441928
0.498627
0.557162
0.617081
0.674899
0.722134
0.756828
0.783267
0.803722
0.818607
0.827156
0.830501
0.831616
0.831788
0.161114
0.17023
0.199805
0.245853
0.300605
0.359536
0.420908
0.484404
0.549671
0.616132
0.67993
0.731813
0.769794
0.798623
0.820788
0.836832
0.846301
0.850367
0.851711
0.851906
0.119457
0.128827
0.160788
0.210742
0.270457
0.334784
0.401841
0.471258
0.54254
0.61498
0.684278
0.740416
0.781321
0.812154
0.835642
0.852556
0.862888
0.867482
0.869027
0.869233
0.0832777
0.0927359
0.126461
0.179593
0.243397
0.312318
0.384335
0.458987
0.535689
0.613592
0.687982
0.748009
0.791494
0.823969
0.848417
0.865992
0.876967
0.882003
0.883712
0.883957
0.0510118
0.0604869
0.0955521
0.151373
0.218607
0.291495
0.367889
0.447244
0.528901
0.611879
0.69103
0.754662
0.800424
0.834264
0.859491
0.877646
0.889034
0.894461
0.89624
0.896493
0.0214774
0.0309772
0.067125
0.125231
0.195423
0.271803
0.352083
0.435706
0.52194
0.609688
0.693368
0.760405
0.808263
0.843301
0.869179
0.887684
0.899328
0.905005
0.906868
0.907124
-0.00610307
0.0034341
0.0405689
0.100589
0.173387
0.252845
0.336611
0.424124
0.514608
0.606878
0.69493
0.765279
0.815169
0.851355
0.877856
0.896684
0.908472
0.914272
0.916115
0.916384
-0.0322349
-0.0226422
0.0153733
0.0770555
0.152158
0.234336
0.321242
0.412314
0.506754
0.603328
0.695652
0.769315
0.82127
0.858652
0.885799
0.904962
0.916911
0.922724
0.924556
0.924694
-0.0573869
-0.0476338
-0.00881557
0.0543331
0.131488
0.216085
0.305824
0.400148
0.498275
0.598945
0.695473
0.772529
0.826674
0.865363
0.893227
0.912727
0.924794
0.930566
0.932336
0.932482
-0.0817775
-0.0717964
-0.0322758
0.0322877
0.111223
0.19796
0.290258
0.387554
0.489093
0.593662
0.694345
0.774924
0.831453
0.871614
0.900301
0.920184
0.932353
0.938066
0.939724
0.939839
-0.105507
-0.0953123
-0.0550261
0.0107856
0.0912731
0.179919
0.274502
0.374493
0.479177
0.587423
0.692211
0.776475
0.835641
0.877493
0.907132
0.92743
0.939648
0.945214
0.94673
0.946779
-0.128725
-0.118223
-0.0772405
-0.0102601
0.0716073
0.161939
0.258555
0.36097
0.468527
0.580216
0.68901
0.777119
0.839225
0.883057
0.913806
0.934526
0.946714
0.952055
0.953359
0.953329
-0.151418
-0.140627
-0.0989242
-0.0308846
0.0522246
0.144039
0.242458
0.347029
0.457169
0.57203
0.68469
0.776762
0.842149
0.888334
0.920419
0.941558
0.953548
0.958502
0.959562
0.959466
-0.17364
-0.162525
-0.120045
-0.0510575
0.0331484
0.126259
0.226261
0.332733
0.445164
0.562893
0.679212
0.77531
0.844304
0.893309
0.927096
0.948685
0.960226
0.964556
0.965301
0.965139
-0.195204
-0.183836
-0.140606
-0.0707427
0.0144319
0.108674
0.210033
0.318159
0.432589
0.552867
0.672562
0.772664
0.845542
0.897891
0.93396
0.956224
0.966999
0.970251
0.970517
0.970296
-0.216256
-0.204526
-0.160586
-0.0899217
-0.00389218
0.0913297
0.193871
0.303392
0.419537
0.542042
0.664758
0.76872
0.845669
0.901874
0.94103
0.964651
0.97453
0.975946
0.975226
0.974897
-0.236627
-0.224569
-0.179952
-0.108545
-0.0217442
0.0743111
0.177858
0.288556
0.406124
0.530492
0.655854
0.763392
0.84447
0.904918
0.948044
0.97435
0.98412
0.983102
0.980046
0.978722
-0.256376
-0.244002
-0.19865
-0.12656
-0.0390856
0.0576884
0.162079
0.273734
0.392467
0.518362
0.645935
0.75661
0.841743
0.90657
0.954277
0.984967
0.997081
0.995203
0.988086
0.978631
-0.275418
-0.262785
-0.216776
-0.144121
-0.056129
0.0411765
0.14619
0.258515
0.378103
0.50513
0.634441
0.747761
0.836909
0.906262
0.958663
0.995175
1.0131
1.01358
1.00352
0.995744
-0.293703
-0.280839
-0.234324
-0.16119
-0.0728686
0.0247741
0.130213
0.242882
0.362992
0.490689
0.621202
0.736503
0.829272
0.903219
0.958843
0.999605
1.02036
1.02607
0.988775
0.935671
-0.310935
-0.297387
-0.251174
-0.177696