/*--------------------------------*- C++ -*----------------------------------*\
| =========                 |                                                 |
| \\      /  F ield         | OpenFOAM: The Open Source CFD Toolbox           |
|  \\    /   O peration     | Version:  4.0                                   |
|   \\  /    A nd           | Web:      www.OpenFOAM.org                      |
|    \\/     M anipulation  |                                                 |
\*---------------------------------------------------------------------------*/
FoamFile
{
    version     2.0;
    format      ascii;
    class       volVectorField;
    location    "2";
    object      U;
}
// * * * * * * * * * * * * * * * * * * * * * * * * * * * * * * * * * * * * * //

dimensions      [0 1 -1 0 0 0 0];

internalField   nonuniform List<vector> 
2200
(
(0.836905 -0.0264527 0)
(0.971901 -0.042172 0)
(0.978567 -0.029499 0)
(0.974863 -0.0225341 0)
(0.971766 -0.0165504 0)
(0.969718 -0.0118849 0)
(0.968436 -0.00830586 0)
(0.967663 -0.00546846 0)
(0.967213 -0.00307961 0)
(0.966986 -0.000869732 0)
(0.966971 0.00129958 0)
(0.967181 0.00346564 0)
(0.967617 0.0057971 0)
(0.968382 0.0085739 0)
(0.969658 0.0120939 0)
(0.971704 0.0167077 0)
(0.974801 0.0226479 0)
(0.978506 0.0295795 0)
(0.971836 0.042215 0)
(0.836862 0.0264616 0)
(0.789657 -0.0127801 0)
(1.00554 -0.027715 0)
(1.0149 -0.0220227 0)
(1.00811 -0.0215732 0)
(1.00192 -0.0186529 0)
(0.997514 -0.0151863 0)
(0.994535 -0.0115008 0)
(0.992626 -0.00791086 0)
(0.991486 -0.00452237 0)
(0.99092 -0.00120098 0)
(0.990892 0.00204635 0)
(0.99144 0.00523412 0)
(0.992568 0.00851317 0)
(0.994463 0.0119856 0)
(0.997435 0.0155643 0)
(1.00184 0.0189324 0)
(1.00804 0.0217586 0)
(1.01481 0.0221411 0)
(1.00542 0.027753 0)
(0.789523 0.0127906 0)
(0.75697 -0.00773894 0)
(1.02606 -0.0132156 0)
(1.04767 -0.01167 0)
(1.04502 -0.0120424 0)
(1.0412 -0.0113644 0)
(1.03765 -0.0102561 0)
(1.03458 -0.00858072 0)
(1.03216 -0.00639749 0)
(1.03046 -0.00379628 0)
(1.02951 -0.000854759 0)
(1.02935 0.0022588 0)
(1.03019 0.00510607 0)
(1.0318 0.00752909 0)
(1.03416 0.00951698 0)
(1.03718 0.0109837 0)
(1.04069 0.0118987 0)
(1.04448 0.0124069 0)
(1.04713 0.0119108 0)
(1.02552 0.0133654 0)
(0.756655 0.00778305 0)
(0.70627 -0.00269354 0)
(1.00726 -0.00712712 0)
(1.03151 -0.00710444 0)
(1.0299 -0.00841311 0)
(1.027 -0.00861371 0)
(1.02413 -0.00823318 0)
(1.02147 -0.00718427 0)
(1.01922 -0.00553595 0)
(1.01753 -0.00333252 0)
(1.01653 -0.000729719 0)
(1.01643 0.0021312 0)
(1.01728 0.00475481 0)
(1.01887 0.00677326 0)
(1.02105 0.00822404 0)
(1.02366 0.00907132 0)
(1.02649 0.00926918 0)
(1.02936 0.00889304 0)
(1.03102 0.00744529 0)
(1.00682 0.00734611 0)
(0.705762 0.0027853 0)
(0.694975 0.000379075 0)
(0.989291 -0.000413485 0)
(1.01371 -0.0015492 0)
(1.01367 -0.00273609 0)
(1.01233 -0.00345753 0)
(1.01075 -0.00375998 0)
(1.00906 -0.00355714 0)
(1.00742 -0.00283198 0)
(1.00599 -0.00158746 0)
(1.00499 5.49237e-05 0)
(1.00493 0.00189251 0)
(1.00548 0.00347266 0)
(1.0066 0.00445325 0)
(1.00803 0.00490167 0)
(1.00958 0.00484203 0)
(1.01108 0.00431162 0)
(1.01238 0.00339653 0)
(1.0124 0.0020255 0)
(0.987785 0.000647367 0)
(0.693373 -0.000334582 0)
(0.698101 0.000146035 0)
(0.990575 -0.00011699 0)
(1.01492 -0.0007708 0)
(1.01532 -0.00144909 0)
(1.01451 -0.00201781 0)
(1.0134 -0.00235953 0)
(1.0121 -0.00234002 0)
(1.01074 -0.00188696 0)
(1.00949 -0.000968335 0)
(1.00855 0.000370344 0)
(1.00847 0.00183059 0)
(1.00891 0.00299519 0)
(1.00981 0.00363748 0)
(1.01092 0.00377232 0)
(1.01204 0.00346261 0)
(1.01305 0.00282655 0)
(1.0138 0.00201498 0)
(1.01329 0.00113043 0)
(0.988639 0.000304147 0)
(0.696209 -0.0001099 0)
(0.699243 -5.53678e-05 0)
(0.991526 -0.00019902 0)
(1.01597 -0.000384447 0)
(1.01674 -0.000559161 0)
(1.01647 -0.000718768 0)
(1.01601 -0.000827298 0)
(1.01536 -0.000839011 0)
(1.0145 -0.000546162 0)
(1.01358 5.95012e-05 0)
(1.01278 0.000963701 0)
(1.01249 0.0019582 0)
(1.01252 0.00253314 0)
(1.01284 0.00271104 0)
(1.01328 0.00257376 0)
(1.01371 0.00222654 0)
(1.01406 0.00176864 0)
(1.01428 0.00128074 0)
(1.01343 0.000820206 0)
(0.98879 0.000383991 0)
(0.696949 9.17613e-05 0)
(0.698614 -2.92198e-05 0)
(0.990972 -0.000111574 0)
(1.01544 -0.000172481 0)
(1.01624 -0.000217261 0)
(1.01601 -0.000230862 0)
(1.01563 -0.000170489 0)
(1.01511 4.12645e-05 0)
(1.01447 0.000349016 0)
(1.01371 0.000841522 0)
(1.01296 0.00151924 0)
(1.01248 0.0020866 0)
(1.01235 0.00241539 0)
(1.01251 0.00243942 0)
(1.01276 0.00224966 0)
(1.01301 0.00191474 0)
(1.0132 0.00151293 0)
(1.0133 0.00109998 0)
(1.01236 0.000714189 0)
(0.987725 0.000360085 0)
(0.695965 9.77085e-05 0)
(0.698425 2.56873e-05 0)
(0.990734 5.84685e-05 0)
(1.01524 0.000118313 0)
(1.01606 0.000198867 0)
(1.01588 0.000315543 0)
(1.0156 0.000490917 0)
(1.01518 0.00074215 0)
(1.0146 0.00109096 0)
(1.01389 0.00153951 0)
(1.01309 0.00206816 0)
(1.01246 0.00243454 0)
(1.01208 0.00252935 0)
(1.01192 0.00239814 0)
(1.01189 0.00210045 0)
(1.01191 0.00172455 0)
(1.01194 0.00132606 0)
(1.01194 0.000942669 0)
(1.01096 0.000594886 0)
(0.98634 0.000288441 0)
(0.694926 7.34552e-05 0)
(0.698682 5.40726e-05 0)
(0.990969 0.0001526 0)
(1.01553 0.000296976 0)
(1.01645 0.000493089 0)
(1.01632 0.000738392 0)
(1.01606 0.00102658 0)
(1.01565 0.00137822 0)
(1.01509 0.00179374 0)
(1.01434 0.00225534 0)
(1.01344 0.00270625 0)
(1.01259 0.00295668 0)
(1.01198 0.00289193 0)
(1.01161 0.00261034 0)
(1.0114 0.00220799 0)
(1.01128 0.00176656 0)
(1.01122 0.00133459 0)
(1.01116 0.000939787 0)
(1.01014 0.000593075 0)
(0.985521 0.000293361 0)
(0.694337 7.9637e-05 0)
(0.699275 8.34151e-05 0)
(0.991641 0.000267432 0)
(1.01622 0.000520365 0)
(1.01712 0.00081364 0)
(1.01697 0.00115744 0)
(1.01669 0.00156024 0)
(1.01626 0.00202474 0)
(1.01565 0.00253705 0)
(1.01481 0.00305635 0)
(1.01374 0.00348891 0)
(1.01263 0.00364462 0)
(1.01176 0.0034478 0)
(1.01117 0.00303088 0)
(1.01079 0.00251947 0)
(1.01055 0.00199378 0)
(1.0104 0.00149868 0)
(1.01029 0.00105544 0)
(1.00924 0.000669535 0)
(0.984612 0.000336076 0)
(0.69364 9.44156e-05 0)
(0.700022 0.000109767 0)
(0.992551 0.000368769 0)
(1.01711 0.000717153 0)
(1.01799 0.00112243 0)
(1.01782 0.0015947 0)
(1.01751 0.00213797 0)
(1.01702 0.00274557 0)
(1.01631 0.00339036 0)
(1.0153 0.00400866 0)
(1.01399 0.00446881 0)
(1.01256 0.00455781 0)
(1.01138 0.00423152 0)
(1.01055 0.00366858 0)
(1.00999 0.00302127 0)
(1.00963 0.00237682 0)
(1.0094 0.00178104 0)
(1.00924 0.00125323 0)
(1.00817 0.00079599 0)
(0.983526 0.000400965 0)
(0.692794 0.00011384 0)
(0.701021 0.000143531 0)
(0.993761 0.000484076 0)
(1.01831 0.000943157 0)
(1.01916 0.00148017 0)
(1.01896 0.00210415 0)
(1.01858 0.00281653 0)
(1.01799 0.00360295 0)
(1.01712 0.00442123 0)
(1.01589 0.0051816 0)
(1.01424 0.00570852 0)
(1.0124 0.00574945 0)
(1.01085 0.00528359 0)
(1.00975 0.00454755 0)
(1.00899 0.00372711 0)
(1.0085 0.00292311 0)
(1.00818 0.00218638 0)
(1.00797 0.001537 0)
(1.00687 0.000975847 0)
(0.982208 0.0004916 0)
(0.691765 0.000139893 0)
(0.702329 0.000185817 0)
(0.99535 0.000628441 0)
(1.01989 0.00122515 0)
(1.02071 0.00192373 0)
(1.02045 0.00273316 0)
(1.01998 0.0036539 0)
(1.01924 0.004664 0)
(1.01815 0.00570442 0)
(1.01659 0.00665426 0)
(1.0145 0.00728423 0)
(1.01215 0.00728527 0)
(1.01016 0.00665597 0)
(1.00872 0.00570505 0)
(1.00774 0.00466277 0)
(1.00709 0.0036505 0)
(1.00668 0.00272779 0)
(1.00641 0.00191699 0)
(1.00526 0.00121753 0)
(0.980582 0.000613897 0)
(0.690494 0.000175321 0)
(0.704017 0.000239682 0)
(0.997402 0.000811042 0)
(1.02193 0.00158093 0)
(1.02271 0.00248284 0)
(1.02237 0.00352611 0)
(1.02177 0.00471026 0)
(1.02084 0.00600408 0)
(1.01945 0.00732802 0)
(1.01747 0.00852281 0)
(1.01481 0.00929222 0)
(1.01181 0.00925279 0)
(1.00926 0.00842267 0)
(1.00742 0.00720086 0)
(1.00615 0.00587504 0)
(1.00531 0.0045943 0)
(1.00478 0.00343056 0)
(1.00444 0.00240989 0)
(1.00325 0.00153034 0)
(0.978542 0.000771584 0)
(0.688898 0.000220436 0)
(0.706199 0.000309617 0)
(1.00005 0.00104611 0)
(1.02456 0.0020367 0)
(1.02529 0.00319738 0)
(1.02484 0.00453804 0)
(1.02408 0.00605747 0)
(1.02288 0.00771294 0)
(1.0211 0.00939849 0)
(1.01857 0.0109057 0)
(1.01517 0.0118534 0)
(1.01135 0.0117639 0)
(1.00809 0.0106795 0)
(1.00575 0.00911356 0)
(1.00413 0.00742652 0)
(1.00306 0.00580301 0)
(1.00239 0.00433102 0)
(1.00196 0.00304161 0)
(1.00071 0.00193119 0)
(0.97597 0.000973577 0)
(0.686887 0.000278093 0)
(0.709014 0.000400061 0)
(1.00347 0.00135043 0)
(1.02796 0.00262638 0)
(1.0286 0.0041216 0)
(1.02802 0.00584515 0)
(1.02703 0.00779441 0)
(1.02549 0.00991127 0)
(1.02319 0.0120555 0)
(1.01994 0.0139554 0)
(1.0156 0.0151221 0)
(1.01073 0.0149611 0)
(1.0066 0.0135492 0)
(1.00362 0.0115442 0)
(1.00157 0.00939763 0)
(1.00022 0.00733833 0)
(0.99936 0.00547442 0)
(0.998819 0.00384328 0)
(0.997506 0.00243942 0)
(0.972722 0.00122927 0)
(0.684349 0.000351038 0)
(0.712658 0.000519237 0)
(1.00787 0.00174735 0)
(1.03233 0.00339197 0)
(1.03287 0.00532029 0)
(1.03211 0.00753905 0)
(1.03082 0.010043 0)
(1.02881 0.0127518 0)
(1.02584 0.0154782 0)
(1.02166 0.0178671 0)
(1.01609 0.0192934 0)
(1.0099 0.0190234 0)
(1.00467 0.0171857 0)
(1.00091 0.0146206 0)
(0.998321 0.011891 0)
(0.996614 0.00928031 0)
(0.995532 0.00692101 0)
(0.994856 0.00485797 0)
(0.993457 0.00308289 0)
(0.96862 0.00155288 0)
(0.681147 0.000443009 0)
(0.717397 0.000677725 0)
(1.01358 0.00227303 0)
(1.038 0.00440158 0)
(1.03839 0.00689712 0)
(1.03737 0.00975949 0)
(1.03568 0.0129798 0)
(1.03305 0.016446 0)
(1.02918 0.0199057 0)
(1.02377 0.0228936 0)
(1.01665 0.0246136 0)
(1.00879 0.0241724 0)
(1.00219 0.0217786 0)
(0.997454 0.0184998 0)
(0.994201 0.0150324 0)
(0.992053 0.0117248 0)
(0.990691 0.00873995 0)
(0.989846 0.00613221 0)
(0.98834 0.0038898 0)
(0.963439 0.00195824 0)
(0.677108 0.000558076 0)
(0.723605 0.000891121 0)
(1.02102 0.00297128 0)
(1.04537 0.00573871 0)
(1.04557 0.00898326 0)
(1.04419 0.0126928 0)
(1.04193 0.0168471 0)
(1.03845 0.0212846 0)
(1.03338 0.0256602 0)
(1.02636 0.0293634 0)
(1.01724 0.031391 0)
(1.00731 0.030679 0)
(0.999016 0.0275588 0)
(0.993076 0.0233762 0)
(0.988995 0.0189821 0)
(0.986296 0.0148007 0)
(0.984583 0.0110307 0)
(0.983524 0.00773796 0)
(0.981882 0.00490707 0)
(0.956901 0.00246856 0)
(0.672016 0.000702945 0)
(0.731779 0.00118985 0)
(1.03073 0.00394578 0)
(1.05498 0.0075671 0)
(1.05488 0.0118178 0)
(1.05301 0.0166425 0)
(1.04995 0.0220118 0)
(1.04529 0.0276832 0)
(1.03858 0.0331792 0)
(1.02946 0.0377008 0)
(1.0178 0.0400046 0)
(1.0053 0.0388652 0)
(0.994941 0.0348001 0)
(0.987526 0.0294833 0)
(0.98242 0.0239348 0)
(0.979034 0.018664 0)
(0.976879 0.0139126 0)
(0.975552 0.009762 0)
(0.973741 0.0061912 0)
(0.948662 0.00311596 0)
(0.665607 0.000886317 0)
(0.742905 0.00159848 0)
(1.04381 0.00520286 0)
(1.06787 0.0100423 0)
(1.06726 0.015658 0)
(1.06459 0.0220138 0)
(1.06031 0.0289935 0)
(1.05395 0.0362285 0)
(1.04499 0.043053 0)
(1.0331 0.0484441 0)
(1.01826 0.0509099 0)
(1.00264 0.0491077 0)
(0.989794 0.0438241 0)
(0.980588 0.037105 0)
(0.974208 0.030139 0)
(0.969938 0.0235205 0)
(0.967192 0.0175399 0)
(0.965488 0.0123029 0)
(0.963428 0.00779754 0)
(0.938214 0.00390823 0)
(0.657474 0.00111254 0)
(0.757626 0.00230569 0)
(1.06097 0.00756468 0)
(1.0847 0.013893 0)
(1.08337 0.0214664 0)
(1.07946 0.0297832 0)
(1.07337 0.038781 0)
(1.06454 0.0478557 0)
(1.05251 0.0561075 0)
(1.03704 0.0622689 0)
(1.01828 0.064622 0)
(0.998944 0.0618018 0)
(0.98317 0.0549728 0)
(0.971833 0.0465698 0)
(0.963902 0.0379237 0)
(0.958527 0.0297006 0)
(0.955029 0.0222373 0)
(0.952852 0.01567 0)
(0.950506 0.00997373 0)
(0.925128 0.00508863 0)
(0.647378 0.00144663 0)
(0.780599 0.00334372 0)
(1.08589 0.00958429 0)
(1.1085 0.0192355 0)
(1.10544 0.0294802 0)
(1.09921 0.0407925 0)
(1.09011 0.0524594 0)
(1.07762 0.0636832 0)
(1.06139 0.0733286 0)
(1.04136 0.0799574 0)
(1.01788 0.0817401 0)
(0.994264 0.0774268 0)
(0.975172 0.0686637 0)
(0.961351 0.0582754 0)
(0.951507 0.0476717 0)
(0.944641 0.0375373 0)
(0.939985 0.0282249 0)
(0.936912 0.0198936 0)
(0.933854 0.0126145 0)
(0.907964 0.00612448 0)
(0.633461 0.00180374 0)
(0.808179 0.00601069 0)
(1.11812 0.0193763 0)
(1.13985 0.0304967 0)
(1.13367 0.0447766 0)
(1.12357 0.0589424 0)
(1.10984 0.0730011 0)
(1.09217 0.0858355 0)
(1.07046 0.0961209 0)
(1.04488 0.102342 0)
(1.01597 0.102669 0)
(0.987555 0.0961597 0)
(0.96473 0.0850517 0)
(0.948122 0.0724741 0)
(0.936075 0.0598304 0)
(0.927429 0.0477782 0)
(0.92136 0.0366684 0)
(0.917226 0.0266451 0)
(0.913392 0.0176421 0)
(0.887528 0.00989667 0)
(0.619364 0.00271241 0)
(0.883973 0.0134467 0)
(1.1695 0.025577 0)
(1.18263 0.0483354 0)
(1.16999 0.0678582 0)
(1.15342 0.0856859 1.21403e-33)
(1.13285 0.102058 -5.23685e-34)
(1.10829 0.115754 0)
(1.07983 0.125636 0)
(1.04784 0.130364 0)
(1.01295 0.128262 0)
(0.979626 0.118791 0)
(0.953136 0.104881 0)
(0.933621 0.0899336 0)
(0.919076 0.0751662 0)
(0.908164 0.0610519 0)
(0.899966 0.0477717 0)
(0.893785 0.0354175 0)
(0.887663 0.0236296 0)
(0.8558 0.0119181 0)
(0.585873 0.00507647 0)
(0.934594 0.0370128 9.67612e-20)
(1.23309 0.0567259 -7.44858e-20)
(1.23304 0.0893857 0)
(1.21081 0.108709 5.5183e-20)
(1.18516 0.127121 -4.45792e-20)
(1.15611 0.143247 5.52508e-34)
(1.1236 0.155743 0)
(1.08766 0.163672 2.67849e-20)
(1.04857 0.165771 -8.60857e-20)
(1.00691 0.160443 1.72237e-20)
(0.967648 0.147618 0)
(0.936344 0.130899 -3.9973e-20)
(0.912794 0.1138 -4.71694e-20)
(0.894544 0.0973849 8.2398e-20)
(0.880006 0.0820515 -6.45417e-20)
(0.868126 0.0679613 0)
(0.858152 0.0552459 -2.29047e-20)
(0.848404 0.0442263 0)
(0.816799 0.0313901 -1.28062e-19)
(0.558342 0.0188589 1.49906e-19)
(0.966605 0.0867031 -1.51533e-20)
(1.27884 0.128911 2.52292e-19)
(1.27814 0.153682 -2.25667e-20)
(1.24748 0.165849 -1.56348e-19)
(1.21275 0.181676 -9.44147e-20)
(1.17532 0.194784 1.52558e-19)
(1.13492 0.204534 0)
(1.09147 0.209737 0)
(1.04518 0.208934 1.37101e-19)
(0.996522 0.200476 0)
(0.950724 0.184688 1.46551e-19)
(0.913991 0.165843 4.28782e-20)
(0.886099 0.147681 9.53176e-22)
(0.864103 0.13119 -8.82133e-20)
(0.846201 0.116663 0)
(0.831272 0.104134 0)
(0.818582 0.0934068 -3.72754e-19)
(0.806685 0.0845562 9.41276e-19)
(0.777064 0.0758601 -5.56737e-19)
(0.536111 0.0468142 -6.5445e-19)
(0.982202 0.139555 -1.8319e-19)
(1.31123 0.215193 7.00544e-20)
(1.30991 0.225264 3.20469e-20)
(1.27327 0.234871 2.77577e-19)
(1.23259 0.245474 1.33722e-20)
(1.18897 0.253524 -4.02927e-19)
(1.14215 0.258944 1.3258e-19)
(1.09224 0.260212 0)
(1.03956 0.255643 -2.90396e-19)
(0.984647 0.24346 2.41255e-19)
(0.933249 0.224362 -3.92809e-19)
(0.892245 0.203274 1.80884e-19)
(0.861323 0.184036 -1.09994e-19)
(0.837152 0.167353 2.52256e-19)
(0.817756 0.153245 0)
(0.801912 0.141516 -8.89789e-20)
(0.788798 0.13182 0)
(0.777038 0.122971 5.06506e-19)
(0.747958 0.11614 -1.20128e-18)
(0.519577 0.0739424 7.42235e-19)
(0.991677 0.192172 6.58853e-19)
(1.32884 0.294019 -2.97388e-19)
(1.32772 0.295813 -5.90425e-20)
(1.28761 0.305426 0)
(1.24395 0.311314 -1.98071e-19)
(1.19642 0.314971 2.41142e-19)
(1.14491 0.316159 -1.41964e-19)
(1.08978 0.313272 0)
(1.03158 0.304574 2.06454e-19)
(0.971117 0.288212 -1.70675e-19)
(0.914908 0.265304 3.33196e-19)
(0.870579 0.241479 0)
(0.837632 0.22063 -2.32086e-19)
(0.812309 0.203102 1.33893e-19)
(0.79237 0.188633 3.22432e-19)
(0.7764 0.176821 -2.82612e-19)
(0.763428 0.167259 4.53218e-19)
(0.752133 0.158272 -1.00654e-18)
(0.723918 0.150993 6.36677e-19)
(0.504239 0.0986377 -7.90492e-19)
(0.998088 0.243459 -3.3326e-19)
(1.33843 0.368601 2.58739e-19)
(1.33743 0.364685 -1.93858e-19)
(1.29454 0.374565 3.31583e-19)
(1.24893 0.376361 -2.82856e-19)
(1.19848 0.376573 8.29422e-20)
(1.14327 0.374129 2.85902e-21)
(1.0838 0.367352 -2.5667e-19)
(1.0208 0.354508 -2.17443e-19)
(0.955413 0.333691 -3.61789e-19)
(0.895025 0.306482 -7.1138e-19)
(0.848075 0.279331 -2.0741e-19)
(0.813782 0.25627 3.41137e-21)
(0.787887 0.237312 -4.30499e-19)
(0.767835 0.22193 -4.05311e-21)
(0.752008 0.209536 4.00219e-19)
(0.739307 0.19962 -1.18433e-19)
(0.728468 0.190328 -7.13683e-20)
(0.701132 0.18206 0)
(0.489399 0.120646 1.6207e-18)
(1.00259 0.293371 0)
(1.34335 0.440011 -6.615e-20)
(1.34247 0.431929 -6.02124e-20)
(1.297 0.442065 -1.13047e-20)
(1.24976 0.440159 2.94994e-19)
(1.19665 0.437539 -1.82546e-19)
(1.13817 0.431908 1.59468e-19)
(1.07485 0.421546 4.15944e-19)
(1.00752 0.404657 -1.17412e-19)
(0.937617 0.379221 1.88077e-19)
(0.87346 0.347263 3.79698e-19)
(0.82437 0.316196 4.45327e-19)
(0.789212 0.290355 -2.57277e-19)
(0.763158 0.269475 4.56967e-19)
(0.743307 0.252769 -3.56496e-19)
(0.727851 0.239448 0)
(0.715585 0.22886 -8.8355e-19)
(0.705268 0.219095 1.19194e-18)
(0.678858 0.209671 8.79104e-20)
(0.474899 0.140172 -1.65426e-18)
(1.00588 0.341791 -1.73418e-20)
(1.34526 0.50815 3.93045e-19)
(1.3441 0.497439 4.53263e-19)
(1.29642 0.507589 -4.48891e-19)
(1.24769 0.502538 2.21411e-19)
(1.19206 0.497539 -1.88973e-19)
(1.13056 0.489054 3.31719e-19)
(1.06364 0.475384 -1.37982e-19)
(0.9922 0.454594 -4.93297e-19)
(0.917957 0.424437 8.98568e-22)
(0.850188 0.387302 -4.02746e-19)
(0.799239 0.351719 -4.67212e-19)
(0.76359 0.322542 2.75121e-19)
(0.737738 0.299302 -1.6196e-19)
(0.718391 0.280939 3.752e-19)
(0.703532 0.266442 0)
(0.691865 0.254978 -5.29572e-19)
(0.682146 0.244631 7.79422e-19)
(0.656724 0.233993 1.49154e-18)
(0.460605 0.157417 -1.72771e-18)
(1.00839 0.388687 5.6289e-19)
(1.34502 0.573066 -3.26168e-19)
(1.34317 0.560999 -4.03466e-19)
(1.29371 0.570759 4.79442e-19)
(1.24345 0.563287 1.08805e-20)
(1.18545 0.556275 -3.95415e-19)
(1.12109 0.545263 -1.84025e-19)
(1.05071 0.528582 -1.60685e-19)
(0.975246 0.504082 -2.70266e-19)
(0.896642 0.469169 4.28429e-19)
(0.825184 0.426446 4.24244e-19)
(0.772472 0.3857 7.46535e-19)
(0.736649 0.352592 0)
(0.711378 0.326569 -1.89767e-21)
(0.692866 0.306283 -9.83891e-19)
(0.678857 0.290443 2.26268e-19)
(0.667969 0.277994 1.1013e-18)
(0.658941 0.267015 -3.22639e-19)
(0.6346 0.255169 6.8372e-19)
(0.446509 0.172568 -5.30302e-20)
(1.01039 0.434064 2.10914e-20)
(1.34319 0.634994 -2.53994e-19)
(1.34059 0.62242 -2.78957e-19)
(1.28949 0.631482 7.34193e-19)
(1.23764 0.622248 -6.66175e-19)
(1.1774 0.613514 4.14773e-19)
(1.11029 0.600313 1.95089e-19)
(1.03653 0.580949 4.99789e-19)
(0.95703 0.552997 5.63403e-19)
(0.873894 0.51338 -4.71531e-19)
(0.798448 0.464693 0)
(0.743867 0.418053 -2.64345e-19)
(0.708143 0.380314 3.03494e-19)
(0.683896 0.351049 3.52465e-19)
(0.666646 0.328608 -2.0267e-19)
(0.653812 0.311342 -4.82446e-19)
(0.643923 0.297893 -1.39992e-19)
(0.6357 0.286306 6.07284e-21)
(0.612565 0.273338 0)
(0.432769 0.185843 0)
(1.01202 0.477867 1.93662e-19)
(1.34027 0.694244 0)
(1.33706 0.681598 -2.85203e-19)
(1.28426 0.68986 1.02793e-19)
(1.23079 0.679322 7.24554e-19)
(1.1684 0.669114 -1.91682e-19)
(1.09863 0.654053 2.06957e-19)
(1.02153 0.632361 -3.4926e-19)
(0.937926 0.60129 4.46752e-19)
(0.849969 0.557135 -1.36735e-19)
(0.770014 0.502174 2.40962e-19)
(0.713207 0.448799 8.37725e-19)
(0.677797 0.405533 -2.19243e-21)
(0.655138 0.372461 -3.6872e-19)
(0.63975 0.347652 6.35345e-19)
(0.628558 0.328972 -1.36842e-21)
(0.619969 0.314642 1.49775e-19)
(0.61271 0.302569 -6.89667e-19)
(0.590925 0.288697 7.23919e-19)
(0.419721 0.197529 -8.39384e-19)
(1.01335 0.520032 2.4346e-22)
(1.33663 0.751103 0)
(1.33298 0.738513 0)
(1.27837 0.746018 -1.27021e-19)
(1.2233 0.734451 -2.49186e-19)
(1.15884 0.722985 2.26015e-19)
(1.08649 0.706373 -4.18569e-19)
(1.00611 0.682729 0)
(0.918311 0.648952 -6.44236e-19)
(0.825161 0.600567 6.78962e-19)
(0.739953 0.539135 6.62008e-19)
(0.680247 0.478072 -2.99421e-19)
(0.645233 0.428071 -3.32787e-19)
(0.6249 0.390388 7.61446e-19)
(0.612273 0.362962 -2.23808e-19)
(0.603454 0.343017 -2.61138e-19)
(0.596618 0.328127 -1.45639e-19)
(0.59056 0.315871 -7.00001e-19)
(0.570321 0.301524 1.0467e-19)
(0.407883 0.20803 8.44711e-19)
(1.0144 0.56056 6.4762e-20)
(1.3325 0.805739 1.49288e-19)
(1.32855 0.793149 2.59046e-20)
(1.27205 0.800004 1.59582e-21)
(1.21546 0.787567 -1.57785e-19)
(1.14902 0.775038 4.52305e-19)
(1.07419 0.757166 0)
(0.990595 0.731962 2.07079e-19)
(0.898547 0.695976 -1.63274e-19)
(0.799791 0.643839 1.16907e-18)
(0.708382 0.575929 -1.34124e-19)
(0.644712 0.506158 1.5942e-19)
(0.609906 0.447775 0)
(0.592819 0.404228 -4.02294e-19)
(0.58431 0.373775 4.38309e-19)
(0.579055 0.352861 0)
(0.574697 0.338039 -3.03328e-19)
(0.570183 0.3261 8.9756e-19)
(0.551617 0.312339 1.01202e-19)
(0.398725 0.217839 -9.86785e-19)
(1.01516 0.599514 1.32951e-19)
(1.32806 0.858238 -1.80974e-19)
(1.32388 0.845563 0)
(1.26548 0.851872 -2.7177e-19)
(1.20748 0.838657 0)
(1.13918 0.825231 -5.06738e-19)
(1.06201 0.806355 0)
(0.97533 0.779986 0)
(0.879015 0.742359 -1.91821e-19)
(0.774244 0.687132 -1.10069e-18)
(0.675499 0.612997 -1.21298e-18)
(0.606316 0.533535 1.65643e-19)
(0.571071 0.464598 5.49807e-19)
(0.558261 0.413184 4.0003e-19)
(0.555924 0.378906 -1.37825e-18)
(0.556256 0.357507 -5.15404e-19)
(0.555673 0.344054 3.06953e-19)
(0.553331 0.333476 0)
(0.536703 0.321439 8.25126e-19)
(0.393269 0.228711 -9.8289e-19)
(1.01563 0.636965 -1.27297e-19)
(1.32338 0.908596 1.80033e-19)
(1.31901 0.895734 0)
(1.25878 0.901531 -1.03552e-20)
(1.19947 0.88759 1.23084e-19)
(1.12945 0.873405 0)
(1.05012 0.853766 1.30801e-19)
(0.960526 0.826635 1.32039e-19)
(0.860008 0.788006 -3.9201e-19)
(0.748884 0.730567 1.61185e-19)
(0.641572 0.65083 0)
(0.564788 0.560886 7.33083e-19)
(0.52773 0.478679 -7.78445e-21)
(0.520091 0.416197 2.03473e-19)
(0.526945 0.376386 2.36615e-19)
(0.536328 0.354885 0)
(0.541567 0.344849 -4.28034e-19)
(0.541621 0.337961 8.45763e-19)
(0.526258 0.3292 -9.11407e-19)
(0.392722 0.240915 1.89928e-18)
(1.0158 0.672954 0)
(1.31851 0.956738 0)
(1.31398 0.943686 1.28386e-19)
(1.25205 0.949027 0)
(1.19158 0.934437 0)
(1.12001 0.919627 -5.39879e-19)
(1.03874 0.899438 1.38373e-19)
(0.946472 0.871913 1.58765e-20)
(0.841917 0.832936 -9.91415e-20)
(0.724219 0.774325 0)
(0.60704 0.690007 -1.75641e-19)
(0.519972 0.589183 -5.84866e-19)
(0.478653 0.490598 -6.41161e-19)
(0.476619 0.412276 -2.28382e-19)
(0.497179 0.363755 2.18002e-19)
(0.521769 0.342912 -4.83943e-19)
(0.536525 0.338599 7.93104e-19)
(0.54207 0.339973 -3.03975e-20)
(0.527246 0.339754 -7.54807e-19)
(0.40086 0.257565 -1.02228e-19)
(1.01565 0.707489 0)
(1.31349 1.00274 1.3821e-19)
(1.30885 0.989456 -1.24338e-19)
(1.2453 0.994323 0)
(1.18381 0.979065 0)
(1.11088 0.963678 1.13952e-18)
(1.02789 0.943072 0)
(0.933219 0.915457 0)
(0.824879 0.876778 -9.04871e-19)
(0.700562 0.818227 2.01261e-19)
(0.572383 0.730932 -1.74815e-18)
(0.471876 0.619483 0)
(0.42231 0.501069 -6.90288e-19)
(0.425021 0.399689 -3.44054e-20)
(0.46527 0.33584 -6.52829e-19)
(0.513206 0.314781 2.44409e-19)
(0.541374 0.319319 -2.52093e-20)
(0.553976 0.334427 -7.05532e-19)
(0.541349 0.345266 3.34481e-19)
(0.414585 0.271829 1.09272e-19)
(1.01519 0.740557 0)
(1.30833 1.04655 1.02745e-19)
(1.30359 1.03298 -1.34709e-19)
(1.23861 1.03736 -4.38783e-19)
(1.17625 1.02146 -1.60001e-19)
(1.10217 1.0056 1.44724e-19)
(1.01775 0.984775 -1.29452e-19)
(0.920989 0.957409 1.0613e-18)
(0.809228 0.919693 9.68026e-19)
(0.67847 0.862566 1.69607e-18)
(0.538304 0.774426 1.46034e-18)
(0.420619 0.653712 2.35781e-19)
(0.356635 0.512409 9.58974e-19)
(0.361416 0.378487 4.48613e-19)
(0.429767 0.290205 4.42957e-19)
(0.518667 0.271886 -1.5494e-19)
(0.583276 0.301592 -2.00062e-19)
(0.60254 0.345235 2.3526e-19)
(0.583218 0.375823 -1.21735e-19)
(0.464657 0.318423 2.64833e-19)
(1.01439 0.772146 -5.49135e-20)
(1.30302 1.08809 -1.72188e-19)
(1.29824 1.07433 -6.70206e-20)
(1.23199 1.07819 1.91597e-20)
(1.16893 1.0617 4.8069e-19)
(1.0939 1.04543 -3.24521e-19)
(1.00826 1.02446 1.35075e-19)
(0.909753 0.997494 -1.34785e-20)
(0.794988 0.961131 -1.16464e-18)
(0.658239 0.906583 -1.82552e-18)
(0.505825 0.820035 1.10349e-19)
(0.368049 0.692401 0)
(0.282503 0.525064 0)
(0.280298 0.343359 -2.87609e-19)
(0.381875 0.206566 -5.26629e-19)
(0.535115 0.175112 2.32425e-19)
(0.623316 0.210641 6.08603e-20)
(0.667746 0.289579 0)
(0.641066 0.358369 3.59037e-19)
(0.509601 0.321618 -1.92451e-19)
(1.01333 0.802135 4.15557e-20)
(1.2976 1.12742 -3.00604e-20)
(1.29286 1.11351 1.2613e-19)
(1.22539 1.11682 2.13864e-19)
(1.16179 1.09971 1.54207e-19)
(1.08599 1.08301 -9.08674e-20)
(0.999417 1.06195 0)
(0.89954 1.03555 -1.36015e-18)
(0.782254 1.00097 1.32791e-19)
(0.640029 0.950365 0)
(0.474941 0.86908 0)
(0.311198 0.740427 1.33166e-19)
(0.187561 0.548669 9.351e-20)
(0.165808 0.301267 -2.85329e-19)
(0.319167 0.0873636 3.23165e-19)
(0.59659 0.0553599 3.37831e-20)
(0.798994 0.188911 -9.60503e-20)
(0.830604 0.365255 4.44023e-20)
(0.794008 0.464415 -6.57918e-20)
(0.690635 0.478078 4.74231e-20)
(1.01174 0.830937 -4.12787e-21)
(1.29211 1.16479 0)
(1.28742 1.15055 0)
(1.21883 1.15325 8.31522e-20)
(1.15493 1.13551 -6.71915e-20)
(1.07855 1.11843 -2.22027e-20)
(0.991336 1.09737 5.57684e-19)
(0.890456 1.07172 1.48521e-18)
(0.771193 1.03927 2.19177e-18)
(0.624387 0.993438 -1.36895e-19)
(0.448605 0.919819 2.64154e-19)
(0.264409 0.79441 -1.41702e-18)
(0.113009 0.576609 -1.19319e-18)
(0.0436481 0.226959 -1.5465e-19)
(0.152011 -0.14462 0)
(0.445276 -0.0837923 9.19773e-20)
(0.711288 0.236888 -2.29404e-19)
(0.788314 0.498039 -4.4909e-20)
(0.749279 0.534806 5.7659e-20)
(0.623715 0.478156 1.19575e-19)
(1.00984 0.858846 -3.75607e-21)
(1.28661 1.20011 5.53532e-21)
(1.28179 1.18571 8.07277e-21)
(1.21237 1.18786 -5.41861e-20)
(1.14827 1.1696 0)
(1.07139 1.15226 -6.6971e-19)
(0.983701 1.13136 -7.54386e-19)
(0.882059 1.10665 4.96923e-20)
(0.761255 1.0767 -1.16771e-18)
(0.610451 1.03658 -1.37428e-19)
(0.423026 0.974333 1.27554e-19)
(0.202101 0.864591 1.23981e-18)
(-0.0595601 0.650115 1.15437e-18)
(-0.343368 0.331012 1.50044e-19)
(-0.37226 0.284835 -1.85185e-19)
(-0.0629248 0.693005 0)
(0.367712 0.89617 0)
(0.318231 1.18951 -8.45212e-20)
(0.172185 1.62015 8.64648e-20)
(0.0416871 2.19719 -5.04594e-19)
(1.00779 0.884937 8.72329e-21)
(1.28097 1.23332 -9.30553e-20)
(1.276 1.21914 2.83079e-19)
(1.20596 1.22092 -3.06955e-19)
(1.14164 1.20227 8.99344e-20)
(1.06439 1.18486 -7.22691e-19)
(0.976434 1.16432 0)
(0.874381 1.14086 -1.29154e-18)
(0.752692 1.11393 0)
(0.59922 1.08084 2.11869e-18)
(0.403754 1.03448 -1.42018e-19)
(0.16329 0.957384 1.59094e-19)
(-0.125256 0.823624 1.43588e-18)
(-0.45873 0.711522 -8.75331e-20)
(-0.739647 0.933999 2.89666e-19)
(-0.606083 1.643 0)
(-0.0618002 2.38936 0)
(0.0294309 2.76121 0)
(0.0408229 3.0441 6.51121e-20)
(0.0684753 3.17669 -3.06113e-20)
(1.00558 0.909596 0)
(1.27517 1.26454 0)
(1.27014 1.25076 -9.14833e-20)
(1.19957 1.25224 2.70074e-19)
(1.13511 1.23336 -2.99545e-19)
(1.05774 1.21604 6.81069e-19)
(0.969775 1.19604 9.32363e-20)
(0.867708 1.17406 -7.25894e-20)
(0.745891 1.15052 1.61933e-19)
(0.591481 1.12533 -2.4346e-18)
(0.39228 1.09752 2.77505e-19)
(0.140438 1.06151 1.34481e-18)
(-0.180636 1.01874 -1.47597e-18)
(-0.577024 1.07755 -1.02828e-18)
(-0.885287 1.50734 1.97567e-19)
(-0.792037 2.26129 0)
(-0.379429 2.86187 -2.59466e-19)
(-0.239849 3.10972 -3.02622e-19)
(-0.188202 3.21578 3.33742e-19)
(-0.132916 3.2264 -1.02577e-19)
(1.00318 0.932929 0)
(1.26941 1.29404 6.06427e-21)
(1.26447 1.28075 2.71508e-20)
(1.1934 1.282 -2.54712e-19)
(1.12888 1.26306 3.14442e-19)
(1.05152 1.24599 0)
(0.96367 1.22665 0)
(0.861915 1.20624 0)
(0.740688 1.18622 1.03953e-18)
(0.587052 1.16935 1.24833e-19)
(0.388675 1.16113 0)
(0.138168 1.1691 -1.3577e-18)
(-0.178838 1.21803 0)
(-0.559054 1.39721 8.03616e-19)
(-0.851016 1.85652 -5.47882e-19)
(-0.764059 2.53672 -2.01445e-19)
(-0.395969 2.95027 2.35414e-19)
(-0.258987 3.08854 1.31419e-19)
(-0.188266 3.17735 2.34053e-19)
(-0.098473 3.15741 -1.96945e-19)
(1.00053 0.954867 -3.19551e-20)
(1.26381 1.32195 2.25554e-20)
(1.25897 1.30925 2.42085e-20)
(1.18728 1.31031 2.25123e-19)
(1.12275 1.29137 0)
(1.04547 1.27458 0)
(0.957903 1.2559 0)
(0.856819 1.23708 9.0254e-20)
(0.736841 1.22063 -1.30283e-18)
(0.585655 1.21192 0)
(0.393219 1.22192 0)
(0.158711 1.26523 0)
(-0.118604 1.37012 0)
(-0.420594 1.59757 7.6801e-19)
(-0.632065 2.02909 1.09546e-18)
(-0.574168 2.62578 5.11571e-20)
(-0.348339 2.93514 -3.9641e-20)
(-0.21593 3.00984 1.02804e-20)
(-0.172742 3.06635 -8.00705e-20)
(-0.126582 3.08068 0)
(0.997426 0.975982 3.88451e-20)
(1.258 1.34902 -8.00153e-20)
(1.25324 1.33697 9.90874e-21)
(1.18096 1.33784 1.56171e-20)
(1.11661 1.3189 -8.30336e-20)
(1.03957 1.30239 7.69865e-19)
(0.952466 1.2844 -7.05096e-20)
(0.852301 1.26718 -1.25971e-18)
(0.734123 1.25416 0)
(0.586888 1.25297 -1.43219e-19)
(0.403723 1.27908 1.30172e-19)
(0.189321 1.35202 0)
(-0.0520084 1.50333 0)
(-0.299151 1.78119 -9.34814e-19)
(-0.454901 2.18538 2.42276e-19)
(-0.415574 2.62377 -1.29892e-19)
(-0.268338 2.83047 2.18699e-19)
(-0.161789 2.87732 -6.43184e-20)
(-0.137606 2.96146 2.59515e-19)
(-0.109682 3.00473 -1.58466e-19)
(0.993708 0.997786 9.44312e-20)
(1.2516 1.377 1.19622e-19)
(1.24705 1.36552 -2.77588e-20)
(1.17427 1.36618 0)
(1.11024 1.34708 0)
(1.03346 1.33069 -5.86654e-19)
(0.946918 1.31323 5.92854e-19)
(0.847982 1.29737 1.13538e-18)
(0.732336 1.28737 6.34997e-20)
(0.590606 1.29275 2.02047e-18)
(0.419926 1.33209 -2.10259e-18)
(0.232114 1.42576 0)
(0.0411518 1.59549 0)
(-0.126814 1.8616 -7.2561e-19)
(-0.20471 2.18224 -6.68203e-19)
(-0.158353 2.49901 0)
(-0.0572321 2.72751 -1.30296e-19)
(0.00430033 2.8467 1.7208e-19)
(0.017452 2.94321 -3.9251e-19)
(0.0421009 2.99354 1.91086e-19)
(0.989184 1.02085 -1.926e-19)
(1.24436 1.40686 -6.73261e-20)
(1.24004 1.39568 0)
(1.16677 1.39594 0)
(1.10312 1.37639 0)
(1.02672 1.35986 0)
(0.941052 1.34269 -6.49334e-19)
(0.84385 1.32787 1.16315e-18)
(0.731481 1.32032 0)
(0.596468 1.33094 -1.84722e-18)
(0.440118 1.37983 3.82092e-18)
(0.280689 1.48523 1.47513e-19)
(0.137046 1.65782 1.61231e-19)
(0.0306297 1.90702 1.21398e-18)
(-0.00172886 2.19231 -6.00496e-19)
(0.0265525 2.46967 0)
(0.0591553 2.70634 5.21977e-20)
(0.0913242 2.84696 6.25747e-20)
(0.0512039 2.97668 2.49666e-19)
(-0.0467742 3.01079 -2.48005e-19)
(0.983482 1.04513 9.75477e-20)
(1.23583 1.43855 -1.09899e-19)
(1.23183 1.42742 0)
(1.15822 1.42712 3.79515e-20)
(1.0952 1.40692 -1.96804e-19)
(1.01942 1.39006 0)
(0.934936 1.37289 0)
(0.839779 1.35866 -2.0885e-18)
(0.731103 1.35282 -1.36574e-19)
(0.60353 1.3672 1.92526e-18)
(0.462605 1.42227 -1.84491e-18)
(0.329938 1.53391 9.87553e-19)
(0.223975 1.70416 0)
(0.159035 1.94104 -6.73088e-19)