/*--------------------------------*- C++ -*----------------------------------*\
| =========                 |                                                 |
| \\      /  F ield         | OpenFOAM: The Open Source CFD Toolbox           |
|  \\    /   O peration     | Version:  4.0                                   |
|   \\  /    A nd           | Web:      www.OpenFOAM.org                      |
|    \\/     M anipulation  |                                                 |
\*---------------------------------------------------------------------------*/
FoamFile
{
    version     2.0;
    format      ascii;
    class       surfaceScalarField;
    location    "34";
    object      phi;
}
// * * * * * * * * * * * * * * * * * * * * * * * * * * * * * * * * * * * * * //

dimensions      [0 3 -1 0 0 0 0];

internalField   nonuniform List<scalar> 
4262
(
0.107138
0.47085
0.0955773
0.705147
0.0693882
0.858492
0.0473813
1.02077
0.0310292
1.21487
0.0198243
1.44942
0.0123784
1.73331
0.00718493
2.07623
0.00330608
2.48912
-0.000235685
2.98583
-0.00378818
2.98584
-0.00769368
2.48915
-0.0128822
2.07622
-0.0201243
1.73311
-0.0311014
1.4492
-0.0472746
1.21469
-0.0691438
1.02063
-0.0953659
0.858525
-0.107109
0.705329
0.470879
0.112891
0.357959
0.135301
0.682737
0.120393
0.8734
0.0977898
1.04337
0.0744559
1.2382
0.0527997
1.47108
0.0346
1.75151
0.0204532
2.09038
0.00908054
2.5005
-0.00106731
2.99598
-0.011244
2.99602
-0.0223922
2.5003
-0.0362318
2.09006
-0.0542501
1.75112
-0.0759707
1.47092
-0.0995434
1.23826
-0.12244
1.04353
-0.136497
0.872582
-0.113396
0.682227
0.357484
0.0921145
0.265844
0.125126
0.649726
0.12137
0.877155
0.105231
1.05951
0.0866273
1.25681
0.0674334
1.49027
0.0484646
1.77048
0.0304703
2.10837
0.0141225
2.51684
-0.00164999
3.01175
-0.0171891
3.01156
-0.0331981
2.51631
-0.0508843
2.10775
-0.0697009
1.76994
-0.0883726
1.48959
-0.105987
1.25588
-0.120766
1.05831
-0.125445
0.877262
-0.0923791
0.649161
0.265105
0.0640105
0.201834
0.104861
0.608876
0.10662
0.875396
0.0952969
1.07084
0.0815683
1.27054
0.0670013
1.50484
0.0507828
1.7867
0.0335493
2.1256
0.0158679
2.53452
-0.0026735
3.0303
-0.0209826
3.02987
-0.0381867
2.53351
-0.0548229
2.12439
-0.0701889
1.78531
-0.0840258
1.50343
-0.0975963
1.26945
-0.109111
1.06982
-0.106368
0.874519
-0.0645973
0.607391
0.200507
0.0374683
0.164365
0.0807867
0.565557
0.0911938
0.864989
0.0840405
1.07799
0.0715546
1.28302
0.0598408
1.51656
0.0470443
1.79949
0.0323504
2.1403
0.0156401
2.55123
-0.00339916
3.04934
-0.0222393
3.04871
-0.0385273
2.5498
-0.0525388
2.1384
-0.0647464
1.79751
-0.0759966
1.51468
-0.0878676
1.28132
-0.0942362
1.07619
-0.0827424
0.863025
-0.0381873
0.562836
0.16232
0.0195576
0.144808
0.0574515
0.527664
0.0729823
0.849458
0.0708968
1.08007
0.0620293
1.29189
0.0511042
1.52748
0.0399872
1.81061
0.02765
2.15264
0.0128887
2.566
-0.00456813
3.06679
-0.0216499
3.06579
-0.0354799
2.56363
-0.04673
2.14965
-0.0569247
1.80771
-0.0669847
1.52474
-0.0749647
1.2893
-0.0761519
1.07738
-0.0594094
0.846282
-0.020206
0.523632
0.142114
0.0106345
0.134173
0.0423131
0.495985
0.0584286
0.833343
0.058788
1.07972
0.0526716
1.298
0.0433833
1.53677
0.0333817
1.82061
0.0224448
2.16357
0.00984158
2.5786
-0.00557249
3.08221
-0.0206641
3.08088
-0.0324363
2.5754
-0.0424373
2.15965
-0.0511635
1.81644
-0.059402
1.53297
-0.0644047
1.2943
-0.0627957
1.07577
-0.0449304
0.828417
-0.0114325
0.490135
0.130681
0.00653099
0.127642
0.0329281
0.469588
0.0493054
0.816965
0.0510563
1.07796
0.046246
1.30282
0.0380977
1.54492
0.0285984
1.83011
0.0179416
2.17423
0.00618371
2.59036
-0.00741164
3.0958
-0.0204179
3.09389
-0.0309888
2.58597
-0.0400916
2.16875
-0.0480474
1.82439
-0.0547356
1.53966
-0.057983
1.29755
-0.0546113
1.0724
-0.0361496
0.809955
-0.00754629
0.461531
0.123135
0.00476736
0.122875
0.0266588
0.447696
0.0425669
0.801057
0.0449923
1.07554
0.040875
1.30693
0.0338236
1.55197
0.0251751
1.83876
0.0150528
2.18435
0.00365537
2.60175
-0.00878938
3.10825
-0.0205874
3.10569
-0.0305448
2.59593
-0.0389651
2.17717
-0.0460565
1.83148
-0.0515371
1.54514
-0.0539627
1.29997
-0.0493537
1.06779
-0.0305678
0.791169
-0.00595868
0.436922
0.117176
0.00370568
0.119169
0.0214613
0.429941
0.036688
0.785831
0.0397091
1.07252
0.035824
1.31082
0.0290658
1.55873
0.0208572
1.84697
0.0111459
2.19406
0.000211786
2.61269
-0.0114715
3.11993
-0.0224476
3.11666
-0.0314809
2.60496
-0.0390025
2.18469
-0.0446278
1.83711
-0.0488853
1.5494
-0.0503581
1.30145
-0.0446835
1.06211
-0.0261365
0.772622
-0.00518194
0.415968
0.111995
0.00277054
0.116399
0.0166136
0.416098
0.0302302
0.772214
0.0334073
1.06934
0.029887
1.31434
0.0236568
1.56496
0.0161084
1.85452
0.0072096
2.20296
-0.00284565
2.62274
-0.0136598
3.13074
-0.0235687
3.12657
-0.0315399
2.61293
-0.0377551
2.19091
-0.0428384
1.84219
-0.0466097
1.55317
-0.0474166
1.30225
-0.0406464
1.05534
-0.0224614
0.754438
-0.00461751
0.398124
0.107377
0.00200893
0.11439
0.0124799
0.405627
0.0244942
0.7602
0.0277002
1.06613
0.0242297
1.31781
0.0181101
1.57108
0.0108344
1.86179
0.00260906
2.21119
-0.00675571
2.63211
-0.0172931
3.14128
-0.0265264
3.13581
-0.0331839
2.61959
-0.0380595
2.19578
-0.0418395
1.84597
-0.0445961
1.55593
-0.0443385
1.302
-0.0367115
1.04772
-0.0194469
0.737173
-0.00419721
0.382874
0.10318
0.00132176
0.113068
0.00902871
0.39792
0.0191156
0.750113
0.0216605
1.06359
0.0180716
1.3214
0.0119926
1.57716
0.00501765
1.86877
-0.00269118
2.2189
-0.0114527
2.64087
-0.0213594
3.15119
-0.0297667
3.14421
-0.0350552
2.62488
-0.0384667
2.1992
-0.0414278
1.84893
-0.0432701
1.55777
-0.0423899
1.30112
-0.0341578
1.03949
-0.0174738
0.720489
-0.00405133
0.369452
0.0991285
0.000577878
0.11249
0.00529591
0.393202
0.0129693
0.74244
0.0152608
1.0613
0.0116778
1.32498
0.00538326
1.58345
-0.00191141
1.87606
-0.0097179
2.2267
-0.0180025
2.64915
-0.0264933
3.15968
-0.0330872
3.15081
-0.0370771
2.62887
-0.039712
2.20183
-0.0419121
1.85113
-0.0425169
1.55838
-0.0405004
1.2991
-0.0314394
1.03042
-0.0156067
0.704656
-0.00390653
0.357751
0.095222
-0.000393572
0.112884
0.00121946
0.391589
0.0066471
0.737012
0.00767511
1.06027
0.00423444
1.32842
-0.00154469
1.58923
-0.00861354
1.88313
-0.0164979
2.23459
-0.0246086
2.65727
-0.0321114
3.16718
-0.0376317
3.15633
-0.0407773
2.63201
-0.0424805
2.20353
-0.0429971
1.85165
-0.0422214
1.5576
-0.038923
1.2958
-0.0291111
1.02061
-0.0139337
0.689479
-0.00361428
0.347432
0.0916077
-0.00143263
0.114316
-0.00233412
0.39249
0.000205748
0.734472
0.000569341
1.05991
-0.00331053
1.3323
-0.00930638
1.59523
-0.0165631
1.89039
-0.0245952
2.24262
-0.0329711
2.66564
-0.0403731
3.17458
-0.0449113
3.16087
-0.046587
2.63369
-0.0466841
2.20363
-0.0454291
1.85039
-0.0432451
1.55542
-0.0380527
1.29061
-0.0271803
1.00974
-0.0127715
0.67507
-0.00345035
0.338111
0.0881573
-0.00270964
0.117026
-0.00584744
0.395628
-0.00727485
0.735899
-0.00881989
1.06145
-0.0128408
1.33632
-0.018754
1.60114
-0.0259486
1.89758
-0.0341111
2.25078
-0.0423923
2.67392
-0.0493418
3.18153
-0.0529346
3.16446
-0.0532008
2.63396
-0.0512137
2.20164
-0.0484258
1.84761
-0.0446688
1.55166
-0.0382688
1.28421
-0.0267292
0.9982
-0.0126279
0.660969
-0.00352941
0.329012
0.0846279
-0.00387269
0.120899
-0.0103298
0.402085
-0.0147183
0.740288
-0.0182696
1.065
-0.0234888
1.34154
-0.0305087
1.60816
-0.0385686
1.90564
-0.0470083
2.25922
-0.0550245
2.68194
-0.0610606
3.18757
-0.0627747
3.16617
-0.0608901
2.63207
-0.0574829
2.19824
-0.0534026
1.84353
-0.0477261
1.54598
-0.0395308
1.27601
-0.0268645
0.985534
-0.0130027
0.647107
-0.00379675
0.319806
0.0808312
-0.00530114
0.1262
-0.0150532
0.411837
-0.0231738
0.748409
-0.0292277
1.07106
-0.0355528
1.34787
-0.0437207
1.61633
-0.0528358
1.91476
-0.0621682
2.26855
-0.0704519
2.69022
-0.0753958
3.19251
-0.0749274
3.1657
-0.0709964
2.62814
-0.0652318
2.19247
-0.0587883
1.83708
-0.0513797
1.53857
-0.0419674
1.2666
-0.0286512
0.972218
-0.0143496
0.632805
-0.00422483
0.309682
0.0766063
-0.00642037
0.13262
-0.0185401
0.423957
-0.0302949
0.760163
-0.039403
1.08016
-0.0482191
1.35668
-0.0583386
1.62645
-0.06911
1.92553
-0.0797333
2.27918
-0.0884017
2.69889
-0.0928618
3.19697
-0.0908886
3.16373
-0.0847209
2.62197
-0.0767404
2.18449
-0.068433
1.82877
-0.0593449
1.52949
-0.0478992
1.25515
-0.0325698
0.956888
-0.0167374
0.616973
-0.00496713
0.297911
0.0716392
-0.00864358
0.141264
-0.0247244
0.440038
-0.0406815
0.77612
-0.0529199
1.0924
-0.0637726
1.36753
-0.0760267
1.6387
-0.0888227
1.93832
-0.101028
2.29138
-0.11085
2.70871
-0.115213
3.20134
-0.11089
3.15941
-0.101998
2.61308
-0.09145
2.17394
-0.0804334
1.81776
-0.0689696
1.51802
-0.0556165
1.2418
-0.038411
0.939683
-0.0201474
0.598709
-0.00593116
0.283695
0.065708
-0.0108387
0.152103
-0.0308403
0.460039
-0.0511557
0.796436
-0.067466
1.10871
-0.0824076
1.38248
-0.098054
1.65435
-0.113451
1.95372
-0.127611
2.30554
-0.137602
2.7187
-0.140257
3.20399
-0.134156
3.15331
-0.123141
2.60207
-0.110193
2.161
-0.0973006
1.80487
-0.0836963
1.50442
-0.0670012
1.22511
-0.0457908
0.918472
-0.0239321
0.576851
-0.00698201
0.266745
0.058726
-0.0153516
0.167454
-0.0421365
0.486824
-0.0681235
0.822423
-0.0888253
1.12942
-0.106927
1.40058
-0.125638
1.67306
-0.144177
1.97226
-0.160201
2.32157
-0.171101
2.7296
-0.173349
3.20624
-0.1646
3.14456
-0.149781
2.58725
-0.133268
2.14448
-0.116399
1.788
-0.0989649
1.48698
-0.0784561
1.2046
-0.0537005
0.893717
-0.0281169
0.551267
-0.00801692
0.246645
0.0507091
-0.0191735
0.186628
-0.0538317
0.521483
-0.0880362
0.856627
-0.114737
1.15612
-0.138489
1.42433
-0.162176
1.69674
-0.183473
1.99356
-0.200932
2.33902
-0.21118
2.73985
-0.210109
3.20517
-0.197319
3.13177
-0.179757
2.56968
-0.160655
2.12538
-0.141069
1.76841
-0.120017
1.46593
-0.0943025
1.17888
-0.0635363
0.862951
-0.0325078
0.520238
-0.0089162
0.223053
0.0417929
-0.0325898
0.219217
-0.0794508
0.568344
-0.121898
0.899074
-0.155202
1.18942
-0.184443
1.45357
-0.210874
1.72318
-0.233811
2.01649
-0.251162
2.35638
-0.259914
2.7486
-0.256319
3.20157
-0.240452
3.1159
-0.218557
2.54779
-0.194262
2.10109
-0.168892
1.74304
-0.141756
1.4388
-0.110244
1.14737
-0.0741009
0.826807
-0.0378596
0.483997
-0.0100725
0.195266
0.0317204
-0.0469774
0.266195
-0.117423
0.638789
-0.175171
0.956822
-0.214776
1.22903
-0.248016
1.48681
-0.276517
1.75168
-0.298738
2.03872
-0.313384
2.37102
-0.317176
2.7524
-0.306511
3.19091
-0.282826
3.09222
-0.255388
2.52035
-0.227486
2.07318
-0.19915
1.71471
-0.167946
1.40759
-0.130225
1.10965
-0.086315
0.782897
-0.0415171
0.439199
-0.00990665
0.163656
0.0218138
-0.032789
0.298984
-0.0920444
0.698045
-0.145077
1.00985
-0.189264
1.27321
-0.230288
1.52783
-0.265525
1.78691
-0.299541
2.07273
-0.329901
2.40138
-0.352263
2.77476
-0.360681
3.19933
-0.351062
3.0826
-0.328244
2.49753
-0.294759
2.0397
-0.251614
1.67156
-0.202287
1.35827
-0.147654
1.05502
-0.0886493
0.723892
-0.036832
0.387382
-0.00808131
0.134905
0.0137325
-0.0112563
0.31024
-0.0425829
0.729371
-0.0805553
1.04783
-0.11679
1.30945
-0.152087
1.56313
-0.185685
1.82051
-0.217169
2.10421
-0.243769
2.42798
-0.261594
2.79258
-0.264057
3.20179
-0.246586
3.06513
-0.214749
2.4657
-0.176324
2.00127
-0.136939
1.63218
-0.0963332
1.31766
-0.0560223
1.01471
-0.0230573
0.690927
-0.00400862
0.368333
0.000447612
0.130449
0.0141801
0.0019756
0.308265
-0.019929
0.751276
-0.0475138
1.07541
-0.0758759
1.33781
-0.10454
1.5918
-0.133399
1.84937
-0.161077
2.13189
-0.184335
2.45124
-0.199224
2.80747
-0.199769
3.20233
-0.181435
3.04679
-0.152271
2.43653
-0.118976
1.96798
-0.0812057
1.59441
-0.0421225
1.27858
-0.00858071
0.981164
0.0116364
0.67071
0.0133575
0.366612
0.00518703
0.13862
0.0193671
0.00246555
0.305799
-0.00862984
0.762371
-0.0286859
1.09547
-0.052143
1.36127
-0.0762317
1.61588
-0.100746
1.87389
-0.124466
2.15561
-0.144298
2.47107
-0.156014
2.81919
-0.153243
3.19956
-0.133884
3.02743
-0.106544
2.40919
-0.0728266
1.93426
-0.0376908
1.55927
-0.00853713
1.24942
0.0122141
0.960413
0.021629
0.661295
0.017653
0.370588
0.00632711
0.149945
0.0256942
0.0046498
0.301149
-0.00341942
0.770441
-0.0205455
1.11259
-0.0398745
1.3806
-0.0600719
1.63608
-0.0810619
1.89488
-0.101605
2.17616
-0.119016
2.48848
-0.129409
2.82958
-0.12773
3.19788
-0.11124
3.01094
-0.0847829
2.38273
-0.0558654
1.90534
-0.0286096
1.53201
-0.00296441
1.22378
0.0161265
0.941322
0.0224905
0.654931
0.0165481
0.376531
0.00558419
0.160909
0.0312784
0.00566531
0.295484
0.000388574
0.775717
-0.0148278
1.12781
-0.0326625
1.39843
-0.0509181
1.65434
-0.0696025
1.91356
-0.0878899
2.19444
-0.103409
2.504
-0.112485
2.83866
-0.109382
3.19478
-0.0925134
2.99408
-0.0705234
2.36074
-0.0463654
1.88119
-0.0210722
1.50672
0.000411778
1.20229
0.0147197
0.927014
0.0195296
0.650121
0.013098
0.382962
0.00411844
0.169889
0.0353969
0.00381842
0.291665
-0.000155331
0.779691
-0.013162
1.14082
-0.0292138
1.41448
-0.0459943
1.67112
-0.0632167
1.93078
-0.0802188
2.21145
-0.0949918
2.51877
-0.104194
2.84786
-0.102445
3.19303
-0.0884408
2.98007
-0.0672356
2.33954
-0.0443145
1.85826
-0.0239745
1.48638
-0.00462783
1.18295
0.00851291
0.913873
0.0123021
0.646332
0.00885046
0.386414
0.00286175
0.175878
0.0382586
0.00251519
0.28915
-0.000894384
0.783101
-0.0127863
1.15271
-0.0278703
1.42957
-0.0438258
1.68707
-0.0601229
1.94708
-0.0762965
2.22762
-0.0905392
2.53302
-0.0993292
2.85665
-0.0986631
3.19237
-0.0860181
2.96743
-0.0678867
2.32141
-0.0477774
1.83815
-0.0268351
1.46544
-0.0114044
1.16752
-0.000286393
0.902755
0.00430439
0.641741
0.00236873
0.38835
0.000921771
0.177324
0.0391804
-0.000175136
0.289325
-0.00378274
0.786708
-0.0142862
1.16321
-0.0278347
1.44311
-0.0430308
1.70227
-0.0588658
1.96291
-0.074801
2.24355
-0.0892927
2.54751
-0.0996359
2.86699
-0.10131
3.19404
-0.0896177
2.95574
-0.0717323
2.30352
-0.0526589
1.81908
-0.0367108
1.44949
-0.0219143
1.15272
-0.0115727
0.892414
-0.00602146
0.63619
-0.00321188
0.38554
-0.00093343
0.175046
0.0382469
-0.000707897
0.290033
-0.00574847
0.791749
-0.0157815
1.17325
-0.0285636
1.4559
-0.0432094
1.71691
-0.0586055
1.97831
-0.074288
2.25924
-0.088737
2.56196
-0.098858
2.87711
-0.0996832
3.19486
-0.0903626
2.94641
-0.0753535
2.28851
-0.05959
1.80332
-0.0432636
1.43316
-0.0293131
1.13877
-0.0180059
0.881106
-0.0103735
0.628558
-0.00624357
0.38141
-0.00185836
0.170661
0.0363886
-0.00264227
0.292676
-0.00803903
0.797146
-0.0174858
1.18269
-0.0295465
1.46796
-0.0435383
1.73091
-0.0586791
1.99345
-0.0745593
2.27512
-0.0899396
2.57734
-0.102652
2.88983
-0.108972
3.20118
-0.102531
2.93997
-0.0866951
2.27268
-0.0673842
1.78401
-0.0515767
1.41736
-0.0370824
1.12427
-0.0258301
0.869854
-0.0169852
0.619713
-0.00830342
0.372728
-0.00250618
0.164864
0.0338824
-0.00391371
0.296589
-0.00952066
0.802753
-0.0188253
1.192
-0.0305747
1.47971
-0.0441369
1.74447
-0.0590018
2.00832
-0.0749986
2.29111
-0.0908133
2.59315
-0.103468
2.90248
-0.108743
3.20646
-0.102751
2.93398
-0.0905205
2.26045
-0.0760262
1.76951
-0.0581221
1.39945
-0.0438804
1.11003
-0.0306304
0.856604
-0.0194505
0.608533
-0.010467
0.363745
-0.00305405
0.157451
0.0308284
-0.00441241
0.301002
-0.010789
0.809129
-0.0199747
1.20118
-0.0313074
1.49104
-0.044452
1.75761
-0.0591292
2.02299
-0.0752243
2.30721
-0.0915865
2.60951
-0.106764
2.91766
-0.11799
3.21769
-0.116274
2.93226
-0.102267
2.24644
-0.0822893
1.74954
-0.0656368
1.3828
-0.0493634
1.09376
-0.03627
0.843511
-0.0241402
0.596403
-0.0112495
0.350854
-0.00312602
0.149327
0.0277023
-0.00449097
0.305493
-0.0114068
0.816045
-0.0206983
1.21047
-0.0318553
1.5022
-0.044695
1.77045
-0.059087
2.03739
-0.0752135
2.32334
-0.0923178
2.62662
-0.108476
2.93382
-0.118845
3.22805
-0.118354
2.93177
-0.109425
2.23751
-0.0945142
1.73462
-0.0732485
1.36153
-0.0553787
1.07589
-0.0387899
0.826922
-0.0241064
0.58172
-0.0119241
0.338672
-0.00302121
0.140424
0.0246811
-0.00454846
0.310041
-0.0118766
0.823373
-0.0210388
1.21964
-0.031907
1.51307
-0.0444822
1.78303
-0.0587296
2.05163
-0.0749454
2.33955
-0.0925488
2.64422
-0.110191
2.95146
-0.125636
3.2435
-0.131087
2.93722
-0.120651
2.22708
-0.100595
1.71457
-0.0808614
1.3418
-0.0591633
1.05419
-0.0419677
0.809726
-0.0269718
0.566724
-0.0115799
0.32328
-0.00261581
0.13146
0.0220653
-0.00459033
0.314631
-0.0120297
0.830812
-0.0211041
1.22871
-0.0317949
1.52376
-0.0441161
1.79535
-0.0581157
2.06563
-0.0742863
2.35572
-0.0923199
2.66226
-0.111113
2.97025
-0.127004
3.25939
-0.132419
2.94264
-0.126946
2.2216
-0.113067
1.70069
-0.0886496
1.31738
-0.0642552
1.0298
-0.0402981
0.785769
-0.0211728
0.547598
-0.0092729
0.31138
-0.00179694
0.123984
0.0202684
-0.00462892
0.31926
-0.0120657
0.838249
-0.0208405
1.23749
-0.0312037
1.53412
-0.0432667
1.80741
-0.05711
2.07948
-0.0732638
2.37188
-0.0915713
2.68056
-0.111397
2.99008
-0.130905
3.2789
-0.143061
2.9548
-0.138634
2.21718
-0.120252
1.6823
-0.0969587
1.29409
-0.0669343
0.999772
-0.0399557
0.758791
-0.017815
0.525458
-0.00448198
0.298047
-0.00216606
0.121668
0.0181023
-0.00458082
0.323841
-0.011893
0.845561
-0.0204585
1.24605
-0.0305556
1.54422
-0.0422958
1.81915
-0.0558413
2.09302
-0.0718428
2.38788
-0.0903835
2.6991
-0.111007
3.0107
-0.131423
3.29931
-0.143143
2.96652
-0.143977
2.21801
-0.133847
1.67218
-0.107265
1.26751
-0.0731838
0.965691
-0.0316339
0.717241
0.00695484
0.486869
0.026103
0.278899
0.0223505
0.125421
0.0404528
-0.00445308
0.328294
-0.0116038
0.852712
-0.0198223
1.25427
-0.0295233
1.55392
-0.0409174
1.83055
-0.0542259
2.10633
-0.0700908
2.40374
-0.088665
2.71768
-0.109815
3.03185
-0.132442
3.32194
-0.149662
2.98374
-0.154821
2.22317
-0.141995
1.65935
-0.118319
1.24383
-0.0778722
0.925244
-0.0317368
0.671105
0.0197877
0.435345
0.0382779
0.260409
0.0167197
0.146979
0.0571725
-0.00424561
0.33254
-0.0111889
0.859655
-0.0191541
1.26223
-0.0285124
1.56328
-0.0395365
1.84157
-0.0524655
2.11926
-0.0680614
2.41934
-0.0866185
2.73624
-0.108358
3.05359
-0.132461
3.34604
-0.150497
3.00177
-0.158411
2.23108
-0.15659
1.65753
-0.134177
1.22142
-0.0943174
0.885385
-0.0249796
0.601768
0.0781451
0.33222
0.172259
0.166295
0.175699
0.143539
0.232871
-0.00408226
0.336622
-0.0109075
0.866481
-0.0187337
1.27006
-0.0280205
1.57256
-0.0392087
1.85276
-0.0526157
2.13267
-0.0691069
2.43583
-0.0892036
2.75633
-0.113528
3.07792
-0.141621
3.37414
-0.1668
3.02695
-0.182551
2.24683
-0.181189
1.65617
-0.164807
1.20504
-0.123067
0.843645
-0.0757073
0.554408
-0.103899
0.360412
-0.362548
0.424944
-0.931127
0.712118
0.895672
-1.59393
-0.00387926
0.340501
-0.010496
0.873097
-0.0181574
1.27772
-0.0272969
1.5817
-0.0383387
1.8638
-0.0517659
2.14609
-0.06859
2.45265
-0.0895651
2.77731
-0.11572
3.10407
-0.148085
3.4065
-0.178724
3.05759
-0.198624
2.26673
-0.215784
1.67333
-0.214737
1.20399
-0.203926
0.832834
-0.284295
0.634776
-0.690026
0.766143
-1.419
1.15392
-2.03157
1.32469
1.21914
-2.35504
-0.00366599
0.344167
-0.00999631
0.879428
-0.0173553
1.28508
-0.026239
1.59059
-0.037141
1.8747
-0.0506569
2.15961
-0.0678327
2.46983
-0.0896598
2.79913
-0.117616
3.13203
-0.152597
3.44148
-0.187619
3.09261
-0.219646
2.29876
-0.240195
1.69388
-0.245934
1.20973
-0.333698
0.920598
-0.748993
1.05007
-1.51819
1.53534
-2.0963
1.73202
-2.33914
1.56753
1.33493
-2.45492
-0.00344922
0.347617
-0.00944514
0.885423
-0.0165602
1.2922
-0.0252372
1.59926
-0.035929
1.88539
-0.0493901
2.17307
-0.066787
2.48723
-0.0893127
2.82166
-0.118786
3.1615
-0.158277
3.48098
-0.202365
3.1367
-0.238195
2.33459
-0.276701
1.73238
-0.36599
1.29902
-0.696382
1.25099
-1.41953
1.77321
-2.01595
2.13177
-2.25856
1.97463
-2.37352
1.68248
1.40087
-2.43946
-0.00318008
0.350797
-0.00877903
0.891022
-0.0155111
1.29893
-0.0238637
1.60761
-0.0344179
1.89595
-0.0478823
2.18653
-0.0654804
2.50482
-0.088682
2.84486
-0.119945
3.19276
-0.162319
3.52335
-0.209834
3.18421
-0.26022
2.38498
-0.312892
1.78505
-0.49107
1.4772
-1.08024
1.84016
-1.77094
2.46392
-2.10056
2.46139
-2.25207
2.12615
-2.33553
1.76594
1.46687
-2.40152
-0.00308202
0.353879
-0.00857614
0.896517
-0.0153245
1.30568
-0.0237509
1.61604
-0.0345136
1.90671
-0.0481793
2.2002
-0.0662228
2.52287
-0.0902612
2.8689
-0.122913
3.22541
-0.168942
3.56938
-0.226914
3.24218
-0.279942
2.43801
-0.374145
1.87926
-0.751047
1.8541
-1.47505
2.56416
-1.95779
2.94666
-2.16008
2.66368
-2.26764
2.2337
-2.34499
1.84329
1.53137
-2.4095
-0.00313939
0.357018
-0.00885456
0.902232
-0.0158933
1.31272
-0.0246967
1.62484
-0.0359833
1.918
-0.0503328
2.21455
-0.0692236
2.54176
-0.0944709
2.89415
-0.129279
3.26022
-0.17926
3.61936
-0.237842
3.30077
-0.30587
2.50603
-0.496763
2.07015
-1.03551
2.39284
-1.66462
3.19327
-1.94858
3.23062
-2.0977
2.81279
-2.21315
2.34916
-2.30739
1.93753
1.59421
-2.37023
-0.00314814
0.360166
-0.00914818
0.908232
-0.0166667
1.32023
-0.0260053
1.63418
-0.0377681
1.92976
-0.0526935
2.22947
-0.072396
2.56146
-0.0987995
2.92055
-0.135133
3.29656
-0.18744
3.67167
-0.254433
3.36776
-0.34717
2.59877
-0.621519
2.3445
-1.24827
3.01959
-1.74545
3.69045
-1.95564
3.44081
-2.09884
2.95599
-2.22484
2.47516
-2.33807
2.05076
1.65401
-2.39787
-0.00308957
0.363256
-0.00932201
0.914464
-0.0171919
1.3281
-0.0269727
1.64396
-0.0393196
1.94211
-0.0550033
2.24516
-0.0756096
2.58207
-0.103234
2.94817
-0.14161
3.33493
-0.197925
3.72798
-0.267395
3.43723
-0.391052
2.72243
-0.766124
2.71957
-1.39478
3.64825
-1.7578
4.05347
-1.93404
3.61706
-2.03937
3.06131
-2.1315
2.56729
-2.20182
2.12108
1.64789
-2.1957
-0.00296517
0.366221
-0.00945218
0.920951
-0.0178882
1.33654
-0.0282951
1.65437
-0.0411818
1.95499
-0.0574588
2.26144
-0.0788714
2.60348
-0.107638
2.97694
-0.147505
3.3748
-0.204325
3.7848
-0.285177
3.51808
-0.455586
2.89284
-0.894996
3.15898
-1.44965
4.20291
-1.71745
4.32127
-1.8753
3.77491
-1.97207
3.15809
-1.97716
2.57238
-1.91381
2.05773
1.62164
-1.88755
-0.00264704
0.368868
-0.00937597
0.92768
-0.0180837
1.34525
-0.0288389
1.66513
-0.0422192
1.96837
-0.0590072
2.27822
-0.0808471
2.62532
-0.109946
3.00604
-0.150206
3.41506
-0.207974
3.84257
-0.294661
3.60477
-0.493082
3.09126
-0.967235
3.63313
-1.41635
4.65202
-1.59064
4.49556
-1.66126
3.84553
-1.66872
3.16554
-1.52466
2.42832
-1.0276
1.56067
0.594037
-0.00225328
0.371121
-0.00911341
0.93454
-0.0184548
1.35459
-0.0300413
1.67671
-0.0443168
1.98265
-0.0622306
2.29614
-0.0857356
2.64882
-0.117345
3.03765
-0.161377
3.45909
-0.223621
3.90481
-0.326405
3.70755
-0.576358
3.34121
-1.10342
4.16019
-1.47044
5.01904
-1.573
4.59812
-1.57386
3.84638
-1.4752
3.06688
-1.23899
2.19211
-0.644182
0.965859
-0.0501455
-0.00177211
0.372893
-0.00846539
0.941233
-0.0179818
1.36411
-0.0300928
1.68882
-0.0453396
1.9979
-0.0646301
2.31543
-0.0899913
2.67419
-0.124096
3.07176
-0.171902
3.50689
-0.2421
3.97501
-0.363872
3.82933
-0.664588
3.64193
-1.21328
4.70888
-1.4873
5.29306
-1.55177
4.66259
-1.5343
3.82891
-1.33581
2.8684
-0.797338
1.65364
-0.115749
0.28427
-0.165895
-0.00106777
0.373961
-0.00743059
0.947596
-0.0174851
1.37416
-0.0304609
1.7018
-0.046459
2.0139
-0.0667654
2.33573
-0.093661
2.70108
-0.130266
3.10836
-0.181776
3.5584
-0.257339
4.05058
-0.4003
3.97229
-0.759311
4.00094
-1.29514
5.24471
-1.48126
5.47918
-1.511
4.69233
-1.42947
3.74739
-1.11535
2.55428
-0.327395
0.865683
0.0299987
-0.0731237
-0.135896
-0.000194417
0.374156
-0.00560946
0.953011
-0.0155747
1.38413
-0.0288995
1.71512
-0.0457098
2.03071
-0.067294
2.35732
-0.0959575
2.72974
-0.134691
3.14709
-0.188756
3.61247
-0.27389
4.13571
-0.443643
4.14204
-0.857408
4.4147
-1.33215
5.71945
-1.45626
5.60329
-1.46556
4.70164
-1.26015
3.54197
-0.711925
2.00605
-0.0679061
0.221664
0.0336211
-0.174651
-0.102275
0.00161748
0.372538
-0.00264469
0.957273
-0.0131962
1.39468
-0.0274769
1.72941
-0.0446759
2.0479
-0.0670063
2.37965
-0.0967385
2.75948
-0.137317
3.18767
-0.193679
3.66883
-0.28563
4.22766
-0.477082
4.33349
-0.940304
4.87792
-1.33049
6.10964
-1.40328
5.67608
-1.36722
4.66557
-1.08107
3.25583
-0.349218
1.2742
-0.0081858
-0.119369
0.0104479
-0.193285
-0.0918269
0.00347077
0.369067
0.00117168
0.959573
-0.00898397
1.40483
-0.0229583
1.74338
-0.0405483
2.06549
-0.063887
2.40299
-0.0948814
2.79047
-0.136643
3.22943
-0.195112
3.7273
-0.295223
4.32777
-0.511299
4.54957
-0.998139
5.36476
-1.28472
6.39622
-1.32543
5.7168
-1.21297
4.55311
-0.812887
2.85574
-0.0968992
0.558211
0.0433109
-0.259579
0.0248831
-0.174857
-0.0669438
0.00576805
0.363299
0.00493401
0.960407
-0.00410364
1.41387
-0.0180012
1.75728
-0.0355092
2.083
-0.0589539
2.42643
-0.0900777
2.8216
-0.132733
3.27209
-0.192655
3.78722
-0.297314
4.43243
-0.531443
4.7837
-1.00802
5.84134
-1.21347
6.60167
-1.23587
5.7392
-1.04115
4.35839
-0.496147
2.31074
-0.00218446
0.0642483
0.0148008
-0.276564
0.0164159
-0.176472
-0.0505279
0.00855041
0.354749
0.0105789
0.958378
0.00415452
1.42029
-0.00813515
1.76957
-0.0259227
2.10079
-0.0495574
2.45007
-0.0807226
2.85276
-0.12268
3.31405
-0.182597
3.84714
-0.291983
4.54182
-0.542166
5.03388
-0.982319
6.2815
-1.11577
6.73512
-1.09543
5.71886
-0.864048
4.12701
-0.31087
1.75756
-0.0711289
-0.175493
-0.0422758
-0.305417
-0.0120242
-0.206724
-0.062552
0.0127131
0.342036
0.0189342
0.952157
0.01435
1.42488
0.00323858
1.78068
-0.0144183
2.11845
-0.0365789
2.47223
-0.0660547
2.88224
-0.106911
3.3549
-0.165511
3.90574
-0.275402
4.65171
-0.522202
5.28068
-0.898712
6.65801
-0.982671
6.81908
-0.955349
5.69153
-0.700531
3.87219
-0.158227
1.21526
-0.0776509
-0.256069
-0.0469364
-0.336132
-0.0166797
-0.23698
-0.0792317
0.0177929
0.324243
0.0294896
0.94046
0.0287517
1.42562
0.0194225
1.79001
0.00387307
2.134
-0.016278
2.49238
-0.0440349
2.90999
-0.0817029
3.39257
-0.136019
3.96006
-0.241314
4.757
-0.468973
5.50834
-0.768308
6.95734
-0.829193
6.87997
-0.745773
5.60811
-0.450687
3.5771
-0.00791854
0.772487
0.0166572
-0.280645
0.0115221
-0.330997
0.0122141
-0.237672
-0.0670176
0.0245893
0.299653
0.0437801
0.921269
0.0472732
1.42212
0.0403018
1.79698
0.0282673
2.14603
0.0106682
2.50998
-0.0135504
2.93421
-0.0465912
3.42561
-0.0949092
4.00837
-0.18902
4.85111
-0.380113
5.69943
-0.580876
7.1581
-0.62967
6.92876
-0.557885
5.53633
-0.22637
3.24559
0.104002
0.442115
0.0523013
-0.228944
0.045325
-0.32402
0.0446776
-0.237025
-0.0223401
0.0323663
0.267287
0.0610754
0.89256
0.0719209
1.41128
0.0701497
1.79875
0.0617123
2.15447
0.0473044
2.52439
0.0276311
2.95389
0.000998839
3.45224
-0.038502
4.04788
-0.104295
4.9169
-0.242272
5.83741
-0.36748
7.28331
-0.444363
7.00565
-0.480985
5.57295
-0.39139
3.15599
-0.395822
0.446546
-0.394739
-0.230026
-0.244894
-0.473865
-0.074624
-0.407295
-0.0969641
0.0416458
0.225641
0.0831155
0.851091
0.10277
1.39162
0.106562
1.79496
0.103099
2.15793
0.0937424
2.53374
0.0815974
2.96603
0.063818
3.47002
0.037942
4.07375
0.00867156
4.94617
-0.045462
5.89154
-0.105518
7.34337
-0.181258
7.08139
-0.32395
5.71564
-0.503042
3.33508
-0.780303
0.723807
-0.775667
-0.234662
-0.567605
-0.681927
-0.265316
-0.709584
-0.36228
0.050734
0.174907
0.108489
0.793336
0.141354
1.35876
0.153606
1.78271
0.156824
2.15471
0.152913
2.53765
0.148402
2.97054
0.143138
3.47529
0.14036
4.07653
0.140578
4.94596
0.201121
5.831
0.26641
7.27808
0.264195
7.0836
0.195867
5.78397
-0.0800496
3.611
-0.555063
1.19882
-0.749085
-0.0406403
-0.656045
-0.774967
-0.3504
-1.01523
-0.71268
0.0550348
0.119873
0.135441
0.71293
0.186419
1.30778
0.210059
1.75907
0.221477
2.14329
0.225514
2.53362
0.231219
2.96484
0.239921
3.46659
0.261413
4.05504
0.307031
4.90034
0.492397
5.64564
0.804697
6.96578
1.08667
6.80162
1.35394
5.51671
1.17192
3.79301
0.591534
1.77921
0.115892
0.435002
-0.143953
-0.515122
-0.18849
-0.970692
-0.90117
0.0499759
0.0698966
0.161565
0.60134
0.239918
1.22943
0.279053
1.71993
0.300469
2.12188
0.312969
2.52112
0.328461
2.94934
0.352232
3.44281
0.401437
4.00583
0.507913
4.79386
0.828665
5.32488
1.45994
6.3345
1.87001
6.39156
2.18124
5.20548
2.12675
3.8475
1.64508
2.26089
1.17025
0.909828
0.634399
0.0207319
0.229584
-0.565877
-0.671586
0.0374983
0.0323984
0.18641
0.452428
0.295652
1.12019
0.357464
1.65812
0.391162
2.08818
0.416222
2.49606
0.439737
2.92583
0.477293
3.40526
0.549793
3.93333
0.699728
4.64393
1.09229
4.93232
1.83828
5.58851
2.24832
5.98152
2.48491
4.96889
2.48436
3.84804
2.06813
2.67712
1.51024
1.46772
0.95466
0.576311
0.426088
-0.037305
-0.245498
0.0292663
0.00313207
0.207298
0.274396
0.362765
0.964719
0.451305
1.56958
0.497506
2.04198
0.532552
2.46101
0.561893
2.89649
0.607559
3.35959
0.679981
3.86091
0.82681
4.4971
1.12738
4.63175
1.82551
4.89039
2.20691
5.60012
2.38347
4.79233
2.36417
3.86733
2.08596
2.95533
1.56434
1.98934
1.00163
1.13903
0.415613
0.548711
0.170115
0.0284987
-0.0253666
0.191407
0.111489
0.418359
0.737767
0.549381
1.43856
0.61433
1.97703
0.659725
2.41562
0.693656
2.86256
0.730438
3.32281
0.779921
3.81143
0.886392
4.39063
1.05368
4.46446
1.52531
4.41875
1.94629
5.17915
2.00359
4.73503
1.92352
3.9474
1.69784
3.18101
1.27922
2.40795
0.799307
1.61894
0.336251
1.01177
0.506365
0.0273084
-0.052675
0.130467
0.00832952
0.377772
0.490462
0.540742
1.27559
0.61207
1.9057
0.638556
2.38913
0.648895
2.85222
0.643336
3.32837
0.635788
3.81897
0.635081
4.39133
0.666494
4.43305
0.842841
4.2424
1.06956
4.95243
1.06489
4.7397
0.979333
4.03295
0.845415
3.31493
0.642899
2.61047
0.38808
1.87376
0.151885
1.24796
0.65825
0.0208898
-0.0735648
0.0698987
-0.0406794
0.221134
0.339227
0.35935
1.13737
0.437088
1.82796
0.470612
2.35561
0.489644
2.83319
0.495171
3.32284
0.492566
3.82158
0.48478
4.39912
0.481955
4.43587
0.583748
4.14061
0.749751
4.78642
0.752045
4.73741
0.671663
4.11333
0.564098
3.42249
0.423005
2.75156
0.248254
2.04851
0.0858528
1.41036
0.744103
0.0212746
-0.0948394
0.042528
-0.0619329
0.094732
0.287023
0.186666
1.04544
0.258631
1.756
0.304114
2.31012
0.336349
2.80095
0.35382
3.30537
0.359959
3.81544
0.359642
4.39944
0.345371
4.45014
0.393793
4.09219
0.504078
4.67614
0.503801
4.73769
0.441198
4.17594
0.354677
3.50902
0.251117
2.85512
0.131038
2.16859
0.0288623
1.51254
0.772965
0.0095516
-0.104391
-0.000968543
-0.0514127
-0.0142688
0.300323
0.0277639
1.00341
0.0866364
1.69713
0.143892
2.25287
0.193052
2.75179
0.22731
3.27111
0.250977
3.79177
0.259227
4.39119
0.241693
4.46768
0.258376
4.07551
0.324576
4.60994
0.31844
4.74382
0.269237
4.22514
0.202131
3.57612
0.127809
2.92945
0.0503291
2.24607
-0.01035
1.57322
0.762615
-0.0107702
-0.0936208
-0.0528344
-0.00934845
-0.097633
0.345122
-0.0989956
1.00477
-0.0511324
1.64926
0.0117595
2.18998
0.0696488
2.6939
0.122163
3.2186
0.158679
3.75526
0.170647
4.37922
0.158486
4.47984