/*--------------------------------*- C++ -*----------------------------------*\
| =========                 |                                                 |
| \\      /  F ield         | OpenFOAM: The Open Source CFD Toolbox           |
|  \\    /   O peration     | Version:  4.0                                   |
|   \\  /    A nd           | Web:      www.OpenFOAM.org                      |
|    \\/     M anipulation  |                                                 |
\*---------------------------------------------------------------------------*/
FoamFile
{
    version     2.0;
    format      ascii;
    class       surfaceScalarField;
    location    "21";
    object      phi;
}
// * * * * * * * * * * * * * * * * * * * * * * * * * * * * * * * * * * * * * //

dimensions      [0 3 -1 0 0 0 0];

internalField   nonuniform List<scalar> 
4262
(
0.10715
0.470838
0.0956024
0.705134
0.0694939
0.858411
0.0475874
1.02067
0.0312413
1.21486
0.0199736
1.44949
0.0124955
1.73334
0.00728391
2.07625
0.00341272
2.48911
-0.000214483
2.98592
-0.00383959
2.98592
-0.0076589
2.48906
-0.0128486
2.07623
-0.0202781
1.73329
-0.0314872
1.44943
-0.0478034
1.21483
-0.0696503
1.02061
-0.095684
0.858337
-0.10721
0.705112
0.470778
0.112756
0.358082
0.135143
0.682747
0.120212
0.873342
0.09772
1.04316
0.0747662
1.23782
0.0532615
1.47099
0.0347728
1.75183
0.0202636
2.09076
0.00881898
2.50056
-0.00073002
2.99547
-0.0103321
2.99552
-0.0216503
2.50038
-0.0360112
2.09059
-0.0543771
1.75166
-0.075745
1.4708
-0.0985227
1.23761
-0.120892
1.04298
-0.135631
0.873076
-0.112995
0.682477
0.357783
0.0918093
0.266273
0.12447
0.650086
0.120361
0.877452
0.103665
1.05986
0.0848482
1.25663
0.0658721
1.48997
0.0473636
1.77034
0.0299784
2.10814
0.0141063
2.51643
-0.00141687
3.01099
-0.0168546
3.01096
-0.032575
2.5161
-0.0496786
2.10769
-0.067758
1.76974
-0.0862846
1.48932
-0.104724
1.25605
-0.12109
1.05935
-0.125073
0.877058
-0.0921073
0.649511
0.265676
0.0636445
0.202628
0.104277
0.609454
0.105904
0.875824
0.0942233
1.07154
0.0795319
1.27132
0.0648629
1.50464
0.0491923
1.78601
0.0328501
2.12448
0.016106
2.53318
-0.00195802
3.02906
-0.0198033
3.0288
-0.0361275
2.53243
-0.0519075
2.12347
-0.0671428
1.78497
-0.0815635
1.50374
-0.0960532
1.27054
-0.10747
1.07076
-0.105328
0.874916
-0.0640837
0.608267
0.201592
0.0369839
0.165644
0.0796894
0.566748
0.0900797
0.865434
0.0833569
1.07826
0.0710912
1.28359
0.0588758
1.51685
0.0460759
1.79881
0.0317097
2.13885
0.0155962
2.54929
-0.00276675
3.04742
-0.0208169
3.04685
-0.0363222
2.54793
-0.050161
2.13731
-0.0625298
1.79734
-0.0741764
1.51539
-0.0858988
1.28226
-0.092052
1.07692
-0.0810079
0.863872
-0.0374677
0.564727
0.164124
0.0187521
0.146892
0.0548247
0.530676
0.0694888
0.850769
0.0679978
1.07975
0.0603332
1.29126
0.05017
1.52702
0.0393068
1.80967
0.0275312
2.15063
0.0134175
2.5634
-0.00354972
3.06439
-0.0202612
3.06356
-0.0338124
2.56148
-0.0448052
2.1483
-0.0547182
1.80726
-0.0641203
1.52479
-0.071058
1.2892
-0.0718059
1.07766
-0.0562507
0.848317
-0.019227
0.527703
0.144897
0.00972088
0.137171
0.0395086
0.500888
0.0542669
0.836011
0.0545082
1.07951
0.0492818
1.29648
0.0412679
1.53503
0.0321303
1.81881
0.0214309
2.16133
0.00932515
2.57551
-0.00443261
3.07814
-0.0178921
3.07702
-0.0293332
2.57292
-0.0389689
2.15794
-0.0470847
1.81537
-0.0542541
1.53196
-0.0585848
1.29353
-0.0574318
1.07651
-0.0414594
0.832344
-0.0103335
0.496577
0.134564
0.00562244
0.131549
0.0302795
0.476231
0.045235
0.821056
0.0462022
1.07854
0.0415776
1.30111
0.034431
1.54218
0.0259797
1.82726
0.0163248
2.17098
0.00582287
2.58601
-0.00557248
3.08954
-0.0164657
3.08792
-0.0259091
2.58237
-0.0342501
2.16628
-0.041575
1.8227
-0.0475812
1.53797
-0.0511221
1.29707
-0.0489939
1.07438
-0.0325255
0.815876
-0.00634978
0.470401
0.128214
0.0031163
0.128433
0.0211915
0.458155
0.0351214
0.807126
0.0370981
1.07657
0.0333438
1.30486
0.027467
1.54805
0.0203482
1.83438
0.0122249
2.1791
0.00320838
2.59503
-0.00701004
3.09976
-0.0166902
3.0976
-0.0245249
2.5902
-0.0315653
2.17332
-0.0368582
1.82799
-0.0411842
1.54229
-0.0434686
1.29936
-0.0398348
1.07075
-0.0238679
0.799909
-0.0040148
0.450548
0.124199
0.000934201
0.127498
0.0113206
0.447769
0.0225319
0.795914
0.0253918
1.07371
0.023073
1.30718
0.0188335
1.55229
0.0139667
1.83925
0.00779658
2.18527
0.00011282
2.60271
-0.0091932
3.10906
-0.0177858
3.10619
-0.0235201
2.59594
-0.027261
2.17706
-0.0303079
1.83104
-0.0327316
1.54472
-0.0330231
1.29965
-0.0280135
1.06574
-0.0145316
0.786427
-0.00205405
0.438071
0.122145
-0.00030572
0.127804
0.00436279
0.443101
0.0120173
0.78826
0.0148073
1.07092
0.0136367
1.30835
0.0106399
1.55529
0.00701219
1.84287
0.0024988
2.18979
-0.00342136
2.60863
-0.0109326
3.11657
-0.0175477
3.1128
-0.0214453
2.59983
-0.0235571
2.17917
-0.0250995
1.83258
-0.0254421
1.54506
-0.0241594
1.29836
-0.0186646
1.06024
-0.00818437
0.775947
-0.00104059
0.430927
0.121104
-0.000543585
0.128348
0.000935716
0.441621
0.0058371
0.783359
0.0083947
1.06836
0.00789995
1.30884
0.00582392
1.55737
0.00233896
1.84636
-0.0021697
2.1943
-0.00775918
2.61422
-0.0139943
3.12281
-0.0190336
3.11784
-0.0221799
2.60298
-0.0238568
2.18085
-0.0235835
1.83231
-0.0222364
1.54371
-0.0197404
1.29587
-0.0142411
1.05474
-0.00592398
0.76763
-0.00109344
0.426096
0.120011
-0.000857463
0.129205
-0.0010326
0.441796
0.00193093
0.780395
0.00376155
1.06653
0.0038605
1.30875
0.0026662
1.55856
-0.000274074
1.8493
-0.00495825
2.19898
-0.0109538
2.62022
-0.0174831
3.12934
-0.0225609
3.12292
-0.0253075
2.60573
-0.0256926
2.18123
-0.0244015
1.83101
-0.0224351
1.54175
-0.0187103
1.29214
-0.0127411
1.04878
-0.00547372
0.760363
-0.00137706
0.422
0.118634
-0.00144672
0.130652
-0.00280929
0.443159
-0.00143884
0.779025
0.000423336
1.06467
0.000913485
1.30826
-0.000359148
1.55983
-0.00358905
1.85253
-0.00855501
2.20395
-0.0149935
2.62665
-0.0220109
3.13636
-0.0272888
3.1282
-0.0295187
2.60796
-0.0290813
2.1808
-0.0269753
1.82891
-0.0232652
1.53804
-0.0178053
1.28668
-0.0111827
1.04215
-0.00472966
0.75391
-0.00125799
0.418528
0.117376
-0.00202504
0.132677
-0.00468947
0.445823
-0.00522796
0.779563
-0.00380348
1.06324
-0.00299407
1.30745
-0.00407327
1.56091
-0.00732151
1.85578
-0.0127124
2.20934
-0.0197276
2.63367
-0.0271082
3.14374
-0.0323388
3.13343
-0.0343352
2.60995
-0.0336883
2.18015
-0.0309598
1.82618
-0.0258269
1.5329
-0.0190634
1.27992
-0.0114601
1.03455
-0.004977
0.747426
-0.00140989
0.414961
0.115966
-0.00231251
0.13499
-0.00627065
0.449782
-0.00793718
0.78123
-0.00707616
1.06238
-0.0066217
1.30699
-0.00843326
1.56272
-0.0128243
1.86017
-0.0192079
2.21572
-0.0268568
2.64132
-0.0343596
3.15124
-0.0390823
3.13815
-0.0404191
2.61129
-0.0388042
2.17853
-0.0349024
1.82228
-0.0284052
1.52641
-0.0204602
1.27198
-0.012285
1.02637
-0.00583738
0.740979
-0.00183329
0.410957
0.114133
-0.00292457
0.137914
-0.00805889
0.454916
-0.0111373
0.784308
-0.011799
1.06304
-0.0120822
1.30727
-0.0143671
1.56501
-0.0194186
1.86522
-0.0266835
2.22299
-0.0351062
2.64974
-0.0428491
3.15898
-0.0469986
3.1423
-0.0472567
2.61155
-0.0445358
2.17581
-0.0395324
1.81727
-0.0322811
1.51916
-0.0237114
1.26341
-0.0149535
1.01762
-0.00767034
0.733696
-0.00249368
0.40578
0.111639
-0.0034635
0.141378
-0.00960749
0.46106
-0.0142325
0.788933
-0.0165403
1.06535
-0.0187392
1.30947
-0.0228451
1.56911
-0.0293135
1.87169
-0.0375744
2.23125
-0.0464748
2.65864
-0.0540357
3.16654
-0.0571324
3.1454
-0.0557843
2.6102
-0.0514071
2.17144
-0.0445256
1.81039
-0.0357264
1.51036
-0.025973
1.25365
-0.0166524
1.0083
-0.00896622
0.726009
-0.00301036
0.399824
0.108629
-0.0047834
0.146161
-0.0133498
0.469626
-0.0205328
0.796116
-0.0248833
1.0697
-0.0286885
1.31328
-0.0341874
1.57461
-0.0418176
1.87932
-0.0508905
2.24032
-0.0599899
2.66774
-0.0667628
3.17332
-0.0680219
3.14666
-0.0643229
2.6065
-0.05772
2.16483
-0.0491551
1.80183
-0.0396183
1.50082
-0.0297687
1.2438
-0.0200854
0.998613
-0.0111265
0.71705
-0.00369012
0.392388
0.104939
-0.00577333
0.151934
-0.0160294
0.479882
-0.0253778
0.805464
-0.0326598
1.07698
-0.0398231
1.32044
-0.0481847
1.58297
-0.0579331
1.88907
-0.0684217
2.25081
-0.0779607
2.67728
-0.0836994
3.17906
-0.0827059
3.14566
-0.0765146
2.60031
-0.0675821
2.1559
-0.0570063
1.79125
-0.0455432
1.48936
-0.0339645
1.23222
-0.0229896
0.987638
-0.0129716
0.707032
-0.004355
0.383771
0.100584
-0.0081635
0.160098
-0.0225863
0.494305
-0.0354712
0.818349
-0.0453992
1.08691
-0.0546826
1.32973
-0.0654614
1.59375
-0.0775741
1.90118
-0.0896314
2.26287
-0.0994048
2.68705
-0.103683
3.18333
-0.0997789
3.14176
-0.0903545
2.59088
-0.0783036
2.14385
-0.0653336
1.77828
-0.0527057
1.47673
-0.0407228
1.22024
-0.0287923
0.975707
-0.0164549
0.694695
-0.00543038
0.372747
0.0951532
-0.0101221
0.17022
-0.0274936
0.511677
-0.043992
0.834848
-0.0580603
1.10098
-0.0721646
1.34383
-0.0871352
1.60872
-0.102277
1.91632
-0.11623
2.27682
-0.126315
2.69714
-0.128824
3.18584
-0.121611
3.13455
-0.108881
2.57815
-0.0940128
2.12898
-0.0786231
1.76289
-0.0633828
1.46149
-0.0485738
1.20543
-0.033912
0.961045
-0.0193347
0.680118
-0.00640123
0.359813
0.088752
-0.0150076
0.185228
-0.0389684
0.535637
-0.0602015
0.856081
-0.078288
1.11907
-0.0961019
1.36164
-0.114731
1.62735
-0.133156
1.93475
-0.148932
2.29259
-0.158837
2.70704
-0.159009
3.18601
-0.148056
3.1236
-0.131334
2.56143
-0.112348
2.11
-0.0933228
1.74387
-0.0755215
1.44369
-0.0589093
1.18882
-0.0421994
0.944336
-0.0242341
0.662152
-0.0077931
0.343372
0.0809589
-0.0191958
0.204423
-0.0502697
0.566711
-0.0793625
0.885174
-0.103699
1.1434
-0.127937
1.38588
-0.151896
1.65131
-0.173764
1.95662
-0.190663
2.30949
-0.199512
2.71589
-0.196262
3.18276
-0.180238
3.10757
-0.158744
2.53994
-0.136025
2.08728
-0.113929
1.72177
-0.0929815
1.42274
-0.0726167
1.16845
-0.0512049
0.922924
-0.0286673
0.639615
-0.00894112
0.323646
0.0720178
-0.0334972
0.237921
-0.0759854
0.609199
-0.112017
0.921205
-0.142635
1.17402
-0.173291
1.41654
-0.201227
1.67925
-0.224736
1.98012
-0.241218
2.32598
-0.247358
2.72203
-0.239197
3.1746
-0.217695
3.08607
-0.191415
2.51366
-0.163955
2.05982
-0.137323
1.69514
-0.112267
1.39768
-0.0880944
1.14428
-0.0630105
0.89784
-0.035946
0.61255
-0.0108675
0.298568
0.0611502
-0.0466865
0.284607
-0.111953
0.674466
-0.162471
0.971723
-0.201689
1.21324
-0.237765
1.45261
-0.267509
1.70899
-0.290529
2.00314
-0.304201
2.33965
-0.305338
2.72317
-0.290413
3.15968
-0.261988
3.05764
-0.229617
2.48129
-0.197323
2.02752
-0.166862
1.66468
-0.138553
1.36937
-0.110623
1.11635
-0.0791646
0.866382
-0.042031
0.575417
-0.0112424
0.267779
0.0499078
-0.0309753
0.315582
-0.0853791
0.72887
-0.133906
1.02025
-0.177915
1.25725
-0.2192
1.4939
-0.25779
1.74758
-0.292752
2.03811
-0.321175
2.36807
-0.338865
2.74086
-0.33894
3.15975
-0.318336
3.03704
-0.286218
2.44917
-0.247725
1.98903
-0.206121
1.62307
-0.163351
1.3266
-0.119724
1.07272
-0.0743529
0.821011
-0.0328943
0.533958
-0.00701099
0.241896
0.0428968
-0.00787741
0.32346
-0.0353026
0.756295
-0.0717329
1.05668
-0.109231
1.29475
-0.146171
1.53084
-0.181164
1.78257
-0.21253
2.06947
-0.237413
2.39295
-0.251445
2.75489
-0.248532
3.15684
-0.226095
3.0146
-0.191789
2.41486
-0.15257
1.94981
-0.11279
1.58329
-0.0741905
1.288
-0.0385927
1.03713
-0.0101346
0.792553
0.00537902
0.518444
0.00523265
0.242042
0.0481294
0.0038465
0.319613
-0.0143249
0.774467
-0.0411359
1.08349
-0.0709818
1.32459
-0.101268
1.56113
-0.131158
1.81246
-0.158603
2.09692
-0.180438
2.41479
-0.192479
2.76693
-0.188766
3.15313
-0.166415
2.99225
-0.135113
2.38356
-0.100722
1.91542
-0.0665566
1.54913
-0.035072
1.25652
-0.00837916
1.01043
0.0108165
0.773357
0.0154852
0.513776
0.00771482
0.249813
0.0558443
0.00436068
0.315253
-0.00545155
0.784279
-0.025466
1.10351
-0.0499483
1.34907
-0.0747722
1.58595
-0.100101
1.83779
-0.123826
2.12064
-0.142845
2.43381
-0.153004
2.77709
-0.148264
3.14839
-0.128499
2.97248
-0.102415
2.35748
-0.0742498
1.88725
-0.0466846
1.52156
-0.0215085
1.23134
-1.07905e-05
0.988937
0.0134909
0.759856
0.0152387
0.512028
0.00645713
0.258594
0.0623014
0.00648806
0.308764
-0.000360545
0.791127
-0.0180914
1.12124
-0.0385004
1.36948
-0.0595506
1.607
-0.0814664
1.85971
-0.10214
2.14132
-0.118951
2.45062
-0.128242
2.78638
-0.125704
3.14585
-0.109637
2.95642
-0.0863348
2.33418
-0.0617973
1.86272
-0.0383365
1.4981
-0.0168627
1.20987
0.000616243
0.971458
0.0104162
0.750056
0.0104173
0.512027
0.00394324
0.265068
0.0662446
0.00624777
0.302517
0.00142979
0.795945
-0.013952
1.13662
-0.03222
1.38775
-0.0511184
1.6259
-0.0706111
1.8792
-0.0891809
2.15989
-0.104737
2.46617
-0.113994
2.79564
-0.112017
3.14387
-0.0972229
2.94162
-0.0777992
2.31475
-0.0572342
1.84215
-0.0369511
1.47782
-0.0192402
1.19216
-0.00545748
0.957675
0.0031671
0.741431
0.00463652
0.510557
0.00172291
0.267982
0.0679675
0.00443263
0.298084
0.0012239
0.799154
-0.0121414
1.14998
-0.0288871
1.4045
-0.046657
1.64367
-0.0646791
1.89722
-0.082012
2.17722
-0.0969592
2.48112
-0.106431
2.80511
-0.105867
3.14331
-0.0941656
2.92992
-0.0765506
2.29714
-0.0573058
1.82291
-0.0395443
1.46006
-0.0238116
1.17643
-0.0115557
0.945419
-0.00468756
0.734563
-0.00197415
0.507844
-0.000496505
0.266504
0.067471
0.00275285
0.295331
0.000112973
0.801794
-0.0119072
1.162
-0.0275813
1.42017
-0.0444923
1.66058
-0.0616481
1.91438
-0.0782846
2.19385
-0.0929046
2.49574
-0.102503
2.81471
-0.102924
3.14373
-0.091663
2.91866
-0.0750597
2.28053
-0.0581694
1.80602
-0.0421443
1.44403
-0.0284626
1.16274
-0.0178202
0.934777
-0.0101027
0.726845
-0.00586551
0.503607
-0.00183289
0.262471
0.0656381
0.000174882
0.295156
-0.0023285
0.804297
-0.0129519
1.17263
-0.0274167
1.43464
-0.043493
1.67666
-0.0601618
1.93105
-0.0765559
2.21025
-0.091326
2.51051
-0.102003
2.82539
-0.104757
3.14648
-0.0959056
2.90981
-0.0812354
2.26586
-0.0649491
1.78973
-0.0505043
1.42959
-0.0367377
1.14898
-0.0251691
0.923208
-0.015942
0.717618
-0.00819391
0.495859
-0.00251893
0.256797
0.0631192
-0.000445749
0.295602
-0.00506198
0.808914
-0.0147134
1.18228
-0.0280216
1.44794
-0.0431546
1.69179
-0.0593676
1.94726
-0.0757998
2.22668
-0.0910407
2.52575
-0.102662
2.83701
-0.106351
3.15017
-0.0989523
2.90241
-0.0853934
2.25231
-0.0696961
1.77403
-0.0525413
1.41243
-0.0388065
1.13524
-0.0268826
0.911284
-0.0171552
0.707891
-0.00975985
0.488463
-0.0030992
0.250136
0.06002
-0.00259416
0.298196
-0.00766021
0.81398
-0.016965
1.19158
-0.0290629
1.46004
-0.0432964
1.70602
-0.0590328
1.963
-0.0755463
2.24319
-0.0914286
2.54164
-0.104611
2.85019
-0.111502
3.15706
-0.107219
2.89813
-0.0936269
2.23871
-0.0766499
1.75706
-0.0620891
1.39787
-0.0475718
1.12073
-0.0349334
0.898646
-0.0233775
0.696335
-0.0116044
0.47669
-0.00361282
0.242144
0.0564072
-0.00396697
0.302163
-0.00922258
0.819235
-0.0182499
1.20061
-0.0299488
1.47174
-0.043579
1.71965
-0.058887
1.97831
-0.0754369
2.25974
-0.0919995
2.5582
-0.106632
2.86482
-0.115305
3.16574
-0.111739
2.89456
-0.100495
2.22747
-0.0851948
1.74176
-0.0673211
1.38
-0.0508946
1.1043
-0.0360077
0.883759
-0.0233368
0.683664
-0.0130192
0.466373
-0.00407181
0.233197
0.0523354
-0.00441127
0.306574
-0.0104222
0.825246
-0.0193129
1.2095
-0.0306673
1.48309
-0.0438766
1.73286
-0.0588336
1.99326
-0.0753787
2.27629
-0.0926135
2.57543
-0.108837
2.88105
-0.120469
3.17737
-0.121086
2.89518
-0.109995
2.21638
-0.0913709
1.72313
-0.0731397
1.36177
-0.0576145
1.08877
-0.0444672
0.870611
-0.0305168
0.669714
-0.0152129
0.451069
-0.00459322
0.222577
0.0477422
-0.00435943
0.310934
-0.0107856
0.831672
-0.0197388
1.21845
-0.0309226
1.49428
-0.0438876
1.74583
-0.058601
2.00798
-0.075146
2.29283
-0.0928918
2.59318
-0.110408
2.89856
-0.124391
3.19135
-0.127126
2.89791
-0.11803
2.20728
-0.103583
1.70868
-0.0835734
1.34176
-0.0634645
1.06867
-0.0441697
0.851317
-0.0282987
0.653843
-0.0155384
0.438308
-0.00459758
0.211636
0.0431446
-0.00433881
0.315273
-0.0111759
0.838509
-0.0199617
1.22724
-0.0308483
1.50517
-0.0435937
1.75857
-0.058125
2.02251
-0.0746373
2.30935
-0.0927925
2.61133
-0.111551
2.91732
-0.127773
3.20757
-0.134026
2.90417
-0.128204
2.20146
-0.111262
1.69174
-0.0911376
1.32163
-0.069341
1.04687
-0.0520462
0.834022
-0.0356986
0.637495
-0.017473
0.420083
-0.00451962
0.198683
0.038625
-0.00430128
0.319574
-0.0111324
0.84534
-0.0197597
1.23587
-0.0303835
1.51579
-0.0428689
1.77106
-0.05719
2.03683
-0.0736734
2.32583
-0.0921724
2.62983
-0.111995
2.93714
-0.130674
3.22625
-0.140922
2.91442
-0.137206
2.19774
-0.123902
1.67844
-0.101639
1.29937
-0.0764122
1.02164
-0.0493522
0.806962
-0.0280919
0.616235
-0.0140767
0.406068
-0.00341167
0.188018
0.0352133
-0.0043242
0.323898
-0.0111954
0.852212
-0.0194923
1.24416
-0.0297175
1.52601
-0.0418456
1.78318
-0.0559229
2.05091
-0.0723362
2.34224
-0.0911675
2.64866
-0.11214
2.95812
-0.133264
3.24738
-0.146937
2.92809
-0.146174
2.19698
-0.131951
1.66421
-0.110346
1.27777
-0.0829963
0.994292
-0.0565748
0.78054
-0.0316065
0.591267
-0.0117733
0.386234
-0.00270893
0.178954
0.0325044
-0.00422716
0.328125
-0.010883
0.858867
-0.0189281
1.25221
-0.0288091
1.5359
-0.0405445
1.79492
-0.0543111
2.06467
-0.0706005
2.35853
-0.089584
2.66765
-0.110992
2.97952
-0.132916
3.2693
-0.147922
2.94309
-0.152044
2.2011
-0.146053
1.65822
-0.125022
1.25674
-0.094025
0.963295
-0.0517079
0.738223
-0.0101792
0.549738
0.0147617
0.361294
0.01891
0.174805
0.0514143
-0.00408931
0.332215
-0.0106586
0.865437
-0.0183635
1.25991
-0.0278101
1.54534
-0.0390961
1.80621
-0.0524991
2.07808
-0.0685526
2.37459
-0.0875498
2.68664
-0.109824
3.0018
-0.135187
3.29466
-0.155648
2.96356
-0.163584
2.20904
-0.154891
1.64953
-0.136291
1.23813
-0.103332
0.930337
-0.0625231
0.697414
-0.00807975
0.495295
0.0268571
0.326357
0.0136616
0.188001
0.065076
-0.00384456
0.336059
-0.0101221
0.871714
-0.0175577
1.26735
-0.0266314
1.55442
-0.0375235
1.8171
-0.0505094
2.09106
-0.0662442
2.39032
-0.0852103
2.70561
-0.107792
3.02438
-0.132624
3.31949
-0.15259
2.98352
-0.165446
2.2219
-0.169758
1.65384
-0.155674
1.22405
-0.12517
0.899833
-0.0659876
0.638232
0.0306336
0.398673
0.139743
0.217248
0.163314
0.164429
0.22839
-0.00366214
0.339721
-0.00990658
0.877959
-0.0172098
1.27465
-0.0261854
1.56339
-0.037164
1.82808
-0.0504943
2.10439
-0.067024
2.40685
-0.0874203
2.72601
-0.112505
3.04946
-0.143394
3.35038
-0.173493
3.01362
-0.192534
2.24094
-0.194915
1.65622
-0.184857
1.21399
-0.157917
0.872892
-0.125882
0.606197
-0.145182
0.417974
-0.369761
0.441827
-0.914857
0.709525
0.889027
-1.57549
-0.00343832
0.34316
-0.00938117
0.883902
-0.0164971
1.28177
-0.0252942
1.57219
-0.0361254
1.83891
-0.0494578
2.11772
-0.0662272
2.42362
-0.0873743
2.74715
-0.114279
3.07637
-0.147523
3.38363
-0.179411
3.04551
-0.204619
2.26615
-0.230044
1.68165
-0.240357
1.22431
-0.244762
0.877297
-0.321485
0.68292
-0.683601
0.780091
-1.38768
1.14591
-2.0048
1.32664
1.22256
-2.33833
-0.00326135
0.346421
-0.00895747
0.889598
-0.0157865
1.2886
-0.0243114
1.58071
-0.0349453
1.84954
-0.0482504
2.13103
-0.0652688
2.44064
-0.0871442
2.76903
-0.11544
3.10467
-0.152407
3.42059
-0.192569
3.08567
-0.229296
2.30287
-0.255271
1.70762
-0.270126
1.23916
-0.358373
0.965544
-0.737443
1.06199
-1.48717
1.52982
-2.07777
1.73651
-2.32534
1.57421
1.3407
-2.44348
-0.00299227
0.349413
-0.00830814
0.894914
-0.0148758
1.29517
-0.0231598
1.589
-0.0335838
1.85997
-0.0468332
2.14428
-0.0639884
2.45779
-0.0864101
2.79145
-0.116407
3.13466
-0.157196
3.46138
-0.202593
3.13107
-0.241378
2.34166
-0.288475
1.75472
-0.383607
1.33429
-0.695079
1.27702
-1.39672
1.76363
-2.00044
2.13353
-2.24748
1.98355
-2.36507
1.6918
1.40848
-2.43284
-0.00274187
0.352155
-0.00772599
0.899898
-0.013938
1.30138
-0.0218867
1.59695
-0.0321045
1.87018
-0.0452368
2.15741
-0.062474
2.47503
-0.0854446
2.81442
-0.116658
3.16588
-0.159607
3.50433
-0.210675
3.18214
-0.266959
2.39794
-0.325019
1.81278
-0.493881
1.50316
-1.0535
1.83663
-1.74651
2.45664
-2.08799
2.47501
-2.24455
2.14012
-2.33079
1.77804
1.47579
-2.3981
-0.00258798
0.354743
-0.00737392
0.904684
-0.0135654
1.30757
-0.0215421
1.60492
-0.0319487
1.88059
-0.045266
2.17073
-0.0629118
2.49268
-0.0866229
2.83813
-0.119391
3.19864
-0.166951
3.55189
-0.226946
3.24213
-0.281428
2.45242
-0.375459
1.90681
-0.736938
1.86464
-1.44766
2.54735
-1.94479
2.95377
-2.15272
2.68295
-2.26303
2.25042
-2.34173
1.85673
1.54183
-2.40777
-0.00257124
0.357314
-0.00761702
0.909729
-0.014079
1.31403
-0.0223963
1.61324
-0.0332316
1.89143
-0.0470923
2.18459
-0.0654305
2.51102
-0.0901266
2.86283
-0.124556
3.23307
-0.174247
3.60158
-0.233855
3.30174
-0.30766
2.52623
-0.491345
2.0905
-1.00386
2.37715
-1.63766
3.18116
-1.93566
3.25177
-2.08929
2.83657
-2.20865
2.36979
-2.30478
1.95286
1.60715
-2.37009
-0.00248568
0.3598
-0.00763289
0.914877
-0.0144887
1.32089
-0.0232668
1.62202
-0.0345593
1.90272
-0.0489952
2.19903
-0.0680897
2.53011
-0.0939581
2.8887
-0.129999
3.26911
-0.183146
3.65473
-0.252937
3.37153
-0.343434
2.61673
-0.603866
2.35093
-1.21455
2.98783
-1.72524
3.69184
-1.94143
3.46796
-2.09052
2.98566
-2.22348
2.50274
-2.34281
2.0722
1.67054
-2.4062
-0.00234921
0.362149
-0.00779908
0.920326
-0.0149772
1.32807
-0.0241555
1.6312
-0.0359011
1.91446
-0.0509239
2.21405
-0.0707258
2.54991
-0.0974188
2.91539
-0.134748
3.30644
-0.19035
3.71033
-0.260525
3.4417
-0.38186
2.73806
-0.735594
2.70466
-1.35593
3.60817
-1.73771
4.07362
-1.92297
3.65322
-2.0369
3.09959
-2.13791
2.60376
-2.21427
2.14856
1.66648
-2.21021
-0.00209328
0.364243
-0.00757353
0.925807
-0.015196
1.33569
-0.0249089
1.64091
-0.0371848
1.92674
-0.0527819
2.22965
-0.0732719
2.5704
-0.101109
2.94323
-0.140342
3.34568
-0.197653
3.76764
-0.277634
3.52168
-0.437185
2.89761
-0.856567
3.12404
-1.41412
4.16572
-1.6947
4.3542
-1.86695
3.82547
-1.97263
3.20527
-1.98392
2.61505
-1.93229
2.09693
1.65738
-1.92319
-0.00184109
0.366084
-0.00753937
0.931505
-0.0154059
1.34355
-0.0254391
1.65094
-0.0380415
1.93934
-0.0539563
2.24556
-0.0747247
2.59117
-0.102591
2.97109
-0.141138
3.38423
-0.197304
3.82381
-0.281869
3.60625
-0.469492
3.08524
-0.916732
3.57128
-1.37745
4.62644
-1.5691
4.54586
-1.65006
3.90642
-1.6664
3.22161
-1.53099
2.47964
-1.0423
1.60824
0.615079
-0.00128188
0.367365
-0.00678854
0.937012
-0.0151436
1.35191
-0.0258772
1.66168
-0.0393529
1.95282
-0.0562989
2.26251
-0.0784458
2.61332
-0.108325
3.00097
-0.150815
3.42672
-0.213388
3.88638
-0.311689
3.70455
-0.543219
3.31677
-1.04638
4.07445
-1.43267
5.01273
-1.5434
4.65659
-1.55459
3.91761
-1.46924
3.13626
-1.2391
2.2495
-0.665668
1.03481
-0.0505895
-0.000837127
0.368203
-0.0061792
0.942354
-0.0147168
1.36045
-0.0259285
1.67289
-0.0400794
1.96697
-0.0580826
2.28051
-0.0817968
2.63703
-0.114074
3.03325
-0.159498
3.47214
-0.226762
3.95365
-0.342648
3.82044
-0.616947
3.59107
-1.14276
4.60026
-1.44543
5.3154
-1.52645
4.73761
-1.51649
3.90765
-1.32134
2.94111
-0.822497
1.75065
-0.129283
0.341597
-0.179872
6.50187e-05
0.368138
-0.00442999
0.946849
-0.0133517
1.36937
-0.0253216
1.68486
-0.0402181
1.98187
-0.0591266
2.29942
-0.0839956
2.6619
-0.117569
3.06682
-0.16556
3.52013
-0.238313
4.0264
-0.367018
3.94914
-0.692632
3.91668
-1.22153
5.12916
-1.43054
5.52441
-1.46553
4.77259
-1.39655
3.83868
-1.1168
2.66136
-0.364288
0.998139
0.0351438
-0.0578348
-0.144728
0.00121162
0.366926
-0.00260462
0.950665
-0.0116524
1.37842
-0.0239661
1.69717
-0.039239
1.99714
-0.058942
2.31912
-0.0850282
2.68799
-0.120579
3.10237
-0.171244
3.5708
-0.251032
4.10619
-0.40365
4.10176
-0.769074
4.2821
-1.24917
5.60925
-1.38677
5.66202
-1.40769
4.79351
-1.24846
3.67944
-0.761356
2.17426
-0.0907838
0.327567
0.0395162
-0.188135
-0.105212
0.00294737
0.363979
0.000836009
0.952776
-0.00863299
1.38789
-0.0213717
1.70991
-0.0370733
2.01284
-0.0574512
2.3395
-0.0843269
2.71486
-0.120671
3.13872
-0.171479
3.6216
-0.254274
4.18898
-0.415898
4.26338
-0.822828
4.68903
-1.24101
6.02743
-1.33305
5.75406
-1.31204
4.7725
-1.04994
3.41734
-0.411967
1.53629
-0.0222084
-0.0621914
0.00989235
-0.220236
-0.09532
0.00424474
0.359734
0.00307545
0.953946
-0.00523738
1.3962
-0.0175064
1.72218
-0.03313
2.02846
-0.053698
2.36007
-0.0807667
2.74193
-0.117022
3.17497
-0.168123
3.6727
-0.25722
4.27808
-0.439394
4.44556
-0.868964
5.1186
-1.1867
6.34517
-1.2316
5.79895
-1.15965
4.70055
-0.863212
3.12091
-0.181367
0.854441
-0.0153514
-0.228207
-0.00625077
-0.229336
-0.101571
0.00668814
0.353046
0.00761775
0.953016
0.000772695
1.40304
-0.0111934
1.73415
-0.0270321
2.0443
-0.0478609
2.3809
-0.0745573
2.76863
-0.110975
3.21139
-0.1621
3.72383
-0.250154
4.36613
-0.436464
4.63187
-0.846683
5.52882
-1.08709
6.58558
-1.12861
5.84047
-0.98337
4.55532
-0.570037
2.70758
-0.0257262
0.31013
0.0201548
-0.274088
0.0125803
-0.221762
-0.0889904
0.00911868
0.343927
0.0127093
0.949425
0.00743513
1.40832
-0.00277969
1.74436
-0.0186433
2.06017
-0.0382519
2.4005
-0.0634822
2.79386
-0.0979628
3.24587
-0.145994
3.77186
-0.23321
4.45335
-0.428544
4.8272
-0.801985
5.90226
-0.974012
6.7576
-1.00954
5.87599
-0.814131
4.35991
-0.311712
2.20516
-0.00358463
0.00200319
-0.00101206
-0.276661
0.0143779
-0.237152
-0.0746126
0.0132516
0.330675
0.0210416
0.941635
0.0180711
1.41129
0.00840171
1.75403
-0.00653539
2.0751
-0.0244747
2.41844
-0.0481031
2.81749
-0.0790883
3.27686
-0.121379
3.81415
-0.197123
4.52909
-0.382254
5.01233
-0.67368
6.19369
-0.789301
6.87322
-0.80873
5.89542
-0.659299
4.21048
-0.201813
1.74767
-0.0928112
-0.106999
-0.0604136
-0.309058
-0.0151098
-0.282455
-0.0897224
0.0172737
0.313402
0.0296506
0.929258
0.0296296
1.41131
0.0217789
1.76188
0.00968094
2.0872
-0.00510515
2.43323
-0.0254065
2.83779
-0.0524725
3.30392
-0.0891734
3.85085
-0.151481
4.5914
-0.30452
5.16537
-0.503567
6.39274
-0.601549
6.97121
-0.671376
5.96525
-0.631736
4.17084
-0.428749
1.54468
-0.477813
-0.0579351
-0.343222
-0.443649
-0.17395
-0.451727
-0.263673
0.0230126
0.290389
0.0423652
0.909906
0.0470969
1.40658
0.0423388
1.76664
0.0328149
2.09672
0.0196157
2.44643
0.00263094
2.85477
-0.018633
3.32519
-0.0451777
3.8774
-0.0799388
4.62616
-0.171387
5.25682
-0.269215
6.49057
-0.338946
7.04094
-0.418476
6.04478
-0.51687
4.26923
-0.639782
1.6676
-0.721897
0.0241798
-0.551977
-0.613569
-0.273019
-0.730685
-0.536692
0.0283911
0.261998
0.0553432
0.882954
0.0658111
1.39611
0.0656777
1.76677
0.0595467
2.10286
0.0509671
2.45501
0.0411107
2.86463
0.0294721
3.33683
0.0162336
3.89064
0.00629912
4.6361
0.0153642
5.24775
0.0440741
6.46186
0.0506659
7.03435
0.0284755
6.06697
-0.0405922
4.3383
-0.28662
1.91362
-0.58415
0.32171
-0.587635
-0.610084
-0.279762
-1.03856
-0.816453
0.0352291
0.226769
0.0733133
0.84487
0.0923095
1.37711
0.0967876
1.76229
0.0949109
2.10473
0.0916356
2.45828
0.0887687
2.8675
0.0858133
3.33978
0.0877235
3.88873
0.116281
4.60754
0.206719
5.15731
0.455129
6.21345
0.68995
6.79952
1.00463
5.75228
1.07238
4.27055
0.685636
2.30037
0.291154
0.716192
-0.0246775
-0.294253
-0.106705
-0.956531
-0.923158
0.0405098
0.186259
0.0910567
0.794323
0.119648
1.34852
0.131598
1.75034
0.136957
2.09937
0.138607
2.45663
0.143251
2.86285
0.151522
3.33151
0.167026
3.87322
0.23101
4.54355
0.419796
4.96853
0.954411
5.67883
1.3584
6.39553
1.71911
5.39158
1.83526
4.15441
1.51169
2.62393
1.10192
1.12596
0.6954
0.112269
0.255096
-0.516227
-0.668062
0.044356
0.141903
0.110996
0.727683
0.153656
1.30586
0.173482
1.73052
0.185938
2.08692
0.193723
2.44885
0.206265
2.85031
0.22851
3.30926
0.255726
3.84601
0.346995
4.45228
0.591869
4.72366
1.24934
5.02136
1.68683
5.95804
1.99085
5.08755
2.11591
4.02935
1.87904
2.86081
1.38629
1.61871
0.878279
0.620282
0.389551
-0.0274988
-0.278511
0.0435752
0.098328
0.128305
0.642953
0.188772
1.2454
0.221912
1.69738
0.243579
2.06525
0.259113
2.43331
0.279287
2.83014
0.30707
3.28148
0.351243
3.80183
0.455586
4.34794
0.70399
4.47525
1.23341
4.49194
1.67401
5.51744
1.89655
4.86501
1.96764
3.95826
1.79845
3.03
1.37862
2.03854
0.88233
1.11658
0.380458
0.474373
0.101947
0.0386837
0.0596443
0.14427
0.537366
0.226313
1.16335
0.274339
1.64935
0.306879
2.03271
0.33192
2.40827
0.358096
2.80396
0.391445
3.24813
0.438593
3.75468
0.492481
4.29405
0.663136
4.3046
1.05262
4.10246
1.48274
5.08732
1.59442
4.75333
1.59204
3.96064
1.45125
3.17079
1.13105
2.35873
0.71967
1.52796
0.298183
0.89586
0.400129
0.0342204
0.0254239
0.158872
0.412715
0.265508
1.05672
0.331886
1.58297
0.375435
1.98916
0.410753
2.37295
0.44312
2.77159
0.478709
3.21254
0.501684
3.73171
0.490467
4.30527
0.53874
4.25632
0.783334
3.85786
1.16158
4.70908
1.22175
4.69316
1.15674
4.02564
1.01763
3.30989
0.783767
2.5926
0.475017
1.83671
0.176403
1.19447
0.576532
0.0333294
-0.00790546
0.158588
0.287457
0.299176
0.916128
0.396286
1.48586
0.459752
1.92569
0.511374
2.32133
0.554712
2.72826
0.58158
3.18568
0.594621
3.71867
0.548479
4.35141
0.505086
4.29972
0.572296
3.79065
0.91527
4.3661
0.968853
4.63957
0.879637
4.11486
0.746345
3.44319
0.558129
2.78082
0.310268
2.08457
0.105103
1.39964
0.681635
0.0252594
-0.0331649
0.0996385
0.213078
0.22963
0.786136
0.344823
1.37067
0.426824
1.84369
0.483507
2.26465
0.523923
2.68784
0.530931
3.17867
0.536776
3.71282
0.481703
4.40649
0.371039
4.41038
0.317816
3.84388
0.472362
4.21156
0.504001
4.60794
0.455103
4.16376
0.36955
3.52874
0.262144
2.88822
0.137695
2.20902
0.0358476
1.50149
0.717483
-0.0051295
-0.0280354
-0.00401306
0.211961
0.0602328
0.72189
0.157954
1.27295
0.254956
1.74669
0.340124
2.17948
0.413727
2.61424
0.463265
3.12913
0.508005
3.66808
0.481964
4.43253
0.341407
4.55094
0.23375
3.95153
0.286505
4.1588
0.31585
4.57859
0.274382
4.20523
0.198411
3.60471
0.112106
2.97453
0.0443852
2.27674
-0.00779573
1.55367
0.709687
-0.0235345
-0.00450081
-0.051364
0.239791
-0.0357501
0.706276
0.0369651
1.20023
0.135292
1.64837
0.241158
2.07362
0.345626
2.50977
0.448001
3.02675
0.534246
3.58184
0.557107
4.40967
0.419827
4.68822
0.232557
4.1388
0.201882
4.18948
0.193955
4.58652
0.137186
4.262
0.0671613
3.67473
0.0218922
3.0198
-0.0167727
2.3154
-0.0316266
1.56852
0.67806
-0.0263171
0.0218163
-0.0659436
0.279417
-0.070051
0.710384
-0.018261
1.14844
0.075921
1.55418
0.1965
1.95304
0.333114
2.37315
0.492778
2.86709
0.644998
3.42962
0.730865
4.3238
0.591318
4.82777
0.271877
4.45825
0.142364
4.31899
0.0812661
4.64762
0.0118895
4.33137
-0.0321651
3.71879
-0.046533
3.03417
-0.0704563
2.33933
-0.0562327
1.5543
0.621828
-0.0219127
0.043729
-0.0579122
0.315417
-0.0666779
0.71915
-0.0234059
1.10517
0.0680209
1.46276
0.199896
1.82116
0.364834
2.20822
0.573404
2.65852
0.78823