/*--------------------------------*- C++ -*----------------------------------*\
| =========                 |                                                 |
| \\      /  F ield         | OpenFOAM: The Open Source CFD Toolbox           |
|  \\    /   O peration     | Version:  4.0                                   |
|   \\  /    A nd           | Web:      www.OpenFOAM.org                      |
|    \\/     M anipulation  |                                                 |
\*---------------------------------------------------------------------------*/
FoamFile
{
    version     2.0;
    format      ascii;
    class       volScalarField;
    location    "0.005";
    object      p;
}
// * * * * * * * * * * * * * * * * * * * * * * * * * * * * * * * * * * * * * //

dimensions      [1 -1 -2 0 0 0 0];

internalField   nonuniform List<scalar> 
100
(
100000
100000
100000
100000
100000
100000
100000
100000
100000
100000
100000
100000
100000
100000
100000
100000
100000
100000
99999.8
99999.4
99998.2
99994.7
99984.6
99957.7
99890.2
99731.4
99384.6
98688.4
97422.7
95470.1
92881.1
89720.7
86132.9
82289.5
78343.1
74404.2
70545.7
66808.7
63223.9
59794
56556.3
53464.5
50590.2
47887.2
45359.3
43029.7
40892.7
38942.6
37184.1
35609.9
34267.5
33131.8
32176.3
31448.8
30911.4
30507.1
30333.9
30325.3
30323.8
30327.8
30345
30391.3
30391.2
30400.5
30406.2
30396.1
30380.9
30353.8
30303.4
30207.4
30101.3
30064.8
30006.6
29902.4
29682.6
29229.5
28297.9
25914.3
17232
11441.1
10245.3
10037.3
10005.6
10000.8
10000.1
10000
10000
10000
10000
10000
10000
10000
10000
10000
10000
10000
10000
10000
10000
10000
)
;

boundaryField
{
    sides
    {
        type            zeroGradient;
    }
    empty
    {
        type            empty;
    }
}


// ************************************************************************* //
