/*--------------------------------*- C++ -*----------------------------------*\
| =========                 |                                                 |
| \\      /  F ield         | OpenFOAM: The Open Source CFD Toolbox           |
|  \\    /   O peration     | Version:  4.0                                   |
|   \\  /    A nd           | Web:      www.OpenFOAM.org                      |
|    \\/     M anipulation  |                                                 |
\*---------------------------------------------------------------------------*/
FoamFile
{
    version     2.0;
    format      ascii;
    class       volScalarField;
    location    "0.005";
    object      T;
}
// * * * * * * * * * * * * * * * * * * * * * * * * * * * * * * * * * * * * * //

dimensions      [0 0 0 1 0 0 0];

internalField   nonuniform List<scalar> 
100
(
348.432
348.432
348.432
348.432
348.432
348.432
348.432
348.432
348.432
348.432
348.432
348.432
348.432
348.432
348.432
348.432
348.432
348.432
348.432
348.431
348.43
348.427
348.417
348.39
348.322
348.164
347.817
347.119
345.842
343.85
341.165
337.816
333.911
329.597
325.017
320.28
315.466
310.617
305.817
300.9
296.58
290.919
288.067
282.112
277.77
275.455
270.831
265.498
262.868
261.679
259.197
254.847
252.003
251.634
252.22
252.742
252.445
250.971
249.491
248.974
249.183
252.654
270.011
306.413
340.658
366.939
384.52
394.695
400.211
402.31
402.521
401.439
398.619
396.01
393.767
391.286
387.403
379.221
337.202
290.722
280.723
279.044
278.79
278.753
278.747
278.746
278.746
278.746
278.746
278.746
278.746
278.746
278.746
278.746
278.746
278.746
278.746
278.746
278.746
278.746
)
;

boundaryField
{
    sides
    {
        type            zeroGradient;
    }
    empty
    {
        type            empty;
    }
}


// ************************************************************************* //
