/*--------------------------------*- C++ -*----------------------------------*\
| =========                 |                                                 |
| \\      /  F ield         | OpenFOAM: The Open Source CFD Toolbox           |
|  \\    /   O peration     | Version:  4.0                                   |
|   \\  /    A nd           | Web:      www.OpenFOAM.org                      |
|    \\/     M anipulation  |                                                 |
\*---------------------------------------------------------------------------*/
FoamFile
{
    version     2.0;
    format      ascii;
    class       volVectorField;
    location    "0.005";
    object      U;
}
// * * * * * * * * * * * * * * * * * * * * * * * * * * * * * * * * * * * * * //

dimensions      [0 1 -1 0 0 0 0];

internalField   nonuniform List<vector> 
100
(
(-6.47676e-13 0 0)
(-7.20613e-13 0 0)
(6.38924e-13 0 0)
(7.42494e-13 0 0)
(4.04068e-13 0 0)
(3.65558e-12 0 0)
(2.0396e-11 0 0)
(1.00067e-10 0 0)
(4.67094e-10 0 0)
(2.14e-09 0 0)
(9.53151e-09 0 0)
(4.12405e-08 0 0)
(1.73188e-07 0 0)
(7.05323e-07 0 0)
(2.78193e-06 0 0)
(1.06145e-05 0 0)
(3.91176e-05 0 0)
(0.000139043 0 0)
(0.000475811 0 0)
(0.00156472 0 0)
(0.00493365 0 0)
(0.0148796 0 0)
(0.0427973 0 0)
(0.117002 0 0)
(0.302771 0 0)
(0.73795 0 0)
(1.68416 0 0)
(3.57669 0 0)
(6.96286 0 0)
(12.1995 0 0)
(19.3544 0 0)
(28.3444 0 0)
(38.9192 0 0)
(50.7108 0 0)
(63.3548 0 0)
(76.555 0 0)
(90.1071 0 0)
(103.853 0 0)
(117.721 0 0)
(131.564 0 0)
(145.447 0 0)
(159.101 0 0)
(172.668 0 0)
(185.997 0 0)
(198.932 0 0)
(211.572 0 0)
(223.712 0 0)
(235.186 0 0)
(246.048 0 0)
(256.057 0 0)
(265.015 0 0)
(272.97 0 0)
(279.709 0 0)
(285.192 0 0)
(289.316 0 0)
(291.549 0 0)
(292.454 0 0)
(293.083 0 0)
(293.64 0 0)
(294.103 0 0)
(294.433 0 0)
(294.797 0 0)
(294.724 0 0)
(293.8 0 0)
(292.535 0 0)
(291.399 0 0)
(290.852 0 0)
(291.156 0 0)
(291.927 0 0)
(292.443 0 0)
(292.181 0 0)
(291.514 0 0)
(290.804 0 0)
(289.484 0 0)
(286.745 0 0)
(281.137 0 0)
(268.917 0 0)
(235.6 0 0)
(145.01 0 0)
(38.2341 0 0)
(6.38452 0 0)
(0.983045 0 0)
(0.147263 0 0)
(0.0219882 0 0)
(0.00328402 0 0)
(0.000489915 0 0)
(7.2835e-05 0 0)
(1.07692e-05 0 0)
(1.58072e-06 0 0)
(2.30032e-07 0 0)
(3.31555e-08 0 0)
(4.72999e-09 0 0)
(6.65878e-10 0 0)
(9.30598e-11 0 0)
(1.28864e-11 0 0)
(1.67608e-12 0 0)
(1.63378e-13 0 0)
(-4.12134e-27 0 0)
(-7.29366e-13 0 0)
(-5.25144e-13 0 0)
)
;

boundaryField
{
    sides
    {
        type            zeroGradient;
    }
    empty
    {
        type            empty;
    }
}


// ************************************************************************* //
