/*--------------------------------*- C++ -*----------------------------------*\
| =========                 |                                                 |
| \\      /  F ield         | OpenFOAM: The Open Source CFD Toolbox           |
|  \\    /   O peration     | Version:  4.0                                   |
|   \\  /    A nd           | Web:      www.OpenFOAM.org                      |
|    \\/     M anipulation  |                                                 |
\*---------------------------------------------------------------------------*/
FoamFile
{
    version     2.0;
    format      ascii;
    class       volScalarField;
    location    "0.002";
    object      mag(U);
}
// * * * * * * * * * * * * * * * * * * * * * * * * * * * * * * * * * * * * * //

dimensions      [0 1 -1 0 0 0 0];

internalField   nonuniform List<scalar> 
10000
(
7.29365e-14
1.75048e-13
1.45873e-13
4.66794e-13
5.25143e-13
6.41841e-13
4.23032e-13
6.56429e-13
5.3973e-13
6.27254e-13
7.87714e-13
8.75238e-13
7.29365e-13
8.46063e-13
4.95968e-13
4.66794e-13
4.08444e-13
3.35508e-13
3.35508e-13
2.47984e-13
4.81381e-13
1.45873e-14
1.75048e-13
1.31286e-13
1.31286e-13
4.08444e-13
4.52206e-13
8.75238e-13
6.85603e-13
7.73127e-13
1.05029e-12
1.1524e-12
1.0357e-12
1.44414e-12
1.32744e-12
1.59002e-12
1.838e-12
1.838e-12
1.91094e-12
2.14433e-12
2.30479e-12
2.20268e-12
2.81535e-12
2.5236e-12
2.68406e-12
3.07792e-12
2.20268e-12
2.68406e-12
2.61113e-12
2.58195e-12
2.65489e-12
2.33397e-12
2.15892e-12
2.26103e-12
1.838e-12
1.80883e-12
1.66295e-12
1.67754e-12
1.18157e-12
1.32744e-12
9.04413e-13
9.77349e-13
3.20921e-13
3.35508e-13
5.83492e-14
1.31286e-13
2.91746e-13
3.93857e-13
6.71016e-13
6.12667e-13
8.60651e-13
7.0019e-13
7.87714e-13
7.14778e-13
7.29365e-13
6.27254e-13
7.29365e-13
7.0019e-13
8.46063e-13
7.0019e-13
9.62762e-13
5.3973e-13
1.00652e-12
5.10556e-13
7.43952e-13
2.91746e-13
4.95968e-13
2.77159e-13
3.50095e-13
1.45873e-14
2.1881e-13
2.91746e-13
2.47984e-13
5.54317e-13
7.0019e-13
9.33587e-13
1.0357e-12
1.31286e-12
1.7213e-12
1.47332e-12
2.01305e-12
2.05681e-12
2.4069e-12
2.71324e-12
2.80076e-12
2.74241e-12
3.26756e-12
3.01957e-12
3.10709e-12
3.20921e-12
2.15892e-12
2.50902e-12
1.92552e-12
1.91094e-12
1.57543e-12
1.42956e-12
1.1524e-12
1.31286e-12
8.75238e-13
1.21075e-12
6.12667e-13
7.87714e-13
3.93857e-13
3.35508e-13
2.47984e-13
7.29365e-14
4.37619e-14
3.20921e-13
3.50095e-13
3.93857e-13
4.66794e-13
8.02302e-13
6.56429e-13
9.33587e-13
7.5854e-13
1.12322e-12
7.29365e-13
8.02302e-13
5.54317e-13
5.25143e-13
4.45339e-25
2.77159e-13
7.29365e-14
1.02111e-13
5.68905e-13
4.08444e-13
1.02111e-12
6.27254e-13
1.2691e-12
1.1524e-12
1.42956e-12
1.23992e-12
1.80883e-12
1.54625e-12
1.86717e-12
1.96929e-12
1.91094e-12
1.7213e-12
2.01305e-12
1.75048e-12
1.69213e-12
1.53167e-12
1.45873e-12
1.54625e-12
1.51708e-12
1.38579e-12
1.16698e-12
1.64836e-12
1.06487e-12
1.51708e-12
1.10863e-12
1.18157e-12
1.02111e-12
1.09405e-12
7.43952e-13
1.05029e-12
6.12667e-13
8.31476e-13
4.81381e-13
4.37619e-13
2.91746e-13
4.66794e-13
1.6046e-13
8.75238e-14
1.31286e-13
1.89635e-13
2.62571e-13
4.66794e-13
3.20921e-13
6.71016e-13
4.52206e-13
9.04413e-13
7.87714e-13
1.47332e-12
1.19616e-12
1.53167e-12
1.6046e-12
1.56084e-12
1.34203e-12
1.40038e-12
8.02302e-13
1.06487e-12
5.98079e-13
5.68905e-13
1.02111e-13
3.20921e-13
2.04222e-13
5.83492e-14
6.12667e-13
2.04222e-13
9.04413e-13
6.41841e-13
1.06487e-12
9.62762e-13
1.00652e-12
7.5854e-13
1.29827e-12
1.13781e-12
1.7213e-12
1.61919e-12
2.0714e-12
2.08598e-12
2.21727e-12
2.26103e-12
2.11516e-12
2.33397e-12
2.08598e-12
1.838e-12
2.21727e-12
1.66295e-12
1.69213e-12
1.47332e-12
1.41497e-12
1.21075e-12
1.28368e-12
7.0019e-13
1.06487e-12
5.68905e-13
8.02302e-13
5.54317e-13
5.25143e-13
1.02111e-13
2.1881e-13
8.75238e-14
1.89635e-13
2.33397e-13
3.35508e-13
4.08444e-13
5.98079e-13
8.02302e-13
9.77349e-13
1.09405e-12
9.33587e-13
1.19616e-12
1.1524e-12
8.46063e-13
9.04413e-13
8.16889e-13
7.87714e-13
4.81381e-13
7.43952e-13
2.77159e-13
4.66794e-13
5.83492e-14
8.75238e-14
5.68905e-13
3.50095e-13
8.46063e-13
9.48175e-13
1.38579e-12
1.57543e-12
2.11516e-12
1.9547e-12
2.43608e-12
2.11516e-12
2.17351e-12
2.20268e-12
2.33397e-12
2.23186e-12
2.59654e-12
2.71324e-12
2.43608e-12
2.29021e-12
2.43608e-12
2.15892e-12
2.08598e-12
2.04222e-12
1.9547e-12
1.85259e-12
2.10057e-12
2.11516e-12
1.94011e-12
2.05681e-12
1.86717e-12
2.01305e-12
2.12975e-12
1.96929e-12
2.20268e-12
2.26103e-12
2.17351e-12
2.58195e-12
2.23186e-12
2.33397e-12
2.15892e-12
2.08598e-12
2.11516e-12
2.0714e-12
1.86717e-12
1.76506e-12
2.02763e-12
1.73589e-12
1.79424e-12
1.75048e-12
1.67754e-12
1.54625e-12
1.63378e-12
1.69213e-12
1.56084e-12
1.40038e-12
1.40038e-12
1.42956e-12
1.42956e-12
1.47332e-12
1.53167e-12
1.77965e-12
1.7213e-12
2.02763e-12
1.79424e-12
1.61919e-12
1.91094e-12
1.85259e-12
1.7213e-12
1.92552e-12
1.54625e-12
1.37121e-12
1.21075e-12
1.10863e-12
8.89825e-13
7.73127e-13
8.89825e-13
8.60651e-13
1.16698e-12
1.06487e-12
1.37121e-12
1.4879e-12
1.61919e-12
1.44414e-12
2.0714e-12
1.88176e-12
1.838e-12
2.05681e-12
1.82341e-12
1.6046e-12
1.76506e-12
1.38579e-12
1.23992e-12
1.50249e-12
1.12322e-12
1.32744e-12
1.2691e-12
9.19e-13
1.31286e-12
1.4879e-12
1.37121e-12
1.75048e-12
1.41497e-12
1.76506e-12
1.73589e-12
1.85259e-12
1.77965e-12
1.94011e-12
1.91094e-12
1.838e-12
1.9547e-12
1.79424e-12
1.89635e-12
2.02763e-12
1.73589e-12
1.79424e-12
1.98387e-12
1.64836e-12
1.80883e-12
1.70671e-12
1.75048e-12
1.66295e-12
1.9547e-12
1.9547e-12
1.91094e-12
2.1881e-12
2.27562e-12
2.69865e-12
2.71324e-12
2.36314e-12
2.85911e-12
2.55278e-12
2.82994e-12
2.80076e-12
2.66948e-12
2.66948e-12
2.49443e-12
2.20268e-12
2.26103e-12
1.88176e-12
1.80883e-12
1.64836e-12
1.77965e-12
1.45873e-12
1.4879e-12
1.69213e-12
1.64836e-12
1.86717e-12
1.50249e-12
1.89635e-12
1.80883e-12
1.88176e-12
2.21727e-12
2.05681e-12
2.37773e-12
2.02763e-12
2.30479e-12
2.05681e-12
2.29021e-12
2.05681e-12
2.26103e-12
1.64836e-12
2.17351e-12
1.63378e-12
2.11516e-12
2.0714e-12
2.50902e-12
2.1881e-12
2.58195e-12
2.36314e-12
2.45067e-12
2.31938e-12
1.9547e-12
1.89635e-12
1.73589e-12
1.66295e-12
1.42956e-12
1.31286e-12
9.62762e-13
8.46063e-13
6.85603e-13
3.93857e-13
5.3973e-13
8.75238e-14
2.62571e-13
2.1881e-13
3.64683e-13
5.54317e-13
5.25143e-13
3.64683e-13
7.0019e-13
8.02302e-13
7.5854e-13
7.14778e-13
4.37619e-13
4.95968e-13
8.02302e-13
8.89825e-13
1.21075e-12
1.28368e-12
1.88176e-12
1.88176e-12
2.1881e-12
2.37773e-12
2.4069e-12
2.757e-12
2.97581e-12
3.09251e-12
3.18003e-12
3.4426e-12
3.28214e-12
3.19462e-12
3.16544e-12
2.91746e-12
3.04875e-12
3.12168e-12
2.94663e-12
2.82994e-12
2.96122e-12
2.68406e-12
2.62571e-12
2.66948e-12
2.27562e-12
2.757e-12
2.62571e-12
2.61113e-12
2.85911e-12
2.82994e-12
2.6403e-12
3.12168e-12
2.74241e-12
2.82994e-12
2.30479e-12
2.62571e-12
1.9547e-12
2.56736e-12
1.99846e-12
2.5236e-12
2.33397e-12
2.66948e-12
2.58195e-12
3.19462e-12
3.13627e-12
3.19462e-12
3.19462e-12
3.16544e-12
2.8737e-12
2.90287e-12
2.21727e-12
2.56736e-12
2.27562e-12
2.26103e-12
2.01305e-12
2.02763e-12
2.17351e-12
2.12975e-12
2.27562e-12
2.1881e-12
2.49443e-12
2.17351e-12
2.37773e-12
2.49443e-12
2.4069e-12
2.31938e-12
2.55278e-12
2.61113e-12
2.97581e-12
3.04875e-12
2.9904e-12
3.03416e-12
3.01957e-12
2.8737e-12
2.88829e-12
3.28214e-12
3.03416e-12
3.09251e-12
3.22379e-12
3.31132e-12
2.81535e-12
3.36967e-12
2.8737e-12
3.28214e-12
3.25297e-12
3.03416e-12
3.3259e-12
3.34049e-12
3.23838e-12
3.29673e-12
3.01957e-12
3.31132e-12
3.3259e-12
3.70517e-12
3.51554e-12
3.9094e-12
3.5593e-12
3.99692e-12
3.99692e-12
4.05527e-12
4.3616e-12
4.52206e-12
4.23032e-12
4.41995e-12
4.30325e-12
4.37619e-12
4.06986e-12
4.23032e-12
3.47178e-12
3.676e-12
3.48636e-12
3.58848e-12
3.54471e-12
3.60306e-12
3.23838e-12
3.9094e-12
3.34049e-12
3.66141e-12
3.60306e-12
3.98233e-12
3.77811e-12
4.18656e-12
4.05527e-12
4.23032e-12
4.30325e-12
4.18656e-12
3.96775e-12
3.71976e-12
3.38425e-12
3.50095e-12
3.25297e-12
3.19462e-12
3.22379e-12
3.28214e-12
3.3259e-12
3.19462e-12
3.38425e-12
3.19462e-12
3.45719e-12
3.42802e-12
3.64683e-12
3.85105e-12
3.58848e-12
3.73435e-12
3.31132e-12
3.93857e-12
3.50095e-12
3.95316e-12
3.53013e-12
3.71976e-12
4.01151e-12
4.06986e-12
3.88022e-12
4.08444e-12
4.02609e-12
4.31784e-12
4.31784e-12
4.33243e-12
4.66794e-12
4.69711e-12
5.03262e-12
4.90133e-12
5.13473e-12
4.43454e-12
4.595e-12
4.52206e-12
4.15738e-12
4.27408e-12
4.08444e-12
3.9094e-12
3.676e-12
3.83646e-12
3.36967e-12
3.35508e-12
3.31132e-12
3.35508e-12
3.41343e-12
3.28214e-12
3.01957e-12
2.93205e-12
2.71324e-12
2.88829e-12
2.56736e-12
2.757e-12
2.17351e-12
2.24644e-12
2.15892e-12
2.02763e-12
2.36314e-12
2.55278e-12
2.4069e-12
2.45067e-12
2.43608e-12
2.71324e-12
2.30479e-12
2.72783e-12
2.72783e-12
3.13627e-12
3.26756e-12
3.3259e-12
3.15086e-12
3.26756e-12
3.45719e-12
2.84452e-12
3.54471e-12
3.34049e-12
3.82187e-12
4.12821e-12
4.37619e-12
4.55124e-12
4.95968e-12
5.09097e-12
5.64529e-12
4.97427e-12
5.61611e-12
5.12014e-12
6.17043e-12
5.58694e-12
6.30171e-12
5.93703e-12
6.433e-12
6.38924e-12
6.87062e-12
6.98732e-12
6.97273e-12
6.91438e-12
7.39576e-12
6.60805e-12
7.29365e-12
7.08943e-12
7.20613e-12
7.08943e-12
7.45411e-12
6.6664e-12
6.94355e-12
6.57887e-12
6.53511e-12
5.96621e-12
6.24336e-12
6.00997e-12
6.27254e-12
5.61611e-12
5.30978e-12
5.35354e-12
5.49941e-12
4.75546e-12
5.42648e-12
4.41995e-12
5.19308e-12
4.98886e-12
5.38271e-12
5.54317e-12
5.86409e-12
5.77657e-12
6.36006e-12
6.56429e-12
6.59346e-12
6.17043e-12
6.89979e-12
6.40382e-12
6.79768e-12
6.46217e-12
6.75392e-12
5.99538e-12
6.95814e-12
5.99538e-12
6.0829e-12
6.1996e-12
5.90786e-12
5.6307e-12
5.7474e-12
5.20767e-12
5.55776e-12
5.09097e-12
4.93051e-12
4.90133e-12
5.25143e-12
4.74087e-12
5.61611e-12
4.98886e-12
5.68905e-12
5.55776e-12
5.65987e-12
5.95162e-12
5.92244e-12
6.37465e-12
6.24336e-12
6.73933e-12
6.30171e-12
6.60805e-12
6.37465e-12
5.96621e-12
5.89327e-12
6.0829e-12
5.49941e-12
5.55776e-12
5.55776e-12
5.30978e-12
4.85757e-12
5.6307e-12
4.75546e-12
5.22225e-12
4.84298e-12
4.88675e-12
4.7117e-12
4.79922e-12
4.3616e-12
4.7117e-12
4.14279e-12
4.39078e-12
4.01151e-12
3.85105e-12
3.57389e-12
3.42802e-12
3.57389e-12
3.16544e-12
3.29673e-12
3.03416e-12
3.38425e-12
3.01957e-12
3.48636e-12
3.01957e-12
3.54471e-12
3.26756e-12
3.16544e-12
3.23838e-12
3.31132e-12
3.38425e-12
3.61765e-12
3.99692e-12
4.09903e-12
4.55124e-12
4.56582e-12
4.81381e-12
4.97427e-12
5.44106e-12
5.58694e-12
6.00997e-12
5.96621e-12
6.37465e-12
6.5497e-12
6.73933e-12
6.89979e-12
7.06025e-12
6.71016e-12
7.03108e-12
6.49135e-12
7.1186e-12
6.87062e-12
6.81227e-12
6.75392e-12
7.16236e-12
6.63722e-12
6.89979e-12
6.63722e-12
6.36006e-12
6.44759e-12
6.6664e-12
6.24336e-12
6.40382e-12
6.41841e-12
6.21419e-12
6.00997e-12
6.47676e-12
5.77657e-12
6.09749e-12
5.77657e-12
5.45565e-12
5.58694e-12
5.42648e-12
5.13473e-12
5.14932e-12
4.7117e-12
5.20767e-12
4.84298e-12
5.19308e-12
4.98886e-12
5.55776e-12
5.48482e-12
5.6307e-12
5.67446e-12
5.84951e-12
5.77657e-12
6.33089e-12
6.17043e-12
6.82686e-12
6.95814e-12
6.87062e-12
7.01649e-12
7.22071e-12
7.26448e-12
6.88521e-12
7.39576e-12
6.59346e-12
7.07484e-12
6.12667e-12
6.87062e-12
5.84951e-12
6.52052e-12
5.514e-12
6.0829e-12
5.57235e-12
5.70363e-12
5.48482e-12
5.47024e-12
5.41189e-12
5.6307e-12
5.87868e-12
5.95162e-12
5.87868e-12
6.40382e-12
6.33089e-12
6.6664e-12
6.82686e-12
6.84144e-12
7.13319e-12
7.45411e-12
7.54163e-12
7.81879e-12
7.5854e-12
7.5854e-12
7.71668e-12
7.65833e-12
7.30824e-12
8.32935e-12
7.4687e-12
8.06678e-12
7.93549e-12
7.80421e-12
7.54163e-12
7.96467e-12
7.4687e-12
7.99384e-12
7.4687e-12
7.81879e-12
7.68751e-12
7.32282e-12
7.32282e-12
7.17695e-12
6.97273e-12
6.78309e-12
6.76851e-12
6.44759e-12
6.33089e-12
6.60805e-12
6.1996e-12
6.30171e-12
6.0829e-12
6.30171e-12
6.15584e-12
6.0829e-12
6.15584e-12
6.57887e-12
6.6664e-12
7.2353e-12
6.68098e-12
7.57081e-12
7.03108e-12
7.51246e-12
7.45411e-12
7.38117e-12
7.45411e-12
8.00843e-12
7.22071e-12
7.89173e-12
7.07484e-12
7.90632e-12
7.32282e-12
7.95008e-12
6.94355e-12
7.96467e-12
6.73933e-12
7.90632e-12
6.85603e-12
7.19154e-12
6.6664e-12
7.17695e-12
6.24336e-12
6.33089e-12
5.76198e-12
5.87868e-12
5.87868e-12
5.65987e-12
5.44106e-12
5.52859e-12
5.23684e-12
5.22225e-12
5.10556e-12
5.19308e-12
5.13473e-12
4.93051e-12
4.79922e-12
4.72629e-12
4.93051e-12
4.85757e-12
5.23684e-12
5.52859e-12
5.58694e-12
5.96621e-12
6.30171e-12
6.56429e-12
7.16236e-12
7.4687e-12
7.67292e-12
8.31476e-12
8.75238e-12
8.63568e-12
8.82532e-12
8.86908e-12
8.9566e-12
8.86908e-12
8.86908e-12
8.54816e-12
8.19806e-12
8.72321e-12
7.71668e-12
7.9209e-12
7.70209e-12
7.4687e-12
7.1186e-12
7.42494e-12
7.03108e-12
7.14778e-12
6.50594e-12
7.04567e-12
6.75392e-12
7.08943e-12
6.59346e-12
6.73933e-12
6.62263e-12
6.53511e-12
6.76851e-12
6.85603e-12
6.95814e-12
7.22071e-12
7.65833e-12
7.42494e-12
8.08136e-12
7.81879e-12
8.21265e-12
8.43146e-12
8.63568e-12
8.78155e-12
9.27752e-12
8.31476e-12
9.93395e-12
8.98578e-12
9.54009e-12
8.82532e-12
9.78808e-12
8.78155e-12
9.4234e-12
9.02954e-12
9.17541e-12
8.78155e-12
8.97119e-12
8.40228e-12
8.85449e-12
8.75238e-12
8.31476e-12
9.17541e-12
8.88367e-12
8.94202e-12
8.60651e-12
9.08789e-12
8.63568e-12
9.27752e-12
8.78155e-12
9.59844e-12
8.9566e-12
9.00036e-12
9.08789e-12
9.19e-12
8.41687e-12
8.91284e-12
8.40228e-12
8.13971e-12
8.53357e-12
7.87714e-12
8.65027e-12
8.0376e-12
9.37963e-12
8.32935e-12
8.85449e-12
8.63568e-12
8.5044e-12
7.97925e-12
8.16889e-12
7.84797e-12
7.74586e-12
7.71668e-12
7.39576e-12
7.42494e-12
7.04567e-12
7.01649e-12
6.50594e-12
6.24336e-12
6.1996e-12
5.99538e-12
5.71822e-12
5.41189e-12
5.42648e-12
5.25143e-12
4.75546e-12
4.88675e-12
4.33243e-12
4.20114e-12
4.18656e-12
4.37619e-12
3.676e-12
3.9094e-12
3.66141e-12
3.70517e-12
3.74894e-12
3.88022e-12
4.11362e-12
3.3259e-12
4.20114e-12
3.41343e-12
3.93857e-12
4.09903e-12
4.04068e-12
4.15738e-12
4.46371e-12
4.37619e-12
5.09097e-12
4.595e-12
5.52859e-12
5.06179e-12
5.61611e-12
5.77657e-12
5.82033e-12
5.96621e-12
6.28713e-12
6.49135e-12
6.37465e-12
6.97273e-12
6.78309e-12
6.76851e-12
6.84144e-12
6.82686e-12
6.97273e-12
6.60805e-12
6.91438e-12
6.89979e-12
7.29365e-12
7.14778e-12
6.94355e-12
6.95814e-12
6.40382e-12
6.33089e-12
6.41841e-12
6.18502e-12
6.59346e-12
6.12667e-12
6.30171e-12
5.89327e-12
6.21419e-12
5.47024e-12
6.15584e-12
5.36813e-12
5.99538e-12
5.92244e-12
5.76198e-12
6.38924e-12
6.30171e-12
6.71016e-12
6.34548e-12
7.07484e-12
6.27254e-12
7.55622e-12
6.5497e-12
7.06025e-12
6.6664e-12
7.57081e-12
6.85603e-12
7.22071e-12
7.0019e-12
7.38117e-12
7.07484e-12
7.27906e-12
6.97273e-12
7.08943e-12
7.0019e-12
7.0019e-12
6.65181e-12
6.53511e-12
6.12667e-12
6.37465e-12
5.67446e-12
5.96621e-12
5.47024e-12
5.1639e-12
5.13473e-12
4.95968e-12
4.94509e-12
4.95968e-12
4.77005e-12
5.00344e-12
5.07638e-12
5.55776e-12
5.70363e-12
5.84951e-12
6.12667e-12
6.15584e-12
6.40382e-12
6.6664e-12
6.34548e-12
6.52052e-12
6.52052e-12
6.47676e-12
6.40382e-12
6.53511e-12
6.24336e-12
6.81227e-12
6.34548e-12
6.82686e-12
6.27254e-12
6.91438e-12
6.27254e-12
6.63722e-12
6.30171e-12
6.38924e-12
6.59346e-12
6.34548e-12
6.46217e-12
6.06832e-12
5.96621e-12
5.84951e-12
5.42648e-12
5.61611e-12
5.33895e-12
5.55776e-12
4.98886e-12
5.6307e-12
4.85757e-12
5.07638e-12
4.44913e-12
4.33243e-12
4.08444e-12
3.86563e-12
3.25297e-12
3.61765e-12
2.96122e-12
3.35508e-12
3.09251e-12
3.12168e-12
3.10709e-12
3.41343e-12
3.39884e-12
3.71976e-12
3.99692e-12
4.34702e-12
4.60959e-12
4.94509e-12
5.00344e-12
5.57235e-12
5.80575e-12
5.90786e-12
5.79116e-12
6.21419e-12
6.21419e-12
7.01649e-12
6.65181e-12
6.91438e-12
6.87062e-12
7.39576e-12
6.75392e-12
7.33741e-12
6.6664e-12
7.30824e-12
6.47676e-12
7.04567e-12
6.81227e-12
6.76851e-12
6.59346e-12
6.62263e-12
5.99538e-12
6.68098e-12
5.89327e-12
6.53511e-12
6.02455e-12
6.63722e-12
5.93703e-12
6.25795e-12
5.80575e-12
5.87868e-12
5.79116e-12
5.65987e-12
5.44106e-12
5.57235e-12
5.26602e-12
5.33895e-12
5.29519e-12
5.36813e-12
5.10556e-12
5.1639e-12
4.90133e-12
5.06179e-12
4.75546e-12
5.12014e-12
4.93051e-12
5.23684e-12
5.09097e-12
5.52859e-12
5.57235e-12
5.41189e-12
5.6307e-12
5.60152e-12
6.24336e-12
5.71822e-12
6.44759e-12
6.02455e-12
6.60805e-12
6.36006e-12
6.85603e-12
7.10402e-12
7.10402e-12
6.95814e-12
7.17695e-12
6.75392e-12
7.49787e-12
7.0019e-12
7.45411e-12
7.67292e-12
7.45411e-12
7.2353e-12
7.45411e-12
6.94355e-12
6.6664e-12
6.76851e-12
6.65181e-12
6.60805e-12
6.15584e-12
5.89327e-12
6.0829e-12
5.514e-12
6.33089e-12
5.55776e-12
6.1996e-12
5.35354e-12
6.09749e-12
5.42648e-12
6.09749e-12
5.41189e-12
6.3163e-12
5.38271e-12
5.76198e-12
5.58694e-12
5.79116e-12
5.98079e-12
5.89327e-12
5.89327e-12
5.42648e-12
5.44106e-12
5.13473e-12
5.36813e-12
4.8284e-12
4.75546e-12
4.75546e-12
4.52206e-12
4.595e-12
4.69711e-12
4.40536e-12
4.53665e-12
4.25949e-12
4.04068e-12
4.40536e-12
3.9094e-12
4.3616e-12
4.08444e-12
4.08444e-12
4.04068e-12
3.93857e-12
4.18656e-12
3.88022e-12
4.20114e-12
4.62417e-12
4.44913e-12
4.84298e-12
4.72629e-12
5.10556e-12
5.17849e-12
5.36813e-12
5.35354e-12
5.1639e-12
5.49941e-12
5.22225e-12
5.55776e-12
5.48482e-12
5.60152e-12
5.29519e-12
5.42648e-12
5.49941e-12
5.54317e-12
5.514e-12
5.41189e-12
5.25143e-12
5.26602e-12
5.2806e-12
5.09097e-12
5.17849e-12
5.03262e-12
5.6307e-12
5.32436e-12
5.48482e-12
5.36813e-12
5.52859e-12
5.07638e-12
5.7474e-12
4.8284e-12
5.6307e-12
4.88675e-12
5.29519e-12
4.84298e-12
5.01803e-12
4.74087e-12
4.88675e-12
4.7117e-12
4.62417e-12
4.595e-12
4.37619e-12
4.34702e-12
4.04068e-12
3.69059e-12
3.82187e-12
3.676e-12
3.66141e-12
3.31132e-12
3.19462e-12
3.12168e-12
3.34049e-12
3.39884e-12
3.13627e-12
3.66141e-12
3.53013e-12
3.61765e-12
3.83646e-12
3.76352e-12
3.80729e-12
3.54471e-12
3.61765e-12
3.06333e-12
3.73435e-12
3.29673e-12
3.76352e-12
3.58848e-12
3.88022e-12
3.7927e-12
4.04068e-12
4.14279e-12
4.28867e-12
4.44913e-12
4.72629e-12
4.81381e-12
4.87216e-12
4.78463e-12
4.93051e-12
4.91592e-12
5.00344e-12
4.94509e-12
4.8284e-12
4.90133e-12
4.58041e-12
4.8284e-12
4.77005e-12
4.78463e-12
4.8284e-12
5.33895e-12
5.01803e-12
5.20767e-12
4.79922e-12
5.13473e-12
4.94509e-12
4.40536e-12
4.595e-12
4.15738e-12
4.01151e-12
3.76352e-12
3.7927e-12
3.47178e-12
3.98233e-12
3.77811e-12
3.63224e-12
3.76352e-12
3.57389e-12
3.74894e-12
3.39884e-12
3.38425e-12
3.54471e-12
3.71976e-12
3.50095e-12
3.7927e-12
3.4426e-12
4.09903e-12
3.28214e-12
4.18656e-12
3.58848e-12
3.89481e-12
3.50095e-12
3.82187e-12
3.29673e-12
3.83646e-12
3.4426e-12
3.74894e-12
3.71976e-12
3.96775e-12
3.63224e-12
3.9094e-12
3.96775e-12
3.83646e-12
4.2449e-12
3.95316e-12
3.98233e-12
3.74894e-12
3.66141e-12
3.83646e-12
3.45719e-12
3.36967e-12
3.53013e-12
3.45719e-12
3.10709e-12
3.16544e-12
2.88829e-12
2.757e-12
2.20268e-12
2.11516e-12
2.27562e-12
2.14433e-12
1.86717e-12
1.94011e-12
1.86717e-12
1.73589e-12
1.94011e-12
2.05681e-12
2.12975e-12
2.4069e-12
2.757e-12
2.65489e-12
2.94663e-12
2.85911e-12
3.29673e-12
3.36967e-12
3.51554e-12
3.35508e-12
4.04068e-12
3.61765e-12
3.85105e-12
3.9094e-12
4.31784e-12
3.89481e-12
4.41995e-12
3.73435e-12
4.20114e-12
3.26756e-12
4.12821e-12
3.10709e-12
3.76352e-12
3.03416e-12
3.34049e-12
2.81535e-12
2.69865e-12
2.31938e-12
2.17351e-12
1.79424e-12
1.7213e-12
1.51708e-12
1.70671e-12
1.64836e-12
1.70671e-12
1.6046e-12
1.66295e-12
1.70671e-12
1.94011e-12
2.0714e-12
2.24644e-12
2.61113e-12
2.85911e-12
2.74241e-12
2.72783e-12
2.93205e-12
2.72783e-12
3.10709e-12
3.29673e-12
3.42802e-12
3.4426e-12
3.34049e-12
3.5593e-12
3.70517e-12
3.96775e-12
3.9094e-12
3.63224e-12
3.86563e-12
4.08444e-12
3.83646e-12
3.89481e-12
3.29673e-12
3.23838e-12
3.26756e-12
2.757e-12
2.62571e-12
2.24644e-12
2.05681e-12
1.6046e-12
1.38579e-12
8.46063e-13
9.77349e-13
3.35508e-13
4.81381e-13
2.47984e-13
1.91064e-25
1.75048e-13
1.16698e-13
5.83492e-13
4.08444e-13
5.68905e-13
6.41841e-13
5.68905e-13
4.81381e-13
5.25143e-13
2.04222e-13
3.06333e-13
5.83492e-14
1.02111e-13
1.6046e-13
4.08444e-13
5.83492e-13
6.85603e-13
9.77349e-13
1.44414e-12
1.66295e-12
2.30479e-12
2.36314e-12
2.62571e-12
2.74241e-12
2.78617e-12
2.8737e-12
3.25297e-12
3.26756e-12
3.06333e-12
3.23838e-12
3.42802e-12
3.09251e-12
3.00498e-12
2.58195e-12
2.47984e-12
2.08598e-12
2.10057e-12
1.67754e-12
2.17351e-12
1.2691e-12
1.67754e-12
8.60651e-13
1.40038e-12
7.14778e-13
1.07946e-12
2.91746e-13
7.29365e-13
3.93857e-13
7.5854e-13
3.50095e-13
5.54317e-13
4.23032e-13
5.68905e-13
4.23032e-13
7.29365e-13
8.02302e-13
9.04413e-13
1.13781e-12
1.21075e-12
1.50249e-12
1.1524e-12
1.28368e-12
1.22533e-12
1.56084e-12
1.70671e-12
2.21727e-12
2.42149e-12
2.69865e-12
2.53819e-12
3.03416e-12
2.53819e-12
3.25297e-12
3.04875e-12
3.10709e-12
3.18003e-12
3.19462e-12
2.68406e-12
3.18003e-12
3.18003e-12
3.23838e-12
3.23838e-12
2.93205e-12
2.90287e-12
2.62571e-12
2.47984e-12
2.15892e-12
2.01305e-12
1.4879e-12
1.4879e-12
1.06487e-12
8.16889e-13
8.46063e-13
2.77159e-13
1.16698e-13
1.75048e-13
3.50095e-13
5.25143e-13
6.85603e-13
1.19616e-12
7.43952e-13
1.23992e-12
1.05029e-12
1.07946e-12
1.07946e-12
1.19616e-12
8.89825e-13
7.29365e-13
8.02302e-13
3.93857e-13
4.52206e-13
1.31286e-13
3.50095e-13
1.31286e-13
1.02111e-13
3.50095e-13
3.06333e-13
5.54317e-13
5.3973e-13
7.43952e-13
3.64683e-13
5.54317e-13
4.37619e-13
5.3973e-13
9.91936e-13
7.29365e-13
1.00652e-12
8.89825e-13
1.38579e-12
1.13781e-12
1.44414e-12
1.61919e-12
1.47332e-12
1.75048e-12
1.45873e-12
1.53167e-12
1.51708e-12
1.53167e-12
1.16698e-12
1.21075e-12
7.5854e-13
9.91936e-13
6.56429e-13
7.29365e-13
4.95968e-13
4.95968e-13
3.93857e-13
2.47984e-13
3.7927e-13
4.95968e-13
5.10556e-13
6.27254e-13
4.95968e-13
3.64683e-13
3.50095e-13
1.45873e-13
2.33397e-13
1.31286e-13
3.7927e-13
4.81381e-13
5.98079e-13
6.56429e-13
5.3973e-13
6.12667e-13
5.3973e-13
7.5854e-13
7.5854e-13
7.5854e-13
8.16889e-13
6.12667e-13
5.98079e-13
2.62571e-13
3.7927e-13
8.75238e-14
3.93857e-13
1.89635e-13
2.04222e-13
1.6046e-13
2.91746e-14
2.04222e-13
2.47984e-13
1.16698e-13
5.83492e-14
1.6046e-13
1.6046e-13
1.89635e-13
2.1881e-13
1.6046e-13
4.66794e-13
4.37619e-13
5.68905e-13
3.06333e-13
4.37619e-13
5.3973e-13
6.12667e-13
6.71016e-13
7.14778e-13
8.75238e-13
8.89825e-13
1.1524e-12
1.16698e-12
1.37121e-12
1.38579e-12
1.47332e-12
1.56084e-12
1.70671e-12
1.91094e-12
2.14433e-12
2.01305e-12
2.04222e-12
1.67754e-12
1.96929e-12
1.4879e-12
1.76506e-12
1.38579e-12
1.63378e-12
1.2691e-12
1.44414e-12
1.31286e-12
1.05029e-12
1.06487e-12
7.87714e-13
9.91936e-13
7.29365e-13
8.75238e-13
7.0019e-13
6.41841e-13
7.87714e-13
7.73127e-13
1.07946e-12
9.19e-13
1.1524e-12
9.48175e-13
1.50249e-12
1.00652e-12
1.40038e-12
9.04413e-13
1.10863e-12
7.14778e-13
1.09405e-12
8.31476e-13
1.10863e-12
7.0019e-13
1.09405e-12
6.41841e-13
8.16889e-13
4.52206e-13
6.56429e-13
5.25143e-13
6.27254e-13
7.87714e-13
8.31476e-13
8.75238e-13
1.02111e-12
9.77349e-13
8.46063e-13
1.25451e-12
1.02111e-12
1.00652e-12
9.19e-13
9.91936e-13
1.06487e-12
1.09405e-12
1.07946e-12
1.2691e-12
1.31286e-12
1.4879e-12
1.34203e-12
1.42956e-12
1.21075e-12
1.37121e-12
1.18157e-12
1.05029e-12
7.87714e-13
9.33587e-13
8.46063e-13
8.16889e-13
9.62762e-13
8.46063e-13
9.48175e-13
7.43952e-13
7.5854e-13
5.83492e-13
4.81381e-13
1.75048e-13
4.08444e-13
2.62571e-13
3.20921e-13
4.95968e-13
3.50095e-13
5.68905e-13
5.83492e-13
8.46063e-13
8.31476e-13
1.00652e-12
8.02302e-13
7.73127e-13
9.91936e-13
1.02111e-12
1.10863e-12
1.57543e-12
1.40038e-12
1.838e-12
1.4879e-12
1.63378e-12
1.21075e-12
1.40038e-12
8.75238e-13
9.33587e-13
6.56429e-13
5.83492e-13
6.27254e-13
4.66794e-13
2.77159e-13
1.31286e-13
2.91746e-14
2.62571e-13
2.1881e-13
1.6046e-13
2.47984e-13
2.62571e-13
5.83492e-14
4.08444e-13
1.6046e-13
2.62571e-13
2.62571e-13
4.37619e-13
5.83492e-14
2.62571e-13
2.04222e-13
4.37619e-14
5.54317e-13
5.54317e-13
1.02111e-12
1.13781e-12
1.07946e-12
1.29827e-12
1.18157e-12
1.50249e-12
1.2691e-12
1.9547e-12
1.35662e-12
2.11516e-12
1.61919e-12
1.73589e-12
1.34203e-12
1.7213e-12
1.25451e-12
1.42956e-12
9.62762e-13
8.31476e-13
8.02302e-13
7.43952e-13
4.66794e-13
2.33397e-13
1.45873e-13
2.47984e-13
1.45873e-14
4.23032e-13
3.20921e-13
4.08444e-13
3.35508e-13
5.98079e-13
5.3973e-13
1.09405e-12
1.13781e-12
1.38579e-12
1.51708e-12
1.7213e-12
1.89635e-12
1.6046e-12
1.66295e-12
1.88176e-12
1.91094e-12
1.79424e-12
1.91094e-12
1.67754e-12
1.53167e-12
1.6046e-12
1.64836e-12
1.41497e-12
1.6046e-12
1.29827e-12
1.07946e-12
1.09405e-12
1.02111e-12
6.85603e-13
4.81381e-13
4.66794e-13
3.93857e-13
4.23032e-13
8.75238e-14
1.45873e-14
1.6046e-13
2.91746e-13
3.35508e-13
4.95968e-13
4.81381e-13
5.3973e-13
2.62571e-13
6.41841e-13
7.14778e-13
9.62762e-13
5.83492e-13
1.0357e-12
7.5854e-13
9.48175e-13
8.75238e-13
8.89825e-13
8.75238e-13
1.34203e-12
1.40038e-12
1.45873e-12
1.70671e-12
1.51708e-12
1.31286e-12
1.53167e-12
1.16698e-12
1.45873e-12
1.53167e-12
1.64836e-12
1.50249e-12
1.86717e-12
1.13781e-12
1.35662e-12
1.13781e-12
1.1524e-12
9.19e-13
9.91936e-13
7.43952e-13
7.73127e-13
3.7927e-13
5.10556e-13
3.20921e-13
7.14778e-13
1.89635e-13
4.66794e-13
1.45873e-14
1.02111e-13
4.52206e-13
3.64683e-13
6.56429e-13
2.33397e-13
3.06333e-13
3.20921e-13
4.37619e-14
2.91746e-14
2.1881e-13
1.45873e-13
4.37619e-14
2.25286e-25
3.50095e-13
3.64683e-13
6.56429e-13
6.27254e-13
8.46063e-13
8.60651e-13
9.33587e-13
8.89825e-13
8.16889e-13
1.19616e-12
1.21075e-12
1.12322e-12
1.10863e-12
5.10556e-13
7.0019e-13
2.62571e-13
4.66794e-13
4.95968e-13
3.7927e-13
5.25143e-13
6.27254e-13
8.16889e-13
6.71016e-13
7.73127e-13
6.27254e-13
7.5854e-13
7.14778e-13
8.02302e-13
8.31476e-13
1.13781e-12
1.07946e-12
1.41497e-12
1.56084e-12
1.4879e-12
1.75048e-12
1.89635e-12
2.1881e-12
2.30479e-12
2.29021e-12
2.68406e-12
2.33397e-12
2.27562e-12
2.30479e-12
2.11516e-12
2.23186e-12
2.39232e-12
2.26103e-12
2.04222e-12
2.10057e-12
2.02763e-12
1.66295e-12
1.7213e-12
1.69213e-12
1.73589e-12
1.23992e-12
1.45873e-12
1.12322e-12
9.91936e-13
9.19e-13
8.60651e-13
6.41841e-13
5.83492e-13
7.73127e-13
4.37619e-13
5.68905e-13
1.45873e-13
2.33397e-13
4.08444e-13
6.56429e-13
4.23032e-13
7.14778e-13
3.20921e-13
5.54317e-13
2.91746e-13
4.66794e-13
2.47984e-13
5.3973e-13
4.66794e-13
6.41841e-13
6.12667e-13
6.56429e-13
9.19e-13
8.89825e-13
7.73127e-13
9.04413e-13
7.73127e-13
8.89825e-13
1.02111e-12
6.27254e-13
8.31476e-13
8.75238e-13
9.19e-13
8.75238e-13
1.07946e-12
1.10863e-12
1.0357e-12
1.05029e-12
1.06487e-12
9.62762e-13
1.05029e-12
1.16698e-12
1.16698e-12
1.16698e-12
1.37121e-12
1.34203e-12
1.50249e-12
1.4879e-12
1.77965e-12
1.38579e-12
1.31286e-12
1.31286e-12
1.29827e-12
1.31286e-12
1.13781e-12
1.29827e-12
9.33587e-13
1.07946e-12
7.5854e-13
5.68905e-13
7.14778e-13
6.27254e-13
4.37619e-13
2.91746e-13
4.66794e-13
3.50095e-13
4.66794e-13
4.95968e-13
3.7927e-13
6.27254e-13
6.41841e-13
7.0019e-13
9.33587e-13
7.5854e-13
9.33587e-13
7.87714e-13
1.18157e-12
9.91936e-13
1.19616e-12
1.19616e-12
1.7213e-12
1.29827e-12
1.70671e-12
1.59002e-12
1.56084e-12
1.6046e-12
1.76506e-12
1.59002e-12
1.50249e-12
1.4879e-12
1.22533e-12
1.47332e-12
1.38579e-12
1.50249e-12
1.2691e-12
1.19616e-12
9.19e-13
1.09405e-12
6.71016e-13
6.85603e-13
4.08444e-13
4.08444e-13
1.45873e-14
5.83492e-14
1.75048e-13
1.45873e-14
2.04222e-13
2.91746e-14
8.75238e-14
4.37619e-13
5.54317e-13
6.56429e-13
4.08444e-13
8.60651e-13
5.10556e-13
9.33587e-13
8.60651e-13
1.02111e-12
9.19e-13
1.18157e-12
1.05029e-12
1.23992e-12
1.37121e-12
1.73589e-12
1.96929e-12
2.04222e-12
2.27562e-12
2.10057e-12
1.88176e-12
1.75048e-12
1.69213e-12
1.54625e-12
1.4879e-12
1.07946e-12
8.02302e-13
4.81381e-13
2.62571e-13
5.83492e-14
8.75238e-14
3.35508e-13
2.77159e-13
5.3973e-13
2.91746e-13
6.85603e-13
3.7927e-13
4.23032e-13
2.47984e-13
1.89635e-13
4.37619e-14
2.91746e-14
3.06333e-13
3.93857e-13
7.87714e-13
6.56429e-13
1.23992e-12
1.00652e-12
1.45873e-12
1.12322e-12
1.4879e-12
1.23992e-12
1.66295e-12
1.47332e-12
2.08598e-12
1.9547e-12
2.46525e-12
2.50902e-12
2.55278e-12
2.58195e-12
2.71324e-12
2.6403e-12
2.82994e-12
2.74241e-12
2.56736e-12
2.85911e-12
2.46525e-12
2.62571e-12
2.84452e-12
2.47984e-12
2.71324e-12
2.36314e-12
2.53819e-12
2.20268e-12
2.62571e-12
2.36314e-12
2.49443e-12
2.45067e-12
2.4069e-12
2.72783e-12
2.53819e-12
2.59654e-12
2.42149e-12
2.5236e-12
2.33397e-12
2.49443e-12
2.29021e-12
2.31938e-12
2.37773e-12
2.59654e-12
2.66948e-12
2.46525e-12
2.21727e-12
2.50902e-12
2.01305e-12
2.26103e-12
2.04222e-12
2.01305e-12
1.76506e-12
1.7213e-12
1.67754e-12
1.64836e-12
1.42956e-12
1.57543e-12
1.54625e-12
1.31286e-12
1.31286e-12
1.22533e-12
1.13781e-12
1.37121e-12
1.00652e-12
1.10863e-12
9.48175e-13
1.40038e-12
1.13781e-12
1.54625e-12
1.45873e-12
1.54625e-12
1.41497e-12
1.23992e-12
1.05029e-12
1.06487e-12
8.60651e-13
8.16889e-13
8.31476e-13
4.95968e-13
3.35508e-13
1.02111e-13
1.89635e-13
8.75238e-14
1.16698e-13
4.37619e-14
2.91746e-13
1.45873e-13
6.56429e-13
7.0019e-13
8.60651e-13
6.71016e-13
9.62762e-13
7.73127e-13
9.77349e-13
9.33587e-13
1.07946e-12
9.33587e-13
1.19616e-12
1.06487e-12
1.42956e-12
1.54625e-12
1.77965e-12
1.69213e-12
1.91094e-12
1.4879e-12
1.50249e-12
1.06487e-12
1.25451e-12
8.31476e-13
9.91936e-13
6.41841e-13
7.5854e-13
4.81381e-13
7.0019e-13
4.37619e-13
3.7927e-13
4.95968e-13
1.45873e-14
1.6046e-13
5.83492e-14
5.83492e-14
3.50095e-13
5.83492e-14
4.66794e-13
4.37619e-14
1.45873e-13
4.23032e-13
3.06333e-13
4.95968e-13
3.20921e-13
7.43952e-13
3.7927e-13
6.12667e-13
7.5854e-13
1.13781e-12
1.18157e-12
1.42956e-12
1.4879e-12
1.50249e-12
1.96929e-12
1.64836e-12
1.76506e-12
2.04222e-12
1.85259e-12
2.36314e-12
2.20268e-12
2.20268e-12
2.0714e-12
2.30479e-12
1.99846e-12
1.98387e-12
1.61919e-12
1.75048e-12
1.28368e-12
1.19616e-12
1.05029e-12
8.60651e-13
8.46063e-13
6.71016e-13
6.85603e-13
3.7927e-13
8.16889e-13
6.71016e-13
8.75238e-13
7.43952e-13
5.83492e-13
1.75048e-13
2.1881e-13
1.75048e-13
2.04222e-13
3.7927e-13
3.93857e-13
5.83492e-13
3.93857e-13
4.81381e-13
2.33397e-13
4.66794e-13
3.7927e-13
5.25143e-13
6.27254e-13
2.47984e-13
2.33397e-13
1.16698e-13
2.62571e-13
7.0019e-13
4.23032e-13
8.31476e-13
8.02302e-13
1.00652e-12
9.62762e-13
1.2691e-12
1.05029e-12
1.05029e-12
1.12322e-12
9.77349e-13
1.13781e-12
1.19616e-12
1.13781e-12
1.05029e-12
9.62762e-13
1.00652e-12
7.0019e-13
5.68905e-13
6.41841e-13
3.64683e-13
2.47984e-13
1.45873e-13
2.91746e-14
2.91746e-14
1.89635e-13
2.91746e-14
8.75238e-14
4.37619e-13
3.7927e-13
4.95968e-13
7.0019e-13
9.48175e-13
1.07946e-12
1.44414e-12
1.86717e-12