/*--------------------------------*- C++ -*----------------------------------*\
| =========                 |                                                 |
| \\      /  F ield         | OpenFOAM: The Open Source CFD Toolbox           |
|  \\    /   O peration     | Version:  4.0                                   |
|   \\  /    A nd           | Web:      www.OpenFOAM.org                      |
|    \\/     M anipulation  |                                                 |
\*---------------------------------------------------------------------------*/
FoamFile
{
    version     2.0;
    format      ascii;
    class       volVectorField;
    location    "18";
    object      U;
}
// * * * * * * * * * * * * * * * * * * * * * * * * * * * * * * * * * * * * * //

dimensions      [0 1 -1 0 0 0 0];

internalField   nonuniform List<vector> 
2200
(
(0.878605 -0.0303699 0)
(1.00565 -0.0513015 0)
(1.00281 -0.0353642 0)
(0.99985 -0.0244289 0)
(0.999665 -0.0167068 0)
(1.00003 -0.0108796 0)
(1.00021 -0.00691069 0)
(1.00025 -0.00408464 0)
(1.00023 -0.0020931 0)
(1.00016 -0.000642501 0)
(1.00011 0.000756209 0)
(1.00024 0.00228274 0)
(1.00027 0.00425779 0)
(1.00026 0.00711305 0)
(1.00007 0.0110197 0)
(0.999696 0.0168259 0)
(0.999888 0.0245116 0)
(1.00285 0.0354322 0)
(1.00565 0.0513209 0)
(0.878592 0.0303923 0)
(0.712397 -0.0327092 0)
(0.996706 -0.0628015 0)
(1.03386 -0.0559719 0)
(1.02517 -0.045961 0)
(1.01569 -0.0354045 0)
(1.00942 -0.0256067 0)
(1.00584 -0.0176017 0)
(1.00376 -0.0113057 0)
(1.00248 -0.00609714 0)
(1.00198 -0.00171264 0)
(1.00193 0.00241307 0)
(1.00245 0.00675072 0)
(1.00374 0.0118932 0)
(1.00573 0.0180164 0)
(1.00927 0.0259843 0)
(1.01554 0.0356955 0)
(1.02501 0.0461881 0)
(1.03366 0.0561185 0)
(0.996571 0.0629506 0)
(0.712228 0.0327343 0)
(0.536234 -0.0238748 0)
(0.970305 -0.0567359 0)
(1.05657 -0.0543353 0)
(1.05281 -0.048606 0)
(1.03694 -0.0401819 0)
(1.02464 -0.0317245 0)
(1.01571 -0.0235634 0)
(1.00996 -0.0159532 0)
(1.00672 -0.00901696 0)
(1.00543 -0.00263679 0)
(1.00542 0.00373174 0)
(1.00668 0.00998142 0)
(1.00975 0.0167503 0)
(1.01547 0.0242907 0)
(1.0244 0.0323005 0)
(1.0367 0.0406989 0)
(1.05257 0.0490515 0)
(1.05634 0.0547056 0)
(0.969832 0.0569591 0)
(0.535575 0.0239458 0)
(0.39348 -0.0133956 0)
(0.9123 -0.0459024 0)
(1.05795 -0.0465197 0)
(1.0696 -0.043822 0)
(1.05514 -0.0380038 0)
(1.03938 -0.0314941 0)
(1.02753 -0.0247149 0)
(1.01918 -0.0173494 0)
(1.01402 -0.00997133 0)
(1.01161 -0.00275141 0)
(1.01149 0.00433836 0)
(1.01372 0.0114347 0)
(1.01882 0.0186284 0)
(1.02713 0.0258036 0)
(1.03895 0.0325041 0)
(1.05473 0.0388357 0)
(1.06908 0.0444965 0)
(1.05713 0.0470394 0)
(0.911141 0.0461899 0)
(0.392126 0.0134756 0)
(0.311497 -0.00418292 0)
(0.849695 -0.0312678 0)
(1.04996 -0.0381721 0)
(1.07884 -0.0363512 0)
(1.06776 -0.032121 0)
(1.05169 -0.027043 0)
(1.03814 -0.0220714 0)
(1.02761 -0.0163271 0)
(1.02064 -0.00979906 0)
(1.0171 -0.00253409 0)
(1.0169 0.00469121 0)
(1.02018 0.0118542 0)
(1.02699 0.0181865 0)
(1.03743 0.0237343 0)
(1.05088 0.0283639 0)
(1.06681 0.0331886 0)
(1.07777 0.037174 0)
(1.04861 0.0387763 0)
(0.847655 0.0315904 0)
(0.309493 0.0042503 0)
(0.270182 0.000343786 0)
(0.795168 -0.0190015 0)
(1.03566 -0.0292762 0)
(1.0834 -0.029449 0)
(1.07629 -0.0260318 0)
(1.06037 -0.0216669 0)
(1.04704 -0.017696 0)
(1.03618 -0.0132326 0)
(1.02815 -0.00810202 0)
(1.02344 -0.00186255 0)
(1.02327 0.00459331 0)
(1.02762 0.0105909 0)
(1.03527 0.0154073 0)
(1.04584 0.0194811 0)
(1.05902 0.0232182 0)
(1.07493 0.027358 0)
(1.08179 0.0305484 0)
(1.03352 0.0301057 0)
(0.792046 0.0193925 0)
(0.267469 -0.000269826 0)
(0.248162 0.00137677 0)
(0.747207 -0.0112018 0)
(1.01788 -0.0231021 0)
(1.08447 -0.024423 0)
(1.08182 -0.0216916 0)
(1.06636 -0.0177989 0)
(1.05342 -0.0140722 0)
(1.04333 -0.0100801 0)
(1.03549 -0.00576146 0)
(1.03063 -0.000891538 0)
(1.03034 0.00445576 0)
(1.03465 0.00900752 0)
(1.04204 0.0129393 0)
(1.05187 0.0166266 0)
(1.06474 0.0199743 0)
(1.07995 0.023483 0)
(1.08222 0.0259091 0)
(1.01452 0.0241709 0)
(0.742321 0.0116609 0)
(0.244521 -0.00126179 0)
(0.237014 0.00120001 0)
(0.708718 -0.00576881 0)
(0.998653 -0.0170096 0)
(1.08291 -0.0190051 0)
(1.0852 -0.0173859 0)
(1.07054 -0.0145121 0)
(1.05701 -0.0113574 0)
(1.04649 -0.00798839 0)
(1.03881 -0.00414237 0)
(1.03449 -7.31497e-05 0)
(1.03396 0.00460854 0)
(1.03745 0.00840794 0)
(1.04453 0.0118396 0)
(1.0548 0.014617 0)
(1.06793 0.0171627 0)
(1.08236 0.0196116 0)
(1.07952 0.0207508 0)
(0.993815 0.0181541 0)
(0.702202 0.00626527 0)
(0.232393 -0.00105962 0)
(0.233407 0.00082348 0)
(0.684329 -0.00165202 0)
(0.982017 -0.0098342 0)
(1.07913 -0.0119477 0)
(1.08621 -0.0117799 0)
(1.07227 -0.010291 0)
(1.05826 -0.00870512 0)
(1.0476 -0.00620944 0)
(1.04007 -0.0029208 0)
(1.03597 0.000794326 0)
(1.03533 0.00502395 0)
(1.03843 0.00833099 0)
(1.0453 0.0110125 0)
(1.05498 0.0126766 0)
(1.06897 0.0136485 0)
(1.08234 0.0145195 0)
(1.0743 0.0140439 0)
(0.975125 0.0112128 0)
(0.675845 0.00226002 0)
(0.227413 -0.000695222 0)
(0.233762 0.00054744 0)
(0.673034 0.000357133 0)
(0.969801 -0.00435487 0)
(1.0749 -0.00635408 0)
(1.08632 -0.00701755 0)
(1.0741 -0.00661097 0)
(1.06031 -0.0058768 0)
(1.04981 -0.00424405 0)
(1.04215 -0.00165315 0)
(1.03788 0.0017179 0)
(1.03709 0.00535849 0)
(1.03996 0.00813139 0)
(1.04653 0.00996548 0)
(1.05672 0.0107348 0)
(1.06971 0.0107564 0)
(1.08104 0.0102545 0)
(1.06852 0.00883369 0)
(0.9612 0.00602769 0)
(0.662245 0.000429244 0)
(0.226435 -0.000301932 0)
(0.235584 0.000189233 0)
(0.669135 0.000657806 0)
(0.963027 -0.00174407 0)
(1.07188 -0.00354234 0)
(1.08612 -0.00446456 0)
(1.07576 -0.0045672 0)
(1.06344 -0.00399227 0)
(1.05385 -0.00247618 0)
(1.04665 -0.000235498 0)
(1.04217 0.00283965 0)
(1.04088 0.00593838 0)
(1.04321 0.0083618 0)
(1.04905 0.00969174 0)
(1.05752 0.0106274 0)
(1.0691 0.00977089 0)
(1.07904 0.00869698 0)
(1.0633 0.00686837 0)
(0.951563 0.0039678 0)
(0.655567 0.000354607 0)
(0.226087 2.11931e-05 0)
(0.236844 -5.99126e-06 0)
(0.668526 0.00068017 0)
(0.959128 -0.000601768 0)
(1.06911 -0.00244117 0)
(1.08515 -0.00354138 0)
(1.07601 -0.00375588 0)
(1.06527 -0.00336682 0)
(1.0567 -0.00153241 0)
(1.05027 0.000941329 0)
(1.04609 0.00426559 0)
(1.04455 0.00732653 0)
(1.0461 0.00979127 0)
(1.05055 0.0108975 0)
(1.05727 0.0109924 0)
(1.06793 0.0100658 0)
(1.0758 0.00866356 0)
(1.05785 0.0063917 0)
(0.943967 0.0033659 0)
(0.650822 0.000709612 0)
(0.225064 0.000157248 0)
(0.238268 0.00019507 0)
(0.668922 0.00087977 0)
(0.955203 0.000444331 0)
(1.06561 -0.00100434 0)
(1.08274 -0.0023306 0)
(1.07535 -0.00294522 0)
(1.06553 -0.00233811 0)
(1.05765 -0.00056622 0)
(1.0516 0.00204792 0)
(1.04744 0.00556695 0)
(1.04562 0.00874162 0)
(1.0466 0.0112856 0)
(1.05018 0.0122365 0)
(1.05627 0.0120017 0)
(1.06506 0.011039 0)
(1.07073 0.00889005 0)
(1.05098 0.00602785 0)
(0.93644 0.002855 0)
(0.646168 0.000759109 0)
(0.223153 0.000181459 0)
(0.240363 0.000343313 0)
(0.670422 0.00118009 0)
(0.953397 0.00181309 0)
(1.06217 0.000396471 0)
(1.08055 -0.00079938 0)
(1.07507 -0.00146532 0)
(1.0666 -0.000680308 0)
(1.05946 0.00119341 0)
(1.05359 0.00394767 0)
(1.04912 0.00743082 0)
(1.04682 0.0104828 0)
(1.04718 0.0127469 0)
(1.04991 0.0134054 0)
(1.05488 0.0130738 0)
(1.06154 0.0114922 0)
(1.06502 0.00876394 0)
(1.04365 0.00552271 0)
(0.9297 0.00243009 0)
(0.642423 0.000741824 0)
(0.221571 0.000180111 0)
(0.243598 0.00037108 0)
(0.674354 0.00152134 0)
(0.953785 0.00262059 0)
(1.05967 0.00208736 0)
(1.07904 0.00137524 0)
(1.07562 0.000919352 0)
(1.069 0.00177789 0)
(1.06282 0.00363137 0)
(1.0572 0.00639167 0)
(1.05231 0.00969614 0)
(1.04912 0.01253 0)
(1.04841 0.0142533 0)
(1.04983 0.0145912 0)
(1.05334 0.0137875 0)
(1.05774 0.0119344 0)
(1.05901 0.0091238 0)
(1.0362 0.00584 0)
(0.923049 0.00282251 0)
(0.638169 0.0010945 0)
(0.219487 0.000273521 0)
(0.246751 0.000369805 0)
(0.678378 0.00174965 0)
(0.955218 0.00316451 0)
(1.05925 0.00331405 0)
(1.0786 0.00305319 0)
(1.07652 0.00329819 0)
(1.07131 0.00468841 0)
(1.06592 0.00685277 0)
(1.06053 0.00975906 0)
(1.0553 0.0129041 0)
(1.05126 0.0153987 0)
(1.04947 0.0164061 0)
(1.04955 0.0161733 0)
(1.05156 0.0146763 0)
(1.054 0.0123816 0)
(1.05337 0.00933437 0)
(1.02941 0.00610841 0)
(0.917006 0.00329369 0)
(0.633745 0.00147295 0)
(0.216826 0.000352453 0)
(0.251402 0.000496435 0)
(0.685697 0.00227919 0)
(0.958759 0.00423506 0)
(1.06013 0.00513474 0)
(1.07932 0.00564347 0)
(1.07821 0.00649886 0)
(1.07387 0.0081254 0)
(1.06885 0.0105323 0)
(1.06334 0.0135525 0)
(1.0575 0.0165686 0)
(1.05241 0.018657 0)
(1.04929 0.0189655 0)
(1.04805 0.0179425 0)
(1.04834 0.0160006 0)
(1.04918 0.013364 0)
(1.0471 0.0102658 0)
(1.0224 0.00712986 0)
(0.910293 0.00421675 0)
(0.627604 0.00192024 0)
(0.213057 0.000443245 0)
(0.25605 0.000645527 0)
(0.691807 0.00269424 0)
(0.963098 0.00524718 0)
(1.06265 0.0068106 0)
(1.08152 0.00840342 0)
(1.08083 0.0101692 0)
(1.07684 0.0126055 0)
(1.07181 0.0154676 0)
(1.06581 0.0185905 0)
(1.05898 0.0213932 0)
(1.05254 0.0228342 0)
(1.04799 0.0223127 0)
(1.04553 0.0203713 0)
(1.0445 0.0177191 0)
(1.04412 0.0144354 0)
(1.04088 0.0110099 0)
(1.01526 0.0076625 0)
(0.902838 0.0047364 0)
(0.620636 0.00224257 0)
(0.208719 0.000515618 0)
(0.263688 0.000879892 0)
(0.703589 0.00375663 0)
(0.971502 0.00734179 0)
(1.06751 0.00998717 0)
(1.08545 0.0120847 0)
(1.08487 0.0146012 0)
(1.0809 0.0176092 0)
(1.07556 0.020985 0)
(1.0688 0.0244432 0)
(1.0607 0.0271296 0)
(1.05264 0.0279108 0)
(1.04645 0.0264732 0)
(1.04257 0.0235788 0)
(1.04019 0.0201566 0)
(1.03859 0.0164535 0)
(1.03437 0.0128388 0)
(1.00813 0.00942799 0)
(0.895123 0.00609977 0)
(0.612238 0.00284203 0)
(0.203264 0.000630655 0)
(0.27169 0.00116181 0)
(0.714653 0.00447414 0)
(0.980356 0.00880839 0)
(1.0743 0.0122596 0)
(1.09147 0.0158577 0)
(1.09053 0.0196687 0)
(1.08607 0.02376 0)
(1.07985 0.0280429 0)
(1.07178 0.0319475 0)
(1.06185 0.0345899 0)
(1.0517 0.0346534 0)
(1.0436 0.0321571 0)
(1.03816 0.0282985 0)
(1.03451 0.0239321 0)
(1.03187 0.019461 0)
(1.02672 0.0151152 0)
(0.999146 0.0109236 0)
(0.884362 0.0071209 0)
(0.601218 0.00338707 0)
(0.196634 0.00076896 0)
(0.284546 0.00154095 0)
(0.733121 0.00647195 0)
(0.994107 0.0122728 0)
(1.08376 0.0170708 0)
(1.09928 0.0211522 0)
(1.09778 0.0260129 0)
(1.09237 0.0311824 0)
(1.08488 0.0363248 0)
(1.07499 0.0407707 0)
(1.06281 0.0433423 0)
(1.05028 0.0426273 0)
(1.04017 0.0389215 0)
(1.03316 0.0338328 0)
(1.02832 0.0283517 0)
(1.02473 0.0230256 0)
(1.01875 0.0182067 0)
(0.990327 0.0137792 0)
(0.874193 0.00921451 0)
(0.589389 0.00431687 0)
(0.18868 0.000927275 0)
(0.298956 0.00213713 0)
(0.753479 0.00755845 0)
(1.01016 0.0149579 0)
(1.09606 0.0210707 0)
(1.11016 0.0273437 0)
(1.10724 0.0340365 0)
(1.10029 0.040652 0)
(1.09071 0.0470145 0)
(1.07833 0.052198 0)
(1.06326 0.0546654 0)
(1.04777 0.0530593 0)
(1.03521 0.0480432 0)
(1.02629 0.0416619 0)
(1.01998 0.0349512 0)
(1.01532 0.028531 0)
(1.00826 0.0223178 0)
(0.977573 0.0163722 0)
(0.857516 0.0107722 0)
(0.571729 0.0050431 0)
(0.178489 0.00110909 0)
(0.32064 0.00305386 0)
(0.781861 0.0116989 0)
(1.03219 0.020949 0)
(1.11245 0.0291329 0)
(1.12376 0.0362961 0)
(1.11907 0.0447039 0)
(1.10979 0.0529218 0)
(1.09735 0.0605262 0)
(1.08173 0.0661276 0)
(1.06307 0.0682073 0)
(1.04421 0.0653673 0)
(1.02904 0.0586548 0)
(1.01823 0.0505333 0)
(1.01056 0.0421621 0)
(1.00476 0.0342365 0)
(0.996608 0.0272252 0)
(0.964598 0.0206501 0)
(0.843036 0.0138826 0)
(0.554996 0.0064578 0)
(0.167226 0.0012908 0)
(0.350534 0.00421425 0)
(0.820979 0.0142099 0)
(1.06032 0.0274831 0)
(1.13281 0.0379843 0)
(1.14151 0.0480231 0)
(1.13354 0.0593763 0)
(1.1209 0.0692598 0)
(1.10474 0.0779 0)
(1.08508 0.0836956 0)
(1.06233 0.0849837 0)
(1.03968 0.0804837 0)
(1.02152 0.0718338 0)
(1.00841 0.0619076 0)
(0.998998 0.0520537 0)
(0.991892 0.0427471 0)
(0.98205 0.0338016 0)
(0.946172 0.0252338 0)
(0.816839 0.0165469 0)
(0.526579 0.00738779 0)
(0.15174 0.00146809 0)
(0.386678 0.0082947 0)
(0.867229 0.0239798 0)
(1.09626 0.0395528 0)
(1.15903 0.0530303 0)
(1.16329 0.0664982 0)
(1.15061 0.079611 0)
(1.13336 0.0907811 0)
(1.11236 0.0999556 0)
(1.08782 0.105225 0)
(1.06023 0.104981 0)
(1.03322 0.0983388 0)
(1.01181 0.0873964 0)
(0.996404 0.0752825 0)
(0.985202 0.0631952 0)
(0.976489 0.0518717 0)
(0.964878 0.0414562 0)
(0.926226 0.0312423 0)
(0.795527 0.020989 0)
(0.503783 0.00971667 0)
(0.13778 0.00151432 0)
(0.471364 0.0118555 0)
(0.94324 0.0337925 0)
(1.14404 0.0590577 0)
(1.19145 0.0761407 0)
(1.18907 0.0935479 7.05075e-35)
(1.16953 0.107961 -4.79594e-35)
(1.14618 0.119859 0)
(1.11939 0.128296 0)
(1.08939 0.131867 0)
(1.05663 0.129236 0)
(1.02541 0.119572 0)
(1.00073 0.10564 0)
(0.982693 0.0911259 0)
(0.969394 0.0773086 0)
(0.958777 0.0643329 0)
(0.944411 0.0521229 0)
(0.899966 0.0399881 0)
(0.755444 0.0265412 0)
(0.454341 0.0106929 0)
(0.11229 0.00135964 0)
(0.536039 0.0271143 -7.76512e-21)
(1.02977 0.0584732 5.21512e-21)
(1.19692 0.0914233 0)
(1.22735 0.112212 7.69651e-22)
(1.21546 0.132289 -6.23704e-22)
(1.18808 0.146331 5.05989e-35)
(1.15825 0.156948 0)
(1.12519 0.163536 4.72153e-21)
(1.08899 0.164841 -1.69445e-20)
(1.05023 0.15926 3.74919e-21)
(1.01359 0.146347 0)
(0.984562 0.129791 -1.23528e-20)
(0.963256 0.113075 -1.548e-20)
(0.94706 0.0969945 2.72283e-20)
(0.933416 0.0820785 -2.19086e-20)
(0.914499 0.0675564 0)
(0.8605 0.0519319 -8.44892e-21)
(0.703057 0.0351498 0)
(0.408718 0.0176991 -4.56926e-20)
(0.0949817 0.00251745 5.42166e-20)
(0.561065 0.0543005 -1.19585e-22)
(1.07848 0.10331 -4.62284e-20)
(1.23957 0.143513 1.21873e-20)
(1.26013 0.161514 1.78365e-20)
(1.23903 0.180349 -5.55711e-22)
(1.20458 0.192162 1.62774e-21)
(1.16813 0.200896 0)
(1.12842 0.205644 0)
(1.08575 0.204783 2.64672e-20)
(1.04085 0.196672 0)
(0.998695 0.181368 4.23091e-20)
(0.964881 0.162486 1.32526e-20)
(0.938721 0.143907 3.74605e-22)
(0.918082 0.126776 -3.05738e-20)
(0.900407 0.110937 0)
(0.877896 0.0966524 0)
(0.822852 0.0800204 -1.43157e-19)
(0.673795 0.0606471 3.59967e-19)
(0.397375 0.0317655 -2.13954e-19)
(0.0964206 0.00937439 -2.54884e-19)
(0.563068 0.0824087 8.05263e-20)
(1.10604 0.162023 -2.35231e-20)
(1.2711 0.207397 -6.20496e-21)
(1.28637 0.221835 -3.41667e-20)
(1.25799 0.236621 1.36208e-20)
(1.21743 0.244337 1.02249e-21)
(1.17462 0.250024 3.69328e-21)
(1.12868 0.251775 0)
(1.08006 0.247837 -5.46445e-20)
(1.02902 0.236588 6.12963e-20)
(0.980533 0.218211 -1.15662e-19)
(0.941209 0.197489 5.64768e-20)
(0.911843 0.178585 -4.18832e-20)
(0.888603 0.161569 9.16515e-20)
(0.868043 0.146215 0)
(0.843635 0.131793 -3.61244e-20)
(0.790955 0.116628 0)
(0.654883 0.0906573 2.06931e-19)
(0.399183 0.0545691 -4.91193e-19)
(0.110042 0.0159006 3.08436e-19)
(0.549484 0.113844 -3.78532e-19)
(1.11904 0.222066 1.51236e-19)
(1.29014 0.276138 2.427e-20)
(1.30391 0.286981 0)
(1.27064 0.297596 1.87931e-20)
(1.2254 0.300771 -2.04243e-20)
(1.17731 0.302615 -3.77407e-21)
(1.12617 0.300449 0)
(1.07237 0.292759 3.85093e-20)
(1.01605 0.278037 -4.20373e-20)
(0.963574 0.257176 1.01496e-19)
(0.921552 0.235044 0)
(0.887732 0.214753 -8.81012e-20)
(0.86048 0.19759 4.85432e-20)
(0.838383 0.182766 1.32231e-19)
(0.81403 0.168525 -1.16294e-19)
(0.765268 0.152172 1.93124e-19)
(0.642158 0.123244 -4.29647e-19)
(0.406934 0.0777877 2.73005e-19)
(0.121133 0.0244718 -3.42987e-19)
(0.530494 0.138162 2.32874e-19)
(1.11893 0.277628 -1.71581e-19)
(1.29925 0.344039 7.58231e-20)
(1.31336 0.352453 -1.04384e-19)
(1.27662 0.359918 7.04497e-20)
(1.22812 0.358897 -1.18191e-20)
(1.17615 0.356716 3.71113e-21)
(1.12092 0.350426 -2.41096e-20)
(1.0626 0.338968 -3.8145e-20)
(1.00136 0.320927 -9.01201e-20)
(0.943464 0.296975 -2.1889e-19)
(0.896098 0.272195 -7.38725e-20)
(0.861865 0.251521 2.80837e-21)
(0.835711 0.233611 -1.74571e-19)
(0.813418 0.218796 -6.29946e-21)
(0.79005 0.20414 1.70496e-19)
(0.745673 0.18729 -5.30378e-20)
(0.633157 0.155711 -3.11727e-20)
(0.410313 0.100956 0)
(0.126994 0.0323694 7.32924e-19)
(0.510622 0.160226 0)
(1.11005 0.329303 5.2983e-20)
(1.30085 0.408526 3.67532e-20)
(1.31647 0.416334 -1.21205e-20)
(1.27713 0.421805 -8.55065e-20)
(1.22633 0.416861 1.87339e-20)
(1.17147 0.410833 3.49752e-22)
(1.11289 0.400618 4.37571e-20)
(1.05068 0.3854 -2.30173e-20)
(0.98553 0.363543 3.941e-20)
(0.925259 0.335764 1.18009e-19)
(0.878431 0.309685 1.63605e-19)
(0.841772 0.287042 -1.0219e-19)
(0.812812 0.268002 1.89103e-19)
(0.790409 0.251948 -1.51966e-19)
(0.768419 0.23864 0)
(0.727571 0.22008 -4.06376e-19)
(0.622961 0.187055 5.46332e-19)
(0.40903 0.121581 4.14236e-20)
(0.128171 0.0393456 -7.72723e-19)
(0.493779 0.180992 -5.73342e-21)
(1.0991 0.378754 -3.61518e-19)
(1.29706 0.469867 -2.76719e-19)
(1.31405 0.477578 2.30784e-19)
(1.27264 0.481639 -5.08308e-20)
(1.22052 0.473322 2.78685e-20)
(1.16363 0.463909 -1.22029e-20)
(1.10258 0.450078 -2.42717e-21)
(1.03754 0.431207 -7.96694e-20)
(0.969741 0.405535 9.74565e-22)
(0.906827 0.37527 -1.28333e-19)
(0.856393 0.345301 -1.74071e-19)
(0.820097 0.320822 1.15267e-19)
(0.793039 0.300742 -6.79757e-20)
(0.770254 0.284706 1.65413e-19)
(0.747779 0.270084 0)
(0.709083 0.250343 -2.51738e-19)
(0.609096 0.214012 3.72422e-19)
(0.40128 0.140141 7.14026e-19)
(0.12592 0.0442749 -8.36878e-19)
(0.478826 0.199546 -6.87344e-19)
(1.08467 0.424764 3.47163e-19)
(1.28954 0.528072 2.69323e-19)
(1.30791 0.535952 -2.50141e-19)
(1.26493 0.538765 1.11746e-20)
(1.21195 0.52744 7.43445e-20)
(1.1535 0.515177 9.86847e-23)
(1.09049 0.498096 -1.60078e-20)
(1.02308 0.475856 -4.94759e-20)
(0.952592 0.446794 8.73025e-20)
(0.886622 0.411969 1.2075e-19)
(0.83543 0.379564 2.72753e-19)
(0.797555 0.353249 0)
(0.768284 0.331415 5.42007e-21)
(0.746303 0.312805 -4.60187e-19)
(0.726447 0.299171 1.05641e-19)
(0.691618 0.278869 5.40491e-19)
(0.595339 0.237452 -1.58359e-19)
(0.389753 0.154967 3.38715e-19)
(0.121502 0.0482182 -2.79899e-20)
(0.468871 0.21811 6.43013e-21)
(1.07154 0.469166 3.21161e-19)
(1.27952 0.583768 2.04299e-19)
(1.29885 0.591591 -4.45482e-19)
(1.25457 0.592839 2.84433e-19)
(1.20108 0.578813 -9.13853e-20)
(1.14148 0.564189 -3.59453e-21)
(1.07699 0.544333 3.22195e-20)
(1.00767 0.519174 8.64329e-20)
(0.934883 0.48678 -1.13129e-19)
(0.867475 0.449066 0)
(0.815468 0.41419 -1.07916e-19)
(0.777494 0.384683 1.23896e-19)
(0.750108 0.361517 1.6749e-19)
(0.727186 0.342264 -9.60591e-20)
(0.704891 0.324875 -2.43068e-19)
(0.668707 0.301665 -7.39402e-20)
(0.575318 0.256881 -1.21945e-21)
(0.376454 0.166499 0)
(0.11569 0.0514208 0)
(0.459856 0.234262 -3.39313e-19)
(1.05756 0.510389 0)
(1.26789 0.636052 2.34027e-19)
(1.28821 0.644548 -1.07773e-19)
(1.24296 0.644161 -2.96031e-19)
(1.18897 0.62751 8.16254e-20)
(1.12827 0.610788 -9.78709e-21)
(1.06246 0.588494 -1.31836e-20)
(0.991527 0.560766 5.27285e-20)
(0.916758 0.525082 -4.74224e-20)
(0.846556 0.483829 6.76081e-20)
(0.790729 0.443721 3.36786e-19)
(0.750257 0.411502 1.32567e-20)
(0.719849 0.384912 -1.70762e-19)
(0.70025 0.363668 3.30831e-19)
(0.683211 0.3475 4.45872e-21)
(0.651904 0.323731 7.91077e-20)
(0.559953 0.275081 -3.85702e-19)
(0.361935 0.176076 3.91278e-19)
(0.109216 0.0534111 -4.66932e-19)
(0.453557 0.254014 2.8347e-23)
(1.04501 0.55008 0)
(1.25541 0.685213 0)
(1.27635 0.694688 1.00625e-19)
(1.23023 0.69275 1.15921e-19)
(1.17583 0.673655 -6.83574e-20)
(1.11417 0.654983 4.5497e-20)
(1.04722 0.630539 0)
(0.974666 0.600523 -8.73043e-20)
(0.897308 0.562345 1.65556e-19)
(0.824069 0.517986 2.07244e-19)
(0.769244 0.476238 -1.27222e-19)
(0.731958 0.44159 -1.59906e-19)
(0.706134 0.414175 3.78463e-19)
(0.682164 0.391103 -1.17008e-19)
(0.659882 0.368312 -1.42256e-19)
(0.625032 0.342267 -8.71999e-20)
(0.535635 0.287943 -4.18548e-19)
(0.345987 0.183154 5.8523e-20)
(0.101794 0.0544712 5.07447e-19)
(0.449935 0.272959 -1.35567e-19)
(1.0332 0.587226 -2.13717e-19)
(1.24234 0.731058 2.37789e-20)
(1.26381 0.742028 1.4495e-22)
(1.21711 0.738884 3.84118e-20)
(1.16234 0.717495 -1.82225e-19)
(1.09974 0.69694 0)
(1.03166 0.670533 1.20699e-20)
(0.957557 0.638531 -9.51736e-21)
(0.878399 0.597966 2.59654e-19)
(0.803942 0.550181 -5.29611e-20)
(0.745719 0.503952 5.79243e-20)
(0.702075 0.464334 0)
(0.669823 0.431859 -2.06782e-19)
(0.65216 0.40483 2.58286e-19)
(0.637098 0.387472 0)
(0.607893 0.356632 -1.91346e-19)
(0.517581 0.300999 5.59325e-19)
(0.329064 0.188168 6.67426e-20)
(0.0938634 0.0542925 -6.29122e-19)
(0.447784 0.290037 -3.00769e-19)
(1.02246 0.622406 3.85482e-19)
(1.22907 0.773819 0)
(1.25069 0.786247 2.50461e-19)
(1.20351 0.782223 0)
(1.14856 0.759018 1.71063e-19)
(1.08525 0.736806 0)
(1.01621 0.708631 0)
(0.940903 0.674862 -3.08238e-20)
(0.85973 0.632433 -2.53673e-19)
(0.782447 0.582755 -3.85203e-19)
(0.721672 0.534265 7.36655e-20)
(0.681379 0.492926 2.7623e-19)
(0.656303 0.458544 2.32982e-19)
(0.633921 0.432381 -8.28839e-19)
(0.612451 0.402228 -3.4345e-19)
(0.577949 0.372386 1.9955e-19)
(0.491295 0.308758 0)
(0.31071 0.190817 5.77943e-19)
(0.0851235 0.0530319 -6.82971e-19)
(0.446118 0.305796 3.3182e-19)
(1.01196 0.655272 -4.23595e-19)
(1.21575 0.81365 0)
(1.23745 0.827647 -1.01212e-20)
(1.18998 0.822985 -1.03042e-19)
(1.13492 0.798248 0)
(1.07109 0.774618 -1.4788e-20)
(1.00134 0.744887 1.89229e-20)
(0.924889 0.709621 -3.65985e-20)
(0.841691 0.665472 2.42105e-20)
(0.761294 0.612882 0)
(0.69865 0.560185 2.93262e-19)
(0.653313 0.514196 3.80407e-21)
(0.618305 0.475097 1.2666e-19)
(0.599529 0.44032 1.52864e-19)
(0.586665 0.416869 0)
(0.559264 0.379959 -3.38124e-19)
(0.471061 0.315232 6.62783e-19)
(0.29178 0.191164 -7.06699e-19)
(0.0765349 0.0505722 1.48419e-18)
(0.444577 0.320832 0)
(1.00218 0.686771 0)
(1.20267 0.850923 -2.321e-19)
(1.22407 0.866167 0)
(1.17628 0.8609 0)
(1.12133 0.835042 2.45525e-19)
(1.05719 0.810296 -1.86608e-20)
(0.986822 0.779288 1.67327e-20)
(0.90907 0.742754 -1.51077e-21)
(0.823528 0.697449 0)
(0.740473 0.643767 -6.19825e-20)
(0.674996 0.589247 -2.43379e-19)
(0.628162 0.538918 -3.06625e-19)
(0.601955 0.496379 -1.27749e-19)
(0.580407 0.46216 1.68558e-19)
(0.560194 0.427578 -4.00648e-19)
(0.527656 0.391734 7.32506e-19)
(0.442005 0.317924 7.93559e-21)
(0.2719 0.189159 -6.84033e-19)
(0.0677566 0.0473348 -1.01583e-19)
(0.44297 0.335466 0)
(0.992615 0.716336 -3.29524e-19)
(1.18988 0.885733 2.59393e-19)
(1.21104 0.902274 0)
(1.16302 0.896407 0)
(1.1081 0.869505 -5.42428e-19)
(1.04366 0.843815 0)
(0.972771 0.8118 0)
(0.89406 0.774234 -5.80339e-20)
(0.807168 0.727992 4.83257e-20)
(0.721863 0.67208 -4.89876e-19)
(0.651477 0.61385 0)
(0.601466 0.56234 -3.32765e-19)
(0.561532 0.514073 1.17082e-20)
(0.542314 0.47007 -5.3847e-19)
(0.53142 0.437771 2.17297e-19)
(0.505843 0.388865 4.17829e-21)
(0.421794 0.316692 -7.8518e-19)
(0.253566 0.185052 3.72371e-19)
(0.0612557 0.0439125 1.08682e-19)
(0.441413 0.349631 0)
(0.983923 0.744808 -3.8871e-19)
(1.17749 0.918536 2.7562e-19)
(1.19809 0.936008 5.79223e-19)
(1.14981 0.929435 1.17721e-19)
(1.09502 0.901647 -8.20973e-20)
(1.03044 0.875196 5.12731e-20)
(0.959171 0.842374 -1.02687e-19)
(0.879563 0.803961 6.20796e-20)
(0.790513 0.757093 2.8879e-19)
(0.701428 0.701058 4.06215e-19)
(0.627444 0.643766 7.86906e-20)
(0.57235 0.587811 4.83599e-19)
(0.542609 0.534957 3.15187e-19)
(0.518829 0.490691 3.89028e-19)
(0.499872 0.438788 -2.43849e-19)
(0.471538 0.396411 -2.90204e-19)
(0.391923 0.312587 3.42001e-19)
(0.232134 0.176357 -2.02361e-19)
(0.0562063 0.0413081 3.55633e-19)
(0.439829 0.363241 5.12951e-19)
(0.975301 0.771106 6.17155e-19)
(1.16547 0.949043 1.5108e-19)
(1.18573 0.967642 1.59195e-20)
(1.13728 0.96044 -4.08625e-19)
(1.08254 0.931755 1.57042e-19)
(1.01774 0.904579 -5.8531e-20)
(0.946156 0.871088 -2.10918e-20)
(0.8658 0.832228 -5.02221e-20)
(0.77525 0.785214 -3.23671e-19)
(0.683513 0.728965 2.39575e-20)
(0.604883 0.669063 0)
(0.547125 0.610743 0)
(0.498116 0.554088 -1.59884e-19)
(0.473326 0.493911 -6.39529e-19)
(0.463468 0.44723 5.29125e-19)
(0.445529 0.377064 3.24949e-19)
(0.377032 0.292306 0)
(0.232058 0.155222 6.4547e-19)
(0.0509221 0.0241926 -3.8642e-19)
(0.438357 0.376036 -2.74004e-19)
(0.967524 0.796449 2.36301e-19)
(1.1539 0.97786 -3.37399e-19)
(1.17354 0.997201 -3.63718e-19)
(1.12496 0.98932 -1.61105e-19)
(1.07041 0.959879 3.77052e-20)
(1.0056 0.932103 0)
(0.933852 0.898082 1.48193e-19)
(0.85279 0.858902 1.01461e-20)
(0.76084 0.811849 0)
(0.667368 0.755959 0)
(0.586521 0.696663 5.52087e-20)
(0.519015 0.636494 8.54043e-20)
(0.477852 0.576153 -1.72213e-19)
(0.44611 0.518537 4.62584e-19)
(0.421304 0.443766 -5.82296e-19)
(0.398292 0.374203 -7.00504e-19)
(0.350993 0.270447 6.2262e-19)
(0.25175 0.165032 -2.33032e-19)
(0.130161 0.0986425 1.3351e-19)
(0.43663 0.387976 3.16154e-19)
(0.959539 0.819436 0)
(1.14269 1.00445 0)
(1.16202 1.02482 -1.22561e-19)
(1.11344 1.01642 9.91951e-20)
(1.05904 0.986237 -2.054e-20)
(0.994168 0.957894 -2.22892e-19)
(0.922284 0.923461 -2.27344e-19)
(0.840692 0.88403 3.90221e-20)
(0.747406 0.837216 -2.62704e-20)
(0.649791 0.781638 6.40478e-20)
(0.561157 0.721853 -4.51034e-19)
(0.494381 0.662552 -4.99732e-19)
(0.43076 0.600527 -9.17e-20)
(0.389272 0.526031 0)
(0.367494 0.457901 -1.3373e-20)
(0.351689 0.330827 3.84306e-19)
(0.315776 0.178132 -6.54186e-19)
(0.281868 0.00966612 4.83868e-19)
(0.0857518 -0.0780637 3.86297e-19)
(0.434975 0.399207 -6.89326e-19)
(0.952313 0.84179 -2.96597e-19)
(1.13187 1.02973 5.98982e-21)
(1.15061 1.05075 1.55847e-19)
(1.10199 1.04185 0)
(1.04787 1.01119 4.66065e-19)
(0.983072 0.982498 2.77832e-19)
(0.911083 0.947804 -4.55729e-20)
(0.82894 0.908405 -6.00969e-21)
(0.734337 0.862032 -2.45614e-20)
(0.635824 0.808069 2.28131e-20)
(0.547645 0.751915 3.98853e-19)
(0.465778 0.69252 4.88711e-19)
(0.410434 0.625614 8.80969e-20)
(0.360904 0.564174 4.88956e-19)
(0.305385 0.459947 0)
(0.213304 0.335681 0)
(0.0644719 0.315538 4.85179e-19)
(-0.0582262 0.632428 -3.31508e-20)
(-0.00135619 1.48146 -6.25304e-19)
(0.432852 0.40981 3.74951e-19)
(0.944792 0.861999 8.89207e-19)
(1.12133 1.05317 -1.33614e-18)
(1.13975 1.07527 8.05548e-19)
(1.09118 1.06616 -9.44353e-20)
(1.03721 1.03514 6.07724e-19)
(0.972402 1.00629 0)
(0.900339 0.971592 2.34804e-19)
(0.817798 0.93256 0)
(0.722239 0.887037 2.21513e-19)
(0.619804 0.834299 -3.65673e-20)
(0.523369 0.778226 4.1001e-20)
(0.446623 0.723789 5.38985e-19)
(0.360395 0.668329 -2.00312e-19)
(0.275694 0.589192 -2.56946e-19)
(0.209031 0.526703 0)
(0.112228 0.612343 0)
(0.0470511 1.2182 0)
(0.0828177 2.41055 -2.73217e-19)
(0.115098 2.88508 -1.69347e-19)
(0.430794 0.420147 0)
(0.938078 0.881814 0)
(1.1112 1.0756 4.77969e-19)
(1.12903 1.09836 -6.71492e-19)
(1.08041 1.08903 4.61389e-19)
(1.02672 1.05792 -5.57063e-19)
(0.961987 1.02911 -3.22082e-20)
(0.889965 0.994679 2.50778e-20)
(0.807003 0.956313 4.4036e-21)
(0.710242 0.912305 -2.51461e-19)
(0.606097 0.862672 5.48543e-20)
(0.507714 0.814008 3.70899e-19)
(0.410519 0.761405 -5.30775e-19)
(0.339811 0.696546 -6.23824e-19)
(0.277111 0.65407 2.18267e-19)
(0.213157 0.768904 0)
(0.153828 1.46746 3.15564e-19)
(0.154006 2.65782 3.5695e-19)
(0.157199 3.07616 -3.99467e-19)
(0.148253 3.21744 4.45556e-19)
(0.428388 0.429346 0)
(0.931031 0.89943 7.22309e-19)
(1.10135 1.09627 -1.23842e-19)
(1.11892 1.12016 8.44668e-19)
(1.07036 1.11082 -4.84297e-19)
(1.01682 1.07964 0)
(0.952137 1.05103 0)
(0.8801 1.01697 0)
(0.796944 0.979441 -8.62431e-20)
(0.699599 0.936703 1.09826e-21)
(0.59458 0.888147 0)
(0.494747 0.838886 -3.61457e-19)
(0.409389 0.79888 0)
(0.301198 0.755818 4.43455e-19)
(0.221396 0.835208 -2.86187e-19)
(0.178489 1.42722 -2.40923e-19)
(0.189216 2.64876 -5.95054e-19)
(0.208287 3.12454 -2.9538e-19)
(0.197113 3.27437 -3.34568e-19)
(0.181806 3.31615 2.96563e-19)
(0.426186 0.438053 -2.44054e-19)
(0.924776 0.916808 1.47003e-20)
(1.09196 1.11614 -1.33411e-19)
(1.109 1.14069 -6.76033e-19)
(1.06036 1.13133 0)
(1.0071 1.10033 0)
(0.942497 1.07204 0)
(0.870657 1.03855 -1.62759e-20)
(0.787312 1.00219 9.93815e-20)
(0.689391 0.961828 0)
(0.581341 0.918832 0)
(0.475108 0.88047 0)
(0.369633 0.839905 0)
(0.305451 0.839307 2.88144e-19)
(0.295218 1.17639 7.52589e-19)
(0.287185 2.30962 2.35846e-19)
(0.299279 3.07809 4.24152e-19)
(0.290272 3.29523 -2.63219e-19)
(0.238069 3.36539 9.7339e-20)
(0.20329 3.37841 0)
(0.423628 0.445989 2.47277e-19)
(0.917907 0.932434 -1.5572e-18)
(1.08258 1.13488 -4.40552e-19)
(1.09946 1.16064 -1.07612e-19)
(1.05091 1.15144 1.23586e-19)
(0.997786 1.12054 -8.73059e-19)
(0.933279 1.09266 5.92764e-20)
(0.861513 1.05984 4.13582e-19)
(0.778226 1.02473 0)
(0.679984 0.986192 -1.40141e-20)
(0.573002 0.943702 1.27486e-20)
(0.471056 0.903736 0)
(0.387833 0.880504 0)
(0.33621 1.00488 -3.563e-19)
(0.308895 1.809 -5.98403e-21)
(0.304939 2.91546 -1.19742e-19)
(0.323035 3.29767 1.86702e-19)
(0.295385 3.40503 5.15848e-20)
(0.226284 3.43272 1.26047e-19)
(0.199374 3.44128 -6.46543e-20)
(0.420945 0.454232 4.76315e-19)
(0.911243 0.949506 1.48915e-18)
(1.07284 1.15459 5.41718e-19)
(1.08928 1.18095 0)
(1.04073 1.17175 0)
(0.987987 1.14106 6.68872e-19)
(0.923717 1.11356 -4.14668e-19)
(0.852478 1.08135 -3.80083e-19)
(0.76947 1.04748 -1.52769e-20)
(0.671714 1.01154 1.555e-20)
(0.562438 0.976192 -2.43545e-19)
(0.454196 0.946878 0)
(0.374502 0.959518 0)
(0.354681 1.32322 -1.92292e-19)
(0.373879 2.40457 -2.52485e-19)
(0.415673 3.19721 0)
(0.443933 3.39204 1.03427e-19)
(0.373099 3.46033 2.24038e-19)
(0.294802 3.50514 -5.00969e-19)
(0.268113 3.53119 2.89609e-19)
(0.417375 0.462278 -9.03283e-19)
(0.903001 0.965927 -7.08407e-19)
(1.0621 1.17459 0)
(1.07857 1.20218 0)
(1.03029 1.19307 0)
(0.977831 1.16228 0)
(0.913872 1.13502 4.43006e-19)
(0.842964 1.10337 -4.88511e-19)
(0.760284 1.07079 0)
(0.662603 1.03693 -8.45412e-21)
(0.556839 1.00218 3.95041e-19)
(0.456763 0.976328 2.12227e-20)
(0.404556 1.05928 3.67232e-20)
(0.42076 1.69647 2.7779e-19)
(0.448584 2.86018 -6.641e-20)
(0.484449 3.33338 0)
(0.466096 3.4702 -8.39206e-20)
(0.372214 3.56038 1.05739e-19)
(0.281415 3.63526 3.66429e-19)
(0.203571 3.61738 -3.22308e-19)
(0.413523 0.471025 4.28086e-19)
(0.894749 0.984814 -6.96023e-19)
(1.05055 1.19635 0)
(1.06669 1.22423 -1.7274e-19)
(1.01856 1.21491 6.55875e-19)
(0.966722 1.18411 0)
(0.903303 1.15708 0)
(0.833307 1.12585 9.12975e-19)
(0.751609 1.0942 1.59964e-20)
(0.655713 1.06261 -1.01572e-19)
(0.54572 1.03422 -1.63318e-19)
(0.458151 1.02835 1.31386e-19)
(0.428208 1.21974 0)
(0.466543 2.0897 -1.27038e-19)
(0.517572 3.12375 1.11625e-19)
(0.576938 3.4434 -5.37629e-20)
(0.572452 3.5543 0)