/*--------------------------------*- C++ -*----------------------------------*\
| =========                 |                                                 |
| \\      /  F ield         | OpenFOAM: The Open Source CFD Toolbox           |
|  \\    /   O peration     | Version:  4.0                                   |
|   \\  /    A nd           | Web:      www.OpenFOAM.org                      |
|    \\/     M anipulation  |                                                 |
\*---------------------------------------------------------------------------*/
FoamFile
{
    version     2.0;
    format      ascii;
    class       volScalarField;
    location    "48";
    object      p;
}
// * * * * * * * * * * * * * * * * * * * * * * * * * * * * * * * * * * * * * //

dimensions      [0 2 -2 0 0 0 0];

internalField   nonuniform List<scalar> 
2200
(
0.776116
0.754616
0.738708
0.723039
0.708425
0.6959
0.685537
0.677425
0.67171
0.668739
0.669185
0.672973
0.679299
0.687848
0.698523
0.711279
0.726057
0.741952
0.75798
0.779482
0.708557
0.705298
0.702372
0.698248
0.692782
0.686303
0.679676
0.673712
0.669195
0.666781
0.667247
0.670524
0.675675
0.68211
0.689078
0.695819
0.701477
0.705592
0.708461
0.71181
0.668643
0.668862
0.670918
0.672261
0.672651
0.671792
0.669805
0.667117
0.664556
0.663046
0.663575
0.665996
0.669247
0.67245
0.674776
0.67578
0.675497
0.674472
0.672794
0.672549
0.646168
0.647617
0.650213
0.652665
0.655096
0.657107
0.658253
0.658471
0.65808
0.657762
0.658362
0.659708
0.660891
0.661261
0.660562
0.658882
0.656717
0.654498
0.651884
0.650478
0.631846
0.633819
0.636631
0.639456
0.642307
0.645125
0.647567
0.649408
0.650613
0.651388
0.652082
0.652515
0.652246
0.651113
0.649235
0.64685
0.644297
0.641578
0.638789
0.636861
0.624518
0.626117
0.628314
0.630838
0.633502
0.63616
0.638738
0.641137
0.643129
0.644604
0.645418
0.645397
0.644525
0.642988
0.641059
0.638895
0.636554
0.634207
0.632108
0.630532
0.621133
0.622157
0.623422
0.62528
0.62741
0.62956
0.631734
0.634003
0.636193
0.637997
0.638977
0.638945
0.638125
0.636879
0.635457
0.633866
0.632154
0.630567
0.629443
0.628427
0.618492
0.619159
0.619789
0.62109
0.622702
0.624378
0.626108
0.627998
0.630008
0.631909
0.63309
0.633331
0.632972
0.632319
0.631519
0.630549
0.629463
0.628522
0.628069
0.627392
0.615327
0.615774
0.616165
0.617151
0.618398
0.619766
0.621238
0.622868
0.624668
0.626561
0.628001
0.628723
0.628921
0.628819
0.628485
0.627978
0.627367
0.626805
0.626607
0.626143
0.611367
0.611666
0.612025
0.612886
0.613982
0.615231
0.616638
0.618211
0.619962
0.621912
0.623675
0.624901
0.625591
0.625892
0.625916
0.625713
0.625363
0.625001
0.624857
0.624536
0.606707
0.606908
0.607276
0.608103
0.609197
0.610502
0.612006
0.613697
0.615598
0.617749
0.619903
0.621591
0.622691
0.623299
0.623545
0.623568
0.623396
0.623175
0.623048
0.622815
0.601608
0.601752
0.602125
0.602932
0.604067
0.605484
0.60718
0.609143
0.611374
0.613924
0.616581
0.618753
0.620196
0.621052
0.621473
0.621635
0.621625
0.621535
0.62144
0.621259
0.596146
0.596255
0.596631
0.597445
0.598658
0.600241
0.60218
0.604492
0.607217
0.610373
0.613614
0.616224
0.618002
0.619121
0.619778
0.620114
0.620289
0.620326
0.620271
0.620117
0.590274
0.590342
0.590721
0.591568
0.592909
0.594683
0.596893
0.599592
0.602853
0.606699
0.610684
0.613888
0.616075
0.617568
0.618563
0.619167
0.619549
0.619707
0.619694
0.61955
0.583899
0.583938
0.584352
0.585252
0.586709
0.58867
0.59116
0.594268
0.598126
0.602765
0.6076
0.611626
0.614496
0.616488
0.617897
0.618848
0.619439
0.619732
0.619765
0.619629
0.577004
0.576965
0.577374
0.578354
0.580025
0.58222
0.585024
0.588614
0.593196
0.598804
0.604729
0.609682
0.613343
0.615977
0.617895
0.619243
0.620105
0.620552
0.620632
0.620497
0.569255
0.569233
0.569684
0.570805
0.572684
0.575193
0.578457
0.582671
0.58807
0.594784
0.602005
0.608131
0.612749
0.616175
0.618671
0.62044
0.621599
0.622205
0.622344
0.622203
0.560528
0.560553
0.560962
0.562151
0.564383
0.567354
0.571231
0.576231
0.582645
0.590701
0.599504
0.607139
0.612884
0.617171
0.620344
0.622583
0.624057
0.624824
0.625018
0.624868
0.550388
0.55036
0.550902
0.55233
0.55488
0.558409
0.563118
0.569221
0.57703
0.58682
0.597523
0.606792
0.613879
0.619124
0.622976
0.625754
0.627595
0.628531
0.628775
0.628609
0.538365
0.538293
0.538963
0.540791
0.543905
0.548223
0.554044
0.56164
0.571391
0.583464
0.596382
0.607368
0.615738
0.622056
0.626734
0.630096
0.632319
0.633429
0.633721
0.63354
0.524128
0.524008
0.524769
0.526993
0.530903
0.536342
0.54365
0.553165
0.565298
0.580094
0.595595
0.608671
0.618573
0.626084
0.631674
0.635756
0.638408
0.639695
0.640034
0.639827
0.506804
0.506709
0.507689
0.510421
0.515274
0.522123
0.531332
0.543204
0.558145
0.576132
0.594805
0.610486
0.622304
0.631225
0.637949
0.642791
0.645919
0.647407
0.647792
0.647552
0.485371
0.485208
0.486493
0.490011
0.496247
0.50509
0.516851
0.531837
0.550271
0.572013
0.594315
0.612917
0.62696
0.637563
0.645515
0.651305
0.654987
0.656663
0.657071
0.656781
0.457583
0.457588
0.45963
0.464536
0.473004
0.484913
0.500448
0.519667
0.542557
0.568788
0.595075
0.6167
0.632938
0.645236
0.654528
0.661294
0.665494
0.667333
0.667728
0.667379
0.420482
0.420718
0.424229
0.432048
0.444533
0.461396
0.48222
0.506904
0.535217
0.566608
0.59718
0.621933
0.640449
0.654446
0.665053
0.672718
0.677316
0.679219
0.679557
0.679152
0.37085
0.371247
0.378192
0.391237
0.410127
0.434129
0.46197
0.493296
0.527831
0.564986
0.600277
0.628325
0.649158
0.664954
0.676917
0.68538
0.690169
0.691923
0.692078
0.691707
0.305076
0.307883
0.322959
0.344185
0.371887
0.404667
0.440554
0.479287
0.520721
0.56429
0.604825
0.636864
0.660831
0.679022
0.692746
0.702487
0.707684
0.70929
0.70927
0.709094
0.23012
0.239555
0.264615
0.295634
0.3334
0.375177
0.419175
0.465545
0.514198
0.564513
0.611209
0.648116
0.675687
0.696738
0.71284
0.723994
0.729565
0.730842
0.730749
0.730745
0.163042
0.177837
0.209219
0.248973
0.296196
0.346807
0.398845
0.452992
0.509053
0.566336
0.61883
0.659979
0.690774
0.714294
0.731967
0.74427
0.750269
0.751536
0.751904
0.7519
0.111814
0.125043
0.161827
0.207772
0.262343
0.320434
0.379887
0.441355
0.50432
0.568013
0.62561
0.67101
0.704873
0.730578
0.750028
0.763469
0.769906
0.771841
0.772043
0.772103
0.0696163
0.0820949
0.122511
0.17241
0.232467
0.296529
0.362397
0.430281
0.499432
0.569099
0.6324
0.681506
0.717796
0.745636
0.76647
0.78071
0.787836
0.790168
0.790376
0.790476
0.0333309
0.0461039
0.0892911
0.142019
0.2063
0.275087
0.346336
0.419849
0.494843
0.570398
0.638502
0.69079
0.729718
0.758972
0.781003
0.795886
0.803297
0.805885
0.806173
0.806273
0.00166466
0.0146244
0.059919
0.115227
0.183067
0.255791
0.331647
0.4101
0.49018
0.570627
0.642792
0.698821
0.739657
0.770339
0.793056
0.80842
0.816345
0.819109
0.819533
0.819607
-0.0267384
-0.0136683
0.0332004
0.0909543
0.16198
0.238129
0.317952
0.40062
0.485086
0.570322
0.647261
0.70586
0.748289
0.779905
0.803124
0.81894
0.827051
0.830115
0.830617
0.830674
-0.0527458
-0.0396109
0.00848387
0.0685845
0.142376
0.221509
0.304753
0.391119
0.479766
0.569569
0.650108
0.711194
0.755589
0.788128
0.811779
0.827749
0.836329
0.839504
0.840083
0.840101
-0.0771534
-0.0637314
-0.01469
0.0475995
0.12379
0.205537
0.291802
0.381542
0.474019
0.567674
0.65195
0.716386
0.76208
0.795378
0.819561
0.83557
0.844183
0.847529
0.848046
0.847986
-0.100124
-0.0865119
-0.036598
0.027603
0.105859
0.189967
0.278976
0.371711
0.467488
0.564903
0.65341
0.720531
0.767895
0.802325
0.826617
0.84255
0.851086
0.854318
0.854908
0.854748
-0.121852
-0.108169
-0.0574903
0.00833664
0.0884072
0.174655
0.266097
0.361455
0.460264
0.561431
0.653763
0.723953
0.773645
0.808722
0.833224
0.849026
0.857258
0.860444
0.860974
0.860888
-0.142692
-0.128845
-0.0775528
-0.0103453
0.0712991
0.159444
0.253029
0.350778
0.452445
0.5571
0.653345
0.72719
0.779104
0.81526
0.83975
0.85515
0.863226
0.866141
0.866657
0.866555
-0.16304
-0.148719
-0.0969559
-0.028554
0.0544526
0.144275
0.239791
0.339757
0.44408
0.551985
0.652183
0.72975
0.784255
0.821925
0.846613
0.861544
0.868953
0.871582
0.871959
0.871865
-0.183027
-0.167991
-0.115794
-0.0463297
0.0378474
0.129155
0.226423
0.328416
0.435158
0.546117
0.650172
0.731584
0.78936
0.82909
0.854232
0.868364
0.874916
0.876704
0.876938
0.876824
-0.20256
-0.186779
-0.134131
-0.0636856
0.0215177
0.11413
0.212946
0.316745
0.425659
0.539409
0.647052
0.732501
0.79416
0.83667
0.862994
0.876295
0.88113
0.881513
0.881399
0.881295
-0.221525
-0.205133
-0.151973
-0.0806025
0.00550117
0.0992301
0.19937
0.304753
0.415624
0.531892
0.642934
0.732596
0.798488
0.844762
0.873343
0.886052
0.888626
0.886048
0.885497
0.886324
-0.239854
-0.223004
-0.169312
-0.0970711
-0.0101688
0.0845019
0.185749
0.292522
0.40518
0.523627
0.637509
0.731301
0.802058
0.852942
0.885358
0.898995
0.899134
0.892476
0.887325
0.885825
-0.257539
-0.24033
-0.186098
-0.113061
-0.0254556
0.0700042
0.172175
0.280144
0.394344
0.5146
0.630921
0.728644
0.804168
0.860925
0.898854
0.916023
0.917447
0.905364
0.904004
0.908261
-0.274569
-0.257025
-0.202281
-0.128533
-0.0403069
0.0558174
0.158748
0.26769
0.383134
0.50495
0.623308
0.724141
0.804582
0.867604
0.912787
0.936846
0.942246
0.913772
0.872915
0.836588
-0.290901
-0.273099
-0.217879
-0.143541
-0.0548118
0.041826
0.145316
0.254958
0.371311
0.494403
0.614439
0.717614
0.802196
0.871855
0.926057
0.960377
0.980775
0.964283
0.98114
1.03878
-0.30648
-0.288575
-0.232976
-0.158219
-0.0691452
0.0278053
0.1316
0.241617
0.358499
0.482465
0.603646
0.708244
0.795956
0.870859
0.930338
0.96894
0.982669
0.962959
0.92263
0.936781
-0.321291
-0.303442
-0.247519
-0.172504
-0.0832289
0.0138456
0.117718
0.227831
0.344883
0.469197
0.590846
0.69602
0.784026
0.860104
0.919953
0.957584
0.9476
0.895232
0.831898
0.819815
-0.335312
-0.317678
-0.261513
-0.186402
-0.0970666
-5.16173e-05
0.103694
0.213651
0.330511
0.454604
0.575975
0.680419
0.766244
0.83758
0.891466
0.901861
0.868111
0.792427
0.718479
0.697161
-0.34859
-0.331296
-0.274972
-0.199935
-0.110682
-0.0138958
0.0895423
0.199102
0.315393
0.438671
0.559011
0.661327
0.741536
0.80098
0.830291
0.818636
0.762555
0.661742
0.574906
0.553372
-0.361579
-0.344688
-0.288302
-0.21348
-0.124429
-0.0279936
0.0749979
0.183948
0.299326
0.421254
0.539707
0.638167
0.710991
0.754759
0.750088
0.716149
0.606885
0.485272
0.378427
0.351859
-0.375181
-0.358676
-0.302201
-0.227659
-0.138884
-0.0428316
0.0596401
0.167834
0.282056
0.402159
0.517728
0.610707
0.676334
0.696179
0.662741
0.576251
0.421225
0.2693
0.14065
0.113537
-0.389912
-0.373635
-0.317
-0.24272
-0.154228
-0.0585431
0.043372
0.150706
0.263573
0.381357
0.492951
0.5799
0.634777
0.626903
0.574457
0.425954
0.226844
0.0148385
-0.164806
-0.212763
-0.405889
-0.389699
-0.332745
-0.25867
-0.170441
-0.0751097
0.0262106
0.132593
0.24394
0.359006
0.465514
0.547072
0.586898
0.547579
0.460804
0.27357
0.0427408
-0.245619
-0.566802
-0.714072
-0.423179
-0.406906
-0.349566
-0.275615
-0.187582
-0.0925977
0.00808963
0.113436
0.223101
0.335092
0.435723
0.511218
0.533641
0.463752
0.328067
0.122767
-0.111198
-0.455018
-1.04233
-1.61459
-0.441869
-0.425413
-0.367516
-0.293597
-0.205676
-0.111002
-0.0109537
0.0933119
0.201204
0.310052
0.404747
0.472388
0.476679
0.390089
0.199641
-0.0342029
-0.237105
-0.472164
-1.02916
-2.54863
-0.461967
-0.445209
-0.38672
-0.312763
-0.224879
-0.130521
-0.031157
0.0719461
0.177915
0.283445
0.372288
0.430577
0.415213
0.332369
0.106403
-0.131973
-0.280148
-0.317743
-0.308302
-0.697146
-0.483418
-0.466583
-0.40732
-0.33339
-0.245597
-0.151648
-0.0531361
0.0485753
0.1523
0.253929
0.337331
0.385242
0.35447
0.283844
0.057034
-0.146094
-0.257204
-0.265234
-0.212114
-0.252576
-0.506032
-0.489247
-0.429343
-0.355565
-0.267903
-0.174512
-0.0770528
0.023035
0.124172
0.221316
0.3001
0.338237
0.300886
0.231139
0.0250169
-0.136413
-0.218803
-0.226506
-0.274352
-0.278826
-0.52987
-0.513141
-0.452655
-0.379258
-0.291793
-0.199125
-0.102936
-0.00473106
0.0935091
0.185992
0.260223
0.288951
0.254051
0.17103
-0.00286034
-0.126906
-0.197237
-0.173219
-0.194104
-0.195665
-0.55461
-0.537718
-0.477217
-0.404397
-0.317105
-0.225421
-0.130718
-0.034609
0.060453
0.148425
0.21816
0.236292
0.213218
0.10355
-0.0377547
-0.121683
-0.161651
-0.207705
-0.183197
-0.191504
-0.580034
-0.562727
-0.502812
-0.430755
-0.343633
-0.253222
-0.160184
-0.0663811
0.0251264
0.108912
0.174486
0.182736
0.170825
0.0428157
-0.074756
-0.139559
-0.118732
-0.178222
-0.158689
-0.163484
-0.605225
-0.587694
-0.529322
-0.457967
-0.371014
-0.282296
-0.191062
-0.0996982
-0.0122184
0.0678112
0.130558
0.131271
0.119949
-0.0093081
-0.102441
-0.154592
-0.141777
-0.158598
-0.163833
-0.16223
-0.629796
-0.612407
-0.555885
-0.485285
-0.398957
-0.312248
-0.22291
-0.134134
-0.0510422
0.0253957
0.0866935
0.083566
0.0636518
-0.0531482
-0.11821
-0.149657
-0.185772
-0.15954
-0.166386
-0.161192
-0.652738
-0.63608
-0.5815
-0.511895
-0.427033
-0.342532
-0.25522
-0.169154
-0.0904538
-0.017964
0.0426927
0.0394849
0.00876413
-0.0906215
-0.135583
-0.126217
-0.19513
-0.145058
-0.159135
-0.152108
-0.673371
-0.657821
-0.605122
-0.53683
-0.454835
-0.372331
-0.287268
-0.20408
-0.129441
-0.0617513
-0.00171605
-0.00209358
-0.0388595
-0.109541
-0.148961
-0.112714
-0.157004
-0.134994
-0.140339
-0.137696
-0.690146
-0.676217
-0.626086
-0.559655
-0.481128
-0.40065
-0.318251
-0.238142
-0.166993
-0.105072
-0.0463625
-0.0430354
-0.0757191
-0.112694
-0.142903
-0.124245
-0.135074
-0.134904
-0.133205
-0.132974
-0.702192
-0.690333
-0.643276
-0.579374
-0.504501
-0.426549
-0.347141
-0.270313
-0.202228
-0.146639
-0.0894416
-0.0826223
-0.111632
-0.107015
-0.119576
-0.13903
-0.126425
-0.139487
-0.135253
-0.135641
-0.708136
-0.698662
-0.655711
-0.594883
-0.523521
-0.448836
-0.372817
-0.299436
-0.234203
-0.184379
-0.129021
-0.121138
-0.157369
-0.119716
-0.0591968
-0.100065
-0.0978829
-0.132324
-0.142646
-0.145494
-0.70784
-0.700481
-0.661665
-0.604509
-0.537092
-0.466201
-0.393879
-0.324021
-0.261853
-0.216105
-0.163589
-0.158177
-0.210607
-0.192936
-0.0837716
-0.111915
-0.135832
-0.157857
-0.164302
-0.166016
-0.700344
-0.693086
-0.65944
-0.607189
-0.54424
-0.477495
-0.409058
-0.342396
-0.282863
-0.239226
-0.192111
-0.19616
-0.279973
-0.403438
-0.514117
-0.597216
-0.606316
-0.559172
-0.518988
-0.491298
-0.681028
-0.672951
-0.646646
-0.601269
-0.543883
-0.481738
-0.417205
-0.35301
-0.294255
-0.250904
-0.207838
-0.209815
-0.34717
-0.622313
-1.00351
-1.19913
-1.20192
-1.16012
-1.06301
-0.983709
-0.641516
-0.633963
-0.622003
-0.587269
-0.536344
-0.47879
-0.417969
-0.354744
-0.293625
-0.245846
-0.203979
-0.17571
-0.268885
-0.450507
-0.679629
-0.752541
-0.683186
-0.599682
-0.523196
-0.474694
-0.597621
-0.594213
-0.592401
-0.565646
-0.52263
-0.46994
-0.411351
-0.347538
-0.280204
-0.219139
-0.164422
-0.0721751
0.0387071
0.228341
0.394449
0.567814
0.713707
0.807415
0.860486
0.913102
-0.572324
-0.573168
-0.565431
-0.54608
-0.508869
-0.458437
-0.399238
-0.333193
-0.256975
-0.172852
-0.0855479
0.0669364
0.305908
0.684555
1.05678
1.35541
1.55727
1.67411
1.72883
1.74367
-0.540669
-0.541585
-0.536151
-0.528123
-0.495822
-0.447087
-0.385815
-0.316184
-0.232737
-0.132227
-0.0225118
0.125747
0.389626
0.745395
1.09772
1.38988
1.59854
1.72015
1.77454
1.7916
-0.514517
-0.513507
-0.514026
-0.509811
-0.484302
-0.438185
-0.375132
-0.300704
-0.213659
-0.10725
0.00757939
0.120635
0.35874
0.660374
0.957967
1.21497
1.41406
1.53438
1.58806
1.60339
-0.497093
-0.494748
-0.496349
-0.490425
-0.474782
-0.432309
-0.367565
-0.289874
-0.202478
-0.099402
0.00947252
0.0872051
0.280419
0.53371
0.774097
0.98138
1.14773
1.24915
1.29359
1.30479
-0.489131
-0.486838
-0.486134
-0.48371
-0.474568
-0.428313
-0.361404
-0.282891
-0.198493
-0.106042
-0.0038553
0.0540398
0.19861
0.407963
0.59765
0.754379
0.879988
0.958506
0.992829
1.00182
-0.495936
-0.495426
-0.496266
-0.503248
-0.48903
-0.429322
-0.357011
-0.277547
-0.196455
-0.116932
-0.0211923
0.0279317
0.127649
0.293992
0.441963
0.558408
0.649802
0.709053
0.734476
0.739693
-0.495961
-0.497841
-0.504419
-0.508723
-0.486295
-0.422458
-0.347794
-0.26872
-0.191405
-0.124644
-0.0365806
0.00903766
0.0723547
0.200123
0.314142
0.400618
0.466911
0.509841
0.527342
0.533132
-0.44987
-0.451873
-0.462755
-0.464026
-0.441546
-0.385911
-0.320468
-0.249632
-0.179354
-0.124455
-0.0473284
-0.00455292
0.0348599
0.132162
0.216667
0.278672
0.327758
0.360057
0.373382
0.37781
-0.344547
-0.348914
-0.353823
-0.35621
-0.341377
-0.306997
-0.263813
-0.213522
-0.156866
-0.114138
-0.0519405
-0.0145762
0.0111718
0.0867931
0.147547
0.189962
0.226954
0.250938
0.26052
0.262847
-0.219674
-0.221972
-0.224707
-0.227156
-0.221414
-0.208132
-0.188899
-0.161849
-0.125776
-0.0949772
-0.0505011
-0.0199076
-0.00108762
0.0563969
0.099301
0.128757
0.152339
0.167033
0.173516
0.175052
-0.111711
-0.112971
-0.115134
-0.118987
-0.121033
-0.121546
-0.118428
-0.10864
-0.0910418
-0.072515
-0.0445893
-0.0222713
-0.00659207
0.035721
0.0641989
0.0835298
0.096964
0.104008
0.106185
0.106154
-0.0339157
-0.0348462
-0.0366788
-0.0417529
-0.04993
-0.0583675
-0.0636621
-0.0643839
-0.0592484
-0.0513524
-0.0359627
-0.0211215
-0.00921786
0.0190826
0.0372437
0.0484407
0.0549822
0.057317
0.0566553
0.0555479
0.0119352
0.0113365
0.00973514
0.00422677
-0.00581318
-0.017337
-0.0268331
-0.0330402
-0.0346243
-0.0341437
-0.026597
-0.0176764
-0.00967676
0.00575034
0.0157588
0.0215486
0.0241913
0.0236019
0.0218706
0.0204535
0.0348251
0.0342823
0.0327778
0.0275493
0.0178679
0.00610355
-0.00472376
-0.0133212
-0.0181524
-0.0217509
-0.0183226
-0.0141607
-0.0106346
-0.00385266
0.000109499
0.00186775
0.00230395
0.000802522
-0.00126347
-0.00272507
0.0432179
0.0427947
0.0415514
0.0371447
0.0288051
0.0182506
0.00760705
-0.00175292
-0.0080434
-0.0132789
-0.0122265
-0.0113387
-0.0112037
-0.00927733
-0.00887901
-0.00897151
-0.0101001
-0.0121808
-0.0141282
-0.0155954
0.043407
0.0431034
0.0421466
0.0387596
0.0322762
0.0237172
0.0144341
0.00536035
-0.00131276
-0.00741823
-0.00792061
-0.00961209
-0.0118851
-0.0110696
-0.0120348
-0.013147
-0.015361
-0.018089
-0.0199727
-0.0212575
0.039593
0.0393823
0.0386817
0.0362055
0.0314391
0.0249963
0.0176034
0.00967532
0.00359955
-0.00314498
-0.00494052
-0.00721396
-0.0106747
-0.0109992
-0.0122535
-0.0144011
-0.0167931
-0.0188944
-0.0203476
-0.0214824
0.0341421
0.0340034
0.0334923
0.031776
0.0284024
0.0237149
0.0181269
0.011664
0.00658393
-0.00029067
-0.00308553
-0.00540678
-0.00802199
-0.00874284
-0.010351
-0.012459
-0.0145299
-0.0161329
-0.0171225
-0.0181313
0.0283808
0.0282712
0.027896
0.0266897
0.0242988
0.020913
0.0166899
0.0115931
0.0076971
0.00157429
-0.00141024
-0.00385007
-0.00624573
-0.0065102
-0.00789981
-0.00966552
-0.0112679
-0.0124764
-0.0130385
-0.0138435
0.0231478
0.0230581
0.0227857
0.0219338
0.0202437
0.0177736
0.0145309
0.010469
0.00750239
0.00243805
-0.000125166
-0.00192074
-0.0041638
-0.00456064
-0.0056975
-0.00687649
-0.00790298
-0.00857239
-0.0087633
-0.00944129
0.0185861
0.0185134
0.0183109
0.0177294
0.016599
0.0148196
0.0124858
0.00936048
0.00705141
0.00280699
0.000851733
-0.0012181
-0.00304525
-0.00245329
-0.00317928
-0.00368953
-0.00402454
-0.00419134
-0.0041621
-0.00479273
0.0148126
0.0147544
0.0146103
0.0142083
0.01341
0.0121534
0.0104765
0.00805879
0.00638844
0.00298574
0.00129805
-0.000928675
-0.00247869
-0.00148512
-0.000917362
-0.000362769
-7.69033e-05
4.33684e-05
0.000198565
-0.000398361
0.0115699
0.0115375
0.0114574
0.0112346
0.0106944
0.00976304
0.00858988
0.00680767
0.00563016
0.00287124
0.00139512
-0.00021542
-0.0013319
-0.000642031
0.000534465
0.0016197
0.00238562
0.00268106
0.00277855
0.00221179
0.00846509
0.00841095
0.00833399
0.00821383
0.00788944
0.00732124
0.00654275
0.00522889
0.00452661
0.00250721
0.00177306
0.000364097
-0.0004578
0.000443847
0.00141699
0.00253819
0.0036398
0.00415981
0.00433024
0.00374843
0.00569608
0.00564619
0.00558483
0.00554242
0.00537285
0.00508679
0.00457153
0.00362841
0.00336386
0.00202754
0.00195376
0.000888188
0.00044388
0.00102963
0.0018803
0.00297402
0.00406869
0.00473336
0.00490949
0.0042356
0.00329469
0.00324786
0.00321674
0.00320438
0.00309079
0.00290596
0.00261016
0.00205864
0.00207539
0.00120216
0.00158694
0.00118705
0.00115244
0.0014712
0.00170299
0.0024629
0.00350728
0.00414186
0.00444474
0.0038954
0.00127957
0.00124337
0.00121854
0.00116264
0.00102975
0.00096679
0.000932272
0.00063932
0.000835693
0.000322138
0.000871948
0.00106285
0.00105942
0.00130969
0.000638459
0.000128626
-0.000206598
-0.000597252
-0.000180698
-0.000240056
-1.07712
-0.235203
0.0349136
0.311866
0.494425
0.651456
0.779239
0.909401
1.05185
1.13333
-0.0948553
0.312842
0.330133
0.518929
0.643826
0.755879
0.852434
0.938338
0.965951
0.923694
0.283662
0.498133
0.534003
0.670752
0.757321
0.837698
0.903964
0.953669
0.955888
0.969828
0.514163
0.657774
0.693081
0.795507
0.852505
0.910713
0.955724
0.988187
0.997317
1.02095
0.692918
0.794844
0.824611
0.892791
0.937237
0.978602
1.01086
1.0352
1.04503
1.07656
0.83675
0.905868
0.936252
0.979438
1.01564
1.04592
1.07031
1.09106
1.10524
1.13348
0.956274
1.00702
1.03266
1.06078
1.08857
1.11242
1.13243
1.15168
1.16659
1.19307
1.0603
1.0974
1.11855
1.13928
1.16015
1.17959
1.19701
1.21512
1.23
1.25365
1.15446
1.18363
1.20001
1.21531
1.23146
1.24754
1.26309
1.28
1.29361
1.31593
1.24284
1.26332
1.2782
1.29138
1.30495
1.31872
1.33222
1.3468
1.35835
1.37799
1.32834
1.34414
1.35796
1.36977
1.38167
1.3933
1.40443
1.41612
1.42379
1.4406
1.41358
1.42612
1.43983
1.45156
1.46219
1.47198
1.4808
1.48907
1.49263
1.50389
1.5023
1.51311
1.52658
1.53611
1.54369
1.55097
1.55817
1.56467
1.56574
1.57313
1.60069
1.60528
1.61348
1.61825
1.62165
1.62614
1.63213
1.63982
1.6437
1.65358
1.71399
1.7009
1.69361
1.68788
1.68516
1.68651
1.69288
1.70525
1.72005
1.74971
1.836
1.77997
1.74894
1.73175
1.72353
1.72348
1.73228
1.75188
1.78373
1.85298
)
;

boundaryField
{
    wall-4
    {
        type            zeroGradient;
    }
    pressure-outlet-7
    {
        type            fixedValue;
        value           uniform 0;
    }
    velocity-inlet-6
    {
        type            zeroGradient;
    }
    velocity-inlet-5
    {
        type            zeroGradient;
    }
    frontAndBackPlanes
    {
        type            empty;
    }
}


// ************************************************************************* //
