/*--------------------------------*- C++ -*----------------------------------*\
| =========                 |                                                 |
| \\      /  F ield         | OpenFOAM: The Open Source CFD Toolbox           |
|  \\    /   O peration     | Version:  4.0                                   |
|   \\  /    A nd           | Web:      www.OpenFOAM.org                      |
|    \\/     M anipulation  |                                                 |
\*---------------------------------------------------------------------------*/
FoamFile
{
    version     2.0;
    format      ascii;
    class       surfaceScalarField;
    location    "48";
    object      phi;
}
// * * * * * * * * * * * * * * * * * * * * * * * * * * * * * * * * * * * * * //

dimensions      [0 3 -1 0 0 0 0];

internalField   nonuniform List<scalar> 
4262
(
0.107141
0.470847
0.0955842
0.705143
0.0694106
0.858477
0.0474049
1.02077
0.0310225
1.2149
0.0198265
1.44942
0.0124568
1.73323
0.0072892
2.0762
0.00338091
2.48915
-0.000235118
2.98591
-0.00384428
2.9859
-0.00772624
2.48913
-0.0128166
2.07613
-0.0201299
1.73318
-0.031164
1.44925
-0.0472525
1.2146
-0.0690188
1.02053
-0.0952603
0.858544
-0.107082
0.705407
0.470906
0.112881
0.357966
0.135291
0.682733
0.120388
0.87338
0.0978368
1.04332
0.0745996
1.23814
0.0528598
1.47116
0.0344283
1.75166
0.0201876
2.09044
0.00885807
2.50048
-0.00126937
2.99604
-0.0113227
2.99595
-0.022373
2.50018
-0.0364052
2.09016
-0.0545762
1.75135
-0.0762853
1.47096
-0.0999618
1.23828
-0.123075
1.04364
-0.136814
0.872283
-0.113498
0.682091
0.357409
0.092084
0.265882
0.12505
0.649767
0.121211
0.877218
0.104973
1.05956
0.0863563
1.25675
0.0672615
1.49025
0.0483166
1.77061
0.0302776
2.10848
0.0138127
2.51695
-0.00204638
3.01189
-0.0178049
3.01171
-0.0340301
2.5164
-0.0516346
2.10776
-0.0700688
1.76978
-0.0885053
1.4894
-0.105883
1.25566
-0.120175
1.05793
-0.125322
0.877431
-0.0923677
0.649137
0.265041
0.0640197
0.201862
0.104884
0.608904
0.106656
0.875446
0.0952453
1.07097
0.0813391
1.27066
0.0666662
1.50492
0.0505932
1.78668
0.0334424
2.12563
0.0156638
2.53472
-0.00314379
3.0307
-0.0216356
3.03021
-0.0388792
2.53364
-0.0553323
2.12422
-0.0705993
1.78505
-0.084365
1.50317
-0.0979769
1.26927
-0.109707
1.06967
-0.106823
0.874547
-0.0648161
0.607129
0.200225
0.037508
0.164354
0.0808174
0.565594
0.0912218
0.865041
0.0841026
1.07809
0.0714834
1.28328
0.0595871
1.51682
0.0466489
1.79962
0.0318038
2.14048
0.0150063
2.55152
-0.0040281
3.04974
-0.0228159
3.04899
-0.0389041
2.54973
-0.0528037
2.13812
-0.0649542
1.7972
-0.0763754
1.51459
-0.0883995
1.2813
-0.0947895
1.07605
-0.0830326
0.86279
-0.0383156
0.562412
0.161909
0.0195079
0.144846
0.0573178
0.527784
0.072714
0.849645
0.0706322
1.08017
0.0619001
1.29201
0.051062
1.52766
0.0398995
1.81078
0.0273257
2.15305
0.0122508
2.5666
-0.00540702
3.06739
-0.0226549
3.06624
-0.0367658
2.56384
-0.0483544
2.1497
-0.0584768
1.80732
-0.0683593
1.52447
-0.0760567
1.28899
-0.0769392
1.07694
-0.0598985
0.845749
-0.0203481
0.522862
0.141561
0.0106678
0.134178
0.0425273
0.495925
0.0587777
0.833395
0.0591403
1.07981
0.0530324
1.29812
0.0437169
1.53697
0.0333624
1.82114
0.0220337
2.16438
0.00893418
2.5797
-0.0068484
3.08318
-0.0221593
3.08155
-0.0341886
2.57587
-0.0441066
2.15962
-0.0530932
1.81631
-0.0611172
1.53249
-0.0657926
1.29367
-0.0639208
1.07507
-0.0456647
0.827493
-0.0116372
0.488834
0.129924
0.00664281
0.127536
0.0331376
0.46943
0.0495466
0.816986
0.051209
1.07815
0.04625
1.30308
0.0379817
1.54524
0.0283433
1.83078
0.0174468
2.17528
0.0054052
2.59174
-0.00849752
3.09708
-0.0219166
3.09497
-0.0327239
2.58668
-0.0420478
2.16895
-0.0498317
1.82409
-0.0563236
1.53898
-0.0594777
1.29682
-0.0559403
1.07153
-0.0369815
0.808535
-0.00780688
0.45966
0.122117
0.00473885
0.122797
0.0266595
0.447509
0.0425117
0.801134
0.0446973
1.07596
0.0402386
1.30754
0.0328209
1.55266
0.02391
1.83969
0.0135022
2.18569
0.00180975
2.60343
-0.0110702
3.10996
-0.0230039
3.1069
-0.0328682
2.59654
-0.0411731
2.17725
-0.0480444
1.83096
-0.0534738
1.54441
-0.0558831
1.29923
-0.0510278
1.06667
-0.0316108
0.789118
-0.00625277
0.434302
0.115864
0.00381381
0.118983
0.0219678
0.429355
0.0373585
0.785743
0.0402265
1.07309
0.0358647
1.3119
0.0285104
1.56001
0.0198618
1.84834
0.010004
2.19554
-0.000969301
2.6144
-0.0130071
3.122
-0.024489
3.11839
-0.0337594
2.60582
-0.0411481
2.18464
-0.0471532
1.83697
-0.0520143
1.54928
-0.0534785
1.3007
-0.0473145
1.06051
-0.0277595
0.769563
-0.00561181
0.412154
0.110253
0.00312846
0.115854
0.0177313
0.414753
0.0318173
0.771657
0.0349568
1.06995
0.0310008
1.31585
0.0240134
1.567
0.0157026
1.85665
0.00605491
2.20519
-0.00502692
2.62549
-0.017114
3.13408
-0.0277333
3.12901
-0.0358195
2.6139
-0.0424105
2.19123
-0.0476768
1.84224
-0.0515856
1.55318
-0.0519359
1.30105
-0.0445318
1.0531
-0.0249094
0.74994
-0.00530885
0.392554
0.104944
0.0024338
0.113421
0.0140743
0.403112
0.0269087
0.758822
0.0302056
1.06666
0.0263547
1.3197
0.0195055
1.57385
0.0112898
1.86486
0.00190595
2.21458
-0.00850907
2.6359
-0.0199314
3.14551
-0.0303691
3.13944
-0.0383134
2.62185
-0.0440288
2.19695
-0.048511
1.84672
-0.0515505
1.55622
-0.0510749
1.30057
-0.0422951
1.04433
-0.0227385
0.730384
-0.00511916
0.374934
0.0998245
0.00170833
0.111712
0.0105956
0.394225
0.0216178
0.7478
0.0246267
1.06365
0.0209672
1.32336
0.0142957
1.58052
0.00608377
1.87307
-0.00328536
2.22394
-0.0140865
2.6467
-0.0258609
3.15728
-0.0356397
3.14922
-0.0422513
2.62846
-0.0469767
2.20167
-0.0505025
1.85024
-0.0521113
1.55783
-0.0507324
1.29919
-0.0407774
1.03437
-0.0212255
0.710832
-0.00497802
0.358687
0.0948465
0.000928178
0.110784
0.00732967
0.387823
0.0166925
0.738437
0.0191537
1.06119
0.0150873
1.32743
0.00816151
1.58745
-0.000172266
1.88141
-0.0097822
2.23355
-0.020074
2.65699
-0.0304608
3.16767
-0.039358
3.15812
-0.0455544
2.63465
-0.0495136
2.20563
-0.0522737
1.853
-0.0531498
1.55871
-0.0509559
1.297
-0.0398095
1.02322
-0.0201686
0.691191
-0.00488051
0.343399
0.089966
0.000206641
0.110578
0.0042929
0.383737
0.0111515
0.731579
0.0124592
1.05988
0.00800118
1.33189
0.000781988
1.59467
-0.00791967
1.89011
-0.0174668
2.2431
-0.0278377
2.66736
-0.0385107
3.17834
-0.0463695
3.16598
-0.0507243
2.63901
-0.0535403
2.20845
-0.0553702
1.85483
-0.0554266
1.55876
-0.0517813
1.29335
-0.0395646
1.01101
-0.0196865
0.671313
-0.00490665
0.328619
0.0850593
-0.000772295
0.11135
0.000621079
0.382344
0.00561684
0.726583
0.00616693
1.05933
0.00087259
1.33718
-0.00729511
1.60283
-0.0166272
1.89944
-0.0266217
2.2531
-0.036706
2.67745
-0.0460957
3.18773
-0.0528886
3.17277
-0.0566993
2.64282
-0.0585106
2.21026
-0.0596093
1.85593
-0.0588343
1.55799
-0.0536753
1.28819
-0.039834
0.997166
-0.0194716
0.65095
-0.00493449
0.314082
0.0801248
-0.00162095
0.112971
-0.00249712
0.38322
-0.000559006
0.724645
-0.00197164
1.06074
-0.00795329
1.34316
-0.0165544
1.61143
-0.0265391
1.90943
-0.0371005
2.26366
-0.0478022
2.68815
-0.0576662
3.19759
-0.0639164
3.17902
-0.0662319
2.64513
-0.0667203
2.21075
-0.0660677
1.85528
-0.063644
1.55557
-0.0569463
1.2815
-0.0412744
0.981494
-0.0200468
0.629723
-0.00520452
0.299239
0.0749203
-0.00295681
0.115928
-0.0062029
0.386466
-0.00766789
0.72611
-0.0101951
1.06327
-0.0171374
1.35011
-0.0270027
1.6213
-0.037917
1.92034
-0.049291
2.27503
-0.060315
2.69917
-0.069304
3.20658
-0.0738605
3.18358
-0.0749107
2.64618
-0.0740974
2.20993
-0.0728034
1.85399
-0.0694179
1.55218
-0.0607362
1.27281
-0.0430971
0.963855
-0.0208782
0.607504
-0.0055046
0.283866
0.0694157
-0.00430082
0.120228
-0.0105267
0.392692
-0.0155445
0.731128
-0.0214987
1.06922
-0.0295074
1.35812
-0.0398727
1.63167
-0.0516635
1.93213
-0.0641762
2.28754
-0.076241
2.71124
-0.0858574
3.2162
-0.0904053
3.18813
-0.0907119
2.64649
-0.0880883
2.20731
-0.0837623
1.84966
-0.0773847
1.5458
-0.0662041
1.26163
-0.0462085
0.943859
-0.0223979
0.583693
-0.00598512
0.267453
0.0634306
-0.00571578
0.125944
-0.0154283
0.402404
-0.0243047
0.740004
-0.0326243
1.07754
-0.0427103
1.3682
-0.0552427
1.6442
-0.0686418
1.94553
-0.0822574
2.30116
-0.0946631
2.72365
-0.103357
3.22489
-0.105331
3.1901
-0.10264
2.6438
-0.0979911
2.20266
-0.0931402
1.84481
-0.0861879
1.53885
-0.0725944
1.24804
-0.0498525
0.921117
-0.0241249
0.557966
-0.006491
0.249819
0.0569396
-0.00805431
0.133999
-0.0225441
0.416894
-0.0371307
0.754591
-0.0491347
1.08955
-0.0608791
1.37995
-0.0749371
1.65826
-0.0903838
1.96098
-0.10594
2.31672
-0.119183
2.73689
-0.126984
3.2327
-0.127292
3.19041
-0.12338
2.63989
-0.117609
2.19689
-0.109012
1.83621
-0.0977841
1.52762
-0.080628
1.23088
-0.0544926
0.894982
-0.0263089
0.529782
-0.0070714
0.230582
0.0498682
-0.0106113
0.14461
-0.0301595
0.436442
-0.0507887
0.77522
-0.0675541
1.10631
-0.0828745
1.39527
-0.10021
1.67559
-0.117814
1.97858
-0.134153
2.33306
-0.146636
2.74937
-0.152549
3.23861
-0.150111
3.18797
-0.142504
2.63228
-0.132523
2.18691
-0.122856
1.82654
-0.110483
1.51525
-0.0899133
1.21031
-0.059871
0.864939
-0.0288372
0.498748
-0.00766435
0.209409
0.0422038
-0.0153344
0.159944
-0.0424215
0.46353
-0.0698174
0.802616
-0.0917324
1.12823
-0.110748
1.41428
-0.131246
1.69609
-0.151286
1.99862
-0.169295
2.35106
-0.182387
2.76246
-0.186846
3.24307
-0.180757
3.18188
-0.169907
2.62143
-0.158015
2.17502
-0.144162
1.81269
-0.126539
1.49763
-0.101278
1.18505
-0.0666648
0.830326
-0.0318978
0.463981
-0.00824552
0.185756
0.0339583
-0.0195718
0.179516
-0.0555835
0.499541
-0.092583
0.839615
-0.121653
1.1573
-0.146111
1.43874
-0.17108
1.72106
-0.193605
2.02115
-0.211684
2.36914
-0.222484
2.77326
-0.223063
3.24365
-0.213608
3.17243
-0.19896
2.60678
-0.182387
2.15845
-0.165705
1.79601
-0.145651
1.47757
-0.115255
1.15466
-0.0746478
0.789719
-0.0351248
0.424458
-0.00870556
0.159337
0.0252527
-0.0325752
0.212091
-0.0815854
0.548551
-0.128376
0.886406
-0.164132
1.19305
-0.194542
1.46915
-0.223359
1.74988
-0.246855
2.04464
-0.264286
2.38657
-0.273183
2.78216
-0.270066
3.24053
-0.254291
3.15665
-0.23474
2.58723
-0.215754
2.13946
-0.194932
1.77519
-0.168275
1.45092
-0.131096
1.11748
-0.0837334
0.742356
-0.0386004
0.379325
-0.00902814
0.129765
0.0162246
-0.0471923
0.259283
-0.120829
0.622188
-0.183515
0.949091
-0.227353
1.23689
-0.262988
1.50478
-0.292288
1.77918
-0.31361
2.06596
-0.326965
2.39993
-0.329444
2.78464
-0.317875
3.22896
-0.296626
3.1354
-0.272857
2.56346
-0.248006
2.11461
-0.223114
1.7503
-0.192208
1.42001
-0.147129
1.0724
-0.0912344
0.686462
-0.0400131
0.328104
-0.00891265
0.0986644
0.00731196
-0.0339609
0.293244
-0.0969209
0.685148
-0.154345
1.00652
-0.201022
1.28357
-0.243393
1.54716
-0.280611
1.81639
-0.314848
2.1002
-0.344951
2.43003
-0.366593
2.80628
-0.375479
3.23785
-0.365508
3.12543
-0.344401
2.54236
-0.319203
2.08941
-0.285633
1.71672
-0.23822
1.3726
-0.174209
1.00839
-0.10029
0.612543
-0.0395441
0.267358
-0.00875934
0.0678797
-0.00144738
-0.0127251
0.305969
-0.0476191
0.720042
-0.0888753
1.04777
-0.12755
1.32224
-0.165571
1.58518
-0.198911
1.84973
-0.229562
2.13085
-0.254924
2.45539
-0.270827
2.82219
-0.271377
3.2384
-0.255369
3.10942
-0.230759
2.51775
-0.199231
2.05788
-0.164336
1.68183
-0.126271
1.33453
-0.0814051
0.963523
-0.0377744
0.568912
-0.0120288
0.241612
-0.00265628
0.0585072
-0.00410365
0.000225558
0.305744
-0.0243345
0.744602
-0.0537519
1.07719
-0.0835123
1.352
-0.11413
1.61579
-0.143957
1.87956
-0.171152
2.15805
-0.193254
2.4775
-0.207066
2.836
-0.205688
3.23702
-0.186488
3.09022
-0.156751
2.48801
-0.125435
2.02657
-0.0934143
1.64981
-0.056511
1.29763
-0.0206362
0.927648
0.0018869
0.546389
0.00537672
0.238122
0.00163597
0.0622479
-0.00246769
0.000862646
0.304881
-0.0123931
0.757858
-0.033794
1.09859
-0.0583237
1.37653
-0.0838632
1.64133
-0.108924
1.90462
-0.13224
2.18136
-0.150956
2.49621
-0.160347
2.84539
-0.154848
3.23152
-0.135133
3.07051
-0.109335
2.46221
-0.0779429
1.99517
-0.0430577
1.61492
-0.014119
1.26869
0.00741122
0.906118
0.0168496
0.536951
0.0122763
0.242696
0.00378822
0.070736
0.00132053
0.00390384
0.300977
-0.00570455
0.767467
-0.0238159
1.1167
-0.044277
1.39699
-0.0656789
1.66273
-0.0871158
1.92606
-0.107375
2.20162
-0.12357
2.51241
-0.131846
2.85366
-0.128231
3.2279
-0.108478
3.05076
-0.0787222
2.43246
-0.0500406
1.96649
-0.0233238
1.58821
0.00458406
1.24078
0.0234582
0.887244
0.0257897
0.534619
0.0159794
0.252506
0.00479133
0.0819241
0.00611186
0.00515352
0.295824
-0.00095273
0.773573
-0.0172687
1.13302
-0.0359655
1.41569
-0.0551847
1.68195
-0.0740414
1.94491
-0.0917917
2.21937
-0.106091
2.52671
-0.113232
2.8608
-0.107525
3.2222
-0.0877865
3.03102
-0.0655607
2.41023
-0.039223
1.94015
-0.0106908
1.55968
0.0108472
1.21924
0.0246026
0.873488
0.025581
0.533641
0.0154306
0.262656
0.00473873
0.092616
0.0108506
0.00370194
0.292122
-0.000970421
0.778245
-0.0145079
1.14655
-0.0313903
1.43257
-0.0488014
1.69937
-0.0662101
1.96232
-0.0829053
2.23607
-0.0968141
2.54062
-0.104602
2.86859
-0.100977
3.21857
-0.0861017
3.01614
-0.0643303
2.38846
-0.0386228
1.91445
-0.0148834
1.53594
0.00758676
1.19677
0.0216813
0.859394
0.0214485
0.533874
0.013004
0.271101
0.00399542
0.101625
0.014846
0.00244837
0.289674
-0.00152119
0.782215
-0.0139234
1.15896
-0.0292228
1.44787
-0.0457469
1.71589
-0.0621987
1.97878
-0.0779815
2.25185
-0.0910903
2.55372
-0.0982439
2.87575
-0.0956612
3.21599
-0.0825479
3.00303
-0.0630392
2.36895
-0.0413106
1.89272
-0.016985
1.51161
0.00267039
1.17712
0.0137642
0.8483
0.0157238
0.531914
0.0091449
0.27768
0.00279763
0.107972
0.0176436
8.93279e-05
0.289584
-0.00390456
0.786209
-0.0148988
1.16995
-0.0287708
1.46174
-0.0442623
1.73138
-0.0600271
1.99454
-0.075472
2.2673
-0.0890398
2.56729
-0.098445
2.88515
-0.0996937
3.21724
-0.0875206
2.99085
-0.0685148
2.34995
-0.0460875
1.87029
-0.0262826
1.49181
-0.00643305
1.15727
0.00633514
0.835532
0.00766739
0.530582
0.00507436
0.280273
0.00175143
0.111295
0.0193951
-0.000641508
0.290226
-0.00559917
0.791166
-0.0158892
1.18024
-0.0290072
1.47486
-0.0439785
1.74635
-0.0592877
2.00985
-0.0745946
2.2826
-0.0886053
2.5813
-0.0981856
2.89473
-0.0990876
3.21814
-0.0893664
2.98113
-0.0722928
2.33287
-0.054474
1.85247
-0.0326638
1.46999
-0.0159066
1.14051
-0.00506935
0.824694
0.00018892
0.525324
4.51078e-06
0.280457
0.000252001
0.111047
0.0196471
-0.00211642
0.292342
-0.00766827
0.796718
-0.0174963
1.19007
-0.0298443
1.48721
-0.0440129
1.76052
-0.0589732
2.02481
-0.0744299
2.29806
-0.0890407
2.59591
-0.100511
2.9062
-0.105487
3.22312
-0.0980383
2.97368
-0.081499
2.31633
-0.0604103
1.83138
-0.0423734
1.45196
-0.024551
1.12269
-0.0116941
0.811837
-0.00604772
0.519677
-0.00259341
0.277003
-0.000602829
0.109057
0.0190442
-0.00347861
0.295821
-0.00908686
0.802326
-0.0185625
1.19954
-0.030527
1.49917
-0.044377
1.77437
-0.059107
2.03954
-0.07457
2.31352
-0.0897356
2.61108
-0.102396
2.91886
-0.10802
3.22874
-0.101958
2.96762
-0.0883211
2.3027
-0.0706313
1.81369
-0.0492091
1.43054
-0.0323083
1.10579
-0.0197856
0.799315
-0.0105812
0.510473
-0.00522476
0.271647
-0.00129919
0.105131
0.017745
-0.0041635
0.299984
-0.01039
0.808553
-0.0197969
1.20895
-0.0313149
1.51069
-0.0445735
1.78763
-0.0589804
2.05395
-0.0746016
2.32914
-0.0905269
2.627
-0.104892
2.93323
-0.113936
3.23778
-0.111646
2.96533
-0.0980003
2.28905
-0.076148
1.79184
-0.0571404
1.41153
-0.038407
1.08705
-0.0238026
0.78471
-0.0146634
0.501334
-0.00634628
0.263329
-0.00162482
0.10041
0.0161202
-0.00435438
0.304339
-0.0110506
0.815249
-0.0203552
1.21826
-0.0316157
1.52195
-0.0446464
1.80066
-0.0588678
2.06817
-0.0745479
2.34482
-0.0910412
2.6435
-0.106643
2.94883
-0.11779
3.24893
-0.117151
2.96469
-0.10416
2.27606
-0.0864008
1.77408
-0.0625647
1.38769
-0.0436649
1.06815
-0.0287105
0.769756
-0.0158705
0.488494
-0.00713967
0.254599
-0.00165322
0.0949232
0.014467
-0.00441387
0.308753
-0.011583
0.822418
-0.02089
1.22756
-0.0318341
1.5329
-0.0444095
1.81324
-0.0583496
2.08211
-0.0741188
2.36059
-0.0911969
2.66058
-0.10835
2.96598
-0.1224
3.26298
-0.124599
2.96689
-0.113396
2.26486
-0.0912703
1.75196
-0.0691131
1.36553
-0.0463331
1.04537
-0.0287925
0.752215
-0.0167012
0.476402
-0.00650095
0.244398
-0.00134984
0.0897721
0.0131172
-0.00446208
0.313215
-0.011762
0.829718
-0.0208381
1.23664
-0.0315347
1.54359
-0.0439203
1.82562
-0.0576991
2.09589
-0.0734618
2.37636
-0.0909665
2.67808
-0.10924
2.98426
-0.12516
3.2789
-0.130114
2.97185
-0.120453
2.25519
-0.102436
1.73394
-0.0744747
1.33757
-0.0488022
1.0197
-0.0279735
0.731387
-0.0121006
0.460529
-0.00390709
0.236205
-0.000230417
0.0860954
0.0128868
-0.00450683
0.317721
-0.0118642
0.837076
-0.0207798
1.24555
-0.0311638
1.55398
-0.0431303
1.83759
-0.0566139
2.10937
-0.0723464
2.39209
-0.0902188
2.69595
-0.109576
3.00361
-0.127643
3.29697
-0.135979
2.98018
-0.129227
2.24844
-0.107706
1.71242
-0.0811136
1.31098
-0.0486803
0.987269
-0.0217927
0.704499
-0.00473087
0.443467
0.0015676
0.229906
-0.00165955
0.0893225
0.0112272
-0.00451141
0.322233
-0.0117477
0.844312
-0.020309
1.25412
-0.0303695
1.56404
-0.0420769
1.84929
-0.0553499
2.12264
-0.0709875
2.40773
-0.0891184
2.71408
-0.109279
3.02377
-0.129143
3.31683
-0.140555
2.9916
-0.136569
2.24446
-0.12052
1.69637
-0.0884361
1.2789
-0.0505283
0.949361
-0.0113455
0.665316
0.0217132
0.410409
0.0351035
0.216516
0.024941
0.099485
0.0361683
-0.0044192
0.326652
-0.0115337
0.851426
-0.0198665
1.26245
-0.0295594
1.57373
-0.0408047
1.86054
-0.0537331
2.13557
-0.069223
2.42322
-0.0874794
2.73234
-0.108251
3.04455
-0.12962
3.3382
-0.143311
3.00529
-0.14448
2.24562
-0.127021
1.67891
-0.0977619
1.24964
-0.0518338
0.903433
-0.00348566
0.616968
0.0412069
0.365716
0.0454915
0.212231
0.0199672
0.125009
0.0561355
-0.0042598
0.330912
-0.0111813
0.858348
-0.0191238
1.27039
-0.0284174
1.58303
-0.0393684
1.87149
-0.052032
2.14824
-0.0673302
2.43851
-0.0856149
2.75062
-0.106913
3.06584
-0.12996
3.36125
-0.146491
3.02182
-0.150664
2.2498
-0.141701
1.66995
-0.110941
1.21888
-0.0633493
0.855841
0.00980488
0.543814
0.110117
0.265404
0.189444
0.132905
0.180977
0.133476
0.237113
-0.00411924
0.335031
-0.0109496
0.865178
-0.0188738
1.27832
-0.0281393
1.59229
-0.039179
1.88253
-0.0522346
2.16129
-0.0684044
2.45468
-0.0882263
2.77045
-0.112108
3.08973
-0.139128
3.38827
-0.161061
3.04375
-0.172189
2.26092
-0.164394
1.66215
-0.138993
1.19348
-0.0855567
0.802404
-0.0305096
0.488767
-0.0759445
0.310839
-0.358635
0.415595
-0.940033
0.714873
0.899441
-1.60236
-0.00394034
0.338971
-0.010589
0.871827
-0.0182261
1.28595
-0.0272935
1.60136
-0.0382637
1.8935
-0.0514532
2.17448
-0.0680342
2.47126
-0.088777
2.79119
-0.114533
3.11548
-0.145339
3.41907
-0.172741
3.07115
-0.188113
2.2763
-0.197805
1.67184
-0.184151
1.17982
-0.161037
0.77929
-0.250235
0.577965
-0.693018
0.753622
-1.43832
1.1609
-2.04693
1.32348
1.21727
-2.36475
-0.00372346
0.342695
-0.0101138
0.878217
-0.0175706
1.29341
-0.0264382
1.61023
-0.0372104
1.90427
-0.0504185
2.18769
-0.0673389
2.48818
-0.088931
2.81278
-0.116415
3.14297
-0.150302
3.45296
-0.183552
3.1044
-0.210641
2.30339
-0.222329
1.68353
-0.215982
1.17348
-0.302744
0.866052
-0.753516
1.02874
-1.53967
1.53978
-2.10771
1.72894
-2.34757
1.56334
1.33178
-2.46208
-0.0035476
0.346243
-0.00961029
0.88428
-0.0167034
1.3005
-0.0253128
1.61884
-0.0359403
1.9149
-0.049202
2.20095
-0.0664294
2.50541
-0.0888179
2.83517
-0.11805
3.1722
-0.156067
3.49098
-0.195654
3.14399
-0.226194
2.33393
-0.256796
1.71413
-0.340275
1.25696
-0.688907
1.21468
-1.43431
1.77414
-2.02518
2.13066
-2.26535
1.9691
-2.37881
1.6768
1.39633
-2.44337
-0.00327012
0.349513
-0.00895316
0.889963
-0.0157798
1.30733
-0.0241238
1.62718
-0.0345631
1.92534
-0.0477718
2.21416
-0.0652068
2.52285
-0.0882791
2.85824
-0.1191
3.20302
-0.160207
3.53208
-0.206482
3.19026
-0.253126
2.38057
-0.298008
1.75902
-0.478576
1.43752
-1.0924
1.82851
-1.78526
2.46699
-2.10735
2.45275
-2.256
2.11775
-2.33819
1.75899
1.46212
-2.40397
-0.00321269
0.352725
-0.00881177
0.895562
-0.0155282
1.31405
-0.0238825
1.63553
-0.0345822
1.93604
-0.0481126
2.22769
-0.0660779
2.54081
-0.0900901
2.88225
-0.122673
3.2356
-0.167953
3.57737
-0.22112
3.24343
-0.268157
2.42761
-0.35949
1.85035
-0.749639
1.82767
-1.48822
2.56709
-1.9628
2.94158
-2.16285
2.65279
-2.26918
2.22408
-2.34621
1.83602
1.52574
-2.40983
-0.00329125
0.356017
-0.00911371
0.901384
-0.0162674
1.3212
-0.0250682
1.64433
-0.0362327
1.9472
-0.0503737
2.24183
-0.0691824
2.55962
-0.0944245
2.9075
-0.128996
3.27017
-0.177567
3.62594
-0.234739
3.3006
-0.300089
2.49296
-0.490071
2.04033
-1.04603
2.38363
-1.67663
3.1977
-1.9534
3.21834
-2.1005
2.7999
-2.21439
2.33796
-2.3079
1.92952
1.58748
-2.36963
-0.00335885
0.359375
-0.00952242
0.907548
-0.0169778
1.32865
-0.0262249
1.65358
-0.0379435
1.95892
-0.0527813
2.25667
-0.0725092
2.57935
-0.099062
2.93405
-0.135538
3.30665
-0.188014
3.67841
-0.251678
3.36427
-0.338517
2.5798
-0.620199
2.32201
-1.2628
3.02623
-1.75256
3.68746
-1.95984
3.42562
-2.10008
2.94013
-2.22386
2.46175
-2.33451
2.04017
1.6461
-2.39313
-0.00332536
0.362701
-0.00970053
0.913923
-0.0177391
1.33669
-0.0275433
1.66339
-0.039774
1.97115
-0.0552761
2.27217
-0.0759051
2.59998
-0.103718
2.96186
-0.142141
3.34507
-0.197093
3.73336
-0.264955
3.43213
-0.391314
2.70615
-0.776671
2.70737
-1.40902
3.65858
-1.76312
4.04156
-1.9363
3.5988
-2.03838
3.04221
-2.1271
2.55047
-2.19463
2.1077
1.63899
-2.18752
-0.00327144
0.365972
-0.0100133
0.920665
-0.0183544
1.34503
-0.0286569
1.67369
-0.0415401
1.98404
-0.0577952
2.28842
-0.0793872
2.62157
-0.108538
2.99101
-0.148751
3.38528
-0.205993
3.79061
-0.285552
3.51169
-0.455547
2.87615
-0.906338
3.15816
-1.462
4.21424
-1.72434
4.3039
-1.87658
3.75104
-1.97001
3.13564
-1.97183
2.55229
-1.90337
2.03924
1.60469
-1.86907
-0.00307159
0.369044
-0.00988874
0.927482
-0.0188534
1.354
-0.0296759
1.68451
-0.0429539
1.99732
-0.0596377
2.30511
-0.0816486
2.64358
-0.111133
3.0205
-0.151772
3.42592
-0.208123
3.84696
-0.293833
3.5974
-0.499119
3.08144
-0.987541
3.64658
-1.42896
4.65566
-1.59498
4.46993
-1.66244
3.8185
-1.6671
3.1403
-1.51976
2.40496
-1.01974
1.53921
0.584956
-0.00260276
0.371647
-0.00991648
0.934796
-0.0191394
1.36322
-0.0305974
1.69597
-0.0449323
2.01165
-0.062952
2.32313
-0.0868489
2.66748
-0.119095
3.05274
-0.163669
3.4705
-0.226711
3.91
-0.330549
3.70124
-0.584998
3.33588
-1.12252
4.1841
-1.48181
5.01496
-1.58165
4.56976
-1.57965
3.8165
-1.47659
3.03724
-1.23725
2.16562
-0.634169
0.936131
-0.0492124
-0.00213726
0.373784
-0.00912999
0.941789
-0.0190449
1.37314
-0.0312967
1.70822
-0.0464869
2.02684
-0.0658165
2.34246
-0.0915871
2.69325
-0.126415
3.08757
-0.175244
3.51933
-0.244581
3.97934
-0.366845
3.8235
-0.680961
3.65
-1.23995
4.7431
-1.50246
5.27746
-1.56148
4.62878
-1.53979
3.79481
-1.33744
2.83489
-0.785656
1.61384
-0.110004
0.260479
-0.159216
-0.00162495
0.375409
-0.00861283
0.948776
-0.0184634
1.38299
-0.0312736
1.72103
-0.0474636
2.04303
-0.0680541
2.36305
-0.0956961
2.72089
-0.133451
3.12533
-0.185949
3.57182
-0.263297
4.05668
-0.412344
3.97255
-0.784121
4.02178
-1.3189
5.27787
-1.49621
5.45477
-1.52753
4.66011
-1.43934
3.70662
-1.10443
2.49998
-0.315591
0.824993
0.0256209
-0.080733
-0.133595
-0.000535792
0.375945
-0.00651283
0.954753
-0.0169674
1.39344
-0.0305369
1.7346
-0.047388
2.05988
-0.0692437
2.3849
-0.098708
2.75035
-0.138727
3.16535
-0.194083
3.62718
-0.280269
4.14287
-0.454216
4.14649
-0.890013
4.45758
-1.36258
5.75044
-1.48047
5.57266
-1.4831
4.66273
-1.2613
3.48482
-0.690906
1.92959
-0.0628885
0.196975
0.0310839
-0.174705
-0.102512
0.000499995
0.375445
-0.00453216
0.959786
-0.0146009
1.40351
-0.0285953
1.74859
-0.04618
2.07747
-0.0690884
2.40781
-0.100095
2.78136
-0.142557
3.20781
-0.200917
3.68554
-0.296134
4.23809
-0.49831
4.34867
-0.983677
4.94294
-1.35961
6.12637
-1.42363
5.63669
-1.37924
4.61834
-1.0902
3.19578
-0.326319
1.16571
0.00435719
-0.133701
0.015129
-0.185477
-0.0873826
0.00320322
0.372241
0.000392423
0.962596
-0.010473
1.41438
-0.0250297
1.76315
-0.042739
2.09518
-0.0667632
2.43184
-0.0991956
2.81379
-0.143154
3.25177
-0.204118
3.7465
-0.307532
4.3415
-0.533328
4.57447
-1.04294
5.45256
-1.32013
6.40356
-1.36212
5.67868
-1.22514
4.48136
-0.778511
2.74915
-0.0734482
0.460644
0.0458718
-0.253021
0.0253768
-0.164982
-0.0620058
0.00492275
0.367319
0.00347701
0.964042
-0.00556306
1.42342
-0.0193779
1.77697
-0.0374446
2.11324
-0.0620378
2.45643
-0.095201
2.84696
-0.140792
3.29736
-0.204199
3.80991
-0.315117
4.45242
-0.571896
4.83124
-1.06515
5.94581
-1.25727
6.59568
-1.26752
5.68893
-1.05091
4.26475
-0.464386
2.16263
-0.0130716
0.0093302
-0.00166973
-0.264423
0.00817455
-0.174826
-0.0538312
0.00846502
0.358854
0.00987231
0.962635
0.0026862
1.4306
-0.0104019
1.79005
-0.0282852
2.13113
-0.0532573
2.4814
-0.0868991
2.8806
-0.132447
3.3429
-0.197193
3.87466
-0.314503
4.56973
-0.589803
5.10654
-1.0403
6.39631
-1.16195
6.71733
-1.15013
5.67711
-0.895572
4.01018
-0.268753
1.53581
-0.069175
-0.190247
-0.0369314
-0.296667
-0.0124752
-0.199283
-0.0663064
0.0118471
0.347007
0.017212
0.95727
0.0130088
1.43481
0.00228787
1.80077
-0.0163796
2.14979
-0.0404348
2.50546
-0.0731929
2.91336
-0.118721
3.38843
-0.183879
3.93982
-0.304272
4.69012
-0.58839
5.39066
-0.973801
6.78172
-1.04466
6.78818
-0.975205
5.60766
-0.687112
3.72209
-0.0920964
0.940793
-0.0137116
-0.268632
-0.0186254
-0.291753
-0.00768716
-0.210221
-0.0739936
0.0181104
0.328896
0.0294958
0.945884
0.0280839
1.43622
0.0181304
1.81073
0.00183936
2.16608
-0.0202401
2.52754
-0.0518041
2.94492
-0.0953057
3.43193
-0.158174
4.00268
-0.278099
4.81005
-0.547491
5.66005
-0.858072
7.0923
-0.890536
6.82065
-0.79554
5.51267
-0.460657
3.38721
0.0388084
0.441327
0.0544967
-0.28432
0.036484
-0.27374
0.013018
-0.186755
-0.0609756
0.0243805
0.304516
0.0430784
0.927187
0.0472076
1.43209
0.0404817
1.81745
0.027363
2.1792
0.0066448
2.54826
-0.0221669
2.97373
-0.062475
3.47224
-0.121851
4.06206
-0.234535
4.92273
-0.471045
5.89656
-0.696389
7.31764
-0.73467
6.85893
-0.617096
5.39509
-0.291692
3.0618
0.00648021
0.143155
0.0242172
-0.302057
0.0321478
-0.281671
0.0167211
-0.171328
-0.0442545
0.0342116
0.270304
0.0635481
0.89785
0.0740932
1.42154
0.0717867
1.81976
0.0629007
2.18809
0.0454894
2.56567
0.0201336
2.99909
-0.0158275
3.5082
-0.0672587
4.11349
-0.162569
5.01804
-0.347602
6.0816
-0.498238
7.46828
-0.537365
6.89805
-0.45184
5.30957
-0.144237
2.7542
-0.0240013
0.0229197
-0.0101815
-0.315877
0.0225624
-0.314415
0.0277363
-0.176502
-0.0165182
0.0437788
0.226525
0.0861928
0.855436
0.107073
1.40066
0.111759
1.81508
0.107247
2.1926
0.0940277
2.57889
0.0751647
3.01795
0.0469236
3.53644
-0.00056485
4.16098
-0.0651297
5.08261
-0.191732
6.2082
-0.272073
7.54862
-0.296433
6.92241
-0.259185
5.27232
-0.0714005
2.56642
-0.12824
0.0797589
-0.107964
-0.336153
-0.0332586
-0.38912
0.0255119
-0.235273
0.0089937
0.0558752
0.17065
0.116587
0.794724
0.151625
1.36562
0.164336
1.80236
0.16666
2.19028
0.159543
2.586
0.147986
3.02951
0.130111
3.55432
0.10406
4.18703
0.066072
5.12059
0.0364333
6.23784
-0.00140151
7.58646
-0.0492965
6.97031
-0.184504
5.40753
-0.311458
2.69337
-0.550236
0.318537
-0.539238
-0.347151
-0.382971
-0.545387
-0.168509
-0.449735
-0.159515
0.0591692
0.111481
0.146559
0.707335
0.202158
1.31003
0.22901
1.77551
0.240182
2.17911
0.240152
2.58603
0.237267
3.03239
0.231594
3.55999
0.225114
4.19351
0.219757
5.12595
0.300035
6.15756
0.380309
7.50618
0.330502
7.02012
0.138539
5.59949
-0.297341
3.12925
-0.752317
0.773513
-0.817728
-0.281741
-0.6305
-0.732615
-0.324978
-0.755256
-0.484493
0.0509948
0.0604861
0.177177
0.581152
0.266967
1.22024
0.310212
1.73227
0.33213
2.15719
0.343237
2.57493
0.349315
3.02632
0.359267
3.55004
0.378968
4.17381
0.421335
5.08359
0.621497
5.9574
0.881197
7.24648
1.04797
6.85335
1.1426
5.50486
0.718002
3.55385
0.0546973
1.43682
-0.395664
0.16862
-0.535322
-0.592956
-0.303041
-0.987538
-0.787534
0.0360308
0.0244553
0.209861
0.407322
0.331498
1.0986
0.405813
1.65795
0.444346
2.11865
0.467673
2.5516
0.481888
3.0121
0.506279
3.52565
0.552688
4.1274
0.655779
4.9805
1.00047
5.6127
1.58338
6.66357
1.99526
6.44146
2.29582
5.2043
2.12794
3.72172
1.48081
2.08395
0.878763
0.770664
0.343053
-0.0572456
0.0717709
-0.716256
-0.715763
0.0314089
-0.00695361
0.230858
0.207873
0.420543
0.908914
0.523783
1.55471
0.577265
2.06517
0.61485
2.51401
0.641313
2.98564
0.67708
3.48988
0.75075
4.05373
0.903353
4.82789
1.33343
5.18263
2.11348
5.88352
2.52043
6.03451
2.71875
5.00599
2.61588
3.82459
2.12013
2.5797
1.54333
1.34746
1.04395
0.44214
0.420722
-0.0930307
-0.295041
0.0282834
-0.035237
0.177076
0.059081
0.471736
0.614254
0.649621
1.37683
0.735158
1.97963
0.783933
2.46524
0.824425
2.94515
0.86267
3.45164
0.940212
3.97619
1.09038
4.67773
1.42686
4.84614
2.1715
5.13889
2.53537
5.67064
2.69483
4.84652
2.61268
3.90674
2.22845
2.96393
1.61714
1.95877
0.977443
1.08184
0.413332
0.47108
0.11829
0.00997811
-0.0452152
0.0927838
-0.0237246
0.405473
0.301565
0.651935
1.13036
0.771541
1.86003
0.806336
2.43045
0.816259
2.93522
0.806222
3.46167
0.803694
3.97871
0.846251
4.63517
0.945857
4.74654
1.29439
4.79035
1.50115
5.46388
1.50914
4.83853
1.43262
3.98326
1.24544
3.15111
0.922117
2.2821
0.572156
1.4318
0.238733
0.804503
0.357023
-0.00334604
-0.0418691
0.0347451
-0.0618158
0.234268
0.102042
0.487559
0.877074
0.620756
1.72683
0.668341
2.38286
0.685339
2.91822
0.681723
3.46529
0.665556
3.99488
0.671656
4.62907
0.715604
4.70259
0.923945
4.58201
1.13712
5.2507
1.13588
4.83978
1.06808
4.05106
0.931625
3.28757
0.703469
2.51025
0.431811
1.70346
0.173475
1.06284
0.530498
0.00273378
-0.0446029
0.0318782
-0.0909603
0.126957
0.0069634
0.350569
0.653461
0.475001
1.6024
0.523959
2.3339
0.54008
2.9021
0.543604
3.46177
0.53186
4.00663
0.523198
4.63773
0.537678
4.68811
0.667569
4.45212
0.825716
5.09256
0.821675
4.84382
0.751411
4.12132
0.64209
3.39689
0.482493
2.66985
0.285851
1.9001
0.105179
1.24351
0.635677
0.020055
-0.0646579
0.063785
-0.13469
0.113986
-0.0432378
0.254279
0.513169
0.350265
1.50641
0.392366
2.2918
0.404684
2.88978
0.411653
3.4548
0.409064
4.00921
0.400798
4.646
0.397608
4.6913
0.469645
4.38009
0.577315
4.98489
0.573137
4.84799
0.511438
4.18302
0.428418
3.47991
0.317409
2.78086
0.181801
2.03571
0.0563148
1.369
0.691992
0.0440151
-0.108673
0.0939003
-0.184575
0.107562
-0.0568993
0.136325
0.484406
0.20188
1.44086
0.242002
2.25168
0.262023
2.86976
0.279149
3.43767
0.290805
3.99756
0.292532
4.64427