/*--------------------------------*- C++ -*----------------------------------*\
| =========                 |                                                 |
| \\      /  F ield         | OpenFOAM: The Open Source CFD Toolbox           |
|  \\    /   O peration     | Version:  4.0                                   |
|   \\  /    A nd           | Web:      www.OpenFOAM.org                      |
|    \\/     M anipulation  |                                                 |
\*---------------------------------------------------------------------------*/
FoamFile
{
    version     2.0;
    format      ascii;
    class       volVectorField;
    location    "48";
    object      U;
}
// * * * * * * * * * * * * * * * * * * * * * * * * * * * * * * * * * * * * * //

dimensions      [0 1 -1 0 0 0 0];

internalField   nonuniform List<vector> 
2200
(
(0.878832 -0.0304147 0)
(1.00578 -0.0512823 0)
(1.00327 -0.0354096 0)
(1.00022 -0.0244497 0)
(0.999821 -0.0166786 0)
(1.00001 -0.0107387 0)
(1.00002 -0.00687346 0)
(1.00002 -0.00423707 0)
(1.00001 -0.00226849 0)
(1.00017 -0.000732977 0)
(1.00003 0.000937415 0)
(0.999957 0.00246766 0)
(0.999991 0.00442188 0)
(1.00004 0.00701069 0)
(1.0001 0.0108712 0)
(0.999955 0.0166793 0)
(1.0003 0.0244134 0)
(1.00347 0.0349648 0)
(1.00595 0.0513654 0)
(0.879006 0.03032 0)
(0.712011 -0.0327633 0)
(0.99663 -0.0630212 0)
(1.03331 -0.0561505 0)
(1.02494 -0.0464193 0)
(1.01595 -0.0361144 0)
(1.00968 -0.0263902 0)
(1.00591 -0.018123 0)
(1.00375 -0.0114204 0)
(1.00256 -0.00603574 0)
(1.00204 -0.00152429 0)
(1.00208 0.00263818 0)
(1.00257 0.0070738 0)
(1.00368 0.0123143 0)
(1.00584 0.0189409 0)
(1.00945 0.0270845 0)
(1.01554 0.0368473 0)
(1.02463 0.0472961 0)
(1.03311 0.0577224 0)
(0.996674 0.0631478 0)
(0.711801 0.033001 0)
(0.53549 -0.0239004 0)
(0.969874 -0.0569545 0)
(1.05642 -0.0547647 0)
(1.0522 -0.0488075 0)
(1.03616 -0.0404808 0)
(1.02441 -0.0323315 0)
(1.01589 -0.0240766 0)
(1.01038 -0.0161759 0)
(1.00717 -0.0089181 0)
(1.0056 -0.00230594 0)
(1.00543 0.00403803 0)
(1.00688 0.0106102 0)
(1.01013 0.0177113 0)
(1.01553 0.0253747 0)
(1.02415 0.0333961 0)
(1.0362 0.0413843 0)
(1.05223 0.0494163 0)
(1.05635 0.0535366 0)
(0.969221 0.0576107 0)
(0.534412 0.0239346 0)
(0.392222 -0.0136539 0)
(0.911752 -0.046406 0)
(1.05745 -0.0469314 0)
(1.06953 -0.0443049 0)
(1.05488 -0.0381722 0)
(1.03931 -0.031527 0)
(1.02752 -0.0247537 0)
(1.01903 -0.0175539 0)
(1.01366 -0.0100598 0)
(1.01107 -0.0024473 0)
(1.01106 0.00511579 0)
(1.01352 0.0125156 0)
(1.01855 0.0197636 0)
(1.02682 0.0266489 0)
(1.03846 0.0330387 0)
(1.05389 0.0394183 0)
(1.06818 0.0454756 0)
(1.05565 0.0482011 0)
(0.910026 0.0469261 0)
(0.390064 0.0137659 0)
(0.307557 -0.00451709 0)
(0.846592 -0.0324042 0)
(1.04937 -0.0399816 0)
(1.07948 -0.0383121 0)
(1.06813 -0.0336608 0)
(1.05161 -0.0280078 0)
(1.0383 -0.0226386 0)
(1.02813 -0.0166126 0)
(1.0211 -0.00976313 0)
(1.0172 -0.00219081 0)
(1.01682 0.00562216 0)
(1.02033 0.0130199 0)
(1.02721 0.0194768 0)
(1.03717 0.0251233 0)
(1.05029 0.0301569 0)
(1.06683 0.0355576 0)
(1.07793 0.0399209 0)
(1.04742 0.0415789 0)
(0.843207 0.0329172 0)
(0.304023 0.00470991 0)
(0.264082 9.44533e-05 0)
(0.788742 -0.0201117 0)
(1.03305 -0.0315161 0)
(1.08337 -0.0320849 0)
(1.07728 -0.0288311 0)
(1.06082 -0.0239671 0)
(1.04709 -0.0194796 0)
(1.03623 -0.0144037 0)
(1.02843 -0.00837285 0)
(1.02404 -0.00136299 0)
(1.02389 0.00599472 0)
(1.02774 0.0126639 0)
(1.03485 0.0182653 0)
(1.04531 0.0229368 0)
(1.0588 0.0269446 0)
(1.07495 0.0313555 0)
(1.08045 0.0341231 0)
(1.02934 0.033218 0)
(0.783015 0.0207148 0)
(0.259155 0.000105777 0)
(0.240074 0.00106048 0)
(0.738073 -0.0123249 0)
(1.01372 -0.0251058 0)
(1.08405 -0.0269298 0)
(1.08286 -0.0246459 0)
(1.06769 -0.0205458 0)
(1.05417 -0.0165546 0)
(1.04331 -0.0120475 0)
(1.0352 -0.00667289 0)
(1.03026 -0.000401843 0)
(1.0296 0.00628507 0)
(1.03362 0.0121504 0)
(1.04135 0.0169734 0)
(1.05177 0.0208847 0)
(1.06498 0.0243583 0)
(1.07982 0.0278512 0)
(1.08034 0.029473 0)
(1.00805 0.027052 0)
(0.729579 0.0130801 0)
(0.233615 -0.000855298 0)
(0.225614 0.000943178 0)
(0.694787 -0.00808756 0)
(0.992348 -0.0208537 0)
(1.0818 -0.0232951 0)
(1.08674 -0.0215137 0)
(1.07329 -0.0179964 0)
(1.05983 -0.0142092 0)
(1.04923 -0.00987616 0)
(1.04126 -0.0049692 0)
(1.03641 0.000679657 0)
(1.03588 0.0066406 0)
(1.03959 0.0119422 0)
(1.04633 0.0161916 0)
(1.05633 0.0197694 0)
(1.06943 0.0227543 0)
(1.08209 0.0254991 0)
(1.07581 0.0265002 0)
(0.983741 0.0232205 0)
(0.682761 0.00905162 0)
(0.217319 -0.000729781 0)
(0.216033 0.000623948 0)
(0.6596 -0.00570562 0)
(0.972411 -0.017676 0)
(1.07933 -0.0202878 0)
(1.0899 -0.0187548 0)
(1.07792 -0.0157356 0)
(1.06465 -0.0121542 0)
(1.05424 -0.00808116 0)
(1.0464 -0.00324622 0)
(1.04142 0.00208303 0)
(1.04047 0.00745351 0)
(1.04387 0.0121096 0)
(1.05083 0.0159973 0)
(1.06028 0.0191704 0)
(1.07291 0.021932 0)
(1.08388 0.0240632 0)
(1.0718 0.0246744 0)
(0.960423 0.0207379 0)
(0.643188 0.00696452 0)
(0.205424 -0.000357585 0)
(0.208656 0.000284625 0)
(0.630418 -0.0042655 0)
(0.952639 -0.0152064 0)
(1.07568 -0.0181942 0)
(1.09291 -0.016905 0)
(1.08256 -0.0139196 0)
(1.06917 -0.0103928 0)
(1.05873 -0.00634543 0)
(1.05096 -0.00183767 0)
(1.04599 0.00308133 0)
(1.04479 0.0080831 0)
(1.04756 0.0125838 0)
(1.05352 0.0161623 0)
(1.06294 0.0190244 0)
(1.07568 0.0213934 0)
(1.08475 0.0233336 0)
(1.06431 0.0233035 0)
(0.935544 0.0187576 0)
(0.608592 0.00578133 0)
(0.195197 1.34519e-05 0)
(0.202806 6.68366e-05 0)
(0.607247 -0.00321593 0)
(0.935107 -0.012675 0)
(1.07289 -0.0158086 0)
(1.09625 -0.0147093 0)
(1.08713 -0.0120607 0)
(1.07359 -0.00851854 0)
(1.06293 -0.00467936 0)
(1.05492 -8.14414e-05 0)
(1.04975 0.00490346 0)
(1.04841 0.00976705 0)
(1.05111 0.0136656 0)
(1.05721 0.0168327 0)
(1.06623 0.019458 0)
(1.07859 0.0216441 0)
(1.08554 0.0228098 0)
(1.05869 0.0223845 0)
(0.912994 0.0171455 0)
(0.579242 0.00506912 0)
(0.185965 0.00029112 0)
(0.198024 1.58321e-06 0)
(0.588597 -0.00234127 0)
(0.918941 -0.0104246 0)
(1.06937 -0.0136939 0)
(1.09942 -0.0127358 0)
(1.09201 -0.0100493 0)
(1.07832 -0.00668049 0)
(1.06733 -0.00279482 0)
(1.05913 0.00157661 0)
(1.05368 0.00626054 0)
(1.05144 0.0108165 0)
(1.05328 0.0148241 0)
(1.05892 0.0178351 0)
(1.06817 0.0199704 0)
(1.08068 0.0218512 0)
(1.08538 0.0227438 0)
(1.04916 0.0216756 0)
(0.888332 0.0157658 0)
(0.552168 0.00463708 0)
(0.176875 0.000458656 0)
(0.194433 2.34599e-05 0)
(0.573813 -0.00157122 0)
(0.904496 -0.00815932 0)
(1.0666 -0.0112644 0)
(1.1028 -0.0103377 0)
(1.09667 -0.00784342 0)
(1.08296 -0.00435402 0)
(1.07157 -0.000610759 0)
(1.06268 0.00381788 0)
(1.05656 0.0087501 0)
(1.05447 0.0134116 0)
(1.0565 0.0168527 0)
(1.06204 0.0192932 0)
(1.07104 0.0211308 0)
(1.08262 0.0224012 0)
(1.08477 0.0228437 0)
(1.04145 0.021193 0)
(0.866308 0.0147334 0)
(0.528655 0.00438913 0)
(0.168372 0.000539253 0)
(0.192209 3.78191e-05 0)
(0.563109 -0.000830606 0)
(0.892626 -0.00608419 0)
(1.06361 -0.00897773 0)
(1.10592 -0.00788691 0)
(1.10152 -0.00514967 0)
(1.08779 -0.0017095 0)
(1.07613 0.00220259 0)
(1.06695 0.00656817 0)
(1.06025 0.0110707 0)
(1.05673 0.0150151 0)
(1.05786 0.018445 0)
(1.06313 0.0206633 0)
(1.07214 0.0220471 0)
(1.08317 0.0229898 0)
(1.08308 0.0231462 0)
(1.02936 0.0209929 0)
(0.841371 0.0139654 0)
(0.505331 0.00425134 0)
(0.159673 0.000579334 0)
(0.191212 9.10157e-05 0)
(0.555504 -0.00024593 0)
(0.882427 -0.00394563 0)
(1.0621 -0.00616992 0)
(1.10984 -0.00482117 0)
(1.10665 -0.00202192 0)
(1.09304 0.00164573 0)
(1.08099 0.00550531 0)
(1.0711 0.00981426 0)
(1.06351 0.0144517 0)
(1.0602 0.018579 0)
(1.06131 0.0210496 0)
(1.06603 0.0225554 0)
(1.07448 0.0236538 0)
(1.0839 0.0240945 0)
(1.08095 0.0237983 0)
(1.01926 0.0210609 0)
(0.819234 0.0135895 0)
(0.484634 0.00424677 0)
(0.151491 0.000613453 0)
(0.191722 5.61295e-05 0)
(0.551227 0.000813998 0)
(0.875888 -0.00163447 0)
(1.06093 -0.00359568 0)
(1.11389 -0.00188188 0)
(1.11222 0.00137743 0)
(1.09844 0.00527744 0)
(1.08603 0.00939796 0)
(1.07566 0.0137665 0)
(1.06747 0.0180545 0)
(1.06228 0.0214381 0)
(1.06171 0.0238498 0)
(1.0659 0.0250126 0)
(1.07442 0.0254773 0)
(1.08348 0.0258465 0)
(1.0769 0.0249644 0)
(1.00484 0.021487 0)
(0.793599 0.0133916 0)
(0.462752 0.00427627 0)
(0.142761 0.000627346 0)
(0.193695 0.000209711 0)
(0.551451 0.00149645 0)
(0.870891 0.0004977 0)
(1.06162 -0.000146565 0)
(1.11874 0.00187366 0)
(1.11803 0.00517691 0)
(1.10418 0.00942652 0)
(1.09103 0.0138299 0)
(1.07974 0.018427 0)
(1.07027 0.022932 0)
(1.06487 0.0265095 0)
(1.06466 0.0282837 0)
(1.06829 0.0287561 0)
(1.07594 0.0288464 0)
(1.08249 0.0281644 0)
(1.07213 0.0267394 0)
(0.991417 0.0225065 0)
(0.770193 0.0136434 0)
(0.442601 0.00451793 0)
(0.134314 0.000671811 0)
(0.197666 0.000650095 0)
(0.55406 0.00225875 0)
(0.871083 0.00338033 0)
(1.06336 0.00303536 0)
(1.12415 0.0055421 0)
(1.1246 0.00947986 0)
(1.1102 0.0141304 0)
(1.09646 0.0189479 0)
(1.0846 0.0238527 0)
(1.07455 0.0282784 0)
(1.06718 0.0311197 0)
(1.06384 0.0321827 0)
(1.06614 0.0323684 0)
(1.07374 0.0316621 0)
(1.08047 0.0310701 0)
(1.0658 0.028871 0)
(0.97347 0.0236183 0)
(0.742602 0.0141336 0)
(0.419976 0.00479758 0)
(0.124788 0.000710602 0)
(0.204083 0.000864241 0)
(0.560984 0.00343008 0)
(0.874873 0.00579073 0)
(1.06796 0.0074932 0)
(1.13058 0.0108116 0)
(1.13181 0.0148097 0)
(1.1171 0.0197929 0)
(1.10235 0.0250898 0)
(1.08908 0.030525 0)
(1.07695 0.0353018 0)
(1.06831 0.0383068 0)
(1.06562 0.0393368 0)
(1.06783 0.0388002 0)
(1.0741 0.0374892 0)
(1.07692 0.0349917 0)
(1.05732 0.0317246 0)
(0.956018 0.0254402 0)
(0.71675 0.015083 0)
(0.398218 0.00522645 0)
(0.115218 0.000776381 0)
(0.212271 0.00102194 0)
(0.57199 0.00472703 0)
(0.88276 0.00888072 0)
(1.07462 0.0118213 0)
(1.13797 0.0160629 0)
(1.13986 0.0210365 0)
(1.12431 0.0268553 0)
(1.10851 0.0326516 0)
(1.09381 0.0383867 0)
(1.08029 0.0431645 0)
(1.0697 0.0455017 0)
(1.06358 0.0451857 0)
(1.06282 0.0436658 0)
(1.06893 0.0410455 0)
(1.07263 0.0392673 0)
(1.04743 0.0351221 0)
(0.933434 0.0275467 0)
(0.685389 0.0162134 0)
(0.372675 0.00568494 0)
(0.104102 0.000836156 0)
(0.224562 0.0013553 0)
(0.590304 0.00671936 0)
(0.897589 0.0134414 0)
(1.08512 0.0183599 0)
(1.14725 0.0235871 0)
(1.1489 0.0291 0)
(1.13235 0.0357608 0)
(1.1148 0.0425053 0)
(1.09767 0.048874 0)
(1.08101 0.0537035 0)
(1.06806 0.0553555 0)
(1.06267 0.0544187 0)
(1.06362 0.0522592 0)
(1.06802 0.0493773 0)
(1.06591 0.044997 0)
(1.0343 0.0392653 0)
(0.910596 0.0303293 0)
(0.655093 0.0176158 0)
(0.347509 0.00624654 0)
(0.092828 0.000879794 0)
(0.240283 0.00194082 0)
(0.614338 0.00860251 0)
(0.918951 0.0182353 0)
(1.09975 0.0254998 0)
(1.15854 0.0322624 0)
(1.16 0.0393175 0)
(1.14182 0.0472511 0)
(1.12259 0.0545842 0)
(1.10351 0.061014 0)
(1.08475 0.0651272 0)
(1.06947 0.0659093 0)
(1.06021 0.0636286 0)
(1.05652 0.0597941 0)
(1.05901 0.0549658 0)
(1.05822 0.0510309 0)
(1.01919 0.0442008 0)
(0.881111 0.033408 0)
(0.61769 0.0193505 0)
(0.317265 0.00686696 0)
(0.0796962 0.00089114 0)
(0.26236 0.00280523 0)
(0.647819 0.0124065 0)
(0.947645 0.0250677 0)
(1.119 0.0351347 0)
(1.17307 0.0433305 0)
(1.17303 0.0521458 0)
(1.15254 0.0610717 0)
(1.13057 0.0694305 0)
(1.10816 0.0764247 0)
(1.08573 0.0806264 0)
(1.06697 0.0801087 0)
(1.05681 0.0762051 0)
(1.05454 0.0710084 0)
(1.05683 0.0658044 0)
(1.04769 0.0589709 0)
(0.999985 0.0499574 0)
(0.850916 0.0374215 0)
(0.580966 0.0215596 0)
(0.286804 0.00753859 0)
(0.0664943 0.000855346 0)
(0.293916 0.00372076 0)
(0.69407 0.0156067 0)
(0.986925 0.0332724 0)
(1.14453 0.0467205 0)
(1.19054 0.0573914 0)
(1.18827 0.068339 0)
(1.16433 0.078989 0)
(1.13924 0.0878849 0)
(1.11381 0.0945164 0)
(1.08823 0.0971597 0)
(1.06647 0.095149 0)
(1.05268 0.0899697 0)
(1.04559 0.0829734 0)
(1.04369 0.0752774 0)
(1.0355 0.0678105 0)
(0.977705 0.0574801 0)
(0.811771 0.0420728 0)
(0.534031 0.0241464 0)
(0.248972 0.00812267 0)
(0.0511578 0.000787052 0)
(0.33035 0.00708423 0)
(0.752092 0.0247124 0)
(1.03513 0.0463337 0)
(1.17574 0.0639124 0)
(1.21221 0.076507 0)
(1.20511 0.0905291 0)
(1.17611 0.101959 0)
(1.14611 0.111026 0)
(1.11534 0.117054 0)
(1.08484 0.118786 0)
(1.05957 0.114902 0)
(1.04453 0.10664 0)
(1.03908 0.0978127 0)
(1.038 0.0893086 0)
(1.01903 0.0791278 0)
(0.949309 0.0656328 0)
(0.77025 0.0477234 0)
(0.48685 0.0270373 0)
(0.211369 0.00862604 0)
(0.0365795 0.000660077 0)
(0.410456 0.0107544 0)
(0.839542 0.0357958 0)
(1.10035 0.067393 0)
(1.21466 0.0895802 0)
(1.2376 0.104925 6.48503e-34)
(1.22345 0.120536 -2.91482e-34)
(1.18809 0.131941 0)
(1.15352 0.139897 0)
(1.1191 0.143783 0)
(1.08522 0.142247 0)
(1.05617 0.134284 0)
(1.03751 0.124695 0)
(1.02704 0.113429 0)
(1.01967 0.102085 0)
(1.00001 0.090644 0)
(0.916567 0.0748393 0)
(0.71685 0.0528549 0)
(0.424817 0.0291332 0)
(0.162783 0.00835433 0)
(0.0195304 0.000716239 0)
(0.48185 0.0259694 4.84107e-20)
(0.941425 0.0596158 -3.66355e-20)
(1.17005 0.101248 0)
(1.25476 0.127423 2.81784e-20)
(1.26489 0.142753 -2.28494e-20)
(1.24117 0.160498 3.07538e-34)
(1.19895 0.170102 0)
(1.15883 0.175936 1.62989e-20)
(1.11805 0.177501 -5.34783e-20)
(1.07722 0.173139 1.09035e-20)
(1.04413 0.163634 0)
(1.02365 0.149355 -2.75798e-20)
(1.01453 0.136102 -3.30385e-20)
(1.00856 0.123469 5.77839e-20)
(0.97027 0.107874 -4.56432e-20)
(0.864063 0.0861269 0)
(0.644257 0.0597348 -1.64845e-20)
(0.34852 0.0301184 0)
(0.111059 0.00830285 -9.08376e-20)
(0.00221833 0.000671257 1.0706e-19)
(0.517993 0.0535828 -6.33202e-21)
(1.00546 0.102575 1.10771e-19)
(1.21939 0.151513 -6.52197e-21)
(1.2878 0.175164 -7.03539e-20)
(1.28887 0.192149 -4.84366e-20)
(1.25611 0.207745 7.878e-20)
(1.20763 0.214488 0)
(1.16213 0.217754 0)
(1.11654 0.216368 8.51756e-20)
(1.07311 0.209015 0)
(1.03585 0.194466 9.98284e-20)
(1.00986 0.179346 2.95924e-20)
(0.992391 0.163943 3.82991e-22)
(0.97232 0.147319 -6.30657e-20)
(0.933149 0.130069 0)
(0.815704 0.105941 0)
(0.581967 0.070386 -2.69568e-19)
(0.294129 0.0339019 6.76805e-19)
(0.0849942 0.008793 -4.00357e-19)
(-0.00694786 -0.000194492 -4.72205e-19)
(0.525687 0.076265 -6.46552e-20)
(1.04306 0.159412 2.45341e-20)
(1.25607 0.211709 1.31856e-20)
(1.31389 0.234043 1.22916e-19)
(1.30751 0.249408 1.43378e-20)
(1.26732 0.260736 -2.05649e-19)
(1.21333 0.263679 6.99733e-20)
(1.16238 0.263663 0)
(1.11107 0.259342 -1.804e-19)
(1.05993 0.248931 1.59889e-19)
(1.01569 0.231542 -2.69552e-19)
(0.986674 0.212793 1.26341e-19)
(0.970514 0.194524 -8.18608e-20)
(0.95596 0.179054 1.8435e-19)
(0.90387 0.158853 0)
(0.777351 0.125753 -6.74831e-20)
(0.548289 0.0828554 0)
(0.283084 0.0389403 3.7258e-19)
(0.0837432 0.0115637 -8.81377e-19)
(-0.00694224 -0.00122448 5.52774e-19)
(0.520994 0.107957 1.83712e-19)
(1.06242 0.2159 -8.01947e-20)
(1.27735 0.276501 -1.69325e-20)
(1.33083 0.298196 0)
(1.31925 0.311535 -9.08355e-20)
(1.27376 0.31776 1.1199e-19)
(1.21506 0.315979 -7.49789e-20)
(1.15893 0.312029 0)
(1.10219 0.303478 1.28257e-19)
(1.04622 0.2876 -1.12388e-19)
(1.00002 0.267174 2.33762e-19)
(0.967655 0.246183 0)
(0.944412 0.228323 -1.74027e-19)
(0.919022 0.20714 9.80302e-20)
(0.871723 0.184612 2.47538e-19)
(0.750952 0.151057 -2.1782e-19)
(0.533202 0.101603 3.46414e-19)
(0.283972 0.0513243 -7.67799e-19)
(0.0940735 0.0164502 4.84746e-19)
(-0.00134269 -0.000569617 -6.06348e-19)
(0.509728 0.132335 -6.59212e-20)
(1.07123 0.270275 4.72765e-20)
(1.28879 0.342732 -5.62086e-20)
(1.33991 0.364022 1.10874e-19)
(1.3247 0.374953 -1.04076e-19)
(1.27542 0.376232 3.5574e-20)
(1.2132 0.370048 3.62366e-21)
(1.15328 0.361958 -1.45955e-19)
(1.09289 0.349301 -1.34639e-19)
(1.03385 0.330464 -2.41584e-19)
(0.982271 0.307189 -5.02786e-19)
(0.944768 0.282392 -1.54844e-19)
(0.921417 0.259757 2.31608e-21)
(0.900745 0.241862 -3.36193e-19)
(0.846307 0.217275 -6.03583e-21)
(0.72479 0.175181 3.17229e-19)
(0.520121 0.119884 -9.57619e-20)
(0.288474 0.0646914 -5.55138e-20)
(0.10667 0.023381 0)
(0.0059326 0.00112811 1.2907e-18)
(0.492993 0.153151 0)
(1.06542 0.319717 -5.01202e-21)
(1.2909 0.405697 -1.01596e-20)
(1.34211 0.427872 -1.27601e-20)
(1.32435 0.437818 1.01094e-19)
(1.27263 0.434796 -8.26809e-20)
(1.20774 0.424192 8.19567e-20)
(1.14447 0.411821 2.3952e-19)
(1.07981 0.39458 -7.49269e-20)
(1.01494 0.370977 1.19608e-19)
(0.957383 0.3417 2.70346e-19)
(0.919158 0.315217 3.37525e-19)
(0.894766 0.295265 -2.03299e-19)
(0.864824 0.271341 3.6402e-19)
(0.816268 0.244326 -2.88461e-19)
(0.705924 0.203891 0)
(0.516386 0.14293 -7.27241e-19)
(0.299604 0.0817755 9.78773e-19)
(0.122212 0.0330827 7.30573e-20)
(0.0144445 0.00396918 -1.36463e-18)
(0.479079 0.173519 -5.11809e-21)
(1.05825 0.368444 1.07796e-20)
(1.28857 0.466981 7.42379e-20)
(1.33974 0.489853 -9.55298e-20)
(1.31981 0.498563 8.32461e-20)
(1.26612 0.491705 -8.03475e-20)
(1.19919 0.477484 1.62704e-19)
(1.13331 0.461491 -7.21602e-20)
(1.0657 0.440725 -3.02363e-19)
(0.998577 0.41407 2.28741e-23)
(0.942168 0.38322 -2.93597e-19)
(0.900169 0.355235 -3.62865e-19)
(0.868543 0.329802 2.24273e-19)
(0.846312 0.305917 -1.30935e-19)
(0.792747 0.278485 3.13332e-19)
(0.683267 0.227993 0)
(0.505916 0.165049 -4.51172e-19)
(0.304233 0.0979706 6.66317e-19)
(0.133137 0.0430411 1.26178e-18)
(0.0212075 0.00702396 -1.48422e-18)
(0.465023 0.191269 -4.43599e-20)
(1.04594 0.412862 1.60172e-20)
(1.2819 0.524441 -5.17173e-20)
(1.33347 0.548851 9.898e-20)
(1.31172 0.55711 1.1878e-20)
(1.25659 0.546938 -1.57911e-19)
(1.188 0.52927 -9.41179e-20)
(1.12003 0.509595 -9.17721e-20)
(1.05031 0.484808 -1.70191e-19)
(0.980138 0.453329 2.74195e-19)
(0.916552 0.417751 2.96946e-19)
(0.871063 0.387174 5.75861e-19)
(0.844509 0.360893 0)
(0.810099 0.334699 6.33098e-21)
(0.764127 0.302118 -8.6009e-19)
(0.664647 0.256581 2.00792e-19)
(0.500634 0.187443 9.7507e-19)
(0.309873 0.115839 -2.87697e-19)
(0.142377 0.0534326 5.98798e-19)
(0.0266373 0.0102439 -4.99442e-20)
(0.455452 0.209685 5.93582e-21)
(1.03513 0.456141 3.8514e-20)
(1.27328 0.579675 -2.39551e-20)
(1.32471 0.605596 1.12525e-19)
(1.30133 0.612915 -1.70629e-19)
(1.24496 0.599577 1.57106e-19)
(1.17518 0.579013 9.74327e-20)
(1.10575 0.556233 2.74639e-19)
(1.03369 0.528403 3.42443e-19)
(0.959974 0.494654 -3.1594e-19)
(0.896437 0.458163 0)
(0.853136 0.423021 -2.17382e-19)
(0.817187 0.392756 2.49578e-19)
(0.793451 0.365346 3.14866e-19)
(0.741226 0.333853 -1.82008e-19)
(0.643303 0.277688 -4.44367e-19)
(0.488309 0.208664 -1.32666e-19)
(0.309054 0.131385 -1.61691e-21)
(0.14662 0.0623918 0)
(0.029947 0.0128429 0)
(0.447402 0.225981 -6.49279e-20)
(1.02305 0.496242 0)
(1.2625 0.631182 -9.68739e-21)
(1.31372 0.659033 -8.98317e-21)
(1.28906 0.665952 1.92693e-19)
(1.23183 0.649942 -4.9164e-20)
(1.16109 0.626639 9.88578e-20)
(1.09017 0.600944 -1.86011e-19)
(1.01625 0.570121 2.59499e-19)
(0.941837 0.532679 -1.03032e-19)
(0.875524 0.490627 1.69832e-19)
(0.825358 0.452424 6.89013e-19)
(0.794342 0.422265 1.41642e-20)
(0.758418 0.390777 -3.28108e-19)
(0.712641 0.353012 6.07878e-19)
(0.623153 0.304042 4.1489e-21)
(0.47753 0.228084 1.41933e-19)
(0.304189 0.14526 -6.7701e-19)
(0.145094 0.0693924 6.97457e-19)
(0.030816 0.0144483 -8.21965e-19)
(0.440799 0.243787 3.97188e-23)
(1.01187 0.534849 0)
(1.25095 0.680433 0)
(1.30158 0.710178 -5.51036e-21)
(1.27579 0.716101 -5.78704e-20)
(1.21774 0.697432 7.39454e-20)
(1.14616 0.671854 -1.85108e-19)
(1.0742 0.643807 0)
(0.998749 0.610399 -3.82511e-19)
(0.921331 0.570575 4.56964e-19)
(0.851804 0.526444 4.83149e-19)
(0.802594 0.48594 -2.52918e-19)
(0.767187 0.449622 -3.05616e-19)
(0.74082 0.417195 7.1642e-19)
(0.690454 0.381269 -2.15896e-19)
(0.600711 0.319897 -2.57852e-19)
(0.461163 0.24492 -1.54355e-19)
(0.296738 0.156215 -7.29911e-19)
(0.140855 0.074212 1.06512e-19)
(0.0300609 0.0153616 8.86671e-19)
(0.436493 0.262004 -3.34564e-20)
(1.00095 0.571098 -4.29255e-20)
(1.2384 0.72618 2.36377e-20)
(1.28839 0.757888 -1.6258e-22)
(1.26169 0.763414 -5.68168e-20)
(1.20299 0.742628 1.21194e-19)
(1.13075 0.714872 0)
(1.05789 0.684474 1.11911e-19)
(0.981342 0.648924 -8.82425e-20)
(0.902809 0.606548 7.61098e-19)
(0.832101 0.558205 -1.10394e-19)
(0.779164 0.513586 1.25223e-19)
(0.743438 0.476556 0)
(0.705585 0.439243 -3.87813e-19)
(0.66208 0.395016 4.6946e-19)
(0.579786 0.341796 0)
(0.447692 0.258367 -3.32738e-19)
(0.285997 0.165619 9.78295e-19)
(0.134615 0.0767636 1.15406e-19)
(0.0278431 0.0158096 -1.09114e-18)
(0.433985 0.278955 -8.64597e-20)
(0.991113 0.605847 1.10959e-19)
(1.22581 0.769755 0)
(1.27488 0.803369 7.53525e-21)
(1.24728 0.807999 0)
(1.18797 0.78502 -1.55095e-19)
(1.11531 0.755429 0)
(1.04185 0.723253 0)
(0.963799 0.685773 -1.1617e-19)
(0.88212 0.64105 -7.23364e-19)
(0.808061 0.590455 -8.92215e-19)
(0.75365 0.542925 1.46282e-19)
(0.714083 0.499644 5.27356e-19)
(0.68817 0.460538 4.26697e-19)
(0.639906 0.419819 -1.5059e-18)
(0.557361 0.351614 -6.04554e-19)
(0.42802 0.269791 3.53957e-19)
(0.273209 0.170582 0)
(0.126669 0.0776834 9.91402e-19)
(0.0251004 0.0153564 -1.17507e-18)
(0.432331 0.294704 1.04951e-19)
(0.981578 0.638471 -1.30275e-19)
(1.21297 0.810102 0)
(1.26102 0.845514 -1.09802e-20)
(1.23271 0.849856 2.77209e-21)
(1.17299 0.825214 0)
(1.09996 0.793936 5.66034e-20)
(1.02574 0.759896 7.70887e-20)
(0.946612 0.720885 -2.1879e-19)
(0.864141 0.67464 9.59208e-20)
(0.78829 0.621559 0)
(0.730522 0.568857 6.05565e-19)
(0.691805 0.523349 4.87857e-21)
(0.652008 0.47879 2.30102e-19)
(0.611126 0.427038 2.73351e-19)
(0.535023 0.368697 0)
(0.412261 0.276926 -5.78579e-19)
(0.25925 0.173934 1.13532e-18)
(0.118309 0.0771431 -1.20051e-18)
(0.0221892 0.0145318 2.52959e-18)
(0.431069 0.309671 0)
(0.972704 0.669657 0)
(1.20051 0.848409 -6.29889e-20)
(1.24734 0.885628 0)
(1.21828 0.889222 0)
(1.15813 0.862794 -1.29184e-19)
(1.08484 0.830048 5.79058e-20)
(1.01014 0.794705 1.75673e-20)
(0.92969 0.754256 -5.01059e-20)
(0.844096 0.706204 0)
(0.764064 0.650453 -1.35581e-19)
(0.704226 0.594681 -4.93944e-19)
(0.66091 0.54358 -5.9458e-19)
(0.633843 0.495621 -2.38957e-19)
(0.588442 0.447533 2.96078e-19)
(0.512141 0.371108 -6.98019e-19)
(0.390799 0.281902 1.24478e-18)
(0.244983 0.173428 2.4354e-21)
(0.109876 0.0755015 -1.15096e-18)
(0.0196906 0.0134941 -1.70542e-19)
(0.42993 0.324199 0)
(0.964245 0.69926 -1.07374e-19)
(1.18818 0.883885 7.78983e-20)
(1.2337 0.92262 0)
(1.20406 0.926028 0)
(1.14361 0.89834 2.59347e-19)
(1.07011 0.864324 0)
(0.994802 0.827545 0)
(0.91337 0.786094 -4.78962e-19)
(0.826867 0.737235 1.32083e-19)
(0.74498 0.679984 -1.20175e-18)
(0.68134 0.620554 0)
(0.637735 0.565999 -6.44656e-19)
(0.595892 0.511201 1.06363e-20)
(0.557439 0.447418 -9.5086e-19)
(0.488404 0.381765 3.75617e-19)
(0.375628 0.280665 1.62307e-21)
(0.232549 0.170796 -1.31066e-18)
(0.103052 0.0724771 6.20784e-19)
(0.0169035 0.0119546 1.82445e-19)
(0.428865 0.338373 0)
(0.956292 0.727444 -1.51049e-19)
(1.17632 0.917558 8.24301e-20)
(1.22048 0.957843 1.02879e-19)
(1.19019 0.96059 -1.38189e-20)
(1.12944 0.931484 2.59227e-20)
(1.05585 0.896354 -3.51267e-20)
(0.980276 0.858686 4.61146e-19)
(0.897773 0.816247 5.12354e-19)
(0.808389 0.76608 1.0063e-18)
(0.722298 0.706535 9.98538e-19)
(0.655012 0.644588 1.75354e-19)
(0.605104 0.584582 9.27505e-19)
(0.575226 0.524217 5.72504e-19)
(0.532374 0.463627 6.8262e-19)
(0.464773 0.373745 -4.11137e-19)
(0.354336 0.275302 -4.78433e-19)
(0.223049 0.161068 5.61054e-19)
(0.101367 0.0734643 -3.3296e-19)
(0.020057 0.0176694 5.90325e-19)
(0.42789 0.352125 2.1426e-19)
(0.948867 0.754286 2.36346e-19)
(1.16472 0.948808 4.83502e-20)
(1.20748 0.990213 1.62292e-20)
(1.17674 0.992803 1.10882e-20)
(1.11584 0.962767 -7.20154e-20)
(1.04223 0.926755 3.38686e-20)
(0.966202 0.888027 -2.03406e-20)
(0.882715 0.844954 -5.95495e-19)
(0.792257 0.794578 -1.0919e-18)
(0.703783 0.73469 6.93213e-20)
(0.631789 0.670385 0)
(0.581052 0.607016 0)
(0.533659 0.539697 -2.98395e-19)
(0.495771 0.45609 -1.11628e-18)
(0.436989 0.37449 8.85601e-19)
(0.345211 0.254876 5.23403e-19)
(0.230059 0.142702 0)
(0.114701 0.0477416 1.06216e-18)
(0.0136428 -0.00774557 -6.30582e-19)
(0.426992 0.365306 -1.1359e-19)
(0.941731 0.779515 1.0057e-19)
(1.15361 0.978428 -1.17e-19)
(1.19505 1.02108 -9.30427e-20)
(1.16376 1.02303 -1.209e-20)
(1.10271 0.991858 -2.30408e-20)
(1.02916 0.955043 0)
(0.952974 0.915775 -5.79047e-19)
(0.868547 0.872013 7.3149e-20)
(0.775742 0.820805 0)
(0.684101 0.759783 0)
(0.607502 0.694033 1.11641e-19)
(0.546693 0.625782 1.49945e-19)
(0.509086 0.550818 -3.2203e-19)
(0.464149 0.471148 8.01381e-19)
(0.403625 0.351478 -9.64999e-19)
(0.316537 0.23241 -1.11954e-18)
(0.236415 0.122856 9.91153e-19)
(0.170105 0.0888156 -3.78209e-19)
(0.113133 0.0799528 2.20128e-19)
(0.426072 0.377704 1.43476e-19)
(0.935079 0.803547 0)
(1.1428 1.00591 0)
(1.18291 1.04934 -2.53246e-20)
(1.15132 1.05113 2.05019e-20)
(1.09025 1.01926 -2.07776e-20)
(1.01678 0.981859 1.49629e-19)
(0.940242 0.941863 5.92706e-19)
(0.855067 0.897817 1.07965e-18)
(0.761304 0.846852 -8.20055e-20)
(0.666494 0.786335 1.69363e-19)
(0.584544 0.719574 -9.97958e-19)
(0.523659 0.650016 -9.93523e-19)
(0.462828 0.570621 -1.72698e-19)
(0.41361 0.459559 0)
(0.36135 0.351544 -7.30591e-21)
(0.291123 0.16495 6.16227e-19)
(0.262966 0.0216982 -1.03763e-18)
(0.225406 -0.0883055 7.88871e-19)
(0.0844249 -0.0968258 6.54156e-19)
(0.425076 0.389657 -3.17332e-19)
(0.928429 0.825878 -1.43428e-19)
(1.13237 1.03199 7.001e-21)
(1.17128 1.07654 5.52477e-20)
(1.13922 1.07778 0)
(1.07804 1.04504 -7.49209e-20)
(1.0047 1.00716 -2.14941e-19)
(0.928137 0.967048 -1.78505e-21)
(0.842272 0.922801 -5.65645e-19)
(0.746288 0.871343 -8.04377e-20)
(0.648903 0.810647 7.47123e-20)
(0.562888 0.745264 8.76611e-19)
(0.486466 0.672312 9.69662e-19)
(0.433297 0.583201 1.68046e-19)
(0.374776 0.485 8.59317e-19)
(0.291787 0.319965 0)
(0.173198 0.15093 0)
(0.00402766 0.205903 7.15051e-19)
(-0.0776442 0.629866 -2.98653e-20)
(0.00686311 1.53614 -8.79787e-19)
(0.424046 0.40093 1.75495e-19)
(0.922337 0.847495 4.01142e-19)
(1.12221 1.05646 -5.48339e-19)
(1.15983 1.1017 2.72881e-19)
(1.12748 1.10302 -6.46122e-21)
(1.0663 1.06997 -2.81777e-20)
(0.99305 1.03198 0)
(0.916181 0.991684 -4.93875e-19)
(0.829647 0.947801 0)
(0.732685 0.897444 1.13319e-18)
(0.631385 0.838243 -9.07551e-20)
(0.539197 0.772701 1.01762e-19)
(0.465261 0.70242 1.10852e-18)
(0.379892 0.619415 -3.64249e-19)
(0.283274 0.480954 -4.37508e-19)
(0.197321 0.375938 0)
(0.0881178 0.504649 0)
(0.0262786 1.3292 0)
(0.0726272 2.46198 -4.06204e-19)
(0.100123 2.91018 -2.49941e-19)
(0.422731 0.411632 0)
(0.916088 0.867249 0)
(1.1124 1.07965 2.00289e-19)
(1.14893 1.12609 -2.21372e-19)
(1.1161 1.12708 9.63065e-20)
(1.05482 1.09357 3.48306e-20)
(0.981709 1.05553 2.76278e-20)
(0.904899 1.01569 -2.15104e-20)
(0.817768 0.972284 7.96235e-20)
(0.718608 0.922099 -1.30047e-18)
(0.61538 0.863848 1.6455e-19)
(0.519886 0.803283 8.74443e-19)
(0.424625 0.734422 -1.1045e-18)
(0.347679 0.63524 -1.21127e-18)
(0.267168 0.542195 4.07867e-19)
(0.190882 0.676487 0)
(0.122604 1.55662 5.65324e-19)
(0.123742 2.69287 6.20687e-19)
(0.131835 3.08782 -6.93969e-19)
(0.12343 3.22214 7.45645e-19)
(0.421408 0.422008 0)
(0.910482 0.88652 3.5643e-19)
(1.10292 1.10138 -5.01887e-20)
(1.13825 1.14847 3.12719e-19)
(1.10518 1.14979 -1.01089e-19)
(1.04395 1.1163 0)
(0.970962 1.07855 0)
(0.893868 1.03895 0)
(0.80615 0.99642 4.48782e-19)
(0.706432 0.948272 6.00404e-20)
(0.599411 0.892904 0)
(0.496991 0.83192 -8.69754e-19)
(0.412706 0.767512 0)
(0.297593 0.685071 8.66978e-19)
(0.205218 0.750936 -5.83834e-19)
(0.154986 1.46212 -4.69876e-19)
(0.157226 2.68079 -1.10029e-18)
(0.178988 3.1268 -5.80246e-19)
(0.169814 3.26741 -7.88492e-19)
(0.155864 3.30767 5.96335e-19)
(0.419902 0.431459 -1.24744e-19)
(0.9046 0.903783 1.54307e-20)
(1.09378 1.1219 -5.5986e-20)
(1.12819 1.17028 -2.41354e-19)
(1.09464 1.17148 0)
(1.03332 1.13784 0)
(0.960479 1.10036 0)
(0.883501 1.06161 3.44164e-20)
(0.79538 1.02011 -5.67264e-19)
(0.693716 0.972841 0)
(0.585425 0.919054 0)
(0.483631 0.866137 0)
(0.36942 0.803422 0)
(0.305683 0.777008 6.32905e-19)
(0.271194 1.16525 1.55635e-18)
(0.248955 2.38399 4.61083e-19)
(0.262488 3.08321 9.29688e-19)
(0.257051 3.2832 -7.12454e-19)
(0.208225 3.34893 2.63486e-19)
(0.175709 3.36163 0)
(0.418433 0.440645 1.28544e-19)
(0.899269 0.921368 -7.92988e-19)
(1.08476 1.14175 -2.12716e-19)
(1.1181 1.19075 -4.66318e-20)
(1.08436 1.19249 2.35228e-20)
(1.02316 1.15912 -7.84601e-20)
(0.950462 1.12219 -3.2233e-21)
(0.873266 1.08396 -3.84585e-19)
(0.784769 1.04372 0)
(0.683188 0.999227 -7.59484e-20)
(0.571982 0.949524 6.90896e-20)
(0.462552 0.895592 0)
(0.375095 0.846423 0)
(0.319822 0.964377 -7.92013e-19)
(0.273639 1.85534 9.7443e-20)
(0.269825 2.94335 -3.45848e-19)
(0.292274 3.28739 7.22131e-19)
(0.264685 3.38588 5.23577e-19)
(0.199078 3.41032 -7.10988e-19)
(0.174299 3.41985 3.52668e-19)
(0.416444 0.450034 2.53241e-19)
(0.892886 0.93812 7.73939e-19)
(1.07523 1.16203 2.55258e-19)
(1.10783 1.21244 0)
(1.07366 1.21405 0)
(1.01244 1.18055 6.13005e-20)
(0.940001 1.14395 7.03133e-20)
(0.863158 1.10673 3.42968e-19)
(0.774652 1.06778 2.22544e-20)
(0.671441 1.02454 9.72033e-19)
(0.560082 0.976648 -1.14676e-18)
(0.450111 0.928663 0)
(0.370931 0.924516 0)
(0.334594 1.3313 -5.39363e-19)
(0.335186 2.48817 -6.48575e-19)
(0.378425 3.19805 0)
(0.402901 3.36946 -7.28737e-19)
(0.33298 3.4322 4.99094e-20)
(0.26351 3.47693 3.4048e-19)
(0.24098 3.50223 -1.11815e-19)
(0.414283 0.459801 -4.82302e-19)
(0.886622 0.95726 -3.71866e-19)
(1.06491 1.18343 0)
(1.09647 1.23418 0)
(1.06229 1.23636 0)
(1.0014 1.20303 0)
(0.929337 1.16689 -8.26624e-20)
(0.85253 1.13007 3.016e-19)
(0.763967 1.09233 0)
(0.66182 1.05211 -8.85126e-19)
(0.549602 1.00906 2.05686e-18)
(0.440031 0.969902 8.38927e-20)
(0.388576 1.04597 1.11409e-19)
(0.386903 1.74989 8.79078e-19)
(0.401071 2.90088 -4.72408e-19)
(0.438963 3.32014 0)
(0.422142 3.44336 2.03744e-19)
(0.336634 3.53162 9.18944e-20)
(0.260982 3.59543 1.5091e-19)
(0.185659 3.57488 -1.38976e-20)
(0.411327 0.470032 2.29705e-19)
(0.878541 0.975433 -3.80824e-19)
(1.05358 1.20571 0)
(1.08457 1.2579 -6.82082e-20)
(1.05003 1.25964 2.33606e-19)
(0.989273 1.22592 0)
(0.917752 1.1899 0)
(0.841705 1.15401 -5.23599e-19)
(0.75374 1.11747 -5.68092e-20)
(0.650716 1.07852 8.67926e-19)
(0.536074 1.03682 -9.7733e-19)
(0.446803 1.0169 5.6996e-19)
(0.407238 1.23222 0)
(0.423489 2.18659 -4.66068e-19)
(0.465698 3.14564 3.05819e-19)
(0.529176 3.4236 1.90947e-19)
(0.52134 3.51991 0)
(0.458456 3.60143 -3.88025e-20)