/*--------------------------------*- C++ -*----------------------------------*\
| =========                 |                                                 |
| \\      /  F ield         | OpenFOAM: The Open Source CFD Toolbox           |
|  \\    /   O peration     | Version:  4.0                                   |
|   \\  /    A nd           | Web:      www.OpenFOAM.org                      |
|    \\/     M anipulation  |                                                 |
\*---------------------------------------------------------------------------*/
FoamFile
{
    version     2.0;
    format      ascii;
    class       surfaceScalarField;
    location    "70";
    object      phi;
}
// * * * * * * * * * * * * * * * * * * * * * * * * * * * * * * * * * * * * * //

dimensions      [0 3 -1 0 0 0 0];

internalField   nonuniform List<scalar> 
4262
(
0.107134
0.470854
0.0955702
0.70515
0.0693834
0.85849
0.0473647
1.02078
0.0309785
1.2149
0.0197642
1.44943
0.0123403
1.73329
0.00712357
2.07625
0.00318999
2.48918
-0.000600378
2.98608
-0.00433537
2.98603
-0.00808464
2.48899
-0.0130543
2.07601
-0.0201976
1.73301
-0.0311161
1.44914
-0.0471681
1.21457
-0.0689163
1.02051
-0.0951875
0.858574
-0.107062
0.70546
0.470926
0.112858
0.357996
0.135251
0.682757
0.12035
0.87339
0.0978094
1.04332
0.0745601
1.23815
0.0528192
1.47117
0.034433
1.75167
0.0202431
2.09044
0.00898981
2.50043
-0.000919355
2.99599
-0.0110218
2.99613
-0.0223402
2.50031
-0.0364748
2.09014
-0.0547737
1.75131
-0.0766275
1.47099
-0.100373
1.23831
-0.12354
1.04368
-0.137041
0.872076
-0.113577
0.681996
0.357349
0.092033
0.265963
0.124947
0.649843
0.121059
0.877278
0.104746
1.05964
0.0860794
1.25682
0.0669358
1.49032
0.0479248
1.77068
0.0297786
2.10859
0.0130793
2.51713
-0.00292048
3.01199
-0.0186022
3.01181
-0.0344645
2.51617
-0.0519192
2.1076
-0.0703273
1.76971
-0.0886259
1.48929
-0.105787
1.25547
-0.119865
1.05776
-0.125263
0.877474
-0.092374
0.649107
0.264975
0.0639592
0.202004
0.104752
0.60905
0.106512
0.875519
0.0951298
1.07102
0.081195
1.27075
0.0664426
1.50507
0.0503323
1.78679
0.0332226
2.1257
0.0156131
2.53474
-0.00310711
3.03071
-0.0216543
3.03036
-0.0390742
2.53359
-0.0555855
2.12411
-0.0707826
1.78491
-0.0845587
1.50307
-0.0982582
1.26917
-0.110033
1.06953
-0.107033
0.874474
-0.0649007
0.606974
0.200075
0.0374634
0.16454
0.0806653
0.565848
0.0908888
0.865295
0.0836345
1.07827
0.0709696
1.28342
0.0590705
1.51697
0.0459833
1.79988
0.0308875
2.14079
0.0137429
2.55188
-0.00545472
3.04991
-0.0240289
3.04893
-0.0397954
2.54936
-0.0535979
2.13791
-0.0657263
1.79704
-0.0770055
1.51435
-0.0889381
1.28111
-0.0952512
1.07584
-0.0833673
0.86259
-0.0384543
0.562061
0.16162
0.0194322
0.145108
0.0571048
0.528176
0.0724537
0.849947
0.0703221
1.0804
0.0615006
1.29224
0.0506093
1.52786
0.0394539
1.81104
0.0268999
2.15335
0.0119571
2.56683
-0.0057395
3.06761
-0.0232501
3.06644
-0.0377567
2.56387
-0.0493184
2.14947
-0.0591593
1.80688
-0.0689392
1.52413
-0.0765502
1.28872
-0.0773334
1.07663
-0.060144
0.845401
-0.0204302
0.522348
0.14119
0.0105917
0.134517
0.0422474
0.49652
0.0582978
0.833896
0.0585208
1.08018
0.0522965
1.29846
0.0428358
1.53732
0.0323331
1.82154
0.0207749
2.16491
0.00725264
2.58035
-0.00874712
3.08361
-0.0239031
3.0816
-0.0355307
2.57549
-0.0452412
2.15918
-0.0541579
1.8158
-0.0620642
1.53203
-0.0665721
1.29323
-0.0645431
1.0746
-0.0460549
0.826912
-0.0117476
0.48804
0.129443
0.00653297
0.127984
0.0328175
0.470235
0.0489859
0.817728
0.0504284
1.07874
0.0453253
1.30357
0.0369655
1.54568
0.0273393
1.83117
0.0165222
2.17572
0.00453484
2.59234
-0.00941158
3.09755
-0.0231564
3.09534
-0.0342356
2.58657
-0.0434063
2.16835
-0.0509638
1.82335
-0.0573679
1.53844
-0.0604813
1.29634
-0.0567528
1.07087
-0.0374693
0.807629
-0.00794402
0.458515
0.121498
0.00466846
0.123315
0.0264118
0.448492
0.0421243
0.802015
0.0441316
1.07673
0.0393456
1.30835
0.0315152
1.55351
0.0221973
1.84048
0.0114341
2.18649
-0.000406541
2.60418
-0.0135035
3.11065
-0.0251955
3.10704
-0.0345528
2.59593
-0.04269
2.17649
-0.0495948
1.83026
-0.0550037
1.54384
-0.0571753
1.29851
-0.0520266
1.06572
-0.0322134
0.787816
-0.00642843
0.43273
0.11507
0.00369349
0.119622
0.0214997
0.430686
0.0365021
0.787013
0.0391716
1.07406
0.0347838
1.31274
0.0274126
1.56088
0.0186206
1.84928
0.00859584
2.19651
-0.00270831
2.61548
-0.0150527
3.12299
-0.0267679
3.11875
-0.0363592
2.60552
-0.0437451
2.18388
-0.049553
1.83607
-0.054126
1.54842
-0.0552576
1.29964
-0.0487582
1.05922
-0.0285841
0.767642
-0.00584806
0.409994
0.109222
0.00298633
0.116635
0.0173345
0.416338
0.0311024
0.773245
0.0339111
1.07125
0.0295903
1.31706
0.0222355
1.56824
0.0133927
1.85812
0.00308257
2.20682
-0.00842829
2.62699
-0.0204746
3.13504
-0.0309752
3.12925
-0.0388521
2.6134
-0.0453577
2.19038
-0.0506734
1.84138
-0.0543901
1.55213
-0.0543546
1.29961
-0.0463452
1.05121
-0.0259616
0.747258
-0.00562118
0.389654
0.103601
0.00230095
0.114334
0.0135903
0.405048
0.0259729
0.760862
0.0289212
1.0683
0.0248413
1.32114
0.0177311
1.57535
0.00925207
1.8666
-0.000304467
2.21638
-0.0110808
2.63777
-0.0234214
3.14738
-0.0345156
3.14035
-0.0426964
2.62158
-0.0483432
2.19603
-0.0523637
1.8454
-0.0549117
1.55468
-0.0541625
1.29886
-0.0446981
1.04175
-0.0241193
0.726679
-0.0055022
0.371037
0.0980986
0.00163573
0.112699
0.0103058
0.396378
0.020941
0.750227
0.0234267
1.06582
0.0191644
1.3254
0.0119157
1.5826
0.00304722
1.87547
-0.00735772
2.22678
-0.0190356
2.64945
-0.0307244
3.15907
-0.040152
3.14977
-0.0466695
2.6281
-0.0514556
2.20081
-0.0550363
1.84898
-0.0566363
1.55628
-0.0548507
1.29707
-0.0439892
1.03089
-0.0230158
0.705706
-0.00547227
0.353493
0.0926264
0.000726878
0.111972
0.00675788
0.390347
0.015567
0.741418
0.0174632
1.06392
0.0128634
1.33
0.00531754
1.59014
-0.00357152
1.88436
-0.013246
2.23646
-0.0236048
2.6598
-0.0352749
3.17074
-0.0455414
3.16004
-0.0520711
2.63463
-0.0557585
2.2045
-0.0582842
1.85151
-0.058925
1.55692
-0.0560756
1.29422
-0.0438022
1.01861
-0.0223624
0.684266
-0.00545122
0.336582
0.0871751
8.45032e-05
0.111887
0.00394852
0.386483
0.0105627
0.734804
0.0115186
1.06297
0.00648473
1.33504
-0.00143017
1.59806
-0.0109739
1.8939
-0.021917
2.2474
-0.0341263
2.67201
-0.0459887
3.1826
-0.0541197
3.16817
-0.0587965
2.6393
-0.0617993
2.2075
-0.0636545
1.85336
-0.0632858
1.55655
-0.0587923
1.28973
-0.044669
1.00449
-0.0223538
0.661951
-0.00556002
0.319788
0.0816151
-0.000887212
0.112774
0.000312165
0.385284
0.00472135
0.730395
0.00447094
1.06322
-0.00143093
1.34094
-0.0103792
1.60701
-0.0207512
1.90427
-0.0316785
2.25833
-0.0424984
2.68283
-0.0531572
3.19326
-0.0616897
3.1767
-0.0664014
2.64402
-0.0683355
2.20944
-0.0693758
1.85441
-0.0681925
1.55537
-0.0620627
1.2836
-0.0460769
0.988505
-0.0227169
0.638591
-0.00570875
0.30278
0.0759064
-0.00185525
0.11463
-0.00303184
0.38646
-0.00162506
0.728988
-0.00340867
1.065
-0.0100875
1.34762
-0.0195178
1.61644
-0.0304391
1.91519
-0.0425488
2.27044
-0.0555443
2.69583
-0.0677255
3.20544
-0.0749415
3.18392
-0.0779867
2.64706
-0.0792145
2.21067
-0.0786045
1.8538
-0.0755604
1.55233
-0.0673529
1.27539
-0.0488523
0.970004
-0.0238031
0.613542
-0.00603961
0.285016
0.0698668
-0.00315775
0.117787
-0.00670484
0.390008
-0.0087074
0.73099
-0.0123969
1.06869
-0.0203012
1.35552
-0.0311977
1.62733
-0.0436408
1.92764
-0.056835
2.28363
-0.0695383
2.70853
-0.0797175
3.21562
-0.0860321
3.19023
-0.0888478
2.64988
-0.0889009
2.21072
-0.0877645
1.85266
-0.0839036
1.54847
-0.0734061
1.26489
-0.0521999
0.948798
-0.0252258
0.586567
-0.0064125
0.266203
0.0634543
-0.00454792
0.122335
-0.0110924
0.396552
-0.0165168
0.736415
-0.0231975
1.07537
-0.0324925
1.36482
-0.0445324
1.63937
-0.057936
1.94104
-0.0721945
2.29789
-0.0863219
2.72266
-0.0990764
3.22838
-0.105832
3.19699
-0.106775
2.65082
-0.105273
2.20922
-0.101618
1.849
-0.0951807
1.54203
-0.0819263
1.25164
-0.0571723
0.924044
-0.0273317
0.556727
-0.00692061
0.245792
0.0565336
-0.0059151
0.12825
-0.0158918
0.406529
-0.0252696
0.745793
-0.0348155
1.08492
-0.0464677
1.37647
-0.0608334
1.65374
-0.0765053
1.95671
-0.0927622
2.31415
-0.108093
2.73799
-0.119153
3.23944
-0.122853
3.20069
-0.122942
2.65091
-0.120235
2.20651
-0.115964
1.84473
-0.108353
1.53442
-0.0915874
1.23487
-0.0626564
0.895113
-0.0296477
0.523718
-0.00742629
0.223571
0.0491074
-0.00827319
0.136524
-0.0230362
0.421292
-0.0380904
0.760847
-0.0509889
1.09782
-0.0643667
1.38985
-0.0806584
1.67003
-0.0982011
1.97425
-0.115868
2.33181
-0.131593
2.75372
-0.14316
3.251
-0.148103
3.20563
-0.146689
2.64949
-0.142299
2.20212
-0.135496
1.83793
-0.124315
1.52324
-0.103571
1.21413
-0.0696574
0.861199
-0.0323539
0.486415
-0.00793739
0.199154
0.04117
-0.010742
0.147266
-0.0301007
0.44065
-0.0509354
0.781681
-0.0690789
1.11596
-0.0863712
1.40714
-0.105725
1.68938
-0.126067
1.9946
-0.146043
2.35179
-0.1634
2.77107
-0.174877
3.26248
-0.176408
3.20716
-0.171872
2.64496
-0.165102
2.19535
-0.156435
1.82926
-0.143046
1.50985
-0.11702
1.18811
-0.0767848
0.820964
-0.0348572
0.444487
-0.00831204
0.172609
0.0328579
-0.015438
0.162704
-0.042394
0.467606
-0.0701272
0.809415
-0.0929935
1.13883
-0.113767
1.42791
-0.136951
1.71257
-0.160167
2.01781
-0.181638
2.37326
-0.198397
2.78783
-0.207309
3.27139
-0.206953
3.20681
-0.201883
2.63989
-0.193995
2.18746
-0.182992
1.81826
-0.164546
1.4914
-0.132465
1.15603
-0.0850483
0.773547
-0.0373009
0.39674
-0.00856722
0.143875
0.0242907
-0.0196706
0.182374
-0.0556838
0.50362
-0.093378
0.847109
-0.124168
1.16962
-0.151032
1.45478
-0.178557
1.74009
-0.204461
2.04372
-0.226767
2.39557
-0.242881
2.80395
-0.249961
3.27847
-0.246751
3.2036
-0.236945
2.63008
-0.224568
2.17508
-0.210212
1.8039
-0.188158
1.46935
-0.148193
1.11606
-0.0916329
0.716987
-0.0384239
0.343531
-0.00830052
0.113752
0.0159902
-0.0330152
0.215389
-0.0825541
0.553159
-0.130816
0.89537
-0.168358
1.20716
-0.20061
1.48703
-0.232211
1.77169
-0.258929
2.07044
-0.280118
2.41676
-0.293131
2.81696
-0.295096
3.28044
-0.286234
3.19474
-0.274067
2.61791
-0.261376
2.16239
-0.244044
1.78657
-0.214232
1.43954
-0.164806
1.06663
-0.0986912
0.650872
-0.0393151
0.284155
-0.00795974
0.0823965
0.00803044
-0.0473378
0.262727
-0.1215
0.627321
-0.185631
0.959501
-0.231498
1.25303
-0.269947
1.52548
-0.302677
1.80442
-0.327532
2.09529
-0.345067
2.43429
-0.353189
2.82508
-0.349163
3.27641
-0.335547
3.18112
-0.318552
2.60092
-0.29939
2.14323
-0.276401
1.76358
-0.23991
1.40305
-0.178511
1.00523
-0.100041
0.572402
-0.037326
0.221439
-0.00757735
0.0526479
0.000453087
-0.0344534
0.297181
-0.098819
0.691687
-0.157795
1.01848
-0.206441
1.30167
-0.251073
1.57011
-0.291046
1.8444
-0.328786
2.13303
-0.363435
2.46894
-0.391302
2.85295
-0.409592
3.2947
-0.41325
3.18478
-0.405929
2.5936
-0.39367
2.13097
-0.36801
1.73792
-0.312279
1.34731
-0.220177
0.913132
-0.113766
0.465991
-0.0412062
0.14888
-0.00886049
0.0203022
-0.0084074
-0.0125451
0.309726
-0.0478208
0.726963
-0.0905173
1.06117
-0.130837
1.34199
-0.170896
1.61017
-0.207274
1.88078
-0.241599
2.16736
-0.271916
2.49926
-0.295055
2.87609
-0.305679
3.30532
-0.300268
3.17937
-0.288919
2.58225
-0.270027
2.11208
-0.238767
1.70666
-0.19053
1.29908
-0.122597
0.845199
-0.0560289
0.399423
-0.021079
0.11393
-0.00485732
0.0040805
-0.0132647
-0.000278594
0.310004
-0.0241905
0.750874
-0.0541075
1.09109
-0.085531
1.37341
-0.118578
1.64322
-0.150378
1.91257
-0.179944
2.19692
-0.20532
2.52463
-0.222843
2.89361
-0.22823
3.31071
-0.221616
3.17275
-0.204975
2.56561
-0.182573
2.08968
-0.154915
1.679
-0.112436
1.2566
-0.0606037
0.793366
-0.0238566
0.362676
-0.0102689
0.100342
-0.00301999
-0.00316835
-0.0162847
0.00108247
0.308922
-0.0137989
0.765756
-0.0350474
1.11234
-0.0592569
1.39762
-0.0853605
1.66932
-0.1123
1.93951
-0.137895
2.22252
-0.159359
2.5461
-0.173312
2.90756
-0.175171
3.31257
-0.163224
3.16081
-0.143885
2.54627
-0.119562
2.06536
-0.0864299
1.64587
-0.0513628
1.22153
-0.020899
0.762902
-0.00557285
0.34735
-0.00313939
0.0979086
-0.00166754
-0.00464021
-0.0179522
0.00511535
0.303807
-0.00277915
0.77365
-0.0213884
1.13095
-0.0433478
1.41958
-0.066163
1.69213
-0.0885903
1.96194
-0.109695
2.24362
-0.127282
2.56368
-0.137843
2.91812
-0.136403
3.31113
-0.122073
3.14647
-0.0997608
2.52396
-0.0720963
2.03769
-0.0457582
1.61953
-0.0165083
1.19228
0.00626089
0.740133
0.00927285
0.344338
0.0042096
0.102972
0.000576756
-0.00100736
-0.0173755
0.00513273
0.298674
-0.000875425
0.779658
-0.0163452
1.14642
-0.0341246
1.43736
-0.0531056
1.71112
-0.072629
1.98146
-0.0914292
2.26242
-0.106991
2.57924
-0.115531
2.92666
-0.112391
3.30799
-0.0963652
3.13045
-0.0735506
2.50114
-0.0484472
2.01259
-0.0184795
1.58957
0.00587923
1.16792
0.0176875
0.728325
0.0164178
0.345608
0.00819322
0.111196
0.00197208
0.00521377
-0.0154034
0.00518645
0.293487
0.00170924
0.783136
-0.0112748
1.1594
-0.0282298
1.45432
-0.0460604
1.72895
-0.0636446
1.99905
-0.0801195
2.2789
-0.0934946
2.59262
-0.100441
2.93361
-0.0967844
3.30433
-0.0804188
3.11408
-0.0560569
2.47678
-0.029427
1.98596
-0.00772424
1.56786
0.0119243
1.14828
0.0232627
0.716986
0.0189617
0.349909
0.0097727
0.120385
0.00254606
0.0124404
-0.0128574
0.00275601
0.290731
-0.000395865
0.786288
-0.0116254
1.17063
-0.0259255
1.46862
-0.0416013
1.74462
-0.0576631
2.01511
-0.0730765
2.29431
-0.0857925
2.60534
-0.092548
2.94037
-0.0887575
3.30054
-0.0722119
3.09754
-0.0505599
2.45513
-0.0278969
1.96329
-0.00170663
1.54167
0.0166707
1.1299
0.0229863
0.710671
0.0191553
0.35374
0.0101253
0.129416
0.00279496
0.0197707
-0.0100624
0.00197382
0.288758
-0.000284393
0.788546
-0.010775
1.18112
-0.0243861
1.48223
-0.0396106
1.75985
-0.0548223
2.03032
-0.0692971
2.30879
-0.0814256
2.61746
-0.0883883
2.94733
-0.0856211
3.29778
-0.0699757
3.08189
-0.0477732
2.43293
-0.0235186
1.93904
-0.00493429
1.52309
0.0117435
1.11322
0.0209571
0.701457
0.0170565
0.35764
0.00931229
0.13716
0.00268222
0.0264008
-0.00738017
-0.000489281
0.289247
-0.0042659
0.792322
-0.0132578
1.19011
-0.0250786
1.49405
-0.0388336
1.7736
-0.0531963
2.04468
-0.0674415
2.32303
-0.0800154
2.63004
-0.0877171
2.95503
-0.0855356
3.2956
-0.0705713
3.06693
-0.0517355
2.41409
-0.0323356
1.91964
-0.00855753
1.49931
0.00842788
1.09623
0.0146487
0.695236
0.013402
0.358887
0.00749772
0.143064
0.002276
0.0316225
-0.00510417
-0.000773625
0.29002
-0.0047615
0.79631
-0.0136763
1.19903
-0.0252806
1.50565
-0.0387915
1.78711
-0.0528426
2.05874
-0.0669359
2.33712
-0.079508
2.64261
-0.0877623
2.96328
-0.0876708
3.2955
-0.0754335
3.05469
-0.0556842
2.39434
-0.0332788
1.89723
-0.0163195
1.48235
-0.00053054
1.08045
0.00948292
0.685223
0.00914388
0.359226
0.00558002
0.146628
0.00181472
0.0353878
-0.00328945
-0.0023881
0.292409
-0.00777619
0.801698
-0.0161765
1.20743
-0.0268064
1.51628
-0.0393696
1.79968
-0.0528971
2.07226
-0.0668665
2.35109
-0.0800064
2.65575
-0.0897803
2.97306
-0.0914621
3.29719
-0.0800982
3.04333
-0.0630674
2.37731
-0.0449299
1.8791
-0.0224352
1.45986
-0.00580488
1.06382
0.0019726
0.677445
0.00510776
0.356091
0.00353789
0.148198
0.00131582
0.0376099
-0.00197363
-0.00343063
0.295839
-0.00813738
0.806405
-0.0165383
1.21583
-0.0272413
1.52699
-0.0396891
1.81212
-0.0529891
2.08556
-0.0670246
2.36513
-0.0806343
2.66936
-0.0915251
2.98395
-0.0954955
3.30116
-0.0875964
3.03543
-0.0706228
2.36034
-0.0475265
1.856
-0.0301667
1.4425
-0.0140696
1.04772
-0.00188901
0.665265
0.0015157
0.352686
0.00200724
0.147706
0.000884399
0.0387327
-0.00108923
-0.00406976
0.299909
-0.0101341
0.812469
-0.0184199
1.22412
-0.0284497
1.53702
-0.0402439
1.82392
-0.0531959
2.09852
-0.0672153
2.37915
-0.0814414
2.68359
-0.0938937
2.9964
-0.100144
3.30741
-0.09416
3.02944
-0.078549
2.34473
-0.0596913
1.83714
-0.0352766
1.41808
-0.0166458
1.02909
-0.00633544
0.654954
-0.000797167
0.347148
0.000680557
0.146229
0.00061444
0.0387988
-0.000474796
-0.00404448
0.303953
-0.00996684
0.818392
-0.0183158
1.23246
-0.028419
1.54712
-0.0401526
1.83565
-0.0529535
2.11132
-0.0671342
2.39333
-0.0819113
2.69836
-0.0955742
3.01006
-0.104511
3.31634
-0.102537
3.02747
-0.0876657
2.32986
-0.062902
1.81238
-0.0411439
1.39632
-0.0209573
1.0089
-0.00641423
0.640411
-0.00123269
0.341967
0.000109119
0.144887
-0.000393809
0.0393017
-0.000868605
-0.00422904
0.308182
-0.0111148
0.825278
-0.0193856
1.24074
-0.0289538
1.55669
-0.0402029
1.8469
-0.0527861
2.1239
-0.0669554
2.4075
-0.0821922
2.7136
-0.0972425
3.02512
-0.108397
3.3275
-0.108154
3.02723
-0.095211
2.31691
-0.0752788
1.79245
-0.0449937
1.36604
-0.0191543
0.983061
-0.00428426
0.625541
0.00399019
0.333692
0.00499827
0.143879
0.00260479
0.0416952
0.00173618
-0.00413795
0.31232
-0.0106302
0.83177
-0.0187773
1.24888
-0.0283832
1.56629
-0.0395615
1.85808
-0.0519844
2.13632
-0.0662409
2.42175
-0.0819418
2.7293
-0.0980854
3.04126
-0.111751
3.34116
-0.116131
3.03161
-0.105263
2.30604
-0.0792822
1.76647
-0.0501372
1.33689
-0.0187722
0.951696
0.0048392
0.60193
0.013312
0.325219
0.00748711
0.149704
-0.00173511
0.0509174
1.07363e-06
-0.00428313
0.316604
-0.0112658
0.838752
-0.0192249
1.25684
-0.0283283
1.5754
-0.0390486
1.8688
-0.0512554
2.14853
-0.0654301
2.43593
-0.0814193
2.74529
-0.0986258
3.05847
-0.114205
3.35674
-0.120632
3.03803
-0.112361
2.29777
-0.0926532
1.74676
-0.0550675
1.29931
-0.0132245
0.909853
0.0199729
0.568733
0.0433833
0.301809
0.0486433
0.144444
0.02953
0.0700308
0.029531
-0.00413881
0.320742
-0.0105982
0.845212
-0.0183083
1.26455
-0.0273527
1.58444
-0.0379151
1.87936
-0.0498859
2.1605
-0.0640223
2.45007
-0.0803302
2.7616
-0.0983701
3.07651
-0.116136
3.37451
-0.126882
3.04878
-0.122701
2.29359
-0.0985187
1.72258
-0.0627018
1.26349
-0.0133124
0.860464
0.0337224
0.521698
0.0676758
0.267855
0.0556927
0.156427
0.0241257
0.101598
0.0536567
-0.00410728
0.32485
-0.0108675
0.851972
-0.0183469
1.27203
-0.0268542
1.59295
-0.0369599
1.88947
-0.0486772
2.17222
-0.0626668
2.46406
-0.0790905
2.77802
-0.0978262
3.09524
-0.117105
3.39379
-0.129102
3.06078
-0.128809
2.2933
-0.114
1.70777
-0.0735613
1.22305
-0.0171757
0.804078
0.0533479
0.451174
0.148048
0.173155
0.209222
0.0952535
0.187067
0.123752
0.240724
-0.00394929
0.328799
-0.010269
0.858292
-0.0176704
1.27943
-0.0263854
1.60166
-0.0368131
1.89989
-0.0489683
2.18437
-0.0638742
2.47896
-0.0819327
2.79608
-0.103303
3.11661
-0.127147
3.41763
-0.145944
3.07957
-0.152093
2.29945
-0.134531
1.6902
-0.0971849
1.18571
-0.0303758
0.737269
0.0293182
0.39148
-0.0407281
0.243201
-0.352015
0.40654
-0.945963
0.7177
0.902595
-1.60783
-0.00385607
0.332655
-0.0104306
0.864866
-0.0177076
1.28671
-0.0260938
1.61005
-0.0363027
1.9101
-0.0485995
2.19667
-0.0639559
2.49432
-0.0829483
2.81507
-0.106186
3.13985
-0.133305
3.44475
-0.1561
3.10237
-0.166926
2.31027
-0.167826
1.6911
-0.136218
1.1541
-0.0979057
0.698957
-0.202075
0.495649
-0.693969
0.735096
-1.45624
1.16882
-2.06038
1.32184
1.21541
-2.3732
-0.00362341
0.336278
-0.00963177
0.870875
-0.0166495
1.29373
-0.0250468
1.61845
-0.0352923
1.92035
-0.0476797
2.20906
-0.0634515
2.51009
-0.0834297
2.83505
-0.108615
3.16503
-0.13991
3.47605
-0.170409
3.13287
-0.190704
2.33057
-0.191283
1.69168
-0.168385
1.1312
-0.254223
0.784795
-0.752779
0.994205
-1.56185
1.54417
-2.11808
1.72504
-2.35508
1.55884
1.32879
-2.46846
-0.00352563
0.339804
-0.00956872
0.876918
-0.0163911
1.30055
-0.0244196
1.62648
-0.0343884
1.93032
-0.0468546
2.22152
-0.0629889
2.52622
-0.0837905
2.85585
-0.110781
3.19202
-0.145509
3.51077
-0.181055
3.16841
-0.208236
2.35775
-0.228454
1.7119
-0.299541
1.20229
-0.672244
1.1575
-1.44816
1.77013
-2.03272
2.12872
-2.2709
1.96322
-2.38318
1.67112
1.39199
-2.44637
-0.00321231
0.343016
-0.00861201
0.882318
-0.0150719
1.30701
-0.0230261
1.63443
-0.0330253
1.94032
-0.045509
2.23401
-0.0619099
2.54262
-0.0835323
2.87747
-0.112358
3.22085
-0.151381
3.5498
-0.195817
3.21285
-0.236103
2.39804
-0.270426
1.74622
-0.452985
1.38485
-1.09792
1.80243
-1.79537
2.46757
-2.11097
2.44433
-2.25781
2.11007
-2.33951
1.75282
1.45815
-2.40568
-0.00322094
0.346237
-0.00886706
0.887964
-0.0153795
1.31352
-0.0232168
1.64227
-0.0333048
1.9504
-0.0461278
2.24683
-0.0631095
2.55961
-0.0857043
2.90007
-0.116381
3.25153
-0.158841
3.59225
-0.208888
3.2629
-0.251888
2.44104
-0.336468
1.8308
-0.736502
1.78488
-1.4944
2.56033
-1.9632
2.93637
-2.16273
2.64386
-2.26852
2.21585
-2.34577
1.83007
1.52124
-2.40886
-0.00327775
0.349515
-0.00879902
0.893485
-0.0155808
1.3203
-0.0240428
1.65073
-0.0348174
1.96118
-0.0482895
2.2603
-0.0661226
2.57744
-0.0900442
2.92399
-0.122901
3.28438
-0.169916
3.63927
-0.226574
3.31956
-0.286265
2.50073
-0.471766
2.0163
-1.04524
2.35836
-1.68088
3.19597
-1.95233
3.20781
-2.09853
2.79007
-2.21236
2.32969
-2.30607
1.92378
1.58276
-2.3676
-0.00341966
0.352935
-0.00973104
0.899796
-0.0170373
1.32761
-0.0257394
1.65943
-0.0368178
1.97226
-0.0509598
2.27444
-0.0697586
2.59624
-0.0950096
2.94924
-0.129918
3.31929
-0.180464
3.68982
-0.241761
3.38085
-0.32488
2.58385
-0.608188
2.29961
-1.26365
3.01382
-1.75007
3.68239
-1.95714
3.41487
-2.09623
2.92916
-2.22018
2.45363
-2.33029
2.03389
1.64144
-2.38897
-0.00335399
0.356289
-0.00938597
0.905828
-0.0170142
1.33524
-0.0265479
1.66897
-0.0384861
1.9842
-0.0533576
2.28932
-0.0730546
2.61594
-0.0996802
2.97587
-0.136756
3.35637
-0.191245
3.7443
-0.258925
3.44853
-0.382312
2.70723
-0.7708
2.6881
-1.40973
3.65275
-1.75939
4.03205
-1.93177
3.58726
-2.03332
3.03071
-2.122
2.54231
-2.18858
2.10047
1.63404
-2.18117
-0.00338128
0.35967
-0.0104122
0.912859
-0.0186995
1.34353
-0.0284298
1.6787
-0.0406387
1.9964
-0.0562125
2.30489
-0.0769438
2.63667
-0.104941
3.00387
-0.143991
3.39542
-0.200499
3.80081
-0.277417
3.52545
-0.446609
2.87643
-0.902664
3.14416
-1.45964
4.20973
-1.72001
4.29242
-1.8712
3.73845
-1.96485
3.12436
-1.96548
2.54295
-1.89546
2.03045
1.59615
-1.85758
-0.00315907
0.362829
-0.00958905
0.919289
-0.0180867
1.35202
-0.0287421
1.68935
-0.0418623
2.00953
-0.0579931
2.32102
-0.0791474
2.65782
-0.107647
3.03236
-0.147371
3.43514
-0.204211
3.85765
-0.289641
3.61088
-0.493402
3.08019
-0.986092
3.63685
-1.42615
4.64979
-1.59042
4.45668
-1.65698
3.80501
-1.66135
3.12873
-1.51378
2.39538
-1.01461
1.53128
0.581538
-0.00277391
0.365603
-0.0105296
0.927045
-0.0198562
1.36135
-0.0307177
1.70021
-0.0443058
2.02311
-0.0616616
2.33838
-0.084779
2.68094
-0.11604
3.06363
-0.15971
3.47881
-0.22257
3.92051
-0.32474
3.71305
-0.57878
3.33423
-1.12078
4.17885
-1.4778
5.00681
-1.57659
4.55546
-1.57477
3.80319
-1.47132
3.02528
-1.23264
2.1567
-0.629946
0.928584
-0.0484076
-0.00248432
0.368087
-0.00885579
0.933416
-0.0181889
1.37068
-0.0303956
1.71242
-0.045611
2.03833
-0.0644573
2.35722
-0.089393
2.70587
-0.123338
3.09757
-0.171498
3.52697
-0.241551
3.99057
-0.364474
3.83597
-0.678753
3.64851
-1.23915
4.73924
-1.49778
5.26544
-1.55666
4.61435
-1.5344
3.78093
-1.33275
2.82363
-0.780656
1.60461
-0.108375
0.256302
-0.156782
-0.00150623
0.369593
-0.00943953
0.94135
-0.0196824
1.38093
-0.0318635
1.7246
-0.0472004
2.05367
-0.0671039
2.37713
-0.0940431
2.73281
-0.130939
3.13447
-0.182773
3.57881
-0.259819
4.06761
-0.407952
3.98411
-0.780298
4.02085
-1.3158
5.27475
-1.49201
5.44166
-1.52274
4.64508
-1.43489
3.69308
-1.09904
2.48778
-0.312405
0.817971
0.0247614
-0.0808638
-0.132021
-0.000981241
0.370575
-0.00628818
0.946657
-0.0159943
1.39063
-0.0296584
1.73826
-0.0468323
2.07084
-0.0683384
2.39863
-0.0970631
2.76154
-0.136344
3.17375
-0.191534
3.634
-0.278262
4.15434
-0.453342
4.15919
-0.891249
4.45876
-1.36161
5.74511
-1.47627
5.55632
-1.47947
4.64827
-1.25569
3.46931
-0.685016
1.9171
-0.0630345
0.19599
0.0300344
-0.173933
-0.101987
0.000101235
0.370473
-0.0059927
0.952751
-0.0164383
1.40108
-0.0297597
1.75159
-0.0463394
2.08742
-0.0685477
2.42084
-0.0989866
2.79198
-0.140801
3.21556
-0.198828
3.69202
-0.293606
4.24912
-0.494282
4.35986
-0.981734
4.94621
-1.35461
6.11798
-1.42063
5.62234
-1.37444
4.60208
-1.08644
3.18131
-0.323099
1.15376
0.00366121
-0.130771
0.0142788
-0.18455
-0.0877077
0.00325974
0.367214
0.000875799
0.955134
-0.00923864
1.41119
-0.0240988
1.76645
-0.0425028
2.10582
-0.0664542
2.44479
-0.0983846
2.82391
-0.141825
3.259
-0.203037
3.75324
-0.307226
4.35331
-0.534063
4.5867
-1.04561
5.45775
-1.32123
6.39361
-1.35968
5.66078
-1.22074
4.46315
-0.770547
2.73111
-0.0695806
0.452795
0.0437399
-0.244091
0.0238082
-0.164619
-0.0638995
0.00425988
0.362954
0.00221789
0.957176
-0.0077387
1.42115
-0.0211636
1.77987
-0.0379348
2.12259
-0.0619072
2.46876
-0.0946841
2.85668
-0.139947
3.30427
-0.203369
3.81666
-0.314169
4.46411
-0.571109
4.84364
-1.06534
5.95198
-1.25387
6.58214
-1.26534
5.67225
-1.04719
4.245
-0.459909
2.14383
-0.0182378
0.0111235
-0.00661405
-0.255715
0.00477842
-0.176011
-0.0591211
0.00871881
0.354235
0.0105923
0.955303
0.00437647
1.42736
-0.00913422
1.79338
-0.0281987
2.14166
-0.0535823
2.49415
-0.0871694
2.89027
-0.132681
3.34978
-0.198085
3.88206
-0.316458
4.58248
-0.593968
5.12115
-1.04375
6.40177
-1.16954
6.70793
-1.15222
5.65494
-0.892489
3.98527
-0.264771
1.51611
-0.070208
-0.18344
-0.0387975
-0.287125
-0.0144105
-0.200398
-0.0735316
0.0112528
0.342982
0.0157358
0.95082
0.0105842
1.43252
0.000609408
1.80336
-0.0170061
2.15927
-0.040543
2.51768
-0.0732156
2.92294
-0.118959
3.39552
-0.184728
3.94783
-0.305529
4.70328
-0.591864
5.40748
-0.978967
6.78887
-1.04074
6.76971
-0.974572
5.58877
-0.676492
3.68719
-0.0713278
0.910945
0.0146345
-0.269402
-0.00022504
-0.272266
-0.00185211
-0.198771
-0.0753837
0.0185149
0.324467
0.030718
0.938617
0.0305952
1.43264
0.0199892
1.81396
0.00223631
2.17703
-0.0209193
2.54084
-0.0533032
2.95533
-0.0976532
3.43987
-0.162047
4.01223
-0.283687
4.82492
-0.561264
5.68506
-0.867207
7.09481
-0.905669
6.80817
-0.800882
5.48398
-0.441964
3.32827
0.0682453
0.400736
0.0795793
-0.280736
0.0594204
-0.252107
0.0221412
-0.161492
-0.0532425
0.0241989
0.300268
0.042174
0.920642
0.0450654
1.42975
0.0387127
1.82032
0.0270591
2.18868
0.00647643
2.56142
-0.0225662
2.98437
-0.0639006
3.4812
-0.125106
4.07343
-0.2397
4.93951
-0.488328
5.93369
-0.710333
7.31682
-0.732304
6.83014
-0.633818
5.38549
-0.30097
2.99542
0.00764294
0.0921227
0.0236176
-0.296711
0.0347479
-0.263237
0.0165037
-0.143248
-0.0367389
0.0351966
0.265072
0.0659788
0.88986
0.0783616
1.41736
0.0757252
1.82295
0.0647769
2.19963
0.0452525
2.58095
0.0177811
3.01184
-0.0206697
3.51966
-0.0758112
4.12857
-0.175678
5.03938
-0.375805
6.13382
-0.529395
7.47041
-0.55694
6.85768
-0.462129
5.29068
-0.192956
2.72625
-0.0762678
-0.0245654
-0.0532769
-0.319702
-0.019214
-0.2973
-0.000337789
-0.162124
-0.0370766
0.0446686
0.220403
0.0872103
0.847318
0.10727
1.3973
0.112177
1.81805
0.108796
2.20301
0.0956488
2.59409
0.0754071
3.03208
0.044224
3.55084
-0.00654364
4.17934
-0.0806961
5.11353
-0.219126
6.27225
-0.30873
7.56001
-0.317646
6.8666
-0.256498
5.22954
-0.0978225
2.56757
-0.110784
-0.0116035
-0.0862219
-0.344264
-0.0508371
-0.332685
-0.01414
-0.198821
-0.0512166
0.0580773
0.162326
0.121466
0.783929
0.159831
1.35894
0.173355
1.80452
0.17353
2.20283
0.163179
2.60445
0.147554
3.04771
0.124101
3.57429
0.0886528
4.21479
0.0395377
5.16265
-0.0139825
6.32577
-0.0448197
7.59085
-0.0443982
6.86618
-0.0016773
5.18682
0.0486285
2.51727
-0.0948968
0.131922
-0.10577
-0.333391
-0.0674615
-0.370993
-0.0092478
-0.257034
-0.0604644
0.05988
0.102446
0.151113
0.692696
0.20812
1.30193
0.235787
1.77686
0.248141
2.19048
0.248224
2.60436
0.242412
3.05352
0.231154
3.58555
0.212598
4.23334
0.190703
5.18454
0.231502
6.28497
0.284132
7.53822
0.31988
6.83043
0.270898
5.2358
0.0886062
2.69956
-0.157989
0.378517
-0.227187
-0.264193
-0.161982
-0.436198
-0.0487156
-0.370301
-0.10918
0.0491784
0.0532676
0.184707
0.557168
0.282621
1.20402
0.330508
1.72897
0.35098
2.17001
0.358902
2.59644
0.357415
3.05501
0.357978
3.58499
0.359372
4.23195
0.371972
5.17194
0.520531
6.13641
0.656119
7.40263
0.65246
6.83409
0.429114
5.45914
-0.064524
3.1932
-0.45337
0.767363
-0.511645
-0.205918
-0.399104
-0.548739
-0.196744
-0.572661
-0.305924
0.034233
0.0190345
0.219074
0.372327
0.347915
1.07518
0.427017
1.64987
0.46919
2.12784
0.493041
2.57259
0.502844
3.0452
0.517012
3.57082
0.540134
4.20883
0.590808
5.12127
0.808588
5.91863
1.13389
7.07733
1.26977
6.69821
1.28029
5.44862
0.792925
3.68056
0.0464748
1.51381
-0.389453
0.230009
-0.500455
-0.437737
-0.280985
-0.792131
-0.586909
0.0304514
-0.0114168
0.233836
0.168942
0.451176
0.857836
0.570349
1.53069
0.625097
2.07309
0.656945
2.54074
0.676158
3.02599
0.699951
3.54703
0.747287
4.16149
0.848133
5.02042
1.17941
5.58736
1.75733
6.49941
2.10225
6.35329
2.36239
5.18847
2.26943
3.77353
1.49327
2.28997
0.767425
0.955854
0.25015
0.0795375
0.00521299
-0.547193
-0.581696
0.0230692
-0.0344861
0.155532
0.03648
0.494172
0.519196
0.694665
1.3302
0.799816
1.96794
0.85467
2.48589
0.892295
2.98837
0.917177
3.52214
0.980216
4.09845
1.10776
4.89288
1.48746
5.20766
2.25421
5.73266
2.63798
5.96952
2.81671
5.00974
2.66415
3.92609
2.16682
2.7873
1.51845
1.60423
0.955751
0.642235
0.368256
0.0403019
-0.21344
0.00154739
-0.0360335
0.0758103
-0.0377829
0.408284
0.186722
0.720476
1.01801
0.866895
1.82152
0.903789
2.44899
0.911545
2.98061
0.896229
3.53746
0.895449
4.09923
0.932337
4.85599
1.09464
5.04535
1.53928
5.28802
1.71268
5.79612
1.75473
4.96768
1.6655
4.01532
1.41351
3.03929
1.00513
2.01261
0.582935
1.06443
0.245206
0.378031
0.0317661
0.00382027
-0.0398538
0.0422914
-0.076254
0.205678
0.0233353
0.550218
0.673469
0.733613
1.63812
0.80268
2.37993
0.815054
2.96824
0.807542
3.54497
0.788896
4.11788
0.808176
4.83671
0.890355
4.96317
1.20063
4.97774
1.38383
5.61292
1.40065
4.95086
1.34409
4.07188
1.18093
3.20245
0.892347
2.3012
0.562186
1.39459
0.233521
0.706695
0.265288
0.000567327
-0.0404211
0.0119687
-0.0876554
0.0802608
-0.0449568
0.379627
0.374103
0.589474
1.42828
0.685416
2.28398
0.709826
2.94382
0.709659
3.54514
0.68167
4.14587
0.67618
4.8422
0.705867
4.93348
0.895706
4.7879
1.07135
5.43729
1.07302
4.94919
1.01896
4.12594
0.895116
3.3263
0.686838
2.50947
0.426536
1.65489
0.173274
0.959957
0.438562
-0.00426938
-0.0361517
-0.00241055
-0.0895142
0.0319202
-0.0792875
0.240777
0.165246
0.469691
1.19936
0.572156
2.18152
0.595568
2.92041
0.594826
3.54588
0.567328
4.17337
0.544661
4.86487
0.549026
4.92912
0.657905
4.67902
0.799111
5.29608
0.789778
4.95852
0.732247
4.18347
0.635633
3.42292
0.487592
2.65751
0.298296
1.84419
0.114041
1.14421
0.552603
-4.90432e-05
-0.0361027