/*--------------------------------*- C++ -*----------------------------------*\
| =========                 |                                                 |
| \\      /  F ield         | OpenFOAM: The Open Source CFD Toolbox           |
|  \\    /   O peration     | Version:  4.0                                   |
|   \\  /    A nd           | Web:      www.OpenFOAM.org                      |
|    \\/     M anipulation  |                                                 |
\*---------------------------------------------------------------------------*/
FoamFile
{
    version     2.0;
    format      ascii;
    class       volVectorField;
    location    "70";
    object      U;
}
// * * * * * * * * * * * * * * * * * * * * * * * * * * * * * * * * * * * * * //

dimensions      [0 1 -1 0 0 0 0];

internalField   nonuniform List<vector> 
2200
(
(0.878836 -0.0304122 0)
(1.00578 -0.0512794 0)
(1.00327 -0.0353998 0)
(1.00024 -0.0244358 0)
(0.999858 -0.0166565 0)
(1.00003 -0.0107236 0)
(1.00003 -0.00683257 0)
(0.999988 -0.00417253 0)
(0.999888 -0.0021812 0)
(1.00018 -0.000651002 0)
(0.999991 0.00115629 0)
(1.00034 0.00269277 0)
(1.00038 0.00452153 0)
(1.00026 0.00712051 0)
(1.00006 0.0108399 0)
(0.999985 0.0166628 0)
(1.00032 0.024378 0)
(1.00347 0.0348687 0)
(1.00598 0.0513819 0)
(0.879045 0.030296 0)
(0.712026 -0.0327599 0)
(0.996645 -0.0630035 0)
(1.03333 -0.056134 0)
(1.02494 -0.046408 0)
(1.01591 -0.0361035 0)
(1.00965 -0.0263627 0)
(1.00592 -0.0181176 0)
(1.00381 -0.0114376 0)
(1.00271 -0.00606005 0)
(1.00229 -0.00163847 0)
(1.00214 0.00247264 0)
(1.00215 0.00695545 0)
(1.00323 0.0123898 0)
(1.00551 0.0189317 0)
(1.00944 0.0272404 0)
(1.01555 0.0369845 0)
(1.02463 0.0474752 0)
(1.03315 0.0579899 0)
(0.996699 0.0631492 0)
(0.711785 0.033036 0)
(0.535584 -0.0238902 0)
(0.969934 -0.0569177 0)
(1.05644 -0.0547159 0)
(1.05222 -0.0487162 0)
(1.03623 -0.0403742 0)
(1.02448 -0.0321998 0)
(1.01591 -0.0239217 0)
(1.01032 -0.015995 0)
(1.00698 -0.0086685 0)
(1.00531 -0.00190879 0)
(1.00541 0.00439612 0)
(1.00727 0.0109264 0)
(1.01049 0.0177891 0)
(1.01573 0.0255216 0)
(1.02404 0.0334772 0)
(1.03606 0.041442 0)
(1.05214 0.0494336 0)
(1.05629 0.0533222 0)
(0.969184 0.0576573 0)
(0.534335 0.0239446 0)
(0.392418 -0.0136397 0)
(0.911913 -0.0463722 0)
(1.05755 -0.0468367 0)
(1.06966 -0.0442754 0)
(1.05492 -0.0381224 0)
(1.03935 -0.0314446 0)
(1.02761 -0.0246364 0)
(1.01923 -0.0174496 0)
(1.01402 -0.00997809 0)
(1.01149 -0.00250083 0)
(1.01124 0.00513642 0)
(1.01305 0.0125065 0)
(1.01804 0.0199273 0)
(1.02654 0.0267071 0)
(1.03848 0.0331294 0)
(1.05397 0.0395685 0)
(1.06821 0.0456403 0)
(1.05546 0.0482925 0)
(0.909892 0.0469934 0)
(0.38988 0.0137789 0)
(0.307834 -0.00451061 0)
(0.846832 -0.0323613 0)
(1.04942 -0.0398942 0)
(1.07947 -0.0381177 0)
(1.06825 -0.0334356 0)
(1.05176 -0.0278007 0)
(1.03832 -0.022397 0)
(1.02796 -0.0162786 0)
(1.02071 -0.00929981 0)
(1.01668 -0.00154564 0)
(1.01659 0.00618249 0)
(1.02059 0.0135095 0)
(1.02757 0.0197679 0)
(1.03733 0.0254993 0)
(1.05019 0.0304467 0)
(1.06663 0.0357842 0)
(1.07767 0.0401322 0)
(1.04719 0.0417979 0)
(0.842859 0.0330057 0)
(0.303639 0.00474362 0)
(0.264483 0.000105751 0)
(0.789281 -0.0200452 0)
(1.03365 -0.03141 0)
(1.08378 -0.0319659 0)
(1.07744 -0.0286743 0)
(1.06092 -0.0237854 0)
(1.04736 -0.019273 0)
(1.03663 -0.0142105 0)
(1.029 -0.00820396 0)
(1.02463 -0.00129283 0)
(1.02408 0.00620549 0)
(1.02722 0.0129528 0)
(1.03426 0.0188072 0)
(1.04493 0.0232667 0)
(1.0586 0.0271943 0)
(1.07485 0.0315793 0)
(1.08027 0.0343054 0)
(1.02911 0.0333911 0)
(0.782448 0.0207701 0)
(0.258589 0.000127067 0)
(0.240561 0.00107183 0)
(0.738632 -0.0122577 0)
(1.01382 -0.0249323 0)
(1.0841 -0.0266803 0)
(1.08312 -0.0243644 0)
(1.06792 -0.0201788 0)
(1.05429 -0.0161681 0)
(1.04324 -0.0115578 0)
(1.03481 -0.00605483 0)
(1.02966 0.000451111 0)
(1.02935 0.00706304 0)
(1.03391 0.0128777 0)
(1.04164 0.0174032 0)
(1.05175 0.0214107 0)
(1.06467 0.0247831 0)
(1.07937 0.0282255 0)
(1.07984 0.0297821 0)
(1.0074 0.0272934 0)
(0.728631 0.013168 0)
(0.232883 -0.000831679 0)
(0.226341 0.000965611 0)
(0.696014 -0.00800316 0)
(0.99354 -0.0206592 0)
(1.08257 -0.0229914 0)
(1.08708 -0.0211267 0)
(1.07353 -0.0175797 0)
(1.06011 -0.0137483 0)
(1.04964 -0.00949295 0)
(1.0419 -0.00456417 0)
(1.0371 0.00104024 0)
(1.03606 0.00707719 0)
(1.03901 0.0124933 0)
(1.04565 0.0169402 0)
(1.05571 0.0202642 0)
(1.06913 0.0232337 0)
(1.08184 0.0259328 0)
(1.07547 0.0269072 0)
(0.983034 0.0235324 0)
(0.681422 0.00916561 0)
(0.216381 -0.000704924 0)
(0.216787 0.00062784 0)
(0.660593 -0.00563379 0)
(0.972905 -0.017539 0)
(1.0797 -0.0200877 0)
(1.09042 -0.0184611 0)
(1.07841 -0.0152304 0)
(1.06499 -0.0115191 0)
(1.05437 -0.00722005 0)
(1.04614 -0.00232586 0)
(1.04075 0.00313763 0)
(1.04006 0.00849608 0)
(1.04391 0.0130249 0)
(1.05075 0.0165904 0)
(1.06005 0.0198738 0)
(1.07242 0.0225654 0)
(1.08327 0.0247363 0)
(1.07075 0.0251391 0)
(0.958925 0.0211169 0)
(0.641207 0.00711374 0)
(0.204213 -0.000328207 0)
(0.209749 0.000305164 0)
(0.632379 -0.00416451 0)
(0.954397 -0.0148861 0)
(1.07693 -0.0177629 0)
(1.09376 -0.0164111 0)
(1.08322 -0.0134869 0)
(1.06973 -0.00985833 0)
(1.05929 -0.00581489 0)
(1.05168 -0.00115046 0)
(1.04687 0.00387709 0)
(1.0452 0.00903389 0)
(1.04723 0.0135959 0)
(1.05302 0.0173875 0)
(1.06238 0.0200681 0)
(1.07543 0.0224266 0)
(1.08424 0.0240923 0)
(1.06356 0.0240433 0)
(0.933928 0.0192718 0)
(0.606039 0.00598592 0)
(0.193657 5.03503e-05 0)
(0.203953 9.35059e-05 0)
(0.609124 -0.00310412 0)
(0.936434 -0.0124422 0)
(1.07369 -0.0154038 0)
(1.09701 -0.0141883 0)
(1.08792 -0.0113236 0)
(1.07445 -0.00769191 0)
(1.06369 -0.00349972 0)
(1.05537 0.00130851 0)
(1.04963 0.00642127 0)
(1.04818 0.0111373 0)
(1.05107 0.0150843 0)
(1.05706 0.0180535 0)
(1.06594 0.0207746 0)
(1.07775 0.0228303 0)
(1.08444 0.0240435 0)
(1.05674 0.0232741 0)
(0.909938 0.0177719 0)
(0.575536 0.00534967 0)
(0.183917 0.000333617 0)
(0.199559 2.00149e-05 0)
(0.591302 -0.00222525 0)
(0.921422 -0.0100937 0)
(1.07111 -0.0131997 0)
(1.10061 -0.0121021 0)
(1.09295 -0.0093762 0)
(1.07925 -0.00578464 0)
(1.06821 -0.00188364 0)
(1.05989 0.00256203 0)
(1.05448 0.00748571 0)
(1.05202 0.0125828 0)
(1.05321 0.0166414 0)
(1.05844 0.0197946 0)
(1.06748 0.0216931 0)
(1.08002 0.0233706 0)
(1.0841 0.0241687 0)
(1.04738 0.0228197 0)
(0.885016 0.0166163 0)
(0.547555 0.00499137 0)
(0.174304 0.000504858 0)
(0.196041 3.59474e-05 0)
(0.576701 -0.00151204 0)
(0.906974 -0.00796377 0)
(1.06827 -0.0108499 0)
(1.10413 -0.00969615 0)
(1.09796 -0.00687637 0)
(1.08432 -0.00323409 0)
(1.07298 0.0009437 0)
(1.06409 0.0058445 0)
(1.05758 0.0110484 0)
(1.05491 0.0153162 0)
(1.05669 0.0187936 0)
(1.06203 0.0211293 0)
(1.07049 0.0231214 0)
(1.08128 0.0243451 0)
(1.08323 0.0247185 0)
(1.03808 0.0227483 0)
(0.860651 0.0158213 0)
(0.521993 0.00484991 0)
(0.164943 0.000594717 0)
(0.194118 7.41127e-05 0)
(0.566583 -0.000687702 0)
(0.896079 -0.00572383 0)
(1.06635 -0.00833824 0)
(1.10801 -0.00700979 0)
(1.10323 -0.00407925 0)
(1.08943 -0.000264996 0)
(1.07766 0.00368583 0)
(1.06822 0.00806528 0)
(1.06122 0.0126608 0)
(1.05764 0.0175638 0)
(1.05811 0.0211738 0)
(1.06263 0.023508 0)
(1.07141 0.024631 0)
(1.08241 0.0255733 0)
(1.08106 0.0254624 0)
(1.02588 0.0229424 0)
(0.834873 0.0153531 0)
(0.497121 0.00480147 0)
(0.155466 0.000627298 0)
(0.193385 0.000108306 0)
(0.559283 -0.000170297 0)
(0.886121 -0.00371237 0)
(1.06484 -0.0058587 0)
(1.11216 -0.00431248 0)
(1.10887 -0.00117193 0)
(1.09512 0.002729 0)
(1.08292 0.00709428 0)
(1.07295 0.0121272 0)
(1.06547 0.0176605 0)
(1.06121 0.0218067 0)
(1.06135 0.0244573 0)
(1.06583 0.026088 0)
(1.07379 0.0272811 0)
(1.08219 0.0275898 0)
(1.07835 0.0270097 0)
(1.01348 0.0237182 0)
(0.809083 0.0153002 0)
(0.473208 0.00489565 0)
(0.146061 0.000654945 0)
(0.194072 7.52312e-05 0)
(0.555393 0.000916397 0)
(0.880047 -0.00144901 0)
(1.06449 -0.00295795 0)
(1.11676 -0.00097868 0)
(1.11466 0.0024684 0)
(1.10069 0.00685094 0)
(1.08805 0.0114028 0)
(1.07736 0.0161893 0)
(1.06827 0.0206476 0)
(1.06275 0.024954 0)
(1.06196 0.0278622 0)
(1.06535 0.0292849 0)
(1.07352 0.0297638 0)
(1.08213 0.0299735 0)
(1.07351 0.0288279 0)
(0.997692 0.0246939 0)
(0.781367 0.0155407 0)
(0.448781 0.00505214 0)
(0.13629 0.000668346 0)
(0.196354 0.00031188 0)
(0.55589 0.0015909 0)
(0.875858 0.000949864 0)
(1.0656 0.000300399 0)
(1.12213 0.00261485 0)
(1.12128 0.00634649 0)
(1.10727 0.0108338 0)
(1.09389 0.0157868 0)
(1.08227 0.0211943 0)
(1.07294 0.0269794 0)
(1.06683 0.0311038 0)
(1.06492 0.0332246 0)
(1.06784 0.0339853 0)
(1.075 0.0343709 0)
(1.08006 0.033477 0)
(1.06788 0.0315848 0)
(0.981298 0.0264804 0)
(0.752783 0.0162241 0)
(0.424057 0.00537518 0)
(0.126242 0.000699402 0)
(0.200731 0.000685099 0)
(0.55889 0.00244022 0)
(0.876616 0.00359633 0)
(1.06833 0.00371716 0)
(1.12828 0.00680554 0)
(1.12835 0.0109912 0)
(1.11392 0.0162629 0)
(1.10009 0.0217894 0)
(1.08789 0.0275348 0)
(1.07658 0.0325189 0)
(1.0679 0.0359538 0)
(1.06485 0.0378737 0)
(1.06653 0.0386559 0)
(1.07297 0.0381197 0)
(1.07852 0.0374816 0)
(1.05991 0.0348121 0)
(0.960729 0.0284239 0)
(0.72132 0.017228 0)
(0.39766 0.00575899 0)
(0.115452 0.000717098 0)
(0.207539 0.00090694 0)
(0.566489 0.00363365 0)
(0.881034 0.00606393 0)
(1.07356 0.00807185 0)
(1.13542 0.0117176 0)
(1.13644 0.016539 0)
(1.12166 0.0221707 0)
(1.10671 0.02822 0)
(1.09269 0.0343673 0)
(1.07991 0.0401808 0)
(1.07119 0.0448261 0)
(1.06689 0.0462091 0)
(1.06783 0.0458811 0)
(1.07345 0.0449881 0)
(1.07392 0.0428347 0)
(1.05029 0.0390657 0)
(0.938833 0.0314512 0)
(0.687872 0.0186826 0)
(0.369758 0.0062705 0)
(0.104028 0.000743347 0)
(0.216043 0.00106696 0)
(0.577498 0.00487526 0)
(0.889236 0.00912496 0)
(1.08146 0.0124565 0)
(1.14421 0.0173331 0)
(1.14568 0.0230342 0)
(1.13001 0.0297928 0)
(1.1141 0.0366275 0)
(1.09931 0.0436564 0)
(1.08518 0.049644 0)
(1.07251 0.0526255 0)
(1.0661 0.0531737 0)
(1.06513 0.0529162 0)
(1.06895 0.0509921 0)
(1.07048 0.0490283 0)
(1.03789 0.0442323 0)
(0.911213 0.0346093 0)
(0.649805 0.0204087 0)
(0.338933 0.00679367 0)
(0.0915687 0.000755013 0)
(0.228869 0.00142454 0)
(0.59682 0.00685068 0)
(0.905122 0.0137125 0)
(1.09299 0.0190156 0)
(1.15481 0.024519 0)
(1.15646 0.0312106 0)
(1.13972 0.0387147 0)
(1.12211 0.0464077 0)
(1.10457 0.0536849 0)
(1.08717 0.0597359 0)
(1.07342 0.0633226 0)
(1.06662 0.0642045 0)
(1.06524 0.0626941 0)
(1.06837 0.0602919 0)
(1.06249 0.056756 0)
(1.02248 0.0501307 0)
(0.881207 0.038965 0)
(0.608639 0.0224798 0)
(0.305783 0.007333 0)
(0.078393 0.000754939 0)
(0.244712 0.00200974 0)
(0.620445 0.00864226 0)
(0.926444 0.0181415 0)
(1.10872 0.025777 0)
(1.16772 0.0333708 0)
(1.16893 0.0412796 0)
(1.15038 0.0501733 0)
(1.13075 0.0588436 0)
(1.11136 0.0671694 0)
(1.09223 0.0736811 0)
(1.0756 0.0768119 0)
(1.06499 0.0755093 0)
(1.06081 0.0732102 0)
(1.06106 0.0696513 0)
(1.05589 0.0652986 0)
(1.00353 0.0575537 0)
(0.843349 0.043289 0)
(0.560423 0.0245925 0)
(0.268712 0.00774843 0)
(0.0641975 0.000733958 0)
(0.26705 0.00283315 0)
(0.653722 0.0124812 0)
(0.955499 0.0250269 0)
(1.12899 0.0354535 0)
(1.18357 0.0440768 0)
(1.18357 0.0540577 0)
(1.16272 0.0642323 0)
(1.14041 0.0740254 0)
(1.11751 0.0825963 0)
(1.09414 0.0884795 0)
(1.07388 0.0901536 0)
(1.06274 0.0887759 0)
(1.05899 0.0860438 0)
(1.05865 0.0819434 0)
(1.04334 0.0759328 0)
(0.979312 0.0653975 0)
(0.801206 0.0488185 0)
(0.508162 0.0268422 0)
(0.229397 0.00802423 0)
(0.049705 0.000711219 0)
(0.298774 0.00378016 0)
(0.699982 0.0156407 0)
(0.995566 0.0333928 0)
(1.15601 0.0472927 0)
(1.20285 0.0589733 0)
(1.20018 0.0710197 0)
(1.17555 0.0829002 0)
(1.14965 0.0934732 0)
(1.12333 0.102178 0)
(1.09703 0.107437 0)
(1.07464 0.108421 0)
(1.06046 0.105528 0)
(1.05245 0.100406 0)
(1.04802 0.0942184 0)
(1.0312 0.0869373 0)
(0.950399 0.0745734 0)
(0.748424 0.0536065 0)
(0.445961 0.0283441 0)
(0.186065 0.00786484 0)
(0.0346434 0.000604523 0)
(0.335609 0.0071589 0)
(0.758164 0.02506 0)
(1.04457 0.0469407 0)
(1.18875 0.0653914 0)
(1.22628 0.0786411 0)
(1.21935 0.0937146 0)
(1.19024 0.106467 0)
(1.16032 0.117107 0)
(1.12962 0.124891 0)
(1.09867 0.128657 0)
(1.07194 0.127398 0)
(1.05516 0.122048 0)
(1.04811 0.116434 0)
(1.04283 0.109952 0)
(1.01207 0.100315 0)
(0.912701 0.0836968 0)
(0.688719 0.0591883 0)
(0.381014 0.0297924 0)
(0.143008 0.007518 0)
(0.0211531 0.000568526 0)
(0.416415 0.0108761 0)
(0.846616 0.0357898 0)
(1.11248 0.0680083 0)
(1.23003 0.0908318 0)
(1.25392 0.10714 6.11596e-34)
(1.23981 0.124371 -2.76582e-34)
(1.20401 0.13734 0)
(1.16873 0.14698 0)
(1.13323 0.153103 0)
(1.09828 0.154218 0)
(1.06883 0.149791 0)
(1.05103 0.142782 0)
(1.03969 0.134666 0)
(1.02761 0.125002 0)
(0.990962 0.11313 0)
(0.868402 0.0932381 0)
(0.61517 0.0625293 0)
(0.301856 0.0287215 0)
(0.094392 0.00683168 0)
(0.00668195 0.000725287 0)
(0.488176 0.0260614 4.43665e-20)
(0.949066 0.0606924 -3.36436e-20)
(1.18238 0.102642 0)
(1.27156 0.130113 2.62995e-20)
(1.2828 0.14634 -2.13265e-20)
(1.25919 0.165177 2.91822e-34)
(1.21664 0.176027 0)
(1.17651 0.183405 1.56283e-20)
(1.13603 0.186547 -5.13605e-20)
(1.09609 0.184608 1.05074e-20)
(1.06302 0.178079 0)
(1.04086 0.168006 -2.67867e-20)
(1.02967 0.157693 -3.22921e-20)
(1.01579 0.147664 5.65913e-20)
(0.953958 0.131507 -4.46964e-20)
(0.794858 0.102893 0)
(0.508768 0.0643667 -1.60521e-20)
(0.209439 0.0263158 0)
(0.0460446 0.0064291 -8.88089e-20)
(-0.00873075 0.000290087 1.04664e-19)
(0.524815 0.0542535 -5.87832e-21)
(1.01639 0.10305 9.85349e-20)
(1.23584 0.153858 -4.91482e-21)
(1.30684 0.178318 -6.34129e-20)
(1.30877 0.195768 -4.49604e-20)
(1.27617 0.212948 7.31397e-20)
(1.22705 0.221243 0)
(1.18103 0.225955 0)
(1.13511 0.226813 8.14758e-20)
(1.09069 0.222197 0)
(1.05317 0.211423 9.62597e-20)
(1.02986 0.198388 2.87428e-20)
(1.01313 0.187411 6.05865e-22)
(0.983851 0.17246 -6.12218e-20)
(0.909196 0.150406 0)
(0.722425 0.115237 0)
(0.421897 0.0655098 -2.60805e-19)
(0.148091 0.0234006 6.55861e-19)
(0.0129301 0.00420743 -3.87658e-19)
(-0.0200971 -0.00153175 -4.56543e-19)
(0.531735 0.0780986 -5.18536e-20)
(1.04943 0.160002 2.03844e-20)
(1.27028 0.213855 1.15858e-20)
(1.33359 0.237464 1.10035e-19)
(1.32853 0.254261 1.46736e-20)
(1.28851 0.266798 -1.89932e-19)
(1.23393 0.270661 6.50123e-20)
(1.18294 0.271818 0)
(1.13167 0.268921 -1.71787e-19)
(1.08146 0.259978 1.53185e-19)
(1.03971 0.246158 -2.59654e-19)
(1.01274 0.232455 1.21749e-19)
(0.994329 0.217528 -7.89772e-20)
(0.966283 0.200874 1.78203e-19)
(0.872204 0.174747 0)
(0.668857 0.127118 -6.47645e-20)
(0.368499 0.0675518 0)
(0.121703 0.0222321 3.5672e-19)
(-0.00171138 0.00176725 -8.44916e-19)
(-0.0258846 -0.00357202 5.28808e-19)
(0.52954 0.108578 1.31337e-19)
(1.07645 0.219717 -5.88781e-20)
(1.29562 0.280963 -1.30123e-20)
(1.35193 0.303022 0)
(1.34174 0.316463 -8.16332e-20)
(1.29667 0.323725 1.00903e-19)
(1.23726 0.323183 -6.93183e-20)
(1.1811 0.320247 0)
(1.12505 0.313187 1.2195e-19)
(1.07126 0.300417 -1.0754e-19)
(1.02669 0.283079 2.2417e-19)
(0.996876 0.26509 0)
(0.974112 0.248111 -1.67593e-19)
(0.933518 0.226984 9.452e-20)
(0.838103 0.192223 2.37363e-19)
(0.631182 0.139279 -2.08782e-19)
(0.343493 0.0730637 3.29123e-19)
(0.114761 0.0236531 -7.28554e-19)
(-0.00777261 -0.000311588 4.6057e-19)
(-0.0298003 -0.00584577 -5.75845e-19)
(0.513969 0.13281 -3.67206e-20)
(1.07695 0.270761 2.58369e-20)
(1.30391 0.344578 -4.34976e-20)
(1.36094 0.368279 9.07439e-20)
(1.34765 0.380732 -8.80116e-20)
(1.29877 0.38287 3.13418e-20)
(1.23592 0.377104 3.83451e-21)
(1.17634 0.369463 -1.36349e-19)
(1.11635 0.357832 -1.27277e-19)
(1.05733 0.340156 -2.3021e-19)
(1.00817 0.318425 -4.81704e-19)
(0.975355 0.297465 -1.48646e-19)
(0.951304 0.276944 2.23351e-21)
(0.915353 0.253906 -3.22742e-19)
(0.81233 0.217366 -4.84439e-21)
(0.607521 0.153412 3.03197e-19)
(0.336888 0.0805926 -9.06614e-20)
(0.11664 0.0270004 -5.26538e-20)
(-0.00525076 -0.00199483 0)
(-0.030257 -0.00749863 1.22163e-18)
(0.499665 0.154846 0)
(1.07753 0.323913 9.32647e-22)
(1.30855 0.410435 -5.36339e-21)
(1.36358 0.433369 -1.30223e-20)
(1.34782 0.4434 8.35359e-20)
(1.29693 0.440893 -7.39274e-20)
(1.23141 0.430979 7.52504e-20)
(1.16825 0.419175 2.24109e-19)
(1.10456 0.403189 -7.0799e-20)
(1.04292 0.381205 1.13666e-19)
(0.992074 0.355757 2.58769e-19)
(0.957144 0.331165 3.24076e-19)
(0.928588 0.308192 -1.95148e-19)
(0.882715 0.281383 3.49348e-19)
(0.784651 0.236599 -2.76798e-19)
(0.587869 0.171204 0)
(0.332289 0.0919266 -6.88574e-19)
(0.124228 0.0325225 9.28023e-19)
(0.00285118 -0.000842473 6.92347e-20)
(-0.0273186 -0.00833234 -1.29208e-18)
(0.480988 0.173598 -5.19547e-21)
(1.06299 0.368525 -2.78093e-20)
(1.30315 0.468951 3.82858e-20)
(1.36074 0.494716 -6.26549e-20)
(1.3433 0.504714 7.09474e-20)
(1.29034 0.498278 -7.06814e-20)
(1.22269 0.484116 1.47953e-19)
(1.15743 0.467915 -6.64255e-20)
(1.09116 0.447431 -2.85156e-19)
(1.02604 0.420862 -7.4112e-23)
(0.970949 0.391138 -2.81281e-19)
(0.932108 0.362683 -3.48876e-19)
(0.903618 0.336651 2.1581e-19)
(0.864211 0.308322 -1.25548e-19)
(0.761613 0.264488 3.01314e-19)
(0.57248 0.188623 0)
(0.332074 0.10575 -4.2864e-19)
(0.133466 0.0400377 6.33098e-19)
(0.0124831 0.0021282 1.197e-18)
(-0.0231458 -0.00830504 -1.40785e-18)
(0.468708 0.19251 -1.11657e-19)
(1.05502 0.416377 5.06934e-20)
(1.29744 0.528893 -1.86091e-20)
(1.3541 0.554852 6.39407e-20)
(1.33498 0.563215 1.22598e-20)
(1.28112 0.55306 -1.37283e-19)
(1.21208 0.535478 -8.63801e-20)
(1.14468 0.515604 -8.60086e-20)
(1.07601 0.491246 -1.61484e-19)
(1.00868 0.460831 2.59936e-19)
(0.95114 0.426848 2.83724e-19)
(0.910823 0.395283 5.53512e-19)
(0.88005 0.367522 0)
(0.831712 0.336093 6.36842e-21)
(0.736699 0.283209 -8.28862e-19)
(0.557607 0.208146 1.94942e-19)
(0.331286 0.119479 9.31225e-19)
(0.142225 0.0488187 -2.74812e-19)
(0.0225888 0.00629779 5.69697e-19)
(-0.0183321 -0.00753766 -4.74688e-20)
(0.45476 0.208285 5.89653e-21)
(1.03746 0.455543 6.82866e-20)
(1.28596 0.581648 -4.22243e-22)
(1.34456 0.610636 5.62364e-20)
(1.32434 0.619192 -1.26883e-19)
(1.26921 0.605938 1.35149e-19)
(1.19878 0.584995 8.92749e-20)
(1.13006 0.561469 2.55964e-19)
(1.05922 0.533312 3.2313e-19)
(0.988203 0.498771 -3.01885e-19)
(0.927286 0.460884 0)
(0.884757 0.425456 -2.1007e-19)
(0.853206 0.394168 2.41185e-19)
(0.812936 0.361651 3.04759e-19)
(0.715525 0.31122 -1.76497e-19)
(0.543871 0.225699 -4.27927e-19)
(0.330449 0.134182 -1.27341e-19)
(0.149736 0.0582799 -2.06114e-21)
(0.0317693 0.0112882 0)
(-0.0135949 -0.00628763 0)
(0.447116 0.225686 -9.33942e-20)
(1.02745 0.498135 0)
(1.27552 0.635453 1.53856e-20)
(1.33287 0.6652 -1.93247e-20)
(1.31138 0.672308 1.47121e-19)
(1.25579 0.656011 -3.67584e-20)
(1.18453 0.632274 9.07356e-20)
(1.11412 0.605699 -1.72731e-19)
(1.04114 0.57455 2.45227e-19)
(0.968806 0.536712 -1.00364e-19)
(0.90667 0.494678 1.63072e-19)
(0.86292 0.456175 6.67407e-19)
(0.829492 0.42444 1.4262e-20)
(0.780645 0.387712 -3.1851e-19)
(0.691571 0.327839 5.89138e-19)
(0.528501 0.245283 3.17683e-21)
(0.326907 0.147825 1.36237e-19)
(0.154689 0.0679315 -6.49318e-19)
(0.039038 0.0163504 6.68989e-19)
(-0.00946926 -0.00486981 -7.88011e-19)
(0.438775 0.240527 2.74686e-23)
(1.01174 0.533118 0)
(1.26149 0.682215 0)
(1.31976 0.715294 5.00158e-21)
(1.29762 0.722525 -4.15768e-20)
(1.24109 0.703712 6.19559e-20)
(1.1687 0.677349 -1.66767e-19)
(1.09733 0.64796 0)
(1.02311 0.61365 -3.6211e-19)
(0.948462 0.572278 4.38079e-19)
(0.882732 0.526699 4.67373e-19)
(0.83629 0.485573 -2.45101e-19)
(0.802399 0.448493 -2.97433e-19)
(0.762105 0.410029 6.97805e-19)
(0.669969 0.354357 -2.09718e-19)
(0.513002 0.260864 -2.49522e-19)
(0.32213 0.16116 -1.49057e-19)
(0.156904 0.0766315 -7.02244e-19)
(0.0441169 0.0209151 1.02936e-19)
(-0.00616103 -0.00350936 8.53818e-19)
(0.433162 0.257513 -4.45118e-20)
(1.00175 0.571111 -6.04032e-20)
(1.24905 0.729896 2.39026e-20)
(1.30557 0.764147 -2.02433e-22)
(1.28245 0.770074 -4.91743e-20)
(1.22559 0.748852 9.58481e-20)
(1.15277 0.720236 0)
(1.08048 0.688268 1.05228e-19)
(1.0048 0.651703 -8.2973e-20)
(0.928347 0.607767 7.32267e-19)
(0.860609 0.558487 -1.05031e-19)
(0.813736 0.51375 1.21541e-19)
(0.779253 0.476097 0)
(0.729874 0.433503 -3.78047e-19)
(0.645585 0.366703 4.58029e-19)
(0.495732 0.277818 0)
(0.314072 0.171833 -3.20831e-19)
(0.156358 0.0841353 9.4457e-19)
(0.0469498 0.0246847 1.12287e-19)
(-0.00371564 -0.00235078 -1.0533e-18)
(0.42866 0.274832 -1.09643e-19)
(0.988391 0.602758 1.38453e-19)
(1.23421 0.770978 0)
(1.29092 0.808516 3.08597e-20)
(1.26741 0.814638 0)
(1.20992 0.791411 -1.28377e-19)
(1.13644 0.760696 0)
(1.06357 0.726673 0)
(0.98663 0.687684 -1.11202e-19)
(0.90772 0.640872 -6.96402e-19)
(0.837347 0.588723 -8.64961e-19)
(0.787227 0.541275 1.4273e-19)
(0.750925 0.497158 5.1607e-19)
(0.711048 0.451585 4.16942e-19)
(0.623303 0.389785 -1.47064e-18)
(0.478842 0.288595 -5.86667e-19)
(0.305302 0.181729 3.44167e-19)
(0.153983 0.0898678 0)
(0.0480255 0.0275893 9.65826e-19)
(-0.0020043 -0.00145432 -1.1365e-18)
(0.426438 0.290436 1.28696e-19)
(0.979897 0.63706 -1.59118e-19)
(1.2212 0.813219 0)
(1.27596 0.851742 -1.14727e-20)
(1.25169 0.856756 -6.80372e-21)
(1.19402 0.831691 0)
(1.12039 0.799226 5.18092e-20)
(1.04679 0.763065 7.39485e-20)
(0.96847 0.722437 -2.0832e-19)
(0.887838 0.673757 9.20162e-20)
(0.815169 0.618542 0)
(0.764018 0.566893 5.9215e-19)
(0.727542 0.52194 6.4154e-21)
(0.678297 0.471919 2.25144e-19)
(0.59886 0.396098 2.66728e-19)
(0.460733 0.301059 0)
(0.294826 0.188131 -5.60009e-19)
(0.14964 0.0942719 1.0987e-18)
(0.0477408 0.0293955 -1.1693e-18)
(-0.00110204 -0.000882309 2.44956e-18)
(0.424431 0.305204 0)
(0.968251 0.665322 0)
(1.20668 0.849135 -7.8924e-20)
(1.26119 0.890623 0)
(1.23663 0.895967 0)
(1.17853 0.869353 -1.0127e-19)
(1.10443 0.835235 5.29811e-20)
(1.03031 0.79763 1.79483e-20)
(0.950773 0.755234 -4.73224e-20)
(0.867784 0.704438 0)
(0.792243 0.647201 -1.32505e-19)
(0.737436 0.593248 -4.83079e-19)
(0.697497 0.540527 -5.82551e-19)
(0.658455 0.484824 -2.34444e-19)
(0.576123 0.414793 2.88928e-19)
(0.443124 0.305384 -6.80311e-19)
(0.285224 0.193311 1.20353e-18)
(0.144937 0.0962563 1.44814e-21)
(0.0466518 0.0311625 -1.11722e-18)
(-0.000358414 0.000242095 -1.65261e-19)
(0.423185 0.319101 0)
(0.960629 0.696269 -1.27988e-19)
(1.19419 0.886402 9.52605e-20)
(1.24655 0.928623 0)
(1.22128 0.933007 0)
(1.16303 0.905015 2.00638e-19)
(1.08887 0.869614 0)
(1.01415 0.83028 0)
(0.933427 0.786732 -4.58562e-19)
(0.848784 0.734818 1.28641e-19)
(0.770638 0.675126 -1.17573e-18)
(0.713612 0.616539 0)
(0.673601 0.563036 -6.35352e-19)
(0.623867 0.501909 9.77318e-21)
(0.550505 0.413327 -9.31543e-19)
(0.4257 0.310522 3.65697e-19)
(0.276615 0.192364 1.18536e-21)
(0.143725 0.0953424 -1.26412e-18)
(0.0469358 0.0289002 5.99782e-19)
(-0.00221036 -0.00263106 1.76773e-19)
(0.421675 0.332784 0)
(0.950403 0.721783 -1.72013e-19)
(1.18064 0.917693 1.00089e-19)
(1.23237 0.962541 1.43021e-19)
(1.20683 0.967333 -4.21157e-21)
(1.14822 0.938142 1.98081e-20)
(1.07376 0.901461 -2.93532e-20)
(0.998703 0.861214 4.31268e-19)
(0.916915 0.81648 4.90532e-19)
(0.829954 0.763174 9.78867e-19)
(0.748551 0.702447 9.76851e-19)
(0.687 0.642468 1.72301e-19)
(0.641153 0.580214 9.1357e-19)
(0.60152 0.509644 5.64883e-19)
(0.525314 0.425927 6.68327e-19)
(0.408325 0.304221 -3.99965e-19)
(0.269233 0.185735 -4.58269e-19)
(0.148113 0.0944664 5.45457e-19)
(0.057056 0.0400871 -3.22482e-19)
(0.00664148 0.00875171 5.73467e-19)
(0.420629 0.345961 2.39346e-19)
(0.943755 0.749927 2.69765e-19)
(1.16905 0.95067 5.70683e-20)
(1.21851 0.995907 1.53489e-20)
(1.1923 0.999777 -2.09191e-20)
(1.13359 0.969533 -5.51653e-20)
(1.05919 0.931981 2.79378e-20)
(0.983733 0.890416 -1.87904e-20)
(0.900941 0.844937 -5.72374e-19)
(0.812338 0.791123 -1.06291e-18)
(0.728075 0.728954 6.78375e-20)
(0.663044 0.664429 0)
(0.616327 0.601463 0)
(0.562753 0.525193 -2.95139e-19)
(0.494614 0.41486 -1.09745e-18)
(0.388931 0.296611 8.61741e-19)
(0.269958 0.168416 5.03324e-19)
(0.162977 0.071401 0)
(0.0757414 0.00771801 1.03214e-18)
(0.000407533 -0.0196056 -6.10654e-19)
(0.419316 0.358802 -1.2707e-19)
(0.934813 0.772844 1.1184e-19)
(1.15651 0.977937 -1.35952e-19)
(1.20521 1.02543 -1.15733e-19)
(1.17877 1.02973 -2.31369e-20)
(1.11984 0.998552 -1.75779e-20)
(1.04535 0.960025 0)
(0.969725 0.917985 -5.42814e-19)
(0.885965 0.871796 6.88529e-20)
(0.79513 0.817251 0)
(0.707418 0.755103 0)
(0.637242 0.690669 1.10758e-19)
(0.581247 0.618885 1.48812e-19)
(0.535688 0.52955 -3.19568e-19)
(0.462435 0.423536 7.87321e-19)
(0.363243 0.274713 -9.39651e-19)
(0.257156 0.14269 -1.08175e-18)
(0.189283 0.0628444 9.58768e-19)
(0.148444 0.0646543 -3.66774e-19)
(0.108785 0.0734595 2.13364e-19)
(0.418409 0.370796 1.56923e-19)
(0.928972 0.798209 0)
(1.14582 1.00719 0)
(1.19232 1.05472 -3.26743e-20)
(1.16532 1.05807 2.64504e-20)
(1.10639 1.02607 -1.95868e-20)
(1.03209 0.987007 1.29549e-19)
(0.956165 0.943999 5.55307e-19)
(0.871525 0.897371 1.03988e-18)
(0.779258 0.842806 -8.06295e-20)
(0.688741 0.780199 1.67297e-19)
(0.613986 0.712208 -9.93632e-19)
(0.556135 0.640747 -9.93448e-19)
(0.490634 0.547605 -1.72118e-19)
(0.416501 0.404876 0)
(0.329784 0.261254 -3.88153e-21)
(0.241941 0.0673612 5.97918e-19)
(0.238936 -0.0427581 -1.00267e-18)
(0.206925 -0.114855 7.61661e-19)
(0.0887057 -0.101167 6.30124e-19)
(0.417052 0.382554 -3.45675e-19)
(0.920838 0.818477 -1.55142e-19)
(1.13412 1.03094 6.87907e-21)
(1.17993 1.08054 6.31209e-20)
(1.15276 1.08443 0)
(1.0937 1.05178 -4.12986e-20)
(1.01936 1.01205 -1.88814e-19)
(0.943315 0.968984 -2.23233e-21)
(0.857783 0.922145 -5.44864e-19)
(0.763359 0.867476 -7.92703e-20)
(0.669227 0.806049 7.36308e-20)
(0.589068 0.740528 8.73193e-19)
(0.517721 0.661396 9.68809e-19)
(0.456639 0.551916 1.68367e-19)
(0.374962 0.420907 8.57314e-19)
(0.26906 0.224274 0)
(0.143319 0.0457169 0)
(-0.0151447 0.168651 6.83491e-19)
(-0.078631 0.629264 -2.65671e-20)
(0.0102102 1.54658 -8.50512e-19)
(0.416209 0.393524 1.90432e-19)
(0.915613 0.841475 4.39034e-19)
(1.1242 1.05733 -6.09209e-19)
(1.16786 1.10684 3.12156e-19)
(1.14014 1.10995 -1.20655e-20)
(1.08103 1.07684 9.13206e-21)
(1.00683 1.03707 0)
(0.930424 0.993585 -4.62402e-19)
(0.844042 0.946914 0)
(0.748305 0.893027 1.11362e-18)
(0.651347 0.832281 -9.05576e-20)
(0.565416 0.764533 1.01545e-19)
(0.492093 0.688829 1.11906e-18)
(0.401305 0.584173 -3.65837e-19)
(0.286126 0.402548 -4.34818e-19)
(0.179721 0.272372 0)
(0.0719908 0.450427 0)
(0.0238955 1.36747 0)
(0.0709849 2.47586 -3.87702e-19)
(0.0967237 2.91678 -2.39777e-19)
(0.414596 0.404043 0)
(0.908066 0.859294 0)
(1.11325 1.07812 2.21555e-19)
(1.15631 1.12977 -2.54313e-19)
(1.1284 1.13372 1.19962e-19)
(1.06913 1.10037 4.69835e-22)
(0.994879 1.06034 2.49706e-20)
(0.918379 1.01736 -1.94412e-20)
(0.831254 0.971241 7.77017e-20)
(0.733487 0.918205 -1.27816e-18)
(0.632513 0.859937 1.63874e-19)
(0.541384 0.798142 8.81067e-19)
(0.450049 0.718271 -1.11428e-18)
(0.362334 0.590535 -1.23246e-18)
(0.262222 0.458351 4.13551e-19)
(0.177799 0.609505 0)
(0.11123 1.5952 5.59628e-19)
(0.116798 2.70296 6.01213e-19)
(0.124152 3.09113 -6.71482e-19)
(0.117039 3.22371 7.1347e-19)
(0.413543 0.414292 0)
(0.903394 0.88001 3.82642e-19)
(1.10413 1.10196 -5.54967e-20)
(1.14515 1.15344 3.4981e-19)
(1.11667 1.15674 -1.2592e-19)
(1.05735 1.12322 0)
(0.983232 1.08359 0)
(0.906411 1.04068 0)
(0.818615 0.995315 4.34102e-19)
(0.719818 0.943902 5.86785e-20)
(0.616475 0.88741 0)
(0.51913 0.824297 -8.75479e-19)
(0.430954 0.750474 0)
(0.305284 0.634719 8.81689e-19)
(0.198006 0.682046 -5.98842e-19)
(0.142304 1.46805 -4.78827e-19)
(0.147195 2.68933 -1.09606e-18)
(0.170984 3.12593 -5.75203e-19)
(0.161599 3.26484 -7.70484e-19)
(0.148902 3.30502 5.54861e-19)
(0.411864 0.423514 -1.32938e-19)
(0.89631 0.895384 1.46609e-20)
(1.0939 1.11995 -6.1432e-20)
(1.13452 1.17369 -2.71482e-19)
(1.10584 1.17812 0)
(1.04637 1.1447 0)
(0.97221 1.10511 0)
(0.895406 1.06313 3.28281e-20)
(0.807096 1.01894 -5.49161e-19)
(0.706581 0.969218 0)
(0.599554 0.916312 0)
(0.499548 0.861926 0)
(0.386636 0.782232 0)
(0.308523 0.727587 6.49406e-19)
(0.263606 1.13331 1.58985e-18)
(0.235964 2.40462 4.65198e-19)
(0.253998 3.0811 9.28585e-19)
(0.248554 3.27758 -7.10981e-19)
(0.200577 3.34288 2.59303e-19)
(0.169124 3.3562 0)
(0.410666 0.432609 1.36479e-19)
(0.892025 0.914563 -8.45715e-19)
(1.08538 1.14219 -2.28458e-19)
(1.12403 1.19563 -5.08034e-20)
(1.09478 1.19948 2.9186e-20)
(1.03529 1.16608 -1.19233e-19)
(0.96132 1.1272 -2.32262e-22)
(0.884293 1.08565 -3.57813e-19)
(0.795524 1.04264 0)
(0.694422 0.995243 -7.55833e-20)
(0.586199 0.945192 6.876e-20)
(0.480248 0.888677 0)
(0.38355 0.823045 0)
(0.320763 0.92167 -8.13901e-19)
(0.264287 1.8515 1.02998e-19)
(0.260926 2.94515 -3.50307e-19)
(0.286458 3.28036 7.32452e-19)
(0.257604 3.37854 5.22524e-19)
(0.193515 3.40321 -7.05334e-19)
(0.169233 3.41355 3.4739e-19)
(0.408542 0.441958 2.67002e-19)
(0.884307 0.929165 8.22001e-19)
(1.07465 1.15939 2.75031e-19)
(1.11319 1.2154 0)
(1.08383 1.22065 0)
(1.0243 1.18749 9.234e-20)
(0.950414 1.14868 5.05088e-20)
(0.873637 1.10821 3.18454e-19)
(0.784699 1.06665 2.11949e-20)
(0.682458 1.02146 9.62061e-19)
(0.571659 0.975471 -1.15029e-18)
(0.46011 0.924453 0)
(0.380483 0.902428 0)
(0.332502 1.30133 -5.56039e-19)
(0.327 2.49747 -6.66601e-19)
(0.372454 3.19304 0)
(0.397795 3.36034 -7.40106e-19)
(0.326861 3.42339 5.13567e-20)
(0.258913 3.46923 3.38404e-19)
(0.236931 3.49477 -1.09549e-19)
(0.406711 0.451632 -5.07152e-19)
(0.879452 0.9504 -3.94121e-19)
(1.06508 1.18405 0)
(1.10147 1.23915 0)
(1.07163 1.24342 0)
(1.01226 1.21006 0)
(0.938814 1.17191 -6.14706e-20)
(0.86208 1.13183 2.76967e-19)
(0.773077 1.09146 0)
(0.671075 1.04886 -8.75513e-19)
(0.560929 1.00612 2.06539e-18)
(0.450221 0.962379 8.48314e-20)
(0.396079 1.02361 1.14712e-19)
(0.384365 1.73901 9.05977e-19)
(0.394641 2.90136 -4.87195e-19)
(0.435202 3.31176 0)
(0.418141 3.43284 2.08331e-19)
(0.332257 3.5222 9.10246e-20)
(0.258993 3.58672 1.48713e-19)
(0.183459 3.56616 -1.64061e-20)
(0.403689 0.461851 2.40872e-19)
(0.869716 0.965884 -4.00354e-19)
(1.05227 1.20218 0)
(1.08895 1.26028 -7.43333e-20)
(1.05914 1.26619 2.56971e-19)
(0.999925 1.23298 0)
(0.92684 1.19467 0)
(0.850745 1.15551 -4.80123e-19)
(0.762111 1.11657 -5.57234e-20)
(0.659896 1.07623 8.59675e-19)
(0.545886 1.03691 -9.81277e-19)
(0.451973 1.01377 5.78886e-19)
(0.412203 1.21326 0)