/*--------------------------------*- C++ -*----------------------------------*\
| =========                 |                                                 |
| \\      /  F ield         | OpenFOAM: The Open Source CFD Toolbox           |
|  \\    /   O peration     | Version:  4.0                                   |
|   \\  /    A nd           | Web:      www.OpenFOAM.org                      |
|    \\/     M anipulation  |                                                 |
\*---------------------------------------------------------------------------*/
FoamFile
{
    version     2.0;
    format      ascii;
    class       surfaceScalarField;
    location    "38";
    object      phi;
}
// * * * * * * * * * * * * * * * * * * * * * * * * * * * * * * * * * * * * * //

dimensions      [0 3 -1 0 0 0 0];

internalField   nonuniform List<scalar> 
1300
(
3.75095
5.62643
-3.03334
3.75095
-7.34053
5.62643
-4.42135
4.42135
-0.894191
0.894191
1.87642
1.87454
-2.91022
2.91022
-2.33587
2.33587
-2.55451
2.55451
-5.24649
5.24649
-5.06904
5.06904
4.66697
-4.66697
-6.13667
6.13667
-1.24331
1.24331
-3.79475
3.79475
3.16976
-3.16976
-2.29449
2.29449
-0.233369
0.233369
-0.55351
4.30446
3.19744
3.19744
-2.03272
2.03272
-4.86412
4.86412
6.21814
-6.21814
4.84355
-4.84355
-1.81021
-2.08916
1.63939
-11.3664
-5.70113
-5.70113
-8.44038
8.44038
-2.81395
2.81248
2.94418
-2.94418
-1.77933
1.77933
-4.35668
-0.0646705
-4.35668
4.41602
0.00533415
4.41602
-0.98787
0.0936784
-0.98787
3.89521
-3.89521
0.768145
0.126046
0.768145
3.06491
-3.06491
-1.87707
3.75348
1.87389
-1.87186
6.17632
-1.8791
3.75363
-5.97729
5.97729
-3.12714
0.216921
-3.12714
2.73688
0.173337
2.73688
-6.78296
6.78296
-2.42117
0.0852975
-2.42117
2.28814
0.0477263
2.28814
2.86999
-2.86999
-2.65573
0.10122
-2.65573
2.44272
0.111783
2.44272
0.353527
5.2729
-5.97996
8.79244
-5.2729
0.0264171
5.20839
0.0380945
5.20839
-5.1061
0.0370567
-5.1061
5.01124
0.0577961
5.01124
4.75772
-0.0907519
4.75772
-4.78215
0.115185
-4.78215
-3.7452
-4.22905
-6.30219
0.165524
-6.30219
-1.2469
0.00359286
-1.2469
1.19933
0.0439821
1.19933
-3.62879
3.62879
-4.18971
0.394959
-4.18971
3.1242
0.0455552
3.1242
1.8685
1.88245
5.61945
-5.61945
2.4497
-2.30724
0.0127586
-2.30724
-2.30944
-2.53411
2.30944
-0.0149582
-0.487322
0.253954
-0.487322
3.15931
0.0381291
3.15931
2.28545
0.157274
-2.28545
0.252732
3.23169
-3.23169
1.37173
0.660994
1.37173
-5.56565
5.56565
4.95416
0.0570856
-4.95416
0.0900429
6.15706
0.0610737
6.15706
-6.19955
-0.0185832
-6.19955
2.69496
-4.78412
-2.39416
5.91842
0.218252
-5.91842
0.217285
2.9146
0.0295767
2.9146
-2.92053
2.92053
-2.9834
0.0392175
-2.9834
-2.18186
0.402534
-2.18186
1.47679
0.302543
1.47679
-4.22116
-0.135522
-4.22116
-4.33372
0.144015
4.33372
0.0822931
1.09701
-1.09701
-1.09616
0.10829
-1.09616
-4.04877
-0.172388
4.04877
-0.153559
-3.7702
-0.125013
-3.7702
-3.02367
0.04027
3.02367
0.041245
3.11265
0.0466644
-3.11265
0.0477389
-1.87082
3.75328
-1.88013
3.75402
-5.59511
-0.38218
-5.59511
6.28475
-0.307457
6.28475
3.47701
0.317736
-3.47701
0.349876
2.60202
0.134861
2.60202
-6.75562
-0.0273369
-6.75562
6.75928
0.0236761
6.75928
2.50243
0.0995874
-2.50243
0.0812638
2.28834
-0.000195275
2.28834
2.8847
-0.014716
2.8847
-2.86747
-0.00251651
-2.86747
2.79931
-2.79931
2.73125
0.0680684
-2.73125
0.0755178
-11.133
11.1144
-0.0352437
-11.0978
5.17315
5.17315
4.18738
0.570338
4.18738
-4.99717
0.215016
-4.99717
3.15148
-5.54564
3.16053
-6.90573
4.79416
-16.1606
4.34355
-8.57261
6.59062
-6.59062
6.44894
0.141684
-6.44894
0.146747
-1.28338
0.0364746
-1.28338
-3.02241
-0.606382
-3.02241
4.28074
-0.651942
4.28074
-3.02879
3.02879
-3.07785
0.0490628
3.07785
0.0463476
2.30588
-0.0175378
-2.30588
-0.00136708
0.633456
0.13469
-0.633456
0.146133
3.42009
-0.188404
3.42009
-3.04678
-0.184911
-3.04678
-1.32325
0.0398737
1.32325
0.0484769
-5.81517
0.249519
-5.81517
-11.1907
0.0929488
-11.1526
-6.1066
-6.1066
2.33378
11.1262
-2.88801
0.0205443
2.88801
0.0265881
2.97578
0.0530116
-2.97578
0.0552485
-2.86213
0.0628153
2.86213
0.0584017
-2.55996
0.378099
-2.55996
-1.0653
1.0653
-1.23885
0.17355
1.23885
0.237934
1.35757
-0.260552
1.35757
1.16229
0.0370381
-1.16229
0.066128
-3.67116
-0.0990358
-3.67116
6.51602
-0.231268
6.51602
-2.941
-0.105781
2.941
-0.0562963
-0.0332964
11.1477
-5.13985
0.0337543
5.13985
-11.2088
11.2426
-3.23418
0.674216
3.23418
0.953202
5.28781
0.27784
-5.28781
0.290643
6.70073
0.0585502
-6.70073
0.110109
-2.53286
-0.489548
-2.53286
-5.01049
-0.584621
5.01049
-0.729756
-11.4751
-0.204155
11.6793
-11.4174
6.01933
0.137736
-6.01933
11.3803
-1.00897
-0.0880465
1.00897
0.0563349
1.67914
-0.321572
1.67914
3.58722
-0.16713
-3.58722
-0.0839375
-6.66607
-0.0895488
6.66607
-0.150056
-2.09185
-0.441012
2.09185
-0.412714
-4.267
4.30513
1.90932
-2.48136
-2.30275
-5.01547
1.8519
1.90138
4.3016
-10.165
-5.99553
-9.94775
7.26562
-6.97498
-9.26904
9.17829
7.66313
-7.78814
-5.78523
5.83158
6.48239
-6.44115
1.87872
1.87476
7.91393
-7.69701
-15.6684
15.2862
7.48139
-7.39609
15.8374
-15.8647
-17.8997
17.9583
-5.7122
5.81342
-6.72659
6.72407
-6.95014
6.89385
-3.28831
-3.61743
13.1242
-12.9586
8.3653
-8.35254
-8.52923
8.92418
3.38248
0.922649
3.42914
-1.88225
3.76097
-1.87139
3.78071
2.6593
-5.9476
2.88634
-5.1891
3.99365
4.37165
-3.9787
-1.03678
-5.92017
5.94975
-5.8202
5.8786
8.98349
-9.04816
-1.88518
3.75994
-1.86883
3.77021
-3.42512
-2.36012
3.37956
0.922035
8.04867
5.07549
-8.26692
-1.68082
-7.91958
7.75245
-8.18102
7.9961
-0.440672
5.81949
-5.37882
4.42344
-1.55809
7.37758
5.70753
5.92254
5.86624
-5.5884
1.10874
-6.48755
-6.39751
-2.50535
2.61364
2.43875
-2.31271
6.00312
1.66001
5.84956
-5.61714
-2.17101
-5.71617
3.82105
2.01053
3.87012
4.07706
2.40533
4.11733
3.03086
-3.03573
0.0048667
-3.05634
6.0872
0.724216
-5.41646
-4.49442
4.94982
2.96411
5.12316
-5.48713
-2.20989
-5.13725
-9.56033
-6.10807
-10.145
10.1204
5.16585
9.81292
-12.0054
11.8554
4.77472
2.70666
4.82245
-4.90533
-2.49076
-4.82407
11.6561
-2.59824
-9.05784
-10.3504
-7.54931
10.3268
5.51062
10.9738
6.98445
11.0839
4.43527
7.22081
-9.9459
2.39659
-3.86613
-1.84607
-3.79061
3.68476
2.12865
3.79655
-4.21324
-2.51335
-4.19269
-4.28854
-2.66161
4.30325
2.42082
-4.40323
-3.77779
4.50901
2.38484
4.13465
-10.1302
4.43796
-8.05539
-9.21828
-3.74036
-9.07153
3.57698
2.66193
-6.23891
-2.37062
8.59649
-4.22485
7.55972
-5.07286
-3.27968
-5.07423
-6.8186
-1.71062
-6.67459
-8.88449
8.39494
-9.19302
8.54108
12.6126
-5.69112
-6.92153
-3.96826
-2.47289
3.92052
-0.491375
-3.71095
3.71582
0.0500165
3.83073
4.75338
4.262
-3.88673
-1.93347
-3.83148
3.83115
2.04745
3.89396
6.76773
2.21576
6.77306
-6.47172
-2.57644
-6.60724
9.07181
-8.66928
2.89376
-2.85388
5.33031
2.66579
-5.14191
-2.77767
6.19936
-3.16975
-3.02961
-12.2061
10.5545
1.65161
-4.82853
-0.405086
-0.171717
-5.49835
-3.77069
5.38316
0.539382
11.0939
7.3232
-5.51207
5.76159
6.16723
6.22432
-0.173197
5.8333
-5.15909
5.32215
-2.46059
-2.86156
5.33107
-5.50346
-1.27616
-5.37343
4.09727
0.346095
1.70579
-1.45184
-1.95947
-0.545879
-1.89334
1.46743
0.97132
1.60212
0.950096
1.66355
-2.95539
0.555482
2.39991
-2.0053
-1.75722
-3.70188
-1.07704
4.77892
5.62244
2.13001
-5.5385
-0.177669
2.64723
-2.60324
-0.744808
-2.95707
2.16654
-2.91135
-3.68063
-1.90422
5.58485
-3.3706
-0.460882
3.31759
0.552528
-3.82573
-2.09445
3.78651
0.330817
-3.12543
6.19049
-3.06507
-5.0589
2.5285
3.5587
4.53903
-4.78991
2.44663
2.34328
-1.23121
4.22833
0.894829
4.36319
-6.79341
4.58352
5.75509
3.16909
-6.07283
0.935577
-5.85783
8.47418
-7.30276
-1.17142
4.08171
4.39247
7.13007
5.48258
-5.70214
12.8322
-1.17183
-6.13093
7.02966
-3.86057
4.79725
-8.65781
-10.2798
4.14889
-9.19625
10.9842
-1.78798
-3.63439
-8.37106
12.8306
-1.21059
-11.62
8.60233
-4.16074
-4.25893
8.41967
-6.75898
6.74969
-1.94341
-4.80627
-10.1468
-5.71793
10.2363
1.61906
-9.85265
12.2492
-2.63184
4.10062
0.721833
4.10042
3.23014
-5.40262
2.17248
3.52884
-5.47226
2.05089
-7.45351
-6.78229
12.129
-5.34668
-10.5226
-9.57446
-0.948192
2.51657
9.73267
-9.50102
7.42036
2.08067
3.30872
0.585243
-3.37679
-0.413821
0.25183
4.53199
-4.78382
4.04838
4.20565
3.33663
1.19536
3.8412
2.10855
-3.86779
-0.324903
-4.15508
1.49347
-1.73426
-3.67639
5.16986
-4.06416
0.387773
-2.73804
-3.50919
6.24723
-4.58411
3.03917
3.15132
5.08663
-4.91294
1.40375
-2.39914
-2.5138
2.66041
-4.39467
1.97478
3.19508
4.35962
0.581831
5.95006
6.17891
-8.61199
0.556596
11.2544
-9.57358
2.49961
8.58434
-9.91996
0.345508
-8.72602
1.06022
-5.28507
-5.17869
5.12452
-6.83515
-3.53329
6.1606
0.612459
-6.2429
-0.431689
-6.03494
-2.84955
-6.47595
-3.0555
-6.13752
-8.75764
-1.65103
-7.1066
6.7439
-6.68985
-3.45511
7.4196
1.12147
-7.4105
7.32245
-7.48577
7.1642
0.0949002
3.62092
4.3569
1.88401
-2.3897
4.27372
-5.10454
7.3203
-8.61135
3.50681
4.06304
-6.63948
-4.54831
5.03434
4.03747
5.33688
8.9278
-10.4449
1.51712
-10.7362
12.057
-1.3208
-16.5119
5.77573
-7.58413
2.58985
0.303908
2.62632
0.612731
2.48085
-3.09358
-2.24115
-2.19267
-2.3672
-3.46179
5.82899
1.16388
-3.4596
2.29571
-3.52578
4.68967
-0.102567
-3.35703
5.3048
-2.82395
5.60871
-3.62835
1.98036
3.37541
5.72423
-2.34882
4.38766
-1.72187
1.8518
-4.20062
-1.60999
-2.96857
5.09722
-3.27866
3.66643
-0.313396
3.97983
-4.0778
0.908048
-0.741171
3.46448
3.71721
4.28255
-3.08718
2.94769
-4.66955
-1.25294
-4.08772
-0.892643
-0.302917
-3.74573
4.04864
6.03133
-6.33424
-5.26016
9.56605
-4.30589
7.71803
-5.4028
-2.31523
-4.27117
-4.3981
3.89308
1.94023
9.65826
0.209426
-5.61222
-4.94966
-3.99646
3.2035
2.11865
-1.91325
3.56486
2.08497
-0.379178
0.536408
1.06571
1.84727
-1.31086
0.23999
1.60728
-1.21185
1.93726
0.709962
-1.9743
0.0809582
-1.34607
3.5126
1.05385
-2.02517
0.714301
1.0427
-3.50329
4.88205
-2.5297
-2.35235
5.92475
1.16008
-3.68978
4.21335
-3.86726
2.33989
-3.41692
-1.3499
-5.21715
-3.55714
-2.57405
4.86977
-3.25494
5.38495
1.18914
-5.20728
6.39642
-3.60851
1.70428
-3.08819
3.79815
-1.08116
-2.00703
2.84887
2.73598
-2.96974
0.0126714
-0.12087
2.34838
-2.46925
-0.562968
-2.56827
-4.57228
4.9031
-2.10677
4.5534
2.16694
-1.91506
6.46847
1.8108
-3.72587
-3.24809
-3.70897
-1.38259
3.15645
-0.577407
-4.24666
-5.38368
4.14707
0.21612
-6.8987
7.6941
-0.795404
-3.93459
-0.648932
4.73064
-5.94446
0.472205
-3.89358
3.80053
4.69536
4.91148
-11.4046
-0.215436
-6.23876
1.12922
-7.36798
5.52168
-3.57046
7.71935
-10.3832
6.92812
-9.26175
6.54793
-0.820045
6.25657
-4.08409
2.80126
-8.5192
-6.90014
5.41591
-2.70925
6.13775
-3.07858
9.21632
-5.71042
5.18056
4.03577
-0.991587
-4.08264
-5.1808
4.18921
-0.00024349
4.10018
4.97432
-2.86578
4.64942
2.2586
-4.65773
-2.13607
-6.4976
1.83986
-3.34627
-1.91707
3.75693
3.16955
3.7548
1.24313
-3.34097
7.25432
-8.20251
-1.90764
-3.27105
5.17491
-0.985697
3.38984
-6.66089
-1.89523
4.84922
-0.806717
-4.0425
0.841901
-4.37519
1.66086
-6.03605
5.17429
-5.60598
2.21506
-9.79918
-5.19544
-5.13911
-2.25198
-5.23379
-7.60384
5.35186
-1.82811
5.49434
-8.56881
7.7621
-3.48819
8.84005
-5.42842
-1.04753
5.84113
1.32307
10.1631
0.161745
-4.71005
-1.87598
3.93748
-2.06151
1.32752
-3.58398
0.353502
2.48078
3.44397
-6.57805
-0.0614376
-4.77149
-3.92201
7.95948
5.64404
11.6754
1.23045
9.1521
-1.19262
10.3825
4.14426
4.3822
-3.01931
4.53643
1.02933
4.53614
-0.847032
2.82739
1.77929
1.78288
0.820362
2.3186
1.39861
3.22665
0.133071
-2.0596
4.63725
-8.63371
-0.974969
-8.06337
1.11491
5.72543
-4.61052
3.10025
-0.981595
1.03874
0.0636689
-1.58039
1.51672
-2.79789
-1.95957
-0.352288
-1.64117
2.35547
1.87144
-2.00318
-0.79471
0.342003
-3.89914
3.07492
-3.06225
-0.326271
6.07015
-2.76721
0.29796
-1.06292
-2.27031
-2.81618
2.73523
6.17706
0.29141
3.11199
5.19451
3.10006
0.234284
3.87737
-5.66534
-3.57614
-5.88078
-0.359095
4.37154
1.7522
7.98046
5.78797
4.80227
-1.85862
-10.0611
6.55581
-2.01938
5.235
-1.1925
-4.84355
5.00717
2.31313
-5.61963
0.0136525
-4.8299
-6.84927
-0.524507
8.2866
-9.63861
8.59108
5.74153
1.36507
-4.40992
-0.72919
4.23637
0.145827
10.5284
-1.12733
-6.81266
7.93999
-4.5981
3.62313
0.826237
2.73862
2.34296
1.36137
-5.4513
-10.0618
-1.94354
-1.55975
-4.2959
0.483019
-2.35446
6.25082
-2.62769
3.93558
5.31231
6.35105
-2.15939
-4.17485
6.46528
-2.5297
3.82135
)
;

boundaryField
{
    wall-4
    {
        type            calculated;
        value           uniform 0;
    }
    velocity-inlet-5
    {
        type            calculated;
        value           uniform -3.75095;
    }
    velocity-inlet-6
    {
        type            calculated;
        value           uniform -5.62643;
    }
    pressure-outlet-7
    {
        type            calculated;
        value           nonuniform List<scalar> 8(3.03334 7.34053 3.89937 9.727 7.97425 5.08911 6.31201 9.13772);
    }
    wall-8
    {
        type            calculated;
        value           uniform 0;
    }
    frontAndBackPlanes
    {
        type            empty;
        value           nonuniform 0();
    }
}


// ************************************************************************* //
