/*--------------------------------*- C++ -*----------------------------------*\
| =========                 |                                                 |
| \\      /  F ield         | OpenFOAM: The Open Source CFD Toolbox           |
|  \\    /   O peration     | Version:  4.0                                   |
|   \\  /    A nd           | Web:      www.OpenFOAM.org                      |
|    \\/     M anipulation  |                                                 |
\*---------------------------------------------------------------------------*/
FoamFile
{
    version     2.0;
    format      ascii;
    class       volScalarField;
    location    "28";
    object      p;
}
// * * * * * * * * * * * * * * * * * * * * * * * * * * * * * * * * * * * * * //

dimensions      [0 2 -2 0 0 0 0];

internalField   nonuniform List<scalar> 
2200
(
0.592187
0.570687
0.554779
0.539109
0.524497
0.51197
0.501605
0.493486
0.48775
0.484695
0.485054
0.488729
0.494929
0.503374
0.513968
0.52668
0.541407
0.557212
0.573195
0.594707
0.524627
0.521369
0.518443
0.514324
0.508858
0.502378
0.495744
0.489755
0.485209
0.482723
0.483078
0.486223
0.491265
0.497621
0.504517
0.511173
0.516791
0.520926
0.523831
0.527145
0.48474
0.484961
0.487018
0.488354
0.488736
0.487877
0.485867
0.483139
0.480511
0.478927
0.479327
0.481622
0.484784
0.487905
0.49018
0.491169
0.490879
0.489792
0.488
0.487757
0.462249
0.463704
0.466297
0.468744
0.471191
0.473202
0.47435
0.474575
0.474141
0.473719
0.474183
0.475402
0.476439
0.476665
0.475876
0.474134
0.471886
0.469596
0.466998
0.465575
0.447927
0.449889
0.452724
0.455587
0.45845
0.461265
0.463716
0.465546
0.466731
0.467405
0.467949
0.468208
0.467751
0.466473
0.464448
0.461953
0.459302
0.456511
0.453703
0.451779
0.440791
0.442388
0.444593
0.447117
0.449761
0.452399
0.454917
0.457244
0.459148
0.460469
0.461106
0.460904
0.459877
0.458206
0.456157
0.453886
0.45149
0.449108
0.446981
0.445402
0.437483
0.438506
0.439782
0.44166
0.443809
0.445955
0.448071
0.450255
0.452327
0.453969
0.454741
0.45448
0.453458
0.452043
0.450495
0.448756
0.446916
0.445239
0.444067
0.443054
0.434888
0.435531
0.4362
0.437576
0.439265
0.440991
0.44273
0.444582
0.446496
0.44824
0.449174
0.449109
0.448477
0.447585
0.446541
0.445347
0.444062
0.442951
0.442404
0.441757
0.432072
0.432494
0.432942
0.434016
0.435356
0.436781
0.438263
0.439838
0.441496
0.443152
0.444289
0.444673
0.444571
0.444198
0.443594
0.44282
0.441936
0.441177
0.440873
0.440442
0.428558
0.428847
0.429259
0.430249
0.431497
0.432883
0.434359
0.435881
0.437438
0.439051
0.440476
0.441394
0.441767
0.441697
0.441297
0.440674
0.43999
0.439379
0.439126
0.438832
0.424243
0.424406
0.424818
0.425838
0.427174
0.428735
0.430485
0.432323
0.434187
0.436061
0.437845
0.439085
0.439641
0.439578
0.439149
0.438554
0.437917
0.43734
0.437095
0.43692
0.41965
0.419716
0.420119
0.421121
0.422481
0.424138
0.426085
0.428279
0.43067
0.433131
0.435302
0.436661
0.437198
0.437204
0.436906
0.436453
0.435918
0.435452
0.435258
0.435176
0.415117
0.415119
0.415519
0.416418
0.4177
0.41929
0.421167
0.423397
0.426079
0.429049
0.431732
0.433561
0.434558
0.435089
0.43521
0.435035
0.434735
0.434462
0.434335
0.434304
0.4107
0.410596
0.41097
0.411745
0.413038
0.414596
0.416429
0.418662
0.421434
0.424765
0.428129
0.430809
0.432672
0.433812
0.434378
0.434595
0.434612
0.434554
0.434492
0.434474
0.406055
0.405989
0.406318
0.40709
0.408546
0.410206
0.412278
0.414845
0.418007
0.421876
0.425997
0.429423
0.431859
0.433447
0.43447
0.43505
0.435332
0.435435
0.435444
0.435429
0.401036
0.401041
0.401321
0.402124
0.403604
0.405494
0.407953
0.411113
0.415046
0.419847
0.424933
0.429097
0.432023
0.434037
0.435449
0.43632
0.436811
0.43707
0.437158
0.437145
0.395136
0.395097
0.395468
0.39633
0.39778
0.399814
0.402596
0.40631
0.411105
0.417094
0.423472
0.428738
0.432508
0.435213
0.437132
0.438396
0.439186
0.439638
0.439794
0.439762
0.3878
0.387734
0.388133
0.38912
0.390732
0.393014
0.396186
0.400502
0.40623
0.413554
0.421529
0.428247
0.433208
0.436824
0.439405
0.441191
0.442368
0.443036
0.443271
0.443217
0.37892
0.378847
0.379278
0.380408
0.382353
0.385159
0.389064
0.394374
0.401394
0.410359
0.420185
0.428493
0.434713
0.439256
0.442557
0.444883
0.446451
0.447315
0.447608
0.447529
0.368123
0.368066
0.36864
0.370072
0.372514
0.376078
0.381056
0.387776
0.396617
0.407743
0.419732
0.429822
0.437342
0.442867
0.446863
0.449662
0.451541
0.45256
0.452923
0.452831
0.354921
0.354828
0.355563
0.357398
0.360548
0.365133
0.37148
0.380064
0.391236
0.405063
0.419685
0.431923
0.440967
0.447635
0.452395
0.455761
0.458028
0.45924
0.459664
0.459543
0.338222
0.338164
0.33919
0.34162
0.345734
0.351706
0.359981
0.370985
0.385049
0.402145
0.419913
0.434653
0.445517
0.453524
0.4593
0.463387
0.466069
0.467492
0.467992
0.467842
0.317304
0.317178
0.31858
0.321876
0.327429
0.335502
0.346429
0.360643
0.378353
0.399335
0.420735
0.438335
0.451307
0.460826
0.467724
0.472629
0.475868
0.477584
0.478161
0.477952
0.289793
0.289921
0.292212
0.297011
0.304883
0.316043
0.330719
0.349211
0.371408
0.396972
0.422515
0.443249
0.458477
0.469681
0.47786
0.483687
0.487516
0.489509
0.490157
0.48991
0.253227
0.253613
0.257425
0.26518
0.276961
0.292952
0.312919
0.336796
0.364421
0.395302
0.425402
0.449512
0.467164
0.480179
0.489745
0.496639
0.501207
0.503594
0.504324
0.503956
0.20443
0.204969
0.212301
0.225184
0.243343
0.266372
0.293125
0.323631
0.357598
0.394359
0.429329
0.456997
0.477229
0.492191
0.503308
0.511413
0.516816
0.519494
0.52018
0.519734
0.138885
0.141903
0.15769
0.179485
0.20641
0.237565
0.272183
0.310218
0.351283
0.394674
0.435272
0.467249
0.490791
0.50844
0.521722
0.531688
0.538591
0.541799
0.542405
0.542139
0.0633268
0.0736449
0.100302
0.131946
0.168614
0.208669
0.251363
0.297202
0.345648
0.3961
0.442937
0.479931
0.507556
0.5286
0.544798
0.557102
0.566228
0.570601
0.571634
0.571949
-0.00307346
0.0128311
0.0461498
0.0860262
0.131811
0.18046
0.231275
0.28486
0.340549
0.397875
0.450744
0.492462
0.523566
0.547366
0.565772
0.579944
0.590081
0.595794
0.597593
0.597591
-0.0527374
-0.0386915
-0.000156403
0.0455012
0.0983079
0.154067
0.212207
0.272996
0.33561
0.399603
0.458085
0.50392
0.537809
0.563733
0.583936
0.599497
0.610253
0.616078
0.617846
0.617974
-0.0936341
-0.0805578
-0.03872
0.0107528
0.068812
0.13021
0.19459
0.261779
0.330716
0.400756
0.464242
0.513506
0.549796
0.577201
0.598019
0.613896
0.625194
0.631248
0.633301
0.633468
-0.128956
-0.115607
-0.0714512
-0.0191645
0.0429125
0.108853
0.178441
0.251081
0.325516
0.400894
0.469005
0.521469
0.559537
0.587633
0.609062
0.62535
0.636862
0.643289
0.64552
0.645693
-0.159812
-0.146342
-0.100253
-0.0456187
0.0197813
0.0895101
0.163443
0.240688
0.319977
0.400326
0.472594
0.527594
0.5669
0.596039
0.617881
0.63426
0.646348
0.652929
0.655387
0.65552
-0.187666
-0.174146
-0.126414
-0.069597
-0.00128765
0.0716203
0.149221
0.230487
0.31417
0.399096
0.475146
0.532518
0.573375
0.60318
0.625472
0.64217
0.65402
0.660979
0.663205
0.663062
-0.213161
-0.199686
-0.150699
-0.0917721
-0.020856
0.0547521
0.135512
0.220339
0.307941
0.396859
0.476462
0.536473
0.578991
0.609725
0.632438
0.64932
0.661037
0.667717
0.670074
0.669962
-0.237243
-0.223479
-0.173527
-0.112587
-0.0393147
0.0386387
0.12212
0.210039
0.301088
0.39373
0.477296
0.540356
0.584366
0.616032
0.639155
0.65601
0.667719
0.67431
0.67665
0.676654
-0.259872
-0.245952
-0.195224
-0.132453
-0.0571323
0.0229619
0.108866
0.199507
0.293749
0.390263
0.477772
0.543716
0.589738
0.622472
0.645855
0.662771
0.674495
0.680881
0.683305
0.683301
-0.28126
-0.267377
-0.215985
-0.151663
-0.0746003
0.00748158
0.0956211
0.188752
0.285923
0.385882
0.477028
0.546377
0.594899
0.628669
0.652711
0.669784
0.681512
0.68783
0.69006
0.69006
-0.301883
-0.287799
-0.235999
-0.17042
-0.0919006
-0.00797859
0.0822672
0.177686
0.277542
0.380849
0.476288
0.549152
0.599793
0.635158
0.659928
0.677158
0.688764
0.694795
0.696988
0.696919
-0.322207
-0.307505
-0.255392
-0.188771
-0.109049
-0.0234758
0.0687074
0.166282
0.268739
0.37532
0.474252
0.55045
0.604364
0.641983
0.667658
0.684994
0.696229
0.702066
0.703912
0.70375
-0.342212
-0.32672
-0.274283
-0.206709
-0.125979
-0.0389785
0.0549459
0.154544
0.259255
0.368413
0.47062
0.551156
0.60867
0.648898
0.676108
0.69362
0.704171
0.709138
0.710676
0.710421
-0.361779
-0.345536
-0.292687
-0.224198
-0.142608
-0.0544065
0.0409979
0.142283
0.248953
0.360612
0.466594
0.55101
0.612427
0.656038
0.685454
0.703442
0.71281
0.716485
0.717098
0.716837
-0.380724
-0.363943
-0.310601
-0.241208
-0.15885
-0.069683
0.0268978
0.129623
0.238147
0.352126
0.460788
0.548967
0.615148
0.663108
0.695776
0.715264
0.7235
0.723248
0.722473
0.722983
-0.399028
-0.381844
-0.327972
-0.257715
-0.174662
-0.0847119
0.012826
0.116771
0.226758
0.342554
0.453751
0.546381
0.61694
0.66968
0.706952
0.729403
0.737842
0.733154
0.727862
0.725618
-0.416651
-0.399151
-0.34476
-0.273708
-0.190005
-0.0993888
-0.00110457
0.103744
0.214931
0.332335
0.445959
0.541554
0.61655
0.675341
0.718655
0.746398
0.759198
0.748973
0.744368
0.749079
-0.433608
-0.415791
-0.360905
-0.289153
-0.20486
-0.113683
-0.0148151
0.0907332
0.202925
0.321743
0.437165
0.535036
0.614336
0.678738
0.729327
0.765136
0.786783
0.766369
0.721944
0.678661
-0.449831
-0.431776
-0.376448
-0.304132
-0.219362
-0.127737
-0.0284249
0.077639
0.190534
0.310452
0.426913
0.526485
0.608881
0.678878
0.73752
0.784511
0.821498
0.827053
0.845758
0.897021
-0.465286
-0.447158
-0.391476
-0.318776
-0.233693
-0.141789
-0.0422267
0.0640944
0.177308
0.297565
0.414594
0.515289
0.599453
0.673142
0.735527
0.784764
0.81464
0.814008
0.783939
0.792796
-0.479939
-0.461907
-0.405943
-0.333024
-0.247772
-0.155752
-0.0561193
0.0501984
0.163313
0.283431
0.400712
0.501164
0.584426
0.657454
0.718506
0.763491
0.766273
0.724763
0.667446
0.657824
-0.493812
-0.476022
-0.419846
-0.346864
-0.261582
-0.169627
-0.0701256
0.0359212
0.148563
0.268119
0.384587
0.4835
0.563993
0.630923
0.684671
0.702816
0.673881
0.604407
0.533385
0.519491
-0.50694
-0.489495
-0.4332
-0.360315
-0.275141
-0.183432
-0.0842578
0.0212631
0.133103
0.251472
0.366434
0.462908
0.537156
0.591232
0.620787
0.612739
0.564546
0.465529
0.379641
0.361968
-0.51978
-0.502746
-0.446403
-0.373741
-0.288793
-0.197467
-0.0987819
0.006011
0.116741
0.233464
0.346075
0.438601
0.506149
0.543955
0.539228
0.505861
0.401857
0.281044
0.174614
0.151063
-0.533222
-0.516548
-0.46015
-0.387769
-0.303113
-0.212206
-0.114095
-0.0101752
0.0992371
0.21386
0.323237
0.4109
0.470817
0.485648
0.449079
0.364164
0.207828
0.0554755
-0.0721313
-0.097266
-0.547773
-0.531338
-0.474761
-0.40263
-0.318271
-0.227762
-0.130265
-0.0272934
0.0806159
0.192658
0.298005
0.379969
0.428113
0.416706
0.35777
0.208217
0.00390397
-0.212319
-0.394282
-0.440459
-0.563511
-0.547159
-0.490285
-0.418348
-0.334248
-0.244098
-0.147231
-0.0453032
0.0609363
0.170073
0.270491
0.346866
0.37984
0.336806
0.243999
0.0488589
-0.192373
-0.491116
-0.821075
-0.964223
-0.580497
-0.564151
-0.506822
-0.434989
-0.351077
-0.261258
-0.16504
-0.0642269
0.0402297
0.146212
0.240763
0.310923
0.327074
0.250849
0.107503
-0.111014
-0.359776
-0.720428
-1.32672
-1.90883
-0.598746
-0.582313
-0.524425
-0.452608
-0.368775
-0.27923
-0.183638
-0.0839721
0.0186001
0.121278
0.209992
0.272334
0.272318
0.174208
-0.025736
-0.278298
-0.498726
-0.755853
-1.34784
-2.93592
-0.618293
-0.601779
-0.543166
-0.471309
-0.38748
-0.298196
-0.203261
-0.104836
-0.00428021
0.0951258
0.178116
0.231221
0.211869
0.112606
-0.126167
-0.390482
-0.554183
-0.609414
-0.62607
-1.02947
-0.639043
-0.622536
-0.563206
-0.49138
-0.407564
-0.318623
-0.22449
-0.127486
-0.0292343
0.0662359
0.143566
0.18648
0.149628
0.0640749
-0.176908
-0.409261
-0.538951
-0.557349
-0.512421
-0.557141
-0.660988
-0.644488
-0.58452
-0.51286
-0.429076
-0.340601
-0.247428
-0.152079
-0.0565276
0.0345756
0.107319
0.140494
0.0938564
0.0101209
-0.214796
-0.401454
-0.497777
-0.508533
-0.554309
-0.565225
-0.683999
-0.667346
-0.607072
-0.535746
-0.451955
-0.364099
-0.272066
-0.178537
-0.0859345
0.000598537
0.0686048
0.0930435
0.0430272
-0.0514333
-0.24657
-0.392217
-0.478689
-0.443939
-0.469489
-0.471695
-0.707856
-0.690809
-0.630759
-0.559912
-0.476038
-0.389002
-0.298246
-0.206701
-0.117288
-0.0355549
0.0274738
0.0424084
-0.000902437
-0.121845
-0.284658
-0.390826
-0.450538
-0.48388
-0.465723
-0.472434
-0.731991
-0.714611
-0.655591
-0.58513
-0.501038
-0.415042
-0.325689
-0.236263
-0.150398
-0.0731661
-0.0143529
-0.0110122
-0.0443155
-0.187076
-0.327206
-0.401734
-0.40075
-0.463662
-0.438906
-0.447204
-0.755943
-0.738522
-0.681015
-0.610815
-0.52666
-0.441958
-0.354051
-0.26676
-0.184742
-0.112041
-0.0563471
-0.0635637
-0.0943974
-0.239337
-0.364129
-0.437855
-0.404019
-0.440758
-0.437495
-0.43963
-0.779217
-0.762204
-0.706206
-0.636308
-0.552518
-0.469207
-0.382725
-0.297638
-0.219689
-0.151441
-0.0968665
-0.11444
-0.156248
-0.287301
-0.380854
-0.442809
-0.458802
-0.443139
-0.448297
-0.443217
-0.801126
-0.784833
-0.730125
-0.660769
-0.578249
-0.496263
-0.411192
-0.328143
-0.254057
-0.191046
-0.135277
-0.163446
-0.222784
-0.332974
-0.385905
-0.418884
-0.485362
-0.439827
-0.452445
-0.443417
-0.820733
-0.805515
-0.752235
-0.683639
-0.6032
-0.522191
-0.438466
-0.357516
-0.286376
-0.22974
-0.172311
-0.209168
-0.296724
-0.395376
-0.401985
-0.343533
-0.439675
-0.407036
-0.442578
-0.438346
-0.836923
-0.823099
-0.771661
-0.704226
-0.626119
-0.545938
-0.463699
-0.384611
-0.3157
-0.265965
-0.207705
-0.247487
-0.37417
-0.468789
-0.432201
-0.314162
-0.363681
-0.396189
-0.423118
-0.43597
-0.84862
-0.836593
-0.787745
-0.721811
-0.645627
-0.566493
-0.48578
-0.408233
-0.340353
-0.296845
-0.24268
-0.272109
-0.450947
-0.617891
-0.676042
-0.672635
-0.673492
-0.663682
-0.65352
-0.64313
-0.854816
-0.844768
-0.79906
-0.73492
-0.660352
-0.58252
-0.503287
-0.4272
-0.359567
-0.318323
-0.27558
-0.288751
-0.512598
-0.834957
-1.24649
-1.44705
-1.47725
-1.43727
-1.3516
-1.27548
-0.854669
-0.846525
-0.804578
-0.74233
-0.669295
-0.593075
-0.515092
-0.439455
-0.371317
-0.326747
-0.294256
-0.293374
-0.526937
-0.916088
-1.46639
-1.77989
-1.82987
-1.72747
-1.62678
-1.54307
-0.847112
-0.840001
-0.802395
-0.74288
-0.671739
-0.596802
-0.519604
-0.443568
-0.371925
-0.319577
-0.286182
-0.268514
-0.418534
-0.615855
-0.869982
-0.980148
-0.9227
-0.8244
-0.693076
-0.613727
-0.829543
-0.822387
-0.790916
-0.735463
-0.666766
-0.593016
-0.516008
-0.438538
-0.3606
-0.293256
-0.243575
-0.163609
-0.120626
0.0511648
0.222855
0.385663
0.548293
0.658829
0.724194
0.765318
-0.797444
-0.790819
-0.768586
-0.71989
-0.654422
-0.581828
-0.504481
-0.424041
-0.337802
-0.249294
-0.170945
-0.0205314
0.193449
0.574746
0.973233
1.29825
1.52826
1.6689
1.73685
1.76053
-0.750852
-0.74615
-0.737462
-0.697224
-0.635598
-0.563749
-0.486082
-0.40275
-0.310729
-0.203203
-0.0956994
0.0525129
0.363362
0.773263
1.1892
1.54354
1.80552
1.96306
2.03232
2.04968
-0.710874
-0.709892
-0.706057
-0.671483
-0.613873
-0.543159
-0.464405
-0.379934
-0.287499
-0.173983
-0.0563163
0.0472839
0.316622
0.658811
1.00058
1.29372
1.52378
1.66479
1.73085
1.75096
-0.680227
-0.682343
-0.675591
-0.646223
-0.590022
-0.521152
-0.443725
-0.360917
-0.273737
-0.173191
-0.0652689
0.00610986
0.191978
0.457907
0.725714
0.942633
1.1132
1.22729
1.28226
1.30051
-0.638233
-0.640458
-0.637356
-0.614565
-0.561374
-0.496601
-0.424103
-0.346537
-0.26816
-0.186139
-0.0887654
-0.0316643
0.0845994
0.289793
0.504579
0.669233
0.795752
0.887171
0.928667
0.939597
-0.580082
-0.581539
-0.582172
-0.565406
-0.52116
-0.46555
-0.402922
-0.334829
-0.266551
-0.199431
-0.114141
-0.0629992
0.0022538
0.152338
0.319567
0.441071
0.531178
0.597187
0.626766
0.632855
-0.502763
-0.504543
-0.505139
-0.494178
-0.463109
-0.422865
-0.374507
-0.319816
-0.26115
-0.205537
-0.134834
-0.0880827
-0.0514238
0.0560798
0.178693
0.26284
0.327308
0.373899
0.395659
0.402765
-0.415964
-0.417601
-0.417888
-0.411409
-0.39383
-0.369105
-0.335973
-0.297242
-0.248438
-0.205186
-0.149981
-0.107575
-0.0875648
-0.00524934
0.0813011
0.136023
0.185277
0.222075
0.238273
0.24366
-0.335799
-0.336988
-0.337611
-0.334838
-0.326769
-0.313722
-0.294205
-0.270207
-0.232713
-0.201806
-0.161503
-0.124127
-0.112386
-0.0470522
0.0164222
0.0552191
0.088827
0.113767
0.127694
0.132268
-0.273966
-0.27469
-0.275541
-0.275587
-0.273437
-0.268132
-0.258128
-0.244635
-0.218999
-0.196715
-0.16756
-0.141454
-0.128665
-0.0791156
-0.0365907
-0.00478848
0.0188335
0.0329607
0.0399713
0.0411496
-0.233715
-0.234226
-0.235323
-0.237
-0.238335
-0.23753
-0.232793
-0.225302
-0.208899
-0.190578
-0.168547
-0.154198
-0.140758
-0.1076
-0.0774454
-0.0543126
-0.0385699
-0.0327577
-0.0322874
-0.0328232
-0.211443
-0.211804
-0.212905
-0.215017
-0.217818
-0.219161
-0.217266
-0.212865
-0.200624
-0.184606
-0.165274
-0.15585
-0.147581
-0.125173
-0.103011
-0.0897018
-0.0828223
-0.0802357
-0.0812892
-0.0831178
-0.202112
-0.202258
-0.203021
-0.204857
-0.207544
-0.209351
-0.208653
-0.206182
-0.193698
-0.179238
-0.156953
-0.147616
-0.141802
-0.128722
-0.114728
-0.108245
-0.105725
-0.104481
-0.105848
-0.10883
-0.202841
-0.202734
-0.202956
-0.203988
-0.205645
-0.206645
-0.205193
-0.201378
-0.191522
-0.176911
-0.147218
-0.132361
-0.12743
-0.122491
-0.114645
-0.112909
-0.115558
-0.122665
-0.125825
-0.127194
-0.212979
-0.212602
-0.212271
-0.212297
-0.212681
-0.212054
-0.209798
-0.203068
-0.191698
-0.176119
-0.149456
-0.116267
-0.11157
-0.110237
-0.111309
-0.115593
-0.116916
-0.12347
-0.127031
-0.126754
-0.233441
-0.232622
-0.231915
-0.230367
-0.229726
-0.227774
-0.224677
-0.216959
-0.205453
-0.185693
-0.149424
-0.120007
-0.103553
-0.112171
-0.106759
-0.105081
-0.0931224
-0.0807363
-0.0804126
-0.0812428
-0.262144
-0.261392
-0.260673
-0.259401
-0.257975
-0.255139
-0.251857
-0.244562
-0.235348
-0.214999
-0.17891
-0.143544
-0.123949
-0.131685
-0.101792
-0.0844031
-0.0616036
-0.0351856
-0.0231855
-0.0349143
-0.300081
-0.299291
-0.298683
-0.297683
-0.296546
-0.29491
-0.293775
-0.29118
-0.288855
-0.275214
-0.239628
-0.19497
-0.184661
-0.180128
-0.137098
-0.099279
-0.0760172
-0.0613697
-0.0474087
-0.0562646
-0.347046
-0.346411
-0.345977
-0.345766
-0.346095
-0.34772
-0.352304
-0.360514
-0.371128
-0.371416
-0.33081
-0.263642
-0.249456
-0.235172
-0.198399
-0.164075
-0.137881
-0.137218
-0.128051
-0.127489
-0.39882
-0.398666
-0.399055
-0.400256
-0.403527
-0.41099
-0.425865
-0.451043
-0.481335
-0.507478
-0.465422
-0.357714
-0.317631
-0.283659
-0.245339
-0.213806
-0.172639
-0.161937
-0.172983
-0.168606
-0.447648
-0.448118
-0.449775
-0.453248
-0.46094
-0.476962
-0.507311
-0.556699
-0.623573
-0.68798
-0.64619
-0.49911
-0.426546
-0.361131
-0.295113
-0.249609
-0.216226
-0.192929
-0.208024
-0.208561
-0.481131
-0.48257
-0.485948
-0.492279
-0.505246
-0.531254
-0.579501
-0.659519
-0.782209
-0.880566
-0.83943
-0.669198
-0.565971
-0.461417
-0.374374
-0.310186
-0.301505
-0.288647
-0.28619
-0.287012
-0.487465
-0.489398
-0.493487
-0.503133
-0.519846
-0.553158
-0.614978
-0.718948
-0.872618
-1.01187
-1.01066
-0.796789
-0.666525
-0.527048
-0.43693
-0.38133
-0.348978
-0.36605
-0.355029
-0.354698
-0.455775
-0.458028
-0.46125
-0.469425
-0.489307
-0.526725
-0.591925
-0.701458
-0.867361
-1.03429
-1.03245
-0.829006
-0.662649
-0.53443
-0.442349
-0.410967
-0.384717
-0.388692
-0.386302
-0.385829
-0.393105
-0.395342
-0.398896
-0.406258
-0.422227
-0.45491
-0.513954
-0.614167
-0.761848
-0.906948
-0.906377
-0.725526
-0.561702
-0.495351
-0.449687
-0.395995
-0.409408
-0.398474
-0.395041
-0.393077
-0.301934
-0.303486
-0.306301
-0.311321
-0.322586
-0.347043
-0.393998
-0.473259
-0.586966
-0.68987
-0.674713
-0.530485
-0.434212
-0.41335
-0.404505
-0.383139
-0.379055
-0.370208
-0.364145
-0.361735
-0.20352
-0.204372
-0.206049
-0.208867
-0.215739
-0.23125
-0.260993
-0.310674
-0.383385
-0.450936
-0.416771
-0.30723
-0.293627
-0.306291
-0.303015
-0.32279
-0.300035
-0.295566
-0.290677
-0.288461
-0.108154
-0.108562
-0.108981
-0.109939
-0.112783
-0.119964
-0.134477
-0.163007
-0.205287
-0.241478
-0.204611
-0.149429
-0.154017
-0.161822
-0.185835
-0.197676
-0.186825
-0.184067
-0.182578
-0.181155
-0.0261711
-0.0257732
-0.0245721
-0.0228497
-0.0219304
-0.0227234
-0.0252824
-0.0317776
-0.0385524
-0.0471315
-0.0727876
-0.0905321
-0.0827988
-0.0648526
-0.0744511
-0.0668216
-0.0581258
-0.0573475
-0.05739
-0.057102
-1.31842
-0.44535
-0.172712
0.113412
0.305714
0.472035
0.611079
0.752208
0.903195
0.98028
-0.309522
0.113253
0.138557
0.333256
0.466971
0.586486
0.690278
0.781685
0.811919
0.767943
0.0898739
0.312749
0.354776
0.494791
0.587385
0.672563
0.742838
0.795194
0.799107
0.811608
0.330731
0.48239
0.518722
0.626787
0.685467
0.747231
0.794337
0.827819
0.837697
0.860823
0.519787
0.623581
0.65388
0.727035
0.771528
0.8154
0.848842
0.873745
0.884126
0.915215
0.66543
0.73782
0.768325
0.814134
0.851113
0.882539
0.907728
0.928733
0.943378
0.971316
0.787721
0.840112
0.866309
0.895664
0.924397
0.948887
0.969406
0.988901
1.00408
1.03036
0.893261
0.931683
0.953176
0.974503
0.996092
1.01602
1.03371
1.05203
1.06699
1.0906
0.98879
1.01787
1.03517
1.05093
1.06757
1.08396
1.09969
1.11677
1.13037
1.15267
1.07785
1.09876
1.11397
1.12743
1.14127
1.15523
1.1688
1.18343
1.19496
1.21462
1.16424
1.18014
1.19413
1.20613
1.21819
1.22987
1.241
1.2527
1.26036
1.27718
1.24982
1.26277
1.27658
1.28826
1.29884
1.30858
1.31735
1.3256
1.32917
1.34046
1.33919
1.35018
1.36366
1.37287
1.3803
1.38749
1.39468
1.40124
1.40225
1.40968
1.43763
1.44237
1.45041
1.4549
1.45817
1.46264
1.46864
1.47641
1.48023
1.49012
1.55095
1.53724
1.52979
1.52417
1.5215
1.52291
1.52941
1.54181
1.55657
1.58622
1.67185
1.61612
1.58527
1.5682
1.56005
1.56004
1.56873
1.58824
1.62025
1.68943
)
;

boundaryField
{
    wall-4
    {
        type            zeroGradient;
    }
    pressure-outlet-7
    {
        type            fixedValue;
        value           uniform 0;
    }
    velocity-inlet-6
    {
        type            zeroGradient;
    }
    velocity-inlet-5
    {
        type            zeroGradient;
    }
    frontAndBackPlanes
    {
        type            empty;
    }
}


// ************************************************************************* //
