/*--------------------------------*- C++ -*----------------------------------*\
| =========                 |                                                 |
| \\      /  F ield         | OpenFOAM: The Open Source CFD Toolbox           |
|  \\    /   O peration     | Version:  4.0                                   |
|   \\  /    A nd           | Web:      www.OpenFOAM.org                      |
|    \\/     M anipulation  |                                                 |
\*---------------------------------------------------------------------------*/
FoamFile
{
    version     2.0;
    format      ascii;
    class       volScalarField;
    location    "0.005";
    object      p;
}
// * * * * * * * * * * * * * * * * * * * * * * * * * * * * * * * * * * * * * //

dimensions      [1 -1 -2 0 0 0 0];

internalField   nonuniform List<scalar> 
10000
(
100000
100000
100000
100000
100000
100000
100000
100000
100000
100000
100000
100000
100000
100000
100000
100000
100000
100000
100000
100000
100000
100000
100000
100000
100000
100000
100000
100000
100000
100000
100000
100000
100000
100000
100000
100000
100000
100000
100000
100000
100000
100000
100000
100000
100000
100000
100000
100000
100000
100000
100000
100000
100000
100000
100000
100000
100000
100000
100000
100000
100000
100000
100000
100000
100000
100000
100000
100000
100000
100000
100000
100000
100000
100000
100000
100000
100000
100000
100000
100000
100000
100000
100000
100000
100000
100000
100000
100000
100000
100000
100000
100000
100000
100000
100000
100000
100000
100000
100000
100000
100000
100000
100000
100000
100000
100000
100000
100000
100000
100000
100000
100000
100000
100000
100000
100000
100000
100000
100000
100000
100000
100000
100000
100000
100000
100000
100000
100000
100000
100000
100000
100000
100000
100000
100000
100000
100000
100000
100000
100000
100000
100000
100000
100000
100000
100000
100000
100000
100000
100000
100000
100000
100000
100000
100000
100000
100000
100000
100000
100000
100000
100000
100000
100000
100000
100000
100000
100000
100000
100000
100000
100000
100000
100000
100000
100000
100000
100000
100000
100000
100000
100000
100000
100000
100000
100000
100000
100000
100000
100000
100000
100000
100000
100000
100000
100000
100000
100000
100000
100000
100000
100000
100000
100000
100000
100000
100000
100000
100000
100000
100000
100000
100000
100000
100000
100000
100000
100000
100000
100000
100000
100000
100000
100000
100000
100000
100000
100000
100000
100000
100000
100000
100000
100000
100000
100000
100000
100000
100000
100000
100000
100000
100000
100000
100000
100000
100000
100000
100000
100000
100000
100000
100000
100000
100000
100000
100000
100000
100000
100000
100000
100000
100000
100000
100000
100000
100000
100000
100000
100000
100000
100000
100000
100000
100000
100000
100000
100000
100000
100000
100000
100000
100000
100000
100000
100000
100000
100000
100000
100000
100000
100000
100000
100000
100000
100000
100000
100000
100000
100000
100000
100000
100000
100000
100000
100000
100000
100000
100000
100000
100000
100000
100000
100000
100000
100000
100000
100000
100000
100000
100000
100000
100000
100000
100000
100000
100000
100000
100000
100000
100000
100000
100000
100000
100000
100000
100000
100000
100000
100000
100000
100000
100000
100000
100000
100000
100000
100000
100000
100000
100000
100000
100000
100000
100000
100000
100000
100000
100000
100000
100000
100000
100000
100000
100000
100000
100000
100000
100000
100000
100000
100000
100000
100000
100000
100000
100000
100000
100000
100000
100000
100000
100000
100000
100000
100000
100000
100000
100000
100000
100000
100000
100000
100000
100000
100000
100000
100000
100000
100000
100000
100000
100000
100000
100000
100000
100000
100000
100000
100000
100000
100000
100000
100000
100000
100000
100000
100000
100000
100000
100000
100000
100000
100000
100000
100000
100000
100000
100000
100000
100000
100000
100000
100000
100000
100000
100000
100000
100000
100000
100000
100000
100000
100000
100000
100000
100000
100000
100000
100000
100000
100000
100000
100000
100000
100000
100000
100000
100000
100000
100000
100000
100000
100000
100000
100000
100000
100000
100000
100000
100000
100000
100000
100000
100000
100000
100000
100000
100000
100000
100000
100000
100000
100000
100000
100000
100000
100000
100000
100000
100000
100000
100000
100000
100000
100000
100000
100000
100000
100000
100000
100000
100000
100000
100000
100000
100000
100000
100000
100000
100000
100000
100000
100000
100000
100000
100000
100000
100000
100000
100000
100000
100000
100000
100000
100000
100000
100000
100000
100000
100000
100000
100000
100000
100000
100000
100000
100000
100000
100000
100000
100000
100000
100000
100000
100000
100000
100000
100000
100000
100000
100000
100000
100000
100000
100000
100000
100000
100000
100000
100000
100000
100000
100000
100000
100000
100000
100000
100000
100000
100000
100000
100000
100000
100000
100000
100000
100000
100000
100000
100000
100000
100000
100000
100000
100000
100000
100000
100000
100000
100000
100000
100000
100000
100000
100000
100000
100000
100000
100000
100000
100000
100000
100000
100000
100000
100000
100000
100000
100000
100000
100000
100000
100000
100000
100000
100000
100000
100000
100000
100000
100000
100000
100000
100000
100000
100000
100000
100000
100000
100000
100000
100000
100000
100000
100000
100000
100000
100000
100000
100000
100000
100000
100000
100000
100000
100000
100000
100000
100000
100000
100000
100000
100000
100000
100000
100000
100000
100000
100000
100000
100000
100000
100000
100000
100000
100000
100000
100000
100000
100000
100000
100000
100000
100000
100000
100000
100000
100000
100000
100000
100000
100000
100000
100000
100000
100000
100000
100000
100000
100000
100000
100000
100000
100000
100000
100000
100000
100000
100000
100000
100000
100000
100000
100000
100000
100000
100000
100000
100000
100000
100000
100000
100000
100000
100000
100000
100000
100000
100000
100000
100000
100000
100000
100000
100000
100000
100000
100000
100000
100000
100000
100000
100000
100000
100000
100000
100000
100000
100000
100000
100000
100000
100000
100000
100000
100000
100000
100000
100000
100000
100000
100000
100000
100000
100000
100000
100000
100000
100000
100000
100000
100000
100000
100000
100000
100000
100000
100000
100000
100000
100000
100000
100000
100000
100000
100000
100000
100000
100000
100000
100000
100000
100000
100000
100000
100000
100000
100000
100000
100000
100000
100000
100000
100000
100000
100000
100000
100000
100000
100000
100000
100000
100000
100000
100000
100000
100000
100000
100000
100000
100000
100000
100000
100000
100000
100000
100000
100000
100000
100000
100000
100000
100000
100000
100000
100000
100000
100000
100000
100000
100000
100000
100000
100000
100000
100000
100000
100000
100000
100000
100000
100000
100000
100000
100000
100000
100000
100000
100000
100000
100000
100000
100000
100000
100000
100000
100000
100000
100000
100000
100000
100000
100000
100000
100000
100000
100000
100000
100000
100000
100000
100000
100000
100000
100000
100000
100000
100000
100000
100000
100000
100000
100000
100000
100000
100000
100000
100000
100000
100000
100000
100000
100000
100000
100000
100000
100000
100000
100000
100000
100000
100000
100000
100000
100000
100000
100000
100000
100000
100000
100000
100000
100000
100000
100000
100000
100000
100000
100000
100000
100000
100000
100000
100000
100000
100000
100000
100000
100000
100000
100000
100000
100000
100000
100000
100000
100000
100000
100000
100000
100000
100000
100000
100000
100000
100000
100000
100000
100000
100000
100000
100000
100000
100000
100000
100000
100000
100000
100000
100000
100000
100000
100000
100000
100000
100000
100000
100000
100000
100000
100000
100000
100000
100000
100000
100000
100000
100000
100000
100000
100000
100000
100000
100000
100000
100000
100000
100000
100000
100000
100000
100000
100000
100000
100000
100000
100000
100000
100000
100000
100000
100000
100000
100000
100000
100000
100000
100000
100000
100000
100000
100000
100000
100000
100000
100000
100000
100000
100000
100000
100000
100000
100000
100000
100000
100000
100000
100000
100000
100000
100000
100000
100000
100000
100000
100000
100000
100000
100000
100000
100000
100000
100000
100000
100000
100000
100000
100000
100000
100000
100000
100000
100000
100000
100000
100000
100000
100000
100000
100000
100000
100000
100000
100000
100000
100000
100000
100000
100000
100000
100000
100000
100000
100000
100000
100000
100000
100000
100000
100000
100000
100000
100000
100000
100000
100000
100000
100000
100000
100000
100000
100000
100000
100000
100000
100000
100000
100000
100000
100000
100000
100000
100000
100000
100000
100000
100000
100000
100000
100000
100000
100000
100000
100000
100000
100000
100000
100000
100000
100000
100000
100000
100000
100000
100000
100000
100000
100000
100000
100000
100000
100000
100000
100000
100000
100000
100000
100000
100000
100000
100000
100000
100000
100000
100000
100000
100000
100000
100000
100000
100000
100000
100000
100000
100000
100000
100000
100000
100000
100000
100000
100000
100000
100000
100000
100000
100000
100000
100000
100000
100000
100000
100000
100000
100000
100000
100000
100000
100000
100000
100000
100000
100000
100000
100000
100000
100000
100000
100000
100000
100000
100000
100000
100000
100000
100000
100000
100000
100000
100000
100000
100000
100000
100000
100000
100000
100000
100000
100000
100000
100000
100000
100000
100000
100000
100000
100000
100000
100000
100000
100000
100000
100000
100000
100000
100000
100000
100000
100000
100000
100000
100000
100000
100000
100000
100000
100000
100000
100000
100000
100000
100000
100000
100000
100000
100000
100000
100000
100000
100000
100000
100000
100000
100000
100000
100000
100000
100000
100000
100000
100000
100000
100000
100000
100000
100000
100000
100000
100000
100000
100000
100000
100000
100000
100000
100000
100000
100000
100000
100000
100000
100000
100000
100000
100000
100000
100000
100000
100000
100000
100000
100000
100000
100000
100000
100000
100000
100000
100000
100000
100000
100000
100000
100000
100000
100000
100000
100000
100000
100000
100000
100000
100000
100000
100000
100000
100000
100000
100000
100000
100000
100000
100000
100000
100000
100000
100000
100000
100000
100000
100000
100000
100000
100000
100000
100000
100000
100000
100000
100000
100000
100000
100000
100000
100000
100000
100000
100000
100000
100000
100000
100000
100000
100000
100000
100000
100000
100000
100000
100000
100000
100000
100000
100000
100000
100000
100000
100000
100000
100000
100000
100000
100000
100000
100000
100000
100000
100000
100000
100000
100000
100000
100000
100000
100000
100000
100000
100000
100000
100000
100000
100000
100000
100000
100000
100000
100000
100000
100000
100000
100000
100000
100000
100000
100000
100000
100000
100000
100000
100000
100000
100000
100000
100000
100000
100000
100000
100000
100000
100000
100000
100000
100000
100000
100000
100000
100000
100000
100000
100000
100000
100000
100000
100000
100000
100000
100000
100000
100000
100000
100000
100000
100000
100000
100000
100000
100000
100000
100000
100000
100000
100000
100000
100000
100000
100000
100000
100000
100000
100000
100000
100000
100000
100000
100000
100000
100000
100000
100000
100000
100000
100000
100000
100000
100000
100000
100000
100000
100000
100000
100000
100000
100000
100000
100000
100000
100000
100000
100000
100000
100000
100000
100000
100000
100000
100000
100000
100000
100000
100000
100000
100000
100000
100000
100000
100000
100000
100000
100000
100000
100000
100000
100000
100000
100000
100000
100000
100000
100000
100000
100000
100000
100000
100000
100000
100000
100000
100000
100000
100000
100000
100000
100000
100000
100000
100000
100000
100000
100000
100000
100000
100000
100000
100000
100000
100000
100000
100000
100000
100000
100000
100000
100000
100000
100000
100000
100000
100000
100000
100000
100000
100000
100000
100000
100000
100000
100000
100000
100000
100000
100000
100000
100000
100000
100000
100000
100000
100000
100000
100000
100000
100000
100000
100000
100000
100000
100000
100000
100000
100000
100000
100000
100000
100000
100000
100000
100000
100000
100000
100000
100000
100000
100000
100000
100000
100000
100000
100000
100000
100000
100000
100000
100000
100000
100000
100000
100000
100000
100000
100000
100000
100000
100000
100000
100000
100000
100000
100000
100000
100000
100000
100000
100000
100000
100000
100000
100000
100000
100000
100000
100000
100000
100000
100000
100000
100000
100000
100000
100000
100000
100000
100000
100000
100000
100000
100000
100000
100000
100000
100000
100000
100000
100000
100000
100000
100000
100000
100000
100000
100000
100000
100000
100000
100000
100000
100000
100000
100000
100000
100000
100000
100000
100000
100000
100000
100000
100000
100000
100000
100000
100000
100000
100000
100000
100000
100000
100000
100000
100000
100000
100000
100000
100000
100000
100000
100000
100000
100000
100000
100000
100000
100000
100000
100000
100000
100000
100000
100000
100000
100000
100000
100000
100000
100000
100000
100000
100000
100000
100000
100000
100000
100000
100000
100000
100000
100000
100000
100000
100000
100000
100000
100000
100000
100000
100000
100000
100000
100000
100000
100000
100000
100000
100000
100000
100000
100000
100000
100000
100000
100000
100000
100000
100000
100000
100000
100000
100000
100000
100000
100000
100000
100000
100000
100000
100000
100000
100000
100000
100000
100000
100000
100000
100000
100000
100000
100000
100000
100000
100000
100000
100000
100000
100000
100000
100000
100000
100000
100000
100000
100000
100000
100000
100000
100000
100000
100000
100000
100000
100000
100000
100000
100000
100000
100000
100000
100000
100000
100000
100000
100000
100000
100000
100000
100000
100000
100000
100000
100000
100000
100000
100000
100000
100000
100000
100000
100000
100000
100000
100000
100000
100000
100000
100000
100000
100000
100000
100000
100000
100000
100000
100000
100000
100000
100000
100000
100000
100000
100000
100000
100000
100000
100000
100000
100000
100000
100000
100000
100000
100000
100000
100000
100000
100000
100000
100000
100000
100000
100000
100000
100000
100000
100000
100000
100000
100000
100000
100000
100000
100000
100000
100000
100000
100000
100000
100000
100000
100000
100000
100000
100000
100000
100000
100000
100000
100000
100000
100000
100000
100000
100000
100000
100000
100000
100000
100000
100000
100000
100000
100000
100000
100000
100000
100000
100000
100000
100000
100000
100000
100000
100000
100000
100000
100000
100000
100000
100000
100000
100000
100000
100000
100000
100000
100000
100000
100000
100000
100000
100000
100000
100000
100000
100000
100000
100000
100000
100000
100000
100000
100000
100000
100000
100000
100000
100000
100000
100000
100000
100000
100000
100000
100000
100000
100000
100000
100000
100000
100000
100000
100000
100000
100000
100000
100000
100000
100000
100000
100000
100000
100000
100000
100000
100000
100000
100000
100000
100000
100000
100000
100000
100000
100000
100000
100000
100000
100000
100000
100000
100000
100000
100000
100000
100000
100000
100000
100000
100000
100000
100000
100000
100000
100000
100000
100000
100000
100000
100000
100000
100000
100000
100000
100000
100000
100000
100000
100000
100000
100000
100000
100000
100000
100000
100000
100000
100000
100000
100000
100000
100000
100000
100000
100000
100000
100000
100000
100000
100000
100000
100000
100000
100000
100000
100000
100000
100000
100000
100000
100000
100000
100000
100000
100000
100000
100000
100000
100000
100000
100000
100000
100000
100000
100000
100000
100000
100000
100000
100000
100000
100000
100000
100000
100000
100000
100000
100000
100000
100000
100000
100000
100000
100000
100000
100000
100000
100000
100000
100000
100000
100000
100000
100000
100000
100000
100000
100000
100000
100000
100000
100000
100000
100000
100000
100000
100000
100000
100000
100000
100000
100000
100000
100000
100000
100000
100000
100000
100000
100000
100000
100000
100000
100000
100000
100000
100000
100000
100000
100000
100000
100000
100000
100000
100000
100000
100000
100000
100000
100000
100000
100000
100000
100000
100000
100000
100000
100000
100000
100000
100000
100000
100000
100000
100000
100000
100000
100000
100000
100000
100000
100000
100000
100000
100000
100000
100000
100000
100000
100000
100000
100000
100000
100000
100000
100000
100000
100000
100000
100000
100000
100000
100000
100000
100000
100000
100000
100000
100000
100000
100000
100000
100000
100000
100000
100000
100000
100000
100000
100000
100000
100000
100000
100000
100000
100000
100000
100000
100000
100000
100000
100000
100000
100000
100000
100000
100000
100000
100000
100000
100000
100000
100000
100000
100000
100000
100000
100000
100000
100000
100000
100000
100000
100000
100000
100000
100000
100000
100000
100000
100000
100000
100000
100000
100000
100000
100000
100000
100000
100000
100000
100000
100000
100000
100000
100000
100000
100000
100000
100000
100000
100000
100000
100000
100000
100000
100000
100000
100000
100000
100000
100000
100000
100000
100000
100000
100000
100000
100000
100000
100000
100000
100000
100000
100000
100000
100000
100000
100000
100000
100000
100000
100000
100000
100000
100000
100000
100000
100000
100000
100000
100000
100000
100000
100000
100000
100000
100000
100000
100000
100000
100000
100000
100000
100000
100000
100000
100000
100000
100000
100000
100000
100000
100000
100000
100000
100000
100000
100000
100000
100000
100000
100000
100000
100000
100000
100000
100000
100000
100000
100000
100000
100000
100000
100000
100000
100000
100000
100000
100000
100000
100000
100000
100000
100000
100000
100000
100000
100000
100000
100000
100000
100000
100000
100000
100000
100000
100000
100000
100000
100000
100000
100000
100000
100000
100000
100000
100000
100000
100000
100000
100000
100000
100000
100000
100000
100000
100000
100000
100000
100000
100000
100000
100000
100000
100000
100000
100000
100000
100000
100000
100000
100000
100000
100000
100000
100000
100000
100000
100000
100000
100000
100000
100000
100000
100000
100000
100000
100000
100000
100000
100000
100000
100000
100000
100000
100000
100000
100000
100000
100000
100000
100000
100000
100000
100000
100000
100000
100000
100000
100000
100000
100000
100000
100000
100000
100000
100000
100000
100000
100000
100000
100000
100000
100000
100000
100000
100000
100000
100000
100000
100000
100000
100000
100000
100000
100000
100000
100000
100000
100000
100000
100000
100000
100000
100000
100000
100000
100000
100000
100000
100000
100000
100000
100000
100000
100000
100000
100000
100000
100000
100000
100000
100000
100000
100000
100000
100000
100000
100000
100000
100000
100000
100000
100000
100000
100000
100000
100000
100000
100000
100000
100000
100000
100000
100000
100000
100000
100000
100000
100000
100000
100000
100000
100000
100000
100000
100000
100000
100000
100000
100000
100000
100000
100000
100000
100000
100000
100000
100000
100000
100000
100000
100000
100000
100000
100000
100000
100000
100000
100000
100000
100000
100000
100000
100000
100000
100000
100000
100000
100000
100000
100000
100000
100000
100000
100000
100000
100000
100000
100000
100000
100000
100000
100000
100000
100000
100000
100000
100000
100000
100000
100000
100000
100000
100000
100000
100000
100000
100000
100000
100000
100000
100000
100000
100000
100000
100000
100000
100000
100000
100000
100000
100000
100000
100000
100000
100000
100000
100000
100000
100000
100000
100000
100000
100000
100000
100000
100000
100000
100000
100000
100000
100000
100000
100000
100000
100000
100000
100000
100000
100000
100000
100000
100000
100000
100000
100000
100000
100000
100000
100000
100000
100000
100000
100000
100000
100000
100000
100000
100000
100000
100000
100000
100000
100000
100000
100000
100000
100000
100000
100000
100000
100000
100000
100000
100000
100000
100000
100000
100000
100000
100000
100000
100000
100000
100000
100000
100000
100000
100000
100000
100000
100000
100000
100000
100000
100000
100000
100000
100000
100000
100000
100000
100000
100000
100000
100000
100000
100000
100000
100000
100000
100000
100000
100000
100000
100000
100000
100000
100000
100000
100000
100000
100000
100000
100000
100000
100000
100000
100000
100000
100000
100000
100000
100000
100000
100000
100000
100000
100000
100000
100000
100000
100000
100000
100000
100000
100000
100000
100000
100000
100000
100000
100000
100000
100000
100000
100000
100000
100000
100000
100000
100000
100000
100000
100000
100000
100000
100000
100000
100000
100000
100000
100000
100000
100000
100000
100000
100000
100000
100000
100000
100000
100000
100000
100000
100000
100000
100000
100000
100000
100000
100000
100000
100000
100000
100000
100000
100000
100000
100000
100000
100000
100000
100000
100000
100000
100000
100000
100000
100000
100000
100000
100000
100000
100000
100000
100000
100000
100000
100000
100000
100000
100000
100000
100000
100000
100000
100000
100000
100000
100000
100000
100000
100000
100000
100000
100000
100000
100000
100000
100000
100000
100000
100000
100000
100000
100000
100000
100000
100000
100000
100000
100000
100000
100000
100000
100000
100000
100000
100000
100000
100000
100000
100000
100000
100000
100000
100000
100000
100000
100000
100000
100000
100000
100000
100000
100000
100000
100000
100000
100000
100000
100000
100000
100000
100000
100000
100000
100000
100000
100000
100000
100000
100000
100000
100000
100000
100000
100000
100000
100000
100000
100000
100000
100000
100000
100000
100000
100000
100000
100000
100000
100000
100000
100000
100000
100000
100000
100000
100000
100000
100000
100000
100000
100000
100000
100000
100000
100000
100000
100000
100000
100000
100000
100000
100000
100000
100000
100000
100000
100000
100000
100000
100000
100000
100000
100000
100000
100000
100000
100000
100000
100000
100000
100000
100000
100000
100000
100000
100000
100000
100000
100000
100000
100000
100000
100000
100000
100000
100000
100000
100000
100000
100000
100000
100000
100000
100000
100000
100000
100000
100000
100000
100000
100000
100000
100000
100000
100000
100000
100000
100000
100000
100000
100000
100000
100000
99999.9
99999.9
99999.9
99999.9
99999.9
99999.9
99999.9
99999.9
99999.8
99999.8
99999.8
99999.7
99999.7
99999.7
99999.6
99999.6
99999.5
99999.4
99999.3
99999.3
99999.2
99999
99998.9
99998.8
99998.6
99998.4
99998.2
99998
99997.7
99997.4
99997.1
99996.7
99996.3
99995.9
99995.4
99994.9
99994.3
99993.6
99992.9
99992.1
99991.2
99990.2
99989.2
99988
99986.7
99985.3
99983.8
99982.2
99980.4
99978.4
99976.3
99974
99971.5
99968.8
99965.9
99962.7
99959.4
99955.7
99951.8
99947.6
99943.1
99938.4
99933.2
99927.8
99921.9
99915.7
99909.2
99902.2
99894.8
99886.9
99878.6
99869.9
99860.6
99850.9
99840.6
99829.9
99818.6
99806.7
99794.3
99781.3
99767.7
99753.6
99738.8
99723.4
99707.4
99690.8
99673.5
99655.6
99637
99617.8
99597.9
99577.4
99556.2
99534.3
99511.8
99488.6
99464.7
99440.2
99415
99389.2
99362.7
99335.6
99307.8
99279.3
99250.3
99220.6
99190.3
99159.3
99127.8
99095.6
99062.9
99029.6
98995.7
98961.2
98926.2
98890.6
98854.5
98817.9
98780.8
98743.1
98705
98666.3
98627.2
98587.6
98547.5
98507
98466.1
98424.7
98383
98340.8
98298.2
98255.2
98211.8
98168.1
98124
98079.6
98034.8
97989.7
97944.2
97898.5
97852.4
97806
97759.4
97712.4
97665.2
97617.7
97570
97522
97473.7
97425.2
97376.5
97327.5
97278.4
97229
97179.4
97129.6
97079.6
97029.4
96979
96928.5
96877.7
96826.8
96775.8
96724.5
96673.2
96621.6
96570
96518.2
96466.2
96414.1
96361.9
96309.6
96257.1
96204.5
96151.8
96099
96046.1
95993.1
95940
95886.8
95833.5
95780.1
95726.6
95673
95619.3
95565.6
95511.8
95457.9
95403.9
95349.9
95295.7
95241.6
95187.3
95133
95078.6
95024.2
94969.7
94915.2
94860.6
94806
94751.3
94696.5
94641.7
94586.9
94532
94477.1
94422.2
94367.2
94312.1
94257.1
94202
94146.9
94091.7
94036.5
93981.3
93926
93870.7
93815.4
93760.1
93704.7
93649.4
93594
93538.6
93483.1
93427.7
93372.2
93316.7
93261.2
93205.7
93150.1
93094.6
93039
92983.4
92927.9
92872.3
92816.7
92761
92705.4
92649.8
92594.2
92538.5
92482.9
92427.2
92371.6
92315.9
92260.3
92204.6
92148.9
92093.3
92037.6
91981.9
91926.3
91870.6
91814.9
91759.3
91703.6
91647.9
91592.3
91536.6
91481
91425.4
91369.7
91314.1
91258.5
91202.8
91147.2
91091.6
91036
90980.4
90924.9
90869.3
90813.7
90758.2
90702.6
90647.1
90591.6
90536
90480.5
90425.1
90369.6
90314.1
90258.6
90203.2
90147.8
90092.3
90036.9
89981.5
89926.2
89870.8
89815.4
89760.1
89704.8
89649.5
89594.2
89538.9
89483.6
89428.4
89373.1
89317.9
89262.7
89207.5
89152.4
89097.2
89042.1
88986.9
88931.8
88876.8
88821.7
88766.6
88711.6
88656.6
88601.6
88546.6
88491.7
88436.7
88381.8
88326.9
88272
88217.1
88162.3
88107.5
88052.7
87997.9
87943.1
87888.4
87833.6
87778.9
87724.3
87669.6
87614.9
87560.3
87505.7
87451.1
87396.6
87342
87287.5
87233
87178.5
87124.1
87069.6
87015.2
86960.8
86906.5
86852.1
86797.8
86743.5
86689.2
86634.9
86580.7
86526.5
86472.3
86418.1
86364
86309.8
86255.7
86201.7
86147.6
86093.6
86039.5
85985.6
85931.6
85877.6
85823.7
85769.8
85716
85662.1
85608.3
85554.5
85500.7
85446.9
85393.2
85339.5
85285.8
85232.2
85178.5
85124.9
85071.3
85017.8
84964.2
84910.7
84857.2
84803.7
84750.3
84696.9
84643.5
84590.1
84536.8
84483.4
84430.1
84376.9
84323.6
84270.4
84217.2
84164
84110.9
84057.7
84004.6
83951.6
83898.5
83845.5
83792.5
83739.5
83686.5
83633.6
83580.7
83527.8
83475
83422.2
83369.4
83316.6
83263.8
83211.1
83158.4
83105.7
83053.1
83000.4
82947.8
82895.3
82842.7
82790.2
82737.7
82685.2
82632.8
82580.4
82528
82475.6
82423.2
82370.9
82318.6
82266.4
82214.1
82161.9
82109.7
82057.5
82005.4
81953.3
81901.2
81849.1
81797.1
81745.1
81693.1
81641.1
81589.2
81537.3
81485.4
81433.5
81381.7
81329.9
81278.1
81226.3
81174.6
81122.9
81071.2
81019.6
80968
80916.4
80864.8
80813.2
80761.7
80710.2
80658.7
80607.3
80555.9
80504.5
80453.1
80401.8
80350.5
80299.2
80247.9
80196.7
80145.5
80094.3
80043.1
79992
79940.9
79889.8
79838.7
79787.7
79736.7
79685.7
79634.8
79583.9
79533
79482.1
79431.3
79380.4
79329.6
79278.9
79228.1
79177.4
79126.7
79076.1
79025.4
78974.8
78924.2
78873.7
78823.1
78772.6
78722.2
78671.7
78621.3
78570.9
78520.5
78470.1
78419.8
78369.5
78319.3
78269
78218.8
78168.6
78118.4
78068.3
78018.2
77968.1
77918
77868
77818
77768
77718.1
77668.1
77618.2
77568.3
77518.5
77468.7
77418.9
77369.1
77319.3
77269.6
77219.9
77170.3
77120.6
77071
77021.4
76971.8
76922.3
76872.8
76823.3
76773.8
76724.4
76675
76625.6
76576.3
76526.9
76477.6
76428.4
76379.1
76329.9
76280.7
76231.5
76182.4
76133.2
76084.1
76035.1
75986
75937
75888
75839.1
75790.1
75741.2
75692.3
75643.5
75594.6
75545.8
75497
75448.3
75399.6
75350.9
75302.2
75253.5
75204.9
75156.3
75107.7
75059.2
75010.7
74962.2
74913.7
74865.3
74816.8
74768.4
74720.1
74671.7
74623.4
74575.1
74526.9
74478.6
74430.4
74382.2
74334.1
74286
74237.8
74189.8
74141.7
74093.7
74045.7
73997.7
73949.8
73901.8
73853.9
73806.1
73758.2
73710.4
73662.6
73614.8
73567.1
73519.4
73471.7
73424
73376.4
73328.7
73281.2
73233.6
73186
73138.5
73091.1
73043.6
72996.2
72948.7
72901.4
72854
72806.7
72759.4
72712.1
72664.8
72617.6
72570.4
72523.2
72476.1
72428.9
72381.8
72334.8
72287.7
72240.7
72193.7
72146.7
72099.8
72052.9
72006
71959.1
71912.2
71865.4
71818.6
71771.9
71725.1
71678.4
71631.7
71585
71538.4
71491.8
71445.2
71398.6
71352.1
71305.6
71259.1
71212.6
71166.2
71119.8
71073.4
71027
70980.7
70934.4
70888.1
70841.9
70795.6
70749.4
70703.2
70657.1
70610.9
70564.8
70518.8
70472.7
70426.7
70380.7
70334.7
70288.7
70242.8
70196.9
70151
70105.2
70059.3
70013.5
69967.8
69922
69876.3
69830.6
69784.9
69739.2
69693.6
69648
69602.4
69556.9
69511.4
69465.9
69420.4
69374.9
69329.5
69284.1
69238.7
69193.4
69148.1
69102.8
69057.5
69012.2
68967
68921.8
68876.6
68831.5
68786.4
68741.3
68696.2
68651.1
68606.1
68561.1
68516.1
68471.2
68426.3
68381.4
68336.5
68291.6
68246.8
68202
68157.2
68112.5
68067.8
68023.1
67978.4
67933.7
67889.1
67844.5
67799.9
67755.4
67710.8
67666.3
67621.9
67577.4
67533
67488.6
67444.2
67399.9
67355.5
67311.2
67266.9
67222.7
67178.5
67134.2
67090.1
67045.9
67001.8
66957.7
66913.6
66869.5
66825.5
66781.5
66737.5
66693.5
66649.6
66605.7
66561.8
66517.9
66474.1
66430.3
66386.5
66342.7
66299
66255.3
66211.6
66167.9
66124.3
66080.7
66037.1
65993.5
65950
65906.5
65863
65819.5
65776
65732.6
65689.2
65645.8
65602.5
65559.2
65515.9
65472.6
65429.3
65386.1
65342.9
65299.7
65256.6
65213.5
65170.3
65127.3
65084.2
65041.2
64998.2
64955.2
64912.2
64869.3
64826.4
64783.5
64740.6
64697.8
64655
64612.2
64569.4
64526.7
64483.9
64441.2
64398.6
64355.9
64313.3
64270.7
64228.1
64185.6
64143
64100.5
64058.1
64015.6
63973.2
63930.8
63888.4
63846
63803.7
63761.4
63719.1
63676.8
63634.6
63592.4
63550.2
63508
63465.9
63423.7
63381.6
63339.6
63297.5
63255.5
63213.5
63171.5
63129.6
63087.6
63045.7
63003.8
62962
62920.1
62878.3
62836.5
62794.8
62753
62711.3
62669.6
62628
62586.3
62544.7
62503.1
62461.5
62420
62378.4
62336.9
62295.4
62254
62212.5
62171.1
62129.8
62088.4
62047
62005.7
61964.4
61923.2
61881.9
61840.7
61799.5
61758.3
61717.2
61676
61634.9
61593.8
61552.8
61511.8
61470.7
61429.8
61388.8
61347.8
61306.9
61266
61225.2
61184.3
61143.5
61102.7
61061.9
61021.1
60980.4
60939.7
60899
60858.3
60817.7
60777.1
60736.5
60695.9
60655.4
60614.9
60574.4
60533.9
60493.4
60453
60412.6
60372.2
60331.8
60291.5
60251.2
60210.9
60170.6
60130.4
60090.1
60049.9
60009.8
59969.6
59929.5
59889.4
59849.3
59809.2
59769.2
59729.2
59689.2
59649.2
59609.2
59569.3
59529.4
59489.5
59449.7
59409.8
59370
59330.2
59290.5
59250.7
59211
59171.3
59131.6
59092
59052.3
59012.7
58973.2
58933.6
58894.1
58854.5
58815
58775.6
58736.1
58696.7
58657.3
58617.9
58578.6
58539.2
58499.9
58460.6
58421.4
58382.1
58342.9
58303.7
58264.5
58225.4
58186.2
58147.1
58108
58069
58029.9
57990.9
57951.9
57912.9
57874
57835.1
57796.1
57757.3
57718.4
57679.6
57640.7
57601.9
57563.2
57524.4
57485.7
57447
57408.3
57369.6
57331
57292.4
57253.8
57215.2
57176.7
57138.2
57099.6
57061.2
57022.7
56984.3
56945.8
56907.5
56869.1
56830.7
56792.4
56754.1
56715.8
56677.6
56639.3
56601.1
56562.9
56524.7
56486.6
56448.5
56410.3
56372.3
56334.2
56296.2
56258.1
56220.1
56182.2
56144.2
56106.3
56068.4
56030.5
55992.6
55954.8
55917
55879.2
55841.4
55803.6
55765.9
55728.2
55690.5
55652.8
55615.2
55577.6
55540
55502.4
55464.8
55427.3
55389.8
55352.3
55314.8
55277.4