/*--------------------------------*- C++ -*----------------------------------*\
| =========                 |                                                 |
| \\      /  F ield         | OpenFOAM: The Open Source CFD Toolbox           |
|  \\    /   O peration     | Version:  4.0                                   |
|   \\  /    A nd           | Web:      www.OpenFOAM.org                      |
|    \\/     M anipulation  |                                                 |
\*---------------------------------------------------------------------------*/
FoamFile
{
    version     2.0;
    format      ascii;
    class       volScalarField;
    location    "14";
    object      p;
}
// * * * * * * * * * * * * * * * * * * * * * * * * * * * * * * * * * * * * * //

dimensions      [0 2 -2 0 0 0 0];

internalField   nonuniform List<scalar> 
2200
(
0.400314
0.378853
0.363016
0.347421
0.33294
0.320653
0.310517
0.30256
0.296962
0.293983
0.294251
0.297687
0.303614
0.311817
0.322126
0.334539
0.349105
0.36475
0.380617
0.402094
0.332629
0.329384
0.326552
0.322554
0.317267
0.310969
0.304532
0.298805
0.294458
0.292084
0.292323
0.295198
0.299906
0.305895
0.312516
0.318937
0.324312
0.328376
0.33125
0.334508
0.292374
0.292705
0.294983
0.296605
0.297314
0.296666
0.294833
0.292299
0.289809
0.288243
0.288546
0.29065
0.293531
0.296347
0.298377
0.299168
0.298559
0.297008
0.294782
0.294471
0.269601
0.271127
0.274084
0.276917
0.279646
0.281958
0.28344
0.283908
0.283597
0.283107
0.283491
0.284569
0.285312
0.285171
0.283928
0.281786
0.279181
0.276433
0.273529
0.272019
0.255456
0.257403
0.260371
0.263361
0.266419
0.269456
0.272237
0.274424
0.275905
0.276691
0.277094
0.276995
0.276071
0.274269
0.271771
0.268931
0.266011
0.26312
0.260217
0.258278
0.248695
0.250156
0.252507
0.255422
0.258383
0.261184
0.263677
0.265987
0.268056
0.269555
0.270021
0.269382
0.268014
0.266188
0.264008
0.261432
0.258622
0.255806
0.253516
0.252059
0.247014
0.247828
0.249394
0.251996
0.25474
0.257222
0.2593
0.261236
0.26299
0.264377
0.26497
0.264637
0.263699
0.262358
0.260671
0.258484
0.255937
0.253458
0.251945
0.251141
0.247723
0.248073
0.249003
0.250897
0.253039
0.25512
0.257
0.258735
0.260218
0.261421
0.262137
0.262158
0.261595
0.26062
0.259312
0.257623
0.255742
0.254019
0.253159
0.252814
0.248049
0.248148
0.248574
0.249537
0.250734
0.252128
0.253693
0.255354
0.256905
0.258271
0.259191
0.259403
0.259022
0.258271
0.257391
0.256447
0.255546
0.254783
0.254445
0.254347
0.246212
0.246247
0.246374
0.24674
0.247274
0.248024
0.249083
0.250474
0.252025
0.253605
0.254852
0.255446
0.255445
0.255076
0.254755
0.254495
0.254293
0.254149
0.254114
0.254087
0.243036
0.242994
0.243104
0.243378
0.243825
0.24439
0.24519
0.246304
0.247686
0.249311
0.250821
0.251908
0.252502
0.252763
0.252837
0.252885
0.252873
0.252861
0.252877
0.252887
0.239613
0.239595
0.239762
0.240115
0.240647
0.241367
0.242324
0.24349
0.244946
0.246711
0.248474
0.24989
0.250923
0.251492
0.251807
0.251957
0.251974
0.251952
0.251951
0.251956
0.236019
0.236042
0.236182
0.236523
0.237078
0.237856
0.238934
0.240326
0.242102
0.244261
0.246489
0.24825
0.249531
0.25035
0.250877
0.251176
0.251322
0.251391
0.251427
0.251428
0.231725
0.231727
0.231867
0.23217
0.232697
0.233473
0.234623
0.236207
0.23833
0.241019
0.243908
0.246241
0.247886
0.24906
0.249853
0.250378
0.250716
0.250926
0.25103
0.251029
0.226676
0.226665
0.226865
0.227188
0.227736
0.22861
0.229907
0.231756
0.2343
0.23761
0.241268
0.244331
0.246506
0.248093
0.249184
0.249915
0.250392
0.250684
0.250825
0.250827
0.220775
0.220763
0.220995
0.221477
0.222225
0.223334
0.224949
0.227234
0.230374
0.234483
0.239051
0.242938
0.245771
0.247804
0.249171
0.250092
0.250689
0.251048
0.251216
0.251214
0.214172
0.214168
0.214445
0.215019
0.215953
0.217361
0.219414
0.222311
0.226271
0.231438
0.237168
0.242041
0.245615
0.248122
0.249825
0.250966
0.251695
0.252125
0.252321
0.252316
0.206384
0.206387
0.206767
0.207519
0.208712
0.210489
0.213071
0.216721
0.221718
0.228228
0.235407
0.24148
0.245915
0.249024
0.251157
0.252591
0.253524
0.254086
0.254344
0.254335
0.197278
0.197273
0.197726
0.198636
0.200136
0.202414
0.20572
0.210381
0.216717
0.224915
0.233882
0.241426
0.246921
0.250788
0.253445
0.255226
0.256376
0.257053
0.257358
0.257341
0.186147
0.186173
0.186816
0.188052
0.190016
0.192947
0.197198
0.203172
0.211239
0.221561
0.23271
0.242027
0.248792
0.253547
0.256808
0.258993
0.260416
0.261273
0.261665
0.261651
0.172706
0.172706
0.173502
0.175086
0.177676
0.181593
0.187173
0.194925
0.20523
0.218197
0.231989
0.243422
0.251708
0.257548
0.261572
0.264285
0.266042
0.267073
0.267531
0.267494
0.155655
0.155762
0.156954
0.159181
0.162707
0.167938
0.175357
0.185512
0.198703
0.214926
0.231861
0.245774
0.255841
0.262954
0.267865
0.271171
0.273336
0.274636
0.275218
0.275186
0.134394
0.134451
0.136045
0.139193
0.144136
0.151424
0.161466
0.1748
0.191637
0.211784
0.232383
0.249148
0.261275
0.269897
0.275932
0.280071
0.282787
0.284401
0.285104
0.28502
0.106029
0.106528
0.10911
0.113866
0.121191
0.131493
0.145268
0.162855
0.184217
0.209008
0.233809
0.253797
0.268266
0.278646
0.285987
0.291089
0.294515
0.296566
0.297493
0.297387
0.0684439
0.0691979
0.0735049
0.0814605
0.0928491
0.107858
0.126848
0.149847
0.176662
0.206798
0.236236
0.25972
0.276736
0.289068
0.29799
0.304365
0.308796
0.311588
0.312851
0.31259
0.0184558
0.0191268
0.0272349
0.04066
0.0587142
0.0806544
0.106452
0.136074
0.169275
0.205359
0.239767
0.266955
0.286736
0.301256
0.311971
0.319889
0.325574
0.329129
0.33043
0.330045
-0.0505316
-0.046352
-0.028871
-0.00587212
0.0210543
0.0512411
0.0848812
0.122042
0.162339
0.205066
0.24516
0.276796
0.300139
0.317694
0.331046
0.341297
0.349184
0.354858
0.356923
0.356846
-0.132583
-0.117699
-0.0874167
-0.0538126
-0.0172809
0.0213782
0.0633074
0.108287
0.15588
0.20566
0.25208
0.288895
0.316485
0.337763
0.354641
0.368193
0.379051
0.387141
0.392846
0.393638
-0.197794
-0.180504
-0.141777
-0.100127
-0.0549732
-0.00763609
0.042587
0.0951112
0.149812
0.206393
0.258741
0.300231
0.331432
0.355572
0.374661
0.390091
0.402281
0.411546
0.416587
0.41725
-0.246423
-0.230985
-0.187684
-0.14114
-0.0892458
-0.0344829
0.0229822
0.082431
0.14391
0.206903
0.264681
0.310078
0.343824
0.369599
0.389574
0.405363
0.417796
0.426902
0.431939
0.432727
-0.28622
-0.271052
-0.225633
-0.176121
-0.118959
-0.0585582
0.00480041
0.0703722
0.13797
0.206648
0.269029
0.31737
0.352753
0.37935
0.399659
0.415368
0.427869
0.437013
0.442251
0.443009
-0.320376
-0.304886
-0.257458
-0.205669
-0.144566
-0.0800259
-0.0119638
0.0588164
0.131652
0.205293
0.271746
0.322692
0.359428
0.386658
0.40734
0.423152
0.435703
0.44471
0.450175
0.450711
-0.350439
-0.334986
-0.285217
-0.231028
-0.166897
-0.099371
-0.0275449
0.0475932
0.124957
0.203186
0.273564
0.326986
0.365152
0.393185
0.414283
0.430236
0.442697
0.45183
0.45687
0.457507
-0.377445
-0.36225
-0.31041
-0.253702
-0.186966
-0.117064
-0.0421286
0.0366842
0.118047
0.200548
0.274712
0.330814
0.37062
0.399486
0.421006
0.437199
0.449556
0.45866
0.463589
0.464182
-0.40219
-0.387064
-0.334137
-0.275008
-0.20582
-0.133625
-0.0559012
0.0260943
0.111057
0.197666
0.275827
0.334815
0.37621
0.405981
0.427837
0.444047
0.456382
0.465323
0.470279
0.470906
-0.425522
-0.4099
-0.356835
-0.2957
-0.224295
-0.149686
-0.0692477
0.0156442
0.103936
0.194427
0.276374
0.338053
0.381264
0.412025
0.434492
0.45111
0.463523
0.472396
0.477308
0.477853
-0.447437
-0.431642
-0.378351
-0.315829
-0.24269
-0.165744
-0.082692
0.00490284
0.0962499
0.190287
0.275899
0.340934
0.386472
0.418677
0.441703
0.458488
0.470885
0.479614
0.484509
0.485105
-0.468126
-0.45245
-0.398654
-0.335172
-0.260816
-0.181911
-0.0965426
-0.00646555
0.0877691
0.185324
0.275103
0.343539
0.391338
0.424928
0.448908
0.466164
0.478814
0.487558
0.492317
0.492806
-0.488114
-0.472238
-0.417948
-0.353715
-0.278434
-0.198009
-0.110727
-0.0184079
0.0785954
0.179548
0.273117
0.345026
0.396038
0.431841
0.456916
0.474693
0.48733
0.495742
0.500455
0.500938
-0.507804
-0.491266
-0.436566
-0.371655
-0.295478
-0.21383
-0.124989
-0.0307301
0.0687176
0.172669
0.269862
0.345999
0.400455
0.438851
0.465359
0.483633
0.496361
0.504951
0.5093
0.509574
-0.527188
-0.509834
-0.4548
-0.389183
-0.312052
-0.229328
-0.139192
-0.0433165
0.058213
0.164931
0.266042
0.346082
0.403956
0.445404
0.47416
0.493573
0.506413
0.51417
0.518238
0.518378
-0.546144
-0.528145
-0.472748
-0.406347
-0.328286
-0.244582
-0.153329
-0.0560742
0.0472707
0.156433
0.260799
0.344744
0.40706
0.452207
0.483895
0.504664
0.517366
0.52457
0.52779
0.527545
-0.564528
-0.54612
-0.49032
-0.423111
-0.344226
-0.259654
-0.167417
-0.0689838
0.0358941
0.147053
0.254202
0.342254
0.408593
0.458215
0.493861
0.517388
0.530578
0.535675
0.536541
0.536034
-0.58227
-0.563585
-0.507355
-0.439397
-0.359838
-0.274532
-0.181461
-0.082047
0.0240541
0.136896
0.246625
0.338157
0.408805
0.463096
0.503601
0.531558
0.546794
0.549992
0.546313
0.543351
-0.599306
-0.580387
-0.523733
-0.455128
-0.375031
-0.289137
-0.195389
-0.0951758
0.0119211
0.126146
0.237892
0.332243
0.406791
0.466223
0.512861
0.547187
0.568016
0.569598
0.561138
0.565405
-0.615607
-0.596467
-0.539392
-0.470243
-0.389716
-0.303357
-0.209082
-0.108254
-0.000345944
0.114957
0.228157
0.324793
0.402993
0.466778
0.519113
0.561677
0.593381
0.593878
0.551226
0.498314
-0.63112
-0.611866
-0.554389
-0.484808
-0.403966
-0.317288
-0.222677
-0.121469
-0.0130325
0.102965
0.217072
0.315133
0.395665
0.463674
0.521427
0.573382
0.620517
0.653597
0.683211
0.73504
-0.645801
-0.626655
-0.568831
-0.498966
-0.417952
-0.331146
-0.236428
-0.135112
-0.0265735
0.089612
0.204184
0.302669
0.384486
0.454722
0.514054
0.564045
0.601396
0.626055
0.61438
0.618711
-0.659665
-0.640787
-0.582696
-0.51268
-0.431608
-0.344833
-0.250206
-0.149057
-0.0407727
0.0751958
0.189622
0.287644
0.368572
0.436862
0.493156
0.534447
0.543075
0.512617
0.46387
0.458441
-0.672789
-0.65423
-0.595984
-0.52596
-0.444941
-0.358362
-0.264015
-0.163301
-0.0555875
0.0595546
0.172909
0.269173
0.346336
0.4085
0.457513
0.472832
0.44292
0.376981
0.307107
0.300739
-0.68522
-0.66702
-0.608722
-0.538827
-0.457982
-0.371749
-0.277846
-0.177774
-0.0709905
0.0427406
0.154203
0.248131
0.319447
0.368982
0.393316
0.380415
0.332951
0.230749
0.141751
0.127291
-0.697361
-0.679577
-0.621291
-0.551631
-0.471069
-0.385287
-0.291953
-0.192733
-0.0871556
0.0248136
0.133751
0.224335
0.288948
0.322649
0.312416
0.270192
0.161797
0.0342507
-0.0777779
-0.0997951
-0.71003
-0.692666
-0.634355
-0.564958
-0.484747
-0.399434
-0.306741
-0.2085
-0.104317
0.00543789
0.110899
0.196823
0.254095
0.266649
0.218439
0.122825
-0.0470878
-0.209095
-0.342259
-0.367279
-0.723686
-0.706649
-0.64818
-0.579019
-0.499178
-0.414295
-0.322269
-0.225091
-0.122515
-0.0152569
0.0863223
0.167232
0.212886
0.199059
0.121042
-0.0447994
-0.270648
-0.503656
-0.696157
-0.744538
-0.738379
-0.721562
-0.662774
-0.593826
-0.514312
-0.429823
-0.33849
-0.242481
-0.141674
-0.0371437
0.0596436
0.134935
0.168338
0.113886
0.000107547
-0.221691
-0.493017
-0.824033
-1.17765
-1.31765
-0.754136
-0.73744
-0.678162
-0.60947
-0.530172
-0.446045
-0.355446
-0.26065
-0.161783
-0.0603601
0.0312623
0.099662
0.117418
0.0258812
-0.145758
-0.403281
-0.691532
-1.09939
-1.74974
-2.3546
-0.770948
-0.754259
-0.694365
-0.625992
-0.546717
-0.462923
-0.373043
-0.279484
-0.182668
-0.0845475
0.00207351
0.0638838
0.0654328
-0.0612302
-0.295775
-0.598598
-0.865895
-1.17781
-1.84926
-3.58106
-0.788808
-0.772006
-0.711463
-0.643495
-0.564043
-0.480589
-0.391498
-0.299206
-0.20457
-0.11
-0.0285769
0.0237447
0.00669369
-0.137522
-0.41746
-0.740916
-0.959447
-1.05992
-1.11842
-1.57103
-0.80765
-0.790567
-0.729636
-0.662183
-0.582408
-0.499439
-0.411271
-0.320378
-0.228193
-0.137829
-0.0615552
-0.0168778
-0.0608978
-0.196678
-0.489822
-0.787517
-0.967533
-1.01484
-0.977738
-1.03143
-0.827317
-0.809975
-0.749014
-0.681989
-0.601794
-0.519478
-0.43238
-0.34306
-0.253598
-0.168027
-0.0971598
-0.0606285
-0.124626
-0.25384
-0.540527
-0.790742
-0.937595
-0.986997
-1.01509
-1.03777
-0.847454
-0.82988
-0.769609
-0.702709
-0.622098
-0.540653
-0.454764
-0.367084
-0.280587
-0.200061
-0.13382
-0.101274
-0.181736
-0.326256
-0.590588
-0.798677
-0.920125
-0.918943
-0.949059
-0.947638
-0.867972
-0.85025
-0.791107
-0.723978
-0.643091
-0.562789
-0.478025
-0.392167
-0.308751
-0.233549
-0.174056
-0.144442
-0.238372
-0.409246
-0.645236
-0.809975
-0.908966
-0.911993
-0.924432
-0.929954
-0.888436
-0.870785
-0.812685
-0.745369
-0.664515
-0.585572
-0.501862
-0.417926
-0.337498
-0.267397
-0.214811
-0.189148
-0.306956
-0.507987
-0.715955
-0.831867
-0.890255
-0.932169
-0.915481
-0.925469
-0.908579
-0.891151
-0.833788
-0.766359
-0.685931
-0.608655
-0.525644
-0.443909
-0.36632
-0.300472
-0.256442
-0.227624
-0.358627
-0.608393
-0.811963
-0.877488
-0.835015
-0.909003
-0.906549
-0.919621
-0.927616
-0.910613
-0.853617
-0.786196
-0.707351
-0.631166
-0.548594
-0.46989
-0.394142
-0.331339
-0.299562
-0.270481
-0.411237
-0.700642
-0.929244
-0.979874
-0.893611
-0.921963
-0.955369
-0.963179
-0.944779
-0.928267
-0.871739
-0.804627
-0.728249
-0.651419
-0.570606
-0.494886
-0.419994
-0.357594
-0.337848
-0.295922
-0.462444
-0.78874
-1.09356
-1.2668
-1.25983
-1.20323
-1.19528
-1.18317
-0.958882
-0.943155
-0.887624
-0.820961
-0.746179
-0.669463
-0.591522
-0.516966
-0.443937
-0.379841
-0.36405
-0.302324
-0.477668
-0.826329
-1.25402
-1.70906
-1.86256
-1.78326
-1.69794
-1.63197
-0.968893
-0.953986
-0.899661
-0.833504
-0.759802
-0.684423
-0.608817
-0.536439
-0.463904
-0.401162
-0.375735
-0.305659
-0.469287
-0.798522
-1.243
-1.74586
-1.96625
-1.86627
-1.76553
-1.69598
-0.972961
-0.95897
-0.906254
-0.840825
-0.768182
-0.694822
-0.621638
-0.552931
-0.48091
-0.410564
-0.368882
-0.300565
-0.415005
-0.603911
-0.842107
-1.0666
-1.14015
-1.0888
-0.984451
-0.885282
-0.969677
-0.956626
-0.905647
-0.841288
-0.770252
-0.69946
-0.629737
-0.565152
-0.501049
-0.416934
-0.348869
-0.271911
-0.237073
-0.171174
-0.0641304
0.0213079
0.102106
0.186218
0.235094
0.269174
-0.956529
-0.944874
-0.896443
-0.833679
-0.764687
-0.696856
-0.631705
-0.570783
-0.513738
-0.448744
-0.346863
-0.225799
-0.0383082
0.221217
0.548257
0.837874
1.05216
1.16402
1.1966
1.20997
-0.932235
-0.921891
-0.876668
-0.816338
-0.750192
-0.686706
-0.627809
-0.575356
-0.53235
-0.498845
-0.394221
-0.247713
0.0461409
0.425486
0.838722
1.20738
1.47677
1.60506
1.63508
1.64465
-0.895619
-0.88702
-0.845009
-0.788378
-0.727084
-0.669542
-0.61909
-0.58343
-0.578952
-0.596946
-0.572904
-0.402177
-0.0197822
0.413534
0.859764
1.25553
1.51318
1.6301
1.66145
1.67095
-0.845402
-0.838985
-0.801769
-0.751129
-0.695392
-0.644592
-0.605428
-0.593574
-0.640647
-0.757511
-0.887683
-0.690971
-0.226577
0.261369
0.740459
1.10401
1.31938
1.40422
1.44163
1.45437
-0.783209
-0.778175
-0.746239
-0.702095
-0.652665
-0.609072
-0.579859
-0.58465
-0.67474
-0.871939
-1.18579
-1.03327
-0.280213
0.166816
0.56436
0.824231
1.00716
1.08249
1.1217
1.13549
-0.711841
-0.70678
-0.677681
-0.639217
-0.595924
-0.557353
-0.529571
-0.526504
-0.626825
-0.780285
-1.06736
-0.870001
-0.33574
0.0609139
0.372507
0.573835
0.698126
0.753079
0.790734
0.804814
-0.615329
-0.612389
-0.589584
-0.558981
-0.522343
-0.488126
-0.460805
-0.453385
-0.496476
-0.591862
-0.727995
-0.496876
-0.129407
0.130699
0.329258
0.452846
0.521888
0.560888
0.585887
0.594348
-0.491444
-0.491147
-0.479875
-0.458359
-0.431406
-0.403388
-0.37678
-0.358825
-0.363636
-0.397639
-0.423943
-0.206829
0.0163117
0.185917
0.306326
0.374169
0.417365
0.441325
0.456187
0.45957
-0.373807
-0.37245
-0.365137
-0.352545
-0.334678
-0.313344
-0.289073
-0.264797
-0.244969
-0.232826
-0.187235
-0.0247935
0.102725
0.207738
0.271257
0.308058
0.332816
0.346712
0.35371
0.355355
-0.262017
-0.262167
-0.25892
-0.251734
-0.240837
-0.225921
-0.205748
-0.180481
-0.148424
-0.105579
-0.0400205
0.0652911
0.147246
0.205446
0.236818
0.256064
0.269124
0.27628
0.280315
0.282102
-0.167785
-0.168469
-0.167186
-0.1635
-0.157403
-0.147935
-0.132659
-0.110234
-0.0777298
-0.0273478
0.0330893
0.107718
0.159068
0.190388
0.206239
0.21618
0.223032
0.227522
0.230286
0.230752
-0.0948401
-0.0956969
-0.0958708
-0.0943785
-0.0907008
-0.0844279
-0.0733572
-0.0555515
-0.0282837
0.014183
0.0657015
0.122573
0.152748
0.170954
0.180108
0.185853
0.189578
0.19172
0.192538
0.191909
-0.0423991
-0.0432136
-0.0444322
-0.0446244
-0.0426281
-0.0380508
-0.0295319
-0.0158279
0.00551212
0.0388443
0.0788762
0.119487
0.139717
0.151962
0.158079
0.161432
0.16296
0.163199
0.162615
0.161739
-0.00673226
-0.00738852
-0.00889198
-0.0102764
-0.00984374
-0.00686795
-0.000327409
0.0105882
0.0273659
0.0529976
0.0830277
0.111616
0.126285
0.13498
0.139101
0.140688
0.140614
0.13963
0.138556
0.13779
0.0160679
0.0155712
0.0142594
0.0125989
0.0120568
0.0134146
0.0178529
0.0263934
0.0397725
0.0596401
0.0822617
0.102687
0.113558
0.119755
0.122367
0.12286
0.122099
0.120761
0.119716
0.119085
0.029615
0.0292504
0.0282855
0.0270098
0.0263045
0.0266178
0.0292396
0.0352569
0.0454665
0.0608065
0.0781177
0.0930699
0.101266
0.105731
0.107403
0.107478
0.106743
0.10565
0.104859
0.104365
0.0375727
0.0372878
0.0366724
0.0359006
0.0355038
0.0356189
0.0372036
0.0410018
0.0481353
0.0594345
0.072515
0.0835251
0.0896883
0.0929585
0.0941798
0.0942278
0.0937335
0.0929719
0.0924333
0.0920701
0.0428444
0.0426222
0.0422211
0.0417057
0.0415041
0.0417167
0.0429366
0.0453935
0.050137
0.0578813
0.0672252
0.0750655
0.0795538
0.0819492
0.0829154
0.0829714
0.0825834
0.0819837
0.0815937
0.081331
0.0463371
0.0461632
0.0458073
0.0452499
0.0448995
0.044986
0.045915
0.0477195
0.0510437
0.0562596
0.0626227
0.067983
0.071146
0.0728485
0.0735329
0.0734872
0.0730636
0.0725011
0.0721726
0.0719763
0.0476924
0.047544
0.0471648
0.0464943
0.04592
0.0457069
0.0461632
0.0474374
0.0498953
0.0536513
0.0581124
0.0618102
0.0640221
0.0651646
0.0655465
0.0653792
0.0649304
0.0644076
0.0641216
0.0639678
0.0469126
0.0467865
0.0464269
0.0457637
0.0451413
0.0447536
0.0447835
0.0455034
0.0471984
0.0499785
0.0532838
0.0559597
0.0575249
0.0582627
0.0584273
0.0582159
0.0578156
0.057374
0.0571423
0.0570222
0.0447025
0.0446052
0.0443179
0.0437649
0.0432434
0.0428642
0.0427087
0.0430389
0.0440611
0.0459779
0.0483675
0.0502968
0.0513892
0.0518647
0.0519194
0.0517261
0.0514053
0.0510563
0.0508801
0.0507891
0.0417327
0.0416646
0.0414508
0.0410093
0.040602
0.0402796
0.0400951
0.0402477
0.0408158
0.0420367
0.0436282
0.0449295
0.0456478
0.0459448
0.0459427
0.0457756
0.0455199
0.045245
0.0451107
0.0450417
0.0382324
0.0381845
0.0380177
0.0376558
0.0373251
0.0370367
0.0368458
0.0369129
0.0372253
0.0379973
0.039009
0.0398441
0.0402898
0.0404587
0.0404131
0.0402565
0.0400412
0.0398167
0.0397091
0.0396562
0.0342992
0.0342645
0.0341286
0.0338301
0.0335549
0.0332918
0.0330922
0.0330919
0.0332504
0.0337564
0.034408
0.0349437
0.0352066
0.0352809
0.0352033
0.0350545
0.0348704
0.0346858
0.0345977
0.034557
0.03005
0.0300241
0.0299169
0.0296834
0.0294629
0.029237
0.0290451
0.0289973
0.0290479
0.0293707
0.0297912
0.0301334
0.0302772
0.0302951
0.0302091
0.0300785
0.0299279
0.0297818
0.0297113
0.0296789
0.025615
0.0255964
0.0255138
0.0253373
0.0251661
0.0249847
0.0248168
0.0247482
0.0247331
0.0249204
0.0251773
0.0253883
0.0254587
0.0254458
0.0253612
0.0252484
0.025125
0.0250085
0.0249521
0.0249274
0.0210721
0.0210589
0.0209982
0.0208701
0.0207401
0.0206009
0.0204655
0.0203987
0.0203561
0.0204529
0.0205911
0.0207063
0.0207285
0.0206985
0.0206208
0.0205263
0.0204273
0.0203364
0.0202924
0.0202743
0.0164681
0.0164581
0.0164115
0.0163176
0.0162186
0.0161136
0.016007
0.0159469
0.0158976
0.0159458
0.0160164
0.0160737
0.0160685
0.0160327
0.0159672
0.0158915
0.015814
0.0157437
0.015709
0.0156944
0.0118139
0.0118085
0.011775
0.0117079
0.0116349
0.0115587
0.0114788
0.0114299
0.0113838
0.0114018
0.0114336
0.0114596
0.0114465
0.0114143
0.0113619
0.0113034
0.0112449
0.0111929
0.0111679
0.0111585
0.00711474
0.00711066
0.00708948
0.00704798
0.00700258
0.00695734
0.00690805
0.00687828
0.00684256
0.00684701
0.00685848
0.00686789
0.00685319
0.00683114
0.00679714
0.00676007
0.00672237
0.00668798
0.00667153
0.00666484
0.00238844
0.00238706
0.00237684
0.00235733
0.00233847
0.00232324
0.00230331
0.00229563
0.00227992
0.0022837
0.00228664
0.00229128
0.00228416
0.00227614
0.00226305
0.00224944
0.00223357
0.00221618
0.00220867
0.00220537
-1.65619
-0.717536
-0.44094
-0.136713
0.071412
0.252803
0.407212
0.564512
0.731613
0.810294
-0.59349
-0.14181
-0.102118
0.102682
0.24973
0.381465
0.497105
0.598528
0.635356
0.588667
-0.160577
0.0783151
0.133754
0.277911
0.381494
0.474943
0.55261
0.610413
0.61806
0.628309
0.102676
0.265358
0.305277
0.420492
0.486447
0.55314
0.604456
0.64041
0.651778
0.674148
0.304252
0.417317
0.446579
0.529497
0.574849
0.62288
0.658516
0.684616
0.696016
0.726522
0.458581
0.536792
0.567321
0.618941
0.656911
0.690447
0.716981
0.73848
0.753914
0.781532
0.587001
0.642451
0.669408
0.701221
0.731298
0.756851
0.778313
0.79832
0.813853
0.839833
0.696314
0.736376
0.758658
0.780892
0.803406
0.824039
0.842266
0.860894
0.875945
0.899371
0.794389
0.8243
0.842057
0.858123
0.875192
0.891859
0.90779
0.925112
0.938834
0.961238
0.884855
0.906139
0.921487
0.935061
0.949066
0.963234
0.976911
0.991792
1.00353
1.02325
0.971669
0.987653
1.00181
1.01397
1.02629
1.03819
1.04949
1.0612
1.06875
1.08553
1.05748
1.07058
1.08459
1.09654
1.10727
1.11703
1.12572
1.13375
1.13734
1.14855
1.14728
1.15829
1.17185
1.18106
1.18847
1.19559
1.20279
1.20949
1.21052
1.2179
1.24566
1.25039
1.25843
1.26293
1.2662
1.27074
1.27677
1.28456
1.28852
1.29841
1.35912
1.3454
1.33798
1.33232
1.32964
1.33102
1.33754
1.34999
1.36471
1.39434
1.47998
1.42442
1.39346
1.37633
1.3682
1.36823
1.37692
1.39628
1.42821
1.49739
)
;

boundaryField
{
    wall-4
    {
        type            zeroGradient;
    }
    pressure-outlet-7
    {
        type            fixedValue;
        value           uniform 0;
    }
    velocity-inlet-6
    {
        type            zeroGradient;
    }
    velocity-inlet-5
    {
        type            zeroGradient;
    }
    frontAndBackPlanes
    {
        type            empty;
    }
}


// ************************************************************************* //
