/*--------------------------------*- C++ -*----------------------------------*\
| =========                 |                                                 |
| \\      /  F ield         | OpenFOAM: The Open Source CFD Toolbox           |
|  \\    /   O peration     | Version:  4.0                                   |
|   \\  /    A nd           | Web:      www.OpenFOAM.org                      |
|    \\/     M anipulation  |                                                 |
\*---------------------------------------------------------------------------*/
FoamFile
{
    version     2.0;
    format      ascii;
    class       volScalarField;
    location    "8";
    object      p;
}
// * * * * * * * * * * * * * * * * * * * * * * * * * * * * * * * * * * * * * //

dimensions      [0 2 -2 0 0 0 0];

internalField   nonuniform List<scalar> 
2200
(
0.439463
0.418048
0.402497
0.387082
0.373103
0.361253
0.351521
0.344057
0.338757
0.336023
0.33623
0.339359
0.344941
0.352613
0.362495
0.374447
0.388496
0.403952
0.419528
0.440955
0.370652
0.367635
0.365378
0.36234
0.357884
0.352138
0.34623
0.340861
0.336697
0.334298
0.334539
0.337352
0.341809
0.347393
0.353449
0.359292
0.363812
0.366899
0.369188
0.372214
0.32882
0.329675
0.333077
0.335558
0.33688
0.337102
0.336164
0.334282
0.332285
0.330823
0.331113
0.33302
0.335324
0.33743
0.338533
0.338437
0.337202
0.334774
0.331409
0.330568
0.308317
0.309782
0.313105
0.316134
0.318998
0.321664
0.323474
0.324402
0.324605
0.324567
0.324855
0.325451
0.325641
0.324992
0.323373
0.320826
0.318039
0.315059
0.311778
0.310328
0.300071
0.301571
0.304453
0.307207
0.309963
0.312398
0.314315
0.315909
0.317042
0.317854
0.318213
0.31806
0.317429
0.316178
0.314472
0.312166
0.309499
0.306796
0.303956
0.302464
0.299711
0.300758
0.302754
0.304993
0.307325
0.309226
0.310797
0.312128
0.313196
0.314016
0.314419
0.314294
0.313804
0.312906
0.311624
0.309938
0.307763
0.305603
0.303637
0.302595
0.301154
0.301624
0.30254
0.303832
0.305395
0.306863
0.308263
0.309443
0.310411
0.311127
0.311578
0.311673
0.311405
0.31076
0.309752
0.308566
0.307183
0.305997
0.305118
0.304634
0.29988
0.29995
0.300158
0.300568
0.30126
0.302062
0.303081
0.304225
0.305327
0.30628
0.306949
0.307149
0.306915
0.30636
0.305767
0.305244
0.304725
0.304414
0.304266
0.304208
0.29619
0.296188
0.296209
0.296311
0.296591
0.296992
0.297626
0.298494
0.299538
0.300659
0.301597
0.302044
0.302045
0.301881
0.301707
0.301598
0.301515
0.301524
0.301577
0.301582
0.292292
0.292279
0.292355
0.292532
0.292816
0.2932
0.293742
0.294467
0.295401
0.296533
0.297604
0.298371
0.298744
0.298941
0.299038
0.299082
0.299079
0.299077
0.299079
0.299081
0.288416
0.288455
0.288554
0.288732
0.289083
0.289522
0.290133
0.290949
0.291982
0.293247
0.294522
0.295515
0.296167
0.296603
0.296851
0.296974
0.297014
0.29702
0.297009
0.297001
0.284058
0.284083
0.284189
0.284362
0.284653
0.285107
0.285774
0.286704
0.287938
0.289479
0.291115
0.29241
0.293357
0.293986
0.294375
0.294613
0.294752
0.294833
0.294871
0.29487
0.279103
0.279111
0.27922
0.279414
0.279725
0.280211
0.28095
0.282019
0.283495
0.285403
0.287503
0.289234
0.290489
0.291351
0.291925
0.292301
0.292539
0.292685
0.292761
0.29277
0.273688
0.273699
0.273824
0.274061
0.274447
0.275046
0.275945
0.277244
0.279055
0.281442
0.284094
0.286355
0.288002
0.289134
0.289895
0.290396
0.290712
0.2909
0.290994
0.291003
0.267806
0.267826
0.267978
0.268273
0.268756
0.269507
0.270632
0.27226
0.274532
0.277544
0.280912
0.283797
0.285891
0.287336
0.288314
0.288952
0.289354
0.28959
0.289706
0.289716
0.261274
0.261301
0.261495
0.261865
0.262473
0.26342
0.264839
0.266897
0.269768
0.27358
0.277846
0.281487
0.284127
0.285962
0.287202
0.288012
0.288523
0.288825
0.288973
0.288985
0.253881
0.253916
0.254162
0.254629
0.2554
0.256606
0.258414
0.261036
0.264686
0.269519
0.274911
0.279493
0.282816
0.285129
0.28669
0.28771
0.288353
0.288732
0.288918
0.288934
0.245348
0.245396
0.245722
0.24634
0.247348
0.248905
0.251231
0.254589
0.259247
0.265382
0.272185
0.277938
0.2821
0.284995
0.286946
0.288222
0.289027
0.289505
0.28974
0.289758
0.235455
0.235517
0.235931
0.236721
0.238019
0.240041
0.243057
0.247394
0.253368
0.261163
0.269724
0.276918
0.282111
0.285721
0.288152
0.289738
0.290735
0.291321
0.291605
0.291626
0.223512
0.223619
0.224205
0.225295
0.22705
0.229719
0.233669
0.2393
0.246977
0.256871
0.267601
0.276554
0.283005
0.287487
0.290506
0.29248
0.29373
0.294474
0.29484
0.294866
0.209309
0.209419
0.210155
0.211578
0.213909
0.217484
0.222738
0.230129
0.240029
0.25256
0.265935
0.277008
0.284977
0.290529
0.29428
0.296734
0.298277
0.299179
0.299611
0.299632
0.191271
0.191542
0.192689
0.194754
0.198014
0.202895
0.209953
0.219695
0.232461
0.248255
0.264801
0.278388
0.28817
0.295013
0.299666
0.302735
0.304691
0.305861
0.306443
0.30649
0.16889
0.16916
0.170708
0.173655
0.178368
0.185289
0.194988
0.207942
0.224372
0.244134
0.264415
0.280927
0.292832
0.301236
0.30703
0.310912
0.313406
0.314885
0.315583
0.3156
0.139117
0.139967
0.142656
0.14727
0.154307
0.164223
0.177644
0.194836
0.215841
0.240311
0.264862
0.284678
0.299006
0.309231
0.316407
0.321313
0.32456
0.326588
0.327629
0.327658
0.0998408
0.101099
0.105549
0.113305
0.124548
0.139275
0.157892
0.180543
0.207085
0.236992
0.266308
0.289762
0.306789
0.319117
0.327993
0.334332
0.338702
0.341491
0.343045
0.342947
0.0477342
0.0485395
0.0574168
0.071028
0.0889926
0.110591
0.136115
0.165583
0.198584
0.234536
0.268962
0.296252
0.316155
0.3308
0.341588
0.349532
0.355407
0.359477
0.361299
0.360971
-0.0256166
-0.019584
-0.000133414
0.0234128
0.0500143
0.079762
0.113232
0.150206
0.190292
0.232977
0.273196
0.305049
0.328628
0.34645
0.360158
0.370803
0.379193
0.386124
0.389898
0.390223
-0.113894
-0.0934144
-0.059953
-0.0255714
0.0100573
0.0486762
0.0903729
0.13492
0.182343
0.232197
0.27892
0.316144
0.344131
0.365783
0.382959
0.396953
0.408216
0.416953
0.425696
0.427572
-0.177328
-0.157627
-0.114913
-0.0732035
-0.0286674
0.0188653
0.0685215
0.120559
0.175111
0.231764
0.284505
0.326406
0.357863
0.382154
0.401297
0.416602
0.429616
0.438459
0.446957
0.448859
-0.224444
-0.20656
-0.160148
-0.114493
-0.063206
-0.0085414
0.0479477
0.106846
0.167917
0.23077
0.288832
0.33454
0.368443
0.394222
0.414176
0.429686
0.442614
0.45182
0.459429
0.461139
-0.262991
-0.244572
-0.196211
-0.148449
-0.0923308
-0.0329773
0.0288518
0.0935234
0.160302
0.228767
0.291612
0.340568
0.376373
0.403166
0.423598
0.439311
0.45196
0.46126
0.468755
0.470305
-0.295708
-0.276616
-0.22597
-0.17609
-0.116701
-0.0544632
0.0114316
0.0807418
0.152474
0.226097
0.29348
0.345539
0.383169
0.410972
0.431929
0.447933
0.460475
0.469874
0.477106
0.478935
-0.324053
-0.304897
-0.252391
-0.200037
-0.138001
-0.0735362
-0.00437943
0.0686658
0.144716
0.223104
0.294924
0.350137
0.389689
0.418602
0.44015
0.456459
0.469019
0.478438
0.485549
0.487369
-0.349185
-0.330045
-0.276816
-0.222054
-0.157931
-0.0911882
-0.0191706
0.0570413
0.136931
0.219785
0.296071
0.354618
0.39624
0.426345
0.448531
0.465149
0.477777
0.487197
0.494224
0.496023
-0.372341
-0.352618
-0.299342
-0.242961
-0.177272
-0.10829
-0.0337079
0.0453539
0.128753
0.215866
0.296702
0.358827
0.402784
0.434309
0.457267
0.474274
0.487057
0.496494
0.503427
0.505211
-0.393869
-0.373983
-0.320301
-0.262894
-0.196042
-0.125165
-0.0483928
0.033249
0.119897
0.211166
0.296812
0.362981
0.40964
0.44277
0.466629
0.484096
0.497057
0.506538
0.513413
0.515154
-0.414305
-0.394385
-0.340119
-0.281921
-0.214121
-0.141778
-0.0632375
0.0206494
0.110264
0.205564
0.296174
0.366708
0.416524
0.451702
0.476702
0.494728
0.507962
0.517507
0.524214
0.525873
-0.434004
-0.413848
-0.359056
-0.300168
-0.231537
-0.158073
-0.0781482
0.00758901
0.0998009
0.198898
0.294632
0.370144
0.423732
0.461323
0.487675
0.506439
0.51994
0.52959
0.536285
0.537887
-0.453105
-0.432536
-0.377305
-0.317775
-0.248416
-0.174074
-0.0930845
-0.00589363
0.0885321
0.191236
0.292343
0.37324
0.430998
0.471469
0.499572
0.519027
0.532829
0.542474
0.549084
0.550641
-0.471583
-0.450603
-0.394946
-0.33481
-0.264849
-0.18982
-0.108048
-0.0197794
0.0764314
0.182321
0.28856
0.375226
0.437913
0.481929
0.512145
0.532809
0.547011
0.556719
0.563147
0.564499
-0.489391
-0.468012
-0.411942
-0.351259
-0.280836
-0.205306
-0.12303
-0.03405
0.0634859
0.172193
0.283877
0.376946
0.444893
0.492935
0.525817
0.547751
0.56221
0.571856
0.577988
0.579058
-0.506426
-0.484677
-0.428204
-0.367056
-0.296316
-0.220473
-0.137964
-0.0486168
0.0498269
0.160991
0.277832
0.377431
0.4512
0.503511
0.539713
0.563758
0.579045
0.588373
0.593621
0.594114
-0.522603
-0.500522
-0.443661
-0.382135
-0.311199
-0.23522
-0.152739
-0.0633737
0.0354885
0.148424
0.269923
0.376361
0.456589
0.51435
0.554591
0.581682
0.597709
0.605716
0.609225
0.608279
-0.537888
-0.515499
-0.458274
-0.396444
-0.325411
-0.249457
-0.167257
-0.0782425
0.02055
0.134785
0.261104
0.374655
0.461225
0.523514
0.568053
0.599085
0.618254
0.625815
0.626164
0.62243
-0.552277
-0.529593
-0.472021
-0.409948
-0.338899
-0.263116
-0.181421
-0.0930937
0.00520892
0.120226
0.250487
0.37121
0.4645
0.531981
0.581137
0.618298
0.643543
0.650582
0.64233
0.643801
-0.565737
-0.542804
-0.484891
-0.422625
-0.351631
-0.276139
-0.195126
-0.107789
-0.0104289
0.104628
0.238348
0.366065
0.46566
0.537853
0.590758
0.634792
0.669648
0.68015
0.644908
0.584075
-0.578302
-0.555148
-0.496941
-0.43455
-0.363715
-0.288649
-0.208527
-0.122546
-0.0267199
0.0877185
0.224507
0.359387
0.465486
0.541384
0.596414
0.64521
0.69421
0.737838
0.777047
0.832891
-0.589993
-0.566701
-0.508274
-0.445857
-0.375307
-0.300832
-0.221859
-0.137676
-0.0440945
0.068808
0.207461
0.349973
0.463376
0.541649
0.593876
0.634427
0.669649
0.704569
0.703867
0.705155
-0.600838
-0.577488
-0.51888
-0.456532
-0.386349
-0.3126
-0.234995
-0.152984
-0.062272
0.048155
0.187493
0.338254
0.457645
0.532718
0.576066
0.603776
0.607285
0.58047
0.534252
0.528655
-0.610883
-0.587547
-0.528789
-0.466606
-0.39685
-0.32395
-0.247905
-0.168401
-0.081268
0.0255457
0.164439
0.323759
0.450669
0.515531
0.545806
0.546607
0.507913
0.44044
0.367276
0.358008
-0.620139
-0.596925
-0.538049
-0.476115
-0.406825
-0.334875
-0.260556
-0.183899
-0.100967
0.000882782
0.138004
0.305647
0.439358
0.495688
0.49486
0.45918
0.404602
0.293521
0.195462
0.177568
-0.62893
-0.605908
-0.546974
-0.485323
-0.416534
-0.345599
-0.273147
-0.199702
-0.121473
-0.0259337
0.107324
0.283086
0.426893
0.474477
0.430897
0.358473
0.236241
0.0914845
-0.0356108
-0.0632836
-0.637892
-0.615002
-0.556014
-0.49459
-0.426334
-0.356434
-0.285969
-0.216124
-0.143505
-0.0557391
0.0714454
0.255571
0.413983
0.437907
0.357056
0.225456
0.0223955
-0.16577
-0.31605
-0.34896
-0.647244
-0.624385
-0.565279
-0.503971
-0.436242
-0.367383
-0.299033
-0.233183
-0.167325
-0.0885703
0.0284412
0.219782
0.395839
0.394601
0.270197
0.065961
-0.21202
-0.484752
-0.701619
-0.763431
-0.656888
-0.633981
-0.574665
-0.51338
-0.446126
-0.378306
-0.312162
-0.250697
-0.192596
-0.124239
-0.0234041
0.173141
0.366449
0.334927
0.159824
-0.121535
-0.456849
-0.852479
-1.2544
-1.40028
-0.666773
-0.643714
-0.584107
-0.522764
-0.455888
-0.389072
-0.325186
-0.268557
-0.219638
-0.165605
-0.087717
0.112506
0.318631
0.236985
0.0108066
-0.326749
-0.689661
-1.19039
-1.91435
-2.56112
-0.676904
-0.653536
-0.593524
-0.532024
-0.465381
-0.39947
-0.337868
-0.2863
-0.248162
-0.217245
-0.161853
0.0285362
0.249103
0.115651
-0.182678
-0.567415
-0.91787
-1.33054
-2.13407
-4.09635
-0.68722
-0.663396
-0.602859
-0.541065
-0.474491
-0.409338
-0.350059
-0.303666
-0.277124
-0.27046
-0.257558
-0.0942592
0.149058
-0.0186912
-0.380841
-0.777794
-1.06934
-1.25834
-1.42317
-1.95226
-0.69757
-0.673233
-0.612072
-0.54985
-0.483202
-0.418607
-0.361591
-0.320907
-0.306789
-0.333027
-0.387802
-0.279217
-0.0096001
-0.18434
-0.553075
-0.905821
-1.10782
-1.19886
-1.2169
-1.29429
-0.707745
-0.682895
-0.621021
-0.558217
-0.491313
-0.427021
-0.371843
-0.33741
-0.336731
-0.408899
-0.560252
-0.539935
-0.235731
-0.397562
-0.716641
-0.990162
-1.10586
-1.13237
-1.14113
-1.20705
-0.71757
-0.69218
-0.629488
-0.565936
-0.498549
-0.434229
-0.380228
-0.351509
-0.366558
-0.496067
-0.761993
-0.854703
-0.547967
-0.635537
-0.897687
-1.09652
-1.12665
-1.03489
-1.08663
-1.12909
-0.726917
-0.700934
-0.637279
-0.572789
-0.504588
-0.439798
-0.386148
-0.361121
-0.394425
-0.574078
-0.963886
-1.17535
-0.925966
-0.856574
-1.09937
-1.31564
-1.37836
-1.26725
-1.29422
-1.32474
-0.735728
-0.709034
-0.644275
-0.578565
-0.509163
-0.443206
-0.388778
-0.3646
-0.409642
-0.626173
-1.1195
-1.42985
-1.18399
-1.0251
-1.29053
-1.63985
-1.92938
-1.93881
-1.7995
-1.78161
-0.744333
-0.716569
-0.650382
-0.583164
-0.512052
-0.444061
-0.387553
-0.361227
-0.412741
-0.643025
-1.17355
-1.499
-1.22504
-1.10265
-1.39158
-1.84635
-2.25499
-2.29056
-2.07397
-2.00408
-0.752622
-0.723494
-0.655693
-0.586559
-0.51326
-0.442427
-0.382287
-0.350632
-0.396164
-0.606768
-1.09119
-1.33666
-1.06655
-1.0207
-1.2404
-1.54763
-1.89671
-1.88631
-1.71955
-1.61387
-0.760987
-0.730258
-0.660318
-0.588934
-0.513035
-0.438372
-0.372889
-0.332222
-0.356405
-0.518758
-0.880122
-0.985359
-0.694641
-0.601605
-0.677328
-0.805237
-0.941183
-0.9329
-0.865877
-0.817968
-0.770763
-0.73618
-0.664467
-0.590889
-0.51161
-0.432424
-0.360086
-0.306611
-0.300172
-0.390279
-0.582629
-0.521357
-0.210486
-0.0426916
0.0354604
0.0254242
-0.0282359
-0.0327189
-0.00459775
0.011097
-0.781215
-0.743568
-0.669499
-0.592379
-0.509315
-0.42543
-0.345353
-0.276961
-0.236344
-0.245267
-0.266519
-0.0595132
0.21508
0.406721
0.523706
0.562113
0.572321
0.595957
0.614383
0.622747
-0.788656
-0.752196
-0.674183
-0.593469
-0.506962
-0.418201
-0.330011
-0.246751
-0.174101
-0.111785
-0.0117363
0.270628
0.501355
0.68191
0.796225
0.863242
0.910245
0.945685
0.962607
0.9666
-0.792612
-0.758898
-0.675705
-0.593504
-0.504419
-0.410767
-0.315006
-0.218885
-0.121106
-0.00991119
0.154797
0.440664
0.664051
0.833288
0.94286
1.0162
1.06709
1.10216
1.12105
1.12661
-0.794047
-0.760725
-0.674522
-0.592549
-0.500476
-0.402295
-0.300725
-0.194414
-0.079329
0.060621
0.252382
0.50637
0.721545
0.874644
0.977357
1.04873
1.09885
1.13453
1.1566
1.16429
-0.790118
-0.757816
-0.67159
-0.589315
-0.493065
-0.392053
-0.286799
-0.17338
-0.0481815
0.104491
0.29916
0.51826
0.705572
0.84013
0.936189
1.00561
1.05621
1.09365
1.11952
1.12849
-0.77602
-0.745643
-0.663637
-0.579162
-0.480675
-0.379288
-0.272141
-0.155214
-0.0261442
0.127699
0.31345
0.501001
0.658065
0.775286
0.863785
0.930201
0.980587
1.01883
1.0473
1.05668
-0.748947
-0.722093
-0.643396
-0.557521
-0.461672
-0.362468
-0.255255
-0.13871
-0.0101726
0.13786
0.305399
0.46721
0.600011
0.702018
0.78131
0.842972
0.891399
0.928709
0.957525
0.967205
-0.701269
-0.680461
-0.606076
-0.524159
-0.433698
-0.337567
-0.234526
-0.122307
0.000215469
0.134853
0.288125
0.426063
0.536596
0.623473
0.692252
0.747146
0.791646
0.827009
0.854951
0.865427
-0.631023
-0.615088
-0.547809
-0.473476
-0.391185
-0.303051
-0.20842
-0.105896
0.00573419
0.130058
0.262642
0.377323
0.46775
0.53892
0.59537
0.640659
0.677737
0.707682
0.731868
0.742203
-0.518871
-0.507441
-0.456501
-0.397792
-0.32991
-0.255424
-0.174283
-0.0855329
0.01267
0.122148
0.235295
0.332201
0.407295
0.465348
0.510307
0.54521
0.572422
0.593347
0.609616
0.61685
-0.362383
-0.356047
-0.330313
-0.297023
-0.249273
-0.194666
-0.132351
-0.0604119
0.0220834
0.115446
0.211662
0.293822
0.356703
0.404392
0.440095
0.46656
0.485806
0.49868
0.507787
0.510729
-0.219029
-0.216368
-0.207536
-0.191508
-0.163575
-0.12973
-0.0866334
-0.0316097
0.0337605
0.110168
0.189763
0.257387
0.308291
0.345977
0.372905
0.391594
0.404142
0.411359
0.416451
0.417897
-0.112618
-0.1112
-0.106819
-0.0997411
-0.0867389
-0.0684342
-0.0407033
-0.00200003
0.0468233
0.107218
0.171281
0.225645
0.26585
0.294751
0.314451
0.327352
0.335659
0.340505
0.343234
0.344324
-0.0382911
-0.0386961
-0.0377124
-0.034764
-0.0280012
-0.0173917
-5.87193e-05
0.0255282
0.0607122
0.106981
0.157207
0.199997
0.231141
0.25291
0.267374
0.276685
0.282647
0.28611
0.288205
0.288926
0.0061685
0.00499544
0.00426412
0.00528499
0.00917769
0.0166572
0.02873
0.0468264
0.0726365
0.10754
0.146287
0.179498
0.203507
0.220169
0.231304
0.238513
0.242768
0.244887
0.24569
0.245691
0.0307913
0.0298436
0.0284993
0.0282649
0.0304228
0.0358573
0.0445215
0.0592901
0.0794213
0.106322
0.136424
0.162304
0.18109
0.194191
0.202883
0.20847
0.211274
0.212427
0.212597
0.212366
0.0447069
0.0439629
0.0432431
0.0430754
0.0441409
0.0476708
0.0537431
0.0658812
0.0816413
0.102971
0.126835
0.147302
0.162154
0.172425
0.179016
0.183183
0.185122
0.185915
0.186068
0.18589
0.0542424
0.0537399
0.0536125
0.0537067
0.0544753
0.0569469
0.0610543
0.070296
0.082118
0.098908
0.117847
0.134037
0.14565
0.153524
0.15844
0.161562
0.163064
0.163749
0.163956
0.163844
0.060958
0.060634
0.0606519
0.0607816
0.0614762
0.0634584
0.0664882
0.0734316
0.082068
0.0949227
0.109647
0.122243
0.131187
0.137194
0.140933
0.143359
0.144552
0.145109
0.145293
0.145214
0.0646481
0.0644229
0.0644065
0.064469
0.0650093
0.0665714
0.0689282
0.0744702
0.0809001
0.0906866
0.101982
0.111677
0.118558
0.123201
0.126099
0.128007
0.128919
0.129328
0.129455
0.129389
0.0657296
0.065571
0.0655354
0.065574
0.0659749
0.0671475
0.0689408
0.0733438
0.0782878
0.0858815
0.0946071
0.102104
0.107436
0.111043
0.113281
0.114774
0.115453
0.115746
0.115829
0.115773
0.065037
0.0649338
0.0649143
0.0649778
0.0653178
0.0662406
0.0677351
0.0706741
0.0746491
0.0806289
0.0874429
0.0932821
0.0974268
0.100224
0.101953
0.103051
0.103572
0.103794
0.103855
0.103811
0.0631254
0.0630595
0.063055
0.0631339
0.0634251
0.0641402
0.0653066
0.0674377
0.0705065
0.0751609
0.0804762
0.0850194
0.0882319
0.0903935
0.091731
0.0925302
0.0929341
0.0931052
0.0931507
0.0931169
0.0602712
0.0602261
0.0602251
0.0602983
0.0605368
0.0610882
0.0620026
0.0636066
0.0659728
0.0695626
0.0736843
0.0772014
0.079683
0.0813507
0.0823846
0.0829876
0.0832939
0.0834208
0.0834522
0.0834244
0.0566447
0.0566111
0.0566092
0.0566683
0.0568554
0.0572758
0.0579906
0.0592124
0.0610559
0.0638177
0.0670046
0.0697203
0.0716352
0.0729207
0.0737285
0.074185
0.0744151
0.074507
0.0745273
0.0745047
0.0524295
0.0524031
0.0524014
0.0524486
0.052595
0.0529161
0.0534706
0.0544031
0.0558429
0.0579671
0.0604313
0.0625274
0.0640041
0.0649918
0.0656221
0.065965
0.0661368
0.0662035
0.0662163
0.0661975
0.0477685
0.0477483
0.047746
0.0477815
0.047894
0.0481384
0.048567
0.0492819
0.0503832
0.052021
0.0539242
0.0555373
0.0566742
0.0574436
0.0579078
0.0581723
0.0583038
0.0583539
0.0583629
0.0583471
0.0427517
0.0427356
0.0427346
0.042763
0.0428501
0.0430363
0.043365
0.0439079
0.0447594
0.0460096
0.0474695
0.0487052
0.0495767
0.0501777
0.0505275
0.0507258
0.0508229
0.0508577
0.0508624
0.0508502
0.0374867
0.0374738
0.0374718
0.0374919
0.0375576
0.0376989
0.0379503
0.0383632
0.0390186
0.0399716
0.0410782
0.0420128
0.0426637
0.0431526
0.0434057
0.0435506
0.0436212
0.0436458
0.0436481
0.0436375
0.0320111
0.0320012
0.0319984
0.0320108
0.0320572
0.0321599
0.032346
0.032656
0.0331415
0.0338473
0.034691
0.0353961
0.0358933
0.0362578
0.0364524
0.0365618
0.0366135
0.03663
0.0366302
0.0366216
0.0263762
0.0263675
0.0263651
0.0263744
0.0264086
0.0264836
0.0266178
0.0268393
0.0272177
0.0277248
0.0283556
0.0288843
0.0292512
0.0295127
0.0296518
0.0297282
0.0297627
0.029772
0.0297702
0.0297637
0.0206387
0.0206327
0.020629
0.0206335
0.020656
0.0207079
0.0208024
0.0209821
0.0212389
0.021612
0.0220533
0.0224279
0.022681
0.0228499
0.0229652
0.0230173
0.0230405
0.0230453
0.0230428
0.0230366
0.0148101
0.0148057
0.0148026
0.0148042
0.0148175
0.0148497
0.0149189
0.0150303
0.0151993
0.0154452
0.0157391
0.0159831
0.016151
0.0162683
0.0163398
0.0163764
0.0163899
0.016391
0.016389
0.0163849
0.00891704
0.00891025
0.00890642
0.00890711
0.00891379
0.0089355
0.00897198
0.00903499
0.00913267
0.00927193
0.00943189
0.00956624
0.00966505
0.00973176
0.00977015
0.00978956
0.00979606
0.00979714
0.00979442
0.00979015
0.00298315
0.00298124
0.00297622
0.00296988
0.00296906
0.0029751
0.00298761
0.00300933
0.00304276
0.00308946
0.00314367
0.00319128
0.00322474
0.00324545
0.00325707
0.00326261
0.00326312
0.00325881
0.00325356
0.00325213
-1.72236
-0.701683
-0.430903
-0.10639
0.115881
0.309878
0.474996
0.643611
0.82253
0.903582
-0.603835
-0.116402
-0.0684802
0.149728
0.307454
0.448829
0.573016
0.682193
0.724378
0.674982
-0.138255
0.118876
0.187386
0.3378
0.449427
0.549029
0.631578
0.692688
0.703008
0.710921
0.147704
0.322209
0.368806
0.487737
0.558846
0.628584
0.682544
0.719833
0.732354
0.75419
0.363364
0.485516
0.513477
0.600307
0.647972
0.697188
0.73516
0.762333
0.774736
0.805385
0.525433
0.606422
0.636137
0.690739
0.73079
0.765178
0.793234
0.816014
0.832474
0.859345
0.655638
0.711773
0.740741
0.774384
0.80671
0.83369
0.855341
0.875035
0.889635
0.915266
0.767848
0.809579
0.832857
0.856756
0.879907
0.900433
0.918194
0.935603
0.950009
0.973686
0.868299
0.899125
0.917038
0.933195
0.950069
0.966289
0.982087
1.00005
1.01427
1.03694
0.958674
0.980274
0.995867
1.00877
1.02278
1.03772
1.05247
1.0687
1.08104
1.10056
1.04752
1.06367
1.07742
1.08947
1.10199
1.11404
1.1256
1.13773
1.14568
1.16268
1.13477
1.14713
1.16118
1.17313
1.18386
1.19375
1.20239
1.20984
1.21386
1.22546
1.22311
1.23408
1.24814
1.25798
1.26568
1.27287
1.27991
1.28638
1.28744
1.2952
1.32129
1.32619
1.33485
1.34035
1.34386
1.34831
1.35415
1.36165
1.36505
1.37425
1.4352
1.42172
1.41459
1.40881
1.40601
1.4074
1.41392
1.42646
1.44116
1.47025
1.55678
1.50111
1.46972
1.4519
1.44375
1.44386
1.45272
1.47225
1.50411
1.57398
)
;

boundaryField
{
    wall-4
    {
        type            zeroGradient;
    }
    pressure-outlet-7
    {
        type            fixedValue;
        value           uniform 0;
    }
    velocity-inlet-6
    {
        type            zeroGradient;
    }
    velocity-inlet-5
    {
        type            zeroGradient;
    }
    frontAndBackPlanes
    {
        type            empty;
    }
}


// ************************************************************************* //
