/*--------------------------------*- C++ -*----------------------------------*\
| =========                 |                                                 |
| \\      /  F ield         | OpenFOAM: The Open Source CFD Toolbox           |
|  \\    /   O peration     | Version:  4.0                                   |
|   \\  /    A nd           | Web:      www.OpenFOAM.org                      |
|    \\/     M anipulation  |                                                 |
\*---------------------------------------------------------------------------*/
FoamFile
{
    version     2.0;
    format      ascii;
    class       volVectorField;
    location    "8";
    object      U;
}
// * * * * * * * * * * * * * * * * * * * * * * * * * * * * * * * * * * * * * //

dimensions      [0 1 -1 0 0 0 0];

internalField   nonuniform List<vector> 
2200
(
(0.882537 -0.0301664 0)
(1.007 -0.052172 0)
(1.00265 -0.0348758 0)
(1.00005 -0.0237852 0)
(1.00062 -0.016007 0)
(1.00049 -0.0101257 0)
(1.0003 -0.00632534 0)
(1.0003 -0.00366799 0)
(1.00029 -0.00183147 0)
(1.00008 -0.000620776 0)
(1.00005 0.000655696 0)
(1.0003 0.00187834 0)
(1.0003 0.00372901 0)
(1.00033 0.00638936 0)
(1.00053 0.0101877 0)
(1.00066 0.0160553 0)
(1.00008 0.0238213 0)
(1.00264 0.0349086 0)
(1.00702 0.0521792 0)
(0.882535 0.0301786 0)
(0.705562 -0.0335065 0)
(0.995907 -0.0617869 0)
(1.03652 -0.0573051 0)
(1.02649 -0.0455677 0)
(1.01475 -0.033798 0)
(1.00886 -0.0241798 0)
(1.00542 -0.016076 0)
(1.00296 -0.0100929 0)
(1.00149 -0.00527524 0)
(1.00157 -0.0016991 0)
(1.00145 0.00223918 0)
(1.00148 0.00580165 0)
(1.00297 0.0105614 0)
(1.00537 0.0164741 0)
(1.00876 0.0244985 0)
(1.01462 0.0340726 0)
(1.02638 0.0457745 0)
(1.03642 0.0574422 0)
(0.995807 0.0619045 0)
(0.70546 0.0335265 0)
(0.537443 -0.0199275 0)
(0.970327 -0.0519321 0)
(1.05772 -0.0483586 0)
(1.0547 -0.0440598 0)
(1.03841 -0.037742 0)
(1.02391 -0.0302753 0)
(1.01387 -0.0227547 0)
(1.00856 -0.0156814 0)
(1.00547 -0.00915293 0)
(1.00481 -0.00271899 0)
(1.00466 0.00361463 0)
(1.00529 0.00993411 0)
(1.00833 0.01628 0)
(1.01359 0.0232265 0)
(1.02374 0.0306637 0)
(1.03825 0.038027 0)
(1.05454 0.0443172 0)
(1.05753 0.048584 0)
(0.969934 0.0520657 0)
(0.536955 0.0199572 0)
(0.42815 -0.00893835 0)
(0.924458 -0.0341177 0)
(1.05903 -0.0329615 0)
(1.06961 -0.0327482 0)
(1.05674 -0.0297241 0)
(1.04161 -0.0254186 0)
(1.02949 -0.0209216 0)
(1.02026 -0.0154623 0)
(1.01438 -0.00925249 0)
(1.01183 -0.00258264 0)
(1.01179 0.00378904 0)
(1.01416 0.0102785 0)
(1.02004 0.0164274 0)
(1.02929 0.0218215 0)
(1.04129 0.0262143 0)
(1.05636 0.0304036 0)
(1.06916 0.0332235 0)
(1.05847 0.0332694 0)
(0.923701 0.0342516 0)
(0.427392 0.00898917 0)
(0.373473 -0.0020648 0)
(0.887254 -0.0183052 0)
(1.05212 -0.0192549 0)
(1.07176 -0.0215374 0)
(1.06136 -0.0202951 0)
(1.04802 -0.0183528 0)
(1.03766 -0.0159489 0)
(1.02952 -0.0123786 0)
(1.02365 -0.00787012 0)
(1.0201 -0.00209951 0)
(1.01994 0.00366961 0)
(1.02317 0.00949393 0)
(1.0288 0.0137248 0)
(1.03674 0.0169918 0)
(1.04707 0.0190987 0)
(1.0605 0.0207865 0)
(1.07086 0.0219157 0)
(1.05112 0.019575 0)
(0.886044 0.0185209 0)
(0.372335 0.00214799 0)
(0.355305 0.00119364 0)
(0.862183 -0.00621689 0)
(1.03861 -0.0087043 0)
(1.06381 -0.0131558 0)
(1.05644 -0.0142867 0)
(1.0459 -0.0147269 0)
(1.03715 -0.0136223 0)
(1.03016 -0.0108288 0)
(1.02518 -0.00680738 0)
(1.02226 -0.00149695 0)
(1.02212 0.00385281 0)
(1.02469 0.00887735 0)
(1.02927 0.0125226 0)
(1.03606 0.0149589 0)
(1.04474 0.0158042 0)
(1.05529 0.0151342 0)
(1.0626 0.0137839 0)
(1.03723 0.00918244 0)
(0.860388 0.00650994 0)
(0.353467 -0.00112321 0)
(0.354906 0.0012893 0)
(0.850088 -0.000309933 0)
(1.02555 -0.00229781 0)
(1.05298 -0.00671213 0)
(1.0494 -0.00902286 0)
(1.04212 -0.0106558 0)
(1.03578 -0.0101256 0)
(1.03051 -0.0082878 0)
(1.02643 -0.00512687 0)
(1.02396 -0.000823831 0)
(1.02377 0.00391937 0)
(1.02589 0.00795245 0)
(1.02961 0.0108429 0)
(1.03459 0.0123958 0)
(1.04076 0.0124924 0)
(1.0478 0.0104861 0)
(1.0512 0.00776814 0)
(1.02341 0.00295583 0)
(0.847327 0.000604085 0)
(0.352454 -0.00122203 0)
(0.357607 0.000568243 0)
(0.847701 0.000460995 0)
(1.01936 -0.000442982 0)
(1.04756 -0.00348611 0)
(1.04712 -0.00531132 0)
(1.04304 -0.00678128 0)
(1.03849 -0.00701892 0)
(1.03404 -0.00596913 0)
(1.03034 -0.00360088 0)
(1.02785 -0.000139209 0)
(1.02745 0.00380938 0)
(1.02927 0.00725108 0)
(1.03244 0.00928695 0)
(1.03645 0.00979482 0)
(1.04052 0.00902293 0)
(1.04437 0.00705459 0)
(1.04463 0.00468843 0)
(1.01604 0.00123865 0)
(0.843783 -0.00019177 0)
(0.354459 -0.000465428 0)
(0.35911 2.25145e-06 0)
(0.847581 0.000188657 0)
(1.01673 -0.0004564 0)
(1.04485 -0.00218715 0)
(1.04596 -0.00330585 0)
(1.04382 -0.00419588 0)
(1.04107 -0.00427435 0)
(1.03808 -0.00348484 0)
(1.03523 -0.00175011 0)
(1.03295 0.000871077 0)
(1.03228 0.00380173 0)
(1.03322 0.00608434 0)
(1.03524 0.00717364 0)
(1.03774 0.00719857 0)
(1.04033 0.00651053 0)
(1.04232 0.00504035 0)
(1.04098 0.00343147 0)
(1.01237 0.00130142 0)
(0.842771 0.000282739 0)
(0.35519 4.72935e-05 0)
(0.359388 3.10051e-05 0)
(0.847388 0.00021343 0)
(1.01418 -9.97063e-05 0)
(1.04201 -0.000947728 0)
(1.04369 -0.00160592 0)
(1.04232 -0.00215055 0)
(1.04046 -0.00215321 0)
(1.03839 -0.00152026 0)
(1.03627 -0.000148623 0)
(1.03442 0.00187296 0)
(1.03367 0.00419004 0)
(1.03384 0.00550194 0)
(1.0351 0.0060257 0)
(1.03656 0.0058385 0)
(1.03796 0.00506429 0)
(1.03899 0.00384297 0)
(1.03704 0.00258557 0)
(1.00873 0.00115742 0)
(0.841004 0.000365383 0)
(0.354462 7.88211e-05 0)
(0.359988 0.000173349 0)
(0.847567 0.000370655 0)
(1.01318 0.000517807 0)
(1.04045 0.000177261 0)
(1.04224 -8.46831e-05 0)
(1.04129 -0.000312428 0)
(1.03993 -0.000181331 0)
(1.03831 0.000356818 0)
(1.03653 0.00143907 0)
(1.03486 0.00296664 0)
(1.03393 0.00460813 0)
(1.03385 0.00549404 0)
(1.03422 0.00541216 0)
(1.03484 0.00502879 0)
(1.03552 0.00416891 0)
(1.03599 0.00306842 0)
(1.03374 0.00198993 0)
(1.00563 0.000933978 0)
(0.83908 0.000269656 0)
(0.353549 3.72373e-05 0)
(0.361218 0.000194248 0)
(0.848234 0.000496301 0)
(1.01331 0.000707076 0)
(1.0404 0.000796623 0)
(1.04225 0.000870358 0)
(1.04165 0.001071 0)
(1.04065 0.00146493 0)
(1.03932 0.00209238 0)
(1.0377 0.00301896 0)
(1.036 0.00419977 0)
(1.03467 0.00513073 0)
(1.03397 0.00565765 0)
(1.03381 0.0053263 0)
(1.03393 0.00465479 0)
(1.0341 0.00375122 0)
(1.03415 0.0027582 0)
(1.03166 0.00182657 0)
(1.0036 0.000986463 0)
(0.837634 0.00036184 0)
(0.352971 8.6136e-05 0)
(0.362543 0.000174082 0)
(0.849624 0.000587521 0)
(1.01393 0.000931957 0)
(1.04104 0.00124704 0)
(1.0431 0.00167955 0)
(1.04264 0.00220315 0)
(1.04176 0.00287079 0)
(1.04053 0.00367804 0)
(1.03891 0.00460637 0)
(1.03702 0.00558747 0)
(1.0353 0.00612789 0)
(1.03401 0.00615909 0)
(1.03334 0.00564554 0)
(1.03301 0.00477916 0)
(1.0328 0.00381601 0)
(1.03256 0.00285378 0)
(1.02993 0.00197284 0)
(1.00183 0.00119529 0)
(0.836057 0.000538356 0)
(0.352 0.000149353 0)
(0.364047 0.000217808 0)
(0.851426 0.000733564 0)
(1.01533 0.00131688 0)
(1.04232 0.00190626 0)
(1.04436 0.00258714 0)
(1.04387 0.00337088 0)
(1.04294 0.00428492 0)
(1.04162 0.00529903 0)
(1.03984 0.00633424 0)
(1.03759 0.00723543 0)
(1.03534 0.00757211 0)
(1.0336 0.00710964 0)
(1.03241 0.0064056 0)
(1.03164 0.00534222 0)
(1.03116 0.00424981 0)
(1.03072 0.00320828 0)
(1.02798 0.00226515 0)
(0.999814 0.00143007 0)
(0.834053 0.00068251 0)
(0.350612 0.000187415 0)
(0.365995 0.000291932 0)
(0.853768 0.00095642 0)
(1.01726 0.00178324 0)
(1.04406 0.00263877 0)
(1.04602 0.00358686 0)
(1.04545 0.00466312 0)
(1.0444 0.00586263 0)
(1.04287 0.0071373 0)
(1.04076 0.00835928 0)
(1.03801 0.00928586 0)
(1.03508 0.00947803 0)
(1.03273 0.00876591 0)
(1.03108 0.00766755 0)
(1.02995 0.00633282 0)
(1.02921 0.00502206 0)
(1.0286 0.00380023 0)
(1.02576 0.00270585 0)
(0.997454 0.00173205 0)
(0.831609 0.000840545 0)
(0.348888 0.000230407 0)
(0.368546 0.000377654 0)
(0.856898 0.00123362 0)
(1.01996 0.00232029 0)
(1.04653 0.00344022 0)
(1.04838 0.00470397 0)
(1.04766 0.00612871 0)
(1.04638 0.00769632 0)
(1.04452 0.0093205 0)
(1.04192 0.0108191 0)
(1.03849 0.0118546 0)
(1.03474 0.0119186 0)
(1.03166 0.010925 0)
(1.02946 0.00942402 0)
(1.02793 0.00774931 0)
(1.02692 0.00612625 0)
(1.02613 0.00463829 0)
(1.02314 0.00331786 0)
(0.994636 0.00214294 0)
(0.828626 0.00105171 0)
(0.346755 0.000290251 0)
(0.371843 0.000484531 0)
(0.860929 0.00158947 0)
(1.02338 0.0030053 0)
(1.04966 0.00449676 0)
(1.05135 0.00614319 0)
(1.05042 0.00799613 0)
(1.04885 0.00999778 0)
(1.04652 0.0120465 0)
(1.04326 0.0138939 0)
(1.03895 0.0150895 0)
(1.03417 0.0150213 0)
(1.0302 0.0136863 0)
(1.02734 0.0117441 0)
(1.02537 0.00964399 0)
(1.02407 0.00762377 0)
(1.02309 0.00578399 0)
(1.01995 0.00415247 0)
(0.991188 0.00269086 0)
(0.824909 0.00132603 0)
(0.344072 0.000365678 0)
(0.376044 0.000635704 0)
(0.866137 0.00202567 0)
(1.02803 0.00383219 0)
(1.05397 0.0056708 0)
(1.05544 0.00783135 0)
(1.05419 0.0102193 0)
(1.05214 0.0128243 0)
(1.04916 0.0154531 0)
(1.045 0.017777 0)
(1.03951 0.019208 0)
(1.03346 0.0189972 0)
(1.0284 0.0172207 0)
(1.02476 0.0147188 0)
(1.02224 0.0120503 0)
(1.02056 0.00949568 0)
(1.01932 0.00718413 0)
(1.01596 0.00514738 0)
(0.986851 0.00333907 0)
(0.82026 0.00164937 0)
(0.340724 0.000456502 0)
(0.381698 0.000824539 0)
(0.872885 0.00273203 0)
(1.03363 0.00509999 0)
(1.05913 0.00761859 0)
(1.06034 0.0103383 0)
(1.05871 0.0133752 0)
(1.05609 0.0166188 0)
(1.05226 0.0198809 0)
(1.04694 0.022723 0)
(1.03996 0.0243866 0)
(1.03229 0.0239693 0)
(1.02588 0.0216443 0)
(1.0213 0.0184712 0)
(1.01814 0.0151305 0)
(1.01606 0.0119544 0)
(1.01458 0.00908745 0)
(1.01102 0.00654979 0)
(0.981496 0.00426467 0)
(0.814431 0.00210118 0)
(0.336489 0.000569249 0)
(0.388672 0.00113239 0)
(0.8816 0.00334395 0)
(1.0415 0.00636195 0)
(1.06638 0.00936684 0)
(1.06713 0.0130347 0)
(1.06487 0.0170185 0)
(1.06137 0.0213063 0)
(1.05635 0.0255254 0)
(1.04948 0.0290981 0)
(1.04059 0.0310698 0)
(1.03097 0.030369 0)
(1.02298 0.02731 0)
(1.01724 0.023238 0)
(1.01328 0.0189664 0)
(1.01062 0.0148985 0)
(1.00873 0.0112239 0)
(1.00477 0.00799477 0)
(0.974645 0.00514228 0)
(0.807057 0.0025286 0)
(0.331299 0.000709199 0)
(0.3989 0.00146312 0)
(0.892948 0.00499834 0)
(1.05088 0.0089687 0)
(1.07508 0.0131493 0)
(1.07539 0.0176294 0)
(1.07239 0.0225558 0)
(1.06776 0.0277842 0)
(1.06116 0.0329024 0)
(1.05226 0.037138 0)
(1.04096 0.0392957 0)
(1.02886 0.0381497 0)
(1.01885 0.0341857 0)
(1.0117 0.0290636 0)
(1.00676 0.0237692 0)
(1.00346 0.018784 0)
(1.0012 0.0143228 0)
(0.996973 0.0103897 0)
(0.966328 0.00683931 0)
(0.79818 0.00337196 0)
(0.324695 0.00087716 0)
(0.411138 0.00212726 0)
(0.908634 0.00569405 0)
(1.06417 0.0110316 0)
(1.08706 0.0162816 0)
(1.08633 0.0225859 0)
(1.08205 0.0292442 0)
(1.07577 0.0361531 0)
(1.06703 0.0426175 0)
(1.05555 0.0477025 0)
(1.0413 0.0499968 0)
(1.02637 0.0481703 0)
(1.01414 0.0430066 0)
(1.00537 0.0365251 0)
(0.999267 0.0298161 0)
(0.995154 0.0234156 0)
(0.992266 0.0175922 0)
(0.987361 0.0124334 0)
(0.955376 0.00786769 0)
(0.785897 0.0038125 0)
(0.316523 0.00110226 0)
(0.429898 0.00301817 0)
(0.927329 0.00968399 0)
(1.08083 0.0163586 0)
(1.10231 0.0232365 0)
(1.10039 0.0308523 0)
(1.09437 0.0390604 0)
(1.0857 0.0473986 0)
(1.07404 0.0550786 0)
(1.05918 0.0607881 0)
(1.04126 0.0629212 0)
(1.02282 0.0601231 0)
(1.00779 0.0534989 0)
(0.996953 0.0454433 0)
(0.989312 0.0372319 0)
(0.984053 0.0295102 0)
(0.980368 0.022572 0)
(0.97493 0.0164789 0)
(0.942715 0.0109537 0)
(0.773333 0.00545794 0)
(0.306664 0.00139547 0)
(0.455934 0.00430963 0)
(0.95812 0.0113105 0)
(1.10323 0.0215386 0)
(1.1223 0.0309692 0)
(1.11795 0.0421468 0)
(1.10913 0.0526875 0)
(1.09704 0.0630795 0)
(1.08153 0.071844 0)
(1.06254 0.0778137 0)
(1.04038 0.0792913 0)
(1.01809 0.0750092 0)
(1.00009 0.0665313 0)
(0.987096 0.0566353 0)
(0.977876 0.0466036 0)
(0.971461 0.036998 0)
(0.966872 0.0281669 0)
(0.960245 0.0200625 0)
(0.924756 0.012737 0)
(0.751825 0.00605242 0)
(0.292863 0.00167577 0)
(0.4891 0.00858509 0)
(0.990784 0.0215552 0)
(1.13334 0.0334711 0)
(1.14808 0.0459651 0)
(1.14003 0.0590603 0)
(1.12679 0.072002 0)
(1.11018 0.0837674 0)
(1.08983 0.0931373 0)
(1.06594 0.0987775 0)
(1.03892 0.0989615 0)
(1.01234 0.0926957 0)
(0.990958 0.0820508 0)
(0.975338 0.0700673 0)
(0.963961 0.0580682 0)
(0.955722 0.0466929 0)
(0.949516 0.0361707 0)
(0.941588 0.026949 0)
(0.906031 0.0182402 0)
(0.73407 0.00912468 0)
(0.280185 0.00218554 0)
(0.573204 0.0126573 0)
(1.05347 0.0297826 0)
(1.17167 0.0504305 0)
(1.18127 0.0680968 0)
(1.16583 0.0853632 1.14534e-34)
(1.14666 0.0998182 -6.5916e-35)
(1.12388 0.111893 0)
(1.09746 0.120783 0)
(1.06782 0.124885 0)
(1.03541 0.122776 0)
(1.00421 0.113751 0)
(0.979277 0.10047 0)
(0.960941 0.086292 0)
(0.947333 0.072397 0)
(0.937228 0.0592897 0)
(0.929418 0.0470631 0)
(0.91902 0.0348812 0)
(0.877185 0.023602 0)
(0.6911 0.0114619 0)
(0.252173 0.00231515 0)
(0.627429 0.0293887 -4.47995e-21)
(1.12426 0.0566966 2.70537e-21)
(1.21717 0.083224 0)
(1.21576 0.106486 2.81911e-21)
(1.19223 0.123926 -2.27737e-21)
(1.16627 0.137315 6.95427e-35)
(1.13654 0.148724 0)
(1.10375 0.155769 5.50663e-21)
(1.06803 0.157488 -1.93499e-20)
(1.02981 0.15262 4.2273e-21)
(0.993506 0.140691 0)
(0.964381 0.124853 -1.33391e-20)
(0.942481 0.108558 -1.6668e-20)
(0.925652 0.0927486 2.93239e-20)
(0.912442 0.0777079 -2.3537e-20)
(0.90139 0.0639826 0)
(0.887229 0.0519058 -9.03452e-21)
(0.838053 0.0359733 0)
(0.652284 0.02545 -4.92429e-20)
(0.234254 0.00705632 5.87209e-20)
(0.643152 0.0559689 -1.47251e-21)
(1.16125 0.107229 -3.84033e-20)
(1.25775 0.137735 1.17084e-20)
(1.2473 0.157611 1.18208e-20)
(1.21691 0.170713 -3.77954e-21)
(1.18343 0.183091 6.71403e-21)
(1.14693 0.192698 0)
(1.10781 0.197489 0)
(1.0658 0.197037 3.00423e-20)
(1.02126 0.189768 0)
(0.978923 0.175581 4.57303e-20)
(0.944404 0.158215 1.43098e-20)
(0.91764 0.141187 4.91494e-22)
(0.896195 0.125344 -3.26633e-20)
(0.878478 0.111044 0)
(0.863146 0.0977515 0)
(0.845696 0.0863274 -1.52822e-19)
(0.802703 0.075928 3.8708e-19)
(0.6353 0.0533241 -2.28825e-19)
(0.233863 0.0221292 -2.76337e-19)
(0.641177 0.0965308 7.568e-20)
(1.18884 0.17313 -2.11956e-20)
(1.28817 0.207753 -4.9472e-21)
(1.27327 0.218543 -2.38836e-20)
(1.23661 0.226762 1.34924e-20)
(1.19619 0.235689 -1.19852e-20)
(1.15371 0.241375 7.79628e-21)
(1.10856 0.242949 0)
(1.06067 0.23959 -6.16801e-20)
(1.01032 0.229497 6.6697e-20)
(0.962555 0.213002 -1.24647e-19)
(0.92343 0.19436 6.05316e-20)
(0.892892 0.177084 -4.42156e-20)
(0.868295 0.161774 9.7219e-20)
(0.848009 0.148611 0)
(0.830723 0.137839 -3.78832e-20)
(0.81289 0.124925 0)
(0.773111 0.118924 2.20108e-19)
(0.624457 0.0868123 -5.21942e-19)
(0.241647 0.0379871 3.29483e-19)
(0.623745 0.127641 -3.5372e-19)
(1.19909 0.236899 1.4046e-19)
(1.30602 0.28046 2.14245e-20)
(1.28982 0.283506 0)
(1.24871 0.287992 1.21239e-20)
(1.20349 0.292365 -1.24237e-20)
(1.15638 0.293057 -7.69703e-21)
(1.10615 0.290775 0)
(1.05341 0.283814 4.33859e-20)
(0.998287 0.270526 -4.58169e-20)
(0.946239 0.25154 1.07848e-19)
(0.903854 0.231458 0)
(0.871108 0.213666 -9.25779e-20)
(0.845141 0.19845 5.13048e-20)
(0.824173 0.185654 1.38116e-19)
(0.806728 0.175793 -1.21307e-19)
(0.790145 0.164007 2.01652e-19)
(0.752273 0.156221 -4.49906e-19)
(0.612951 0.120207 2.86471e-19)
(0.243071 0.0509223 -3.62029e-19)
(0.602455 0.155681 2.17344e-19)
(1.19584 0.295798 -1.60013e-19)
(1.3128 0.349014 6.66348e-20)
(1.29689 0.347758 -9.01302e-20)
(1.25274 0.350415 5.91126e-20)
(1.20527 0.350009 -9.06676e-21)
(1.15501 0.34593 3.94289e-21)
(1.10113 0.339592 -2.98525e-20)
(1.0447 0.328695 -4.232e-20)
(0.985783 0.311974 -9.64039e-20)
(0.93039 0.290227 -2.317e-19)
(0.885678 0.268338 -7.74118e-20)
(0.851626 0.249526 2.85505e-21)
(0.825088 0.233797 -1.81696e-19)
(0.804035 0.220779 -6.25091e-21)
(0.786831 0.210632 1.77063e-19)
(0.771017 0.200001 -5.49913e-20)
(0.735091 0.189892 -3.24631e-20)
(0.600764 0.14943 0)
(0.239985 0.0625328 7.64364e-19)
(0.582907 0.182548 0)
(1.18602 0.352158 4.89508e-20)
(1.31136 0.41398 3.28785e-20)
(1.29617 0.409218 -1.17487e-20)
(1.25013 0.410774 -7.2674e-20)
(1.202 0.405984 1.2767e-20)
(1.14966 0.398137 4.59265e-21)
(1.09343 0.387968 5.27072e-20)
(1.03426 0.37328 -2.48672e-20)
(0.972318 0.353123 4.33732e-20)
(0.91417 0.328413 1.24444e-19)
(0.867562 0.304348 1.71153e-19)
(0.832484 0.284058 -1.06498e-19)
(0.805493 0.267337 1.96778e-19)
(0.784358 0.253669 -1.58016e-19)
(0.767347 0.242808 0)
(0.751818 0.232581 -4.21375e-19)
(0.717636 0.220075 5.66547e-19)
(0.587019 0.175711 4.32844e-20)
(0.235477 0.0723362 -8.03571e-19)
(0.566959 0.207945 -7.56717e-21)
(1.17398 0.406583 -3.3638e-19)
(1.30482 0.476454 -2.47283e-19)
(1.29004 0.46804 2.04462e-19)
(1.24305 0.467937 -4.19771e-20)
(1.19464 0.459171 2.12484e-20)
(1.14084 0.448479 -3.42003e-21)
(1.08312 0.434928 -5.60894e-21)
(1.02191 0.416848 -8.72419e-20)
(0.957537 0.393372 1.53424e-21)
(0.89701 0.365584 -1.34484e-19)
(0.848723 0.339094 -1.82049e-19)
(0.812776 0.317031 1.20196e-19)
(0.785478 0.298986 -7.06032e-20)
(0.764346 0.284328 1.72248e-19)
(0.747593 0.272547 0)
(0.732402 0.262043 -2.61615e-19)
(0.699729 0.247645 3.87247e-19)
(0.572635 0.19876 7.49595e-19)
(0.229954 0.0814927 -8.72926e-19)
(0.555745 0.232268 -6.43504e-19)
(1.16153 0.457782 3.23149e-19)
(1.29494 0.535101 2.4157e-19)
(1.28035 0.524612 -2.21699e-19)
(1.23332 0.521975 1.0371e-20)
(1.18445 0.509668 6.05681e-20)
(1.12957 0.496432 -4.01777e-21)
(1.07083 0.479809 -1.82648e-20)
(1.00807 0.458755 -5.24761e-20)
(0.941824 0.432296 9.33209e-20)
(0.879333 0.401615 1.26794e-19)
(0.829599 0.37257 2.85337e-19)
(0.792835 0.348371 0)
(0.765145 0.328619 5.80073e-21)
(0.744062 0.312667 -4.80735e-19)
(0.727594 0.299742 1.10645e-19)
(0.712674 0.288461 5.63726e-19)
(0.681172 0.272499 -1.64105e-19)
(0.55772 0.219146 3.60703e-19)
(0.223617 0.0895542 -2.79316e-20)
(0.547864 0.255087 8.91504e-21)
(1.14847 0.505501 2.99098e-19)
(1.28257 0.589203 1.84032e-19)
(1.26848 0.578157 -3.98718e-19)
(1.22186 0.572934 2.50738e-19)
(1.17248 0.557661 -7.69894e-20)
(1.11691 0.541935 5.42125e-22)
(1.05738 0.522539 4.01223e-20)
(0.993384 0.49894 9.4201e-20)
(0.925464 0.469828 -1.18585e-19)
(0.860893 0.436301 0)
(0.809415 0.404582 -1.13122e-19)
(0.771836 0.378218 1.29874e-19)
(0.744183 0.356618 1.7561e-19)
(0.72327 0.339085 -1.00924e-19)
(0.707211 0.324863 -2.54825e-19)
(0.692985 0.312662 -7.77232e-20)
(0.662716 0.295103 -1.80387e-21)
(0.542611 0.237285 0)
(0.216534 0.0964275 0)
(0.541732 0.276956 -3.17835e-19)
(1.13555 0.549969 0)
(1.26864 0.639187 2.11617e-19)
(1.25526 0.628185 -9.79779e-20)
(1.20907 0.620697 -2.62711e-19)
(1.15936 0.603085 7.23052e-20)
(1.10347 0.585053 -6.55009e-21)
(1.04336 0.563205 -1.88279e-20)
(0.978435 0.53734 5.67261e-20)
(0.909223 0.505919 -4.83705e-20)
(0.843112 0.470006 7.06547e-20)
(0.790381 0.435706 3.53643e-19)
(0.751705 0.40656 1.42903e-20)
(0.722938 0.382547 -1.79824e-19)
(0.701944 0.363133 3.4907e-19)
(0.686085 0.347453 4.79582e-21)
(0.67181 0.33374 8.31553e-20)
(0.642351 0.314482 -4.08913e-19)
(0.52596 0.252772 4.19743e-19)
(0.208577 0.101971 -4.93924e-19)
(0.536544 0.298036 8.95139e-23)
(1.12283 0.591345 0)
(1.25374 0.685609 0)
(1.24113 0.674655 9.10585e-20)
(1.19519 0.66521 1.03754e-19)
(1.14541 0.64574 -6.09894e-20)
(1.08948 0.625652 3.63841e-20)
(1.02899 0.601651 0)
(0.963295 0.57381 -9.3381e-20)
(0.892601 0.540495 1.72271e-19)
(0.823888 0.502389 2.15269e-19)
(0.768135 0.465532 -1.33833e-19)
(0.728182 0.434096 -1.69235e-19)
(0.700218 0.407643 4.01444e-19)
(0.679477 0.386093 -1.23736e-19)
(0.664216 0.368273 -1.50445e-19)
(0.651307 0.35343 -9.29287e-20)
(0.622974 0.332265 -4.46982e-19)
(0.509049 0.266384 6.13651e-20)
(0.199701 0.106165 5.3987e-19)
(0.531874 0.31781 -1.28402e-19)
(1.11007 0.629739 -1.95968e-19)
(1.23835 0.728789 2.32972e-20)
(1.22643 0.717759 3.16357e-22)
(1.18062 0.706609 3.44758e-20)
(1.13097 0.685555 -1.6545e-19)
(1.07514 0.663668 0)
(1.01452 0.637856 1.35286e-20)
(0.948369 0.608437 -1.0668e-20)
(0.876853 0.573748 2.65289e-19)
(0.807297 0.534139 -5.59674e-20)
(0.751046 0.494923 6.07265e-20)
(0.708961 0.460077 0)
(0.677525 0.430734 -2.19811e-19)
(0.656216 0.406036 2.77095e-19)
(0.64101 0.386795 0)
(0.627656 0.369629 -2.04969e-19)
(0.600678 0.346235 5.98738e-19)
(0.490722 0.276833 7.30298e-20)
(0.189978 0.108951 -6.75038e-19)
(0.527549 0.336278 -2.8606e-19)
(1.0974 0.665586 3.58154e-19)
(1.22293 0.769001 0)
(1.21144 0.757817 2.27449e-19)
(1.16575 0.74508 0)
(1.11629 0.722598 1.54618e-19)
(1.06069 0.699103 0)
(1.00013 0.671769 0)
(0.933739 0.64108 -3.13187e-20)
(0.861102 0.605348 -2.59311e-19)
(0.788196 0.564471 -4.00586e-19)
(0.726242 0.523569 7.83407e-20)
(0.682294 0.486738 2.9653e-19)
(0.65279 0.453484 2.50631e-19)
(0.631296 0.426967 -8.92404e-19)
(0.616464 0.403761 -3.70363e-19)
(0.604655 0.384916 2.1501e-19)
(0.577716 0.359877 0)
(0.470497 0.285807 6.35291e-19)
(0.178702 0.110038 -7.38102e-19)
(0.523412 0.353607 3.17884e-19)
(1.08484 0.699144 -3.93624e-19)
(1.20765 0.806424 0)
(1.19634 0.795112 -8.95021e-21)
(1.15083 0.780853 -9.37647e-20)
(1.10162 0.757056 0)
(1.04635 0.732116 -1.35638e-20)
(0.985991 0.703482 1.81878e-20)
(0.919517 0.671799 -3.6701e-20)
(0.8462 0.635594 2.41469e-20)
(0.772485 0.59486 0)
(0.710902 0.552648 3.11687e-19)
(0.662842 0.512369 6.61062e-21)
(0.627644 0.476821 1.37257e-19)
(0.605285 0.443397 1.64976e-19)
(0.591083 0.41883 0)
(0.579773 0.397714 -3.69358e-19)
(0.555133 0.367916 7.24211e-19)
(0.449757 0.290646 -7.80511e-19)
(0.166806 0.109601 1.61985e-18)
(0.519397 0.369965 0)
(1.07254 0.730781 0)
(1.19264 0.84127 -2.11671e-19)
(1.18129 0.829868 0)
(1.13604 0.814067 0)
(1.08711 0.789075 2.26721e-19)
(1.03229 0.76278 -1.76253e-20)
(0.972311 0.732986 1.56555e-20)
(0.906175 0.700552 -1.30929e-21)
(0.83279 0.664388 0)
(0.757073 0.623542 -6.52698e-20)
(0.688439 0.580102 -2.59362e-19)
(0.637359 0.538003 -3.29523e-19)
(0.600836 0.497085 -1.3876e-19)
(0.577086 0.464227 1.84698e-19)
(0.562187 0.432602 -4.40212e-19)
(0.551132 0.405504 8.07667e-19)
(0.526793 0.375669 1.30691e-20)
(0.426315 0.294489 -7.58454e-19)
(0.152801 0.107129 -1.12646e-19)
(0.51545 0.385497 0)
(1.06044 0.760477 -3.02633e-19)
(1.17783 0.873611 2.38735e-19)
(1.16632 0.86222 0)
(1.12146 0.844894 0)
(1.07286 0.818801 -5.02034e-19)
(1.01859 0.791242 0)
(0.959127 0.760394 0)
(0.893355 0.727385 -4.82994e-20)
(0.819202 0.691369 4.87521e-20)
(0.740524 0.651727 -5.03226e-19)
(0.670326 0.609764 0)
(0.614006 0.56637 -3.63715e-19)
(0.573905 0.522931 1.37387e-20)
(0.546412 0.47795 -5.94454e-19)
(0.531946 0.441474 2.3938e-19)
(0.524697 0.415529 6.68953e-21)
(0.502569 0.380185 -8.75763e-19)
(0.403643 0.29324 4.16726e-19)
(0.139591 0.102842 1.20511e-19)
(0.511632 0.400247 0)
(1.04868 0.78843 -3.58258e-19)
(1.16334 0.903675 2.51238e-19)
(1.15162 0.892302 5.28721e-19)
(1.10717 0.873436 1.08623e-19)
(1.05892 0.846338 -7.78679e-20)
(1.00529 0.817558 4.81443e-20)
(0.946442 0.785746 -1.09757e-19)
(0.881377 0.752328 5.16648e-20)
(0.807914 0.71739 2.69586e-19)
(0.72976 0.68098 4.16228e-19)
(0.653998 0.638916 8.3055e-20)
(0.590733 0.593142 5.28676e-19)
(0.543679 0.544632 3.4998e-19)
(0.514935 0.499637 4.3023e-19)
(0.496504 0.460161 -2.71989e-19)
(0.48526 0.422221 -3.26149e-19)
(0.467371 0.379714 3.84824e-19)
(0.373834 0.289356 -2.32927e-19)
(0.12641 0.0955896 3.99561e-19)
(0.507926 0.414304 4.89772e-19)
(1.03719 0.814568 5.67545e-19)
(1.14909 0.931532 1.35858e-19)
(1.13715 0.920232 1.39132e-20)
(1.09315 0.899868 -3.75679e-19)
(1.04534 0.871816 1.45681e-19)
(0.992408 0.841873 -5.52262e-20)
(0.934372 0.809146 -2.4548e-20)
(0.870347 0.775433 -2.81485e-20)
(0.797469 0.741384 -3.04348e-19)
(0.716678 0.705611 2.3579e-20)
(0.636952 0.667898 0)
(0.568044 0.623478 0)
(0.511587 0.572466 -1.76845e-19)
(0.472674 0.522148 -7.13375e-19)
(0.45563 0.467526 5.9083e-19)
(0.453822 0.415104 3.65804e-19)
(0.439688 0.36676 0)
(0.357999 0.272274 7.54135e-19)
(0.116638 0.0817217 -4.42003e-19)
(0.504452 0.427564 -2.59783e-19)
(1.02612 0.839098 2.18347e-19)
(1.13527 0.957441 -3.06466e-19)
(1.12309 0.946155 -3.30867e-19)
(1.07953 0.924314 -1.47694e-19)
(1.03213 0.895349 3.44526e-20)
(0.979984 0.864246 0)
(0.922859 0.830652 1.6259e-19)
(0.859951 0.796603 1.30807e-20)
(0.787873 0.76344 0)
(0.707367 0.733272 0)
(0.623384 0.697397 6.11886e-20)
(0.545959 0.65191 9.6666e-20)
(0.487791 0.603597 -1.93243e-19)
(0.446915 0.5442 5.15303e-19)
(0.41862 0.474546 -6.50756e-19)
(0.398947 0.419302 -7.92289e-19)
(0.395173 0.357717 7.1032e-19)
(0.341765 0.265312 -2.73473e-19)
(0.169275 0.126613 1.5371e-19)
(0.500936 0.440148 2.97999e-19)
(1.01536 0.86199 0)
(1.12175 0.981452 0)
(1.10935 0.970201 -1.1167e-19)
(1.06624 0.946947 9.02386e-20)
(1.01933 0.917076 -1.88073e-20)
(0.967956 0.884827 -2.16609e-19)
(0.911847 0.850364 -2.50714e-19)
(0.850354 0.815978 -2.00647e-20)
(0.779921 0.784835 -2.48486e-20)
(0.699031 0.758359 6.52449e-20)
(0.611424 0.728074 -4.96971e-19)
(0.524264 0.690162 -5.72357e-19)
(0.444712 0.631822 -1.03918e-19)
(0.386863 0.559235 0)
(0.353585 0.499845 -1.51398e-20)
(0.349454 0.408693 4.29885e-19)
(0.338536 0.277471 -7.58147e-19)
(0.331027 0.117891 5.60343e-19)
(0.110434 -0.0386755 4.55712e-19)
(0.497625 0.452368 -6.42653e-19)
(1.005 0.883505 -2.71108e-19)
(1.10867 1.00394 2.96243e-21)
(1.09599 0.992686 1.40681e-19)
(1.05324 0.968123 0)
(1.00673 0.937413 4.34386e-19)
(0.956124 0.904065 2.71971e-19)
(0.901099 0.86875 -4.91623e-20)
(0.841315 0.834124 2.79064e-20)
(0.772818 0.804207 -2.25545e-20)
(0.692565 0.782614 2.09527e-20)
(0.601219 0.761471 4.41113e-19)
(0.505656 0.724663 5.584e-19)
(0.428061 0.662726 1.01286e-19)
(0.365093 0.613381 5.50609e-19)
(0.30564 0.532114 0)
(0.217406 0.428461 0)
(0.0985634 0.403267 5.52691e-19)
(-0.0235981 0.649803 -2.91328e-20)
(-0.00847595 1.41933 -7.09267e-19)
(0.494472 0.464064 3.46324e-19)
(0.994959 0.903795 8.0804e-19)
(1.09581 1.02501 -1.20258e-18)
(1.08282 1.01387 7.24735e-19)
(1.04039 0.988156 -8.66325e-20)
(0.99427 0.956705 5.63016e-19)
(0.94434 0.922316 0)
(0.890458 0.886173 2.59068e-19)
(0.832604 0.85135 0)
(0.766939 0.823323 1.3899e-19)
(0.689402 0.808212 -3.91021e-20)
(0.593945 0.795619 4.38449e-20)
(0.486046 0.760145 6.46129e-19)
(0.379647 0.712039 -2.29714e-19)
(0.275191 0.650296 -2.86814e-19)
(0.198869 0.602485 0)
(0.117326 0.673383 0)
(0.0661681 1.15891 0)
(0.0957025 2.36695 -3.13686e-19)
(0.124409 2.86281 -1.92998e-19)
(0.491467 0.475177 0)
(0.985353 0.922849 0)
(1.08347 1.04484 4.28715e-19)
(1.07009 1.03379 -6.04138e-19)
(1.02785 1.00703 4.17325e-19)
(0.981978 0.974906 -5.16772e-19)
(0.932705 0.939525 -3.27356e-20)
(0.880004 0.902505 2.54897e-20)
(0.824308 0.867339 -2.55295e-21)
(0.76155 0.841432 -1.57973e-19)
(0.687066 0.834143 5.39327e-20)
(0.589993 0.834573 4.34295e-19)
(0.470409 0.813532 -6.35286e-19)
(0.347195 0.773097 -7.46367e-19)
(0.281467 0.719523 2.55331e-19)
(0.213462 0.813834 0)
(0.167099 1.41718 3.47791e-19)
(0.178014 2.6267 4.01952e-19)
(0.175935 3.06405 -4.49385e-19)
(0.168226 3.21231 5.10004e-19)
(0.488608 0.485775 0)
(0.976085 0.940832 6.50462e-19)
(1.0714 1.06341 -1.10602e-19)
(1.05764 1.05256 7.53755e-19)
(1.01555 1.02488 -4.38031e-19)
(0.969935 0.99215 0)
(0.921217 0.955754 0)
(0.869697 0.917702 0)
(0.816384 0.882151 -1.4221e-19)
(0.758029 0.857581 -5.21173e-21)
(0.6887 0.859041 0)
(0.590383 0.870924 -4.18341e-19)
(0.457312 0.86764 0)
(0.313151 0.830395 5.371e-19)
(0.223935 0.874252 -3.52392e-19)
(0.174003 1.39119 -2.82617e-19)
(0.212914 2.61415 -6.65889e-19)
(0.231237 3.1149 -3.30924e-19)
(0.220712 3.27477 -3.84042e-19)
(0.203685 3.3192 3.24115e-19)
(0.485884 0.495928 -2.21951e-19)
(0.967279 0.957721 1.04872e-20)
(1.0599 1.08094 -1.18659e-19)
(1.04567 1.07024 -6.03756e-19)
(1.00358 1.04177 0)
(0.958053 1.00847 0)
(0.909809 0.971095 0)
(0.859429 0.93193 -2.01099e-20)
(0.808806 0.895615 1.6819e-19)
(0.756209 0.872417 0)
(0.693149 0.881686 0)
(0.599076 0.916489 0)
(0.435728 0.940231 0)
(0.323215 0.91656 3.94835e-19)
(0.274709 1.22118 9.22114e-19)
(0.303039 2.23513 2.69765e-19)
(0.328825 3.06132 4.89431e-19)
(0.320449 3.29393 -3.158e-19)
(0.263828 3.37029 1.13465e-19)
(0.228671 3.38657 0)
(0.483245 0.505633 2.23866e-19)
(0.958527 0.974151 -1.39277e-18)
(1.04836 1.09789 -3.8839e-19)
(1.03369 1.08742 -9.52902e-20)
(0.99159 1.05821 1.11588e-19)
(0.946162 1.02435 -7.97372e-19)
(0.898323 0.985892 5.54104e-20)
(0.849153 0.945384 4.53876e-19)
(0.801094 0.907463 0)
(0.75391 0.885769 -6.27552e-21)
(0.702064 0.903225 5.71025e-21)
(0.608795 0.967916 0)
(0.446004 0.989494 0)
(0.328091 1.05533 -4.89265e-19)
(0.298449 1.71516 4.13105e-20)
(0.337604 2.84596 -1.55652e-19)
(0.358813 3.27636 2.61472e-19)
(0.326826 3.40419 8.72707e-20)
(0.258041 3.44466 8.99226e-20)
(0.228587 3.45455 -4.92015e-20)
(0.480304 0.515818 4.27731e-19)
(0.949411 0.990969 1.32553e-18)
(1.03644 1.11536 4.78122e-19)
(1.02119 1.10494 0)
(0.979001 1.07495 0)
(0.933565 1.04037 6.10425e-19)
(0.886103 1.00063 -3.97955e-19)
(0.838153 0.958454 -4.1471e-19)
(0.793272 0.918484 -1.86451e-20)
(0.754553 0.896069 -1.78431e-19)
(0.715882 0.923287 -1.13718e-19)
(0.625995 1.01879 0)
(0.459732 1.07477 0)
(0.353227 1.34578 -3.38286e-19)
(0.388045 2.26867 -3.6406e-19)
(0.455985 3.15259 0)
(0.487812 3.39701 2.8066e-20)
(0.424325 3.48348 2.44761e-19)
(0.340908 3.52549 -5.04638e-19)
(0.306007 3.5553 3.00254e-19)
(0.477069 0.526995 -8.05692e-19)
(0.939377 1.00895 -6.28981e-19)
(1.02323 1.13375 0)
(1.00746 1.12334 0)
(0.965286 1.09242 0)
(0.919869 1.05694 0)
(0.87281 1.01555 4.27145e-19)
(0.826287 0.970997 -5.287e-19)
(0.785245 0.927506 0)
(0.755889 0.903811 1.69872e-19)
(0.734894 0.940409 1.03953e-19)
(0.668676 1.06406 2.05212e-20)
(0.496635 1.18287 6.98277e-20)
(0.407833 1.6268 5.52385e-19)
(0.478227 2.67464 -1.97292e-19)
(0.544238 3.30247 0)
(0.542819 3.47311 -5.98553e-20)
(0.44444 3.56373 1.24085e-19)
(0.317435 3.66673 4.01889e-19)
(0.230173 3.66312 -3.3885e-19)
(0.473401 0.53917 3.77707e-19)
(0.928616 1.02791 -6.10431e-19)
(1.00915 1.15323 0)
(0.992659 1.14254 -1.50888e-19)
(0.950346 1.11059 5.72227e-19)
(0.904866 1.07398 0)
(0.85815 1.03057 0)
(0.813018 0.982784 9.90275e-19)
(0.775614 0.935067 3.11012e-20)
(0.757317 0.906651 -3.41804e-19)
(0.761574 0.950103 5.29959e-21)
(0.735613 1.10387 1.63367e-19)
(0.560374 1.31743 0)
(0.490733 1.92311 -2.93102e-19)
(0.586981 2.97731 1.94144e-19)