/*--------------------------------*- C++ -*----------------------------------*\
| =========                 |                                                 |
| \\      /  F ield         | OpenFOAM: The Open Source CFD Toolbox           |
|  \\    /   O peration     | Version:  4.0                                   |
|   \\  /    A nd           | Web:      www.OpenFOAM.org                      |
|    \\/     M anipulation  |                                                 |
\*---------------------------------------------------------------------------*/
FoamFile
{
    version     2.0;
    format      ascii;
    class       volScalarField;
    location    "31";
    object      p;
}
// * * * * * * * * * * * * * * * * * * * * * * * * * * * * * * * * * * * * * //

dimensions      [0 2 -2 0 0 0 0];

internalField   nonuniform List<scalar> 
8800
(
1.55105
1.50326
1.46457
1.43556
1.41469
1.39984
1.38921
1.38169
1.37682
1.37469
1.37586
1.37997
1.38654
1.3958
1.40854
1.42625
1.45101
1.48494
1.52748
1.58618
1.38231
1.38999
1.39745
1.40076
1.39925
1.39415
1.38765
1.38154
1.37677
1.37386
1.37349
1.37589
1.3803
1.38618
1.3929
1.39914
1.40276
1.40201
1.39657
1.38787
1.36074
1.3669
1.37102
1.37395
1.37599
1.37658
1.37544
1.3733
1.37122
1.37022
1.37108
1.37336
1.37608
1.3782
1.37875
1.37752
1.37514
1.37173
1.36716
1.3634
1.35497
1.35762
1.36036
1.36276
1.36438
1.36552
1.36624
1.36631
1.36594
1.3658
1.36643
1.36749
1.36823
1.36822
1.36755
1.36641
1.36455
1.36195
1.35953
1.35803
1.34965
1.35107
1.35285
1.35487
1.35664
1.35797
1.35892
1.35967
1.3602
1.36066
1.36117
1.36153
1.36151
1.36113
1.36036
1.35904
1.35729
1.3554
1.35407
1.35324
1.34464
1.34556
1.34681
1.34837
1.35
1.3515
1.35276
1.35377
1.35464
1.35541
1.35593
1.35609
1.35591
1.35535
1.35436
1.35307
1.35167
1.35035
1.3495
1.34896
1.33984
1.34051
1.34147
1.34278
1.34419
1.34564
1.34705
1.34832
1.34942
1.35037
1.35099
1.35116
1.35089
1.35021
1.34926
1.3482
1.34708
1.34608
1.34547
1.34507
1.33519
1.3357
1.3365
1.33764
1.33892
1.34029
1.34171
1.34313
1.34446
1.34561
1.34638
1.34659
1.34632
1.34572
1.34493
1.34404
1.34314
1.34236
1.34189
1.34158
1.33063
1.33104
1.33171
1.33274
1.33397
1.33529
1.33671
1.3382
1.3397
1.34108
1.34203
1.34237
1.34223
1.34179
1.34118
1.34045
1.3397
1.33909
1.33873
1.33848
1.32611
1.32644
1.32702
1.32799
1.32917
1.33048
1.33192
1.33348
1.33512
1.33674
1.33794
1.3385
1.33859
1.33835
1.3379
1.33734
1.33673
1.33625
1.33597
1.33577
1.32156
1.32182
1.32235
1.32328
1.32445
1.3258
1.32731
1.329
1.33083
1.33271
1.33423
1.3351
1.33543
1.33539
1.33511
1.3347
1.33423
1.33385
1.33363
1.33347
1.31691
1.31712
1.31761
1.31853
1.31974
1.32116
1.32279
1.32465
1.32673
1.32895
1.33087
1.3321
1.33271
1.3329
1.33281
1.33254
1.33219
1.3319
1.33175
1.33161
1.31213
1.3123
1.31276
1.31371
1.31499
1.3165
1.31826
1.32034
1.32276
1.32545
1.32785
1.32948
1.33044
1.33091
1.33105
1.33094
1.3307
1.33051
1.3304
1.33029
1.30717
1.3073
1.30775
1.30872
1.31007
1.3117
1.31365
1.31598
1.31875
1.32195
1.32498
1.32719
1.32861
1.32944
1.32985
1.32995
1.32986
1.32976
1.3297
1.32961
1.30195
1.30203
1.30248
1.3035
1.30498
1.3068
1.30901
1.31174
1.31507
1.31898
1.32274
1.32556
1.32746
1.32865
1.32936
1.32969
1.32976
1.32976
1.32975
1.32968
1.29641
1.29647
1.2969
1.29794
1.29952
1.30151
1.30401
1.30715
1.31107
1.31581
1.32051
1.32417
1.32677
1.32851
1.3296
1.33025
1.33057
1.33072
1.33076
1.3307
1.29028
1.29033
1.29076
1.29184
1.29356
1.29581
1.2987
1.30244
1.30718
1.31298
1.31882
1.32345
1.32677
1.32912
1.33075
1.3318
1.33242
1.33273
1.33281
1.33275
1.28324
1.28328
1.28375
1.2849
1.28681
1.28939
1.2928
1.29729
1.30305
1.31019
1.31742
1.32322
1.32749
1.33058
1.33279
1.33429
1.33526
1.33574
1.33587
1.3358
1.27482
1.27485
1.27539
1.2767
1.27891
1.28197
1.28609
1.29155
1.29861
1.30739
1.31634
1.32356
1.32893
1.33285
1.33574
1.33779
1.33911
1.33976
1.33992
1.33984
1.26456
1.26459
1.26524
1.26682
1.26951
1.27329
1.27838
1.28515
1.29391
1.30475
1.31576
1.32465
1.33129
1.33619
1.33981
1.34238
1.34408
1.3449
1.34509
1.34499
1.25193
1.25197
1.25279
1.25478
1.25815
1.2629
1.2693
1.27778
1.28869
1.30209
1.3156
1.32646
1.33458
1.3406
1.34506
1.34826
1.35034
1.35133
1.35156
1.35145
1.23619
1.23624
1.23731
1.2399
1.24424
1.25035
1.25855
1.26933
1.28301
1.29958
1.31606
1.32921
1.33902
1.34631
1.35175
1.35566
1.35818
1.35933
1.3596
1.35946
1.21619
1.21626
1.21771
1.22121
1.22702
1.23505
1.24576
1.25962
1.27684
1.29726
1.31722
1.333
1.34474
1.35348
1.36003
1.36475
1.36774
1.36908
1.36938
1.36922
1.19016
1.19029
1.19237
1.19733
1.20542
1.21638
1.23066
1.24864
1.27033
1.29534
1.3193
1.33803
1.35192
1.36229
1.37011
1.37574
1.37921
1.38074
1.38106
1.38087
1.15522
1.15548
1.15882
1.16645
1.17834
1.19383
1.21321
1.23659
1.26375
1.29408
1.32248
1.34442
1.36068
1.37286
1.38206
1.38867
1.39267
1.39439
1.39471
1.39448
1.1058
1.10693
1.1136
1.12661
1.14502
1.16742
1.19379
1.22397
1.25755
1.29381
1.32697
1.35231
1.37105
1.38516
1.39583
1.40347
1.40807
1.40997
1.41026
1.40997
1.03317
1.04074
1.0561
1.07907
1.10703
1.13849
1.17337
1.21139
1.25215
1.29492
1.33331
1.36245
1.38405
1.40042
1.4129
1.42192
1.42739
1.42969
1.43008
1.42986
0.955557
0.973034
0.997794
1.0311
1.06888
1.10953
1.15297
1.19907
1.24748
1.29762
1.3424
1.37647
1.40188
1.42124
1.43618
1.44728
1.45402
1.45673
1.4574
1.45737
0.891743
0.912106
0.944696
0.986497
1.03277
1.08196
1.13364
1.18761
1.2435
1.30077
1.35158
1.39013
1.41889
1.44085
1.45771
1.47008
1.47787
1.48139
1.48194
1.48199
0.839796
0.861952
0.899709
0.947514
1.00047
1.05672
1.1156
1.17674
1.23962
1.30358
1.35996
1.40249
1.43405
1.45801
1.4764
1.49005
1.49901
1.50259
1.50325
1.50338
0.796704
0.819947
0.861168
0.913755
0.97202
1.03406
1.09909
1.16654
1.23574
1.30582
1.36722
1.41323
1.44715
1.47277
1.4924
1.50688
1.51636
1.52041
1.52133
1.52149
0.759877
0.783751
0.827726
0.883977
0.946658
1.0136
1.08392
1.15694
1.23181
1.30744
1.37338
1.42244
1.45833
1.48527
1.50576
1.52087
1.5307
1.53518
1.53633
1.53651
0.727358
0.751669
0.79772
0.857084
0.923501
0.994683
1.06968
1.14768
1.22769
1.30843
1.37853
1.43033
1.46792
1.49589
1.51702
1.53253
1.54259
1.54734
1.54858
1.54874
0.697727
0.722433
0.770225
0.832228
0.901875
0.976779
1.05594
1.13846
1.22321
1.30872
1.38275
1.43713
1.47625
1.50509
1.52663
1.54238
1.55251
1.55736
1.55868
1.55879
0.670115
0.695178
0.744534
0.808791
0.881283
0.95948
1.04238
1.12902
1.21819
1.30824
1.38609
1.44299
1.48362
1.51328
1.53524
1.55112
1.56131
1.56623
1.56762
1.5677
0.643808
0.669287
0.720057
0.786316
0.861355
0.942499
1.02877
1.11918
1.21249
1.30691
1.38856
1.44806
1.49026
1.52082
1.54324
1.55932
1.56952
1.57436
1.57579
1.57592
0.618536
0.644445
0.69629
0.764521
0.841835
0.925629
1.01495
1.10884
1.20602
1.30467
1.39018
1.45241
1.49636
1.52796
1.55094
1.56726
1.57752
1.5823
1.58363
1.58371
0.593936
0.6204
0.673286
0.743224
0.822571
0.908746
1.00083
1.0979
1.19871
1.30148
1.39092
1.45611
1.50203
1.53484
1.5585
1.57516
1.58549
1.5902
1.59139
1.59138
0.569932
0.596836
0.650846
0.722306
0.803482
0.891796
0.986376
1.08635
1.19055
1.29729
1.39075
1.45914
1.50728
1.54152
1.56601
1.58306
1.59345
1.59804
1.5991
1.599
0.546442
0.573889
0.628859
0.701715
0.78454
0.874763
0.971579
1.07418
1.18151
1.29207
1.38958
1.46141
1.51211
1.54803
1.5735
1.59099
1.60138
1.60577
1.60666
1.60648
0.523377
0.551421
0.607316
0.681451
0.765744
0.857671
0.956476
1.06143
1.17162
1.28577
1.38731
1.46284
1.51646
1.55438
1.581
1.59893
1.60924
1.61333
1.61402
1.61378
0.500749
0.529445
0.586247
0.66154
0.747147
0.840569
0.941127
1.04816
1.1609
1.27836
1.38388
1.46329
1.52022
1.56057
1.58857
1.60691
1.61694
1.62059
1.62107
1.62077
0.478727
0.50803
0.565692
0.642025
0.728795
0.82353
0.925602
1.03445
1.14943
1.2699
1.3792
1.46261
1.52321
1.56653
1.59636
1.61509
1.62451
1.62747
1.62767
1.62735
0.457343
0.487223
0.545684
0.622962
0.710753
0.806621
0.909999
1.02038
1.1373
1.26042
1.37323
1.46063
1.52521
1.57212
1.6045
1.6239
1.63224
1.63392
1.63371
1.6334
0.43654
0.467067
0.526263
0.604395
0.693091
0.789932
0.894412
1.00608
1.12462
1.25
1.36595
1.45721
1.52593
1.577
1.61298
1.63402
1.64111
1.64045
1.63915
1.63903
0.416488
0.447584
0.50749
0.586393
0.67587
0.773545
0.878938
0.991645
1.11151
1.23875
1.35737
1.45223
1.52505
1.5806
1.62134
1.64595
1.65321
1.6496
1.64544
1.64441
0.397103
0.428785
0.489345
0.568929
0.65906
0.757414
0.863518
0.977027
1.09789
1.2266
1.34737
1.44542
1.52224
1.58214
1.6284
1.65905
1.67023
1.66733
1.65686
1.63976
0.378456
0.410677
0.471709
0.551814
0.642367
0.741204
0.847734
0.961731
1.08322
1.21288
1.33526
1.43592
1.51681
1.58044
1.63147
1.66934
1.68546
1.67644
1.65987
1.64195
0.36072
0.393125
0.454764
0.53529
0.626091
0.725262
0.831814
0.94609
1.06781
1.1979
1.3212
1.42341
1.50827
1.57454
1.62541
1.66352
1.68259
1.66475
1.59398
1.56033
0.344541
0.374967
0.438843
0.519947
0.610945
0.710079
0.816052
0.93033
1.0519
1.1818
1.3052
1.40772
1.49555
1.56455
1.60619
1.63594
1.6386
1.58879
1.51684
1.47192
0.288639
0.359081
0.424238
0.504617
0.595484
0.694256
0.800388
0.914183
1.03514
1.16416
1.28672
1.38849
1.47538
1.55164
1.55521
1.5705
1.53561
1.4709
1.39344
1.34978
0.327443
0.343379
0.402977
0.482892
0.573039
0.671509
0.776601
0.889498
1.00909
1.13608
1.25574
1.35471
1.43296
1.50906
1.50619
1.40096
1.29705
1.22508
1.15107
1.18652
0.296425
0.325635
0.38605
0.465454
0.555583
0.653702
0.758933
0.87106
0.989382
1.11427
1.23067
1.32538
1.39603
1.43604
1.39123
1.24647
1.1173
1.02537
0.924297
0.979535
0.272539
0.304734
0.366331
0.446043
0.536224
0.634181
0.739223
0.850388
0.967134
1.08938
1.2018
1.29079
1.35164
1.36061
1.25663
1.07958
0.92185
0.799343
0.664392
0.701774
0.249235
0.28297
0.34574
0.426285
0.516633
0.61444
0.718907
0.828992
0.943984
1.06327
1.17094
1.2536
1.29972
1.27575
1.11759
0.913837
0.714456
0.534559
0.335067
0.326729
0.226674
0.260753
0.324392
0.405665
0.496215
0.59382
0.697603
0.806505
0.919515
1.03551
1.13791
1.21339
1.24212
1.1835
0.985174
0.765009
0.534554
0.329456
0.0695633
-0.254993
0.203877
0.237906
0.302032
0.383791
0.474555
0.572012
0.675187
0.782891
0.89384
1.00635
1.10332
1.17053
1.18184
1.07222
0.870171
0.650088
0.431512
0.245686
0.174673
0.0761255
0.179991
0.213988
0.278344
0.360338
0.451186
0.54841
0.65089
0.757234
0.865826
0.974385
1.06551
1.12285
1.10942
0.962744
0.768677
0.567987
0.395197
0.294873
0.270595
0.252417
0.154695
0.188682
0.253177
0.33524
0.426002
0.522838
0.624397
0.729092
0.834921
0.938909
1.02371
1.06897
1.03471
0.861577
0.676929
0.502282
0.367571
0.324962
0.309904
0.307948
0.127784
0.161846
0.226483
0.308533
0.399083
0.495324
0.595731
0.698459
0.801097
0.899941
0.977733
1.00978
0.957881
0.766798
0.592011
0.435787
0.346284
0.33155
0.329581
0.329548
0.0992477
0.133492
0.198264
0.280255
0.370454
0.465926
0.56494
0.665377
0.764402
0.857589
0.927436
0.947672
0.862882
0.679904
0.512929
0.382826
0.344358
0.340072
0.339724
0.340342
0.0693986
0.103848
0.168666
0.250533
0.34025
0.434755
0.532121
0.629946
0.724923
0.811978
0.873373
0.877982
0.765872
0.598209
0.447937
0.359105
0.349923
0.34751
0.346423
0.346742
0.0388136
0.0733219
0.137979
0.219628
0.308711
0.402036
0.497506
0.592395
0.682933
0.763376
0.816561
0.802138
0.675956
0.524199
0.393406
0.368862
0.351837
0.349607
0.350341
0.350847
0.00796042
0.0423814
0.10675
0.187969
0.276235
0.368171
0.461476
0.553129
0.63888
0.712422
0.756924
0.726362
0.585014
0.45649
0.360826
0.319625
0.339403
0.349224
0.352184
0.352905
-0.0223437
0.0118128
0.0757358
0.156208
0.243408
0.333727
0.424608
0.512766
0.593447
0.65992
0.694376
0.649822
0.48997
0.391324
0.347736
0.348233
0.33938
0.339349
0.342501
0.344434
-0.0505528
-0.0172592
0.0457939
0.125212
0.211097
0.299503
0.387723
0.472188
0.547647
0.606805
0.633274
0.571178
0.388822
0.279799
0.323976
0.295039
0.284705
0.283463
0.287891
0.291811
-0.0753619
-0.0430703
0.0180143
0.0961759
0.180349
0.266557
0.351888
0.432556
0.502877
0.554529
0.576995
0.490325
0.281156
0.0799629
0.0871448
0.136692
0.175321
0.189964
0.196032
0.199781
-0.0948481
-0.0643811
-0.00555442
0.070451
0.152425
0.236145
0.318439
0.395311
0.460885
0.505389
0.524966
0.421809
0.207489
-0.128466
-0.32294
-0.0932839
0.0263948
0.06618
0.0781669
0.087042
-0.107179
-0.0792861
-0.0235024
0.0496919
0.128909
0.209749
0.288891
0.362191
0.423634
0.462526
0.478259
0.387628
0.260154
0.0873782
-0.128241
-0.0455085
-0.0360479
-0.0312064
-0.0221234
-0.0180911
-0.110104
-0.0859554
-0.0341839
0.0354945
0.11143
0.18897
0.264952
0.335161
0.393096
0.428644
0.438641
0.385552
0.444406
0.794463
0.907699
0.429071
0.0616839
0.0112182
-0.00273883
-0.00344131
-0.102302
-0.0824537
-0.0357912
0.0292347
0.101308
0.175343
0.248356
0.316236
0.371851
0.404945
0.407552
0.346299
0.326395
0.489994
0.388688
9.79841e-05
-0.169935
-0.119051
-0.0402227
-0.0609496
-0.0819875
-0.0663031
-0.0270504
0.0318559
0.099447
0.169976
0.240557
0.307252
0.36337
0.396019
0.384762
0.179988
-0.399735
-1.38869
-2.0414
-2.386
-2.12761
-1.62612
-1.18015
-1.01649
-0.0505696
-0.0397837
-0.00831291
0.0431611
0.105894
0.173167
0.2423
0.309727
0.370281
0.411417
0.403431
0.154157
-0.546338
-1.49214
-2.19098
-2.43805
-2.2192
-1.84831
-1.482
-1.3029
-0.0123331
-0.00592216
0.0170711
0.0610769
0.119085
0.183964
0.253146
0.32432
0.392651
0.456254
0.489202
0.436231
0.234734
0.123395
0.120736
0.345944
0.658316
0.932334
1.1173
1.20083
0.0268346
0.0303823
0.0445802
0.0815396
0.136009
0.199906
0.270687
0.347498
0.429609
0.517409
0.619654
0.765752
1.02637
1.51415
2.10737
2.66629
3.07736
3.31156
3.41248
3.43925
0.0609717
0.0629947
0.0709412
0.10055
0.152106
0.217044
0.290812
0.37366
0.468034
0.576833
0.706889
0.847132
1.13087
1.70666
2.35618
2.92507
3.33046
3.55891
3.65852
3.68518
0.094306
0.0949523
0.0976996
0.118135
0.165694
0.231957
0.308533
0.394941
0.490976
0.601521
0.716155
0.840688
1.00871
1.45889
1.98136
2.41874
2.73889
2.92468
3.00926
3.03402
0.122787
0.12392
0.12468
0.136688
0.178975
0.245608
0.323931
0.410211
0.503108
0.607983
0.711661
0.812416
0.918178
1.19939
1.58913
1.90989
2.14446
2.28192
2.34494
2.36181
0.138895
0.139435
0.138533
0.14791
0.191719
0.261742
0.341436
0.425206
0.51356
0.609659
0.699068
0.775304
0.840777
1.02034
1.28245
1.5065
1.67037
1.76363
1.80487
1.81573
0.156547
0.153456
0.150254
0.161912
0.212025
0.28655
0.365866
0.44437
0.524588
0.608964
0.685178
0.744291
0.798456
0.911234
1.08588
1.23012
1.33306
1.39239
1.41775
1.42258
0.220947
0.215662
0.211412
0.224293
0.269859
0.335248
0.403525
0.470543
0.538508
0.609357
0.674506
0.724037
0.767622
0.840613
0.955896
1.04778
1.11015
1.14512
1.15911
1.16041
0.346628
0.343036
0.340055
0.347533
0.374021
0.412783
0.457158
0.504643
0.555925
0.61239
0.665938
0.707902
0.74599
0.794828
0.865301
0.923887
0.963243
0.984619
0.99343
0.99359
0.482096
0.48065
0.478419
0.477881
0.483063
0.494993
0.514509
0.541018
0.575004
0.616696
0.659356
0.697231
0.73164
0.765294
0.804738
0.841171
0.866563
0.881806
0.887424
0.886772
0.577622
0.57712
0.574716
0.568885
0.56169
0.558316
0.561691
0.57288
0.59234
0.620342
0.651544
0.683663
0.713681
0.737909
0.761655
0.783866
0.801579
0.812487
0.816988
0.815903
0.626999
0.626611
0.624173
0.617629
0.607744
0.59894
0.594636
0.596677
0.605669
0.621561
0.64175
0.664397
0.69129
0.703513
0.717668
0.735661
0.751201
0.761217
0.76509
0.76366
0.646489
0.646008
0.643858
0.638553
0.63018
0.621476
0.615012
0.612533
0.614669
0.620927
0.628814
0.638342
0.649424
0.653955
0.666763
0.687001
0.705093
0.71666
0.721159
0.719534
0.651872
0.651352
0.649606
0.645773
0.639871
0.633064
0.626904
0.622685
0.620516
0.618984
0.614288
0.604283
0.5931
0.593969
0.613499
0.639028
0.659547
0.672005
0.676929
0.67579
0.652211
0.65174
0.650385
0.647552
0.64348
0.638636
0.633704
0.629379
0.625415
0.61902
0.603434
0.571882
0.537433
0.537819
0.571392
0.603508
0.624966
0.636166
0.64002
0.639098
0.651014
0.650685
0.649768
0.647691
0.644723
0.641356
0.637934
0.634717
0.631318
0.623954
0.605105
0.563546
0.515514
0.525259
0.563671
0.593865
0.610831
0.617747
0.619789
0.619297
0.648218
0.648097
0.647698
0.646491
0.644399
0.642323
0.64061
0.639711
0.639039
0.635851
0.623151
0.590828
0.557845
0.5742
0.601961
0.618695
0.62618
0.628702
0.630047
0.63044
0.64214
0.64221
0.642269
0.641886
0.64109
0.640561
0.641128
0.64343
0.648805
0.652636
0.654282
0.644817
0.638702
0.653453
0.666057
0.671626
0.674284
0.676792
0.677779
0.67666
0.631109
0.631379
0.63189
0.632352
0.632951
0.634467
0.637958
0.644264
0.655197
0.670508
0.688142
0.702126
0.720553
0.730647
0.726491
0.722842
0.724014
0.726855
0.726563
0.724986
0.613567
0.614016
0.614956
0.616289
0.618315
0.621975
0.628467
0.639534
0.657207
0.682564
0.712684
0.7422
0.776204
0.776906
0.764951
0.758793
0.758613
0.759144
0.758217
0.757121
0.587046
0.587884
0.589316
0.591455
0.594799
0.600408
0.609754
0.625084
0.648317
0.681357
0.718096
0.752362
0.783087
0.781073
0.774307
0.775693
0.779216
0.780677
0.777621
0.776291
0.548474
0.549569
0.551529
0.554498
0.559012
0.566025
0.576994
0.594268
0.620201
0.657183
0.69738
0.726269
0.74206
0.742484
0.751982
0.774231
0.789824
0.788372
0.783304
0.782697
0.494446
0.495823
0.49819
0.501804
0.506956
0.513989
0.523708
0.537843
0.559581
0.593475
0.639658
0.670307
0.667115
0.671079
0.71761
0.760304
0.790477
0.794184
0.78894
0.788907
0.423147
0.424604
0.42707
0.430794
0.43533
0.439694
0.442904
0.444525
0.446693
0.469157
0.533618
0.58118
0.573343
0.591451
0.674153
0.749238
0.787363
0.78944
0.785253
0.783712
0.336076
0.33729
0.339408
0.342365
0.344271
0.341826
0.330086
0.302526
0.264815
0.267201
0.370666
0.459074
0.466007
0.512599
0.60984
0.696392
0.738376
0.729597
0.723196
0.720471
0.240188
0.240755
0.242137
0.243598
0.24115
0.227929
0.191217
0.11441
0.00914283
-0.0045602
0.161973
0.299567
0.33929
0.415661
0.513991
0.580704
0.595113
0.591024
0.586377
0.583993
0.148624
0.148104
0.148594
0.148732
0.142328
0.118145
0.0537524
-0.077398
-0.242561
-0.263188
-0.0440774
0.14191
0.194457
0.304734
0.383094
0.418177
0.407142
0.40415
0.403875
0.403653
0.072889
0.0724273
0.0735705
0.0734887
0.0677312
0.0445886
-0.0259755
-0.173387
-0.329022
-0.363087
-0.147099
0.0129928
0.0833838
0.197733
0.231474
0.22953
0.226371
0.224625
0.224927
0.225177
0.0210737
0.0206453
0.0215864
0.0239012
0.0251247
0.0229858
0.00620106
-0.0431799
-0.10742
-0.141121
-0.0824414
-0.00811806
-0.00723437
-0.0174253
-0.0127652
0.0549718
0.0513268
0.0467562
0.0456418
0.0451781
0.578931
0.761452
0.974387
1.15643
1.30307
1.42007
1.51772
1.60015
1.63699
1.61406
0.911313
1.04177
1.18112
1.30174
1.40389
1.4889
1.55773
1.60655
1.6313
1.64311
1.1474
1.23637
1.33106
1.41506
1.48747
1.54808
1.59622
1.63135
1.65651
1.67421
1.31866
1.38114
1.44745
1.50813
1.56095
1.60574
1.64243
1.67157
1.69523
1.71335
1.4508
1.49656
1.54476
1.59086
1.63157
1.66703
1.69727
1.72233
1.74326
1.76099
1.55908
1.59344
1.63315
1.67021
1.70413
1.73443
1.76083
1.78293
1.80115
1.81844
1.6541
1.68369
1.71878
1.75184
1.78259
1.81044
1.83473
1.85484
1.8706
1.88767
1.74428
1.77405
1.80874
1.84135
1.87146
1.89848
1.9217
1.94045
1.954
1.97104
1.8406
1.87407
1.91115
1.94511
1.97549
2.00196
2.02414
2.04159
2.05358
2.071
1.95631
1.99411
2.03307
2.0676
2.09715
2.12207
2.14258
2.15858
2.17013
2.18822
2.10172
2.14042
2.17652
2.20733
2.23312
2.25532
2.27445
2.29005
2.30253
2.32054
2.27671
2.30862
2.33488
2.35735
2.37738
2.39616
2.41393
2.43044
2.44583
2.4639
2.46545
2.48275
2.4979
2.51419
2.53013
2.54469
2.55793
2.57188
2.58945
2.60961
2.64745
2.65689
2.66845
2.67929
2.68859
2.69821
2.70903
2.72042
2.7318
2.74716
2.85458
2.85827
2.84335
2.82855
2.8223
2.828
2.8465
2.87682
2.90901
2.93567
3.16092
3.02606
2.94944
2.90712
2.88971
2.89368
2.92109
2.97751
3.08014
3.30451
1.44165
1.43952
1.43503
1.4264
1.41416
1.40202
1.39177
1.38385
1.37818
1.37485
1.3744
1.37703
1.38205
1.3892
1.39854
1.41004
1.42267
1.43368
1.43979
1.44283
1.36611
1.37196
1.3783
1.38278
1.38524
1.3849
1.38214
1.3783
1.37474
1.3724
1.37215
1.37423
1.3778
1.38202
1.38577
1.38761
1.38664
1.38314
1.37796
1.37133
1.35773
1.36002
1.36342
1.36641
1.36847
1.36996
1.37069
1.37033
1.36925
1.36828
1.36834
1.36965
1.37136
1.37258
1.37269
1.37175
1.37016
1.36779
1.36451
1.36158
1.35226
1.35334
1.35517
1.35755
1.35956
1.36097
1.36197
1.36268
1.36301
1.36314
1.3635
1.36417
1.36464
1.36461
1.36411
1.3632
1.36168
1.35955
1.35743
1.35604
1.34712
1.34778
1.34889
1.35059
1.35236
1.35398
1.35525
1.35622
1.35703
1.35771
1.35829
1.35867
1.35872
1.35843
1.35775
1.35661
1.35511
1.35351
1.35215
1.35136
1.34222
1.34268
1.34347
1.34477
1.34625
1.34776
1.3492
1.35046
1.35151
1.35244
1.35317
1.35354
1.3535
1.35306
1.35223
1.35112
1.3499
1.34869
1.34772
1.3472
1.3375
1.33784
1.33845
1.33953
1.34084
1.34221
1.34363
1.34504
1.34633
1.34747
1.34836
1.3488
1.34874
1.34825
1.34747
1.34654
1.34555
1.34458
1.34385
1.34346
1.33291
1.33317
1.33367
1.33459
1.33578
1.33708
1.33846
1.33991
1.34136
1.34271
1.3438
1.34437
1.34437
1.34398
1.34335
1.34259
1.34177
1.341
1.34043
1.34013
1.32837
1.32858
1.32899
1.32982
1.33094
1.3322
1.33357
1.33504
1.33661
1.33817
1.3395
1.34024
1.34042
1.34021
1.33976
1.33916
1.3385
1.33787
1.33743
1.3372
1.32384
1.32401
1.32436
1.32512
1.32621
1.32745
1.32885
1.33039
1.33206
1.33381
1.33541
1.33645
1.33689
1.33691
1.33664
1.33621
1.33569
1.3352
1.33486
1.33467
1.31925
1.31938
1.31969
1.32041
1.32149
1.32277
1.32423
1.3259
1.32777
1.32978
1.33172
1.33311
1.33384
1.33409
1.33401
1.33373
1.33335
1.33297
1.33272
1.33258
1.31454
1.31464
1.31491
1.31562
1.31674
1.31809
1.31965
1.32148
1.32359
1.32595
1.32831
1.33013
1.33121
1.33173
1.33188
1.33178
1.33153
1.33125
1.33107
1.33096
1.30968
1.30975
1.31
1.31071
1.31186
1.31331
1.315
1.317
1.3194
1.32218
1.32508
1.32742
1.32893
1.32982
1.33027
1.33039
1.33029
1.33012
1.33001
1.32993
1.3046
1.30463
1.30487
1.30559
1.30682
1.30838
1.31026
1.31255
1.31532
1.3186
1.32216
1.32518
1.32724
1.32853
1.32927
1.32965
1.32974
1.3297
1.32966
1.32961
1.29924
1.29924
1.29946
1.3002
1.3015
1.30321
1.30532
1.30794
1.31121
1.31519
1.31958
1.32337
1.32604
1.32786
1.329
1.32964
1.32998
1.3301
1.33014
1.33012
1.29344
1.29343
1.29364
1.29438
1.29575
1.29761
1.29997
1.303
1.30683
1.31159
1.31699
1.32181
1.32532
1.32778
1.32942
1.33052
1.33119
1.33153
1.33167
1.33167
1.28691
1.28687
1.2871
1.28788
1.28935
1.29143
1.29417
1.29777
1.30242
1.30827
1.31493
1.3209
1.32533
1.32852
1.33078
1.33235
1.3334
1.33399
1.33422
1.33423
1.27923
1.27919
1.27944
1.28031
1.28194
1.28431
1.28754
1.29184
1.29747
1.30461
1.31284
1.32028
1.32589
1.32999
1.33296
1.33509
1.33658
1.33744
1.33777
1.33779
1.26993
1.26987
1.27018
1.2712
1.27313
1.27599
1.27992
1.28521
1.29216
1.30098
1.31111
1.32031
1.32723
1.33236
1.33613
1.3389
1.34082
1.34194
1.34236
1.34238
1.25854
1.25846
1.25886
1.26013
1.2625
1.26606
1.27096
1.27755
1.28619
1.29711
1.3096
1.32088
1.3294
1.33572
1.34039
1.34384
1.34624
1.34763
1.34814
1.34816
1.24442
1.24433
1.24487
1.2465
1.24951
1.25404
1.26027
1.26861
1.27947
1.29306
1.3084
1.32216
1.33251
1.3402
1.34592
1.35014
1.3531
1.35477
1.35536
1.35539
1.22666
1.22655
1.22732
1.2295
1.23344
1.23933
1.24742
1.25815
1.27192
1.28885
1.30765
1.32428
1.33674
1.34599
1.3529
1.35801
1.36159
1.36356
1.36424
1.36427
1.20381
1.20369
1.20482
1.20784
1.21319
1.22115
1.23193
1.24595
1.26352
1.28458
1.30745
1.32739
1.34222
1.35324
1.3615
1.36763
1.3719
1.37418
1.37497
1.37499
1.17361
1.17352
1.17529
1.17975
1.18745
1.19868
1.21343
1.232
1.25444
1.28049
1.30804
1.33166
1.34913
1.36212
1.37189
1.37916
1.38413
1.38676
1.38763
1.38763
1.13211
1.1322
1.13539
1.14278
1.15472
1.17126
1.19188
1.21654
1.24505
1.27692
1.30967
1.33728
1.35756
1.37269
1.38411
1.39262
1.39832
1.40129
1.40223
1.4022
1.07188
1.07314
1.08089
1.0947
1.11427
1.13912
1.16789
1.20027
1.23594
1.27431
1.31261
1.34435
1.36755
1.38486
1.39795
1.40767
1.41424
1.41756
1.41848
1.4184
1.00036
1.00238
1.01701
1.04074
1.07099
1.10543
1.14308
1.18372
1.22712
1.27277
1.31769
1.35476
1.38198
1.40244
1.41798
1.42952
1.43734
1.44132
1.44241
1.44239
0.926953
0.933601
0.955225
0.988848
1.02888
1.07261
1.11904
1.16797
1.21918
1.27225
1.324
1.36659
1.39791
1.42158
1.43973
1.45345
1.46267
1.46656
1.46781
1.46807
0.867934
0.876525
0.902856
0.943208
0.990754
1.04224
1.09647
1.15307
1.21171
1.27189
1.33009
1.37774
1.41267
1.43897
1.45908
1.47419
1.48425
1.4892
1.49124
1.49162
0.820026
0.829185
0.858951
0.904151
0.957429
1.01511
1.07586
1.13919
1.20455
1.27127
1.33544
1.38761
1.42561
1.45408
1.47579
1.49219
1.50346
1.5092
1.51153
1.51195
0.779878
0.789264
0.821354
0.870297
0.928171
0.990935
1.0572
1.12635
1.19768
1.27035
1.33991
1.39611
1.43675
1.467
1.48995
1.50728
1.51923
1.5256
1.5282
1.52867
0.744977
0.754461
0.788256
0.84026
0.901932
0.969006
1.04004
1.11432
1.191
1.26905
1.34353
1.40336
1.44629
1.47799
1.50188
1.51985
1.5323
1.53918
1.54191
1.54239
0.71374
0.723266
0.758403
0.812947
0.877825
0.948623
1.02386
1.10272
1.18426
1.26727
1.34633
1.40952
1.45451
1.48745
1.51205
1.53039
1.54313
1.55025
1.55303
1.55354
0.684982
0.694564
0.730823
0.787572
0.855208
0.929268
1.00823
1.09123
1.17723
1.26488
1.3483
1.41472
1.46167
1.49574
1.52094
1.53956
1.5524
1.55966
1.56241
1.56295
0.65793
0.667572
0.704826
0.763487
0.833604
0.91056
0.992853
1.07961
1.16972
1.26176
1.34942
1.41905
1.468
1.50321
1.52903
1.54795
1.5609
1.5682
1.57098
1.57134
0.632084
0.641824
0.680012
0.740291
0.812664
0.892216
0.977508
1.06768
1.16161
1.25782
1.34965
1.42257
1.47362
1.51012
1.53664
1.55591
1.569
1.57627
1.57902
1.57936
0.607042
0.616966
0.655987
0.717817
0.792173
0.874052
0.962052
1.05533
1.15281
1.25298
1.34896
1.42531
1.47868
1.51663
1.544
1.56372
1.57699
1.58426
1.5869
1.58724
0.582622
0.592787
0.632569
0.695887
0.772009
0.85597
0.946413
1.04252
1.14327
1.24722
1.34731
1.42728
1.48321
1.52283
1.55121
1.57148
1.58498
1.59222
1.59473
1.59502
0.558769
0.569156
0.609737
0.674371
0.7521
0.837935
0.930562
1.02923
1.13297
1.24048
1.34465
1.4284
1.48718
1.52874
1.55833
1.57925
1.59298
1.60014
1.60247
1.60267
0.535372
0.546075
0.587383
0.653247
0.732427
0.819934
0.914511
1.01547
1.12194
1.23277
1.34089
1.42858
1.49053
1.53436
1.56537
1.58702
1.60096
1.60797
1.61007
1.61016
0.512492
0.523486
0.565541
0.632523
0.713011
0.802005
0.898311
1.0013
1.1102
1.22407
1.33599
1.42771
1.49315
1.53966
1.57238
1.59485
1.60888
1.61559
1.61739
1.61738
0.4901
0.501406
0.544233
0.612237
0.693896
0.784198
0.882019
0.986781
1.09783
1.21442
1.32991
1.42568
1.49488
1.54452
1.5794
1.60284
1.61677
1.62293
1.62434
1.62422
0.468385
0.479929
0.523496
0.592436
0.67514
0.766595
0.865711
0.972007
1.08491
1.20391
1.32265
1.42238
1.49554
1.5488
1.58646
1.61123
1.62487
1.63
1.63079
1.63056
0.447218
0.459106
0.503366
0.573155
0.656786
0.749244
0.849486
0.957066
1.07154
1.19261
1.31422
1.4177
1.49491
1.5522
1.59344
1.6204
1.6338
1.63714
1.6367
1.63628
0.426767
0.438967
0.483881
0.554452
0.63892
0.732234
0.83343
0.942084
1.05784
1.18062
1.30469
1.41157
1.49277
1.55432
1.59997
1.63051
1.64477
1.64592
1.64272
1.64114
0.40698
0.419472
0.465094
0.536384
0.621585
0.715635
0.817629
0.927143
1.04394
1.16807
1.29417
1.40395
1.48895
1.5547
1.6052
1.64098
1.65878
1.65989
1.65269
1.64259
0.387936
0.400665
0.446905
0.518798
0.60457
0.699164
0.801741
0.911831
1.02934
1.15444
1.28206
1.39419
1.48285
1.55267
1.60783
1.65014
1.67477
1.67965
1.67105
1.66173
0.369695
0.382639
0.429313
0.501739
0.58789
0.682818
0.785788
0.896133
1.01404
1.13963
1.26821
1.38198
1.47381
1.54753
1.60532
1.6523
1.68023
1.69022
1.6543
1.6001
0.352519
0.366163
0.412421
0.485266
0.571433
0.666467
0.769728
0.880173
0.99809
1.12373
1.25261
1.36721
1.46089
1.53905
1.59581
1.63606
1.66507
1.65592
1.59856
1.53236
0.336104
0.350559
0.396419
0.469989
0.555527
0.650586
0.753342
0.864012
0.981643
1.10689
1.23528
1.34977
1.4431
1.52839
1.57837
1.63148
1.60576
1.56639
1.4965
1.42667
0.350216
0.368258
0.416823
0.494451
0.584838
0.683618
0.791622
0.90513
1.02567
1.1541
1.27598
1.37722
1.46213
1.55253
1.60336
1.52283
1.47909
1.41721
1.34357
1.29449
0.325847
0.34229
0.377846
0.445796
0.530906
0.625421
0.728272
0.838239
0.954938
1.07871
1.20485
1.31708
1.4067
1.48593
1.55685
1.55925
1.43887
1.35517
1.29223
1.20746
0.305861
0.321554
0.362866
0.432241
0.517604
0.611693
0.713341
0.822338
0.937947
1.06012
1.18424
1.29392
1.38039
1.4468
1.47369
1.40407
1.26211
1.16471
1.08841
0.997551
0.285469
0.297998
0.34381
0.414488
0.500032
0.594284
0.695845
0.804436
0.919023
1.0395
1.16054
1.26546
1.3448
1.39551
1.37343
1.24387
1.08801
0.967224
0.86696
0.726399
0.261881
0.274971
0.322809
0.394627
0.480497
0.574768
0.676177
0.7841
0.897461
1.01588
1.13333
1.23281
1.3042
1.33521
1.27666
1.09046
0.902389
0.742539
0.595106
0.393735
0.239395
0.252106
0.301174
0.374162
0.460534
0.554762
0.655769
0.762774
0.874665
0.990661
1.10415
1.19765
1.26039
1.26224
1.15165
0.945479
0.723687
0.509958
0.323559
-0.097039
0.216959
0.229245
0.278803
0.35266
0.439441
0.53369
0.634286
0.740364
0.850673
0.964018
1.07322
1.1601
1.21235
1.17964
1.02686
0.816981
0.588231
0.362399
0.168968
-0.145356
0.193665
0.205788
0.255489
0.329878
0.416945
0.511224
0.611448
0.716621
0.825292
0.93582
1.04049
1.12031
1.1594
1.10715
0.914318
0.712694
0.503903
0.325653
0.249823
0.213482
0.169061
0.181007
0.230872
0.305531
0.392682
0.486832
0.58653
0.690573
0.797279
0.904506
1.00401
1.07608
1.10041
1.0187
0.814014
0.624976
0.453099
0.338196
0.300408
0.288537
0.14295
0.154838
0.204799
0.279616
0.366729
0.460584
0.55955
0.662207
0.766579
0.869998
0.963659
1.02779
1.03036
0.913409
0.723155
0.547869
0.401132
0.339985
0.325241
0.320407
0.115295
0.126947
0.177216
0.252146
0.339124
0.432514
0.530542
0.63153
0.733201
0.832353
0.919463
0.975302
0.950944
0.813552
0.637016
0.472821
0.365819
0.327524
0.334035
0.334564
0.0861023
0.0977304
0.148162
0.223193
0.309942
0.402712
0.499575
0.598617
0.697218
0.791613
0.871694
0.917354
0.875678
0.718863
0.558235
0.411335
0.36316
0.348289
0.343929
0.343575
0.0557875
0.0674257
0.117861
0.192962
0.279358
0.371338
0.466808
0.563623
0.65878
0.747959
0.820665
0.854572
0.804803
0.634389
0.487053
0.38013
0.331618
0.345058
0.347928
0.348381
0.0248307
0.036401
0.0868516
0.16179
0.247712
0.338703
0.432555
0.526853
0.618223
0.701796
0.766651
0.791379
0.719209
0.554821
0.427574
0.351436
0.346729
0.348255
0.350433
0.351488
-0.00591123
0.00535807
0.0558045
0.130204
0.215502
0.305295
0.397276