/*--------------------------------*- C++ -*----------------------------------*\
| =========                 |                                                 |
| \\      /  F ield         | OpenFOAM: The Open Source CFD Toolbox           |
|  \\    /   O peration     | Version:  4.0                                   |
|   \\  /    A nd           | Web:      www.OpenFOAM.org                      |
|    \\/     M anipulation  |                                                 |
\*---------------------------------------------------------------------------*/
FoamFile
{
    version     2.0;
    format      ascii;
    class       volVectorField;
    location    "31";
    object      U;
}
// * * * * * * * * * * * * * * * * * * * * * * * * * * * * * * * * * * * * * //

dimensions      [0 1 -1 0 0 0 0];

internalField   nonuniform List<vector> 
8800
(
(0.980155 -0.0915211 0)
(1.00234 -0.0587225 0)
(0.999611 -0.0321236 0)
(0.999997 -0.0165143 0)
(1.00004 -0.00882577 0)
(1.00002 -0.00507078 0)
(0.999993 -0.00297431 0)
(0.999985 -0.00168837 0)
(0.999983 -0.000811163 0)
(1.00005 -0.000123279 0)
(0.99999 0.000574798 0)
(1 0.00133086 0)
(1.00001 0.00236154 0)
(1.00002 0.00397083 0)
(1.00004 0.00672231 0)
(1.00004 0.0120324 0)
(0.999875 0.0230862 0)
(0.99907 0.043153 0)
(1.00722 0.0790275 0)
(0.775025 0.0478395 0)
(0.358977 -0.014749 0)
(1.04649 -0.0724938 0)
(1.08849 -0.0660309 0)
(1.04947 -0.0509235 0)
(1.02553 -0.0377038 0)
(1.01266 -0.0258959 0)
(1.00648 -0.0167092 0)
(1.00355 -0.0102475 0)
(1.00213 -0.00565136 0)
(1.00148 -0.0020896 0)
(1.00137 0.00109591 0)
(1.00173 0.00439632 0)
(1.00271 0.00829846 0)
(1.00473 0.0136352 0)
(1.00896 0.0213286 0)
(1.01798 0.0318292 0)
(1.03588 0.0446165 0)
(1.0675 0.0580756 0)
(1.09473 0.0699571 0)
(0.845694 0.0554984 0)
(0.217758 -0.00138122 0)
(1.07567 -0.0506636 0)
(1.09942 -0.0489499 0)
(1.06437 -0.0400336 0)
(1.03983 -0.0325675 0)
(1.02369 -0.0253501 0)
(1.01391 -0.0181695 0)
(1.00843 -0.0116145 0)
(1.0056 -0.00591083 0)
(1.00445 -0.000655819 0)
(1.00479 0.00443546 0)
(1.00665 0.00972191 0)
(1.01058 0.0157039 0)
(1.01789 0.0224775 0)
(1.03052 0.0296034 0)
(1.05055 0.0367155 0)
(1.08015 0.0445175 0)
(1.10578 0.0518641 0)
(0.943427 0.0409746 0)
(0.21729 0.00140044 0)
(0.176603 -0.000629115 0)
(1.01936 -0.0354752 0)
(1.10571 -0.0414308 0)
(1.07795 -0.0364182 0)
(1.05235 -0.0303754 0)
(1.03507 -0.0245151 0)
(1.02321 -0.0187676 0)
(1.01543 -0.0128302 0)
(1.01085 -0.00679296 0)
(1.00885 -0.000619767 0)
(1.00941 0.00548636 0)
(1.01253 0.0113883 0)
(1.01849 0.0171928 0)
(1.02808 0.0228104 0)
(1.04232 0.0283842 0)
(1.06318 0.0341868 0)
(1.09402 0.040104 0)
(1.09465 0.0416671 0)
(0.830556 0.0227256 0)
(0.175809 0.000644526 0)
(0.154686 -0.000462525 0)
(0.958111 -0.0256919 0)
(1.10435 -0.0351217 0)
(1.088 -0.0326842 0)
(1.0611 -0.028192 0)
(1.04303 -0.0232525 0)
(1.03066 -0.0180226 0)
(1.02208 -0.0125707 0)
(1.01655 -0.00674418 0)
(1.01394 -0.000361282 0)
(1.01463 0.00605006 0)
(1.01848 0.0118913 0)
(1.02529 0.0172234 0)
(1.03543 0.0222713 0)
(1.0502 0.0271344 0)
(1.07216 0.0316041 0)
(1.10122 0.0355164 0)
(1.07008 0.0337888 0)
(0.743211 0.0143757 0)
(0.1535 0.000479967 0)
(0.140003 -0.000334565 0)
(0.901084 -0.0193112 0)
(1.09673 -0.0302118 0)
(1.09611 -0.0293399 0)
(1.06875 -0.0255593 0)
(1.04986 -0.0215101 0)
(1.0369 -0.0169208 0)
(1.02794 -0.0117903 0)
(1.02204 -0.00616563 0)
(1.01911 7.39148e-05 0)
(1.01981 0.00634191 0)
(1.02387 0.0119398 0)
(1.03093 0.0169318 0)
(1.04146 0.0214335 0)
(1.05692 0.0254204 0)
(1.07976 0.0289866 0)
(1.10366 0.0317658 0)
(1.03862 0.0278655 0)
(0.676858 0.0101973 0)
(0.138336 0.00035535 0)
(0.129282 -0.00025259 0)
(0.851246 -0.0148827 0)
(1.08431 -0.0260651 0)
(1.10168 -0.0264468 0)
(1.07546 -0.0231864 0)
(1.05608 -0.0196049 0)
(1.04271 -0.0155277 0)
(1.03336 -0.0107849 0)
(1.02717 -0.00541788 0)
(1.02403 0.000601207 0)
(1.02465 0.00662919 0)
(1.02878 0.0119199 0)
(1.03603 0.0164892 0)
(1.04688 0.0204271 0)
(1.06271 0.0238314 0)
(1.08599 0.0268919 0)
(1.10303 0.028748 0)
(1.00444 0.0231971 0)
(0.625481 0.00775052 0)
(0.127031 0.000277853 0)
(0.121137 -0.000193004 0)
(0.808914 -0.0116471 0)
(1.06899 -0.0223812 0)
(1.10509 -0.0236852 0)
(1.08154 -0.0208347 0)
(1.06171 -0.0175 0)
(1.04807 -0.0137987 0)
(1.03845 -0.00947921 0)
(1.03199 -0.00447321 0)
(1.02865 0.00125011 0)
(1.02914 0.00696203 0)
(1.03328 0.0118444 0)
(1.04064 0.0158909 0)
(1.05161 0.0192846 0)
(1.06774 0.0222708 0)
(1.09142 0.0250692 0)
(1.09971 0.0260986 0)
(0.970181 0.0194517 0)
(0.584671 0.00612401 0)
(0.118177 0.000223903 0)
(0.114864 -0.000148018 0)
(0.773403 -0.00919409 0)
(1.05218 -0.0191023 0)
(1.10733 -0.0211733 0)
(1.08724 -0.018755 0)
(1.06693 -0.0156228 0)
(1.053 -0.0121107 0)
(1.04321 -0.00801711 0)
(1.03655 -0.00331524 0)
(1.03297 0.00203577 0)
(1.03331 0.00733229 0)
(1.03737 0.0117743 0)
(1.0447 0.0154055 0)
(1.05576 0.0184414 0)
(1.07222 0.0211179 0)
(1.0957 0.0235712 0)
(1.09377 0.023798 0)
(0.937246 0.0164547 0)
(0.551507 0.004973 0)
(0.111041 0.000185737 0)
(0.110025 -0.000111519 0)
(0.743918 -0.00724875 0)
(1.035 -0.0160928 0)
(1.10845 -0.0186555 0)
(1.09248 -0.0166192 0)
(1.07193 -0.0136854 0)
(1.05775 -0.0103344 0)
(1.04776 -0.00643045 0)
(1.04089 -0.00201152 0)
(1.03708 0.00298338 0)
(1.03721 0.00786312 0)
(1.04113 0.0118483 0)
(1.04839 0.0150564 0)
(1.05949 0.017742 0)
(1.07615 0.0200815 0)
(1.09865 0.0221456 0)
(1.0856 0.0216721 0)
(0.906432 0.0140359 0)
(0.52406 0.00412262 0)
(0.105152 0.000157879 0)
(0.106343 -8.17191e-05 0)
(0.719713 -0.00564 0)
(1.01843 -0.0133248 0)
(1.10879 -0.0161334 0)
(1.09751 -0.0143552 0)
(1.07666 -0.0114989 0)
(1.06216 -0.00832815 0)
(1.05195 -0.00466968 0)
(1.04487 -0.000505974 0)
(1.04081 0.00414006 0)
(1.04065 0.00856591 0)
(1.04435 0.0121121 0)
(1.05149 0.0148704 0)
(1.06264 0.0170961 0)
(1.07958 0.0190657 0)
(1.10037 0.0208103 0)
(1.07584 0.0197297 0)
(0.878048 0.012069 0)
(0.501002 0.00347888 0)
(0.10019 0.000138158 0)
(0.103634 -5.62734e-05 0)
(0.700239 -0.00424236 0)
(1.00309 -0.0107098 0)
(1.10844 -0.0136403 0)
(1.10231 -0.0121811 0)
(1.08122 -0.00944322 0)
(1.06636 -0.00634019 0)
(1.05594 -0.00276654 0)
(1.04861 0.00121476 0)
(1.04423 0.00552674 0)
(1.04373 0.00950738 0)
(1.04714 0.0125929 0)
(1.0541 0.0149028 0)
(1.06528 0.0167532 0)
(1.08252 0.0184319 0)
(1.10118 0.0197247 0)
(1.06484 0.0180156 0)
(0.852133 0.0104641 0)
(0.481387 0.00298884 0)
(0.0959116 0.00012604 0)
(0.101799 -3.09606e-05 0)
(0.685172 -0.00295273 0)
(0.989535 -0.00812637 0)
(1.10738 -0.0109202 0)
(1.10652 -0.00974241 0)
(1.08565 -0.00713129 0)
(1.07054 -0.00404325 0)
(1.0598 -0.000564035 0)
(1.05208 0.00320093 0)
(1.04725 0.00721115 0)
(1.04635 0.0107901 0)
(1.04949 0.0133704 0)
(1.05633 0.0152233 0)
(1.06741 0.01668 0)
(1.08462 0.0179475 0)
(1.10077 0.0187087 0)
(1.05284 0.0163537 0)
(0.828688 0.00909576 0)
(0.464572 0.00259581 0)
(0.0921515 0.000117104 0)
(0.100795 -5.04184e-06 0)
(0.674375 -0.00173875 0)
(0.978405 -0.00558517 0)
(1.10627 -0.00795239 0)
(1.11049 -0.00679542 0)
(1.09003 -0.00427105 0)
(1.0746 -0.0013386 0)
(1.06358 0.00197631 0)
(1.05558 0.00557873 0)
(1.05033 0.00928112 0)
(1.04885 0.0123868 0)
(1.05145 0.0144162 0)
(1.05794 0.0156733 0)
(1.069 0.0165266 0)
(1.08622 0.0172306 0)
(1.09942 0.0176086 0)
(1.04043 0.0148366 0)
(0.807668 0.007968 0)
(0.450059 0.00229627 0)
(0.0887773 0.000112718 0)
(0.100609 1.55577e-05 0)
(0.667695 -0.000499683 0)
(0.969899 -0.00301862 0)
(1.1054 -0.00495914 0)
(1.11431 -0.00391577 0)
(1.09411 -0.00149162 0)
(1.07829 0.00145458 0)
(1.06694 0.00476589 0)
(1.05846 0.00829246 0)
(1.05258 0.0117932 0)
(1.05047 0.0145096 0)
(1.05258 0.0160614 0)
(1.05871 0.0167773 0)
(1.06965 0.0171001 0)
(1.08684 0.0172937 0)
(1.09703 0.0170569 0)
(1.02764 0.0136597 0)
(0.78874 0.00707047 0)
(0.437379 0.00207944 0)
(0.0856585 0.000113722 0)
(0.101304 5.87366e-05 0)
(0.665157 0.000714124 0)
(0.964237 -0.000389683 0)
(1.10466 -0.00171 0)
(1.11783 -0.000800785 0)
(1.09835 0.00154281 0)
(1.08233 0.00465339 0)
(1.07066 0.00810477 0)
(1.06171 0.011637 0)
(1.05511 0.0149181 0)
(1.05216 0.0171648 0)
(1.05352 0.0181072 0)
(1.05907 0.0182795 0)
(1.06966 0.0180987 0)
(1.08647 0.0176535 0)
(1.09311 0.016671 0)
(1.01433 0.0126225 0)
(0.771707 0.00639661 0)
(0.426166 0.00193109 0)
(0.0827415 0.000109622 0)
(0.102954 8.3184e-05 0)
(0.666445 0.00178135 0)
(0.961912 0.00207163 0)
(1.10475 0.00169732 0)
(1.1213 0.00282297 0)
(1.10263 0.00530672 0)
(1.08642 0.00856279 0)
(1.07423 0.0121002 0)
(1.06456 0.0156233 0)
(1.05704 0.0187386 0)
(1.05308 0.0205693 0)
(1.05359 0.0209132 0)
(1.05859 0.0203818 0)
(1.06872 0.0194857 0)
(1.08503 0.0185347 0)
(1.08773 0.0167523 0)
(1.00089 0.0122801 0)
(0.755953 0.00625831 0)
(0.415611 0.00196464 0)
(0.0799019 0.000111803 0)
(0.105508 0.000123473 0)
(0.671475 0.00283203 0)
(0.962981 0.0043964 0)
(1.10644 0.00499938 0)
(1.12535 0.00660399 0)
(1.10721 0.00946681 0)
(1.09068 0.0129791 0)
(1.07795 0.0167186 0)
(1.06747 0.0203961 0)
(1.05885 0.023429 0)
(1.05364 0.0248402 0)
(1.05306 0.0245978 0)
(1.05717 0.0233708 0)
(1.06679 0.02178 0)
(1.08241 0.0201613 0)
(1.08131 0.0177958 0)
(0.98707 0.0128102 0)
(0.740477 0.00668772 0)
(0.404676 0.00218611 0)
(0.0768854 0.000122866 0)
(0.108989 0.00016354 0)
(0.679885 0.00388181 0)
(0.967055 0.00660862 0)
(1.10984 0.00822131 0)
(1.13031 0.0102807 0)
(1.11237 0.0136316 0)
(1.0954 0.0176468 0)
(1.08205 0.0219292 0)
(1.07061 0.0260587 0)
(1.06056 0.029233 0)
(1.0538 0.0303473 0)
(1.0519 0.0295573 0)
(1.05497 0.0276387 0)
(1.06394 0.0253674 0)
(1.0787 0.0230503 0)
(1.07363 0.0199008 0)
(0.972357 0.0142027 0)
(0.724194 0.00765471 0)
(0.392366 0.00256429 0)
(0.0734239 0.000143619 0)
(0.113529 0.00021589 0)
(0.69182 0.00514743 0)
(0.974516 0.00921001 0)
(1.11494 0.0119791 0)
(1.13608 0.0145539 0)
(1.11838 0.0185396 0)
(1.10097 0.0233892 0)
(1.08674 0.0284774 0)
(1.07394 0.0331353 0)
(1.06208 0.0364158 0)
(1.05345 0.0371371 0)
(1.04998 0.0356267 0)
(1.05187 0.0329791 0)
(1.06003 0.0300484 0)
(1.07359 0.0269242 0)
(1.0642 0.0228028 0)
(0.956254 0.0163297 0)
(0.706028 0.00902042 0)
(0.377955 0.00304405 0)
(0.0693342 0.000169699 0)
(0.119453 0.000289518 0)
(0.707814 0.00681697 0)
(0.986054 0.0124471 0)
(1.1226 0.0166777 0)
(1.14321 0.0203253 0)
(1.12572 0.0253688 0)
(1.10772 0.0312105 0)
(1.09222 0.0370996 0)
(1.07758 0.0421571 0)
(1.06347 0.0452904 0)
(1.05258 0.0452721 0)
(1.04732 0.0427997 0)
(1.04783 0.0392787 0)
(1.05502 0.0353941 0)
(1.06692 0.0314281 0)
(1.05311 0.0263887 0)
(0.93846 0.0191081 0)
(0.685043 0.0106541 0)
(0.360961 0.003581 0)
(0.0644897 0.000199446 0)
(0.127289 0.000399764 0)
(0.728799 0.00914298 0)
(1.0022 0.0166303 0)
(1.1339 0.0225734 0)
(1.15286 0.0278538 0)
(1.13478 0.0343345 0)
(1.11563 0.0413471 0)
(1.09823 0.0480235 0)
(1.08117 0.0533887 0)
(1.06429 0.0561782 0)
(1.05073 0.0551342 0)
(1.04349 0.05129 0)
(1.04267 0.0464756 0)
(1.04872 0.0418477 0)
(1.05882 0.0371491 0)
(1.04046 0.0312791 0)
(0.917799 0.0227068 0)
(0.660229 0.0124982 0)
(0.341107 0.00417837 0)
(0.0588658 0.000229425 0)
(0.137799 0.000561868 0)
(0.756078 0.0124374 0)
(1.02355 0.0221786 0)
(1.14942 0.0298105 0)
(1.16579 0.0369137 0)
(1.14603 0.0451001 0)
(1.12483 0.0535186 0)
(1.10485 0.0611387 0)
(1.08479 0.0669652 0)
(1.06457 0.0695283 0)
(1.04787 0.067606 0)
(1.03827 0.0625037 0)
(1.03599 0.0562421 0)
(1.04131 0.0502344 0)
(1.04958 0.0449537 0)
(1.02539 0.0377377 0)
(0.892541 0.0268923 0)
(0.631047 0.0145828 0)
(0.318044 0.00484981 0)
(0.0523847 0.000259585 0)
(0.152182 0.000823332 0)
(0.791613 0.0173691 0)
(1.05113 0.0300048 0)
(1.16912 0.0394646 0)
(1.18207 0.0483228 0)
(1.15973 0.0582704 0)
(1.13554 0.0681296 0)
(1.11226 0.076894 0)
(1.08858 0.0833248 0)
(1.06444 0.0858001 0)
(1.04421 0.0831968 0)
(1.0319 0.077138 0)
(1.02765 0.069768 0)
(1.03198 0.062451 0)
(1.03829 0.0553679 0)
(1.00535 0.045526 0)
(0.861495 0.0315243 0)
(0.59723 0.01702 0)
(0.291376 0.00561419 0)
(0.0450076 0.000289118 0)
(0.172576 0.00128489 0)
(0.838784 0.0251294 0)
(1.08746 0.0418382 0)
(1.19324 0.0537135 0)
(1.20142 0.0643407 0)
(1.17555 0.075806 0)
(1.14777 0.0870164 0)
(1.12048 0.0967096 0)
(1.09246 0.103392 0)
(1.06389 0.105381 0)
(1.03983 0.10171 0)
(1.02457 0.0944751 0)
(1.01793 0.0858565 0)
(1.02011 0.076896 0)
(1.02204 0.0669421 0)
(0.97844 0.0536408 0)
(0.824945 0.036743 0)
(0.558458 0.0199006 0)
(0.260775 0.00644252 0)
(0.0367669 0.000311836 0)
(0.202348 0.00232925 0)
(0.903346 0.0385951 0)
(1.13565 0.0614414 0)
(1.22194 0.0760895 0)
(1.22317 0.0886868 0)
(1.19301 0.101185 0)
(1.16098 0.112986 0)
(1.12883 0.122519 0)
(1.09581 0.128229 0)
(1.06238 0.128511 0)
(1.03424 0.122699 0)
(1.0158 0.113408 0)
(1.00628 0.102779 0)
(1.00465 0.091441 0)
(0.999708 0.0784435 0)
(0.945512 0.062216 0)
(0.783524 0.0429655 0)
(0.514321 0.0233458 0)
(0.226585 0.00737105 0)
(0.0279812 0.000324926 0)
(0.243208 0.00862913 1.51592e-19)
(0.989331 0.0658306 1.30404e-19)
(1.19392 0.0948898 -4.4394e-20)
(1.25387 0.110826 0)
(1.24554 0.125865 -1.00654e-33)
(1.21045 0.137862 1.43909e-20)
(1.17356 0.148471 -2.40282e-20)
(1.13597 0.156148 0)
(1.09746 0.159404 4.51994e-34)
(1.05872 0.156626 -2.58562e-20)
(1.02599 0.147558 0)
(1.00369 0.13527 -2.89737e-20)
(0.990304 0.121903 -8.4318e-20)
(0.983057 0.10789 -3.94483e-20)
(0.970052 0.0928726 -1.16883e-20)
(0.905719 0.0753043 -6.89232e-21)
(0.732944 0.0530358 0)
(0.460528 0.0288747 4.8105e-21)
(0.189325 0.0096783 5.68403e-21)
(0.0199532 0.000751072 1.02602e-19)
(0.270891 0.0242705 1.37222e-19)
(1.05978 0.108572 5.08473e-22)
(1.24114 0.142988 1.30356e-20)
(1.28334 0.159934 0)
(1.26538 0.174355 -5.48787e-20)
(1.2255 0.184744 -5.99373e-20)
(1.18363 0.193319 -2.51773e-20)
(1.14047 0.198591 -8.35485e-20)
(1.0961 0.19898 0)
(1.05119 0.192642 1.10749e-19)
(1.01253 0.179659 1.06584e-19)
(0.984724 0.163743 3.0982e-20)
(0.965547 0.14724 1.0972e-19)
(0.951021 0.130663 1.51093e-19)
(0.928673 0.113991 0)
(0.856026 0.0951867 2.10083e-19)
(0.675545 0.0685903 3.00983e-19)
(0.407027 0.038495 3.33994e-19)
(0.157824 0.0139981 -3.81774e-19)
(0.0137372 0.00120971 -7.19555e-21)
(0.270507 0.0396132 0)
(1.10331 0.164342 3.01559e-20)
(1.27331 0.202612 0)
(1.30602 0.219709 -8.8564e-20)
(1.2808 0.231108 0)
(1.23663 0.23836 -1.2478e-19)
(1.18996 0.243513 5.30097e-20)
(1.14146 0.245227 -1.74662e-19)
(1.09145 0.241768 -1.57237e-21)
(1.04054 0.23122 5.84839e-20)
(0.996072 0.214139 2.3152e-19)
(0.963059 0.194911 -3.12534e-22)
(0.938847 0.176075 -7.91241e-20)
(0.919231 0.158236 -1.40969e-19)
(0.892461 0.140984 1.65858e-19)
(0.81953 0.120548 -2.92805e-19)
(0.644245 0.0887935 -3.84558e-20)
(0.390407 0.0522671 0)
(0.157538 0.0207752 2.42859e-23)
(0.0149088 0.00209795 0)
(0.263588 0.0531163 5.50547e-19)
(1.12615 0.223325 -2.45082e-19)
(1.29348 0.267081 -1.575e-19)
(1.32064 0.284097 4.59534e-20)
(1.29033 0.292148 -7.50272e-20)
(1.24283 0.295692 2.65408e-19)
(1.19213 0.296864 1.1254e-19)
(1.13898 0.294455 0)
(1.08386 0.286724 -3.08582e-19)
(1.0275 0.271724 0)
(0.977758 0.250697 -1.22951e-19)
(0.940211 0.228619 -1.45531e-19)
(0.912094 0.207977 -8.55872e-20)
(0.889216 0.189189 -1.01657e-19)
(0.860521 0.171121 0)
(0.791547 0.148842 0)
(0.628716 0.113401 -2.50278e-19)
(0.393841 0.0708543 4.92432e-20)
(0.169832 0.0306788 -2.90654e-20)
(0.0194174 0.00374617 -3.39789e-20)
(0.256158 0.0651932 -3.34389e-19)
(1.13567 0.282089 0)
(1.30474 0.33243 3.80335e-19)
(1.32817 0.349641 1.43157e-19)
(1.2942 0.354436 1.63816e-19)
(1.24408 0.354274 0)
(1.19012 0.351446 1.16736e-19)
(1.1331 0.344841 1.97666e-19)
(1.07362 0.332782 1.62227e-19)
(1.01246 0.313385 2.7188e-19)
(0.958214 0.288561 0)
(0.916966 0.263894 -3.12977e-19)
(0.885865 0.24166 -1.8424e-19)
(0.860698 0.222011 -1.0785e-19)
(0.831282 0.203343 6.46763e-19)
(0.766423 0.179963 7.66958e-20)
(0.618935 0.14111 3.60576e-19)
(0.401972 0.0921311 -1.70199e-18)
(0.184281 0.0427757 1.01087e-18)
(0.0244916 0.00599546 -1.21839e-18)
(0.249428 0.0761722 -3.03197e-19)
(1.13682 0.338788 6.49575e-20)
(1.30917 0.396821 -5.54851e-20)
(1.33006 0.414464 -1.91219e-19)
(1.29331 0.416219 -1.65428e-19)
(1.24107 0.412525 1.73142e-21)
(1.18443 0.405895 -1.2547e-19)
(1.12419 0.395272 2.08855e-19)
(1.06101 0.379044 -3.48099e-19)
(0.995776 0.3554 0)
(0.937701 0.326923 -1.44473e-19)
(0.8935 0.299704 -1.58858e-21)
(0.860172 0.275939 -1.99374e-19)
(0.833441 0.255375 0)
(0.803905 0.236035 -1.39256e-19)
(0.743518 0.211407 -3.29706e-19)
(0.609646 0.169726 8.78905e-19)
(0.408315 0.114327 -8.64596e-19)
(0.195753 0.0555712 1.22884e-18)
(0.0286949 0.00846096 -1.27684e-18)
(0.243996 0.0864123 -4.0701e-22)
(1.13283 0.392792 -6.52598e-20)
(1.30892 0.459774 -2.2727e-19)
(1.32759 0.477502 9.79406e-20)
(1.28867 0.476508 -8.7272e-20)
(1.23465 0.469539 0)
(1.17577 0.459378 -1.28155e-19)
(1.11281 0.444999 -2.21605e-19)
(1.04647 0.424839 -1.84011e-19)
(0.977718 0.397128 0)
(0.916408 0.365077 -1.52248e-19)
(0.869813 0.335302 -1.80599e-19)
(0.834846 0.309843 2.14691e-19)
(0.807101 0.288271 -1.27543e-19)
(0.777755 0.268237 -6.01604e-19)
(0.721162 0.242316 3.56965e-19)
(0.598614 0.198257 1.06426e-19)
(0.409457 0.136223 0)
(0.201683 0.0677782 -1.17795e-18)
(0.0313658 0.0107806 -4.31082e-20)
(0.239844 0.096218 -4.02527e-20)
(1.12576 0.44399 6.7123e-20)
(1.30498 0.520272 1.20236e-19)
(1.32179 0.538166 3.1877e-19)
(1.28112 0.534729 -3.62089e-19)
(1.22562 0.524791 3.16734e-19)
(1.16485 0.51139 2.74633e-19)
(1.09954 0.493548 -3.54924e-19)
(1.03044 0.469721 1.04593e-19)
(0.958584 0.438132 -6.66847e-19)
(0.894481 0.402537 -1.67267e-19)
(0.845904 0.3701 0)
(0.809738 0.342797 2.31073e-19)
(0.78141 0.319967 2.72386e-19)
(0.752535 0.298943 3.22381e-19)
(0.699238 0.271652 -3.84327e-19)
(0.584991 0.224878 -1.13503e-19)
(0.404818 0.155904 1.33744e-19)
(0.201478 0.0779767 0)
(0.0321355 0.0125489 -9.27124e-20)
(0.236817 0.105728 4.07956e-19)
(1.11709 0.492488 -2.75858e-19)
(1.29838 0.577951 -1.26813e-19)
(1.31353 0.596134 2.21961e-19)
(1.27139 0.590543 -1.87622e-19)
(1.21463 0.57794 -3.99666e-21)
(1.15224 0.561622 -2.95605e-19)
(1.08491 0.540628 -1.27201e-19)
(1.01333 0.513405 -3.17247e-19)
(0.938672 0.478138 2.28603e-22)
(0.87203 0.439018 -5.29858e-19)
(0.821788 0.403764 4.23696e-19)
(0.784682 0.37436 -2.50225e-19)
(0.756066 0.350018 2.95557e-19)
(0.727724 0.327667 0)
(0.677024 0.298643 -2.06567e-19)
(0.568763 0.248517 -8.81516e-22)
(0.3951 0.172228 -5.76424e-19)
(0.196872 0.0856271 -8.49595e-20)
(0.0315268 0.0136801 0)
(0.234756 0.115045 0)
(1.10766 0.538466 -2.9153e-19)
(1.28992 0.632729 -2.59981e-19)
(1.30348 0.651304 -2.3259e-19)
(1.26006 0.643786 -2.06804e-19)
(1.20224 0.628805 0)
(1.13846 0.609878 -1.50272e-19)
(1.06932 0.586047 -1.17289e-21)
(0.995514 0.555724 6.78599e-19)
(0.918243 0.516989 -9.35299e-20)
(0.849216 0.47438 -3.79961e-19)
(0.797409 0.436156 2.23376e-19)
(0.759553 0.404394 -2.01842e-21)
(0.730755 0.378205 3.149e-19)
(0.702906 0.354225 1.89494e-19)
(0.654083 0.322949 -4.44145e-19)
(0.549949 0.268676 5.25567e-19)
(0.380942 0.185251 1.55115e-19)
(0.188196 0.0906038 6.39496e-19)
(0.0295955 0.0140894 -1.7132e-18)
(0.233581 0.124293 8.55488e-20)
(1.09803 0.582136 -1.47903e-19)
(1.28033 0.684624 1.26861e-19)
(1.29215 0.703662 2.4055e-19)
(1.24765 0.694391 0)
(1.18891 0.677296 -1.80739e-19)
(1.12392 0.656056 4.8822e-19)
(1.05317 0.629695 2.85869e-19)
(0.977299 0.596573 0)
(0.897528 0.554612 -1.31991e-18)
(0.826149 0.508576 1.02026e-18)
(0.772797 0.467258 0)
(0.734163 0.432873 2.88831e-19)
(0.70523 0.404541 -2.00449e-21)
(0.677786 0.378588 -6.05712e-19)
(0.630209 0.344577 2.37093e-19)
(0.528745 0.285414 0)
(0.363301 0.194614 8.33594e-19)
(0.176419 0.0931196 0)
(0.0268565 0.0139342 -8.0603e-19)
(0.233104 0.133527 -8.81024e-20)
(1.08863 0.62361 -1.50335e-19)
(1.2698 0.733705 1.37302e-19)
(1.27998 0.753184 0)
(1.23454 0.742351 -2.23894e-19)
(1.17501 0.723389 0)
(1.10896 0.700104 -5.09698e-19)
(1.03675 0.671513 -1.45348e-19)
(0.958951 0.635903 1.2515e-19)
(0.876739 0.590988 -6.51807e-19)
(0.802944 0.541638 1.07211e-19)
(0.747915 0.49712 0)
(0.708428 0.459887 -6.16979e-19)
(0.67932 0.429113 2.05291e-21)
(0.652124 0.40084 0)
(0.605179 0.363596 2.27752e-21)
(0.505093 0.29878 7.57982e-19)
(0.342447 0.200311 -7.17303e-19)
(0.162284 0.0931766 2.1147e-19)
(0.0235669 0.0132187 0)
(0.233 0.142598 0)
(1.07964 0.663002 -1.54646e-19)
(1.25875 0.780118 -1.37444e-19)
(1.26732 0.799925 -2.28459e-21)
(1.22103 0.787698 -1.12756e-19)
(1.16083 0.767089 -4.10641e-19)
(1.09385 0.742012 1.84098e-19)
(1.02032 0.711477 -1.60688e-19)
(0.940705 0.673686 5.44017e-19)
(0.856058 0.626126 -1.04216e-18)
(0.779699 0.573631 -3.354e-21)
(0.722799 0.525856 -2.7811e-19)
(0.682316 0.485549 9.94991e-19)
(0.652918 0.452053 -2.41722e-21)
(0.625818 0.421107 -4.6585e-19)
(0.578924 0.380026 -8.27899e-19)
(0.479261 0.308795 0)
(0.318935 0.202515 0)
(0.146301 0.0908162 2.2771e-19)
(0.0199555 0.0119856 -1.33223e-19)
(0.233413 0.151652 -9.26084e-20)
(1.07107 0.700145 3.23695e-19)
(1.24745 0.823925 1.46451e-19)
(1.25443 0.843973 0)
(1.20739 0.830492 -1.55018e-21)
(1.14662 0.808432 -4.25309e-19)
(1.07884 0.781799 4.7768e-19)
(1.00411 0.749588 6.67096e-19)
(0.922757 0.70993 7.18243e-19)
(0.835671 0.660059 -8.58889e-19)
(0.756593 0.604656 -8.72453e-19)
(0.697556 0.553631 7.43274e-19)
(0.655787 0.510047 0)
(0.625943 0.473506 -2.12259e-19)
(0.598765 0.439478 -5.01616e-19)
(0.551367 0.3939 -5.92657e-19)
(0.450964 0.31532 -7.02138e-19)
(0.293177 0.201229 2.0749e-19)
(0.128822 0.0860636 -1.22208e-19)
(0.0160452 0.0102755 3.26446e-22)
(0.233884 0.160571 0)
(1.06309 0.735564 0)
(1.23609 0.865219 2.5843e-21)
(1.2415 0.885421 0)
(1.19381 0.870818 3.71145e-19)
(1.13256 0.847479 3.30852e-19)
(1.06408 0.819494 0)
(0.988273 0.785863 8.56183e-20)
(0.905286 0.744642 1.21506e-18)
(0.815774 0.692824 -1.96948e-18)
(0.733797 0.634822 0)
(0.672246 0.580626 -4.76972e-19)
(0.628839 0.533574 -2.9504e-21)
(0.598304 0.493608 -2.4133e-21)
(0.570882 0.45598 5.35971e-19)
(0.522527 0.405094 -4.11023e-22)
(0.420651 0.318301 -1.50768e-18)
(0.265235 0.196314 4.4557e-19)
(0.110527 0.0792339 1.31627e-19)
(0.0121339 0.00826036 0)
(0.234354 0.169294 2.91182e-19)
(1.05543 0.76927 1.72125e-19)
(1.22475 0.904066 3.09155e-19)
(1.22867 0.92437 -5.70075e-19)
(1.18043 0.908742 6.4494e-19)
(1.1188 0.88429 0)
(1.04973 0.855147 3.15895e-19)
(0.972954 0.820331 -1.85308e-19)
(0.888436 0.777847 3.83246e-21)
(0.79653 0.724458 1.42313e-19)
(0.71145 0.66422 1.13243e-18)
(0.646995 0.607032 -1.68495e-19)
(0.601484 0.55637 -6.10047e-19)
(0.569883 0.512538 -2.452e-19)
(0.541996 0.470578 2.89639e-19)
(0.49235 0.41335 -2.61751e-22)
(0.388743 0.317479 4.05404e-19)
(0.236055 0.187917 -9.56548e-19)
(0.0921123 0.0707166 1.13062e-18)
(0.00836698 0.00605596 1.64911e-19)
(0.23466 0.1777 -9.95997e-20)
(1.04811 0.801349 8.93714e-20)
(1.21357 0.940589 6.08974e-21)
(1.21607 0.960935 -2.92456e-19)
(1.16737 0.94437 -1.31088e-19)
(1.10543 0.918937 -6.2002e-19)
(1.03588 0.888806 1.0717e-19)
(0.95826 0.853015 -7.85129e-19)
(0.872326 0.809545 -1.36614e-18)
(0.778062 0.754965 -1.18592e-18)
(0.689727 0.692925 0)
(0.62196 0.633027 -7.29132e-19)
(0.573775 0.578734 8.73734e-19)
(0.54051 0.530549 0)
(0.511799 0.483188 -6.19501e-19)
(0.460727 0.418189 3.68273e-19)
(0.355598 0.312379 -4.34738e-19)
(0.206762 0.176201 -5.1392e-19)
(0.0745214 0.0610489 -9.09432e-19)
(0.00497555 0.00384723 -7.08954e-19)
(0.235256 0.185925 1.01631e-19)
(1.04098 0.831772 -9.53771e-20)
(1.2026 0.974866 -2.42225e-19)
(1.20377 0.9952 -3.81424e-19)
(1.1547 0.977789 2.83267e-19)
(1.09254 0.951503 -3.86849e-19)
(1.02262 0.920525 3.46279e-19)
(0.944265 0.883959 -8.27692e-19)
(0.857025 0.83976 -8.15527e-19)
(0.760489 0.784359 1.25338e-18)
(0.668796 0.720991 2.49154e-18)
(0.597323 0.658771 0)
(0.545803 0.600974 0)
(0.509994 0.548005 -2.81317e-19)
(0.479746 0.493775 0)
(0.427219 0.418782 7.91098e-19)
(0.321751 0.301947 9.34067e-19)
(0.178988 0.161 0)
(0.0591185 0.0508114 0)
(0.00216882 0.00185491 7.60868e-19)
(0.235466 0.193665 -1.03533e-19)
(1.03408 0.860538 -8.74072e-20)
(1.19191 1.00701 -1.70402e-19)
(1.19184 1.02729 3.13981e-19)
(1.14249 1.0091 2.95187e-19)
(1.08018 0.98206 4.69769e-19)
(1.00999 0.950364 -4.88559e-19)
(0.931018 0.913193 1.82954e-22)
(0.842605 0.8685 -4.94841e-21)
(0.743907 0.812636 -5.68041e-21)
(0.648822 0.748444 1.28447e-18)
(0.573292 0.684375 0)
(0.517764 0.623395 8.77098e-19)
(0.478208 0.565419 5.99717e-19)
(0.445015 0.502619 1.43335e-18)
(0.390685 0.414206 4.24354e-19)
(0.287443 0.283991 -5.02675e-19)
(0.155812 0.140426 -2.9561e-19)
(0.0503048 0.039767 0)
(0.00134062 0.000695595 8.16424e-19)
(0.235952 0.201377 2.08952e-19)
(1.02737 0.887742 0)
(1.18149 1.03709 -1.72345e-19)
(1.18029 1.05729 2.46121e-19)
(1.13078 1.03839 -3.03689e-19)
(1.06838 1.01069 -6.2739e-19)
(0.998019 0.978382 1.02105e-18)
(0.918548 0.940755 -6.20861e-20)
(0.8291 0.895776 0)
(0.728384 0.839766 -1.40653e-18)
(0.629947 0.77527 -2.81026e-18)
(0.5501 0.709917 1.08876e-19)
(0.48996 0.646252 1.20391e-18)
(0.445208 0.583426 0)
(0.406679 0.510562 9.61817e-19)
(0.348795 0.404327 0)
(0.250068 0.255033 0)
(0.139742 0.104472 -3.19074e-19)
(0.0663177 0.0166526 0)
(0.0260406 0.010513 2.18662e-19)
(0.236042 0.208458 2.13034e-19)
(1.02084 0.913729 0)
(1.17135 1.06529 -2.6317e-19)
(1.16911 1.08542 0)
(1.11952 1.06591 1.5297e-19)
(1.05709 1.03768 0)
(0.98665 1.00489 6.21472e-20)
(0.906759 0.966982 1.17465e-19)
(0.816393 0.921953 1.02919e-19)
(0.71377 0.866139 -1.55855e-18)
(0.612038 0.801901 8.68306e-20)
(0.527607 0.73597 8.63495e-19)
(0.462189 0.670164 1.17231e-18)
(0.410494 0.60303 1.54796e-19)
(0.363117 0.519409 7.48757e-19)
(0.297365 0.391259 0)
(0.197995 0.215097 1.05304e-18)
(0.101396 0.0429748 -6.17196e-19)
(0.0456982 0.0454833 7.18958e-19)
(-0.0682696 0.420896 -8.51131e-19)
(0.236097 0.215298 -1.64708e-19)
(1.01424 0.938297 -2.8744e-19)
(1.1614 1.09195 0)
(1.15815 1.11211 5.12163e-21)
(1.10855 1.09223 -3.91106e-19)
(1.04604 1.0637 1.08675e-18)
(0.975585 1.03067 3.95737e-19)
(0.895265 0.992806 0)
(0.803979 0.948111 7.18438e-19)
(0.699431 0.893047 -8.54155e-20)
(0.594233 0.829794 0)
(0.504728 0.7643 0)
(0.433108 0.696912 1.04789e-18)
(0.372698 0.626011 -4.72987e-19)
(0.311655 0.532377 -7.53614e-19)
(0.231875 0.380869 0)
(0.113987 0.198087 5.27812e-19)
(0.00988651 0.430282 -6.13244e-19)
(0.0389233 1.85434 -3.46791e-19)
(0.0695383 2.79231 -4.36573e-19)
(0.235999 0.221284 1.09099e-19)
(1.00779 0.961612 3.42038e-19)
(1.15165 1.11705 -1.40792e-19)
(1.14742 1.1372 -1.73509e-19)
(1.09791 1.11713 0)
(1.0353 1.08845 7.44215e-19)
(0.965004 1.05541 6.01092e-19)
(0.884238 1.0178 -6.08188e-20)
(0.792111 0.973736 1.05871e-19)
(0.68573 0.919872 1.51157e-18)
(0.577113 0.858253 1.44317e-18)
(0.48243 0.794437 9.74899e-19)
(0.403829 0.726129 1.05172e-18)
(0.333976 0.650888 -1.1045e-18)
(0.258309 0.552322 -1.13231e-18)
(0.154713 0.406865 0)
(0.0567201 0.81799 0)
(0.113243 2.52559 2.98875e-19)
(0.114847 3.186 0)
(0.117731 3.38219 7.39999e-19)
(0.238405 0.226765 0)
(1.00206 0.98383 0)
(1.14189 1.14045 0)
(1.13667 1.16049 -4.24823e-20)
(1.08729 1.14037 -3.38608e-19)
(1.02464 1.11181 5.28871e-19)
(0.9548 1.07901 4.0994e-19)
(0.87363 1.04186 -6.17034e-20)
(0.780751 0.998694 9.43156e-19)
(0.672692 0.946473 -1.00218e-20)
(0.560823 0.887159 2.88483e-18)
(0.461076 0.826175 -1.10634e-19)
(0.374851 0.758623 1.29258e-19)
(0.296544 0.674662 1.58258e-19)
(0.198678 0.579769 -4.09541e-22)
(0.118896 0.949451 1.77494e-21)
(0.156319 2.67427 -1.534e-18)
(0.169062 3.28254 -5.89455e-19)
(0.155186 3.42521 3.20718e-19)
(0.139621 3.44907 -3.65314e-19)
(0.155934 0.183232 -5.29509e-20)
(0.990783 1.0078 0)
(1.13187 1.16236 2.39659e-19)
(1.12656 1.18248 4.07415e-19)
(1.07745 1.16272 -6.35246e-19)
(1.01496 1.13441 -5.47044e-19)
(0.944869 1.10158 -4.54006e-19)
(0.863539 1.0651 7.93014e-19)
(0.770083 1.02311 -7.97454e-19)
(0.660642 0.972928 0)
(0.545824 0.916584 1.44316e-18)
(0.441287 0.859247 -8.05413e-19)
(0.346865 0.797078 0)
(0.261345 0.700908 1.49411e-19)
(0.171605 0.817046 3.52875e-19)
(0.172138 2.42254 -4.2274e-19)
(0.238267 3.31801 4.80378e-19)
(0.214923 3.44232 2.70324e-19)
(0.178419 3.46516 3.10667e-19)
(0.154233 3.476 5.22951e-19)
(0.281198 0.264808 1.07692e-19)
(0.975404 1.01709 0)
(1.11368 1.18692 -2.23903e-19)
(1.11219 1.21474 -3.84775e-19)
(1.06155 1.19556 6.04216e-19)
(0.998574 1.16774 5.17493e-19)
(0.927679 1.13631 5.94198e-19)
(0.845784 1.10098 6.05613e-20)
(0.751134 1.06106 8.1356e-19)
(0.639245 1.0146 1.39836e-18)
(0.519893 0.964369 8.57636e-20)
(0.407978 0.914582 7.34019e-19)
(0.297855 0.862711 1.24699e-19)
(0.22817 0.976184 -1.49903e-19)
(0.246303 2.26692 -3.44565e-19)
(0.313273 3.32201 3.58304e-19)
(0.298212 3.47674 -4.12406e-19)
(0.259936 3.49959 -2.41728e-19)
(0.220438 3.52773 -2.38805e-19)
(0.165774 3.52053 -2.71292e-20)
(0.268798 0.261368 0)
(0.972843 1.03922 -4.15542e-20)
(1.1058 1.20991 3.8944e-20)
(1.10249 1.23769 3.75665e-20)
(1.05163 1.21842 3.73419e-19)
(0.988736 1.19082 -4.91162e-19)
(0.917529 1.15955 -3.74005e-19)
(0.835559 1.125 5.76394e-20)
(0.740624 1.08652 -8.78041e-19)
(0.627886 1.04278 -1.43523e-20)
(0.5066 0.997197 -2.71812e-18)
(0.39165 0.953536 1.03933e-19)
(0.285214 0.92836 -1.2037e-19)
(0.26868 1.44551 -1.43567e-19)
(0.349916 3.06253 1.79321e-20)
(0.377087 3.47291 9.30872e-22)
(0.333945 3.53672 7.10238e-19)
(0.29472 3.56121 3.8663e-19)
(0.243376 3.58542 -1.71281e-19)
(0.180533 3.58085 -1.63252e-19)
(0.25211 0.259401 -8.52403e-20)
(0.968619 1.06392 -2.62292e-19)
(1.09741 1.23492 1.09366e-19)
(1.09225 1.26206 1.43396e-19)
(1.04122 1.24259 0)
(0.978478 1.215 -6.40419e-19)
(0.907256 1.18396 -5.26212e-19)
(0.825493 1.15015 5.46005e-20)
(0.730596 1.11316 -9.57882e-20)
(0.617512 1.07233 -1.36093e-18)
(0.495038 1.03165 -1.29949e-18)
(0.378854 0.995037 -8.90862e-19)
(0.288615 1.05015 -9.26514e-19)
(0.338807 2.10499 9.46088e-19)
(0.439882 3.37049 8.51013e-19)
(0.424255 3.53706 0)
(0.374612 3.58349 0)
(0.336283 3.62666 -1.45791e-19)
(0.278473 3.69066 0)
(0.192847 3.66295 -2.4914e-19)
(0.240871 0.260748 1.05872e-19)
(0.962408 1.08961 1.95228e-19)
(1.0876 1.26107 0)
(1.08071 1.28723 6.05693e-21)
(1.02963 1.26734 3.1589e-19)
(0.967142 1.23964 -8.95573e-19)
(0.89624 1.20883 -3.28961e-19)
(0.814892 1.17565 4.83105e-20)
(0.72028 1.14007 -7.03778e-19)
(0.607245 1.10208 7.46756e-20)
(0.484372 1.06641 0)
(0.369186 1.0393 0)
(0.315554 1.27147 -8.84426e-19)