/*--------------------------------*- C++ -*----------------------------------*\
| =========                 |                                                 |
| \\      /  F ield         | OpenFOAM: The Open Source CFD Toolbox           |
|  \\    /   O peration     | Version:  4.0                                   |
|   \\  /    A nd           | Web:      www.OpenFOAM.org                      |
|    \\/     M anipulation  |                                                 |
\*---------------------------------------------------------------------------*/
FoamFile
{
    version     2.0;
    format      ascii;
    class       volVectorField;
    location    "0.002";
    object      U;
}
// * * * * * * * * * * * * * * * * * * * * * * * * * * * * * * * * * * * * * //

dimensions      [0 1 -1 0 0 0 0];

internalField   nonuniform List<vector> 
100
(
(-6.47676e-13 0 0)
(-2.82994e-13 0 0)
(6.38924e-13 0 0)
(2.91746e-13 0 0)
(-1.33604e-27 0 0)
(-5.42648e-13 0 0)
(-2.82994e-13 0 0)
(8.25641e-13 0 0)
(3.16591e-27 0 0)
(0 0 0)
(-1.03526e-27 0 0)
(-5.82033e-13 0 0)
(0 0 0)
(2.90287e-13 0 0)
(2.36436e-28 0 0)
(2.91746e-13 0 0)
(-5.82033e-13 0 0)
(0 0 0)
(5.82033e-13 0 0)
(1.02166e-27 0 0)
(1.45873e-15 0 0)
(-1.67754e-13 0 0)
(1.70817e-12 0 0)
(1.35924e-11 0 0)
(1.01196e-10 0 0)
(7.56678e-10 0 0)
(5.31633e-09 0 0)
(3.63289e-08 0 0)
(2.33882e-07 0 0)
(1.45663e-06 0 0)
(8.51071e-06 0 0)
(4.77772e-05 0 0)
(0.000250304 0 0)
(0.00124865 0 0)
(0.00577367 0 0)
(0.0251111 0 0)
(0.100244 0 0)
(0.369655 0 0)
(1.22916 0 0)
(3.6459 0 0)
(9.20356 0 0)
(19.678 0 0)
(36.2921 0 0)
(59.0059 0 0)
(86.4544 0 0)
(115.83 0 0)
(146.203 0 0)
(175.68 0 0)
(203.44 0 0)
(228.528 0 0)
(250.187 0 0)
(268.83 0 0)
(284.944 0 0)
(295.611 0 0)
(297.918 0 0)
(295.821 0 0)
(292.462 0 0)
(286.674 0 0)
(279.342 0 0)
(270.41 0 0)
(251.892 0 0)
(188.418 0 0)
(68.7621 0 0)
(10.6677 0 0)
(1.43966 0 0)
(0.179226 0 0)
(0.021838 0 0)
(0.00263534 0 0)
(0.000316512 0 0)
(3.79556e-05 0 0)
(4.54766e-06 0 0)
(5.42888e-07 0 0)
(6.43415e-08 0 0)
(7.52815e-09 0 0)
(8.66643e-10 0 0)
(9.73339e-11 0 0)
(1.06604e-11 0 0)
(9.83185e-13 0 0)
(3.15086e-13 0 0)
(7.12464e-30 0 0)
(-2.91746e-13 0 0)
(-2.91746e-13 0 0)
(2.91746e-13 0 0)
(2.91746e-13 0 0)
(7.15283e-30 0 0)
(-2.91746e-13 0 0)
(-2.91746e-13 0 0)
(2.91746e-13 0 0)
(2.91746e-13 0 0)
(7.15283e-30 0 0)
(-2.91746e-13 0 0)
(0 0 0)
(0 0 0)
(0 0 0)
(0 0 0)
(0 0 0)
(0 0 0)
(-2.55902e-28 0 0)
(-2.91746e-13 0 0)
(-2.90288e-13 0 0)
)
;

boundaryField
{
    sides
    {
        type            zeroGradient;
    }
    empty
    {
        type            empty;
    }
}


// ************************************************************************* //
