/*--------------------------------*- C++ -*----------------------------------*\
| =========                 |                                                 |
| \\      /  F ield         | OpenFOAM: The Open Source CFD Toolbox           |
|  \\    /   O peration     | Version:  4.0                                   |
|   \\  /    A nd           | Web:      www.OpenFOAM.org                      |
|    \\/     M anipulation  |                                                 |
\*---------------------------------------------------------------------------*/
FoamFile
{
    version     2.0;
    format      ascii;
    class       volScalarField;
    location    "66";
    object      p;
}
// * * * * * * * * * * * * * * * * * * * * * * * * * * * * * * * * * * * * * //

dimensions      [0 2 -2 0 0 0 0];

internalField   nonuniform List<scalar> 
2200
(
0.77107
0.749572
0.733668
0.718004
0.7034
0.690891
0.68055
0.672464
0.666786
0.663865
0.664398
0.668234
0.674596
0.68317
0.693861
0.706643
0.721442
0.737379
0.753427
0.774925
0.703492
0.700235
0.697313
0.693199
0.687743
0.681278
0.674672
0.668738
0.66426
0.661917
0.662424
0.665785
0.670989
0.67747
0.684469
0.69123
0.696894
0.700988
0.703836
0.707201
0.663552
0.663773
0.665837
0.667187
0.667585
0.666741
0.664774
0.662116
0.659598
0.658145
0.658735
0.66123
0.664552
0.667804
0.670154
0.671163
0.670901
0.669905
0.668264
0.668016
0.641045
0.642497
0.645096
0.647554
0.650006
0.652039
0.653212
0.653468
0.653129
0.65288
0.65357
0.654986
0.656221
0.656638
0.655973
0.654312
0.652163
0.64999
0.647388
0.645983
0.626669
0.628642
0.631465
0.634309
0.637179
0.640024
0.642501
0.644388
0.645652
0.646502
0.647297
0.64782
0.64762
0.64655
0.644715
0.642358
0.639815
0.637091
0.6343
0.632378
0.61929
0.620889
0.623097
0.625636
0.628317
0.631004
0.633621
0.636071
0.638133
0.639708
0.640636
0.640719
0.639934
0.638454
0.636591
0.634477
0.632166
0.629829
0.627731
0.626157
0.615818
0.61684
0.618115
0.619993
0.622153
0.624341
0.626566
0.628902
0.631173
0.63308
0.634191
0.634277
0.633564
0.632408
0.631049
0.629519
0.627842
0.626278
0.62517
0.624153
0.613107
0.613776
0.614415
0.615729
0.617362
0.619074
0.620862
0.622833
0.624966
0.627021
0.628356
0.628754
0.628498
0.627929
0.627192
0.62628
0.62525
0.62434
0.623901
0.623224
0.609799
0.610244
0.610646
0.611656
0.612938
0.61435
0.61589
0.617613
0.61954
0.621614
0.623236
0.624114
0.624457
0.624471
0.624241
0.623811
0.623263
0.622753
0.622573
0.622108
0.605676
0.605972
0.606334
0.607215
0.608344
0.609643
0.611118
0.612785
0.614676
0.616812
0.618814
0.620255
0.621132
0.621588
0.621735
0.62165
0.621393
0.621091
0.620975
0.620649
0.600866
0.601067
0.601444
0.602288
0.603403
0.604744
0.606314
0.608119
0.610181
0.612553
0.614982
0.616948
0.618278
0.619092
0.619509
0.619658
0.619586
0.619441
0.619348
0.619108
0.595561
0.595705
0.59608
0.596903
0.598069
0.599534
0.601294
0.603353
0.60574
0.608553
0.611526
0.614013
0.615758
0.616889
0.617558
0.617896
0.618037
0.618038
0.617979
0.617786
0.58983
0.58994
0.590324
0.591155
0.5924
0.594025
0.596024
0.598427
0.601291
0.604676
0.6083
0.611372
0.613568
0.615039
0.615996
0.616589
0.616942
0.617084
0.617069
0.616897
0.583662
0.583729
0.584117
0.584981
0.586336
0.588147
0.590422
0.593219
0.596658
0.600789
0.605221
0.608962
0.611678
0.613598
0.614944
0.615849
0.61645
0.616742
0.616769
0.616603
0.576933
0.576969
0.577395
0.578317
0.579837
0.581884
0.584483
0.587761
0.591874
0.596898
0.602251
0.606808
0.610198
0.612678
0.614494
0.61578
0.616644
0.617092
0.617166
0.617001
0.569612
0.569574
0.570009
0.571031
0.572756
0.575059
0.578023
0.581835
0.586699
0.592722
0.599244
0.604868
0.609114
0.61232
0.614717
0.616446
0.617613
0.618227
0.618351
0.618179
0.561337
0.561335
0.56177
0.562876
0.564856
0.567482
0.570927
0.575415
0.58121
0.58847
0.596361
0.603221
0.608542
0.612584
0.615635
0.617886
0.619398
0.620191
0.620372
0.620189
0.551945
0.551963
0.552423
0.55369
0.555968
0.559041
0.563124
0.56846
0.575366
0.58409
0.593645
0.602045
0.608569
0.613567
0.617399
0.620212
0.622127
0.62311
0.623342
0.623139
0.541042
0.541015
0.541583
0.543073
0.545707
0.549358
0.554258
0.560678
0.568989
0.579496
0.591072
0.601211
0.609157
0.615307
0.619989
0.623487
0.625845
0.627014
0.627295
0.627068
0.528062
0.527991
0.528673
0.530538
0.533762
0.538221
0.544209
0.552054
0.562197
0.574942
0.588818
0.600992
0.610532
0.617926
0.623594
0.627812
0.630648
0.632011
0.632323
0.632067
0.512798
0.512695
0.513467
0.515676
0.519619
0.525154
0.53259
0.542307
0.554776
0.570245
0.586897
0.601379
0.612626
0.621404
0.628145
0.633223
0.636571
0.638105
0.638433
0.638142
0.494128
0.494051
0.495076
0.497865
0.502803
0.509797
0.519219
0.531467
0.546943
0.565684
0.585458
0.602423
0.61563
0.625874
0.633811
0.639756
0.643585
0.645279
0.645593
0.645272
0.471108
0.470954
0.472279
0.475916
0.482393
0.491569
0.503745
0.519286
0.538433
0.561049
0.584401
0.604222
0.61951
0.631349
0.640525
0.647365
0.651662
0.653455
0.65371
0.653363
0.441522
0.441553
0.443655
0.448722
0.457485
0.469794
0.485807
0.505645
0.529289
0.556449
0.58381
0.606636
0.624118
0.637689
0.648207
0.655939
0.660584
0.662431
0.662597
0.66223
0.402386
0.402635
0.406198
0.414222
0.42705
0.444338
0.465681
0.490964
0.519991
0.552284
0.584012
0.610033
0.629831
0.645083
0.656842
0.665321
0.670172
0.67193
0.671978
0.671612
0.350379
0.350821
0.357892
0.371224
0.390605
0.415174
0.443583
0.475521
0.510746
0.548722
0.585019
0.614299
0.636343
0.653308
0.666282
0.6753
0.67998
0.681358
0.681256
0.680956
0.282299
0.285063
0.300286
0.32196
0.350269
0.383746
0.420339
0.459755
0.501869
0.54617
0.587607
0.620525
0.645385
0.664384
0.678624
0.688118
0.692464
0.693275
0.693181
0.692973
0.204798
0.214504
0.239971
0.271404
0.309916
0.352573
0.397424
0.444614
0.494041
0.545011
0.592017
0.6293
0.657207
0.678293
0.694035
0.703791
0.707668
0.707952
0.70798
0.707861
0.135837
0.150512
0.18238
0.2229
0.271116
0.322671
0.375662
0.43058
0.487207
0.544862
0.597443
0.638737
0.669256
0.69237
0.709068
0.718853
0.722435
0.722455
0.722605
0.722565
0.0833026
0.0967491
0.133478
0.180104
0.23579
0.294987
0.35541
0.417592
0.481156
0.545303
0.603209
0.648177
0.681472
0.706284
0.724042
0.734236
0.737502
0.737733
0.738156
0.738063
0.0398136
0.0524931
0.0931638
0.143766
0.204908
0.270059
0.336942
0.405686
0.475582
0.54555
0.608406
0.6572
0.693192
0.719846
0.738878
0.749515
0.753354
0.753995
0.754033
0.754094
0.00291509
0.0156964
0.0590317
0.112501
0.178013
0.248054
0.320428
0.394766
0.470216
0.545737
0.613725
0.666239
0.704524
0.732867
0.753249
0.764606
0.768663
0.769346
0.769381
0.769446
-0.0293408
-0.0163356
0.0292113
0.0852842
0.154447
0.228484
0.305457
0.38467
0.465326
0.546399
0.619208
0.674789
0.715335
0.745301
0.766867
0.778516
0.782944
0.783691
0.783759
0.783805
-0.0577699
-0.0448491
0.00237454
0.0608785
0.133231
0.210754
0.291798
0.375463
0.460989
0.547002
0.623896
0.682554
0.725371
0.756525
0.778901
0.791208
0.795842
0.796722
0.796781
0.796814
-0.0837432
-0.0707865
-0.0222823
0.0385888
0.113779
0.194402
0.279096
0.366741
0.456517
0.546801
0.627746
0.689616
0.734342
0.766789
0.789535
0.802304
0.807313
0.808292
0.808376
0.80839
-0.107666
-0.094595
-0.045315
0.017803
0.0955108
0.178949
0.266891
0.357959
0.45147
0.545964
0.631156
0.696003
0.742422
0.775848
0.798977
0.812294
0.817392
0.818495
0.818578
0.818569
-0.130245
-0.116836
-0.0669048
-0.00178229
0.0780985
0.164022
0.254772
0.348862
0.445897
0.544534
0.633757
0.701572
0.74977
0.784345
0.807672
0.821087
0.826316
0.827452
0.827525
0.827491
-0.151508
-0.137887
-0.0873024
-0.0204931
0.0612
0.149307
0.242564
0.339451
0.439785
0.542238
0.635451
0.706544
0.756766
0.792136
0.815745
0.829041
0.834107
0.83528
0.835332
0.835268
-0.171643
-0.158027
-0.106727
-0.0385347
0.0446843
0.134729
0.230254
0.329726
0.433101
0.53915
0.636418
0.710912
0.763338
0.799866
0.82343
0.836081
0.841108
0.842088
0.842134
0.842026
-0.191015
-0.17717
-0.125368
-0.0560478
0.0284795
0.120249
0.217834
0.319672
0.425811
0.535205
0.636477
0.714682
0.769832
0.807488
0.83088
0.842939
0.847236
0.848065
0.848026
0.847953
-0.210033
-0.195601
-0.143379
-0.0730739
0.0126046
0.105903
0.205312
0.309242
0.417842
0.530369
0.635696
0.717889
0.776226
0.815654
0.838824
0.849649
0.852938
0.853253
0.853263
0.853272
-0.228609
-0.213445
-0.160855
-0.0896392
-0.00294075
0.0916769
0.192648
0.298402
0.409239
0.5247
0.633929
0.720373
0.78255
0.824353
0.847765
0.857326
0.858433
0.858035
0.857805
0.857647
-0.246745
-0.230897
-0.177859
-0.105761
-0.0181633
0.0775763
0.179864
0.287209
0.400076
0.51821
0.631098
0.722043
0.788541
0.833861
0.858604
0.866519
0.864893
0.863223
0.863005
0.864021
-0.264242
-0.247893
-0.194385
-0.121453
-0.0330679
0.0636108
0.166997
0.275734
0.390446
0.510964
0.627107
0.722605
0.794107
0.843969
0.871607
0.87899
0.874726
0.867776
0.86303
0.862174
-0.28116
-0.264424
-0.210408
-0.136705
-0.0476373
0.0498305
0.15414
0.264087
0.380421
0.502978
0.621953
0.721863
0.798606
0.854455
0.887006
0.895965
0.891449
0.880879
0.881176
0.885332
-0.297426
-0.280353
-0.225858
-0.151481
-0.0618221
0.0363056
0.14138
0.252344
0.370044
0.494323
0.615668
0.719466
0.801737
0.86426
0.903723
0.917643
0.912686
0.883451
0.84594
0.813374
-0.313051
-0.295729
-0.24077
-0.16583
-0.0757
0.0229415
0.1286
0.240342
0.359095
0.484791
0.608057
0.715056
0.802328
0.87249
0.921163
0.943085
0.951643
0.92557
0.943134
1.00523
-0.327953
-0.310524
-0.255206
-0.179883
-0.0894351
0.00952798
0.115526
0.227727
0.347132
0.473798
0.598463
0.707746
0.799365
0.876137
0.93109
0.95786
0.958305
0.929673
0.88525
0.902594
-0.34214
-0.324771
-0.269138
-0.193575
-0.102946
-0.0038421
0.102269
0.214628
0.334277
0.461409
0.586848
0.697365
0.790613
0.87056
0.927118
0.954467
0.933549
0.874093
0.807793
0.794703
-0.355574
-0.338402
-0.282542
-0.206912
-0.116236
-0.0171727
0.0888307
0.201057
0.320559
0.447595
0.573034
0.683413
0.775725
0.852201
0.903738
0.90468
0.8646
0.783146
0.706361
0.680721
-0.368312
-0.351471
-0.295457
-0.219911
-0.129333
-0.0304889
0.0752063
0.187039
0.306009
0.432363
0.556939
0.665649
0.753215
0.818196
0.845023
0.8276
0.762911
0.658125
0.568705
0.544332
-0.380774
-0.364307
-0.308241
-0.232941
-0.142588
-0.0440969
0.0611307
0.172343
0.290444
0.415557
0.538341
0.643417
0.723818
0.772504
0.765595
0.727165
0.610355
0.484804
0.375283
0.346144
-0.393829
-0.377768
-0.321611
-0.246596
-0.156547
-0.0584661
0.0462088
0.15665
0.273613
0.396981
0.516942
0.616333
0.689472
0.712688
0.67825
0.585766
0.426368
0.271123
0.139623
0.110277
-0.407969
-0.392116
-0.335816
-0.261116
-0.171389
-0.0737131
0.0303634
0.139911
0.255507
0.376628
0.492668
0.585282
0.647625
0.641605
0.588599
0.435
0.233073
0.0187557
-0.162597
-0.212641
-0.423337
-0.407603
-0.350991
-0.276505
-0.187079
-0.0898116
0.013622
0.122172
0.236191
0.354604
0.465552
0.551732
0.59874
0.560838
0.472098
0.282143
0.0501222
-0.239329
-0.560317
-0.709956
-0.439983
-0.424146
-0.36717
-0.292879
-0.203696
-0.106821
-0.00408067
0.103356
0.215604
0.330901
0.435818
0.515257
0.543948
0.475598
0.337189
0.131011
-0.102755
-0.446372
-1.03109
-1.60176
-0.458025
-0.442041
-0.384526
-0.310272
-0.221247
-0.124749
-0.0227222
0.0835503
0.193916
0.305934
0.404708
0.47584
0.485124
0.400677
0.207621
-0.0259195
-0.228163
-0.461961
-1.01329
-2.51523
-0.477459
-0.46113
-0.403049
-0.328852
-0.239919
-0.143788
-0.0425358
0.0624633
0.170781
0.279305
0.371949
0.433117
0.421344
0.341788
0.114132
-0.123073
-0.270836
-0.307978
-0.29675
-0.681224
-0.498241
-0.481845
-0.423053
-0.348868
-0.260083
-0.16445
-0.064155
0.0393413
0.145279
0.249733
0.336569
0.386932
0.358903
0.291232
0.0645278
-0.137158
-0.247826
-0.255959
-0.203079
-0.24307
-0.52024
-0.503726
-0.444368
-0.370447
-0.281872
-0.186857
-0.0877365
0.0139861
0.11718
0.217002
0.298631
0.338887
0.304171
0.236737
0.0320952
-0.127622
-0.209954
-0.218124
-0.265913
-0.269936
-0.543414
-0.527062
-0.467114
-0.393514
-0.30523
-0.211051
-0.113343
-0.013652
0.0864722
0.181516
0.25812
0.288631
0.256517
0.175308
0.00389471
-0.118422
-0.188647
-0.165797
-0.186196
-0.18785
-0.567469
-0.550863
-0.490917
-0.418059
-0.330083
-0.236949
-0.140894
-0.0434811
0.0532715
0.143634
0.215279
0.235029
0.215331
0.107337
-0.0316452
-0.11375
-0.152585
-0.200965
-0.175048
-0.183721
-0.592359
-0.575356
-0.515869
-0.443801
-0.356118
-0.264411
-0.170222
-0.0752798
0.017749
0.103735
0.171041
0.180281
0.172216
0.0464981
-0.0684782
-0.132215
-0.109544
-0.169252
-0.149917
-0.154909
-0.616886
-0.599661
-0.541624
-0.4705
-0.383113
-0.293213
-0.201049
-0.108731
-0.0199017
0.0621452
0.126609
0.128304
0.12041
-0.00456336
-0.0954392
-0.146565
-0.134423
-0.149684
-0.154973
-0.153201
-0.640859
-0.623757
-0.567686
-0.497341
-0.410594
-0.322988
-0.232962
-0.143426
-0.0591307
0.0192298
0.0822845
0.0803119
0.0630143
-0.0469345
-0.108667
-0.140241
-0.178949
-0.150219
-0.155956
-0.150318
-0.663048
-0.646689
-0.592656
-0.523547
-0.438422
-0.353249
-0.265495
-0.178863
-0.0991496
-0.0247669
0.0378912
0.036843
0.00752722
-0.0817606
-0.121751
-0.114736
-0.187636
-0.130308
-0.145384
-0.137569
-0.683007
-0.667765
-0.615824
-0.54797
-0.465945
-0.383146
-0.297905
-0.214417
-0.138927
-0.0692138
-0.0070491
-0.00353893
-0.0374051
-0.100348
-0.129087
-0.0884072
-0.134121
-0.116615
-0.122737
-0.119538
-0.698949
-0.685327
-0.636053
-0.57038
-0.492304
-0.411831
-0.329547
-0.249402
-0.17759
-0.113467
-0.0523451
-0.0413276
-0.068564
-0.101085
-0.117481
-0.0952538
-0.109141
-0.113231
-0.11437
-0.114589
-0.710206
-0.698735
-0.652811
-0.589697
-0.515568
-0.438207
-0.35928
-0.28279
-0.214287
-0.15617
-0.0966655
-0.0767793
-0.0913368
-0.0977852
-0.110042
-0.120883
-0.112989
-0.116412
-0.114751
-0.115813
-0.715244
-0.706183
-0.664443
-0.604935
-0.534953
-0.461359
-0.386342
-0.313754
-0.248328
-0.195825
-0.137552
-0.110416
-0.119136
-0.0983124
-0.106137
-0.14205
-0.118628
-0.125903
-0.118987
-0.120106
-0.714239
-0.707307
-0.669951
-0.614366
-0.548731
-0.479656
-0.409094
-0.340758
-0.278848
-0.230338
-0.174045
-0.143046
-0.141014
-0.105869
-0.0959405
-0.124021
-0.106211
-0.128308
-0.126775
-0.129236
-0.706182
-0.698891
-0.666602
-0.616801
-0.556627
-0.492556
-0.426901
-0.362758
-0.304185
-0.25831
-0.204614
-0.173237
-0.158764
-0.117466
-0.060165
-0.0521511
-0.0680702
-0.078125
-0.081826
-0.0852385
-0.68547
-0.677113
-0.653052
-0.610719
-0.556858
-0.498475
-0.438149
-0.377972
-0.322161
-0.277569
-0.227291
-0.194586
-0.183165
-0.197027
-0.231608
-0.286735
-0.296508
-0.282556
-0.266482
-0.253835
-0.642699
-0.634822
-0.626332
-0.596296
-0.550682
-0.498482
-0.443183
-0.385935
-0.330953
-0.285689
-0.236746
-0.198651
-0.257676
-0.372493
-0.588079
-0.758479
-0.770916
-0.75091
-0.684724
-0.624094
-0.601933
-0.599136
-0.597918
-0.574747
-0.538274
-0.492893
-0.441923
-0.386339
-0.329336
-0.280001
-0.230905
-0.164947
-0.185834
-0.270571
-0.378917
-0.407787
-0.345032
-0.277524
-0.235399
-0.209555
-0.579068
-0.58082
-0.570593
-0.556769
-0.527909
-0.486538
-0.436569
-0.380767
-0.318336
-0.256516
-0.198243
-0.0837598
0.0562417
0.265757
0.467682
0.660275
0.803337
0.88883
0.933143
0.972608
-0.547813
-0.547488
-0.544325
-0.543084
-0.518719
-0.480381
-0.430763
-0.372803
-0.304314
-0.225578
-0.144041
-0.00904715
0.204713
0.525562
0.836137
1.09369
1.27379
1.38112
1.43385
1.4505
-0.53589
-0.533986
-0.536775
-0.52961
-0.512534
-0.476997
-0.425649
-0.363778
-0.290759
-0.200114
-0.100157
0.026571
0.261225
0.581252
0.893698
1.15558
1.34865
1.46283
1.51365
1.52946
-0.523983
-0.52241
-0.525642
-0.517557
-0.512009
-0.476625
-0.423984
-0.35888
-0.281437
-0.184554
-0.0772658
0.0273824
0.246292
0.523975
0.796981
1.03307
1.21713
1.32814
1.37711
1.39067
-0.513812
-0.513971
-0.514185
-0.513921
-0.51138
-0.475095
-0.423331
-0.357884
-0.279052
-0.182071
-0.077165
0.00440583
0.188758
0.423794
0.647682
0.840813
0.99584
1.08992
1.13059
1.14069
-0.504887
-0.506112
-0.504171
-0.508914
-0.504104
-0.47543
-0.426138
-0.360523
-0.282705
-0.190389
-0.0909576
-0.026798
0.118615
0.315351
0.494066
0.642641
0.761574
0.834916
0.866066
0.873826
-0.492716
-0.49259
-0.488644
-0.48935
-0.482292
-0.469994
-0.429635
-0.365348
-0.290036
-0.204554
-0.110777
-0.0570322
0.050693
0.211562
0.352107
0.464
0.552393
0.607851
0.630946
0.635818
-0.495839
-0.492595
-0.487152
-0.483168
-0.478744
-0.475057
-0.433088
-0.369029
-0.296118
-0.21903
-0.131243
-0.0832259
-0.00837345
0.120924
0.230805
0.314744
0.379206
0.420394
0.436017
0.440457
-0.523933
-0.521153
-0.519404
-0.520165
-0.521796
-0.507798
-0.443202
-0.372606
-0.298606
-0.229216
-0.148572
-0.103804
-0.0548893
0.0474736
0.131934
0.194335
0.242555
0.272919
0.284865
0.28893
-0.576084
-0.578931
-0.586761
-0.595212
-0.588602
-0.547441
-0.458464
-0.376141
-0.295636
-0.232804
-0.160658
-0.118491
-0.0865207
-0.00631891
0.0569865
0.102724
0.14
0.163377
0.172612
0.175035
-0.57289
-0.578332
-0.591209
-0.604655
-0.59603
-0.541985
-0.451863
-0.365917
-0.285318
-0.227385
-0.165634
-0.127187
-0.10374
-0.0412631
0.00490263
0.038081
0.0646067
0.080635
0.0874769
0.0891903
-0.465071
-0.471525
-0.48769
-0.497837
-0.494904
-0.456221
-0.393893
-0.328137
-0.261828
-0.210186
-0.161908
-0.129181
-0.108973
-0.0618497
-0.028959
-0.00581921
0.0109351
0.0205141
0.0240516
0.0242849
-0.298493
-0.304001
-0.311486
-0.319221
-0.321173
-0.308769
-0.285153
-0.255004
-0.216319
-0.180776
-0.148585
-0.124237
-0.105795
-0.0726417
-0.0504815
-0.0359181
-0.0265339
-0.0221081
-0.0212729
-0.0220664
-0.141871
-0.14439
-0.149234
-0.157269
-0.165512
-0.170905
-0.173157
-0.170669
-0.158434
-0.143732
-0.126938
-0.11214
-0.0977096
-0.0768486
-0.0633806
-0.0551748
-0.0509429
-0.0500452
-0.0511101
-0.0523872
-0.0278226
-0.0291569
-0.03244
-0.0404073
-0.0536092
-0.0694554
-0.0850977
-0.098102
-0.103394
-0.105379
-0.100126
-0.0936575
-0.0864461
-0.0753343
-0.0685136
-0.0655119
-0.0650753
-0.0663584
-0.0682132
-0.0696076
0.0371739
0.0361959
0.0337664
0.0260328
0.010839
-0.00918522
-0.0293909
-0.0476383
-0.0603202
-0.0712545
-0.0732114
-0.0726668
-0.0726384
-0.0679065
-0.0669255
-0.0680628
-0.0702254
-0.0728927
-0.0749884
-0.0763375
0.0655077
0.0648714
0.0629667
0.056157
0.0419046
0.0221401
0.00141045
-0.0179235
-0.0326683
-0.0458899
-0.0507494
-0.0541954
-0.0579627
-0.0577087
-0.061254
-0.0652092
-0.0689196
-0.072141
-0.0741904
-0.0754126
0.0723352
0.0718492
0.0703361
0.0648925
0.0532536
0.0363691
0.0175054
-0.00124876
-0.0162752
-0.0295333
-0.0348338
-0.0399898
-0.0451924
-0.0486337
-0.0540228
-0.0590159
-0.0632072
-0.0663985
-0.0682228
-0.0692721
0.0683206
0.0679729
0.0668056
0.0626921
0.0538781
0.0407521
0.0252093
0.00843558
-0.00579095
-0.0188924
-0.0243274
-0.02947
-0.0350639
-0.0401401
-0.0460246
-0.0510414
-0.0549758
-0.0577903
-0.0592433
-0.0601287
0.059674
0.0594534
0.0586077
0.0556341
0.0492213
0.0394983
0.0275854
0.0138685
0.00169752
-0.0108914
-0.0168148
-0.0215813
-0.0267925
-0.0318519
-0.0374869
-0.0421194
-0.0455975
-0.0479829
-0.0490401
-0.0497715
0.0496133
0.0494915
0.0488946
0.0468258
0.0422973
0.035267
0.0264545
0.0158793
0.00651495
-0.00465361
-0.0106107
-0.0149884
-0.0197553
-0.024239
-0.0292228
-0.0332521
-0.0362553
-0.038288
-0.0390717
-0.039665
0.0396701
0.0396244
0.0392052
0.0378241
0.0347063
0.029757
0.0233664
0.0153652
0.00858777
-0.000477583
-0.00554263
-0.00917245
-0.0133603
-0.0173572
-0.0217446
-0.0251922
-0.0277233
-0.0293974
-0.0299358
-0.0304122
0.0305977
0.0305747
0.0303017
0.0294133
0.0273123
0.0239034
0.0193751
0.0134236
0.00872482
0.00179464
-0.00189303
-0.0047916
-0.00818084
-0.0115801
-0.0153215
-0.0181051
-0.0201312
-0.0214808
-0.0219059
-0.0223121
0.0224212
0.0224257
0.0222298
0.0216884
0.0203129
0.0180297
0.0149498
0.0105928
0.00754346
0.00244629
0.000163661
-0.00188947
-0.0045248
-0.0072357
-0.0101988
-0.0122996
-0.013801
-0.0148042
-0.0150772
-0.0154132
0.0150953
0.0150936
0.01497
0.0146737
0.0138309
0.0124009
0.0104902
0.00743444
0.00566667
0.00204258
0.000785652
-0.000423272
-0.00224165
-0.0041219
-0.00635278
-0.007834
-0.00879369
-0.00936988
-0.00954822
-0.00986782
0.00852708
0.00851894
0.00848442
0.00839788
0.00800482
0.00726587
0.00637828
0.0044715
0.00372983
0.00125154
0.000633621
7.90509e-05
-0.00106346
-0.00209309
-0.00360882
-0.00448352
-0.00496984
-0.00526506
-0.00523855
-0.00545381
0.00274661
0.00276597
0.00281417
0.00286072
0.00280949
0.00258176
0.00242852
0.00153389
0.00147774
0.000355424
0.000339273
0.00038435
-0.000348357
-0.000561711
-0.00153105
-0.00211913
-0.0026473
-0.00308724
-0.00283214
-0.00281327
-1.07648
-0.240868
0.0290247
0.303617
0.482852
0.636006
0.758046
0.882723
1.02149
1.10638
-0.100627
0.303948
0.318419
0.505354
0.626603
0.73537
0.828581
0.911934
0.93871
0.897403
0.272226
0.484433
0.517544
0.653046
0.736962
0.815115
0.879631
0.928142
0.929881
0.94439
0.49892
0.640085
0.674455
0.774526
0.83089
0.887205
0.931392
0.963399
0.972296
0.996127
0.674654
0.774618
0.804272
0.870466
0.914763
0.954904
0.986653
1.01077
1.02044
1.05213
0.816407
0.884374
0.914508
0.956684
0.992431
1.02217
1.04622
1.06694
1.08095
1.10933
0.934579
0.984675
1.01006
1.0377
1.06507
1.08866
1.10849
1.12772
1.14253
1.16911
1.03774
1.07451
1.09544
1.11592
1.13655
1.15583
1.17319
1.19128
1.20615
1.22983
1.13136
1.16035
1.1766
1.19179
1.20782
1.22383
1.23936
1.25626
1.26988
1.2922
1.21943
1.23983
1.25464
1.26777
1.28131
1.29506
1.30855
1.32314
1.33468
1.35432
1.30477
1.32054
1.33434
1.34615
1.35805
1.36968
1.38082
1.39249
1.40017
1.41696
1.38997
1.40251
1.41622
1.42796
1.4386
1.44839
1.45721
1.46547
1.46903
1.48026
1.47871
1.48954
1.50301
1.51253
1.52009
1.52739
1.53457
1.54103
1.54214
1.54949
1.57711
1.58172
1.58991
1.59464
1.59804
1.60251
1.60851
1.61616
1.62007
1.62994
1.6904
1.67728
1.67
1.66428
1.66156
1.6629
1.66922
1.68158
1.69641
1.72608
1.81237
1.75632
1.7253
1.70811
1.69989
1.69982
1.70868
1.7283
1.76008
1.82936
)
;

boundaryField
{
    wall-4
    {
        type            zeroGradient;
    }
    pressure-outlet-7
    {
        type            fixedValue;
        value           uniform 0;
    }
    velocity-inlet-6
    {
        type            zeroGradient;
    }
    velocity-inlet-5
    {
        type            zeroGradient;
    }
    frontAndBackPlanes
    {
        type            empty;
    }
}


// ************************************************************************* //
