/*--------------------------------*- C++ -*----------------------------------*\
| =========                 |                                                 |
| \\      /  F ield         | OpenFOAM: The Open Source CFD Toolbox           |
|  \\    /   O peration     | Version:  4.0                                   |
|   \\  /    A nd           | Web:      www.OpenFOAM.org                      |
|    \\/     M anipulation  |                                                 |
\*---------------------------------------------------------------------------*/
FoamFile
{
    version     2.0;
    format      ascii;
    class       surfaceScalarField;
    location    "66";
    object      phi;
}
// * * * * * * * * * * * * * * * * * * * * * * * * * * * * * * * * * * * * * //

dimensions      [0 3 -1 0 0 0 0];

internalField   nonuniform List<scalar> 
4262
(
0.107133
0.470855
0.0955678
0.705151
0.0693823
0.858489
0.0473705
1.02078
0.0309933
1.21489
0.019781
1.44943
0.012369
1.73328
0.00716516
2.07624
0.00320893
2.4892
-0.000578848
2.98608
-0.00426355
2.98598
-0.0080571
2.48904
-0.0130715
2.07605
-0.0201999
1.73299
-0.03112
1.44914
-0.0471621
1.21456
-0.0689002
1.0205
-0.0951758
0.858579
-0.107059
0.705469
0.470929
0.112859
0.357996
0.135253
0.682757
0.120342
0.873399
0.097778
1.04334
0.0745146
1.23816
0.0527835
1.47116
0.0343829
1.75168
0.0201481
2.09047
0.00884539
2.5005
-0.00105985
2.99599
-0.0111405
2.99606
-0.0223524
2.50025
-0.0364492
2.09015
-0.0547871
1.75133
-0.0766396
1.47099
-0.100397
1.23832
-0.12358
1.04368
-0.137057
0.872055
-0.113578
0.681991
0.357351
0.0920448
0.265951
0.124967
0.649835
0.121091
0.877275
0.104804
1.05963
0.0861388
1.25682
0.0669864
1.49032
0.047996
1.77067
0.0299161
2.10855
0.0133161
2.5171
-0.00276348
3.01206
-0.018453
3.01175
-0.0343266
2.51612
-0.0517914
2.10761
-0.0701863
1.76972
-0.0884825
1.48929
-0.10566
1.25549
-0.119757
1.05778
-0.125209
0.877507
-0.0923487
0.649131
0.265002
0.063976
0.201975
0.104787
0.609024
0.106552
0.87551
0.0951602
1.07102
0.0812175
1.27076
0.0664608
1.50507
0.0503322
1.78679
0.0331547
2.12573
0.0154922
2.53476
-0.00309417
3.03065
-0.0215846
3.03024
-0.0390541
2.53359
-0.0555489
2.12411
-0.0707868
1.78496
-0.0846234
1.50313
-0.0983364
1.26921
-0.110076
1.06952
-0.10706
0.874491
-0.0649118
0.606983
0.20009
0.0374628
0.164513
0.0806733
0.565814
0.0909242
0.865259
0.0837012
1.07824
0.0710823
1.28338
0.0592234
1.51693
0.0461702
1.79985
0.0311659
2.14074
0.0141251
2.55181
-0.0051661
3.04994
-0.0239424
3.04901
-0.0397752
2.54942
-0.0536077
2.13794
-0.0656744
1.79703
-0.0768862
1.51434
-0.0888145
1.28114
-0.0951728
1.07588
-0.0833221
0.86264
-0.038445
0.562106
0.161645
0.01945
0.145063
0.0571611
0.528103
0.0725367
0.849883
0.0704268
1.08035
0.0616156
1.29219
0.0507283
1.52782
0.0395749
1.811
0.0269625
2.15335
0.0119527
2.56682
-0.00568794
3.06758
-0.023022
3.06635
-0.0374291
2.56383
-0.049005
2.14952
-0.0589539
1.80698
-0.0688003
1.52418
-0.0764231
1.28876
-0.077226
1.07668
-0.0600676
0.845482
-0.0203985
0.522436
0.141247
0.0106048
0.134458
0.0422875
0.49642
0.0583518
0.833819
0.0585799
1.08012
0.0523804
1.29839
0.0429482
1.53725
0.0324833
1.82147
0.0210069
2.16483
0.00756475
2.58026
-0.0084254
3.08357
-0.0238104
3.08173
-0.035545
2.57557
-0.0452055
2.15918
-0.0540743
1.81585
-0.0620002
1.53211
-0.0665387
1.2933
-0.0645251
1.07467
-0.0460361
0.826993
-0.0117413
0.488142
0.129505
0.00654456
0.127913
0.0328632
0.470101
0.0490822
0.8176
0.0505593
1.07865
0.0454328
1.30352
0.0370101
1.54567
0.0273378
1.83114
0.0165354
2.17563
0.00460125
2.59219
-0.00933637
3.09751
-0.0228633
3.09526
-0.0338112
2.58651
-0.0430835
2.16845
-0.0507006
1.82346
-0.0571713
1.53858
-0.0603121
1.29644
-0.0566274
1.07098
-0.0374011
0.807767
-0.00792589
0.458666
0.12158
0.00468565
0.123228
0.0264599
0.448327
0.0421943
0.801865
0.0442537
1.07659
0.0395712
1.3082
0.0318822
1.55336
0.0226689
1.84035
0.0119104
2.18639
-3.86796e-06
2.60411
-0.0131393
3.11065
-0.0249599
3.10708
-0.0344908
2.59605
-0.0426079
2.17657
-0.049507
1.83036
-0.0548672
1.54394
-0.0570404
1.29861
-0.0519072
1.06585
-0.032124
0.787984
-0.00639763
0.43294
0.115182
0.00371341
0.119514
0.0215781
0.430463
0.0366305
0.786813
0.0393068
1.07391
0.0348975
1.31261
0.027491
1.56077
0.0186598
1.84918
0.00863476
2.19641
-0.00255862
2.6153
-0.0148086
3.1229
-0.0264848
3.11876
-0.0360969
2.60566
-0.0435649
2.18403
-0.0493641
1.83616
-0.0539224
1.5485
-0.0550633
1.29975
-0.048591
1.05938
-0.0284908
0.767883
-0.00582685
0.410276
0.109355
0.00301796
0.116496
0.0174322
0.416048
0.031285
0.77296
0.0341585
1.07104
0.0299057
1.31687
0.022657
1.56802
0.0139822
1.85786
0.00382898
2.20656
-0.00774946
2.62688
-0.0200341
3.13518
-0.0306575
3.12938
-0.038516
2.61352
-0.04495
2.19047
-0.0502381
1.84145
-0.0539863
1.55225
-0.0540187
1.29978
-0.0460912
1.05145
-0.0258158
0.747608
-0.00557664
0.390037
0.103778
0.00232857
0.114168
0.0136804
0.404696
0.0261439
0.760497
0.0291752
1.06801
0.0251379
1.3209
0.0180302
1.57512
0.00950898
1.86638
-0.000155836
2.21623
-0.0109097
2.63763
-0.0227573
3.14703
-0.0335196
3.14014
-0.041811
2.62181
-0.047617
2.19627
-0.0518194
1.84565
-0.0544545
1.55488
-0.0537558
1.29909
-0.0443959
1.04209
-0.0239535
0.727166
-0.00545568
0.371539
0.0983228
0.00164964
0.112518
0.0103861
0.39596
0.0210608
0.749822
0.0235246
1.06554
0.0192386
1.32519
0.0119704
1.58239
0.0031951
1.87515
-0.00686436
2.22629
-0.0180646
2.64883
-0.0299518
3.15892
-0.0396113
3.1498
-0.045919
2.62812
-0.0506089
2.20096
-0.0542692
1.84931
-0.0560217
1.55663
-0.0543238
1.29739
-0.043599
1.03137
-0.0228072
0.706374
-0.00541359
0.354145
0.0929092
0.000794392
0.111724
0.00695607
0.389798
0.0159843
0.740794
0.0181262
1.0634
0.0137132
1.3296
0.00635069
1.58976
-0.00242931
1.88393
-0.0122393
2.2361
-0.023098
2.65969
-0.0348225
3.17064
-0.0447061
3.15969
-0.0512737
2.63468
-0.0551319
2.20482
-0.0576837
1.85187
-0.0583062
1.55726
-0.0555552
1.29464
-0.0433942
1.0192
-0.0221435
0.685123
-0.00539671
0.337399
0.0875125
0.000121812
0.111602
0.00408217
0.385838
0.0107434
0.734133
0.0116792
1.06246
0.00665395
1.33463
-0.00128916
1.5977
-0.0109289
1.89357
-0.0218198
2.24699
-0.0334573
2.67133
-0.0445612
3.18174
-0.052832
3.16796
-0.0576125
2.63946
-0.0606211
2.20783
-0.0625256
1.85377
-0.0622366
1.55697
-0.0578811
1.29028
-0.0440265
1.00535
-0.0220161
0.663113
-0.00547003
0.320853
0.0820424
-0.00088537
0.112487
0.000339151
0.384613
0.00486262
0.729609
0.00483678
1.06249
-0.000832793
1.3403
-0.00946844
1.60633
-0.0193978
1.9035
-0.0299579
2.25755
-0.0409349
2.68231
-0.0522621
3.19307
-0.0610053
3.1767
-0.06558
2.64404
-0.0674661
2.20972
-0.0683149
1.85462
-0.0671285
1.55578
-0.0611244
1.28428
-0.0453967
0.989622
-0.0223623
0.640078
-0.00562409
0.304114
0.0764184
-0.00177472
0.114262
-0.00279941
0.385638
-0.00109614
0.727906
-0.00283138
1.06423
-0.00951647
1.34698
-0.0189784
1.6158
-0.0300241
1.91455
-0.0423461
2.26987
-0.0552218
2.69518
-0.0663362
3.20419
-0.0727011
3.18306
-0.0758392
2.64718
-0.0772416
2.21112
-0.0769107
1.85429
-0.073988
1.55286
-0.0660063
1.27629
-0.0478899
0.971506
-0.0233354
0.615524
-0.00593164
0.286711
0.0704867
-0.00310816
0.11737
-0.00650887
0.389039
-0.00837694
0.729774
-0.011966
1.06781
-0.0198126
1.35483
-0.030591
1.62657
-0.0426962
1.92665
-0.0551309
2.28231
-0.0669586
2.70701
-0.0775466
3.21477
-0.0849627
3.19048
-0.0877967
2.65001
-0.0871352
2.21046
-0.0857804
1.85293
-0.0821039
1.54918
-0.0719031
1.26609
-0.0511409
0.950744
-0.0247139
0.589097
-0.00629745
0.268294
0.0641893
-0.00442631
0.121796
-0.0107518
0.395364
-0.0159275
0.73495
-0.0222872
1.07417
-0.0314438
1.36398
-0.043386
1.63852
-0.0566995
1.93997
-0.0711594
2.29677
-0.0859034
2.72175
-0.0982931
3.22716
-0.103167
3.19535
-0.103537
2.65038
-0.102661
2.20958
-0.0992859
1.84956
-0.0929828
1.54288
-0.0800582
1.25317
-0.0558886
0.926574
-0.0267682
0.559976
-0.0068181
0.248344
0.0573712
-0.00585023
0.127647
-0.0157783
0.405292
-0.0251194
0.744291
-0.0344216
1.08348
-0.0457171
1.37528
-0.0597833
1.65258
-0.0751893
1.95537
-0.0908585
2.31244
-0.104912
2.73581
-0.114826
3.23708
-0.119781
3.20031
-0.120303
2.6509
-0.117165
2.20644
-0.112917
1.84531
-0.105473
1.53544
-0.089135
1.23683
-0.0610819
0.898521
-0.0289832
0.527878
-0.00730416
0.226665
0.050067
-0.00821732
0.135864
-0.0227402
0.419815
-0.0375301
0.759081
-0.0502743
1.09622
-0.0633961
1.3884
-0.0792193
1.66841
-0.0963243
1.97248
-0.113864
2.32998
-0.130149
2.75209
-0.143002
3.24993
-0.146884
3.20419
-0.144127
2.64815
-0.139575
2.20189
-0.132333
1.83807
-0.121189
1.52429
-0.100993
1.21664
-0.0680017
0.86553
-0.0317274
0.491603
-0.0078585
0.202796
0.0422085
-0.0105922
0.146456
-0.0296808
0.438904
-0.0501636
0.779563
-0.0679993
1.11406
-0.0850237
1.40543
-0.104182
1.68756
-0.124382
1.99268
-0.14404
2.34963
-0.160379
2.76843
-0.169437
3.25899
-0.169862
3.20462
-0.166508
2.64479
-0.160187
2.19557
-0.152018
1.8299
-0.138939
1.51121
-0.113706
1.1914
-0.074821
0.826645
-0.0342287
0.451011
-0.00826486
0.176832
0.0339437
-0.0153761
0.161832
-0.0422977
0.465825
-0.0699743
0.80724
-0.0926249
1.13671
-0.113082
1.42588
-0.135886
1.71037
-0.158549
2.01534
-0.179262
2.37035
-0.195297
2.78447
-0.204679
3.26837
-0.205308
3.20524
-0.198662
2.63815
-0.189377
2.18629
-0.177773
1.81829
-0.159624
1.49306
-0.128671
1.16045
-0.0829649
0.78094
-0.0367833
0.40483
-0.00857272
0.148622
0.0253709
-0.0195469
0.181379
-0.0552305
0.501509
-0.092698
0.844707
-0.123413
1.16742
-0.150074
1.45254
-0.177187
1.73748
-0.20248
2.04063
-0.224171
2.39204
-0.239887
2.80018
-0.24594
3.27442
-0.240139
3.19944
-0.229561
2.62757
-0.217813
2.17454
-0.203871
1.80435
-0.182521
1.47171
-0.144022
1.12195
-0.0896464
0.726564
-0.0382095
0.353393
-0.00841435
0.118826
0.0169566
-0.0327333
0.214113
-0.0819252
0.550701
-0.129783
0.892565
-0.166849
1.20449
-0.19878
1.48448
-0.230264
1.76897
-0.256737
2.06711
-0.277387
2.41269
-0.289361
2.81216
-0.289755
3.27482
-0.280935
3.19062
-0.268553
2.61519
-0.254578
2.16056
-0.236855
1.78663
-0.207697
1.44255
-0.160285
1.07454
-0.0970078
0.663286
-0.0395171
0.295902
-0.0081716
0.0874809
0.00878498
-0.0471595
0.261272
-0.121136
0.624677
-0.185095
0.956524
-0.230842
1.25024
-0.268871
1.5225
-0.30089
1.80098
-0.324938
2.09116
-0.341641
2.42939
-0.349019
2.81953
-0.345016
3.27081
-0.330472
3.17608
-0.31164
2.59635
-0.291591
2.14051
-0.268253
1.76329
-0.232972
1.40727
-0.174347
1.01591
-0.0992415
0.588181
-0.0380487
0.234709
-0.00788585
0.0573181
0.000899135
-0.0342222
0.295494
-0.0981685
0.688624
-0.156961
1.01532
-0.205114
1.29839
-0.249004
1.56639
-0.288465
1.84045
-0.325635
2.12833
-0.359598
2.46335
-0.386376
2.84631
-0.401538
3.28598
-0.401024
3.17556
-0.392952
2.58828
-0.379775
2.12734
-0.354059
1.73758
-0.300143
1.35336
-0.213014
0.928784
-0.112519
0.487686
-0.0417997
0.16399
-0.00921415
0.0247325
-0.00831502
-0.0124968
0.307991
-0.0475927
0.723719
-0.0899806
1.0577
-0.129996
1.3384
-0.169735
1.60613
-0.205475
1.87619
-0.239081
2.16193
-0.268572
2.49284
-0.290234
2.86797
-0.29897
3.29471
-0.29475
3.17134
-0.281165
2.5747
-0.258466
2.10464
-0.225632
1.70474
-0.179251
1.30698
-0.115489
0.865022
-0.0529973
0.425194
-0.0198864
0.130879
-0.00474527
0.00959144
-0.0130603
-7.85023e-05
0.308069
-0.0245256
0.748167
-0.0542254
1.0874
-0.0850085
1.36919
-0.117372
1.6385
-0.148705
1.90752
-0.177922
2.19115
-0.20245
2.51737
-0.218791
2.88432
-0.22366
3.29958
-0.214708
3.16239
-0.194502
2.55449
-0.170393
2.08053
-0.141287
1.67564
-0.10021
1.2659
-0.0527297
0.817542
-0.0195316
0.391996
-0.00795641
0.119304
-0.00247808
0.00411308
-0.0155384
0.000860137
0.307209
-0.0131696
0.762196
-0.0343891
1.10862
-0.058815
1.39361
-0.0849819
1.66466
-0.111566
1.9341
-0.136372
2.21596
-0.157031
2.53803
-0.170264
2.89755
-0.170832
3.30015
-0.155042
3.1466
-0.133097
2.53254
-0.107302
2.05473
-0.0742616
1.6426
-0.0408096
1.23245
-0.0133296
0.790062
-0.000301104
0.378967
0.000168421
0.118835
-0.000600916
0.00488244
-0.0161393
0.00474158
0.302468
-0.00376154
0.770699
-0.0221716
1.12703
-0.0436201
1.41506
-0.0659047
1.68695
-0.087889
1.95609
-0.10877
2.23684
-0.126051
2.55531
-0.135882
2.90738
-0.133682
3.29795
-0.118079
3.131
-0.0935117
2.50798
-0.0652196
2.02644
-0.0391701
1.61655
-0.0101102
1.20339
0.0117343
0.768217
0.0138805
0.376821
0.00699774
0.125717
0.00157836
0.0103018
-0.0145609
0.00522522
0.297243
-0.000682799
0.776607
-0.0161618
1.14251
-0.0340593
1.43296
-0.0531917
1.70608
-0.0727449
1.97564
-0.0912244
2.25532
-0.106131
2.57022
-0.114099
2.91535
-0.110239
3.29409
-0.0917968
3.11256
-0.0678267
2.48401
-0.0429154
2.00153
-0.013611
1.58724
0.00898958
1.18079
0.0202327
0.756974
0.0190516
0.378002
0.00999316
0.134776
0.00253678
0.0177582
-0.0120241
0.00482803
0.292415
0.00115894
0.780277
-0.0120511
1.15572
-0.0289992
1.44991
-0.0466333
1.72372
-0.0638524
1.99286
-0.0799029
2.27137
-0.0929128
2.58323
-0.0997047
2.92214
-0.0955016
3.28989
-0.0784737
3.09553
-0.055202
2.46074
-0.0278305
1.97416
-0.00555724
1.56497
0.014249
1.16098
0.0253139
0.745909
0.0209749
0.382341
0.0111414
0.144609
0.00303016
0.0258694
-0.00899399
0.00273018
0.289684
-0.000587093
0.783594
-0.0118088
1.16694
-0.0261112
1.46421
-0.0418638
1.73947
-0.0579873
2.00898
-0.0733688
2.28675
-0.0861271
2.59599
-0.0930765
2.92909
-0.0889362
3.28575
-0.0717599
3.07835
-0.0504849
2.43946
-0.0282775
1.95195
-0.00216901
1.53886
0.0163067
1.14251
0.0230826
0.739133
0.0199126
0.385511
0.0107873
0.153735
0.00306556
0.0335912
-0.00592843
0.00151448
0.28817
-0.000962847
0.786071
-0.0116521
1.17763
-0.0253349
1.47789
-0.0405267
1.75466
-0.0555982
2.02405
-0.0700151
2.30117
-0.0822358
2.60821
-0.0890246
2.93588
-0.0854191
3.28214
-0.070696
3.06363
-0.0496097
2.41837
-0.0254971
1.92784
-0.00670259
1.52007
0.0103937
1.12541
0.0200874
0.729439
0.0167987
0.3888
0.00936076
0.161172
0.00273764
0.0402143
-0.00319079
-0.000483877
0.288654
-0.00464261
0.79023
-0.013658
1.18665
-0.0254628
1.4897
-0.0393275
1.76852
-0.0539326
2.03866
-0.0683952
2.31563
-0.080952
2.62076
-0.0885298
2.94345
-0.0864595
3.28007
-0.0729261
3.0501
-0.0537524
2.3992
-0.0341856
1.90827
-0.0110777
1.49696
0.00576136
1.10857
0.0125214
0.722679
0.0123479
0.388973
0.00703702
0.166483
0.00220498
0.0450463
-0.000985804
-0.00112198
0.289776
-0.00546209
0.79457
-0.0145462
1.19573
-0.0263271
1.50148
-0.0399743
1.78217
-0.0540098
2.05269
-0.0679658
2.32959
-0.0805999
2.6334
-0.089285
2.95214
-0.0893385
3.28012
-0.0775081
3.03827
-0.0582496
2.37994
-0.0362717
1.88629
-0.0194888
1.48018
-0.00384624
1.09293
0.00676316
0.71207
0.00736089
0.388376
0.00474552
0.169099
0.00162645
0.0481654
0.000640647
-0.00274739
0.292523
-0.00817279
0.799995
-0.0166849
1.20425
-0.027363
1.51216
-0.039967
1.79478
-0.0536175
2.06634
-0.0678767
2.34384
-0.0813862
2.64691
-0.0913505
2.9621
-0.0931065
3.28188
-0.0828614
3.02802
-0.0663455
2.36343
-0.0483685
1.86832
-0.026302
1.45811
-0.0099794
1.0766
-0.00144079
0.703531
0.00279306
0.384142
0.00238235
0.169509
0.00102418
0.0495236
0.00166483
-0.00365431
0.296177
-0.0087339
0.805075
-0.017352
1.21286
-0.0282073
1.52301
-0.0407842
1.80735
-0.054156
2.07972
-0.068246
2.35793
-0.0820585
2.66072
-0.093353
2.9734
-0.0981502
3.28668
-0.0908194
3.02069
-0.0741545
2.34676
-0.0517619
1.84593
-0.0346562
1.441
-0.0183241
1.06027
-0.00555643
0.690764
-0.00123076
0.379816
0.000508438
0.16777
0.000481354
0.0495506
0.00214618
-0.00418558
0.300363
-0.0104882
0.811378
-0.0189129
1.22129
-0.0289851
1.53308
-0.0408134
1.81918
-0.0539071
2.09281
-0.068307
2.37233
-0.0830087
2.67542
-0.0958183
2.98621
-0.102744
3.2936
-0.097588
3.01553
-0.082916
2.33209
-0.0645936
1.8276
-0.0403688
1.41678
-0.0218192
1.04172
-0.0105331
0.679478
-0.00357633
0.372859
-0.000697098
0.164891
0.000135938
0.0487176
0.00228212
-0.00414537
0.304508
-0.0104122
0.817644
-0.0189763
1.22985
-0.029233
1.54334
-0.0411447
1.83109
-0.0541278
2.10579
-0.0684594
2.38667
-0.0834315
2.69039
-0.0974876
3.00026
-0.107448
3.30356
-0.106003
3.01409
-0.0918244
2.31791
-0.0680579
1.80384
-0.0466967
1.39542
-0.0260136
1.02104
-0.0100507
0.663515
-0.00361241
0.366421
-0.000882819
0.162161
-0.000418388
0.0482532
0.00186373
-0.00432728
0.308836
-0.0113994
0.824717
-0.0197993
1.23825
-0.0294614
1.553
-0.0407903
1.84242
-0.0535106
2.11851
-0.0680078
2.40116
-0.0837044
2.70609
-0.0992504
3.01581
-0.111403
3.31572
-0.112139
3.01482
-0.100244
2.30602
-0.0808729
1.78447
-0.0509626
1.36551
-0.0252157
0.995293
-0.00867066
0.64697
0.00133492
0.356415
0.00348083
0.160015
0.00197508
0.0497589
0.00383881
-0.00425704
0.313093
-0.010999
0.831459
-0.0193303
1.24658
-0.0290943
1.56277
-0.0404499
1.85378
-0.0530674
2.13113
-0.0674948
2.41559
-0.0834073
2.722
-0.0999507
3.03235
-0.114496
3.33026
-0.119658
3.01999
-0.109573
2.29593
-0.0848066
1.7597
-0.0565722
1.33727
-0.0247196
0.96344
-0.000453742
0.622704
0.010421
0.345541
0.00711779
0.163319
-0.00121535
0.0580921
0.00262345
-0.00439698
0.31749
-0.011537
0.838599
-0.0196109
1.25466
-0.0288141
1.57197
-0.0396064
1.86457
-0.0519168
2.14344
-0.0663685
2.43004
-0.082805
2.73844
-0.100522
3.05007
-0.11708
3.34682
-0.124786
3.02769
-0.117474
2.28862
-0.0985979
1.74082
-0.0620113
1.30069
-0.0206106
0.92204
0.0143009
0.587792
0.0392807
0.320561
0.0458222
0.156777
0.028417
0.0754973
0.0310404
-0.00425137
0.321741
-0.0109269
0.845274
-0.0188018
1.26253
-0.0279717
1.58114
-0.0386722
1.87527
-0.0508283
2.1556
-0.0651639
2.44438
-0.0816911
2.75497
-0.100069
3.06845
-0.118521
3.36527
-0.129993
3.03916
-0.126878
2.2855
-0.104286
1.71823
-0.0699946
1.26639
-0.0208709
0.872916
0.0270374
0.539884
0.0631422
0.284456
0.0537911
0.166128
0.0234528
0.105836
0.0544932
-0.00420649
0.325948
-0.0111125
0.85218
-0.0186995
1.27012
-0.0272965
1.58974
-0.0374697
1.88544
-0.0492809
2.16741
-0.0635098
2.45861
-0.0803153
2.77177
-0.0995103
3.08764
-0.119658
3.38542
-0.132793
3.0523
-0.13352
2.28623
-0.12002
1.70473
-0.0812123
1.22759
-0.0258409
0.817545
0.0454973
0.468546
0.141306
0.188647
0.20544
0.101994
0.185784
0.125492
0.240277
-0.00404043
0.329988
-0.0105446
0.858684
-0.0180978
1.27767
-0.0269243
1.59856
-0.0374809
1.896
-0.0498305
2.17976
-0.0649525
2.47373
-0.0832096
2.79003
-0.104889
3.10932
-0.129292
3.40982
-0.148964
3.07197
-0.156234
2.2935
-0.140853
1.68935
-0.105781
1.19252
-0.0402973
0.75206
0.0187398
0.409509
-0.0473988
0.254786
-0.353487
0.408083
-0.945181
0.717185
0.90209
-1.60699
-0.00393655
0.333924
-0.0106344
0.865382
-0.0180122
1.28505
-0.0264958
1.60705
-0.0367892
1.90629
-0.0491849
2.19215
-0.0647475
2.48929
-0.0840826
2.80936
-0.107806
3.13305
-0.135775
3.43779
-0.159665
3.09586
-0.171517
2.30535
-0.174554
1.69239
-0.145901
1.16386
-0.109652
0.715811
-0.210803
0.510659
-0.693924
0.737907
-1.45332
1.16747
-2.05819
1.32206
1.21572
-2.37182
-0.00369576
0.33762
-0.00985568
0.871542
-0.017013
1.29221
-0.0255191
1.61555
-0.0358879
1.91666
-0.0484676
2.20473
-0.0644554
2.50528
-0.0846249
2.82953
-0.110098
3.15852
-0.141743
3.46944
-0.173001
3.12712
-0.194945
2.3273
-0.198094
1.69553
-0.177903
1.14367
-0.263233
0.801141
-0.752807
1.00023
-1.55803
1.54313
-2.1163
1.72575
-2.35383
1.55958
1.32929
-2.4674
-0.00358887
0.341209
-0.00973643
0.87769
-0.0166516
1.29912
-0.0247822
1.62368
-0.0348443
1.92672
-0.0474067
2.2173
-0.0637119
2.52158
-0.084817
2.85064
-0.112266
3.18597
-0.147756
3.50492
-0.184302
3.16367
-0.212547
2.35554
-0.235044
1.71803
-0.30772
1.21635
-0.675184
1.16861
-1.44553
1.77057
-2.03141
2.12902
-2.26992
1.96426
-2.38242
1.67208
1.39273
-2.44586
-0.00326996
0.344479
-0.00879759
0.883217
-0.0153861
1.30571
-0.0234427
1.63174
-0.0335522
1.93683
-0.0462167
2.22996
-0.0628347
2.5382
-0.0846499
2.87245
-0.113723
3.21504
-0.152937
3.54414
-0.197829
3.20856
-0.240116
2.39783
-0.276637
1.75455
-0.457995
1.39771
-1.09674
1.80735
-1.79358
2.46742
-2.11036
2.4458
-2.25749
2.1114
-2.33927
1.75385
1.45881
-2.40535
-0.00327683
0.347756
-0.00901515
0.888956
-0.015615
1.31231
-0.0235567
1.63968
-0.0337466
1.94702
-0.0466645
2.24288
-0.0637932
2.55533
-0.0866527
2.89531
-0.117749
3.24614
-0.160907
3.5873
-0.211812
3.25946
-0.256113
2.44213
-0.341884
1.84032
-0.739133
1.79496
-1.4933
2.56151
-1.96315
2.93727
-2.16277
2.64542
-2.26865
2.21728
-2.34587
1.83107
1.52199
-2.40905
-0.00333425
0.35109
-0.00898828
0.89461
-0.0159105
1.31923
-0.0244756
1.64825
-0.0353552
1.9579
-0.0490105
2.25653
-0.0670715
2.57339
-0.0911794
2.91942
-0.124257
3.27922
-0.171361
3.6344
-0.228243
3.31635
-0.289844
2.50373
-0.476066
2.02655
-1.04541
2.3643
-1.68019
3.1963
-1.95262
3.2097
-2.09898
2.79177
-2.21277
2.33107
-2.30643
1.92472
1.58354
-2.36798
-0.00347746
0.354568
-0.00988408
0.901016
-0.0172797
1.32663
-0.0261026
1.65707
-0.0373052
1.96911
-0.0515476
2.27078
-0.0704667
2.59231
-0.0959506
2.94491
-0.131265
3.31453
-0.182428
3.68556
-0.24474
3.37866
-0.3286
2.58759
-0.610893
2.30884
-1.26363
3.01704
-1.75076
3.68342
-1.9578
3.41673
-2.09705
2.93103
-2.2209
2.45491
-2.33104
2.03487
1.64217
-2.38968
-0.00340876
0.357976
-0.0095886
0.907196
-0.0173809
1.33442
-0.0270205
1.66671
-0.0390503
1.98113
-0.0541036
2.28583
-0.0740405
2.61225
-0.100859
2.97172
-0.138142
3.35181
-0.192658
3.74008
-0.260457
3.44646
-0.384942
2.71207
-0.772653
2.69655
-1.40995
3.65434
-1.76032
4.0338
-1.9328
3.58921
-2.03436
3.03259
-2.12292
2.54348
-2.18961
2.10156
1.63479
-2.18223
-0.00343671
0.361413
-0.0105638
0.914323
-0.0189405
1.3428
-0.0288144
1.67658
-0.0411845
1.9935
-0.056874
2.30152
-0.0776935
2.63307
-0.105883
2.99991
-0.145311
3.39124
-0.202313
3.79708
-0.28038
3.52452
-0.449505
2.8812
-0.903706
3.15075
-1.46047
4.2111
-1.72121
4.29454
-1.87241
3.74042
-1.96588
3.12606
-1.96665
2.54424
-1.89678
2.03169
1.59737
-1.85936
-0.00320692
0.36462
-0.00979844
0.920915
-0.0184888
1.35149
-0.0292514
1.68735
-0.0424348
2.00669
-0.0587228
2.31781
-0.0801188
2.65446
-0.108822
3.02862
-0.148696
3.43112
-0.205388
3.85377
-0.291214
3.61035
-0.495736
3.08572
-0.987269
3.64229
-1.42737
4.6512
-1.59163
4.4588
-1.65826
3.80705
-1.66256
3.13036
-1.51489
2.39658
-1.01543
1.53222
0.581947
-0.00282307
0.367443
-0.0106736
0.928765
-0.0200886
1.3609
-0.0311217
1.69838
-0.0449281
2.02049
-0.0624353
2.33531
-0.0856137
2.67764
-0.117007
3.06001
-0.160992
3.4751
-0.224618
3.9174
-0.327307
3.71304
-0.581223
3.33964
-1.12187
4.18294
-1.47907
5.00839
-1.57813
4.55787
-1.57611
3.80502
-1.47248
3.02673
-1.2337
2.1578
-0.630434
0.92896
-0.0484872
-0.00252734
0.36997
-0.00907319
0.935311
-0.0186442
1.37047
-0.0309644
1.7107
-0.0462005
2.03573
-0.065166
2.35428
-0.0903648
2.70284
-0.124578
3.09422
-0.172913
3.52344
-0.242851
3.98734
-0.365876
3.83606
-0.680463
3.65422
-1.24054
4.74301
-1.49989
5.26774
-1.55845
4.61643
-1.53586
3.78243
-1.33401
2.82488
-0.781178
1.60496
-0.108383
0.256165
-0.15687
-0.00154162
0.371512
-0.00957316
0.943342
-0.019903
1.3808
-0.0322832
1.72308
-0.0479299
2.05138
-0.0680707
2.37442
-0.0950671
2.72984
-0.132034
3.13119
-0.184168
3.57557
-0.261959
4.06513
-0.410589
3.98469
-0.782895
4.02653
-1.31786
5.27798
-1.4937
5.44358
-1.52461
4.64734
-1.43638
3.6942
-1.09982
2.48833
-0.312435
0.817569
0.0247646
-0.0810341
-0.132105
-0.000990557
0.372503
-0.00652117
0.948873
-0.0165134
1.3908
-0.030296
1.73686
-0.0474263
2.06851
-0.0689536
2.39595
-0.0979152
2.7588
-0.137552
3.17083
-0.192854
3.63087
-0.27951
4.15178
-0.455089
4.16027
-0.892964
4.46441
-1.36336
5.74838
-1.47893
5.55914
-1.48148
4.64989
-1.25722
3.46994
-0.685203
1.91631
-0.0628973
0.195264
0.0300535
-0.173985
-0.102052
8.32421e-05
0.372419
-0.00610577
0.955062
-0.0166317
1.40132
-0.0301729
1.7504
-0.0471857
2.08552
-0.069763
2.41853
-0.10031
2.78935
-0.142103
3.21262
-0.200432
3.6892
-0.295814
4.24717
-0.496882
4.36134
-0.984878
4.9524
-1.35798
6.12149
-1.42257
5.62373
-1.37621
4.60352
-1.08812
3.18185
-0.322413
1.15061
0.00433896
-0.131489
0.0146237
-0.18427
-0.087428
0.00323209
0.369187
0.000651493
0.957643
-0.00980916
1.41178
-0.0248399
1.76543
-0.0431143
2.10379
-0.0669108
2.44232
-0.0989612
2.8214
-0.142835
3.25649
-0.204292
3.75066
-0.308362
4.35124
-0.536316
4.58929
-1.04801
5.4641
-1.32284
6.39632
-1.36254
5.66343
-1.22289
4.46387
-0.770044
2.72901
-0.0686154
0.449178
0.0441202
-0.244224
0.0240211
-0.164171
-0.0634069
0.00426395
0.364923
0.00214603
0.959761
-0.00786072
1.42179
-0.0215573
1.77913
-0.0388468
2.12108
-0.0633813
2.46686
-0.0964326
2.85445
-0.141628
3.30169
-0.205215
3.81425
-0.3166
4.46262
-0.573894
4.84659
-1.06883
5.95904
-1.25847
6.58596
-1.26811
5.67307
-1.04854
4.2443
-0.459439
2.13991
-0.0183429
0.00808229
-0.00666269
-0.255904
0.00473841
-0.175572
-0.0586685
0.00870543
0.356218
0.0103984
0.958068
0.00372438
1.42846
-0.0100889
1.79294
-0.0288579
2.13985
-0.0538983
2.4919
-0.0873626
2.88791
-0.13327
3.3476
-0.199057
3.88003
-0.317454
4.58102
-0.597094
5.12623
-1.04713
6.40907
-1.17094
6.70977
-1.15404
5.65617
-0.894378
3.98464
-0.263205
1.50873
-0.0697227
-0.1854
-0.038661
-0.286966
-0.0143279
-0.199905
-0.0729963
0.0112414
0.344976
0.0156152
0.953694
0.0104397
1.43364
0.000377914
1.803
-0.0178668
2.1581
-0.0422199
2.51625
-0.0754305
2.92112
-0.121143
3.39331
-0.186839
3.94573
-0.30833
4.70251
-0.594623
5.41252
-0.982256
6.7967
-1.04621
6.77372
-0.978096
5.58806
-0.675703
3.68225
-0.0695433
0.902575
0.0158881
-0.270831
0.000877154
-0.271955
-0.00141636
-0.197611
-0.0744127
0.0185271
0.326449
0.0304989
0.941722
0.0298651
1.43427
0.0189124
1.81396
0.00119935
2.17581
-0.0212739
2.53872
-0.053139
2.95299
-0.097588
3.43776
-0.162537
4.01068
-0.284739
4.82471
-0.565193
5.69297
-0.871441
7.10295
-0.906568
6.80884
-0.802151
5.48364
-0.442083
3.32218
0.0691928
0.391299
0.0794188
-0.281057
0.0588752
-0.251412
0.0222551
-0.160991
-0.0521576
0.0241748
0.302275
0.0420284
0.923868
0.0448777
1.43142
0.0383783
1.82046
0.0262551
2.18793
0.00479423
2.56018
-0.0250531
2.98283
-0.0665931
3.4793
-0.127672
4.07176
-0.242761
4.9398
-0.491059
5.94127
-0.712815
7.32471
-0.739004
6.83503
-0.638354
5.38299
-0.303386
2.98721
0.00313533
0.0847782
0.0203031
-0.298225
0.0311224
-0.262231
0.0150443
-0.144913
-0.0371134
0.0352207
0.267054
0.0657462
0.893343
0.077517
1.41965
0.0743629
1.82361
0.0634316
2.19887
0.0445273
2.57909
0.0178944
3.00947
-0.0203139
3.51751
-0.0759759
4.12742
-0.176687
5.04051
-0.380439
6.14502
-0.534228
7.4785
-0.55943
6.86024
-0.459736
5.2833
-0.187262
2.71474
-0.0744071
-0.0280767
-0.0535598
-0.319072
-0.0189
-0.296891
-0.00105376
-0.162759
-0.0381671
0.0446515
0.222402
0.0869967
0.850998
0.10692
1.39973
0.11178
1.81875
0.108124
2.20252
0.0941915
2.59302
0.0728627
3.0308
0.0411253
3.54924
-0.00911393
4.17766
-0.0834271
5.11482
-0.221329
6.28293
-0.310704
7.56787
-0.319829
6.86936
-0.265432
5.2289
-0.0835591
2.53287
-0.0991333
-0.0125025
-0.0711196
-0.347086
-0.0321234
-0.335887
-0.00506326
-0.189819
-0.0432304
0.0581883
0.164214
0.121199
0.787987
0.158883
1.36205
0.171652
1.80598
0.171432
2.20274
0.161562
2.60289
0.147012
3.04535
0.124091
3.57216
0.0882533
4.2135
0.0388821
5.16419
-0.017681
6.33949
-0.0493839
7.59957
-0.048467
6.86844
-0.00986136
5.19029
0.0551709
2.46783
-0.0768877
0.119556
-0.0868448
-0.337129
-0.049057
-0.373675
0.000685822
-0.239562
-0.0425446
0.0601497
0.104064
0.150908
0.697229
0.207369
1.30559
0.234965
1.77839
0.247429
2.19028
0.246802
2.60352
0.239991
3.05216
0.228242
3.58391
0.210274
4.23146
0.19005
5.18442
0.236179
6.29336
0.27938
7.55637
0.297515
6.85031
0.219459
5.26835
-0.0163195
2.70361
-0.25198
0.355216
-0.300069
-0.289039
-0.22341
-0.450334
-0.0859943
-0.376978
-0.128539
0.0497506
0.0543139
0.184514
0.562466
0.281662
1.20844
0.328129
1.73192
0.347907
2.1705
0.355995
2.59543
0.355551
3.0526
0.356415
3.58305
0.35786
4.23002
0.370967
5.17131
0.520054
6.14427
0.659081
7.41735
0.646885
6.8625
0.433962
5.48127
-0.0743491
3.21192
-0.551299
0.832166
-0.618371
-0.221967
-0.482854
-0.58585
-0.241286
-0.618546
-0.369825
0.034382
0.0199319
0.219167
0.377681
0.346475
1.08113
0.425256
1.65314
0.467898
2.12786
0.490572
2.57276
0.499204
3.04397
0.514505
3.56775
0.540314
4.20421
0.593493
5.11813
0.824159
5.91361
1.17488
7.06663
1.34873
6.68865
1.40447
5.42554
0.958728
3.65766
0.192995
1.5979
-0.308065
0.279092
-0.483281
-0.410634
-0.277903
-0.823924
-0.647728
0.0306044
-0.0106725
0.235583
0.172702
0.450211
0.8665
0.56679
1.53656
0.619538
2.07511
0.653123
2.53917
0.672846
3.02425
0.69583
3.54476
0.744291
4.15575
0.853869
5.00855
1.20478
5.5627
1.81082
6.46058
2.17082
6.32865
2.42551
5.17085
2.31879
3.76438
1.61727
2.29942
0.901464
0.994898
0.359316
0.131514
0.0632819
-0.52789
-0.584446
0.0238515
-0.034524
0.158128
0.0384258
0.494607
0.530021
0.693974
1.33719
0.796155
1.97293
0.847368
2.48796
0.88529
2.98632
0.913436
3.51662
0.98183
4.08735
1.11459
4.87579
1.5042
5.17309
2.2816
5.68319
2.67122
5.93903
2.85317
4.9889
2.70121
3.91634
2.19892
2.80171
1.56873
1.62509
1.03053
0.669714
0.410247
0.0923921
-0.174199
0.00215568
-0.0366797
0.0779359
-0.0373544
0.411578
0.196379
0.71678
1.03199
0.860297
1.82941
0.898691
2.44956
0.904316
2.9807
0.887691
3.53324
0.887225
4.08782
0.928332
4.83469
1.08878
5.01264
1.53332
5.23864
1.70906
5.76329
1.74701
4.95095
1.65728
4.00607
1.41455
3.04443
1.01804
2.02161
0.591835
1.09592
0.24941
0.434817
0.0752111
0.00391819
-0.0405979
0.0440114
-0.0774476
0.213995
0.026396
0.548786
0.697197
0.724027
1.65417
0.789097
2.38449
0.804277
2.96552
0.79766
3.53986
0.778713
4.10677
0.797353
4.81605
0.875819
4.93418
1.18143
4.93303
1.36936
5.57535
1.3843
4.93601
1.32558
4.0648
1.16303
3.20698
0.874055
2.31058
0.548617
1.42136
0.229859
0.753575
0.305071
0.00351225
-0.0441101
0.0194933
-0.0934287
0.0897589
-0.0438695
0.382715
0.404241
0.582576
1.45431
0.670962
2.29611
0.69206
2.94442
0.690977
3.54094
0.665645
4.1321
0.66156
4.82013
0.690017
4.90572
0.873648
4.7494
1.05261
5.39639
1.05283
4.9358
0.996395
4.12124
0.872679
3.3307
0.664425
2.51883
0.412125
1.67366
0.16671
0.99899
0.47178
-0.00290209
-0.0412081
0.000293876
-0.0966246
0.0358715
-0.0794471
0.242838
0.197275
0.453554
1.2436
0.557026
2.19263
0.577465
2.92398
0.574062
3.54435
0.546459
4.1597
0.527192
4.8394
0.532513
4.9004
0.639189
4.64272
0.78067
5.25491
0.771286
4.94518
0.710778
4.18174
0.613334
3.42814
0.465719
2.66645
0.280211
1.85916
0.104478
1.17472
0.576258
-0.00788636
-0.0333217
-0.00371947
-0.100792
0.0234465