/*--------------------------------*- C++ -*----------------------------------*\
| =========                 |                                                 |
| \\      /  F ield         | OpenFOAM: The Open Source CFD Toolbox           |
|  \\    /   O peration     | Version:  4.0                                   |
|   \\  /    A nd           | Web:      www.OpenFOAM.org                      |
|    \\/     M anipulation  |                                                 |
\*---------------------------------------------------------------------------*/
FoamFile
{
    version     2.0;
    format      ascii;
    class       volVectorField;
    location    "41";
    object      U;
}
// * * * * * * * * * * * * * * * * * * * * * * * * * * * * * * * * * * * * * //

dimensions      [0 1 -1 0 0 0 0];

internalField   nonuniform List<vector> 
2200
(
(0.878858 -0.0304147 0)
(1.0058 -0.0512844 0)
(1.00332 -0.0353931 0)
(1.00031 -0.0244459 0)
(0.999867 -0.0166684 0)
(1.00001 -0.0107348 0)
(1.00005 -0.00688254 0)
(1.00004 -0.00425804 0)
(1.00005 -0.00229509 0)
(1.00017 -0.000707369 0)
(1.00005 0.000899072 0)
(1.00006 0.00254392 0)
(1.00006 0.00453159 0)
(1.00002 0.0071132 0)
(1.00004 0.0108738 0)
(0.999879 0.0167036 0)
(1.00025 0.0244342 0)
(1.00349 0.03502 0)
(1.00594 0.0513631 0)
(0.878994 0.0303329 0)
(0.71196 -0.0327695 0)
(0.996621 -0.0630348 0)
(1.03326 -0.0562101 0)
(1.02484 -0.0464814 0)
(1.01588 -0.0361892 0)
(1.00962 -0.0264419 0)
(1.00583 -0.018166 0)
(1.00369 -0.0114287 0)
(1.00251 -0.0060549 0)
(1.00197 -0.00156 0)
(1.00197 0.0026339 0)
(1.00248 0.00700072 0)
(1.0036 0.0121538 0)
(1.00569 0.0187686 0)
(1.00941 0.0271081 0)
(1.01564 0.0368351 0)
(1.02469 0.0472614 0)
(1.03305 0.0575921 0)
(0.996641 0.0631531 0)
(0.71177 0.0329835 0)
(0.535502 -0.0238948 0)
(0.969855 -0.0569408 0)
(1.0564 -0.0547288 0)
(1.05224 -0.0487618 0)
(1.03626 -0.040459 0)
(1.0245 -0.0323254 0)
(1.01593 -0.0240704 0)
(1.01043 -0.0162188 0)
(1.00725 -0.00898266 0)
(1.00577 -0.00243698 0)
(1.0057 0.00391525 0)
(1.00706 0.0103856 0)
(1.01017 0.0175038 0)
(1.01578 0.0252479 0)
(1.02428 0.0332667 0)
(1.03605 0.0412432 0)
(1.05204 0.0493153 0)
(1.05633 0.0536754 0)
(0.969226 0.0575485 0)
(0.534457 0.0239302 0)
(0.39218 -0.013661 0)
(0.911675 -0.0464358 0)
(1.05738 -0.0469772 0)
(1.06943 -0.0444104 0)
(1.05476 -0.0382731 0)
(1.03928 -0.0316503 0)
(1.02757 -0.0248342 0)
(1.01904 -0.0175865 0)
(1.01363 -0.0100835 0)
(1.01094 -0.00251007 0)
(1.01083 0.00510982 0)
(1.01332 0.012541 0)
(1.01863 0.0198009 0)
(1.02686 0.0266882 0)
(1.03846 0.033014 0)
(1.05405 0.0394455 0)
(1.06848 0.0454894 0)
(1.05575 0.0480935 0)
(0.910117 0.0469171 0)
(0.390192 0.0137502 0)
(0.307457 -0.0045282 0)
(0.846467 -0.0324302 0)
(1.04925 -0.0400295 0)
(1.07935 -0.0382673 0)
(1.06806 -0.0336177 0)
(1.05155 -0.0280041 0)
(1.03825 -0.0227071 0)
(1.02805 -0.0167183 0)
(1.021 -0.00987265 0)
(1.0172 -0.00235587 0)
(1.01698 0.00543243 0)
(1.02044 0.0127434 0)
(1.02718 0.0192904 0)
(1.03723 0.0249271 0)
(1.05039 0.0300538 0)
(1.06674 0.0353929 0)
(1.07776 0.0398192 0)
(1.04729 0.041467 0)
(0.843271 0.0328933 0)
(0.304212 0.00470096 0)
(0.263976 9.98234e-05 0)
(0.788684 -0.0200908 0)
(1.03324 -0.031505 0)
(1.08349 -0.0321033 0)
(1.07727 -0.0288459 0)
(1.06077 -0.0239354 0)
(1.04714 -0.0194593 0)
(1.03629 -0.0144547 0)
(1.02847 -0.00845624 0)
(1.02406 -0.0014784 0)
(1.02378 0.00584735 0)
(1.02766 0.0125393 0)
(1.03498 0.0180659 0)
(1.04547 0.0227044 0)
(1.05877 0.0265383 0)
(1.07511 0.0310704 0)
(1.0808 0.0338596 0)
(1.02981 0.0330409 0)
(0.783544 0.0206446 0)
(0.259514 8.51674e-05 0)
(0.239971 0.001061 0)
(0.73787 -0.0123213 0)
(1.0133 -0.0251 0)
(1.08377 -0.0269345 0)
(1.08281 -0.0247113 0)
(1.06766 -0.0205972 0)
(1.05404 -0.0166298 0)
(1.04325 -0.0121702 0)
(1.03519 -0.00689566 0)
(1.03036 -0.000656941 0)
(1.02988 0.00597416 0)
(1.03386 0.0118858 0)
(1.0414 0.016704 0)
(1.05168 0.020605 0)
(1.06523 0.0242164 0)
(1.08001 0.0277358 0)
(1.08045 0.029424 0)
(1.0082 0.0269743 0)
(0.729999 0.0130449 0)
(0.234003 -0.000863006 0)
(0.225526 0.000941619 0)
(0.694768 -0.00811625 0)
(0.992551 -0.0209065 0)
(1.08187 -0.0233444 0)
(1.0866 -0.0215794 0)
(1.07311 -0.0181438 0)
(1.05962 -0.0143727 0)
(1.04901 -0.0100825 0)
(1.04107 -0.00512426 0)
(1.03624 0.000522583 0)
(1.03571 0.00640077 0)
(1.03946 0.0115627 0)
(1.04647 0.0158839 0)
(1.0565 0.0195044 0)
(1.06956 0.0225498 0)
(1.08236 0.0252647 0)
(1.07634 0.0262655 0)
(0.984456 0.0230668 0)
(0.683643 0.00898486 0)
(0.217884 -0.000737053 0)
(0.215799 0.000606871 0)
(0.659106 -0.00572852 0)
(0.971848 -0.0178024 0)
(1.07895 -0.0205336 0)
(1.08966 -0.0190308 0)
(1.07778 -0.0159955 0)
(1.06449 -0.0124781 0)
(1.0541 -0.00834203 0)
(1.0463 -0.00363082 0)
(1.04129 0.00161175 0)
(1.04031 0.00687523 0)
(1.04382 0.0117175 0)
(1.05061 0.0155848 0)
(1.06024 0.0188225 0)
(1.07306 0.0215441 0)
(1.08413 0.0237692 0)
(1.07193 0.0243571 0)
(0.960956 0.0204976 0)
(0.644163 0.00685528 0)
(0.206068 -0.000375493 0)
(0.208518 0.000296068 0)
(0.630307 -0.00423472 0)
(0.95239 -0.0150385 0)
(1.07551 -0.0180136 0)
(1.09269 -0.0168133 0)
(1.08221 -0.0140387 0)
(1.06886 -0.0105658 0)
(1.05853 -0.00661209 0)
(1.05085 -0.00205422 0)
(1.04604 0.00293278 0)
(1.04514 0.00781027 0)
(1.0481 0.0121179 0)
(1.05415 0.0157057 0)
(1.06334 0.0186423 0)
(1.07598 0.0210618 0)
(1.08497 0.022782 0)
(1.06505 0.0228714 0)
(0.936776 0.0184212 0)
(0.610301 0.00563849 0)
(0.196158 -7.82707e-06 0)
(0.202693 8.36619e-05 0)
(0.607136 -0.0031638 0)
(0.934963 -0.0126562 0)
(1.07235 -0.0157991 0)
(1.09557 -0.0146905 0)
(1.08661 -0.0120436 0)
(1.07322 -0.00873237 0)
(1.0626 -0.00498192 0)
(1.05463 -0.000667643 0)
(1.04933 0.00409192 0)
(1.0477 0.00889002 0)
(1.05038 0.0129443 0)
(1.05668 0.0161126 0)
(1.06601 0.0185718 0)
(1.07838 0.0207005 0)
(1.08584 0.0221483 0)
(1.05921 0.0217794 0)
(0.914376 0.016672 0)
(0.58139 0.00486371 0)
(0.187177 0.000259165 0)
(0.197931 1.60252e-06 0)
(0.588335 -0.00231188 0)
(0.918245 -0.0103807 0)
(1.06894 -0.0136693 0)
(1.09903 -0.0127303 0)
(1.09132 -0.0100654 0)
(1.07751 -0.0065914 0)
(1.06648 -0.00290224 0)
(1.05816 0.00124456 0)
(1.0528 0.00585443 0)
(1.0512 0.0104971 0)
(1.05352 0.0141333 0)
(1.05908 0.0167829 0)
(1.06834 0.0189634 0)
(1.08096 0.0207895 0)
(1.0859 0.0217554 0)
(1.05035 0.0208316 0)
(0.890749 0.0151623 0)
(0.555383 0.0043881 0)
(0.178571 0.000433165 0)
(0.194497 1.22825e-05 0)
(0.57423 -0.00146327 0)
(0.904903 -0.00787227 0)
(1.06628 -0.0109486 0)
(1.10211 -0.0100702 0)
(1.09601 -0.00764448 0)
(1.08219 -0.00435411 0)
(1.07075 -0.000788966 0)
(1.06203 0.00340096 0)
(1.05608 0.00788312 0)
(1.05354 0.0121814 0)
(1.05537 0.015493 0)
(1.06151 0.0179057 0)
(1.07083 0.0195766 0)
(1.08284 0.0211518 0)
(1.08546 0.0215517 0)
(1.04314 0.0201147 0)
(0.869587 0.0139569 0)
(0.532925 0.00404936 0)
(0.170522 0.000516489 0)
(0.192414 5.10829e-05 0)
(0.563995 -0.000689276 0)
(0.892419 -0.0057771 0)
(1.06318 -0.00855714 0)
(1.10548 -0.00760568 0)
(1.10091 -0.00502181 0)
(1.08699 -0.00177129 0)
(1.07515 0.00184303 0)
(1.06593 0.00585771 0)
(1.05952 0.0102115 0)
(1.05676 0.0142304 0)
(1.05806 0.0173259 0)
(1.06303 0.0192881 0)
(1.07237 0.0205905 0)
(1.08374 0.0212819 0)
(1.084 0.0214751 0)
(1.03162 0.0194993 0)
(0.846041 0.0128639 0)
(0.511421 0.00381575 0)
(0.162563 0.000547794 0)
(0.191716 6.54785e-05 0)
(0.556687 -9.00502e-05 0)
(0.883246 -0.0034285 0)
(1.06145 -0.00571963 0)
(1.10856 -0.00451466 0)
(1.10541 -0.00198775 0)
(1.09176 0.00146626 0)
(1.07964 0.00509877 0)
(1.06976 0.00929257 0)
(1.06232 0.0135363 0)
(1.05865 0.0170428 0)
(1.05974 0.0193615 0)
(1.06529 0.0207634 0)
(1.07413 0.0216107 0)
(1.08408 0.0220614 0)
(1.08199 0.0217314 0)
(1.0225 0.0192534 0)
(0.825877 0.0122585 0)
(0.492734 0.0037618 0)
(0.155154 0.000575297 0)
(0.192379 -5.26765e-05 0)
(0.553734 0.000953414 0)
(0.876665 -0.00135796 0)
(1.0603 -0.00302126 0)
(1.11248 -0.00140961 0)
(1.11059 0.0016189 0)
(1.09692 0.0051151 0)
(1.08458 0.00912978 0)
(1.07433 0.0131213 0)
(1.0662 0.0168973 0)
(1.06172 0.0197548 0)
(1.06182 0.0217709 0)
(1.06586 0.0227026 0)
(1.07432 0.0230727 0)
(1.08355 0.023264 0)
(1.0778 0.022581 0)
(1.00867 0.0193192 0)
(0.802089 0.0119666 0)
(0.473044 0.00383643 0)
(0.147203 0.000632052 0)
(0.194581 0.000305485 0)
(0.554499 0.00158454 0)
(0.873048 0.00132623 0)
(1.06132 0.000566254 0)
(1.11706 0.00252047 0)
(1.11598 0.00547403 0)
(1.10229 0.00943666 0)
(1.08956 0.0133823 0)
(1.0786 0.0176391 0)
(1.06957 0.0216665 0)
(1.06427 0.0244793 0)
(1.06349 0.0255944 0)
(1.06735 0.0258481 0)
(1.07503 0.0256794 0)
(1.08261 0.0248974 0)
(1.07424 0.023314 0)
(0.997758 0.0196361 0)
(0.782409 0.0119081 0)
(0.455929 0.00393907 0)
(0.139629 0.00067181 0)
(0.198772 0.000676291 0)
(0.557888 0.00246318 0)
(0.874039 0.00389199 0)
(1.06309 0.00386185 0)
(1.12198 0.00640911 0)
(1.12199 0.0100443 0)
(1.10779 0.0140235 0)
(1.09423 0.0184229 0)
(1.08242 0.0227977 0)
(1.07227 0.0266052 0)
(1.06506 0.028951 0)
(1.06263 0.0297755 0)
(1.06517 0.0294013 0)
(1.07293 0.0284733 0)
(1.07984 0.0274181 0)
(1.06741 0.0250982 0)
(0.980927 0.0204548 0)
(0.757353 0.0119864 0)
(0.436111 0.00411537 0)
(0.131012 0.000715416 0)
(0.205824 0.000851978 0)
(0.566236 0.00381044 0)
(0.878644 0.00662838 0)
(1.06759 0.00843608 0)
(1.12785 0.0116411 0)
(1.12831 0.0152886 0)
(1.11345 0.0200117 0)
(1.09861 0.024625 0)
(1.08517 0.0292989 0)
(1.07325 0.033495 0)
(1.06535 0.0359393 0)
(1.0628 0.036004 0)
(1.06535 0.0345338 0)
(1.07202 0.0325133 0)
(1.0766 0.0300185 0)
(1.06045 0.0268763 0)
(0.966591 0.0214103 0)
(0.736716 0.0124161 0)
(0.41881 0.00444529 0)
(0.122792 0.000761164 0)
(0.214617 0.0010274 0)
(0.578865 0.00515463 0)
(0.888037 0.0101026 0)
(1.07435 0.0133803 0)
(1.13466 0.0171817 0)
(1.13577 0.0219655 0)
(1.11999 0.0271621 0)
(1.10413 0.0324841 0)
(1.08937 0.0374659 0)
(1.07565 0.0412274 0)
(1.06495 0.042361 0)
(1.0595 0.0411974 0)
(1.0601 0.0390574 0)
(1.0667 0.0364517 0)
(1.07096 0.0339183 0)
(1.05018 0.0296594 0)
(0.946146 0.0228249 0)
(0.709505 0.0131937 0)
(0.397178 0.00487919 0)
(0.112914 0.000794656 0)
(0.227881 0.0014318 0)
(0.599723 0.00715051 0)
(0.904774 0.0147058 0)
(1.08509 0.0199784 0)
(1.1434 0.0248394 0)
(1.14442 0.0297466 0)
(1.12793 0.0357621 0)
(1.11079 0.0417398 0)
(1.09425 0.0472237 0)
(1.07829 0.0512446 0)
(1.06579 0.052293 0)
(1.06033 0.0509878 0)
(1.06025 0.0475764 0)
(1.06471 0.0431669 0)
(1.06471 0.0384363 0)
(1.03872 0.0328799 0)
(0.927502 0.0250593 0)
(0.686553 0.0146835 0)
(0.377316 0.00557105 0)
(0.103185 0.000837108 0)
(0.244161 0.00200633 0)
(0.625214 0.00879349 0)
(0.926624 0.0188642 0)
(1.09928 0.0262362 0)
(1.15396 0.0322979 0)
(1.1547 0.0391949 0)
(1.1366 0.0462357 0)
(1.1178 0.0531452 0)
(1.0992 0.0591796 0)
(1.08077 0.0630144 0)
(1.06512 0.0626726 0)
(1.0552 0.0592015 0)
(1.05191 0.0544426 0)
(1.05539 0.0494812 0)
(1.05623 0.0446997 0)
(1.02463 0.0378172 0)
(0.902353 0.028266 0)
(0.654739 0.0167982 0)
(0.350401 0.00632884 0)
(0.0909278 0.000869975 0)
(0.266788 0.00285087 0)
(0.659855 0.0125824 0)
(0.955625 0.0253519 0)
(1.11802 0.0353984 0)
(1.1673 0.0433482 0)
(1.16633 0.0514077 0)
(1.14618 0.0597585 0)
(1.12465 0.067617 0)
(1.10274 0.0740646 0)
(1.08063 0.077539 0)
(1.0624 0.0767074 0)
(1.05254 0.0726366 0)
(1.05009 0.0667729 0)
(1.05163 0.059733 0)
(1.04543 0.0524957 0)
(1.00684 0.0436682 0)
(0.876987 0.0327153 0)
(0.625259 0.0196257 0)
(0.323894 0.00732167 0)
(0.0785595 0.000917066 0)
(0.298527 0.00374121 0)
(0.706225 0.015671 0)
(0.994317 0.0332711 0)
(1.14276 0.0465933 0)
(1.18393 0.056511 0)
(1.18044 0.0675381 0)
(1.15664 0.0775434 0)
(1.13183 0.0861637 0)
(1.10644 0.0923636 0)
(1.08101 0.094624 0)
(1.05929 0.0914863 0)
(1.04477 0.0847215 0)
(1.03736 0.0763847 0)
(1.03676 0.0682221 0)
(1.0324 0.0608294 0)
(0.987373 0.0509084 0)
(0.844201 0.037747 0)
(0.583595 0.0226935 0)
(0.287632 0.0080937 0)
(0.0630327 0.000908548 0)
(0.335134 0.00722608 0)
(0.764677 0.0248148 0)
(1.04194 0.0462263 0)
(1.17325 0.0634692 0)
(1.20537 0.0763176 0)
(1.19675 0.0896363 0)
(1.16862 0.100649 0)
(1.13955 0.109402 0)
(1.10966 0.114908 0)
(1.0793 0.115481 0)
(1.05364 0.110473 0)
(1.03821 0.101667 0)
(1.03252 0.0923271 0)
(1.03135 0.0823844 0)
(1.01713 0.0717643 0)
(0.961932 0.059022 0)
(0.808882 0.0438201 0)
(0.542857 0.0259085 0)
(0.252716 0.00895811 0)
(0.0483181 0.000788801 0)
(0.416148 0.0108748 0)
(0.851247 0.0358478 0)
(1.10561 0.0665401 0)
(1.2116 0.088594 0)
(1.23059 0.10332 6.88467e-34)
(1.21503 0.119535 -3.07919e-34)
(1.18057 0.13051 0)
(1.1465 0.138135 0)
(1.1119 0.141524 0)
(1.07773 0.139326 0)
(1.04868 0.13088 0)
(1.02909 0.119058 0)
(1.01763 0.106611 0)
(1.01121 0.0941435 0)
(0.99833 0.0832069 0)
(0.934559 0.069151 0)
(0.763544 0.0503643 0)
(0.485755 0.0291031 0)
(0.204173 0.00890645 0)
(0.0299666 0.000708282 0)
(0.487201 0.0261223 5.22437e-20)
(0.951816 0.0594152 -3.94867e-20)
(1.17341 0.100263 0)
(1.25084 0.125648 3.01449e-20)
(1.25826 0.141731 -2.44373e-20)
(1.23241 0.159111 3.24879e-34)
(1.19115 0.168252 0)
(1.15149 0.174019 1.70493e-20)
(1.1113 0.175243 -5.5851e-20)
(1.07121 0.170431 1.13614e-20)
(1.03676 0.158886 0)
(1.01498 0.144258 -2.85693e-20)
(1.00548 0.13004 -3.41388e-20)
(1.00105 0.117271 5.96753e-20)
(0.972796 0.1023 -4.71259e-20)
(0.888199 0.0824148 0)
(0.697665 0.0585918 -1.70403e-20)
(0.412082 0.0312418 0)
(0.150641 0.00955099 -9.38257e-20)
(0.012227 0.000817383 1.10623e-19)
(0.522142 0.0538551 -6.8142e-21)
(1.01385 0.102656 1.21479e-19)
(1.22229 0.150391 -7.72811e-21)
(1.2842 0.173308 -7.66097e-20)
(1.28237 0.190799 -5.17824e-20)
(1.24727 0.206116 8.41457e-20)
(1.1997 0.2127 0)
(1.15427 0.216048 0)
(1.10836 0.214446 8.90577e-20)
(1.06311 0.2062 0)
(1.02478 0.192111 1.03635e-19)
(0.998205 0.175443 3.06531e-20)
(0.981184 0.160026 3.61041e-22)
(0.964086 0.142559 -6.52466e-20)
(0.935445 0.125809 0)
(0.843724 0.10393 0)
(0.642535 0.0722654 -2.79068e-19)
(0.364093 0.0390743 6.99519e-19)
(0.130042 0.0117688 -4.14973e-19)
(0.00497153 0.00103284 -4.89146e-19)
(0.529152 0.076412 -7.43995e-20)
(1.0499 0.159438 2.78258e-20)
(1.25809 0.210847 1.45532e-20)
(1.31065 0.232134 1.34137e-19)
(1.30125 0.247789 1.42789e-20)
(1.25852 0.258742 -2.20004e-19)
(1.20517 0.261522 7.45311e-20)
(1.15395 0.261809 0)
(1.10205 0.257269 -1.88708e-19)
(1.05097 0.247239 1.66374e-19)
(1.00651 0.230295 -2.79737e-19)
(0.975849 0.21125 1.30976e-19)
(0.957691 0.193077 -8.46347e-20)
(0.944773 0.176333 1.90674e-19)
(0.904371 0.156299 0)
(0.805179 0.127078 -6.97988e-20)
(0.611064 0.0893704 0)
(0.354209 0.0475073 3.86066e-19)
(0.1306 0.0175083 -9.16022e-19)
(0.0078337 0.000692312 5.73785e-19)
(0.522567 0.10824 2.2228e-19)
(1.06819 0.216158 -9.61274e-20)
(1.27953 0.276077 -1.98888e-20)
(1.3281 0.296691 0)
(1.31342 0.309777 -9.84919e-20)
(1.26538 0.315332 1.21181e-19)
(1.20759 0.31346 -7.97424e-20)
(1.15166 0.309979 0)
(1.09565 0.301769 1.34169e-19)
(1.04023 0.286978 -1.17012e-19)
(0.991489 0.266208 2.42539e-19)
(0.956926 0.246733 0)
(0.931816 0.226897 -1.79929e-19)
(0.905251 0.205652 1.01463e-19)
(0.869868 0.184208 2.55885e-19)
(0.777874 0.155584 -2.25131e-19)
(0.596195 0.112966 3.5977e-19)
(0.356012 0.0645436 -7.96178e-19)
(0.144544 0.025932 5.02816e-19)
(0.0165647 0.00285533 -6.29065e-19)
(0.510042 0.132457 -8.66073e-20)
(1.07443 0.270187 6.24439e-20)
(1.28993 0.341719 -6.57109e-20)
(1.33737 0.361671 1.26282e-19)
(1.3192 0.372481 -1.16458e-19)
(1.26753 0.373254 3.87788e-20)
(1.20607 0.367033 3.659e-21)
(1.14588 0.359623 -1.53927e-19)
(1.08458 0.347586 -1.40884e-19)
(1.02305 0.329746 -2.51366e-19)
(0.970154 0.308536 -5.21387e-19)
(0.931155 0.28356 -1.60181e-19)
(0.904303 0.261496 2.41097e-21)
(0.885987 0.24168 -3.47006e-19)
(0.841794 0.218839 -6.27321e-21)
(0.748026 0.182496 3.27402e-19)
(0.579001 0.135236 -9.89707e-20)
(0.357808 0.0816539 -5.75189e-20)
(0.157689 0.0360363 0)
(0.0250904 0.00587212 1.33657e-18)
(0.492663 0.153105 0)
(1.06818 0.320074 -9.07861e-21)
(1.29228 0.40539 -1.35027e-20)
(1.33984 0.425902 -1.27215e-20)
(1.31907 0.43506 1.14282e-19)
(1.26498 0.431202 -8.95854e-20)
(1.20101 0.420825 8.73719e-20)
(1.1379 0.40954 2.52275e-19)
(1.07417 0.393405 -7.81718e-20)
(1.01167 0.371692 1.24883e-19)
(0.955259 0.343294 2.80202e-19)
(0.911643 0.317507 3.48895e-19)
(0.880018 0.294016 -2.09671e-19)
(0.846911 0.270461 3.75251e-19)
(0.809462 0.245353 -2.97121e-19)
(0.727883 0.213077 0)
(0.573711 0.161129 -7.50657e-19)
(0.366167 0.102048 1.01039e-18)
(0.172041 0.0483272 7.54117e-20)
(0.0335951 0.00971658 -1.41026e-18)
(0.478009 0.17333 -5.13586e-21)
(1.05925 0.367969 3.68509e-20)
(1.28902 0.465833 9.92313e-20)
(1.33733 0.487218 -1.18741e-19)
(1.31458 0.495188 9.24571e-20)
(1.25888 0.487635 -8.77258e-20)
(1.19307 0.473772 1.74164e-19)
(1.12754 0.458701 -7.66688e-20)
(1.06036 0.438889 -3.16314e-19)
(0.991138 0.413375 5.8909e-23)
(0.92899 0.383349 -3.03955e-19)
(0.884163 0.353908 -3.74539e-19)
(0.853427 0.327541 2.30963e-19)
(0.830148 0.30425 -1.3489e-19)
(0.785723 0.278828 3.22169e-19)
(0.703212 0.238531 0)
(0.558983 0.185676 -4.64703e-19)
(0.36742 0.121005 6.86273e-19)
(0.181058 0.0603349 1.30093e-18)
(0.039534 0.0134634 -1.5305e-18)
(0.463512 0.190769 6.27812e-22)
(1.04636 0.412553 -7.17261e-21)
(1.28192 0.523586 -7.46092e-20)
(1.33081 0.546479 1.237e-19)
(1.30646 0.553558 1.1776e-20)
(1.24966 0.542351 -1.73359e-19)
(1.18247 0.525178 -1.00117e-19)
(1.11498 0.506869 -9.64131e-20)
(1.0455 0.483681 -1.77445e-19)
(0.975442 0.454076 2.86065e-19)
(0.914308 0.419941 3.08076e-19)
(0.866218 0.38705 5.9445e-19)
(0.828128 0.360376 0)
(0.79348 0.330892 6.03821e-21)
(0.757646 0.303478 -8.8239e-19)
(0.686243 0.268822 2.05488e-19)
(0.552645 0.210598 1.00187e-18)
(0.370305 0.141351 -2.95498e-19)
(0.187786 0.0720066 6.16525e-19)
(0.0437022 0.0169942 -5.14435e-20)
(0.453854 0.209205 5.86983e-21)
(1.03428 0.4553 1.86454e-20)
(1.2723 0.578191 -4.02601e-20)
(1.32162 0.602427 1.52081e-19)
(1.29595 0.608637 -2.0223e-19)
(1.23836 0.594575 1.7346e-19)
(1.1702 0.57487 1.0377e-19)
(1.10135 0.553436 2.89575e-19)
(1.03021 0.526973 3.58193e-19)
(0.957498 0.494299 -3.28025e-19)
(0.889811 0.457174 0)
(0.838985 0.420356 -2.23765e-19)
(0.805113 0.38745 2.56905e-19)
(0.777915 0.36231 3.22828e-19)
(0.735943 0.334056 -1.86619e-19)
(0.661805 0.290686 -4.55396e-19)
(0.535051 0.233217 -1.3609e-19)
(0.363777 0.157511 -1.47675e-21)
(0.186895 0.0814714 0)
(0.0449289 0.0191968 0)
(0.445443 0.224691 -4.54707e-20)
(1.02155 0.49535 0)
(1.26083 0.629877 -2.70972e-20)
(1.31017 0.655954 -1.88397e-21)
(1.28345 0.661458 2.26035e-19)
(1.22538 0.644558 -5.81474e-20)
(1.15658 0.622245 1.05419e-19)
(1.08674 0.598152 -1.9661e-19)
(1.01358 0.56871 2.71714e-19)
(0.937617 0.532662 -1.06227e-19)
(0.868647 0.48962 1.75921e-19)
(0.818706 0.449403 7.09043e-19)
(0.779728 0.41825 1.39718e-20)
(0.743729 0.386354 -3.36686e-19)
(0.708099 0.354453 6.22432e-19)
(0.643474 0.31815 4.26124e-21)
(0.52384 0.253524 1.45597e-19)
(0.356686 0.172901 -6.94997e-19)
(0.181568 0.0884962 7.12682e-19)
(0.0437976 0.0205905 -8.42763e-19)
(0.438825 0.243275 2.58574e-23)
(1.00967 0.533681 0)
(1.24855 0.678567 0)
(1.29753 0.706368 -1.30097e-20)
(1.26989 0.710933 -6.97922e-20)
(1.21145 0.691722 8.3124e-20)
(1.14215 0.667482 -1.9945e-19)
(1.07119 0.641039 0)
(0.996566 0.609227 -3.99978e-19)
(0.919678 0.570146 4.74094e-19)
(0.850603 0.524892 4.98966e-19)
(0.794317 0.482976 -2.60088e-19)
(0.754916 0.444522 -3.1344e-19)
(0.728134 0.413759 7.34338e-19)
(0.687176 0.382994 -2.2101e-19)
(0.61949 0.334185 -2.64002e-19)
(0.504186 0.271213 -1.5818e-19)
(0.345585 0.184339 -7.48975e-19)
(0.174762 0.0927784 1.08567e-19)
(0.0411312 0.0214202 9.0949e-19)
(0.434936 0.2617 -2.60361e-20)
(0.998509 0.569831 -3.06392e-20)
(1.23532 0.724153 2.35541e-20)
(1.28376 0.754057 -1.38273e-22)
(1.25543 0.758077 -6.28469e-20)
(1.19675 0.736659 1.4089e-19)
(1.12705 0.710378 0)
(1.05538 0.681779 1.17784e-19)
(0.979503 0.647471 -9.28739e-20)
(0.89964 0.605233 7.89813e-19)
(0.823967 0.556154 -1.13804e-19)
(0.767717 0.508384 1.2907e-19)
(0.730804 0.470429 0)
(0.692931 0.434623 -3.97292e-19)
(0.66018 0.397726 4.80334e-19)
(0.600348 0.357874 0)
(0.489902 0.285062 -3.41344e-19)
(0.331558 0.19389 1.00326e-18)
(0.16507 0.0950183 1.1822e-19)
(0.0372656 0.0213276 -1.11914e-18)
(0.432781 0.278531 -7.05763e-20)
(0.988624 0.604493 9.09747e-20)
(1.22214 0.767308 0)
(1.26971 0.798857 -9.63168e-21)
(1.2407 0.802069 0)
(1.18183 0.778829 -1.75967e-19)
(1.11197 0.751077 0)
(1.03977 0.720719 0)
(0.962731 0.684779 -1.21055e-19)
(0.881188 0.641013 -7.50262e-19)
(0.80655 0.589434 -9.2117e-19)
(0.750004 0.539308 1.50216e-19)
(0.703745 0.494548 5.40726e-19)
(0.677658 0.457506 4.36742e-19)
(0.639286 0.422906 -1.54107e-18)
(0.575943 0.36775 -6.19309e-19)
(0.466965 0.297397 3.62387e-19)
(0.315397 0.198521 0)
(0.154565 0.0954236 1.01678e-18)
(0.0331032 0.0203306 -1.2055e-18)
(0.431334 0.29417 8.79989e-20)
(0.978733 0.63671 -1.0881e-19)
(1.20867 0.807271 0)
(1.25531 0.840846 -1.08535e-20)
(1.22578 0.843765 1.01039e-20)
(1.16685 0.818897 0)
(1.09684 0.789519 6.0831e-20)
(1.02394 0.757451 8.03533e-20)
(0.94532 0.719453 -2.29223e-19)
(0.861248 0.672679 9.99995e-20)
(0.78076 0.617235 0)
(0.718052 0.562979 6.22424e-19)
(0.679911 0.51741 4.71317e-21)
(0.641984 0.475838 2.35537e-19)
(0.610357 0.431693 2.79652e-19)
(0.554773 0.386461 0)
(0.450333 0.304451 -5.93824e-19)
(0.298571 0.202024 1.16588e-18)
(0.143414 0.0941851 -1.2334e-18)
(0.0289742 0.0189603 2.59609e-18)
(0.430246 0.309135 0)
(0.969985 0.668071 0)
(1.19582 0.845241 -5.05355e-20)
(1.24117 0.880288 0)
(1.21106 0.882568 0)
(1.15205 0.856311 -1.52651e-19)
(1.08198 0.82586 6.24028e-20)
(1.00857 0.792455 1.75236e-20)
(0.92884 0.753347 -5.28878e-20)
(0.842948 0.706031 0)
(0.762337 0.649994 -1.39547e-19)
(0.700903 0.592142 -5.0748e-19)
(0.651272 0.540218 -6.09853e-19)
(0.624613 0.49424 -2.44762e-19)
(0.588561 0.453092 3.03243e-19)
(0.529726 0.388821 -7.15204e-19)
(0.425634 0.310559 1.27783e-18)
(0.280469 0.200674 3.23612e-21)
(0.132279 0.0915966 -1.18412e-18)
(0.0253581 0.0173556 -1.75153e-19)
(0.429215 0.323797 0)
(0.961249 0.697313 -9.09039e-20)
(1.18305 0.880278 6.44894e-20)
(1.22714 0.917096 0)
(1.19655 0.919236 0)
(1.13753 0.891804 3.09429e-19)
(1.06734 0.860098 0)
(0.993289 0.825422 0)
(0.912324 0.784857 -5.02382e-19)
(0.824644 0.735227 1.36625e-19)
(0.738959 0.675009 -1.23967e-18)
(0.669318 0.61499 0)
(0.626694 0.561591 -6.60355e-19)
(0.586817 0.51061 1.07878e-20)
(0.556931 0.454518 -9.73353e-19)
(0.506311 0.401337 3.85002e-19)
(0.409189 0.308886 2.05748e-21)
(0.265694 0.198364 -1.34674e-18)
(0.123221 0.0880272 6.38771e-19)
(0.0219375 0.015652 1.87419e-19)
(0.428349 0.338086 0)
(0.953689 0.725913 -1.33267e-19)
(1.17104 0.913771 6.81545e-20)
(1.21361 0.951741 6.9263e-20)
(1.18248 0.953317 -2.23023e-20)
(1.12339 0.924848 3.23408e-20)
(1.05324 0.892399 -4.03652e-20)
(0.978966 0.856748 4.93056e-19)
(0.897224 0.815504 5.37408e-19)
(0.807287 0.765917 1.04486e-18)
(0.719435 0.706375 1.03016e-18)
(0.65093 0.644219 1.8034e-19)
(0.596116 0.582886 9.49995e-19)
(0.566817 0.525496 5.85391e-19)
(0.532364 0.472402 6.98788e-19)
(0.47971 0.393404 -4.21845e-19)
(0.384166 0.305264 -4.92412e-19)
(0.250979 0.187116 5.76723e-19)
(0.116991 0.0856507 -3.42241e-19)
(0.0234192 0.0200363 6.06629e-19)
(0.427503 0.351957 1.91894e-19)
(0.946097 0.752343 2.07887e-19)
(1.15914 0.944603 4.07517e-20)
(1.20035 0.983968 1.62327e-20)
(1.1688 0.985448 3.88232e-20)
(1.1098 0.956146 -8.64405e-20)
(1.03971 0.922799 3.94392e-20)
(0.964974 0.886264 -2.06113e-20)
(0.881894 0.843916 -6.25131e-19)
(0.790037 0.792527 -1.13309e-18)
(0.699257 0.730154 7.16889e-20)
(0.622223 0.665512 0)
(0.571358 0.604685 0)
(0.525182 0.54225 -3.05043e-19)
(0.494494 0.467112 -1.14173e-18)
(0.450953 0.396922 9.08638e-19)
(0.371734 0.283594 5.39426e-19)
(0.256163 0.16934 0)
(0.128881 0.0613676 1.0913e-18)
(0.0170013 -0.00481963 -6.48827e-19)
(0.4268 0.36519 -1.01585e-19)
(0.939411 0.77803 9.03552e-20)
(1.14797 0.974144 -1.00631e-19)
(1.18769 1.01434 -7.35551e-20)
(1.15571 1.01526 -2.1442e-21)
(1.09672 0.985176 -2.70869e-20)
(1.02679 0.951371 0)
(0.95187 0.914178 -6.19741e-19)
(0.868085 0.8714 7.70113e-20)
(0.774571 0.820567 0)
(0.681126 0.76043 0)
(0.602934 0.695263 1.14253e-19)
(0.538106 0.626696 1.52975e-19)
(0.501459 0.555742 -3.28963e-19)
(0.463379 0.484843 8.19726e-19)
(0.414419 0.375592 -9.89767e-19)
(0.337409 0.263395 -1.1537e-18)
(0.254881 0.146384 1.02081e-18)
(0.178239 0.0974755 -3.89369e-19)
(0.113459 0.0815137 2.26789e-19)
(0.425933 0.377673 1.30462e-19)
(0.932552 0.801556 0)
(1.13691 1.00119 0)
(1.17537 1.04247 -1.85947e-20)
(1.14308 1.04331 1.50535e-20)
(1.08428 1.01262 -2.09247e-20)
(1.01449 0.978196 1.71072e-19)
(0.939227 0.940441 6.3783e-19)
(0.854482 0.897037 1.13495e-18)
(0.75965 0.845146 -8.47776e-20)
(0.663229 0.782656 1.74436e-19)
(0.577174 0.715797 -1.02224e-18)
(0.515709 0.650207 -1.01406e-18)
(0.45511 0.576998 -1.76228e-19)
(0.411607 0.476021 0)
(0.370115 0.38064 -8.95187e-21)
(0.308412 0.199443 6.33565e-19)
(0.272341 0.045405 -1.06971e-18)
(0.233108 -0.0778462 8.13701e-19)
(0.0821928 -0.096493 6.7628e-19)
(0.425103 0.389658 -2.89355e-19)
(0.926337 0.824397 -1.31645e-19)
(1.12649 1.02726 6.9017e-21)
(1.16359 1.06921 4.7853e-20)
(1.13094 1.06958 0)
(1.07214 1.03835 -1.08007e-19)
(1.00253 1.00376 -2.43172e-19)
(0.927212 0.965761 3.18301e-22)
(0.842081 0.922371 -5.95201e-19)
(0.745372 0.871275 -8.31532e-20)
(0.645338 0.811572 7.72341e-20)
(0.558845 0.747676 8.9769e-19)
(0.478731 0.676162 9.899e-19)
(0.427548 0.593025 1.71238e-19)
(0.374229 0.505267 8.75415e-19)
(0.299028 0.352645 0)
(0.183238 0.186116 0)
(0.0120342 0.220154 7.38864e-19)
(-0.0765924 0.629248 -3.10895e-20)
(0.00546357 1.53099 -9.03642e-19)
(0.424033 0.401033 1.604e-19)
(0.920001 0.845449 3.63963e-19)
(1.11614 1.05127 -4.89053e-19)
(1.15203 1.09426 2.3436e-19)
(1.11904 1.09478 -8.36235e-22)
(1.06041 1.06332 -6.70742e-20)
(0.990924 1.02856 0)
(0.915363 0.990533 -5.336e-19)
(0.829283 0.947222 0)
(0.73131 0.89603 1.17758e-18)
(0.62941 0.835546 -9.31058e-20)
(0.53356 0.770678 1.04397e-19)
(0.459484 0.705637 1.12899e-18)
(0.37403 0.630868 -3.70464e-19)
(0.282582 0.506815 -4.46107e-19)
(0.202778 0.410538 0)
(0.093567 0.523467 0)
(0.0278817 1.31288 0)
(0.0734873 2.45551 -4.20095e-19)
(0.101739 2.90703 -2.57831e-19)
(0.422896 0.411819 0)
(0.914208 0.865801 0)
(1.10641 1.07454 1.7929e-19)
(1.14104 1.11823 -1.88988e-19)
(1.10769 1.11849 7.19805e-20)
(1.04902 1.08684 7.08333e-20)
(0.979698 1.05233 3.09474e-20)
(0.904101 1.01462 -2.40952e-20)
(0.817731 0.971936 8.3372e-20)
(0.717982 0.92221 -1.35147e-18)
(0.611691 0.865065 1.69377e-19)
(0.516289 0.805917 8.93562e-19)
(0.419122 0.740718 -1.12539e-18)
(0.345344 0.651102 -1.22884e-18)
(0.269291 0.569778 4.14144e-19)
(0.196038 0.698521 0)
(0.127283 1.54115 5.77485e-19)
(0.127223 2.68803 6.39262e-19)
(0.135233 3.08612 -7.15025e-19)
(0.126469 3.22132 7.71974e-19)
(0.421512 0.422181 0)
(0.908328 0.884434 3.28126e-19)
(1.09678 1.0958 -4.4711e-20)
(1.13032 1.14053 2.74077e-19)
(1.09662 1.14116 -7.55552e-20)
(1.03814 1.10962 0)
(0.968943 1.07529 0)
(0.893157 1.03794 0)
(0.805933 0.995937 4.75889e-19)
(0.705351 0.947176 6.29403e-20)
(0.598446 0.890987 0)
(0.493296 0.832545 -8.89373e-19)
(0.409799 0.774269 0)
(0.295673 0.702978 8.80063e-19)
(0.208447 0.773271 -5.91235e-19)
(0.159591 1.45843 -4.76322e-19)
(0.161601 2.67635 -1.12248e-18)
(0.182781 3.12661 -5.93334e-19)
(0.173498 3.26827 -8.12984e-19)
(0.159148 3.30869 6.27791e-19)
(0.420158 0.431716 -1.15509e-19)
(0.902926 0.902381 1.53586e-20)
(1.08778 1.1165 -5.02066e-20)
(1.12021 1.16198 -2.10022e-19)
(1.08616 1.16254 0)
(1.02763 1.13106 0)
(0.958566 1.09728 0)
(0.882764 1.06064 3.7056e-20)
(0.795448 1.01976 -6.00978e-19)
(0.69337 0.973089 0)
(0.581921 0.920365 0)
(0.48056 0.868947 0)
(0.36619 0.812417 0)
(0.30643 0.793833 6.41911e-19)
(0.274656 1.17354 1.57816e-18)
(0.25498 2.37311 4.68826e-19)
(0.267091 3.08299 9.50012e-19)
(0.261374 3.28509 -7.30031e-19)
(0.212101 3.35127 2.71152e-19)
(0.179168 3.36388 0)
(0.418601 0.440944 1.19303e-19)
(0.897263 0.919199 -7.33478e-19)
(1.0786 1.13582 -1.95062e-19)
(1.11011 1.18239 -4.20659e-20)
(1.07573 1.18353 1.70992e-20)
(1.01742 1.15239 -2.99329e-20)
(0.948498 1.11901 -6.90993e-21)
(0.872604 1.08298 -4.27245e-19)
(0.784688 1.04323 0)
(0.6824 0.998332 -7.86462e-20)
(0.572409 0.948382 7.15437e-20)
(0.461415 0.89838 0)
(0.377025 0.856909 0)
(0.320325 0.977847 -8.02622e-19)
(0.278752 1.85286 9.94698e-20)
(0.274558 2.94076 -3.52926e-19)
(0.295722 3.28963 7.38006e-19)
(0.268622 3.38872 5.40305e-19)
(0.202329 3.41335 -7.40767e-19)
(0.177277 3.42261 3.68384e-19)
(0.416776 0.450322 2.36037e-19)
(0.891465 0.936855 7.17972e-19)
(1.06929 1.15643 2.33252e-19)
(1.09983 1.20373 0)
(1.06518 1.20478 0)
(1.00688 1.1737 2.42736e-20)
(0.938177 1.14093 9.78554e-20)
(0.862471 1.10576 3.81695e-19)
(0.774811 1.06732 2.41975e-20)
(0.671479 1.0248 1.01521e-18)
(0.557114 0.978027 -1.18265e-18)
(0.447453 0.932176 0)
(0.368384 0.930929 0)
(0.337961 1.34186 -5.47844e-19)
(0.340225 2.47944 -6.58343e-19)
(0.382584 3.1988 0)
(0.407284 3.37277 -7.51662e-19)
(0.33744 3.43591 4.52332e-20)
(0.266883 3.48036 3.6644e-19)
(0.243925 3.50576 -1.24331e-19)
(0.414474 0.460127 -4.50187e-19)
(0.884716 0.954883 -3.4548e-19)
(1.05879 1.17711 0)
(1.0885 1.22543 0)
(1.05365 1.22708 0)
(0.995764 1.19625 0)
(0.927422 1.16375 -1.12426e-19)
(0.851903 1.12904 3.4391e-19)
(0.764041 1.09171 0)
(0.661434 1.05128 -9.24879e-19)
(0.55135 1.00868 2.12307e-18)
(0.4438 0.974152 8.62212e-20)
(0.389926 1.05934 1.134e-19)
(0.389972 1.74597 8.94682e-19)
(0.405985 2.89674 -4.81966e-19)
(0.443424 3.32277 0)
(0.426286 3.44764 2.10956e-19)
(0.340228 3.53563 9.30766e-20)
(0.262917 3.60016 1.47923e-19)
(0.187615 3.57971 -4.77278e-21)
(0.411727 0.470294 2.14756e-19)
(0.877424 0.974374 -3.55842e-19)
(1.04778 1.19995 0)
(1.07663 1.24878 -6.07969e-20)
(1.04162 1.25005 2.04714e-19)
(0.983891 1.219 0)
(0.916035 1.18693 0)
(0.841093 1.15298 -6.00422e-19)
(0.754034 1.11683 -6.02418e-20)
(0.651249 1.07872 9.11045e-19)
(0.534401 1.03852 -1.00936e-18)
(0.444044 1.01935 5.84938e-19)
(0.405502 1.23196 0)
(0.428476 2.18073 -4.74793e-19)
(0.471066 3.14556 3.10616e-19)
(0.533293 3.42739 1.9627e-19)
(0.526003 3.5246 0)
(0.462209 3.60782 -3.59917e-20)