/*--------------------------------*- C++ -*----------------------------------*\
| =========                 |                                                 |
| \\      /  F ield         | OpenFOAM: The Open Source CFD Toolbox           |
|  \\    /   O peration     | Version:  4.0                                   |
|   \\  /    A nd           | Web:      www.OpenFOAM.org                      |
|    \\/     M anipulation  |                                                 |
\*---------------------------------------------------------------------------*/
FoamFile
{
    version     2.0;
    format      ascii;
    class       surfaceScalarField;
    location    "65";
    object      phi;
}
// * * * * * * * * * * * * * * * * * * * * * * * * * * * * * * * * * * * * * //

dimensions      [0 3 -1 0 0 0 0];

internalField   nonuniform List<scalar> 
4262
(
0.107132
0.470857
0.095564
0.705153
0.0693749
0.858492
0.0473593
1.02078
0.030981
1.21489
0.0197712
1.44943
0.012363
1.73327
0.00715729
2.07624
0.003185
2.48922
-0.000597775
2.98608
-0.00426171
2.98596
-0.0080522
2.48903
-0.013078
2.07606
-0.0202085
1.73299
-0.0311276
1.44914
-0.0471658
1.21455
-0.0688992
1.0205
-0.0951747
0.858579
-0.107059
0.70547
0.470929
0.112862
0.357995
0.135259
0.682757
0.120351
0.8734
0.0977851
1.04335
0.0745173
1.23816
0.0527823
1.47116
0.0343744
1.75168
0.0201352
2.09048
0.00884275
2.50051
-0.00106236
2.99598
-0.0111387
2.99603
-0.0223282
2.50022
-0.0364083
2.09014
-0.0547564
1.75134
-0.0766139
1.471
-0.100385
1.23833
-0.123583
1.0437
-0.137056
0.872052
-0.113577
0.681991
0.357352
0.0920479
0.265947
0.124973
0.649832
0.121102
0.877271
0.104825
1.05962
0.0861675
1.25682
0.0670156
1.49032
0.0480299
1.77067
0.0299583
2.10855
0.0133762
2.51709
-0.00270447
3.01206
-0.0184064
3.01173
-0.0343215
2.51614
-0.0517954
2.10762
-0.0701777
1.76972
-0.0884723
1.48929
-0.105647
1.2555
-0.119733
1.05778
-0.125197
0.877516
-0.0923429
0.649137
0.265009
0.0639761
0.201971
0.104789
0.609019
0.106555
0.875505
0.0951632
1.07101
0.0812281
1.27076
0.0664828
1.50506
0.0503571
1.78679
0.0331729
2.12574
0.015496
2.53477
-0.0030814
3.03064
-0.0215967
3.03025
-0.0390655
2.53361
-0.0555571
2.12411
-0.0708025
1.78497
-0.0846418
1.50313
-0.0983528
1.26921
-0.110089
1.06952
-0.107072
0.874499
-0.0649183
0.606983
0.200091
0.0374663
0.164504
0.0806843
0.565801
0.090944
0.865245
0.0837275
1.07823
0.0711131
1.28337
0.0592541
1.51692
0.0462101
1.79983
0.0312315
2.14072
0.0142178
2.55178
-0.00510908
3.04997
-0.0238904
3.04903
-0.0397029
2.54942
-0.0535406
2.13795
-0.0656095
1.79704
-0.0768229
1.51434
-0.0887569
1.28115
-0.0951368
1.0759
-0.0832971
0.862659
-0.0384364
0.562122
0.161655
0.0194556
0.145049
0.0571746
0.528082
0.072553
0.849867
0.0704403
1.08034
0.061622
1.29219
0.0507263
1.52782
0.0395641
1.811
0.026934
2.15335
0.0119066
2.56681
-0.00569255
3.06756
-0.0229947
3.06633
-0.0373968
2.56382
-0.0489617
2.14951
-0.0589274
1.807
-0.0688009
1.52422
-0.0764303
1.28877
-0.0772239
1.07669
-0.060059
0.845494
-0.0203929
0.522456
0.141262
0.0106046
0.134444
0.0422897
0.496397
0.0583586
0.833798
0.0585945
1.08011
0.0524025
1.29838
0.0429742
1.53724
0.0325142
1.82146
0.0210674
2.16479
0.00766454
2.58021
-0.00835191
3.08358
-0.0237802
3.08176
-0.0355366
2.57558
-0.0452173
2.15919
-0.0540655
1.81585
-0.061978
1.53213
-0.0665163
1.29331
-0.0645141
1.07469
-0.0460313
0.827011
-0.0117415
0.488166
0.12952
0.00654839
0.127896
0.032876
0.470069
0.0491047
0.81757
0.0505949
1.07862
0.0454794
1.3035
0.0370732
1.54565
0.0274079
1.83112
0.0165797
2.17562
0.00461398
2.59218
-0.00932744
3.09752
-0.0227951
3.09523
-0.033741
2.58652
-0.0430311
2.16848
-0.0506663
1.82349
-0.0571298
1.53859
-0.0602654
1.29645
-0.056586
1.07101
-0.0373745
0.8078
-0.00791692
0.458709
0.121603
0.00469039
0.123205
0.0264749
0.448285
0.0422126
0.801832
0.044271
1.07656
0.0396015
1.30817
0.0319375
1.55331
0.022747
1.84031
0.0120027
2.18637
8.22666e-05
2.6041
-0.0130318
3.11064
-0.0249253
3.10712
-0.0345134
2.59611
-0.0426132
2.17658
-0.0494904
1.83037
-0.054833
1.54394
-0.0570133
1.29863
-0.0518805
1.06588
-0.0321047
0.788024
-0.00639229
0.432996
0.115211
0.00372076
0.119485
0.0216042
0.430401
0.0366814
0.786755
0.0393657
1.07387
0.0349422
1.31259
0.0275123
1.56074
0.0186811
1.84914
0.00868216
2.19636
-0.0024858
2.61527
-0.0147357
3.12289
-0.0263504
3.11874
-0.0359116
2.60567
-0.0434027
2.18407
-0.0492305
1.83619
-0.053826
1.54853
-0.0549859
1.29979
-0.0485321
1.05942
-0.0284615
0.767953
-0.00581979
0.410354
0.109391
0.00302432
0.11646
0.0174499
0.415976
0.0313184
0.772886
0.0342129
1.07098
0.0299851
1.31682
0.0227613
1.56797
0.0141079
1.8578
0.00396415
2.20651
-0.00760816
2.62684
-0.0198501
3.13513
-0.0304629
3.12935
-0.0383337
2.61354
-0.0447636
2.1905
-0.0500995
1.84153
-0.0538769
1.55231
-0.0539311
1.29984
-0.0460264
1.05152
-0.0257775
0.747704
-0.00556376
0.390141
0.103828
0.00233187
0.114128
0.0136997
0.404608
0.0261769
0.760409
0.0292146
1.06794
0.0251716
1.32086
0.0180457
1.57509
0.00950651
1.86634
-0.000142169
2.21616
-0.0108168
2.63751
-0.0226333
3.14694
-0.0333628
3.14008
-0.0416315
2.62181
-0.047469
2.19634
-0.0516902
1.84575
-0.0543451
1.55496
-0.0536578
1.29916
-0.0443219
1.04218
-0.0239138
0.727296
-0.00544561
0.371673
0.098382
0.00166304
0.112465
0.0104291
0.395842
0.0211386
0.749699
0.0236321
1.06545
0.0193863
1.32511
0.0121728
1.58231
0.00344603
1.87506
-0.00658506
2.22619
-0.0178376
2.64876
-0.0298163
3.15892
-0.0395282
3.14979
-0.0458372
2.62812
-0.0505172
2.20102
-0.0541433
1.84938
-0.0558844
1.5567
-0.0541959
1.29747
-0.0434989
1.03149
-0.0227529
0.70655
-0.0053986
0.354318
0.0929834
0.000807056
0.111658
0.00698817
0.389661
0.0160493
0.740638
0.0182309
1.06327
0.0138512
1.32949
0.00651229
1.58965
-0.00227317
1.88385
-0.0121396
2.23605
-0.0230317
2.65966
-0.0345764
3.17047
-0.0444207
3.15964
-0.0510625
2.63476
-0.0549623
2.20492
-0.0575085
1.85192
-0.0581118
1.55731
-0.0553838
1.29474
-0.04327
1.01937
-0.0220755
0.685356
-0.00537867
0.337621
0.0876047
0.000121456
0.111537
0.0040959
0.385686
0.0107557
0.733978
0.0116737
1.06235
0.00664145
1.33452
-0.00128864
1.59758
-0.0108698
1.89343
-0.0216358
2.24682
-0.0331142
2.67114
-0.0442802
3.18163
-0.0526401
3.168
-0.0573494
2.63947
-0.0603068
2.20788
-0.0622011
1.85382
-0.0619532
1.55706
-0.0576383
1.29042
-0.0438568
1.00559
-0.0219255
0.663425
-0.00544622
0.321142
0.0821585
-0.000877605
0.112414
0.000366568
0.384442
0.00494696
0.729398
0.00499263
1.0623
-0.000637595
1.34015
-0.00923381
1.60617
-0.0191108
1.90331
-0.0296589
2.25737
-0.0407252
2.6822
-0.0520466
3.19296
-0.0606088
3.17656
-0.0651663
2.64403
-0.0670828
2.20979
-0.0679816
1.85472
-0.0668267
1.55591
-0.0608724
1.28447
-0.0452041
0.989922
-0.0222637
0.640484
-0.0056011
0.30448
0.0765574
-0.00174962
0.114164
-0.00273243
0.385425
-0.000965168
0.727631
-0.00270588
1.06404
-0.00941572
1.34686
-0.0189247
1.61568
-0.0300141
1.9144
-0.0422829
2.26964
-0.0549237
2.69484
-0.0657852
3.20382
-0.0722185
3.18299
-0.0754544
2.64727
-0.0767675
2.21111
-0.0764336
1.85438
-0.0735606
1.55303
-0.0656392
1.27655
-0.0476234
0.971906
-0.0232042
0.616065
-0.0058999
0.287175
0.0706575
-0.00309559
0.11726
-0.00646163
0.388791
-0.00828895
0.729458
-0.0117993
1.06755
-0.0195644
1.35462
-0.0302486
1.62637
-0.0422369
1.92638
-0.0545769
2.28198
-0.0664672
2.70673
-0.0773578
3.21471
-0.0847305
3.19036
-0.087331
2.64987
-0.086667
2.21044
-0.0852943
1.85301
-0.0816438
1.54938
-0.0715053
1.26641
-0.0508643
0.951265
-0.0245821
0.589783
-0.00626982
0.268863
0.0643877
-0.00440334
0.121663
-0.0106934
0.395081
-0.0158405
0.734605
-0.0221287
1.07384
-0.0312082
1.3637
-0.0430876
1.63825
-0.0564041
1.9397
-0.0709442
2.29652
-0.0856767
2.72147
-0.0975993
3.22663
-0.1022
3.19496
-0.102646
2.65031
-0.101942
2.20974
-0.0986653
1.84973
-0.0923601
1.54308
-0.0795079
1.25356
-0.0555173
0.927275
-0.0266039
0.560869
-0.00678606
0.249045
0.0576016
-0.00584069
0.127504
-0.0157516
0.404992
-0.0250817
0.743935
-0.0343586
1.08312
-0.0455764
1.37492
-0.0595278
1.6522
-0.0748031
1.95498
-0.0902577
2.31197
-0.104045
2.73525
-0.114073
3.23666
-0.119415
3.20031
-0.119938
2.65084
-0.116571
2.20637
-0.112179
1.84534
-0.104748
1.53565
-0.0885205
1.23733
-0.0606778
0.899432
-0.0288112
0.529003
-0.00727413
0.227508
0.0503275
-0.00818767
0.135691
-0.0226281
0.419432
-0.0373084
0.758616
-0.0500127
1.09582
-0.0631279
1.38803
-0.0789094
1.66798
-0.0959519
1.97202
-0.113503
2.32952
-0.129924
2.75167
-0.142707
3.24944
-0.145902
3.2035
-0.142952
2.64789
-0.138558
2.20198
-0.131392
1.83817
-0.120301
1.52455
-0.100273
1.2173
-0.0675357
0.866695
-0.0315507
0.493018
-0.00783693
0.203794
0.0424905
-0.0105699
0.146261
-0.0296404
0.438503
-0.0500831
0.779058
-0.0678522
1.11359
-0.0848291
1.40501
-0.103973
1.68712
-0.12411
1.99216
-0.14353
2.34894
-0.159387
2.76753
-0.167921
3.25798
-0.16864
3.20422
-0.165431
2.64468
-0.158876
2.19542
-0.150754
1.83005
-0.137787
1.51159
-0.112771
1.19229
-0.0742632
0.828187
-0.0340442
0.452799
-0.00824757
0.177998
0.034243
-0.0153648
0.161626
-0.0422586
0.465396
-0.0699134
0.806713
-0.092529
1.13621
-0.112924
1.42541
-0.135617
1.70981
-0.158095
2.01463
-0.178658
2.36951
-0.194761
2.78363
-0.204534
3.26775
-0.204871
3.20456
-0.197559
2.63736
-0.188123
2.18598
-0.176369
1.8183
-0.158303
1.49352
-0.12765
1.16163
-0.0823954
0.782932
-0.0366381
0.407041
-0.00857467
0.149934
0.0256683
-0.0194928
0.181119
-0.05506
0.500964
-0.0924108
0.844064
-0.12304
1.16684
-0.149618
1.45199
-0.176661
1.73686
-0.201888
2.03986
-0.223501
2.39112
-0.238996
2.79913
-0.244294
3.27305
-0.238
3.19826
-0.22767
2.62703
-0.216021
2.17434
-0.202171
1.80445
-0.180963
1.47231
-0.142843
1.12351
-0.0890747
0.729164
-0.0381336
0.3561
-0.00844201
0.120243
0.0172263
-0.0326877
0.213807
-0.0818517
0.550128
-0.129657
0.891869
-0.166592
1.20377
-0.198368
1.48376
-0.229723
1.76821
-0.25609
2.06623
-0.276591
2.41162
-0.288344
2.81088
-0.288777
3.27348
-0.280281
3.18977
-0.267585
2.61434
-0.25307
2.15982
-0.235018
1.7864
-0.205954
1.44325
-0.159067
1.07663
-0.0965321
0.666629
-0.0395593
0.299128
-0.00822914
0.0889124
0.00899715
-0.0471246
0.260931
-0.12106
0.624063
-0.184973
0.955782
-0.230672
1.24947
-0.268556
1.52165
-0.300354
1.80001
-0.324195
2.09007
-0.340737
2.42816
-0.347989
2.81813
-0.343726
3.26922
-0.328308
3.17435
-0.309143
2.59517
-0.289214
2.13989
-0.265991
1.76318
-0.231053
1.40831
-0.173156
1.01873
-0.098966
0.592438
-0.0382163
0.238378
-0.00796166
0.0586577
0.00103548
-0.0341609
0.295092
-0.098014
0.687916
-0.156759
1.01453
-0.204794
1.2975
-0.248523
1.56538
-0.287863
1.83935
-0.324919
2.12712
-0.358698
2.46194
-0.385097
2.84453
-0.399398
3.28352
-0.398698
3.17365
-0.390461
2.58694
-0.376542
2.12597
-0.350542
1.73718
-0.297021
1.35479
-0.211092
0.9328
-0.112101
0.493447
-0.0418994
0.168176
-0.00928783
0.0260461
-0.00825234
-0.0125212
0.307613
-0.047596
0.722991
-0.0899279
1.05686
-0.129886
1.33746
-0.169562
1.60505
-0.205166
1.87496
-0.238578
2.16054
-0.26776
2.49112
-0.289038
2.86581
-0.297837
3.29232
-0.29368
3.16949
-0.278957
2.57221
-0.255455
2.10247
-0.222111
1.70383
-0.176181
1.30886
-0.11354
0.87016
-0.0521116
0.432019
-0.0194915
0.135556
-0.00468424
0.0112388
-0.0129366
-2.29958e-05
0.307636
-0.0245275
0.747496
-0.054194
1.08653
-0.0848791
1.36815
-0.117152
1.63732
-0.148412
1.90622
-0.177459
2.18958
-0.201743
2.51541
-0.217875
2.88194
-0.222494
3.29694
-0.211899
3.1589
-0.190799
2.55111
-0.166642
2.07831
-0.137621
1.67481
-0.0969437
1.26818
-0.0505634
0.823779
-0.0183407
0.399796
-0.00724102
0.124456
-0.00228831
0.00628612
-0.0152249
0.000810245
0.306826
-0.0130964
0.761402
-0.0343401
1.10777
-0.0588446
1.39265
-0.0850271
1.66351
-0.11148
1.93267
-0.136095
2.2142
-0.156612
2.53592
-0.169711
2.89504
-0.169835
3.29706
-0.153399
3.14246
-0.13092
2.52863
-0.104656
2.05205
-0.0717543
1.64191
-0.038641
1.23507
-0.0116383
0.796777
0.00103467
0.387123
0.000952611
0.124538
-0.000318444
0.00755717
-0.0155433
0.00466842
0.302158
-0.00394413
0.770015
-0.0222994
1.12612
-0.0436199
1.41397
-0.0658035
1.68569
-0.0877638
1.95463
-0.108636
2.23507
-0.125801
2.55309
-0.135395
2.90464
-0.132793
3.29446
-0.116832
3.1265
-0.0920959
2.5039
-0.0638025
2.02375
-0.0377033
1.61581
-0.00882627
1.20619
0.0127111
0.775239
0.0147294
0.385105
0.00759284
0.131675
0.00176838
0.0133816
-0.013775
0.00523323
0.296925
-0.000660122
0.775908
-0.0161613
1.14163
-0.0341348
1.43195
-0.0533216
1.70488
-0.0728224
1.97413
-0.0911235
2.25337
-0.105828
2.56779
-0.113632
2.91244
-0.10947
3.2903
-0.0907227
3.10775
-0.0670691
2.48025
-0.0419245
1.99861
-0.0124892
1.58638
0.00982747
1.18388
0.0209344
0.764133
0.0197284
0.386311
0.0104361
0.140967
0.00269096
0.0211268
-0.011084
0.00472791
0.292197
0.000984175
0.779652
-0.0122361
1.15485
-0.0291068
1.44882
-0.0466331
1.7224
-0.063779
1.99128
-0.0798126
2.2694
-0.0928651
2.58085
-0.099687
2.91926
-0.0953629
3.28597
-0.0786047
3.09099
-0.0555308
2.45717
-0.0279905
1.97107
-0.00551173
1.5639
0.0145592
1.1638
0.0256428
0.753049
0.0213756
0.390578
0.0114365
0.150906
0.00313497
0.0294283
-0.00794903
0.00272589
0.289471
-0.00062073
0.782999
-0.0118593
1.16608
-0.0261841
1.46314
-0.0419765
1.7382
-0.0581194
2.00742
-0.0735165
2.2848
-0.0863041
2.59363
-0.0932048
2.92616
-0.0887441
3.28151
-0.0717203
3.07397
-0.0503
2.43575
-0.0282687
1.94904
-0.00236837
1.538
0.0160472
1.14539
0.0229805
0.746116
0.0200052
0.393553
0.0109001
0.160011
0.00311646
0.037212
-0.00483256
0.00139832
0.288072
-0.00115441
0.785551
-0.0118574
1.17679
-0.0255112
1.4768
-0.0406581
1.75334
-0.0557195
2.02248
-0.0701777
2.29926
-0.0824001
2.60586
-0.0890934
2.93285
-0.0854443
3.27786
-0.0711761
3.0597
-0.050026
2.4146
-0.025736
1.92475
-0.00701465
1.51928
0.0100414
1.12833
0.019822
0.736335
0.0166896
0.396686
0.00934608
0.167355
0.00274624
0.0438118
-0.00208632
-0.000479083
0.288551
-0.00471389
0.789786
-0.0137563
1.18583
-0.025586
1.48863
-0.0395072
1.76726
-0.0541591
2.03713
-0.0686336
2.31373
-0.0812056
2.61843
-0.088904
2.94055
-0.087088
3.27605
-0.0733874
3.046
-0.0540959
2.39531
-0.0347138
1.90537
-0.0117014
1.49626
0.00504962
1.11158
0.0119225
0.729462
0.0120256
0.396582
0.00688526
0.172495
0.00217459
0.0485225
8.82691e-05
-0.00121793
0.289769
-0.00565966
0.794228
-0.0147852
1.19496
-0.0265751
1.50042
-0.040193
1.78088
-0.0541947
2.05113
-0.0681879
2.32773
-0.0809177
2.63116
-0.089664
2.9493
-0.0897776
3.27616
-0.0779651
3.03419
-0.059094
2.37644
-0.0372272
1.8835
-0.0204106
1.47945
-0.00476893
1.09594
0.00597276
0.71872
0.00683104
0.395724
0.00448847
0.174838
0.00157007
0.0514409
0.00165833
-0.00283901
0.292608
-0.00828384
0.799673
-0.0168174
1.20349
-0.0275045
1.5111
-0.0401323
1.79351
-0.0538367
2.06484
-0.0681694
2.34206
-0.0817458
2.64473
-0.091781
2.95933
-0.0938991
3.27828
-0.0838449
3.02414
-0.0672235
2.35982
-0.0493406
1.86562
-0.0274421
1.45755
-0.0111731
1.07967
-0.00236693
0.709914
0.00212126
0.391236
0.00202795
0.174931
0.000922429
0.0525464
0.00258076
-0.00371128
0.29632
-0.00890054
0.804862
-0.0175752
1.21216
-0.0284523
1.52198
-0.041026
1.80608
-0.0543931
2.07821
-0.0685302
2.3562
-0.0824431
2.65865
-0.0938589
2.97075
-0.0989477
3.28337
-0.0916287
3.01682
-0.0751437
2.34333
-0.0529982
1.84347
-0.0359016
1.44045
-0.019524
1.06329
-0.00658239
0.696973
-0.00194654
0.3866
9.98756e-05
0.172885
0.000372024
0.0522742
0.00295279
-0.00421128
0.300531
-0.0105718
0.811222
-0.0190313
1.22062
-0.02912
1.53207
-0.0409795
1.81794
-0.0541424
2.09137
-0.0686357
2.37069
-0.0834139
2.67343
-0.0962735
2.98361
-0.103458
3.29055
-0.098565
3.01192
-0.0840861
2.32885
-0.0658263
1.82521
-0.0417125
1.41634
-0.023172
1.04475
-0.0116012
0.685402
-0.00425159
0.379251
-0.00101116
0.169644
2.93719e-05
0.0512337
0.00298216
-0.00417035
0.304701
-0.0105297
0.817582
-0.0191595
1.22925
-0.0294623
1.54237
-0.0414061
1.82989
-0.0544075
2.10437
-0.068769
2.38505
-0.0838074
2.68846
-0.0980061
2.99781
-0.108263
3.30081
-0.107057
3.01072
-0.0929607
2.31476
-0.0693136
1.80156
-0.0480746
1.3951
-0.0272812
1.02396
-0.0110727
0.669193
-0.0042733
0.372451
-0.00116676
0.166538
-0.000442987
0.0505099
0.00253917
-0.00435318
0.309055
-0.0114721
0.824701
-0.0199077
1.23769
-0.0295965
1.55206
-0.0409556
1.84125
-0.053735
2.11715
-0.0683154
2.39963
-0.0840952
2.70424
-0.0997219
3.01344
-0.111945
3.31303
-0.113088
3.01186
-0.101417
2.30309
-0.0821534
1.7823
-0.0524185
1.36536
-0.0266363
0.998178
-0.00977316
0.65233
0.000587031
0.362091
0.00306999
0.164055
0.00181822
0.0517617
0.00435738
-0.00428977
0.313344
-0.0111032
0.831514
-0.0194929
1.24608
-0.0293063
1.56187
-0.0407006
1.85264
-0.0533434
2.12979
-0.0677959
2.41409
-0.0837652
2.72021
-0.100428
3.0301
-0.11518
3.32778
-0.120724
3.0174
-0.110682
2.29304
-0.0861304
1.75775
-0.0581203
1.33735
-0.0261135
0.966171
-0.00148082
0.627697
0.00976392
0.350846
0.00696742
0.166851
-0.0011472
0.0598763
0.00321018
-0.00442726
0.317772
-0.0116082
0.838695
-0.0197151
1.25418
-0.0289426
1.5711
-0.0397569
1.86345
-0.0521164
2.14215
-0.0666478
2.42862
-0.083171
2.73674
-0.10098
3.04791
-0.117595
3.3444
-0.125578
3.02539
-0.118541
2.28601
-0.100003
1.73921
-0.0637231
1.30107
-0.0224476
0.924896
0.012811
0.592439
0.0382582
0.325399
0.0451826
0.159927
0.0281904
0.0768685
0.0314006
-0.00428041
0.322052
-0.011015
0.84543
-0.0189426
1.26211
-0.0281586
1.58032
-0.0389012
1.8742
-0.0510918
2.15434
-0.0654555
2.44298
-0.0820247
2.75331
-0.100497
3.06638
-0.11907
3.36297
-0.130659
3.03698
-0.127836
2.28318
-0.105702
1.71708
-0.0717841
1.26716
-0.0227725
0.875884
0.0252598
0.544407
0.0619505
0.288708
0.0533023
0.168575
0.0232745
0.106896
0.0546751
-0.00423058
0.326283
-0.0111717
0.852371
-0.0187893
1.26973
-0.0274112
1.58894
-0.0376072
1.88439
-0.0494628
2.1662
-0.0637614
2.45728
-0.0806419
2.77019
-0.0999409
3.08568
-0.120188
3.38322
-0.133466
3.05025
-0.134591
2.28431
-0.121537
1.70402
-0.0831268
1.22875
-0.0279736
0.820731
0.0434565
0.472976
0.1396
0.192565
0.204495
0.103679
0.185474
0.125918
0.240149
-0.00406171
0.330344
-0.0106141
0.858923
-0.0182159
1.27733
-0.0270893
1.59781
-0.0376948
1.895
-0.0500865
2.17859
-0.0652349
2.47243
-0.0835303
2.78848
-0.105315
3.10746
-0.129797
3.4077
-0.149489
3.06995
-0.157114
2.29193
-0.14241
1.68932
-0.107885
1.19422
-0.0427359
0.755582
0.0161823
0.414058
-0.0489967
0.257744
-0.353825
0.408508
-0.944965
0.717058
0.901964
-1.60678
-0.00395457
0.334299
-0.0106809
0.865649
-0.0180878
1.28474
-0.0265993
1.60632
-0.0369168
1.90532
-0.049352
2.19103
-0.0649802
2.48806
-0.0844013
2.8079
-0.108242
3.1313
-0.136333
3.43579
-0.160419
3.09403
-0.172775
2.30429
-0.176322
1.69286
-0.148282
1.16618
-0.112604
0.719903
-0.21302
0.514474
-0.693926
0.73865
-1.45256
1.16714
-2.05762
1.32212
1.2158
-2.37146
-0.00371184
0.338011
-0.00991105
0.871848
-0.0171134
1.29194
-0.0256658
1.61488
-0.0360847
1.91574
-0.04871
2.20365
-0.064727
2.50407
-0.0849371
2.82811
-0.110517
3.15688
-0.142264
3.46754
-0.173562
3.12533
-0.195939
2.32667
-0.199728
1.69665
-0.180246
1.1467
-0.265512
0.805169
-0.752846
1.00181
-1.55709
1.5429
-2.11587
1.72592
-2.35352
1.55977
1.32942
-2.46713
-0.00360309
0.341614
-0.00977379
0.878019
-0.0167154
1.29888
-0.0248738
1.62303
-0.034958
1.92582
-0.0475541
2.21625
-0.0639212
2.52044
-0.0851191
2.84931
-0.112687
3.18445
-0.148328
3.50318
-0.185055
3.16206
-0.213791
2.3554
-0.236746
1.71961
-0.309733
1.21969
-0.67595
1.17139
-1.44488
1.77074
-2.03109
2.1291
-2.26969
1.96452
-2.38224
1.67232
1.39292
-2.44574
-0.00328261
0.344896
-0.00884299
0.88358
-0.0154722
1.30551
-0.0235718
1.63113
-0.0337305
1.93598
-0.046444
2.22896
-0.0630952
2.53709
-0.0849477
2.87116
-0.114127
3.21363
-0.15347
3.54252
-0.198515
3.2071
-0.241187
2.39808
-0.278116
1.75654
-0.459249
1.40082
-1.09649
1.80862
-1.79315
2.4674
-2.11021
2.44617
-2.25743
2.11173
-2.33922
1.75411
1.45898
-2.40527
-0.00328908
0.348185
-0.00904673
0.889337
-0.0156701
1.31214
-0.0236389
1.6391
-0.0338502
1.94619
-0.0467968
2.24191
-0.063982
2.55428
-0.0869389
2.89412
-0.118167
3.24486
-0.161502
3.58586
-0.21263
3.25823
-0.257241
2.44269
-0.343268
1.84257
-0.739798
1.79735
-1.49305
2.56188
-1.96316
2.93751
-2.16279
2.6458
-2.2687
2.21763
-2.3459
1.83131
1.52218
-2.4091
-0.00334564
0.351531
-0.00903325
0.895025
-0.0159996
1.3191
-0.0246104
1.64771
-0.0355448
1.95712
-0.0492548
2.25562
-0.067349
2.57237
-0.0914894
2.91826
-0.124664
3.27803
-0.171878
3.63307
-0.228936
3.31529
-0.290798
2.50455
-0.477078
2.02885
-1.04549
2.36576
-1.68005
3.19644
-1.95272
3.21018
-2.09911
2.79219
-2.21289
2.33141
-2.30653
1.92496
1.58372
-2.36808
-0.00348938
0.35502
-0.00991383
0.901449
-0.0173315
1.32652
-0.0261834
1.65657
-0.0374058
1.96835
-0.0516704
2.26988
-0.070643
2.59134
-0.0962369
2.94385
-0.131689
3.31349
-0.18307
3.68445
-0.245681
3.3779
-0.329628
2.5885
-0.611616
2.31083
-1.2637
3.01784
-1.75098
3.68372
-1.95799
3.41719
-2.09728
2.93148
-2.22109
2.45522
-2.33124
2.0351
1.64234
-2.38986
-0.00341766
0.358438
-0.00963435
0.907666
-0.0174785
1.33436
-0.0271681
1.66626
-0.0392587
1.98044
-0.0543749
2.285
-0.0743472
2.61132
-0.10119
2.9707
-0.138543
3.35084
-0.19312
3.73903
-0.260973
3.44575
-0.385565
2.71309
-0.773096
2.69836
-1.41007
3.65481
-1.76059
4.03424
-1.93308
3.58968
-2.03464
3.03304
-2.12316
2.54374
-2.18988
2.10182
1.63497
-2.1825
-0.00344735
0.361885
-0.0105904
0.914809
-0.0189857
1.34276
-0.0288918
1.67616
-0.0412798
1.99282
-0.0569814
2.3007
-0.0778481
2.63218
-0.10615
2.999
-0.145704
3.39039
-0.20292
3.79624
-0.281404
3.52424
-0.450387
2.88207
-0.904074
3.15205
-1.46076
4.2115
-1.72157
4.29506
-1.87276
3.74087
-1.96617
3.12645
-1.96696
2.54453
-1.89711
2.03197
1.59765
-1.8598
-0.00321208
0.365098
-0.0098426
0.92144
-0.018594
1.35151
-0.0294081
1.68698
-0.0426549
2.00607
-0.0590132
2.31706
-0.0804482
2.65362
-0.109162
3.02771
-0.149073
3.4303
-0.205706
3.85288
-0.291534
3.61006
-0.496213
3.08675
-0.987618
3.64346
-1.42773
4.65161
-1.59197
4.45929
-1.65861
3.80751
-1.66289
3.13073
-1.51518
2.39683
-1.01563
1.53241
0.582028
-0.00283257
0.36793
-0.0106973
0.929304
-0.0201244
1.36094
-0.0311935
1.69804
-0.0450179
2.0199
-0.0625242
2.33456
-0.0857376
2.67683
-0.117239
3.05921
-0.161329
3.47439
-0.22525
3.9168
-0.328189
3.713
-0.581979
3.34054
-1.12227
4.18375
-1.4795
5.00884
-1.57859
4.55839
-1.5765
3.80542
-1.4728
3.02703
-1.23399
2.15802
-0.630539
0.928958
-0.0485106
-0.00253025
0.37046
-0.00911464
0.935889
-0.0187605
1.37058
-0.0311336
1.71042
-0.0464365
2.0352
-0.0654898
2.35362
-0.0907427
2.70208
-0.12496
3.09343
-0.173314
3.52275
-0.243121
3.98661
-0.366044
3.83593
-0.680857
3.65535
-1.24101
4.7439
-1.50045
5.26827
-1.55887
4.61682
-1.53626
3.7828
-1.33439
2.82516
-0.781303
1.60494
-0.108381
0.256036
-0.156892
-0.00155325
0.372014
-0.00959468
0.94393
-0.0199264
1.38091
-0.032348
1.72284
-0.0480175
2.05087
-0.068142
2.37374
-0.0951523
2.72909
-0.13222
3.1305
-0.184447
3.57497
-0.262586
4.06474
-0.411531
3.98487
-0.783708
4.02753
-1.31845
5.27864
-1.49418
5.44401
-1.52517
4.64781
-1.43687
3.6945
-1.10003
2.48832
-0.312437
0.817344
0.0247426
-0.0811435
-0.132149
-0.000980038
0.372994
-0.00655831
0.949508
-0.0166411
1.391
-0.0304721
1.73667
-0.0476627
2.06806
-0.0692921
2.39537
-0.0983279
2.75813
-0.137955
3.17013
-0.19319
3.63021
-0.279741
4.15129
-0.455331
4.16046
-0.893406
4.46561
-1.36398
5.74922
-1.47964
5.55967
-1.48205
4.65021
-1.25753
3.46998
-0.685218
1.916
-0.0628485
0.194974
0.0300551
-0.174047
-0.102094
7.0625e-05
0.372923
-0.00612402
0.955703
-0.0166419
1.40152
-0.0302309
1.75026
-0.047284
2.08511
-0.0698317
2.41792
-0.10036
2.78866
-0.142233
3.212
-0.200702
3.68868
-0.296332
4.24693
-0.49774
4.36187
-0.98576
4.95363
-1.35872
6.12217
-1.42306
5.62401
-1.37667
4.60383
-1.0885
3.18181
-0.322211
1.14971
0.00451019
-0.131747
0.0147177
-0.184255
-0.0873763
0.00324691
0.369676
0.000621562
0.958328
-0.00994161
1.41208
-0.025016
1.76533
-0.0433291
2.10343
-0.0672289
2.44182
-0.0993852
2.82081
-0.143263
3.25588
-0.204633
3.75005
-0.308585
4.35088
-0.536689
4.58997
-1.04863
5.46556
-1.32351
6.39706
-1.3634
5.6639
-1.22338
4.46381
-0.769894
2.72832
-0.068306
0.448126
0.0442891
-0.244342
0.024108
-0.164073
-0.0632683
0.00426334
0.365413
0.0021483
0.960443
-0.00785393
1.42208
-0.0216227
1.7791
-0.0389801
2.12078
-0.0634887
2.46633
-0.0964963
2.85382
-0.141744
3.30112
-0.205478
3.81378
-0.317123
4.46252
-0.57464
4.84749
-1.06966
5.96059
-1.25927
6.58667
-1.26868
5.67331
-1.04896
4.2441
-0.459309
2.13866
-0.0183232
0.00714076
-0.00664519
-0.25602
0.00475757
-0.175476
-0.0585107
0.0087042
0.356709
0.0103584
0.958789
0.0035921
1.42885
-0.0102649
1.79296
-0.0290142
2.13953
-0.0541471
2.49146
-0.0877576
2.88743
-0.133733
3.3471
-0.199463
3.87951
-0.317762
4.58082
-0.597605
5.12733
-1.0479
6.41088
-1.17166
6.71042
-1.15495
5.6566
-0.894946
3.98409
-0.262844
1.50656
-0.0697367
-0.185966
-0.0386373
-0.287119
-0.0143152
-0.199798
-0.0728259
0.011245
0.345464
0.0155967
0.954437
0.0104195
1.43402
0.000297962
1.80308
-0.0180689
2.1579
-0.0424457
2.51584
-0.0755974
2.92058
-0.121336
3.39284
-0.187204
3.94538
-0.309037
4.70266
-0.595379
5.41368
-0.983012
6.79852
-1.04725
6.77466
-0.978734
5.58808
-0.675616
3.68098
-0.0693122
0.900253
0.0159437
-0.271222
0.000952117
-0.272128
-0.00138464
-0.197462
-0.0742105
0.0185334
0.32693
0.0304579
0.942513
0.0297218
1.43476
0.018763
1.81404
0.00108721
2.17557
-0.0213961
2.53832
-0.0534131
2.9526
-0.0979806
3.43741
-0.162996
4.01039
-0.285153
4.82481
-0.565825
5.69435
-0.872276
7.10497
-0.907371
6.80976
-0.803352
5.48406
-0.442498
3.32012
0.069037
0.388718
0.0792411
-0.281426
0.0586819
-0.251568
0.0222938
-0.161073
-0.0519168
0.0241753
0.302755
0.042014
0.924674
0.0448535
1.43192
0.0382332
1.82066
0.0259258
2.18788
0.00437106
2.55987
-0.0254493
2.98242
-0.0670443
3.479
-0.128272
4.07162
-0.243666
4.94021
-0.49196
5.94264
-0.713099
7.32611
-0.740785
6.83744
-0.638734
5.38201
-0.304979
2.98637
0.00152293
0.0822162
0.0195322
-0.299435
0.0303212
-0.262357
0.0147734
-0.145526
-0.0371434
0.0352281
0.267527
0.0656947
0.894208
0.0773385
1.42028
0.0741915
1.82381
0.0634023
2.19867
0.0445385
2.57874
0.0178077
3.00915
-0.0205326
3.51734
-0.0763104
4.1274
-0.176787
5.04068
-0.381105
6.14696
-0.535941
7.48094
-0.559289
6.86079
-0.459673
5.2824
-0.184967
2.71166
-0.0733056
-0.029445
-0.0539126
-0.318828
-0.0197353
-0.296535
-0.00174633
-0.163515
-0.0388897
0.0446503
0.222876
0.0869544
0.851904
0.106869
1.40036
0.111594
1.81908
0.107688
2.20258
0.0935781
2.59285
0.0721515
3.03058
0.0403598
3.54913
-0.00980716
4.17757
-0.0844363
5.11531
-0.221806
6.28433
-0.310889
7.57003
-0.321489
6.87139
-0.268805
5.22971
-0.0817582
2.52461
-0.0970968
-0.0141064
-0.0707631
-0.345162
-0.0295014
-0.337796
-0.00240696
-0.190609
-0.0412966
0.0581986
0.164678
0.121119
0.788983
0.158615
1.36287
0.171374
1.80632
0.171286
2.20266
0.161579
2.60255
0.147146
3.04501
0.124266
3.57201
0.088328
4.2135
0.0392766
5.16436
-0.0175424
6.34115
-0.0489063
7.60139
-0.0485822
6.87107
-0.00999288
5.19112
0.0540628
2.46056
-0.0811971
0.121153
-0.0869817
-0.339377
-0.0443319
-0.380446
0.0051918
-0.240133
-0.0361049
0.0602076
0.10447
0.150866
0.698325
0.207269
1.30646
0.234691
1.7789
0.247003
2.19035
0.246162
2.6034
0.239077
3.0521
0.227234
3.58386
0.209545
4.23119
0.189565
5.18434
0.23796
6.29275
0.280364
7.55899
0.293817
6.85761
0.206403
5.27854
-0.0433142
2.71028
-0.283056
0.360895
-0.324747
-0.297686
-0.243366
-0.461828
-0.0968511
-0.386647
-0.132956
0.0498702
0.0545999
0.184415
0.56378
0.281291
1.20959
0.327625
1.73257
0.347453
2.17053
0.35554
2.59531
0.355512
3.05212
0.356832
3.58254
0.358649
4.22938
0.372083
5.17091
0.520289
6.14455
0.660527
7.41875
0.651467
6.86667
0.441948
5.48806
-0.0666688
3.21889
-0.55962
0.853846
-0.634391
-0.222915
-0.495686
-0.600532
-0.253229
-0.629105
-0.386185
0.0344043
0.0201956
0.219175
0.379009
0.346125
1.08264
0.424623
1.65407
0.467343
2.12781
0.490082
2.57257
0.498195
3.04401
0.513363
3.56737
0.539915
4.20282
0.59498
5.11584
0.830679
5.90885
1.1886
7.06082
1.37346
6.68181
1.44469
5.41683
1.00447
3.65911
0.234853
1.62346
-0.285029
0.296967
-0.478882
-0.40668
-0.28006
-0.827926
-0.666244
0.0306328
-0.0104371
0.235969
0.173673
0.449955
0.868651
0.565962
1.53806
0.617911
2.07586
0.651706
2.53878
0.672092
3.02363
0.695678
3.54378
0.744841
4.15366
0.856245
5.00444
1.2122
5.55289
1.82706
6.44596
2.18785
6.32102
2.43794
5.16675
2.32464
3.77242
1.64721
2.30089
0.940268
1.00391
0.385156
0.148433
0.0810829
-0.523854
-0.585161
0.0241336
-0.0345707
0.158952
0.0388544
0.494771
0.532832
0.693765
1.33907
0.795627
1.974
0.845918
2.48848
0.883405
2.98614
0.91205
3.51514
0.982126
4.08358
1.11649
4.87008
1.50789
5.16149
2.28706
5.66679
2.67911
5.92897
2.86094
4.98491
2.71903
3.91433
2.21537
2.80455
1.58792
1.63136
1.04974
0.686618
0.420018
0.105863
-0.165143
0.00250934
-0.0370801
0.0788019
-0.0374382
0.412542
0.199092
0.715403
1.03621
0.857382
1.83202
0.896549
2.44932
0.902025
2.98066
0.885055
3.53211
0.884428
4.08421
0.926502
4.828
1.08569
5.0023
1.5299
5.22258
1.70802
5.75086
1.74775
4.94518
1.65997
4.00211
1.4183
3.04622
1.02417
2.02549
0.600946
1.10984
0.252973
0.453836
0.0878298
0.00404644
-0.0411265
0.044634
-0.0780258
0.216098
0.0276274
0.547777
0.70453
0.721049
1.65874
0.784831
2.38554
0.801201
2.96429
0.795381
3.53793
0.776558
4.10303
0.795043
4.80952
0.871879
4.92547
1.1762
4.91826
1.36543
5.56162
1.37981
4.9308
1.31956
4.06236
1.15636
3.20942
0.865829
2.31602
0.542916
1.43275
0.22845
0.768302
0.31628
0.00427991
-0.0454064
0.0213937
-0.0951396
0.0923843
-0.0433631
0.381816
0.415098
0.580123
1.46044
0.666996
2.29866
0.686501
2.94479
0.684903
3.53952
0.660285
4.12765
0.657393
4.81241
0.685605
4.89725
0.867559
4.73631
1.04675
5.38243
1.04574
4.93181
0.987676
4.12042
0.863835
3.33326
0.655991
2.52387
0.406571
1.68217
0.164297
1.01058
0.480577
-0.00355238
-0.041854
-0.000979315
-0.0977126
0.0340964
-0.0784388
0.240574
0.20862
0.446364
1.25465
0.550156
2.19487
0.571739
2.9232
0.568696
3.54257
0.540963
4.15539
0.522168
4.83121
0.527498
4.89192
0.633445
4.63036
0.773516
5.24236
0.763964
4.94136
0.702702
4.18169
0.605565
3.4304
0.458896
2.67054
0.274931
1.86614
0.101595
1.18391
0.582173
-0.010396
-0.031458
-0.00771992
-0.100389
0.017969
-0.104128
0.13828