/*--------------------------------*- C++ -*----------------------------------*\
| =========                 |                                                 |
| \\      /  F ield         | OpenFOAM: The Open Source CFD Toolbox           |
|  \\    /   O peration     | Version:  4.0                                   |
|   \\  /    A nd           | Web:      www.OpenFOAM.org                      |
|    \\/     M anipulation  |                                                 |
\*---------------------------------------------------------------------------*/
FoamFile
{
    version     2.0;
    format      ascii;
    class       volScalarField;
    location    "4";
    object      T;
}
// * * * * * * * * * * * * * * * * * * * * * * * * * * * * * * * * * * * * * //

dimensions      [0 0 0 1 0 0 0];

internalField   nonuniform List<scalar> 
1000
(
0
0
0
0
0
0
0
0
0
0
0
0
0
0
0
0
0
0
0
0
0
0
0
0
0
0
0
0
0
0
0
0
0
0
0
0
0
0
0
0
0
0
0
0
0
0
0
0
0
0
0
0
0
0
0
0
0
0
0
0
0
0
0
0
0
0
0
0
0
0
0
0
0
0
0
0
0
0
0
0
0
0
0
0
0
0
0
0
0
0
0
0
0
0
0
0
0
0
0
0
0
0
0
0
0
0
0
0
0
0
0
0
0
0
0
0
0
0
0
0
0
0
0
0
0
0
0
0
0
0
0
0
0
0
0
0
0
0
0
0
0
0
0
0
0
0
0
0
0
0
0
0
0
0
0
0
0
0
0
0
0
0
0
0
0
0
0
0
0
0
0
0
0
0
0
0
0
0
0
0
0
0
0
0
0
0
0
0
0
0
0
0
0
0
0
0
0
0
3.45846e-323
1.88239e-321
7.45347e-320
2.92981e-318
1.14858e-316
4.49163e-315
1.75212e-313
6.81767e-312
2.64615e-310
1.02445e-308
3.95606e-307
1.52378e-305
5.85412e-304
2.24324e-302
8.57349e-301
3.26815e-299
1.24251e-297
4.71137e-296
1.7817e-294
6.71984e-293
2.52761e-291
9.48163e-290
3.54707e-288
1.32332e-286
4.92331e-285
1.8266e-283
6.75797e-282
2.49326e-280
9.17252e-279
3.36491e-277
1.23088e-275
4.48957e-274
1.63281e-272
5.92104e-271
2.14085e-269
7.71778e-268
2.77401e-266
9.94086e-265
3.55168e-263
1.26511e-261
4.49261e-260
1.59052e-258
5.61354e-257
1.97509e-255
6.92755e-254
2.42218e-252
8.44224e-251
2.93309e-249
1.01578e-247
3.50648e-246
1.20652e-244
4.13784e-243
1.41444e-241
4.81897e-240
1.63635e-238
5.53782e-237
1.86781e-235
6.27838e-234
2.10317e-232
7.02105e-231
2.33572e-229
7.74318e-228
2.55793e-226
8.4201e-225
2.76181e-223
9.02628e-222
2.93935e-220
9.53691e-219
3.08297e-217
9.92943e-216
3.18611e-214
1.01851e-212
3.24363e-211
1.02906e-209
3.25227e-208
1.02389e-206
3.21091e-205
1.003e-203
3.12075e-202
9.67139e-201
2.98522e-199
9.1772e-198
2.8098e-196
8.56762e-195
2.60166e-193
7.86739e-192
2.36913e-190
7.10412e-189
2.1212e-187
6.30646e-186
1.86685e-184
5.50223e-183
1.61457e-181
4.71684e-180
1.37184e-178
3.9719e-177
1.14478e-175
3.28439e-174
9.37956e-173
2.66618e-171
7.54322e-170
2.12407e-168
5.95262e-167
1.66019e-165
4.60784e-164
1.27266e-162
3.49769e-161
9.56508e-160
2.60264e-158
7.04592e-157
1.89776e-155
5.08517e-154
1.35553e-152
3.59446e-151
9.48106e-150
2.48748e-148
6.4911e-147
1.68467e-145
4.34833e-144
1.11615e-142
2.84902e-141
7.23123e-140
1.82496e-138
4.57924e-137
1.14238e-135
2.8332e-134
6.98508e-133
1.71185e-131
4.17002e-130
1.00962e-128
2.42943e-127
5.8096e-126
1.38057e-124
3.25994e-123
7.64847e-122
1.78289e-120
4.12885e-119
9.49857e-118
2.17061e-116
4.92687e-115
1.11069e-113
2.48664e-112
5.52842e-111
1.22046e-109
2.67515e-108
5.82153e-107
1.25764e-105
2.69695e-104
5.74046e-103
1.21267e-101
2.54226e-100
5.28862e-99
1.09162e-97
2.23543e-96
4.54127e-95
9.1511e-94
1.82898e-92
3.62524e-91
7.12551e-90
1.38867e-88
2.68311e-87
5.13911e-86
9.75659e-85
1.83577e-83
3.42294e-82
6.32393e-81
1.15752e-79
2.0988e-78
3.76925e-77
6.70388e-76
1.18066e-74
2.05868e-73
3.55353e-72
6.07119e-71
1.02651e-69
1.71738e-68
2.84258e-67
4.65405e-66
7.53617e-65
1.2067e-63
1.91028e-62
2.98931e-61
4.62316e-60
7.06509e-59
1.06666e-57
1.59064e-56
2.34244e-55
3.40584e-54
4.88812e-53
6.9235e-52
9.67548e-51
1.33377e-49
1.81317e-48
2.43017e-47
3.21043e-46
4.17922e-45
5.35936e-44
6.76842e-43
8.41566e-42
1.02986e-40
1.23999e-39
1.46845e-38
1.70983e-37
1.95676e-36
2.20014e-35
2.42953e-34
2.63376e-33
2.80172e-32
2.92334e-31
2.99044e-30
2.99769e-29
2.94315e-28
2.82869e-27
2.65989e-26
2.44568e-25
2.19749e-24
1.92829e-23
1.65137e-22
1.37924e-21
1.12262e-20
8.8979e-20
6.86192e-19
5.14434e-18
3.74574e-17
2.64634e-16
1.81218e-15
1.20151e-14
7.70398e-14
4.77108e-13
2.85004e-12
1.63982e-11
9.07371e-11
4.82059e-10
2.45454e-09
1.19554e-08
5.5589e-08
2.4619e-07
1.036e-06
4.13166e-06
1.55716e-05
5.52905e-05
0.00018435
0.000575119
0.0016724
0.00451481
0.0112678
0.025888
0.0545337
0.104954
0.184076
0.293971
0.428212
0.571788
0.706029
0.815924
0.895046
0.945466
0.974112
0.988732
0.995485
0.998328
0.999425
0.999816
0.999945
0.999984
0.999996
0.999999
1
1
1
1
1
1
1
1
1
1
1
1
1
1
1
1
1
1
1
1
1
1
1
1
1
1
1
1
1
1
1
1
1
1
1
1
1
1
1
1
1
1
1
1
1
1
1
1
1
1
1
1
1
1
1
1
1
1
1
1
1
1
1
1
1
1
1
1
1
1
0.999999
0.999996
0.999984
0.999945
0.999816
0.999425
0.998328
0.995485
0.988732
0.974112
0.945466
0.895046
0.815924
0.706029
0.571788
0.428212
0.293971
0.184076
0.104954
0.0545337
0.025888
0.0112678
0.00451481
0.0016724
0.000575119
0.00018435
5.52905e-05
1.55716e-05
4.13166e-06
1.036e-06
2.4619e-07
5.5589e-08
1.19554e-08
2.45454e-09
4.82059e-10
9.07371e-11
1.63982e-11
2.85004e-12
4.77108e-13
7.70398e-14
1.20151e-14
1.81218e-15
2.64634e-16
3.74574e-17
5.14434e-18
6.86192e-19
8.8979e-20
1.12262e-20
1.37924e-21
1.65137e-22
1.92829e-23
2.19749e-24
2.44568e-25
2.65989e-26
2.82869e-27
2.94315e-28
2.99769e-29
2.99044e-30
2.92334e-31
2.80172e-32
2.63376e-33
2.42953e-34
2.20014e-35
1.95676e-36
1.70983e-37
1.46845e-38
1.23999e-39
1.02986e-40
8.41566e-42
6.76842e-43
5.35936e-44
4.17922e-45
3.21043e-46
2.43017e-47
1.81317e-48
1.33377e-49
9.67548e-51
6.9235e-52
4.88812e-53
3.40584e-54
2.34244e-55
1.59064e-56
1.06666e-57
7.06509e-59
4.62316e-60
2.98931e-61
1.91028e-62
1.2067e-63
7.53617e-65
4.65405e-66
2.84258e-67
1.71738e-68
1.02651e-69
6.07119e-71
3.55353e-72
2.05868e-73
1.18066e-74
6.70388e-76
3.76925e-77
2.0988e-78
1.15752e-79
6.32393e-81
3.42294e-82
1.83577e-83
9.75659e-85
5.13911e-86
2.68311e-87
1.38867e-88
7.12551e-90
3.62524e-91
1.82898e-92
9.1511e-94
4.54127e-95
2.23543e-96
1.09162e-97
5.28862e-99
2.54226e-100
1.21267e-101
5.74046e-103
2.69695e-104
1.25764e-105
5.82153e-107
2.67515e-108
1.22046e-109
5.52842e-111
2.48664e-112
1.11069e-113
4.92687e-115
2.17061e-116
9.49857e-118
4.12885e-119
1.78289e-120
7.64847e-122
3.25994e-123
1.38057e-124
5.8096e-126
2.42943e-127
1.00962e-128
4.17002e-130
1.71185e-131
6.98508e-133
2.8332e-134
1.14238e-135
4.57924e-137
1.82496e-138
7.23123e-140
2.84902e-141
1.11615e-142
4.34833e-144
1.68467e-145
6.4911e-147
2.48748e-148
9.48106e-150
3.59446e-151
1.35553e-152
5.08517e-154
1.89776e-155
7.04592e-157
2.60264e-158
9.56508e-160
3.49769e-161
1.27266e-162
4.60784e-164
1.66019e-165
5.95262e-167
2.12407e-168
7.54322e-170
2.66618e-171
9.37956e-173
3.28439e-174
1.14478e-175
3.9719e-177
1.37184e-178
4.71684e-180
1.61457e-181
5.50223e-183
1.86685e-184
6.30646e-186
2.1212e-187
7.10412e-189
2.36913e-190
7.86739e-192
2.60166e-193
8.56762e-195
2.8098e-196
9.1772e-198
2.98522e-199
9.67139e-201
3.12075e-202
1.003e-203
3.21091e-205
1.02389e-206
3.25227e-208
1.02906e-209
3.24363e-211
1.01851e-212
3.18611e-214
9.92943e-216
3.08297e-217
9.53691e-219
2.93935e-220
9.02628e-222
2.76181e-223
8.4201e-225
2.55793e-226
7.74318e-228
2.33572e-229
7.02105e-231
2.10317e-232
6.27838e-234
1.86781e-235
5.53782e-237
1.63635e-238
4.81897e-240
1.41444e-241
4.13784e-243
1.20652e-244
3.50648e-246
1.01578e-247
2.93309e-249
8.44224e-251
2.42218e-252
6.92755e-254
1.97509e-255
5.61354e-257
1.59052e-258
4.49261e-260
1.26511e-261
3.55168e-263
9.94086e-265
2.77401e-266
7.71778e-268
2.14085e-269
5.92104e-271
1.63281e-272
4.48957e-274
1.23088e-275
3.36491e-277
9.17252e-279
2.49326e-280
6.75797e-282
1.8266e-283
4.92331e-285
1.32332e-286
3.54707e-288
9.48163e-290
2.52761e-291
6.71984e-293
1.7817e-294
4.71137e-296
1.24251e-297
3.26815e-299
8.57349e-301
2.24324e-302
5.85412e-304
1.52378e-305
3.95606e-307
1.02445e-308
2.64615e-310
6.81767e-312
1.75212e-313
4.49163e-315
1.14858e-316
2.92983e-318
7.45347e-320
1.88239e-321
3.45846e-323
0
0
0
0
0
0
0
0
0
0
0
0
0
0
0
0
0
0
0
0
0
0
0
0
0
0
0
0
0
0
0
0
0
0
0
0
0
0
0
0
0
0
0
0
0
0
0
0
0
0
0
0
0
0
0
0
0
0
0
0
0
0
0
0
0
0
0
0
0
0
0
0
0
0
0
0
0
0
0
0
0
0
0
0
0
0
0
0
0
0
0
0
0
0
0
0
0
0
0
0
0
0
0
0
0
0
0
0
0
0
0
0
0
0
0
0
0
0
0
0
0
0
0
0
0
0
0
0
0
0
0
0
0
0
0
0
0
0
0
0
0
0
0
0
0
0
0
0
0
0
0
0
0
0
0
0
0
0
0
0
0
0
0
0
0
0
0
0
0
0
0
0
0
0
0
0
0
0
0
0
0
0
0
0
0
0
0
0
0
0
0
0
0
0
0
0
0
0
)
;

boundaryField
{
    sides
    {
        type            zeroGradient;
    }
    empty
    {
        type            empty;
    }
}


// ************************************************************************* //
