/*--------------------------------*- C++ -*----------------------------------*\
| =========                 |                                                 |
| \\      /  F ield         | OpenFOAM: The Open Source CFD Toolbox           |
|  \\    /   O peration     | Version:  4.0                                   |
|   \\  /    A nd           | Web:      www.OpenFOAM.org                      |
|    \\/     M anipulation  |                                                 |
\*---------------------------------------------------------------------------*/
FoamFile
{
    version     2.0;
    format      ascii;
    class       surfaceScalarField;
    location    "43";
    object      phi;
}
// * * * * * * * * * * * * * * * * * * * * * * * * * * * * * * * * * * * * * //

dimensions      [0 3 -1 0 0 0 0];

internalField   nonuniform List<scalar> 
4262
(
0.107138
0.470851
0.0955639
0.70516
0.0693689
0.858498
0.0473497
1.02078
0.0309873
1.21488
0.0198224
1.44938
0.0124623
1.73322
0.0073063
2.07619
0.00337659
2.48917
-0.000209884
2.98588
-0.00384898
2.98593
-0.00786259
2.48926
-0.0130213
2.07619
-0.020192
1.73303
-0.0311339
1.44916
-0.0472485
1.21463
-0.0690482
1.02056
-0.0952861
0.858541
-0.107091
0.705391
0.470897
0.112905
0.357946
0.135349
0.682715
0.120491
0.873356
0.0979743
1.0433
0.0747165
1.23814
0.0529617
1.47114
0.0345364
1.75165
0.0202555
2.09047
0.00890281
2.50053
-0.00131571
2.9961
-0.0114592
2.99607
-0.0224862
2.50028
-0.0364061
2.09011
-0.0546454
1.75127
-0.0764089
1.47093
-0.0999863
1.23821
-0.12297
1.04355
-0.136763
0.872333
-0.113482
0.68211
0.357415
0.0920769
0.265869
0.125038
0.649755
0.121197
0.877197
0.104937
1.05956
0.0862978
1.25678
0.0671786
1.49026
0.0483149
1.77051
0.0303897
2.1084
0.014012
2.5169
-0.00174501
3.01185
-0.0173257
3.01166
-0.0333583
2.51632
-0.0509535
2.10771
-0.0696268
1.76995
-0.0882194
1.48952
-0.105731
1.25572
-0.120247
1.05806
-0.125309
0.877395
-0.0923492
0.649149
0.265066
0.0640182
0.201851
0.104906
0.608867
0.106735
0.875367
0.0954106
1.07088
0.0815396
1.27065
0.0668061
1.50499
0.0505972
1.78672
0.0334157
2.12558
0.0156948
2.53462
-0.00306786
3.03062
-0.0215785
3.03017
-0.038755
2.53349
-0.0552685
2.12422
-0.0704868
1.78517
-0.0843016
1.50333
-0.0979436
1.26936
-0.109604
1.06972
-0.106721
0.874513
-0.0647589
0.607187
0.200307
0.0375543
0.164296
0.0809146
0.565507
0.0912613
0.865021
0.0841256
1.07802
0.0716073
1.28316
0.0598605
1.51674
0.046905
1.79968
0.0320024
2.14048
0.015216
2.55141
-0.00379452
3.04963
-0.0225291
3.0489
-0.0387425
2.54971
-0.0528085
2.13829
-0.065124
1.79748
-0.0764494
1.51466
-0.0883755
1.28129
-0.0947007
1.07605
-0.08301
0.862822
-0.0383162
0.562493
0.161991
0.0195132
0.144783
0.0573273
0.527692
0.0727687
0.849579
0.0706954
1.08009
0.0619577
1.2919
0.0511734
1.52752
0.0400748
1.81078
0.0275381
2.15302
0.0124698
2.56648
-0.00519421
3.06729
-0.0224506
3.06616
-0.0366039
2.56386
-0.0480994
2.14979
-0.0580406
1.80742
-0.0678038
1.52442
-0.0755265
1.28901
-0.076525
1.07705
-0.0596596
0.845957
-0.0202783
0.523112
0.141713
0.0106529
0.13413
0.0424778
0.495868
0.0587391
0.833318
0.0591096
1.07972
0.0529574
1.29805
0.0435975
1.53688
0.0334134
1.82096
0.0222471
2.16419
0.00931622
2.57941
-0.00637404
3.08298
-0.0217811
3.08156
-0.0337643
2.57584
-0.0436427
2.15966
-0.0524638
1.81624
-0.0606801
1.53264
-0.0655234
1.29385
-0.0637494
1.07527
-0.0455472
0.827755
-0.0115943
0.489159
0.130118
0.00663501
0.127495
0.0331471
0.469355
0.0494815
0.816984
0.051065
1.07814
0.0461168
1.303
0.0378607
1.54514
0.0283296
1.83049
0.0175649
2.17495
0.00554989
2.59143
-0.00822955
3.09676
-0.0213161
3.09465
-0.0319899
2.58652
-0.0412779
2.16895
-0.0492026
1.82417
-0.0558094
1.53924
-0.0591165
1.29716
-0.0556758
1.07183
-0.0368372
0.808916
-0.00776958
0.460091
0.122349
0.00480236
0.122693
0.0268827
0.447275
0.0430208
0.800846
0.0453475
1.07581
0.0408559
1.30749
0.0333932
1.5526
0.0244432
1.83944
0.0141121
2.18528
0.00262359
2.60291
-0.0100735
3.10946
-0.022078
3.10666
-0.0321074
2.59655
-0.0404146
2.17726
-0.0473782
1.83113
-0.0529782
1.54484
-0.0554327
1.29962
-0.0506396
1.06704
-0.0313526
0.789629
-0.00617544
0.434914
0.116173
0.003829
0.118864
0.0218983
0.429206
0.0372287
0.785515
0.0402592
1.07278
0.0362306
1.31152
0.0291519
1.55968
0.0205302
1.84806
0.0105338
2.19528
-0.000721945
2.61417
-0.0128435
3.12158
-0.0241159
3.11793
-0.0332711
2.6057
-0.0409077
2.1849
-0.0470208
1.83724
-0.0515494
1.54937
-0.0529332
1.301
-0.0468014
1.06091
-0.0274255
0.770253
-0.00552244
0.413011
0.110651
0.00304006
0.115824
0.0175685
0.414677
0.0316303
0.771453
0.0348413
1.06957
0.0310931
1.31527
0.0244849
1.56629
0.0164892
1.85606
0.00697467
2.20479
-0.0039061
2.62505
-0.0156868
3.13336
-0.0264569
3.1287
-0.0349797
2.61422
-0.0415567
2.19147
-0.0467451
1.84243
-0.0505348
1.55316
-0.0510172
1.30148
-0.0436774
1.05357
-0.0243809
0.750956
-0.00515414
0.393784
0.105497
0.00243736
0.113387
0.0140878
0.403027
0.0269436
0.758598
0.0302444
1.06627
0.0263904
1.31913
0.0195593
1.57312
0.0114856
1.86413
0.00240948
2.21387
-0.00777398
2.63523
-0.0192537
3.14484
-0.0295259
3.13897
-0.0370052
2.6217
-0.042505
2.19697
-0.0467167
1.84664
-0.0497678
1.55621
-0.0493113
1.30102
-0.0410041
1.04526
-0.0220301
0.731982
-0.00491378
0.376668
0.100583
0.00171567
0.111671
0.0104193
0.394323
0.021306
0.747711
0.0242146
1.06336
0.0204653
1.32287
0.0137977
1.57979
0.00581314
1.87212
-0.00311422
2.2228
-0.0132298
2.64535
-0.0242317
3.15584
-0.0334167
3.14815
-0.0395799
2.62787
-0.0440621
2.20145
-0.0478187
1.8504
-0.0499362
1.55833
-0.0487975
1.29989
-0.039355
1.03582
-0.0204166
0.713044
-0.00477251
0.361024
0.0958105
0.000849429
0.110821
0.00703815
0.388135
0.0162592
0.73849
0.0186996
1.06092
0.014635
1.32694
0.00775907
1.58666
-0.000246678
1.88012
-0.0091419
2.23169
-0.0187088
2.65492
-0.0289829
3.16612
-0.0376864
3.15686
-0.0432442
2.63342
-0.0467829
2.20499
-0.0495041
1.85312
-0.0505013
1.55933
-0.0485258
1.29791
-0.0378642
1.02516
-0.0190852
0.694265
-0.0046299
0.346569
0.0911806
6.7415e-05
0.110754
0.00378599
0.384416
0.0104808
0.731795
0.0120685
1.05933
0.00801063
1.331
0.00108118
1.59359
-0.00732508
1.88853
-0.0165476
2.24091
-0.0266237
2.66499
-0.0367458
3.17624
-0.0441528
3.16427
-0.0483095
2.63758
-0.0509399
2.20762
-0.0525039
1.85469
-0.0522691
1.55909
-0.0487424
1.29438
-0.0370474
1.01346
-0.0182713
0.675489
-0.0045421
0.33284
0.0866385
-0.000771821
0.111526
0.000391072
0.383253
0.0051603
0.727026
0.00568416
1.05881
0.000836473
1.33584
-0.006706
1.60114
-0.0156196
1.89744
-0.0254312
2.25073
-0.0351181
2.67468
-0.0436455
3.18477
-0.0498081
3.17043
-0.0533545
2.64113
-0.0551017
2.20937
-0.0559048
1.85549
-0.055024
1.55821
-0.050151
1.28951
-0.0370298
1.00034
-0.0180554
0.656515
-0.00464022
0.319424
0.0819983
-0.00172007
0.113246
-0.0029497
0.384483
-0.00161294
0.725689
-0.00285146
1.06005
-0.0083142
1.34131
-0.0162279
1.60905
-0.025623
1.90684
-0.0357589
2.26086
-0.0460172
2.68494
-0.0549493
3.1937
-0.0602825
3.17576
-0.0623301
2.64318
-0.0624095
2.20945
-0.061198
1.85428
-0.0584115
1.55543
-0.0519671
1.28307
-0.037718
0.986092
-0.018357
0.637154
-0.00486856
0.305936
0.0771298
-0.00305577
0.116302
-0.00665984
0.388087
-0.00858253
0.727612
-0.0115036
1.06297
-0.0181092
1.34791
-0.0271494
1.61809
-0.037226
1.91691
-0.0479223
2.27156
-0.0580881
2.6951
-0.0660138
3.20162
-0.0696103
3.17936
-0.0700637
2.64363
-0.0689102
2.2083
-0.0672565
1.85262
-0.0635824
1.55175
-0.0552333
1.27472
-0.0390402
0.969899
-0.0189001
0.617013
-0.00511177
0.292147
0.072018
-0.00448983
0.120792
-0.0112752
0.394872
-0.0167231
0.73306
-0.0226105
1.06886
-0.030359
1.35566
-0.0403238
1.62805
-0.0514172
1.92801
-0.0627906
2.28293
-0.0737058
2.70602
-0.0824117
3.21033
-0.0859424
3.18289
-0.0848081
2.64249
-0.0811095
2.2046
-0.0760802
1.84759
-0.0696689
1.54534
-0.0592928
1.26434
-0.041209
0.951816
-0.0200078
0.595812
-0.00552451
0.277664
0.0664935
-0.00593886
0.12673
-0.0164604
0.405394
-0.0261588
0.742758
-0.0344325
1.07713
-0.0441478
1.36538
-0.0563388
1.64025
-0.0690752
1.94074
-0.0816944
2.29555
-0.0926061
2.71693
-0.0993335
3.21706
-0.0992793
3.18283
-0.0953786
2.63859
-0.0901855
2.1994
-0.0849778
1.84239
-0.0774612
1.53782
-0.0644279
1.25131
-0.043829
0.931217
-0.0213295
0.573313
-0.00593226
0.262267
0.0605612
-0.00844151
0.135172
-0.0240574
0.42101
-0.0395478
0.758248
-0.0516701
1.08925
-0.0628589
1.37657
-0.0760974
1.65348
-0.0903966
1.95504
-0.104352
2.30951
-0.115876
2.72845
-0.122398
3.22358
-0.121775
3.18221
-0.116465
2.63328
-0.108303
2.19124
-0.0984058
1.83249
-0.0870887
1.52651
-0.0711146
1.23533
-0.0479517
0.908054
-0.0236037
0.548965
-0.00657365
0.245237
0.0539876
-0.0108555
0.146027
-0.0311189
0.441273
-0.0519885
0.779118
-0.0683523
1.10562
-0.0830385
1.39125
-0.0995928
1.67004
-0.116165
1.97161
-0.131636
2.32498
-0.143477
2.7403
-0.148152
3.22825
-0.143498
3.17756
-0.13363
2.62342
-0.122791
2.1804
-0.112159
1.82186
-0.0994241
1.51377
-0.0801256
1.21604
-0.053484
0.881412
-0.0264321
0.521913
-0.00722676
0.226031
0.0467608
-0.0155169
0.161544
-0.0429862
0.468742
-0.0703343
0.806466
-0.0918971
1.12718
-0.110114
1.40947
-0.12943
1.68935
-0.148597
1.99078
-0.165716
2.3421
-0.177815
2.75239
-0.181394
3.23183
-0.17507
3.17123
-0.163681
2.61203
-0.150053
2.16678
-0.134145
1.80595
-0.115951
1.49558
-0.0921897
1.19227
-0.0613172
0.85054
-0.0303376
0.490933
-0.00810035
0.203794
0.0386605
-0.0196391
0.181183
-0.0558139
0.504917
-0.0924292
0.843081
-0.120702
1.15545
-0.144496
1.43326
-0.168757
1.71361
-0.190447
2.01247
-0.207962
2.35961
-0.218388
2.76282
-0.21809
3.23153
-0.2066
3.15974
-0.189673
2.5951
-0.171383
2.14849
-0.154196
1.78876
-0.134332
1.47571
-0.106314
1.16426
-0.0702126
0.814439
-0.0342162
0.454937
-0.00880399
0.178382
0.0298565
-0.0328166
0.214
-0.0818922
0.553993
-0.128174
0.889363
-0.163519
1.1908
-0.193449
1.46319
-0.221001
1.74117
-0.243905
2.03538
-0.260882
2.37659
-0.268804
2.77074
-0.263785
3.22652
-0.246776
3.14273
-0.226227
2.57455
-0.205619
2.12788
-0.183072
1.76622
-0.156383
1.44903
-0.122233
1.13011
-0.0799764
0.772182
-0.0383046
0.413265
-0.00934848
0.149426
0.020508
-0.0474498
0.26145
-0.12062
0.627163
-0.182275
0.951017
-0.22536
1.23388
-0.260749
1.49858
-0.289864
1.77028
-0.310967
2.05648
-0.32366
2.38928
-0.324961
2.77204
-0.312649
3.2142
-0.289246
3.11933
-0.262883
2.54819
-0.235865
2.10086
-0.209757
1.74011
-0.180581
1.41985
-0.140345
1.08987
-0.089626
0.721463
-0.040587
0.364226
-0.00922547
0.118064
0.0112825
-0.033766
0.295216
-0.096111
0.689508
-0.152883
1.00779
-0.199331
1.28033
-0.241817
1.54107
-0.278379
1.80684
-0.312147
2.09025
-0.341473
2.41861
-0.362307
2.79288
-0.368154
3.22005
-0.354214
3.10539
-0.329992
2.52396
-0.302807
2.07367
-0.269205
1.70651
-0.224564
1.37521
-0.165703
1.03101
-0.0969044
0.652664
-0.0386164
0.305938
-0.0084802
0.0879282
0.00280234
-0.0123658
0.307582
-0.0464897
0.723632
-0.0874955
1.0488
-0.126321
1.31916
-0.164327
1.57907
-0.197907
1.84042
-0.22856
2.1209
-0.253575
2.44362
-0.268165
2.80747
-0.266621
3.21851
-0.248921
3.08769
-0.221964
2.49701
-0.188632
2.04034
-0.153215
1.67109
-0.115213
1.33721
-0.0725209
0.988316
-0.0329717
0.613115
-0.00940003
0.282366
-0.00166128
0.0801894
0.00114106
0.00076624
0.306815
-0.023174
0.747572
-0.05234
1.07796
-0.0824412
1.34926
-0.113519
1.61015
-0.143741
1.87065
-0.171075
2.14823
-0.19292
2.46547
-0.205878
2.82043
-0.205502
3.21813
-0.185838
3.06803
-0.155789
2.46696
-0.123603
2.00816
-0.0881835
1.63567
-0.0496986
1.29872
-0.0138939
0.952511
0.0075292
0.591692
0.00912279
0.280773
0.00301014
0.0863021
0.0041512
0.00125275
0.305563
-0.0117844
0.760609
-0.033502
1.09968
-0.0584404
1.3742
-0.0841032
1.63581
-0.109137
1.89568
-0.132427
2.17152
-0.150952
2.48399
-0.160799
2.83027
-0.155195
3.21253
-0.135678
3.04851
-0.110434
2.44171
-0.0780694
1.97579
-0.0426299
1.60023
-0.0124465
1.26854
0.00979003
0.930275
0.0192518
0.58223
0.0145776
0.285447
0.00480965
0.09607
0.00896085
0.00436468
0.301198
-0.00423815
0.769212
-0.0223842
1.11782
-0.0434061
1.39522
-0.0653829
1.65779
-0.0871523
1.91745
-0.107572
2.19194
-0.124323
2.50074
-0.13421
2.84016
-0.132736
3.21105
-0.116984
3.03276
-0.0901635
2.41489
-0.0588806
1.94451
-0.0289503
1.5703
0.00109574
1.23849
0.0216387
0.909732
0.025451
0.578418
0.0167394
0.294159
0.00526931
0.10754
0.0142302
0.00536321
0.295835
-0.000502692
0.775078
-0.0166259
1.13395
-0.035381
1.41397
-0.0547397
1.67715
-0.0738795
1.93659
-0.0921891
2.21025
-0.107465
2.51602
-0.115691
2.84838
-0.112406
3.20777
-0.0965476
3.0169
-0.0744196
2.39277
-0.0484641
1.91855
-0.0186888
1.54052
0.00562079
1.21418
0.0212927
0.89406
0.0238851
0.575826
0.0150194
0.303024
0.00471761
0.117842
0.0189478
0.00400418
0.291831
-5.46408e-05
0.779137
-0.0133754
1.14727
-0.0303587
1.43096
-0.0480728
1.69486
-0.0658291
1.95435
-0.0828401
2.22726
-0.097198
2.53038
-0.106332
2.85752
-0.106338
3.20778
-0.0925973
3.00316
-0.0688179
2.36899
-0.0436951
1.89343
-0.020491
1.51732
0.00302139
1.19067
0.01712
0.879961
0.0185816
0.574364
0.0116308
0.309975
0.00355517
0.125918
0.0225029
0.00270431
0.289126
-0.000757877
0.782599
-0.0128823
1.15939
-0.0283305
1.44641
-0.044845
1.71138
-0.0613364
1.97084
-0.0774782
2.2434
-0.0918113
2.54471
-0.101474
2.86718
-0.100326
3.20663
-0.0871708
2.99
-0.070318
2.35213
-0.0480504
1.87116
-0.0220813
1.49135
-0.00303317
1.17162
0.00879258
0.868135
0.0120208
0.571136
0.00718318
0.314813
0.00225499
0.130846
0.0247579
0.000195801
0.28893
-0.00310035
0.785895
-0.0137701
1.17006
-0.0275144
1.46015
-0.0429938
1.72686
-0.058953
1.9868
-0.074987
2.25944
-0.0895466
2.55927
-0.0996362
2.87727
-0.10129
3.20828
-0.0921261
2.98084
-0.0727404
2.33275
-0.0503425
1.84876
-0.0307133
1.47172
-0.011924
1.15283
0.000357371
0.855854
0.00306317
0.56843
0.00230505
0.315571
0.000944011
0.132207
0.0257019
-0.000426217
0.289357
-0.00505114
0.79052
-0.014969
1.17998
-0.0278389
1.47302
-0.0426337
1.74165
-0.0580118
2.00217
-0.0737154
2.27514
-0.0884065
2.57396
-0.0995232
2.88839
-0.103451
3.21221
-0.0928874
2.97027
-0.0758398
2.3157
-0.0570861
1.83001
-0.0365951
1.45123
-0.0209699
1.13721
-0.0102097
0.845094
-0.00369708
0.561917
-0.00247753
0.314351
-0.000647096
0.130376
0.0250548
-0.00212425
0.291481
-0.00732616
0.795722
-0.0165996
1.18925
-0.0285227
1.48494
-0.0424787
1.75561
-0.0575051
2.0172
-0.0733413
2.29098
-0.0888781
2.5895
-0.101688
2.9012
-0.106499
3.21702
-0.0984991
2.96228
-0.0822333
2.29944
-0.0629249
1.8107
-0.0461216
1.43443
-0.0292052
1.12029
-0.0168123
0.832701
-0.0100014
0.555107
-0.00461304
0.308963
-0.00122312
0.126986
0.0238317
-0.00358049
0.295061
-0.00882869
0.80097
-0.0178399
1.19827
-0.0293975
1.4965
-0.0428558
1.76907
-0.0574962
2.03184
-0.0733782
2.30686
-0.0892997
2.60542
-0.102555
2.91445
-0.109225
3.22369
-0.104441
2.95749
-0.0895442
2.28454
-0.0719488
1.79311
-0.0521394
1.41462
-0.0368343
1.10499
-0.0242792
0.820146
-0.0142395
0.545067
-0.00737398
0.302097
-0.00202821
0.121641
0.0218035
-0.00424184
0.299303
-0.0102597
0.806988
-0.0191298
1.20714
-0.0301261
1.5075
-0.0430137
1.78195
-0.057421
2.04625
-0.0734223
2.32286
-0.0900011
2.622
-0.105399
2.92985
-0.115365
3.23366
-0.111637
2.95376
-0.0985039
2.2714
-0.0778193
1.77242
-0.0598277
1.39663
-0.0424849
1.08764
-0.0287045
0.806365
-0.0183492
0.534712
-0.00821731
0.291966
-0.00219854
0.115622
0.019605
-0.00436336
0.303667
-0.0108999
0.813525
-0.0198331
1.21607
-0.0306471
1.51831
-0.0432388
1.79455
-0.0573406
2.06035
-0.0733367
2.33886
-0.0904101
2.63907
-0.106501
2.94594
-0.117435
3.24459
-0.117543
2.95387
-0.105644
2.25951
-0.0880358
1.75481
-0.0658805
1.37447
-0.0481427
1.06991
-0.0330047
0.791227
-0.0193366
0.521043
-0.00902217
0.281651
-0.00216828
0.108768
0.0174367
-0.00444659
0.308113
-0.0115359
0.820614
-0.0204046
1.22494
-0.0308377
1.52874
-0.0430225
1.80673
-0.0569173
2.07425
-0.0729653
2.35491
-0.0905801
2.65669
-0.108478
2.96384
-0.123155
3.25927
-0.12575
2.95647
-0.114599
2.24835
-0.0937043
1.73392
-0.0728555
1.35362
-0.0509996
1.04805
-0.033756
0.773984
-0.020494
0.507781
-0.00831423
0.269471
-0.00177946
0.102233
0.0156572
-0.00450164
0.312615
-0.011702
0.827814
-0.0204549
1.23369
-0.0307329
1.53902
-0.0426947
1.81869
-0.0563431
2.08789
-0.0723687
2.37093
-0.0903794
2.6747
-0.108918
2.98238
-0.124359
3.27471
-0.129736
2.96184
-0.121416
2.24003
-0.105219
1.71772
-0.0791793
1.32758
-0.0543753
1.02325
-0.0325322
0.752141
-0.0155909
0.49084
-0.00591428
0.259795
-0.000770959
0.0970899
0.0148863
-0.00458624
0.317201
-0.0119053
0.835133
-0.0204341
1.24222
-0.030341
1.54893
-0.041935
1.83029
-0.05539
2.10135
-0.0713974
2.38694
-0.0896733
2.69297
-0.109474
3.00218
-0.128392
3.29363
-0.137548
2.971
-0.131687
2.23417
-0.111585
1.69762
-0.0864372
1.30244
-0.0551402
0.99195
-0.028051
0.725051
-0.00905152
0.471841
-0.000473091
0.251216
-0.00192971
0.0985465
0.0129566
-0.00456612
0.321767
-0.0117498
0.842317
-0.0200381
1.25051
-0.029723
1.55861
-0.0410701
1.84163
-0.0542582
2.11454
-0.0701083
2.40279
-0.088568
2.71143
-0.108928
3.02254
-0.128475
3.31318
-0.139634
2.98216
-0.137629
2.23217
-0.124187
1.68418
-0.0947084
1.27296
-0.0582875
0.955529
-0.0185885
0.685352
0.0168232
0.436429
0.0322141
0.235825
0.0241249
0.106636
0.0370815
-0.004481
0.326248
-0.011607
0.849443
-0.0196347
1.25854
-0.0289153
1.56789
-0.039843
1.85256
-0.0527562
2.12745
-0.0684554
2.41849
-0.0870077
2.72999
-0.108185
3.04371
-0.130273
3.33526
-0.145069
2.99695
-0.147831
2.23493
-0.132094
1.66844
-0.104762
1.24563
-0.0603524
0.911119
-0.013024
0.638024
0.0344294
0.388976
0.0433652
0.22689
0.0189357
0.131065
0.0560172
-0.00429322
0.330541
-0.0111958
0.856346
-0.0189376
1.26628
-0.0279253
1.57688
-0.0385802
1.86322
-0.0511701
2.14004
-0.0666212
2.43394
-0.0851804
2.74854
-0.106616
3.06515
-0.129368
3.35802
-0.146419
3.014
-0.15202
2.24053
-0.146082
1.66251
-0.1187
1.21824
-0.0737476
0.866166
1.11204e-05
0.564265
0.100787
0.2882
0.184815
0.142862
0.179759
0.13612
0.235777
-0.00416263
0.334704
-0.0110299
0.863213
-0.0187208
1.27397
-0.0276381
1.5858
-0.0383903
1.87397
-0.0514236
2.15307
-0.0677759
2.45029
-0.0878539
2.76862
-0.112029
3.08933
-0.139913
3.3859
-0.163141
3.03723
-0.175773
2.25316
-0.170222
1.65695
-0.147848
1.19587
-0.0985899
0.816908
-0.0457726
0.511448
-0.0845766
0.327004
-0.359837
0.418122
-0.93771
0.713993
0.89844
-1.60037
-0.00397103
0.338675
-0.0106076
0.869849
-0.0180907
1.28145
-0.0269025
1.59461
-0.0376137
1.88468
-0.0507432
2.1662
-0.0674507
2.467
-0.0883905
2.78956
-0.114203
3.11514
-0.144828
3.41653
-0.172962
3.06537
-0.190391
2.27059
-0.20341
1.66997
-0.19477
1.18723
-0.175813
0.797951
-0.261683
0.597319
-0.692432
0.757752
-1.43294
1.15863
-2.04276
1.32382
1.21779
-2.36212
-0.00376985
0.342445
-0.0101992
0.876279
-0.0174695
1.28872
-0.0260396
1.60318
-0.0365591
1.8952
-0.0497544
2.1794
-0.0668191
2.48406
-0.0885832
2.81133
-0.116343
3.1429
-0.15124
3.45142
-0.185668
3.09979
-0.214149
2.29907
-0.228628
1.68445
-0.226555
1.18516
-0.313686
0.885082
-0.752642
1.03627
-1.5332
1.53831
-2.10445
1.72987
-2.3452
1.56457
1.33266
-2.46006
-0.00356854
0.346013
-0.009628
0.882338
-0.0166015
1.29569
-0.0250009
1.61158
-0.0354157
1.90561
-0.0486339
2.19262
-0.0659417
2.50137
-0.0884645
2.83385
-0.117763
3.1722
-0.15556
3.48922
-0.196034
3.14027
-0.229061
2.3321
-0.263499
1.71889
-0.34964
1.2713
-0.69215
1.22759
-1.42994
1.77407
-2.02253
2.1309
-2.26338
1.97072
-2.37728
1.67846
1.39766
-2.44228
-0.00330877
0.349322
-0.00903655
0.888066
-0.0157165
1.30237
-0.0238115
1.61968
-0.0340326
1.91583
-0.0472249
2.20581
-0.0647576
2.5189
-0.0879493
2.85704
-0.118986
3.20323
-0.161078
3.53131
-0.208548
3.18774
-0.255988
2.37954
-0.303493
1.7664
-0.483417
1.45122
-1.08916
1.83333
-1.78114
2.46606
-2.10548
2.45524
-2.25492
2.12016
-2.33743
1.76097
1.46344
-2.40321
-0.00323222
0.352554
-0.00882094
0.893655
-0.0154465
1.309
-0.0236278
1.62786
-0.034148
1.92635
-0.047633
2.21929
-0.0656478
2.53692
-0.0897564
2.88115
-0.122369
3.23584
-0.167418
3.57636
-0.221528
3.24185
-0.271932
2.42994
-0.365152
1.85962
-0.751207
1.83728
-1.4847
2.56682
-1.96155
2.94291
-2.16213
2.65582
-2.26877
2.22681
-2.34586
1.83806
1.52732
-2.40975
-0.00332771
0.355882
-0.00921417
0.899541
-0.0162316
1.31602
-0.0247894
1.63641
-0.035739
1.9373
-0.0498577
2.23341
-0.0687535
2.55582
-0.09407
2.90647
-0.128743
3.27052
-0.178335
3.62595
-0.236624
3.30014
-0.302365
2.49569
-0.492883
2.05013
-1.0437
2.38809
-1.67331
3.19643
-1.95222
3.22181
-2.09987
2.80348
-2.21413
2.34107
-2.30779
1.93172
1.58933
-2.3698
-0.00336663
0.359249
-0.00950583
0.90568
-0.0168906
1.3234
-0.0259833
1.64551
-0.0375365
1.94886
-0.0523389
2.24821
-0.0720968
2.57557
-0.0986804
2.93305
-0.135117
3.30695
-0.187338
3.67817
-0.251886
3.36468
-0.342253
2.58605
-0.622608
2.33049
-1.25923
3.02471
-1.75099
3.6882
-1.95891
3.42973
-2.09993
2.9445
-2.2242
2.46534
-2.33547
2.04299
1.64816
-2.3943
-0.00335486
0.362604
-0.00982993
0.912156
-0.0177342
1.33131
-0.0272876
1.65506
-0.0392959
1.96087
-0.0547781
2.2637
-0.0754754
2.59627
-0.103296
2.96087
-0.14171
3.34537
-0.197549
3.73401
-0.266304
3.43344
-0.391261
2.71101
-0.773394
2.71262
-1.40513
3.65645
-1.76193
4.045
-1.93596
3.60375
-2.03883
3.04737
-2.12832
2.55484
-2.19657
2.11123
1.64131
-2.18972
-0.00326911
0.365873
-0.00994937
0.918836
-0.0182456
1.3396
-0.0284208
1.66524
-0.0411621
1.97361
-0.0573958
2.27993
-0.0789769
2.61785
-0.108072
2.98997
-0.148158
3.38545
-0.205262
3.79112
-0.28552
3.5137
-0.45682
2.88231
-0.904738
3.16054
-1.45937
4.21108
-1.72298
4.30862
-1.87659
3.75736
-1.97073
3.1415
-1.97341
2.55752
-1.90626
2.04408
1.60916
-1.87411
-0.00304486
0.368918
-0.0100501
0.925841
-0.0188878
1.34844
-0.0294607
1.67581
-0.0425129
1.98666
-0.0591569
2.29657
-0.0811915
2.63989
-0.110629
3.0194
-0.151167
3.42599
-0.207996
3.84795
-0.294254
3.59995
-0.497574
3.08563
-0.981929
3.64489
-1.42571
4.65486
-1.59391
4.47682
-1.66238
3.82583
-1.66782
3.14694
-1.52128
2.41098
-1.02191
1.54471
0.587254
-0.00262853
0.371546
-0.00977701
0.932989
-0.0189881
1.35765
-0.0303561
1.68718
-0.0445792
2.00088
-0.06258
2.31457
-0.0864057
2.66371
-0.118498
3.0515
-0.162811
3.4703
-0.225677
3.91081
-0.33008
3.70436
-0.583945
3.33949
-1.1183
4.17925
-1.47976
5.01631
-1.58026
4.57732
-1.57875
3.82433
-1.47676
3.04495
-1.23793
2.17215
-0.636833
0.943607
-0.049579
-0.00211373
0.37366
-0.00933918
0.940215
-0.0191448
1.36746
-0.031147
1.69918
-0.04609
2.01583
-0.065321
2.33381
-0.0910273
2.68942
-0.125722
3.08619
-0.174424
3.51901
-0.243709
3.9801
-0.365697
3.82635
-0.676556
3.65035
-1.23304
4.73574
-1.4987
5.28197
-1.55904
4.63766
-1.53874
3.80403
-1.33717
2.84338
-0.788848
1.62383
-0.111512
0.266271
-0.161091
-0.00152538
0.375185
-0.00835993
0.947049
-0.0182502
1.37735
-0.0310047
1.71193
-0.0471106
2.03193
-0.0676903
2.35439
-0.0951736
2.7169
-0.132609
3.12363
-0.184626
3.57102
-0.262017
4.05749
-0.410643
3.97497
-0.779255
4.01896
-1.31387
5.27035
-1.4933
5.4614
-1.52434
4.6687
-1.43791
3.7176
-1.10747
2.51295
-0.318687
0.835043
0.0267241
-0.0791409
-0.134367
-0.000604166
0.375789
-0.00678747
0.953233
-0.0171591
1.38772
-0.0305006
1.72527
-0.0470895
2.04852
-0.0687459
2.37604
-0.0979893
2.74614
-0.137692
3.16333
-0.192718
3.62605
-0.278394
4.14316
-0.450823
4.1474
-0.881355
4.4495
-1.35531
5.7443
-1.47463
5.58073
-1.47916
4.67323
-1.26134
3.49978
-0.696765
1.94837
-0.0643521
0.20263
0.0315922
-0.175085
-0.102775
0.000795604
0.374994
-0.00411147
0.95814
-0.0142794
1.39789
-0.028283
1.73928
-0.0458081
2.06605
-0.0686894
2.39892
-0.099424
2.77688
-0.141317
3.20522
-0.198995
3.68373
-0.293847
4.23801
-0.495198
4.34875
-0.974753
4.92905
-1.35376
6.12331
-1.41976
5.64673
-1.37731
4.63078
-1.0884
3.21087
-0.332788
1.19276
0.00107662
-0.131234
0.0135474
-0.187556
-0.0892272
0.00307506
0.371919
0.000120455
0.961094
-0.010784
1.40879
-0.0251866
1.75368
-0.0426422
2.0835
-0.0662911
2.42257
-0.0982546
2.80884
-0.141677
3.24864
-0.202122
3.74417
-0.304597
4.34049
-0.526627
4.57078
-1.03125
5.43368
-1.31202
6.40407
-1.354
5.68871
-1.22233
4.49911
-0.787534
2.77608
-0.0790749
0.484297
0.0472962
-0.257605
0.0263951
-0.166655
-0.0628321
0.00518711
0.366732
0.00379708
0.962484
-0.00525807
1.41785
-0.0190413
1.76746
-0.0370417
2.1015
-0.0615239
2.44705
-0.0942827
2.8416
-0.138953
3.29331
-0.20125
3.80647
-0.310932
4.45017
-0.564105
4.82396
-1.05341
5.92298
-1.24804
6.59871
-1.262
5.70266
-1.04934
4.28645
-0.470367
2.19711
-0.00744175
0.0213711
0.00454155
-0.269589
0.0121561
-0.174269
-0.050676
0.00833297
0.358399
0.00956568
0.961252
0.00218532
1.42523
-0.0109155
1.78057
-0.0285344
2.11912
-0.0529182
2.47144
-0.0857226
2.87441
-0.130351
3.33794
-0.194058
3.87018
-0.30973
4.56584
-0.57792
5.09215
-1.02555
6.37061
-1.1514
6.72457
-1.14073
5.69199
-0.89129
4.037
-0.275224
1.58104
-0.0636229
-0.19023
-0.0362082
-0.297003
-0.0109528
-0.199525
-0.0616289
0.012101
0.346298
0.0175534
0.955799
0.0131987
1.42958
0.0024482
1.79132
-0.0159871
2.13756
-0.0398518
2.4953
-0.0719141
2.90647
-0.116018
3.38205
-0.17925
3.93341
-0.296775
4.68337
-0.574506
5.36988
-0.959475
6.75558
-1.03128
6.79637
-0.969537
5.63025
-0.701775
3.76924
-0.114257
0.993526
-0.0419285
-0.262558
-0.0324039
-0.306528
-0.012229
-0.2197
-0.0738578
0.0178916
0.328406
0.028989
0.944702
0.0272795
1.43129
0.0171596
1.80144
0.00077729
2.15394
-0.020483
2.51656
-0.0505375
2.93652
-0.0924062
3.42391
-0.153334
3.99434
-0.270189
4.80022
-0.52793
5.62762
-0.838694
7.06634
-0.877702
6.83538
-0.785396
5.53794
-0.467693
3.45154
0.0141866
0.511646
0.0353031
-0.283675
0.0206489
-0.291874
0.00539677
-0.204448
-0.068461
0.0244892
0.303917
0.0431728
0.926018
0.0469809
1.42748
0.04016
1.80826
0.0274535
2.16664
0.00746361
2.53655
-0.0203784
2.96436
-0.058546
3.46208
-0.114892
4.05068
-0.222215
4.90755
-0.44708
5.85248
-0.674104
7.29336
-0.718535
6.87981
-0.609282
5.42869
-0.277928
3.12019
0.0285254
0.205193
0.0353086
-0.290458
0.0402562
-0.296821
0.0217001
-0.185891
-0.046761
0.0336982
0.270219
0.0625202
0.897196
0.0725425
1.41746
0.0698132
1.81099
0.0607719
2.17569
0.0443362
2.55299
0.0210304
2.98767
-0.0122753
3.49539
-0.0607272
4.09914
-0.149633
4.99645
-0.318001
6.02085
-0.464203
7.43957
-0.511526
6.92713
-0.43809
5.35525
-0.134566
2.81666
-0.00994382
0.0805711
-0.00745993
-0.292942
0.0234363
-0.327717
0.0398147
-0.20227
-0.00694628
0.0433275
0.226891
0.0853663
0.855157
0.105602
1.39723
0.110003
1.80658
0.105898
2.17979
0.0938261
2.56506
0.0767966
3.0047
0.052001
3.52018
0.0109295
4.14021
-0.0439851
5.05137
-0.152798
6.12967
-0.232151
7.51892
-0.259481
6.95446
-0.299354
5.39513
-0.214275
2.73158
-0.380384
0.24668
-0.357795
-0.315531
-0.208796
-0.476716
-0.0337978
-0.377268
-0.0407441
0.0546016
0.17229
0.114311
0.795448
0.148242
1.36329
0.160032
1.79479
0.161848
2.17798
0.155617
2.57129
0.14642
3.0139
0.132297
3.53431
0.113226
4.15928
0.0862222
5.07837
0.0813714
6.13452
0.0709742
7.52932
-0.00386443
7.0293
-0.171346
5.56261
-0.417161
2.9774
-0.750976
0.580496
-0.736138
-0.33037
-0.539299
-0.673555
-0.245176
-0.671391
-0.28592
0.0582569
0.114033
0.143791
0.709914
0.197623
1.30946
0.22347
1.76895
0.234994
2.16645
0.236381
2.56991
0.235952
3.01433
0.234477
3.53578
0.236056
4.1577
0.246131
5.0683
0.349655
6.03099
0.468067
7.4109
0.462597
7.03477
0.383933
5.64127
0.00795717
3.35337
-0.486925
1.07538
-0.739716
-0.0775795
-0.652442
-0.760829
-0.358268
-0.965565
-0.644188
0.0510046
0.0630281
0.173195
0.587724
0.259555
1.2231
0.300663
1.72784
0.321468
2.14565
0.332603
2.55877
0.341749
3.00518
0.356513
3.52102
0.386172
4.12804
0.445019
5.00945
0.688626
5.78739
1.05985
7.03968
1.38269
6.71193
1.62414
5.39982
1.31629
3.66122
0.682003
1.70967
0.160071
0.444353
-0.122468
-0.478289
-0.182286
-0.905748
-0.826473
0.0366905
0.0263376
0.203858
0.420556
0.321574
1.10539
0.392489
1.65692
0.43019
2.10795
0.454103
2.53486
0.470943
2.98834
0.498413
3.49355
0.552872
4.07358
0.67543
4.88689
1.0449
5.41792
1.70876
6.37582
2.10271
6.31798
2.35524
5.14729
2.22304
3.79341
1.68868
2.24404
1.18892
0.944113
0.634576
0.0760496
0.221862
-0.493034
-0.604611
0.0312064
-0.00486877
0.224965
0.226798
0.405557
0.924795
0.503162
1.55932
0.553232
2.05788
0.590079
2.49801
0.617736
2.96068
0.658573
3.45271
0.737337
3.99482
0.894835
4.72939
1.30848
5.00428
2.08175
5.60255
2.48211
5.91762
2.68899
4.94041
2.63611
3.84629
2.16142
2.71874
1.5555
1.55003
0.963561
0.667986
0.428368
0.0421591
-0.176243
0.0281871
-0.0330558
0.182381
0.0726034
0.457403
0.649773
0.624465
1.39226
0.702785
1.97956
0.749014
2.45178
0.786958
2.92274
0.825722
3.41394
0.896504
3.92404
1.03853
4.58737
1.32396
4.71885
2.02949
4.89702
2.39125
5.55586
2.52386
4.8078
2.45834
3.91181
2.14276
3.03431
1.59251
2.10028
1.01193
1.24857
0.415379
0.638705
0.239136
0.0125743
-0.0456302
0.098286
-0.0131083
0.40377
0.344289
0.622294
1.17373
0.726695
1.87516
0.758482
2.41999
0.769068
2.91215
0.759616
3.4234
0.753764
3.92989
0.785066
4.55606
0.859669
4.64425
1.1515
4.60519
1.38978
5.31758
1.39123
4.80635
1.31518
3.98786
1.15147
3.19802
0.861468
2.39029
0.53741
1.57263
0.224274
0.95184
0.463411
-1.36983e-05
-0.0456165
0.0429767
-0.0560986
0.246636
0.14063
0.464721
0.955647
0.569457
1.77042
0.606208
2.38324
0.623222
2.89514
0.62016
3.42646
0.609095
3.94095
0.608561
4.5566
0.641216
4.61159
0.813891
4.43251
1.02716
5.10432
1.02892
4.80458
0.957742
4.05904
0.831444
3.32432
0.63148
2.59025
0.383029
1.82108
0.150055
1.18481
0.613465
0.018007
-0.0636235
0.0614151
-0.0995067
0.154768
0.0472764
0.324466
0.785949
0.420702
1.67418
0.459307
2.34464
0.474741
2.87971
0.479875
3.42132
0.476345
3.94448
0.472014
4.56093
0.477886
4.60572
0.58119
4.32921
0.729295
4.95621
0.72829
4.80558
0.657396
4.12994
0.554651
3.42707
0.414437
2.73046
0.243232
1.99228
0.0848664
1.34318
0.698332
0.0357082
-0.0993317
0.0801044
-0.143903
0.102083
0.0252976
0.183351
0.704681
0.257497
1.60004
0.303018
2.29912
0.327073
2.85565
0.344906
3.40349
0.355602
3.93379
0.356548
4.55998
0.350173
4.6121
0.401903
4.27748
0.499352
4.85876
0.496
4.80894
0.433614
4.19232
0.353348
3.50733
0.253454
2.83036
0.135016
2.11072
0.0311404
1.44706
0.729472
0.0339211
-0.133253
0.0594663
-0.169448
0.0244004
0.0603636
0.0319714
0.69711
0.0832777
1.54873
0.134839
2.24756
0.177486
2.813
0.2121
3.36888
0.24037
3.90552