/*--------------------------------*- C++ -*----------------------------------*\
| =========                 |                                                 |
| \\      /  F ield         | OpenFOAM: The Open Source CFD Toolbox           |
|  \\    /   O peration     | Version:  4.0                                   |
|   \\  /    A nd           | Web:      www.OpenFOAM.org                      |
|    \\/     M anipulation  |                                                 |
\*---------------------------------------------------------------------------*/
FoamFile
{
    version     2.0;
    format      ascii;
    class       volVectorField;
    location    "43";
    object      U;
}
// * * * * * * * * * * * * * * * * * * * * * * * * * * * * * * * * * * * * * //

dimensions      [0 1 -1 0 0 0 0];

internalField   nonuniform List<vector> 
2200
(
(0.878857 -0.0304135 0)
(1.0058 -0.0512809 0)
(1.00331 -0.0353909 0)
(1.00029 -0.0244291 0)
(0.999872 -0.0166537 0)
(1.00004 -0.010735 0)
(1.00006 -0.00687194 0)
(1.00005 -0.00424544 0)
(1.00004 -0.00227749 0)
(1.00017 -0.00071492 0)
(1.00005 0.000892614 0)
(1.00003 0.00250662 0)
(1.00005 0.00450598 0)
(1.00011 0.00710524 0)
(1.0001 0.0108451 0)
(0.999909 0.0166755 0)
(1.00027 0.0244106 0)
(1.0035 0.0349984 0)
(1.00595 0.0513611 0)
(0.879005 0.0303288 0)
(0.711985 -0.0327697 0)
(0.996633 -0.0630333 0)
(1.0333 -0.0561921 0)
(1.02488 -0.0464772 0)
(1.01586 -0.0361704 0)
(1.0096 -0.0264321 0)
(1.00586 -0.0181795 0)
(1.00371 -0.0114488 0)
(1.00252 -0.00606831 0)
(1.00197 -0.00152616 0)
(1.00198 0.00268457 0)
(1.00253 0.00714316 0)
(1.00366 0.0123431 0)
(1.00561 0.0189152 0)
(1.00932 0.0271581 0)
(1.01562 0.0368865 0)
(1.0247 0.0472962 0)
(1.03308 0.0576373 0)
(0.996653 0.0631577 0)
(0.711778 0.0329897 0)
(0.535475 -0.0238986 0)
(0.969862 -0.0569497 0)
(1.0564 -0.0547627 0)
(1.05222 -0.0487846 0)
(1.03624 -0.0404756 0)
(1.02444 -0.032286 0)
(1.01585 -0.0240513 0)
(1.01039 -0.0162071 0)
(1.00723 -0.00898637 0)
(1.00574 -0.00241915 0)
(1.00566 0.00389842 0)
(1.00706 0.0103517 0)
(1.0101 0.0173931 0)
(1.01564 0.0251046 0)
(1.0242 0.0332776 0)
(1.03603 0.0412513 0)
(1.05205 0.0493399 0)
(1.05633 0.0536491 0)
(0.969222 0.0575611 0)
(0.534431 0.023933 0)
(0.392204 -0.0136532 0)
(0.911725 -0.046416 0)
(1.0574 -0.0469274 0)
(1.06952 -0.0443787 0)
(1.05488 -0.0382558 0)
(1.03936 -0.0316164 0)
(1.02754 -0.0247706 0)
(1.01905 -0.0175385 0)
(1.01367 -0.010051 0)
(1.01101 -0.00249361 0)
(1.0109 0.0050982 0)
(1.01336 0.0124855 0)
(1.01859 0.0196967 0)
(1.02695 0.0266481 0)
(1.03856 0.032953 0)
(1.05406 0.039419 0)
(1.06844 0.0454762 0)
(1.05572 0.0481031 0)
(0.910119 0.0469163 0)
(0.390166 0.0137517 0)
(0.307484 -0.00452785 0)
(0.846471 -0.0324335 0)
(1.04921 -0.0400384 0)
(1.07928 -0.0383055 0)
(1.06803 -0.0336673 0)
(1.05159 -0.028116 0)
(1.03827 -0.0227694 0)
(1.02804 -0.0167058 0)
(1.02099 -0.00983125 0)
(1.01715 -0.00230768 0)
(1.0169 0.00553911 0)
(1.02035 0.0128652 0)
(1.0272 0.0194735 0)
(1.0372 0.0251409 0)
(1.05042 0.0302617 0)
(1.06681 0.035541 0)
(1.07782 0.0399188 0)
(1.04729 0.0415399 0)
(0.843191 0.03292 0)
(0.304137 0.00470774 0)
(0.263986 9.26089e-05 0)
(0.788668 -0.0201113 0)
(1.03322 -0.0315379 0)
(1.08345 -0.0321124 0)
(1.0772 -0.0288527 0)
(1.06071 -0.0239944 0)
(1.04718 -0.0195478 0)
(1.03629 -0.014502 0)
(1.02844 -0.0084562 0)
(1.02403 -0.00146189 0)
(1.02378 0.00590375 0)
(1.02767 0.0125857 0)
(1.03497 0.0181885 0)
(1.04553 0.0228204 0)
(1.05869 0.0266933 0)
(1.07494 0.0311236 0)
(1.0806 0.0339019 0)
(1.02964 0.0330658 0)
(0.783368 0.0206605 0)
(0.259394 9.10204e-05 0)
(0.23997 0.00106209 0)
(0.737884 -0.0123105 0)
(1.01338 -0.0250783 0)
(1.08381 -0.0269145 0)
(1.08278 -0.0246457 0)
(1.06765 -0.0204776 0)
(1.05414 -0.0165226 0)
(1.04335 -0.012096 0)
(1.03526 -0.0068306 0)
(1.03038 -0.000579755 0)
(1.02983 0.00605958 0)
(1.03385 0.0120394 0)
(1.0414 0.0167678 0)
(1.05171 0.0206341 0)
(1.06506 0.0240914 0)
(1.07987 0.0277039 0)
(1.0804 0.0294041 0)
(1.00818 0.026976 0)
(0.729892 0.0130493 0)
(0.23388 -0.000864296 0)
(0.225566 0.000949847 0)
(0.69483 -0.00809334 0)
(0.992519 -0.0208494 0)
(1.08189 -0.0232308 0)
(1.08669 -0.0214521 0)
(1.07316 -0.0179466 0)
(1.05961 -0.0141511 0)
(1.04904 -0.00992997 0)
(1.04113 -0.0050202 0)
(1.03635 0.000599805 0)
(1.03589 0.00649229 0)
(1.03956 0.0115978 0)
(1.04649 0.0158787 0)
(1.05637 0.0194263 0)
(1.06958 0.0225346 0)
(1.08234 0.0253084 0)
(1.07623 0.026357 0)
(0.984255 0.0231391 0)
(0.68337 0.0090145 0)
(0.217707 -0.000733077 0)
(0.215855 0.000605037 0)
(0.659214 -0.00574501 0)
(0.972113 -0.0178463 0)
(1.07913 -0.0205732 0)
(1.08978 -0.0190478 0)
(1.07789 -0.0159716 0)
(1.0645 -0.0124061 0)
(1.05404 -0.00827799 0)
(1.04622 -0.00355583 0)
(1.0412 0.00166222 0)
(1.04016 0.00699777 0)
(1.04358 0.0117592 0)
(1.05046 0.0156492 0)
(1.06017 0.0188675 0)
(1.07304 0.0216476 0)
(1.0842 0.0239052 0)
(1.07197 0.024471 0)
(0.960821 0.0205942 0)
(0.643838 0.00689371 0)
(0.205856 -0.000367838 0)
(0.208493 0.000280705 0)
(0.630187 -0.00426787 0)
(0.952277 -0.0151376 0)
(1.07558 -0.0181623 0)
(1.09292 -0.0169808 0)
(1.08245 -0.0141964 0)
(1.06897 -0.0106809 0)
(1.05854 -0.00662925 0)
(1.05082 -0.00199867 0)
(1.04604 0.00305202 0)
(1.04513 0.00796492 0)
(1.04807 0.0123663 0)
(1.05402 0.0159607 0)
(1.06329 0.0189695 0)
(1.07609 0.0213716 0)
(1.08496 0.0230524 0)
(1.06482 0.023073 0)
(0.936342 0.018559 0)
(0.609683 0.00569579 0)
(0.195818 3.45971e-06 0)
(0.202678 8.9728e-05 0)
(0.607158 -0.00316099 0)
(0.935053 -0.0125915 0)
(1.07248 -0.015724 0)
(1.09569 -0.0146898 0)
(1.08676 -0.0121578 0)
(1.07343 -0.00886704 0)
(1.06285 -0.00503725 0)
(1.05491 -0.000524254 0)
(1.04964 0.00437065 0)
(1.04798 0.00907777 0)
(1.0506 0.0132135 0)
(1.05696 0.0165457 0)
(1.06616 0.0190669 0)
(1.07844 0.0211663 0)
(1.0857 0.02246 0)
(1.059 0.0219922 0)
(0.913879 0.0168237 0)
(0.580652 0.00493006 0)
(0.186751 0.000268827 0)
(0.19791 5.20562e-06 0)
(0.588279 -0.00232542 0)
(0.918275 -0.0104433 0)
(1.06883 -0.0137196 0)
(1.09893 -0.0127518 0)
(1.09138 -0.0100766 0)
(1.07777 -0.00668974 0)
(1.06685 -0.0029289 0)
(1.05854 0.00125189 0)
(1.05301 0.00593173 0)
(1.05133 0.0105649 0)
(1.05365 0.0143907 0)
(1.05907 0.017159 0)
(1.06825 0.0193484 0)
(1.0806 0.0210128 0)
(1.08559 0.0219757 0)
(1.04979 0.0210398 0)
(0.889889 0.0153209 0)
(0.5543 0.00445545 0)
(0.178007 0.000431896 0)
(0.19439 4.83386e-06 0)
(0.573865 -0.00154484 0)
(0.904634 -0.00804017 0)
(1.06635 -0.0111255 0)
(1.10221 -0.0101314 0)
(1.09602 -0.00760895 0)
(1.08233 -0.00416601 0)
(1.07101 -0.000579862 0)
(1.06224 0.00363199 0)
(1.05614 0.00818827 0)
(1.0537 0.0125697 0)
(1.05574 0.0157792 0)
(1.06181 0.0180777 0)
(1.07083 0.0198148 0)
(1.08267 0.0214281 0)
(1.08511 0.0219299 0)
(1.04265 0.0204904 0)
(0.868538 0.0142638 0)
(0.531459 0.00418211 0)
(0.169812 0.00052664 0)
(0.192194 3.7839e-05 0)
(0.563445 -0.000752029 0)
(0.892412 -0.00593169 0)
(1.06343 -0.00875311 0)
(1.10579 -0.00770018 0)
(1.10122 -0.00493495 0)
(1.08732 -0.0015722 0)
(1.07552 0.00210885 0)
(1.06634 0.00606905 0)
(1.05987 0.01036 0)
(1.05688 0.0144703 0)
(1.05806 0.017595 0)
(1.06306 0.0195363 0)
(1.07238 0.0208174 0)
(1.08378 0.0218238 0)
(1.08382 0.0220549 0)
(1.03101 0.0200638 0)
(0.84444 0.0133082 0)
(0.509255 0.00398416 0)
(0.161553 0.000569268 0)
(0.191387 8.68609e-05 0)
(0.555991 -0.000133553 0)
(0.882707 -0.00359387 0)
(1.06171 -0.00593035 0)
(1.10926 -0.00473906 0)
(1.10606 -0.00212766 0)
(1.09224 0.00149382 0)
(1.08001 0.00512719 0)
(1.0701 0.00936233 0)
(1.06279 0.0138139 0)
(1.05926 0.0176874 0)
(1.06021 0.0200839 0)
(1.0655 0.0215067 0)
(1.07442 0.0223998 0)
(1.08429 0.0228388 0)
(1.08186 0.0224322 0)
(1.02164 0.0198987 0)
(0.823667 0.0126702 0)
(0.489946 0.00390042 0)
(0.153893 0.000582151 0)
(0.192011 -7.55369e-06 0)
(0.552464 0.000895147 0)
(0.876019 -0.00150722 0)
(1.06024 -0.00329654 0)
(1.11288 -0.00176802 0)
(1.11124 0.00128172 0)
(1.09741 0.00486093 0)
(1.08487 0.00897071 0)
(1.07457 0.0132106 0)
(1.06647 0.017187 0)
(1.06165 0.0202172 0)
(1.06145 0.0224032 0)
(1.06575 0.0234908 0)
(1.07443 0.0239518 0)
(1.08359 0.0241646 0)
(1.07761 0.0234601 0)
(1.00718 0.0201012 0)
(0.799004 0.0123981 0)
(0.469437 0.00397514 0)
(0.145697 0.000621092 0)
(0.194112 0.000258691 0)
(0.553013 0.0015272 0)
(0.871864 0.000971196 0)
(1.0611 0.000242621 0)
(1.11751 0.00218247 0)
(1.11667 0.00514377 0)
(1.10291 0.00915843 0)
(1.09001 0.0133322 0)
(1.07898 0.0177908 0)
(1.06988 0.0220443 0)
(1.06475 0.0250484 0)
(1.06418 0.0265339 0)
(1.06776 0.0270621 0)
(1.0754 0.0268403 0)
(1.08272 0.0259771 0)
(1.07368 0.0244926 0)
(0.995579 0.0205419 0)
(0.77827 0.0125211 0)
(0.451374 0.00415596 0)
(0.137856 0.000673456 0)
(0.198156 0.000659755 0)
(0.556066 0.00236406 0)
(0.872589 0.00364842 0)
(1.06298 0.00357078 0)
(1.12254 0.00611546 0)
(1.1228 0.00977178 0)
(1.10871 0.0139107 0)
(1.09528 0.0184811 0)
(1.08352 0.023106 0)
(1.07333 0.0270986 0)
(1.06593 0.0294389 0)
(1.0631 0.0302362 0)
(1.06561 0.0300973 0)
(1.07326 0.029408 0)
(1.08006 0.0286305 0)
(1.06686 0.0263178 0)
(0.978463 0.0214778 0)
(0.752324 0.0127769 0)
(0.430483 0.00435707 0)
(0.128871 0.000721862 0)
(0.204904 0.000857195 0)
(0.563782 0.00364088 0)
(0.876878 0.00625026 0)
(1.06753 0.00797412 0)
(1.12858 0.0112883 0)
(1.12935 0.0151097 0)
(1.11475 0.019871 0)
(1.1001 0.0247141 0)
(1.08672 0.029592 0)
(1.07471 0.0339734 0)
(1.06669 0.0366621 0)
(1.06432 0.0371689 0)
(1.06643 0.0360419 0)
(1.07286 0.0341858 0)
(1.07694 0.0316023 0)
(1.05958 0.028472 0)
(0.963233 0.0228296 0)
(0.729975 0.0133544 0)
(0.411667 0.00471825 0)
(0.120159 0.000783416 0)
(0.213399 0.00101421 0)
(0.575573 0.00497075 0)
(0.885477 0.00958744 0)
(1.07418 0.0126867 0)
(1.13573 0.0166795 0)
(1.13702 0.0216774 0)
(1.12132 0.0271906 0)
(1.10543 0.0326585 0)
(1.09055 0.0378301 0)
(1.07677 0.0418606 0)
(1.06616 0.0432974 0)
(1.06054 0.0422427 0)
(1.06112 0.0402693 0)
(1.06755 0.0376655 0)
(1.07168 0.0356159 0)
(1.04958 0.0313449 0)
(0.942137 0.0243669 0)
(0.70132 0.014117 0)
(0.388747 0.00511739 0)
(0.109837 0.000817798 0)
(0.226352 0.00140521 0)
(0.595619 0.00704481 0)
(0.901782 0.0143641 0)
(1.08495 0.0195539 0)
(1.14474 0.0245886 0)
(1.14598 0.0297618 0)
(1.12939 0.0360541 0)
(1.11201 0.0421857 0)
(1.0952 0.0478061 0)
(1.07895 0.0518589 0)
(1.06639 0.0531105 0)
(1.06121 0.0518777 0)
(1.06152 0.0487797 0)
(1.06601 0.044964 0)
(1.06521 0.0403014 0)
(1.03742 0.034776 0)
(0.922035 0.0266474 0)
(0.676027 0.0154938 0)
(0.367338 0.00575758 0)
(0.0996408 0.000857496 0)
(0.24252 0.00198893 0)
(0.620804 0.00878018 0)
(0.923476 0.0187729 0)
(1.09931 0.0260977 0)
(1.1557 0.0323669 0)
(1.15674 0.0393468 0)
(1.13843 0.0466757 0)
(1.1194 0.0536559 0)
(1.10063 0.0597358 0)
(1.08222 0.0636653 0)
(1.06664 0.0635284 0)
(1.05683 0.0603346 0)
(1.05334 0.0555269 0)
(1.05688 0.0507334 0)
(1.05734 0.0462027 0)
(1.02348 0.0395226 0)
(0.895805 0.0296277 0)
(0.642778 0.0174118 0)
(0.339656 0.00644812 0)
(0.0871803 0.000870044 0)
(0.26504 0.00284143 0)
(0.655275 0.0125419 0)
(0.952441 0.0253254 0)
(1.11818 0.0353418 0)
(1.1694 0.0433413 0)
(1.16883 0.0515633 0)
(1.14845 0.0600472 0)
(1.12669 0.0680371 0)
(1.10465 0.074657 0)
(1.08243 0.0783647 0)
(1.06395 0.0776737 0)
(1.05399 0.0736997 0)
(1.05198 0.0682146 0)
(1.05372 0.0618197 0)
(1.04664 0.0543917 0)
(1.005 0.0455147 0)
(0.868845 0.0339727 0)
(0.611233 0.0200826 0)
(0.312087 0.00735735 0)
(0.0746263 0.000889078 0)
(0.296733 0.00372664 0)
(0.701584 0.0156722 0)
(0.991283 0.0332917 0)
(1.14305 0.0466266 0)
(1.18604 0.0566757 0)
(1.18305 0.0676256 0)
(1.15898 0.0777047 0)
(1.1339 0.0863974 0)
(1.10838 0.0927419 0)
(1.083 0.0953182 0)
(1.06147 0.0926204 0)
(1.0473 0.0864896 0)
(1.03998 0.0784638 0)
(1.03901 0.0702221 0)
(1.03361 0.0629456 0)
(0.984683 0.0528163 0)
(0.834156 0.0389047 0)
(0.568275 0.0230974 0)
(0.275484 0.00812039 0)
(0.0591952 0.000874586 0)
(0.333351 0.00718704 0)
(0.760139 0.0248157 0)
(1.03909 0.0463993 0)
(1.1736 0.0636886 0)
(1.20733 0.0763383 0)
(1.19927 0.0896745 0)
(1.17076 0.100754 0)
(1.14145 0.109685 0)
(1.11143 0.115439 0)
(1.08104 0.116432 0)
(1.05536 0.11159 0)
(1.03996 0.103189 0)
(1.03441 0.0938744 0)
(1.03366 0.0845048 0)
(1.01792 0.0739217 0)
(0.958053 0.0607401 0)
(0.797159 0.0447504 0)
(0.525758 0.0262353 0)
(0.23975 0.00886867 0)
(0.0444485 0.000744875 0)
(0.414141 0.0108597 0)
(0.847181 0.0359157 0)
(1.10342 0.066958 0)
(1.21198 0.0890067 0)
(1.2323 0.103854 6.68533e-34)
(1.21751 0.119731 -2.9965e-34)
(1.1829 0.130846 0)
(1.14878 0.138523 0)
(1.11419 0.142055 0)
(1.07992 0.139887 0)
(1.05116 0.131972 0)
(1.03194 0.120668 0)
(1.02075 0.108853 0)
(1.01382 0.0963219 0)
(0.998686 0.0850139 0)
(0.929127 0.0704781 0)
(0.74987 0.0510052 0)
(0.46763 0.0291327 0)
(0.191305 0.00873397 0)
(0.0265707 0.000703308 0)
(0.485582 0.0260984 5.03481e-20)
(0.94827 0.0595768 -3.80784e-20)
(1.17157 0.100681 0)
(1.25131 0.126331 2.91758e-20)
(1.25973 0.142051 -2.36543e-20)
(1.2349 0.159514 3.16154e-34)
(1.19345 0.168745 0)
(1.15374 0.17447 1.66651e-20)
(1.11343 0.175755 -5.464e-20)
(1.0735 0.171302 1.1125e-20)
(1.03943 0.159789 0)
(1.01782 0.145185 -2.80654e-20)
(1.00799 0.130866 -3.35672e-20)
(1.00296 0.118263 5.86881e-20)
(0.972141 0.103402 -4.63565e-20)
(0.881697 0.0833475 0)
(0.682434 0.059042 -1.67632e-20)
(0.392877 0.0309485 0)
(0.138185 0.00913786 -9.23174e-20)
(0.00893776 0.000771237 1.08828e-19)
(0.521018 0.0538262 -6.58571e-21)
(1.01134 0.102601 1.16241e-19)
(1.22103 0.15095 -7.13392e-21)
(1.28457 0.174104 -7.35553e-20)
(1.28367 0.191364 -5.01299e-20)
(1.24968 0.206776 8.14976e-20)
(1.20209 0.213433 0)
(1.1568 0.216737 0)
(1.11127 0.215226 8.71142e-20)
(1.0662 0.206614 0)
(1.02776 0.19198 1.01725e-19)
(1.00156 0.175704 3.01128e-20)
(0.984835 0.160167 3.64788e-22)
(0.967348 0.143369 -6.41531e-20)
(0.936131 0.126943 0)
(0.836919 0.104587 0)
(0.625166 0.0718142 -2.74458e-19)
(0.342764 0.0375208 6.88315e-19)
(0.115873 0.0108125 -4.08125e-19)
(0.00107736 0.000625653 -4.80959e-19)
(0.528189 0.0763673 -6.95839e-20)
(1.0476 0.159483 2.62128e-20)
(1.25695 0.21111 1.38854e-20)
(1.31103 0.232778 1.28667e-19)
(1.30257 0.248511 1.42952e-20)
(1.26092 0.25979 -2.12956e-19)
(1.20745 0.262638 7.22902e-20)
(1.15618 0.262719 0)
(1.10388 0.257931 -1.84564e-19)
(1.05219 0.247103 1.63118e-19)
(1.00846 0.230951 -2.74623e-19)
(0.978394 0.210679 1.28646e-19)
(0.961316 0.193265 -8.32665e-20)
(0.949193 0.176917 1.87531e-19)
(0.905714 0.15695 0)
(0.798403 0.126692 -6.86966e-20)
(0.593515 0.0872696 0)
(0.332944 0.0448969 3.79743e-19)
(0.116138 0.0155939 -9.00515e-19)
(0.00309893 0.000103221 5.64076e-19)
(0.52256 0.108265 2.03373e-19)
(1.06724 0.216411 -8.83234e-20)
(1.2789 0.276638 -1.84517e-20)
(1.32848 0.297647 0)
(1.31471 0.310911 -9.47413e-20)
(1.26757 0.316749 1.16668e-19)
(1.20949 0.31484 -7.73721e-20)
(1.15351 0.311069 0)
(1.09738 0.302336 1.31217e-19)
(1.04288 0.28762 -1.14688e-19)
(0.994526 0.265401 2.38205e-19)
(0.960291 0.245865 0)
(0.936712 0.226684 -1.77035e-19)
(0.910198 0.205911 9.97716e-20)
(0.871982 0.184301 2.51913e-19)
(0.771627 0.15438 -2.21653e-19)
(0.578423 0.109717 3.53927e-19)
(0.334718 0.0605467 -7.83179e-19)
(0.129335 0.0230038 4.94558e-19)
(0.0111322 0.00180812 -6.18701e-19)
(0.510275 0.132543 -7.64702e-20)
(1.0739 0.270258 5.50133e-20)
(1.28974 0.342121 -6.11033e-20)
(1.33798 0.362685 1.18795e-19)
(1.32062 0.373775 -1.10408e-19)
(1.2697 0.374907 3.71828e-20)
(1.20795 0.368607 3.65296e-21)
(1.14765 0.360753 -1.49932e-19)
(1.08639 0.348296 -1.37749e-19)
(1.02425 0.329729 -2.46467e-19)
(0.970685 0.307416 -5.12071e-19)
(0.933793 0.283894 -1.57513e-19)
(0.909397 0.262134 2.41571e-21)
(0.891528 0.242035 -3.41739e-19)
(0.844742 0.219146 -6.22048e-21)
(0.742738 0.180628 3.2253e-19)
(0.562404 0.130927 -9.74839e-20)
(0.337432 0.0766319 -5.65979e-20)
(0.142448 0.0322259 0)
(0.0193585 0.00446066 1.31545e-18)
(0.493302 0.153271 0)
(1.06825 0.320258 -7.05276e-21)
(1.29237 0.405778 -1.18493e-20)
(1.34071 0.426898 -1.2737e-20)
(1.32069 0.436518 1.07813e-19)
(1.26711 0.433044 -8.61633e-20)
(1.20256 0.422444 8.46649e-20)
(1.13905 0.410744 2.45877e-19)
(1.07467 0.394224 -7.65045e-20)
(1.01154 0.37166 1.2235e-19)
(0.956886 0.344913 2.75196e-19)
(0.915012 0.318749 3.43182e-19)
(0.883335 0.295908 -2.06406e-19)
(0.852218 0.271688 3.69619e-19)
(0.812478 0.246119 -2.92784e-19)
(0.722388 0.210767 0)
(0.557596 0.155979 -7.39546e-19)
(0.346631 0.0961153 9.95404e-19)
(0.157237 0.0437569 7.42946e-20)
(0.0279246 0.00802212 -1.38888e-18)
(0.478716 0.173534 -5.13871e-21)
(1.05985 0.368372 2.37905e-20)
(1.28984 0.466555 8.68001e-20)
(1.33867 0.488518 -1.07225e-19)
(1.31647 0.496866 8.78748e-20)
(1.26095 0.48962 -8.40596e-20)
(1.19442 0.475507 1.6839e-19)
(1.12857 0.459996 -7.43856e-20)
(1.0615 0.439689 -3.09119e-19)
(0.993943 0.414127 1.12672e-23)
(0.932197 0.383742 -2.9873e-19)
(0.887482 0.354433 -3.68563e-19)
(0.858832 0.327293 2.27566e-19)
(0.834801 0.305737 -1.32899e-19)
(0.788014 0.278776 3.17656e-19)
(0.697664 0.235579 0)
(0.543816 0.179683 -4.58122e-19)
(0.348739 0.114202 6.7656e-19)
(0.166767 0.0551516 1.28211e-18)
(0.0341262 0.0115679 -1.50829e-18)
(0.464258 0.191004 -2.22098e-20)
(1.0469 0.412808 4.58009e-21)
(1.28295 0.524145 -6.31419e-20)
(1.33253 0.547655 1.11351e-19)
(1.30862 0.555286 1.18036e-20)
(1.25178 0.544419 -1.65563e-19)
(1.18377 0.526822 -9.7035e-20)
(1.11595 0.507959 -9.40072e-20)
(1.04599 0.484139 -1.73737e-19)
(0.974773 0.454456 2.79987e-19)
(0.912725 0.419314 3.02502e-19)
(0.867126 0.387442 5.84891e-19)
(0.831972 0.362028 0)
(0.798877 0.332392 6.11722e-21)
(0.759316 0.303332 -8.70682e-19)
(0.680411 0.265453 2.02886e-19)
(0.537854 0.204052 9.88337e-19)
(0.352626 0.133925 -2.91542e-19)
(0.174327 0.0665022 6.0782e-19)
(0.0386791 0.0150301 -5.07101e-20)
(0.454595 0.209436 5.89184e-21)
(1.0354 0.455906 2.88171e-20)
(1.27393 0.579149 -3.19936e-20)
(1.32374 0.604018 1.32068e-19)
(1.29839 0.610596 -1.86269e-19)
(1.24052 0.596644 1.65127e-19)
(1.17133 0.576396 1.00506e-19)
(1.1019 0.554562 2.8183e-19)
(1.03039 0.527813 3.50067e-19)
(0.958243 0.494883 -3.21634e-19)
(0.894351 0.458051 0)
(0.84347 0.423138 -2.20443e-19)
(0.808133 0.390521 2.53091e-19)
(0.78181 0.363387 3.18561e-19)
(0.737277 0.334213 -1.8413e-19)
(0.656593 0.287184 -4.49532e-19)
(0.521676 0.226322 -1.34304e-19)
(0.347669 0.14985 -1.50456e-21)
(0.175045 0.0757954 0)
(0.0405555 0.0173767 0)
(0.446158 0.225036 -5.5518e-20)
(1.02248 0.495658 0)
(1.26262 0.630578 -1.81975e-20)
(1.31264 0.657421 -5.53673e-21)
(1.28618 0.663419 2.09034e-19)
(1.2276 0.64666 -5.35876e-20)
(1.15758 0.623734 1.01949e-19)
(1.08705 0.599054 -1.91105e-19)
(1.01377 0.569151 2.65167e-19)
(0.938027 0.532598 -1.04578e-19)
(0.867812 0.49117 1.72744e-19)
(0.818335 0.45068 6.98313e-19)
(0.783574 0.419176 1.4036e-20)
(0.74671 0.387738 -3.3207e-19)
(0.709218 0.353819 6.14504e-19)
(0.637514 0.314248 4.2356e-21)
(0.510488 0.246277 1.43686e-19)
(0.341044 0.164711 -6.85749e-19)
(0.170524 0.0829117 7.04632e-19)
(0.0399774 0.0187147 -8.32488e-19)
(0.439422 0.243142 2.60662e-23)
(1.01086 0.534237 0)
(1.25066 0.679642 0)
(1.30028 0.708174 -9.13049e-21)
(1.27286 0.713101 -6.36974e-20)
(1.21372 0.693806 7.83473e-20)
(1.14319 0.66885 -1.91962e-19)
(1.07186 0.641896 0)
(0.997022 0.609862 -3.9063e-19)
(0.919956 0.571412 4.65005e-19)
(0.851718 0.526826 4.90503e-19)
(0.799798 0.483794 -2.56262e-19)
(0.757463 0.44639 -3.09199e-19)
(0.731212 0.414565 7.2455e-19)
(0.687439 0.38243 -2.182e-19)
(0.614022 0.330016 -2.6067e-19)
(0.491752 0.263671 -1.56148e-19)
(0.331147 0.176078 -7.39092e-19)
(0.164643 0.0872077 1.0735e-19)
(0.0378384 0.019624 8.97585e-19)
(0.435189 0.261575 -2.99259e-20)
(0.999379 0.570165 -3.70672e-20)
(1.23757 0.72513 2.36172e-20)
(1.2868 0.755834 -1.40797e-22)
(1.25866 0.76024 -5.97038e-20)
(1.19919 0.738706 1.30567e-19)
(1.12815 0.711634 0)
(1.0558 0.68248 1.14648e-19)
(0.979463 0.647819 -9.04015e-20)
(0.900253 0.605538 7.7439e-19)
(0.825951 0.55608 -1.11972e-19)
(0.768188 0.509872 1.27042e-19)
(0.734252 0.471573 0)
(0.696004 0.435776 -3.92075e-19)
(0.659968 0.396758 4.7429e-19)
(0.594286 0.353232 0)
(0.477633 0.27744 -3.36867e-19)
(0.317956 0.18558 9.90237e-19)
(0.155853 0.0895289 1.1672e-19)
(0.0344243 0.019679 -1.10452e-18)
(0.432871 0.27846 -7.89477e-20)
(0.989536 0.604975 1.01486e-19)
(1.22454 0.768508 0)
(1.27294 0.800902 -6.53977e-22)
(1.24412 0.804398 0)
(1.18428 0.780847 -1.65022e-19)
(1.11297 0.752205 0)
(1.04013 0.721265 0)
(0.962816 0.68512 -1.18428e-19)
(0.881419 0.641642 -7.35818e-19)
(0.806693 0.591014 -9.05688e-19)
(0.751295 0.540729 1.48085e-19)
(0.706525 0.496162 5.3344e-19)
(0.679768 0.457854 4.31187e-19)
(0.639089 0.421646 -1.52159e-18)
(0.570477 0.363133 -6.11402e-19)
(0.455621 0.28945 3.57807e-19)
(0.302783 0.190262 0)
(0.146064 0.090046 1.00355e-18)
(0.030657 0.0188201 -1.18968e-18)
(0.431296 0.294112 9.69e-20)
(0.979508 0.637096 -1.20102e-19)
(1.21113 0.808502 0)
(1.25868 0.842922 -1.09146e-20)
(1.22931 0.846109 6.25434e-21)
(1.16937 0.820863 0)
(1.09785 0.790579 5.85661e-20)
(1.02435 0.757959 7.85666e-20)
(0.945642 0.719886 -2.23563e-19)
(0.862237 0.673293 9.77824e-20)
(0.783244 0.617649 0)
(0.72134 0.564443 6.13255e-19)
(0.682588 0.518737 4.78191e-21)
(0.644353 0.476225 2.32534e-19)
(0.610323 0.429914 2.76162e-19)
(0.548991 0.381471 0)
(0.439193 0.296536 -5.85967e-19)
(0.286667 0.193695 1.1505e-18)
(0.13571 0.0889583 -1.21677e-18)
(0.0268618 0.0176011 2.56177e-18)
(0.43013 0.309014 0)
(0.970638 0.668382 0)
(1.19828 0.84657 -5.7101e-20)
(1.24463 0.882567 0)
(1.21472 0.885061 0)
(1.15458 0.858288 -1.40142e-19)
(1.08301 0.826816 5.9971e-20)
(1.00913 0.792829 1.75308e-20)
(0.929304 0.753584 -5.13707e-20)
(0.843402 0.706356 0)
(0.762295 0.650589 -1.37407e-19)
(0.701131 0.593488 -5.00098e-19)
(0.653489 0.540341 -6.01554e-19)
(0.626643 0.493959 -2.41562e-19)
(0.588286 0.451278 2.99389e-19)
(0.524729 0.383818 -7.06054e-19)
(0.415361 0.302243 1.26088e-18)
(0.269658 0.192499 2.97678e-21)
(0.125326 0.0866148 -1.16778e-18)
(0.0235628 0.0161386 -1.72805e-19)
(0.429025 0.323593 0)
(0.961798 0.697582 -9.95682e-20)
(1.18548 0.881657 7.15427e-20)
(1.23061 0.919391 0)
(1.20023 0.921731 0)
(1.14012 0.893737 2.82652e-19)
(1.0685 0.86104 0)
(0.993977 0.82576 0)
(0.912706 0.785118 -4.89691e-19)
(0.825198 0.735671 1.3417e-19)
(0.741285 0.676 -1.2189e-18)
(0.673428 0.61516 0)
(0.629489 0.562318 -6.51689e-19)
(0.588937 0.510302 1.07265e-20)
(0.556885 0.452371 -9.61141e-19)
(0.501287 0.395829 3.80051e-19)
(0.399271 0.300731 1.91995e-21)
(0.255503 0.190064 -1.32854e-18)
(0.116909 0.0831943 6.29915e-19)
(0.0203322 0.0144891 1.84891e-19)
(0.42808 0.337819 0)
(0.954037 0.726036 -1.42604e-19)
(1.1734 0.915175 7.56826e-20)
(1.21711 0.954182 8.70577e-20)
(1.18626 0.955914 -1.77668e-20)
(1.12602 0.926764 2.88138e-20)
(1.0544 0.893222 -3.75334e-20)
(0.97953 0.856983 4.75669e-19)
(0.897453 0.815516 5.23832e-19)
(0.807735 0.765827 1.02376e-18)
(0.720162 0.706697 1.01281e-18)
(0.651143 0.644142 1.77605e-19)
(0.597636 0.582796 9.37588e-19)
(0.5688 0.524682 5.78183e-19)
(0.532097 0.46988 6.90037e-19)
(0.475557 0.387856 -4.16338e-19)
(0.375304 0.296545 -4.85525e-19)
(0.242322 0.179098 5.68887e-19)
(0.111955 0.0817497 -3.37575e-19)
(0.0222644 0.0192695 5.98398e-19)
(0.427181 0.351637 2.0355e-19)
(0.946395 0.752509 2.22845e-19)
(1.16146 0.946064 4.47845e-20)
(1.20381 0.986407 1.62633e-20)
(1.17255 0.988031 2.40343e-20)
(1.11241 0.958012 -7.87122e-20)
(1.04084 0.923598 3.6423e-20)
(0.965584 0.886428 -2.05369e-20)
(0.882428 0.844106 -6.08826e-19)
(0.791295 0.793219 -1.11056e-18)
(0.700989 0.731194 7.0395e-20)
(0.625708 0.665748 0)
(0.574638 0.604815 0)
(0.527207 0.541114 -3.0126e-19)
(0.494761 0.46381 -1.1279e-18)
(0.446949 0.390627 8.96832e-19)
(0.363809 0.27514 5.31743e-19)
(0.24813 0.161216 0)
(0.124285 0.0569964 1.07659e-18)
(0.0158068 -0.00584856 -6.39787e-19)
(0.426424 0.364834 -1.07847e-19)
(0.939533 0.77804 9.57046e-20)
(1.15021 0.975602 -1.09285e-19)
(1.19114 1.0169 -8.38814e-20)
(1.15949 1.01793 -7.4637e-21)
(1.09932 0.987023 -2.49632e-20)
(1.02791 0.952068 0)
(0.952498 0.914324 -5.97464e-19)
(0.868596 0.871454 7.49605e-20)
(0.774974 0.820375 0)
(0.681035 0.759361 0)
(0.603529 0.694452 1.1277e-19)
(0.539474 0.625998 1.51261e-19)
(0.503391 0.554131 -3.24999e-19)
(0.463462 0.480735 8.09791e-19)
(0.411594 0.368634 -9.77099e-19)
(0.330905 0.254117 -1.13745e-18)
(0.249082 0.138977 1.00649e-18)
(0.17547 0.0946455 -3.83902e-19)
(0.113216 0.0809072 2.23534e-19)
(0.425541 0.377274 1.37215e-19)
(0.932676 0.80165 0)
(1.13911 1.0027 0)
(1.17875 1.04501 -2.21852e-20)
(1.14679 1.04596 1.796e-20)
(1.08682 1.01445 -2.09194e-20)
(1.01562 0.97891 1.59262e-19)
(0.939947 0.940536 6.12845e-19)
(0.85506 0.897143 1.10436e-18)
(0.760499 0.845599 -8.32464e-20)
(0.665059 0.783903 1.71605e-19)
(0.580108 0.716902 -1.00836e-18)
(0.518304 0.649711 -1.00195e-18)
(0.456998 0.574709 -1.74165e-19)
(0.41217 0.470894 0)
(0.367374 0.372689 -8.53605e-21)
(0.303071 0.189376 6.25257e-19)
(0.269631 0.03787 -1.0543e-18)
(0.230711 -0.0813385 8.01743e-19)
(0.082798 -0.0967284 6.65718e-19)
(0.424668 0.389233 -3.03866e-19)
(0.926305 0.824323 -1.37775e-19)
(1.1286 1.02875 6.95402e-21)
(1.16693 1.07187 5.17694e-20)
(1.13465 1.07232 0)
(1.07471 1.04017 -9.00137e-20)
(1.0037 1.00441 -2.27614e-19)
(0.927909 0.965865 -9.1729e-22)
(0.842401 0.92235 -5.78854e-19)
(0.745627 0.871026 -8.16359e-20)
(0.645736 0.81037 7.5825e-20)
(0.558463 0.745734 8.85615e-19)
(0.48033 0.674454 9.78021e-19)
(0.429037 0.589962 1.69322e-19)
(0.374335 0.499043 8.66243e-19)
(0.296424 0.342926 0)
(0.18048 0.175828 0)
(0.00951687 0.215567 7.28028e-19)
(-0.0770088 0.629436 -3.07025e-20)
(0.00588884 1.53278 -8.92471e-19)
(0.42361 0.40057 1.68223e-19)
(0.919994 0.845486 3.83419e-19)
(1.11819 1.05281 -5.20296e-19)
(1.15527 1.09688 2.54821e-19)
(1.12269 1.09749 -3.88703e-21)
(1.06293 1.06515 -4.57691e-20)
(0.992087 1.02925 0)
(0.916042 0.990591 -5.11521e-19)
(0.829797 0.947268 0)
(0.732291 0.896405 1.1527e-18)
(0.630977 0.836558 -9.17519e-20)
(0.53644 0.772189 1.02879e-19)
(0.461359 0.704672 1.11628e-18)
(0.375402 0.627108 -3.66686e-19)
(0.282697 0.499027 -4.41394e-19)
(0.201005 0.40024 0)
(0.0919666 0.517944 0)
(0.0272948 1.31814 0)
(0.0731717 2.45766 -4.1379e-19)
(0.101187 2.90808 -2.54202e-19)
(0.422429 0.411326 0)
(0.914055 0.865664 0)
(1.10837 1.07605 1.90348e-19)
(1.14423 1.12096 -2.06206e-19)
(1.11131 1.12129 8.51138e-20)
(1.05154 1.08866 5.10882e-20)
(0.980864 1.05297 2.90978e-20)
(0.904807 1.01471 -2.26551e-20)
(0.81808 0.971965 8.12702e-20)
(0.718168 0.921946 -1.32287e-18)
(0.611932 0.863603 1.66608e-19)
(0.515383 0.803482 8.81977e-19)
(0.420177 0.737508 -1.11249e-18)
(0.345876 0.646289 -1.21686e-18)
(0.268579 0.561569 4.10124e-19)
(0.194322 0.692005 0)
(0.125777 1.546 5.70918e-19)
(0.12602 2.68961 6.30228e-19)
(0.134111 3.08668 -7.04835e-19)
(0.125449 3.22159 7.59732e-19)
(0.421067 0.421699 0)
(0.908224 0.884436 3.4284e-19)
(1.09869 1.09735 -4.76049e-20)
(1.13341 1.14319 2.94608e-19)
(1.10018 1.14392 -8.93407e-20)
(1.04059 1.11145 0)
(0.970087 1.07597 0)
(0.893827 1.03803 0)
(0.806486 0.996024 4.60572e-19)
(0.706221 0.947394 6.13031e-20)
(0.599862 0.891834 0)
(0.496168 0.833579 -8.77566e-19)
(0.410745 0.77306 0)
(0.295958 0.69771 8.71207e-19)
(0.207326 0.766713 -5.85848e-19)
(0.15808 1.4597 -4.71907e-19)
(0.160153 2.67777 -1.11006e-18)
(0.18152 3.12667 -5.86152e-19)
(0.172295 3.26798 -8.00295e-19)
(0.158064 3.30835 6.14059e-19)
(0.419682 0.431216 -1.20293e-19)
(0.902686 0.902201 1.53701e-20)
(1.08959 1.11801 -5.32574e-20)
(1.12325 1.16476 -2.26699e-19)
(1.08967 1.16539 0)
(1.03007 1.13289 0)
(0.959721 1.09792 0)
(0.883531 1.06079 3.5567e-20)
(0.795867 1.01986 -5.81932e-19)
(0.693537 0.972783 0)
(0.582255 0.919064 0)
(0.479588 0.865872 0)
(0.367088 0.807396 0)
(0.306207 0.788873 6.35524e-19)
(0.273388 1.17113 1.56308e-18)
(0.253002 2.37655 4.64026e-19)
(0.265558 3.08306 9.38301e-19)
(0.259938 3.28448 -7.19873e-19)
(0.21082 3.35051 2.66987e-19)
(0.178017 3.36314 0)
(0.418159 0.440445 1.2406e-19)
(0.897095 0.91919 -7.64346e-19)
(1.08038 1.13738 -2.04291e-19)
(1.11305 1.18506 -4.44744e-20)
(1.07918 1.18631 2.06048e-20)
(1.01979 1.15423 -5.67191e-20)
(0.949649 1.11972 -4.86264e-21)
(0.873301 1.08313 -4.0316e-19)
(0.785188 1.04333 0)
(0.683022 0.998412 -7.70875e-20)
(0.573078 0.948953 7.01258e-20)
(0.463105 0.89892 0)
(0.375744 0.856659 0)
(0.319894 0.973902 -7.9484e-19)
(0.277186 1.85389 9.79003e-20)
(0.27298 2.94157 -3.48443e-19)
(0.29455 3.28889 7.27758e-19)
(0.267328 3.38777 5.30363e-19)
(0.201258 3.41234 -7.23247e-19)
(0.1763 3.42169 3.59344e-19)
(0.416308 0.449841 2.44865e-19)
(0.891141 0.936616 7.46944e-19)
(1.07095 1.15792 2.44781e-19)
(1.10269 1.20655 0)
(1.06855 1.20768 0)
(1.00922 1.17556 4.47272e-20)
(0.939327 1.14162 8.23858e-20)
(0.863258 1.10598 3.59836e-19)
(0.775218 1.06747 2.30967e-20)
(0.671645 1.02457 9.90413e-19)
(0.557602 0.977095 -1.16141e-18)
(0.447199 0.929143 0)
(0.369283 0.926841 0)
(0.336833 1.33854 -5.41755e-19)
(0.338326 2.48206 -6.51362e-19)
(0.381179 3.19852 0)
(0.405808 3.37168 -7.36709e-19)
(0.335956 3.43468 4.81678e-20)
(0.265756 3.47922 3.50557e-19)
(0.242944 3.50458 -1.16745e-19)
(0.414062 0.459656 -4.66611e-19)
(0.884508 0.954897 -3.59127e-19)
(1.06043 1.17867 0)
(1.09126 1.22808 0)
(1.05696 1.22987 0)
(0.998042 1.19811 0)
(0.928567 1.16452 -9.57018e-20)
(0.85259 1.12928 3.19948e-19)
(0.764489 1.09189 0)
(0.661866 1.05141 -9.02067e-19)
(0.551054 1.00884 2.08425e-18)
(0.442416 0.97454 8.48299e-20)
(0.389482 1.05747 1.12041e-19)
(0.388299 1.74812 8.84091e-19)
(0.404679 2.89823 -4.75216e-19)
(0.441965 3.3219 0)
(0.424873 3.44621 2.06077e-19)
(0.339026 3.53429 9.26568e-20)
(0.262267 3.59858 1.50453e-19)
(0.186967 3.57806 -1.03812e-20)
(0.411286 0.469865 2.22387e-19)
(0.877017 0.974066 -3.687e-19)
(1.04927 1.2014 0)
(1.07929 1.25162 -6.47647e-20)
(1.04482 1.253 2.20337e-19)
(0.986123 1.22091 0)
(0.917145 1.18766 0)
(0.841847 1.15329 -5.56851e-19)
(0.754416 1.11709 -5.82615e-20)
(0.651283 1.07863 8.85908e-19)
(0.534709 1.03758 -9.90471e-19)
(0.444654 1.01724 5.75303e-19)
(0.407717 1.23034 0)
(0.426487 2.18162 -4.68994e-19)
(0.469218 3.14503 3.0722e-19)
(0.531743 3.42608 1.92463e-19)
(0.524468 3.52312 0)
(0.460904 3.60567 -3.82025e-20)