/*--------------------------------*- C++ -*----------------------------------*\
| =========                 |                                                 |
| \\      /  F ield         | OpenFOAM: The Open Source CFD Toolbox           |
|  \\    /   O peration     | Version:  4.0                                   |
|   \\  /    A nd           | Web:      www.OpenFOAM.org                      |
|    \\/     M anipulation  |                                                 |
\*---------------------------------------------------------------------------*/
FoamFile
{
    version     2.0;
    format      ascii;
    class       volScalarField;
    location    "65";
    object      p;
}
// * * * * * * * * * * * * * * * * * * * * * * * * * * * * * * * * * * * * * //

dimensions      [0 2 -2 0 0 0 0];

internalField   nonuniform List<scalar> 
8800
(
0.805725
0.757939
0.719252
0.690259
0.6694
0.654577
0.643992
0.636528
0.631732
0.629706
0.63101
0.635229
0.641896
0.651228
0.664019
0.68176
0.706543
0.740487
0.78304
0.841742
0.636969
0.644648
0.652127
0.655437
0.653938
0.648866
0.642388
0.636325
0.631622
0.628808
0.628564
0.631104
0.635619
0.641584
0.648367
0.654656
0.658303
0.65757
0.652155
0.643468
0.615366
0.621526
0.625656
0.628604
0.630658
0.631271
0.630176
0.628089
0.626099
0.625227
0.626228
0.628642
0.631466
0.633664
0.634283
0.633093
0.630758
0.62737
0.622813
0.619053
0.609545
0.612197
0.614951
0.617358
0.618998
0.620169
0.620923
0.62106
0.620793
0.620783
0.621578
0.622784
0.62365
0.623735
0.62314
0.622059
0.62025
0.617685
0.615285
0.613781
0.60415
0.605575
0.607357
0.609394
0.611184
0.612535
0.613538
0.614358
0.615005
0.615614
0.616314
0.61685
0.61698
0.616715
0.616034
0.614798
0.613111
0.611269
0.609965
0.609134
0.599055
0.599976
0.60122
0.602791
0.604431
0.605967
0.607268
0.60836
0.609362
0.610306
0.611052
0.611427
0.61142
0.611007
0.610146
0.60896
0.607644
0.606392
0.605573
0.605021
0.594126
0.594795
0.595761
0.597068
0.598485
0.599955
0.601413
0.602764
0.604004
0.605171
0.606058
0.60648
0.606438
0.605961
0.605178
0.604248
0.603249
0.602335
0.601754
0.601348
0.589314
0.58983
0.590617
0.591753
0.593039
0.594426
0.595893
0.597397
0.598872
0.600277
0.601359
0.601895
0.60192
0.601573
0.600999
0.600295
0.599538
0.598865
0.598436
0.598118
0.584547
0.584958
0.585617
0.586629
0.587845
0.589187
0.590655
0.592247
0.593922
0.595598
0.596933
0.597667
0.59789
0.597767
0.597418
0.596928
0.596378
0.595899
0.595581
0.595322
0.57974
0.580074
0.580644
0.581578
0.582746
0.584075
0.585582
0.587275
0.589143
0.591114
0.592775
0.593811
0.594318
0.594452
0.594337
0.594075
0.593721
0.593403
0.59317
0.592952
0.574802
0.575079
0.575588
0.576476
0.577628
0.578983
0.580566
0.582403
0.584505
0.58682
0.588892
0.590316
0.591162
0.591591
0.591733
0.591699
0.591542
0.591367
0.591201
0.591013
0.569643
0.569876
0.570346
0.57122
0.572394
0.573819
0.575521
0.577556
0.579958
0.582699
0.585273
0.587164
0.588407
0.589176
0.589605
0.589809
0.589851
0.589807
0.589697
0.589529
0.564172
0.564369
0.56482
0.565708
0.566947
0.568486
0.570362
0.572663
0.575447
0.57872
0.581904
0.58435
0.586058
0.587214
0.587967
0.588425
0.588683
0.588762
0.588699
0.588545
0.558284
0.558453
0.558902
0.559833
0.561178
0.562883
0.565
0.567646
0.570914
0.574845
0.578767
0.581876
0.584133
0.585736
0.586858
0.587622
0.588094
0.588293
0.58827
0.588124
0.551861
0.552006
0.552468
0.553472
0.554969
0.556899
0.559334
0.562422
0.566297
0.571036
0.575852
0.579752
0.58266
0.584789
0.586331
0.58743
0.588147
0.588472
0.588487
0.588344
0.544763
0.544883
0.545372
0.54648
0.548181
0.550406
0.553249
0.556896
0.561526
0.567253
0.573147
0.577993
0.58167
0.58442
0.586459
0.587944
0.588936
0.589388
0.589437
0.589294
0.536801
0.536902
0.537435
0.538684
0.540647
0.543245
0.546608
0.550959
0.556524
0.563456
0.570648
0.57662
0.581205
0.584685
0.587321
0.589258
0.590554
0.591142
0.591222
0.591075
0.527755
0.527856
0.528442
0.529851
0.532145
0.53523
0.539253
0.544484
0.551205
0.559608
0.568357
0.575666
0.581321
0.585659
0.588999
0.591463
0.593107
0.593838
0.593947
0.593792
0.517305
0.517386
0.518063
0.519697
0.522427
0.526134
0.530988
0.537326
0.545481
0.555675
0.566287
0.575167
0.582083
0.587431
0.591576
0.594666
0.596698
0.597578
0.597712
0.597545
0.505075
0.505142
0.505919
0.507864
0.511152
0.515657
0.521576
0.529315
0.539255
0.551629
0.564454
0.575176
0.583549
0.590073
0.595158
0.598968
0.601422
0.602451
0.602603
0.602421
0.490506
0.490561
0.491482
0.493843
0.497871
0.503426
0.510732
0.520267
0.532438
0.547456
0.562894
0.575747
0.585789
0.593658
0.599827
0.604445
0.607347
0.608516
0.608676
0.608476
0.472828
0.472873
0.474006
0.476952
0.481992
0.488967
0.498121
0.50999
0.524968
0.543186
0.561669
0.57695
0.588872
0.598259
0.60562
0.611143
0.614494
0.615778
0.615931
0.615711
0.450873
0.450916
0.452397
0.456227
0.462727
0.471701
0.483388
0.498338
0.516848
0.538901
0.560881
0.578868
0.592866
0.603922
0.612589
0.61905
0.622812
0.624163
0.624292
0.62405
0.422887
0.42295
0.425024
0.43028
0.439048
0.450959
0.466217
0.48526
0.508185
0.534764
0.560676
0.581599
0.597816
0.61064
0.620705
0.62808
0.632151
0.633496
0.633578
0.633317
0.385822
0.385986
0.389276
0.397161
0.409756
0.426157
0.446505
0.470922
0.499245
0.531032
0.561244
0.585257
0.603774
0.618423
0.629885
0.638037
0.642247
0.643487
0.6435
0.643226
0.33383
0.334821
0.341363
0.354653
0.373899
0.397248
0.424616
0.455825
0.490508
0.528077
0.562808
0.589959
0.610764
0.627166
0.63993
0.648612
0.652715
0.653746
0.653682
0.653402
0.257947
0.265282
0.280416
0.303834
0.33299
0.365647
0.401595
0.440622
0.482354
0.526179
0.565741
0.596228
0.619484
0.637775
0.651751
0.660741
0.664585
0.665395
0.665283
0.665038
0.176413
0.193757
0.218277
0.252456
0.291913
0.334006
0.378592
0.425615
0.474773
0.525504
0.570753
0.605332
0.631517
0.65202
0.667327
0.676215
0.679414
0.679945
0.679864
0.679703
0.108444
0.12887
0.16114
0.204467
0.253015
0.303993
0.356953
0.411814
0.46825
0.525687
0.576345
0.614731
0.643601
0.665897
0.681834
0.690282
0.693024
0.693497
0.69348
0.693363
0.0527758
0.0748645
0.112669
0.162456
0.21819
0.276656
0.337033
0.399101
0.46239
0.526217
0.582015
0.62397
0.655277
0.679102
0.695673
0.704073
0.706603
0.707052
0.707063
0.706976
0.00645611
0.0297218
0.0713239
0.126241
0.187753
0.25241
0.319158
0.38763
0.457189
0.527011
0.58771
0.633079
0.666732
0.692133
0.709462
0.718007
0.720627
0.721017
0.721043
0.720982
-0.0327893
-0.0088683
0.0356103
0.0945828
0.160954
0.230877
0.303163
0.377343
0.452647
0.528083
0.59345
0.642115
0.678065
0.704996
0.723222
0.732211
0.734944
0.735355
0.735392
0.735351
-0.0669973
-0.0426557
0.0040865
0.0664092
0.136888
0.2114
0.28861
0.367956
0.448552
0.529258
0.599089
0.650953
0.689168
0.717612
0.736819
0.746317
0.749268
0.749702
0.749746
0.749725
-0.0976754
-0.0729684
-0.0243828
0.0408015
0.114831
0.19337
0.274998
0.359058
0.444581
0.530297
0.604429
0.659402
0.699807
0.729811
0.74986
0.759883
0.763104
0.763614
0.763674
0.763657
-0.125803
-0.100771
-0.05061
0.0170469
0.0941944
0.176306
0.261914
0.350311
0.440464
0.530972
0.60928
0.667272
0.70979
0.741205
0.762148
0.772659
0.776122
0.776726
0.776755
0.776743
-0.152191
-0.12679
-0.0752036
-0.005395
0.0745392
0.159845
0.249061
0.341457
0.43596
0.531077
0.613481
0.674439
0.718997
0.751782
0.773485
0.784399
0.788054
0.788709
0.788717
0.788694
-0.177226
-0.151453
-0.0985893
-0.0268763
0.0555476
0.143722
0.23621
0.332293
0.430897
0.53048
0.616945
0.680859
0.727409
0.761444
0.78374
0.794964
0.798746
0.799428
0.799408
0.799366
-0.201347
-0.175119
-0.121219
-0.0476428
0.0369938
0.127743
0.223206
0.32269
0.425157
0.529069
0.6196
0.686521
0.735052
0.770232
0.79304
0.804421
0.80821
0.808896
0.808854
0.808798
-0.224693
-0.198002
-0.143095
-0.0678757
0.0187374
0.111799
0.209957
0.312569
0.418657
0.526764
0.6214
0.691439
0.742013
0.778293
0.801459
0.812804
0.81657
0.817215
0.817146
0.817067
-0.247408
-0.220266
-0.164328
-0.0876764
0.000710162
0.0958365
0.196416
0.301879
0.411345
0.523502
0.622291
0.695633
0.748398
0.785775
0.809152
0.820342
0.823956
0.824534
0.824441
0.824345
-0.269628
-0.241966
-0.185043
-0.107088
-0.017129
0.0798372
0.182582
0.290623
0.403206
0.519234
0.62222
0.699105
0.75432
0.792873
0.81633
0.827159
0.830502
0.830975
0.830845
0.830736
-0.291403
-0.263119
-0.205295
-0.126123
-0.0347637
0.0638162
0.168486
0.278828
0.39425
0.513923
0.621119
0.701832
0.759868
0.799789
0.823204
0.83342
0.836296
0.836596
0.836429
0.836308
-0.312578
-0.283709
-0.22502
-0.144766
-0.0521734
0.0478275
0.154173
0.266554
0.38452
0.507575
0.618916
0.703749
0.765066
0.806738
0.83012
0.839386
0.841488
0.84151
0.841316
0.841202
-0.333145
-0.303714
-0.244213
-0.162978
-0.0693107
0.0319203
0.139725
0.253867
0.374081
0.500205
0.61555
0.70474
0.769868
0.813885
0.837533
0.845609
0.84641
0.845828
0.845581
0.84553
-0.353171
-0.323106
-0.262859
-0.180736
-0.0861197
0.0161699
0.12522
0.240863
0.363015
0.491864
0.610962
0.704649
0.774117
0.82122
0.845896
0.853014
0.851926
0.84996
0.849426
0.849687
-0.372495
-0.341868
-0.280905
-0.197991
-0.102548
0.000653869
0.110748
0.227644
0.351429
0.482633
0.605125
0.703289
0.777546
0.828451
0.855312
0.862703
0.860059
0.855691
0.853464
0.853335
-0.391211
-0.359995
-0.298373
-0.214773
-0.118629
-0.0146707
0.0962539
0.214157
0.339259
0.472444
0.597905
0.700382
0.779863
0.835114
0.86526
0.875106
0.873212
0.86617
0.858585
0.8449
-0.40925
-0.377474
-0.315379
-0.231284
-0.134642
-0.0301259
0.0813343
0.199937
0.325992
0.460689
0.588693
0.6952
0.780578
0.840613
0.874219
0.888324
0.887697
0.87442
0.853981
0.843268
-0.426443
-0.394452
-0.331735
-0.24733
-0.150235
-0.0453743
0.0662094
0.185299
0.311919
0.447605
0.577513
0.687206
0.77877
0.843744
0.878124
0.892141
0.893538
0.86903
0.801695
0.771629
-0.442131
-0.412193
-0.347131
-0.262437
-0.164609
-0.0599161
0.0511964
0.170471
0.297254
0.433305
0.564267
0.67604
0.772887
0.843733
0.871698
0.88069
0.866834
0.81113
0.741925
0.699458
-0.497018
-0.427839
-0.361058
-0.277732
-0.179415
-0.0752341
0.0362236
0.155161
0.281614
0.417307
0.54831
0.660966
0.758884
0.836499
0.83844
0.838365
0.785057
0.712604
0.63523
0.592193
-0.458713
-0.442777
-0.381848
-0.297426
-0.201338
-0.0971983
0.0132315
0.131536
0.25704
0.391416
0.520693
0.632028
0.722693
0.805821
0.789133
0.671594
0.563779
0.4888
0.414429
0.443726
-0.489154
-0.46007
-0.398255
-0.314677
-0.218624
-0.114604
-0.00390057
0.113771
0.23822
0.370828
0.497381
0.60457
0.685523
0.729661
0.67857
0.525783
0.395471
0.3024
0.202814
0.251702
-0.512601
-0.480598
-0.417634
-0.333928
-0.237757
-0.133845
-0.0232295
0.0936051
0.216655
0.346872
0.469711
0.570674
0.642613
0.65191
0.54228
0.366794
0.212065
0.0916943
-0.0403314
-0.00814891
-0.535514
-0.502015
-0.43791
-0.353297
-0.257056
-0.153305
-0.0432252
0.0726366
0.194083
0.321508
0.439643
0.53266
0.589049
0.566634
0.405129
0.206722
0.0149592
-0.154012
-0.343124
-0.362465
-0.557836
-0.523908
-0.458937
-0.373563
-0.277199
-0.173685
-0.0642713
0.0504861
0.17006
0.294277
0.406956
0.4919
0.528496
0.469251
0.274513
0.0622819
-0.156037
-0.345964
-0.588189
-0.885001
-0.580454
-0.546532
-0.481042
-0.395202
-0.29867
-0.195342
-0.086529
0.0270818
0.144662
0.265382
0.372259
0.448657
0.46367
0.353003
0.160778
-0.0506658
-0.255975
-0.4289
-0.498787
-0.577407
-0.60432
-0.570344
-0.504571
-0.418525
-0.321961
-0.218917
-0.110801
0.00148207
0.11674
0.23341
0.334071
0.399237
0.388999
0.244589
0.059603
-0.132765
-0.296725
-0.390318
-0.414535
-0.430383
-0.629735
-0.595641
-0.529693
-0.443607
-0.347202
-0.244618
-0.137445
-0.0267995
0.085705
0.197663
0.291588
0.3423
0.314265
0.143843
-0.0321348
-0.199342
-0.326915
-0.366325
-0.379168
-0.380479
-0.6569
-0.622598
-0.556473
-0.470443
-0.37434
-0.27245
-0.166479
-0.0578129
0.0514908
0.15815
0.244389
0.280569
0.232459
0.0507619
-0.116088
-0.265789
-0.342599
-0.3597
-0.361078
-0.360898
-0.685876
-0.65128
-0.584936
-0.499034
-0.403395
-0.302401
-0.197909
-0.0915727
0.0141074
0.114942
0.192584
0.216907
0.132377
-0.034243
-0.192722
-0.315982
-0.352846
-0.351272
-0.350417
-0.349833
-0.716377
-0.681505
-0.614982
-0.529292
-0.43428
-0.33442
-0.231703
-0.128052
-0.0264059
0.0681444
0.137055
0.144299
0.0413645
-0.113201
-0.253496
-0.329853
-0.340248
-0.342967
-0.343667
-0.343411
-0.747856
-0.712833
-0.646354
-0.560992
-0.466809
-0.368348
-0.267708
-0.16712
-0.069864
0.0181174
0.078281
0.0704642
-0.0401564
-0.180224
-0.298075
-0.32957
-0.338015
-0.339392
-0.339152
-0.338866
-0.77985
-0.744713
-0.678604
-0.59374
-0.500641
-0.403866
-0.305647
-0.208487
-0.11598
-0.0344545
0.0152869
0.000528317
-0.11471
-0.234756
-0.329084
-0.345636
-0.336926
-0.335888
-0.335783
-0.335529
-0.811456
-0.776422
-0.710864
-0.626943
-0.535233
-0.440504
-0.345068
-0.251677
-0.164282
-0.0889542
-0.0490984
-0.0637081
-0.179367
-0.276297
-0.332164
-0.340812
-0.336765
-0.334827
-0.334003
-0.333688
-0.841132
-0.80679
-0.742159
-0.659682
-0.569821
-0.477564
-0.385321
-0.296004
-0.213967
-0.144788
-0.108452
-0.134631
-0.230328
-0.311111
-0.319107
-0.333951
-0.336102
-0.333636
-0.332709
-0.332203
-0.867258
-0.833995
-0.77136
-0.690773
-0.603373
-0.514116
-0.425544
-0.340611
-0.263916
-0.201105
-0.164781
-0.203475
-0.273944
-0.320663
-0.3489
-0.341586
-0.338486
-0.33776
-0.337522
-0.337036
-0.887716
-0.856164
-0.796419
-0.718802
-0.634607
-0.549018
-0.464654
-0.384464
-0.312997
-0.256538
-0.222824
-0.261272
-0.311529
-0.342237
-0.371317
-0.360736
-0.356213
-0.356578
-0.355936
-0.355129
-0.900262
-0.871404
-0.815419
-0.741894
-0.662031
-0.580951
-0.501431
-0.426353
-0.360109
-0.309442
-0.27914
-0.313734
-0.353454
-0.373214
-0.362502
-0.374899
-0.382721
-0.383001
-0.380571
-0.380263
-0.90227
-0.877453
-0.826409
-0.758238
-0.683952
-0.608509
-0.534539
-0.464975
-0.404028
-0.35836
-0.32638
-0.359447
-0.414113
-0.467974
-0.435753
-0.406804
-0.388584
-0.380852
-0.378877
-0.378469
-0.89154
-0.871558
-0.827217
-0.766238
-0.698897
-0.630211
-0.562641
-0.498968
-0.443331
-0.401748
-0.365586
-0.383015
-0.416209
-0.55022
-0.476568
-0.403907
-0.36805
-0.358097
-0.354938
-0.353242
-0.866065
-0.851041
-0.816026
-0.764654
-0.705879
-0.645061
-0.584561
-0.527005
-0.476402
-0.438208
-0.391984
-0.351273
-0.2743
-0.253728
-0.263437
-0.281693
-0.302485
-0.311941
-0.314379
-0.313867
-0.828395
-0.818704
-0.793641
-0.753639
-0.704893
-0.652818
-0.599715
-0.548071
-0.501979
-0.466163
-0.426795
-0.315854
-0.123553
0.10322
0.00229307
-0.169371
-0.272223
-0.315411
-0.330067
-0.334582
-0.785258
-0.779747
-0.764933
-0.736012
-0.6979
-0.654317
-0.608288
-0.562071
-0.519377
-0.485362
-0.453531
-0.406043
-0.360053
-0.359923
-0.4442
-0.499332
-0.519113
-0.528534
-0.535956
-0.540353
-0.746534
-0.743195
-0.736165
-0.717268
-0.687858
-0.651513
-0.611375
-0.569359
-0.528402
-0.497063
-0.476389
-0.564546
-0.839607
-1.15025
-1.20471
-1.113
-1.01406
-0.925823
-0.862926
-0.85778
-0.719006
-0.716938
-0.713384
-0.701817
-0.678706
-0.647294
-0.610858
-0.570444
-0.528933
-0.489876
-0.472955
-0.51044
-0.717516
-1.01916
-1.32289
-1.39939
-1.34194
-1.20917
-1.08468
-1.01292
-0.698337
-0.697603
-0.69647
-0.690695
-0.673032
-0.644509
-0.608545
-0.567308
-0.520633
-0.469104
-0.433714
-0.410057
-0.418065
-0.392312
-0.347607
-0.262363
-0.193651
-0.140525
-0.0775555
-0.0362473
-0.686219
-0.685938
-0.685341
-0.682646
-0.670176
-0.643239
-0.605967
-0.561958
-0.509693
-0.451543
-0.394415
-0.342377
-0.198922
0.0922889
0.382762
0.65101
0.809976
0.88331
0.91666
0.928002
-0.678084
-0.677901
-0.677309
-0.676235
-0.668648
-0.643945
-0.605276
-0.55609
-0.498576
-0.427194
-0.345669
-0.259829
-0.0324984
0.351498
0.747493
1.10624
1.3047
1.38143
1.3932
1.38963
-0.673565
-0.673306
-0.672549
-0.671983
-0.668129
-0.647695
-0.606728
-0.552699
-0.486876
-0.406115
-0.311018
-0.210345
0.0205103
0.366828
0.701723
0.992809
1.17359
1.25799
1.29199
1.30114
-0.673333
-0.673202
-0.672792
-0.672006
-0.671929
-0.655503
-0.611247
-0.552371
-0.480472
-0.39413
-0.291248
-0.193489
0.00610806
0.311374
0.591139
0.820638
0.97166
1.06086
1.1159
1.13765
-0.674405
-0.675494
-0.678496
-0.683517
-0.686307
-0.667177
-0.618375
-0.556535
-0.48077
-0.387908
-0.287857
-0.194453
-0.0304057
0.236952
0.498529
0.719052
0.886449
0.991014
1.04583
1.06361
-0.676122
-0.677332
-0.677944
-0.676896
-0.676867
-0.661432
-0.624511
-0.567653
-0.487954
-0.391324
-0.293946
-0.204215
-0.080066
0.167617
0.402513
0.600249
0.762798
0.863764
0.910309
0.922708
-0.703631
-0.702035
-0.684734
-0.646187
-0.613851
-0.627998
-0.635687
-0.585406
-0.499445
-0.398252
-0.304194
-0.218715
-0.119332
0.0756433
0.27723
0.44648
0.580672
0.661237
0.695992
0.703917
-0.764509
-0.760782
-0.752963
-0.734041
-0.7205
-0.723257
-0.700859
-0.618415
-0.515249
-0.406791
-0.311896
-0.230878
-0.153007
-0.00739233
0.155918
0.287171
0.390444
0.449759
0.474374
0.47896
-0.888768
-0.903941
-0.945414
-0.989097
-0.99004
-0.947312
-0.824646
-0.669565
-0.530643
-0.411176
-0.317124
-0.243803
-0.180582
-0.0731759
0.0500527
0.149927
0.227459
0.269581
0.286315
0.287577
-1.00418
-1.02946
-1.07682
-1.11312
-1.11245
-1.05476
-0.888722
-0.691941
-0.531032
-0.406582
-0.315922
-0.253317
-0.2026
-0.127105
-0.0344685
0.0410372
0.0966671
0.126278
0.137103
0.137537
-0.958541
-0.979494
-1.01554
-1.04617
-1.04611
-0.983528
-0.81707
-0.641407
-0.495216
-0.382613
-0.305106
-0.254002
-0.217864
-0.164514
-0.102402
-0.0489914
-0.0101938
0.00993132
0.0168126
0.0155667
-0.712022
-0.732247
-0.76808
-0.804549
-0.813894
-0.758743
-0.640111
-0.521221
-0.41988
-0.339511
-0.281138
-0.242607
-0.217883
-0.185475
-0.147286
-0.117414
-0.0976292
-0.089626
-0.087471
-0.088806
-0.359812
-0.372342
-0.397368
-0.429394
-0.451978
-0.446494
-0.416187
-0.371579
-0.326658
-0.283776
-0.248624
-0.222239
-0.20407
-0.189276
-0.177192
-0.169972
-0.167912
-0.170159
-0.17145
-0.172052
-0.0694416
-0.0755392
-0.0920592
-0.121076
-0.159808
-0.19604
-0.221197
-0.235194
-0.236539
-0.227481
-0.214353
-0.199291
-0.186127
-0.185785
-0.191311
-0.199832
-0.211209
-0.218997
-0.221153
-0.22126
0.0849912
0.0814502
0.069413
0.0432127
0.000835334
-0.0515051
-0.100243
-0.13885
-0.164766
-0.179618
-0.185404
-0.184515
-0.180203
-0.187027
-0.198221
-0.211717
-0.22465
-0.231908
-0.233326
-0.233311
0.132718
0.130463
0.121485
0.100255
0.0638573
0.0168601
-0.0327137
-0.0782072
-0.115244
-0.143892
-0.166242
-0.185395
-0.195832
-0.198704
-0.201604
-0.208587
-0.215449
-0.218219
-0.218541
-0.218761
0.128341
0.12679
0.12043
0.105011
0.0780454
0.0416504
-0.000114847
-0.0418983
-0.0806339
-0.116198
-0.151714
-0.190863
-0.215933
-0.205862
-0.198506
-0.193736
-0.193422
-0.193151
-0.192922
-0.193223
0.106337
0.105339
0.101112
0.0906531
0.0719277
0.0455735
0.0132851
-0.0213204
-0.0563
-0.0917716
-0.13048
-0.176976
-0.201594
-0.18568
-0.170846
-0.165529
-0.163287
-0.162757
-0.162877
-0.163295
0.0820389
0.0814643
0.0788168
0.0720483
0.0595393
0.0412012
0.0176324
-0.00908998
-0.0373948
-0.0666377
-0.0972383
-0.130087
-0.142045
-0.134181
-0.129025
-0.129255
-0.130291
-0.131256
-0.131787
-0.132175
0.0606627
0.0603285
0.058781
0.054593
0.0465496
0.0342616
0.0179018
-0.00126445
-0.0217214
-0.0416448
-0.0580453
-0.0683442
-0.0690657
-0.0709841
-0.0801089
-0.089499
-0.0959135
-0.0991002
-0.10028
-0.100678
0.043412
0.0432351
0.0423445
0.0398607
0.0348792
0.0269818
0.0161849
0.00334936
-0.00982973
-0.020643
-0.0224926
-0.0126676
0.00184861
-0.0162492
-0.0364156
-0.0525046
-0.0626701
-0.0676044
-0.0694426
-0.0697786
0.0294925
0.0294393
0.0289994
0.027674
0.0248532
0.0201205
0.0134763
0.005625
-0.00173724
-0.00525605
0.00166187
0.0199094
0.0346833
0.0155822
-0.00717328
-0.0231414
-0.0328154
-0.0375808
-0.0396977
-0.0400759
0.0183734
0.0183854
0.0182061
0.0176338
0.0161853
0.0136564
0.0099486
0.00562521
0.00219021
0.00274862
0.012961
0.0304264
0.040247
0.024411
0.00723819
-0.0042576
-0.0105087
-0.0140182
-0.0158889
-0.0162225
0.00929951
0.00935399
0.0093366
0.00913583
0.00857749
0.00747123
0.00581388
0.00388452
0.00258597
0.00419672
0.0126642
0.0257349
0.0307201
0.0204631
0.0103608
0.00415473
0.00134365
-8.28716e-05
-0.00123171
-0.00167534
0.00146577
0.00151698
0.0015017
0.00160277
0.0017214
0.00168568
0.00140883
0.00101527
0.000714068
0.000841348
0.00197866
0.00577255
0.00912576
0.00740786
0.00485061
0.00419751
0.00350744
0.00218464
0.000896016
0.000842585
-0.11695
0.0490107
0.242524
0.411359
0.545883
0.65135
0.7383
0.812391
0.84631
0.823071
0.182966
0.302888
0.431809
0.54305
0.636601
0.713837
0.776348
0.820772
0.843009
0.855185
0.399918
0.482098
0.570189
0.647854
0.714575
0.770378
0.814776
0.847251
0.870789
0.88884
0.559482
0.618354
0.679349
0.736022
0.785237
0.827052
0.86143
0.888892
0.911575
0.929917
0.684054
0.72683
0.772494
0.815986
0.854429
0.888024
0.916806
0.94079
0.961108
0.978969
0.787835
0.820516
0.858429
0.893779
0.926249
0.955374
0.980842
1.00227
1.02008
1.03744
0.880049
0.908631
0.94247
0.974493
1.00435
1.03144
1.05513
1.07481
1.09029
1.10737
0.968439
0.997573
1.0315
1.06348
1.09303
1.11957
1.14239
1.16086
1.17421
1.19124
1.06363
1.0968
1.1334
1.16694
1.19695
1.2231
1.24503
1.2623
1.27415
1.29155
1.17856
1.21636
1.25498
1.2892
1.31852
1.34325
1.36361
1.37949
1.39095
1.40901
1.32346
1.36198
1.39811
1.42878
1.45445
1.47653
1.49558
1.5111
1.52352
1.54152
1.49851
1.53012
1.55629
1.57873
1.5987
1.61741
1.63512
1.6516
1.66694
1.68501
1.6871
1.7043
1.71933
1.73556
1.75146
1.76599
1.77919
1.79311
1.81065
1.83081
1.86882
1.87835
1.88989
1.9007
1.90998
1.91956
1.93034
1.9417
1.95306
1.96842
2.07604
2.07971
2.06476
2.04995
2.04367
2.04934
2.06782
2.09813
2.13031
2.15696
2.38236
2.2475
2.17086
2.12847
2.11105
2.11501
2.14241
2.19883
2.30144
2.52581
0.696322
0.694194
0.689711
0.681089
0.668868
0.656744
0.646523
0.638639
0.633037
0.629805
0.629477
0.632241
0.637364
0.644601
0.653998
0.665544
0.678199
0.689237
0.69535
0.698405
0.620768
0.626616
0.63295
0.637445
0.639919
0.6396
0.63687
0.633072
0.629579
0.627342
0.627223
0.629447
0.63313
0.637434
0.641251
0.64314
0.642209
0.638731
0.63357
0.626949
0.612332
0.614628
0.618033
0.621032
0.623111
0.624614
0.625378
0.625073
0.624066
0.623209
0.623414
0.624869
0.626706
0.628028
0.628219
0.627336
0.625793
0.623461
0.6202
0.617281
0.606804
0.60789
0.609725
0.612106
0.614134
0.615569
0.616599
0.617365
0.617787
0.618038
0.618563
0.619402
0.620023
0.620107
0.619707
0.618868
0.617405
0.615326
0.613244
0.611862
0.601579
0.602241
0.603351
0.605059
0.606846
0.608486
0.609792
0.610824
0.61173
0.612553
0.613321
0.613909
0.614129
0.613983
0.613431
0.612387
0.610967
0.60943
0.608116
0.607338
0.596575
0.597035
0.597822
0.599124
0.600617
0.602143
0.60362
0.604936
0.606099
0.607192
0.608152
0.608762
0.608939
0.60869
0.60801
0.607034
0.605919
0.604794
0.603884
0.603368
0.591711
0.592055
0.592667
0.59374
0.59504
0.596424
0.597877
0.599343
0.600746
0.602069
0.603232
0.603973
0.604188
0.603942
0.603365
0.602605
0.601767
0.60091
0.600244
0.599866
0.586933
0.5872
0.587694
0.588608
0.589785
0.591092
0.592502
0.594014
0.595589
0.597157
0.598567
0.599495
0.599842
0.599758
0.599392
0.598853
0.598221
0.597594
0.597109
0.596822
0.582157
0.582369
0.582781
0.583584
0.584681
0.585942
0.587345
0.588907
0.590617
0.592429
0.594133
0.59533
0.595924
0.596086
0.595955
0.595641
0.595218
0.594785
0.594441
0.594216
0.577295
0.577466
0.577819
0.57855
0.579602
0.580843
0.582276
0.583924
0.585796
0.587869
0.589925
0.591488
0.592413
0.592868
0.592994
0.592914
0.592708
0.59245
0.592223
0.592044
0.572259
0.572396
0.572708
0.573394
0.574431
0.575697
0.577199
0.578978
0.581066
0.583457
0.585942
0.58796
0.589282
0.590078
0.590497
0.590668
0.590675
0.590588
0.590461
0.590317
0.566956
0.567067
0.56735
0.568018
0.569073
0.570411
0.572027
0.573989
0.57636
0.579154
0.582169
0.584734
0.586523
0.587714
0.588466
0.58891
0.589142
0.589227
0.589186
0.58907
0.56129
0.561377
0.561645
0.562318
0.563429
0.56488
0.566664
0.568878
0.571611
0.574914
0.578578
0.581799
0.584144
0.585793
0.58692
0.587684
0.588166
0.588414
0.588451
0.588355
0.55515
0.555217
0.555478
0.556179
0.557384
0.558995
0.561011
0.563557
0.566751
0.570688
0.575143
0.579154
0.582159
0.584346
0.585905
0.587029
0.587787
0.588212
0.588322
0.588243
0.548407
0.548454
0.548717
0.549468
0.550806
0.552634
0.554955
0.557926
0.561703
0.566422
0.57184
0.576799
0.580588
0.583412
0.58548
0.587004
0.588084
0.588701
0.588883
0.588818
0.540903
0.540932
0.5412
0.542024
0.54354
0.545649
0.548362
0.551871
0.556377
0.562058
0.568644
0.57474
0.57946
0.583033
0.585705
0.587712
0.589154
0.589975
0.59023
0.590174
0.532435
0.532449
0.532723
0.533647
0.535398
0.537854
0.54107
0.54526
0.550674
0.557537
0.565537
0.572991
0.578813
0.583268
0.586653
0.589235
0.591089
0.592138
0.592465
0.592417
0.522702
0.522687
0.523017
0.524084
0.52612
0.529034
0.532888
0.537935
0.544481
0.552797
0.562506
0.571574
0.578695
0.58419
0.588409
0.591664
0.593998
0.595293
0.595693
0.595647
0.511402
0.511363
0.511739
0.513
0.515408
0.518912
0.523578
0.52971
0.537672
0.547777
0.559544
0.570521
0.579161
0.585872
0.591069
0.595099
0.59798
0.59954
0.600009
0.599962
0.49805
0.497983
0.498439
0.499953
0.502848
0.507121
0.51284
0.520363
0.530113
0.542421
0.556656
0.569872
0.580268
0.588377
0.594717
0.599636
0.603127
0.604959
0.605488
0.605434
0.481988
0.481892
0.482475
0.484343
0.48789
0.49319
0.500305
0.509644
0.521669
0.536694
0.553869
0.569683
0.582085
0.591781
0.599413
0.60534
0.609491
0.611589
0.612161
0.612094
0.462271
0.462148
0.462935
0.46532
0.469785
0.476514
0.485534
0.497293
0.512246
0.530618
0.55126
0.570036
0.584685
0.596149
0.605193
0.612249
0.617077
0.619407
0.619995
0.619906
0.437467
0.437329
0.438452
0.44164
0.447496
0.456317
0.46804
0.483091
0.50182
0.524283
0.548956
0.571038
0.58814
0.601523
0.612102
0.620335
0.625806
0.628298
0.628862
0.628745
0.405252
0.405137
0.406875
0.411454
0.419621
0.431703
0.44739
0.46696
0.490523
0.517898
0.547151
0.572829
0.592525
0.607927
0.620104
0.629515
0.635496
0.63803
0.638523
0.638372
0.361444
0.361494
0.364585
0.372063
0.384518
0.401915
0.423475
0.449133
0.478713
0.511815
0.546111
0.575568
0.597921
0.615356
0.629113
0.639593
0.645837
0.648241
0.648613
0.648428
0.298214
0.299433
0.306989
0.320939
0.341232
0.367088
0.39692
0.430334
0.467033
0.506514
0.546129
0.579406
0.604362
0.623743
0.638917
0.650146
0.65635
0.658386
0.658589
0.658383
0.223288
0.225077
0.239539
0.263492
0.294757
0.330602
0.369446
0.411112
0.45542
0.501898
0.547623
0.585554
0.613792
0.635563
0.652348
0.664253
0.670184
0.671908
0.672067
0.671949
0.146013
0.152253
0.173605
0.207848
0.24955
0.29509
0.342908
0.392874
0.444865
0.498435
0.550421
0.593123
0.624679
0.64889
0.66746
0.679576
0.684777
0.686004
0.686103
0.686059
0.0827875
0.0913539
0.117283
0.158569
0.208452
0.262256
0.318161
0.375891
0.435219
0.495627
0.553607
0.600788
0.635415
0.661702
0.681297
0.693489
0.698428
0.69955
0.69967
0.699685
0.0313681
0.0405325
0.0700217
0.116561
0.172616
0.233085
0.295836
0.360432
0.426461
0.493264
0.556932
0.608379
0.645877
0.674139
0.694927
0.707433
0.712143
0.713256
0.713459
0.713522
-0.0116375
-0.00219298
0.0297493
0.0802955
0.141421
0.207421
0.275979
0.346575
0.418634
0.49136
0.560409
0.615941
0.656227
0.686425
0.708368
0.721286
0.72619
0.727521
0.727747
0.727839
-0.0485997
-0.03905
-0.0052723
0.0484817
0.113801
0.184521
0.258145
0.334072
0.411617
0.489837
0.563973
0.623431
0.666431
0.698537
0.72177
0.735369
0.740626
0.742063
0.74229
0.742379
-0.0812012
-0.0716244
-0.0364422
0.0200192
0.0888556
0.163652
0.241768
0.322501
0.405075
0.488427
0.567413
0.630666
0.676311
0.710308
0.734724
0.749145
0.754805
0.75636
0.756581
0.75665
-0.110736
-0.10113
-0.0647973
-0.00599899
0.0658543
0.144223
0.226335
0.31143
0.398663
0.486874
0.570523
0.637455
0.685668
0.721456
0.747083
0.762164
0.768292
0.769962
0.77018
0.770232
-0.138098
-0.128456
-0.0911279
-0.0302909
0.0442385
0.125772
0.211465
0.300543
0.392114
0.484935
0.573099
0.643627
0.694328
0.731834
0.75854
0.774291
0.780836
0.782579
0.78278
0.782801
-0.163862
-0.154166
-0.115909
-0.0533528
0.0235916
0.107954
0.196878
0.289596
0.3852
0.482415
0.574995
0.649087
0.702231
0.741378
0.769098
0.785317
0.79214
0.793957
0.794145
0.794132
-0.188525
-0.178695
-0.139568
-0.0754832
0.00363081
0.0905207
0.182364
0.278407
0.377775
0.479188
0.576108
0.653785
0.709369
0.750084
0.77868
0.795265
0.802219
0.804049
0.804222
0.804167
-0.212362
-0.202325
-0.16247
-0.0968802
-0.0158387
0.0733051
0.167785
0.266871
0.369737
0.475156
0.576362
0.657689
0.715775
0.758033
0.78738
0.804191
0.811128
0.812935
0.813086
0.813016
-0.235486
-0.225253
-0.184672
-0.117691
-0.0349419
0.0562271
0.153071
0.254922
0.361019
0.470238
0.575687
0.660786
0.721507
0.765361
0.795344
0.812207
0.819041
0.820764
0.820873
0.820775
-0.258084
-0.247568
-0.206247
-0.138009
-0.0537353
0.0392361
0.138192
0.242535
0.351599
0.4644
0.574023
0.663048
0.726632
0.772208
0.802772
0.819524
0.826101
0.827676
0.827734
0.827616
-0.28011
-0.269335
-0.227314
-0.157888
-0.0722379
0.0223296
0.123163
0.229732
0.341483
0.457618
0.571314
0.664429
0.731199
0.778737
0.809872
0.826297
0.832432
0.833775
0.833754
0.833615
-0.301638
-0.290574
-0.247807
-0.177323
-0.0904414
0.00552916
0.108016
0.216559
0.330712
0.449897
0.567511
0.66486
0.735207
0.785085
0.816903
0.832782
0.838149
0.839108
0.838999
0.838862
-0.322514
-0.311229
-0.267727
-0.196277
-0.108308
-0.0111027
0.0928061
0.203075
0.319345
0.441283
0.562581
0.664255
0.73859
0.791339
0.82419
0.839398
0.843586
0.843841
0.843569
0.843447
-0.342877
-0.331262
-0.28707
-0.214739
-0.125814
-0.0275338
0.0776185
0.189354
0.307463
0.431845
0.55652
0.662503
0.741214
0.797469
0.83201
0.846792
0.849414
0.848303
0.847568
0.847479
-0.36257
-0.350653
-0.305811
-0.232673
-0.142885
-0.0436845
0.0625287
0.175511
0.295167
0.421638
0.549355
0.659487
0.742877
0.803277
0.840401
0.855683
0.856979
0.853712
0.851432
0.850686
-0.381658
-0.369452
-0.323902
-0.250033
-0.15949
-0.0594893
0.047617
0.161621
0.282564
0.410791
0.541146
0.65509
0.743327
0.808381
0.848911
0.866258
0.867906
0.86296
0.856604
0.848567
-0.40006
-0.387614
-0.341436
-0.266973
-0.175836
-0.0752138
0.0325594
0.147299
0.269226
0.398828
0.531392
0.648797
0.742123
0.812515
0.856993
0.878007
0.88268
0.877462
0.866564
0.861856
-0.417731
-0.405065
-0.358399
-0.283469
-0.191933
-0.090853
0.0173653
0.132525
0.2551