/*--------------------------------*- C++ -*----------------------------------*\
| =========                 |                                                 |
| \\      /  F ield         | OpenFOAM: The Open Source CFD Toolbox           |
|  \\    /   O peration     | Version:  4.0                                   |
|   \\  /    A nd           | Web:      www.OpenFOAM.org                      |
|    \\/     M anipulation  |                                                 |
\*---------------------------------------------------------------------------*/
FoamFile
{
    version     2.0;
    format      ascii;
    class       volScalarField;
    location    "36";
    object      p;
}
// * * * * * * * * * * * * * * * * * * * * * * * * * * * * * * * * * * * * * //

dimensions      [0 2 -2 0 0 0 0];

internalField   nonuniform List<scalar> 
2200
(
0.869289
0.847788
0.831878
0.816208
0.801593
0.789062
0.77869
0.770551
0.764807
0.761792
0.762185
0.765919
0.772188
0.780696
0.791332
0.804061
0.818818
0.834673
0.85068
0.872187
0.801743
0.798485
0.795557
0.791428
0.785948
0.779459
0.772819
0.766837
0.762284
0.759814
0.760208
0.763429
0.768536
0.774936
0.781876
0.788592
0.794231
0.798359
0.801248
0.804581
0.761847
0.762065
0.764108
0.76544
0.765824
0.764954
0.762945
0.760245
0.757666
0.756116
0.756582
0.758925
0.762109
0.765259
0.767562
0.768561
0.768269
0.767211
0.76548
0.765237
0.73934
0.740784
0.743391
0.745857
0.748292
0.750297
0.751436
0.751626
0.751201
0.750831
0.751363
0.752623
0.753736
0.754058
0.753309
0.751598
0.749404
0.747159
0.744552
0.74314
0.725103
0.727078
0.72989
0.732705
0.735531
0.738329
0.740754
0.742566
0.743719
0.744402
0.745009
0.745378
0.745038
0.743853
0.741921
0.739502
0.736917
0.734178
0.731391
0.72946
0.717844
0.719446
0.721634
0.724145
0.726787
0.729425
0.731963
0.734332
0.73628
0.737677
0.73839
0.738268
0.737301
0.735672
0.733692
0.731469
0.729098
0.726733
0.724622
0.723045
0.71445
0.715469
0.716734
0.718597
0.720739
0.722886
0.725029
0.72725
0.729378
0.731106
0.731963
0.731781
0.730856
0.729524
0.728037
0.726382
0.724607
0.722973
0.721829
0.720817
0.711951
0.712617
0.713248
0.714547
0.716152
0.717802
0.719492
0.72131
0.723218
0.724998
0.72604
0.72614
0.725671
0.724925
0.724026
0.722987
0.721842
0.72086
0.720378
0.719706
0.708926
0.709375
0.709772
0.710762
0.712008
0.713361
0.714799
0.716353
0.718031
0.719753
0.721025
0.721601
0.721663
0.72144
0.72099
0.720372
0.719672
0.719048
0.718818
0.718359
0.705032
0.705328
0.705693
0.706584
0.707713
0.708991
0.710414
0.71197
0.713656
0.715446
0.717013
0.718024
0.718502
0.718587
0.7184
0.718025
0.71755
0.717088
0.7169
0.71659
0.700535
0.700721
0.701113
0.701998
0.703154
0.704513
0.706053
0.707749
0.709593
0.711601
0.71352
0.714923
0.715724
0.716048
0.716028
0.7158
0.715447
0.715085
0.714904
0.714695
0.695733
0.695863
0.696242
0.697105
0.698321
0.699822
0.701559
0.7035
0.705645
0.708019
0.710391
0.712246
0.713355
0.713886
0.713997
0.713847
0.713607
0.713363
0.713214
0.713065
0.690658
0.690745
0.691122
0.69195
0.693194
0.694809
0.696788
0.699123
0.701797
0.704779
0.707709
0.709927
0.711279
0.711968
0.712248
0.712309
0.712251
0.712141
0.712034
0.711909
0.685118
0.685171
0.685549
0.686421
0.687756
0.689497
0.691667
0.69434
0.697578
0.701283
0.704856
0.707488
0.709182
0.710231
0.710874
0.711216
0.711324
0.711336
0.711284
0.71118
0.679177
0.679159
0.679579
0.680481
0.681957
0.683847
0.686181
0.689081
0.692708
0.697062
0.701473
0.704966
0.707404
0.709105
0.710208
0.710779
0.71108
0.711204
0.711198
0.71112
0.672953
0.672859
0.673269
0.674245
0.675869
0.677993
0.680601
0.683845
0.687935
0.69301
0.698469
0.703102
0.70648
0.708829
0.710363
0.711271
0.711813
0.712056
0.712103
0.712041
0.666195
0.666195
0.666524
0.667523
0.669436
0.67189
0.675016
0.678986
0.683979
0.690144
0.696831
0.702526
0.706674
0.70957
0.71154
0.712871
0.713674
0.714067
0.714173
0.714111
0.658445
0.658416
0.658856
0.6601
0.662255
0.665112
0.668909
0.673845
0.680088
0.687774
0.69595
0.702777
0.707742
0.711314
0.713861
0.715586
0.716626
0.717187
0.717362
0.717296
0.649525
0.649435
0.649969
0.651405
0.653813
0.657132
0.661619
0.667503
0.675127
0.6846
0.694679
0.703113
0.709359
0.713893
0.717142
0.719374
0.720796
0.721572
0.721821
0.721737
0.638729
0.638624
0.639211
0.640837
0.643668
0.647605
0.652935
0.660014
0.669201
0.68073
0.693131
0.703599
0.711423
0.717212
0.721391
0.724318
0.726244
0.727262
0.727592
0.727478
0.625634
0.625513
0.626197
0.62812
0.631515
0.636392
0.64309
0.65192
0.66331
0.677437
0.692472
0.705137
0.714617
0.72169
0.726863
0.73059
0.73307
0.734345
0.734744
0.734588
0.609202
0.609118
0.61009
0.612557
0.616934
0.623235
0.631806
0.64311
0.657464
0.674819
0.692886
0.707943
0.71923
0.727654
0.733873
0.73834
0.741326
0.742825
0.743275
0.743078
0.588462
0.588311
0.589625
0.592992
0.598789
0.607155
0.618426
0.632986
0.651001
0.672249
0.693924
0.711735
0.725007
0.734943
0.742286
0.747599
0.751119
0.752842
0.753344
0.753098
0.561015
0.561072
0.563194
0.567946
0.576057
0.587597
0.602613
0.621348
0.643786
0.669575
0.695334
0.716311
0.731882
0.743556
0.75225
0.758535
0.762617
0.764552
0.765076
0.764775
0.524052
0.524364
0.528031
0.535805
0.547881
0.564244
0.584481
0.608596
0.636387
0.667379
0.697654
0.722007
0.740011
0.753516
0.763631
0.771
0.775693
0.777852
0.778402
0.778007
0.474546
0.474994
0.482139
0.495161
0.513755
0.537291
0.564514
0.595312
0.629409
0.666255
0.701348
0.729169
0.749661
0.765098
0.776722
0.785121
0.790321
0.792538
0.792972
0.792544
0.408657
0.411642
0.427068
0.448574
0.47606
0.508249
0.543563
0.581904
0.62304
0.666427
0.706962
0.738963
0.762726
0.780684
0.794255
0.804258
0.810475
0.812931
0.813186
0.812958
0.333463
0.343233
0.36902
0.400533
0.438045
0.479186
0.522554
0.568658
0.617218
0.667655
0.714476
0.75153
0.779167
0.800326
0.816668
0.828657
0.836185
0.838811
0.838974
0.839155
0.266816
0.281966
0.314256
0.354202
0.401017
0.450911
0.502307
0.556181
0.612084
0.669399
0.722046
0.763661
0.794832
0.818713
0.836894
0.85039
0.85883
0.862642
0.863522
0.863492
0.216367
0.229928
0.26753
0.313324
0.36724
0.424389
0.483203
0.544389
0.607197
0.671041
0.729327
0.775212
0.809262
0.835132
0.855041
0.870066
0.87912
0.88318
0.884002
0.884094
0.174865
0.187486
0.228541
0.278212
0.337497
0.4004
0.465569
0.533234
0.602339
0.672384
0.736118
0.785595
0.822092
0.849706
0.870585
0.886342
0.895903
0.900174
0.901171
0.901281
0.139173
0.152066
0.195492
0.247963
0.311382
0.378878
0.449386
0.522644
0.597465
0.673231
0.74162
0.794316
0.832843
0.861618
0.883212
0.899103
0.909069
0.9137
0.914882
0.914994
0.108027
0.12108
0.166482
0.221403
0.288176
0.359453
0.434428
0.512482
0.592363
0.673091
0.74577
0.801402
0.841542
0.871255
0.893202
0.909336
0.919882
0.924766
0.926159
0.926262
0.0800453
0.0931696
0.140213
0.19738
0.267076
0.341574
0.420367
0.502599
0.586973
0.6725
0.749317
0.807413
0.848892
0.879331
0.901979
0.918376
0.929151
0.934294
0.93577
0.935817
0.0544486
0.0675587
0.115839
0.175147
0.247454
0.324769
0.406899
0.492816
0.58126
0.67098
0.751181
0.812058
0.855174
0.886584
0.909716
0.926352
0.937192
0.942385
0.94382
0.943609
0.0303859
0.0438425
0.092937
0.154265
0.228844
0.308648
0.39367
0.482764
0.574731
0.668217
0.752734
0.81649
0.86107
0.89327
0.916735
0.933493
0.944049
0.949277
0.950691
0.950541
0.00777608
0.0213186
0.0712299
0.134384
0.210941
0.292934
0.380465
0.472402
0.567772
0.665423
0.753821
0.819991
0.866673
0.899772
0.923386
0.940125
0.95074
0.955739
0.957258
0.957155
-0.0136013
-5.98203e-05
0.0505265
0.11521
0.193449
0.277424
0.367264
0.461875
0.560422
0.661518
0.753143
0.823137
0.871932
0.905951
0.930123
0.946793
0.957285
0.962222
0.963573
0.963508
-0.0342424
-0.0204626
0.0306257
0.0965745
0.176258
0.262057
0.35403
0.45101
0.55219
0.656501
0.752674
0.826199
0.877027
0.912607
0.937072
0.95368
0.96396
0.968619
0.969929
0.969816
-0.0545449
-0.0401194
0.0113519
0.0783989
0.159327
0.246757
0.340623
0.439709
0.543421
0.651155
0.751252
0.827908
0.882079
0.919371
0.944537
0.96101
0.970734
0.975127
0.976143
0.976001
-0.0745371
-0.0592892
-0.00743481
0.0606199
0.142623
0.231473
0.327027
0.428078
0.534256
0.64501
0.748556
0.829457
0.886796
0.92645
0.952766
0.969015
0.97788
0.981436
0.982156
0.981963
-0.0940635
-0.0780756
-0.0257838
0.0432175
0.126149
0.216233
0.313299
0.41617
0.52452
0.637814
0.744683
0.829634
0.890964
0.933898
0.962036
0.978162
0.985532
0.987634
0.987717
0.987563
-0.113014
-0.096473
-0.0436815
0.026215
0.109961
0.201101
0.299472
0.403928
0.514129
0.629664
0.739769
0.828857
0.894549
0.941559
0.972547
0.989334
0.994862
0.993265
0.992519
0.993228
-0.131339
-0.114387
-0.0610674
0.00965944
0.0941226
0.186146
0.285597
0.391368
0.503178
0.620816
0.733631
0.826431
0.897002
0.949
0.984268
1.00318
1.00762
1.00177
0.996274
0.99432
-0.149023
-0.131724
-0.0778807
-0.00639763
0.0787046
0.17145
0.271762
0.378617
0.491802
0.61114
0.726037
0.822619
0.897937
0.955765
0.996986
1.02039
1.02813
1.01617
1.01315
1.01762
-0.166057
-0.148417
-0.0940628
-0.0219033
0.0637651
0.157099
0.258079
0.365771
0.48005
0.6008
0.717747
0.81712
0.896727
0.960728
1.00945
1.04058
1.05542
1.02987
0.986444
0.946687
-0.182385
-0.164473
-0.109649
-0.0369257
0.0492056
0.142981
0.244421
0.352689
0.467772
0.589656
0.70806
0.809259
0.892612
0.962706
1.02027
1.06272
1.09254
1.08656
1.10369
1.15743
-0.197958
-0.179942
-0.124731
-0.0516052
0.0348353
0.128863
0.230532
0.339065
0.454536
0.577101
0.696553
0.79886
0.884443
0.958896
1.02112
1.06708
1.09008
1.07954
1.04389
1.05512
-0.21275
-0.194793
-0.139267
-0.0658937
0.0207239
0.114835
0.216539
0.325084
0.440577
0.563357
0.683079
0.785425
0.870623
0.945225
1.00672
1.05028
1.04754
1.00083
0.940354
0.929326
-0.226762
-0.209027
-0.153258
-0.0797962
0.00686461
0.100892
0.20245
0.310768
0.425932
0.548239
0.667327
0.768694
0.851295
0.920178
0.974913
0.991114
0.960505
0.888397
0.816077
0.798668
-0.240025
-0.22263
-0.166717
-0.0933342
-0.00676455
0.0870189
0.188257
0.296118
0.410597
0.531871
0.649687
0.748819
0.825375
0.881678
0.911886
0.903308
0.852464
0.753068
0.667002
0.647487
-0.253003
-0.23602
-0.180042
-0.106876
-0.0205178
0.0729018
0.17368
0.280879
0.394342
0.514032
0.629696
0.724869
0.794338
0.834826
0.830911
0.798435
0.693006
0.572575
0.466451
0.441568
-0.266594
-0.249981
-0.193934
-0.121049
-0.03497
0.0580541
0.158298
0.264688
0.376875
0.494533
0.60706
0.697103
0.759527
0.7767
0.7423
0.657918
0.503485
0.352208
0.224637
0.198796
-0.281325
-0.264944
-0.208716
-0.136086
-0.0503026
0.0423427
0.142009
0.247486
0.358208
0.473391
0.581892
0.666449
0.717526
0.708148
0.653159
0.505557
0.305069
0.0919143
-0.088235
-0.135
-0.297287
-0.280968
-0.224442
-0.152012
-0.0664889
0.025798
0.124847
0.229305
0.338409
0.450786
0.554151
0.633252
0.669088
0.628316
0.539947
0.350411
0.115893
-0.176267
-0.500997
-0.645953
-0.314565
-0.29819
-0.241229
-0.168902
-0.0835781
0.00836064
0.106753
0.210115
0.317463
0.426708
0.52423
0.597422
0.616356
0.543377
0.405962
0.196161
-0.0434875
-0.393981
-0.989643
-1.56613
-0.333209
-0.316637
-0.259136
-0.186821
-0.101587
-0.00995337
0.0877885
0.19001
0.295517
0.401588
0.493302
0.558665
0.559981
0.467642
0.275498
0.0353817
-0.174783
-0.418932
-0.991497
-2.54231
-0.353227
-0.336473
-0.278263
-0.205879
-0.12067
-0.0293367
0.0677227
0.168745
0.272279
0.375027
0.460927
0.517087
0.499397
0.407752
0.178062
-0.0678951
-0.223014
-0.267805
-0.26803
-0.66453
-0.374507
-0.357703
-0.298764
-0.226384
-0.141219
-0.0502626
0.0459648
0.145563
0.246825
0.345627
0.426093
0.471936
0.437901
0.359057
0.12614
-0.0860263
-0.203899
-0.215455
-0.164996
-0.207274
-0.39702
-0.380283
-0.320636
-0.248367
-0.163289
-0.072845
0.0223749
0.120338
0.218971
0.313221
0.389044
0.42544
0.383571
0.307792
0.091899
-0.0793445
-0.165518
-0.173249
-0.220538
-0.227462
-0.420648
-0.403877
-0.343788
-0.271843
-0.186865
-0.0970791
-0.0030669
0.0929984
0.18871
0.27829
0.349604
0.377331
0.335435
0.246934
0.0638789
-0.0699127
-0.146124
-0.115916
-0.138904
-0.140715
-0.445263
-0.428211
-0.368135
-0.296678
-0.21177
-0.122877
-0.0302488
0.0637355
0.156222
0.241262
0.308049
0.325789
0.293417
0.180148
0.0295641
-0.0641755
-0.114574
-0.154281
-0.130893
-0.138659
-0.470334
-0.452942
-0.393551
-0.322715
-0.237788
-0.150036
-0.0589633
0.0327635
0.121644
0.202374
0.265112
0.272456
0.250883
0.116505
-0.00965608
-0.0777062
-0.0677374
-0.128782
-0.104037
-0.109844
-0.495301
-0.477729
-0.41981
-0.349471
-0.264547
-0.178287
-0.0888698
0.000488516
0.0853343
0.162099
0.222184
0.22077
0.200876
0.0636396
-0.0399027
-0.0971185
-0.0724452
-0.102333
-0.104302
-0.104834
-0.519535
-0.502249
-0.446042
-0.37626
-0.291737
-0.207195
-0.119515
-0.0325722
0.048006
0.120775
0.179586
0.172003
0.145099
0.0186101
-0.0579797
-0.0964907
-0.11709
-0.10496
-0.110598
-0.107562
-0.542361
-0.525784
-0.471243
-0.4022
-0.3189
-0.236178
-0.150266
-0.0658239
0.0105219
0.0788023
0.13695
0.124863
0.0866683
-0.0182413
-0.0732487
-0.0851185
-0.139892
-0.105591
-0.112635
-0.106027
-0.562829
-0.54738
-0.494494
-0.426483
-0.345602
-0.264411
-0.180342
-0.0984203
-0.0258476
0.0369788
0.0954786
0.0796512
0.030414
-0.0438848
-0.0886848
-0.083693
-0.141088
-0.0948688
-0.101324
-0.0951231
-0.579734
-0.565791
-0.515102
-0.448518
-0.37062
-0.290835
-0.20882
-0.129504
-0.0601607
-0.00388821
0.0545625
0.0343469
-0.0272576
-0.0622694
-0.0724625
-0.0542977
-0.0657991
-0.0758235
-0.0855256
-0.0871324
-0.591986
-0.580003
-0.532102
-0.467556
-0.3925
-0.314434
-0.234702
-0.157913
-0.0910822
-0.0417746
0.0159941
-0.00718447
-0.0924224
-0.0918035
-0.0139893
0.0168958
-0.0133015
-0.0564743
-0.0753006
-0.0892366
-0.598473
-0.588695
-0.544458
-0.482218
-0.409707
-0.33401
-0.256743
-0.182306
-0.117279
-0.0737058
-0.0201008
-0.0401797
-0.163758
-0.225623
-0.179552
-0.212968
-0.220653
-0.222732
-0.225572
-0.219523
-0.598625
-0.590837
-0.550571
-0.491159
-0.421359
-0.348244
-0.273475
-0.20112
-0.137401
-0.096392
-0.0518164
-0.0669446
-0.238343
-0.484975
-0.740742
-0.876593
-0.901377
-0.852458
-0.786756
-0.724499
-0.591482
-0.584266
-0.548796
-0.493067
-0.426347
-0.35598
-0.283513
-0.212553
-0.148651
-0.106105
-0.070547
-0.0771805
-0.268301
-0.621982
-1.08824
-1.30931
-1.3333
-1.25142
-1.15635
-1.08425
-0.573215
-0.56561
-0.536806
-0.486606
-0.423843
-0.356268
-0.285823
-0.21505
-0.148146
-0.0987923
-0.0632146
-0.0465051
-0.157014
-0.338995
-0.581761
-0.656855
-0.588156
-0.506305
-0.386439
-0.321813
-0.537786
-0.530948
-0.513516
-0.47183
-0.413682
-0.348743
-0.279861
-0.207698
-0.134397
-0.0698044
-0.0177112
0.0646208
0.157996
0.342501
0.499399
0.657232
0.80162
0.896008
0.950702
1.00037
-0.491805
-0.48801
-0.48257
-0.449584
-0.397624
-0.334997
-0.265921
-0.190925
-0.108649
-0.0204927
0.0662234
0.215717
0.458324
0.843782
1.21529
1.52294
1.74173
1.87673
1.94416
1.96596
-0.457993
-0.457789
-0.452143
-0.426841
-0.379599
-0.317713
-0.246634
-0.167834
-0.0774008
0.0303013
0.14605
0.297108
0.598256
0.997521
1.38722
1.71812
1.95669
2.09447
2.1548
2.17077
-0.426165
-0.427077
-0.421335
-0.405898
-0.363048
-0.301024
-0.227106
-0.145765
-0.0532023
0.0571129
0.174662
0.280758
0.536503
0.864766
1.17424
1.4377
1.64322
1.7672
1.82419
1.84123
-0.396746
-0.39591
-0.395375
-0.388465
-0.346023
-0.284421
-0.21003
-0.12825
-0.0397671
0.0602806
0.170543
0.240418
0.434013
0.700171
0.942013
1.14691
1.31446
1.41939
1.46643
1.4791
-0.377774
-0.37644
-0.382034
-0.37188
-0.329154
-0.267099
-0.194001
-0.115531
-0.0344894
0.0501446
0.151721
0.20382
0.333932
0.540583
0.731117
0.885473
1.00926
1.09171
1.12891
1.13892
-0.343689
-0.343529
-0.350186
-0.340207
-0.302563
-0.243361
-0.175013
-0.102701
-0.0304209
0.0390124
0.130377
0.176757
0.256136
0.410602
0.559795
0.674924
0.764082
0.824761
0.851243
0.856817
-0.282469
-0.284079
-0.288628
-0.280939
-0.252085
-0.203481
-0.147321
-0.0855006
-0.0230983
0.0329794
0.111817
0.156199
0.20303
0.316085
0.429095
0.512594
0.575729
0.619066
0.637519
0.643593
-0.19608
-0.198303
-0.200367
-0.195538
-0.176303
-0.144902
-0.106091
-0.0603116
-0.00942152
0.0352947
0.0989266
0.139485
0.169605
0.253799
0.335245
0.393267
0.438051
0.473015
0.485684
0.48908
-0.100287
-0.101561
-0.103398
-0.101828
-0.0929318
-0.0771639
-0.0554708
-0.0267905
0.0109715
0.0441159
0.0919287
0.124994
0.146795
0.211943
0.268801
0.308823
0.341364
0.363167
0.373799
0.377293
-0.0182736
-0.0193618
-0.0206952
-0.0214646
-0.0197439
-0.0147656
-0.00570806
0.00947021
0.033612
0.0550804
0.0883792
0.113759
0.129484
0.179219
0.220187
0.247112
0.268513
0.281446
0.287427
0.289064
0.0430069
0.0423079
0.040897
0.0381577
0.0349022
0.0334152
0.0347867
0.0406112
0.0529633
0.0657693
0.0860823
0.106339
0.116931
0.153727
0.182603
0.201701
0.213911
0.220308
0.221931
0.221379
0.0810004
0.0804834
0.0791186
0.0754057
0.0693931
0.0644947
0.0617696
0.0619954
0.0668663
0.0745465
0.0863351
0.0999241
0.110063
0.132745
0.152019
0.164748
0.171305
0.17328
0.172588
0.171036
0.101059
0.10062
0.0993587
0.0955973
0.0890134
0.0826996
0.077804
0.0750309
0.0763427
0.0808177
0.0888079
0.0970526
0.105611
0.117057
0.126572
0.131862
0.134873
0.134198
0.132347
0.131062
0.109403
0.109045
0.107981
0.104838
0.0991564
0.0930478
0.0876016
0.0834644
0.0829925
0.0843524
0.0904198
0.0956552
0.100356
0.105977
0.109371
0.109937
0.110025
0.109119
0.10702
0.105488
0.111473
0.111187
0.11032
0.107933
0.103515
0.0985375
0.0935947
0.0890037
0.0872532
0.0858717
0.0897639
0.0925506
0.0936411
0.0969441
0.099595
0.100732
0.100169
0.0991779
0.0974307
0.0952649
0.110225
0.110008
0.1093
0.107615
0.104324
0.100483
0.0963138
0.0919432
0.0895357
0.0865508
0.0873917
0.0870277
0.0865636
0.0888681
0.091605
0.0941951
0.094983
0.0926017
0.0909064
0.0893553
0.107688
0.107516
0.106942
0.105665
0.103131
0.100269
0.0968671
0.0931699
0.090651
0.0869816
0.0851148
0.0829331
0.0822408
0.0836273
0.0863555
0.0881177
0.0889151
0.0885743
0.0877098
0.0864161
0.104729
0.104581
0.104136
0.103209
0.101363
0.0992579
0.0965874
0.0934426
0.0907329
0.0865891
0.0834306
0.080144
0.0797362
0.0820829
0.0855912
0.0881391
0.0893822
0.09213
0.0935836
0.091481
0.102065
0.101933
0.101629
0.100919
0.0995543
0.0980471
0.0959766
0.0931159
0.090381
0.0856783
0.0813804
0.0762034
0.0727658
0.078926
0.0864071
0.0913945
0.0971213
0.100165
0.101591
0.0997124
0.0997332
0.0996088
0.0994186
0.098894
0.0978982
0.0968153
0.0958271
0.0932569
0.0911214
0.0863757
0.0802916
0.0747921
0.0675552
0.0738248
0.0847231
0.0913424
0.0964825
0.0970858
0.0966203
0.0959679
0.0976664
0.0975778
0.097492
0.0971018
0.0965402
0.09592
0.0959602
0.0943545
0.0930757
0.0888303
0.082654
0.0746077
0.0675997
0.0730951
0.0795892
0.083062
0.0823504
0.0825636
0.0834734
0.0830481
0.0949988
0.0950011
0.095173
0.0954297
0.0956985
0.0952145
0.0951847
0.095804
0.0943655
0.0914348
0.0912088
0.079142
0.0690278
0.0751626
0.0787673
0.0804932
0.0847247
0.0894489
0.0928844
0.0907443
0.0906956
0.0906734
0.0908083
0.0913224
0.091998
0.0926622
0.0927224
0.0962123
0.0986906
0.0993944
0.0999849
0.0902334
0.0780535
0.0814382
0.0859823
0.0946287
0.108894
0.116304
0.11747
0.11428
0.0844291
0.0845424
0.0849262
0.0856627
0.0863143
0.0888691
0.0906505
0.0938857
0.0992004
0.101563
0.110291
0.103783
0.089208
0.0850481
0.0847977
0.0899658
0.0940875
0.0941126
0.0928112
0.090235
0.075114
0.0752621
0.075937
0.0773089
0.0796606
0.0846814
0.0896535
0.0945291
0.098855
0.106305
0.109051
0.110146
0.0936391
0.0788262
0.0619251
0.049635
0.0348567
0.0248425
0.0259703
0.0259851
0.0618456
0.0622565
0.0635455
0.0660072
0.0688026
0.0724982
0.0774525
0.0825027
0.0914837
0.10074
0.106078
0.107095
0.0903949
0.0660004
0.038376
0.0202819
0.00719717
-0.00583377
-0.00960329
-0.00418591
0.0398367
0.0399744
0.0407527
0.0440875
0.0473367
0.0510917
0.0558741
0.0622832
0.071659
0.0742207
0.0837061
0.0795339
0.0777602
0.051796
0.0344516
0.021839
0.0204437
0.0197744
0.0083426
0.0123833
0.0132103
0.0129409
0.0121803
0.0114121
0.0114569
0.0140937
0.018107
0.0239381
0.0276696
0.0262515
0.037462
0.0435265
0.0465436
0.0287179
0.0275206
0.0182684
0.00959474
0.0140825
0.0101378
0.0127873
-1.00442
-0.148997
0.121894
0.402959
0.590138
0.751625
0.885149
1.02075
1.1671
1.24579
-0.010648
0.403309
0.424484
0.616039
0.745401
0.861007
0.961097
1.04968
1.07837
1.0353
0.376339
0.594824
0.634181
0.772622
0.862182
0.944937
1.01309
1.06411
1.06704
1.08032
0.612796
0.759447
0.79579
0.901137
0.958433
1.01898
1.06479
1.09774
1.10719
1.1306
0.795496
0.899571
0.929224
0.999801
1.0441
1.08695
1.11967
1.14426
1.15434
1.18569
0.941546
1.01183
1.04236
1.08669
1.12328
1.15411
1.17888
1.19974
1.21416
1.24228
1.06226
1.11379
1.13955
1.16813
1.19639
1.22055
1.24082
1.2602
1.27528
1.30166
1.16693
1.20452
1.22578
1.24679
1.26804
1.28774
1.30532
1.32354
1.33847
1.36212
1.2615
1.29047
1.3075
1.32308
1.33949
1.35575
1.37141
1.38841
1.40202
1.42434
1.35029
1.37098
1.38604
1.39939
1.41314
1.42704
1.44058
1.45518
1.46672
1.48637
1.43627
1.45216
1.4661
1.47805
1.49006
1.50171
1.51283
1.52449
1.53214
1.54896
1.5218
1.5347
1.54848
1.56013
1.57069
1.58042
1.58919
1.59741
1.60097
1.61225
1.61103
1.62203
1.6355
1.64472
1.65215
1.65934
1.66652
1.67304
1.67407
1.68148
1.70947
1.7142
1.72224
1.72672
1.73001
1.73446
1.74046
1.74819
1.75204
1.76192
1.82275
1.80906
1.80163
1.79602
1.79336
1.79476
1.80121
1.8136
1.82839
1.85805
1.94371
1.88795
1.8571
1.84002
1.83187
1.83183
1.84058
1.86013
1.89208
1.96129
)
;

boundaryField
{
    wall-4
    {
        type            zeroGradient;
    }
    pressure-outlet-7
    {
        type            fixedValue;
        value           uniform 0;
    }
    velocity-inlet-6
    {
        type            zeroGradient;
    }
    velocity-inlet-5
    {
        type            zeroGradient;
    }
    frontAndBackPlanes
    {
        type            empty;
    }
}


// ************************************************************************* //
