/*--------------------------------*- C++ -*----------------------------------*\
| =========                 |                                                 |
| \\      /  F ield         | OpenFOAM: The Open Source CFD Toolbox           |
|  \\    /   O peration     | Version:  4.0                                   |
|   \\  /    A nd           | Web:      www.OpenFOAM.org                      |
|    \\/     M anipulation  |                                                 |
\*---------------------------------------------------------------------------*/
FoamFile
{
    version     2.0;
    format      ascii;
    class       surfaceScalarField;
    location    "21";
    object      phi;
}
// * * * * * * * * * * * * * * * * * * * * * * * * * * * * * * * * * * * * * //

dimensions      [0 3 -1 0 0 0 0];

internalField   nonuniform List<scalar> 
17370
(
-0.0916062
0.0960105
0.284607
-0.0775961
0.059421
0.364951
-0.0430408
0.0316184
0.427591
-0.0223124
0.016259
0.505305
-0.0116654
0.0087909
0.602277
-0.00657712
0.00508908
0.720546
-0.0038521
0.00297645
0.863782
-0.00221289
0.00164494
1.03602
-0.001126
0.000717417
1.24291
-0.000320055
-5.49896e-05
1.49157
0.000425275
-0.000831374
1.4916
0.00123788
-0.00175208
1.2432
0.00231516
-0.00307253
1.0364
0.00394154
-0.00516987
0.864135
0.00664865
-0.0088518
0.721261
0.0117167
-0.0162989
0.603797
0.0223412
-0.0316349
0.508733
0.0430444
-0.0594166
0.43254
0.0775932
-0.0960076
0.36519
0.0916154
0.197395
-0.127095
0.0880308
0.039064
-0.364359
0.354036
-0.0714657
0.0817891
-0.446651
0.45426
-0.0791594
0.0715508
-0.521008
0.529126
-0.063687
0.0555687
-0.612986
0.620775
-0.0481655
0.0403766
-0.727151
0.733683
-0.0337479
0.0272155
-0.867572
0.872395
-0.0220169
0.0171935
-1.03856
1.04185
-0.0135356
0.0102479
-1.2447
1.24706
-0.00774164
0.00538325
-1.49282
1.4948
-0.00345866
0.00147933
-1.49268
1.49447
0.000309151
-0.00210816
-1.2441
1.24599
0.00406135
-0.00595771
-1.03761
1.04008
0.00828133
-0.0107521
-0.866195
0.869815
0.0139993
-0.0176195
-0.7246
0.729764
0.0224023
-0.0275667
-0.609074
0.615672
0.0340648
-0.0406619
-0.51513
0.522498
0.0484151
-0.0557837
-0.439878
0.447695
0.0638536
-0.0716705
-0.374727
0.37737
0.0792119
-0.0818542
-0.256931
0.224497
0.0715167
-0.0390825
-0.0688218
0.0592209
0.00960096
-0.0520485
0.0588648
-0.374842
0.368025
-0.0580172
0.0541843
-0.453946
0.457779
-0.0487188
0.0441803
-0.52762
0.532158
-0.0396495
0.0357601
-0.620797
0.624686
-0.0315469
0.0275482
-0.73464
0.738639
-0.023187
0.0193057
-0.873906
0.877787
-0.0152903
0.0118766
-1.0433
1.04672
-0.00842003
0.00545422
-1.24858
1.25154
-0.00233312
-0.000573825
-1.49685
1.49976
0.00346078
-0.00654608
-1.49734
1.50043
0.00946287
-0.0128552
-1.25003
1.25343
0.0162081
-0.0201551
-1.04564
1.04958
0.0239734
-0.0282649
-0.877158
0.881449
0.0322005
-0.0363472
-0.739037
0.743183
0.040181
-0.0446572
-0.626034
0.63051
0.0491508
-0.0545723
-0.535071
0.540493
0.058356
-0.0591484
-0.458134
0.458927
0.0522559
-0.0319549
-0.336861
0.31656
0.00963811
-0.0687293
0.0590912
-0.0534457
0.0493525
0.00409319
-0.0331246
0.0435033
-0.358606
0.348228
-0.0471404
0.0465212
-0.459572
0.460191
-0.0435554
0.040309
-0.536091
0.539337
-0.0366081
0.0332534
-0.628349
0.631704
-0.0296474
0.0264614
-0.741996
0.745182
-0.0230839
0.0199753
-0.881269
0.884377
-0.0164978
0.013252
-1.05011
1.05336
-0.00967078
0.00636423
-1.25475
1.25805
-0.0026697
-0.000863497
-1.50305
1.50658
0.00437844
-0.00802081
-1.50387
1.50751
0.0112554
-0.0147435
-1.25695
1.26044
0.017892
-0.0212568
-1.05329
1.05665
0.0242649
-0.0275392
-0.885069
0.888343
0.030634
-0.034143
-0.746881
0.75039
0.037415
-0.0410336
-0.63464
0.638259
0.0442122
-0.0471036
-0.54466
0.547551
0.0476467
-0.0439053
-0.457105
0.453364
0.0334005
-0.0162332
-0.297357
0.28019
0.00413456
-0.0532794
0.0491449
-0.0462047
0.0436801
0.00252463
-0.0228187
0.0330768
-0.337693
0.327435
-0.0387599
0.0397053
-0.45996
0.459015
-0.0384709
0.0361705
-0.542008
0.544308
-0.0335446
0.031004
-0.63465
0.63719
-0.0280367
0.0252171
-0.748205
0.751024
-0.0220389
0.0191074
-0.887367
0.890299
-0.0158576
0.0128329
-1.05646
1.05948
-0.00941424
0.00616472
-1.26136
1.2646
-0.00243769
-0.00117621
-1.5102
1.51382
0.00476656
-0.00842335
-1.51121
1.51486
0.0115778
-0.0148692
-1.26383
1.26712
0.0177673
-0.0208733
-1.05982
1.06293
0.0236748
-0.0267121
-0.89151
0.894547
0.0294081
-0.0322513
-0.753589
0.756432
0.0346821
-0.0371937
-0.641281
0.643793
0.0393978
-0.0405122
-0.549465
0.550579
0.0394474
-0.033598
-0.448357
0.442508
0.023162
-0.0101544
-0.265188
0.25218
0.00257448
-0.0459513
0.0433768
-0.0415981
0.0398482
0.00174989
-0.0165363
0.0256234
-0.317696
0.308609
-0.0320676
0.0341262
-0.457453
0.455394
-0.0336941
0.0320404
-0.546245
0.547899
-0.0298851
0.0278244
-0.63943
0.64149
-0.0254656
0.0231697
-0.753591
0.755887
-0.0204625
0.017833
-0.893124
0.895754
-0.014807
0.0119451
-1.06245
1.06531
-0.00868992
0.00558614
-1.26778
1.27089
-0.00198468
-0.0015505
-1.5174
1.52093
0.0050512
-0.0085568
-1.51845
1.52195
0.0115382
-0.01463
-1.27032
1.27341
0.0173269
-0.0201652
-1.06594
1.06878
0.0226182
-0.0251328
-0.897376
0.899891
0.0272602
-0.0294506
-0.758913
0.761104
0.0313664
-0.0333803
-0.645991
0.648005
0.034907
-0.0351865
-0.551182
0.551461
0.032955
-0.0262764
-0.436125
0.429446
0.0169574
-0.0071488
-0.240902
0.231093
0.00181062
-0.0412396
0.039429
-0.0383619
0.0370864
0.00127549
-0.0122992
0.0199586
-0.300235
0.292576
-0.026436
0.0291965
-0.452954
0.450193
-0.0293173
0.028146
-0.549336
0.550508
-0.0261515
0.0242689
-0.643449
0.645332
-0.0221751
0.0202078
-0.757973
0.75994
-0.01796
0.0157722
-0.898123
0.90031
-0.013187
0.0106324
-1.06802
1.07057
-0.00762789
0.00470576
-1.27391
1.27683
-0.00130295
-0.00201501
-1.52439
1.52771
0.00529191
-0.00856892
-1.52537
1.52864
0.0113248
-0.0141112
-1.27636
1.27915
0.0164509
-0.0187917
-1.07135
1.07369
0.0207567
-0.0227676
-0.902091
0.904102
0.0245246
-0.0263964
-0.763105
0.764977
0.0280946
-0.0299088
-0.649916
0.65173
0.0308894
-0.0305513
-0.551448
0.55111
0.0275464
-0.0207565
-0.422652
0.415862
0.0128079
-0.00531041
-0.222534
0.215037
0.00134899
-0.0378755
0.0365265
-0.0359898
0.0350581
0.00093167
-0.00910793
0.0153232
-0.285633
0.279417
-0.0213741
0.0245512
-0.447174
0.443997
-0.0253223
0.0247288
-0.551368
0.551961
-0.023139
0.0215307
-0.647104
0.648713
-0.0196747
0.0178785
-0.76183
0.763626
-0.0157822
0.0137407
-0.902415
0.904456
-0.0113555
0.00902855
-1.07301
1.07533
-0.00629971
0.00362696
-1.27963
1.28231
-0.000500597
-0.00254191
-1.53087
1.53391
0.00553395
-0.00850324
-1.53176
1.53473
0.0109648
-0.0134155
-1.28177
1.28422
0.0154643
-0.0175317
-1.07589
1.07796
0.019281
-0.0210655
-0.906003
0.907787
0.0226026
-0.0242002
-0.766729
0.768327
0.0255871
-0.0269393
-0.65336
0.654712
0.0272991
-0.0262377
-0.550404
0.549343
0.0227388
-0.0162911
-0.409182
0.402734
0.00972329
-0.00399199
-0.208467
0.202736
0.00102167
-0.035349
0.0343273
-0.0342753
0.0336192
0.000656151
-0.00655781
0.011379
-0.273921
0.269099
-0.0166033
0.0197666
-0.440778
0.437615
-0.0209488
0.020672
-0.552365
0.552642
-0.0195105
0.0181609
-0.650164
0.651514
-0.0165324
0.0149323
-0.765338
0.766938
-0.0130547
0.0112271
-0.906412
0.908239
-0.00909997
0.00703502
-1.07753
1.07959
-0.00462498
0.00227191
-1.28482
1.28717
0.000503068
-0.00323011
-1.53682
1.53955
0.00588674
-0.008457
-1.53752
1.54009
0.010542
-0.0125993
-1.28649
1.28855
0.0143129
-0.0160501
-1.07987
1.08161
0.0175272
-0.0190392
-0.909462
0.910974
0.0203022
-0.0215669
-0.769741
0.771005
0.0226132
-0.0234573
-0.65577
0.656614
0.0234224
-0.021846
-0.547978
0.546401
0.0182646
-0.0125491
-0.396623
0.390908
0.00730304
-0.00297622
-0.197755
0.193428
0.000766851
-0.0334463
0.0326795
-0.0330719
0.0326359
0.00043592
-0.00440298
0.00795139
-0.264917
0.261368
-0.0122084
0.0150886
-0.434573
0.431693
-0.0163918
0.016255
-0.552849
0.552986
-0.0152746
0.0140744
-0.652804
0.654004
-0.012718
0.0114614
-0.768393
0.76965
-0.0100146
0.0085699
-0.909885
0.911329
-0.00681429
0.00504681
-1.08151
1.08327
-0.00292257
0.00081887
-1.28938
1.29148
0.00165358
-0.00405976
-1.54209
1.5445
0.00637672
-0.00859022
-1.54246
1.54468
0.0103446
-0.0120223
-1.29042
1.29209
0.0133447
-0.0145737
-1.08311
1.08434
0.0155348
-0.016474
-0.912205
0.913144
0.017318
-0.0182639
-0.772131
0.773077
0.019104
-0.0196734
-0.657325
0.657894
0.0194183
-0.0176193
-0.544702
0.542903
0.0142182
-0.00936263
-0.385614
0.380759
0.00530508
-0.00215572
-0.189698
0.186549
0.000572717
-0.0320116
0.0314389
-0.0323163
0.0321165
0.000199846
-0.00232132
0.00461797
-0.258453
0.256156
-0.00783934
0.0103972
-0.428973
0.426415
-0.0119089
0.0121451
-0.552994
0.552758
-0.0116593
0.0108382
-0.655053
0.655874
-0.00980922
0.00878905
-0.770788
0.771808
-0.00756376
0.00629191
-0.912652
0.913924
-0.00472992
0.00313756
-1.0849
1.08649
-0.0012075
-0.00070667
-1.29346
1.29537
0.00294632
-0.00507881
-1.54676
1.54889
0.00710527
-0.00902338
-1.54674
1.54866
0.0105064
-0.0118664
-1.29358
1.29494
0.0129001
-0.0138415
-1.08537
1.08631
0.0145631
-0.015222
-0.913914
0.914573
0.0157118
-0.0161696
-0.773784
0.774242
0.0165163
-0.0164446
-0.658207
0.658135
0.0156714
-0.0134955
-0.540947
0.538771
0.0102803
-0.00633657
-0.376353
0.372409
0.00342944
-0.00136836
-0.183972
0.181911
0.000370393
-0.0309718
0.0306014
-0.0320202
0.0320067
1.34919e-05
-0.000791785
0.00204103
-0.254418
0.253169
-0.00418266
0.00625045
-0.424052
0.421984
-0.0078747
0.00852471
-0.552281
0.551631
-0.00853299
0.00806147
-0.656506
0.656978
-0.00729336
0.00644347
-0.772789
0.773639
-0.00532778
0.00413828
-0.915181
0.91637
-0.00264505
0.00112664
-1.08803
1.08955
0.000693189
-0.00246859
-1.29719
1.29897
0.00450737
-0.00642037
-1.55089
1.5528
0.00819069
-0.0097877
-1.55044
1.55204
0.0109793
-0.0120764
-1.2962
1.2973
0.0128718
-0.013526
-1.08718
1.08783
0.0139502
-0.0142826
-0.915073
0.915405
0.014482
-0.0145604
-0.774448
0.774526
0.0144239
-0.0137258
-0.657684
0.656986
0.0124223
-0.0100099
-0.536418
0.534005
0.00716981
-0.0041673
-0.368945
0.365942
0.00217099
-0.000843373
-0.180284
0.178956
0.000222777
-0.0303239
0.0301011
-0.0320583
0.0321516
-9.33089e-05
7.29991e-06
0.000577736
-0.252308
0.251723
-0.00179283
0.00311846
-0.420289
0.418964
-0.00428498
0.00479524
-0.55101
0.5505
-0.00478592
0.00444114
-0.657366
0.657711
-0.00381154
0.0030766
-0.774471
0.775206
-0.00211275
0.00105886
-0.917488
0.918542
0.000272989
-0.00161351
-1.09092
1.09226
0.00318807
-0.00470919
-1.30058
1.3021
0.00644965
-0.00807733
-1.55457
1.5562
0.00952637
-0.0107235
-1.55348
1.55468
0.0115182
-0.0121381
-1.29813
1.29875
0.0125148
-0.0127506
-1.08822
1.08845
0.0128461
-0.0128108
-0.915547
0.915511
0.0127323
-0.0125873
-0.774459
0.774314
0.0122385
-0.0113946
-0.656189
0.655346
0.0100506
-0.0078903
-0.531711
0.529551
0.00559159
-0.00328167
-0.363357
0.361047
0.00174118
-0.000681536
-0.177831
0.176771
0.000175139
-0.0299275
0.0297524
-0.0322675
0.0323977
-0.000130188
0.000320634
-8.59432e-06
-0.251315
0.251003
-0.000738981
0.00154536
-0.417972
0.417166
-0.0021728
0.00231283
-0.550192
0.550051
-0.00202322
0.00148302
-0.658115
0.658655
-0.000705376
-4.1961e-05
-0.776044
0.776791
0.0009742
-0.0019674
-0.919544
0.920537
0.00318839
-0.00439621
-1.09342
1.09463
0.0058115
-0.00716973
-1.30344
1.30479
0.00870571
-0.0100848
-1.55765
1.55903
0.0112399
-0.0121062
-1.55572
1.55659
0.0126011
-0.0129253
-1.29924
1.29957
0.0130831
-0.013117
-1.08862
1.08866
0.0130113
-0.0128001
-0.915357
0.915146
0.0125032
-0.0120706
-0.7739
0.773467
0.0115453
-0.0106963
-0.654468
0.653619
0.00947985
-0.00756742
-0.5276
0.525688
0.00551099
-0.00336893
-0.358921
0.356779
0.00185929
-0.000757563
-0.175739
0.174638
0.000201767
-0.0295895
0.0293877
-0.032544
0.0327035
-0.000159562
0.0005697
-0.000384436
-0.250777
0.250592
-0.000254175
0.000990437
-0.416479
0.415743
-0.00152542
0.00152992
-0.550019
0.550014
-0.00103892
0.000284837
-0.659342
0.660096
0.00057977
-0.00140597
-0.777722
0.778548
0.00245209
-0.0035666
-0.921492
0.922607
0.00494685
-0.00632787
-1.09576
1.09714
0.0079598
-0.00950865
-1.30612
1.30767
0.0111975
-0.0126507
-1.56034
1.56179
0.0138396
-0.0147165
-1.55744
1.55831
0.0151506
-0.0153084
-1.29981
1.29996
0.0151966
-0.0148644
-1.08853
1.0882
0.0145002
-0.0141553
-0.914834
0.914489
0.0138349
-0.013401
-0.772913
0.772479
0.0129272
-0.0120389
-0.652746
0.651858
0.0106616
-0.00847022
-0.523812
0.52162
0.00614903
-0.00377774
-0.354616
0.352244
0.00212246
-0.000898384
-0.173513
0.172288
0.000253084
-0.0291861
0.028933
-0.0328788
0.03308
-0.000201196
0.000991115
-0.00107037
-0.250536
0.250616
0.000563571
0.00030826
-0.414987
0.414115
-0.00125777
0.00161523
-0.549873
0.549516
-0.00150211
0.00105875
-0.660756
0.6612
-0.000224729
-0.000756841
-0.779683
0.780664
0.00211361
-0.0036331
-0.923829
0.925349
0.00552345
-0.00741225
-1.0986
1.10049
0.00961839
-0.0116984
-1.30935
1.31143
0.0139607
-0.0159181
-1.5634
1.56536
0.017541
-0.0188009
-1.55935
1.56061
0.0195178
-0.0199321
-1.30028
1.30069
0.0200517
-0.0199494
-1.08784
1.08774
0.0196723
-0.0191072
-0.913896
0.913331
0.0184054
-0.017599
-0.771887
0.771081
0.0165579
-0.0148312
-0.650697
0.648971
0.0125582
-0.00949613
-0.51916
0.516098
0.00668272
-0.00407377
-0.349832
0.347223
0.00232564
-0.00102057
-0.17107
0.169765
0.000301291
-0.0286824
0.0283811
-0.0333233
0.0336026
-0.000279284
0.00160893
-0.00209611
-0.250857
0.251344
0.0020581
-0.00133062
-0.413363
0.412635
5.88609e-05
0.000954338
-0.548778
0.547765
-0.00129337
0.00110698
-0.661484
0.66167
-0.000519968
-0.000436613
-0.78188
0.782836
0.00205458
-0.0039912
-0.926934
0.928871
0.00648087
-0.00897106
-1.10254
1.10503
0.0118558
-0.0145552
-1.31374
1.31644
0.017495
-0.0200481
-1.56757
1.57012
0.0221942
-0.0238957
-1.56211
1.56381
0.0249449
-0.0256342
-1.30132
1.30201
0.025949
-0.0259653
-1.08766
1.08768
0.0256065
-0.0248486
-0.912531
0.911773
0.0239017
-0.0223512
-0.769896
0.768346
0.0201695
-0.0171233
-0.64665
0.643604
0.0137704
-0.00996465
-0.512744
0.508939
0.00690693
-0.00427405
-0.344685
0.342052
0.00251534
-0.00114523
-0.168491
0.167121
0.000350558
-0.0280862
0.0277357
-0.0339428
0.0343321
-0.00038924
0.00239888
-0.00341562
-0.252073
0.253089
0.00407314
-0.00399798
-0.412257
0.412182
0.00304539
-0.00191554
-0.54664
0.54551
0.000970965
-0.000851868
-0.661674
0.661555
0.00140526
-0.00253293
-0.784024
0.785151
0.00452995
-0.00686194
-0.930862
0.933194
0.00978479
-0.012675
-1.10761
1.1105
0.0159906
-0.0190545
-1.31926
1.32232
0.0223494
-0.0251584
-1.57279
1.5756
0.0274392
-0.0291739
-1.56558
1.56731
0.0301464
-0.0306993
-1.30276
1.30331
0.0307834
-0.0304622
-1.08745
1.08712
0.0298198
-0.0287409
-0.910738
0.909659
0.0271529
-0.0246367
-0.766211
0.763695
0.0216318
-0.0177433
-0.640128
0.63624
0.0139636
-0.0100702
-0.505203
0.50131
0.0071186
-0.00457657
-0.339609
0.337067
0.00278752
-0.00130178
-0.165785
0.164299
0.000404224
-0.0274016
0.0269974
-0.034796
0.0353302
-0.000534158
0.00336878
-0.00498958
-0.254426
0.256047
0.00648457
-0.00726776
-0.412565
0.413348
0.00729416
-0.0068144
-0.54488
0.5444
0.00626099
-0.00620413
-0.661376
0.66132
0.00698304
-0.00844536
-0.786417
0.787879
0.0106763
-0.0131368
-0.93542
0.93788
0.016189
-0.0191865
-1.11331
1.11631
0.022582
-0.0256557
-1.32531
1.32838
0.0288495
-0.0314313
-1.57828
1.58086
0.0333528
-0.0345767
-1.56882
1.57004
0.0350298
-0.0349322
-1.30364
1.30354
0.0343957
-0.0334328
-1.08641
1.08544
0.0322001
-0.030313
-0.908024
0.906137
0.0280373
-0.0249442
-0.760684
0.757591
0.0216509
-0.0177082
-0.632338
0.628396
0.0141133
-0.0105147
-0.497793
0.494194
0.00773347
-0.00517782
-0.334729
0.332173
0.00323115
-0.00152765
-0.162819
0.161116
0.000475472
-0.0266106
0.0261351
-0.0359524
0.0366652
-0.000712832
0.0044848
-0.00675021
-0.258015
0.260281
0.00908888
-0.01079
-0.41461
0.416311
0.0119072
-0.0124868
-0.544819
0.545399
0.0130144
-0.0137825
-0.661785
0.662553
0.0151998
-0.017022
-0.789281
0.791103
0.0195028
-0.0221022
-0.940127
0.942726
0.0252204
-0.0281975
-1.11909
1.12207
0.031475
-0.0343315
-1.33123
1.33408
0.0371206
-0.0391453
-1.58311
1.58513
0.0403662
-0.0407585
-1.57085
1.57125
0.0403982
-0.0393428
-1.30302
1.30197
0.0379595
-0.036074
-1.0839
1.08202
0.0339996
-0.0313532
-0.903626
0.900979
0.028642
-0.0253647
-0.754209
0.750932
0.0221291
-0.0184559
-0.624668
0.620995
0.0151618
-0.0117734
-0.491042
0.487654
0.00896688
-0.00615514
-0.329763
0.326951
0.00389337
-0.00184853
-0.159382
0.157337
0.000574039
-0.0256783
0.0251042
-0.0374636
0.0384232
-0.000959534
0.00596544
-0.00900963
-0.262897
0.265941
0.0122769
-0.0148828
-0.418575
0.421181
0.0170628
-0.0186355
-0.546963
0.548536
0.020249
-0.0219941
-0.663973
0.665718
0.0243358
-0.0268276
-0.79297
0.795462
0.0298662
-0.0328244
-0.945172
0.948131
0.0361784
-0.0392309
-1.12485
1.1279
0.0424265
-0.0450355
-1.33666
1.33927
0.0473234
-0.048647
-1.58671
1.58803
0.0489829
-0.0483102
-1.57107
1.57039
0.046964
-0.0449161
-1.30041
1.29837
0.0426715
-0.0398577
-1.07954
1.07672
0.0370476
-0.0338261
-0.897823
0.894601
0.0307836
-0.0273699
-0.747363
0.743949
0.0241808
-0.0206495
-0.61749
0.613959
0.0174292
-0.0139288
-0.484633
0.481132
0.0108065
-0.00751946
-0.324239
0.320952
0.00478251
-0.00227027
-0.155235
0.152723
0.000703286
-0.0245521
0.0238488
-0.0394632
0.0407627
-0.00129943
0.00797542
-0.0120123
-0.269327
0.273363
0.0163464
-0.0198704
-0.424434
0.427958
0.0230175
-0.025529
-0.551251
0.553763
0.0282459
-0.0310483
-0.66819
0.670992
0.0344788
-0.0378509
-0.798047
0.801419
0.041702
-0.0452515
-0.951016
0.954566
0.0490743
-0.0523726
-1.1308
1.1341
0.0556095
-0.0580236
-1.34159
1.34401
0.0598177
-0.0604144
-1.58887
1.58947
0.0598334
-0.0580871
-1.56912
1.56737
0.0557634
-0.0526684
-1.29576
1.29266
0.0494973
-0.0457938
-1.07336
1.06966
0.0423173
-0.0385066
-0.890845
0.887034
0.0350699
-0.0313779
-0.740111
0.73642
0.028033
-0.0243513
-0.610404
0.606722
0.0209009
-0.0169679
-0.4779
0.473967
0.0132833
-0.00929263
-0.317727
0.313736
0.00591873
-0.00280199
-0.150157
0.14704
0.000863707
-0.0231835
0.0223198
-0.0421419
0.0439491
-0.0018072
0.010866
-0.0162249
-0.277737
0.283096
0.0218659
-0.0264243
-0.432386
0.436944
0.0306039
-0.0341028
-0.55769
0.561188
0.038028
-0.0419854
-0.674529
0.678486
0.0466587
-0.0510678
-0.804886
0.809295
0.0559032
-0.060187
-0.958076
0.96236
0.0646091
-0.0682376
-1.13725
1.14088
0.0715677
-0.0738002
-1.34612
1.34835
0.0750831
-0.0749151
-1.58956
1.58939
0.0733699
-0.0705093
-1.565
1.56214
0.0671658
-0.0629819
-1.28898
1.2848
0.0588779
-0.0542508
-1.06539
1.06076
0.0500323
-0.0455179
-0.882603
0.878089
0.0415426
-0.0373624
-0.732112
0.727932
0.0336239
-0.0295004
-0.60278
0.598656
0.0255501
-0.0209155
-0.470182
0.465548
0.0164309
-0.0114485
-0.309825
0.304843
0.00723123
-0.00338496
-0.143914
0.140067
0.00102858
-0.0215156
0.0204871
-0.0458124
0.0484428
-0.00263035
0.0153203
-0.0225284
-0.288818
0.296026
0.0298765
-0.035686
-0.442914
0.448723
0.0410842
-0.0457324
-0.566503
0.571151
0.0510821
-0.0563738
-0.683184
0.688476
0.0624382
-0.0679738
-0.813769
0.819305
0.0738551
-0.0788937
-0.966597
0.971635
0.0838914
-0.0877904
-1.14432
1.14822
0.0911143
-0.0930524
-1.3502
1.35214
0.0936793
-0.0926023
-1.58862
1.58754
0.0899576
-0.0858574
-1.55859
1.55449
0.0814003
-0.0760446
-1.27998
1.27462
0.0709399
-0.0652961
-1.05552
1.04987
0.0602253
-0.0548628
-0.872845
0.867482
0.0501908
-0.0453194
-0.722936
0.718065
0.0409787
-0.0361649
-0.594038
0.589224
0.0314733
-0.0258468
-0.460937
0.455311
0.0203075
-0.0141071
-0.300022
0.293821
0.00885404
-0.00410661
-0.136251
0.131504
0.0012335
-0.0195218
0.0182883
-0.0510614
0.0551325
-0.00407113
0.0225855
-0.0324673
-0.303725
0.313606
0.0421275
-0.0495819
-0.456828
0.464282
0.0564641
-0.0625484
-0.578151
0.584235
0.0696798
-0.0765016
-0.694484
0.701305
0.0840203
-0.0906373
-0.824855
0.831472
0.0974288
-0.103034
-0.976543
0.982148
0.108343
-0.112234
-1.15178
1.15567
0.115216
-0.116544
-1.35351
1.35484
0.116177
-0.113905
-1.58568
1.58341
0.109918
-0.104375
-1.54956
1.54402
0.0986618
-0.0920085
-1.26856
1.26191
0.085799
-0.079024
-1.04354
1.03676
0.0729924
-0.0666529
-0.861273
0.854934
0.061155
-0.0554388
-0.71217
0.706454
0.0503387
-0.0446175
-0.58365
0.577929
0.0389524
-0.0320425
-0.449576
0.442666
0.0251614
-0.01742
-0.287837
0.280095
0.0108526
-0.00496682
-0.126877
0.120992
0.00146377
-0.0171482
0.0156844
-0.0589929
0.0661913
-0.00719836
0.0360252
-0.0500609
-0.324665
0.338701
0.0630547
-0.0724742
-0.47534
0.48476
0.080941
-0.0886481
-0.593338
0.601045
0.0976533
-0.105835
-0.708603
0.716785
0.114427
-0.121674
-0.837884
0.845132
0.12881
-0.134413
-0.987349
0.992952
0.139394
-0.142683
-1.15893
1.16222
0.144712
-0.144883
-1.35532
1.35549
0.143004
-0.139109
-1.58011
1.57621
0.133454
-0.126227
-1.5375
1.53027
0.119088
-0.111007
-1.25445
1.24637
0.103589
-0.0955913
-1.02923
1.02123
0.0885215
-0.0811297
-0.847647
0.840255
0.0747335
-0.0680821
-0.699487
0.692836
0.0621285
-0.0553622
-0.571167
0.5644
0.048429
-0.0398629
-0.435424
0.426858
0.0312655
-0.0215966
-0.272552
0.262883
0.0133713
-0.00603804
-0.115449
0.108116
0.00171627
-0.0143693
0.012653
-0.073072
0.0767229
-0.00365096
0.026123
-0.0383386
-0.355678
0.367894
0.0495534
-0.058315
-0.499233
0.507994
0.0672732
-0.0767532
-0.611958
0.621439
0.0873914
-0.0969118
-0.724626
0.734146
0.107502
-0.116858
-0.851597
0.860953
0.126563
-0.134883
-0.997612
1.00593
0.143144
-0.149745
-1.1644
1.171
0.1556
-0.159399
-1.35443
1.35823
0.16137
-0.160655
-1.57101
1.5703
0.157129
-0.151198
-1.52187
1.51594
0.144254
-0.135473
-1.23738
1.2286
0.126939
-0.11676
-1.01243
1.00225
0.107527
-0.0975094
-0.831865
0.821848
0.0886744
-0.0793496
-0.684764
0.67544
0.0706819
-0.0611346
-0.556113
0.546565
0.0515629
-0.0396698
-0.41767
0.405777
0.0287017
-0.0176922
-0.253184
0.242175
0.0095786
-0.00362634
-0.101427
0.0954743
0.000780451
-0.0112529
0.0104724
-0.0838025
0.0812784
0.00252413
0.00396511
-0.0113675
-0.38307
0.390473
0.0197505
-0.0266021
-0.521505
0.528357
0.0349893
-0.0433249
-0.632026
0.640361
0.0529735
-0.0617618
-0.743552
0.75234
0.0711026
-0.0795624
-0.869828
0.878288
0.088351
-0.0956035
-1.01396
1.02121
0.103014
-0.108606
-1.17743
1.18302
0.113499
-0.116356
-1.36174
1.36459
0.117121
-0.115454
-1.56871
1.56705
0.111079
-0.104427
-1.50909
1.50244
0.096781
-0.0874268
-1.21921
1.20985
0.0784757
-0.0682948
-0.991606
0.981425
0.0588318
-0.0484357
-0.810575
0.800179
0.0392864
-0.030083
-0.663324
0.654121
0.022315
-0.0143704
-0.533863
0.525918
0.00742272
-0.00122245
-0.393143
0.386942
-0.00225519
0.0039614
-0.230404
0.228697
-0.00391522
0.00255712
-0.0887814
0.0901395
-0.00106713
-0.00909932
0.0101665
-0.0840484
0.0809033
0.00314509
-0.00444008
0.000807792
-0.400971
0.404604
0.00453259
-0.00990222
-0.539179
0.544549
0.0169536
-0.024173
-0.649391
0.65661
0.0324301
-0.0399939
-0.760614
0.768178
0.0482541
-0.0555892
-0.886118
0.893453
0.0629943
-0.0694696
-1.02832
1.03479
0.0759172
-0.0808978
-1.18823
1.19321
0.0848676
-0.086975
-1.36687
1.36898
0.0873693
-0.0853488
-1.56479
1.56277
0.08082
-0.0742393
-1.49529
1.4887
0.0669237
-0.058291
-1.2005
1.19187
0.0497656
-0.0404058
-0.971021
0.961661
0.0317606
-0.0223273
-0.789851
0.780418
0.0142232
-0.00599489
-0.643432
0.635204
-0.000677457
0.00710012
-0.515288
0.508866
-0.0116105
0.0143539
-0.378757
0.376013
-0.0141629
0.0116947
-0.223732
0.226201
-0.00838198
0.00444344
-0.0899688
0.0939074
-0.00153613
-0.0102746
0.0118107
-0.0821956
0.0791959
0.00299975
-0.0073627
0.00597581
-0.412243
0.41363
-0.00276999
-0.0014191
-0.552907
0.557096
0.00762507
-0.0136417
-0.663876
0.669892
0.0206825
-0.0271806
-0.775481
0.781979
0.0342489
-0.0405564
-0.900397
0.906704
0.0473175
-0.0528666
-1.04092
1.04647
0.0585963
-0.062619
-1.19788
1.2019
0.0661451
-0.0680058
-1.37099
1.37285
0.068173
-0.0659922
-1.56052
1.55834
0.0619396
-0.0561147
-1.48187
1.47604
0.0496281
-0.0417137
-1.18335
1.17543
0.0342943
-0.0262319
-0.952351
0.944289
0.0187186
-0.0108873
-0.771222
0.76339
0.00384424
0.00303658
-0.625951
0.61907
-0.00849517
0.0131868
-0.500368
0.495676
-0.0161001
0.0174369
-0.370312
0.368975
-0.0160711
0.0123191
-0.224611
0.228363
-0.00857184
0.00435495
-0.0955872
0.0998041
-0.00144157
-0.012348
0.0137895
-0.0802805
0.0777521
0.00252841
-0.00785312
0.00779326
-0.419564
0.419624
-0.00531948
0.002055
-0.564201
0.567466
0.00294918
-0.00832627
-0.676123
0.6815
0.0142623
-0.0200033
-0.788077
0.793818
0.0261515
-0.0316682
-0.912693
0.91821
0.0375396
-0.0425748
-1.05198
1.05701
0.0475501
-0.0514075
-1.2059
1.20976
0.0546002
-0.0563099
-1.3745
1.3762
0.0565274
-0.0546268
-1.55621
1.55431
0.05109
-0.0458496
-1.46984
1.4646
0.0402382
-0.0335658
-1.16787
1.1612
0.0272552
-0.0203099
-0.936368
0.929422
0.0140947
-0.00755509
-0.755642
0.749103
0.00193048
0.00359938
-0.611749
0.606219
-0.00778511
0.0111926
-0.489038
0.48563
-0.0131878
0.0137632
-0.364801
0.364226
-0.012255
0.00918941
-0.227526
0.230592
-0.00625217
0.00311218
-0.101125
0.104265
-0.00106171
-0.0141925
0.0152543
-0.0786999
0.0765873
0.00211261
-0.00731989
0.00752488
-0.424439
0.424234
-0.00608979
0.00331712
-0.573058
0.575831
0.00132481
-0.00594611
-0.686585
0.691207
0.0111228
-0.0161653
-0.799021
0.804064
0.0216823
-0.0266747
-0.923507
0.928499
0.0321337
-0.0366437
-1.06186
1.06637
0.0412587
-0.0448858
-1.21345
1.21708
0.0478911
-0.0495566
-1.3778
1.37946
0.0498816
-0.0486466
-1.55251
1.55127
0.0455729
-0.0411491
-1.45917
1.45475
0.0362542
-0.0304776
-1.15464
1.14886
0.0252782
-0.0192634
-0.922708
0.916693
0.0139831
-0.00862308
-0.742784
0.737424
0.00398554
0.000536614
-0.600529
0.596007
-0.00395178
0.00680311
-0.480503
0.477652
-0.00808347
0.00843332
-0.361024
0.360674
-0.0075928
0.00549281
-0.229285
0.231385
-0.00358969
0.00180899
-0.1045
0.106281
-0.000638524
-0.0152817
0.0159202
-0.0775795
0.075956
0.00162357
-0.00616508
0.00653946
-0.428027
0.427653
-0.00523604
0.00307046
-0.580925
0.58309
0.00112408
-0.00531963
-0.695753
0.699949
0.010274
-0.0146744
-0.808907
0.813308
0.019591
-0.024092
-0.93357
0.938071
0.0293586
-0.0335572
-1.071
1.07519
0.0377902
-0.041363
-1.22062
1.22419
0.0446997
-0.0464296
-1.38127
1.383
0.0470874
-0.0461154
-1.5498
1.54883
0.0437948
-0.0397193
-1.4503
1.44622
0.0355625
-0.0306263
-1.14309
1.13816
0.0259842
-0.0209283
-0.9109
0.905844
0.0163008
-0.0114721
-0.731993
0.727164
0.0076589
-0.00362882
-0.591172
0.587142
0.000490809
0.00193399
-0.473378
0.470953
-0.00329085
0.00400654
-0.357805
0.35709
-0.00375945
0.00275102
-0.229561
0.23057
-0.00180044
0.000965102
-0.105641
0.106477
-0.000398337
-0.0156394
0.0160378
-0.0770162
0.075746
0.00127018
-0.0049374
0.00533739
-0.430891
0.430491
-0.00403978
0.00194487
-0.587833
0.589928
0.00192324
-0.00570102
-0.704066
0.707844
0.0100044
-0.014289
-0.81781
0.822095
0.0188922
-0.0235756
-0.942482
0.947165
0.0282016
-0.0322927
-1.07956
1.08365
0.0367443
-0.0401866
-1.22773
1.23118
0.0432014
-0.045486
-1.38473
1.38702
0.0465245
-0.0460453
-1.54802
1.54754
0.0441053
-0.0408061
-1.44244
1.43914
0.0371271
-0.0326434
-1.13299
1.12851
0.0284705
-0.02383
-0.900659
0.896018
0.0196211
-0.0153588
-0.722405
0.718143
0.0115828
-0.0079299
-0.582806
0.579154
0.0050919
-0.00252008
-0.467196
0.464624
0.000887937
-1.60718e-05
-0.354059
0.353187
-0.000414658
0.000515728
-0.228207
0.228106
-0.000492252
0.000375779
-0.105071
0.105188
-0.000239188
-0.0155488
0.015788
-0.0769931
0.0759293
0.00106379
-0.00359873
0.00378407
-0.433556
0.433371
-0.00267982
0.000524332
-0.594177
0.596332
0.00307041
-0.00674223
-0.711838
0.715509
0.0108996
-0.0148248
-0.826304
0.830229
0.0195773
-0.0235376
-0.951372
0.955332
0.028179
-0.032149
-1.08795
1.09192
0.0365618
-0.0402758
-1.23467
1.23839
0.0436745
-0.0458611
-1.38915
1.39134
0.0473588
-0.0473876
-1.54705
1.54708
0.0461649
-0.0432337
-1.43575
1.43282
0.0399981
-0.035877
-1.12411
1.11999
0.0320076
-0.027567
-0.891109
0.886669
0.0236718
-0.0194977
-0.713606
0.709432
0.015877
-0.0122485
-0.575125
0.571497
0.00928137
-0.00676996
-0.46099
0.458479
0.00480317
-0.00346465
-0.34973
0.348392
0.00234434
-0.00137409
-0.225384
0.224414
0.000634807
-3.15694e-05
-0.103157
0.102554
-0.00013194
-0.0150627
0.0151946
-0.0772354
0.0764914
0.000744066
-0.00242615
0.0022121
-0.436433
0.436647
-0.00125617
-0.00106624
-0.599732
0.602055
0.00431084
-0.00785383
-0.719129
0.722672
0.0118516
-0.0159174
-0.834126
0.838192
0.0201071
-0.0242495
-0.959558
0.963701
0.0288913
-0.0327
-1.09636
1.10017
0.0372535
-0.0409819
-1.24197
1.2457
0.0445142
-0.0472932
-1.39399
1.39676
0.049357
-0.0497394
-1.5472
1.54758
0.0488037
-0.0465525
-1.43003
1.42778
0.0437849
-0.0399169
-1.11568
1.11182
0.0361582
-0.0320447
-0.882068
0.877954
0.0278944
-0.0239099
-0.704908
0.700923
0.0203007
-0.0165466
-0.567672
0.563918
0.0135941
-0.0107045
-0.454638
0.451748
0.00845431
-0.00640912
-0.344812
0.342766
0.00481543
-0.0030967
-0.221262
0.219543
0.00160841
-0.000450085
-0.100188
0.0990292
-1.09322e-05
-0.0143053
0.0143163
-0.0778768
0.0772744
0.000602336
-0.00147989
0.00132819
-0.439531
0.439682
8.79271e-05
-0.00238118
-0.605322
0.607615
0.00574461
-0.00914829
-0.725942
0.729346
0.0129997
-0.0166939
-0.842022
0.845716
0.0210215
-0.0248793
-0.967903
0.971761
0.0294954
-0.0337524
-1.10447
1.10872
0.0379951
-0.0420847
-1.24952
1.25361
0.0460808
-0.0490116
-1.3995
1.40243
0.0515167
-0.0527277
-1.54823
1.54944
0.0522646
-0.0506084
-1.42539
1.42374
0.0479771
-0.0444327
-1.10789
1.10434
0.0409205
-0.0367673
-0.873364
0.869211
0.0327598
-0.0286358
-0.696342
0.692218
0.0249352
-0.0209676
-0.559814
0.555846
0.0177079
-0.0145801
-0.447899
0.444772
0.0117837
-0.00919478
-0.338818
0.336229
0.00698065
-0.00461507
-0.215839
0.213474
0.00262478
-0.000955526
-0.0963614
0.0946922
0.000155877
-0.0133713
0.0132154
-0.078754
0.0783121
0.000441916
-0.000488759
0.00019264
-0.442797
0.443093
0.00130294
-0.00375455
-0.61066
0.613112
0.00698727
-0.0102245
-0.732508
0.735745
0.0141557
-0.017711
-0.849454
0.85301
0.0219005
-0.0258879
-0.976128
0.980115
0.0304246
-0.0346647
-1.11288
1.11712
0.0391465
-0.0432918
-1.25766
1.26181
0.0475136
-0.0512219
-1.4057
1.4094
0.0542245
-0.0557841
-1.55064
1.5522
0.0560334
-0.0546969
-1.42197
1.42064
0.0525684
-0.0494403
-1.10066
1.09753
0.0458711
-0.0417756
-0.864674
0.860578
0.037773
-0.0334133
-0.687642
0.683282
0.029645
-0.0254306
-0.551794
0.54758