/*--------------------------------*- C++ -*----------------------------------*\
| =========                 |                                                 |
| \\      /  F ield         | OpenFOAM: The Open Source CFD Toolbox           |
|  \\    /   O peration     | Version:  4.0                                   |
|   \\  /    A nd           | Web:      www.OpenFOAM.org                      |
|    \\/     M anipulation  |                                                 |
\*---------------------------------------------------------------------------*/
FoamFile
{
    version     2.0;
    format      ascii;
    class       surfaceScalarField;
    location    "44";
    object      phi;
}
// * * * * * * * * * * * * * * * * * * * * * * * * * * * * * * * * * * * * * //

dimensions      [0 3 -1 0 0 0 0];

internalField   nonuniform List<scalar> 
17370
(
-0.0916069
0.0960075
0.28461
-0.0775915
0.0594156
0.364951
-0.0430375
0.031618
0.427588
-0.0223134
0.0162596
0.505306
-0.0116646
0.00878882
0.602278
-0.00657647
0.00509281
0.720541
-0.00386045
0.00298576
0.863781
-0.00221854
0.00164424
1.03602
-0.00111597
0.000697392
1.24292
-0.000288046
-0.000103378
1.49158
0.000489978
-0.000899528
1.4916
0.00130132
-0.00180467
1.24319
0.00235577
-0.00310167
1.03638
0.00396352
-0.0051882
0.864131
0.00666701
-0.00887206
0.721263
0.011737
-0.0163159
0.603793
0.0223537
-0.0316418
0.508727
0.0430448
-0.0594122
0.432536
0.07759
-0.0960046
0.36519
0.0916201
0.197391
-0.127088
0.0880184
0.0390697
-0.364352
0.354026
-0.071479
0.0818055
-0.446655
0.454249
-0.0791713
0.0715774
-0.52101
0.529106
-0.0637277
0.0556308
-0.612988
0.620758
-0.0482439
0.0404736
-0.727161
0.733681
-0.0338608
0.0273402
-0.86758
0.872424
-0.0221397
0.017295
-1.03856
1.0419
-0.0136042
0.0102711
-1.24472
1.24712
-0.00772418
0.00532242
-1.49284
1.49485
-0.0033621
0.00135188
-1.49269
1.49451
0.000466883
-0.002284
-1.24411
1.24602
0.00425546
-0.00616533
-1.03761
1.04009
0.00850087
-0.0109821
-0.866188
0.869823
0.0142453
-0.0178813
-0.724594
0.729757
0.0226772
-0.0278396
-0.609066
0.615638
0.034319
-0.0408911
-0.515125
0.522463
0.0486127
-0.0559502
-0.43988
0.447662
0.0639763
-0.0717588
-0.374711
0.377356
0.0792614
-0.0819069
-0.256902
0.224443
0.0715578
-0.0390991
-0.0688031
0.0591885
0.00961463
-0.0521227
0.0589562
-0.374833
0.367999
-0.0581123
0.0542735
-0.453942
0.45778
-0.0487884
0.0442304
-0.52761
0.532168
-0.039681
0.0357861
-0.620793
0.624688
-0.0315761
0.0275872
-0.734653
0.738641
-0.0232399
0.019361
-0.873948
0.877827
-0.0153228
0.0118703
-1.04335
1.04681
-0.00835529
0.00532666
-1.24864
1.25167
-0.0021227
-0.000854729
-1.49694
1.49992
0.00381212
-0.00695758
-1.49742
1.50057
0.00990243
-0.0133055
-1.25007
1.25347
0.0166467
-0.0205625
-1.04566
1.04957
0.0243389
-0.0285884
-0.877141
0.881391
0.0324979
-0.0366248
-0.738988
0.743115
0.0404461
-0.0449204
-0.625979
0.630453
0.0494162
-0.0548411
-0.535023
0.540448
0.0586127
-0.0593769
-0.458083
0.458847
0.0524371
-0.0320561
-0.336775
0.316394
0.00967075
-0.0686704
0.0589997
-0.0533975
0.0492832
0.00411429
-0.0332623
0.0436944
-0.358546
0.348114
-0.047377
0.046795
-0.459568
0.46015
-0.0438708
0.0406616
-0.53612
0.539329
-0.0369879
0.0336367
-0.628381
0.631732
-0.0300086
0.0267754
-0.742019
0.745252
-0.0233339
0.0201458
-0.881319
0.884507
-0.0165612
0.013216
-1.05023
1.05357
-0.00952427
0.00612597
-1.25493
1.25833
-0.0023416
-0.00127004
-1.50327
1.50688
0.00485181
-0.00854982
-1.50407
1.50776
0.0118311
-0.0153658
-1.25704
1.26057
0.0185538
-0.021963
-1.05328
1.05669
0.0250009
-0.0282962
-0.884997
0.888292
0.0314101
-0.0349182
-0.746798
0.750306
0.0381642
-0.0417259
-0.634578
0.638139
0.0448378
-0.0476536
-0.544596
0.547412
0.0481251
-0.04429
-0.45697
0.453135
0.033672
-0.0163689
-0.297086
0.279783
0.00417554
-0.0531531
0.0489775
-0.0461113
0.0435525
0.00255876
-0.0230693
0.0334302
-0.337514
0.327153
-0.0391743
0.0401303
-0.459895
0.458939
-0.0388855
0.0365621
-0.54198
0.544303
-0.0339249
0.0313845
-0.634692
0.637232
-0.0284169
0.0255808
-0.748333
0.751169
-0.022357
0.0193543
-0.887557
0.89056
-0.0160132
0.0128877
-1.05674
1.05986
-0.00934134
0.00595154
-1.26171
1.2651
-0.00205211
-0.00173756
-1.51061
1.5144
0.0054889
-0.00927366
-1.51155
1.51533
0.0125102
-0.0158525
-1.26404
1.26738
0.0187735
-0.0218849
-1.0599
1.06301
0.0246857
-0.0277058
-0.891487
0.894507
0.0303747
-0.0331758
-0.753488
0.756289
0.0355735
-0.0380632
-0.6411
0.64359
0.0402609
-0.0413401
-0.549255
0.550335
0.0402145
-0.0342239
-0.448022
0.442031
0.0235936
-0.0103608
-0.26461
0.251377
0.00263445
-0.0457378
0.0431033
-0.0414315
0.0396274
0.00180407
-0.0169697
0.0262686
-0.317273
0.307974
-0.0328786
0.0350094
-0.45737
0.455239
-0.0345844
0.0328933
-0.546325
0.548016
-0.0306733
0.028553
-0.639534
0.641655
-0.0261254
0.0237584
-0.753762
0.756129
-0.0209578
0.0182238
-0.893407
0.896141
-0.0150532
0.0120318
-1.06289
1.06591
-0.00858111
0.00527877
-1.26841
1.27171
-0.00145224
-0.00228483
-1.51816
1.5219
0.00597317
-0.00965531
-1.51908
1.52276
0.0127626
-0.0159527
-1.27066
1.27385
0.0187112
-0.0215835
-1.06604
1.06891
0.0240529
-0.0265876
-0.897294
0.899829
0.0287381
-0.0309528
-0.758733
0.760948
0.0328923
-0.0349244
-0.645824
0.647856
0.036435
-0.0366374
-0.550925
0.551128
0.0342478
-0.0272798
-0.435458
0.42849
0.0176218
-0.00745596
-0.239821
0.229655
0.00189645
-0.0408992
0.0390028
-0.0380751
0.0367192
0.00135591
-0.0129744
0.0209898
-0.299321
0.291305
-0.0277762
0.0307133
-0.452675
0.449738
-0.0309331
0.0298186
-0.549447
0.550562
-0.0278271
0.0259085
-0.643703
0.645621
-0.023708
0.0215801
-0.758361
0.760489
-0.0190892
0.0166364
-0.898674
0.901127
-0.0137336
0.0108951
-1.06879
1.07163
-0.00758539
0.00438829
-1.27493
1.27813
-0.000676925
-0.00293451
-1.52555
1.52916
0.00648554
-0.0100171
-1.52637
1.52991
0.0129719
-0.015958
-1.27698
1.27996
0.0184694
-0.0209987
-1.07163
1.07416
0.0231178
-0.0252684
-0.902142
0.904292
0.0271167
-0.0290435
-0.762995
0.764922
0.0307356
-0.0325063
-0.649734
0.651505
0.0333604
-0.0328299
-0.550972
0.550441
0.0295244
-0.0222501
-0.421314
0.414039
0.0137757
-0.00574826
-0.220662
0.212634
0.00146838
-0.0373491
0.0358807
-0.0355354
0.0344897
0.00104567
-0.0101512
0.0169432
-0.283928
0.277136
-0.0234843
0.0268908
-0.446549
0.443143
-0.0276977
0.027024
-0.55145
0.552124
-0.0252769
0.0235099
-0.647501
0.649268
-0.021466
0.0194771
-0.762545
0.764533
-0.0171354
0.0148357
-0.903435
0.905735
-0.0121312
0.00948078
-1.07431
1.07696
-0.00636294
0.00331669
-1.28121
1.28426
0.000248216
-0.00371861
-1.53268
1.53615
0.0071166
-0.0104599
-1.53335
1.53669
0.0132085
-0.0159291
-1.28284
1.28556
0.0181788
-0.0204224
-1.07656
1.0788
0.0223039
-0.024213
-0.906327
0.908237
0.0258468
-0.0275478
-0.766717
0.768418
0.0290336
-0.0304752
-0.653125
0.654567
0.0308208
-0.0295863
-0.549571
0.548336
0.0256753
-0.0184958
-0.406791
0.399611
0.0111303
-0.00461071
-0.205433
0.198914
0.00118232
-0.0345738
0.0333914
-0.0335714
0.0327551
0.00081635
-0.00805945
0.0137796
-0.270912
0.265191
-0.0198489
0.0234658
-0.439627
0.43601
-0.0247606
0.0243378
-0.552707
0.55313
-0.0228651
0.0212095
-0.651026
0.652682
-0.0192653
0.0173725
-0.766469
0.768362
-0.0151434
0.0129532
-0.907909
0.910099
-0.0103745
0.00785287
-1.07947
1.08199
-0.00489593
0.00200573
-1.28717
1.29006
0.00137663
-0.00466738
-1.53951
1.5428
0.00786902
-0.0109825
-1.53992
1.54303
0.013507
-0.0159757
-1.28818
1.29065
0.0180045
-0.0200178
-1.08095
1.08297
0.0216961
-0.0233938
-0.910054
0.911752
0.0248471
-0.0263644
-0.770014
0.771531
0.0276696
-0.0287516
-0.655805
0.656887
0.0287416
-0.0268552
-0.546782
0.544896
0.0225699
-0.0156863
-0.392576
0.385692
0.00925591
-0.00381775
-0.192987
0.187549
0.000982866
-0.0323233
0.0313404
-0.0320372
0.0313978
0.000639344
-0.0064476
0.0112505
-0.25996
0.255157
-0.0167386
0.0203702
-0.432391
0.428759
-0.0220063
0.021824
-0.553474
0.553657
-0.0206018
0.019021
-0.654347
0.655928
-0.0171479
0.0153166
-0.770214
0.772045
-0.0131583
0.0110377
-0.912173
0.914294
-0.00854244
0.00610698
-1.08439
1.08682
-0.00326102
0.000497663
-1.29283
1.2956
0.00271572
-0.00582042
-1.54596
1.54906
0.00881535
-0.0117006
-1.54602
1.54891
0.0140238
-0.0162825
-1.29304
1.2953
0.0181252
-0.0199383
-1.0849
1.08672
0.0214345
-0.0229369
-0.913368
0.91487
0.0242191
-0.025555
-0.772958
0.774294
0.0267107
-0.0273906
-0.657749
0.658428
0.0270225
-0.0245997
-0.542763
0.540341
0.0200986
-0.0135849
-0.379005
0.372491
0.00790732
-0.00325508
-0.182545
0.177893
0.000842117
-0.0304412
0.0295991
-0.0308384
0.030342
0.000496406
-0.00515135
0.00916217
-0.25078
0.246769
-0.0140204
0.0175126
-0.42521
0.421718
-0.0193443
0.0193644
-0.553783
0.553763
-0.0183533
0.0168197
-0.657546
0.65908
-0.0149827
0.0131797
-0.773847
0.77565
-0.0110576
0.00898099
-0.916304
0.91838
-0.00654857
0.00418472
-1.08914
1.0915
-0.0014319
-0.00122707
-1.29824
1.3009
0.00429728
-0.00723479
-1.55205
1.55498
0.0100387
-0.0127088
-1.55168
1.55435
0.0148284
-0.0168587
-1.29747
1.2995
0.0184946
-0.0200901
-1.08845
1.09005
0.0214024
-0.0227249
-0.916306
0.917629
0.0238608
-0.0250417
-0.775556
0.776737
0.0260219
-0.0263444
-0.658899
0.659222
0.0256089
-0.0227544
-0.53772
0.534866
0.018153
-0.0120174
-0.366188
0.360053
0.00693246
-0.00285483
-0.173564
0.169486
0.000743235
-0.0288193
0.0280761
-0.0299134
0.0295377
0.000375682
-0.00406516
0.00737902
-0.243133
0.239819
-0.0115944
0.0148391
-0.418371
0.415126
-0.016744
0.0169315
-0.553719
0.553532
-0.0160162
0.0145651
-0.660648
0.662099
-0.0127365
0.0109328
-0.777432
0.779236
-0.00881459
0.00675122
-0.920344
0.922407
-0.00434679
0.00202285
-1.09374
1.09607
0.000660718
-0.00323712
-1.30345
1.30603
0.0061801
-0.00895847
-1.5578
1.56058
0.0115756
-0.0140336
-1.5569
1.55936
0.0159577
-0.0177771
-1.30146
1.30328
0.0192238
-0.0206177
-1.09158
1.09297
0.0217539
-0.0228955
-0.918887
0.920028
0.0238771
-0.0248859
-0.777856
0.778865
0.0256157
-0.0256588
-0.659401
0.659444
0.02454
-0.0213171
-0.531843
0.52862
0.0166713
-0.0108726
-0.354115
0.348316
0.0062407
-0.00257769
-0.165649
0.161986
0.000676926
-0.0273792
0.0267023
-0.0292219
0.0289542
0.00026767
-0.00310838
0.00578866
-0.236845
0.234165
-0.00935469
0.0122635
-0.412074
0.409165
-0.0141291
0.0144232
-0.553356
0.553062
-0.0135828
0.012209
-0.663595
0.664969
-0.010388
0.00856664
-0.78102
0.782842
-0.00642024
0.00433298
-0.924364
0.926451
-0.00191363
-0.000401869
-1.09828
1.1006
0.00306214
-0.00558143
-1.3085
1.31102
0.00842624
-0.0110756
-1.56324
1.56589
0.0135281
-0.0157801
-1.5617
1.56395
0.0175045
-0.0191013
-1.30502
1.30661
0.0203494
-0.0215344
-1.0943
1.09549
0.0224894
-0.0234503
-0.921116
0.922077
0.0242796
-0.0251047
-0.779806
0.780631
0.0255723
-0.0253488
-0.659328
0.659105
0.0238288
-0.020265
-0.525254
0.52169
0.015593
-0.0100678
-0.342695
0.33717
0.00576952
-0.00239602
-0.158503
0.15513
0.000636036
-0.0260608
0.0254248
-0.0287424
0.0285767
0.00016568
-0.00222007
0.00430292
-0.231801
0.229718
-0.00721199
0.0097105
-0.406488
0.40399
-0.0114204
0.0117305
-0.55284
0.55253
-0.0109167
0.00956776
-0.666431
0.66778
-0.00771708
0.00584711
-0.784651
0.786521
-0.00364742
0.00152031
-0.928424
0.930551
0.000925214
-0.00325711
-1.1028
1.10513
0.00590359
-0.00838509
-1.31343
1.31591
0.0111453
-0.0136666
-1.56842
1.57094
0.0159484
-0.0179904
-1.56608
1.56812
0.0195105
-0.0208736
-1.30813
1.30949
0.0219046
-0.0228526
-1.09662
1.09757
0.0235966
-0.024344
-0.922973
0.923721
0.0250002
-0.0256662
-0.781377
0.782043
0.0258435
-0.0253046
-0.65866
0.658121
0.0234024
-0.0195413
-0.518026
0.514165
0.0148492
-0.00953068
-0.331802
0.326483
0.00546757
-0.00228671
-0.151891
0.14871
0.000614013
-0.0248165
0.0242025
-0.0284673
0.0284038
6.35198e-05
-0.00135504
0.00285371
-0.227941
0.226442
-0.00509026
0.00711563
-0.401758
0.399733
-0.00857221
0.00882337
-0.55235
0.552099
-0.00799557
0.00663924
-0.669259
0.670615
-0.00472544
0.00278133
-0.788384
0.790328
-0.000495598
-0.00170604
-0.932557
0.934759
0.00422477
-0.00660562
-1.10735
1.10973
0.00928002
-0.011749
-1.31829
1.32076
0.0144391
-0.0168318
-1.57333
1.57573
0.0189354
-0.0207533
-1.57002
1.57184
0.0220538
-0.0231673
-1.31076
1.31187
0.0239732
-0.0246778
-1.09845
1.09915
0.0251985
-0.0257116
-0.924429
0.924942
0.0261847
-0.0266699
-0.782597
0.783082
0.0265517
-0.0256541
-0.657314
0.656416
0.0233558
-0.0191825
-0.51022
0.506047
0.0144342
-0.00923907
-0.321293
0.316097
0.00531883
-0.00224472
-0.145627
0.142552
0.000610947
-0.0236095
0.0229985
-0.0283992
0.0284458
-4.66074e-05
-0.000464719
0.00136881
-0.225252
0.224348
-0.00289606
0.00437521
-0.398007
0.396528
-0.00547368
0.00559124
-0.552034
0.551917
-0.00471596
0.00332619
-0.672136
0.673526
-0.00134254
-0.000702754
-0.792261
0.794306
0.00312015
-0.00544152
-0.936846
0.939168
0.00808035
-0.0105462
-1.112
1.11447
0.0132794
-0.0157638
-1.32312
1.32561
0.0184179
-0.0207138
-1.578
1.58029
0.0226546
-0.0242487
-1.57351
1.57511
0.0253169
-0.0261612
-1.31289
1.31374
0.0267137
-0.0271413
-1.0998
1.10023
0.0274099
-0.0276645
-0.925417
0.925671
0.0279245
-0.0281198
-0.783296
0.783491
0.0277464
-0.0263874
-0.655207
0.653848
0.0236573
-0.0191545
-0.501821
0.497318
0.0143127
-0.00916072
-0.31101
0.305858
0.00530054
-0.0022587
-0.139547
0.136505
0.000622781
-0.0224047
0.021782
-0.0285498
0.028714
-0.000164149
0.000485458
-0.000215475
-0.223764
0.223494
-0.000551266
0.00140508
-0.395381
0.394527
-0.00202388
0.00190783
-0.552067
0.552183
-0.000902425
-0.000608311
-0.675145
0.676656
0.00272708
-0.00492173
-0.79635
0.798545
0.00750561
-0.00996811
-0.941368
0.943831
0.0127445
-0.0153166
-1.11682
1.11939
0.0181347
-0.0206534
-1.32798
1.3305
0.0232761
-0.025458
-1.58245
1.58464
0.027207
-0.0285389
-1.57653
1.57786
0.0293432
-0.0298674
-1.31445
1.31498
0.0301251
-0.0302373
-1.10059
1.1007
0.0302297
-0.0302013
-0.925887
0.925859
0.0302293
-0.0301045
-0.783329
0.783205
0.0294152
-0.0275334
-0.652209
0.650327
0.0243526
-0.0194908
-0.492794
0.487933
0.0144956
-0.00929463
-0.300786
0.295585
0.00541067
-0.00232824
-0.133504
0.130422
0.000649751
-0.0211719
0.0205222
-0.0289601
0.0292699
-0.000309827
0.00151749
-0.00190185
-0.223575
0.223959
0.00199982
-0.00188353
-0.39401
0.393894
0.00186985
-0.00232511
-0.552694
0.55315
0.00353552
-0.00521279
-0.678463
0.680141
0.00752118
-0.00990296
-0.800732
0.803114
0.0126989
-0.0153514
-0.946162
0.948814
0.0183257
-0.0210558
-1.12185
1.12458
0.024004
-0.0265834
-1.33291
1.33549
0.0291888
-0.0312596
-1.58666
1.58873
0.032805
-0.0338414
-1.57899
1.58003
0.0343523
-0.0345221
-1.31535
1.31552
0.0344512
-0.0342132
-1.1007
1.10046
0.0338881
-0.0335309
-0.925746
0.925388
0.0332958
-0.0327562
-0.782638
0.782098
0.0316741
-0.0292019
-0.648236
0.645764
0.0255111
-0.0202187
-0.483061
0.477768
0.0149911
-0.00964191
-0.290435
0.285085
0.00564876
-0.00245309
-0.127353
0.124157
0.000692001
-0.0198811
0.0191891
-0.0296493
0.0301366
-0.000487276
0.00282809
-0.0039922
-0.224748
0.225912
0.00498122
-0.00567431
-0.394115
0.394808
0.00637509
-0.00725378
-0.554115
0.554994
0.00870726
-0.0105836
-0.682166
0.684042
0.0131405
-0.0157821
-0.805492
0.808133
0.0188857
-0.0218164
-0.951354
0.954285
0.0250713
-0.0280182
-1.12721
1.13016
0.031143
-0.0338097
-1.33796
1.34063
0.0364063
-0.0383517
-1.59064
1.59258
0.0396603
-0.0403541
-1.58082
1.58152
0.0405103
-0.0402859
-1.31551
1.31528
0.0398483
-0.0392205
-1.10005
1.09942
0.0385466
-0.0378135
-0.92488
0.924147
0.0372422
-0.0361809
-0.78103
0.779969
0.0345851
-0.0314297
-0.643142
0.639987
0.027156
-0.0213606
-0.472482
0.466686
0.0158141
-0.0102077
-0.27976
0.274154
0.00601483
-0.00263118
-0.12095
0.117567
0.000747864
-0.0185029
0.0177551
-0.0306959
0.0314025
-0.000706524
0.00433373
-0.00639024
-0.227498
0.229555
0.00847901
-0.010092
-0.395918
0.397531
0.0116299
-0.0130867
-0.556564
0.558021
0.0149602
-0.0171607
-0.686357
0.688557
0.0200819
-0.0230632
-0.810769
0.813751
0.0265343
-0.0297815
-0.957095
0.960342
0.0333501
-0.0365403
-1.133
1.13619
0.0398649
-0.042631
-1.34318
1.34594
0.0452164
-0.0470085
-1.59434
1.59613
0.0480328
-0.0483287
-1.58194
1.58224
0.0480533
-0.0473664
-1.31481
1.31412
0.0464877
-0.0453922
-1.09853
1.09743
0.044313
-0.0431541
-0.923181
0.922022
0.0421213
-0.0405451
-0.778353
0.776777
0.038308
-0.0343871
-0.636743
0.632822
0.0294403
-0.023017
-0.460899
0.454476
0.0170234
-0.011022
-0.268531
0.26253
0.00652335
-0.00286783
-0.114142
0.110486
0.000819041
-0.0170092
0.0161902
-0.0321796
0.033173
-0.000993382
0.00622762
-0.009383
-0.23205
0.235206
0.0127182
-0.0153851
-0.399681
0.402348
0.0178852
-0.020037
-0.560365
0.562517
0.022483
-0.0251451
-0.691308
0.69397
0.0285705
-0.0319949
-0.816725
0.820149
0.035925
-0.0395646
-0.963468
0.967108
0.0435247
-0.0470164
-1.13928
1.14277
0.0505794
-0.0534457
-1.34857
1.35144
0.0559728
-0.0575303
-1.59768
1.59924
0.0581709
-0.057966
-1.58221
1.582
0.0571965
-0.0559496
-1.31308
1.31183
0.0545739
-0.0529388
-1.09597
1.09433
0.051391
-0.0497283
-0.920532
0.918869
0.0481742
-0.0459976
-0.7746
0.772423
0.0430383
-0.0382177
-0.628843
0.624023
0.0324508
-0.0252359
-0.448053
0.440838
0.0186432
-0.0120887
-0.256473
0.249919
0.00716723
-0.00315385
-0.106763
0.10275
0.000900608
-0.0153725
0.0144719
-0.0342318
0.0356189
-0.00138708
0.00871424
-0.0131956
-0.23877
0.243252
0.0180012
-0.0218859
-0.405726
0.409611
0.0254995
-0.0284648
-0.565793
0.568758
0.0316131
-0.0348532
-0.697276
0.700516
0.0389169
-0.0429116
-0.823564
0.827559
0.0474441
-0.0515967
-0.970658
0.974811
0.0560522
-0.0599013
-1.14617
1.15002
0.0637176
-0.0666606
-1.35414
1.35708
0.0690779
-0.0703336
-1.60051
1.60177
0.0705039
-0.069676
-1.58141
1.58058
0.0683028
-0.0663766
-1.31012
1.30819
0.0644189
-0.0621923
-1.09221
1.08998
0.0601228
-0.0579062
-0.916762
0.914546
0.0557087
-0.0528157
-0.769587
0.766694
0.0489801
-0.0430826
-0.619157
0.61326
0.0363294
-0.0281234
-0.433629
0.425423
0.0207377
-0.0134332
-0.243265
0.235961
0.00794934
-0.0034827
-0.0986414
0.0941747
0.000987743
-0.013575
0.0125872
-0.037051
0.0390013
-0.00195029
0.0120765
-0.0182368
-0.248098
0.254258
0.0248161
-0.0301316
-0.414512
0.419827
0.035069
-0.0390528
-0.57318
0.577164
0.0431304
-0.0471614
-0.704537
0.708568
0.0520802
-0.0568109
-0.831554
0.836285
0.0620849
-0.0668317
-0.978898
0.983644
0.071813
-0.0759923
-1.15374
1.15792
0.079977
-0.0828774
-1.35978
1.36268
0.0850114
-0.0857803
-1.60263
1.6034
0.0852968
-0.0836838
-1.57928
1.57767
0.0815773
-0.0788678
-1.30574
1.30303
0.0762475
-0.0733462
-1.0871
1.0842
0.0707132
-0.0678838
-0.911735
0.908906
0.0649823
-0.0612275
-0.763096
0.759341
0.0563753
-0.0492237
-0.607327
0.600176
0.0412772
-0.0318124
-0.417223
0.407758
0.0233812
-0.0150801
-0.228507
0.220206
0.00887021
-0.0038487
-0.0895871
0.0845656
0.00107735
-0.0116077
0.0105303
-0.0409521
0.0437607
-0.00280859
0.0169288
-0.0252882
-0.260716
0.269075
0.034042
-0.0410726
-0.426686
0.433716
0.0476133
-0.0528551
-0.583055
0.588297
0.0582015
-0.0633528
-0.713563
0.718714
0.0693654
-0.0749513
-0.84101
0.846596
0.0810035
-0.0863004
-0.988291
0.993588
0.0916934
-0.0960558
-1.16189
1.16625
0.100008
-0.102655
-1.36521
1.36786
0.10425
-0.10428
-1.60362
1.60365
0.102917
-0.100319
-1.57545
1.57285
0.0973233
-0.0936766
-1.29969
1.29604
0.0902598
-0.0865839
-1.08053
1.07686
0.0833312
-0.0798276
-0.905292
0.901788
0.0762388
-0.0714887
-0.75474
0.74999
0.0654528
-0.0567976
-0.592949
0.584294
0.0473867
-0.0363354
-0.398297
0.387246
0.026555
-0.0169785
-0.211726
0.20215
0.0098807
-0.00422468
-0.0794166
0.0737606
0.00116083
-0.0094697
0.00830887
-0.04649
0.0507494
-0.00425937
0.0244664
-0.0358097
-0.277734
0.289077
0.0473654
-0.0566413
-0.44326
0.452535
0.0651133
-0.0717992
-0.59604
0.602725
0.078693
-0.0853107
-0.724843
0.73146
0.0925004
-0.0988835
-0.852133
0.858517
0.105571
-0.11123
-0.998687
1.00435
0.116766
-0.121023
-1.17024
1.1745
0.124586
-0.126624
-1.36995
1.37199
0.127271
-0.126199
-1.60294
1.60187
0.12363
-0.119758
-1.56948
1.5656
0.115683
-0.110951
-1.29166
1.28692
0.106651
-0.102148
-1.07227
1.06777
0.0982462
-0.0939692
-0.897276
0.892999
0.0896609
-0.0837457
-0.744203
0.738288
0.0762597
-0.0657602
-0.575446
0.564947
0.0545652
-0.0415578
-0.376197
0.363189
0.0300985
-0.0189815
-0.192434
0.181317
0.0108753
-0.00456047
-0.0680262
0.0617114
0.00122332
-0.00718085
0.00595753
-0.0547196
0.0620404
-0.0073208
0.0378373
-0.0535636
-0.301253
0.316979
0.0690311
-0.0813122
-0.465758
0.478039
0.0917847
-0.0998299
-0.61253
0.620575
0.10825
-0.116089
-0.738691
0.74653
0.124165
-0.130965
-0.864673
0.871472
0.137778
-0.143275
-1.00958
1.01507
0.148354
-0.151915
-1.1781
1.18166
0.154447
-0.155278
-1.37317
1.374
0.154397
-0.151736
-1.59978
1.59712
0.147574
-0.142141
-1.56081
1.55537
0.136772
-0.130794
-1.28139
1.27541
0.125487
-0.120053
-1.0622
1.05677
0.115451
-0.110416
-0.887407
0.882372
0.105201
-0.0977403
-0.731046
0.723586
0.0884958
-0.0757465
-0.554053
0.541304
0.0623607
-0.0470494
-0.350138
0.334827
0.033681
-0.0209014
-0.170272
0.157493
0.0117532
-0.0048157
-0.0555007
0.0485632
0.00124746
-0.00479579
0.00354832
-0.0688968
0.0729763
-0.00407946
0.0288666
-0.0424496
-0.335247
0.34883
0.0561311
-0.0672502
-0.495485
0.506604
0.0771561
-0.0864636
-0.632128
0.641436
0.0968789
-0.106177
-0.753995
0.763293
0.116451
-0.125569
-0.87744
0.886558
0.13519
-0.143623
-1.01965
1.02808
0.152216
-0.159324
-1.1841
1.1912
0.165982
-0.170794
-1.3736
1.37842
0.174267
-0.175381
-1.59316
1.59427
0.174068
-0.170852
-1.5488
1.54558
0.166669
-0.161267
-1.26855
1.26315
0.156204
-0.150264
-1.05015
1.04421
0.145191
-0.139426
-0.875469
0.869704
0.132986
-0.122709
-0.714461
0.704183
0.109457
-0.0916829
-0.527779
0.510004
0.0736582
-0.0535188
-0.3192
0.299061
0.0368461
-0.0218306
-0.145186
0.130171
0.0117252
-0.00458071
-0.0422533
0.0351088
0.00111676
-0.00242491
0.00130815
-0.0800916
0.0782235
0.00186811
0.00719674
-0.0161081
-0.365286
0.374197
0.0264854
-0.0343724
-0.522463
0.53035
0.042329
-0.0503392
-0.653076
0.661086
0.0599643
-0.0687677
-0.77231
0.781113
0.0780462
-0.0864828
-0.895174
0.903611
0.0953388
-0.10275
-1.03622
1.04363
0.110465
-0.116464
-1.19809
1.20409
0.121985
-0.125619
-1.38283
1.38647
0.127505
-0.127207
-1.59437
1.59408
0.124476
-0.119786
-1.54132
1.53663
0.114094
-0.107089
-1.25695
1.24994
0.100536
-0.0932616
-1.03711
1.02983
0.086623
-0.0791651
-0.860247
0.852789
0.0719037
-0.0628071
-0.6899
0.680804
0.0528433
-0.0407283
-0.490394
0.478279
0.0297433
-0.0192545
-0.27878
0.268291
0.0119346
-0.00639823
-0.115915
0.110379
0.00321497
-0.00124172
-0.0284643
0.0264911
0.000354083
-0.000211528
-0.000142555
-0.0814691
0.0785918
0.00287731
-0.00185706
-0.00327564
-0.385533
0.390666
0.0103097
-0.016173
-0.542384
0.548247
0.0222605
-0.0291969
-0.671038
0.677974
0.0375561
-0.045225
-0.789072
0.796741
0.0535352
-0.0609208
-0.911337
0.918723
0.068417
-0.0750385
-1.05086
1.05749
0.0817223
-0.0870038
-1.20964
1.21492
0.0914136
-0.0940584
-1.38941
1.39206
0.0952327
-0.0941341
-1.59304
1.59195
0.0906819
-0.085326
-1.53129
1.52594
0.0791418
-0.0717656
-1.24269
1.23531
0.0643719
-0.0562001
-1.02151
1.01334
0.048535
-0.040016
-0.842993
0.834474
0.0325889
-0.0246922
-0.667921
0.660024
0.0171501
-0.00912004
-0.464295
0.456265
0.00359975
-3.80223e-05
-0.256932
0.25337
-0.00137141
0.00156528
-0.104039
0.103845
-0.00112194
0.000499095
-0.0241324
0.0247553
-0.000111113
0.000487956
-0.000376843
-0.0802147
0.0775113
0.00270342
-0.00535187
0.00289672
-0.399014
0.401469
0.00159815
-0.00608977
-0.55732
0.561812
0.0113199
-0.017171
-0.685932
0.691783
0.0243596
-0.0309803
-0.803822
0.810443
0.0381246
-0.0444856
-0.925605
0.931966
0.0513199
-0.0569699
-1.06369
1.06934
0.0628727
-0.0671011
-1.21982
1.22404
0.0709142
-0.0730867
-1.39451
1.39668
0.0736435
-0.071821
-1.5904
1.58858
0.0680529
-0.0623992
-1.51996
1.5143
0.0559589
-0.0479971
-1.22758
1.21962
0.0404545
-0.0321719
-1.00449
0.996205
0.0243937
-0.0163316
-0.82457
0.816508
0.00913324
-0.00225099
-0.648489
0.641607
-0.00342967
0.00814846
-0.446664
0.441946
-0.00997743
0.0096515
-0.247213
0.247539
-0.00815428
0.00575924
-0.102399
0.104794
-0.00360933
0.00156722
-0.0247861
0.0268282
-0.000382474
0.000333778
4.86962e-05
-0.0787567
0.0763841
0.00237259
-0.00637437
0.00547092
-0.408022
0.408925
-0.00216288
-0.00112027
-0.569385
0.572668
0.00543256
-0.0107539
-0.698477
0.703798
0.0168131
-0.0226626
-0.816389
0.822238
0.0288939
-0.0344634
-0.93791
0.94348
0.0403904
-0.0455025
-1.07489
1.08
0.0505994
-0.0545935
-1.22818
1.23218
0.0579396
-0.0597532
-1.39853
1.40034
0.0599805
-0.0579023
-1.58655
1.58447
0.0539513
-0.0480085
-1.50788
1.50193
0.0415937
-0.0339464
-1.21156
1.20392
0.0267168
-0.0187737
-0.987597
0.979654
0.0116488
-0.00410311
-0.807434
0.799888
-0.00239763
0.00839661
-0.631611
0.625612
-0.012766
0.0158065
-0.434769
0.431729
-0.0161369
0.0140683
-0.244555
0.246624
-0.0112651
0.00789703
-0.105865
0.109233
-0.0049271
0.00218782
-0.0282725
0.0310118
-0.000607239
-0.000455339
0.00106258
-0.0774412
0.0754247
0.0020165
-0.00617271
0.00573288
-0.414248
0.414688
-0.00377779
0.00110952
-0.578725
0.581393
0.00311182
-0.00767185
-0.70915
0.71371
0.0129108
-0.0180244
-0.82731
0.832423
0.0236194
-0.0286672
-0.948745
0.953793
0.0341936
-0.0387847
-1.08489
1.08948
0.0435058
-0.0472202
-1.23594
1.23966
0.0502747
-0.0518985
-1.40194
1.40356
0.0520036
-0.0503314
-1.58233
1.58066
0.0465907
-0.0412766
-1.49568
1.49037
0.0354589
-0.028586
-1.19634
1.18947
0.022327
-0.0150178
-0.971798
0.964489
0.00831369
-0.00109243
-0.79164
0.784418
-0.0052958
0.0113318
-0.616738
0.610702
-0.0151933
0.0176365
-0.426062
0.423619
-0.0173296
0.0148897
-0.245267
0.247707
-0.0119159
0.00831392
-0.111301
0.114903
-0.00518237
0.00236111
-0.0329427
0.0357639
-0.000693089
-0.00153532
0.00222841
-0.0764836
0.0749277
0.0015559
-0.00523689
0.00509396
-0.418932
0.419075
-0.00350223
0.00146895
-0.586909
0.588942
0.00250179
-0.00663715
-0.718422
0.722557
0.0116325
-0.0160805
-0.837151
0.841599
0.0210652
-0.0256265
-0.958856
0.963417
0.030982
-0.0352719
-1.09416
1.09845
0.039602
-0.0432357
-1.24325
1.24688
0.046568
-0.0481871
-1.40526
1.40688
0.0485803
-0.0472203
-1.57874
1.57738
0.0444139
-0.0397524
-1.48517
1.48051
0.0350073
-0.0292771
-1.18284
1.17711
0.0236602
-0.0171349
-0.95738
0.950855
0.0106476
-0.00328905
-0.776318
0.76896
-0.00292034
0.00896376
-0.602279
0.596236
-0.0128089
0.0148563
-0.418772
0.416725
-0.0148294
0.0129823
-0.246993
0.24884
-0.010401
0.00725229
-0.116898
0.120046
-0.0045357
0.00209674
-0.0375793
0.0400183
-0.000636416
-0.00266891
0.00330532
-0.076041
0.0748298
0.00121119
-0.00414057
0.00409805
-0.422717
0.422759
-0.00266252
0.000723042
-0.594073
0.596013
0.00311647
-0.00684532
-0.726787
0.730516
0.0111642
-0.0154934
-0.845999
0.850328
0.0201667
-0.0249325
-0.967834
0.9726
0.0296545
-0.0338429
-1.10288
1.10707
0.038385
-0.0418606
-1.25044
1.25392
0.0448366
-0.0470148
-1.40848
1.41066
0.047855
-0.0471671
-1.57626
1.57558
0.0450361
-0.0415282
-1.47637
1.47287
0.0375718
-0.0325303
-1.17134
1.1663
0.0274314
-0.021142
-0.944164
0.937874
0.0147717
-0.00766638
-0.761103
0.753997
0.0012733
0.00441719
-0.58839
0.5827
-0.0079407
0.00998138
-0.41219
0.41015
-0.0103524
0.00916726
-0.247993
0.249178
-0.00743341
0.00523716
-0.121293
0.123489
-0.00331604
0.00155132
-0.0412998
0.0430645
-0.000486506
-0.00361245
0.00409896
-0.0761254
0.0751182
0.00100721
-0.00287811
0.00258076
-0.426154
0.426452
-0.00129465
-0.000722435
-0.600666
0.602683
0.00424977
-0.00787242
-0.734621
0.738244
0.0120452
-0.0160098
-0.854454
0.858419
0.0208479
-0.0248855
-0.976834
0.980872
0.0296302
-0.0336848
-1.11144
1.11549
0.0381603
-0.0418806
-1.25741
1.26113
0.0452243
-0.0473201
-1.41267
1.41477
0.048726
-0.0487284
-1.57499
1.57499
0.0475398
-0.0446001
-1.46945
1.46651
0.0411876
-0.0365157
-1.16141
1.15674
0.0316555
-0.0254556
-0.931223
0.925023
0.019357
-0.0124211
-0.746286
0.73935
0.00641613
-0.000897239
-0.575636
0.570118
-0.00267052
0.00460635
-0.405747
0.403811
-0.00531128
0.00492182
-0.247772
0.248162
-0.00411058
0.00288549
-0.123862
0.125087
-0.001832
0.000902482
-0.0436213
0.0445508
-0.00029911
-0.00424304
0.00454215
-0.0764844
0.0757866
0.000697786
-0.00176509
0.00106366
-0.429722
0.430423
2.77907e-06
-0.00231953
-0.606513
0.60883
0.00552455
-0.00904873
-0.741968
0.745492
0.0130757
-0.0171956
-0.862254
0.866374
0.0214596
-0.0256846
-0.98514
0.989365
0.0304175
-0.0342826
-1.11998
1.12385
0.0388637
-0.0425668
-1.26467
1.26838
0.0460296
-0.0487427
-1.41733
1.42004
0.0507824
-0.0512169
-1.57515
1.57558
0.0503713
-0.0481227
-1.4638
1.46155
0.0451283
-0.040615
-1.15188
1.14736
0.0358158
-0.0300365
-0.918622
0.912842
0.0239354
-0.0176639
-0.732004
0.725732
0.0122008
-0.00705979
-0.563938
0.558797
0.00366179
-0.0012227
-0.399251
0.396812
5.11445e-05
0.000507803
-0.246265
0.245706
-0.000613397
0.000535017
-0.124485
0.124564
-0.000446558
0.000293758
-0.0444068
0.0445596
-0.000130093
-0.00451867
0.00464877
-0.0772442
0.0766969
0.000547248
-0.000841084
0.000260634
-0.433515
0.434095
0.00157135
-0.00366063
-0.612637
0.614726
0.00702632
-0.0104511
-0.748869
0.752294
0.0143485
-0.0180954
-0.870177
0.873924
0.0225042
-0.0264305
-0.993611
0.997537
0.0311147
-0.0354042
-1.12817
1.13245
0.0396274
-0.0436669
-1.27213
1.27617
0.0475813
-0.0504435
-1.4227
1.42556
0.0529225
-0.0541579
-1.57628
1.57752
0.0536938
-0.0519024
-1.45914
1.45735
0.0489152
-0.0446488
-1.14278
1.13851
0.040142
-0.0345602
-0.906603
0.901021
0.0290375
-0.0232425
-0.718937
0.713142
0.0182478
-0.0133408
-0.552983
0.548076
0.00978596
-0.00695812
-0.39242
0.389592
0.00496898
-0.00349558
-0.243
0.241526
0.00239563
-0.00139026
-0.123007
0.122001
0.000653209
-0.000140529
-0.043716
0.0432033
-2.54113e-05
-0.00442042
0.00444583
-0.0782573
0.0778883
0.000369013
0.000151464
-0.000992498
-0.43738
0.438221
0.00264631
-0.00505041
-0.618323
0.620727
0.00836366
-0.0116523
-0.75558
0.758869
0.0156475
-0.0192572
-0.877655
0.881265
0.0235208
-0.0275661
-1.00194
1.00599
0.0321394
-0.0363779
-1.13659
1.14083
0.0408069
-0.0448728
-1.28014
1.2842
0.0489891
-0.052613
-1.42873
1.43235
0.0555356
-0.0570046
-1.57869
1.58016
0.057086
-0.0554065
-1.45537
1.45369
0.0527849
-0.0488961
-1.1341
1.13021
0.0444264
-0.0391875
-0.895155
0.889916
0.0340869
-0.0285993
-0.706979
0.701491
0.023996
-0.0191587
-0.542795
0.537958
0.0154566
-0.0119867
-0.385002