/*--------------------------------*- C++ -*----------------------------------*\
| =========                 |                                                 |
| \\      /  F ield         | OpenFOAM: The Open Source CFD Toolbox           |
|  \\    /   O peration     | Version:  4.0                                   |
|   \\  /    A nd           | Web:      www.OpenFOAM.org                      |
|    \\/     M anipulation  |                                                 |
\*---------------------------------------------------------------------------*/
FoamFile
{
    version     2.0;
    format      ascii;
    class       volVectorField;
    location    "44";
    object      U;
}
// * * * * * * * * * * * * * * * * * * * * * * * * * * * * * * * * * * * * * //

dimensions      [0 1 -1 0 0 0 0];

internalField   nonuniform List<vector> 
8800
(
(0.980149 -0.091521 0)
(1.00234 -0.0587252 0)
(0.999598 -0.0321257 0)
(0.999992 -0.0165171 0)
(1.00007 -0.00883297 0)
(1.00007 -0.00508569 0)
(1.00004 -0.00298939 0)
(1.00002 -0.00168771 0)
(0.999997 -0.000791549 0)
(1.00006 -9.68476e-05 0)
(0.999988 0.000607086 0)
(0.999996 0.00135759 0)
(1.00001 0.00238322 0)
(1.00002 0.00399304 0)
(1.00003 0.0067458 0)
(0.999986 0.0120492 0)
(0.999789 0.0230949 0)
(0.999031 0.0431584 0)
(1.00723 0.0790273 0)
(0.775023 0.0478396 0)
(0.358979 -0.014749 0)
(1.04649 -0.0724911 0)
(1.08848 -0.066029 0)
(1.04945 -0.0509234 0)
(1.02554 -0.0377033 0)
(1.01272 -0.0258958 0)
(1.00655 -0.0167063 0)
(1.00361 -0.010229 0)
(1.00218 -0.00560577 0)
(1.00151 -0.00202045 0)
(1.00138 0.00118715 0)
(1.00173 0.00449139 0)
(1.0027 0.00837901 0)
(1.00473 0.0136979 0)
(1.00896 0.0213892 0)
(1.01794 0.0318897 0)
(1.03578 0.044664 0)
(1.0674 0.0581068 0)
(1.0947 0.0699647 0)
(0.845638 0.0555064 0)
(0.217769 -0.00138169 0)
(1.07566 -0.0506651 0)
(1.09941 -0.0489514 0)
(1.06438 -0.0400379 0)
(1.03988 -0.0325786 0)
(1.02377 -0.0253678 0)
(1.01399 -0.0181627 0)
(1.0085 -0.0115513 0)
(1.00565 -0.00580133 0)
(1.00448 -0.000519072 0)
(1.00479 0.00458586 0)
(1.00664 0.00987024 0)
(1.01056 0.0158434 0)
(1.01787 0.0226126 0)
(1.03049 0.0297318 0)
(1.05048 0.0368241 0)
(1.08003 0.0446006 0)
(1.10565 0.0519282 0)
(0.943283 0.0410062 0)
(0.217211 0.00140462 0)
(0.176613 -0.00062932 0)
(1.01936 -0.0354779 0)
(1.10569 -0.0414328 0)
(1.07795 -0.0364219 0)
(1.05241 -0.03038 0)
(1.03518 -0.0245102 0)
(1.02333 -0.0187302 0)
(1.01553 -0.0127439 0)
(1.01093 -0.00665837 0)
(1.0089 -0.000430859 0)
(1.00944 0.00571856 0)
(1.01252 0.0116288 0)
(1.01847 0.0174014 0)
(1.02805 0.0229924 0)
(1.04226 0.0285573 0)
(1.06308 0.0343469 0)
(1.09386 0.0402352 0)
(1.09443 0.0417648 0)
(0.830245 0.0227697 0)
(0.175659 0.000647525 0)
(0.154691 -0.000463172 0)
(0.958101 -0.0257083 0)
(1.10436 -0.0351466 0)
(1.08804 -0.0327061 0)
(1.0612 -0.028206 0)
(1.04315 -0.0232571 0)
(1.03078 -0.0179746 0)
(1.0222 -0.0124455 0)
(1.01666 -0.00654991 0)
(1.01402 -0.000111792 0)
(1.01467 0.00633665 0)
(1.01846 0.0122028 0)
(1.02523 0.0175284 0)
(1.03537 0.0225541 0)
(1.05012 0.0273917 0)
(1.07206 0.0318435 0)
(1.10102 0.0357284 0)
(1.06973 0.0339456 0)
(0.74264 0.0144412 0)
(0.153264 0.000483606 0)
(0.13999 -0.00033527 0)
(0.901029 -0.0193478 0)
(1.09672 -0.0302635 0)
(1.09614 -0.0294014 0)
(1.06887 -0.0256335 0)
(1.05004 -0.0215663 0)
(1.03709 -0.0168889 0)
(1.02813 -0.0116602 0)
(1.0222 -0.00595964 0)
(1.01924 0.000377446 0)
(1.01987 0.00673835 0)
(1.02388 0.0123792 0)
(1.0309 0.0173625 0)
(1.04141 0.0218525 0)
(1.0568 0.0258208 0)
(1.0796 0.0293516 0)
(1.10335 0.0320781 0)
(1.03801 0.0280906 0)
(0.675913 0.0102891 0)
(0.137984 0.000359488 0)
(0.129233 -0.000254091 0)
(0.851076 -0.0149563 0)
(1.08431 -0.0261787 0)
(1.10179 -0.0265481 0)
(1.07566 -0.0232457 0)
(1.05631 -0.0196143 0)
(1.04294 -0.0154471 0)
(1.03361 -0.0106122 0)
(1.02742 -0.00514426 0)
(1.02424 0.0009928 0)
(1.02478 0.00712326 0)
(1.02882 0.0124767 0)
(1.03599 0.0170445 0)
(1.04679 0.0209355 0)
(1.06256 0.0243028 0)
(1.08582 0.027367 0)
(1.10264 0.0292079 0)
(1.00343 0.0235282 0)
(0.623998 0.00787958 0)
(0.126521 0.000283521 0)
(0.121025 -0.000195388 0)
(0.808485 -0.0117741 0)
(1.06891 -0.022596 0)
(1.10524 -0.0239466 0)
(1.08185 -0.0211135 0)
(1.06205 -0.0177204 0)
(1.04841 -0.0138394 0)
(1.03883 -0.00933654 0)
(1.03237 -0.00416023 0)
(1.02898 0.00173279 0)
(1.02937 0.00759378 0)
(1.03338 0.0125901 0)
(1.04063 0.0167031 0)
(1.05153 0.0201274 0)
(1.06756 0.0230953 0)
(1.09121 0.0258444 0)
(1.09905 0.0267779 0)
(0.968516 0.0199209 0)
(0.58242 0.00630104 0)
(0.117456 0.000231137 0)
(0.114653 -0.000150908 0)
(0.772544 -0.00939269 0)
(1.05195 -0.0194411 0)
(1.1075 -0.0215345 0)
(1.08763 -0.0190849 0)
(1.06742 -0.0158564 0)
(1.05354 -0.0121609 0)
(1.04377 -0.0078873 0)
(1.0371 -0.00297447 0)
(1.03347 0.00263186 0)
(1.03367 0.00815899 0)
(1.03758 0.0127622 0)
(1.04477 0.0164611 0)
(1.05571 0.0195125 0)
(1.07198 0.0221537 0)
(1.09537 0.024578 0)
(1.09272 0.0247314 0)
(0.934626 0.0171081 0)
(0.548188 0.00521066 0)
(0.110039 0.000194495 0)
(0.109667 -0.000115793 0)
(0.742334 -0.00754582 0)
(1.03448 -0.0166396 0)
(1.10878 -0.0192745 0)
(1.0931 -0.0171617 0)
(1.07259 -0.0140537 0)
(1.05844 -0.0104712 0)
(1.04849 -0.00633594 0)
(1.04162 -0.0016169 0)
(1.03773 0.00370975 0)
(1.03769 0.00888848 0)
(1.04141 0.0131209 0)
(1.04848 0.0164776 0)
(1.05944 0.0192059 0)
(1.07596 0.0215422 0)
(1.0983 0.0235938 0)
(1.08404 0.0230101 0)
(0.902391 0.014934 0)
(0.519266 0.00443786 0)
(0.103785 0.000168916 0)
(0.105779 -8.68999e-05 0)
(0.717043 -0.00605739 0)
(1.01735 -0.0141182 0)
(1.10916 -0.0170747 0)
(1.0984 -0.0152648 0)
(1.07764 -0.0121923 0)
(1.0632 -0.00867176 0)
(1.05304 -0.00464139 0)
(1.04594 -7.6382e-05 0)
(1.04177 0.00500741 0)
(1.04142 0.00985939 0)
(1.04488 0.0137229 0)
(1.05179 0.0167064 0)
(1.06275 0.0190986 0)
(1.07947 0.0211756 0)
(1.09989 0.0228469 0)
(1.07341 0.0215776 0)
(0.871991 0.0132772 0)
(0.494225 0.00388855 0)
(0.0983531 0.000151506 0)
(0.102796 -6.19668e-05 0)
(0.696035 -0.00480838 0)
(1.00119 -0.0118141 0)
(1.10885 -0.0149165 0)
(1.10354 -0.0133265 0)
(1.08265 -0.0102426 0)
(1.06788 -0.00673514 0)
(1.05747 -0.00275235 0)
(1.0501 0.00170626 0)
(1.04558 0.00657146 0)
(1.04486 0.0111002 0)
(1.04799 0.0146151 0)
(1.05471 0.0172587 0)
(1.06565 0.0193262 0)
(1.08256 0.0211232 0)
(1.10055 0.0223812 0)
(1.06118 0.0204585 0)
(0.843333 0.0120473 0)
(0.472011 0.00350695 0)
(0.0934892 0.000140891 0)
(0.100597 -3.8923e-05 0)
(0.67885 -0.00370572 0)
(0.986441 -0.00964176 0)
(1.10799 -0.0126967 0)
(1.10841 -0.011278 0)
(1.08768 -0.00819738 0)
(1.07257 -0.00464895 0)
(1.06185 -0.000640409 0)
(1.05413 0.0037605 0)
(1.04916 0.0084616 0)
(1.04797 0.0127053 0)
(1.05073 0.0158586 0)
(1.05723 0.018143 0)
(1.06815 0.01988 0)
(1.08516 0.0213925 0)
(1.10019 0.0222821 0)
(1.04756 0.019639 0)
(0.816173 0.0111671 0)
(0.451821 0.00325342 0)
(0.0889993 0.00013559 0)
(0.0991176 -1.6567e-05 0)
(0.665185 -0.00268283 0)
(0.973497 -0.00753657 0)
(1.10691 -0.0103483 0)
(1.11315 -0.00899232 0)
(1.0928 -0.00586239 0)
(1.07732 -0.00222683 0)
(1.06623 0.00182804 0)
(1.05808 0.00620348 0)
(1.05258 0.0107636 0)
(1.05083 0.0147156 0)
(1.05314 0.0174988 0)
(1.05935 0.0193899 0)
(1.07019 0.0207456 0)
(1.08724 0.0219613 0)
(1.09872 0.0224284 0)
(1.03271 0.0190859 0)
(0.7902 0.0105709 0)
(0.433023 0.00309879 0)
(0.0847316 0.000134064 0)
(0.0983412 6.92229e-06 0)
(0.654894 -0.00168976 0)
(0.962673 -0.005432 0)
(1.10596 -0.00783609 0)
(1.11792 -0.00646035 0)
(1.09808 -0.00324156 0)
(1.08216 0.000538541 0)
(1.07065 0.0047074 0)
(1.06198 0.00912559 0)
(1.05582 0.0135655 0)
(1.05337 0.0172073 0)
(1.05513 0.0195951 0)
(1.061 0.0210774 0)
(1.07179 0.0220362 0)
(1.08885 0.0229237 0)
(1.09612 0.0229206 0)
(1.0167 0.0188529 0)
(0.765054 0.010238 0)
(0.415101 0.00303416 0)
(0.0805592 0.00013707 0)
(0.0982987 2.88149e-05 0)
(0.647992 -0.000676474 0)
(0.954292 -0.00323949 0)
(1.10543 -0.00506004 0)
(1.12283 -0.00359867 0)
(1.10361 -0.000272118 0)
(1.08724 0.00372309 0)
(1.07521 0.00808518 0)
(1.06589 0.0125981 0)
(1.05893 0.0169747 0)
(1.05564 0.0203361 0)
(1.05673 0.0223089 0)
(1.06217 0.0233308 0)
(1.07283 0.0238385 0)
(1.08967 0.0243059 0)
(1.09214 0.023771 0)
(0.99949 0.0189165 0)
(0.740356 0.0101353 0)
(0.397604 0.00304571 0)
(0.0763689 0.000143144 0)
(0.0990207 6.60267e-05 0)
(0.644608 0.000383858 0)
(0.948722 -0.000883578 0)
(1.10572 -0.00192028 0)
(1.12804 -0.00022125 0)
(1.10946 0.00331349 0)
(1.09259 0.00758518 0)
(1.07991 0.0121708 0)
(1.06979 0.0168209 0)
(1.06183 0.0211397 0)
(1.05753 0.0241714 0)
(1.05781 0.0256669 0)
(1.06276 0.0261533 0)
(1.07328 0.0261551 0)
(1.08956 0.0261786 0)
(1.08665 0.0249911 0)
(0.98102 0.0193167 0)
(0.715703 0.0102626 0)
(0.380111 0.00313262 0)
(0.0720557 0.000152524 0)
(0.100729 9.53235e-05 0)
(0.645085 0.0015633 0)
(0.946283 0.00167913 0)
(1.10729 0.00163892 0)
(1.13383 0.00368348 0)
(1.11577 0.00754064 0)
(1.0983 0.0121677 0)
(1.08487 0.0170753 0)
(1.07378 0.0219337 0)
(1.06459 0.0262162 0)
(1.05904 0.0289126 0)
(1.05836 0.0298585 0)
(1.06269 0.0297558 0)
(1.07302 0.0291868 0)
(1.08839 0.0286593 0)
(1.07952 0.0266888 0)
(0.961077 0.0200891 0)
(0.690634 0.0106233 0)
(0.362206 0.00329424 0)
(0.0675162 0.000165352 0)
(0.103471 0.000142994 0)
(0.649888 0.00304975 0)
(0.947467 0.004643 0)
(1.11054 0.0057376 0)
(1.1403 0.00822674 0)
(1.12265 0.0125181 0)
(1.10452 0.0176501 0)
(1.09017 0.0230135 0)
(1.07789 0.0281617 0)
(1.06722 0.0324249 0)
(1.06014 0.0347111 0)
(1.05829 0.0350398 0)
(1.06186 0.0342685 0)
(1.07191 0.0330774 0)
(1.08592 0.0318695 0)
(1.0705 0.0289053 0)
(0.939408 0.0212591 0)
(0.664687 0.0112259 0)
(0.343481 0.00352964 0)
(0.0626529 0.000180659 0)
(0.107533 0.000203997 0)
(0.659419 0.00473955 0)
(0.95277 0.0081184 0)
(1.11597 0.0105765 0)
(1.1477 0.0137542 0)
(1.13033 0.018682 0)
(1.11142 0.0244119 0)
(1.0959 0.0302884 0)
(1.0821 0.0357606 0)
(1.06959 0.0400006 0)
(1.06068 0.0418046 0)
(1.05747 0.0413902 0)
(1.06013 0.0398212 0)
(1.06981 0.0378898 0)
(1.08198 0.0359388 0)
(1.05927 0.0317908 0)
(0.915663 0.0229357 0)
(0.637272 0.0121064 0)
(0.323477 0.00384565 0)
(0.0573648 0.000198998 0)
(0.11324 0.000286888 0)
(0.674393 0.00686346 0)
(0.962823 0.012306 0)
(1.12423 0.0163277 0)
(1.15649 0.0204304 0)
(1.13901 0.0262351 0)
(1.11906 0.0327096 0)
(1.1021 0.03923 0)
(1.08644 0.0450928 0)
(1.0717 0.049232 0)
(1.06063 0.0503817 0)
(1.05577 0.049078 0)
(1.0573 0.0465934 0)
(1.06654 0.0438241 0)
(1.07651 0.0410066 0)
(1.04551 0.0355031 0)
(0.8893 0.0251767 0)
(0.607726 0.0132751 0)
(0.301727 0.00423423 0)
(0.0515669 0.000218001 0)
(0.121107 0.000404541 0)
(0.695757 0.00961265 0)
(0.978393 0.0174699 0)
(1.13584 0.0233064 0)
(1.16713 0.0285287 0)
(1.14904 0.0354472 0)
(1.12777 0.0429015 0)
(1.10897 0.0502361 0)
(1.09098 0.0565154 0)
(1.07351 0.0604755 0)
(1.05989 0.0608231 0)
(1.05307 0.0584153 0)
(1.0533 0.0548924 0)
(1.06193 0.0511811 0)
(1.06924 0.0473466 0)
(1.02872 0.0401843 0)
(0.859713 0.028094 0)
(0.575264 0.0147716 0)
(0.277731 0.00469088 0)
(0.0452081 0.000235145 0)
(0.131893 0.000579299 0)
(0.724793 0.013303 0)
(1.0006 0.0240524 0)
(1.15149 0.0320627 0)
(1.18009 0.0387596 0)
(1.16076 0.0471711 0)
(1.13766 0.0558325 0)
(1.11638 0.0640375 0)
(1.09539 0.0705993 0)
(1.07463 0.0741035 0)
(1.05808 0.0733264 0)
(1.04913 0.069599 0)
(1.04793 0.0648641 0)
(1.05576 0.0600489 0)
(1.0598 0.0549978 0)
(1.00833 0.0460524 0)
(0.826098 0.0318382 0)
(0.538917 0.0166352 0)
(0.250949 0.00520909 0)
(0.0382645 0.000249305 0)
(0.146808 0.000853395 0)
(0.76337 0.0185742 0)
(1.03099 0.0328233 0)
(1.17224 0.0435066 0)
(1.19631 0.0522535 0)
(1.17458 0.0625091 0)
(1.14888 0.0724546 0)
(1.12432 0.0813547 0)
(1.09966 0.0878807 0)
(1.07507 0.0905007 0)
(1.05517 0.0882164 0)
(1.04383 0.0828668 0)
(1.04115 0.076695 0)
(1.04795 0.0705858 0)
(1.04769 0.0643362 0)
(0.983673 0.0532908 0)
(0.787464 0.0364686 0)
(0.497629 0.0188285 0)
(0.220928 0.00575208 0)
(0.0307561 0.000258447 0)
(0.167974 0.00132535 0)
(0.814512 0.0265896 0)
(1.07216 0.0453506 0)
(1.19921 0.0594042 0)
(1.21647 0.0708902 0)
(1.19059 0.0828656 0)
(1.16107 0.0939216 0)
(1.13226 0.103085 0)
(1.10316 0.108985 0)
(1.07418 0.110061 0)
(1.05068 0.105699 0)
(1.03683 0.098353 0)
(1.03264 0.0905538 0)
(1.03824 0.0831906 0)
(1.03252 0.0754774 0)
(0.953797 0.0618869 0)
(0.742706 0.0418985 0)
(0.450544 0.0212061 0)
(0.187611 0.00625044 0)
(0.022809 0.000259233 0)
(0.198736 0.00237716 0)
(0.883812 0.0401261 0)
(1.12723 0.0655063 0)
(1.23267 0.0832723 0)
(1.24032 0.0974073 0)
(1.20824 0.110549 0)
(1.17359 0.121881 0)
(1.13959 0.130297 0)
(1.10539 0.134515 0)
(1.07165 0.133075 0)
(1.04441 0.125892 0)
(1.02807 0.116137 0)
(1.02236 0.106502 0)
(1.02633 0.0978139 0)
(1.01367 0.0882713 0)
(0.917595 0.0715793 0)
(0.690785 0.0477192 0)
(0.397821 0.0235435 0)
(0.152061 0.00664668 0)
(0.0148346 0.000244895 0)
(0.24064 0.00859683 5.34138e-20)
(0.975296 0.0673377 4.6508e-20)
(1.19394 0.0995335 -1.61711e-20)
(1.2697 0.118848 0)
(1.2651 0.135607 -4.03259e-34)
(1.2256 0.148158 5.87087e-21)
(1.18502 0.158069 -1.04365e-20)
(1.14518 0.164349 0)
(1.10541 0.165796 2.11042e-34)
(1.06652 0.161041 -1.26095e-20)
(1.03523 0.15055 0)
(1.01616 0.138202 -1.48229e-20)
(1.00869 0.126753 -4.36203e-20)
(1.01063 0.116959 -2.05802e-20)
(0.988886 0.105846 -6.17675e-21)
(0.870707 0.0849009 -3.66714e-21)
(0.625754 0.055255 0)
(0.336877 0.0264684 2.56824e-21)
(0.115018 0.00762466 3.03337e-21)
(0.00730781 0.000381385 5.46032e-20)
(0.269849 0.0239908 4.0867e-20)
(1.05061 0.109913 5.21524e-22)
(1.2485 0.148245 4.40048e-21)
(1.30317 0.167696 0)
(1.28691 0.184254 -2.07876e-20)
(1.24049 0.194766 -2.34382e-20)
(1.19391 0.202447 -1.06153e-20)
(1.148 0.206279 -3.73552e-20)
(1.10226 0.204929 0)
(1.05751 0.196965 5.38663e-20)
(1.02119 0.183325 5.31651e-20)
(0.998575 0.16839 1.57592e-20)
(0.9888 0.154893 5.71639e-20)
(0.986072 0.143041 8.00392e-20)
(0.951277 0.128663 0)
(0.808353 0.101931 1.1274e-19)
(0.549884 0.0645819 1.6186e-19)
(0.273936 0.0301164 1.79858e-19)
(0.0805321 0.00847221 -2.05737e-19)
(0.000512959 0.000150136 -3.86349e-21)
(0.270767 0.0396876 0)
(1.09802 0.165223 7.62247e-21)
(1.28529 0.208234 0)
(1.32929 0.227313 -2.82653e-20)
(1.30404 0.240718 0)
(1.2517 0.247503 -4.66227e-20)
(1.19943 0.25154 2.18373e-20)
(1.14779 0.251884 -7.57682e-20)
(1.09639 0.247066 -1.56394e-21)
(1.04608 0.235595 2.80281e-20)
(1.00494 0.218843 1.17032e-19)
(0.97869 0.201534 -2.92144e-22)
(0.966025 0.186096 -4.15877e-20)
(0.958504 0.171889 -7.56481e-20)
(0.91584 0.153822 8.95757e-20)
(0.763686 0.120672 -1.58582e-19)
(0.508829 0.0756884 -2.09653e-20)
(0.249257 0.0355588 0)
(0.071015 0.0099155 -6.85942e-25)
(-0.00124925 -0.000137565 0)
(0.264513 0.0533165 1.09591e-19)
(1.12347 0.223884 -5.20477e-20)
(1.30817 0.272906 -3.81065e-20)
(1.34656 0.292082 1.36394e-20)
(1.315 0.301476 -2.2821e-20)
(1.25813 0.303881 9.81486e-20)
(1.20119 0.30364 4.58074e-20)
(1.14462 0.299985 0)
(1.08819 0.291288 -1.41822e-19)
(1.03276 0.275908 0)
(0.98706 0.255511 -6.16787e-20)
(0.957268 0.235319 -7.56944e-20)
(0.941467 0.217827 -4.53904e-20)
(0.930163 0.201985 -5.5043e-20)
(0.883265 0.181168 0)
(0.732388 0.142288 0)
(0.490175 0.0909551 -1.37126e-19)
(0.24777 0.0448338 2.71272e-20)
(0.0749002 0.0133523 -1.58886e-20)
(-0.000300972 -4.73574e-05 -1.85764e-20)
(0.257252 0.0654366 -5.09275e-20)
(1.13464 0.28246 0)
(1.32085 0.338611 8.16117e-20)
(1.35591 0.358221 3.93282e-20)
(1.31988 0.363683 5.22384e-20)
(1.25967 0.361689 0)
(1.19909 0.357172 4.53275e-20)
(1.13851 0.349449 8.44119e-20)
(1.07768 0.336706 7.30248e-20)
(1.01755 0.317108 1.32324e-19)
(0.96751 0.292778 0)
(0.934439 0.269715 -1.63559e-19)
(0.916207 0.250595 -9.82759e-20)
(0.902335 0.233793 -5.80184e-20)
(0.852664 0.210183 3.56147e-19)
(0.708294 0.166604 4.24252e-20)
(0.483297 0.10977 1.99651e-19)
(0.255973 0.057213 -9.44149e-19)
(0.0857637 0.019126 5.59867e-19)
(0.00284543 0.000653195 -6.7476e-19)
(0.250422 0.0764362 -3.31901e-20)
(1.13681 0.339111 9.53043e-21)
(1.32603 0.403413 -9.68796e-21)
(1.35888 0.423868 -4.2679e-20)
(1.31962 0.425683 -4.58055e-20)
(1.25694 0.419501 1.7741e-21)
(1.19352 0.41097 -4.90842e-20)
(1.12961 0.399308 8.77086e-20)
(1.06497 0.382538 -1.57266e-19)
(1.00056 0.358762 0)
(0.946586 0.330913 -7.43066e-20)
(0.910626 0.305742 -1.61401e-21)
(0.89034 0.285571 -1.07514e-19)
(0.873901 0.267306 0)
(0.822479 0.239868 -7.721e-20)
(0.687204 0.192293 -1.83609e-19)
(0.480411 0.130658 4.91741e-19)
(0.266552 0.0719203 -4.83943e-19)
(0.0980745 0.0266365 6.87285e-19)
(0.00666146 0.00188834 -7.14154e-19)
(0.244808 0.0866697 -4.1089e-22)
(1.13343 0.39318 -5.83536e-21)
(1.32581 0.466318 -3.10525e-20)
(1.35684 0.487883 1.83594e-20)
(1.31524 0.48648 -2.32992e-20)
(1.25077 0.476469 0)
(1.18509 0.464229 -4.64139e-20)
(1.11836 0.448814 -9.2053e-20)
(1.05037 0.428156 -8.19684e-20)
(0.982236 0.400498 0)
(0.924891 0.369734 -7.7312e-20)
(0.886422 0.342942 -9.52757e-20)
(0.863862 0.321426 1.16616e-19)
(0.84419 0.300563 -7.0752e-20)
(0.791542 0.269226 -3.36962e-19)
(0.66683 0.218532 2.00995e-19)
(0.476728 0.152842 6.01843e-20)
(0.274922 0.0877965 0)
(0.108666 0.035032 -6.6461e-19)
(0.0101844 0.00341326 -2.43692e-20)
(0.24047 0.0964448 -1.54262e-21)
(1.12676 0.444464 3.47496e-21)
(1.3217 0.526835 1.53014e-20)
(1.35106 0.549586 6.37854e-20)
(1.30768 0.545422 -8.81956e-20)
(1.24192 0.53201 9.74134e-20)
(1.17441 0.516362 9.98391e-20)
(1.10525 0.497392 -1.47107e-19)
(1.03435 0.473059 5.00228e-20)
(0.963029 0.441866 -3.256e-19)
(0.902845 0.408449 -8.71379e-20)
(0.862055 0.379695 0)
(0.836837 0.355848 1.26341e-19)
(0.81368 0.331552 1.51188e-19)
(0.760884 0.296914 1.81081e-19)
(0.645941 0.24408 -2.18214e-19)
(0.470206 0.174763 -6.45914e-20)
(0.278771 0.103422 7.59406e-20)
(0.115624 0.043205 0)
(0.0127467 0.00490699 -5.28197e-20)
(0.23727 0.105909 -6.31054e-21)
(1.11835 0.493054 -3.30774e-21)
(1.31505 0.585239 -1.46322e-20)
(1.34257 0.608642 4.01404e-20)
(1.29775 0.602104 -4.10307e-20)
(1.23103 0.585679 -4.05671e-21)
(1.16202 0.566915 -1.08739e-19)
(1.09076 0.544618 -5.31253e-20)
(1.01733 0.516866 -1.42212e-19)
(0.943274 0.482409 2.47528e-22)
(0.880579 0.446179 -2.72986e-19)
(0.837486 0.414677 2.28966e-19)
(0.809339 0.387616 -1.38477e-19)
(0.782931 0.359772 1.6625e-19)
(0.730862 0.32256 0)
(0.624495 0.267827 -1.18058e-19)
(0.460489 0.195145 -4.08858e-22)
(0.277801 0.117542 -3.30158e-19)
(0.118261 0.0502085 -4.86154e-20)
(0.0141793 0.00611922 0)
(0.235055 0.115178 0)
(1.10909 0.539149 4.07326e-23)
(1.30649 0.640704 -1.97675e-20)
(1.33215 0.664888 -3.81187e-20)
(1.28612 0.656278 -5.03182e-20)
(1.21867 0.637186 0)
(1.14839 0.615562 -5.02803e-20)
(1.07531 0.590195 -1.14737e-21)
(0.99968 0.559322 3.04388e-19)
(0.923188 0.521771 -4.47735e-20)
(0.858088 0.482361 -1.96861e-19)
(0.812629 0.447424 1.19189e-19)
(0.781627 0.416765 -2.11663e-21)
(0.752613 0.385821 1.76579e-19)
(0.701598 0.346682 1.08879e-19)
(0.601773 0.290009 -2.54652e-19)
(0.447583 0.21347 3.01837e-19)
(0.272167 0.129357 8.92736e-20)
(0.116847 0.0554149 3.68068e-19)
(0.0145394 0.00691085 -9.84815e-19)
(0.233752 0.124374 -9.40188e-21)
(1.09959 0.582923 8.12554e-21)
(1.29688 0.693277 -1.76723e-21)
(1.32041 0.718283 3.24728e-20)
(1.27333 0.707809 0)
(1.20528 0.686337 -4.65023e-20)
(1.13391 0.662104 1.67663e-19)
(1.05926 0.633953 1.16558e-19)
(0.981688 0.600271 0)
(0.902898 0.559736 -6.424e-19)
(0.83536 0.516814 5.31247e-19)
(0.787505 0.478051 0)
(0.753952 0.4438 1.61194e-19)
(0.723055 0.410191 -2.08005e-21)
(0.673109 0.369247 -3.47047e-19)
(0.578096 0.309868 1.36023e-19)
(0.431353 0.22881 0)
(0.262171 0.13823 4.80851e-19)
(0.112001 0.0584273 0)
(0.0138276 0.00713119 -4.64849e-19)
(0.233171 0.133561 1.3461e-20)
(1.09027 0.624482 1.67163e-20)
(1.28634 0.743013 -1.53625e-22)
(1.30784 0.768799 0)
(1.25981 0.756655 -4.48899e-20)
(1.19125 0.733041 0)
(1.11893 0.706438 -1.6682e-19)
(1.04291 0.675815 -5.47904e-20)
(0.963586 0.639642 5.38647e-20)
(0.882538 0.596234 -3.17483e-19)
(0.812439 0.549625 5.49192e-20)
(0.762171 0.506922 0)
(0.726419 0.469209 -3.43811e-19)
(0.694182 0.433095 2.08004e-21)
(0.64503 0.389964 0)
(0.553402 0.327132 1.89939e-21)
(0.412113 0.240826 4.38286e-19)
(0.248373 0.143786 -4.14907e-19)
(0.104239 0.0593585 1.22202e-19)
(0.0123884 0.00691539 0)
(0.232991 0.142589 0)
(1.08134 0.663947 2.41729e-20)
(1.27529 0.790077 9.58821e-21)
(1.29479 0.816472 -2.41986e-21)
(1.24589 0.802822 -1.68559e-20)
(1.17689 0.777271 -1.04085e-19)
(1.10376 0.748547 6.20123e-20)
(1.02654 0.715771 -6.39431e-20)
(0.94558 0.677416 2.39301e-19)
(0.862235 0.631289 -5.06512e-19)
(0.789416 0.580999 -3.54057e-21)
(0.736699 0.534404 -1.50995e-19)
(0.69901 0.493333 5.56873e-19)
(0.665744 0.454649 -2.43134e-21)
(0.616997 0.408803 -2.68222e-19)
(0.527458 0.34178 -4.79358e-19)
(0.390252 0.249547 0)
(0.231298 0.146048 0)
(0.0941887 0.0582093 1.31946e-19)
(0.0105335 0.00631055 -7.72954e-20)
(0.233357 0.151607 2.36301e-20)
(1.07278 0.701196 -5.94273e-20)
(1.264 0.834522 -1.05979e-20)
(1.28154 0.861395 0)
(1.23182 0.84636 -1.57805e-21)
(1.16244 0.819048 -9.75102e-20)
(1.08862 0.788454 1.51244e-19)
(1.01035 0.753844 2.53344e-19)
(0.927841 0.713613 3.11168e-19)
(0.842134 0.664974 -4.13642e-19)
(0.766425 0.611167 -4.54727e-19)
(0.711157 0.560807 4.03491e-19)
(0.671668 0.51638 0)
(0.637517 0.474856 -1.21673e-19)
(0.588838 0.425698 -2.89889e-19)
(0.500393 0.353682 -3.43789e-19)
(0.36598 0.254723 -4.07953e-19)
(0.211585 0.144979 1.20596e-19)
(0.0823032 0.0549566 -7.0951e-20)
(0.00829239 0.00530948 2.55626e-22)
(0.2338 0.160505 0)
(1.06478 0.736695 0)
(1.25264 0.876451 2.6089e-21)
(1.26826 0.903663 0)
(1.21781 0.887353 4.26228e-20)
(1.1481 0.858442 6.80058e-20)
(1.07372 0.826217 0)
(0.994515 0.790077 3.03535e-20)
(0.910521 0.74826 5.19241e-19)
(0.822395 0.697378 -9.49872e-19)
(0.743617 0.640342 0)
(0.685622 0.586377 -2.59153e-19)
(0.644296 0.538473 -2.95296e-21)
(0.609265 0.49366 -2.36846e-21)
(0.560403 0.440432 3.09341e-19)
(0.472321 0.362519 -3.47623e-22)
(0.339396 0.256111 -8.77168e-19)
(0.189771 0.1405 2.5918e-19)
(0.0696937 0.0500509 7.65803e-20)
(0.00596346 0.00406769 0)
(0.234269 0.169225 -1.06485e-19)
(1.05708 0.770474 -4.71583e-20)
(1.24127 0.915929 -4.97328e-20)
(1.25508 0.943378 1.18651e-20)
(1.204 0.925872 5.96545e-20)
(1.13403 0.895528 0)
(1.05919 0.861909 9.23059e-20)
(0.979169 0.82452 -6.72082e-20)
(0.893747 0.781396 3.85555e-21)
(0.803174 0.728588 6.97372e-20)
(0.72115 0.668695 5.87581e-19)
(0.660172 0.611323 -9.09106e-20)
(0.616797 0.559757 -3.42051e-19)
(0.58072 0.511018 -1.41313e-19)
(0.531465 0.45274 1.68066e-19)
(0.443352 0.367927 -1.61264e-22)
(0.31164 0.253603 2.36155e-19)
(0.167236 0.133104 -5.57005e-19)
(0.0570828 0.0439493 6.58389e-19)
(0.00370616 0.00270683 9.60043e-20)
(0.234601 0.177649 4.2216e-20)
(1.0497 0.802638 -2.78368e-20)
(1.23002 0.95306 6.26454e-21)
(1.24212 0.980666 1.85959e-20)
(1.19049 0.962032 -5.89539e-21)
(1.12034 0.930396 -1.19892e-19)
(1.04515 0.895606 2.74728e-20)
(0.964415 0.857213 -2.80415e-19)
(0.877634 0.81304 -5.72033e-19)
(0.784607 0.758652 -5.65552e-19)
(0.69919 0.696354 0)
(0.634899 0.635825 -3.97822e-19)
(0.58909 0.580421 4.91918e-19)
(0.551562 0.526955 0)
(0.501688 0.462325 -3.59477e-19)
(0.413563 0.369399 2.14759e-19)
(0.283476 0.246964 -2.53507e-19)
(0.145251 0.123211 -2.99493e-19)
(0.0453709 0.0372203 -5.29914e-19)
(0.00169425 0.00136307 -4.13112e-19)
(0.235249 0.185917 -4.94814e-20)
(1.04252 0.833173 2.98249e-20)
(1.21894 0.987915 6.49634e-20)
(1.22945 1.01561 3.39376e-20)
(1.17738 0.995928 1.63313e-20)
(1.10711 0.963149 -6.63578e-20)
(1.03168 0.927379 9.09802e-20)
(0.950327 0.88821 -2.88614e-19)
(0.862257 0.843227 -3.38536e-19)
(0.766822 0.787617 5.9145e-19)
(0.677887 0.723404 1.2879e-18)
(0.609927 0.660046 0)
(0.561132 0.6007 0)
(0.521428 0.541646 -1.62513e-19)
(0.470501 0.468913 0)
(0.382795 0.366055 4.61818e-19)
(0.25596 0.235438 5.45111e-19)
(0.125707 0.110975 0)
(0.0358185 0.0304575 0)
(8.0725e-05 0.000213862 4.43632e-19)
(0.235536 0.193728 5.8216e-20)
(1.03556 0.862077 4.6519e-20)
(1.2081 1.02062 4.81764e-20)
(1.21712 1.04833 -4.08886e-20)
(1.16472 1.02767 9.92126e-21)
(1.09442 0.993879 7.04436e-20)
(1.01884 0.957304 -1.25076e-19)
(0.936961 0.917547 -2.95366e-23)
(0.847691 0.871971 -5.00199e-21)
(0.74992 0.815497 -5.28307e-21)
(0.65741 0.749895 6.62725e-19)
(0.585413 0.68412 0)
(0.532965 0.620872 4.96057e-19)
(0.489984 0.555441 3.46152e-19)
(0.437003 0.472521 8.37128e-19)
(0.350248 0.356757 2.48308e-19)
(0.229998 0.216877 -2.93547e-19)
(0.112333 0.0943948 -1.72398e-19)
(0.0332874 0.0228866 0)
(0.000422045 -0.000166729 4.76355e-19)
(0.236122 0.201537 -1.35259e-19)
(1.02882 0.889447 0)
(1.19748 1.05121 6.11245e-20)
(1.20515 1.07891 -3.78792e-20)
(1.15255 1.05736 1.0385e-21)
(1.08228 1.02268 -7.89601e-20)
(1.00667 0.985447 2.44936e-19)
(0.924345 0.94526 -2.35172e-20)
(0.833977 0.899289 0)
(0.733984 0.842279 -6.52173e-19)
(0.63791 0.775832 -1.43912e-18)
(0.561551 0.708159 5.8522e-20)
(0.504753 0.641217 6.81989e-19)
(0.457052 0.568862 0)
(0.400068 0.473795 5.63958e-19)
(0.31365 0.340876 0)
(0.203756 0.186873 0)
(0.108571 0.0614395 -1.86521e-19)
(0.0575986 0.0034489 0)
(0.0275414 0.0113131 1.27606e-19)
(0.236332 0.20874 -1.54525e-19)
(1.02226 0.915641 0)
(1.18711 1.07992 1.05376e-19)
(1.19351 1.10759 0)
(1.14086 1.08526 -5.32658e-21)
(1.07066 1.04986 0)
(0.995099 1.01212 1.24788e-20)
(0.912386 0.971688 3.96175e-20)
(0.821005 0.925546 4.22972e-20)
(0.718874 0.86836 -7.15179e-19)
(0.619244 0.801649 4.32686e-20)
(0.538166 0.732751 4.69563e-19)
(0.476187 0.662423 6.64407e-19)
(0.421894 0.582737 8.94419e-20)
(0.357841 0.474363 4.4121e-19)
(0.268409 0.319831 0)
(0.165835 0.143277 6.19047e-19)
(0.08623 0.00564352 -3.6266e-19)
(0.0434138 0.0445111 4.20391e-19)
(-0.0691707 0.432838 -4.9587e-19)
(0.236524 0.215736 1.29928e-19)
(1.01565 0.940435 1.95337e-19)
(1.1769 1.10705 0)
(1.18208 1.13481 5.17312e-21)
(1.12944 1.11196 2.45744e-20)
(1.0593 1.07608 1.01378e-19)
(0.983831 1.03813 8.59673e-20)
(0.900692 0.997768 0)
(0.808266 0.95183 2.81794e-19)
(0.703943 0.895028 -3.74892e-20)
(0.600518 0.828779 0)
(0.51409 0.759598 0)
(0.445672 0.68619 5.93466e-19)
(0.382628 0.598299 -2.75832e-19)
(0.307291 0.476685 -4.45686e-19)
(0.209631 0.298405 0)
(0.0962865 0.13676 3.11568e-19)
(0.00581828 0.438501 -3.60956e-19)
(0.0346687 1.88288 -1.98328e-19)
(0.0642928 2.80764 -2.53127e-19)
(0.236549 0.221893 -9.98779e-20)
(1.00919 0.964016 -2.55056e-19)
(1.16686 1.13258 6.51962e-20)
(1.17084 1.16042 4.66203e-20)
(1.11834 1.13721 0)
(1.04826 1.10108 5.88777e-20)
(0.973055 1.06316 1.18758e-19)
(0.889441 1.02307 -1.92729e-20)
(0.796017 0.977628 4.19112e-20)
(0.689564 0.921678 6.81386e-19)
(0.582332 0.856575 7.256e-19)
(0.490293 0.788309 5.2359e-19)
(0.414182 0.712393 5.95069e-19)
(0.341028 0.614359 -6.44837e-19)
(0.254341 0.483771 -6.70878e-19)
(0.138498 0.329758 0)
(0.048278 0.829549 0)
(0.104505 2.547 1.72425e-19)
(0.10543 3.1982 0)
(0.108435 3.38683 4.13823e-19)
(0.239127 0.227518 0)
(1.00348 0.986568 0)
(1.15677 1.15638 0)
(1.15956 1.18423 1.54375e-20)
(1.10724 1.16081 2.58306e-20)
(1.03731 1.12472 2.90945e-20)
(0.962664 1.08711 7.67332e-20)
(0.878591 1.04749 -1.88624e-20)
(0.784228 1.00281 3.5276e-19)
(0.675772 0.948177 -9.61368e-21)
(0.564838 0.884934 1.43223e-18)
(0.467142 0.818738 -6.01129e-20)
(0.382048 0.741961 7.20073e-20)
(0.299624 0.628403 9.29125e-20)
(0.191922 0.500512 -3.18518e-21)
(0.106806 0.962658 1.81632e-21)
(0.14457 2.71012 -8.99346e-19)
(0.15399 3.29052 -3.39627e-19)
(0.14204 3.42613 1.76935e-19)
(0.128386 3.44862 -1.97237e-19)
(0.156932 0.18398 6.08984e-20)
(0.992427 1.01083 0)
(1.14632 1.17869 -1.38685e-19)
(1.14881 1.20667 -1.34064e-19)
(1.097 1.18355 8.31021e-20)
(1.0274 1.14769 -2.48875e-20)
(0.952624 1.11003 -7.95384e-20)
(0.868268 1.07113 2.1311e-19)
(0.773095 1.0275 -2.8938e-19)
(0.662882 0.974664 0)
(0.548444 0.914057 7.03874e-19)
(0.445243 0.850768 -4.26378e-19)
(0.34975 0.77791 0)
(0.255341 0.644381 8.62781e-20)
(0.157022 0.791082 2.06528e-19)
(0.159308 2.47758 -2.44202e-19)
(0.219889 3.32321 2.75061e-19)
(0.19856 3.44071 1.4892e-19)
(0.16475 3.46228 1.68611e-19)
(0.142292 3.47255 2.69217e-19)
(0.282247 0.266101 -1.0974e-19)
(0.977074 1.02064 0)
(1.12787 1.20376 1.54962e-19)
(1.13411 1.23881 1.57584e-19)
(1.08023 1.21655 -1.06007e-19)
(1.0102 1.18116 1.09973e-23)
(0.93467 1.14525 7.88222e-20)
(0.849879 1.10767 1.6609e-20)
(0.753322 1.066 2.7765e-19)
(0.640206 1.01652 5.90059e-19)
(0.520504 0.961534 3.98383e-20)
(0.40805 0.904577 3.78457e-19)
(0.292555 0.833188 6.71264e-20)
(0.217255 0.961574 -8.47283e-20)
(0.233403 2.32709 -1.94121e-19)
(0.295928 3.32695 1.87842e-19)
(0.279066 3.47175 -2.08536e-19)
(0.243148 3.49329 -1.20961e-19)
(0.205397 3.52076 -1.0312e-19)
(0.153513 3.51433 -1.21223e-20)
(0.270143 0.262948 0)
(0.974634 1.0433 4.79143e-20)
(1.11967 1.22714 -3.29625e-20)
(1.12391 1.26225 -1.98977e-20)
(1.06985 1.23972 -7.95573e-20)
(0.999976 1.20458 5.91919e-21)
(0.9242 1.16895 -4.2319e-20)
(0.839266 1.13221 1.49826e-20)
(0.742204 1.09187 -2.90001e-19)
(0.62787 1.04493 -1.41229e-20)
(0.505697 0.994326 -1.27296e-18)
(0.389256 0.942721 5.37852e-20)
(0.281353 0.901369 -6.34298e-20)
(0.257927 1.48514 -7.85355e-20)
(0.333496 3.09381 1.77866e-20)
(0.354936 3.47002 7.59551e-22)
(0.314081 3.52692 3.04606e-19)
(0.276336 3.55261 1.49943e-19)
(0.227267 3.57601 -3.89133e-20)
(0.167794 3.57177 -5.74947e-20)
(0.253746 0.261319 1.24284e-19)
(0.970591 1.06859 3.30343e-19)
(1.11099 1.25264 -9.50939e-20)
(1.11312 1.2871 -7.52032e-20)
(1.05892 1.26424 0)
(0.989321 1.22919 4.17173e-20)
(0.913599 1.19392 -4.59488e-20)
(0.828788 1.15798 1.32463e-20)
(0.731534 1.11905 -3.21654e-20)
(0.616498 1.07485 -5.36097e-19)
(0.492648 1.02895 -5.88253e-19)
(0.374 0.983211 -4.42875e-19)
(0.281541 1.03131 -4.79284e-19)
(0.326227 2.18406 4.9452e-19)
(0.419824 3.37734 4.16138e-19)
(0.399004 3.52893 0)
(0.352958 3.57331 0)
(0.314641 3.61418 -3.03475e-20)
(0.262881 3.67478 0)
(0.179829 3.65049 -3.48838e-20)
(0.242872 0.263144 -1.89466e-19)
(0.964564 1.09495 -2.84605e-19)
(1.10087 1.27932 0)
(1.10096 1.31273 6.14784e-21)
(1.04673 1.28937 -9.77114e-20)
(0.977545 1.25431 8.56623e-20)
(0.902216 1.21945 -2.04456e-20)
(0.817721 1.18419 8.17595e-21)
(0.720509 1.14657 -2.07631e-19)
(0.605173 1.1051 2.7079e-20)
(0.480477 1.064 0)
(0.36089 1.02719 0)