/*--------------------------------*- C++ -*----------------------------------*\
| =========                 |                                                 |
| \\      /  F ield         | OpenFOAM: The Open Source CFD Toolbox           |
|  \\    /   O peration     | Version:  4.0                                   |
|   \\  /    A nd           | Web:      www.OpenFOAM.org                      |
|    \\/     M anipulation  |                                                 |
\*---------------------------------------------------------------------------*/
FoamFile
{
    version     2.0;
    format      ascii;
    class       volScalarField;
    location    "8";
    object      p;
}
// * * * * * * * * * * * * * * * * * * * * * * * * * * * * * * * * * * * * * //

dimensions      [0 2 -2 0 0 0 0];

internalField   nonuniform List<scalar> 
8800
(
0.40681
0.359141
0.32069
0.291962
0.271433
0.256978
0.246777
0.239644
0.23505
0.233016
0.233976
0.237669
0.243736
0.252462
0.264704
0.281975
0.306381
0.340049
0.382307
0.440989
0.237443
0.245164
0.25317
0.25676
0.25561
0.250963
0.244943
0.239323
0.234965
0.232269
0.231825
0.233906
0.237779
0.243058
0.249179
0.254882
0.258027
0.256961
0.251019
0.242021
0.215543
0.221947
0.226575
0.230136
0.232737
0.233893
0.233282
0.231554
0.22973
0.228778
0.229434
0.231316
0.233512
0.235007
0.234905
0.233029
0.230009
0.225942
0.220963
0.217127
0.20917
0.212055
0.215849
0.21921
0.221473
0.222969
0.223942
0.224356
0.224331
0.224335
0.224676
0.225197
0.225379
0.22492
0.223857
0.222137
0.219404
0.215668
0.212401
0.21098
0.206235
0.207491
0.210264
0.21323
0.215877
0.217999
0.219456
0.2203
0.220743
0.221024
0.221378
0.221578
0.22133
0.220458
0.218834
0.216562
0.213843
0.210865
0.208838
0.208375
0.206033
0.206505
0.207657
0.209016
0.210406
0.211834
0.21318
0.214357
0.21525
0.215874
0.216166
0.216049
0.215493
0.21457
0.213416
0.212123
0.210847
0.209584
0.208801
0.208629
0.204647
0.204874
0.205551
0.206492
0.207538
0.208571
0.209613
0.210608
0.211474
0.21217
0.212558
0.212546
0.212188
0.211556
0.21082
0.209986
0.209118
0.208336
0.207917
0.207845
0.20228
0.202375
0.202699
0.203225
0.203838
0.204607
0.205478
0.206392
0.20729
0.208092
0.208599
0.208714
0.208523
0.208136
0.207663
0.2072
0.20679
0.20643
0.206264
0.206233
0.199239
0.199298
0.19951
0.199873
0.200334
0.200903
0.201584
0.202374
0.203244
0.204128
0.204806
0.205144
0.205216
0.205124
0.204941
0.204717
0.204485
0.204291
0.204206
0.204188
0.19582
0.195857
0.195998
0.196252
0.19661
0.197094
0.197724
0.198509
0.199439
0.200464
0.201353
0.201915
0.202198
0.202298
0.202292
0.202233
0.202153
0.202082
0.202052
0.20204
0.192034
0.192059
0.19217
0.192371
0.192678
0.193121
0.193733
0.194547
0.195576
0.196796
0.197949
0.198772
0.199293
0.1996
0.199763
0.19984
0.199867
0.199872
0.199873
0.199865
0.187894
0.18792
0.18802
0.188211
0.188515
0.188972
0.189631
0.190541
0.191742
0.193233
0.194713
0.19584
0.1966
0.1971
0.197413
0.197599
0.197705
0.19776
0.197783
0.197777
0.183383
0.183404
0.183515
0.183723
0.184058
0.184573
0.185331
0.186405
0.187855
0.189703
0.191586
0.19306
0.194114
0.194819
0.195279
0.195569
0.195743
0.195841
0.195881
0.195876
0.178462
0.178486
0.178614
0.178856
0.179252
0.179866
0.18078
0.18209
0.183882
0.186196
0.188593
0.190507
0.191871
0.192809
0.19343
0.193827
0.194071
0.194209
0.194267
0.194261
0.173042
0.173071
0.173227
0.173524
0.174011
0.174769
0.175903
0.177535
0.179779
0.182694
0.185732
0.188171
0.189926
0.191137
0.191943
0.192463
0.192784
0.192967
0.193043
0.193037
0.167004
0.16704
0.167237
0.167611
0.168224
0.169179
0.170608
0.172667
0.175501
0.179185
0.183031
0.186122
0.188351
0.189892
0.190921
0.191585
0.191996
0.192231
0.192329
0.192321
0.160185
0.16023
0.160482
0.16096
0.161743
0.162961
0.164782
0.167399
0.170996
0.175662
0.180522
0.184423
0.187236
0.189181
0.19048
0.19132
0.19184
0.192137
0.19226
0.19225
0.152361
0.152421
0.152747
0.153364
0.154375
0.155943
0.158279
0.161626
0.166207
0.172122
0.178255
0.183163
0.186696
0.189138
0.190769
0.191823
0.192476
0.192849
0.193004
0.192991
0.143235
0.143316
0.143743
0.144548
0.145865
0.1479
0.15092
0.155222
0.161072
0.168572
0.176297
0.182451
0.186872
0.189925
0.191965
0.193283
0.194099
0.194565
0.194758
0.194741
0.132403
0.132513
0.133076
0.13414
0.135877
0.138548
0.142481
0.148038
0.155525
0.165029
0.174733
0.182422
0.187934
0.191739
0.194283
0.195926
0.196943
0.197523
0.197762
0.197741
0.119295
0.119448
0.120203
0.121637
0.123967
0.127517
0.132686
0.139906
0.14951
0.161536
0.173676
0.183238
0.190081
0.194809
0.197975
0.200022
0.201288
0.202006
0.202301
0.202276
0.103089
0.103302
0.10434
0.106329
0.109529
0.114324
0.121199
0.130647
0.142986
0.158159
0.173263
0.185082
0.193536
0.199396
0.203336
0.205892
0.207472
0.208361
0.208724
0.208693
0.0825614
0.0828649
0.0843489
0.0872137
0.091728
0.0983377
0.107622
0.120083
0.135946
0.154996
0.173643
0.188137
0.198523
0.205769
0.210684
0.213904
0.215904
0.217026
0.217477
0.217432
0.0558112
0.0562755
0.0585438
0.0628889
0.069483
0.0788508
0.0916081
0.108138
0.128473
0.152199
0.174978
0.19257
0.205232
0.214168
0.220331
0.224448
0.22706
0.228543
0.229131
0.22906
0.0195284
0.0203655
0.0243071
0.0314425
0.0415952
0.0553355
0.0731015
0.0950055
0.120845
0.150021
0.177456
0.198516
0.213782
0.224747
0.232508
0.237872
0.241422
0.243514
0.244361
0.244259
-0.0328992
-0.0304588
-0.0221559
-0.00926675
0.00725842
0.0278149
0.0525013
0.081195
0.113522
0.148781
0.181238
0.206015
0.224136
0.237439
0.247194
0.254282
0.259306
0.262534
0.263968
0.263841
-0.112298
-0.100396
-0.0813644
-0.0581362
-0.0320001
-0.00242722
0.0306923
0.0672096
0.106748
0.148664
0.186617
0.215565
0.237038
0.253262
0.265717
0.275424
0.283023
0.288686
0.292007
0.292629
-0.196815
-0.17117
-0.140696
-0.107178
-0.0713009
-0.032689
0.00882492
0.0532327
0.100312
0.149578
0.194027
0.228188
0.253975
0.273986
0.289929
0.302954
0.313787
0.323336
0.33041
0.331329
-0.260248
-0.232404
-0.193957
-0.1522
-0.107891
-0.0610755
-0.0117109
0.0401709
0.0943979
0.150564
0.200947
0.239557
0.268683
0.291285
0.30923
0.323745
0.335617
0.345404
0.351678
0.352642
-0.310789
-0.280899
-0.237981
-0.190648
-0.140204
-0.0868947
-0.0308805
0.0276358
0.0883541
0.150769
0.206304
0.248504
0.280001
0.304091
0.322889
0.33783
0.349885
0.359624
0.36593
0.366968
-0.351002
-0.32067
-0.2746
-0.223173
-0.16813
-0.109762
-0.0483575
0.0157755
0.0822249
0.150329
0.210585
0.255923
0.289324
0.314514
0.333879
0.349027
0.361059
0.370505
0.376743
0.377842
-0.384598
-0.354123
-0.305991
-0.251474
-0.192822
-0.130356
-0.064399
0.0046625
0.0762974
0.149647
0.214259
0.262454
0.297558
0.323681
0.343485
0.358762
0.370748
0.380051
0.386145
0.387254
-0.413683
-0.383229
-0.333629
-0.276773
-0.215203
-0.149315
-0.0794872
-0.00612792
0.0701804
0.14845
0.217315
0.268366
0.305187
0.332266
0.352547
0.368003
0.379987
0.389201
0.39514
0.396253
-0.439784
-0.409285
-0.358568
-0.299886
-0.236008
-0.167323
-0.0941778
-0.0169829
0.0636791
0.146751
0.219927
0.27398
0.312651
0.340796
0.361635
0.377331
0.389362
0.398515
0.404323
0.40543
-0.463792
-0.433195
-0.381623
-0.32146
-0.255674
-0.184638
-0.10864
-0.0280258
0.0567014
0.144481
0.222129
0.279439
0.320198
0.349592
0.371115
0.387138
0.399276
0.408382
0.414055
0.415188
-0.486469
-0.455655
-0.403341
-0.341957
-0.274597
-0.20157
-0.123115
-0.0394605
0.0490633
0.141516
0.223878
0.284796
0.327968
0.358857
0.381232
0.397685
0.409985
0.419117
0.424619
0.425823
-0.508044
-0.476983
-0.424038
-0.361672
-0.293013
-0.218332
-0.137775
-0.0514175
0.0406459
0.137745
0.225088
0.290027
0.336014
0.368708
0.39215
0.409171
0.421712
0.430885
0.436273
0.437492
-0.528822
-0.497421
-0.443905
-0.380763
-0.311013
-0.234984
-0.152678
-0.0639692
0.0313551
0.133028
0.22562
0.295037
0.344297
0.379179
0.403966
0.421731
0.434621
0.443886
0.44918
0.450361
-0.548817
-0.517109
-0.463118
-0.399295
-0.328663
-0.251556
-0.167842
-0.0771534
0.0211267
0.12726
0.225325
0.299667
0.352704
0.390219
0.416687
0.435429
0.448814
0.458231
0.463479
0.464533
-0.568034
-0.536086
-0.481694
-0.417251
-0.345954
-0.26803
-0.183241
-0.0909574
0.00992427
0.120351
0.224033
0.30372
0.361036
0.401683
0.430243
0.450253
0.464341
0.474045
0.479241
0.480092
-0.586556
-0.554316
-0.499535
-0.434599
-0.362839
-0.284347
-0.198816
-0.105328
-0.00224949
0.112231
0.221612
0.306965
0.369026
0.413335
0.444505
0.466164
0.48117
0.491277
0.496484
0.497085
-0.604402
-0.571758
-0.516676
-0.451324
-0.37924
-0.300435
-0.21448
-0.1202
-0.0153468
0.102851
0.21794
0.309157
0.376338
0.424869
0.459212
0.483029
0.499229
0.509855
0.515082
0.515425
-0.621304
-0.588359
-0.532966
-0.467375
-0.395096
-0.316197
-0.230143
-0.135473
-0.0293057
0.0922418
0.212911
0.310063
0.382591
0.435791
0.473969
0.500579
0.518429
0.529707
0.534823
0.534845
-0.637303
-0.6042
-0.548421
-0.482665
-0.410342
-0.331552
-0.24569
-0.151037
-0.0440368
0.0804326
0.206485
0.309537
0.38735
0.445405
0.48814
0.518488
0.538677
0.55058
0.55527
0.554889
-0.652473
-0.619044
-0.563034
-0.497155
-0.424909
-0.346415
-0.261018
-0.166775
-0.059426
0.0674956
0.19869
0.307454
0.390275
0.452897
0.500671
0.536169
0.560257
0.573094
0.576075
0.574859
-0.666685
-0.632991
-0.576734
-0.510799
-0.438749
-0.360707
-0.27603
-0.182559
-0.0753479
0.0535416
0.189587
0.303802
0.390987
0.457453
0.51023
0.552146
0.582922
0.599441
0.598811
0.594421
-0.680059
-0.646043
-0.589547
-0.523629
-0.451894
-0.37447
-0.290775
-0.198463
-0.0919119
0.0384368
0.179096
0.298508
0.389451
0.458648
0.515004
0.563499
0.604149
0.632798
0.635188
0.610457
-0.692556
-0.658203
-0.601562
-0.535799
-0.464567
-0.387973
-0.305622
-0.214994
-0.109799
0.021317
0.166484
0.290981
0.385139
0.455328
0.511702
0.563886
0.610787
0.642497
0.636379
0.604871
-0.704122
-0.669484
-0.612635
-0.547117
-0.476518
-0.400912
-0.320308
-0.231799
-0.128664
0.00245657
0.151957
0.281288
0.377847
0.447641
0.496645
0.54372
0.580457
0.591825
0.528046
0.47983
-0.714095
-0.67992
-0.622455
-0.557025
-0.487279
-0.412967
-0.334608
-0.248712
-0.148396
-0.0182716
0.135382
0.27019
0.367559
0.436247
0.472435
0.494006
0.512852
0.472214
0.391894
0.338416
-0.767156
-0.686448
-0.631619
-0.566788
-0.498108
-0.425214
-0.348655
-0.266004
-0.169508
-0.0414052
0.116456
0.256987
0.353243
0.421542
0.433589
0.422015
0.387279
0.315047
0.219756
0.167136
-0.710692
-0.697445
-0.642307
-0.580129
-0.512544
-0.441617
-0.369043
-0.291597
-0.201871
-0.0774736
0.087685
0.235976
0.325422
0.369619
0.364313
0.217873
0.079025
-0.0146428
-0.109722
-0.0550987
-0.735782
-0.707728
-0.652758
-0.590849
-0.523893
-0.454516
-0.384008
-0.310845
-0.227905
-0.109701
0.0591288
0.21687
0.302292
0.312355
0.232563
0.0266986
-0.160636
-0.292752
-0.430594
-0.335169
-0.752263
-0.719763
-0.664588
-0.602194
-0.535754
-0.467796
-0.399848
-0.331894
-0.256554
-0.144935
0.0257435
0.193292
0.27452
0.249184
0.0892709
-0.192454
-0.431357
-0.614446
-0.818803
-0.711115
-0.767019
-0.732065
-0.675956
-0.612892
-0.546889
-0.480334
-0.415437
-0.353029
-0.286373
-0.18388
-0.00800497
0.172955
0.247909
0.175002
-0.0814484
-0.423921
-0.741883
-1.01613
-1.32011
-1.27187
-0.779473
-0.743802
-0.686889
-0.623336
-0.557761
-0.492697
-0.431123
-0.37506
-0.318935
-0.230193
-0.0542083
0.146597
0.220154
0.0888081
-0.250843
-0.648233
-1.04765
-1.41991
-1.84498
-2.20484
-0.790626
-0.754868
-0.697466
-0.633632
-0.568423
-0.504829
-0.446702
-0.397648
-0.35412
-0.283534
-0.109549
0.112959
0.187361
-0.00415647
-0.410476
-0.836587
-1.27953
-1.6561
-1.83652
-2.14199
-0.801005
-0.76515
-0.707582
-0.64362
-0.578809
-0.516692
-0.462221
-0.420962
-0.392779
-0.348183
-0.186883
0.0629471
0.139793
-0.133823
-0.562664
-0.983644
-1.39086
-1.64676
-1.70212
-1.75664
-0.81085
-0.774802
-0.7171
-0.653047
-0.588625
-0.527975
-0.477376
-0.444987
-0.436004
-0.429561
-0.303237
-0.0315259
0.0442578
-0.303365
-0.708399
-1.08782
-1.49023
-1.6936
-1.6652
-1.67896
-0.820162
-0.783785
-0.725812
-0.661607
-0.597441
-0.538154
-0.491445
-0.468842
-0.483518
-0.535077
-0.488303
-0.209754
-0.131756
-0.509381
-0.861806
-1.15868
-1.55642
-1.80507
-1.68097
-1.63952
-0.828878
-0.791899
-0.733478
-0.66895
-0.604812
-0.54655
-0.503452
-0.491218
-0.533947
-0.674484
-0.784041
-0.520597
-0.42613
-0.766331
-1.0294
-1.1538
-1.29988
-1.47168
-1.45832
-1.43612
-0.836764
-0.798957
-0.739846
-0.674718
-0.61023
-0.552413
-0.512166
-0.510228
-0.583155
-0.850697
-1.22779
-0.995156
-0.826501
-1.08096
-1.24023
-1.11265
-0.823365
-1.0725
-1.32333
-1.38858
-0.843444
-0.804673
-0.74462
-0.678555
-0.613173
-0.554975
-0.516087
-0.522038
-0.630114
-1.04135
-1.79242
-1.59606
-1.29256
-1.4555
-1.71713
-1.73482
-1.65111
-1.70248
-1.75715
-1.80054
-0.848895
-0.808897
-0.747533
-0.680139
-0.613213
-0.553456
-0.513783
-0.522688
-0.658189
-1.19158
-2.30356
-2.12245
-1.70641
-1.88579
-2.53969
-3.2462
-3.37864
-3.15554
-2.86906
-2.74414
-0.852944
-0.811473
-0.748465
-0.679269
-0.61005
-0.547395
-0.504087
-0.509447
-0.647067
-1.23802
-2.51394
-2.30878
-1.77579
-2.0282
-2.97061
-4.26499
-4.476
-3.89618
-3.37663
-3.18612
-0.855472
-0.812397
-0.747436
-0.675957
-0.603682
-0.536706
-0.486777
-0.480579
-0.594906
-1.1162
-2.23756
-1.89916
-1.29548
-1.34874
-1.94464
-2.72612
-2.82834
-2.38168
-2.00124
-1.85173
-0.856563
-0.811861
-0.74463
-0.670455
-0.594455
-0.521875
-0.462465
-0.437373
-0.502698
-0.843404
-1.50321
-1.03765
-0.380147
-0.0985434
-0.0695761
-0.154735
-0.161
-0.0224109
0.0560137
0.0802742
-0.856645
-0.810236
-0.740424
-0.663213
-0.582934
-0.5039
-0.433227
-0.38445
-0.387183
-0.510293
-0.647593
-0.193302
0.332857
0.648778
0.850319
0.988113
1.08601
1.13394
1.1486
1.14964
-0.855925
-0.807688
-0.735181
-0.654627
-0.569945
-0.484153
-0.401627
-0.328766
-0.273698
-0.231089
-0.0796506
0.313895
0.693402
0.980209
1.16948
1.3026
1.39059
1.43831
1.45759
1.4597
-0.853513
-0.803829
-0.728716
-0.644876
-0.555897
-0.463751
-0.370398
-0.276884
-0.178998
-0.0467972
0.1966
0.523881
0.807049
1.03526
1.19389
1.30397
1.37946
1.42754
1.45278
1.45762
-0.84672
-0.797046
-0.720168
-0.63341
-0.540727
-0.443269
-0.341226
-0.232583
-0.108182
0.0628879
0.31182
0.583266
0.809352
0.987057
1.11628
1.20899
1.27551
1.32178
1.34919
1.35496
-0.834769
-0.785163
-0.707452
-0.618544
-0.523294
-0.422153
-0.314405
-0.196621
-0.0589888
0.122989
0.353012
0.578691
0.764126
0.908215
1.01616
1.09636
1.15614
1.19981
1.22383
1.23027
-0.811141
-0.763313
-0.687354
-0.597681
-0.501374
-0.398989
-0.28896
-0.167592
-0.0263395
0.151888
0.357446
0.546871
0.701011
0.821516
0.914031
0.98475
1.03895
1.07942
1.1023
1.109
-0.770011
-0.726335
-0.65508
-0.566764
-0.4725
-0.371654
-0.262925
-0.143192
-0.0054807
0.160814
0.341244
0.501
0.629788
0.731445
0.811202
0.873621
0.922544
0.959054
0.980656
0.987931
-0.708753
-0.672134
-0.604056
-0.521811
-0.432739
-0.337505
-0.234674
-0.121353
0.00712668
0.157705
0.313404
0.446113
0.552389
0.636717
0.703821
0.757511
0.799957
0.832517
0.854158
0.861179
-0.615077
-0.589982
-0.53054
-0.458149
-0.379208
-0.294063
-0.201353
-0.0991083
0.0155685
0.146388
0.276987
0.385115
0.469698
0.535965
0.588168
0.629918
0.663599
0.689364
0.705525
0.710128
-0.478167
-0.465675
-0.42545
-0.370894
-0.309184
-0.240269
-0.162961
-0.076068
0.0223961
0.134501
0.245183
0.335642
0.405147
0.458268
0.498763
0.529453
0.552526
0.570506
0.58288
0.585971
-0.330496
-0.326018
-0.3035
-0.270058
-0.22883
-0.178975
-0.119929
-0.0503592
0.0308462
0.124645
0.217149
0.292033
0.348717
0.390989
0.421863
0.443964
0.459641
0.47003
0.475618
0.476741
-0.202523
-0.200343
-0.190509
-0.173223
-0.149093
-0.116923
-0.0752351
-0.0227864
0.0413926
0.117611
0.193575
0.25475
0.300235
0.333076
0.3563
0.372201
0.382344
0.388367
0.391308
0.391689
-0.104589
-0.104741
-0.101978
-0.0947616
-0.0819961
-0.0623679
-0.034302
0.00378952
0.0530129
0.113503
0.174658
0.223762
0.259845
0.285466
0.30279
0.313854
0.320633
0.324387
0.325884
0.325924
-0.0390485
-0.0399061
-0.0409312
-0.0391633
-0.0330971
-0.0210987
-0.0020171
0.0255345
0.0627683
0.110032
0.158603
0.197602
0.225842
0.245322
0.258255
0.266485
0.271211
0.273465
0.274206
0.274167
0.000705179
-5.53252e-05
-0.00139829
-0.00135585
0.00150045
0.00856781
0.0215365
0.04158
0.069733
0.106339
0.144399
0.17496
0.197023
0.21225
0.222172
0.228139
0.231396
0.232874
0.233304
0.233257
0.0244358
0.0239944
0.0231683
0.0232077
0.025134
0.0298436
0.0390932
0.0534934
0.0745947
0.1028
0.132551
0.156508
0.173659
0.185229
0.192609
0.197045
0.199439
0.200476
0.200767
0.200731
0.0396462
0.0394098
0.038958
0.0390728
0.0404958
0.0440376
0.0507088
0.0615106
0.0774302
0.0990237
0.122025
0.140555
0.153776
0.162703
0.168397
0.171768
0.173541
0.17429
0.174497
0.174468
0.0494478
0.0493243
0.049092
0.0492821
0.0504076
0.0530367
0.0579774
0.0660773
0.0781791
0.0947545
0.112534
0.126901
0.137143
0.144009
0.148342
0.150891
0.152228
0.15279
0.152945
0.15292
0.0553924
0.0553301
0.0552281
0.0554535
0.0563789
0.0584272
0.0622178
0.0683545
0.077563
0.0902719
0.103973
0.115051
0.122927
0.128193
0.131509
0.133465
0.134474
0.134889
0.135001
0.13498
0.0585196
0.0584876
0.0584575
0.0586854
0.0594408
0.0610431
0.0639248
0.0686439
0.0756984
0.0854516
0.0959969
0.104534
0.110602
0.114654
0.117201
0.118683
0.119449
0.119761
0.119842
0.119823
0.0595704
0.0595538
0.0595609
0.059774
0.0603903
0.0616456
0.0638636
0.0675171
0.0729233
0.0804156
0.08853
0.0951
0.0997649
0.102873
0.104832
0.105959
0.106538
0.10677
0.106827
0.10681
0.0590619
0.0590526
0.0590729
0.0592575
0.0597522
0.0607367
0.0624594
0.0652698
0.0694315
0.075191
0.0814303
0.086482
0.0900654
0.0924516
0.0939538
0.0948142
0.0952518
0.0954226
0.0954621
0.0954476
0.0573572
0.0573514
0.0573739
0.0575265
0.0579191
0.0586889
0.0600241
0.0621823
0.0653921
0.0698219
0.0746196
0.0785014
0.0812514
0.0830666
0.0842427
0.0848886
0.0852169
0.0853424
0.0853692
0.085357
0.0547268
0.0547228
0.0547429
0.0548648
0.0551718
0.055768
0.056788
0.058495
0.0609402
0.064345
0.0680313
0.0710125
0.073126
0.0745362
0.0754047
0.0759009
0.076149
0.0762411
0.0762591
0.0762489
0.0513795
0.0513764
0.0513926
0.0514877
0.0517262
0.0521878
0.0529814
0.0542507
0.0561647
0.0587854
0.0616175
0.0639041
0.0655233
0.0666087
0.0672662
0.0676411
0.0678271
0.0678944
0.0679063
0.0678978
0.0474768
0.0474743
0.0474864
0.0475596
0.047743
0.0480983
0.0487083
0.0496785
0.0511471
0.0531647
0.0553369
0.0570894
0.0583357
0.0591564
0.0596558
0.0599393
0.0600785
0.0601271
0.0601345
0.0601275
0.0431451
0.0431429
0.0431514
0.0432067
0.0433467
0.0436184
0.0440846
0.0448217
0.0459587
0.0474992
0.0491614
0.0505023
0.0514591
0.0520747
0.0524536
0.0526672
0.0527708
0.0528058
0.0528102
0.0528044
0.0384828
0.0384806
0.0384863
0.0385277
0.0386338
0.0388402
0.0391943
0.0397556
0.0405957
0.0417993
0.0430659
0.0440967
0.044814
0.0452789
0.0455639
0.0457234
0.0457996
0.045824
0.0458262
0.0458216
0.0335681
0.033566
0.0335694
0.0335995
0.0336782
0.0338324
0.0340986
0.0345229
0.0351561
0.0360706
0.0370277
0.0378146
0.0383474
0.0386966
0.0389103
0.0390293
0.0390851
0.0391018
0.0391023
0.0390986
0.028462
0.02846
0.0284612
0.028482
0.0285392
0.0286529
0.0288501
0.0291657
0.0296329
0.0303248
0.0310428
0.0316355
0.0320255
0.032283
0.0324399
0.0325265
0.0325663
0.0325774
0.0325769
0.0325738
0.023211
0.0232091
0.0232087
0.0232223
0.0232622
0.0233434
0.0234863
0.0237143
0.0240765
0.0245669
0.0250868
0.0255096
0.025809
0.0259955
0.0261079
0.0261685
0.026195
0.0262009
0.0261993
0.0261968
0.0178519
0.0178499
0.017848
0.0178558
0.0178821
0.0179382
0.0180376
0.0182008
0.018452
0.0187953
0.0191616
0.0194576
0.0196639
0.0197949
0.0198721
0.0199133
0.0199302
0.0199327
0.0199306
0.0199287
0.012414
0.0124122
0.0124094
0.0124128
0.0124285
0.0124632
0.0125281
0.012634
0.0127947
0.0130165
0.0132537
0.0134441
0.0135763
0.0136613
0.013711
0.0137362
0.0137455
0.0137454
0.0137429
0.0137414
0.00692046
0.00691918
0.00691651
0.00691685
0.00692417
0.00694227
0.00697614
0.00703197
0.00711627
0.00723307
0.00735955
0.00746161
0.00753236
0.00757711
0.00760228
0.00761392
0.00761656
0.00761397
0.00761138
0.0076104
0.00138911
0.00138887
0.00138668
0.00138283
0.00138242
0.00138459
0.00138976
0.00139884
0.0014131
0.00143363
0.00145927
0.00148342
0.00150094
0.00151246
0.00151933
0.00152303
0.001524
0.00152221
0.00151806
0.00151733
-0.928569
-0.642276
-0.334369
-0.0883644
0.110114
0.271725
0.410796
0.529964
0.588284
0.562774
-0.426013
-0.240115
-0.0509355
0.11087
0.248633
0.365057
0.460841
0.530146
0.5658
0.57401
-0.0955585
0.0236284
0.147726
0.258345
0.354095
0.434619
0.498679
0.544925
0.575663
0.590492
0.126118
0.206654
0.2928
0.370358
0.437948
0.494963
0.541028
0.57624
0.602783
0.618988
0.288553
0.346035
0.406233
0.462864
0.512838
0.555734
0.591414
0.620073
0.64265
0.65916
0.414617
0.456577
0.503095
0.547295
0.586875
0.62167
0.651439
0.675713
0.69494
0.711521
0.520689
0.554583
0.594368
0.631566
0.665849
0.696444
0.722827
0.744264
0.760663
0.777368
0.617361
0.649817
0.687418
0.722592
0.754902
0.783652
0.808103
0.8277
0.841666
0.858522
0.717625
0.75286
0.791857
0.82732
0.858913
0.886442
0.909431
0.927363
0.939681
0.957041
0.835992
0.874823
0.914836
0.950318
0.980648
1.00615
1.02714
1.04348
1.05524
1.07333
0.98302
1.02212
1.05887
1.09024
1.11653
1.1391
1.15854
1.17436
1.18701
1.20507
1.15894
1.19112
1.21765
1.24038
1.26071
1.27975
1.29772
1.31443
1.32993
1.34807
1.34835
1.36576
1.38103
1.39737
1.4134
1.42815
1.44156
1.45564
1.47334
1.49353
1.53036
1.53999
1.55169
1.5627
1.57216
1.58182
1.59263
1.60407
1.61551
1.63092
1.73771
1.7414
1.7266
1.71205
1.70592
1.71163
1.73023
1.76052
1.79258
1.81921
2.04438
1.90959
1.83298
1.79045
1.77294
1.77707
1.80436
1.86083
1.96366
2.18809
0.297252
0.295254
0.290849
0.28247
0.270574
0.258867
0.2491
0.241621
0.236327
0.233219
0.232717
0.235001
0.239516
0.24611
0.254872
0.265828
0.278013
0.288685
0.294642
0.297514
0.221057
0.226997
0.233694
0.238742
0.241745
0.241954
0.239724
0.236339
0.233106
0.230887
0.230533
0.232372
0.235498
0.239156
0.242301
0.243515
0.241949
0.237834
0.232107
0.225245
0.212231
0.214553
0.218486
0.222195
0.224827
0.226707
0.22782
0.227952
0.227333
0.226693
0.226718
0.227534
0.228625
0.229197
0.228739
0.227344
0.225191
0.222107
0.218132
0.214857
0.206972
0.207819
0.210597
0.214323
0.217435
0.219639
0.221085
0.221957
0.222375
0.222514
0.222749
0.223158
0.223315
0.222967
0.222031
0.220369
0.217829
0.214391
0.210906
0.209184
0.206227
0.206495
0.207785
0.209815
0.211834
0.213859
0.215651
0.217004
0.217907
0.218498
0.218897
0.219058
0.218825
0.218069
0.216727
0.214929
0.213024
0.211075
0.209317
0.208635
0.205466
0.205575
0.20617
0.207211
0.208351
0.209445
0.210526
0.211641
0.212618
0.213386
0.213893
0.214038
0.213773
0.213164
0.212362
0.211576
0.210521
0.209496
0.208669
0.208382
0.203584
0.203627
0.203923
0.204533
0.205245
0.20619
0.207275
0.208222
0.209154
0.209992
0.210612
0.210845
0.210703
0.210306
0.20968
0.208841
0.208273
0.207684
0.207271
0.207149
0.20081
0.20083
0.200984
0.201336
0.201804
0.202371
0.203047
0.203839
0.204701
0.205568
0.206305
0.206717
0.20679
0.206641
0.206388
0.206095
0.205787
0.205485
0.205291
0.20524
0.197579
0.197591
0.197694
0.197936
0.198292
0.198759
0.199351
0.200074
0.200917
0.201852
0.202744
0.203363
0.203661
0.203738
0.203679
0.203552
0.203399
0.20325
0.203157
0.203131
0.193968
0.193973
0.194049
0.19422
0.19449
0.194875
0.195405
0.196105
0.196989
0.19804
0.199141
0.200009
0.200542
0.200834
0.200973
0.201017
0.201011
0.200982
0.200962
0.200954
0.190009
0.190012
0.190075
0.190221
0.190465
0.190832
0.191364
0.192101
0.19308
0.194312
0.195683
0.196846
0.197643
0.198151
0.198462
0.198642
0.198738
0.198785
0.198806
0.19881
0.185686
0.185685
0.185751
0.1859
0.186151
0.186542
0.187126
0.187961
0.189107
0.190597
0.192316
0.193839
0.194913
0.19566
0.196143
0.196448
0.196633
0.196738
0.196792
0.196804
0.180979
0.180977
0.181048
0.181215
0.181501
0.181954
0.182638
0.183634
0.185022
0.186861
0.189027
0.190981
0.19242
0.193409
0.194075
0.194506
0.194775
0.194934
0.195015
0.195035
0.175821
0.175818
0.175903
0.176103
0.176448
0.176996
0.177831
0.179055
0.180776
0.183077
0.185812
0.188308
0.190151
0.191443
0.192318
0.192889
0.19325
0.193465
0.193576
0.193604
0.17011
0.170105
0.170211
0.170461
0.17089
0.171574
0.172618
0.174152
0.176313
0.179212
0.18267
0.185838
0.188184
0.189837
0.190959
0.191695
0.192161
0.19244
0.192584
0.19262
0.163706
0.163699
0.163835
0.164152
0.164697
0.165565
0.166889
0.168832
0.17157
0.175239
0.179614
0.18362
0.186586
0.188679
0.190101
0.191035
0.191627
0.191983
0.192166
0.192211
0.156418
0.15641
0.156586
0.156994
0.157695
0.158808
0.160502
0.162983
0.16647
0.171128
0.17666
0.181713
0.185449
0.188082
0.189871
0.191047
0.191792
0.192241
0.192471
0.192529
0.147989
0.147978
0.148209
0.148742
0.149653
0.151093
0.153278
0.156467
0.160925
0.166848
0.173842
0.180199
0.184885
0.188184
0.190424
0.191897
0.192831
0.193394
0.193683
0.193754
0.138064
0.138051
0.138359
0.139065
0.140262
0.142143
0.144983
0.149106
0.154831
0.162373
0.171202
0.179176
0.185034
0.189153
0.191949
0.193788
0.194955
0.19566
0.196021
0.196109
0.126155
0.126139
0.126561
0.127512
0.129104
0.131586
0.135316
0.140687
0.148068
0.157678
0.168803
0.178768
0.186062
0.191186
0.194666
0.196958
0.198418
0.199302
0.199757
0.199864
0.111581
0.111568
0.112163
0.113469
0.115615
0.118938
0.123897
0.130957
0.140515
0.152762
0.166728
0.179119
0.188157
0.194509
0.198833
0.20169
0.203519
0.204638
0.205217
0.205351
0.0933573
0.0933587
0.0942338
0.0960717
0.0990299
0.103581
0.110294
0.119669
0.132093
0.147669
0.165103
0.1804
0.19153
0.199374
0.204743
0.208309
0.210611
0.212037
0.212787
0.21296
0.069939
0.0699831
0.0713449
0.0740376
0.0782891
0.0847507
0.0940426
0.106628
0.122805
0.142523
0.164099
0.182801
0.196391
0.206031
0.212697
0.217175
0.220095
0.221926
0.222909
0.223145
0.0387505
0.03892
0.0411939
0.0454328
0.0519509
0.0615355
0.0746887
0.0917276
0.112763
0.137523
0.163914
0.186491
0.202901
0.214665
0.222947
0.228635
0.232421
0.234836
0.236153
0.23648
-0.0048135
-0.00426923
0.000111117
0.00758334
0.0183685
0.033132
0.0520228
0.0751096
0.102238
0.132927
0.164723
0.191557
0.211091
0.225296
0.235563
0.242879
0.24797
0.251388
0.253327
0.253768
-0.0690792
-0.0667534
-0.0566253
-0.042075
-0.0232537
-0.00025311
0.0267066
0.0574965
0.0918132
0.129115
0.166694
0.197988
0.220817
0.237684
0.250242
0.259618
0.26658
0.271663
0.274808
0.27525
-0.146465
-0.142146
-0.123382
-0.097173
-0.0677029
-0.0351479
0.000574068
0.0394907
0.0814504
0.126035
0.170363
0.207269
0.234574
0.255294
0.27134
0.283971
0.294096
0.30213
0.306127
0.307898
-0.225467
-0.213993
-0.185841
-0.149642
-0.110602
-0.0689659
-0.024719
0.0222179
0.0717531
0.123585
0.174683
0.217196
0.248822
0.273091
0.292216
0.30759
0.320087
0.330237
0.336831
0.339931
-0.283118
-0.270615
-0.237587
-0.19496
-0.148759
-0.0997829
-0.0481871
0.00592955
0.0624301
0.120996
0.178265
0.225568
0.260523
0.287132
0.307839
0.3242
0.33724
0.347604
0.354448
0.357621
-0.328957
-0.316165
-0.27979
-0.232701
-0.181474
-0.126989
-0.0695183
-0.00932274
0.053294
0.117878
0.180652
0.232103
0.269716
0.297955
0.31961
0.336482
0.349742
0.360151
0.367116
0.370087
-0.366034
-0.353447
-0.315122
-0.264762
-0.2097
-0.150919
-0.088727
-0.0234385
0.0445422
0.11463
0.182531
0.237761
0.277681
0.307259
0.329624
0.346803
0.360133
0.370472
0.377437
0.380356
-0.397611
-0.385246
-0.345607
-0.292878
-0.234817
-0.172528
-0.106352
-0.0366471
0.036107
0.111202
0.183876
0.24269
0.284814
0.315661
0.338688
0.356166
0.369589
0.379907
0.38693
0.389795
-0.42539
-0.413181
-0.372624
-0.318082
-0.25769
-0.192551
-0.12303
-0.0495263
0.0275055
0.107302
0.184675
0.24714
0.291552
0.323746
0.347506
0.365331
0.378882
0.389203
0.396276
0.399092
-0.450598
-0.438464
-0.397202
-0.341231
-0.278976
-0.211525
-0.139188
-0.0623245
0.0186216
0.102914
0.18499
0.251273
0.298177
0.331886
0.356499
0.37476
0.388498
0.398844
0.40599
0.408753
-0.47406
-0.461944
-0.420068
-0.362932
-0.299128
-0.229738
-0.15501
-0.0752227
0.00928352
0.0978786
0.184744
0.255133
0.304835
0.340308
0.365953
0.384767
0.398763
0.409199
0.416311
0.419028
-0.496264
-0.484139
-0.441706
-0.383601
-0.318536
-0.247525
-0.17077
-0.0884279
-0.000671762
0.0920747
0.183847
0.258694
0.311578
0.349138
0.376048
0.395565
0.409905
0.42048
0.427624
0.430294
-0.517563
-0.505325
-0.462346
-0.403465
-0.337367
-0.265013
-0.186561
-0.102031
-0.0113462
0.0853796
0.182173
0.261862
0.318376
0.35842
0.386889
0.4073
0.422107
0.432872
0.440055
0.442696
-0.538085
-0.525711
-0.482215
-0.42266
-0.355698
-0.28227
-0.202434
-0.116067
-0.0228062
0.0776925
0.179591
0.264494
0.325126
0.368108
0.3985
0.420059
0.435484
0.446543
0.45377
0.456381
-0.557795
-0.545236
-0.501369
-0.441266
-0.373558
-0.299296
-0.218392
-0.130547
-0.0350701
0.0689243
0.175965
0.266426
0.331654
0.378079
0.410828
0.433864
0.450108
0.461557
0.468876
0.471492
-0.576812
-0.564038
-0.519751
-0.459203
-0.390939
-0.316057
-0.234381
-0.145431
-0.0481283
0.0590496
0.171164
0.267461
0.337728
0.388124
0.423734
0.448637
0.465979
0.47797
0.485445
0.488007
-0.595054
-0.582149
-0.537468
-0.476456
-0.407796
-0.33249
-0.250328
-0.160642
-0.0619417
0.0480524
0.165098
0.2674
0.343077
0.397926
0.436936
0.464183
0.482998
0.495791
0.503539
0.505988
-0.612521
-0.599403
-0.554433
-0.492986
-0.424062
-0.348527
-0.26615
-0.17609
-0.0764322
0.0359494
0.157718
0.266086
0.347418
0.407056
0.450046
0.48029
0.500991
0.514793
0.522846
0.525151
-0.628989
-0.615772
-0.570481
-0.508743
-0.439654
-0.364072
-0.281752
-0.191673
-0.091505
0.0228037
0.149012
0.263416
0.350407
0.415052
0.462525
0.496593
0.519912
0.534976
0.543187
0.545192
-0.644637
-0.631298
-0.585633
-0.523699
-0.454536
-0.379068
-0.297027
-0.207281
-0.10705
0.00870862
0.138998
0.259296
0.351778
0.421334
0.47366
0.51243
0.539591
0.55648
0.564359
0.565538
-0.659359
-0.645879
-0.599901
-0.537788
-0.468641
-0.393435
-0.311887
-0.222786
-0.122933
-0.0062555
0.127765
0.253711
0.351312
0.425416
0.482512
0.52668
0.559519
0.580202
0.587201
0.585353
-0.673224
-0.659565
-0.613227
-0.55098
-0.481941
-0.407115
-0.326248
-0.238091
-0.139028
-0.0219354
0.11542
0.246725
0.349047
0.426752
0.487484
0.537119
0.577611
0.606695
0.6169
0.606249
-0.686174
-0.672385
-0.625702
-0.563391
-0.494602
-0.420346
-0.340411
-0.253609
-0.155903
-0.0390417
0.101238
0.237859
0.344557
0.424963