/*--------------------------------*- C++ -*----------------------------------*\
| =========                 |                                                 |
| \\      /  F ield         | OpenFOAM: The Open Source CFD Toolbox           |
|  \\    /   O peration     | Version:  4.0                                   |
|   \\  /    A nd           | Web:      www.OpenFOAM.org                      |
|    \\/     M anipulation  |                                                 |
\*---------------------------------------------------------------------------*/
FoamFile
{
    version     2.0;
    format      ascii;
    class       surfaceScalarField;
    location    "8";
    object      phi;
}
// * * * * * * * * * * * * * * * * * * * * * * * * * * * * * * * * * * * * * //

dimensions      [0 3 -1 0 0 0 0];

internalField   nonuniform List<scalar> 
17370
(
-0.091546
0.0960207
0.284536
-0.0776116
0.0593958
0.364991
-0.0429038
0.0313514
0.427721
-0.0219589
0.0158786
0.505332
-0.0112982
0.00844201
0.602258
-0.00624711
0.00477013
0.720534
-0.0035395
0.00267903
0.863767
-0.00194357
0.00140867
1.03599
-0.000940964
0.000594653
1.24285
-0.000274327
-3.61367e-05
1.4915
0.000339391
-0.00066909
1.49152
0.0010184
-0.00148771
1.24316
0.00202167
-0.00275456
1.03637
0.00361292
-0.00484018
0.864134
0.0063112
-0.00849586
0.721242
0.0113418
-0.0159121
0.603785
0.0219852
-0.031372
0.508826
0.0429207
-0.0594093
0.432657
0.0776221
-0.0960266
0.36518
0.0915532
0.197458
-0.127328
0.0883963
0.0389316
-0.364645
0.354343
-0.0711336
0.0814365
-0.44678
0.454407
-0.0790539
0.0714271
-0.521263
0.529343
-0.0636569
0.0555767
-0.612965
0.620931
-0.0481227
0.0401562
-0.726827
0.733582
-0.0332827
0.0265272
-0.867319
0.872077
-0.021273
0.0165155
-1.03838
1.04159
-0.0129259
0.00971608
-1.2446
1.24688
-0.00726462
0.00498751
-1.49278
1.49458
-0.00316586
0.00136155
-1.49263
1.49423
0.000225423
-0.00183127
-1.24404
1.24583
0.00361692
-0.00540849
-1.03749
1.0399
0.00764712
-0.0100606
-0.866012
0.869566
0.0132319
-0.0167866
-0.724318
0.729553
0.0215153
-0.0267495
-0.608886
0.615749
0.0334931
-0.0403557
-0.515274
0.52271
0.0483056
-0.0557416
-0.440082
0.447831
0.0637995
-0.0715488
-0.374965
0.377326
0.079153
-0.0815138
-0.257239
0.225005
0.0711849
-0.0389512
-0.069528
0.0604382
0.00908979
-0.0492727
0.055364
-0.375131
0.36904
-0.0540499
0.0499918
-0.453734
0.457792
-0.0447426
0.0404846
-0.527638
0.531896
-0.0362495
0.0325661
-0.620843
0.624527
-0.028653
0.0249654
-0.734576
0.738264
-0.0209523
0.0173988
-0.873673
0.877227
-0.0137847
0.0107584
-1.04299
1.04602
-0.00772727
0.00510595
-1.24817
1.25079
-0.00228507
-0.000404479
-1.49628
1.49897
0.00307412
-0.00585641
-1.49681
1.49959
0.00844227
-0.0114319
-1.24964
1.25263
0.0144207
-0.0179896
-1.04532
1.04889
0.021503
-0.0254638
-0.876984
0.880945
0.029102
-0.0329554
-0.739073
0.742926
0.0365914
-0.0407799
-0.626147
0.630336
0.045004
-0.0502263
-0.534941
0.540164
0.0542575
-0.0555381
-0.458208
0.459488
0.049403
-0.0303251
-0.337805
0.318727
0.00911161
-0.069468
0.0603564
-0.0552013
0.0517907
0.00341062
-0.0282121
0.0372421
-0.360713
0.351683
-0.0402684
0.0394835
-0.460051
0.460836
-0.0364988
0.0334454
-0.535789
0.538842
-0.0301289
0.027251
-0.627854
0.630732
-0.0241828
0.0215741
-0.741131
0.74374
-0.0188018
0.0163128
-0.880026
0.882515
-0.0135299
0.0109468
-1.04877
1.05135
-0.00805606
0.00537794
-1.25348
1.25616
-0.00233804
-0.000611949
-1.50197
1.50492
0.0035414
-0.0065371
-1.5026
1.50559
0.00916521
-0.0119949
-1.25554
1.25837
0.0145117
-0.0172087
-1.05188
1.05457
0.0196172
-0.0223089
-0.88394
0.886632
0.0248582
-0.027861
-0.746194
0.749197
0.0306555
-0.0339028
-0.634314
0.637561
0.036902
-0.0398262
-0.544557
0.547481
0.0405518
-0.0374526
-0.458426
0.455327
0.028352
-0.0135524
-0.301098
0.286298
0.00343306
-0.0550953
0.0516622
-0.0497813
0.0488892
0.000892092
-0.0114598
0.0183745
-0.343316
0.336401
-0.0232961
0.0252994
-0.460148
0.458145
-0.0258885
0.0256035
-0.540548
0.540833
-0.0250179
0.024068
-0.632649
0.633599
-0.0226995
0.0211238
-0.745958
0.747534
-0.0190651
0.0169175
-0.884896
0.887043
-0.0143375
0.0117854
-1.0539
1.05645
-0.00880163
0.0058927
-1.25889
1.2618
-0.0025155
-0.000771863
-1.5079
1.51119
0.00404112
-0.00736769
-1.50867
1.512
0.0102051
-0.013085
-1.26119
1.26407
0.0155375
-0.0180134
-1.05719
1.05966
0.0200713
-0.0220263
-0.889078
0.891033
0.023532
-0.024886
-0.751379
0.752733
0.0257314
-0.0261981
-0.639493
0.63996
0.0264054
-0.0257344
-0.548591
0.54792
0.0236588
-0.0186508
-0.450905
0.445897
0.0116501
-0.00432059
-0.275294
0.267964
0.000925802
-0.049627
0.0487012
-0.0485596
0.0483895
0.000170127
-0.00453144
0.00908316
-0.330844
0.326292
-0.0142227
0.0179761
-0.455152
0.451399
-0.0209017
0.0223377
-0.540164
0.538728
-0.0229278
0.0229747
-0.633802
0.633755
-0.0224098
0.0213796
-0.74872
0.74975
-0.0197566
0.0178798
-0.88897
0.890846
-0.0154053
0.0128066
-1.05901
1.0616
-0.00959256
0.00637052
-1.26489
1.26812
-0.00256593
-0.00114654
-1.51472
1.51843
0.0048424
-0.00856935
-1.51556
1.51928
0.0116668
-0.0147239
-1.26704
1.2701
0.0171852
-0.0195027
-1.062
1.06432
0.0212378
-0.0227192
-0.892616
0.894098
0.0236283
-0.0240257
-0.753416
0.753814
0.0237922
-0.0231091
-0.639615
0.638932
0.0215698
-0.0185358
-0.545924
0.54289
0.0146817
-0.00942333
-0.44068
0.435422
0.00475969
-0.001388
-0.263148
0.259776
0.000207384
-0.048335
0.0481276
-0.0483004
0.048288
1.24833e-05
-0.00196343
0.00482483
-0.322601
0.31974
-0.00917341
0.0133038
-0.447214
0.443084
-0.0171958
0.0198387
-0.536522
0.533879
-0.0215845
0.0221472
-0.633618
0.633056
-0.0219433
0.0212018
-0.750647
0.751388
-0.0197587
0.0179546
-0.892735
0.894539
-0.0155012
0.0128827
-1.06426
1.06688
-0.00963775
0.00635131
-1.27141
1.2747
-0.0023608
-0.00162432
-1.52232
1.52631
0.00556514
-0.00943888
-1.52313
1.527
0.0125956
-0.0156572
-1.2732
1.27626
0.0180607
-0.0202741
-1.06664
1.06886
0.0218397
-0.0230084
-0.895465
0.896634
0.0235306
-0.0235884
-0.753976
0.754034
0.0228909
-0.0209557
-0.637725
0.63579
0.018149
-0.0140824
-0.539124
0.535057
0.00979551
-0.00527704
-0.430364
0.425846
0.0022644
-0.000564945
-0.257361
0.255661
6.07023e-05
-0.0479966
0.0479359
-0.0483029
0.0483123
-9.46666e-06
-0.000862273
0.00238807
-0.317616
0.31609
-0.00509777
0.00804318
-0.439443
0.436498
-0.011147
0.0135151
-0.531243
0.528875
-0.0153617
0.01641
-0.632083
0.631034
-0.0168409
0.0166439
-0.751889
0.752086
-0.0158558
0.0146466
-0.896107
0.897316
-0.012811
0.0107107
-1.06929
1.0714
-0.00797698
0.00510755
-1.27784
1.28071
-0.00152252
-0.00210137
-1.5302
1.53383
0.00566812
-0.00910742
-1.53074
1.53418
0.011835
-0.0143706
-1.27913
1.28167
0.0162182
-0.0177464
-1.07081
1.07234
0.0186835
-0.0191922
-0.897566
0.898074
0.0191376
-0.0184104
-0.753606
0.752878
0.0170928
-0.0149719
-0.633592
0.631471
0.0123612
-0.0090104
-0.531195
0.527844
0.00585412
-0.00292681
-0.422099
0.419172
0.00121581
-0.000327442
-0.254453
0.253564
4.9371e-05
-0.0478966
0.0478472
-0.0483225
0.048348
-2.54467e-05
-0.000298008
0.00100007
-0.315033
0.314331
-0.00236458
0.00398205
-0.434259
0.432642
-0.00585594
0.00742391
-0.526887
0.525319
-0.00882548
0.00976714
-0.629996
0.629054
-0.0103829
0.0105528
-0.752054
0.751884
-0.0102923
0.00965029
-0.89822
0.898862
-0.0085015
0.00706037
-1.07316
1.0746
-0.00505982
0.00287695
-1.28324
1.28543
-0.000129019
-0.00265599
-1.53706
1.53985
0.00537375
-0.00793636
-1.53721
1.53977
0.00987915
-0.0115705
-1.28379
1.28548
0.0126898
-0.0134479
-1.07347
1.07422
0.0137265
-0.0135942
-0.898227
0.898094
0.0130754
-0.0120914
-0.751969
0.750985
0.0108318
-0.00910599
-0.629507
0.627781
0.00726196
-0.00510584
-0.525098
0.522942
0.00324801
-0.00163524
-0.416974
0.415361
0.000720757
-0.000225552
-0.252903
0.252408
4.52011e-05
-0.0477951
0.0477499
-0.0483849
0.0484295
-4.46428e-05
3.20073e-05
0.000232116
-0.31389
0.313626
-0.000817287
0.0015651
-0.431522
0.430774
-0.00249428
0.00332718
-0.524148
0.523315
-0.00414008
0.00473774
-0.628273
0.627675
-0.00518839
0.00538359
-0.751668
0.751473
-0.00532578
0.00500159
-0.899309
0.899633
-0.0043235
0.00340103
-1.07575
1.07668
-0.00205222
0.00053831
-1.28726
1.28878
0.00137649
-0.00329826
-1.54218
1.5441
0.00514431
-0.00682203
-1.54187
1.54355
0.00800281
-0.00890369
-1.28675
1.28765
0.00940539
-0.00960856
-1.07467
1.07487
0.00948983
-0.00906517
-0.897775
0.89735
0.00844159
-0.00754262
-0.750017
0.749118
0.00656209
-0.00536311
-0.626327
0.625128
0.00420323
-0.00294149
-0.52129
0.520028
0.00190792
-0.001024
-0.414179
0.413295
0.00050105
-0.000182657
-0.252023
0.251705
4.4067e-05
-0.0477083
0.0476642
-0.0484805
0.0485417
-6.12597e-05
0.000223127
-0.000199652
-0.313498
0.313474
9.81023e-06
0.000273795
-0.430296
0.430012
-0.000650512
0.00100285
-0.522753
0.522401
-0.00135767
0.0016212
-0.627254
0.626991
-0.0018138
0.00187715
-0.751335
0.751272
-0.00179268
0.00155127
-0.899894
0.900136
-0.00108071
0.000449077
-1.07743
1.07806
0.000476411
-0.00151092
-1.29003
1.29106
0.00280029
-0.00406888
-1.54567
1.54693
0.0052427
-0.00622844
-1.54485
1.54584
0.00683794
-0.00722158
-1.28827
1.28865
0.00734286
-0.00722658
-1.07489
1.07478
0.00692395
-0.00642159
-0.896872
0.89637
0.00583899
-0.00510414
-0.748304
0.747569
0.00437614
-0.00354988
-0.62414
0.623314
0.00279813
-0.00201392
-0.519048
0.518264
0.00137982
-0.000820444
-0.412609
0.412049
0.000455074
-0.000192956
-0.251424
0.251161
5.46437e-05
-0.0476152
0.0475606
-0.0486094
0.0486847
-7.52286e-05
0.000376624
-0.00047822
-0.313514
0.313615
0.000514547
-0.000491221
-0.429877
0.429853
0.000433311
-0.000378466
-0.522213
0.522159
0.00033608
-0.000329309
-0.626864
0.626858
0.000373176
-0.000475777
-0.75129
0.751393
0.000675772
-0.000954871
-0.900386
0.900665
0.00138308
-0.00189553
-1.07862
1.07913
0.00259165
-0.00333483
-1.29193
1.29267
0.00422479
-0.00505585
-1.54796
1.54879
0.00576515
-0.00630102
-1.54658
1.54711
0.00655759
-0.00657523
-1.28882
1.28884
0.00643477
-0.00612765
-1.07456
1.07425
0.00573452
-0.00520773
-0.895856
0.895329
0.00466897
-0.00404335
-0.746898
0.746273
0.00346047
-0.00282882
-0.622604
0.621972
0.00227328
-0.00170343
-0.517611
0.517041
0.00123698
-0.0008024
-0.411569
0.411135
0.000485881
-0.000225133
-0.250905
0.250644
6.89835e-05
-0.0474993
0.0474303
-0.0487685
0.0488636
-9.50441e-05
0.000522234
-0.000735118
-0.313778
0.313991
0.000923595
-0.00106647
-0.42992
0.430063
0.0012136
-0.0013569
-0.522211
0.522355
0.00153463
-0.00172342
-0.626955
0.627143
0.00196698
-0.00223089
-0.751577
0.751841
0.00257464
-0.00294585
-0.900986
0.901357
0.00342192
-0.0039203
-1.07963
1.08012
0.00452976
-0.00512489
-1.29333
1.29392
0.00577954
-0.00632548
-1.54946
1.55001
0.00671748
-0.00690836
-1.54746
1.54765
0.00689413
-0.00672755
-1.28877
1.2886
0.00641224
-0.00596904
-1.07387
1.07343
0.00549363
-0.00492688
-0.894784
0.894218
0.00438827
-0.00379387
-0.745672
0.745077
0.0032606
-0.00269813
-0.621387
0.620825
0.00221179
-0.00171473
-0.51652
0.516023
0.00129941
-0.000891457
-0.410722
0.410314
0.000567685
-0.000275556
-0.250371
0.250079
8.77067e-05
-0.0473525
0.0472648
-0.0489714
0.0490931
-0.000121659
0.000694813
-0.00100781
-0.314253
0.314566
0.00132592
-0.00160357
-0.430275
0.430553
0.00191267
-0.0022138
-0.522579
0.52288
0.00257182
-0.00292799
-0.627417
0.627774
0.00335297
-0.00377541
-0.752184
0.752607
0.00427752
-0.00477185
-0.901786
0.902281
0.0053495
-0.00590155
-1.08064
1.08119
0.00651679
-0.00706146
-1.29448
1.29503
0.00759473
-0.00796464
-1.55046
1.55083
0.0081414
-0.00809764
-1.54772
1.54767
0.00787869
-0.0074918
-1.28832
1.28793
0.00704245
-0.00646933
-1.07292
1.07235
0.00590392
-0.00526367
-0.89362
0.89298
0.00467746
-0.0040484
-0.744473
0.743844
0.00349538
-0.00292034
-0.620265
0.61969
0.0024271
-0.00192257
-0.51553
0.515026
0.00149371
-0.00105633
-0.409897
0.40946
0.000690015
-0.00034243
-0.249762
0.249414
0.000110872
-0.0471662
0.0470553
-0.0492304
0.0493853
-0.000154975
0.000901183
-0.00132436
-0.314932
0.315355
0.0017749
-0.00218401
-0.430896
0.431305
0.00264833
-0.00310088
-0.523257
0.523709
0.00363369
-0.00415584
-0.628212
0.628734
0.00476646
-0.00535807
-0.753111
0.753703
0.00603953
-0.00668578
-0.902847
0.903493
0.00740831
-0.00806422
-1.08179
1.08245
0.00875146
-0.00931393
-1.29557
1.29614
0.00980425
-0.0100701
-1.55114
1.5514
0.0100926
-0.00985973
-1.54753
1.5473
0.00946347
-0.00888538
-1.28745
1.28687
0.00827338
-0.00754346
-1.0717
1.07097
0.00685187
-0.00609018
-0.892285
0.891523
0.00540717
-0.0046853
-0.743175
0.742454
0.00405764
-0.00340997
-0.619085
0.618437
0.00285661
-0.00228988
-0.514496
0.513929
0.00180278
-0.00129476
-0.408992
0.408484
0.000856337
-0.000429385
-0.24903
0.248603
0.000140071
-0.0469307
0.0467906
-0.049561
0.0497597
-0.000198686
0.00116365
-0.00171902
-0.315841
0.316396
0.00232086
-0.00287541
-0.431783
0.432338
0.0035091
-0.00412694
-0.524241
0.524859
0.00485169
-0.00555795
-0.629344
0.630051
0.00637747
-0.00716345
-0.754388
0.755174
0.00805695
-0.00889013
-0.904228
0.905061
0.00980189
-0.0106073
-1.08317
1.08398
0.0114209
-0.0120529
-1.29673
1.29736
0.0125549
-0.0127606
-1.55164
1.55184
0.0126595
-0.0122488
-1.54698
1.54657
0.0116728
-0.0108881
-1.2862
1.28541
0.0100873
-0.00916063
-1.07015
1.06922
0.00829984
-0.00736553
-0.890682
0.889748
0.00653679
-0.0056677
-0.741665
0.740796
0.00491635
-0.00414404
-0.617734
0.616961
0.00348551
-0.00281055
-0.513314
0.512639
0.00222694
-0.00161104
-0.407927
0.407311
0.00107148
-0.000539551
-0.248127
0.247595
0.000176479
-0.0466333
0.0464568
-0.0499861
0.0502419
-0.000255797
0.00150187
-0.00222303
-0.317029
0.31775
0.00301024
-0.00373989
-0.432974
0.433703
0.00457543
-0.00538971
-0.525569
0.526383
0.00634239
-0.0072679
-0.630861
0.631787
0.00833752
-0.00935815
-0.756072
0.757092
0.0105107
-0.0115762
-0.906004
0.90707
0.0127289
-0.0137317
-1.08488
1.08588
0.014723
-0.0154675
-1.29804
1.29879
0.0160202
-0.0161891
-1.55203
1.5522
0.0159706
-0.0153696
-1.54606
1.54546
0.0145873
-0.0135595
-1.28451
1.28348
0.0125298
-0.0113543
-1.06818
1.067
0.0102734
-0.0091091
-0.888706
0.887542
0.0080822
-0.00700965
-0.739833
0.73876
0.00608498
-0.00513623
-0.616108
0.615159
0.004328
-0.00349914
-0.511893
0.511065
0.0027803
-0.00201742
-0.406627
0.405864
0.00134458
-0.000677915
-0.247
0.246334
0.000221811
-0.0462589
0.0460371
-0.0505355
0.0508667
-0.000331223
0.00194392
-0.00287864
-0.318569
0.319504
0.00390219
-0.00485289
-0.434531
0.435481
0.00594053
-0.0069987
-0.52731
0.528368
0.00823282
-0.00942877
-0.632842
0.634038
0.0108072
-0.0121186
-0.758253
0.759564
0.0135938
-0.0149503
-0.908273
0.90963
0.0164069
-0.0176613
-1.087
1.08825
0.0188829
-0.0197788
-1.2996
1.3005
0.0204101
-0.0205497
-1.55235
1.55249
0.0202007
-0.0193762
-1.54476
1.54393
0.018344
-0.0170152
-1.28231
1.28098
0.0156991
-0.0142083
-1.06568
1.06419
0.0128455
-0.0113839
-0.886237
0.884775
0.0100986
-0.00875935
-0.737562
0.736223
0.00760646
-0.00642462
-0.614102
0.61292
0.00541807
-0.00438528
-0.510142
0.509109
0.0034881
-0.00253351
-0.405012
0.404058
0.00168931
-0.000851519
-0.245587
0.244749
0.000278373
-0.0457888
0.0455105
-0.0512498
0.0516828
-0.000433081
0.00253136
-0.00374714
-0.320562
0.321778
0.00508058
-0.00631779
-0.436548
0.437786
0.00772659
-0.00909138
-0.52957
0.530934
0.0106763
-0.0122094
-0.635404
0.636937
0.0139737
-0.0156502
-0.761055
0.762732
0.0175311
-0.0192539
-0.911159
0.912882
0.0210923
-0.0226617
-1.08965
1.09122
0.0241704
-0.025254
-1.30148
1.30256
0.0259819
-0.0260839
-1.55261
1.55271
0.0255716
-0.0244683
-1.54298
1.54187
0.0231235
-0.0214163
-1.27948
1.27777
0.0197394
-0.0178506
-1.06251
1.06062
0.0161311
-0.0142924
-0.883133
0.881294
0.012679
-0.0109997
-0.734721
0.733042
0.00955495
-0.00807351
-0.611599
0.610118
0.0068107
-0.00551342
-0.507958
0.506661
0.00438524
-0.00318414
-0.402991
0.40179
0.0021221
-0.0010687
-0.24381
0.242757
0.000349005
-0.0451998
0.0448508
-0.0521844
0.0527611
-0.000576653
0.00333436
-0.0049282
-0.323144
0.324738
0.00667358
-0.00828068
-0.439161
0.440768
0.0100923
-0.0118343
-0.532498
0.53424
0.0138506
-0.0158029
-0.638709
0.640661
0.0180539
-0.0201954
-0.764643
0.766784
0.0225945
-0.024783
-0.914814
0.917003
0.0271019
-0.0290617
-1.09297
1.09493
0.0309192
-0.0322233
-1.30375
1.30505
0.0330535
-0.0330914
-1.55279
1.55282
0.0323614
-0.0308999
-1.5406
1.53914
0.0291591
-0.0269748
-1.27583
1.27365
0.0248446
-0.0224563
-1.05849
1.0561
0.0202897
-0.0179789
-0.879221
0.87691
0.0159552
-0.0138509
-0.731151
0.729047
0.0120401
-0.0101807
-0.60846
0.6066
0.00859174
-0.00695453
-0.505222
0.503584
0.00552799
-0.0040095
-0.400454
0.398936
0.00266992
-0.00134382
-0.241579
0.240253
0.000439147
-0.0444641
0.0440249
-0.0534186
0.0542048
-0.000786188
0.00446437
-0.00657201
-0.326507
0.328614
0.00885513
-0.0109186
-0.442561
0.444624
0.0132108
-0.0154012
-0.536305
0.538496
0.0179445
-0.0204278
-0.642971
0.645454
0.0233111
-0.0260624
-0.76922
0.771971
0.0291369
-0.0319226
-0.919423
0.922209
0.0348438
-0.0372792
-1.09706
1.0995
0.0395461
-0.0410933
-1.30645
1.30799
0.0420114
-0.0419343
-1.5528
1.55272
0.0409051
-0.038979
-1.53745
1.53553
0.0367356
-0.0339534
-1.27118
1.26839
0.0312585
-0.0282501
-1.0534
1.05039
0.0255306
-0.0226379
-0.874292
0.871399
0.0201102
-0.0174852
-0.72666
0.724035
0.0152253
-0.0128992
-0.604514
0.602188
0.0109015
-0.00882978
-0.501787
0.499715
0.00701493
-0.00508012
-0.397269
0.395335
0.00337993
-0.00170213
-0.23878
0.237102
0.000558707
-0.0435488
0.0429901
-0.0550751
0.0561676
-0.00109247
0.00607785
-0.00888147
-0.330926
0.333729
0.0118486
-0.0144591
-0.447024
0.449634
0.0173181
-0.0200603
-0.541273
0.544016
0.0232892
-0.0264877
-0.648459
0.651657
0.0302308
-0.0337962
-0.775039
0.778604
0.0377465
-0.0412786
-0.925197
0.928729
0.0449243
-0.0479057
-1.10208
1.10506
0.0506139
-0.0523919
-1.30958
1.31136
0.053339
-0.0530533
-1.55251
1.55222
0.0516066
-0.0490761
-1.53329
1.53076
0.0462
-0.0426767
-1.26524
1.26172
0.0392873
-0.0355193
-1.04699
1.04322
0.0321244
-0.0285239
-0.868094
0.864493
0.0253868
-0.0221364
-0.721012
0.717762
0.0193396
-0.0164553
-0.599552
0.596667
0.0139613
-0.0113458
-0.497471
0.494856
0.00902509
-0.00652917
-0.393275
0.390779
0.00434005
-0.00218754
-0.235274
0.233122
0.000723574
-0.0424137
0.0416901
-0.0573533
0.0589053
-0.00155197
0.00847151
-0.0122476
-0.336804
0.34058
0.0161176
-0.0194317
-0.452915
0.456229
0.0230302
-0.0265326
-0.547759
0.551261
0.0307379
-0.0349412
-0.655512
0.659715
0.0398448
-0.0444477
-0.782418
0.787021
0.0494514
-0.0538302
-0.932378
0.936757
0.0582509
-0.0617756
-1.10811
1.11164
0.06487
-0.066787
-1.31309
1.31501
0.0676183
-0.0669609
-1.55169
1.55103
0.0649231
-0.0616083
-1.52782
1.5245
0.057945
-0.0535175
-1.25772
1.2533
0.0492894
-0.0446071
-1.03895
1.03427
0.040397
-0.035941
-0.860339
0.855883
0.0320685
-0.0280693
-0.713931
0.709932
0.0246368
-0.0210997
-0.593309
0.589772
0.0180243
-0.0147564
-0.492037
0.488769
0.0117958
-0.00854695
-0.388264
0.385015
0.0056769
-0.00285554
-0.230888
0.228067
0.000947545
-0.0410031
0.0400556
-0.0605769
0.0629089
-0.00233196
0.0123932
-0.0175862
-0.34474
0.349933
0.0226706
-0.026925
-0.460759
0.465014
0.03155
-0.0361466
-0.556257
0.560854
0.0417367
-0.0472823
-0.664591
0.670137
0.0536198
-0.0594032
-0.79174
0.797523
0.0655224
-0.0707343
-0.941162
0.946374
0.0758533
-0.0798013
-1.11513
1.11908
0.0831003
-0.0849534
-1.31675
1.3186
0.0854175
-0.0841403
-1.54998
1.54871
0.0812764
-0.0769566
-1.52064
1.51632
0.07233
-0.066824
-1.2483
1.24279
0.061609
-0.0558547
-1.02898
1.02322
0.0506831
-0.0452061
-0.850721
0.845244
0.0404447
-0.035532
-0.705112
0.700199
0.031324
-0.0269987
-0.585481
0.581156
0.0232311
-0.0191953
-0.485176
0.481141
0.0154645
-0.0112722
-0.381926
0.377734
0.0074968
-0.00375065
-0.225365
0.221619
0.00123286
-0.0392273
0.0379945
-0.0653244
0.0691803
-0.00385584
0.0194433
-0.0266981
-0.355788
0.363043
0.0333525
-0.0388819
-0.471424
0.476954
0.0449569
-0.0510918
-0.567466
0.573601
0.0584912
-0.0656068
-0.676259
0.683375
0.0734395
-0.0803393
-0.803297
0.810196
0.0874192
-0.0932697
-0.951498
0.957349
0.0988185
-0.1029
-1.12282
1.1269
0.106051
-0.107497
-1.32006
1.32151
0.10722
-0.104991
-1.54684
1.54462
0.101015
-0.095447
-1.51132
1.50575
0.0896802
-0.08294
-1.23663
1.22989
0.0766161
-0.0696663
-1.01679
1.00984
0.0634205
-0.056787
-0.838956
0.832322
0.0509945
-0.0449936
-0.694252
0.688252
0.0398365
-0.0345265
-0.575741
0.570431
0.0298951
-0.0249192
-0.476508
0.471532
0.0202385
-0.0148844
-0.373793
0.368439
0.00994118
-0.00495679
-0.218269
0.213285
0.00160066
-0.0369457
0.035345
-0.0728214
0.0801052
-0.00728388
0.0334553
-0.0440114
-0.372
0.382556
0.0527666
-0.0598539
-0.486092
0.493179
0.0678592
-0.0758796
-0.582122
0.590142
0.0851572
-0.0936103
-0.69086
0.699313
0.102498
-0.110026
-0.816915
0.824443
0.11747
-0.123366
-0.962835
0.968731
0.12867
-0.132257
-1.13042
1.134
0.134607
-0.135074
-1.32223
1.3227
0.133505
-0.129886
-1.54153
1.53791
0.12446
-0.117403
-1.49934
1.49229
0.110348
-0.102281
-1.22243
1.21436
0.0947978
-0.0866311
-1.00218
0.994013
0.0793059
-0.0715182
-0.824858
0.81707
0.0646921
-0.0575814
-0.681114
0.674003
0.051429
-0.0450675
-0.563767
0.557406
0.0395149
-0.0335083
-0.465577
0.45957
0.0276491
-0.0205319
-0.3632
0.356083
0.0136492
-0.00663226
-0.208818
0.201801
0.00204378
-0.0339885
0.0319448
-0.087317
0.0902863
-0.00296935
0.0209558
-0.0300608
-0.396367
0.405472
0.0384571
-0.0462206
-0.505768
0.513532
0.0555483
-0.0653065
-0.600045
0.609803
0.0760143
-0.0855677
-0.707489
0.717043
0.0962021
-0.10561
-0.83126
0.840668
0.115378
-0.123749
-0.973731
0.982102
0.132069
-0.138739
-1.13655
1.14322
0.14469
-0.148607
-1.32204
1.32596
0.150746
-0.150235
-1.53312
1.53261
0.146933
-0.141222
-1.48421
1.4785
0.134435
-0.125742
-1.20551
1.19682
0.117175
-0.106814
-0.985149
0.974788
0.0972269
-0.0865947
-0.808496
0.797864
0.077007
-0.0667467
-0.665763
0.655503
0.0574211
-0.0478269
-0.549519
0.539925
0.0395995
-0.0304687
-0.452084
0.442953
0.0220984
-0.0133558
-0.349104
0.340361
0.00670792
-0.00204041
-0.195333
0.190665
7.7737e-05
-0.0299837
0.0299059
-0.097433
0.0931789
0.0042541
-0.00279458
-0.0025176
-0.417828
0.42314
0.00992131
-0.0169681
-0.52519
0.532237
0.0258085
-0.0342038
-0.619688
0.628083
0.043726
-0.0524101
-0.726556
0.73524
0.061672
-0.0700682
-0.849594
0.857991
0.0788068
-0.0860417
-0.990193
0.997428
0.0934758
-0.0991573
-1.14978
1.15546
0.104235
-0.107361
-1.32974
1.33286
0.108562
-0.107448
-1.53152
1.53041
0.103746
-0.0978582
-1.47227
1.46638
0.0909471
-0.082407
-1.18791
1.17937
0.074173
-0.0647384
-0.964454
0.95502
0.0558886
-0.0460543
-0.786811
0.776976
0.0372548
-0.0282257
-0.643812
0.634783
0.0205319
-0.0126263
-0.528126
0.520221
0.00587976
0.000650113
-0.431236
0.424707
-0.00547467
0.00869007
-0.329968
0.326752
-0.00868426
0.00597888
-0.183776
0.186482
-0.00260923
-0.0284659
0.0310751
-0.0951211
0.090963
0.0041581
-0.00968959
0.00750507
-0.432228
0.434412
-0.00271715
-0.00295208
-0.541632
0.547301
0.0100659
-0.0171192
-0.636663
0.643717
0.0250826
-0.0323863
-0.743441
0.750744
0.0403974
-0.0475355
-0.865746
0.872884
0.0547717
-0.0611323
-1.00452
1.01088
0.0675126
-0.0725163
-1.16079
1.16579
0.0766501
-0.0790714
-1.3355
1.33792
0.0800518
-0.0788493
-1.52893
1.52773
0.0753746
-0.070099
-1.46041
1.45514
0.0640914
-0.0569721
-1.17133
1.16421
0.049919
-0.0422042
-0.945988
0.938273
0.0351255
-0.027415
-0.768085
0.760375
0.0208496
-0.0141485
-0.625838
0.619137
0.00868308
-0.00312667
-0.511183
0.505626
-0.00112153
0.0048433
-0.416288
0.412567
-0.00729324
0.008121
-0.320197
0.319369
-0.00664985
0.00388376
-0.183555
0.186321
-0.00159233
-0.0309567
0.032549
-0.0916746
0.0878966
0.00377802
-0.0114443
0.0110586
-0.441234
0.44162
-0.00791448
0.00340683
-0.55439
0.558898
0.0025649
-0.00825015
-0.650468
0.656154
0.0148314
-0.0209082
-0.757758
0.763835
0.0275532
-0.0335102
-0.879567
0.885524
0.039939
-0.0452485
-1.01686
1.02217
0.0508056
-0.0547943
-1.17051
1.1745
0.058445
-0.0606307
-1.34033
1.34252
0.0614399
-0.0601958
-1.52646
1.52522
0.0573542
-0.053038
-1.44988
1.44556
0.0480876
-0.0419875
-1.15751
1.15141
0.0363155
-0.03023
-0.930989
0.924904
0.0245731
-0.0187936
-0.753396
0.747617
0.0135917
-0.00855104
-0.612363
0.607322
0.00448094
-0.000740899
-0.499281
0.495541
-0.00194205
0.0042149
-0.406467
0.404194
-0.00563877
0.00570642
-0.314537
0.31447
-0.00457376
0.00267745
-0.183718
0.185614
-0.00113353
-0.0318568
0.0329904
-0.0886549
0.085665
0.0029899
-0.0107464
0.0115099
-0.446962
0.446199
-0.00903579
0.00553445
-0.564743
0.568244
-0.000849048
-0.0040819
-0.661799
0.66673
0.00940335
-0.0145733
-0.769494
0.774664
0.020135
-0.0251519
-0.891097
0.896114
0.030529
-0.0351793
-1.02737
1.03202
0.0398456
-0.0435565
-1.17845
1.18216
0.0467894
-0.0487689
-1.34453
1.34651
0.0496035
-0.0486401
-1.52413
1.52316
0.046337
-0.0426152
-1.44106
1.43734
0.0385044
-0.0335828
-1.14578
1.14086
0.0289276
-0.0238455
-0.919068
0.913985
0.0193404
-0.0146508
-0.742078
0.737389
0.0106304
-0.00664078
-0.602322
0.598332
0.00351762
-0.000689282
-0.490786
0.487958
-0.00146176
0.00312587
-0.399678
0.398014
-0.003957
0.00421514
-0.310503
0.310245
-0.00350834
0.00198653
-0.182655
0.184176
-0.000892034
-0.0320739
0.0329659
-0.0864826
0.0841208
0.00236171
-0.00921089
0.0100868
-0.45063
0.449754
-0.00868823
0.00578125
-0.572586
0.575493
-0.00157424
-0.00242407
-0.671141
0.67514
0.00679749
-0.0111119
-0.779269
0.783584
0.0158699
-0.0202074
-0.90082
0.905157
0.02501
-0.0290108
-1.03642
1.04042
0.0331929
-0.0365752
-1.18568
1.18906
0.0395287
-0.0413951
-1.3484
1.35027
0.0422728
-0.0418978
-1.52236
1.52199
0.039984
-0.0369896
-1.43355
1.43056
0.033472
-0.0292465
-1.13612
1.1319
0.0254698
-0.0210078
-0.909127
0.904665
0.01711
-0.0131959
-0.732887
0.728973
0.00977569
-0.00636369
-0.594413
0.591001
0.00363284
-0.000982646
-0.484192
0.481542
-0.000718195
0.00214389
-0.394293
0.392868
-0.00311897
0.00339549
-0.306712
0.306435
-0.00279945
0.00164511
-0.181199
0.182353
-0.000720645
-0.0319498
0.0326704
-0.0851037
0.0833361
0.00176757
-0.00737234
0.00831756
-0.453284
0.452339
-0.00709384
0.00490572
-0.579292
0.58148
-0.0012984
-0.00211398
-0.678897
0.682309
0.00610223
-0.00964184
-0.787662
0.791202
0.0136474
-0.0173557
-0.909487
0.913196
0.0218119
-0.0253736
-1.04445
1.04801
0.0290461
-0.0322661
-1.19231
1.19553
0.0354396
-0.0372816
-1.35228
1.35412
0.0384086
-0.0382295
-1.52143
1.52125
0.0369899
-0.0342433
-1.42759
1.42485
0.0313396
-0.0277639
-1.12774
1.12417
0.0243097
-0.0204949
-0.900432
0.896617
0.0169612
-0.013258
-0.724956
0.721253
0.0103638
-0.0071536
-0.587462
0.584252
0.0044993
-0.00214561
-0.478254
0.4759
0.000366871
0.00119467
-0.389662
0.388101
-0.00207212
0.00245663
-0.303366
0.302982
-0.00209356
0.00126547
-0.179584
0.180412
-0.000579356
-0.0316361
0.0322155
-0.0844452
0.0830692
0.00137606
-0.00576492
0.00668169
-0.455391
0.454474
-0.00552624
0.00351191
-0.584864
0.586878
-0.000414687
-0.0024573
-0.685537
0.688409
0.00568603
-0.00898702
-0.794797
0.798098
0.0125444
-0.0162966
-0.916736
0.920489
0.0199871
-0.0233133
-1.05165
1.05498
0.0270652
-0.0300502
-1.19867
1.20165
0.0328132
-0.0351338
-1.35596
1.35828
0.0365735
-0.0368218
-1.52129
1.52153
0.0358906
-0.0338259
-1.42244
1.42038
0.0312994
-0.0280591
-1.12041
1.11717
0.0249542
-0.021384
-0.892768
0.889198
0.0180714
-0.0147051
-0.71764
0.714273
0.0116456
-0.00860579
-0.580891
0.577852
0.00610744
-0.00357587
-0.472895
0.470363
0.00164437
-0.000214258
-0.385057
0.383627
-0.000790578
0.00144609
-0.300023
0.299367
-0.0014305
0.000896295
-0.177771
0.178305
-0.000447953
-0.0311959
0.0316439
-0.0843829
0.083197
0.00118584
-0.00427583
0.00487691
-0.457362
0.456761
-0.00396061
0.00207148
-0.589714
0.591603
0.000548561
-0.00319954
-0.691397
0.694048
0.00618072
-0.00903258
-0.801286
0.804138
0.0126188
-0.0155575
-0.923714
0.926652
0.0191375
-0.0222279
-1.05845
1.06154
0.0258153
-0.0289535
-1.20463
1.20777
0.0319896
-0.0341469
-1.36043
1.36259
0.0360123
-0.0367618
-1.52184
1.52259
0.0365342
-0.0348122
-1.41831
1.41659
0.0326772
-0.0297193
-1.11407
1.11111
0.0268314
-0.0233498
-0.885444
0.881963
0.0202161
-0.0167747
-0.710686
0.707244
0.0137281
-0.0105939
-0.574601
0.571467
0.0079107
-0.00547267
-0.467381
0.464943
0.00335054
-0.0016956
-0.380471
0.378816
0.000406835
0.000432132
-0.296481
0.295642
-0.0006777
0.000593859
-0.175616
0.1757
-0.000314479
-0.0305804
0.0308949
-0.0845382
0.0836327
0.000905521
-0.00315009
0.00325842
-0.459524
0.459416
-0.00257149
0.000770208
-0.593704
0.595505
0.00141503
-0.00386141
-0.696578
0.699024
0.00660764
-0.00951042
-0.806917
0.809819
0.0124451
-0.0154569
-0.929784
0.932796
0.0189138
-0.0217323
-1.06503
1.06785
0.0253349
-0.0283861
-1.21074
1.21379
0.0314619
-0.0341474
-1.36519
1.36787
0.0365526
-0.0376923
-1.52349
1.52463
0.0378084
-0.0368144
-1.41514
1.41414
0.0351715
-0.0324487
-1.10806
1.10534
0.0296241
-0.0264039
-0.878394
0.875174
0.0229436
-0.0195951
-0.703543
0.700195
0.0164727
-0.0131388
-0.56831
0.564976
0.0104516
-0.00769843
-0.461725
0.458972
0.00545576
-0.00334922
-0.375889
0.373782
0.00190514
-0.000764237
-0.292693
0.291552
4.37666e-05
0.00025835
-0.173084
0.172782
-0.000229645
-0.0297193
0.0299489
-0.0849986
0.0841952
0.000803432
-0.00234715
0.00247465
-0.461845
0.461718
-0.00132235
-0.000133058
-0.597625
0.59908
0.00237028
-0.00462718
-0.701139
0.703396
0.00716016
-0.00962245
-0.812442
0.814904
0.0125917
-0.0152297
-0.935795
0.938433
0.018548
-0.0216934
-1.07108
1.07423
0.0248719
-0.0281792
-1.2169
1.2202
0.0316255
-0.0344142
-1.37053
1.37332
0.0372428
-0.0392518
-1.5261
1.52811
0.0399458
-0.0396735
-1.41315
1.41288
0.0382639
-0.0359184
-1.10268
1.10034
0.0333489
-0.0300593
-0.871551
0.868261
0.0267088
-0.0231762
-0.696336
0.692804
0.0199097
-0.0163153
-0.561446
0.557852
0.0133054
-0.0103689
-0.455736
0.4528
0.00771785
-0.00533211
-0.370724
0.368338
0.00353469
-0.00204751
-0.288407
0.28692
0.00102005
-0.000209966
-0.17016
0.16935
-7.95193e-05
-0.0286912
0.0287708
-0.0855948
0.0849173
0.000677439
-0.0015461
0.00150393
-0.464226
0.464268
-0.00054975
-0.00107837
-0.601003
0.602631
0.00313526
-0.00517386
-0.705345
0.707383
0.00771185
-0.00996347
-0.817353
0.819604
0.0127042
-0.0153698
-0.941486
0.944152
0.0184953
-0.0215159
-1.07721
1.08023
0.0248135
-0.0280779
-1.22345
1.22671
0.0316569
-0.0351628
-1.37646
1.37997