/*--------------------------------*- C++ -*----------------------------------*\
| =========                 |                                                 |
| \\      /  F ield         | OpenFOAM: The Open Source CFD Toolbox           |
|  \\    /   O peration     | Version:  4.0                                   |
|   \\  /    A nd           | Web:      www.OpenFOAM.org                      |
|    \\/     M anipulation  |                                                 |
\*---------------------------------------------------------------------------*/
FoamFile
{
    version     2.0;
    format      ascii;
    class       volScalarField;
    location    "37";
    object      p;
}
// * * * * * * * * * * * * * * * * * * * * * * * * * * * * * * * * * * * * * //

dimensions      [0 2 -2 0 0 0 0];

internalField   nonuniform List<scalar> 
2200
(
0.821311
0.79981
0.783899
0.768229
0.753615
0.741083
0.730713
0.722576
0.716838
0.713821
0.714223
0.717968
0.724237
0.732747
0.743386
0.756117
0.770875
0.786735
0.802745
0.824251
0.753759
0.750501
0.747573
0.743447
0.737968
0.73148
0.724842
0.718858
0.714306
0.711837
0.712235
0.715466
0.720581
0.726988
0.733931
0.740649
0.746291
0.750416
0.753301
0.756636
0.713875
0.714094
0.716136
0.717465
0.717845
0.716973
0.714962
0.712262
0.709681
0.708136
0.708604
0.710955
0.714149
0.717306
0.719616
0.720619
0.720333
0.719277
0.717552
0.717309
0.691362
0.692807
0.69541
0.697874
0.700313
0.702319
0.703458
0.703653
0.703234
0.702876
0.703415
0.704677
0.705793
0.706114
0.705371
0.703659
0.701464
0.699226
0.696622
0.695209
0.677097
0.679069
0.681885
0.684708
0.687541
0.690342
0.692773
0.694587
0.695745
0.696437
0.697054
0.697426
0.697095
0.695917
0.693988
0.691573
0.688988
0.686249
0.683461
0.68153
0.669866
0.671467
0.673656
0.676163
0.678799
0.681432
0.683971
0.686336
0.688284
0.689681
0.690403
0.690297
0.689341
0.687727
0.685753
0.683546
0.681184
0.678825
0.676717
0.675139
0.666477
0.667498
0.668761
0.670619
0.672756
0.674903
0.677045
0.679269
0.681403
0.683137
0.684004
0.683839
0.68292
0.681595
0.680117
0.678464
0.676697
0.675067
0.673926
0.672913
0.663931
0.664596
0.665227
0.666529
0.668139
0.669797
0.671493
0.673325
0.675249
0.677047
0.678103
0.678209
0.677749
0.677004
0.676112
0.675073
0.673931
0.672949
0.672468
0.671797
0.660904
0.661351
0.661748
0.662737
0.663984
0.665335
0.666769
0.668322
0.670001
0.671736
0.673022
0.67361
0.673692
0.673488
0.673053
0.672455
0.671766
0.671154
0.670928
0.670469
0.657037
0.657337
0.657697
0.658575
0.659689
0.660952
0.662362
0.663908
0.665587
0.667382
0.668967
0.670011
0.670518
0.670636
0.670475
0.670122
0.669671
0.669227
0.669047
0.668734
0.652503
0.652695
0.653083
0.653953
0.655092
0.656434
0.657969
0.659672
0.661533
0.663563
0.665505
0.666927
0.66775
0.668092
0.668098
0.667903
0.667578
0.667234
0.66706
0.666844
0.647619
0.64775
0.648129
0.648994
0.650209
0.651705
0.653436
0.655376
0.657531
0.659926
0.662318
0.664184
0.665315
0.665881
0.666032
0.665918
0.665697
0.665466
0.665322
0.66517
0.642519
0.642608
0.642983
0.64381
0.645054
0.646668
0.648636
0.65095
0.653602
0.656576
0.659535
0.661821
0.663235
0.663985
0.664307
0.664378
0.664341
0.664241
0.664138
0.664012
0.636992
0.637046
0.637426
0.638286
0.639608
0.641348
0.643522
0.646208
0.649445
0.653157
0.656767
0.659462
0.66121
0.662288
0.662947
0.663324
0.663468
0.663499
0.663449
0.663338
0.630984
0.630982
0.631395
0.632297
0.63377
0.635671
0.638034
0.640984
0.644667
0.649071
0.65351
0.657
0.659432
0.661129
0.662254
0.662885
0.663213
0.663359
0.663358
0.663268
0.624619
0.624526
0.62495
0.62593
0.627562
0.629696
0.632324
0.635601
0.639738
0.644869
0.650366
0.655007
0.658394
0.66078
0.662361
0.66329
0.663848
0.66411
0.664159
0.664088
0.617727
0.617726
0.618065
0.619068
0.620982
0.623439
0.626561
0.630516
0.635513
0.641704
0.64845
0.654221
0.658452
0.661412
0.663427
0.664773
0.665607
0.666012
0.666117
0.666048
0.609857
0.609837
0.610273
0.611506
0.613692
0.616573
0.620384
0.625335
0.631586
0.639286
0.647515
0.654418
0.659449
0.663075
0.665655
0.667412
0.668483
0.669048
0.669219
0.669146
0.600797
0.60071
0.601256
0.602728
0.605188
0.608569
0.613131
0.619096
0.62679
0.636316
0.646421
0.654864
0.661112
0.665654
0.668913
0.671162
0.672584
0.673354
0.673597
0.67351
0.58993
0.58982
0.59042
0.592096
0.594998
0.599011
0.604419
0.61158
0.620857
0.632453
0.644884
0.655358
0.663196
0.668982
0.67316
0.676078
0.677987
0.678994
0.679316
0.679201
0.576815
0.576691
0.577377
0.579325
0.582768
0.587695
0.594441
0.603319
0.614752
0.628929
0.644022
0.656745
0.666264
0.673377
0.678568
0.682307
0.684786
0.686054
0.686449
0.686291
0.560367
0.56028
0.561244
0.563722
0.568132
0.574471
0.583091
0.594426
0.608807
0.626201
0.644312
0.659444
0.670788
0.679263
0.685533
0.690051
0.693053
0.694552
0.694997
0.694795
0.539647
0.539491
0.540799
0.544176
0.550016
0.558425
0.569747
0.584357
0.602413
0.623689
0.645385
0.663235
0.676558
0.686532
0.693923
0.69928
0.702821
0.704545
0.70504
0.704789
0.512272
0.512319
0.514426
0.519187
0.527328
0.538904
0.553979
0.572763
0.595243
0.621064
0.646843
0.667832
0.683433
0.695139
0.70387
0.710179
0.714271
0.716199
0.716713
0.716408
0.475375
0.475681
0.479324
0.487071
0.499162
0.515561
0.535834
0.559977
0.58779
0.6188
0.649081
0.673449
0.691493
0.705033
0.71519
0.722591
0.727288
0.729424
0.729954
0.729557
0.425841
0.426284
0.433412
0.446433
0.46503
0.48858
0.515819
0.54663
0.580738
0.617585
0.652688
0.680522
0.701037
0.716516
0.728194
0.736623
0.741802
0.743978
0.744382
0.743958
0.359898
0.362875
0.378272
0.399756
0.427271
0.459509
0.494853
0.533207
0.574348
0.617729
0.658253
0.690243
0.714015
0.732017
0.745624
0.755634
0.761769
0.764151
0.764377
0.764156
0.28466
0.294408
0.320141
0.351623
0.389202
0.430416
0.473846
0.519969
0.568522
0.618938
0.665731
0.702765
0.730397
0.751547
0.7679
0.77985
0.787197
0.789664
0.789781
0.789944
0.217878
0.232972
0.265196
0.30519
0.352128
0.402142
0.45358
0.507459
0.563347
0.620641
0.673286
0.714867
0.74604
0.769932
0.788116
0.801545
0.809767
0.813352
0.814137
0.814112
0.16731
0.180836
0.218372
0.264225
0.318283
0.375582
0.434443
0.495633
0.558445
0.622278
0.680488
0.726348
0.760409
0.78632
0.806215
0.82118
0.829977
0.833819
0.834561
0.83465
0.125687
0.138297
0.179318
0.229045
0.288488
0.351564
0.416792
0.484463
0.553562
0.623537
0.687209
0.736738
0.773264
0.800912
0.821799
0.837494
0.846849
0.850955
0.851848
0.851958
0.0898647
0.10273
0.146137
0.198689
0.262324
0.330023
0.400606
0.473889
0.548693
0.62447
0.692916
0.74561
0.784165
0.813004
0.834644
0.85049
0.860235
0.864677
0.865749
0.865858
0.0586001
0.0716241
0.117012
0.172041
0.239063
0.310567
0.385657
0.46376
0.543654
0.624379
0.69698
0.752665
0.792937
0.822747
0.84474
0.860841
0.871156
0.875851
0.877133
0.87723
0.0305752
0.043668
0.0907032
0.147987
0.217928
0.292661
0.371581
0.453846
0.538218
0.623651
0.700609
0.758806
0.800366
0.830907
0.853562
0.869918
0.880503
0.885465
0.886834
0.886889
0.00494029
0.0180078
0.0662915
0.125739
0.198293
0.275844
0.358102
0.444078
0.532582
0.622452
0.702769
0.763574
0.806786
0.838265
0.861414
0.87799
0.8887
0.893706
0.895048
0.894855
-0.0191519
-0.00573048
0.0433451
0.104819
0.179653
0.259718
0.344919
0.43414
0.526207
0.619731
0.704003
0.767991
0.812664
0.844949
0.868504
0.885208
0.895614
0.900677
0.901992
0.901834
-0.0417676
-0.028249
0.0216275
0.0849134
0.161722
0.24401
0.331755
0.423792
0.519152
0.616712
0.70538
0.771707
0.818313
0.851526
0.875145
0.891849
0.902285
0.907131
0.908555
0.908448
-0.0631317
-0.0496319
0.000928935
0.0657487
0.14424
0.228504
0.318533
0.413222
0.511832
0.613115
0.704957
0.774682
0.823673
0.857714
0.881869
0.898484
0.908788
0.913568
0.914829
0.914759
-0.0837548
-0.0700178
-0.0189582
0.0471243
0.127051
0.213122
0.305286
0.402408
0.503782
0.608224
0.70421
0.777887
0.828773
0.864295
0.888783
0.905288
0.915385
0.91989
0.921107
0.920995
-0.104041
-0.0896553
-0.0382171
0.0289517
0.110114
0.197824
0.29192
0.391181
0.495004
0.602725
0.702889
0.779716
0.833781
0.871101
0.896189
0.912526
0.922052
0.926282
0.927219
0.927083
-0.124017
-0.108802
-0.0569793
0.011191
0.0934269
0.182567
0.278351
0.379557
0.485791
0.596631
0.7004
0.781219
0.83861
0.878195
0.904367
0.920433
0.929086
0.93247
0.933126
0.932941
-0.143523
-0.12757
-0.0753035
-0.00618395
0.0769811
0.167348
0.264627
0.367635
0.476117
0.589633
0.696611
0.781551
0.842836
0.885662
0.913607
0.929488
0.93661
0.938528
0.938582
0.938433
-0.16245
-0.14594
-0.0931774
-0.0231651
0.0608145
0.152233
0.250819
0.355446
0.46584
0.581523
0.691594
0.78083
0.846492
0.893376
0.924135
0.940554
0.945774
0.944038
0.943303
0.944031
-0.180757
-0.163838
-0.110549
-0.0397078
0.0449909
0.137299
0.236979
0.342942
0.454933
0.572663
0.685698
0.778624
0.849067
0.900916
0.935917
0.954333
0.958356
0.952365
0.946871
0.944962
-0.198428
-0.181157
-0.127348
-0.0557574
0.0295789
0.122619
0.223174
0.330221
0.443594
0.563112
0.678254
0.774726
0.850104
0.907821
0.948739
0.971553
0.978701
0.966614
0.963774
0.968224
-0.215456
-0.197841
-0.14352
-0.071256
0.0146415
0.108274
0.209505
0.317405
0.431889
0.552843
0.669911
0.769418
0.84913
0.912961
0.961384
0.99187
1.00585
0.979828
0.93661
0.897222
-0.231777
-0.213886
-0.159095
-0.0862741
7.79893e-05
0.0941501
0.195855
0.304354
0.419655
0.541773
0.660359
0.761786
0.845094
0.915174
0.972468
1.01426
1.04315
1.03598
1.05302
1.10711
-0.247348
-0.229351
-0.174171
-0.10095
-0.0142934
0.0800291
0.181966
0.290752
0.406477
0.529254
0.64883
0.751376
0.837166
0.911639
0.973643
1.019
1.04115
1.02958
0.993389
1.0049
-0.262137
-0.244196
-0.1887
-0.115236
-0.0284052
0.0660011
0.167972
0.27677
0.392531
0.515522
0.635505
0.738125
0.823504
0.898222
0.959609
1.0027
0.999296
0.952013
0.89122
0.880063
-0.276148
-0.258427
-0.202687
-0.129135
-0.0422624
0.0520591
0.153881
0.26245
0.377878
0.500476
0.619933
0.72148
0.804353
0.873444
0.92809
0.943816
0.912967
0.84053
0.76806
0.750244
-0.28941
-0.272026
-0.216142
-0.14267
-0.0558919
0.0381835
0.139686
0.247798
0.362541
0.484129
0.602206
0.701592
0.778539
0.835125
0.865236
0.856448
0.805144
0.705667
0.619551
0.599816
-0.302387
-0.285417
-0.229465
-0.156209
-0.0696464
0.0240611
0.125103
0.232563
0.346309
0.466322
0.582297
0.677872
0.747615
0.788306
0.784331
0.75183
0.646111
0.525646
0.419501
0.394454
-0.315977
-0.299376
-0.243354
-0.170383
-0.0841032
0.00920564
0.109712
0.216369
0.328869
0.446856
0.559765
0.6501
0.712734
0.730056
0.695964
0.611455
0.457085
0.305847
0.178239
0.152289
-0.330709
-0.314343
-0.258139
-0.185424
-0.099442
-0.00651574
0.0934132
0.199166
0.310211
0.425726
0.53463
0.619488
0.670925
0.661401
0.606966
0.459402
0.259221
0.0463193
-0.133675
-0.180529
-0.346676
-0.33037
-0.273869
-0.201358
-0.115641
-0.0230736
0.0762407
0.180981
0.290405
0.403106
0.506918
0.586245
0.622437
0.581862
0.493768
0.304699
0.0707286
-0.220827
-0.54504
-0.69018
-0.363963
-0.3476
-0.290665
-0.21826
-0.132745
-0.0405286
0.0581339
0.16178
0.269444
0.379047
0.476993
0.550495
0.569481
0.497261
0.360165
0.151021
-0.0879225
-0.437461
-1.03202
-1.60796
-0.382624
-0.36606
-0.308584
-0.236195
-0.150775
-0.0588662
0.0391418
0.141651
0.247496
0.353927
0.445956
0.511768
0.513231
0.421618
0.230025
-0.00912248
-0.218406
-0.461369
-1.03198
-2.57915
-0.402668
-0.385904
-0.327729
-0.255275
-0.169883
-0.0782806
0.0190421
0.120347
0.224223
0.327324
0.413584
0.470105
0.452464
0.362077
0.13334
-0.111816
-0.2659
-0.309697
-0.308731
-0.704307
-0.423991
-0.407154
-0.348257
-0.275807
-0.190465
-0.0992473
-0.00276469
0.0971169
0.19871
0.297901
0.378793
0.425142
0.391261
0.313301
0.0812323
-0.129553
-0.246253
-0.257228
-0.206431
-0.248478
-0.446554
-0.429768
-0.370167
-0.297826
-0.21258
-0.121882
-0.0264107
0.0718291
0.170786
0.26549
0.34165
0.378341
0.337265
0.262065
0.0473091
-0.122565
-0.207891
-0.215379
-0.262764
-0.269447
-0.470235
-0.453444
-0.393368
-0.321345
-0.236211
-0.14618
-0.0519256
0.0444294
0.140453
0.230452
0.302105
0.329953
0.289257
0.201307
0.0192523
-0.113114
-0.188277
-0.158688
-0.181403
-0.183231
-0.49489
-0.477844
-0.417763
-0.346232
-0.261185
-0.172056
-0.0792034
0.0150493
0.107858
0.193281
0.260395
0.278327
0.247154
0.134453
-0.0149423
-0.107669
-0.156699
-0.196747
-0.173243
-0.181104
-0.520039
-0.502656
-0.443225
-0.372329
-0.287286
-0.199312
-0.10803
-0.0160357
0.0731942
0.154318
0.217381
0.225141
0.204786
0.0715252
-0.0537189
-0.121907
-0.111328
-0.171543
-0.147156
-0.15281
-0.545079
-0.527497
-0.469538
-0.399167
-0.314144
-0.227679
-0.138075
-0.0484819
0.0367006
0.113864
0.174018
0.173099
0.154388
0.0185694
-0.0835222
-0.14071
-0.117919
-0.145583
-0.147707
-0.148101
-0.569408
-0.552094
-0.495851
-0.426064
-0.341445
-0.256739
-0.168889
-0.08174
-0.000861445
0.072418
0.131469
0.124407
0.0984146
-0.026458
-0.100803
-0.138573
-0.160731
-0.147289
-0.15319
-0.14993
-0.592299
-0.575696
-0.521155
-0.452138
-0.368735
-0.285903
-0.199866
-0.115231
-0.0386343
0.0301839
0.0887154
0.0780535
0.0407035
-0.0638176
-0.116351
-0.122903
-0.181166
-0.146232
-0.153898
-0.147481
-0.612841
-0.59736
-0.544503
-0.476534
-0.395598
-0.314359
-0.230218
-0.148169
-0.0753957
-0.0119779
0.0464203
0.0324932
-0.0138654
-0.0876681
-0.133119
-0.121947
-0.179164
-0.135624
-0.141335
-0.136013
-0.629788
-0.615834
-0.565204
-0.498711
-0.420812
-0.341036
-0.259021
-0.17963
-0.110106
-0.0530952
0.00522269
-0.0123972
-0.0684001
-0.102153
-0.118541
-0.104577
-0.114508
-0.121465
-0.126911
-0.127295
-0.642067
-0.630076
-0.582273
-0.51785
-0.442899
-0.364925
-0.285272
-0.208537
-0.141684
-0.0914882
-0.0342517
-0.0547002
-0.129901
-0.123524
-0.0523345
-0.0308497
-0.05844
-0.105762
-0.125439
-0.133911
-0.64856
-0.638807
-0.594704
-0.532685
-0.460368
-0.384839
-0.307749
-0.23352
-0.16871
-0.124429
-0.0706669
-0.0900311
-0.199273
-0.240615
-0.175059
-0.204086
-0.213454
-0.223288
-0.229903
-0.226494
-0.648684
-0.640936
-0.600819
-0.54171
-0.472266
-0.399446
-0.325011
-0.252985
-0.189682
-0.148468
-0.10232
-0.119344
-0.27882
-0.49664
-0.692998
-0.807874
-0.823416
-0.761328
-0.702927
-0.657685
-0.641556
-0.634332
-0.599071
-0.543746
-0.47749
-0.407569
-0.335636
-0.265203
-0.201952
-0.159782
-0.122645
-0.131395
-0.323807
-0.674623
-1.13542
-1.36244
-1.36546
-1.31193
-1.21715
-1.14129
-0.62321
-0.615566
-0.587025
-0.537342
-0.475222
-0.408351
-0.338575
-0.268518
-0.202615
-0.154363
-0.119175
-0.104911
-0.234866
-0.457566
-0.74218
-0.841846
-0.773959
-0.690857
-0.576963
-0.507106
-0.587312
-0.580472
-0.563575
-0.522653
-0.465288
-0.401237
-0.333311
-0.262107
-0.190126
-0.127963
-0.0782944
-0.0052303
0.0714713
0.225511
0.353746
0.49285
0.622603
0.712166
0.768619
0.826712
-0.541567
-0.537764
-0.532643
-0.500413
-0.449534
-0.388023
-0.320126
-0.246289
-0.165501
-0.080365
0.00213919
0.148206
0.380101
0.752891
1.11628
1.41647
1.63244
1.76671
1.83383
1.85399
-0.50836
-0.508338
-0.502494
-0.478008
-0.431993
-0.371294
-0.301286
-0.223681
-0.134414
-0.02846
0.0848026
0.240244
0.539165
0.941378
1.33429
1.66589
1.90231
2.03695
2.09514
2.11088
-0.476277
-0.477095
-0.471432
-0.457377
-0.416019
-0.355222
-0.28216
-0.201629
-0.10941
0.000992283
0.118565
0.230418
0.490502
0.822872
1.13857
1.406
1.61221
1.73636
1.79341
1.81058
-0.44735
-0.44628
-0.445559
-0.440567
-0.400059
-0.339606
-0.2656
-0.183681
-0.0946638
0.00694978
0.11766
0.191444
0.391198
0.662501
0.910472
1.12058
1.29203
1.39893
1.44688
1.45978
-0.431635
-0.430108
-0.435643
-0.426647
-0.385462
-0.323637
-0.250292
-0.170927
-0.0888554
-0.0023243
0.100081
0.153819
0.289955
0.502658
0.698488
0.857793
0.985887
1.07057
1.10866
1.11888
-0.402791
-0.402181
-0.409516
-0.399945
-0.362773
-0.302192
-0.232489
-0.158779
-0.0848236
-0.0134433
0.0792801
0.126179
0.210581
0.371506
0.524727
0.64348
0.735921
0.798571
0.82603
0.831649
-0.347373
-0.348587
-0.354354
-0.3467
-0.317556
-0.265459
-0.206644
-0.14223
-0.0775953
-0.0197911
0.0610683
0.105981
0.156151
0.275391
0.391766
0.478615
0.544616
0.589183
0.608129
0.614561
-0.263567
-0.265784
-0.268776
-0.264224
-0.243729
-0.208966
-0.167023
-0.117816
-0.0642785
-0.0182598
0.0482049
0.0897221
0.121287
0.210404
0.295219
0.356113
0.403491
0.438473
0.451388
0.454926
-0.167019
-0.168596
-0.170247
-0.168392
-0.158112
-0.139985
-0.115727
-0.0843082
-0.0440964
-0.00945028
0.0413281
0.0762456
0.099449
0.167375
0.227382
0.268724
0.302355
0.325417
0.336418
0.339986
-0.0797371
-0.0808853
-0.0822657
-0.0828963
-0.0803911
-0.0742093
-0.0635507
-0.0466111
-0.0205582
0.0025245
0.0385029
0.0660729
0.082526
0.135191
0.177742
0.205298
0.227573
0.241087
0.247697
0.249442
-0.0128519
-0.0136169
-0.0150397
-0.0177251
-0.0205852
-0.0217138
-0.0197507
-0.013013
0.000745326
0.0141342
0.0367947
0.0586751
0.0686618
0.108584
0.137142
0.15616
0.169546
0.176142
0.178064
0.177789
0.0298684
0.0293311
0.0279528
0.0241808
0.018138
0.0131764
0.0104366
0.0109769
0.0163973
0.0238692
0.0365022
0.0509572
0.0592932
0.0847952
0.104586
0.117725
0.124755
0.12706
0.126297
0.1249
0.0529313
0.0524783
0.0511726
0.0472118
0.0402503
0.033661
0.0284772
0.0256523
0.0268927
0.0311599
0.038819
0.0462128
0.0535049
0.0669058
0.0784731
0.0859043
0.0893267
0.0893569
0.0879043
0.0863341
0.0627985
0.0624255
0.0613089
0.057902
0.0517084
0.045148
0.0392673
0.0349488
0.03424
0.0359264
0.0419416
0.0452482
0.0493047
0.0555305
0.0600188
0.0616483
0.0624643
0.0605891
0.0584421
0.0571837
0.0655148
0.0652146
0.064325
0.0616797
0.0568331
0.0513676
0.0459958
0.0411948
0.0394076
0.0386972
0.04297
0.0457101
0.0469722
0.0496831
0.0509339
0.0507862
0.0497357
0.0480542
0.0457262
0.044016
0.0643979
0.0641784
0.0634801
0.0616273
0.0580753
0.0538274
0.0493442
0.0447228
0.0422184
0.0400764
0.0417765
0.0437061
0.0447827
0.0470605
0.0481542
0.0479623
0.0465557
0.0451016
0.0435663
0.0417277
0.0616039
0.0614386
0.0608765
0.0595298
0.0568168
0.0536167
0.0499525
0.0459292
0.0432164
0.0402607
0.0399624
0.0399764
0.0402735
0.0421226
0.0444737
0.044856
0.0453719
0.044043
0.0429577
0.0416778
0.0580725
0.0579332
0.057474
0.0565024
0.0544937
0.0521358
0.0492262
0.0458136
0.0431445
0.0398181
0.0385049
0.0372463
0.0376231
0.0380271
0.0400139
0.0426019
0.0441377
0.0449679
0.0449504
0.0434404
0.0547083
0.0545784
0.0542152
0.0534629
0.0519793
0.0502806
0.0480129
0.0452501
0.0425299
0.0386462
0.036748
0.0335299
0.0339056
0.0362464
0.0395876
0.0435463
0.0453245
0.0481891
0.0502374
0.0481618
0.0518379
0.0517099
0.0514649
0.0509092
0.0497821
0.0485309
0.0468731
0.0443372
0.0419906
0.0378231
0.0345724
0.0303093
0.0271002
0.0321751
0.0393667
0.0446865
0.0504835
0.0526588
0.0537043
0.0524294
0.0495494
0.0494252
0.049266
0.0487995
0.0480109
0.0471821
0.0461654
0.0437514
0.042197
0.0375699
0.032409
0.0277068
0.021869
0.0265465
0.0366134
0.0425237
0.0472872
0.0484635
0.048161
0.0473923
0.0474937
0.0474095
0.0474149
0.0472821
0.0469334
0.0459898
0.0455367
0.0437261
0.0416049
0.0369009
0.0299407
0.0248878
0.0179268
0.0230153
0.0296829
0.0332881
0.0334388
0.0344497
0.0353464
0.0345914
0.0450069
0.0449311
0.0449892
0.0450714
0.0452218
0.0448034
0.0446453
0.0440211
0.0425083
0.0393622
0.0342965
0.0251083
0.0165996
0.0234444
0.0271627
0.0284722
0.0323181
0.0365576
0.0401482
0.0379468
0.0414908
0.0414971
0.0417132
0.0422948
0.0429616
0.0434102
0.0429903
0.0435503
0.0437393
0.0420319
0.0422397
0.0317085
0.0217676
0.0263268
0.0307927
0.0371113
0.0485892
0.0539618
0.0540548
0.0507109
0.0362343
0.0361757
0.0363678
0.0368317
0.0374846
0.0405442
0.0429463
0.0456085
0.0475021
0.0465908
0.0483605
0.0413257
0.0292468
0.027923
0.0280943
0.0328174
0.0324252
0.0299074
0.0284626
0.025974
0.0299891
0.0299847
0.030294
0.0311197
0.0319239
0.0347186
0.0379269
0.0416883
0.0449994
0.0507638
0.0526812
0.050236
0.039309
0.0272891
0.010582
-0.00325024
-0.016219
-0.0271448
-0.0284061
-0.0272663
0.0205889
0.020625
0.0211546
0.0224857
0.023749
0.0251167
0.0269641
0.0308201
0.0382964
0.0411154
0.0457455
0.0512262
0.0416276
0.0205213
-0.00496368
-0.0254881
-0.0378968
-0.0448452
-0.044241
-0.0383381
0.00658341
0.00631694
0.00554225
0.00403875
0.00320294
0.00350982
0.0045834
0.00667311
0.0155431
0.019065
0.0306207
0.0386551
0.0256968
0.00890286
-0.00286194
-0.0128065
-0.0188003
-0.0197194
-0.0178583
-0.015145
-1.04912
-0.195432
0.0752044
0.355683
0.542327
0.70329
0.836206
0.971232
1.11713
1.19606
-0.0567815
0.356108
0.376856
0.568015
0.696924
0.812143
0.911832
1.00012
1.02867
0.985673
0.32898
0.546755
0.585816
0.724083
0.813312
0.895841
0.963761
1.01462
1.01745
1.03081
0.564332
0.710881
0.747052
0.852218
0.909431
0.969709
1.01542
1.04833
1.05774
1.08118
0.746602
0.850684
0.880294
0.950691
0.994959
1.03765
1.07033
1.0949
1.10495
1.13633
0.892633
0.962766
0.993336
1.03753
1.07407
1.10484
1.12957
1.15043
1.16482
1.19296
1.01326
1.06475
1.09046
1.11896
1.14717
1.1713
1.19155
1.21092
1.22598
1.25237
1.11792
1.15535
1.17664
1.19762
1.21883
1.2385
1.25606
1.27427
1.2892
1.31285
1.21237
1.24144
1.25835
1.27389
1.29027
1.30651
1.32216
1.33916
1.35277
1.37508
1.30118
1.32178
1.33679
1.35015
1.36391
1.3778
1.39134
1.40594
1.41747
1.43712
1.38702
1.40295
1.4169
1.42883
1.44083
1.45247
1.46358
1.47525
1.4829
1.49972
1.4726
1.48546
1.49923
1.51088
1.52144
1.53118
1.53994
1.54817
1.55173
1.563
1.56176
1.57278
1.58625
1.59548
1.60291
1.61011
1.61728
1.62379
1.62482
1.63223
1.66024
1.66496
1.67299
1.67747
1.68075
1.68521
1.69121
1.69894
1.70279
1.71267
1.77347
1.7598
1.75237
1.74677
1.74411
1.74551
1.75196
1.76435
1.77914
1.8088
1.89448
1.83873
1.80787
1.79078
1.78262
1.78259
1.79133
1.81089
1.84283
1.91204
)
;

boundaryField
{
    wall-4
    {
        type            zeroGradient;
    }
    pressure-outlet-7
    {
        type            fixedValue;
        value           uniform 0;
    }
    velocity-inlet-6
    {
        type            zeroGradient;
    }
    velocity-inlet-5
    {
        type            zeroGradient;
    }
    frontAndBackPlanes
    {
        type            empty;
    }
}


// ************************************************************************* //
