/*--------------------------------*- C++ -*----------------------------------*\
| =========                 |                                                 |
| \\      /  F ield         | OpenFOAM: The Open Source CFD Toolbox           |
|  \\    /   O peration     | Version:  4.0                                   |
|   \\  /    A nd           | Web:      www.OpenFOAM.org                      |
|    \\/     M anipulation  |                                                 |
\*---------------------------------------------------------------------------*/
FoamFile
{
    version     2.0;
    format      ascii;
    class       surfaceScalarField;
    location    "37";
    object      phi;
}
// * * * * * * * * * * * * * * * * * * * * * * * * * * * * * * * * * * * * * //

dimensions      [0 3 -1 0 0 0 0];

internalField   nonuniform List<scalar> 
4262
(
0.107149
0.470839
0.0955998
0.705136
0.0694521
0.858451
0.0474977
1.02072
0.0311541
1.21486
0.0199161
1.44946
0.0124674
1.73331
0.00726542
2.07624
0.00336966
2.48914
-0.000228489
2.98589
-0.00380098
2.98586
-0.00765721
2.4891
-0.0128147
2.07619
-0.0202088
1.73326
-0.0312657
1.44928
-0.047382
1.21463
-0.0691686
1.02055
-0.0953572
0.858492
-0.107112
0.70534
0.470877
0.112881
0.357958
0.135301
0.682715
0.12037
0.873382
0.0977714
1.04332
0.0745685
1.23806
0.0529134
1.47111
0.0344922
1.75173
0.0202488
2.09048
0.00893903
2.50045
-0.00112817
2.99596
-0.0112039
2.99594
-0.0222933
2.50019
-0.0363064
2.09021
-0.0543988
1.75135
-0.0760197
1.4709
-0.0995785
1.23819
-0.122592
1.04356
-0.136576
0.872475
-0.113413
0.682178
0.357463
0.0920779
0.26588
0.125045
0.649748
0.121206
0.877221
0.104959
1.05956
0.0862527
1.25677
0.0671857
1.49018
0.0484412
1.77048
0.0305734
2.10835
0.0141537
2.51687
-0.00175656
3.01187
-0.0175781
3.01176
-0.0338517
2.51646
-0.0513978
2.10775
-0.0697468
1.7697
-0.0882329
1.48938
-0.105822
1.25578
-0.120473
1.05822
-0.12537
0.877372
-0.0923567
0.649165
0.265106
0.0641048
0.201775
0.105052
0.608801
0.106907
0.875366
0.0955341
1.07094
0.081525
1.27078
0.0667154
1.50499
0.0506181
1.78658
0.0334788
2.12549
0.0158322
2.53452
-0.00275784
3.03046
-0.0210178
3.03002
-0.0379914
2.53344
-0.0543437
2.12411
-0.0698189
1.78517
-0.0839828
1.50355
-0.0977719
1.26957
-0.109408
1.06985
-0.106571
0.874535
-0.0647072
0.607301
0.200399
0.0374639
0.164311
0.080686
0.565579
0.0910244
0.865028
0.0839333
1.07803
0.0715222
1.28319
0.0597757
1.51674
0.0468968
1.79945
0.0321227
2.14026
0.0154216
2.55122
-0.00346544
3.04934
-0.0220883
3.04864
-0.0382554
2.5496
-0.0524654
2.13832
-0.0646827
1.79739
-0.0759549
1.51482
-0.0878868
1.2815
-0.094265
1.07623
-0.0827433
0.863013
-0.0382042
0.562762
0.162195
0.0194923
0.144819
0.0573847
0.527687
0.0729411
0.849472
0.0710004
1.07997
0.0624317
1.29176
0.0517446
1.52742
0.0404549
1.81074
0.0278179
2.1529
0.0127498
2.56628
-0.00491538
3.06701
-0.0222429
3.06597
-0.0364952
2.56386
-0.0480657
2.14989
-0.0583065
1.80763
-0.0680363
1.52455
-0.0756001
1.28907
-0.0765083
1.07714
-0.0596149
0.84612
-0.0202419
0.523389
0.141953
0.0107319
0.134087
0.0426245
0.495794
0.0588749
0.833221
0.0592453
1.0796
0.0532176
1.29779
0.0440571
1.53658
0.0339506
1.82085
0.022739
2.16411
0.00979975
2.57922
-0.00575885
3.08257
-0.0209579
3.08117
-0.0330388
2.57594
-0.0430806
2.15993
-0.0521163
1.81667
-0.0602244
1.53266
-0.065038
1.29388
-0.0633338
1.07543
-0.0452854
0.828071
-0.0115416
0.489645
0.130412
0.00659979
0.127487
0.0330299
0.469364
0.0494177
0.816833
0.0510079
1.07801
0.0459573
1.30284
0.037673
1.54487
0.0282575
1.83027
0.0176681
2.1747
0.00586442
2.59103
-0.0077485
3.09618
-0.0208079
3.09423
-0.0313681
2.5865
-0.0404824
2.16904
-0.0480153
1.8242
-0.0546263
1.53927
-0.058091
1.29734
-0.0548809
1.07222
-0.0363382
0.809529
-0.00762324
0.46093
0.122788
0.00470601
0.122781
0.0265928
0.447477
0.0424889
0.800937
0.0447698
1.07573
0.0403163
1.30729
0.0328986
1.55229
0.0241881
1.83898
0.0142908
2.1846
0.00321496
2.6021
-0.00924276
3.10864
-0.0210441
3.10603
-0.0306652
2.59612
-0.038768
2.17714
-0.0458742
1.83131
-0.0517368
1.54513
-0.0544322
1.30004
-0.0498386
1.06763
-0.0308464
0.790537
-0.00601769
0.436102
0.116771
0.00379213
0.118989
0.0218111
0.429458
0.0371161
0.785632
0.0401451
1.0727
0.0360992
1.31134
0.0290348
1.55935
0.0206647
1.84735
0.0110485
2.19421
0.000186472
2.61297
-0.0118677
3.12069
-0.0230513
3.11722
-0.0319145
2.60498
-0.0392961
2.18453
-0.0453001
1.83731
-0.0499866
1.54982
-0.0515577
1.30161
-0.0456546
1.06173
-0.0267647
0.771647
-0.00533388
0.414671
0.111437
0.00303541
0.115954
0.0174469
0.415047
0.0315655
0.771513
0.0349018
1.06936
0.0312866
1.31495
0.0247468
1.56589
0.0168394
1.85525
0.00754216
2.20351
-0.00299443
2.6235
-0.0145169
3.13222
-0.0251619
3.12786
-0.0334485
2.61327
-0.0398731
2.19095
-0.0449627
1.8424
-0.0487749
1.55363
-0.0493874
1.30222
-0.0422841
1.05462
-0.0235204
0.752883
-0.00494015
0.39609
0.106497
0.00221686
0.113737
0.0131523
0.404111
0.025446
0.75922
0.0289363
1.06587
0.025735
1.31815
0.019591
1.57203
0.0118944
1.86295
0.00293226
2.21247
-0.00719674
2.63363
-0.0180506
3.14307
-0.0276145
3.13742
-0.0349938
2.62065
-0.0405832
2.19654
-0.0448137
1.84663
-0.0473405
1.55616
-0.0467777
1.30166
-0.0387066
1.04655
-0.020612
0.734788
-0.00454736
0.380026
0.101949
0.00138396
0.112353
0.00942452
0.396071
0.0199675
0.748677
0.0227129
1.06312
0.0192963
1.32157
0.0134589
1.57787
0.00629076
1.87012
-0.00212306
2.22089
-0.011662
2.64317
-0.021915
3.15332
-0.0307771
3.14629
-0.0370142
2.62688
-0.0412106
2.20074
-0.0441879
1.84961
-0.0458203
1.55779
-0.0447269
1.30057
-0.0360028
1.03783
-0.0184482
0.717234
-0.00422179
0.365799
0.0977274
0.000708641
0.111644
0.00634016
0.390439
0.0147547
0.740262
0.016959
1.06092
0.013035
1.32549
0.00649826
1.58441
-0.00113349
1.87775
-0.00938292
2.22914
-0.0182933
2.65208
-0.027633
3.16266
-0.0349581
3.15361
-0.0393845
2.63131
-0.0423468
2.2037
-0.0446354
1.8519
-0.0456855
1.55884
-0.043678
1.29856
-0.034105
1.02826
-0.0170825
0.700211
-0.00416178
0.352879
0.0935657
-5.86145e-05
0.111703
0.00269149
0.387689
0.00868489
0.734269
0.00990105
1.0597
0.00575652
1.32964
-0.00094399
1.59111
-0.00870525
1.88551
-0.0170483
2.23748
-0.0254846
2.66052
-0.0335475
3.17073
-0.0394958
3.15956
-0.0428306
2.63465
-0.0447604
2.20563
-0.046367
1.8535
-0.046251
1.55872
-0.0432359
1.29554
-0.0328771
1.0179
-0.0161225
0.683457
-0.00413511
0.340891
0.0894306
-0.00101498
0.112718
-0.000984584
0.387659
0.00279335
0.730491
0.00304737
1.05945
-0.00158538
1.33427
-0.00868542
1.59821
-0.0167884
1.89361
-0.0252541
2.24595
-0.0337623
2.66902
-0.0414865
3.17845
-0.046528
3.1646
-0.04867
2.63679
-0.0494741
2.20643
-0.0493502
1.85338
-0.0477882
1.55716
-0.0432094
1.29096
-0.0315532
1.00624
-0.0151797
0.667083
-0.00405462
0.329766
0.0853759
-0.00224946
0.114967
-0.00447728
0.389887
-0.00462493
0.730639
-0.00580045
1.06063
-0.0104611
1.33893
-0.0174401
1.60519
-0.0256151
1.90179
-0.0345091
2.25484
-0.0436252
2.67814
-0.0513869
3.18621
-0.0555139
3.16873
-0.0563229
2.6376
-0.0552223
2.20533
-0.0531647
1.85132
-0.0500139
1.55401
-0.0437474
1.2847
-0.0310935
0.993586
-0.0148163
0.650806
-0.0040453
0.318995
0.0813306
-0.00352628
0.118494
-0.00856531
0.394926
-0.0117512
0.733824
-0.0149534
1.06383
-0.0206401
1.34462
-0.0283266
1.61287
-0.0370728
1.91054
-0.0464379
2.2642
-0.0554406
2.68714
-0.0626033
3.19337
-0.0657418
3.17187
-0.0650918
2.63695
-0.0623878
2.20263
-0.0589155
1.84785
-0.0541174
1.54921
-0.0456657
1.27625
-0.0314374
0.979358
-0.0150841
0.634453
-0.00427152
0.308183
0.0770591
-0.00512001
0.123614
-0.0139691
0.403775
-0.0211381
0.740993
-0.0268997
1.06959
-0.0333
1.35102
-0.0418235
1.6214
-0.0515586
1.92027
-0.0617007
2.27435
-0.0712211
2.69666
-0.0777793
3.19993
-0.0786205
3.17271
-0.0756494
2.63398
-0.0707778
2.19776
-0.0649057
1.84198
-0.05782
1.54213
-0.0478409
1.26627
-0.0326823
0.9642
-0.0160386
0.617809
-0.00462683
0.296771
0.0724323
-0.00643257
0.130046
-0.0185647
0.415907
-0.029879
0.752308
-0.0384365
1.07815
-0.0470298
1.35961
-0.0573721
1.63174
-0.0685572
1.93146
-0.0799656
2.28576
-0.0894813
2.70618
-0.0945195
3.20497
-0.0936233
3.17181
-0.0889463
2.6293
-0.082078
2.19089
-0.0744716
1.83437
-0.065415
1.53307
-0.0529827
1.25384
-0.0357152
0.946932
-0.0179055
0.599999
-0.00520922
0.284075
0.0672231
-0.00866465
0.138711
-0.0249638
0.432206
-0.041086
0.76843
-0.0532173
1.09028
-0.0636577
1.37005
-0.0757932
1.64388
-0.0890011
1.94466
-0.101824
2.29858
-0.112447
2.7168
-0.11777
3.21029
-0.114831
3.16887
-0.10671
2.62118
-0.0965911
2.18077
-0.0857042
1.82348
-0.0740533
1.52142
-0.0596209
1.2394
-0.0406679
0.927979
-0.0208796
0.580211
-0.00602842
0.269223
0.0611946
-0.0109184
0.149629
-0.0312838
0.452571
-0.0521899
0.789336
-0.0686073
1.1067
-0.0832425
1.38469
-0.0991519
1.65978
-0.114842
1.96035
-0.129386
2.31312
-0.139796
2.72721
-0.142688
3.21319
-0.136335
3.16252
-0.125717
2.61056
-0.113684
2.16874
-0.101436
1.81124
-0.0878682
1.50785
-0.07043
1.22196
-0.047856
0.905405
-0.0246213
0.556976
-0.00700848
0.251611
0.0541862
-0.0155701
0.165199
-0.0429811
0.479982
-0.0699616
0.816317
-0.0914847
1.12822
-0.109954
1.40316
-0.128863
1.67869
-0.147478
1.97897
-0.163358
2.329
-0.173779
2.73763
-0.175587
3.21499
-0.167139
3.15407
-0.152752
2.59617
-0.136383
2.15237
-0.119796
1.79465
-0.102656
1.49071
-0.0821106
1.20142
-0.0561069
0.879401
-0.0289329
0.529802
-0.00808073
0.230759
0.0461054
-0.0194926
0.184692
-0.0550645
0.515554
-0.0908239
0.852076
-0.118722
1.15612
-0.143123
1.42756
-0.167424
1.70299
-0.188686
2.00023
-0.205462
2.34578
-0.214633
2.7468
-0.212317
3.21268
-0.197762
3.13952
-0.178871
2.57728
-0.160139
2.13364
-0.142083
1.77659
-0.12252
1.47115
-0.0973896
1.17629
-0.0656234
0.847635
-0.0330594
0.497238
-0.00884388
0.206543
0.0372616
-0.0326923
0.217384
-0.0804895
0.563352
-0.124852
0.896439
-0.159936
1.1912
-0.190626
1.45825
-0.217828
1.7302
-0.240339
2.02274
-0.256597
2.36204
-0.263675
2.75388
-0.258117
3.20712
-0.240735
3.12214
-0.218825
2.55537
-0.195346
2.11016
-0.171184
1.75243
-0.145489
1.44545
-0.114307
1.14511
-0.0763226
0.809651
-0.0380749
0.45899
-0.00980642
0.178275
0.0274551
-0.0470578
0.264442
-0.118536
0.63483
-0.178035
0.955938
-0.2196
1.23277
-0.254593
1.49324
-0.283729
1.75933
-0.305338
2.04435
-0.318657
2.37535
-0.320757
2.75598
-0.308394
3.19476
-0.283549
3.09729
-0.255102
2.52692
-0.227314
2.08237
-0.201173
1.72629
-0.172107
1.41639
-0.134033
1.10703
-0.0876903
0.763308
-0.0412972
0.412597
-0.00968909
0.146666
0.017766
-0.0330141
0.297456
-0.0934262
0.695242
-0.148257
1.01077
-0.193727
1.27824
-0.235801
1.53531
-0.271551
1.79508
-0.30534
2.07814
-0.335076
2.40509
-0.356398
2.7773
-0.363542
3.2019
-0.352353
3.0861
-0.33035
2.50492
-0.300509
2.05253
-0.260648
1.68643
-0.211995
1.36773
-0.154594
1.04963
-0.0915187
0.700233
-0.0373611
0.35844
-0.00820936
0.117515
0.00955669
-0.0116165
0.309073
-0.043751
0.727376
-0.0825678
1.04959
-0.119895
1.31556
-0.156486
1.57191
-0.190288
1.82888
-0.221521
2.10937
-0.247657
2.43123
-0.264893
2.79454
-0.267019
3.20403
-0.2509
3.06998
-0.22212
2.47614
-0.184171
2.01458
-0.143899
1.64616
-0.10276
1.3266
-0.0612588
1.00813
-0.0263088
0.665283
-0.00585374
0.337985
-0.000333574
0.111995
0.00922311
0.00163815
0.307434
-0.0208346
0.749849
-0.0487707
1.07752
-0.077538
1.34433
-0.10691
1.60128
-0.136249
1.85822
-0.164056
2.13718
-0.187428
2.4546
-0.202574
2.80969
-0.203707
3.20516
-0.18712
3.0534
-0.157359
2.44638
-0.123146
1.98037
-0.0855658
1.60858
-0.0454573
1.28649
-0.0101278
0.9728
0.0105591
0.644597
0.0120906
0.336453
0.00450235
0.119583
0.0137255
0.00216203
0.305272
-0.00922088
0.761232
-0.0295712
1.09787
-0.0532858
1.36805
-0.0776189
1.62561
-0.102228
1.88283
-0.126056
2.16101
-0.146055
2.4746
-0.158094
2.82172
-0.15651
3.20358
-0.138453
3.03534
-0.111562
2.41949
-0.0786234
1.94743
-0.042432
1.57238
-0.0111182
1.25517
0.0114355
0.950247
0.0209043
0.635128
0.0165911
0.340766
0.00575867
0.130415
0.0194841
0.00465997
0.300612
-0.00320746
0.769099
-0.0201777
1.11484
-0.0396123
1.38748
-0.0600402
1.64604
-0.0812718
1.90406
-0.102174
2.18191
-0.120041
2.49247
-0.131461
2.83314
-0.130422
3.20254
-0.113425
3.01834
-0.0872751
2.39334
-0.0580144
1.91817
-0.0286506
1.54302
-0.000593551
1.22712
0.0186499
0.931003
0.0240315
0.629746
0.0170229
0.347775
0.00564095
0.141797
0.0251251
0.00564919
0.294963
0.000352326
0.774396
-0.0147293
1.12992
-0.0323074
1.40506
-0.0503927
1.66412
-0.0690677
1.92274
-0.0875568
2.2004
-0.103475
2.50839
-0.112803
2.84247
-0.110663
3.2004
-0.0956213
3.0033
-0.0737611
2.37148
-0.0473206
1.89173
-0.0197163
1.51542
0.00226785
1.20513
0.0169582
0.916313
0.0210867
0.625618
0.0138301
0.355031
0.00436776
0.15126
0.0294928
0.00392113
0.291042
0.000135237
0.778182
-0.0125755
1.14263
-0.0284182
1.4209
-0.0449898
1.6807
-0.0622074
1.93996
-0.0794857
2.21768
-0.0947953
2.5237
-0.105141
2.85282
-0.105851
3.20111
-0.0915623
2.98901
-0.0691329
2.34905
-0.0453138
1.86791
-0.0233785
1.49348
-0.00232122
1.18408
0.0114583
0.902533
0.0145955
0.62248
0.00978922
0.359838
0.00299775
0.158051
0.0324906
0.00252019
0.288522
-0.00080176
0.781504
-0.0123741
1.15421
-0.0270914
1.43562
-0.0426921
1.6963
-0.0588331
1.9561
-0.0751417
2.23399
-0.0896174
2.53817
-0.0986308
2.86183
-0.0961366
3.19861
-0.083019
2.97589
-0.0651198
2.33115
-0.0453615
1.84815
-0.024531
1.47265
-0.00778585
1.16733
0.00347828
0.891269
0.0074919
0.618467
0.00458706
0.362743
0.00163996
0.160998
0.0341306
-4.82314e-05
0.28857
-0.00345986
0.784916
-0.0137455
1.16449
-0.026838
1.44871
-0.0416732
1.71113
-0.0573245
1.97175
-0.0733188
2.24998
-0.0880938
2.55295
-0.0990497
2.87279
-0.102011
3.20157
-0.0919875
2.96587
-0.0730223
2.31218
-0.0512515
1.82638
-0.0335501
1.45495
-0.0178869
1.15167
-0.00738426
0.880767
-0.00275559
0.613838
-0.00143407
0.361421
-0.00034191
0.159906
0.0337886
-0.000669599
0.28924
-0.00575298
0.789999
-0.0154887
1.17423
-0.0278208
1.46104
-0.0419885
1.7253
-0.0571602
1.98692
-0.0730272
2.26585
-0.0880119
2.56793
-0.0985656
2.88334
-0.0997923
3.2028
-0.089195
2.95527
-0.074548
2.29754
-0.0589489
1.81078
-0.0404643
1.43646
-0.026668
1.13787
-0.0155874
0.869686
-0.00825376
0.606505
-0.00505414
0.358221
-0.00145873
0.156311
0.0323299
-0.00261365
0.291853
-0.00781773
0.795203
-0.016977
1.18339
-0.028685
1.47275
-0.0423853
1.739
-0.0573514
2.00189
-0.0731902
2.28169
-0.0884582
2.5832
-0.100913
2.8958
-0.107175
3.20906
-0.100042
2.94814
-0.0828239
2.28032
-0.0635016
1.79146
-0.0492874
1.42225
-0.0342209
1.1228
-0.0228327
0.858298
-0.0147476
0.59842
-0.00713908
0.350613
-0.00209789
0.151269
0.030232
-0.00391178
0.295765
-0.00954636
0.800838
-0.0186324
1.19247
-0.0300146
1.48413
-0.0431766
1.75216
-0.0577352
2.01644
-0.0736245
2.29757
-0.0896687
2.59924
-0.103233
2.90936
-0.108458
3.21429
-0.10208
2.94176
-0.0902092
2.26845
-0.0748686
1.77612
-0.0563538
1.40374
-0.0418278
1.10828
-0.028849
0.845319
-0.0179852
0.587556
-0.00956181
0.34219
-0.00275116
0.144459
0.0274809
-0.00438503
0.30015
-0.0106638
0.807117
-0.0196635
1.20147
-0.0306744
1.49514
-0.0435224
1.76501
-0.0579978
2.03092
-0.0740892
2.31367
-0.0906203
2.61577
-0.105327
2.92407
-0.115388
3.22435
-0.11472
2.94109
-0.100763
2.25449
-0.080812
1.75616
-0.063994
1.38692
-0.0474034
1.09169
-0.0340447
0.83196
-0.0224118
0.575923
-0.0103417
0.330119
-0.00284554
0.136963
0.0246353
-0.0044954
0.304646
-0.0114422
0.814063
-0.0205958
1.21063
-0.0314577
1.50601
-0.0439848
1.77754
-0.0581585
2.04509
-0.0742298
2.32974
-0.0912723
2.63282
-0.1075
2.94029
-0.119126
3.23598
-0.117768
2.93974
-0.107389
2.24411
-0.0918157
1.74059
-0.0703207
1.36542
-0.0530517
1.07442
-0.0371017
0.81601
-0.0227716
0.561593
-0.0110492
0.318397
-0.00275371
0.128667
0.0218816
-0.00454993
0.309195
-0.011837
0.82135
-0.0208702
1.21966
-0.0314807
1.51662
-0.0438254
1.78988
-0.0579108
2.05918
-0.0740336
2.34586
-0.0916054
2.65039
-0.109136
2.95782
-0.123266
3.25011
-0.127677
2.94415
-0.117881
2.23432
-0.0977682
1.72048
-0.0778408
1.3455
-0.0563114
1.05289
-0.0391582
0.798857
-0.0247255
0.54716
-0.0104147
0.304086
-0.00230885
0.120561
0.0195728
-0.004622
0.313817
-0.0121056
0.828834
-0.0210935
1.22865
-0.0315604
1.52708
-0.0436315
1.80195
-0.0574229
2.07297
-0.0734941
2.36193
-0.0914802
2.66837
-0.110227
2.97657
-0.127013
3.26689
-0.132886
2.95002
-0.125114
2.22655
-0.109989
1.70535
-0.0851935
1.3207
-0.0608851
1.02858
-0.037667
0.775639
-0.0193167
0.52881
-0.00811821
0.292888
-0.00142529
0.113868
0.0181475
-0.00465791
0.318475
-0.0121095
0.836286
-0.0208099
1.23735
-0.0309698
1.53724
-0.0428241
1.81381
-0.0565067
2.08665
-0.0725897
2.37801
-0.0909154
2.6867
-0.110576
2.99623
-0.128642
3.28496
-0.138555
2.95993
-0.134986
2.22298
-0.117085
1.68745
-0.0932913
1.29691
-0.0627733
0.998063
-0.0357793
0.748645
-0.0146716
0.507702
-0.00300338
0.28122
-0.00207131
0.112936
0.0160762
-0.00462391
0.323099
-0.0120041
0.843666
-0.0205342
1.24588
-0.0304681
1.54718
-0.042005
1.82534
-0.0553804
2.10003
-0.0713014
2.39394
-0.0897091
2.70511
-0.11009
3.01661
-0.130915
3.30578
-0.14402
2.97304
-0.143166
2.22212
-0.130528
1.67481
-0.103003
1.26938
-0.0680586
0.963119
-0.0270626
0.707649
0.0104028
0.470237
0.0282771
0.263345
0.0229915
0.118222
0.0390677
-0.00450146
0.327601
-0.0117075
0.850872
-0.0198959
1.25407
-0.0294463
1.55673
-0.0406725
1.83657
-0.0538403
2.1132
-0.0696273
2.40972
-0.0881812
2.72366
-0.109371
3.0378
-0.13116
3.32757
-0.145899
2.98778
-0.15093
2.22715
-0.138558
1.66244
-0.11381
1.24463
-0.0719991
0.921308
-0.0252515
0.660901
0.0249918
0.419993
0.0401655
0.248172
0.0175088
0.140879
0.0565765
-0.00430301
0.331904
-0.0113237
0.857893
-0.0192831
1.26203
-0.0285329
1.56598
-0.0394116
1.84745
-0.0522054
2.12599
-0.0677235
2.42524
-0.0862002
2.74214
-0.107627
3.05923
-0.131265
3.35121
-0.150634
3.00715
-0.157666
2.23419
-0.153453
1.65823
-0.129058
1.22024
-0.087313
0.879563
-0.0165559
0.590144
0.0865073
0.31693
0.177079
0.1576
0.177351
0.140607
0.233927
-0.00415107
0.336055
-0.011051
0.864793
-0.0188733
1.26985
-0.0280523
1.57516
-0.0391141
1.85851
-0.052404
2.13928
-0.0688335
2.44167
-0.0888957
2.7622
-0.113199
3.08353
-0.141406
3.37942
-0.164528
3.03027
-0.179051
2.24871
-0.177432
1.65661
-0.15932
1.20213
-0.114978
0.835221
-0.0653764
0.540543
-0.0968791
0.348433
-0.361606
0.422327
-0.933779
0.71278
0.896778
-1.59663
-0.00394798
0.340003
-0.010643
0.871488
-0.0183173
1.27752
-0.0273906
1.58423
-0.0383339
1.86945
-0.0516633
2.15261
-0.0684273
2.45843
-0.0893364
2.78311
-0.115208
3.1094
-0.146535
3.41074
-0.177002
3.06073
-0.196751
2.26846
-0.211994
1.67185
-0.208305
1.19844
-0.194642
0.821557
-0.276478
0.622379
-0.691048
0.763003
-1.42434
1.15562
-2.03593
1.32437
1.21866
-2.35781
-0.00373796
0.343741
-0.0101622
0.877912
-0.017538
1.2849
-0.0263476
1.59304
-0.0371574
1.88026
-0.0505883
2.16604
-0.067725
2.47557
-0.0894793
2.80486
-0.117375
3.1373
-0.15298
3.44635
-0.18757
3.09532
-0.217743
2.29863
-0.236647
1.69076
-0.239752
1.20154
-0.327233
0.909039
-0.750491
1.04564
-1.52377
1.53628
-2.0994
1.73126
-2.34147
1.56644
1.33408
-2.45689
-0.00351901
0.34726
-0.00959437
0.883987
-0.016736
1.29204
-0.0253796
1.60168
-0.03601
1.89089
-0.0494059
2.17944
-0.0667571
2.49292
-0.0892659
2.82737
-0.118664
3.1667
-0.156943
3.48463
-0.199424
3.13781
-0.234601
2.33381
-0.271912
1.72807
-0.360599
1.29023
-0.695344
1.24378
-1.42332
1.77361
-2.01842
2.13139
-2.26037
1.9732
-2.37493
1.681
1.39971
-2.44056
-0.00325623
0.350516
-0.00895745
0.889688
-0.0157211
1.2988
-0.0240267
1.60999
-0.0345127
1.90138
-0.0479156
2.19284
-0.0655039
2.51051
-0.0886622
2.85053
-0.119782
3.19782
-0.162653
3.5275
-0.210968
3.18612
-0.260303
2.38314
-0.3109
1.77866
-0.489311
1.46864
-1.08371
1.83818
-1.77473
2.46463
-2.10245
2.45911
-2.25318
2.12393
-2.33626
1.76408
1.46557
-2.40213
-0.00315899
0.353675
-0.00873235
0.895262
-0.0155152
1.30559
-0.0239313
1.6184
-0.0346582
1.91211
-0.0482873
2.20647
-0.0663147
2.52854
-0.0903861
2.8746
-0.123053
3.23048
-0.168266
3.57271
-0.223815
3.24167
-0.275653
2.43498
-0.369882
1.87289
-0.751453
1.85021
-1.47877
2.56549
-1.9593
2.94517
-2.16088
2.66069
-2.26807
2.23112
-2.3453
1.84131
1.52984
-2.40956
-0.00323845
0.356913
-0.00908145
0.901105
-0.0161673
1.31267
-0.0249343
1.62717
-0.0361605
1.92333
-0.0504714
2.22078
-0.0693864
2.54745
-0.0946073
2.89982
-0.129261
3.26514
-0.17957
3.62302
-0.239329
3.30143
-0.308207
2.50386
-0.497766
2.06245
-1.03942
2.39186
-1.66795
3.19402
-1.95006
3.22728
-2.09859
2.80922
-2.21353
2.34605
-2.30751
1.93529
1.59235
-2.37002
-0.00324636
0.36016
-0.00933452
0.907193
-0.0168991
1.32024
-0.0262511
1.63652
-0.0380069
1.93509
-0.0529208
2.23569
-0.0726361
2.56717
-0.0991226
2.92631
-0.135551
3.30157
-0.187352
3.67482
-0.252192
3.36627
-0.342978
2.59464
-0.620605
2.34008
-1.25224
3.02349
-1.74778
3.68957
-1.95705
3.43655
-2.09931
2.95149
-2.22458
2.47132
-2.33701
2.04771
1.65169
-2.39634
-0.00321826
0.363378
-0.00962717
0.913602
-0.0175712
1.32818
-0.0273271
1.64628
-0.0396217
1.94738
-0.0552878
2.25136
-0.0759474
2.58783
-0.103575
2.95394
-0.141854
3.33984
-0.198361
3.73133
-0.269233
3.43714
-0.394367
2.71978
-0.771681
2.71739
-1.39942
3.65123
-1.75961
4.04976
-1.9349
3.61183
-2.03921
3.0558
-2.13025
2.56235
-2.19976
2.11722
1.6453
-2.19337
-0.0030953
0.366473
-0.00966417
0.920171
-0.0181606
1.33668
-0.0286156
1.65673
-0.0415399
1.96031
-0.057835
2.26765
-0.0793046
2.6093
-0.108227
2.98286
-0.148275
3.37989
-0.204791
3.78785
-0.284298
3.51665
-0.454225
2.8897
-0.897863
3.16103
-1.45306
4.20643
-1.71972
4.31643
-1.87597
3.76808
-1.97163
3.15146
-1.97578
2.5665
-1.91093
2.05237
1.61677
-1.8824
-0.00281298
0.369286
-0.00977523
0.927133
-0.0186
1.3455
-0.0293476
1.66748
-0.042682
1.97364
-0.0594832
2.28446
-0.0814061
2.63122
-0.110533
3.01199
-0.150743
3.4201
-0.20841
3.84551
-0.296155
3.60439
-0.497035
3.09058
-0.974355
3.63835
-1.42074
4.65281
-1.5923
4.48799
-1.66181
3.83759
-1.66864
3.1583
-1.52352
2.42138
-1.02546
1.55431
0.591318
-0.00240183
0.371688
-0.00934638
0.934077
-0.0187654
1.35492
-0.0304384
1.67915
-0.0448127
1.98802
-0.0627912
2.30243
-0.0864215
2.65485
-0.118253
3.04382
-0.162518
3.46437
-0.224744
3.90774
-0.326967
3.70662
-0.578098
3.34172
-1.10836
4.16861
-1.47395
5.0184
-1.57585
4.58989
-1.57617
3.83791
-1.47616
3.05829
-1.23861
2.18383
-0.641341
0.957039
-0.0500229
-0.00194324
0.373631
-0.00898836
0.941123
-0.0186924
1.36463
-0.030821
1.69128
-0.0460332
2.00323
-0.0653912
2.32179
-0.0908887
2.68035
-0.125101
3.07803
-0.173106
3.51237
-0.24342
3.97805
-0.366582
3.82978
-0.671756
3.64689
-1.22244
4.71929
-1.49263
5.2886
-1.55516
4.65242
-1.53627
3.81902
-1.33639
2.8584
-0.794265
1.6417
-0.114182
0.276957
-0.164205
-0.0012068
0.374838
-0.00770343
0.947619
-0.0178376
1.37476
-0.030932
1.70438
-0.0471264
2.01942
-0.0675663
2.34223
-0.0947095
2.70749
-0.131714
3.11504
-0.183446
3.5641
-0.25949
4.0541
-0.403546
3.97383
-0.765751
4.0091
-1.30164
5.25519
-1.48571
5.47267
-1.51672
4.68343
-1.43356
3.73586
-1.11263
2.53748
-0.324191
0.853261
0.0285788
-0.0758129
-0.135626
-0.000427292
0.375265
-0.00631143
0.953503
-0.0165122
1.38496
-0.0298944
1.71776
-0.0467008
2.03623
-0.0684267
2.36396
-0.0973199
2.73638
-0.136323
3.15404
-0.190675
3.61846
-0.276045
4.13947
-0.44833
4.14612
-0.869159
4.42992
-1.34315
5.72918
-1.46465
5.59417
-1.47169
4.69046
-1.26089
3.52506
-0.706652
1.98324
-0.0666449
0.213254
0.0327367
-0.175195
-0.102889
0.00138449
0.373881
-0.0030668
0.957955
-0.0135852
1.39548
-0.0280147
1.73219
-0.0455345
2.05375
-0.0681047
2.38653
-0.0982476
2.76653
-0.139448
3.19524
-0.196373
3.67538
-0.289449
4.23254
-0.484029
4.3407
-0.952447
4.89834
-1.33859
6.11532
-1.40944
5.66502
-1.37166
4.65268
-1.08457
3.23797
-0.343898
1.24257
-0.0050689
-0.125575
0.011177
-0.19144
-0.0917123
0.00325082
0.37063
0.000591515
0.960614
-0.0100315
1.4061
-0.0242426
1.7464
-0.0418452
2.07135
-0.0654341
2.41012
-0.0968423
2.79794
-0.139176
3.23757
-0.198474
3.73468
-0.299255
4.33332
-0.518535
4.55998
-1.01376
5.39356
-1.29864
6.4002
-1.33885
5.70523
-1.21721
4.53104
-0.803038
2.8238
-0.0905407
0.530075
0.0448947
-0.261011
0.0258439
-0.17239
-0.0658685
0.00562732
0.365003
0.00460784
0.961633
-0.00449449
1.4152
-0.0185906
1.7605
-0.0365261
2.08929
-0.0604035
2.43399
-0.0921659
2.8297
-0.135675
3.28108
-0.196511
3.79552
-0.30358
4.44039
-0.544512
4.80091
-1.02529
5.87434
-1.22527
6.60019
-1.24463
5.72459
-1.04263
4.32904
-0.481325
2.26249
0.00190647
0.0468433
0.0144869
-0.273591
0.0163148
-0.174218
-0.0495536
0.00840711
0.356596
0.0100248
0.960016
0.00304807
1.42218
-0.00963222
1.77318
-0.0273688
2.10702
-0.0514004
2.45803
-0.0833354
2.86163
-0.126324
3.32407
-0.187976
3.85717
-0.30015
4.55257
-0.558356
5.05912
-1.00323
6.31921
-1.1352
6.73216
-1.11985
5.70924
-0.87834
4.08753
-0.295356
1.67951
-0.064978
-0.183535
-0.038016
-0.300553
-0.010567
-0.201667
-0.0601206
0.0125523
0.344043
0.0185289
0.954039
0.0140103
1.4267
0.00277629
1.78441
-0.0154691
2.12527
-0.0383727
2.48093
-0.0687877
2.89205
-0.111005
3.36629
-0.171367
3.91753
-0.284621
4.66582
-0.5432
5.3177
-0.923316
6.69933
-1.00058
6.80942
-0.95558
5.66424
-0.702357
3.83431
-0.144611
1.12176
-0.0735355
-0.25461
-0.0447431
-0.329346
-0.0163894
-0.23002
-0.07651
0.0178248
0.326219
0.029228
0.942636
0.0279393
1.42799
0.0182978
1.79405
0.00243263
2.14113
-0.0182777
2.50164
-0.0470568
2.92083
-0.0864356
3.40567
-0.143743
3.97484
-0.25472
4.7768
-0.495575
5.55855
-0.803324
7.00708
-0.86025
6.86635
-0.776532
5.58052
-0.469577
3.52735
-0.0161081
0.668292
0.00696295
-0.277682
0.00245382
-0.324836
0.00339573
-0.230962
-0.0731143
0.024625
0.301594
0.0436749
0.923586
0.0472914
1.42437
0.0400503
1.80129
0.0274156
2.15377
0.00889387
2.52016
-0.0166985
2.94642
-0.0517516
3.44072
-0.103308
4.02639
-0.202991
4.87648
-0.404744
5.76031
-0.619052
7.22139
-0.672003
6.9193
-0.579911
5.48843
-0.232922
3.18036
0.0850226
0.350347
0.0580301
-0.250689
0.0520752
-0.318881
0.0477262
-0.226613
-0.025388
0.0329379
0.268656
0.0616968
0.894827
0.0720706
1.414
0.0700701
1.80329
0.061542
2.1623
0.0461647
2.53554
0.0249979
2.96759
-0.0043604
3.47008
-0.0479222
4.06995
-0.124207
4.95277
-0.279817
5.91592
-0.411389
7.35296
-0.466966
6.97487
-0.466884
5.48835
-0.275992
2.98947
-0.200273
0.274629
-0.172674
-0.278288
-0.0750281
-0.416528
0.0219061
-0.323547
-0.00348195
0.0423725
0.226283
0.0841515
0.853048
0.104038
1.39411
0.107692
1.79964
0.103644
2.16635
0.0932948
2.54589
0.0792932
2.98159
0.0588198
3.49055
0.0276113
4.10116
-0.00989147
4.99027
-0.0860024
5.99203
-0.159039
7.426
-0.233581
7.04942
-0.352365
5.60713
-0.433514
3.07062
-0.665953
0.507068
-0.65596
-0.288281
-0.460071
-0.612417
-0.220392
-0.563226
-0.223874
0.0523011
0.173982
0.110928
0.794421
0.144195
1.36084
0.156511
1.78732
0.15941
2.16345
0.154488
2.55081
0.148239
2.98784
0.139616
3.49917
0.129643
4.11114
0.11886
5.00105
0.155644
5.95524
0.192117
7.38952
0.155412
7.08612
0.0262403
5.7363
-0.295095
3.39195
-0.724773
0.936747
-0.806347
-0.206708
-0.62745
-0.791314
-0.351782
-0.838893
-0.575656
0.0563702
0.117612
0.138992
0.7118
0.191194
1.30864
0.21532
1.7632
0.226474
2.15229
0.229582
2.5477
0.233276
2.98414
0.238589
3.49386
0.253976
4.09575
0.28524
4.96979
0.44447
5.79601
0.663337
7.17066
0.824505
6.92495
0.954934
5.60587
0.66147
3.68542
0.0831454
1.51507
-0.323631
0.200069
-0.476483
-0.638462
-0.288075
-1.0273
-0.863731
0.050483
0.067129
0.166145
0.596138
0.24754
1.22725
0.28775
1.72299
0.309367
2.13068
0.321784
2.53528
0.334938
2.97099
0.355807
3.47299
0.398969
4.05259
0.49208
4.87668
0.78686
5.50123
1.34067
6.61684
1.75233
6.51329
2.08284
5.27537
1.96746
3.80079
1.38296
2.09958
0.847754
0.735273
0.336145
-0.126853
0.0926856
-0.783842
-0.771045
0.0373161
0.0298129
0.193419
0.440035
0.306351
1.11431
0.371577
1.65776
0.406472
2.09578
0.431112
2.51064
0.452852
2.94925
0.487718
3.43813
0.556693
3.98361
0.703729
4.72964
1.10249
5.10247
1.82609
5.89325
2.23838
6.101
2.47033
5.04342
2.428
3.84312
1.98289
2.54468
1.46306
1.2551
0.977472
0.358738
0.396536
-0.202907
-0.374509
0.0303674
-0.00055451
0.213773
0.256629
0.378739
0.949349
0.4707
1.5658
0.518709
2.04777
0.555596
2.47376
0.584888
2.91996
0.630797
3.39222
0.708858
3.90555
0.865735
4.57276
1.21606
4.75215
1.94421
5.1651
2.33182
5.71339
2.53469
4.84055
2.51476
3.86305
2.1816
2.87784
1.60016
1.83655
0.994072
0.964825
0.412742
0.378423
0.0382325
0.0279267
-0.0284812
0.188842
0.0957135
0.434191
0.704
0.579485
1.42051
0.648454
1.9788
0.693566
2.42865
0.72853
2.88499
0.768295
3.35245
0.827283
3.84656
0.946261
4.45378
1.15014
4.54827
1.72103
4.5942
2.10765
5.32678
2.17698
4.77122
2.10288
3.93714
1.85238
3.12834
1.38893
2.3
0.874812
1.47894
0.37833
0.874905
0.416563
0.0220762
-0.0505574
0.119277
-0.00148731
0.391354
0.431923
0.571977
1.23988
0.653528
1.89725
0.681697
2.40048
0.69266
2.87403
0.684186
3.36093
0.67425
3.8565
0.679079
4.44896
0.726952
4.5004
0.945553
4.3756
1.17971
5.09262
1.1744
4.77653
1.09611
4.01543
0.955414
3.26904
0.726848
2.52857
0.445818
1.75997
0.178544
1.14218
0.595106
0.0138486
-0.064406
0.0651165
-0.0527552
0.243126
0.253913
0.403327
1.07968
0.487688
1.81289
0.519119
2.36905
0.537461
2.85569
0.535506
3.36288
0.531013
3.86099
0.526906
4.45306
0.53561
4.4917
0.666544
4.24467
0.842879
4.91628
0.848686
4.77073
0.774805
4.08931
0.660996
3.38285
0.499646
2.68992
0.298248
1.96137
0.110064
1.33036
0.705171
0.0246858
-0.0890918
0.0591603
-0.0872297
0.125223
0.18785
0.237356
0.967549
0.31302
1.73723
0.354772
2.32729
0.381276
2.82918
0.395802
3.34835
0.403637
3.85316
0.401823
4.45488
0.390751
4.50277
0.455502
4.17992
0.579547
4.79224
0.584432
4.76584
0.518742
4.155
0.429629
3.47196
0.315745
2.8038
0.177264
2.09985
0.0520883
1.45554
0.757259
0.0229411
-0.112033
0.0350855
-0.0993741
0.0239761
0.19896
0.0764635
0.915062
0.139731
1.67396
0.194078
2.27295
0.234434
2.78883
0.265419
3.31737
0.284989
3.83359
0.289327
4.45054
0.276468
4.51563
0.304346
4.15204
0.383172
4.71341
0.383347
4.76567
0.33317
4.20518
0.262199
3.54293
0.176569
2.88943
0.078168
2.19825
-0.000153314
1.53386
0.757106
0.00454511
-0.116578
-0.0183665
-0.0764625
-0.0645678
0.245161
-0.0653881
0.915882
-0.0167785
1.62535
0.0420004
2.21417
0.0973769
2.73345
0.143278
3.27147
0.176088
3.80078
0.19331
4.43332
0.185797