/*--------------------------------*- C++ -*----------------------------------*\
| =========                 |                                                 |
| \\      /  F ield         | OpenFOAM: The Open Source CFD Toolbox           |
|  \\    /   O peration     | Version:  4.0                                   |
|   \\  /    A nd           | Web:      www.OpenFOAM.org                      |
|    \\/     M anipulation  |                                                 |
\*---------------------------------------------------------------------------*/
FoamFile
{
    version     2.0;
    format      ascii;
    class       volScalarField;
    location    "13";
    object      p;
}
// * * * * * * * * * * * * * * * * * * * * * * * * * * * * * * * * * * * * * //

dimensions      [0 2 -2 0 0 0 0];

internalField   nonuniform List<scalar> 
918
(
0.233628
0.926797
0.00680588
0.233128
0.000334083
0.893934
-0.824945
0.421223
0.213615
-0.139145
0.0191746
0.204999
0.754516
0.521834
-1.45751
0.0143639
0.372433
-0.665847
0.212097
0.00620988
0.496218
0.220278
0.223346
0.21404
0.26926
0.512581
0.635203
0.00127924
-0.00294459
-0.0020416
0.00366569
-0.00223648
0.00319235
0.777555
0.828669
0.851325
0.182717
0.0103466
-0.670897
-0.753534
-0.731181
-0.871183
0.407406
0.412674
-0.486231
0.419344
0.433672
0.201719
0.212987
0.214029
0.214916
0.214101
0.215382
0.284041
-0.16596
-0.229648
-0.0803306
-0.0600396
0.0767899
0.0204975
0.0158759
0.0213091
0.0225248
0.143391
0.201759
0.197723
0.209149
0.218723
0.866348
0.838221
0.864359
0.778194
0.794641
0.732444
0.704908
0.541435
0.562949
0.50797
0.495418
-1.90092
-2.87724
-0.855248
-0.593907
0.00152669
0.0210973
0.0262763
0.352167
0.360388
0.364971
0.377184
0.777472
-0.643605
-0.778842
0.211822
0.210574
0.220209
0.220993
0.217034
0.216258
0.0136008
0.0209688
-0.00335338
0.00557743
0.00347895
0.475271
0.469401
0.214791
0.211734
0.225979
0.250116
0.237593
-0.0140046
0.284749
0.312622
0.315139
0.491983
0.491543
0.498529
0.60881
0.571682
0.672448
0.695752
0.00678392
0.00164776
0.0110205
0.00723464
0.0106776
0.180381
0.175312
0.1939
0.184446
0.187751
-0.0701696
-0.199408
0.0889614
0.115961
-0.583469
-0.660538
-0.735862
-0.761452
-0.8553
0.174492
0.395438
0.398392
-0.50169
-0.413047
-0.569268
-0.337519
-0.413096
0.190514
0.199003
0.193527
0.208518
0.20355
0.204486
0.21729
0.21449
0.21597
0.308739
0.37642
0.245699
0.223006
-0.456326
-0.297206
-0.438765
-0.031414
-0.0210828
0.0865503
0.0998273
0.0667321
0.0650127
-0.003452
0.0136204
0.000232156
0.0243496
0.0265982
0.137451
0.127786
0.152025
0.159073
0.192837
0.193337
0.196127
0.196682
0.655623
0.677964
0.68551
0.659116
-3.89106
-6.7131
-0.257772
-0.113048
0.00240936
0.00292834
0.00144999
0.00436318
0.00347647
0.00107623
0.0407181
0.0380113
0.0297976
0.0343339
0.340459
0.345769
0.747578
0.816515
0.683201
0.696933
0.199779
0.203024
0.207721
0.203492
0.0264902
0.0226456
0.0270337
0.434075
0.452838
0.455136
-0.0479833
-0.135814
0.0340153
0.0609181
0.329517
0.313297
0.334392
0.380604
0.417882
0.702923
0.721331
0.719784
0.728282
0.772161
0.788476
0.75382
0.164274
0.173392
0.169192
0.199024
0.195378
0.196438
0.191892
0.194962
0.192825
-0.351698
-0.732887
0.21519
0.207172
0.159619
0.174418
0.24031
0.3318
0.373846
0.383624
0.390697
-0.271855
-0.341
0.187283
0.171719
0.0865045
0.114552
0.0995863
0.626801
0.586988
0.637016
0.61049
0.571882
0.59838
-0.682075
-2.21755
-1.31139
0.254677
0.0582071
0.150873
0.0567651
0.0448216
0.0481022
0.736417
0.769587
0.422485
0.567785
0.53266
0.457003
0.488995
0.54531
0.4689
0.504942
0.541398
0.521221
0.143839
0.217674
0.141606
0.419694
0.505122
-0.160319
-0.206189
-0.268256
0.11096
0.143829
0.127229
0.661043
0.565836
0.639963
0.211546
0.211988
0.0110269
0.0183678
0.216023
0.216317
0.00751586
0.00825281
0.129514
-1.16777
-0.16911
0.20406
0.194519
0.211485
-0.139205
0.299057
0.0190807
0.0878831
0.0587972
0.201402
0.153844
0.11803
0.00721788
0.0196579
0.0147467
-0.433042
0.209023
0.207121
0.211046
0.212208
0.213022
0.00916015
0.0101187
0.0073853
0.0121366
0.0103329
0.00969575
0.180518
0.191358
-0.484208
0.211333
0.21342
0.213366
0.206827
0.211942
0.209996
0.0154233
0.0106992
0.010522
-0.062652
0.0538672
0.389755
0.50257
0.337686
0.110475
-0.134911
0.284607
0.354491
0.249651
0.419958
0.376973
0.402734
-0.113057
-0.259009
-0.0983755
-0.151617
0.202063
0.201179
0.19347
0.189792
0.206813
0.205206
0.209177
0.207065
0.209475
0.210415
-0.0798138
-0.0644916
-0.181728
-0.247931
0.326354
0.40563
0.207931
0.241762
0.139606
0.0229235
0.0226485
0.0187631
0.0167022
0.0525306
0.0627455
0.0779479
0.0681946
0.0482709
0.046049
0.0512174
0.0568539
0.0612645
0.196284
0.196396
0.200775
0.207882
0.160709
0.164543
0.135808
0.151534
0.142473
0.0861186
0.117736
0.0972402
0.00850479
0.00954685
0.0080473
0.0236774
0.0280189
0.0150869
0.0130002
0.0130687
0.0108563
0.0114856
0.0188257
0.0219278
-0.447194
-0.541751
0.749877
0.635068
-0.456002
0.197855
0.204024
0.201317
0.20641
0.20909
0.20956
0.207594
0.204985
0.192325
0.193587
0.190281
0.190945
-0.424393
-0.570037
-0.389871
-0.449567
-0.173231
0.316461
0.0658072
0.00496069
0.00198477
0.213782
0.590134
0.406399
0.455543
0.475163
-0.669897
-0.265504
-0.59947
0.0161285
-0.163737
0.390143
0.442514
0.465103
0.411147
0.359125
-0.423115
0.197075
-0.361367
-0.330436
-0.144813
-0.227878
0.426927
0.361255
0.36698
0.38994
0.414023
0.364399
0.34612
0.34237
0.381834
0.386702
0.178307
-0.0247067
-0.0732976
-0.106762
0.341382
0.221418
0.275997
0.196527
0.196418
0.19944
0.198521
0.183473
0.189066
0.184368
0.190059
0.192053
0.202549
0.202183
0.197967
0.200413
-0.036248
-0.0233995
-0.14901
-0.362723
-0.250223
-0.34843
-0.222426
0.0169126
0.0436141
-0.136152
0.134655
-0.118092
-0.41987
-0.301914
-0.490831
-0.166397
-0.287043
0.0934877
0.148708
0.159554
0.137074
0.201437
0.185608
0.0378032
0.0460066
0.029178
0.0285016
0.0919273
0.111842
0.108999
0.0467557
0.0489718
0.0253463
0.0263245
0.0633724
0.0394242
0.0503029
0.0619794
0.0210877
0.0238686
0.0285906
0.0377687
0.0378359
0.0404812
0.191509
0.193767
0.192157
0.203914
0.215313
0.228829
0.199561
0.177545
0.170252
0.173942
0.151128
0.157478
0.156329
0.164929
0.183117
0.188973
0.188333
0.189953
0.176288
0.177976
0.165154
0.168833
0.152685
0.136582
0.124594
0.0183441
0.0115009
0.0151648
0.0155443
0.0106239
0.0127068
0.0417463
0.0331992
0.0371259
0.0326814
0.0367615
0.0169952
0.0179818
-0.55555
-0.571862
-0.519413
-0.562462
-0.583824
0.662232
0.702497
0.586772
0.290264
0.278257
0.548523
0.716104
0.381894
0.459757
0.483818
0.113781
0.415688
0.204699
0.203395
0.200323
0.200776
0.202853
-0.318935
-0.222159
-0.223606
-0.176358
-0.0379944
0.0650997
0.135615
-0.190807
-0.0447415
0.01168
0.309903
0.326443
0.272514
0.297111
0.295378
0.129492
0.200218
0.246294
0.212755
0.250652
0.269438
0.23209
0.261004
0.214713
0.175673
0.176088
0.123418
0.139425
0.120758
0.105015
0.192949
0.173048
0.182407
0.175384
0.193411
0.225031
0.216629
0.238534
0.254974
0.183428
0.146113
0.154438
0.182729
0.143628
0.15489
0.16973
-0.0895846
-0.185472
-0.1359
-0.439362
-0.326841
-0.338883
-0.386909
-0.367379
-0.0881838
-0.788679
-0.736634
-1.37424
0.131093
0.624369
0.38388
0.351906
0.410888
0.384775
0.383323
0.421838
0.428363
0.333347
0.352287
0.354532
0.305871
0.332361
0.361322
0.358123
0.174909
0.0686438
0.0583875
0.0277823
-0.0983638
-0.0699743
0.142209
0.0655245
-0.00948608
-3.80383e-05
0.160704
0.0614173
0.119094
0.155678
0.0880067
0.0472604
0.236573
0.302021
0.297466
0.265147
0.187485
0.199818
0.223594
0.255038
0.283497
0.320498
0.191008
0.195396
0.197268
0.195304
0.191263
0.19437
0.193768
0.195981
0.196392
0.198995
0.198138
0.0149719
0.0180402
-0.00368893
0.00453835
-0.0159852
-0.0457156
-0.00309013
-0.0617344
0.0285386
0.0220192
-0.0102661
-0.0110376
-0.00147756
0.012272
0.116211
0.131301
0.115084
0.0662741
0.0293273
0.285294
0.240358
0.176295
0.0810674
0.157919
0.254453
0.0724394
0.0828685
0.0709868
0.0905035
0.0856292
0.0318264
0.0282507
0.0315494
0.041216
0.0377506
0.0287023
0.0236192
0.0253975
0.0276961
0.0268772
0.0266732
0.177125
0.173283
0.175433
0.16931
0.167967
0.180421
0.183272
0.184566
0.189164
0.190749
0.182943
0.186376
0.189748
0.0277995
0.0215532
0.023535
0.0238692
0.0232742
0.0203509
0.0208072
-0.50585
-0.575606
-0.882793
-0.491751
-0.514475
-0.518691
0.188394
0.0329028
0.184963
0.286186
0.176163
0.0962287
0.142508
0.219699
-0.0533124
0.0376324
-0.109936
0.571285
0.390456
0.553208
0.0788867
-0.106998
0.0264303
0.0859551
-0.0990598
-0.0433553
-0.00174215
-0.110743
-0.0824426
-0.0541866
0.0418588
-0.0408615
-0.0597068
-0.237439
-0.019799
-0.0156173
-0.0436035
0.0891247
0.154177
0.0313352
-0.114834
-0.169254
0.300192
0.319141
0.334208
0.310372
0.328625
0.258078
0.247803
0.267153
0.277061
0.270973
-1.11615
-0.835739
-1.76248
-1.07084
-0.654387
0.155506
0.116935
0.39636
0.299906
0.385312
0.367547
0.333979
0.298272
0.299629
0.337769
0.0566362
0.160197
0.135015
0.140646
0.0477647
-0.0129636
0.267736
0.264617
0.300694
0.325371
0.290584
0.32779
0.187943
0.187317
0.188421
0.18499
0.181202
0.183029
0.0796288
0.0642587
0.0645321
0.0481875
0.0428738
0.0529457
0.0321088
0.0287943
0.02589
0.0263771
0.0298596
0.0337376
-0.177932
-0.340672
-0.439
-0.476156
-0.33582
-0.436739
-0.42863
-0.391902
-0.262874
-0.264936
-0.0432999
0.246186
-0.0169872
0.241498
-0.0772576
0.118267
0.216855
0.181871
0.222939
0.0834426
0.180894
-0.200216
-0.645208
-0.566869
0.424009
0.434222
0.206257
-0.00601158
-0.213515
0.00380264
0.21133
0.154721
0.195958
0.261397
0.259243
-0.357077
-0.276474
-0.0969999
0.147447
-0.149155
-0.146907
-0.160484
0.00121233
-0.0680672
)
;

boundaryField
{
    wall-4
    {
        type            zeroGradient;
    }
    velocity-inlet-5
    {
        type            zeroGradient;
    }
    velocity-inlet-6
    {
        type            zeroGradient;
    }
    pressure-outlet-7
    {
        type            fixedValue;
        value           uniform 0;
    }
    wall-8
    {
        type            zeroGradient;
    }
    frontAndBackPlanes
    {
        type            empty;
    }
}


// ************************************************************************* //
