/*--------------------------------*- C++ -*----------------------------------*\
| =========                 |                                                 |
| \\      /  F ield         | OpenFOAM: The Open Source CFD Toolbox           |
|  \\    /   O peration     | Version:  4.0                                   |
|   \\  /    A nd           | Web:      www.OpenFOAM.org                      |
|    \\/     M anipulation  |                                                 |
\*---------------------------------------------------------------------------*/
FoamFile
{
    version     2.0;
    format      ascii;
    class       volScalarField;
    location    "57";
    object      p;
}
// * * * * * * * * * * * * * * * * * * * * * * * * * * * * * * * * * * * * * //

dimensions      [0 2 -2 0 0 0 0];

internalField   nonuniform List<scalar> 
2200
(
0.77291
0.751411
0.735503
0.719835
0.705228
0.692709
0.682356
0.674258
0.668559
0.665621
0.666107
0.669927
0.676278
0.68484
0.695528
0.708296
0.723087
0.739011
0.755052
0.776551
0.705322
0.702063
0.699141
0.695027
0.689566
0.683096
0.676485
0.670536
0.666035
0.663651
0.664138
0.667452
0.672643
0.679109
0.686094
0.692851
0.698515
0.702613
0.705466
0.708826
0.665414
0.665635
0.66769
0.66903
0.669419
0.668569
0.666588
0.663918
0.661388
0.659912
0.660489
0.66295
0.66623
0.669452
0.671787
0.672785
0.672512
0.671516
0.669873
0.669625
0.642899
0.644348
0.64695
0.649411
0.65186
0.653883
0.65504
0.655276
0.654911
0.654635
0.655292
0.656679
0.657886
0.65828
0.657606
0.655937
0.653777
0.651575
0.648959
0.647554
0.628543
0.630515
0.633338
0.63618
0.639043
0.64188
0.644349
0.64622
0.647459
0.64827
0.649011
0.649496
0.649266
0.648166
0.646308
0.643942
0.641401
0.638678
0.63588
0.633956
0.621217
0.622816
0.625019
0.627547
0.630211
0.632881
0.635477
0.637908
0.639936
0.64146
0.642342
0.642388
0.641569
0.640068
0.638178
0.636035
0.633705
0.631363
0.629267
0.627692
0.61778
0.618803
0.620071
0.621934
0.624081
0.626255
0.628453
0.630748
0.632979
0.634847
0.635889
0.635911
0.635157
0.633963
0.632585
0.631043
0.629355
0.627782
0.626667
0.62565
0.615102
0.615771
0.616404
0.61771
0.619331
0.621025
0.622788
0.624729
0.626813
0.62879
0.630069
0.630397
0.630086
0.629479
0.628708
0.627767
0.626725
0.625803
0.625356
0.624678
0.611859
0.612305
0.612702
0.613699
0.614963
0.616351
0.617856
0.619535
0.621409
0.6234
0.624941
0.625758
0.626036
0.625996
0.625721
0.625254
0.624672
0.62414
0.623953
0.62349
0.60779
0.608088
0.608446
0.609317
0.610433
0.611714
0.613158
0.614778
0.616601
0.618645
0.620538
0.621877
0.622672
0.623066
0.623163
0.623031
0.622742
0.622421
0.622294
0.62197
0.603057
0.603258
0.60363
0.604461
0.605554
0.606862
0.608393
0.610145
0.612127
0.614389
0.616703
0.618558
0.619793
0.620529
0.620874
0.620972
0.620858
0.620679
0.620574
0.620336
0.597843
0.597989
0.598361
0.599174
0.600326
0.601766
0.603487
0.605492
0.60782
0.610529
0.613351
0.61569
0.617298
0.618296
0.618866
0.619129
0.619204
0.619173
0.6191
0.618911
0.592224
0.592334
0.592714
0.593537
0.594763
0.596366
0.598339
0.600689
0.603465
0.606731
0.610192
0.613061
0.615079
0.616416
0.617243
0.61773
0.618019
0.618117
0.618084
0.617917
0.586198
0.586268
0.586649
0.587497
0.588832
0.590613
0.592847
0.595584
0.598927
0.602915
0.60712
0.610666
0.613172
0.614906
0.616107
0.616894
0.617397
0.617629
0.61764
0.617484
0.579622
0.579661
0.580081
0.580989
0.58247
0.584466
0.587008
0.590207
0.594211
0.599063
0.604192
0.608483
0.61164
0.613917
0.615562
0.616709
0.617463
0.617848
0.617904
0.617749
0.572483
0.572449
0.572868
0.573872
0.575568
0.577836
0.58074
0.584463
0.58921
0.595053
0.601296
0.606578
0.610539
0.613489
0.615675
0.617232
0.618269
0.618816
0.618922
0.618763
0.564412
0.564396
0.564859
0.565976
0.567912
0.570492
0.573855
0.578217
0.58382
0.590804
0.598372
0.604943
0.609956
0.613694
0.616492
0.618541
0.619904
0.620617
0.620779
0.620612
0.555302
0.555327
0.55576
0.556989
0.559214
0.562213
0.566188
0.571366
0.578051
0.586481
0.595699
0.603712
0.609909
0.614623
0.618169
0.620732
0.622461
0.623354
0.623569
0.623386
0.5447
0.544678
0.545223
0.546679
0.549299
0.552903
0.55771
0.563991
0.572093
0.582289
0.593427
0.603112
0.610625
0.616383
0.620717
0.623906
0.626048
0.627119
0.627384
0.627182
0.532157
0.532091
0.532765
0.534597
0.537763
0.542164
0.54808
0.555781
0.56568
0.578053
0.591512
0.603183
0.612176
0.619079
0.624303
0.628166
0.630749
0.63201
0.632316
0.632087
0.517355
0.51725
0.518023
0.520237
0.524149
0.529623
0.536982
0.546571
0.558834
0.573946
0.59005
0.603914
0.614594
0.622771
0.628987
0.633613
0.636651
0.638079
0.638414
0.638154
0.499271
0.499187
0.500189
0.502949
0.507841
0.514761
0.52408
0.536159
0.551403
0.569791
0.589009
0.605323
0.617829
0.627446
0.634806
0.640245
0.64377
0.645369
0.645712
0.645419
0.476933
0.47679
0.478095
0.481681
0.488081
0.497156
0.509223
0.52462
0.543561
0.565816
0.588562
0.607578
0.62211
0.633266
0.641799
0.648127
0.652114
0.653841
0.654167
0.653839
0.448065
0.448078
0.450169
0.455254
0.463999
0.476238
0.492117
0.511708
0.534997
0.561676
0.588439
0.610613
0.627399
0.640212
0.650027
0.657174
0.661548
0.663374
0.663652
0.663288
0.409989
0.410228
0.413738
0.421647
0.434348
0.451456
0.472548
0.497477
0.52606
0.557869
0.58909
0.614479
0.633595
0.648199
0.659305
0.667324
0.672003
0.673822
0.674016
0.673631
0.359308
0.359685
0.366633
0.379826
0.398936
0.423181
0.451297
0.482932
0.517817
0.555353
0.591093
0.619738
0.641152
0.657445
0.669862
0.678528
0.683179
0.684693
0.684719
0.684385
0.292602
0.295404
0.310437
0.331802
0.359836
0.393049
0.429356
0.468464
0.510227
0.554106
0.595027
0.6274
0.651575
0.670068
0.683888
0.69335
0.697969
0.699082
0.699029
0.698851
0.216784
0.226217
0.251296
0.282479
0.320656
0.362978
0.407522
0.454404
0.503575
0.554333
0.601122
0.637856
0.66545
0.686329
0.702076
0.712386
0.716854
0.717511
0.71747
0.717414
0.148994
0.163641
0.195001
0.235091
0.282836
0.333972
0.386576
0.441136
0.497457
0.554719
0.60687
0.648192
0.679077
0.702389
0.719655
0.730693
0.735197
0.735549
0.735673
0.735668
0.0973914
0.110514
0.147098
0.193262
0.248319
0.306931
0.366859
0.428555
0.491604
0.555336
0.613267
0.658673
0.692203
0.717589
0.736176
0.748038
0.752721
0.753789
0.753965
0.753977
0.0546831
0.0670906
0.107426
0.157496
0.218012
0.282583
0.348902
0.417127
0.486701
0.55682
0.620131
0.668876
0.705105
0.732341
0.752259
0.764714
0.770127
0.771376
0.77144
0.771519
0.0181874
0.030835
0.0738152
0.126754
0.191616
0.261044
0.332901
0.406933
0.482359
0.557903
0.625609
0.678158
0.716887
0.74577
0.767261
0.780303
0.78603
0.787443
0.787545
0.787623
-0.0136402
-0.000772821
0.0443532
0.0998754
0.168412
0.241912
0.318452
0.397359
0.477739
0.558324
0.630971
0.686907
0.727637
0.758102
0.780473
0.794097
0.800266
0.80184
0.802
0.802064
-0.0419699
-0.029081
0.0177533
0.0757926
0.147488
0.224418
0.304924
0.388043
0.472983
0.558544
0.63558
0.69423
0.737196
0.768791
0.79189
0.806264
0.812645
0.814408
0.814607
0.814649
-0.0678015
-0.0548895
-0.00678279
0.0536375
0.128075
0.207997
0.291985
0.378912
0.468112
0.558162
0.639026
0.700789
0.745521
0.778278
0.801759
0.816608
0.823374
0.825271
0.825529
0.825541
-0.0918686
-0.0786761
-0.0297725
0.0328408
0.109707
0.192312
0.27942
0.369808
0.462863
0.557033
0.641879
0.706669
0.752936
0.786655
0.810571
0.825794
0.832639
0.834694
0.834951
0.834938
-0.114518
-0.101067
-0.0514108
0.0131005
0.0920778
0.177129
0.267063
0.360523
0.457009
0.555071
0.64394
0.711532
0.759483
0.794393
0.818725
0.833719
0.840782
0.842803
0.843106
0.843019
-0.135858
-0.122337
-0.0719358
-0.0058047
0.0750024
0.162259
0.254688
0.350849
0.450453
0.55225
0.645125
0.715837
0.76592
0.801599
0.826218
0.841041
0.847821
0.849878
0.850091
0.849937
-0.156232
-0.142619
-0.0915283
-0.0240285
0.0583193
0.147492
0.242123
0.340741
0.443276
0.548605
0.645358
0.719506
0.771927
0.808791
0.833382
0.847654
0.854231
0.856063
0.85626
0.856156
-0.176041
-0.161984
-0.110411
-0.041757
0.0419121
0.132763
0.229359
0.330236
0.435456
0.544012
0.644714
0.72265
0.777761
0.81599
0.840526
0.854221
0.860125
0.861676
0.861829
0.861736
-0.195532
-0.180731
-0.128732
-0.0590538
0.0257561
0.118068
0.216409
0.319323
0.426955
0.538581
0.643273
0.725117
0.783514
0.823719
0.848384
0.860974
0.865938
0.866797
0.866881
0.866834
-0.214569
-0.199012
-0.146601
-0.0759729
0.00985236
0.103455
0.203326
0.308041
0.417882
0.532415
0.640852
0.726853
0.789121
0.831902
0.857334
0.868871
0.871791
0.871581
0.871471
0.871334
-0.233109
-0.216928
-0.16402
-0.0924818
-0.00575716
0.088956
0.190141
0.296451
0.408311
0.525439
0.637245
0.727639
0.794256
0.84074
0.867989
0.87838
0.878741
0.876453
0.87609
0.876976
-0.25102
-0.234386
-0.180965
-0.108574
-0.0210503
0.0746185
0.176923
0.284628
0.398283
0.517653
0.632472
0.727305
0.79883
0.849897
0.880495
0.89113
0.888714
0.882061
0.877051
0.875848
-0.268338
-0.25133
-0.197367
-0.124194
-0.0359743
0.0604913
0.163724
0.272621
0.38783
0.509114
0.626543
0.725486
0.80212
0.85916
0.894835
0.908023
0.906129
0.894813
0.894269
0.898425
-0.28501
-0.267648
-0.213174
-0.139314
-0.0504912
0.0466386
0.150629
0.260512
0.377013
0.499919
0.619523
0.721972
0.803893
0.86736
0.910016
0.928968
0.929363
0.90022
0.860964
0.826432
-0.301022
-0.28338
-0.228413
-0.15398
-0.06468
0.0329501
0.137498
0.248118
0.365608
0.489824
0.611152
0.716396
0.802929
0.87357
0.925322
0.95323
0.968566
0.946475
0.963609
1.02364
-0.316299
-0.298533
-0.24318
-0.168348
-0.0787263
0.019211
0.124072
0.235111
0.353181
0.478262
0.600855
0.707991
0.798234
0.874739
0.932503
0.965193
0.972309
0.948003
0.905526
0.921334
-0.330842
-0.313121
-0.257429
-0.182345
-0.0925386
0.00552133
0.110469
0.221624
0.339876
0.46534
0.588592
0.696518
0.787726
0.866329
0.925116
0.957811
0.942261
0.886411
0.821574
0.809004
-0.344613
-0.327095
-0.271159
-0.19599
-0.10613
-0.00812047
0.096704
0.207697
0.325743
0.45103
0.574167
0.681564
0.771152
0.845473
0.898896
0.904818
0.868034
0.789528
0.71421
0.690738
-0.357669
-0.340485
-0.284381
-0.209284
-0.119512
-0.0217305
0.0827729
0.193345
0.310824
0.435373
0.557526
0.662989
0.74715
0.810006
0.838646
0.82442
0.764273
0.661633
0.573615
0.550703
-0.370444
-0.35365
-0.297483
-0.22261
-0.133052
-0.0356235
0.0684116
0.178354
0.294939
0.418176
0.538411
0.640147
0.716906
0.76387
0.758515
0.722772
0.610108
0.486763
0.378729
0.350939
-0.383827
-0.367433
-0.311157
-0.236562
-0.147295
-0.050274
0.0532122
0.16238
0.277811
0.399251
0.516612
0.612735
0.682211
0.704521
0.67105
0.582141
0.425353
0.272049
0.142143
0.114009
-0.398323
-0.382151
-0.325719
-0.251406
-0.162445
-0.0658133
0.0370921
0.145379
0.25943
0.378587
0.492032
0.581572
0.640487
0.634291
0.582099
0.431655
0.23167
0.0189179
-0.16134
-0.210229
-0.414079
-0.398007
-0.341231
-0.267123
-0.178446
-0.0822067
0.0200737
0.127371
0.239842
0.356279
0.464694
0.548115
0.5921
0.55422
0.467135
0.279271
0.0484311
-0.239893
-0.560601
-0.709007
-0.431139
-0.414976
-0.357818
-0.283859
-0.195402
-0.0995281
0.0020909
0.108304
0.219014
0.332358
0.434935
0.511891
0.538027
0.46979
0.333538
0.128616
-0.104624
-0.447542
-1.03289
-1.60408
-0.449634
-0.4333
-0.375548
-0.301612
-0.213287
-0.117766
-0.016831
0.0882476
0.197113
0.307229
0.403902
0.472851
0.480193
0.395586
0.204706
-0.0279373
-0.229749
-0.463201
-1.01622
-2.5257
-0.469531
-0.452875
-0.394536
-0.320594
-0.232327
-0.137138
-0.0369279
0.066936
0.173813
0.28053
0.37125
0.43056
0.417465
0.337548
0.111902
-0.12518
-0.272138
-0.308538
-0.297084
-0.683535
-0.490823
-0.474073
-0.414945
-0.341007
-0.252853
-0.158128
-0.0588296
0.0435876
0.148169
0.250918
0.336037
0.384912
0.356018
0.288068
0.0622676
-0.138815
-0.248809
-0.256186
-0.202737
-0.242724
-0.51331
-0.496472
-0.436794
-0.363038
-0.275048
-0.180891
-0.0826885
0.0180434
0.119968
0.218237
0.298396
0.337412
0.301985
0.234739
0.0305503
-0.128971
-0.210462
-0.218221
-0.266204
-0.270142
-0.53713
-0.520307
-0.45998
-0.386539
-0.298791
-0.205421
-0.108562
-0.00978689
0.0891722
0.182814
0.258057
0.287654
0.255208
0.174207
0.00264506
-0.118933
-0.188622
-0.165835
-0.186158
-0.187746
-0.561814
-0.5448
-0.484418
-0.411586
-0.324082
-0.231683
-0.136368
-0.0397617
0.0559362
0.145034
0.215633
0.23455
0.21439
0.106589
-0.0320874
-0.113944
-0.152131
-0.200281
-0.174768
-0.183301
-0.587265
-0.569884
-0.509912
-0.437805
-0.350526
-0.259474
-0.165942
-0.0717204
0.0203587
0.105138
0.171746
0.180379
0.171971
0.0463521
-0.0689184
-0.132494
-0.108781
-0.168801
-0.149719
-0.154614
-0.612371
-0.594859
-0.536326
-0.465059
-0.377987
-0.288621
-0.196988
-0.105279
-0.0173002
0.063653
0.127687
0.128615
0.119974
-0.0053984
-0.0956105
-0.146359
-0.135122
-0.149682
-0.155227
-0.153365
-0.636934
-0.619538
-0.562945
-0.492413
-0.405882
-0.318692
-0.229119
-0.140104
-0.056545
0.0208106
0.0836546
0.0808813
0.0627099
-0.0475126
-0.109174
-0.140037
-0.17905
-0.150679
-0.156302
-0.150775
-0.659771
-0.64309
-0.588533
-0.519201
-0.434111
-0.349248
-0.261808
-0.175586
-0.0964584
-0.0230175
0.039323
0.0373684
0.00688381
-0.0835844
-0.123539
-0.114193
-0.186927
-0.130927
-0.14593
-0.138234
-0.68038
-0.664822
-0.612254
-0.544121
-0.461973
-0.37939
-0.294376
-0.211182
-0.136136
-0.0673989
-0.00556256
-0.00343969
-0.0393927
-0.102804
-0.131789
-0.0922186
-0.135832
-0.117895
-0.124491
-0.121452
-0.69699
-0.683092
-0.633129
-0.567043
-0.488692
-0.408253
-0.326017
-0.246068
-0.174642
-0.111487
-0.051131
-0.0420184
-0.0721129
-0.105772
-0.124471
-0.100558
-0.114316
-0.116721
-0.117943
-0.118275
-0.708932
-0.697181
-0.65047
-0.586828
-0.512295
-0.434798
-0.355794
-0.279365
-0.211175
-0.154015
-0.0958039
-0.0783534
-0.098411
-0.101714
-0.114804
-0.127982
-0.12022
-0.125667
-0.12153
-0.122532
-0.714625
-0.705312
-0.662786
-0.602576
-0.531951
-0.457951
-0.382588
-0.309893
-0.244815
-0.193188
-0.137007
-0.115233
-0.129012
-0.104662
-0.0996786
-0.134502
-0.114675
-0.131779
-0.124456
-0.127914
-0.714215
-0.707044
-0.668863
-0.612454
-0.546038
-0.476314
-0.405183
-0.336415
-0.274613
-0.227241
-0.173355
-0.152434
-0.166084
-0.127979
-0.0679569
-0.0974518
-0.0829993
-0.107775
-0.114099
-0.119735
-0.70657
-0.699217
-0.666193
-0.615331
-0.553984
-0.488871
-0.422178
-0.357307
-0.29874
-0.254042
-0.203831
-0.189111
-0.203711
-0.203638
-0.155151
-0.188512
-0.203052
-0.208187
-0.20792
-0.20642
-0.686531
-0.67816
-0.653199
-0.609634
-0.554373
-0.494625
-0.432807
-0.371294
-0.31483
-0.271264
-0.224408
-0.213423
-0.262317
-0.387298
-0.600216
-0.710032
-0.738589
-0.705993
-0.648794
-0.606736
-0.644753
-0.636804
-0.627442
-0.595694
-0.547898
-0.493442
-0.436198
-0.377061
-0.320525
-0.275334
-0.230044
-0.203819
-0.300807
-0.486677
-0.734568
-0.845213
-0.846758
-0.781871
-0.728518
-0.690936
-0.603155
-0.600202
-0.599405
-0.574451
-0.53541
-0.487393
-0.433477
-0.374852
-0.314639
-0.262408
-0.211371
-0.143054
-0.114112
-0.0967152
-0.118083
-0.0690039
0.0196004
0.0867222
0.154098
0.206063
-0.580595
-0.582071
-0.572649
-0.556363
-0.523997
-0.478672
-0.425253
-0.365674
-0.298742
-0.22997
-0.161719
-0.0284813
0.138579
0.418507
0.697736
0.931847
1.10032
1.19692
1.23857
1.26157
-0.549275
-0.549335
-0.545573
-0.541872
-0.514691
-0.471843
-0.417017
-0.353944
-0.279381
-0.19245
-0.099984
0.0475429
0.275353
0.618171
0.960333
1.24254
1.43798
1.55311
1.60742
1.62793
-0.532132
-0.530508
-0.533054
-0.527098
-0.505638
-0.465064
-0.409195
-0.342313
-0.262671
-0.164228
-0.0576111
0.0721711
0.317227
0.632566
0.946501
1.21526
1.41601
1.53777
1.59243
1.60826
-0.518076
-0.51685
-0.520761
-0.513258
-0.500097
-0.460627
-0.403518
-0.333505
-0.250972
-0.148483
-0.0392084
0.0591943
0.276383
0.549374
0.812694
1.03987
1.22019
1.32891
1.37688
1.38989
-0.497683
-0.496861
-0.49757
-0.492101
-0.491686
-0.457802
-0.401998
-0.330056
-0.246634
-0.147355
-0.0428423
0.0299287
0.203174
0.433564
0.646693
0.826504
0.971675
1.05968
1.0979
1.10758
-0.489251
-0.487735
-0.482796
-0.480024
-0.481376
-0.454531
-0.401194
-0.329385
-0.247876
-0.156912
-0.0582911
-0.000340346
0.127535
0.316441
0.485972
0.623296
0.732934
0.801175
0.830712
0.838336
-0.503997
-0.501887
-0.498033
-0.503271
-0.497318
-0.46481
-0.404345
-0.329425
-0.249569
-0.168873
-0.0765434
-0.0253373
0.0627554
0.213675
0.346905
0.450104
0.530578
0.582105
0.603578
0.607696
-0.531632
-0.532276
-0.534819
-0.545142
-0.534096
-0.486583
-0.409043
-0.327787
-0.248324
-0.177277
-0.0920945
-0.044383
0.0140094
0.132382
0.23449
0.31034
0.368868
0.40654
0.421283
0.426351
-0.539317
-0.542713
-0.551922
-0.561758
-0.546231
-0.486229
-0.400321
-0.318291
-0.240463
-0.178122
-0.10217
-0.0576944
-0.0203049
0.0727602
0.148562
0.202424
0.245766
0.275527
0.285854
0.288713
-0.471951
-0.476302
-0.490343
-0.497712
-0.485283
-0.433613
-0.363389
-0.292444
-0.222608
-0.168995
-0.106004
-0.0659577
-0.0417239
0.0307627
0.0856293
0.123584
0.15621
0.17666
0.185782
0.188387
-0.331786
-0.337699
-0.34435
-0.349093
-0.343628
-0.319582
-0.282915
-0.240635
-0.191043
-0.149099
-0.102694
-0.0697373
-0.0515193
0.00330794
0.0418176
0.0690966
0.0907482
0.103009
0.108423
0.109695
-0.184099
-0.186594
-0.190668
-0.196167
-0.197111
-0.193548
-0.18547
-0.171054
-0.146219
-0.121156
-0.0920861
-0.0679907
-0.051523
-0.0135279
0.0126683
0.0306575
0.0430679
0.0492061
0.0508948
0.0505075
-0.0667995
-0.0681008
-0.0710041
-0.0774896
-0.0858174
-0.0949199
-0.102441
-0.104989
-0.0991686
-0.0903733
-0.0757032
-0.0606422
-0.0472385
-0.0231065
-0.00704164
0.00302864
0.00883705
0.0103075
0.00961165
0.00849603
0.00718016
0.00625503
0.00414885
-0.00274058
-0.0159558
-0.0316777
-0.0453778
-0.0555239
-0.0600597
-0.0622443
-0.0570194
-0.0494436
-0.0412411
-0.0279452
-0.0200168
-0.0160318
-0.014431
-0.0154898
-0.0174872
-0.0189166
0.0438496
0.0432358
0.0414481
0.0350146
0.0219776
0.00508206
-0.0108325
-0.0243081
-0.0333168
-0.0404424
-0.0400224
-0.0369265
-0.0347544
-0.0295249
-0.0273944
-0.027248
-0.0283732
-0.0307746
-0.0329875
-0.0344279
0.0578026
0.0572869
0.0557564
0.0502921
0.0392027
0.0240331
0.00859052
-0.00570859
-0.0164668
-0.0252353
-0.0267603
-0.0269412
-0.0293382
-0.0288284
-0.0300479
-0.0321018
-0.0345971
-0.0374629
-0.0395081
-0.040865
0.0591713
0.0587865
0.0575828
0.053328
0.0445977
0.0322743
0.0188584
0.00531048
-0.00559562
-0.015108
-0.0176501
-0.0199335
-0.0244517
-0.0261798
-0.0290136
-0.0323233
-0.0355356
-0.038387
-0.0401746
-0.0413552
0.0543535
0.054082
0.0531635
0.0499933
0.0434723
0.0340745
0.0232894
0.0115362
0.00172812
-0.00798319
-0.011608
-0.014676
-0.0195693
-0.0221808
-0.025781
-0.0295641
-0.0328795
-0.0355115
-0.0369718
-0.0379644
0.0472439
0.0470675
0.0464069
0.044147
0.0394348
0.0324677
0.0241454
0.0145633
0.00649961
-0.0028032
-0.00717908
-0.0105012
-0.0148205
-0.0175459
-0.0214673
-0.0252077
-0.028201
-0.0304274
-0.0315491
-0.032383
0.0395701
0.0394734
0.0390037
0.0374407
0.0341569
0.0291826
0.0229863
0.0155102
0.00924426
0.0008196
-0.00349697
-0.00678901
-0.0105983
-0.0128494
-0.0165407
-0.0199772
-0.0226499
-0.0245499
-0.0253368
-0.0259939
0.0321223
0.0320662
0.0317311
0.0306338
0.028325
0.0248037
0.0202823
0.0146146
0.0100878
0.00313057
-0.000420886
-0.00328242
-0.0067084
-0.00880884
-0.012064
-0.0148682
-0.0170034
-0.0184807
-0.0189977
-0.0195344
0.0254744
0.0254352
0.0252166
0.024482
0.0228926
0.0203351
0.016956
0.0125666
0.00943709
0.00402736
0.00153367
-0.000597809
-0.00341909
-0.00535078
-0.00805049
-0.0100702
-0.0115485
-0.0125323
-0.0128106
-0.0132857
0.0195358
0.0195197
0.0193902
0.0189082
0.0178642
0.0161357
0.0137384
0.0103637
0.00821601
0.00404914
0.00239436
0.000690308
-0.00145143
-0.00273262
-0.00460991
-0.00597336
-0.00694347
-0.0075368
-0.00771723
-0.00816346
0.0141351
0.0141114
0.0140278
0.0137408
0.0130964
0.0120107
0.0105497
0.00817221
0.00685402
0.00360113
0.00243596
0.00119098
-0.000338386
-0.00113539
-0.00234192
-0.00313656
-0.00363116
-0.00395449
-0.00403949
-0.00443102
0.00940969
0.0093821
0.00932247
0.00918557
0.00886463
0.00828432
0.00751089
0.00591213
0.00528835
0.00282888
0.00213916
0.00130047
0.000306798
-0.000296398
-0.00114617
-0.00145157
-0.00149999
-0.00150277
-0.00150565
-0.00192268
0.00533942
0.0053071
0.00528645
0.00524043
0.00511138
0.00481669
0.00449391
0.00343066
0.00332116
0.0017339
0.00165829
0.00127864
0.000532383
0.000210759
-0.000480732
-0.000593021
-0.000467493
-0.000369392
-0.00021324
-0.000527708
0.00184325
0.00184308
0.00186462
0.00187306
0.00183857
0.00164997
0.00158617
0.00100817
0.00121814
0.000497393
0.000793085
0.00103841
0.000512793
0.000547619
-0.000298489
-0.000702429
-0.00118771
-0.00164705
-0.00137918
-0.00139789
-1.07387
-0.235815
0.0341521
0.309775
0.490544
0.645571
0.770442
0.89782
1.03844
1.12172
-0.0953307
0.310541
0.326324
0.5141
0.637088
0.747451
0.842306
0.926921
0.954114
0.912296
0.280104
0.49331
0.527724
0.663794
0.749007
0.828234
0.89361
0.942706
0.944663
0.958874
0.508561
0.650861
0.685693
0.786864
0.843583
0.900783
0.945374
0.977596
0.986588
1.01031
0.685724
0.786616
0.816342
0.88347
0.927867
0.968577
1.00057
1.02478
1.03451
1.06612
0.828473
0.896991
0.92725
0.969898
1.00586
1.03586
1.06006
1.08077
1.09486
1.12318
0.947295
0.997698
1.0232
1.05106
1.07862
1.10233
1.12224
1.14147
1.15634
1.18287
1.05086
1.08778
1.10881
1.1294
1.15013
1.16948
1.18687
1.20497
1.21985
1.24352
1.14472
1.17379
1.19009
1.20533
1.22141
1.23746
1.253
1.26991
1.28353
1.30585
1.23291
1.25335
1.26819
1.28134
1.2949
1.30867
1.32217
1.33676
1.3483
1.36794
1.31832
1.33409
1.34791
1.35972
1.37164
1.38327
1.39441
1.40609
1.41377
1.43057
1.40354
1.41608
1.42979
1.44154
1.45218
1.46197
1.47079
1.47906
1.48262
1.49386
1.49228
1.50311
1.51658
1.52611
1.53368
1.54097
1.54816
1.55464
1.55573
1.5631
1.5907
1.5953
1.60349
1.60824
1.61163
1.61612
1.62211
1.62978
1.63368
1.64355
1.704
1.69089
1.6836
1.67788
1.67516
1.6765
1.68284
1.6952
1.71002
1.73969
1.82598
1.76995
1.73892
1.72173
1.71351
1.71344
1.72228
1.74189
1.7737
1.84296
)
;

boundaryField
{
    wall-4
    {
        type            zeroGradient;
    }
    pressure-outlet-7
    {
        type            fixedValue;
        value           uniform 0;
    }
    velocity-inlet-6
    {
        type            zeroGradient;
    }
    velocity-inlet-5
    {
        type            zeroGradient;
    }
    frontAndBackPlanes
    {
        type            empty;
    }
}


// ************************************************************************* //
