/*--------------------------------*- C++ -*----------------------------------*\
| =========                 |                                                 |
| \\      /  F ield         | OpenFOAM: The Open Source CFD Toolbox           |
|  \\    /   O peration     | Version:  4.0                                   |
|   \\  /    A nd           | Web:      www.OpenFOAM.org                      |
|    \\/     M anipulation  |                                                 |
\*---------------------------------------------------------------------------*/
FoamFile
{
    version     2.0;
    format      ascii;
    class       surfaceScalarField;
    location    "57";
    object      phi;
}
// * * * * * * * * * * * * * * * * * * * * * * * * * * * * * * * * * * * * * //

dimensions      [0 3 -1 0 0 0 0];

internalField   nonuniform List<scalar> 
4262
(
0.107137
0.470851
0.0955631
0.70516
0.0693794
0.858487
0.0473844
1.02076
0.0310172
1.21488
0.0198001
1.44944
0.0123812
1.73328
0.00715378
2.07626
0.00318872
2.48921
-0.000507298
2.98599
-0.00410316
2.98589
-0.0078739
2.48901
-0.0128944
2.07606
-0.0200892
1.73306
-0.031067
1.4492
-0.047149
1.2146
-0.0689106
1.02053
-0.0951886
0.858581
-0.107063
0.705461
0.470925
0.112883
0.357969
0.135319
0.682723
0.120439
0.873366
0.0978869
1.04331
0.0746436
1.23813
0.0529123
1.47117
0.0345097
1.75169
0.0203187
2.09045
0.00908661
2.50044
-0.00101286
2.99609
-0.011249
2.99612
-0.022468
2.50023
-0.0365089
2.0901
-0.0547682
1.75132
-0.0765789
1.47101
-0.100309
1.23833
-0.123479
1.0437
-0.137004
0.872106
-0.113559
0.682015
0.357366
0.0920286
0.26594
0.124937
0.649814
0.121046
0.877258
0.104774
1.05958
0.0861112
1.25679
0.0669943
1.49028
0.0480477
1.77063
0.029981
2.10852
0.0133678
2.51705
-0.00262303
3.01208
-0.0181887
3.01169
-0.0341764
2.51622
-0.0517394
2.10766
-0.0701605
1.76974
-0.0884845
1.48933
-0.105699
1.25554
-0.119806
1.0578
-0.125202
0.877503
-0.0923317
0.649145
0.265034
0.0640419
0.201899
0.104932
0.608924
0.106745
0.875445
0.0953745
1.07095
0.0814381
1.27073
0.0666797
1.50504
0.0505275
1.78678
0.0333563
2.12569
0.0157422
2.53467
-0.00289837
3.03072
-0.0215247
3.03032
-0.0389382
2.53363
-0.0553838
2.12411
-0.0706607
1.78502
-0.0845092
1.50318
-0.0982277
1.26926
-0.109993
1.06957
-0.107033
0.874543
-0.0649046
0.607017
0.200129
0.0374789
0.16442
0.0806944
0.565708
0.090969
0.865171
0.0837611
1.07816
0.0711781
1.28331
0.0593694
1.51685
0.0464157
1.79974
0.031474
2.14063
0.0144125
2.55173
-0.00486968
3.05
-0.0235236
3.04897
-0.039437
2.54955
-0.053405
2.13807
-0.0655038
1.79711
-0.0767166
1.51439
-0.0886077
1.28115
-0.0949899
1.07595
-0.0831558
0.862708
-0.0383761
0.562237
0.161753
0.0194513
0.144968
0.0572024
0.527957
0.0726131
0.84976
0.0705131
1.08026
0.0617103
1.29211
0.0508312
1.52773
0.0396671
1.8109
0.0270644
2.15324
0.0120855
2.56671
-0.00536243
3.06745
-0.0226921
3.0663
-0.0370314
2.56389
-0.0485294
2.14957
-0.0586193
1.8072
-0.0685822
1.52436
-0.0762937
1.28886
-0.0771423
1.0768
-0.0599969
0.845563
-0.0203756
0.522616
0.141378
0.0106444
0.134324
0.0424098
0.496192
0.0585615
0.833608
0.0588601
1.07996
0.0527107
1.29826
0.043299
1.53714
0.0328944
1.82131
0.0215579
2.16457
0.00828425
2.57998
-0.00779432
3.08353
-0.0231346
3.08164
-0.0349695
2.57572
-0.0448005
2.1594
-0.0536055
1.81601
-0.0614925
1.53224
-0.0660686
1.29344
-0.064181
1.07491
-0.0458555
0.827238
-0.0116889
0.488449
0.129689
0.00658832
0.127736
0.032998
0.469782
0.0492925
0.817314
0.0508072
1.07845
0.0457312
1.30334
0.0374038
1.54547
0.027756
1.83095
0.0168133
2.17552
0.00474081
2.59205
-0.00892989
3.0972
-0.0223009
3.09501
-0.0332329
2.58665
-0.0425492
2.16872
-0.0503619
1.82382
-0.0569402
1.53882
-0.0601273
1.29663
-0.0563999
1.07118
-0.0372335
0.808071
-0.00787396
0.459089
0.121815
0.00472001
0.123016
0.0265921
0.44791
0.0424316
0.801474
0.0445943
1.07628
0.0400175
1.30791
0.0324132
1.55307
0.0233175
1.84005
0.0128226
2.18601
0.00112884
2.60375
-0.0121208
3.11045
-0.024198
3.10709
-0.03389
2.59635
-0.0420985
2.17693
-0.0488779
1.8306
-0.054197
1.54414
-0.0564479
1.29888
-0.0514991
1.06624
-0.0319171
0.788489
-0.00634696
0.433519
0.115468
0.00378438
0.119231
0.021806
0.429889
0.03701
0.78627
0.0397647
1.07353
0.0353866
1.31229
0.0280295
1.56043
0.019249
1.84883
0.00912542
2.19613
-0.00218466
2.61506
-0.0141893
3.12245
-0.0255912
3.11849
-0.0350701
2.60582
-0.0425138
2.18437
-0.0484846
1.83657
-0.053204
1.54886
-0.054467
1.30014
-0.0480872
1.05986
-0.0281862
0.768588
-0.00572916
0.411062
0.109739
0.00306555
0.116166
0.0175982
0.415356
0.0315757
0.772293
0.0345697
1.07054
0.030459
1.3164
0.0233532
1.56754
0.0148918
1.85729
0.00508004
2.20595
-0.00617617
2.62631
-0.0184727
3.13475
-0.0294145
3.12943
-0.0374928
2.6139
-0.0439807
2.19086
-0.0492145
1.84181
-0.0530174
1.55266
-0.0532133
1.30034
-0.0455246
1.05217
-0.0254981
0.748562
-0.00549069
0.391055
0.104248
0.00240334
0.113762
0.0139424
0.403817
0.0266506
0.759585
0.0298552
1.06733
0.0258547
1.3204
0.0187526
1.57464
0.0102741
1.86577
0.00066457
2.21556
-0.0100036
2.63698
-0.0217192
3.14646
-0.0321109
3.13982
-0.0401276
2.62192
-0.0459794
2.19671
-0.0503629
1.84619
-0.0532074
1.55551
-0.0526014
1.29973
-0.0435104
1.04308
-0.0234498
0.728501
-0.00531305
0.372918
0.0989349
0.00170415
0.112058
0.0105635
0.394958
0.0214067
0.748741
0.0240921
1.06465
0.020131
1.32436
0.0132197
1.58155
0.00471946
1.87427
-0.00507269
2.22535
-0.0161417
2.64805
-0.0279338
3.15826
-0.0379414
3.14983
-0.0444715
2.62845
-0.0491016
2.20134
-0.0527479
1.84984
-0.0544793
1.55724
-0.0530247
1.29828
-0.0425585
1.03261
-0.0222145
0.708157
-0.00524595
0.35595
0.0936889
0.000872316
0.111186
0.00720367
0.388626
0.0164603
0.739485
0.0188368
1.06227
0.0145288
1.32867
0.00720964
1.58887
-0.00143733
1.88292
-0.0111129
2.23502
-0.0216617
2.6586
-0.032934
3.16953
-0.0422761
3.15917
-0.0486561
2.63483
-0.0527621
2.20545
-0.0554161
1.85249
-0.0561809
1.558
-0.0536453
1.29574
-0.0419677
1.02093
-0.021385
0.687574
-0.00520401
0.339769
0.0884849
0.000192933
0.110993
0.00436397
0.384455
0.01124
0.732609
0.0123498
1.06116
0.00766027
1.33336
0.000190002
1.59634
-0.00901027
1.89212
-0.0194194
2.24543
-0.0306628
2.66984
-0.0418469
3.18071
-0.0503169
3.16764
-0.0549953
2.63951
-0.0577544
2.20821
-0.0597286
1.85446
-0.0596227
1.5579
-0.0554941
1.29161
-0.0422536
1.00769
-0.0210748
0.666395
-0.00522177
0.323916
0.0832632
-0.000803694
0.111797
0.000596329
0.383055
0.00545844
0.727747
0.00586377
1.06075
0.00037332
1.33885
-0.00819676
1.60491
-0.018002
1.90192
-0.0284029
2.25583
-0.0390343
2.68048
-0.0494474
3.19113
-0.0572055
3.1754
-0.0615841
2.64389
-0.063769
2.21039
-0.0647536
1.85545
-0.0637568
1.5569
-0.0582231
1.28608
-0.0432894
0.992758
-0.0212857
0.644392
-0.00536952
0.307999
0.0778936
-0.00163363
0.11343
-0.00243687
0.383858
-0.000410169
0.72572
-0.00210752
1.06245
-0.00858531
1.34533
-0.0176906
1.61402
-0.0282593
1.91249
-0.0397893
2.26736
-0.0516176
2.6923
-0.062228
3.20174
-0.0687221
3.1819
-0.0717318
2.6469
-0.0727327
2.21139
-0.0723378
1.85505
-0.0697858
1.55435
-0.0623333
1.27863
-0.0452415
0.975666
-0.0220204
0.621171
-0.00562725
0.291606
0.0722664
-0.00298127
0.116412
-0.00612224
0.386999
-0.00764392
0.727242
-0.0106331
1.06544
-0.0180304
1.35273
-0.0283738
1.62436
-0.0399666
1.92408
-0.0520178
2.27941
-0.0637905
2.70408
-0.0738815
3.21183
-0.0800846
3.1881
-0.0822582
2.64907
-0.0816919
2.21083
-0.0805451
1.85391
-0.0770528
1.55086
-0.0676091
1.26918
-0.0480931
0.95615
-0.0232702
0.596348
-0.00600113
0.274337
0.0662653
-0.00426828
0.12068
-0.0103512
0.393082
-0.015249
0.732139
-0.0211998
1.07139
-0.0299707
1.3615
-0.0415066
1.6359
-0.0543733
1.93695
-0.0681002
2.29314
-0.0814754
2.71745
-0.0923509
3.2227
-0.0971194
3.19287
-0.097402
2.64935
-0.0960465
2.20947
-0.0925821
1.85044
-0.0864855
1.54476
-0.0743915
1.25709
-0.0519992
0.933758
-0.0250112
0.56936
-0.00647074
0.255797
0.0597945
-0.00573884
0.126419
-0.0154073
0.402751
-0.0242967
0.741029
-0.033107
1.0802
-0.0436952
1.37209
-0.0568075
1.64901
-0.0711813
1.95132
-0.0859694
2.30793
-0.0996883
2.73117
-0.109671
3.23269
-0.113728
3.19692
-0.113213
2.64884
-0.109656
2.20591
-0.105105
1.84589
-0.0978629
1.53752
-0.0827313
1.24196
-0.056791
0.907817
-0.0271462
0.539715
-0.0069971
0.235648
0.0527974
-0.00804619
0.134465
-0.0222286
0.416933
-0.0364734
0.755274
-0.0487899
1.09252
-0.0615693
1.38487
-0.0769832
1.66442
-0.0936171
1.96796
-0.110501
2.32481
-0.12539
2.74606
-0.135388
3.24268
-0.13726
3.1988
-0.134247
2.64582
-0.12947
2.20114
-0.122242
1.83866
-0.111484
1.52676
-0.0927868
1.22326
-0.0626783
0.877709
-0.0296736
0.50671
-0.007573
0.213547
0.0452244
-0.010477
0.144942
-0.0294662
0.435922
-0.0498113
0.775619
-0.0670286
1.10974
-0.0830696
1.40091
-0.101129
1.68248
-0.119973
1.9868
-0.137858
2.3427
-0.152466
2.76067
-0.161289
3.25151
-0.161938
3.19945
-0.156926
2.64081
-0.148958
2.19317
-0.139952
1.82966
-0.127274
1.51408
-0.104134
1.20012
-0.0690215
0.842596
-0.0322461
0.469935
-0.00808278
0.189384
0.0371416
-0.0151288
0.160071
-0.0414736
0.462267
-0.0685681
0.802713
-0.0908047
1.13197
-0.110796
1.4209
-0.132884
1.70457
-0.154711
2.00863
-0.174827
2.36281
-0.190275
2.77612
-0.197062
3.25829
-0.193203
3.19559
-0.184651
2.63226
-0.175044
2.18356
-0.163218
1.81783
-0.145809
1.49667
-0.117654
1.17197
-0.0766041
0.801546
-0.0350272
0.428358
-0.00854925
0.162906
0.0285924
-0.0193118
0.179382
-0.0547031
0.497659
-0.0917759
0.839786
-0.121801
1.162
-0.147558
1.44666
-0.17379
1.7308
-0.19789
2.03273
-0.217456
2.38238
-0.22983
2.78849
-0.2332
3.26166
-0.227488
3.18987
-0.216225
2.621
-0.201941
2.16928
-0.186902
1.80279
-0.166497
1.47627
-0.131626
1.13709
-0.0834173
0.753337
-0.0372239
0.382165
-0.00868712
0.134369
0.0199053
-0.0325061
0.211888
-0.0816755
0.546828
-0.129312
0.887422
-0.165716
1.1984
-0.196618
1.47756
-0.226684
1.76087
-0.251496
2.05754
-0.270782
2.40167
-0.282342
2.80005
-0.282079
3.2614
-0.268803
3.1766
-0.251657
2.60385
-0.23586
2.15348
-0.217058
1.78399
-0.189306
1.44852
-0.147095
1.09488
-0.0913097
0.697552
-0.0393862
0.330241
-0.008628
0.103611
0.0112773
-0.046886
0.258774
-0.120317
0.620259
-0.183464
0.950569
-0.228464
1.2434
-0.265413
1.51451
-0.296194
1.79165
-0.318937
2.08029
-0.333878
2.41661
-0.338044
2.80422
-0.328814
3.25217
-0.311465
3.15925
-0.292328
2.58471
-0.270314
2.13147
-0.246565
1.76024
-0.21382
1.41577
-0.161662
1.04273
-0.0955959
0.631486
-0.0392218
0.273867
-0.00845187
0.0728408
0.00282541
-0.0338858
0.29266
-0.097293
0.683666
-0.155867
1.00914
-0.203122
1.29066
-0.245787
1.55717
-0.284016
1.82988
-0.319644
2.11591
-0.351539
2.4485
-0.376224
2.8289
-0.39086
3.26681
-0.387273
3.15566
-0.370127
2.56757
-0.350426
2.11177
-0.320468
1.73028
-0.269405
1.36471
-0.193768
0.967088
-0.106979
0.544697
-0.0415193
0.208408
-0.00939711
0.0407185
-0.0065717
-0.0127801
0.30544
-0.0477468
0.718632
-0.0893147
1.05071
-0.128594
1.32994
-0.167559
1.59614
-0.202031
1.86435
-0.233959
2.14784
-0.261332
2.47587
-0.280123
2.84769
-0.282578
3.26926
-0.267799
3.14088
-0.24866
2.54843
-0.222759
2.08586
-0.19057
1.69809
-0.14958
1.32372
-0.0963338
0.913843
-0.0442891
0.492652
-0.0156072
0.179726
-0.00375656
0.0288679
-0.0103283
0.00010967
0.305331
-0.0248132
0.743555
-0.054413
1.08031
-0.084432
1.35996
-0.115799
1.6275
-0.146252
1.8948
-0.174435
2.17602
-0.197658
2.4991
-0.211783
2.86182
-0.211699
3.26918
-0.19867
3.12785
-0.17566
2.52542
-0.146775
2.05698
-0.114932
1.66625
-0.0758043
1.28459
-0.0354466
0.873485
-0.00877463
0.46598
-0.00117015
0.172121
-0.000553563
0.0282513
-0.0108818
0.000630267
0.3047
-0.0128309
0.757016
-0.0342555
1.10174
-0.0588505
1.38455
-0.0847338
1.65339
-0.110401
1.92047
-0.134065
2.19969
-0.153034
2.51807
-0.163522
2.8723
-0.16108
3.26674
-0.143957
3.11073
-0.118264
2.49973
-0.0898832
2.0286
-0.055972
1.63234
-0.0251208
1.25374
-0.0016772
0.850041
0.00883064
0.455473
0.00626223
0.17469
0.00156805
0.0329455
-0.00931378
0.00410954
0.300591
-0.00516312
0.766289
-0.0231506
1.11972
-0.0438016
1.4052
-0.0654241
1.67501
-0.0869569
1.942
-0.107147
2.21988
-0.123353
2.53427
-0.131988
2.88094
-0.128352
3.2631
-0.109456
3.09183
-0.0832947
2.47357
-0.0535684
1.99887
-0.0269192
1.60569
0.000949303
1.22587
0.0198641
0.831126
0.0212712
0.454065
0.012005
0.183956
0.00326004
0.0416904
-0.00605373
0.00514612
0.295445
-0.000958351
0.772394
-0.0168209
1.13559
-0.0350466
1.42343
-0.054133
1.6941
-0.0730517
1.96092
-0.0908245
2.23765
-0.105294
2.54874
-0.112592
2.88824
-0.107752
3.25826
-0.0892469
3.07333
-0.064306
2.44863
-0.0373243
1.97189
-0.00781608
1.57618
0.0134796
1.20457
0.024996
0.81961
0.0241831
0.454878
0.0136101
0.194529
0.00386644
0.0514341
-0.00218729
0.00418163
0.291263
-6.07395e-05
0.776636
-0.0133846
1.14891
-0.0299828
1.44003
-0.0472166
1.71133
-0.0644607
1.97816
-0.0807306
2.25392
-0.0936929
2.5617
-0.0997466
2.89429
-0.0950416
3.25356
-0.077702
3.05599
-0.0540483
2.42497
-0.0278019
1.94564
-0.00527979
1.55366
0.0150904
1.1842
0.0264456
0.808255
0.0233752
0.457949
0.0132561
0.204648
0.0038419
0.0608483
0.00165461
0.00257444
0.288689
-0.00106861
0.780279
-0.0129487
1.16079
-0.027818
1.4549
-0.0439741
1.72749
-0.0599847
1.99417
-0.0750684
2.269
-0.0875198
2.57416
-0.0945325
2.9013
-0.091063
3.25009
-0.0749039
3.03983
-0.0533823
2.40345
-0.0301137
1.92238
-0.00492628
1.52847
0.0126926
1.16658
0.0210134
0.799934
0.0198106
0.459151
0.0112295
0.213229
0.00335807
0.0687197
0.00501267
0.000498716
0.28819
-0.00294509
0.783723
-0.0135814
1.17143
-0.0270348
1.46835
-0.0420605
1.74251
-0.0572875
2.0094
-0.0719913
2.28371
-0.0844752
2.58664
-0.0917301
2.90856
-0.0886619
3.24702
-0.0746777
3.02585
-0.0541045
2.38288
-0.0312321
1.8995
-0.0130734
1.51031
0.00471195
1.1488
0.0155498
0.789096
0.0143374
0.460364
0.00838122
0.219185
0.00256529
0.0745356
0.00757796
-0.000531605
0.288722
-0.00542081
0.788612
-0.0150501
1.18106
-0.0274497
1.48075
-0.0418041
1.75687
-0.0564901
2.02409
-0.0709327
2.29815
-0.0837719
2.59948
-0.0922102
2.917
-0.0914814
3.24629
-0.0784317
3.0128
-0.0590119
2.36346
-0.0405062
1.881
-0.0190074
1.48882
-0.00343404
1.13323
0.00532202
0.78034
0.00783069
0.457855
0.00476424
0.222252
0.0017103
0.0775895
0.00928827
-0.00189707
0.290619
-0.00701474
0.79373
-0.0164328
1.19047
-0.028204
1.49252
-0.0417538
1.77042
-0.0560389
2.03837
-0.0706057
2.31272
-0.0839912
2.61286
-0.0935022
2.92651
-0.0948395
3.24763
-0.0841077
3.00207
-0.0661626
2.34551
-0.045602
1.86044
-0.0295556
1.47277
-0.0136483
1.11732
-0.00165944
0.768351
0.00131124
0.454884
0.00149875
0.222064
0.000739771
0.0783485
0.010028
-0.00337859
0.293997
-0.00895168
0.799303
-0.0179104
1.19943
-0.0292014
1.50381
-0.0423884
1.7836
-0.0564031
2.05239
-0.070958
2.32727
-0.0849424
2.62685
-0.0959016
2.93747
-0.0994347
3.25116
-0.0894676
2.9921
-0.0734834
2.32953
-0.0574697
1.84442
-0.0373207
1.45262
-0.0214429
1.10144
-0.0104926
0.757401
-0.00361307
0.448005
-0.00133576
0.219787
-0.000102596
0.0771154
0.00992544
-0.00405576
0.298053
-0.0099545
0.805202
-0.0190153
1.20849
-0.0300281
1.51482
-0.0426921
1.79627
-0.0563846
2.06608
-0.0710916
2.34198
-0.085776
2.64153
-0.0982054
2.9499
-0.104414
3.25737
-0.0989452
2.98663
-0.0845157
2.3151
-0.063302
1.82321
-0.0462978
1.43562
-0.0288313
1.08397
-0.0146807
0.74325
-0.00786646
0.441191
-0.00286622
0.214787
-0.000500234
0.0747494
0.00942521
-0.00436043
0.302413
-0.0110745
0.811916
-0.0199768
1.2174
-0.0306258
1.52547
-0.0430567
1.8087
-0.0566139
2.07964
-0.0714329
2.3568
-0.0867708
2.65687
-0.100647
2.96377
-0.109151
3.26587
-0.105751
2.98323
-0.0925645
2.30191
-0.0759676
1.80661
-0.0526289
1.41228
-0.0334167
1.06476
-0.0195342
0.729368
-0.00940742
0.431064
-0.00374341
0.209123
-0.000756651
0.0717626
0.00866856
-0.00438092
0.306794
-0.0113698
0.818904
-0.0204143
1.22644
-0.0309109
1.53597
-0.0429749
1.82076
-0.0562831
2.09295
-0.0712152
2.37173
-0.0870859
2.67274
-0.102348
2.97903
-0.11381
3.27733
-0.11487
2.98429
-0.103548
2.29059
-0.0809609
1.78402
-0.0592797
1.3906
-0.0368385
1.04232
-0.0190967
0.711626
-0.00965051
0.421618
-0.00332944
0.202802
-0.000745568
0.0691787
0.00792299
-0.00452799
0.311322
-0.0119144
0.826291
-0.0206951
1.23522
-0.0308638
1.54614
-0.0427285
1.83263
-0.055937
2.10615
-0.0709447
2.38674
-0.0873611
2.68916
-0.10406
2.99573
-0.117677
3.29095
-0.120737
2.98735
-0.111086
2.28094
-0.0934973
1.76644
-0.0645006
1.3616
-0.0375697
1.01539
-0.0183128
0.692369
-0.00515214
0.408457
-9.64363e-05
0.197746
0.000797073
0.0682852
0.00872006
-0.0045211
0.315843
-0.0118032
0.833573
-0.0205432
1.24396
-0.0305681
1.55616
-0.0421066
1.84416
-0.0550452
2.11909
-0.0700485
2.40174
-0.0868617
2.70597
-0.104625
3.0135
-0.120567
3.30689
-0.1284
2.99518
-0.121369
2.27391
-0.098473
1.74354
-0.0706192
1.33375
-0.0373946
0.982165
-0.0106517
0.665626
0.00319275
0.394613
0.00489804
0.196041
-0.00105229
0.0742355
0.00766777
-0.00459006
0.320433
-0.0119718
0.840955
-0.020344
1.25233
-0.0299819
1.5658
-0.0412527
1.85543
-0.0540437
2.13188
-0.0690502
2.41675
-0.0862598
2.72318
-0.105097
3.03233
-0.123169
3.32496
-0.133279
3.00529
-0.128572
2.2692
-0.111942
1.72691
-0.0770945
1.2989
-0.0364949
0.941566
0.000767054
0.628364
0.0300937
0.365286
0.0401664
0.185968
0.026487
0.087915
0.0341548
-0.00444887
0.324882
-0.0115638
0.84807
-0.0198094
1.26058
-0.0292436
1.57523
-0.0401509
1.86634
-0.0526223
2.14435
-0.067497
2.43162
-0.0848685
2.74055
-0.104374
3.05184
-0.124271
3.34486
-0.1377
3.01872
-0.138019
2.26952
-0.118086
1.70698
-0.085478
1.26629
-0.0371069
0.893195
0.0112982
0.579959
0.0520768
0.324507
0.0493457
0.188699
0.0217278
0.115533
0.0558825
-0.00434229
0.329225
-0.011444
0.855171
-0.0192855
1.26842
-0.0282608
1.58421
-0.0388615
1.87694
-0.0511276
2.15662
-0.0659066
2.4464
-0.0834566
2.7581
-0.103696
3.07208
-0.125445
3.36661
-0.140876
3.03415
-0.144339
2.27298
-0.133271
1.69591
-0.0974752
1.23049
-0.0449303
0.84065
0.0271143
0.507915
0.125487
0.226134
0.19693
0.117257
0.18304
0.129423
0.238922
-0.00417728
0.333402
-0.0110418
0.862036
-0.0189409
1.27632
-0.0280339
1.5933
-0.0388135
1.88772
-0.0514796
2.16929
-0.067123
2.46204
-0.0861939
2.77717
-0.109006
3.09489
-0.135034
3.39264
-0.15669
3.05581
-0.166693
2.28299
-0.154926
1.68414
-0.123498
1.19907
-0.0624357
0.779588
-0.00464514
0.450124
-0.0618237
0.283313
-0.356294
0.411727
-0.942893
0.716023
0.900809
-1.60478
-0.00403942
0.337441
-0.010885
0.868881
-0.0184778
1.28391
-0.0273025
1.60213
-0.0379935
1.89841
-0.0508505
2.18214
-0.0669951
2.47819
-0.0871059
2.79728
-0.111913
3.1197
-0.141693
3.42242
-0.168247
3.08236
-0.182815
2.29756
-0.188645
1.68997
-0.166211
1.17663
-0.136218
0.749595
-0.231129
0.545035
-0.693455
0.745639
-1.44594
1.16421
-2.05269
1.32277
1.21648
-2.36836
-0.0037979
0.341239
-0.0102499
0.875333
-0.0177214
1.29138
-0.0264856
1.61089
-0.0370765
1.909
-0.049971
2.19504
-0.0664558
2.49467
-0.0873934
2.81822
-0.114002
3.14631
-0.147457
3.45587
-0.180572
3.11548
-0.204974
2.32196
-0.211708
1.6967
-0.19797
1.16289
-0.283623
0.835248
-0.753268
1.01468
-1.54896
1.54133
-2.11209
1.72734
-2.35077
1.56146
1.33052
-2.46481
-0.00366665
0.344906
-0.00992469
0.881591
-0.0170132
1.29847
-0.0254425
1.61932
-0.0358612
1.91942
-0.0488675
2.20804
-0.0657452
2.51155
-0.0876154
2.84009
-0.116126
3.17482
-0.153348
3.4931
-0.19239
3.15452
-0.222628
2.3522
-0.24806
1.72214
-0.324855
1.23969
-0.682156
1.19255
-1.43981
1.77233
-2.02838
2.1299
-2.26771
1.96668
-2.38068
1.67443
1.39451
-2.44467
-0.00334619
0.348252
-0.00911025
0.887356
-0.0159836
1.30535
-0.0242839
1.62762
-0.0346111
1.92975
-0.0475776
2.22101
-0.0646557
2.52863
-0.0871806
2.86262
-0.117339
3.20498
-0.158361
3.53412
-0.205129
3.20129
-0.248143
2.39521
-0.288027
1.76202
-0.468691
1.42035
-1.09461
1.81847
-1.78963
2.46735
-2.10901
2.44928
-2.25686
2.11453
-2.3388
1.75637
1.46042
-2.40471
-0.00333494
0.351587
-0.00915312
0.893174
-0.0158957
1.31209
-0.0241107
1.63584
-0.0346428
1.94028
-0.0479861
2.23435
-0.0656751
2.54632
-0.0892859
2.88623
-0.121381
3.23707
-0.165997
3.57873
-0.21872
3.25401
-0.264768
2.44126
-0.352763
1.85001
-0.744931
1.81252
-1.4911
2.56464
-1.96321
2.93947
-2.16296
2.64903
-2.26905
2.22061
-2.34614
1.83346
1.5238
-2.40952
-0.00339065
0.354978
-0.00929307
0.899076
-0.0165337
1.31933
-0.0253528
1.64466
-0.0364554
1.95139
-0.050398
2.2483
-0.0688946
2.56482
-0.0936569
2.91099
-0.127719
3.27113
-0.176529
3.62754
-0.23454
3.31202
-0.296183
2.5029
-0.483406
2.03724
-1.04607
2.37519
-1.67881
3.19737
-1.95338
3.21403
-2.10007
2.79572
-2.21381
2.33435
-2.30733
1.92698
1.58538
-2.36891
-0.0035211
0.358499
-0.00997799
0.905533
-0.0174865
1.32684
-0.0265955
1.65376
-0.0381611
1.96295
-0.0528575
2.26299
-0.0723625
2.58432
-0.0985919
2.93722
-0.134813
3.30736
-0.187176
3.67991
-0.250065
3.37491
-0.335331
2.58817
-0.616908
2.31882
-1.26402
3.0223
-1.7524
3.68575
-1.95934
3.42097
-2.09896
2.93533
-2.2226
2.45799
-2.33286
2.03724
1.64393
-2.3914
-0.00343819
0.361937
-0.0098986
0.911993
-0.0180829
1.33502
-0.0279975
1.66368
-0.0402462
1.9752
-0.0555792
2.27833
-0.0759201
2.60466
-0.103301
2.9646
-0.141399
3.34545
-0.197242
3.73575
-0.265395
3.44306
-0.389338
2.71211
-0.775172
2.70465
-1.41035
3.65748
-1.76236
4.03777
-1.93505
3.59366
-2.03673
3.03702
-2.12511
2.54637
-2.1921
2.10422
1.63663
-2.1848
-0.00346243
0.365399
-0.010604
0.919135
-0.0190332
1.34345
-0.0291968
1.67384
-0.0419449
1.98795
-0.0581155
2.2945
-0.0795421
2.62609
-0.108454
2.99351
-0.148638
3.38564
-0.206054
3.79316
-0.284309
3.52132
-0.453938
2.88174
-0.906514
3.15722
-1.4625
4.21346
-1.72382
4.29909
-1.87516
3.745
-1.96829
3.13015
-1.96941
2.5475
-1.89995
2.03476
1.60043
-1.86375
-0.00319793
0.368597
-0.0100921
0.926029
-0.0192745
1.35263
-0.0303355
1.6849
-0.0437357
2.00135
-0.0602828
2.31104
-0.082024
2.64783
-0.11115
3.02264
-0.151571
3.42606
-0.208825
3.85042
-0.294856
3.60735
-0.498892
3.08578
-0.988639
3.64697
-1.42936
4.65418
-1.59408
4.46381
-1.66098
3.8119
-1.66528
3.13445
-1.51749
2.39971
-1.01742
1.53469
0.58301
-0.00282091
0.371418
-0.0106644
0.933873
-0.0200203
1.36199
-0.0313337
1.69622
-0.0455357
2.01555
-0.0635454
2.32905
-0.0873577
2.67164
-0.119466
3.05475
-0.164082
3.47067
-0.22765
3.91399
-0.33011
3.70981
-0.584301
3.33997
-1.12414
4.18681
-1.4822
5.01224
-1.58123
4.56284
-1.5789
3.80957
-1.47494
3.03049
-1.23603
2.1608
-0.631825
0.930481
-0.0488157
-0.00244622
0.373864
-0.00931755
0.940744
-0.0195515
1.37222
-0.0322338
1.7089
-0.0477126
2.03103
-0.0669483
2.34829
-0.0924541
2.69715
-0.126961
3.08925
-0.175686
3.5194
-0.245735
3.98404
-0.368711
3.83278
-0.682967
3.65422
-1.24264
4.74649
-1.50273
5.27232
-1.56093
4.62104
-1.53864
3.78729
-1.33678
2.82863
-0.782884
1.60691
-0.108771
0.256367
-0.157586
-0.00173771
0.375602
-0.00953812
0.948544
-0.0196134
1.3823
-0.0322412
1.72153
-0.0482886
2.04708
-0.0689632
2.36896
-0.0966456
2.72483
-0.134392
3.127
-0.187089
3.57209
-0.264857
4.0618
-0.413102
3.98103
-0.785539
4.02666
-1.32085
5.2818
-1.49692
5.4484
-1.52806
4.65218
-1.43986
3.69909
-1.10201
2.49078
-0.313097
0.817989
0.024839
-0.0815684
-0.132747
-0.00057705
0.376179
-0.00662918
0.954597
-0.0175465
1.39321
-0.0317891
1.73577
-0.0491978
2.06448
-0.0710289
2.3908
-0.100244
2.75404
-0.139995
3.16675
-0.195433
3.62753
-0.28176
4.14813
-0.45681
4.15608
-0.89513
4.46498
-1.36621
5.75287
-1.48223
5.56442
-1.48493
4.65488
-1.25964
3.47379
-0.686305
1.91744
-0.0625611
0.194245
0.030344
-0.174473
-0.102403
0.000133665
0.376046
-0.0057272
0.960457
-0.0160214
1.40351
-0.0297857
1.74953
-0.0472021
2.0819
-0.0703013
2.41389
-0.101542
2.78529
-0.144213
3.20942
-0.203033
3.68635
-0.298684
4.24378
-0.499915
4.35731
-0.988218
4.95329
-1.36172
6.12637
-1.42591
5.62862
-1.37913
4.6081
-1.09035
3.18501
-0.32244
1.14954
0.00514832
-0.133343
0.0152363
-0.184561
-0.087167
0.00329002
0.372756
0.000346759
0.963401
-0.0109933
1.41485
-0.0265998
1.76514
-0.0452314
2.10053
-0.0693654
2.43803
-0.101621
2.81754
-0.145404
3.25321
-0.206585
3.74753
-0.309939
4.34714
-0.53694
4.58431
-1.0498
5.46614
-1.3256
6.40217
-1.36624
5.66926
-1.22589
4.46775
-0.771961
2.73108
-0.0687032
0.446277
0.0448511
-0.246897
0.0244996
-0.16421
-0.0626675
0.00454976
0.368206
0.00261147
0.965339
-0.00710264
1.42456
-0.0207823
1.77882
-0.0385065
2.11826
-0.0634426
2.46296
-0.0971211
2.85122
-0.143284
3.29937
-0.207388
3.81164
-0.319338
4.45909
-0.577144
4.84212
-1.07274
5.96174
-1.26221
6.59164
-1.27106
5.67811
-1.05162
4.24831
-0.460225
2.13969
-0.0180677
0.00411949
-0.00623076
-0.258734
0.00516347
-0.175604
-0.057504
0.00867131
0.359534
0.00993192
0.964078
0.00232983
1.43217
-0.0122502
1.7934
-0.0313696
2.13738
-0.0567871
2.48838
-0.0904426
2.88487
-0.135991
3.34492
-0.201226
3.87687
-0.318497
4.57636
-0.596679
5.1203
-1.048
6.41306
-1.17211
6.71575
-1.15797
5.66397
-0.897093
3.98743
-0.263486
1.50609
-0.0709548
-0.188412
-0.0389338
-0.290755
-0.0141076
-0.20043
-0.0716116
0.0115584
0.347976
0.0162762
0.959361
0.0113684
1.43707
0.00111709
1.80365
-0.0172127
2.15571
-0.0417792
2.51295
-0.0753993
2.91849
-0.122053
3.39157
-0.188404
3.94323
-0.310513
4.69847
-0.597758
5.40754
-0.985636
6.80094
-1.0505
6.78061
-0.978614
5.59208
-0.678437
3.68726
-0.0736041
0.901253
0.0137315
-0.275747
-0.00105982
-0.275964
-0.00207648
-0.199414
-0.073688
0.0185058
0.32947
0.0300576
0.947809
0.0283491
1.43878
0.0166839
1.81532
-0.00173341
2.17412
-0.0246089
2.53582
-0.0566216
2.95051
-0.100534
3.43548
-0.16451
4.0072
-0.284821
4.81878
-0.562616
5.68534
-0.870086
7.10841
-0.90463
6.81516
-0.806812
5.49426
-0.448997
3.32944
0.06509
0.387166
0.0749804
-0.285638
0.0554946
-0.256478
0.0213337
-0.165253
-0.0523543
0.0244221
0.305048
0.0426755
0.929555
0.0459122
1.43554
0.0394128
1.82182
0.0270847
2.18645
0.00562124
2.55729
-0.0243136
2.98044
-0.0665724
3.47774
-0.128132
4.06876
-0.243576
4.93422
-0.492027
5.93379
-0.71342
7.3298
-0.74588
6.84762
-0.636095
5.38448
-0.307482
3.00083
-0.00444231
0.0841264
0.0159939
-0.306074
0.0312221
-0.271706
0.0164453
-0.150476
-0.035909
0.035158
0.26989
0.0652006
0.899513
0.0757122
1.42503
0.0715658
1.82596
0.0600504
2.19797
0.0407677
2.57657
0.0141126
3.0071
-0.0228424
3.5147
-0.0768224
4.12274
-0.174564
5.03196
-0.375249
6.13447
-0.530109
7.48466
-0.55184
6.86935
-0.460734
5.29337
-0.182158
2.72225
-0.0644731
-0.0335584
-0.0480211
-0.322526
-0.0190045
-0.300723
-0.00255942
-0.166921
-0.0384684
0.0446093
0.225281
0.0872379
0.856884
0.107572
1.4047
0.112377
1.82116
0.108473
2.20187
0.0946898
2.59035
0.073965
3.02782
0.0422471
3.54641
-0.00799683
4.17299
-0.0817739
5.10574
-0.217895
6.2706
-0.306251
7.57301
-0.323655
6.88675
-0.265642
5.23536
-0.0533328
2.50994
-0.0795055
-0.0073857
-0.0759728
-0.326059
-0.0352036
-0.341492
0.0104384
-0.212563
-0.02803
0.0577551
0.167526
0.120243
0.794397
0.156314
1.36863
0.167832
1.80964
0.167194
2.20251
0.157103
2.60044
0.142951
3.04197
0.122419
3.56695
0.0901789
4.20523
0.0464173
5.1495
-0.00150773
6.31852
-0.0387887
7.6103
-0.0417262
6.88969
-0.0411083
5.23474
-0.0272181
2.49605
-0.214975
0.180371
-0.201833
-0.339201
-0.105032
-0.438294
0.0100742
-0.327669
-0.0179558
0.060098
0.107428
0.150294
0.7042
0.206846
1.31208
0.233935
1.78255
0.245755
2.19069
0.245304
2.60089
0.239947
3.04733
0.229015
3.57788
0.213793
4.22045
0.195863
5.16743
0.257439
6.25695
0.311483
7.55625
0.282431
6.91874
0.0991414
5.41803
-0.229356
2.82455
-0.556092
0.507107
-0.556068
-0.339224
-0.406848
-0.587514
-0.181621
-0.552896
-0.199577
0.0505175
0.0569102
0.183078
0.57164
0.277564
1.21759
0.321982
1.73813
0.341113
2.17156
0.348538
2.59347
0.349761
3.04611
0.354658
3.57298
0.363588
4.21152
0.388546
5.14247
0.544498
6.10099
0.71307
7.38768
0.724448
6.90736
0.60905
5.53343
0.128277
3.30532
-0.431369
1.06675
-0.699833
-0.0707609
-0.596137
-0.69121
-0.325061
-0.823972
-0.524638
0.0348429
0.0220673
0.217782
0.388701
0.343461
1.09191
0.420174
1.66142
0.460991
2.13074
0.484502
2.56996
0.494172
3.03644
0.511005
3.55615
0.542817
4.17971
0.61123
5.07406
0.895007
5.81722
1.31842
6.96427
1.62545
6.60033
1.82573
5.33314
1.47282
3.65824
0.749675
1.7899
0.16192
0.516994
-0.158633
-0.370657
-0.201865
-0.780739
-0.726503
0.0310664
-0.00899915
0.23638
0.183388
0.442395
0.885895
0.554359
1.54946
0.605095
2.08
0.637992
2.53706
0.659882
3.01455
0.6899
3.52613
0.749002
4.1206
0.876067
4.947
1.2614
5.43189
1.95718
6.26848
2.33031
6.22721
2.54626
5.11719
2.39907
3.80542
1.81561
2.37336
1.24326
1.08935
0.620887
0.251715
0.204444
-0.364296
-0.522059
0.0268195
-0.0358186
0.166496
0.0437114
0.489463
0.562928
0.68034
1.35858
0.778112
1.98223
0.82867
2.4865
0.864546
2.97867
0.892811
3.49786
0.96853
4.04488
1.11326
4.80227
1.49532
5.04982
2.28155
5.48226
2.65731
5.85145
2.84934
4.92516
2.74383
3.91093
2.25873
2.85846
1.60761
1.74047
1.00456
0.854764
0.442223
0.198041
-0.0798359
0.0063293
-0.0421479
0.086018
-0.0359772
0.413376
0.23557
0.696256
1.0757
0.825326
1.85316
0.864166
2.44766
0.87648
2.96636
0.863884
3.51046
0.861812
4.04696
0.904877
4.7592
1.04723
4.90747
1.4715
5.05798
1.6464
5.67655
1.67352
4.89805
1.59421
3.99023
1.37445
3.07823
1.01111
2.1038
0.641474
1.2244
0.259606
0.579909
0.17977
0.00232849
-0.0444764
0.0429466
-0.0765953
0.226226
0.0522901
0.524494
0.777433
0.691606
1.68605
0.744441
2.39483
0.757594
2.95321
0.752923
3.51513
0.737121
4.06276
0.75821
4.73811
0.823473
4.84221
1.09452
4.78694
1.29699
5.47407
1.3005
4.89454
1.23847
4.05226
1.0843
3.23239
0.807181
2.38093
0.504053
1.52753
0.211748
0.872214
0.391518
0.00248979
-0.0469662
0.0234517
-0.0975572
0.100431
-0.0246894
0.36203
0.515835
0.539336
1.50874
0.621324
2.31284
0.639482
2.93505
0.637948
3.51666
0.611966
4.08874
0.604951
4.74513
0.632822
4.81434
0.793654
4.62611
0.975165
5.29256
0.969189
4.90052
0.908035
4.11342
0.791104
3.34932
0.599062
2.57297
0.367769
1.75883
0.146128
1.09385
0.537646
-0.0108981
-0.0360681
-0.00842345
-0.100032
0.0299783
-0.0630911
0.241604
0.304209
0.407392
1.34296
0.484969
2.23526
0.507416
2.9126
0.511986
3.51209
0.493635
4.10709
0.4767
4.76206
0.478935
4.8121
0.575256
4.52979
0.706785
5.16103
0.702276
4.90503
0.639017
4.17668
0.543947
3.44439
0.408924
2.70799
0.241469
1.92628
0.0858462
1.24948
0.623493
-0.00139834
-0.0346697
0.0228932
-0.124323
0.0609
-0.101098
0.185999
0.17911
0.319434
1.20952
0.373273
2.18142
0.382636