/*--------------------------------*- C++ -*----------------------------------*\
| =========                 |                                                 |
| \\      /  F ield         | OpenFOAM: The Open Source CFD Toolbox           |
|  \\    /   O peration     | Version:  4.0                                   |
|   \\  /    A nd           | Web:      www.OpenFOAM.org                      |
|    \\/     M anipulation  |                                                 |
\*---------------------------------------------------------------------------*/
FoamFile
{
    version     2.0;
    format      ascii;
    class       surfaceScalarField;
    location    "17";
    object      phi;
}
// * * * * * * * * * * * * * * * * * * * * * * * * * * * * * * * * * * * * * //

dimensions      [0 3 -1 0 0 0 0];

internalField   nonuniform List<scalar> 
1300
(
3.75095
5.62643
-6.10762
3.75095
-5.92784
5.62643
-4.55099
4.55099
-1.35777
1.35777
1.87666
1.87429
-3.02022
3.02022
-4.43594
4.43594
-2.72886
2.72886
-5.24649
5.24649
-5.06837
5.06837
4.68463
-4.68463
-4.83819
4.83819
-1.81213
1.81213
-3.73682
3.73682
3.17165
-3.17165
-4.79787
4.79787
-0.469069
0.469069
-0.553383
4.30434
3.19757
3.19757
-2.44584
2.44584
-4.85179
4.85179
6.21836
-6.21836
9.25815
-9.25815
-3.15053
-3.41528
1.32182
-8.16884
-4.60602
-4.60602
-8.44041
8.44041
-2.81398
2.81245
2.92719
-2.92719
-1.7507
1.7507
-4.51273
-0.038252
-4.51273
4.5137
0.0372827
4.5137
-1.45458
0.0968108
-1.45458
4.05382
-4.05382
1.19785
0.159922
1.19785
3.06476
-3.06476
-1.87716
3.75382
1.87379
-1.87161
6.17595
-1.87934
3.75363
-5.29017
5.29017
-2.99314
-0.0270827
-2.99314
3.2701
-0.249887
3.2701
-5.3242
5.3242
-4.29012
-0.145818
-4.29012
4.53443
-0.0984846
4.53443
2.95339
-2.95339
-2.76308
0.0342188
-2.76308
2.67764
0.0512196
2.67764
0.353564
5.27287
-5.97999
8.79245
-5.27287
0.0263723
5.20853
0.0379659
5.20853
-5.10612
0.0377521
-5.10612
5.00899
0.0593754
5.00899
4.77682
-0.09219
4.77682
-4.79928
0.114642
-4.79928
-3.328
-3.43252
-4.93625
0.0980549
-4.93625
-1.82899
0.0168539
-1.82899
1.7476
0.0645351
1.7476
-3.54269
3.54269
-4.19104
0.454219
-4.19104
3.12697
0.0446817
3.12697
1.86869
1.88226
5.61964
-5.61964
2.448
-4.72343
-0.0744361
-4.72343
-4.89204
-4.36612
4.89204
-0.0941671
-0.788431
0.319362
-0.788431
3.15946
0.0381106
3.15946
2.60184
0.0758001
-2.60184
0.156001
3.3826
-3.3826
1.80487
0.640968
1.80487
-5.57045
5.57045
4.949
0.05999
-4.949
0.0972118
6.15766
0.0607023
6.15766
-6.1996
-0.0187636
-6.1996
3.35467
-6.76994
-3.42579
4.72606
0.112127
-4.72606
0.120044
2.89484
0.0323483
2.89484
-2.91241
2.91241
-2.97902
0.0518302
-2.97902
-2.16717
0.416469
-2.16717
1.42797
0.322735
1.42797
-4.38456
-0.128178
-4.38456
-4.43503
0.243994
4.43503
0.0786725
0.904952
-0.904952
-1.5727
0.118124
-1.5727
-4.20818
-0.176372
4.20818
-0.154365
-3.93444
-0.119383
-3.93444
-3.02537
0.0463553
3.02537
0.039387
3.112
0.0474575
-3.112
0.0472415
-1.8708
3.75306
-1.88015
3.75395
-5.12471
-0.165462
-5.12471
5.27587
0.0142971
5.27587
3.33914
0.397675
-3.33914
0.346008
3.69962
-0.429512
3.69962
-5.33912
0.0149209
-5.33912
5.24455
0.0796545
5.24455
4.05283
-0.353215
-4.05283
-0.237291
4.59753
-0.0631035
4.59753
3.00638
-0.0529851
3.00638
-2.91075
-0.0426459
-2.91075
2.79647
-2.79647
2.77709
0.019385
-2.77709
0.0140124
-11.1327
11.114
-0.0351553
-11.0976
5.17337
5.17337
4.19954
0.577288
4.19954
-5.0099
0.210623
-5.0099
3.31812
-6.74391
3.42285
-6.75084
3.42722
-11.5961
3.35589
-6.78841
5.08261
-5.08261
5.01296
0.0696512
-5.01296
0.0767132
-1.8223
-0.00669088
-1.8223
-2.89765
-0.645043
-2.89765
4.13097
-0.588278
4.13097
-3.03262
3.03262
-3.08229
0.0496758
3.08229
0.0446745
4.65766
-0.060128
-4.65766
-0.0657756
1.00974
0.188105
-1.00974
0.22131
3.58179
-0.199185
3.58179
-3.20072
-0.181886
-3.20072
-1.81373
-0.00856593
1.81373
-0.00886155
-5.81813
0.247685
-5.81813
-11.1906
0.093031
-11.1527
-6.10657
-6.10657
2.33384
11.1263
-2.88608
-0.0246627
2.88608
0.00875513
2.97571
0.0569078
-2.97571
0.0633
-2.84867
0.0521907
2.84867
0.063742
-2.55502
0.387844
-2.55502
-0.996727
0.996727
-1.18962
0.192894
1.18962
0.238348
1.14073
-0.23578
1.14073
1.67809
0.069511
-1.67809
0.105385
-3.83318
-0.101252
-3.83318
5.25637
0.0195021
5.25637
-3.08187
-0.118849
3.08187
-0.075489
-0.033288
11.1473
-5.14008
0.033963
5.14008
-11.208
11.2419
-3.23764
0.682623
3.23764
0.961896
5.29578
0.27467
-5.29578
0.285879
5.16703
0.0775177
-5.16703
0.0844192
-2.37841
-0.519238
-2.37841
-4.73605
-0.388652
4.73605
-0.605081
-11.476
-0.202553
11.6786
-11.4167
6.02069
0.136974
-6.02069
11.3789
-0.864744
-0.0402084
0.864744
0.131983
1.46698
-0.326249
1.46698
3.74143
-0.15964
-3.74143
-0.0917563
-5.32369
-0.0154311
5.32369
-0.0673234
-1.89743
-0.480979
1.89743
-0.430453
-4.2665
4.30461
1.90945
-3.31442
-3.45553
-7.68053
1.8512
1.90186
4.29919
-7.16943
-4.42663
-7.04939
7.2753
-6.98942
-9.30554
9.21335
7.45772
-7.57711
-5.78055
5.82522
6.4816
-6.44221
1.8785
1.87532
6.29145
-6.31854
-15.9171
15.7516
9.40361
-9.54943
12.0248
-12.0099
-13.0691
13.1466
-5.75608
5.7903
-6.63512
6.59248
-6.80113
6.72564
-3.27089
-3.47995
9.27387
-9.17582
11.7007
-11.7751
-8.01029
8.46451
3.38279
0.921817
3.43025
-1.88185
3.76035
-1.87179
3.78124
3.43566
-6.70655
3.30825
-6.76378
6.08331
5.61738
-5.98914
-1.6914
-5.85347
5.88582
-5.81932
5.88307
8.97499
-9.01325
-1.88619
3.76152
-1.86775
3.76962
-3.42424
-2.35631
3.37956
0.919631
5.67127
3.60261
-5.78339
-1.26599
-7.66738
7.50774
-7.96992
7.78803
-0.458395
5.82713
-5.36873
4.3934
-1.55301
7.38014
5.72228
5.93291
5.8684
-5.59373
1.12102
-6.48975
-6.39254
-2.63161
2.74973
2.66679
-2.50686
5.88388
1.57385
5.72951
-5.48105
-2.09606
-5.5823
3.81614
2.00908
3.86582
4.06677
2.41483
4.11313
3.02846
-3.03647
0.00800916
-3.05799
6.08645
0.72505
-5.4143
-4.49467
4.41492
1.87653
4.16504
-4.51318
-1.80536
-4.16717
-9.89807
-6.01898
-10.2867
9.63271
6.11888
9.64701
-10.0203
9.95299
6.49042
2.91319
6.39193
-5.80356
-3.74587
-6.04085
10.7258
-1.75764
-8.96815
-7.60411
-5.46496
7.52446
4.50032
7.84561
5.30098
7.93003
3.37002
7.35577
-7.87034
2.40538
-3.84866
-1.90742
-3.83465
3.74409
2.04621
3.79531
-4.1299
-2.50522
-4.15456
-4.1956
-2.60553
4.24859
2.34389
-4.30025
-3.66966
4.4191
2.30654
3.14043
-7.56706
3.64798
-7.12793
-6.48011
-2.69571
-6.4034
4.21086
2.59701
-6.80787
-2.49569
10.9509
-5.33349
9.25947
-7.22689
-4.54823
-7.29267
-6.7294
-1.2809
-6.4854
-8.77397
8.25473
-9.18395
8.59567
13.0031
-6.27121
-6.73184
-3.97072
-2.4715
3.92348
-0.493228
-3.71036
3.71837
0.0499866
3.83122
4.75304
4.25981
-3.88957
-1.92975
-3.82627
3.8356
2.04746
3.88779
6.73914
2.23586
6.77642
-6.40985
-2.60339
-6.53803
9.07849
-8.66202
2.95048
-2.95904
5.20986
2.57817
-5.01068
-2.6567
6.0144
-3.03678
-2.97763
-12.2297
10.6029
1.62678
-4.84952
-0.45612
0.0129495
-5.51692
-3.78862
5.40228
0.530628
11.1335
7.34489
-5.51356
5.76124
6.16504
6.22503
-0.167514
5.84326
-5.16064
5.19821
-2.22684
-2.97137
5.25999
-5.43636
-1.27804
-5.23126
3.95321
0.29315
1.90507
-1.58571
-2.0836
-0.548012
-1.97821
1.62496
1.04183
1.81306
0.947653
1.80208
-3.00182
0.607974
2.39384
-2.05416
-1.89889
-3.54449
-0.912246
4.45674
5.47182
2.03592
-5.38007
-0.20223
2.73797
-2.67344
-0.749974
-2.79452
2.07287
-2.82284
-3.5225
-1.80623
5.32874
-3.36927
-0.457002
3.31236
0.553455
-3.80284
-2.05062
3.75101
0.362113
-3.13944
6.24318
-3.10374
-5.06919
2.53067
3.55578
4.53976
-4.78962
2.43984
2.34979
-1.23384
4.39414
-0.229101
3.96463
-5.51196
3.7066
5.02856
3.43595
-5.42624
1.25906
-4.25289
9.86933
-8.37124
-1.49809
5.78771
4.08162
7.56738
5.43567
-5.72458
13.292
-2.17602
-6.19522
6.42891
-2.99296
5.86477
-8.85773
-11.3004
5.10522
-10.582
10.2944
0.287625
-2.40751
-7.61281
12.9895
-2.05371
-10.9358
7.5933
-6.05242
-4.54661
10.599
-7.81006
8.29248
-3.54885
-4.74363
-7.90978
-4.10007
7.92521
2.02777
-9.68662
12.092
-2.33085
5.75568
0.636256
5.69258
5.06369
-5.80976
0.746071
2.74637
-6.29522
4.59741
-10.4072
-5.03185
9.76137
-4.72952
-7.72756
-6.99063
-0.736925
1.89395
10.1981
-7.19493
5.39435
1.80058
3.33798
0.549818
-3.35736
-0.477285
0.354423
4.46566
-4.82008
4.14973
4.22553
3.39005
1.07561
3.79216
2.09366
-3.80091
-0.353648
-4.06884
1.46331
-1.72494
-3.58388
5.04719
-4.0145
0.430617
-2.67696
-3.52619
6.20315
-4.58438
3.08028
3.1629
5.12774
-4.90858
1.38239
-2.42297
-2.48562
2.63212
-4.35706
1.9317
3.11549
4.23824
0.568578
4.98955
4.77182
-7.58656
0.458628
8.37443
-7.10843
1.84709
6.08294
-7.24144
0.250804
-6.15259
1.06905
-6.40253
-5.73882
5.5287
-6.8096
-3.32903
6.07828
0.698143
-6.15695
-0.328454
-5.87859
-2.89538
-6.35957
-3.15422
-6.02973
-8.8788
-1.57996
-7.29885
6.67477
-6.83303
-3.45369
7.43811
1.15756
-7.32369
7.28348
-7.3673
7.04105
0.0944042
3.62397
4.35422
1.88272
-2.39012
4.27284
-4.97008
7.20594
-8.43381
3.46372
3.97007
-6.57346
-4.46373
5.01572
4.06277
5.33846
9.00764
-10.6201
1.61251
-10.9914
12.1408
-1.1494
-16.7666
5.77523
-7.75897
2.69896
0.251513
2.69227
0.66546
2.40787
-3.07333
-2.29358
-2.30244
-2.24965
-3.29342
5.54306
1.09033
-3.32918
2.23884
-3.41397
4.5043
-0.102334
-3.22684
5.21578
-2.80791
5.46729
-3.51631
1.95098
3.20649
5.47649
-2.27
4.20888
-1.63071
1.74124
-4.01124
-1.55217
-2.99244
5.03865
-3.21071
3.64133
-0.218573
3.8599
-4.01081
0.974035
-0.620761
3.60477
3.76077
4.11671
-3.0411
2.87216
-4.50287
-1.13908
-3.93429
-0.818803
-0.251801
-3.73421
3.98601
6.13621
-6.38801
-5.29648
9.60214
-4.30566
7.72739
-5.42911
-2.29828
-4.27402
-4.388
3.88617
1.95709
9.68448
0.197301
-5.62641
-4.96334
-4.00144
3.2034
1.99481
-2.08673
3.71351
2.07378
-0.168708
0.618945
1.19412
1.91174
-1.2928
0.170282
1.74146
-1.41543
1.9985
0.739476
-2.06801
0.0897979
-1.34292
3.41579
1.05092
-2.09275
0.799953
1.13083
-3.35767
4.66906
-2.34375
-2.32532
5.79989
1.17992
-3.52366
4.05134
-3.75819
2.29425
-3.2065
-1.22941
-4.9876
-3.41375
-2.43253
4.67137
-3.11054
5.14645
1.14887
-4.94422
6.09309
-3.50505
1.69881
-2.98593
3.72541
-0.999259
-1.98667
2.72145
2.60729
-2.81045
0.0159329
-0.0889979
2.30978
-2.39878
-0.513059
-2.56722
-4.55326
4.91538
-2.13441
4.57425
2.13843
-1.9168
6.49105
1.812
-3.7288
-3.2572
-3.7142
-1.37901
3.16074
-1.58062
-4.46023
-6.32424
4.81345
-0.848823
-6.55123
9.09997
-2.54874
-4.6747
0.968103
4.81961
-8.12106
1.82584
-3.52364
5.57633
5.34723
4.49841
-12.3238
1.38797
-6.20489
2.37909
-8.58399
6.46071
-3.37235
8.47758
-11.0772
7.62348
-9.91961
6.97949
-1.6045
5.685
-4.93893
3.28315
-7.38322
-5.35545
6.82718
-3.91399
7.46343
-4.35418
11.8176
-6.68504
7.02438
4.79324
-1.47592
-5.81675
-6.84008
5.36416
0.184299
5.87687
4.9561
-2.86244
4.60245
2.25983
-4.6828
-2.09723
-6.55251
1.86972
-3.38962
-1.91251
3.78223
3.21523
3.76505
1.29661
-3.28777
6.88934
-7.62626
-2.15981
-3.57901
6.79478
-1.43061
4.15599
-7.73499
-2.24655
4.92913
-0.921361
-4.00777
1.34208
-4.67111
1.58807
-6.25919
5.22152
-5.54998
2.15763
-9.91659
-5.16606
-5.03408
-2.20662
-5.16067
-7.66226
5.45563
-1.88703
5.39645
-8.70777
7.78641
-3.433
8.88863
-5.29959
-1.05998
5.73004
1.311
10.1996
0.139488
-4.60322
-1.77982
3.88963
-2.10981
1.42358
-3.59473
0.294907
2.48399
3.3159
-6.43721
-0.136256
-4.73948
-3.91561
7.97838
5.68653
11.8227
1.2026
9.19796
-1.21959
10.4006
4.11887
4.35722
-3.01842
4.63093
0.96759
4.43131
-0.828204
2.77919
1.86407
1.88092
0.792517
2.29488
1.46589
3.26891
0.195582
-2.10686
4.66253
-8.66397
-0.963885
-8.08668
1.12666
5.75606
-4.6294
3.11491
-1.1201
1.0051
0.223449
-1.81432
1.59087
-2.74792
-1.98303
-0.241568
-1.54088
2.34083
1.87491
-2.09926
-0.648657
0.288091
-3.70184
2.9184
-2.90247
-0.295185
5.79791
-2.73238
0.333596
-1.03356
-2.23363
-2.78164
2.69184
6.22934
0.261705
3.1256
5.17708
3.12646
0.264012
7.20893
-6.9213
-3.19825
-5.53333
0.927376
5.74699
2.27587
7.92218
7.0691
5.63849
-2.0965
-9.72277
6.49609
-1.86515
5.34669
-1.33892
-4.92027
4.89419
2.31175
-5.59234
0.0423587
-4.87791
-6.74306
-0.580476
8.36689
-9.61916
8.55918
5.6638
1.63504
-4.36507
-0.669009
4.17218
0.185043
10.5856
-1.14237
-6.89978
8.04214
-4.61369
3.64981
0.916701
2.79681
2.50757
1.38747
-5.5123
-10.1417
-1.76242
-1.59525
-4.08774
0.368997
-2.24391
6.27888
-2.62907
3.9806
5.41308
6.41817
-2.18991
-4.1981
6.49558
-2.51498
3.90319
)
;

boundaryField
{
    wall-4
    {
        type            calculated;
        value           uniform 0;
    }
    velocity-inlet-5
    {
        type            calculated;
        value           uniform -3.75095;
    }
    velocity-inlet-6
    {
        type            calculated;
        value           uniform -5.62643;
    }
    pressure-outlet-7
    {
        type            calculated;
        value           nonuniform List<scalar> 8(6.10762 5.92784 6.56581 6.84702 6.76051 6.78046 6.74097 6.78312);
    }
    wall-8
    {
        type            calculated;
        value           uniform 0;
    }
    frontAndBackPlanes
    {
        type            empty;
        value           nonuniform 0();
    }
}


// ************************************************************************* //
