/*--------------------------------*- C++ -*----------------------------------*\
| =========                 |                                                 |
| \\      /  F ield         | OpenFOAM: The Open Source CFD Toolbox           |
|  \\    /   O peration     | Version:  4.0                                   |
|   \\  /    A nd           | Web:      www.OpenFOAM.org                      |
|    \\/     M anipulation  |                                                 |
\*---------------------------------------------------------------------------*/
FoamFile
{
    version     2.0;
    format      ascii;
    class       volVectorField;
    location    "17";
    object      U;
}
// * * * * * * * * * * * * * * * * * * * * * * * * * * * * * * * * * * * * * //

dimensions      [0 1 -1 0 0 0 0];

internalField   nonuniform List<vector> 
918
(
(0.98516 -0.000504023 0)
(0.005005 2.96625 0)
(-0.00801521 1.61786 0)
(0.979715 0.00212291 0)
(-0.00324232 1.57871 3.95881e-21)
(-0.0070334 2.94879 -1.88351e-18)
(0.850353 1.20606 7.29403e-19)
(0.46278 0.215176 -9.18268e-21)
(0.99991 -0.00030513 0)
(0.00455073 0.889873 0)
(-0.00576561 1.27986 0)
(0.796452 -0.00780755 0)
(0.0110989 2.93039 0)
(0.00134986 2.79473 0)
(-0.0182597 3.16896 1.08353e-18)
(-0.0062127 1.49123 -1.11554e-20)
(0.574292 0.0999474 5.75596e-19)
(0.179712 1.15954 6.45991e-19)
(0.963361 0.00509202 0)
(-0.00406448 1.39786 0)
(0.153421 0.262518 -4.88486e-19)
(1.00184 -0.00502557 0)
(1.00027 -0.00973411 0)
(0.975782 -0.00649195 0)
(0.713467 -0.0294064 0)
(0.0184711 2.6302 0)
(-0.0152221 2.91022 6.51952e-19)
(-0.0188835 1.64175 0)
(-0.0191052 1.75406 0)
(-0.0181548 1.63769 0)
(-0.00423618 1.82467 0)
(-0.00236175 1.6024 -3.13226e-21)
(-0.00473632 1.49603 0)
(-0.0206241 2.98758 -6.59304e-23)
(-0.0167036 3.0053 1.46406e-18)
(0.0021027 3.00021 0)
(0.865616 -0.00800467 0)
(0.389594 0.927624 -2.25681e-20)
(0.842715 1.21644 -1.02231e-18)
(0.993715 1.06106 9.61459e-19)
(0.708424 1.30785 -1.70365e-19)
(0.703217 1.28921 9.6062e-19)
(0.488687 0.285785 8.95964e-21)
(0.479401 0.191244 0)
(1.17877 0.570433 0)
(0.461253 0.31013 4.21972e-20)
(0.420948 0.21075 -4.3788e-20)
(0.919826 -0.0072723 0)
(1.00037 9.21852e-05 0)
(0.999918 0.000326942 0)
(1.00343 -0.00779234 0)
(1.00096 -0.00106787 0)
(1.00017 -8.28013e-06 0)
(0.0689971 1.62929 -2.97271e-19)
(0.0112674 0.95777 0)
(0.0484806 0.859111 0)
(-0.0346353 1.00994 0)
(-0.0272532 0.952854 0)
(-0.000489841 1.58176 0)
(-0.0135749 1.42295 0)
(-0.0184053 1.24808 0)
(-0.00793087 1.47261 0)
(-0.0051394 1.30185 0)
(0.874126 -0.000380334 0)
(0.884106 0.00983055 0)
(0.809233 -0.00209967 0)
(0.877011 0.014601 0)
(0.781385 -0.00882202 0)
(0.0146988 3.0004 6.89746e-19)
(0.0115191 3.00789 0)
(0.00613368 3.00284 0)
(0.0135369 2.99732 7.69304e-24)
(0.00799571 2.95847 -1.02513e-18)
(0.014497 2.98211 0)
(0.0107957 2.90362 0)
(0.0249433 2.93049 1.38462e-24)
(0.00417322 2.82512 0)
(0.0314871 2.91546 0)
(-0.00635278 2.74351 0)
(0.309738 3.56734 0)
(-0.132653 3.64937 0)
(0.139941 3.25959 -1.00839e-18)
(-0.0112255 2.9927 0)
(-0.0138819 1.80259 0)
(-0.0038655 1.63368 1.10047e-20)
(-0.00509226 1.50437 -1.86184e-20)
(0.631056 0.160738 -1.98325e-19)
(0.583915 0.0570008 -1.93834e-19)
(0.600585 0.194444 -5.96383e-19)
(0.548721 0.125087 -3.96931e-19)
(0.249597 0.931924 0)
(0.270616 1.30482 -6.54371e-19)
(0.36337 1.27938 1.07824e-18)
(0.987893 0.00847712 0)
(0.943341 0.00606379 0)
(1.00031 0.000551771 0)
(1.00288 0.00928473 0)
(1.00297 0.00835756 -1.11658e-18)
(0.99202 0.00977887 8.43035e-19)
(-0.0173539 1.53557 0)
(-0.00721594 1.38254 0)
(-0.0270064 1.64706 0)
(-0.0213894 1.57382 0)
(-0.00323835 1.43375 0)
(0.227209 0.280572 1.50429e-19)
(0.276286 0.259919 0)
(0.993595 -0.00824894 0)
(0.954432 -0.00665847 0)
(0.850131 0.0197521 0)
(0.81665 0.0331473 0)
(0.759953 -0.0205813 0)
(1.00983 -0.00574611 0)
(0.761927 0.0502364 0)
(0.627827 -0.0148124 7.71797e-19)
(-0.0355612 2.86577 3.34899e-19)
(0.0435136 2.90752 0)
(0.057028 2.88308 0)
(-0.00574087 2.69612 0)
(-0.0129057 2.98543 5.99134e-19)
(-0.0182986 2.89567 0)
(-0.0153045 2.98816 -1.89554e-18)
(-0.0134429 2.92526 6.54618e-19)
(-0.0161928 1.81234 0)
(-0.0126103 1.80791 0)
(-0.00274128 1.63122 -2.16517e-22)
(-0.00231242 1.60102 0)
(-0.00580363 1.49307 0)
(0.930511 -0.00529801 0)
(0.852502 -0.0072832 0)
(0.860328 0.00940185 0)
(0.945249 -0.00625372 0)
(0.884067 -0.00712693 0)
(0.503799 1.12233 1.7791e-20)
(0.556108 1.17792 0)
(0.347415 0.863494 5.56634e-21)
(0.29133 0.726198 0)
(0.954128 1.09428 -2.76942e-19)
(1.06779 0.897007 5.64927e-19)
(0.424694 1.3814 0)
(0.5536 1.37015 0)
(0.554551 1.31725 0)
(0.0932682 0.13416 -1.25765e-19)
(0.520548 0.265974 0)
(0.505116 0.168053 1.14146e-19)
(1.03753 0.947345 0)
(1.10413 0.790552 0)
(1.13061 0.734878 -4.89274e-19)
(1.15757 0.628479 0)
(1.20875 0.409359 5.94957e-20)
(0.95629 -0.00799077 0)
(0.962074 -0.0094064 0)
(0.902223 -0.00803601 0)
(0.984226 -0.00903862 0)
(0.974833 -0.0094484 0)
(0.936724 -0.00625086 0)
(1.00007 0.00226017 0)
(1.00093 0.00150045 0)
(0.999884 0.000850609 0)
(0.0212509 1.86582 1.81207e-19)
(0.0693143 1.58503 0)
(0.0282859 1.85021 2.04582e-19)
(0.0174192 1.60307 -1.52089e-19)
(0.107323 1.16252 -5.3581e-19)
(0.0632624 1.01755 0)
(0.129351 0.984053 0)
(-0.0581863 1.12597 0)
(-0.0412406 1.0779 0)
(0.0137667 1.73709 -9.21255e-22)
(0.00724845 1.59984 0)
(-0.00265534 1.71822 -3.48353e-20)
(-0.0097742 1.56721 6.93807e-20)
(-0.0456875 1.26149 0)
(-0.0295329 1.36076 0)
(-0.0287828 1.17954 0)
(-0.00989338 1.5029 0)
(-0.00618681 1.32024 0)
(0.953588 0.0144565 0)
(0.894625 0.00182208 0)
(0.934484 0.00958491 0)
(0.861851 0.000322598 0)
(0.813327 0.000218461 0)
(0.904838 0.00487353 0)
(0.896524 0.00402004 0)
(0.808373 -0.00437824 0)
(0.00585885 3.06481 -6.07126e-21)
(0.0164685 3.05808 0)
(0.0147436 2.96916 0)
(0.00850984 2.87631 0)
(0.926811 3.98544 0)
(1.24204 3.31389 1.01234e-18)
(0.0715421 3.08501 0)
(-0.0258977 2.9125 0)
(-0.0160243 1.79644 0)
(-0.0165503 1.79851 0)
(-0.0148945 1.79711 0)
(-0.00859957 1.81264 4.51147e-21)
(-0.0128495 1.8101 0)
(-0.0108975 1.80846 0)
(-0.00221947 1.51294 1.16831e-21)
(0.000532035 1.66217 1.99875e-20)
(-0.0010455 1.64895 1.90308e-20)
(-0.00193764 1.50416 0)
(0.654633 0.116527 2.90909e-19)
(0.594107 0.0256412 -2.8351e-19)
(0.214615 1.51252 0)
(0.291682 0.701997 -2.28095e-19)
(0.137014 1.62765 -7.5219e-19)
(0.171937 1.18337 7.51691e-19)
(0.903851 0.00873096 0)
(0.968469 0.0114105 0)
(0.975144 0.0106081 0)
(0.925687 0.00713733 0)
(-0.0139216 1.51747 0)
(-0.0152887 1.52345 0)
(-0.00723801 1.34701 0)
(0.418527 0.320753 3.88192e-19)
(0.352468 0.301414 -4.73452e-19)
(0.363754 0.234294 0)
(1.12926 0.0829554 -2.60763e-21)
(1.11441 0.0376814 0)
(1.04438 0.0349903 0)
(0.954906 0.00621257 0)
(0.670685 0.0880554 0)
(0.701105 0.0632405 -1.24286e-18)
(0.605537 0.0115157 4.74722e-19)
(0.00994247 2.98236 4.24213e-19)
(-0.0321861 2.86815 4.8823e-20)
(0.00381396 3.05016 -1.31103e-20)
(0.0199888 3.04356 4.71905e-19)
(-0.0150398 2.99656 2.17593e-20)
(-0.0129807 2.94945 -8.81126e-23)
(-0.0172676 3.012 -4.12559e-19)
(0.0147626 3.0241 2.97972e-19)
(0.00726276 3.03667 -4.65704e-19)
(0.93007 0.00722928 0)
(0.93023 0.00108396 0)
(0.848664 -0.00275428 0)
(0.956793 0.0129639 0)
(0.942747 0.0131777 0)
(0.882094 0.00815847 0)
(0.914418 0.0103302 0)
(0.924691 0.0143221 0)
(0.833244 0.00684649 0)
(0.71322 1.40742 3.17275e-19)
(0.749013 1.51898 0)
(0.219107 0.36596 2.57644e-20)
(0.169294 0.563923 2.06846e-19)
(0.256583 0.680263 -1.20833e-19)
(0.221207 0.566539 2.22576e-19)
(0.287848 0.667214 7.25785e-19)
(0.109368 0.16178 2.12814e-19)
(0.576275 0.221988 4.2709e-19)
(0.547179 0.246498 1.05748e-19)
(0.528979 0.152869 2.14864e-19)
(1.19686 0.465501 2.87845e-19)
(1.21221 0.258181 3.01852e-19)
(0.0338061 1.78981 6.77299e-20)
(0.0255184 1.5795 0)
(0.997049 0.0265361 0)
(0.965404 0.0172331 0)
(0.918606 -0.000764715 0)
(0.0109153 3.07453 0)
(0.0199298 2.94404 8.1043e-19)
(0.0165743 2.9564 0)
(0.00613622 2.8508 -8.03841e-19)
(0.0060794 3.09127 1.92108e-19)
(0.00747825 3.08274 0)
(0.782935 1.82443 -2.36463e-19)
(1.24885 2.50906 6.48993e-19)
(0.765702 1.96626 -1.48458e-18)
(0.021303 2.98463 -3.10622e-19)
(0.0376793 3.00862 0)
(-0.0316089 2.88307 0)
(-0.00411544 1.6805 -4.36226e-21)
(-0.0017644 1.67419 -4.52491e-20)
(-0.00285376 1.5354 -6.34169e-21)
(0.25031 1.32425 7.12753e-19)
(0.251727 0.462192 -4.94462e-19)
(0.0385099 1.85091 4.86731e-19)
(0.103922 1.76506 -6.33596e-19)
(0.115741 1.41752 1.10214e-19)
(0.00265526 3.11836 -1.13581e-18)
(0.0176727 3.11773 1.2137e-18)
(-0.0085991 2.98125 5.19769e-19)
(-0.00256238 2.97793 -4.60281e-19)
(-0.0214114 2.88255 -5.29366e-19)
(0.00885771 3.09928 -1.40819e-18)
(0.00247345 3.10643 1.36759e-18)
(0.222542 0.589719 0)
(0.152373 0.562736 -3.94694e-19)
(0.134619 0.18673 1.74955e-19)
(0.320797 0.796911 6.51872e-19)
(0.170822 0.208591 -9.96531e-19)
(1.20999 0.170364 -5.31957e-20)
(1.21167 0.310125 0)
(1.19731 0.118413 1.18029e-19)
(0.0241606 1.75595 -7.6104e-22)
(0.0469658 1.77078 0)
(0.0257632 1.59399 0)
(0.29844 1.20093 -2.5773e-19)
(0.34873 1.01608 -5.4928e-19)
(0.19099 0.310558 9.3445e-19)
(1.00585 -0.0110522 0)
(1.00768 -0.00774645 2.039e-19)
(-0.017142 1.80118 0)
(-0.0271141 1.8097 0)
(1.00223 0.00356527 1.80585e-21)
(1.00377 0.00948115 4.19003e-19)
(-0.00845448 1.81661 -5.96759e-21)
(-0.00691159 1.81565 0)
(0.040598 3.18518 1.1525e-19)
(0.399263 3.50459 0)
(1.10479 0.644433 5.84268e-20)
(1.0119 0.0122865 -2.30446e-21)
(1.0212 -0.0103221 0)
(1.00169 0.000127835 -1.7428e-23)
(-0.0434749 1.11084 0)
(-0.0197862 2.64229 0)
(-0.0890713 1.66437 0)
(-0.0654452 1.9906 7.41409e-20)
(-0.0525855 1.89342 4.10508e-20)
(1.00442 0.00988652 2.07836e-21)
(1.04492 0.016165 0)
(1.06982 0.0285124 0)
(-0.0183658 1.80068 0)
(-0.00978447 1.8311 0)
(-0.0261413 1.79126 0)
(0.322938 1.37807 -4.69432e-19)
(1.0112 -0.00960044 0)
(1.00944 -0.015625 0)
(1.00227 0.000459786 2.57379e-19)
(1.00559 -0.00486545 -3.07302e-19)
(1.00116 -0.00103701 0)
(-0.0206537 1.79766 0)
(-0.0189408 1.79659 0)
(-0.018302 1.79835 0)
(-0.0264928 1.79223 0)
(-0.0247566 1.79115 0)
(-0.0274531 1.79322 0)
(1.02627 -0.0131765 0)
(1.02072 0.0194192 -8.37764e-22)
(0.792934 1.26617 5.2014e-19)
(1.00308 0.000261444 -2.6073e-19)
(1.00321 0.00576587 3.11724e-19)
(1.00125 0.00210079 0)
(1.01239 0.0105726 2.53295e-19)
(1.00783 0.00815876 -3.14062e-19)
(1.00881 0.0142619 0)
(-0.0101356 1.83095 0)
(-0.00957607 1.82467 9.85323e-21)
(-0.00842607 1.82342 -6.89829e-21)
(1.18347 0.250578 -4.67682e-20)
(1.12296 0.0848209 0)
(0.0566651 3.07854 -5.26999e-19)
(0.0692253 2.85093 -4.23602e-20)
(0.148783 3.19938 8.09801e-19)
(0.142818 3.22808 -3.7961e-21)
(0.140892 3.24565 0)
(0.0226126 3.13885 1.14472e-19)
(0.0820248 3.16332 5.14464e-19)
(0.0749281 3.19078 -2.21259e-19)
(0.0265675 3.12859 0)
(0.686346 0.326017 0)
(0.626338 0.386211 0)
(1.08139 0.673961 -2.29807e-19)
(1.07652 0.809919 3.62701e-19)
(1.14174 0.56121 0)
(1.17391 0.510993 0)
(1.0155 0.0130381 -4.68485e-19)
(1.01358 0.0141884 5.84389e-19)
(1.02476 -0.0101021 0)
(1.02063 -0.0165265 0)
(1.00664 0.00305038 0)
(1.0102 0.00402818 0)
(1.00449 0.00188332 0)
(1.00952 0.00616468 0)
(1.00779 0.00544026 0)
(1.00532 0.00501779 0)
(-0.0780941 1.13227 0)
(-0.110218 1.10736 0)
(0.0753722 1.11417 0)
(0.118025 1.15682 0)
(0.00990433 2.67224 0)
(0.101342 2.69419 -2.11013e-19)
(-0.0973426 2.63462 0)
(-0.116545 2.55785 1.86781e-20)
(-0.0789477 2.22306 -9.125e-20)
(-0.0734013 1.67687 0)
(-0.0509538 1.70118 0)
(-0.113736 1.62268 0)
(-0.100087 1.55213 0)
(-0.184183 1.90426 -1.97323e-20)
(-0.0650625 1.91938 4.14339e-20)
(-0.0631805 1.98506 5.13355e-20)
(-0.0520923 1.95647 0)
(-0.0505183 1.89178 -9.0984e-20)
(-0.0339195 1.8741 -3.88573e-20)
(-0.163608 1.88194 1.53492e-20)
(-0.100583 1.88667 -5.52142e-20)
(-0.102836 1.93856 -6.81146e-20)
(1.01233 0.0189828 4.65387e-19)
(1.01195 0.0038498 -5.72989e-19)
(1.00614 0.0199854 -4.84759e-19)
(0.992707 0.0134076 6.115e-19)
(1.0446 0.0192371 0)
(1.0348 0.00665845 0)
(1.06524 0.0385643 0)
(1.05237 0.0239063 0)
(1.05437 0.0129601 0)
(1.10638 0.0776389 0)
(1.08085 0.0486402 0)
(1.08823 0.0374485 0)
(-0.0118275 1.81864 -1.24801e-21)
(-0.0187063 1.80789 0)
(-0.0141286 1.81123 0)
(-0.00994343 1.83736 1.25582e-20)
(-0.00839589 1.8384 -5.22367e-22)
(-0.0242308 1.80417 1.04315e-20)
(-0.0250661 1.80088 -1.05789e-20)
(-0.0275226 1.79836 0)
(-0.0262347 1.7992 0)
(-0.025853 1.79913 0)
(-0.0261661 1.78945 0)
(-0.0212417 1.77506 0)
(0.426766 1.43702 8.76482e-19)
(0.398707 1.44967 3.23976e-19)
(0.634999 2.40041 -1.63304e-19)
(0.40961 2.54629 4.60566e-19)
(0.461089 2.04575 -5.20542e-20)
(1.02131 -0.00805535 0)
(1.01538 -0.00953395 0)
(1.01595 -0.0151251 0)
(1.00752 -0.000747326 0)
(1.00451 -0.00135847 0)
(1.00735 -0.00471545 0)
(1.00965 -0.00392755 0)
(1.01399 -0.00427772 0)
(1.02248 0.0179303 4.508e-19)
(1.01625 0.0197915 -5.72117e-19)
(1.02275 0.01948 -4.5102e-19)
(1.01885 0.016578 5.63469e-19)
(0.764806 1.30736 0)
(0.693273 1.36295 6.18443e-19)
(0.862661 1.19995 3.54874e-19)
(0.903152 1.16685 -4.71873e-19)
(1.14708 2.61113 -5.10941e-19)
(0.834417 0.110111 2.99969e-19)
(1.12372 0.0969927 0)
(1.16826 0.17077 4.29917e-20)
(1.15986 0.154945 1.91834e-21)
(0.974338 0.123298 0)
(0.152858 2.97013 1.22306e-19)
(0.128859 2.87601 -6.6902e-19)
(0.0429215 2.34843 4.89915e-19)
(0.109863 0.117912 -2.03984e-19)
(0.343247 3.43223 -4.42566e-19)
(0.198879 3.32434 0)
(0.239514 3.36969 5.76364e-19)
(0.256457 3.04406 -7.26524e-19)
(0.351695 3.20258 0)
(0.00673492 3.1208 2.68201e-20)
(0.0173534 3.12977 -3.43613e-19)
(0.0153903 3.12556 5.05748e-19)
(0.0384758 3.14041 0)
(0.037347 3.15202 0)
(1.20973 2.61274 0)
(0.500582 0.845068 -2.33952e-19)
(1.01502 0.989287 -1.94959e-19)
(0.957318 1.04581 0)
(0.796432 0.952449 4.97493e-20)
(1.03462 0.867892 3.11497e-20)
(0.404436 0.482673 -5.48205e-19)
(0.714545 0.331879 -2.32241e-20)
(0.698631 0.288191 2.27614e-19)
(0.628672 0.422026 1.82624e-20)
(0.571632 0.411292 -7.50806e-19)
(0.698505 0.349575 0)
(0.722354 0.419776 3.80748e-19)
(0.72282 0.413589 0)
(0.671036 0.391727 0)
(0.659514 0.326043 0)
(0.739496 0.595565 1.42133e-19)
(1.18239 0.268488 2.21039e-20)
(1.18096 0.404676 0)
(1.18915 0.359257 0)
(0.760651 0.219943 3.41334e-19)
(0.791939 0.513774 -1.9109e-19)
(0.716404 0.497305 3.11174e-19)
(0.908772 0.400872 -2.96048e-19)
(1.02014 0.0150895 3.07839e-19)
(1.01739 0.014193 -3.17294e-19)
(1.01365 0.0163995 0)
(1.02648 -0.0147522 0)
(1.02519 -0.0154244 -2.84253e-19)
(1.01986 -0.0208486 2.81208e-19)
(1.03259 0.00604964 0)
(1.02645 0.0168978 0)
(1.01121 0.00448959 0)
(1.01496 0.00842126 0)
(1.0159 0.00407959 0)
(1.0134 0.00170844 0)
(-0.175855 1.22846 0)
(-0.173132 1.25104 0)
(0.101845 1.02624 4.78917e-19)
(0.308989 1.35515 2.82259e-19)
(0.218873 1.20524 6.23288e-19)
(0.230911 1.26504 -9.95594e-19)
(0.300478 1.17246 0)
(0.1485 1.89088 6.86126e-19)
(-0.00651341 1.77715 0)
(0.485409 2.13831 7.75824e-20)
(0.403648 2.42526 2.22663e-19)
(0.408242 1.50156 -5.97484e-19)
(0.418383 1.28434 2.57937e-19)
(0.356795 1.16545 -2.06342e-19)
(0.488644 1.30665 4.68398e-19)
(0.463083 1.72881 0)
(0.486438 1.71747 -3.52129e-19)
(-0.313989 2.184 5.20414e-20)
(-0.128768 2.34168 0)
(-0.267176 2.37674 -1.60998e-19)
(-0.289729 2.29523 0)
(-0.126357 2.5182 -2.1786e-20)
(-0.0988868 2.39546 0)
(-0.178855 1.75681 6.04883e-21)
(-0.24277 1.82613 0)
(-0.217262 1.65628 0)
(-0.183746 1.67867 -6.82391e-21)
(-0.0862655 2.0509 -3.73847e-20)
(-0.0738798 2.19259 9.76294e-20)
(-0.0523516 2.09835 6.05385e-22)
(-0.099306 1.83649 2.33198e-20)
(-0.122529 1.82852 8.50339e-21)
(-0.039786 1.72681 0)
(-0.0259628 1.73848 0)
(-0.335975 1.91989 -6.82906e-20)
(-0.291197 1.69201 -9.09594e-20)
(-0.273098 1.82139 1.06424e-19)
(-0.38339 1.87426 0)
(-0.0202035 1.82616 -4.5995e-20)
(-0.0195722 1.83703 2.16303e-20)
(-0.0218732 1.83962 -6.66519e-21)
(-0.0794504 1.82455 -2.82441e-20)
(-0.0462552 1.86232 -1.11297e-20)
(-0.0570782 1.87062 6.3026e-20)
(1.02255 0.0135409 -3.02365e-19)
(1.02082 0.00991255 3.06754e-19)
(1.01702 0.00474943 0)
(1.00045 0.0448184 4.40516e-19)
(0.993464 0.0331116 -5.09989e-19)
(0.967653 0.023779 5.9119e-19)
(0.997486 0.0795502 -5.7532e-20)
(1.02759 -0.00814503 0)
(1.0337 0.00812032 2.55232e-19)
(1.02638 -0.00592869 -2.53505e-19)
(1.04446 0.0392616 -1.42589e-20)
(1.04761 0.0286759 1.26551e-19)
(1.04193 0.0491213 0)
(1.03445 0.0409618 -4.71365e-20)
(1.02887 0.0272547 0)
(1.02495 0.020054 0)
(1.03661 0.00857041 0)
(1.03262 0.0105945 0)
(1.03625 0.0255874 9.78754e-20)
(1.0389 0.018652 -2.18458e-19)
(1.03735 0.0304022 -9.92469e-20)
(1.03588 0.0297746 -1.1469e-19)
(1.03872 0.0567488 2.0828e-19)
(1.06802 0.052121 0)
(1.06579 0.0938328 0)
(-0.0202529 1.82629 -1.63456e-20)
(-0.019775 1.81272 -1.40175e-21)
(-0.0212977 1.81405 0)
(-0.0139682 1.82691 1.73947e-20)
(-0.0130898 1.82086 2.60206e-21)
(-0.0131156 1.82523 -2.6297e-21)
(-0.0291268 1.86874 3.26081e-20)
(-0.0236204 1.84906 -2.49003e-21)
(-0.0332925 1.85352 1.21788e-20)
(-0.0109259 1.84933 -1.72951e-20)
(-0.0154246 1.85228 2.10281e-20)
(-0.0280595 1.80439 2.39749e-22)
(-0.0268953 1.80801 1.96194e-20)
(0.476806 1.38428 -4.24977e-19)
(0.47447 1.40115 -4.0006e-19)
(0.651413 1.39864 -5.97403e-19)
(0.51381 1.45726 -3.21753e-19)
(0.54491 1.43963 0)
(0.601796 2.38242 1.39755e-19)
(0.697795 2.34476 2.44519e-19)
(0.420597 2.51867 1.06522e-19)
(0.448755 2.58099 -1.41483e-19)
(0.56496 2.51696 3.19443e-19)
(0.530466 2.44379 0)
(0.542938 2.44874 -3.81019e-19)
(0.209049 2.64964 6.11654e-19)
(0.371574 2.59352 -4.84488e-20)
(0.247135 2.67875 -9.71329e-19)
(0.914612 2.36621 2.06497e-19)
(0.821966 2.34291 0)
(1.01078 -3.22803e-05 1.03153e-20)
(1.0151 -0.00508842 -8.27293e-21)
(1.01629 -0.00367474 -1.49653e-19)
(1.01464 -0.000961053 1.52237e-19)
(1.01291 0.000978509 0)
(0.637281 1.25433 0)
(0.641488 1.15361 0)
(0.735564 1.08974 0)
(0.632759 1.11692 0)
(1.17699 2.62957 5.42303e-20)
(1.05865 2.36183 0)
(0.855265 2.26498 -2.00106e-21)
(0.810767 2.49479 0)
(0.906675 2.58517 1.84237e-20)
(0.946673 2.54003 -1.22963e-20)
(0.839504 0.13707 0)
(0.811042 0.143405 8.60104e-20)
(0.920583 0.126831 4.41867e-19)
(0.862552 0.120081 -1.77352e-19)
(0.856427 0.0727704 -5.32544e-19)
(1.0255 0.208828 -2.65367e-19)
(0.956083 0.278818 -1.52667e-20)
(0.883856 0.275436 4.02881e-19)
(0.961627 0.202529 3.02058e-19)
(0.933028 0.159102 -5.56423e-19)
(0.908169 0.174571 7.18291e-20)
(0.925158 0.238084 -1.42076e-19)
(0.905362 0.192637 0)
(0.968098 0.159869 2.66579e-19)
(1.00134 0.158725 0)
(1.0006 0.188155 0)
(1.06151 0.10337 8.92937e-20)
(1.02246 0.148084 -1.37191e-20)
(1.01843 0.21146 -4.87766e-20)
(1.05154 0.180465 0)
(1.01697 0.024749 2.32275e-19)
(1.03021 0.0432555 2.75981e-19)
(1.02576 0.0294459 -2.30653e-19)
(1.02327 0.0476802 -1.85601e-19)
(1.00596 0.0495774 -3.09895e-19)
(0.976432 0.124834 0)
(0.983278 0.0765897 0)
(0.970653 0.0466913 -2.13663e-19)
(0.933903 0.05647 8.93356e-20)
(1.00532 0.0798486 2.62922e-19)
(1.02572 0.104144 -2.71025e-19)
(1.03074 0.124961 2.46159e-19)
(0.992471 0.122977 0)
(1.03635 0.0929724 0)
(1.02293 0.0789724 -1.13237e-19)
(1.02061 0.0799929 -2.1081e-19)
(0.588881 1.07045 -8.69078e-20)
(0.632561 1.42188 1.87172e-19)
(1.15645 2.75722 8.60119e-20)
(1.21822 3.09545 -6.88281e-20)
(1.24186 2.73002 5.30433e-19)
(1.27395 2.71317 -3.27054e-19)
(1.19886 2.34534 -7.63572e-21)
(1.20476 2.99779 1.82913e-19)
(1.22369 2.96268 -1.95999e-19)
(1.20949 3.24887 -2.64782e-19)
(1.37291 2.97723 3.66632e-19)
(1.36533 2.89427 0)
(0.500231 0.85214 -1.32664e-20)
(0.163862 1.29718 3.67438e-19)
(0.523646 0.546639 3.6298e-19)
(0.355039 0.318139 3.95528e-19)
(0.569503 0.441774 4.19103e-19)
(0.549477 0.504968 -6.65802e-19)
(0.546079 0.525435 5.45814e-19)
(0.519817 0.479885 -2.17945e-19)
(0.485015 0.422095 5.03773e-19)
(0.768259 0.265795 -1.90848e-19)
(0.736969 0.294671 0)
(0.728029 0.247301 1.09403e-20)
(0.711244 0.512785 1.96686e-19)
(0.694075 0.478858 -7.23546e-19)
(0.619107 0.506305 2.01236e-20)
(0.6403 0.476681 0)
(0.626359 0.738112 1.55459e-19)
(0.776718 0.758603 6.34137e-20)
(0.711358 0.847157 -8.27105e-20)
(0.822651 0.790282 -2.24668e-20)
(0.864107 0.833298 1.20889e-20)
(0.872186 0.835445 -1.23785e-20)
(0.782536 0.628393 -2.41434e-19)
(0.86661 0.686458 2.08866e-20)
(0.930893 0.698272 0)
(0.919512 0.672632 -2.2953e-20)
(0.981283 0.313239 6.72021e-20)
(1.08006 0.277681 1.7178e-20)
(1.01064 0.251659 1.08452e-19)
(0.96505 0.342643 -1.52423e-19)
(1.0034 0.401216 0)
(1.05138 0.397036 0)
(0.883949 0.335964 3.20653e-21)
(0.822847 0.278753 0)
(0.833246 0.276602 2.05332e-19)
(0.880841 0.28159 -8.08714e-21)
(0.899572 0.401202 8.09774e-19)
(0.848558 0.458079 2.07705e-19)
(0.860513 0.424511 -2.57872e-19)
(0.805215 0.413415 2.76021e-19)
(0.791754 0.407797 1.87398e-19)
(0.780611 0.399903 -1.83982e-19)
(1.0258 -0.0113082 2.46319e-19)
(1.02064 -0.00562346 0)
(1.01839 -0.00359492 1.6189e-19)
(1.02391 -0.00729869 -3.65338e-19)
(1.02591 -0.000151127 1.771e-19)
(1.02217 0.0112019 -3.7429e-19)
(1.02338 0.0127719 0)
(1.02217 0.0117895 -7.87512e-20)
(1.01683 0.00609399 1.95254e-19)
(1.01616 0.00969649 -9.96671e-20)
(1.01904 0.00938789 7.38513e-20)
(-0.161631 1.51238 0)
(-0.254225 1.61552 0)
(-0.200009 1.36974 0)
(-0.138881 1.40951 0)
(-0.318882 1.4991 -7.5086e-19)
(-0.19976 1.31586 2.44055e-19)
(-0.158494 1.7841 2.48172e-19)
(-0.187253 1.52288 -2.59856e-19)
(-0.337629 1.688 1.62756e-19)
(-0.347704 1.67176 -1.25164e-19)
(-0.31164 1.46963 1.03881e-19)
(-0.304781 1.47712 3.10898e-19)
(-0.278046 1.50087 3.12522e-20)
(-0.295967 1.58061 1.82108e-20)
(-0.257251 2.42571 1.7691e-19)
(-0.18563 2.52615 0)
(-0.147288 2.33759 -7.74357e-20)
(-0.22389 1.94352 -1.65145e-19)
(0.406156 2.17778 9.58832e-20)
(0.232149 2.58492 0)
(0.246619 2.51354 -8.71254e-20)
(0.407825 2.48518 6.06107e-20)
(0.21945 2.24434 2.49548e-19)
(0.0704867 2.33909 -1.31748e-19)
(0.00640326 2.59544 0)
(-0.28786 2.00253 4.69611e-20)
(-0.191051 2.00597 -8.58113e-20)
(-0.221203 1.95459 0)
(-0.211112 2.13201 -3.14799e-21)
(-0.299722 2.13212 -1.54752e-20)
(-0.114721 1.74538 2.80662e-21)
(-0.076214 1.75529 -3.53363e-20)
(-0.0721333 1.77549 9.6693e-21)
(-0.115746 1.77833 1.21126e-20)
(-0.15499 1.76966 0)
(-0.0576682 1.77663 0)
(-0.024777 1.7758 1.90243e-20)
(-0.0350358 1.78974 -5.90448e-21)
(-0.0418435 1.78311 0)
(-0.0265667 1.75858 1.3731e-20)
(-0.019384 1.75938 -2.79479e-20)
(1.03439 0.0119419 0)
(1.04035 0.0143513 -2.43047e-20)
(1.04218 0.0193357 -1.73971e-19)
(1.04037 0.0203505 0)
(1.0402 0.021809 0)
(1.04379 0.00885672 -5.85618e-21)
(1.0408 0.00720818 2.93868e-19)
(1.04026 0.011328 3.51539e-19)
(1.03405 0.0119666 0)
(1.02945 0.00895645 0)
(1.03782 0.0173061 1.77599e-19)
(1.02871 0.0111826 0)
(1.02942 0.00986885 0)
(-0.034461 1.82978 0)
(-0.0296938 1.80807 2.54259e-21)
(-0.0288684 1.8227 1.12181e-20)
(-0.0308567 1.79367 0)
(-0.0324433 1.80801 1.20442e-20)
(-0.0298877 1.80368 -6.62581e-21)
(-0.0317211 1.79794 0)
(0.366428 1.69691 0)
(0.440234 1.35978 6.17671e-19)
(0.409931 1.37902 0)
(0.451611 1.35414 -8.21149e-19)
(0.494865 1.41196 0)
(0.484686 1.40645 3.84702e-19)
(1.02081 2.71461 -3.9005e-21)
(0.93452 2.40884 -2.60633e-19)
(0.86749 2.14335 3.28081e-19)
(0.830867 2.33971 1.18792e-19)
(0.83135 2.52439 0)
(0.8958 2.5252 0)
(0.897636 2.35584 0)
(0.8802 2.32259 -4.40399e-19)
(0.683194 2.4934 -6.08805e-20)
(0.79199 2.50215 -2.24512e-20)
(0.792117 2.47149 1.73875e-20)
(0.686524 2.33898 0)
(0.78642 2.33772 0)
(0.751221 2.34319 -2.29976e-19)
(0.746684 2.49083 0)
(0.592129 1.08018 0)
(0.468913 0.924689 -1.80261e-20)
(0.516578 0.956913 -2.23354e-21)
(0.512272 1.05096 0)
(0.503876 1.00475 3.08829e-20)
(0.732759 0.874506 1.11507e-20)
(0.761515 1.00827 0)
(0.730213 0.965796 -5.64834e-20)
(0.595995 1.02208 0)
(0.609059 0.937939 0)
(1.15913 2.77648 4.41393e-20)
(1.13927 2.84132 1.17302e-19)
(0.946765 2.37277 -2.69319e-19)
(0.916855 2.34427 3.48845e-20)
(1.12208 2.7497 0)
(1.07053 2.72302 -4.13415e-20)
(1.0743 2.49057 -8.21927e-20)
(0.963055 2.22031 -2.97752e-20)
(0.493605 1.37996 0)
(0.501183 1.0515 7.65999e-20)
(0.558121 1.12988 0)
(0.852434 0.213858 0)
(0.815975 0.15911 0)
(0.776088 0.172526 0)
(0.835759 0.226228 -3.22715e-19)
(0.78461 0.231127 2.0022e-19)
(0.936881 0.052787 -1.82518e-19)
(0.942719 0.100108 0)
(0.925635 0.107759 8.28056e-20)
(0.889985 0.081375 3.39331e-19)
(0.884861 0.0516084 -2.09022e-19)
(1.16077 3.37451 -9.77329e-19)
(1.20595 3.2944 0)
(1.16223 3.40179 -1.93777e-18)
(0.649105 3.5638 1.66031e-18)
(0.872606 3.13099 3.85469e-19)
(0.483581 0.874257 2.1802e-19)
(0.41451 0.86163 0)
(0.348321 0.561734 -8.26744e-20)
(0.414793 0.691451 3.7898e-19)
(0.521606 0.540769 -1.13726e-19)
(0.503856 0.565599 1.2774e-19)
(0.630216 0.555582 2.7438e-19)
(0.651359 0.558777 0)
(0.602627 0.633732 0)
(0.565186 0.5705 0)
(0.916755 0.578016 -4.6457e-20)
(0.848003 0.512369 -2.0101e-19)
(0.868794 0.547458 1.02414e-19)
(0.914051 0.483082 -1.46397e-19)
(1.006 0.465506 0)
(1.02661 0.542424 -9.99697e-21)
(0.83594 0.368145 -4.10065e-19)
(0.837779 0.354337 -4.75589e-19)
(0.802025 0.367566 3.22545e-19)
(0.780305 0.346092 -3.63526e-19)
(0.82597 0.300084 -2.70729e-19)
(0.783903 0.302252 3.32834e-19)
(1.03185 -0.000286035 -1.87298e-19)
(1.03424 -0.0012504 3.82347e-19)
(1.02833 -0.010431 2.3422e-19)
(1.03261 -0.0109241 -2.81597e-19)
(1.03756 0.00328769 0)
(1.0375 0.00527299 -4.62066e-19)
(-0.417022 1.95956 2.58568e-22)
(-0.381153 1.8565 0)
(-0.385788 1.94845 -6.52836e-19)
(-0.327339 1.93131 6.28821e-19)
(-0.291968 1.77312 -4.65673e-19)
(-0.37703 1.80818 0)
(-0.0702484 1.82407 0)
(-0.0545776 1.79438 -6.43371e-21)
(-0.0421236 1.79623 5.84713e-21)
(-0.0384258 1.80737 2.91501e-21)
(-0.0472671 1.83063 -1.30362e-20)
(-0.0535719 1.83045 9.06398e-21)
(0.477113 1.40793 3.68613e-19)
(0.440101 1.41332 -3.96041e-19)
(0.451989 1.32161 4.13993e-19)
(0.408057 1.34878 -2.16382e-20)
(0.629173 1.28572 0)
(0.548263 1.39283 5.27549e-19)
(0.580322 1.35848 -5.12666e-19)
(0.471759 1.29306 -3.94413e-19)
(0.496646 1.24019 0)
(0.548467 1.17326 0)
(0.64705 2.45125 8.81896e-20)
(0.67296 2.45596 6.32979e-19)
(0.707707 2.46818 -4.28952e-19)
(0.649233 2.44523 -1.28081e-19)
(0.586902 2.56843 1.35783e-19)
(0.57748 2.54371 -3.83303e-19)
(0.949348 2.3705 -1.77197e-19)
(0.994881 2.39404 0)
(0.88463 2.12991 -2.45241e-19)
(1.03964 2.7066 0)
(1.03885 2.69752 0)
(0.613105 2.30146 2.38475e-19)
(1.04036 3.17939 4.77427e-19)
(0.912083 3.05168 -4.28849e-19)
(0.294262 0.980396 0)
(0.342381 0.847292 -1.48134e-19)
(0.477904 0.790356 -6.69996e-20)
(0.404825 2.06229 0)
(0.475014 2.80062 -2.68505e-19)
(0.433438 2.56843 0)
(0.634153 0.686289 -3.22552e-19)
(0.710229 0.66662 4.18945e-19)
(0.731154 0.610741 -4.10876e-19)
(0.617824 0.64795 -4.79092e-20)
(0.677236 0.605639 -1.96765e-19)
(0.999045 2.78996 -3.62937e-19)
(1.03661 2.84259 2.73415e-19)
(0.646599 2.19693 6.97876e-20)
(0.594297 1.73953 -8.08667e-20)
(0.700539 1.92391 7.46784e-20)
(0.983518 2.47522 -7.62111e-20)
(0.988097 2.46416 -1.4004e-19)
(0.660699 1.88178 -3.88751e-21)
(0.446142 1.34883 -5.91597e-20)
)
;

boundaryField
{
    wall-4
    {
        type            noSlip;
    }
    velocity-inlet-5
    {
        type            fixedValue;
        value           uniform (1 0 0);
    }
    velocity-inlet-6
    {
        type            fixedValue;
        value           uniform (0 3 0);
    }
    pressure-outlet-7
    {
        type            zeroGradient;
    }
    wall-8
    {
        type            noSlip;
    }
    frontAndBackPlanes
    {
        type            empty;
    }
}


// ************************************************************************* //
