/*--------------------------------*- C++ -*----------------------------------*\
| =========                 |                                                 |
| \\      /  F ield         | OpenFOAM: The Open Source CFD Toolbox           |
|  \\    /   O peration     | Version:  4.0                                   |
|   \\  /    A nd           | Web:      www.OpenFOAM.org                      |
|    \\/     M anipulation  |                                                 |
\*---------------------------------------------------------------------------*/
FoamFile
{
    version     2.0;
    format      ascii;
    class       volScalarField;
    location    "19";
    object      p;
}
// * * * * * * * * * * * * * * * * * * * * * * * * * * * * * * * * * * * * * //

dimensions      [0 2 -2 0 0 0 0];

internalField   nonuniform List<scalar> 
8800
(
0.413338
0.365558
0.32688
0.297894
0.27704
0.262216
0.25162
0.244129
0.239269
0.237111
0.238205
0.242205
0.248675
0.257848
0.27052
0.288175
0.312896
0.346795
0.389304
0.448002
0.244571
0.25225
0.259749
0.263066
0.261576
0.256516
0.250048
0.243979
0.239229
0.236306
0.235878
0.238189
0.24249
0.248267
0.254894
0.261067
0.264631
0.263851
0.258367
0.249641
0.222957
0.229128
0.233276
0.236251
0.238327
0.238956
0.237864
0.235754
0.233692
0.232666
0.233436
0.235601
0.238199
0.240207
0.240671
0.239357
0.236918
0.23345
0.228857
0.225085
0.217115
0.219779
0.222582
0.225045
0.226739
0.227946
0.228714
0.228835
0.228488
0.2283
0.22884
0.229772
0.230376
0.230229
0.229436
0.228183
0.226226
0.223535
0.221061
0.219556
0.21172
0.213158
0.215016
0.217148
0.219025
0.22044
0.22147
0.222263
0.222826
0.223253
0.223648
0.223848
0.223672
0.223135
0.222203
0.220734
0.218837
0.216818
0.215419
0.214594
0.206672
0.2076
0.208962
0.210688
0.212484
0.214157
0.215552
0.216657
0.217568
0.218293
0.218686
0.218666
0.218273
0.217473
0.216241
0.214715
0.213092
0.211588
0.21065
0.210117
0.201866
0.202524
0.203652
0.205197
0.206843
0.208519
0.210135
0.211547
0.212689
0.213569
0.214056
0.214023
0.213481
0.21249
0.211211
0.209821
0.208398
0.207135
0.206417
0.206051
0.197449
0.197933
0.198903
0.200339
0.201892
0.203458
0.205043
0.206613
0.208028
0.209154
0.209728
0.209649
0.209047
0.208122
0.207027
0.205799
0.204506
0.203409
0.202839
0.202581
0.19336
0.193698
0.194553
0.195897
0.197392
0.19892
0.200444
0.201934
0.203386
0.20467
0.205425
0.205536
0.205187
0.204496
0.203551
0.202446
0.201285
0.200316
0.199864
0.199698
0.189907
0.190105
0.190844
0.192116
0.193551
0.195046
0.196626
0.198247
0.199832
0.201284
0.20228
0.202615
0.202411
0.201821
0.201011
0.200071
0.199033
0.198195
0.197867
0.197786
0.187231
0.187336
0.187831
0.18879
0.189936
0.191166
0.192503
0.194007
0.19565
0.197322
0.198614
0.199291
0.199482
0.199361
0.198983
0.198427
0.197777
0.197281
0.197111
0.19707
0.184649
0.184727
0.185039
0.185684
0.186569
0.187672
0.189002
0.190574
0.192366
0.194306
0.19598
0.197033
0.197544
0.19768
0.197618
0.197448
0.197213
0.197045
0.196976
0.196937
0.181421
0.181494
0.181733
0.1822
0.18291
0.183864
0.185154
0.186809
0.188834
0.191163
0.193296
0.194791
0.195753
0.196272
0.19654
0.196724
0.19682
0.196852
0.196832
0.196791
0.177303
0.177362
0.17761
0.178079
0.17877
0.179782
0.181199
0.183066
0.185413
0.188225
0.190936
0.192954
0.194265
0.195192
0.195855
0.196254
0.196505
0.196605
0.19661
0.196572
0.172437
0.17248
0.172752
0.173341
0.174166
0.175327
0.176993
0.179206
0.182036
0.185487
0.188898
0.191518
0.193366
0.194625
0.195493
0.196072
0.196401
0.196536
0.196575
0.196545
0.166924
0.166956
0.167259
0.167977
0.169051
0.170397
0.1724
0.175054
0.178483
0.182743
0.187038
0.190414
0.192839
0.194541
0.195682
0.196437
0.196837
0.197033
0.197111
0.197086
0.160767
0.160795
0.161116
0.161927
0.163247
0.16497
0.16738
0.170595
0.174812
0.180093
0.185474
0.189756
0.192872
0.195052
0.196552
0.197503
0.198059
0.198356
0.198469
0.198442
0.153755
0.153784
0.154185
0.155083
0.156584
0.158735
0.161663
0.165637
0.170873
0.177449
0.184171
0.189564
0.193469
0.196258
0.198177
0.199427
0.200192
0.200614
0.200764
0.20073
0.145477
0.145513
0.145988
0.147086
0.148869
0.151468
0.155105
0.160079
0.166624
0.174834
0.183218
0.189929
0.194851
0.198346
0.200751
0.202357
0.203371
0.203929
0.204114
0.20407
0.135457
0.135505
0.13611
0.137457
0.139674
0.142924
0.147506
0.153765
0.161985
0.17225
0.182671
0.190995
0.197098
0.20142
0.204419
0.206443
0.207736
0.208439
0.208668
0.208612
0.123161
0.123227
0.124011
0.125743
0.128579
0.132724
0.138563
0.146518
0.156899
0.169731
0.182639
0.192893
0.200374
0.20569
0.209392
0.211907
0.21352
0.214388
0.214667
0.214596
0.107802
0.107895
0.108941
0.11124
0.114985
0.120403
0.127982
0.138201
0.151345
0.167344
0.183229
0.195753
0.204867
0.211359
0.215898
0.219001
0.220996
0.222056
0.222393
0.222303
0.0882286
0.0883601
0.0898194
0.0930092
0.0981239
0.105404
0.115431
0.128676
0.145343
0.165205
0.184601
0.19976
0.210775
0.218646
0.224185
0.228003
0.23048
0.231794
0.232194
0.232076
0.0626842
0.0629023
0.0650662
0.0697252
0.0769802
0.0870579
0.100572
0.11788
0.138997
0.163484
0.186926
0.205078
0.218266
0.227746
0.234483
0.239181
0.242251
0.243874
0.244349
0.244198
0.0281188
0.0285496
0.0321297
0.0395234
0.0503752
0.0648176
0.08332
0.105983
0.132566
0.162423
0.190389
0.21184
0.227448
0.238777
0.24695
0.252757
0.256603
0.258624
0.259183
0.258982
-0.0213998
-0.0198969
-0.0126148
0.000346447
0.0174968
0.0386704
0.0640442
0.0934585
0.126479
0.162328
0.195158
0.220111
0.238318
0.251698
0.261558
0.268752
0.273655
0.276265
0.276947
0.276669
-0.0952952
-0.0865745
-0.0698688
-0.0468162
-0.0202141
0.00991929
0.0436931
0.0809009
0.121092
0.163516
0.201687
0.230583
0.251839
0.267746
0.279831
0.289074
0.295698
0.299474
0.300594
0.30051
-0.174329
-0.154616
-0.127874
-0.0944578
-0.0581727
-0.0189447
0.0233165
0.0685124
0.116297
0.166064
0.210656
0.244615
0.269954
0.289326
0.304481
0.316474
0.325513
0.33158
0.333761
0.33383
-0.237673
-0.215403
-0.180513
-0.138776
-0.0939738
-0.0463339
0.00402204
0.0569214
0.112018
0.168739
0.219246
0.257685
0.286481
0.308647
0.326092
0.339963
0.350604
0.35774
0.359577
0.359904
-0.289123
-0.264802
-0.225014
-0.177386
-0.125934
-0.0713695
-0.0139971
0.0458458
0.10767
0.170796
0.226586
0.26879
0.300249
0.324345
0.343202
0.358154
0.369565
0.376993
0.379251
0.379654
-0.331209
-0.30605
-0.26278
-0.210626
-0.153959
-0.093784
-0.0305045
0.0353672
0.103178
0.172054
0.232491
0.277811
0.311252
0.336609
0.356268
0.371724
0.383406
0.390957
0.393482
0.393852
-0.36705
-0.341414
-0.29567
-0.239854
-0.178933
-0.114059
-0.0457174
0.0254372
0.0985815
0.172644
0.237224
0.2852
0.320236
0.346504
0.366611
0.382204
0.393882
0.401376
0.404068
0.404419
-0.398578
-0.372692
-0.325034
-0.266218
-0.201732
-0.132793
-0.0600233
0.0158332
0.093823
0.172653
0.241111
0.291579
0.328044
0.355031
0.375421
0.39102
0.402639
0.410072
0.412867
0.413199
-0.42725
-0.401138
-0.351891
-0.290567
-0.223019
-0.150551
-0.0738478
0.00627432
0.0887473
0.172112
0.244298
0.297145
0.334973
0.362673
0.383373
0.399052
0.410631
0.417926
0.420801
0.421128
-0.453917
-0.427595
-0.377009
-0.313513
-0.243297
-0.167709
-0.0874812
-0.003481
0.0831643
0.170844
0.246692
0.302021
0.341348
0.369894
0.390998
0.406817
0.418406
0.425562
0.428411
0.428827
-0.479266
-0.452677
-0.400858
-0.335468
-0.262882
-0.18454
-0.101164
-0.0136272
0.0769056
0.168769
0.248416
0.306425
0.347426
0.376961
0.398599
0.414656
0.426296
0.433364
0.436122
0.436542
-0.503569
-0.476683
-0.423737
-0.356737
-0.28204
-0.201237
-0.115029
-0.0242609
0.0699386
0.165923
0.249438
0.310337
0.353278
0.384016
0.40636
0.422784
0.434554
0.441576
0.444196
0.444541
-0.527165
-0.499895
-0.446057
-0.377478
-0.300892
-0.217895
-0.129135
-0.0354088
0.0622167
0.162164
0.249633
0.313694
0.358895
0.39111
0.414356
0.431287
0.44326
0.450272
0.452727
0.452976
-0.550097
-0.52238
-0.467808
-0.397781
-0.319523
-0.234577
-0.143529
-0.0471277
0.0536449
0.157401
0.24892
0.316417
0.364202
0.398203
0.422585
0.440178
0.452444
0.459458
0.46178
0.461876
-0.572439
-0.54437
-0.488973
-0.417693
-0.337959
-0.251286
-0.158218
-0.0594375
0.0442175
0.151598
0.247164
0.318361
0.369095
0.405234
0.431016
0.449438
0.462057
0.469036
0.471214
0.471169
-0.594264
-0.565762
-0.509601
-0.437211
-0.356182
-0.26799
-0.173157
-0.0722738
0.033973
0.144707
0.244248
0.319335
0.373407
0.412099
0.439597
0.459015
0.472037
0.478937
0.480911
0.48074
-0.615607
-0.586598
-0.529708
-0.456313
-0.37414
-0.284638
-0.188274
-0.0855705
0.0229425
0.136709
0.240068
0.31914
0.376893
0.418631
0.448273
0.4689
0.482319
0.489047
0.490736
0.490453
-0.636292
-0.60682
-0.549237
-0.474961
-0.391789
-0.301153
-0.203496
-0.0992478
0.0112029
0.127647
0.234541
0.317581
0.379275
0.424593
0.456984
0.479144
0.492858
0.499161
0.500457
0.500063
-0.656283
-0.626379
-0.568162
-0.493096
-0.40906
-0.317469
-0.218728
-0.113212
-0.00114438
0.117571
0.227628
0.314474
0.380239
0.429635
0.4656
0.489976
0.503908
0.509197
0.509786
0.509309
-0.675647
-0.645235
-0.586451
-0.510679
-0.425893
-0.333505
-0.23388
-0.127348
-0.0139902
0.106574
0.219328
0.30969
0.379439
0.433225
0.473747
0.501688
0.516355
0.519648
0.518511
0.517956
-0.694219
-0.663377
-0.60405
-0.52765
-0.442232
-0.349181
-0.248852
-0.141541
-0.027204
0.094788
0.209698
0.303139
0.376591
0.434662
0.480557
0.514093
0.531796
0.533274
0.52809
0.526279
-0.71209
-0.680799
-0.620984
-0.544034
-0.458109
-0.364542
-0.263705
-0.15585
-0.0408504
0.0821455
0.198627
0.294586
0.371391
0.433122
0.484448
0.525674
0.550588
0.555945
0.546497
0.525838
-0.729201
-0.697514
-0.637376
-0.560012
-0.473803
-0.379906
-0.278838
-0.170747
-0.0554695
0.0679843
0.185406
0.283138
0.363019
0.427401
0.48219
0.531188
0.563371
0.567171
0.55133
0.527019
-0.745405
-0.713696
-0.653057
-0.575336
-0.489038
-0.394942
-0.294028
-0.185904
-0.0707297
0.0526329
0.170255
0.268632
0.35108
0.417008
0.46907
0.518763
0.549201
0.543055
0.47227
0.431336
-0.760115
-0.73037
-0.66767
-0.589445
-0.503127
-0.409193
-0.308995
-0.201106
-0.0864129
0.0362496
0.153214
0.250999
0.334865
0.402427
0.445434
0.476187
0.491927
0.44722
0.371761
0.322882
-0.813567
-0.744478
-0.680929
-0.603739
-0.517455
-0.423997
-0.323803
-0.216598
-0.10283
0.0184765
0.133848
0.229951
0.311894
0.385322
0.395548
0.406429
0.377357
0.311523
0.22788
0.180823
-0.773941
-0.758933
-0.699871
-0.624025
-0.538034
-0.445082
-0.346095
-0.240066
-0.128104
-0.00954351
0.101846
0.193735
0.266813
0.334685
0.339187
0.224026
0.111143
0.0331888
-0.047989
-0.00549305
-0.80263
-0.774822
-0.715525
-0.639621
-0.554125
-0.461596
-0.362611
-0.257535
-0.147121
-0.0311178
0.0764157
0.163335
0.228759
0.264765
0.214311
0.0552337
-0.0902377
-0.193717
-0.308438
-0.24069
-0.824451
-0.793444
-0.733487
-0.657208
-0.571865
-0.479568
-0.380911
-0.276958
-0.168369
-0.055406
0.0476268
0.128258
0.183827
0.190525
0.0749726
-0.13084
-0.31072
-0.44952
-0.61522
-0.555677
-0.84537
-0.812902
-0.752035
-0.675066
-0.589654
-0.497582
-0.399618
-0.296896
-0.190299
-0.080706
0.0171105
0.0908284
0.132361
0.100923
-0.0786069
-0.318129
-0.549666
-0.758553
-0.995494
-0.98795
-0.865231
-0.832654
-0.771123
-0.693563
-0.608064
-0.516275
-0.419094
-0.317691
-0.213295
-0.107378
-0.0152839
0.051006
0.0756511
0.00394815
-0.226742
-0.489024
-0.76446
-1.013
-1.32258
-1.68665
-0.88512
-0.852805
-0.790955
-0.713051
-0.627463
-0.535912
-0.439431
-0.339346
-0.237207
-0.135114
-0.0488871
0.00936185
0.0169775
-0.105708
-0.357435
-0.622375
-0.894319
-1.12548
-1.21893
-1.36184
-0.905696
-0.873694
-0.811783
-0.733801
-0.64823
-0.556995
-0.461283
-0.362654
-0.263044
-0.165207
-0.0853019
-0.0361973
-0.0524134
-0.226633
-0.472198
-0.719166
-0.937376
-1.07283
-1.09974
-1.12655
-0.927302
-0.895611
-0.833736
-0.755826
-0.670416
-0.579625
-0.48487
-0.38794
-0.291218
-0.198209
-0.125054
-0.0864443
-0.131221
-0.338257
-0.575289
-0.797406
-0.967866
-1.0382
-1.05525
-1.05907
-0.950107
-0.918481
-0.856868
-0.779042
-0.693897
-0.603714
-0.510093
-0.415108
-0.321636
-0.233994
-0.168092
-0.14217
-0.213367
-0.443822
-0.670512
-0.876241
-1.00963
-1.02959
-1.03106
-1.03112
-0.974019
-0.942366
-0.881031
-0.803377
-0.718592
-0.629136
-0.536816
-0.444002
-0.354107
-0.27231
-0.214384
-0.200312
-0.300658
-0.545725
-0.755813
-0.943129
-1.01147
-1.01898
-1.01833
-1.01719
-0.998769
-0.967163
-0.906043
-0.828654
-0.74432
-0.655708
-0.56484
-0.474386
-0.388353
-0.312719
-0.263451
-0.258714
-0.40275
-0.646303
-0.828202
-0.973457
-1.02749
-1.00889
-1.00401
-1.00271
-1.02379
-0.992504
-0.931563
-0.854589
-0.770791
-0.683131
-0.593822
-0.505881
-0.423856
-0.354714
-0.314398
-0.324725
-0.504025
-0.752871
-0.899147
-0.930083
-0.963036
-0.987213
-0.995087
-0.995981
-1.04864
-1.01793
-0.957341
-0.88077
-0.797602
-0.710944
-0.623272
-0.537915
-0.459883
-0.397581
-0.365737
-0.396882
-0.597809
-0.867377
-1.05793
-0.970391
-1.0087
-1.01338
-1.01019
-1.0108
-1.07254
-1.04222
-0.982755
-0.906641
-0.824131
-0.738559
-0.652514
-0.569683
-0.495464
-0.439948
-0.416281
-0.464281
-0.690268
-0.977772
-1.41074
-1.45112
-1.2457
-1.12343
-1.07434
-1.05955
-1.09459
-1.06514
-1.00679
-0.93145
-0.849695
-0.765193
-0.680686
-0.600097
-0.529367
-0.479516
-0.464675
-0.524443
-0.763894
-0.996251
-1.41838
-1.78019
-1.38163
-1.31243
-1.26184
-1.23982
-1.11356
-1.0855
-1.02853
-0.954237
-0.873435
-0.789926
-0.70669
-0.627841
-0.559946
-0.513578
-0.508926
-0.574981
-0.777176
-0.69952
-0.280622
-0.36132
-1.05117
-1.35711
-1.33571
-1.33365
-1.1283
-1.10209
-1.04712
-0.974014
-0.89419
-0.811647
-0.729416
-0.65152
-0.584933
-0.540768
-0.546363
-0.615477
-0.851898
-0.857431
-0.635321
-0.979962
-1.29693
-1.40974
-1.33345
-1.35611
-1.13764
-1.11389
-1.06138
-0.989773
-0.910926
-0.829232
-0.747546
-0.669652
-0.602021
-0.558156
-0.564826
-0.681134
-1.21489
-2.10258
-3.04141
-3.64782
-3.58859
-3.0622
-2.54266
-2.35668
-1.14044
-1.11964
-1.07035
-1.00054
-0.922692
-0.841597
-0.759847
-0.680778
-0.609688
-0.558141
-0.556015
-0.703282
-1.42083
-2.55709
-3.7299
-4.31941
-4.25809
-3.82927
-3.34318
-3.10278
-1.13565
-1.11853
-1.07319
-1.00567
-0.928718
-0.848003
-0.765617
-0.684065
-0.606661
-0.540269
-0.509322
-0.531484
-0.99363
-1.54767
-2.06219
-2.13559
-1.85994
-1.4767
-1.17868
-1.03205
-1.12298
-1.10924
-1.06916
-1.00455
-0.928674
-0.848055
-0.764671
-0.679675
-0.59365
-0.507129
-0.417918
-0.329341
-0.253155
-0.0343443
0.345198
0.768454
1.19157
1.4926
1.65223
1.70232
-1.10273
-1.09278
-1.05813
-0.996979
-0.922107
-0.841937
-0.757992
-0.670047
-0.575601
-0.467409
-0.345276
-0.219474
0.04532
0.603347
1.29987
1.94332
2.40696
2.67599
2.79417
2.82517
-1.07554
-1.06923
-1.04034
-0.982841
-0.908875
-0.830424
-0.747502
-0.658653
-0.559214
-0.439398
-0.309823
-0.175497
0.00099879
0.548625
1.19776
1.75788
2.14585
2.36491
2.46896
2.50234
-1.04011
-1.03691
-1.01387
-0.959706
-0.889373
-0.813663
-0.734539
-0.649416
-0.552158
-0.430916
-0.293581
-0.17139
-0.0712342
0.300819
0.789712
1.19064
1.48718
1.66509
1.75826
1.79221
-0.990859
-0.989117
-0.971591
-0.924546
-0.86024
-0.791478
-0.721184
-0.645972
-0.557149
-0.440263
-0.296746
-0.173652
-0.0803314
0.121101
0.425348
0.686084
0.88844
1.01855
1.08609
1.10875
-0.91561
-0.914518
-0.902229
-0.867803
-0.817985
-0.763911
-0.709142
-0.650469
-0.577133
-0.468644
-0.321505
-0.174677
-0.0517289
0.0717507
0.259991
0.420454
0.544947
0.627707
0.677248
0.690244
-0.832501
-0.830657
-0.822686
-0.802142
-0.770934
-0.735903
-0.700599
-0.663527
-0.615582
-0.529874
-0.393004
-0.230585
-0.0890359
-0.00490543
0.0927361
0.200183
0.283449
0.340176
0.365659
0.371087
-0.770185
-0.768469
-0.763839
-0.753335
-0.737633
-0.720524
-0.706111
-0.696417
-0.688445
-0.662434
-0.556552
-0.381976
-0.216734
-0.152839
-0.0966231
-0.014652
0.0610988
0.109943
0.136291
0.13934
-0.735774
-0.735045
-0.733467
-0.730017
-0.725769
-0.724863
-0.733753
-0.761909
-0.822154
-0.915189
-0.908447
-0.69625
-0.471712
-0.38051
-0.298843
-0.206817
-0.126244
-0.0702046
-0.0432655
-0.0432614
-0.714288
-0.715034
-0.716213
-0.718097
-0.723642
-0.738504
-0.773523
-0.851
-1.01696
-1.3076
-1.47962
-1.21573
-0.861403
-0.673409
-0.548776
-0.413103
-0.300231
-0.225282
-0.195299
-0.19786
-0.684937
-0.686858
-0.690442
-0.697046
-0.711008
-0.739306
-0.79891
-0.926369
-1.20978
-1.74304
-2.14799
-1.84347
-1.31219
-1.0186
-0.812772
-0.618825
-0.474625
-0.389622
-0.363682
-0.366723
-0.633358
-0.63597
-0.641004
-0.650387
-0.669056
-0.7051
-0.778439
-0.932059
-1.26603
-1.94375
-2.41065
-2.09103
-1.53909
-1.21716
-0.965059
-0.770152
-0.649676
-0.595833
-0.580226
-0.580004
-0.553932
-0.556486
-0.5615
-0.570942
-0.589109
-0.624165
-0.693072
-0.83772
-1.15808
-1.75161
-2.11965
-1.83907
-1.46658
-1.19807
-0.961151
-0.829498
-0.778162
-0.764561
-0.753586
-0.748778
-0.45231
-0.454209
-0.458068
-0.465099
-0.478838
-0.504912
-0.555438
-0.659964
-0.888394
-1.30097
-1.5541
-1.40065
-1.16269
-0.934167
-0.795137
-0.743133
-0.75438
-0.762707
-0.757722
-0.753312
-0.341583
-0.342578
-0.344757
-0.348651
-0.356333
-0.370734
-0.398144
-0.453468
-0.571285
-0.786984
-0.928738
-0.836368
-0.697615
-0.575408
-0.544398
-0.573623
-0.604057
-0.616565
-0.61713
-0.615569
-0.236397
-0.23661
-0.237355
-0.238628
-0.241224
-0.245982
-0.254743
-0.271802
-0.306412
-0.364423
-0.399641
-0.342117
-0.303839
-0.305479
-0.35321
-0.399524
-0.424629
-0.434579
-0.437662
-0.437621
-0.147493
-0.147236
-0.147135
-0.146925
-0.146535
-0.145654
-0.143901
-0.140698
-0.135136
-0.122493
-0.102159
-0.0723192
-0.0953928
-0.155669
-0.209429
-0.246458
-0.265118
-0.27411
-0.277716
-0.278559
-0.0794719
-0.0790414
-0.0786393
-0.0779533
-0.076497
-0.0734838
-0.06789
-0.0581182
-0.0419997
-0.0178439
0.00125477
0.0044748
-0.0249579
-0.0733021
-0.113257
-0.138748
-0.151997
-0.158289
-0.161622
-0.162642
-0.0317754
-0.0313623
-0.0309845
-0.0304048
-0.0290289
-0.0260186
-0.0203719
-0.0107682
0.00395726
0.0227811
0.0329751
0.0252387
0.00118805
-0.0301878
-0.0558948
-0.072215
-0.0810323
-0.0855176
-0.0879004
-0.0886819
-0.000943083
-0.000630755
-0.000399934
-0.000135615
0.000726782
0.00290298
0.00711638
0.0141858
0.0244652
0.0359546
0.0392929
0.0296945
0.0119585
-0.0076371
-0.0234385
-0.033727
-0.0394917
-0.0424995
-0.0440625
-0.0445757
0.0173054
0.0175055
0.0175821
0.0175376
0.0178626
0.0191032
0.0217415
0.0261805
0.032309
0.0382358
0.0379115
0.0295036
0.017087
0.00468131
-0.00515979
-0.0117723
-0.0156545
-0.0177069
-0.0187093
-0.0190378
0.0268272
0.0269359
0.0268959
0.0266346
0.0265493
0.0270308
0.02838
0.0307877
0.0339875
0.0364361
0.0344763
0.0277615
0.0192261
0.0111938
0.00487021
0.000490033
-0.00219477
-0.00362182
-0.00428351
-0.00448983
0.0306091
0.0306564
0.0305404
0.0301532
0.0298192
0.0297822
0.0302329
0.0312316
0.0325148
0.0329888
0.0305536
0.0254094
0.0195104
0.0141662
0.00996985
0.00698921
0.00509645
0.00408563
0.00364095
0.00350272
0.0307484
0.0307594
0.0306092
0.0301858
0.0297281
0.0293964
0.0293096
0.0294723
0.0296572
0.0291091
0.026684
0.0227668
0.0186173
0.0149641
0.0120959
0.010018
0.00866208
0.00793654
0.00763154
0.00754548
0.0286495
0.0286418
0.0284868
0.0280798
0.0275869
0.0271175
0.0267415
0.026441
0.0260461
0.0250554
0.0228741
0.0199076
0.0169464
0.014395
0.0123917
0.0109194
0.00994001
0.00941636
0.00920555
0.00914685
0.0252159
0.0252007
0.0250597
0.0246981
0.0242307
0.0237325
0.0232442
0.0227417
0.0221014
0.020998
0.0191493
0.0169136
0.0147808
0.0129739
0.0115553
0.0105019
0.00979183
0.00941293
0.00926589
0.00922592
0.0210083
0.0209924
0.0208748
0.0205727
0.020164
0.0197033
0.0192128
0.0186709
0.0179915
0.0169659
0.0154768
0.0138174
0.0122884
0.0110092
0.0100048
0.00925287
0.00874075
0.00846835
0.00836629
0.00833911
0.0163596
0.0163459
0.0162549
0.0160172
0.0156843
0.0152999
0.0148753
0.0143936
0.0137973
0.0129559
0.0118332
0.010649
0.00958424
0.00870017
0.00800376
0.00747715
0.00711469
0.006923
0.00685386
0.00683504
0.0114616
0.0114512
0.0113861
0.0112126
0.0109659
0.0106816
0.0103656
0.0100053
0.00956421
0.00896491
0.00820411
0.00742909
0.00674294
0.00617435
0.00572228
0.00537399
0.00512991
0.00500146
0.00495669
0.00494403
0.00642121
0.00641403
0.00637428
0.00626603
0.00611634
0.00595045
0.00576871
0.00556311
0.00531382
0.00498208
0.0045716
0.00416129
0.00380148
0.00350288
0.00326198
0.0030698
0.00292936
0.00285551
0.00283026
0.00282124
0.00131501
0.00131887
0.00134047
0.00135366
0.00132969
0.00128833
0.00124056
0.00118819
0.0011265
0.0010485
0.000949918
0.000844286
0.000750034
0.000670264
0.000605326
0.000554744
0.000522213
0.000518911
0.000537461
0.00054822
-0.711067
-0.491354
-0.241671
-0.0362533
0.130517
0.264771
0.377925
0.473273
0.516668
0.494145
-0.316132
-0.164526
-0.00629857
0.130103
0.245889
0.342834
0.421664
0.47794
0.507121
0.518461
-0.0445388
0.0562415
0.162382
0.25674
0.338124
0.40641
0.460692
0.500337
0.528259
0.545439
0.146425
0.215742
0.290087
0.357561
0.416211
0.465866
0.506394
0.538346
0.56365
0.581436
0.290902
0.341059
0.394388
0.444824
0.48926
0.527807
0.560477
0.587303
0.609239
0.626769
0.407215
0.444475
0.486959
0.526839
0.563118
0.595358
0.623283
0.646496
0.665364
0.682572
0.507096
0.538239
0.575279
0.610023
0.642256
0.671324
0.69657
0.717393
0.733592
0.750634
0.600155
0.630909
0.666793
0.70045
0.731464
0.759255
0.783085
0.802286
0.816143
0.833199
0.698264
0.732334
0.770137
0.804736
0.835669
0.86262
0.885193
0.902934
0.915151
0.932594
0.815043
0.853207
0.8926
0.927529
0.957427
0.982646
1.0034
1.0196
1.0313
1.04942
0.961123
1.00004
1.03639
1.06744
1.09345
1.11584
1.13513
1.15085
1.16343
1.18146
1.1365
1.16854
1.19496
1.21758
1.23776
1.25665
1.2745
1.29109
1.30653
1.32463
1.32549
1.34286
1.35811
1.37449
1.3905
1.40513
1.41842
1.43241
1.45002
1.4702
1.50765
1.51712
1.52872
1.53958
1.5489
1.55858
1.56947
1.58089
1.59229
1.60767
1.71486
1.71857
1.70365
1.68887
1.68268
1.68841
1.70691
1.73726
1.76947
1.79614
2.02122
1.88636
1.80978
1.76752
1.75012
1.7541
1.78154
1.83795
1.94058
2.16495
0.303932
0.30181
0.297325
0.288708
0.276497
0.264383
0.254166
0.246268
0.24062
0.237289
0.236784
0.239318
0.244229
0.251287
0.260541
0.271976
0.28455
0.295529
0.301618
0.304649
0.22836
0.234211
0.240562
0.24508
0.247572
0.247269
0.244549
0.240745
0.237212
0.234866
0.234554
0.236543
0.239997
0.244099
0.247758
0.249523
0.248493
0.244933
0.239708
0.233064
0.219911
0.222209
0.225635
0.228666
0.230782
0.232317
0.233105
0.232802
0.231746
0.230764
0.23076
0.231959
0.23355
0.234645
0.234638
0.233593
0.231916
0.229476
0.226139
0.223188
0.214368
0.215451
0.21733
0.219786
0.221886
0.223378
0.224439
0.225201
0.225581
0.225715
0.226008
0.226537
0.226854
0.226672
0.226043
0.224999
0.223351
0.221105
0.218896
0.217476
0.209164
0.209817
0.210987
0.212814
0.214728
0.216485
0.217876
0.218928
0.219771
0.220447
0.220947
0.221179
0.221058
0.22059
0.219724
0.218379
0.216684
0.214906
0.213421
0.212603
0.20423
0.204668
0.205533
0.20701
0.208692
0.210397
0.212026
0.213439
0.214595
0.215531
0.216173
0.21636
0.216084
0.215375
0.214254
0.212869
0.211377
0.20992
0.208785
0.208235
0.199611
0.199913
0.200611
0.201937
0.203524
0.20515
0.2068
0.208396
0.209795
0.210916
0.211694
0.211954
0.211638
0.210824
0.209689
0.208407
0.20706
0.205738
0.204789
0.204391
0.195357
0.195565
0.196134
0.197316
0.198789
0.200309
0.201818
0.20334
0.204863
0.206256
0.207232
0.207511
0.207205
0.206542
0.205658
0.204589
0.203396
0.20224
0.201452
0.201163
0.191525
0.191637
0.192107
0.19323
0.194674
0.196197
0.197783
0.199364
0.200881
0.202304
0.203451
0.204018
0.204
0.203516
0.202692
0.201694
0.200593
0.199518
0.198836
0.198649
0.1885
0.188543
0.188873
0.189793
0.191054
0.192384
0.193783
0.195294
0.196925
0.198562
0.199958
0.200757
0.200934
0.200717
0.200233
0.199556
0.198724
0.197902
0.197432
0.197334
0.185983
0.186004
0.18621
0.186809
0.187734
0.188808
0.190046
0.191464
0.193056
0.194802
0.196489
0.197684
0.198299
0.198477
0.198368
0.198062
0.197665
0.197264
0.197057
0.197004
0.183142
0.183166
0.183321
0.183717
0.184381
0.185289
0.186439
0.187892
0.189674
0.191718
0.193797
0.195397
0.196351
0.196847
0.197006
0.197073
0.197051
0.196995
0.196949
0.196911
0.179465
0.179485
0.179632
0.179972
0.180526
0.181326
0.182464
0.183981
0.185925
0.188298
0.190861
0.192989
0.194415
0.195372
0.195914
0.196267
0.19656
0.196714
0.196743
0.196717
0.17496
0.174964
0.175112
0.175501
0.176118
0.177035
0.178318
0.180095
0.182404
0.185255
0.188431
0.191166
0.193083
0.194363
0.195274
0.19589
0.196304
0.196509
0.196566
0.196558
0.169767
0.169761
0.169902
0.170376
0.171155
0.172209
0.173763
0.175856
0.178607
0.182091
0.18605
0.18954
0.192062
0.193831
0.195053
0.195887
0.196399
0.196656
0.196761
0.196776
0.163949
0.163923
0.164081
0.164605
0.165524
0.166982
0.168813
0.171323
0.174665
0.178942
0.183861
0.188275
0.191531
0.193844
0.195439
0.196514
0.197149
0.197503
0.197673
0.197704
0.157403
0.157367
0.157565
0.158156
0.159264
0.160907
0.163207
0.166275
0.170394
0.175689
0.181824
0.187376
0.191492
0.194416
0.196477
0.197865
0.198732
0.19924
0.199483
0.199525
0.149806
0.149764
0.149998
0.150734
0.152012
0.15395
0.156732
0.160561
0.165685
0.17229
0.179949
0.18689
0.192042
0.195768
0.19837
0.200126
0.201274
0.20197
0.202289
0.202339
0.140703
0.140652
0.140952
0.141831
0.14341
0.1458
0.149238
0.15402
0.16045
0.168723
0.178279
0.186909
0.19333
0.197967
0.201212
0.203431
0.204908
0.205813
0.206217
0.206277
0.12961
0.129548
0.129955
0.131084
0.133055
0.136063
0.140411
0.146476
0.154599
0.164978
0.176876
0.187555
0.195497
0.201202
0.205208
0.207967
0.209821
0.210962
0.211463
0.211536
0.115845
0.115769
0.116327
0.117824
0.120394
0.124292
0.129912
0.137694
0.148015
0.161054
0.175819
0.188953
0.198665
0.205648
0.210563
0.213962
0.216259
0.217676
0.218297
0.218383
0.0984892
0.0984063
0.0992082
0.10125
0.104686
0.109871
0.117278
0.127397
0.140605
0.156988
0.175216
0.191242
0.203034
0.211518
0.217509
0.221673
0.224502
0.226251
0.227018
0.227115
0.0761189
0.0760428
0.0772466
0.0801384
0.0849112
0.0920462
0.102051
0.115402
0.132379
0.152893
0.175223
0.194588
0.208773
0.219
0.22627
0.231363
0.234848
0.237001
0.237935
0.238049
0.0463747
0.0463519
0.0482894
0.052671
0.0597267
0.0699743
0.0838452
0.101652
0.123466
0.148981
0.176049
0.199169
0.216035
0.228251
0.237025
0.243253
0.247565
0.250234
0.251374
0.251503
0.00507323
0.00526818
0.00884954
0.0163195
0.0275647
0.0429341
0.0625226
0.0863395
0.114197
0.14557
0.177923
0.205124
0.224902
0.239327
0.249843
0.257461
0.262854
0.266199
0.267583
0.267716
-0.0555979
-0.0540502
-0.0454387
-0.0314116
-0.0124423
0.0110812
0.0386752
0.0701424
0.105139
0.143044
0.181039
0.212494
0.235312
0.252086
0.264528
0.273781
0.280494
0.28475
0.286488
0.286647
-0.12817
-0.125651
-0.109523
-0.0849799
-0.0554428
-0.0224223
0.0139413
0.053599
0.0962897
0.141478
0.186141
0.223049
0.250095
0.270359
0.285782
0.297627
0.306694
0.312262
0.31407
0.314548
-0.20288
-0.194811
-0.171022
-0.136429
-0.0972565
-0.0550514
-0.0100182
0.0377956
0.0881859
0.140696
0.192117
0.234555
0.265839
0.289579
0.308014
0.322502
0.333762
0.340564
0.343761
0.344716
-0.261149
-0.251606
-0.222935
-0.181675
-0.135044
-0.0851523
-0.0324586
0.0228396
0.080433
0.139819
0.197485
0.244821
0.27964
0.306055
0.326566
0.342699
0.355186
0.363416
0.367635
0.368777
-0.308343
-0.298255
-0.266178
-0.220139
-0.167924
-0.111987
-0.0529388
0.00885069
0.072878
0.138493
0.201761
0.253304
0.290929
0.319241
0.341054
0.358122
0.371339
0.380355
0.384932
0.386141
-0.347485
-0.337296
-0.303104
-0.253386
-0.196674
-0.135831
-0.0714966
-0.00414721
0.0655471
0.136734
0.20501
0.260183
0.300038
0.329706
0.352327
0.369841
0.383262
0.392535
0.397133
0.398453
-0.381413
-0.371233
-0.33548
-0.282819
-0.22246
-0.15749
-0.0885853
-0.0163735
0.0583635
0.134608
0.20744
0.265887
0.307715
0.338505
0.36168
0.379387
0.392837
0.402092
0.406689
0.40802
-0.411684
-0.401547
-0.364621
-0.309535
-0.246133
-0.177604
-0.104715
-0.0281761
0.0511423
0.13206
0.209227
0.270816
0.314478
0.34625
0.36988
0.387751
0.401199
0.410466
0.415087
0.416289
-0.439501
-0.429373
-0.391488
-0.33435
-0.268342
-0.196728
-0.120316
-0.0398647
0.0436645
0.128985
0.210307
0.274955
0.320481
0.353309
0.377483
0.395577
0.409085
0.41834
0.422983
0.424024
-0.465629
-0.455485
-0.416758
-0.357843
-0.289539
-0.215194
-0.135652
-0.0516834
0.0357201
0.125189
0.210578
0.278434
0.326018
0.360066
0.384895
0.403299
0.416915
0.426154
0.430787
0.431729
-0.490523
-0.480349
-0.440864
-0.380392
-0.310041
-0.233281
-0.150949
-0.0637961
0.0271782
0.120616
0.210126
0.281345
0.331174
0.366648
0.392307
0.411153
0.424969
0.434232
0.438833
0.439744
-0.514572
-0.504293
-0.464033
-0.402261
-0.330067
-0.25115
-0.166314
-0.076276
0.0180185
0.115258
0.208845
0.283608
0.335953
0.37311
0.399825
0.41928
0.43341
0.442755
0.44725
0.448154
-0.537951
-0.527496
-0.486586
-0.423566
-0.349713
-0.268885
-0.18181
-0.0891594
0.00817742
0.108985
0.206606
0.285134
0.340338
0.379481
0.407493
0.427736
0.442291
0.451769
0.456162
0.457033
-0.560686
-0.550038
-0.508563
-0.444367
-0.369056
-0.286532
-0.197468
-0.102487
-0.00240202
0.101741
0.203343
0.285797
0.344191
0.385691
0.415278
0.436504
0.451598
0.461241
0.465528
0.466286
-0.582912
-0.572029
-0.52995
-0.464692
-0.388105
-0.304083
-0.213268
-0.116238
-0.0136839
0.0935401
0.198958
0.285451
0.347335
0.391592
0.42311
0.445543
0.46128
0.471094
0.475244
0.475866
-0.60455
-0.59344
-0.550777
-0.484555
-0.406827
-0.321494
-0.229156
-0.130337
-0.0256111
0.0843729
0.193386
0.283935
0.349586
0.397016
0.430894
0.454817
0.471295
0.481249
0.485207
0.485651
-0.625621
-0.61426
-0.571015
-0.503926
-0.425187
-0.338716
-0.245065
-0.144709
-0.0381227
0.0742791
0.186589
0.281096
0.350696
0.401742
0.438519
0.464324
0.481631
0.491566
0.495175
0.495426
-0.64598
-0.634435
-0.590613
-0.522751
-0.443126
-0.355666
-0.26092
-0.159275
-0.0511272
0.0633419
0.178563
0.276809
0.350405
0.405437
0.445774
0.474109
0.49242
0.502007
0.504948
0.504944
-0.66572
-0.653913
-0.60955
-0.541001
-0.4606
-0.3723
-0.276626
-0.173941
-0.064515
0.0516641
0.169347
0.270987
0.348476
0.40769
0.452285
0.484197
0.504153
0.512936
0.51437
0.513903
-0.684717
-0.672651
-0.6278
-0.558624
-0.477534
-0.388535
-0.292101
-0.18858
-0.0781661
0.0393368
0.159028
0.263588
0.344706
0.408025
0.457385
0.494285
0.5176
0.525852
0.524124
0.521945
-0.702999
-0.690718
-0.645316
-0.57557
-0.493891
-0.404306
-0.30726
-0.20311