/*--------------------------------*- C++ -*----------------------------------*\
| =========                 |                                                 |
| \\      /  F ield         | OpenFOAM: The Open Source CFD Toolbox           |
|  \\    /   O peration     | Version:  4.0                                   |
|   \\  /    A nd           | Web:      www.OpenFOAM.org                      |
|    \\/     M anipulation  |                                                 |
\*---------------------------------------------------------------------------*/
FoamFile
{
    version     2.0;
    format      ascii;
    class       surfaceScalarField;
    location    "19";
    object      phi;
}
// * * * * * * * * * * * * * * * * * * * * * * * * * * * * * * * * * * * * * //

dimensions      [0 3 -1 0 0 0 0];

internalField   nonuniform List<scalar> 
17370
(
-0.0916057
0.0960134
0.284603
-0.0776013
0.0594286
0.364948
-0.0430483
0.031622
0.427594
-0.0223066
0.0162399
0.505318
-0.011628
0.00873734
0.602293
-0.00651544
0.00503267
0.72054
-0.00381037
0.00295201
0.863765
-0.00220729
0.00165278
1.036
-0.00114279
0.000735796
1.24291
-0.000331055
-5.7544e-05
1.49158
0.000442255
-0.000850517
1.4916
0.00125392
-0.00175795
1.24319
0.00230538
-0.00304137
1.03637
0.00389196
-0.00510586
0.86412
0.00658213
-0.00879743
0.721273
0.0116796
-0.0162792
0.603814
0.0223339
-0.0316368
0.508742
0.0430507
-0.0594237
0.432541
0.0775982
-0.0960106
0.365188
0.0916143
0.197397
-0.1271
0.0880397
0.0390604
-0.364364
0.354041
-0.0714566
0.0817796
-0.446645
0.454261
-0.0791559
0.0715401
-0.521005
0.529107
-0.0636782
0.0555767
-0.612992
0.620742
-0.0482029
0.0404523
-0.727174
0.733684
-0.0338576
0.0273473
-0.867577
0.872435
-0.0221411
0.0172832
-1.03855
1.04187
-0.0135832
0.010255
-1.24469
1.24707
-0.00772087
0.00534336
-1.49281
1.49476
-0.0034173
0.00146389
-1.49267
1.49442
0.000291831
-0.00204732
-1.24409
1.24599
0.00398042
-0.00588311
-1.03759
1.0401
0.00823041
-0.0107371
-0.866186
0.869855
0.0140341
-0.0177027
-0.724619
0.729789
0.0225238
-0.0276941
-0.609086
0.61565
0.0341667
-0.0407313
-0.515134
0.522476
0.0484503
-0.0557923
-0.439874
0.447689
0.063847
-0.0716618
-0.374733
0.377367
0.0792104
-0.0818445
-0.25694
0.224512
0.0715069
-0.0390789
-0.0688378
0.0592459
0.00959192
-0.0519964
0.0587918
-0.374853
0.368058
-0.0579161
0.0540456
-0.453952
0.457823
-0.0485214
0.0439251
-0.527611
0.532207
-0.0393436
0.0354274
-0.620777
0.624693
-0.0312192
0.0272634
-0.734632
0.738588
-0.0229812
0.0191753
-0.873926
0.877732
-0.0152274
0.0118589
-1.0433
1.04667
-0.00844011
0.00549092
-1.24856
1.2515
-0.00236313
-0.000555249
-1.49682
1.49974
0.00346132
-0.00655695
-1.49731
1.50041
0.00945892
-0.0128192
-1.25002
1.25338
0.0161263
-0.0200017
-1.04566
1.04953
0.0237396
-0.0279483
-0.877177
0.881386
0.0318396
-0.0359832
-0.73902
0.743164
0.0398448
-0.0443738
-0.626024
0.630553
0.0489286
-0.0544131
-0.535071
0.540556
0.058239
-0.0590631
-0.458153
0.458977
0.0521943
-0.0319212
-0.336893
0.31662
0.00962672
-0.0687499
0.0591232
-0.0534792
0.0493978
0.00408142
-0.0330425
0.043402
-0.358648
0.348289
-0.0470559
0.0464865
-0.459616
0.460185
-0.0436022
0.0404341
-0.536162
0.53933
-0.0367832
0.0334315
-0.628376
0.631728
-0.0297877
0.0265396
-0.741956
0.745204
-0.0230765
0.0199028
-0.881189
0.884363
-0.0163809
0.0131168
-1.05005
1.05331
-0.00953783
0.00626605
-1.25469
1.25796
-0.00264018
-0.000815821
-1.50298
1.50644
0.00425343
-0.00782588
-1.50382
1.50739
0.0110296
-0.0145166
-1.25689
1.26038
0.0176912
-0.0211133
-1.05321
1.05663
0.024197
-0.0275624
-0.885002
0.888367
0.0307264
-0.0342847
-0.746884
0.750442
0.0375604
-0.0411298
-0.634714
0.638283
0.0442271
-0.0470345
-0.544735
0.547542
0.0475282
-0.0437751
-0.457154
0.453401
0.0332985
-0.0161815
-0.29744
0.280323
0.00411999
-0.0533205
0.0492005
-0.0462667
0.0437629
0.00250379
-0.0226616
0.0328392
-0.337811
0.327633
-0.0384384
0.0393109
-0.459939
0.459067
-0.0380049
0.0356644
-0.541911
0.544251
-0.0330357
0.0305334
-0.634637
0.637139
-0.0276343
0.0248853
-0.748261
0.75101
-0.021779
0.0189054
-0.887391
0.890264
-0.0157171
0.012754
-1.05641
1.05937
-0.00940152
0.00619955
-1.26123
1.26443
-0.00249483
-0.00113109
-1.51003
1.51366
0.00473203
-0.00836427
-1.51104
1.51467
0.011474
-0.0147043
-1.26375
1.26698
0.0175426
-0.0205865
-1.05983
1.06287
0.0233291
-0.0262992
-0.891592
0.894562
0.0289268
-0.0316959
-0.753653
0.756422
0.0340884
-0.0366122
-0.641222
0.643745
0.0388707
-0.0400709
-0.549405
0.550606
0.0390898
-0.0333344
-0.448434
0.442679
0.0229881
-0.010073
-0.265398
0.252483
0.00255169
-0.0460269
0.0434752
-0.0417084
0.0399884
0.00172001
-0.0162989
0.0252789
-0.317989
0.309009
-0.0316494
0.0336702
-0.457603
0.455583
-0.0331991
0.0314867
-0.546327
0.548039
-0.0292564
0.0271455
-0.639396
0.641507
-0.0247889
0.0225578
-0.753448
0.755679
-0.0199721
0.0174624
-0.892954
0.895463
-0.0145426
0.0117456
-1.06224
1.06504
-0.00853744
0.00547108
-1.26756
1.27062
-0.00193586
-0.00149269
-1.51721
1.52064
0.004893
-0.00833528
-1.51822
1.52166
0.0112746
-0.0143175
-1.27011
1.27315
0.0169506
-0.0196835
-1.06577
1.0685
0.0220256
-0.0244326
-0.89722
0.899626
0.026507
-0.0287123
-0.758825
0.76103
0.030684
-0.0327725
-0.646059
0.648148
0.034354
-0.034671
-0.551343
0.551659
0.0324823
-0.0258904
-0.4364
0.429808
0.0166931
-0.00702594
-0.241321
0.231654
0.00177701
-0.0413685
0.0395915
-0.0385303
0.0372972
0.00123317
-0.011896
0.0193492
-0.300768
0.293315
-0.0256911
0.0284535
-0.453118
0.450355
-0.0287061
0.0277183
-0.549359
0.550347
-0.0259552
0.0242225
-0.643431
0.645163
-0.0221915
0.0201859
-0.757804
0.75981
-0.0178378
0.0155592
-0.897857
0.900136
-0.01292
0.0103682
-1.06774
1.07029
-0.00741924
0.0045799
-1.2736
1.27644
-0.00129333
-0.00190761
-1.52394
1.52714
0.00506802
-0.00823667
-1.52498
1.52814
0.0109196
-0.0136616
-1.27607
1.27882
0.0160035
-0.0184079
-1.07109
1.07349
0.0204696
-0.0225811
-0.901886
0.903998
0.0243807
-0.0262025
-0.76306
0.764882
0.0277618
-0.0293554
-0.649967
0.651561
0.0301684
-0.0297169
-0.551561
0.55111
0.0267277
-0.0200943
-0.423104
0.41647
0.0123717
-0.00511945
-0.223271
0.216019
0.00130274
-0.0380703
0.0367676
-0.0362655
0.0354024
0.000863085
-0.00851106
0.014372
-0.28667
0.280809
-0.0200761
0.0230401
-0.447439
0.444475
-0.0237041
0.023093
-0.551103
0.551714
-0.0215507
0.0200103
-0.646773
0.648314
-0.0182471
0.0165748
-0.761653
0.763325
-0.0146561
0.0128045
-0.90221
0.904061
-0.0106431
0.00851463
-1.07263
1.07476
-0.00599016
0.00348494
-1.27912
1.28163
-0.000497146
-0.00246437
-1.53026
1.53322
0.00536911
-0.00819515
-1.53116
1.53399
0.0104948
-0.0127481
-1.28132
1.28357
0.01461
-0.0164687
-1.07563
1.07748
0.0180437
-0.0196704
-0.905876
0.907503
0.021075
-0.0225477
-0.766514
0.767987
0.0238578
-0.0251668
-0.653
0.654309
0.0255481
-0.0246028
-0.550385
0.54944
0.0213366
-0.0152664
-0.410066
0.403996
0.00908135
-0.00371119
-0.20977
0.2044
0.000947434
-0.035659
0.0347115
-0.0346805
0.0340927
0.000587794
-0.00578909
0.0101801
-0.275692
0.271301
-0.0150235
0.017952
-0.44152
0.438591
-0.018984
0.0186356
-0.552221
0.552569
-0.0174476
0.0161825
-0.649764
0.651029
-0.0147937
0.0134935
-0.76481
0.76611
-0.0119599
0.0104143
-0.905739
0.907284
-0.0085196
0.00662199
-1.07675
1.07864
-0.0043503
0.0021119
-1.28397
1.2862
0.000523071
-0.00308379
-1.53596
1.53853
0.00558175
-0.00802551
-1.5366
1.53904
0.0100082
-0.0119425
-1.28564
1.28757
0.013496
-0.0149843
-1.07914
1.08062
0.0161519
-0.0172798
-0.908869
0.909997
0.0182603
-0.0193378
-0.769298
0.770375
0.0203239
-0.0212025
-0.655449
0.656327
0.0212543
-0.0198594
-0.548282
0.546887
0.016546
-0.0112522
-0.398302
0.393009
0.00647475
-0.00263035
-0.199812
0.195968
0.000692256
-0.0338958
0.0332036
-0.0336478
0.0333538
0.00029401
-0.00316209
0.00605307
-0.267655
0.264764
-0.00983605
0.0126311
-0.435702
0.432907
-0.0141679
0.0144163
-0.552645
0.552397
-0.0139394
0.0131568
-0.652048
0.652831
-0.0121055
0.0110102
-0.76729
0.768386
-0.00967477
0.00830655
-0.908728
0.910096
-0.00665067
0.00495698
-1.08045
1.08214
-0.00289768
0.000840224
-1.28837
1.29043
0.00157215
-0.00389926
-1.54097
1.54329
0.00614596
-0.00831647
-1.54137
1.54354
0.0100394
-0.0116474
-1.28937
1.29098
0.0129053
-0.0140934
-1.08196
1.08314
0.0150417
-0.0159367
-0.911003
0.911898
0.016604
-0.0171855
-0.771177
0.771759
0.0175681
-0.0176244
-0.656819
0.656876
0.0169699
-0.0149406
-0.545179
0.54315
0.0116599
-0.00734021
-0.388162
0.383842
0.00399367
-0.0015795
-0.192859
0.190445
0.000422587
-0.0326439
0.0322213
-0.0331977
0.0331507
4.70093e-05
-0.00120383
0.00279857
-0.262579
0.260984
-0.00531109
0.00754966
-0.430323
0.428084
-0.00917634
0.00978425
-0.551889
0.551281
-0.00976478
0.00930842
-0.653428
0.653884
-0.00859844
0.00778435
-0.769372
0.770186
-0.00669393
0.005534
-0.911382
0.912542
-0.004085
0.00261598
-1.08372
1.08519
-0.00086038
-0.000881753
-1.29232
1.29406
0.00293931
-0.00493694
-1.54546
1.54746
0.00682211
-0.00854777
-1.54549
1.54722
0.00984714
-0.0110384
-1.29239
1.29359
0.0119268
-0.012689
-1.08415
1.08491
0.0132071
-0.0136245
-0.912578
0.912996
0.0139134
-0.0141213
-0.772149
0.772357
0.0141419
-0.013651
-0.656577
0.656086
0.0125674
-0.0103689
-0.540938
0.538739
0.00756104
-0.00440488
-0.380112
0.376956
0.0022474
-0.000833972
-0.188615
0.187202
0.000207454
-0.0319243
0.0317168
-0.0331706
0.033233
-6.24118e-05
-0.000334366
0.00121238
-0.25982
0.258942
-0.00275798
0.0042349
-0.426248
0.424772
-0.00535751
0.00576862
-0.550746
0.550335
-0.00574114
0.00541179
-0.654246
0.654575
-0.00482316
0.00417035
-0.770902
0.771555
-0.00335428
0.00246317
-0.913555
0.914446
-0.00132235
0.000149057
-1.08649
1.08767
0.0012986
-0.00275037
-1.29563
1.29708
0.00448553
-0.00616561
-1.54929
1.55097
0.00771043
-0.00904964
-1.54874
1.55008
0.0099824
-0.0107455
-1.29454
1.2953
0.0112451
-0.0116024
-1.08542
1.08578
0.0117903
-0.0118542
-0.913202
0.913265
0.0117982
-0.0116626
-0.772391
0.772255
0.0114059
-0.0107618
-0.655506
0.654862
0.00971357
-0.00783585
-0.536693
0.534815
0.00562087
-0.00324994
-0.374272
0.371901
0.00165452
-0.000603467
-0.186039
0.184988
0.000139934
-0.0315626
0.0314227
-0.0333145
0.0334038
-8.93036e-05
-6.72526e-05
0.000696693
-0.258216
0.257587
-0.00187788
0.00302208
-0.423525
0.42238
-0.00385015
0.00408575
-0.550064
0.549828
-0.00389247
0.00340441
-0.65499
0.655478
-0.00273141
0.00210088
-0.772238
0.772868
-0.00132059
0.000483106
-0.915291
0.916128
0.000585268
-0.00170937
-1.08874
1.08986
0.00310672
-0.00451615
-1.29843
1.29984
0.00616153
-0.00769421
-1.55251
1.55404
0.00905825
-0.0101928
-1.55128
1.55241
0.0109261
-0.0114881
-1.29594
1.2965
0.0118143
-0.0119846
-1.08608
1.08625
0.012008
-0.0119289
-0.913252
0.913173
0.0117611
-0.0114183
-0.771933
0.77159
0.011021
-0.0103417
-0.654181
0.653501
0.00930896
-0.00751535
-0.533053
0.531259
0.00543346
-0.00321355
-0.369679
0.367459
0.00169238
-0.000650739
-0.183971
0.182929
0.000161929
-0.0312843
0.0311224
-0.0334937
0.0335976
-0.000103968
0.000187502
0.000307478
-0.257019
0.256524
-0.00145785
0.00276981
-0.421195
0.419883
-0.0039514
0.00444087
-0.549578
0.549089
-0.00439971
0.00403515
-0.655988
0.656353
-0.00345232
0.00273327
-0.773589
0.774308
-0.00178606
0.000713989
-0.917045
0.918117
0.000700693
-0.00219298
-1.09107
1.09256
0.00402933
-0.00583382
-1.30136
1.30316
0.00787569
-0.00973144
-1.55565
1.55751
0.0113849
-0.0127869
-1.55366
1.55506
0.0137218
-0.0144259
-1.29704
1.29774
0.0147725
-0.0148404
-1.08626
1.08633
0.0146906
-0.0144359
-0.912983
0.912729
0.0141165
-0.013724
-0.771243
0.770851
0.0132636
-0.0122485
-0.652774
0.651759
0.0107097
-0.00831428
-0.529292
0.526896
0.00584705
-0.00343516
-0.365169
0.362757
0.00185068
-0.000756567
-0.181872
0.180778
0.000208026
-0.0309509
0.0307429
-0.0337184
0.033863
-0.000144565
0.000570004
-0.000379485
-0.256146
0.255956
-0.000546922
0.00198301
-0.418503
0.417067
-0.00376274
0.005022
-0.548272
0.547013
-0.00561988
0.00562193
-0.656448
0.656445
-0.00515111
0.00441907
-0.775212
0.775944
-0.00320711
0.00171673
-0.919386
0.920876
0.000262303
-0.00231539
-1.09424
1.09629
0.00478011
-0.00717203
-1.30518
1.30758
0.0098798
-0.0123508
-1.55964
1.56211
0.014546
-0.0164315
-1.55675
1.55863
0.0177303
-0.0188031
-1.29865
1.29972
0.0194705
-0.0199186
-1.08658
1.08703
0.0200631
-0.0198081
-0.912401
0.912146
0.0192595
-0.0183934
-0.770182
0.769316
0.0170508
-0.0148416
-0.650248
0.648039
0.0121692
-0.00882985
-0.524068
0.520728
0.00596229
-0.00347956
-0.360308
0.357825
0.00192731
-0.000834578
-0.179704
0.178611
0.000247819
-0.0305345
0.0302867
-0.0340418
0.0342474
-0.000205539
0.00117545
-0.00139457
-0.255984
0.256203
0.00100475
0.000120934
-0.415804
0.414678
-0.00198361
0.0036929
-0.545511
0.543802
-0.00499291
0.00530189
-0.656247
0.655938
-0.00501052
0.0043433
-0.77679
0.777458
-0.0029651
0.00116152
-0.922481
0.924284
0.00128322
-0.00378765
-1.09848
1.10099
0.0067464
-0.00957141
-1.31014
1.31296
0.0127439
-0.0156203
-1.56479
1.56767
0.0181662
-0.0203178
-1.56075
1.5629
0.0217896
-0.0229517
-1.30094
1.3021
0.0236754
-0.0240565
-1.08744
1.08782
0.0239797
-0.0235391
-0.911629
0.911188
0.0227759
-0.0211467
-0.768055
0.766426
0.0188164
-0.0155999
-0.645316
0.6421
0.0122034
-0.00852223
-0.517226
0.513545
0.00570955
-0.00342171
-0.355496
0.353208
0.00197798
-0.000897076
-0.177574
0.176493
0.000276834
-0.0300542
0.0297773
-0.0345127
0.0348056
-0.000292881
0.00181445
-0.00255092
-0.256651
0.257388
0.00289939
-0.00255948
-0.414018
0.413678
0.00137019
-4.77101e-06
-0.542285
0.54092
-0.00126704
0.0019638
-0.655268
0.654571
-0.00184294
0.000990646
-0.778324
0.779176
0.000632094
-0.00258945
-0.926111
0.928069
0.00513335
-0.00771662
-1.10341
1.106
0.0107497
-0.0136215
-1.31576
1.31863
0.0167993
-0.0196039
-1.57051
1.57332
0.0219768
-0.0238714
-1.56501
1.5669
0.0250154
-0.0257805
-1.3032
1.30397
0.0260545
-0.0259471
-1.08788
1.08777
0.0255464
-0.0247106
-0.910427
0.909591
0.0232318
-0.020897
-0.764318
0.761983
0.0181407
-0.0146618
-0.638719
0.635241
0.0113505
-0.00801865
-0.510134
0.506802
0.00556705
-0.00352815
-0.351181
0.349142
0.00213572
-0.000998222
-0.175459
0.174321
0.000311606
-0.029518
0.0292064
-0.035177
0.0355815
-0.000404543
0.00253775
-0.00373804
-0.258398
0.259598
0.00480207
-0.00531259
-0.413884
0.414395
0.00522404
-0.00476799
-0.540192
0.539736
0.00426672
-0.00413862
-0.654205
0.654077
0.00456549
-0.00554045
-0.78001
0.780985
0.00716122
-0.0090386
-0.929747
0.931624
0.0114452
-0.0138749
-1.10834
1.11077
0.0167056
-0.0193409
-1.32129
1.32393
0.022154
-0.0244991
-1.57586
1.5782
0.0263122
-0.0275325
-1.56849
1.56971
0.0280313
-0.028013
-1.30445
1.30443
0.0276099
-0.0268541
-1.08726
1.0865
0.0257937
-0.0240846
-0.908114
0.906405
0.0221453
-0.0195995
-0.759388
0.756842
0.0169189
-0.0137603
-0.631961
0.628803
0.0109089
-0.00808227
-0.503923
0.501097
0.00592505
-0.00396813
-0.34732
0.345363
0.00248433
-0.00118159
-0.173191
0.171888
0.000370437
-0.0289056
0.0285352
-0.0360654
0.0365997
-0.000534305
0.00335265
-0.00503257
-0.261112
0.262792
0.00676297
-0.0080219
-0.415326
0.416585
0.00887033
-0.00935175
-0.540039
0.540521
0.00983111
-0.0104855
-0.654451
0.655106
0.0115904
-0.0129732
-0.781971
0.783354
0.0148515
-0.016825
-0.93329
0.935264
0.0192196
-0.02155
-1.11296
1.11529
0.0241747
-0.0265117
-1.32628
1.32862
0.0288371
-0.0305639
-1.58016
1.58189
0.0316369
-0.0320111
-1.5705
1.57087
0.0317193
-0.030848
-1.30403
1.30316
0.0297256
-0.0281152
-1.08516
1.08355
0.0263255
-0.0241349
-0.904285
0.902095
0.0219497
-0.019373
-0.754147
0.751571
0.0168747
-0.014069
-0.625913
0.623107
0.0115643
-0.00899257
-0.498672
0.496101
0.0068658
-0.004736
-0.343534
0.341404
0.00301428
-0.00144249
-0.17056
0.168988
0.000451736
-0.0281759
0.0277242
-0.0372123
0.037913
-0.000700759
0.00438558
-0.00662821
-0.26478
0.267022
0.00904795
-0.0110041
-0.418292
0.420248
0.0126853
-0.0139609
-0.54174
0.543015
0.015308
-0.0167509
-0.656278
0.65772
0.0186398
-0.0206146
-0.78481
0.786785
0.0230004
-0.0253208
-0.937151
0.939471
0.0279672
-0.0304001
-1.11747
1.1199
0.0329751
-0.0351027
-1.3307
1.33283
0.0369941
-0.0381135
-1.58321
1.58433
0.0384248
-0.0378866
-1.57074
1.5702
0.0367792
-0.0350977
-1.30188
1.3002
0.0332379
-0.0309242
-1.08146
1.07915
0.0286342
-0.0260315
-0.899528
0.896926
0.0236082
-0.0209349
-0.74878
0.746107
0.0184753
-0.015777
-0.620448
0.61775
0.0133283
-0.010676
-0.493827
0.491175
0.0083124
-0.00582163
-0.339353
0.336862
0.00373089
-0.00178846
-0.167366
0.165423
0.000559998
-0.0272843
0.0267243
-0.0387065
0.0396409
-0.00093445
0.00577828
-0.00872172
-0.269588
0.272532
0.0119214
-0.0145685
-0.422669
0.425316
0.0169981
-0.0189909
-0.545104
0.547097
0.0211807
-0.0234248
-0.659711
0.661955
0.026169
-0.0288716
-0.788855
0.791558
0.0319677
-0.0348343
-0.94176
0.944627
0.0379405
-0.0406428
-1.12223
1.12493
0.0433282
-0.0453701
-1.33475
1.33679
0.0469411
-0.0475354
-1.58508
1.58568
0.0471515
-0.0457889
-1.5692
1.56784
0.0439185
-0.0413972
-1.29806
1.29554
0.0388013
-0.0357819
-1.07639
1.07338
0.0329644
-0.0298904
-0.893902
0.890828
0.0271382
-0.0242074
-0.743088
0.740157
0.0215793
-0.0187135
-0.615028
0.612162
0.0160513
-0.0130413
-0.488749
0.485739
0.0102583
-0.00721798
-0.334421
0.33138
0.00462831
-0.00221464
-0.163426
0.161013
0.000691731
-0.0261875
0.0254957
-0.0406664
0.0419461
-0.00127968
0.00776404
-0.0116588
-0.275821
0.279716
0.0158559
-0.0193006
-0.428551
0.431995
0.0225197
-0.0252432
-0.550078
0.552802
0.0283074
-0.0314069
-0.664774
0.667873
0.03511
-0.038655
-0.794352
0.797897
0.042596
-0.0461295
-0.947483
0.951016
0.0498237
-0.0529077
-1.12757
1.13066
0.0558116
-0.0578441
-1.33865
1.34068
0.0591462
-0.0592354
-1.58591
1.58599
0.058152
-0.0559406
-1.566
1.56379
0.0532697
-0.0498765
-1.29255
1.28915
0.0465293
-0.0427506
-1.06989
1.06611
0.0393088
-0.0356341
-0.887236
0.883561
0.0324091
-0.0290343
-0.736716
0.733341
0.0260426
-0.0227829
-0.609099
0.605839
0.0197061
-0.016138
-0.482906
0.479338
0.0127298
-0.00896939
-0.328397
0.324636
0.00574746
-0.0027453
-0.158554
0.155552
0.000854355
-0.0248447
0.0239904
-0.0432962
0.0450842
-0.00178803
0.0106478
-0.0158481
-0.28394
0.289141
0.0213118
-0.0257047
-0.436276
0.440669
0.0298212
-0.033376
-0.556832
0.560386
0.0374667
-0.0415851
-0.671623
0.675741
0.0464213
-0.0509473
-0.801525
0.806051
0.0558663
-0.0601767
-0.954558
0.958868
0.0645575
-0.0680802
-1.13369
1.13721
0.0712187
-0.0732143
-1.3425
1.3445
0.0741788
-0.0736751
-1.58566
1.58516
0.0717968
-0.06863
-1.56104
1.55787
0.0650666
-0.0607085
-1.28524
1.28089
0.0565165
-0.0518599
-1.06181
1.05715
0.047669
-0.0432395
-0.879255
0.874825
0.0393882
-0.0353921
-0.729277
0.725281
0.0318692
-0.028029
-0.602192
0.598352
0.0243646
-0.0200549
-0.475861
0.471552
0.0158439
-0.0111247
-0.320978
0.316259
0.00709028
-0.0033503
-0.152544
0.148804
0.0010293
-0.0232031
0.0221738
-0.0469254
0.0495278
-0.00260246
0.0150503
-0.0220562
-0.294678
0.301684
0.0291523
-0.0347289
-0.446406
0.451983
0.0399689
-0.0446038
-0.565696
0.570331
0.0500495
-0.0554436
-0.680564
0.685958
0.0616221
-0.0672524
-0.81064
0.81627
0.073216
-0.078302
-0.963144
0.96823
0.0833108
-0.0871731
-1.14059
1.14446
0.0903975
-0.0921943
-1.34619
1.34799
0.0926204
-0.0913284
-1.58413
1.58284
0.0884685
-0.0841684
-1.55407
1.54977
0.07957
-0.0741041
-1.27594
1.27047
0.0689398
-0.0632648
-1.05189
1.04621
0.0581918
-0.052853
-0.869651
0.864312
0.0482287
-0.0434482
-0.720408
0.715628
0.0392445
-0.0346518
-0.593913
0.58932
0.0302182
-0.0249401
-0.467219
0.461941
0.0197147
-0.0138003
-0.311726
0.305812
0.00872677
-0.00408356
-0.145132
0.140489
0.00123907
-0.0212226
0.0199835
-0.0521262
0.0561834
-0.0040572
0.0223175
-0.0319408
-0.309182
0.318805
0.0412861
-0.0484546
-0.459814
0.466982
0.0551412
-0.0611897
-0.577311
0.583359
0.0683576
-0.0752418
-0.692035
0.698919
0.082836
-0.0895243
-0.821889
0.828577
0.0963864
-0.10204
-0.973171
0.978824
0.107377
-0.11127
-1.148
1.15189
0.11422
-0.115485
-1.34928
1.35055
0.115011
-0.112613
-1.58084
1.57844
0.108495
-0.102825
-1.5447
1.53903
0.0970162
-0.0902816
-1.26432
1.25758
0.084016
-0.0771927
-1.03985
1.03303
0.0711241
-0.0647487
-0.858124
0.851748
0.059229
-0.053522
-0.709782
0.704075
0.0485049
-0.043004
-0.583869
0.578369
0.0376324
-0.0311383
-0.456496
0.450002
0.0246254
-0.0172053
-0.30015
0.29273
0.0108165
-0.00500104
-0.136005
0.13019
0.00149038
-0.0188505
0.0173602
-0.0600195
0.0672195
-0.00720003
0.0358127
-0.0496642
-0.329661
0.343513
0.0621317
-0.0711689
-0.477705
0.486742
0.0794973
-0.087191
-0.592425
0.600118
0.0961805
-0.104396
-0.706259
0.714474
0.113038
-0.120332
-0.835061
0.842355
0.127513
-0.133155
-0.984073
0.989716
0.138174
-0.141487
-1.15516
1.15847
0.143527
-0.143691
-1.35099
1.35115
0.141775
-0.13782
-1.57507
1.57111
0.132092
-0.124786
-1.53242
1.52511
0.117581
-0.109435
-1.25007
1.24192
0.10196
-0.0939004
-1.02545
1.01739
0.0867699
-0.0793044
-0.844448
0.836983
0.0728443
-0.0661549
-0.697134
0.690444
0.0602578
-0.053741
-0.571701
0.565184
0.0472108
-0.0391468
-0.443083
0.43502
0.0309783
-0.0216464
-0.285531
0.276199
0.0135537
-0.00619415
-0.124762
0.117403
0.00177274
-0.0160384
0.0142657
-0.0741253
0.0777146
-0.00358928
0.0256886
-0.0376677
-0.360315
0.372294
0.0484942
-0.0569588
-0.50085
0.509314
0.0658729
-0.075405
-0.610842
0.620374
0.0860269
-0.0955601
-0.72236
0.731893
0.106177
-0.115554
-0.848886
0.858263
0.125278
-0.133606
-0.994432
1.00276
0.141868
-0.148469
-1.16068
1.16728
0.154315
-0.158096
-1.35009
1.35388
0.160035
-0.159271
-1.56588
1.56512
0.155673
-0.149654
-1.51667
1.51065
0.142626
-0.133751
-1.23289
1.22401
0.12512
-0.114823
-1.00854
0.998241
0.105462
-0.0952803
-0.828546
0.818364
0.0862797
-0.0767902
-0.682378
0.672889
0.0680727
-0.0586954
-0.557066
0.547689
0.0496133
-0.0382234
-0.426243
0.414853
0.0277137
-0.0171291
-0.266812
0.256227
0.00926071
-0.00345681
-0.110709
0.104906
0.000712886
-0.0128191
0.0121062
-0.0848244
0.0821539
0.00267045
0.0033487
-0.0104692
-0.387181
0.394301
0.0186649
-0.0253514
-0.522572
0.529259
0.0338042
-0.0421947
-0.630738
0.639128
0.0518415
-0.0606371
-0.741319
0.750115
0.0699928
-0.0784754
-0.86715
0.875632
0.0872895
-0.0945581
-1.01081
1.01807
0.101977
-0.107569
-1.17373
1.17933
0.112468
-0.115332
-1.35738
1.36025
0.116111
-0.11447
-1.5635
1.56186
0.110126
-0.103495
-1.50377
1.49714
0.0958606
-0.0865128
-1.21458
1.20523
0.0775592
-0.0673657
-0.987541
0.977348
0.0578769
-0.0474293
-0.807048
0.7966
0.0381996
-0.0288754
-0.660852
0.651528
0.0210012
-0.0129787
-0.535227
0.527204
0.00610297
0.000139317
-0.402765
0.396523
-0.00359337
0.00512375
-0.244669
0.243139
-0.00480227
0.00306204
-0.0982351
0.0999753
-0.00126794
-0.010732
0.0119999
-0.0848317
0.0816176
0.00321418
-0.00496387
0.00156513
-0.404551
0.40795
0.00365662
-0.00896734
-0.539988
0.545298
0.016003
-0.0232554
-0.648032
0.655285
0.0315101
-0.0390738
-0.758398
0.765961
0.0473442
-0.0546898
-0.88347
0.890816
0.0621116
-0.0686104
-1.02519
1.03169
0.0750845
-0.080088
-1.18456
1.18957
0.0840768
-0.0862108
-1.36256
1.3647
0.0866566
-0.0846977
-1.55966
1.5577
0.0802588
-0.0737996
-1.49004
1.48358
0.066604
-0.0581073
-1.19595
1.18745
0.0497027
-0.0404627
-0.967012
0.957772
0.0319198
-0.0225883
-0.786329
0.776998
0.0145607
-0.00637782
-0.640921
0.632738
-0.000306584
0.00682654
-0.516592
0.510072
-0.0115718
0.0147868
-0.388398
0.385183
-0.0149373
0.012472
-0.238084
0.240549
-0.00901886
0.00482142
-0.0999038
0.104101
-0.00168345
-0.0121689
0.0138524
-0.0828381
0.0797629
0.00307524
-0.00779384
0.00657021
-0.415407
0.416631
-0.00336837
-0.000746466
-0.553624
0.557739
0.00687768
-0.0129272
-0.662447
0.668497
0.0199755
-0.0264577
-0.773255
0.779737
0.0335094
-0.0398062
-0.897758
0.904054
0.0465683
-0.0521309
-1.03782
1.04339
0.0578907
-0.0619558
-1.19425
1.19831
0.0655348
-0.0674512
-1.36676
1.36868
0.0676964
-0.0656193
-1.55555
1.55347
0.0616898
-0.056018
-1.4769
1.47123
0.0496995
-0.0419932
-1.17909
1.17138
0.0347831
-0.0269623
-0.948649
0.940828
0.0196758
-0.0120897
-0.768035
0.760449
0.00525805
0.00144062
-0.623767
0.617068
-0.00680803
0.0115137
-0.501762
0.497057
-0.0145061
0.0161568
-0.379067
0.377416
-0.0153647
0.0119479
-0.238481
0.241898
-0.00840658
0.00432643
-0.105567
0.109647
-0.00145924
-0.0143839
0.0158431
-0.0808087
0.0782301
0.00257856
-0.0082028
0.00828324
-0.422438
0.422357
-0.00581878
0.00254653
-0.564761
0.568034
0.00239318
-0.00775828
-0.674652
0.680017
0.0136827
-0.0194032
-0.785825
0.791545
0.0255301
-0.0310367
-0.910043
0.915549
0.0369036
-0.0419373
-1.0489
1.05393
0.0469256
-0.0508132
-1.20234
1.20622
0.0540649
-0.0558502
-1.37038
1.37217
0.0561674
-0.0543917
-1.55148
1.5497
0.0510065
-0.0459426
-1.46524
1.46018
0.0405091
-0.034057
-1.16405
1.1576
0.0279686
-0.0212864
-0.933169
0.926487
0.0153226
-0.00905862
-0.752996
0.746732
0.00367403
0.00163658
-0.610059
0.604749
-0.00568937
0.00904418
-0.49059
0.487235
-0.0110655
0.0118974
-0.373191
0.372359
-0.0108204
0.00814199
-0.240432
0.24311
-0.00555038
0.00276979
-0.110466
0.113247
-0.000972681
-0.0161245
0.0170972
-0.0791445
0.0769939
0.00215056
-0.00760788
0.00793094
-0.427079
0.426756
-0.0065279
0.00374155
-0.573526
0.576312
0.000879668
-0.00547619
-0.685056
0.689652
0.0106179
-0.0156292
-0.796733
0.801745
0.0211211
-0.0260997
-0.920838
0.925816
0.0315503
-0.036061
-1.05879
1.0633
0.0406863
-0.0443327
-1.20994
1.21359
0.0473843
-0.0491202
-1.37382
1.37556
0.0495496
-0.0484323
-1.54805
1.54693
0.0455063
-0.0412772
-1.45495
1.45072
0.0365655
-0.0309825
-1.1513
1.14572
0.0259611
-0.0201566
-0.920043
0.914238
0.0150827
-0.00995554
-0.740687
0.73556
0.00552142
-0.00117581
-0.599342
0.594996
-0.0021507
0.00500834
-0.482256
0.479399
-0.00639357
0.00702953
-0.368998
0.368362
-0.00657316
0.00484378
-0.241206
0.242935
-0.0031971
0.00165131
-0.113034
0.11458
-0.000615192
-0.0169759
0.0175911
-0.0779587
0.0763022
0.00165651
-0.00641708
0.00689212
-0.430467
0.429992
-0.00562243
0.00345241
-0.581308
0.583478
0.000712356
-0.00487858
-0.694156
0.698322
0.00979893
-0.0141712
-0.806574
0.810946
0.0190647
-0.0235491
-0.930873
0.935357
0.028799
-0.0329921
-1.06792
1.07212
0.0372312
-0.0408235
-1.21716
1.22075
0.0441965
-0.0459775
-1.37743
1.37921
0.0467235
-0.0458668
-1.54558
1.54472
0.0436868
-0.0397958
-1.44644
1.44255
0.0358183
-0.0310641
-1.14017
1.13542
0.0265643
-0.0216512
-0.908687
0.903774
0.0171632
-0.0124944
-0.730344
0.725675
0.00882343
-0.00491991
-0.590369
0.586466
0.00184069
0.000649714
-0.47526
0.47277
-0.00214623
0.00309912
-0.365327
0.364374
-0.00310406
0.00237675
-0.240707
0.241435
-0.00162039
0.00090414
-0.113539
0.114255
-0.000397219
-0.0171914
0.0175886
-0.0773361
0.0760354
0.00130067
-0.00517469
0.0056881
-0.433159
0.432646
-0.00443286
0.00230936
-0.588121
0.590244
0.00152161
-0.00527333
-0.702397
0.706148
0.00954512
-0.0137977
-0.815425
0.819677
0.0183702
-0.0230285
-0.939749
0.944407
0.0276367
-0.0317184
-1.07648
1.08056
0.0361708
-0.0396282
-1.22431
1.22777
0.042678
-0.0450082
-1.38101
1.38334
0.046115
-0.0457293
-1.54402
1.54364
0.0439035
-0.0407284
-1.43893
1.43575
0.0371716
-0.0328416
-1.13039
1.12606
0.0288162
-0.0243257
-0.89876
0.894269
0.0202349
-0.0160897
-0.721083
0.716938
0.0124043
-0.00881596
-0.582271
0.578683
0.0059892
-0.00335011
-0.469107
0.466468
0.00158824
-0.000553948
-0.361225
0.360191
-7.03242e-05
0.000342907
-0.238815
0.238543
-0.000425416
0.000370065
-0.112565
0.11262
-0.000250432
-0.0170036
0.0172541
-0.0772564
0.0761632
0.00109327
-0.00382329
0.00412331
-0.435667
0.435367
-0.00305976
0.000872528
-0.59436
0.596547
0.00267244
-0.00630631
-0.710099
0.713733
0.0104287
-0.0143207
-0.823859
0.827751
0.0190411
-0.0229787
-0.948593
0.952531
0.0276
-0.0315575
-1.08486
1.08882
0.0359667
-0.0396869
-1.23129
1.23501
0.0431077
-0.0453333
-1.38552
1.38774
0.0468977
-0.0470072
-1.54326
1.54337
0.0458703
-0.0430283
-1.4325
1.42966
0.0398689
-0.0358457
-1.12178
1.11776
0.0320927
-0.0277852
-0.889459
0.885152
0.0239833
-0.0198808
-0.712519
0.708417
0.0163032
-0.0126933
-0.574749
0.571139
0.00971664
-0.00715231
-0.462874
0.460309
0.00508972
-0.00361215
-0.356651
0.355173
0.00240809
-0.00138368
-0.23565
0.234626
0.000617726
-6.48279e-06
-0.110427
0.109816
-0.00015113
-0.0164656
0.0166168
-0.0774399
0.076668
0.000771932
-0.0026449
0.00253739
-0.438373
0.438481
-0.00162877
-0.000668449
-0.599843
0.60214
0.00389434
-0.00740394
-0.717313
0.720822
0.0113653
-0.0153961
-0.83162
0.835651
0.0195523
-0.0236669
-0.956732
0.960847
0.0282825
-0.0320752
-1.09324
1.09704
0.036619
-0.0403473
-1.2386
1.24233
0.0438928
-0.0466993
-1.39043
1.39324
0.0488227
-0.0492867
-1.54357
1.54404
0.0484411
-0.0462895
-1.42699
1.42483
0.0436022
-0.0398091
-1.11358
1.10979
0.0361152
-0.032078
-0.880622
0.876585
0.0279906
-0.0240481
-0.703964
0.700021
0.0204585
-0.0167061
-0.567377
0.563625
0.0137339
-0.0107972
-0.456498
0.453561
0.00847955
-0.00633544
-0.351588
0.349444
0.00471707
-0.00302558
-0.231353
0.229661
0.00154957
-0.000403497
-0.107366
0.106219
-3.94574e-05
-0.0156751
0.0157145
-0.0780173
0.0773895
0.000627755
-0.00169375
0.00164244
-0.441301
0.441352
-0.000255388
-0.00198607
-0.605332
0.607573
0.00531007
-0.00867726
-0.724052
0.727419
0.0124904
-0.0161487
-0.839449
0.843107
0.0204394
-0.0242667
-0.965021
0.968848
0.0288533
-0.0330879
-1.10131
1.10555
0.0373145
-0.0413989
-1.24615
1.25024
0.0454063
-0.0483658
-1.39601
1.39897
0.050922
-0.0521967
-1.54476
1.54603
0.0518089
-0.050246
-1.42253
1.42097
0.0477033
-0.0442344
-1.10594
1.10247
0.0407656
-0.0366447
-0.872033
0.867912
0.0326664
-0.0285674
-0.695456
0.691357
0.0248718
-0.0208963
-0.559548
0.555573
0.0176178
-0.014453
-0.44976
0.446595
0.0116105
-0.00896955
-0.345568
0.342927
0.00678512
-0.00449782
-0.225915
0.223627
0.00254894
-0.000903144
-0.103516
0.10187
0.000128657
-0.0147232
0.0145946
-0.0788327
0.0783625
0.00047023
-0.000690399
0.00046333
-0.444374
0.444601
0.000914278
-0.00334294
-0.610532
0.612961
0.00653762
-0.00973641
-0.730538
0.733737
0.013626
-0.0171433
-0.84681
0.850327
0.0212927
-0.0252454
-0.973182
0.977134
0.0297484
-0.0339612
-1.10968
1.11389
0.0384225
-0.0425591
-1.25429
1.25843
0.046787
-0.0505174
-1.40227
1.406
0.0535629
-0.0551813
-1.5473
1.54892
0.0555101
-0.0542645
-1.4193
1.41806
0.052209
-0.049141
-1.09885
1.09578
0.045592
-0.04148
-0.863416
0.859304
0.0374558
-0.0330856