/*--------------------------------*- C++ -*----------------------------------*\
| =========                 |                                                 |
| \\      /  F ield         | OpenFOAM: The Open Source CFD Toolbox           |
|  \\    /   O peration     | Version:  4.0                                   |
|   \\  /    A nd           | Web:      www.OpenFOAM.org                      |
|    \\/     M anipulation  |                                                 |
\*---------------------------------------------------------------------------*/
FoamFile
{
    version     2.0;
    format      ascii;
    class       volVectorField;
    location    "19";
    object      U;
}
// * * * * * * * * * * * * * * * * * * * * * * * * * * * * * * * * * * * * * //

dimensions      [0 1 -1 0 0 0 0];

internalField   nonuniform List<vector> 
8800
(
(0.980116 -0.0915192 0)
(1.00234 -0.05874 0)
(0.999619 -0.0321314 0)
(1 -0.0165058 0)
(1.00004 -0.00879377 0)
(1.00001 -0.00503077 0)
(1.00001 -0.00295161 0)
(0.999997 -0.00168777 0)
(0.999992 -0.00082147 0)
(1.00005 -0.000133857 0)
(0.999993 0.000563692 0)
(0.999993 0.00131745 0)
(1.00001 0.00233637 0)
(1.00001 0.00392506 0)
(1.00002 0.00667258 0)
(1.00004 0.0120074 0)
(0.999887 0.0230862 0)
(0.999095 0.0431661 0)
(1.00718 0.079039 0)
(0.775015 0.0478402 0)
(0.359041 -0.0147453 0)
(1.04653 -0.0724469 0)
(1.08849 -0.0659837 0)
(1.04946 -0.0508741 0)
(1.02553 -0.0376781 0)
(1.01271 -0.0259022 0)
(1.00652 -0.0167027 0)
(1.00358 -0.0102123 0)
(1.00217 -0.00561118 0)
(1.00152 -0.00208816 0)
(1.0014 0.0010036 0)
(1.00175 0.00424595 0)
(1.00271 0.00815229 0)
(1.00475 0.0135309 0)
(1.00902 0.021265 0)
(1.01801 0.0317546 0)
(1.03592 0.0445254 0)
(1.06752 0.0579844 0)
(1.09481 0.0700004 0)
(0.84583 0.0554815 0)
(0.217928 -0.0013723 0)
(1.07579 -0.0505218 0)
(1.0995 -0.0487714 0)
(1.06443 -0.0397879 0)
(1.03983 -0.0322675 0)
(1.02367 -0.0250697 0)
(1.01394 -0.0179702 0)
(1.00846 -0.0115075 0)
(1.00562 -0.00591206 0)
(1.00448 -0.000750885 0)
(1.00481 0.00426345 0)
(1.00666 0.00946997 0)
(1.0106 0.0153784 0)
(1.01791 0.0220778 0)
(1.03055 0.0291605 0)
(1.05065 0.036315 0)
(1.08031 0.0442103 0)
(1.10599 0.0516388 0)
(0.943802 0.0408672 0)
(0.217565 0.00138652 0)
(0.176949 -0.000620898 0)
(1.01975 -0.0352492 0)
(1.10583 -0.0411599 0)
(1.07804 -0.0362132 0)
(1.05235 -0.0302071 0)
(1.035 -0.0243013 0)
(1.02314 -0.0185059 0)
(1.01535 -0.0126208 0)
(1.01077 -0.00672024 0)
(1.00878 -0.00075649 0)
(1.00934 0.00514091 0)
(1.01245 0.010911 0)
(1.01843 0.0166573 0)
(1.02807 0.022316 0)
(1.04237 0.0279864 0)
(1.06338 0.0338339 0)
(1.09428 0.0396963 0)
(1.09507 0.0412802 0)
(0.83155 0.0225351 0)
(0.176336 0.000632511 0)
(0.155317 -0.000451824 0)
(0.959223 -0.0252756 0)
(1.10459 -0.0344671 0)
(1.08791 -0.0319268 0)
(1.06105 -0.0274461 0)
(1.04298 -0.022613 0)
(1.03057 -0.0175206 0)
(1.02196 -0.012254 0)
(1.0164 -0.00669014 0)
(1.01379 -0.000573669 0)
(1.0145 0.00561965 0)
(1.01838 0.0112566 0)
(1.02527 0.0164242 0)
(1.03553 0.0213545 0)
(1.05036 0.0261236 0)
(1.07232 0.0305581 0)
(1.10158 0.0345778 0)
(1.07111 0.0330733 0)
(0.745393 0.0140597 0)
(0.154407 0.000465223 0)
(0.141082 -0.00032079 0)
(0.903529 -0.0186223 0)
(1.09748 -0.0291466 0)
(1.09624 -0.0281852 0)
(1.06854 -0.024398 0)
(1.04935 -0.0204598 0)
(1.03631 -0.0161329 0)
(1.02735 -0.011315 0)
(1.02147 -0.00602025 0)
(1.01859 -0.000171911 0)
(1.0193 0.00568967 0)
(1.0234 0.0110203 0)
(1.03051 0.0157776 0)
(1.04114 0.020041 0)
(1.05682 0.0238698 0)
(1.0801 0.0274511 0)
(1.10451 0.0303207 0)
(1.04083 0.0267137 0)
(0.680961 0.00970131 0)
(0.139811 0.000336309 0)
(0.131002 -0.000235446 0)
(0.856005 -0.01376 0)
(1.08562 -0.0242758 0)
(1.10153 -0.0246581 0)
(1.07503 -0.0216919 0)
(1.05535 -0.0183434 0)
(1.04178 -0.0144406 0)
(1.03237 -0.0100273 0)
(1.02617 -0.00514483 0)
(1.02307 0.000282345 0)
(1.02374 0.00572277 0)
(1.02794 0.0105809 0)
(1.03534 0.0148514 0)
(1.04642 0.018623 0)
(1.06257 0.0218778 0)
(1.08618 0.0247056 0)
(1.1041 0.0264558 0)
(1.00861 0.0213544 0)
(0.632624 0.00700542 0)
(0.129294 0.000254806 0)
(0.123846 -0.000166717 0)
(0.817648 -0.00992591 0)
(1.07155 -0.0194119 0)
(1.10446 -0.0204895 0)
(1.08034 -0.0179659 0)
(1.06051 -0.0150389 0)
(1.0467 -0.0118681 0)
(1.03689 -0.00828575 0)
(1.03032 -0.00409126 0)
(1.027 0.000857442 0)
(1.02758 0.00586852 0)
(1.0319 0.0100494 0)
(1.03956 0.0134416 0)
(1.05088 0.0162863 0)
(1.0671 0.0188429 0)
(1.09088 0.0212638 0)
(1.10113 0.0222969 0)
(0.977792 0.0165935 0)
(0.596557 0.00504987 0)
(0.121607 0.000190564 0)
(0.118848 -0.000123743 0)
(0.788155 -0.00680949 0)
(1.0574 -0.0148985 0)
(1.1066 -0.0165186 0)
(1.08528 -0.0145216 0)
(1.06472 -0.0122486 0)
(1.05077 -0.0096883 0)
(1.04114 -0.00654947 0)
(1.03466 -0.00279048 0)
(1.03126 0.00157475 0)
(1.03165 0.00588787 0)
(1.03572 0.00949682 0)
(1.04303 0.0123259 0)
(1.05413 0.014482 0)
(1.07084 0.0162483 0)
(1.09481 0.0180542 0)
(1.09658 0.018392 0)
(0.950469 0.0125041 0)
(0.570113 0.00353636 0)
(0.115958 0.000154287 0)
(0.115815 -6.11407e-05 0)
(0.767204 -0.00380219 0)
(1.04355 -0.0101511 0)
(1.10686 -0.0126135 0)
(1.08853 -0.0117507 0)
(1.06774 -0.0100052 0)
(1.05364 -0.00780129 0)
(1.04391 -0.00504311 0)
(1.03734 -0.00161763 0)
(1.03376 0.00238314 0)
(1.03399 0.00626044 0)
(1.03788 0.0094062 0)
(1.04503 0.0117026 0)
(1.05615 0.0134192 0)
(1.0729 0.0146404 0)
(1.09636 0.0153531 0)
(1.08973 0.014327 0)
(0.927228 0.00840696 0)
(0.552249 0.00210732 0)
(0.112127 9.94764e-05 0)
(0.114743 6.47731e-06 0)
(0.754596 -0.00155553 0)
(1.03113 -0.00577804 0)
(1.10484 -0.00842252 0)
(1.09062 -0.00830541 0)
(1.0707 -0.00711183 0)
(1.05704 -0.00532998 0)
(1.04757 -0.0029127 0)
(1.04107 6.88571e-06 0)
(1.03734 0.00341339 0)
(1.0373 0.00667693 0)
(1.04083 0.00904699 0)
(1.04752 0.0106912 0)
(1.058 0.0116263 0)
(1.07409 0.0121869 0)
(1.0954 0.012156 0)
(1.08086 0.0103027 0)
(0.90927 0.00517108 0)
(0.54167 0.00113699 0)
(0.110067 4.16722e-05 0)
(0.114864 3.57077e-05 0)
(0.747856 -0.000547349 0)
(1.02227 -0.0031364 0)
(1.10263 -0.00496543 0)
(1.09174 -0.00490344 0)
(1.07247 -0.00389473 0)
(1.05902 -0.0025448 0)
(1.04962 -0.000656067 0)
(1.04309 0.00174743 0)
(1.03929 0.00461581 0)
(1.03884 0.00728502 0)
(1.04189 0.00900797 0)
(1.04818 0.00992495 0)
(1.05835 0.0102842 0)
(1.07413 0.0101736 0)
(1.0934 0.00969762 0)
(1.07258 0.00783971 0)
(0.896287 0.00380408 0)
(0.534897 0.000844637 0)
(0.108963 2.21529e-05 0)
(0.115418 4.15331e-05 0)
(0.74366 -0.000232287 0)
(1.01625 -0.00220641 0)
(1.10149 -0.00352015 0)
(1.09306 -0.00317134 0)
(1.0744 -0.00210954 0)
(1.06108 -0.000801855 0)
(1.05187 0.000979569 0)
(1.04543 0.00329157 0)
(1.04149 0.00600678 0)
(1.04057 0.00837134 0)
(1.04309 0.00971856 0)
(1.04882 0.0103252 0)
(1.05831 0.0103895 0)
(1.07327 0.0100724 0)
(1.0911 0.00932597 0)
(1.06544 0.00748576 0)
(0.885518 0.00371605 0)
(0.52896 0.000898437 0)
(0.107964 3.12005e-05 0)
(0.116053 4.0261e-05 0)
(0.740402 6.10847e-05 0)
(1.01054 -0.00187535 0)
(1.10047 -0.00380257 0)
(1.09478 -0.00369567 0)
(1.07635 -0.00269098 0)
(1.06319 -0.00111567 0)
(1.05425 0.00123835 0)
(1.0479 0.00427276 0)
(1.04363 0.00763249 0)
(1.04217 0.0105034 0)
(1.04391 0.012218 0)
(1.04887 0.0129132 0)
(1.05784 0.0126343 0)
(1.07231 0.0120988 0)
(1.08864 0.0111969 0)
(1.05741 0.0084343 0)
(0.874373 0.00394582 0)
(0.522759 0.00101571 0)
(0.106718 5.01947e-05 0)
(0.116881 4.56832e-05 0)
(0.738197 0.000534652 0)
(1.00382 -0.00105429 0)
(1.09714 -0.00399881 0)
(1.09516 -0.00493441 0)
(1.07875 -0.00425048 0)
(1.06619 -0.00218621 0)
(1.05754 0.00111088 0)
(1.05114 0.00517478 0)
(1.04646 0.00964452 0)
(1.04435 0.0134544 0)
(1.04534 0.0158465 0)
(1.04933 0.0170923 0)
(1.05715 0.0173558 0)
(1.0705 0.0164095 0)
(1.08348 0.0140756 0)
(1.04586 0.00920742 0)
(0.86238 0.0039499 0)
(0.516406 0.00109648 0)
(0.105191 6.75775e-05 0)
(0.118083 5.60664e-05 0)
(0.738318 0.00122471 0)
(0.99757 0.000535162 0)
(1.09109 -0.00256773 0)
(1.09478 -0.00464268 0)
(1.08096 -0.00416604 0)
(1.07008 -0.0018823 0)
(1.062 0.00218154 0)
(1.05544 0.00706652 0)
(1.05016 0.0123107 0)
(1.04721 0.0167063 0)
(1.04727 0.0194263 0)
(1.05025 0.0207715 0)
(1.05614 0.0206347 0)
(1.06705 0.0192674 0)
(1.07423 0.0152144 0)
(1.03152 0.00898863 0)
(0.850861 0.00380334 0)
(0.510189 0.00116768 0)
(0.103463 7.85668e-05 0)
(0.119846 8.04836e-05 0)
(0.740795 0.0019337 0)
(0.994105 0.00252722 0)
(1.08481 0.0005461 0)
(1.09289 -0.00156349 0)
(1.08324 -0.00135177 0)
(1.0745 0.00133875 0)
(1.06691 0.00553845 0)
(1.06006 0.0105523 0)
(1.05404 0.0157937 0)
(1.05002 0.0199021 0)
(1.04897 0.022061 0)
(1.05044 0.0225928 0)
(1.05457 0.0219099 0)
(1.06125 0.0193108 0)
(1.0628 0.0143753 0)
(1.01749 0.00833975 0)
(0.840739 0.00382974 0)
(0.503947 0.00129884 0)
(0.101532 8.82681e-05 0)
(0.122339 0.000115156 0)
(0.746469 0.00278295 0)
(0.994814 0.00450331 0)
(1.0815 0.00431305 0)
(1.09156 0.00357229 0)
(1.08569 0.0042787 0)
(1.07871 0.00695676 0)
(1.07163 0.0109311 0)
(1.06445 0.0156042 0)
(1.05749 0.0202376 0)
(1.05215 0.0233873 0)
(1.04966 0.0243459 0)
(1.04955 0.0236335 0)
(1.05133 0.0217381 0)
(1.05417 0.0182207 0)
(1.05174 0.01338 0)
(1.00556 0.00817179 0)
(0.831558 0.00422694 0)
(0.497112 0.00154016 0)
(0.0992929 0.000104353 0)
(0.125664 0.000154243 0)
(0.75513 0.0036692 0)
(0.998993 0.00649409 0)
(1.08216 0.00790008 0)
(1.09266 0.00872749 0)
(1.08871 0.0105796 0)
(1.08287 0.0136724 0)
(1.076 0.0176224 0)
(1.06829 0.0219495 0)
(1.06011 0.025767 0)
(1.05317 0.0276344 0)
(1.04892 0.0271697 0)
(1.04696 0.0251531 0)
(1.04656 0.0219307 0)
(1.04684 0.0179786 0)
(1.04199 0.0134534 0)
(0.995345 0.00887916 0)
(0.822238 0.00500623 0)
(0.489056 0.00188238 0)
(0.0966059 0.000126242 0)
(0.129966 0.000204209 0)
(0.766672 0.00480386 0)
(1.00687 0.0087671 0)
(1.08642 0.0115631 0)
(1.09647 0.0138082 0)
(1.09313 0.0169669 0)
(1.08755 0.020897 0)
(1.0804 0.0252576 0)
(1.07173 0.0294929 0)
(1.06191 0.0325838 0)
(1.05297 0.0331377 0)
(1.04679 0.0311829 0)
(1.04298 0.0278626 0)
(1.04077 0.0237266 0)
(1.03931 0.0193365 0)
(1.03305 0.0148708 0)
(0.98563 0.0104066 0)
(0.811711 0.0061248 0)
(0.479195 0.00233649 0)
(0.0933036 0.000156116 0)
(0.135611 0.000275967 0)
(0.781667 0.00632486 0)
(1.018 0.0115615 0)
(1.09387 0.0156089 0)
(1.10294 0.0192766 0)
(1.09933 0.0238183 0)
(1.09329 0.0289159 0)
(1.08519 0.0340277 0)
(1.07498 0.0384359 0)
(1.06297 0.0409897 0)
(1.05164 0.0403435 0)
(1.04334 0.0370085 0)
(1.03771 0.0323456 0)
(1.03395 0.0272532 0)
(1.03121 0.022263 0)
(1.02395 0.0174846 0)
(0.975187 0.0126395 0)
(0.799084 0.00758707 0)
(0.467003 0.00289717 0)
(0.0892423 0.000191893 0)
(0.143089 0.000385329 0)
(0.801091 0.00848327 0)
(1.03278 0.0153337 0)
(1.10452 0.0207049 0)
(1.11214 0.0258359 0)
(1.10759 0.0319373 0)
(1.10034 0.0384218 0)
(1.09055 0.0444963 0)
(1.0781 0.0492634 0)
(1.06333 0.0513676 0)
(1.04919 0.0495169 0)
(1.03855 0.0447373 0)
(1.03106 0.0387038 0)
(1.02587 0.0324769 0)
(1.02206 0.0266268 0)
(1.01386 0.0211821 0)
(0.963089 0.0155847 0)
(0.783573 0.00944082 0)
(0.451915 0.00359022 0)
(0.0842752 0.000235945 0)
(0.153165 0.000547615 0)
(0.826214 0.0116069 0)
(1.05204 0.0204908 0)
(1.11884 0.0273617 0)
(1.12444 0.0342206 0)
(1.1182 0.0421607 0)
(1.1089 0.0502558 0)
(1.09659 0.0574648 0)
(1.08114 0.0626209 0)
(1.06293 0.0641669 0)
(1.04551 0.0609472 0)
(1.03226 0.05455 0)
(1.02283 0.0469772 0)
(1.0162 0.0393863 0)
(1.01131 0.0323968 0)
(1.00204 0.0259819 0)
(0.948544 0.0193202 0)
(0.764682 0.0117513 0)
(0.433497 0.00440538 0)
(0.0782869 0.000278247 0)
(0.167122 0.000812604 0)
(0.858997 0.0163172 0)
(1.07711 0.027806 0)
(1.13753 0.0364868 0)
(1.14043 0.0456802 0)
(1.13159 0.055805 0)
(1.11923 0.065627 0)
(1.10336 0.0738834 0)
(1.08398 0.0791907 0)
(1.0616 0.0798526 0)
(1.04044 0.0749389 0)
(1.02432 0.0666562 0)
(1.01277 0.0573071 0)
(1.00456 0.0481075 0)
(0.998482 0.0397083 0)
(0.987864 0.0320456 0)
(0.930781 0.0239988 0)
(0.741651 0.0146138 0)
(0.411214 0.00539629 0)
(0.0711341 0.000327529 0)
(0.1872 0.00129099 0)
(0.90284 0.0239067 0)
(1.11023 0.0389977 0)
(1.16196 0.0499837 0)
(1.16069 0.062184 0)
(1.14786 0.0746495 0)
(1.13108 0.0859748 0)
(1.11046 0.0947983 0)
(1.08624 0.0996715 0)
(1.05905 0.098854 0)
(1.03373 0.0917606 0)
(1.0145 0.0812597 0)
(1.00064 0.069891 0)
(0.990649 0.0588682 0)
(0.983141 0.0488344 0)
(0.970733 0.0396643 0)
(0.908902 0.0299193 0)
(0.713357 0.01826 0)
(0.384268 0.00665547 0)
(0.0626939 0.00038073 0)
(0.216824 0.00237496 0)
(0.96361 0.0374832 0)
(1.15355 0.0578582 0)
(1.19339 0.0717006 0)
(1.18517 0.0869202 0)
(1.16635 0.10116 0)
(1.14358 0.113042 0)
(1.11709 0.121355 0)
(1.08725 0.124731 0)
(1.05477 0.121521 0)
(1.02505 0.111613 0)
(1.00257 0.0985322 0)
(0.986238 0.0849443 0)
(0.974274 0.0719761 0)
(0.965019 0.0602096 0)
(0.950129 0.0494179 0)
(0.881885 0.0375545 0)
(0.678646 0.0229659 0)
(0.352592 0.0083348 0)
(0.0532175 0.000416394 0)
(0.257825 0.00902124 -1.4024e-20)
(1.04539 0.065425 -1.09203e-20)
(1.20529 0.090355 3.08595e-21)
(1.22945 0.107276 0)
(1.21148 0.123698 1.00164e-35)
(1.18513 0.137718 2.1742e-23)
(1.15529 0.148454 -1.05636e-21)
(1.12218 0.154875 0)
(1.08617 0.155713 4.41616e-35)
(1.04789 0.149417 -3.4354e-21)
(1.01329 0.136349 0)
(0.987064 0.120589 -5.01273e-21)
(0.967751 0.104802 -1.53831e-20)
(0.953226 0.0900261 -7.45897e-21)
(0.941486 0.0768596 -2.35643e-21)
(0.9232 0.0647994 -1.42863e-21)
(0.846993 0.0507428 0)
(0.634101 0.0317992 1.02537e-21)
(0.315108 0.0130092 1.21546e-21)
(0.0445871 0.00149345 2.154e-20)
(0.284475 0.025353 -2.50912e-20)
(1.11159 0.110207 5.06959e-22)
(1.24938 0.138406 -1.46247e-21)
(1.26175 0.156353 0)
(1.2351 0.171077 2.52183e-21)
(1.20139 0.183333 1.57795e-21)
(1.16455 0.192159 -5.88924e-22)
(1.1247 0.196435 -5.47088e-21)
(1.08212 0.194807 0)
(1.03726 0.185676 1.4574e-20)
(0.996585 0.169844 1.62891e-20)
(0.965282 0.151844 5.27552e-21)
(0.941677 0.134295 2.09689e-20)
(0.923353 0.118014 3.09975e-20)
(0.907787 0.103517 0)
(0.883975 0.0903003 4.62405e-20)
(0.80237 0.074164 6.7557e-20)
(0.588145 0.0501764 7.54225e-20)
(0.287226 0.0238529 -8.73316e-20)
(0.0396548 0.00340966 -1.60595e-21)
(0.281384 0.0411457 0)
(1.15019 0.167949 -7.61112e-21)
(1.28165 0.198865 0)
(1.28681 0.215159 1.24528e-20)
(1.25346 0.226415 0)
(1.21345 0.235211 6.81431e-21)
(1.17033 0.240778 3.99581e-22)
(1.12429 0.24191 -7.62382e-21)
(1.07559 0.237131 -1.55371e-21)
(1.02467 0.224822 7.02245e-21)
(0.978442 0.206229 3.82156e-20)
(0.942577 0.186333 -2.90334e-22)
(0.91515 0.167628 -1.58048e-20)
(0.893503 0.150734 -3.08263e-20)
(0.874999 0.135885 3.7453e-20)
(0.849087 0.122262 -6.7401e-20)
(0.772687 0.104113 -9.24241e-21)
(0.575001 0.0752304 0)
(0.29624 0.0389978 1.12095e-22)
(0.0454237 0.00643518 0)
(0.272472 0.0548414 -1.88481e-19)
(1.16841 0.228653 7.78926e-20)
(1.30245 0.264535 4.18738e-20)
(1.30329 0.27869 -8.09533e-21)
(1.26526 0.286099 1.23861e-20)
(1.2205 0.290846 -1.62004e-20)
(1.17237 0.292545 -5.28032e-23)
(1.12109 0.289962 0)
(1.06702 0.281622 -2.67899e-20)
(1.01069 0.265869 0)
(0.959686 0.244479 -1.94625e-20)
(0.920038 0.222783 -2.76821e-20)
(0.889614 0.203146 -1.77745e-20)
(0.865556 0.18594 -2.30384e-20)
(0.845216 0.171115 0)
(0.819144 0.157472 0)
(0.749409 0.13892 -6.23873e-20)
(0.573304 0.10523 1.24653e-20)
(0.310002 0.0578034 -7.26069e-21)
(0.0523488 0.0102663 -8.47983e-21)
(0.263538 0.0670832 1.38907e-19)
(1.17394 0.288844 0)
(1.31375 0.331011 -1.16922e-19)
(1.31206 0.343424 -3.02683e-20)
(1.27077 0.347127 -2.33375e-20)
(1.22252 0.347908 0)
(1.17051 0.345704 -3.66667e-21)
(1.11504 0.339271 6.3985e-21)
(1.05653 0.327186 1.14667e-20)
(0.995586 0.307842 3.58449e-20)
(0.940606 0.283548 0)
(0.897997 0.259996 -6.04147e-20)
(0.865454 0.239354 -3.88467e-20)
(0.839875 0.221779 -2.34567e-20)
(0.818574 0.207017 1.54539e-19)
(0.793213 0.193611 1.90104e-20)
(0.730244 0.174645 9.09057e-20)
(0.570247 0.135957 -4.38972e-19)
(0.31722 0.0768561 2.6079e-19)
(0.0566165 0.0140753 -3.15308e-19)
(0.255683 0.0781041 1.4636e-19)
(1.17158 0.346591 -2.72331e-20)
(1.31799 0.39642 2.05088e-20)
(1.31475 0.407538 5.59102e-20)
(1.27115 0.407742 3.45563e-20)
(1.22028 0.404809 1.66481e-21)
(1.16522 0.398887 3.38522e-21)
(1.10635 0.388728 4.16168e-21)
(1.04417 0.372919 -2.52951e-20)
(0.979362 0.349921 0)
(0.921067 0.322552 -2.58296e-20)
(0.876251 0.296942 -1.5098e-21)
(0.842243 0.275031 -4.35717e-20)
(0.815745 0.256792 0)
(0.794116 0.241774 -3.37516e-20)
(0.769898 0.228238 -8.22505e-20)
(0.712531 0.208285 2.27828e-19)
(0.56316 0.164232 -2.26739e-19)
(0.317616 0.0936063 3.21948e-19)
(0.0579468 0.0172861 -3.35723e-19)
(0.249344 0.0883264 -4.23551e-22)
(1.16445 0.401336 3.32483e-20)
(1.317 0.45966 9.78448e-20)
(1.31278 0.469848 -3.41488e-20)
(1.26752 0.466926 1.96931e-20)
(1.21458 0.460625 0)
(1.15709 0.451227 9.56591e-21)
(1.09542 0.437541 -2.59902e-21)
(1.03014 0.418149 -1.13089e-20)
(0.962068 0.391495 0)
(0.900914 0.360892 -2.51212e-20)
(0.854234 0.332927 -3.56474e-20)
(0.819153 0.309421 4.77253e-20)
(0.792216 0.29011 -3.06756e-20)
(0.770702 0.274359 -1.48848e-19)
(0.747691 0.260251 9.16949e-20)
(0.694353 0.238658 2.90077e-20)
(0.552051 0.189076 0)
(0.312957 0.107666 -3.13148e-19)
(0.0574109 0.0198391 -1.15135e-20)
(0.244404 0.0980613 2.39333e-20)
(1.15458 0.452953 -3.81922e-20)
(1.31216 0.520111 -5.34669e-20)
(1.30733 0.529725 -1.05161e-19)
(1.26079 0.5241 9.52362e-20)
(1.20626 0.514765 -5.15034e-20)
(1.1468 0.502185 -2.01627e-20)
(1.08277 0.485218 -3.37274e-21)
(1.01476 0.462426 1.20077e-20)
(0.943735 0.432177 -8.76706e-20)
(0.880086 0.398241 -3.11109e-20)
(0.831897 0.367576 0)
(0.79611 0.342124 5.22433e-20)
(0.769007 0.32139 6.47601e-20)
(0.747753 0.304558 7.99152e-20)
(0.725759 0.289383 -1.00086e-19)
(0.675179 0.265821 -3.01558e-20)
(0.537593 0.210587 3.57276e-20)
(0.304468 0.119056 0)
(0.055698 0.0217633 -2.50913e-20)
(0.240646 0.10744 -2.77406e-19)
(1.14335 0.501581 1.74758e-19)
(1.30465 0.577554 5.87656e-20)
(1.29932 0.586867 -8.01472e-20)
(1.25178 0.578882 5.68006e-20)
(1.19597 0.566859 -3.88406e-21)
(1.13487 0.551424 1.98969e-20)
(1.06882 0.531458 -1.78045e-21)
(0.998423 0.505482 -2.04938e-20)
(0.924723 0.471795 1.6711e-22)
(0.858816 0.434439 -9.24896e-20)
(0.809211 0.400871 9.11978e-20)
(0.772827 0.373098 -5.86386e-20)
(0.745641 0.350581 7.31359e-20)
(0.724694 0.332305 0)
(0.703499 0.315746 -5.43615e-20)
(0.654707 0.289722 -1.23489e-21)
(0.520492 0.228722 -1.56327e-19)
(0.293123 0.127984 -2.30883e-20)
(0.0529854 0.0230326 0)
(0.237874 0.116569 0)
(1.13155 0.547459 1.89552e-19)
(1.2952 0.631945 1.36836e-19)
(1.28944 0.641123 9.03391e-20)
(1.24109 0.631094 5.48572e-20)
(1.18425 0.616703 0)
(1.12181 0.598722 1.82514e-20)
(1.05401 0.576055 -1.20843e-21)
(0.981482 0.547169 4.34142e-20)
(0.905294 0.510212 -1.06236e-20)
(0.837013 0.469448 -6.78958e-20)
(0.7859 0.432837 4.55486e-20)
(0.748931 0.40244 -1.95391e-21)
(0.721736 0.377776 7.69989e-20)
(0.701094 0.357736 5.05111e-20)
(0.68052 0.339462 -1.18446e-19)
(0.63281 0.310503 1.43426e-19)
(0.501053 0.243597 4.28324e-20)
(0.279493 0.134531 1.77028e-19)
(0.0495211 0.0236137 -4.74055e-19)
(0.235969 0.125567 -7.10273e-20)
(1.11971 0.590764 1.0924e-19)
(1.28445 0.683315 -8.50545e-20)
(1.27828 0.692494 -1.0466e-19)
(1.22927 0.680661 0)
(1.17159 0.664181 4.43257e-20)
(1.10801 0.643954 -5.29445e-20)
(1.03869 0.618884 -1.24793e-21)
(0.964175 0.58738 0)
(0.885509 0.547385 -1.65939e-19)
(0.814861 0.503255 1.85245e-19)
(0.762115 0.463445 0)
(0.724291 0.430165 6.95038e-20)
(0.697037 0.403025 -1.96684e-21)
(0.676701 0.380919 -1.59814e-19)
(0.656625 0.360634 6.28724e-20)
(0.609452 0.328328 0)
(0.479617 0.255344 2.32306e-19)
(0.263987 0.138736 0)
(0.0455367 0.0236146 -2.25994e-19)
(0.234731 0.134464 7.91415e-20)
(1.1081 0.631731 1.24711e-19)
(1.27298 0.731689 -8.9162e-20)
(1.26625 0.741005 0)
(1.21671 0.727573 7.50977e-20)
(1.15834 0.709254 0)
(1.09378 0.68705 6.88068e-20)
(1.02311 0.659874 8.00692e-21)
(0.94673 0.626069 4.00924e-21)
(0.86566 0.583329 -8.1957e-20)
(0.792553 0.53603 1.7899e-20)
(0.737992 0.492914 0)
(0.699061 0.456471 -1.47837e-19)
(0.671521 0.426515 2.03665e-21)
(0.651431 0.402063 0)
(0.631675 0.379439 2.4371e-21)
(0.584516 0.343334 2.11357e-19)
(0.456111 0.263874 -2.03462e-19)
(0.246702 0.140558 6.00794e-20)
(0.0410262 0.0229669 0)
(0.233812 0.143134 0)
(1.09686 0.670468 1.39356e-19)
(1.26103 0.777225 1.04394e-19)
(1.2537 0.786721 -2.20319e-21)
(1.20373 0.771863 4.68531e-20)
(1.14481 0.751931 1.04324e-19)
(1.07942 0.728006 -2.2246e-20)
(1.00753 0.699011 3.54136e-21)
(0.92944 0.663221 2.54359e-20)
(0.845975 0.618084 -1.27412e-19)
(0.770182 0.567825 -3.10815e-21)
(0.713509 0.521451 -6.02066e-20)
(0.673291 0.481731 2.42499e-19)
(0.64516 0.448741 -2.43503e-21)
(0.62516 0.421564 -1.26179e-19)
(0.605527 0.396199 -2.30889e-19)
(0.557906 0.355706 0)
(0.430547 0.269352 0)
(0.227694 0.139894 6.59635e-20)
(0.0361654 0.0216824 -3.8591e-20)
(0.233456 0.151673 9.82556e-20)
(1.08619 0.706953 -3.04977e-19)
(1.24882 0.82004 -1.11781e-19)
(1.24089 0.82971 0)
(1.19059 0.813589 -1.50711e-21)
(1.13123 0.792246 1.24813e-19)
(1.06516 0.766837 -7.36437e-20)
(0.9922 0.736297 -3.49506e-20)
(0.912496 0.69884 2.48989e-20)
(0.826624 0.651671 -9.75664e-20)
(0.747967 0.598785 -1.56463e-19)
(0.688754 0.549225 1.60487e-19)
(0.646874 0.506058 0)
(0.617933 0.46974 -5.67552e-20)
(0.597848 0.439539 -1.38675e-19)
(0.57808 0.410981 -1.6744e-19)
(0.529512 0.365411 -2.03417e-19)
(0.402796 0.27161 6.08419e-20)
(0.206897 0.136419 -3.56942e-20)
(0.0309041 0.0197174 4.16759e-22)
(0.233148 0.16 0)
(1.07624 0.741262 0)
(1.23657 0.860245 2.47119e-21)
(1.22804 0.870065 0)
(1.17749 0.852833 -1.75515e-19)
(1.11778 0.830255 -1.09919e-19)
(1.05116 0.803567 0)
(0.977265 0.771737 -8.09652e-21)
(0.89605 0.732921 2.85793e-20)
(0.807807 0.684125 -2.2402e-19)
(0.72609 0.628986 0)
(0.663935 0.576471 -1.02756e-19)
(0.61981 0.529799 -2.9943e-21)
(0.589677 0.48982 -2.47542e-21)
(0.569309 0.456179 1.48076e-19)
(0.549225 0.423872 -4.1554e-22)
(0.499211 0.372378 -4.42189e-19)
(0.372617 0.270378 1.32668e-19)
(0.184377 0.130156 3.93749e-20)
(0.0252747 0.0171045 0)
(0.232844 0.168076 -3.60874e-19)
(1.06672 0.7738 -1.87103e-19)
(1.22439 0.897957 -2.79469e-19)
(1.2153 0.907896 3.90081e-19)
(1.16457 0.889665 -3.28558e-19)
(1.10462 0.866019 0)
(1.03755 0.838243 -6.19332e-20)
(0.96285 0.805354 1.52955e-20)
(0.880256 0.765488 3.69791e-21)
(0.789697 0.715469 1.77984e-20)
(0.70474 0.658528 1.95536e-19)
(0.639251 0.603375 -3.50795e-20)
(0.592324 0.553241 -1.49677e-19)
(0.560384 0.509332 -6.75044e-20)
(0.539403 0.471685 8.25615e-20)
(0.518758 0.434849 -3.38663e-22)
(0.466866 0.376396 1.21407e-19)
(0.339837 0.265371 -2.87972e-19)
(0.160214 0.120957 3.42893e-19)
(0.0195535 0.0140152 4.96804e-20)
(0.232432 0.175815 1.32442e-19)
(1.05762 0.804587 -1.02317e-19)
(1.21241 0.933297 5.92046e-21)
(1.20277 0.943327 2.20067e-19)
(1.15195 0.924197 7.66261e-20)
(1.09183 0.89961 2.18957e-19)
(1.02444 0.870914 -2.71993e-20)
(0.949065 0.837175 7.25716e-20)
(0.865228 0.796538 -9.21613e-21)
(0.772428 0.745697 -1.21103e-19)
(0.684122 0.687455 0)
(0.614899 0.630107 -1.58022e-19)
(0.564545 0.576742 2.1736e-19)
(0.530006 0.528673 0)
(0.507869 0.486301 -1.76732e-19)
(0.486387 0.443756 1.09717e-19)
(0.4324 0.376969 -1.3127e-19)
(0.305188 0.256322 -1.5781e-19)
(0.13541 0.109254 -2.79236e-19)
(0.0139257 0.0105646 -2.17866e-19)
(0.2322 0.183313 -1.45523e-19)
(1.04879 0.833629 1.09391e-19)
(1.2007 0.966355 2.60158e-19)
(1.19055 0.976445 3.02326e-19)
(1.13969 0.956516 -1.60387e-19)
(1.0795 0.931116 1.50611e-19)
(1.01189 0.901635 -8.4654e-20)
(0.935978 0.867241 8.87899e-20)
(0.851031 0.82609 7.37009e-22)
(0.756118 0.774809 1.14461e-19)
(0.664424 0.715801 4.14109e-19)
(0.591144 0.656794 0)
(0.536686 0.600554 0)
(0.49854 0.548327 -7.81114e-20)
(0.474275 0.500382 0)
(0.451461 0.450241 2.39083e-19)
(0.395497 0.372948 2.87089e-19)
(0.269415 0.242348 0)
(0.111279 0.0952578 0)
(0.00885547 0.00710378 2.37308e-19)
(0.231693 0.190316 1.60357e-19)
(1.04026 0.860943 1.30744e-19)
(1.18931 0.997257 1.86885e-19)
(1.17869 1.00738 -2.6952e-19)
(1.12786 0.98673 -1.78562e-19)
(1.06768 0.960612 -1.99298e-19)
(0.999962 0.930471 1.25225e-19)
(0.92363 0.895583 3.63655e-22)
(0.837728 0.85415 -4.74188e-21)
(0.740853 0.802784 -5.9717e-21)
(0.645819 0.743551 2.09476e-19)
(0.568243 0.683479 0)
(0.509101 0.624964 2.19324e-19)
(0.466134 0.568908 1.64572e-19)
(0.438095 0.514717 4.21395e-19)
(0.412645 0.454145 1.2902e-19)
(0.355101 0.362309 -1.58613e-19)
(0.234233 0.221056 -9.31658e-20)
(0.0917351 0.0789629 0)
(0.00568524 0.00425597 2.58037e-19)
(0.231387 0.197231 -3.52457e-19)
(1.032 0.886642 0)
(1.17824 1.02608 2.08535e-19)
(1.16722 1.03623 -2.20596e-19)
(1.11651 1.01493 2.01734e-19)
(1.05639 0.988186 2.90473e-19)
(0.988676 0.957482 -2.89146e-19)
(0.912045 0.922242 3.30491e-21)
(0.825342 0.880725 0)
(0.726691 0.829584 -1.04381e-19)
(0.628451 0.770658 -4.32409e-19)
(0.546456 0.710184 2.14044e-20)
(0.482204 0.650083 2.97705e-19)
(0.433179 0.591076 0)
(0.398895 0.530529 2.84426e-19)
(0.367836 0.456375 0)
(0.307374 0.342625 0)
(0.199738 0.184357 -1.03864e-19)
(0.0905505 0.0503935 0)
(0.025546 0.0110886 6.97436e-20)
(0.230769 0.203516 -3.84892e-19)
(1.02399 0.911032 0)
(1.1675 1.05303 3.37423e-19)
(1.15612 1.06321 0)
(1.1056 1.04137 -1.09314e-19)
(1.04558 1.01411 0)
(0.977966 0.98297 -2.1498e-20)
(0.901127 0.947548 -1.52296e-20)
(0.813762 0.906168 -1.23023e-21)
(0.713495 0.855585 -1.00581e-19)
(0.612201 0.797529 1.11969e-20)
(0.525699 0.737432 1.77141e-19)
(0.45591 0.676431 2.88035e-19)
(0.39957 0.615768 4.13079e-20)
(0.355797 0.550029 2.22573e-19)
(0.313759 0.460303 0)
(0.240642 0.315753 3.46833e-19)
(0.14035 0.118853 -2.0547e-19)
(0.0562667 0.0587162 2.36468e-19)
(-0.0656454 0.395641 -2.76882e-19)
(0.230153 0.209529 3.13607e-19)
(1.01599 0.934012 4.96009e-19)
(1.15699 1.07842 0)
(1.14527 1.08874 4.76759e-21)
(1.09495 1.0666 2.96672e-19)
(1.03502 1.03905 -5.60456e-19)
(0.967555 1.0077 -1.26912e-19)
(0.890518 0.972396 0)
(0.802524 0.931523 -3.10016e-20)
(0.700689 0.882048 -2.63897e-21)
(0.596288 0.825608 0)
(0.505005 0.766971 0)
(0.429103 0.705918 2.52107e-19)
(0.364391 0.644971 -1.29044e-19)
(0.307091 0.577243 -2.21696e-19)
(0.246169 0.474191 0)
(0.134333 0.297979 1.76367e-19)
(0.0245855 0.435343 -2.07401e-19)
(0.0458591 1.7756 -1.07312e-19)
(0.0803222 2.75315 -1.39423e-19)
(0.229434 0.214701 -2.29329e-19)
(1.00828 0.955707 -6.25466e-19)
(1.14671 1.10225 1.94251e-19)
(1.13465 1.11267 1.86809e-19)
(1.08461 1.09041 0)
(1.02474 1.0627 -4.00797e-19)
(0.957608 1.03136 -2.1202e-19)
(0.880374 0.996372 1.00145e-20)
(0.791856 0.956285 -4.18704e-21)
(0.688599 0.908346 7.28699e-20)
(0.581257 0.854171 1.89684e-19)
(0.485302 0.798179 1.80391e-19)
(0.403021 0.738096 2.46648e-19)
(0.330026 0.676972 -2.93484e-19)
(0.259028 0.613741 -3.27169e-19)
(0.171299 0.507161 0)
(0.0736553 0.803747 0)
(0.131422 2.46627 9.13896e-20)
(0.135906 3.16307 0)
(0.137639 3.37237 2.08189e-19)
(0.231052 0.219695 0)
(1.00136 0.976219 0)
(1.13646 1.12437 0)
(1.12406 1.13479 5.19788e-20)
(1.07429 1.11259 2.64531e-19)
(1.01452 1.08496 -3.05353e-19)
(0.948021 1.05386 -1.51588e-19)
(0.870646 1.01938 1.13285e-20)
(0.781717 0.98032 -7.12314e-20)
(0.677243 0.934328 -1.01495e-20)
(0.567228 0.883059 3.38173e-19)
(0.466911 0.830757 -2.11788e-20)
(0.378232 0.773408 2.75451e-20)
(0.298048 0.709299 4.17128e-20)
(0.216728 0.656633 8.29476e-22)
(0.137672 0.905796 1.69683e-21)
(0.179054 2.59856 -4.53148e-19)
(0.200044 3.26617 -1.7018e-19)
(0.182549 3.42373 7.85593e-20)
(0.163666 3.4506 -8.00391e-20)
(0.148999 0.177248 1.30863e-19)
(0.988048 0.99853 0)
(1.12599 1.14497 -3.79224e-19)
(1.11425 1.15573 -4.81536e-19)
(1.0647 1.13388 5.50471e-19)
(1.00526 1.10645 3.24123e-19)
(0.938699 1.07531 1.77042e-19)
(0.861422 1.04153 -1.93017e-19)
(0.772278 1.00373 7.56155e-20)
(0.666963 0.959969 0)
(0.55474 0.912105 1.42819e-19)
(0.450573 0.864089 -1.32988e-19)
(0.35574 0.81331 0)
(0.269102 0.745232 3.63054e-20)
(0.199917 0.840515 8.71991e-20)
(0.186288 2.25246 -1.08641e-19)
(0.272484 3.30364 1.20843e-19)
(0.248456 3.44472 5.70254e-20)
(0.20759 3.47131 6.45876e-20)
(0.179913 3.48377 7.68005e-20)
(0.271809 0.254386 -2.43481e-19)
(0.970695 1.00484 0)
(1.10649 1.16742 3.88711e-19)
(1.10044 1.18656 4.99595e-19)
(1.04922 1.16491 -5.65867e-19)
(0.989633 1.13799 -3.43966e-19)
(0.922638 1.10822 -2.71987e-19)
(0.845209 1.0756 -1.43035e-20)
(0.755412 1.03998 -1.073e-19)
(0.648368 1.00023 -7.33087e-21)
(0.532633 0.959106 5.12003e-21)
(0.422476 0.919783 9.98085e-20)
(0.315495 0.883228 2.19729e-20)
(0.246363 0.979634 -3.19906e-20)
(0.276704 2.14117 -7.56002e-20)
(0.352081 3.30202 5.03195e-20)
(0.339624 3.48501 -4.22226e-20)
(0.297241 3.5112 -2.32579e-20)
(0.254126 3.54282 1.31018e-20)
(0.192406 3.53437 3.10991e-22)
(0.258428 0.25013 0)
(0.966831 1.02492 1.02278e-19)
(1.09822 1.189 -7.70371e-20)
(1.0905 1.20812 -5.57325e-20)
(1.0396 1.18652 -3.71646e-19)
(0.980246 1.15981 3.35829e-19)
(0.913161 1.13017 1.82899e-19)
(0.835959 1.09833 -1.49777e-20)
(0.746293 1.06419 1.32385e-19)
(0.638997 1.02732 -1.40786e-20)
(0.522162 0.991121 -1.68459e-19)
(0.409946 0.958582 1.40942e-20)
(0.305085 0.944486 -1.86991e-20)
(0.291498 1.37525 -2.5903e-20)
(0.389833 2.97906 1.87933e-20)
(0.429363 3.47271 8.73715e-22)
(0.379368 3.55304 -5.01857e-20)
(0.336815 3.58104 -6.25132e-20)
(0.279025 3.60783 8.91175e-20)
(0.208319 3.60202 3.76825e-20)
(0.241285 0.247482 2.50802e-19)
(0.961077 1.04739 6.88547e-19)
(1.08927 1.21234 -2.19975e-19)
(1.08012 1.23105 -2.1159e-19)
(1.02949 1.20929 0)
(0.970431 1.18257 4.91055e-19)
(0.90357 1.15313 2.78779e-19)
(0.826878 1.12201 -1.57298e-20)
(0.737672 1.08938 1.37698e-20)
(0.630637 1.0555 7.48547e-20)
(0.513483 1.02439 -4.37e-20)
(0.40114 0.999402 -9.21595e-20)
(0.311254 1.0473 -1.18716e-19)
(0.370154 1.95701 1.3178e-19)
(0.48974 3.34191 5.43681e-20)
(0.487334 3.5485 0)
(0.42769 3.60249 0)
(0.387239 3.65535 8.36656e-20)
(0.308821 3.72943 0)
(0.221943 3.69547 1.82821e-19)
(0.229464 0.247832 -3.66035e-19)
(0.953364 1.07069 -5.72761e-19)
(1.07886 1.23663 0)
(1.06851 1.25469 5.45386e-21)
(1.0182 1.23251 -3.61504e-19)
(0.959565 1.20565 7.29219e-19)
(0.893266 1.1764 1.87304e-19)
(0.817309 1.14589 -1.94691e-20)
(0.728838 1.11467 1.46965e-19)
(0.622507 1.08371 -7.82796e-21)
(0.505861 1.05778 0)
(0.395381 1.04203 0)