/*--------------------------------*- C++ -*----------------------------------*\
| =========                 |                                                 |
| \\      /  F ield         | OpenFOAM: The Open Source CFD Toolbox           |
|  \\    /   O peration     | Version:  4.0                                   |
|   \\  /    A nd           | Web:      www.OpenFOAM.org                      |
|    \\/     M anipulation  |                                                 |
\*---------------------------------------------------------------------------*/
FoamFile
{
    version     2.0;
    format      ascii;
    class       volScalarField;
    location    "15";
    object      p;
}
// * * * * * * * * * * * * * * * * * * * * * * * * * * * * * * * * * * * * * //

dimensions      [0 2 -2 0 0 0 0];

internalField   nonuniform List<scalar> 
2200
(
0.377711
0.356246
0.340393
0.324791
0.310287
0.297946
0.287768
0.279759
0.27412
0.271121
0.271405
0.274873
0.280848
0.28911
0.299465
0.311934
0.326525
0.342177
0.358061
0.379542
0.310028
0.306779
0.303927
0.299899
0.294558
0.288231
0.281774
0.276011
0.271643
0.269242
0.269485
0.272403
0.277141
0.283176
0.289824
0.296279
0.301714
0.305811
0.308705
0.311967
0.269832
0.270138
0.272345
0.273888
0.274531
0.273845
0.271964
0.269416
0.266933
0.265377
0.265679
0.267783
0.270674
0.273513
0.2756
0.276434
0.275896
0.274427
0.272275
0.271992
0.247107
0.248602
0.251526
0.254329
0.257014
0.259269
0.260662
0.261064
0.260679
0.260179
0.260571
0.261679
0.262508
0.262444
0.261295
0.259215
0.256656
0.253938
0.251069
0.249591
0.233029
0.234992
0.237936
0.240881
0.2439
0.246912
0.249658
0.25181
0.253217
0.253951
0.254373
0.254346
0.253499
0.251746
0.249292
0.246485
0.243615
0.240773
0.237895
0.235941
0.22602
0.227543
0.229825
0.232609
0.235487
0.238249
0.240786
0.243159
0.245284
0.246806
0.24728
0.246628
0.245211
0.243333
0.241129
0.238605
0.235891
0.23322
0.231006
0.229486
0.223538
0.224416
0.225942
0.228483
0.231172
0.233635
0.235743
0.237723
0.239574
0.241052
0.241659
0.241264
0.240261
0.238884
0.237169
0.235005
0.232514
0.230099
0.228633
0.227768
0.223388
0.223783
0.22477
0.226806
0.229076
0.231258
0.233197
0.234969
0.236508
0.237766
0.238512
0.238534
0.237956
0.236945
0.235566
0.233775
0.231764
0.229899
0.228981
0.228598
0.22365
0.223759
0.224288
0.225487
0.22693
0.228535
0.230242
0.231981
0.233558
0.234915
0.235838
0.236069
0.235662
0.234874
0.233885
0.232749
0.231621
0.23063
0.230193
0.230066
0.222286
0.222317
0.222512
0.22301
0.223686
0.224607
0.225821
0.227348
0.228983
0.230595
0.231831
0.232382
0.232323
0.23184
0.2314
0.231014
0.230694
0.230437
0.230338
0.230318
0.219325
0.219299
0.219422
0.219718
0.220186
0.2208
0.22166
0.222875
0.224363
0.226079
0.227624
0.228677
0.229231
0.229402
0.229391
0.229409
0.229389
0.22937
0.229372
0.229376
0.215923
0.215884
0.216071
0.216424
0.216982
0.217714
0.218677
0.219884
0.221388
0.223209
0.225014
0.226443
0.227413
0.228027
0.22836
0.228505
0.228519
0.228499
0.228498
0.228503
0.212384
0.212396
0.212561
0.212955
0.213548
0.214387
0.21553
0.216968
0.218784
0.220972
0.223214
0.224982
0.226224
0.227047
0.227606
0.227894
0.228014
0.228061
0.228086
0.228091
0.208237
0.208246
0.208387
0.208729
0.20932
0.21016
0.211394
0.213046
0.215232
0.217968
0.220879
0.223217
0.22488
0.226019
0.226796
0.227302
0.227618
0.227811
0.227905
0.227903
0.203325
0.203312
0.203511
0.203844
0.204422
0.205332
0.206681
0.208585
0.211192
0.214564
0.21827
0.221361
0.223567
0.225132
0.226225
0.226959
0.227439
0.227734
0.227875
0.227874
0.197511
0.197495
0.197735
0.198213
0.19896
0.200099
0.201746
0.204069
0.207256
0.211419
0.216044
0.21998
0.222826
0.224881
0.226279
0.22722
0.227835
0.228206
0.228378
0.228374
0.190935
0.190923
0.191198
0.191804
0.192773
0.194207
0.196297
0.199238
0.203245
0.208464
0.214247
0.219169
0.222774
0.225328
0.227058
0.22822
0.228964
0.2294
0.229598
0.229589
0.183208
0.183205
0.183586
0.18436
0.185592
0.187408
0.190038
0.193742
0.198797
0.205367
0.212605
0.218731
0.223211
0.226355
0.228513
0.229969
0.230917
0.231487
0.231746
0.231734
0.174166
0.174152
0.174608
0.175538
0.177075
0.179398
0.182753
0.187468
0.193865
0.202129
0.211162
0.218763
0.224307
0.228217
0.230913
0.232729
0.233905
0.234595
0.234901
0.234879
0.163108
0.163121
0.163764
0.16502
0.167021
0.169994
0.174298
0.180332
0.188463
0.198855
0.210074
0.219452
0.226272
0.231077
0.234382
0.236602
0.238054
0.238926
0.239318
0.239298
0.149755
0.149742
0.150536
0.152142
0.154768
0.158727
0.164358
0.172162
0.182533
0.19557
0.209431
0.220926
0.229269
0.23516
0.239233
0.241991
0.243782
0.244833
0.245292
0.245247
0.132785
0.132873
0.134056
0.136297
0.139866
0.145148
0.152622
0.162837
0.176095
0.192388
0.209393
0.22337
0.233495
0.240664
0.245625
0.248978
0.251181
0.252495
0.253074
0.25303
0.111624
0.111655
0.113249
0.116404
0.121382
0.128733
0.138828
0.152228
0.169131
0.189345
0.210006
0.226826
0.239001
0.247668
0.253752
0.257933
0.260685
0.262321
0.263018
0.26292
0.083447
0.0838991
0.0864592
0.0912071
0.0985436
0.10892
0.122736
0.140376
0.161799
0.186647
0.211503
0.231537
0.246049
0.256468
0.263851
0.268999
0.272452
0.2745
0.275406
0.275286
0.0459943
0.0467052
0.0509723
0.0589298
0.0703395
0.0853905
0.104424
0.127487
0.154353
0.184538
0.214024
0.237543
0.254586
0.266948
0.27589
0.282281
0.286728
0.289506
0.290718
0.29044
-0.0038234
-0.00317411
0.00487388
0.0182999
0.0363351
0.058305
0.0841684
0.113842
0.147075
0.183199
0.217634
0.244836
0.264625
0.279151
0.289882
0.297806
0.303464
0.306953
0.308198
0.307803
-0.0723344
-0.0683163
-0.0510423
-0.0281261
-0.00121486
0.0290429
0.062735
0.099913
0.140243
0.183003
0.223109
0.25475
0.278093
0.295635
0.308964
0.319193
0.327024
0.332474
0.33437
0.334252
-0.153504
-0.139241
-0.10943
-0.0760125
-0.0394075
-0.000665199
0.0412726
0.0862922
0.133943
0.183747
0.230176
0.266977
0.294529
0.315762
0.332584
0.346038
0.35686
0.364742
0.369862
0.370594
-0.21891
-0.201729
-0.163669
-0.122116
-0.0769112
-0.0295567
0.0206725
0.0732798
0.128023
0.184608
0.236938
0.278395
0.309568
0.333673
0.352755
0.368116
0.380196
0.38941
0.394186
0.394709
-0.267651
-0.252374
-0.209554
-0.162984
-0.111056
-0.056323
0.00118267
0.0607117
0.122205
0.185217
0.243002
0.288417
0.322192
0.347991
0.367995
0.383824
0.396248
0.405265
0.409998
0.410673
-0.307586
-0.292699
-0.247587
-0.197972
-0.140766
-0.0803646
-0.0169074
0.0487388
0.116385
0.185148
0.24759
0.295977
0.331411
0.358058
0.378395
0.394197
0.406583
0.41575
0.420659
0.42133
-0.341803
-0.32662
-0.279533
-0.227639
-0.166436
-0.101806
-0.0335719
0.0373037
0.110241
0.183968
0.25044
0.301407
0.338178
0.365456
0.386171
0.402073
0.414596
0.423514
0.428741
0.429165
-0.371887
-0.356715
-0.30739
-0.253132
-0.188856
-0.12112
-0.0490543
0.0262098
0.103698
0.181983
0.25237
0.3058
0.343949
0.372001
0.393117
0.409106
0.421545
0.430619
0.435368
0.435903
-0.398988
-0.384047
-0.332674
-0.275901
-0.209001
-0.138808
-0.0635913
0.0153794
0.0968818
0.179409
0.25352
0.309521
0.349291
0.378161
0.399727
0.415969
0.428289
0.437338
0.441964
0.442452
-0.423807
-0.40898
-0.356391
-0.297197
-0.227847
-0.155361
-0.0773669
0.00480526
0.089902
0.176481
0.254512
0.313462
0.354855
0.384634
0.406485
0.422704
0.434976
0.443842
0.448522
0.449066
-0.447175
-0.431885
-0.379025
-0.317798
-0.246186
-0.171323
-0.0906679
-0.00560203
0.0828237
0.173307
0.255234
0.316814
0.359875
0.390544
0.413004
0.4296
0.441976
0.450748
0.455393
0.455866
-0.469108
-0.453602
-0.400528
-0.337882
-0.264412
-0.187198
-0.103946
-0.0161699
0.0753147
0.169336
0.254779
0.319526
0.364933
0.397049
0.420034
0.43682
0.449169
0.457771
0.462417
0.462932
-0.489841
-0.474434
-0.420897
-0.357275
-0.282456
-0.203193
-0.117577
-0.0273053
0.0669935
0.164403
0.253824
0.322098
0.369737
0.403221
0.427094
0.444282
0.456855
0.465481
0.46995
0.470376
-0.509901
-0.494326
-0.44029
-0.375894
-0.300075
-0.21921
-0.131613
-0.0390901
0.0579247
0.158706
0.252085
0.323645
0.374234
0.409782
0.434775
0.452489
0.465083
0.473351
0.477826
0.478224
-0.529651
-0.513452
-0.458963
-0.393841
-0.317136
-0.235027
-0.14582
-0.0513106
0.0481958
0.151991
0.248831
0.324437
0.378674
0.416792
0.443115
0.461246
0.473836
0.482253
0.486342
0.486537
-0.549049
-0.532055
-0.477194
-0.411293
-0.333676
-0.25051
-0.159972
-0.063802
0.0378151
0.144304
0.244831
0.324527
0.382023
0.423258
0.451746
0.470915
0.483548
0.491131
0.494908
0.49498
-0.567978
-0.55031
-0.4951
-0.428364
-0.349828
-0.265692
-0.174025
-0.0764737
0.0269333
0.135853
0.239763
0.323187
0.384984
0.429781
0.461139
0.481683
0.49415
0.501046
0.503959
0.503682
-0.586339
-0.568228
-0.512642
-0.445061
-0.365675
-0.280654
-0.188002
-0.0892657
0.0156824
0.126602
0.233199
0.320524
0.386485
0.435725
0.471048
0.4942
0.506965
0.511602
0.51212
0.511733
-0.604086
-0.585668
-0.529682
-0.461319
-0.381213
-0.295426
-0.201913
-0.102171
0.00404326
0.116602
0.225596
0.316535
0.386688
0.440566
0.480725
0.508309
0.522881
0.525503
0.52136
0.518482
-0.621168
-0.602499
-0.5461
-0.477048
-0.396366
-0.309947
-0.215724
-0.115172
-0.00795966
0.105957
0.216906
0.310565
0.38456
0.443687
0.490013
0.524063
0.54419
0.544578
0.536163
0.540637
-0.637546
-0.61862
-0.561808
-0.492173
-0.411037
-0.324123
-0.229343
-0.12815
-0.0201529
0.0948302
0.207215
0.302918
0.380456
0.444104
0.496527
0.538775
0.570193
0.567723
0.524557
0.472699
-0.653155
-0.634077
-0.576854
-0.506757
-0.425294
-0.338034
-0.242878
-0.141252
-0.0327089
0.0830329
0.196302
0.293392
0.373335
0.440999
0.498958
0.550902
0.59759
0.628292
0.656447
0.707816
-0.667928
-0.648927
-0.591345
-0.520941
-0.439294
-0.35187
-0.256577
-0.154829
-0.0461068
0.0698395
0.183378
0.280689
0.361544
0.431894
0.491535
0.542098
0.579347
0.601875
0.588317
0.592983
-0.68187
-0.663125
-0.605258
-0.534684
-0.452964
-0.365546
-0.270318
-0.168695
-0.0602036
0.0554352
0.168779
0.265603
0.345315
0.413544
0.470345
0.512727
0.52122
0.490077
0.440612
0.434974
-0.69506
-0.676649
-0.618601
-0.548001
-0.466316
-0.379061
-0.284078
-0.18283
-0.0749231
0.0400007
0.152458
0.247336
0.323223
0.385206
0.434493
0.450282
0.420964
0.355192
0.285327
0.278859
-0.707553
-0.689515
-0.631395
-0.560916
-0.479376
-0.392439
-0.297869
-0.197247
-0.0902175
0.0233484
0.133848
0.226019
0.295566
0.344755
0.369367
0.356918
0.310836
0.209277
0.120991
0.106496
-0.719768
-0.702149
-0.644027
-0.573783
-0.492492
-0.405982
-0.311958
-0.212136
-0.106275
0.00545488
0.113412
0.201777
0.264466
0.298845
0.287994
0.247175
0.1402
0.0139845
-0.0968761
-0.118793
-0.732527
-0.715304
-0.657156
-0.587188
-0.50621
-0.420149
-0.326727
-0.227841
-0.123352
-0.0137858
0.0907596
0.174245
0.23027
0.240085
0.193806
0.100771
-0.0670765
-0.227203
-0.359102
-0.383896
-0.746298
-0.729385
-0.671078
-0.601334
-0.520692
-0.435047
-0.34226
-0.244401
-0.141446
-0.0343982
0.0659144
0.143917
0.188631
0.173399
0.0974129
-0.0660586
-0.288277
-0.518411
-0.709076
-0.756811
-0.761115
-0.744405
-0.685813
-0.616217
-0.535898
-0.450633
-0.358488
-0.26174
-0.160492
-0.0562013
0.0395709
0.113104
0.143052
0.0902536
-0.0221817
-0.240539
-0.50733
-0.833162
-1.18319
-1.32339
-0.777029
-0.760457
-0.701425
-0.631914
-0.551856
-0.466929
-0.375444
-0.279889
-0.180502
-0.0791625
0.0112403
0.077039
0.0929643
0.000265123
-0.167398
-0.419373
-0.701856
-1.10248
-1.7466
-2.34808
-0.794019
-0.777461
-0.717873
-0.648505
-0.568559
-0.483906
-0.393079
-0.29871
-0.201285
-0.103044
-0.0174987
0.0413905
0.039241
-0.0851401
-0.314009
-0.61033
-0.87158
-1.17586
-1.83552
-3.54656
-0.81212
-0.795485
-0.735208
-0.666125
-0.586097
-0.501703
-0.411551
-0.318424
-0.223118
-0.12837
-0.0479978
0.00242102
-0.015842
-0.155658
-0.431571
-0.747429
-0.959754
-1.05472
-1.10714
-1.5513
-0.831216
-0.814371
-0.753613
-0.685018
-0.604752
-0.520706
-0.431405
-0.339629
-0.246724
-0.155838
-0.080115
-0.0390411
-0.0827117
-0.211727
-0.499317
-0.789012
-0.964544
-1.00936
-0.971123
-1.02316
-0.85128
-0.834095
-0.773204
-0.705141
-0.624481
-0.54097
-0.452647
-0.362357
-0.272084
-0.185863
-0.115143
-0.0790204
-0.142826
-0.266544
-0.54518
-0.789666
-0.932925
-0.979613
-1.00916
-1.02888
-0.871871
-0.854442
-0.794153
-0.726339
-0.645184
-0.562401
-0.475209
-0.386499
-0.299073
-0.217921
-0.151697
-0.122188
-0.201121
-0.330478
-0.586502
-0.792235
-0.912967
-0.909201
-0.93796
-0.935377
-0.892871
-0.875306
-0.816093
-0.74827
-0.666645
-0.584869
-0.498883
-0.411778
-0.327345
-0.251288
-0.189657
-0.160424
-0.257329
-0.413692
-0.635643
-0.795482
-0.896532
-0.900292
-0.910343
-0.915784
-0.913959
-0.896497
-0.838351
-0.770484
-0.688657
-0.608121
-0.523155
-0.43784
-0.356314
-0.285372
-0.231101
-0.205653
-0.30968
-0.501852
-0.692508
-0.802518
-0.86364
-0.923429
-0.893344
-0.904946
-0.93483
-0.917626
-0.860281
-0.792203
-0.711042
-0.631735
-0.547552
-0.464084
-0.385142
-0.318739
-0.272476
-0.249697
-0.373588
-0.605574
-0.770627
-0.829668
-0.799669
-0.891744
-0.870581
-0.889814
-0.954783
-0.938078
-0.881257
-0.813226
-0.733281
-0.655067
-0.571306
-0.49016
-0.413758
-0.350149
-0.314328
-0.283166
-0.431398
-0.707856
-0.871282
-0.867894
-0.796486
-0.84225
-0.881695
-0.892869
-0.973172
-0.95706
-0.900725
-0.832831
-0.754965
-0.677052
-0.593823
-0.515756
-0.441237
-0.378184
-0.357907
-0.318884
-0.48798
-0.81123
-1.05012
-1.10988
-1.08926
-1.06952
-1.083
-1.07716
-0.988746
-0.973488
-0.918194
-0.850782
-0.774517
-0.696129
-0.615166
-0.538843
-0.466079
-0.401079
-0.39861
-0.348619
-0.54316
-0.914454
-1.33942
-1.70877
-1.7905
-1.70842
-1.64412
-1.57921
-1.00063
-0.986336
-0.932473
-0.865551
-0.790196
-0.712422
-0.633926
-0.558138
-0.487183
-0.419327
-0.419325
-0.362456
-0.552975
-0.93436
-1.45852
-2.03035
-2.2434
-2.13858
-2.01717
-1.93029
-1.00709
-0.993934
-0.941896
-0.875575
-0.801048
-0.72462
-0.648031
-0.573955
-0.501972
-0.434633
-0.42005
-0.370518
-0.512854
-0.789238
-1.1484
-1.50909
-1.60679
-1.54793
-1.39222
-1.30802
-1.00667
-0.994584
-0.944672
-0.879272
-0.805912
-0.731557
-0.6568
-0.585237
-0.511615
-0.441859
-0.398262
-0.338368
-0.362163
-0.350231
-0.321339
-0.299039
-0.241423
-0.162497
-0.104834
-0.0424593
-0.997105
-0.986514
-0.939336
-0.87529
-0.803703
-0.731926
-0.66015
-0.591985
-0.520742
-0.432517
-0.355615
-0.260739
-0.108672
0.135675
0.428429
0.675789
0.860844
0.987305
1.04082
1.0599
-0.97646
-0.967316
-0.923867
-0.862157
-0.792793
-0.72424
-0.656978
-0.591906
-0.525873
-0.441849
-0.324878
-0.17922
0.0811562
0.427755
0.830879
1.18069
1.45491
1.59527
1.63638
1.64713
-0.94337
-0.935908
-0.896176
-0.837887
-0.772546
-0.708378
-0.647226
-0.588175
-0.53307
-0.470536
-0.334606
-0.162373
0.118039
0.490913
0.895841
1.25064
1.5265
1.66688
1.70923
1.71999
-0.896853
-0.891415
-0.856281
-0.803264
-0.743409
-0.685417
-0.633533
-0.589665
-0.562266
-0.545931
-0.474056
-0.321037
-0.0165499
0.361716
0.757191
1.10617
1.35054
1.47654
1.5172
1.53119
-0.837752
-0.833118
-0.804052
-0.758284
-0.705746
-0.656933
-0.619185
-0.601034
-0.62663
-0.70176
-0.781807
-0.631397
-0.293266
0.107613
0.524921
0.844805
1.04549
1.14102
1.18476
1.20103
-0.769457
-0.76501
-0.740592
-0.702108
-0.658511
-0.621198
-0.597383
-0.602344
-0.675568
-0.85233
-1.11762
-0.958016
-0.519425
-0.101972
0.267476
0.515328
0.684167
0.754134
0.794574
0.809288
-0.679957
-0.678102
-0.659611
-0.631007
-0.597373
-0.568848
-0.552406
-0.563641
-0.639523
-0.800265
-1.12585
-0.978927
-0.544413
-0.170986
0.125128
0.312672
0.425333
0.460243
0.498149
0.505673
-0.564474
-0.565474
-0.555853
-0.537894
-0.5156
-0.496777
-0.482714
-0.491024
-0.550105
-0.683045
-0.89802
-0.73463
-0.37654
-0.113689
0.0920713
0.211607
0.275313
0.304568
0.320789
0.324893
-0.450222
-0.449685
-0.443974
-0.433883
-0.420285
-0.406273
-0.394876
-0.395525
-0.426537
-0.505006
-0.603441
-0.421206
-0.183238
-0.0312561
0.0860208
0.149676
0.183361
0.200912
0.21112
0.21482
-0.335609
-0.336095
-0.333551
-0.327876
-0.319741
-0.309793
-0.299142
-0.292131
-0.297343
-0.323088
-0.335999
-0.184886
-0.0568561
0.0287134
0.0872371
0.115549
0.133385
0.143314
0.149101
0.150712
-0.232218
-0.233107
-0.232083
-0.228912
-0.224063
-0.217068
-0.206994
-0.194893
-0.182159
-0.171838
-0.130647
-0.0369047
0.0253512
0.0713487
0.0923641
0.102862
0.110715
0.115049
0.117206
0.117562
-0.145967
-0.146819
-0.146913
-0.1453
-0.141961
-0.136656
-0.127476
-0.113487
-0.0922049
-0.0577856
-0.0108778
0.0443392
0.0770661
0.0951667
0.0990289
0.101044
0.102841
0.103529
0.103479
0.102698
-0.0800122
-0.0807647
-0.0817408
-0.0814192
-0.0791065
-0.0746148
-0.0662939
-0.0531275
-0.0322797
0.00217935
0.0448426
0.0828731
0.0980312
0.103649
0.102128
0.100693
0.0994638
0.0980387
0.0967647
0.0955233
-0.0327178
-0.0333156
-0.0346278
-0.035501
-0.0345016
-0.0310952
-0.0240115
-0.0125382
0.0053771
0.0337702
0.0674255
0.0952649
0.10194
0.103265
0.100515
0.0978738
0.0953446
0.0930019
0.0912765
0.0901435
-0.000689346
-0.00114393
-0.00235712
-0.00377956
-0.00389339
-0.00196583
0.00322674
0.0126474
0.0273986
0.0498025
0.07447
0.0942963
0.0980499
0.0981223
0.0954182
0.0925435
0.0897088
0.0872305
0.0856025
0.0847053
0.0195899
0.01926
0.0183059
0.0170001
0.0164207
0.0170937
0.0202789
0.0272021
0.0386076
0.0557854
0.0738972
0.0878012
0.0906425
0.0904988
0.0882836
0.0857708
0.083328
0.0812454
0.0799527
0.0792699
0.0316605
0.0314099
0.030748
0.029841
0.0293817
0.0295585
0.0313524
0.0357955
0.0437796
0.0562978
0.0695386
0.0793849
0.0817943
0.0818054
0.0802653
0.0784065
0.0766276
0.0750935
0.0741646
0.0736652
0.0389845
0.0387796
0.038347
0.0377559
0.0375298
0.0377077
0.0389244
0.0416407
0.0467787
0.0551974
0.0644085
0.0711904
0.0731296
0.073298
0.0723652
0.0710859
0.0698142
0.0686746
0.0680157
0.0676596
0.0436984
0.0435307
0.0431837
0.0426382
0.0423499
0.04244
0.0433849
0.0452087
0.0485724
0.0539294
0.0598946
0.0642744
0.0656546
0.0658188
0.065217
0.0642422
0.0632031
0.0622582
0.0617478
0.0614917
0.0461726
0.0460268
0.0456563
0.0449885
0.04443
0.0442
0.0446964
0.045927
0.0483001
0.0518583
0.0557086
0.058459
0.059354
0.0593856
0.058863
0.0580073
0.0570796
0.0562536
0.0558283
0.0556363
0.0462858
0.0461547
0.0457663
0.045035
0.044314
0.0438084
0.0437914
0.0444087
0.0460028
0.0485097
0.0512021
0.0530377
0.0536147
0.0535141
0.0530041
0.0522558
0.0514661
0.0507753
0.0504286
0.0502811
0.0445189
0.0444118
0.0440693
0.0434113
0.0427341
0.0421796
0.0418683
0.0420043
0.0428759
0.0445226
0.0464192
0.0476869
0.048055
0.0478963
0.0474417
0.046839
0.0462181
0.0456755
0.0454095
0.0452984
0.0417016
0.0416258
0.0413598
0.0408236
0.0402697
0.039788
0.0394171
0.0393324
0.0396856
0.0406013
0.0417731
0.0425518
0.0427332
0.0425555
0.0421759
0.0417092
0.0412345
0.0408177
0.0406193
0.0405369
0.0382917
0.038242
0.0380362
0.0375952
0.0371407
0.03672
0.0363627
0.0362118
0.0362873
0.0367273
0.0373376
0.037723
0.037747
0.0375564
0.0372301
0.0368545
0.0364797
0.0361514
0.0359993
0.0359369
0.0344255
0.0343923
0.0342239
0.0338486
0.0334633
0.0330763
0.0327263
0.0325382
0.032476
0.0326738
0.0329592
0.0331098
0.0330349
0.0328308
0.0325345
0.0322162
0.0319083
0.0316417
0.0315206
0.0314733
0.0301926
0.0301685
0.0300328
0.0297248
0.029408
0.0290639
0.0287333
0.0285195
0.0283741
0.0284394
0.0285533
0.0285829
0.028459
0.0282576
0.0279977
0.0277337
0.0274862
0.0272752
0.0271796
0.0271427
0.0257348
0.0257176
0.0256119
0.0253702
0.0251211
0.0248356
0.0245465
0.0243332
0.0241431
0.0241198
0.0241307
0.0240973
0.0239588
0.0237775
0.0235603
0.0233472
0.0231516
0.0229867
0.0229117
0.022883
0.0211562
0.0211444
0.0210673
0.0208878
0.0206992
0.020476
0.020242
0.0200572
0.0198649
0.0197885
0.0197292
0.0196566
0.0195203
0.0193643
0.0191868
0.0190173
0.0188646
0.0187382
0.0186812
0.0186605
0.0165206
0.0165116
0.0164548
0.0163239
0.0161836
0.0160165
0.0158365
0.0156895
0.0155227
0.0154367
0.0153511
0.0152652
0.0151408
0.0150128
0.0148745
0.0147445
0.0146284
0.0145327
0.0144887
0.0144727
0.0118477
0.0118432
0.011803
0.01171
0.0116081
0.011488
0.0113558
0.0112463
0.0111165
0.0110431
0.0109641
0.0108909
0.0107943
0.0106987
0.010597
0.0105016
0.0104169
0.0103479
0.0103167
0.010306
0.00713465
0.00713175
0.00710709
0.00704925
0.00698592
0.00691388
0.00683138
0.00676674
0.00667924
0.00663138
0.00657492
0.00652574
0.00646377
0.00640634
0.00634335
0.00628434
0.00623126
0.00618722
0.00616779
0.00616079
0.00239699
0.00239633
0.00238563
0.00235948
0.00233411
0.00231012
0.00227745
0.00226078
0.00222412
0.00221151
0.0021916
0.00217762
0.00215314
0.00213442
0.0021113
0.00209026
0.00206884
0.00204777
0.00203962
0.00203642
-1.66408
-0.733964
-0.457425
-0.155482
0.0509448
0.230858
0.384005
0.539853
0.705315
0.783575
-0.60781
-0.159787
-0.121652
0.0820439
0.227838
0.358391
0.472844
0.573144
0.609145
0.562763
-0.178703
0.0584091
0.112237
0.256144
0.35857
0.451075
0.52789
0.585057
0.592228
0.602794
0.0821441
0.243765
0.283035
0.397777
0.462747
0.528859
0.57966
0.615356
0.626674
0.649217
0.282428
0.394529
0.42378
0.505754
0.550808
0.598484
0.633945
0.659997
0.671377
0.701928
0.435796
0.513329
0.543832
0.594737
0.632571
0.666033
0.692541
0.714066
0.729335
0.756833
0.563483
0.618544
0.64542
0.676943
0.706897
0.732375
0.753724
0.773561
0.78896
0.814979
0.672379
0.712233
0.734446
0.756593
0.778989
0.799469
0.817546
0.836078
0.851288
0.874858
0.770138
0.799891
0.81761
0.833634
0.850666
0.867346
0.883321
0.900801
0.914573
0.936901
0.860259
0.881495
0.896912
0.910551
0.924634
0.938885
0.952622
0.967396
0.978891
0.998523
0.947189
0.963223
0.977418
0.989647
1.00191
1.01368
1.02481
1.03641
1.04398
1.0608
1.03313
1.0462
1.06012
1.07192
1.08254
1.09227
1.10099
1.10922
1.11292
1.12417
1.12266
1.1336
1.14713
1.15634
1.16379
1.17102
1.17833
1.18504
1.18606
1.19345
1.22117
1.22592
1.23398
1.23852
1.24182
1.24631
1.25229
1.26002
1.26391
1.27379
1.33468
1.32098
1.31354
1.30784
1.30514
1.30651
1.31303
1.32549
1.34018
1.36981
1.45541
1.39981
1.36887
1.35179
1.34366
1.34369
1.35235
1.37173
1.40374
1.47292
)
;

boundaryField
{
    wall-4
    {
        type            zeroGradient;
    }
    pressure-outlet-7
    {
        type            fixedValue;
        value           uniform 0;
    }
    velocity-inlet-6
    {
        type            zeroGradient;
    }
    velocity-inlet-5
    {
        type            zeroGradient;
    }
    frontAndBackPlanes
    {
        type            empty;
    }
}


// ************************************************************************* //
