/*--------------------------------*- C++ -*----------------------------------*\
| =========                 |                                                 |
| \\      /  F ield         | OpenFOAM: The Open Source CFD Toolbox           |
|  \\    /   O peration     | Version:  4.0                                   |
|   \\  /    A nd           | Web:      www.OpenFOAM.org                      |
|    \\/     M anipulation  |                                                 |
\*---------------------------------------------------------------------------*/
FoamFile
{
    version     2.0;
    format      ascii;
    class       surfaceScalarField;
    location    "15";
    object      phi;
}
// * * * * * * * * * * * * * * * * * * * * * * * * * * * * * * * * * * * * * //

dimensions      [0 3 -1 0 0 0 0];

internalField   nonuniform List<scalar> 
4262
(
0.106925
0.471063
0.095366
0.705145
0.0689897
0.858679
0.0467134
1.02104
0.030095
1.21513
0.0188917
1.44942
0.0116292
1.73313
0.00670762
2.07596
0.00313157
2.48882
-0.00018845
2.98561
-0.00356788
2.98567
-0.00717419
2.48885
-0.0120189
2.07588
-0.019156
1.733
-0.0302742
1.44934
-0.0468577
1.2151
-0.0691027
1.02101
-0.0954331
0.858634
-0.106967
0.705119
0.471022
0.112524
0.358539
0.134484
0.683185
0.11975
0.873413
0.0974648
1.04333
0.0742369
1.23836
0.052554
1.47111
0.0346577
1.75102
0.0209019
2.08971
0.00957902
2.50014
-0.000715106
2.99591
-0.010916
2.99587
-0.0219461
2.49988
-0.035504
2.08944
-0.0533304
1.75083
-0.0749429
1.47095
-0.0980532
1.23821
-0.120213
1.04317
-0.134836
0.873256
-0.112712
0.682995
0.35831
0.0915564
0.266983
0.123775
0.650966
0.119594
0.877593
0.103648
1.05927
0.0858871
1.25612
0.0668727
1.49012
0.0474411
1.77045
0.0292535
2.1079
0.013413
2.51598
-0.0010923
3.01041
-0.015591
3.01037
-0.0312604
2.51555
-0.0493323
2.10751
-0.0685477
1.77004
-0.0872567
1.48966
-0.104754
1.25571
-0.120486
1.0589
-0.124418
0.877189
-0.0918583
0.650435
0.266451
0.0619318
0.205051
0.101312
0.611586
0.102144
0.876761
0.0902088
1.07121
0.0763378
1.26999
0.0628988
1.50356
0.0479606
1.78539
0.0318276
2.12403
0.0153658
2.53244
-0.00173564
3.02751
-0.018702
3.02734
-0.0349495
2.5318
-0.0506207
2.12318
-0.0650981
1.78452
-0.0781433
1.5027
-0.0916439
1.26921
-0.103237
1.07049
-0.102049
0.876002
-0.0622444
0.61063
0.204207
0.0347859
0.170265
0.075199
0.571173
0.0841974
0.867763
0.0764488
1.07896
0.0641094
1.28233
0.0527567
1.51491
0.0415171
1.79663
0.0290629
2.13649
0.014777
2.54673
-0.00231724
3.04461
-0.0190698
3.04409
-0.032797
2.54552
-0.0447291
2.13511
-0.0555052
1.7953
-0.0663831
1.51358
-0.0783823
1.28121
-0.0857459
1.07786
-0.0762371
0.866493
-0.0351539
0.569547
0.169053
0.016953
0.153312
0.0511379
0.536988
0.0648198
0.854081
0.0624128
1.08136
0.0535266
1.29122
0.0431593
1.52528
0.0329502
1.80684
0.0225739
2.14686
0.0110475
2.55826
-0.0030837
3.05874
-0.0168766
3.05788
-0.0277906
2.55644
-0.0374272
2.14475
-0.0470249
1.80489
-0.0568747
1.52343
-0.0651736
1.28951
-0.0669391
1.07962
-0.0524565
0.85201
-0.017398
0.534489
0.151655
0.00679342
0.146519
0.0311737
0.512608
0.0451785
0.840076
0.0466939
1.07985
0.0423446
1.29557
0.0351475
1.53248
0.027127
1.81486
0.0181374
2.15585
0.00793289
2.56846
-0.00395101
3.07062
-0.0156112
3.06954
-0.0252699
2.5661
-0.0334369
2.15292
-0.0402588
1.81172
-0.0464802
1.52965
-0.0498952
1.29292
-0.0474728
1.0772
-0.0324843
0.837022
-0.00729269
0.509297
0.144362
0.000951665
0.145567
0.0141557
0.499404
0.0251263
0.829106
0.0290368
1.07594
0.0292266
1.29538
0.0266906
1.53501
0.0220391
1.81951
0.0150261
2.16287
0.00584176
2.57765
-0.00494574
3.08141
-0.0153006
3.0799
-0.0234879
2.57428
-0.0290847
2.15851
-0.0324
1.81503
-0.0338554
1.53111
-0.0326047
1.29167
-0.0276784
1.07227
-0.0156702
0.825014
-0.00148027
0.495107
0.142882
-0.00155671
0.147124
0.00356899
0.494278
0.0109119
0.821763
0.0156919
1.07116
0.0184776
1.29259
0.0189015
1.53459
0.0167352
1.82168
0.0116683
2.16793
0.00379208
2.58552
-0.00612719
3.09133
-0.0154325
3.0892
-0.0220415
2.58089
-0.0257853
2.16226
-0.0266471
1.81589
-0.0246313
1.52909
-0.0204537
1.28749
-0.014374
1.06619
-0.00569556
0.816335
0.000770739
0.488641
0.143653
-0.00121058
0.148334
0.00068362
0.492384
0.00558985
0.816856
0.0103064
1.06644
0.0136275
1.28927
0.0144806
1.53374
0.0126812
1.82348
0.00839461
2.17222
0.00142412
2.59249
-0.00767411
3.10043
-0.0162247
3.09775
-0.0217484
2.58642
-0.024482
2.16499
-0.0244475
1.81586
-0.0216482
1.52629
-0.016578
1.28242
-0.0101214
1.05974
-0.00328687
0.809501
0.000250887
0.485103
0.143904
-0.000452197
0.148787
0.000192502
0.491739
0.00405199
0.812997
0.00859532
1.0619
0.0119075
1.28596
0.0125324
1.53311
0.0103475
1.82566
0.00556532
2.177
-0.00150372
2.59956
-0.0102053
3.10913
-0.018125
3.10567
-0.0229744
2.59127
-0.025096
2.16711
-0.0245913
1.81535
-0.0217617
1.52346
-0.0162529
1.27691
-0.00956421
1.05305
-0.00359218
0.803528
-0.000664829
0.482176
0.143239
-0.000694985
0.149482
-0.000915548
0.49196
0.00189513
0.810186
0.0060789
1.05771
0.00938734
1.28265
0.0100644
1.53243
0.00775774
1.82797
0.00277723
2.18198
-0.00443577
2.60677
-0.0129051
3.1176
-0.0202385
3.11301
-0.0247303
2.59576
-0.0258476
2.16823
-0.0249575
1.81446
-0.0212185
1.51973
-0.0151202
1.27082
-0.00835281
1.04628
-0.00314539
0.798321
-0.000785439
0.479816
0.142453
-0.00126883
0.15075
-0.00246279
0.493154
-0.00156868
0.809292
0.001494
1.05465
0.00405484
1.28009
0.00466928
1.53182
0.00272407
1.82992
-0.00168906
2.1864
-0.0081722
2.61326
-0.015825
3.12525
-0.022058
3.11924
-0.0254968
2.5992
-0.0259714
2.16871
-0.0241362
1.81263
-0.0195974
1.51519
-0.013436
1.26465
-0.00708068
1.03993
-0.00260689
0.793847
-0.000662872
0.477872
0.141791
-0.00145477
0.152205
-0.00349746
0.495196
-0.00375028
0.809545
-0.00225491
1.05316
-0.000899328
1.27874
-0.00106165
1.53198
-0.00333401
1.83219
-0.00757352
2.19064
-0.0133959
2.61908
-0.0199953
3.13185
-0.0247986
3.12404
-0.0266467
2.60104
-0.0259793
2.16804
-0.0228905
1.80954
-0.0181863
1.51048
-0.0125075
1.25898
-0.00695385
1.03437
-0.00300208
0.789895
-0.000913663
0.475783
0.140877
-0.00170082
0.153906
-0.00441626
0.497912
-0.00566527
0.810794
-0.00594272
1.05343
-0.00612579
1.27892
-0.00733491
1.53319
-0.0100145
1.83487
-0.0141998
2.19482
-0.0194878
2.62437
-0.0249825
3.13735
-0.0282887
3.12735
-0.0285216
2.60128
-0.0267937
2.16631
-0.02309
1.80584
-0.0183623
1.50575
-0.013094
1.25371
-0.00805253
1.02933
-0.00411208
0.785955
-0.00142149
0.473093
0.139455
-0.00190735
0.155813
-0.00511075
0.501115
-0.00732097
0.813004
-0.00867394
1.05479
-0.0104514
1.2807
-0.0131766
1.53592
-0.0170234
1.83871
-0.0218279
2.19963
-0.0270684
2.62961
-0.0316103
3.14189
-0.033338
3.12908
-0.0319203
2.59986
-0.0288059
2.1632
-0.024228
1.80126
-0.0190284
1.50056
-0.0137549
1.24843
-0.00893129
1.02451
-0.00491683
0.781941
-0.00174023
0.469916
0.137715
-0.00267932
0.158493
-0.00714121
0.505577
-0.0110063
0.816869
-0.0139858
1.05777
-0.0170354
1.28375
-0.0207304
1.53961
-0.0252215
1.84321
-0.0303947
2.2048
-0.035551
2.63477
-0.0392578
3.14559
-0.0394947
3.12931
-0.0367001
2.59707
-0.0322003
2.1587
-0.0268981
1.79596
-0.0213691
1.49503
-0.0159775
1.24304
-0.0109059
1.01944
-0.00621656
0.777251
-0.0021979
0.465897
0.135517
-0.00325542
0.161748
-0.00863839
0.51096
-0.013495
0.821726
-0.0179507
1.06222
-0.0229003
1.2887
-0.02858
1.54529
-0.034829
1.84945
-0.0411413
2.21111
-0.0466592
2.64028
-0.0496733
3.14861
-0.0482858
3.12793
-0.0437781
2.59256
-0.0375927
2.15251
-0.0308436
1.78921
-0.0241597
1.48834
-0.0179499
1.23683
-0.0123461
1.01383
-0.0071892
0.772094
-0.00257465
0.461283
0.132943
-0.00452602
0.166274
-0.0120409
0.518475
-0.01886
0.828545
-0.0248924
1.06825
-0.0310998
1.2949
-0.0380747
1.55227
-0.0456492
1.85703
-0.0532481
2.21871
-0.0594748
2.64651
-0.0621232
3.15126
-0.0592487
3.12505
-0.0529308
2.58624
-0.0451235
2.1447
-0.0371415
1.78122
-0.0296112
1.48081
-0.0227122
1.22993
-0.0161513
1.00727
-0.00950006
0.765443
-0.0033494
0.455132
0.129593
-0.00550446
0.171778
-0.0144094
0.52738
-0.0228423
0.836978
-0.0310737
1.07649
-0.0401063
1.30393
-0.0498112
1.56197
-0.0598041
1.86702
-0.0690948
2.228
-0.0760877
2.6535
-0.0782172
3.15339
-0.0735923
3.12043
-0.0651275
2.57778
-0.0551565
2.13473
-0.0450324
1.7711
-0.0354849
1.47126
-0.0267655
1.22121
-0.0187651
0.99927
-0.0110535
0.757732
-0.00396171
0.44804
0.125632
-0.00782469
0.179603
-0.0203662
0.539921
-0.0316381
0.84825
-0.0418534
1.0867
-0.0526112
1.31469
-0.0644685
1.57383
-0.0767897
1.87934
-0.0880941
2.23931
-0.0961584
2.66157
-0.097766
3.15499
-0.0912014
3.11386
-0.080199
2.56677
-0.067672
2.12221
-0.0553335
1.75876
-0.0440377
1.45997
-0.0339705
1.21115
-0.024408
0.989708
-0.0144673
0.747791
-0.00506171
0.438635
0.12057
-0.00959991
0.189203
-0.0245882
0.55491
-0.0389472
0.862609
-0.0528838
1.10064
-0.068147
1.32996
-0.0839911
1.58967
-0.0995499
1.8949
-0.113174
2.25293
-0.122073
2.67047
-0.122686
3.15561
-0.113549
3.10473
-0.0995491
2.55277
-0.0840383
2.10669
-0.0687644
1.74349
-0.0544516
1.44566
-0.0412441
1.19794
-0.0289114
0.977375
-0.0168822
0.735762
-0.0059385
0.427691
0.114631
-0.0147852
0.203988
-0.0364524
0.576577
-0.0550806
0.881237
-0.0721336
1.11769
-0.090471
1.34829
-0.109869
1.60907
-0.128664
1.9137
-0.144187
2.26845
-0.153292
2.67957
-0.152135
3.15445
-0.139679
3.09227
-0.121919
2.53501
-0.102648
2.08742
-0.0839009
1.72474
-0.066874
1.42863
-0.0517715
1.18284
-0.0373452
0.962949
-0.0221017
0.720518
-0.00761234
0.413202
0.107019
-0.0184716
0.22246
-0.0458418
0.603947
-0.0715439
0.906939
-0.0955673
1.14171
-0.120857
1.37358
-0.145322
1.63353
-0.167374
1.93575
-0.184417
2.2855
-0.193076
2.68823
-0.18915
3.15052
-0.172551
3.07567
-0.150638
2.5131
-0.127519
2.0643
-0.105138
1.70236
-0.0839884
1.40748
-0.0640588
1.16291
-0.0448911
0.943781
-0.0259203
0.701547
-0.00859904
0.39588
0.0984199
-0.0335153
0.255975
-0.072333
0.642765
-0.104715
0.939321
-0.135059
1.17206
-0.165228
1.40375
-0.193499
1.66181
-0.217645
1.95989
-0.234594
2.30244
-0.240793
2.69443
-0.232377
3.14211
-0.210299
3.05359
-0.183166
2.48597
-0.15504
2.03618
-0.127972
1.67529
-0.103198
1.38271
-0.0805277
1.14024
-0.0582099
0.921463
-0.0345797
0.677917
-0.0111438
0.372445
0.0872761
-0.0460285
0.302004
-0.1076
0.704336
-0.154214
0.985936
-0.193015
1.21086
-0.228433
1.43917
-0.258881
1.69225
-0.282705
1.98372
-0.29683
2.31657
-0.298107
2.69571
-0.283189
3.12719
-0.254554
3.02496
-0.222136
2.45355
-0.189706
2.00375
-0.158842
1.64443
-0.129998
1.35386
-0.102818
1.11306
-0.074774
0.893419
-0.0417924
0.644935
-0.0122706
0.342923
0.0750055
-0.0293814
0.331385
-0.0798224
0.754777
-0.126026
1.03214
-0.169708
1.25454
-0.210824
1.48029
-0.250214
1.73164
-0.285361
2.01886
-0.313791
2.345
-0.331708
2.71362
-0.332111
3.12759
-0.311588
3.00443
-0.278491
2.42045
-0.238679
1.96394
-0.196023
1.60177
-0.152598
1.31044
-0.109405
1.06986
-0.0673098
0.851324
-0.03039
0.608016
-0.00640141
0.318934
0.0686041
-0.00391491
0.3353
-0.0294715
0.780334
-0.064125
1.06679
-0.101936
1.29235
-0.13948
1.51783
-0.174986
1.76715
-0.206776
2.05065
-0.232265
2.37049
-0.247075
2.72843
-0.244532
3.12505
-0.222059
2.98196
-0.188422
2.38681
-0.149824
1.92534
-0.110148
1.5621
-0.0722354
1.27252
-0.0375879
1.03522
-0.00850285
0.822239
0.00841345
0.591099
0.00748483
0.319863
0.076089
0.00404466
0.331255
-0.010602
0.79498
-0.0359055
1.0921
-0.0655539
1.322
-0.0962681
1.54854
-0.126493
1.79738
-0.154402
2.07856
-0.176774
2.39286
-0.189152
2.74081
-0.18569
3.12159
-0.16494
2.96121
-0.135783
2.35766
-0.103788
1.89334
-0.0720742
1.53038
-0.0425467
1.243
-0.0168225
1.00949
0.0024887
0.802927
0.011007
0.582581
0.00720671
0.323663
0.0832957
0.00572677
0.325528
-0.00366099
0.804368
-0.0232843
1.11172
-0.0472279
1.34594
-0.0714974
1.57281
-0.0968004
1.82268
-0.120781
2.10254
-0.140341
2.41242
-0.151332
2.7518
-0.148888
3.11914
-0.13144
2.94376
-0.106844
2.33306
-0.0807512
1.86725
-0.0556247
1.50526
-0.0322517
1.21962
-0.0120038
0.989244
0.00307886
0.787845
0.00835884
0.577301
0.00462358
0.327398
0.0879192
0.00734925
0.318179
0.000621019
0.811096
-0.0169351
1.12928
-0.0368475
1.36586
-0.0575417
1.59351
-0.0792973
1.84443
-0.100183
2.12343
-0.117655
2.42989
-0.128001
2.76215
-0.126627
3.11777
-0.112144
2.92928
-0.0921118
2.31303
-0.0702869
1.84542
-0.0489974
1.48397
-0.0296052
1.20023
-0.0133668
0.973006
-0.00177259
0.776251
0.00281844
0.57271
0.00154728
0.328669
0.0894665
0.00655051
0.311629
0.0021111
0.815536
-0.0130659
1.14445
-0.0311912
1.38398
-0.050041
1.61236
-0.0693915
1.86379
-0.088139
2.14218
-0.104064
2.44582
-0.113909
2.77199
-0.113335
3.1172
-0.100634
2.91658
-0.0821822
2.29458
-0.0629885
1.82623
-0.0450915
1.46607
-0.0292747
1.18441
-0.0161289
0.95986
-0.00697574
0.767097
-0.00177173
0.567506
-0.00033561
0.327233
0.0891309
0.00469849
0.30693
0.00197093
0.818263
-0.0112862
1.15771
-0.0280765
1.40077
-0.0459065
1.63019
-0.0639122
1.88179
-0.0813129
2.15958
-0.0963329
2.46084
-0.10639
2.78205
-0.107177
3.11798
-0.0965397
2.90594
-0.0805103
2.27855
-0.0628213
1.80854
-0.0464358
1.44968
-0.0320599
1.17004
-0.0200851
0.947885
-0.0113542
0.758367
-0.00549854
0.56165
-0.00151206
0.323247
0.0876188
0.00252713
0.304403
0.000388586
0.820402
-0.0114532
1.16955
-0.0267994
1.41612
-0.0436242
1.64701
-0.0608659
1.89903
-0.0776224
2.17633
-0.0924157
2.47563
-0.102914
2.79255
-0.104334
3.1194
-0.0946197
2.89623
-0.0797131
2.26364
-0.0638921
1.79272
-0.048248
1.43404
-0.0348979
1.15669
-0.023728
0.936715
-0.014262
0.748901
-0.00713882
0.554527
-0.00213951
0.318248
0.0854793
0.000260142
0.304143
-0.00256761
0.82323
-0.0129552
1.17994
-0.0266953
1.42986
-0.0424384
1.66275
-0.0591112
1.91571
-0.0756763
2.1929
-0.0906479
2.4906
-0.101822
2.80372
-0.105252
3.12283
-0.0975299
2.88851
-0.0829176
2.24903
-0.0667939
1.7766
-0.0522659
1.41951
-0.0386928
1.14312
-0.0265395
0.924562
-0.0171628
0.739524
-0.00918303
0.546547
-0.00279795
0.311863
0.0826814
-0.000936824
0.30508
-0.0056989
0.827992
-0.0150205
1.18926
-0.0274524
1.44229
-0.0420848
1.67739
-0.0581214
1.93174
-0.0746316
2.20941
-0.0901967
2.50617
-0.102829
2.81636
-0.107996
3.128
-0.101729
2.88224
-0.0890111
2.23631
-0.0732434
1.76083
-0.0567389
1.40301
-0.0423212
1.1287
-0.0303842
0.912625
-0.0194115
0.728551
-0.0103066
0.537443
-0.0033598
0.304916
0.0793216
-0.00291467
0.307994
-0.00789388
0.832971
-0.0168882
1.19826
-0.0285363
1.45394
-0.0423417
1.69119
-0.0578
1.9472
-0.0742353
2.22585
-0.0905011
2.52243
-0.104421
2.83028
-0.111791
3.13537
-0.107958
2.87841
-0.0950383
2.22339
-0.0787033
1.74449
-0.0627829
1.38709
-0.0483726
1.11429
-0.0351205
0.899373
-0.0234246
0.716855
-0.0126724
0.52669
-0.00407948
0.296323
0.0752421
-0.00397928
0.311974
-0.0092115
0.838203
-0.0180252
1.20707
-0.0293602
1.46527
-0.0427134
1.70455
-0.0577312
1.96222
-0.074058
2.24217
-0.0908654
2.53924
-0.105992
2.8454
-0.115804
3.14518
-0.114037
2.87664
-0.10311
2.21247
-0.0873191
1.7287
-0.06961
1.36938
-0.0524636
1.09714
-0.0372064
0.884116
-0.0245491
0.704198
-0.0136963
0.515838
-0.00462217
0.287249
0.0706199
-0.00426564
0.316239
-0.0100758
0.844013
-0.018723
1.21572
-0.0298275
1.47638
-0.0429018
1.71762
-0.0576253
1.97694
-0.0738613
2.25841
-0.0911907
2.55657
-0.107852
2.86206
-0.120475
3.1578
-0.121834
2.878
-0.111616
2.20225
-0.0942902
1.71138
-0.0763408
1.35143
-0.0592462
1.08005
-0.0452293
0.870099
-0.0311883
0.690157
-0.016397
0.501046
-0.00529063
0.276142
0.0653293
-0.00423504
0.320474
-0.010409
0.850187
-0.0189448
1.22425
-0.0297764
1.48721
-0.0425871
1.73043
-0.0571245
1.99148
-0.0734279
2.27471
-0.0913475
2.57449
-0.109306
2.88002
-0.123854
3.17235
-0.12779
2.88193
-0.120323
2.19478
-0.105777
1.69683
-0.0847866
1.33044
-0.0649336
1.06019
-0.0455056
0.850671
-0.0290193
0.673671
-0.0164653
0.488492
-0.00542918
0.265106
0.0599001
-0.00423006
0.324704
-0.0106764
0.856633
-0.0190312
1.23261
-0.0294676
1.49765
-0.0419434
1.74291
-0.0562999
2.00584
-0.0726617
2.29107
-0.091015
2.59284
-0.110172
2.89918
-0.127971
3.19015
-0.136424
2.89039
-0.131569
2.18993
-0.115455
1.68072
-0.0959863
1.31097
-0.0732801
1.03749
-0.0540388
0.83143
-0.0376876
0.657319
-0.0197888
0.470593
-0.00575672
0.251074
0.0541434
-0.00417664
0.328881
-0.0105868
0.863044
-0.018735
1.24075
-0.0288257
1.50774
-0.0409405
1.75502
-0.0550526
2.01995
-0.0714268
2.30745
-0.0901614
2.61158
-0.110472
2.91949
-0.130391
3.21007
-0.140809
2.90081
-0.138194
2.18731
-0.127108
1.66963
-0.105971
1.28983
-0.0803735
1.01189
-0.0535444
0.8046
-0.031908
0.635683
-0.0164791
0.455164
-0.00425768
0.238853
0.0498857
-0.00408511
0.332966
-0.0104634
0.869422
-0.0183106
1.2486
-0.0280346
1.51746
-0.0397556
1.76674
-0.0535652
2.03376
-0.0698302
2.32371
-0.0887889
2.63053
-0.110059
2.94076
-0.132107
3.23212
-0.14699
2.91569
-0.14799
2.18831
-0.135655
1.6573
-0.115422
1.2696
-0.0899422
0.98641
-0.0640371
0.778695
-0.0380614
0.609707
-0.0164591
0.433562
-0.00332779
0.225721
0.0465579
-0.00388925
0.336855
-0.0100721
0.875605
-0.0176618
1.25619
-0.0270288
1.52683
-0.0383422
1.77806
-0.0517896
2.0472
-0.0678646
2.33979
-0.0869656
2.64964
-0.108982
2.96278
-0.132816
3.25595
-0.150648
2.93352
-0.156708
2.19437
-0.151746
1.65233
-0.133149
1.251
-0.104049
0.95731
-0.0634238
0.73807
-0.0230376
0.569321
0.00535686
0.405168
0.0153476
0.215731
0.0619055
-0.00363433
0.34049
-0.00967214
0.881643
-0.0169422
1.26346
-0.025911
1.5358
-0.0367996
1.78894
-0.0498488
2.06025
-0.0656491
2.35559
-0.0846998
2.66869
-0.107368
2.98544
-0.133276
3.28186
-0.155146
2.95539
-0.165905
2.20513
-0.160171
1.6466
-0.144709
1.23554
-0.115803
0.928404
-0.0778277
0.700094
-0.0258157
0.517309
0.0167335
0.362619
0.0121315
0.220333
0.074037
-0.00334388
0.343834
-0.00911482
0.887414
-0.0160925
1.27044
-0.0246541
1.54436
-0.035133
1.79942
-0.0477428
2.07286
-0.0631979
2.37104
-0.0820865
2.68758
-0.105036
3.00839
-0.131827
3.30865
-0.154902
2.97847
-0.16884
2.21907
-0.17487
1.65263
-0.165013
1.22568
-0.139864
0.903256
-0.0886793
0.648909
0.00261627
0.426014
0.114575
0.25066
0.152842
0.182065
0.226879
-0.00312948
0.346963
-0.00876949
0.893054
-0.0155914
1.27726
-0.0240567
1.55282
-0.0346044
1.80997
-0.0475014
2.08576
-0.0636656
2.38721
-0.0839611
2.70787
-0.10948
3.03391
-0.141239
3.34041
-0.172065
3.00929
-0.194763
2.24177
-0.201476
1.65934
-0.194207
1.21841
-0.174679
0.883727
-0.153138
0.627368
-0.173346
0.446222
-0.375633
0.452947
-0.902633
0.709065
0.883889
-1.55964
-0.00296839
0.349932
-0.00827528
0.89836
-0.0148614
1.28385
-0.0230933
1.56105
-0.0334397
1.82032
-0.0462924
2.09861
-0.0626907
2.4036
-0.0836647
2.72884
-0.110757
3.061
-0.145643
3.3753
-0.180727
3.04438
-0.208015
2.26905
-0.235168
1.6865
-0.251293
1.23454
-0.263983
0.896418
-0.339165
0.702549
-0.677843
0.784901
-1.36682
1.14193
-1.98557
1.32781
1.22487
-2.32655
-0.00275296
0.352684
-0.00775642
0.903364
-0.0140464
1.29014
-0.0220153
1.56902
-0.032148
1.83045
-0.0449184
2.11138
-0.0614772
2.42016
-0.083045
2.75041
-0.111724
3.08968
-0.150115
3.41369
-0.191325
3.08559
-0.229651
2.30738
-0.258728
1.71557
-0.279647
1.25546
-0.368029
0.9848
-0.727188
1.06171
-1.46724
1.52495
-2.06467
1.73936
-2.3155
1.57864
1.34511
-2.43573
-0.00246507
0.35515
-0.00715308
0.908052
-0.0131652
1.29615
-0.0208389
1.5767
-0.0306941
1.84031
-0.043336
2.12403
-0.0599765
2.4368
-0.0820927
2.77253
-0.112185
3.11978
-0.153664
3.45517
-0.20225
3.13417
-0.245723
2.35085
-0.29612
1.76597
-0.389795
1.34913
-0.687307
1.28231
-1.37909
1.75349
-1.98885
2.13472
-2.23961
1.99012
-2.35933
1.69835
1.41402
-2.42824
-0.00218029
0.35733
-0.0064935
0.912365
-0.0121694
1.30183
-0.0195159
1.58404
-0.0291436
1.84993
-0.0416148
2.1365
-0.0582687
2.45346
-0.0807961
2.79506
-0.112159
3.15114
-0.156795
3.4998
-0.210464
3.18784
-0.26586
2.40625
-0.322979
1.82309
-0.488706
1.51486
-1.03355
1.82716
-1.72969
2.44964
-2.0787
2.48372
-2.23849
2.14991
-2.32697
1.78683
1.48289
-2.39584
-0.0019927
0.359323
-0.00613034
0.916503
-0.0117649
1.30746
-0.0190507
1.59133
-0.0287719
1.85965
-0.0413397
2.14906
-0.0582773
2.4704
-0.0814545
2.81823
-0.114196
3.18388
-0.161851
3.54746
-0.223685
3.24968
-0.283489
2.46605
-0.377075
1.91667
-0.724279
1.86207
-1.42537
2.52825
-1.93142
2.95569
-2.14459
2.69689
-2.25797
2.26329
-2.3383
1.86716
1.54992
-2.40532
-0.00189909
0.361222
-0.00613553
0.920739
-0.0120037
1.31333
-0.0195863
1.59891
-0.0296924
1.86976
-0.0427206
2.16209
-0.060277
2.48795
-0.0844032
2.84236
-0.118832
3.21831
-0.169682
3.59831
-0.233297
3.31329
-0.3063
2.53906
-0.486591
2.09697
-0.979235
2.35471
-1.61406
3.16307
-1.92445
3.26608
-2.08295
2.85538
-2.20443
2.38477
-2.30177
1.96451
1.61739
-2.36925
-0.00171453
0.362936
-0.00605489
0.92508
-0.0122177
1.31949
-0.020123
1.60682
-0.0305741
1.88021
-0.0440579
2.17558
-0.0622196
2.50611
-0.0872635
2.8674
-0.123181
3.25423
-0.176814
3.65194
-0.247703
3.38418
-0.337167
2.62852
-0.586707
2.34651
-1.18167
2.94968
-1.70662
3.68802
-1.92687
3.48634
-2.08032
3.00882
-2.22055
2.525
-2.34549
2.08945
1.68437
-2.41247
-0.00149673
0.364433
-0.00592144
0.929504
-0.0123246
1.32589
-0.0206058
1.6151
-0.0314665
1.89107
-0.0453953
2.18951
-0.0641129
2.52483
-0.0900128
2.8933
-0.127429
3.29164
-0.1836
3.70811
-0.257607
3.45819
-0.380657
2.75157
-0.714941
2.68079
-1.32315
3.55788
-1.717
4.08186
-1.91038
3.67972
-2.03158
3.13002
-2.14147
2.63489
-2.22314
2.17112
1.682
-2.22078
-0.00115485
0.365588
-0.00556877
0.933918
-0.0122054
1.33253
-0.0209096
1.6238
-0.0321395
1.9023
-0.0465103
2.20388
-0.0658334
2.54415
-0.0925473
2.92002
-0.13126
3.33035
-0.190215
3.76707
-0.27034
3.53831
-0.415612
2.89684
-0.813161
3.07834
-1.37682
4.12155
-1.67183
4.37687
-1.85777
3.86566
-1.97129
3.24354
-1.98668
2.65028
-1.94598
2.13042
1.68792
-1.95189
-0.000810565
0.366398
-0.0051979
0.938306
-0.0119667
1.3393
-0.0210493
1.63289
-0.0324967
1.91375
-0.0469935
2.21837
-0.0663515
2.56351
-0.0930013
2.94667
-0.131635
3.36899
-0.190469
3.8259
-0.274922
3.62276
-0.459313
3.08123
-0.879742
3.49877
-1.34197
4.58377
-1.54542
4.58032
-1.63558
3.95582
-1.6617
3.26966
-1.53395
2.52253
-1.05371
1.65017
0.634213
-0.000295135
0.366693
-0.00424538
0.942256
-0.0112729
1.34633
-0.020878
1.64249
-0.0328417
1.92571
-0.048173
2.2337
-0.0687988
2.58414
-0.0972555
2.97512
-0.13864
3.41037
-0.202289
3.88955
-0.296938
3.71741
-0.503591
3.28789
-0.97783
3.97301
-1.38764
4.99359
-1.51385
4.70653
-1.53208
3.97405
-1.45442
3.192
-1.23975
2.30787
-0.684148
1.09457
-0.049935
0.000346009
0.366347
-0.00322823
0.94583
-0.0104359
1.35354
-0.020455
1.65251
-0.032786
1.93804
-0.0487879
2.24971
-0.0704847
2.60584
-0.100553
3.00519
-0.144686
3.45451
-0.213869
3.95873
-0.32576
3.8293
-0.581449
3.54357
-1.08476
4.47632
-1.40174
5.31056
-1.48703
4.79182
-1.48205
3.96907
-1.31161
3.02156
-0.84565
1.84191
-0.142978
0.391894
-0.192913
0.00151887
0.364829
-0.000880391
0.948229
-0.0087053
1.36136
-0.0189874
1.66279
-0.0315755
1.95063
-0.0481901
2.26632
-0.0707188
2.62836
-0.101975
3.03645
-0.148366
3.5009
-0.221953
4.03232
-0.341501
3.94885
-0.62399
3.82606
-1.13288
4.98521
-1.36706
5.54475
-1.41519
4.83994
-1.36701
3.92089
-1.10069
2.75524
-0.403144
1.14437
0.027291
-0.0385411
-0.165622
0.00234733
0.362481
0.000723983
0.949853
-0.00686079
1.36894
-0.0170385
1.67297
-0.0296931
1.96329
-0.046665
2.28329
-0.0696032
2.6513
-0.101713
3.06856
-0.149585
3.54877
-0.227946
4.11068
-0.367983
4.08889
-0.684831
4.14291
-1.16351
5.46389
-1.32368
5.70492
-1.34702
4.86328
-1.21068
3.78455
-0.801394
2.34595
-0.132968
0.475942
0.0303272
-0.201837
-0.135295
0.00372713
0.358754
0.00310829
0.950471
-0.00351278
1.37557
-0.0132875
1.68274
-0.0258883
1.97589
-0.0430605
2.30047
-0.065966
2.67421
-0.0982642
3.10086
-0.146057
3.59656
-0.224832
4.18946
-0.372155
4.23621
-0.706463
4.47722
-1.13186
5.88929
-1.24435
5.81741
-1.2397
4.85863
-1.01463
3.55948
-0.462971
1.79429
-0.00681647
0.019788
0.0235994
-0.232253
-0.111695
0.00504302
0.353711
0.00584996
0.949665
0.000188664
1.38123
-0.00872316
1.69166
-0.020884
1.98805
-0.0374895
2.31707
-0.0591211
2.69584
-0.0899618
3.1317
-0.135968
3.64257
-0.215201
4.26869
-0.373817
4.39483
-0.712162
4.81557
-1.05179
6.22892
-1.13952
5.90514
-1.11923
4.83834
-0.845948
3.2862
-0.231026
1.17937
-0.0243336
-0.186905
-0.00231072
-0.254275
-0.114006
0.00727986
0.346431
0.0104876
0.946457
0.00689744
1.38482
-0.000668625
1.69922
-0.012988
2.00037
-0.0281424
2.33223
-0.0483116
2.71601
-0.0789079
3.16229
-0.124628
3.68829
-0.201842
4.3459
-0.363363
4.55635
-0.677127
5.12933
-0.93677
6.48856
-1.00333
5.9717
-0.938308
4.77332
-0.617086
2.96498
-0.0653726
0.627656
-0.00964117
-0.242636
0.00296971
-0.266886
-0.111036
0.00949955
0.336932
0.0153485
0.940608
0.0134001
1.38677
0.00684803
1.70577
-0.00339913
2.01061
-0.0155738
2.3444
-0.0334394
2.73387
-0.0616113
3.19047
-0.103706
3.73038
-0.164608
4.4068
-0.314341
4.70608
-0.582658
5.39765
-0.770386
6.67629
-0.839532
6.04084
-0.824203
4.75799
-0.53019
2.67097
-0.169073
0.266539
-0.122187
-0.289522
-0.0507932
-0.33828
-0.161829
0.0126092
0.324322
0.0222779
0.930939
0.0229782
1.38607
0.0189537
1.7098
0.0124762
2.01709
0.00282403
2.35405
-0.0113195
2.74802
-0.0312051
3.21035
-0.0620781
3.76126
-0.107189
4.45191
-0.240345
4.83924
-0.439263
5.59656
-0.566867
6.80389
-0.640577
6.11455
-0.694007
4.81142
-0.615231
2.59219
-0.55903
0.210338
-0.409643
-0.438909
-0.199059
-0.548864
-0.360888
0.0152168
0.309106
0.0289494
0.917207
0.0338476
1.38117
0.0339643
1.70968
0.0307387
2.02032
0.0263012
2.35849
0.0184892
2.75583
0.00388115
3.22496
-0.0189975
3.78413
-0.0640269
4.49694
-0.147436
4.92265
-0.215257
5.66438
-0.281698
6.87033
-0.32411
6.15696
-0.339663
4.82697
-0.419671
2.6722
-0.643153
0.433821
-0.543354
-0.538708
-0.281625
-0.810593
-0.642514
0.0190083
0.290097
0.038587
0.897628
0.0486865
1.37107
0.0534685
1.7049
0.0551053
2.01868
0.0572053
2.35639
0.0561838
2.75685
0.0470801
3.23406
0.0251573
3.80606
-0.0262596
4.54836
-0.0197006
4.91609
0.0547061
5.58998
0.135082
6.78996
0.271059
6.02099
0.397788
4.70024
0.235077
2.83491
-0.165408
0.834306
-0.345947
-0.35817
-0.223182
-0.933358
-0.865696
0.0216079
0.268489
0.0468742
0.872361
0.0636337
1.35431
0.0751051
1.69343
0.084297
2.00949
0.0944073
2.34628
0.10458
2.74668
0.107951
3.23069
0.0966451
3.81736
0.050143
4.59486
0.120813
4.84542
0.400631
5.31016
0.69928
6.49131
1.02393
5.69634
1.27799
4.44618
1.14503
2.96787
0.706789
1.27255
0.275612
0.0730069
0.0684108
-0.726156
-0.797285
0.0247103
0.243779
0.0578987
0.839173
0.0825868
1.32962
0.102077
1.67394
0.121122
1.99044
0.143286
2.32412
0.169653
2.72031
0.193932
3.20641
0.212326
3.79897
0.187518
4.61967
0.23377
4.79916
0.636392
4.90754
1.06618
6.06152
1.36838
5.39414
1.53843
4.27612
1.48945
3.01686
1.11806
1.64394
0.735912
0.455154
0.311141
-0.301385
-0.486144
0.0257676
0.218011
0.064842
0.800099
0.0991723
1.29529
0.130174
1.64294
0.16256
1.95806
0.201607
2.28507
0.248149
2.67377
0.305691
3.14887
0.37384
3.73082
0.435689
4.55782
0.483741
4.75111
0.750981
4.6403
1.22827
5.58424
1.50065
5.12176
1.63544
4.14133
1.56542
3.08687
1.22162
1.98774
0.784015
0.892761
0.339432
0.143198
-0.146712
0.0281383
0.189873
0.0731761
0.755061
0.117208
1.25126
0.16111
1.59903
0.208555
1.91061
0.266577
2.22705
0.341321
2.59902
0.44875
3.04144
0.617146
3.56242
0.815253
4.35972
0.832654
4.73371
0.841805
4.63115
1.16345
5.26259
1.30207
4.98313
1.34148
4.10192
1.26214
3.16622
1.03481
2.21506
0.670524
1.25705
0.288502
0.52522
0.14179
0.0293069
0.160566
0.0775903
0.706777
0.130392
1.19846
0.18702
1.54241
0.252015
1.84562
0.333318
2.14574
0.446965
2.48538
0.626833
2.86157
0.906717
3.28254
1.17628
4.09015
1.16999
4.74
0.956606
4.84453
1.00937
5.20983
1.04232
4.95018
1.04166
4.10259
0.944419
3.26345
0.721658
2.43783
0.473812
1.5049
0.199576
0.799456
0.341366
0.033462
0.127104
0.0807516
0.659488
0.139775
1.13943
0.209073
1.47311
0.290195
1.7645
0.39527
2.04067
0.548465
2.33218
0.791871
2.61817
1.12981
2.9446
1.47549
3.74447
1.52022
4.69527
1.16327
5.20149
1.03309
5.34001
0.965765
5.0175
0.79397
4.27438
0.561962
3.49546
0.393382
2.60641
0.287454
1.61082
0.10807
0.97884
0.449436
0.0422169
0.0848874
0.093354
0.608351
0.152553
1.08023
0.223661
1.402
0.31181
1.67635
0.427188
1.92529
0.58816
2.17121
0.822868
2.38346
1.13393
2.63354
1.52372
3.35468
1.61904
4.59995
1.23435
5.58618
0.893521
5.68084
0.590316
5.32071
0.271134
4.59356
0.121333
3.64526
0.161228
2.56651
0.130851
1.6412
0.0339832
1.07571
0.483419
0.0470988
0.0377886
0.116699
0.538751
0.175617
1.02132
0.235936
1.34168
0.309261
1.60302
0.393891
1.84066
0.494685
2.07042
0.605893
2.27225
0.727866
2.51156
0.857527
3.22502
0.83848
4.619
0.434229
5.99043
0.021223
6.09385
-0.188585
5.53051
-0.225491
4.63047
-0.10922
3.52899
0.0578739
2.39942
0.044446
1.65463
0.00104625
1.11911
0.484466
0.0264657
0.0113229
0.0817035
0.483513
0.125105
0.977914
0.162837
1.30395
0.200038
1.56582
0.223082
1.81762
0.222154
2.07134
0.17321
2.3212
0.0699263
2.61485
-0.110474
3.40542
-0.305116
4.81364
-0.559618
6.24493
-0.62039
6.15462
-0.550684
5.46081
-0.326296
4.40608
-0.10891
3.31161
0.00823084
2.28228
0.00982744
1.65303
-0.00521036
1.13415
0.479255
-0.00491902
0.016242
0.00602307
0.472571
0.0112415
0.972695
0.0115019
1.30369
0.00410515
1.57322
-0.0224134
1.84414
-0.0887092
2.13764
-0.218136
2.45062
-0.440144
2.83685
-0.741869
3.70715
-1.04319
5.11496
-1.13937
6.34111
-1.0165
6.03176
-0.780501
5.2248
-0.41623
4.04181
-0.140782
3.03616
-0.043039
2.18453
-0.0288314
1.63883
-0.0220327
1.12735
0.457222
-0.0238931
0.040135
-0.0418947
0.490572
-0.0638245
0.994625
-0.0926192
1.33248
-0.134373
1.61497
-0.201699
1.91146
-0.31444
2.25038
-0.500805
2.63699
-0.790956
3.127
-1.14892
4.06511
-1.41963
5.38567
-1.34115
6.26263
-1.06941
5.76001
-0.704089
4.85949
-0.345364
3.68309
-0.120578
2.81137
-0.0551407
2.1191
-0.0439177
1.6276
-0.0292442
1.11267
0.427978
-0.0332775
0.0734126
-0.0687065
0.526001
-0.103929
1.02985
-0.151277
1.37983
-0.216432
1.68013
-0.308264
2.00329
-0.444913
2.38703
-0.653436
2.84551
-0.961016
3.43458
-1.31454
4.41864
-1.47057
5.5417
-1.26486
6.05691
-0.910545
5.4057
-0.514201
4.46314
-0.243322
3.41221
-0.0970673
2.66512
-0.0611129
2.08314
-0.0527408
1.61923
-0.0323023
1.09223
0.395676
-0.0354482
0.108861
-0.0797022
0.570255
-0.119604
1.06975
-0.173134
1.43336
-0.248096
1.75509
-0.350072
2.10527
-0.490651
2.52761
-0.691875
3.04674
-0.976603