/*--------------------------------*- C++ -*----------------------------------*\
| =========                 |                                                 |
| \\      /  F ield         | OpenFOAM: The Open Source CFD Toolbox           |
|  \\    /   O peration     | Version:  4.0                                   |
|   \\  /    A nd           | Web:      www.OpenFOAM.org                      |
|    \\/     M anipulation  |                                                 |
\*---------------------------------------------------------------------------*/
FoamFile
{
    version     2.0;
    format      ascii;
    class       volVectorField;
    location    "15";
    object      U;
}
// * * * * * * * * * * * * * * * * * * * * * * * * * * * * * * * * * * * * * //

dimensions      [0 1 -1 0 0 0 0];

internalField   nonuniform List<vector> 
2200
(
(0.878441 -0.030273 0)
(1.00564 -0.0512675 0)
(1.00303 -0.0352214 0)
(1.00011 -0.0242088 0)
(0.999529 -0.0163017 0)
(0.999632 -0.0103325 0)
(0.999925 -0.00646522 0)
(1.0002 -0.00390398 0)
(1.00024 -0.00210745 0)
(1.00014 -0.000680259 0)
(1.00008 0.000834693 0)
(1.00026 0.00233379 0)
(1.00022 0.00409713 0)
(0.999915 0.00661662 0)
(0.999614 0.0104212 0)
(0.999513 0.0163687 0)
(1.00011 0.0242627 0)
(1.00306 0.0352709 0)
(1.00565 0.0512799 0)
(0.878438 0.0302916 0)
(0.713164 -0.0327847 0)
(0.996871 -0.0626407 0)
(1.03399 -0.0559047 0)
(1.02555 -0.0462873 0)
(1.01667 -0.0360369 0)
(1.00993 -0.0261094 0)
(1.00559 -0.0181361 0)
(1.00318 -0.0117212 0)
(1.00201 -0.00636167 0)
(1.00195 -0.00183741 0)
(1.00186 0.00248322 0)
(1.00196 0.00687426 0)
(1.00307 0.0121352 0)
(1.00545 0.0184585 0)
(1.00982 0.0264424 0)
(1.01659 0.0363224 0)
(1.02546 0.0465183 0)
(1.03384 0.0560538 0)
(0.996754 0.0627856 0)
(0.713021 0.0328121 0)
(0.535948 -0.0238618 0)
(0.970646 -0.0565817 0)
(1.05568 -0.0540227 0)
(1.05157 -0.048198 0)
(1.03609 -0.0401417 0)
(1.0247 -0.0321897 0)
(1.01627 -0.0238434 0)
(1.01074 -0.0156683 0)
(1.00759 -0.00856439 0)
(1.0061 -0.00232364 0)
(1.0061 0.00325435 0)
(1.00747 0.00948038 0)
(1.01056 0.0164808 0)
(1.01615 0.0246501 0)
(1.02456 0.0328382 0)
(1.03593 0.0406788 0)
(1.05139 0.0486206 0)
(1.05547 0.0543838 0)
(0.970206 0.0567847 0)
(0.535315 0.0239258 0)
(0.395202 -0.0128836 0)
(0.913814 -0.0451546 0)
(1.05868 -0.045373 0)
(1.06889 -0.0419307 0)
(1.05374 -0.0357229 0)
(1.03882 -0.0297391 0)
(1.02731 -0.023444 0)
(1.01892 -0.0166463 0)
(1.01366 -0.00961395 0)
(1.01109 -0.00262805 0)
(1.01093 0.00407845 0)
(1.01336 0.0110225 0)
(1.01859 0.0179293 0)
(1.02686 0.0244608 0)
(1.03829 0.0306207 0)
(1.05317 0.0364275 0)
(1.06827 0.0424837 0)
(1.0579 0.0457745 0)
(0.912762 0.0453924 0)
(0.393997 0.0129462 0)
(0.315894 -0.00379163 0)
(0.853171 -0.0305223 0)
(1.05221 -0.0370991 0)
(1.08042 -0.0352485 0)
(1.06798 -0.0300194 0)
(1.05143 -0.0248525 0)
(1.03786 -0.0200273 0)
(1.02738 -0.0149548 0)
(1.02015 -0.00921959 0)
(1.01631 -0.00260232 0)
(1.0162 0.00458125 0)
(1.01985 0.0109423 0)
(1.0268 0.0164182 0)
(1.03715 0.0213541 0)
(1.05065 0.0259099 0)
(1.06715 0.030937 0)
(1.07951 0.0360191 0)
(1.05102 0.0376882 0)
(0.851394 0.0308292 0)
(0.314121 0.00385256 0)
(0.276078 0.000476504 0)
(0.798628 -0.0179123 0)
(1.03786 -0.0284074 0)
(1.08547 -0.028772 0)
(1.0777 -0.0251531 0)
(1.06069 -0.0203404 0)
(1.04739 -0.016011 0)
(1.0369 -0.0118235 0)
(1.02882 -0.00715457 0)
(1.02425 -0.00181422 0)
(1.02404 0.00447922 0)
(1.02826 0.00951632 0)
(1.03606 0.0139013 0)
(1.0464 0.0177855 0)
(1.05959 0.0219307 0)
(1.07658 0.0264649 0)
(1.08413 0.0298463 0)
(1.03588 0.0291992 0)
(0.795666 0.0182728 0)
(0.273614 -0.0003937 0)
(0.257323 0.00155776 0)
(0.754934 -0.00883049 0)
(1.01962 -0.0194216 0)
(1.08495 -0.0211826 0)
(1.08221 -0.0196255 0)
(1.06602 -0.0163219 0)
(1.0523 -0.0132086 0)
(1.04165 -0.00968834 0)
(1.03391 -0.00547337 0)
(1.02977 -0.000920161 0)
(1.02941 0.00430305 0)
(1.03298 0.00869612 0)
(1.04032 0.0126037 0)
(1.05071 0.0157173 0)
(1.06428 0.0182896 0)
(1.08027 0.0212199 0)
(1.08266 0.0223983 0)
(1.01647 0.0202388 0)
(0.750617 0.00919994 0)
(0.254071 -0.00144664 0)
(0.251884 0.00136414 0)
(0.726691 -0.00255914 0)
(1.00252 -0.0103349 0)
(1.08015 -0.0125921 0)
(1.08158 -0.013012 0)
(1.06662 -0.0120418 0)
(1.05296 -0.0107012 0)
(1.04267 -0.00804953 0)
(1.03546 -0.00442945 0)
(1.03168 -0.000139646 0)
(1.03123 0.00434996 0)
(1.0343 0.00836697 0)
(1.04098 0.0114818 0)
(1.0507 0.0133433 0)
(1.06416 0.0142807 0)
(1.07883 0.0148005 0)
(1.07686 0.0139582 0)
(0.998135 0.011236 0)
(0.72124 0.00296709 0)
(0.247651 -0.00124759 0)
(0.252621 0.000992635 0)
(0.713815 0.000428378 0)
(0.990091 -0.00389438 0)
(1.07413 -0.0062371 0)
(1.079 -0.007675 0)
(1.06618 -0.00836657 0)
(1.05346 -0.0081558 0)
(1.04406 -0.00635127 0)
(1.03727 -0.00345391 0)
(1.0335 0.000570134 0)
(1.03293 0.00464594 0)
(1.03578 0.00824441 0)
(1.04197 0.0105637 0)
(1.05081 0.0118333 0)
(1.06311 0.0113891 0)
(1.0754 0.0100471 0)
(1.06988 0.00807483 0)
(0.984463 0.00513759 0)
(0.706622 0.000175838 0)
(0.247499 -0.000816777 0)
(0.255538 0.000416074 0)
(0.709947 0.000719844 0)
(0.983164 -0.00147762 0)
(1.06978 -0.00377397 0)
(1.07729 -0.00539938 0)
(1.06713 -0.00642531 0)
(1.05643 -0.00626559 0)
(1.0479 -0.00481357 0)
(1.04153 -0.00233156 0)
(1.03761 0.00139747 0)
(1.03668 0.0051465 0)
(1.03909 0.00843781 0)
(1.04444 0.0103332 0)
(1.05237 0.0110509 0)
(1.06242 0.0103126 0)
(1.07222 0.00852373 0)
(1.06396 0.00616663 0)
(0.975659 0.00305694 0)
(0.700777 -1.38911e-05 0)
(0.248723 -0.000193746 0)
(0.256998 1.45301e-05 0)
(0.708992 0.000480126 0)
(0.979228 -0.000782814 0)
(1.06591 -0.00302857 0)
(1.07509 -0.0047229 0)
(1.06713 -0.00558984 0)
(1.05863 -0.00531401 0)
(1.05164 -0.00362297 0)
(1.04626 -0.00104587 0)
(1.04264 0.0026183 0)
(1.04142 0.00614048 0)
(1.04297 0.00912473 0)
(1.04678 0.0106402 0)
(1.05236 0.0110706 0)
(1.06105 0.010396 0)
(1.06833 0.00850733 0)
(1.058 0.00593135 0)
(0.968831 0.00274112 0)
(0.697087 0.000522992 0)
(0.24849 7.91795e-05 0)
(0.257992 0.000123337 0)
(0.70906 0.000614583 0)
(0.974914 5.04661e-05 0)
(1.06128 -0.00192851 0)
(1.07183 -0.00358485 0)
(1.0661 -0.00465024 0)
(1.05889 -0.00412825 0)
(1.05292 -0.00244256 0)
(1.04814 0.000242278 0)
(1.04472 0.00382675 0)
(1.04341 0.0072489 0)
(1.04431 0.0100011 0)
(1.04701 0.0111301 0)
(1.05185 0.0112826 0)
(1.05815 0.010381 0)
(1.06291 0.00813879 0)
(1.05094 0.00533684 0)
(0.962158 0.00227862 0)
(0.693392 0.000582875 0)
(0.24716 0.000121822 0)
(0.259663 0.000319341 0)
(0.709898 0.000909999 0)
(0.972364 0.00124748 0)
(1.05706 -9.09966e-05 0)
(1.06872 -0.00135008 0)
(1.06489 -0.00224108 0)
(1.05926 -0.00184004 0)
(1.0541 -0.000408941 0)
(1.04964 0.00203199 0)
(1.0461 0.00520775 0)
(1.04439 0.00831315 0)
(1.04479 0.0105289 0)
(1.0469 0.0113411 0)
(1.05042 0.0111756 0)
(1.05453 0.00978674 0)
(1.05718 0.00738236 0)
(1.04385 0.00456684 0)
(0.956028 0.00182928 0)
(0.690181 0.000509961 0)
(0.245873 0.000121966 0)
(0.26197 0.00030292 0)
(0.71211 0.00111358 0)
(0.972304 0.00192956 0)
(1.05483 0.00122706 0)
(1.06736 0.0005862 0)
(1.0651 0.000142668 0)
(1.06094 0.000766898 0)
(1.05667 0.00217708 0)
(1.05253 0.00444975 0)
(1.04879 0.0072168 0)
(1.04641 0.00983866 0)
(1.04597 0.0113249 0)
(1.04687 0.0117021 0)
(1.04911 0.0107959 0)
(1.05155 0.00913481 0)
(1.05237 0.00679504 0)
(1.03792 0.00424612 0)
(0.951065 0.00191874 0)
(0.687428 0.00071306 0)
(0.244581 0.000189425 0)
(0.264821 0.00030919 0)
(0.71608 0.00139132 0)
(0.973199 0.00234954 0)
(1.05445 0.00258919 0)
(1.06696 0.00251134 0)
(1.06579 0.00273437 0)
(1.06274 0.00360204 0)
(1.05919 0.00508378 0)
(1.05533 0.00721385 0)
(1.05138 0.00963184 0)
(1.04822 0.0116816 0)
(1.04668 0.0124807 0)
(1.04644 0.0122112 0)
(1.04733 0.0109562 0)
(1.04841 0.00915423 0)
(1.04796 0.00689965 0)
(1.03279 0.0045956 0)
(0.946428 0.00248177 0)
(0.683975 0.00110656 0)
(0.242537 0.000290557 0)
(0.267721 0.000360343 0)
(0.71982 0.00155045 0)
(0.975275 0.00282806 0)
(1.05547 0.00342541 0)
(1.06803 0.00408112 0)
(1.06725 0.00498527 0)
(1.06462 0.00644475 0)
(1.06132 0.00831353 0)
(1.05742 0.01055 0)
(1.05308 0.0127687 0)
(1.04918 0.0142182 0)
(1.04657 0.0143304 0)
(1.04543 0.013238 0)
(1.045 0.011665 0)
(1.04507 0.00947839 0)
(1.04369 0.00713974 0)
(1.02802 0.00490165 0)
(0.941869 0.00290795 0)
(0.679968 0.00137492 0)
(0.239883 0.000341091 0)
(0.271972 0.000531252 0)
(0.726101 0.00211901 0)
(0.979359 0.00405575 0)
(1.05763 0.00543523 0)
(1.07004 0.00667266 0)
(1.06953 0.00810042 0)
(1.06704 0.00985329 0)
(1.06365 0.011963 0)
(1.05935 0.0142571 0)
(1.05422 0.0163012 0)
(1.0492 0.0172175 0)
(1.04534 0.0166638 0)
(1.04308 0.0149912 0)
(1.04173 0.012915 0)
(1.04096 0.0105091 0)
(1.03896 0.00811851 0)
(1.02291 0.00583476 0)
(0.936536 0.00368553 0)
(0.674586 0.00173989 0)
(0.236398 0.000424693 0)
(0.276618 0.000673059 0)
(0.732166 0.00254714 0)
(0.984226 0.00488979 0)
(1.06152 0.00676035 0)
(1.07345 0.00882636 0)
(1.07277 0.0110929 0)
(1.07008 0.0137088 0)
(1.06633 0.0164197 0)
(1.06137 0.019035 0)
(1.05521 0.0210108 0)
(1.04891 0.021405 0)
(1.04387 0.0200763 0)
(1.04059 0.0177197 0)
(1.03844 0.0149048 0)
(1.03699 0.0119526 0)
(1.03439 0.00913429 0)
(1.01774 0.00652887 0)
(0.930676 0.0042037 0)
(0.66855 0.00204754 0)
(0.232407 0.000499853 0)
(0.28392 0.000895387 0)
(0.742652 0.00357279 0)
(0.99186 0.00681424 0)
(1.06695 0.00955791 0)
(1.07836 0.0120237 0)
(1.07746 0.0149435 0)
(1.07435 0.0180586 0)
(1.06988 0.0213931 0)
(1.06389 0.0244715 0)
(1.05627 0.0265348 0)
(1.04827 0.0265259 0)
(1.04173 0.0244264 0)
(1.03718 0.0213147 0)
(1.03403 0.017835 0)
(1.0318 0.0144698 0)
(1.02867 0.0113275 0)
(1.01157 0.00844233 0)
(0.923793 0.00560675 0)
(0.660843 0.00267681 0)
(0.227209 0.000635364 0)
(0.291757 0.00119068 0)
(0.753254 0.00422571 0)
(1.00049 0.00817372 0)
(1.07413 0.0116131 0)
(1.08478 0.0154161 0)
(1.08331 0.0194558 0)
(1.0794 0.0237279 0)
(1.07384 0.0279236 0)
(1.06634 0.0315363 0)
(1.05684 0.0336803 0)
(1.0468 0.0331689 0)
(1.0386 0.0301799 0)
(1.03282 0.0261322 0)
(1.02882 0.0217333 0)
(1.02602 0.0174594 0)
(1.02236 0.0135063 0)
(1.00427 0.00982598 0)
(0.9147 0.00646491 0)
(0.651021 0.00315104 0)
(0.220976 0.000768491 0)
(0.304128 0.00156503 0)
(0.769859 0.00614805 0)
(1.01307 0.0113937 0)
(1.08363 0.016045 0)
(1.09322 0.0202375 0)
(1.09089 0.0253118 0)
(1.08588 0.0305478 0)
(1.07882 0.035709 0)
(1.0694 0.04007 0)
(1.05757 0.0423405 0)
(1.04512 0.0412866 0)
(1.03493 0.0373036 0)
(1.02763 0.032098 0)
(1.0225 0.0266385 0)
(1.01888 0.0215007 0)
(1.01457 0.0168385 0)
(0.995835 0.012686 0)
(0.905155 0.00852473 0)
(0.640062 0.00408538 0)
(0.213283 0.000934631 0)
(0.318097 0.00218695 0)
(0.78903 0.00719821 0)
(1.02814 0.0139526 0)
(1.09594 0.0198033 0)
(1.10432 0.0261362 0)
(1.10062 0.0329762 0)
(1.09392 0.0396576 0)
(1.0846 0.0461309 0)
(1.07252 0.0511836 0)
(1.05765 0.0534665 0)
(1.04221 0.0516091 0)
(1.02964 0.046364 0)
(1.02061 0.0398403 0)
(1.01427 0.0330988 0)
(1.00978 0.0267054 0)
(1.0047 0.0207757 0)
(0.984316 0.0151417 0)
(0.890456 0.00995367 0)
(0.623916 0.0047534 0)
(0.203583 0.00113532 0)
(0.339508 0.00313156 0)
(0.815246 0.0113876 0)
(1.0484 0.0198978 0)
(1.11157 0.027628 0)
(1.11812 0.034837 0)
(1.11257 0.0432953 0)
(1.10345 0.0516148 0)
(1.09134 0.0591944 0)
(1.07595 0.0647598 0)
(1.05755 0.0667402 0)
(1.03879 0.0637607 0)
(1.02363 0.0569484 0)
(1.01275 0.0487451 0)
(1.00508 0.0404207 0)
(0.999583 0.0325563 0)
(0.993546 0.0255741 0)
(0.972048 0.0193623 0)
(0.876595 0.0130206 0)
(0.60835 0.00623052 0)
(0.192534 0.00136038 0)
(0.368556 0.00433306 0)
(0.852182 0.0135029 0)
(1.07466 0.0260232 0)
(1.13169 0.035709 0)
(1.13616 0.0468017 0)
(1.12726 0.0575965 0)
(1.11478 0.067682 0)
(1.09879 0.0763919 0)
(1.0793 0.0822882 0)
(1.05666 0.0835515 0)
(1.03397 0.0790345 0)
(1.01573 0.0703677 0)
(1.00254 0.0603837 0)
(0.993093 0.0503934 0)
(0.986254 0.0410154 0)
(0.97892 0.0320699 0)
(0.954611 0.0235206 0)
(0.853266 0.0154462 0)
(0.582001 0.00708319 0)
(0.177412 0.00153992 0)
(0.404382 0.00854932 0)
(0.895216 0.0236375 0)
(1.10884 0.0381632 0)
(1.15805 0.0513335 0)
(1.15771 0.0649666 0)
(1.14448 0.077585 0)
(1.12734 0.0891825 0)
(1.10643 0.0984193 0)
(1.08206 0.1037 0)
(1.05453 0.103514 0)
(1.02761 0.0968138 0)
(1.00617 0.0857498 0)
(0.990691 0.0735278 0)
(0.979513 0.0614101 0)
(0.971143 0.0499566 0)
(0.962208 0.0397186 0)
(0.935765 0.0300324 0)
(0.832863 0.020221 0)
(0.560584 0.00966257 0)
(0.163766 0.00168417 0)
(0.489789 0.012117 0)
(0.968602 0.0330791 0)
(1.15392 0.0574253 0)
(1.18995 0.0739863 0)
(1.18342 0.0914354 2.79068e-35)
(1.16357 0.10591 -3.01103e-35)
(1.14041 0.117952 0)
(1.11379 0.126399 0)
(1.08378 0.130115 0)
(1.05104 0.127566 0)
(1.0197 0.117941 0)
(0.994864 0.104125 0)
(0.976735 0.0896298 0)
(0.963384 0.0757502 0)
(0.953168 0.0627919 0)
(0.941922 0.0503879 0)
(0.910713 0.0384654 0)
(0.796092 0.0258654 0)
(0.51219 0.0109796 0)
(0.137133 0.00158601 0)
(0.552401 0.0275194 -1.20297e-20)
(1.05185 0.0580466 8.37072e-21)
(1.20421 0.0895616 0)
(1.2258 0.110079 -1.26656e-21)
(1.20962 0.13045 1.02607e-21)
(1.18249 0.144145 3.17674e-35)
(1.15281 0.154826 0)
(1.11973 0.161655 3.86424e-21)
(1.08346 0.163245 -1.4227e-20)
(1.04475 0.157795 3.21794e-21)
(1.00807 0.145105 0)
(0.978934 0.128555 -1.12049e-20)
(0.9573 0.111724 -1.41701e-20)
(0.940878 0.0955093 2.49579e-20)
(0.927685 0.0803996 -2.01428e-20)
(0.912735 0.0663715 0)
(0.874122 0.0514207 -7.84856e-21)
(0.747348 0.0352892 0)
(0.468777 0.0195431 -4.24173e-20)
(0.119994 0.00319014 5.04005e-20)
(0.574227 0.0540668 2.08085e-22)
(1.0974 0.103938 -5.8461e-20)
(1.24586 0.141971 1.37385e-20)
(1.25847 0.160094 2.44935e-20)
(1.23322 0.178563 3.01274e-21)
(1.19938 0.189779 -4.14569e-21)
(1.16286 0.198975 0)
(1.123 0.203999 0)
(1.0804 0.203271 2.20464e-20)
(1.03538 0.195257 0)
(0.992852 0.18 3.79197e-20)
(0.958626 0.161261 1.20209e-20)
(0.932454 0.142959 3.96017e-22)
(0.911839 0.126046 -2.81056e-20)
(0.894601 0.110378 0)
(0.875791 0.0961445 0)
(0.836082 0.0819867 -1.33703e-19)
(0.71852 0.0641292 3.37049e-19)
(0.457525 0.0366646 -2.00373e-19)
(0.122449 0.0118018 -2.39524e-19)
(0.575226 0.0851984 9.25108e-20)
(1.12423 0.163699 -2.73424e-20)
(1.27666 0.207228 -7.68665e-21)
(1.28483 0.220922 -4.60472e-20)
(1.2527 0.234731 1.35774e-20)
(1.21252 0.241978 1.66064e-20)
(1.16949 0.248243 -1.30391e-21)
(1.12354 0.25009 0)
(1.07506 0.246162 -4.50637e-20)
(1.0239 0.235121 5.37345e-20)
(0.975556 0.217133 -1.03879e-19)
(0.936337 0.196857 5.11113e-20)
(0.906225 0.178132 -3.88014e-20)
(0.882199 0.161458 8.45406e-20)
(0.86198 0.146929 0)
(0.841107 0.133173 -3.36674e-20)
(0.802557 0.119858 0)
(0.695342 0.0986686 1.94478e-19)
(0.456839 0.062754 -4.61752e-19)
(0.136303 0.020304 2.90194e-19)
(0.560305 0.115996 -4.23754e-19)
(1.13594 0.224789 1.6981e-19)
(1.2954 0.277169 2.74428e-20)
(1.30268 0.286178 0)
(1.26572 0.295595 2.71745e-20)
(1.22061 0.298675 -3.05402e-20)
(1.17237 0.300849 1.65152e-21)
(1.12137 0.298692 0)
(1.06754 0.291185 3.16476e-20)
(1.01105 0.276974 -3.66391e-20)
(0.958083 0.256491 9.11684e-20)
(0.915153 0.234593 0)
(0.8816 0.214951 -8.13854e-20)
(0.854807 0.198055 4.47415e-20)
(0.833115 0.183949 1.23084e-19)
(0.812349 0.170885 -1.08205e-19)
(0.77667 0.156509 1.80721e-19)
(0.680433 0.133379 -4.02652e-19)
(0.459982 0.0887192 2.56191e-19)
(0.145613 0.0298294 -3.22464e-19)
(0.540128 0.14068 2.56696e-19)
(1.13475 0.281008 -1.89014e-19)
(1.30432 0.345579 8.60305e-20)
(1.31239 0.351901 -1.21018e-19)
(1.27182 0.358078 8.38951e-20)
(1.22337 0.357029 -1.54487e-20)
(1.17135 0.354935 3.75351e-21)
(1.11622 0.348627 -1.47104e-20)
(1.05767 0.337439 -3.06627e-20)
(0.996379 0.319679 -7.82398e-20)
(0.938622 0.295893 -1.96557e-19)
(0.892024 0.272024 -6.74062e-20)
(0.857519 0.251825 2.8386e-21)
(0.830976 0.234334 -1.61489e-19)
(0.809165 0.219646 -6.25263e-21)
(0.789105 0.207397 1.58566e-19)
(0.756672 0.192033 -4.9493e-20)
(0.668786 0.167732 -2.91904e-20)
(0.458892 0.113427 0)
(0.149 0.0384606 6.88048e-19)
(0.519904 0.163458 0)
(1.12551 0.333341 5.7504e-20)
(1.30558 0.410176 4.03058e-20)
(1.31498 0.41565 -1.20692e-20)
(1.27186 0.419876 -9.98033e-20)
(1.22134 0.415031 2.64854e-20)
(1.16666 0.408985 -5.90673e-21)
(1.10827 0.398724 2.86251e-20)
(1.0461 0.383792 -1.89023e-20)
(0.981536 0.362215 3.32431e-20)
(0.921824 0.335467 1.05937e-19)
(0.87498 0.309349 1.49683e-19)
(0.838587 0.286895 -9.40566e-20)
(0.810026 0.268412 1.74993e-19)
(0.787926 0.252853 -1.4094e-19)
(0.768069 0.241311 0)
(0.737923 0.224702 -3.79669e-19)
(0.65505 0.199 5.10369e-19)
(0.453531 0.135174 3.88458e-20)
(0.147921 0.0457457 -7.24462e-19)
(0.502465 0.18454 -5.99211e-21)
(1.11391 0.383244 -3.90725e-19)
(1.30144 0.471505 -3.03174e-19)
(1.31217 0.476553 2.55431e-19)
(1.2672 0.47938 -6.10164e-20)
(1.21549 0.471285 3.61392e-20)
(1.15899 0.461843 -2.56932e-20)
(1.09815 0.448033 2.97761e-21)
(1.03332 0.429582 -6.21213e-20)
(0.965809 0.40443 1.11125e-21)
(0.902358 0.374054 -1.15121e-19)
(0.851508 0.344694 -1.58944e-19)
(0.81552 0.320933 1.06495e-19)
(0.788874 0.301261 -6.2848e-20)
(0.767012 0.285118 1.535e-19)
(0.747397 0.272371 0)
(0.719522 0.255474 -2.35314e-19)
(0.63972 0.225849 3.4824e-19)
(0.443194 0.15453 6.69807e-19)
(0.144355 0.0512104 -7.84386e-19)
(0.487792 0.203738 -7.38064e-19)
(1.09964 0.430307 3.73146e-19)
(1.2936 0.530166 2.93392e-19)
(1.3055 0.534728 -2.7633e-19)
(1.25922 0.536058 1.11052e-20)
(1.20684 0.525071 9.20523e-20)
(1.14895 0.512811 7.42164e-21)
(1.0862 0.495949 -1.00632e-20)
(1.01914 0.474222 -3.98659e-20)
(0.948904 0.445326 7.24963e-20)
(0.883856 0.411212 1.06679e-19)
(0.834225 0.379694 2.48478e-19)
(0.795993 0.353065 0)
(0.766517 0.331742 5.3961e-21)
(0.744792 0.313393 -4.28294e-19)
(0.726067 0.300464 9.81642e-20)
(0.699468 0.282605 5.05248e-19)
(0.622745 0.249055 -1.47677e-19)
(0.430267 0.1703 3.18943e-19)
(0.139266 0.0557445 -2.60196e-20)
(0.477345 0.222213 6.70099e-21)
(1.08587 0.475149 3.43321e-19)
(1.28334 0.586195 2.21408e-19)
(1.29618 0.590136 -4.87317e-19)
(1.24887 0.589735 3.18623e-19)
(1.19605 0.576053 -1.10323e-19)
(1.137 0.561461 -1.14371e-20)
(1.07274 0.54199 1.32841e-20)
(1.00398 0.517225 6.62168e-20)
(0.931665 0.484993 -9.71449e-20)
(0.864082 0.448044 0)
(0.810209 0.411948 -9.92987e-20)
(0.772358 0.382887 1.14003e-19)
(0.745075 0.359587 1.55847e-19)
(0.723713 0.341583 -8.93012e-20)
(0.704763 0.325373 -2.27038e-19)
(0.678386 0.306032 -6.92526e-20)
(0.603265 0.269564 -1.25023e-21)
(0.415902 0.183378 0)
(0.133054 0.0594034 0)
(0.468596 0.239604 -3.60731e-19)
(1.07195 0.517201 0)
(1.27157 0.638907 2.52415e-19)
(1.28531 0.643048 -1.15266e-19)
(1.23729 0.640822 -3.33068e-19)
(1.18396 0.624403 9.14975e-20)
(1.12377 0.607653 -1.82354e-20)
(1.05811 0.585858 2.77083e-22)
(0.987658 0.558427 3.65128e-20)
(0.912639 0.52346 -4.30744e-20)
(0.84199 0.482012 5.95913e-20)
(0.788045 0.443834 3.08881e-19)
(0.749194 0.412156 1.32066e-20)
(0.720179 0.386142 -1.58332e-19)
(0.699287 0.36404 3.09014e-19)
(0.682638 0.348062 4.46695e-21)
(0.658934 0.328337 7.40922e-20)
(0.58578 0.287524 -3.62718e-19)
(0.400405 0.194297 3.68631e-19)
(0.126128 0.061813 -4.39111e-19)
(0.462657 0.259703 3.58613e-23)
(1.05933 0.557175 0)
(1.2589 0.688089 0)
(1.27317 0.693126 1.08659e-19)
(1.22468 0.689305 1.29144e-19)
(1.17095 0.670378 -7.9382e-20)
(1.10971 0.651564 6.3302e-20)
(1.04287 0.627668 0)
(0.970926 0.597986 -6.41548e-20)
(0.89392 0.560313 1.42569e-19)
(0.822284 0.516732 1.85319e-19)
(0.766906 0.474936 -1.17297e-19)
(0.727251 0.439338 -1.48543e-19)
(0.69984 0.411435 3.52088e-19)
(0.678839 0.389143 -1.09259e-19)
(0.659935 0.36923 -1.33154e-19)
(0.633669 0.345615 -8.18975e-20)
(0.561695 0.301864 -3.94134e-19)
(0.383657 0.202552 5.47136e-20)
(0.118099 0.0633098 4.77765e-19)
(0.459021 0.278708 -1.43685e-19)
(1.04754 0.594578 -2.26728e-19)
(1.2456 0.733794 2.38688e-20)
(1.26047 0.740139 2.58381e-22)
(1.21178 0.73522 4.59127e-20)
(1.15769 0.71411 -2.06017e-19)
(1.09555 0.693367 0)
(1.02768 0.667518 4.17026e-21)
(0.954459 0.635727 -3.28836e-21)
(0.875679 0.595819 2.1974e-19)
(0.801009 0.548937 -4.81086e-20)
(0.741875 0.502555 5.26289e-20)
(0.699936 0.46446 0)
(0.669224 0.432062 -1.92641e-19)
(0.650182 0.406402 2.41874e-19)
(0.636348 0.386267 0)
(0.614895 0.362202 -1.80198e-19)
(0.543885 0.315489 5.26247e-19)
(0.36597 0.208752 6.31028e-20)
(0.109548 0.0633979 -5.9321e-19)
(0.456598 0.295941 -3.18079e-19)
(1.03665 0.630006 4.06663e-19)
(1.23195 0.776434 0)
(1.24708 0.783962 2.68795e-19)
(1.19824 0.778195 0)
(1.14409 0.755429 1.96609e-19)
(1.08139 0.733048 0)
(1.01283 0.70547 0)
(0.938249 0.671866 -2.40041e-20)
(0.857051 0.630205 -2.16308e-19)
(0.779103 0.580588 -3.45262e-19)
(0.719853 0.532858 6.7981e-20)
(0.679593 0.491058 2.56793e-19)
(0.653378 0.457326 2.17993e-19)
(0.630775 0.429172 -7.76463e-19)
(0.6118 0.402818 -3.2309e-19)
(0.585778 0.377006 1.87541e-19)
(0.51625 0.323819 0)
(0.346922 0.212361 5.46799e-19)
(0.100058 0.0624076 -6.44966e-19)
(0.454585 0.311992 3.50408e-19)
(1.02572 0.662964 -4.46168e-19)
(1.2183 0.815998 0)
(1.23372 0.824759 -9.93893e-21)
(1.18479 0.818349 -1.11107e-19)
(1.13059 0.794222 0)
(1.06744 0.770524 -2.05135e-20)
(0.998178 0.741476 1.42259e-20)
(0.9222 0.706419 -2.19714e-20)
(0.839109 0.663145 1.84674e-20)
(0.759829 0.611251 0)
(0.696091 0.55924 2.68883e-19)
(0.648646 0.5129 3.68766e-21)
(0.614623 0.472828 1.1873e-19)
(0.597354 0.439338 1.4355e-19)
(0.585649 0.417879 0)
(0.56666 0.384646 -3.19563e-19)
(0.496367 0.331351 6.26484e-19)
(0.32731 0.21367 -6.69417e-19)
(0.0906235 0.0601025 1.40446e-18)
(0.452778 0.327274 0)
(1.01554 0.694649 0)
(1.20491 0.853079 -2.44595e-19)
(1.22025 0.862818 0)
(1.17109 0.855704 0)
(1.11698 0.830467 2.74893e-19)
(1.05353 0.805724 -2.47941e-20)
(0.983866 0.775522 1.6636e-20)
(0.906845 0.73933 2.40575e-21)
(0.821974 0.694986 0)
(0.73899 0.642132 -5.62297e-20)
(0.6719 0.588903 -2.23828e-19)
(0.626403 0.541158 -2.84242e-19)
(0.598693 0.497925 -1.19144e-19)
(0.576979 0.464662 1.58739e-19)
(0.559482 0.427031 -3.77778e-19)
(0.533735 0.396805 6.9331e-19)
(0.466638 0.335543 8.78449e-21)
(0.306349 0.212636 -6.48517e-19)
(0.0806494 0.0567265 -9.64233e-20)
(0.450954 0.342014 0)
(1.00554 0.724205 -3.46155e-19)
(1.19198 0.887599 2.72962e-19)
(1.20721 0.898416 0)
(1.15784 0.890669 0)
(1.10377 0.864343 -6.05252e-19)
(1.04005 0.838719 0)
(0.970041 0.807565 0)
(0.892019 0.770563 -2.40521e-20)
(0.8053 0.725413 4.1729e-20)
(0.719119 0.670777 -4.34154e-19)
(0.649519 0.613792 0)
(0.597376 0.560514 -3.08551e-19)
(0.557778 0.513598 1.18258e-20)
(0.537595 0.467663 -5.0677e-19)
(0.528096 0.437012 2.05138e-19)
(0.512541 0.396784 4.49448e-21)
(0.445981 0.334651 -7.45471e-19)
(0.286764 0.208692 3.53974e-19)
(0.0731833 0.0528718 1.03162e-19)
(0.449195 0.356058 0)
(0.996459 0.752618 -4.06737e-19)
(1.17949 0.920072 2.89926e-19)
(1.19433 0.931732 6.15657e-19)
(1.14475 0.923298 1.28055e-19)
(1.09083 0.896006 -9.07918e-20)
(1.02697 0.869663 5.80959e-20)
(0.956741 0.837691 -1.48227e-19)
(0.877834 0.800081 2.57287e-20)
(0.789466 0.754601 2.31584e-19)
(0.700954 0.699725 3.59904e-19)
(0.626827 0.642386 7.11113e-20)
(0.572528 0.587293 4.4919e-19)
(0.539476 0.535122 2.95272e-19)
(0.515462 0.489977 3.66409e-19)
(0.49794 0.443856 -2.30936e-19)
(0.476827 0.403398 -2.76009e-19)
(0.414177 0.331904 3.25343e-19)
(0.263274 0.201354 -1.93524e-19)
(0.0672894 0.0489399 3.3842e-19)
(0.447302 0.369405 5.37793e-19)
(0.987521 0.778869 6.4597e-19)
(1.16741 0.950307 1.58653e-19)
(1.18196 0.962908 1.59923e-20)
(1.1323 0.953892 -4.41307e-19)
(1.07855 0.925666 1.74847e-19)
(1.01453 0.898656 -6.58788e-20)
(0.944106 0.866011 -2.14089e-20)
(0.864342 0.828123 -6.08124e-21)
(0.774645 0.78243 -2.62493e-19)
(0.683068 0.727094 2.03797e-20)
(0.603844 0.668087 0)
(0.54413 0.611965 0)
(0.495262 0.55528 -1.49196e-19)
(0.468766 0.497461 -6.0238e-19)
(0.459045 0.450029 5.01368e-19)
(0.448217 0.38662 3.09381e-19)
(0.395595 0.312853 0)
(0.258249 0.179616 6.16707e-19)
(0.0616053 0.033318 -3.69187e-19)
(0.445406 0.381834 -2.87671e-19)
(0.979228 0.803905 2.46755e-19)
(1.15573 0.978681 -3.53828e-19)
(1.16985 0.991981 -3.84392e-19)
(1.12017 0.982368 -1.72751e-19)
(1.06669 0.953371 4.22251e-20)
(1.00267 0.92585 0)
(0.932172 0.89271 2.07249e-19)
(0.851843 0.854616 5.20661e-21)
(0.76046 0.809212 0)
(0.665894 0.754859 0)
(0.582731 0.697839 5.08639e-20)
(0.515687 0.638763 8.03615e-20)
(0.474969 0.577354 -1.60589e-19)
(0.441463 0.52285 4.36253e-19)
(0.41829 0.449006 -5.52072e-19)
(0.400397 0.386351 -6.68232e-19)
(0.365405 0.292942 5.9616e-19)
(0.27184 0.184156 -2.22872e-19)
(0.136059 0.102826 1.27315e-19)
(0.443151 0.393397 3.31641e-19)
(0.9709 0.826846 0)
(1.14437 1.00502 0)
(1.15826 1.01911 -1.30112e-19)
(1.10869 1.009 1.05297e-19)
(1.0555 0.979263 -2.07033e-20)
(0.991506 0.951302 -2.53264e-19)
(0.921037 0.917703 -2.94601e-19)
(0.84023 0.879583 -4.57856e-20)
(0.747909 0.834406 -2.18899e-20)
(0.651344 0.780167 5.58541e-20)
(0.564475 0.721781 -4.0945e-19)
(0.494856 0.663546 -4.62259e-19)
(0.428234 0.605256 -8.5386e-20)
(0.384289 0.530876 0)
(0.362893 0.464843 -1.36104e-20)
(0.351759 0.350886 3.65518e-19)
(0.321318 0.204087 -6.28283e-19)
(0.292999 0.0323095 4.62472e-19)
(0.09026 -0.0711347 3.6745e-19)
(0.440843 0.404339 -7.22268e-19)
(0.963031 0.848714 -3.08455e-19)
(1.13337 1.02979 5.65455e-21)
(1.1469 1.0445 1.63449e-19)
(1.0974 1.03394 0)
(1.04455 1.00371 5.09473e-19)
(0.980656 0.975492 3.18037e-19)
(0.910176 0.941658 -4.93662e-20)
(0.828837 0.903802 3.96813e-20)
(0.735082 0.859087 -2.01891e-20)
(0.634973 0.807144 1.8752e-20)
(0.543685 0.752845 3.6258e-19)
(0.462645 0.69486 4.52121e-19)
(0.408355 0.630142 8.19425e-20)
(0.358224 0.570038 4.58636e-19)
(0.30349 0.473689 0)
(0.213598 0.359543 0)
(0.0756385 0.336598 4.69015e-19)
(-0.0518969 0.634637 -3.24681e-20)
(-0.00270961 1.46755 -6.09748e-19)
(0.43815 0.41498 3.91382e-19)
(0.955214 0.868931 9.26415e-19)
(1.12262 1.05304 -1.39523e-18)
(1.13594 1.06857 8.46318e-19)
(1.08658 1.05773 -1.01425e-19)
(1.03398 1.02712 6.58809e-19)
(0.970162 0.998859 0)
(0.899784 0.965118 2.94822e-19)
(0.818079 0.927716 0)
(0.723505 0.884248 1.48993e-19)
(0.621932 0.834071 -3.24332e-20)
(0.526015 0.779962 3.63656e-20)
(0.446256 0.725494 4.95839e-19)
(0.357746 0.671105 -1.87037e-19)
(0.275173 0.59885 -2.42485e-19)
(0.206351 0.542173 0)
(0.113399 0.626969 0)
(0.0524374 1.19952 0)
(0.0854765 2.40019 -2.64138e-19)
(0.118258 2.88005 -1.63866e-19)
(0.435543 0.424835 0)
(0.94784 0.888124 0)
(1.11226 1.07492 4.98708e-19)
(1.12527 1.09112 -7.06061e-19)
(1.07596 1.08008 4.90108e-19)
(1.02369 1.04935 -6.04674e-19)
(0.960043 1.02122 -3.71337e-20)
(0.889764 0.987715 2.89132e-20)
(0.807859 0.951123 -1.67904e-21)
(0.712309 0.909262 -1.68036e-19)
(0.608008 0.861207 4.64686e-20)
(0.510898 0.812781 3.33907e-19)
(0.415738 0.764302 -4.87483e-19)
(0.343166 0.703955 -5.75909e-19)
(0.278387 0.663891 2.03356e-19)
(0.214523 0.777194 0)
(0.158748 1.45298 2.93337e-19)
(0.160454 2.65098 3.34598e-19)
(0.162139 3.07394 -3.74393e-19)
(0.15343 3.21673 4.21343e-19)
(0.432765 0.433652 0)
(0.940508 0.905704 7.50239e-19)
(1.10219 1.09543 -1.29417e-19)
(1.11506 1.11248 8.85448e-19)
(1.06591 1.10137 -5.1444e-19)
(1.01388 1.07054 0)
(0.95037 1.04266 0)
(0.880237 1.00958 0)
(0.798213 0.974157 -1.30291e-19)
(0.702072 0.933979 -3.66178e-21)
(0.596302 0.888581 0)
(0.490815 0.842856 -3.24057e-19)
(0.402856 0.798177 0)
(0.294178 0.763331 4.08619e-19)
(0.226183 0.839572 -2.63426e-19)
(0.180219 1.41698 -2.22138e-19)
(0.195353 2.64174 -5.5045e-19)
(0.214112 3.12356 -2.70076e-19)
(0.202577 3.27549 -2.93576e-19)
(0.187101 3.31769 2.64816e-19)
(0.430083 0.44185 -2.53215e-19)
(0.933565 0.922337 1.45703e-20)
(1.09256 1.11471 -1.39272e-19)
(1.10516 1.13248 -7.09523e-19)
(1.05605 1.12136 0)
(1.00435 1.0907 0)
(0.94105 1.06323 0)
(0.871183 1.03082 -2.04699e-20)
(0.789181 0.996529 1.54157e-19)
(0.692446 0.958471 0)
(0.585107 0.91672 0)
(0.485944 0.878164 0)
(0.381798 0.844945 0)
(0.319207 0.841307 2.62405e-19)
(0.292756 1.17143 6.89222e-19)
(0.294873 2.29587 2.16399e-19)
(0.306222 3.07643 3.79388e-19)
(0.297311 3.29684 -2.22772e-19)
(0.244072 3.36804 8.22302e-20)
(0.209193 3.38142 0)
(0.427176 0.449478 2.56344e-19)
(0.926445 0.937955 -1.6152e-18)
(1.08298 1.13329 -4.57418e-19)
(1.09552 1.152 -1.12216e-19)
(1.0466 1.14098 1.31575e-19)
(0.995178 1.11041 -9.37431e-19)
(0.932111 1.08336 6.43889e-20)
(0.862514 1.05158 4.80356e-19)
(0.780704 1.01873 0)
(0.684309 0.9833 -9.2764e-21)
(0.576742 0.945973 8.43874e-21)
(0.464129 0.910081 0)
(0.377302 0.883853 0)
(0.333745 1.00228 -3.23452e-19)
(0.3181 1.79728 -1.35329e-20)
(0.311727 2.90612 -1.00082e-19)
(0.330011 3.29696 1.39112e-19)
(0.302152 3.40737 6.94746e-21)
(0.232638 3.43669 2.07937e-19)
(0.20535 3.44529 -1.05536e-19)
(0.423924 0.457139 4.93147e-19)
(0.919041 0.954153 1.5433e-18)
(1.07297 1.15231 5.63059e-19)
(1.08531 1.17169 0)
(1.03656 1.16071 0)
(0.985566 1.13034 7.18132e-19)
(0.922869 1.10372 -4.55036e-19)
(0.853781 1.07269 -4.40599e-19)
(0.772401 1.0412 -1.83997e-20)
(0.675765 1.00803 -5.94805e-20)
(0.567241 0.973965 -1.77963e-19)
(0.464322 0.943571 0)
(0.385454 0.958189 0)
(0.35853 1.3258 -1.68397e-19)
(0.379314 2.37923 -2.21668e-19)
(0.4236 3.19426 0)
(0.453531 3.39609 1.82436e-19)
(0.38273 3.46675 2.44048e-19)
(0.302715 3.51082 -5.87675e-19)
(0.275031 3.5371 3.31734e-19)
(0.41995 0.464794 -9.34898e-19)
(0.910555 0.9706 -7.3386e-19)
(1.06198 1.17216 0)
(1.07448 1.19242 0)
(1.02615 1.18142 0)
(0.97557 1.15099 0)
(0.913344 1.12461 4.86791e-19)
(0.844869 1.09418 -5.5517e-19)
(0.764185 1.06399 0)
(0.668734 1.03356 6.04966e-20)
(0.56228 1.00514 2.75729e-19)
(0.455366 0.983913 1.6817e-20)
(0.401035 1.05876 3.18744e-20)
(0.427789 1.67152 2.3768e-19)
(0.460909 2.84518 -3.46397e-20)
(0.496013 3.33382 0)
(0.478181 3.47386 -1.1182e-19)
(0.382725 3.5644 1.08987e-19)
(0.287256 3.64329 3.92341e-19)
(0.208266 3.62714 -3.55181e-19)
(0.415391 0.472724 4.42864e-19)
(0.901431 0.988344 -7.19703e-19)
(1.05006 1.19305 0)
(1.06248 1.21369 -1.80863e-19)
(1.01456 1.20253 6.89082e-19)
(0.964626 1.17208 0)
(0.903186 1.14592 0)
(0.835661 1.11597 1.03451e-18)
(0.755968 1.08709 2.18699e-20)
(0.66139 1.05884 -1.77195e-19)
(0.554307 1.03335 -1.04864e-19)
(0.461584 1.02666 1.04688e-19)
(0.427216 1.22403 0)
(0.468466 2.05778 -1.0505e-19)
(0.528741 3.11143 9.83376e-20)
(0.589467 3.44282 -7.50481e-20)
(0.586623 3.5587 0)