/*--------------------------------*- C++ -*----------------------------------*\
| =========                 |                                                 |
| \\      /  F ield         | OpenFOAM: The Open Source CFD Toolbox           |
|  \\    /   O peration     | Version:  4.0                                   |
|   \\  /    A nd           | Web:      www.OpenFOAM.org                      |
|    \\/     M anipulation  |                                                 |
\*---------------------------------------------------------------------------*/
FoamFile
{
    version     2.0;
    format      ascii;
    class       volVectorField;
    location    "47";
    object      U;
}
// * * * * * * * * * * * * * * * * * * * * * * * * * * * * * * * * * * * * * //

dimensions      [0 1 -1 0 0 0 0];

internalField   nonuniform List<vector> 
2200
(
(0.878834 -0.0304144 0)
(1.00578 -0.0512816 0)
(1.00327 -0.0354077 0)
(1.00023 -0.0244448 0)
(0.999836 -0.0166734 0)
(1.00002 -0.0107332 0)
(1.00002 -0.00686667 0)
(1.00003 -0.00423483 0)
(1.00001 -0.00226907 0)
(1.00017 -0.000734079 0)
(1.00004 0.00091313 0)
(0.999971 0.00244315 0)
(0.999992 0.00439731 0)
(1.00007 0.0069959 0)
(1.00011 0.0108525 0)
(0.999937 0.0166674 0)
(1.00028 0.0244084 0)
(1.00348 0.0349705 0)
(1.00595 0.0513631 0)
(0.879006 0.0303216 0)
(0.712013 -0.0327641 0)
(0.996632 -0.0630228 0)
(1.03331 -0.0561517 0)
(1.02494 -0.0464259 0)
(1.01594 -0.0361208 0)
(1.00967 -0.0264078 0)
(1.00591 -0.0181363 0)
(1.00374 -0.0114218 0)
(1.00255 -0.00603326 0)
(1.00202 -0.00151544 0)
(1.00204 0.00266529 0)
(1.00255 0.00712356 0)
(1.0037 0.0123742 0)
(1.00582 0.0189925 0)
(1.00944 0.0270966 0)
(1.01558 0.0368608 0)
(1.02466 0.0472946 0)
(1.03311 0.0577011 0)
(0.996673 0.0631513 0)
(0.711802 0.0329987 0)
(0.535482 -0.0239014 0)
(0.969873 -0.056956 0)
(1.05642 -0.0547724 0)
(1.05219 -0.0488063 0)
(1.03615 -0.0404784 0)
(1.02439 -0.0323292 0)
(1.01588 -0.0240923 0)
(1.01037 -0.0161989 0)
(1.00717 -0.00894391 0)
(1.00562 -0.00232381 0)
(1.00548 0.00402582 0)
(1.00693 0.0105968 0)
(1.01013 0.0177066 0)
(1.01549 0.0253572 0)
(1.02411 0.0334211 0)
(1.03615 0.0413775 0)
(1.05219 0.0494114 0)
(1.05634 0.053576 0)
(0.969221 0.0576022 0)
(0.534406 0.0239355 0)
(0.392218 -0.0136527 0)
(0.911753 -0.0464065 0)
(1.05745 -0.0469226 0)
(1.06956 -0.0443211 0)
(1.05489 -0.0381881 0)
(1.0393 -0.0315175 0)
(1.02752 -0.0247413 0)
(1.01905 -0.017555 0)
(1.01368 -0.0100716 0)
(1.01108 -0.00246388 0)
(1.01105 0.00508975 0)
(1.01352 0.0124831 0)
(1.01856 0.0196888 0)
(1.02685 0.0265792 0)
(1.03844 0.0329808 0)
(1.05389 0.03939 0)
(1.06822 0.045456 0)
(1.05567 0.0481709 0)
(0.910052 0.0469176 0)
(0.390086 0.0137618 0)
(0.307544 -0.0045188 0)
(0.846568 -0.0324091 0)
(1.04932 -0.0399914 0)
(1.07943 -0.0383143 0)
(1.06813 -0.0336667 0)
(1.05163 -0.0280161 0)
(1.03827 -0.0226347 0)
(1.0281 -0.0166054 0)
(1.02109 -0.00976566 0)
(1.01719 -0.00221204 0)
(1.01684 0.00559693 0)
(1.02033 0.0129764 0)
(1.02718 0.0194291 0)
(1.03716 0.0250986 0)
(1.05036 0.0301526 0)
(1.06686 0.035567 0)
(1.07794 0.039939 0)
(1.04739 0.0415779 0)
(0.8432 0.0329238 0)
(0.304045 0.00470929 0)
(0.264064 9.35251e-05 0)
(0.788731 -0.0201155 0)
(1.03309 -0.0315295 0)
(1.08339 -0.0320907 0)
(1.07728 -0.0288414 0)
(1.06081 -0.024007 0)
(1.04709 -0.0195145 0)
(1.03621 -0.014424 0)
(1.0284 -0.00837336 0)
(1.02402 -0.00137816 0)
(1.02386 0.00599315 0)
(1.0277 0.0126193 0)
(1.03488 0.0182622 0)
(1.04536 0.022943 0)
(1.05883 0.0269549 0)
(1.07498 0.0313305 0)
(1.08047 0.0340941 0)
(1.02938 0.0331969 0)
(0.783063 0.0207091 0)
(0.259195 0.000104298 0)
(0.240038 0.00105829 0)
(0.738001 -0.0123268 0)
(1.01365 -0.0251167 0)
(1.08399 -0.0269611 0)
(1.08282 -0.0246855 0)
(1.06768 -0.020593 0)
(1.0542 -0.0166168 0)
(1.04334 -0.0120954 0)
(1.03522 -0.00673027 0)
(1.03027 -0.000462579 0)
(1.0296 0.00623745 0)
(1.03363 0.0121569 0)
(1.04134 0.0169823 0)
(1.0518 0.0208951 0)
(1.06496 0.0243378 0)
(1.07981 0.0278248 0)
(1.08036 0.0294629 0)
(1.00807 0.0270217 0)
(0.729635 0.0130718 0)
(0.23366 -0.000858105 0)
(0.225598 0.000946066 0)
(0.694789 -0.00808274 0)
(0.992335 -0.0208294 0)
(1.08177 -0.0232488 0)
(1.08671 -0.0214693 0)
(1.07325 -0.0179634 0)
(1.05981 -0.0141877 0)
(1.04923 -0.00988958 0)
(1.04127 -0.00497315 0)
(1.03645 0.000696642 0)
(1.03596 0.00664276 0)
(1.03968 0.011929 0)
(1.04644 0.0161663 0)
(1.05636 0.0197296 0)
(1.06944 0.0227101 0)
(1.08208 0.0254545 0)
(1.07584 0.0264641 0)
(0.983825 0.0232022 0)
(0.682873 0.00904431 0)
(0.217389 -0.000731175 0)
(0.216005 0.000624145 0)
(0.659556 -0.00570755 0)
(0.972416 -0.0176996 0)
(1.0793 -0.0203102 0)
(1.08983 -0.018763 0)
(1.07787 -0.0157033 0)
(1.06461 -0.012129 0)
(1.05421 -0.00808086 0)
(1.04638 -0.00329233 0)
(1.04138 0.00198607 0)
(1.04038 0.00733815 0)
(1.04375 0.0120009 0)
(1.05073 0.0158873 0)
(1.06021 0.0190258 0)
(1.07289 0.0217988 0)
(1.08393 0.0240084 0)
(1.07184 0.024625 0)
(0.960514 0.0207157 0)
(0.643317 0.00695261 0)
(0.205506 -0.000359204 0)
(0.208614 0.00027837 0)
(0.630325 -0.0042787 0)
(0.952536 -0.0152343 0)
(1.07567 -0.0182414 0)
(1.09295 -0.0169522 0)
(1.08256 -0.013958 0)
(1.06911 -0.0104011 0)
(1.05865 -0.00636555 0)
(1.05087 -0.00186898 0)
(1.04595 0.00305157 0)
(1.04485 0.0080646 0)
(1.04767 0.0125075 0)
(1.05357 0.0160511 0)
(1.06297 0.0189481 0)
(1.07579 0.0213389 0)
(1.08485 0.0232727 0)
(1.06442 0.0232573 0)
(0.935703 0.0187299 0)
(0.608784 0.00576644 0)
(0.195309 1.17674e-05 0)
(0.202761 6.89833e-05 0)
(0.607208 -0.00321181 0)
(0.935104 -0.0126597 0)
(1.07288 -0.0158041 0)
(1.09624 -0.0147295 0)
(1.08713 -0.0121216 0)
(1.07356 -0.00861149 0)
(1.06289 -0.00476413 0)
(1.05491 -0.000146994 0)
(1.04978 0.0048285 0)
(1.04834 0.00964821 0)
(1.05098 0.0135713 0)
(1.05719 0.0167818 0)
(1.06625 0.019397 0)
(1.07868 0.0216412 0)
(1.08562 0.0227581 0)
(1.05881 0.0223542 0)
(0.913162 0.0171013 0)
(0.579478 0.00504874 0)
(0.1861 0.000289225 0)
(0.197978 5.25941e-06 0)
(0.588505 -0.00233146 0)
(0.918787 -0.0104194 0)
(1.06924 -0.0136995 0)
(1.09934 -0.0127805 0)
(1.09194 -0.0101334 0)
(1.07827 -0.00680143 0)
(1.06727 -0.00290618 0)
(1.05905 0.00145815 0)
(1.05358 0.00617961 0)
(1.05145 0.010755 0)
(1.05335 0.0148109 0)
(1.05892 0.0178345 0)
(1.06822 0.0199799 0)
(1.08071 0.0217637 0)
(1.08546 0.0226619 0)
(1.04924 0.0215776 0)
(0.888571 0.0156844 0)
(0.552528 0.00460564 0)
(0.177065 0.000453773 0)
(0.194407 2.03331e-05 0)
(0.573759 -0.0015712 0)
(0.904435 -0.0081481 0)
(1.06645 -0.0112552 0)
(1.1026 -0.0103311 0)
(1.09648 -0.00787245 0)
(1.08282 -0.00440417 0)
(1.07147 -0.00067387 0)
(1.0626 0.00376581 0)
(1.05645 0.00868108 0)
(1.05432 0.013259 0)
(1.05641 0.0167052 0)
(1.06203 0.0191468 0)
(1.07099 0.0210059 0)
(1.08253 0.0222372 0)
(1.08483 0.0226838 0)
(1.0416 0.0210484 0)
(0.866694 0.014635 0)
(0.529148 0.00434782 0)
(0.168626 0.000533367 0)
(0.192171 3.33237e-05 0)
(0.563089 -0.000830703 0)
(0.892547 -0.00608569 0)
(1.06352 -0.00894914 0)
(1.10578 -0.00783222 0)
(1.10137 -0.00506873 0)
(1.08768 -0.00166138 0)
(1.07607 0.00221681 0)
(1.06691 0.00648923 0)
(1.06018 0.0109118 0)
(1.05674 0.014848 0)
(1.0579 0.0181479 0)
(1.06318 0.0203531 0)
(1.07215 0.0217417 0)
(1.08318 0.0227179 0)
(1.08313 0.0229332 0)
(1.02959 0.0208092 0)
(0.841884 0.0138644 0)
(0.50599 0.00421044 0)
(0.160001 0.00057904 0)
(0.191188 9.09434e-05 0)
(0.555499 -0.000230113 0)
(0.882433 -0.00389558 0)
(1.06207 -0.00614288 0)
(1.10978 -0.00477766 0)
(1.10655 -0.00196208 0)
(1.09291 0.00173172 0)
(1.08087 0.00551596 0)
(1.07097 0.00973496 0)
(1.06343 0.0143157 0)
(1.06012 0.0184341 0)
(1.06125 0.020884 0)
(1.06599 0.0222939 0)
(1.07448 0.0233231 0)
(1.08404 0.0238625 0)
(1.08109 0.0235406 0)
(1.0198 0.0208481 0)
(0.820064 0.0134493 0)
(0.485556 0.00418818 0)
(0.151908 0.000610503 0)
(0.191718 5.1531e-05 0)
(0.551315 0.000832493 0)
(0.875829 -0.00161007 0)
(1.06083 -0.00356545 0)
(1.11378 -0.00188344 0)
(1.1121 0.00137152 0)
(1.09826 0.00525833 0)
(1.08579 0.00934841 0)
(1.07541 0.0136649 0)
(1.06724 0.0178857 0)
(1.06205 0.0212448 0)
(1.06159 0.0236619 0)
(1.06584 0.0247195 0)
(1.07447 0.0251409 0)
(1.08356 0.0255673 0)
(1.07704 0.0247077 0)
(1.0053 0.0212866 0)
(0.794506 0.0132079 0)
(0.463876 0.00421692 0)
(0.143265 0.000624464 0)
(0.193719 0.000213231 0)
(0.551581 0.00149824 0)
(0.870903 0.00054665 0)
(1.06146 -0.000121829 0)
(1.11857 0.00183629 0)
(1.11786 0.00509103 0)
(1.10394 0.00931477 0)
(1.09074 0.0136849 0)
(1.0795 0.0182636 0)
(1.07017 0.0227351 0)
(1.06488 0.0262774 0)
(1.06454 0.0279494 0)
(1.06818 0.0284473 0)
(1.07592 0.0285448 0)
(1.08265 0.0277566 0)
(1.0725 0.0263732 0)
(0.992122 0.0221865 0)
(0.771562 0.0134331 0)
(0.444109 0.00445732 0)
(0.134937 0.000670557 0)
(0.197678 0.00064789 0)
(0.55424 0.00226157 0)
(0.871169 0.00341239 0)
(1.06319 0.0031061 0)
(1.1239 0.00558048 0)
(1.12436 0.00942476 0)
(1.10997 0.0139715 0)
(1.09624 0.0187702 0)
(1.08442 0.0236917 0)
(1.07439 0.0280662 0)
(1.06698 0.0307733 0)
(1.06364 0.0318548 0)
(1.06606 0.0320046 0)
(1.0737 0.0312728 0)
(1.08044 0.0306581 0)
(1.06606 0.0284174 0)
(0.974322 0.0232122 0)
(0.744276 0.0139002 0)
(0.421777 0.00472233 0)
(0.125501 0.000711486 0)
(0.204134 0.000865227 0)
(0.561284 0.00345869 0)
(0.875077 0.00584806 0)
(1.06779 0.00756503 0)
(1.13018 0.0108898 0)
(1.1314 0.0147792 0)
(1.11676 0.0196753 0)
(1.10208 0.0248989 0)
(1.08882 0.0302766 0)
(1.07672 0.0350012 0)
(1.06821 0.0379567 0)
(1.06558 0.038951 0)
(1.0676 0.0383865 0)
(1.0739 0.0369688 0)
(1.07695 0.0343952 0)
(1.05771 0.0311643 0)
(0.95728 0.024984 0)
(0.719049 0.0148118 0)
(0.400511 0.0051457 0)
(0.11607 0.000782611 0)
(0.212337 0.00101758 0)
(0.57232 0.00475009 0)
(0.882952 0.00895064 0)
(1.07441 0.0118933 0)
(1.13747 0.0160995 0)
(1.13927 0.0210775 0)
(1.12375 0.0268235 0)
(1.10798 0.032592 0)
(1.09323 0.038248 0)
(1.07964 0.0429271 0)
(1.06907 0.0450498 0)
(1.06306 0.0445264 0)
(1.06256 0.0430636 0)
(1.06872 0.0403598 0)
(1.07255 0.0386012 0)
(1.04793 0.0344362 0)
(0.935056 0.0269906 0)
(0.688172 0.0158482 0)
(0.375415 0.00558343 0)
(0.105073 0.000838323 0)
(0.224721 0.00136065 0)
(0.590888 0.00676919 0)
(0.898073 0.0135927 0)
(1.08498 0.0185632 0)
(1.14672 0.0237789 0)
(1.14829 0.0292617 0)
(1.13179 0.0358741 0)
(1.1143 0.042507 0)
(1.09719 0.0487034 0)
(1.08051 0.0533096 0)
(1.06766 0.0548917 0)
(1.06243 0.0538959 0)
(1.06335 0.0515807 0)
(1.06769 0.048574 0)
(1.06579 0.0441703 0)
(1.03486 0.0384319 0)
(0.912642 0.0296664 0)
(0.658725 0.0172093 0)
(0.350929 0.00615326 0)
(0.093983 0.000880586 0)
(0.240524 0.00194993 0)
(0.615141 0.00864835 0)
(0.91953 0.0183615 0)
(1.09961 0.0256535 0)
(1.15802 0.0323371 0)
(1.15941 0.0394419 0)
(1.1412 0.0472718 0)
(1.12201 0.0545013 0)
(1.10296 0.060803 0)
(1.08429 0.0648436 0)
(1.06899 0.0654284 0)
(1.05968 0.0629305 0)
(1.05593 0.0587803 0)
(1.05867 0.0539677 0)
(1.0581 0.0499973 0)
(1.02009 0.043228 0)
(0.883834 0.0326564 0)
(0.622167 0.0189426 0)
(0.321233 0.00677983 0)
(0.0809837 0.000888777 0)
(0.26271 0.00281421 0)
(0.648878 0.0124396 0)
(0.948297 0.0251445 0)
(1.11881 0.0351993 0)
(1.17249 0.0433717 0)
(1.17236 0.0520911 0)
(1.15189 0.0609653 0)
(1.12997 0.0692366 0)
(1.10767 0.0761345 0)
(1.08527 0.0801935 0)
(1.06647 0.0795604 0)
(1.05635 0.0756262 0)
(1.05418 0.070297 0)
(1.05642 0.0650401 0)
(1.04768 0.0579565 0)
(1.00105 0.049039 0)
(0.854288 0.0366944 0)
(0.58648 0.0212219 0)
(0.29138 0.00748802 0)
(0.0679259 0.000857317 0)
(0.294295 0.00372066 0)
(0.695139 0.0156215 0)
(0.987511 0.0332718 0)
(1.14423 0.0466934 0)
(1.18979 0.0572558 0)
(1.18744 0.0682236 0)
(1.16342 0.0787773 0)
(1.13824 0.0875868 0)
(1.1127 0.0941268 0)
(1.08715 0.0967348 0)
(1.06553 0.0947128 0)
(1.05174 0.0892889 0)
(1.0447 0.0821434 0)
(1.04294 0.0742658 0)
(1.03529 0.0668157 0)
(0.979178 0.0565888 0)
(0.815972 0.0414309 0)
(0.540391 0.0239206 0)
(0.253836 0.0081243 0)
(0.0525941 0.000802683 0)
(0.33077 0.00709758 0)
(0.753261 0.0247336 0)
(1.03559 0.0463613 0)
(1.1753 0.0638856 0)
(1.21137 0.0764538 0)
(1.20409 0.0903329 0)
(1.17503 0.10164 0)
(1.14508 0.110688 0)
(1.11446 0.116667 0)
(1.08409 0.118388 0)
(1.05869 0.114151 0)
(1.04356 0.105971 0)
(1.03815 0.0969176 0)
(1.03726 0.0883446 0)
(1.019 0.0781372 0)
(0.9511 0.0646604 0)
(0.775314 0.0470806 0)
(0.494146 0.0268777 0)
(0.216596 0.00867784 0)
(0.0379658 0.000674458 0)
(0.410972 0.010781 0)
(0.840725 0.0358169 0)
(1.10078 0.0673668 0)
(1.21408 0.0894905 0)
(1.2366 0.104738 6.5104e-34)
(1.22236 0.120316 -2.92503e-34)
(1.1871 0.131663 0)
(1.15263 0.139594 0)
(1.11823 0.14344 0)
(1.08414 0.141689 0)
(1.05514 0.133838 0)
(1.03646 0.124012 0)
(1.02598 0.11268 0)
(1.01878 0.101035 0)
(0.999864 0.0895385 0)
(0.918972 0.073883 0)
(0.723213 0.0524231 0)
(0.433036 0.029135 0)
(0.168071 0.00842272 0)
(0.0207827 0.000711765 0)
(0.482442 0.025988 4.86617e-20)
(0.942456 0.059658 -3.68236e-20)
(1.17003 0.101127 0)
(1.25399 0.127197 2.83064e-20)
(1.26386 0.142537 -2.29527e-20)
(1.24002 0.160215 3.08614e-34)
(1.1979 0.169732 0)
(1.15783 0.175519 1.63427e-20)
(1.11702 0.177011 -5.36179e-20)
(1.07645 0.172723 1.09294e-20)
(1.04338 0.163039 0)
(1.02259 0.148561 -2.76385e-20)
(1.01318 0.135138 -3.30995e-20)
(1.00736 0.122359 5.78872e-20)
(0.970519 0.106854 -4.5726e-20)
(0.867508 0.0855007 0)
(0.651813 0.0596155 -1.65198e-20)
(0.357009 0.0302932 0)
(0.116062 0.00845042 -9.10203e-20)
(0.0033989 0.000690598 1.0728e-19)
(0.518523 0.0536477 -6.36791e-21)
(1.00646 0.102549 1.1151e-19)
(1.21945 0.151512 -6.60788e-21)
(1.28696 0.175043 -7.07827e-20)
(1.28774 0.191983 -4.86559e-20)
(1.25485 0.207471 7.91337e-20)
(1.20655 0.214163 0)
(1.16119 0.217441 0)
(1.11583 0.216081 8.54226e-20)
(1.07237 0.208699 0)
(1.03459 0.193476 1.00073e-19)
(1.00845 0.17842 2.96553e-20)
(0.9911 0.162724 3.76652e-22)
(0.971346 0.146252 -6.32023e-20)
(0.93395 0.12933 0)
(0.820216 0.105667 0)
(0.590518 0.0707142 -2.7022e-19)
(0.303333 0.0346085 6.78279e-19)
(0.0906821 0.00915015 -4.01543e-19)
(-0.00552326 -4.15807e-05 -4.73352e-19)
(0.526106 0.0763089 -6.53235e-20)
(1.0437 0.159431 2.47637e-20)
(1.25598 0.211539 1.32807e-20)
(1.31308 0.233758 1.23692e-19)
(1.30634 0.24916 1.43264e-20)
(1.266 0.260493 -2.06618e-19)
(1.21218 0.26345 7.02805e-20)
(1.16118 0.263464 0)
(1.10964 0.25912 -1.80948e-19)
(1.05775 0.248179 1.60316e-19)
(1.01363 0.231306 -2.70215e-19)
(0.984741 0.212104 1.26642e-19)
(0.968523 0.194137 -8.20469e-20)
(0.955022 0.178437 1.84764e-19)
(0.904716 0.158448 0)
(0.781971 0.125921 -6.76513e-20)
(0.557424 0.0837062 0)
(0.292648 0.04007 3.73573e-19)
(0.0897685 0.0122918 -8.84427e-19)
(-0.00515258 -0.000993512 5.54343e-19)
(0.521363 0.108013 1.86386e-19)
(1.06329 0.216052 -8.12994e-20)
(1.27737 0.276559 -1.71425e-20)
(1.33008 0.29809 0)
(1.31811 0.311398 -9.13686e-20)
(1.27244 0.317579 1.12627e-19)
(1.21391 0.31581 -7.52992e-20)
(1.15782 0.311905 0)
(1.10113 0.30325 1.28649e-19)
(1.04575 0.28739 -1.1269e-19)
(0.999675 0.267128 2.34362e-19)
(0.966575 0.245666 0)
(0.942985 0.227603 -1.74417e-19)
(0.917497 0.206797 9.82472e-20)
(0.872284 0.18446 2.48144e-19)
(0.755532 0.151746 -2.18352e-19)
(0.542336 0.103162 3.47512e-19)
(0.293819 0.0530757 -7.70058e-19)
(0.100789 0.0176737 4.86192e-19)
(0.000984448 -0.00012122 -6.0818e-19)
(0.509931 0.132433 -6.73927e-20)
(1.0719 0.270353 4.83573e-20)
(1.28881 0.342715 -5.68944e-20)
(1.33921 0.363891 1.11969e-19)
(1.32362 0.374844 -1.04948e-19)
(1.27418 0.376123 3.57876e-20)
(1.21212 0.369934 3.63211e-21)
(1.15221 0.361839 -1.46476e-19)
(1.09168 0.349042 -1.35052e-19)
(1.03223 0.330383 -2.42241e-19)
(0.97933 0.306371 -5.04032e-19)
(0.941948 0.281877 -1.55193e-19)
(0.919766 0.259718 2.33715e-21)
(0.899524 0.24174 -3.36964e-19)
(0.846656 0.217591 -6.07835e-21)
(0.728962 0.176294 3.17985e-19)
(0.528662 0.122063 -9.6015e-20)
(0.298049 0.0669755 -5.5675e-20)
(0.113581 0.0250691 0)
(0.0085147 0.00176662 1.2944e-18)
(0.493216 0.153239 0)
(1.066 0.319854 -5.29449e-21)
(1.29098 0.405719 -1.03977e-20)
(1.34153 0.427719 -1.27524e-20)
(1.32338 0.437676 1.02026e-19)
(1.27145 0.43466 -8.31478e-20)
(1.20668 0.424048 8.23143e-20)
(1.1433 0.41176 2.40358e-19)
(1.07841 0.394555 -7.51476e-20)
(1.01323 0.371073 1.20011e-19)
(0.956526 0.341951 2.70992e-19)
(0.918385 0.316316 3.38264e-19)
(0.8922 0.296366 -2.037e-19)
(0.862922 0.271495 3.64779e-19)
(0.816225 0.245162 -2.89046e-19)
(0.709793 0.205409 0)
(0.52478 0.145584 -7.29041e-19)
(0.308853 0.0845865 9.81209e-19)
(0.129036 0.0351435 7.32362e-20)
(0.017079 0.00476329 -1.3682e-18)
(0.479287 0.17361 -5.1207e-21)
(1.05895 0.368635 1.25662e-20)
(1.28878 0.467069 7.5985e-20)
(1.33931 0.489721 -9.71553e-20)
(1.31895 0.498397 8.38737e-20)
(1.26497 0.49155 -8.08522e-20)
(1.19811 0.477361 1.63465e-19)
(1.13216 0.461438 -7.24571e-20)
(1.06472 0.440736 -3.032e-19)
(0.997848 0.414078 4.88403e-23)
(0.941063 0.383773 -2.94258e-19)
(0.897976 0.356029 -3.63579e-19)
(0.866743 0.329542 2.24684e-19)
(0.843962 0.306344 -1.31177e-19)
(0.792317 0.278911 3.13877e-19)
(0.686364 0.229634 0)
(0.513539 0.167962 -4.52142e-19)
(0.312935 0.101144 6.67743e-19)
(0.139682 0.0453853 1.26465e-18)
(0.0237494 0.00791999 -1.48764e-18)
(0.465094 0.191303 -4.13608e-20)
(1.04642 0.412953 1.44605e-20)
(1.28215 0.524506 -5.32798e-20)
(1.33318 0.548752 1.00665e-19)
(1.31096 0.556979 1.18596e-20)
(1.25551 0.546769 -1.58924e-19)
(1.18699 0.529101 -9.44934e-20)
(1.11899 0.509468 -9.20389e-20)
(1.04923 0.484703 -1.70623e-19)
(0.978561 0.453454 2.74887e-19)
(0.914229 0.41862 2.97673e-19)
(0.869554 0.387117 5.76998e-19)
(0.842094 0.360875 0)
(0.808 0.334649 6.29029e-21)
(0.763345 0.302512 -8.61361e-19)
(0.667941 0.258432 2.01012e-19)
(0.508146 0.190729 9.7679e-19)
(0.318294 0.119399 -2.88192e-19)
(0.148619 0.0559841 6.00015e-19)
(0.0290165 0.0111946 -5.00498e-20)
(0.455533 0.209744 5.94023e-21)
(1.03559 0.456273 3.72415e-20)
(1.27361 0.579737 -2.50255e-20)
(1.32454 0.605448 1.15123e-19)
(1.30069 0.612724 -1.72696e-19)
(1.24399 0.599346 1.58142e-19)
(1.1743 0.578795 9.78113e-20)
(1.10482 0.556121 2.75525e-19)
(1.03269 0.528503 3.43382e-19)
(0.959379 0.49525 -3.16599e-19)
(0.896445 0.458707 0)
(0.852067 0.423122 -2.17738e-19)
(0.815193 0.392983 2.49987e-19)
(0.791506 0.365161 3.15281e-19)
(0.740372 0.33414 -1.82239e-19)
(0.646131 0.279633 -4.4496e-19)
(0.495039 0.212223 -1.32863e-19)
(0.316649 0.135053 -1.58416e-21)
(0.152223 0.0650045 0)
(0.0320759 0.0137633 0)
(0.447398 0.225945 -6.37508e-20)
(1.02337 0.496296 0)
(1.26284 0.631254 -1.07856e-20)
(1.31363 0.65893 -8.54679e-21)
(1.28852 0.66575 1.9479e-19)
(1.23097 0.649631 -4.97388e-20)
(1.16025 0.626335 9.9233e-20)
(1.08926 0.600802 -1.86634e-19)
(1.01535 0.570055 2.6015e-19)
(0.940968 0.532724 -1.03173e-19)
(0.873858 0.490179 1.70159e-19)
(0.822461 0.45267 6.90088e-19)
(0.792406 0.421961 1.41216e-20)
(0.756009 0.390383 -3.28542e-19)
(0.711985 0.353227 6.08572e-19)
(0.626061 0.306173 4.16846e-21)
(0.484086 0.231767 1.42143e-19)
(0.311315 0.149125 -6.78036e-19)
(0.150027 0.072036 6.98158e-19)
(0.0326481 0.0152515 -8.23191e-19)
(0.440734 0.243696 3.88399e-23)
(1.01211 0.534905 0)
(1.25132 0.680491 0)
(1.30158 0.710028 -5.96124e-21)
(1.27536 0.715824 -5.86115e-20)
(1.21693 0.697062 7.44864e-20)
(1.14537 0.671504 -1.85951e-19)
(1.07343 0.643604 0)
(0.998184 0.610422 -3.83444e-19)
(0.920691 0.571002 4.57864e-19)
(0.851437 0.527082 4.83949e-19)
(0.802279 0.486374 -2.53318e-19)
(0.764895 0.449516 -3.05987e-19)
(0.738551 0.416803 7.17235e-19)
(0.689839 0.381498 -2.16127e-19)
(0.603376 0.32197 -2.58153e-19)
(0.467236 0.248656 -1.54549e-19)
(0.303444 0.160123 -7.30967e-19)
(0.14547 0.0767355 1.06573e-19)
(0.0315963 0.016196 8.87906e-19)
(0.436377 0.261939 -3.30489e-20)
(1.00103 0.571083 -4.22295e-20)
(1.23872 0.72621 2.3648e-20)
(1.28842 0.75776 -1.57679e-22)
(1.26128 0.763121 -5.71706e-20)
(1.20223 0.742192 1.22316e-19)
(1.13008 0.714451 0)
(1.05727 0.684241 1.12209e-19)
(0.980744 0.648888 -8.84775e-20)
(0.902004 0.606496 7.62536e-19)
(0.83114 0.557996 -1.10641e-19)
(0.777328 0.512931 1.25412e-19)
(0.740974 0.475791 0)
(0.703444 0.438578 -3.88226e-19)
(0.661408 0.395399 4.699e-19)
(0.582661 0.344089 0)
(0.453607 0.262184 -3.33202e-19)
(0.292194 0.169531 9.79623e-19)
(0.138706 0.079232 1.15542e-19)
(0.0291302 0.0165709 -1.09262e-18)
(0.433863 0.278891 -8.56454e-20)
(0.99117 0.605869 1.099e-19)
(1.22611 0.769791 0)
(1.27494 0.803211 6.56207e-21)
(1.24694 0.807636 0)
(1.18732 0.784509 -1.56282e-19)
(1.11475 0.754986 0)
(1.04131 0.722997 0)
(0.96333 0.685758 -1.1641e-19)
(0.881706 0.64136 -7.24715e-19)
(0.807356 0.591264 -8.93605e-19)
(0.752745 0.542728 1.46471e-19)
(0.712464 0.49874 5.27929e-19)
(0.68609 0.459897 4.27107e-19)
(0.639466 0.420173 -1.50732e-18)
(0.559936 0.353888 -6.05247e-19)
(0.433445 0.273716 3.5433e-19)
(0.27895 0.174423 0)
(0.130384 0.0800597 9.92731e-19)
(0.0261808 0.0160314 -1.17668e-18)
(0.432194 0.294622 1.04103e-19)
(0.981514 0.638385 -1.29162e-19)
(1.2132 0.810081 0)
(1.26108 0.845358 -1.09668e-20)
(1.2324 0.849477 3.17391e-21)
(1.17238 0.824651 0)
(1.09945 0.793415 5.68185e-20)
(1.02525 0.759603 7.7246e-20)
(0.946176 0.720786 -2.19301e-19)
(0.863651 0.674681 9.61186e-20)
(0.787251 0.621217 0)
(0.728928 0.567606 6.06324e-19)
(0.690101 0.522389 4.85961e-21)
(0.650198 0.47819 2.30322e-19)
(0.610766 0.427486 2.736e-19)
(0.537718 0.371243 0)
(0.417535 0.280839 -5.79393e-19)
(0.264505 0.177784 1.13709e-18)
(0.121623 0.0793935 -1.20241e-18)
(0.0230876 0.01513 2.53312e-18)
(0.430928 0.30956 0)
(0.972627 0.669591 0)
(1.20069 0.848384 -6.23594e-20)
(1.2474 0.88543 0)
(1.21801 0.888774 0)
(1.15757 0.862168 -1.30408e-19)
(1.08438 0.829517 5.81307e-20)
(1.00972 0.794405 1.75568e-20)
(0.929372 0.754213 -5.02385e-20)
(0.843743 0.706391 0)
(0.763288 0.650537 -1.35759e-19)
(0.703119 0.59459 -4.94552e-19)
(0.659021 0.542926 -5.95258e-19)
(0.63221 0.495132 -2.39194e-19)
(0.588223 0.448135 2.96393e-19)
(0.514571 0.373651 -6.98806e-19)
(0.395581 0.285915 1.24654e-18)
(0.249662 0.177107 2.52662e-21)
(0.112792 0.0776008 -1.15303e-18)
(0.0204262 0.014001 -1.70792e-19)
(0.429767 0.324081 0)
(0.964032 0.699063 -1.06554e-19)
(1.18826 0.883766 7.72215e-20)
(1.23372 0.922386 0)
(1.20376 0.925549 0)
(1.14307 0.897681 2.61927e-19)
(1.06971 0.863748 0)
(0.994494 0.827224 0)
(0.913202 0.786005 -4.79992e-19)
(0.826663 0.737218 1.32295e-19)
(0.744351 0.679461 -1.20351e-18)
(0.679896 0.619695 0)
(0.636225 0.565127 -6.45298e-19)
(0.594252 0.510758 1.06458e-20)
(0.55726 0.448221 -9.51794e-19)
(0.49092 0.384591 3.76062e-19)
(0.380223 0.284611 1.67201e-21)
(0.236887 0.174495 -1.31267e-18)
(0.105642 0.0744912 6.21882e-19)
(0.0175528 0.0124408 1.82716e-19)
(0.428702 0.33825 0)
(0.956078 0.727294 -1.50184e-19)
(1.17635 0.91744 8.17193e-20)
(1.22047 0.957565 1.01177e-19)
(1.18991 0.960048 -1.42476e-20)
(1.12896 0.930775 2.61918e-20)
(1.05554 0.895785 -3.53818e-20)
(0.980061 0.858374 4.62571e-19)
(0.897607 0.816174 5.13456e-19)
(0.808013 0.766131 1.00803e-18)
(0.721292 0.706304 1.00002e-18)
(0.653462 0.644375 1.75569e-19)
(0.603089 0.583995 9.28418e-19)
(0.573722 0.524088 5.72944e-19)
(0.532235 0.464739 6.83299e-19)
(0.467004 0.376551 -4.11689e-19)
(0.358394 0.279454 -4.79283e-19)
(0.226683 0.164472 5.61945e-19)
(0.10331 0.0749922 -3.33475e-19)
(0.0204585 0.0179731 5.91219e-19)
(0.427721 0.352004 2.1318e-19)
(0.948546 0.754015 2.34965e-19)
(1.16467 0.948589 4.79896e-20)
(1.20743 0.989887 1.62582e-20)
(1.17644 0.992226 1.24863e-20)
(1.11539 0.962036 -7.27511e-20)
(1.04198 0.926162 3.41313e-20)
(0.966024 0.887694 -2.03519e-20)
(0.882564 0.844795 -5.96825e-19)
(0.79214 0.794454 -1.09375e-18)
(0.70379 0.7343 6.94214e-20)
(0.630851 0.669716 0)
(0.57959 0.606324 0)
(0.532129 0.539673 -2.98601e-19)
(0.495477 0.457538 -1.11731e-18)
(0.438924 0.377728 8.86795e-19)
(0.348831 0.258839 5.24429e-19)
(0.23349 0.146212 0)
(0.116461 0.049451 1.06375e-18)
(0.0140288 -0.00740627 -6.31635e-19)
(0.42684 0.365174 -1.13009e-19)
(0.941442 0.77931 1.00081e-19)
(1.15352 0.978226 -1.16216e-19)
(1.19497 1.02073 -9.20825e-20)
(1.16348 1.02241 -1.16081e-20)
(1.1023 0.991084 -2.32615e-20)
(1.02895 0.954448 0)
(0.952816 0.915453 -5.80864e-19)
(0.868453 0.87191 7.33761e-20)
(0.77548 0.820751 0)
(0.68312 0.759402 0)
(0.605814 0.693505 1.11731e-19)
(0.54507 0.625436 1.50032e-19)
(0.507751 0.551318 -3.22239e-19)
(0.463914 0.472973 8.0214e-19)
(0.405281 0.354729 -9.66305e-19)
(0.319357 0.236608 -1.1217e-18)
(0.238799 0.125881 9.92973e-19)
(0.171063 0.0898887 -3.78865e-19)
(0.113136 0.0801181 2.20522e-19)
(0.425915 0.377565 1.42849e-19)
(0.934701 0.803211 0)
(1.14264 1.0056 0)
(1.18279 1.04893 -2.5004e-20)
(1.151 1.05047 2.02421e-20)
(1.08984 1.01847 -2.08055e-20)
(1.0166 0.981256 1.50582e-19)
(0.940148 0.941544 5.94644e-19)
(0.855056 0.897701 1.08196e-18)
(0.761251 0.846655 -8.212e-20)
(0.666532 0.785984 1.6956e-19)
(0.583986 0.719405 -9.98726e-19)
(0.522213 0.649848 -9.94018e-19)
(0.461417 0.571197 -1.72785e-19)
(0.413202 0.461747 0)
(0.362607 0.355599 -7.51408e-21)
(0.293479 0.16962 6.17293e-19)
(0.264239 0.024727 -1.03962e-18)
(0.226394 -0.0870604 7.90407e-19)
(0.0841045 -0.0968365 6.55553e-19)
(0.424938 0.389501 -3.15986e-19)
(0.928092 0.825616 -1.42878e-19)
(1.13218 1.0317 7.00593e-21)
(1.17112 1.07611 5.49052e-20)
(1.13891 1.07708 0)
(1.07767 1.04422 -7.64534e-20)
(1.00456 1.00656 -2.16192e-19)
(0.928089 0.966754 -1.75182e-21)
(0.842314 0.92273 -5.66849e-19)
(0.746115 0.871283 -8.05474e-20)
(0.647962 0.810201 7.48142e-20)
(0.561726 0.744339 8.77267e-19)
(0.485163 0.672098 9.70168e-19)
(0.432294 0.584433 1.68111e-19)
(0.374558 0.487629 8.59735e-19)
(0.292723 0.324357 0)
(0.174639 0.155687 0)
(0.00500479 0.207683 7.16778e-19)
(-0.0775567 0.629817 -3.00307e-20)
(0.00667558 1.53562 -8.81384e-19)
(0.423887 0.400773 1.74768e-19)
(0.921912 0.847093 3.99418e-19)
(1.12194 1.05605 -5.45627e-19)
(1.15962 1.10119 2.71106e-19)
(1.12713 1.10227 -6.20336e-21)
(1.06592 1.06915 -2.99096e-20)
(0.992945 1.0314 0)
(0.916196 0.991404 -4.9552e-19)
(0.82971 0.947717 0)
(0.732608 0.897197 1.13499e-18)
(0.631403 0.837977 -9.08278e-20)
(0.538695 0.772957 1.01843e-19)
(0.463857 0.703186 1.10874e-18)
(0.378848 0.620715 -3.64331e-19)
(0.283027 0.484369 -4.37787e-19)
(0.197995 0.380621 0)
(0.0888778 0.507213 0)
(0.0264228 1.32728 0)
(0.0727142 2.46126 -4.07215e-19)
(0.100289 2.90983 -2.50497e-19)
(0.422593 0.411474 0)
(0.91571 0.866941 0)
(1.11211 1.07927 1.99332e-19)
(1.14868 1.12556 -2.19878e-19)
(1.11575 1.12632 9.52034e-20)
(1.05448 1.09273 3.64275e-20)
(0.981661 1.05497 2.77627e-20)
(0.904941 1.01543 -2.16154e-20)
(0.817836 0.972186 7.97742e-20)
(0.718491 0.921989 -1.30252e-18)
(0.614747 0.863585 1.64708e-19)
(0.519176 0.802301 8.7485e-19)
(0.42393 0.734331 -1.10476e-18)
(0.347085 0.637194 -1.21115e-18)
(0.267331 0.545869 4.07841e-19)
(0.19147 0.679552 0)
(0.123161 1.55478 5.65781e-19)
(0.124105 2.69234 6.21796e-19)
(0.132217 3.08764 -6.95242e-19)
(0.123757 3.22205 7.47433e-19)
(0.421248 0.421837 0)
(0.91002 0.886068 3.5512e-19)
(1.10256 1.10087 -4.99399e-20)
(1.13796 1.14787 3.10967e-19)
(1.10479 1.14896 -9.99315e-20)
(1.0436 1.11545 0)
(0.970922 1.078 0)
(0.893925 1.0387 0)
(0.806224 0.996344 4.49841e-19)
(0.706399 0.948087 6.01536e-20)
(0.599257 0.892642 0)
(0.496417 0.832429 -8.70201e-19)
(0.411859 0.76877 0)
(0.297348 0.687295 8.66976e-19)
(0.205477 0.753988 -5.83544e-19)
(0.155521 1.46185 -4.69735e-19)
(0.157719 2.68031 -1.10093e-18)
(0.179394 3.12681 -5.80698e-19)
(0.170225 3.26752 -7.89655e-19)
(0.156221 3.30779 5.98669e-19)
(0.419764 0.431297 -1.24311e-19)
(0.904196 0.903446 1.54269e-20)
(1.0934 1.12145 -5.57247e-20)
(1.12786 1.16968 -2.39932e-19)
(1.09426 1.17066 0)
(1.03301 1.13698 0)
(0.96048 1.09982 0)
(0.883592 1.06139 3.45189e-20)
(0.795521 1.02003 -5.68581e-19)
(0.693729 0.972728 0)
(0.584904 0.918746 0)
(0.483226 0.865773 0)
(0.368702 0.803792 0)
(0.305521 0.779261 6.32737e-19)
(0.271568 1.16658 1.55581e-18)
(0.249587 2.3828 4.61123e-19)
(0.26297 3.08322 9.30179e-19)
(0.257499 3.28344 -7.12892e-19)
(0.208636 3.3492 2.63786e-19)
(0.176071 3.36188 0)
(0.418275 0.440487 1.28102e-19)
(0.89878 0.92087 -7.90232e-19)
(1.08432 1.14115 -2.11919e-19)
(1.11773 1.19005 -4.64263e-20)
(1.08394 1.19158 2.32466e-20)
(1.02281 1.15824 -7.64362e-20)
(0.950452 1.12165 -3.37409e-21)
(0.873365 1.08374 -3.86218e-19)
(0.784917 1.04367 0)
(0.68316 0.999107 -7.60408e-20)
(0.571728 0.949379 6.91737e-20)
(0.461981 0.896039 0)
(0.37541 0.847825 0)
(0.319884 0.966291 -7.91699e-19)
(0.274109 1.85523 9.73536e-20)
(0.270307 2.94308 -3.45871e-19)
(0.292618 3.28766 7.2214e-19)
(0.265081 3.3862 5.23953e-19)
(0.199413 3.41065 -7.11766e-19)
(0.174606 3.42015 3.5315e-19)
(0.416315 0.449873 2.52421e-19)
(0.892475 0.937776 7.71339e-19)
(1.07478 1.16152 2.54265e-19)
(1.10742 1.21176 0)
(1.07324 1.21317 0)
(1.01214 1.17967 5.97589e-20)
(0.94004 1.14342 7.13863e-20)
(0.863306 1.10654 3.44452e-19)
(0.774836 1.06771 2.23271e-20)
(0.671456 1.02439 9.73586e-19)
(0.559892 0.976383 -1.14772e-18)
(0.450039 0.928669 0)
(0.370038 0.925532 0)
(0.334934 1.33245 -5.39043e-19)
(0.335658 2.48724 -6.48279e-19)
(0.378834 3.19816 0)
(0.4033 3.36985 -7.288e-19)
(0.333417 3.4326 4.98132e-20)
(0.263839 3.4773 3.40993e-19)
(0.241269 3.50261 -1.12097e-19)
(0.414131 0.45965 -4.80755e-19)
(0.886104 0.956695 -3.70639e-19)
(1.06439 1.18272 0)
(1.09603 1.23338 0)
(1.06182 1.23537 0)
(1.00106 1.20212 0)
(0.92936 1.16638 -8.38192e-20)
(0.852667 1.12989 3.03174e-19)
(0.764172 1.09227 0)
(0.661915 1.05203 -8.86564e-19)
(0.549455 1.00924 2.05875e-18)
(0.439962 0.970713 8.39689e-20)
(0.387972 1.04765 1.11368e-19)
(0.387275 1.75008 8.7863e-19)
(0.401495 2.90055 -4.72217e-19)
(0.439362 3.32044 0)
(0.422518 3.44382 2.0372e-19)
(0.336978 3.53206 9.1989e-20)
(0.261159 3.59591 1.51027e-19)
(0.185847 3.57537 -1.36924e-20)
(0.411217 0.469877 2.2898e-19)
(0.878134 0.975089 -3.79645e-19)
(1.05306 1.20513 0)
(1.08407 1.25713 -6.78845e-20)
(1.04955 1.25871 2.32369e-19)
(0.988989 1.22505 0)
(0.917836 1.18942 0)
(0.841898 1.15385 -5.26439e-19)
(0.753928 1.1174 -5.69334e-20)
(0.650658 1.07832 8.69432e-19)
(0.535948 1.03647 -9.78221e-19)
(0.446653 1.0166 5.70293e-19)
(0.40713 1.23232 0)
(0.423992 2.18578 -4.65863e-19)
(0.466152 3.14556 3.05691e-19)
(0.529548 3.42401 1.90852e-19)
(0.521755 3.52045 0)