/*--------------------------------*- C++ -*----------------------------------*\
| =========                 |                                                 |
| \\      /  F ield         | OpenFOAM: The Open Source CFD Toolbox           |
|  \\    /   O peration     | Version:  4.0                                   |
|   \\  /    A nd           | Web:      www.OpenFOAM.org                      |
|    \\/     M anipulation  |                                                 |
\*---------------------------------------------------------------------------*/
FoamFile
{
    version     2.0;
    format      ascii;
    class       surfaceScalarField;
    location    "3";
    object      phi;
}
// * * * * * * * * * * * * * * * * * * * * * * * * * * * * * * * * * * * * * //

dimensions      [0 3 -1 0 0 0 0];

internalField   nonuniform List<scalar> 
4262
(
0.103771
0.474217
0.0932267
0.70413
0.0712882
0.854242
0.0518461
1.01821
0.0367219
1.21364
0.0255097
1.44943
0.017386
1.73399
0.0108781
2.07754
0.00519674
2.49092
-0.000348772
2.98784
-0.00584187
2.98779
-0.0114232
2.49082
-0.017781
2.07739
-0.0258416
1.73392
-0.036984
1.44936
-0.0520404
1.21357
-0.0714291
1.01815
-0.0933238
0.854198
-0.103823
0.704085
0.474165
0.0704184
0.403799
0.0810417
0.693507
0.0754134
0.85987
0.0651222
1.0285
0.0529219
1.22584
0.0402942
1.46206
0.0283931
1.74589
0.0179471
2.08799
0.00857735
2.50029
-0.000709178
2.99712
-0.0098535
2.99693
-0.0190439
2.50002
-0.0293432
2.08769
-0.0410532
1.74563
-0.0535159
1.46182
-0.0655603
1.22562
-0.0757101
1.0283
-0.0812031
0.859691
-0.0704745
0.693357
0.40369
0.0362914
0.367507
0.0418905
0.687908
0.0407796
0.860981
0.039324
1.02995
0.0367237
1.22844
0.0321618
1.46662
0.0256112
1.75244
0.0175616
2.09604
0.00856647
2.50929
-0.00140528
3.0071
-0.0112212
3.00675
-0.0199009
2.50869
-0.0275867
2.09538
-0.0337226
1.75177
-0.0378794
1.46598
-0.0402435
1.22798
-0.0414167
1.02948
-0.0422847
0.860559
-0.0364432
0.687515
0.367247
0.0186474
0.34886
0.025676
0.680879
0.0293332
0.857324
0.0308414
1.02844
0.0299132
1.22937
0.0269564
1.46958
0.0221186
1.75728
0.0156671
2.10249
0.00771949
2.51724
-0.00166343
3.01648
-0.0110238
3.01611
-0.0186542
2.51633
-0.0246325
2.10136
-0.0289715
1.75611
-0.0314714
1.46848
-0.031917
1.22843
-0.0300578
1.02762
-0.0261532
0.856654
-0.0188808
0.680243
0.348366
0.00203457
0.346825
0.0061802
0.676734
0.0110586
0.852445
0.0146402
1.02486
0.0163368
1.22767
0.0160612
1.46985
0.0138176
1.75952
0.00994167
2.10637
0.0045505
2.52263
-0.00221326
3.02324
-0.00897836
3.02287
-0.0139503
2.5213
-0.01721
2.10462
-0.0188066
1.75771
-0.0185043
1.46818
-0.0162619
1.22618
-0.0122734
1.02363
-0.00715032
0.851531
-0.00244219
0.675535
0.345924
-0.000709517
0.347535
0.000847679
0.675177
0.00367039
0.849622
0.00658764
1.02195
0.00873658
1.22552
0.00960581
1.46898
0.0089279
1.7602
0.00662015
2.10867
0.00269387
2.52655
-0.00252669
3.02846
-0.0077065
3.02805
-0.0112237
2.52481
-0.0129217
2.10632
-0.0128399
1.75762
-0.0112055
1.46654
-0.00841888
1.2234
-0.00495404
1.02016
-0.00150391
0.848081
0.000466707
0.673564
0.346391
0.000160236
0.347375
0.000780158
0.674557
0.00175439
0.848648
0.00280995
1.02089
0.0038211
1.22451
0.00456316
1.46824
0.00456737
1.76019
0.00318292
2.11006
0.00051891
2.52922
-0.00314534
3.03213
-0.00650088
3.03141
-0.00833232
2.52665
-0.00871847
2.1067
-0.00795762
1.75686
-0.00654224
1.46513
-0.00481809
1.22167
-0.00303253
1.01838
-0.00139759
0.846446
-0.000389442
0.672556
0.346002
0.000308675
0.347066
0.000678852
0.674186
0.00114108
0.848186
0.00159875
1.02043
0.00191131
1.2242
0.00186437
1.46829
0.00131851
1.76074
0.0001938
2.11118
-0.001693
2.53111
-0.00423803
3.03467
-0.00619752
3.03337
-0.00706117
2.52751
-0.00708789
2.10673
-0.00643992
1.75622
-0.00534265
1.46403
-0.00403797
1.22037
-0.00273451
1.01707
-0.00155833
0.84527
-0.000618988
0.671617
0.345383
-6.47389e-05
0.347131
-4.62977e-05
0.674168
8.94996e-06
0.848131
6.36517e-05
1.02038
1.36847e-05
1.22425
-0.000282573
1.46859
-0.000943126
1.7614
-0.00201091
2.11225
-0.00351076
2.53261
-0.00526171
3.03642
-0.00633679
3.03444
-0.00665758
2.52783
-0.00629954
2.10637
-0.00547502
1.75539
-0.00440205
1.46296
-0.00326178
1.21923
-0.00217082
1.01598
-0.00118685
0.844286
-0.00040232
0.670832
0.34498
-0.000204377
0.347335
-0.000371266
0.674335
-0.000579683
0.848339
-0.000910738
1.02071
-0.00139338
1.22473
-0.00203645
1.46923
-0.00289067
1.76225
-0.00398474
2.11335
-0.00528349
2.5339
-0.00653715
3.03768
-0.00707262
3.03498
-0.00688312
2.52764
-0.00614837
2.10564
-0.00513325
1.75438
-0.00401516
1.46184
-0.00292132
1.21813
-0.0019242
1.01499
-0.0010565
0.843418
-0.000354897
0.67013
0.344625
-0.00034202
0.347677
-0.00076206
0.674755
-0.00126839
0.848845
-0.00191238
1.02135
-0.00269305
1.22551
-0.00362338
1.47016
-0.00472213
1.76335
-0.00596295
2.11459
-0.00723304
2.53517
-0.00824076
3.03868
-0.00838943
3.03513
-0.00775151
2.527
-0.00669265
2.10458
-0.00545913
1.75314
-0.00421716
1.4606
-0.00306291
1.21698
-0.0020411
1.01396
-0.00116212
0.842539
-0.000431618
0.6694
0.344194
-0.000477759
0.348155
-0.00116998
0.675447
-0.00197603
0.849652
-0.0029101
1.02229
-0.00399481
1.2266
-0.00525113
1.47142
-0.00666169
1.76476
-0.00814841
2.11607
-0.00952058
2.53655
-0.010395
3.03956
-0.0102152
3.03495
-0.0092068
2.52599
-0.00780789
2.10318
-0.00629699
1.75163
-0.00483815
1.45914
-0.00351388
1.21566
-0.00235457
1.0128
-0.0013578
0.841543
-0.000516874
0.668559
0.343677
-0.000634999
0.34879
-0.00156403
0.676376
-0.00265395
0.850741
-0.00392609
1.02356
-0.00539788
1.22807
-0.00706717
1.47308
-0.00888688
1.76658
-0.0107283
2.11792
-0.0123197
2.53814
-0.0131635
3.0404
-0.0126891
3.03447
-0.0112878
2.52459
-0.00948558
2.10138
-0.00760582
1.74975
-0.00582546
1.45736
-0.00422655
1.21406
-0.00283452
1.01141
-0.00163934
0.840347
-0.00062642
0.667546
0.34305
-0.000825225
0.349615
-0.00203807
0.677589
-0.00346777
0.852171
-0.00514184
1.02523
-0.00707361
1.23
-0.00924642
1.47526
-0.011583
1.76892
-0.0138973
2.12023
-0.0158214
2.54006
-0.0167144
3.0413
-0.0159439
3.0337
-0.0140792
2.52273
-0.0117718
2.09907
-0.00940901
1.74739
-0.00719424
1.45515
-0.00521713
1.21208
-0.00350142
1.0097
-0.00202953
0.838875
-0.000778261
0.666295
0.342272
-0.00106612
0.350681
-0.00263687
0.67916
-0.00449144
0.854026
-0.0066635
1.02741
-0.00916464
1.2325
-0.0119654
1.47806
-0.014955
1.77191
-0.0178798
2.12315
-0.0202542
2.54244
-0.0212576
3.0423
-0.0201528
3.0326
-0.0177182
2.52029
-0.0147704
2.09612
-0.0117831
1.7444
-0.00899969
1.45236
-0.00652353
1.2096
-0.00437893
1.00755
-0.00254031
0.837037
-0.00097552
0.66473
0.341297
-0.00137742
0.352058
-0.00340451
0.681187
-0.00579661
0.856418
-0.00859687
1.03021
-0.0118168
1.23572
-0.015413
1.48165
-0.0192335
1.77573
-0.0229395
2.12686
-0.0258971
2.54539
-0.0270587
3.04346
-0.0255457
3.03108
-0.0223941
2.51714
-0.018632
2.09236
-0.0148454
1.74061
-0.0113304
1.44885
-0.00821015
1.20648
-0.00551079
1.00485
-0.00319745
0.834724
-0.00122792
0.66276
0.340069
-0.00178236
0.353841
-0.00439899
0.683803
-0.00748431
0.859503
-0.0110922
1.03381
-0.0152325
1.23986
-0.0198433
1.48627
-0.0247198
1.78061
-0.0294143
2.13155
-0.0331035
2.54908
-0.0344551
3.04481
-0.0324172
3.02904
-0.0283525
2.51308
-0.0235537
2.08756
-0.0187481
1.73581
-0.0142996
1.4444
-0.0103569
1.20254
-0.00694949
1.00145
-0.00403091
0.831805
-0.00154688
0.660276
0.338522
-0.00231497
0.356156
-0.00569463
0.687183
-0.00967431
0.863483
-0.0143248
1.03846
-0.0196532
1.24519
-0.02557
1.49218
-0.0317953
1.78683
-0.0377352
2.13749
-0.0423225
2.55367
-0.0438721
3.04636
-0.0411396
3.02631
-0.0359061
2.50784
-0.0297899
2.08144
-0.0236928
1.72971
-0.0180621
1.43877
-0.0130779
1.19756
-0.00877293
0.99714
-0.00508652
0.828119
-0.00195012
0.65714
0.336572
-0.00302398
0.35918
-0.00741346
0.691573
-0.0125712
0.86864
-0.0185815
1.04447
-0.0254482
1.25206
-0.0330421
1.49978
-0.0409796
1.79477
-0.0484678
2.14498
-0.0541245
2.55933
-0.0558376
3.04808
-0.0521705
3.02265
-0.04544
2.50111
-0.0376547
2.07366
-0.0299251
1.72198
-0.0228009
1.43164
-0.0165022
1.19126
-0.0110653
0.991703
-0.00641123
0.823464
-0.00245448
0.653183
0.334117
-0.00397638
0.363156
-0.00968322
0.697279
-0.0163824
0.87534
-0.0241844
1.05228
-0.0330771
1.26095
-0.042854
1.50955
-0.0529689
1.80488
-0.0623535
2.15437
-0.0692323
2.56621
-0.0710009
3.04984
-0.0660672
3.01771
-0.0574277
2.49247
-0.0475423
2.06377
-0.0377623
1.7122
-0.0287589
1.42264
-0.0208033
1.1833
-0.0139408
0.984841
-0.00807122
0.817595
-0.00308579
0.648198
0.331031
-0.00534668
0.368503
-0.0129126
0.704845
-0.0217149
0.884142
-0.0318986
1.06246
-0.0434229
1.27248
-0.0559793
1.52211
-0.0687813
1.81769
-0.0803901
2.16598
-0.088554
2.57437
-0.090131
3.05142
-0.083477
3.01106
-0.0724313
2.48143
-0.059944
2.05128
-0.0476279
1.69989
-0.036293
1.4113
-0.0262721
1.17328
-0.0176181
0.976187
-0.0102049
0.810182
-0.00390114
0.641894
0.32713
-0.00706499
0.375568
-0.0169648
0.714745
-0.0286323
0.895809
-0.0421169
1.07594
-0.0572896
1.28765
-0.0735333
1.53835
-0.0896805
1.83383
-0.103819
2.18011
-0.113192
2.58374
-0.114156
3.05238
-0.105182
3.00208
-0.0911269
2.46737
-0.075439
2.0356
-0.0599816
1.68443
-0.045709
1.39703
-0.0330451
1.16062
-0.0220991
0.965241
-0.0127414
0.800824
-0.00484285
0.633996
0.322287
-0.0106745
0.386242
-0.0246942
0.728765
-0.0402988
0.911414
-0.0581011
1.09375
-0.0776669
1.30721
-0.0981322
1.55882
-0.117848
1.85355
-0.13436
2.19663
-0.144415
2.5938
-0.143958
3.05193
-0.131875
2.99
-0.114188
2.44969
-0.094767
2.01618
-0.0756834
1.66535
-0.058017
1.37937
-0.0422615
1.14486
-0.0285437
0.951523
-0.0167185
0.788999
-0.00646028
0.623737
0.315827
-0.0141574
0.4004
-0.0324586
0.747066
-0.0546542
0.93361
-0.0792813
1.11837
-0.105424
1.33336
-0.131501
1.58489
-0.155265
1.87731
-0.173869
2.21523
-0.183812
2.60374
-0.180901
3.04902
-0.164745
2.97384
-0.142676
2.42762
-0.11886
1.99236
-0.095412
1.6419
-0.0734228
1.35738
-0.053446
1.12489
-0.035707
0.933784
-0.0202535
0.773545
-0.0076901
0.611174
0.308137
-0.0292738
0.429674
-0.0578247
0.775617
-0.0871963
0.962981
-0.11819
1.14937
-0.149871
1.36504
-0.180037
1.61506
-0.205974
1.90325
-0.224574
2.23383
-0.232286
2.61145
-0.225026
3.04176
-0.203584
2.9524
-0.176558
2.40059
-0.148159
1.96396
-0.120481
1.61422
-0.0946078
1.3315
-0.071098
1.10138
-0.0501563
0.912842
-0.031279
0.754668
-0.0124734
0.592368
0.295664
-0.0416729
0.471346
-0.0899073
0.823851
-0.134025
1.0071
-0.1754
1.19074
-0.213696
1.40333
-0.246875
1.64824
-0.272847
1.92922
-0.288995
2.24998
-0.292148
2.61461
-0.278462
3.02807
-0.250391
2.92433
-0.217843
2.36804
-0.184599
1.93072
-0.15232
1.58194
-0.12167
1.30085
-0.0928472
1.07255
-0.0658861
0.885881
-0.0406637
0.729446
-0.0161892
0.567894
0.279474
-0.0262441
0.497591
-0.0673159
0.864923
-0.112266
1.05205
-0.158526
1.237
-0.20298
1.44779
-0.244621
1.68988
-0.281938
1.96654
-0.312265
2.28031
-0.331369
2.63371
-0.332662
3.02936
-0.312777
2.90445
-0.280247
2.33551
-0.241072
1.89154
-0.198885
1.53975
-0.156063
1.25803
-0.114281
1.03077
-0.0747638
0.846364
-0.0390401
0.693722
-0.0126799
0.541534
0.266795
-0.00537067
0.502961
-0.0292247
0.888777
-0.0652421
1.08807
-0.103233
1.27499
-0.141658
1.48621
-0.178989
1.72721
-0.212596
2.00015
-0.239272
2.30698
-0.254795
2.64923
-0.253178
3.02775
-0.232331
2.8836
-0.201485
2.30467
-0.166794
1.85685
-0.131838
1.5048
-0.0987333
1.22493
-0.0686312
1.00067
-0.0420036
0.819736
-0.0191181
0.670836
-0.00357242
0.525988
0.263222
-0.00531039
0.508272
-0.0266619
0.910129
-0.0519616
1.11337
-0.0797858
1.30282
-0.10979
1.51622
-0.140257
1.75768
-0.168459
2.02835
-0.190978
2.3295
-0.203462
2.66172
-0.200426
3.02471
-0.180755
2.86393
-0.153676
2.27759
-0.124911
1.82809
-0.0974218
1.47731
-0.0726167
1.20012
-0.0509983
0.979051
-0.0325977
0.801336
-0.0172616
0.6555
-0.00440327
0.51313
0.258819
-0.00593031
0.514202
-0.0242742
0.928472
-0.0457998
1.13489
-0.0685608
1.32558
-0.0931524
1.54081
-0.118257
1.78278
-0.14178
2.05187
-0.160627
2.34835
-0.170616
2.67171
-0.166611
3.02071
-0.148208
2.84552
-0.124295
2.25367
-0.0998368
1.80363
-0.0771097
1.45458
-0.0569984
1.18001
-0.0396833
0.961736
-0.0250385
0.786691
-0.0129231
0.643385
-0.00354086
0.503747
0.255278
-0.00626096
0.520463
-0.0221009
0.944312
-0.0406472
1.15344
-0.0610255
1.34596
-0.0830278
1.56281
-0.105244
1.805
-0.125962
2.07259
-0.142418
2.3648
-0.150672
2.67996
-0.145856
3.01589
-0.128103
2.82777
-0.106131
2.2317
-0.0843527
1.78185
-0.0645808
1.43481
-0.0473945
1.16282
-0.0328108
0.947152
-0.0206175
0.774497
-0.0106043
0.633372
-0.00295174
0.496095
0.252326
-0.00684371
0.527307
-0.0211735
0.958642
-0.0377983
1.17006
-0.056672
1.36483
-0.0771018
1.58324
-0.0978257
1.82572
-0.117157
2.09192
-0.132397
2.38004
-0.139661
2.68722
-0.134129
3.01036
-0.116313
2.80995
-0.095162
2.21055
-0.0748385
1.76153
-0.0568305
1.4168
-0.041459
1.14745
-0.0285798
0.934273
-0.0178925
0.76381
-0.00913387
0.624613
-0.00245467
0.489415
0.249872
-0.007473
0.53478
-0.0210903
0.972259
-0.0368149
1.18579
-0.0549022
1.38292
-0.0744408
1.60278
-0.0944404
1.84572
-0.113239
2.11072
-0.12808
2.39489
-0.134945
2.69409
-0.128759
3.00417
-0.110186
2.79138
-0.0888532
2.18922
-0.06899
1.74166
-0.0518609
1.39967
-0.0375352
1.13313
-0.0257001
0.922438
-0.0159671
0.754077
-0.00802646
0.616672
-0.00200884
0.483398
0.247863
-0.00804082
0.54282
-0.0214921
0.985711
-0.0369462
1.20124
-0.0547798
1.40075
-0.074015
1.62201
-0.0938774
1.86558
-0.112746
2.12959
-0.127791
2.40993
-0.134744
2.70104
-0.127989
2.99742
-0.108
2.77139
-0.0855174
2.16674
-0.0652399
1.72139
-0.0483226
1.38275
-0.0345543
1.11936
-0.0233979
0.911281
-0.0143368
0.745016
-0.0069979
0.609333
-0.00152825
0.477928
0.246334
-0.00857365
0.551394
-0.02214
0.999277
-0.0376534
1.21676
-0.0555589
1.41866
-0.0749216
1.64138
-0.0951102
1.88577
-0.114526
2.149
-0.130277
2.42568
-0.13778
2.70854
-0.130632
2.99027
-0.108649
2.74941
-0.0840195
2.14211
-0.0624622
1.69983
-0.0451988
1.36549
-0.0316883
1.10585
-0.0210614
0.900654
-0.0125931
0.736548
-0.00579923
0.60254
-0.000885958
0.473015
0.245449
-0.00905933
0.560453
-0.0228253
1.01304
-0.0385776
1.23251
-0.0567335
1.43681
-0.0764984
1.66114
-0.0973367
1.90661
-0.11767
2.16934
-0.13457
2.44258
-0.143102
2.71708
-0.135853
2.98302
-0.111463
2.72502
-0.0836171
2.11426
-0.0598161
1.67603
-0.041649
1.34732
-0.0282146
1.09241
-0.0181511
0.890591
-0.0104064
0.728803
-0.00431639
0.59645
-9.75322e-05
0.468796
0.245351
-0.00946513
0.569919
-0.0234592
1.02704
-0.0395586
1.24861
-0.0580495
1.4553
-0.0783595
1.68145
-0.100016
1.92827
-0.121512
2.19083
-0.13993
2.461
-0.149982
2.72713
-0.143063
2.9761
-0.116062
2.69802
-0.0838597
2.08206
-0.0566476
1.64882
-0.0369111
1.32759
-0.0234214
1.07892
-0.0140852
0.881255
-0.0074044
0.722122
-0.00228671
0.591332
0.000950602
0.465559
0.246302
-0.00976968
0.579688
-0.0239731
1.04124
-0.0404116
1.26505
-0.0592394
1.47413
-0.0801246
1.70234
-0.102658
1.9508
-0.125471
2.21365
-0.145724
2.48125
-0.157821
2.73923
-0.151833
2.97012
-0.122228
2.66841
-0.0845265
2.04436
-0.0524231
1.61671
-0.0302124
1.30538
-0.0165448
1.06526
-0.00810539
0.872815
-0.00286647
0.716883
0.000667604
0.587798
0.00249632
0.46373
0.248798
-0.00996281
0.589651
-0.0243251
1.0556
-0.0410536
1.28177
-0.0601964
1.49328
-0.0816404
1.72378
-0.105043
1.9742
-0.129233
2.23784
-0.151538
2.50356
-0.166178
2.75387
-0.161861
2.9658
-0.129885
2.63644
-0.0856316
2.00011
-0.0468013
1.57788
-0.0209214
1.2795
-0.00706723
1.0514
-0.000251805
0.866
0.00332986
0.713302
0.00483152
0.586296
0.00457133
0.46399
0.253369
-0.0100646
0.599716
-0.0245291
1.07007
-0.0414491
1.29869
-0.0608238
1.51265
-0.0827083
1.74566
-0.106864
1.99836
-0.132362
2.26333
-0.156832
2.52803
-0.174501
2.77154
-0.172798
2.9641
-0.139025
2.60266
-0.0871988
1.94828
-0.0392003
1.52988
-0.00827911
1.24858
0.00569948
1.03742
0.0104324
0.861267
0.0104463
0.713288
0.00950585
0.587237
0.00698438
0.466512
0.260354
-0.010073
0.609789
-0.0245524
1.08455
-0.0415363
1.31568
-0.0610245
1.53214
-0.0832183
1.76786
-0.108018
2.02316
-0.134753
2.29007
-0.161445
2.55472
-0.182595
2.79268
-0.184587
2.96609
-0.150032
2.56811
-0.0899121
1.88816
-0.02949
1.46946
0.00786031
1.21123
0.0245738
1.02071
0.0271304
0.858711
0.0223759
0.718042
0.0148638
0.594749
0.00743935
0.473936
0.267793
-0.0100068
0.619795
-0.0243978
1.09894
-0.041312
1.33259
-0.0607999
1.55163
-0.083171
1.79023
-0.108468
2.04846
-0.136265
2.31787
-0.16499
2.58344
-0.189799
2.81749
-0.196478
2.97277
-0.162379
2.53401
-0.0932904
1.81907
-0.0159587
1.39213
0.0334414
1.16182
0.0510677
1.00308
0.0483019
0.861476
0.0387209
0.727623
0.0283983
0.605071
0.0159474
0.486387
0.28374
-0.00984734
0.629643
-0.0240649
1.11316
-0.0408109
1.34934
-0.0601686
1.57098
-0.0825498
1.81261
-0.108145
2.07405
-0.136797
2.34652
-0.167394
2.61404
-0.19603
2.84613
-0.208938
2.98567
-0.178044
2.50311
-0.101238
1.74227
-0.00387476
1.29477
0.064989
1.09296
0.0810398
0.987033
0.0629229
0.879593
0.0397973
0.750749
0.0207091
0.62416
0.0066913
0.500405
0.290432
-0.00966001
0.639303
-0.0235867
1.12708
-0.040043
1.36579
-0.0591429
1.59008
-0.0813635
1.83483
-0.107066
2.09975
-0.136376
2.37583
-0.16869
2.64636
-0.200894
2.87833
-0.220277
3.00506
-0.193051
2.47589
-0.105958
1.65517
0.0193648
1.16944
0.116242
0.996084
0.130445
0.972829
0.0922634
0.917775
0.0588009
0.784211
0.0372608
0.6457
0.0221282
0.515537
0.31256
-0.00937065
0.648673
-0.0229714
1.14068
-0.0390456
1.38187
-0.0577507
1.60879
-0.0796665
1.85675
-0.105295
2.12538
-0.135045
2.40558
-0.168847
2.68016
-0.204549
2.91404
-0.231811
3.03232
-0.214942
2.45902
-0.126026
1.56626
0.034843
1.00857
0.179481
0.851446
0.211475
0.940836
0.14925
0.979999
0.0824321
0.85103
0.0434408
0.684691
0.0330549
0.525923
0.345615
-0.0089816
0.657655
-0.0222184
1.15392
-0.0378167
1.39747
-0.0560768
1.62705
-0.0775675
1.87824
-0.102958
2.15077
-0.132915
2.43553
-0.16792
2.71516
-0.2069
2.95302
-0.241559
3.06698
-0.232982
2.45044
-0.133808
1.46708
0.0874891
0.787277
0.311306
0.62763
0.30514
0.947001
0.138135
1.147
0.0276013
0.961563
0.00319744
0.709095
0.0482659
0.480855
0.393881
-0.00881784
0.666473
-0.0217409
1.16684
-0.0371645
1.41289
-0.0555502
1.64543
-0.0775429
1.90023
-0.10406
2.17729
-0.136245
2.46772
-0.175395
2.75431
-0.221966
2.99959
-0.270545
3.11556
-0.2804
2.4603
-0.168083
1.35477
0.0754038
0.54379
0.280792
0.422242
0.231512
0.99628
0.00612735
1.37239
-0.247703
1.21539
-0.546792
1.00818
-1.0323
0.966361
0.99919
-1.63761
-0.00861277
0.675086
-0.0210981
1.17933
-0.0361204
1.42791
-0.0542469
1.66356
-0.0762566
1.92224
-0.103208
2.20424
-0.136695
2.50121
-0.178805
2.79642
-0.231906
3.05269
-0.295294
3.17895
-0.332569
2.49757
-0.26568
1.28788
-0.116896
0.395006
-0.0676354
0.372981
-0.165561
1.09421
-0.458587
1.66542
-0.911598
1.6684
-1.46938
1.56596
-1.96917
1.46616
1.28257
-2.25255
-0.00820709
0.683293
-0.0202991
1.19142
-0.0349198
1.44253
-0.052725
1.68137
-0.0746528
1.94417
-0.101942
2.23153
-0.13657
2.53583
-0.181445
2.8413
-0.241073
3.11231
-0.320777
3.25865
-0.400593
2.57739
-0.456422
1.34371
-0.559554
0.498139
-0.753974
0.567401
-1.09025
1.43048
-1.50975
2.08492
-1.91048
2.06914
-2.20602
1.8615
-2.36077
1.62091
1.3553
-2.4335
-0.00771766
0.69101
-0.0193312
1.20303
-0.0335688
1.45677
-0.0509682
1.69877
-0.0727422
1.96594
-0.100221
2.25901
-0.135759
2.57137
-0.183128
2.88867
-0.249244
3.17843
-0.34834
3.35775
-0.489197
2.71825
-0.701218
1.55573
-1.02208
0.819
-1.40694
0.952261
-1.84475
1.86829
-2.16354
2.40371
-2.3376
2.2432
-2.42902
1.95292
-2.46685
1.65874
1.37526
-2.48681
-0.00719851
0.698209
-0.0183149
1.21415
-0.0320218
1.47048
-0.0490751
1.71582
-0.070575
1.98744
-0.0981073
2.28654
-0.134347
2.60761
-0.183879
2.9382
-0.255831
3.25038
-0.371934
3.47385
-0.55501
2.90132
-0.833707
1.83442
-1.24232
1.22762
-1.72956
1.4395
-2.15251
2.29123
-2.32147
2.57267
-2.39386
2.31559
-2.42827
1.98733
-2.44498
1.67546
1.39647
-2.4662
-0.0071339
0.705343
-0.0183662
1.22538
-0.0320861
1.4842
-0.04953
1.73326
-0.0713709
2.00928
-0.0995796
2.31475
-0.137022
2.64505
-0.188958
2.99013
-0.266362
3.32779
-0.397065
3.60455
-0.61617
3.12043
-0.955965
2.17422
-1.42456
1.69621
-1.896
1.91095
-2.18331
2.57854
-2.27842
2.66777
-2.33829
2.37546
-2.3773
2.02634
-2.40966
1.70783
1.42694
-2.44013
-0.00752034
0.712863
-0.0194929
1.23735
-0.0340809
1.49879
-0.0525
1.75168
-0.0754559
2.03224
-0.105038
2.34433
-0.144278
2.68429
-0.19901
3.04487
-0.281728
3.4105
-0.424723
3.74755
-0.668582
3.36429
-1.03352
2.53915
-1.4984
2.16109
-1.9153
2.32785
-2.11051
2.77375
-2.18163
2.73889
-2.22214
2.41596
-2.26586
2.07006
-2.30603
1.74799
1.45485
-2.33394
-0.00790334
0.720766
-0.0206647
1.25012
-0.0362485
1.51437
-0.0556179
1.77105
-0.0797248
2.05635
-0.110654
2.37526
-0.151574
2.72521
-0.208739
3.10203
-0.295564
3.49733
-0.445897
3.89788
-0.696655
3.61504
-1.05127
2.89376
-1.47168
2.5815
-1.82419
2.68036
-1.96474
2.91431
-2.01452
2.78867
-2.06777
2.46921
-2.18967
2.19196
-2.30323
1.86156
1.52015
-2.36853
-0.00833564
0.729102
-0.0219035
1.26368
-0.0384777
1.53094
-0.05889
1.79146
-0.0841527
2.08161
-0.116375
2.40749
-0.158793
2.76763
-0.217866
3.1611
-0.307239
3.5867
-0.459672
4.05031
-0.702028
3.8574
-1.01929
3.21103
-1.36435
2.92656
-1.63389
2.94991
-1.75532
3.03573
-1.8481
2.88145
-1.95366
2.57477
-2.05393
2.29224
-2.13445
1.94207
1.53681
-2.1511
-0.00875999
0.737862
-0.0231541
1.27808
-0.0407495
1.54854
-0.0622173
1.81293
-0.0886261
2.10802
-0.122017
2.44088
-0.165689
2.8113
-0.226096
3.22151
-0.316509
3.67712
-0.46653
4.20034
-0.691669
4.08254
-0.966584
3.48595
-1.24487
3.20484
-1.45456
3.1596
-1.57693
3.15811
-1.70485
3.00936
-1.82724
2.69715
-1.81849
2.28349
-1.82931
1.95289
1.64284
-1.93535
-0.00908351
0.746946
-0.0243495
1.29334
-0.0428619
1.56705
-0.0651616
1.83523
-0.0922347
2.13509
-0.126017
2.47466
-0.169614
2.8549
-0.228983
3.28088
-0.31595
3.76408
-0.455552
4.33994
-0.652882
4.27987
-0.877814
3.71088
-1.09515
3.42217
-1.25494
3.3194
-1.33721
3.24037
-1.37807
3.05023
-1.38466
2.70374
-1.31575
2.21458
-0.915375
1.55252
0.727464
-0.00929139
0.756237
-0.0255045
1.30956
-0.0452178
1.58677
-0.0689511
1.85896
-0.0977394
2.16388
-0.133596
2.51052
-0.179688
2.90099
-0.241964
3.34316
-0.331712
3.85383
-0.470817
4.47904
-0.656489
4.46554
-0.852235
3.90662
-1.0266
3.59653
-1.13222
3.42503
-1.15245
3.26059
-1.09651
2.9943
-0.974743
2.58197
-0.813287
2.05312
-0.49793
1.23716
0.229535
-0.0093936
0.765631
-0.0264993
1.32666
-0.0473954
1.60766
-0.0724663
1.88404
-0.102877
2.19429
-0.140575
2.54821
-0.188755
2.94917
-0.253181
3.40758
-0.343981
3.94463
-0.479368
4.61443
-0.647908
4.63408
-0.806862
4.06558
-0.928413
3.71808
-0.981437
3.47805
-0.971521
3.25068
-0.88985
2.91263
-0.760139
2.45226
-0.584879
1.87786
-0.25464
0.906925
-0.0251052
-0.00936876
0.774999
-0.0272876
1.34458
-0.0492665
1.62964
-0.0755591
1.91033
-0.107385
2.22611
-0.146564
2.58739
-0.196302
2.99891
-0.261846
3.47313
-0.35175
4.03454
-0.479614
4.74229
-0.626798
4.78126
-0.746785
4.18556
-0.813092
3.78439
-0.813272
3.47823
-0.763004
3.20041
-0.659848
2.80947
-0.474313
2.26673
-0.222925
1.62647
-0.009455
0.693455
-0.0345602
-0.00915175
0.784151
-0.0277619
1.36319
-0.050615
1.65249
-0.0779326
1.93765
-0.1109
2.25908
-0.151166
2.62766
-0.201923
3.04967
-0.267647
3.53885
-0.354805
4.1217
-0.470911
4.8584
-0.591217
4.90157
-0.670859
4.2652
-0.685581
3.79911
-0.623796
3.41645
-0.490241
3.06686
-0.325214
2.64444
-0.13863
2.08014
0.0351431
1.4527
0.0591289
0.669469
0.0245687
-0.00872189
0.792873
-0.0277943
1.38226
-0.0512929
1.67599
-0.0794219
1.96577
-0.113145
2.2928
-0.154041
2.66855
-0.205094
3.10072
-0.269658
3.60341
-0.351651
4.20369
-0.45471
4.96146
-0.547055
4.99391
-0.586034
4.30418
-0.556054
3.76913
-0.44691
3.3073
-0.262228
2.88217
-0.0593013
2.44152
0.122548
1.89829
0.22018
1.35507
0.153963
0.735686
0.178532
-0.00825655
0.80113
-0.0273891
1.4014
-0.0512091
1.69981
-0.0798061
1.99437
-0.113793
2.32679
-0.154777
2.70954
-0.205123
3.15107
-0.267053
3.66534
-0.34227
4.27891
-0.429288
5.04848
-0.496334
5.06096
-0.503793
4.31164
-0.445202
3.71054
-0.320657
3.18276
-0.141817
2.70333
0.0491994
2.2505
0.185611
1.76188
0.243132
1.29755
0.155393
0.823426
0.333924
-0.00727353
0.808403
-0.0264827
1.42061
-0.0503221
1.72365
-0.0789456
2.02299
-0.112542
2.36039
-0.152911
2.74991
-0.201693
3.19985
-0.260285
3.72394
-0.328212
4.34683
-0.397946
5.11821
-0.441928
5.10494
-0.428373
4.29809
-0.358945
3.64111
-0.242004
3.06581
-0.0946326
2.55596
0.0549385
2.10093
0.145532
1.67129
0.166252
1.27683
0.0886124
0.901065
0.422537
-0.00620074
0.814604
-0.0250752
1.43948
-0.0484408
1.74702
-0.0763235
2.05088
-0.108892
2.39296
-0.147992
2.78901
-0.194245
3.2461
-0.248436
3.77813
-0.308797
4.40719
-0.365683
5.1751
-0.389604
5.12886
-0.362636
4.27112
-0.292805
3.57128
-0.194092
2.9671
-0.0835092
2.44538
0.0205231
1.99689
0.0803872
1.61142
0.0877181
1.26949
0.0390268
0.949757
0.461563
-0.00524017
0.819844
-0.0226869
1.45693
-0.0451632
1.76949
-0.0716584
2.07737
-0.102592
2.42389
-0.139445
2.82586
-0.182165
3.28882
-0.230705
3.82667
-0.28267
4.45916
-0.327137
5.21956
-0.336946
5.13867
-0.306371
4.24054
-0.242221
3.50714
-0.163469
2.88835
-0.0841552
2.36607
-0.0165777
1.92932
0.025731
1.56912
0.0337562
1.26147
0.0144477
0.969065
0.476011
-0.00270581
0.82255
-0.0188764
1.4731
-0.0401549
1.79077
-0.0642267
2.10144
-0.0929589
2.45262
-0.126921
2.85982
-0.165041
3.32694
-0.207366
3.86899
-0.250698
4.50249
-0.283125
5.25199
-0.284324
5.13987
-0.255376
4.2116
-0.200772
3.45253
-0.139576
2.82715
-0.0827124
2.3092
-0.0372481
1.88385
-0.0062658
1.53813
0.00589361
1.24931
0.00430716
0.970651
0.480318
-0.000302315
0.822852
-0.0139226
1.48672
-0.0334244
1.81027
-0.0545469
2.12257
-0.0803791
2.47845
-0.110133
2.88958
-0.142983
3.35979
-0.178795
3.9048
-0.214007
4.5377
-0.238519
5.2765
-0.235104
5.13646
-0.207289
4.18378
-0.163305
3.40855
-0.116707
2.78055
-0.0755575
2.26805
-0.0433058
1.8516
-0.0194635
1.51429
-0.0056845
1.23553
0.000636475
0.96433
0.480955
0.00295255
0.8199
-0.00763544
1.49731
-0.0240701
1.82671
-0.0416757
2.14017
-0.0648608
2.50164
-0.0884937
2.91321
-0.115448
3.38675
-0.144698
3.93405
-0.172337
4.56534
-0.19044
5.2946
-0.185194
5.13121
-0.16081
4.1594
-0.127275
3.37501
-0.0929159
2.7462
-0.062615
2.23775
-0.0388645
1.82785
-0.0207988
1.49623
-0.00737417
1.22211
0.000145096
0.956811
0.4811
0.00575091
0.814149
-0.00138818
1.50445
-0.0125465
1.83787
-0.0267263
2.15435
-0.0442566
2.51917
-0.06088
2.92983
-0.0823255
3.40819
-0.104379
3.95611
-0.125034
4.586
-0.13829
5.30786
-0.133383
5.1263
-0.114369
4.14038
-0.0906456
3.35129
-0.0671053
2.72265
-0.0464482
2.2171
-0.0285064
1.80991
-0.0160172
1.48374
-0.00581628
1.21191
0.000474527
0.95052
0.481574
0.0101272
0.804022
0.00880034
1.50577
0.00379974
1.84287
-0.00787196
2.16602
-0.015827
2.52712
-0.0281159
2.94212
-0.0423845
3.42246
-0.0566263
3.97035
-0.0710288
4.6004
-0.0806152
5.31745
-0.077831
5.12352
-0.0655822
4.12813
-0.0517873
3.33749
-0.0371515
2.70802
-0.0266057
2.20655
-0.0159606
1.79926
-0.00779023
1.47557
-0.00257746
1.20669
0.00101794
0.946925
0.482592
0.0137787
0.790243
0.0185328
1.50102
0.0186567
1.84274
0.0182826
2.1664
0.0174273
2.52798
0.0125147
2.94703
0.00752354
3.42745
-0.000716569
3.97859
-0.00880873
4.60849
-0.0155278
5.32417
-0.0162899
5.12428
-0.0125114
4.12436
-0.008295
3.33328
-0.00520867
2.70493
-0.000362018
2.2017
-0.000494134
1.7994
0.00256927
1.4725
0.00289474
1.20637
0.00243432
0.947385
0.485027
0.0219084
0.768334
0.0359743
1.48695
0.0454425
1.83328
0.0527644
2.15908
0.0602075
2.52054
0.0666481
2.94059
0.0712444
3.42286
0.0729393
3.97689
0.0711158
4.61032
0.0658666
5.32942
0.059434
5.13071
0.0531296
4.13066
0.0456663
3.34074
0.0380193
2.71258
0.0299969
2.20973
0.0237974
1.8056
0.0171977
1.4791
0.0117759
1.21179
0.00623827
0.952923
0.491265
0.0284012
0.739933
0.0532169
1.46214
0.0775407
1.80895
0.097172
2.13945
0.11879
2.49892
0.137055
2.92233
0.15269
3.40722
0.163691
3.96589
0.168588
4.60542
0.1649
5.3331
0.152419
5.14319
0.134962
4.14812
0.114333
3.36137
0.0927715
2.73414
0.0721047
2.23039
0.0531228
1.82458
0.0369282
1.4953
0.0229414
1.22578
0.0107694
0.965095
0.502034
0.0469474
0.692986
0.0906172
1.41847
0.127394
1.77218
0.160511
2.10633
0.19441
2.46502
0.226309
2.89043
0.25456
3.37897
0.276892
3.94356
0.290435
4.59188
0.2905
5.33304
0.274149
5.15955
0.247126
4.17514
0.213832
3.39466
0.177975
2.77
0.142014
2.26636
0.107951
1.85864
0.0764725
1.52677
0.0483357
1.25391
0.0225436
0.990887
0.524578
0.0704532
0.622533
0.143756
1.34516
0.202329
1.7136
0.256219
2.05244
0.304827
2.41641
0.350889
2.84437
0.392308
3.33755
0.427028
3.90884
0.450866
4.56804
0.456628
5.32728
0.438425
5.17775
0.403332
4.21023
0.357472
3.44052
0.305357
2.82211
0.250237
2.32148
0.194861
1.91402
0.140942
1.58069
0.089798
1.30506
0.0411757
1.03951
0.565754
0.0446299
0.577903
0.110581
1.27921
0.176085
1.6481
0.242344
1.98618
0.299808
2.35895
0.3497
2.79447
0.387485
3.29976
0.410911
3.88542
0.416973
4.56198
0.401484
5.34277
0.366724
5.21251
0.324248
4.25271
0.278865
3.48591
0.233064
2.86791
0.188074
2.36647
0.144506
1.95758
0.102481
1.62272
0.062576
1.34496
0.0255017
1.07658
0.591255
-0.00104982
0.578952
0.0284121
1.24975
0.0736069
1.6029
0.126743
1.93304
0.180406
2.30529
0.232123
2.74276
0.276499
3.25539
0.308896
3.85302
0.324741
4.54613
0.319312
5.34819
0.292871
5.23895
0.256194
4.28939
0.215256
3.52684
0.173293
2.90988
0.13232
2.40744
0.0939156
1.99599
0.0593005
1.65733
0.0291768
1.37509
0.00610421
1.09966
0.597359
-0.00972403
0.588676
0.0104898
1.22954
0.0424196
1.57097
0.080686
1.89477
0.121213
2.26476
0.162052
2.70192
0.200195
3.21724
0.231508
3.82171
0.250565
4.52707
0.251337
5.34742
0.23188
5.25841
0.201616
4.31965
0.167087
3.56137
0.132108
2.94486
0.0989898
2.44056
0.0690144
2.02596
0.0426429
1.68371
0.019934
1.39779
0.00240044
1.11719
0.59976
-0.00893676
0.597613
0.00495762
1.21564
0.029311
1.54662
0.0585951
1.86549
0.0893686
2.23398
0.120489
2.6708
0.150446
3.18729
0.176436
3.79572
0.193992
4.50952
0.197215
5.3442
0.182994
5.27263
0.159062
4.34358
0.131524
3.58891
0.103861
2.97252
0.0778757
2.46654
0.0543057
2.04953
0.03329
1.70472
0.015033
1.41605
0.00129609
1.13093
0.601056
-0.00493036
0.602544
0.00401561
1.2067
0.0207613
1.52987
0.042263
1.84399
0.0659069
2.21034