/*--------------------------------*- C++ -*----------------------------------*\
| =========                 |                                                 |
| \\      /  F ield         | OpenFOAM: The Open Source CFD Toolbox           |
|  \\    /   O peration     | Version:  4.0                                   |
|   \\  /    A nd           | Web:      www.OpenFOAM.org                      |
|    \\/     M anipulation  |                                                 |
\*---------------------------------------------------------------------------*/
FoamFile
{
    version     2.0;
    format      ascii;
    class       volScalarField;
    location    "16";
    object      p;
}
// * * * * * * * * * * * * * * * * * * * * * * * * * * * * * * * * * * * * * //

dimensions      [0 2 -2 0 0 0 0];

internalField   nonuniform List<scalar> 
2200
(
0.391689
0.37022
0.354354
0.338743
0.324221
0.311834
0.301614
0.293564
0.287889
0.28489
0.285186
0.288662
0.294683
0.302992
0.313392
0.325911
0.340519
0.356182
0.37208
0.393566
0.324024
0.320774
0.317908
0.313859
0.308476
0.30212
0.295641
0.28984
0.285441
0.282998
0.283252
0.286224
0.290999
0.29708
0.303756
0.310246
0.315726
0.319846
0.322756
0.326019
0.283877
0.284162
0.286314
0.287789
0.288369
0.287655
0.285745
0.283187
0.280712
0.279151
0.27945
0.281571
0.284467
0.287324
0.289449
0.290317
0.289846
0.28845
0.286357
0.286096
0.261151
0.262631
0.265501
0.268251
0.270916
0.273132
0.274454
0.274802
0.274375
0.273893
0.274286
0.275393
0.276278
0.276277
0.275204
0.273168
0.27063
0.267966
0.265152
0.26369
0.247098
0.249052
0.252004
0.254962
0.257954
0.260945
0.263647
0.265758
0.267091
0.267784
0.268224
0.268258
0.267489
0.26579
0.263386
0.260607
0.257768
0.254915
0.252029
0.250084
0.240092
0.241653
0.243893
0.246561
0.249358
0.252083
0.254647
0.25707
0.259215
0.260734
0.261219
0.26058
0.259148
0.257231
0.255018
0.252542
0.249923
0.24738
0.245211
0.243654
0.237128
0.238061
0.23953
0.241937
0.244517
0.246913
0.249022
0.25103
0.252958
0.254512
0.255126
0.254673
0.253614
0.25222
0.250518
0.248426
0.24605
0.243773
0.242367
0.241439
0.236105
0.236544
0.237547
0.239632
0.241946
0.244157
0.246112
0.247902
0.24949
0.250804
0.251572
0.251585
0.251001
0.249982
0.24857
0.246754
0.244702
0.242794
0.241866
0.241439
0.235948
0.236084
0.236694
0.238106
0.239768
0.241551
0.243362
0.245135
0.246725
0.24807
0.249009
0.249279
0.248867
0.248043
0.246983
0.245701
0.244371
0.243177
0.242662
0.242522
0.234884
0.234897
0.235179
0.235848
0.236713
0.237824
0.239208
0.240846
0.24254
0.24417
0.245401
0.245926
0.245805
0.245297
0.244745
0.24418
0.24369
0.243275
0.243095
0.243086
0.232205
0.232196
0.232351
0.232695
0.233209
0.233913
0.234858
0.236194
0.237796
0.239599
0.241174
0.242184
0.242687
0.242755
0.242648
0.242607
0.242555
0.242506
0.242487
0.242484
0.228886
0.228832
0.229017
0.229376
0.229971
0.230705
0.231643
0.23291
0.234486
0.236377
0.238235
0.239682
0.240654
0.241251
0.241556
0.241704
0.241721
0.241709
0.241707
0.241713
0.225349
0.225347
0.225529
0.225954
0.226577
0.22746
0.228691
0.230171
0.23201
0.234229
0.236494
0.238288
0.239531
0.24038
0.240949
0.241221
0.241317
0.241347
0.241363
0.24137
0.221329
0.22134
0.221489
0.221873
0.222531
0.223452
0.224753
0.226477
0.228722
0.231501
0.234428
0.236758
0.23841
0.239545
0.240324
0.240811
0.241106
0.241277
0.241359
0.241356
0.216536
0.216522
0.216716
0.217089
0.217717
0.218665
0.220066
0.222032
0.224707
0.228142
0.231891
0.234993
0.237224
0.238774
0.239866
0.240599
0.241079
0.241372
0.241511
0.241507
0.210822
0.210805
0.211053
0.211512
0.21227
0.213441
0.215121
0.217484
0.220723
0.224945
0.229627
0.23361
0.23648
0.23854
0.23997
0.240933
0.241566
0.241948
0.242125
0.242119
0.204274
0.204254
0.204542
0.205161
0.206142
0.207608
0.209733
0.212716
0.216771
0.222041
0.227877
0.232854
0.236484
0.239083
0.240848
0.242036
0.242797
0.243242
0.243443
0.243431
0.196575
0.196565
0.196943
0.19775
0.199018
0.200875
0.203554
0.207313
0.212427
0.219056
0.22635
0.23253
0.237049
0.240237
0.242421
0.243899
0.244862
0.245439
0.245697
0.245682
0.187585
0.187564
0.18802
0.188974
0.190549
0.19292
0.196327
0.201099
0.207559
0.21589
0.224988
0.232646
0.23824
0.242193
0.244925
0.246776
0.247976
0.248679
0.248986
0.248958
0.176585
0.176588
0.17723
0.178506
0.180544
0.183562
0.187921
0.194018
0.202216
0.212679
0.22397
0.233412
0.240289
0.245145
0.248495
0.250753
0.252233
0.253119
0.253511
0.253484
0.163311
0.163285
0.164077
0.165703
0.168366
0.172368
0.178053
0.185914
0.196352
0.209462
0.223395
0.234955
0.243356
0.2493
0.253424
0.256227
0.258052
0.25912
0.25958
0.259529
0.146418
0.14649
0.147661
0.149916
0.153526
0.158857
0.166386
0.17666
0.189988
0.206354
0.223434
0.237478
0.247665
0.254892
0.259906
0.263308
0.265549
0.266876
0.267452
0.267396
0.125325
0.125335
0.126923
0.130089
0.135112
0.142515
0.152672
0.16614
0.183114
0.203401
0.224131
0.241013
0.253242
0.26196
0.268093
0.272318
0.275109
0.276764
0.277455
0.277344
0.097322
0.097732
0.100274
0.104997
0.112345
0.122813
0.136671
0.154369
0.175858
0.200772
0.225688
0.245776
0.260336
0.2708
0.27823
0.283425
0.286906
0.28895
0.289836
0.289702
0.0599932
0.060664
0.0648914
0.0728374
0.0842595
0.0993713
0.118442
0.141574
0.1685
0.198743
0.228289
0.251854
0.268936
0.281334
0.290301
0.296713
0.301177
0.303936
0.3051
0.304808
0.0103063
0.0109382
0.018921
0.032345
0.0503706
0.0723733
0.0983011
0.128043
0.161321
0.197499
0.23198
0.259209
0.279014
0.293554
0.304305
0.312235
0.317872
0.321298
0.32249
0.322086
-0.0578017
-0.0539245
-0.0368235
-0.0139928
0.0129013
0.043225
0.0769853
0.1142
0.154574
0.197387
0.237525
0.269187
0.29254
0.310076
0.323386
0.333596
0.341382
0.346601
0.348352
0.348198
-0.138193
-0.124487
-0.095057
-0.0618245
-0.0252007
0.0136433
0.0556099
0.100674
0.148402
0.198263
0.244734
0.281551
0.309083
0.330282
0.347044
0.360397
0.371146
0.378822
0.383415
0.384087
-0.203763
-0.186691
-0.149231
-0.10779
-0.0625475
-0.0151418
0.0350994
0.0878028
0.142628
0.199257
0.251613
0.293068
0.324229
0.348308
0.367387
0.382683
0.394645
0.403705
0.408136
0.408573
-0.252581
-0.237437
-0.195104
-0.148528
-0.0965705
-0.0418368
0.0157054
0.0753433
0.13689
0.19995
0.25778
0.303243
0.337071
0.362908
0.382968
0.398818
0.41117
0.420054
0.424435
0.425036
-0.292661
-0.278008
-0.233207
-0.183512
-0.126285
-0.0658561
-0.00231395
0.0634364
0.131155
0.200044
0.262612
0.311104
0.346628
0.373351
0.393745
0.409647
0.421973
0.430826
0.435453
0.436072
-0.327013
-0.312093
-0.265315
-0.21332
-0.152042
-0.087305
-0.0189161
0.0520841
0.125153
0.199037
0.265613
0.316661
0.35352
0.380881
0.401649
0.417648
0.430141
0.438902
0.443892
0.444256
-0.357146
-0.342221
-0.293298
-0.238977
-0.174572
-0.106628
-0.0343352
0.0410861
0.118739
0.197164
0.26765
0.321192
0.359394
0.387515
0.408666
0.424705
0.437134
0.446111
0.450596
0.451044
-0.384314
-0.369584
-0.318669
-0.261857
-0.194806
-0.124334
-0.0488398
0.0303187
0.112013
0.194675
0.268883
0.324892
0.364685
0.393602
0.415243
0.431545
0.443846
0.452812
0.457161
0.457558
-0.409209
-0.39461
-0.342417
-0.283188
-0.21369
-0.140914
-0.0626345
0.0197475
0.105044
0.191714
0.269735
0.328734
0.370231
0.40009
0.421983
0.43825
0.450477
0.459249
0.463679
0.464149
-0.432683
-0.417653
-0.365024
-0.303766
-0.231977
-0.156856
-0.075953
0.00932018
0.0979396
0.188523
0.270549
0.332254
0.375305
0.405983
0.428478
0.445082
0.457428
0.466099
0.470492
0.470906
-0.454703
-0.439453
-0.38654
-0.323839
-0.250086
-0.172622
-0.0891567
-0.00117457
0.0905372
0.184707
0.270281
0.334922
0.380286
0.412385
0.435406
0.452233
0.464568
0.473039
0.477461
0.477909
-0.475489
-0.460321
-0.406982
-0.34328
-0.268048
-0.188483
-0.102628
-0.012124
0.0823801
0.179849
0.269148
0.337424
0.385141
0.41864
0.442468
0.459638
0.472148
0.48067
0.484878
0.485253
-0.495623
-0.480311
-0.426513
-0.361974
-0.285665
-0.204419
-0.116524
-0.0237543
0.0733877
0.174162
0.267511
0.339107
0.389489
0.424967
0.449958
0.467666
0.480247
0.488378
0.492614
0.492946
-0.515481
-0.499554
-0.445324
-0.379975
-0.302783
-0.220253
-0.130694
-0.0359134
0.0637292
0.167562
0.264447
0.339809
0.393972
0.431968
0.458244
0.476327
0.488858
0.497087
0.500951
0.501084
-0.53499
-0.518271
-0.463642
-0.397428
-0.319376
-0.23579
-0.144868
-0.0483671
0.0534507
0.159941
0.260267
0.339866
0.397387
0.438556
0.466909
0.485925
0.498385
0.505808
0.509339
0.509357
-0.553984
-0.536576
-0.481571
-0.41447
-0.335532
-0.250988
-0.158908
-0.0609951
0.0426268
0.151521
0.255253
0.33869
0.400279
0.444958
0.476172
0.496573
0.508824
0.515482
0.518115
0.517817
-0.572374
-0.554504
-0.499114
-0.431146
-0.351351
-0.265911
-0.172831
-0.0737419
0.0314027
0.142329
0.248786
0.335878
0.40178
0.450966
0.48616
0.509044
0.52146
0.525675
0.525911
0.525649
-0.590142
-0.57195
-0.516173
-0.447408
-0.366858
-0.28062
-0.186672
-0.0865757
0.0198502
0.132392
0.241106
0.331824
0.402021
0.455893
0.495912
0.523187
0.537264
0.539319
0.534832
0.532032
-0.607267
-0.588807
-0.532635
-0.463172
-0.382005
-0.295099
-0.200407
-0.0994641
0.00799192
0.121873
0.232502
0.326092
0.400128
0.459163
0.505252
0.539157
0.558854
0.557998
0.549868
0.554482
-0.62372
-0.604994
-0.548415
-0.47835
-0.396697
-0.309254
-0.213968
-0.112372
-0.00412609
0.11079
0.222794
0.318197
0.395687
0.459681
0.512218
0.5542
0.585184
0.580633
0.537124
0.48609
-0.639426
-0.62051
-0.563535
-0.492995
-0.410993
-0.323179
-0.227487
-0.125443
-0.0166635
0.0989781
0.211892
0.308665
0.388657
0.45665
0.515209
0.566964
0.613208
0.641845
0.668681
0.719744
-0.654335
-0.635441
-0.578108
-0.507242
-0.425043
-0.337048
-0.241185
-0.138957
-0.0299858
0.0859606
0.1991
0.296012
0.376945
0.447817
0.508057
0.559016
0.596191
0.61658
0.601289
0.606312
-0.668411
-0.649737
-0.592106
-0.521052
-0.438768
-0.350749
-0.254915
-0.15279
-0.0439926
0.0716326
0.184323
0.280655
0.35997
0.42924
0.486978
0.530353
0.538814
0.506698
0.456566
0.450618
-0.681714
-0.663385
-0.605542
-0.53444
-0.452174
-0.36429
-0.268675
-0.166898
-0.0586566
0.0561695
0.16797
0.262465
0.338574
0.401223
0.451002
0.468097
0.438833
0.372903
0.302958
0.296203
-0.694304
-0.676359
-0.618427
-0.547433
-0.465295
-0.377695
-0.282463
-0.181256
-0.0738964
0.0396584
0.149637
0.241063
0.310191
0.360015
0.386025
0.374703
0.328509
0.227515
0.139552
0.124933
-0.706626
-0.689102
-0.631154
-0.560389
-0.478477
-0.391269
-0.296548
-0.196108
-0.0898876
0.0218285
0.128974
0.216408
0.278614
0.313833
0.304149
0.264008
0.158476
0.0332364
-0.0768581
-0.0987517
-0.719507
-0.702362
-0.644387
-0.573903
-0.492275
-0.405479
-0.31134
-0.211782
-0.106898
0.00261294
0.106571
0.188856
0.244365
0.254978
0.209531
0.117897
-0.0476648
-0.206366
-0.337273
-0.361953
-0.733432
-0.716576
-0.658429
-0.588184
-0.506853
-0.420439
-0.326896
-0.228311
-0.124918
-0.0179392
0.0813502
0.15777
0.203796
0.186412
0.113114
-0.0476945
-0.267142
-0.495009
-0.684079
-0.731315
-0.748425
-0.731753
-0.673308
-0.603234
-0.522171
-0.436103
-0.343173
-0.245632
-0.143877
-0.0396528
0.0549608
0.125957
0.156545
0.104774
-0.00536193
-0.220716
-0.483652
-0.805287
-1.15232
-1.29261
-0.76455
-0.748003
-0.689112
-0.619109
-0.538257
-0.452511
-0.360182
-0.263767
-0.163794
-0.0625536
0.026599
0.0921761
0.106624
0.015649
-0.15009
-0.397614
-0.675096
-1.06951
-1.70849
-2.30735
-0.781785
-0.765268
-0.705871
-0.635854
-0.555112
-0.46962
-0.377864
-0.282582
-0.184466
-0.0861515
-0.00267078
0.0543789
0.0513029
-0.0690556
-0.295267
-0.585751
-0.841241
-1.13818
-1.78834
-3.48328
-0.800181
-0.78358
-0.723592
-0.65361
-0.572867
-0.487588
-0.396418
-0.302301
-0.206178
-0.111198
-0.0327336
0.015967
-0.00666767
-0.140929
-0.411011
-0.719902
-0.92552
-1.01408
-1.06033
-1.499
-0.81967
-0.802871
-0.742414
-0.672707
-0.591831
-0.506804
-0.416344
-0.323535
-0.229709
-0.138646
-0.0648739
-0.0263169
-0.0676306
-0.192711
-0.475882
-0.759068
-0.927924
-0.968612
-0.927768
-0.978847
-0.840188
-0.823015
-0.762384
-0.693145
-0.611973
-0.527321
-0.437742
-0.346314
-0.255008
-0.168328
-0.098405
-0.0675777
-0.130058
-0.246629
-0.520776
-0.760472
-0.897797
-0.93836
-0.969066
-0.987487
-0.861391
-0.843998
-0.783622
-0.714785
-0.633164
-0.549097
-0.460515
-0.370588
-0.281982
-0.200034
-0.134649
-0.109199
-0.182197
-0.306932
-0.558617
-0.762694
-0.881017
-0.872088
-0.898744
-0.896309
-0.883087
-0.865581
-0.806107
-0.737338
-0.655221
-0.571946
-0.484495
-0.396029
-0.310058
-0.232895
-0.171255
-0.151571
-0.235766
-0.382376
-0.599229
-0.766175
-0.869611
-0.871562
-0.876389
-0.881374
-0.904948
-0.887524
-0.829236
-0.760363
-0.677927
-0.595662
-0.5093
-0.422328
-0.33906
-0.266639
-0.209339
-0.191438
-0.29007
-0.464175
-0.640692
-0.756334
-0.831558
-0.893471
-0.855216
-0.865753
-0.926769
-0.909613
-0.85219
-0.783339
-0.701014
-0.619873
-0.53441
-0.449159
-0.368352
-0.300068
-0.249124
-0.233089
-0.343321
-0.55306
-0.695653
-0.766078
-0.756375
-0.847127
-0.825435
-0.837743
-0.947837
-0.931211
-0.874445
-0.805698
-0.724056
-0.644085
-0.55915
-0.475655
-0.396829
-0.331415
-0.289404
-0.268419
-0.408111
-0.654332
-0.763763
-0.754762
-0.69798
-0.763394
-0.802223
-0.812098
-0.967639
-0.951658
-0.895429
-0.826672
-0.746874
-0.667407
-0.582728
-0.501715
-0.424618
-0.359263
-0.327471
-0.291336
-0.467084
-0.764172
-0.904278
-0.893669
-0.876072
-0.879433
-0.912384
-0.91167
-0.985033
-0.969982
-0.914714
-0.846345
-0.768482
-0.688512
-0.604705
-0.526625
-0.450768
-0.38338
-0.367503
-0.312926
-0.51922
-0.889851
-1.24417
-1.43657
-1.46355
-1.39885
-1.35771
-1.32244
-0.999156
-0.985154
-0.931448
-0.863697
-0.786786
-0.706974
-0.625159
-0.547062
-0.473104
-0.401944
-0.401894
-0.342345
-0.561934
-0.979963
-1.55466
-2.15505
-2.32738
-2.24481
-2.07245
-1.95819
-1.00864
-0.995937
-0.944206
-0.877034
-0.800727
-0.721713
-0.641777
-0.563329
-0.491042
-0.419129
-0.408774
-0.356273
-0.543498
-0.913959
-1.42616
-1.9184
-2.01534
-1.91521
-1.77663
-1.70685
-1.012
-1.00051
-0.951177
-0.884848
-0.809337
-0.731582
-0.653039
-0.57545
-0.500355
-0.427238
-0.397246
-0.347053
-0.423341
-0.500683
-0.567988
-0.621889
-0.583844
-0.509166
-0.429239
-0.33695
-1.00729
-0.997313
-0.95089
-0.885757
-0.811633
-0.735824
-0.65849
-0.582603
-0.503327
-0.419479
-0.358729
-0.281513
-0.179295
0.0436985
0.305898
0.530551
0.70133
0.824129
0.889805
0.911324
-0.992597
-0.984116
-0.941783
-0.878728
-0.806431
-0.73316
-0.658268
-0.584085
-0.50311
-0.40665
-0.296987
-0.176402
0.0717968
0.436065
0.837641
1.18023
1.44034
1.58885
1.64053
1.65477
-0.966202
-0.959377
-0.921478
-0.861607
-0.792469
-0.722685
-0.652405
-0.581315
-0.503309
-0.40495
-0.260818
-0.0926227
0.19871
0.563671
0.985033
1.32848
1.59927
1.74695
1.79957
1.81012
-0.927474
-0.92263
-0.889283
-0.833888
-0.76944
-0.704596
-0.641368
-0.577196
-0.510288
-0.42872
-0.271739
-0.0730278
0.1777
0.508937
0.874948
1.18926
1.44268
1.58185
1.63571
1.65081
-0.875036
-0.870899
-0.84357
-0.795229
-0.737541
-0.680428
-0.628613
-0.580359
-0.539891
-0.498791
-0.398769
-0.243617
0.00387053
0.323856
0.659085
0.947679
1.1604
1.28333
1.33209
1.35005
-0.811659
-0.807729
-0.785937
-0.745943
-0.698184
-0.653471
-0.618814
-0.598653
-0.61133
-0.658474
-0.701809
-0.571076
-0.289977
0.0333807
0.369504
0.624925
0.801944
0.897982
0.941089
0.957924
-0.733149
-0.731675
-0.715945
-0.6871
-0.652181
-0.622027
-0.605086
-0.613017
-0.678236
-0.829177
-1.03341
-0.911767
-0.585004
-0.256497
0.134445
0.348508
0.485905
0.544755
0.572899
0.581115
-0.636367
-0.63817
-0.630411
-0.613565
-0.593088
-0.576087
-0.572101
-0.595938
-0.687737
-0.880475
-1.16607
-1.06715
-0.722007
-0.371747
-0.0703981
0.117218
0.228996
0.274758
0.297143
0.304061
-0.538213
-0.538538
-0.534588
-0.527028
-0.516871
-0.50987
-0.512204
-0.539665
-0.627427
-0.798155
-1.05485
-0.943461
-0.623357
-0.33924
-0.138769
-0.0132593
0.0585857
0.0896206
0.106255
0.111841
-0.433234
-0.434395
-0.4327
-0.429303
-0.425525
-0.423232
-0.427598
-0.449663
-0.512893
-0.637534
-0.791036
-0.647942
-0.40126
-0.23916
-0.115493
-0.0437746
-0.0145741
0.000527491
0.00954609
0.012216
-0.329034
-0.330441
-0.330199
-0.328709
-0.327226
-0.326253
-0.328413
-0.339715
-0.373723
-0.442224
-0.511414
-0.359795
-0.218848
-0.142977
-0.0709682
-0.0471728
-0.0358694
-0.029714
-0.0263476
-0.0257153
-0.232062
-0.233186
-0.233649
-0.232951
-0.231718
-0.230352
-0.229042
-0.230045
-0.238452
-0.25962
-0.260878
-0.1638
-0.0990661
-0.0594002
-0.0367577
-0.032184
-0.0289388
-0.0279514
-0.0278251
-0.0283928
-0.14963
-0.15048
-0.151444
-0.151168
-0.149602
-0.146937
-0.142281
-0.135898
-0.126733
-0.111964
-0.0767542
-0.0331852
-0.0133433
-0.000696274
-0.00199126
-0.0054534
-0.00757147
-0.00988903
-0.0115814
-0.0128507
-0.0849224
-0.0855138
-0.0866844
-0.0870315
-0.0858026
-0.0826534
-0.0762837
-0.0664144
-0.0504418
-0.0221025
0.0155052
0.041304
0.0410987
0.0371521
0.027205
0.0201624
0.0152549
0.0114099
0.00903472
0.00762182
-0.0373329
-0.0377379
-0.0388029
-0.0396673
-0.0391755
-0.0366888
-0.0307274
-0.020571
-0.00428806
0.0221332
0.0544983
0.0691311
0.0638325
0.0558146
0.0451143
0.0375876
0.0321499
0.0282181
0.0259353
0.0247234
-0.00450314
-0.00477082
-0.00561679
-0.00659966
-0.00666388
-0.0052742
-0.000929725
0.00754897
0.0214287
0.0428222
0.066202
0.076408
0.0703269
0.0626116
0.0536657
0.0471779
0.0424099
0.0390933
0.0372204
0.0362926
0.0166231
0.0164427
0.0158281
0.0150256
0.0148367
0.0155069
0.0182074
0.0241759
0.0344342
0.0503002
0.066226
0.0738485
0.068876
0.0628764
0.0562479
0.0512931
0.0476349
0.0451022
0.0436882
0.0430107
0.0296288
0.0294828
0.0290704
0.0285076
0.0284436
0.0289107
0.0306372
0.0344203
0.0411326
0.0518462
0.0623136
0.0673724
0.0640267
0.0598933
0.05538
0.05186
0.0492157
0.0473384
0.0463126
0.0458297
0.0377176
0.0375829
0.0372755
0.0367944
0.0366961
0.0370226
0.0382956
0.0407375
0.0449543
0.0515923
0.0579255
0.0608415
0.058623
0.0558523
0.0528349
0.0503085
0.0483185
0.0468544
0.0460913
0.0457492
0.0425107
0.042384
0.0420632
0.0414672
0.0410739
0.0410302
0.0418106
0.0434137
0.0462044
0.0502763
0.0538848
0.0553157
0.0537254
0.0517459
0.0495937
0.0476388
0.0460171
0.0448002
0.0441948
0.0439471
0.0443793
0.0442598
0.0438896
0.0431594
0.0424743
0.0420147
0.0421665
0.0429881
0.0448083
0.0474446
0.0496301
0.0503017
0.0491216
0.0475959
0.0459421
0.0443727
0.0430383
0.0420304
0.0415417
0.0413564
0.0437164
0.0436142
0.0432475
0.0425197
0.0417624
0.0411196
0.0408079
0.0409568
0.0419101
0.0435319
0.0449358
0.0452766
0.0444125
0.0432257
0.0419489
0.0407309
0.0396885
0.0388953
0.0385164
0.0383779
0.0414288
0.0413519
0.0410454
0.0404252
0.0397569
0.039148
0.0386729
0.038459
0.0387472
0.039515
0.0402587
0.0403334
0.0396582
0.0387442
0.0377802
0.0368704
0.036088
0.0354868
0.0352055
0.0351046
0.0382793
0.0382284
0.0379882
0.0374793
0.0369197
0.0363899
0.0359081
0.0355887
0.0355095
0.0356952
0.0358869
0.0356986
0.0351019
0.0343807
0.0336419
0.0329543
0.0323617
0.0319034
0.0316943
0.0316197
0.0345869
0.0345555
0.0343583
0.0339213
0.0334348
0.032948
0.0324742
0.0321266
0.0318866
0.0317965
0.0316786
0.0313419
0.0307958
0.0301996
0.0296013
0.0290542
0.0285854
0.0282217
0.0280601
0.0280043
0.0304493
0.0304283
0.0302648
0.0298922
0.0294759
0.0290273
0.0285695
0.028205
0.0278875
0.0276916
0.0274578
0.0270914
0.026607
0.0261075
0.0256153
0.0251752
0.0248031
0.0245152
0.0243897
0.0243473
0.0260071
0.0259923
0.0258613
0.0255565
0.0252196
0.024832
0.0244212
0.0240658
0.0237125
0.0234694
0.0232013
0.0228611
0.0224494
0.0220434
0.0216506
0.0213055
0.0210166
0.0207932
0.0206962
0.0206631
0.0213958
0.0213863
0.0212898
0.0210559
0.0207982
0.0204858
0.0201471
0.0198378
0.0194965
0.019236
0.0189558
0.018652
0.0183134
0.0179928
0.0176865
0.0174206
0.0172005
0.0170317
0.0169596
0.0169357
0.0167092
0.0167021
0.0166331
0.0164605
0.0162709
0.0160341
0.015774
0.0155313
0.0152416
0.0150072
0.0147463
0.0144867
0.0142148
0.0139695
0.0137388
0.0135402
0.0133762
0.0132505
0.0131967
0.0131789
0.0119852
0.011982
0.0119347
0.0118119
0.0116767
0.0115061
0.0113172
0.0111416
0.010922
0.0107444
0.0105393
0.0103449
0.0101447
0.0099689
0.00980461
0.00966288
0.00954596
0.00945675
0.00941917
0.00940764
0.00722022
0.00721866
0.00719093
0.00711323
0.00702999
0.00692543
0.00680849
0.00670566
0.00656043
0.00645309
0.00632045
0.00620218
0.00608031
0.00597708
0.00587757
0.00579119
0.00571935
0.00566399
0.00564167
0.00563433
0.00242906
0.00242928
0.00241888
0.00238394
0.00235215
0.00231684
0.0022706
0.00224201
0.00218163
0.00215308
0.00210556
0.00206933
0.00202416
0.00199177
0.00195604
0.00192572
0.00189771
0.00187265
0.00186428
0.00186125
-1.63495
-0.711876
-0.435479
-0.135376
0.069555
0.248023
0.399844
0.554231
0.718107
0.79608
-0.584112
-0.139081
-0.102262
0.100369
0.244895
0.374294
0.487657
0.586973
0.622314
0.576242
-0.158211
0.0773209
0.12982
0.273288
0.37463
0.466334
0.542434
0.599097
0.605957
0.616768
0.100476
0.261074
0.299767
0.413966
0.478205
0.543896
0.594299
0.629745
0.640929
0.663506
0.299454
0.410632
0.439895
0.520925
0.566062
0.613289
0.648613
0.674525
0.685707
0.71626
0.451891
0.528849
0.559362
0.60969
0.647444
0.680704
0.707057
0.72848
0.743631
0.771199
0.579004
0.633768
0.660594
0.691865
0.721672
0.747012
0.768222
0.788034
0.803549
0.829665
0.687557
0.727234
0.749346
0.771394
0.793701
0.814154
0.832262
0.85091
0.866148
0.88967
0.784998
0.814653
0.832345
0.848386
0.865445
0.882177
0.898177
0.915526
0.929118
0.951373
0.875006
0.896244
0.911714
0.925401
0.939471
0.953646
0.96725
0.981843
0.993319
1.01301
0.961991
0.97803
0.992188
1.00435
1.01653
1.02823
1.03934
1.05104
1.05875
1.0756
1.0478
1.06082
1.07469
1.08643
1.09706
1.10687
1.1157
1.12403
1.12765
1.13889
1.13732
1.14828
1.16181
1.17107
1.17856
1.18579
1.19305
1.19967
1.20064
1.20804
1.23595
1.24072
1.24877
1.25326
1.25652
1.26097
1.26693
1.27469
1.27856
1.28844
1.34936
1.33564
1.32818
1.32246
1.31974
1.32111
1.32767
1.34015
1.35484
1.38449
1.46999
1.41441
1.38348
1.36642
1.35832
1.35836
1.367
1.38639
1.41844
1.4876
)
;

boundaryField
{
    wall-4
    {
        type            zeroGradient;
    }
    pressure-outlet-7
    {
        type            fixedValue;
        value           uniform 0;
    }
    velocity-inlet-6
    {
        type            zeroGradient;
    }
    velocity-inlet-5
    {
        type            zeroGradient;
    }
    frontAndBackPlanes
    {
        type            empty;
    }
}


// ************************************************************************* //
