/*--------------------------------*- C++ -*----------------------------------*\
| =========                 |                                                 |
| \\      /  F ield         | OpenFOAM: The Open Source CFD Toolbox           |
|  \\    /   O peration     | Version:  4.0                                   |
|   \\  /    A nd           | Web:      www.OpenFOAM.org                      |
|    \\/     M anipulation  |                                                 |
\*---------------------------------------------------------------------------*/
FoamFile
{
    version     2.0;
    format      ascii;
    class       surfaceScalarField;
    location    "11";
    object      phi;
}
// * * * * * * * * * * * * * * * * * * * * * * * * * * * * * * * * * * * * * //

dimensions      [0 3 -1 0 0 0 0];

internalField   nonuniform List<scalar> 
1300
(
3.75095
5.62643
-6.27314
3.75095
-6.14972
5.62643
-4.44577
4.44577
-1.51376
1.51376
1.87621
1.87475
-4.86849
4.86849
-4.96796
4.96796
-2.87602
2.87602
-5.24656
5.24656
-5.06694
5.06694
4.68859
-4.68859
-4.96868
4.96868
-1.93835
1.93835
-4.69877
4.69877
3.17757
-3.17757
-5.18879
5.18879
-0.559588
0.559588
-0.554756
4.30571
3.1962
3.1962
-2.60187
2.60187
-4.84419
4.84419
6.21853
-6.21853
9.50396
-9.50396
-3.23083
-3.38365
1.36533
-8.1114
-4.78439
-4.78439
-8.44039
8.44039
-2.81396
2.81247
2.98334
-2.98334
-1.73509
1.73509
-4.43655
-0.00921968
-4.43655
4.45216
-0.00639423
4.45216
-1.64869
0.13493
-1.64869
4.09502
-4.09502
1.32985
0.183913
1.32985
3.04703
-3.04703
-1.87688
3.75309
1.87407
-1.87255
6.17826
-1.8784
3.75315
-4.94495
4.94495
-4.91366
0.0451662
-4.91366
4.85433
0.0141575
4.85433
-5.2845
5.2845
-4.90175
-0.0662086
-4.90175
5.03999
-0.0720219
5.03999
3.08367
-3.08367
-2.90062
0.0246011
-2.90062
2.83238
0.043635
2.83238
0.353543
5.27289
-5.97997
8.79244
-5.27289
0.0263238
5.20858
0.0379798
5.20858
-5.10541
0.0384774
-5.10541
5.00852
0.0584167
5.00852
4.76961
-0.0810209
4.76961
-4.80995
0.121356
-4.80995
-3.34512
-3.29638
-5.05785
0.0891661
-5.05785
-1.96931
0.0309548
-1.96931
1.89709
0.0412637
1.89709
-3.65157
3.65157
-4.52313
-0.175641
-4.52313
3.1258
0.0517757
3.1258
1.86808
1.88288
5.61903
-5.61903
2.44146
-5.17742
-0.011371
-5.17742
-5.21324
-4.29072
5.21324
-0.0244483
-0.874736
0.315148
-0.874736
3.16142
0.0347743
3.16142
2.73621
0.0961791
-2.73621
0.134331
3.46518
-3.46518
1.97509
0.626784
1.97509
-5.57464
5.57464
4.94569
0.0628298
-4.94569
0.101501
6.15726
0.0612665
6.15726
-6.19962
-0.0189116
-6.19962
3.37336
-6.75701
-3.37716
4.88266
0.0860149
-4.88266
0.0982772
3.00265
-0.0193022
3.00265
-2.93034
2.93034
-2.97896
-0.00438009
-2.97896
-2.12756
0.392464
-2.12756
1.42037
0.314719
1.42037
-4.3766
-0.0599497
-4.3766
-4.40485
-0.118284
4.40485
0.0473138
0.738006
-0.738006
-1.77995
0.131263
-1.77995
-4.23179
-0.144804
4.23179
-0.136774
-4.00832
-0.086699
-4.00832
-3.00318
0.0242149
3.00318
0.0438533
3.11106
0.0503653
-3.11106
0.0640254
-1.87105
3.75392
-1.87991
3.75398
-4.73617
-0.208782
-4.73617
5.0631
-0.118147
5.0631
4.89505
-0.196281
-4.89505
-0.0186068
4.85825
-0.00391572
4.85825
-5.23884
-0.0456528
-5.23884
5.27557
0.00892596
5.27557
4.85531
0.00293556
-4.85531
-0.04644
5.10223
-0.0622467
5.10223
3.13093
-0.0472609
3.13093
-3.05117
-0.0325012
-3.05117
2.93772
-2.93772
2.92173
0.0159891
-2.92173
0.0211125
-11.133
11.1141
-0.0354685
-11.0975
5.17312
5.17312
4.16512
0.60449
4.16512
-5.0172
0.207252
-5.0172
3.35013
-6.7273
3.31693
-6.66205
3.31701
-11.4284
3.35384
-6.65022
5.19138
-5.19138
5.13507
0.0563107
-5.13507
0.0772224
-2.00229
0.0329849
-2.00229
-3.17656
-0.475013
-3.17656
4.09706
-0.445485
4.09706
-3.00855
3.00855
-3.07123
0.0626717
3.07123
0.0545701
5.1503
-0.0480693
-5.1503
-0.0271213
1.10076
0.229083
-1.10076
0.226029
3.66263
-0.197446
3.66263
-3.2843
-0.180885
-3.2843
-2.01491
0.0126155
2.01491
-0.0398194
-5.82055
0.245904
-5.82055
-11.1906
0.0930872
-11.1526
-6.10653
-6.10653
2.33386
11.1263
-3.02527
-0.0259009
3.02527
-0.0226205
2.94955
0.059007
-2.94955
0.0192043
-2.93715
-0.000573771
2.93715
-0.00680493
-2.50688
0.379321
-2.50688
-0.799225
0.799225
-1.13245
0.333224
1.13245
0.287922
1.16159
-0.42358
1.16159
1.85327
0.0438217
-1.85327
0.0733143
-3.92156
-0.0867578
-3.92156
5.12322
-0.060123
5.12322
-3.1898
-0.0944951
3.1898
-0.0588722
-0.033487
11.1476
-5.13963
0.0342152
5.13963
-11.2088
11.243
-3.19388
0.687003
3.19388
0.971243
5.30086
0.273787
-5.30086
0.283657
5.23422
0.0413456
-5.23422
0.0428449
-2.76727
-0.409292
-2.76727
-4.44945
-0.286723
4.44945
-0.352394
-11.4768
-0.199877
11.6767
-11.4184
6.02042
0.136839
-6.02042
11.3799
-0.555678
-0.182328
0.555678
0.243547
1.68991
-0.528319
1.68991
3.82756
-0.164936
-3.82756
-0.0939972
-5.16705
-0.0717957
5.16705
-0.0438224
-2.2095
-0.557768
2.2095
-0.519593
-4.27023
4.305
1.90803
-3.36629
-3.39073
-7.65701
1.85247
1.90145
4.29393
-7.04049
-4.38792
-6.94222
7.28162
-6.99796
-9.32156
9.24054
7.43232
-7.51902
-5.77262
5.82719
6.40827
-6.36441
1.88023
1.87286
10.0437
-9.99852
-11.0877
10.8789
10.1522
-10.2184
10.8168
-10.8625
-12.4322
12.4735
-5.74091
5.76551
-6.60594
6.57344
-6.78209
6.72322
-3.31363
-3.34842
9.07711
-8.98794
11.7661
-11.7775
-8.91343
8.73779
3.38353
0.921472
3.43389
-1.88479
3.76502
-1.86836
3.77639
3.3715
-6.68513
3.3558
-6.74652
6.06448
5.70164
-6.04004
-1.61697
-5.86971
5.8504
-5.85997
5.85316
8.72454
-8.73376
-1.88509
3.75795
-1.86889
3.77034
-3.41687
-2.35575
3.36509
0.928836
5.57589
3.50122
-5.6619
-1.28031
-7.61527
7.45033
-7.88515
7.70427
-0.469293
5.83201
-5.36272
4.3749
-1.54727
7.37928
5.73435
5.9416
5.86999
-5.5962
1.12797
-6.49068
-6.38918
-2.69751
2.82877
2.64644
-2.46253
5.86874
1.56358
5.73197
-5.42531
-2.09372
-5.51206
3.80168
2.02551
3.86435
4.01056
2.39771
4.03477
3.03771
-3.03288
-0.0048251
-3.06849
6.1062
0.725063
-5.42424
-4.4954
6.6842
3.35949
6.69835
-6.45325
-3.54527
-6.47186
-6.75149
-4.33624
-7.03822
6.94705
3.9319
6.8289
-8.08382
8.03999
6.7897
3.36252
6.71767
-6.71276
-3.50566
-6.7592
10.5353
-2.68937
-7.84598
-6.98465
-5.44753
6.97572
3.8411
7.56568
4.90785
7.60852
3.58036
6.95499
-7.42146
1.97393
-3.83483
-1.90608
-3.81372
3.72819
2.03732
3.77183
-4.13259
-2.47335
-4.15849
-4.20001
-2.58208
4.24727
2.32617
-4.32429
-3.56086
4.41878
2.30444
3.02043
-7.40835
3.62979
-6.97821
-6.32847
-2.65947
-6.25125
4.10886
2.61755
-6.72641
-2.57627
10.9398
-5.23813
9.32279
-7.32239
-4.45511
-7.34951
-5.9657
-2.94773
-6.08398
-6.78695
6.37766
-6.54324
6.09776
13.59
-4.93586
-8.65414
-3.95556
-2.40886
3.89153
-0.457639
-3.72152
3.71669
0.0435049
3.8199
4.74137
4.28373
-3.86795
-1.99202
-3.84875
3.86122
1.99194
3.86065
6.23376
2.49079
6.22736
-6.28992
-2.44384
-6.34987
8.92559
-8.53312
2.93253
-2.91991
5.1383
2.56597
-4.94085
-2.67441
5.98079
-3.02319
-2.9576
-12.2405
10.6616
1.57891
-4.8612
-0.486302
0.0732853
-5.53257
-3.78899
5.41122
0.530382
11.192
7.40296
-5.51495
5.76086
6.1617
6.22453
-0.164653
5.77558
-5.08857
5.14564
-2.23495
-2.91068
5.22567
-5.37047
-1.12421
-5.29693
4.17272
0.361495
1.90927
-1.59412
-2.15577
-0.541738
-2.08246
1.60142
1.04503
1.8305
1.01296
1.81581
-2.88722
0.511789
2.37543
-1.87425
-1.95074
-3.61653
-0.864704
4.48123
5.42082
2.02951
-5.32683
-0.185236
2.8003
-2.75904
-0.881419
-2.73511
1.91389
-2.79531
-3.37313
-1.84522
5.21835
-3.36259
-0.486158
3.30358
0.560767
-3.74152
-2.12819
3.7459
0.288871
-3.09912
6.18314
-3.08403
-5.09113
2.5277
3.5785
4.55321
-4.85098
2.47055
2.38043
-1.27248
5.83825
0.860106
5.83433
-8.65836
5.11309
6.66942
2.06837
-6.47314
0.0012784
-8.65708
10.1267
-8.14677
-1.97988
5.75013
4.37652
5.98295
7.60705
-4.96075
10.9437
0.316746
-8.46352
8.34033
-6.27196
4.05925
-10.3312
-11.6663
3.20278
-7.31755
8.69219
-1.37464
-2.36767
-5.71614
9.68523
-1.05264
-8.63259
5.77626
-5.4165
-5.34
10.7565
-8.10587
8.84567
-2.67499
-6.17068
-6.77602
-4.08646
6.84781
1.19218
-9.94888
11.9228
-2.99389
5.92294
0.794738
5.86069
3.98097
-6.02903
2.04806
4.1249
-6.79989
2.77079
-8.79982
-4.88929
9.54811
-4.65882
-7.54876
-6.75761
-0.791155
2.03423
9.88858
-6.94207
5.34402
1.59805
3.32829
0.532358
-3.34428
-0.469439
0.342667
4.44085
-4.78352
4.1145
4.21067
3.33826
1.10259
3.82085
2.02955
-3.79823
-0.360258
-4.02011
1.43803
-1.69394
-3.48509
4.92312
-3.92313
0.438035
-2.63375
-3.45817
6.09192
-4.53982
3.06679
3.11636
5.05873
-4.81564
1.35747
-2.38752
-2.42812
2.56566
-4.2596
1.84607
3.07705
4.15051
0.589645
4.84844
4.69967
-7.46599
0.487779
8.20088
-6.92057
1.6943
5.91422
-7.03833
0.280721
-5.97053
1.10429
-6.34242
-5.62212
3.56514
-6.51287
-6.76608
5.47823
0.749126
-5.52555
-0.558432
-4.63621
-2.15074
-5.19397
-2.14995
-4.3933
-7.1107
-1.50934
-5.60135
4.86831
-4.70371
-2.33451
5.0561
1.04166
-7.61142
7.4291
-7.1858
6.65748
0.0616424
3.65505
4.34537
1.93652
-2.38257
4.31908
-4.30973
6.80052
-8.64353
4.3338
4.15323
-6.59707
-4.4903
4.93308
3.99251
5.2478
9.73544
-10.3658
0.630367
-11.5771
12.7203
-1.14325
-17.6431
6.06605
-7.90769
2.65503
0.277499
2.68801
0.649921
2.32713
-2.97705
-2.26999
-2.30981
-2.21016
-3.24756
5.45772
1.1449
-3.22727
2.08236
-3.42495
4.56986
0.0124586
-3.23972
5.09747
-2.77033
5.37497
-3.41249
1.96247
3.21045
5.44989
-2.23943
4.16893
-1.60296
1.75304
-3.99247
-1.49452
-2.95164
4.98896
-3.14028
3.57831
-0.205445
3.78375
-3.97432
0.951139
-0.636065
3.57461
3.70894
4.13582
-3.03323
2.81426
-4.41722
-1.17821
-3.82758
-0.750528
-0.138088
-4.12081
4.2589
6.36848
-6.50657
-5.24476
9.41144
-4.16668
7.62299
-5.41903
-2.20396
-4.20806
-4.32506
3.82874
1.94684
9.56982
0.166593
-5.58563
-4.92198
-3.95074
3.16653
1.9791
-2.14483
3.72374
2.07154
-0.162274
0.634992
1.19551
1.88794
-1.25295
0.172586
1.71535
-1.42154
2.08836
0.711948
-2.13218
0.0497202
-1.38985
3.30375
0.985574
-2.0306
0.777654
1.08033
-3.31528
4.70057
-2.36159
-2.33898
5.7809
1.15876
-3.52035
4.13816
-3.77667
2.33452
-3.19922
-1.18584
-4.9625
-3.39892
-2.43814
4.5205
-3.01958
5.04909
1.14737
-4.86385
6.01122
-3.41058
1.56536
-3.08167
3.79362
-1.15927
-1.9224
2.60753
2.61082
-2.80493
0.0698204
-0.197404
2.17381
-2.37122
-0.621498
-2.49575
-4.5788
4.86767
-2.138
4.60855
2.18108
-1.91712
6.52567
1.84993
-3.76705
-3.2412
-3.72736
-1.38662
3.16659
-0.968985
-5.79021
-7.13966
5.78728
0.0470548
-8.79369
10.2616
-1.46792
-5.43419
0.321104
5.42903
-7.60025
0.800364
-4.82946
5.43214
6.29225
6.3393
-8.83225
0.199666
-4.90036
1.63716
-6.53752
6.01369
-3.93796
7.14075
-8.0474
5.71289
-7.00574
5.16087
-1.37665
5.62769
-3.57963
2.21829
-6.30475
-5.11256
6.99263
-3.63011
7.78737
-4.1325
11.9199
-7.12639
6.96236
4.95751
-1.41605
-5.93346
-6.84151
5.42547
0.120843
5.98153
4.89285
-2.8633
4.53259
2.20036
-4.58788
-2.05924
-6.43418
1.8463
-3.31782
-1.86792
3.71422
3.19081
3.72316
1.2861
-3.25372
6.6879
-7.47905
-2.02908
-3.59304
6.75033
-1.32486
4.0472
-7.64023
-2.29522
7.90808
-3.14378
-4.7643
-2.97221
-3.79386
2.82535
-6.61921
3.68752
-4.24595
2.24657
-10.1543
-5.36485
-5.1213
-2.17365
-5.01215
-8.05941
5.88576
-1.99336
5.43573
-9.43434
6.29057
-3.28599
9.17175
-4.58602
-0.607958
5.10561
1.55187
10.7236
0.254911
-4.74521
-1.77787
3.96232
-2.18445
1.38867
-3.8659
0.0964154
2.36378
3.41712
-6.53649
-0.0605768
-4.80579
-3.90713
7.89964
5.50431
11.8728
1.50699
9.10238
-1.20274
10.6094
4.04506
4.33298
-4.39131
5.02167
-0.132403
4.2014
-0.827237
2.78971
1.86078
1.89173
0.86731
2.25251
1.45644
3.20364
0.22659
-2.08322
4.67554
-8.62628
-0.910087
-8.02179
1.21875
5.83598
-4.61723
3.1106
-1.1315
0.926153
0.237306
-1.78808
1.55077
-2.67338
-1.95035
-0.234996
-1.47022
2.24787
1.83352
-2.01288
-0.660499
0.273365
-3.67229
2.92586
-2.85604
-0.245219
5.766
-2.59116
0.219943
-1.02579
-2.27581
-2.81755
2.76783
6.20363
0.322037
3.1196
5.1897
3.06152
0.198219
4.8098
-6.18444
-3.99003
-5.98477
0.028916
5.45794
2.06876
7.81982
7.02627
5.70142
-1.93882
-9.41787
8.47854
-3.45687
7.33529
-2.57098
-4.04823
3.74451
3.05601
-4.49364
0.247686
-3.80054
-7.25741
-1.6907
7.98127
-9.03293
8.42497
6.27423
-0.672874
-4.46671
-0.65459
4.13349
0.199495
10.8089
-1.21067
-6.92874
8.13942
-4.62531
3.71522
0.882778
2.84096
2.43355
1.30205
-5.6267
-10.2439
-1.78233
-1.53296
-4.1213
0.359931
-2.19346
6.25237
-2.53715
4.04841
5.60227
6.52842
-2.3057
-4.20087
6.47237
-2.42396
4.10446
)
;

boundaryField
{
    wall-4
    {
        type            calculated;
        value           uniform 0;
    }
    velocity-inlet-5
    {
        type            calculated;
        value           uniform -3.75095;
    }
    velocity-inlet-6
    {
        type            calculated;
        value           uniform -5.62643;
    }
    pressure-outlet-7
    {
        type            calculated;
        value           nonuniform List<scalar> 8(6.27314 6.14972 6.61447 6.74607 6.64151 6.75053 6.66706 6.67085);
    }
    wall-8
    {
        type            calculated;
        value           uniform 0;
    }
    frontAndBackPlanes
    {
        type            empty;
        value           nonuniform 0();
    }
}


// ************************************************************************* //
