/*--------------------------------*- C++ -*----------------------------------*\
| =========                 |                                                 |
| \\      /  F ield         | OpenFOAM: The Open Source CFD Toolbox           |
|  \\    /   O peration     | Version:  4.0                                   |
|   \\  /    A nd           | Web:      www.OpenFOAM.org                      |
|    \\/     M anipulation  |                                                 |
\*---------------------------------------------------------------------------*/
FoamFile
{
    version     2.0;
    format      ascii;
    class       volVectorField;
    location    "11";
    object      U;
}
// * * * * * * * * * * * * * * * * * * * * * * * * * * * * * * * * * * * * * //

dimensions      [0 1 -1 0 0 0 0];

internalField   nonuniform List<vector> 
918
(
(0.985185 -0.000699214 0)
(0.00500812 2.96625 0)
(-0.00516696 1.66492 0)
(0.979672 0.00224105 0)
(-6.0902e-05 1.63767 1.00146e-21)
(-0.00703062 2.9488 -1.90963e-18)
(0.854627 1.16164 7.36768e-19)
(0.514806 0.254094 -8.92408e-21)
(0.999878 -0.000363712 0)
(0.0468143 1.4295 0)
(-0.00949381 1.46333 0)
(0.853695 -0.00381801 0)
(0.0110225 2.93045 0)
(0.00129614 2.79399 0)
(-0.0213853 3.17488 1.08734e-18)
(-0.00156775 1.55335 -1.73401e-20)
(0.614502 0.114297 5.50813e-19)
(0.225615 1.4885 5.25709e-19)
(0.966684 0.00778904 0)
(0.00279689 1.54374 0)
(0.188153 0.292163 -4.97589e-19)
(1.00143 -0.00510426 0)
(0.999898 -0.0101824 0)
(0.975377 -0.00635047 0)
(0.769714 -0.0269163 0)
(0.0203278 2.62511 0)
(-0.0152475 2.91022 6.63693e-19)
(-0.00873917 1.68798 0)
(-0.0102031 1.76628 0)
(-0.00825134 1.68606 0)
(0.00506206 1.79857 0)
(0.00289174 1.65204 -7.92976e-22)
(-8.30878e-05 1.56659 0)
(-0.0206324 2.98758 -6.69465e-23)
(-0.0167034 3.0053 1.48439e-18)
(0.00209565 3.0002 0)
(0.892241 -0.00212174 0)
(0.382177 0.922747 5.25973e-21)
(0.839336 1.18983 -1.0575e-18)
(0.97899 1.03906 9.81781e-19)
(0.694095 1.2827 -1.68612e-19)
(0.704951 1.26585 9.51809e-19)
(0.553712 0.315764 8.707e-21)
(0.546193 0.220079 0)
(1.19652 0.571054 0)
(0.50489 0.334561 4.03538e-20)
(0.47129 0.245535 -4.18725e-20)
(0.913082 -0.00678005 0)
(1.00013 0.000152941 0)
(0.999954 0.000224862 0)
(1.00475 -0.00803941 0)
(1.0005 -0.00046855 0)
(1.00014 2.34745e-05 0)
(0.0336964 1.58127 -5.96052e-19)
(0.0223005 1.56336 0)
(0.0666574 1.44875 0)
(0.0104637 1.57501 0)
(0.0277642 1.41491 0)
(-0.000340131 1.60257 0)
(-0.0158672 1.57789 0)
(-0.00817997 1.44534 0)
(-0.0159748 1.60786 0)
(-0.0112837 1.48713 0)
(0.921694 0.00173635 0)
(0.916982 0.00409852 0)
(0.862162 -0.00116924 0)
(0.912879 0.0084653 0)
(0.838607 0.00189512 0)
(0.0146944 3.0004 6.99823e-19)
(0.0115072 3.00788 0)
(0.00613259 3.00281 0)
(0.0135435 2.9973 7.81311e-24)
(0.00798428 2.9585 -1.04011e-18)
(0.0145428 2.98219 0)
(0.0108435 2.90364 0)
(0.0254989 2.92995 1.41489e-24)
(0.00384495 2.82455 0)
(0.0320736 2.91489 0)
(-0.00711112 2.74325 0)
(0.302374 3.56328 0)
(-0.13279 3.64569 0)
(0.134164 3.26344 -1.01194e-18)
(-0.0101487 2.99876 0)
(0.00930127 1.7707 0)
(-0.0028209 1.65553 1.71066e-20)
(-0.00173873 1.5616 -2.77078e-20)
(0.67499 0.163511 -1.89007e-19)
(0.635407 0.0719311 -1.83095e-19)
(0.644225 0.197392 -5.68523e-19)
(0.601539 0.13419 -3.81592e-19)
(0.258834 1.21383 0)
(0.197316 1.50118 -5.64283e-19)
(0.377021 1.39953 9.46546e-19)
(0.987977 0.0116638 0)
(0.942427 0.0106426 0)
(1.00038 0.00064741 0)
(1.00257 0.00955586 0)
(1.00231 0.00890209 -1.02137e-18)
(0.991874 0.0092715 7.79914e-19)
(-0.00195916 1.64245 0)
(0.00119338 1.54687 0)
(-0.0114226 1.69847 0)
(-0.00679873 1.65787 0)
(0.00116076 1.55311 0)
(0.27794 0.302056 1.5167e-19)
(0.321017 0.272871 0)
(0.992899 -0.00822727 0)
(0.956009 -0.00522583 0)
(0.885547 0.0248381 0)
(0.850706 0.0250879 0)
(0.8103 -0.00269907 0)
(1.03527 0.000291943 0)
(0.806366 0.0273563 0)
(0.703939 -0.0169153 7.4288e-19)
(-0.0341201 2.86852 3.42028e-19)
(0.0447489 2.90681 0)
(0.0585976 2.88165 0)
(-0.0054217 2.69402 0)
(-0.0131139 2.9854 6.11039e-19)
(-0.0186585 2.89575 0)
(-0.0153227 2.98819 -1.93069e-18)
(-0.0135832 2.92531 6.66082e-19)
(-0.00526283 1.80494 0)
(-0.00184992 1.79974 0)
(0.000301738 1.66014 -3.8044e-22)
(0.000821882 1.65028 0)
(-0.000290952 1.55386 0)
(0.94775 0.00227826 0)
(0.894003 0.00348234 0)
(0.870351 -0.00429373 0)
(0.945539 -0.00229028 0)
(0.888545 -0.00247526 0)
(0.502092 1.10462 -1.68965e-20)
(0.546971 1.15562 0)
(0.338398 0.863265 1.03511e-20)
(0.27292 0.740538 0)
(0.950699 1.07573 -2.84236e-19)
(1.07573 0.891288 5.88116e-19)
(0.346579 1.4249 0)
(0.533273 1.35893 0)
(0.558257 1.31663 0)
(0.0774316 0.002263 -9.75019e-20)
(0.584261 0.291181 0)
(0.576411 0.205146 1.10775e-19)
(1.04564 0.939228 0)
(1.11619 0.786217 0)
(1.14192 0.735787 -5.09958e-19)
(1.17892 0.627203 0)
(1.23326 0.416575 6.24848e-20)
(0.948249 -0.000419888 0)
(0.952862 -0.00617432 0)
(0.898845 -0.0027486 0)
(0.985682 -0.00903772 0)
(0.971525 -0.00783153 0)
(0.937873 -0.00568419 0)
(1.0002 0.00230592 0)
(1.00085 0.00148767 0)
(0.999896 0.000775104 0)
(0.0216016 1.66058 3.26133e-19)
(0.0617185 1.5493 0)
(0.00421928 1.69227 5.19289e-19)
(0.0136439 1.58493 -4.42342e-19)
(0.0581705 1.52749 -4.39145e-19)
(0.0120329 1.56442 0)
(0.0957666 1.47382 0)
(0.00389747 1.57691 0)
(0.0216184 1.40905 0)
(-0.000865648 1.68224 -1.26655e-21)
(0.00800264 1.59925 0)
(-0.00674389 1.69041 -6.48138e-20)
(-0.00678073 1.5981 1.23265e-19)
(0.00183118 1.57426 0)
(-0.0128995 1.57046 0)
(0.00553219 1.42274 0)
(-0.0153086 1.62718 0)
(-0.00880223 1.50689 0)
(0.984025 0.0130388 0)
(0.938499 0.00411407 0)
(0.96874 0.00632663 0)
(0.913827 0.00212991 0)
(0.870241 -0.00388695 0)
(0.936588 0.00407516 0)
(0.929026 0.00660545 0)
(0.866168 0.00364691 0)
(0.00610005 3.06485 -6.18227e-21)
(0.0164727 3.05797 0)
(0.0149281 2.96913 0)
(0.00873374 2.87614 0)
(0.913064 3.97152 0)
(1.22576 3.29419 1.00128e-18)
(0.071804 3.09195 0)
(-0.0245856 2.91588 0)
(-0.00263074 1.79461 0)
(0.00359366 1.77421 0)
(0.0043226 1.77734 0)
(0.00284306 1.78508 3.56259e-21)
(0.00706876 1.77244 0)
(0.0083486 1.77824 0)
(-0.00138124 1.5705 4.48375e-21)
(-0.00232386 1.67489 3.60852e-20)
(-0.00274247 1.66665 2.83159e-20)
(-0.00244353 1.56489 0)
(0.696872 0.130078 2.77711e-19)
(0.664439 0.0539272 -2.69069e-19)
(0.22594 1.33223 0)
(0.310175 1.03262 -2.73511e-19)
(0.155634 1.44237 -8.13804e-19)
(0.186078 1.34966 8.13253e-19)
(0.89396 0.00941905 0)
(0.964063 0.0136291 0)
(0.97533 0.0140295 0)
(0.920797 0.0124102 0)
(-0.012059 1.63845 0)
(-0.00479891 1.64423 0)
(-0.0033184 1.52846 0)
(0.458484 0.350882 3.69913e-19)
(0.386193 0.331931 -4.56258e-19)
(0.394563 0.247776 0)
(1.15489 0.0846127 -4.43294e-21)
(1.14094 0.0381188 0)
(1.06754 0.0361344 0)
(0.983043 0.0020551 0)
(0.727682 0.098813 0)
(0.756997 0.0532038 -1.19225e-18)
(0.690658 0.0220833 4.5679e-19)
(0.0104859 2.98354 4.35446e-19)
(-0.0312749 2.86953 5.03401e-20)
(0.00397554 3.05026 -1.33273e-20)
(0.0199063 3.04352 4.79379e-19)
(-0.0150963 2.9966 2.21167e-20)
(-0.0129389 2.94939 -8.95996e-23)
(-0.0172541 3.012 -4.18953e-19)
(0.0146759 3.02422 3.02529e-19)
(0.00720083 3.0366 -4.73043e-19)
(0.965006 0.00563838 0)
(0.95828 0.00585287 0)
(0.90219 0.00517863 0)
(0.950286 0.01189 0)
(0.938193 0.00520465 0)
(0.87414 0.00624876 0)
(0.939038 -0.00269267 0)
(0.931183 -0.0028479 0)
(0.872633 -0.00856348 0)
(0.700091 1.38003 2.87804e-19)
(0.733641 1.49165 0)
(0.174443 0.252475 5.74915e-21)
(0.0972837 0.519107 1.70164e-19)
(0.20651 0.675424 -1.35725e-19)
(0.208743 0.56085 2.81402e-19)
(0.396515 0.624911 6.68525e-19)
(0.140435 0.146232 2.68107e-19)
(0.632677 0.226871 4.14136e-19)
(0.611659 0.260603 1.01367e-19)
(0.589394 0.169125 2.12711e-19)
(1.22236 0.468129 3.01965e-19)
(1.2423 0.263097 3.17774e-19)
(-0.00634845 1.69254 2.06369e-19)
(0.00366519 1.58411 0)
(1.02235 0.0219254 0)
(0.998314 0.011789 0)
(0.956315 -0.00326512 0)
(0.0108573 3.07456 0)
(0.0201935 2.94387 8.26868e-19)
(0.0167273 2.95623 0)
(0.00614158 2.85035 -8.20112e-19)
(0.0059174 3.09201 1.96445e-19)
(0.00721696 3.08254 0)
(0.765419 1.7977 -2.28048e-19)
(1.23078 2.48613 6.18277e-19)
(0.747941 1.94129 -1.45163e-18)
(0.0217571 2.98723 -3.17345e-19)
(0.0382753 3.01286 0)
(-0.0304009 2.88556 0)
(-0.00874142 1.67429 -8.06586e-21)
(-0.00344073 1.67662 -8.52889e-20)
(-0.00308033 1.5821 -6.15927e-21)
(0.279306 1.22476 8.47327e-19)
(0.329971 0.882353 -5.69344e-19)
(0.0380095 1.62036 5.47997e-19)
(0.0796524 1.55056 -6.6383e-19)
(0.105119 1.46223 7.77018e-20)
(0.00619727 3.11816 -1.03849e-18)
(0.0141583 3.11871 1.12563e-18)
(-0.00846364 2.98073 5.33772e-19)
(-0.00266124 2.9781 -4.73392e-19)
(-0.0216009 2.8826 -5.43633e-19)
(0.00874971 3.09858 -1.4398e-18)
(0.00195196 3.10608 1.43218e-18)
(0.317884 0.482256 0)
(0.106207 0.470397 1.01735e-19)
(0.0846056 0.00653685 -3.01927e-20)
(0.437663 0.79419 7.88094e-19)
(0.263084 0.364328 -1.19746e-18)
(1.23647 0.172099 -5.8812e-20)
(1.23977 0.314001 0)
(1.22519 0.121736 1.25609e-19)
(0.0022342 1.68113 -1.66574e-21)
(-0.00502731 1.68005 0)
(0.00421928 1.5824 0)
(0.310534 1.0739 -3.03251e-19)
(0.346722 0.954739 -6.28199e-19)
(0.304813 0.660511 1.09212e-18)
(1.00535 -0.00900709 0)
(1.00715 -0.00735492 1.87295e-19)
(-0.00447997 1.80089 0)
(-0.00927731 1.80642 0)
(1.0026 0.00353437 1.72856e-21)
(1.00194 0.00863878 3.82977e-19)
(0.00353272 1.78688 -4.57524e-21)
(0.0025962 1.78755 0)
(0.0428674 3.18859 1.13346e-19)
(0.395119 3.51161 0)
(1.10283 0.639622 6.87044e-20)
(1.01351 0.013132 -2.73323e-21)
(1.01029 -0.0204504 0)
(1.00155 0.000303228 2.70142e-22)
(-0.010402 1.74101 0)
(0.0386114 1.84041 0)
(-0.0217659 1.78616 0)
(0.0126569 1.80405 9.11927e-20)
(-0.00814535 1.80247 4.20468e-20)
(1.00233 0.0115369 2.29453e-21)
(1.04455 0.0148541 0)
(1.07473 0.025358 0)
(-0.00259601 1.77909 0)
(-0.00604152 1.79462 0)
(-0.00608627 1.79644 0)
(0.0342566 1.52927 -4.10099e-19)
(1.01189 -0.00944025 0)
(1.00991 -0.0168003 0)
(1.00375 0.000467797 2.38047e-19)
(1.00535 -0.00508346 -2.85619e-19)
(1.00147 -0.00220335 0)
(-0.00764322 1.78506 0)
(-0.00215429 1.79713 0)
(-0.00382038 1.79202 0)
(-0.0052528 1.79812 0)
(-0.00536523 1.79518 0)
(-0.00601212 1.79767 0)
(1.0248 0.0113465 0)
(1.02211 -0.000486946 -9.06711e-22)
(0.761379 1.21993 5.37172e-19)
(1.00199 0.00107638 -2.3823e-19)
(1.0039 0.00522883 2.8216e-19)
(1.00126 0.00203796 0)
(1.01097 0.0107112 2.323e-19)
(1.00753 0.0114513 -2.87116e-19)
(1.00369 0.0149047 0)
(-0.003057 1.79468 0)
(0.00210621 1.78932 1.52362e-20)
(0.00184375 1.78979 -1.10995e-20)
(1.17417 0.259048 -7.91288e-20)
(1.11064 0.0813691 0)
(0.0635987 3.07921 -5.39075e-19)
(0.0716637 2.84975 -4.3731e-20)
(0.154434 3.20307 8.04711e-19)
(0.145501 3.2314 -2.80075e-21)
(0.146586 3.25595 0)
(0.0231484 3.13935 1.16461e-19)
(0.0849337 3.16498 5.26793e-19)
(0.0778662 3.1935 -2.25369e-19)
(0.0284873 3.12747 0)
(0.705386 0.346015 0)
(0.607891 0.39925 0)
(1.08012 0.672209 -2.6165e-19)
(1.06803 0.811691 4.03974e-19)
(1.12684 0.551948 0)
(1.1651 0.50785 0)
(1.01512 0.0128131 -4.38425e-19)
(1.01085 0.0188966 5.45559e-19)
(1.00886 -0.0181219 0)
(1.00841 -0.0136611 0)
(1.00689 0.000795468 0)
(1.01234 0.00365394 0)
(1.00483 0.00258671 0)
(1.01361 0.00769231 0)
(1.00649 0.00536318 0)
(1.00531 0.00382637 0)
(-0.00878484 1.74889 0)
(-0.00581136 1.76331 0)
(-0.0275692 1.73227 0)
(-0.026752 1.70497 0)
(0.0328232 1.84732 0)
(0.0650998 1.84533 -3.47962e-19)
(0.0114939 1.84555 0)
(0.00405357 1.83174 1.61373e-19)
(-0.00607023 1.81577 -1.71978e-19)
(-0.0234649 1.78717 0)
(-0.0217586 1.78785 0)
(-0.0193814 1.78707 0)
(-0.0115158 1.78498 0)
(-0.00594581 1.8024 -4.83793e-20)
(-0.00825262 1.80293 5.82115e-20)
(0.00330372 1.80929 7.70554e-20)
(-0.00432093 1.80405 0)
(-0.00704048 1.80509 -9.62399e-20)
(-0.00591347 1.80271 -5.50892e-20)
(-0.00469399 1.80298 4.01351e-20)
(-0.00960383 1.79989 -7.9601e-20)
(-0.00668416 1.80504 -9.44728e-20)
(1.00945 0.0165702 4.17095e-19)
(1.00829 0.00407932 -5.28169e-19)
(1.00264 0.0198323 -4.39151e-19)
(0.987934 0.0165959 5.60152e-19)
(1.03805 0.0168659 0)
(1.04024 0.00905203 0)
(1.05997 0.0333868 0)
(1.04477 0.0159577 0)
(1.05987 0.0118927 0)
(1.09796 0.0642096 0)
(1.07522 0.0449187 0)
(1.09676 0.0308511 0)
(0.00297315 1.77826 -1.59479e-21)
(-0.00367215 1.7733 0)
(5.21719e-05 1.77428 0)
(-0.00658425 1.79699 1.5936e-20)
(-0.00578039 1.7962 -7.89608e-22)
(-0.0116307 1.77793 1.59493e-20)
(-0.00808183 1.78502 -1.63141e-20)
(-0.00829688 1.79439 0)
(-0.00695229 1.79546 0)
(-0.00752126 1.79583 0)
(-0.00874538 1.79575 0)
(-0.00892582 1.79713 0)
(0.123385 1.43367 8.09226e-19)
(0.272106 1.37902 3.29391e-19)
(0.413528 1.86423 -2.03627e-19)
(0.255381 1.79502 5.40086e-19)
(-0.0707969 2.28294 9.91261e-20)
(1.01185 -0.0225673 0)
(1.01445 -0.0184172 0)
(1.00974 -0.0260807 0)
(1.00944 -0.00234114 0)
(1.00629 -0.00336327 0)
(1.00567 -0.00479203 0)
(1.00926 -0.00659013 0)
(1.01093 -0.0127953 0)
(1.0239 0.000816071 4.14236e-19)
(1.01982 0.00413124 -5.27865e-19)
(1.02268 0.00118424 -4.05515e-19)
(1.01906 0.00284955 4.98519e-19)
(0.75644 1.23028 0)
(0.623056 1.28053 6.53551e-19)
(0.850931 1.16246 3.8568e-19)
(0.894167 1.1077 -5.13436e-19)
(1.14355 2.56416 -3.8686e-19)
(0.820279 0.119545 2.82166e-19)
(1.11186 0.0897786 0)
(1.15717 0.174075 7.08216e-20)
(1.14517 0.152015 3.26298e-21)
(0.963161 0.136901 0)
(0.171952 2.97812 8.11746e-20)
(0.137043 2.87947 -6.7734e-19)
(0.0528693 2.33398 5.02146e-19)
(0.124625 0.164687 -2.04153e-19)
(0.33659 3.43778 -4.55218e-19)
(0.200023 3.33313 0)
(0.239473 3.38273 5.92854e-19)
(0.257569 3.05853 -6.22727e-19)
(0.359957 3.21568 0)
(0.00754804 3.12031 2.75729e-20)
(0.0195246 3.12937 -3.51752e-19)
(0.0168823 3.12502 5.17747e-19)
(0.0399783 3.14024 0)
(0.0387486 3.15295 0)
(1.18012 2.58298 0)
(0.508738 0.827499 -2.14322e-19)
(1.00971 0.98052 -2.12269e-19)
(0.961295 1.03283 0)
(0.834507 0.920276 6.16534e-20)
(1.03701 0.857209 3.31626e-20)
(0.408406 0.494111 -5.34549e-19)
(0.733725 0.339575 -2.39895e-20)
(0.740557 0.290327 2.18168e-19)
(0.606661 0.438711 1.74132e-20)
(0.564014 0.431042 -7.15671e-19)
(0.701513 0.372029 0)
(0.677685 0.429729 3.60123e-19)
(0.690086 0.42988 0)
(0.651446 0.412829 0)
(0.668135 0.360438 0)
(0.732087 0.608772 1.25138e-19)
(1.16013 0.264925 4.31917e-20)
(1.15921 0.393787 0)
(1.18451 0.364744 0)
(0.787507 0.221954 3.23735e-19)
(0.78596 0.539095 -1.7889e-19)
(0.685882 0.50622 2.90021e-19)
(0.873211 0.407017 -2.73858e-19)
(1.01826 0.00849099 2.84332e-19)
(1.01485 0.0176138 -2.93789e-19)
(1.01382 0.0184055 0)
(1.01983 0.0124749 0)
(1.01034 0.000696688 -2.60537e-19)
(1.01046 0.00537688 2.6022e-19)
(1.027 0.00370308 0)
(1.02651 -0.000135085 0)
(1.01444 0.00724401 0)
(1.01802 0.0133888 0)
(1.02917 0.00223991 0)
(1.02339 0.00231771 0)
(-0.0095146 1.77317 0)
(-0.00646344 1.77513 0)
(-0.0545972 1.74977 6.41295e-20)
(0.0048292 1.58089 1.71835e-19)
(-0.0334871 1.69041 3.46717e-19)
(-0.0189657 1.62697 -5.62738e-19)
(-0.0890175 1.73686 0)
(-0.0718457 1.8506 -1.00512e-19)
(-0.0467978 1.84536 0)
(-0.0262053 2.23744 -1.3803e-19)
(0.0845589 2.0826 5.07648e-19)
(-0.107599 1.87189 9.04344e-20)
(-0.122712 1.64853 1.03596e-19)
(-0.114962 1.71374 -8.27794e-20)
(-0.17977 1.65565 2.15304e-19)
(-0.105933 1.94357 0)
(-0.117917 1.98191 -1.03968e-19)
(-0.0176453 1.81039 -4.47989e-20)
(-0.0131881 1.81741 0)
(-0.0160742 1.80453 1.88466e-19)
(-0.0190535 1.80741 0)
(-0.00399314 1.82828 -1.78167e-19)
(-0.00663456 1.82346 0)
(-0.0122283 1.79384 -3.75716e-20)
(-0.00293105 1.79964 0)
(-0.00630638 1.79754 0)
(-0.0129763 1.79308 4.20486e-20)
(0.0062458 1.80833 9.24477e-22)
(-0.000602127 1.81618 2.08916e-19)
(0.0105853 1.81084 1.35494e-21)
(-0.0129288 1.79125 3.22862e-20)
(-0.0125714 1.79272 1.96611e-20)
(-0.0205703 1.79098 0)
(-0.0171218 1.79287 0)
(-0.0064793 1.80088 1.07462e-19)
(-0.00222061 1.79578 6.81402e-20)
(-0.0027362 1.79783 -9.62178e-20)
(-0.0126279 1.80576 0)
(-0.010226 1.78662 -5.98446e-20)
(-0.00948822 1.79529 2.58597e-20)
(-0.00989736 1.79489 -7.97629e-21)
(-0.0114474 1.79114 -4.0123e-20)
(-0.00650618 1.79895 -1.36699e-20)
(-0.00738701 1.80173 6.49875e-20)
(1.01843 0.00515047 -2.69803e-19)
(1.0135 0.00961178 2.8125e-19)
(1.01216 0.00472618 0)
(0.993974 0.0471816 3.91785e-19)
(0.986628 0.0333305 -4.70171e-19)
(0.96228 0.0295851 5.39874e-19)
(0.99497 0.0887128 -5.22685e-20)
(1.02585 0.00966438 0)
(1.03157 0.00990859 2.34216e-19)
(1.03198 0.00608974 -2.32377e-19)
(1.03321 0.0405564 -1.29236e-20)
(1.02939 0.0254939 1.14302e-19)
(1.01706 0.0432344 0)
(1.00939 0.0386352 -4.25729e-20)
(1.00974 0.024089 0)
(1.01486 0.0173025 0)
(1.025 0.00589162 0)
(1.02085 0.0029539 0)
(1.01455 0.0240571 8.83346e-20)
(1.02049 0.0150847 -1.99699e-19)
(1.01653 0.0341643 -9.0564e-20)
(1.01511 0.0331427 -1.03988e-19)
(1.01325 0.0412814 1.82348e-19)
(1.04879 0.0405322 0)
(1.03766 0.0844996 0)
(-0.0105362 1.78636 -2.37999e-20)
(-0.00861081 1.77798 -1.92506e-21)
(-0.00870127 1.77982 0)
(-0.00385694 1.78973 2.37396e-20)
(-0.00390309 1.78529 3.33353e-21)
(-0.00209575 1.78838 -3.81043e-21)
(-0.00539387 1.80251 4.82976e-20)
(-0.00715259 1.79926 -2.93582e-21)
(-0.00663063 1.79822 1.40163e-20)
(-0.00497979 1.79966 -2.48992e-20)
(-0.00478484 1.80013 2.93313e-20)
(-0.0117849 1.78474 6.12002e-22)
(-0.0132274 1.77923 2.44488e-20)
(-0.0149353 1.37097 -4.13005e-19)
(-0.157222 1.68359 -4.18407e-19)
(0.614184 1.24788 -6.29671e-19)
(0.407457 1.28565 -3.16205e-19)
(0.509787 1.32764 0)
(0.431337 1.93722 2.15596e-19)
(0.604686 1.77124 3.08965e-19)
(0.290064 1.79425 8.11018e-20)
(0.263337 1.99522 -5.76721e-19)
(0.279327 2.11333 5.69209e-19)
(0.392624 1.84053 0)
(0.344347 1.78492 -4.79542e-19)
(0.100126 1.83457 9.16661e-19)
(0.199509 1.81293 -6.60564e-20)
(0.132037 1.8052 -1.22639e-18)
(0.904685 2.44684 -1.55087e-19)
(0.785265 2.21362 0)
(1.01229 -0.00778821 9.54283e-21)
(1.01287 -0.0157949 -7.82301e-21)
(1.01409 -0.0157565 -1.39464e-19)
(1.02738 -0.0154811 1.39609e-19)
(1.02608 -0.0102839 0)
(0.733737 1.11971 0)
(0.75602 1.09095 0)
(0.762012 1.06942 0)
(0.703112 1.12603 0)
(1.16168 2.59114 5.17873e-20)
(1.0516 2.31065 0)
(1.06464 2.27895 -2.57183e-21)
(0.76049 2.68482 0)
(1.0168 2.69277 2.09382e-19)
(1.04391 2.63119 -1.37438e-19)
(0.831446 0.157554 0)
(0.80199 0.162197 8.15309e-20)
(0.884245 0.124188 4.14686e-19)
(0.848218 0.108812 -1.65165e-19)
(0.851617 0.0679671 -5.02976e-19)
(1.01012 0.207569 -2.50335e-19)
(0.927958 0.253616 -1.77423e-20)
(0.898989 0.248789 3.71214e-19)
(0.957994 0.174608 2.78932e-19)
(0.912151 0.159088 -5.20295e-19)
(0.891496 0.162146 6.71263e-20)
(0.931844 0.211912 -1.30802e-19)
(0.903457 0.178988 0)
(0.969475 0.157956 2.50058e-19)
(0.998311 0.165305 0)
(0.990944 0.179766 0)
(1.04406 0.1006 7.97978e-20)
(1.0141 0.156368 -1.24783e-20)
(1.00595 0.21589 -4.37645e-20)
(1.04947 0.191827 0)
(1.00559 0.0257091 2.08581e-19)
(1.00641 0.0374872 2.50191e-19)
(1.00968 0.0309483 -2.06152e-19)
(1.00685 0.0424752 -1.67928e-19)
(0.998132 0.0513028 -2.78023e-19)
(0.958992 0.132504 0)
(0.989577 0.0899585 0)
(0.962188 0.0409363 -1.95105e-19)
(0.92177 0.0519003 8.19565e-20)
(1.00011 0.0811726 2.38707e-19)
(1.00785 0.099208 -2.46064e-19)
(1.01921 0.138982 2.25226e-19)
(1.00711 0.126129 0)
(1.0179 0.0801012 0)
(1.0077 0.0652374 -1.01401e-19)
(1.00883 0.070531 -1.91487e-19)
(0.734906 1.22306 -3.75232e-20)
(0.669866 1.48111 4.57565e-20)
(1.10291 2.71794 9.61417e-22)
(1.1856 3.0817 -6.62811e-20)
(1.22542 2.68991 4.34494e-19)
(1.25172 2.68028 -2.96451e-19)
(1.18208 2.30868 -7.68152e-21)
(1.17304 2.97063 1.37034e-19)
(1.20103 2.92286 -1.02e-19)
(1.18132 3.2366 -2.5623e-19)
(1.34691 2.95098 3.54507e-19)
(1.3377 2.87335 0)
(0.491632 0.842516 -1.39032e-20)
(0.186321 1.309 3.48033e-19)
(0.519854 0.544013 3.52014e-19)
(0.356432 0.333142 3.97347e-19)
(0.563747 0.451227 3.97857e-19)
(0.540828 0.503761 -6.29875e-19)
(0.540253 0.521796 5.16029e-19)
(0.520101 0.473868 -2.09811e-19)
(0.49378 0.426865 4.84909e-19)
(0.790033 0.254755 -1.79758e-19)
(0.761472 0.285936 0)
(0.765503 0.254874 1.25562e-20)
(0.670819 0.512026 1.85107e-19)
(0.656259 0.480201 -6.81803e-19)
(0.595468 0.500212 2.01986e-20)
(0.618834 0.467125 0)
(0.61518 0.730917 1.45374e-19)
(0.783683 0.756797 4.74392e-20)
(0.722659 0.81412 -6.45272e-20)
(0.825098 0.791423 -1.47222e-20)
(0.883333 0.824332 1.57974e-20)
(0.891386 0.834316 -1.61509e-20)
(0.774908 0.627342 -2.12716e-19)
(0.857149 0.711188 1.36823e-20)
(0.931296 0.703318 0)
(0.914626 0.66327 -1.38614e-20)
(0.954916 0.289841 5.92116e-20)
(1.06512 0.261205 7.10847e-21)
(0.997701 0.234674 1.02544e-19)
(0.931816 0.329575 -1.36015e-19)
(0.980092 0.40809 0)
(1.04203 0.389515 0)
(0.849381 0.337925 2.29531e-21)
(0.85171 0.275053 0)
(0.851405 0.247129 1.9416e-19)
(0.875684 0.255719 -3.55821e-21)
(0.866022 0.41065 7.49982e-19)
(0.829302 0.473527 1.87749e-19)
(0.82349 0.436528 -2.42888e-19)
(0.756386 0.433125 2.60804e-19)
(0.745354 0.432951 1.76901e-19)
(0.728715 0.423516 -1.73581e-19)
(1.02317 0.0104159 2.26793e-19)
(1.03185 0.000696582 0)
(1.03301 -0.00362996 1.49357e-19)
(1.0216 0.00158162 -3.38374e-19)
(1.03403 0.00360923 1.60255e-19)
(1.03126 0.00489562 -3.46985e-19)
(1.02842 0.00166788 0)
(1.02417 0.00403777 -7.20239e-20)
(1.02968 0.00484169 1.8122e-19)
(1.02072 0.0110279 -9.11468e-20)
(1.02234 0.0103312 6.64069e-20)
(-0.00367112 1.78601 0)
(-0.00860761 1.79551 0)
(-0.00197433 1.78059 0)
(-0.000276287 1.78149 0)
(-0.0307952 1.7822 -8.25439e-21)
(-0.0304658 1.76522 5.9486e-23)
(-0.0517568 1.83195 -3.14944e-20)
(-0.0637027 1.77161 -5.43903e-20)
(-0.00679688 1.79906 -5.57818e-20)
(-0.0154627 1.79706 4.02501e-20)
(-0.0207049 1.78833 -1.11857e-20)
(-0.0144865 1.79962 8.42575e-21)
(-0.00957932 1.79672 8.1773e-22)
(-0.0068403 1.79728 -4.74473e-21)
(-0.0135383 1.81119 -2.09703e-19)
(-0.00403312 1.82532 0)
(-0.0139349 1.81657 1.18434e-19)
(-0.024878 1.82224 7.75472e-20)
(-0.0123408 1.9402 -8.31362e-20)
(0.0924323 1.89495 0)
(0.0819658 1.92595 -5.96711e-19)
(0.0946131 2.01075 4.06372e-19)
(0.00588791 1.88697 -2.30612e-19)
(-0.00521689 1.84401 1.29809e-19)
(0.00690267 1.85415 0)
(-0.00633465 1.80203 -1.35999e-19)
(-0.00350019 1.80338 -1.80643e-19)
(-0.00330904 1.80303 0)
(-0.00273849 1.81028 -5.36613e-21)
(-0.0123446 1.81064 7.10779e-20)
(-0.0213007 1.79012 5.19939e-21)
(-0.0225664 1.78982 -9.25085e-20)
(-0.0221136 1.78462 2.05986e-20)
(-0.0196173 1.78385 3.72328e-20)
(-0.0155195 1.79465 0)
(-0.0187533 1.7842 0)
(-0.0122501 1.79573 2.75975e-20)
(-0.0115893 1.78438 -8.98418e-21)
(-0.0178197 1.78426 0)
(-0.0169607 1.795 2.21293e-20)
(-0.0127548 1.79648 -4.16151e-20)
(1.02165 0.0151175 0)
(1.02381 0.0136088 -2.13963e-20)
(1.02006 0.014778 -1.59285e-19)
(1.02068 0.0193972 0)
(1.02124 0.0214245 0)
(1.02357 0.00742761 -4.85537e-21)
(1.02392 0.00787243 2.66499e-19)
(1.02082 0.00806136 3.23999e-19)
(1.02024 0.00660889 0)
(1.01795 0.0071225 0)
(1.0192 0.0131036 1.62546e-19)
(1.01759 0.0112212 0)
(1.0187 0.0109918 0)
(-0.0121556 1.78712 0)
(-0.0131125 1.77779 2.34285e-21)
(-0.0135166 1.77952 1.34658e-20)
(-0.0115632 1.78399 0)
(-0.0128135 1.7802 1.83667e-20)
(-0.0108671 1.78368 -8.68493e-21)
(-0.00912385 1.78401 0)
(0.170752 2.42989 0)
(-0.233599 1.7892 8.82206e-19)
(-0.108093 2.19516 0)
(0.0641423 1.37184 -1.26309e-18)
(0.288531 1.07702 0)
(0.126763 1.28833 5.79111e-19)
(1.082 2.81803 4.36436e-21)
(0.942686 2.54901 1.91929e-19)
(0.834592 2.2582 -1.43991e-19)
(0.805193 2.31617 1.45038e-19)
(0.892713 2.66931 0)
(0.959478 2.6089 0)
(0.863635 2.41298 0)
(0.900458 2.27598 -4.48884e-19)
(0.381791 2.70073 1.47966e-20)
(0.714552 2.73531 1.42132e-20)
(0.738087 2.67703 -1.0565e-20)
(0.562887 2.03132 0)
(0.724672 2.18932 0)
(0.697059 1.98721 -2.87324e-19)
(0.55801 2.61446 0)
(0.651029 1.10619 0)
(0.458003 0.928103 -6.34816e-20)
(0.529232 0.949787 -5.04216e-21)
(0.545052 1.08372 0)
(0.470407 1.09931 9.81694e-20)
(0.77003 0.862387 1.79488e-20)
(0.79764 0.981984 0)
(0.76489 0.92106 -7.18959e-20)
(0.630351 1.06067 0)
(0.632484 0.932861 0)
(1.15896 2.72684 -1.30609e-21)
(1.13022 2.78795 9.43505e-21)
(1.01574 2.26214 -5.88263e-20)
(1.04694 2.29095 3.35601e-20)
(1.13677 2.72646 0)
(1.14291 2.69255 -3.96364e-20)
(1.06199 2.46012 -1.36875e-19)
(0.920322 2.16942 -2.54513e-20)
(0.835632 1.54306 0)
(0.810489 1.14662 3.29297e-20)
(0.753248 1.10269 0)
(0.847895 0.194728 0)
(0.817923 0.174486 0)
(0.776222 0.185721 0)
(0.851339 0.206366 -3.04771e-19)
(0.804267 0.216199 1.88119e-19)
(0.923028 0.0502706 -1.62672e-19)
(0.926316 0.0929521 0)
(0.896174 0.0998914 7.80613e-20)
(0.883063 0.0607311 3.09456e-19)
(0.886588 0.0553644 -1.90124e-19)
(1.13224 3.36455 -9.58295e-19)
(1.17771 3.28463 0)
(1.13861 3.39663 -1.93608e-18)
(0.629383 3.56295 1.65007e-18)
(0.843324 3.14244 4.18643e-19)
(0.48573 0.854633 1.94388e-19)
(0.377512 0.890059 0)
(0.341822 0.552888 -7.68862e-20)
(0.400046 0.678539 3.46742e-19)
(0.512612 0.532948 -1.09595e-19)
(0.495016 0.554618 1.20805e-19)
(0.602001 0.526935 2.58516e-19)
(0.620464 0.54923 0)
(0.594898 0.611319 0)
(0.54444 0.548864 0)
(0.91693 0.576529 -4.94254e-20)
(0.832538 0.515573 -1.81492e-19)
(0.865008 0.55935 8.3394e-20)
(0.891353 0.492099 -1.34033e-19)
(1.00819 0.464546 0)
(1.00079 0.543103 -5.72857e-21)
(0.787645 0.380939 -3.91208e-19)
(0.79794 0.362158 -4.50962e-19)
(0.77006 0.392072 3.06307e-19)
(0.775723 0.355597 -3.49087e-19)
(0.834192 0.292424 -2.42344e-19)
(0.808617 0.300256 3.05575e-19)
(1.03241 0.00574253 -1.62829e-19)
(1.0314 0.00743926 3.37857e-19)
(1.02488 0.0131707 2.14266e-19)
(1.02574 0.0142494 -2.52688e-19)
(1.02053 0.0159626 0)
(1.0246 0.0103215 -4.19877e-19)
(-0.0145768 1.80659 2.63296e-20)
(-0.0191547 1.80513 0)
(-0.021287 1.80307 2.2163e-19)
(-0.0201156 1.81883 -2.06298e-19)
(-0.0409859 1.82241 5.84631e-20)
(-0.0337672 1.81364 0)
(-0.0121937 1.78709 0)
(-0.0148811 1.78329 -1.02204e-20)
(-0.0141831 1.78016 8.76191e-21)
(-0.0132493 1.7802 2.22986e-21)
(-0.0117624 1.78535 -1.84089e-20)
(-0.0112542 1.78706 1.16254e-20)
(0.787116 1.63201 1.00041e-18)
(0.612994 1.75799 -1.06157e-18)
(0.230353 1.39909 9.14473e-19)
(0.283684 1.95293 -5.95466e-20)
(0.732427 1.06278 0)
(0.473194 1.05259 6.54279e-19)
(0.513732 1.07224 -6.41771e-19)
(0.384457 0.960346 -8.95539e-19)
(0.710777 1.06566 0)
(0.765398 1.07143 0)
(0.254383 2.66246 -2.24192e-20)
(0.388944 2.46805 7.95042e-19)
(0.502098 2.54621 -5.1681e-19)
(0.327064 2.38928 -1.81522e-19)
(0.109984 2.49031 2.57699e-19)
(0.22102 2.27994 -6.92689e-19)
(0.918418 2.43407 8.47118e-20)
(0.971442 2.3885 0)
(0.822072 2.15034 -2.03616e-19)
(1.07575 2.73904 0)
(1.09075 2.74925 0)
(0.589052 2.33631 2.24752e-19)
(1.00889 3.18575 4.61484e-19)
(0.879349 3.0718 -4.27686e-19)
(0.328098 0.984921 0)
(0.326095 0.833991 -1.27899e-19)
(0.439016 0.779303 -6.47696e-20)
(0.362817 2.11714 0)
(0.493357 2.8285 -2.92061e-19)
(0.413572 2.59893 0)
(0.647995 0.653838 -2.99325e-19)
(0.696517 0.672967 3.81863e-19)
(0.732149 0.62304 -3.7256e-19)
(0.609606 0.629394 -4.47644e-20)
(0.657926 0.587862 -1.8429e-19)
(0.962475 2.8174 -3.50681e-19)
(1.01068 2.86566 2.52777e-19)
(0.578111 2.18171 1.20945e-19)
(0.596482 1.80498 -1.2244e-19)
(0.648872 1.96 -2.4215e-21)
(0.953184 2.50702 -1.11951e-19)
(0.956724 2.48383 -5.96799e-20)
(0.59531 1.91218 -9.68743e-22)
(0.404958 1.43732 -1.1028e-20)
)
;

boundaryField
{
    wall-4
    {
        type            noSlip;
    }
    velocity-inlet-5
    {
        type            fixedValue;
        value           uniform (1 0 0);
    }
    velocity-inlet-6
    {
        type            fixedValue;
        value           uniform (0 3 0);
    }
    pressure-outlet-7
    {
        type            zeroGradient;
    }
    wall-8
    {
        type            noSlip;
    }
    frontAndBackPlanes
    {
        type            empty;
    }
}


// ************************************************************************* //
