/*--------------------------------*- C++ -*----------------------------------*\
| =========                 |                                                 |
| \\      /  F ield         | OpenFOAM: The Open Source CFD Toolbox           |
|  \\    /   O peration     | Version:  4.0                                   |
|   \\  /    A nd           | Web:      www.OpenFOAM.org                      |
|    \\/     M anipulation  |                                                 |
\*---------------------------------------------------------------------------*/
FoamFile
{
    version     2.0;
    format      ascii;
    class       surfaceScalarField;
    location    "59";
    object      phi;
}
// * * * * * * * * * * * * * * * * * * * * * * * * * * * * * * * * * * * * * //

dimensions      [0 3 -1 0 0 0 0];

internalField   nonuniform List<scalar> 
1300
(
3.75095
5.62643
-3.32426
3.75095
-7.75376
5.62643
-4.37634
4.37634
-0.505539
0.505539
1.87639
1.87456
-2.7162
2.7162
-2.19802
2.19802
-2.53392
2.53392
-5.24648
5.24648
-5.06923
5.06923
4.65659
-4.65659
-6.29328
6.29328
-0.964568
0.964568
-3.66058
3.66058
3.16964
-3.16964
-2.13806
2.13806
-0.0336733
0.0336733
-0.553481
4.30443
3.19747
3.19747
-2.01117
2.01117
-4.86805
4.86805
6.21808
-6.21808
5.32411
-5.32411
-1.99985
-2.44798
1.8188
-11.5216
-5.93496
-5.93496
-8.44037
8.44037
-2.81394
2.81249
2.94579
-2.94579
-1.77563
1.77563
-4.33535
-0.0409874
-4.33535
4.34702
0.0293181
4.34702
-0.570557
0.0650175
-0.570557
3.97071
-3.97071
0.415921
0.089618
0.415921
3.06527
-3.06527
-1.87711
3.7535
1.87384
-1.87189
6.17632
-1.87906
3.75363
-6.01462
6.01462
-2.93526
0.219053
-2.93526
2.53319
0.183011
2.53319
-6.83879
6.83879
-2.23554
0.0375192
-2.23554
2.16793
0.0300851
2.16793
2.87917
-2.87917
-2.64515
0.11123
-2.64515
2.40315
0.130777
2.40315
0.353512
5.27292
-5.97994
8.79243
-5.27292
0.0264334
5.20835
0.0381377
5.20835
-5.10604
0.0368157
-5.10604
5.01199
0.0572364
5.01199
4.74307
-0.0864855
4.74307
-4.77449
0.117897
-4.77449
-3.36845
-4.04783
-6.44376
0.150479
-6.44376
-1.04828
0.0837145
-1.04828
0.856981
0.107587
0.856981
-3.68108
3.68108
-4.08363
0.42305
-4.08363
3.12402
0.0456181
3.12402
1.86849
1.88246
5.61945
-5.61945
2.4498
-2.12117
-0.0168937
-2.12117
-2.18629
-3.13782
2.18629
-0.0482318
-0.266175
0.232502
-0.266175
3.15941
0.0380634
3.15941
2.23719
0.165953
-2.23719
0.226026
3.26812
-3.26812
1.33851
0.672653
1.33851
-5.56384
5.56384
4.95593
0.0560603
-4.95593
0.0878789
6.15685
0.0612232
6.15685
-6.19954
-0.0185323
-6.19954
2.53528
-4.98326
-2.60802
6.11301
0.180264
-6.11301
0.178053
2.91743
0.0283579
2.91743
-2.91982
2.91982
-2.98444
0.0386456
-2.98444
-2.17464
0.399015
-2.17464
1.47685
0.29878
1.47685
-4.23285
-0.102497
-4.23285
-4.23658
0.152959
4.23659
0.110432
1.12728
-1.12728
-0.672094
0.101537
-0.672094
-4.09535
-0.137503
4.09535
-0.124638
-3.86109
-0.109616
-3.86109
-3.02436
0.0399257
3.02436
0.0409031
3.11283
0.0465763
-3.11283
0.0475666
-1.87082
3.75328
-1.88013
3.75398
-5.63436
-0.380253
-5.63436
6.32429
-0.309676
6.32429
3.30964
0.350941
-3.30963
0.374377
2.39764
0.135558
2.39764
-6.80351
-0.0352752
-6.80351
6.82143
0.0173627
6.82143
2.30269
0.094946
-2.30269
0.067152
2.13948
0.0284507
2.13948
2.89849
-0.0193172
2.89849
-2.87387
-0.00530008
-2.87387
2.79675
-2.79675
2.72525
0.0715073
-2.72525
0.0800944
-11.1331
11.1146
-0.0352868
-11.0978
5.17306
5.17306
4.17101
0.57206
4.17101
-4.99214
0.21765
-4.99214
2.6817
-5.28972
3.07614
-6.44459
4.66371
-16.1853
4.30359
-8.35142
6.68474
-6.68474
6.57304
0.111695
-6.57304
0.129289
-1.16017
0.111892
-1.16017
-3.07776
-0.60332
-3.07776
4.32505
-0.643972
4.32505
-3.02827
3.02827
-3.07753
0.0492607
3.07753
0.0464926
2.11534
0.0241381
-2.11534
-0.00582196
0.340866
0.0750551
-0.340866
0.0746913
3.47728
-0.209162
3.47728
-3.07225
-0.195868
-3.07225
-1.25416
0.0939815
1.25416
0.0843572
-5.81416
0.250328
-5.81416
-11.1908
0.0929229
-11.1526
-6.10662
-6.10662
2.33375
11.1262
-2.89238
0.0185011
2.89238
0.0250583
2.97524
0.0530276
-2.97524
0.0554257
-2.8608
0.0640406
2.8608
0.0590224
-2.54981
0.37517
-2.54981
-1.07358
1.07358
-1.24058
0.166995
1.24058
0.236273
1.39774
-0.27046
1.39774
0.762745
0.0942358
-0.762745
0.0906515
-3.76518
-0.0959185
-3.76518
6.55746
-0.233167
6.55746
-2.95931
-0.112941
2.95931
-0.0608163
-0.0333111
11.1479
-5.13975
0.033705
5.13975
-11.2091
11.2428
-3.22093
0.67112
3.22093
0.95008
5.28474
0.279097
-5.28474
0.292604
6.76995
0.0514744
-6.76995
0.0852124
-2.58521
-0.492551
-2.58521
-5.05171
-0.582652
5.05171
-0.726661
-11.4749
-0.204668
11.6796
-11.4177
6.01883
0.138021
-6.01883
11.3808
-1.03001
-0.0972625
1.03001
0.0435679
1.72439
-0.326654
1.72439
3.66843
-0.191156
-3.66843
-0.0967414
-6.70933
-0.0941873
6.70933
-0.151869
-2.1408
-0.444409
2.1408
-0.416407
-4.26709
4.30515
1.90923
-2.39829
-2.58497
-5.53611
1.85187
1.90141
4.30167
-10.1551
-6.03023
-9.97701
7.26233
-6.96973
-9.2474
9.16092
7.84573
-7.95534
-5.78495
5.83144
6.48274
-6.44184
1.87879
1.87471
7.97067
-7.75162
-15.6257
15.2455
7.50483
-7.46731
15.7785
-15.8137
-17.8596
17.9111
-5.69462
5.80585
-6.73751
6.73221
-6.97051
6.9097
-2.83027
-3.61432
13.1231
-12.9726
8.53684
-8.55373
-8.58961
9.01266
3.38257
0.922586
3.42915
-1.88217
3.76097
-1.87145
3.78068
2.70827
-5.53854
2.58144
-5.16641
4.32588
4.21095
-4.27765
-1.25845
-5.92386
5.95222
-5.81542
5.87444
9.11469
-9.15567
-1.88516
3.75987
-1.86882
3.77023
-3.42503
-2.35993
3.37941
0.922267
8.0779
5.04516
-8.25816
-1.71885
-8.01892
7.82776
-8.22085
8.02499
-0.43565
5.81885
-5.3832
4.4324
-1.56196
7.38081
5.70037
5.91802
5.86576
-5.58666
1.10397
-6.48717
-6.39929
-2.35184
2.45337
2.23522
-2.1456
6.10786
1.73786
5.98322
-5.73778
-2.21756
-5.8337
3.82074
2.01071
3.87
4.07814
2.4046
4.11807
3.03056
-3.03588
0.0053185
-3.05656
6.08712
0.723989
-5.41649
-4.49422
4.96751
3.00316
5.15052
-5.52639
-2.22523
-5.15201
-9.54826
-6.07749
-10.1309
10.094
5.15146
9.78436
-11.9681
11.8162
4.78995
2.71488
4.82003
-4.9194
-2.54792
-4.85224
11.6391
-2.61769
-9.02146
-10.3257
-7.53397
10.3083
5.47015
10.9685
6.94257
11.0537
4.42457
7.21458
-9.89472
2.36075
-3.8611
-1.83351
-3.78101
3.66211
2.14374
3.79289
-4.21661
-2.52091
-4.19811
-4.2941
-2.67641
4.31342
2.41879
-4.41441
-3.80645
4.52735
2.38235
4.03697
-10.0672
4.31445
-7.92877
-9.2022
-3.77038
-9.07292
3.50027
2.60318
-6.10345
-2.03827
8.46313
-4.25218
7.20468
-5.16634
-3.38739
-5.17216
-6.86616
-1.72346
-6.7132
-8.88399
8.39144
-9.18244
8.53847
12.5453
-5.66513
-6.8802
-3.96839
-2.47345
3.92082
-0.491677
-3.71059
3.71591
0.0503753
3.83106
4.75364
4.26197
-3.88492
-1.9305
-3.8295
3.8263
2.04815
3.89034
6.82531
2.28937
6.85463
-6.5866
-2.56907
-6.6891
9.04564
-8.64662
2.85149
-2.75751
5.38546
2.63952
-5.1763
-2.84262
6.2146
-3.21589
-2.99871
-12.1993
10.5327
1.66661
-4.81851
-0.386107
-0.352433
-5.49022
-3.75718
5.37233
0.545691
11.0784
7.32123
-5.51157
5.7619
6.16799
6.22405
-0.17524
5.81208
-5.14096
5.26713
-2.55583
-2.7113
5.44533
-5.58283
-1.24378
-5.494
4.25022
0.400396
1.54675
-1.31425
-1.83196
-0.519878
-1.74131
1.32664
0.908575
1.4017
0.930296
1.52308
-2.95132
0.557502
2.39382
-2.02103
-1.5881
-3.77657
-1.13092
4.90749
5.71674
2.11103
-5.62
-0.213703
2.57628
-2.46869
-0.75308
-3.02349
2.23408
-2.98716
-3.67411
-2.03461
5.70872
-3.36996
-0.459539
3.31693
0.553067
-3.82691
-2.09695
3.78826
0.32981
-3.12731
6.19052
-3.06321
-5.05781
2.52782
3.5593
4.53853
-4.78957
2.44735
2.34221
-1.23027
4.24416
0.906366
4.37972
-6.91359
4.68836
5.7863
3.22637
-6.13724
0.985222
-5.92836
8.53997
-7.36753
-1.17244
4.13799
4.40197
7.08221
5.46312
-5.68042
12.7626
-1.199
-6.16853
7.12736
-3.90099
4.84985
-8.75085
-10.313
4.14443
-9.15911
10.9352
-1.77611
-3.6254
-8.34266
12.7845
-1.20853
-11.576
8.57583
-4.23592
-4.31819
8.55411
-6.8536
6.86611
-1.98707
-4.87903
-10.1131
-5.70067
10.2072
1.60894
-9.88371
12.2445
-2.66913
4.1036
0.716438
4.13205
3.28451
-5.46248
2.17797
3.56909
-5.55617
2.08701
-7.5495
-6.73486
12.0665
-5.33162
-10.5052
-9.52412
-0.981122
2.53407
9.7104
-9.47663
7.43159
2.04505
3.30226
0.588081
-3.37376
-0.407246
0.238527
4.53079
-4.76931
4.03141
4.19737
3.29302
1.23777
3.8446
2.10761
-3.86966
-0.328442
-4.16214
1.48572
-1.74334
-3.69187
5.17759
-4.06617
0.374298
-2.74695
-3.50001
6.24696
-4.58046
3.03624
3.15429
5.08438
-4.91309
1.41308
-2.39353
-2.51956
2.65309
-4.39643
1.98909
3.1885
4.37144
0.564991
5.87495
6.19153
-8.47813
0.549357
11.2367
-9.51784
2.46853
8.58522
-9.90012
0.376005
-8.69691
0.992502
-5.24468
-5.11095
5.18904
-6.91249
-3.56181
6.19947
0.65516
-6.3099
-0.403294
-6.03758
-2.8464
-6.48199
-3.04672
-6.13573
-8.72714
-1.65239
-7.07474
6.73904
-6.68604
-3.44487
7.4127
1.12577
-7.41219
7.31492
-7.49075
7.1641
0.0952885
3.62062
4.35725
1.8838
-2.39035
4.27415
-5.11088
7.40025
-8.69464
3.58376
4.1767
-6.74577
-4.51794
5.02535
4.02029
5.32413
8.89398
-10.3676
1.47361
-10.6675
12.0014
-1.33399
-16.4318
5.76438
-7.53784
2.46976
0.381734
2.58165
0.554846
2.50002
-3.05487
-2.20266
-2.1183
-2.42519
-3.46456
5.88975
1.1084
-3.51441
2.40601
-3.56968
4.67807
-0.190097
-3.32431
5.2857
-2.78568
5.66744
-3.75978
1.90766
3.42892
5.7495
-2.32058
4.3932
-1.75368
1.91398
-4.23456
-1.55059
-2.96272
5.10646
-3.28424
3.65854
-0.337142
3.99568
-4.06227
0.846373
-0.76925
3.42812
3.65414
4.30912
-3.07134
2.92415
-4.67783
-1.31041
-4.11284
-0.924336
-0.267388
-3.71266
3.98005
5.9925
-6.25989
-5.23787
9.53387
-4.296
7.69724
-5.38477
-2.31247
-4.25614
-4.39048
3.88097
1.93111
9.62835
0.209646
-5.59442
-4.93131
-3.98123
3.12592
2.1412
-1.79163
3.45824
2.14406
-0.597312
0.456116
0.94558
1.78972
-1.3336
0.29398
1.49574
-1.02027
1.79047
0.785805
-1.88471
0.143401
-1.307
3.54108
1.08682
-1.9954
0.6618
0.993189
-3.54902
5.00754
-2.64893
-2.35861
6.00073
1.14424
-3.79317
4.34976
-3.94936
2.37329
-3.50422
-1.41988
-5.36924
-3.63137
-2.5298
4.93581
-3.35996
5.47098
1.2617
-5.25728
6.51898
-3.71131
1.6767
-3.07109
3.8569
-0.966765
-2.10433
2.89425
2.81447
-3.04318
0.019697
-0.148934
2.4006
-2.54953
-0.586566
-2.60759
-4.5731
4.90291
-2.10565
4.553
2.1685
-1.91646
6.46946
1.80937
-3.72583
-3.24844
-3.70798
-1.38362
3.15491
-0.597077
-4.25517
-5.47611
4.16022
0.219495
-7.0056
7.8194
-0.813797
-4.00244
-0.685915
4.82391
-6.0422
0.486038
-3.95519
3.86421
4.77058
4.99007
-11.3624
-0.213536
-6.21098
1.12706
-7.33803
5.52903
-3.54606
7.6905
-10.3423
6.89746
-9.21656
6.51806
-0.819971
6.25079
-4.07282
2.77067
-8.47134
-6.8624
5.47611
-2.76123
6.19255
-3.12375
9.3163
-5.79288
5.2633
4.053
-1.01063
-4.16153
-5.25795
4.24732
0.00534596
4.13739
4.97938
-2.87177
4.65094
2.26639
-4.65992
-2.13004
-6.49473
1.83481
-3.34044
-1.91993
3.75474
3.16445
3.75253
1.23518
-3.34528
7.18389
-8.16501
-1.85227
-3.25868
5.24329
-0.995969
3.38879
-6.64747
-1.8559
4.81026
-0.783885
-4.02638
0.854866
-4.41668
1.66824
-6.08491
5.24426
-5.64755
2.22194
-9.75978
-5.19025
-5.14668
-2.25894
-5.23182
-7.57702
5.31809
-1.81265
5.50228
-8.51684
7.73296
-3.4846
8.80269
-5.4311
-1.05089
5.84751
1.31659
10.1193
0.207122
-4.72506
-1.90604
3.86927
-1.96323
1.21988
-3.50554
0.363732
2.48956
3.51116
-6.73979
-0.00598154
-4.73105
-3.91879
7.93908
5.61508
11.6076
1.23999
9.12153
-1.18245
10.3615
4.14168
4.37795
-2.99877
4.47238
0.981281
4.56504
-0.913101
2.82076
1.66855
1.75226
0.716431
2.30636
1.34778
3.15273
0.097867
-2.02044
4.62371
-8.60495
-0.970706
-8.03289
1.12803
5.71134
-4.58331
2.98488
-0.843679
1.02165
-0.0575257
-1.33233
1.38986
-2.76883
-1.92965
-0.433911
-1.67625
2.33805
1.86483
-1.90413
-0.864691
0.358194
-3.98956
3.14602
-3.12632
-0.311855
6.20713
-2.81669
0.267159
-1.13999
-2.34043
-2.86031
2.71691
6.1761
0.293368
3.11289
5.19628
3.09933
0.227556
3.90333
-5.67943
-3.64617
-5.89297
-0.36394
4.45997
1.74782
7.96257
5.80082
4.80486
-1.84261
-10.0076
6.53384
-2.06146
5.19985
-1.17347
-4.91144
5.03526
2.36499
-5.69042
0.0428635
-4.86858
-6.93004
-0.513704
8.24666
-9.60557
8.55468
5.70828
1.36646
-4.40781
-0.738867
4.24082
0.137135
10.4986
-1.12786
-6.74234
7.8702
-4.58348
3.61278
0.767391
2.69085
2.15725
1.31357
-5.42877
-10.0121
-2.02243
-1.52659
-4.38104
0.526448
-2.39128
6.22807
-2.6153
3.9156
5.2549
6.27655
-2.13673
-4.12316
6.43273
-2.51713
3.75943
)
;

boundaryField
{
    wall-4
    {
        type            calculated;
        value           uniform 0;
    }
    velocity-inlet-5
    {
        type            calculated;
        value           uniform -3.75095;
    }
    velocity-inlet-6
    {
        type            calculated;
        value           uniform -5.62643;
    }
    pressure-outlet-7
    {
        type            calculated;
        value           nonuniform List<scalar> 8(3.32426 7.75376 4.44782 9.70278 7.41628 5.14329 5.75784 8.9673);
    }
    wall-8
    {
        type            calculated;
        value           uniform 0;
    }
    frontAndBackPlanes
    {
        type            empty;
        value           nonuniform 0();
    }
}


// ************************************************************************* //
