/*--------------------------------*- C++ -*----------------------------------*\
| =========                 |                                                 |
| \\      /  F ield         | OpenFOAM: The Open Source CFD Toolbox           |
|  \\    /   O peration     | Version:  4.0                                   |
|   \\  /    A nd           | Web:      www.OpenFOAM.org                      |
|    \\/     M anipulation  |                                                 |
\*---------------------------------------------------------------------------*/
FoamFile
{
    version     2.0;
    format      ascii;
    class       volScalarField;
    location    "2";
    object      T;
}
// * * * * * * * * * * * * * * * * * * * * * * * * * * * * * * * * * * * * * //

dimensions      [0 0 0 1 0 0 0];

internalField   nonuniform List<scalar> 
1000
(
0
0
0
0
0
0
0
0
0
0
0
0
0
0
0
0
0
0
0
0
0
0
0
0
0
0
0
0
0
0
0
0
0
0
0
0
0
0
0
0
0
0
0
0
0
0
0
0
0
0
0
0
0
0
0
0
0
0
0
0
0
0
0
0
0
0
0
0
0
0
0
0
0
0
0
0
0
0
0
0
0
0
0
0
0
0
0
0
0
0
0
0
0
0
0
0
0
0
0
0
0
0
0
0
0
0
0
0
0
0
0
0
0
0
0
0
0
0
0
0
0
0
0
0
0
0
0
0
0
0
0
0
0
0
0
0
0
0
0
0
0
0
0
0
0
0
0
0
0
0
0
0
0
0
0
0
0
0
0
0
0
0
0
0
0
0
0
0
0
0
0
0
0
0
0
0
0
0
0
0
0
0
0
0
0
0
0
0
0
0
0
0
0
0
0
0
0
0
0
0
0
0
0
0
0
0
0
0
0
0
0
0
0
0
0
0
0
0
0
0
0
0
0
0
0
0
0
0
0
0
0
0
0
0
0
0
0
0
0
0
0
0
0
0
0
0
0
0
0
0
0
0
0
0
0
0
0
0
0
0
0
0
0
0
0
0
0
0
0
0
0
0
0
0
0
0
0
0
0
0
0
0
0
0
0
0
0
0
0
0
0
0
0
0
0
0
0
0
0
0
0
0
0
0
0
0
0
0
0
0
0
0
0
0
0
0
0
0
0
0
0
0
0
0
0
0
0
0
0
0
0
0
0
0
0
0
0
0
0
0
0
0
0
0
0
0
0
0
0
0
0
0
0
0
0
0
0
0
0
0
0
0
0
0
0
0
0
0
0
0
0
0
0
0
0
0
0
0
0
0
0
0
0
0
0
0
0
0
0
0
0
0
0
0
0
0
0
0
0
0
0
0
0
0
0
0
0
0
0
0
0
0
0
0
0
0
0
0
0
0
0
0
0
0
0
0
0
0
0
0
0
0
0
0
0
0
0
0
0
0
0
0
0
0
0
0
0
0
0
0
3.66013e-71
4.91677e-69
3.31075e-67
1.48995e-65
5.04155e-64
1.36814e-62
3.1017e-61
6.04229e-60
1.03249e-58
1.57216e-57
2.15983e-56
2.70407e-55
3.11098e-54
3.31191e-53
3.28199e-52
3.04293e-51
2.65141e-50
2.17965e-49
1.69639e-48
1.25382e-47
8.825e-47
5.92995e-46
3.81266e-45
2.35039e-44
1.3919e-43
7.93203e-43
4.35673e-42
2.30983e-41
1.18368e-40
5.8705e-40
2.8211e-39
1.31506e-38
5.95257e-38
2.6189e-37
1.12094e-36
4.6717e-36
1.89734e-35
7.51493e-35
2.9049e-34
1.09664e-33
4.0458e-33
1.45956e-32
5.15201e-32
1.78036e-31
6.02633e-31
1.99908e-30
6.50213e-30
2.07458e-29
6.49606e-29
1.9971e-28
6.03061e-28
1.78939e-27
5.21909e-27
1.49689e-26
4.22324e-26
1.17248e-25
3.20416e-25
8.62196e-25
2.28515e-24
5.96714e-24
1.53562e-23
3.89572e-23
9.7452e-23
2.40439e-22
5.85247e-22
1.40571e-21
3.33257e-21
7.7998e-21
1.80262e-20
4.11469e-20
9.27831e-20
2.06722e-19
4.55172e-19
9.90645e-19
2.13154e-18
4.53502e-18
9.54228e-18
1.98603e-17
4.08931e-17
8.33137e-17
1.67978e-16
3.35217e-16
6.62216e-16
1.2952e-15
2.50842e-15
4.81117e-15
9.13997e-15
1.72005e-14
3.20697e-14
5.92465e-14
1.08467e-13
1.9681e-13
3.53973e-13
6.31119e-13
1.11563e-12
1.95546e-12
3.39891e-12
5.85922e-12
1.00183e-11
1.69922e-11
2.8592e-11
4.77336e-11
7.90734e-11
1.29988e-10
2.12071e-10
3.43404e-10
5.51967e-10
8.80731e-10
1.39518e-09
2.1944e-09
3.42712e-09
5.31508e-09
8.18635e-09
1.25229e-08
1.90277e-08
2.8719e-08
4.30609e-08
6.41447e-08
9.49367e-08
1.39615e-07
2.04027e-07
2.96297e-07
4.27643e-07
6.13449e-07
8.74678e-07
1.2397e-06
1.74668e-06
2.4466e-06
3.40716e-06
4.7177e-06
6.49534e-06
8.89265e-06
1.21072e-05
1.63933e-05
2.20762e-05
2.95691e-05
3.93943e-05
5.22078e-05
6.88282e-05
9.02713e-05
0.00011779
0.00015292
0.000197534
0.000253899
0.000324746
0.000413347
0.000523592
0.000660085
0.000828243
0.0010344
0.0012859
0.00159126
0.00196024
0.00240398
0.00293512
0.00356792
0.00431836
0.00520422
0.00624521
0.00746296
0.00888114
0.0105254
0.0124234
0.0146048
0.0171009
0.019945
0.0231717
0.0268171
0.0309181
0.0355126
0.0406386
0.0463341
0.0526367
0.0595829
0.0672078
0.0755443
0.0846229
0.0944709
0.105112
0.116565
0.128846
0.141963
0.155922
0.170719
0.186347
0.202792
0.220033
0.238042
0.256785
0.276223
0.296308
0.316989
0.338209
0.359906
0.382012
0.404459
0.427172
0.450078
0.4731
0.49616
0.519182
0.542089
0.564807
0.587264
0.609391
0.631122
0.652396
0.673156
0.693351
0.712933
0.731863
0.750105
0.76763
0.784415
0.800441
0.815697
0.830176
0.843876
0.856802
0.86896
0.880363
0.891026
0.900969
0.910213
0.918783
0.926706
0.934009
0.940722
0.946875
0.952499
0.957626
0.962285
0.966509
0.970326
0.973766
0.976857
0.979627
0.9821
0.984302
0.986254
0.987978
0.989494
0.990818
0.991967
0.992955
0.993795
0.994496
0.995066
0.995513
0.99584
0.99605
0.996143
0.996117
0.995968
0.995689
0.995273
0.994706
0.993977
0.993069
0.991964
0.990641
0.989077
0.987246
0.985122
0.982673
0.979868
0.976674
0.973057
0.968978
0.964403
0.959292
0.953609
0.947317
0.94038
0.932762
0.924431
0.915357
0.905513
0.894875
0.883425
0.871146
0.85803
0.844073
0.829277
0.81365
0.797205
0.779965
0.761957
0.743214
0.723776
0.703691
0.68301
0.66179
0.640094
0.617988
0.595541
0.572827
0.549921
0.5269
0.50384
0.480818
0.457911
0.435193
0.412736
0.390609
0.368878
0.347604
0.326844
0.306649
0.287067
0.268137
0.249895
0.23237
0.215585
0.199559
0.184303
0.169824
0.156124
0.143198
0.13104
0.119637
0.108973
0.0990305
0.0897861
0.0812158
0.073293
0.0659896
0.059276
0.0531219
0.0474963
0.042368
0.0377059
0.0334793
0.0296577
0.0262118
0.0231129
0.0203336
0.0178474
0.0156293
0.0136557
0.011904
0.0103535
0.00898446
0.00777883
0.00671978
0.00579186
0.00498087
0.00427385
0.00365901
0.00312565
0.00266412
0.00226572
0.00192266
0.00162796
0.00137541
0.00115951
0.000975372
0.000818702
0.000685714
0.000573094
0.000477944
0.000397742
0.000330294
0.000273703
0.000226329
0.000186761
0.000153788
0.000126373
0.000103629
8.4802e-05
6.92527e-05
5.64383e-05
4.5901e-05
3.7255e-05
3.01762e-05
2.43931e-05
1.96786e-05
1.58434e-05
1.27302e-05
1.02084e-05
8.16997e-06
6.52567e-06
5.20206e-06
4.13882e-06
3.28647e-06
2.60459e-06
2.0602e-06
1.62646e-06
1.28158e-06
1.0079e-06
7.91154e-07
6.19846e-07
4.84716e-07
3.78334e-07
2.94748e-07
2.29202e-07
1.77901e-07
1.37828e-07
1.06585e-07
8.22738e-08
6.33919e-08
4.87548e-08
3.74295e-08
2.86833e-08
2.19415e-08
1.67543e-08
1.27707e-08
9.71701e-09
7.38049e-09
5.59596e-09
4.23549e-09
3.2002e-09
2.41377e-09
1.81746e-09
1.36611e-09
1.0251e-09
7.67894e-10
5.74249e-10
4.2871e-10
3.19518e-10
2.37738e-10
1.76594e-10
1.30957e-10
9.69536e-11
7.16608e-11
5.28792e-11
3.89563e-11
2.86524e-11
2.10397e-11
1.54247e-11
1.129e-11
8.25039e-12
6.01951e-12
4.38487e-12
3.18907e-12
2.31572e-12
1.6789e-12
1.2153e-12
8.78349e-13
6.33833e-13
4.56679e-13
3.28533e-13
2.35982e-13
1.69245e-13
1.21197e-13
8.66586e-14
6.18691e-14
4.41045e-14
3.13937e-14
2.23127e-14
1.5835e-14
1.12213e-14
7.94006e-15
5.61007e-15
3.95802e-15
2.7884e-15
1.96156e-15
1.37791e-15
9.66528e-16
6.76995e-16
4.73517e-16
3.30726e-16
2.30667e-16
1.60653e-16
1.11733e-16
7.76006e-17
5.38199e-17
3.7275e-17
2.57804e-17
1.78059e-17
1.22812e-17
8.45907e-18
5.81852e-18
3.9968e-18
2.74173e-18
1.87824e-18
1.28497e-18
8.77921e-19
5.99016e-19
4.08173e-19
2.77764e-19
1.88771e-19
1.28122e-19
8.68451e-20
5.87896e-20
3.97458e-20
2.68362e-20
1.80963e-20
1.21871e-20
8.19706e-21
5.50631e-21
3.69413e-21
2.47522e-21
1.65641e-21
1.10708e-21
7.38998e-22
4.92683e-22
3.2806e-22
2.18173e-22
1.44915e-22
9.61371e-23
6.36998e-23
4.21556e-23
2.78641e-23
1.83954e-23
1.21296e-23
7.98851e-24
5.25488e-24
3.45257e-24
2.26571e-24
1.48509e-24
9.72273e-25
6.35788e-25
4.15267e-25
2.70917e-25
1.76538e-25
1.14904e-25
7.47021e-26
4.85098e-26
3.1465e-26
2.03858e-26
1.31927e-26
8.52802e-27
5.50642e-27
3.55142e-27
2.28794e-27
1.47232e-27
9.46401e-28
6.07666e-28
3.89738e-28
2.4969e-28
1.59791e-28
1.02147e-28
6.52267e-29
4.16056e-29
2.65098e-29
1.6873e-29
1.07277e-29
6.81331e-30
4.32258e-30
2.73945e-30
1.7343e-30
1.09679e-30
6.92886e-31
4.37265e-31
2.75659e-31
1.73598e-31
1.0921e-31
6.8633e-32
4.30875e-32
)
;

boundaryField
{
    sides
    {
        type            inletOutlet;
        inletValue      uniform 0;
        value           nonuniform List<scalar> 2(4.30875e-32 0);
    }
    empty
    {
        type            empty;
    }
}


// ************************************************************************* //
