/*--------------------------------*- C++ -*----------------------------------*\
| =========                 |                                                 |
| \\      /  F ield         | OpenFOAM: The Open Source CFD Toolbox           |
|  \\    /   O peration     | Version:  4.0                                   |
|   \\  /    A nd           | Web:      www.OpenFOAM.org                      |
|    \\/     M anipulation  |                                                 |
\*---------------------------------------------------------------------------*/
FoamFile
{
    version     2.0;
    format      ascii;
    class       surfaceScalarField;
    location    "62";
    object      phi;
}
// * * * * * * * * * * * * * * * * * * * * * * * * * * * * * * * * * * * * * //

dimensions      [0 3 -1 0 0 0 0];

internalField   nonuniform List<scalar> 
17370
(
-0.0916064
0.0960093
0.284608
-0.0775945
0.0594198
0.36495
-0.0430421
0.0316224
0.427588
-0.0223187
0.0162664
0.505304
-0.0116737
0.0088005
0.602275
-0.00659008
0.00510574
0.720542
-0.00386924
0.00298906
0.863787
-0.00221594
0.00163733
1.03603
-0.00110517
0.000683507
1.24292
-0.000271617
-0.000122838
1.49159
0.00051175
-0.000926221
1.49161
0.00133126
-0.00183623
1.2432
0.00238649
-0.00312866
1.03638
0.00398483
-0.00520241
0.864124
0.00667567
-0.00887684
0.721259
0.01174
-0.0163178
0.603792
0.0223545
-0.0316411
0.508726
0.0430422
-0.0594088
0.432535
0.0775877
-0.096003
0.365191
0.0916211
0.19739
-0.127092
0.0880237
0.0390681
-0.364356
0.354031
-0.0714744
0.0817998
-0.446654
0.454256
-0.0791688
0.0715672
-0.521011
0.529111
-0.0637136
0.0556141
-0.612992
0.620761
-0.0482267
0.0404572
-0.727165
0.733686
-0.0338455
0.0273249
-0.867582
0.872435
-0.0221208
0.0172677
-1.03857
1.04191
-0.013568
0.0102268
-1.24472
1.24713
-0.00767407
0.00526562
-1.49284
1.49486
-0.00329886
0.00128142
-1.49269
1.49452
0.000540309
-0.00236272
-1.2441
1.24602
0.0043382
-0.00625122
-1.03761
1.04008
0.00858762
-0.0110663
-0.866186
0.869812
0.0143226
-0.0179482
-0.724593
0.729745
0.022731
-0.0278825
-0.609063
0.615631
0.0343536
-0.0409217
-0.515122
0.522457
0.0486405
-0.0559753
-0.43988
0.447656
0.0639961
-0.0717726
-0.374705
0.377355
0.0792649
-0.0819143
-0.256895
0.224432
0.071564
-0.0391012
-0.0688129
0.0592022
0.00961073
-0.0521014
0.0589261
-0.37484
0.368015
-0.0580771
0.0542338
-0.453948
0.457791
-0.0487461
0.0441861
-0.52762
0.53218
-0.0396358
0.0357395
-0.620805
0.624702
-0.0315256
0.0275288
-0.734664
0.738661
-0.0231693
0.0192789
-0.87396
0.87785
-0.0152299
0.0117691
-1.04337
1.04683
-0.00824537
0.00520869
-1.24865
1.25169
-0.0019967
-0.000988209
-1.49695
1.49993
0.00395081
-0.00710158
-1.49742
1.50057
0.0100482
-0.0134494
-1.25006
1.25346
0.0167846
-0.0206895
-1.04564
1.04955
0.0244523
-0.0286853
-0.877131
0.881363
0.0325802
-0.0366942
-0.738976
0.74309
0.0405084
-0.0449781
-0.625964
0.630434
0.0494706
-0.054892
-0.535011
0.540432
0.0586583
-0.0594161
-0.45807
0.458828
0.0524647
-0.032071
-0.336755
0.316361
0.00967546
-0.0686569
0.0589814
-0.0534145
0.0493045
0.00410997
-0.033233
0.0436519
-0.358572
0.348153
-0.0473238
0.0467343
-0.459587
0.460176
-0.0438037
0.0405895
-0.53614
0.539354
-0.0369108
0.0335545
-0.628405
0.631761
-0.0299185
0.0266744
-0.742045
0.745289
-0.0232173
0.0200152
-0.881348
0.88455
-0.0164167
0.0130598
-1.05026
1.05361
-0.00935496
0.00594525
-1.25495
1.25836
-0.00214944
-0.00147069
-1.50328
1.5069
0.00505898
-0.0087625
-1.50406
1.50776
0.0120462
-0.0155785
-1.25702
1.26055
0.018758
-0.022151
-1.05325
1.05665
0.0251704
-0.0284456
-0.884969
0.888244
0.0315431
-0.0350356
-0.746769
0.750262
0.0382708
-0.0418236
-0.634549
0.638102
0.0449287
-0.0477368
-0.544571
0.547379
0.0481989
-0.04435
-0.456938
0.453089
0.0337139
-0.0163892
-0.297035
0.27971
0.00418155
-0.0531289
0.0489474
-0.046137
0.0435835
0.00255353
-0.023033
0.0333751
-0.337568
0.327226
-0.039102
0.0400463
-0.45993
0.458986
-0.0387911
0.03646
-0.542014
0.544345
-0.0338146
0.0312651
-0.634734
0.637284
-0.028284
0.0254314
-0.748379
0.751232
-0.0221876
0.0191679
-0.887611
0.890631
-0.0158101
0.0126697
-1.05679
1.05993
-0.0091059
0.00569983
-1.26176
1.26517
-0.00178382
-0.00201734
-1.51064
1.51444
0.00577743
-0.00956891
-1.51154
1.51533
0.0128077
-0.0161446
-1.264
1.26734
0.0190523
-0.0221419
-1.05985
1.06294
0.0249205
-0.0279191
-0.891434
0.894432
0.0305702
-0.0333523
-0.753435
0.756217
0.0357358
-0.0382133
-0.641049
0.643526
0.0404005
-0.0414665
-0.549207
0.550273
0.040325
-0.0343098
-0.447955
0.44194
0.0236508
-0.0103876
-0.264509
0.251246
0.00264231
-0.0456997
0.0430574
-0.0414675
0.0396697
0.00179781
-0.0169262
0.0262009
-0.317367
0.308092
-0.0327863
0.0348989
-0.457432
0.45532
-0.0344575
0.0327531
-0.54638
0.548085
-0.0305191
0.0283851
-0.639602
0.641736
-0.02594
0.023554
-0.753839
0.756225
-0.02073
0.0179749
-0.893495
0.89625
-0.014781
0.0117378
-1.06298
1.06603
-0.00826378
0.00494094
-1.2685
1.27182
-0.00109516
-0.00265556
-1.51821
1.52196
0.00635334
-0.0100421
-1.51907
1.52276
0.0131531
-0.0163399
-1.2706
1.27379
0.0190877
-0.021938
-1.06596
1.06881
0.0243812
-0.0268873
-0.897209
0.899715
0.0290133
-0.031203
-0.75865
0.76084
0.0331254
-0.0351426
-0.645745
0.647762
0.0366372
-0.0368201
-0.550844
0.551027
0.0344044
-0.0273971
-0.435333
0.428325
0.0176976
-0.00749091
-0.239653
0.229446
0.00190648
-0.0408434
0.0389369
-0.0381229
0.0367744
0.00134852
-0.0129233
0.0209086
-0.299465
0.291479
-0.0276616
0.0305724
-0.452775
0.449864
-0.0307694
0.0296364
-0.54953
0.550663
-0.0276287
0.0256937
-0.643801
0.645736
-0.0234715
0.0213202
-0.758477
0.760629
-0.0188005
0.0163213
-0.898809
0.901288
-0.0133892
0.0105232
-1.06894
1.0718
-0.00718282
0.00395781
-1.27506
1.27828
-0.000217582
-0.00341673
-1.52563
1.52926
0.0069851
-0.0105278
-1.52637
1.52991
0.0134876
-0.0164681
-1.2769
1.27988
0.018963
-0.0214632
-1.07152
1.07402
0.0235523
-0.0256745
-0.902018
0.90414
0.0274986
-0.0293968
-0.762872
0.76477
0.0310644
-0.0328122
-0.649621
0.651369
0.0336387
-0.033081
-0.550841
0.550284
0.0297365
-0.0224054
-0.421098
0.413767
0.0138744
-0.00579325
-0.220403
0.212322
0.00148114
-0.0372703
0.0357892
-0.0355968
0.0345593
0.00103756
-0.0100947
0.0168523
-0.284131
0.277374
-0.0233522
0.0267233
-0.446702
0.443331
-0.0274957
0.0267942
-0.551573
0.552274
-0.0250191
0.0232268
-0.647639
0.649432
-0.0211536
0.0191367
-0.762712
0.764729
-0.0167634
0.014434
-0.903628
0.905958
-0.011694
0.00900742
-1.07451
1.0772
-0.00584721
0.00276384
-1.2814
1.28448
0.00083483
-0.00433261
-1.5328
1.5363
0.00774827
-0.0111035
-1.53335
1.53671
0.0138593
-0.0165758
-1.28274
1.28545
0.0188064
-0.0210141
-1.07641
1.07862
0.0228597
-0.0247386
-0.906154
0.908033
0.0263485
-0.0280194
-0.766546
0.768217
0.0294804
-0.0308978
-0.652968
0.654385
0.0312174
-0.0299325
-0.549377
0.548092
0.0259638
-0.0187031
-0.406446
0.399186
0.0112602
-0.00466942
-0.205057
0.198466
0.00119887
-0.0344661
0.0332673
-0.0336481
0.0328405
0.000807556
-0.00799827
0.0136802
-0.271182
0.2655
-0.0197016
0.0232761
-0.439847
0.436272
-0.02453
0.0240761
-0.552882
0.553336
-0.0225731
0.0208904
-0.651219
0.652901
-0.0189137
0.0169871
-0.766699
0.768626
-0.0147159
0.0124831
-0.908175
0.910408
-0.00985253
0.00728069
-1.07975
1.08232
-0.00426709
0.00132494
-1.28744
1.29038
0.00210858
-0.00544087
-1.53969
1.54302
0.00867392
-0.0118098
-1.53993
1.54307
0.0143487
-0.0168202
-1.28805
1.29052
0.0188334
-0.0208098
-1.08076
1.08274
0.0224478
-0.0241114
-0.909826
0.911489
0.0255381
-0.0270199
-0.769787
0.771269
0.02829
-0.0293303
-0.655592
0.656632
0.0292786
-0.0273251
-0.546479
0.544525
0.0229522
-0.0159552
-0.392053
0.385056
0.00942244
-0.00389218
-0.192457
0.186927
0.00100358
-0.0321791
0.0311755
-0.0321307
0.0315007
0.000629975
-0.00638368
0.0111462
-0.260305
0.255543
-0.0165812
0.0201616
-0.432693
0.429112
-0.0217437
0.0215175
-0.55371
0.553937
-0.0202496
0.01863
-0.654599
0.656219
-0.0167111
0.0148353
-0.770523
0.772399
-0.0126252
0.0104544
-0.912537
0.914708
-0.00789891
0.0054037
-1.08478
1.08728
-0.00248777
-0.000337695
-1.29321
1.29604
0.00362477
-0.00678959
-1.54623
1.5494
0.00983144
-0.0127512
-1.54607
1.54899
0.015093
-0.0173501
-1.2929
1.29515
0.0191657
-0.0209228
-1.08467
1.08643
0.0223656
-0.0238313
-0.913076
0.914542
0.0250937
-0.0264033
-0.772657
0.773966
0.0275274
-0.0281507
-0.657453
0.658076
0.0277295
-0.0252148
-0.542308
0.539793
0.0205958
-0.0139318
-0.378237
0.371573
0.00812042
-0.00334931
-0.181816
0.177045
0.000867932
-0.0302507
0.0293827
-0.0309501
0.0304637
0.000486423
-0.00508604
0.00905582
-0.251202
0.247232
-0.0138587
0.0172954
-0.425609
0.422173
-0.0190652
0.0190317
-0.554106
0.55414
-0.0179627
0.0163788
-0.657884
0.659468
-0.0144847
0.0126265
-0.774259
0.776117
-0.0104377
0.00829359
-0.916781
0.918926
-0.00577865
0.00333343
-1.08966
1.09211
-0.000489173
-0.00225765
-1.29876
1.30151
0.00541874
-0.008431
-1.55244
1.55545
0.0112943
-0.0140113
-1.55179
1.5545
0.0161653
-0.0182146
-1.29731
1.29936
0.0198387
-0.0213848
-1.08816
1.08971
0.0226422
-0.0239254
-0.915944
0.917227
0.0250397
-0.0261927
-0.775188
0.776341
0.0271302
-0.0273749
-0.658501
0.658746
0.026559
-0.0235697
-0.537058
0.534069
0.0188039
-0.0124663
-0.365091
0.358754
0.00720614
-0.00297502
-0.172577
0.168346
0.00077602
-0.0285709
0.0277949
-0.0300445
0.0296793
0.000365213
-0.00400044
0.00727426
-0.243632
0.240359
-0.0114329
0.0146159
-0.418875
0.415692
-0.0164478
0.0165708
-0.554142
0.554019
-0.0155889
0.0140804
-0.661089
0.662598
-0.0121852
0.0103133
-0.77797
0.779842
-0.00810861
0.0059561
-0.920978
0.923131
-0.00344457
0.00101565
-1.09445
1.09688
0.00179117
-0.00447925
-1.30416
1.30684
0.00754552
-0.0104319
-1.55836
1.56125
0.0131376
-0.0156647
-1.5571
1.55962
0.0176358
-0.0194798
-1.30131
1.30316
0.0209152
-0.0222546
-1.09125
1.09259
0.0233332
-0.0244412
-0.918452
0.919561
0.0254103
-0.0263934
-0.7774
0.778383
0.0270732
-0.0270261
-0.658862
0.658815
0.025786
-0.0223771
-0.530886
0.527477
0.0175102
-0.0114458
-0.352579
0.346515
0.00658723
-0.00272824
-0.164331
0.160472
0.000717435
-0.0270585
0.026341
-0.0293739
0.0291167
0.000257273
-0.00305024
0.00569646
-0.237419
0.234773
-0.00921105
0.0120571
-0.412694
0.409848
-0.0138369
0.0140447
-0.553905
0.553697
-0.0131075
0.0116456
-0.664165
0.665627
-0.00972582
0.00781035
-0.781718
0.783633
-0.00555463
0.00336094
-0.925194
0.927388
-0.00081646
-0.00163003
-1.0992
1.10165
0.0044351
-0.00709577
-1.30944
1.3121
0.0100948
-0.012877
-1.56403
1.56681
0.0154412
-0.0177893
-1.56203
1.56438
0.0195836
-0.0212259
-1.3049
1.30654
0.0224726
-0.0235989
-1.09395
1.09508
0.0244903
-0.0254208
-0.920616
0.921546
0.0262473
-0.0270586
-0.779267
0.780078
0.0274509
-0.0271319
-0.658627
0.658308
0.0254442
-0.0216329
-0.523887
0.520076
0.0166676
-0.0107948
-0.340583
0.33471
0.00620471
-0.00258274
-0.156763
0.153141
0.000685428
-0.0256505
0.0249651
-0.0289158
0.0287608
0.000154983
-0.00217183
0.00422966
-0.232439
0.230381
-0.00709598
0.00953557
-0.407226
0.404786
-0.011156
0.0113705
-0.553548
0.553333
-0.0104453
0.00899206
-0.667184
0.668637
-0.00702188
0.00503477
-0.785557
0.787544
-0.00269399
0.000427482
-0.929493
0.93176
0.00219179
-0.00469033
-1.10401
1.10651
0.00753115
-0.0101954
-1.31468
1.31735
0.0131569
-0.0158563
-1.5695
1.5722
0.0182924
-0.020469
-1.5666
1.56877
0.0220887
-0.0235287
-1.30808
1.30952
0.0245825
-0.025485
-1.09625
1.09715
0.0261746
-0.0269093
-0.922415
0.923149
0.0275829
-0.0282499
-0.780777
0.781444
0.0283308
-0.0276401
-0.657769
0.657078
0.0255119
-0.0213035
-0.516108
0.5119
0.0162178
-0.0104465
-0.328933
0.323162
0.00601073
-0.00251736
-0.149615
0.146121
0.00067445
-0.0242969
0.0236225
-0.0286616
0.02861
5.1613e-05
-0.0013161
0.00280067
-0.228626
0.227141
-0.00500506
0.00697469
-0.402604
0.400634
-0.00833219
0.00847185
-0.553229
0.55309
-0.00751399
0.00603483
-0.670222
0.671701
-0.0039773
0.00188606
-0.789542
0.791633
0.000578664
-0.00296006
-0.933942
0.936323
0.00569169
-0.00827874
-1.10892
1.11151
0.0111928
-0.0138934
-1.31994
1.32264
0.0168482
-0.0194851
-1.57481
1.57744
0.021804
-0.0238112
-1.57082
1.57283
0.0252534
-0.0264859
-1.31084
1.31207
0.0273377
-0.0280039
-1.09812
1.09879
0.0284825
-0.0290091
-0.923827
0.924354
0.0295194
-0.0299821
-0.781926
0.782388
0.0297729
-0.0286502
-0.656148
0.655026
0.026042
-0.0214065
-0.507547
0.502912
0.0161469
-0.0103724
-0.317444
0.311669
0.00598288
-0.00252218
-0.142679
0.139219
0.000681974
-0.0229573
0.0222754
-0.0286143
0.0286724
-5.81727e-05
-0.000436823
0.00134357
-0.225959
0.225052
-0.0028589
0.00429406
-0.398954
0.397519
-0.00528584
0.00526455
-0.55312
0.553142
-0.00421523
0.00265498
-0.673365
0.674925
-0.000475177
-0.0017606
-0.79374
0.795976
0.00439632
-0.00692908
-0.938618
0.941151
0.00981844
-0.0125343
-1.11402
1.11673
0.0155629
-0.0183319
-1.32527
1.32804
0.0213068
-0.0238959
-1.57999
1.58258
0.0261027
-0.0279355
-1.5747
1.57653
0.0291911
-0.0302059
-1.31316
1.31418
0.0308474
-0.0312725
-1.09955
1.09997
0.0315317
-0.0318352
-0.924822
0.925125
0.0321574
-0.0323477
-0.782553
0.782743
0.031859
-0.0301916
-0.653664
0.651997
0.0270623
-0.0219519
-0.498141
0.49303
0.0164452
-0.010554
-0.305902
0.300011
0.00610678
-0.00259048
-0.135768
0.132252
0.000706113
-0.0215954
0.0208893
-0.0287862
0.0289594
-0.000173207
0.000484608
-0.000188487
-0.224463
0.224167
-0.000587611
0.00140947
-0.396404
0.395582
-0.00192445
0.00166138
-0.553398
0.553661
-0.000463857
-0.00124522
-0.676728
0.678437
0.00360207
-0.00602727
-0.798234
0.80066
0.0088827
-0.0116159
-0.943601
0.946335
0.0147167
-0.017608
-1.11938
1.12227
0.0207974
-0.0236716
-1.33075
1.33362
0.0266991
-0.0292613
-1.58508
1.58765
0.0313634
-0.0330168
-1.57822
1.57987
0.0340761
-0.0348499
-1.31502
1.3158
0.0352628
-0.0354296
-1.10048
1.10065
0.0354531
-0.0355154
-0.925358
0.92542
0.0356392
-0.0354772
-0.782553
0.782391
0.0346183
-0.0323451
-0.650142
0.647869
0.0286271
-0.0229618
-0.487773
0.482108
0.0171113
-0.0109796
-0.294074
0.287943
0.00637163
-0.00271659
-0.128707
0.125052
0.000745113
-0.0201789
0.0194338
-0.0292135
0.02953
-0.000316546
0.0014906
-0.00183794
-0.224221
0.224568
0.00190725
-0.00180959
-0.395078
0.394981
0.00190223
-0.00252013
-0.55428
0.554898
0.00394432
-0.00584607
-0.680447
0.682349
0.00843551
-0.0111032
-0.803106
0.805774
0.0142391
-0.0172279
-0.94899
0.951978
0.020597
-0.0237118
-1.1251
1.12822
0.0271086
-0.0301224
-1.33644
1.33945
0.0332282
-0.0357733
-1.59012
1.59267
0.037766
-0.0392176
-1.58137
1.58282
0.0400586
-0.0405701
-1.31637
1.31688
0.0407336
-0.0406187
-1.10087
1.10076
0.0403819
-0.0401814
-0.925379
0.925179
0.040101
-0.0394726
-0.781781
0.781153
0.0381584
-0.0351928
-0.645445
0.642479
0.0307945
-0.0244625
-0.476272
0.46994
0.0181494
-0.0116425
-0.281709
0.275202
0.00676979
-0.00289595
-0.121332
0.117458
0.000797399
-0.018679
0.0178816
-0.0299169
0.0304104
-0.000493509
0.00277476
-0.00387432
-0.225306
0.226405
0.00481027
-0.00551092
-0.395205
0.395906
0.00631992
-0.0074024
-0.555992
0.557074
0.0091443
-0.0113164
-0.684629
0.686802
0.0142218
-0.0172026
-0.80847
0.81145
0.0206917
-0.0239986
-0.954894
0.958201
0.0277005
-0.0310917
-1.13128
1.13467
0.0347438
-0.0379276
-1.34241
1.3456
0.0411264
-0.0436489
-1.59511
1.59763
0.0455108
-0.0467375
-1.58409
1.58531
0.0473163
-0.0475522
-1.31714
1.31738
0.0474435
-0.0470149
-1.10065
1.10022
0.0464915
-0.0460094
-0.92482
0.924338
0.0456128
-0.0445366
-0.780087
0.779011
0.0426343
-0.0388387
-0.63938
0.635584
0.0336275
-0.0264789
-0.4634
0.456252
0.0195614
-0.0125337
-0.268534
0.261507
0.00729155
-0.00312252
-0.113485
0.109316
0.000860762
-0.0170701
0.0162094
-0.0309722
0.0316867
-0.000714524
0.00427358
-0.00626377
-0.227917
0.229907
0.00825879
-0.00986748
-0.396989
0.398598
0.0115015
-0.0131627
-0.558796
0.560457
0.0153537
-0.01789
-0.689438
0.691975
0.021211
-0.0245855
-0.814467
0.817841
0.0285145
-0.0322164
-0.961444
0.965146
0.0363282
-0.040055
-1.13802
1.14174
0.0440103
-0.04739
-1.34873
1.35211
0.0506883
-0.0531714
-1.60005
1.60253
0.054868
-0.0558207
-1.58634
1.58729
0.0560944
-0.0560078
-1.31728
1.3172
0.0555941
-0.0548228
-1.09975
1.09898
0.0539859
-0.0531777
-0.923624
0.922816
0.0523767
-0.05079
-0.777495
0.775908
0.0481564
-0.0433698
-0.631674
0.626888
0.03718
-0.0290286
-0.448848
0.440697
0.0213419
-0.0136372
-0.254254
0.246549
0.00792105
-0.0033866
-0.105016
0.100482
0.000931663
-0.0153318
0.0144001
-0.0324627
0.0334648
-0.00100212
0.00615369
-0.00919908
-0.232306
0.235351
0.012468
-0.0151371
-0.400702
0.403371
0.01774
-0.020109
-0.562967
0.565336
0.0228924
-0.0259145
-0.695075
0.698097
0.0297825
-0.0336579
-0.821265
0.82514
0.0381323
-0.0423121
-0.968796
0.972975
0.0469078
-0.0510189
-1.14543
1.14954
0.0553071
-0.0588851
-1.35542
1.359
0.0622569
-0.0646512
-1.60487
1.60726
0.0661179
-0.0667215
-1.588
1.58861
0.0666289
-0.0661481
-1.31665
1.31617
0.0653916
-0.0642292
-1.09809
1.09692
0.0630396
-0.0619117
-0.92171
0.920582
0.0605796
-0.0583819
-0.77387
0.771672
0.0548646
-0.0488666
-0.621983
0.615985
0.0414813
-0.0320978
-0.432234
0.42285
0.0234567
-0.0149147
-0.238557
0.230015
0.008628
-0.00367179
-0.0957926
0.0908364
0.00100466
-0.0134514
0.0124468
-0.0345143
0.035914
-0.00139971
0.00861115
-0.0130065
-0.238795
0.243191
0.0177676
-0.0216771
-0.406709
0.410619
0.0254232
-0.0286512
-0.56884
0.572068
0.0322043
-0.035873
-0.701811
0.70548
0.0404532
-0.0449598
-0.829073
0.833579
0.0500931
-0.0548324
-0.977114
0.981854
0.0599753
-0.064499
-1.1536
1.15813
0.069114
-0.0728499
-1.36247
1.3662
0.0762148
-0.0784212
-1.60945
1.61166
0.0795524
-0.0797025
-1.58891
1.58906
0.0791707
-0.0781768
-1.31511
1.31412
0.077017
-0.0754299
-1.09554
1.09395
0.073873
-0.0723289
-0.919052
0.917508
0.0704573
-0.0674899
-0.768985
0.766018
0.0628614
-0.0553652
-0.609851
0.602355
0.0465139
-0.0356277
-0.413097
0.402211
0.0258319
-0.0162986
-0.22113
0.211597
0.00936335
-0.00395315
-0.0857132
0.080303
0.00107181
-0.0114287
0.0103569
-0.0373269
0.0392861
-0.00195912
0.0120243
-0.0181429
-0.247905
0.254023
0.0247056
-0.0300676
-0.41551
0.420872
0.0351645
-0.0394418
-0.576806
0.581083
0.0439695
-0.0484802
-0.709984
0.714495
0.0539684
-0.0592468
-0.838138
0.843416
0.0651542
-0.0705208
-0.98656
0.991926
0.0762381
-0.0811522
-1.16257
1.16749
0.0860193
-0.0898043
-1.36977
1.37355
0.0930061
-0.0948559
-1.61356
1.61541
0.0954813
-0.0950156
-1.58881
1.58835
0.0939294
-0.0923247
-1.31249
1.31088
0.0906763
-0.0886474
-1.092
1.08997
0.0867049
-0.0845969
-0.915422
0.913314
0.0821993
-0.0781995
-0.762434
0.758434
0.0721719
-0.0628206
-0.594687
0.585335
0.052177
-0.0394819
-0.390905
0.37821
0.0283293
-0.0176769
-0.201689
0.191037
0.0100513
-0.00419451
-0.0747342
0.0688774
0.00112219
-0.00928028
0.00815809
-0.041219
0.0440484
-0.00282938
0.0169824
-0.0253589
-0.260373
0.26875
0.0341647
-0.0412835
-0.42777
0.434889
0.0480282
-0.053573
-0.587345
0.59289
0.0593647
-0.0649781
-0.720001
0.725615
0.0715804
-0.0777498
-0.848726
0.854895
0.0844873
-0.0904623
-0.997239
1.00321
0.0966616
-0.101824
-1.17224
1.17741
0.106733
-0.110338
-1.37704
1.38065
0.113096
-0.114321
-1.61683
1.61805
0.114193
-0.112893
-1.58738
1.58608
0.111084
-0.108764
-1.30858
1.30626
0.106544
-0.104004
-1.08738
1.08485
0.101647
-0.0988641
-0.910472
0.90769
0.0958172
-0.090476
-0.753679
0.748338
0.0826992
-0.0710539
-0.575739
0.564093
0.0582411
-0.0434163
-0.365079
0.350255
0.030729
-0.0188861
-0.180025
0.168182
0.0105884
-0.00434944
-0.0629025
0.0566636
0.00114251
-0.00704543
0.00590292
-0.0467707
0.0510728
-0.00430209
0.0246721
-0.0361253
-0.27736
0.288813
0.0478463
-0.0572939
-0.444522
0.453969
0.0660633
-0.0730749
-0.601068
0.60808
0.0804021
-0.0875165
-0.732241
0.739355
0.0952947
-0.102268
-0.861038
0.868011
0.109662
-0.11602
-1.00903
1.01539
0.122381
-0.127451
-1.18223
1.1873
0.131989
-0.135019
-1.38375
1.38678
0.136894
-0.137103
-1.61863
1.61884
0.135886
-0.133485
-1.58413
1.58173
0.130773
-0.127587
-1.30315
1.29996
0.124702
-0.121597
-1.08155
1.07844
0.118738
-0.115228
-0.904027
0.900517
0.111232
-0.104134
-0.74204
0.734941
0.0941322
-0.0796756
-0.552056
0.537599
0.0643015
-0.0470664
-0.335047
0.317812
0.0327341
-0.0197257
-0.156092
0.143084
0.0108551
-0.00436749
-0.050397
0.0439095
0.00111834
-0.00478921
0.00367086
-0.0550537
0.0624419
-0.00738829
0.0381734
-0.054106
-0.301016
0.316949
0.0699067
-0.0825729
-0.467414
0.480081
0.0935237
-0.101888
-0.618419
0.626784
0.110708
-0.119082
-0.747093
0.755467
0.127756
-0.135121
-0.874769
0.882133
0.142595
-0.148741
-1.02131
1.02746
0.154591
-0.158931
-1.19172
1.19606
0.162423
-0.164258
-1.38899
1.39082
0.164663
-0.163389
-1.61812
1.61684
0.160715
-0.156906
-1.57852
1.57471
0.153054
-0.148807
-1.29588
1.29164
0.145165
-0.141481
-1.07431
1.07063
0.137974
-0.133636
-0.895882
0.891543
0.128232
-0.118726
-0.726517
0.717012
0.105832
-0.0879364
-0.522468
0.504573
0.0697055
-0.0499687
-0.30036
0.280623
0.0340541
-0.0200638
-0.130126
0.116136
0.0108
-0.00423981
-0.0375689
0.0310087
0.0010468
-0.00260486
0.00155806
-0.0693255
0.0734644
-0.00413882
0.0292445
-0.0430477
-0.335356
0.349159
0.0570415
-0.0686388
-0.497903
0.5095
0.0789959
-0.0886156
-0.638956
0.648576
0.0993156
-0.109103
-0.763443
0.773231
0.119973
-0.129658
-0.888629
0.898314
0.139964
-0.14911
-1.03266
1.0418
0.158614
-0.166705
-1.1993
1.20739
0.174655
-0.18089
-1.39148
1.39772
0.186263
-0.18953
-1.61434
1.61761
0.190663
-0.190242
-1.56988
1.56945
0.188738
-0.186468
-1.28641
1.28414
0.184534
-0.182202
-1.06546
1.06312
0.179918
-0.175698
-0.885436
0.881216
0.168152
-0.153993
-0.705661
0.691501
0.134604
-0.108758
-0.485725
0.459879
0.0837973
-0.0579863
-0.260877
0.235066
0.0383258
-0.0218944
-0.102812
0.0863807
0.011463
-0.00437731
-0.0249682
0.0178825
0.00105511
-0.000591641
-0.000463467
-0.0806348
0.0787952
0.00183959
0.00749886
-0.0165917
-0.36577
0.374863
0.0272182
-0.0354254
-0.525781
0.533988
0.0437293
-0.0518686
-0.660738
0.668877
0.0617258
-0.07089
-0.782702
0.791866
0.0806312
-0.0895236
-0.907444
0.916336
0.0989461
-0.106962
-1.05065
1.05866
0.115466
-0.122326
-1.21527
1.22213
0.128986
-0.13389
-1.4036
1.40851
0.137497
-0.139173
-1.62001
1.62168
0.138714
-0.136678
-1.56826
1.56622
0.133557
-0.129543
-1.2811
1.27709
0.125894
-0.12192
-1.05846
1.05448
0.118057
-0.112522
-0.872222
0.866687
0.104451
-0.0918009
-0.673318
0.660668
0.0769121
-0.0589871
-0.432507
0.414582
0.0433358
-0.0288251
-0.209788
0.195277
0.0186065
-0.0105331
-0.0710923
0.0630189
0.00555717
-0.00216156
-0.0112171
0.00782152
0.000469784
0.00156885
-0.00203864
-0.0820821
0.0791778
0.00290424
-0.00173435
-0.00353591
-0.386298
0.391568
0.0107852
-0.0166994
-0.54638
0.552295
0.0228347
-0.0299662
-0.679142
0.686273
0.0384818
-0.0464335
-0.800173
0.808125
0.0551091
-0.0628569
-0.924477
0.932225
0.0708072
-0.0779178
-1.06648
1.07359
0.0852327
-0.0911929
-1.22852
1.23448
0.0964827
-0.1001
-1.41268
1.41629
0.102584
-0.102981
-1.62256
1.62296
0.101251
-0.0979417
-1.56347
1.56016
0.0937987
-0.0888787
-1.27269
1.26777
0.0839635
-0.0787389
-1.04859
1.04337
0.0737214
-0.0674759
-0.856965
0.850719
0.0600933
-0.0497023
-0.644823
0.634432
0.0390326
-0.0276305
-0.395024
0.383621
0.0191167
-0.0122476
-0.180424
0.173555
0.00792678
-0.00471105
-0.055075
0.0518593
0.00264012
-0.00103119
-0.00456107
0.00295214
0.000227758
0.00269241
-0.00292016
-0.0808013
0.0780445
0.00275685
-0.0054106
0.00289295
-0.399958
0.402476
0.00178777
-0.00624804
-0.561566
0.566026
0.011411
-0.0173785
-0.694322
0.700289
0.0246307
-0.0314234
-0.815463
0.822256
0.0388234
-0.0454535
-0.939435
0.946065
0.0526289
-0.0586248
-1.08025
1.08624
0.0649578
-0.0696239
-1.23998
1.24465
0.0740017
-0.0768036
-1.41962
1.42242
0.0782348
-0.0774746
-1.6228
1.62204
0.0750291
-0.0710311
-1.5562
1.5522
0.0662676
-0.0602951
-1.2624
1.25643
0.0546892
-0.0485856
-1.03667
1.03057
0.042652
-0.0362356
-0.840768
0.834351
0.0295089
-0.0216096
-0.621104
0.613205
0.0145845
-0.0085463
-0.371163
0.365125
0.00508992
-0.00299827
-0.165708
0.163616
0.00198321
-0.00142241
-0.0478724
0.0473116
0.000962741
-0.000334109
-0.0012447
0.000616065
6.25336e-05
0.00343491
-0.00349745
-0.0792507
0.0767963
0.00245438
-0.00659429
0.00570571
-0.409021
0.409909
-0.00227448
-0.000922052
-0.573706
0.576902
0.00509957
-0.0104999
-0.707023
0.712423
0.0165708
-0.022513
-0.828366
0.834308
0.0288972
-0.0346256
-0.952229
0.957957
0.0407385
-0.0460231
-1.09208
1.09736
0.051313
-0.0554994
-1.24913
1.25332
0.0591008
-0.0612332
-1.4248
1.42693
0.0619747
-0.0606123
-1.62102
1.61966
0.0576283
-0.0529154
-1.54742
1.5427
0.0477193
-0.0414374
-1.25026
1.24397
0.0353993
-0.0286159
-1.0234
1.01661
0.0223741
-0.0157523
-0.824903
0.818281
0.0100291
-0.00398534
-0.602778
0.596735
-0.00036247
0.00291084
-0.357129
0.35458
-0.00345275
0.00292513
-0.159686
0.160214
-0.00204415
0.00106493
-0.0459581
0.0469373
-0.000430401
0.000255029
-0.000154893
0.000330265
-8.22603e-05
0.00384946
-0.0037672
-0.0777872
0.0756734
0.00211382
-0.00652199
0.00616776
-0.415171
0.415525
-0.00414305
0.00157885
-0.582989
0.585553
0.00244046
-0.00703917
-0.717748
0.722346
0.0122356
-0.0173786
-0.83947
0.844613
0.0230328
-0.028123
-0.96332
0.968411
0.0336707
-0.0382489
-1.10234
1.10692
0.0429332
-0.0466087
-1.25718
1.26086
0.0496392
-0.051294
-1.42874
1.4304
0.0515412
-0.0501459
-1.61812
1.61673
0.0467911
-0.0419383
-1.53747
1.53262
0.0365107
-0.0299979
-1.23741
1.23089
0.0239876
-0.0168687
-1.00921
1.00209
0.0104409
-0.00392379
-0.809525
0.803008
-0.00124861
0.00590423
-0.588254
0.583598
-0.00877906
0.00965642
-0.349329
0.348451
-0.00858982
0.00676795
-0.158884
0.160706
-0.00499754
0.0030525
-0.0472813
0.0492263
-0.00163971
0.000712335
-0.000772015
0.00169939
-0.000195789
0.00388797
-0.00369218
-0.076644
0.0749846
0.0016594
-0.00568149
0.00568125
-0.419664
0.419665
-0.00408221
0.00218111
-0.591037
0.592938
0.00155282
-0.00569389
-0.726982
0.731123
0.0106056
-0.0150151
-0.849359
0.853768
0.0199568
-0.0244399
-0.973453
0.977937
0.0296602
-0.0337714
-1.11151
1.11562
0.0378644
-0.0412642
-1.26431
1.26771
0.0443375
-0.0457185
-1.43202
1.4334
0.0458579
-0.0442314
-1.61487
1.61325
0.0410945
-0.0359733
-1.52751
1.52239
0.0307387
-0.0244347
-1.22419
1.21788
0.0183365
-0.011484
-0.994728
0.987875
0.00510202
0.00140075
-0.794748
0.788245
-0.00596661
0.0100135
-0.57614
0.572093
-0.0123536
0.0125432
-0.344692
0.344502
-0.0110825
0.00886668
-0.160736
0.162952
-0.0066871
0.00428124
-0.0505719
0.0529777
-0.00243613
0.00103009
-0.00268762
0.00409367
-0.00027956
0.00360326
-0.0033237
-0.0759947
0.0746828
0.00131199
-0.00463177
0.00477157
-0.423161
0.423022
-0.00339249
0.00159084
-0.597991
0.599792
0.00197597
-0.0056519
-0.735235
0.738911
0.0098378
-0.0140681
-0.858114
0.862344
0.0186022
-0.023188
-0.982208
0.986793
0.0276352
-0.0315183
-1.1198
1.12368
0.0356835
-0.0387781
-1.27096
1.27406
0.0412956
-0.043007
-1.43466
1.43637
0.0432161
-0.0417586
-1.61164
1.61018
0.0386719
-0.0340125
-1.51746
1.5128
0.0289936
-0.0229061
-1.21128
1.20519
0.017104
-0.0104838
-0.980747
0.974127
0.00436208
0.00174573
-0.78061
0.774502
-0.00653225
0.0101161
-0.565227
0.561643
-0.0121452
0.0126377
-0.341532
0.34104
-0.0115034
0.00931699
-0.163385
0.165572
-0.00717226
0.00473114
-0.0546383
0.0570794
-0.00278338
0.00119507
-0.00533965
0.00692796
-0.000337918
0.00311157
-0.00277365
-0.0758694
0.074773
0.00109643
-0.00337158
0.00328694
-0.426252
0.426337
-0.0021946
0.000440325
-0.604333
0.606088
0.00296874
-0.00650338
-0.74286
0.746394
0.0104976
-0.0143002
-0.866343
0.870146
0.0189218
-0.022688
-0.990782
0.994548
0.027068
-0.0307341
-1.1277
1.13136
0.0347409
-0.0379861
-1.27711
1.28035
0.0407324
-0.0421659
-1.43781
1.43925
0.0426445
-0.0415172
-1.60863
1.6075
0.0389964
-0.0345678
-1.50803
1.5036
0.0299204
-0.0241836
-1.19924
1.1935
0.0187533
-0.0124602
-0.967239
0.960946
0.00678577
-0.000774704
-0.767319
0.761308
-0.00393933
0.00757644
-0.555215
0.551578
-0.00962952
0.0103528
-0.338252
0.337529
-0.00986328
0.00828571
-0.16566
0.167238
-0.00655552
0.00443704
-0.0586247
0.0607432
-0.00267552
0.00117335
-0.00817696
0.00967913
-0.000362073
0.00250536
-0.00214329
-0.0760238
0.0752556
0.000768228
-0.00222312
0.00168555
-0.429406
0.429944
-0.000755445
-0.00117447
-0.609863
0.611793
0.00419555
-0.0075711
-0.74994
0.753315
0.0113793
-0.0152926
-0.873794
0.877707
0.0192726
-0.0231765
-0.998501
1.00241
0.0274929
-0.0309257
-1.13544
1.13887
0.0349914
-0.038159
-1.28338
1.28654
0.0409272
-0.0428547
-1.44107
1.443
0.0437799
-0.0428935
-1.6064
1.60551
0.0405754
-0.0368271
-1.49935
1.4956
0.0327152
-0.0273799
-1.18771
1.18237
0.0222705
-0.0166319
-0.954602
0.948964
0.0109809
-0.00543797
-0.754494
0.748951
0.000701103
0.0032457
-0.545574
0.541627
-0.00539059
0.0065971
-0.334406
0.3332
-0.00672393
0.00602407
-0.166977
0.167677
-0.0049155
0.00345264
-0.0618071
0.06327
-0.00216466
0.000994637
-0.0106879
0.0118579
-0.000310112
0.00189228
-0.00158217
-0.0766007
0.0759941
0.000606595
-0.00124969
0.000805519
-0.432775
0.43322
0.000702952
-0.00255558
-0.615516
0.617368
0.00571746
-0.00894909
-0.756476
0.759708
0.012593
-0.016089
-0.881271
0.884767
0.0201763
-0.0237495
-1.0063
1.00987
0.027999
-0.0318516
-1.14274
1.14659
0.0355372
-0.0390163
-1.28973
1.29321
0.0421848
-0.0441847
-1.44481
1.44681
0.0454603
-0.0453338
-1.60484
1.60471
0.0434437
-0.0403341
-1.49174
1.48863
0.036488
-0.0317141
-1.17717
1.1724
0.0271359
-0.0217903
-0.942967
0.937621
0.0166303
-0.0112554
-0.742466
0.737092
0.00659154
-0.00216455
-0.535752
0.531325
-0.000542587
0.00224915
-0.32966
0.327953
-0.00312384
0.00320587
-0.166799
0.166717
-0.00281942
0.00210589
-0.0636602
0.0643737
-0.00139401
0.000681344
-0.0124839
0.0131966
-0.000223893
0.00138517
-0.00116128
-0.0774583
0.077036
0.000422218
-0.000207065
-0.000432606
-0.436289
0.436929
0.00189735
-0.00405539
-0.620799
0.622957
0.00712338
-0.010185
-0.762761
0.765823
0.0139088
-0.0172434
-0.888226
0.89156
0.0211625
-0.0248503
-1.01391
1.01759
0.0289932
-0.0328022
-1.15028
1.15408
0.0366996
-0.0401956
-1.29659
1.30009
0.0435408
-0.0462795
-1.44908
1.45182
0.0479863
-0.0481438
-1.60451
1.60467
0.0469501
-0.044203
-1.48544
1.4827
0.0409799
-0.0368355
-1.16766
1.16352
0.0324103
-0.0274037
-0.932046
0.92704
0.0225252
-0.0171725
-0.73096
0.725608
0.0125782
-0.00782381
-0.525768
0.521014
0.00457564
-0.00203821
-0.323936
0.321399
0.000558797