/*--------------------------------*- C++ -*----------------------------------*\
| =========                 |                                                 |
| \\      /  F ield         | OpenFOAM: The Open Source CFD Toolbox           |
|  \\    /   O peration     | Version:  4.0                                   |
|   \\  /    A nd           | Web:      www.OpenFOAM.org                      |
|    \\/     M anipulation  |                                                 |
\*---------------------------------------------------------------------------*/
FoamFile
{
    version     2.0;
    format      ascii;
    class       volScalarField;
    location    "47";
    object      p;
}
// * * * * * * * * * * * * * * * * * * * * * * * * * * * * * * * * * * * * * //

dimensions      [0 2 -2 0 0 0 0];

internalField   nonuniform List<scalar> 
918
(
0.563171
1.20818
0.0018842
0.562553
-0.0115468
1.17518
-0.493516
0.707258
0.543333
-0.0911032
-0.0226523
0.540151
1.03597
0.801962
-1.11591
-0.00283036
0.662829
-0.372605
0.542396
-0.0373567
0.74003
0.549906
0.552935
0.543519
0.60944
0.778269
0.917057
0.0186302
0.0060724
0.00256073
-0.0109554
-0.0371453
-0.0296887
1.05882
1.1099
1.13259
0.511427
0.340222
-0.360654
-0.42801
-0.420405
-0.537109
0.70171
0.700682
-0.185101
0.710093
0.715683
0.530464
0.542699
0.543607
0.544665
0.543627
0.545018
0.41905
-0.0936644
-0.126279
-0.0703035
-0.0620476
0.0732485
-0.0233745
-0.0257999
-0.0223895
-0.0210061
0.461459
0.535434
0.532497
0.545381
0.554551
1.14773
1.11965
1.14578
1.05948
1.07594
1.01396
0.986502
0.822392
0.844257
0.787285
0.773057
-1.55202
-2.5111
-0.521929
-0.269255
-0.0101049
0.00315703
0.0130105
0.656977
0.656791
0.664608
0.672659
1.09085
-0.371447
-0.474111
0.542527
0.541327
0.549695
0.550391
0.546406
0.545498
-0.0327093
-0.0295228
-0.0335689
-0.0360293
-0.0338727
0.729014
0.727043
0.544055
0.541069
0.561273
0.582208
0.574048
0.288802
0.612626
0.626126
0.606275
0.768508
0.763601
0.772085
0.890797
0.85418
0.953988
0.977316
0.0159854
0.00108379
-0.0107556
-0.0158827
-0.0151942
0.507319
0.499962
0.526672
0.514809
0.517275
0.256042
0.121264
0.425902
0.451112
-0.276066
-0.337045
-0.420997
-0.447455
-0.558801
0.613709
0.692596
0.690203
-0.200465
-0.126938
-0.256925
-0.0535899
-0.114594
0.520809
0.527761
0.522794
0.538258
0.532744
0.534699
0.546955
0.544033
0.545588
0.481482
0.605078
0.345591
0.311343
-0.232943
-0.144155
-0.234796
-0.0496307
-0.0445402
0.0868524
0.11202
0.0601842
0.0488917
-0.038086
-0.0302423
-0.0344597
-0.0198076
-0.024179
0.454357
0.443406
0.473987
0.481413
0.525016
0.526259
0.529805
0.528157
0.93736
0.959824
0.967204
0.940867
-3.50903
-6.30629
0.0584004
0.196256
-0.00566843
-0.00923853
0.00192575
-0.00433808
0.0014482
-0.00126588
0.0107605
0.00736856
0.0119828
0.0130667
0.648409
0.648506
1.01034
1.01282
0.989724
0.940936
0.530663
0.532762
0.538295
0.534161
-0.023693
-0.0272696
-0.0254897
0.717564
0.723818
0.721834
0.251161
0.163231
0.338864
0.367297
0.640986
0.629498
0.639385
0.668249
0.704013
0.984761
1.00291
1.00119
1.00942
1.0534
1.06977
1.03516
0.487111
0.496905
0.491958
0.529839
0.527573
0.528495
0.524097
0.525537
0.523382
-0.0303339
-0.413168
0.500595
0.51887
0.500459
0.505718
0.693061
0.770173
0.674265
0.683344
0.681071
0.0139479
-0.0437937
0.267492
0.233957
0.395035
0.430798
0.4101
0.90862
0.868655
0.918825
0.892279
0.853407
0.880047
-0.364817
-1.87376
-0.987795
0.548769
0.361824
0.449858
0.030695
0.0125002
0.0184331
1.00586
1.08209
0.660927
0.831542
0.837291
0.738701
0.769193
0.828037
0.753027
0.788544
0.822985
0.801952
0.570707
0.513334
0.525348
0.839703
0.89602
0.134942
0.0764918
0.032313
0.130751
0.187073
0.161751
1.04376
0.951461
1.02307
0.540821
0.541527
0.00113257
-0.00735321
0.545716
0.545765
-0.00847404
0.00254685
0.432356
-0.825136
0.118061
0.534237
0.524335
0.541346
-0.0737473
0.372937
-0.0233073
0.06955
0.0109082
0.537751
0.472295
0.432201
0.00500264
-0.0111141
-0.0311282
-0.203058
0.538493
0.5368
0.540816
0.541781
0.542448
-0.0126878
-0.00715397
-0.00662755
-0.031013
-0.0275367
-0.0361661
0.505644
0.523821
-0.158267
0.540958
0.543081
0.542907
0.536119
0.541771
0.540006
-0.00342747
-0.0099871
-0.0130275
0.233907
0.361127
0.675311
0.765419
0.645877
0.419538
0.182099
0.576735
0.640916
0.545402
0.700467
0.688205
0.704405
0.183408
0.0336289
0.191666
0.133611
0.532095
0.530782
0.522592
0.519614
0.536214
0.534321
0.538881
0.535874
0.538824
0.540217
-0.0319965
-0.0561065
-0.0694897
-0.135499
0.328643
0.589466
0.26953
0.299736
0.161053
-0.0193102
-0.019689
-0.0229614
-0.0296453
0.0224806
-0.00419652
0.0636337
0.063584
0.0343635
0.00761172
0.0142932
0.00152816
0.00622694
0.530937
0.529332
0.535703
0.544724
0.481751
0.485492
0.450997
0.471389
0.456851
0.396929
0.431446
0.406916
0.00116237
0.00954736
0.00267242
-0.00603385
-0.00107561
-0.0205689
-0.0177507
-0.0171795
-0.0127432
-0.0176979
-0.025359
-0.0267466
-0.162696
-0.277212
0.996593
0.925894
0.137751
0.527673
0.534103
0.530881
0.535731
0.538854
0.539687
0.53742
0.533981
0.524269
0.525912
0.522553
0.523274
-0.092058
-0.229731
-0.0594584
-0.131047
0.150232
0.632021
0.37295
0.310469
0.305123
0.531351
0.938074
0.727414
0.707272
0.724482
-0.331772
0.0626894
-0.265863
0.353344
0.176262
0.675342
0.723438
0.743805
0.692599
0.645643
-0.0998249
0.563632
-0.0555848
-0.00597926
0.193663
0.0754385
0.706809
0.672009
0.676056
0.694029
0.711775
0.67835
0.661516
0.656064
0.689812
0.693481
0.503921
0.265131
0.2181
0.179337
0.655329
0.540726
0.59558
0.508877
0.527175
0.529867
0.528473
0.510398
0.517892
0.513483
0.519721
0.523088
0.53193
0.532334
0.52768
0.529839
-0.036438
-0.0393658
-0.0144638
-0.12434
-0.114526
-0.17544
-0.050796
0.087588
0.0506123
0.245458
0.351293
0.0636376
-0.0490013
-0.0207105
0.0163105
0.18975
0.21546
0.0928647
0.180486
0.169134
0.152919
0.253743
0.258622
-0.00499737
-0.00933712
-0.011848
-0.0141811
0.0402852
0.110467
0.120671
0.015746
0.0105892
-0.0146962
-0.0154122
-0.00190488
-0.00698679
-0.00337932
0.0319033
-0.0406997
-0.00742739
0.00791831
0.0175737
0.0144648
0.00958547
0.523402
0.525635
0.525309
0.532928
0.550957
0.567105
0.524026
0.503649
0.494569
0.497556
0.470964
0.481122
0.476914
0.490354
0.511179
0.520369
0.517883
0.520591
0.503326
0.504993
0.491833
0.49545
0.470819
0.451943
0.440391
-0.0320485
0.00569242
-0.00065396
-0.0296623
0.000204993
-0.0125656
0.00641879
0.0231778
0.00921525
0.00516327
-0.00390452
-0.014519
-0.0124164
-0.0658351
0.018278
-0.174479
-0.210982
-0.280603
0.898669
1.02112
0.821588
0.595668
0.611485
0.853542
0.939722
0.558485
0.745962
0.77009
0.588622
0.854672
0.532487
0.532098
0.529698
0.529175
0.530397
-0.00104029
0.101861
0.106426
0.164987
0.281857
0.395019
0.318751
0.194212
0.326343
0.329952
0.624699
0.637946
0.593214
0.616583
0.617078
0.43633
0.512199
0.565091
0.521706
0.572167
0.593099
0.549969
0.58175
0.531773
0.486947
0.48342
0.432994
0.453516
0.430292
0.412395
0.522497
0.499896
0.510406
0.500673
0.520239
0.544513
0.54129
0.57372
0.584732
0.504724
0.461059
0.470712
0.500913
0.461317
0.476088
0.492215
0.234427
0.134669
0.218827
-0.0696464
0.00703134
-0.0074742
-0.05484
-0.00707397
0.278211
-0.416518
-0.391879
-1.02273
0.505294
0.968957
0.657494
0.630852
0.708747
0.689927
0.695009
0.714213
0.718432
0.646149
0.662903
0.665689
0.62764
0.651019
0.672731
0.669708
0.533582
0.399588
0.395004
0.347357
0.218469
0.255703
0.456484
0.378563
0.303597
0.304889
0.470374
0.357152
0.426344
0.463033
0.394407
0.348194
0.552747
0.617702
0.608405
0.582909
0.500173
0.514372
0.53856
0.574212
0.60051
0.631758
0.51934
0.525166
0.526417
0.523924
0.521158
0.524142
0.52431
0.526842
0.527584
0.530535
0.529556
-0.0243124
-0.013028
-0.0264861
-0.0336269
-0.00335769
-0.00769967
0.0361474
0.0224901
0.00764198
0.0139765
-0.0128255
-0.0171181
-0.0118731
-0.00269614
0.114115
0.126838
0.110547
0.0712816
0.258935
0.389693
0.461437
0.338553
0.231655
0.255514
0.277408
0.00766756
0.034543
0.0215745
0.06061
0.0522442
-0.0126509
-0.0169473
-0.0160492
-0.00881251
0.00232172
-0.0174657
-0.0229215
-0.0127972
-0.0174884
-0.0191946
-0.0246392
0.505862
0.49942
0.500987
0.494983
0.493716
0.507783
0.512013
0.513946
0.519321
0.521473
0.51181
0.517381
0.521063
0.00568639
-0.0196982
-0.0229035
-0.00862004
-0.0147328
-0.0140817
-0.0135514
0.126947
0.0557732
0.0602393
0.0148131
-0.113992
-0.056295
0.493491
0.492849
0.487217
0.723005
0.573055
0.49291
0.589662
0.694832
0.277815
0.476603
0.309856
0.893135
0.78702
0.933533
0.547025
0.247349
0.4066
0.455744
0.264075
0.336866
0.335362
0.222363
0.254726
0.288936
0.390826
0.269129
0.244483
0.00175555
0.190309
0.305844
0.28697
0.414775
0.477102
0.266062
0.187534
0.141741
0.614239
0.632095
0.647645
0.621327
0.642591
0.58309
0.571286
0.58953
0.599427
0.595042
-0.749924
-0.456685
-1.40189
-0.71854
-0.266311
0.536437
0.501861
0.776788
0.656851
0.713438
0.697443
0.654331
0.621406
0.638735
0.667524
0.36112
0.472668
0.447425
0.45244
0.353548
0.285025
0.586711
0.580848
0.615847
0.639265
0.608092
0.639469
0.517107
0.516779
0.516353
0.512658
0.510932
0.513221
0.0750369
0.0444066
0.0788384
0.0599211
0.0373485
0.0259177
0.0123435
0.00248235
-0.00576745
-0.00692123
0.00837643
0.0132836
0.171068
0.111406
0.0327293
0.062274
0.00248715
-0.0650269
-0.0827315
0.0183055
0.112682
0.103114
0.409079
0.660917
0.480972
0.648751
0.489383
0.545103
0.477023
0.469374
0.496127
0.384273
0.463671
0.24212
-0.264989
-0.17307
0.793299
0.808742
0.591417
0.410031
0.17879
0.363098
0.555633
0.488708
0.526405
0.595729
0.585567
0.0232404
0.0860398
0.358026
0.585374
0.240858
0.232487
0.226538
0.405213
0.32644
)
;

boundaryField
{
    wall-4
    {
        type            zeroGradient;
    }
    velocity-inlet-5
    {
        type            zeroGradient;
    }
    velocity-inlet-6
    {
        type            zeroGradient;
    }
    pressure-outlet-7
    {
        type            fixedValue;
        value           uniform 0;
    }
    wall-8
    {
        type            zeroGradient;
    }
    frontAndBackPlanes
    {
        type            empty;
    }
}


// ************************************************************************* //
