/*--------------------------------*- C++ -*----------------------------------*\
| =========                 |                                                 |
| \\      /  F ield         | OpenFOAM: The Open Source CFD Toolbox           |
|  \\    /   O peration     | Version:  4.0                                   |
|   \\  /    A nd           | Web:      www.OpenFOAM.org                      |
|    \\/     M anipulation  |                                                 |
\*---------------------------------------------------------------------------*/
FoamFile
{
    version     2.0;
    format      ascii;
    class       volScalarField;
    location    "1";
    object      T;
}
// * * * * * * * * * * * * * * * * * * * * * * * * * * * * * * * * * * * * * //

dimensions      [0 0 0 1 0 0 0];

internalField   nonuniform List<scalar> 
1000
(
0
0
0
0
0
0
0
0
0
0
0
0
0
0
0
0
0
0
0
0
0
0
0
0
0
0
0
0
0
0
0
0
0
0
0
0
0
0
0
0
0
0
0
0
0
0
0
0
0
0
0
0
0
0
0
0
0
0
0
0
0
0
0
0
0
0
0
0
0
0
0
0
0
0
0
0
0
0
0
0
0
0
0
0
0
0
0
0
0
0
0
0
0
0
0
0
0
0
0
0
0
0
0
0
0
0
0
0
0
0
0
0
0
0
0
0
0
0
0
0
0
0
0
0
0
0
0
0
0
0
0
0
0
0
0
0
0
0
0
0
0
0
0
0
0
0
0
0
0
0
0
0
0
0
0
0
0
0
0
0
0
0
0
0
0
0
0
0
0
0
0
0
0
0
0
0
0
0
0
0
0
0
0
0
0
0
0
0
0
0
0
0
0
0
0
0
0
0
0
0
0
0
0
0
0
0
0
0
0
0
0
0
0
0
0
0
0
0
0
0
0
0
0
0
0
0
0
0
0
0
0
0
0
0
0
0
0
0
0
0
0
0
0
0
0
0
0
0
0
4.94066e-324
3.85371e-322
2.63485e-320
1.79495e-318
1.22051e-316
8.28503e-315
5.61447e-313
3.79819e-311
2.56502e-309
1.7292e-307
1.16369e-305
7.81722e-304
5.24191e-302
3.50866e-300
2.34422e-298
1.56335e-296
1.04066e-294
6.91423e-293
4.5852e-291
3.0349e-289
2.0049e-287
1.3219e-285
8.6986e-284
5.71271e-282
3.74427e-280
2.44916e-278
1.59876e-276
1.04149e-274
6.77061e-273
4.3923e-271
2.8434e-269
1.83678e-267
1.18397e-265
7.61518e-264
4.88727e-262
3.12961e-260
1.99959e-258
1.27471e-256
8.10751e-255
5.14474e-253
3.25708e-251
2.05718e-249
1.29623e-247
8.14802e-246
5.10938e-244
3.1961e-242
1.99433e-240
1.24133e-238
7.70694e-237
4.77273e-235
2.94803e-233
1.8162e-231
1.11597e-229
6.83883e-228
4.17968e-226
2.54755e-224
1.54848e-222
9.38606e-221
5.67333e-219
3.41947e-217
2.05508e-215
1.23151e-213
7.35816e-212
4.38337e-210
2.6034e-208
1.54153e-206
9.09971e-205
5.35488e-203
3.14126e-201
1.83685e-199
1.07063e-197
6.22002e-196
3.6017e-194
2.0786e-192
1.19554e-190
6.85284e-189
3.91444e-187
2.22814e-185
1.26378e-183
7.14231e-182
4.0218e-180
2.25631e-178
1.26111e-176
7.02199e-175
3.89494e-173
2.15205e-171
1.18438e-169
6.49229e-168
3.54443e-166
1.92714e-164
1.04345e-162
5.62604e-161
3.02049e-159
1.61461e-157
8.59314e-156
4.55302e-154
2.40151e-152
1.26089e-150
6.58947e-149
3.42747e-147
1.77426e-145
9.14004e-144
4.68529e-142
2.38974e-140
1.21271e-138
6.12235e-137
3.07471e-135
1.53595e-133
7.63133e-132
3.77083e-130
1.85288e-128
9.05305e-127
4.39782e-125
2.12389e-123
1.01962e-121
4.86536e-120
2.30735e-118
1.0874e-116
5.09205e-115
2.36907e-113
1.09496e-111
5.02683e-110
2.29203e-108
1.03781e-106
4.6659e-105
2.08263e-103
9.22764e-102
4.05797e-100
1.77095e-98
7.66857e-97
3.29435e-95
1.40379e-93
5.93256e-92
2.48608e-90
1.03287e-88
4.2536e-87
1.73607e-85
7.02087e-84
2.81284e-82
1.11619e-80
4.3861e-79
1.70636e-77
6.57073e-76
2.50384e-74
9.4393e-73
3.51969e-71
1.29773e-69
4.72997e-68
1.70374e-66
6.06304e-65
2.13099e-63
7.395e-62
2.53287e-60
8.55954e-59
2.85294e-57
9.37499e-56
3.03606e-54
9.68564e-53
3.0425e-51
9.40626e-50
2.86072e-48
8.55423e-47
2.51363e-45
7.25418e-44
2.05486e-42
5.70961e-41
1.55514e-39
4.14921e-38
1.08359e-36
2.7677e-35
6.90812e-34
1.68342e-32
4.00125e-31
9.26657e-30
2.08871e-28
4.57672e-27
9.73616e-26
2.00804e-24
4.00919e-23
7.73615e-22
1.44014e-20
2.58134e-19
4.44545e-18
7.3382e-17
1.15805e-15
1.74208e-14
2.48993e-13
3.36892e-12
4.29701e-11
5.14216e-10
5.74169e-09
5.94389e-08
5.66195e-07
4.91837e-06
3.85398e-05
0.000268786
0.00164057
0.0085757
0.0373121
0.130049
0.344956
0.655044
0.869951
0.962688
0.991424
0.998359
0.999731
0.999961
0.999995
0.999999
1
1
1
1
1
1
1
1
1
1
1
1
1
1
1
1
1
1
1
1
1
1
1
1
1
1
1
1
1
1
1
1
1
1
1
1
1
1
1
1
1
1
1
1
1
1
1
1
1
1
1
1
1
1
1
1
1
1
1
1
1
1
1
1
1
1
1
1
1
1
1
1
1
1
1
1
1
1
1
1
1
1
0.999999
0.999995
0.999961
0.999731
0.998359
0.991424
0.962688
0.869951
0.655044
0.344956
0.130049
0.0373121
0.0085757
0.00164057
0.000268786
3.85398e-05
4.91837e-06
5.66195e-07
5.94389e-08
5.74169e-09
5.14216e-10
4.29701e-11
3.36892e-12
2.48993e-13
1.74208e-14
1.15805e-15
7.3382e-17
4.44545e-18
2.58134e-19
1.44014e-20
7.73615e-22
4.00919e-23
2.00804e-24
9.73616e-26
4.57672e-27
2.08871e-28
9.26657e-30
4.00125e-31
1.68342e-32
6.90812e-34
2.7677e-35
1.08359e-36
4.14921e-38
1.55514e-39
5.70961e-41
2.05486e-42
7.25418e-44
2.51363e-45
8.55423e-47
2.86072e-48
9.40626e-50
3.0425e-51
9.68564e-53
3.03606e-54
9.37499e-56
2.85294e-57
8.55954e-59
2.53287e-60
7.395e-62
2.13099e-63
6.06304e-65
1.70374e-66
4.72997e-68
1.29773e-69
3.51969e-71
9.4393e-73
2.50384e-74
6.57073e-76
1.70636e-77
4.3861e-79
1.11619e-80
2.81284e-82
7.02087e-84
1.73607e-85
4.2536e-87
1.03287e-88
2.48608e-90
5.93256e-92
1.40379e-93
3.29435e-95
7.66857e-97
1.77095e-98
4.05797e-100
9.22764e-102
2.08263e-103
4.6659e-105
1.03781e-106
2.29203e-108
5.02683e-110
1.09496e-111
2.36907e-113
5.09205e-115
1.0874e-116
2.30735e-118
4.86536e-120
1.01962e-121
2.12389e-123
4.39782e-125
9.05305e-127
1.85288e-128
3.77083e-130
7.63133e-132
1.53595e-133
3.07471e-135
6.12235e-137
1.21271e-138
2.38974e-140
4.68529e-142
9.14004e-144
1.77426e-145
3.42747e-147
6.58947e-149
1.26089e-150
2.40151e-152
4.55302e-154
8.59314e-156
1.61461e-157
3.02049e-159
5.62604e-161
1.04345e-162
1.92714e-164
3.54443e-166
6.49229e-168
1.18438e-169
2.15205e-171
3.89494e-173
7.02199e-175
1.26111e-176
2.25631e-178
4.0218e-180
7.14231e-182
1.26378e-183
2.22814e-185
3.91444e-187
6.85284e-189
1.19554e-190
2.0786e-192
3.6017e-194
6.22002e-196
1.07063e-197
1.83685e-199
3.14126e-201
5.35488e-203
9.09971e-205
1.54153e-206
2.6034e-208
4.38337e-210
7.35816e-212
1.23151e-213
2.05508e-215
3.41947e-217
5.67333e-219
9.38606e-221
1.54848e-222
2.54755e-224
4.17968e-226
6.83883e-228
1.11597e-229
1.8162e-231
2.94803e-233
4.77273e-235
7.70694e-237
1.24133e-238
1.99433e-240
3.1961e-242
5.10938e-244
8.14802e-246
1.29623e-247
2.05718e-249
3.25708e-251
5.14474e-253
8.10751e-255
1.27471e-256
1.99959e-258
3.12961e-260
4.88727e-262
7.61518e-264
1.18397e-265
1.83678e-267
2.8434e-269
4.3923e-271
6.77061e-273
1.04149e-274
1.59876e-276
2.44916e-278
3.74427e-280
5.71271e-282
8.6986e-284
1.3219e-285
2.0049e-287
3.0349e-289
4.5852e-291
6.91423e-293
1.04066e-294
1.56335e-296
2.34422e-298
3.50866e-300
5.24191e-302
7.81722e-304
1.16369e-305
1.7292e-307
2.56502e-309
3.79819e-311
5.61447e-313
8.28503e-315
1.22051e-316
1.79495e-318
2.63535e-320
3.85371e-322
4.94066e-324
0
0
0
0
0
0
0
0
0
0
0
0
0
0
0
0
0
0
0
0
0
0
0
0
0
0
0
0
0
0
0
0
0
0
0
0
0
0
0
0
0
0
0
0
0
0
0
0
0
0
0
0
0
0
0
0
0
0
0
0
0
0
0
0
0
0
0
0
0
0
0
0
0
0
0
0
0
0
0
0
0
0
0
0
0
0
0
0
0
0
0
0
0
0
0
0
0
0
0
0
0
0
0
0
0
0
0
0
0
0
0
0
0
0
0
0
0
0
0
0
0
0
0
0
0
0
0
0
0
0
0
0
0
0
0
0
0
0
0
0
0
0
0
0
0
0
0
0
0
0
0
0
0
0
0
0
0
0
0
0
0
0
0
0
0
0
0
0
0
0
0
0
0
0
0
0
0
0
0
0
0
0
0
0
0
0
0
0
0
0
0
0
0
0
0
0
0
0
0
0
0
0
0
0
0
0
0
0
0
0
0
0
0
0
0
0
0
0
0
0
0
0
0
0
0
0
0
0
0
0
0
0
0
0
0
0
0
0
0
0
0
0
0
0
0
0
0
0
0
)
;

boundaryField
{
    sides
    {
        type            zeroGradient;
    }
    empty
    {
        type            empty;
    }
}


// ************************************************************************* //
