/*--------------------------------*- C++ -*----------------------------------*\
| =========                 |                                                 |
| \\      /  F ield         | OpenFOAM: The Open Source CFD Toolbox           |
|  \\    /   O peration     | Version:  4.0                                   |
|   \\  /    A nd           | Web:      www.OpenFOAM.org                      |
|    \\/     M anipulation  |                                                 |
\*---------------------------------------------------------------------------*/
FoamFile
{
    version     2.0;
    format      ascii;
    class       surfaceScalarField;
    location    "67";
    object      phi;
}
// * * * * * * * * * * * * * * * * * * * * * * * * * * * * * * * * * * * * * //

dimensions      [0 3 -1 0 0 0 0];

internalField   nonuniform List<scalar> 
1300
(
3.75095
5.62643
-3.32572
3.75095
-7.75582
5.62643
-4.38775
4.38775
-0.393825
0.393825
1.87639
1.87457
-2.68267
2.68267
-2.12529
2.12529
-2.52357
2.52357
-5.24647
5.24647
-5.06929
5.06929
4.65507
-4.65507
-6.30903
6.30903
-0.943383
0.943383
-3.68256
3.68256
3.16962
-3.16962
-2.08641
2.08641
0.0206451
-0.0206451
-0.553475
4.30443
3.19748
3.19748
-2.01387
2.01387
-4.86832
4.86832
6.21805
-6.21805
5.31336
-5.31336
-1.98764
-2.45557
1.80992
-11.5057
-5.9459
-5.9459
-8.44037
8.44037
-2.81394
2.81249
2.94618
-2.94618
-1.77367
1.77367
-4.34787
-0.0398836
-4.34787
4.35909
0.0286625
4.35909
-0.473843
0.0800173
-0.473843
3.98903
-3.98903
0.309309
0.0845165
0.309309
3.06534
-3.06534
-1.87712
3.7535
1.87384
-1.8719
6.17632
-1.87906
3.75362
-6.01569
6.01569
-2.92762
0.244948
-2.92762
2.47308
0.209587
2.47308
-6.84941
6.84941
-2.1524
0.027109
-2.1524
2.09397
0.0313254
2.09397
2.88087
-2.88087
-2.6337
0.110133
-2.6337
2.39424
0.129327
2.39424
0.353513
5.27292
-5.97994
8.79243
-5.27292
0.0264432
5.20833
0.0381397
5.20833
-5.10606
0.0367725
-5.10606
5.01219
0.0571051
5.01219
4.74068
-0.0856108
4.74068
-4.77354
0.118466
-4.77354
-3.37013
-4.053
-6.45984
0.150815
-6.45984
-1.03533
0.0919455
-1.03533
0.827611
0.115772
0.827611
-3.68473
3.68473
-4.10325
0.420694
-4.10325
3.12398
0.0456323
3.12398
1.86849
1.88246
5.61944
-5.61944
2.44983
-2.0575
-0.0289056
-2.0575
-2.14743
-3.16593
2.14743
-0.0610191
-0.209689
0.230334
-0.209689
3.15943
0.0380469
3.15943
2.23548
0.158759
-2.23548
0.221616
3.27439
-3.27439
1.34041
0.673458
1.34041
-5.56366
5.56366
4.95618
0.056005
-4.95618
0.0878601
6.15686
0.0611952
6.15686
-6.19955
-0.0185052
-6.19955
2.52671
-4.98227
-2.61462
6.12697
0.182053
-6.12697
0.181078
2.91806
0.0281242
2.91806
-2.91977
2.91977
-2.98468
0.0385002
-2.98468
-2.17252
0.398856
-2.17252
1.475
0.29867
1.475
-4.24775
-0.100118
-4.24775
-4.24974
0.14649
4.24974
0.10935
1.12851
-1.12851
-0.598021
0.124179
-0.598021
-4.11246
-0.135288
4.11246
-0.123436
-3.8792
-0.109825
-3.8792
-3.02451
0.0398301
3.02451
0.0408283
3.11288
0.0465553
-3.11288
0.0475378
-1.87082
3.75328
-1.88014
3.75397
-5.6354
-0.380288
-5.6354
6.32655
-0.310867
6.32655
3.32298
0.359579
-3.32298
0.395358
2.31522
0.157865
2.31522
-6.81208
-0.0373288
-6.81208
6.83394
0.0154737
6.83394
2.21038
0.104843
-2.21038
0.0579762
2.07113
0.0228319
2.07113
2.90065
-0.0197858
2.90065
-2.87516
-0.00570313
-2.87516
2.79482
-2.79482
2.72151
0.0733085
-2.72151
0.0878109
-11.1331
11.1146
-0.0352633
-11.0978
5.17307
5.17307
4.16803
0.572648
4.16803
-4.99161
0.218069
-4.99161
2.68218
-5.2968
3.08008
-6.4502
4.66612
-16.1718
4.30004
-8.35304
6.69975
-6.69975
6.58855
0.111198
-6.58855
0.128709
-1.15431
0.118985
-1.15431
-3.0823
-0.602431
-3.0823
4.3274
-0.64266
4.3274
-3.02814
3.02814
-3.07745
0.049311
3.07745
0.0465344
2.05546
0.0156772
-2.05546
-0.00204585
0.254086
0.0552223
-0.254086
0.0443971
3.48631
-0.21192
3.48631
-3.07681
-0.19758
-3.07681
-1.25297
0.0986549
1.25297
0.0874399
-5.81392
0.250256
-5.81392
-11.1908
0.0929311
-11.1526
-6.10661
-6.10661
2.33376
11.1262
-2.89327
0.0181107
2.89327
0.0247825
2.97514
0.0529991
-2.97514
0.0553703
-2.86051
0.065685
2.86051
0.0592631
-2.54748
0.374955
-2.54748
-1.07267
1.07267
-1.23869
0.166024
1.23869
0.236308
1.40025
-0.271742
1.40025
0.716766
0.110845
-0.716766
0.118744
-3.78077
-0.0984283
-3.78077
6.56165
-0.235092
6.56165
-2.96237
-0.114448
2.96237
-0.0617145
-0.0333166
11.1479
-5.13975
0.0336901
5.13975
-11.2091
11.2428
-3.21828
0.670796
3.21828
0.949758
5.28455
0.279113
-5.28455
0.292943
6.78382
0.0501144
-6.78382
0.0840709
-2.5897
-0.492601
-2.5897
-5.05318
-0.582222
5.05318
-0.725781
-11.4747
-0.204931
11.6796
-11.4176
6.01885
0.138008
-6.01885
11.3808
-1.0299
-0.0986097
1.0299
0.0427658
1.72779
-0.327533
1.72779
3.6808
-0.194485
-3.6808
-0.0999759
-6.71556
-0.0965242
6.71556
-0.15391
-2.14482
-0.444882
2.14482
-0.417035
-4.26711
4.30516
1.90921
-2.38711
-2.59516
-5.55304
1.85185
1.90143
4.30168
-10.1487
-6.02304
-9.96765
7.26213
-6.96919
-9.24434
9.15873
7.87575
-7.98557
-5.78486
5.83139
6.48286
-6.44203
1.87881
1.87469
8.01796
-7.77301
-15.6001
15.2198
7.51482
-7.48771
15.753
-15.7904
-17.8376
17.8877
-5.70092
5.81105
-6.73946
6.73376
-6.9742
6.91248
-2.83265
-3.61755
13.111
-12.9602
8.55978
-8.58869
-8.61431
9.03501
3.38259
0.922572
3.42915
-1.88215
3.76096
-1.87147
3.78068
2.71561
-5.54826
2.58119
-5.17636
4.34328
4.2165
-4.28226
-1.27078
-5.92457
5.9527
-5.81386
5.87312
9.12449
-9.16437
-1.88516
3.75986
-1.86881
3.77024
-3.42502
-2.35984
3.37938
0.922298
8.06998
5.04101
-8.25203
-1.71562
-8.03421
7.83973
-8.22789
8.03031
-0.435134
5.8188
-5.38366
4.43319
-1.56243
7.38123
5.6997
5.91777
5.86573
-5.58662
1.10346
-6.48712
-6.39926
-2.29972
2.4239
2.19836
-2.11384
6.12919
1.74656
6.00575
-5.75403
-2.23154
-5.85246
3.82065
2.01074
3.86996
4.07837
2.40449
4.1182
3.03047
-3.03594
0.00546687
-3.05661
6.08709
0.723919
-5.41645
-4.49416
4.97455
3.04341
5.18413
-5.55731
-2.21571
-5.16195
-9.53512
-6.06495
-10.1173
10.0791
5.14072
9.7682
-11.9506
11.7967
4.79137
2.72346
4.82269
-4.92448
-2.56324
-4.8665
11.6425
-2.63707
-9.0054
-10.3112
-7.52632
10.2958
5.45726
10.9557
6.93193
11.0398
4.42422
7.21825
-9.88148
2.35516
-3.867
-1.83391
-3.77919
3.66927
2.14178
3.7986
-4.2173
-2.52216
-4.19919
-4.29542
-2.67878
4.3152
2.41856
-4.4164
-3.81149
4.53084
2.38164
4.03838
-10.0614
4.31467
-7.93222
-9.19265
-3.76753
-9.06394
3.51166
2.60663
-6.1183
-2.03659
8.48373
-4.26723
7.21295
-5.17945
-3.40924
-5.18149
-6.87852
-1.73579
-6.73203
-8.87642
8.38382
-9.17218
8.52952
12.5172
-5.64436
-6.87289
-3.96843
-2.4736
3.92089
-0.491748
-3.71052
3.71598
0.0504486
3.83113
4.7537
4.26195
-3.88431
-1.92955
-3.82894
3.82438
2.04875
3.89006
6.8329
2.29159
6.86156
-6.6
-2.56437
-6.70012
9.04038
-8.64152
2.83901
-2.74036
5.39399
2.63632
-5.18207
-2.85214
6.21206
-3.21782
-2.99424
-12.1971
10.5292
1.66791
-4.81587
-0.382684
-0.403329
-5.48942
-3.75492
5.37096
0.546813
11.076
7.32108
-5.5116
5.76186
6.16801
6.22402
-0.175238
5.80808
-5.13729
5.25942
-2.5869
-2.67252
5.46203
-5.59731
-1.23809
-5.50961
4.27151
0.408438
1.50898
-1.27864
-1.80441
-0.495312
-1.68566
1.30044
0.897916
1.35567
0.941836
1.48206
-2.96016
0.551765
2.4084
-2.01832
-1.56208
-3.80584
-1.14345
4.94929
5.73178
2.10794
-5.63181
-0.220652
2.54419
-2.42842
-0.76633
-3.03951
2.24818
-3.01451
-3.6739
-2.06493
5.73883
-3.36977
-0.459171
3.31677
0.55319
-3.82713
-2.09745
3.78863
0.329575
-3.12795
6.19079
-3.06284
-5.0575
2.52765
3.55944
4.53839
-4.78951
2.44756
2.34195
-1.23007
4.24657
0.937563
4.40444
-6.9366
4.72089
5.80099
3.23402
-6.16057
0.99862
-5.93798
8.54078
-7.36783
-1.17295
4.1538
4.38698
7.06416
5.45309
-5.67363
12.7378
-1.19957
-6.16826
7.13755
-3.90353
4.84447
-8.748
-10.2976
4.12929
-9.13328
10.9079
-1.77461
-3.62183
-8.32878
12.7551
-1.20433
-11.5508
8.56387
-4.26831
-4.36002
8.62833
-6.90538
6.92325
-1.9939
-4.92936
-10.0977
-5.69261
10.1943
1.60242
-9.91087
12.266
-2.69263
4.11083
0.711863
4.13366
3.29973
-5.48743
2.1877
3.60565
-5.59955
2.08114
-7.56856
-6.72806
12.0616
-5.33355
-10.4956
-9.51297
-0.982615
2.53577
9.73026
-9.4677
7.42589
2.04181
3.30077
0.589294
-3.37408
-0.405117
0.239948
4.52267
-4.76262
4.03854
4.1973
3.27645
1.24622
3.84528
2.10742
-3.87006
-0.329134
-4.16345
1.48467
-1.74489
-3.69375
5.17842
-4.06732
0.373564
-2.74761
-3.49857
6.24618
-4.58152
3.03565
3.15514
5.0844
-4.91346
1.41489
-2.39266
-2.5208
2.65243
-4.39732
1.99179
3.18663
4.37343
0.561936
5.87317
6.18845
-8.4798
0.54758
11.2295
-9.51384
2.46403
8.57579
-9.88992
0.376949
-8.68699
0.994349
-5.26158
-5.12395
5.18781
-6.9236
-3.56019
6.21038
0.65118
-6.31973
-0.412296
-6.03302
-2.8434
-6.4779
-3.04259
-6.12959
-8.71622
-1.6518
-7.06442
6.73202
-6.67839
-3.43895
7.40417
1.12534
-7.4093
7.31069
-7.48727
7.15974
0.0953746
3.62061
4.35732
1.88373
-2.39053
4.27426
-5.11912
7.4107
-8.70802
3.58891
4.19027
-6.75464
-4.51775
5.02251
4.01786
5.32118
8.88516
-10.3546
1.46941
-10.6563
11.9884
-1.33206
-16.4168
5.76054
-7.53168
2.44275
0.396262
2.56173
0.545155
2.49809
-3.04325
-2.1952
-2.10776
-2.43513
-3.46611
5.90124
1.09909
-3.52601
2.42692
-3.56905
4.66814
-0.207728
-3.31828
5.27426
-2.77616
5.67052
-3.77678
1.89374
3.43589
5.75341
-2.31752
4.39497
-1.75865
1.92328
-4.2408
-1.54283
-2.9627
5.10448
-3.28348
3.65704
-0.341861
3.99891
-4.05117
0.833355
-0.774722
3.42258
3.6442
4.31449
-3.06827
2.92055
-4.6792
-1.32025
-4.11726
-0.930635
-0.261524
-3.70611
3.96763
5.9833
-6.24483
-5.23482
9.52811
-4.29329
7.6933
-5.38192
-2.31138
-4.25313
-4.38838
3.87818
1.9299
9.6232
0.209287
-5.59121
-4.928
-3.97824
3.11115
2.14827
-1.7658
3.43371
2.16913
-0.660152
0.433955
0.921712
1.78484
-1.35088
0.312532
1.47231
-0.966109
1.74068
0.803512
-1.85152
0.165859
-1.3089
3.55708
1.0995
-1.99741
0.646529
0.979013
-3.56591
5.04067
-2.67471
-2.36595
6.01968
1.13869
-3.81341
4.37091
-3.96247
2.38289
-3.52634
-1.43052
-5.39299
-3.64643
-2.52565
4.95257
-3.37559
5.48353
1.27867
-5.26288
6.54155
-3.72535
1.66042
-3.0618
3.86531
-0.942795
-2.119
2.90241
2.83641
-3.06585
0.0263425
-0.163436
2.40832
-2.57176
-0.606189
-2.62451
-4.57341
4.90298
-2.10534
4.5529
2.16892
-1.91685
6.46975
1.80897
-3.72582
-3.24853
-3.7077
-1.38387
3.15452
-0.594789
-4.27171
-5.52414
4.16687
0.237566
-7.05661
7.86743
-0.810821
-4.01319
-0.707704
4.8615
-6.07608
0.476532
-3.99494
3.87248
4.81005
5.04761
-11.3331
-0.217637
-6.19243
1.12315
-7.31557
5.51013
-3.53949
7.66879
-10.3236
6.88469
-9.19829
6.49584
-0.819736
6.2479
-4.0602
2.7575
-8.45011
-6.84769
5.51019
-2.78673
6.22205
-3.14897
9.37102
-5.8416
5.2969
4.07412
-1.02147
-4.16003
-5.28622
4.26475
0.0106864
4.14435
4.98029
-2.87287
4.65116
2.26831
-4.66098
-2.129
-6.49472
1.83374
-3.33958
-1.92085
3.75459
3.16355
3.75284
1.2338
-3.34772
7.18913
-8.17175
-1.85558
-3.26837
5.26852
-1.00377
3.4023
-6.67067
-1.85928
4.79701
-0.78468
-4.01232
0.847355
-4.40755
1.67526
-6.08281
5.24834
-5.66064
2.22179
-9.75347
-5.18752
-5.14475
-2.25861
-5.22867
-7.57083
5.31222
-1.81029
5.50041
-8.50704
7.72236
-3.48132
8.79354
-5.42766
-1.05024
5.8447
1.31505
10.1086
0.215229
-4.73298
-1.91472
3.85641
-1.94169
1.19643
-3.49088
0.365536
2.4887
3.53098
-6.76021
0.00556911
-4.72741
-3.91708
7.93494
5.61103
11.5943
1.23976
9.11644
-1.1815
10.3562
4.13968
4.37599
-2.99142
4.46082
0.976214
4.56512
-0.922913
2.81665
1.63882
1.73077
0.69765
2.30368
1.34052
3.13703
0.0937858
-2.01398
4.62177
-8.60001
-0.969439
-8.02736
1.13137
5.70894
-4.57758
2.95983
-0.81156
1.01814
-0.090436
-1.27023
1.36066
-2.76296
-1.93038
-0.458073
-1.69002
2.33655
1.86706
-1.87847
-0.884483
0.358869
-4.0053
3.16747
-3.14112
-0.304712
6.23684
-2.82164
0.249877
-1.16122
-2.37464
-2.86995
2.70409
6.17598
0.293777
3.11314
5.19676
3.09931
0.226444
3.8882
-5.66281
-3.68036
-5.88044
-0.370317
4.49118
1.75524
7.97502
5.82936
4.82558
-1.84508
-10.0168
6.51845
-2.05763
5.18639
-1.17407
-4.90874
5.04575
2.36495
-5.69693
0.0362937
-4.87244
-6.93007
-0.513795
8.23615
-9.59479
8.54455
5.70115
1.36327
-4.4054
-0.739345
4.23938
0.13661
10.4928
-1.12833
-6.72632
7.85465
-4.58061
3.61117
0.753315
2.6804
2.11398
1.30242
-5.4239
-10.0015
-2.04795
-1.51796
-4.41391
0.535379
-2.40244
6.22364
-2.61247
3.91227
5.24218
6.26031
-2.13288
-4.11194
6.42617
-2.5139
3.74641
)
;

boundaryField
{
    wall-4
    {
        type            calculated;
        value           uniform 0;
    }
    velocity-inlet-5
    {
        type            calculated;
        value           uniform -3.75095;
    }
    velocity-inlet-6
    {
        type            calculated;
        value           uniform -5.62643;
    }
    pressure-outlet-7
    {
        type            calculated;
        value           nonuniform List<scalar> 8(3.32572 7.75582 4.4432 9.69573 7.42313 5.14133 5.76226 8.96616);
    }
    wall-8
    {
        type            calculated;
        value           uniform 0;
    }
    frontAndBackPlanes
    {
        type            empty;
        value           nonuniform 0();
    }
}


// ************************************************************************* //
