/*--------------------------------*- C++ -*----------------------------------*\
| =========                 |                                                 |
| \\      /  F ield         | OpenFOAM: The Open Source CFD Toolbox           |
|  \\    /   O peration     | Version:  4.0                                   |
|   \\  /    A nd           | Web:      www.OpenFOAM.org                      |
|    \\/     M anipulation  |                                                 |
\*---------------------------------------------------------------------------*/
FoamFile
{
    version     2.0;
    format      ascii;
    class       volScalarField;
    location    "14";
    object      p;
}
// * * * * * * * * * * * * * * * * * * * * * * * * * * * * * * * * * * * * * //

dimensions      [0 2 -2 0 0 0 0];

internalField   nonuniform List<scalar> 
8800
(
0.401513
0.353754
0.315119
0.286175
0.265373
0.25062
0.240109
0.232693
0.227888
0.225744
0.226798
0.230707
0.237074
0.246136
0.258708
0.276288
0.300953
0.334807
0.377269
0.435964
0.232697
0.240379
0.24796
0.251303
0.249853
0.244862
0.23847
0.232477
0.227809
0.224936
0.224502
0.226728
0.230913
0.236576
0.243105
0.249184
0.252681
0.251866
0.24632
0.237545
0.210943
0.21714
0.221369
0.224447
0.226631
0.227361
0.226379
0.224381
0.222394
0.221371
0.222102
0.224167
0.226627
0.228488
0.228825
0.227391
0.224829
0.221256
0.216602
0.212825
0.205005
0.207708
0.210627
0.213232
0.215059
0.216388
0.217264
0.217467
0.217175
0.217008
0.217492
0.218321
0.218809
0.218528
0.217592
0.216192
0.214078
0.211237
0.208668
0.207159
0.199464
0.200922
0.202975
0.205336
0.207419
0.209002
0.21016
0.211063
0.211728
0.212204
0.212521
0.212567
0.212232
0.211536
0.210421
0.20874
0.206597
0.204339
0.202802
0.202001
0.194491
0.195427
0.197052
0.199114
0.201242
0.20324
0.204878
0.206083
0.20697
0.207618
0.207992
0.207955
0.20746
0.206438
0.204863
0.202966
0.200985
0.199134
0.198028
0.197537
0.190071
0.190648
0.192093
0.194024
0.195918
0.197703
0.199424
0.200992
0.202255
0.203171
0.203564
0.203362
0.202602
0.20142
0.200012
0.198412
0.196611
0.194917
0.194035
0.193781
0.187326
0.187638
0.188709
0.190277
0.191876
0.193423
0.194895
0.196271
0.197541
0.198582
0.199109
0.199035
0.19853
0.197699
0.196598
0.195303
0.193887
0.192613
0.192025
0.191917
0.185666
0.185849
0.186466
0.187448
0.188587
0.18989
0.191276
0.192705
0.194069
0.195249
0.195946
0.196033
0.195653
0.194966
0.194126
0.193273
0.192438
0.191756
0.191443
0.191378
0.183573
0.183686
0.184013
0.184529
0.185275
0.186197
0.187258
0.188502
0.189851
0.191166
0.192094
0.192473
0.192457
0.192239
0.191886
0.191492
0.191199
0.190933
0.190785
0.190736
0.18064
0.180717
0.180984
0.181452
0.182036
0.182833
0.18391
0.185193
0.186636
0.188144
0.189357
0.190036
0.190288
0.190272
0.190184
0.190067
0.189901
0.18974
0.189656
0.189623
0.177138
0.177181
0.177417
0.177893
0.178519
0.179193
0.180249
0.181557
0.183125
0.184893
0.186463
0.187511
0.18811
0.188424
0.188634
0.188655
0.188556
0.188457
0.188425
0.188408
0.173329
0.173354
0.173559
0.174008
0.174613
0.175557
0.176603
0.17801
0.179786
0.181895
0.183911
0.185394
0.186381
0.187002
0.18724
0.187456
0.187476
0.187461
0.187473
0.187463
0.169212
0.169239
0.169432
0.169868
0.170527
0.171433
0.172651
0.174274
0.176378
0.178961
0.181528
0.183501
0.184872
0.185784
0.186347
0.186666
0.186817
0.186896
0.186938
0.186928
0.164605
0.164631
0.164836
0.165274
0.16597
0.166981
0.168394
0.170322
0.172871
0.17607
0.179319
0.181883
0.183704
0.184951
0.18577
0.186281
0.186583
0.186754
0.186824
0.186811
0.159321
0.159347
0.15959
0.160071
0.160867
0.16205
0.163741
0.166089
0.169229
0.173218
0.177311
0.180563
0.182937
0.184579
0.185682
0.186397
0.186842
0.187096
0.187193
0.187177
0.153189
0.153221
0.153507
0.154101
0.155057
0.156494
0.158568
0.161474
0.165388
0.170383
0.175535
0.17967
0.182677
0.18477
0.186189
0.187124
0.187714
0.18805
0.188174
0.188155
0.145991
0.14603
0.146386
0.147131
0.14834
0.150121
0.152719
0.156371
0.161287
0.167559
0.174029
0.17922
0.182986
0.185625
0.187422
0.188609
0.189361
0.189786
0.189942
0.189918
0.137446
0.137497
0.137958
0.138903
0.140436
0.142717
0.146027
0.150649
0.156852
0.164738
0.172836
0.179311
0.184006
0.1873
0.189547
0.191036
0.191982
0.192518
0.192708
0.192674
0.12718
0.127253
0.12785
0.129072
0.131056
0.134011
0.138247
0.144143
0.152013
0.161932
0.172036
0.180074
0.185892
0.189973
0.192763
0.194614
0.195784
0.196444
0.196685
0.196642
0.114646
0.114747
0.115534
0.117151
0.119763
0.123608
0.12911
0.13671
0.146724
0.159182
0.171735
0.181659
0.188827
0.193858
0.197304
0.199603
0.201063
0.201877
0.202168
0.202112
0.0990527
0.099192
0.100256
0.102456
0.105968
0.11109
0.118344
0.128201
0.14096
0.156564
0.17207
0.18424
0.193018
0.19919
0.203433
0.206279
0.208096
0.209094
0.209451
0.209382
0.0792205
0.0794173
0.0809209
0.0840227
0.0888825
0.0958685
0.105565
0.118443
0.134723
0.154182
0.173191
0.187995
0.198673
0.206214
0.211434
0.214963
0.217238
0.218495
0.218924
0.218834
0.0533576
0.053672
0.0559189
0.0604897
0.067472
0.0772533
0.0904336
0.10738
0.128112
0.152198
0.175265
0.193085
0.205965
0.215141
0.221571
0.225981
0.22886
0.230463
0.231005
0.230882
0.0183114
0.0188887
0.0226501
0.0299957
0.0405801
0.0547336
0.0729041
0.0951998
0.121395
0.150859
0.178477
0.199646
0.215007
0.226095
0.234022
0.239595
0.243322
0.245411
0.246094
0.245927
-0.0320706
-0.0302817
-0.0225872
-0.00952148
0.00737284
0.028281
0.0533284
0.0823739
0.115003
0.150467
0.182984
0.207724
0.225779
0.239027
0.248761
0.255859
0.260822
0.263743
0.264694
0.264457
-0.107686
-0.0979698
-0.0803717
-0.0570795
-0.0306851
-0.000813239
0.032634
0.0694669
0.109254
0.151288
0.189178
0.217938
0.239164
0.255106
0.267259
0.27665
0.283742
0.288341
0.290104
0.290194
-0.188297
-0.166661
-0.138551
-0.104962
-0.0688851
-0.0299587
0.0119286
0.0566924
0.104018
0.153343
0.197633
0.231494
0.256898
0.276459
0.291889
0.304296
0.31422
0.322148
0.325664
0.325913
-0.251426
-0.227481
-0.191134
-0.149358
-0.104794
-0.0575202
-0.007632
0.0447338
0.099275
0.155466
0.20558
0.243838
0.272636
0.294945
0.312643
0.32692
0.338337
0.347282
0.35047
0.35099
-0.302501
-0.276431
-0.235411
-0.187763
-0.136693
-0.0826489
-0.0258716
0.0333104
0.0944396
0.156886
0.21214
0.254002
0.285252
0.309222
0.328012
0.343031
0.354955
0.363776
0.367324
0.367846
-0.343868
-0.317143
-0.272715
-0.220693
-0.164589
-0.105076
-0.0425357
0.0225212
0.089482
0.157517
0.217217
0.261973
0.294992
0.320008
0.339378
0.354647
0.366625
0.375327
0.379095
0.379623
-0.37899
-0.351905
-0.305083
-0.24954
-0.18936
-0.125318
-0.0578864
0.0123103
0.0844664
0.157538
0.221293
0.268644
0.303165
0.328976
0.348668
0.363951
0.375817
0.384325
0.388222
0.388739
-0.409791
-0.382591
-0.333935
-0.275549
-0.211932
-0.143974
-0.072264
0.00249886
0.0793977
0.157182
0.224728
0.27445
0.310304
0.336779
0.356734
0.37204
0.383823
0.392152
0.396061
0.396586
-0.437746
-0.410435
-0.360298
-0.299495
-0.23296
-0.161627
-0.0861245
-0.00722783
0.0740357
0.156214
0.2274
0.279515
0.316761
0.343981
0.364273
0.379671
0.391402
0.399563
0.403444
0.403996
-0.463656
-0.436243
-0.384862
-0.322009
-0.252959
-0.178673
-0.0998068
-0.0171881
0.0681121
0.15457
0.229478
0.284121
0.3229
0.350983
0.371705
0.387269
0.399005
0.407068
0.410844
0.411466
-0.488221
-0.46064
-0.408122
-0.343493
-0.272232
-0.195347
-0.1135
-0.0274848
0.0616332
0.152262
0.230961
0.288321
0.328851
0.357979
0.379271
0.395099
0.406903
0.414896
0.418549
0.419184
-0.511709
-0.483868
-0.430399
-0.364271
-0.291037
-0.211851
-0.127311
-0.0381821
0.0544902
0.149151
0.231755
0.2921
0.334672
0.365089
0.387132
0.403348
0.415298
0.423256
0.426765
0.427362
-0.534453
-0.506276
-0.451969
-0.384473
-0.309501
-0.228278
-0.141343
-0.0494134
0.046559
0.14515
0.231764
0.295386
0.34033
0.372335
0.395347
0.412098
0.424285
0.432267
0.435623
0.436119
-0.556471
-0.527987
-0.473017
-0.404193
-0.327708
-0.244708
-0.155657
-0.0612042
0.0378186
0.140174
0.230863
0.298043
0.345714
0.379644
0.403904
0.421392
0.433935
0.441976
0.445213
0.445547
-0.577844
-0.548969
-0.493444
-0.42348
-0.345686
-0.261129
-0.170222
-0.0735311
0.0282495
0.134147
0.228904
0.299892
0.350678
0.386932
0.412768
0.431219
0.444259
0.452403
0.45553
0.455675
-0.598636
-0.569474
-0.513261
-0.442331
-0.363411
-0.277498
-0.184992
-0.086359
0.0178723
0.127036
0.225759
0.300719
0.355033
0.394077
0.421866
0.441529
0.455196
0.463453
0.466451
0.466418
-0.618907
-0.589338
-0.532509
-0.460731
-0.380831
-0.293777
-0.199913
-0.0996259
0.00673373
0.118817
0.221315
0.300295
0.358456
0.400805
0.431055
0.452267
0.46668
0.475029
0.477778
0.477592
-0.638483
-0.608532
-0.551147
-0.478642
-0.397906
-0.309891
-0.214906
-0.113237
-0.00508815
0.10954
0.215478
0.298414
0.3606
0.40677
0.440156
0.463412
0.478686
0.486975
0.48937
0.489009
-0.657342
-0.627045
-0.56915
-0.496007
-0.41457
-0.325768
-0.229871
-0.127098
-0.0174906
0.0992595
0.208224
0.294879
0.361138
0.411537
0.448883
0.475033
0.491416
0.4992
0.50086
0.500321
-0.67553
-0.644816
-0.58649
-0.51279
-0.430764
-0.341331
-0.244718
-0.141096
-0.030359
0.0880741
0.199562
0.289564
0.359717
0.4145
0.456652
0.487115
0.505575
0.512195
0.511902
0.511105
-0.692909
-0.661854
-0.603118
-0.528936
-0.446434
-0.356505
-0.259356
-0.155115
-0.0435598
0.0761249
0.189558
0.282396
0.356041
0.414921
0.462388
0.499041
0.522235
0.528614
0.52388
0.521438
-0.709575
-0.678165
-0.619063
-0.544469
-0.461617
-0.371335
-0.27384
-0.169213
-0.0571545
0.0633471
0.178119
0.273146
0.349818
0.411992
0.464393
0.508771
0.540786
0.553905
0.546673
0.524237
-0.725477
-0.693748
-0.634439
-0.559561
-0.47658
-0.386128
-0.288558
-0.183853
-0.0716762
0.0490821
0.164525
0.26092
0.340164
0.404536
0.459406
0.510568
0.550442
0.564637
0.550289
0.523486
-0.740486
-0.708807
-0.649088
-0.573961
-0.491055
-0.400557
-0.30329
-0.198707
-0.086791
0.0336685
0.14902
0.245645
0.326693
0.392251
0.443378
0.493815
0.528567
0.531253
0.463114
0.418996
-0.754035
-0.724172
-0.662626
-0.587118
-0.504392
-0.41419
-0.317764
-0.213566
-0.102283
0.0172786
0.131654
0.227317
0.308791
0.376014
0.417809
0.447232
0.467174
0.426077
0.349578
0.299254
-0.806313
-0.73665
-0.674831
-0.600541
-0.517944
-0.42833
-0.332052
-0.228667
-0.118446
-0.00041481
0.112038
0.205657
0.284489
0.356928
0.37091
0.376443
0.349012
0.282534
0.195323
0.146688
-0.764614
-0.750545
-0.691938
-0.619561
-0.53724
-0.448328
-0.353426
-0.2514
-0.14318
-0.0281652
0.0798232
0.168558
0.239352
0.299562
0.306337
0.18487
0.0673228
-0.0132659
-0.0979884
-0.0518748
-0.79186
-0.764782
-0.706668
-0.633988
-0.552377
-0.464016
-0.36927
-0.268334
-0.161778
-0.0494586
0.0544505
0.137748
0.201197
0.232587
0.177948
0.00862885
-0.146964
-0.256436
-0.375521
-0.301898
-0.812211
-0.78161
-0.723357
-0.650286
-0.568975
-0.480995
-0.386741
-0.287067
-0.182452
-0.073334
0.0258098
0.102476
0.155527
0.158944
0.0371246
-0.188507
-0.383128
-0.532491
-0.705776
-0.637375
-0.831404
-0.799534
-0.74034
-0.666742
-0.585502
-0.497901
-0.404502
-0.306193
-0.203701
-0.0981363
-0.0044971
0.0649811
0.104557
0.0688241
-0.126441
-0.38996
-0.642635
-0.86927
-1.12384
-1.10528
-0.849256
-0.817457
-0.757734
-0.683678
-0.602517
-0.515362
-0.422905
-0.326048
-0.225888
-0.124161
-0.0364847
0.0253059
0.0478354
-0.0327056
-0.284807
-0.576922
-0.88226
-1.15843
-1.49536
-1.87071
-0.866899
-0.835426
-0.77569
-0.70141
-0.620343
-0.533611
-0.442029
-0.346638
-0.248847
-0.151058
-0.0694958
-0.0159949
-0.0106467
-0.141918
-0.426124
-0.724438
-1.03381
-1.29607
-1.40795
-1.5827
-0.88488
-0.853848
-0.794284
-0.720147
-0.639287
-0.553078
-0.462462
-0.368687
-0.2735
-0.18006
-0.105166
-0.0609842
-0.0768985
-0.270357
-0.550819
-0.831845
-1.08926
-1.25234
-1.28357
-1.31484
-0.903538
-0.872903
-0.813705
-0.739842
-0.65934
-0.573804
-0.484365
-0.392448
-0.300234
-0.211714
-0.14405
-0.109998
-0.156975
-0.393894
-0.664111
-0.915493
-1.12906
-1.22044
-1.2403
-1.24216
-0.923006
-0.892678
-0.833829
-0.760368
-0.680338
-0.595651
-0.507584
-0.417794
-0.328905
-0.245823
-0.185765
-0.163628
-0.240118
-0.51077
-0.7757
-0.992241
-1.1672
-1.21977
-1.2089
-1.20523
-0.943101
-0.913095
-0.854515
-0.781552
-0.702128
-0.618438
-0.53193
-0.444537
-0.359201
-0.28197
-0.230022
-0.221542
-0.328518
-0.622595
-0.891975
-1.0581
-1.11843
-1.1655
-1.18049
-1.18307
-0.963532
-0.933854
-0.875676
-0.803166
-0.724436
-0.641896
-0.557152
-0.472351
-0.390805
-0.319738
-0.276575
-0.279441
-0.430679
-0.729246
-1.02004
-1.15559
-1.13218
-1.17418
-1.19314
-1.19777
-0.983653
-0.954378
-0.896836
-0.824848
-0.746876
-0.665653
-0.582822
-0.500767
-0.423223
-0.358226
-0.324474
-0.336744
-0.54199
-0.839818
-1.1692
-1.46623
-1.35692
-1.28777
-1.25613
-1.24961
-1.00291
-0.974182
-0.917549
-0.846019
-0.768982
-0.689127
-0.608352
-0.529176
-0.455714
-0.396394
-0.372291
-0.397426
-0.647496
-0.952902
-1.22751
-1.65871
-1.48155
-1.34719
-1.28993
-1.27612
-1.02068
-0.992666
-0.936747
-0.866011
-0.789916
-0.711664
-0.633058
-0.556768
-0.487255
-0.433019
-0.418161
-0.458718
-0.74297
-1.00393
-0.965941
-0.787323
-1.06501
-1.33512
-1.43403
-1.41808
-1.03581
-1.00879
-0.953832
-0.883765
-0.808765
-0.732149
-0.655895
-0.58265
-0.516616
-0.466811
-0.457597
-0.50559
-0.864567
-1.15774
-1.07113
-0.938541
-1.20967
-1.62207
-1.7421
-1.7518
-1.04711
-1.02138
-0.967559
-0.898169
-0.824316
-0.749499
-0.675791
-0.605678
-0.542532
-0.495257
-0.48492
-0.538079
-1.03504
-1.75595
-2.61858
-3.14341
-3.3431
-2.9958
-2.53494
-2.36871
-1.05312
-1.02895
-0.976457
-0.907819
-0.835219
-0.7624
-0.691591
-0.624677
-0.563604
-0.515643
-0.501992
-0.561983
-1.17271
-2.19672
-3.61846
-4.39838
-4.64307
-4.35697
-3.83284
-3.47059
-1.05233
-1.02997
-0.978831
-0.911044
-0.839866
-0.769511
-0.702077
-0.638824
-0.580134
-0.527373
-0.497791
-0.528756
-0.982365
-1.80366
-2.81009
-3.44255
-3.35482
-2.87729
-2.42399
-2.16352
-1.0421
-1.02173
-0.97235
-0.905893
-0.836619
-0.769284
-0.705985
-0.647775
-0.592668
-0.531442
-0.468339
-0.442272
-0.462142
-0.507785
-0.367028
-0.145482
0.215346
0.579237
0.785678
0.86645
-1.02047
-1.00198
-0.954842
-0.890455
-0.82394
-0.760659
-0.70348
-0.653937
-0.607502
-0.542853
-0.444629
-0.312308
-0.0849115
0.379107
0.983961
1.61643
2.10963
2.39869
2.51372
2.53661
-0.985536
-0.969021
-0.924385
-0.863387
-0.800891
-0.743301
-0.694727
-0.65912
-0.636895
-0.589351
-0.461803
-0.228489
0.0541443
0.561025
1.2331
1.82365
2.24459
2.49195
2.59291
2.61677
-0.93485
-0.920348
-0.880009
-0.824167
-0.767468
-0.717456
-0.680811
-0.667877
-0.691456
-0.745142
-0.698103
-0.385037
-0.00100167
0.440375
1.01908
1.50326
1.8432
2.04473
2.13234
2.15702
-0.868679
-0.85585
-0.821537
-0.773
-0.724182
-0.68346
-0.661759
-0.682161
-0.799367
-1.11176
-1.3206
-0.902317
-0.297476
0.155169
0.662734
1.07804
1.37125
1.54231
1.6186
1.63598
-0.788258
-0.777514
-0.750001
-0.710431
-0.670462
-0.639088
-0.631327
-0.685859
-0.920291
-1.56721
-2.24472
-1.62355
-0.816633
-0.239655
0.284667
0.672942
0.918111
1.04818
1.10161
1.10747
-0.696142
-0.688692
-0.666285
-0.634632
-0.602499
-0.577232
-0.574047
-0.634608
-0.865402
-1.48321
-2.07683
-1.60755
-0.934998
-0.352687
0.0850104
0.364836
0.523215
0.605452
0.646729
0.655702
-0.58219
-0.578342
-0.563309
-0.540388
-0.515236
-0.493427
-0.485478
-0.517719
-0.660079
-1.01877
-1.28764
-0.984789
-0.522881
-0.129323
0.124862
0.267656
0.345967
0.391759
0.416147
0.421919
-0.464521
-0.462904
-0.452387
-0.435674
-0.41616
-0.396491
-0.382071
-0.386061
-0.439104
-0.576982
-0.644562
-0.43801
-0.170427
0.0387337
0.156182
0.219671
0.255147
0.275126
0.284104
0.285908
-0.354026
-0.352698
-0.345491
-0.33275
-0.317043
-0.299174
-0.280695
-0.26585
-0.262462
-0.269762
-0.226856
-0.0922989
0.0285029
0.123688
0.172239
0.19739
0.210934
0.218117
0.220956
0.220784
-0.252052
-0.251547
-0.24687
-0.237936
-0.22603
-0.21083
-0.191951
-0.169408
-0.142645
-0.104696
-0.0361346
0.0571621
0.113064
0.154085
0.175257
0.184875
0.188787
0.189829
0.189552
0.188733
-0.162494
-0.162611
-0.160604
-0.155713
-0.147936
-0.136431
-0.120076
-0.097391
-0.0657632
-0.0197098
0.0421896
0.103629
0.137483
0.157979
0.168185
0.171749
0.171882
0.170738
0.169612
0.168737
-0.0895341
-0.0900377
-0.0903013
-0.089102
-0.085301
-0.0777348
-0.0651946
-0.0459574
-0.0174756
0.0235007
0.0719911
0.113146
0.136747
0.149432
0.155112
0.156393
0.155418
0.15382
0.152651
0.151892
-0.0356793
-0.0363281
-0.0377887
-0.038783
-0.037817
-0.0336973
-0.0250667
-0.0103036
0.0124699
0.0449582
0.0811194
0.10967
0.126782
0.135675
0.139402
0.139927
0.138745
0.13722
0.136218
0.135612
0.000879428
0.000272616
-0.00149574
-0.00335272
-0.00383857
-0.00195292
0.0034995
0.013999
0.0310222
0.0555098
0.082032
0.102241
0.114655
0.12113
0.123663
0.123753
0.122608
0.121258
0.120426
0.119957
0.0239697
0.0234859
0.0219018
0.0199512
0.0188959
0.0196477
0.0231032
0.0303452
0.0425372
0.0603349
0.0795259
0.0939943
0.102905
0.107415
0.109027
0.108877
0.107789
0.106578
0.105881
0.105527
0.0376038
0.0372506
0.0360171
0.034345
0.0331886
0.0332552
0.0353656
0.0403654
0.0490262
0.0617621
0.0754557
0.0856445
0.0918637
0.0950086
0.0960388
0.0957166
0.0946992
0.0936323
0.0930523
0.0927884
0.0450259
0.0447748
0.0438864
0.0425984
0.0416133
0.0414182
0.0425883
0.0458249
0.0518081
0.0607972
0.0704938
0.0777378
0.0821374
0.0842518
0.0847932
0.0843742
0.0834596
0.082544
0.0820705
0.081875
0.0485718
0.048388
0.0477529
0.046787
0.0459898
0.0457278
0.0464268
0.0485515
0.052594
0.0588309
0.0656441
0.070677
0.0736238
0.0749548
0.0751853
0.0747256
0.0739177
0.0731501
0.072771
0.0726256
0.0496534
0.0495116
0.0490264
0.0482642
0.0475888
0.0472578
0.0475848
0.0489413
0.0516778
0.0559437
0.0606059
0.0640413
0.0660235
0.0668548
0.0668903
0.0664414
0.06576
0.0651408
0.0648452
0.0647359
0.0490286
0.0489173
0.0485299
0.0479073
0.0473266
0.0469753
0.0470676
0.0478586
0.049622
0.0524969
0.0556857
0.0580096
0.0592888
0.0597519
0.059665
0.0592484
0.0586829
0.0581893
0.0579591
0.0578759
0.04716
0.0470729
0.0467593
0.0462419
0.0457363
0.0453815
0.0453336
0.0457748
0.046889
0.0487692
0.0508711
0.0523821
0.053173
0.0534002
0.0532483
0.0528748
0.0524099
0.052017
0.051837
0.0517733
0.0443783
0.0443104
0.0440591
0.0436316
0.0431958
0.0428538
0.0427148
0.0429073
0.0435686
0.0447659
0.0461251
0.0470828
0.0475436
0.0476163
0.0474329
0.0471043
0.0467229
0.0464099
0.046269
0.0462203
0.0409469
0.040894
0.0406972
0.0403526
0.0399882
0.0396789
0.0395009
0.0395446
0.0399049
0.0406301
0.0414718
0.0420444
0.042281
0.0422569
0.0420636
0.041778
0.041465
0.0412152
0.0411049
0.0410677
0.0370749
0.0370334
0.0368811
0.0366088
0.0363109
0.0360413
0.0358522
0.0358069
0.035973
0.0363841
0.0368756
0.0371909
0.0372838
0.0372048
0.0370167
0.0367726
0.0365181
0.0363202
0.036234
0.0362053
0.0329158
0.032883
0.0327658
0.0325542
0.0323157
0.0320882
0.0319071
0.0318161
0.0318621
0.0320681
0.0323295
0.032478
0.0324824
0.0323762
0.0322023
0.0319968
0.0317915
0.0316355
0.031568
0.0315459
0.0285764
0.0285504
0.0284606
0.0282975
0.0281089
0.0279214
0.0277581
0.0276488
0.0276252
0.0277035
0.0278192
0.0278648
0.0278193
0.0277046
0.02755
0.0273799
0.0272161
0.0270939
0.0270411
0.0270241
0.0241256
0.0241054
0.0240364
0.0239108
0.0237627
0.0236106
0.0234696
0.0233595
0.0233018
0.0233069
0.0233356
0.0233221
0.0232531
0.0231428
0.0230104
0.022872
0.0227423
0.0226469
0.022606
0.022593
0.0196053
0.0195897
0.0195369
0.0194407
0.0193259
0.0192054
0.0190888
0.018989
0.01892
0.0188884
0.0188718
0.0188305
0.0187562
0.0186582
0.0185488
0.0184383
0.0183366
0.0182626
0.0182312
0.0182214
0.0150393
0.0150275
0.0149876
0.0149151
0.0148284
0.0147365
0.0146455
0.0145633
0.0144987
0.0144556
0.0144217
0.014374
0.0143073
0.0142269
0.0141406
0.0140551
0.0139771
0.0139206
0.0138969
0.0138896
0.0104415
0.0104331
0.0104041
0.010352
0.0102902
0.0102251
0.0101603
0.0101004
0.0100505
0.0100129
0.00998043
0.00994037
0.0098895
0.0098307
0.00976867
0.00970722
0.00965075
0.00960943
0.0095921
0.00958692
0.00581739
0.00581172
0.00579343
0.00576132
0.0057246
0.00568715
0.00565038
0.00561643
0.00558761
0.00556504
0.00554498
0.00552052
0.00549042
0.00545643
0.00542071
0.00538468
0.00535038
0.00532463
0.00531352
0.00530976
0.00117495
0.00117517
0.00117691
0.00117159
0.00116216
0.00115273
0.00114349
0.00113457
0.00112603
0.00111772
0.00110986
0.00110234
0.0010944
0.00108603
0.00107731
0.00106826
0.00105896
0.00105097
0.00104944
0.00105094
-0.811242
-0.570627
-0.302337
-0.0832488
0.0946492
0.238449
0.360429
0.463505
0.511379
0.488833
-0.381517
-0.219017
-0.0502408
0.0950183
0.218536
0.322268
0.406939
0.467712
0.499497
0.510544
-0.0902943
0.016873
0.129427
0.229564
0.316067
0.388751
0.446594
0.488869
0.518353
0.535265
0.111725
0.185125
0.263878
0.335097
0.39701
0.449417
0.492138
0.52567
0.551912
0.56953
0.263516
0.316373
0.37224
0.425026
0.471518
0.511791
0.545824
0.573646
0.596153
0.613582
0.384329
0.423168
0.46709
0.508535
0.546123
0.579451
0.608237
0.632072
0.651305
0.66846
0.486776
0.518819
0.556905
0.592586
0.625655
0.655404
0.681191
0.702399
0.718841
0.735868
0.581434
0.612727
0.649282
0.683538
0.71506
0.743268
0.767436
0.786886
0.80091
0.817972
0.680502
0.714996
0.753177
0.788113
0.819354
0.846562
0.869348
0.88725
0.899585
0.917043
0.797811
0.83637
0.875943
0.911028
0.941118
0.966511
0.987408
1.00371
1.01551
1.03364
0.944163
0.983168
1.01982
1.05102
1.07715
1.09965
1.11904
1.13484
1.14747
1.16553
1.11998
1.15197
1.17847
1.20123
1.22149
1.24045
1.25836
1.27498
1.29046
1.30858
1.30912
1.32649
1.34175
1.35819
1.37426
1.38891
1.40223
1.41625
1.43388
1.45407
1.4912
1.50079
1.51242
1.52329
1.53262
1.54233
1.55325
1.5647
1.57611
1.5915
1.69863
1.70233
1.68738
1.67259
1.66643
1.67219
1.6907
1.72106
1.75327
1.77995
2.00493
1.87007
1.79355
1.75134
1.73392
1.73789
1.76534
1.82174
1.92437
2.14875
0.292101
0.290002
0.285525
0.276947
0.264794
0.252742
0.242596
0.234784
0.229217
0.225935
0.225416
0.227872
0.232672
0.239611
0.248763
0.260118
0.272619
0.283538
0.289603
0.292608
0.216435
0.222301
0.22867
0.233266
0.235831
0.23562
0.233012
0.229306
0.225838
0.223522
0.223196
0.225117
0.228474
0.23246
0.235982
0.237625
0.2365
0.232856
0.227568
0.220908
0.207859
0.21016
0.213657
0.21679
0.219013
0.22065
0.221532
0.221328
0.220376
0.21946
0.21944
0.220545
0.221995
0.222949
0.222819
0.221652
0.219853
0.217292
0.213861
0.210864
0.202156
0.203231
0.205229
0.207887
0.210188
0.211847
0.213036
0.2139
0.21435
0.214532
0.21481
0.215243
0.215447
0.215131
0.214353
0.21313
0.211277
0.208809
0.206413
0.204938
0.19694
0.197563
0.198864
0.200932
0.2031
0.205094
0.206682
0.207865
0.208803
0.209522
0.209997
0.210136
0.209875
0.209245
0.208173
0.206579
0.204605
0.20255
0.200844
0.199981
0.192137
0.192504
0.193546
0.195433
0.197495
0.199524
0.201459
0.203098
0.204328
0.205215
0.205799
0.205966
0.205613
0.204683
0.203232
0.201484
0.19961
0.197712
0.196235
0.195658
0.188472
0.188634
0.18942
0.191045
0.192847
0.194514
0.196055
0.197556
0.198974
0.200165
0.200917
0.201025
0.200572
0.199734
0.198673
0.197382
0.19585
0.19421
0.193004
0.192664
0.186465
0.186539
0.187033
0.188152
0.189528
0.190965
0.192495
0.19396
0.195315
0.196525
0.197409
0.197715
0.197481
0.196836
0.19587
0.194795
0.193665
0.192555
0.191808
0.191617
0.18473
0.18478
0.185049
0.185631
0.186428
0.187474
0.18854
0.189805
0.191177
0.192514
0.193579
0.194082
0.19406
0.193747
0.19329
0.192583
0.19205
0.191575
0.191249
0.191143
0.182201
0.182234
0.182416
0.182814
0.183371
0.184005
0.185022
0.186206
0.187528
0.188933
0.190208
0.191013
0.19132
0.191279
0.191035
0.190948
0.190709
0.190476
0.190309
0.190245
0.178936
0.178952
0.179092
0.17946
0.180008
0.180662
0.181544
0.182713
0.184121
0.185711
0.187266
0.188398
0.189007
0.18928
0.189368
0.189359
0.189281
0.189137
0.189041
0.189014
0.175267
0.175262
0.17537
0.175717
0.176252
0.176952
0.177916
0.179081
0.180575
0.182379
0.18429
0.185841
0.186845
0.187415
0.187808
0.187992
0.188006
0.187935
0.187901
0.187899
0.17132
0.171318
0.171402
0.171741
0.172297
0.173062
0.174055
0.175374
0.177088
0.179225
0.181605
0.183644
0.185071
0.186024
0.186603
0.186928
0.187066
0.187111
0.187143
0.187155
0.166982
0.166972
0.167075
0.167393
0.167947
0.168748
0.169863
0.171386
0.173415
0.17601
0.178981
0.181616
0.183531
0.184835
0.185698
0.186239
0.186549
0.186718
0.186811
0.186831
0.162059
0.162045
0.162167
0.162501
0.163099
0.163993
0.165287
0.167103
0.169569
0.172771
0.176497
0.179863
0.182279
0.184049
0.185231
0.186002
0.186487
0.186777
0.186923
0.186951
0.156379
0.156362
0.156505
0.156909
0.157592
0.158642
0.160197
0.162417
0.165462
0.16945
0.174127
0.178373
0.181526
0.183754
0.185289
0.186313
0.186977
0.187384
0.187581
0.187618
0.149749
0.149728
0.14991
0.150399
0.151239
0.152526
0.154454
0.157217
0.161018
0.166016
0.171889
0.177234
0.181213
0.184031
0.185979
0.187292
0.188154
0.188686
0.188941
0.188987
0.141925
0.141898
0.142131
0.142745
0.143803
0.145448
0.147882
0.151357
0.156148
0.162437
0.169806
0.176499
0.181467
0.185001
0.187444
0.189095
0.190186
0.190863
0.191184
0.191241
0.132579
0.132545
0.132853
0.133656
0.135019
0.137124
0.14023
0.144671
0.150756
0.158687
0.167919
0.176262
0.182434
0.186826
0.189862
0.191913
0.193272
0.194112
0.194509
0.194585
0.121233
0.121188
0.121604
0.122671
0.12446
0.1272
0.131245
0.13697
0.144727
0.154741
0.166284
0.176635
0.184264
0.18969
0.193442
0.195979
0.197661
0.198715
0.199211
0.199298
0.107233
0.107178
0.107761
0.109205
0.111594
0.115232
0.120548
0.127976
0.137927
0.150591
0.164977
0.177752
0.187129
0.193797
0.198419
0.20155
0.203628
0.204933
0.205553
0.205661
0.089639
0.0895841
0.0904289
0.0924191
0.0956772
0.100593
0.107683
0.117449
0.130287
0.146281
0.164117
0.17977
0.191216
0.199369
0.205045
0.208913
0.211491
0.213114
0.213894
0.214023
0.066979
0.0669409
0.0682208
0.0710775
0.0756888
0.0825431
0.0922296
0.105228
0.12182
0.141937
0.163871
0.18287
0.196721
0.206625
0.213577
0.218363
0.221584
0.223621
0.224598
0.224762
0.0368175
0.0368498
0.038932
0.0433374
0.0502387
0.0602091
0.0737631
0.0912147
0.112646
0.137765
0.164445
0.187227
0.2038
0.215737
0.224228
0.230171
0.234238
0.236846
0.23809
0.238293
-0.00512365
-0.00482522
-0.000926458
0.00664247
0.0177384
0.0328439
0.0521234
0.0755947
0.103076
0.134057
0.166043
0.192954
0.212512
0.226744
0.23707
0.244488
0.249718
0.253161
0.254795
0.255039
-0.0669536
-0.0651341
-0.0559418
-0.0416082
-0.0226462
0.00065574
0.0279506
0.0590721
0.0936864
0.131199
0.168846
0.200069
0.222758
0.239463
0.251862
0.261093
0.267871
0.272492
0.2748
0.275105
-0.140833
-0.137865
-0.120842
-0.0954704
-0.0659513
-0.0331437
0.0029082
0.0421826
0.0844486
0.129211
0.173515
0.210224
0.237236
0.25759
0.273204
0.285338
0.294863
0.301454
0.303889
0.304852
-0.216795
-0.207657
-0.182408
-0.147028
-0.107936
-0.0660007
-0.0213332
0.0260359
0.0759285
0.127935
0.178942
0.221153
0.252406
0.276269
0.294956
0.309847
0.32175
0.33033
0.334775
0.336462
-0.274664
-0.264282
-0.234073
-0.192092
-0.145668
-0.0961611
-0.0439515
0.0107852
0.0677645
0.126524
0.183638
0.230619
0.265284
0.291684
0.312271
0.328576
0.341521
0.351228
0.356659
0.358478
-0.321325
-0.310456
-0.276869
-0.230244
-0.178375
-0.122985
-0.0645641
-0.00347147
0.0598064
0.12465
0.18721
0.238202
0.275428
0.303442
0.325025
0.341945
0.355258
0.365177
0.370721
0.372671
-0.359733
-0.348859
-0.313269
-0.263019
-0.206858
-0.146728
-0.0831756
-0.016693
0.0520948
0.122365
0.189751
0.244211
0.283546
0.31279
0.335039
0.352244
0.365609
0.375516
0.38107
0.382976
-0.392951
-0.382164
-0.345059
-0.292009
-0.232355
-0.168256
-0.100303
-0.0291002
0.0445957
0.119807
0.191705
0.249384
0.290589
0.32084
0.343542
0.360876
0.374199
0.384052
0.389616
0.391421
-0.422508
-0.411822
-0.373645
-0.318299
-0.255704
-0.188194
-0.116405
-0.0410149
0.0371455
0.116943
0.193055
0.253757
0.296753
0.327985
0.351161
0.368671
0.382009
0.391804
0.397406
0.399065
-0.4496
-0.438978
-0.399939
-0.342647
-0.277575
-0.207133
-0.131975
-0.05282
0.0294098
0.113464
0.193676
0.25749
0.302397
0.334723
0.358464
0.376213
0.389621
0.399393
0.404991
0.40654
-0.474963
-0.464371
-0.424561
-0.365603
-0.298395
-0.225387
-0.147264
-0.0647564
0.0212114
0.109367
0.193677
0.26073
0.307718
0.341298
0.365737
0.383829
0.397365
0.407127
0.412746
0.414184
-0.499073
-0.48847
-0.448024
-0.387606
-0.318489
-0.243217
-0.162468
-0.0769135
0.0125324
0.104594
0.192973
0.26344
0.312758
0.34783
0.373156
0.391725
0.405481
0.415296
0.420887
0.422262
-0.522287
-0.511632
-0.470489
-0.408886
-0.338072
-0.260794
-0.177689
-0.0893927
0.00323344
0.0989837
0.191452
0.265551
0.317512
0.354363
0.380804
0.400022
0.414109
0.424029
0.429556
0.43092
-0.544782
-0.533987
-0.492199
-0.429568
-0.357233
-0.278206
-0.193027
-0.102285
-0.00675922
0.0924907
0.189003
0.266939
0.321897
0.360884
0.388719
0.40878
0.423335
0.433441
0.438896
0.44024
-0.566572
-0.555619
-0.513326
-0.449705
-0.37605
-0.295501
-0.208504
-0.115589
-0.0174352
0.0850607
0.18552
0.267462
0.325756
0.367288
0.396855
0.418
0.43317
0.443541
0.448955
0.450229
-0.587794
-0.576628
-0.533891
-0.469312
-0.394537
-0.312657
-0.224076
-0.129268
-0.0287918
0.0766674
0.180905
0.266944
0.328864
0.373353
0.405068
0.42761
0.443592
0.454323
0.459707
0.46085
-0.608379
-0.597022
-0.553825
-0.488409
-0.41266
-0.329631
-0.239695
-0.14327
-0.040778
0.0673233
0.175088
0.265199
0.330989
0.378847
0.413214
0.437535
0.454542
0.465682
0.471033
0.471987
-0.628373
-0.616795
-0.573113
-0.506981
-0.430383
-0.346383
-0.255308
-0.157515
-0.0533162
0.0570707
0.168033
0.262064
0.331878
0.383533
0.421116
0.447717
0.46599
0.477524
0.482705
0.483436
-0.647606
-0.635882
-0.591732
-0.524976
-0.447649
-0.362828
-0.270829
-0.171916
-0.0663139
0.0459918
0.159733
0.257419
0.331233
0.387011
0.428435
0.458062
0.478014
0.489826
0.494546
0.494946
-0.666194
-0.654254
-0.609662
-0.542363
-0.464419
-0.378921
-0.286165
-0.186379
-0.0796628
0.0341961
0.150239
0.251172
0.328786
0.388765
0.434634
0.468352
0.490918
0.502894
0.506341
0.50609
-0.684008
-0.671846
-0.626881
-0.559098
-0.480619
-0.394584
-0.301237
-0.200783
-0.0932387
0.0217812
0.139651
0.243293
0.324354
0.388301
0.438924
0.477995
0.505071
0.518111
0.518769
0.51637
-0.701095
-0.688754
-0.64335
-0.575135
-0.496216
-0.409757
-0.315965
-0.215044
-0.106921
0.00891168
0.128101
0.233812
0.317837
0.385216
0.440202
0.485517
0.519849
0.537891
0.536867
0.525491