/*--------------------------------*- C++ -*----------------------------------*\
| =========                 |                                                 |
| \\      /  F ield         | OpenFOAM: The Open Source CFD Toolbox           |
|  \\    /   O peration     | Version:  4.0                                   |
|   \\  /    A nd           | Web:      www.OpenFOAM.org                      |
|    \\/     M anipulation  |                                                 |
\*---------------------------------------------------------------------------*/
FoamFile
{
    version     2.0;
    format      ascii;
    class       volScalarField;
    location    "1";
    object      T;
}
// * * * * * * * * * * * * * * * * * * * * * * * * * * * * * * * * * * * * * //

dimensions      [0 0 0 1 0 0 0];

internalField   nonuniform List<scalar> 
1000
(
0
0
0
0
0
0
0
0
0
0
0
0
0
0
0
0
0
0
0
0
0
0
0
0
0
0
0
0
0
0
0
0
0
0
0
0
0
0
0
0
0
0
0
0
0
0
0
0
0
0
0
0
0
0
0
0
0
0
0
0
0
0
0
0
0
0
0
0
0
0
0
0
0
0
0
0
0
0
0
0
0
0
0
0
0
0
0
0
0
0
0
0
0
0
0
0
0
0
0
0
0
0
0
0
0
0
0
0
0
0
0
0
0
0
0
0
0
0
0
0
0
0
0
0
0
0
0
0
0
0
0
0
0
0
0
0
0
0
0
0
0
0
0
0
0
0
0
0
0
0
0
0
0
0
0
0
0
0
0
0
0
0
0
0
0
0
0
0
0
0
0
0
0
0
0
0
0
0
0
0
0
0
0
0
0
0
0
0
0
0
0
0
0
0
0
0
0
0
0
0
0
0
0
0
0
0
0
0
0
0
0
0
0
0
0
0
0
0
0
0
0
0
0
0
0
0
0
0
0
0
0
0
0
0
0
0
0
0
0
0
0
0
0
0
0
0
0
0
0
0
0
0
0
0
0
0
0
0
0
0
0
0
0
0
0
0
0
0
0
0
0
0
0
0
0
0
0
0
0
0
0
0
0
0
0
0
0
0
0
0
0
0
0
0
0
0
0
0
0
0
0
0
0
0
0
0
0
0
0
0
0
0
0
0
0
0
0
0
0
0
0
0
0
0
0
0
0
0
0
0
0
0
0
0
0
0
0
0
0
0
0
0
0
0
0
0
0
0
0
0
0
0
0
0
0
0
0
0
0
0
0
0
0
0
0
0
0
0
0
0
0
0
0
0
0
0
0
0
0
0
0
0
0
0
0
0
0
0
0
0
0
0
0
0
0
0
0
0
0
0
0
0
0
0
0
0
0
0
0
0
0
0
0
0
0
0
0
0
0
0
0
0
0
0
0
0
0
0
0
0
0
0
0
0
0
0
0
0
0
0
0
0
0
0
0
0
0
0
0
0
6.0499e-36
4.09377e-34
1.39208e-32
3.17178e-31
5.44727e-30
7.52166e-29
8.69811e-28
8.66441e-27
7.58928e-26
5.938e-25
4.20189e-24
2.71625e-23
1.61737e-22
8.9327e-22
4.60319e-21
2.22459e-20
1.01271e-19
4.35963e-19
1.78093e-18
6.92485e-18
2.57001e-17
9.12647e-17
3.10806e-16
1.01716e-15
3.20489e-15
9.7389e-15
2.8587e-14
8.11756e-14
2.2329e-13
5.95728e-13
1.54337e-12
3.88702e-12
9.52641e-12
2.2742e-11
5.29304e-11
1.20208e-10
2.66598e-10
5.77841e-10
1.2249e-09
2.54114e-09
5.16265e-09
1.02778e-08
2.00615e-08
3.84155e-08
7.22035e-08
1.33272e-07
2.41691e-07
4.30848e-07
7.55304e-07
1.30269e-06
2.21134e-06
3.69607e-06
6.08496e-06
9.87112e-06
1.57841e-05
2.48865e-05
3.87026e-05
5.93863e-05
8.99365e-05
0.000134467
0.000198542
0.000289577
0.00041732
0.000594403
0.000836969
0.00116537
0.00160489
0.00218655
0.00294783
0.00393346
0.005196
0.0067964
0.00880431
0.0112982
0.0143649
0.0180995
0.022604
0.027986
0.034357
0.0418301
0.0505176
0.0605279
0.0719625
0.0849124
0.0994554
0.115652
0.133544
0.15315
0.174464
0.197454
0.222062
0.248202
0.275763
0.304609
0.334579
0.365496
0.397164
0.429377
0.461918
0.494568
0.52711
0.55933
0.591023
0.621998
0.65208
0.681111
0.708956
0.735499
0.760649
0.784339
0.80652
0.82717
0.846283
0.863874
0.879974
0.894626
0.907889
0.91983
0.930523
0.940047
0.948487
0.955927
0.962452
0.968147
0.973091
0.977362
0.981035
0.984178
0.986854
0.989122
0.991035
0.992642
0.993985
0.995102
0.996028
0.996791
0.997418
0.99793
0.998348
0.998686
0.998959
0.999178
0.999353
0.999493
0.999604
0.999692
0.999761
0.999815
0.999858
0.99989
0.999915
0.999933
0.999946
0.999954
0.999957
0.999955
0.999946
0.999929
0.999902
0.999859
0.999797
0.999707
0.99958
0.999404
0.999162
0.998834
0.998394
0.997813
0.997052
0.996066
0.994804
0.993203
0.991196
0.988702
0.985635
0.9819
0.977396
0.972014
0.965643
0.95817
0.949482
0.939472
0.928038
0.915088
0.900545
0.884348
0.866456
0.84685
0.825536
0.802546
0.777938
0.751798
0.724237
0.695391
0.665421
0.634504
0.602836
0.570623
0.538082
0.505432
0.47289
0.44067
0.408977
0.378002
0.34792
0.318889
0.291044
0.264501
0.239351
0.215661
0.19348
0.17283
0.153717
0.136126
0.120026
0.105374
0.0921106
0.0801699
0.0694772
0.0599527
0.0515129
0.0440729
0.0375476
0.0318534
0.0269093
0.0226376
0.0189648
0.0158223
0.0131462
0.010878
0.00896468
0.00735804
0.00601512
0.0048977
0.00397207
0.00320872
0.00258195
0.00206955
0.00165245
0.00131437
0.00104149
0.000822158
0.000646588
0.000506622
0.000395492
0.00030761
0.000238388
0.000184077
0.000141632
0.000108588
8.29596e-05
6.31587e-05
4.79173e-05
3.62288e-05
2.72981e-05
2.04991e-05
1.53419e-05
1.14438e-05
8.50788e-06
6.30442e-06
4.65641e-06
3.42808e-06
2.51569e-06
1.84025e-06
1.34191e-06
9.75452e-07
7.06864e-07
5.10651e-07
3.67773e-07
2.64067e-07
1.89032e-07
1.34914e-07
9.60032e-08
6.81134e-08
4.81845e-08
3.39876e-08
2.39045e-08
1.67647e-08
1.17241e-08
8.1759e-09
5.68561e-09
3.94287e-09
2.72678e-09
1.88061e-09
1.29351e-09
8.87292e-10
6.07019e-10
4.14176e-10
2.81852e-10
1.91303e-10
1.29507e-10
8.74467e-11
5.88955e-11
3.95655e-11
2.65127e-11
1.77216e-11
1.18161e-11
7.85903e-12
5.21435e-12
3.45123e-12
2.27875e-12
1.50099e-12
9.86331e-13
6.46606e-13
4.22899e-13
2.75943e-13
1.79636e-13
1.16673e-13
7.56056e-14
4.88822e-14
3.15333e-14
2.02962e-14
1.30345e-14
8.35248e-15
5.34051e-15
3.40725e-15
2.16913e-15
1.37795e-15
8.73483e-16
5.52527e-16
3.48769e-16
2.19692e-16
1.38097e-16
8.66286e-17
5.42307e-17
3.38801e-17
2.11234e-17
1.31435e-17
8.16182e-18
5.05828e-18
3.12868e-18
1.93138e-18
1.18995e-18
7.31727e-19
4.49091e-19
2.75099e-19
1.68198e-19
1.02644e-19
6.25214e-20
3.80116e-20
2.30675e-20
1.39729e-20
8.44843e-21
5.09891e-21
3.07181e-21
1.84728e-21
1.10891e-21
6.64488e-22
3.9748e-22
2.37346e-22
1.41479e-22
8.41884e-23
5.00109e-23
2.96575e-23
1.75577e-23
1.03769e-23
6.12259e-24
3.60645e-24
2.12082e-24
1.24512e-24
7.29804e-25
4.27065e-25
2.49504e-25
1.45533e-25
8.4752e-26
4.92773e-26
2.86059e-26
1.65799e-26
9.5946e-27
5.54366e-27
3.19812e-27
1.84215e-27
1.05947e-27
6.08408e-28
3.48854e-28
1.99728e-28
1.14178e-28
6.51753e-29
3.71484e-29
2.11426e-29
1.20155e-29
6.81859e-30
3.86384e-30
2.18634e-30
1.23537e-30
6.97037e-31
3.92737e-31
2.20971e-31
1.24155e-31
6.96603e-32
3.90307e-32
2.18388e-32
1.22027e-32
6.80917e-33
3.79439e-33
2.11157e-33
1.17351e-33
6.51309e-34
3.61004e-34
1.99832e-34
1.10471e-34
6.09905e-35
3.36289e-35
1.85184e-35
1.01844e-35
5.59386e-36
3.06856e-36
1.68116e-36
9.19893e-37
5.02714e-37
2.74387e-37
1.49578e-37
8.14395e-38
4.42864e-38
2.40533e-38
1.30483e-38
7.06976e-39
3.82591e-39
2.06797e-39
1.11645e-39
6.02028e-40
3.24253e-40
1.74438e-40
9.37327e-41
5.0308e-41
2.697e-41
1.44419e-41
7.72455e-42
4.12692e-42
2.20235e-42
1.17397e-42
6.25087e-43
3.3246e-43
1.76626e-43
9.37324e-44
4.96875e-44
2.63105e-44
1.39167e-44
7.35313e-45
3.88097e-45
2.04616e-45
1.07765e-45
5.66957e-46
2.97964e-46
1.56429e-46
8.20385e-47
4.29797e-47
2.24935e-47
1.17598e-47
6.14182e-48
3.20441e-48
1.67015e-48
8.69606e-49
4.52324e-49
2.35039e-49
1.2201e-49
6.32725e-50
3.27797e-50
1.69654e-50
8.77199e-51
4.53112e-51
2.33824e-51
1.20546e-51
6.20861e-52
3.19462e-52
1.6422e-52
8.43376e-53
4.32716e-53
2.21806e-53
1.13589e-53
5.81156e-54
2.97059e-54
1.51702e-54
7.73991e-55
3.94532e-55
2.00923e-55
1.02231e-55
5.19683e-56
2.63938e-56
1.33929e-56
6.78982e-57
3.43917e-57
1.74046e-57
8.80011e-58
4.4456e-58
2.24384e-58
1.13155e-58
5.70132e-59
2.87013e-59
1.44362e-59
7.25493e-60
3.64284e-60
1.82759e-60
9.16107e-61
4.58826e-61
2.29607e-61
1.14804e-61
5.73544e-62
2.86296e-62
1.42793e-62
7.11603e-63
3.54334e-63
1.76292e-63
8.76396e-64
4.35327e-64
2.16063e-64
1.07151e-64
5.3096e-65
2.62895e-65
1.30065e-65
6.42971e-66
3.17601e-66
1.56759e-66
7.73111e-67
3.8099e-67
1.87607e-67
9.23101e-68
4.53853e-68
2.22971e-68
1.09459e-68
5.36937e-69
2.63188e-69
1.28909e-69
6.30917e-70
3.08558e-70
1.50792e-70
7.36372e-71
3.59331e-71
1.75216e-71
8.53755e-72
4.15696e-72
2.02256e-72
9.83361e-73
4.77761e-73
2.31951e-73
1.1253e-73
5.45549e-74
2.64295e-74
1.27949e-74
6.18981e-75
2.99236e-75
1.44559e-75
6.97868e-76
3.36666e-76
1.62303e-76
7.81902e-77
3.76426e-77
1.81097e-77
8.70653e-78
4.18296e-78
)
;

boundaryField
{
    sides
    {
        type            inletOutlet;
        inletValue      uniform 0;
        value           nonuniform List<scalar> 2(4.18296e-78 0);
    }
    empty
    {
        type            empty;
    }
}


// ************************************************************************* //
