/*--------------------------------*- C++ -*----------------------------------*\
| =========                 |                                                 |
| \\      /  F ield         | OpenFOAM: The Open Source CFD Toolbox           |
|  \\    /   O peration     | Version:  4.0                                   |
|   \\  /    A nd           | Web:      www.OpenFOAM.org                      |
|    \\/     M anipulation  |                                                 |
\*---------------------------------------------------------------------------*/
FoamFile
{
    version     2.0;
    format      ascii;
    class       volScalarField;
    location    "18";
    object      p;
}
// * * * * * * * * * * * * * * * * * * * * * * * * * * * * * * * * * * * * * //

dimensions      [0 2 -2 0 0 0 0];

internalField   nonuniform List<scalar> 
8800
(
0.403116
0.355338
0.316665
0.287685
0.266836
0.252019
0.241431
0.233949
0.229097
0.226945
0.228025
0.23201
0.238464
0.247623
0.260283
0.27793
0.302644
0.336537
0.379041
0.437738
0.234345
0.242025
0.249531
0.252854
0.251371
0.24632
0.239862
0.233805
0.229068
0.226149
0.225717
0.228017
0.232299
0.238056
0.244669
0.250829
0.254381
0.253595
0.248102
0.239369
0.212714
0.218888
0.223042
0.226025
0.228113
0.228758
0.227684
0.225584
0.223525
0.222499
0.223259
0.225413
0.227995
0.229983
0.230424
0.229092
0.226641
0.223164
0.218565
0.214793
0.206857
0.209526
0.212346
0.21483
0.216539
0.217756
0.218534
0.218668
0.218338
0.218156
0.218684
0.219589
0.220169
0.220003
0.219196
0.217926
0.215948
0.213235
0.210748
0.209242
0.201446
0.202887
0.204765
0.206921
0.208828
0.210275
0.211328
0.212134
0.212699
0.213123
0.213509
0.213696
0.213503
0.212938
0.211969
0.210464
0.208534
0.206489
0.205075
0.204251
0.196373
0.197301
0.198696
0.200467
0.2023
0.204005
0.205429
0.206561
0.207493
0.208223
0.208601
0.208549
0.208118
0.207282
0.206013
0.204445
0.202776
0.201225
0.200267
0.199739
0.191628
0.192283
0.19345
0.195052
0.196757
0.198483
0.200143
0.201575
0.202711
0.203575
0.204056
0.204021
0.203457
0.202418
0.201079
0.199627
0.198134
0.196814
0.196074
0.195716
0.187268
0.187743
0.188748
0.190224
0.1918
0.19337
0.194946
0.196522
0.197962
0.199103
0.199651
0.199527
0.198891
0.197958
0.196857
0.195605
0.194271
0.193123
0.192534
0.192288
0.183376
0.183681
0.184577
0.185986
0.187525
0.189095
0.190656
0.19214
0.193555
0.194803
0.195555
0.19568
0.195334
0.194605
0.193606
0.19245
0.191223
0.190183
0.189721
0.189585
0.180437
0.1806
0.181293
0.182516
0.183892
0.185313
0.186807
0.188386
0.189956
0.191399
0.192373
0.192694
0.192494
0.191956
0.191209
0.190322
0.189325
0.188532
0.188234
0.188175
0.178132
0.17823
0.178643
0.179445
0.180443
0.181567
0.182828
0.184255
0.185837
0.187468
0.188751
0.189448
0.189677
0.189601
0.189298
0.188851
0.188354
0.187977
0.187837
0.187796
0.17547
0.175556
0.175826
0.176346
0.177096
0.178092
0.179352
0.180878
0.182654
0.184573
0.186225
0.187273
0.187815
0.187949
0.187906
0.187858
0.187751
0.18766
0.1876
0.187558
0.171972
0.172042
0.172274
0.172691
0.17336
0.174241
0.175473
0.177082
0.179068
0.18136
0.183468
0.184945
0.18585
0.186472
0.186802
0.187023
0.187154
0.18719
0.187167
0.187128
0.167695
0.16774
0.16799
0.168486
0.169165
0.170176
0.171583
0.173424
0.17577
0.178526
0.1812
0.183196
0.184538
0.185423
0.186025
0.186405
0.186624
0.186696
0.186706
0.186676
0.162837
0.162868
0.163136
0.163748
0.164627
0.165738
0.167391
0.169562
0.172343
0.175749
0.179121
0.181729
0.183571
0.184826
0.185659
0.186188
0.186448
0.186561
0.186609
0.186588
0.157449
0.157476
0.157749
0.158439
0.159539
0.160915
0.16286
0.165449
0.168818
0.173018
0.177268
0.180613
0.183036
0.184732
0.18583
0.186528
0.186904
0.187101
0.187186
0.187165
0.151429
0.151458
0.151773
0.15253
0.153732
0.155464
0.157804
0.160963
0.165118
0.170339
0.175667
0.179915
0.182973
0.185131
0.186628
0.187576
0.188137
0.188448
0.188565
0.18854
0.144471
0.144504
0.144904
0.145749
0.147151
0.149208
0.152073
0.155983
0.161154
0.167669
0.174339
0.179684
0.183574
0.18635
0.188229
0.189467
0.19024
0.19067
0.190819
0.190786
0.136173
0.136214
0.136679
0.137733
0.139452
0.141964
0.145512
0.150406
0.156883
0.16503
0.173356
0.180019
0.184916
0.188359
0.190733
0.192322
0.193331
0.19389
0.194077
0.194034
0.126122
0.126176
0.126778
0.12809
0.130244
0.13341
0.137908
0.144088
0.152233
0.162426
0.172789
0.181063
0.187099
0.191369
0.194326
0.196319
0.197594
0.198291
0.198523
0.198469
0.113777
0.113848
0.114633
0.116341
0.119127
0.123203
0.128965
0.136836
0.147133
0.159885
0.17272
0.182904
0.190316
0.195572
0.199221
0.201692
0.203276
0.204137
0.204421
0.204352
0.0983848
0.0984863
0.0995385
0.101815
0.105508
0.110857
0.118357
0.128492
0.141553
0.157469
0.173274
0.18572
0.194761
0.201183
0.205658
0.208707
0.210669
0.211719
0.21206
0.211974
0.0787882
0.0789328
0.0803978
0.0835631
0.088621
0.0958304
0.10578
0.118944
0.135524
0.155297
0.174606
0.189683
0.200622
0.20842
0.21389
0.217649
0.220085
0.221389
0.221797
0.221684
0.0531926
0.0534245
0.0556023
0.0602545
0.067459
0.0774753
0.0909143
0.108134
0.129155
0.153544
0.176895
0.194964
0.208077
0.217486
0.224154
0.228793
0.231827
0.233449
0.233937
0.233791
0.0185669
0.0190221
0.022639
0.0300274
0.0408323
0.0552131
0.0736357
0.096208
0.122693
0.152448
0.180321
0.201695
0.217236
0.228502
0.236617
0.242373
0.246199
0.248237
0.248817
0.248621
-0.0310559
-0.0295067
-0.0221465
-0.00916937
0.00792574
0.0290308
0.0543264
0.0836498
0.116566
0.152307
0.185043
0.209928
0.228085
0.241422
0.251244
0.25841
0.263328
0.266001
0.266729
0.266457
-0.105183
-0.096304
-0.0794503
-0.0563398
-0.0297886
0.000276993
0.0339611
0.0710636
0.111136
0.153438
0.191511
0.220348
0.241574
0.257471
0.269558
0.278831
0.285558
0.289483
0.290702
0.290644
-0.18445
-0.16442
-0.137428
-0.103969
-0.0677496
-0.0285968
0.0135624
0.0586345
0.106282
0.155905
0.20038
0.234278
0.2596
0.278989
0.294182
0.306236
0.315472
0.321883
0.324269
0.324367
-0.24769
-0.225156
-0.189984
-0.148253
-0.103504
-0.0559649
-0.00573472
0.0470103
0.101934
0.158479
0.20884
0.247192
0.275953
0.298124
0.315604
0.329581
0.340398
0.347902
0.349942
0.350307
-0.299016
-0.274405
-0.234387
-0.186748
-0.135399
-0.0809577
-0.02374
0.0359155
0.0975206
0.160415
0.216006
0.258077
0.28946
0.313517
0.332362
0.347344
0.358878
0.366661
0.369144
0.369573
-0.340886
-0.315471
-0.271975
-0.219864
-0.163319
-0.10331
-0.0402273
0.0254178
0.0929665
0.161551
0.22173
0.266852
0.30015
0.325403
0.344988
0.360413
0.372175
0.379971
0.382689
0.383069
-0.376506
-0.350635
-0.304687
-0.24895
-0.188187
-0.123507
-0.0553958
0.0154834
0.088318
0.162031
0.22628
0.274011
0.308866
0.334995
0.35499
0.370509
0.382231
0.389988
0.392862
0.393237
-0.407808
-0.381709
-0.333868
-0.275143
-0.210844
-0.14214
-0.0696487
0.00589092
0.0835169
0.161951
0.230037
0.280211
0.316448
0.343262
0.363522
0.379042
0.390687
0.398305
0.401296
0.401658
-0.436256
-0.40995
-0.360552
-0.299329
-0.232001
-0.159798
-0.0834011
-0.0036366
0.0784269
0.161334
0.233081
0.285585
0.32316
0.350673
0.371233
0.386824
0.398434
0.405915
0.408952
0.409314
-0.462686
-0.436192
-0.38547
-0.322092
-0.252114
-0.176827
-0.0969487
-0.0133533
0.072829
0.15998
0.235344
0.290304
0.329363
0.357702
0.378655
0.394383
0.406001
0.413321
0.416328
0.416775
-0.487793
-0.461047
-0.409113
-0.343853
-0.271542
-0.19353
-0.11054
-0.0234526
0.0665625
0.157859
0.236967
0.294559
0.335266
0.364587
0.386065
0.402024
0.413685
0.42093
0.423831
0.424289
-0.511841
-0.484814
-0.431768
-0.36492
-0.290521
-0.210075
-0.12429
-0.0340121
0.0596265
0.154976
0.237889
0.29833
0.340942
0.371454
0.393635
0.409959
0.421747
0.428953
0.431713
0.432095
-0.535174
-0.507765
-0.453839
-0.385445
-0.309176
-0.226569
-0.138264
-0.0450706
0.051936
0.151177
0.237989
0.301559
0.346405
0.378375
0.401451
0.418279
0.430273
0.437464
0.440059
0.440345
-0.557832
-0.529977
-0.47535
-0.405524
-0.327606
-0.243078
-0.152518
-0.0566946
0.0434018
0.146393
0.237183
0.304138
0.351559
0.385299
0.409499
0.426987
0.43928
0.446474
0.44894
0.449069
-0.579884
-0.551712
-0.496262
-0.425199
-0.345829
-0.259598
-0.167056
-0.0688947
0.0340371
0.140578
0.235338
0.305932
0.356265
0.392141
0.417745
0.436066
0.448731
0.455911
0.458235
0.458215
-0.601407
-0.572815
-0.516631
-0.444468
-0.363827
-0.276104
-0.181828
-0.0816011
0.0238639
0.133682
0.232333
0.306749
0.360372
0.398795
0.426129
0.445472
0.458573
0.465703
0.467832
0.467677
-0.622444
-0.593364
-0.536464
-0.463319
-0.381556
-0.292545
-0.196765
-0.0947593
0.0129176
0.125692
0.228065
0.306379
0.363639
0.405092
0.434591
0.455182
0.468736
0.475731
0.477575
0.477301
-0.642815
-0.613288
-0.555712
-0.481707
-0.398963
-0.308842
-0.211799
-0.108287
0.00127718
0.116649
0.222449
0.304628
0.365757
0.410768
0.443042
0.465237
0.479174
0.485792
0.487242
0.486848
-0.662493
-0.632548
-0.574357
-0.499577
-0.415988
-0.324936
-0.226835
-0.122088
-0.0109568
0.106605
0.215455
0.301318
0.366417
0.415458
0.451327
0.475842
0.490144
0.49582
0.496547
0.496057
-0.681538
-0.651101
-0.592363
-0.516894
-0.432573
-0.340743
-0.241781
-0.13605
-0.0236774
0.0956548
0.20708
0.296318
0.365276
0.418616
0.459036
0.487233
0.502507
0.506303
0.505256
0.504666
-0.699794
-0.66894
-0.609677
-0.533597
-0.448661
-0.356186
-0.256543
-0.15006
-0.0367519
0.0839306
0.197389
0.289548
0.362048
0.419535
0.465258
0.499149
0.517771
0.519997
0.514843
0.512936
-0.717349
-0.68606
-0.626328
-0.549712
-0.464284
-0.37131
-0.271178
-0.164176
-0.0502447
0.0713673
0.186272
0.280773
0.356436
0.417387
0.468379
0.509963
0.536104
0.542722
0.533653
0.512717
-0.734148
-0.702475
-0.642435
-0.565417
-0.47972
-0.38643
-0.286081
-0.178863
-0.0646887
0.0573101
0.173026
0.269102
0.347598
0.410946
0.465118
0.51428
0.547827
0.553499
0.537799
0.512998
-0.750046
-0.718363
-0.657831
-0.580465
-0.494694
-0.401215
-0.301031
-0.193796
-0.0797531
0.0420886
0.157877
0.254397
0.335164
0.399756
0.450884
0.500429
0.531598
0.52697
0.456632
0.415059
-0.764463
-0.734726
-0.67216
-0.594298
-0.508525
-0.415214
-0.31575
-0.208759
-0.0952186
0.0258658
0.14087
0.236614
0.318474
0.384329
0.426224
0.456384
0.472712
0.428749
0.353222
0.304133
-0.817616
-0.748485
-0.685146
-0.608333
-0.522592
-0.42976
-0.330299
-0.223994
-0.111391
0.0082923
0.121589
0.215477
0.295192
0.366267
0.376143
0.385611
0.356867
0.291167
0.20707
0.159802
-0.777539
-0.76266
-0.703628
-0.628245
-0.542769
-0.450448
-0.35219
-0.247061
-0.136278
-0.0194048
0.0897513
0.179137
0.249566
0.31422
0.317637
0.201181
0.087544
0.00936581
-0.072281
-0.0290573
-0.805884
-0.778215
-0.719007
-0.643523
-0.558563
-0.466662
-0.368401
-0.264209
-0.154959
-0.0406483
0.0645977
0.148868
0.211721
0.244417
0.192201
0.0309905
-0.116325
-0.22061
-0.335634
-0.267307
-0.827352
-0.796439
-0.736638
-0.660771
-0.575973
-0.484302
-0.386363
-0.28328
-0.175844
-0.0645963
0.0360887
0.114001
0.166752
0.170388
0.0525517
-0.156875
-0.339677
-0.480528
-0.646417
-0.58635
-0.847871
-0.815479
-0.754812
-0.678266
-0.593405
-0.501956
-0.4047
-0.302828
-0.197366
-0.0894975
0.00593164
0.0768666
0.115668
0.0809798
-0.102462
-0.346507
-0.582054
-0.794907
-1.03537
-1.02532
-0.867281
-0.834798
-0.773495
-0.696366
-0.611426
-0.520254
-0.423764
-0.323179
-0.219885
-0.115683
-0.0260155
0.0374915
0.0594442
-0.0163178
-0.252056
-0.520092
-0.801007
-1.05419
-1.36915
-1.7355
-0.886684
-0.854483
-0.792882
-0.715425
-0.6304
-0.539463
-0.443652
-0.344349
-0.243268
-0.14287
-0.0591303
-0.00353665
0.00113381
-0.125687
-0.384389
-0.655619
-0.934395
-1.17074
-1.26708
-1.41483
-0.906714
-0.874853
-0.813227
-0.7357
-0.650698
-0.560068
-0.464999
-0.367105
-0.268488
-0.172307
-0.0949276
-0.0483532
-0.067073
-0.247807
-0.500587
-0.754268
-0.979326
-1.11938
-1.14726
-1.17498
-0.927721
-0.896176
-0.834646
-0.757197
-0.672361
-0.582163
-0.488013
-0.391748
-0.295929
-0.204488
-0.133952
-0.0980598
-0.146125
-0.362138
-0.605339
-0.833753
-1.01301
-1.0866
-1.10379
-1.10746
-0.949869
-0.918425
-0.857142
-0.779833
-0.695266
-0.605652
-0.512588
-0.418173
-0.325478
-0.239272
-0.176091
-0.152717
-0.228509
-0.471827
-0.703083
-0.910719
-1.0557
-1.08256
-1.07996
-1.07903
-0.973058
-0.941635
-0.88069
-0.803537
-0.719326
-0.630411
-0.538581
-0.446217
-0.356907
-0.27636
-0.221121
-0.210299
-0.315209
-0.578649
-0.797571
-0.971038
-1.04633
-1.06259
-1.06343
-1.06266
-0.997018
-0.965702
-0.904965
-0.828151
-0.744357
-0.656249
-0.565787
-0.475634
-0.389896
-0.315284
-0.268664
-0.267686
-0.414393
-0.683338
-0.895203
-1.00593
-1.04656
-1.04877
-1.05173
-1.05244
-1.02121
-0.99025
-0.929725
-0.853346
-0.770089
-0.682871
-0.593864
-0.506036
-0.423933
-0.355406
-0.31724
-0.329803
-0.510686
-0.784346
-1.01882
-1.04778
-1.0463
-1.05877
-1.0599
-1.0589
-1.04514
-1.01474
-0.954732
-0.878752
-0.796074
-0.709829
-0.622332
-0.53685
-0.458313
-0.395818
-0.36526
-0.397159
-0.593261
-0.867051
-1.21001
-1.2836
-1.18573
-1.10556
-1.06986
-1.06264
-1.06816
-1.03825
-0.979389
-0.903807
-0.821758
-0.736543
-0.650531
-0.567286
-0.492087
-0.435033
-0.411046
-0.457397
-0.661871
-0.88703
-1.29091
-1.53853
-1.287
-1.1341
-1.06433
-1.04341
-1.08931
-1.06033
-1.00252
-0.927777
-0.846524
-0.762238
-0.677613
-0.596305
-0.524041
-0.471028
-0.453605
-0.509593
-0.702928
-0.763852
-0.756697
-1.08025
-1.22802
-1.34619
-1.30646
-1.28864
-1.10745
-1.07991
-1.02352
-0.94977
-0.869372
-0.786085
-0.702617
-0.622705
-0.552578
-0.501926
-0.491677
-0.552249
-0.778563
-0.703413
-0.0954339
-0.265712
-0.989926
-1.32735
-1.36291
-1.37734
-1.1215
-1.09585
-1.04144
-0.968819
-0.889313
-0.806945
-0.724377
-0.645227
-0.575674
-0.526223
-0.52176
-0.592677
-1.02825
-1.52046
-1.89523
-2.38988
-2.4727
-2.06361
-1.73545
-1.70882
-1.13027
-1.10715
-1.05515
-0.983901
-0.905322
-0.823733
-0.741691
-0.662525
-0.59149
-0.540485
-0.53495
-0.66171
-1.38725
-2.63
-3.96551
-4.51737
-4.4275
-3.91053
-3.29906
-2.99413
-1.13295
-1.11271
-1.06367
-0.994151
-0.91641
-0.835439
-0.753485
-0.673198
-0.598862
-0.539679
-0.522916
-0.632452
-1.35559
-2.40756
-3.59831
-4.10851
-3.9595
-3.45869
-2.9823
-2.75933
-1.12813
-1.11137
-1.06636
-0.998554
-0.921805
-0.841301
-0.758995
-0.676787
-0.596521
-0.523079
-0.473319
-0.453907
-0.715199
-0.930062
-0.965618
-0.836498
-0.513627
-0.189796
0.0394718
0.140994
-1.11538
-1.10188
-1.06149
-0.996645
-0.920689
-0.840741
-0.758361
-0.673888
-0.58645
-0.493463
-0.398336
-0.328254
-0.118707
0.311999
0.858803
1.45003
1.88321
2.14001
2.26323
2.29767
-1.09427
-1.08447
-1.04907
-0.987141
-0.912263
-0.833865
-0.752433
-0.666634
-0.572332
-0.460961
-0.339056
-0.217598
0.0173427
0.636046
1.33689
1.94247
2.38245
2.6392
2.7557
2.78814
-1.06405
-1.05761
-1.02721
-0.968279
-0.896335
-0.82085
-0.742541
-0.658682
-0.562926
-0.441745
-0.301398
-0.161455
0.00742112
0.521839
1.1163
1.61029
1.96088
2.16825
2.2713
2.30603
-1.02053
-1.0168
-0.991952
-0.938424
-0.871798
-0.802183
-0.731241
-0.655663
-0.566205
-0.443198
-0.282983
-0.130435
-0.00234096
0.328578
0.757711
1.11623
1.38846
1.55736
1.64938
1.6825
-0.960475
-0.957541
-0.938608
-0.894603
-0.837604
-0.778997
-0.72162
-0.66223
-0.588733
-0.478152
-0.311307
-0.133251
0.0358275
0.191524
0.437994
0.670016
0.860579
0.986364
1.05203
1.07282
-0.880414
-0.878311
-0.865743
-0.836014
-0.795687
-0.754336
-0.716171
-0.680763
-0.640675
-0.564912
-0.420082
-0.222905
-0.0452498
0.0730261
0.223646
0.383003
0.506766
0.592972
0.644581
0.655208
-0.80509
-0.803218
-0.795977
-0.779824
-0.757544
-0.735881
-0.720756
-0.71722
-0.728508
-0.746221
-0.673794
-0.46787
-0.250581
-0.153183
-0.0420122
0.0893186
0.198522
0.271848
0.306693
0.313252
-0.7494
-0.748545
-0.745864
-0.739526
-0.731837
-0.728947
-0.739854
-0.780167
-0.878844
-1.06339
-1.15571
-0.905904
-0.593611
-0.432659
-0.310302
-0.178069
-0.0671973
0.006599
0.0419587
0.0442658
-0.705219
-0.705954
-0.706276
-0.706349
-0.70986
-0.723562
-0.760651
-0.850691
-1.06364
-1.48424
-1.84924
-1.55825
-1.06479
-0.789136
-0.600471
-0.418015
-0.281586
-0.197265
-0.165087
-0.166298
-0.652099
-0.653977
-0.656599
-0.661124
-0.672305
-0.697659
-0.754147
-0.881543
-1.18189
-1.80264
-2.34838
-2.06251
-1.45531
-1.10146
-0.83402
-0.614825
-0.466118
-0.388795
-0.364533
-0.365675
-0.577663
-0.579968
-0.583773
-0.590659
-0.604907
-0.634314
-0.695283
-0.828427
-1.13764
-1.76668
-2.26145
-1.9661
-1.49036
-1.17017
-0.886417
-0.700587
-0.602263
-0.566394
-0.553901
-0.551754
-0.481809
-0.483918
-0.487674
-0.494321
-0.507078
-0.532017
-0.581849
-0.688548
-0.932065
-1.41137
-1.75919
-1.57283
-1.26295
-0.980402
-0.776286
-0.665383
-0.640354
-0.639647
-0.634803
-0.630986
-0.373989
-0.375426
-0.378245
-0.382809
-0.391338
-0.4072
-0.437771
-0.501135
-0.641524
-0.91332
-1.10654
-0.995462
-0.80347
-0.627183
-0.541483
-0.53359
-0.552971
-0.565759
-0.566565
-0.564629
-0.267648
-0.268327
-0.269906
-0.272177
-0.276062
-0.282767
-0.295055
-0.319379
-0.370552
-0.464866
-0.531599
-0.460135
-0.367153
-0.324511
-0.342327
-0.380156
-0.406473
-0.419073
-0.422112
-0.421896
-0.174133
-0.174245
-0.174859
-0.175511
-0.176172
-0.176652
-0.177011
-0.177549
-0.178979
-0.177284
-0.159703
-0.121754
-0.113739
-0.153703
-0.199961
-0.238042
-0.259859
-0.270207
-0.274401
-0.275163
-0.0996741
-0.0994861
-0.0996012
-0.0995096
-0.0987025
-0.0964104
-0.0916177
-0.0827076
-0.0674413
-0.0427804
-0.0186351
-0.00995546
-0.0227242
-0.0644302
-0.104096
-0.131772
-0.147531
-0.155348
-0.158982
-0.160055
-0.0453055
-0.0450294
-0.0449898
-0.0447782
-0.0437071
-0.0408969
-0.0352669
-0.0251733
-0.0088641
0.0137179
0.0298201
0.0261058
0.00915025
-0.0196631
-0.0461423
-0.0642694
-0.074716
-0.0801467
-0.0828597
-0.0837488
-0.00858008
-0.00833501
-0.00831166
-0.00825283
-0.00750512
-0.00524561
-0.000598313
0.00750456
0.019866
0.0351848
0.0433247
0.0369357
0.0220486
0.00335255
-0.0131304
-0.0246323
-0.0315132
-0.0352041
-0.0370385
-0.0376276
0.0143787
0.0145479
0.0145002
0.0143348
0.0146333
0.0160306
0.0191711
0.0247215
0.0328518
0.0419111
0.0449882
0.0388136
0.0277122
0.0156016
0.00525733
-0.00217285
-0.00682633
-0.00937348
-0.0105966
-0.0110066
0.0274618
0.0275543
0.0274324
0.0270934
0.0270062
0.0276473
0.0294227
0.0326875
0.0374
0.0421692
0.0426282
0.0374939
0.0297017
0.0217335
0.015033
0.010087
0.00684807
0.00504373
0.00421488
0.00396246
0.0338608
0.0338948
0.0337223
0.0332775
0.0329419
0.0330385
0.0338409
0.0355232
0.0379288
0.0400241
0.039213
0.0350766
0.0295884
0.024217
0.0197266
0.0163314
0.0140274
0.0127298
0.0121617
0.0119924
0.0359057
0.0359037
0.0357013
0.0352088
0.0347288
0.0344692
0.0346069
0.035229
0.0361885
0.0367388
0.0353752
0.0320947
0.0281779
0.0244639
0.0213645
0.0189803
0.01732
0.0163798
0.0159857
0.0158642
0.0351721
0.0351511
0.0349436
0.0344583
0.0339197
0.0334696
0.0332198
0.0332005
0.033289
0.0329933
0.0314806
0.0288864
0.0260221
0.0233799
0.021182
0.0194712
0.0182584
0.0175705
0.0172924
0.0172119
0.0327063
0.0326781
0.0324847
0.0320397
0.0315049
0.0309803
0.0305349
0.0301771
0.0298101
0.0290994
0.027609
0.0255409
0.0234058
0.0214842
0.0198921
0.0186444
0.01775
0.0172431
0.0170445
0.0169885
0.0291868
0.0291584
0.0289899
0.028601
0.0281089
0.0275831
0.0270651
0.0265515
0.0259719
0.0251096
0.0237554
0.0221138
0.0205037
0.0190846
0.0179154
0.0169965
0.0163334
0.0159581
0.0158148
0.0157754
0.0250421
0.0250169
0.0248784
0.0245539
0.0241266
0.0236476
0.0231401
0.0225969
0.0219666
0.0211073
0.0199362
0.018642
0.0174245
0.0163701
0.0155061
0.0148264
0.0143339
0.0140558
0.0139523
0.0139244
0.0205374
0.0205168
0.0204083
0.0201492
0.0197964
0.0193897
0.0189405
0.018441
0.0178555
0.0170926
0.0161339
0.0151374
0.0142282
0.0134516
0.0128177
0.0123178
0.0119544
0.0117503
0.0116764
0.0116567
0.0158322
0.0158164
0.0157357
0.0155386
0.0152639
0.0149426
0.0145804
0.0141704
0.0136879
0.013075
0.0123417
0.0116097
0.0109559
0.0104017
0.00994914
0.00959019
0.00932778
0.00918159
0.00913025
0.00911654
0.011019
0.0110075
0.0109511
0.0108111
0.0106144
0.0103854
0.0101267
0.00983259
0.00948698
0.00905512
0.00855331
0.00806444
0.00763308
0.00726815
0.00696774
0.00672586
0.00654664
0.00644724
0.00641309
0.00640358
0.00614627
0.00613863
0.0061048
0.00601949
0.00590315
0.0057728
0.00562765
0.00546332
0.00527098
0.00503353
0.0047614
0.00449925
0.0042694
0.00407436
0.00391155
0.0037763
0.00367248
0.00361471
0.00359484
0.00358787
0.00125238
0.00125493
0.00126941
0.00127503
0.00125568
0.00122433
0.00118753
0.00114698
0.00110014
0.00104305
0.000975019
0.000905946
0.000845172
0.000793392
0.000750591
0.000716057
0.000690827
0.000682903
0.000693522
0.000701188
-0.745233
-0.521568
-0.267918
-0.0597682
0.109286
0.245588
0.360691
0.457851
0.502424
0.479974
-0.34333
-0.189496
-0.0290779
0.109171
0.2266
0.32503
0.405172
0.462483
0.492266
0.503517
-0.0676138
0.0345022
0.141976
0.237555
0.320048
0.389299
0.444364
0.484577
0.512806
0.529903
0.125768
0.195911
0.271155
0.339441
0.398788
0.44903
0.490017
0.522284
0.547757
0.565493
0.271805
0.322509
0.376383
0.427301
0.472161
0.51106
0.544
0.571015
0.593047
0.610549
0.389095
0.42667
0.469455
0.50964
0.546177
0.578631
0.606718
0.630043
0.648971
0.666164
0.489522
0.520836
0.55808
0.593007
0.625397
0.65459
0.679933
0.700824
0.717063
0.7341
0.582905
0.613762
0.649771
0.683531
0.714636
0.742503
0.766393
0.785639
0.799524
0.81658
0.681198
0.715341
0.753206
0.787864
0.818855
0.845855
0.868465
0.886235
0.898471
0.915916
0.798086
0.836281
0.875721
0.91069
0.940618
0.965868
0.986652
1.00287
1.01458
1.0327
0.944226
0.983164
1.01955
1.05062
1.07665
1.09905
1.11836
1.13409
1.14668
1.16472
1.11965
1.1517
1.17813
1.20077
1.22095
1.23986
1.25772
1.27431
1.28976
1.30786
1.30865
1.32603
1.34129
1.35769
1.3737
1.38833
1.40163
1.41563
1.43324
1.45342
1.49083
1.5003
1.5119
1.52277
1.5321
1.54177
1.55267
1.5641
1.5755
1.59088
1.69806
1.70177
1.68684
1.67205
1.66587
1.67161
1.69011
1.72047
1.75268
1.77934
2.0044
1.86956
1.79299
1.75074
1.73333
1.7373
1.76474
1.82115
1.92378
2.14816
0.293711
0.291592
0.287109
0.278495
0.26629
0.254184
0.243978
0.236092
0.230452
0.227123
0.226615
0.229138
0.234034
0.241075
0.250313
0.261735
0.274299
0.285271
0.291358
0.294385
0.218125
0.223977
0.230332
0.234858
0.237357
0.237063
0.234352
0.230558
0.227036
0.2247
0.224386
0.226358
0.229791
0.233876
0.23752
0.239271
0.238231
0.234662
0.229431
0.222785
0.209661
0.21196
0.215396
0.218445
0.22058
0.222132
0.222933
0.222645
0.221601
0.220621
0.22061
0.221801
0.223374
0.224446
0.22442
0.223356
0.221656
0.219194
0.215841
0.212883
0.204102
0.205184
0.207074
0.209544
0.211662
0.21317
0.214249
0.215025
0.215417
0.215559
0.215849
0.216359
0.216655
0.21645
0.215798
0.214732
0.213063
0.210797
0.208572
0.207146
0.198878
0.199529
0.200716
0.202577
0.204527
0.206319
0.207743
0.208819
0.209679
0.210365
0.21086
0.211072
0.210925
0.210425
0.209522
0.208135
0.206399
0.204581
0.203067
0.202242
0.193946
0.194374
0.195258
0.196788
0.198525
0.200279
0.201948
0.203385
0.204546
0.205473
0.206103
0.206285
0.205996
0.205259
0.204096
0.202657
0.201105
0.199586
0.198408
0.197856
0.189411
0.189706
0.190422
0.19179
0.193422
0.195076
0.196747
0.198375
0.199812
0.200958
0.20173
0.201955
0.201588
0.200722
0.199553
0.19824
0.196845
0.19547
0.194484
0.194083
0.18523
0.185415
0.186001
0.187244
0.188762
0.190314
0.191838
0.193346
0.194832
0.196197
0.197158
0.197437
0.197146
0.196495
0.195592
0.194483
0.193243
0.19202
0.191181
0.190902
0.181777
0.181861
0.182319
0.183464
0.18493
0.186453
0.188042
0.189627
0.191153
0.192568
0.193698
0.194249
0.194202
0.19369
0.192846
0.19184
0.190718
0.189607
0.188916
0.188751
0.179267
0.1793
0.179589
0.180398
0.181536
0.182748
0.18403
0.185442
0.18699
0.188582
0.189956
0.190758
0.190978
0.190832
0.190439
0.189855
0.189127
0.188421
0.188024
0.187939
0.176891
0.176919
0.177105
0.177588
0.178351
0.179305
0.180465
0.181838
0.183401
0.185119
0.186782
0.187967
0.188577
0.188749
0.188674
0.188447
0.188188
0.187924
0.187776
0.18772
0.17383
0.173855
0.174004
0.17435
0.174918
0.175717
0.176782
0.178168
0.179902
0.181912
0.183961
0.185544
0.186507
0.187053
0.187237
0.187358
0.18744
0.187457
0.187428
0.18739
0.169912
0.169926
0.170068
0.170416
0.170941
0.171713
0.172837
0.174331
0.176259
0.178597
0.181123
0.183223
0.184625
0.185516
0.186153
0.186559
0.186807
0.186925
0.186938
0.186917
0.165333
0.165333
0.165472
0.165885
0.166543
0.167437
0.168718
0.170464
0.172754
0.175552
0.178687
0.181394
0.183303
0.18459
0.18546
0.186036
0.186392
0.186546
0.186598
0.186602
0.160217
0.160205
0.16034
0.160799
0.161568
0.162739
0.164224
0.166263
0.168961
0.172389
0.176295
0.179753
0.182267
0.184039
0.185235
0.186031
0.186472
0.186701
0.18681
0.186831
0.154553
0.154526
0.154679
0.155185
0.156095
0.15741
0.159283
0.161729
0.16501
0.169227
0.174091
0.178473
0.181705
0.183955
0.18554
0.186602
0.187232
0.18759
0.187768
0.187801
0.148111
0.148078
0.148269
0.148838
0.149879
0.151438
0.153629
0.156656
0.160716
0.16595
0.172029
0.177532
0.181603
0.184517
0.186568
0.187926
0.188794
0.189315
0.189564
0.189607
0.140521
0.140482
0.140711
0.141418
0.142641
0.144491
0.147181
0.150939
0.155997
0.162535
0.170132
0.177021
0.182136
0.185843
0.188397
0.190133
0.191278
0.191979
0.192301
0.192352
0.131383
0.131333
0.131635
0.132495
0.134018
0.136333
0.139693
0.144396
0.150746
0.158947
0.168439
0.17701
0.183402
0.187981
0.191176
0.193361
0.194821
0.19572
0.196123
0.196186
0.120252
0.120193
0.120602
0.121717
0.123643
0.126583
0.130851
0.136827
0.14487
0.155177
0.167006
0.177622
0.185495
0.191143
0.195099
0.197814
0.199638
0.200765
0.201266
0.201341
0.106455
0.106384
0.106947
0.108432
0.110958
0.114791
0.120332
0.128033
0.138273
0.15123
0.165916
0.178976
0.188616
0.195531
0.200385
0.203729
0.205984
0.207384
0.208005
0.208094
0.089054
0.088974
0.0897823
0.0918212
0.0952254
0.100357
0.107694
0.117732
0.13085
0.147143
0.165283
0.181226
0.192941
0.201349
0.207271
0.211373
0.214152
0.21588
0.21665
0.216755
0.0666477
0.0665782
0.0677965
0.0706888
0.0754331
0.0825064
0.0924402
0.105709
0.122597
0.14302
0.165257
0.184536
0.198641
0.208793
0.21599
0.221015
0.224446
0.226582
0.227525
0.227648
0.0368615
0.0368491
0.0388116
0.0431965
0.0502201
0.0604022
0.0742007
0.0919275
0.113654
0.139073
0.166043
0.189077
0.205869
0.218017
0.226724
0.232889
0.23715
0.239812
0.240975
0.241117
-0.00453146
-0.00432167
-0.000681392
0.00681691
0.0180351
0.0333507
0.052868
0.0765986
0.104357
0.135625
0.167876
0.194993
0.214706
0.229076
0.239542
0.247112
0.252471
0.25584
0.25727
0.257423
-0.0653325
-0.0637421
-0.0550305
-0.0409542
-0.0219886
0.0014803
0.0289992
0.060372
0.0952629
0.133056
0.170944
0.202319
0.225086
0.241826
0.254244
0.263482
0.270197
0.274537
0.276375
0.276566
-0.138082
-0.135493
-0.119206
-0.0945305
-0.0650002
-0.0320406
0.00424093
0.0437982
0.0863673
0.131424
0.175968
0.212794
0.239801
0.260061
0.275507
0.287405
0.296581
0.302289
0.304207
0.304769
-0.212987
-0.204722
-0.180691
-0.145929
-0.106781
-0.0646426
-0.0197105
0.0279782
0.0782203
0.130567
0.181837
0.224175
0.255417
0.279156
0.297621
0.312178
0.323547
0.33072
0.334126
0.33519
-0.271098
-0.26143
-0.232492
-0.191072
-0.144507
-0.0947157
-0.0421448
0.013001
0.0704198
0.129607
0.187078
0.234269
0.26901
0.295396
0.315914
0.332092
0.344707
0.353239
0.357696
0.358951
-0.318127
-0.307915
-0.275583
-0.229392
-0.177279
-0.121463
-0.0625763
-0.000983956
0.0628168
0.128186
0.191202
0.242547
0.280037
0.308258
0.330011
0.347055
0.360319
0.369595
0.374353
0.375665
-0.357041
-0.346744
-0.312323
-0.262491
-0.205912
-0.145233
-0.0810919
-0.0139711
0.0554509
0.126336
0.194302
0.249205
0.288866
0.318394
0.340908
0.358348
0.371765
0.381163
0.385931
0.387378
-0.390751
-0.380475
-0.344488
-0.291772
-0.231544
-0.166774
-0.0981026
-0.0261691
0.0482501
0.124129
0.196591
0.254731
0.296331
0.326943
0.349977
0.367582
0.381012
0.390398
0.395163
0.396575
-0.420798
-0.410575
-0.373436
-0.318303
-0.255065
-0.186776
-0.11416
-0.0379325
0.0410262
0.121538
0.198279
0.259497
0.302881
0.334447
0.357921
0.375683
0.389091
0.398468
0.403271
0.404543
-0.448386
-0.438181
-0.400099
-0.342943
-0.277127
-0.205765
-0.129654
-0.049559
0.0335603
0.118418
0.199243
0.263471
0.30869
0.341297
0.365305
0.383279
0.396747
0.406112
0.410932
0.41205
-0.474276
-0.464062
-0.425158
-0.366237
-0.298134
-0.224085
-0.144886
-0.0613122
0.0256322
0.114573
0.199429
0.266828
0.314069
0.347865
0.372516
0.390798
0.404373
0.413714
0.41852
0.419538
-0.498925
-0.488686
-0.449028
-0.388571
-0.318463
-0.242022
-0.160061
-0.0733456
0.0171238
0.109996
0.198905
0.269615
0.31908
0.354284
0.379751
0.398467
0.412238
0.421601
0.426378
0.427359
-0.522713
-0.51238
-0.471973
-0.410221
-0.338287
-0.259711
-0.175283
-0.0857189
0.00802614
0.104634
0.197548
0.271751
0.323707
0.360589
0.387096
0.40641
0.420491
0.429941
0.434609
0.435582
-0.545823
-0.535324
-0.49426
-0.431297
-0.357721
-0.277264
-0.190627
-0.098487
-0.00175092
0.0983607
0.195251
0.27316
0.327925
0.366775
0.394578
0.414678
0.429183
0.438774
0.443341
0.444284
-0.568276
-0.557582
-0.515979
-0.451862
-0.376847
-0.294718
-0.206118
-0.11169
-0.0122553
0.0911381
0.191933
0.273705
0.331622
0.372799
0.402178
0.423262
0.438313
0.448079
0.452553
0.453386
-0.590204
-0.579289
-0.537098
-0.471934
-0.395662
-0.31206
-0.221743
-0.1253
-0.0234382
0.0829691
0.187499
0.273233
0.334601
0.378518
0.40982
0.432118
0.44783
0.457795
0.462145
0.462841
-0.611541
-0.600404
-0.557653
-0.491538
-0.414146
-0.329256
-0.237442
-0.139244
-0.0352579
0.0738441
0.181884
0.271586
0.336652
0.383725
0.417391
0.441204
0.457696
0.467846
0.472027
0.472538
-0.632303
-0.620921
-0.577602
-0.510641
-0.432262
-0.346253
-0.253151
-0.153451
-0.04765
0.0638067
0.175053
0.268608
0.337544
0.388186
0.424762
0.450499
0.467884
0.478077
0.481929
0.482239
-0.652348
-0.640789
-0.59691
-0.529195
-0.449946
-0.36297
-0.268799
-0.167842
-0.0605197
0.0529408
0.166999
0.264179
0.337012
0.391578
0.431708
0.460032
0.478528
0.48847
0.491674
0.491714
-0.671772
-0.659959
-0.615556
-0.547172
-0.467164
-0.379367
-0.284292
-0.182321
-0.0737611
0.0413466
0.157768
0.25821
0.334809
0.393467
0.437823
0.469785
0.490092
0.499379
0.501098
0.500648
-0.690451
-0.678384
-0.633512
-0.564519
-0.48384
-0.395362
-0.299546
-0.196765
-0.087255
0.0291189
0.147449
0.250669
0.330748
0.393375
0.442416
0.479399
0.503273
0.512295
0.510891
0.508676
-0.708417
-0.696141
-0.650735
-0.58119
-0.499936
-0.41089
-0.314481
-0.211094