/*--------------------------------*- C++ -*----------------------------------*\
| =========                 |                                                 |
| \\      /  F ield         | OpenFOAM: The Open Source CFD Toolbox           |
|  \\    /   O peration     | Version:  4.0                                   |
|   \\  /    A nd           | Web:      www.OpenFOAM.org                      |
|    \\/     M anipulation  |                                                 |
\*---------------------------------------------------------------------------*/
FoamFile
{
    version     2.0;
    format      ascii;
    class       surfaceScalarField;
    location    "18";
    object      phi;
}
// * * * * * * * * * * * * * * * * * * * * * * * * * * * * * * * * * * * * * //

dimensions      [0 3 -1 0 0 0 0];

internalField   nonuniform List<scalar> 
17370
(
-0.0916052
0.0960164
0.2846
-0.0776063
0.0594358
0.364946
-0.0430576
0.0316352
0.427591
-0.0223259
0.0162643
0.505313
-0.0116562
0.00876358
0.602295
-0.00652965
0.00503195
0.720555
-0.00379769
0.00293487
0.863769
-0.0021896
0.00163613
1.036
-0.00112776
0.000724839
1.24291
-0.000326862
-5.68212e-05
1.49157
0.000436744
-0.000836146
1.49159
0.00123527
-0.00173625
1.24319
0.00228139
-0.00301742
1.03637
0.00387314
-0.0051002
0.864134
0.00659115
-0.00881687
0.721283
0.0116996
-0.0162956
0.603811
0.0223466
-0.0316453
0.508738
0.0430573
-0.0594297
0.43254
0.0776025
-0.0960132
0.365186
0.0916135
0.197397
-0.127105
0.0880466
0.039058
-0.36437
0.35405
-0.0714496
0.0817692
-0.446647
0.454275
-0.0791465
0.0715182
-0.520993
0.529133
-0.0636342
0.0554935
-0.612968
0.620754
-0.0480837
0.0402973
-0.727159
0.733658
-0.0336835
0.0271846
-0.867598
0.872409
-0.0220144
0.0172034
-1.03857
1.04186
-0.0135429
0.010252
-1.2447
1.24706
-0.00774405
0.0053858
-1.4928
1.49477
-0.00345997
0.00149136
-1.49264
1.49442
0.000290005
-0.00206744
-1.24408
1.24599
0.00401921
-0.00592066
-1.03761
1.04009
0.00824976
-0.0107293
-0.866215
0.869841
0.0139856
-0.0176121
-0.724622
0.729761
0.0223844
-0.0275228
-0.609063
0.61565
0.0339923
-0.0405794
-0.515118
0.522494
0.0483327
-0.0557086
-0.439871
0.447707
0.063801
-0.0716378
-0.374739
0.377371
0.0792011
-0.0818333
-0.256947
0.224524
0.0714991
-0.0390762
-0.0688478
0.0592624
0.00958536
-0.0519678
0.0587622
-0.374864
0.368069
-0.0579046
0.0540666
-0.453977
0.457815
-0.0485963
0.0440444
-0.527657
0.532209
-0.0394941
0.0355809
-0.620797
0.62471
-0.0313437
0.0273438
-0.734603
0.738603
-0.0230116
0.0191662
-0.873877
0.877722
-0.0151832
0.0117892
-1.04326
1.04666
-0.00835401
0.00541525
-1.24854
1.25148
-0.00232691
-0.00053766
-1.49683
1.49969
0.00339308
-0.00645056
-1.49731
1.50037
0.00934523
-0.0127223
-1.24999
1.25336
0.0160578
-0.0199738
-1.0456
1.04952
0.023757
-0.0280213
-0.877126
0.88139
0.031958
-0.0361274
-0.739021
0.74319
0.0399862
-0.0444867
-0.626066
0.630566
0.0489998
-0.0544321
-0.53512
0.540552
0.0582258
-0.059031
-0.458173
0.458978
0.0521639
-0.0319015
-0.336912
0.31665
0.00962004
-0.0687625
0.0591425
-0.0535032
0.0494306
0.00407257
-0.0329712
0.0432928
-0.35867
0.348349
-0.0469014
0.0462896
-0.459581
0.460192
-0.0433643
0.0401787
-0.536103
0.539289
-0.0365315
0.0332011
-0.628382
0.631712
-0.0295942
0.026384
-0.742008
0.745219
-0.0229588
0.0198181
-0.881227
0.884368
-0.0163329
0.0131052
-1.05005
1.05328
-0.00956402
0.00631372
-1.25465
1.2579
-0.00268605
-0.000800193
-1.50291
1.50639
0.00426492
-0.00783663
-1.50375
1.50732
0.0110228
-0.0144769
-1.25687
1.26033
0.0176178
-0.0210036
-1.05324
1.05662
0.0240532
-0.0273787
-0.885068
0.888393
0.030501
-0.0340208
-0.746933
0.750453
0.0372744
-0.0408415
-0.634684
0.638251
0.04396
-0.0468134
-0.544671
0.547525
0.0473545
-0.043652
-0.457153
0.453451
0.0332178
-0.0161436
-0.297496
0.280422
0.00410919
-0.0533485
0.0492393
-0.0463115
0.0438227
0.00248888
-0.0225614
0.0327058
-0.33791
0.327765
-0.0382908
0.0391513
-0.46002
0.45916
-0.0378123
0.0354172
-0.541973
0.544368
-0.0327245
0.0301899
-0.634618
0.637152
-0.0272984
0.0245857
-0.748188
0.750901
-0.0215344
0.0187125
-0.887309
0.89013
-0.0155688
0.012633
-1.05632
1.05925
-0.00930138
0.00611903
-1.26114
1.26433
-0.00245093
-0.00111067
-1.51
1.51356
0.00465072
-0.0082476
-1.51097
1.51456
0.0113347
-0.0145454
-1.26366
1.26687
0.0173602
-0.0203643
-1.05974
1.06275
0.0230575
-0.0259701
-0.891511
0.894423
0.0285633
-0.0313332
-0.753597
0.756367
0.033764
-0.0363534
-0.64126
0.643849
0.0386631
-0.039893
-0.5495
0.55073
0.0389224
-0.033184
-0.448538
0.4428
0.0228764
-0.0100173
-0.265542
0.252683
0.00253551
-0.0460782
0.0435426
-0.0417837
0.0400809
0.00170275
-0.0161249
0.0250198
-0.318171
0.309276
-0.0313456
0.0333956
-0.457646
0.455596
-0.0330296
0.0314619
-0.546358
0.547926
-0.0293767
0.0273369
-0.63942
0.64146
-0.0249739
0.0226846
-0.753385
0.755675
-0.0200106
0.0174248
-0.892843
0.895428
-0.0144505
0.0116352
-1.06214
1.06495
-0.00843886
0.00540545
-1.26744
1.27047
-0.00192524
-0.00144497
-1.51702
1.52039
0.00478687
-0.00817844
-1.51807
1.52146
0.0110878
-0.0141173
-1.27
1.27303
0.0167654
-0.0195525
-1.06567
1.06845
0.0219717
-0.024477
-0.897131
0.899636
0.0266192
-0.0288337
-0.758829
0.761043
0.0307359
-0.0326853
-0.646113
0.648062
0.034133
-0.0343572
-0.551378
0.551602
0.0321498
-0.0256121
-0.436533
0.429995
0.0165072
-0.00694476
-0.241598
0.232036
0.00175821
-0.0414537
0.0396955
-0.0386518
0.0374596
0.00119218
-0.0115811
0.0188645
-0.301166
0.293883
-0.0250461
0.0276992
-0.453176
0.450523
-0.027867
0.026817
-0.549186
0.550236
-0.025035
0.023322
-0.643285
0.644998
-0.0213596
0.0194474
-0.757791
0.759703
-0.017228
0.0150752
-0.897842
0.899995
-0.0125723
0.0101331
-1.06762
1.07006
-0.00729086
0.0045299
-1.27338
1.27614
-0.00129806
-0.00188716
-1.52367
1.52685
0.0050278
-0.00813728
-1.52471
1.52782
0.0107422
-0.013384
-1.2759
1.27854
0.0156231
-0.0178951
-1.07104
1.07331
0.0198386
-0.0218256
-0.901911
0.903898
0.0235288
-0.0252766
-0.763002
0.76475
0.0268113
-0.0284201
-0.64978
0.651389
0.0292928
-0.0289224
-0.5515
0.55113
0.0260445
-0.0195803
-0.423405
0.416941
0.0120386
-0.00496697
-0.223799
0.216727
0.00125966
-0.0382048
0.0369451
-0.0364654
0.0356337
0.000831695
-0.0081481
0.0138064
-0.287426
0.281767
-0.0193315
0.0221865
-0.447738
0.444883
-0.0227808
0.0221251
-0.551092
0.551748
-0.0205508
0.0190301
-0.646647
0.648168
-0.0173675
0.0158415
-0.761412
0.762938
-0.0140905
0.0123768
-0.901876
0.90359
-0.0103293
0.00828154
-1.07226
1.07431
-0.00582621
0.0033803
-1.27875
1.28119
-0.000467396
-0.0023971
-1.52991
1.53278
0.00520873
-0.00796498
-1.53077
1.53353
0.0102111
-0.0123969
-1.28093
1.28312
0.0141703
-0.0159107
-1.07526
1.077
0.0173398
-0.0187878
-0.905579
0.907027
0.0200497
-0.0214469
-0.766329
0.767726
0.0227547
-0.0241047
-0.652922
0.654272
0.0245383
-0.02368
-0.550523
0.549665
0.0205385
-0.0146639
-0.410736
0.404861
0.00869581
-0.00355051
-0.210675
0.20553
0.000913732
-0.0358767
0.0349629
-0.0349547
0.0344364
0.000518269
-0.00512412
0.00918329
-0.276897
0.272838
-0.0138221
0.0167539
-0.441979
0.439047
-0.0179569
0.0178542
-0.552172
0.552275
-0.0169863
0.0159724
-0.64946
0.650474
-0.0147406
0.013495
-0.7643
0.765545
-0.0119824
0.0104356
-0.905216
0.906763
-0.00854659
0.00665209
-1.07628
1.07818
-0.00437648
0.00213579
-1.28352
1.28576
0.000486011
-0.00301743
-1.53545
1.53798
0.00549131
-0.00793093
-1.53611
1.53855
0.00991593
-0.0118547
-1.28518
1.28712
0.0134202
-0.0149243
-1.07862
1.08013
0.016123
-0.0172773
-0.908301
0.909456
0.0182071
-0.0190815
-0.768884
0.769759
0.019791
-0.0203464
-0.655273
0.655828
0.0201462
-0.0185754
-0.548481
0.546911
0.0152667
-0.0101996
-0.399356
0.394288
0.00577694
-0.00232679
-0.20124
0.197789
0.000619128
-0.0341922
0.0335731
-0.0340875
0.0338981
0.000189434
-0.00238922
0.00483048
-0.269611
0.26717
-0.00820649
0.0108552
-0.436177
0.433528
-0.012502
0.0129747
-0.552028
0.551556
-0.0127377
0.0121165
-0.651263
0.651884
-0.0112152
0.0102337
-0.766686
0.767668
-0.00898597
0.007703
-0.908195
0.909478
-0.00614734
0.00455573
-1.07994
1.08153
-0.00263138
0.000698197
-1.28788
1.28981
0.00159963
-0.00385019
-1.54039
1.54264
0.00601371
-0.00805525
-1.54082
1.54287
0.00965172
-0.0111285
-1.28885
1.29033
0.0122708
-0.0133319
-1.08144
1.0825
0.014145
-0.0148708
-0.910465
0.911191
0.0154218
-0.0159109
-0.770415
0.770904
0.0161588
-0.015981
-0.655953
0.655775
0.0151301
-0.0130344
-0.544985
0.542889
0.00994261
-0.00606794
-0.389772
0.385898
0.00319378
-0.001216
-0.195136
0.193158
0.000314141
-0.033113
0.0327989
-0.0338315
0.0338413
-9.833e-06
-0.000843554
0.00217161
-0.26538
0.264052
-0.00429689
0.00617585
-0.431247
0.429368
-0.00750061
0.0079589
-0.551025
0.550567
-0.0079278
0.00757573
-0.652355
0.652707
-0.00701967
0.00636666
-0.768461
0.769114
-0.00548853
0.00453337
-0.910592
0.911548
-0.00329967
0.00202994
-1.08295
1.08422
-0.000481556
-0.00107847
-1.29154
1.2931
0.00296341
-0.00482456
-1.54469
1.54655
0.00657495
-0.00814532
-1.54465
1.54622
0.00929006
-0.0102873
-1.29156
1.29256
0.0109903
-0.0115539
-1.08328
1.08385
0.0119078
-0.0121608
-0.911631
0.911884
0.0122698
-0.0123098
-0.771173
0.771213
0.0122416
-0.0117864
-0.655427
0.654971
0.0108452
-0.00894775
-0.540841
0.538943
0.00650359
-0.00374378
-0.382647
0.379887
0.0018636
-0.000655488
-0.191666
0.190458
0.000146888
-0.0325937
0.0324468
-0.0338872
0.0339519
-6.47119e-05
-0.000346144
0.00123458
-0.263005
0.262116
-0.00276007
0.00415719
-0.427801
0.426404
-0.00514097
0.00545637
-0.550208
0.549893
-0.00537094
0.00499506
-0.653023
0.653399
-0.00438895
0.00379111
-0.769738
0.770336
-0.00306296
0.00227293
-0.912385
0.913175
-0.00125809
0.000168461
-1.08535
1.08644
0.00121568
-0.00264001
-1.29454
1.29596
0.0043543
-0.00600263
-1.54827
1.54992
0.00752232
-0.00885143
-1.54764
1.54897
0.00978221
-0.0105364
-1.29341
1.29416
0.0110346
-0.0113905
-1.08429
1.08464
0.0115726
-0.0116236
-0.912008
0.912059
0.0115357
-0.011262
-0.771056
0.770783
0.0108952
-0.0102837
-0.654416
0.653805
0.00934173
-0.00761926
-0.537182
0.535459
0.00550682
-0.00318866
-0.377436
0.375118
0.00161374
-0.0005813
-0.189384
0.188352
0.00013156
-0.0323206
0.0321891
-0.0340205
0.0340939
-7.33964e-05
-0.000137312
0.00085545
-0.26131
0.260592
-0.00226142
0.00372163
-0.425028
0.423568
-0.00492408
0.00539694
-0.549574
0.549101
-0.00536331
0.0050499
-0.653841
0.654154
-0.00457653
0.00397609
-0.770943
0.771544
-0.00315959
0.00223083
-0.914002
0.914931
-0.000988452
-0.000350682
-1.08757
1.08891
0.00203752
-0.00374431
-1.29745
1.29916
0.00572498
-0.00757109
-1.55159
1.55343
0.00925677
-0.0107436
-1.55032
1.55181
0.0117658
-0.0125527
-1.29487
1.29566
0.0129808
-0.013164
-1.08487
1.08505
0.0130968
-0.0129205
-0.912025
0.911848
0.0127321
-0.0124697
-0.770498
0.770236
0.0121736
-0.0113944
-0.653164
0.652385
0.0101393
-0.00801014
-0.533635
0.531506
0.00565622
-0.00326291
-0.3728
0.370407
0.00169264
-0.000652181
-0.187324
0.186284
0.00016585
-0.0320468
0.0318809
-0.0341719
0.0342729
-0.000100982
0.000221984
0.000274535
-0.259955
0.259459
-0.00155649
0.00324573
-0.421961
0.420272
-0.00513989
0.00639602
-0.548308
0.547052
-0.00704096
0.00712416
-0.654287
0.654203
-0.00669765
0.0059936
-0.772274
0.772978
-0.00493209
0.00362256
-0.916052
0.917361
-0.00185043
-2.55866e-05
-1.09047
1.09235
0.00232194
-0.00458851
-1.3011
1.30337
0.00720063
-0.00962557
-1.55553
1.55795
0.0118378
-0.0138026
-1.55354
1.55551
0.0152104
-0.0164407
-1.29665
1.29788
0.017273
-0.0178149
-1.08541
1.08595
0.0180321
-0.017943
-0.911703
0.911613
0.017508
-0.0168322
-0.769718
0.769042
0.0158246
-0.0139997
-0.65119
0.649365
0.0116688
-0.00856981
-0.528922
0.525823
0.0057657
-0.00327747
-0.367941
0.365453
0.00174571
-0.000722375
-0.185251
0.184228
0.000205313
-0.0317024
0.0314971
-0.0343943
0.0345469
-0.000152602
0.000715919
-0.000652992
-0.259165
0.259102
-0.00017522
0.00167216
-0.418635
0.417138
-0.00383601
0.00572002
-0.545474
0.54359
-0.00714452
0.00748066
-0.653962
0.653626
-0.00726787
0.00671987
-0.773709
0.774257
-0.00548501
0.00385468
-0.918848
0.920479
-0.00162773
-0.000694472
-1.09441
1.09673
0.00348761
-0.00620673
-1.30584
1.30856
0.00932132
-0.0122168
-1.56063
1.56352
0.0148397
-0.017141
-1.55773
1.56003
0.0188066
-0.0202191
-1.29922
1.30063
0.0211222
-0.0217529
-1.0866
1.08723
0.0219222
-0.0216681
-0.911361
0.911107
0.0211353
-0.0198917
-0.768122
0.766878
0.017914
-0.0149875
-0.64697
0.644044
0.0117802
-0.00817404
-0.522412
0.518806
0.0053577
-0.00308715
-0.363059
0.360789
0.00171784
-0.000756386
-0.183255
0.182294
0.00022945
-0.0312955
0.031066
-0.0347345
0.0349553
-0.000220799
0.00131699
-0.00169848
-0.259234
0.259615
0.00160493
-0.000769391
-0.415994
0.415158
-0.000889843
0.00260745
-0.541789
0.540072
-0.00417202
0.00505984
-0.652888
0.652001
-0.00507926
0.00437859
-0.774966
0.775667
-0.00295309
0.00117885
-0.922173
0.923947
0.00118458
-0.00362221
-1.09907
1.1015
0.00653191
-0.00933798
-1.3113
1.3141
0.0125164
-0.0154077
-1.56644
1.56933
0.0179578
-0.0200885
-1.56236
1.56449
0.0215084
-0.0226334
-1.30199
1.30311
0.0232497
-0.0234491
-1.08764
1.08784
0.0233082
-0.0228487
-0.910622
0.910162
0.0217744
-0.0197696
-0.765163
0.763158
0.0172278
-0.0139328
-0.640894
0.637599
0.0106898
-0.00737011
-0.515352
0.512032
0.00494327
-0.00301
-0.358745
0.356812
0.00177483
-0.000820179
-0.181382
0.180428
0.000256649
-0.0308517
0.0305951
-0.0352356
0.0355384
-0.000302872
0.00189795
-0.00274732
-0.260226
0.261076
0.00334188
-0.00338392
-0.4149
0.414942
0.00273498
-0.00185318
-0.53893
0.538048
0.000984123
-0.000557196
-0.651337
0.65091
0.000683563
-0.0013814
-0.776319
0.777017
0.00270077
-0.00433337
-0.925483
0.927115
0.00651225
-0.008775
-1.10371
1.10597
0.0114708
-0.0140377
-1.31672
1.31928
0.0168638
-0.0193285
-1.572
1.57446
0.0213607
-0.0228931
-1.5664
1.56794
0.0237111
-0.0241076
-1.30398
1.30438
0.0240857
-0.023767
-1.08769
1.08737
0.023125
-0.0218424
-0.909141
0.907859
0.020198
-0.0179307
-0.760887
0.75862
0.0154494
-0.0124549
-0.634465
0.631471
0.00970647
-0.00698482
-0.50915
0.506428
0.00496579
-0.00323167
-0.35512
0.353386
0.0019936
-0.000944306
-0.179497
0.178448
0.000297054
-0.0303553
0.0300582
-0.0359189
0.0363199
-0.000400918
0.00252747
-0.00375808
-0.262176
0.263406
0.00495405
-0.00570922
-0.415425
0.41618
0.00606238
-0.00613176
-0.537849
0.537919
0.00617782
-0.0064063
-0.65092
0.651148
0.00701834
-0.00797677
-0.777735
0.778694
0.00945468
-0.0111157
-0.92851
0.930171
0.0132105
-0.0153044
-1.10795
1.11005
0.0177265
-0.0199569
-1.32157
1.3238
0.0222821
-0.0241439
-1.57657
1.57843
0.0254813
-0.0262284
-1.56909
1.56984
0.0263182
-0.0258839
-1.30443
1.304
0.0252054
-0.024081
-1.08649
1.08537
0.0227091
-0.0209199
-0.906123
0.904334
0.0190613
-0.0167927
-0.756251
0.753982
0.014533
-0.0119574
-0.628766
0.62619
0.00965979
-0.00735007
-0.504137
0.501827
0.00551746
-0.00376575
-0.351831
0.350079
0.00238412
-0.00114151
-0.177389
0.176146
0.000359026
-0.0297701
0.0294111
-0.0368027
0.0373275
-0.000524862
0.00328803
-0.00494665
-0.264936
0.266595
0.00669802
-0.00807244
-0.417339
0.418714
0.00918787
-0.00999364
-0.538615
0.539421
0.0108494
-0.0118184
-0.651876
0.652845
0.0131547
-0.014635
-0.779753
0.781233
0.0165101
-0.0183915
-0.93166
0.933542
0.0205961
-0.0226831
-1.11193
1.11402
0.0249736
-0.0269543
-1.32576
1.32774
0.0288374
-0.0301152
-1.57991
1.58119
0.0307336
-0.0306373
-1.57015
1.57006
0.0299949
-0.0288442
-1.30322
1.30206
0.0274687
-0.025674
-1.08376
1.08196
0.02383
-0.0216826
-0.902214
0.900066
0.0196384
-0.0173389
-0.751573
0.749273
0.0151946
-0.0128345
-0.623818
0.621458
0.0107216
-0.00849537
-0.499829
0.497603
0.00657475
-0.00458982
-0.348415
0.346431
0.0029442
-0.00141663
-0.174867
0.17334
0.000445504
-0.0290595
0.028614
-0.0379346
0.038628
-0.000693367
0.00430965
-0.0065076
-0.268565
0.270763
0.00890051
-0.0108772
-0.420502
0.422478
0.0126772
-0.014136
-0.540892
0.542351
0.0157312
-0.0173844
-0.654275
0.655928
0.0194477
-0.0215269
-0.782791
0.784871
0.0239543
-0.0262437
-0.935366
0.937655
0.0287812
-0.0310546
-1.11599
1.11827
0.0333977
-0.0352678
-1.32951
1.33138
0.0368333
-0.0376202
-1.58211
1.5829
0.0376046
-0.0367623
-1.56952
1.56868
0.0354277
-0.0335329
-1.30051
1.29862
0.0315123
-0.0291068
-1.0798
1.07739
0.0268231
-0.0242969
-0.897578
0.895051
0.022008
-0.0195465
-0.746731
0.744269
0.0173277
-0.0149146
-0.619148
0.616735
0.0127081
-0.0102719
-0.495595
0.493159
0.00806084
-0.00568242
-0.344497
0.342119
0.00365847
-0.00176113
-0.171761
0.169864
0.000553677
-0.0281797
0.0276261
-0.0394112
0.040333
-0.000921809
0.00567976
-0.00856391
-0.273277
0.276161
0.011707
-0.0143166
-0.424886
0.427496
0.0167696
-0.0188435
-0.544565
0.546638
0.021172
-0.02354
-0.65807
0.660438
0.0264024
-0.0291818
-0.787038
0.789817
0.0323193
-0.0351839
-0.939949
0.942814
0.0382458
-0.0408693
-1.12049
1.12311
0.0434204
-0.0452978
-1.33309
1.33497
0.0466489
-0.0470149
-1.58337
1.58374
0.0464069
-0.0448424
-1.56743
1.56586
0.0428245
-0.0401786
-1.29631
1.29366
0.037517
-0.0344735
-1.07459
1.07155
0.0316745
-0.0286629
-0.892108
0.889096
0.0260038
-0.0232089
-0.741422
0.738628
0.0207296
-0.0180412
-0.614219
0.611531
0.0155372
-0.0126816
-0.490901
0.488045
0.0100148
-0.00707386
-0.339779
0.336838
0.00455157
-0.00218639
-0.167914
0.165549
0.000685908
-0.0270959
0.02641
-0.0413537
0.0426155
-0.00126183
0.00762858
-0.0114354
-0.279389
0.283195
0.0155322
-0.0189016
-0.430678
0.434047
0.0220958
-0.0248517
-0.549666
0.552422
0.027998
-0.0311766
-0.663338
0.666517
0.0349545
-0.0385504
-0.792676
0.796271
0.0425279
-0.046078
-0.945681
0.949231
0.049765
-0.0528136
-1.12569
1.12874
0.0556437
-0.0575782
-1.3367
1.33863
0.0587438
-0.0586868
-1.58378
1.58373
0.0574573
-0.0551117
-1.56386
1.56151
0.0523484
-0.0488869
-1.29058
1.28712
0.0455102
-0.0417272
-1.06806
1.06427
0.0383025
-0.0346676
-0.885564
0.881929
0.0314967
-0.028199
-0.73529
0.731992
0.025295
-0.0221492
-0.608585
0.605439
0.0191875
-0.0157511
-0.485338
0.481901
0.0124561
-0.00880508
-0.333963
0.330312
0.00566007
-0.00271492
-0.163146
0.160201
0.000848905
-0.0257663
0.0249174
-0.0439567
0.0457354
-0.00177871
0.0105211
-0.0156249
-0.287349
0.292453
0.0209745
-0.0252755
-0.438239
0.44254
0.0293365
-0.0328884
-0.556435
0.559987
0.0370234
-0.0411875
-0.670303
0.674468
0.046068
-0.0506253
-0.799949
0.804506
0.0555678
-0.0598856
-0.952799
0.957116
0.0642573
-0.0677561
-1.13175
1.13525
0.0708528
-0.0727955
-1.34039
1.34233
0.0736838
-0.0730944
-1.58328
1.58269
0.0711268
-0.067876
-1.55866
1.55541
0.064254
-0.0598529
-1.28315
1.27875
0.0556406
-0.0509771
-1.05996
1.0553
0.0467912
-0.0423774
-0.877658
0.873244
0.0385492
-0.0345896
-0.727984
0.724025
0.0311172
-0.0273597
-0.601866
0.598108
0.0237977
-0.0196216
-0.478539
0.474363
0.0155391
-0.0109483
-0.326777
0.322186
0.00700705
-0.00332816
-0.157257
0.153578
0.00102851
-0.0241385
0.02311
-0.0475603
0.050152
-0.00259169
0.0149177
-0.0218186
-0.29789
0.304791
0.0287802
-0.0342429
-0.44816
0.453622
0.0394048
-0.0440252
-0.565274
0.569895
0.049492
-0.0549059
-0.679322
0.684736
0.0611051
-0.0667557
-0.809133
0.814784
0.072741
-0.0778428
-0.961418
0.966519
0.0828576
-0.0867133
-1.13864
1.1425
0.0899168
-0.0916831
-1.34399
1.34575
0.0920638
-0.0907199
-1.5816
1.58025
0.0878057
-0.0834532
-1.55154
1.54719
0.0788157
-0.0733176
-1.27377
1.26827
0.0681318
-0.0624394
-1.05003
1.04434
0.0573554
-0.0520089
-0.868081
0.862734
0.0473824
-0.0426098
-0.719177
0.714404
0.038436
-0.0339168
-0.593716
0.589197
0.0295934
-0.0244736
-0.470146
0.465026
0.0194015
-0.0136341
-0.317794
0.312027
0.00865595
-0.00406932
-0.149981
0.145394
0.00124137
-0.022167
0.0209257
-0.0527412
0.0567876
-0.00404641
0.0221716
-0.0316802
-0.31217
0.321679
0.0408294
-0.0478446
-0.461307
0.468323
0.0544416
-0.0604807
-0.576854
0.582893
0.0676503
-0.0745569
-0.690832
0.697739
0.0821825
-0.0889029
-0.820432
0.827152
0.0957979
-0.101477
-0.97148
0.977159
0.106835
-0.110736
-1.14605
1.14995
0.113681
-0.114928
-1.34704
1.34829
0.114428
-0.111998
-1.57822
1.57579
0.107847
-0.102142
-1.54208
1.53637
0.0963048
-0.0895417
-1.26209
1.25533
0.0832513
-0.0764011
-1.03796
1.03111
0.0703078
-0.0639049
-0.856538
0.850135
0.0583632
-0.0526455
-0.708557
0.702839
0.0476498
-0.0422271
-0.58378
0.578357
0.0369683
-0.0306672
-0.45971
0.453409
0.0243373
-0.0170836
-0.30653
0.299276
0.010791
-0.00501656
-0.140987
0.135213
0.00150392
-0.0197971
0.0182932
-0.0606125
0.0678226
-0.00721014
0.0357179
-0.0494517
-0.332463
0.346197
0.061643
-0.0704791
-0.478875
0.487711
0.0787249
-0.0864147
-0.591932
0.599622
0.0954012
-0.103631
-0.705093
0.713322
0.112299
-0.11962
-0.833657
0.840978
0.126831
-0.132499
-0.982425
0.988094
0.137544
-0.140877
-1.15323
1.15657
0.142934
-0.143103
-1.34874
1.34891
0.141182
-0.137215
-1.57241
1.56844
0.13147
-0.124142
-1.52974
1.52241
0.116915
-0.108742
-1.24778
1.23961
0.101242
-0.0931485
-1.02351
1.01542
0.0859822
-0.0784701
-0.842813
0.835301
0.0719649
-0.0652351
-0.695884
0.689154
0.0593368
-0.052908
-0.571717
0.565288
0.0465783
-0.038758
-0.446635
0.438815
0.0308063
-0.021651
-0.292254
0.283099
0.0136317
-0.00626735
-0.129845
0.122481
0.00180205
-0.0169677
0.0151657
-0.0747413
0.0782971
-0.0035558
0.0254405
-0.0372754
-0.362862
0.374697
0.0479289
-0.0562543
-0.501642
0.509967
0.0651645
-0.0747089
-0.610249
0.619794
0.0853393
-0.0948827
-0.721243
0.730786
0.105505
-0.114888
-0.847544
0.856927
0.124619
-0.132954
-0.992836
1.00117
0.14123
-0.147841
-1.1588
1.16541
0.153698
-0.157487
-1.34786
1.35165
0.159421
-0.158641
-1.56322
1.56244
0.15502
-0.148971
-1.51396
1.50791
0.141912
-0.132996
-1.23056
1.22164
0.124321
-0.113967
-1.00654
0.996182
0.104544
-0.0942785
-0.826839
0.816574
0.0851929
-0.0756139
-0.681086
0.671507
0.0668547
-0.0575239
-0.557232
0.547901
0.048617
-0.0374984
-0.430237
0.419118
0.0272213
-0.0168506
-0.273885
0.263514
0.00910729
-0.00337533
-0.115796
0.110064
0.000678321
-0.0136971
0.0130188
-0.0854224
0.0826684
0.00275399
0.00301518
-0.00998685
-0.389414
0.396386
0.0181017
-0.0247242
-0.523104
0.529726
0.0332109
-0.0416403
-0.630062
0.638492
0.0512986
-0.0600994
-0.740221
0.749022
0.069467
-0.0779605
-0.86583
0.874324
0.0867817
-0.0940553
-1.00924
1.01651
0.101479
-0.107082
-1.17187
1.17747
0.111996
-0.114877
-1.35516
1.35804
0.115682
-0.114068
-1.56083
1.55921
0.109741
-0.103122
-1.50104
1.49442
0.0954974
-0.0861593
-1.2122
1.20286
0.07721
-0.0670154
-0.985454
0.975259
0.0575181
-0.0470493
-0.805222
0.794753
0.037781
-0.0283887
-0.659476
0.650083
0.0204396
-0.0123199
-0.535553
0.527434
0.00545232
0.000780083
-0.407235
0.401002
-0.00426637
0.00573452
-0.252056
0.250587
-0.00528497
0.00335588
-0.103401
0.10533
-0.00137751
-0.0116398
0.0130173
-0.0852982
0.0820512
0.00324701
-0.00523066
0.00194115
-0.406498
0.409788
0.00324587
-0.00857596
-0.540404
0.545734
0.015606
-0.0228503
-0.647362
0.654606
0.0310905
-0.0386538
-0.757312
0.764875
0.0469303
-0.054285
-0.882166
0.88952
0.0617233
-0.0682344
-1.02364
1.03015
0.0747159
-0.0797254
-1.18273
1.18774
0.0837291
-0.0858862
-1.36038
1.36253
0.0863667
-0.0844591
-1.55703
1.55512
0.0800846
-0.0736934
-1.48737
1.48098
0.0665572
-0.0581232
-1.19363
1.18519
0.049777
-0.040601
-0.964968
0.955792
0.0321187
-0.0228537
-0.784527
0.775262
0.0148817
-0.00674441
-0.639553
0.631416
7.55044e-05
0.00648209
-0.516897
0.510339
-0.0112886
0.0147076
-0.392674
0.389255
-0.0151127
0.0127394
-0.245482
0.247855
-0.00925069
0.00497985
-0.105303
0.109574
-0.0017446
-0.0132236
0.0149682
-0.0832378
0.0801241
0.00311373
-0.00801552
0.00686568
-0.417159
0.418309
-0.00366021
-0.000433865
-0.554018
0.558112
0.00654071
-0.0126003
-0.661739
0.667798
0.0196455
-0.0261281
-0.772169
0.778652
0.0331824
-0.0394873
-0.896462
0.902767
0.0462641
-0.0518417
-1.0363
1.04187
0.0576208
-0.061704
-1.19245
1.19653
0.0652995
-0.0672388
-1.36464
1.36658
0.0675292
-0.0655076
-1.55303
1.55101
0.061649
-0.0560678
-1.47436
1.46878
0.049842
-0.0422487
-1.17691
1.16932
0.0351491
-0.0274525
-0.946776
0.939079
0.0202815
-0.0128193
-0.766423
0.758961
0.00609748
0.000498218
-0.622575
0.615979
-0.00579959
0.0104823
-0.502107
0.497425
-0.0134884
0.0152885
-0.383109
0.381309
-0.0147833
0.0115722
-0.245513
0.248724
-0.00816361
0.00423401
-0.110873
0.114802
-0.00144447
-0.0154809
0.0169254
-0.0811518
0.07855
0.00260182
-0.00837172
0.00850602
-0.424058
0.423923
-0.00601504
0.00276565
-0.565119
0.568368
0.00212446
-0.00750455
-0.673912
0.679292
0.0134304
-0.0191455
-0.78474
0.790456
0.0252697
-0.0307759
-0.908759
0.914266
0.0366436
-0.0416869
-1.04739
1.05243
0.0466971
-0.0506128
-1.20057
1.20448
0.0539014
-0.0557225
-1.36833
1.37015
0.0560858
-0.0543682
-1.54909
1.54737
0.0510519
-0.046076
-1.46289
1.45791
0.0407373
-0.0344008
-1.16211
1.15577
0.0284245
-0.0218681
-0.931552
0.924996
0.0160209
-0.00988604
-0.751659
0.745525
0.0046163
0.00058228
-0.609136
0.603937
-0.00456274
0.00788822
-0.491064
0.487739
-0.00994075
0.0108954
-0.377033
0.376079
-0.0100284
0.00758353
-0.246923
0.249368
-0.0051837
0.00259813
-0.115362
0.117948
-0.000924771
-0.0171285
0.0180533
-0.0794511
0.0772809
0.00217023
-0.00775576
0.00812705
-0.428601
0.42823
-0.00670775
0.00392062
-0.573831
0.576618
0.000666801
-0.00526653
-0.684297
0.688896
0.0104131
-0.0154167
-0.79564
0.800644
0.0209024
-0.025879
-0.919555
0.924531
0.0313312
-0.0358476
-1.0573
1.06181
0.0404846
-0.0441535
-1.20822
1.21188
0.0472426
-0.0490209
-1.37184
1.37362
0.0494994
-0.0484347
-1.54578
1.54472
0.0455746
-0.0414212
-1.4528
1.44865
0.0367842
-0.0312901
-1.14958
1.14409
0.0263542
-0.0206519
-0.918667
0.912964
0.0156748
-0.0106543
-0.73961
0.734589
0.00631161
-0.00204381
-0.598673
0.594405
-0.00124695
0.00411956
-0.482854
0.479981
-0.00558044
0.00635787
-0.372604
0.371827
-0.00609537
0.00454893
-0.247175
0.248722
-0.00302762
0.00158529
-0.117488
0.11893
-0.000607927
-0.0178561
0.018464
-0.0782346
0.0765623
0.00167231
-0.00654555
0.00706882
-0.431904
0.43138
-0.00580426
0.00362621
-0.581577
0.583755
0.000541464
-0.00470671
-0.693381
0.697546
0.00961427
-0.0139781
-0.805468
0.809832
0.0188645
-0.0233458
-0.929587
0.934068
0.0285984
-0.0327968
-1.06645
1.07065
0.0370478
-0.0406542
-1.21547
1.21908
0.0440515
-0.0458666
-1.37551
1.37733
0.0466589
-0.0458569
-1.54343
1.54263
0.0437425
-0.0399308
-1.44445
1.44064
0.0360184
-0.0313227
-1.13864
1.13395
0.0268744
-0.022024
-0.907513
0.902662
0.0176019
-0.0130072
-0.729465
0.72487
0.00939793
-0.00554231
-0.58987
0.586014
0.00247846
4.41754e-05
-0.475899
0.473376
-0.00160615
0.00266495
-0.368718
0.367659
-0.00279068
0.00220551
-0.246304
0.24689
-0.00154002
0.00087712
-0.117684
0.118347
-0.000398066
-0.0180039
0.018402
-0.0775858
0.0762709
0.00131488
-0.00529169
0.00586348
-0.434517
0.433945
-0.0046257
0.00246997
-0.58835
0.590506
0.00136326
-0.00510379
-0.70161
0.70535
0.00936293
-0.0136053
-0.814308
0.818551
0.0181745
-0.0228333
-0.93846
0.943119
0.0274434
-0.0315301
-1.07501
1.0791
0.0359932
-0.039465
-1.22266
1.22613
0.0425341
-0.0448896
-1.37916
1.38151
0.0460416
-0.0457074
-1.54199
1.54165
0.0439302
-0.0408139
-1.43707
1.43396
0.0373179
-0.0330514
-1.12899
1.12472
0.0290718
-0.0246215
-0.897739
0.893289
0.0205692
-0.0164664
-0.720348
0.716245
0.0128172
-0.00925542
-0.58187
0.578308
0.00642834
-0.00375303
-0.46974
0.467065
0.00192075
-0.000782364
-0.364453
0.363315
7.18358e-05
0.000282274
-0.244151
0.243797
-0.000407703
0.00037652
-0.116523
0.116555
-0.000259838
-0.0177677
0.0180275
-0.0774831
0.0763777
0.00110536
-0.00392744
0.00428313
-0.436949
0.436594
-0.00323516
0.00102813
-0.594558
0.596765
0.00250267
-0.00613098
-0.70929
0.712918
0.0102474
-0.0141355
-0.822728
0.826616
0.0188521
-0.0227869
-0.947305
0.951239
0.0274069
-0.0313665
-1.0834
1.08736
0.0357821
-0.0395133
-1.22966
1.23339
0.0429545
-0.0452026
-1.38373
1.38597
0.046794
-0.0469371
-1.54132
1.54146
0.0458383
-0.0430384
-1.43075
1.42795
0.0399227
-0.0359583
-1.12049
1.11652
0.0322601
-0.0279976
-0.888533
0.884271
0.0242192
-0.0201334
-0.711869
0.707783
0.0165646
-0.0129569
-0.574402
0.570795
0.00996738
-0.00736446
-0.463491
0.460889
0.00524232
-0.00368149
-0.35975
0.358189
0.00242935
-0.00137983
-0.240821
0.239772
0.000605129
7.59392e-06
-0.114285
0.113672
-0.000159976
-0.017207
0.0173669
-0.0776452
0.0768619
0.000783228
-0.00274289
0.00268602
-0.439578
0.439635
-0.00179637
-0.000502343
-0.600009
0.602307
0.0037316
-0.00723253
-0.716491
0.719992
0.0111846
-0.0152077
-0.830483
0.834506
0.019358
-0.0234682
-0.955439
0.959549
0.0280824
-0.0318763
-1.09179
1.09559
0.0364238
-0.0401601
-1.237
1.24073
0.0437229
-0.0465545
-1.38868
1.39152
0.0487097
-0.0492008
-1.54171
1.5422
0.0483816
-0.0462556
-1.42533
1.42321
0.0435824
-0.0398013
-1.11238
1.1086
0.0361298
-0.0321223
-0.879739
0.875731
0.0280476
-0.0241061
-0.703346
0.699404
0.0205096
-0.0167425
-0.567053
0.563286
0.0137544
-0.0107946
-0.45709
0.454131
0.00844434
-0.00625173
-0.354617
0.352424
0.0046301
-0.00296741
-0.23644
0.234778
0.00150962
-0.00037824
-0.111181
0.11005
-5.33868e-05
-0.0164003
0.0164537
-0.0781995
0.0775619
0.00063764
-0.00178607
0.00177871
-0.442432
0.442439
-0.000399036
-0.00183125
-0.605462
0.607693
0.00514525
-0.00850139
-0.723211
0.726567
0.0123059
-0.0159561
-0.838299
0.841949
0.0202381
-0.0240596
-0.963718
0.967539
0.0286428
-0.0328764
-1.09987
1.1041
0.0371079
-0.041201
-1.24457
1.24866
0.045225
-0.0482034
-1.39432
1.3973
0.0507864
-0.0520958
-1.54295
1.54426
0.0517474
-0.0502211
-1.42096
1.41943
0.0476946
-0.0442251
-1.10479
1.10132
0.0407468
-0.0366244
-0.871173
0.867051
0.0326494
-0.0285451
-0.694833
0.690729
0.0248402
-0.0208501
-0.559211
0.555221
0.0175524
-0.0143655
-0.450334
0.447147
0.011504
-0.0088447
-0.348577
0.345917
0.00667526
-0.00443405
-0.231011
0.22877
0.00250948
-0.000876844
-0.107327
0.105694
0.000114418
-0.0154375
0.015323
-0.0789934
0.078512
0.00048134
-0.000776903
0.000573776
-0.445419
0.445622
0.000765372
-0.0031845
-0.610618
0.613037
0.00636741
-0.00955664
-0.729676
0.732865
0.0134359
-0.0169426
-0.845643
0.84915
0.0210817
-0.0250277
-0.971868
0.975814
0.029525
-0.0337371
-1.10823
1.11244
0.0382026
-0.0423475
-1.25273
1.25687
0.0465906
-0.0503388
-1.40061
1.40436
0.0534116
-0.0550614
-1.54556
1.54721
0.0554205
-0.0542075
-1.41778
1.41657
0.0521782
-0.0491221
-1.0977
1.09465
0.0455701
-0.041448
-0.862539
0.858417
0.0374141
-0.0330308
-0.686118