# vtk DataFile Version 4.0
Generated by LIGGGHTS
ASCII
DATASET POLYDATA
POINTS 588 float
-0.479285 0.0417885 -0.332992 -0.422461 -0.0164684 -0.306014 -0.437344 0.0451357 -0.302248 
-0.401885 -0.0033433 -0.288661 -0.369569 -0.00986148 -0.266487 -0.363507 0.00565163 -0.264122 
-0.360772 -0.0162347 -0.259472 -0.36288 -0.0118222 -0.26122 -0.35952 -0.00919022 -0.259614 
-0.36094 -0.00617996 -0.26184 -0.342388 0.000739204 -0.251531 -0.344831 0.00985486 -0.251334 
-0.330363 0.00695984 -0.244117 -0.33575 0.0160932 -0.246758 -0.373268 0.0553294 -0.245978 
-0.332788 -0.0262076 -0.243055 -0.324628 0.00665344 -0.24263 -0.325356 0.0138756 -0.242357 
-0.324936 0.0187314 -0.240116 -0.309494 -0.0117934 -0.235832 -0.327458 0.0335511 -0.238189 
-0.330247 -0.0409385 -0.234856 -0.298967 -0.00288239 -0.232099 -0.309701 0.00813252 -0.235141 
-0.294944 7.12161e-05 -0.22942 -0.291406 0.0068503 -0.22859 -0.298736 0.0117735 -0.231369 
-0.300445 -0.0318905 -0.226713 -0.293844 -0.00988949 -0.228456 -0.288396 -0.0107841 -0.226066 
-0.282926 -0.00711298 -0.225112 -0.314562 -0.0495523 -0.225514 -0.283692 -0.0109373 -0.223819 
-0.277863 -0.0069988 -0.223056 -0.281071 -0.00362881 -0.223339 -0.280568 0.000443531 -0.224426 
-0.278604 0.00777024 -0.22208 -0.278081 -0.0250023 -0.219519 -0.270246 -0.00130568 -0.220044 
-0.269378 0.00352996 -0.219534 -0.266599 -0.0108244 -0.217995 -0.262713 -0.00803891 -0.216606 
-0.264355 -0.000627231 -0.216508 -0.265277 0.00481761 -0.217739 -0.261118 0.00652193 -0.214816 
-0.273104 0.0301897 -0.216273 -0.345959 -0.0671659 -0.216631 -0.255989 -0.0218577 -0.211923 
-0.258866 -0.014946 -0.214269 -0.253921 -0.0152806 -0.212137 -0.25379 -0.00213862 -0.213092 
-0.256671 0.00660629 -0.214021 -0.258088 0.0104812 -0.212823 -0.256978 -0.0279677 -0.210945 
-0.244184 -0.00627016 -0.208855 -0.24578 -8.62684e-05 -0.208614 -0.239304 0.00326431 -0.206824 
-0.242408 0.00894339 -0.206853 -0.245 0.0133286 -0.207524 -0.255531 0.0188243 -0.211127 
-0.241112 -0.0045135 -0.206566 -0.230552 0.00264383 -0.203165 -0.232358 0.00816312 -0.203757 
-0.237327 0.0108708 -0.204628 -0.235166 0.0157519 -0.204141 -0.297418 0.0638957 -0.208772 
-0.227212 -0.0122085 -0.200077 -0.223256 -0.00897159 -0.199763 -0.250082 0.0472347 -0.201762 
-0.2295 -0.0275375 -0.199702 -0.225157 -0.0242123 -0.197485 -0.219956 -0.0190816 -0.197446 
-0.216287 -0.0171501 -0.196081 -0.220666 -0.0134712 -0.198254 -0.220383 -0.0102083 -0.198434 
-0.216396 -0.00867947 -0.195838 -0.219658 -0.00527664 -0.1975 -0.22137 0.0103573 -0.198999 
-0.218031 0.00962471 -0.196571 -0.22775 -0.0405571 -0.195289 -0.220148 -0.0347447 -0.194183 
-0.216673 -0.0294178 -0.193924 -0.218358 -0.0222882 -0.194849 -0.209395 -0.0127902 -0.19358 
-0.211703 -0.00921136 -0.194928 -0.214063 -0.00256748 -0.195167 -0.212926 0.0019356 -0.195714 
-0.207184 0.0033824 -0.193288 -0.21374 0.00601597 -0.196016 -0.212262 0.0164451 -0.194429 
-0.218396 0.0242712 -0.194769 -0.213984 0.0243603 -0.193999 -0.212085 0.0217033 -0.193752 
-0.240513 0.0488747 -0.196164 -0.211969 -0.0391064 -0.189462 -0.207587 -0.0258205 -0.190944 
-0.205856 -0.00992885 -0.192386 -0.202089 -0.00893292 -0.189832 -0.202289 -0.00455853 -0.191251 
-0.232938 0.00112278 -0.191831 -0.198564 0.00181357 -0.189665 -0.200342 0.00642737 -0.190423 
-0.199837 0.0111706 -0.189757 -0.201053 0.0183953 -0.189521 -0.217182 0.036816 -0.192378 
-0.203145 -0.0270719 -0.188841 -0.20377 -0.0229684 -0.188948 -0.199007 -0.0245681 -0.18664 
-0.194385 -0.00814525 -0.186739 -0.195622 -0.00447437 -0.188392 -0.198903 0.0257757 -0.187352 
-0.189616 -0.029425 -0.18274 -0.191799 -0.0154812 -0.184797 -0.201795 -0.0135795 -0.185223 
-0.182396 -0.0127139 -0.18233 -0.193328 0.00226527 -0.185528 -0.185621 0.00687226 -0.184127 
-0.200478 -0.0514231 -0.180284 -0.185633 -0.0217416 -0.181507 -0.178306 -0.0150102 -0.180374 
-0.177448 -0.0112181 -0.179389 -0.184526 -0.0104508 -0.180801 -0.17669 -0.00693061 -0.180326 
-0.17797 -0.00172605 -0.180958 -0.171161 0.00497938 -0.178158 -0.180964 0.00739919 -0.18103 
-0.17605 0.0102016 -0.179791 -0.173875 0.012201 -0.178392 -0.179969 0.0202623 -0.180535 
-0.177823 0.0174384 -0.178709 -0.183263 0.0228511 -0.180294 -0.177533 0.0223423 -0.179098 
-0.18241 0.0268435 -0.180229 -0.178417 0.0262667 -0.178667 -0.191747 -0.0482866 -0.178032 
-0.18339 -0.0387233 -0.177875 -0.178314 -0.0274666 -0.177385 -0.174215 -0.022083 -0.177774 
-0.173288 -0.0144562 -0.177337 -0.171944 -0.00860031 -0.177257 -0.16719 -0.00911889 -0.176272 
-0.169822 -0.00404576 -0.177541 -0.166905 -0.00501571 -0.174945 -0.171839 -0.000593048 -0.177339 
-0.168562 0.0115885 -0.17652 -0.170995 0.0163481 -0.17606 -0.179756 0.0235516 -0.176839 
-0.175068 0.0217599 -0.17602 -0.246068 0.0780535 -0.178278 -0.161746 -0.0141527 -0.172511 
-0.160368 -0.00786658 -0.173494 -0.159968 0.00100558 -0.173381 -0.161695 0.0122046 -0.172542 
-0.161095 0.0201106 -0.172612 -0.168935 0.0259204 -0.174793 -0.171071 0.0349976 -0.173905 
-0.162984 -0.031358 -0.171302 -0.164859 -0.0153542 -0.1686 -0.151114 -0.0130305 -0.169252 
-0.15261 0.00515964 -0.170199 -0.153804 0.00943236 -0.170599 -0.167663 0.0142198 -0.172192 
-0.155662 0.0135324 -0.169917 -0.172395 0.028383 -0.173354 -0.163601 0.0319054 -0.17031 
-0.186375 0.0569378 -0.171016 -0.149359 -0.0186926 -0.167875 -0.144784 -0.0206611 -0.165729 
-0.148341 -0.0148486 -0.166793 -0.144331 -0.0116466 -0.166494 -0.148692 -0.00848376 -0.167405 
-0.143379 -0.00786793 -0.166217 -0.146551 0.000253328 -0.166689 -0.144022 -0.000399378 -0.163379 
-0.144805 0.00541617 -0.165823 -0.144733 0.0125688 -0.165445 -0.149258 0.0156763 -0.16694 
-0.160692 0.0432704 -0.165926 -0.141352 -0.0304894 -0.162582 -0.1435 -0.023215 -0.164757 
-0.139034 -0.0202164 -0.162257 -0.139711 -0.016688 -0.164031 -0.140881 -0.0139646 -0.164668 
-0.137245 -0.0108627 -0.162472 -0.130768 -0.00388101 -0.161134 -0.135099 0.00902968 -0.162709 
-0.135572 0.0122579 -0.162736 -0.139872 0.0153461 -0.163145 -0.135936 0.0152217 -0.16255 
-0.141817 0.0343092 -0.161808 -0.148205 0.0416436 -0.16247 -0.129784 -0.0100341 -0.157886 
-0.134571 -0.00686614 -0.1611 -0.123501 -0.00857333 -0.157872 -0.122717 -0.00394403 -0.157765 
-0.13072 0.000199919 -0.16012 -0.123437 0.00055704 -0.157007 -0.12635 0.00491539 -0.159188 
-0.127294 0.00812961 -0.159366 -0.127831 0.0112813 -0.159442 -0.125099 0.011806 -0.158228 
-0.124962 0.0156382 -0.157977 -0.131047 0.0295342 -0.158484 -0.137166 0.0326044 -0.160255 
-0.137879 0.0402374 -0.158844 -0.137634 -0.0530193 -0.154542 -0.125968 -0.0403465 -0.153826 
-0.116075 -0.0238425 -0.15317 -0.125017 -0.0184873 -0.156583 -0.118236 -0.0119834 -0.15542 
-0.134961 0.00198243 -0.154532 -0.117795 -0.00155421 -0.155676 -0.119662 0.00225453 -0.156483 
-0.124834 0.00605317 -0.155671 -0.114627 0.00700527 -0.154223 -0.120128 0.00771477 -0.155373 
-0.12453 0.0200752 -0.156158 -0.137725 0.0492338 -0.155871 -0.135485 0.0519681 -0.154063 
-0.125533 -0.0444741 -0.152351 -0.11308 -0.0138773 -0.153115 -0.110809 -0.011643 -0.152308 
-0.134346 -0.00915731 -0.151534 -0.114949 0.000150804 -0.153403 -0.106522 0.000327 -0.149842 
-0.107701 0.0100776 -0.150975 -0.120198 0.0214142 -0.154083 -0.14526 -0.0703463 -0.149272 
-0.126352 -0.0566201 -0.148445 -0.110948 -0.0212993 -0.149931 -0.100612 -0.0148722 -0.146345 
-0.142636 -0.0123452 -0.151764 -0.106681 -0.0118098 -0.149481 -0.0986724 -0.011075 -0.147 
-0.10249 -0.0108426 -0.148363 -0.0967606 -0.00665267 -0.146688 -0.111177 -0.00479375 -0.150483 
-0.106696 -0.00495639 -0.149924 -0.0997032 -0.00393172 -0.148071 -0.121572 -0.00379714 -0.149815 
-0.111576 0.00437481 -0.146634 -0.105378 0.00778137 -0.150313 -0.104594 0.00348731 -0.148282 
-0.100885 0.00797329 -0.148393 -0.101861 0.0124009 -0.148462 -0.0984874 0.0119466 -0.147069 
-0.0994251 0.0153687 -0.146997 -0.100582 0.0223387 -0.146871 -0.106832 0.033446 -0.147567 
-0.139861 0.0684114 -0.146998 -0.148032 -0.0794119 -0.144394 -0.106753 -0.0318207 -0.145504 
-0.103053 -0.0359333 -0.145456 -0.107194 -0.012921 -0.1436 -0.09556 -0.014056 -0.144567 
-0.0902521 -0.00951039 -0.143785 -0.0934253 -0.00390473 -0.145438 -0.103498 0.00603611 -0.145298 
-0.0984096 0.00408602 -0.145194 -0.11446 0.00620999 -0.146744 -0.0916988 0.00864255 -0.144492 
-0.0941858 0.0126007 -0.145209 -0.0962493 0.0164582 -0.144588 -0.0983284 0.026063 -0.144255 
-0.0947461 0.0285555 -0.143466 -0.114583 0.0532196 -0.145099 -0.101284 -0.0532497 -0.139662 
-0.087374 -0.0229645 -0.141266 -0.0866156 -0.0193013 -0.141422 -0.086838 -0.0147501 -0.142047 
-0.082775 -0.0158236 -0.140116 -0.0873489 -0.0100223 -0.140825 -0.0882024 -0.00524585 -0.142069 
-0.101062 0.00382496 -0.138449 -0.0889988 0.00362629 -0.143491 -0.0847127 0.000906486 -0.140641 
-0.0811126 0.00258291 -0.140127 -0.087684 0.00722473 -0.141695 -0.0834268 0.00795313 -0.141076 
-0.0869199 0.0114158 -0.142257 -0.130894 0.0179242 -0.141699 -0.0851133 0.0205652 -0.140725 
-0.0827954 0.0222132 -0.139107 -0.104158 0.0248201 -0.144419 -0.0946965 -0.0320569 -0.14148 
-0.0769059 -0.0292466 -0.135892 -0.106932 -0.0164754 -0.138631 -0.0928117 -0.0142993 -0.135002 
-0.0855055 -0.0137061 -0.138892 -0.0809879 -0.00986243 -0.138772 -0.0740388 -0.00852207 -0.136995 
-0.119561 -0.00255565 -0.139391 -0.0971795 -0.00508845 -0.140277 -0.0836387 -0.00381712 -0.139379 
-0.0801616 0.005532 -0.136254 -0.0780897 0.0229149 -0.13633 -0.0823541 0.0321607 -0.137672 
-0.0794416 -0.0425501 -0.132882 -0.0697338 -0.0127595 -0.134516 -0.0664383 -0.012448 -0.133603 
-0.0632589 -0.0108133 -0.132344 -0.0715073 -0.00904731 -0.134247 -0.0663683 -0.00917479 -0.133727 
-0.0697289 -0.00519276 -0.134245 -0.0899278 -0.000456853 -0.138889 -0.115104 0.00226469 -0.138223 
-0.0888254 0.00333556 -0.138528 -0.0681825 0.0125782 -0.134025 -0.0798052 0.0159227 -0.135906 
-0.0634957 0.0147179 -0.132126 -0.0697912 0.0236787 -0.132745 -0.0686547 0.0339081 -0.131614 
-0.108826 -0.0781802 -0.13071 -0.0697505 -0.0412968 -0.130337 -0.074773 -0.0377086 -0.133309 
-0.0617996 -0.0304769 -0.129376 -0.0729682 -0.0141851 -0.130513 -0.0676169 -0.0156558 -0.133889 
[...]
POINT_DATA 588
FIELD FieldData 7
id 1 588 int
22 35 32 16 6 10 12 2 11 
44 57 1 30 25 20 13 23 38 
29 19 21 14 7 3 4 69 47 
28 5 40 56 33 54 45 27 73 
66 93 89 61 37 8 52 36 42 
120 51 85 100 87 77 59 91 173 
133 55 176 39 15 94 41 71 31 
17 84 60 78 58 147 113 80 50 
98 46 74 53 92 125 65 63 76 
101 43 18 110 67 86 164 162 102 
145 153 126 117 62 24 112 130 137 
131 190 111 48 108 88 95 103 26 
196 75 34 178 104 207 150 186 121 
97 168 179 180 148 177 82 184 68 
160 127 138 118 193 107 122 114 174 
171 141 140 79 129 202 198 142 195 
159 154 163 106 139 132 166 204 144 
83 49 151 70 187 123 215 210 241 
156 219 158 81 189 134 183 136 116 
250 115 211 143 169 105 119 225 265 
157 149 229 181 146 209 252 170 212 
99 213 270 221 152 197 205 182 124 
175 254 96 228 199 64 278 109 201 
172 272 276 200 161 224 206 261 128 
208 72 251 185 236 280 244 245 220 
191 234 135 305 223 243 167 295 267 
293 227 249 233 238 294 290 314 292 
266 273 226 253 264 230 155 188 260 
263 284 274 235 247 299 218 317 192 
242 321 256 275 289 288 222 255 214 
203 258 259 296 303 232 240 194 248 
262 352 217 367 322 271 344 307 298 
330 283 315 324 287 333 310 282 306 
308 237 351 313 318 302 285 304 277 
297 300 368 331 320 340 165 377 327 
239 281 370 291 336 246 329 347 363 
309 348 231 269 90 279 366 216 355 
332 301 325 394 257 338 326 365 341 
387 360 362 316 342 345 339 311 323 
390 319 356 268 334 346 375 343 419 
385 382 286 354 361 349 328 371 388 
378 410 429 409 418 401 405 393 400 
357 337 380 389 443 369 359 350 422 
415 373 386 312 423 431 414 420 399 
445 404 364 358 427 439 374 353 391 
408 376 383 406 407 9 392 411 335 
425 384 424 379 434 417 438 412 446 
433 402 396 430 372 444 398 395 381 
403 435 413 426 447 432 428 442 440 
421 416 448 436 397 441 437 454 451 
452 460 456 458 450 459 457 455 453 
449 468 462 466 473 465 472 471 463 
464 470 469 461 467 484 480 485 478 
482 474 477 481 476 475 483 479 486 
496 491 493 492 497 488 490 489 495 
498 487 494 506 507 508 510 503 501 
509 511 504 505 500 499 502 519 517 
512 522 513 514 516 518 529 520 521 
515 523 536 528 532 527 533 535 530 
534 531 526 540 543 524 525 549 548 
547 545 546 539 542 538 541 559 555 
544 537 550 552 561 562 557 558 553 
560 554 556 551 569 566 564 565 563 
574 572 568 567 571 570 575 573 588 
587 576 582 581 580 577 583 578 579 
586 585 584 
type 1 588 int
1 1 1 1 1 1 1 1 1 
1 1 1 1 1 1 1 1 1 
1 1 1 1 1 1 1 1 1 
1 1 1 1 1 1 1 1 1 
1 1 1 1 1 1 1 1 1 
1 1 1 1 1 1 1 1 1 
1 1 1 1 1 1 1 1 1 
1 1 1 1 1 1 1 1 1 
1 1 1 1 1 1 1 1 1 
1 1 1 1 1 1 1 1 1 
1 1 1 1 1 1 1 1 1 
1 1 1 1 1 1 1 1 1 
1 1 1 1 1 1 1 1 1 
1 1 1 1 1 1 1 1 1 
1 1 1 1 1 1 1 1 1 
1 1 1 1 1 1 1 1 1 
1 1 1 1 1 1 1 1 1 
1 1 1 1 1 1 1 1 1 
1 1 1 1 1 1 1 1 1 
1 1 1 1 1 1 1 1 1 
1 1 1 1 1 1 1 1 1 
1 1 1 1 1 1 1 1 1 
1 1 1 1 1 1 1 1 1 
1 1 1 1 1 1 1 1 1 
1 1 1 1 1 1 1 1 1 
1 1 1 1 1 1 1 1 1 
1 1 1 1 1 1 1 1 1 
1 1 1 1 1 1 1 1 1 
1 1 1 1 1 1 1 1 1 
1 1 1 1 1 1 1 1 1 
1 1 1 1 1 1 1 1 1 
1 1 1 1 1 1 1 1 1 
1 1 1 1 1 1 1 1 1 
1 1 1 1 1 1 1 1 1 
1 1 1 1 1 1 1 1 1 
1 1 1 1 1 1 1 1 1 
1 1 1 1 1 1 1 1 1 
1 1 1 1 1 1 1 1 1 
1 1 1 1 1 1 1 1 1 
1 1 1 1 1 1 1 1 1 
1 1 1 1 1 1 1 1 1 
1 1 1 1 1 1 1 1 1 
1 1 1 1 1 1 1 1 1 
1 1 1 1 1 1 1 1 1 
1 1 1 1 1 1 1 1 1 
1 1 1 1 1 1 1 1 1 
1 1 1 1 1 1 1 1 1 
1 1 1 1 1 1 1 1 1 
1 1 1 1 1 1 1 1 1 
1 1 1 1 1 1 1 1 1 
1 1 1 1 1 1 1 1 1 
1 1 1 1 1 1 1 1 1 
1 1 1 1 1 1 1 1 1 
1 1 1 1 1 1 1 1 1 
1 1 1 1 1 1 1 1 1 
1 1 1 1 1 1 1 1 1 
1 1 1 1 1 1 1 1 1 
1 1 1 1 1 1 1 1 1 
1 1 1 1 1 1 1 1 1 
1 1 1 1 1 1 1 1 1 
1 1 1 1 1 1 1 1 1 
1 1 1 1 1 1 1 1 1 
1 1 1 1 1 1 1 1 1 
1 1 1 1 1 1 1 1 1 
1 1 1 1 1 1 1 1 1 
1 1 1 
i 3 588 int
0 0 0 0 0 0 0 0 0 
0 0 0 0 0 0 0 0 0 
0 0 0 0 0 0 0 0 0 
0 0 0 0 0 0 0 0 0 
0 0 0 0 0 0 0 0 0 
0 0 0 0 0 0 0 0 0 
0 0 0 0 0 0 0 0 0 
0 0 0 0 0 0 0 0 0 
0 0 0 0 0 0 0 0 0 
0 0 0 0 0 0 0 0 0 
0 0 0 0 0 0 0 0 0 
0 0 0 0 0 0 0 0 0 
0 0 0 0 0 0 0 0 0 
0 0 0 0 0 0 0 0 0 
0 0 0 0 0 0 0 0 0 
0 0 0 0 0 0 0 0 0 
0 0 0 0 0 0 0 0 0 
0 0 0 0 0 0 0 0 0 
0 0 0 0 0 0 0 0 0 
0 0 0 0 0 0 0 0 0 
0 0 0 0 0 0 0 0 0 
0 0 0 0 0 0 0 0 0 
0 0 0 0 0 0 0 0 0 
0 0 0 0 0 0 0 0 0 
0 0 0 0 0 0 0 0 0 
0 0 0 0 0 0 0 0 0 
0 0 0 0 0 0 0 0 0 
0 0 0 0 0 0 0 0 0 
0 0 0 0 0 0 0 0 0 
0 0 0 0 0 0 0 0 0 
0 0 0 0 0 0 0 0 0 
0 0 0 0 0 0 0 0 0 
0 0 0 0 0 0 0 0 0 
0 0 0 0 0 0 0 0 0 
0 0 0 0 0 0 0 0 0 
0 0 0 0 0 0 0 0 0 
0 0 0 0 0 0 0 0 0 
0 0 0 0 0 0 0 0 0 
0 0 0 0 0 0 0 0 0 
0 0 0 0 0 0 0 0 0 
0 0 0 0 0 0 0 0 0 
0 0 0 0 0 0 0 0 0 
0 0 0 0 0 0 0 0 0 
0 0 0 0 0 0 0 0 0 
0 0 0 0 0 0 0 0 0 
0 0 0 0 0 0 0 0 0 
0 0 0 0 0 0 0 0 0 
0 0 0 0 0 0 0 0 0 
0 0 0 0 0 0 0 0 0 
0 0 0 0 0 0 0 0 0 
0 0 0 0 0 0 0 0 0 
0 0 0 0 0 0 0 0 0 
0 0 0 0 0 0 0 0 0 
0 0 0 0 0 0 0 0 0 
0 0 0 0 0 0 0 0 0 
0 0 0 0 0 0 0 0 0 
0 0 0 0 0 0 0 0 0 
0 0 0 0 0 0 0 0 0 
0 0 0 0 0 0 0 0 0 
0 0 0 0 0 0 0 0 0 
0 0 0 0 0 0 0 0 0 
0 0 0 0 0 0 0 0 0 
0 0 0 0 0 0 0 0 0 
0 0 0 0 0 0 0 0 0 
0 0 0 0 0 0 0 0 0 
0 0 0 0 0 0 0 0 0 
0 0 0 0 0 0 0 0 0 
0 0 0 0 0 0 0 0 0 
0 0 0 0 0 0 0 0 0 
0 0 0 0 0 0 0 0 0 
0 0 0 0 0 0 0 0 0 
0 0 0 0 0 0 0 0 0 
0 0 0 0 0 0 0 0 0 
0 0 0 0 0 0 0 0 0 
0 0 0 0 0 0 0 0 0 
0 0 0 0 0 0 0 0 0 
0 0 0 0 0 0 0 0 0 
0 0 0 0 0 0 0 0 0 
0 0 0 0 0 0 0 0 0 
0 0 0 0 0 0 0 0 0 
0 0 0 0 0 0 0 0 0 
0 0 0 0 0 0 0 0 0 
0 0 0 0 0 0 0 0 0 
0 0 0 0 0 0 0 0 0 
0 0 0 0 0 0 0 0 0 
0 0 0 0 0 0 0 0 0 
0 0 0 0 0 0 0 0 0 
0 0 0 0 0 0 0 0 0 
0 0 0 0 0 0 0 0 0 
0 0 0 0 0 0 0 0 0 
0 0 0 0 0 0 0 0 0 
0 0 0 0 0 0 0 0 0 
0 0 0 0 0 0 0 0 0 
0 0 0 0 0 0 0 0 0 
0 0 0 0 0 0 0 0 0 
0 0 0 0 0 0 0 0 0 
0 0 0 0 0 0 0 0 0 
0 0 0 0 0 0 0 0 0 
0 0 0 0 0 0 0 0 0 
0 0 0 0 0 0 0 0 0 
0 0 0 0 0 0 0 0 0 
0 0 0 0 0 0 0 0 0 
0 0 0 0 0 0 0 0 0 
0 0 0 0 0 0 0 0 0 
0 0 0 0 0 0 0 0 0 
0 0 0 0 0 0 0 0 0 
0 0 0 0 0 0 0 0 0 
0 0 0 0 0 0 0 0 0 
0 0 0 0 0 0 0 0 0 
0 0 0 0 0 0 0 0 0 
0 0 0 0 0 0 0 0 0 
0 0 0 0 0 0 0 0 0 
0 0 0 0 0 0 0 0 0 
0 0 0 0 0 0 0 0 0 
0 0 0 0 0 0 0 0 0 
0 0 0 0 0 0 0 0 0 
0 0 0 0 0 0 0 0 0 
0 0 0 0 0 0 0 0 0 
0 0 0 0 0 0 0 0 0 
0 0 0 0 0 0 0 0 0 
0 0 0 0 0 0 0 0 0 
0 0 0 0 0 0 0 0 0 
0 0 0 0 0 0 0 0 0 
0 0 0 0 0 0 0 0 0 
0 0 0 0 0 0 0 0 0 
0 0 0 0 0 0 0 0 0 
0 0 0 0 0 0 0 0 0 
0 0 0 0 0 0 0 0 0 
0 0 0 0 0 0 0 0 0 
0 0 0 0 0 0 0 0 0 
0 0 0 0 0 0 0 0 0 
0 0 0 0 0 0 0 0 0 
0 0 0 0 0 0 0 0 0 
0 0 0 0 0 0 0 0 0 
0 0 0 0 0 0 0 0 0 
0 0 0 0 0 0 0 0 0 
0 0 0 0 0 0 0 0 0 
0 0 0 0 0 0 0 0 0 
0 0 0 0 0 0 0 0 0 
0 0 0 0 0 0 0 0 0 
0 0 0 0 0 0 0 0 0 
0 0 0 0 0 0 0 0 0 
0 0 0 0 0 0 0 0 0 
0 0 0 0 0 0 0 0 0 
0 0 0 0 0 0 0 0 0 
0 0 0 0 0 0 0 0 0 
0 0 0 0 0 0 0 0 0 
0 0 0 0 0 0 0 0 0 
0 0 0 0 0 0 0 0 0 
0 0 0 0 0 0 0 0 0 
0 0 0 0 0 0 0 0 0 
0 0 0 0 0 0 0 0 0 
0 0 0 0 0 0 0 0 0 
0 0 0 0 0 0 0 0 0 
0 0 0 0 0 0 0 0 0 
0 0 0 0 0 0 0 0 0 
0 0 0 0 0 0 0 0 0 
0 0 0 0 0 0 0 0 0 
0 0 0 0 0 0 0 0 0 
0 0 0 0 0 0 0 0 0 
0 0 0 0 0 0 0 0 0 
0 0 0 0 0 0 0 0 0 
0 0 0 0 0 0 0 0 0 
0 0 0 0 0 0 0 0 0 
0 0 0 0 0 0 0 0 0 
0 0 0 0 0 0 0 0 0 
0 0 0 0 0 0 0 0 0 
0 0 0 0 0 0 0 0 0 
0 0 0 0 0 0 0 0 0 
0 0 0 0 0 0 0 0 0 
0 0 0 0 0 0 0 0 0 
0 0 0 0 0 0 0 0 0 
0 0 0 0 0 0 0 0 0 
0 0 0 0 0 0 0 0 0 
0 0 0 0 0 0 0 0 0 
0 0 0 0 0 0 0 0 0 
0 0 0 0 0 0 0 0 0 
0 0 0 0 0 0 0 0 0 
0 0 0 0 0 0 0 0 0 
0 0 0 0 0 0 0 0 0 
0 0 0 0 0 0 0 0 0 
0 0 0 0 0 0 0 0 0 
0 0 0 0 0 0 0 0 0 
0 0 0 0 0 0 0 0 0 
0 0 0 0 0 0 0 0 0 
0 0 0 0 0 0 0 0 0 
0 0 0 0 0 0 0 0 0 
0 0 0 0 0 0 0 0 0 
0 0 0 0 0 0 0 0 0 
0 0 0 0 0 0 0 0 0 
0 0 0 0 0 0 0 0 0 
0 0 0 0 0 0 0 0 0 
0 0 0 0 0 0 0 0 0 
0 0 0 0 0 0 0 0 0 
0 0 0 0 0 0 0 0 0 
0 0 0 0 0 0 0 0 0 

v 3 588 double
-1.40023 -0.251904 -1.65118 -1.34345 0.15557 -1.27815 -1.49282 0.013101 -1.2967 
-1.41114 0.00647445 -1.1265 -1.3674 -0.00979849 -0.894295 -1.29594 0.0210826 -0.860118 
-1.37111 0.0250101 -0.815634 -1.34676 -0.00926674 -0.847667 -1.28523 -0.041963 -0.741825 
-1.35377 -0.0625207 -0.849497 -1.40329 -0.151216 -0.745559 -1.29447 -0.0102819 -0.717839 
-1.29539 0.0619969 -0.604475 -1.30627 -0.0249384 -0.65192 -1.23863 -0.175653 -0.873084 
-1.29435 0.223299 -0.664558 -1.24968 -0.0603932 -0.552155 -1.30976 -0.0504093 -0.581885 
-1.31046 -0.0406686 -0.571839 -1.12422 -0.00898445 -0.447785 -1.35161 -0.0860827 -0.600752 
-1.14598 0.0397467 -0.453076 -0.982932 0.0447232 -0.416078 -1.22983 0.157738 -0.508533 
-1.11864 0.071999 -0.474695 -1.12345 0.0339523 -0.47229 -1.21759 -0.0149986 -0.513751 
-1.20262 0.0103058 -0.54931 -1.22641 0.0935493 -0.526173 -1.23805 0.0375915 -0.524419 
-1.08211 0.147515 -0.43638 -1.22874 0.122367 -0.576678 -1.22263 0.108391 -0.453283 
-1.19115 0.177203 -0.509164 -1.13632 0.0407957 -0.512674 -1.04255 0.053297 -0.436221 
-1.19223 -0.0932754 -0.496965 -1.20015 0.0630644 -0.51546 -1.07472 0.0578595 -0.452831 
-1.07905 0.0702057 -0.455458 -1.12749 0.0980218 -0.485823 -1.03395 0.0105969 -0.438825 
-1.05929 0.0174181 -0.445301 -1.05368 0.0395762 -0.439043 -1.0393 0.0491867 -0.444375 
-1.02872 0.0450297 -0.443276 -1.05489 0.35516 -1.01258 -1.05497 0.0395426 -0.424345 
-1.08991 0.0615628 -0.479428 -1.06024 0.0502621 -0.502541 -0.928589 -0.00370049 -0.389565 
-1.03226 0.0645294 -0.429138 -0.908045 -0.0290865 -0.37238 -1.31285 0.0539706 -0.521996 
-0.993317 -0.0215121 -0.415362 -0.930533 -0.0879223 -0.394202 -0.863719 0.0186314 -0.367088 
-0.904843 -0.0188184 -0.383647 -0.913455 -0.0184349 -0.388772 -1.14092 -0.0453779 -0.487606 
-0.981573 -0.0344592 -0.40559 -0.805554 -0.0476017 -0.346091 -0.91356 0.0353836 -0.379709 
-0.904898 0.0243134 -0.381949 -1.07834 -0.178062 -0.483668 -1.05908 -0.315303 -0.701867 
-0.921967 -0.0075426 -0.395013 -0.850643 -0.015905 -0.373519 -1.13118 -0.0826495 -0.483856 
-0.945859 -0.0901317 -0.367791 -0.835879 -0.108068 -0.329148 -0.866633 0.0304093 -0.365252 
-0.786646 0.0295864 -0.321956 -0.875514 -0.00651162 -0.362241 -0.859181 -0.0289306 -0.353422 
-0.777866 -0.101677 -0.312554 -0.741898 -0.064499 -0.301945 -0.844407 -0.0178773 -0.362645 
-0.882292 -0.0588418 -0.382464 -1.05701 0.12683 -0.457164 -0.923585 0.103549 -0.405002 
-0.795797 -0.134336 -0.295229 -0.946327 -0.0643654 -0.401182 -0.888056 0.00621238 -0.392844 
-0.751745 -0.0523235 -0.306925 -0.901472 -0.0120132 -0.386434 -0.759442 0.0465377 -0.325185 
-0.869834 0.0252821 -0.361597 -0.884064 0.0860341 -0.379335 -0.780684 -0.00234417 -0.323006 
-1.01241 0.0964603 -0.405977 -0.934157 -0.0144638 -0.380499 -1.04021 -0.167843 -0.452564 
-1.06615 -0.232101 -0.506004 -0.928403 0.0491648 -0.385195 -0.979057 -0.0368571 -0.398327 
-0.885925 0.0279669 -0.369453 -0.892851 0.0235468 -0.407567 -0.737388 0.0712318 -0.316237 
-1.07319 0.0132455 -0.555265 -0.911155 -0.00292402 -0.395663 -0.912762 0.0816619 -0.374949 
-0.890915 0.0306263 -0.365372 -0.968349 0.0545782 -0.395027 -0.943601 -0.125315 -0.430068 
-0.865542 -0.0838182 -0.332483 -0.889338 -0.0650795 -0.345353 -0.831879 -0.0280171 -0.331993 
-0.872121 0.0935127 -0.377634 -0.849003 0.116661 -0.368609 -0.869911 -0.155748 -0.40177 
-0.685289 -0.19176 -0.275645 -0.679556 0.0707928 -0.288999 -1.09234 -0.350679 -0.367709 
-0.807806 -0.0597833 -0.326369 -0.882575 -0.024298 -0.773161 -0.776984 0.040602 -0.321421 
-0.976313 0.219928 -0.49901 -0.944584 -0.0879444 -0.379254 -0.705231 0.00499475 -0.284989 
-0.787117 -0.00273242 -0.336115 -0.914911 -0.023571 -0.640286 -0.871926 0.0390348 -0.359456 
-0.783716 -0.00470721 -0.328031 -0.570619 0.0182036 -0.240958 -0.772743 -0.00321384 -0.328722 
-0.661483 -0.0432165 -0.284829 -0.693044 0.0430998 -0.32436 -0.67457 -0.0091296 -0.318617 
-0.716653 -0.0251498 -0.338912 -0.810735 -0.0874492 -0.358828 -0.729617 0.0349527 -0.2796 
-0.841016 -0.0837697 -0.371616 -0.766757 -0.0323002 -0.32265 -0.879126 -0.0583482 -0.347865 
-0.790709 0.0166344 -0.334835 -0.902935 -0.0085157 -0.354026 -0.88778 0.0499874 -0.419243 
-0.912071 0.0421244 -0.383103 -0.893457 0.0653044 -0.386913 -0.836157 -0.00826764 -0.353531 
-0.724812 -0.00320389 -0.29646 -0.713254 0.00165202 -0.331408 -0.744145 -0.00410161 -0.306008 
-0.907004 -0.0868848 -0.385536 -0.939374 -0.0755912 -0.398187 -0.795281 0.00156474 -0.353647 
-0.744226 -0.0477573 -0.260501 -1.12674 -0.181992 -0.518253 -0.804441 0.0820782 -0.342342 
-0.88096 0.0693765 -0.380846 -0.98998 -0.0872519 -0.430968 -0.776489 0.0459239 -0.314531 
-0.811594 -0.0890176 -0.361615 -0.845466 -0.10474 -0.376578 -0.816501 -0.0285848 -0.342514 
-0.744857 0.0649187 -0.354246 -1.11254 -0.112412 -0.384632 -0.793451 -0.0251918 -0.336443 
-0.893032 -0.142338 -0.333619 -0.825035 -0.00278198 -0.349486 -0.947548 0.0319495 -0.651 
-0.744372 0.0165596 -0.321773 -1.02516 -0.00613264 -0.685925 -0.718494 -0.00163694 -0.296912 
-0.881911 -0.104935 -0.392061 -0.879219 0.0315075 -0.367031 -0.829046 0.0502713 -0.360289 
-0.782974 -0.0130057 -0.333204 -0.779045 0.0105528 -0.333869 -0.774918 -0.00791995 -0.321342 
-0.54838 -0.135157 -0.172442 -0.674493 0.074744 -0.289003 -0.788456 -0.124567 -0.118936 
-0.692976 0.100594 -0.297257 -0.71857 0.0130747 -0.292116 -0.718465 0.0269721 -0.290518 
-0.744841 -0.0599733 -0.327364 -0.818363 -0.0940013 -0.32473 -0.90935 -0.0136081 -0.384141 
-0.772299 -0.076664 -0.322772 -0.681376 -0.0340501 -0.276661 -0.722721 -0.015757 -0.260589 
-0.760086 0.0318602 -0.317971 -0.658153 0.104235 -0.244973 -0.553739 0.0170727 -0.239679 
-0.683721 -0.00418947 -0.295482 -0.719428 0.033007 -0.305587 -0.682205 0.0326252 -0.243055 
-0.698578 -0.0675579 -0.315483 -0.800709 0.0305191 -0.306037 -0.936626 0.0899873 -0.411583 
-0.841672 0.112453 -0.391886 -0.615276 -0.15583 -0.252146 -0.507351 -0.0557545 -0.217131 
-0.642514 0.000616045 -0.266481 -0.637507 -0.0145926 -0.273072 -0.743905 -0.0570715 -0.309102 
-0.692584 -0.00830234 -0.290685 -0.714476 -0.00704567 -0.306557 -0.716465 0.0118549 -0.297477 
-0.740366 0.0115995 -0.324173 -0.862146 -0.080359 -0.366336 -0.731493 -0.0527253 -0.305738 
-1.05859 -0.0785195 -0.433291 -0.751615 0.177334 -0.379676 -0.687978 -0.129994 -0.242705 
-0.579211 -0.0203923 -0.238944 -0.826074 -0.041716 -0.34166 -0.494698 -0.162016 -0.196373 
-0.929715 0.304501 -0.181988 -0.597083 0.0058285 -0.251084 -0.628135 -0.0152912 -0.269003 
-0.717884 -0.0242476 -0.331375 -0.731492 0.0270452 -0.310125 -0.724539 -0.0137133 -0.298172 
-0.816786 0.0338531 -0.322531 -0.762329 0.0244232 -0.304359 -0.85832 0.27911 -0.260802 
-0.704869 -0.178054 -0.234571 -0.722341 0.0720103 -0.307808 -0.692204 0.0598902 -0.29437 
-0.885768 -0.185287 -0.219667 -0.604573 0.0616876 -0.28602 -0.441642 -0.0414851 -0.177173 
-0.666154 0.0940044 -0.263031 -0.851059 0.174394 -0.276186 -0.643204 0.21284 -0.38767 
-0.88451 -0.250192 -0.244229 -0.764749 0.0276999 -0.370469 -0.440857 0.153557 -0.188418 
-0.91411 0.136395 -0.560169 -0.719072 0.0420275 -0.304004 -0.501452 0.249304 -0.215557 
-0.499812 -0.262057 -0.133915 -0.678817 0.0471102 -0.292973 -0.759356 -0.00472836 -0.610961 
-0.6643 0.0277816 -0.283243 -0.573904 0.0318935 -0.240543 -1.18906 -0.239109 -0.348237 
-0.859297 0.251367 -0.285351 -0.43313 0.0725053 -0.246604 -0.600958 0.213033 -0.205955 
-0.629943 -0.0493156 -0.271588 -0.49986 0.1235 -0.158104 -0.508334 -0.0337112 -0.218429 
-0.615725 0.001032 -0.312277 -0.530472 0.128323 -0.200082 -0.463468 0.0751009 -0.173063 
-0.504199 0.111911 -0.131554 -0.859335 0.0411947 -0.317574 -0.409754 -0.0126206 -0.206979 
-0.396798 -0.174444 -0.197912 -0.79364 0.0240787 -0.35248 -0.639597 -0.247342 -0.449 
-0.636838 -0.002409 -0.2701 -0.595367 -0.0131667 -0.262362 -0.812608 0.0284057 -0.468082 
-0.604643 0.0208275 -0.15989 -0.984903 -0.153922 -0.471811 -0.500027 -0.0570332 -0.21373 
-0.483124 -0.0944618 -0.22659 -0.774912 -0.0847442 -0.345708 -0.696464 -0.0542605 -0.297816 
-0.650039 -0.0722499 -0.281155 -0.821337 0.149394 -0.286957 -0.660216 -0.25159 -0.170197 
-0.587691 0.0249368 -0.248141 -0.538895 0.00893127 -0.219283 -0.463485 -0.0527735 -0.191345 
-0.412356 -0.0181409 -0.151206 -0.606515 0.0570758 -0.315325 -0.637505 0.0606728 -0.27405 
-0.952936 0.0943762 0.0534165 -0.576146 0.157994 -0.077698 -0.47722 0.0659536 -0.193836 
-0.435369 -0.00852591 -0.200974 -0.499009 0.0287631 -0.0854088 -0.451933 -0.00523098 -0.191905 
-0.532218 -0.0117918 -0.22685 -1.53925 0.230518 -0.481504 -0.560217 0.1523 -0.224558 
-0.593021 0.381272 -0.123713 -0.756816 -0.0326687 -0.768468 -0.304417 -0.194108 0.0529078 
-0.401597 -0.219151 -0.13322 -0.966949 0.100851 -0.433753 -0.80953 0.0612401 -0.19313 
-0.667919 0.0103155 -0.399056 -0.561521 -0.0331639 -0.233521 -0.511491 0.130804 -0.223605 
-0.982111 0.254885 -0.647484 -0.624912 0.0200291 -0.754508 -0.579019 -0.0246783 -0.383656 
-0.640327 0.198238 -0.141013 -0.63912 0.126241 -0.241419 -0.662723 0.250146 -0.241363 
-0.765016 -0.0393614 -0.30317 -0.536025 0.0723019 -0.246512 -0.519636 0.0254045 -0.219057 
-0.52291 -0.0306463 -0.218256 -0.509847 0.0254416 -0.19416 -0.528172 0.0552656 -0.224445 
-0.624013 -0.053898 -0.263065 -0.720073 -0.261226 -0.835394 -0.660839 -0.238081 -0.811023 
-0.900391 -0.242942 -0.324441 -0.73166 0.278738 -0.277584 -0.719559 0.338379 -0.675098 
-0.519438 0.0309879 -0.213949 -0.588597 0.0809741 -0.230043 -0.375444 -0.0583752 -0.168212 
-0.715063 -0.0998563 -0.217556 -0.866696 -0.253007 -0.269754 -0.599109 -0.360867 -0.0871207 
-0.480203 -0.230361 -0.156768 -0.829249 -0.00261214 -0.155464 -0.666932 0.149834 -0.248358 
-0.500185 0.045413 -0.212282 -0.35956 0.0412307 -0.153207 -0.582713 0.0598427 -0.24935 
-0.71497 -0.327265 -0.769371 -0.809037 0.2392 -0.339691 -1.07962 0.301509 -0.613545 
-0.398363 -0.00836463 -0.172259 -0.888393 0.102019 -0.457342 -0.507946 -0.0477775 -0.211113 
-0.495428 0.0466899 -0.195214 -0.487285 0.0757436 -0.172532 -0.494357 0.0308733 -0.130987 
-0.690934 -0.389764 -0.164799 -0.686617 -0.0308862 -0.187967 -0.641791 -0.0853623 -0.266039 
-0.732181 -0.110349 -0.561015 -0.392842 -0.124082 -0.242577 -0.400741 -0.183011 -0.157604 
-0.565537 0.0124139 -0.198032 -0.443339 -0.084817 -0.19197 -0.321989 -0.0664083 -0.196362 
-0.387022 -0.0103967 -0.148931 -0.585096 -0.0796848 -0.257463 -0.743416 -0.192541 -0.642665 
-0.669392 0.183481 0.0176107 -0.36536 0.00696961 -0.157141 -0.679233 0.074477 -0.295667 
-0.694607 0.15001 -0.67055 -0.346752 0.0456037 -0.328452 -0.311625 0.00344868 -0.128329 
-0.749141 -0.0168511 -0.550531 -0.56583 0.412482 -0.535848 -0.574319 -0.0886371 -0.501883 
-0.969285 0.159334 -0.203522 -0.37202 -0.0703778 -0.15621 -0.424213 0.0337075 -0.178535 
-0.391821 -0.0561043 -0.175197 -0.339312 0.0619741 -0.152704 -0.676879 0.0931092 -0.768924 
-0.405433 -0.0713353 -0.148897 -0.71541 0.262642 -0.644912 -0.173958 -0.00789194 -0.0359873 
-0.241276 0.249081 -0.110153 -0.623565 -0.00566933 -0.451472 -0.611073 0.144399 -0.657135 
-0.696059 -0.326682 -0.506492 -0.349465 -0.0196493 -0.143664 -0.578304 -0.0810143 -0.241807 
-0.693091 -0.156221 -0.612983 -0.633982 -0.320461 -0.200079 -0.595178 -0.132037 -0.426111 
-0.518266 0.0143206 -0.213731 -0.65765 0.71626 -0.20816 -0.945272 -0.516599 -0.0723034 
-0.720017 0.322425 -0.0439054 -1.02844 0.157808 -0.268582 -0.677027 0.236831 -0.148539 
-0.754938 0.181228 -0.0720309 -0.234047 0.0624611 -0.32454 -0.519976 -0.0224902 -0.175845 
-0.365454 -0.285772 -0.154323 -0.827364 -0.131056 -0.357699 -0.274877 -0.205727 -0.174362 
-0.494523 -0.236489 -0.484504 0.248534 0.303161 0.432541 -0.103559 0.163319 -0.100911 
-0.259749 0.117226 -0.0397272 -0.49361 -0.170753 -0.385392 -0.720296 -0.234494 0.0516515 
-0.420767 -0.288625 -0.235975 -0.399521 0.096283 0.0369852 -0.872123 0.22829 -0.485468 
-0.282901 0.0797938 -0.301723 -0.905927 0.085476 -0.167056 -0.246087 0.261279 0.212392 
-0.529194 0.429115 -0.320703 -0.586721 0.084181 -0.24505 -0.74361 0.235968 -0.138858 
-0.665819 0.564508 0.10623 0.0840963 0.322887 -1.05174 -0.283751 0.100584 -0.336608 
-0.646793 0.0219488 -0.469486 -0.743708 0.138825 0.121961 -0.723345 0.00932989 0.240062 
-0.517834 -0.253129 -0.470337 -0.714328 -0.146745 -0.445468 -0.120985 -0.323627 -0.0608469 
-0.476792 0.162956 -0.217495 -0.328185 0.0896594 -0.0282154 -0.408369 -0.383829 0.169015 
-0.423467 0.0524752 -0.00435991 -0.863295 0.0752397 -0.219058 -0.580767 0.204067 -0.389568 
-0.364655 0.115095 -0.232394 -0.723386 0.297837 0.0404429 -0.556295 0.0748484 -0.387516 
-0.623293 0.262518 0.150148 -0.624768 0.111176 -0.143858 -0.742364 -0.0800392 0.00710895 