# vtk DataFile Version 4.0
Generated by LIGGGHTS
ASCII
DATASET POLYDATA
POINTS 848 float
-0.00444667 -0.00249168 0.0510998 -0.0124273 -0.0137793 0.0509308 -0.0330631 -0.0340749 0.0522498 
-0.0163118 0.00706962 0.0477463 -0.0170303 0.00352844 0.0521814 -0.482461 -0.00109393 -0.396665 
-0.44589 -0.000958545 -0.396687 -0.467044 0.00845582 -0.398602 -0.469919 0.0130268 -0.39826 
-0.454413 0.010808 -0.399347 -0.482252 0.0147965 -0.39841 -0.453818 -0.0041728 -0.392889 
-0.444543 0.00320165 -0.394345 -0.437596 -0.0113793 -0.390279 -0.450095 -0.00379192 -0.390312 
-0.489386 0.0262034 -0.39368 -0.448477 0.00806998 -0.388704 -0.456998 -0.0167464 -0.384471 
-0.447504 0.000973216 -0.384568 -0.450645 0.00961548 -0.385287 -0.430245 0.0101383 -0.384694 
-0.446791 0.0108033 -0.384854 -0.451431 0.00455638 -0.37988 -0.468486 0.013319 -0.38052 
-0.478469 -0.00406548 -0.374907 -0.444789 0.000397465 -0.377387 -0.450045 -0.018003 -0.374178 
-0.454821 0.00194615 -0.371724 -0.452505 0.0149568 -0.374018 -0.457769 0.0185223 -0.367262 
-0.4474 0.00513993 -0.364526 -0.440803 -0.00703126 -0.360826 -0.449358 0.0102255 -0.362824 
-0.463568 -0.00148558 -0.359168 -0.423858 -0.00148359 -0.358484 -0.449426 -0.0234366 -0.353602 
-0.446627 -0.0152741 -0.355517 -0.435092 -0.00674312 -0.354115 -0.425791 0.012826 -0.353092 
-0.441536 -0.00878418 -0.350599 -0.434436 -0.00372373 -0.350874 -0.445989 0.00631488 -0.351988 
-0.428426 0.00593343 -0.351413 -0.434553 0.00651479 -0.350679 -0.444892 -0.0174469 -0.345533 
-0.439424 -0.00124214 -0.346373 -0.437729 -0.016974 -0.344239 -0.431467 -0.0187965 -0.344295 
-0.429565 -0.00664121 -0.34423 -0.422921 -0.00367208 -0.342285 -0.417567 -0.0122122 -0.339401 
-0.459126 -0.0331771 -0.338992 -0.434376 -0.00410204 -0.334887 -0.440641 -0.000847995 -0.336191 
-0.423137 0.00699555 -0.331948 -0.418653 0.00620723 -0.331026 -0.431798 -0.0124406 -0.327582 
-0.420577 -0.000991174 -0.329967 -0.419278 -0.000783947 -0.326368 -0.423669 0.0204624 -0.329108 
-0.41617 -5.7507e-05 -0.323178 -0.401298 0.00479082 -0.325389 -0.418043 0.00963187 -0.324287 
-0.428808 -0.0171614 -0.322812 -0.413354 -0.0036302 -0.3198 -0.398803 0.00859715 -0.322212 
-0.4031 -0.0177911 -0.316926 -0.412718 -0.00698263 -0.317263 -0.407071 -0.00241622 -0.316572 
-0.414167 0.00545511 -0.317218 -0.406688 0.00566519 -0.319252 -0.407681 0.0103789 -0.318672 
-0.408413 0.0153679 -0.316056 -0.412143 0.0260416 -0.318607 -0.40335 0.0131828 -0.312143 
-0.407233 0.0183232 -0.31022 -0.409317 0.0228352 -0.311532 -0.411388 -0.0163207 -0.306834 
-0.393679 -0.00376192 -0.306696 -0.399381 3.84307e-05 -0.307378 -0.395146 0.004061 -0.30635 
-0.389786 -0.00340083 -0.303264 -0.40528 0.0234701 -0.303554 -0.393214 -0.00755283 -0.300003 
-0.397871 0.0277177 -0.298099 -0.409195 0.0305908 -0.298185 -0.39464 -0.0239349 -0.297372 
-0.389823 -0.00608793 -0.294988 -0.386808 -0.00102894 -0.293671 -0.390382 0.000984524 -0.294854 
-0.387959 0.00638128 -0.294226 -0.386759 -0.00814773 -0.292477 -0.371944 -0.00221146 -0.289729 
-0.386229 0.00162785 -0.289757 -0.391017 0.026154 -0.291907 -0.396622 0.0293275 -0.290061 
-0.394471 -0.0159712 -0.288034 -0.383816 -0.013897 -0.288246 -0.384053 -0.00613547 -0.288585 
-0.376777 -0.000992278 -0.285089 -0.426408 0.00244563 -0.285856 -0.378971 0.0172045 -0.286252 
-0.384784 0.0226445 -0.287155 -0.376871 -0.0241035 -0.282698 -0.382863 -0.0146819 -0.281472 
-0.371809 -0.00835138 -0.282421 -0.371904 0.00489973 -0.285384 -0.376987 0.00727107 -0.284542 
-0.388772 0.0286052 -0.285175 -0.378923 -0.0133453 -0.281047 -0.370244 -0.00916423 -0.27931 
-0.373075 -0.00438994 -0.279499 -0.366387 0.012504 -0.280448 -0.366336 0.0104023 -0.278266 
-0.379909 0.0203091 -0.280689 -0.384355 0.0243906 -0.280485 -0.37696 -0.0144736 -0.274436 
-0.379903 -0.012636 -0.275168 -0.370978 -0.00489142 -0.275432 -0.369087 0.000937486 -0.277084 
-0.370386 0.00633289 -0.276084 -0.366077 0.00480423 -0.276633 -0.363641 0.0063901 -0.275042 
-0.373488 0.0128008 -0.274288 -0.380301 -0.0210171 -0.272096 -0.37624 -0.0177975 -0.271621 
-0.369476 -0.0132992 -0.272901 -0.368764 -0.0052809 -0.273091 -0.358982 -0.003494 -0.270621 
-0.368221 0.00136167 -0.270107 -0.36402 0.0004286 -0.270553 -0.373837 0.00929009 -0.271328 
-0.367566 -0.00258478 -0.268699 -0.357758 0.0067437 -0.268256 -0.368628 0.00971505 -0.269817 
-0.354438 0.00842286 -0.268252 -0.364773 0.0109325 -0.268155 -0.37904 0.0149841 -0.26828 
-0.380298 0.0356153 -0.267398 -0.36677 -0.025093 -0.262835 -0.365309 -0.0157123 -0.263139 
-0.358326 -0.0128334 -0.265845 -0.366648 -0.00815854 -0.265702 -0.351515 -0.00391977 -0.264662 
-0.363625 -0.000620723 -0.265654 -0.368669 0.000242067 -0.264002 -0.365526 0.0147716 -0.262938 
-0.373591 0.0192107 -0.264117 -0.359525 -0.0140655 -0.260029 -0.358157 -0.00914424 -0.260842 
-0.353231 0.00209269 -0.261028 -0.35697 0.00453103 -0.26183 -0.352544 0.00992914 -0.259694 
-0.356254 0.0139484 -0.259376 -0.369695 0.0374544 -0.261206 -0.370131 -0.0405517 -0.259791 
-0.3616 -0.0340311 -0.255814 -0.352284 -0.0209217 -0.256443 -0.355263 -0.00871037 -0.257497 
-0.351635 -0.00735257 -0.255412 -0.351403 -0.00372346 -0.257094 -0.353754 0.000736108 -0.257231 
-0.351495 0.0129377 -0.257112 -0.354558 0.0205216 -0.257639 -0.349234 -0.0125885 -0.253336 
-0.352258 -0.00283329 -0.252615 -0.345808 -0.00515562 -0.253644 -0.342016 -0.00578397 -0.251215 
-0.344018 -0.00285712 -0.252312 -0.341444 0.0138709 -0.250998 -0.34594 0.0186202 -0.25354 
-0.343025 0.0188189 -0.252259 -0.349967 0.0218363 -0.253833 -0.342584 -0.0135207 -0.249656 
-0.337112 -0.0133456 -0.247797 -0.334016 -0.00926952 -0.246782 -0.338831 -0.00608496 -0.249454 
-0.335449 0.0160789 -0.247483 -0.340352 0.0177718 -0.248241 -0.335568 0.019443 -0.246888 
-0.345736 0.0231012 -0.249242 -0.340716 0.0249633 -0.247704 -0.356858 0.0427843 -0.249311 
-0.361052 -0.0463693 -0.246955 -0.327889 -0.0145838 -0.243576 -0.32933 -0.0106696 -0.24333 
-0.332354 -0.005754 -0.245091 -0.327877 -0.00219027 -0.244266 -0.330317 0.00137109 -0.244572 
-0.323321 0.00161076 -0.242386 -0.329523 0.00741756 -0.245255 -0.328384 0.00978075 -0.243419 
-0.325135 0.00948582 -0.24274 -0.333199 0.0139614 -0.246459 -0.331631 0.010423 -0.245685 
-0.332633 0.0179183 -0.245051 -0.330814 0.0138065 -0.244101 -0.343177 0.0320151 -0.246256 
-0.347339 0.0358275 -0.246938 -0.381429 -0.0580596 -0.244155 -0.325706 -0.0163821 -0.240534 
-0.322581 -0.0124669 -0.239985 -0.317966 -0.0105667 -0.239624 -0.321062 -0.00877491 -0.240991 
-0.320692 -0.00452915 -0.24003 -0.314702 0.001782 -0.238732 -0.319702 0.004773 -0.240233 
-0.317346 0.00296725 -0.239683 -0.320975 0.00743692 -0.241017 -0.324907 -0.0327875 -0.236262 
-0.319847 -0.0289949 -0.236542 -0.317575 -0.026517 -0.236422 -0.311576 -0.0102988 -0.236872 
-0.308964 -0.00700961 -0.236171 -0.311463 -0.00495435 -0.237298 -0.312705 -0.000525237 -0.23798 
-0.306791 0.000159836 -0.2355 -0.312196 0.00299147 -0.237599 -0.312085 0.00634187 -0.237342 
-0.317647 0.0082002 -0.239541 -0.316098 0.0120527 -0.237591 -0.311575 -0.0244037 -0.233365 
-0.304167 -0.00924063 -0.232868 -0.299607 -0.00935283 -0.232025 -0.304098 -0.00532411 -0.234179 
-0.299605 -0.00285825 -0.232369 -0.302833 0.00158227 -0.232658 -0.323629 0.00504432 -0.233536 
-0.305911 0.00541029 -0.234799 -0.293553 -0.0117153 -0.229223 -0.296395 -0.00806211 -0.230816 
-0.295751 -0.0042247 -0.229612 -0.291092 -0.00652069 -0.228652 -0.292826 -0.000474986 -0.229591 
-0.290236 -0.00177597 -0.228281 -0.298722 0.00577109 -0.231743 -0.293716 0.0053251 -0.229662 
-0.299207 0.00903349 -0.231741 -0.299554 0.0218136 -0.230002 -0.306935 -0.0419317 -0.226662 
-0.294826 -0.0271039 -0.226892 -0.289904 -0.0107724 -0.22779 -0.284141 -0.00391286 -0.225809 
-0.290226 0.0154577 -0.226244 -0.295531 0.02209 -0.227175 -0.302037 0.0342286 -0.226516 
-0.303313 0.0381437 -0.226846 -0.329467 0.0545712 -0.22757 -0.313701 -0.0498827 -0.223849 
-0.297508 -0.0406798 -0.223313 -0.291153 -0.0349079 -0.22298 -0.283436 -0.0183272 -0.224103 
-0.28264 -0.0151682 -0.224259 -0.284497 -0.00849435 -0.22468 -0.278596 -0.0100699 -0.222022 
-0.280697 -0.00559933 -0.223213 -0.276075 -0.005386 -0.221275 -0.277658 0.000808682 -0.222013 
-0.282152 0.0156941 -0.222805 -0.293234 0.030415 -0.225231 -0.273288 -0.0180068 -0.219933 
-0.276814 -0.0156691 -0.22067 -0.272194 -0.00605901 -0.220679 -0.266412 0.00125422 -0.218389 
-0.276679 0.0152348 -0.220541 -0.280396 0.0268371 -0.221087 -0.277246 0.0314293 -0.218383 
-0.297592 -0.0551526 -0.215544 -0.259767 -0.0120148 -0.215005 -0.265342 -0.00592537 -0.217801 
-0.263485 -0.000174493 -0.217222 -0.259677 -0.00251956 -0.215556 -0.26064 0.000447828 -0.215984 
-0.257945 0.00400123 -0.213587 -0.263059 0.00705024 -0.216701 -0.258841 0.0151677 -0.214179 
-0.266614 0.0191828 -0.215713 -0.266171 0.0244034 -0.214256 -0.254876 -0.015957 -0.212477 
-0.254591 -0.00937131 -0.213106 -0.259725 -0.00651494 -0.214322 -0.252065 -0.00449696 -0.212265 
-0.249378 0.000380613 -0.211204 -0.256931 0.0105339 -0.212874 -0.260529 0.0192784 -0.213163 
-0.255573 0.0195733 -0.212125 -0.297847 0.0472487 -0.215469 -0.245365 -0.0134414 -0.207649 
-0.245249 -0.00448814 -0.209389 -0.239262 -0.00354929 -0.206922 -0.249341 0.00627576 -0.209767 
-0.252134 0.0117888 -0.208491 -0.246497 0.0119511 -0.209451 -0.261521 0.0145436 -0.211183 
-0.253543 0.0160555 -0.210709 -0.247962 0.0194107 -0.208979 -0.253311 0.0265219 -0.208785 
-0.250131 0.0293779 -0.207805 -0.2572 0.0320553 -0.208906 -0.247095 -0.0273539 -0.207136 
-0.263958 -0.0154955 -0.211748 -0.239172 -0.0175723 -0.205649 -0.234395 -0.00241183 -0.204937 
-0.252081 0.0079572 -0.205228 -0.237455 0.00651836 -0.205935 -0.239579 0.0105824 -0.205609 
-0.245078 0.0161082 -0.206267 -0.23989 0.0169851 -0.205957 -0.234247 0.0138611 -0.204006 
-0.242326 0.0190008 -0.206678 -0.235368 0.0170489 -0.204053 -0.243554 0.0347168 -0.203726 
-0.261317 0.0410447 -0.207577 -0.229434 -0.0157338 -0.201803 -0.234242 -0.0115936 -0.20308 
-0.227273 -0.0128878 -0.200036 -0.223542 -0.0078201 -0.199993 -0.226999 0.00164158 -0.201675 
[...]
POINT_DATA 848
FIELD FieldData 7
id 1 848 int
1124 1121 1115 1116 1126 422 322 363 226 
249 282 9 275 316 263 470 447 218 
245 395 314 262 354 310 353 269 267 
273 192 260 232 281 390 450 214 283 
304 339 343 492 194 320 90 410 423 
347 239 303 292 266 381 530 344 335 
333 405 371 227 331 388 243 430 248 
439 274 286 372 271 330 246 240 300 
407 311 323 257 231 490 382 349 409 
315 384 235 279 444 341 433 318 285 
362 203 427 387 302 268 486 313 258 
238 247 370 397 456 374 237 441 336 
309 350 216 411 291 340 378 425 417 
466 389 414 476 408 401 424 355 440 
396 358 416 338 403 365 462 351 398 
421 394 326 509 471 346 455 400 428 
473 328 359 373 488 511 448 474 356 
361 434 624 522 508 301 360 479 334 
404 406 375 325 483 484 345 453 521 
497 478 437 519 504 319 454 385 493 
536 559 364 598 468 451 452 496 489 
415 420 442 531 459 376 554 600 546 
475 538 463 413 393 458 499 380 469 
503 558 487 482 465 445 431 357 392 
391 481 556 494 477 461 500 312 541 
435 412 579 547 342 542 501 419 369 
505 523 498 507 608 491 383 460 379 
515 426 524 582 555 552 495 548 640 
485 464 502 449 512 656 631 457 662 
527 651 516 537 676 659 562 588 467 
402 634 529 602 573 597 550 576 571 
534 564 532 517 525 563 572 682 526 
545 510 540 658 581 616 605 595 590 
621 514 702 716 574 561 630 609 589 
566 535 528 612 557 520 669 544 577 
539 601 650 666 578 533 593 677 603 
551 668 614 570 626 633 443 652 683 
594 611 734 615 586 617 691 506 700 
663 672 585 636 661 623 708 648 599 
675 436 543 653 664 610 580 618 638 
629 549 604 518 643 718 764 619 480 
715 697 655 639 717 671 620 569 695 
786 678 791 584 607 681 694 565 628 
728 684 592 673 705 635 649 739 725 
632 794 667 687 606 583 637 553 721 
748 646 749 752 567 627 703 685 647 
645 654 699 689 641 657 692 770 670 
560 704 591 698 596 575 613 665 568 
625 740 674 513 727 642 780 644 710 
690 686 622 587 737 720 768 432 807 
755 784 688 760 741 731 713 758 751 
711 788 789 781 759 709 747 742 778 
696 754 745 766 804 772 793 825 719 
802 787 835 765 722 756 733 811 867 
761 730 757 735 767 812 779 693 680 
774 706 763 743 723 744 783 736 660 
792 701 729 707 746 801 785 773 726 
799 753 712 795 776 824 738 750 798 
847 822 800 840 819 829 472 820 714 
818 826 777 790 808 803 769 771 806 
805 837 830 856 841 782 875 827 775 
851 796 873 844 853 892 823 843 859 
762 831 880 852 842 821 797 814 833 
858 836 862 810 869 834 679 838 839 
846 732 848 877 809 832 932 866 919 
816 887 907 863 828 815 845 850 864 
817 849 913 905 900 894 914 916 891 
868 874 918 879 854 813 865 882 895 
922 896 945 903 876 926 940 881 915 
944 904 962 930 899 939 935 911 886 
855 951 898 861 933 920 884 885 966 
965 883 901 889 872 958 878 941 946 
961 924 968 871 917 870 921 890 937 
902 893 963 923 927 973 960 938 978 
909 969 910 947 925 972 936 950 984 
956 986 912 928 860 975 908 971 970 
897 934 957 942 976 949 967 954 929 
964 857 943 955 959 983 724 906 948 
977 982 974 979 952 985 953 931 980 
981 990 988 998 989 996 888 995 992 
993 994 999 987 997 991 1009 1011 1004 
1007 1010 1002 1003 1000 1005 1008 1001 1012 
1006 1017 1021 1023 1020 1014 1019 1013 1018 
1022 1024 1015 1016 1035 1036 1033 1037 1027 
1029 1031 1034 1032 1025 1030 1028 1026 1046 
1049 1041 1042 1047 1050 1045 1048 1043 1044 
1040 1039 1038 1059 1053 1063 1052 1057 1060 
1054 1061 1062 1051 1056 1058 1055 1065 1076 
1072 1075 1069 1074 1070 1073 1067 1064 1068 
1071 1085 1084 1066 1087 1083 1082 1081 1080 
1078 1077 1088 1086 1096 1100 1079 1092 1091 
1089 1094 1101 1099 1095 1090 1097 1098 1103 
1107 1102 1112 1093 1109 1108 1105 1111 1113 
1123 1104 1106 1110 1120 1114 1119 1125 1122 
1117 1118 
type 1 848 int
1 1 1 1 1 1 1 1 1 
1 1 1 1 1 1 1 1 1 
1 1 1 1 1 1 1 1 1 
1 1 1 1 1 1 1 1 1 
1 1 1 1 1 1 1 1 1 
1 1 1 1 1 1 1 1 1 
1 1 1 1 1 1 1 1 1 
1 1 1 1 1 1 1 1 1 
1 1 1 1 1 1 1 1 1 
1 1 1 1 1 1 1 1 1 
1 1 1 1 1 1 1 1 1 
1 1 1 1 1 1 1 1 1 
1 1 1 1 1 1 1 1 1 
1 1 1 1 1 1 1 1 1 
1 1 1 1 1 1 1 1 1 
1 1 1 1 1 1 1 1 1 
1 1 1 1 1 1 1 1 1 
1 1 1 1 1 1 1 1 1 
1 1 1 1 1 1 1 1 1 
1 1 1 1 1 1 1 1 1 
1 1 1 1 1 1 1 1 1 
1 1 1 1 1 1 1 1 1 
1 1 1 1 1 1 1 1 1 
1 1 1 1 1 1 1 1 1 
1 1 1 1 1 1 1 1 1 
1 1 1 1 1 1 1 1 1 
1 1 1 1 1 1 1 1 1 
1 1 1 1 1 1 1 1 1 
1 1 1 1 1 1 1 1 1 
1 1 1 1 1 1 1 1 1 
1 1 1 1 1 1 1 1 1 
1 1 1 1 1 1 1 1 1 
1 1 1 1 1 1 1 1 1 
1 1 1 1 1 1 1 1 1 
1 1 1 1 1 1 1 1 1 
1 1 1 1 1 1 1 1 1 
1 1 1 1 1 1 1 1 1 
1 1 1 1 1 1 1 1 1 
1 1 1 1 1 1 1 1 1 
1 1 1 1 1 1 1 1 1 
1 1 1 1 1 1 1 1 1 
1 1 1 1 1 1 1 1 1 
1 1 1 1 1 1 1 1 1 
1 1 1 1 1 1 1 1 1 
1 1 1 1 1 1 1 1 1 
1 1 1 1 1 1 1 1 1 
1 1 1 1 1 1 1 1 1 
1 1 1 1 1 1 1 1 1 
1 1 1 1 1 1 1 1 1 
1 1 1 1 1 1 1 1 1 
1 1 1 1 1 1 1 1 1 
1 1 1 1 1 1 1 1 1 
1 1 1 1 1 1 1 1 1 
1 1 1 1 1 1 1 1 1 
1 1 1 1 1 1 1 1 1 
1 1 1 1 1 1 1 1 1 
1 1 1 1 1 1 1 1 1 
1 1 1 1 1 1 1 1 1 
1 1 1 1 1 1 1 1 1 
1 1 1 1 1 1 1 1 1 
1 1 1 1 1 1 1 1 1 
1 1 1 1 1 1 1 1 1 
1 1 1 1 1 1 1 1 1 
1 1 1 1 1 1 1 1 1 
1 1 1 1 1 1 1 1 1 
1 1 1 1 1 1 1 1 1 
1 1 1 1 1 1 1 1 1 
1 1 1 1 1 1 1 1 1 
1 1 1 1 1 1 1 1 1 
1 1 1 1 1 1 1 1 1 
1 1 1 1 1 1 1 1 1 
1 1 1 1 1 1 1 1 1 
1 1 1 1 1 1 1 1 1 
1 1 1 1 1 1 1 1 1 
1 1 1 1 1 1 1 1 1 
1 1 1 1 1 1 1 1 1 
1 1 1 1 1 1 1 1 1 
1 1 1 1 1 1 1 1 1 
1 1 1 1 1 1 1 1 1 
1 1 1 1 1 1 1 1 1 
1 1 1 1 1 1 1 1 1 
1 1 1 1 1 1 1 1 1 
1 1 1 1 1 1 1 1 1 
1 1 1 1 1 1 1 1 1 
1 1 1 1 1 1 1 1 1 
1 1 1 1 1 1 1 1 1 
1 1 1 1 1 1 1 1 1 
1 1 1 1 1 1 1 1 1 
1 1 1 1 1 1 1 1 1 
1 1 1 1 1 1 1 1 1 
1 1 1 1 1 1 1 1 1 
1 1 1 1 1 1 1 1 1 
1 1 1 1 1 1 1 1 1 
1 1 1 1 1 1 1 1 1 
1 1 
i 3 848 int
0 0 0 0 0 0 0 0 0 
0 0 0 0 0 0 0 0 0 
0 0 0 0 0 0 0 0 0 
0 0 0 0 0 0 0 0 0 
0 0 0 0 0 0 0 0 0 
0 0 0 0 0 0 0 0 0 
0 0 0 0 0 0 0 0 0 
0 0 0 0 0 0 0 0 0 
0 0 0 0 0 0 0 0 0 
0 0 0 0 0 0 0 0 0 
0 0 0 0 0 0 0 0 0 
0 0 0 0 0 0 0 0 0 
0 0 0 0 0 0 0 0 0 
0 0 0 0 0 0 0 0 0 
0 0 0 0 0 0 0 0 0 
0 0 0 0 0 0 0 0 0 
0 0 0 0 0 0 0 0 0 
0 0 0 0 0 0 0 0 0 
0 0 0 0 0 0 0 0 0 
0 0 0 0 0 0 0 0 0 
0 0 0 0 0 0 0 0 0 
0 0 0 0 0 0 0 0 0 
0 0 0 0 0 0 0 0 0 
0 0 0 0 0 0 0 0 0 
0 0 0 0 0 0 0 0 0 
0 0 0 0 0 0 0 0 0 
0 0 0 0 0 0 0 0 0 
0 0 0 0 0 0 0 0 0 
0 0 0 0 0 0 0 0 0 
0 0 0 0 0 0 0 0 0 
0 0 0 0 0 0 0 0 0 
0 0 0 0 0 0 0 0 0 
0 0 0 0 0 0 0 0 0 
0 0 0 0 0 0 0 0 0 
0 0 0 0 0 0 0 0 0 
0 0 0 0 0 0 0 0 0 
0 0 0 0 0 0 0 0 0 
0 0 0 0 0 0 0 0 0 
0 0 0 0 0 0 0 0 0 
0 0 0 0 0 0 0 0 0 
0 0 0 0 0 0 0 0 0 
0 0 0 0 0 0 0 0 0 
0 0 0 0 0 0 0 0 0 
0 0 0 0 0 0 0 0 0 
0 0 0 0 0 0 0 0 0 
0 0 0 0 0 0 0 0 0 
0 0 0 0 0 0 0 0 0 
0 0 0 0 0 0 0 0 0 
0 0 0 0 0 0 0 0 0 
0 0 0 0 0 0 0 0 0 
0 0 0 0 0 0 0 0 0 
0 0 0 0 0 0 0 0 0 
0 0 0 0 0 0 0 0 0 
0 0 0 0 0 0 0 0 0 
0 0 0 0 0 0 0 0 0 
0 0 0 0 0 0 0 0 0 
0 0 0 0 0 0 0 0 0 
0 0 0 0 0 0 0 0 0 
0 0 0 0 0 0 0 0 0 
0 0 0 0 0 0 0 0 0 
0 0 0 0 0 0 0 0 0 
0 0 0 0 0 0 0 0 0 
0 0 0 0 0 0 0 0 0 
0 0 0 0 0 0 0 0 0 
0 0 0 0 0 0 0 0 0 
0 0 0 0 0 0 0 0 0 
0 0 0 0 0 0 0 0 0 
0 0 0 0 0 0 0 0 0 
0 0 0 0 0 0 0 0 0 
0 0 0 0 0 0 0 0 0 
0 0 0 0 0 0 0 0 0 
0 0 0 0 0 0 0 0 0 
0 0 0 0 0 0 0 0 0 
0 0 0 0 0 0 0 0 0 
0 0 0 0 0 0 0 0 0 
0 0 0 0 0 0 0 0 0 
0 0 0 0 0 0 0 0 0 
0 0 0 0 0 0 0 0 0 
0 0 0 0 0 0 0 0 0 
0 0 0 0 0 0 0 0 0 
0 0 0 0 0 0 0 0 0 
0 0 0 0 0 0 0 0 0 
0 0 0 0 0 0 0 0 0 
0 0 0 0 0 0 0 0 0 
0 0 0 0 0 0 0 0 0 
0 0 0 0 0 0 0 0 0 
0 0 0 0 0 0 0 0 0 
0 0 0 0 0 0 0 0 0 
0 0 0 0 0 0 0 0 0 
0 0 0 0 0 0 0 0 0 
0 0 0 0 0 0 0 0 0 
0 0 0 0 0 0 0 0 0 
0 0 0 0 0 0 0 0 0 
0 0 0 0 0 0 0 0 0 
0 0 0 0 0 0 0 0 0 
0 0 0 0 0 0 0 0 0 
0 0 0 0 0 0 0 0 0 
0 0 0 0 0 0 0 0 0 
0 0 0 0 0 0 0 0 0 
0 0 0 0 0 0 0 0 0 
0 0 0 0 0 0 0 0 0 
0 0 0 0 0 0 0 0 0 
0 0 0 0 0 0 0 0 0 
0 0 0 0 0 0 0 0 0 
0 0 0 0 0 0 0 0 0 
0 0 0 0 0 0 0 0 0 
0 0 0 0 0 0 0 0 0 
0 0 0 0 0 0 0 0 0 
0 0 0 0 0 0 0 0 0 
0 0 0 0 0 0 0 0 0 
0 0 0 0 0 0 0 0 0 
0 0 0 0 0 0 0 0 0 
0 0 0 0 0 0 0 0 0 
0 0 0 0 0 0 0 0 0 
0 0 0 0 0 0 0 0 0 
0 0 0 0 0 0 0 0 0 
0 0 0 0 0 0 0 0 0 
0 0 0 0 0 0 0 0 0 
0 0 0 0 0 0 0 0 0 
0 0 0 0 0 0 0 0 0 
0 0 0 0 0 0 0 0 0 
0 0 0 0 0 0 0 0 0 
0 0 0 0 0 0 0 0 0 
0 0 0 0 0 0 0 0 0 
0 0 0 0 0 0 0 0 0 
0 0 0 0 0 0 0 0 0 
0 0 0 0 0 0 0 0 0 
0 0 0 0 0 0 0 0 0 
0 0 0 0 0 0 0 0 0 
0 0 0 0 0 0 0 0 0 
0 0 0 0 0 0 0 0 0 
0 0 0 0 0 0 0 0 0 
0 0 0 0 0 0 0 0 0 
0 0 0 0 0 0 0 0 0 
0 0 0 0 0 0 0 0 0 
0 0 0 0 0 0 0 0 0 
0 0 0 0 0 0 0 0 0 
0 0 0 0 0 0 0 0 0 
0 0 0 0 0 0 0 0 0 
0 0 0 0 0 0 0 0 0 
0 0 0 0 0 0 0 0 0 
0 0 0 0 0 0 0 0 0 
0 0 0 0 0 0 0 0 0 
0 0 0 0 0 0 0 0 0 
0 0 0 0 0 0 0 0 0 
0 0 0 0 0 0 0 0 0 
0 0 0 0 0 0 0 0 0 
0 0 0 0 0 0 0 0 0 
0 0 0 0 0 0 0 0 0 
0 0 0 0 0 0 0 0 0 
0 0 0 0 0 0 0 0 0 
0 0 0 0 0 0 0 0 0 
0 0 0 0 0 0 0 0 0 
0 0 0 0 0 0 0 0 0 
0 0 0 0 0 0 0 0 0 
0 0 0 0 0 0 0 0 0 
0 0 0 0 0 0 0 0 0 
0 0 0 0 0 0 0 0 0 
0 0 0 0 0 0 0 0 0 
0 0 0 0 0 0 0 0 0 
0 0 0 0 0 0 0 0 0 
0 0 0 0 0 0 0 0 0 
0 0 0 0 0 0 0 0 0 
0 0 0 0 0 0 0 0 0 
0 0 0 0 0 0 0 0 0 
0 0 0 0 0 0 0 0 0 
0 0 0 0 0 0 0 0 0 
0 0 0 0 0 0 0 0 0 
0 0 0 0 0 0 0 0 0 
0 0 0 0 0 0 0 0 0 
0 0 0 0 0 0 0 0 0 
0 0 0 0 0 0 0 0 0 
0 0 0 0 0 0 0 0 0 
0 0 0 0 0 0 0 0 0 
0 0 0 0 0 0 0 0 0 
0 0 0 0 0 0 0 0 0 
0 0 0 0 0 0 0 0 0 
0 0 0 0 0 0 0 0 0 
0 0 0 0 0 0 0 0 0 
0 0 0 0 0 0 0 0 0 
0 0 0 0 0 0 0 0 0 
0 0 0 0 0 0 0 0 0 
0 0 0 0 0 0 0 0 0 
0 0 0 0 0 0 0 0 0 
0 0 0 0 0 0 0 0 0 
0 0 0 0 0 0 0 0 0 
0 0 0 0 0 0 0 0 0 
0 0 0 0 0 0 0 0 0 
0 0 0 0 0 0 0 0 0 
0 0 0 0 0 0 0 0 0 
0 0 0 0 0 0 0 0 0 
0 0 0 0 0 0 0 0 0 
0 0 0 0 0 0 0 0 0 
0 0 0 0 0 0 0 0 0 
0 0 0 0 0 0 0 0 0 
0 0 0 0 0 0 0 0 0 
0 0 0 0 0 0 0 0 0 
0 0 0 0 0 0 0 0 0 
0 0 0 0 0 0 0 0 0 
0 0 0 0 0 0 0 0 0 
0 0 0 0 0 0 0 0 0 
0 0 0 0 0 0 0 0 0 
0 0 0 0 0 0 0 0 0 
0 0 0 0 0 0 0 0 0 
0 0 0 0 0 0 0 0 0 
0 0 0 0 0 0 0 0 0 
0 0 0 0 0 0 0 0 0 
0 0 0 0 0 0 0 0 0 
0 0 0 0 0 0 0 0 0 
0 0 0 0 0 0 0 0 0 
0 0 0 0 0 0 0 0 0 
0 0 0 0 0 0 0 0 0 
0 0 0 0 0 0 0 0 0 
0 0 0 0 0 0 0 0 0 
0 0 0 0 0 0 0 0 0 
0 0 0 0 0 0 0 0 0 
0 0 0 0 0 0 0 0 0 
0 0 0 0 0 0 0 0 0 
0 0 0 0 0 0 0 0 0 
0 0 0 0 0 0 0 0 0 
0 0 0 0 0 0 0 0 0 
0 0 0 0 0 0 0 0 0 
0 0 0 0 0 0 0 0 0 
0 0 0 0 0 0 0 0 0 
0 0 0 0 0 0 0 0 0 
0 0 0 0 0 0 0 0 0 
0 0 0 0 0 0 0 0 0 
0 0 0 0 0 0 0 0 0 
0 0 0 0 0 0 0 0 0 
0 0 0 0 0 0 0 0 0 
0 0 0 0 0 0 0 0 0 
0 0 0 0 0 0 0 0 0 
0 0 0 0 0 0 0 0 0 
0 0 0 0 0 0 0 0 0 
0 0 0 0 0 0 0 0 0 
0 0 0 0 0 0 0 0 0 
0 0 0 0 0 0 0 0 0 
0 0 0 0 0 0 0 0 0 
0 0 0 0 0 0 0 0 0 
0 0 0 0 0 0 0 0 0 
0 0 0 0 0 0 0 0 0 
0 0 0 0 0 0 0 0 0 
0 0 0 0 0 0 0 0 0 
0 0 0 0 0 0 0 0 0 
0 0 0 0 0 0 0 0 0 
0 0 0 0 0 0 0 0 0 
0 0 0 0 0 0 0 0 0 
0 0 0 0 0 0 0 0 0 
0 0 0 0 0 0 0 0 0 
0 0 0 0 0 0 0 0 0 
0 0 0 0 0 0 0 0 0 
0 0 0 0 0 0 0 0 0 
0 0 0 0 0 0 0 0 0 
0 0 0 0 0 0 0 0 0 
0 0 0 0 0 0 0 0 0 
0 0 0 0 0 0 0 0 0 
0 0 0 0 0 0 0 0 0 
0 0 0 0 0 0 0 0 0 
0 0 0 0 0 0 0 0 0 
0 0 0 0 0 0 0 0 0 
0 0 0 0 0 0 0 0 0 
0 0 0 0 0 0 0 0 0 
0 0 0 0 0 0 0 0 0 
0 0 0 0 0 0 0 0 0 
0 0 0 0 0 0 0 0 0 
0 0 0 0 0 0 0 0 0 
0 0 0 0 0 0 0 0 0 
0 0 0 0 0 0 0 0 0 
0 0 0 0 0 0 0 0 0 
0 0 0 0 0 0 0 0 0 
0 0 0 0 0 0 0 0 0 
0 0 0 0 0 0 0 0 0 
0 0 0 0 0 0 0 0 0 
0 0 0 0 0 0 0 0 0 
0 0 0 0 0 0 0 0 0 
0 0 0 0 0 0 0 0 0 
0 0 0 0 0 0 0 0 0 
0 0 0 0 0 0 0 0 0 
0 0 0 0 0 0 0 0 0 
0 0 0 0 0 0 0 0 0 
0 0 0 0 0 0 0 0 0 
0 0 0 0 0 0 0 0 0 
0 0 0 0 0 0 
v 3 848 double
0 0 -1 0 0 -1 0 0 -1 
0 0 -1.02183 0 0 -1 -1.1733 0.0988828 -1.81066 
-0.869817 -0.00150807 -1.80382 -1.02522 -0.00200384 -1.81294 -1.06313 0.00445064 -1.81177 
-0.972206 0.017927 -1.84945 -1.15535 -0.103215 -1.84871 -0.932172 0.0238375 -1.76457 
-0.872559 0.00369671 -1.78054 -0.799095 -0.00654769 -1.73967 -0.947096 -0.00797505 -1.76161 
-1.23319 -0.192602 -1.89738 -0.926394 0.0267947 -1.76918 -1.02037 -0.0786758 -1.74435 
-0.91898 -0.00396899 -1.72161 -0.954613 -0.0141135 -1.71285 -0.866549 0.0242124 -1.78503 
-0.999198 0.0139077 -1.76939 -1.01691 -0.0350097 -1.71756 -1.1472 -0.0183688 -1.73091 
-1.17455 0.00213935 -1.62032 -1.0998 -0.352139 -1.95614 -0.991645 -0.0691342 -1.66205 
-1.0023 -0.0519058 -1.62395 -1.05742 0.0242824 -1.68246 -1.10544 0.13779 -1.63171 
-1.04109 -0.0484752 -1.61874 -0.981739 0.0246476 -1.58136 -1.04277 -0.035549 -1.59822 
-1.29086 0.0387144 -1.77781 -0.856023 -0.0684415 -1.5706 -1.10271 -0.0537043 -1.55688 
-1.06991 -0.0119744 -1.555 -0.990987 -0.0714607 -1.54366 -0.794857 -0.098041 -1.53561 
-1.06397 0.0468983 -1.52751 -0.995767 -0.0747155 -1.53103 -1.04419 -0.0747482 -1.5333 
-0.923074 -0.043184 -1.5212 -0.960106 -0.31955 -1.5324 -1.12514 0.00747823 -1.51112 
-1.02937 -0.0923633 -1.50781 -1.12293 0.202184 -1.57299 -0.994533 -0.0896564 -1.47509 
-0.979641 -0.0426487 -1.47147 -0.932991 -0.0490747 -1.45937 -0.866472 -0.0593439 -1.42805 
-1.34411 0.334957 -1.73854 -1.127 0.250494 -1.46517 -1.16734 0.234822 -1.46661 
-1.02326 0.0062165 -1.41244 -0.945535 0.102847 -1.36978 -1.15937 0.122977 -1.4005 
-1.00294 0.0450333 -1.42297 -1.02475 -0.0380415 -1.31863 -1.02165 0.0628256 -1.38596 
-0.985926 0.0910313 -1.33626 -0.802616 0.032427 -1.41186 -0.998172 0.00324232 -1.33447 
-1.11506 0.113075 -1.36747 -0.986794 0.0972019 -1.30458 -0.907793 -0.0395894 -1.40977 
-0.830709 0.00649009 -1.27738 -0.998069 0.0921414 -1.30063 -0.936143 0.0770964 -1.27374 
-1.0468 -0.0181709 -1.2942 -0.985956 -0.081936 -1.3478 -0.932285 -0.0356725 -1.29629 
-0.958901 -0.0291744 -1.28467 -0.960552 0.055869 -1.30247 -1.02025 0.0212255 -1.29684 
-1.0272 0.0478394 -1.26572 -0.992931 0.0238809 -1.26194 -1.2071 0.118193 -1.29976 
-0.83647 0.00317316 -1.17919 -0.927079 -0.0147077 -1.20759 -0.916555 -0.0428759 -1.20684 
-0.865025 -0.02127 -1.17128 -1.03862 0.0475926 -1.20212 -0.874009 -0.0623955 -1.12197 
-0.963324 0.0173019 -1.14397 -1.1763 0.00426347 -1.18806 -1.10461 -0.00201365 -1.46465 
-0.929813 0.0235185 -1.09205 -0.917868 -0.00366522 -1.08466 -0.913514 0.0195782 -1.08926 
-0.902815 0.0202269 -1.0934 -0.900739 0.0568734 -1.06657 -0.821007 -0.105127 -1.09211 
-0.95286 0.00749167 -1.05652 -0.988834 0.0827193 -1.09485 -1.02361 0.0238263 -1.07358 
-1.20355 0.403443 -1.17693 -0.947958 -0.0147564 -1.04282 -0.899669 0.0500074 -1.03925 
-0.836625 0.0235689 -0.982916 -1.25276 0.059688 -0.979947 -0.887789 0.0696155 -1.01822 
-0.883967 0.0901125 -1.02404 -0.920656 -0.0836542 -1.05378 -0.992012 -0.0175397 -0.980591 
-0.783583 -0.013065 -0.962377 -0.856095 0.00445023 -1.04751 -0.90938 -0.0126162 -1.02931 
-1.02207 0.115487 -1.03604 -0.985017 0.0114707 -1.00427 -0.813242 -0.0219888 -0.939279 
-0.826899 -0.00636139 -0.931723 -0.741908 -0.056456 -0.978818 -0.77217 -0.0211985 -0.930618 
-0.911898 0.0740498 -0.943385 -1.0337 0.0883194 -1.01201 -1.10297 0.078731 -0.934262 
-1.09902 0.050074 -0.881074 -0.886843 0.0505395 -0.878585 -0.841933 0.0702072 -0.933896 
-0.881715 0.0783676 -0.924455 -0.869085 0.042873 -0.939671 -0.747405 -0.0878178 -0.91562 
-0.907835 0.00793758 -0.93344 -1.06982 -0.0132149 -0.825373 -1.11649 0.0800817 -0.923573 
-0.932769 -0.0510391 -0.871576 -0.890207 0.0042187 -0.857561 -0.834925 -0.0715943 -0.904086 
-0.908372 0.0712862 -0.805337 -0.892452 0.0461076 -0.841697 -1.02095 -0.00221571 -0.830006 
-0.923992 0.0449146 -0.822135 -0.783277 -0.00454099 -0.826673 -0.952383 -0.0840772 -0.875435 
-0.737249 -0.00779239 -0.838389 -0.922407 -0.0582402 -0.738897 -1.00816 0.103532 -0.847968 
-1.33097 -0.0228799 -0.956348 -1.12181 0.120934 -0.836537 -1.13859 -0.0651405 -0.816957 
-0.889545 -0.0701608 -0.809331 -1.11846 -0.048404 -0.827125 -0.868587 0.164076 -0.946103 
-1.05549 -0.0480319 -0.77442 -1.02869 -0.0310242 -0.76797 -1.18099 -0.0362559 -0.807189 
-1.06668 0.0265891 -0.774723 -1.10454 0.1873 -0.797962 -1.10834 0.086467 -0.761452 
-0.902913 -0.0993569 -0.832026 -0.962 -0.0694462 -0.770808 -0.922908 -0.00855259 -0.72114 
-1.04652 0.0182977 -0.792102 -1.078 -0.106667 -0.8683 -1.13436 0.299329 -1.01076 
-1.09224 0.110728 -0.763329 -1.19167 0.170927 -0.829696 -1.14883 0.0206661 -0.701519 
-1.14115 0.0911963 -0.690331 -0.888324 0.111072 -0.691677 -1.18391 0.0946498 -0.722127 
-1.08802 0.0246765 -0.722091 -1.04452 -0.163199 -0.762456 -1.14328 0.108922 -0.694211 
-0.93597 0.131981 -0.571988 -1.12301 0.0663455 -0.684261 -1.11575 0.0676828 -0.630656 
-1.11941 0.0637183 -0.630934 -1.01988 0.0984766 -0.609573 -1.01804 0.0191447 -0.698319 
-1.00189 0.0176786 -0.699392 -1.13995 0.0204375 -0.70583 -1.1271 0.118884 -0.647037 
-1.12192 0.120817 -0.592669 -1.09572 0.00565963 -0.550735 -1.11387 0.0559059 -0.601551 
-0.987036 0.138615 -0.614005 -1.03338 0.00948789 -0.60201 -1.00888 0.131795 -0.567797 
-1.1999 0.103174 -0.596348 -1.17771 0.176402 -0.606256 -1.06723 -0.0686863 -0.723221 
-1.31979 0.343589 -0.928942 -1.00778 0.00330398 -0.509245 -1.11009 0.0124761 -0.511942 
-1.08264 -0.000809601 -0.528943 -1.05017 -0.0886814 -0.466692 -1.0182 -0.0286908 -0.509968 
-0.987334 -0.0303681 -0.432869 -0.991234 -0.0147167 -0.551001 -1.06718 0.0399869 -0.494536 
-1.03892 -0.0314253 -0.500926 -1.0274 -0.0230512 -0.602728 -1.13508 -0.11797 -0.570644 
-1.03755 0.111512 -0.508202 -1.10372 -0.0456387 -0.40194 -1.19934 -0.152983 -0.691798 
-0.918557 -0.124624 -0.650052 -1.15177 0.220647 -0.928024 -1.04031 0.0474049 -0.407276 
-1.1052 0.141449 -0.501056 -1.03243 0.12115 -0.497591 -0.919342 0.137352 -0.378923 
-1.07215 0.144884 -0.441358 -1.02062 0.15012 -0.420714 -0.997735 -0.0754781 -0.479215 
-1.03354 -0.12642 -0.442032 -0.928937 0.00717122 -0.400562 -1.15236 0.144324 -0.487049 
-1.12948 0.197221 -0.546564 -1.15172 0.274072 -0.593011 -0.834322 -0.137757 -0.323751 
-0.912102 0.0521181 -0.38644 -0.873926 0.00104501 -0.369144 -1.06232 0.0906553 -0.451593 
-1.04197 0.0452513 -0.435868 -1.00735 0.107775 -0.417266 -1.22123 0.0446009 -0.511033 
-1.06694 -0.0740084 -0.412219 -1.06244 -0.116526 -0.487582 -1.20268 0.424622 -0.583672 
-1.04312 0.048548 -0.444137 -1.04272 0.0627439 -0.445223 -1.0215 0.0143375 -0.431145 
-1.06099 0.0555228 -0.449982 -1.05767 0.0765373 -0.440903 -1.41003 -0.12167 -0.318952 
-1.14806 -0.00846621 -0.484521 -1.00252 0.0682815 -0.429206 -1.04781 -0.0287938 -0.437693 
-1.07519 -0.0186908 -0.45274 -0.988367 0.0172951 -0.417375 -1.0345 -0.00765231 -0.436013 
-0.973269 0.0752606 -0.429222 -1.07312 -0.0321874 -0.454317 -0.857274 0.157629 -0.351295 
-1.0239 -0.000861542 -0.431912 -0.915333 0.168801 -0.348651 -0.972815 0.110612 -0.43794 
-0.995416 0.0161674 -0.439355 -0.990323 0.0754825 -0.424786 -0.995705 0.163315 -0.425443 
-1.18208 -0.121818 -0.509024 -1.12724 -0.325033 -0.519796 -1.14788 -0.13435 -0.49674 
-1.16153 -0.145758 -0.508961 -1.05167 -0.104868 -0.483519 -0.979696 0.0634984 -0.381326 
-1.10184 0.14709 -0.516145 -1.03035 0.0512141 -0.426342 -0.921871 0.0556957 -0.395392 
-0.888532 0.0560034 -0.379451 -0.946815 0.132073 -0.409644 -1.05523 0.0284914 -0.447753 
-0.942617 0.120923 -0.405464 -0.9732 0.0491089 -0.418181 -1.02752 0.109947 -0.460182 
-1.1103 -0.219596 -0.510586 -1.1152 -0.373872 -0.589871 -1.01531 0.00206002 -0.420336 
-1.06035 -0.0140308 -0.440439 -0.909549 0.140596 -0.332594 -0.981369 0.0133532 -0.410942 
-0.994934 -0.0445912 -0.441806 -0.945013 -0.0525055 -0.414243 -0.868232 -0.0321186 -0.378287 
-1.08018 0.170596 -0.507376 -1.02751 0.0260071 -0.431559 -1.03454 0.0936004 -0.43761 
-0.936177 0.0378454 -0.396249 -0.951724 -0.0266652 -0.405024 -0.907959 0.00149962 -0.385699 
-0.784054 -0.0512893 -0.330362 -0.828974 -0.00853216 -0.34837 -0.947452 -0.0188642 -0.403437 
-0.977753 -0.0418226 -0.424022 -0.941448 -0.0283248 -0.409682 -1.0076 0.0146249 -0.408082 
-1.03359 0.0728696 -0.441801 -1.06196 0.0616781 -0.452448 -0.987617 -0.0101039 -0.413967 
-0.91447 -0.0760042 -0.392329 -0.996385 -0.0478429 -0.418984 -1.03449 0.00296701 -0.427596 
-1.05252 -0.0138915 -0.448061 -1.38796 0.273565 -0.833103 -0.996502 -0.0217473 -0.400073 
-0.941851 0.0156933 -0.395902 -0.918496 0.019607 -0.382954 -0.922868 -0.0818109 -0.400605 
-1.10718 -0.103563 -0.531839 -0.849072 0.0178888 -0.359335 -1.05139 -0.0467386 -0.600576 
-1.02569 -0.00820391 -0.428226 -0.847407 -0.0894393 -0.371941 -0.847002 -0.0467992 -0.365801 
-0.931252 -0.102089 -0.41123 -1.00583 -0.14415 -0.448075 -1.1383 -0.229331 -0.411483 
-1.22753 0.0827829 -1.0778 -0.974177 -0.0942269 -0.374276 -0.883075 -0.00030486 -0.377774 
-1.19053 -0.0348579 -0.411403 -0.954375 -0.0942188 -0.400792 -0.968272 -0.0891187 -0.401043 
-0.901798 0.0751814 -0.454774 -0.914865 -0.0446081 -0.384613 -0.903207 -0.10075 -0.397535 
-0.899971 0.000835551 -0.37203 -0.916829 -0.106398 -0.404635 -0.829492 0.0861702 -0.315387 