# vtk DataFile Version 4.0
Generated by LIGGGHTS
ASCII
DATASET POLYDATA
POINTS 730 float
-0.0150203 0.0210721 0.0583677 -0.492401 0.00868273 -0.396913 -0.466217 -0.0266776 -0.39581 
-0.480344 -0.000751496 -0.38256 -0.484666 0.0132502 -0.384822 -0.478038 0.0140275 -0.376773 
-0.474668 0.00812892 -0.372437 -0.467091 -0.000231389 -0.369321 -0.474328 0.0140952 -0.369051 
-0.481541 0.0237377 -0.37042 -0.460889 -0.0364074 -0.350252 -0.452598 0.0256718 -0.347228 
-0.455969 -0.0315636 -0.345344 -0.44125 -0.0122512 -0.33982 -0.44239 0.00931749 -0.336589 
-0.443192 -0.025289 -0.329591 -0.440264 0.00232414 -0.329621 -0.428149 0.0106454 -0.325983 
-0.423235 0.0173834 -0.32773 -0.436962 -0.0046382 -0.324159 -0.416472 -0.00148113 -0.320989 
-0.42514 0.0115002 -0.320462 -0.427671 0.000942185 -0.317275 -0.417451 -0.00353647 -0.312422 
-0.423627 0.0056214 -0.312078 -0.423819 -0.0129616 -0.310061 -0.410493 -0.00449966 -0.305872 
-0.409879 0.00217179 -0.305503 -0.407423 0.00484413 -0.305824 -0.41447 -0.016409 -0.303037 
-0.406261 0.00266333 -0.298395 -0.403058 0.00509272 -0.29876 -0.403088 0.00997994 -0.298057 
-0.392425 -0.00314427 -0.29041 -0.396262 0.00154434 -0.2913 -0.396434 0.00771858 -0.292434 
-0.396799 0.0128526 -0.289857 -0.396124 -0.00717706 -0.285806 -0.392034 0.00632527 -0.285843 
-0.390295 0.0277269 -0.285501 -0.387519 -0.0122616 -0.282047 -0.389146 -0.00578937 -0.282583 
-0.377642 0.00121066 -0.277862 -0.389883 0.0260593 -0.279009 -0.373381 -0.00135732 -0.27336 
-0.370134 -0.00965302 -0.269193 -0.36727 0.00771467 -0.269365 -0.373822 0.011158 -0.271879 
-0.367515 -0.00635622 -0.266666 -0.382984 0.0393564 -0.26776 -0.359905 0.00441467 -0.26233 
-0.363681 0.00774619 -0.264799 -0.361978 -0.015718 -0.260314 -0.362022 -0.00926486 -0.260559 
-0.353777 0.00496953 -0.26031 -0.357194 0.0100551 -0.259763 -0.356473 0.0208122 -0.258377 
-0.351695 0.0104307 -0.257157 -0.351147 -0.0278149 -0.251849 -0.364833 -0.0186035 -0.252108 
-0.348233 -0.00905559 -0.253338 -0.344221 0.00278166 -0.252699 -0.336645 -0.010626 -0.247843 
-0.336722 -0.00757555 -0.248243 -0.338614 -0.00337126 -0.249634 -0.3355 0.00161377 -0.248233 
-0.340445 0.0132119 -0.249902 -0.348438 0.0252858 -0.250406 -0.337703 -0.0265441 -0.243811 
-0.332951 -0.0226381 -0.243819 -0.335447 -0.018973 -0.244798 -0.332753 -0.0115967 -0.245888 
-0.333533 -0.00801852 -0.246596 -0.332638 9.05257e-05 -0.245753 -0.334738 0.0159421 -0.246382 
-0.345066 -0.0298662 -0.242657 -0.324861 0.00227323 -0.241928 -0.319006 0.00037311 -0.240635 
-0.325819 0.0136363 -0.242622 -0.326929 0.0192915 -0.241985 -0.327782 -0.0305958 -0.239286 
-0.324987 -0.0278837 -0.239091 -0.323919 -0.0250589 -0.239527 -0.321628 -0.0196886 -0.238881 
-0.318418 -0.0167362 -0.238965 -0.315246 -0.015497 -0.236679 -0.315481 -0.0105438 -0.237425 
-0.315286 -0.000882133 -0.239057 -0.311514 -0.00312679 -0.236301 -0.317568 0.00540017 -0.23971 
-0.317589 0.00866026 -0.239512 -0.314364 0.00760448 -0.238222 -0.318257 0.0122459 -0.239569 
-0.314955 0.0106993 -0.238276 -0.310484 0.0118373 -0.236322 -0.316439 -0.0279613 -0.235437 
-0.31805 -0.0242798 -0.23602 -0.312071 -0.0236639 -0.234865 -0.309476 -0.01979 -0.233612 
-0.309302 -0.0104348 -0.235941 -0.302968 0.00418973 -0.233635 -0.304924 0.0127879 -0.233916 
-0.307138 -0.0255387 -0.231292 -0.302632 -0.000847213 -0.232634 -0.294066 0.0115999 -0.229409 
-0.305704 -0.0407081 -0.226576 -0.295886 -0.0206082 -0.227744 -0.293449 -0.0156413 -0.22875 
-0.289072 0.00500502 -0.227723 -0.291876 0.00824916 -0.227614 -0.300665 0.0297435 -0.22748 
-0.27757 -0.0133739 -0.222322 -0.280124 -0.00544546 -0.222979 -0.282616 0.00253958 -0.225158 
-0.278261 0.00105099 -0.223422 -0.27976 0.00361849 -0.223884 -0.27933 0.00656757 -0.223531 
-0.284 0.00722599 -0.224357 -0.279007 0.0131216 -0.223023 -0.283112 0.0184983 -0.223813 
-0.285132 -0.0380554 -0.219444 -0.276692 -0.0268406 -0.219574 -0.274108 -0.0167051 -0.2205 
-0.274735 -0.0111351 -0.220288 -0.276023 -0.00759924 -0.222001 -0.275342 -0.000419582 -0.221114 
-0.271142 0.00084179 -0.218713 -0.275948 0.00451937 -0.220967 -0.268487 0.00463932 -0.219095 
-0.277515 0.00950711 -0.221521 -0.27244 0.0168682 -0.219596 -0.281449 0.0259096 -0.220686 
-0.275107 0.0262831 -0.219022 -0.277518 -0.0338467 -0.217954 -0.269978 -0.0266176 -0.215764 
-0.264023 -0.0153002 -0.216412 -0.26919 -0.0111115 -0.217971 -0.265251 -0.0105992 -0.21744 
-0.265524 -0.0064097 -0.217858 -0.262048 -0.0039446 -0.216495 -0.260792 0.0021269 -0.215967 
-0.265531 0.00678628 -0.216657 -0.260645 0.00766002 -0.215648 -0.264358 0.0118229 -0.215925 
-0.26138 0.0149455 -0.215276 -0.26927 0.0181427 -0.218095 -0.26654 0.0174823 -0.217032 
-0.30177 0.0384293 -0.218195 -0.26258 -0.0188629 -0.215328 -0.2578 -0.0121734 -0.214156 
-0.251768 -0.00899485 -0.211928 -0.258282 -0.00180462 -0.213916 -0.25306 -0.000204806 -0.212795 
-0.263355 0.00481821 -0.213541 -0.259708 0.0115259 -0.213993 -0.255129 0.0119187 -0.212011 
-0.261892 0.02262 -0.213212 -0.249893 -0.0160512 -0.210217 -0.253828 -0.0133781 -0.211256 
-0.248808 -0.00750664 -0.209662 -0.245086 -0.00944412 -0.20908 -0.249957 -0.000312727 -0.211292 
-0.246327 0.00504931 -0.209726 -0.252394 0.0210426 -0.209493 -0.260909 0.0275543 -0.211645 
-0.250035 -0.032316 -0.206898 -0.243259 -0.0232848 -0.205341 -0.238486 -0.0202643 -0.204939 
-0.24217 -0.0149961 -0.205917 -0.240312 0.00281044 -0.206184 -0.241589 0.00823473 -0.205862 
-0.243058 0.012984 -0.206751 -0.247226 0.0153988 -0.208163 -0.253661 0.0337875 -0.20809 
-0.2332 -0.0191552 -0.202914 -0.230971 -0.0158142 -0.202449 -0.232192 -0.00173417 -0.203976 
-0.236192 0.00604977 -0.204342 -0.230434 0.00406555 -0.201337 -0.231751 0.00877581 -0.202403 
-0.225729 0.00828721 -0.200983 -0.235755 0.0121576 -0.203786 -0.235367 0.0161629 -0.204172 
-0.234718 0.0202678 -0.203343 -0.23225 0.0216143 -0.201367 -0.239987 0.0287197 -0.20379 
-0.255326 -0.0552743 -0.199723 -0.231307 -0.028105 -0.200324 -0.219327 -0.0144176 -0.197613 
-0.222703 -0.010123 -0.198328 -0.227289 -0.00228054 -0.200805 -0.218988 0.00348797 -0.198263 
-0.221719 0.0103607 -0.199128 -0.218799 0.00880442 -0.198078 -0.224512 0.0109171 -0.200213 
-0.23187 0.0170144 -0.201025 -0.224592 0.0150107 -0.199804 -0.239211 0.0402754 -0.20012 
-0.223587 -0.0219763 -0.197063 -0.213874 -0.00862363 -0.195882 -0.213367 -0.00244378 -0.194868 
-0.217113 0.00658234 -0.196601 -0.216187 0.012565 -0.196514 -0.212386 0.0128468 -0.194898 
-0.229688 0.0350299 -0.196871 -0.219026 -0.0433942 -0.190696 -0.208762 -0.020771 -0.192408 
-0.209786 -0.0160649 -0.19341 -0.208456 -0.00931239 -0.192444 -0.202232 -0.000704746 -0.191233 
-0.219618 0.00367687 -0.193468 -0.209047 0.0141207 -0.191538 -0.208335 0.027128 -0.19097 
-0.220219 -0.0511912 -0.188265 -0.198039 -0.0204007 -0.187952 -0.206481 -0.0176805 -0.189224 
-0.196765 -0.00792834 -0.188835 -0.192955 -0.00834032 -0.18721 -0.199473 0.00129915 -0.189849 
-0.199643 0.0045619 -0.190133 -0.196537 0.00811027 -0.187592 -0.261247 0.017667 -0.188817 
-0.201625 0.0178106 -0.189817 -0.247098 0.0648411 -0.190657 -0.240044 -0.0668006 -0.186632 
-0.191271 -0.0112889 -0.186164 -0.19269 -0.00446296 -0.186082 -0.192443 0.00343546 -0.186032 
-0.187269 0.00513258 -0.184973 -0.186794 0.00805179 -0.184317 -0.190439 0.0109621 -0.185803 
-0.19199 0.0156656 -0.184934 -0.222283 0.054829 -0.186987 -0.187621 -0.0253059 -0.182857 
-0.184745 -0.0256072 -0.181571 -0.183232 -0.00897322 -0.181974 -0.196012 -0.00145751 -0.1826 
-0.183653 0.00178019 -0.183403 -0.188755 0.0053523 -0.181764 -0.19233 0.00820922 -0.18063 
-0.18191 0.00786694 -0.18248 -0.177029 0.00878098 -0.180334 -0.180692 0.0127571 -0.180458 
-0.182253 0.0176509 -0.181753 -0.178602 0.0194118 -0.180072 -0.187105 0.0213441 -0.182216 
-0.186655 0.0263084 -0.181022 -0.186708 0.0311118 -0.181162 -0.170295 -0.0151453 -0.177088 
-0.17353 -0.00848042 -0.178867 -0.168049 -0.00492556 -0.176797 -0.175619 -0.0029214 -0.178864 
-0.168441 0.00563729 -0.176957 -0.169585 0.00842137 -0.177206 -0.168859 0.0130953 -0.17652 
-0.173236 0.0203366 -0.177687 -0.209522 0.0631656 -0.176504 -0.17313 -0.0274165 -0.176116 
-0.166023 -0.0191677 -0.174822 -0.177557 -0.00638197 -0.174941 -0.168676 -0.000712655 -0.176007 
-0.164944 -0.00162853 -0.173861 -0.15873 -0.0034341 -0.1729 -0.158499 0.00295587 -0.172759 
-0.164962 0.00649212 -0.175457 -0.16029 0.00849865 -0.173344 -0.163498 0.0109512 -0.174472 
-0.168437 0.022232 -0.174197 -0.168011 0.026607 -0.174271 -0.17488 0.0335892 -0.175755 
-0.20241 -0.0691652 -0.171416 -0.191234 -0.0654432 -0.169562 -0.169144 -0.0364258 -0.172573 
-0.163765 -0.0283063 -0.171218 -0.155536 -0.0246549 -0.169236 -0.154179 -0.0177045 -0.169986 
-0.219818 -0.0169145 -0.171361 -0.160413 -0.0169406 -0.171308 -0.156498 -0.0100319 -0.170629 
-0.164606 -0.00562989 -0.170573 -0.159105 -0.0070536 -0.172224 -0.155816 -0.00612519 -0.171646 
-0.155536 -0.000382219 -0.171549 -0.168307 0.000671133 -0.17107 -0.159603 0.00155714 -0.169815 
-0.159532 0.00577836 -0.171476 -0.16205 0.0101147 -0.171401 -0.157051 0.0183707 -0.170035 
-0.157169 0.0276288 -0.169452 -0.162435 0.0307026 -0.171153 -0.174512 0.0501263 -0.170464 
-0.176427 -0.0540087 -0.16956 -0.168817 -0.0450295 -0.16885 -0.159318 -0.0218138 -0.169204 
-0.15105 -0.0157033 -0.16785 -0.145984 -0.0147431 -0.166887 -0.151959 -0.0107158 -0.16865 
-0.144247 -0.0112113 -0.166502 -0.150976 -0.00560018 -0.16852 -0.146922 -0.00520012 -0.167754 
-0.14832 -0.00187868 -0.168599 -0.164095 0.0034199 -0.167426 -0.15106 0.00122942 -0.168664 
-0.15287 0.00516524 -0.169318 -0.147518 0.00940533 -0.167987 -0.151524 0.010594 -0.168444 
-0.1519 0.0221302 -0.166569 -0.151368 0.026544 -0.167406 -0.1579 0.0350289 -0.167364 
-0.138391 -0.0125294 -0.163874 -0.13835 -0.00882258 -0.164178 -0.135708 -0.00775619 -0.163084 
-0.141488 -0.00283261 -0.164618 -0.133865 -0.000509273 -0.162512 -0.146164 -0.000165401 -0.165688 
-0.144064 0.00308237 -0.163939 -0.138781 0.00292484 -0.163346 -0.148479 0.0061761 -0.165818 
[...]
POINT_DATA 730
FIELD FieldData 7
id 1 730 int
732 1 51 13 25 30 38 23 29 
21 14 3 33 19 47 28 5 4 
60 40 7 69 54 27 66 93 56 
45 73 173 37 89 61 8 52 36 
94 100 42 120 85 87 59 147 77 
133 91 117 55 139 39 15 63 41 
176 17 84 31 113 131 78 126 46 
58 71 125 88 145 80 24 43 50 
74 65 153 207 67 190 162 108 76 
62 101 97 98 53 92 112 130 86 
111 164 102 48 34 95 103 18 26 
110 137 75 168 196 122 174 141 140 
121 193 81 150 104 186 148 177 82 
68 114 163 178 187 179 79 202 180 
195 129 160 118 138 219 151 171 294 
70 132 189 159 198 204 154 127 106 
83 107 49 352 265 123 166 142 241 
210 144 156 158 134 183 116 136 215 
184 278 119 225 157 109 244 167 115 
169 105 213 229 250 211 221 270 143 
252 170 199 99 64 200 188 135 149 
181 205 124 317 209 212 208 228 72 
272 146 182 175 254 96 234 201 223 
152 284 161 277 296 290 185 172 297 
197 236 280 224 206 324 191 251 305 
293 295 245 249 287 261 128 289 276 
332 298 233 299 316 322 273 339 363 
264 275 321 256 253 222 281 267 220 
292 314 226 242 155 329 255 337 218 
330 238 304 266 192 262 348 368 230 
165 288 263 260 274 214 307 422 243 
438 227 247 235 259 303 446 343 310 
311 217 306 9 308 353 283 203 258 
370 333 318 315 354 405 232 248 194 
347 300 282 313 237 351 285 302 382 
409 246 349 240 388 331 320 407 269 
367 377 327 271 341 335 216 423 418 
291 387 362 401 286 323 231 340 390 
279 90 344 372 371 336 411 399 358 
309 384 257 395 470 386 366 239 389 
355 433 396 381 447 374 414 350 301 
325 403 424 416 398 326 338 365 441 
328 268 378 429 346 360 466 445 417 
421 319 448 444 394 356 473 408 430 
454 483 400 334 380 439 440 420 484 
428 404 459 345 425 361 376 375 456 
427 342 462 397 489 385 481 452 359 
478 373 364 406 458 488 431 312 392 
357 497 393 455 419 450 391 369 476 
477 434 511 437 519 522 482 492 451 
496 413 379 491 468 383 412 435 415 
475 500 493 442 486 402 508 463 465 
464 490 504 471 485 487 460 505 469 
474 507 494 453 542 517 449 501 520 
457 530 499 534 529 498 480 510 562 
495 503 525 506 526 515 533 536 426 
410 461 527 467 502 564 544 543 557 
576 582 528 555 588 567 531 512 436 
565 552 514 537 596 535 518 541 584 
443 573 572 554 586 559 516 539 509 
538 577 540 570 587 546 595 585 575 
549 558 532 547 574 523 578 579 545 
580 568 551 550 591 569 521 589 524 
561 479 548 560 566 590 601 556 581 
598 571 583 553 513 597 593 594 600 
563 599 432 472 592 611 608 602 603 
607 612 605 609 610 604 613 606 614 
616 615 618 626 623 620 621 624 625 
622 617 619 629 627 640 628 636 635 
638 639 637 632 634 633 630 631 650 
652 645 646 642 647 643 649 651 653 
644 648 663 641 666 654 658 664 655 
665 659 656 660 661 662 657 667 668 
669 676 672 670 677 671 678 675 673 
683 685 674 690 691 684 681 679 680 
686 682 688 687 696 689 697 694 693 
702 700 692 698 699 708 701 695 703 
709 715 705 716 710 706 704 714 711 
713 712 726 728 707 717 725 720 729 
718 727 721 722 724 723 719 741 734 
737 733 735 731 742 730 736 738 739 
740 
type 1 730 int
1 1 1 1 1 1 1 1 1 
1 1 1 1 1 1 1 1 1 
1 1 1 1 1 1 1 1 1 
1 1 1 1 1 1 1 1 1 
1 1 1 1 1 1 1 1 1 
1 1 1 1 1 1 1 1 1 
1 1 1 1 1 1 1 1 1 
1 1 1 1 1 1 1 1 1 
1 1 1 1 1 1 1 1 1 
1 1 1 1 1 1 1 1 1 
1 1 1 1 1 1 1 1 1 
1 1 1 1 1 1 1 1 1 
1 1 1 1 1 1 1 1 1 
1 1 1 1 1 1 1 1 1 
1 1 1 1 1 1 1 1 1 
1 1 1 1 1 1 1 1 1 
1 1 1 1 1 1 1 1 1 
1 1 1 1 1 1 1 1 1 
1 1 1 1 1 1 1 1 1 
1 1 1 1 1 1 1 1 1 
1 1 1 1 1 1 1 1 1 
1 1 1 1 1 1 1 1 1 
1 1 1 1 1 1 1 1 1 
1 1 1 1 1 1 1 1 1 
1 1 1 1 1 1 1 1 1 
1 1 1 1 1 1 1 1 1 
1 1 1 1 1 1 1 1 1 
1 1 1 1 1 1 1 1 1 
1 1 1 1 1 1 1 1 1 
1 1 1 1 1 1 1 1 1 
1 1 1 1 1 1 1 1 1 
1 1 1 1 1 1 1 1 1 
1 1 1 1 1 1 1 1 1 
1 1 1 1 1 1 1 1 1 
1 1 1 1 1 1 1 1 1 
1 1 1 1 1 1 1 1 1 
1 1 1 1 1 1 1 1 1 
1 1 1 1 1 1 1 1 1 
1 1 1 1 1 1 1 1 1 
1 1 1 1 1 1 1 1 1 
1 1 1 1 1 1 1 1 1 
1 1 1 1 1 1 1 1 1 
1 1 1 1 1 1 1 1 1 
1 1 1 1 1 1 1 1 1 
1 1 1 1 1 1 1 1 1 
1 1 1 1 1 1 1 1 1 
1 1 1 1 1 1 1 1 1 
1 1 1 1 1 1 1 1 1 
1 1 1 1 1 1 1 1 1 
1 1 1 1 1 1 1 1 1 
1 1 1 1 1 1 1 1 1 
1 1 1 1 1 1 1 1 1 
1 1 1 1 1 1 1 1 1 
1 1 1 1 1 1 1 1 1 
1 1 1 1 1 1 1 1 1 
1 1 1 1 1 1 1 1 1 
1 1 1 1 1 1 1 1 1 
1 1 1 1 1 1 1 1 1 
1 1 1 1 1 1 1 1 1 
1 1 1 1 1 1 1 1 1 
1 1 1 1 1 1 1 1 1 
1 1 1 1 1 1 1 1 1 
1 1 1 1 1 1 1 1 1 
1 1 1 1 1 1 1 1 1 
1 1 1 1 1 1 1 1 1 
1 1 1 1 1 1 1 1 1 
1 1 1 1 1 1 1 1 1 
1 1 1 1 1 1 1 1 1 
1 1 1 1 1 1 1 1 1 
1 1 1 1 1 1 1 1 1 
1 1 1 1 1 1 1 1 1 
1 1 1 1 1 1 1 1 1 
1 1 1 1 1 1 1 1 1 
1 1 1 1 1 1 1 1 1 
1 1 1 1 1 1 1 1 1 
1 1 1 1 1 1 1 1 1 
1 1 1 1 1 1 1 1 1 
1 1 1 1 1 1 1 1 1 
1 1 1 1 1 1 1 1 1 
1 1 1 1 1 1 1 1 1 
1 1 1 1 1 1 1 1 1 
1 
i 3 730 int
0 0 0 0 0 0 0 0 0 
0 0 0 0 0 0 0 0 0 
0 0 0 0 0 0 0 0 0 
0 0 0 0 0 0 0 0 0 
0 0 0 0 0 0 0 0 0 
0 0 0 0 0 0 0 0 0 
0 0 0 0 0 0 0 0 0 
0 0 0 0 0 0 0 0 0 
0 0 0 0 0 0 0 0 0 
0 0 0 0 0 0 0 0 0 
0 0 0 0 0 0 0 0 0 
0 0 0 0 0 0 0 0 0 
0 0 0 0 0 0 0 0 0 
0 0 0 0 0 0 0 0 0 
0 0 0 0 0 0 0 0 0 
0 0 0 0 0 0 0 0 0 
0 0 0 0 0 0 0 0 0 
0 0 0 0 0 0 0 0 0 
0 0 0 0 0 0 0 0 0 
0 0 0 0 0 0 0 0 0 
0 0 0 0 0 0 0 0 0 
0 0 0 0 0 0 0 0 0 
0 0 0 0 0 0 0 0 0 
0 0 0 0 0 0 0 0 0 
0 0 0 0 0 0 0 0 0 
0 0 0 0 0 0 0 0 0 
0 0 0 0 0 0 0 0 0 
0 0 0 0 0 0 0 0 0 
0 0 0 0 0 0 0 0 0 
0 0 0 0 0 0 0 0 0 
0 0 0 0 0 0 0 0 0 
0 0 0 0 0 0 0 0 0 
0 0 0 0 0 0 0 0 0 
0 0 0 0 0 0 0 0 0 
0 0 0 0 0 0 0 0 0 
0 0 0 0 0 0 0 0 0 
0 0 0 0 0 0 0 0 0 
0 0 0 0 0 0 0 0 0 
0 0 0 0 0 0 0 0 0 
0 0 0 0 0 0 0 0 0 
0 0 0 0 0 0 0 0 0 
0 0 0 0 0 0 0 0 0 
0 0 0 0 0 0 0 0 0 
0 0 0 0 0 0 0 0 0 
0 0 0 0 0 0 0 0 0 
0 0 0 0 0 0 0 0 0 
0 0 0 0 0 0 0 0 0 
0 0 0 0 0 0 0 0 0 
0 0 0 0 0 0 0 0 0 
0 0 0 0 0 0 0 0 0 
0 0 0 0 0 0 0 0 0 
0 0 0 0 0 0 0 0 0 
0 0 0 0 0 0 0 0 0 
0 0 0 0 0 0 0 0 0 
0 0 0 0 0 0 0 0 0 
0 0 0 0 0 0 0 0 0 
0 0 0 0 0 0 0 0 0 
0 0 0 0 0 0 0 0 0 
0 0 0 0 0 0 0 0 0 
0 0 0 0 0 0 0 0 0 
0 0 0 0 0 0 0 0 0 
0 0 0 0 0 0 0 0 0 
0 0 0 0 0 0 0 0 0 
0 0 0 0 0 0 0 0 0 
0 0 0 0 0 0 0 0 0 
0 0 0 0 0 0 0 0 0 
0 0 0 0 0 0 0 0 0 
0 0 0 0 0 0 0 0 0 
0 0 0 0 0 0 0 0 0 
0 0 0 0 0 0 0 0 0 
0 0 0 0 0 0 0 0 0 
0 0 0 0 0 0 0 0 0 
0 0 0 0 0 0 0 0 0 
0 0 0 0 0 0 0 0 0 
0 0 0 0 0 0 0 0 0 
0 0 0 0 0 0 0 0 0 
0 0 0 0 0 0 0 0 0 
0 0 0 0 0 0 0 0 0 
0 0 0 0 0 0 0 0 0 
0 0 0 0 0 0 0 0 0 
0 0 0 0 0 0 0 0 0 
0 0 0 0 0 0 0 0 0 
0 0 0 0 0 0 0 0 0 
0 0 0 0 0 0 0 0 0 
0 0 0 0 0 0 0 0 0 
0 0 0 0 0 0 0 0 0 
0 0 0 0 0 0 0 0 0 
0 0 0 0 0 0 0 0 0 
0 0 0 0 0 0 0 0 0 
0 0 0 0 0 0 0 0 0 
0 0 0 0 0 0 0 0 0 
0 0 0 0 0 0 0 0 0 
0 0 0 0 0 0 0 0 0 
0 0 0 0 0 0 0 0 0 
0 0 0 0 0 0 0 0 0 
0 0 0 0 0 0 0 0 0 
0 0 0 0 0 0 0 0 0 
0 0 0 0 0 0 0 0 0 
0 0 0 0 0 0 0 0 0 
0 0 0 0 0 0 0 0 0 
0 0 0 0 0 0 0 0 0 
0 0 0 0 0 0 0 0 0 
0 0 0 0 0 0 0 0 0 
0 0 0 0 0 0 0 0 0 
0 0 0 0 0 0 0 0 0 
0 0 0 0 0 0 0 0 0 
0 0 0 0 0 0 0 0 0 
0 0 0 0 0 0 0 0 0 
0 0 0 0 0 0 0 0 0 
0 0 0 0 0 0 0 0 0 
0 0 0 0 0 0 0 0 0 
0 0 0 0 0 0 0 0 0 
0 0 0 0 0 0 0 0 0 
0 0 0 0 0 0 0 0 0 
0 0 0 0 0 0 0 0 0 
0 0 0 0 0 0 0 0 0 
0 0 0 0 0 0 0 0 0 
0 0 0 0 0 0 0 0 0 
0 0 0 0 0 0 0 0 0 
0 0 0 0 0 0 0 0 0 
0 0 0 0 0 0 0 0 0 
0 0 0 0 0 0 0 0 0 
0 0 0 0 0 0 0 0 0 
0 0 0 0 0 0 0 0 0 
0 0 0 0 0 0 0 0 0 
0 0 0 0 0 0 0 0 0 
0 0 0 0 0 0 0 0 0 
0 0 0 0 0 0 0 0 0 
0 0 0 0 0 0 0 0 0 
0 0 0 0 0 0 0 0 0 
0 0 0 0 0 0 0 0 0 
0 0 0 0 0 0 0 0 0 
0 0 0 0 0 0 0 0 0 
0 0 0 0 0 0 0 0 0 
0 0 0 0 0 0 0 0 0 
0 0 0 0 0 0 0 0 0 
0 0 0 0 0 0 0 0 0 
0 0 0 0 0 0 0 0 0 
0 0 0 0 0 0 0 0 0 
0 0 0 0 0 0 0 0 0 
0 0 0 0 0 0 0 0 0 
0 0 0 0 0 0 0 0 0 
0 0 0 0 0 0 0 0 0 
0 0 0 0 0 0 0 0 0 
0 0 0 0 0 0 0 0 0 
0 0 0 0 0 0 0 0 0 
0 0 0 0 0 0 0 0 0 
0 0 0 0 0 0 0 0 0 
0 0 0 0 0 0 0 0 0 
0 0 0 0 0 0 0 0 0 
0 0 0 0 0 0 0 0 0 
0 0 0 0 0 0 0 0 0 
0 0 0 0 0 0 0 0 0 
0 0 0 0 0 0 0 0 0 
0 0 0 0 0 0 0 0 0 
0 0 0 0 0 0 0 0 0 
0 0 0 0 0 0 0 0 0 
0 0 0 0 0 0 0 0 0 
0 0 0 0 0 0 0 0 0 
0 0 0 0 0 0 0 0 0 
0 0 0 0 0 0 0 0 0 
0 0 0 0 0 0 0 0 0 
0 0 0 0 0 0 0 0 0 
0 0 0 0 0 0 0 0 0 
0 0 0 0 0 0 0 0 0 
0 0 0 0 0 0 0 0 0 
0 0 0 0 0 0 0 0 0 
0 0 0 0 0 0 0 0 0 
0 0 0 0 0 0 0 0 0 
0 0 0 0 0 0 0 0 0 
0 0 0 0 0 0 0 0 0 
0 0 0 0 0 0 0 0 0 
0 0 0 0 0 0 0 0 0 
0 0 0 0 0 0 0 0 0 
0 0 0 0 0 0 0 0 0 
0 0 0 0 0 0 0 0 0 
0 0 0 0 0 0 0 0 0 
0 0 0 0 0 0 0 0 0 
0 0 0 0 0 0 0 0 0 
0 0 0 0 0 0 0 0 0 
0 0 0 0 0 0 0 0 0 
0 0 0 0 0 0 0 0 0 
0 0 0 0 0 0 0 0 0 
0 0 0 0 0 0 0 0 0 
0 0 0 0 0 0 0 0 0 
0 0 0 0 0 0 0 0 0 
0 0 0 0 0 0 0 0 0 
0 0 0 0 0 0 0 0 0 
0 0 0 0 0 0 0 0 0 
0 0 0 0 0 0 0 0 0 
0 0 0 0 0 0 0 0 0 
0 0 0 0 0 0 0 0 0 
0 0 0 0 0 0 0 0 0 
0 0 0 0 0 0 0 0 0 
0 0 0 0 0 0 0 0 0 
0 0 0 0 0 0 0 0 0 
0 0 0 0 0 0 0 0 0 
0 0 0 0 0 0 0 0 0 
0 0 0 0 0 0 0 0 0 
0 0 0 0 0 0 0 0 0 
0 0 0 0 0 0 0 0 0 
0 0 0 0 0 0 0 0 0 
0 0 0 0 0 0 0 0 0 
0 0 0 0 0 0 0 0 0 
0 0 0 0 0 0 0 0 0 
0 0 0 0 0 0 0 0 0 
0 0 0 0 0 0 0 0 0 
0 0 0 0 0 0 0 0 0 
0 0 0 0 0 0 0 0 0 
0 0 0 0 0 0 0 0 0 
0 0 0 0 0 0 0 0 0 
0 0 0 0 0 0 0 0 0 
0 0 0 0 0 0 0 0 0 
0 0 0 0 0 0 0 0 0 
0 0 0 0 0 0 0 0 0 
0 0 0 0 0 0 0 0 0 
0 0 0 0 0 0 0 0 0 
0 0 0 0 0 0 0 0 0 
0 0 0 0 0 0 0 0 0 
0 0 0 0 0 0 0 0 0 
0 0 0 0 0 0 0 0 0 
0 0 0 0 0 0 0 0 0 
0 0 0 0 0 0 0 0 0 
0 0 0 0 0 0 0 0 0 
0 0 0 0 0 0 0 0 0 
0 0 0 0 0 0 0 0 0 
0 0 0 0 0 0 0 0 0 
0 0 0 0 0 0 0 0 0 
0 0 0 0 0 0 0 0 0 
0 0 0 0 0 0 0 0 0 
0 0 0 0 0 0 0 0 0 
0 0 0 0 0 0 0 0 0 
0 0 0 0 0 0 0 0 0 
0 0 0 0 0 0 0 0 0 
0 0 0 0 0 0 0 0 0 
0 0 0 0 0 0 0 0 0 
0 0 0 0 0 0 0 0 0 
0 0 0 0 0 0 0 0 0 
0 0 0 0 0 0 0 0 0 
0 0 0 0 0 0 0 0 0 
0 0 0 0 0 0 0 0 0 
0 0 0 0 0 0 0 0 0 
0 0 0 0 0 0 0 0 0 
0 0 0 
v 3 730 double
0 0 -1 -1.29447 -0.0102819 -1.83618 -1.05489 0.35516 -2.13092 
-1.29435 0.223299 -1.7829 -1.30627 -0.0249384 -1.77026 -1.29539 0.0619969 -1.72281 
-1.30976 -0.0504093 -1.70022 -1.24968 -0.0603932 -1.6705 -1.31046 -0.0406686 -1.69018 
-1.35161 -0.0860827 -1.71909 -1.14598 0.0397467 -1.57142 -1.25453 0.15366 -1.53852 
-1.24054 0.158113 -1.60962 -1.15852 -0.00366611 -1.46337 -1.26391 -0.022145 -1.46869 
-1.25545 0.0607519 -1.44624 -1.29111 0.108538 -1.42374 -1.1754 0.0941172 -1.3915 
-1.10742 -0.415567 -1.58068 -1.31252 0.0560466 -1.38783 -1.03567 0.00503888 -1.31568 
-1.16904 0.0606071 -1.31035 -1.27288 0.103865 -1.33371 -1.20862 -0.0337326 -1.29614 
-1.29017 0.0193838 -1.29385 -1.29371 0.114281 -1.29815 -1.127 0.00706554 -1.1986 
-1.17719 0.0576446 -1.22407 -1.11982 0.054048 -1.21007 -1.39897 0.113604 -1.29425 
-1.25129 0.122772 -1.17418 -1.18765 0.0540333 -1.16888 -1.19603 0.0530832 -1.16651 
-1.16776 0.0724586 -1.11381 -1.18543 0.0175571 -1.11328 -1.17839 0.0211692 -1.11594 
-1.26834 -0.0207936 -1.1436 -1.24546 0.0513306 -1.03482 -1.18361 -0.0528103 -1.05731 
-1.04352 -0.042083 -1.06182 -1.19366 0.102042 -1.03251 -1.23072 0.093899 -1.02576 
-1.10253 -0.0562905 -0.964803 -1.2655 -0.225398 -1.0948 -1.10183 0.0117228 -0.905504 
-1.15886 -0.0318438 -0.872951 -0.998737 -0.0314326 -0.864521 -1.22027 -0.376045 -1.02895 
-1.13363 -0.0393364 -0.84762 -1.23894 -0.418897 -1.2025 -1.09743 -0.0519123 -0.803121 
-1.10511 -0.0595757 -0.837159 -1.25969 0.271701 -0.829 -1.11191 -0.00221238 -0.740879 
-1.05582 -0.0413377 -0.771277 -1.12424 -0.0138933 -0.779431 -1.12779 0.0325185 -0.758856 
-1.13017 0.00827489 -0.733437 -1.14839 0.0644095 -0.693865 -1.21845 -0.263145 -0.64263 
-1.15909 0.0515286 -0.692185 -1.24372 -0.158218 -0.710796 -1.13854 0.0542655 -0.580414 
-1.11105 0.0381446 -0.580549 -1.05865 -0.0476699 -0.578982 -1.12681 -0.130191 -0.602432 
-1.18335 -0.261397 -0.695223 -1.22725 -0.0591901 -0.717637 -1.10418 0.0599509 -0.547384 
-1.1603 0.0539515 -0.540998 -1.12561 0.11259 -0.577481 -1.11306 0.100993 -0.539289 
-1.11481 0.0505688 -0.554618 -1.12249 -0.100296 -0.57233 -1.17167 -0.121792 -0.616289 
-1.32046 -0.122847 -0.753935 -1.0982 0.0331919 -0.485619 -1.19873 -0.0303162 -0.507197 
-1.10072 0.0408203 -0.485129 -1.23057 -0.0457108 -0.557476 -1.02291 0.06165 -0.445865 
-1.00542 0.152193 -0.460245 -1.11456 0.174963 -0.469653 -1.12507 0.126267 -0.555063 
-0.999867 0.121499 -0.407966 -0.950713 0.00132255 -0.4167 -0.965784 0.000424012 -0.433523 
-1.0756 0.104681 -0.457775 -1.07225 0.068967 -0.454984 -1.06327 0.0109466 -0.447395 
-1.11202 -0.0894087 -0.473659 -1.05512 0.0276774 -0.442336 -1.09201 -0.05884 -0.463315 
-1.13525 -0.0419094 -0.480444 -1.06573 -0.0582913 -0.452583 -1.11577 0.0629861 -0.485203 
-1.12611 0.0609008 -0.50348 -0.996573 -0.0621695 -0.382095 -1.10014 0.106371 -0.538371 
-0.933374 0.0113703 -0.376477 -1.0356 0.0673587 -0.432172 -1.08664 0.150567 -0.449108 
-1.14329 0.00615337 -0.512691 -1.06099 0.0572168 -0.449804 -1.11601 -0.150983 -0.480989 
-1.12632 0.201701 -0.500212 -1.17697 0.132601 -0.482618 -1.1866 0.0685941 -0.506028 
-1.02938 -0.122002 -0.442464 -1.09277 -0.14399 -0.470664 -1.14336 -0.356684 -0.569223 
-0.935248 0.0541924 -0.400176 -0.942499 0.0932823 -0.400934 -0.931661 -0.0114036 -0.393394 
-0.922194 0.0311166 -0.371723 -0.966947 0.0287758 -0.403575 -0.989782 0.0364911 -0.406059 
-1.01604 0.0280173 -0.427239 -1.01512 -0.176061 -0.465508 -1.03061 -0.089792 -0.458631 
-0.965598 0.0329609 -0.433035 -0.843186 -0.0602578 -0.328625 -0.921447 0.00950691 -0.390503 
-0.996865 0.0638918 -0.423508 -0.910399 0.00443475 -0.437444 -0.87555 0.0910907 -0.347855 
-0.857037 0.0902832 -0.411659 -0.894643 0.110311 -0.416728 -0.853681 0.0882643 -0.361583 
-1.00001 0.0355369 -0.39484 -0.952675 -0.077656 -0.40132 -1.05459 -0.0871271 -0.470898 
-0.989748 -0.122413 -0.454352 -0.893464 0.0984983 -0.415994 -1.26907 -0.0995053 -0.46888 
-1.02311 0.201836 -0.452286 -1.08548 -0.0089281 -0.456791 -1.07956 0.115513 -0.450146 
-0.946357 -0.167048 -0.390688 -0.936749 0.0501729 -0.395321 -0.827122 -0.0371867 -0.345827 
-0.809867 -0.102578 -0.346924 -0.853264 -0.0984332 -0.370799 -0.875687 -0.0800701 -0.378766 
-0.915442 -0.0152063 -0.38237 -0.935515 -0.0886875 -0.407667 -0.934583 -0.102999 -0.414316 
-1.32811 0.0484367 -0.33962 -1.1793 0.0967542 -0.506546 -1.07326 0.0426615 -0.461085 
-0.945224 0.0246522 -0.40195 -0.926436 0.0579067 -0.388767 -0.723594 -0.0486002 -0.3099 
-1.03543 -0.19713 -0.0369088 -0.938403 -0.034058 -0.392994 -0.930568 -0.0421372 -0.399003 
-1.01428 -0.174698 -0.4485 -1.036 0.054389 -0.457653 -1.04314 0.00212645 -0.482267 
-0.950425 0.0465525 -0.405219 -0.94495 0.00830331 -0.393791 -0.711216 0.00147709 -0.396162 
-0.796906 -0.00732795 -0.333831 -0.815865 -0.230882 -0.589589 -1.0056 -0.157885 -0.465713 
-1.08036 0.062609 -0.473976 -1.04581 0.0307726 -0.464119 -1.01227 0.368471 -0.530471 
-0.922894 0.120774 -0.421396 -0.712759 -0.0142277 -0.303192 -0.959196 0.0458788 -0.365768 
-0.976642 0.0179338 -0.427404 -1.01313 -0.032078 -0.431365 -1.05173 -0.168167 -0.48817 
-0.92418 -0.0343226 -0.371234 -0.860442 -0.0337546 -0.365294 -0.868448 0.00829838 -0.371619 
-0.947858 0.0706159 -0.392717 -0.865983 -0.051732 -0.371475 -0.815045 -0.0284354 -0.340846 
-0.757238 -0.0114927 -0.275906 -0.955527 -0.114896 -0.421961 -0.91089 -0.113062 -0.402456 
-0.863253 -0.14997 -0.385029 -0.881791 -0.0243013 -0.388317 -0.903409 0.0959373 -0.355782 
-1.05042 0.414596 -0.570002 -0.879462 0.495797 -0.456673 -0.6651 0.0101321 -0.276521 
-0.786213 0.0512541 -0.343497 -0.994141 -0.0270605 -0.426341 -0.909827 0.00438957 -0.378169 
-0.849349 0.0910842 -0.458902 -0.903907 -0.0145197 -0.37418 -0.860932 0.0624468 -0.260855 
-1.01719 -0.143539 -0.498199 -1.00354 -0.0255349 -0.424138 -1.01908 -0.188921 -0.473365 
-0.872979 -0.0281884 -0.346448 -0.868538 -0.0446244 -0.35588 -0.930288 -0.028548 -0.399051 
-0.838474 0.0425802 -0.296672 -0.862786 -0.0123333 -0.374082 -0.865979 -0.0125473 -0.361216 
-1.09382 0.0470449 -0.426502 -0.94233 0.0821957 -0.402784 -1.01919 -0.159466 -0.477569 
-0.837343 -0.0052626 -0.356105 -0.82369 0.0257722 -0.352024 -0.88551 0.00981129 -0.379605 
-1.1851 -0.0999163 -0.222009 -0.838618 0.00910601 -0.224349 -0.927673 0.125235 -0.355413 
-0.944524 0.0749801 -0.415148 -0.854159 0.0770537 -0.374391 -1.02345 -0.127711 -0.380055 
-0.806527 -0.0149583 -0.33154 -0.750936 0.00661824 -0.310982 -0.859399 0.0457556 -0.37374 
-0.728192 0.108927 -0.311202 -0.671353 0.041233 -0.283353 -1.38782 0.160646 -0.393657 
-0.973779 0.0380565 -0.398963 -1.0669 -0.0633171 -0.437962 -1.09588 0.0857892 -0.443801 
-0.917729 0.010013 -0.380106 -0.791517 0.0203623 -0.325031 -0.588764 -0.020676 -0.244668 
-0.598028 0.0302454 -0.248726 -0.641409 0.0489178 -0.280502 -0.710028 0.175873 -0.287204 
-0.634693 0.115166 -0.260665 -1.05581 -0.126384 -0.473113 -0.726401 -0.0624434 -0.292721 
-0.715251 -0.187897 -0.258734 -0.834866 0.0382601 -0.358634 -0.944784 -0.0979989 -0.27103 
-0.730778 -0.153433 -0.304996 -0.766982 -0.214992 -0.327569 -0.803483 -0.0860776 -0.327 
-0.738422 -0.037152 -0.317024 -0.656963 -0.116782 -0.323832 -0.718534 -0.0402505 -0.307653 
-0.862668 -0.0842753 -0.367555 -0.832096 -0.0930465 -0.355472 -0.885807 -0.00829182 -0.374558 
-0.882626 -0.000645214 -0.371723 -0.793923 0.0600575 -0.315406 -0.862813 0.109246 -0.385956 
-0.82713 0.156113 -0.299067 -0.715682 0.0414538 -0.295124 -0.762787 -0.0129145 -0.323941 
-0.64663 -0.00927896 -0.263526 -0.664034 -0.0141535 -0.278137 -0.741857 0.0147101 -0.308357 
-0.84493 0.0590785 -0.344643 -0.715096 -0.227573 -0.339411 -1.03939 -0.317129 -0.893172 
-0.85142 -0.00715296 -0.354993 -1.02646 -0.157965 -0.30235 -0.653833 -0.0164833 -0.266704 
-0.884567 0.0590276 -0.776647 -0.544342 -0.0254736 -0.224283 -0.508212 -0.0163184 -0.229808 
-0.712381 0.00609857 -0.291639 -0.686846 0.0516588 -0.260116 -0.829778 -0.0485461 -0.344474 
-0.936301 0.00691714 -0.393181 -0.903724 0.0178714 -0.3774 -0.733022 -0.0674691 -0.315714 
-0.902918 0.249561 -0.514505 -0.901118 0.047128 -0.371313 -0.753217 0.166365 -0.343931 
-0.633102 0.090311 -0.287251 -0.568246 -0.00195651 -0.21782 -0.732415 0.0155496 -0.304415 
-1.02782 -0.0141591 -0.292407 -0.757912 -0.0502315 -0.337339 -0.556456 0.00265555 -0.238119 
-1.28841 -0.0826357 -0.35806 -0.580464 -0.0625273 -0.0898266 -0.529932 0.0103694 -0.227307 
-0.61964 0.103844 -0.253714 -0.92174 0.070472 -0.184788 -0.758869 -0.0483712 -0.348205 
-0.920678 -0.0211358 -0.10678 -0.948863 0.252983 -0.500527 -0.685865 0.0286974 -0.294007 
-0.718018 -0.037357 -0.314042 -0.89178 0.0577461 -0.357053 -0.940503 0.0581753 -0.360825 
-0.777749 0.632417 -0.568931 -0.813482 0.0450369 -0.322248 -1.00541 0.0274731 -0.380656 
-0.675501 -0.0409437 -0.271608 -0.706682 0.0321115 -0.305173 -0.5579 0.00908449 -0.232254 
-0.719148 0.0751286 -0.314855 -0.659846 0.059607 -0.287893 -0.634942 0.0342819 -0.271046 
-0.680971 0.100039 -0.272242 -0.828071 0.0957783 -0.583263 -0.842907 -0.0683806 -0.28656 
-0.828927 -0.0258055 -0.320908 -0.672634 -0.0294703 -0.291511 -0.687859 0.01389 -0.279403 
-0.723053 -0.0322196 -0.319595 -0.694439 -0.00171129 -0.283888 -0.796447 0.059679 -0.316572 
-0.800229 0.00671562 -0.331888 -0.706555 -0.0261426 -0.295856 -0.71003 0.0381657 -0.295916 
-0.726867 0.0227036 -0.311827 -0.647119 0.129975 -0.281511 -0.770823 -0.141271 -0.53885 
-0.865497 -0.184661 -0.556769 -0.731214 0.0617274 -0.361505 -0.745818 -0.0335112 -0.341961 
-0.62761 0.133167 -0.252773 -0.836055 0.0381885 -0.241889 -0.794406 -0.0262479 -0.361855 
-0.784659 0.024131 -0.329348 -0.733752 0.0541469 -0.305705 -0.760118 -0.155906 -0.348685 
-0.844185 0.189456 -0.252559 -1.0132 -0.084603 -0.301355 -0.880045 -0.0664865 -0.305263 
-0.613471 0.0706821 -0.258949 -0.417914 0.11318 -0.19512 -0.672414 -0.207522 -0.237032 
-0.633964 0.0322634 -0.317808 -0.932332 0.0527196 -0.388427 -1.28136 -0.273859 -0.219872 
-0.767444 0.157261 -0.32688 -0.753032 0.169269 -0.349185 -0.735905 -0.0217371 -0.427528 
-0.699721 0.0814182 -0.278345 -0.634202 0.02803 -0.273654 -0.717396 -0.0327331 -0.310647 
-0.777281 -0.0324218 -0.338775 -0.710346 -0.0807216 -0.2261 -0.885587 0.068654 -0.353747 
-0.742876 -0.145397 -0.338582 -0.725704 -0.180524 -0.342899 -0.665891 -0.0464983 -0.259279 
-0.852564 0.0822905 -0.552133 -0.706784 -0.163713 -0.285189 -0.731425 0.122088 -0.306931 
-0.778775 -0.063705 -0.326916 -1.08196 0.0118745 -0.520606 -0.687507 -0.0258182 -0.294565 
-0.794919 0.0035332 -0.32591 -0.780594 0.018534 -0.319809 -0.772884 0.0434756 -0.309618 
-1.16253 0.011608 -0.268193 -0.948979 0.26248 -0.299462 -0.96137 0.0707595 -0.358847 
-0.958409 -0.102078 -0.279108 -0.742671 -0.0546887 -0.284069 -0.715205 -0.0223198 -0.302094 
-0.577581 -0.0143538 -0.238802 -0.838701 -0.0421966 -0.123028 -0.608449 -0.0135776 -0.496674 