# vtk DataFile Version 4.0
Generated by LIGGGHTS
ASCII
DATASET POLYDATA
POINTS 345 float
-0.177184 -0.0334385 -0.175574 -0.159338 0.0251102 -0.170931 -0.150461 -0.00256133 -0.168407 
-0.203705 0.0734968 -0.168018 -0.142973 -0.00168354 -0.164896 -0.135246 -0.00213647 -0.163052 
-0.129093 -0.00849616 -0.160008 -0.13546 -0.00661494 -0.161926 -0.133366 -0.00353933 -0.16037 
-0.12874 0.00307614 -0.159852 -0.131879 0.00640226 -0.161447 -0.130811 0.0221264 -0.159496 
-0.143863 0.0413759 -0.160838 -0.121513 -0.00874549 -0.155935 -0.121078 0.00234275 -0.155567 
-0.121845 0.00565267 -0.155984 -0.128092 0.00712263 -0.157397 -0.118669 -0.0224803 -0.15335 
-0.116416 -0.00315573 -0.153499 -0.117074 -0.0385253 -0.150759 -0.10965 -0.0279646 -0.149852 
-0.106651 -0.0103012 -0.149566 -0.118334 -0.00548463 -0.148387 -0.109604 -0.00663664 -0.150784 
-0.104763 -0.0056134 -0.150149 -0.104278 0.00104404 -0.14969 -0.112034 0.00413848 -0.151697 
-0.102304 0.00597918 -0.148399 -0.110964 0.00974504 -0.151396 -0.104748 0.0221849 -0.148643 
-0.111925 0.0259716 -0.151067 -0.100565 -0.0157272 -0.146658 -0.107308 0.00297956 -0.14699 
-0.0978508 0.0093671 -0.14592 -0.0940069 0.0123567 -0.145121 -0.101155 0.0138566 -0.147822 
-0.0965548 -0.0180097 -0.144669 -0.0929625 -0.0202813 -0.143916 -0.092869 -0.0162106 -0.144401 
-0.0897718 -0.0164319 -0.14184 -0.0952199 -0.00924543 -0.144195 -0.0926705 0.00485324 -0.143773 
-0.0880083 0.00554428 -0.141661 -0.0922162 0.00886837 -0.144651 -0.0932865 0.0160995 -0.14346 
-0.138086 -0.0830848 -0.138069 -0.0931628 -0.0324393 -0.140931 -0.0815192 -0.014794 -0.139818 
-0.079292 -0.012953 -0.138927 -0.090784 -0.00845269 -0.141237 -0.0835927 -0.0105833 -0.140652 
-0.0772493 -0.00621154 -0.138235 -0.0833254 0.00345699 -0.141102 -0.105955 0.0054782 -0.139158 
-0.0917253 0.00951996 -0.140077 -0.0815461 0.00953151 -0.140115 -0.0785411 0.0071164 -0.138743 
-0.085918 0.0123079 -0.14067 -0.111391 0.0615946 -0.140387 -0.0778926 -0.0217189 -0.136226 
-0.0744888 -0.0121867 -0.137004 -0.0704084 -0.00604304 -0.135577 -0.0705624 0.0019439 -0.134662 
-0.095184 0.00421055 -0.136226 -0.0848949 0.00481904 -0.136032 -0.0751111 0.0161908 -0.135795 
-0.0741981 0.0216725 -0.134913 -0.076951 -0.0310826 -0.134444 -0.0620846 -0.0184598 -0.131184 
-0.0656553 -0.0164272 -0.132355 -0.0634996 -0.00648812 -0.131564 -0.0823177 -0.00198376 -0.13239 
-0.0700043 0.0147667 -0.133757 -0.0748583 0.0296312 -0.134891 -0.0672088 0.0289216 -0.13181 
-0.0716319 0.0349345 -0.132699 -0.0645412 -0.0298516 -0.130419 -0.058742 -0.0204404 -0.12945 
-0.0615552 -0.0145416 -0.130336 -0.0555243 -0.0165161 -0.12862 -0.0859218 -0.00753407 -0.129231 
-0.0572732 -0.00515306 -0.130049 -0.0760215 0.000831121 -0.128501 -0.0812062 0.00719289 -0.131364 
-0.0518022 0.010152 -0.127468 -0.0573438 0.0244254 -0.128467 -0.0494631 -0.00760699 -0.12567 
-0.0578574 -0.00473379 -0.126734 -0.0523222 0.000312925 -0.127012 -0.0786633 0.0135226 -0.125961 
-0.0493478 0.0114754 -0.125799 -0.0602241 0.0190372 -0.126084 -0.0522375 0.0181107 -0.126081 
-0.0487616 0.0204455 -0.125445 -0.0462284 0.0188236 -0.124541 -0.0484203 0.0288453 -0.124113 
-0.0542226 0.0350134 -0.124196 -0.0392224 -0.0196019 -0.12115 -0.0430763 -0.0140391 -0.122547 
-0.0634162 -0.0116768 -0.123776 -0.0561236 -0.0141971 -0.122167 -0.0836316 -0.00870847 -0.123283 
-0.0584485 -0.00863513 -0.121269 -0.040054 -0.0100229 -0.121434 -0.0615859 -0.00577789 -0.120731 
-0.034666 -0.00120045 -0.119458 -0.0401218 0.00570614 -0.121723 -0.0678725 0.0120475 -0.12387 
-0.040225 0.0119939 -0.122166 -0.0421148 0.0142633 -0.122695 -0.0491029 0.0205845 -0.122186 
-0.0408 0.0194568 -0.122181 -0.0503387 0.03082 -0.122647 -0.0483498 0.0434175 -0.12098 
-0.0546793 -0.0611599 -0.116883 -0.0450916 -0.025257 -0.117526 -0.0404086 -0.0234931 -0.117446 
-0.0650298 -0.0201953 -0.118645 -0.0471952 -0.0200719 -0.117588 -0.0362301 -0.0127398 -0.118951 
-0.0314808 -0.0130661 -0.118405 -0.0319546 -0.00744459 -0.116274 -0.0335349 -0.0099687 -0.117688 
-0.0647221 -0.0031393 -0.119849 -0.0418639 -0.00265622 -0.119557 -0.0373321 0.00286778 -0.116938 
-0.0665682 0.0081104 -0.117395 -0.0312556 0.00853766 -0.117863 -0.0330476 0.0130289 -0.116784 
-0.0460935 0.0156567 -0.118988 -0.042106 0.0134156 -0.118883 -0.0293357 0.0149716 -0.117561 
-0.0721455 0.0459928 -0.119682 -0.0469374 -0.0499437 -0.115307 -0.0277441 -0.0272003 -0.115619 
-0.0547966 -0.0208433 -0.114092 -0.0252796 -0.0217043 -0.113982 -0.0618431 -0.018148 -0.113787 
-0.0352378 -0.0185471 -0.116456 -0.0214176 -0.018596 -0.114019 -0.041385 -0.0129782 -0.11327 
-0.0258553 -0.0125137 -0.116043 -0.0654453 -0.00940042 -0.116218 -0.0397361 -0.0096924 -0.115047 
-0.0204493 -0.00732912 -0.113326 -0.0684826 -0.00531655 -0.116458 -0.0504217 -0.000949912 -0.114858 
-0.041472 0.00061871 -0.113843 -0.0275169 0.00130105 -0.114404 -0.0578732 0.00751385 -0.114123 
-0.0543301 0.00969586 -0.114174 -0.022105 0.01029 -0.11392 -0.0302417 0.0126416 -0.115828 
-0.0271233 0.0133313 -0.115243 -0.0381015 0.014857 -0.114148 -0.030285 0.0179046 -0.114723 
-0.0424419 0.0238458 -0.115707 -0.0330838 0.0347663 -0.116501 -0.0263314 0.0317376 -0.113298 
-0.0309698 -0.045691 -0.111487 -0.0201328 -0.0311957 -0.110812 -0.0176604 -0.0275627 -0.110615 
-0.0522561 -0.0212978 -0.110145 -0.0345791 -0.0231211 -0.112534 -0.0447393 -0.018782 -0.111231 
-0.0144133 -0.0181355 -0.109684 -0.0386084 -0.0154725 -0.110579 -0.0247069 -0.0168693 -0.112215 
-0.0626528 -0.0120563 -0.11319 -0.0598299 -0.0115697 -0.1123 -0.0154915 -0.00105563 -0.111537 
-0.0547229 0.00389227 -0.11051 -0.0652084 0.0195976 -0.112156 -0.0412154 0.0258302 -0.110943 
-0.0229198 0.0245637 -0.109783 -0.0144106 -0.0231511 -0.109174 -0.0141691 -0.0178574 -0.106654 
-0.0370366 -0.0106075 -0.108795 -0.0151762 -0.0120599 -0.107845 -0.0213061 -0.00618494 -0.108052 
-0.0509098 0.00137209 -0.106807 -0.0318455 0.00162748 -0.112054 -0.0275917 0.0036921 -0.110639 
-0.00787687 0.00406017 -0.105263 -0.0136198 0.0151388 -0.111147 -0.048312 0.0175421 -0.107726 
-0.0171286 0.0252473 -0.109365 -0.0140361 0.0343478 -0.108758 -0.0521305 -0.0223522 -0.103566 
-0.0344348 -0.013859 -0.105112 -0.0201644 -0.0127686 -0.106251 -0.0283961 -0.00134453 -0.102982 
-0.0232518 0.00171534 -0.109164 -0.0316007 0.0101495 -0.104162 -0.0106904 0.0161355 -0.102137 
-0.0280759 0.0181166 -0.104667 -0.0146403 0.0193075 -0.104721 -0.0080019 0.0326737 -0.103129 
-0.028247 -0.00616823 -0.101075 -0.00148336 0.00567101 -0.10324 -0.00546888 0.0136012 -0.103598 
-0.0149615 0.0251691 -0.101953 -0.0118483 -0.0331947 -0.0994151 -0.0342709 -0.0266248 -0.101546 
-0.0113986 -0.0762351 -0.0942833 -0.0341415 -0.0150214 -0.0964772 -0.0241178 0.0300767 -0.0989643 
-0.0126988 -0.00665925 -0.0928451 -0.0308689 0.0273623 -0.0938824 -0.0148951 0.0311963 -0.092769 
-0.0142921 -0.0256298 -0.0876763 -0.00573913 0.0284222 -0.0854355 -0.0168405 0.0156428 -0.082384 
-0.0275287 0.0316192 -0.0844562 -0.0141421 -0.0289115 -0.0794581 -0.00525173 -0.0253791 -0.0813217 
-0.0116971 -0.00845001 -0.0810576 -0.000147874 0.0325969 -0.0807982 -0.0256746 -0.0217519 -0.074929 
-0.0198385 0.0337207 -0.0768188 -0.0186146 -0.0271402 -0.0718614 -0.0104339 -0.0112253 -0.073982 
-0.0125397 0.000705716 -0.0704467 -0.0136619 -0.00711923 -0.0662197 -0.0334121 0.00368684 -0.0662953 
-0.0245223 0.0145985 -0.0642177 -0.00133775 -0.0346143 -0.0605783 -0.0215223 -0.00790873 -0.0626121 
-0.0147394 0.0154412 -0.0625229 -0.0123255 0.0311922 -0.0628109 -0.00913613 -0.0312941 -0.0584034 
-0.00523715 -0.00647974 -0.0594419 -0.0114835 0.00360093 -0.059337 -0.0228461 0.00943572 -0.0533644 
-0.0276781 -0.0206777 -0.0508877 -0.011765 0.00818954 -0.0499081 -0.00736955 0.00915874 -0.0499235 
-0.004822 0.0167274 -0.0479154 -0.0110222 0.021925 -0.0476583 -0.03335 -0.0101411 -0.0440099 
-0.0140583 -0.00457604 -0.0437875 -0.00778825 0.00202854 -0.0447562 -0.0288682 0.0130299 -0.0446966 
-0.00624641 0.0129916 -0.0452577 -0.0230186 0.023228 -0.0451968 -0.000908632 -0.0201376 -0.0421404 
-0.0202693 -0.00943017 -0.0412371 -0.0183381 0.00273344 -0.0417276 -0.00508252 -0.0028679 -0.0362904 
-0.0132609 0.017575 -0.0372252 -0.0290573 0.0260911 -0.0356209 -0.0270427 -0.0136491 -0.0339845 
-0.0312596 -0.0282318 -0.0297993 -0.00133703 -0.00658453 -0.0309799 -0.00273627 0.0326024 -0.0284628 
-0.0309119 -0.0207084 -0.0264972 -0.0084722 -0.00462009 -0.0258 -0.0252685 -0.0119457 -0.0225424 
-0.0209658 0.00969496 -0.0227382 -0.0272645 0.0231035 -0.0228017 -0.0152744 0.0211746 -0.0243507 
-0.0244054 0.0234551 -0.0184611 -0.00730513 0.0257586 -0.0185674 -0.0181876 -0.028381 -0.0145317 
-0.0342247 -0.0119118 -0.0175639 -0.0304536 -0.0123493 -0.0150451 -0.0309256 0.00918438 -0.0160429 
-0.00968967 -0.00588877 -0.0114326 -0.0349344 -0.00127292 -0.0120642 -0.000691472 0.0332631 -0.0132904 
-0.0158837 -0.0171309 -0.00805161 -0.0231605 0.0109416 -0.00824201 -0.0340111 0.0266228 -0.00969091 
-0.0109595 0.0300204 -0.00751704 -0.0171117 -0.02331 -0.00425323 -0.0203439 -0.0193455 -0.00537151 
-0.00413281 -0.00792779 -0.00687855 -0.0306741 -0.0048619 -0.00480567 -0.0265082 0.034934 -0.00413548 
-0.00757771 0.0326856 -0.0046677 -0.014458 -0.0138423 -0.000389798 -0.0165238 0.0194762 0.00267423 
-0.0196325 0.0295097 0.00294132 -0.0196571 -0.0325483 0.00459358 -0.0170652 -0.0214262 0.00467193 
-0.0108823 -0.0240914 0.0064551 -0.0208036 0.00162734 0.00571628 -0.0279163 0.0200822 0.00552375 
-0.0255762 0.00585265 0.00745956 -0.0124469 0.0108555 0.0084096 -0.0095853 0.0256603 0.00877861 
-0.00434932 -0.0129336 0.0118656 -0.00343388 0.0316676 0.0114534 -0.0101895 -0.0254463 0.0168968 
-0.00344499 -0.0220199 0.0164181 -0.00418171 -0.00447311 0.0175702 -0.0241229 -0.00156433 0.0153439 
-0.0148123 0.0147393 0.0155531 -0.00876558 -0.00149609 0.0179724 -0.0242978 0.00020127 0.020326 
-0.00296015 0.00664907 0.0196697 -0.0341543 -0.0265255 0.0236496 -0.0256427 -0.020268 0.0218497 
-0.00626215 -0.00726355 0.0242415 -0.0252225 -0.00395457 0.022373 -0.00981587 -0.0226708 0.0282354 
-0.0188893 -0.0164448 0.028256 -0.0118162 -0.0172965 0.0279883 -0.0120408 -0.0289279 0.0315506 
-0.0303622 -0.0214325 0.030609 -0.0224693 0.00786627 0.0312946 -0.0184752 -0.0330418 0.0342924 
-0.0141191 -0.0138017 0.0338231 -0.0288367 0.021507 0.0323841 -0.027048 -0.0348853 0.0369396 
-0.0107355 -0.0111371 0.0366378 -0.0208274 -0.00751444 0.0369122 -0.0250889 0.00553727 0.0364954 
-0.0200267 0.00732997 0.0381679 -0.0120659 -0.000928847 0.0406638 -0.00974267 0.00154746 0.0396905 
-0.0344795 0.0306845 0.0425515 -0.00482279 0.0319284 0.041628 -0.0292124 -0.00857811 0.0463222 
-0.0259008 0.01415 0.0450515 -0.00304149 0.01634 0.0433368 -0.0145727 0.0196597 0.0437952 
-0.00515441 0.000607433 0.0490276 -0.0310028 0.00427373 0.0477261 -0.0138022 0.0201409 0.0471173 
-0.026015 0.0234799 0.0470513 -0.0054599 -0.0346412 0.0515806 -0.0318304 -0.0270523 0.0503181 
-0.00209743 -0.0197497 0.0517546 -0.032644 -0.0063197 0.0534041 -0.00423369 0.00513081 0.0518649 
-0.029449 0.0175582 0.0522471 -0.0230867 -0.0218823 0.054111 -0.000558622 -0.0225112 0.0556245 
-0.0250933 5.52728e-05 0.0569237 -0.0153561 0.00561382 0.0544444 -0.0258414 -0.0246135 0.0592042 
-0.00426265 -0.00806252 0.0573605 -0.0314234 0.00551713 0.057721 -0.0282123 0.0119421 0.0589546 

VERTICES 345 690
1 0 
1 1 
1 2 
1 3 
1 4 
1 5 
1 6 
1 7 
1 8 
1 9 
1 10 
1 11 
1 12 
1 13 
1 14 
1 15 
1 16 
1 17 
1 18 
1 19 
1 20 
1 21 
1 22 
1 23 
1 24 
1 25 
1 26 
1 27 
1 28 
1 29 
1 30 
1 31 
1 32 
1 33 
1 34 
1 35 
1 36 
1 37 
1 38 
1 39 
1 40 
1 41 
1 42 
1 43 
1 44 
1 45 
1 46 
1 47 
1 48 
1 49 
1 50 
1 51 
1 52 
1 53 
1 54 
1 55 
1 56 
1 57 
1 58 
1 59 
1 60 
1 61 
1 62 
1 63 
1 64 
1 65 
1 66 
1 67 
1 68 
1 69 
1 70 
1 71 
1 72 
1 73 
1 74 
1 75 
1 76 
1 77 
1 78 
1 79 
1 80 
1 81 
1 82 
1 83 
1 84 
1 85 
1 86 
1 87 
1 88 
1 89 
1 90 
1 91 
1 92 
1 93 
1 94 
1 95 
1 96 
1 97 
1 98 
1 99 
1 100 
1 101 
1 102 
1 103 
1 104 
1 105 
1 106 
1 107 
1 108 
1 109 
1 110 
1 111 
1 112 
1 113 
1 114 
1 115 
1 116 
1 117 
1 118 
1 119 
1 120 
1 121 
1 122 
1 123 
1 124 
1 125 
1 126 
1 127 
1 128 
1 129 
1 130 
1 131 
1 132 
1 133 
1 134 
1 135 
1 136 
1 137 
1 138 
1 139 
1 140 
1 141 
1 142 
1 143 
1 144 
1 145 
1 146 
1 147 
1 148 
1 149 
1 150 
1 151 
1 152 
1 153 
1 154 
1 155 
1 156 
1 157 
1 158 
1 159 
1 160 
1 161 
1 162 
1 163 
1 164 
1 165 
1 166 
1 167 
1 168 
1 169 
1 170 
1 171 
1 172 
1 173 
1 174 
1 175 
1 176 
1 177 
1 178 
1 179 
1 180 
1 181 
1 182 
1 183 
1 184 
1 185 
1 186 
1 187 
1 188 
1 189 
1 190 
1 191 
1 192 
1 193 
1 194 
1 195 
1 196 
1 197 
1 198 
1 199 
1 200 
1 201 
1 202 
1 203 
1 204 
1 205 
1 206 
1 207 
1 208 
1 209 
1 210 
1 211 
1 212 
1 213 
1 214 
1 215 
1 216 
1 217 
1 218 
1 219 
1 220 
1 221 
1 222 
1 223 
1 224 
1 225 
1 226 
1 227 
1 228 
1 229 
1 230 
1 231 
1 232 
1 233 
1 234 
1 235 
1 236 
1 237 
1 238 
1 239 
1 240 
1 241 
1 242 
1 243 
1 244 
1 245 
1 246 
1 247 
1 248 
1 249 
1 250 
1 251 
1 252 
1 253 
1 254 
1 255 
1 256 
1 257 
1 258 
1 259 
1 260 
1 261 
1 262 
1 263 
1 264 
1 265 
1 266 
1 267 
1 268 
1 269 
1 270 
1 271 
1 272 
1 273 
1 274 
1 275 
1 276 
1 277 
1 278 
1 279 
1 280 
1 281 
1 282 
1 283 
1 284 
1 285 
1 286 
1 287 
1 288 
1 289 
1 290 
1 291 
1 292 
1 293 
1 294 
1 295 
1 296 
1 297 
1 298 
1 299 
1 300 
1 301 
1 302 
1 303 
1 304 
1 305 
1 306 
1 307 
1 308 
1 309 
1 310 
1 311 
1 312 
1 313 
1 314 
1 315 
1 316 
1 317 
1 318 
1 319 
1 320 
1 321 
1 322 
1 323 
1 324 
1 325 
1 326 
1 327 
1 328 
1 329 
1 330 
1 331 
1 332 
1 333 
1 334 
1 335 
1 336 
1 337 
1 338 
1 339 
1 340 
1 341 
1 342 
1 343 
1 344 

POINT_DATA 345
FIELD FieldData 7
id 1 345 int
35 32 16 22 10 6 12 2 7 
19 11 44 20 30 23 25 1 3 
4 13 33 28 14 89 8 36 38 
61 29 21 57 5 47 42 102 56 
40 45 37 52 27 15 39 31 66 
51 54 46 110 59 85 50 58 69 
55 48 74 41 60 87 18 112 67 
73 80 17 94 93 95 24 43 78 
65 88 84 34 63 70 26 75 77 
82 53 71 153 114 141 162 118 91 
163 126 106 83 99 49 81 140 79 
98 76 100 68 168 121 186 105 86 
159 127 151 64 122 139 135 174 190 
62 171 129 123 149 136 133 173 180 
92 116 72 119 138 175 117 97 134 
160 167 125 166 189 150 172 101 143 
128 113 108 155 169 131 107 96 124 
161 184 154 179 198 158 109 188 185 
145 132 164 200 115 183 120 111 192 
104 147 178 182 203 165 144 181 157 
103 195 152 187 204 130 193 90 176 
137 196 146 194 148 191 156 170 199 
142 197 201 177 209 202 9 210 212 
217 205 207 214 208 206 213 222 215 
216 211 225 229 227 223 226 218 230 
228 221 224 220 219 234 237 240 242 
236 235 238 239 231 250 232 247 252 
233 241 249 255 245 248 244 254 251 
243 246 253 265 259 267 261 264 262 
256 268 258 260 263 266 272 276 257 
274 279 269 275 273 270 281 280 277 
278 271 293 294 290 284 287 288 289 
282 283 292 291 286 296 300 303 302 
285 301 299 297 295 305 304 306 298 
312 315 311 313 314 308 310 317 307 
316 318 309 319 327 331 322 329 330 
320 326 325 323 332 328 321 343 324 
341 344 337 340 336 334 342 339 335 
345 333 338 
type 1 345 int
1 1 1 1 1 1 1 1 1 
1 1 1 1 1 1 1 1 1 
1 1 1 1 1 1 1 1 1 
1 1 1 1 1 1 1 1 1 
1 1 1 1 1 1 1 1 1 
1 1 1 1 1 1 1 1 1 
1 1 1 1 1 1 1 1 1 
1 1 1 1 1 1 1 1 1 
1 1 1 1 1 1 1 1 1 
1 1 1 1 1 1 1 1 1 
1 1 1 1 1 1 1 1 1 
1 1 1 1 1 1 1 1 1 
1 1 1 1 1 1 1 1 1 
1 1 1 1 1 1 1 1 1 
1 1 1 1 1 1 1 1 1 
1 1 1 1 1 1 1 1 1 
1 1 1 1 1 1 1 1 1 
1 1 1 1 1 1 1 1 1 
1 1 1 1 1 1 1 1 1 
1 1 1 1 1 1 1 1 1 
1 1 1 1 1 1 1 1 1 
1 1 1 1 1 1 1 1 1 
1 1 1 1 1 1 1 1 1 
1 1 1 1 1 1 1 1 1 
1 1 1 1 1 1 1 1 1 
1 1 1 1 1 1 1 1 1 
1 1 1 1 1 1 1 1 1 
1 1 1 1 1 1 1 1 1 
1 1 1 1 1 1 1 1 1 
1 1 1 1 1 1 1 1 1 
1 1 1 1 1 1 1 1 1 
1 1 1 1 1 1 1 1 1 
1 1 1 1 1 1 1 1 1 
1 1 1 1 1 1 1 1 1 
1 1 1 1 1 1 1 1 1 
1 1 1 1 1 1 1 1 1 
1 1 1 1 1 1 1 1 1 
1 1 1 1 1 1 1 1 1 
1 1 1 
i 3 345 int
0 0 0 0 0 0 0 0 0 
0 0 0 0 0 0 0 0 0 
0 0 0 0 0 0 0 0 0 
0 0 0 0 0 0 0 0 0 
0 0 0 0 0 0 0 0 0 
0 0 0 0 0 0 0 0 0 
0 0 0 0 0 0 0 0 0 
0 0 0 0 0 0 0 0 0 
0 0 0 0 0 0 0 0 0 
0 0 0 0 0 0 0 0 0 
0 0 0 0 0 0 0 0 0 
0 0 0 0 0 0 0 0 0 
0 0 0 0 0 0 0 0 0 
0 0 0 0 0 0 0 0 0 
0 0 0 0 0 0 0 0 0 
0 0 0 0 0 0 0 0 0 
0 0 0 0 0 0 0 0 0 
0 0 0 0 0 0 0 0 0 
0 0 0 0 0 0 0 0 0 
0 0 0 0 0 0 0 0 0 
0 0 0 0 0 0 0 0 0 
0 0 0 0 0 0 0 0 0 
0 0 0 0 0 0 0 0 0 
0 0 0 0 0 0 0 0 0 
0 0 0 0 0 0 0 0 0 
0 0 0 0 0 0 0 0 0 
0 0 0 0 0 0 0 0 0 
0 0 0 0 0 0 0 0 0 
0 0 0 0 0 0 0 0 0 
0 0 0 0 0 0 0 0 0 
0 0 0 0 0 0 0 0 0 
0 0 0 0 0 0 0 0 0 
0 0 0 0 0 0 0 0 0 
0 0 0 0 0 0 0 0 0 
0 0 0 0 0 0 0 0 0 
0 0 0 0 0 0 0 0 0 
0 0 0 0 0 0 0 0 0 
0 0 0 0 0 0 0 0 0 
0 0 0 0 0 0 0 0 0 
0 0 0 0 0 0 0 0 0 
0 0 0 0 0 0 0 0 0 
0 0 0 0 0 0 0 0 0 
0 0 0 0 0 0 0 0 0 
0 0 0 0 0 0 0 0 0 
0 0 0 0 0 0 0 0 0 
0 0 0 0 0 0 0 0 0 
0 0 0 0 0 0 0 0 0 
0 0 0 0 0 0 0 0 0 
0 0 0 0 0 0 0 0 0 
0 0 0 0 0 0 0 0 0 
0 0 0 0 0 0 0 0 0 
0 0 0 0 0 0 0 0 0 
0 0 0 0 0 0 0 0 0 
0 0 0 0 0 0 0 0 0 
0 0 0 0 0 0 0 0 0 
0 0 0 0 0 0 0 0 0 
0 0 0 0 0 0 0 0 0 
0 0 0 0 0 0 0 0 0 
0 0 0 0 0 0 0 0 0 
0 0 0 0 0 0 0 0 0 
0 0 0 0 0 0 0 0 0 
0 0 0 0 0 0 0 0 0 
0 0 0 0 0 0 0 0 0 
0 0 0 0 0 0 0 0 0 
0 0 0 0 0 0 0 0 0 
0 0 0 0 0 0 0 0 0 
0 0 0 0 0 0 0 0 0 
0 0 0 0 0 0 0 0 0 
0 0 0 0 0 0 0 0 0 
0 0 0 0 0 0 0 0 0 
0 0 0 0 0 0 0 0 0 
0 0 0 0 0 0 0 0 0 
0 0 0 0 0 0 0 0 0 
0 0 0 0 0 0 0 0 0 
0 0 0 0 0 0 0 0 0 
0 0 0 0 0 0 0 0 0 
0 0 0 0 0 0 0 0 0 
0 0 0 0 0 0 0 0 0 
0 0 0 0 0 0 0 0 0 
0 0 0 0 0 0 0 0 0 
0 0 0 0 0 0 0 0 0 
0 0 0 0 0 0 0 0 0 
0 0 0 0 0 0 0 0 0 
0 0 0 0 0 0 0 0 0 
0 0 0 0 0 0 0 0 0 
0 0 0 0 0 0 0 0 0 
0 0 0 0 0 0 0 0 0 
0 0 0 0 0 0 0 0 0 
0 0 0 0 0 0 0 0 0 
0 0 0 0 0 0 0 0 0 
0 0 0 0 0 0 0 0 0 
0 0 0 0 0 0 0 0 0 
0 0 0 0 0 0 0 0 0 
0 0 0 0 0 0 0 0 0 
0 0 0 0 0 0 0 0 0 
0 0 0 0 0 0 0 0 0 
0 0 0 0 0 0 0 0 0 
0 0 0 0 0 0 0 0 0 
0 0 0 0 0 0 0 0 0 
0 0 0 0 0 0 0 0 0 
0 0 0 0 0 0 0 0 0 
0 0 0 0 0 0 0 0 0 
0 0 0 0 0 0 0 0 0 
0 0 0 0 0 0 0 0 0 
0 0 0 0 0 0 0 0 0 
0 0 0 0 0 0 0 0 0 
0 0 0 0 0 0 0 0 0 
0 0 0 0 0 0 0 0 0 
0 0 0 0 0 0 0 0 0 
0 0 0 0 0 0 0 0 0 
0 0 0 0 0 0 0 0 0 
0 0 0 0 0 0 0 0 0 
0 0 0 0 0 0 0 0 0 
0 0 0 0 0 0 0 0 0 
0 0 0 0 0 0 0 0 0 

v 3 345 double
-1.05377 -0.0455449 -0.498205 -1.23591 0.259937 -0.465287 -1.06152 -0.0145658 -0.435854 
-1.38918 0.11368 -0.410151 -0.894883 0.0463247 -0.423021 -0.953454 -0.062808 -0.416777 
-0.968659 -0.109647 -0.475228 -0.919653 -0.0645201 -0.382097 -0.878706 -0.0614172 -0.466552 
-0.823131 -0.146519 -0.284131 -0.940093 -0.113852 -0.408286 -0.935143 -0.110169 -0.396184 
-1.01439 0.358521 -0.302988 -0.819443 0.0736263 -0.349081 -0.849395 0.0916403 -0.280186 
-0.870981 0.141163 -0.397209 -0.960434 0.0238884 -0.192204 -0.720818 0.109544 -0.31595 
-0.730935 -0.0284476 -0.201602 -0.907434 -0.079927 -0.203817 -0.827311 -0.297505 -0.283184 
-0.805437 -0.0773676 -0.333543 -1.14607 -0.300319 -0.13656 -0.443205 -0.221928 -0.491908 
-0.68909 -0.0392007 -0.289827 -0.847366 0.10541 -0.192632 -0.866032 0.261271 -0.304377 
-0.734706 -0.160399 -0.210344 -0.883461 0.0945494 -0.3625 -0.900823 0.176307 -0.352053 
-0.902992 -0.0986781 -0.391753 -0.744629 -0.0366555 -0.30975 -0.706524 0.0988234 -0.816391 
-0.68748 -0.0766832 -0.29372 -0.625283 0.00541186 -0.215834 -0.700924 -0.12365 -0.324572 
-0.738888 -0.00264463 -0.312325 -0.72001 -0.0592685 -0.330985 -0.7022 -0.0497872 -0.238225 
-0.765447 0.120281 -0.316061 -0.783005 -0.0427669 -0.201607 -0.766902 0.0945331 -0.33368 
-0.663397 -0.0759788 -0.403053 -0.624241 0.149607 -0.253614 -0.704354 0.00959772 -0.29332 
-1.05966 -0.384436 -0.064254 -0.743289 -0.00464511 -0.3009 -0.505417 0.0408954 -0.212779 
-0.520288 0.069216 -0.231186 -0.863261 0.11324 -0.536419 -0.782835 -0.180001 -0.382767 
-0.681672 0.010379 -0.253767 -0.958977 0.0221881 -0.406966 -0.813486 -0.187167 -0.691818 
-0.683313 -0.0026075 -0.382571 -0.221438 -0.0415156 -0.181755 -0.693111 -0.0654708 -0.316033 
-0.638027 -0.186432 -0.286345 -0.768386 0.362047 -0.146222 -0.755596 -0.0597797 -0.577134 
-0.615794 0.0556462 -0.264031 -0.551905 0.0451339 -0.236192 -0.57728 -0.144001 -0.242293 
-0.751999 -0.0169154 -0.721212 -0.58428 -0.255041 -0.258543 -0.649263 -0.0469758 -0.279762 
-0.705314 0.00637699 -0.298578 -0.851513 0.0562993 -0.383133 -0.549252 -0.155688 -0.213193 
-0.564723 -0.15691 -0.493305 -0.470487 -0.0608364 -0.196465 -0.771503 -0.00948443 -0.54365 
-0.598957 -0.0781975 -0.261662 -0.501421 0.148744 -0.724632 -0.737647 0.0956722 -0.244503 
-0.546256 -0.0461647 -0.238176 -0.601038 -0.203425 -0.235122 -0.420509 -0.199659 -0.170689 
-0.526514 -0.153297 -0.204992 -0.505973 -0.109709 -0.222011 -0.668813 0.00312804 -0.603977 
-0.660727 -0.0490482 -0.281512 -0.623825 -0.0980778 -0.413639 -0.733884 -0.171404 -0.737946 
-0.686013 0.247345 -0.24568 -0.436147 0.0484442 -0.191992 -0.381613 -0.22707 -0.143728 
-1.05075 0.186789 -0.246385 -0.494786 0.138312 -0.224275 -0.805854 0.0205742 -0.5101 
-0.578199 0.136574 -0.0332902 -0.439631 0.153568 -0.294848 -0.405281 0.0966727 -0.161059 
-0.347078 0.0724867 -0.139899 -0.337619 0.171222 -0.125322 -0.429533 0.0472836 -0.171236 
-0.436873 0.301858 -0.203238 -0.591371 0.0457106 -0.11495 -0.572933 0.0649751 -0.22382 
-0.599907 -0.0445909 -0.551921 -0.701809 -0.195571 -0.146053 -0.720229 0.167311 -0.477915 
-0.636624 0.0779807 -0.205352 -0.511541 0.0015496 -0.208344 -0.75697 0.070159 -0.281677 
-0.738972 0.0485503 0.296598 -0.2479 0.064735 -0.0996594 -0.663613 -0.0659648 -0.419144 
-0.312633 0.129178 -0.251875 -0.677637 -0.0196758 -0.250953 -0.515043 0.0465 -0.143355 
-0.247894 0.159378 -0.0851638 -0.600043 0.120159 -0.337922 -0.799805 0.473722 -0.194837 
-0.264806 -0.280019 0.0563985 -0.624264 -0.311392 -0.213077 -0.731457 0.190931 0.210213 
-0.401414 0.0728471 -0.559464 -0.855363 -0.00762368 -0.341645 -0.529931 -0.0420735 -0.172989 
-0.769962 -0.0362445 -0.317429 -0.352009 -0.115132 0.0460645 -0.41443 -0.0949832 -0.208455 
-0.900064 -0.0667478 -0.262569 -1.00339 -0.340042 -0.0963421 -0.733843 -0.1106 0.245714 
-0.869233 -0.213732 -0.570088 -0.426691 0.053984 -0.313019 -0.38486 0.339611 -0.125247 
-0.406317 0.387021 -0.283997 -0.806388 -0.414174 -0.174171 -0.327415 -0.0909064 0.0372237 
-0.658822 0.233344 -0.336636 -0.549261 -0.250025 -0.41057 -0.37316 -0.00226194 -0.132496 
-0.715826 0.319401 -0.0483202 -0.0909865 -0.00883086 0.0506569 -0.724569 0.298333 -0.288738 
-0.464827 0.123433 -0.124936 -0.367352 -0.117509 0.14403 -0.73977 0.102402 -0.276096 
-0.462623 0.011116 -0.158491 -0.718706 0.128414 -0.488956 -0.454475 0.0687077 -0.219791 
-0.185164 0.0722847 -0.0437549 -0.724285 0.00934202 -0.402902 -0.93552 0.442849 -0.38541 
-0.334205 0.532048 0.0101669 0.16058 0.143834 -0.623915 -0.677757 -0.101963 -0.404731 
-0.553747 -0.162363 -0.342948 -0.133751 0.000126635 -0.0498741 -0.434123 -0.0480046 0.0850679 
-0.230267 -0.251188 -0.0985195 -1.22961 -0.512942 -0.692865 -0.604595 0.048849 0.120322 
-0.718009 -0.29315 0.145944 -0.726719 -0.324071 0.247646 -0.498234 -0.0674549 -0.225307 
-0.283532 -0.261153 -0.336466 -0.154531 -0.792926 -0.548688 -0.164981 -0.078501 -0.69586 
-0.726531 0.299141 -0.141418 -0.46016 0.211407 -0.619025 -0.726073 0.299308 -0.0532774 
-0.479198 0.0184491 -0.105712 -0.381393 0.0702535 -0.396767 -0.654641 -0.274127 -1.16451 
-0.730808 0.162029 -0.317037 -0.704693 0.132857 -0.351145 0.105986 0.655302 0.352589 
-0.674933 -0.233521 -0.302716 -0.851734 0.267758 0.0170487 -0.717186 -0.31982 0.0251002 
-0.703945 -0.188226 -0.111741 0.0643871 0.458002 -0.979644 -0.333699 -0.362904 0.121318 
-0.524605 0.117589 -0.146285 -0.575173 0.205461 0.0854532 -0.374281 0.528899 -0.522444 
-0.687121 -0.0984517 -0.303424 -0.872885 0.0710756 -1.39249 -0.175839 0.278471 -1.60687 
-0.719415 -0.0267257 0.22786 -0.725687 -0.548462 0.295896 -0.624505 -0.277907 -0.115251 
-0.290481 0.216651 -1.71873 -0.0777701 0.217609 -0.0612386 -1.17065 0.232957 -0.356626 
-0.552668 0.0392289 0.00864941 0 0 -2.01637 -0.577641 0.078875 -0.118871 
0.124478 -0.00217845 -1.79275 -0.732511 -0.171083 -0.101183 -0.70602 -0.181399 0.134747 
-0.672146 -0.113176 0.0300548 -0.40531 -0.304066 -0.382857 -0.712056 -0.325931 0.149518 
-0.660447 0.0632922 -0.0427224 0 0 -2.00165 0 0 -2.00342 
-0.714004 -0.326823 0.0379735 0 0 -1.98281 0 0 -1.99331 
-0.27392 -0.479499 0.12736 0 0 -1.9682 0 0 -1.98056 
0 0 -1.95005 0 0 -1.95525 0 0 -1.94966 
0 0 -1.92386 0 0 -1.91238 0 0 -1.89668 
0 0 -1.90738 0 0 -1.88148 0 0 -1.89119 
0 0 -1.88982 0 0 -1.88844 0 0 -1.85774 
0 0 -1.86765 0 0 -1.84145 0 0 -1.85273 
0 0 -1.8339 0 0 -1.81114 0 0 -1.81153 
0 0 -1.80025 0 0 -1.78034 0 0 -1.79152 
0 0 -1.79103 0 0 -1.7926 0 0 -1.76827 
0 0 -1.77406 0 0 -1.77347 0 0 -1.74012 
0 0 -1.72609 0 0 -1.7205 0 0 -1.72059 
0 0 -1.70912 0 0 -1.70764 0 0 -1.68655 
0 0 -1.68528 0 0 -1.69087 0 0 -1.69057 
0 0 -1.69381 0 0 -1.69342 0 0 -1.67566 
0 0 -1.67037 0 0 -1.67321 0 0 -1.64103 
0 0 -1.64663 0 0 -1.63701 0 0 -1.6272 
0 0 -1.60179 0 0 -1.60896 0 0 -1.59355 
0 0 -1.58139 0 0 -1.57707 0 0 -1.55667 
0 0 -1.55794 0 0 -1.55834 0 0 -1.56805 
0 0 -1.53077 0 0 -1.53146 0 0 -1.50536 
0 0 -1.52498 0 0 -1.5087 0 0 -1.51517 
0 0 -1.48506 0 0 -1.48918 0 0 -1.49722 
0 0 -1.46249 0 0 -1.46377 0 0 -1.47348 
0 0 -1.45896 0 0 -1.43679 0 0 -1.44444 
0 0 -1.45464 0 0 -1.44062 0 0 -1.43601 
0 0 -1.43964 0 0 -1.41021 0 0 -1.38872 
0 0 -1.38686 0 0 -1.37509 0 0 -1.3745 
0 0 -1.36174 0 0 -1.36704 0 0 -1.36841 
0 0 -1.35448 0 0 -1.34762 0 0 -1.34487 
0 0 -1.32221 0 0 -1.32525 0 0 -1.28434 
0 0 -1.28797 0 0 -1.27914 0 0 -1.29611 
0 0 -1.29455 0 0 -1.2761 0 0 -1.25786 
0 0 -1.26296 0 0 -1.23166 0 0 -1.24589 
0 0 -1.22695 0 0 -1.24177 0 0 -1.19458 
0 0 -1.19439 0 0 -1.19664 0 0 -1.16702 
0 0 -1.17496 0 0 -1.16917 0 0 -1.14377 
0 0 -1.14779 0 0 -1.16005 0 0 -1.12081 
0 0 -1.12346 0 0 -1.1211 0 0 -1.12473 
0 0 -1.11002 0 0 -1.08775 0 0 -1.09648 
0 0 -1.07058 0 0 -1.07902 0 0 -1.03546 
0 0 -1.04743 0 0 -1.06332 0 0 -1.05911 
0 0 -1.00947 0 0 -1.02202 0 0 -1.02791 
0 0 -1.0285 0 0 -1 0 0 -1 
0 0 -1 0 0 -1 0 0 -1 
0 0 -1 0 0 -1 0 0 -1 
0 0 -1 0 0 -1 0 0 -1 
0 0 -1 0 0 -1 0 0 -1 

f 3 345 double
0 0 -0.000346714 0 0 -0.000346714 -0.000166356 -4.28615e-06 -0.000789743 
0 0 -0.000346714 0 0 -0.000346714 0.000140069 3.33926e-06 0.000400797 
0 0 -0.000346714 -0.000119432 7.89842e-06 -0.000747176 0 0 -0.000346714 
0 0 -0.000346714 -5.68973e-05 -5.91709e-06 -0.000233247 -8.33189e-05 -2.89565e-05 -4.28309e-05 
0 0 -0.000346714 -0.000347938 5.7399e-05 -0.000304003 0 0 -0.000346714 
0 0 -0.000346714 0 0 -0.00160516 -0.000401208 0.000132427 -0.000184804 
0 0 -0.00160516 -0.00155109 0.00341532 0.0130176 0 0 -0.000346714 
-0.000331392 2.9955e-05 -0.000179587 0 0 -0.00160516 0 0 -0.000346714 
-8.8704e-05 1.31051e-05 -3.84495e-05 0 0 -0.000346714 0 0 -0.000346714 
0 0 -0.000346714 -0.000405616 -7.30994e-05 -0.000175791 -7.92449e-05 -3.00984e-05 -5.07597e-05 
-8.41049e-05 -3.05441e-05 -4.75278e-05 -0.000406688 5.9717e-05 -0.000174503 0 0 -0.000346714 
0.000111184 -7.2711e-05 4.09679e-05 0 0 -0.000346714 0 0 -0.000346714 
8.09462e-05 0.000425168 -1.00983e-05 0 0 -0.000346714 0 0 -0.000346714 
0 0 -0.00160516 0 0 -0.00160516 0 0 -0.00160516 
0 0 -0.00160516 0 0 -0.000346714 -0.000413569 -8.03644e-05 -0.000172615 
-0.000359267 0.000732563 0.000210433 0 0 -0.00160516 3.54039e-06 0.000114779 4.5247e-05 
0 0 -0.000346714 0 0 -0.000346714 0 0 -0.000346714 
0 0 -0.000346714 -8.93496e-05 -3.25082e-06 -3.75462e-05 0 0 -0.000346714 
0 0 -0.00160516 0 0 -0.000346714 0 0 -0.000346714 
-0.000391396 -7.70779e-05 -0.000221397 -7.23382e-05 -7.98726e-05 -6.69441e-05 0 0 -0.000346714 
-7.96986e-05 9.29608e-06 -6.00984e-05 -8.59886e-05 1.00443e-05 -4.80563e-05 -0.000409156 -4.95401e-05 -0.000160025 
0 0 -0.000346714 0 0 -0.00160516 -0.000409222 -8.70073e-05 -0.000181684 
-0.000135803 -0.000112341 0.000772053 0 0 -0.00160516 -8.8365e-05 2.48321e-05 -3.8267e-05 
0 0 -0.000346714 -0.000410742 4.32141e-05 -0.000175807 0 0 -0.00160516 
-0.000475414 -8.35396e-05 0.000172259 0 0 -0.000346714 0 0 -0.000346714 
-8.66218e-05 -3.42449e-05 -4.22753e-05 0 0 -0.000346714 0 0 -0.000346714 
-0.000393055 0.000115723 -0.000166041 0 0 -0.000346714 0 0 -0.000346714 
0 0 -0.000346714 0 0 -0.00160516 0 0 -0.000346714 
0 0 -0.000346714 0 0 -0.000346714 0.0112 0.0057423 0.167528 
0 0 -0.000346714 0.000367208 0.000338179 0.00457191 0 0 -0.00160516 
0 0 -0.000346714 0 0 -0.000346714 -0.000345571 -0.000149737 4.87465e-05 
1.44311e-05 1.44952e-05 7.71204e-06 -8.83378e-05 -2.21937e-05 -3.99255e-05 0 0 -0.000346714 
0 0 -0.00160516 0 0 -0.000346714 0 0 -0.00160516 
0 0 -0.000346714 0 0 -0.000346714 0 0 -0.000346714 
0 0 -0.00160516 0 0 -0.00160516 0 0 -0.000346714 
0 0 -0.000346714 -0.000408402 -3.96624e-05 -0.00015559 0 0 -0.000346714 
0 0 -0.000346714 0 0 -0.000346714 0 0 -0.000346714 
-8.67569e-05 -2.32789e-05 -3.86122e-05 0 0 -0.000346714 0 0 -0.000346714 
0 0 -0.000346714 0 0 -0.000346714 0 0 -0.000346714 
0 0 -0.000346714 0 0 -0.000346714 0 0 -0.00160516 
0 0 -0.000346714 0 0 -0.000346714 0 0 -0.000346714 
0 0 -0.000346714 0 0 -0.000346714 0 0 -0.00160516 
0 0 -0.00160516 -0.0517223 -0.0566564 0.0875235 0.00057533 -0.000312077 0.000169186 
0 0 -0.00160516 0 0 -0.000346714 0 0 -0.000346714 
0 0 -0.00160516 0 0 -0.000346714 0 0 -0.000346714 
0 0 -0.000346714 0 0 -0.00160516 0 0 -0.000346714 
0 0 -0.000346714 0 0 -0.000346714 0 0 -0.000346714 
0 0 -0.000346714 0 0 -0.000346714 0 0 -0.00160516 
0 0 -0.00160516 0 0 -0.000346714 0 0 -0.000346714 
0 0 -0.00160516 -0.0429629 0.00807989 0.0420433 0 0 -0.00160516 
0 0 -0.000346714 0 0 -0.000346714 -0.00057533 0.000312077 -0.000862614 
0 0 -0.000346714 0 0 -0.000346714 0 0 -0.00160516 
0 0 -0.000346714 0 0 -0.000346714 -0.000380294 -0.000173672 -0.000166978 
0 0 -0.000346714 0 0 -0.000346714 0 0 -0.000346714 
0 0 -0.00160516 0 0 -0.00160516 0 0 -0.000346714 
0 0 -0.000346714 0 0 -0.00160516 0 0 -0.00160516 
0.0002775 2.97253e-05 -0.000391198 -0.0002775 -2.97253e-05 -0.00030223 0 0 -0.000346714 
0 0 -0.00160516 0 0 -0.000346714 0 0 -0.000346714 
0 0 -0.00160516 0 0 -0.000346714 0 0 -0.000346714 
0 0 -0.00160516 0 0 -0.00160516 0 0 -0.00160516 
0 0 -0.00160516 0.0429629 -0.00807989 -0.0452536 0 0 -0.000346714 
0 0 -0.000346714 -0.0252641 0.00110524 0.0216911 0 0 -0.00160516 
0 0 -0.00160516 0 0 -0.000346714 0 0 -0.000346714 
0 0 -0.000346714 0 0 -0.00160516 0 0 -0.000346714 
0 0 -0.00160516 0 0 -0.000346714 0 0 -0.000346714 