# vtk DataFile Version 4.0
Generated by LIGGGHTS
ASCII
DATASET POLYDATA
POINTS 25 float
-0.00894204 -0.016163 0.0414402 -0.0299058 -0.00882918 0.0409152 -0.0208226 -0.00599195 0.0402243 
-0.0190478 0.013684 0.042019 -0.00462371 0.0206347 0.0398576 -0.0160886 0.0216478 0.0418034 
-0.00174714 0.0260627 0.0404732 -0.00953586 0.00971988 0.0441591 -0.00217367 0.0240852 0.0442936 
-0.0134792 -0.0343741 0.0482656 -0.00618745 -0.0313193 0.0476279 -0.0106535 -0.0244251 0.0468349 
-0.0124546 0.031784 0.0476031 -0.028663 -0.019004 0.0524013 -0.0101549 -0.0158816 0.0531544 
-0.0214597 -0.00448395 0.0512713 -0.0244429 0.0229939 0.0510966 -0.0202974 -0.0199605 0.0551486 
-0.0219947 -0.0107694 0.0556275 -0.0275046 -0.000700049 0.0536913 -0.0083641 0.00277185 0.0540862 
-0.00857183 -0.027925 0.0574106 -0.00408721 -0.0194644 0.0589382 -0.00454319 0.0203252 0.0579925 
-0.00174502 0.0344165 0.0590543 
VERTICES 25 50
1 0 
1 1 
1 2 
1 3 
1 4 
1 5 
1 6 
1 7 
1 8 
1 9 
1 10 
1 11 
1 12 
1 13 
1 14 
1 15 
1 16 
1 17 
1 18 
1 19 
1 20 
1 21 
1 22 
1 23 
1 24 

POINT_DATA 25
FIELD FieldData 7
id 1 25 int
12 10 2 6 7 4 1 8 9 
3 13 5 11 20 18 19 22 23 
25 16 21 24 15 14 17 
type 1 25 int
1 1 1 1 1 1 1 1 1 
1 1 1 1 1 1 1 1 1 
1 1 1 1 1 1 1 
i 3 25 int
0 0 0 0 0 0 0 0 0 
0 0 0 0 0 0 0 0 0 
0 0 0 0 0 0 0 0 0 
0 0 0 0 0 0 0 0 0 
0 0 0 0 0 0 0 0 0 
0 0 0 0 0 0 0 0 0 
0 0 0 0 0 0 0 0 0 
0 0 0 0 0 0 0 0 0 
0 0 0 
v 3 25 double
0 0 -1.08069 0 0 -1.08549 0 0 -1.09167 
0 0 -1.07549 0 0 -1.09501 0 0 -1.07745 
0 0 -1.08942 0 0 -1.05577 0 0 -1.05449 
0 0 -1.01682 0 0 -1.023 0 0 -1.03056 
0 0 -1.0232 0 0 -1 0 0 -1 
0 0 -1 0 0 -1 0 0 -1 
0 0 -1 0 0 -1 0 0 -1 
0 0 -1 0 0 -1 0 0 -1 
0 0 -1 
f 3 25 double
0 0 -0.000346714 0 0 -0.000346714 0 0 -0.00160516 
0 0 -0.000346714 0 0 -0.000346714 0 0 -0.00160516 
0 0 -0.00160516 0 0 -0.000346714 0 0 -0.000346714 
0 0 -0.00160516 0 0 -0.000346714 0 0 -0.00160516 
0 0 -0.000346714 0 0 0 0 0 0 
0 0 0 0 0 0 0 0 0 
0 0 0 0 0 0 0 0 0 
0 0 0 0 0 0 0 0 0 
0 0 0 
radius 1 25 double
0.0015 0.0015 0.0025 0.0015 0.0015 0.0025 0.0025 0.0015 0.0015 
0.0025 0.0015 0.0025 0.0015 0.0015 0.0015 0.0015 0.0015 0.0015 
0.0015 0.0025 0.0015 0.0015 0.0025 0.0025 0.0025 
omega 3 25 double
0 0 0 0 0 0 0 0 0 
0 0 0 0 0 0 0 0 0 
0 0 0 0 0 0 0 0 0 
0 0 0 0 0 0 0 0 0 
0 0 0 0 0 0 0 0 0 
0 0 0 0 0 0 0 0 0 
0 0 0 0 0 0 0 0 0 
0 0 0 0 0 0 0 0 0 
0 0 0 
