# vtk DataFile Version 4.0
Generated by LIGGGHTS
ASCII
DATASET POLYDATA
POINTS 651 float
-0.484259 -0.00931225 -0.375188 -0.466797 -0.00304547 -0.350859 -0.432469 -0.0103122 -0.318004 
-0.424873 -0.0123231 -0.310622 -0.423016 -0.00871052 -0.311157 -0.423121 0.00662143 -0.314066 
-0.423843 -0.0150842 -0.30737 -0.41864 -0.0111205 -0.304117 -0.406939 -0.00621673 -0.296206 
-0.404377 0.00938189 -0.294733 -0.430245 0.0472494 -0.296519 -0.395839 0.0149461 -0.287125 
-0.392328 -0.0159358 -0.284003 -0.389951 0.00981169 -0.282302 -0.382113 0.00387535 -0.278408 
-0.385605 0.0115568 -0.279502 -0.385217 0.0168606 -0.276799 -0.389632 0.0295913 -0.276202 
-0.394484 -0.0508285 -0.273589 -0.382962 -0.0391102 -0.266077 -0.362471 -0.0120019 -0.262991 
-0.36729 0.015223 -0.265289 -0.371612 -0.0423153 -0.25857 -0.356444 0.0108234 -0.259398 
-0.357822 -0.0294202 -0.253927 -0.34771 -0.00844936 -0.252468 -0.352468 -0.00505642 -0.255488 
-0.346046 -0.00182378 -0.254204 -0.348306 0.00409353 -0.254244 -0.345258 0.00808238 -0.253099 
-0.341115 -0.00612063 -0.249263 -0.333787 -0.00514738 -0.246885 -0.33528 -0.00120653 -0.247001 
-0.330292 -0.00271815 -0.245355 -0.330814 0.00213898 -0.245811 -0.335896 0.0043033 -0.246777 
-0.335847 -0.0207327 -0.244467 -0.321174 -0.00568527 -0.24123 -0.322298 0.00141846 -0.241957 
-0.321757 0.00637028 -0.241415 -0.34793 0.0456419 -0.242925 -0.312965 -0.00731693 -0.237816 
-0.315686 0.000343551 -0.238153 -0.316329 0.0062739 -0.239133 -0.319333 -0.0241385 -0.237704 
-0.31174 -0.011382 -0.23679 -0.305823 -0.0121146 -0.234322 -0.311726 0.00841349 -0.235976 
-0.310572 0.0157034 -0.23469 -0.319357 0.0305702 -0.235894 -0.306631 -0.0190789 -0.233562 
-0.299126 -0.00208121 -0.232194 -0.303041 0.00498184 -0.233616 -0.300006 0.00976448 -0.230947 
-0.29231 -0.00731693 -0.229138 -0.291538 -0.00355197 -0.227858 -0.287589 -0.00702457 -0.226073 
-0.282285 0.00492916 -0.223448 -0.286677 0.00773764 -0.225452 -0.289685 0.0116273 -0.226471 
-0.282368 0.0108667 -0.223458 -0.281495 0.0177729 -0.223251 -0.304273 0.0410354 -0.225911 
-0.283399 -0.00115584 -0.220272 -0.270318 0.000213588 -0.220106 -0.27699 0.00954608 -0.222394 
-0.291584 0.0361051 -0.221669 -0.278547 -0.0329233 -0.218677 -0.275361 -0.030158 -0.218133 
-0.272331 -0.0119018 -0.2192 -0.263576 -0.013313 -0.216449 -0.265136 -0.00923252 -0.217563 
-0.262189 -0.0104335 -0.216195 -0.262733 0.00971552 -0.216433 -0.263329 -0.0307305 -0.212766 
-0.266618 -0.0275862 -0.214137 -0.263016 -0.0238396 -0.213324 -0.261717 -0.0171926 -0.215212 
-0.255526 -0.000789694 -0.212783 -0.260534 0.00627171 -0.214577 -0.255801 0.00963895 -0.213523 
-0.26264 0.013187 -0.216072 -0.259011 0.0225008 -0.213125 -0.267527 0.0271478 -0.214511 
-0.263321 0.0293886 -0.213265 -0.255096 -0.0261832 -0.210618 -0.254591 -0.017303 -0.21219 
-0.250133 -0.0163212 -0.210175 -0.253864 -0.0134616 -0.210959 -0.254755 -0.00851156 -0.212133 
-0.249443 -0.0101589 -0.210885 -0.247681 -0.00750242 -0.210269 -0.251015 0.00381821 -0.211757 
-0.248409 0.00489573 -0.210585 -0.250665 0.0155645 -0.21068 -0.256513 -0.035695 -0.208706 
-0.255155 -0.0327853 -0.208815 -0.245394 -0.0295866 -0.205799 -0.246484 -0.0251979 -0.206348 
-0.244408 -0.00732602 -0.20781 -0.238357 -0.00118668 -0.206582 -0.243272 0.00160666 -0.208572 
-0.23674 0.00175842 -0.205793 -0.244917 0.00996931 -0.208946 -0.243108 0.0122574 -0.207971 
-0.248112 0.0201618 -0.208932 -0.241704 0.0173957 -0.206649 -0.299546 0.0666335 -0.206671 
-0.248296 -0.0388517 -0.20428 -0.23968 -0.024547 -0.20352 -0.256731 -0.0222764 -0.204047 
-0.236194 -0.00429049 -0.204016 -0.231722 -0.0246995 -0.200088 -0.222596 -0.0113023 -0.198177 
-0.220594 -0.00696907 -0.198752 -0.225899 0.00253216 -0.201176 -0.223864 0.00824565 -0.200196 
-0.223674 0.0217049 -0.198552 -0.234598 -0.0487651 -0.194989 -0.223883 -0.0362419 -0.19523 
-0.222084 -0.0266033 -0.19565 -0.218282 -0.0189041 -0.196679 -0.215505 -0.0205681 -0.195324 
-0.219346 -0.0153405 -0.197538 -0.216118 -0.0158368 -0.196142 -0.217035 -0.00888909 -0.196084 
-0.218863 -0.0044996 -0.197863 -0.214147 -0.00430204 -0.195224 -0.216596 -0.00188767 -0.197331 
-0.219168 0.00675793 -0.197191 -0.223212 0.0177361 -0.19779 -0.218166 0.0226334 -0.196151 
-0.221198 -0.0369066 -0.193386 -0.212718 -0.0139483 -0.193706 -0.208366 -0.00907494 -0.193519 
-0.203934 -0.00550471 -0.191955 -0.20896 -0.000686502 -0.192972 -0.207128 0.00521748 -0.19325 
-0.210188 0.00679278 -0.194515 -0.208685 0.0121733 -0.193415 -0.214277 0.0145698 -0.194391 
-0.213483 0.0200526 -0.194514 -0.208843 0.0181591 -0.191731 -0.215313 0.0231723 -0.194824 
-0.211705 0.0223579 -0.193484 -0.20695 0.0222662 -0.191487 -0.214895 0.0283727 -0.192353 
-0.20135 -0.0101407 -0.189375 -0.195405 -0.00809286 -0.188225 -0.200696 -0.0050897 -0.189483 
-0.204589 -0.000552473 -0.189556 -0.195691 -0.00131206 -0.188431 -0.197926 0.00517641 -0.189404 
-0.20233 0.010847 -0.190726 -0.199688 0.0130675 -0.188168 -0.211223 0.0138265 -0.190497 
-0.200405 0.0169068 -0.189405 -0.211167 0.0324319 -0.190955 -0.228872 0.0495735 -0.19126 
-0.200054 -0.0268354 -0.187639 -0.19236 -0.0164554 -0.185999 -0.190369 -0.0136401 -0.185511 
-0.194345 0.00876678 -0.187681 -0.192695 0.0137194 -0.185419 -0.199135 0.0306278 -0.185315 
-0.187821 -0.0229182 -0.183356 -0.184921 -0.0182065 -0.182719 -0.187187 -0.014663 -0.18299 
-0.18293 -0.0107196 -0.182787 -0.186891 -0.00874417 -0.182891 -0.180221 0.00353534 -0.180917 
-0.184771 0.0163816 -0.181833 -0.197372 0.0385962 -0.182472 -0.181614 -0.0333295 -0.178549 
-0.177072 -0.0228778 -0.177811 -0.173291 -0.0189879 -0.177881 -0.175779 -0.0154994 -0.179296 
-0.176293 -0.0125579 -0.179857 -0.172968 -0.0117086 -0.177413 -0.18411 -0.00568761 -0.17775 
-0.179149 -0.00339379 -0.178692 -0.174794 -0.000422834 -0.178569 -0.179062 0.0083456 -0.180121 
-0.180643 0.013072 -0.180415 -0.170518 0.0109807 -0.177386 -0.175027 0.0161591 -0.17776 
-0.176723 0.0298741 -0.177253 -0.18865 0.0349845 -0.181161 -0.187256 0.0413327 -0.178517 
-0.176269 -0.0147962 -0.176213 -0.170356 -0.00383043 -0.176702 -0.16066 -0.00474324 -0.173709 
-0.16539 -0.000490922 -0.17465 -0.162538 0.00226474 -0.17403 -0.164118 0.00976496 -0.174829 
-0.161941 0.0077922 -0.174025 -0.162165 0.012167 -0.17382 -0.16814 0.0145705 -0.176099 
-0.173124 0.0245849 -0.176817 -0.173167 0.0290211 -0.175955 -0.174702 -0.0425217 -0.173157 
-0.164318 -0.0198488 -0.172916 -0.175091 -0.0176805 -0.172018 -0.154525 -0.0152054 -0.170431 
-0.155737 -0.000438589 -0.170553 -0.155643 0.00610218 -0.17044 -0.159349 0.0123211 -0.172645 
-0.177727 0.0159895 -0.173283 -0.162047 0.0153125 -0.1735 -0.164384 0.0209116 -0.172745 
-0.201699 0.028528 -0.174227 -0.17519 0.0484455 -0.171284 -0.176944 -0.057107 -0.168342 
-0.160053 -0.0444596 -0.166466 -0.148744 -0.0195001 -0.167524 -0.148378 -0.006217 -0.168469 
-0.147907 -0.00122116 -0.168415 -0.151321 0.00138793 -0.169793 -0.169312 0.00714618 -0.17009 
-0.151823 0.00850358 -0.166756 -0.146685 0.0081851 -0.167079 -0.15086 0.0157469 -0.168393 
-0.160809 0.0287046 -0.169765 -0.160388 -0.0506732 -0.164586 -0.145328 -0.0239003 -0.165404 
-0.143789 -0.0185801 -0.16556 -0.15025 -0.0112358 -0.165456 -0.143729 -0.0106319 -0.166318 
-0.143388 -0.00693456 -0.166361 -0.140123 -0.00830219 -0.163857 -0.1498 -0.00588516 -0.164748 
-0.139733 -0.00331196 -0.163621 -0.142619 -0.00171674 -0.16622 -0.145848 0.00295409 -0.166333 
-0.159131 0.00439042 -0.165913 -0.138499 0.0105332 -0.164063 -0.141195 0.0139325 -0.164928 
-0.177619 0.0618306 -0.166414 -0.188912 -0.0745472 -0.162633 -0.169334 -0.0653106 -0.161195 
-0.150801 -0.0157669 -0.162133 -0.134513 -0.0106977 -0.162427 -0.132512 -0.0119511 -0.160277 
-0.129649 -0.000931833 -0.159647 -0.130103 0.00548581 -0.160722 -0.129604 0.00843625 -0.160356 
-0.132871 0.0108027 -0.161652 -0.138074 0.016289 -0.162252 -0.13234 0.0183699 -0.159566 
-0.13478 0.0232693 -0.160993 -0.125266 -0.00735001 -0.158713 -0.123843 -0.00472351 -0.158226 
-0.121147 -0.00524125 -0.157016 -0.125886 -0.00243377 -0.159018 -0.125974 0.00233649 -0.158046 
-0.122189 0.000933268 -0.15756 -0.134787 0.00823416 -0.15854 -0.123875 0.00720126 -0.158023 
-0.124141 0.0108677 -0.157812 -0.121419 0.0143176 -0.156557 -0.130012 0.0143795 -0.157663 
-0.129461 0.0218297 -0.158988 -0.130858 0.0268361 -0.157766 -0.127006 0.024289 -0.157641 
-0.130622 0.0354809 -0.156943 -0.154791 0.0575901 -0.159408 -0.126067 -0.0318371 -0.154788 
-0.121512 -0.0259294 -0.155156 -0.117001 -0.0210209 -0.153945 -0.114006 -0.0181069 -0.153097 
-0.13005 -0.0114823 -0.154265 -0.11892 -0.0109365 -0.154679 -0.114291 -0.0109817 -0.152525 
-0.117637 -0.00700836 -0.155505 -0.133392 -0.00590984 -0.155903 -0.119173 -0.00247277 -0.154318 
-0.117896 0.00599544 -0.155649 -0.114093 0.00440485 -0.154118 -0.111982 0.0132445 -0.15258 
-0.165007 0.0707021 -0.155355 -0.134237 -0.0622822 -0.149062 -0.122385 -0.0429174 -0.151542 
-0.110163 -0.017129 -0.151611 -0.103891 -0.0160053 -0.149119 -0.10924 -0.0117876 -0.150554 
-0.11844 -0.0101111 -0.150738 -0.109522 -0.00669196 -0.151007 -0.107942 0.00328229 -0.150427 
-0.101522 0.00301003 -0.148794 -0.11837 0.00587089 -0.151119 -0.111416 0.00891556 -0.151648 
-0.106771 0.00728043 -0.150912 -0.108929 0.0142753 -0.150058 -0.109949 0.0191827 -0.150185 
-0.11205 0.0232828 -0.151529 -0.111771 0.0264331 -0.150932 -0.115759 0.0420691 -0.149218 
-0.116217 -0.043865 -0.147607 -0.110394 -0.0388502 -0.146756 -0.106247 -0.0385539 -0.146238 
-0.111114 -0.0143052 -0.148043 -0.0982784 -0.0138181 -0.146872 -0.0949832 -0.0117619 -0.145639 
-0.0991208 -0.00829353 -0.147588 -0.102289 -0.00457102 -0.147794 -0.0964695 -0.00476794 -0.14549 
-0.108854 0.000440632 -0.146748 -0.120577 0.00652895 -0.148215 -0.0971308 0.00376289 -0.145961 
-0.144897 0.00816626 -0.146371 -0.10436 0.0139347 -0.147766 -0.101322 0.021694 -0.147277 
-0.109155 0.0281716 -0.148259 -0.111916 0.0391041 -0.148325 -0.143976 -0.079473 -0.142981 
-0.108504 -0.0553822 -0.141845 -0.105312 -0.0509674 -0.142081 -0.0979215 -0.0381111 -0.142881 
[...]
POINT_DATA 651
FIELD FieldData 7
id 1 651 int
35 16 6 2 44 10 12 11 57 
1 20 25 13 30 23 38 29 21 
51 14 19 3 33 47 28 40 5 
7 4 69 54 56 27 45 73 66 
93 37 89 61 60 8 52 36 173 
100 87 42 94 120 85 77 59 91 
133 55 41 176 39 15 17 84 147 
131 71 31 117 63 113 78 46 58 
74 125 76 80 43 50 67 65 162 
126 153 145 88 24 98 18 53 92 
110 112 86 164 102 62 101 95 103 
130 137 190 75 111 48 108 34 139 
97 26 207 196 168 104 148 186 121 
122 174 178 141 140 187 150 179 180 
177 129 82 68 193 163 171 79 202 
198 195 159 160 127 118 138 106 114 
107 49 219 132 166 142 204 215 184 
241 144 154 83 151 81 70 189 123 
210 156 158 265 134 183 136 116 115 
105 119 225 157 149 229 250 181 167 
211 221 143 169 252 170 99 278 213 
294 270 146 205 124 209 175 254 212 
199 64 109 272 244 152 182 206 96 
200 228 208 352 72 135 201 223 197 
161 224 324 128 261 290 234 185 172 
276 284 236 280 295 277 233 249 245 
317 299 191 251 188 305 307 293 332 
220 292 314 273 322 321 253 267 227 
247 238 218 304 287 266 226 242 363 
264 256 275 230 289 260 274 222 255 
298 243 258 235 297 259 192 303 262 
155 288 263 214 203 283 330 333 232 
240 339 194 248 310 348 368 217 306 
308 271 341 281 370 237 318 315 285 
343 316 382 296 347 300 282 367 165 
377 327 344 351 313 291 302 246 354 
286 390 331 320 269 216 329 336 337 
353 362 323 231 311 340 279 90 366 
239 335 389 355 358 301 309 350 394 
338 349 257 326 328 429 387 346 360 
418 401 374 325 371 319 356 388 365 
268 386 9 423 375 400 380 422 342 
345 446 381 447 378 407 334 420 414 
448 404 405 409 399 419 396 391 385 
361 359 470 408 373 402 312 393 357 
425 459 384 369 413 438 383 473 478 
410 430 392 492 372 454 451 427 444 
364 379 482 464 460 476 435 395 397 
489 412 415 376 481 493 406 466 467 
411 465 398 424 445 484 403 449 490 
433 477 498 457 441 434 442 475 458 
455 483 437 463 421 416 510 480 491 
503 487 479 426 462 508 456 461 506 
431 436 439 496 450 417 428 440 507 
486 471 509 511 497 468 488 452 504 
474 443 495 501 469 494 453 485 472 
505 432 499 502 500 519 517 522 513 
512 516 514 520 521 523 518 529 515 
536 528 532 535 530 527 533 534 526 
531 543 524 525 547 545 540 549 541 
548 546 539 542 538 559 555 544 550 
537 552 561 562 557 558 553 560 554 
556 551 569 566 564 565 563 574 572 
568 567 571 570 573 587 575 582 588 
576 578 579 586 581 580 577 583 585 
584 596 591 589 595 601 598 590 597 
593 594 600 599 592 611 603 607 608 
602 613 612 605 614 609 610 604 606 
615 618 626 616 623 624 620 621 625 
617 622 627 640 619 628 636 629 639 
635 638 637 632 634 631 633 650 630 
652 645 642 647 646 643 641 649 651 
653 644 648 
type 1 651 int
1 1 1 1 1 1 1 1 1 
1 1 1 1 1 1 1 1 1 
1 1 1 1 1 1 1 1 1 
1 1 1 1 1 1 1 1 1 
1 1 1 1 1 1 1 1 1 
1 1 1 1 1 1 1 1 1 
1 1 1 1 1 1 1 1 1 
1 1 1 1 1 1 1 1 1 
1 1 1 1 1 1 1 1 1 
1 1 1 1 1 1 1 1 1 
1 1 1 1 1 1 1 1 1 
1 1 1 1 1 1 1 1 1 
1 1 1 1 1 1 1 1 1 
1 1 1 1 1 1 1 1 1 
1 1 1 1 1 1 1 1 1 
1 1 1 1 1 1 1 1 1 
1 1 1 1 1 1 1 1 1 
1 1 1 1 1 1 1 1 1 
1 1 1 1 1 1 1 1 1 
1 1 1 1 1 1 1 1 1 
1 1 1 1 1 1 1 1 1 
1 1 1 1 1 1 1 1 1 
1 1 1 1 1 1 1 1 1 
1 1 1 1 1 1 1 1 1 
1 1 1 1 1 1 1 1 1 
1 1 1 1 1 1 1 1 1 
1 1 1 1 1 1 1 1 1 
1 1 1 1 1 1 1 1 1 
1 1 1 1 1 1 1 1 1 
1 1 1 1 1 1 1 1 1 
1 1 1 1 1 1 1 1 1 
1 1 1 1 1 1 1 1 1 
1 1 1 1 1 1 1 1 1 
1 1 1 1 1 1 1 1 1 
1 1 1 1 1 1 1 1 1 
1 1 1 1 1 1 1 1 1 
1 1 1 1 1 1 1 1 1 
1 1 1 1 1 1 1 1 1 
1 1 1 1 1 1 1 1 1 
1 1 1 1 1 1 1 1 1 
1 1 1 1 1 1 1 1 1 
1 1 1 1 1 1 1 1 1 
1 1 1 1 1 1 1 1 1 
1 1 1 1 1 1 1 1 1 
1 1 1 1 1 1 1 1 1 
1 1 1 1 1 1 1 1 1 
1 1 1 1 1 1 1 1 1 
1 1 1 1 1 1 1 1 1 
1 1 1 1 1 1 1 1 1 
1 1 1 1 1 1 1 1 1 
1 1 1 1 1 1 1 1 1 
1 1 1 1 1 1 1 1 1 
1 1 1 1 1 1 1 1 1 
1 1 1 1 1 1 1 1 1 
1 1 1 1 1 1 1 1 1 
1 1 1 1 1 1 1 1 1 
1 1 1 1 1 1 1 1 1 
1 1 1 1 1 1 1 1 1 
1 1 1 1 1 1 1 1 1 
1 1 1 1 1 1 1 1 1 
1 1 1 1 1 1 1 1 1 
1 1 1 1 1 1 1 1 1 
1 1 1 1 1 1 1 1 1 
1 1 1 1 1 1 1 1 1 
1 1 1 1 1 1 1 1 1 
1 1 1 1 1 1 1 1 1 
1 1 1 1 1 1 1 1 1 
1 1 1 1 1 1 1 1 1 
1 1 1 1 1 1 1 1 1 
1 1 1 1 1 1 1 1 1 
1 1 1 1 1 1 1 1 1 
1 1 1 1 1 1 1 1 1 
1 1 1 
i 3 651 int
0 0 0 0 0 0 0 0 0 
0 0 0 0 0 0 0 0 0 
0 0 0 0 0 0 0 0 0 
0 0 0 0 0 0 0 0 0 
0 0 0 0 0 0 0 0 0 
0 0 0 0 0 0 0 0 0 
0 0 0 0 0 0 0 0 0 
0 0 0 0 0 0 0 0 0 
0 0 0 0 0 0 0 0 0 
0 0 0 0 0 0 0 0 0 
0 0 0 0 0 0 0 0 0 
0 0 0 0 0 0 0 0 0 
0 0 0 0 0 0 0 0 0 
0 0 0 0 0 0 0 0 0 
0 0 0 0 0 0 0 0 0 
0 0 0 0 0 0 0 0 0 
0 0 0 0 0 0 0 0 0 
0 0 0 0 0 0 0 0 0 
0 0 0 0 0 0 0 0 0 
0 0 0 0 0 0 0 0 0 
0 0 0 0 0 0 0 0 0 
0 0 0 0 0 0 0 0 0 
0 0 0 0 0 0 0 0 0 
0 0 0 0 0 0 0 0 0 
0 0 0 0 0 0 0 0 0 
0 0 0 0 0 0 0 0 0 
0 0 0 0 0 0 0 0 0 
0 0 0 0 0 0 0 0 0 
0 0 0 0 0 0 0 0 0 
0 0 0 0 0 0 0 0 0 
0 0 0 0 0 0 0 0 0 
0 0 0 0 0 0 0 0 0 
0 0 0 0 0 0 0 0 0 
0 0 0 0 0 0 0 0 0 
0 0 0 0 0 0 0 0 0 
0 0 0 0 0 0 0 0 0 
0 0 0 0 0 0 0 0 0 
0 0 0 0 0 0 0 0 0 
0 0 0 0 0 0 0 0 0 
0 0 0 0 0 0 0 0 0 
0 0 0 0 0 0 0 0 0 
0 0 0 0 0 0 0 0 0 
0 0 0 0 0 0 0 0 0 
0 0 0 0 0 0 0 0 0 
0 0 0 0 0 0 0 0 0 
0 0 0 0 0 0 0 0 0 
0 0 0 0 0 0 0 0 0 
0 0 0 0 0 0 0 0 0 
0 0 0 0 0 0 0 0 0 
0 0 0 0 0 0 0 0 0 
0 0 0 0 0 0 0 0 0 
0 0 0 0 0 0 0 0 0 
0 0 0 0 0 0 0 0 0 
0 0 0 0 0 0 0 0 0 
0 0 0 0 0 0 0 0 0 
0 0 0 0 0 0 0 0 0 
0 0 0 0 0 0 0 0 0 
0 0 0 0 0 0 0 0 0 
0 0 0 0 0 0 0 0 0 
0 0 0 0 0 0 0 0 0 
0 0 0 0 0 0 0 0 0 
0 0 0 0 0 0 0 0 0 
0 0 0 0 0 0 0 0 0 
0 0 0 0 0 0 0 0 0 
0 0 0 0 0 0 0 0 0 
0 0 0 0 0 0 0 0 0 
0 0 0 0 0 0 0 0 0 
0 0 0 0 0 0 0 0 0 
0 0 0 0 0 0 0 0 0 
0 0 0 0 0 0 0 0 0 
0 0 0 0 0 0 0 0 0 
0 0 0 0 0 0 0 0 0 
0 0 0 0 0 0 0 0 0 
0 0 0 0 0 0 0 0 0 
0 0 0 0 0 0 0 0 0 
0 0 0 0 0 0 0 0 0 
0 0 0 0 0 0 0 0 0 
0 0 0 0 0 0 0 0 0 
0 0 0 0 0 0 0 0 0 
0 0 0 0 0 0 0 0 0 
0 0 0 0 0 0 0 0 0 
0 0 0 0 0 0 0 0 0 
0 0 0 0 0 0 0 0 0 
0 0 0 0 0 0 0 0 0 
0 0 0 0 0 0 0 0 0 
0 0 0 0 0 0 0 0 0 
0 0 0 0 0 0 0 0 0 
0 0 0 0 0 0 0 0 0 
0 0 0 0 0 0 0 0 0 
0 0 0 0 0 0 0 0 0 
0 0 0 0 0 0 0 0 0 
0 0 0 0 0 0 0 0 0 
0 0 0 0 0 0 0 0 0 
0 0 0 0 0 0 0 0 0 
0 0 0 0 0 0 0 0 0 
0 0 0 0 0 0 0 0 0 
0 0 0 0 0 0 0 0 0 
0 0 0 0 0 0 0 0 0 
0 0 0 0 0 0 0 0 0 
0 0 0 0 0 0 0 0 0 
0 0 0 0 0 0 0 0 0 
0 0 0 0 0 0 0 0 0 
0 0 0 0 0 0 0 0 0 
0 0 0 0 0 0 0 0 0 
0 0 0 0 0 0 0 0 0 
0 0 0 0 0 0 0 0 0 
0 0 0 0 0 0 0 0 0 
0 0 0 0 0 0 0 0 0 
0 0 0 0 0 0 0 0 0 
0 0 0 0 0 0 0 0 0 
0 0 0 0 0 0 0 0 0 
0 0 0 0 0 0 0 0 0 
0 0 0 0 0 0 0 0 0 
0 0 0 0 0 0 0 0 0 
0 0 0 0 0 0 0 0 0 
0 0 0 0 0 0 0 0 0 
0 0 0 0 0 0 0 0 0 
0 0 0 0 0 0 0 0 0 
0 0 0 0 0 0 0 0 0 
0 0 0 0 0 0 0 0 0 
0 0 0 0 0 0 0 0 0 
0 0 0 0 0 0 0 0 0 
0 0 0 0 0 0 0 0 0 
0 0 0 0 0 0 0 0 0 
0 0 0 0 0 0 0 0 0 
0 0 0 0 0 0 0 0 0 
0 0 0 0 0 0 0 0 0 
0 0 0 0 0 0 0 0 0 
0 0 0 0 0 0 0 0 0 
0 0 0 0 0 0 0 0 0 
0 0 0 0 0 0 0 0 0 
0 0 0 0 0 0 0 0 0 
0 0 0 0 0 0 0 0 0 
0 0 0 0 0 0 0 0 0 
0 0 0 0 0 0 0 0 0 
0 0 0 0 0 0 0 0 0 
0 0 0 0 0 0 0 0 0 
0 0 0 0 0 0 0 0 0 
0 0 0 0 0 0 0 0 0 
0 0 0 0 0 0 0 0 0 
0 0 0 0 0 0 0 0 0 
0 0 0 0 0 0 0 0 0 
0 0 0 0 0 0 0 0 0 
0 0 0 0 0 0 0 0 0 
0 0 0 0 0 0 0 0 0 
0 0 0 0 0 0 0 0 0 
0 0 0 0 0 0 0 0 0 
0 0 0 0 0 0 0 0 0 
0 0 0 0 0 0 0 0 0 
0 0 0 0 0 0 0 0 0 
0 0 0 0 0 0 0 0 0 
0 0 0 0 0 0 0 0 0 
0 0 0 0 0 0 0 0 0 
0 0 0 0 0 0 0 0 0 
0 0 0 0 0 0 0 0 0 
0 0 0 0 0 0 0 0 0 
0 0 0 0 0 0 0 0 0 
0 0 0 0 0 0 0 0 0 
0 0 0 0 0 0 0 0 0 
0 0 0 0 0 0 0 0 0 
0 0 0 0 0 0 0 0 0 
0 0 0 0 0 0 0 0 0 
0 0 0 0 0 0 0 0 0 
0 0 0 0 0 0 0 0 0 
0 0 0 0 0 0 0 0 0 
0 0 0 0 0 0 0 0 0 
0 0 0 0 0 0 0 0 0 
0 0 0 0 0 0 0 0 0 
0 0 0 0 0 0 0 0 0 
0 0 0 0 0 0 0 0 0 
0 0 0 0 0 0 0 0 0 
0 0 0 0 0 0 0 0 0 
0 0 0 0 0 0 0 0 0 
0 0 0 0 0 0 0 0 0 
0 0 0 0 0 0 0 0 0 
0 0 0 0 0 0 0 0 0 
0 0 0 0 0 0 0 0 0 
0 0 0 0 0 0 0 0 0 
0 0 0 0 0 0 0 0 0 
0 0 0 0 0 0 0 0 0 
0 0 0 0 0 0 0 0 0 
0 0 0 0 0 0 0 0 0 
0 0 0 0 0 0 0 0 0 
0 0 0 0 0 0 0 0 0 
0 0 0 0 0 0 0 0 0 
0 0 0 0 0 0 0 0 0 
0 0 0 0 0 0 0 0 0 
0 0 0 0 0 0 0 0 0 
0 0 0 0 0 0 0 0 0 
0 0 0 0 0 0 0 0 0 
0 0 0 0 0 0 0 0 0 
0 0 0 0 0 0 0 0 0 
0 0 0 0 0 0 0 0 0 
0 0 0 0 0 0 0 0 0 
0 0 0 0 0 0 0 0 0 
0 0 0 0 0 0 0 0 0 
0 0 0 0 0 0 0 0 0 
0 0 0 0 0 0 0 0 0 
0 0 0 0 0 0 0 0 0 
0 0 0 0 0 0 0 0 0 
0 0 0 0 0 0 0 0 0 
0 0 0 0 0 0 0 0 0 
0 0 0 0 0 0 0 0 0 
0 0 0 0 0 0 0 0 0 
0 0 0 0 0 0 0 0 0 
0 0 0 0 0 0 0 0 0 
0 0 0 0 0 0 0 0 0 
0 0 0 0 0 0 0 0 0 
0 0 0 0 0 0 0 0 0 
0 0 0 0 0 0 0 0 0 
0 0 0 0 0 0 0 0 0 
0 0 0 0 0 0 0 0 0 
0 0 0 0 0 0 0 0 0 
0 0 0 0 0 0 0 0 0 
0 0 0 0 0 0 0 0 0 
0 0 0 0 0 0 0 0 0 
0 0 0 0 0 0 0 0 0 

v 3 651 double
-1.34345 0.15557 -1.72941 -1.41114 0.00647445 -1.57776 -1.3674 -0.00979849 -1.34556 
-1.353 -0.0201427 -1.30339 -1.32487 -0.0121692 -1.28009 -1.29594 0.0210826 -1.31138 
-1.37111 0.0250101 -1.26689 -1.28523 -0.041963 -1.19308 -1.40329 -0.151216 -1.19682 
-1.29447 -0.0102819 -1.1691 -1.23863 -0.175653 -1.32434 -1.30627 -0.0249384 -1.10318 
-1.29435 0.223299 -1.11582 -1.29539 0.0619969 -1.05573 -1.24968 -0.0603932 -1.00342 
-1.30976 -0.0504093 -1.03314 -1.31046 -0.0406686 -1.0231 -1.35161 -0.0860827 -1.05201 
-1.05489 0.35516 -1.46384 -1.14598 0.0397467 -0.904336 -1.15852 -0.00366611 -0.796291 
-1.25453 0.15366 -0.871439 -1.24054 0.158113 -0.942537 -1.26391 -0.022145 -0.801611 
-1.25545 0.0607519 -0.779163 -1.31252 0.0560466 -0.720745 -1.29111 0.108538 -0.756661 
-1.03567 0.00503888 -0.648599 -1.171 0.102062 -0.713831 -1.1894 0.0238272 -0.692287 
-1.27288 0.103865 -0.66663 -1.14161 0.0419132 -0.565443 -1.20546 -0.0412597 -0.621735 
-1.16584 0.0815287 -0.546956 -1.13117 0.0301638 -0.55303 -1.29017 0.0193838 -0.626766 
-1.29371 0.114281 -0.631066 -1.25034 0.122719 -0.511795 -1.18765 0.0540333 -0.501795 
-1.19597 0.053172 -0.500737 -1.10742 -0.415567 -0.913603 -1.15791 0.0220536 -0.467295 
-1.17256 0.0198376 -0.492964 -1.16703 0.023123 -0.49001 -1.40116 0.11515 -0.628872 
-1.20998 0.0945696 -0.50574 -1.19519 0.0871588 -0.480767 -1.1573 0.0327282 -0.485049 
-1.25105 -0.0924192 -0.5399 -1.03383 -0.0337368 -0.432021 -1.14906 0.0834702 -0.527375 
-1.04294 0.00592537 -0.440248 -1.05915 -0.0497542 -0.450201 -0.94152 -0.0232514 -0.398845 
-1.08822 -0.0435643 -0.457342 -1.05735 -0.0471438 -0.444836 -1.03581 -0.0784651 -0.434106 
-1.02665 0.10687 -0.334523 -1.01394 -0.0394297 -0.429815 -1.02906 -0.0482136 -0.437543 
-1.0391 -0.00792319 -0.429411 -1.03389 0.0760632 -0.428704 -1.21484 -0.182862 -0.583647 
-1.17113 -0.248078 -0.330795 -0.921507 -0.0587742 -0.394549 -1.02955 0.0232142 -0.423684 
-1.16667 -0.331521 -0.569122 -1.15842 0.208345 -0.526587 -1.04487 -0.02216 -0.420113 
-1.03974 0.0225852 -0.434543 -0.991664 0.0180803 -0.416641 -0.970582 0.00347021 -0.405897 
-0.965716 0.0143005 -0.40521 -0.955924 -0.018414 -0.398878 -0.875786 -0.0297892 -0.399597 
-0.965171 -0.041427 -0.394773 -0.982685 0.0124808 -0.445517 -0.960441 0.0590443 -0.412654 
-0.934056 0.0562881 -0.39506 -0.975679 -0.0793553 -0.423367 -0.946902 0.0707435 -0.393278 
-1.15464 -0.204291 -0.515652 -1.03325 -0.0635368 -0.437227 -1.12595 0.0253687 -0.444555 
-1.05407 -0.194404 -0.489302 -1.09424 0.0273615 -0.434732 -0.863113 -0.0447211 -0.37133 
-0.831828 -0.141277 -0.328651 -0.84529 -0.0853099 -0.398433 -0.803208 -0.0536278 -0.337878 
-0.89505 -0.00308918 -0.379789 -0.949449 0.085959 -0.41374 -0.892955 0.0339389 -0.379084 
-0.886573 0.0499529 -0.370181 -0.892524 -0.0383052 -0.374725 -0.998292 0.0777855 -0.418294 
-0.910383 0.0489137 -0.428485 -0.973262 -0.0207112 -0.372474 -0.974731 -0.0323563 -0.388818 
-0.906101 0.0540724 -0.373343 -0.868024 0.0896314 -0.366012 -1.02813 -0.00792093 -0.437747 
-0.919521 0.171657 -0.377027 -1.02703 0.0647256 -0.426996 -0.982109 0.0397941 -0.416015 
-1.07649 0.0206245 -0.451571 -0.990015 -0.203111 -0.438214 -1.17812 -0.301585 -0.729404 
-1.10861 0.327175 -0.520634 -0.930416 0.0247566 -0.411853 -1.25631 -0.0898896 -0.522588 
-0.905873 0.0488049 -0.43307 -1.05911 -0.0357007 -0.42586 -0.704896 0.101662 -0.315459 
-0.798128 0.125265 -0.327335 -0.712565 0.00884494 -0.30392 -0.886485 0.0226428 -0.368326 
-0.95662 -0.138939 -0.413738 -0.975549 0.0431583 -0.391277 -0.827081 -0.0903724 -0.316392 
-1.00522 0.0484139 -0.429919 -1.07016 0.0814771 -0.461947 -0.948922 -0.121574 -0.350506 
-0.72285 -0.0798712 -0.26593 -0.893208 -0.0141584 -0.380843 -0.922644 0.0646046 -0.388343 
-0.857001 0.213218 -0.245727 -0.950237 0.111574 -0.40586 -0.895773 -0.00385643 -0.383871 
-0.889364 -0.019797 -0.369802 -0.923254 -0.128405 -0.409039 -0.874052 -0.0329061 -0.369024 
-0.78212 0.00139984 -0.305539 -0.826822 0.0212493 -0.374393 -0.949437 0.0132301 -0.405118 
-0.766838 -0.0595721 -0.32863 -0.878661 -0.00247042 -0.365081 -0.775206 -0.169591 -0.32468 
-0.818542 -0.090126 -0.341032 -0.764428 0.0177091 -0.324776 -0.841546 -0.0772976 -0.358043 
-0.781164 -0.0150665 -0.324665 -0.742098 -0.104483 -0.314519 -0.851494 -0.116893 -0.386628 
-0.772016 -0.0512861 -0.338021 -0.790165 -0.0412535 -0.344577 -0.894665 0.0147872 -0.374723 
-0.923581 0.0214604 -0.395378 -0.697034 -0.0583669 -0.294518 -0.785871 0.0348265 -0.336892 
-0.825453 0.0553154 -0.249312 -0.995337 -0.138599 -0.412877 -0.627999 0.000772537 -0.261097 
-0.780476 -0.216981 -0.345719 -0.83231 -0.00673701 -0.325666 -0.831812 -0.0798786 -0.357946 
-0.875623 -0.0291228 -0.365229 -0.925357 -0.0831376 -0.403083 -0.960644 -0.213721 -0.495462 
-0.861236 0.129323 -0.380496 -0.991513 0.0656874 -0.417194 -0.91012 0.00129761 -0.375928 
-0.935862 -0.0259274 -0.402858 -0.859221 -0.007435 -0.368521 -0.824531 -0.0540841 -0.35994 
-1.02315 0.0263917 -0.425458 -0.87334 0.00987951 -0.361804 -0.906823 0.0222832 -0.377067 
-0.89583 0.0322327 -0.374695 -0.873837 -0.0127138 -0.384386 -0.792267 0.0613712 -0.333391 
-0.829848 0.00323234 -0.345943 -0.849252 -0.143736 -0.393931 -0.928678 -0.0306283 -0.37252 
-0.877081 -0.0381576 -0.375125 -0.78029 -0.0358351 -0.334396 -0.818181 -0.0746038 -0.320926 
-0.815287 -0.0767658 -0.311682 -0.739461 -0.0181603 -0.301247 -0.880523 0.148024 -0.305721 
-0.679181 0.134886 -0.518883 -0.926436 0.146085 -0.396068 -0.774115 0.0316798 -0.338114 
-0.845685 0.0168199 -0.354553 -0.816467 -0.0410229 -0.344059 -0.819067 0.00591441 -0.347041 
-0.815226 -0.123036 -0.360642 -1.16501 -0.154972 -0.511492 -0.898523 -0.0459759 -0.388322 
-1.18906 -0.239109 -0.799497 -0.836093 0.165502 -0.454598 -0.699449 -0.0615368 -0.288537 
-0.822746 -0.0279092 -0.355692 -0.790041 -0.0362653 -0.426339 -0.725622 -0.00355038 -0.297726 
-0.755396 -0.0496666 -0.327525 -0.735685 0.0699757 -0.295094 -0.746877 -0.036632 -0.314663 
-0.966874 -0.132394 -0.433107 -0.838787 -0.104524 -0.366305 -0.860543 0.276276 -0.423499 
-0.905839 -0.0141333 -0.38404 -0.885768 -0.185287 -0.670927 -0.735563 -0.12968 -0.287286 
-0.765539 -0.0309105 -0.315329 -0.558905 0.00622941 -0.24011 -0.701055 0.0242463 -0.279916 
-0.929715 0.304501 -0.633248 -0.863835 -0.022208 -0.356198 -0.920788 -0.00174405 -0.388322 
-1.53925 0.230518 -0.932764 -0.862973 -0.0544199 -0.376964 -0.73123 0.353789 -0.449412 
-0.79632 -0.0463649 -0.297553 -0.886276 0.0563951 -0.373075 -0.618069 -0.0384403 -0.254526 
-0.707503 0.00764634 -0.31531 -0.746612 -0.023321 -0.308798 -1.2491 0.137949 -0.55004 
-0.610005 0.0640132 -0.2227 -0.526854 0.0360783 -0.254062 -0.791052 0.194809 -0.218689 
-0.933045 0.133664 -0.360563 -0.814448 -0.0855646 -0.287381 -0.694668 0.0204499 -0.288764 
-0.558657 -0.127546 -0.224481 -0.990409 -0.0417979 -0.630953 -0.657415 0.0992151 -0.278264 
-0.74819 0.126131 -0.31696 -0.760402 0.0569353 -0.317058 -0.870048 0.234964 -0.28787 
-0.741997 0.0574064 -0.332646 -0.717869 0.131983 -0.308481 -0.72308 0.0577279 -0.318519 
-0.955503 0.0861995 -0.334939 -0.695446 -0.040624 -0.272991 -0.807786 0.0759606 -0.320407 
-0.966041 0.14894 -0.287434 -0.922587 0.178851 -0.455034 -0.985701 -0.120024 -0.294677 
-0.94841 -0.0206341 -0.67383 -0.782991 -0.0169765 -0.334554 -0.839874 -0.203092 -0.298591 
-0.580925 -0.0199318 -0.23999 -0.503643 0.00695676 -0.216247 -0.557954 0.019554 -0.241206 
-0.759562 -0.0631233 -0.332659 -0.772716 -0.213834 -0.351395 -0.793105 0.100762 -0.307209 
-0.79949 0.21488 -0.324661 -0.54863 0.0393611 -0.218891 -0.539374 -0.00673749 -0.223643 
-0.545364 -0.0706726 -0.237154 -0.520386 0.0565711 -0.239007 -0.594444 -0.112832 -0.238321 
-0.641053 0.0749093 -0.274968 -0.855968 0.344106 -0.504096 -0.437655 -0.0575677 -0.1832 
-0.574147 0.0338718 -0.280314 -0.680468 0.111724 -0.272949 -0.829959 0.00970559 -0.442976 
-0.673079 -0.0199447 -0.27677 -0.742888 0.0186931 -0.311325 -0.756764 -0.114577 -0.319933 
-0.571053 0.0136794 -0.234588 -0.921756 0.0433237 -0.351554 -0.461816 0.0239215 -0.197854 
-0.588371 -0.246282 -0.213337 -0.701308 0.0606713 -0.301072 -0.65321 0.0444915 -0.278461 
-0.80953 0.0612401 -0.64439 -0.540598 0.0116173 -0.21037 -0.506811 0.0153745 -0.136461 
-0.50468 0.0837998 -0.219465 -1.0552 -0.153627 -0.37098 -0.665437 0.151434 -0.223037 
-0.635433 -0.0620003 -0.264251 -0.550908 -0.0324888 -0.234024 -0.745 -0.0353294 -0.273903 
-0.590537 -0.0138355 -0.230917 -0.766731 -0.141509 -0.239404 -0.470157 -0.112589 -0.158402 
-0.563329 -0.0347817 -0.232692 -0.516379 0.01362 -0.218472 -0.662214 -0.0862781 -0.275645 
-0.530561 0.152992 -0.186288 -0.627393 -0.0608033 -0.259009 -0.554022 0.0506217 -0.229279 
-0.492763 0.0109542 -0.206632 -0.95992 0.0927902 -0.540593 -0.503702 0.0354344 -0.208057 
-0.564605 -0.0253506 -0.238121 -0.70521 0.127989 -0.280844 -0.793262 0.10636 -0.314461 
-0.733917 0.0639678 -0.297617 -0.628056 0.105184 -0.264357 -0.780596 0.183998 -0.280939 
-0.815952 -0.0384916 -0.319337 -0.418384 -0.0537629 -0.161931 -0.888355 -0.0222557 -0.363233 
-0.829249 -0.00261214 -0.606724 -0.694782 -0.0121864 -0.239235 -0.59594 0.00470014 -0.249873 
-0.64206 0.0446291 -0.275133 -0.666463 0.011185 -0.201866 -0.573318 0.0330001 -0.258472 
-0.723221 0.12893 -0.0139512 -0.963451 0.0213916 -0.393301 -0.705547 -0.0565511 -0.215369 
-0.952936 0.0943762 -0.397843 -0.740031 0.191897 -0.178318 -0.73993 0.144132 -0.283969 
-0.672617 0.120743 -0.316671 -0.691242 0.338318 -0.206985 -0.811747 0.0565939 -0.31422 
-0.874731 -0.283678 -0.226644 -0.724096 -0.23515 -0.222932 -0.512409 -0.165482 -0.178118 
-0.598898 0.0446141 -0.254343 -0.626424 -0.02209 -0.264223 -0.613945 0.0588418 -0.26372 
-0.635278 0.0475564 -0.268902 -0.697703 0.0727102 -0.291039 -0.895587 0.0780118 -0.0573249 
-0.636966 -0.0275548 -0.373723 -0.969285 0.159334 -0.654782 -0.634955 0.00663085 -0.262693 
-0.69731 0.0380492 -0.290846 -0.606623 -0.0306399 -0.255216 -0.657934 -0.0462718 -0.269192 
-0.697938 -0.116767 -0.0879628 -0.588465 0.0860916 -0.251029 -0.827364 -0.131056 -0.808959 
-0.880171 -0.206234 -0.176126 -0.794909 0.064073 -0.335373 -0.577769 0.101377 -0.258225 
-0.585836 -0.0534978 -0.258373 -0.745847 0.22266 -0.299418 -0.488501 -0.102452 -0.222551 
-0.5555 -0.0504136 -0.241963 -0.563759 -0.0218103 -0.23787 -0.807819 -0.298141 -0.199849 
-0.587653 -0.171384 -0.192086 -0.556295 0.0748484 -0.838776 -0.439963 0.0863788 -0.252917 
-0.4788 0.064953 -0.20646 -0.633419 0.127469 -0.291142 -0.470048 -0.146742 -0.199888 
-0.524901 -0.0465717 -0.223557 -0.397386 -0.123018 -0.312392 -0.379233 -0.0928596 -0.163942 
-0.451516 -0.0180769 -0.192193 -0.743652 -0.163103 -0.433422 -0.541655 -0.0174028 -0.22764 
-0.487083 -0.0156351 -0.204889 -0.266172 -0.0428088 -0.185564 -1.02176 -0.434326 -0.201091 
-0.661442 0.133278 -0.48521 -0.462561 -0.017884 -0.192471 -0.409117 -0.116947 -0.195442 
-1.06524 0.390227 -0.481136 -0.677027 0.236831 -0.599799 -0.619648 0.00431099 -0.270575 
-0.415726 -0.119609 -0.170666 -0.76181 -0.297351 -0.227923 -0.480785 -0.073088 -0.20392 
-0.541309 0.0245743 -0.227016 -0.869401 -0.0995532 -0.251638 -0.380434 -0.121717 -0.170475 
-0.504172 -0.0971468 -0.225433 -0.829221 0.159498 -0.306388 -0.642914 0.37962 -0.517112 
-0.893893 0.0922736 -0.618657 -0.370648 -0.0464022 -0.209911 -0.389124 0.0147029 -0.156644 
-0.505657 -0.143016 -0.14005 -1.20474 -0.392072 -0.614231 -0.232127 -0.082055 -0.0945484 
-0.402819 0.0154818 -0.169131 -1.15783 -0.272408 -0.477939 -0.755061 0.0695755 -0.778706 
-0.92378 0.00997092 -0.471439 -0.629461 -0.0307591 -0.261949 -0.863295 0.0752397 -0.670318 
-0.496566 0.0450349 -0.21469 -0.593058 0.173787 -0.256635 -0.594255 0.260106 -0.396002 
-0.678102 0.129929 -0.274754 -0.511556 0.141321 -0.195244 -0.754938 0.181228 -0.523291 
-0.720017 0.322425 -0.495165 -0.74361 0.235968 -0.590118 -0.374436 0.0356957 -0.162809 