# vtk DataFile Version 4.0
Generated by LIGGGHTS
ASCII
DATASET POLYDATA
POINTS 448 float
-0.269041 -0.0325803 -0.214647 -0.265677 0.041274 -0.210355 -0.242981 -0.00362448 -0.207395 
-0.31701 0.0707122 -0.207024 -0.219837 -0.006863 -0.198513 -0.221939 0.00200376 -0.19952 
-0.21234 -0.0149119 -0.194621 -0.217009 -0.0106195 -0.195915 -0.215411 -0.00294571 -0.196836 
-0.213365 0.0113863 -0.195472 -0.206627 0.00941103 -0.191744 -0.209862 -0.0293819 -0.189922 
-0.199378 -0.00595113 -0.190001 -0.196418 -0.00649515 -0.188649 -0.194408 0.00916538 -0.187671 
-0.197775 0.0133865 -0.188678 -0.195144 -0.00209839 -0.187118 -0.188937 0.0133535 -0.184933 
-0.19291 0.0164357 -0.186344 -0.232062 0.0623895 -0.18667 -0.195004 -0.0419369 -0.181545 
-0.184257 -0.01134 -0.182175 -0.180838 -0.00563612 -0.181003 -0.177682 0.00132531 -0.180895 
-0.188481 0.0170591 -0.18332 -0.174821 -0.0237894 -0.176645 -0.17439 0.00939324 -0.179154 
-0.184719 0.0329156 -0.179972 -0.183474 -0.0469691 -0.175153 -0.168042 -0.0164224 -0.174946 
-0.162865 -0.00746647 -0.174554 -0.159419 -0.00671773 -0.173154 -0.160781 -0.00309619 -0.173739 
-0.165122 0.00285497 -0.175628 -0.159433 0.00244369 -0.173142 -0.156249 -0.0231578 -0.170169 
-0.162891 -0.0159741 -0.172807 -0.162031 -0.0110484 -0.172726 -0.154301 -0.00648694 -0.16989 
-0.15239 -0.00184633 -0.170272 -0.156294 0.00287995 -0.170663 -0.157483 0.0154063 -0.17052 
-0.159947 -0.0290799 -0.169387 -0.152964 -0.024863 -0.166473 -0.150751 -0.0203571 -0.16813 
-0.152257 -0.017837 -0.169176 -0.147147 -0.014685 -0.166717 -0.168229 0.00220125 -0.169262 
-0.155238 0.00898275 -0.169376 -0.149397 0.0119553 -0.16742 -0.144219 -0.0180528 -0.16579 
-0.148193 -0.00414212 -0.165828 -0.141523 -0.00580914 -0.16455 -0.144626 0.00243467 -0.165812 
-0.139812 0.0034464 -0.163792 -0.13713 0.00752291 -0.163614 -0.139011 0.0156724 -0.163844 
-0.12964 -0.0112587 -0.16023 -0.136145 -0.00802894 -0.162179 -0.131953 -0.00973251 -0.161397 
-0.126094 -0.00845198 -0.158991 -0.145782 -0.00371565 -0.163488 -0.132353 -0.00570313 -0.161739 
-0.128741 -0.00487897 -0.159176 -0.13646 0.000739091 -0.162211 -0.125996 0.000548993 -0.159078 
-0.134662 0.00441259 -0.160204 -0.146201 0.0130613 -0.160847 -0.135082 0.0108991 -0.161517 
-0.138448 0.0191535 -0.162036 -0.134236 -0.012496 -0.158038 -0.121261 -0.0134389 -0.156588 
-0.122381 -0.00974526 -0.157314 -0.119384 -0.00945057 -0.156078 -0.135139 -0.00405657 -0.157422 
-0.122562 -0.00543465 -0.156598 -0.125527 -0.00248736 -0.158811 -0.124504 0.000353144 -0.15619 
-0.138748 0.0044283 -0.158396 -0.122407 0.0127132 -0.155986 -0.126327 0.030124 -0.156412 
-0.180564 0.0798903 -0.155717 -0.119174 -0.0325114 -0.152864 -0.121488 -0.0247387 -0.154851 
-0.124553 -0.0108276 -0.152999 -0.113474 -0.0128875 -0.152239 -0.113907 -0.00225995 -0.154041 
-0.113828 0.00107451 -0.154008 -0.113196 0.0044507 -0.153708 -0.131696 0.00813092 -0.154757 
-0.122497 0.0392334 -0.152683 -0.120376 -0.0421285 -0.150962 -0.120693 -0.0314004 -0.149566 
-0.111131 -0.0264498 -0.150747 -0.108689 -0.0202099 -0.149481 -0.109747 -0.0158739 -0.151586 
-0.102938 -0.00157076 -0.149273 -0.118228 0.00164018 -0.148697 -0.105312 0.00160059 -0.149125 
-0.111992 0.00407811 -0.150998 -0.105526 0.00936741 -0.150141 -0.101446 0.0100843 -0.148468 
-0.107932 0.0242684 -0.149661 -0.11378 0.0360477 -0.149829 -0.225331 -0.0950064 -0.147711 
-0.106187 -0.0304163 -0.147922 -0.101983 -0.0163957 -0.148264 -0.10919 -0.0137639 -0.147929 
-0.103199 -0.0038847 -0.145487 -0.100429 -0.00432512 -0.148094 -0.104396 -0.0011388 -0.146419 
-0.111993 0.00256216 -0.146031 -0.101146 0.00246872 -0.147061 -0.104054 0.00543093 -0.148179 
-0.100175 0.00636511 -0.147106 -0.0956892 0.00894446 -0.146106 -0.102667 0.0280656 -0.146862 
-0.0980011 0.0275188 -0.144985 -0.130896 0.0584072 -0.148371 -0.0995144 -0.0368009 -0.143811 
-0.0917437 -0.0306973 -0.141835 -0.0905817 -0.0193015 -0.14198 -0.09186 -0.00801291 -0.143466 
-0.108692 -0.00725616 -0.143577 -0.102332 -0.00149699 -0.142414 -0.0953816 -0.00352039 -0.144602 
-0.0902016 -0.00353712 -0.143649 -0.0910983 0.00124664 -0.143317 -0.0947247 0.0207806 -0.144684 
-0.0921106 0.0233888 -0.142096 -0.0923114 0.0293657 -0.142294 -0.0962328 0.033814 -0.143107 
-0.0851735 -0.0219387 -0.14048 -0.0810544 -0.0189934 -0.138015 -0.0856219 -0.0168699 -0.140209 
-0.0784672 -0.015366 -0.138398 -0.0820603 -0.0124654 -0.139084 -0.0782673 -0.00406874 -0.137925 
-0.0995596 -0.000401241 -0.139313 -0.0783299 0.0155581 -0.138285 -0.0830564 0.0242462 -0.139262 
-0.0894905 0.0300883 -0.140736 -0.133347 0.0410182 -0.142184 -0.0891835 0.0388396 -0.137554 
-0.12058 0.0736768 -0.137867 -0.0999086 -0.0613094 -0.135887 -0.094794 -0.0141722 -0.138044 
-0.0748774 -0.0137876 -0.13709 -0.0718622 -0.0116753 -0.134834 -0.0787675 -0.00972018 -0.136459 
-0.0747428 -0.0101632 -0.137212 -0.0681502 -0.00891305 -0.134454 -0.0716903 -0.00384248 -0.135145 
-0.0990393 0.00128535 -0.135439 -0.0841881 0.00196293 -0.137843 -0.0748037 0.000862029 -0.137195 
-0.0743804 0.00700903 -0.13725 -0.0709648 0.0064325 -0.13472 -0.0759642 0.010744 -0.136638 
-0.0786525 0.0218125 -0.13649 -0.074971 0.0311674 -0.134736 -0.097904 0.0535516 -0.137051 
-0.0646069 -0.0246422 -0.131515 -0.0626385 -0.018131 -0.131457 -0.0611457 -0.0114315 -0.131427 
-0.0989251 -0.00821862 -0.132021 -0.0648244 -0.00832049 -0.131888 -0.0680612 -0.00576876 -0.133898 
-0.0808451 -0.00132926 -0.134379 -0.0634659 0.00237982 -0.132732 -0.0614955 0.00490759 -0.13184 
-0.0818476 0.00906251 -0.133655 -0.0651268 0.0103635 -0.133106 -0.0778624 0.0263355 -0.133367 
-0.0687114 0.0297021 -0.132355 -0.0590314 -0.0189159 -0.129848 -0.0520266 -0.0109402 -0.127304 
-0.0720819 -0.000976749 -0.130307 -0.0940546 0.00180206 -0.129996 -0.056711 0.00319724 -0.12987 
-0.0587772 0.00686569 -0.129567 -0.0912213 0.00884061 -0.128081 -0.0687158 0.00983888 -0.130485 
-0.0590113 0.0143375 -0.130177 -0.0530372 0.0109726 -0.128084 -0.0561941 0.0179265 -0.128824 
-0.0574581 0.0207487 -0.129084 -0.0650267 0.0346975 -0.129978 -0.0529458 -0.0306452 -0.125635 
-0.0458702 -0.0123879 -0.124633 -0.0501681 -0.0102383 -0.124543 -0.0451863 -0.00275938 -0.12462 
-0.048167 0.00544439 -0.12505 -0.046127 0.00863951 -0.123591 -0.0634409 0.0121505 -0.126004 
-0.0480951 0.0109631 -0.125922 -0.0766142 0.0141887 -0.124659 -0.0490668 0.0156083 -0.126068 
-0.0905733 0.0285546 -0.126491 -0.0823719 -0.0775217 -0.121029 -0.0643165 -0.0585254 -0.122787 
-0.0520091 -0.0210178 -0.123452 -0.0460164 -0.0198319 -0.122923 -0.0378357 -0.0192826 -0.120837 
-0.0536711 -0.0113796 -0.122995 -0.038248 -0.0094207 -0.120528 -0.0399756 -0.00661878 -0.122416 
-0.0409198 0.00243166 -0.121971 -0.0413586 0.00843875 -0.12318 -0.0510623 0.0130548 -0.123288 
-0.0404488 0.0128008 -0.122624 -0.0630895 0.0140599 -0.12254 -0.0378644 0.0146631 -0.12022 
-0.0466866 0.0183048 -0.122825 -0.0397984 0.0190165 -0.121807 -0.0618845 0.024102 -0.124267 
-0.0474645 0.0307776 -0.123424 -0.061301 -0.0628826 -0.119789 -0.0418822 -0.0481085 -0.116941 
-0.0353774 -0.0208134 -0.119284 -0.0360764 -0.0160594 -0.118112 -0.0313309 -0.0133803 -0.116886 
-0.0357671 -0.00758632 -0.119048 -0.0316684 -0.010871 -0.118531 -0.0336687 -0.00495104 -0.117755 
-0.0390651 -0.00371117 -0.11953 -0.0326222 -0.00156615 -0.119426 -0.0654301 0.00192211 -0.118426 
-0.0285186 0.00274144 -0.117682 -0.0497737 0.0062691 -0.118861 -0.0408553 0.00669826 -0.117393 
-0.0351319 0.00712609 -0.119522 -0.031428 0.00871527 -0.117728 -0.0326414 0.0132047 -0.117632 
-0.0339255 0.0245997 -0.117371 -0.0863103 0.035444 -0.117595 -0.0665774 0.0359298 -0.117386 
-0.0522096 -0.025589 -0.115822 -0.0397062 -0.0209828 -0.115111 -0.0284187 -0.0240313 -0.114074 
-0.0458356 -0.0180132 -0.113572 -0.0300215 -0.0179845 -0.113219 -0.0647848 -0.0114149 -0.115812 
-0.0274612 -0.0134201 -0.11535 -0.0624359 -0.00823013 -0.115457 -0.0551183 -0.00792265 -0.114918 
-0.025392 -0.00588686 -0.115082 -0.0216556 -0.000919598 -0.113769 -0.0353409 -0.00023555 -0.115995 
-0.0213098 0.00215762 -0.114908 -0.0341348 0.0102337 -0.116379 -0.0254807 0.00721662 -0.114445 
-0.0632253 0.0133579 -0.114741 -0.0456329 0.0125403 -0.114034 -0.0270225 0.010847 -0.115743 
-0.0581892 0.0161435 -0.116519 -0.0228869 0.0218923 -0.112838 -0.0377955 0.0310059 -0.115117 
-0.028096 -0.0290763 -0.108996 -0.0354505 -0.0186595 -0.110615 -0.0246503 -0.0191159 -0.111544 
-0.0533271 -0.0077296 -0.111851 -0.0281397 -0.00977264 -0.112791 -0.0287229 -0.00328318 -0.112247 
-0.0106049 -0.00150685 -0.10975 -0.0213768 0.00117561 -0.111028 -0.0677198 0.0066106 -0.112517 
-0.0576407 0.00358481 -0.113365 -0.0222459 0.0047921 -0.111121 -0.0188723 0.00747229 -0.110252 
-0.026317 0.012091 -0.111583 -0.0191991 0.0168079 -0.111573 -0.0341426 0.0261194 -0.111329 
-0.0289541 0.0261225 -0.109669 -0.0250283 0.0247866 -0.112288 -0.0139144 0.0281514 -0.109728 
-0.0384463 0.0298821 -0.110147 -0.0261022 0.0328277 -0.112747 -0.0251909 0.0366982 -0.111925 
-0.0291168 0.0469728 -0.112164 -0.0134694 -0.0242422 -0.106702 -0.0193629 -0.020978 -0.106956 
-0.027432 -0.0135053 -0.108916 -0.00934717 -0.011667 -0.107256 -0.0297388 -0.00934624 -0.107562 
-0.0068826 -0.00421965 -0.107355 -0.0148129 -0.00294346 -0.109457 -0.0246529 0.000582812 -0.10995 
-0.00518304 0.00656649 -0.105424 -0.041162 0.0102541 -0.106653 -0.0170449 0.0121409 -0.109127 
-0.0194175 0.0236048 -0.109041 -0.0458423 -0.0248842 -0.102265 -0.0341543 -0.0265255 -0.106275 
-0.00747712 -0.0205396 -0.105137 -0.0262443 -0.0204725 -0.107891 -0.0428729 -0.0137028 -0.102869 
-0.0252225 -0.00395457 -0.10836 -0.0133304 0.0269796 -0.105145 -0.00997665 0.028739 -0.102591 
-0.0219469 -0.0166212 -0.0986955 -0.0141226 -0.00912236 -0.10093 -0.00626215 -0.00726355 -0.105307 
-0.0389006 0.00573717 -0.10247 -0.00981587 -0.0226708 -0.0987231 -0.017461 -0.0167075 -0.0963704 
-0.0118162 -0.0172965 -0.0991351 -0.0120408 -0.0289279 -0.0932027 -0.0303622 -0.0214325 -0.0947799 
-0.0224693 0.00786627 -0.0936313 -0.040723 -0.103216 -0.0879712 -0.0184752 -0.0330418 -0.0886008 
-0.0141191 -0.0138017 -0.0893919 -0.0288367 0.021507 -0.0918119 -0.027048 -0.0348853 -0.0841172 
-0.0107355 -0.0111371 -0.0846309 -0.0208274 -0.00751444 -0.0841681 -0.0250889 0.00553727 -0.0848753 
-0.0200267 0.00732997 -0.0820256 -0.00974267 0.00154746 -0.07942 -0.0120659 -0.000928847 -0.0777483 
-0.0344795 0.0306845 -0.0744872 -0.00482279 0.0319284 -0.0760855 -0.00304149 0.01634 -0.0731211 
-0.0145727 0.0196597 -0.0723252 -0.0292124 -0.00857811 -0.0679068 -0.0259008 0.01415 -0.070135 
-0.0310028 0.00427373 -0.0654278 -0.0138022 0.0201409 -0.0665075 -0.026015 0.0234799 -0.0666205 
-0.0318304 -0.0270523 -0.0608272 -0.00515441 0.000607433 -0.0631218 -0.0054599 -0.0346412 -0.0585798 
-0.00209743 -0.0197497 -0.0582752 -0.00423369 0.00513081 -0.0580805 -0.029449 0.0175582 -0.0574078 
-0.0230867 -0.0218823 -0.0541346 -0.032644 -0.0063197 -0.0553725 -0.0153561 0.00561382 -0.0535561 
-0.000558622 -0.0225112 -0.0515082 -0.00426265 -0.00806252 -0.0485175 -0.0250933 5.52728e-05 -0.0492688 
-0.0314234 0.00551713 -0.0479011 -0.0258414 -0.0246135 -0.0453793 -0.0282123 0.0119421 -0.0458029 
-0.00797106 -0.0174946 -0.0411349 -0.0135917 0.0274385 -0.0393911 -0.0164984 0.0336061 -0.038957 
-0.00858455 -0.00884288 -0.0376229 -0.00977287 0.0109784 -0.0359653 -0.00315638 0.017114 -0.0357305 
-0.0196875 0.000933277 -0.0325706 -0.0162721 0.0114791 -0.0334003 -0.0243451 0.0195956 -0.0333971 
-0.00205387 -0.0284209 -0.0299632 -0.0184795 -0.0269407 -0.0310525 -0.00832892 -0.0172649 -0.0316509 
-0.0131172 0.0174599 -0.030136 -0.00657095 -0.0222035 -0.0274762 -0.0310592 -0.00121585 -0.0273448 
-0.0213451 -0.000776551 -0.0230682 -0.0171637 0.000809468 -0.0212678 -0.0104872 0.0175218 -0.0222746 
-0.029518 -0.0259191 -0.018537 -0.0215522 -0.0188967 -0.0201713 -0.0123384 -0.0119647 -0.01963 
-0.00937081 0.0258081 -0.0193403 -0.0235714 -0.0119867 -0.0148058 -0.00532413 0.00347482 -0.0166379 
-0.00665099 -0.0147089 -0.0134758 -0.0154765 0.0185486 -0.013641 -0.0183398 -0.0212097 -0.00818259 
-0.00676706 -0.00981008 -0.00830988 -0.00639582 0.00662071 -0.0100338 -0.0299907 0.00855733 -0.0094839 
-0.00517262 0.0323307 -0.00928134 -0.0206177 -0.0113305 -0.00397881 -0.00390427 -0.00527178 -0.00619564 
-0.0311671 0.0123986 -0.00596416 -0.0321609 -0.00607507 -0.0031842 -0.00131466 0.00705789 -0.00146149 
-0.00221027 0.0186146 -0.00145069 -0.0079193 0.0298979 -0.0025595 -0.0138788 -0.0162448 0.00175385 
-0.00399213 -0.0264375 0.00480238 -0.00558275 -0.00455966 0.00688029 -0.0223604 0.0276055 0.00550225 
-0.0173855 -0.0338902 0.00997403 -0.00858558 -0.0125682 0.00972592 -0.0077538 0.0171361 0.00863062 
-0.0318082 0.0208697 0.00792915 -0.00154371 -0.0346722 0.0129263 -0.0287336 -0.0143436 0.0119645 
-0.0220216 -0.0115727 0.0140827 -0.0193685 0.0119819 0.012093 -0.0208051 -0.0257611 0.0169325 
-0.0319573 -0.0211048 0.0164652 -0.0067008 0.0110709 0.0158917 -0.0232248 0.018953 0.0148648 
-0.0124901 0.0292455 0.0156182 -0.0184641 0.0346143 0.0173782 -0.0215899 -0.0111508 0.020297 
-0.00452227 -8.57609e-05 0.0199463 -0.0345917 -0.0281976 0.023636 -0.00861311 0.0156758 0.0219001 
-0.0255212 -0.0322233 0.0264301 -0.0109636 -0.0311008 0.0283711 -0.0293509 -0.0255557 0.0252162 
-0.0239192 -0.011198 0.0273615 -0.00341211 0.0279138 0.0267849 -0.0216218 -0.0306886 0.0292272 
-0.00135906 -0.0285348 0.0299734 -0.0293542 -0.0154504 0.0312184 -0.0144604 0.0146238 0.0305916 
-0.000199364 -0.031613 0.032471 -0.0267273 0.0202325 0.0329921 -0.00801538 0.0199359 0.0339721 
-0.0136772 0.0221297 0.0346719 -0.0291051 0.026364 0.0332217 -0.0188515 -0.0248569 0.0384744 
-0.00957752 -0.023935 0.0379708 -0.0191536 0.0271245 0.0357341 -0.0298384 -0.0303038 0.0414848 
-0.011677 -0.0284877 0.040148 -0.00025791 -0.0162541 0.04229 -0.00986991 0.00120138 0.0423485 
-0.00247583 0.0215485 0.0398632 -0.0165007 0.0290903 0.0425684 -0.0143365 -0.0079604 0.0439084 
-0.0102718 0.00457908 0.0460652 -0.00282712 0.00545747 0.0441428 -0.0194255 -0.0262921 0.0493137 
-0.0129094 -0.0188123 0.0468334 -0.00353272 0.0202053 0.0486161 -0.00180751 0.0338204 0.0477757 
-0.0198718 -0.0194218 0.0528577 -0.0147423 -0.00564426 0.0526612 -0.0258137 0.00190826 0.0509413 
-0.0217046 0.022596 0.0527484 -0.00102814 0.0297537 0.0515467 -0.0312886 -0.013967 0.0568362 
-0.0290561 -0.00430439 0.0556743 -0.0312961 0.0169384 0.0542919 -0.00105657 0.0183981 0.0543375 
-0.0297716 0.0219768 0.054617 -0.00392958 0.028377 0.0562484 -0.0139184 0.0334821 0.0556356 
-0.000325902 -0.0296171 0.0591655 
VERTICES 448 896
1 0 
1 1 
1 2 
1 3 
1 4 
1 5 
1 6 
1 7 
1 8 
1 9 
1 10 
1 11 
1 12 
1 13 
1 14 
1 15 
1 16 
1 17 
1 18 
1 19 
1 20 
1 21 
1 22 
1 23 
1 24 
1 25 
1 26 
1 27 
1 28 
1 29 
1 30 
1 31 
1 32 
1 33 
1 34 
1 35 
1 36 
1 37 
1 38 
1 39 
1 40 
1 41 
1 42 
1 43 
1 44 
1 45 
1 46 
1 47 
1 48 
1 49 
1 50 
1 51 
1 52 
1 53 
1 54 
1 55 
1 56 
1 57 
1 58 
1 59 
1 60 
1 61 
1 62 
1 63 
1 64 
1 65 
1 66 
1 67 
1 68 
1 69 
1 70 
1 71 
1 72 
1 73 
1 74 
1 75 
1 76 
1 77 
1 78 
1 79 
1 80 
1 81 
1 82 
1 83 
1 84 
1 85 
1 86 
1 87 
1 88 
1 89 
1 90 
1 91 
1 92 
1 93 
1 94 
1 95 
1 96 
1 97 
1 98 
1 99 
1 100 
1 101 
1 102 
1 103 
1 104 
1 105 
1 106 
1 107 
1 108 
1 109 
1 110 
1 111 
1 112 
1 113 
1 114 
1 115 
1 116 
1 117 
1 118 
1 119 
1 120 
1 121 
1 122 
1 123 
1 124 
1 125 
1 126 
1 127 
1 128 
1 129 
1 130 
1 131 
1 132 
1 133 
1 134 
1 135 
1 136 
1 137 
1 138 
1 139 
1 140 
1 141 
1 142 
1 143 
1 144 
1 145 
1 146 
1 147 
1 148 
1 149 
1 150 
1 151 
1 152 
1 153 
1 154 
1 155 
1 156 
1 157 
1 158 
1 159 
1 160 
1 161 
1 162 
1 163 
1 164 
1 165 
1 166 
1 167 
1 168 
1 169 
1 170 
1 171 
1 172 
1 173 
1 174 
1 175 
1 176 
1 177 
1 178 
1 179 
1 180 
1 181 
1 182 
1 183 
1 184 
1 185 
1 186 
1 187 
1 188 
1 189 
1 190 
1 191 
1 192 
1 193 
1 194 
1 195 
1 196 
1 197 
1 198 
1 199 
1 200 
1 201 
1 202 
1 203 
1 204 
1 205 
1 206 
1 207 
1 208 
1 209 
1 210 
1 211 
1 212 
1 213 
1 214 
1 215 
1 216 
1 217 
1 218 
1 219 
1 220 
1 221 
1 222 
1 223 
1 224 
1 225 
1 226 
1 227 
1 228 
1 229 
1 230 
1 231 
1 232 
1 233 
1 234 
1 235 
1 236 
1 237 
1 238 
1 239 
1 240 
1 241 
1 242 
1 243 
1 244 
1 245 
1 246 
1 247 
1 248 
1 249 
1 250 
1 251 
1 252 
1 253 
1 254 
1 255 
1 256 
1 257 
1 258 
1 259 
1 260 
1 261 
1 262 
1 263 
1 264 
1 265 
1 266 
1 267 
1 268 
1 269 
1 270 
1 271 
1 272 
1 273 
1 274 
1 275 
1 276 
1 277 
1 278 
1 279 
1 280 
1 281 
1 282 
1 283 
1 284 
1 285 
1 286 
1 287 
1 288 
1 289 
1 290 
1 291 
1 292 
1 293 
1 294 
1 295 
1 296 
1 297 
1 298 
1 299 
1 300 
1 301 
1 302 
1 303 
1 304 
1 305 
1 306 
1 307 
1 308 
1 309 
1 310 
1 311 
1 312 
1 313 
1 314 
1 315 
1 316 
1 317 
1 318 
1 319 
1 320 
1 321 
1 322 
1 323 
1 324 
1 325 
1 326 
1 327 
1 328 
1 329 
1 330 
1 331 
1 332 
1 333 
1 334 
1 335 
1 336 
1 337 
1 338 
1 339 
1 340 
1 341 
1 342 
1 343 
1 344 
1 345 
1 346 
1 347 
1 348 
1 349 
1 350 
1 351 
1 352 
1 353 
1 354 
1 355 
1 356 
1 357 
1 358 
1 359 
1 360 
1 361 
1 362 
1 363 
1 364 
1 365 
1 366 
1 367 
1 368 
1 369 
1 370 
1 371 
1 372 
1 373 
1 374 
1 375 
1 376 
1 377 
1 378 
1 379 
1 380 
1 381 
1 382 
1 383 
1 384 
1 385 
1 386 
1 387 
1 388 
1 389 
1 390 
1 391 
1 392 
1 393 
1 394 
1 395 
1 396 
1 397 
1 398 
1 399 
1 400 
1 401 
1 402 
1 403 
1 404 
1 405 
1 406 
1 407 
1 408 
1 409 
1 410 
1 411 
1 412 
1 413 
1 414 
1 415 
1 416 
1 417 
1 418 
1 419 
1 420 
1 421 
1 422 
1 423 
1 424 
1 425 
1 426 
1 427 
1 428 
1 429 
1 430 
1 431 
1 432 
1 433 
1 434 
1 435 
1 436 
1 437 
1 438 
1 439 
1 440 
1 441 
1 442 
1 443 
1 444 
1 445 
1 446 
1 447 

POINT_DATA 448
FIELD FieldData 7
id 1 448 int
35 32 16 22 6 10 12 2 11 
44 1 14 7 19 23 25 30 38 
57 20 13 3 4 69 29 28 47 
21 33 5 89 8 61 56 36 45 
40 27 52 59 42 66 54 93 85 
37 100 73 55 15 87 77 80 39 
41 31 102 46 78 50 110 176 74 
53 58 86 92 91 17 94 113 98 
18 112 133 67 162 125 71 65 84 
60 62 173 101 43 111 121 48 120 
88 63 76 95 26 24 82 131 68 
160 108 107 153 34 51 171 75 104 
137 150 164 145 184 138 118 127 126 
114 117 174 70 141 168 103 130 180 
148 195 163 106 151 122 140 132 79 
202 129 143 179 159 83 49 147 119 
139 97 196 166 183 115 123 136 116 
178 144 146 210 205 105 154 99 81 
134 189 172 190 157 149 142 152 175 
156 124 158 64 225 200 177 186 161 
182 198 169 252 96 254 212 72 185 
236 276 224 128 226 170 191 207 228 
193 135 109 265 223 263 181 214 280 
218 266 206 242 241 192 208 264 219 
199 188 165 222 227 255 267 203 235 
245 238 187 247 251 220 194 248 262 
289 155 213 167 221 258 260 273 209 
237 250 201 259 216 233 239 261 282 
229 211 240 230 279 269 290 270 284 
215 249 232 301 302 204 197 288 283 
293 292 256 294 253 268 277 275 278 
90 296 287 274 291 272 303 246 299 
297 244 285 231 243 295 300 305 234 
306 257 286 271 281 304 217 298 312 
315 311 313 314 9 308 310 317 307 
316 318 309 319 331 327 322 329 326 
325 330 320 332 328 321 324 323 343 
341 337 340 336 344 339 334 345 342 
333 335 338 347 349 354 355 353 357 
352 356 350 346 351 358 348 364 367 
368 359 365 370 360 363 371 366 362 
369 361 377 379 373 382 378 375 372 
380 376 381 383 374 393 396 395 388 
387 384 386 391 392 390 385 389 399 
405 403 394 406 407 404 398 409 408 
402 418 401 400 397 414 416 419 417 
421 422 412 415 410 411 420 413 429 
431 430 424 432 433 427 434 435 423 
425 426 428 445 439 443 447 442 448 
444 438 436 446 441 440 437 
type 1 448 int
1 1 1 1 1 1 1 1 1 
1 1 1 1 1 1 1 1 1 
1 1 1 1 1 1 1 1 1 
1 1 1 1 1 1 1 1 1 
1 1 1 1 1 1 1 1 1 
1 1 1 1 1 1 1 1 1 
1 1 1 1 1 1 1 1 1 
1 1 1 1 1 1 1 1 1 
1 1 1 1 1 1 1 1 1 
1 1 1 1 1 1 1 1 1 
1 1 1 1 1 1 1 1 1 
1 1 1 1 1 1 1 1 1 
1 1 1 1 1 1 1 1 1 
1 1 1 1 1 1 1 1 1 
1 1 1 1 1 1 1 1 1 
1 1 1 1 1 1 1 1 1 
1 1 1 1 1 1 1 1 1 
1 1 1 1 1 1 1 1 1 
1 1 1 1 1 1 1 1 1 
1 1 1 1 1 1 1 1 1 
1 1 1 1 1 1 1 1 1 
1 1 1 1 1 1 1 1 1 
1 1 1 1 1 1 1 1 1 
1 1 1 1 1 1 1 1 1 
1 1 1 1 1 1 1 1 1 
1 1 1 1 1 1 1 1 1 
1 1 1 1 1 1 1 1 1 
1 1 1 1 1 1 1 1 1 
1 1 1 1 1 1 1 1 1 
1 1 1 1 1 1 1 1 1 
1 1 1 1 1 1 1 1 1 
1 1 1 1 1 1 1 1 1 
1 1 1 1 1 1 1 1 1 
1 1 1 1 1 1 1 1 1 
1 1 1 1 1 1 1 1 1 
1 1 1 1 1 1 1 1 1 
1 1 1 1 1 1 1 1 1 
1 1 1 1 1 1 1 1 1 
1 1 1 1 1 1 1 1 1 
1 1 1 1 1 1 1 1 1 
1 1 1 1 1 1 1 1 1 
1 1 1 1 1 1 1 1 1 
1 1 1 1 1 1 1 1 1 
1 1 1 1 1 1 1 1 1 
1 1 1 1 1 1 1 1 1 
1 1 1 1 1 1 1 1 1 
1 1 1 1 1 1 1 1 1 
1 1 1 1 1 1 1 1 1 
1 1 1 1 1 1 1 1 1 
1 1 1 1 1 1 1 
i 3 448 int
0 0 0 0 0 0 0 0 0 
0 0 0 0 0 0 0 0 0 
0 0 0 0 0 0 0 0 0 
0 0 0 0 0 0 0 0 0 
0 0 0 0 0 0 0 0 0 
0 0 0 0 0 0 0 0 0 
0 0 0 0 0 0 0 0 0 
0 0 0 0 0 0 0 0 0 
0 0 0 0 0 0 0 0 0 
0 0 0 0 0 0 0 0 0 
0 0 0 0 0 0 0 0 0 
0 0 0 0 0 0 0 0 0 
0 0 0 0 0 0 0 0 0 
0 0 0 0 0 0 0 0 0 
0 0 0 0 0 0 0 0 0 
0 0 0 0 0 0 0 0 0 
0 0 0 0 0 0 0 0 0 
0 0 0 0 0 0 0 0 0 
0 0 0 0 0 0 0 0 0 
0 0 0 0 0 0 0 0 0 
0 0 0 0 0 0 0 0 0 
0 0 0 0 0 0 0 0 0 
0 0 0 0 0 0 0 0 0 
0 0 0 0 0 0 0 0 0 
0 0 0 0 0 0 0 0 0 
0 0 0 0 0 0 0 0 0 
0 0 0 0 0 0 0 0 0 
0 0 0 0 0 0 0 0 0 
0 0 0 0 0 0 0 0 0 
0 0 0 0 0 0 0 0 0 
0 0 0 0 0 0 0 0 0 
0 0 0 0 0 0 0 0 0 
0 0 0 0 0 0 0 0 0 
0 0 0 0 0 0 0 0 0 
0 0 0 0 0 0 0 0 0 
0 0 0 0 0 0 0 0 0 
0 0 0 0 0 0 0 0 0 
0 0 0 0 0 0 0 0 0 
0 0 0 0 0 0 0 0 0 
0 0 0 0 0 0 0 0 0 
0 0 0 0 0 0 0 0 0 
0 0 0 0 0 0 0 0 0 
0 0 0 0 0 0 0 0 0 
0 0 0 0 0 0 0 0 0 
0 0 0 0 0 0 0 0 0 
0 0 0 0 0 0 0 0 0 
0 0 0 0 0 0 0 0 0 
0 0 0 0 0 0 0 0 0 
0 0 0 0 0 0 0 0 0 
0 0 0 0 0 0 0 0 0 
0 0 0 0 0 0 0 0 0 
0 0 0 0 0 0 0 0 0 
0 0 0 0 0 0 0 0 0 
0 0 0 0 0 0 0 0 0 
0 0 0 0 0 0 0 0 0 
0 0 0 0 0 0 0 0 0 
0 0 0 0 0 0 0 0 0 
0 0 0 0 0 0 0 0 0 
0 0 0 0 0 0 0 0 0 
0 0 0 0 0 0 0 0 0 
0 0 0 0 0 0 0 0 0 
0 0 0 0 0 0 0 0 0 
0 0 0 0 0 0 0 0 0 
0 0 0 0 0 0 0 0 0 
0 0 0 0 0 0 0 0 0 
0 0 0 0 0 0 0 0 0 
0 0 0 0 0 0 0 0 0 
0 0 0 0 0 0 0 0 0 
0 0 0 0 0 0 0 0 0 
0 0 0 0 0 0 0 0 0 
0 0 0 0 0 0 0 0 0 
0 0 0 0 0 0 0 0 0 
0 0 0 0 0 0 0 0 0 
0 0 0 0 0 0 0 0 0 
0 0 0 0 0 0 0 0 0 
0 0 0 0 0 0 0 0 0 
0 0 0 0 0 0 0 0 0 
0 0 0 0 0 0 0 0 0 
0 0 0 0 0 0 0 0 0 
0 0 0 0 0 0 0 0 0 
0 0 0 0 0 0 0 0 0 
0 0 0 0 0 0 0 0 0 
0 0 0 0 0 0 0 0 0 
0 0 0 0 0 0 0 0 0 
0 0 0 0 0 0 0 0 0 
0 0 0 0 0 0 0 0 0 
0 0 0 0 0 0 0 0 0 
0 0 0 0 0 0 0 0 0 
0 0 0 0 0 0 0 0 0 
0 0 0 0 0 0 0 0 0 
0 0 0 0 0 0 0 0 0 
0 0 0 0 0 0 0 0 0 
0 0 0 0 0 0 0 0 0 
0 0 0 0 0 0 0 0 0 
0 0 0 0 0 0 0 0 0 
0 0 0 0 0 0 0 0 0 
0 0 0 0 0 0 0 0 0 
0 0 0 0 0 0 0 0 0 
0 0 0 0 0 0 0 0 0 
0 0 0 0 0 0 0 0 0 
0 0 0 0 0 0 0 0 0 
0 0 0 0 0 0 0 0 0 
0 0 0 0 0 0 0 0 0 
0 0 0 0 0 0 0 0 0 
0 0 0 0 0 0 0 0 0 
0 0 0 0 0 0 0 0 0 
0 0 0 0 0 0 0 0 0 
0 0 0 0 0 0 0 0 0 
0 0 0 0 0 0 0 0 0 
0 0 0 0 0 0 0 0 0 
0 0 0 0 0 0 0 0 0 
0 0 0 0 0 0 0 0 0 
0 0 0 0 0 0 0 0 0 
0 0 0 0 0 0 0 0 0 
0 0 0 0 0 0 0 0 0 
0 0 0 0 0 0 0 0 0 
0 0 0 0 0 0 0 0 0 
0 0 0 0 0 0 0 0 0 
0 0 0 0 0 0 0 0 0 
0 0 0 0 0 0 0 0 0 
0 0 0 0 0 0 0 0 0 
0 0 0 0 0 0 0 0 0 
0 0 0 0 0 0 0 0 0 
0 0 0 0 0 0 0 0 0 
0 0 0 0 0 0 0 0 0 
0 0 0 0 0 0 0 0 0 
0 0 0 0 0 0 0 0 0 
0 0 0 0 0 0 0 0 0 
0 0 0 0 0 0 0 0 0 
0 0 0 0 0 0 0 0 0 
0 0 0 0 0 0 0 0 0 
0 0 0 0 0 0 0 0 0 
0 0 0 0 0 0 0 0 0 
0 0 0 0 0 0 0 0 0 
0 0 0 0 0 0 0 0 0 
0 0 0 0 0 0 0 0 0 
0 0 0 0 0 0 0 0 0 
0 0 0 0 0 0 0 0 0 
0 0 0 0 0 0 0 0 0 
0 0 0 0 0 0 0 0 0 
0 0 0 0 0 0 0 0 0 
0 0 0 0 0 0 0 0 0 
0 0 0 0 0 0 0 0 0 
0 0 0 0 0 0 0 0 0 
0 0 0 0 0 0 0 0 0 
0 0 0 0 0 0 0 0 0 
0 0 0 0 0 0 0 0 0 
0 0 0 0 0 0 0 0 0 
0 0 0 0 0 0 0 0 0 
0 0 0 
v 3 448 double
-1.24617 0.0809281 -0.509855 -1.42283 0.117721 -0.502626 -1.25585 -0.00833624 -0.529354 
-1.38439 -0.221333 -0.558269 -1.15949 -0.0501924 -0.475934 -1.08897 0.0458345 -0.452288 
-1.13651 -0.0577556 -0.479033 -1.12045 -0.0293273 -0.461241 -1.14167 -0.116502 -0.490356 
-1.13261 -0.157768 -0.488672 -1.0493 0.0277991 -0.446033 -0.994103 -0.189795 -0.236781 
-0.830499 -0.0138878 -0.356016 -0.837733 -0.0774792 -0.347012 -1.01447 0.0699102 -0.427459 
-1.04948 0.0702547 -0.428423 -1.02269 0.0879617 -0.425037 -1.03289 0.0497982 -0.436622 
-1.12979 -0.116704 -0.492916 -1.18138 0.149979 -0.358765 -1.06243 0.0287804 -0.433716 
-0.919919 0.16557 -0.399696 -0.909402 -0.0309483 -0.380638 -0.836633 0.0514417 -0.351182 
-1.03539 0.0594704 -0.426301 -0.933669 -0.154578 -0.403544 -0.927514 0.0579898 -0.389542 
-1.09605 0.0880071 -0.432916 -1.016 -0.164121 -0.350258 -0.939815 0.0184541 -0.403132 
-0.778712 0.0951851 -0.350418 -0.74496 -0.0287827 -0.31707 -0.790142 -0.0209714 -0.325367 
-0.899147 -0.144681 -0.388926 -0.795518 -0.0432877 -0.326133 -0.886218 -0.000397486 -0.376462 
-0.933613 0.0310658 -0.395901 -0.91293 0.0341504 -0.359434 -0.901496 0.13131 -0.391308 
-0.734559 0.061483 -0.301513 -0.785049 -0.0799817 -0.289161 -0.896693 -0.0334219 -0.390865 
-0.936579 0.0952127 -0.3879 -1.03276 0.000699891 -0.435131 -0.786253 0.0500981 -0.352877 
-0.849761 0.025845 -0.355802 -0.846116 -0.166612 -0.371915 -0.931542 -0.0175625 -0.428212 
-0.800806 -0.00707236 -0.732248 -0.788043 0.0671229 -0.314359 -0.922877 0.0792714 -0.409538 
-0.783749 0.12419 -0.513973 -0.659745 -0.183923 -0.251948 -0.781592 -0.012804 -0.331839 
-0.750107 -0.0788492 -0.311233 -0.645757 -0.0735232 -0.267773 -0.518398 -0.0639394 -0.336025 
-0.671943 -0.027204 -0.236649 -0.719963 -0.0405841 -0.298179 -0.723217 -0.11832 -0.286818 
-0.587819 0.0357523 -0.254229 -1.17065 0.232957 -1.14143 -0.648634 -0.0527241 -0.276047 
-0.750408 -0.0125531 -0.311259 -0.713795 -0.0969571 -0.367707 -0.758613 -0.0127478 -0.299765 
-0.779564 0.0552292 -0.456734 -0.873723 -0.0121921 -0.451857 -0.846969 -0.0820188 -0.371526 
-0.91013 -0.023863 -0.356534 -0.745931 -0.139358 -0.216595 -0.827623 -0.092744 -0.340782 
-0.587336 -0.0608581 -0.242198 -0.683071 -0.0314781 -0.283331 -1.02771 -0.0177673 -0.514222 
-0.678829 -0.0199262 -0.27999 -0.722778 -0.0391535 -0.385199 -0.847397 0.155575 -0.10896 
-0.794654 -0.0117965 -0.330031 -0.723312 0.0066852 -0.297114 -0.797703 -0.056419 -0.342646 
-0.947922 0.0789856 -0.257615 -0.73767 -0.150107 -0.270958 -0.977042 -0.131319 -0.72643 
-0.756218 -0.147247 -0.479266 -0.778973 -0.121938 -0.337745 -0.585115 0.0710838 -0.245774 
-0.452535 0.0473401 -0.252029 -0.636425 0.0854275 -0.275483 -1.11248 0.348977 -0.453555 
-0.683059 0.0759079 -0.266828 -0.794875 -0.0912971 -0.298921 -0.937314 -0.284757 -0.488499 
-0.654222 -0.0324588 -0.268301 -0.682769 -0.0191265 -0.2852 -0.640298 0.0394352 -0.27126 
-0.559096 0.0837441 -0.391403 -0.916161 -0.0200153 -0.136579 -0.499162 0.130824 -0.348773 
-0.512419 0.195345 -0.284051 -0.684166 0.0762387 -0.278617 -0.654328 0.019577 -0.276564 
-0.775745 0.0539003 -0.31619 -0.594765 -0.0153738 -0.251132 -1.06867 0.0780124 -0.229995 
-0.559432 -0.189007 -0.194773 -0.662804 0.0826677 -0.288361 -0.694664 -0.204035 -0.431692 
-1.16141 -0.0479967 -0.49923 -0.774812 0.11014 -0.307222 -0.659534 0.0565514 -0.21674 
-0.917227 0.281943 -0.330343 -0.442239 -0.0124138 -0.0391383 -0.722807 0.191568 -0.527493 
-0.627347 0.082288 -0.264912 -0.601032 0.0416057 -0.248019 -0.636155 0.0803774 -0.255092 
-0.57259 0.0302143 -0.238335 -0.827568 0.0536218 -0.306988 -0.771622 0.000865395 -0.3197 
-0.474191 -0.0772343 -0.183288 -0.61199 -0.119415 -0.240045 -0.740976 0.026566 -0.315916 
-0.855015 -0.157498 -0.215526 -0.963437 -0.0742186 -0.405284 -0.585448 -0.138785 -0.243353 
-0.732511 -0.171083 -0.885983 -0.813082 -0.0147558 -0.338981 -0.5973 0.0794331 -0.235566 
-0.594388 0.0280831 -0.24405 -0.553961 0.111869 -0.22694 -0.645664 -0.019317 -0.271254 
-0.644646 -0.0513241 -0.259886 -0.555042 -0.00187942 -0.234346 -0.604527 -0.0108135 -0.254286 
-0.670129 0.0552053 -0.218209 -0.644673 0.0227632 -0.271324 -0.51953 0.0698733 -0.223992 
-0.744784 -0.246004 -0.456521 -0.667351 0.0425613 -0.275097 -0.525066 0.00982142 -0.21625 
-0.518272 0.0158906 -0.229506 -0.851734 0.267758 -0.767751 -0.510645 0.111758 -0.0967139 
-0.997837 0.260815 -0.235679 -0.749141 -0.0501661 -0.280808 -0.928181 -0.0313183 -0.683746 
-0.586177 0.0457997 -0.247729 -0.615605 0.0532482 -0.261162 -0.618568 0.120329 -0.383829 
-0.616651 0.0550794 -0.264465 -0.590706 -0.0808126 -0.259696 -0.597228 -0.187623 -0.244192 
-0.724733 -0.302357 -0.677662 -0.698987 0.231279 -0.624468 -0.553163 -0.260648 -0.220208 
-0.551 0.0444281 -0.230247 -0.504225 -0.0716355 -0.203983 -0.605187 0.0348824 -0.250161 
-0.604595 0.048849 -0.664478 -0.445412 0.12083 -0.167774 -0.638845 0.159823 -0.207103 
-0.558318 0.062768 -0.243717 -0.637436 0.0505653 -0.274855 -0.368337 -0.199733 -0.145365 
-0.731457 0.190931 -0.574587 -0.507495 -0.262413 -0.201856 -0.472185 -0.0669043 -0.184957 
-0.633713 0.0384159 -0.663287 -0.333771 -0.00614176 -0.134037 -0.471685 -0.0381688 -0.199248 
-0.672146 -0.113176 -0.754745 -0.355057 0.0116051 -0.133041 -0.664046 -0.0666737 -0.596228 
-0.44844 0.0911021 -0.170211 -0.674005 0.04 -0.286692 -0.60741 0.102428 -0.191353 
-0.714004 -0.326823 -0.746826 -0.742535 0.0369308 -0.526118 -0.546046 -0.1047 -0.232179 
-0.45032 -0.0539344 -0.190747 -0.726719 -0.324071 -0.537154 -0.729651 0.0470257 -0.308111 
-0.515012 0.178076 -0.16874 -0.653868 0.0678647 -0.352624 -0.72006 -0.267609 -0.284793 
-0.55488 -0.127698 -0.233822 -0.478492 0.215615 -0.156413 -0.506347 -0.125123 -0.187834 
-0.424087 -0.0532591 -0.169132 -0.57409 0.0617395 0.0467053 -0.645306 0.158655 -0.305148 
-0.510702 0.149946 -0.200969 -0.436791 0.0998727 -0.140438 -0.637739 -0.00872118 -0.379404 
-0.556357 0.0216029 -0.23961 -0.851149 -0.2373 -0.564405 -0.561752 -0.0273172 -0.236188 
-0.931082 0.0295488 -0.577285 -0.436325 -0.0948706 -0.112062 -0.510202 -0.0804735 -0.172787 
-0.672708 -0.0482748 -0.289813 -0.643233 -0.0760525 -0.263165 -0.465053 -0.163576 -0.181416 
-0.712728 -0.0251124 -0.227124 -0.41139 -0.183924 -0.192707 -0.632155 -0.207642 -0.509953 
-0.347412 0.0457115 -0.218649 -0.398546 0.116626 -0.157131 -0.651879 -0.2413 -0.479793 
-0.462212 -0.0263282 -0.178052 -0.850881 -0.0661681 -0.315635 -0.511202 0.109127 -0.221964 
-0.545212 -0.139305 -0.342341 -0.458078 -0.145895 -0.229117 -1.15801 -0.0361112 -0.562634 
-0.579511 0.0502989 -0.237592 -0.621701 -0.306246 -0.125405 -0.412613 -0.400631 -0.0556627 
-0.352026 -0.0648847 -0.0750006 -0.332885 0.355816 -0.348069 -0.448821 -0.1166 -0.330615 
-0.425788 -0.0189721 -0.404745 -0.329716 -0.278491 -0.42622 -0.380645 0.0701882 -0.229781 
-0.678064 -0.227657 -0.431557 -0.444594 -0.273129 -0.143861 -0.719415 -0.0267257 -0.55694 