# vtk DataFile Version 4.0
Generated by LIGGGHTS
ASCII
DATASET POLYDATA
POINTS 833 float
-0.00990001 0.0161451 0.049436 -0.0083907 -0.000404868 0.0505168 -0.0227992 -0.0198705 0.0505276 
-0.020509 0.0348129 0.0485071 -0.0154552 0.0343315 0.0466732 -0.0103244 0.0042156 0.048516 
-0.00479372 -0.00109091 0.0453889 -0.0304553 -0.00107854 0.0488166 -0.00458209 -0.00964258 0.0488029 
-0.00550683 -0.02955 0.0480215 -0.475657 -0.00806022 -0.399836 -0.484812 0.00350182 -0.397093 
-0.482523 0.00914234 -0.400071 -0.462438 0.0135475 -0.398575 -0.449904 -0.00955014 -0.395411 
-0.454542 0.00103255 -0.39384 -0.477364 0.00734658 -0.394745 -0.0222165 0.0347903 0.0439073 
-0.483485 0.00212978 -0.392734 -0.477191 0.00833421 -0.390936 -0.458017 0.0263699 -0.391121 
-0.460134 -0.0210446 -0.385663 -0.454651 -0.0103571 -0.388745 -0.440785 -0.00298447 -0.387911 
-0.472017 0.00646463 -0.387084 -0.476473 0.0174166 -0.388159 -0.474564 -0.0136448 -0.385181 
-0.480232 -0.00367852 -0.383641 -0.449398 -0.00331685 -0.383036 -0.449088 0.018515 -0.381751 
-0.469014 -0.0142737 -0.382123 -0.452596 0.0115847 -0.380639 -0.460321 -0.0151174 -0.376631 
-0.448496 -0.00323192 -0.376645 -0.462147 -0.00145405 -0.373477 -0.459909 0.00227003 -0.37053 
-0.44636 0.000287253 -0.371599 -0.445562 -0.0226584 -0.367914 -0.442004 -0.00289556 -0.36703 
-0.472933 0.0239729 -0.367085 -0.436536 -0.0153538 -0.362014 -0.435155 0.00120452 -0.362149 
-0.446573 0.00405265 -0.36081 -0.441758 -0.0201054 -0.357089 -0.430216 0.00179754 -0.355324 
-0.450827 -0.0114802 -0.354109 -0.460502 -0.000816493 -0.353476 -0.443142 0.00994404 -0.355665 
-0.449733 0.0241991 -0.355313 -0.438385 -0.00194418 -0.35029 -0.441936 0.0071835 -0.350093 
-0.435882 -0.000432055 -0.346891 -0.400416 0.00759581 -0.345461 -0.446918 0.0128633 -0.348147 
-0.442587 0.0141029 -0.347148 -0.414995 -0.00542527 -0.343006 -0.427976 0.0114571 -0.342504 
-0.438799 -0.00125516 -0.339754 -0.426811 0.000975183 -0.340534 -0.425785 0.00541931 -0.340779 
-0.428761 0.000452617 -0.335578 -0.454757 0.0177552 -0.334529 -0.414498 0.0161835 -0.3308 
-0.440089 -0.0251587 -0.326574 -0.414306 0.00198983 -0.32837 -0.422331 0.00354325 -0.328398 
-0.424224 0.0144718 -0.327915 -0.406802 -0.00575693 -0.324734 -0.401318 -0.00280826 -0.325929 
-0.413625 0.00276969 -0.324058 -0.416817 0.00835501 -0.325199 -0.42085 -0.0166895 -0.320066 
-0.410293 0.00455136 -0.320986 -0.418653 0.0130368 -0.320514 -0.422068 0.0203186 -0.319947 
-0.428222 0.0273425 -0.319435 -0.415195 -0.0185539 -0.31635 -0.415063 -0.0126444 -0.316319 
-0.403104 -0.00360996 -0.31655 -0.418565 0.000744512 -0.31543 -0.416531 0.0131909 -0.316711 
-0.422893 -0.0148876 -0.311292 -0.409302 0.0153875 -0.313907 -0.407717 0.015 -0.31093 
-0.412855 0.0190152 -0.314105 -0.409878 0.00428899 -0.307536 -0.398738 0.0149337 -0.308953 
-0.408936 -0.0279636 -0.305283 -0.402407 -0.0113759 -0.304273 -0.412762 0.00172982 -0.306414 
-0.406657 0.00668283 -0.305522 -0.401653 -0.0140225 -0.30033 -0.396957 0.00244884 -0.299253 
-0.398749 -0.00835447 -0.29849 -0.397553 -0.0141736 -0.293276 -0.387658 -0.00705834 -0.292098 
-0.397969 -0.00145658 -0.292563 -0.388064 0.00859452 -0.29322 -0.404865 -0.0302275 -0.290598 
-0.396428 -0.0273803 -0.289808 -0.381248 -0.00455147 -0.291878 -0.393836 -0.00703403 -0.285788 
-0.393105 0.000390732 -0.285803 -0.397739 0.0203535 -0.288501 -0.398131 -0.0318428 -0.284043 
-0.382233 -0.0210213 -0.281485 -0.379043 -0.0102068 -0.280142 -0.382946 0.0147884 -0.283296 
-0.381085 0.0207635 -0.280316 -0.402479 -0.0449181 -0.280386 -0.375884 -0.000885656 -0.277625 
-0.382606 0.00336322 -0.278862 -0.378812 0.0127987 -0.279476 -0.382785 0.0177644 -0.276851 
-0.366758 -0.00161944 -0.27574 -0.376374 0.0107141 -0.272854 -0.373034 0.0168918 -0.274315 
-0.367994 -0.0265467 -0.270665 -0.373666 -0.0244889 -0.271076 -0.372251 -0.0128398 -0.269666 
-0.356024 -0.0102549 -0.27105 -0.36923 0.00376707 -0.270099 -0.407758 0.0103902 -0.269426 
-0.369024 0.0107042 -0.27091 -0.365781 0.0120834 -0.268692 -0.371509 0.0167089 -0.269974 
-0.367757 -0.0259435 -0.266546 -0.364851 -0.0057301 -0.265257 -0.362275 0.00293876 -0.266221 
-0.358887 0.0059131 -0.263992 -0.375224 0.0251286 -0.266605 -0.371252 -0.0313329 -0.264016 
-0.374551 -0.0304367 -0.264286 -0.351293 -0.0106722 -0.259607 -0.353143 -0.00674725 -0.259527 
-0.358005 0.00240756 -0.263396 -0.356321 0.00867224 -0.260016 -0.355744 -0.0117733 -0.258326 
-0.351618 -0.00429653 -0.257125 -0.351958 -0.000830014 -0.259106 -0.347809 -0.00293062 -0.257269 
-0.379241 -0.000326929 -0.260285 -0.350268 0.00296139 -0.259165 -0.348273 0.00133797 -0.25586 
-0.349917 0.00827723 -0.257896 -0.3551 0.0125461 -0.259801 -0.347045 0.0117344 -0.256433 
-0.346798 -0.00824941 -0.253294 -0.342947 -0.0105365 -0.251889 -0.348335 0.0054724 -0.254777 
-0.346573 0.00755153 -0.253549 -0.341653 0.008319 -0.251654 -0.357474 0.0259437 -0.255962 
-0.362961 0.0419745 -0.254693 -0.334775 -0.0096932 -0.247251 -0.338381 0.003641 -0.248249 
-0.336457 0.00724592 -0.249646 -0.338829 0.00931969 -0.250914 -0.338304 0.0123343 -0.249524 
-0.344589 0.0153029 -0.250794 -0.336739 0.0140648 -0.247427 -0.331077 -0.0139808 -0.244789 
-0.323988 -0.00580305 -0.242384 -0.328065 0.000974634 -0.244611 -0.331408 0.00590809 -0.246072 
-0.335006 0.0104352 -0.246801 -0.328734 0.0105973 -0.244336 -0.333217 0.0143877 -0.243603 
-0.332849 0.018767 -0.244766 -0.330333 -0.0176365 -0.24267 -0.326627 -0.0138492 -0.24284 
-0.324058 -0.00911357 -0.242197 -0.323764 -0.00203516 -0.242523 -0.322158 0.00162798 -0.241884 
-0.326893 0.00434554 -0.242735 -0.328252 0.0087331 -0.240741 -0.33192 0.0236327 -0.24244 
-0.356202 0.0470045 -0.245974 -0.323377 -0.0182546 -0.239544 -0.315072 -0.0062803 -0.238733 
-0.312697 -0.00827738 -0.237605 -0.313188 0.0064947 -0.236712 -0.313425 0.0136306 -0.236285 
-0.31483 -0.0260848 -0.234191 -0.31322 -0.0184469 -0.23535 -0.30728 -0.0139124 -0.234658 
-0.305374 -0.016782 -0.23243 -0.309793 -0.00991074 -0.235124 -0.30595 -0.0110275 -0.234513 
-0.303753 -0.0112725 -0.231893 -0.303067 -0.00385556 -0.233795 -0.300853 -0.00201733 -0.232916 
-0.308533 0.00575297 -0.235883 -0.309714 0.00982726 -0.236124 -0.303876 0.0101518 -0.232556 
-0.307308 0.0140691 -0.234745 -0.303663 0.0141521 -0.233208 -0.308671 0.0198845 -0.234182 
-0.305256 0.0183296 -0.23306 -0.316452 -0.0388099 -0.231568 -0.312816 -0.0309951 -0.233107 
-0.30871 -0.0290509 -0.230925 -0.306973 -0.0255529 -0.232369 -0.290997 -0.00828204 -0.228521 
-0.295891 -0.00140802 -0.230853 -0.292774 -0.00060432 -0.228481 -0.300047 0.00162537 -0.231434 
-0.296249 0.00758794 -0.230586 -0.300329 0.0132816 -0.231948 -0.298006 0.0155191 -0.229406 
-0.302608 0.0200047 -0.230531 -0.291429 -0.0137875 -0.228104 -0.288984 -0.0111124 -0.226278 
-0.294859 -0.00471416 -0.225782 -0.288571 -0.00448313 -0.227658 -0.286405 -0.00601828 -0.226114 
-0.288878 -0.0013036 -0.227896 -0.28547 0.000877589 -0.225383 -0.291855 0.00425592 -0.227666 
-0.285949 0.00496221 -0.226407 -0.284648 0.00756989 -0.225666 -0.291406 0.00850487 -0.224893 
-0.286123 0.0118428 -0.226039 -0.284918 0.0145401 -0.225091 -0.293972 0.0178667 -0.226802 
-0.29482 0.0250972 -0.22742 -0.279371 -0.0182882 -0.222064 -0.279959 -0.0153661 -0.223111 
-0.281785 -0.0129084 -0.224145 -0.278525 -0.0101188 -0.223075 -0.281327 -0.00832703 -0.224448 
-0.274716 -0.00762954 -0.221707 -0.283323 -0.00384447 -0.224207 -0.278528 -0.00589402 -0.22229 
-0.278028 0.00301096 -0.22315 -0.277285 0.00587475 -0.222274 -0.281449 0.00741205 -0.223242 
-0.277385 0.00886928 -0.222593 -0.281818 0.0135297 -0.224152 -0.284977 0.0179284 -0.224713 
-0.279678 0.0161469 -0.221666 -0.285482 0.0220678 -0.224159 -0.285272 0.0303035 -0.222043 
-0.281952 -0.0284891 -0.220172 -0.277306 -0.0132803 -0.220848 -0.272721 -0.0113916 -0.220505 
-0.27148 -0.0078145 -0.220328 -0.324155 -0.00566673 -0.224377 -0.27517 -0.00259714 -0.220573 
-0.271742 -0.000511745 -0.220653 -0.274013 0.00287717 -0.221537 -0.268204 0.00344156 -0.219035 
-0.287344 0.0103167 -0.221832 -0.269123 0.00906793 -0.219139 -0.276285 0.012417 -0.220641 
-0.271371 0.0138626 -0.21856 -0.266577 -0.0173984 -0.217244 -0.263795 -0.0168879 -0.216126 
-0.264525 -0.0127905 -0.216905 -0.266721 -0.00865706 -0.217193 -0.260201 -0.000653875 -0.215847 
-0.263557 0.00366741 -0.217073 -0.271192 0.0215835 -0.217229 -0.326485 0.0568258 -0.223221 
-0.262242 -0.0210252 -0.21477 -0.260407 -0.0238867 -0.212176 -0.254021 -0.0102854 -0.212796 
-0.257559 0.000518025 -0.214668 -0.257764 0.00414131 -0.214587 -0.256088 0.0067054 -0.213769 
-0.253656 0.00417581 -0.211728 -0.257031 0.0104647 -0.212874 -0.247242 -0.0167838 -0.207901 
-0.245583 -0.0103151 -0.209239 -0.240662 0.00176005 -0.207456 -0.24796 0.00909982 -0.210253 
-0.242041 0.00908735 -0.207776 -0.246801 0.0140001 -0.20928 -0.244523 0.0111038 -0.208737 
-0.255761 0.0230212 -0.210596 -0.313967 -0.0692239 -0.208235 -0.250422 -0.0392957 -0.205061 
-0.251516 -0.0333118 -0.207287 -0.24718 -0.0300581 -0.205255 -0.243243 -0.0270171 -0.205687 
-0.240882 -0.0145089 -0.206785 -0.235043 -0.0122259 -0.204446 -0.240498 -0.0106942 -0.206967 
-0.237609 -0.0075043 -0.204826 -0.238197 0.00394332 -0.206328 -0.235201 0.00224076 -0.205135 
-0.235624 0.00679294 -0.205163 -0.235924 0.0131678 -0.204813 -0.243521 0.0149465 -0.206659 
-0.244111 0.0200989 -0.20617 -0.249461 0.0327616 -0.206641 -0.254913 0.039394 -0.205671 
-0.2572 0.0432612 -0.206159 -0.235073 -0.0202119 -0.202369 -0.237779 -0.0164208 -0.204183 
-0.232601 -0.0106792 -0.20339 -0.227895 -0.00946595 -0.201694 -0.232662 -0.00648398 -0.203903 
-0.232067 0.00227619 -0.202648 -0.230827 0.00623878 -0.202466 -0.224869 0.00518421 -0.200675 
-0.233694 0.00992537 -0.203175 -0.227609 0.00924237 -0.201737 -0.235188 0.0160224 -0.203689 
-0.241147 0.0342061 -0.202862 -0.266645 -0.0572899 -0.201656 -0.230391 -0.0348309 -0.198317 
-0.230802 -0.0218745 -0.200284 -0.226501 -0.0212841 -0.199741 -0.22252 -0.0186795 -0.198513 
-0.224923 -0.0136402 -0.200056 -0.221643 -0.0127339 -0.197642 -0.218555 -0.00876022 -0.197809 
[...]
POINT_DATA 833
FIELD FieldData 7
id 1 833 int
979 981 980 985 983 974 975 982 977 
976 198 158 119 106 187 49 225 986 
134 70 213 142 154 204 159 251 305 
157 127 83 72 160 195 144 136 116 
156 166 278 234 105 115 169 277 184 
229 307 170 199 244 221 201 215 200 
228 241 99 185 109 208 205 289 252 
223 250 64 212 135 211 270 143 272 
124 317 191 290 146 181 167 161 182 
165 254 175 96 280 209 418 152 284 
296 297 149 172 233 155 295 224 438 
293 298 236 399 306 377 288 197 256 
253 429 329 222 321 217 261 128 368 
276 337 308 299 255 259 206 264 348 
327 220 242 230 386 332 366 316 9 
287 363 422 353 322 263 446 275 245 
249 226 395 218 267 447 273 354 282 
367 281 260 314 262 192 310 390 304 
381 339 214 232 90 320 343 283 492 
303 292 266 194 347 269 470 423 405 
227 333 388 335 372 274 271 243 330 
430 382 235 331 248 246 300 240 311 
407 239 344 439 371 433 315 285 349 
409 286 257 231 203 258 247 238 237 
318 387 362 427 370 323 340 378 384 
279 341 456 313 389 216 358 411 414 
351 441 336 401 291 302 309 268 444 
490 374 350 396 450 476 338 421 365 
397 326 424 398 355 466 455 462 403 
408 425 410 417 440 428 416 328 473 
400 474 346 325 453 356 404 394 448 
373 530 522 471 488 511 301 483 479 
334 454 420 459 497 361 359 406 475 
434 375 360 484 319 345 489 558 415 
385 493 478 509 486 508 437 519 468 
504 451 445 357 496 469 452 554 559 
521 531 442 376 463 458 499 393 431 
380 392 541 391 481 494 364 624 552 
487 413 485 342 500 312 412 503 600 
477 536 546 555 538 491 482 383 460 
419 435 498 608 556 547 369 507 523 
548 640 379 542 505 501 465 464 449 
516 573 537 524 598 495 402 502 512 
529 597 550 676 515 582 461 562 527 
662 651 467 571 588 581 545 579 532 
517 525 590 520 426 534 564 510 526 
561 574 605 563 566 535 595 528 612 
631 659 621 572 457 599 544 570 577 
614 601 602 540 589 616 443 533 557 
585 514 677 576 652 551 539 543 586 
615 610 634 626 650 506 578 593 648 
603 683 436 668 611 594 638 653 663 
617 656 549 658 636 672 661 633 637 
623 619 480 716 664 629 609 620 684 
666 569 604 691 518 678 669 584 607 
681 639 580 565 618 649 630 592 606 
685 583 675 715 655 635 568 647 671 
596 628 632 657 708 553 694 567 717 
646 645 591 673 613 686 654 575 665 
689 674 643 695 705 670 627 734 560 
725 641 740 625 622 587 642 688 700 
710 667 703 644 704 687 698 699 690 
755 682 513 727 692 752 747 760 742 
711 739 696 718 731 722 730 720 766 
764 432 726 791 748 770 779 709 660 
693 680 701 743 706 729 737 771 721 
749 751 702 778 793 765 712 736 774 
728 707 758 723 786 744 735 780 825 
788 767 790 733 763 750 754 746 777 
769 805 697 772 776 812 714 741 719 
775 713 745 811 807 757 738 826 804 
797 828 814 796 792 794 768 830 472 
802 824 753 679 762 785 819 759 827 
801 799 842 784 817 800 761 798 756 
773 803 822 806 836 841 810 809 732 
818 813 787 789 820 823 781 808 724 
844 833 795 837 783 840 839 831 821 
843 816 782 829 815 835 832 838 834 
850 845 851 848 847 855 852 854 846 
857 856 849 853 861 865 858 868 862 
869 867 859 866 863 864 860 879 875 
878 880 882 873 870 881 871 877 874 
872 876 895 885 887 888 894 890 891 
892 883 884 893 889 900 905 886 896 
906 907 901 903 908 902 904 899 898 
914 917 920 897 913 921 916 911 918 
919 915 910 909 912 928 924 933 932 
927 930 922 929 926 931 934 925 941 
923 935 947 940 943 945 938 939 937 
936 944 957 946 942 948 954 955 959 
953 950 952 956 960 951 958 949 965 
962 967 970 963 964 966 961 968 969 
971 972 973 978 984 
type 1 833 int
1 1 1 1 1 1 1 1 1 
1 1 1 1 1 1 1 1 1 
1 1 1 1 1 1 1 1 1 
1 1 1 1 1 1 1 1 1 
1 1 1 1 1 1 1 1 1 
1 1 1 1 1 1 1 1 1 
1 1 1 1 1 1 1 1 1 
1 1 1 1 1 1 1 1 1 
1 1 1 1 1 1 1 1 1 
1 1 1 1 1 1 1 1 1 
1 1 1 1 1 1 1 1 1 
1 1 1 1 1 1 1 1 1 
1 1 1 1 1 1 1 1 1 
1 1 1 1 1 1 1 1 1 
1 1 1 1 1 1 1 1 1 
1 1 1 1 1 1 1 1 1 
1 1 1 1 1 1 1 1 1 
1 1 1 1 1 1 1 1 1 
1 1 1 1 1 1 1 1 1 
1 1 1 1 1 1 1 1 1 
1 1 1 1 1 1 1 1 1 
1 1 1 1 1 1 1 1 1 
1 1 1 1 1 1 1 1 1 
1 1 1 1 1 1 1 1 1 
1 1 1 1 1 1 1 1 1 
1 1 1 1 1 1 1 1 1 
1 1 1 1 1 1 1 1 1 
1 1 1 1 1 1 1 1 1 
1 1 1 1 1 1 1 1 1 
1 1 1 1 1 1 1 1 1 
1 1 1 1 1 1 1 1 1 
1 1 1 1 1 1 1 1 1 
1 1 1 1 1 1 1 1 1 
1 1 1 1 1 1 1 1 1 
1 1 1 1 1 1 1 1 1 
1 1 1 1 1 1 1 1 1 
1 1 1 1 1 1 1 1 1 
1 1 1 1 1 1 1 1 1 
1 1 1 1 1 1 1 1 1 
1 1 1 1 1 1 1 1 1 
1 1 1 1 1 1 1 1 1 
1 1 1 1 1 1 1 1 1 
1 1 1 1 1 1 1 1 1 
1 1 1 1 1 1 1 1 1 
1 1 1 1 1 1 1 1 1 
1 1 1 1 1 1 1 1 1 
1 1 1 1 1 1 1 1 1 
1 1 1 1 1 1 1 1 1 
1 1 1 1 1 1 1 1 1 
1 1 1 1 1 1 1 1 1 
1 1 1 1 1 1 1 1 1 
1 1 1 1 1 1 1 1 1 
1 1 1 1 1 1 1 1 1 
1 1 1 1 1 1 1 1 1 
1 1 1 1 1 1 1 1 1 
1 1 1 1 1 1 1 1 1 
1 1 1 1 1 1 1 1 1 
1 1 1 1 1 1 1 1 1 
1 1 1 1 1 1 1 1 1 
1 1 1 1 1 1 1 1 1 
1 1 1 1 1 1 1 1 1 
1 1 1 1 1 1 1 1 1 
1 1 1 1 1 1 1 1 1 
1 1 1 1 1 1 1 1 1 
1 1 1 1 1 1 1 1 1 
1 1 1 1 1 1 1 1 1 
1 1 1 1 1 1 1 1 1 
1 1 1 1 1 1 1 1 1 
1 1 1 1 1 1 1 1 1 
1 1 1 1 1 1 1 1 1 
1 1 1 1 1 1 1 1 1 
1 1 1 1 1 1 1 1 1 
1 1 1 1 1 1 1 1 1 
1 1 1 1 1 1 1 1 1 
1 1 1 1 1 1 1 1 1 
1 1 1 1 1 1 1 1 1 
1 1 1 1 1 1 1 1 1 
1 1 1 1 1 1 1 1 1 
1 1 1 1 1 1 1 1 1 
1 1 1 1 1 1 1 1 1 
1 1 1 1 1 1 1 1 1 
1 1 1 1 1 1 1 1 1 
1 1 1 1 1 1 1 1 1 
1 1 1 1 1 1 1 1 1 
1 1 1 1 1 1 1 1 1 
1 1 1 1 1 1 1 1 1 
1 1 1 1 1 1 1 1 1 
1 1 1 1 1 1 1 1 1 
1 1 1 1 1 1 1 1 1 
1 1 1 1 1 1 1 1 1 
1 1 1 1 1 1 1 1 1 
1 1 1 1 1 1 1 1 1 
1 1 1 1 1 
i 3 833 int
0 0 0 0 0 0 0 0 0 
0 0 0 0 0 0 0 0 0 
0 0 0 0 0 0 0 0 0 
0 0 0 0 0 0 0 0 0 
0 0 0 0 0 0 0 0 0 
0 0 0 0 0 0 0 0 0 
0 0 0 0 0 0 0 0 0 
0 0 0 0 0 0 0 0 0 
0 0 0 0 0 0 0 0 0 
0 0 0 0 0 0 0 0 0 
0 0 0 0 0 0 0 0 0 
0 0 0 0 0 0 0 0 0 
0 0 0 0 0 0 0 0 0 
0 0 0 0 0 0 0 0 0 
0 0 0 0 0 0 0 0 0 
0 0 0 0 0 0 0 0 0 
0 0 0 0 0 0 0 0 0 
0 0 0 0 0 0 0 0 0 
0 0 0 0 0 0 0 0 0 
0 0 0 0 0 0 0 0 0 
0 0 0 0 0 0 0 0 0 
0 0 0 0 0 0 0 0 0 
0 0 0 0 0 0 0 0 0 
0 0 0 0 0 0 0 0 0 
0 0 0 0 0 0 0 0 0 
0 0 0 0 0 0 0 0 0 
0 0 0 0 0 0 0 0 0 
0 0 0 0 0 0 0 0 0 
0 0 0 0 0 0 0 0 0 
0 0 0 0 0 0 0 0 0 
0 0 0 0 0 0 0 0 0 
0 0 0 0 0 0 0 0 0 
0 0 0 0 0 0 0 0 0 
0 0 0 0 0 0 0 0 0 
0 0 0 0 0 0 0 0 0 
0 0 0 0 0 0 0 0 0 
0 0 0 0 0 0 0 0 0 
0 0 0 0 0 0 0 0 0 
0 0 0 0 0 0 0 0 0 
0 0 0 0 0 0 0 0 0 
0 0 0 0 0 0 0 0 0 
0 0 0 0 0 0 0 0 0 
0 0 0 0 0 0 0 0 0 
0 0 0 0 0 0 0 0 0 
0 0 0 0 0 0 0 0 0 
0 0 0 0 0 0 0 0 0 
0 0 0 0 0 0 0 0 0 
0 0 0 0 0 0 0 0 0 
0 0 0 0 0 0 0 0 0 
0 0 0 0 0 0 0 0 0 
0 0 0 0 0 0 0 0 0 
0 0 0 0 0 0 0 0 0 
0 0 0 0 0 0 0 0 0 
0 0 0 0 0 0 0 0 0 
0 0 0 0 0 0 0 0 0 
0 0 0 0 0 0 0 0 0 
0 0 0 0 0 0 0 0 0 
0 0 0 0 0 0 0 0 0 
0 0 0 0 0 0 0 0 0 
0 0 0 0 0 0 0 0 0 
0 0 0 0 0 0 0 0 0 
0 0 0 0 0 0 0 0 0 
0 0 0 0 0 0 0 0 0 
0 0 0 0 0 0 0 0 0 
0 0 0 0 0 0 0 0 0 
0 0 0 0 0 0 0 0 0 
0 0 0 0 0 0 0 0 0 
0 0 0 0 0 0 0 0 0 
0 0 0 0 0 0 0 0 0 
0 0 0 0 0 0 0 0 0 
0 0 0 0 0 0 0 0 0 
0 0 0 0 0 0 0 0 0 
0 0 0 0 0 0 0 0 0 
0 0 0 0 0 0 0 0 0 
0 0 0 0 0 0 0 0 0 
0 0 0 0 0 0 0 0 0 
0 0 0 0 0 0 0 0 0 
0 0 0 0 0 0 0 0 0 
0 0 0 0 0 0 0 0 0 
0 0 0 0 0 0 0 0 0 
0 0 0 0 0 0 0 0 0 
0 0 0 0 0 0 0 0 0 
0 0 0 0 0 0 0 0 0 
0 0 0 0 0 0 0 0 0 
0 0 0 0 0 0 0 0 0 
0 0 0 0 0 0 0 0 0 
0 0 0 0 0 0 0 0 0 
0 0 0 0 0 0 0 0 0 
0 0 0 0 0 0 0 0 0 
0 0 0 0 0 0 0 0 0 
0 0 0 0 0 0 0 0 0 
0 0 0 0 0 0 0 0 0 
0 0 0 0 0 0 0 0 0 
0 0 0 0 0 0 0 0 0 
0 0 0 0 0 0 0 0 0 
0 0 0 0 0 0 0 0 0 
0 0 0 0 0 0 0 0 0 
0 0 0 0 0 0 0 0 0 
0 0 0 0 0 0 0 0 0 
0 0 0 0 0 0 0 0 0 
0 0 0 0 0 0 0 0 0 
0 0 0 0 0 0 0 0 0 
0 0 0 0 0 0 0 0 0 
0 0 0 0 0 0 0 0 0 
0 0 0 0 0 0 0 0 0 
0 0 0 0 0 0 0 0 0 
0 0 0 0 0 0 0 0 0 
0 0 0 0 0 0 0 0 0 
0 0 0 0 0 0 0 0 0 
0 0 0 0 0 0 0 0 0 
0 0 0 0 0 0 0 0 0 
0 0 0 0 0 0 0 0 0 
0 0 0 0 0 0 0 0 0 
0 0 0 0 0 0 0 0 0 
0 0 0 0 0 0 0 0 0 
0 0 0 0 0 0 0 0 0 
0 0 0 0 0 0 0 0 0 
0 0 0 0 0 0 0 0 0 
0 0 0 0 0 0 0 0 0 
0 0 0 0 0 0 0 0 0 
0 0 0 0 0 0 0 0 0 
0 0 0 0 0 0 0 0 0 
0 0 0 0 0 0 0 0 0 
0 0 0 0 0 0 0 0 0 
0 0 0 0 0 0 0 0 0 
0 0 0 0 0 0 0 0 0 
0 0 0 0 0 0 0 0 0 
0 0 0 0 0 0 0 0 0 
0 0 0 0 0 0 0 0 0 
0 0 0 0 0 0 0 0 0 
0 0 0 0 0 0 0 0 0 
0 0 0 0 0 0 0 0 0 
0 0 0 0 0 0 0 0 0 
0 0 0 0 0 0 0 0 0 
0 0 0 0 0 0 0 0 0 
0 0 0 0 0 0 0 0 0 
0 0 0 0 0 0 0 0 0 
0 0 0 0 0 0 0 0 0 
0 0 0 0 0 0 0 0 0 
0 0 0 0 0 0 0 0 0 
0 0 0 0 0 0 0 0 0 
0 0 0 0 0 0 0 0 0 
0 0 0 0 0 0 0 0 0 
0 0 0 0 0 0 0 0 0 
0 0 0 0 0 0 0 0 0 
0 0 0 0 0 0 0 0 0 
0 0 0 0 0 0 0 0 0 
0 0 0 0 0 0 0 0 0 
0 0 0 0 0 0 0 0 0 
0 0 0 0 0 0 0 0 0 
0 0 0 0 0 0 0 0 0 
0 0 0 0 0 0 0 0 0 
0 0 0 0 0 0 0 0 0 
0 0 0 0 0 0 0 0 0 
0 0 0 0 0 0 0 0 0 
0 0 0 0 0 0 0 0 0 
0 0 0 0 0 0 0 0 0 
0 0 0 0 0 0 0 0 0 
0 0 0 0 0 0 0 0 0 
0 0 0 0 0 0 0 0 0 
0 0 0 0 0 0 0 0 0 
0 0 0 0 0 0 0 0 0 
0 0 0 0 0 0 0 0 0 
0 0 0 0 0 0 0 0 0 
0 0 0 0 0 0 0 0 0 
0 0 0 0 0 0 0 0 0 
0 0 0 0 0 0 0 0 0 
0 0 0 0 0 0 0 0 0 
0 0 0 0 0 0 0 0 0 
0 0 0 0 0 0 0 0 0 
0 0 0 0 0 0 0 0 0 
0 0 0 0 0 0 0 0 0 
0 0 0 0 0 0 0 0 0 
0 0 0 0 0 0 0 0 0 
0 0 0 0 0 0 0 0 0 
0 0 0 0 0 0 0 0 0 
0 0 0 0 0 0 0 0 0 
0 0 0 0 0 0 0 0 0 
0 0 0 0 0 0 0 0 0 
0 0 0 0 0 0 0 0 0 
0 0 0 0 0 0 0 0 0 
0 0 0 0 0 0 0 0 0 
0 0 0 0 0 0 0 0 0 
0 0 0 0 0 0 0 0 0 
0 0 0 0 0 0 0 0 0 
0 0 0 0 0 0 0 0 0 
0 0 0 0 0 0 0 0 0 
0 0 0 0 0 0 0 0 0 
0 0 0 0 0 0 0 0 0 
0 0 0 0 0 0 0 0 0 
0 0 0 0 0 0 0 0 0 
0 0 0 0 0 0 0 0 0 
0 0 0 0 0 0 0 0 0 
0 0 0 0 0 0 0 0 0 
0 0 0 0 0 0 0 0 0 
0 0 0 0 0 0 0 0 0 
0 0 0 0 0 0 0 0 0 
0 0 0 0 0 0 0 0 0 
0 0 0 0 0 0 0 0 0 
0 0 0 0 0 0 0 0 0 
0 0 0 0 0 0 0 0 0 
0 0 0 0 0 0 0 0 0 
0 0 0 0 0 0 0 0 0 
0 0 0 0 0 0 0 0 0 
0 0 0 0 0 0 0 0 0 
0 0 0 0 0 0 0 0 0 
0 0 0 0 0 0 0 0 0 
0 0 0 0 0 0 0 0 0 
0 0 0 0 0 0 0 0 0 
0 0 0 0 0 0 0 0 0 
0 0 0 0 0 0 0 0 0 
0 0 0 0 0 0 0 0 0 
0 0 0 0 0 0 0 0 0 
0 0 0 0 0 0 0 0 0 
0 0 0 0 0 0 0 0 0 
0 0 0 0 0 0 0 0 0 
0 0 0 0 0 0 0 0 0 
0 0 0 0 0 0 0 0 0 
0 0 0 0 0 0 0 0 0 
0 0 0 0 0 0 0 0 0 
0 0 0 0 0 0 0 0 0 
0 0 0 0 0 0 0 0 0 
0 0 0 0 0 0 0 0 0 
0 0 0 0 0 0 0 0 0 
0 0 0 0 0 0 0 0 0 
0 0 0 0 0 0 0 0 0 
0 0 0 0 0 0 0 0 0 
0 0 0 0 0 0 0 0 0 
0 0 0 0 0 0 0 0 0 
0 0 0 0 0 0 0 0 0 
0 0 0 0 0 0 0 0 0 
0 0 0 0 0 0 0 0 0 
0 0 0 0 0 0 0 0 0 
0 0 0 0 0 0 0 0 0 
0 0 0 0 0 0 0 0 0 
0 0 0 0 0 0 0 0 0 
0 0 0 0 0 0 0 0 0 
0 0 0 0 0 0 0 0 0 
0 0 0 0 0 0 0 0 0 
0 0 0 0 0 0 0 0 0 
0 0 0 0 0 0 0 0 0 
0 0 0 0 0 0 0 0 0 
0 0 0 0 0 0 0 0 0 
0 0 0 0 0 0 0 0 0 
0 0 0 0 0 0 0 0 0 
0 0 0 0 0 0 0 0 0 
0 0 0 0 0 0 0 0 0 
0 0 0 0 0 0 0 0 0 
0 0 0 0 0 0 0 0 0 
0 0 0 0 0 0 0 0 0 
0 0 0 0 0 0 0 0 0 
0 0 0 0 0 0 0 0 0 
0 0 0 0 0 0 0 0 0 
0 0 0 0 0 0 0 0 0 
0 0 0 0 0 0 0 0 0 
0 0 0 0 0 0 0 0 0 
0 0 0 0 0 0 0 0 0 
0 0 0 0 0 0 0 0 0 
0 0 0 0 0 0 0 0 0 
0 0 0 0 0 0 0 0 0 
0 0 0 0 0 0 0 0 0 
0 0 0 0 0 0 0 0 0 
0 0 0 0 0 0 0 0 0 
0 0 0 0 0 0 0 0 0 
0 0 0 0 0 0 0 0 0 
0 0 0 0 0 0 0 0 0 
0 0 0 0 0 0 0 0 0 
0 0 0 0 0 0 0 0 0 
0 0 0 0 0 0 0 0 0 
0 0 0 0 0 0 0 0 0 
0 0 0 0 0 0 0 0 0 
0 0 0 0 0 0 0 0 0 
0 0 0 0 0 0 0 0 0 
0 0 0 0 0 0 0 0 0 
0 0 0 0 0 0 0 0 0 
0 0 0 0 0 0 0 0 0 
0 0 0 0 0 0 0 0 0 
0 0 0 0 0 0 
v 3 833 double
0 0 -1.00554 0 0 -1 0 0 -1 
0 0 -1.01457 0 0 -1.03213 0 0 -1.01447 
0 0 -1.04429 0 0 -1.01153 0 0 -1.01172 
0 0 -1.01918 -1.11153 -0.0813879 -1.82334 -1.14753 -0.0645282 -1.80475 
-1.14175 -0.0597273 -1.83737 -1.02132 0.00715958 -1.83584 -0.86721 0.108018 -1.78581 
-0.926415 -0.0261929 -1.76472 -1.14716 0.239158 -1.81977 0 0 -1.05812 
-1.20975 0.099159 -1.7899 -1.08607 0.0934356 -1.72888 -0.975709 0.0836101 -1.77504 
-1.04824 -0.128336 -1.74747 -0.984574 -0.0756637 -1.75939 -0.906767 -0.0245925 -1.76988 
-1.05663 0.0271079 -1.66936 -1.175 -0.275441 -1.88136 -1.20634 0.31037 -1.87932 
-1.22921 0.113399 -1.75503 -0.971564 -0.0522209 -1.72554 -0.943879 0.0327751 -1.70668 
-1.2045 -0.276607 -1.77091 -0.964999 0.0272735 -1.69259 -0.97989 -0.14697 -1.66134 
-0.959124 -0.0856707 -1.68383 -1.13301 0.0485565 -1.67408 -1.08291 0.0449325 -1.64332 
-0.980062 -0.0645597 -1.65733 -0.958266 -0.116579 -1.61671 -0.972702 -0.107829 -1.62642 
-1.26197 -0.0842652 -1.69381 -0.943774 -0.164468 -1.59618 -0.971009 -0.0364512 -1.62055 
-1.04128 -0.0541165 -1.59342 -1.09055 -0.128932 -1.59623 -0.938482 0.0116519 -1.53755 
-1.14597 0.0596474 -1.56555 -1.34373 0.117182 -1.64163 -1.05324 -0.00685462 -1.57428 
-1.1201 0.0296316 -1.57432 -1.0244 0.0231564 -1.52317 -1.08177 -0.00368252 -1.5281 
-1.14229 0.257386 -1.57708 -0.735834 0.0629673 -1.54822 -1.1256 -0.169277 -1.54891 
-1.12839 0.00292622 -1.51802 -0.860906 -0.0297012 -1.47352 -0.986592 0.00842437 -1.46948 
-1.15873 0.308163 -1.51934 -0.97308 0.0315411 -1.47845 -0.983198 0.0552615 -1.4967 
-1.06446 0.0293947 -1.4438 -1.19926 -0.149876 -1.43555 -1.02063 0.0942051 -1.43908 
-1.23335 0.0213085 -1.39285 -0.845192 0.0269881 -1.30658 -0.987107 -0.0621105 -1.3469 
-1.0718 -0.00770656 -1.38263 -0.891318 0.0197102 -1.35615 -0.917824 0.00464036 -1.43926 
-0.930709 0.00640582 -1.32092 -0.978261 0.0146498 -1.35003 -1.02834 0.0389882 -1.31864 
-0.934905 0.00906679 -1.30283 -1.08006 -0.0290875 -1.33218 -1.1357 0.0258527 -1.34476 
-1.17869 -0.0510789 -1.36215 -1.05551 -0.0722161 -1.28476 -1.03141 -0.0509235 -1.28222 
-0.861713 -0.00419694 -1.26818 -1.17737 0.0101711 -1.29859 -1.06477 0.0943245 -1.29405 
-1.23285 0.189699 -1.30777 -0.985531 0.0741746 -1.25523 -1.00509 0.0523094 -1.22346 
-1.07613 0.0656212 -1.28237 -1.09132 0.0303661 -1.23398 -0.907631 0.0914391 -1.21293 
-1.12921 -0.0492224 -1.25778 -1.03103 0.0609834 -1.20086 -1.1332 0.0567801 -1.20672 
-1.0872 -0.0555298 -1.21912 -1.02322 0.0727472 -1.17317 -1.01209 0.11951 -1.14283 
-1.05187 0.0244488 -1.14195 -1.0923 -0.0309608 -1.10823 -0.994956 -0.335813 -1.15058 
-1.1587 0.0201664 -1.11313 -1.14533 0.104667 -1.24118 -1.15342 -0.0670013 -1.11344 
-1.10221 -0.101197 -1.07409 -0.994387 -0.12073 -1.19806 -1.30069 -0.185949 -0.962922 
-1.3415 -0.0828055 -1.12332 -1.23017 -0.258379 -1.17029 -1.21083 0.347387 -1.23419 
-0.785727 0.154342 -0.940892 -1.01812 0.00493514 -0.968781 -1.03657 -0.139649 -1.06963 
-1.0488 -0.0906422 -1.01753 -1.20429 0.377 -1.39122 -1.01017 0.0529042 -0.935376 
-1.20281 0.0828919 -0.981342 -1.03247 -0.12736 -1.01514 -1.24491 -0.144925 -1.01911 
-1.00703 -0.0959988 -0.983603 -1.06896 -0.112182 -0.898908 -0.998662 -0.0751622 -0.939959 
-0.98885 -0.0198163 -0.919204 -1.04679 -0.0180249 -0.891207 -1.18722 0.134781 -0.940322 
-0.78174 -0.021316 -1.01535 -1.11413 0.146858 -0.876302 -1.38242 0.129267 -0.940267 
-0.990853 -0.0186445 -0.882505 -1.01164 -0.0375925 -0.853174 -1.07628 -0.0482207 -0.902443 
-1.11057 0.340265 -1.00144 -1.11085 0.0157648 -0.869595 -1.02978 -0.125746 -0.825916 
-1.0067 -0.101924 -0.802599 -1.30647 -0.245863 -0.992969 -1.13435 0.0913762 -0.879298 
-1.21927 0.420919 -1.02505 -0.799095 -0.00654769 -0.680189 -0.932172 0.0238375 -0.705086 
-0.993887 -0.113148 -0.781913 -1.02522 -0.00200384 -0.753463 -1.1733 0.0988828 -0.751178 
-1.17455 0.00213935 -0.560836 -0.869056 0.0016458 -0.742508 -0.947096 -0.00797505 -0.702133 
-1.20233 -0.0715096 -0.799679 -0.876086 -0.0109045 -0.729548 -0.913818 0.0121112 -0.65843 
-0.931975 0.0655332 -0.703848 -1.06313 0.00445064 -0.752289 -0.994843 -0.0617197 -0.7395 
-1.02037 -0.0786758 -0.684866 -0.991645 -0.0691342 -0.602569 -0.956036 -0.049502 -0.726697 
-0.996555 -0.0500546 -0.564622 -0.976648 -0.0196294 -0.609874 -1.15535 -0.103215 -0.78923 
-1.09572 -0.269044 -0.929518 -0.981739 0.0246476 -0.521883 -1.10544 0.13779 -0.572232 
-0.915196 0.0922165 -0.597511 -1.03946 -0.00147266 -0.758113 -1.05742 0.0242824 -0.622983 
-1.1472 -0.0183688 -0.671425 -1.04277 -0.035549 -0.538743 -1.06991 -0.0119744 -0.49552 
-0.866472 -0.0593439 -0.368573 -0.990987 -0.0714607 -0.484183 -0.856023 -0.0684415 -0.511115 
-1.03058 -0.0631641 -0.58692 -0.923074 -0.043184 -0.461719 -1.04419 -0.0747482 -0.473823 
-0.918647 -0.00757707 -0.462714 -1.10271 -0.0537043 -0.4974 -1.06397 0.0468983 -0.468033 
-0.994533 -0.0896564 -0.415608 -0.979641 -0.0426487 -0.41199 -0.932991 -0.0490747 -0.399892 
-0.995767 -0.0747155 -0.471545 -1.02937 -0.0923633 -0.448334 -0.973639 -0.0500674 -0.502623 
-1.23319 -0.192602 -0.837901 -1.12514 0.00747823 -0.451644 -0.94532 0.115458 -0.387862 
-0.947 0.053135 -0.402564 -0.985065 0.0168557 -0.413512 -1.00027 0.0730802 -0.404128 
-1.13067 0.217522 -0.523049 -0.85946 -0.0023582 -0.369137 -0.943377 0.0822713 -0.388378 
-0.946549 0.0743896 -0.413048 -0.982761 0.0991293 -0.40448 -0.951918 0.108768 -0.409334 
-0.994214 0.22367 -0.375214 -0.85696 -0.0176078 -0.361655 -0.816282 -0.0576378 -0.333807 
-0.995116 -0.059239 -0.423163 -1.03322 -0.045249 -0.438425 -0.959778 -0.0595245 -0.408867 
-0.89369 -0.0165794 -0.376056 -0.81835 -0.0404252 -0.349286 -0.924771 0.0724518 -0.371708 
-0.914891 -0.0086175 -0.383357 -1.12293 0.202184 -0.513508 -1.10991 0.232826 -0.489811 
-1.0839 0.0836573 -0.449488 -1.10874 0.0951289 -0.496794 -0.839449 0.00211579 -0.3534 
-0.849316 -0.0143682 -0.358262 -0.852335 -0.00125619 -0.358958 -0.875994 -0.0137108 -0.350998 
-0.873525 -0.00326096 -0.368332 -1.0116 0.0230724 -0.419044 -0.979389 -0.00828117 -0.425223 
-0.942509 0.0476381 -0.384069 -0.802639 0.0303398 -0.34098 -0.795132 0.0272586 -0.337567 
-1.08697 0.0909291 -0.42359 -0.749904 0.0558893 -0.31865 -0.813809 -0.102682 -0.340006 
-0.851668 0.00644569 -0.359766 -0.847586 0.0127428 -0.356399 -0.840682 -0.00489558 -0.341248 
-0.739751 0.0639046 -0.308195 -0.819018 0.121323 -0.334615 -1.05767 0.0685767 -0.341229 
-0.690124 -0.0322704 -0.294746 -0.773984 0.0918138 -0.404167 -0.99367 0.0821365 -0.515267 
-0.89799 0.0593216 -0.354954 -1.00352 -0.0880779 -0.374383 -0.899153 -0.0400777 -0.373302 
-0.888614 0.0321834 -0.378776 -0.946697 0.0963293 -0.408587 -0.852574 -0.00956087 -0.357167 
-0.883258 -0.0239316 -0.373594 -0.817605 -0.00525897 -0.351133 -0.850846 0.0642969 -0.360727 
-0.740368 -0.0495459 -0.307011 -0.908415 -0.000701469 -0.250179 -0.81212 0.0204826 -0.341064 
-0.81311 0.00264504 -0.330382 -0.759086 0.0647206 -0.312947 -0.913252 0.0962892 -0.373399 
-0.912797 0.103251 -0.372703 -0.999344 0.187275 -0.394812 -1.04857 0.0272654 -0.412712 
-1.14269 0.0772947 -0.478369 -0.967105 0.0868781 -0.427877 -0.962742 -0.063933 -0.395697 
-0.831505 -0.0440251 -0.350814 -1.29086 0.0387144 -0.718332 -0.880729 0.0835545 -0.360576 
-0.831701 0.0160586 -0.372992 -0.886605 -0.0363823 -0.378798 -1.08031 -0.0490403 -0.462764 
-0.858263 0.202347 -0.490963 -1.02087 -0.0594271 -0.430223 -0.963005 0.04677 -0.485894 
-0.935036 0.0185947 -0.379856 -0.961459 -0.0806744 -0.396432 -0.974931 -0.000621758 -0.411768 
-0.728949 0.0310591 -0.308156 -0.9128 0.0465401 -0.38791 -0.96718 -0.0470944 -0.407849 
-1.03819 -0.0765339 -0.445034 -1.13735 -0.102891 -0.481256 -1.05953 -0.641162 -0.869854 
-0.959615 0.014527 -0.392693 -0.964444 0.00129885 -0.410812 -1.01627 -0.0244525 -0.421399 
-0.960525 -0.0332631 -0.415766 -1.01191 0.00330585 -0.421019 -0.885895 -0.147568 -0.382411 
-1.03698 -0.00168549 -0.471357 -0.888374 -0.0899664 -0.383309 -0.986552 0.047954 -0.408455 
-0.985199 -0.0067144 -0.433922 -0.83331 0.137952 -0.349467 -0.937414 0.0438533 -0.390654 
-0.888514 0.0515347 -0.370642 -1.00542 0.000468882 -0.425201 -0.957295 0.00243589 -0.399827 
-1.05092 -0.07064 -0.447043 -1.34215 0.275759 -0.787529 -0.932108 -0.0486901 -0.325326 
-0.950779 -0.0143498 -0.42205 -0.929071 0.0783204 -0.392074 -0.944062 0.139955 -0.443024 
-0.945409 0.0448523 -0.38282 -0.901489 0.0328513 -0.375919 -0.929388 -0.0197582 -0.410297 
-0.938819 0.0605548 -0.420435 -0.799789 0.207729 -0.320694 -0.852026 0.0397812 -0.354809 
-0.950484 -0.000482793 -0.396127 -0.90644 0.064168 -0.376305 -0.980931 -0.0315557 -0.414817 
-1.00809 -0.0227355 -0.420048 -0.861339 -0.0319228 -0.358295 -0.803384 0.0751572 -0.284216 
-0.95952 0.0553486 -0.355303 -0.929973 0.033802 -0.390354 -0.932637 0.0436885 -0.367188 
-0.891178 0.0108687 -0.361232 -0.932307 -5.86619e-05 -0.383904 -0.902189 0.0170383 -0.375715 
-0.803167 0.00673748 -0.415686 -0.827742 0.0124639 -0.381119 -0.887908 -0.0495474 -0.370356 
-0.946483 0.00778669 -0.393999 -0.954253 -0.0246305 -0.40664 -0.961351 0.0861146 -0.376739 
-1.18379 0.0926123 -0.478031 -1.10986 0.282424 -0.563003 -1.01645 0.0520174 -0.422193 
-0.983439 0.0509921 -0.413083 -0.959264 0.0133208 -0.394933 -0.905059 -0.0137015 -0.374022 
-0.88665 0.0388803 -0.384362 -0.887404 0.032612 -0.371931 -0.812437 0.0375497 -0.340113 
-0.763276 0.155506 -0.290613 -0.871845 0.00136796 -0.364334 -0.853397 0.074704 -0.36479 
-0.953189 -0.067758 -0.408524 -1.0421 0.117952 -0.431143 -1.08547 0.03321 -0.451599 