# vtk DataFile Version 4.0
Generated by LIGGGHTS
ASCII
DATASET POLYDATA
POINTS 747 float
-0.483808 -0.0356125 -0.383642 -0.480779 -0.0284013 -0.379498 -0.477689 0.028745 -0.37996 
-0.46442 -0.0123245 -0.371049 -0.467668 0.00887459 -0.367924 -0.468301 -0.024074 -0.360478 
-0.466086 0.00449489 -0.360058 -0.445383 0.00907202 -0.361306 -0.451657 0.0125278 -0.355775 
-0.463213 -0.00351726 -0.353878 -0.437185 -0.00138035 -0.349265 -0.448521 0.0127123 -0.348631 
-0.453129 0.00301948 -0.345911 -0.441623 -0.00421113 -0.340307 -0.44943 0.00600907 -0.339917 
-0.449694 -0.0106759 -0.337986 -0.442449 -0.0141369 -0.330884 -0.433033 -0.00435835 -0.331806 
-0.433423 0.00332468 -0.331946 -0.42982 0.00592509 -0.331987 -0.431287 0.00511878 -0.32384 
-0.426811 0.00617338 -0.324099 -0.427008 0.0110416 -0.323349 -0.419971 0.00189549 -0.315528 
-0.420002 0.00814196 -0.316715 -0.415781 -0.00169509 -0.314648 -0.422166 0.0124367 -0.314691 
-0.421033 -0.00615045 -0.308465 -0.415707 0.00526906 -0.308951 -0.411166 0.0268853 -0.3087 
-0.411392 -0.0102208 -0.304659 -0.413761 -0.00391139 -0.30506 -0.415193 0.0215514 -0.302867 
-0.399692 8.4851e-05 -0.29912 -0.398228 0.00363709 -0.29442 -0.395418 -0.00112286 -0.293433 
-0.407763 0.0309785 -0.293772 -0.393311 -0.0102899 -0.288614 -0.387244 0.00708602 -0.288617 
-0.390188 -0.00714294 -0.28558 -0.385784 0.00655467 -0.283504 -0.386735 -0.0123016 -0.279765 
-0.381854 0.00337642 -0.280354 -0.384355 -0.00887331 -0.277142 -0.374893 0.00414278 -0.277698 
-0.379679 0.0097772 -0.277314 -0.374299 0.0105962 -0.273788 -0.379029 0.0214626 -0.275517 
-0.371415 -0.00802502 -0.269144 -0.369096 -0.000382704 -0.268877 -0.374115 -0.0265268 -0.267688 
-0.389202 -0.0238664 -0.266923 -0.364112 0.00798395 -0.265769 -0.372983 0.024102 -0.266721 
-0.358866 -0.0067471 -0.261793 -0.359765 -0.00425059 -0.263252 -0.358036 -0.000990053 -0.262243 
-0.371475 -0.0323231 -0.259697 -0.357959 -0.0167212 -0.258309 -0.359515 -0.00968034 -0.26136 
-0.355018 -0.00963815 -0.258579 -0.355825 -0.00694583 -0.259707 -0.355088 -0.0019154 -0.259161 
-0.358171 0.0135063 -0.26067 -0.359787 -0.0253451 -0.256721 -0.356157 -0.021559 -0.256601 
-0.347834 0.0144527 -0.254286 -0.351541 0.0183773 -0.255097 -0.34621 -0.0215596 -0.250883 
-0.34413 -0.0171633 -0.251944 -0.343082 -0.000251694 -0.252367 -0.346825 0.00293707 -0.253603 
-0.34824 -0.0293628 -0.250165 -0.345095 -0.0248398 -0.250257 -0.338586 -0.0142754 -0.248797 
-0.337106 0.00124492 -0.249098 -0.338763 0.00456875 -0.24997 -0.340261 0.007752 -0.250368 
-0.337863 0.00995927 -0.248866 -0.33566 0.00753685 -0.248206 -0.340277 0.0110661 -0.250297 
-0.339035 -0.0263638 -0.245604 -0.341005 -0.0228605 -0.246448 -0.332842 -0.0244885 -0.245302 
-0.335052 -0.0152082 -0.246095 -0.33522 -0.0100539 -0.246639 -0.328387 -0.0101272 -0.244042 
-0.333397 -0.00169726 -0.245867 -0.332188 0.0106153 -0.245963 -0.330389 -0.0251173 -0.241422 
-0.331928 -0.0178478 -0.242589 -0.324349 0.000327569 -0.241827 -0.324174 0.00546267 -0.242512 
-0.327069 0.0155732 -0.2428 -0.328375 -0.0364378 -0.237607 -0.319757 -0.0178232 -0.238113 
-0.317723 -0.0141081 -0.23896 -0.310163 0.00248777 -0.236775 -0.314236 0.00529288 -0.237229 
-0.316892 0.00850369 -0.239229 -0.32406 0.0222749 -0.239047 -0.301872 0.00217207 -0.2333 
-0.304826 0.00771009 -0.233112 -0.304285 0.016455 -0.23302 -0.297749 -0.0129279 -0.230853 
-0.299476 -0.00353921 -0.231207 -0.293619 -0.00596551 -0.229737 -0.296784 0.00142289 -0.231202 
-0.299552 0.00376273 -0.232221 -0.299367 0.00674529 -0.231955 -0.29761 0.00957093 -0.229739 
-0.299573 0.0124627 -0.231678 -0.303191 0.0238858 -0.230018 -0.305047 -0.0368563 -0.227814 
-0.296012 -0.0314084 -0.226094 -0.294571 -0.0273395 -0.226373 -0.293038 -0.0163148 -0.228489 
-0.290666 -0.0112225 -0.226979 -0.295131 -0.0101672 -0.228969 -0.28702 -0.00953791 -0.226706 
-0.284846 -0.00645122 -0.225997 -0.293167 0.000713365 -0.228638 -0.288026 0.00305842 -0.226321 
-0.294143 0.0056382 -0.228737 -0.285955 0.00653038 -0.226289 -0.291885 0.0151495 -0.228103 
-0.288438 0.016171 -0.226476 -0.295473 0.0235117 -0.22798 -0.328332 0.039398 -0.226949 
-0.293692 -0.0284963 -0.222349 -0.286636 -0.0167139 -0.225742 -0.284855 -0.0113063 -0.225462 
-0.279805 -0.0111766 -0.223499 -0.281273 -0.00290006 -0.224633 -0.278146 0.00242087 -0.223282 
-0.282209 0.00467365 -0.223766 -0.278274 0.00561731 -0.223147 -0.282915 0.0102325 -0.22372 
-0.285636 0.0152234 -0.225481 -0.280118 0.014462 -0.223257 -0.282651 0.0189424 -0.222439 
-0.271115 -0.0148228 -0.21945 -0.275324 -0.0131688 -0.220314 -0.271173 -0.00844842 -0.220173 
-0.277023 -0.00130093 -0.221819 -0.267261 -0.00131186 -0.218791 -0.277909 0.0105999 -0.221633 
-0.273311 0.0110855 -0.219708 -0.281516 0.0240692 -0.221045 -0.272187 -0.0307454 -0.216463 
-0.264437 -0.00921988 -0.217272 -0.268333 -0.00652242 -0.217959 -0.264557 -0.000615456 -0.217656 
-0.284063 0.000875618 -0.216242 -0.262742 0.00485533 -0.21667 -0.267811 0.0139041 -0.216446 
-0.269349 0.01745 -0.21815 -0.275224 0.0300666 -0.217909 -0.276552 -0.0467135 -0.212203 
-0.264843 -0.0223914 -0.214449 -0.257342 -0.0154715 -0.212252 -0.260077 -0.0119596 -0.214055 
-0.250352 -0.00131083 -0.211688 -0.25511 0.000800796 -0.21254 -0.260855 0.00821458 -0.214546 
-0.262809 0.0127831 -0.215113 -0.255331 0.0116465 -0.212137 -0.255131 0.0166439 -0.212386 
-0.252281 -0.0196451 -0.210823 -0.249053 -0.0187745 -0.209277 -0.24889 -0.0155734 -0.209935 
-0.247502 -0.00293157 -0.20914 -0.247876 0.00285793 -0.209373 -0.254964 0.00633751 -0.211088 
-0.248543 0.00816835 -0.20945 -0.251349 0.0139584 -0.210113 -0.245152 0.0143465 -0.208532 
-0.252666 0.0179017 -0.211163 -0.249513 0.0205726 -0.209459 -0.257794 0.0303832 -0.210712 
-0.259952 0.0361536 -0.21003 -0.241305 -0.0224138 -0.20466 -0.238934 -0.0089985 -0.205317 
-0.23765 0.00354732 -0.206113 -0.240849 0.00851275 -0.207291 -0.237349 0.00848663 -0.205827 
-0.241758 0.0121375 -0.207363 -0.238062 0.0121895 -0.205855 -0.251977 0.0357097 -0.205778 
-0.233001 -0.0141446 -0.20345 -0.231715 -0.0094142 -0.203283 -0.232494 -0.00303081 -0.203017 
-0.233891 0.00743274 -0.204429 -0.233959 0.0121678 -0.204112 -0.230161 0.0124663 -0.20245 
-0.23826 -0.0414053 -0.199239 -0.22898 -0.0227514 -0.200398 -0.22689 -0.0199156 -0.198274 
-0.227059 -0.0160499 -0.200753 -0.225441 -0.00868426 -0.199637 -0.220479 -0.000519036 -0.198962 
-0.24332 0.00167855 -0.19987 -0.22582 0.0143029 -0.197987 -0.289003 0.0208799 -0.198652 
-0.221556 0.0184442 -0.198089 -0.227343 0.0293803 -0.198386 -0.268822 0.0627862 -0.199881 
-0.262268 -0.0644924 -0.196135 -0.239565 -0.0490847 -0.196792 -0.215627 -0.0187192 -0.195632 
-0.213373 -0.00810796 -0.195721 -0.217013 0.00205149 -0.197464 -0.214761 0.00673061 -0.196442 
-0.24368 0.0518788 -0.197014 -0.210035 -0.0113492 -0.194007 -0.208485 -0.00799207 -0.193686 
-0.208948 -0.00404446 -0.19299 -0.20468 0.00296778 -0.191169 -0.210473 0.00881007 -0.193452 
-0.204676 0.0131507 -0.191539 -0.205893 0.01727 -0.19058 -0.199565 -0.0290798 -0.186916 
-0.202676 -0.0262623 -0.188839 -0.200552 -0.00810899 -0.189297 -0.214908 -0.00341749 -0.189983 
-0.198757 -0.00127746 -0.189742 -0.208399 0.00648767 -0.189132 -0.19972 0.00574486 -0.190168 
-0.199353 0.00885706 -0.189798 -0.197135 0.00699448 -0.189016 -0.199997 0.0158581 -0.189344 
-0.19573 0.0174449 -0.187416 -0.204795 0.0218111 -0.188806 -0.204606 0.0267897 -0.188425 
-0.203054 0.0320733 -0.187725 -0.188185 -0.0127944 -0.18471 -0.189658 -0.00698794 -0.18579 
-0.191423 -0.0030302 -0.185567 -0.203763 0.00146136 -0.186597 -0.189826 0.0062081 -0.185989 
-0.195514 0.0118455 -0.186802 -0.190619 0.0212854 -0.18481 -0.223987 0.0584716 -0.184518 
-0.220899 -0.0635057 -0.181942 -0.192436 -0.0408971 -0.180882 -0.191739 -0.0300943 -0.181912 
-0.183563 -0.0191234 -0.182049 -0.198086 -0.00954127 -0.18295 -0.182478 -0.00460301 -0.182803 
-0.182879 -0.000617177 -0.181952 -0.175767 -0.0029225 -0.179894 -0.181891 0.00529902 -0.182691 
-0.179153 0.00646855 -0.181195 -0.183331 0.00804373 -0.183068 -0.180364 0.0099309 -0.181632 
-0.184175 0.0132933 -0.182947 -0.187649 0.0221407 -0.182284 -0.186586 0.0267285 -0.18201 
-0.190013 0.0320133 -0.182338 -0.209622 -0.0638955 -0.177427 -0.184628 -0.0328558 -0.17988 
-0.17696 -0.0262474 -0.177114 -0.179426 -0.0212644 -0.178779 -0.175813 -0.0178615 -0.178893 
-0.240374 -0.0171977 -0.179172 -0.190375 -0.0072826 -0.179696 -0.171185 -0.00760688 -0.176934 
-0.170092 -0.00394396 -0.177652 -0.167368 -0.00608616 -0.176486 -0.186742 0.00208057 -0.176728 
-0.174781 0.000589715 -0.178741 -0.171239 0.00207181 -0.178209 -0.167788 0.000618614 -0.176769 
-0.181656 0.00476892 -0.17928 -0.174352 0.00945274 -0.179133 -0.181208 0.0146909 -0.177206 
-0.180747 0.0316386 -0.178562 -0.193755 0.0508494 -0.177894 -0.185458 -0.0438345 -0.175849 
-0.167155 -0.0245768 -0.174378 -0.169272 -0.0172649 -0.176436 -0.164994 -0.0163936 -0.17365 
-0.16064 -0.0139713 -0.173153 -0.163143 -0.0105218 -0.173371 -0.167732 -0.0100895 -0.175333 
-0.164589 -0.00429019 -0.174123 -0.159808 -0.00443824 -0.173356 -0.167261 -0.000548399 -0.173477 
-0.162622 -0.000740765 -0.174534 -0.177945 0.00535564 -0.175573 -0.169158 0.00540483 -0.175531 
-0.163751 0.00510192 -0.173927 -0.161451 0.00850023 -0.173844 -0.165781 0.010711 -0.174318 
-0.171324 0.0188243 -0.175994 -0.16649 0.0212143 -0.173565 -0.171303 0.0265722 -0.175665 
-0.165143 0.0253363 -0.173308 -0.174241 0.0358465 -0.17386 -0.154831 -0.0123034 -0.170873 
-0.159164 -0.00963615 -0.172872 -0.153 -0.00927942 -0.170263 -0.161588 -0.00311455 -0.171347 
-0.156592 -0.0023728 -0.170928 -0.159336 0.00227775 -0.172521 -0.153988 0.00391811 -0.169771 
-0.152224 0.00980323 -0.169904 -0.163187 0.0129075 -0.170488 -0.15535 0.014278 -0.170801 
-0.174862 0.0276626 -0.171396 -0.16591 0.0301882 -0.171592 -0.162721 0.032993 -0.170696 
-0.165793 0.036188 -0.170269 -0.193181 -0.0699954 -0.16747 -0.178031 -0.0622233 -0.166387 
-0.159643 -0.0365122 -0.167681 -0.199507 -0.0116716 -0.168462 -0.151171 -0.0128071 -0.168209 
[...]
POINT_DATA 747
FIELD FieldData 7
id 1 747 int
14 33 3 19 47 28 5 60 4 
40 7 69 54 27 66 93 173 56 
45 73 37 89 61 52 36 8 94 
100 42 120 85 87 147 59 117 77 
139 133 91 55 15 63 39 41 176 
17 31 84 78 126 113 131 88 145 
58 71 125 207 43 46 50 74 65 
153 80 24 162 108 101 97 190 67 
76 62 98 112 86 111 48 164 102 
95 103 18 53 92 110 130 34 168 
26 196 137 75 174 141 140 121 193 
122 81 186 68 163 150 104 202 148 
177 82 118 114 219 178 171 187 179 
132 79 189 159 180 195 129 160 138 
107 151 352 294 265 70 123 198 204 
154 127 106 49 83 158 134 183 166 
142 241 144 156 119 225 136 116 215 
210 184 105 278 213 188 157 109 244 
211 167 115 169 170 199 229 135 250 
205 270 221 143 208 228 99 64 200 
72 272 181 124 252 209 212 317 234 
149 146 182 175 254 96 201 223 297 
152 284 161 277 296 324 191 290 251 
305 185 172 197 280 224 289 293 236 
295 245 206 261 128 332 276 298 233 
299 322 249 287 273 264 275 321 256 
253 222 281 220 316 339 363 242 155 
165 9 329 255 337 267 218 330 292 
266 314 262 226 348 368 230 288 263 
260 353 422 307 438 227 238 247 259 
303 304 235 354 192 343 217 306 308 
274 214 283 203 258 243 333 318 405 
315 446 232 349 248 194 310 347 311 
300 282 313 370 237 382 285 409 246 
240 388 331 390 320 407 269 377 327 
271 418 423 351 291 399 362 302 286 
231 279 90 367 344 335 341 216 372 
371 387 336 358 381 401 309 323 447 
395 340 386 366 239 389 414 411 396 
384 441 257 470 374 355 350 433 417 
424 403 338 398 326 268 378 301 325 
455 462 416 444 365 356 328 473 408 
429 430 346 360 454 439 466 400 319 
445 427 428 421 448 404 476 459 394 
425 376 475 375 483 456 334 440 380 
450 397 345 484 361 385 359 478 373 
406 364 488 392 357 492 312 504 420 
497 471 469 489 481 452 477 434 511 
458 522 437 431 490 451 393 413 419 
342 391 474 369 415 500 508 463 482 
519 453 491 496 379 468 383 460 485 
412 435 507 493 442 486 465 464 498 
562 487 495 505 449 517 501 494 530 
402 499 534 542 552 537 525 520 536 
529 467 480 564 510 577 544 503 506 
526 515 533 547 528 426 457 410 461 
527 502 512 543 509 514 589 574 585 
595 557 576 443 582 598 586 436 538 
531 539 565 540 610 549 600 535 575 
541 518 578 612 597 615 559 554 588 
567 555 550 568 603 596 479 546 521 
604 584 548 553 606 616 523 566 572 
545 580 614 516 569 561 524 558 587 
626 579 560 573 605 623 611 551 609 
570 591 620 592 532 583 621 608 513 
556 594 624 618 571 607 613 602 590 
601 593 581 563 625 599 432 617 472 
622 627 640 619 629 628 636 635 638 
639 637 632 634 631 633 630 650 652 
645 642 647 646 643 649 651 663 641 
653 644 648 666 654 658 655 665 664 
659 656 660 661 662 657 668 667 669 
676 677 671 678 672 670 675 673 685 
674 683 679 686 690 691 684 681 680 
682 688 687 696 689 697 694 693 702 
692 698 700 699 703 709 708 701 695 
715 705 716 710 706 704 711 713 712 
707 714 726 728 720 717 725 729 727 
718 721 719 722 724 723 741 734 737 
733 735 731 742 736 739 730 740 738 
732 748 745 750 746 744 749 747 751 
752 743 755 753 754 767 763 765 758 
768 761 757 756 766 764 762 759 760 

type 1 747 int
1 1 1 1 1 1 1 1 1 
1 1 1 1 1 1 1 1 1 
1 1 1 1 1 1 1 1 1 
1 1 1 1 1 1 1 1 1 
1 1 1 1 1 1 1 1 1 
1 1 1 1 1 1 1 1 1 
1 1 1 1 1 1 1 1 1 
1 1 1 1 1 1 1 1 1 
1 1 1 1 1 1 1 1 1 
1 1 1 1 1 1 1 1 1 
1 1 1 1 1 1 1 1 1 
1 1 1 1 1 1 1 1 1 
1 1 1 1 1 1 1 1 1 
1 1 1 1 1 1 1 1 1 
1 1 1 1 1 1 1 1 1 
1 1 1 1 1 1 1 1 1 
1 1 1 1 1 1 1 1 1 
1 1 1 1 1 1 1 1 1 
1 1 1 1 1 1 1 1 1 
1 1 1 1 1 1 1 1 1 
1 1 1 1 1 1 1 1 1 
1 1 1 1 1 1 1 1 1 
1 1 1 1 1 1 1 1 1 
1 1 1 1 1 1 1 1 1 
1 1 1 1 1 1 1 1 1 
1 1 1 1 1 1 1 1 1 
1 1 1 1 1 1 1 1 1 
1 1 1 1 1 1 1 1 1 
1 1 1 1 1 1 1 1 1 
1 1 1 1 1 1 1 1 1 
1 1 1 1 1 1 1 1 1 
1 1 1 1 1 1 1 1 1 
1 1 1 1 1 1 1 1 1 
1 1 1 1 1 1 1 1 1 
1 1 1 1 1 1 1 1 1 
1 1 1 1 1 1 1 1 1 
1 1 1 1 1 1 1 1 1 
1 1 1 1 1 1 1 1 1 
1 1 1 1 1 1 1 1 1 
1 1 1 1 1 1 1 1 1 
1 1 1 1 1 1 1 1 1 
1 1 1 1 1 1 1 1 1 
1 1 1 1 1 1 1 1 1 
1 1 1 1 1 1 1 1 1 
1 1 1 1 1 1 1 1 1 
1 1 1 1 1 1 1 1 1 
1 1 1 1 1 1 1 1 1 
1 1 1 1 1 1 1 1 1 
1 1 1 1 1 1 1 1 1 
1 1 1 1 1 1 1 1 1 
1 1 1 1 1 1 1 1 1 
1 1 1 1 1 1 1 1 1 
1 1 1 1 1 1 1 1 1 
1 1 1 1 1 1 1 1 1 
1 1 1 1 1 1 1 1 1 
1 1 1 1 1 1 1 1 1 
1 1 1 1 1 1 1 1 1 
1 1 1 1 1 1 1 1 1 
1 1 1 1 1 1 1 1 1 
1 1 1 1 1 1 1 1 1 
1 1 1 1 1 1 1 1 1 
1 1 1 1 1 1 1 1 1 
1 1 1 1 1 1 1 1 1 
1 1 1 1 1 1 1 1 1 
1 1 1 1 1 1 1 1 1 
1 1 1 1 1 1 1 1 1 
1 1 1 1 1 1 1 1 1 
1 1 1 1 1 1 1 1 1 
1 1 1 1 1 1 1 1 1 
1 1 1 1 1 1 1 1 1 
1 1 1 1 1 1 1 1 1 
1 1 1 1 1 1 1 1 1 
1 1 1 1 1 1 1 1 1 
1 1 1 1 1 1 1 1 1 
1 1 1 1 1 1 1 1 1 
1 1 1 1 1 1 1 1 1 
1 1 1 1 1 1 1 1 1 
1 1 1 1 1 1 1 1 1 
1 1 1 1 1 1 1 1 1 
1 1 1 1 1 1 1 1 1 
1 1 1 1 1 1 1 1 1 
1 1 1 1 1 1 1 1 1 
1 1 1 1 1 1 1 1 1 

i 3 747 int
0 0 0 0 0 0 0 0 0 
0 0 0 0 0 0 0 0 0 
0 0 0 0 0 0 0 0 0 
0 0 0 0 0 0 0 0 0 
0 0 0 0 0 0 0 0 0 
0 0 0 0 0 0 0 0 0 
0 0 0 0 0 0 0 0 0 
0 0 0 0 0 0 0 0 0 
0 0 0 0 0 0 0 0 0 
0 0 0 0 0 0 0 0 0 
0 0 0 0 0 0 0 0 0 
0 0 0 0 0 0 0 0 0 
0 0 0 0 0 0 0 0 0 
0 0 0 0 0 0 0 0 0 
0 0 0 0 0 0 0 0 0 
0 0 0 0 0 0 0 0 0 
0 0 0 0 0 0 0 0 0 
0 0 0 0 0 0 0 0 0 
0 0 0 0 0 0 0 0 0 
0 0 0 0 0 0 0 0 0 
0 0 0 0 0 0 0 0 0 
0 0 0 0 0 0 0 0 0 
0 0 0 0 0 0 0 0 0 
0 0 0 0 0 0 0 0 0 
0 0 0 0 0 0 0 0 0 
0 0 0 0 0 0 0 0 0 
0 0 0 0 0 0 0 0 0 
0 0 0 0 0 0 0 0 0 
0 0 0 0 0 0 0 0 0 
0 0 0 0 0 0 0 0 0 
0 0 0 0 0 0 0 0 0 
0 0 0 0 0 0 0 0 0 
0 0 0 0 0 0 0 0 0 
0 0 0 0 0 0 0 0 0 
0 0 0 0 0 0 0 0 0 
0 0 0 0 0 0 0 0 0 
0 0 0 0 0 0 0 0 0 
0 0 0 0 0 0 0 0 0 
0 0 0 0 0 0 0 0 0 
0 0 0 0 0 0 0 0 0 
0 0 0 0 0 0 0 0 0 
0 0 0 0 0 0 0 0 0 
0 0 0 0 0 0 0 0 0 
0 0 0 0 0 0 0 0 0 
0 0 0 0 0 0 0 0 0 
0 0 0 0 0 0 0 0 0 
0 0 0 0 0 0 0 0 0 
0 0 0 0 0 0 0 0 0 
0 0 0 0 0 0 0 0 0 
0 0 0 0 0 0 0 0 0 
0 0 0 0 0 0 0 0 0 
0 0 0 0 0 0 0 0 0 
0 0 0 0 0 0 0 0 0 
0 0 0 0 0 0 0 0 0 
0 0 0 0 0 0 0 0 0 
0 0 0 0 0 0 0 0 0 
0 0 0 0 0 0 0 0 0 
0 0 0 0 0 0 0 0 0 
0 0 0 0 0 0 0 0 0 
0 0 0 0 0 0 0 0 0 
0 0 0 0 0 0 0 0 0 
0 0 0 0 0 0 0 0 0 
0 0 0 0 0 0 0 0 0 
0 0 0 0 0 0 0 0 0 
0 0 0 0 0 0 0 0 0 
0 0 0 0 0 0 0 0 0 
0 0 0 0 0 0 0 0 0 
0 0 0 0 0 0 0 0 0 
0 0 0 0 0 0 0 0 0 
0 0 0 0 0 0 0 0 0 
0 0 0 0 0 0 0 0 0 
0 0 0 0 0 0 0 0 0 
0 0 0 0 0 0 0 0 0 
0 0 0 0 0 0 0 0 0 
0 0 0 0 0 0 0 0 0 
0 0 0 0 0 0 0 0 0 
0 0 0 0 0 0 0 0 0 
0 0 0 0 0 0 0 0 0 
0 0 0 0 0 0 0 0 0 
0 0 0 0 0 0 0 0 0 
0 0 0 0 0 0 0 0 0 
0 0 0 0 0 0 0 0 0 
0 0 0 0 0 0 0 0 0 
0 0 0 0 0 0 0 0 0 
0 0 0 0 0 0 0 0 0 
0 0 0 0 0 0 0 0 0 
0 0 0 0 0 0 0 0 0 
0 0 0 0 0 0 0 0 0 
0 0 0 0 0 0 0 0 0 
0 0 0 0 0 0 0 0 0 
0 0 0 0 0 0 0 0 0 
0 0 0 0 0 0 0 0 0 
0 0 0 0 0 0 0 0 0 
0 0 0 0 0 0 0 0 0 
0 0 0 0 0 0 0 0 0 
0 0 0 0 0 0 0 0 0 
0 0 0 0 0 0 0 0 0 
0 0 0 0 0 0 0 0 0 
0 0 0 0 0 0 0 0 0 
0 0 0 0 0 0 0 0 0 
0 0 0 0 0 0 0 0 0 
0 0 0 0 0 0 0 0 0 
0 0 0 0 0 0 0 0 0 
0 0 0 0 0 0 0 0 0 
0 0 0 0 0 0 0 0 0 
0 0 0 0 0 0 0 0 0 
0 0 0 0 0 0 0 0 0 
0 0 0 0 0 0 0 0 0 
0 0 0 0 0 0 0 0 0 
0 0 0 0 0 0 0 0 0 
0 0 0 0 0 0 0 0 0 
0 0 0 0 0 0 0 0 0 
0 0 0 0 0 0 0 0 0 
0 0 0 0 0 0 0 0 0 
0 0 0 0 0 0 0 0 0 
0 0 0 0 0 0 0 0 0 
0 0 0 0 0 0 0 0 0 
0 0 0 0 0 0 0 0 0 
0 0 0 0 0 0 0 0 0 
0 0 0 0 0 0 0 0 0 
0 0 0 0 0 0 0 0 0 
0 0 0 0 0 0 0 0 0 
0 0 0 0 0 0 0 0 0 
0 0 0 0 0 0 0 0 0 
0 0 0 0 0 0 0 0 0 
0 0 0 0 0 0 0 0 0 
0 0 0 0 0 0 0 0 0 
0 0 0 0 0 0 0 0 0 
0 0 0 0 0 0 0 0 0 
0 0 0 0 0 0 0 0 0 
0 0 0 0 0 0 0 0 0 
0 0 0 0 0 0 0 0 0 
0 0 0 0 0 0 0 0 0 
0 0 0 0 0 0 0 0 0 
0 0 0 0 0 0 0 0 0 
0 0 0 0 0 0 0 0 0 
0 0 0 0 0 0 0 0 0 
0 0 0 0 0 0 0 0 0 
0 0 0 0 0 0 0 0 0 
0 0 0 0 0 0 0 0 0 
0 0 0 0 0 0 0 0 0 
0 0 0 0 0 0 0 0 0 
0 0 0 0 0 0 0 0 0 
0 0 0 0 0 0 0 0 0 
0 0 0 0 0 0 0 0 0 
0 0 0 0 0 0 0 0 0 
0 0 0 0 0 0 0 0 0 
0 0 0 0 0 0 0 0 0 
0 0 0 0 0 0 0 0 0 
0 0 0 0 0 0 0 0 0 
0 0 0 0 0 0 0 0 0 
0 0 0 0 0 0 0 0 0 
0 0 0 0 0 0 0 0 0 
0 0 0 0 0 0 0 0 0 
0 0 0 0 0 0 0 0 0 
0 0 0 0 0 0 0 0 0 
0 0 0 0 0 0 0 0 0 
0 0 0 0 0 0 0 0 0 
0 0 0 0 0 0 0 0 0 
0 0 0 0 0 0 0 0 0 
0 0 0 0 0 0 0 0 0 
0 0 0 0 0 0 0 0 0 
0 0 0 0 0 0 0 0 0 
0 0 0 0 0 0 0 0 0 
0 0 0 0 0 0 0 0 0 
0 0 0 0 0 0 0 0 0 
0 0 0 0 0 0 0 0 0 
0 0 0 0 0 0 0 0 0 
0 0 0 0 0 0 0 0 0 
0 0 0 0 0 0 0 0 0 
0 0 0 0 0 0 0 0 0 
0 0 0 0 0 0 0 0 0 
0 0 0 0 0 0 0 0 0 
0 0 0 0 0 0 0 0 0 
0 0 0 0 0 0 0 0 0 
0 0 0 0 0 0 0 0 0 
0 0 0 0 0 0 0 0 0 
0 0 0 0 0 0 0 0 0 
0 0 0 0 0 0 0 0 0 
0 0 0 0 0 0 0 0 0 
0 0 0 0 0 0 0 0 0 
0 0 0 0 0 0 0 0 0 
0 0 0 0 0 0 0 0 0 
0 0 0 0 0 0 0 0 0 
0 0 0 0 0 0 0 0 0 
0 0 0 0 0 0 0 0 0 
0 0 0 0 0 0 0 0 0 
0 0 0 0 0 0 0 0 0 
0 0 0 0 0 0 0 0 0 
0 0 0 0 0 0 0 0 0 
0 0 0 0 0 0 0 0 0 
0 0 0 0 0 0 0 0 0 
0 0 0 0 0 0 0 0 0 
0 0 0 0 0 0 0 0 0 
0 0 0 0 0 0 0 0 0 
0 0 0 0 0 0 0 0 0 
0 0 0 0 0 0 0 0 0 
0 0 0 0 0 0 0 0 0 
0 0 0 0 0 0 0 0 0 
0 0 0 0 0 0 0 0 0 
0 0 0 0 0 0 0 0 0 
0 0 0 0 0 0 0 0 0 
0 0 0 0 0 0 0 0 0 
0 0 0 0 0 0 0 0 0 
0 0 0 0 0 0 0 0 0 
0 0 0 0 0 0 0 0 0 
0 0 0 0 0 0 0 0 0 
0 0 0 0 0 0 0 0 0 
0 0 0 0 0 0 0 0 0 
0 0 0 0 0 0 0 0 0 
0 0 0 0 0 0 0 0 0 
0 0 0 0 0 0 0 0 0 
0 0 0 0 0 0 0 0 0 
0 0 0 0 0 0 0 0 0 
0 0 0 0 0 0 0 0 0 
0 0 0 0 0 0 0 0 0 
0 0 0 0 0 0 0 0 0 
0 0 0 0 0 0 0 0 0 
0 0 0 0 0 0 0 0 0 
0 0 0 0 0 0 0 0 0 
0 0 0 0 0 0 0 0 0 
0 0 0 0 0 0 0 0 0 
0 0 0 0 0 0 0 0 0 
0 0 0 0 0 0 0 0 0 
0 0 0 0 0 0 0 0 0 
0 0 0 0 0 0 0 0 0 
0 0 0 0 0 0 0 0 0 
0 0 0 0 0 0 0 0 0 
0 0 0 0 0 0 0 0 0 
0 0 0 0 0 0 0 0 0 
0 0 0 0 0 0 0 0 0 
0 0 0 0 0 0 0 0 0 
0 0 0 0 0 0 0 0 0 
0 0 0 0 0 0 0 0 0 
0 0 0 0 0 0 0 0 0 
0 0 0 0 0 0 0 0 0 
0 0 0 0 0 0 0 0 0 
0 0 0 0 0 0 0 0 0 
0 0 0 0 0 0 0 0 0 
0 0 0 0 0 0 0 0 0 
0 0 0 0 0 0 0 0 0 
0 0 0 0 0 0 0 0 0 
0 0 0 0 0 0 0 0 0 
0 0 0 0 0 0 0 0 0 
0 0 0 0 0 0 0 0 0 
0 0 0 0 0 0 0 0 0 
0 0 0 0 0 0 0 0 0 
0 0 0 0 0 0 0 0 0 
0 0 0 0 0 0 0 0 0 

v 3 747 double
-1.14598 0.0397467 -1.76762 -1.24054 0.158113 -1.80582 -1.25453 0.15366 -1.73472 
-1.15852 -0.00366611 -1.65957 -1.26391 -0.022145 -1.66489 -1.25545 0.0607519 -1.64244 
-1.29111 0.108538 -1.61994 -1.10742 -0.415567 -1.77688 -1.1754 0.0941172 -1.5877 
-1.31252 0.0560466 -1.58403 -1.03567 0.00503888 -1.51188 -1.16904 0.0606071 -1.50655 
-1.27288 0.103865 -1.52991 -1.20862 -0.0337326 -1.49234 -1.29017 0.0193838 -1.49005 
-1.29371 0.114281 -1.49435 -1.39897 0.113604 -1.49045 -1.127 0.00706554 -1.3948 
-1.17719 0.0576446 -1.42027 -1.11982 0.054048 -1.40627 -1.25129 0.122772 -1.37038 
-1.18765 0.0540333 -1.36508 -1.19603 0.0530832 -1.36271 -1.18543 0.0175571 -1.30948 
-1.17839 0.0211692 -1.31214 -1.16776 0.0724586 -1.31001 -1.26834 -0.0207936 -1.3398 
-1.24546 0.0513306 -1.23102 -1.18361 -0.0528103 -1.25351 -1.04352 -0.042083 -1.25802 
-1.19366 0.102042 -1.22871 -1.23072 0.093899 -1.22196 -1.2655 -0.225398 -1.291 
-1.10253 -0.0562905 -1.161 -1.22027 -0.376045 -1.22515 -1.10183 0.0117228 -1.1017 
-1.23894 -0.418897 -1.3987 -1.15886 -0.0318438 -1.06915 -0.998737 -0.0314326 -1.06072 
-1.13363 -0.0393364 -1.04382 -1.10511 -0.0595757 -1.03336 -1.2142 0.0627925 -1.11946 
-1.09743 -0.0519123 -0.999321 -1.12174 0.0429117 -0.916719 -1.05582 -0.0413377 -0.967477 
-1.12424 -0.0138933 -0.975631 -1.13017 0.00827489 -0.929637 -1.12779 0.0325185 -0.955056 
-1.15909 0.0515286 -0.888385 -1.24372 -0.158218 -0.906996 -1.14839 0.0644095 -0.890065 
-1.21845 -0.263145 -0.83883 -1.18335 -0.261397 -0.891423 -1.22725 -0.0591901 -0.913837 
-1.12047 -0.00492973 -0.725861 -1.04254 0.00475555 -0.82964 -1.12681 -0.130191 -0.798632 
-1.32046 -0.122847 -0.950135 -1.12561 0.11259 -0.773681 -1.14522 0.0449144 -0.773045 
-1.11458 0.079295 -0.714881 -1.11329 0.0722672 -0.771426 -1.12249 -0.100296 -0.76853 
-1.17167 -0.121792 -0.812489 -1.10418 0.0599509 -0.743584 -1.1603 0.0539515 -0.737198 
-1.10072 0.0408203 -0.681329 -1.23057 -0.0457108 -0.753676 -1.11456 0.174963 -0.665853 
-1.12507 0.126267 -0.751263 -1.20407 -0.0313051 -0.683555 -1.0982 0.0331919 -0.681819 
-1.02291 0.06165 -0.642065 -1.00542 0.152193 -0.656445 -1.00833 0.123384 -0.587393 
-1.09426 0.106803 -0.588458 -1.05887 -0.0498592 -0.60762 -1.13646 -0.0386955 -0.637557 
-1.13289 -0.046527 -0.593784 -1.06593 -0.00967344 -0.591876 -1.11593 -0.0490146 -0.657112 
-1.13553 0.086544 -0.577579 -1.15359 0.0736842 -0.598821 -1.0907 -0.0150395 -0.746493 
-1.03658 0.023447 -0.623293 -0.987541 0.0691962 -0.573267 -0.969303 0.0176072 -0.452069 
-1.10137 0.0724678 -0.551299 -1.09209 -0.0619901 -0.555241 -1.15474 0.0173109 -0.566155 
-1.09378 0.0507524 -0.407606 -1.10567 0.0582141 -0.483541 -1.07999 0.0605004 -0.471976 
-1.12141 0.131497 -0.48489 -1.13766 0.219936 -0.625011 -1.21327 0.146172 -0.550742 
-1.22795 0.0814542 -0.557138 -1.0796 -0.129628 -0.463188 -1.14329 -0.15162 -0.490816 
-1.16662 -0.158617 -0.500983 -1.19728 -0.387707 -0.584098 -0.993764 -0.0251976 -0.420314 
-1.06617 0.0204553 -0.44874 -1.08211 -0.113152 -0.473477 -1.04475 0.0167357 -0.440707 
-0.992788 0.097364 -0.422186 -0.892407 0.0894714 -0.379422 -0.946696 0.0127631 -0.398184 
-1.00413 -0.00537684 -0.424427 -1.01439 -0.00550919 -0.428688 -1.00262 0.00901439 -0.456552 
-1.03869 -0.0162789 -0.443759 -1.10849 -0.110967 -0.484681 -1.01542 0.0785148 -0.439157 
-0.936567 0.131096 -0.460124 -0.95083 0.00711169 -0.389189 -0.970787 0.0303653 -0.41099 
-1.0403 -0.00538177 -0.424969 -1.02648 0.0626868 -0.451167 -1.09551 0.0833273 -0.477602 
-0.970608 0.0445975 -0.486196 -0.913383 0.0400729 -0.382423 -0.854404 0.11925 -0.352401 
-0.931663 0.0398476 -0.389936 -0.859215 0.138483 -0.363553 -0.997394 -0.0970116 -0.434394 
-0.985595 -0.110105 -0.42355 -1.04405 -0.15072 -0.453517 -1.32811 0.0484367 -0.53582 
-1.09481 -0.087535 -0.168528 -1.22641 0.11817 -0.53428 -1.02797 0.157832 -0.415632 
-1.12458 0.05617 -0.479396 -0.985942 0.0541933 -0.418059 -0.887927 0.0284444 -0.374894 
-0.857841 -0.10876 -0.368058 -0.908387 -0.105899 -0.380952 -0.950549 -0.0829398 -0.397084 
-0.976208 -0.122213 -0.439588 -0.957607 -0.0336858 -0.415855 -1.05267 -0.190309 -0.489905 
-1.08646 0.0683622 -0.466881 -1.09982 0.0172464 -0.462257 -0.995114 0.029737 -0.423098 
-0.929068 -0.00408841 -0.4176 -0.71517 -0.0608954 -0.296789 -0.920971 -0.0492152 -0.383063 
-0.920908 -0.0435666 -0.378575 -1.0577 -0.190154 -0.462482 -1.1258 0.0937406 -0.493667 
-0.991994 0.0150978 -0.416578 -1.00081 0.0516339 -0.427054 -0.72697 -0.00920923 -0.313401 
-1.03543 -0.19713 -0.233109 -0.844874 -0.0122647 -0.359832 -1.02418 -0.172247 -0.370724 
-0.911292 -0.0537825 -0.391392 -1.09774 -0.199227 -0.518008 -1.07754 0.449535 -0.656169 
-1.08858 0.0512768 -0.508262 -0.868793 0.132394 -0.33665 -0.889467 0.160847 -0.393719 
-0.967921 0.0668739 -0.406349 -0.748683 -0.11876 -0.323446 -0.963493 -0.0202859 -0.519917 
-1.00597 -0.0248163 -0.426191 -1.00164 0.00546139 -0.422582 -0.998399 0.0899463 -0.408418 
-0.984801 -0.0158208 -0.431494 -0.849363 0.172367 -0.327661 -0.958674 0.298547 -0.462653 
-0.999898 -0.0523468 -0.397446 -0.890896 -0.0716439 -0.375149 -0.937562 -0.014923 -0.384307 
-0.864469 -0.0325512 -0.363086 -0.944478 -0.168801 -0.417727 -1.05167 -0.0410178 -0.449543 
-0.918441 -0.113838 -0.398434 -0.852947 -0.0897462 -0.352606 -0.878748 0.0737072 -0.339195 
-1.06044 -0.227935 -0.494258 -0.90475 -0.0125856 -0.394381 -0.831853 0.0596418 -0.368476 
-0.959219 0.00123799 -0.399704 -0.771173 0.0194243 -0.329407 -0.95241 -0.0177062 -0.397469 
-0.862285 0.0610176 -0.455583 -0.831374 0.0861406 -0.342109 -1.13717 0.0189998 -0.456868 
-0.710979 0.019051 -0.29744 -0.917983 -0.0344385 -0.37824 -0.985558 -0.0285654 -0.405498 
-0.878527 0.0384184 -0.310634 -0.912642 -0.0273954 -0.391883 -0.912195 -0.026052 -0.396393 
-0.978211 0.11386 -0.464485 -1.04921 -0.110152 -0.40098 -1.00824 -0.0467747 -0.445753 
-0.887561 0.00606528 -0.380615 -0.872399 0.0367469 -0.373932 -0.940594 0.00831209 -0.390432 
-1.1851 -0.0999163 -0.418209 -0.838618 0.00910601 -0.420549 -1.38782 0.160646 -0.589857 
-1.0176 0.0254316 -0.432071 -0.972484 0.0998051 -0.386275 -1.11357 -0.132583 -0.492771 
-1.12587 0.154288 -0.4818 -0.986641 0.127573 -0.449145 -0.903479 0.0899793 -0.396104 
-0.855152 -0.00318073 -0.35427 -0.899547 0.0341806 -0.385039 -0.78261 0.107694 -0.321535 
-1.08629 -0.172062 -0.523971 -0.953901 -0.0109957 -0.416836 -0.798253 0.0249833 -0.34669 
-0.83887 0.0210041 -0.356425 -0.636828 -0.025476 -0.264674 -0.72145 0.0287606 -0.305213 
-0.677449 -0.0182922 -0.311058 -0.750599 0.0398754 -0.314791 -0.766708 -0.159102 -0.274705 
-0.777592 -0.0337523 -0.308397 -0.893149 0.0497471 -0.374843 -0.944784 -0.0979989 -0.46723 
-0.777595 -0.152536 -0.3336 -0.803483 -0.0860776 -0.5232 -0.644709 0.0306659 -0.276075 
-0.669991 0.0393584 -0.257818 -0.737393 -0.080939 -0.286484 -0.913293 -0.0959632 -0.387649 
-0.882109 -0.104231 -0.375239 -0.883806 0.0646936 -0.290709 -0.907179 0.0714024 -0.348847 
-0.842704 0.0349021 -0.335287 -0.918207 0.124176 -0.393885 -0.779732 -0.0311081 -0.377735 
-0.821573 -0.00100661 -0.336365 -0.737646 -0.179592 -0.202881 -0.62944 -0.136411 -0.282159 
-0.76451 -0.0508794 -0.33189 -0.880249 0.0321437 -0.397367 -0.738486 -0.247485 -0.429363 
-0.939749 0.307459 -0.556139 -0.820536 0.673156 -0.574341 -0.927528 -0.127319 -0.362424 
-0.89919 0.00869906 -0.372217 -1.02646 -0.157965 -0.49855 -0.731094 -7.09473e-05 -0.313549 
-0.734724 0.00899879 -0.307733 -0.495731 -0.0673696 -0.252961 -0.704458 -0.0265955 -0.301628 
-0.657354 -0.0218431 -0.22425 -0.714103 -0.0242206 -0.299325 -0.86327 -0.055006 -0.371808 
-0.791599 0.00452604 -0.329869 -0.985662 -0.0148074 -0.410249 -0.951619 -0.00510905 -0.401626 
-0.781086 -0.090827 -0.340661 -0.938694 0.109881 -0.41168 -0.800487 0.193049 -0.368172 
-0.687353 0.115911 -0.297424 -1.00541 0.0274731 -0.576856 -0.806705 -0.0335552 -0.314011 
-1.02782 -0.0141591 -0.488607 -1.28841 -0.0826357 -0.55426 -0.609662 -0.019306 -0.345068 
-0.594353 -0.0248667 -0.244303 -0.648667 -0.0228188 -0.287456 -0.92174 0.070472 -0.380988 
-0.758869 -0.0483712 -0.544405 -0.745595 -0.0663656 -0.310015 -0.58924 -0.0107184 -0.238373 
-1.07675 -0.052123 -0.330569 -0.725101 0.0430916 -0.304497 -0.958587 0.225753 -0.348228 
-0.940369 0.0349013 -0.380925 -0.981296 0.0133395 -0.386258 -0.853355 0.07736 -0.365565 
-0.60563 0.0148102 -0.244046 -0.78801 0.0334165 -0.314287 -0.72094 -0.0273457 -0.303873 
-0.760419 0.0448805 -0.318952 -0.575417 0.0129397 -0.239651 -0.576928 -0.00191482 -0.244524 
-0.682636 0.0719038 -0.288159 -0.658276 0.0191642 -0.277794 -0.771125 -0.113814 -0.165957 
-0.688421 0.0955925 -0.293432 -0.920678 -0.0211358 -0.30298 -0.794836 0.0487368 -0.314578 
-0.768298 -0.0586485 -0.49576 -0.720652 -0.0529185 -0.300099 -0.739164 -0.00665751 -0.313135 
-0.738976 0.0175793 -0.306928 -0.739626 -0.0633916 -0.359464 -0.697709 -0.0682146 -0.307246 
-0.704611 -0.0793932 -0.312479 -0.839252 0.0231325 -0.339117 -0.84591 0.0160299 -0.361561 
-0.773198 0.0826193 -0.324707 -0.754786 -0.0195135 -0.319055 -0.796269 -0.159559 -0.305934 
-0.781853 0.0223119 -0.321435 -0.701598 0.0334915 -0.271213 -0.796972 0.03204 -0.296609 
-0.682358 0.125944 -0.264582 -0.810287 0.0780654 -0.261121 -0.845977 -0.0402461 -0.371828 
-0.885587 0.068654 -0.549947 -0.775517 0.0612763 -0.310358 -0.584011 -0.0488435 -0.267002 
-0.825153 -0.122736 -0.384125 -1.03996 -0.0366652 -0.359549 -0.909403 -0.0225222 -0.354379 
-0.663816 0.102277 -0.273256 -1.28136 -0.273859 -0.416072 -0.976589 0.0628803 -0.42358 
-0.737357 0.0501783 -0.314823 -0.752253 0.156536 -0.301996 -1.08196 0.0118745 -0.716806 
-0.745732 -0.0313785 -0.324774 -0.519649 0.140415 -0.155687 -0.717225 0.0115436 -0.313396 
-0.833161 -0.0484033 -0.345949 -0.774359 -0.210137 -0.386813 -0.762993 -0.200915 -0.379217 
-0.885653 0.141697 -0.283273 -0.709365 -0.00920481 -0.288262 -0.726098 -0.176769 -0.244445 
-0.463044 0.137288 -0.226768 -0.666962 0.0549078 -0.283157 -0.925838 0.105356 -0.422847 
-0.758939 -0.153755 -0.299791 -0.768121 0.0439684 -0.279682 -0.766053 0.135592 -0.303012 
-0.679668 -0.0761247 -0.286934 -0.958297 0.0730711 -0.206022 -0.758458 -0.0684864 -0.314084 
-0.747446 -0.0179176 -0.325215 -0.727259 -0.0233892 -0.315375 -0.835026 -0.213938 -0.550756 
-1.16253 0.011608 -0.464393 -0.742122 -0.0876346 -0.290075 -1.00847 0.0345312 -0.394207 
-0.981918 -0.0530868 -0.359143 -0.788091 -0.0135062 -0.292059 -0.688619 -0.0564224 -0.302259 
-0.710367 -0.0435168 -0.263127 -0.757158 -0.0328411 -0.324932 -0.702434 -0.0900968 -0.304323 
-0.795645 -0.0267442 -0.337673 -0.773608 -0.0798485 -0.198614 -0.820925 0.033475 -0.346362 