# vtk DataFile Version 4.0
Generated by LIGGGHTS
ASCII
DATASET POLYDATA
POINTS 601 float
-0.496087 0.0387657 -0.353512 -0.438582 -0.0146016 -0.322058 -0.455258 0.0452929 -0.318515 
-0.418818 -0.0032656 -0.302886 -0.385977 -0.00997906 -0.277925 -0.377185 -0.00693021 -0.272741 
-0.379058 0.00590462 -0.275149 -0.377225 -0.0159346 -0.269966 -0.379041 -0.0119334 -0.272098 
-0.374943 -0.00969378 -0.269222 -0.359227 -0.00107539 -0.261184 -0.360365 0.00973148 -0.260654 
-0.351426 0.015794 -0.255287 -0.388132 0.0532216 -0.257161 -0.34832 -0.023528 -0.251736 
-0.339624 0.00592872 -0.249962 -0.345908 0.0077038 -0.252077 -0.341073 0.0132707 -0.250046 
-0.340661 0.0182434 -0.247684 -0.343677 0.0325181 -0.246104 -0.343999 -0.0404616 -0.240999 
-0.323081 -0.0118772 -0.241588 -0.324636 0.00999853 -0.24133 -0.310942 -0.00233084 -0.237171 
-0.313524 0.0115669 -0.237619 -0.308739 -0.00872044 -0.234848 -0.308573 0.000909888 -0.235119 
-0.30507 0.00723047 -0.23433 -0.329434 -0.0476911 -0.232194 -0.315171 -0.0314522 -0.232851 
-0.30343 -0.0102872 -0.232443 -0.295777 -0.00646715 -0.230629 -0.293193 0.000968125 -0.229717 
-0.298363 -0.00963664 -0.229965 -0.294796 -0.00279935 -0.229259 -0.291627 -0.00546336 -0.228726 
-0.29305 0.00663021 -0.228213 -0.358618 -0.0629039 -0.229488 -0.292687 -0.0241523 -0.225714 
-0.280313 -0.00960054 -0.223883 -0.283315 -0.000597816 -0.225572 -0.282539 0.00434573 -0.22501 
-0.278095 0.00527078 -0.223093 -0.272139 -0.0141538 -0.219958 -0.275302 -0.00789464 -0.221945 
-0.277244 -0.000403859 -0.221931 -0.273806 0.00708681 -0.22014 -0.268447 0.00646219 -0.218985 
-0.285365 0.0306766 -0.221922 -0.27275 -0.0273067 -0.217828 -0.268714 -0.0213553 -0.217395 
-0.266955 -0.0145885 -0.217717 -0.265111 -0.00216604 -0.217849 -0.269172 0.0103528 -0.218025 
-0.269402 0.0182145 -0.217045 -0.256274 -0.00650817 -0.213943 -0.253041 -0.00490922 -0.211572 
-0.257112 -0.00115504 -0.213449 -0.249862 0.0034699 -0.211282 -0.253457 0.00870033 -0.211502 
-0.256141 0.0130446 -0.212267 -0.310388 0.059554 -0.216774 -0.240422 0.00205612 -0.207343 
-0.243494 0.00857417 -0.208403 -0.248516 0.0109511 -0.209331 -0.247501 0.015197 -0.208898 
-0.240964 -0.0285553 -0.204374 -0.238479 -0.0122604 -0.204858 -0.233692 -0.00911661 -0.204127 
-0.263837 0.0460617 -0.207664 -0.235388 -0.0254099 -0.201448 -0.230385 -0.0187748 -0.201839 
-0.231307 -0.0135178 -0.202797 -0.230843 -0.0105218 -0.202835 -0.228497 -0.00604506 -0.20114 
-0.231693 0.0101931 -0.203415 -0.228705 0.0088429 -0.201132 -0.253427 0.0459693 -0.202437 
-0.240533 -0.0389502 -0.20108 -0.231375 -0.0334172 -0.199196 -0.226159 -0.0309145 -0.197554 
-0.229725 -0.0230241 -0.199611 -0.225862 -0.0167708 -0.200175 -0.220285 -0.0126682 -0.198164 
-0.225788 -0.00997862 -0.199668 -0.220898 -0.00979404 -0.19869 -0.225054 -0.00270007 -0.199843 
-0.222242 0.00248991 -0.199636 -0.217783 0.00368646 -0.197756 -0.224581 0.00704272 -0.200519 
-0.221783 0.0163709 -0.19844 -0.230733 0.0253209 -0.199686 -0.22527 0.024118 -0.198787 
-0.224796 0.0196347 -0.199286 -0.223258 -0.0383802 -0.194223 -0.219505 -0.0261693 -0.195788 
-0.216652 -0.00955358 -0.196948 -0.212862 -0.00865489 -0.194374 -0.211053 -0.0038379 -0.194979 
-0.245816 0.00128172 -0.199201 -0.20973 0.00177839 -0.194357 -0.211458 0.00740484 -0.195039 
-0.210658 0.0114957 -0.194331 -0.212835 0.0190055 -0.194368 -0.228743 0.0351717 -0.197555 
-0.213672 -0.0279904 -0.193011 -0.209152 -0.0248109 -0.190736 -0.214589 -0.0236666 -0.193228 
-0.205049 -0.00697372 -0.191277 -0.206 -0.00307349 -0.19284 -0.20252 0.00221495 -0.190953 
-0.209528 0.0238114 -0.192234 -0.19793 -0.0315936 -0.185665 -0.214903 -0.0177877 -0.190342 
-0.199818 -0.0145444 -0.188315 -0.192265 -0.0133807 -0.186325 -0.195098 0.00733482 -0.188139 
-0.212477 -0.048555 -0.186228 -0.197125 -0.0227523 -0.186194 -0.187054 -0.0151676 -0.183962 
-0.18718 -0.0107439 -0.183452 -0.195097 -0.0105309 -0.187593 -0.187283 -0.00645238 -0.184836 
-0.187536 -0.00177627 -0.185015 -0.190419 0.0073222 -0.185049 -0.184174 0.00964354 -0.183277 
-0.18659 0.0168762 -0.182518 -0.188325 0.0201735 -0.18406 -0.193171 0.021715 -0.184678 
-0.186206 0.0227117 -0.182661 -0.192692 0.0257455 -0.184739 -0.187686 0.025855 -0.182647 
-0.259589 0.0758696 -0.185204 -0.202502 -0.0488141 -0.182147 -0.193044 -0.038385 -0.181995 
-0.189238 -0.0275182 -0.181918 -0.185152 -0.0213888 -0.182436 -0.184092 -0.0143229 -0.181414 
-0.182882 -0.00780279 -0.181842 -0.177419 -0.00918846 -0.180595 -0.178699 -0.00403908 -0.18122 
-0.180927 -0.000632305 -0.181134 -0.177963 0.00512625 -0.181036 -0.182432 0.0118479 -0.182266 
-0.179603 0.0105142 -0.181275 -0.182233 0.015757 -0.180273 -0.189388 0.02351 -0.181796 
-0.183987 0.0211484 -0.179721 -0.171565 -0.013137 -0.176714 -0.171156 -0.00700083 -0.178047 
-0.175263 -0.00510737 -0.178687 -0.172072 -3.63187e-05 -0.178522 -0.171173 0.0127222 -0.176432 
-0.178493 0.0143582 -0.179758 -0.171042 0.0189646 -0.176949 -0.179271 0.0245746 -0.179364 
-0.184001 0.0281955 -0.17913 -0.181041 0.0345717 -0.178102 -0.172157 -0.0304563 -0.175385 
-0.17821 -0.0167031 -0.173922 -0.160849 -0.0132969 -0.173291 -0.163335 0.003452 -0.174854 
-0.163904 0.00935665 -0.174776 -0.164835 0.0136819 -0.173705 -0.172385 0.0318086 -0.173983 
-0.197097 0.055514 -0.175873 -0.154536 -0.0233305 -0.16941 -0.160071 -0.0182665 -0.172401 
-0.154928 -0.0199979 -0.170018 -0.157946 -0.0149464 -0.170833 -0.153905 -0.0114909 -0.170521 
-0.158138 -0.00855579 -0.171414 -0.149953 -0.00949277 -0.168969 -0.15483 0.0011423 -0.170161 
-0.15331 0.00661277 -0.169473 -0.153521 0.0126792 -0.169064 -0.157992 0.0159746 -0.170682 
-0.169812 0.0424088 -0.169915 -0.151363 -0.0315135 -0.16651 -0.148444 -0.021082 -0.166119 
-0.147976 -0.0173286 -0.167471 -0.149554 -0.0141625 -0.16848 -0.146505 -0.010442 -0.1664 
-0.144655 -0.00536605 -0.16587 -0.153484 -0.00189418 -0.165513 -0.141864 0.00941333 -0.165536 
-0.144149 0.0120774 -0.166346 -0.148574 0.015672 -0.166661 -0.144174 0.0154898 -0.165958 
-0.150394 0.0334041 -0.165683 -0.157938 0.0419146 -0.166338 -0.141023 -0.00895423 -0.163531 
-0.131068 -0.0104115 -0.160974 -0.138225 -0.00345767 -0.164288 -0.138697 0.000433757 -0.163448 
-0.135453 0.00418328 -0.163051 -0.135748 0.00801324 -0.163028 -0.136573 0.0111771 -0.163238 
-0.133826 0.0119347 -0.162008 -0.134153 0.015697 -0.161766 -0.141565 0.0284731 -0.162949 
-0.146065 0.0319104 -0.164137 -0.150716 0.0391925 -0.164232 -0.146876 -0.0506751 -0.159031 
-0.134859 -0.018976 -0.160677 -0.124331 -0.0138841 -0.157817 -0.128898 -0.00459662 -0.160329 
-0.125127 -0.00148211 -0.158808 -0.146117 0.00563644 -0.157422 -0.131273 0.000383949 -0.160354 
-0.127382 0.00207289 -0.15979 -0.133571 0.00578213 -0.159902 -0.128967 0.00753469 -0.159034 
-0.123627 0.00729805 -0.157915 -0.134471 0.0204386 -0.160145 -0.147047 0.0493814 -0.159595 
-0.134167 -0.0464756 -0.155239 -0.134392 -0.0417764 -0.156828 -0.123198 -0.0240317 -0.156132 
-0.153605 -0.0107085 -0.159192 -0.121672 -0.0129708 -0.15657 -0.119287 -0.0108961 -0.155936 
-0.144975 -0.0113808 -0.154876 -0.119857 -0.0045618 -0.156198 -0.122471 0.000903419 -0.156595 
-0.115753 0.0111433 -0.154403 -0.130436 0.0235018 -0.158077 -0.146037 0.0550352 -0.156997 
-0.15314 -0.0674401 -0.153866 -0.137126 -0.0594439 -0.151472 -0.120125 -0.0209669 -0.155083 
-0.115483 -0.0112785 -0.15322 -0.110325 -0.0113263 -0.150547 -0.135841 -0.00666646 -0.1547 
-0.114857 -0.004622 -0.153358 -0.10677 -0.00355148 -0.151033 -0.111893 -7.46863e-05 -0.152111 
-0.112018 0.00474835 -0.152935 -0.110764 0.00789996 -0.152511 -0.108142 0.0073754 -0.151114 
-0.108362 0.0129499 -0.151151 -0.107985 0.0161057 -0.150758 -0.112558 0.0342527 -0.149748 
-0.158392 -0.0788122 -0.148658 -0.107684 -0.0380793 -0.146933 -0.11167 -0.0319721 -0.148694 
-0.105395 -0.0135542 -0.148794 -0.102666 -0.0171384 -0.148286 -0.116717 -0.0126321 -0.148536 
-0.105157 -0.00887958 -0.150078 -0.0980877 -0.00950972 -0.147073 -0.104519 -0.00588772 -0.149589 
-0.100901 -0.00416386 -0.148564 -0.126279 0.00436293 -0.153112 -0.121888 0.00739121 -0.150764 
-0.113036 0.00767234 -0.150145 -0.105665 0.00433595 -0.147819 -0.0978776 0.00792314 -0.147134 
-0.104773 0.0115085 -0.149758 -0.100195 0.0115979 -0.147821 -0.105022 0.0157264 -0.147853 
-0.1077 0.0224946 -0.14965 -0.112897 0.0232466 -0.150136 -0.106703 0.0259912 -0.147174 
-0.124618 0.0548515 -0.148583 -0.146044 0.0695549 -0.148729 -0.0983495 -0.0343862 -0.141552 
-0.0946004 -0.0226132 -0.144332 -0.0932619 -0.0191435 -0.14422 -0.0924423 -0.0154908 -0.144353 
-0.0945569 -0.00988491 -0.144459 -0.105684 -0.00346544 -0.14707 -0.0959354 -0.00483229 -0.145364 
-0.0904641 0.00163024 -0.143044 -0.0956825 0.00481462 -0.145711 -0.0937352 0.00769365 -0.143316 
-0.0890172 0.00787325 -0.143434 -0.0934258 0.011318 -0.144992 -0.149365 0.0206904 -0.148184 
-0.091761 0.0223763 -0.143201 -0.102712 0.0276256 -0.146949 -0.109394 -0.0561102 -0.141887 
-0.118535 -0.0152652 -0.144543 -0.0877891 -0.016022 -0.142321 -0.0939162 -0.0126482 -0.141301 
-0.0879015 -0.0102388 -0.141661 -0.0803609 -0.00693109 -0.139747 -0.0901968 -0.00436886 -0.142821 
-0.131346 0.000502967 -0.147867 -0.0999414 -0.00134687 -0.147703 -0.123034 -0.00059229 -0.148662 
-0.0995569 0.000510477 -0.143104 -0.0862135 0.00261168 -0.142332 -0.112498 0.00495747 -0.138515 
-0.0882538 0.0189856 -0.141674 -0.0899116 0.0267885 -0.141298 -0.0905667 0.0350358 -0.140465 
-0.0818945 -0.0317978 -0.137496 -0.102526 -0.0135644 -0.138026 -0.0757294 -0.0144704 -0.136281 
-0.0762796 -0.0118645 -0.137775 -0.0728582 -0.0119515 -0.136323 -0.0784018 -0.00954855 -0.13829 
-0.0728355 -0.00872569 -0.136474 -0.0772442 -0.00554843 -0.137418 -0.0857104 -0.00485594 -0.141869 
-0.0878456 0.00791086 -0.138652 -0.0987728 0.0103438 -0.141315 -0.0770331 0.0159078 -0.137714 
-0.0859222 0.0243638 -0.139339 -0.117553 -0.0791501 -0.133452 -0.0887831 -0.0429068 -0.136633 
-0.0802503 -0.0442626 -0.133828 -0.0819623 -0.042039 -0.13506 -0.0829192 -0.0142164 -0.133085 
-0.0697136 -0.011161 -0.135039 -0.0673632 -0.0132443 -0.133954 -0.1044 -0.00678817 -0.138004 
[...]
POINT_DATA 601
FIELD FieldData 7
id 1 601 int
22 35 32 16 6 44 10 12 2 
11 57 1 25 20 13 23 30 38 
29 21 14 19 3 7 47 5 4 
69 33 28 40 56 73 54 27 45 
66 51 93 37 89 61 36 100 8 
52 42 59 120 173 85 87 77 91 
94 133 41 55 176 39 15 60 71 
31 17 84 113 78 58 147 80 50 
46 74 92 125 65 117 63 76 101 
43 98 18 53 110 67 86 164 162 
102 145 153 126 62 24 112 130 137 
131 190 111 48 108 88 95 26 103 
196 75 186 34 178 207 104 150 121 
97 168 179 180 148 177 82 68 160 
118 138 193 107 122 114 139 174 171 
141 140 79 129 202 198 195 184 127 
159 154 163 106 132 166 142 204 144 
241 83 49 219 151 70 187 123 215 
210 156 158 81 265 189 134 183 136 
116 250 115 143 169 105 119 225 157 
149 229 181 221 211 209 252 170 212 
99 213 270 152 146 205 124 175 254 
96 228 199 64 278 109 272 276 197 
161 200 182 224 206 128 261 208 72 
185 201 172 167 236 280 244 249 245 
191 234 251 135 305 223 295 293 294 
233 238 220 292 314 266 273 253 230 
188 263 260 243 274 284 267 235 227 
247 317 290 299 218 192 226 242 321 
264 322 256 289 155 271 222 255 214 
258 287 259 232 303 194 248 262 352 
217 275 288 307 203 330 283 315 333 
324 304 277 297 240 296 368 367 306 
344 298 370 237 351 318 302 285 329 
310 363 300 282 165 308 377 327 281 
313 291 332 246 347 348 331 320 340 
269 90 279 366 341 239 216 336 355 
316 301 311 309 338 257 326 231 387 
346 343 362 325 339 323 319 286 390 
394 328 365 429 360 342 389 345 382 
354 356 349 388 446 268 378 386 401 
418 334 375 393 400 404 358 419 444 
357 353 337 385 369 350 359 361 371 
373 447 410 312 454 420 409 414 405 
448 364 374 380 443 408 383 438 415 
9 392 423 335 399 445 451 391 376 
422 406 407 456 458 431 411 425 396 
452 427 439 384 424 379 417 460 434 
412 433 442 440 402 430 372 398 450 
395 381 403 435 413 397 457 441 455 
453 437 421 416 459 436 426 428 432 
449 468 462 466 473 464 465 472 471 
463 470 469 461 467 484 480 485 478 
482 474 477 481 476 475 483 479 486 
496 493 492 497 488 491 490 495 487 
489 498 494 506 507 510 503 501 508 
511 509 504 505 499 502 500 519 517 
512 522 516 513 514 520 518 529 521 
515 523 536 528 532 527 533 535 530 
534 526 531 543 524 525 549 548 547 
545 540 538 541 546 539 542 559 555 
544 550 552 561 562 537 557 558 553 
560 554 556 551 569 574 566 571 564 
565 563 572 568 567 570 575 573 587 
582 581 588 583 576 578 579 586 580 
577 596 585 584 591 589 595 601 597 
594 598 590 593 592 600 599 
type 1 601 int
1 1 1 1 1 1 1 1 1 
1 1 1 1 1 1 1 1 1 
1 1 1 1 1 1 1 1 1 
1 1 1 1 1 1 1 1 1 
1 1 1 1 1 1 1 1 1 
1 1 1 1 1 1 1 1 1 
1 1 1 1 1 1 1 1 1 
1 1 1 1 1 1 1 1 1 
1 1 1 1 1 1 1 1 1 
1 1 1 1 1 1 1 1 1 
1 1 1 1 1 1 1 1 1 
1 1 1 1 1 1 1 1 1 
1 1 1 1 1 1 1 1 1 
1 1 1 1 1 1 1 1 1 
1 1 1 1 1 1 1 1 1 
1 1 1 1 1 1 1 1 1 
1 1 1 1 1 1 1 1 1 
1 1 1 1 1 1 1 1 1 
1 1 1 1 1 1 1 1 1 
1 1 1 1 1 1 1 1 1 
1 1 1 1 1 1 1 1 1 
1 1 1 1 1 1 1 1 1 
1 1 1 1 1 1 1 1 1 
1 1 1 1 1 1 1 1 1 
1 1 1 1 1 1 1 1 1 
1 1 1 1 1 1 1 1 1 
1 1 1 1 1 1 1 1 1 
1 1 1 1 1 1 1 1 1 
1 1 1 1 1 1 1 1 1 
1 1 1 1 1 1 1 1 1 
1 1 1 1 1 1 1 1 1 
1 1 1 1 1 1 1 1 1 
1 1 1 1 1 1 1 1 1 
1 1 1 1 1 1 1 1 1 
1 1 1 1 1 1 1 1 1 
1 1 1 1 1 1 1 1 1 
1 1 1 1 1 1 1 1 1 
1 1 1 1 1 1 1 1 1 
1 1 1 1 1 1 1 1 1 
1 1 1 1 1 1 1 1 1 
1 1 1 1 1 1 1 1 1 
1 1 1 1 1 1 1 1 1 
1 1 1 1 1 1 1 1 1 
1 1 1 1 1 1 1 1 1 
1 1 1 1 1 1 1 1 1 
1 1 1 1 1 1 1 1 1 
1 1 1 1 1 1 1 1 1 
1 1 1 1 1 1 1 1 1 
1 1 1 1 1 1 1 1 1 
1 1 1 1 1 1 1 1 1 
1 1 1 1 1 1 1 1 1 
1 1 1 1 1 1 1 1 1 
1 1 1 1 1 1 1 1 1 
1 1 1 1 1 1 1 1 1 
1 1 1 1 1 1 1 1 1 
1 1 1 1 1 1 1 1 1 
1 1 1 1 1 1 1 1 1 
1 1 1 1 1 1 1 1 1 
1 1 1 1 1 1 1 1 1 
1 1 1 1 1 1 1 1 1 
1 1 1 1 1 1 1 1 1 
1 1 1 1 1 1 1 1 1 
1 1 1 1 1 1 1 1 1 
1 1 1 1 1 1 1 1 1 
1 1 1 1 1 1 1 1 1 
1 1 1 1 1 1 1 1 1 
1 1 1 1 1 1 1 
i 3 601 int
0 0 0 0 0 0 0 0 0 
0 0 0 0 0 0 0 0 0 
0 0 0 0 0 0 0 0 0 
0 0 0 0 0 0 0 0 0 
0 0 0 0 0 0 0 0 0 
0 0 0 0 0 0 0 0 0 
0 0 0 0 0 0 0 0 0 
0 0 0 0 0 0 0 0 0 
0 0 0 0 0 0 0 0 0 
0 0 0 0 0 0 0 0 0 
0 0 0 0 0 0 0 0 0 
0 0 0 0 0 0 0 0 0 
0 0 0 0 0 0 0 0 0 
0 0 0 0 0 0 0 0 0 
0 0 0 0 0 0 0 0 0 
0 0 0 0 0 0 0 0 0 
0 0 0 0 0 0 0 0 0 
0 0 0 0 0 0 0 0 0 
0 0 0 0 0 0 0 0 0 
0 0 0 0 0 0 0 0 0 
0 0 0 0 0 0 0 0 0 
0 0 0 0 0 0 0 0 0 
0 0 0 0 0 0 0 0 0 
0 0 0 0 0 0 0 0 0 
0 0 0 0 0 0 0 0 0 
0 0 0 0 0 0 0 0 0 
0 0 0 0 0 0 0 0 0 
0 0 0 0 0 0 0 0 0 
0 0 0 0 0 0 0 0 0 
0 0 0 0 0 0 0 0 0 
0 0 0 0 0 0 0 0 0 
0 0 0 0 0 0 0 0 0 
0 0 0 0 0 0 0 0 0 
0 0 0 0 0 0 0 0 0 
0 0 0 0 0 0 0 0 0 
0 0 0 0 0 0 0 0 0 
0 0 0 0 0 0 0 0 0 
0 0 0 0 0 0 0 0 0 
0 0 0 0 0 0 0 0 0 
0 0 0 0 0 0 0 0 0 
0 0 0 0 0 0 0 0 0 
0 0 0 0 0 0 0 0 0 
0 0 0 0 0 0 0 0 0 
0 0 0 0 0 0 0 0 0 
0 0 0 0 0 0 0 0 0 
0 0 0 0 0 0 0 0 0 
0 0 0 0 0 0 0 0 0 
0 0 0 0 0 0 0 0 0 
0 0 0 0 0 0 0 0 0 
0 0 0 0 0 0 0 0 0 
0 0 0 0 0 0 0 0 0 
0 0 0 0 0 0 0 0 0 
0 0 0 0 0 0 0 0 0 
0 0 0 0 0 0 0 0 0 
0 0 0 0 0 0 0 0 0 
0 0 0 0 0 0 0 0 0 
0 0 0 0 0 0 0 0 0 
0 0 0 0 0 0 0 0 0 
0 0 0 0 0 0 0 0 0 
0 0 0 0 0 0 0 0 0 
0 0 0 0 0 0 0 0 0 
0 0 0 0 0 0 0 0 0 
0 0 0 0 0 0 0 0 0 
0 0 0 0 0 0 0 0 0 
0 0 0 0 0 0 0 0 0 
0 0 0 0 0 0 0 0 0 
0 0 0 0 0 0 0 0 0 
0 0 0 0 0 0 0 0 0 
0 0 0 0 0 0 0 0 0 
0 0 0 0 0 0 0 0 0 
0 0 0 0 0 0 0 0 0 
0 0 0 0 0 0 0 0 0 
0 0 0 0 0 0 0 0 0 
0 0 0 0 0 0 0 0 0 
0 0 0 0 0 0 0 0 0 
0 0 0 0 0 0 0 0 0 
0 0 0 0 0 0 0 0 0 
0 0 0 0 0 0 0 0 0 
0 0 0 0 0 0 0 0 0 
0 0 0 0 0 0 0 0 0 
0 0 0 0 0 0 0 0 0 
0 0 0 0 0 0 0 0 0 
0 0 0 0 0 0 0 0 0 
0 0 0 0 0 0 0 0 0 
0 0 0 0 0 0 0 0 0 
0 0 0 0 0 0 0 0 0 
0 0 0 0 0 0 0 0 0 
0 0 0 0 0 0 0 0 0 
0 0 0 0 0 0 0 0 0 
0 0 0 0 0 0 0 0 0 
0 0 0 0 0 0 0 0 0 
0 0 0 0 0 0 0 0 0 
0 0 0 0 0 0 0 0 0 
0 0 0 0 0 0 0 0 0 
0 0 0 0 0 0 0 0 0 
0 0 0 0 0 0 0 0 0 
0 0 0 0 0 0 0 0 0 
0 0 0 0 0 0 0 0 0 
0 0 0 0 0 0 0 0 0 
0 0 0 0 0 0 0 0 0 
0 0 0 0 0 0 0 0 0 
0 0 0 0 0 0 0 0 0 
0 0 0 0 0 0 0 0 0 
0 0 0 0 0 0 0 0 0 
0 0 0 0 0 0 0 0 0 
0 0 0 0 0 0 0 0 0 
0 0 0 0 0 0 0 0 0 
0 0 0 0 0 0 0 0 0 
0 0 0 0 0 0 0 0 0 
0 0 0 0 0 0 0 0 0 
0 0 0 0 0 0 0 0 0 
0 0 0 0 0 0 0 0 0 
0 0 0 0 0 0 0 0 0 
0 0 0 0 0 0 0 0 0 
0 0 0 0 0 0 0 0 0 
0 0 0 0 0 0 0 0 0 
0 0 0 0 0 0 0 0 0 
0 0 0 0 0 0 0 0 0 
0 0 0 0 0 0 0 0 0 
0 0 0 0 0 0 0 0 0 
0 0 0 0 0 0 0 0 0 
0 0 0 0 0 0 0 0 0 
0 0 0 0 0 0 0 0 0 
0 0 0 0 0 0 0 0 0 
0 0 0 0 0 0 0 0 0 
0 0 0 0 0 0 0 0 0 
0 0 0 0 0 0 0 0 0 
0 0 0 0 0 0 0 0 0 
0 0 0 0 0 0 0 0 0 
0 0 0 0 0 0 0 0 0 
0 0 0 0 0 0 0 0 0 
0 0 0 0 0 0 0 0 0 
0 0 0 0 0 0 0 0 0 
0 0 0 0 0 0 0 0 0 
0 0 0 0 0 0 0 0 0 
0 0 0 0 0 0 0 0 0 
0 0 0 0 0 0 0 0 0 
0 0 0 0 0 0 0 0 0 
0 0 0 0 0 0 0 0 0 
0 0 0 0 0 0 0 0 0 
0 0 0 0 0 0 0 0 0 
0 0 0 0 0 0 0 0 0 
0 0 0 0 0 0 0 0 0 
0 0 0 0 0 0 0 0 0 
0 0 0 0 0 0 0 0 0 
0 0 0 0 0 0 0 0 0 
0 0 0 0 0 0 0 0 0 
0 0 0 0 0 0 0 0 0 
0 0 0 0 0 0 0 0 0 
0 0 0 0 0 0 0 0 0 
0 0 0 0 0 0 0 0 0 
0 0 0 0 0 0 0 0 0 
0 0 0 0 0 0 0 0 0 
0 0 0 0 0 0 0 0 0 
0 0 0 0 0 0 0 0 0 
0 0 0 0 0 0 0 0 0 
0 0 0 0 0 0 0 0 0 
0 0 0 0 0 0 0 0 0 
0 0 0 0 0 0 0 0 0 
0 0 0 0 0 0 0 0 0 
0 0 0 0 0 0 0 0 0 
0 0 0 0 0 0 0 0 0 
0 0 0 0 0 0 0 0 0 
0 0 0 0 0 0 0 0 0 
0 0 0 0 0 0 0 0 0 
0 0 0 0 0 0 0 0 0 
0 0 0 0 0 0 0 0 0 
0 0 0 0 0 0 0 0 0 
0 0 0 0 0 0 0 0 0 
0 0 0 0 0 0 0 0 0 
0 0 0 0 0 0 0 0 0 
0 0 0 0 0 0 0 0 0 
0 0 0 0 0 0 0 0 0 
0 0 0 0 0 0 0 0 0 
0 0 0 0 0 0 0 0 0 
0 0 0 0 0 0 0 0 0 
0 0 0 0 0 0 0 0 0 
0 0 0 0 0 0 0 0 0 
0 0 0 0 0 0 0 0 0 
0 0 0 0 0 0 0 0 0 
0 0 0 0 0 0 0 0 0 
0 0 0 0 0 0 0 0 0 
0 0 0 0 0 0 0 0 0 
0 0 0 0 0 0 0 0 0 
0 0 0 0 0 0 0 0 0 
0 0 0 0 0 0 0 0 0 
0 0 0 0 0 0 0 0 0 
0 0 0 0 0 0 0 0 0 
0 0 0 0 0 0 0 0 0 
0 0 0 0 0 0 0 0 0 
0 0 0 0 0 0 0 0 0 
0 0 0 0 0 0 0 0 0 
0 0 0 0 0 0 0 0 0 
0 0 0 0 0 0 0 0 0 
0 0 0 0 0 0 0 0 0 
0 0 0 0 0 0 0 0 0 
0 0 0 0 0 0 0 0 0 
0 0 0 0 0 0 0 0 0 
0 0 0 0 0 0 0 0 0 
0 0 0 0 0 0 0 0 0 
0 0 0 
v 3 601 double
-1.40023 -0.251904 -1.7689 -1.34345 0.15557 -1.39587 -1.49282 0.013101 -1.41442 
-1.41114 0.00647445 -1.24422 -1.3674 -0.00979849 -1.01202 -1.35377 -0.0625207 -0.967217 
-1.29594 0.0210826 -0.977838 -1.37111 0.0250101 -0.933354 -1.34676 -0.00926674 -0.965387 
-1.28523 -0.041963 -0.859545 -1.40329 -0.151216 -0.863279 -1.29447 -0.0102819 -0.835559 
-1.30627 -0.0249384 -0.76964 -1.23863 -0.175653 -0.990804 -1.29435 0.223299 -0.782278 
-1.24968 -0.0603932 -0.669875 -1.29539 0.0619969 -0.722195 -1.30976 -0.0504093 -0.699605 
-1.31046 -0.0406686 -0.689559 -1.35161 -0.0860827 -0.718472 -1.14598 0.0397467 -0.570796 
-1.15852 -0.00366611 -0.462751 -1.25453 0.15366 -0.537899 -1.01286 0.047218 -0.429223 
-1.24772 -0.0194952 -0.526431 -1.25614 0.101284 -0.539504 -1.15091 0.0676342 -0.480846 
-1.15357 0.0294316 -0.485039 -1.24054 0.158113 -0.608997 -1.22856 0.0380417 -0.565804 
-1.26763 0.0452662 -0.538131 -1.07553 0.0341907 -0.454711 -1.06644 0.0406127 -0.446887 
-1.22263 0.108391 -0.571003 -1.15367 0.0775711 -0.489859 -1.1092 0.0910126 -0.477393 
-1.21751 -0.0970946 -0.520459 -1.05489 0.35516 -1.1303 -1.23969 0.0820538 -0.502705 
-1.1572 0.105687 -0.498401 -1.10377 0.0601431 -0.467992 -1.11093 0.0659661 -0.464279 
-1.08544 0.0356585 -0.446205 -1.12054 0.0699179 -0.481502 -1.06399 0.0133831 -0.45168 
-1.08799 0.0196942 -0.461014 -1.07473 0.0449241 -0.44401 -0.976472 -0.0378029 -0.40936 
-0.981916 0.0166725 -0.357786 -1.3352 0.069838 -0.54788 -1.07169 0.0465864 -0.460497 
-1.10087 0.0617164 -0.470385 -0.958566 -0.000890999 -0.40223 -0.912582 -0.006425 -0.460267 
-1.16987 -0.0561498 -0.501184 -1.02236 -0.0182402 -0.431561 -1.00945 -0.0313563 -0.422941 
-0.963062 -0.0893664 -0.399473 -0.894648 0.0158537 -0.378272 -0.936614 -0.0218295 -0.391162 
-0.942807 -0.028818 -0.402874 -1.09154 -0.384299 -0.681361 -0.836183 -0.0499956 -0.357781 
-0.94294 0.0329857 -0.393438 -0.952705 0.00235124 -0.398709 -0.978735 0.0663891 -0.356069 
-0.964797 -0.0795802 -0.406211 -0.946294 -0.00278021 -0.430537 -0.885819 -0.00902864 -0.3669 
-1.16129 -0.113464 -0.494038 -0.864101 -0.094032 -0.34526 -0.884074 0.0310732 -0.368094 
-0.905949 -0.000301488 -0.375395 -0.889328 -0.0228784 -0.36698 -0.773262 -0.111433 -0.333759 
-0.870799 -0.0123139 -0.371364 -0.894215 -0.069941 -0.384219 -1.08835 -0.254492 -0.533483 
-1.06865 0.136985 -0.527439 -0.948018 0.120408 -0.419423 -0.794708 -0.117795 -0.311184 
-0.957439 -0.0548814 -0.380448 -0.811399 0.034706 -0.350447 -0.935098 -0.0447524 -0.351323 
-0.789072 -0.113175 -0.327627 -0.772133 -0.00111453 -0.339702 -0.881126 0.0444891 -0.332823 
-0.792841 0.045688 -0.328926 -0.900698 0.0244371 -0.37458 -0.918735 0.0848748 -0.380503 
-0.806312 -0.0100893 -0.345455 -1.04114 0.0795901 -0.418953 -0.953861 -0.0273617 -0.408416 
-1.07424 -0.176974 -0.46662 -0.948944 0.0680045 -0.424318 -1.00849 -0.0207933 -0.406934 
-0.916089 0.0348261 -0.382819 -0.912509 0.0264577 -0.381813 -0.721894 0.0496055 -0.308773 
-1.07319 0.0132455 -0.672985 -0.946827 -0.00310659 -0.393781 -0.941195 0.0812201 -0.390888 
-0.916212 0.0233284 -0.389037 -0.997635 0.0465678 -0.406932 -0.981239 -0.147621 -0.429942 
-0.89623 -0.0675176 -0.347246 -0.854495 -0.0149566 -0.367135 -0.915944 -0.0504445 -0.362742 
-0.903458 0.101384 -0.38441 -0.884556 0.117714 -0.363495 -0.690899 0.00865548 -0.269712 
-0.898415 -0.170924 -0.415611 -0.708004 -0.171938 -0.247757 -1.09234 -0.350679 -0.485429 
-0.662638 0.0849905 -0.293694 -0.837092 -0.051347 -0.339513 -0.804856 0.0352222 -0.34104 
-1.0184 0.25442 -0.495446 -0.969086 -0.0812098 -0.402174 -0.850253 -0.0262722 -0.311844 
-0.826612 0.0509959 -0.346869 -0.783759 0.0407346 -0.251467 -0.896637 0.0405039 -0.38512 
-0.810931 -0.00371371 -0.347685 -0.801789 -0.00941028 -0.34409 -0.701232 -0.0730592 -0.32061 
-0.816983 -0.0320353 -0.314498 -0.694799 -0.026424 -0.291601 -0.838197 -0.100828 -0.378559 
-0.728493 0.0332407 -0.296523 -0.87252 -0.0993378 -0.380051 -0.745081 -0.0177559 -0.316693 
-1.12674 -0.181992 -0.635973 -0.909918 -0.0321787 -0.350335 -0.823749 0.0443648 -0.337842 
-0.922424 0.00242573 -0.390564 -0.927266 0.0625542 -0.390174 -0.851391 0.0016761 -0.260594 
-0.922733 0.0665872 -0.396752 -0.873059 -0.00425486 -0.358789 -0.737324 -0.00402926 -0.308526 
-0.771983 -0.00258218 -0.323095 -0.563034 0.00692528 -0.238724 -0.734122 -0.0990408 -0.286469 
-0.934249 -0.0923714 -0.404963 -0.863394 -0.0459163 -0.182656 -0.84908 -0.0348708 -0.475628 
-0.738137 -0.0649125 -0.329843 -0.831197 0.087165 -0.360898 -0.915835 0.073552 -0.377986 
-0.692753 -0.0132506 -0.278709 -1.02956 -0.0847089 -0.422696 -0.803936 0.0403065 -0.33222 
-0.747261 -0.0302303 -0.527262 -0.847935 -0.10012 -0.361993 -0.87344 -0.117962 -0.397119 
-0.926364 -0.0217796 -0.360123 -0.845192 -0.0423855 -0.357001 -0.785809 0.0877384 -0.326647 
-1.11254 -0.112412 -0.502352 -0.826673 -0.0194394 -0.341393 -0.909389 -0.141955 -0.379473 
-0.856883 -0.00951838 -0.352219 -0.777732 0.00958608 -0.326695 -0.746764 -0.0150618 -0.311614 
-0.90198 -0.129246 -0.424176 -0.933083 -0.00358451 -0.395818 -0.904547 0.0393058 -0.390037 
-0.86032 0.0596701 -0.362588 -0.815361 -0.00428832 -0.343892 -0.809261 0.0143445 -0.356382 
-0.801087 -0.0039467 -0.342593 -0.53278 -0.144549 -0.196447 -0.706631 0.0735623 -0.28988 
-0.727969 0.098444 -0.300824 -0.74073 0.00667127 -0.330545 -0.742143 0.0216097 -0.31906 
-0.774305 -0.0831575 -0.339018 -0.85406 -0.0738021 -0.317576 -0.798864 -0.0660775 -0.325811 
-0.704117 -0.0606736 -0.281358 -0.727713 -0.0435211 -0.290286 -0.788009 0.0376489 -0.328677 
-0.84048 0.143092 -0.37561 -0.788456 -0.124567 -0.236656 -0.574629 0.0326628 -0.248925 
-0.735273 -0.0222701 -0.302997 -0.739085 0.0231404 -0.299369 -0.675786 -0.0121341 -0.271123 
-0.729378 -0.0826009 -0.330892 -0.822404 0.0140883 -0.336324 -0.936626 0.0899873 -0.529303 
-0.64572 -0.150559 -0.265174 -0.62573 0.0244992 -0.268619 -0.682326 0.0228171 -0.279522 
-0.778134 -0.0646682 -0.323501 -0.726761 -0.0121593 -0.293884 -0.743733 -0.0104773 -0.323116 
-0.742317 0.00899036 -0.32151 -0.78288 -0.000735124 -0.318738 -0.890485 -0.0962097 -0.379379 
-0.752835 -0.0630658 -0.337062 -1.08179 -0.0967798 -0.462309 -0.784435 0.20948 -0.378781 
-0.822778 -0.038349 -0.344979 -0.588851 -0.150628 -0.217851 -0.529263 -0.0534711 -0.218655 
-0.625924 0.00617795 -0.26819 -0.929715 0.304501 -0.299708 -0.671423 -0.013996 -0.276903 
-0.658548 -0.0149805 -0.282075 -0.738491 -0.0188517 -0.365555 -0.742499 -0.0155574 -0.327344 
-0.765368 0.022056 -0.312437 -0.838472 0.0266657 -0.350925 -0.787671 0.00327289 -0.323068 
-0.733393 -0.156035 -0.248473 -0.715227 -0.108821 -0.259698 -0.608088 -0.0110197 -0.25448 
-0.91411 0.136395 -0.677889 -0.620185 0.0839563 -0.159706 -0.721889 0.0646506 -0.307723 
-0.885768 -0.185287 -0.337387 -0.661433 0.0598376 -0.212143 -0.640979 0.0629185 -0.274818 
-0.683139 0.0825981 -0.282626 -0.843118 0.174736 -0.336951 -0.892272 0.241351 -0.252722 
-0.660721 0.249372 -0.422108 -0.909542 -0.22208 -0.264633 -0.764749 0.0276999 -0.488189 
-0.747908 0.0465299 -0.319627 -0.70135 0.0298343 -0.238311 -1.18906 -0.239109 -0.465957 
-0.695119 0.0278341 -0.292224 -0.603887 0.0314799 -0.253124 -0.461438 -0.0327169 -0.196004 
-0.625089 0.0668911 -0.490183 -0.499925 -0.026587 -0.219397 -0.527111 -0.0506735 -0.143599 
-0.569451 0.021312 -0.236785 -0.713352 0.115855 -0.289535 -0.491055 0.0592832 -0.190189 
-0.878227 0.0857924 -0.34307 -0.397077 -0.173231 -0.127834 -0.409754 -0.0126206 -0.324699 
-0.366881 0.103992 -0.162175 -0.55199 -0.264931 -0.202977 -0.79364 0.0240787 -0.4702 
-0.609117 0.073951 -0.268416 -0.668518 0.00238081 -0.279006 -0.59056 0.0871159 -0.150785 
-0.668503 -0.0497764 -0.280861 -0.984903 -0.153922 -0.589531 -0.859297 0.251367 -0.403071 
-0.788477 0.174548 -0.419295 -0.604643 0.0208275 -0.27761 -0.529771 -0.0628684 -0.226646 
-0.539446 -0.0393387 -0.228703 -0.515183 -0.0858876 -0.225286 -0.721148 -0.05556 -0.300035 
-0.629442 -0.0533451 -0.277732 -0.709231 -0.212273 -0.241973 -0.696051 0.0244314 -0.243093 
-0.853471 0.117512 -0.284358 -0.526371 0.0787191 -0.157022 -0.304417 -0.194108 -0.0648122 
-0.616303 0.0331952 -0.264327 -0.567769 0.0171335 -0.242081 -0.48137 -0.0605529 -0.186244 
-0.586376 -0.0307699 -0.245904 -0.855968 0.344106 -0.170556 -0.655029 0.021209 -0.278085 
-0.489983 0.0582313 -0.204804 -0.551261 0.0787837 -0.257238 -0.5154 0.0296001 -0.186342 
-0.480072 -0.00924095 -0.201281 -0.523851 0.0260025 -0.21697 -1.53925 0.230518 -0.599224 
-0.54821 0.150333 -0.203089 -0.678302 -0.0828311 -0.297948 -0.693801 -0.221964 -0.183414 
-0.966949 0.100851 -0.551473 -0.432399 -0.0121569 -0.179673 -0.709589 0.110996 -0.184357 
-0.590409 -0.0296095 -0.248946 -0.542364 0.134414 -0.23429 -0.519616 -0.0633456 -0.220198 
-0.982111 0.254885 -0.765204 -0.90371 0.0862814 -0.188409 -0.660839 -0.238081 -0.928743 
-0.894271 -0.235485 -0.440185 -0.418791 0.0102524 -0.175556 -0.952936 0.0943762 -0.0643035 
-0.685737 0.141388 -0.187758 -0.593021 0.381272 -0.241433 -0.70248 0.229381 -0.231366 
-0.430746 -0.205512 -0.13755 -0.80953 0.0612401 -0.31085 -0.662542 0.02039 -0.152298 
-0.512707 0.0232536 -0.218092 -0.549288 0.04565 -0.234511 -0.643033 0.00337291 -0.458695 
-0.550475 0.0314745 -0.235262 -0.638125 -0.0223548 -0.269786 -0.867844 -0.272518 -0.196914 
-0.640327 0.198238 -0.258733 -1.07962 0.301509 -0.731265 -0.750962 0.27505 -0.295373 
-0.667197 0.114975 -0.257886 -0.738726 -0.0627901 -0.240502 -0.792245 -0.0198323 -0.321228 
-0.887721 -0.237898 -0.296504 -0.599109 -0.360867 -0.204841 -0.829249 -0.00261214 -0.273184 
-0.552871 -0.0272969 -0.231005 -0.530146 0.0487625 -0.225029 -0.732181 -0.110349 -0.678735 
-0.613477 0.0633438 -0.260739 -0.840699 0.237716 -0.348327 -0.888393 0.102019 -0.575062 
-0.547971 0.0242878 -0.230213 -0.615997 0.0697124 -0.248151 -0.404879 -0.0700126 -0.182504 
-0.524044 0.0294345 -0.210784 -0.487872 0.0412848 -0.185457 -0.494357 0.0308733 -0.248707 
-0.715935 -0.372139 -0.187725 -0.840748 -0.0464706 -0.252154 -0.509666 -0.21681 -0.16922 
-0.686617 -0.0308862 -0.305687 -0.502566 0.0851892 -0.190897 -0.67111 -0.0822733 -0.280435 
-0.694607 0.15001 -0.78827 -0.396825 -0.132244 -0.168532 -0.56583 0.412482 -0.653568 
-0.442399 -0.0452337 -0.188045 -0.341482 -0.03926 -0.148646 -0.461764 -0.00417252 -0.188271 
-0.403605 -0.00965071 -0.168784 -0.535454 -0.0540407 -0.228751 -0.669392 0.183481 -0.100109 
-0.39052 -0.0228184 -0.234021 -0.71541 0.262642 -0.762632 -0.709489 0.0685356 -0.29886 
-0.382405 -0.123662 -0.164293 -0.749141 -0.0168511 -0.668251 -0.574319 -0.0886371 -0.619603 
-0.41694 -0.0533529 -0.174072 -0.611073 0.144399 -0.774855 -0.969285 0.159334 -0.321242 
-0.565537 0.0124139 -0.315752 -0.638079 0.0829069 -0.446021 -0.31667 -0.104107 -0.103279 
-0.945272 -0.516599 -0.190023 -0.489015 0.024892 -0.253585 -0.146832 -0.0771084 -0.0425915 
-0.680606 -0.360696 -0.348744 -0.341198 0.000579987 -0.140664 -0.623565 -0.00566933 -0.569192 
-0.696059 -0.326682 -0.624212 -0.45627 0.0315956 -0.186871 -0.578304 -0.0810143 -0.359527 
-0.775644 -0.0854768 -0.271193 -1.15783 -0.272408 -0.144399 -0.424277 -0.0669219 -0.18523 
-0.545426 0.00372375 -0.230461 -0.791574 0.194241 -0.238831 -0.677027 0.236831 -0.266259 
-1.02844 0.157808 -0.386302 -0.415792 0.0230302 -0.193329 -0.441995 0.0212143 -0.223839 
-0.331625 0.0627131 -0.146699 -0.496017 0.054727 -0.228463 -0.549695 0.0176535 -0.135829 
-0.646793 0.0219488 -0.587206 -0.295282 0.028626 -0.115281 -0.503111 0.0386175 0.210051 
-0.247544 -0.0908475 -0.0774616 -0.714328 -0.146745 -0.563188 -0.827364 -0.131056 -0.475419 
-0.318011 0.20948 -0.120099 -0.347784 0.14374 0.281425 -0.49361 -0.170753 -0.503112 
-0.308055 0.0508501 -0.195205 -0.36954 -0.0310416 -0.161364 -0.633982 -0.320461 -0.317799 
-0.399521 0.096283 -0.0807348 -0.92378 0.00997092 -0.137899 -0.705951 0.681642 -0.135661 
-0.353664 0.108574 -0.105904 -1.01029 0.25488 -0.190139 -0.566829 0.254776 -0.214705 
-0.720017 0.322425 -0.161625 -0.419132 0.204352 -0.15332 -0.754938 0.181228 -0.189751 
-0.400606 0.281349 -0.101478 -0.342016 0.111354 -0.199106 -0.517834 -0.253129 -0.588057 
-0.274877 -0.205727 -0.292082 0.248534 0.303161 0.314821 -0.519382 0.134616 -0.246015 
-0.308371 -0.236127 -0.0213399 -1.10777 -0.191553 -0.101929 -0.219061 -0.126025 -0.138188 
-0.595045 0.247723 -0.429757 -0.364655 0.115095 -0.350114 -0.893893 0.0922736 -0.285117 
-0.556295 0.0748484 -0.505236 -0.74361 0.235968 -0.256578 -0.665819 0.564508 -0.0114899 
-0.460978 0.234327 -0.198342 -0.120985 -0.323627 -0.178567 -0.328185 0.0896594 -0.145935 