# vtk DataFile Version 4.0
Generated by LIGGGHTS
ASCII
DATASET POLYDATA
POINTS 268 float
-0.125828 0.0604011 -0.146636 -0.0933469 -0.00163455 -0.144293 -0.0919823 0.00848607 -0.144624 
-0.081415 0.0123166 -0.139862 -0.0898004 0.0175531 -0.141372 -0.0778087 -0.0124258 -0.137382 
-0.0745413 0.00238973 -0.135789 -0.0754624 0.0163012 -0.135934 -0.0811933 -0.0522722 -0.131797 
-0.11215 -0.0288874 -0.134614 -0.0804112 -0.0274931 -0.136144 -0.0634769 -0.00793211 -0.131487 
-0.0672588 0.000784066 -0.134347 -0.0640374 0.00367806 -0.131856 -0.0645689 0.0106737 -0.131728 
-0.0797487 0.0266668 -0.132908 -0.0592172 -0.0172263 -0.129051 -0.0615633 -0.0130293 -0.130444 
-0.0967522 -0.00443739 -0.131123 -0.0884635 0.00114615 -0.129439 -0.056671 0.00585175 -0.129789 
-0.0581973 0.0117082 -0.130212 -0.0637641 0.0301342 -0.130129 -0.0523311 -0.0147708 -0.127513 
-0.0890109 -0.00511244 -0.127902 -0.0681714 -0.00692814 -0.125209 -0.0505387 -0.000857967 -0.12596 
-0.0476384 0.00125946 -0.126035 -0.0761366 0.00393237 -0.128313 -0.0527237 0.0228178 -0.125703 
-0.0668696 0.0382095 -0.126938 -0.0429548 -0.0148526 -0.123544 -0.0565768 -0.00981744 -0.125289 
-0.076754 -0.00478722 -0.124904 -0.0843495 -0.00135434 -0.124254 -0.0781529 -0.00138874 -0.123687 
-0.0393693 -0.00109266 -0.121459 -0.0488325 0.00710586 -0.124766 -0.0411105 0.0109366 -0.121464 
-0.0545905 0.0177534 -0.123386 -0.042048 0.0174402 -0.121853 -0.0440071 0.0356676 -0.121021 
-0.0432255 -0.0240212 -0.119759 -0.0705127 -0.02533 -0.120265 -0.0425347 -0.0183735 -0.123045 
-0.0776679 -0.00663324 -0.12044 -0.0469233 -0.00964239 -0.118975 -0.0351481 -0.00803168 -0.120054 
-0.0295981 -0.01031 -0.117817 -0.0310334 -0.00458724 -0.118995 -0.034932 -0.00386892 -0.119375 
-0.0453163 0.00148534 -0.119878 -0.0515602 0.00328426 -0.121069 -0.0405562 0.00468214 -0.118048 
-0.0499959 0.00908016 -0.121421 -0.0357581 0.0135684 -0.118846 -0.0274536 0.0112485 -0.116753 
-0.0442462 0.0138224 -0.118735 -0.0626748 0.0178063 -0.118311 -0.0305074 0.0191227 -0.117963 
-0.0483599 0.0225063 -0.120106 -0.0542668 -0.0291164 -0.117572 -0.034265 -0.0185295 -0.119434 
-0.0231721 -0.0140961 -0.114961 -0.0691652 -0.0122648 -0.117375 -0.0322561 -0.0151013 -0.117875 
-0.0353942 -0.00957484 -0.116769 -0.0384977 -0.00684416 -0.114815 -0.0312962 -0.00674852 -0.11696 
-0.065251 -0.00429462 -0.114646 -0.0378497 -0.00101719 -0.115732 -0.0299574 0.00201969 -0.118644 
-0.0233048 -0.00240486 -0.114796 -0.0323703 0.00943307 -0.117925 -0.0270662 0.011922 -0.111959 
-0.058493 0.0114375 -0.116156 -0.0619111 0.0147199 -0.116279 -0.0586116 0.0165968 -0.114914 
-0.0397599 0.0157608 -0.116799 -0.0341735 0.0171308 -0.11717 -0.0305718 0.0192596 -0.113815 
-0.022398 0.0214722 -0.113296 -0.0341843 0.0266521 -0.117204 -0.0263394 0.0290812 -0.113062 
-0.0170989 -0.0245916 -0.109622 -0.0211134 -0.021701 -0.11224 -0.0418583 -0.0184125 -0.112064 
-0.0381702 -0.0135092 -0.113292 -0.0234033 -0.0114131 -0.111935 -0.015052 -0.0135727 -0.109908 
-0.0471306 -0.0077155 -0.110701 -0.062299 -0.00510205 -0.113666 -0.0578271 -0.00532788 -0.11239 
-0.026474 -0.00585838 -0.10959 -0.0296546 -0.00265553 -0.115716 -0.0661478 0.00602715 -0.113403 
-0.051568 0.00519165 -0.110896 -0.0323511 0.0129627 -0.112224 -0.0167369 0.0167901 -0.11214 
-0.0339937 0.0324337 -0.116578 -0.0310234 -0.0334237 -0.108839 -0.0150803 -0.0354423 -0.107995 
-0.0145249 -0.0305441 -0.108473 -0.0181103 -0.0190284 -0.107496 -0.0286216 -0.00909049 -0.108265 
-0.0145182 -0.00406968 -0.109714 -0.0276842 0.004205 -0.114169 -0.0154264 0.00368571 -0.112159 
-0.00957735 0.0166875 -0.106614 -0.0457759 0.021004 -0.109363 -0.0124453 0.0239711 -0.107778 
-0.0417478 -0.0244204 -0.102697 -0.0165677 -0.0255799 -0.103906 -0.0237604 -0.0168484 -0.104359 
-0.00760082 -0.0138546 -0.103181 -0.00740775 -0.00950941 -0.108606 -0.0316214 0.000145103 -0.111853 
-0.0215467 0.00345464 -0.112124 -0.0101109 0.00484466 -0.103849 -0.0046064 0.00903112 -0.105016 
-0.0133879 0.0136389 -0.101896 -0.0386409 0.0171343 -0.105064 -0.0134151 0.0281583 -0.103145 
-0.000647076 -0.0435099 -0.101239 -0.0229095 0.0226463 -0.101311 -0.0227292 -0.0342527 -0.104448 
-0.00619854 0.01222 -0.103432 -0.026321 0.0295451 -0.104122 -0.0331578 -0.0347183 -0.100374 
-0.0076982 -0.0269483 -0.100725 -0.0188235 -0.00412326 -0.0965676 -0.0142543 -0.00491395 -0.0995395 
-0.0238018 0.0141125 -0.0961977 -0.030786 0.0122027 -0.0947625 -0.0115686 -0.0259344 -0.0871191 
-0.00401145 -0.0205873 -0.0863536 -0.00584464 -0.0345985 -0.0851848 -0.010147 -0.0216422 -0.0827627 
-0.0322463 -0.00737998 -0.083166 -0.0301844 0.00679958 -0.0840978 -0.0210131 0.0295222 -0.082898 
-0.004829 0.0333632 -0.0850546 -0.00623706 -0.00658451 -0.078728 -0.0237179 -0.0330481 -0.0757511 
-0.00679915 -0.000720285 -0.0774312 -0.0230582 0.0203811 -0.0774501 -0.0251936 -0.0129184 -0.0723004 
-0.0152079 -0.0146465 -0.0696754 -0.00240788 -0.00904262 -0.0676365 -0.00372425 0.000239952 -0.0700807 
-0.0043072 0.0165241 -0.0674864 -0.0326006 -0.0307471 -0.0651143 -0.0214963 -0.0163735 -0.0666013 
-0.0322856 0.00186917 -0.0643568 -0.0234861 -0.027537 -0.0590229 -0.0280789 0.0137467 -0.0568979 
-0.00943139 0.0192376 -0.0601015 -0.0103743 0.0339743 -0.0600486 -0.0180071 -0.0232682 -0.055092 
-0.000114354 -0.0212937 -0.0555791 -0.0345391 -0.0114622 -0.0524797 -0.0148889 0.0293808 -0.0522475 
-0.00596878 -0.0130405 -0.048512 -0.0303036 -0.0103215 -0.0490127 -0.0234232 0.00199937 -0.0464649 
-0.0287704 0.0101406 -0.0484478 -0.010941 0.0209557 -0.0481896 -0.0252839 0.0329346 -0.0468037 
-0.0326237 -0.0246784 -0.0436713 -0.0233162 -0.0208835 -0.0409717 -0.0337354 -0.0145959 -0.0357638 
-0.01426 -0.0134546 -0.0366546 -0.0199625 -0.00318577 -0.0373121 -0.0192935 0.0147617 -0.0385509 
-0.0264666 -0.0274673 -0.0331842 -0.0282271 0.00282044 -0.0338425 -0.00243205 0.0227147 -0.0334163 
-0.0334843 0.027503 -0.034113 -0.00169906 0.0312398 -0.0329287 -0.00998901 -0.0289101 -0.0270608 
-0.034981 -0.0249092 -0.026758 -0.0192849 -0.0147163 -0.0263863 -0.0322689 0.00363086 -0.0256749 
-0.00018665 0.0188342 -0.027693 -0.0140935 0.0269151 -0.0270331 -0.0232114 -0.0234185 -0.0231008 
-0.0106048 -0.0133163 -0.0188054 -0.0173269 -0.00522829 -0.017926 -0.0330791 -0.00130471 -0.0191657 
-0.00264988 0.00425434 -0.01735 -0.0298988 0.0182926 -0.0183127 -0.0121862 -0.0184905 -0.0137358 
-0.0196577 -0.0144125 -0.0147596 -0.0326428 0.0349629 -0.0142867 -0.00329635 0.0348276 -0.0142198 
-0.014731 -0.0256121 -0.0121061 -0.0306718 0.00167617 -0.0104014 -0.0127903 0.0167345 -0.0106806 
-0.0237709 0.00172744 -0.0086371 -0.0159198 0.0243576 -0.00900146 -0.0201644 -0.0127686 -0.00580238 
-0.00148336 0.00567101 -0.00364441 -0.00546888 0.0136012 -0.00390046 -0.0118483 -0.0331947 -0.000912285 
-0.0342709 -0.0266248 -0.00243461 -0.0241178 0.0300767 -0.000592327 -0.0341415 -0.0150214 0.00117783 
-0.0126988 -0.00665925 0.00375735 -0.0308689 0.0273623 0.0030216 -0.0148951 0.0311963 0.00381068 
-0.0142921 -0.0256298 0.00740697 -0.0168405 0.0156428 0.0111232 -0.00573913 0.0284222 0.00898209 
-0.0275287 0.0316192 0.00967115 -0.0141421 -0.0289115 0.0131672 -0.00525173 -0.0253791 0.0118669 
-0.0116971 -0.00845001 0.0120513 -0.0198385 0.0337207 0.0150042 -0.000147874 0.0325969 0.012231 
-0.0186146 -0.0271402 0.0184425 -0.0256746 -0.0217519 0.0163194 -0.0104339 -0.0112253 0.0169761 
-0.0136619 -0.00711923 0.022326 -0.0125397 0.000705716 0.019419 -0.0334121 0.00368684 0.0222732 
-0.0215223 -0.00790873 0.0247956 -0.0245223 0.0145985 0.0236964 -0.0147394 0.0154412 0.0248564 
-0.0123255 0.0311922 0.0246594 -0.00133775 -0.0346143 0.0261808 -0.00913613 -0.0312941 0.0276559 
-0.00523715 -0.00647974 0.0269531 -0.0114835 0.00360093 0.0270238 -0.0276781 -0.0206777 0.032725 
-0.0228461 0.00943572 0.0310619 -0.011765 0.00818954 0.0333802 -0.00736955 0.00915874 0.0333705 
-0.00778825 0.00202854 0.0368138 -0.0288682 0.0130299 0.0368563 -0.00624641 0.0129916 0.036483 
-0.004822 0.0167274 0.0347129 -0.0230186 0.023228 0.0365211 -0.0110222 0.021925 0.0348846 
-0.000908632 -0.0201376 0.0385477 -0.03335 -0.0101411 0.0373098 -0.0202693 -0.00943017 0.0391437 
-0.0140583 -0.00457604 0.0374582 -0.0183381 0.00273344 0.0388183 -0.0270427 -0.0136491 0.0438928 
-0.00508252 -0.0028679 0.0423892 -0.0132609 0.017575 0.0417787 -0.0290573 0.0260911 0.0428254 
-0.0312596 -0.0282318 0.0466043 -0.00133703 -0.00658453 0.0458392 -0.00273627 0.0326024 0.0474629 
-0.0309119 -0.0207084 0.0487229 -0.0252685 -0.0119457 0.0512517 -0.0084722 -0.00462009 0.0491698 
-0.0209658 0.00969496 0.0511283 -0.0272645 0.0231035 0.0510872 -0.0152744 0.0211746 0.0500957 
-0.0342247 -0.0119118 0.0544833 -0.0244054 0.0234551 0.0538976 -0.00730513 0.0257586 0.0538285 
-0.0181876 -0.028381 0.0564852 -0.0304536 -0.0123493 0.0561441 -0.0309256 0.00918438 0.0554843 
-0.000691472 0.0332631 0.0573104 
VERTICES 268 536
1 0 
1 1 
1 2 
1 3 
1 4 
1 5 
1 6 
1 7 
1 8 
1 9 
1 10 
1 11 
1 12 
1 13 
1 14 
1 15 
1 16 
1 17 
1 18 
1 19 
1 20 
1 21 
1 22 
1 23 
1 24 
1 25 
1 26 
1 27 
1 28 
1 29 
1 30 
1 31 
1 32 
1 33 
1 34 
1 35 
1 36 
1 37 
1 38 
1 39 
1 40 
1 41 
1 42 
1 43 
1 44 
1 45 
1 46 
1 47 
1 48 
1 49 
1 50 
1 51 
1 52 
1 53 
1 54 
1 55 
1 56 
1 57 
1 58 
1 59 
1 60 
1 61 
1 62 
1 63 
1 64 
1 65 
1 66 
1 67 
1 68 
1 69 
1 70 
1 71 
1 72 
1 73 
1 74 
1 75 
1 76 
1 77 
1 78 
1 79 
1 80 
1 81 
1 82 
1 83 
1 84 
1 85 
1 86 
1 87 
1 88 
1 89 
1 90 
1 91 
1 92 
1 93 
1 94 
1 95 
1 96 
1 97 
1 98 
1 99 
1 100 
1 101 
1 102 
1 103 
1 104 
1 105 
1 106 
1 107 
1 108 
1 109 
1 110 
1 111 
1 112 
1 113 
1 114 
1 115 
1 116 
1 117 
1 118 
1 119 
1 120 
1 121 
1 122 
1 123 
1 124 
1 125 
1 126 
1 127 
1 128 
1 129 
1 130 
1 131 
1 132 
1 133 
1 134 
1 135 
1 136 
1 137 
1 138 
1 139 
1 140 
1 141 
1 142 
1 143 
1 144 
1 145 
1 146 
1 147 
1 148 
1 149 
1 150 
1 151 
1 152 
1 153 
1 154 
1 155 
1 156 
1 157 
1 158 
1 159 
1 160 
1 161 
1 162 
1 163 
1 164 
1 165 
1 166 
1 167 
1 168 
1 169 
1 170 
1 171 
1 172 
1 173 
1 174 
1 175 
1 176 
1 177 
1 178 
1 179 
1 180 
1 181 
1 182 
1 183 
1 184 
1 185 
1 186 
1 187 
1 188 
1 189 
1 190 
1 191 
1 192 
1 193 
1 194 
1 195 
1 196 
1 197 
1 198 
1 199 
1 200 
1 201 
1 202 
1 203 
1 204 
1 205 
1 206 
1 207 
1 208 
1 209 
1 210 
1 211 
1 212 
1 213 
1 214 
1 215 
1 216 
1 217 
1 218 
1 219 
1 220 
1 221 
1 222 
1 223 
1 224 
1 225 
1 226 
1 227 
1 228 
1 229 
1 230 
1 231 
1 232 
1 233 
1 234 
1 235 
1 236 
1 237 
1 238 
1 239 
1 240 
1 241 
1 242 
1 243 
1 244 
1 245 
1 246 
1 247 
1 248 
1 249 
1 250 
1 251 
1 252 
1 253 
1 254 
1 255 
1 256 
1 257 
1 258 
1 259 
1 260 
1 261 
1 262 
1 263 
1 264 
1 265 
1 266 
1 267 

POINT_DATA 268
FIELD FieldData 7
id 1 268 int
22 16 32 11 20 30 4 1 51 
35 3 28 8 29 42 44 40 5 
10 6 31 21 57 45 2 33 37 
46 7 41 60 18 15 12 19 25 
43 48 67 66 17 34 52 13 110 
23 59 95 75 82 26 85 89 53 
102 65 64 39 56 49 80 54 87 
76 38 63 24 50 70 47 78 58 
72 106 81 55 61 69 74 114 86 
83 94 84 79 120 100 112 68 121 
77 36 27 113 105 14 73 91 96 
117 93 97 109 111 98 118 99 124 
90 88 127 62 115 101 108 123 126 
119 103 116 104 71 107 9 92 125 
139 122 135 140 136 128 131 133 134 
137 132 129 153 147 130 138 146 145 
149 151 143 144 142 152 148 160 150 
141 164 163 161 158 166 165 155 154 
157 162 168 159 156 178 174 167 171 
172 169 175 176 173 170 179 177 185 
190 189 180 191 182 188 181 192 186 
187 184 200 183 198 199 203 195 204 
194 193 196 197 201 209 202 212 210 
217 205 207 214 206 208 213 222 215 
216 229 211 227 225 223 218 226 230 
224 228 220 219 221 234 237 240 236 
242 235 238 247 252 233 239 241 231 
249 250 255 232 245 251 248 244 254 
243 246 253 265 267 259 261 264 262 
260 256 268 258 263 266 257 
type 1 268 int
1 1 1 1 1 1 1 1 1 
1 1 1 1 1 1 1 1 1 
1 1 1 1 1 1 1 1 1 
1 1 1 1 1 1 1 1 1 
1 1 1 1 1 1 1 1 1 
1 1 1 1 1 1 1 1 1 
1 1 1 1 1 1 1 1 1 
1 1 1 1 1 1 1 1 1 
1 1 1 1 1 1 1 1 1 
1 1 1 1 1 1 1 1 1 
1 1 1 1 1 1 1 1 1 
1 1 1 1 1 1 1 1 1 
1 1 1 1 1 1 1 1 1 
1 1 1 1 1 1 1 1 1 
1 1 1 1 1 1 1 1 1 
1 1 1 1 1 1 1 1 1 
1 1 1 1 1 1 1 1 1 
1 1 1 1 1 1 1 1 1 
1 1 1 1 1 1 1 1 1 
1 1 1 1 1 1 1 1 1 
1 1 1 1 1 1 1 1 1 
1 1 1 1 1 1 1 1 1 
1 1 1 1 1 1 1 1 1 
1 1 1 1 1 1 1 1 1 
1 1 1 1 1 1 1 1 1 
1 1 1 1 1 1 1 1 1 
1 1 1 1 1 1 1 1 1 
1 1 1 1 1 1 1 1 1 
1 1 1 1 1 1 1 1 1 
1 1 1 1 1 1 1 
i 3 268 int
0 0 0 0 0 0 0 0 0 
0 0 0 0 0 0 0 0 0 
0 0 0 0 0 0 0 0 0 
0 0 0 0 0 0 0 0 0 
0 0 0 0 0 0 0 0 0 
0 0 0 0 0 0 0 0 0 
0 0 0 0 0 0 0 0 0 
0 0 0 0 0 0 0 0 0 
0 0 0 0 0 0 0 0 0 
0 0 0 0 0 0 0 0 0 
0 0 0 0 0 0 0 0 0 
0 0 0 0 0 0 0 0 0 
0 0 0 0 0 0 0 0 0 
0 0 0 0 0 0 0 0 0 
0 0 0 0 0 0 0 0 0 
0 0 0 0 0 0 0 0 0 
0 0 0 0 0 0 0 0 0 
0 0 0 0 0 0 0 0 0 
0 0 0 0 0 0 0 0 0 
0 0 0 0 0 0 0 0 0 
0 0 0 0 0 0 0 0 0 
0 0 0 0 0 0 0 0 0 
0 0 0 0 0 0 0 0 0 
0 0 0 0 0 0 0 0 0 
0 0 0 0 0 0 0 0 0 
0 0 0 0 0 0 0 0 0 
0 0 0 0 0 0 0 0 0 
0 0 0 0 0 0 0 0 0 
0 0 0 0 0 0 0 0 0 
0 0 0 0 0 0 0 0 0 
0 0 0 0 0 0 0 0 0 
0 0 0 0 0 0 0 0 0 
0 0 0 0 0 0 0 0 0 
0 0 0 0 0 0 0 0 0 
0 0 0 0 0 0 0 0 0 
0 0 0 0 0 0 0 0 0 
0 0 0 0 0 0 0 0 0 
0 0 0 0 0 0 0 0 0 
0 0 0 0 0 0 0 0 0 
0 0 0 0 0 0 0 0 0 
0 0 0 0 0 0 0 0 0 
0 0 0 0 0 0 0 0 0 
0 0 0 0 0 0 0 0 0 
0 0 0 0 0 0 0 0 0 
0 0 0 0 0 0 0 0 0 
0 0 0 0 0 0 0 0 0 
0 0 0 0 0 0 0 0 0 
0 0 0 0 0 0 0 0 0 
0 0 0 0 0 0 0 0 0 
0 0 0 0 0 0 0 0 0 
0 0 0 0 0 0 0 0 0 
0 0 0 0 0 0 0 0 0 
0 0 0 0 0 0 0 0 0 
0 0 0 0 0 0 0 0 0 
0 0 0 0 0 0 0 0 0 
0 0 0 0 0 0 0 0 0 
0 0 0 0 0 0 0 0 0 
0 0 0 0 0 0 0 0 0 
0 0 0 0 0 0 0 0 0 
0 0 0 0 0 0 0 0 0 
0 0 0 0 0 0 0 0 0 
0 0 0 0 0 0 0 0 0 
0 0 0 0 0 0 0 0 0 
0 0 0 0 0 0 0 0 0 
0 0 0 0 0 0 0 0 0 
0 0 0 0 0 0 0 0 0 
0 0 0 0 0 0 0 0 0 
0 0 0 0 0 0 0 0 0 
0 0 0 0 0 0 0 0 0 
0 0 0 0 0 0 0 0 0 
0 0 0 0 0 0 0 0 0 
0 0 0 0 0 0 0 0 0 
0 0 0 0 0 0 0 0 0 
0 0 0 0 0 0 0 0 0 
0 0 0 0 0 0 0 0 0 
0 0 0 0 0 0 0 0 0 
0 0 0 0 0 0 0 0 0 
0 0 0 0 0 0 0 0 0 
0 0 0 0 0 0 0 0 0 
0 0 0 0 0 0 0 0 0 
0 0 0 0 0 0 0 0 0 
0 0 0 0 0 0 0 0 0 
0 0 0 0 0 0 0 0 0 
0 0 0 0 0 0 0 0 0 
0 0 0 0 0 0 0 0 0 
0 0 0 0 0 0 0 0 0 
0 0 0 0 0 0 0 0 0 
0 0 0 0 0 0 0 0 0 
0 0 0 0 0 0 0 0 0 
0 0 0 
v 3 268 double
-1.28392 0.329757 -0.360681 -0.913451 -0.0161409 -0.382455 -1.08658 0.304478 -0.432307 
-0.797577 -0.0882762 -0.341107 -0.795019 0.484577 -0.654357 -0.682754 0.0300826 -0.181048 
-0.754932 -0.131896 -0.280841 -0.83453 -0.16493 -0.36902 -0.882951 -0.651827 -0.174476 
-1.17331 -0.103627 -0.799298 -0.758415 -0.0687266 -0.754881 -0.675549 -0.0195383 -0.282111 
-0.589189 -0.165845 -0.264659 -0.736005 0.109712 -0.307656 -0.501262 0.0527723 -0.259886 
-0.865008 -0.0373162 -0.589232 -0.571456 -0.0306028 -0.266133 -0.604972 -0.0504731 -0.25175 
-0.734374 0.0482482 -0.584014 -0.751122 -0.135668 -0.624405 -0.545378 0.0472899 -0.227424 
-0.605 0.145123 -0.238702 -0.746664 -0.0394094 -0.3987 -0.557706 -0.182231 -0.196062 
-0.726152 0.0093661 -0.609722 -0.607548 -0.439371 -0.50866 -0.674975 -0.29775 -0.299232 
-0.568685 -0.426375 -0.272963 -0.731981 -0.17096 -0.698157 -0.51845 -0.207923 -0.221825 
-0.842079 0.412598 -0.465533 -0.470386 0.0307539 -0.202571 -0.60494 0.255119 -0.531267 
-0.70153 0.0875305 -0.600903 -0.787471 0.0611242 -0.525202 -0.70218 0.128315 -0.513686 
-0.435493 -0.100394 -0.184302 -0.543899 0.248108 -0.887966 -0.440942 -0.199361 -0.231074 
-0.658905 -0.0779816 -0.309286 -0.441106 0.0184364 -0.322295 -0.408275 0.0221486 -0.163193 
-0.779896 0.222739 -0.405069 -0.802637 -0.227919 -0.243049 -0.601005 -0.171815 -0.584144 
-0.721115 0.167516 -0.475381 -0.564899 -0.144502 -0.333348 -0.544565 -0.333353 -0.779565 
-0.340296 -0.213959 -0.325442 -0.249275 0.110936 -0.105782 -0.445089 -0.192903 -0.390649 
-0.611441 -0.219245 -0.176129 -1.23946 -0.144349 -0.598705 -0.523462 0.156458 -0.256951 
-1.10925 0.269674 -0.741093 -0.558362 0.110748 -0.193612 -0.274981 0.0832537 -0.0190509 
-0.813267 -0.173107 -0.549722 -0.656462 -0.057253 -0.315603 -0.217686 0.264956 -0.0257042 
-0.671071 -0.241484 -0.369374 -0.628937 -0.0944997 -0.364369 -0.681748 0.0435733 0.0587385 
-0.47214 0.0678171 -0.14407 -0.702784 0.289149 -0.473172 -0.528904 -0.674677 -0.77769 
-0.400395 0.047831 -0.287602 -0.548943 0.1876 -0.343845 -0.484726 -0.220382 -0.114309 
-0.754074 0.166729 -0.313146 -0.689831 -0.0798154 -0.403122 -0.641327 0.271777 -0.0169086 
-0.202519 0.13429 0.188193 -0.410476 0.352128 0.190441 -0.535377 0.352885 0.256247 
-0.52677 -0.0300557 -0.298542 -0.672047 -0.116535 -0.262682 -0.837196 -0.225397 -0.21275 
-0.573375 -0.250595 -0.278115 -0.434815 0.220568 -0.341531 -0.567578 -0.340354 -0.0312168 
-0.48839 -0.0528297 -0.117077 -0.543944 -0.423626 -0.664851 -0.336442 0.00148827 -0.0445075 
-0.398784 0.213567 0.0190812 -0.716029 0.166335 0.268284 -0.720229 0.167311 0.0910649 
-0.544192 0.309144 -0.837408 -0.536133 -0.0370972 -0.274235 -0.718921 0.128452 0.260342 
-0.668813 0.00312804 -0.0349967 -0.719707 0.105982 -0.362784 -0.63239 -0.0698192 -0.323043 
-0.724285 0.00934202 0.166078 -0.257836 0.333963 0.0704359 -0.863132 -0.197113 -0.390054 
-0.751999 -0.0169154 -0.152232 -0.696237 -0.142094 -0.104541 -0.0552949 -0.287735 -0.0787902 
-0.216412 0.41179 -0.824792 -0.836164 -0.0656056 -0.0268483 -0.549261 -0.250025 0.15841 
-0.283532 -0.261153 0.232514 -0.719473 0.128551 0.201493 -0.599907 -0.0445909 0.0170592 
-0.721499 0.00930608 0.282701 -0.968952 0.0879421 -1.46048 -0.748776 -0.0168429 0.273292 
0.0183904 0.170925 0.0507359 -0.501421 0.148744 -0.155652 -0.604418 -0.246147 -0.0391336 
-0.401414 0.0728471 0.00951643 -0.347638 0.186387 0.236024 -0.718706 0.128414 0.0800241 
-0.731569 0.106017 0.175819 -0.556983 0.17566 0.0779416 0 0 -2.04344 
0.0489552 -0.0180924 -1.75964 -0.717527 -0.0266556 0.205939 -0.555071 -0.0248435 0.0261984 
-0.708353 -0.181999 0.133356 -0.733884 -0.171404 -0.168966 -0.713518 -0.3266 0.0874171 
-0.0968123 -0.630754 0.114493 -0.697724 -0.267904 0.0112487 0 0 -2.00754 
-0.303243 0.220545 -1.39698 0 0 -2.00597 0 0 -1.98752 
0 0 -1.98929 0 0 -1.96869 0 0 -1.9834 
0 0 -1.96682 0 0 -1.95966 0 0 -1.92101 
0 0 -1.91709 0 0 -1.9111 0 0 -1.89865 
0 0 -1.90071 0 0 -1.90551 0 0 -1.89933 
0 0 -1.91042 0 0 -1.87765 0 0 -1.86205 
0 0 -1.87088 0 0 -1.87098 0 0 -1.84381 
0 0 -1.82978 0 0 -1.81879 0 0 -1.83194 
0 0 -1.81801 0 0 -1.80516 0 0 -1.8132 
0 0 -1.80104 0 0 -1.7717 0 0 -1.75993 
0 0 -1.77769 0 0 -1.77739 0 0 -1.74983 
0 0 -1.75257 0 0 -1.73511 0 0 -1.73384 
0 0 -1.71255 0 0 -1.71539 0 0 -1.70078 
0 0 -1.71216 0 0 -1.71069 0 0 -1.70274 
0 0 -1.68459 0 0 -1.6688 0 0 -1.6379 
0 0 -1.64319 0 0 -1.64712 0 0 -1.65447 
0 0 -1.6224 0 0 -1.62632 0 0 -1.62377 
0 0 -1.62799 0 0 -1.62083 0 0 -1.58492 
0 0 -1.58306 0 0 -1.5807 0 0 -1.57629 
0 0 -1.58885 0 0 -1.58473 0 0 -1.5602 
0 0 -1.53293 0 0 -1.52734 0 0 -1.53528 
0 0 -1.52361 0 0 -1.52979 0 0 -1.50016 
0 0 -1.50683 0 0 -1.50379 0 0 -1.5033 
0 0 -1.48947 0 0 -1.47819 0 0 -1.48005 
0 0 -1.46642 0 0 -1.46887 0 0 -1.44739 
0 0 -1.43267 0 0 -1.43444 0 0 -1.41383 
0 0 -1.42433 0 0 -1.41158 0 0 -1.39922 
0 0 -1.38107 0 0 -1.38627 0 0 -1.38068 
0 0 -1.35488 0 0 -1.3277 0 0 -1.3434 
0 0 -1.3384 0 0 -1.3125 0 0 -1.32221 
0 0 -1.32084 0 0 -1.29867 0 0 -1.31946 
0 0 -1.27247 0 0 -1.28876 0 0 -1.28375 
0 0 -1.24216 0 0 -1.26492 0 0 -1.24255 
0 0 -1.22254 0 0 -1.23127 0 0 -1.22205 
0 0 -1.22362 0 0 -1.21136 0 0 -1.19929 
0 0 -1.20508 0 0 -1.20449 0 0 -1.15711 
0 0 -1.17114 0 0 -1.15152 0 0 -1.15161 
0 0 -1.12189 0 0 -1.12159 0 0 -1.12483 
0 0 -1.14014 0 0 -1.12444 0 0 -1.13866 
0 0 -1.10668 0 0 -1.11757 0 0 -1.10139 
0 0 -1.1163 0 0 -1.10423 0 0 -1.05822 
0 0 -1.07205 0 0 -1.07765 0 0 -1.06803 
0 0 -1.03281 0 0 -1.03998 0 0 -1.02457 
0 0 -1.01241 0 0 -1 0 0 -1.00809 
0 0 -1 0 0 -1 0 0 -1 
0 0 -1 0 0 -1 0 0 -1 
0 0 -1 0 0 -1 0 0 -1 
0 0 -1 
f 3 268 double
5.45109e-05 0.000120476 -0.000529185 -0.00250221 -0.000106496 0.00509392 -0.000154135 -3.8796e-05 0.000277137 
-9.83074e-05 -2.08702e-05 -1.39142e-05 0 0 -0.000346714 -0.0469017 0.0157873 0.0800574 
0 0 -0.00160516 -0.000409102 -8.69801e-05 -0.000182121 0 0 -0.000346714 
0 0 -0.000346714 0 0 -0.00160516 -0.000440026 4.46529e-05 -0.000114197 
0 0 -0.000346714 -0.000196949 5.22768e-06 -0.000900922 0 0 -0.00160516 
0 0 -0.000346714 0.00147981 -0.000545708 0.0275566 -6.64147e-05 -0.000423465 2.81643e-06 
0 0 -0.000346714 0 0 -0.000346714 -6.4267e-05 -4.62732e-06 -0.000101076 
-0.000128587 -2.73082e-05 4.8185e-05 0 0 -0.000346714 -4.99267e-05 -2.97084e-05 -0.000604014 
0 0 -0.00160516 0 0 -0.000346714 0 0 -0.000346714 
0 0 -0.000346714 0 0 -0.000346714 0 0 -0.00160516 
0 0 -0.000346714 -0.000125392 3.42066e-05 4.75463e-05 0 0 -0.00160516 
0 0 -0.000346714 0 0 -0.000346714 0 0 -0.000346714 
0 0 -0.00160516 0 0 -0.000346714 0 0 -0.00160516 
0 0 -0.00160516 0.00501792 -0.0119453 0.0608561 -8.40423e-05 -4.15706e-05 -4.29648e-05 
0 0 -0.00160516 0 0 -0.000346714 0.0114759 0.00863889 0.17445 
0 0 -0.000346714 0 0 -0.000346714 0 0 -0.000346714 
0 0 -0.000346714 -0.00576151 -0.00964569 0.00851958 0.00754777 0.00208571 -0.00169271 
0 0 -0.000346714 0 0 -0.000346714 0 0 -0.00160516 
0 0 -0.000346714 0 0 -0.00160516 0 0 -0.000346714 
0 0 -0.00160516 0 0 -0.000346714 -0.00463754 -0.00482924 0.00654314 
0 0 -0.00160516 0 0 -0.00160516 0 0 -0.000346714 
0 0 -0.000346714 0 0 -0.000346714 0 0 -0.000346714 
0 0 -0.000346714 0 0 -0.000346714 -0.00278403 0.00668788 -0.00743264 
0 0 -0.000346714 0 0 -0.00160516 0.00723494 0.00170778 -0.0203942 
0 0 -0.000346714 0 0 -0.00160516 0 0 -0.00160516 
0 0 -0.00160516 0 0 -0.000346714 0 0 -0.000346714 
0 0 -0.000346714 0 0 -0.000346714 0 0 -0.000346714 
0 0 -0.000346714 0 0 -0.00160516 0 0 -0.000346714 
0 0 -0.00160516 0 0 -0.000346714 0 0 -0.000346714 
0 0 -0.000346714 0 0 -0.00160516 0 0 -0.000346714 
0 0 -0.000346714 0 0 -0.000346714 0 0 -0.00160516 
0 0 -0.000346714 0 0 -0.00160516 0 0 -0.00160516 
0 0 -0.000346714 0 0 -0.00160516 0 0 -0.000346714 
-0.151593 -0.0269415 0.927202 0 0 -0.00160516 0 0 -0.000346714 
0 0 -0.000346714 0 0 -0.000346714 0 0 -0.000346714 
0 0 -0.00160516 0 0 -0.000346714 0 0 -0.000346714 
0 0 -0.000346714 0 0 -0.000346714 0 0 -0.000346714 
0 0 -0.000346714 0 0 -0.00160516 0 0 -0.000346714 
0 0 -0.000346714 0 0 -0.000346714 0 0 -0.000346714 
0 0 -0.00160516 0 0 -0.00160516 0.102301 -0.117046 -0.173332 
0 0 -0.00160516 0 0 -0.000346714 0 0 -0.000346714 
-7.4134e-05 4.2064e-05 -6.39634e-05 0 0 -0.00160516 0 0 -0.000346714 
-0.102301 0.117046 0.17138 0 0 -0.000346714 0 0 -0.000346714 
0 0 -0.000346714 0 0 -0.000346714 0 0 -0.00160516 
0 0 -0.00160516 0 0 -0.000346714 0 0 -0.000346714 
0 0 -0.000346714 0 0 -0.00160516 0 0 -0.00160516 
0 0 -0.000346714 0 0 -0.000346714 0 0 -0.00160516 
0 0 -0.000346714 0 0 -0.000346714 0 0 -0.00160516 
0 0 -0.000346714 0 0 -0.000346714 0 0 -0.00160516 
0 0 -0.00160516 0 0 -0.00160516 0 0 -0.000346714 
0 0 -0.000346714 0 0 -0.000346714 0 0 -0.000346714 
0 0 -0.00160516 0 0 -0.000346714 0 0 -0.000346714 
0 0 -0.000346714 0 0 -0.00160516 0 0 -0.000346714 
0 0 -0.000346714 0 0 -0.00160516 0 0 -0.00160516 
0 0 -0.00160516 0 0 -0.000346714 0 0 -0.00160516 
0 0 -0.000346714 0 0 -0.00160516 0 0 -0.000346714 
0 0 -0.000346714 0 0 -0.00160516 0 0 -0.000346714 
0 0 -0.000346714 0 0 -0.00160516 0 0 -0.000346714 
0 0 -0.000346714 0 0 -0.000346714 0 0 -0.00160516 
0 0 -0.000346714 0 0 -0.000346714 0 0 -0.000346714 
0 0 -0.000346714 0 0 -0.000346714 0 0 -0.00160516 
0 0 -0.000346714 0 0 -0.00160516 0 0 -0.000346714 
0 0 -0.00160516 0 0 -0.000346714 0 0 -0.000346714 
0 0 -0.000346714 0 0 -0.000346714 0 0 -0.000346714 
0 0 -0.00160516 0 0 -0.000346714 0 0 -0.000346714 
0 0 -0.000346714 0 0 -0.00160516 0 0 -0.000346714 
0 0 -0.00160516 0 0 -0.00160516 0 0 -0.00160516 
0 0 -0.000346714 0 0 -0.000346714 0 0 -0.000346714 
0 0 -0.000346714 0 0 -0.000346714 0 0 -0.000346714 
0 0 -0.000346714 0 0 -0.00160516 0 0 -0.00160516 
0 0 -0.000346714 0 0 -0.00160516 0 0 -0.00160516 
0 0 -0.000346714 0 0 -0.000346714 0 0 -0.000346714 
0 0 -0.000346714 0 0 -0.000346714 0 0 -0.000346714 
0 0 -0.000346714 0 0 -0.000346714 0 0 -0.000346714 
0 0 -0.00160516 0 0 -0.000346714 0 0 -0.000346714 
0 0 -0.000346714 0 0 -0.000346714 0 0 -0.00160516 
0 0 -0.00160516 0 0 -0.00160516 0 0 -0.00160516 
0 0 -0.000346714 0 0 -0.000346714 0 0 -0.000346714 
0 0 -0.000346714 0 0 -0.000346714 0 0 -0.000346714 
0 0 -0.000346714 0 0 -0.000346714 0 0 -0.00160516 
0 0 -0.000346714 0 0 -0.000346714 0 0 -0.00160516 
0 0 -0.000346714 0 0 -0.000346714 0 0 -0.000346714 
0 0 -0.00160516 0 0 -0.00160516 0 0 -0.000346714 
0 0 -0.000346714 0 0 -0.00160516 0 0 -0.000346714 
0 0 -0.00160516 0 0 -0.00160516 0 0 -0.000346714 
0 0 -0.000346714 0 0 0 0 0 -0.00160516 
0 0 0 0 0 0 0 0 0 
0 0 0 0 0 0 0 0 0 
0 0 0 0 0 0 0 0 0 
0 0 0 
radius 1 268 double
0.0015 0.0025 0.0015 0.0015 0.0015 0.0025 0.0025 0.0025 0.0015 
0.0015 0.0025 0.0025 0.0015 0.0025 0.0025 0.0015 0.0025 0.0025 
0.0015 0.0015 0.0015 0.0015 0.0015 0.0015 0.0025 0.0015 0.0015 
0.0015 0.0015 0.0025 0.0015 0.0015 0.0025 0.0015 0.0015 0.0015 
0.0025 0.0015 0.0025 0.0025 0.0025 0.0015 0.0025 0.0015 0.0015 
0.0015 0.0015 0.0015 0.0015 0.0015 0.0025 0.0015 0.0015 0.0025 
0.0015 0.0025 0.0015 0.0025 0.0015 0.0015 0.0025 0.0025 0.0015 
0.0015 0.0015 0.0015 0.0015 0.0015 0.0015 0.0015 0.0025 0.0015 
0.0015 0.0025 0.0025 0.0025 0.0015 0.0015 0.0015 0.0015 0.0015 
0.0015 0.0025 0.0015 0.0025 0.0015 0.0015 0.0015 0.0025 0.0015 
0.0015 0.0015 0.0025 0.0015 0.0025 0.0025 0.0015 0.0025 0.0015 
0.0025 0.0025 0.0015 0.0015 0.0015 0.0015 0.0025 0.0015 0.0015 
0.0015 0.0015 0.0015 0.0015 0.0025 0.0015 0.0015 0.0015 0.0015 
0.0025 0.0025 0.0025 0.0025 0.0015 0.0015 0.0015 0.0025 0.0015 
0.0015 0.0015 0.0015 0.0015 0.0015 0.0025 0.0025 0.0015 0.0015 
0.0015 0.0025 0.0025 0.0015 0.0015 0.0025 0.0015 0.0015 0.0025 
0.0015 0.0015 0.0025 0.0025 0.0025 0.0015 0.0015 0.0015 0.0015 
0.0025 0.0015 0.0015 0.0015 0.0025 0.0015 0.0015 0.0025 0.0025 
0.0025 0.0015 0.0025 0.0015 0.0025 0.0015 0.0015 0.0025 0.0015 
0.0015 0.0025 0.0015 0.0015 0.0015 0.0025 0.0015 0.0015 0.0015 
0.0015 0.0015 0.0025 0.0015 0.0025 0.0015 0.0025 0.0015 0.0015 
0.0015 0.0015 0.0015 0.0025 0.0015 0.0015 0.0015 0.0025 0.0015 
0.0025 0.0025 0.0025 0.0015 0.0015 0.0015 0.0015 0.0015 0.0015 
0.0015 0.0025 0.0025 0.0015 0.0025 0.0025 0.0015 0.0015 0.0015 
0.0015 0.0015 0.0015 0.0015 0.0015 0.0015 0.0025 0.0015 0.0015 
0.0015 0.0015 0.0025 0.0025 0.0025 0.0025 0.0015 0.0015 0.0015 
0.0015 0.0015 0.0015 0.0015 0.0015 0.0025 0.0015 0.0015 0.0025 
0.0015 0.0015 0.0015 0.0025 0.0025 0.0015 0.0015 0.0025 0.0015 
0.0025 0.0025 0.0015 0.0015 0.0015 0.0025 0.0015 0.0015 0.0015 
0.0025 0.0025 0.0015 0.0025 0.0015 0.0015 0.0025 
omega 3 268 double
-168.777 -895.726 -223.215 7.74913 -396.368 -1.73741 -205.944 -786.493 -34.7101 
46.7378 -582.211 41.3927 -290.882 -478.026 -81.3764 -40.472 -328.217 -28.4132 
68.0876 -310.167 -27.9612 70.3842 -364.477 3.72713 360.584 -555.748 324.56 
223.792 43.9312 132.357 -52.4008 98.7619 -74.1281 -12.9088 -291.097 50.9957 
131.712 -420.071 -27.8206 -33.476 -318.809 -33.6628 -24.986 207.143 89.9748 
3.52199 -309.304 50.6921 13.8527 -230.421 11.5255 26.2836 -254.843 7.0685 
-24.4494 -372.138 -2.16393e-14 68.91 -381.518 1.52786e-15 7.49916 -392.071 -99.1894 
-76.4833 -432.512 -69.0439 -58.5403 -560.706 186.267 205.771 -421.875 -169.804 
-2.88476 -223.655 8.14399e-15 110.351 -401.955 64.3624 110.079 -457.453 248.994 
324.672 -399.737 -43.4748 87.7754 -375.82 7.54462e-14 97.1904 -219.9 -18.6274 
-446.913 234.09 -362.078 -26.511 -341.576 9.62627 -126.164 0.0773981 -84.9627 
-20.8532 -342.773 10.4058 45.5675 -318.019 -12.7324 23.667 -304.28 -2.3266 
76.4285 -94.2305 47.7822 155.946 -391.402 87.2272 53.8833 -180.828 71.626 
18.5471 -247.316 9.74417 -2.38433 -191.182 13.9317 -12.3161 -297.609 -9.57916 
-90.7521 -309.878 12.1817 32.5378 -427.033 132.192 46.0313 -602.883 112.666 
-85.075 -366.226 -2.03436e-14 203.13 116.073 410.428 146.267 345.719 -177.013 
-173.67 -316.101 -8.31994 164.25 -251.888 34.1512 123.9 -29.0937 3.21365 
55.9241 -565.52 92.9646 110.289 -430.322 67.9402 -240.258 -25.9599 -41.0696 
251.275 -240.352 79.1724 -39.8855 -212.248 -72.7804 -17.7197 -178.108 -118.45 
39.7104 -94.3968 61.4144 132.569 -184.439 43.2833 62.7221 -213.282 -100.865 
87.888 -253.21 -5.38085 -0.851892 -169.598 76.1642 -15.6595 -402.392 10.4108 
30.0685 -332.153 -175.032 -147.371 -358.188 1.97685e-13 -183.345 -33.37 -8.34852 
-270.979 27.3866 1.42987 -185.766 -5.44184 -58.7458 -14.0857 67.4731 -83.4491 
-80.5104 -322.816 -4.14016 -113.498 -124.313 -98.8802 -174.104 -399.599 -52.3318 
-50.5535 -68.7783 -107.467 -120.255 -118.887 -101.361 -148.329 -0.415105 -27.6093 
-0.355899 -94.5634 31.8696 -2.88042 -194.131 151.806 123.424 -465.216 -15.1404 
146.749 -298.063 11.7642 -30.9427 136.433 -85.1596 180.024 -330.642 87.9552 
78.0594 -304.424 -110.947 -212.588 -241.787 -143.58 -6.74046 -188.781 -31.7439 
-33.7696 -163.383 -120.253 -85.0917 -366.298 2.01232e-14 -86.126 -370.75 -2.96939e-14 
-55.7791 127.493 -52.9812 91.4307 -175.378 -4.85905 -65.989 -369.326 1.85679e-14 
-6.47273 -418.907 -39.0437 -75.3805 -290.123 -18.5349 27.1779 -184.415 10.7844 
-4.75857 -368.932 3.77459e-15 -256.846 361.233 -42.2708 72.1156 -125.044 39.9582 
8.65103 -384.594 9.41941e-15 44.8526 -242.259 14.3008 169.218 -34.2912 88.8831 
-90.9789 -209.375 -97.2262 65.6429 -302.037 -16.9259 199.58 -303.107 44.8222 
176.033 -100.188 124.851 -65.2979 -365.459 1.22387e-13 -14.9639 -329.371 -129.897 
-2.84788 -220.796 4.2013e-16 72.1596 463.353 27.3958 8.60964 -382.754 -1.14207e-14 
-150.286 70.7739 32.7059 -367.184 179.359 -74.8582 148.693 -356.939 29.5816 
52.3134 -33.7997 45.947 27.3273 209.278 1.60352 -65.1105 -364.409 -6.12153e-14 
-53.9992 -372.622 1.12953e-13 -105.816 -315.18 -13.2345 0 0 0 
9.48139 115.835 5.51477 8.20609 -220.896 4.94309e-15 -89.859 -221.898 -59.2115 
55.729 -216.902 -1.16205e-14 87.9936 -376.754 2.1691e-14 170.081 -371.573 1.78599e-13 
362.164 -9.46678 254.273 82.9871 -216.13 8.7016e-15 0 0 0 
-649.178 -195.372 -253.451 0 0 0 0 0 0 
0 0 0 0 0 0 0 0 0 
0 0 0 0 0 0 0 0 0 
0 0 0 0 0 0 0 0 0 
0 0 0 0 0 0 0 0 0 
0 0 0 0 0 0 0 0 0 
0 0 0 0 0 0 0 0 0 
0 0 0 0 0 0 0 0 0 
0 0 0 0 0 0 0 0 0 
0 0 0 0 0 0 0 0 0 
0 0 0 0 0 0 0 0 0 
0 0 0 0 0 0 0 0 0 
0 0 0 0 0 0 0 0 0 
0 0 0 0 0 0 0 0 0 
0 0 0 0 0 0 0 0 0 
0 0 0 0 0 0 0 0 0 
0 0 0 0 0 0 0 0 0 