# vtk DataFile Version 4.0
Generated by LIGGGHTS
ASCII
DATASET POLYDATA
POINTS 523 float
-0.406473 0.0548876 -0.260394 -0.352602 -0.0245581 -0.252813 -0.359718 0.0444545 -0.248083 
-0.328505 -0.00367997 -0.243346 -0.298936 -0.00926274 -0.231754 -0.293763 -0.0117354 -0.228221 
-0.292478 -0.00783067 -0.229191 -0.291047 0.000563967 -0.228839 -0.296605 0.00447987 -0.230933 
-0.290379 -0.0171276 -0.227226 -0.278974 0.0101797 -0.222096 -0.271107 0.00832817 -0.220013 
-0.269898 0.0164242 -0.218632 -0.273481 -0.0393641 -0.21323 -0.265573 0.00334685 -0.216854 
-0.262682 0.00934567 -0.216431 -0.260177 0.0151364 -0.214748 -0.267411 -0.0362092 -0.212893 
-0.254668 -0.010355 -0.213058 -0.251244 -0.00492742 -0.2119 -0.259751 0.019471 -0.212811 
-0.309055 0.063747 -0.212617 -0.249141 -0.000555644 -0.210058 -0.259714 0.0358459 -0.210016 
-0.240139 -0.00339121 -0.206215 -0.236294 0.00465 -0.205512 -0.238831 0.0118992 -0.206222 
-0.252702 -0.0527586 -0.200068 -0.240219 -0.0307249 -0.202362 -0.233391 -0.0138664 -0.202551 
-0.227722 -0.0126686 -0.200253 -0.228045 -0.00624823 -0.202005 -0.227863 0.000927748 -0.201979 
-0.224284 -0.020769 -0.197847 -0.219369 -0.0155443 -0.197528 -0.224209 -0.00776361 -0.199185 
-0.217756 -0.00396292 -0.197853 -0.216595 -0.000445591 -0.197314 -0.213923 0.00244148 -0.196136 
-0.220169 0.012142 -0.197176 -0.218817 -0.026635 -0.194306 -0.21129 -0.0150274 -0.194159 
-0.212303 -0.00812994 -0.195276 -0.212783 -0.00170189 -0.19461 -0.208728 -0.0019407 -0.193414 
-0.21028 0.00369218 -0.193493 -0.206385 0.00297536 -0.192958 -0.204761 -0.022113 -0.190627 
-0.205385 -0.0172291 -0.191424 -0.201494 -0.0171246 -0.189819 -0.196174 -0.00504711 -0.188629 
-0.196867 0.00177125 -0.188941 -0.200808 0.00428582 -0.189551 -0.201163 0.0137908 -0.188954 
-0.192426 -0.00163369 -0.185991 -0.196629 0.00636631 -0.187798 -0.190725 0.00514688 -0.186151 
-0.19285 0.00898032 -0.185856 -0.199353 0.0201227 -0.187556 -0.192358 -0.0286014 -0.184093 
-0.183501 -0.0213935 -0.181753 -0.18503 -0.0170048 -0.181821 -0.18069 -0.0165519 -0.180819 
-0.182512 -0.0111266 -0.18148 -0.17896 -0.00799319 -0.181255 -0.18123 -0.00621107 -0.182242 
-0.187257 0.00691026 -0.184824 -0.20485 0.0123602 -0.184421 -0.210282 0.023758 -0.183855 
-0.175853 -0.0204552 -0.178735 -0.17415 -0.0172319 -0.178432 -0.178531 -0.0122997 -0.180747 
-0.171301 -0.00789336 -0.178095 -0.177251 -0.00469908 -0.179059 -0.181088 -0.0017531 -0.181181 
-0.176343 0.000225356 -0.180233 -0.170912 0.00153439 -0.178067 -0.178079 0.00992458 -0.18029 
-0.175081 0.0157076 -0.17891 -0.182321 0.0239766 -0.180771 -0.243407 0.0768405 -0.179119 
-0.175414 -0.0382273 -0.174809 -0.168553 -0.0196092 -0.174671 -0.166272 -0.0122985 -0.175616 
-0.163162 -0.0105148 -0.174463 -0.169462 -0.00406763 -0.176312 -0.177132 0.000434011 -0.176221 
-0.163903 0.0020039 -0.174588 -0.173606 0.0121219 -0.177499 -0.169301 0.0175536 -0.175065 
-0.193966 0.0488498 -0.177944 -0.291697 -0.0835188 -0.174408 -0.17594 -0.0443434 -0.173039 
-0.166938 -0.0388923 -0.171044 -0.159799 -0.0223926 -0.171745 -0.162146 -0.0171969 -0.171834 
-0.154801 -0.0100016 -0.170959 -0.158292 -0.0079666 -0.171119 -0.164496 -0.00603591 -0.172811 
-0.156501 0.00225937 -0.171914 -0.156935 0.00883564 -0.171963 -0.162706 0.0257829 -0.172198 
-0.171053 0.0408098 -0.172056 -0.188118 0.0571516 -0.171597 -0.158055 -0.0270578 -0.170166 
-0.156434 -0.0235678 -0.169079 -0.154872 -0.0168854 -0.169285 -0.151542 -0.0129049 -0.167766 
-0.152123 0.00120897 -0.170126 -0.148855 0.00415796 -0.168695 -0.154101 0.0147998 -0.170211 
-0.15745 0.0281536 -0.169383 -0.156742 0.0323549 -0.168489 -0.142879 -0.0128583 -0.165731 
-0.143849 -0.00886199 -0.166457 -0.140567 -0.00144835 -0.165352 -0.13995 0.0028571 -0.164952 
-0.143997 0.00679333 -0.164474 -0.144081 0.0116301 -0.166347 -0.14133 0.0132583 -0.163901 
-0.145161 0.0160146 -0.166312 -0.142585 0.0170146 -0.165145 -0.148758 -0.0428905 -0.162408 
-0.145169 -0.0374237 -0.162526 -0.149793 -0.0166346 -0.163427 -0.139831 -0.0161271 -0.16305 
-0.138354 -0.00953129 -0.163061 -0.134019 -0.00840008 -0.162369 -0.136811 -0.00418377 -0.16339 
-0.136849 0.000128334 -0.1627 -0.136771 0.0110106 -0.163333 -0.13833 0.0233792 -0.162542 
-0.144588 0.0274212 -0.163335 -0.139774 0.0275624 -0.162434 -0.14174 0.030232 -0.162627 
-0.152078 -0.0598198 -0.157348 -0.134816 -0.0253485 -0.15972 -0.130855 -0.0235709 -0.159394 
-0.12939 -0.015998 -0.158741 -0.128426 -0.0102752 -0.158764 -0.12443 -0.0117004 -0.158038 
-0.138089 -0.00877346 -0.159144 -0.128744 -0.00533641 -0.159168 -0.147434 0.00352877 -0.158587 
-0.124824 0.00910388 -0.157209 -0.124724 0.0153066 -0.157885 -0.134673 0.0236732 -0.15983 
-0.128035 0.0298825 -0.157174 -0.131822 0.0346727 -0.157631 -0.127054 -0.0331585 -0.156016 
-0.121636 -0.0175576 -0.155289 -0.117849 -0.0110229 -0.155324 -0.113185 -0.0110038 -0.153351 
-0.114774 -0.00392639 -0.15332 -0.142359 -0.000627309 -0.153826 -0.114333 0.00910091 -0.153949 
-0.120097 0.0119081 -0.155092 -0.115299 0.0133471 -0.152968 -0.125499 0.0194745 -0.156621 
-0.122075 0.0236974 -0.155667 -0.124809 0.0308934 -0.154439 -0.188057 0.0823554 -0.155471 
-0.1071 -0.019301 -0.150026 -0.110949 -0.0135068 -0.151161 -0.107079 -0.0115342 -0.15075 
-0.111695 -0.00760968 -0.151835 -0.107752 -0.0064105 -0.14955 -0.112133 0.000174212 -0.152212 
-0.111777 0.00489766 -0.152766 -0.110805 0.0121232 -0.151154 -0.124856 0.0441246 -0.151172 
-0.143268 0.0592151 -0.152933 -0.105142 -0.0218126 -0.148861 -0.101956 -0.0240048 -0.147238 
-0.101662 -0.0175149 -0.146891 -0.102465 -0.0129031 -0.148714 -0.117252 -0.00740467 -0.146333 
-0.100597 -0.00294229 -0.14844 -0.108542 0.00323199 -0.149115 -0.101356 0.00135596 -0.147652 
-0.0965842 0.000355556 -0.14659 -0.118589 0.0126412 -0.150028 -0.106062 0.0131062 -0.149093 
-0.0982626 0.0137621 -0.146834 -0.097338 0.0165961 -0.146224 -0.124691 0.0262317 -0.148537 
-0.102422 0.0334534 -0.145747 -0.108424 0.0361759 -0.147527 -0.0936273 -0.0300185 -0.141807 
-0.0985684 -0.0231033 -0.145944 -0.0998117 -0.0120107 -0.144741 -0.0947222 -0.00477708 -0.145945 
-0.0931389 -0.00199792 -0.145293 -0.0902066 -0.00275418 -0.144078 -0.0921735 0.00208116 -0.14376 
-0.104462 0.00547243 -0.145305 -0.0941305 0.00704237 -0.145639 -0.0884577 0.00383202 -0.143258 
-0.0913799 0.00705095 -0.144458 -0.0902509 0.0107185 -0.143716 -0.0940669 0.0128285 -0.145139 
-0.108409 0.0384859 -0.145198 -0.101066 0.0455537 -0.142162 -0.090315 -0.0363366 -0.140089 
-0.0893504 -0.0216723 -0.141315 -0.0834794 -0.0228617 -0.139452 -0.0888721 -0.00990167 -0.142093 
-0.0884551 -0.00560426 -0.140899 -0.0840312 -0.00271439 -0.139987 -0.0796492 0.00532912 -0.139021 
-0.0905624 0.00727081 -0.140556 -0.0854384 0.00797449 -0.140843 -0.0896072 0.0135533 -0.142393 
-0.0864614 0.0173828 -0.140485 -0.0862633 0.0278397 -0.138813 -0.0895751 0.0318453 -0.140771 
-0.117358 0.0586191 -0.140958 -0.101305 -0.05919 -0.137344 -0.0832198 -0.0408058 -0.135714 
-0.0951024 -0.0194378 -0.135898 -0.0788346 -0.0162193 -0.13851 -0.0773923 -0.012978 -0.138185 
-0.0697394 -0.00955578 -0.135127 -0.109408 -0.0051441 -0.140674 -0.0758674 -0.0057156 -0.136727 
-0.0708283 -0.00488724 -0.135812 -0.0709568 0.0101392 -0.135678 -0.07754 0.0106296 -0.138392 
-0.0742879 0.0120956 -0.136903 -0.0718531 0.0131126 -0.135478 -0.0734705 0.0158215 -0.13622 
-0.0939298 0.0343774 -0.138023 -0.0842673 0.0416593 -0.136245 -0.114062 -0.0780841 -0.132763 
-0.0723664 -0.0294109 -0.133991 -0.0647777 -0.0155856 -0.132067 -0.0718476 -0.00686239 -0.132495 
-0.0647686 -0.00866772 -0.133079 -0.0616176 -0.008427 -0.131765 -0.0848516 -0.00205633 -0.134687 
-0.0788906 -0.00144787 -0.135379 -0.0739843 0.00143369 -0.134769 -0.0654216 -0.000823702 -0.133592 
-0.0989857 0.00529973 -0.136844 -0.0686147 0.00376739 -0.133799 -0.0645162 0.00848584 -0.131923 
-0.0674194 0.010499 -0.134167 -0.0620331 0.011815 -0.131792 -0.0652023 0.0194433 -0.132388 
-0.0749546 0.0429659 -0.131617 -0.105858 -0.0768902 -0.130314 -0.0601926 -0.0232687 -0.129826 
-0.0604087 -0.0190778 -0.130405 -0.0790065 -0.0159328 -0.132011 -0.0716879 -0.0155089 -0.1305 
-0.0614887 -0.0160505 -0.131219 -0.0568453 -0.0149201 -0.12834 -0.058526 -0.00725333 -0.129426 
-0.0605005 -0.0026407 -0.130466 -0.0712207 0.0033448 -0.128713 -0.0554584 0.00539285 -0.129288 
-0.0685816 0.00911135 -0.13152 -0.0585308 0.00869333 -0.130502 -0.0654154 0.0275847 -0.129817 
-0.0628729 0.0324443 -0.12949 -0.0859685 -0.0140929 -0.127467 -0.0516046 -0.0158259 -0.126868 
-0.0495046 -0.0132117 -0.126448 -0.0519396 -0.00818899 -0.126338 -0.0674783 0.00537752 -0.126596 
-0.0524818 0.00609258 -0.126223 -0.0758235 0.0110989 -0.129239 -0.0620523 0.0107642 -0.128983 
-0.0660477 0.0135818 -0.129042 -0.0511762 0.0178601 -0.126746 -0.0591968 0.0222159 -0.128122 
-0.0742817 -0.0692851 -0.12235 -0.0674451 -0.0336407 -0.124229 -0.0813123 -0.0270206 -0.123865 
-0.0585776 -0.0223098 -0.123916 -0.0547924 -0.0179565 -0.12501 -0.0401355 -0.0171749 -0.122099 
-0.0365325 -0.0170053 -0.120584 -0.0664495 -0.0134565 -0.125137 -0.0543867 -0.0115367 -0.121167 
-0.0372296 -0.0134055 -0.121097 -0.0634555 -0.00700348 -0.123525 -0.0422321 -0.0051984 -0.123677 
-0.0431966 -0.00706314 -0.120714 -0.0406073 -0.00157036 -0.122011 -0.0510494 -0.000312816 -0.123032 
-0.0401483 0.0095147 -0.121379 -0.0482746 0.0153578 -0.124698 -0.0426528 0.0182807 -0.121959 
-0.0519365 0.0351543 -0.123208 -0.0472347 0.0382913 -0.121813 -0.0559303 0.039691 -0.123974 
-0.0522322 0.0498658 -0.120846 -0.042848 -0.0382513 -0.118445 -0.0353959 -0.0239737 -0.116983 
-0.0773119 -0.0216369 -0.119965 -0.0684911 -0.0158097 -0.118985 -0.0521879 -0.0175076 -0.122022 
-0.0731112 -0.0105555 -0.119525 -0.0378883 -0.0144719 -0.117994 -0.0341492 -0.00805544 -0.119099 
-0.0527928 -4.35796e-06 -0.117969 -0.0449037 0.00427318 -0.123998 -0.0353122 0.00714783 -0.120512 
-0.0753236 0.00927298 -0.121346 -0.033741 0.0133354 -0.119435 -0.027914 0.00995624 -0.11744 
-0.035261 0.0169752 -0.118842 -0.0379207 0.0213457 -0.119583 -0.0648036 0.0265188 -0.117722 
[...]
POINT_DATA 523
FIELD FieldData 7
id 1 523 int
22 35 32 16 6 2 11 44 10 
12 1 57 25 14 30 23 38 13 
19 7 29 20 3 21 4 69 47 
33 28 5 40 56 73 54 45 27 
89 61 36 66 93 37 8 52 77 
42 59 85 100 87 133 176 55 15 
41 39 71 17 94 173 113 80 50 
78 74 58 31 91 120 101 98 46 
110 53 92 86 162 125 102 84 60 
76 43 18 112 67 131 164 65 145 
147 51 63 62 24 103 75 130 137 
111 48 153 88 117 95 26 104 196 
190 121 108 126 34 179 150 82 184 
68 160 118 138 107 174 171 178 168 
180 177 198 195 127 163 193 114 122 
97 141 140 79 129 202 148 142 186 
144 159 106 49 151 70 132 166 123 
115 207 210 156 105 154 83 158 139 
189 183 136 116 229 143 204 169 119 
81 134 225 157 149 187 146 209 205 
197 241 170 252 212 219 64 99 201 
265 181 200 152 161 182 215 175 224 
124 96 254 213 72 185 172 223 221 
276 245 261 206 128 228 208 230 199 
155 109 305 167 236 280 267 250 233 
238 266 191 226 242 264 251 278 135 
263 214 249 227 235 244 220 273 247 
211 218 194 192 262 253 289 188 222 
255 272 295 203 258 259 232 314 240 
292 248 256 275 270 315 237 283 299 
352 234 217 317 306 321 165 288 260 
307 298 239 216 284 330 291 274 302 
318 285 333 309 282 320 340 279 269 
90 308 370 243 324 344 290 327 246 
303 367 301 294 338 325 257 231 322 
351 336 293 287 313 300 342 310 345 
332 319 331 326 268 360 334 311 366 
296 347 355 368 323 359 382 356 357 
350 365 349 312 341 377 364 369 363 
358 379 372 304 362 297 339 353 373 
380 277 348 361 371 354 343 271 335 
281 316 376 337 329 328 378 346 375 
381 383 374 393 286 9 396 395 388 
386 391 387 384 392 390 385 389 405 
403 394 406 399 407 404 398 409 408 
402 401 418 400 397 414 416 417 421 
419 422 410 412 415 413 420 431 411 
432 429 430 424 433 427 435 425 434 
423 426 428 443 442 445 439 447 444 
438 436 446 441 440 448 437 454 451 
452 460 456 458 450 455 453 459 457 
449 468 472 462 466 471 473 464 465 
470 469 463 461 467 484 480 478 485 
482 474 477 481 476 479 475 483 486 
496 492 497 488 491 490 495 493 506 
487 489 498 494 510 503 507 501 508 
509 511 504 499 502 505 500 519 512 
522 516 517 513 514 520 521 515 523 
518 
type 1 523 int
1 1 1 1 1 1 1 1 1 
1 1 1 1 1 1 1 1 1 
1 1 1 1 1 1 1 1 1 
1 1 1 1 1 1 1 1 1 
1 1 1 1 1 1 1 1 1 
1 1 1 1 1 1 1 1 1 
1 1 1 1 1 1 1 1 1 
1 1 1 1 1 1 1 1 1 
1 1 1 1 1 1 1 1 1 
1 1 1 1 1 1 1 1 1 
1 1 1 1 1 1 1 1 1 
1 1 1 1 1 1 1 1 1 
1 1 1 1 1 1 1 1 1 
1 1 1 1 1 1 1 1 1 
1 1 1 1 1 1 1 1 1 
1 1 1 1 1 1 1 1 1 
1 1 1 1 1 1 1 1 1 
1 1 1 1 1 1 1 1 1 
1 1 1 1 1 1 1 1 1 
1 1 1 1 1 1 1 1 1 
1 1 1 1 1 1 1 1 1 
1 1 1 1 1 1 1 1 1 
1 1 1 1 1 1 1 1 1 
1 1 1 1 1 1 1 1 1 
1 1 1 1 1 1 1 1 1 
1 1 1 1 1 1 1 1 1 
1 1 1 1 1 1 1 1 1 
1 1 1 1 1 1 1 1 1 
1 1 1 1 1 1 1 1 1 
1 1 1 1 1 1 1 1 1 
1 1 1 1 1 1 1 1 1 
1 1 1 1 1 1 1 1 1 
1 1 1 1 1 1 1 1 1 
1 1 1 1 1 1 1 1 1 
1 1 1 1 1 1 1 1 1 
1 1 1 1 1 1 1 1 1 
1 1 1 1 1 1 1 1 1 
1 1 1 1 1 1 1 1 1 
1 1 1 1 1 1 1 1 1 
1 1 1 1 1 1 1 1 1 
1 1 1 1 1 1 1 1 1 
1 1 1 1 1 1 1 1 1 
1 1 1 1 1 1 1 1 1 
1 1 1 1 1 1 1 1 1 
1 1 1 1 1 1 1 1 1 
1 1 1 1 1 1 1 1 1 
1 1 1 1 1 1 1 1 1 
1 1 1 1 1 1 1 1 1 
1 1 1 1 1 1 1 1 1 
1 1 1 1 1 1 1 1 1 
1 1 1 1 1 1 1 1 1 
1 1 1 1 1 1 1 1 1 
1 1 1 1 1 1 1 1 1 
1 1 1 1 1 1 1 1 1 
1 1 1 1 1 1 1 1 1 
1 1 1 1 1 1 1 1 1 
1 1 1 1 1 1 1 1 1 
1 1 1 1 1 1 1 1 1 
1 
i 3 523 int
0 0 0 0 0 0 0 0 0 
0 0 0 0 0 0 0 0 0 
0 0 0 0 0 0 0 0 0 
0 0 0 0 0 0 0 0 0 
0 0 0 0 0 0 0 0 0 
0 0 0 0 0 0 0 0 0 
0 0 0 0 0 0 0 0 0 
0 0 0 0 0 0 0 0 0 
0 0 0 0 0 0 0 0 0 
0 0 0 0 0 0 0 0 0 
0 0 0 0 0 0 0 0 0 
0 0 0 0 0 0 0 0 0 
0 0 0 0 0 0 0 0 0 
0 0 0 0 0 0 0 0 0 
0 0 0 0 0 0 0 0 0 
0 0 0 0 0 0 0 0 0 
0 0 0 0 0 0 0 0 0 
0 0 0 0 0 0 0 0 0 
0 0 0 0 0 0 0 0 0 
0 0 0 0 0 0 0 0 0 
0 0 0 0 0 0 0 0 0 
0 0 0 0 0 0 0 0 0 
0 0 0 0 0 0 0 0 0 
0 0 0 0 0 0 0 0 0 
0 0 0 0 0 0 0 0 0 
0 0 0 0 0 0 0 0 0 
0 0 0 0 0 0 0 0 0 
0 0 0 0 0 0 0 0 0 
0 0 0 0 0 0 0 0 0 
0 0 0 0 0 0 0 0 0 
0 0 0 0 0 0 0 0 0 
0 0 0 0 0 0 0 0 0 
0 0 0 0 0 0 0 0 0 
0 0 0 0 0 0 0 0 0 
0 0 0 0 0 0 0 0 0 
0 0 0 0 0 0 0 0 0 
0 0 0 0 0 0 0 0 0 
0 0 0 0 0 0 0 0 0 
0 0 0 0 0 0 0 0 0 
0 0 0 0 0 0 0 0 0 
0 0 0 0 0 0 0 0 0 
0 0 0 0 0 0 0 0 0 
0 0 0 0 0 0 0 0 0 
0 0 0 0 0 0 0 0 0 
0 0 0 0 0 0 0 0 0 
0 0 0 0 0 0 0 0 0 
0 0 0 0 0 0 0 0 0 
0 0 0 0 0 0 0 0 0 
0 0 0 0 0 0 0 0 0 
0 0 0 0 0 0 0 0 0 
0 0 0 0 0 0 0 0 0 
0 0 0 0 0 0 0 0 0 
0 0 0 0 0 0 0 0 0 
0 0 0 0 0 0 0 0 0 
0 0 0 0 0 0 0 0 0 
0 0 0 0 0 0 0 0 0 
0 0 0 0 0 0 0 0 0 
0 0 0 0 0 0 0 0 0 
0 0 0 0 0 0 0 0 0 
0 0 0 0 0 0 0 0 0 
0 0 0 0 0 0 0 0 0 
0 0 0 0 0 0 0 0 0 
0 0 0 0 0 0 0 0 0 
0 0 0 0 0 0 0 0 0 
0 0 0 0 0 0 0 0 0 
0 0 0 0 0 0 0 0 0 
0 0 0 0 0 0 0 0 0 
0 0 0 0 0 0 0 0 0 
0 0 0 0 0 0 0 0 0 
0 0 0 0 0 0 0 0 0 
0 0 0 0 0 0 0 0 0 
0 0 0 0 0 0 0 0 0 
0 0 0 0 0 0 0 0 0 
0 0 0 0 0 0 0 0 0 
0 0 0 0 0 0 0 0 0 
0 0 0 0 0 0 0 0 0 
0 0 0 0 0 0 0 0 0 
0 0 0 0 0 0 0 0 0 
0 0 0 0 0 0 0 0 0 
0 0 0 0 0 0 0 0 0 
0 0 0 0 0 0 0 0 0 
0 0 0 0 0 0 0 0 0 
0 0 0 0 0 0 0 0 0 
0 0 0 0 0 0 0 0 0 
0 0 0 0 0 0 0 0 0 
0 0 0 0 0 0 0 0 0 
0 0 0 0 0 0 0 0 0 
0 0 0 0 0 0 0 0 0 
0 0 0 0 0 0 0 0 0 
0 0 0 0 0 0 0 0 0 
0 0 0 0 0 0 0 0 0 
0 0 0 0 0 0 0 0 0 
0 0 0 0 0 0 0 0 0 
0 0 0 0 0 0 0 0 0 
0 0 0 0 0 0 0 0 0 
0 0 0 0 0 0 0 0 0 
0 0 0 0 0 0 0 0 0 
0 0 0 0 0 0 0 0 0 
0 0 0 0 0 0 0 0 0 
0 0 0 0 0 0 0 0 0 
0 0 0 0 0 0 0 0 0 
0 0 0 0 0 0 0 0 0 
0 0 0 0 0 0 0 0 0 
0 0 0 0 0 0 0 0 0 
0 0 0 0 0 0 0 0 0 
0 0 0 0 0 0 0 0 0 
0 0 0 0 0 0 0 0 0 
0 0 0 0 0 0 0 0 0 
0 0 0 0 0 0 0 0 0 
0 0 0 0 0 0 0 0 0 
0 0 0 0 0 0 0 0 0 
0 0 0 0 0 0 0 0 0 
0 0 0 0 0 0 0 0 0 
0 0 0 0 0 0 0 0 0 
0 0 0 0 0 0 0 0 0 
0 0 0 0 0 0 0 0 0 
0 0 0 0 0 0 0 0 0 
0 0 0 0 0 0 0 0 0 
0 0 0 0 0 0 0 0 0 
0 0 0 0 0 0 0 0 0 
0 0 0 0 0 0 0 0 0 
0 0 0 0 0 0 0 0 0 
0 0 0 0 0 0 0 0 0 
0 0 0 0 0 0 0 0 0 
0 0 0 0 0 0 0 0 0 
0 0 0 0 0 0 0 0 0 
0 0 0 0 0 0 0 0 0 
0 0 0 0 0 0 0 0 0 
0 0 0 0 0 0 0 0 0 
0 0 0 0 0 0 0 0 0 
0 0 0 0 0 0 0 0 0 
0 0 0 0 0 0 0 0 0 
0 0 0 0 0 0 0 0 0 
0 0 0 0 0 0 0 0 0 
0 0 0 0 0 0 0 0 0 
0 0 0 0 0 0 0 0 0 
0 0 0 0 0 0 0 0 0 
0 0 0 0 0 0 0 0 0 
0 0 0 0 0 0 0 0 0 
0 0 0 0 0 0 0 0 0 
0 0 0 0 0 0 0 0 0 
0 0 0 0 0 0 0 0 0 
0 0 0 0 0 0 0 0 0 
0 0 0 0 0 0 0 0 0 
0 0 0 0 0 0 0 0 0 
0 0 0 0 0 0 0 0 0 
0 0 0 0 0 0 0 0 0 
0 0 0 0 0 0 0 0 0 
0 0 0 0 0 0 0 0 0 
0 0 0 0 0 0 0 0 0 
0 0 0 0 0 0 0 0 0 
0 0 0 0 0 0 0 0 0 
0 0 0 0 0 0 0 0 0 
0 0 0 0 0 0 0 0 0 
0 0 0 0 0 0 0 0 0 
0 0 0 0 0 0 0 0 0 
0 0 0 0 0 0 0 0 0 
0 0 0 0 0 0 0 0 0 
0 0 0 0 0 0 0 0 0 
0 0 0 0 0 0 0 0 0 
0 0 0 0 0 0 0 0 0 
0 0 0 0 0 0 0 0 0 
0 0 0 0 0 0 0 0 0 
0 0 0 0 0 0 0 0 0 
0 0 0 0 0 0 0 0 0 
0 0 0 0 0 0 0 0 0 
0 0 0 0 0 0 0 0 0 
0 0 0 0 0 0 0 0 0 
0 0 0 0 0 0 0 0 0 
0 0 0 0 0 0 0 0 0 
0 0 0 0 0 0 0 0 0 
0 0 0 0 0 0 0 0 0 
0 0 0 0 0 0 0 0 0 
0 0 0 0 0 0 0 0 0 
0 0 0 
v 3 523 double
-1.40023 -0.251904 -1.14106 -1.34345 0.15557 -0.768028 -1.49282 0.013101 -0.78658 
-1.41114 0.00647445 -0.616384 -1.31603 -0.0212254 -0.550368 -1.28286 -0.00960371 -0.538679 
-1.24219 -0.00819704 -0.523506 -1.29297 -0.178899 -0.556389 -1.24659 0.0285986 -0.52358 
-1.30173 -0.00730992 -0.542228 -1.21269 0.00141874 -0.500203 -1.31102 -0.136906 -0.567533 
-1.20725 0.0200058 -0.499084 -1.03029 -0.10038 -0.395399 -1.18342 0.078354 -0.490696 
-1.1284 -0.0431182 -0.47104 -1.19179 0.00232228 -0.499327 -1.21283 0.157725 -0.504839 
-0.990179 -0.0446118 -0.408044 -0.853263 0.0334136 -0.359264 -1.19209 0.0118873 -0.493828 
-1.2213 -0.106535 -0.483259 -1.09774 0.175084 -0.460222 -1.24542 -0.00015194 -0.508235 
-0.991752 0.0606041 -0.412377 -0.996682 0.0490126 -0.413674 -1.08469 0.0169202 -0.459248 
-1.1476 -0.0129556 -0.456341 -1.11303 -0.0546835 -0.399965 -1.10365 0.0594776 -0.458323 
-1.08787 0.0703924 -0.472967 -1.06699 -0.135814 -0.432437 -0.955796 -0.0239462 -0.417917 
-1.08033 0.170953 -0.477717 -1.06273 0.150195 -0.455618 -1.04405 0.0694897 -0.461599 
-0.94237 0.0447818 -0.403269 -0.947629 0.0810548 -0.405099 -0.920454 0.0498651 -0.394386 
-1.05482 -0.0697819 -0.458862 -1.08158 -0.00076652 -0.441251 -0.997637 0.0650075 -0.432788 
-0.90781 -0.0097563 -0.374502 -0.925782 0.0243354 -0.395734 -0.851249 0.0237511 -0.5008 
-0.913374 0.0580466 -0.379789 -0.920925 0.0759352 -0.381144 -0.914767 -0.0296779 -0.387981 
-0.966687 0.0282942 -0.40251 -0.941274 0.0187908 -0.405077 -0.872538 -0.0119329 -0.375832 
-0.824192 0.0614349 -0.343071 -0.805323 -0.0893651 -0.353799 -0.774923 -0.000977814 -0.31979 
-0.900296 -0.0771789 -0.375378 -0.873403 0.0661496 -0.341325 -0.764279 -0.0331781 -0.373213 
-0.842594 0.0318985 -0.268179 -1.01854 -0.0067115 -0.422062 -1.17697 -0.0251661 -0.492007 
-0.830338 -0.131814 -0.33071 -0.706766 -0.166488 -0.271979 -0.656367 -0.0861634 -0.267219 
-0.794982 -0.0352318 -0.323125 -0.776956 -0.0150916 -0.326749 -0.757528 -0.109832 -0.32457 
-0.864775 -0.0164301 -0.370917 -1.05237 -0.0378657 -0.397924 -1.29372 0.161272 -0.576274 
-0.742993 -0.150301 -0.285114 -0.887067 -0.0322541 -0.356322 -0.758713 -0.0366392 -0.351243 
-0.801272 0.00743283 -0.329826 -0.732619 -0.0488171 -0.31963 -0.750281 -0.0645352 -0.311969 
-0.675976 0.0191968 -0.145342 -0.76067 0.0846216 -0.314485 -0.742909 0.0948921 -0.270488 
-0.623588 0.00940259 -0.264068 -0.948749 -0.131789 -0.425963 -1.01099 -0.178814 -0.455632 
-0.796257 0.0212302 -0.350869 -0.943776 -0.0814526 -0.367316 -0.766499 -0.0254586 -0.315976 
-0.758729 -0.0034405 -0.314429 -0.802354 0.0440937 -0.330917 -1.07319 0.0132455 -0.0451454 
-0.855225 0.0298893 -0.387713 -0.876839 -0.0266103 -0.375076 -0.860702 0.156321 -0.455201 
-1.0029 0.0383884 -0.570912 -1.01901 0.226967 -0.674185 -0.943678 0.0268398 -0.379073 
-0.807737 -0.0473807 -0.304379 -0.853555 -0.0889811 -0.352417 -0.731548 -0.143773 -0.286326 
-0.715892 0.0727143 -0.295795 -0.817386 -0.0128056 -0.412746 -0.738803 -0.0267449 -0.372565 
-0.747593 0.067704 -0.306797 -0.762949 0.0583661 -0.309455 -0.9352 -0.0104706 -0.388109 
-0.828075 -0.0286796 -0.353866 -0.959582 -0.0943037 -0.418845 -0.819357 -0.00564057 -0.322708 
-0.803735 -0.015349 -0.32927 -0.749601 -0.0236362 -0.306823 -0.815583 0.100056 -0.354556 
-0.949795 0.0618591 -0.392765 -0.637101 0.0586185 -0.27471 -0.834609 0.0827762 -0.348534 
-1.09477 -0.0824785 -0.587251 -0.749961 -0.0976775 -0.327947 -0.590595 -0.0292181 -0.215689 
-0.677101 -0.0840188 -0.276953 -0.652864 -0.00336234 -0.279382 -0.623043 0.0625111 -0.252704 
-0.662725 0.0348287 -0.342849 -0.619022 -0.024771 -0.234831 -0.669947 0.128329 -0.223615 
-0.636741 0.176792 -0.239995 -0.630473 0.16224 -0.23934 -0.77143 -0.150273 -0.270119 
-0.679144 -0.0637665 -0.249495 -0.835846 -0.294907 -0.419785 -0.81579 -0.126645 -0.325839 
-0.747204 -0.0868731 -0.308423 -0.905797 -0.00795832 -0.353762 -0.693543 -0.0327707 -0.482921 
-0.603733 -0.0323578 -0.249475 -0.669164 0.0261283 -0.2871 -0.758939 0.0102941 -0.326978 
-0.707642 -0.0913339 -0.33135 -0.735376 -0.0334275 -0.302979 -0.743094 -0.0685223 -0.32062 
-0.876709 0.0980481 -0.400645 -0.769873 -0.0691895 -0.317707 -0.770157 0.00440479 -0.322078 
-0.767021 0.0361805 -0.317895 -0.802636 -0.00856983 -0.335875 -0.787477 0.0638707 -0.334836 
-0.799402 -0.0673463 -0.309643 -0.702032 -0.0857294 -0.299151 -0.882575 -0.024298 -0.263041 
-0.646579 0.0690984 -0.260679 -0.774546 -0.0540854 -0.34849 -0.735818 -0.0195537 -0.319283 
-0.736501 -0.0457797 -0.315631 -0.69373 0.0409272 -0.279305 -0.628055 0.000476753 -0.262501 
-0.712596 0.0476917 -0.306858 -0.752572 0.0503325 -0.321902 -0.660007 -0.0445738 -0.275957 
-0.571146 0.0953291 -0.241663 -1.15432 -0.226845 -0.452217 -0.694331 0.0153444 -0.292779 
-0.619114 0.0429699 -0.247338 -0.582799 0.0564019 -0.242972 -0.815888 -0.0426616 -0.336438 
-0.686104 -0.0484809 -0.295837 -0.74297 0.0509559 -0.355876 -1.09833 0.000266743 -0.341794 
-0.748225 -0.00917213 -0.314047 -0.654739 -0.0360025 -0.272469 -0.652603 -0.0129865 -0.272976 
-0.678157 -0.0414064 -0.285976 -0.602191 -0.148315 -0.0298632 -0.584347 0.110244 -0.248281 
-0.907036 -0.207632 -0.313861 -0.591249 0.0153167 -0.251085 -0.630919 0.0302546 -0.246162 
-0.775331 0.0158941 -0.302681 -0.698909 0.000846783 -0.291967 -0.694903 -0.149629 -0.270214 
-0.657899 -0.0808702 -0.263869 -0.677236 -0.085231 -0.272736 -0.87589 -0.160951 -0.232704 
-0.406558 -0.0726109 -0.170955 -0.558864 0.1899 -0.279274 -0.493604 -0.034556 -0.207156 
-0.401755 -0.100321 -0.185371 -0.90319 0.0142355 -0.485343 -0.705229 0.0183232 -0.293991 
-0.658036 -0.0282982 -0.281476 -0.677417 -0.0150837 -0.28871 -0.848855 0.0716805 -0.25163 
-0.606873 0.0190562 -0.24571 -0.580286 -0.000840106 -0.254715 -0.569205 -0.28735 -0.154103 
-0.806986 -0.00923783 -0.336374 -0.698256 0.0185851 -0.254696 -0.760874 0.0819143 -0.321352 
-0.540268 -0.12097 -0.228073 -0.508051 0.0328374 -0.184788 -0.595159 -0.0918399 -0.256469 
-0.949838 0.0955374 -0.400377 -0.628768 0.0659129 -0.243542 -0.595021 -0.054939 -0.250236 
-0.595825 -0.0280593 -0.262787 -0.609304 0.0324889 -0.252682 -0.587634 -0.0748202 -0.251819 
-0.756955 0.0688036 -0.203615 -0.64689 0.118639 -0.225298 -0.660139 -0.0524824 -0.266285 
-0.465805 -0.057563 -0.168904 -0.295562 0.0208742 -0.187967 -0.853408 0.0428515 -0.360549 
-0.706072 0.142039 -0.509558 -0.619309 0.185948 -0.296966 -0.635047 0.0287831 -0.239273 
-0.589672 -0.0211595 -0.232437 -0.629173 0.0044927 -0.264177 -0.627817 0.0580536 -0.319928 
-0.67128 0.0419714 -0.308109 -0.343842 0.128411 -0.130536 -0.73411 -0.0135569 -0.312026 
-0.364168 0.251699 -0.0887932 -0.647105 0.0623286 -0.278357 -0.807776 -0.324576 -0.156692 
-0.91411 0.136395 -0.0500489 -0.608232 -0.0513595 -0.250834 -0.596927 -0.0148437 -0.249222 
-0.513204 -0.077666 -0.19863 -0.733933 0.0482192 -0.70793 -0.512162 0.00183282 -0.226992 
-0.705543 -0.030726 -0.298067 -0.534911 -0.0167005 -0.224963 -0.500089 -0.0408409 -0.212593 
-0.441811 0.00461582 -0.187082 -0.442497 0.0365939 -0.208732 -0.590809 0.00185034 -0.25055 
-0.689938 0.439191 -0.613325 -1.01513 0.0206272 -0.4124 -0.554535 0.0795029 -0.254146 
-0.617303 -0.128741 -0.232941 -0.310719 0.0600454 -0.172955 -0.764386 0.084604 -0.259561 
-0.550805 0.0309907 -0.232872 -0.483647 -0.0300856 -0.203381 -0.68265 -0.192351 -0.751954 
-0.728884 0.0322098 -0.381579 -0.632805 0.321539 -0.377579 -0.483014 -0.153277 -0.191053 
-0.833637 -0.113133 -0.670328 -0.522765 0.00592871 -0.221934 -0.496976 0.0414839 -0.213938 
-0.450358 -0.0998817 -0.197592 -0.467043 -0.0341168 -0.136157 -0.708154 -0.103013 -0.30547 
-0.710445 0.236195 -0.218631 -0.763636 -0.12551 -0.216051 -0.45839 -0.0123182 -0.190375 
-0.522344 -0.0545076 -0.21222 -0.884362 -0.0509078 -0.582799 -0.655256 0.100185 -0.336844 
-0.563108 -0.0480992 -0.231807 -0.508408 0.190432 -0.30568 -0.494836 0.0145717 -0.211113 
-0.429827 0.0722136 -0.185317 -0.804092 -0.0475418 -0.303338 -0.513952 -0.0879504 -0.224818 
-0.2843 0.104372 -0.691135 -0.445556 -0.0150169 -0.189615 -0.592991 -0.0135531 -0.189642 
-0.566971 -0.0645707 -0.239404 -0.789343 0.071352 -0.577226 -0.364226 0.143211 -0.175262 
-0.293885 -0.0164219 -0.122793 -0.574739 -0.0538659 -0.361993 -0.66179 0.076062 -0.33754 
-1.35878 0.185037 -0.394784 -0.620111 0.339008 -0.711786 -0.438302 0.189985 0.0126365 
-0.724004 -0.154294 -0.485116 -0.528668 0.298973 -0.193468 -0.658186 -0.105109 -0.283989 
-0.586367 -0.257276 -0.127244 -0.713402 -0.605081 -0.520161 -0.554324 -0.140741 -0.474756 
-0.777646 0.158034 -0.453469 -0.673479 0.137835 -0.219511 -0.35266 -0.275214 -0.116622 
-0.250697 -0.143738 -0.0933799 -0.774034 -0.0035918 -0.346749 -0.505827 0.00197288 -0.25207 
-0.409218 -0.111986 -0.101023 -0.568106 0.110035 -0.612198 -0.448396 -0.090243 -0.190411 
-0.528705 -0.0504096 -0.165413 -0.496786 -0.0973771 -0.210582 -0.722911 -0.167194 -0.332284 
-0.263739 -0.0580365 -0.0978808 -0.482004 0.166042 -0.266398 -0.456945 0.12233 -0.19148 
-0.298428 0.00562602 -0.0979313 -0.46635 0.212891 -0.148294 -0.373882 0.149069 -0.125813 
-0.434434 -0.00619033 -0.180955 -0.650597 -0.11997 -0.233827 -0.627582 0.207483 -0.0665668 
-0.491712 0.0507382 -0.590474 -0.982111 0.254885 -0.137364 -0.54145 -0.252261 -0.312536 
-0.703363 0.289387 -0.478438 -0.711443 -0.448626 -0.0489277 -0.298158 -0.171069 -0.121529 
-0.909528 -0.0528663 -0.209803 -0.647607 0.350055 -0.934316 -0.450164 0.12316 -0.233885 
-0.724525 -0.263273 -0.496361 -0.39792 0.0744365 -0.868067 -0.360709 -0.108015 -0.158936 
-0.356525 -0.037875 -0.377668 -0.364184 -0.0993837 -0.147772 -0.756816 -0.0326687 -0.258348 
-0.670997 0.276724 -0.241657 -0.486679 0.201179 -0.158944 -0.720823 -0.0619239 -0.519678 
-0.624912 0.0200291 -0.244388 -0.370232 -0.165588 -0.472479 -0.667015 0.301205 -0.0649857 
-0.29319 0.27369 -0.0645775 -0.663595 0.130633 -0.439491 -0.557915 0.224297 -0.152678 
-0.732181 -0.110349 -0.0508953 -0.285162 -0.215325 -0.131245 -0.424303 0.421122 -0.572187 
-0.414252 0.0120696 -0.24031 -0.266828 -0.00512877 -0.110906 -0.454669 0.159212 0.0034205 
-0.256364 0.033429 -0.0618292 -0.56583 0.412482 -0.0257277 -0.620057 -0.419423 -0.847648 
-0.72067 0.264573 -0.416102 -0.70696 0.238781 -0.227156 -0.397773 0.0231104 -0.151313 
-0.719559 0.338379 -0.164978 -0.605854 0.304285 -0.105877 -0.199467 0.250567 0.138728 
-0.72932 -0.109918 0.280032 -0.322898 -0.12361 0.0150904 -0.109582 -0.189115 -0.0546495 
-0.49361 -0.170753 0.124728 -0.446156 0.110023 -0.0784281 -0.640209 -0.14746 -0.239374 
-0.242492 -0.386617 0.00680366 -0.743416 -0.192541 -0.132545 -0.882693 -0.376877 -0.357236 
-0.13776 0.223187 0.0717018 -0.512932 0.382315 -0.207635 -1.11771 0.265363 -0.72143 
-0.359496 0.24997 0.209348 -0.562375 0.167128 0.0154018 -0.733566 0.106306 0.224147 
-0.724976 0.0739709 -0.306943 -0.678545 -0.276707 -0.255939 -0.71919 -0.0267173 -0.354432 
-0.749141 -0.0168511 -0.0404109 -0.714328 -0.146745 0.064652 -0.360451 0.526611 0.122222 
0.231448 -0.134868 -1.4864 -0.660839 -0.238081 -0.300903 -0.799929 -0.240746 -0.25198 
-0.0675686 -0.245764 -0.0467686 -0.70206 -0.269569 0.129591 -0.696059 -0.326682 0.00362756 
-0.71541 0.262642 -0.134792 -0.632994 -0.131974 -0.445707 -0.556295 0.0748484 0.122604 
-0.430625 -0.0692044 -0.413326 -0.694607 0.15001 -0.16043 0 0 -2.05737 
-0.72161 -0.0268072 -0.0689625 -0.71497 -0.327265 -0.259251 -0.211276 0.0149324 -0.0278834 
-0.645304 0.032655 0.135509 -0.664095 0.242927 -0.0270398 -0.111841 -0.128901 -0.810075 
-0.719591 -0.0267322 0.273091 -0.706888 -0.181634 0.25506 -0.697869 -0.855269 -0.102476 
-0.20178 -0.254614 -1.6219 -0.448739 -0.179456 -0.239608 -0.52366 0.0337546 -0.203341 
0 0 -2.00145 0 0 -1.98654 0 0 -1.99645 
0 0 -1.97379 0 0 -1.97889 0 0 -1.96398 
0 0 -1.96584 0 0 -1.9421 0 0 -1.94926 
0 0 -1.93347 0 0 -1.94838 0 0 -1.91542 
0 0 -1.91983 0 0 -1.92758 0 0 -1.92189 
0 0 -1.91189 0 0 -1.90846 0 0 -1.88589 
0 0 -1.88864 0 0 -1.8596 0 0 -1.87334 
0 0 -1.83714 0 0 -1.84695 0 0 -1.82134 
0 0 -1.82958 0 0 -1.83429 0 0 -1.81428 
0 0 -1.8081 0 0 -1.8029 0 0 -1.78711 
0 0 -1.7977 0 0 -1.78269 0 0 -1.78073 
0 0 -1.77435 0 0 -1.76837 0 0 -1.75915 
0 0 -1.73962 0 0 -1.7202 0 0 -1.73511 
0 0 -1.72275 0 0 -1.70813 0 0 -1.70078 
0 0 -1.70029 0 0 -1.69823 0 0 -1.68587 
0 0 -1.68371 0 0 -1.6584 0 0 -1.66576 
0 0 -1.63456 0 0 -1.64133 0 0 -1.64947 
0 0 -1.61857 0 0 -1.61268 0 0 -1.59983 
0 0 -1.6017 0 0 -1.60091 0 0 -1.57217 
0 0 -1.58571 0 0 -1.58531 0 0 -1.58257 
0 0 -1.56658 0 0 -1.57256 0 0 -1.56079 
0 0 -1.53793 0 0 -1.52714 0 0 -1.51429 
0 0 -1.50291 0 0 -1.49614 0 0 -1.49339 
0 0 -1.4879 0 0 -1.47838 0 0 -1.45837 
0 0 -1.45572 0 0 -1.46779 0 0 -1.46995 
0 0 -1.44346 0 0 -1.41531 0 0 -1.39657 
0 0 -1.41501 0 0 -1.39186 0 0 -1.37312 
0 0 -1.39372 0 0 -1.38097 0 0 -1.39559 
0 0 -1.37126 0 0 -1.37195 0 0 -1.36567 
0 0 -1.35664 0 0 -1.34948 0 0 -1.33741 
0 0 -1.33428 0 0 -1.31809 0 0 -1.31348 
0 0 -1.30386 0 0 -1.29386 0 0 -1.29925 
0 0 -1.29219 0 0 -1.27316 0 0 -1.26708 
0 0 -1.27012 0 0 -1.24922 0 0 -1.21969 
0 0 -1.21832 0 0 -1.17398 0 0 -1.17751 
0 0 -1.17212 0 0 -1.18605 0 0 -1.17624 
0 0 -1.1832 0 0 -1.19968 0 0 -1.14092 
0 0 -1.15985 0 0 -1.16741 0 0 -1.16329 
0 0 -1.15995 0 0 -1.11924 0 0 -1.10982 
0 0 -1.13847 0 0 -1.11434 0 0 -1.10021 
0 0 -1.08304 0 0 -1.08942 0 0 -1.0853 
0 0 -1.04625 0 0 -1.04439 0 0 -1.06833 
0 0 -1.05665 0 0 -1.01457 0 0 -1 
0 0 -1 0 0 -1 0 0 -1.00564 
0 0 -1 0 0 -1 0 0 -1 
0 0 -1 0 0 -1 0 0 -1 
0 0 -1 
f 3 523 double
0 0 -0.000346714 0 0 -0.000346714 0 0 -0.000346714 