# vtk DataFile Version 4.0
Generated by LIGGGHTS
ASCII
DATASET POLYDATA
POINTS 768 float
-0.0258841 0.014966 0.0594469 -0.467531 0.000760681 -0.398806 -0.49341 -0.0228589 -0.395289 
-0.491909 0.00666564 -0.394419 -0.489463 -0.00239633 -0.38752 -0.475165 0.0144101 -0.389491 
-0.457899 -0.00127958 -0.381465 -0.471902 0.0139245 -0.380724 -0.478587 0.00509678 -0.378471 
-0.465796 -0.00488578 -0.372116 -0.475568 -0.00839033 -0.369834 -0.475234 0.00639675 -0.37168 
-0.470429 -0.0118648 -0.362655 -0.455573 -0.00421704 -0.361664 -0.456967 0.00447757 -0.362314 
-0.452216 0.00700605 -0.362075 -0.456313 0.00757422 -0.35321 -0.450564 0.00725405 -0.353363 
-0.450929 0.0121033 -0.352565 -0.443679 0.00224663 -0.343679 -0.443569 0.00856534 -0.34492 
-0.439136 -0.000245923 -0.34281 -0.447533 0.0120208 -0.343449 -0.445943 -0.00512383 -0.335047 
-0.439379 0.00421286 -0.335983 -0.432036 0.0260436 -0.335822 -0.435265 -0.0081799 -0.331195 
-0.438375 -0.00203341 -0.331461 -0.440503 0.0170434 -0.330649 -0.421431 -0.000999758 -0.324875 
-0.432542 0.0226005 -0.323708 -0.422701 -0.00389272 -0.320761 -0.417454 -0.000888409 -0.317429 
-0.416488 -0.0109268 -0.311959 -0.407219 0.00645736 -0.311793 -0.41286 -0.00792967 -0.308419 
-0.407886 0.00536316 -0.306133 -0.411019 -0.0110457 -0.304116 -0.403802 0.00233817 -0.302303 
-0.40679 -0.00801508 -0.297438 -0.39601 0.00331603 -0.299009 -0.402164 0.00949934 -0.298788 
-0.396902 0.0107617 -0.294343 -0.401585 0.0221129 -0.29658 -0.397083 -0.0252386 -0.287451 
-0.394624 -0.00709728 -0.288943 -0.393844 -0.00307103 -0.288659 -0.397528 0.0229182 -0.28696 
-0.41357 -0.0291293 -0.285661 -0.387779 0.002756 -0.285559 -0.397884 -0.0347801 -0.280662 
-0.380537 -0.00507989 -0.282919 -0.382627 -0.0093916 -0.279092 -0.377267 -0.00773841 -0.278827 
-0.381067 -0.00623616 -0.277964 -0.380652 -0.00266946 -0.279066 -0.377704 -0.00341526 -0.276151 
-0.381605 0.0110704 -0.278882 -0.381871 -0.0241461 -0.273555 -0.379363 -0.02048 -0.273307 
-0.380471 -0.0144694 -0.275745 -0.377365 -0.00815721 -0.274698 -0.366631 -0.0146379 -0.268931 
-0.368789 0.00360091 -0.269201 -0.369848 0.0152691 -0.269875 -0.376152 0.0174631 -0.272133 
-0.365204 -0.0217959 -0.265348 -0.368501 -0.0180604 -0.266162 -0.367163 -0.000877796 -0.268 
-0.360104 0.00457805 -0.265152 -0.36299 0.00697809 -0.265081 -0.362596 0.0100858 -0.265402 
-0.368698 -0.0281298 -0.264968 -0.354656 -0.0247893 -0.262194 -0.358753 -0.0118078 -0.262507 
-0.358827 0.00237449 -0.261761 -0.360521 0.00902873 -0.262703 -0.356978 0.00734338 -0.262006 
-0.361746 -0.0246329 -0.259118 -0.364077 -0.0213869 -0.260387 -0.355783 -0.0147393 -0.260523 
-0.354971 -0.00867002 -0.260066 -0.355424 -0.000247901 -0.258855 -0.35403 0.00937551 -0.25903 
-0.353484 -0.024771 -0.254707 -0.347773 -0.00977506 -0.255046 -0.349652 0.016546 -0.258296 
-0.351129 -0.0320391 -0.252069 -0.353803 -0.0168328 -0.252703 -0.346462 0.00149185 -0.25346 
-0.345773 0.00667268 -0.253913 -0.347972 0.0148787 -0.251863 -0.344496 -0.0149161 -0.249867 
-0.341931 -0.0114287 -0.25016 -0.337376 0.00222338 -0.248025 -0.340406 0.00530692 -0.250552 
-0.332144 -0.000157611 -0.246637 -0.319136 -0.0124535 -0.239889 -0.31983 -0.00155072 -0.239868 
-0.322252 0.00158897 -0.241927 -0.320162 0.00352375 -0.240923 -0.319865 0.00686546 -0.240585 
-0.326633 0.00804711 -0.242355 -0.320918 0.0122345 -0.240689 -0.326387 0.0139759 -0.242806 
-0.325837 0.0214443 -0.239977 -0.325752 -0.0348167 -0.237004 -0.313313 -0.0154815 -0.236845 
-0.31576 -0.00876658 -0.237744 -0.311967 -0.00413465 -0.23754 -0.316218 0.00160339 -0.239382 
-0.311935 0.00143993 -0.236502 -0.313274 0.00636043 -0.236757 -0.317321 0.00941084 -0.238268 
-0.312317 0.0129863 -0.237022 -0.316767 0.0203148 -0.237478 -0.354894 0.0403668 -0.239628 
-0.315463 -0.0285246 -0.234888 -0.312859 -0.0264392 -0.234217 -0.310668 -0.0153127 -0.235005 
-0.311689 -0.0112139 -0.235707 -0.308967 -0.00785144 -0.236127 -0.305511 -0.00830706 -0.23462 
-0.302794 -0.00992468 -0.233304 -0.305026 -0.00531827 -0.2345 -0.301495 -0.00177548 -0.233205 
-0.305967 0.00504361 -0.233761 -0.303326 0.00810268 -0.233554 -0.30856 0.01377 -0.235326 
-0.305875 0.0121405 -0.234326 -0.297801 -0.0127016 -0.229812 -0.296208 -0.00191381 -0.229886 
-0.299933 0.00241886 -0.231382 -0.295855 0.00201156 -0.230773 -0.296378 0.00497147 -0.230806 
-0.301671 0.0100186 -0.230479 -0.29677 0.00952282 -0.229603 -0.299818 0.0135729 -0.231711 
-0.304241 0.0151063 -0.231993 -0.303099 0.0200862 -0.23072 -0.315588 -0.030247 -0.227682 
-0.295159 -0.0285514 -0.226553 -0.293358 -0.0133221 -0.228965 -0.291612 -0.00773141 -0.228829 
-0.284767 -0.00879064 -0.225845 -0.288875 -0.00544765 -0.226669 -0.292244 0.0101125 -0.227592 
-0.287355 0.0153736 -0.226187 -0.297649 0.0257478 -0.228451 -0.298583 -0.0372259 -0.22518 
-0.287309 -0.0210485 -0.22411 -0.304772 -0.00306698 -0.222866 -0.281895 -0.00248327 -0.224909 
-0.279454 -0.000732527 -0.223937 -0.280262 0.0031357 -0.224128 -0.280495 0.00742799 -0.222863 
-0.287926 0.0105598 -0.225143 -0.283393 0.0121482 -0.223789 -0.272436 -0.0197043 -0.219265 
-0.274718 -0.0128236 -0.220947 -0.268706 -0.0105161 -0.218921 -0.278389 -0.00860818 -0.222093 
-0.270532 -0.000630578 -0.219103 -0.273729 0.00628318 -0.220087 -0.275987 0.0116128 -0.220782 
-0.27149 0.015455 -0.219437 -0.275112 0.0183786 -0.220443 -0.281613 0.0312891 -0.220266 
-0.266183 -0.0150477 -0.217316 -0.267274 -0.00538486 -0.216546 -0.265715 -0.00152547 -0.218127 
-0.265888 0.0022508 -0.216476 -0.266318 0.00746869 -0.216961 -0.270138 0.0105369 -0.218409 
-0.266678 0.0133509 -0.217758 -0.266949 0.0186416 -0.217036 -0.275836 0.0315457 -0.21774 
-0.260067 -0.0223849 -0.212364 -0.256148 -0.00771596 -0.212753 -0.257291 0.0035275 -0.214416 
-0.257557 0.00884995 -0.214293 -0.254898 0.00798002 -0.212893 -0.251638 0.00818651 -0.211842 
-0.259658 0.0134895 -0.21478 -0.255216 0.0137328 -0.212865 -0.252713 0.0114544 -0.212152 
-0.31676 0.0240928 -0.212411 -0.275164 0.0357795 -0.215154 -0.258386 -0.0386086 -0.208341 
-0.250182 -0.0246956 -0.209021 -0.245378 -0.0157833 -0.20839 -0.247691 -0.0136425 -0.209652 
-0.250481 -0.0100295 -0.211331 -0.267022 -0.000319779 -0.210196 -0.252654 -0.00353995 -0.211471 
-0.248911 0.0117828 -0.210498 -0.291339 0.0595978 -0.210133 -0.28494 -0.0610369 -0.206894 
-0.259777 -0.0459752 -0.20607 -0.246652 -0.0206374 -0.207088 -0.243384 -0.00785945 -0.207361 
-0.239727 -0.000376163 -0.207136 -0.235551 0.00270534 -0.205266 -0.24297 0.0143504 -0.206489 
-0.242466 0.0187807 -0.206767 -0.247322 0.0310578 -0.206221 -0.265899 0.0478107 -0.20774 
-0.234201 -0.0168002 -0.203743 -0.229718 -0.0114352 -0.202298 -0.230953 -0.00806928 -0.203071 
-0.230895 0.00886269 -0.203125 -0.224971 -0.00745822 -0.200636 -0.233804 -0.00537747 -0.20129 
-0.226209 -0.0036316 -0.200364 -0.224846 0.00974634 -0.199466 -0.219576 0.0122468 -0.198006 
-0.218675 -0.0266877 -0.195336 -0.218615 -0.0127006 -0.194883 -0.218892 -0.00699722 -0.197025 
-0.214825 -0.00433063 -0.196601 -0.225018 0.00279335 -0.197752 -0.217883 0.00244755 -0.196746 
-0.213617 0.00584809 -0.195955 -0.210821 0.00621294 -0.194772 -0.213478 0.00886671 -0.195652 
-0.21777 0.014505 -0.196315 -0.213831 0.015243 -0.195217 -0.221083 0.018041 -0.196844 
-0.222697 0.0231208 -0.196472 -0.223079 0.0280732 -0.195794 -0.220351 0.0325226 -0.194736 
-0.240008 -0.0565795 -0.193054 -0.215325 -0.0320177 -0.192781 -0.211259 -0.0271071 -0.19221 
-0.216143 -0.00893532 -0.192743 -0.207017 -0.0101814 -0.192839 -0.204705 -0.00775977 -0.192137 
-0.218516 -0.00213047 -0.192616 -0.208276 -0.00304742 -0.192702 -0.202271 0.00359244 -0.19117 
-0.211064 0.0110461 -0.193314 -0.209855 0.020514 -0.19296 -0.239181 0.0529427 -0.193439 
-0.208824 -0.0316601 -0.190109 -0.201068 -0.0287554 -0.187603 -0.201992 -0.0188265 -0.189831 
-0.198505 -0.0204118 -0.188017 -0.260931 -0.0174808 -0.190906 -0.197622 -0.00458741 -0.18925 
-0.198056 -0.000424471 -0.188358 -0.202337 0.00452913 -0.188264 -0.196559 0.00473165 -0.188833 
-0.192411 0.006014 -0.187105 -0.198491 0.00705365 -0.189617 -0.197036 0.00976184 -0.188577 
-0.200484 0.0132773 -0.189809 -0.206745 0.0220876 -0.190341 -0.206114 0.026376 -0.19023 
-0.206104 0.0299631 -0.189434 -0.228682 -0.0611986 -0.186309 -0.19109 -0.0237307 -0.183521 
-0.192257 -0.0184517 -0.185719 -0.185302 -0.00417853 -0.184021 -0.205379 0.00332128 -0.18601 
-0.19054 0.000182069 -0.185967 -0.186016 0.000823965 -0.184402 -0.189365 0.0102099 -0.185415 
-0.20038 0.019206 -0.186132 -0.192492 0.0289811 -0.183958 -0.200021 0.032111 -0.186478 
-0.213868 0.0505134 -0.18582 -0.202899 -0.0419568 -0.183626 -0.18542 -0.0164823 -0.18313 
-0.183506 -0.00845076 -0.183153 -0.180026 -0.0101687 -0.180571 -0.182493 -0.00438785 -0.182813 
-0.180483 -0.00642925 -0.181921 -0.178477 -0.00301635 -0.179993 -0.193695 0.00102282 -0.18224 
-0.179477 0.000551204 -0.181601 -0.17654 0.000649754 -0.180151 -0.196359 0.00493292 -0.183595 
-0.185144 0.0063999 -0.182863 -0.178271 0.00425559 -0.180116 -0.181003 0.0104885 -0.180784 
-0.176072 0.00761787 -0.18002 -0.186595 0.0190743 -0.182352 -0.181873 0.0196708 -0.180328 
-0.185059 0.0249106 -0.181735 -0.191477 0.0359471 -0.18093 -0.179667 -0.0241349 -0.179763 
-0.225134 -0.0171488 -0.178745 -0.179978 -0.0167792 -0.179761 -0.174596 -0.0151091 -0.178866 
-0.17194 -0.012298 -0.177849 -0.175314 -0.00997213 -0.178582 -0.171235 -0.00704661 -0.178071 
-0.168498 -0.0073574 -0.176926 -0.175924 -0.00404823 -0.17707 -0.173844 -0.00506639 -0.179181 
-0.182683 -0.00282468 -0.178758 -0.172246 -0.00150562 -0.177493 -0.173546 0.00295808 -0.179113 
-0.170152 0.00454948 -0.176667 -0.172889 0.013355 -0.178181 -0.179393 0.0144688 -0.177672 
-0.179731 0.0235193 -0.179773 -0.182488 0.0300892 -0.178502 -0.182244 0.0352078 -0.177372 
-0.214298 -0.0701412 -0.175116 -0.196724 -0.0619803 -0.173724 -0.173249 -0.0342516 -0.173827 
-0.164988 -0.0161757 -0.173675 -0.170435 -0.0128766 -0.173846 -0.16527 -0.00576669 -0.175641 
-0.163517 -0.000988882 -0.17492 -0.164144 0.00301161 -0.174124 -0.167594 0.0105148 -0.176206 
[...]
POINT_DATA 768
FIELD FieldData 7
id 1 768 int
785 60 28 5 40 4 7 69 54 
27 93 66 173 56 45 73 37 89 
61 52 36 8 94 100 42 120 85 
87 147 59 139 117 77 133 91 55 
15 63 39 41 176 17 31 84 113 
78 126 145 131 88 207 71 46 74 
58 125 65 153 80 24 43 50 97 
67 162 108 62 101 190 86 111 102 
76 18 98 112 48 164 95 103 53 
92 130 34 168 110 75 174 26 196 
137 81 141 140 193 122 121 150 104 
186 177 82 68 114 163 219 178 179 
79 202 148 180 129 118 138 151 352 
171 187 265 132 189 70 123 159 198 
195 160 107 49 183 142 154 204 127 
106 144 83 158 119 294 225 134 166 
136 116 156 278 213 188 157 210 241 
215 184 115 105 169 229 109 250 244 
167 221 170 99 199 72 135 205 211 
270 143 208 228 64 200 272 181 124 
252 209 175 212 317 254 324 234 201 
223 152 149 146 277 182 96 251 305 
185 297 284 161 280 296 191 290 289 
172 293 197 224 236 233 295 206 261 
276 337 298 299 322 245 249 273 287 
264 275 128 321 256 253 165 332 329 
438 222 281 316 220 339 363 242 155 
9 263 255 353 307 267 218 354 292 
266 314 262 226 348 368 230 288 260 
422 330 259 303 304 192 343 390 217 
306 308 214 227 243 238 247 333 399 
235 315 446 232 349 194 248 310 347 
311 282 274 418 283 203 313 258 370 
237 382 318 405 285 409 246 331 388 
300 320 269 377 327 271 372 423 351 
291 362 240 286 231 395 407 279 90 
386 367 335 216 387 302 336 381 401 
309 447 323 340 366 344 239 341 371 
411 358 396 476 384 441 257 378 470 
389 414 355 417 350 427 433 424 338 
398 268 456 374 466 301 462 455 421 
403 416 444 365 328 326 429 430 490 
439 346 440 492 450 325 428 448 394 
356 473 408 425 522 360 483 454 400 
319 445 397 484 404 345 459 361 376 
359 373 406 375 451 334 380 504 312 
420 497 469 489 481 385 452 478 477 
364 511 458 488 463 453 392 431 357 
393 496 342 419 391 500 415 475 434 
508 437 519 413 468 383 471 485 412 
369 474 493 442 486 499 482 491 487 
379 495 460 435 449 509 507 494 530 
465 464 562 498 542 505 517 537 503 
501 547 402 534 502 552 512 525 520 
515 536 527 529 467 480 564 531 510 
577 544 574 506 526 514 585 533 528 
582 426 457 461 624 538 539 586 543 
550 610 479 541 589 546 595 443 557 
576 410 598 559 565 555 561 549 596 
548 540 521 600 578 523 572 545 571 
554 588 436 567 569 568 619 620 603 
591 604 524 535 636 575 606 518 626 
616 566 597 640 580 615 516 632 584 
558 579 638 625 560 573 612 634 650 
652 637 617 611 551 628 532 583 553 
621 631 587 633 513 630 614 570 592 
613 563 622 608 602 605 639 556 594 
623 635 609 607 645 646 601 590 643 
432 642 593 581 618 647 629 627 599 
641 472 649 651 653 644 648 663 666 
654 658 655 665 664 660 659 656 661 
662 657 668 667 669 676 677 671 678 
672 670 675 673 683 685 674 681 679 
680 686 690 691 684 682 688 687 696 
689 693 702 697 694 692 700 698 699 
701 703 709 715 708 695 705 716 710 
706 704 711 713 712 707 714 726 728 
720 717 725 729 727 718 721 722 719 
734 724 723 741 737 733 735 731 742 
736 739 730 740 738 732 748 745 751 
752 750 743 755 746 754 744 749 747 
753 767 763 765 758 761 757 766 764 
762 759 760 768 756 778 780 775 779 
781 776 773 769 771 770 793 772 774 
777 790 788 786 784 791 787 789 783 
792 794 782 
type 1 768 int
1 1 1 1 1 1 1 1 1 
1 1 1 1 1 1 1 1 1 
1 1 1 1 1 1 1 1 1 
1 1 1 1 1 1 1 1 1 
1 1 1 1 1 1 1 1 1 
1 1 1 1 1 1 1 1 1 
1 1 1 1 1 1 1 1 1 
1 1 1 1 1 1 1 1 1 
1 1 1 1 1 1 1 1 1 
1 1 1 1 1 1 1 1 1 
1 1 1 1 1 1 1 1 1 
1 1 1 1 1 1 1 1 1 
1 1 1 1 1 1 1 1 1 
1 1 1 1 1 1 1 1 1 
1 1 1 1 1 1 1 1 1 
1 1 1 1 1 1 1 1 1 
1 1 1 1 1 1 1 1 1 
1 1 1 1 1 1 1 1 1 
1 1 1 1 1 1 1 1 1 
1 1 1 1 1 1 1 1 1 
1 1 1 1 1 1 1 1 1 
1 1 1 1 1 1 1 1 1 
1 1 1 1 1 1 1 1 1 
1 1 1 1 1 1 1 1 1 
1 1 1 1 1 1 1 1 1 
1 1 1 1 1 1 1 1 1 
1 1 1 1 1 1 1 1 1 
1 1 1 1 1 1 1 1 1 
1 1 1 1 1 1 1 1 1 
1 1 1 1 1 1 1 1 1 
1 1 1 1 1 1 1 1 1 
1 1 1 1 1 1 1 1 1 
1 1 1 1 1 1 1 1 1 
1 1 1 1 1 1 1 1 1 
1 1 1 1 1 1 1 1 1 
1 1 1 1 1 1 1 1 1 
1 1 1 1 1 1 1 1 1 
1 1 1 1 1 1 1 1 1 
1 1 1 1 1 1 1 1 1 
1 1 1 1 1 1 1 1 1 
1 1 1 1 1 1 1 1 1 
1 1 1 1 1 1 1 1 1 
1 1 1 1 1 1 1 1 1 
1 1 1 1 1 1 1 1 1 
1 1 1 1 1 1 1 1 1 
1 1 1 1 1 1 1 1 1 
1 1 1 1 1 1 1 1 1 
1 1 1 1 1 1 1 1 1 
1 1 1 1 1 1 1 1 1 
1 1 1 1 1 1 1 1 1 
1 1 1 1 1 1 1 1 1 
1 1 1 1 1 1 1 1 1 
1 1 1 1 1 1 1 1 1 
1 1 1 1 1 1 1 1 1 
1 1 1 1 1 1 1 1 1 
1 1 1 1 1 1 1 1 1 
1 1 1 1 1 1 1 1 1 
1 1 1 1 1 1 1 1 1 
1 1 1 1 1 1 1 1 1 
1 1 1 1 1 1 1 1 1 
1 1 1 1 1 1 1 1 1 
1 1 1 1 1 1 1 1 1 
1 1 1 1 1 1 1 1 1 
1 1 1 1 1 1 1 1 1 
1 1 1 1 1 1 1 1 1 
1 1 1 1 1 1 1 1 1 
1 1 1 1 1 1 1 1 1 
1 1 1 1 1 1 1 1 1 
1 1 1 1 1 1 1 1 1 
1 1 1 1 1 1 1 1 1 
1 1 1 1 1 1 1 1 1 
1 1 1 1 1 1 1 1 1 
1 1 1 1 1 1 1 1 1 
1 1 1 1 1 1 1 1 1 
1 1 1 1 1 1 1 1 1 
1 1 1 1 1 1 1 1 1 
1 1 1 1 1 1 1 1 1 
1 1 1 1 1 1 1 1 1 
1 1 1 1 1 1 1 1 1 
1 1 1 1 1 1 1 1 1 
1 1 1 1 1 1 1 1 1 
1 1 1 1 1 1 1 1 1 
1 1 1 1 1 1 1 1 1 
1 1 1 1 1 1 1 1 1 
1 1 1 1 1 1 1 1 1 
1 1 1 
i 3 768 int
0 0 0 0 0 0 0 0 0 
0 0 0 0 0 0 0 0 0 
0 0 0 0 0 0 0 0 0 
0 0 0 0 0 0 0 0 0 
0 0 0 0 0 0 0 0 0 
0 0 0 0 0 0 0 0 0 
0 0 0 0 0 0 0 0 0 
0 0 0 0 0 0 0 0 0 
0 0 0 0 0 0 0 0 0 
0 0 0 0 0 0 0 0 0 
0 0 0 0 0 0 0 0 0 
0 0 0 0 0 0 0 0 0 
0 0 0 0 0 0 0 0 0 
0 0 0 0 0 0 0 0 0 
0 0 0 0 0 0 0 0 0 
0 0 0 0 0 0 0 0 0 
0 0 0 0 0 0 0 0 0 
0 0 0 0 0 0 0 0 0 
0 0 0 0 0 0 0 0 0 
0 0 0 0 0 0 0 0 0 
0 0 0 0 0 0 0 0 0 
0 0 0 0 0 0 0 0 0 
0 0 0 0 0 0 0 0 0 
0 0 0 0 0 0 0 0 0 
0 0 0 0 0 0 0 0 0 
0 0 0 0 0 0 0 0 0 
0 0 0 0 0 0 0 0 0 
0 0 0 0 0 0 0 0 0 
0 0 0 0 0 0 0 0 0 
0 0 0 0 0 0 0 0 0 
0 0 0 0 0 0 0 0 0 
0 0 0 0 0 0 0 0 0 
0 0 0 0 0 0 0 0 0 
0 0 0 0 0 0 0 0 0 
0 0 0 0 0 0 0 0 0 
0 0 0 0 0 0 0 0 0 
0 0 0 0 0 0 0 0 0 
0 0 0 0 0 0 0 0 0 
0 0 0 0 0 0 0 0 0 
0 0 0 0 0 0 0 0 0 
0 0 0 0 0 0 0 0 0 
0 0 0 0 0 0 0 0 0 
0 0 0 0 0 0 0 0 0 
0 0 0 0 0 0 0 0 0 
0 0 0 0 0 0 0 0 0 
0 0 0 0 0 0 0 0 0 
0 0 0 0 0 0 0 0 0 
0 0 0 0 0 0 0 0 0 
0 0 0 0 0 0 0 0 0 
0 0 0 0 0 0 0 0 0 
0 0 0 0 0 0 0 0 0 
0 0 0 0 0 0 0 0 0 
0 0 0 0 0 0 0 0 0 
0 0 0 0 0 0 0 0 0 
0 0 0 0 0 0 0 0 0 
0 0 0 0 0 0 0 0 0 
0 0 0 0 0 0 0 0 0 
0 0 0 0 0 0 0 0 0 
0 0 0 0 0 0 0 0 0 
0 0 0 0 0 0 0 0 0 
0 0 0 0 0 0 0 0 0 
0 0 0 0 0 0 0 0 0 
0 0 0 0 0 0 0 0 0 
0 0 0 0 0 0 0 0 0 
0 0 0 0 0 0 0 0 0 
0 0 0 0 0 0 0 0 0 
0 0 0 0 0 0 0 0 0 
0 0 0 0 0 0 0 0 0 
0 0 0 0 0 0 0 0 0 
0 0 0 0 0 0 0 0 0 
0 0 0 0 0 0 0 0 0 
0 0 0 0 0 0 0 0 0 
0 0 0 0 0 0 0 0 0 
0 0 0 0 0 0 0 0 0 
0 0 0 0 0 0 0 0 0 
0 0 0 0 0 0 0 0 0 
0 0 0 0 0 0 0 0 0 
0 0 0 0 0 0 0 0 0 
0 0 0 0 0 0 0 0 0 
0 0 0 0 0 0 0 0 0 
0 0 0 0 0 0 0 0 0 
0 0 0 0 0 0 0 0 0 
0 0 0 0 0 0 0 0 0 
0 0 0 0 0 0 0 0 0 
0 0 0 0 0 0 0 0 0 
0 0 0 0 0 0 0 0 0 
0 0 0 0 0 0 0 0 0 
0 0 0 0 0 0 0 0 0 
0 0 0 0 0 0 0 0 0 
0 0 0 0 0 0 0 0 0 
0 0 0 0 0 0 0 0 0 
0 0 0 0 0 0 0 0 0 
0 0 0 0 0 0 0 0 0 
0 0 0 0 0 0 0 0 0 
0 0 0 0 0 0 0 0 0 
0 0 0 0 0 0 0 0 0 
0 0 0 0 0 0 0 0 0 
0 0 0 0 0 0 0 0 0 
0 0 0 0 0 0 0 0 0 
0 0 0 0 0 0 0 0 0 
0 0 0 0 0 0 0 0 0 
0 0 0 0 0 0 0 0 0 
0 0 0 0 0 0 0 0 0 
0 0 0 0 0 0 0 0 0 
0 0 0 0 0 0 0 0 0 
0 0 0 0 0 0 0 0 0 
0 0 0 0 0 0 0 0 0 
0 0 0 0 0 0 0 0 0 
0 0 0 0 0 0 0 0 0 
0 0 0 0 0 0 0 0 0 
0 0 0 0 0 0 0 0 0 
0 0 0 0 0 0 0 0 0 
0 0 0 0 0 0 0 0 0 
0 0 0 0 0 0 0 0 0 
0 0 0 0 0 0 0 0 0 
0 0 0 0 0 0 0 0 0 
0 0 0 0 0 0 0 0 0 
0 0 0 0 0 0 0 0 0 
0 0 0 0 0 0 0 0 0 
0 0 0 0 0 0 0 0 0 
0 0 0 0 0 0 0 0 0 
0 0 0 0 0 0 0 0 0 
0 0 0 0 0 0 0 0 0 
0 0 0 0 0 0 0 0 0 
0 0 0 0 0 0 0 0 0 
0 0 0 0 0 0 0 0 0 
0 0 0 0 0 0 0 0 0 
0 0 0 0 0 0 0 0 0 
0 0 0 0 0 0 0 0 0 
0 0 0 0 0 0 0 0 0 
0 0 0 0 0 0 0 0 0 
0 0 0 0 0 0 0 0 0 
0 0 0 0 0 0 0 0 0 
0 0 0 0 0 0 0 0 0 
0 0 0 0 0 0 0 0 0 
0 0 0 0 0 0 0 0 0 
0 0 0 0 0 0 0 0 0 
0 0 0 0 0 0 0 0 0 
0 0 0 0 0 0 0 0 0 
0 0 0 0 0 0 0 0 0 
0 0 0 0 0 0 0 0 0 
0 0 0 0 0 0 0 0 0 
0 0 0 0 0 0 0 0 0 
0 0 0 0 0 0 0 0 0 
0 0 0 0 0 0 0 0 0 
0 0 0 0 0 0 0 0 0 
0 0 0 0 0 0 0 0 0 
0 0 0 0 0 0 0 0 0 
0 0 0 0 0 0 0 0 0 
0 0 0 0 0 0 0 0 0 
0 0 0 0 0 0 0 0 0 
0 0 0 0 0 0 0 0 0 
0 0 0 0 0 0 0 0 0 
0 0 0 0 0 0 0 0 0 
0 0 0 0 0 0 0 0 0 
0 0 0 0 0 0 0 0 0 
0 0 0 0 0 0 0 0 0 
0 0 0 0 0 0 0 0 0 
0 0 0 0 0 0 0 0 0 
0 0 0 0 0 0 0 0 0 
0 0 0 0 0 0 0 0 0 
0 0 0 0 0 0 0 0 0 
0 0 0 0 0 0 0 0 0 
0 0 0 0 0 0 0 0 0 
0 0 0 0 0 0 0 0 0 
0 0 0 0 0 0 0 0 0 
0 0 0 0 0 0 0 0 0 
0 0 0 0 0 0 0 0 0 
0 0 0 0 0 0 0 0 0 
0 0 0 0 0 0 0 0 0 
0 0 0 0 0 0 0 0 0 
0 0 0 0 0 0 0 0 0 
0 0 0 0 0 0 0 0 0 
0 0 0 0 0 0 0 0 0 
0 0 0 0 0 0 0 0 0 
0 0 0 0 0 0 0 0 0 
0 0 0 0 0 0 0 0 0 
0 0 0 0 0 0 0 0 0 
0 0 0 0 0 0 0 0 0 
0 0 0 0 0 0 0 0 0 
0 0 0 0 0 0 0 0 0 
0 0 0 0 0 0 0 0 0 
0 0 0 0 0 0 0 0 0 
0 0 0 0 0 0 0 0 0 
0 0 0 0 0 0 0 0 0 
0 0 0 0 0 0 0 0 0 
0 0 0 0 0 0 0 0 0 
0 0 0 0 0 0 0 0 0 
0 0 0 0 0 0 0 0 0 
0 0 0 0 0 0 0 0 0 
0 0 0 0 0 0 0 0 0 
0 0 0 0 0 0 0 0 0 
0 0 0 0 0 0 0 0 0 
0 0 0 0 0 0 0 0 0 
0 0 0 0 0 0 0 0 0 
0 0 0 0 0 0 0 0 0 
0 0 0 0 0 0 0 0 0 
0 0 0 0 0 0 0 0 0 
0 0 0 0 0 0 0 0 0 
0 0 0 0 0 0 0 0 0 
0 0 0 0 0 0 0 0 0 
0 0 0 0 0 0 0 0 0 
0 0 0 0 0 0 0 0 0 
0 0 0 0 0 0 0 0 0 
0 0 0 0 0 0 0 0 0 
0 0 0 0 0 0 0 0 0 
0 0 0 0 0 0 0 0 0 
0 0 0 0 0 0 0 0 0 
0 0 0 0 0 0 0 0 0 
0 0 0 0 0 0 0 0 0 
0 0 0 0 0 0 0 0 0 
0 0 0 0 0 0 0 0 0 
0 0 0 0 0 0 0 0 0 
0 0 0 0 0 0 0 0 0 
0 0 0 0 0 0 0 0 0 
0 0 0 0 0 0 0 0 0 
0 0 0 0 0 0 0 0 0 
0 0 0 0 0 0 0 0 0 
0 0 0 0 0 0 0 0 0 
0 0 0 0 0 0 0 0 0 
0 0 0 0 0 0 0 0 0 
0 0 0 0 0 0 0 0 0 
0 0 0 0 0 0 0 0 0 
0 0 0 0 0 0 0 0 0 
0 0 0 0 0 0 0 0 0 
0 0 0 0 0 0 0 0 0 
0 0 0 0 0 0 0 0 0 
0 0 0 0 0 0 0 0 0 
0 0 0 0 0 0 0 0 0 
0 0 0 0 0 0 0 0 0 
0 0 0 0 0 0 0 0 0 
0 0 0 0 0 0 0 0 0 
0 0 0 0 0 0 0 0 0 
0 0 0 0 0 0 0 0 0 
0 0 0 0 0 0 0 0 0 
0 0 0 0 0 0 0 0 0 
0 0 0 0 0 0 0 0 0 
0 0 0 0 0 0 0 0 0 
0 0 0 0 0 0 0 0 0 
0 0 0 0 0 0 0 0 0 
0 0 0 0 0 0 0 0 0 
0 0 0 0 0 0 0 0 0 
0 0 0 0 0 0 0 0 0 
0 0 0 0 0 0 0 0 0 
0 0 0 0 0 0 0 0 0 
0 0 0 0 0 0 0 0 0 
0 0 0 0 0 0 0 0 0 
0 0 0 0 0 0 0 0 0 
0 0 0 0 0 0 0 0 0 
0 0 0 0 0 0 0 0 0 
0 0 0 0 0 0 0 0 0 
0 0 0 0 0 0 0 0 0 
0 0 0 0 0 0 0 0 0 
0 0 0 0 0 0 0 0 0 
0 0 0 0 0 0 0 0 0 
0 0 0 0 0 0 0 0 0 

v 3 768 double
0 0 -1 -1.10742 -0.415567 -1.97308 -1.25545 0.0607519 -1.83864 
-1.29111 0.108538 -1.81614 -1.31252 0.0560466 -1.78023 -1.1754 0.0941172 -1.7839 
-1.03567 0.00503888 -1.70808 -1.16904 0.0606071 -1.70275 -1.27288 0.103865 -1.72611 
-1.20862 -0.0337326 -1.68854 -1.29371 0.114281 -1.69055 -1.29017 0.0193838 -1.68625 
-1.39897 0.113604 -1.68665 -1.127 0.00706554 -1.591 -1.17719 0.0576446 -1.61647 
-1.11982 0.054048 -1.60247 -1.25129 0.122772 -1.56658 -1.18765 0.0540333 -1.56128 
-1.19603 0.0530832 -1.55891 -1.18543 0.0175571 -1.50568 -1.17839 0.0211692 -1.50834 
-1.16776 0.0724586 -1.50621 -1.26834 -0.0207936 -1.536 -1.24546 0.0513306 -1.42722 
-1.18361 -0.0528103 -1.44971 -1.04352 -0.042083 -1.45422 -1.19366 0.102042 -1.42491 
-1.23072 0.093899 -1.41816 -1.2655 -0.225398 -1.4872 -1.06692 -0.0515962 -1.42196 
-1.23894 -0.418897 -1.5949 -1.22797 -0.377059 -1.40737 -1.10183 0.0117228 -1.2979 
-1.15886 -0.0318438 -1.26535 -0.998737 -0.0314326 -1.25692 -1.13363 -0.0393364 -1.24002 
-1.10511 -0.0595757 -1.22956 -1.2142 0.0627925 -1.31566 -1.09743 -0.0519123 -1.19552 
-1.12174 0.0429117 -1.11292 -1.05582 -0.0413377 -1.16368 -1.12424 -0.0138933 -1.17183 
-1.13017 0.00827489 -1.12584 -1.12779 0.0325185 -1.15126 -1.14839 0.0644095 -1.08627 
-1.17182 0.00174898 -1.11777 -1.18482 0.0722427 -0.949557 -1.22725 -0.0591901 -1.11004 
-1.21845 -0.263145 -1.03503 -1.18335 -0.261397 -1.08762 -1.32046 -0.122847 -1.14634 
-1.0368 -0.061578 -1.10573 -1.15612 0.0129947 -0.985443 -1.04981 -0.09422 -1.10058 
-1.10957 0.02699 -0.905863 -1.13255 -0.0638577 -0.914943 -1.13505 -0.0622027 -0.93887 
-1.17167 -0.121792 -1.00869 -1.10418 0.0599509 -0.939784 -1.1603 0.0539515 -0.933398 
-1.12561 0.11259 -0.969881 -1.1199 0.0694234 -0.897851 -1.12507 0.126267 -0.947463 
-1.0982 0.0331919 -0.878019 -1.10072 0.0408203 -0.877529 -1.23057 -0.0457108 -0.949876 
-1.00542 0.152193 -0.852645 -1.11456 0.174963 -0.862053 -1.20407 -0.0313051 -0.879755 
-1.07032 0.0212318 -0.879372 -1.13646 -0.0386955 -0.833757 -1.11593 -0.0490146 -0.853312 
-1.02291 0.06165 -0.838265 -1.0907 -0.0150395 -0.942693 -1.00833 0.123384 -0.783593 
-1.08282 0.0357118 -0.709106 -1.13289 -0.046527 -0.789984 -1.06593 -0.00967344 -0.788076 
-1.13553 0.086544 -0.773779 -1.15359 0.0736842 -0.795021 -1.03658 0.023447 -0.819493 
-0.987541 0.0691962 -0.769467 -1.10137 0.0724678 -0.747499 -1.09209 -0.0619901 -0.751441 
-1.15474 0.0173109 -0.762355 -0.969303 0.0176072 -0.648269 -1.13591 -0.0301187 -1.05546 
-1.13766 0.219936 -0.821211 -1.09378 0.0507524 -0.603806 -1.10567 0.0582141 -0.679741 
-1.07999 0.0605004 -0.668176 -1.19415 -0.352798 -0.699434 -1.24198 0.142669 -0.68075 
-1.19959 0.153059 -0.634934 -1.15975 -0.153784 -0.627681 -1.17675 -0.15996 -0.660236 
-1.10591 -0.132975 -0.566482 -1.07977 0.0273167 -0.511175 -1.04272 0.10152 -0.443791 
-1.04285 -0.0326138 -0.445746 -1.055 -0.0154901 -0.445672 -1.02911 0.0277462 -0.432049 
-1.10598 0.0146484 -0.504239 -1.09248 -0.0149197 -0.460751 -1.12063 -0.131516 -0.53078 
-1.1504 -0.130621 -0.52953 -1.06282 0.127956 -0.452957 -1.07465 0.0499042 -0.45577 
-1.04876 0.0783782 -0.469483 -0.942318 0.093627 -0.401186 -0.996654 0.00528373 -0.419753 
-0.96361 0.0325498 -0.403295 -0.981773 0.0323507 -0.41118 -0.992692 -0.0173342 -0.418916 
-1.04848 -0.118462 -0.449869 -1.08853 -0.170939 -0.48768 -1.32811 0.0484367 -0.73202 
-0.995288 0.151034 -0.458492 -0.874877 0.0897953 -0.388947 -1.08578 -0.0401915 -0.313214 
-1.05576 0.00148489 -0.430093 -1.11898 0.0901831 -0.480594 -1.04026 0.117074 -0.456933 
-1.17417 0.0690131 -0.501503 -1.04836 0.132919 -0.432414 -1.03612 0.0582623 -0.439414 
-0.926496 0.0924317 -0.384737 -0.859221 -0.011921 -0.34606 -1.03002 -0.131216 -0.455228 
-1.05459 -0.225587 -0.469257 -1.14874 0.0298065 -0.485891 -0.98159 -0.0378239 -0.413085 
-0.911307 -0.116466 -0.392123 -0.902818 -0.0281812 -0.38229 -0.926572 -0.0306346 -0.392448 
-0.965221 0.0724352 -0.318287 -0.970401 -0.0692987 -0.415565 -1.01912 -0.0532684 -0.433363 
-1.08706 -0.16202 -0.470946 -1.10139 -0.209013 -0.500296 -1.09481 -0.087535 -0.364728 
-1.16652 0.123209 -0.531927 -1.13709 0.0814978 -0.486434 -1.04574 0.040052 -0.442354 
-1.04078 0.0277538 -0.440926 -1.05216 0.0557566 -0.446231 -0.974014 -0.0575907 -0.434788 
-0.895475 -0.142226 -0.395092 -1.15096 -0.234989 -0.512993 -1.13478 0.512235 -0.62104 
-1.1478 0.0781976 -0.493346 -1.03543 -0.19713 -0.429309 -0.75579 -0.056664 -0.317176 
-0.768548 -0.00367192 -0.324342 -0.893539 -0.0915027 -0.381788 -0.994971 -0.0324006 -0.412915 
-0.958645 -0.162198 -0.417014 -0.99163 -0.0167843 -0.386548 -1.03159 0.00822478 -0.429683 
-0.868793 0.132394 -0.53285 -1.00905 0.212595 -0.446907 -0.93969 0.173884 -0.414641 
-0.767714 -0.0465896 -0.320729 -0.94377 0.0582826 -0.380347 -1.06025 -0.00523229 -0.438414 
-0.968531 -0.13245 -0.417619 -1.01834 0.0788486 -0.403194 -1.10302 -0.255513 -0.532984 
-0.884613 0.238358 -0.408333 -0.987731 -0.162189 -0.406237 -0.656271 -0.0749557 -0.274146 
-0.903186 0.0177535 -0.368107 -0.914265 -0.0378499 -0.384635 -0.963765 -0.176203 -0.412318 
-1.09998 -0.0584432 -0.474598 -0.894869 -0.105161 -0.39312 -0.92284 0.0457211 -0.379243 
-0.957965 0.0131926 -0.404324 -0.88847 0.0676141 -0.375496 -1.00837 -0.00349219 -0.422036 
-0.856077 0.0137128 -0.357711 -0.855731 -0.0273269 -0.416863 -0.908828 0.0354902 -0.383951 
-0.918855 0.0595928 -0.379405 -0.882213 0.0686256 -0.362646 -0.967255 -0.0441366 -0.410242 
-1.38782 0.160646 -0.786057 -1.18332 -0.012916 -0.477192 -1.03091 0.163435 -0.460845 
-1.09416 -0.077593 -0.396303 -0.943875 0.0227182 -0.379455 -0.75743 0.0323442 -0.326884 
-0.965792 -0.0269715 -0.407995 -1.1851 -0.0999163 -0.614409 -1.03323 -0.0226963 -0.432707 
-0.962301 -0.0425443 -0.413369 -1.1347 -0.181719 -0.54013 -1.14806 0.213344 -0.552478 
-1.04382 0.189955 -0.439321 -0.950364 -0.0224827 -0.379582 -0.921845 0.0452229 -0.399928 
-0.987299 0.00541051 -0.420104 -0.953947 0.0308864 -0.396084 -0.8826 -0.00641108 -0.406645 
-1.07089 0.0083836 -0.441581 -1.02458 0.0677913 -0.398058 -1.14103 -0.234529 -0.537778 
-0.954123 0.101911 -0.413534 -1.0128 0.00157459 -0.416217 -0.904508 0.00700489 -0.375896 
-0.832287 0.105026 -0.342801 -0.845808 0.0287244 -0.363565 -0.944784 -0.0979989 -0.66343 
-0.887217 0.0207643 -0.367158 -0.738335 0.0433145 -0.309886 -0.805297 -0.0639864 -0.341761 
-0.824635 -0.00804598 -0.334701 -1.02646 -0.157965 -0.69475 -0.941479 0.0612098 -0.395776 
-0.827425 -0.153121 -0.35632 -0.835206 -0.199427 -0.500431 -0.685351 -0.0265455 -0.288608 
-0.704587 -0.0249821 -0.311715 -0.687582 -0.0399768 -0.265539 -0.780967 -0.018405 -0.348488 
-0.838946 -0.0254711 -0.318003 -0.930618 -0.116933 -0.398221 -0.778718 0.0321383 -0.328294 
-0.898925 0.0622081 -0.479022 -0.947723 0.0516386 -0.376146 -0.888959 0.00877719 -0.360501 
-0.965814 0.365282 -0.59126 -0.809659 -0.134729 -0.311146 -1.05228 0.342336 -0.479576 
-1.28841 -0.0826357 -0.75046 -0.966658 0.137279 -0.414328 -0.740175 -0.0384527 -0.302182 
-0.737646 -0.179592 -0.399081 -0.869567 -0.000902053 -0.363238 -0.686921 -0.0740821 -0.214879 
-0.771314 -0.0140876 -0.34572 -0.985003 -0.0449108 -0.412224 -0.777557 -0.299391 -0.472702 
-0.806789 0.260833 -0.412923 -0.846724 0.219052 -0.39554 -0.943552 0.0206109 -0.406268 
-0.926234 0.0507281 -0.445898 -1.02782 -0.0141591 -0.684807 -0.781243 0.00119676 -0.335096 
-0.780825 0.00999637 -0.337167 -0.856965 0.092513 -0.471262 -0.759653 -0.0282364 -0.315638 
-0.680434 -0.0256358 -0.312839 -0.781647 -0.0557436 -0.339686 -0.820709 0.00882435 -0.40989 
-0.842163 -0.00707791 -0.349148 -0.967184 -0.0145942 -0.405022 -1.00323 -0.0313847 -0.415079 
-0.830068 -0.116065 -0.364017 -0.9708 0.166677 -0.458148 -0.732997 0.138688 -0.320749 
-0.84594 -0.0228759 -0.346553 -0.468 -0.0598886 -0.19979 -0.979312 0.0443841 -0.464245 
-0.75106 0.042692 -0.222181 -0.736825 -0.0599734 -0.315199 -0.774103 0.0328469 -0.328388 
-0.958587 0.225753 -0.544428 -0.766924 -0.00425891 -0.207122 -0.985038 0.0134888 -0.414919 
-1.02204 -0.0386488 -0.435431 -0.892121 0.112287 -0.405225 -0.83012 0.0456218 -0.348151 
-0.621572 -0.0583914 -0.312906 -0.644153 -0.0127087 -0.262441 -0.648283 -0.0160822 -0.276995 
-0.643584 -0.0118918 -0.270879 -0.716187 0.00652371 -0.276634 -1.32426 0.0747185 -0.212149 
-0.615763 0.0892468 -0.24206 -0.621305 0.018388 -0.196743 -0.920678 -0.0211358 -0.49918 
-0.811672 0.0513578 -0.359861 -0.721051 -0.0147262 -0.301209 -0.785249 -0.0159741 -0.335125 
-0.724883 -0.0155667 -0.309506 -0.788392 0.0071859 -0.328327 -0.800547 -0.0883958 -0.339246 
-0.680058 -0.0968036 -0.30585 -0.883905 -0.013108 -0.3687 -0.651179 0.0322386 -0.283627 
-1.28136 -0.273859 -0.612272 -0.772239 -0.012586 -0.318856 -0.706606 -0.0764543 -0.274893 
-0.681721 -0.0454918 -0.2431 -0.673797 0.0472743 -0.291446 -0.699296 0.139515 -0.365606 
-0.688968 0.0893939 -0.201035 -0.693582 -0.059397 -0.299034 -0.729092 -0.0370186 -0.299593 
-0.771125 -0.113814 -0.362157 -0.789305 0.0543141 -0.336401 -0.737074 0.0355334 -0.31359 
-0.834474 0.0296519 -0.339139 -0.901458 -0.051095 -0.380371 -0.810287 0.0780654 -0.457321 
-0.752802 -0.102133 -0.336538 -0.858906 -0.0263001 -0.372771 -0.837474 -0.0287924 -0.353318 
-1.07211 0.0226516 -0.404629 -0.955879 0.0380457 -0.38441 -0.690955 0.120022 -0.354344 
-0.975524 0.119831 -0.431536 -0.903286 -0.0442102 -0.0134299 -0.790073 0.0549428 -0.327463 
-0.730556 0.04718 -0.312095 -0.800882 0.0175297 -0.368074 -0.789629 0.0211102 -0.329926 
-0.778747 0.00175794 -0.319203 -0.776582 0.00768307 -0.378813 -1.16253 0.011608 -0.660593 
-0.710584 -0.0967735 -0.336404 -0.679496 -0.138278 -0.220068 -0.807337 -0.235713 -0.410107 
-1.0522 -0.00102418 -0.424252 -0.917958 0.0650561 -0.280084 -0.772438 -0.14809 -0.265596 
-0.722974 0.0786813 -0.305695 -0.766275 0.0105017 -0.267183 -0.733974 0.0388011 -0.328528 
-0.728273 0.0345724 -0.299122 -0.983274 0.027175 -0.387612 -0.726282 0.0296991 -0.307172 
-0.73914 0.0581023 -0.280407 -1.01311 -0.210188 -0.521522 -0.783079 -0.0216818 -0.322264 
-0.780291 -0.0963211 -0.341783 -1.01326 0.0175823 -0.3806 -0.749118 0.0228473 -0.334282 
-0.82641 0.0157719 -0.363233 -0.51352 0.160583 -0.246487 -0.809383 -0.140984 -0.31726 
-0.700792 -0.0173236 -0.299493 -0.714168 -0.0838675 -0.317448 -0.680515 -0.0825571 -0.282819 
-0.725989 -0.107426 -0.225713 -0.774371 0.0756736 -0.315295 -0.671069 0.000351559 -0.209248 