# vtk DataFile Version 4.0
Generated by LIGGGHTS
ASCII
DATASET POLYDATA
POINTS 834 float
-0.0265336 0.0202968 0.0535199 -0.0345451 -0.0038704 0.0534449 -0.0152522 -0.0249178 0.0563127 
-0.0317134 -0.0292309 0.052943 -0.463592 0.00235096 -0.398315 -0.475818 0.0018105 -0.395777 
-0.455965 0.0113546 -0.395426 -0.443413 0.0155185 -0.390987 -0.467595 0.00427487 -0.386782 
-0.467606 0.0101661 -0.389289 -0.46817 -0.0176706 -0.385774 -0.46827 -0.00792727 -0.38374 
-0.471885 0.00475632 -0.384373 -0.462234 0.00911622 -0.379134 -0.452701 0.00757165 -0.378761 
-0.45677 -0.0125776 -0.377441 -0.460021 0.00181789 -0.377425 -0.452043 0.00457155 -0.376063 
-0.439125 0.00614344 -0.375613 -0.445846 0.0134668 -0.377988 -0.450117 -0.0067478 -0.372385 
-0.457287 -0.00880839 -0.368787 -0.461556 0.00692043 -0.368737 -0.451167 0.007857 -0.370709 
-0.462293 -0.0419766 -0.364629 -0.456163 -0.0206983 -0.36505 -0.445736 0.00552383 -0.367391 
-0.460267 -0.00516745 -0.362863 -0.443169 0.00737682 -0.360524 -0.453832 -0.00818384 -0.359982 
-0.44898 -0.00610691 -0.358901 -0.455121 0.0105758 -0.3588 -0.437926 0.0133757 -0.35734 
-0.429091 -0.0121426 -0.355377 -0.449832 0.0016068 -0.353895 -0.432308 0.00166118 -0.354312 
-0.457271 0.0050505 -0.356605 -0.454451 -0.000250039 -0.352602 -0.451125 0.00609175 -0.352268 
-0.446658 0.00581404 -0.349844 -0.4346 0.0243633 -0.351345 -0.469467 -0.0227011 -0.349488 
-0.434976 -0.0179645 -0.346549 -0.431021 -0.00854117 -0.349345 -0.419023 -0.00239425 -0.348259 
-0.450731 -0.00640009 -0.344345 -0.426081 -0.00206355 -0.344448 -0.429436 0.0109301 -0.342842 
-0.426435 0.0177284 -0.343616 -0.448273 0.0240271 -0.345831 -0.445612 -0.0210937 -0.342902 
-0.436803 -0.0115901 -0.339584 -0.440105 -0.00763511 -0.342446 -0.425477 -0.00117582 -0.339058 
-0.434955 -0.00261941 -0.336124 -0.422564 -0.0198605 -0.331938 -0.433919 0.00119165 -0.333916 
-0.422839 0.00183669 -0.334648 -0.418659 -0.000307675 -0.330821 -0.442645 0.0259953 -0.329259 
-0.413885 -0.0114066 -0.326531 -0.411851 0.00207935 -0.326081 -0.421582 0.00535144 -0.325393 
-0.415584 -0.0170111 -0.321605 -0.407693 0.00151789 -0.321248 -0.417864 0.0101086 -0.320708 
-0.422851 0.0234879 -0.320355 -0.423324 -0.0129117 -0.319361 -0.4138 -0.00249993 -0.31656 
-0.428253 -0.00362886 -0.316903 -0.415973 0.00727188 -0.316243 -0.415505 0.0140326 -0.313541 
-0.419903 0.0169259 -0.313798 -0.408468 -0.00660931 -0.311867 -0.394333 -0.00471244 -0.310466 
-0.382756 0.0060846 -0.311129 -0.404298 0.0112549 -0.310061 -0.410989 -0.00865107 -0.306115 
-0.403457 0.000218197 -0.307877 -0.402188 0.00409303 -0.307683 -0.403214 -0.000252857 -0.303752 
-0.425974 0.0213522 -0.302901 -0.394021 0.00134211 -0.299837 -0.39864 0.00503391 -0.298898 
-0.390003 0.0139226 -0.299087 -0.410489 -0.0256701 -0.295971 -0.38541 -0.00622997 -0.295011 
-0.391288 0.00261595 -0.295181 -0.393339 0.00800342 -0.295623 -0.398501 0.0146568 -0.297557 
-0.39617 -0.0176252 -0.291244 -0.37929 -0.00291963 -0.294212 -0.387856 0.00433375 -0.292544 
-0.392732 0.0137349 -0.291367 -0.389862 -0.0168207 -0.288341 -0.390309 -0.0114222 -0.288371 
-0.382423 -0.00350924 -0.288939 -0.390308 0.000500406 -0.287089 -0.390976 0.0109271 -0.288479 
-0.394811 0.0196982 -0.290498 -0.399933 0.0285684 -0.289568 -0.385649 0.0136073 -0.286607 
-0.383595 0.0137446 -0.284392 -0.387028 0.0174403 -0.286153 -0.393305 -0.0194404 -0.282731 
-0.385891 0.000146705 -0.280369 -0.382177 0.00456185 -0.280339 -0.376955 0.0127391 -0.282668 
-0.381836 -0.0267823 -0.277922 -0.377663 -0.0128395 -0.278278 -0.380564 0.00801958 -0.279084 
-0.377095 -0.0157685 -0.274999 -0.373504 -0.00894124 -0.273909 -0.372667 -0.000419401 -0.274651 
-0.371337 -0.0134306 -0.269503 -0.37016 -0.00194058 -0.268674 -0.377183 -0.0286195 -0.266701 
-0.369975 -0.0249516 -0.266855 -0.363484 -0.00369594 -0.265029 -0.357382 -0.00165396 -0.26595 
-0.363592 0.0012441 -0.267412 -0.360576 0.00608252 -0.266257 -0.363375 -0.0247255 -0.261729 
-0.360909 0.00237806 -0.261669 -0.368215 0.0265546 -0.26324 -0.354608 -0.0103252 -0.259716 
-0.351639 -0.00215536 -0.258001 -0.353739 0.00137382 -0.258135 -0.354033 0.0158554 -0.257938 
-0.358069 0.01814 -0.26045 -0.355913 0.0229389 -0.25872 -0.369071 -0.0401801 -0.257248 
-0.342589 0.000684528 -0.254959 -0.350719 0.0134065 -0.254105 -0.349066 0.0186957 -0.254582 
-0.352907 0.0212426 -0.255218 -0.344262 -0.0260711 -0.25143 -0.348543 -0.0240563 -0.252513 
-0.343758 -0.0160745 -0.249924 -0.342491 0.00024247 -0.251893 -0.33756 0.00595667 -0.249224 
-0.345244 0.0111516 -0.252556 -0.341502 0.0129857 -0.251041 -0.345678 0.0178662 -0.25114 
-0.373576 -0.0539661 -0.249822 -0.344172 -0.0335382 -0.245832 -0.337262 -0.00974327 -0.249506 
-0.332115 -0.010515 -0.246108 -0.330771 -0.00731935 -0.245431 -0.338191 -0.00610846 -0.247212 
-0.37458 0.00728776 -0.249685 -0.334151 0.00512311 -0.247456 -0.329295 0.00398824 -0.245089 
-0.334726 0.00835927 -0.247554 -0.340959 -0.0340976 -0.245243 -0.327584 -0.0141465 -0.243123 
-0.325488 -0.00752391 -0.242907 -0.330672 -0.00025933 -0.244949 -0.324973 -0.00291124 -0.243151 
-0.350385 0.0013893 -0.243918 -0.326338 0.000995031 -0.242709 -0.327549 0.00670444 -0.243829 
-0.325618 0.0050414 -0.241516 -0.331716 0.00872033 -0.244758 -0.322435 0.0102918 -0.241452 
-0.329585 0.0124393 -0.244571 -0.343869 0.0310293 -0.245599 -0.345289 -0.0405388 -0.24251 
-0.319156 -0.00887476 -0.240216 -0.32231 -0.00636119 -0.239682 -0.318232 0.0087871 -0.239775 
-0.314731 0.00932369 -0.238267 -0.323162 0.0132958 -0.241527 -0.329746 0.0284208 -0.239845 
-0.311436 -0.0102542 -0.236821 -0.312084 -0.000452535 -0.236637 -0.30462 0.0025835 -0.234433 
-0.310325 0.00637146 -0.236465 -0.313043 0.00689557 -0.237696 -0.313526 0.0120793 -0.237588 
-0.310317 0.011347 -0.235174 -0.306278 0.0121776 -0.234518 -0.317081 0.0157317 -0.237405 
-0.311204 0.0176406 -0.235676 -0.310344 0.0208727 -0.234688 -0.30399 -0.0169462 -0.231767 
-0.305556 -0.0122871 -0.234193 -0.302767 -0.0041799 -0.233491 -0.300837 -0.00685693 -0.23275 
-0.300984 -0.000929825 -0.233019 -0.300457 0.00270984 -0.23267 -0.303139 0.00608364 -0.232502 
-0.303902 0.0109325 -0.231518 -0.308383 0.015704 -0.233581 -0.308828 0.024714 -0.232176 
-0.336664 0.0484316 -0.235209 -0.297105 -0.0181108 -0.228745 -0.300271 -0.0145338 -0.231668 
-0.293233 -0.00893058 -0.229283 -0.290212 -0.00949361 -0.228059 -0.326605 0.0516269 -0.22869 
-0.291886 -0.0183108 -0.226552 -0.285563 -0.0158508 -0.225413 -0.28715 -0.01202 -0.225409 
-0.282647 -0.0118272 -0.224625 -0.282892 -0.00412352 -0.224892 -0.280688 -0.00204829 -0.224414 
-0.290273 0.00598139 -0.227082 -0.285374 0.00706651 -0.226031 -0.290203 0.0116393 -0.226689 
-0.285641 0.010804 -0.225903 -0.286525 0.0141506 -0.226054 -0.286783 0.0179128 -0.225483 
-0.283693 0.0143352 -0.224804 -0.283773 0.0181608 -0.224156 -0.287067 -0.0359271 -0.221074 
-0.288319 -0.030897 -0.221993 -0.280838 -0.0275413 -0.221086 -0.283295 -0.0182935 -0.222953 
-0.277254 -0.0166282 -0.221838 -0.272905 -0.014386 -0.220256 -0.271524 -0.00817756 -0.220338 
-0.271858 -0.00515988 -0.220591 -0.276048 -0.00103252 -0.222489 -0.272872 -0.000682626 -0.220084 
-0.279795 0.00294884 -0.222859 -0.275988 0.00756155 -0.222093 -0.28155 0.0113858 -0.223091 
-0.277143 0.0118143 -0.222329 -0.280491 0.0186168 -0.22157 -0.290099 -0.0429788 -0.21945 
-0.283454 -0.0304408 -0.219873 -0.270556 -0.0115789 -0.218492 -0.262575 -0.00963735 -0.216447 
-0.265402 -0.00551174 -0.217841 -0.268917 -0.00144719 -0.219481 -0.268195 0.00300699 -0.219058 
-0.265846 0.000366184 -0.217116 -0.261838 0.00288472 -0.216378 -0.272611 0.00477613 -0.219764 
-0.26608 0.00496642 -0.218053 -0.270316 0.00882382 -0.217954 -0.270336 0.0125426 -0.21943 
-0.263323 0.011443 -0.216595 -0.266284 0.012725 -0.21769 -0.274658 0.0161371 -0.219531 
-0.270124 0.0158954 -0.217261 -0.273968 0.0233588 -0.219167 -0.261353 -0.0127747 -0.215581 
-0.259007 -0.0139023 -0.214043 -0.256476 -0.0122132 -0.21346 -0.27067 -0.00749162 -0.216477 
-0.262584 -0.00434222 -0.214909 -0.254227 -0.00693124 -0.213055 -0.261735 0.00673272 -0.214495 
-0.257643 0.00922863 -0.214313 -0.254845 0.00718268 -0.213232 -0.263608 0.0154208 -0.216132 
-0.261533 0.0177683 -0.214904 -0.255525 -0.0185013 -0.212419 -0.253649 -0.0149486 -0.210994 
-0.258479 -0.007153 -0.213433 -0.250334 -0.00968695 -0.211285 -0.251521 -0.00697045 -0.211726 
-0.253143 -0.00311547 -0.211694 -0.250526 0.000343066 -0.211694 -0.253434 0.00366935 -0.212793 
-0.258406 0.0134143 -0.213175 -0.25338 0.0114968 -0.211335 -0.260823 0.0291301 -0.212292 
-0.255208 -0.0298134 -0.208761 -0.243674 -0.0156908 -0.207725 -0.240776 -0.0167222 -0.206416 
-0.246571 -0.0139221 -0.209144 -0.245574 -0.00963827 -0.208192 -0.293174 -0.00659588 -0.209962 
-0.23782 0.000411111 -0.206296 -0.2622 0.00668559 -0.2095 -0.242979 0.00454151 -0.208341 
-0.239337 0.00543441 -0.206758 -0.248861 0.0134792 -0.209135 -0.245336 0.0104138 -0.209103 
-0.237854 -0.0236005 -0.202889 -0.239922 -0.0210096 -0.20544 -0.230443 -0.00955091 -0.202744 
-0.235171 0.00126397 -0.205144 -0.234198 0.00407844 -0.204658 -0.232687 0.00657592 -0.203943 
-0.244657 0.023765 -0.205874 -0.222565 -0.0100405 -0.199364 -0.220729 -0.00142865 -0.199084 
-0.228793 0.00369135 -0.2013 -0.226174 0.00798568 -0.201162 -0.221418 0.00779921 -0.199188 
-0.222344 0.0108254 -0.199357 -0.223368 0.0137596 -0.199435 -0.235683 0.0135883 -0.203386 
-0.23127 0.0244299 -0.200128 -0.228939 -0.0373476 -0.196869 -0.229127 -0.0326522 -0.198433 
-0.225591 -0.0314546 -0.196089 -0.221195 -0.0300671 -0.195629 -0.224306 -0.0176679 -0.198342 
-0.219072 -0.015367 -0.197421 -0.214521 -0.0130452 -0.195748 -0.218756 -0.0101376 -0.197767 
-0.218208 -0.000281695 -0.197401 -0.215679 0.00127805 -0.196881 -0.213553 0.00674353 -0.195927 
-0.214987 0.0108124 -0.196217 -0.220689 0.015464 -0.196993 -0.220623 0.0204249 -0.196256 
-0.229461 0.033096 -0.198363 -0.235315 0.0372244 -0.198537 -0.234808 0.0412864 -0.197933 
-0.301949 0.0703711 -0.201843 -0.213347 -0.0207905 -0.193348 -0.216376 -0.0171746 -0.195021 
[...]
POINT_DATA 834
FIELD FieldData 7
id 1 834 int
958 951 949 960 186 68 177 82 148 
114 178 150 151 104 118 179 79 188 
202 138 171 132 189 129 294 265 180 
123 107 183 198 119 106 187 225 49 
158 134 70 159 213 210 142 154 204 
157 127 160 83 251 305 195 72 144 
136 166 116 156 278 234 105 115 169 
277 184 170 199 229 244 307 221 228 
200 201 241 215 99 185 109 208 205 
289 250 64 252 223 135 270 143 212 
272 211 124 317 146 181 167 161 182 
191 290 254 175 96 165 284 280 209 
418 152 296 297 172 149 233 295 438 
293 236 298 155 224 288 399 306 197 
329 222 321 256 253 377 261 128 368 
217 276 337 308 255 242 206 264 348 
429 332 299 316 9 220 259 287 275 
230 327 422 353 322 263 446 245 249 
447 363 273 226 386 366 267 218 354 
262 395 282 281 260 339 214 314 192 
232 90 310 390 343 283 304 381 303 
292 266 194 347 320 269 367 423 492 
405 227 470 372 274 243 330 382 235 
333 331 388 248 300 311 240 407 344 
335 371 271 430 203 433 238 315 285 
349 409 246 286 231 239 439 258 216 
237 318 427 387 351 362 370 323 340 
291 378 257 384 279 313 456 389 247 
411 358 336 401 441 302 268 341 374 
414 350 396 476 338 421 309 424 444 
490 355 466 455 462 450 403 397 365 
408 398 326 440 417 428 416 328 473 
425 325 453 400 356 404 448 394 474 
373 522 471 488 511 346 301 483 479 
454 420 459 497 361 359 406 475 434 
410 375 360 334 484 319 345 489 415 
385 478 530 437 519 468 504 451 445 
380 496 469 452 558 493 521 531 442 
376 509 486 508 463 458 499 393 431 
392 357 481 391 554 559 494 364 552 
487 413 485 342 383 312 419 435 500 
412 503 477 546 555 538 624 491 482 
460 498 541 547 507 369 523 600 536 
548 640 379 542 505 556 501 573 465 
495 464 608 449 516 537 524 562 402 
529 502 512 581 597 515 582 598 527 
467 571 588 545 510 532 561 550 590 
517 525 676 520 595 572 426 461 662 
534 544 564 570 526 579 574 605 566 
563 535 589 443 528 533 612 557 631 
514 457 652 551 599 577 586 614 610 
601 634 626 540 602 593 616 585 659 
621 576 436 543 539 594 615 638 549 
506 636 578 672 637 623 603 677 480 
651 668 611 653 617 650 620 658 569 
648 619 633 678 584 607 683 664 629 
663 656 630 592 606 661 604 518 583 
691 669 639 580 568 565 647 618 649 
632 666 628 685 553 675 681 715 655 
717 635 734 609 596 575 613 657 654 
708 716 694 705 567 645 646 627 684 
560 673 591 686 665 689 625 587 643 
695 642 688 670 667 710 725 644 641 
704 740 622 674 755 513 747 711 671 
722 687 698 699 690 766 720 726 748 
752 778 760 692 742 779 739 718 700 
696 703 680 701 730 706 729 682 432 
727 791 721 770 702 793 709 660 802 
731 693 736 774 743 707 737 723 764 
771 735 805 780 751 749 772 733 765 
712 750 807 738 758 746 797 804 769 
786 744 697 768 788 790 775 757 763 
754 728 785 777 801 784 796 776 472 
741 719 767 798 745 789 759 803 806 
817 800 792 794 714 753 713 756 679 
787 762 724 799 815 814 810 795 816 
812 761 732 819 773 783 781 808 782 
811 809 813 818 826 829 830 820 823 
831 824 825 828 842 837 827 822 821 
836 844 841 833 839 840 843 835 832 
838 834 845 850 851 848 855 847 852 
846 857 854 856 849 853 869 861 865 
858 868 862 867 859 866 863 864 860 
878 879 875 880 882 873 870 881 871 
874 877 872 887 876 895 885 888 891 
894 890 892 889 883 905 884 893 886 
906 900 907 901 896 903 908 902 904 
897 899 898 921 914 917 920 913 911 
916 919 918 910 915 909 912 928 924 
933 932 927 930 931 922 929 926 934 
923 925 935 940 943 941 947 945 938 
939 937 936 944 957 946 942 948 954 
955 959 953 950 952 956 
type 1 834 int
1 1 1 1 1 1 1 1 1 
1 1 1 1 1 1 1 1 1 
1 1 1 1 1 1 1 1 1 
1 1 1 1 1 1 1 1 1 
1 1 1 1 1 1 1 1 1 
1 1 1 1 1 1 1 1 1 
1 1 1 1 1 1 1 1 1 
1 1 1 1 1 1 1 1 1 
1 1 1 1 1 1 1 1 1 
1 1 1 1 1 1 1 1 1 
1 1 1 1 1 1 1 1 1 
1 1 1 1 1 1 1 1 1 
1 1 1 1 1 1 1 1 1 
1 1 1 1 1 1 1 1 1 
1 1 1 1 1 1 1 1 1 
1 1 1 1 1 1 1 1 1 
1 1 1 1 1 1 1 1 1 
1 1 1 1 1 1 1 1 1 
1 1 1 1 1 1 1 1 1 
1 1 1 1 1 1 1 1 1 
1 1 1 1 1 1 1 1 1 
1 1 1 1 1 1 1 1 1 
1 1 1 1 1 1 1 1 1 
1 1 1 1 1 1 1 1 1 
1 1 1 1 1 1 1 1 1 
1 1 1 1 1 1 1 1 1 
1 1 1 1 1 1 1 1 1 
1 1 1 1 1 1 1 1 1 
1 1 1 1 1 1 1 1 1 
1 1 1 1 1 1 1 1 1 
1 1 1 1 1 1 1 1 1 
1 1 1 1 1 1 1 1 1 
1 1 1 1 1 1 1 1 1 
1 1 1 1 1 1 1 1 1 
1 1 1 1 1 1 1 1 1 
1 1 1 1 1 1 1 1 1 
1 1 1 1 1 1 1 1 1 
1 1 1 1 1 1 1 1 1 
1 1 1 1 1 1 1 1 1 
1 1 1 1 1 1 1 1 1 
1 1 1 1 1 1 1 1 1 
1 1 1 1 1 1 1 1 1 
1 1 1 1 1 1 1 1 1 
1 1 1 1 1 1 1 1 1 
1 1 1 1 1 1 1 1 1 
1 1 1 1 1 1 1 1 1 
1 1 1 1 1 1 1 1 1 
1 1 1 1 1 1 1 1 1 
1 1 1 1 1 1 1 1 1 
1 1 1 1 1 1 1 1 1 
1 1 1 1 1 1 1 1 1 
1 1 1 1 1 1 1 1 1 
1 1 1 1 1 1 1 1 1 
1 1 1 1 1 1 1 1 1 
1 1 1 1 1 1 1 1 1 
1 1 1 1 1 1 1 1 1 
1 1 1 1 1 1 1 1 1 
1 1 1 1 1 1 1 1 1 
1 1 1 1 1 1 1 1 1 
1 1 1 1 1 1 1 1 1 
1 1 1 1 1 1 1 1 1 
1 1 1 1 1 1 1 1 1 
1 1 1 1 1 1 1 1 1 
1 1 1 1 1 1 1 1 1 
1 1 1 1 1 1 1 1 1 
1 1 1 1 1 1 1 1 1 
1 1 1 1 1 1 1 1 1 
1 1 1 1 1 1 1 1 1 
1 1 1 1 1 1 1 1 1 
1 1 1 1 1 1 1 1 1 
1 1 1 1 1 1 1 1 1 
1 1 1 1 1 1 1 1 1 
1 1 1 1 1 1 1 1 1 
1 1 1 1 1 1 1 1 1 
1 1 1 1 1 1 1 1 1 
1 1 1 1 1 1 1 1 1 
1 1 1 1 1 1 1 1 1 
1 1 1 1 1 1 1 1 1 
1 1 1 1 1 1 1 1 1 
1 1 1 1 1 1 1 1 1 
1 1 1 1 1 1 1 1 1 
1 1 1 1 1 1 1 1 1 
1 1 1 1 1 1 1 1 1 
1 1 1 1 1 1 1 1 1 
1 1 1 1 1 1 1 1 1 
1 1 1 1 1 1 1 1 1 
1 1 1 1 1 1 1 1 1 
1 1 1 1 1 1 1 1 1 
1 1 1 1 1 1 1 1 1 
1 1 1 1 1 1 1 1 1 
1 1 1 1 1 1 1 1 1 
1 1 1 1 1 1 1 1 1 
1 1 1 1 1 1 
i 3 834 int
0 0 0 0 0 0 0 0 0 
0 0 0 0 0 0 0 0 0 
0 0 0 0 0 0 0 0 0 
0 0 0 0 0 0 0 0 0 
0 0 0 0 0 0 0 0 0 
0 0 0 0 0 0 0 0 0 
0 0 0 0 0 0 0 0 0 
0 0 0 0 0 0 0 0 0 
0 0 0 0 0 0 0 0 0 
0 0 0 0 0 0 0 0 0 
0 0 0 0 0 0 0 0 0 
0 0 0 0 0 0 0 0 0 
0 0 0 0 0 0 0 0 0 
0 0 0 0 0 0 0 0 0 
0 0 0 0 0 0 0 0 0 
0 0 0 0 0 0 0 0 0 
0 0 0 0 0 0 0 0 0 
0 0 0 0 0 0 0 0 0 
0 0 0 0 0 0 0 0 0 
0 0 0 0 0 0 0 0 0 
0 0 0 0 0 0 0 0 0 
0 0 0 0 0 0 0 0 0 
0 0 0 0 0 0 0 0 0 
0 0 0 0 0 0 0 0 0 
0 0 0 0 0 0 0 0 0 
0 0 0 0 0 0 0 0 0 
0 0 0 0 0 0 0 0 0 
0 0 0 0 0 0 0 0 0 
0 0 0 0 0 0 0 0 0 
0 0 0 0 0 0 0 0 0 
0 0 0 0 0 0 0 0 0 
0 0 0 0 0 0 0 0 0 
0 0 0 0 0 0 0 0 0 
0 0 0 0 0 0 0 0 0 
0 0 0 0 0 0 0 0 0 
0 0 0 0 0 0 0 0 0 
0 0 0 0 0 0 0 0 0 
0 0 0 0 0 0 0 0 0 
0 0 0 0 0 0 0 0 0 
0 0 0 0 0 0 0 0 0 
0 0 0 0 0 0 0 0 0 
0 0 0 0 0 0 0 0 0 
0 0 0 0 0 0 0 0 0 
0 0 0 0 0 0 0 0 0 
0 0 0 0 0 0 0 0 0 
0 0 0 0 0 0 0 0 0 
0 0 0 0 0 0 0 0 0 
0 0 0 0 0 0 0 0 0 
0 0 0 0 0 0 0 0 0 
0 0 0 0 0 0 0 0 0 
0 0 0 0 0 0 0 0 0 
0 0 0 0 0 0 0 0 0 
0 0 0 0 0 0 0 0 0 
0 0 0 0 0 0 0 0 0 
0 0 0 0 0 0 0 0 0 
0 0 0 0 0 0 0 0 0 
0 0 0 0 0 0 0 0 0 
0 0 0 0 0 0 0 0 0 
0 0 0 0 0 0 0 0 0 
0 0 0 0 0 0 0 0 0 
0 0 0 0 0 0 0 0 0 
0 0 0 0 0 0 0 0 0 
0 0 0 0 0 0 0 0 0 
0 0 0 0 0 0 0 0 0 
0 0 0 0 0 0 0 0 0 
0 0 0 0 0 0 0 0 0 
0 0 0 0 0 0 0 0 0 
0 0 0 0 0 0 0 0 0 
0 0 0 0 0 0 0 0 0 
0 0 0 0 0 0 0 0 0 
0 0 0 0 0 0 0 0 0 
0 0 0 0 0 0 0 0 0 
0 0 0 0 0 0 0 0 0 
0 0 0 0 0 0 0 0 0 
0 0 0 0 0 0 0 0 0 
0 0 0 0 0 0 0 0 0 
0 0 0 0 0 0 0 0 0 
0 0 0 0 0 0 0 0 0 
0 0 0 0 0 0 0 0 0 
0 0 0 0 0 0 0 0 0 
0 0 0 0 0 0 0 0 0 
0 0 0 0 0 0 0 0 0 
0 0 0 0 0 0 0 0 0 
0 0 0 0 0 0 0 0 0 
0 0 0 0 0 0 0 0 0 
0 0 0 0 0 0 0 0 0 
0 0 0 0 0 0 0 0 0 
0 0 0 0 0 0 0 0 0 
0 0 0 0 0 0 0 0 0 
0 0 0 0 0 0 0 0 0 
0 0 0 0 0 0 0 0 0 
0 0 0 0 0 0 0 0 0 
0 0 0 0 0 0 0 0 0 
0 0 0 0 0 0 0 0 0 
0 0 0 0 0 0 0 0 0 
0 0 0 0 0 0 0 0 0 
0 0 0 0 0 0 0 0 0 
0 0 0 0 0 0 0 0 0 
0 0 0 0 0 0 0 0 0 
0 0 0 0 0 0 0 0 0 
0 0 0 0 0 0 0 0 0 
0 0 0 0 0 0 0 0 0 
0 0 0 0 0 0 0 0 0 
0 0 0 0 0 0 0 0 0 
0 0 0 0 0 0 0 0 0 
0 0 0 0 0 0 0 0 0 
0 0 0 0 0 0 0 0 0 
0 0 0 0 0 0 0 0 0 
0 0 0 0 0 0 0 0 0 
0 0 0 0 0 0 0 0 0 
0 0 0 0 0 0 0 0 0 
0 0 0 0 0 0 0 0 0 
0 0 0 0 0 0 0 0 0 
0 0 0 0 0 0 0 0 0 
0 0 0 0 0 0 0 0 0 
0 0 0 0 0 0 0 0 0 
0 0 0 0 0 0 0 0 0 
0 0 0 0 0 0 0 0 0 
0 0 0 0 0 0 0 0 0 
0 0 0 0 0 0 0 0 0 
0 0 0 0 0 0 0 0 0 
0 0 0 0 0 0 0 0 0 
0 0 0 0 0 0 0 0 0 
0 0 0 0 0 0 0 0 0 
0 0 0 0 0 0 0 0 0 
0 0 0 0 0 0 0 0 0 
0 0 0 0 0 0 0 0 0 
0 0 0 0 0 0 0 0 0 
0 0 0 0 0 0 0 0 0 
0 0 0 0 0 0 0 0 0 
0 0 0 0 0 0 0 0 0 
0 0 0 0 0 0 0 0 0 
0 0 0 0 0 0 0 0 0 
0 0 0 0 0 0 0 0 0 
0 0 0 0 0 0 0 0 0 
0 0 0 0 0 0 0 0 0 
0 0 0 0 0 0 0 0 0 
0 0 0 0 0 0 0 0 0 
0 0 0 0 0 0 0 0 0 
0 0 0 0 0 0 0 0 0 
0 0 0 0 0 0 0 0 0 
0 0 0 0 0 0 0 0 0 
0 0 0 0 0 0 0 0 0 
0 0 0 0 0 0 0 0 0 
0 0 0 0 0 0 0 0 0 
0 0 0 0 0 0 0 0 0 
0 0 0 0 0 0 0 0 0 
0 0 0 0 0 0 0 0 0 
0 0 0 0 0 0 0 0 0 
0 0 0 0 0 0 0 0 0 
0 0 0 0 0 0 0 0 0 
0 0 0 0 0 0 0 0 0 
0 0 0 0 0 0 0 0 0 
0 0 0 0 0 0 0 0 0 
0 0 0 0 0 0 0 0 0 
0 0 0 0 0 0 0 0 0 
0 0 0 0 0 0 0 0 0 
0 0 0 0 0 0 0 0 0 
0 0 0 0 0 0 0 0 0 
0 0 0 0 0 0 0 0 0 
0 0 0 0 0 0 0 0 0 
0 0 0 0 0 0 0 0 0 
0 0 0 0 0 0 0 0 0 
0 0 0 0 0 0 0 0 0 
0 0 0 0 0 0 0 0 0 
0 0 0 0 0 0 0 0 0 
0 0 0 0 0 0 0 0 0 
0 0 0 0 0 0 0 0 0 
0 0 0 0 0 0 0 0 0 
0 0 0 0 0 0 0 0 0 
0 0 0 0 0 0 0 0 0 
0 0 0 0 0 0 0 0 0 
0 0 0 0 0 0 0 0 0 
0 0 0 0 0 0 0 0 0 
0 0 0 0 0 0 0 0 0 
0 0 0 0 0 0 0 0 0 
0 0 0 0 0 0 0 0 0 
0 0 0 0 0 0 0 0 0 
0 0 0 0 0 0 0 0 0 
0 0 0 0 0 0 0 0 0 
0 0 0 0 0 0 0 0 0 
0 0 0 0 0 0 0 0 0 
0 0 0 0 0 0 0 0 0 
0 0 0 0 0 0 0 0 0 
0 0 0 0 0 0 0 0 0 
0 0 0 0 0 0 0 0 0 
0 0 0 0 0 0 0 0 0 
0 0 0 0 0 0 0 0 0 
0 0 0 0 0 0 0 0 0 
0 0 0 0 0 0 0 0 0 
0 0 0 0 0 0 0 0 0 
0 0 0 0 0 0 0 0 0 
0 0 0 0 0 0 0 0 0 
0 0 0 0 0 0 0 0 0 
0 0 0 0 0 0 0 0 0 
0 0 0 0 0 0 0 0 0 
0 0 0 0 0 0 0 0 0 
0 0 0 0 0 0 0 0 0 
0 0 0 0 0 0 0 0 0 
0 0 0 0 0 0 0 0 0 
0 0 0 0 0 0 0 0 0 
0 0 0 0 0 0 0 0 0 
0 0 0 0 0 0 0 0 0 
0 0 0 0 0 0 0 0 0 
0 0 0 0 0 0 0 0 0 
0 0 0 0 0 0 0 0 0 
0 0 0 0 0 0 0 0 0 
0 0 0 0 0 0 0 0 0 
0 0 0 0 0 0 0 0 0 
0 0 0 0 0 0 0 0 0 
0 0 0 0 0 0 0 0 0 
0 0 0 0 0 0 0 0 0 
0 0 0 0 0 0 0 0 0 
0 0 0 0 0 0 0 0 0 
0 0 0 0 0 0 0 0 0 
0 0 0 0 0 0 0 0 0 
0 0 0 0 0 0 0 0 0 
0 0 0 0 0 0 0 0 0 
0 0 0 0 0 0 0 0 0 
0 0 0 0 0 0 0 0 0 
0 0 0 0 0 0 0 0 0 
0 0 0 0 0 0 0 0 0 
0 0 0 0 0 0 0 0 0 
0 0 0 0 0 0 0 0 0 
0 0 0 0 0 0 0 0 0 
0 0 0 0 0 0 0 0 0 
0 0 0 0 0 0 0 0 0 
0 0 0 0 0 0 0 0 0 
0 0 0 0 0 0 0 0 0 
0 0 0 0 0 0 0 0 0 
0 0 0 0 0 0 0 0 0 
0 0 0 0 0 0 0 0 0 
0 0 0 0 0 0 0 0 0 
0 0 0 0 0 0 0 0 0 
0 0 0 0 0 0 0 0 0 
0 0 0 0 0 0 0 0 0 
0 0 0 0 0 0 0 0 0 
0 0 0 0 0 0 0 0 0 
0 0 0 0 0 0 0 0 0 
0 0 0 0 0 0 0 0 0 
0 0 0 0 0 0 0 0 0 
0 0 0 0 0 0 0 0 0 
0 0 0 0 0 0 0 0 0 
0 0 0 0 0 0 0 0 0 
0 0 0 0 0 0 0 0 0 
0 0 0 0 0 0 0 0 0 
0 0 0 0 0 0 0 0 0 
0 0 0 0 0 0 0 0 0 
0 0 0 0 0 0 0 0 0 
0 0 0 0 0 0 0 0 0 
0 0 0 0 0 0 0 0 0 
0 0 0 0 0 0 0 0 0 
0 0 0 0 0 0 0 0 0 
0 0 0 0 0 0 0 0 0 
0 0 0 0 0 0 0 0 0 
0 0 0 0 0 0 0 0 0 
0 0 0 0 0 0 0 0 0 
0 0 0 0 0 0 0 0 0 
0 0 0 0 0 0 0 0 0 
0 0 0 0 0 0 0 0 0 
0 0 0 0 0 0 0 0 0 
0 0 0 0 0 0 0 0 0 
0 0 0 0 0 0 0 0 0 
0 0 0 0 0 0 0 0 0 
0 0 0 0 0 0 0 0 0 
0 0 0 0 0 0 0 0 0 
0 0 0 0 0 0 0 0 0 
0 0 0 0 0 0 0 0 0 
0 0 0 0 0 0 0 0 0 
0 0 0 0 0 0 0 0 0 
0 0 0 0 0 0 0 0 0 
0 0 0 0 0 0 0 0 0 
0 0 0 0 0 0 0 0 0 
0 0 0 0 0 0 0 0 0 
0 0 0 0 0 0 0 0 0 
0 0 0 0 0 0 0 0 0 
0 0 0 0 0 0 0 0 0 
0 0 0 0 0 0 0 0 0 

v 3 834 double
0 0 -1 0 0 -1 0 0 -1 
0 0 -1 -1.05533 0.007542 -1.82746 -1.10271 -0.0877169 -1.78094 
-1.00914 0.0655862 -1.81633 -0.79908 0.192353 -1.87358 -1.31357 0.000381016 -1.82851 
-1.0947 -0.0154384 -1.76619 -1.06282 0.127956 -1.7675 -1.11336 0.0338284 -1.7298 
-1.1941 -0.0777868 -1.75012 -1.06358 0.0776617 -1.6944 -1.00839 -0.00542407 -1.71982 
-1.06987 0.0163512 -1.70653 -1.0787 0.0773545 -1.70198 -1.04422 -0.00367015 -1.68285 
-0.946199 0.0777158 -1.71287 -0.985408 0.0234253 -1.71018 -0.971636 0.139356 -1.67969 
-1.09571 0.0247785 -1.64417 -1.132 0.118265 -1.62471 -1.0424 0.0342252 -1.63651 
-1.09481 -0.087535 -1.67927 -1.08578 -0.0401915 -1.62775 -1.00344 0.0310623 -1.6342 
-1.17652 0.0340392 -1.61043 -0.977451 0.0123217 -1.59553 -1.1543 0.0308153 -1.61925 
-1.11153 -0.0813879 -1.5879 -1.14175 -0.0597273 -1.60193 -1.02132 0.00715958 -1.6004 
-0.86721 0.108018 -1.55037 -1.14716 0.239158 -1.58433 -0.926415 -0.0261929 -1.52928 
-1.14753 -0.0645282 -1.56931 -1.20975 0.099159 -1.55446 -1.08607 0.0934356 -1.49344 
-1.05663 0.0271079 -1.43392 -0.975709 0.0836101 -1.5396 -1.30201 -0.127471 -1.54892 
-1.04824 -0.128336 -1.51203 -0.984574 -0.0756637 -1.52395 -0.906767 -0.0245925 -1.53444 
-1.22921 0.113399 -1.51959 -0.971564 -0.0522209 -1.4901 -0.964999 0.0272735 -1.45715 
-0.943879 0.0327751 -1.47124 -1.175 -0.275441 -1.64592 -1.20634 0.31037 -1.64388 
-0.97989 -0.14697 -1.4259 -1.2045 -0.276607 -1.53547 -0.959124 -0.0856707 -1.44839 
-1.13301 0.0485565 -1.43864 -0.958266 -0.116579 -1.38127 -1.08291 0.0449325 -1.40788 
-0.980062 -0.0645597 -1.42189 -0.972702 -0.107829 -1.39098 -1.26197 -0.0842652 -1.45837 
-0.943774 -0.164468 -1.36074 -0.971009 -0.0364512 -1.38511 -1.04128 -0.0541165 -1.35798 
-1.09055 -0.128932 -1.36079 -0.938482 0.0116519 -1.30211 -1.05324 -0.00685462 -1.33884 
-1.1201 0.0296316 -1.33888 -1.14597 0.0596474 -1.33011 -1.0244 0.0231564 -1.28773 
-1.34373 0.117182 -1.40619 -1.08177 -0.00368252 -1.29266 -1.12839 0.00292622 -1.28258 
-1.1256 -0.169277 -1.31347 -1.14229 0.257386 -1.34164 -0.860906 -0.0297012 -1.23808 
-0.735834 0.0629673 -1.31278 -0.986592 0.00842437 -1.23404 -1.15873 0.308163 -1.2839 
-0.97308 0.0315411 -1.24301 -0.983198 0.0552615 -1.26126 -1.06446 0.0293947 -1.20836 
-1.19926 -0.149876 -1.20011 -0.845192 0.0269881 -1.07114 -0.987107 -0.0621105 -1.11146 
-1.02063 0.0942051 -1.20364 -1.23335 0.0213085 -1.15741 -0.891318 0.0197102 -1.12071 
-0.930709 0.00640582 -1.08548 -0.978261 0.0146498 -1.11459 -1.0718 -0.00770656 -1.14719 
-1.02834 0.0389882 -1.0832 -0.917824 0.00464036 -1.20382 -0.934905 0.00906679 -1.06739 
-1.08006 -0.0290875 -1.09674 -1.05551 -0.0722161 -1.04932 -1.03141 -0.0509235 -1.04678 
-0.861713 -0.00419694 -1.03274 -1.17737 0.0101711 -1.06315 -1.06477 0.0943245 -1.05861 
-1.1357 0.0258527 -1.10932 -1.17869 -0.0510789 -1.12671 -0.985531 0.0741746 -1.01979 
-1.00509 0.0523094 -0.988021 -1.07613 0.0656212 -1.04693 -1.23285 0.189699 -1.07233 
-1.11874 0.0665628 -0.967227 -1.15653 0.00508291 -0.998809 -0.907631 0.0914391 -0.977487 
-1.12921 -0.0492224 -1.02234 -1.03103 0.0609834 -0.965424 -1.08758 -0.0598513 -0.987678 
-1.02322 0.0727472 -0.937735 -1.05187 0.0244488 -0.906509 -1.01209 0.11951 -0.907394 
-1.0923 -0.0309608 -0.872793 -1.1587 0.0201664 -0.877693 -1.15342 -0.0670013 -0.878003 
-1.10221 -0.101197 -0.838649 -1.13416 0.0313639 -0.819522 -0.994387 -0.12073 -0.962619 
-1.03093 -0.382752 -0.895256 -1.14533 0.104667 -1.00574 -0.785727 0.154342 -0.705452 
-1.3415 -0.0828055 -0.887876 -1.23017 -0.258379 -0.934855 -1.01812 0.00493514 -0.733341 
-1.01017 0.0529042 -0.699936 -1.20281 0.0828919 -0.745902 -1.03247 -0.12736 -0.779699 
-1.03657 -0.139649 -0.834189 -1.0488 -0.0906422 -0.782088 -1.21083 0.347387 -0.998753 
-1.00703 -0.0959988 -0.748163 -1.06896 -0.112182 -0.663468 -0.998662 -0.0751622 -0.704519 
-1.24491 -0.144925 -0.783668 -0.98885 -0.0198163 -0.683764 -1.04679 -0.0180249 -0.655767 
-1.18722 0.134781 -0.704882 -1.11413 0.146858 -0.640862 -1.02978 -0.125746 -0.590476 
-0.990853 -0.0186445 -0.647065 -1.01164 -0.0375925 -0.617734 -1.07628 -0.0482207 -0.667003 
-1.20429 0.377 -1.15578 -1.07599 0.0962372 -0.606898 -0.78174 -0.021316 -0.779913 
-0.799095 -0.00654769 -0.444749 -0.932172 0.0238375 -0.469646 -1.11085 0.0157648 -0.634155 
-1.38242 0.129267 -0.704827 -0.993887 -0.113148 -0.546473 -0.872561 -0.0622327 -0.454168 
-1.0067 -0.101924 -0.567159 -1.16893 0.335404 -0.802956 -1.1733 0.0988828 -0.515738 
-1.08642 0.138321 -0.479018 -0.887055 -0.0226242 -0.469604 -0.989918 0.0622082 -0.503892 
-1.20233 -0.0715096 -0.564239 -0.906368 0.00289329 -0.427864 -0.931975 0.0655332 -0.468408 
-0.946522 0.0186737 -0.434192 -1.02522 -0.00200384 -0.518023 -0.989399 0.0145725 -0.41972 
-1.06313 0.00445064 -0.516849 -1.30647 -0.245863 -0.757529 -1.21927 0.420919 -0.789608 
-0.985338 -0.0704523 -0.391491 -1.02037 -0.0786758 -0.449426 -0.96732 -0.018152 -0.408275 
-0.978466 -0.00494819 -0.407068 -1.01151 -0.194522 -0.470586 -1.15535 -0.103215 -0.55379 
-0.948898 0.0203542 -0.389656 -1.07238 0.200406 -0.460082 -0.943615 -0.0239363 -0.399224 
-0.972454 0.181754 -0.311042 -1.0244 -0.0628666 -0.418184 -1.00175 0.00179734 -0.421521 
-1.02096 -0.0523755 -0.417532 -0.947989 -0.0982634 -0.40953 -1.136 -0.0131176 -0.477645 
-1.05601 -0.178906 -0.475849 -0.94357 -0.161475 -0.425246 -1.06728 -0.00483885 -0.448389 
-1.05346 -0.127762 -0.393868 -0.90207 -0.0760908 -0.386777 -0.935579 -0.0985346 -0.391214 
-0.917935 -0.0488483 -0.385776 -0.874065 -0.0405468 -0.371427 -0.990868 -0.0846073 -0.423606 
-0.990923 -0.0929923 -0.351214 -1.02699 -0.0448805 -0.368229 -0.937498 -0.0337372 -0.408431 
-1.09572 -0.269044 -0.694078 -1.06351 -0.0202854 -0.443154 -1.19748 -0.0495112 -0.472866 
-0.854915 0.0975893 -0.448845 -0.962444 0.0589648 -0.411309 -1.23319 -0.192602 -0.602461 
-0.923606 -0.00648018 -0.320473 -0.854206 0.0967532 -0.369459 -0.912617 0.0798309 -0.392151 
-0.944382 -0.0692921 -0.389877 -0.838303 0.0319024 -0.353513 -0.844749 -0.0217987 -0.3559 
-0.924625 0.0259322 -0.388729 -0.935079 -0.0501988 -0.397207 -0.939248 0.0881132 -0.384047 
-0.972278 -0.0360408 -0.414932 -0.85997 0.00402013 -0.36707 -0.91889 0.0884328 -0.353622 
-0.843949 0.0411569 -0.358232 -0.899109 0.0232974 -0.380467 -1.03225 0.174179 -0.525603 
-1.08282 0.186477 -0.474013 -1.06431 0.0668625 -0.443411 -0.876676 0.0550173 -0.376229 
-1.25801 0.174645 -0.55058 -0.738558 0.022099 -0.314641 -0.80265 -0.0118965 -0.357768 
-0.688403 -0.0242522 -0.290957 -0.804311 -0.0192393 -0.338924 -0.806206 0.0123217 -0.339325 
-0.813068 -0.0540888 -0.347348 -0.816207 0.00499997 -0.336718 -0.901486 -0.0456637 -0.380523 
-0.929874 0.0797762 -0.379336 -0.895746 0.0693699 -0.369532 -1.07848 0.158789 -0.445737 
-1.03218 0.019504 -0.492846 -0.749046 0.0330555 -0.314403 -0.727732 0.120376 -0.317778 
-0.87586 0.0268021 -0.368519 -0.803766 0.00396904 -0.338145 -0.745254 0.0835181 -0.313014 
-0.781083 0.0158188 -0.311951 -0.670823 -0.00478622 -0.285418 -0.785082 -0.0575069 -0.328481 
-0.746278 0.0979478 -0.342064 -0.805544 -0.0722694 -0.223686 -0.602634 -0.0249593 -0.219948 
-0.770207 0.104175 -0.317604 -0.830273 0.0509444 -0.342827 -0.954957 -0.025002 -0.394511 
-0.993153 0.0825158 -0.279904 -0.840787 0.0844656 -0.329772 -0.833471 -0.0182608 -0.342391 
-0.858396 -0.0639336 -0.342824 -0.900184 0.0771812 -0.379019 -0.891893 0.152444 -0.390023 
-0.914369 0.0664713 -0.449593 -0.82104 0.0036951 -0.346115 -0.867238 0.0483423 -0.52176 
-0.701308 0.0723391 -0.290336 -0.920198 -0.0580419 -0.387975 -0.846182 0.162237 -0.335091 
-1.02395 0.0774998 -0.413767 -0.962736 0.0333864 -0.429885 -0.967831 0.0515264 -0.466028 
-0.859711 0.0485923 -0.547384 -0.915649 -0.0520596 -0.379015 -0.840309 -0.0483955 -0.293863 
-0.926415 -0.0445034 -0.386862 -0.879533 -0.0518902 -0.376191 -0.835946 -0.029135 -0.356872 
-0.865427 0.121365 -0.315224 -0.95157 0.00117533 -0.402278 -0.990865 0.0689334 -0.395636 
-1.08096 0.0311154 -0.476931 -0.95861 -0.0290395 -0.379007 -0.946348 -0.0129025 -0.375893 
-0.766203 0.0188271 -0.314212 -0.84729 0.034628 -0.367795 -1.29086 0.0387144 -0.482892 
-0.90014 -0.0410096 -0.387214 -1.1 0.11881 -0.481235 -1.01967 -0.042594 -0.435263 
-0.978559 -0.0706632 -0.418777 -0.944566 0.0109093 -0.397938 -0.961819 -0.0530894 -0.404646 
-0.901844 -0.0284027 -0.400572 -0.904708 -0.0125835 -0.3641 -0.95671 -0.0350504 -0.394281 
-0.903001 -0.0154221 -0.417046 -0.965312 -0.0397311 -0.403379 -0.950529 -0.0445715 -0.418742 
-1.07828 -0.081101 -0.45491 -0.930387 -0.0171026 -0.398075 -0.766464 0.173435 -0.312089 
-1.01392 0.0328474 -0.431918 -0.87963 0.0488993 -0.364952 -0.830336 0.0556242 -0.344313 
-0.892399 0.0213162 -0.386184 -0.94436 0.0201805 -0.401817 -0.896778 -0.130941 -0.314114 
-0.989039 -0.0428765 -0.426701 -0.871444 -0.100784 -0.311714 -0.896762 -0.0523563 -0.368552 
-0.868044 0.0398634 -0.375127 -0.893099 0.113729 -0.39445 -0.918632 0.0260736 -0.400757 
-0.882349 0.0299586 -0.367514 -0.818748 0.0321422 -0.345129 -0.879681 -0.0282612 -0.361962 
-0.827327 0.132869 -0.435366 -0.760391 0.0548718 -0.308437 -0.88295 0.00998179 -0.37967 
-0.837469 0.126151 -0.343886 -0.920023 -0.0119095 -0.393057 -0.955794 -0.0100944 -0.40611 
-0.807182 0.00260233 -0.32603 -0.830895 0.104815 -0.301662 -0.906046 0.108661 -0.331106 
-1.01194 -0.543027 -0.812461 -0.873118 0.00826174 -0.371943 -0.860632 0.024638 -0.373955 
-0.886433 0.0494983 -0.371703 -0.90111 -0.0554466 -0.37582 -0.872641 -0.0131979 -0.359636 