# vtk DataFile Version 4.0
Generated by LIGGGHTS
ASCII
DATASET POLYDATA
POINTS 840 float
-0.0173259 0.00644232 0.0568607 -0.0168097 -0.00428976 0.0560396 -0.0320169 0.0045822 0.0549902 
-0.0208336 -0.0200208 0.0569173 -0.477177 -0.00765664 -0.397892 -0.481438 0.00413403 -0.398688 
-0.470742 0.00973752 -0.393003 -0.465329 -0.0124468 -0.391407 -0.46865 0.00243672 -0.391355 
-0.460397 0.00454219 -0.38984 -0.446695 0.00676517 -0.38963 -0.460768 0.00752826 -0.392833 
-0.453729 0.0136542 -0.391983 -0.45789 -0.00563295 -0.386137 -0.459506 0.0081308 -0.384115 
-0.466053 -0.00861016 -0.382255 -0.453764 0.00577232 -0.380778 -0.470612 0.00786655 -0.382049 
-0.471052 -0.0426769 -0.378377 -0.46485 -0.0210199 -0.378386 -0.469679 -0.00489514 -0.37606 
-0.463066 -0.00793732 -0.37325 -0.457873 -0.00675801 -0.371918 -0.464255 0.010098 -0.371929 
-0.450989 0.0074754 -0.373602 -0.436029 -0.0112784 -0.368093 -0.466451 0.00453427 -0.369473 
-0.446096 0.0134329 -0.370457 -0.464129 0.000543232 -0.365352 -0.459009 0.00352006 -0.366884 
-0.439719 0.00145163 -0.366861 -0.459814 0.00683924 -0.364529 -0.479883 -0.0237208 -0.362194 
-0.438898 -0.00914648 -0.361851 -0.426277 -0.00259099 -0.360848 -0.455111 0.00603091 -0.361629 
-0.442406 0.0250321 -0.363976 -0.443362 -0.0189912 -0.358959 -0.457673 0.0218236 -0.359313 
-0.455262 -0.0186107 -0.356367 -0.449741 -0.00984797 -0.355044 -0.460565 -0.0054929 -0.356816 
-0.433853 -0.00248132 -0.356683 -0.437156 0.0111483 -0.354813 -0.433986 0.0179906 -0.355699 
-0.444642 -0.0127659 -0.351305 -0.43315 -0.00186119 -0.350959 -0.444019 -0.00223096 -0.347947 
-0.43023 -0.0207932 -0.343302 -0.442583 0.00155111 -0.345493 -0.430679 0.00132021 -0.346337 
-0.426441 -0.0011703 -0.342263 -0.452741 0.0253212 -0.341239 -0.421436 -0.0127224 -0.337731 
-0.419619 0.00178774 -0.337476 -0.429913 0.00491851 -0.336571 -0.424309 -0.0180425 -0.332805 
-0.4152 0.00161111 -0.331979 -0.432491 -0.0124346 -0.330316 -0.42629 0.0100537 -0.331733 
-0.431811 0.023725 -0.33138 -0.439003 -0.00269141 -0.328466 -0.421995 -0.00231468 -0.327175 
-0.424628 0.00724242 -0.326899 -0.417606 -0.00455022 -0.322914 -0.388642 0.00658834 -0.321946 
-0.428908 0.0155717 -0.32462 -0.424532 0.014056 -0.324116 -0.40122 -0.00495005 -0.320685 
-0.411242 0.000470526 -0.318135 -0.410054 0.00453512 -0.318087 -0.412191 0.0113223 -0.320248 
-0.420259 -0.00618577 -0.316701 -0.411729 -1.76994e-05 -0.313733 -0.435568 0.0201532 -0.312816 
-0.400783 0.00155802 -0.30872 -0.406537 0.00453702 -0.308104 -0.407076 0.0145951 -0.307048 
-0.398168 0.0146762 -0.30903 -0.420356 -0.0254996 -0.305544 -0.392541 -0.00607229 -0.304291 
-0.386633 -0.00288251 -0.304156 -0.398734 0.00266719 -0.304179 -0.401165 0.00812062 -0.304854 
-0.404396 -0.0173133 -0.300224 -0.395335 0.00440629 -0.301397 -0.401372 0.0135022 -0.300454 
-0.403897 0.019905 -0.299686 -0.398307 -0.0173985 -0.29705 -0.39856 -0.0118296 -0.29706 
-0.389316 -0.00354281 -0.297514 -0.399727 0.000581775 -0.295908 -0.399494 0.0116817 -0.297262 
-0.409363 0.0281597 -0.298896 -0.393533 0.0142007 -0.295079 -0.391635 0.014163 -0.29261 
-0.395637 0.0179653 -0.294842 -0.403168 -0.0179228 -0.291624 -0.391443 0.00446115 -0.288773 
-0.384216 0.0134707 -0.290802 -0.390869 -0.0271761 -0.286414 -0.385911 -0.0123517 -0.286315 
-0.394841 0.000679207 -0.288421 -0.389262 0.0075713 -0.287272 -0.385281 -0.0151865 -0.282815 
-0.381919 -0.00874565 -0.281475 -0.380764 0.000536679 -0.282224 -0.380076 -0.0136782 -0.276799 
-0.37943 -0.00177925 -0.276009 -0.371739 -0.00168533 -0.274944 -0.38641 -0.0291555 -0.274039 
-0.378792 -0.0257612 -0.273878 -0.373025 -0.00405884 -0.271637 -0.365338 -0.0026198 -0.273965 
-0.369739 0.00691986 -0.274617 -0.378057 0.0244876 -0.271032 -0.369661 -0.0234907 -0.267686 
-0.371641 0.00171562 -0.269086 -0.366361 0.0170228 -0.267438 -0.378758 -0.037401 -0.265552 
-0.362753 -0.0102857 -0.265897 -0.359721 -0.00173212 -0.263915 -0.363361 0.00203695 -0.264416 
-0.362293 0.0148365 -0.264489 -0.364304 0.0222137 -0.265291 -0.350645 -8.34622e-05 -0.261258 
-0.359271 0.012509 -0.259727 -0.362866 0.0200832 -0.261801 -0.357055 0.0180944 -0.260532 
-0.38321 -0.0509501 -0.259382 -0.352173 -0.0262297 -0.257214 -0.356917 -0.0242005 -0.258073 
-0.351404 0.00141734 -0.257334 -0.35317 0.0110025 -0.258046 -0.349595 0.0126849 -0.256297 
-0.354288 0.0174805 -0.25679 -0.353256 -0.0149963 -0.255877 -0.343516 -0.0099138 -0.25606 
-0.347078 -0.00598234 -0.252599 -0.345798 0.0049507 -0.254262 -0.342102 0.00421793 -0.252141 
-0.385639 0.0083219 -0.255638 -0.34278 0.00754388 -0.252406 -0.353103 -0.0327949 -0.251203 
-0.349988 -0.0313877 -0.251779 -0.338508 -0.0105674 -0.24998 -0.338229 -0.00712865 -0.249502 
-0.337768 -0.000440324 -0.249019 -0.360003 0.000817223 -0.248746 -0.336276 0.00349038 -0.249036 
-0.339917 0.0087043 -0.249216 -0.33809 0.0124749 -0.24902 -0.354321 0.0290624 -0.251973 
-0.355043 -0.0371714 -0.249141 -0.336971 -0.0133554 -0.247563 -0.33418 -0.00641734 -0.247053 
-0.332655 -0.00280302 -0.247291 -0.33364 0.0011023 -0.24649 -0.335005 0.0072287 -0.24789 
-0.33319 0.00519079 -0.245304 -0.330478 0.00942605 -0.244873 -0.331127 0.0127219 -0.245857 
-0.327081 -0.00943032 -0.243504 -0.330472 -0.00699059 -0.243591 -0.321216 0.00635888 -0.241187 
-0.326027 0.00863307 -0.243152 -0.322583 0.00922981 -0.241582 -0.321628 0.0121361 -0.240994 
-0.326233 0.0155968 -0.241307 -0.338989 0.0275951 -0.24459 -0.314027 -0.0132956 -0.237482 
-0.319081 -0.010085 -0.240096 -0.320744 0.00114286 -0.240234 -0.31231 0.00212191 -0.2377 
-0.317711 0.00700315 -0.239149 -0.318528 0.0111151 -0.238662 -0.313859 0.011417 -0.237767 
-0.319728 0.0161739 -0.239524 -0.317954 0.0195563 -0.238122 -0.34543 0.0462792 -0.241076 
-0.312701 -0.017005 -0.235327 -0.309398 -0.0145274 -0.235388 -0.308403 -0.00763841 -0.235912 
-0.309944 -0.00477381 -0.236654 -0.308408 -0.001314 -0.236139 -0.30753 0.00237318 -0.235673 
-0.311046 0.00546865 -0.235879 -0.311887 0.0102141 -0.234496 -0.316599 0.0153452 -0.23684 
-0.316401 0.0244102 -0.235429 -0.305716 -0.0182162 -0.232257 -0.300333 -0.0080816 -0.23247 
-0.297799 -0.00905538 -0.231196 -0.297751 0.00617655 -0.230224 -0.336471 0.0500861 -0.233824 
-0.299184 -0.0183885 -0.229507 -0.292476 -0.0150563 -0.228405 -0.294529 -0.0113613 -0.228584 
-0.290283 -0.0123607 -0.227777 -0.289687 -0.00397649 -0.228158 -0.287391 -0.00209548 -0.227241 
-0.292933 0.00665283 -0.229248 -0.297776 0.0123355 -0.229843 -0.293505 0.0105027 -0.229242 
-0.293317 0.0141905 -0.228887 -0.290418 0.0144999 -0.227618 -0.294096 0.0186053 -0.228352 
-0.290896 0.0183081 -0.227082 -0.295546 -0.0343868 -0.224919 -0.297006 -0.0293822 -0.22599 
-0.291771 -0.0301158 -0.223502 -0.28941 -0.0269663 -0.224714 -0.290386 -0.0178192 -0.226002 
-0.287401 -0.0152044 -0.226253 -0.278901 -0.0141917 -0.222796 -0.277883 -0.00823409 -0.223009 
-0.277556 -0.0052042 -0.222987 -0.282523 -0.00116682 -0.225219 -0.279375 -0.000574797 -0.222825 
-0.286383 0.00250331 -0.225664 -0.282595 0.00759118 -0.224825 -0.288842 0.0110087 -0.226155 
-0.284661 0.0124416 -0.225396 -0.287742 0.0191359 -0.224549 -0.298723 -0.0417228 -0.223369 
-0.276578 -0.0114666 -0.221022 -0.277805 -0.00627208 -0.219911 -0.272669 -0.00539834 -0.220909 
-0.275429 -0.00140896 -0.222216 -0.274138 0.00364236 -0.221551 -0.272127 0.000485711 -0.21978 
-0.278892 0.0044153 -0.222389 -0.272119 0.00578173 -0.220581 -0.27677 0.00827161 -0.220019 
-0.275297 0.0123378 -0.221512 -0.272757 0.0131579 -0.220126 -0.269577 0.0122633 -0.219155 
-0.282316 0.0159317 -0.222834 -0.278073 0.0165525 -0.219814 -0.280771 0.0240041 -0.221842 
-0.26584 -0.0144476 -0.217033 -0.268048 -0.01292 -0.21837 -0.26369 -0.0115789 -0.216684 
-0.268387 -0.00871942 -0.21898 -0.269814 -0.00372345 -0.218484 -0.26515 -0.00679096 -0.216454 
-0.260907 -0.00719925 -0.215879 -0.26718 0.00291467 -0.218629 -0.268419 0.0070785 -0.217846 
-0.26228 0.00671116 -0.216387 -0.263559 0.00958769 -0.216716 -0.265346 0.0143828 -0.215939 
-0.270634 0.0162759 -0.218957 -0.269555 0.0190506 -0.217655 -0.263351 -0.0182026 -0.215776 
-0.261554 -0.0144936 -0.214375 -0.258243 -0.00720278 -0.214421 -0.257634 -0.0102846 -0.214309 
-0.303501 -0.00628616 -0.214139 -0.260611 -0.00326863 -0.214785 -0.257645 -7.99831e-05 -0.214735 
-0.260141 0.00342257 -0.215632 -0.271073 0.00767737 -0.213576 -0.260994 0.011614 -0.214299 
-0.268833 0.0296234 -0.215449 -0.264037 -0.0294635 -0.212403 -0.251328 -0.0160661 -0.210702 
-0.248417 -0.016799 -0.209479 -0.252685 -0.0135522 -0.211815 -0.252453 -0.00934959 -0.211116 
-0.245116 7.25407e-05 -0.209412 -0.251229 0.00419075 -0.211833 -0.247253 0.00486062 -0.210121 
-0.253108 0.00998182 -0.212381 -0.256501 0.0135368 -0.212344 -0.253347 0.0230942 -0.209582 
-0.245171 -0.023783 -0.206029 -0.247249 -0.0210739 -0.208356 -0.238159 -0.00981949 -0.205986 
-0.242489 0.00102097 -0.20826 -0.241923 0.0040537 -0.20791 -0.240272 0.00642706 -0.207113 
-0.242857 0.0125408 -0.206213 -0.310044 0.0660269 -0.208656 -0.230091 -0.0101598 -0.202551 
-0.227282 -0.000342012 -0.201839 -0.237 0.00394782 -0.204748 -0.233277 0.00836947 -0.204134 
-0.228134 0.00823993 -0.20199 -0.231028 0.0138876 -0.202628 -0.229583 0.0109672 -0.202405 
-0.239265 0.0240375 -0.203575 -0.235977 -0.0380955 -0.199423 -0.236416 -0.0329998 -0.201357 
-0.232607 -0.0310983 -0.199141 -0.22839 -0.0291273 -0.198889 -0.231758 -0.0174375 -0.20155 
-0.226185 -0.0151146 -0.200464 -0.221159 -0.0127694 -0.198522 -0.225852 -0.0103527 -0.200752 
-0.222816 -0.00842381 -0.198527 -0.224941 0.000993008 -0.200347 -0.222017 0.00162831 -0.199548 
-0.22075 0.00677566 -0.19893 -0.221765 0.0117989 -0.198992 -0.228144 0.0153411 -0.200142 
-0.228304 0.0203525 -0.199558 -0.235987 0.0330747 -0.201025 -0.241932 0.0380168 -0.200923 
-0.242141 0.0420799 -0.200577 -0.292493 -0.0736362 -0.19689 -0.220448 -0.0206633 -0.196273 
-0.223355 -0.0169601 -0.197995 -0.217856 -0.0101942 -0.197389 -0.213332 -0.00939079 -0.195587 
-0.218552 -0.00669497 -0.197996 -0.219071 0.00219498 -0.196866 -0.217512 0.00589951 -0.19754 
[...]
POINT_DATA 840
FIELD FieldData 7
id 1 840 int
972 969 971 968 150 151 104 179 79 
188 202 118 138 171 129 132 180 189 
294 265 123 183 198 119 107 187 158 
106 134 225 49 70 210 154 204 159 
213 142 251 305 72 157 127 160 83 
195 144 136 166 116 156 278 234 105 
115 169 277 184 229 170 199 307 244 
221 201 215 200 228 241 109 208 99 
185 205 289 250 64 212 252 223 135 
211 270 143 272 124 317 191 146 181 
167 161 182 290 254 175 96 165 280 
209 418 152 284 296 297 172 149 233 
295 155 438 293 236 298 224 306 288 
399 256 377 197 329 222 321 253 261 
128 217 368 429 276 337 255 206 264 
348 308 299 220 242 287 259 230 332 
327 316 9 322 446 275 363 226 386 
366 422 353 263 245 249 447 273 395 
267 218 314 354 262 192 310 282 304 
281 260 339 214 232 90 390 343 367 
283 492 303 381 292 266 194 347 320 
269 423 405 227 333 470 372 274 243 
330 382 235 331 388 248 300 240 311 
407 344 335 439 371 271 430 203 433 
238 315 285 349 409 246 286 231 239 
258 247 237 318 427 387 362 370 323 
340 378 291 257 384 279 456 313 389 
216 411 414 358 351 336 441 401 309 
302 268 341 374 396 350 450 476 338 
421 397 424 444 490 355 466 455 462 
403 365 408 326 398 425 440 417 428 
416 328 473 474 410 325 453 400 356 
404 394 448 373 522 471 488 511 346 
301 483 479 334 454 420 459 497 361 
359 406 475 434 530 375 360 484 319 
345 489 558 415 385 493 478 509 486 
508 437 519 468 504 451 445 380 357 
496 469 452 554 521 531 442 376 463 
458 499 393 431 392 481 391 559 494 
364 552 487 413 485 342 312 435 541 
500 412 503 600 477 536 546 555 538 
624 491 482 383 419 460 498 556 547 
369 507 523 548 640 379 542 505 608 
501 573 465 495 464 449 516 537 524 
598 402 502 529 512 597 550 676 515 
582 461 562 527 467 571 588 581 545 
510 532 517 590 525 520 595 572 426 
662 534 564 570 526 579 574 561 605 
566 563 535 589 612 528 557 631 659 
621 514 457 651 599 544 577 586 614 
601 540 602 616 443 533 585 576 652 
436 551 543 539 594 615 610 638 634 
626 650 549 506 578 672 593 637 623 
603 677 668 611 653 617 656 620 636 
569 658 661 648 633 619 480 683 664 
629 663 618 666 592 606 604 518 583 
691 678 669 584 607 681 639 580 565 
649 609 632 630 685 553 675 716 715 
655 717 635 734 568 647 684 596 628 
575 657 654 708 694 705 567 645 646 
560 591 673 613 686 665 689 625 643 
695 670 627 667 710 671 725 644 740 
704 641 622 674 587 755 513 642 688 
711 703 687 698 690 748 747 760 692 
752 779 742 700 739 696 718 722 730 
699 729 720 766 682 764 432 726 727 
791 770 778 793 660 709 736 731 693 
680 774 701 743 706 723 737 771 780 
721 749 751 702 765 712 728 707 758 
746 786 744 735 805 772 788 790 733 
802 767 811 763 750 754 807 819 777 
797 804 769 697 768 776 812 719 775 
741 745 757 738 785 826 801 784 814 
796 794 792 800 714 472 798 753 813 
713 679 762 759 803 823 806 799 810 
817 830 761 732 824 756 789 787 773 
820 808 724 795 816 809 783 781 831 
825 815 829 782 818 828 837 827 822 
821 842 836 844 841 833 840 839 843 
834 835 832 838 845 851 850 848 855 
847 852 846 857 854 856 849 853 861 
865 858 868 862 869 867 859 866 863 
864 860 879 875 878 873 870 880 881 
882 871 877 874 872 876 887 888 895 
894 885 890 891 892 889 883 905 884 
893 886 896 906 900 907 901 908 904 
903 902 899 898 914 917 920 897 913 
921 916 911 918 919 915 909 910 912 
928 924 930 933 922 932 929 926 927 
931 934 925 923 935 940 943 941 947 
945 938 939 937 936 944 946 942 948 
954 957 955 959 953 950 952 956 960 
951 958 962 949 965 967 970 963 964 
966 973 961 
type 1 840 int
1 1 1 1 1 1 1 1 1 
1 1 1 1 1 1 1 1 1 
1 1 1 1 1 1 1 1 1 
1 1 1 1 1 1 1 1 1 
1 1 1 1 1 1 1 1 1 
1 1 1 1 1 1 1 1 1 
1 1 1 1 1 1 1 1 1 
1 1 1 1 1 1 1 1 1 
1 1 1 1 1 1 1 1 1 
1 1 1 1 1 1 1 1 1 
1 1 1 1 1 1 1 1 1 
1 1 1 1 1 1 1 1 1 
1 1 1 1 1 1 1 1 1 
1 1 1 1 1 1 1 1 1 
1 1 1 1 1 1 1 1 1 
1 1 1 1 1 1 1 1 1 
1 1 1 1 1 1 1 1 1 
1 1 1 1 1 1 1 1 1 
1 1 1 1 1 1 1 1 1 
1 1 1 1 1 1 1 1 1 
1 1 1 1 1 1 1 1 1 
1 1 1 1 1 1 1 1 1 
1 1 1 1 1 1 1 1 1 
1 1 1 1 1 1 1 1 1 
1 1 1 1 1 1 1 1 1 
1 1 1 1 1 1 1 1 1 
1 1 1 1 1 1 1 1 1 
1 1 1 1 1 1 1 1 1 
1 1 1 1 1 1 1 1 1 
1 1 1 1 1 1 1 1 1 
1 1 1 1 1 1 1 1 1 
1 1 1 1 1 1 1 1 1 
1 1 1 1 1 1 1 1 1 
1 1 1 1 1 1 1 1 1 
1 1 1 1 1 1 1 1 1 
1 1 1 1 1 1 1 1 1 
1 1 1 1 1 1 1 1 1 
1 1 1 1 1 1 1 1 1 
1 1 1 1 1 1 1 1 1 
1 1 1 1 1 1 1 1 1 
1 1 1 1 1 1 1 1 1 
1 1 1 1 1 1 1 1 1 
1 1 1 1 1 1 1 1 1 
1 1 1 1 1 1 1 1 1 
1 1 1 1 1 1 1 1 1 
1 1 1 1 1 1 1 1 1 
1 1 1 1 1 1 1 1 1 
1 1 1 1 1 1 1 1 1 
1 1 1 1 1 1 1 1 1 
1 1 1 1 1 1 1 1 1 
1 1 1 1 1 1 1 1 1 
1 1 1 1 1 1 1 1 1 
1 1 1 1 1 1 1 1 1 
1 1 1 1 1 1 1 1 1 
1 1 1 1 1 1 1 1 1 
1 1 1 1 1 1 1 1 1 
1 1 1 1 1 1 1 1 1 
1 1 1 1 1 1 1 1 1 
1 1 1 1 1 1 1 1 1 
1 1 1 1 1 1 1 1 1 
1 1 1 1 1 1 1 1 1 
1 1 1 1 1 1 1 1 1 
1 1 1 1 1 1 1 1 1 
1 1 1 1 1 1 1 1 1 
1 1 1 1 1 1 1 1 1 
1 1 1 1 1 1 1 1 1 
1 1 1 1 1 1 1 1 1 
1 1 1 1 1 1 1 1 1 
1 1 1 1 1 1 1 1 1 
1 1 1 1 1 1 1 1 1 
1 1 1 1 1 1 1 1 1 
1 1 1 1 1 1 1 1 1 
1 1 1 1 1 1 1 1 1 
1 1 1 1 1 1 1 1 1 
1 1 1 1 1 1 1 1 1 
1 1 1 1 1 1 1 1 1 
1 1 1 1 1 1 1 1 1 
1 1 1 1 1 1 1 1 1 
1 1 1 1 1 1 1 1 1 
1 1 1 1 1 1 1 1 1 
1 1 1 1 1 1 1 1 1 
1 1 1 1 1 1 1 1 1 
1 1 1 1 1 1 1 1 1 
1 1 1 1 1 1 1 1 1 
1 1 1 1 1 1 1 1 1 
1 1 1 1 1 1 1 1 1 
1 1 1 1 1 1 1 1 1 
1 1 1 1 1 1 1 1 1 
1 1 1 1 1 1 1 1 1 
1 1 1 1 1 1 1 1 1 
1 1 1 1 1 1 1 1 1 
1 1 1 1 1 1 1 1 1 
1 1 1 1 1 1 1 1 1 
1 1 1 
i 3 840 int
0 0 0 0 0 0 0 0 0 
0 0 0 0 0 0 0 0 0 
0 0 0 0 0 0 0 0 0 
0 0 0 0 0 0 0 0 0 
0 0 0 0 0 0 0 0 0 
0 0 0 0 0 0 0 0 0 
0 0 0 0 0 0 0 0 0 
0 0 0 0 0 0 0 0 0 
0 0 0 0 0 0 0 0 0 
0 0 0 0 0 0 0 0 0 
0 0 0 0 0 0 0 0 0 
0 0 0 0 0 0 0 0 0 
0 0 0 0 0 0 0 0 0 
0 0 0 0 0 0 0 0 0 
0 0 0 0 0 0 0 0 0 
0 0 0 0 0 0 0 0 0 
0 0 0 0 0 0 0 0 0 
0 0 0 0 0 0 0 0 0 
0 0 0 0 0 0 0 0 0 
0 0 0 0 0 0 0 0 0 
0 0 0 0 0 0 0 0 0 
0 0 0 0 0 0 0 0 0 
0 0 0 0 0 0 0 0 0 
0 0 0 0 0 0 0 0 0 
0 0 0 0 0 0 0 0 0 
0 0 0 0 0 0 0 0 0 
0 0 0 0 0 0 0 0 0 
0 0 0 0 0 0 0 0 0 
0 0 0 0 0 0 0 0 0 
0 0 0 0 0 0 0 0 0 
0 0 0 0 0 0 0 0 0 
0 0 0 0 0 0 0 0 0 
0 0 0 0 0 0 0 0 0 
0 0 0 0 0 0 0 0 0 
0 0 0 0 0 0 0 0 0 
0 0 0 0 0 0 0 0 0 
0 0 0 0 0 0 0 0 0 
0 0 0 0 0 0 0 0 0 
0 0 0 0 0 0 0 0 0 
0 0 0 0 0 0 0 0 0 
0 0 0 0 0 0 0 0 0 
0 0 0 0 0 0 0 0 0 
0 0 0 0 0 0 0 0 0 
0 0 0 0 0 0 0 0 0 
0 0 0 0 0 0 0 0 0 
0 0 0 0 0 0 0 0 0 
0 0 0 0 0 0 0 0 0 
0 0 0 0 0 0 0 0 0 
0 0 0 0 0 0 0 0 0 
0 0 0 0 0 0 0 0 0 
0 0 0 0 0 0 0 0 0 
0 0 0 0 0 0 0 0 0 
0 0 0 0 0 0 0 0 0 
0 0 0 0 0 0 0 0 0 
0 0 0 0 0 0 0 0 0 
0 0 0 0 0 0 0 0 0 
0 0 0 0 0 0 0 0 0 
0 0 0 0 0 0 0 0 0 
0 0 0 0 0 0 0 0 0 
0 0 0 0 0 0 0 0 0 
0 0 0 0 0 0 0 0 0 
0 0 0 0 0 0 0 0 0 
0 0 0 0 0 0 0 0 0 
0 0 0 0 0 0 0 0 0 
0 0 0 0 0 0 0 0 0 
0 0 0 0 0 0 0 0 0 
0 0 0 0 0 0 0 0 0 
0 0 0 0 0 0 0 0 0 
0 0 0 0 0 0 0 0 0 
0 0 0 0 0 0 0 0 0 
0 0 0 0 0 0 0 0 0 
0 0 0 0 0 0 0 0 0 
0 0 0 0 0 0 0 0 0 
0 0 0 0 0 0 0 0 0 
0 0 0 0 0 0 0 0 0 
0 0 0 0 0 0 0 0 0 
0 0 0 0 0 0 0 0 0 
0 0 0 0 0 0 0 0 0 
0 0 0 0 0 0 0 0 0 
0 0 0 0 0 0 0 0 0 
0 0 0 0 0 0 0 0 0 
0 0 0 0 0 0 0 0 0 
0 0 0 0 0 0 0 0 0 
0 0 0 0 0 0 0 0 0 
0 0 0 0 0 0 0 0 0 
0 0 0 0 0 0 0 0 0 
0 0 0 0 0 0 0 0 0 
0 0 0 0 0 0 0 0 0 
0 0 0 0 0 0 0 0 0 
0 0 0 0 0 0 0 0 0 
0 0 0 0 0 0 0 0 0 
0 0 0 0 0 0 0 0 0 
0 0 0 0 0 0 0 0 0 
0 0 0 0 0 0 0 0 0 
0 0 0 0 0 0 0 0 0 
0 0 0 0 0 0 0 0 0 
0 0 0 0 0 0 0 0 0 
0 0 0 0 0 0 0 0 0 
0 0 0 0 0 0 0 0 0 
0 0 0 0 0 0 0 0 0 
0 0 0 0 0 0 0 0 0 
0 0 0 0 0 0 0 0 0 
0 0 0 0 0 0 0 0 0 
0 0 0 0 0 0 0 0 0 
0 0 0 0 0 0 0 0 0 
0 0 0 0 0 0 0 0 0 
0 0 0 0 0 0 0 0 0 
0 0 0 0 0 0 0 0 0 
0 0 0 0 0 0 0 0 0 
0 0 0 0 0 0 0 0 0 
0 0 0 0 0 0 0 0 0 
0 0 0 0 0 0 0 0 0 
0 0 0 0 0 0 0 0 0 
0 0 0 0 0 0 0 0 0 
0 0 0 0 0 0 0 0 0 
0 0 0 0 0 0 0 0 0 
0 0 0 0 0 0 0 0 0 
0 0 0 0 0 0 0 0 0 
0 0 0 0 0 0 0 0 0 
0 0 0 0 0 0 0 0 0 
0 0 0 0 0 0 0 0 0 
0 0 0 0 0 0 0 0 0 
0 0 0 0 0 0 0 0 0 
0 0 0 0 0 0 0 0 0 
0 0 0 0 0 0 0 0 0 
0 0 0 0 0 0 0 0 0 
0 0 0 0 0 0 0 0 0 
0 0 0 0 0 0 0 0 0 
0 0 0 0 0 0 0 0 0 
0 0 0 0 0 0 0 0 0 
0 0 0 0 0 0 0 0 0 
0 0 0 0 0 0 0 0 0 
0 0 0 0 0 0 0 0 0 
0 0 0 0 0 0 0 0 0 
0 0 0 0 0 0 0 0 0 
0 0 0 0 0 0 0 0 0 
0 0 0 0 0 0 0 0 0 
0 0 0 0 0 0 0 0 0 
0 0 0 0 0 0 0 0 0 
0 0 0 0 0 0 0 0 0 
0 0 0 0 0 0 0 0 0 
0 0 0 0 0 0 0 0 0 
0 0 0 0 0 0 0 0 0 
0 0 0 0 0 0 0 0 0 
0 0 0 0 0 0 0 0 0 
0 0 0 0 0 0 0 0 0 
0 0 0 0 0 0 0 0 0 
0 0 0 0 0 0 0 0 0 
0 0 0 0 0 0 0 0 0 
0 0 0 0 0 0 0 0 0 
0 0 0 0 0 0 0 0 0 
0 0 0 0 0 0 0 0 0 
0 0 0 0 0 0 0 0 0 
0 0 0 0 0 0 0 0 0 
0 0 0 0 0 0 0 0 0 
0 0 0 0 0 0 0 0 0 
0 0 0 0 0 0 0 0 0 
0 0 0 0 0 0 0 0 0 
0 0 0 0 0 0 0 0 0 
0 0 0 0 0 0 0 0 0 
0 0 0 0 0 0 0 0 0 
0 0 0 0 0 0 0 0 0 
0 0 0 0 0 0 0 0 0 
0 0 0 0 0 0 0 0 0 
0 0 0 0 0 0 0 0 0 
0 0 0 0 0 0 0 0 0 
0 0 0 0 0 0 0 0 0 
0 0 0 0 0 0 0 0 0 
0 0 0 0 0 0 0 0 0 
0 0 0 0 0 0 0 0 0 
0 0 0 0 0 0 0 0 0 
0 0 0 0 0 0 0 0 0 
0 0 0 0 0 0 0 0 0 
0 0 0 0 0 0 0 0 0 
0 0 0 0 0 0 0 0 0 
0 0 0 0 0 0 0 0 0 
0 0 0 0 0 0 0 0 0 
0 0 0 0 0 0 0 0 0 
0 0 0 0 0 0 0 0 0 
0 0 0 0 0 0 0 0 0 
0 0 0 0 0 0 0 0 0 
0 0 0 0 0 0 0 0 0 
0 0 0 0 0 0 0 0 0 
0 0 0 0 0 0 0 0 0 
0 0 0 0 0 0 0 0 0 
0 0 0 0 0 0 0 0 0 
0 0 0 0 0 0 0 0 0 
0 0 0 0 0 0 0 0 0 
0 0 0 0 0 0 0 0 0 
0 0 0 0 0 0 0 0 0 
0 0 0 0 0 0 0 0 0 
0 0 0 0 0 0 0 0 0 
0 0 0 0 0 0 0 0 0 
0 0 0 0 0 0 0 0 0 
0 0 0 0 0 0 0 0 0 
0 0 0 0 0 0 0 0 0 
0 0 0 0 0 0 0 0 0 
0 0 0 0 0 0 0 0 0 
0 0 0 0 0 0 0 0 0 
0 0 0 0 0 0 0 0 0 
0 0 0 0 0 0 0 0 0 
0 0 0 0 0 0 0 0 0 
0 0 0 0 0 0 0 0 0 
0 0 0 0 0 0 0 0 0 
0 0 0 0 0 0 0 0 0 
0 0 0 0 0 0 0 0 0 
0 0 0 0 0 0 0 0 0 
0 0 0 0 0 0 0 0 0 
0 0 0 0 0 0 0 0 0 
0 0 0 0 0 0 0 0 0 
0 0 0 0 0 0 0 0 0 
0 0 0 0 0 0 0 0 0 
0 0 0 0 0 0 0 0 0 
0 0 0 0 0 0 0 0 0 
0 0 0 0 0 0 0 0 0 
0 0 0 0 0 0 0 0 0 
0 0 0 0 0 0 0 0 0 
0 0 0 0 0 0 0 0 0 
0 0 0 0 0 0 0 0 0 
0 0 0 0 0 0 0 0 0 
0 0 0 0 0 0 0 0 0 
0 0 0 0 0 0 0 0 0 
0 0 0 0 0 0 0 0 0 
0 0 0 0 0 0 0 0 0 
0 0 0 0 0 0 0 0 0 
0 0 0 0 0 0 0 0 0 
0 0 0 0 0 0 0 0 0 
0 0 0 0 0 0 0 0 0 
0 0 0 0 0 0 0 0 0 
0 0 0 0 0 0 0 0 0 
0 0 0 0 0 0 0 0 0 
0 0 0 0 0 0 0 0 0 
0 0 0 0 0 0 0 0 0 
0 0 0 0 0 0 0 0 0 
0 0 0 0 0 0 0 0 0 
0 0 0 0 0 0 0 0 0 
0 0 0 0 0 0 0 0 0 
0 0 0 0 0 0 0 0 0 
0 0 0 0 0 0 0 0 0 
0 0 0 0 0 0 0 0 0 
0 0 0 0 0 0 0 0 0 
0 0 0 0 0 0 0 0 0 
0 0 0 0 0 0 0 0 0 
0 0 0 0 0 0 0 0 0 
0 0 0 0 0 0 0 0 0 
0 0 0 0 0 0 0 0 0 
0 0 0 0 0 0 0 0 0 
0 0 0 0 0 0 0 0 0 
0 0 0 0 0 0 0 0 0 
0 0 0 0 0 0 0 0 0 
0 0 0 0 0 0 0 0 0 
0 0 0 0 0 0 0 0 0 
0 0 0 0 0 0 0 0 0 
0 0 0 0 0 0 0 0 0 
0 0 0 0 0 0 0 0 0 
0 0 0 0 0 0 0 0 0 
0 0 0 0 0 0 0 0 0 
0 0 0 0 0 0 0 0 0 
0 0 0 0 0 0 0 0 0 
0 0 0 0 0 0 0 0 0 
0 0 0 0 0 0 0 0 0 
0 0 0 0 0 0 0 0 0 
0 0 0 0 0 0 0 0 0 
0 0 0 0 0 0 0 0 0 
0 0 0 0 0 0 0 0 0 
0 0 0 0 0 0 0 0 0 
0 0 0 0 0 0 0 0 0 
0 0 0 0 0 0 0 0 0 
0 0 0 0 0 0 0 0 0 
0 0 0 0 0 0 0 0 0 
0 0 0 0 0 0 0 0 0 
0 0 0 0 0 0 0 0 0 
0 0 0 0 0 0 0 0 0 
0 0 0 0 0 0 0 0 0 
0 0 0 0 0 0 0 0 0 
0 0 0 0 0 0 0 0 0 
0 0 0 0 0 0 0 0 0 
0 0 0 0 0 0 0 0 0 
0 0 0 0 0 0 0 0 0 
0 0 0 0 0 0 0 0 0 

v 3 840 double
0 0 -1 0 0 -1 0 0 -1 
0 0 -1 -1.11336 0.0338284 -1.80828 -1.1941 -0.0777868 -1.8286 
-1.06358 0.0776617 -1.77288 -1.06987 0.0163512 -1.78501 -1.0787 0.0773545 -1.78046 
-1.04422 -0.00367015 -1.76133 -0.946199 0.0777158 -1.79135 -1.00839 -0.00542407 -1.7983 
-0.985408 0.0234253 -1.78866 -0.971636 0.139356 -1.75817 -1.0424 0.0342252 -1.71499 
-1.09571 0.0247785 -1.72265 -1.00344 0.0310623 -1.71268 -1.132 0.118265 -1.70319 
-1.09481 -0.087535 -1.75775 -1.08578 -0.0401915 -1.70623 -1.17652 0.0340392 -1.68891 
-1.1543 0.0308153 -1.69773 -1.11153 -0.0813879 -1.66638 -1.14175 -0.0597273 -1.68041 
-0.977451 0.0123217 -1.67401 -0.86721 0.108018 -1.62885 -1.14753 -0.0645282 -1.64779 
-1.02132 0.00715958 -1.67888 -1.20975 0.099159 -1.63294 -1.14716 0.239158 -1.66281 
-0.926415 -0.0261929 -1.60776 -1.08607 0.0934356 -1.57192 -1.30201 -0.127471 -1.6274 
-0.984574 -0.0756637 -1.60243 -0.906767 -0.0245925 -1.61292 -1.05663 0.0271079 -1.5124 
-0.975709 0.0836101 -1.61808 -1.04824 -0.128336 -1.59051 -1.175 -0.275441 -1.7244 
-1.20634 0.31037 -1.72236 -1.2045 -0.276607 -1.61395 -1.22921 0.113399 -1.59807 
-0.971564 -0.0522209 -1.56858 -0.964999 0.0272735 -1.53563 -0.943879 0.0327751 -1.54972 
-0.97989 -0.14697 -1.50438 -0.959124 -0.0856707 -1.52687 -1.13301 0.0485565 -1.51712 
-0.958266 -0.116579 -1.45975 -1.08291 0.0449325 -1.48636 -0.980062 -0.0645597 -1.50037 
-0.972702 -0.107829 -1.46946 -1.26197 -0.0842652 -1.53685 -0.943774 -0.164468 -1.43922 
-0.971009 -0.0364512 -1.46359 -1.04128 -0.0541165 -1.43646 -1.09055 -0.128932 -1.43927 
-0.938482 0.0116519 -1.38059 -1.14597 0.0596474 -1.40859 -1.05324 -0.00685462 -1.41732 
-1.1201 0.0296316 -1.41736 -1.34373 0.117182 -1.48467 -1.0244 0.0231564 -1.36621 
-1.08177 -0.00368252 -1.37114 -1.14229 0.257386 -1.42012 -0.735834 0.0629673 -1.39126 
-1.1256 -0.169277 -1.39195 -1.12839 0.00292622 -1.36106 -0.860906 -0.0297012 -1.31656 
-0.97308 0.0315411 -1.32149 -0.983198 0.0552615 -1.33974 -0.986592 0.00842437 -1.31252 
-1.15873 0.308163 -1.36238 -1.06446 0.0293947 -1.28684 -1.19926 -0.149876 -1.27859 
-0.845192 0.0269881 -1.14962 -0.987107 -0.0621105 -1.18994 -1.0718 -0.00770656 -1.22567 
-1.02063 0.0942051 -1.28212 -1.23335 0.0213085 -1.23589 -0.891318 0.0197102 -1.19919 
-0.917824 0.00464036 -1.2823 -0.930709 0.00640582 -1.16396 -0.978261 0.0146498 -1.19307 
-1.02834 0.0389882 -1.16168 -0.934905 0.00906679 -1.14587 -1.08006 -0.0290875 -1.17522 
-1.1357 0.0258527 -1.1878 -1.05551 -0.0722161 -1.1278 -1.03141 -0.0509235 -1.12526 
-0.861713 -0.00419694 -1.11122 -1.17737 0.0101711 -1.14163 -1.06477 0.0943245 -1.13709 
-1.17869 -0.0510789 -1.20519 -0.985531 0.0741746 -1.09827 -1.00509 0.0523094 -1.0665 
-1.07613 0.0656212 -1.12541 -1.23285 0.189699 -1.15081 -1.15827 -0.0149241 -1.09578 
-0.907631 0.0914391 -1.05597 -1.12921 -0.0492224 -1.10082 -1.03103 0.0609834 -1.0439 
-1.11874 0.0665628 -1.04571 -1.0872 -0.0555298 -1.06216 -1.02322 0.0727472 -1.01621 
-1.05187 0.0244488 -0.984989 -1.01209 0.11951 -0.985874 -1.0923 -0.0309608 -0.951273 
-1.1587 0.0201664 -0.956173 -0.994956 -0.335813 -0.993616 -1.15342 -0.0670013 -0.956483 
-1.10221 -0.101197 -0.917129 -1.30069 -0.185949 -0.805962 -0.994387 -0.12073 -1.0411 
-1.14533 0.104667 -1.08422 -1.23017 -0.258379 -1.01333 -0.785727 0.154342 -0.783932 
-1.3415 -0.0828055 -0.966356 -1.03657 -0.139649 -0.912669 -1.21083 0.347387 -1.07723 
-1.01812 0.00493514 -0.811821 -1.01017 0.0529042 -0.778416 -1.20281 0.0828919 -0.824382 
-1.03247 -0.12736 -0.858179 -1.0488 -0.0906422 -0.860568 -1.00703 -0.0959988 -0.826643 
-1.06896 -0.112182 -0.741948 -1.24491 -0.144925 -0.862148 -0.998662 -0.0751622 -0.782999 
-1.20429 0.377 -1.23426 -0.98885 -0.0198163 -0.762244 -1.04679 -0.0180249 -0.734247 
-1.11413 0.146858 -0.719342 -0.990853 -0.0186445 -0.725545 -1.01164 -0.0375925 -0.696214 
-1.07628 -0.0482207 -0.745483 -1.18722 0.134781 -0.783362 -0.78174 -0.021316 -0.858393 
-1.11085 0.0157648 -0.712635 -1.02978 -0.125746 -0.668956 -0.993887 -0.113148 -0.624953 
-1.38242 0.129267 -0.783307 -1.0067 -0.101924 -0.645639 -1.13435 0.0913762 -0.722338 
-1.11057 0.340265 -0.844477 -0.799095 -0.00654769 -0.523229 -0.932172 0.0238375 -0.548126 
-0.887055 -0.0226242 -0.548084 -1.20233 -0.0715096 -0.642719 -0.872561 -0.0622327 -0.532648 
-1.02522 -0.00200384 -0.596503 -1.06313 0.00445064 -0.595329 -1.30647 -0.245863 -0.836009 
-1.21927 0.420919 -0.868088 -1.1733 0.0988828 -0.594218 -1.08642 0.138321 -0.557498 
-0.947096 -0.00797505 -0.545173 -0.915617 0.0180529 -0.514379 -0.931975 0.0655332 -0.546888 
-0.946522 0.0186737 -0.512672 -1.00607 -0.11823 -0.464726 -0.994843 -0.0617197 -0.58254 
-0.991645 -0.0691342 -0.445609 -1.02037 -0.0786758 -0.527906 -1.01723 -0.0749763 -0.433556 
-0.976648 -0.0196294 -0.452914 -0.988319 -0.0143583 -0.422961 -1.03448 0.0202242 -0.439304 
-1.1472 -0.0183688 -0.514465 -1.15535 -0.103215 -0.63227 -1.06211 -0.124842 -0.436732 
-0.975779 0.0236098 -0.392229 -1.09287 0.197839 -0.447937 -0.97353 -0.0861096 -0.430675 
-0.856023 -0.0684415 -0.354155 -1.03076 -0.00232905 -0.449792 -0.949335 -0.0706603 -0.402023 
-1.0751 -0.187768 -0.486369 -0.96059 -0.168768 -0.435045 -1.09572 -0.269044 -0.772558 
-1.09846 -0.00488995 -0.451658 -1.09747 0.039545 -0.467531 -0.955212 -0.0968147 -0.398773 
-0.887228 -0.0707795 -0.377754 -0.938031 -0.0471875 -0.394197 -0.894208 -0.0435787 -0.379638 
-0.979802 -0.064205 -0.425563 -1.00747 -0.0925328 -0.362791 -1.02749 -0.0406934 -0.439807 
-0.956644 -0.0426499 -0.40799 -1.07802 -0.0123695 -0.472586 -0.90235 0.110222 -0.39131 
-0.92909 0.0489839 -0.389655 -0.944877 0.022874 -0.396753 -1.23319 -0.192602 -0.680941 
-0.911958 -0.00981038 -0.408857 -0.874024 0.101897 -0.378343 -0.932274 0.0848988 -0.401453 
-0.964259 -0.0641515 -0.398655 -0.839633 0.0165821 -0.394459 -0.8421 -8.06497e-05 -0.355261 
-0.95483 -0.0532196 -0.406505 -0.956567 0.0854917 -0.398531 -0.992954 -0.0391684 -0.421856 
-0.855206 0.00140678 -0.356194 -0.835218 0.000386415 -0.34793 -0.908901 0.0849298 -0.362235 
-0.884018 0.0142323 -0.357542 -1.06195 0.193982 -0.514142 -1.08608 0.189701 -0.537337 
-1.04978 0.0604832 -0.420123 -1.08377 0.0808122 -0.445967 -0.909361 0.0537912 -0.396204 
-1.20228 0.237527 -0.505318 -0.762641 0.021495 -0.322753 -0.799824 -0.00807983 -0.335496 
-0.723708 -0.00296315 -0.305326 -0.815098 -0.0148727 -0.343678 -0.818868 0.0147359 -0.346192 
-0.833538 -0.0572109 -0.354939 -0.832787 0.00292583 -0.352984 -0.919563 -0.0484296 -0.391505 
-0.949586 0.0770682 -0.387619 -0.923443 0.0574946 -0.358869 -1.07789 0.156951 -0.529337 
-0.758002 0.0159836 -0.317416 -0.891893 0.152444 -0.468503 -0.9337 0.00514694 -0.408983 
-0.823955 0.00557177 -0.346122 -0.740394 0.0754456 -0.310803 -0.797956 0.0308175 -0.366787 
-0.788658 -0.0410833 -0.327655 -0.764077 0.101002 -0.319631 -0.805992 -0.0571793 -0.284994 
-0.670906 -0.0309986 -0.259671 -0.72366 0.0721751 -0.19165 -0.794931 0.0995714 -0.320892 
-0.966478 -0.0294234 -0.418382 -0.99367 0.0821365 -0.358307 -0.859973 0.0768455 -0.33885 
-0.849357 -0.0731404 -0.403485 -0.840736 -0.0175368 -0.353246 -0.910029 0.0866999 -0.386551 
-0.723312 0.108846 -0.313021 -0.888584 0.0586591 -0.415754 -0.82761 0.044397 -0.347182 
-0.846345 -0.0369206 -0.351441 -0.660983 0.0136845 -0.278606 -0.793401 0.0283589 -0.371863 
-0.937905 -0.0597047 -0.402142 -0.872975 -0.0676174 -0.308285 -0.874894 0.118264 -0.350908 
-0.889021 0.103384 -0.334062 -0.99493 0.188702 -0.349113 -0.988356 0.0413981 -0.416567 
-0.996686 0.0591998 -0.429054 -0.837591 -0.0289909 -0.372009 -0.923997 -0.0742364 -0.376127 
-1.29086 0.0387144 -0.561372 -0.935341 -0.00582616 -0.410582 -0.897557 -0.0536941 -0.389068 
-0.846346 -0.0316545 -0.361594 -1.13625 0.138638 -0.513148 -0.917192 0.0680435 -0.261135 
-1.01389 0.0535053 -0.390568 -1.10428 0.0441365 -0.492991 -0.94323 -0.0850304 -0.356963 
-0.959631 -0.00788696 -0.405612 -0.75596 0.101687 -0.318035 -0.869734 0.0372159 -0.370428 
-0.923821 -0.0433081 -0.391282 -1.04002 -0.0444814 -0.443455 -1.00061 -0.0728275 -0.421661 
-0.98207 -0.0550471 -0.411917 -0.964192 0.00389028 -0.407047 -1.09597 -0.0873174 -0.468028 
-0.940925 -0.014451 -0.360802 -0.921718 -0.00576166 -0.381142 -0.967231 -0.0330211 -0.433428 
-0.921267 -0.0295244 -0.393064 -0.969019 0.0075962 -0.410674 -0.947998 -0.00654511 -0.401001 
-0.896778 -0.130941 -0.392594 -1.01194 -0.543027 -0.890941 -0.95369 -0.0124357 -0.394831 
-0.836702 0.125346 -0.356564 -1.03773 0.0311902 -0.43079 -0.898597 0.0473516 -0.372858 
-0.845973 0.0544047 -0.361472 -0.964283 0.0138591 -0.415492 -0.913814 0.0151884 -0.392119 
-1.00899 -0.0552388 -0.432381 -0.884812 -0.0886 -0.337693 -0.924818 -0.0330686 -0.35842 
-0.886778 0.0495322 -0.386537 -0.90886 0.122582 -0.411751 -0.94152 0.0309259 -0.405796 
-0.897819 0.033537 -0.386985 -0.839251 0.0365444 -0.352105 -0.895113 -0.0256062 -0.380984 
-0.903237 0.0532635 -0.390578 -0.848 0.168735 -0.366753 -0.789522 0.0446274 -0.344666 
-0.910471 0.00205861 -0.378736 -0.857405 0.120422 -0.351268 -0.943423 -0.0188856 -0.393261 
-0.967127 -0.00905304 -0.405784 -0.825079 -0.00836318 -0.337903 -0.816281 0.0952668 -0.28705 
-0.926827 0.0898784 -0.331505 -1.34253 0.278349 -0.628048 -0.89708 0.0209332 -0.3705 
-0.877898 0.0280992 -0.387128 -0.923975 -0.0510919 -0.37825 -0.892061 -0.00862077 -0.368651 
-0.862911 0.00934646 -0.358459 -0.824335 0.000336358 -0.31829 -0.874076 0.103484 -0.27811 