# vtk DataFile Version 4.0
Generated by LIGGGHTS
ASCII
DATASET POLYDATA
POINTS 841 float
-0.0150637 0.0348254 0.0507928 -0.0122672 0.0311572 0.0495977 -0.0160453 0.00523502 0.0538688 
-0.013965 0.00757268 0.0494861 -0.0238272 0.00071896 0.0484047 -0.0186464 -0.00526419 0.0483456 
-0.0219325 -0.0134935 0.0478001 -0.019437 -0.0296011 0.0493577 -0.0256963 -0.0316657 0.0478351 
-0.499256 -0.029133 -0.391696 -0.463799 0.00389579 -0.396569 -0.49529 -0.0215381 -0.390738 
-0.462891 0.0136934 -0.389525 -0.458457 -0.00982182 -0.385549 -0.459345 0.00286461 -0.388499 
-0.480708 0.0071227 -0.386835 -0.443223 -0.00914758 -0.384942 -0.445603 -0.00894237 -0.382078 
-0.475605 0.00916633 -0.384597 -0.416999 -0.0119175 -0.380089 -0.454677 0.00324087 -0.380426 
-0.450929 0.0110292 -0.377474 -0.445125 -0.0280924 -0.372205 -0.469654 0.00239494 -0.374082 
-0.464854 -0.00232684 -0.372853 -0.454381 0.000597152 -0.3745 -0.459753 0.0019639 -0.372811 
-0.477129 0.00595124 -0.373899 -0.455315 -0.0258948 -0.370432 -0.446311 0.00924991 -0.369588 
-0.454747 0.0142466 -0.370732 -0.459429 0.00920879 -0.365861 -0.444689 0.00915121 -0.365082 
-0.459732 -0.0242056 -0.362444 -0.451498 -0.00450045 -0.362927 -0.442597 -0.00686942 -0.360485 
-0.437409 -0.00203694 -0.356436 -0.435528 -0.00641795 -0.354228 -0.448427 0.0209891 -0.357037 
-0.473022 -0.00590467 -0.352502 -0.447262 -0.00406042 -0.34676 -0.419796 -0.000913303 -0.346987 
-0.418366 0.00309075 -0.345343 -0.436288 0.00851594 -0.348628 -0.425247 0.0102702 -0.348278 
-0.438025 0.0128932 -0.348321 -0.447592 0.0178929 -0.347364 -0.413623 -0.0111829 -0.342504 
-0.425853 -0.00488793 -0.344366 -0.421682 -0.00355267 -0.341878 -0.420685 0.00726614 -0.340043 
-0.422007 0.0100389 -0.338316 -0.452391 0.0319815 -0.341173 -0.426387 -0.0143861 -0.336555 
-0.419934 0.00109229 -0.337334 -0.416815 0.0103861 -0.336187 -0.404249 0.00941189 -0.335557 
-0.443233 -0.00412966 -0.330712 -0.420924 0.00560667 -0.332768 -0.43407 0.0138701 -0.333008 
-0.420295 -0.0159289 -0.328731 -0.424752 0.00350333 -0.32742 -0.420783 0.0142284 -0.327959 
-0.416167 0.00659419 -0.320379 -0.424605 0.0143886 -0.322725 -0.418075 0.0112919 -0.319291 
-0.411795 0.0109616 -0.323117 -0.411351 -0.00777069 -0.3178 -0.398178 0.000569656 -0.315781 
-0.414529 -0.0149148 -0.313281 -0.405362 -0.0045993 -0.312219 -0.416345 -0.0218254 -0.31131 
-0.409617 -0.0101911 -0.309188 -0.424842 -0.00264701 -0.310249 -0.404563 -0.00148226 -0.309358 
-0.414664 0.00855732 -0.310403 -0.400734 0.00722895 -0.310192 -0.401945 0.0157672 -0.311439 
-0.40575 0.0161013 -0.309122 -0.411138 -0.0176713 -0.304614 -0.401631 -0.0161068 -0.304457 
-0.400176 -0.00536175 -0.3045 -0.408543 0.00152876 -0.305553 -0.404041 -0.0230396 -0.301464 
-0.391573 -0.0104319 -0.300974 -0.394931 -0.00219984 -0.302918 -0.400566 -0.0116169 -0.295346 
-0.40562 -0.00789264 -0.296607 -0.390069 0.00292241 -0.294153 -0.392487 0.00685213 -0.294031 
-0.397017 -0.0161299 -0.289981 -0.390535 -0.00274631 -0.292434 -0.38849 0.000761434 -0.290482 
-0.393019 0.0185776 -0.291944 -0.418803 -0.0432258 -0.29125 -0.395357 -0.0205537 -0.286203 
-0.386592 -0.00278844 -0.287504 -0.37722 0.00381801 -0.287448 -0.388097 0.0095346 -0.288667 
-0.378179 -0.0179858 -0.283019 -0.38375 -0.00654626 -0.285077 -0.382776 -0.00974687 -0.282659 
-0.378987 -0.00472912 -0.282774 -0.382763 0.00600024 -0.282807 -0.37711 0.00812327 -0.283233 
-0.371569 0.00978483 -0.284334 -0.379713 0.011449 -0.284197 -0.379646 0.0162431 -0.281931 
-0.383327 0.0243656 -0.283948 -0.379529 0.0221188 -0.278088 -0.368585 -0.00385711 -0.275735 
-0.371569 0.000479662 -0.275565 -0.367649 0.00534728 -0.274559 -0.372743 0.012546 -0.277653 
-0.376417 0.016888 -0.276663 -0.375175 -0.0198665 -0.272256 -0.366994 -0.00568097 -0.270758 
-0.363835 -0.00276273 -0.27254 -0.374121 0.0220423 -0.271904 -0.361928 -0.00679348 -0.266641 
-0.362977 0.000397178 -0.266591 -0.368971 0.0271986 -0.268194 -0.373906 0.0304629 -0.266958 
-0.359737 -0.00985393 -0.264894 -0.359272 -0.000918987 -0.265546 -0.357643 0.0014031 -0.262476 
-0.360874 0.00577447 -0.265839 -0.361352 0.0236724 -0.263476 -0.361677 -0.0234503 -0.261154 
-0.355377 -0.0134543 -0.261375 -0.357063 -0.00763569 -0.261822 -0.348302 -0.00795943 -0.257964 
-0.351678 -0.00169934 -0.260016 -0.388825 0.000654987 -0.260873 -0.347313 0.000942344 -0.261381 
-0.352337 0.015116 -0.26012 -0.358265 0.0199411 -0.260849 -0.35811 0.0251406 -0.258508 
-0.365914 0.0286127 -0.262268 -0.349251 -0.0215938 -0.255499 -0.353162 -0.0141803 -0.256524 
-0.349122 -0.0135653 -0.255181 -0.345847 -0.00850457 -0.255547 -0.348268 -0.00419909 -0.255962 
-0.346221 0.00476622 -0.258373 -0.349705 0.00764956 -0.258077 -0.343222 0.010959 -0.254697 
-0.352552 0.0180877 -0.256802 -0.344078 0.0142769 -0.255563 -0.358326 -0.0281661 -0.256426 
-0.348207 -0.0206207 -0.251749 -0.346908 -0.0141487 -0.253044 -0.343871 -0.0168355 -0.250823 
-0.341493 -0.011768 -0.251168 -0.344373 -0.00640761 -0.253489 -0.342058 -0.00540746 -0.251779 
-0.343829 -0.00116873 -0.253482 -0.340809 -0.000344975 -0.250885 -0.343957 0.0039879 -0.252779 
-0.339901 0.00349005 -0.252791 -0.341219 0.00902463 -0.251988 -0.346178 0.0130939 -0.250909 
-0.353344 0.0217411 -0.25454 -0.342745 -0.0201999 -0.248328 -0.339881 -0.00402552 -0.248337 
-0.337246 -0.000954629 -0.249717 -0.333889 -0.00151537 -0.248206 -0.332005 0.000989439 -0.246543 
-0.343551 0.0068972 -0.249873 -0.334815 0.00642032 -0.248433 -0.331765 0.00911624 -0.246952 
-0.348795 0.0118782 -0.247255 -0.341113 0.0121683 -0.249244 -0.331151 -0.013758 -0.243045 
-0.331639 -0.0107286 -0.24598 -0.326086 -0.00866125 -0.243155 -0.333095 -0.00670642 -0.245303 
-0.337809 0.00117279 -0.245378 -0.328243 0.00666689 -0.243237 -0.324777 0.0101007 -0.242491 
-0.332249 0.0125581 -0.245163 -0.34159 0.0184131 -0.24529 -0.333116 -0.0287211 -0.242153 
-0.326389 -0.0196845 -0.240504 -0.32479 -0.0121604 -0.242316 -0.321251 -0.00990234 -0.24098 
-0.324464 -0.00680065 -0.239867 -0.32127 -0.00659868 -0.241211 -0.318959 -0.00194986 -0.239486 
-0.32359 0.00635987 -0.242129 -0.324876 0.0134179 -0.240024 -0.318863 0.0121949 -0.239827 
-0.330088 0.0159546 -0.242993 -0.323222 0.0254175 -0.23918 -0.340369 0.0363017 -0.243122 
-0.328833 -0.037353 -0.237329 -0.315069 -0.0157915 -0.236486 -0.317627 -0.0104862 -0.238359 
-0.312349 -0.00754972 -0.237553 -0.308733 -0.00778363 -0.236037 -0.310454 -0.00432916 -0.236895 
-0.310994 0.0108947 -0.236597 -0.30784 0.0134008 -0.235101 -0.315831 0.0180349 -0.237531 
-0.313108 0.0182466 -0.235971 -0.315813 0.0212006 -0.236907 -0.337355 0.0406544 -0.239571 
-0.3361 -0.0495315 -0.233883 -0.316533 -0.0260495 -0.235966 -0.309016 -0.0169679 -0.233842 
-0.303847 -0.0167689 -0.232863 -0.305713 -0.00771827 -0.234773 -0.301647 -0.00934474 -0.232886 
-0.300424 0.00218009 -0.231604 -0.300819 0.00687065 -0.232558 -0.304093 0.0125117 -0.233583 
-0.301988 0.0143363 -0.232469 -0.309072 0.0170927 -0.233794 -0.305148 0.0158033 -0.233507 
-0.305644 0.019546 -0.232974 -0.309398 0.0217392 -0.234125 -0.31982 0.0395141 -0.231684 
-0.324843 0.0448384 -0.232015 -0.296201 -0.0166839 -0.22974 -0.293519 -0.0112711 -0.229163 
-0.297774 -0.00961471 -0.23007 -0.300463 -0.00565171 -0.231544 -0.296047 -0.000714513 -0.230942 
-0.294707 0.00235614 -0.230268 -0.294071 0.0069615 -0.229708 -0.296694 0.0104251 -0.230594 
-0.292999 0.0105605 -0.229025 -0.298303 0.0136264 -0.231068 -0.307422 0.036413 -0.229051 
-0.293995 -0.0203207 -0.227037 -0.290289 -0.0169416 -0.226126 -0.287459 -0.0137279 -0.22644 
-0.2898 -0.00871346 -0.226882 -0.282748 -0.00843938 -0.225034 -0.286294 -0.00486261 -0.226692 
-0.285529 -0.00726564 -0.225075 -0.281963 -0.00315204 -0.224916 -0.284768 -0.00235868 -0.226125 
-0.282836 -0.000206931 -0.225363 -0.290256 0.00539003 -0.228198 -0.284051 0.00528933 -0.225587 
-0.286875 0.0108384 -0.226421 -0.294224 0.0157822 -0.228955 -0.291454 -0.0361222 -0.221616 
-0.274584 -0.00566134 -0.221719 -0.276693 -0.00114066 -0.222758 -0.276575 0.00483478 -0.22249 
-0.284497 0.0166027 -0.223646 -0.346876 -0.064679 -0.220729 -0.321522 -0.0565495 -0.223225 
-0.28675 -0.0342608 -0.221478 -0.283381 -0.0341111 -0.220202 -0.273984 -0.0104087 -0.220052 
-0.269435 -0.0109479 -0.219179 -0.268897 -0.00443289 -0.219364 -0.26604 -0.00703177 -0.218051 
-0.272239 -0.000841659 -0.219813 -0.267631 0.000684328 -0.218876 -0.272576 0.0054999 -0.22079 
-0.267628 0.00657207 -0.218637 -0.269586 0.00890469 -0.219341 -0.272855 0.0163238 -0.219854 
-0.278787 -0.0442189 -0.214449 -0.276726 -0.03631 -0.215656 -0.265771 -0.0269939 -0.215014 
-0.264589 -0.0134762 -0.216854 -0.261301 -0.0127504 -0.215562 -0.25685 -0.009109 -0.214072 
-0.262499 -0.00704724 -0.216559 -0.26017 -0.00520614 -0.215653 -0.264618 -0.0035775 -0.21651 
-0.284125 0.00467865 -0.218859 -0.263218 0.000127907 -0.217092 -0.298408 0.0565864 -0.214667 
-0.285065 -0.0502969 -0.212586 -0.261319 -0.0355332 -0.210632 -0.25683 -0.0195255 -0.212794 
-0.257113 -0.0165499 -0.213343 -0.256318 -0.0121638 -0.210544 -0.255945 0.0186179 -0.211333 
-0.263048 0.0311833 -0.211535 -0.268694 0.0373995 -0.212039 -0.269938 0.0414283 -0.211948 
-0.265203 -0.0441508 -0.209017 -0.245895 -0.0153054 -0.20755 -0.247773 -0.0109205 -0.209027 
-0.251281 -0.00769743 -0.210701 -0.246395 -0.00609257 -0.208708 -0.239336 0.00718268 -0.206697 
-0.247169 0.0157094 -0.208092 -0.249842 0.0219484 -0.208298 -0.252149 0.0278098 -0.209068 
-0.25045 0.0316688 -0.20733 -0.260819 0.0409341 -0.208571 -0.24298 -0.0184832 -0.207031 
-0.241123 -0.0109565 -0.207223 -0.23551 -0.00859858 -0.204923 -0.231247 -0.00323098 -0.203568 
-0.236269 -0.00199112 -0.205724 -0.238066 0.000624803 -0.206393 -0.233385 0.000937234 -0.204421 
-0.233942 0.0053231 -0.203429 -0.238061 0.0184879 -0.203899 -0.265822 -0.0590778 -0.20141 
-0.225897 -0.0160069 -0.20026 -0.230096 -0.0124732 -0.202376 -0.224777 -0.0113889 -0.200198 
-0.228994 -0.00822777 -0.201162 -0.223575 -0.0040532 -0.20032 -0.223051 0.00256945 -0.199971 
-0.221511 0.0112515 -0.19895 -0.228197 0.0117576 -0.200629 -0.231221 0.014928 -0.202571 
[...]
POINT_DATA 841
FIELD FieldData 7
id 1 841 int
1086 1088 1079 1077 1080 1081 1082 1078 1083 
429 256 236 253 197 321 217 288 261 
222 299 329 368 276 366 308 327 128 
386 337 206 348 255 264 332 220 242 
230 287 367 446 422 322 275 363 249 
226 282 316 9 263 447 395 470 218 
245 262 314 353 354 310 267 273 192 
232 260 390 269 281 214 304 339 283 
492 450 194 320 90 343 410 423 303 
292 347 239 381 266 344 335 405 333 
371 227 331 388 530 439 243 430 248 
372 274 271 330 246 240 286 300 407 
311 231 382 349 409 323 257 490 235 
315 384 433 285 279 444 203 318 387 
362 302 341 313 258 237 238 247 427 
370 397 309 268 456 374 350 216 411 
441 336 340 378 291 486 355 466 417 
396 389 358 414 338 476 408 401 424 
425 440 462 403 416 473 365 351 421 
326 398 346 455 428 400 328 474 356 
394 373 471 488 511 301 325 479 334 
448 361 404 359 406 509 522 375 360 
483 484 345 453 454 521 497 478 434 
624 508 437 519 319 504 489 420 459 
554 385 493 559 536 475 364 468 458 
451 452 496 415 558 442 531 376 546 
463 413 393 499 431 357 445 392 380 
481 469 503 494 600 487 541 391 556 
477 538 598 482 465 500 312 435 542 
412 498 547 523 507 608 491 461 383 
342 460 379 419 505 501 579 369 555 
552 548 640 485 464 515 426 524 582 
495 527 502 449 512 573 537 631 676 
659 457 662 651 467 634 402 516 529 
602 550 562 571 588 534 564 532 517 
581 525 597 563 576 545 656 540 605 
572 595 590 526 574 510 561 609 589 
616 566 528 612 535 520 621 682 514 
544 577 601 650 570 666 630 658 578 
533 557 593 677 669 551 702 668 539 
614 586 626 663 506 672 633 443 585 
603 599 652 436 683 594 611 543 653 
615 610 617 636 661 623 648 480 675 
716 664 618 638 629 691 549 620 604 
518 718 678 619 681 655 580 639 717 
671 700 628 684 569 643 708 764 584 
607 715 697 734 694 649 565 725 632 
606 592 673 583 695 786 637 657 791 
705 635 567 739 687 685 698 654 699 
641 553 721 646 749 692 752 627 794 
703 667 647 591 645 596 575 613 568 
665 625 689 674 748 770 670 560 704 
728 686 690 622 587 740 755 513 727 
780 642 644 710 688 741 731 713 737 
720 432 788 760 747 759 742 765 768 
696 754 766 751 793 711 784 778 709 
781 722 733 756 761 745 807 730 757 
772 825 719 779 680 693 706 774 763 
729 811 743 758 723 804 735 767 812 
783 736 660 792 789 701 750 707 801 
746 785 726 744 753 712 802 835 798 
738 800 822 773 819 771 799 776 795 
714 787 790 867 777 840 769 806 805 
837 472 818 827 775 762 847 808 797 
732 814 796 856 830 858 782 836 853 
810 820 823 831 803 851 873 833 892 
824 862 869 859 852 679 880 821 850 
848 864 817 905 841 832 891 842 918 
826 866 879 838 863 815 907 845 865 
829 913 849 877 916 843 914 922 809 
861 874 875 932 903 876 919 926 887 
846 899 895 900 844 921 898 894 886 
816 884 834 896 813 893 839 881 854 
828 915 904 882 855 911 868 935 870 
910 885 940 902 901 927 889 883 872 
941 924 912 871 925 928 933 947 890 
934 943 878 923 906 930 909 931 917 
945 908 929 897 724 860 920 936 888 
938 939 937 857 944 957 946 942 948 
955 954 959 956 953 950 960 952 951 
958 949 965 962 964 966 967 970 963 
973 961 969 971 968 972 984 986 978 
975 976 974 985 983 980 977 982 981 
979 988 990 998 995 989 996 992 993 
994 999 997 987 991 1009 1007 1010 1011 
1002 1004 1003 1000 1005 1008 1001 1012 1006 
1017 1021 1023 1020 1014 1019 1013 1022 1024 
1015 1018 1016 1035 1036 1033 1037 1031 1027 
1029 1034 1032 1025 1028 1026 1030 1046 1049 
1041 1042 1045 1047 1040 1050 1048 1043 1038 
1044 1039 1059 1053 1063 1052 1057 1060 1054 
1061 1062 1051 1056 1058 1055 1076 1075 1069 
1065 1074 1072 1071 1070 1066 1073 1067 1064 
1068 1085 1084 1087 
type 1 841 int
1 1 1 1 1 1 1 1 1 
1 1 1 1 1 1 1 1 1 
1 1 1 1 1 1 1 1 1 
1 1 1 1 1 1 1 1 1 
1 1 1 1 1 1 1 1 1 
1 1 1 1 1 1 1 1 1 
1 1 1 1 1 1 1 1 1 
1 1 1 1 1 1 1 1 1 
1 1 1 1 1 1 1 1 1 
1 1 1 1 1 1 1 1 1 
1 1 1 1 1 1 1 1 1 
1 1 1 1 1 1 1 1 1 
1 1 1 1 1 1 1 1 1 
1 1 1 1 1 1 1 1 1 
1 1 1 1 1 1 1 1 1 
1 1 1 1 1 1 1 1 1 
1 1 1 1 1 1 1 1 1 
1 1 1 1 1 1 1 1 1 
1 1 1 1 1 1 1 1 1 
1 1 1 1 1 1 1 1 1 
1 1 1 1 1 1 1 1 1 
1 1 1 1 1 1 1 1 1 
1 1 1 1 1 1 1 1 1 
1 1 1 1 1 1 1 1 1 
1 1 1 1 1 1 1 1 1 
1 1 1 1 1 1 1 1 1 
1 1 1 1 1 1 1 1 1 
1 1 1 1 1 1 1 1 1 
1 1 1 1 1 1 1 1 1 
1 1 1 1 1 1 1 1 1 
1 1 1 1 1 1 1 1 1 
1 1 1 1 1 1 1 1 1 
1 1 1 1 1 1 1 1 1 
1 1 1 1 1 1 1 1 1 
1 1 1 1 1 1 1 1 1 
1 1 1 1 1 1 1 1 1 
1 1 1 1 1 1 1 1 1 
1 1 1 1 1 1 1 1 1 
1 1 1 1 1 1 1 1 1 
1 1 1 1 1 1 1 1 1 
1 1 1 1 1 1 1 1 1 
1 1 1 1 1 1 1 1 1 
1 1 1 1 1 1 1 1 1 
1 1 1 1 1 1 1 1 1 
1 1 1 1 1 1 1 1 1 
1 1 1 1 1 1 1 1 1 
1 1 1 1 1 1 1 1 1 
1 1 1 1 1 1 1 1 1 
1 1 1 1 1 1 1 1 1 
1 1 1 1 1 1 1 1 1 
1 1 1 1 1 1 1 1 1 
1 1 1 1 1 1 1 1 1 
1 1 1 1 1 1 1 1 1 
1 1 1 1 1 1 1 1 1 
1 1 1 1 1 1 1 1 1 
1 1 1 1 1 1 1 1 1 
1 1 1 1 1 1 1 1 1 
1 1 1 1 1 1 1 1 1 
1 1 1 1 1 1 1 1 1 
1 1 1 1 1 1 1 1 1 
1 1 1 1 1 1 1 1 1 
1 1 1 1 1 1 1 1 1 
1 1 1 1 1 1 1 1 1 
1 1 1 1 1 1 1 1 1 
1 1 1 1 1 1 1 1 1 
1 1 1 1 1 1 1 1 1 
1 1 1 1 1 1 1 1 1 
1 1 1 1 1 1 1 1 1 
1 1 1 1 1 1 1 1 1 
1 1 1 1 1 1 1 1 1 
1 1 1 1 1 1 1 1 1 
1 1 1 1 1 1 1 1 1 
1 1 1 1 1 1 1 1 1 
1 1 1 1 1 1 1 1 1 
1 1 1 1 1 1 1 1 1 
1 1 1 1 1 1 1 1 1 
1 1 1 1 1 1 1 1 1 
1 1 1 1 1 1 1 1 1 
1 1 1 1 1 1 1 1 1 
1 1 1 1 1 1 1 1 1 
1 1 1 1 1 1 1 1 1 
1 1 1 1 1 1 1 1 1 
1 1 1 1 1 1 1 1 1 
1 1 1 1 1 1 1 1 1 
1 1 1 1 1 1 1 1 1 
1 1 1 1 1 1 1 1 1 
1 1 1 1 1 1 1 1 1 
1 1 1 1 1 1 1 1 1 
1 1 1 1 1 1 1 1 1 
1 1 1 1 1 1 1 1 1 
1 1 1 1 1 1 1 1 1 
1 1 1 1 1 1 1 1 1 
1 1 1 1 1 1 1 1 1 
1 1 1 1 
i 3 841 int
0 0 0 0 0 0 0 0 0 
0 0 0 0 0 0 0 0 0 
0 0 0 0 0 0 0 0 0 
0 0 0 0 0 0 0 0 0 
0 0 0 0 0 0 0 0 0 
0 0 0 0 0 0 0 0 0 
0 0 0 0 0 0 0 0 0 
0 0 0 0 0 0 0 0 0 
0 0 0 0 0 0 0 0 0 
0 0 0 0 0 0 0 0 0 
0 0 0 0 0 0 0 0 0 
0 0 0 0 0 0 0 0 0 
0 0 0 0 0 0 0 0 0 
0 0 0 0 0 0 0 0 0 
0 0 0 0 0 0 0 0 0 
0 0 0 0 0 0 0 0 0 
0 0 0 0 0 0 0 0 0 
0 0 0 0 0 0 0 0 0 
0 0 0 0 0 0 0 0 0 
0 0 0 0 0 0 0 0 0 
0 0 0 0 0 0 0 0 0 
0 0 0 0 0 0 0 0 0 
0 0 0 0 0 0 0 0 0 
0 0 0 0 0 0 0 0 0 
0 0 0 0 0 0 0 0 0 
0 0 0 0 0 0 0 0 0 
0 0 0 0 0 0 0 0 0 
0 0 0 0 0 0 0 0 0 
0 0 0 0 0 0 0 0 0 
0 0 0 0 0 0 0 0 0 
0 0 0 0 0 0 0 0 0 
0 0 0 0 0 0 0 0 0 
0 0 0 0 0 0 0 0 0 
0 0 0 0 0 0 0 0 0 
0 0 0 0 0 0 0 0 0 
0 0 0 0 0 0 0 0 0 
0 0 0 0 0 0 0 0 0 
0 0 0 0 0 0 0 0 0 
0 0 0 0 0 0 0 0 0 
0 0 0 0 0 0 0 0 0 
0 0 0 0 0 0 0 0 0 
0 0 0 0 0 0 0 0 0 
0 0 0 0 0 0 0 0 0 
0 0 0 0 0 0 0 0 0 
0 0 0 0 0 0 0 0 0 
0 0 0 0 0 0 0 0 0 
0 0 0 0 0 0 0 0 0 
0 0 0 0 0 0 0 0 0 
0 0 0 0 0 0 0 0 0 
0 0 0 0 0 0 0 0 0 
0 0 0 0 0 0 0 0 0 
0 0 0 0 0 0 0 0 0 
0 0 0 0 0 0 0 0 0 
0 0 0 0 0 0 0 0 0 
0 0 0 0 0 0 0 0 0 
0 0 0 0 0 0 0 0 0 
0 0 0 0 0 0 0 0 0 
0 0 0 0 0 0 0 0 0 
0 0 0 0 0 0 0 0 0 
0 0 0 0 0 0 0 0 0 
0 0 0 0 0 0 0 0 0 
0 0 0 0 0 0 0 0 0 
0 0 0 0 0 0 0 0 0 
0 0 0 0 0 0 0 0 0 
0 0 0 0 0 0 0 0 0 
0 0 0 0 0 0 0 0 0 
0 0 0 0 0 0 0 0 0 
0 0 0 0 0 0 0 0 0 
0 0 0 0 0 0 0 0 0 
0 0 0 0 0 0 0 0 0 
0 0 0 0 0 0 0 0 0 
0 0 0 0 0 0 0 0 0 
0 0 0 0 0 0 0 0 0 
0 0 0 0 0 0 0 0 0 
0 0 0 0 0 0 0 0 0 
0 0 0 0 0 0 0 0 0 
0 0 0 0 0 0 0 0 0 
0 0 0 0 0 0 0 0 0 
0 0 0 0 0 0 0 0 0 
0 0 0 0 0 0 0 0 0 
0 0 0 0 0 0 0 0 0 
0 0 0 0 0 0 0 0 0 
0 0 0 0 0 0 0 0 0 
0 0 0 0 0 0 0 0 0 
0 0 0 0 0 0 0 0 0 
0 0 0 0 0 0 0 0 0 
0 0 0 0 0 0 0 0 0 
0 0 0 0 0 0 0 0 0 
0 0 0 0 0 0 0 0 0 
0 0 0 0 0 0 0 0 0 
0 0 0 0 0 0 0 0 0 
0 0 0 0 0 0 0 0 0 
0 0 0 0 0 0 0 0 0 
0 0 0 0 0 0 0 0 0 
0 0 0 0 0 0 0 0 0 
0 0 0 0 0 0 0 0 0 
0 0 0 0 0 0 0 0 0 
0 0 0 0 0 0 0 0 0 
0 0 0 0 0 0 0 0 0 
0 0 0 0 0 0 0 0 0 
0 0 0 0 0 0 0 0 0 
0 0 0 0 0 0 0 0 0 
0 0 0 0 0 0 0 0 0 
0 0 0 0 0 0 0 0 0 
0 0 0 0 0 0 0 0 0 
0 0 0 0 0 0 0 0 0 
0 0 0 0 0 0 0 0 0 
0 0 0 0 0 0 0 0 0 
0 0 0 0 0 0 0 0 0 
0 0 0 0 0 0 0 0 0 
0 0 0 0 0 0 0 0 0 
0 0 0 0 0 0 0 0 0 
0 0 0 0 0 0 0 0 0 
0 0 0 0 0 0 0 0 0 
0 0 0 0 0 0 0 0 0 
0 0 0 0 0 0 0 0 0 
0 0 0 0 0 0 0 0 0 
0 0 0 0 0 0 0 0 0 
0 0 0 0 0 0 0 0 0 
0 0 0 0 0 0 0 0 0 
0 0 0 0 0 0 0 0 0 
0 0 0 0 0 0 0 0 0 
0 0 0 0 0 0 0 0 0 
0 0 0 0 0 0 0 0 0 
0 0 0 0 0 0 0 0 0 
0 0 0 0 0 0 0 0 0 
0 0 0 0 0 0 0 0 0 
0 0 0 0 0 0 0 0 0 
0 0 0 0 0 0 0 0 0 
0 0 0 0 0 0 0 0 0 
0 0 0 0 0 0 0 0 0 
0 0 0 0 0 0 0 0 0 
0 0 0 0 0 0 0 0 0 
0 0 0 0 0 0 0 0 0 
0 0 0 0 0 0 0 0 0 
0 0 0 0 0 0 0 0 0 
0 0 0 0 0 0 0 0 0 
0 0 0 0 0 0 0 0 0 
0 0 0 0 0 0 0 0 0 
0 0 0 0 0 0 0 0 0 
0 0 0 0 0 0 0 0 0 
0 0 0 0 0 0 0 0 0 
0 0 0 0 0 0 0 0 0 
0 0 0 0 0 0 0 0 0 
0 0 0 0 0 0 0 0 0 
0 0 0 0 0 0 0 0 0 
0 0 0 0 0 0 0 0 0 
0 0 0 0 0 0 0 0 0 
0 0 0 0 0 0 0 0 0 
0 0 0 0 0 0 0 0 0 
0 0 0 0 0 0 0 0 0 
0 0 0 0 0 0 0 0 0 
0 0 0 0 0 0 0 0 0 
0 0 0 0 0 0 0 0 0 
0 0 0 0 0 0 0 0 0 
0 0 0 0 0 0 0 0 0 
0 0 0 0 0 0 0 0 0 
0 0 0 0 0 0 0 0 0 
0 0 0 0 0 0 0 0 0 
0 0 0 0 0 0 0 0 0 
0 0 0 0 0 0 0 0 0 
0 0 0 0 0 0 0 0 0 
0 0 0 0 0 0 0 0 0 
0 0 0 0 0 0 0 0 0 
0 0 0 0 0 0 0 0 0 
0 0 0 0 0 0 0 0 0 
0 0 0 0 0 0 0 0 0 
0 0 0 0 0 0 0 0 0 
0 0 0 0 0 0 0 0 0 
0 0 0 0 0 0 0 0 0 
0 0 0 0 0 0 0 0 0 
0 0 0 0 0 0 0 0 0 
0 0 0 0 0 0 0 0 0 
0 0 0 0 0 0 0 0 0 
0 0 0 0 0 0 0 0 0 
0 0 0 0 0 0 0 0 0 
0 0 0 0 0 0 0 0 0 
0 0 0 0 0 0 0 0 0 
0 0 0 0 0 0 0 0 0 
0 0 0 0 0 0 0 0 0 
0 0 0 0 0 0 0 0 0 
0 0 0 0 0 0 0 0 0 
0 0 0 0 0 0 0 0 0 
0 0 0 0 0 0 0 0 0 
0 0 0 0 0 0 0 0 0 
0 0 0 0 0 0 0 0 0 
0 0 0 0 0 0 0 0 0 
0 0 0 0 0 0 0 0 0 
0 0 0 0 0 0 0 0 0 
0 0 0 0 0 0 0 0 0 
0 0 0 0 0 0 0 0 0 
0 0 0 0 0 0 0 0 0 
0 0 0 0 0 0 0 0 0 
0 0 0 0 0 0 0 0 0 
0 0 0 0 0 0 0 0 0 
0 0 0 0 0 0 0 0 0 
0 0 0 0 0 0 0 0 0 
0 0 0 0 0 0 0 0 0 
0 0 0 0 0 0 0 0 0 
0 0 0 0 0 0 0 0 0 
0 0 0 0 0 0 0 0 0 
0 0 0 0 0 0 0 0 0 
0 0 0 0 0 0 0 0 0 
0 0 0 0 0 0 0 0 0 
0 0 0 0 0 0 0 0 0 
0 0 0 0 0 0 0 0 0 
0 0 0 0 0 0 0 0 0 
0 0 0 0 0 0 0 0 0 
0 0 0 0 0 0 0 0 0 
0 0 0 0 0 0 0 0 0 
0 0 0 0 0 0 0 0 0 
0 0 0 0 0 0 0 0 0 
0 0 0 0 0 0 0 0 0 
0 0 0 0 0 0 0 0 0 
0 0 0 0 0 0 0 0 0 
0 0 0 0 0 0 0 0 0 
0 0 0 0 0 0 0 0 0 
0 0 0 0 0 0 0 0 0 
0 0 0 0 0 0 0 0 0 
0 0 0 0 0 0 0 0 0 
0 0 0 0 0 0 0 0 0 
0 0 0 0 0 0 0 0 0 
0 0 0 0 0 0 0 0 0 
0 0 0 0 0 0 0 0 0 
0 0 0 0 0 0 0 0 0 
0 0 0 0 0 0 0 0 0 
0 0 0 0 0 0 0 0 0 
0 0 0 0 0 0 0 0 0 
0 0 0 0 0 0 0 0 0 
0 0 0 0 0 0 0 0 0 
0 0 0 0 0 0 0 0 0 
0 0 0 0 0 0 0 0 0 
0 0 0 0 0 0 0 0 0 
0 0 0 0 0 0 0 0 0 
0 0 0 0 0 0 0 0 0 
0 0 0 0 0 0 0 0 0 
0 0 0 0 0 0 0 0 0 
0 0 0 0 0 0 0 0 0 
0 0 0 0 0 0 0 0 0 
0 0 0 0 0 0 0 0 0 
0 0 0 0 0 0 0 0 0 
0 0 0 0 0 0 0 0 0 
0 0 0 0 0 0 0 0 0 
0 0 0 0 0 0 0 0 0 
0 0 0 0 0 0 0 0 0 
0 0 0 0 0 0 0 0 0 
0 0 0 0 0 0 0 0 0 
0 0 0 0 0 0 0 0 0 
0 0 0 0 0 0 0 0 0 
0 0 0 0 0 0 0 0 0 
0 0 0 0 0 0 0 0 0 
0 0 0 0 0 0 0 0 0 
0 0 0 0 0 0 0 0 0 
0 0 0 0 0 0 0 0 0 
0 0 0 0 0 0 0 0 0 
0 0 0 0 0 0 0 0 0 
0 0 0 0 0 0 0 0 0 
0 0 0 0 0 0 0 0 0 
0 0 0 0 0 0 0 0 0 
0 0 0 0 0 0 0 0 0 
0 0 0 0 0 0 0 0 0 
0 0 0 0 0 0 0 0 0 
0 0 0 0 0 0 0 0 0 
0 0 0 0 0 0 0 0 0 
0 0 0 0 0 0 0 0 0 
0 0 0 0 0 0 0 0 0 
0 0 0 0 0 0 0 0 0 
0 0 0 0 0 0 0 0 0 
0 0 0 0 0 0 0 0 0 
0 0 0 0 0 0 0 0 0 
0 0 0 0 0 0 0 0 0 
0 0 0 0 0 0 0 0 0 
0 0 0 0 0 0 0 0 0 
0 0 0 0 0 0 0 0 0 
0 0 0 0 0 0 0 0 0 
0 0 0 0 0 0 0 0 0 
0 0 0 0 0 0 0 0 0 
0 0 0 0 0 0 0 0 0 
0 0 0 0 0 0 0 0 0 
0 0 0 0 0 0 0 0 0 
0 0 0 
v 3 841 double
0 0 -1 0 0 -1.00397 0 0 -1 
0 0 -1.00505 0 0 -1.01555 0 0 -1.01614 
0 0 -1.02134 0 0 -1.00633 0 0 -1.02104 
-1.25983 0.109405 -1.62574 -1.03657 -0.139649 -1.83481 -1.30069 -0.185949 -1.7281 
-1.0488 -0.0906422 -1.78271 -1.01812 0.00493514 -1.73396 -1.03247 -0.12736 -1.78032 
-1.28294 -0.114185 -1.8146 -0.731658 0.124382 -1.74684 -1.0611 -0.0660386 -1.70802 
-1.16478 0.0521517 -1.71621 -0.78174 -0.021316 -1.78053 -1.01017 0.0529042 -1.70056 
-0.998662 -0.0751622 -1.70514 -0.98885 -0.0198163 -1.68438 -1.21927 0.420919 -1.79023 
-1.18722 0.134781 -1.7055 -1.11057 0.340265 -1.76662 -1.06896 -0.112182 -1.66409 
-1.30647 -0.245863 -1.75815 -1.04679 -0.0180249 -1.65639 -0.990853 -0.0186445 -1.64768 
-1.05331 -0.00636579 -1.68454 -1.2205 -0.0469145 -1.56314 -1.01164 -0.0375925 -1.61835 
-1.13435 0.0913762 -1.64448 -1.11085 0.0157648 -1.63477 -1.02978 -0.125746 -1.5911 
-1.0067 -0.101924 -1.56778 -0.993887 -0.113148 -1.54709 -1.09572 -0.269044 -1.6947 
-1.20233 -0.0715096 -1.56486 -1.1733 0.0988828 -1.51636 -0.869817 -0.00150807 -1.50952 
-0.872559 0.00369671 -1.48624 -1.02522 -0.00200384 -1.51864 -0.972206 0.017927 -1.55515 
-1.06313 0.00445064 -1.51747 -1.15535 -0.103215 -1.55441 -0.799095 -0.00654769 -1.44537 
-0.932172 0.0238375 -1.47027 -0.947096 -0.00797505 -1.46731 -0.926394 0.0267947 -1.47488 
-0.954613 -0.0141135 -1.41855 -1.23319 -0.192602 -1.60308 -1.02037 -0.0786758 -1.45005 
-0.91898 -0.00396899 -1.42731 -0.999198 0.0139077 -1.47509 -0.866549 0.0242124 -1.49073 
-1.17455 0.00213935 -1.32602 -1.01691 -0.0350097 -1.42326 -1.1472 -0.0183688 -1.43661 
-0.991645 -0.0691342 -1.36775 -1.0023 -0.0519058 -1.32965 -1.05742 0.0242824 -1.38816 
-1.04109 -0.0484752 -1.32444 -1.10544 0.13779 -1.33741 -1.04277 -0.035549 -1.30392 
-1.0998 -0.352139 -1.66184 -0.981739 0.0246476 -1.28706 -0.856023 -0.0684415 -1.2763 
-1.06991 -0.0119744 -1.2607 -0.990987 -0.0714607 -1.24936 -1.10271 -0.0537043 -1.26258 
-1.06397 0.0468983 -1.23321 -1.29086 0.0387144 -1.48351 -0.995767 -0.0747155 -1.23673 
-1.04419 -0.0747482 -1.239 -0.923074 -0.043184 -1.2269 -0.794857 -0.098041 -1.24131 
-0.960106 -0.31955 -1.2381 -1.12514 0.00747823 -1.21682 -0.994533 -0.0896564 -1.18079 
-0.979641 -0.0426487 -1.17717 -1.02937 -0.0923633 -1.21351 -1.12293 0.202184 -1.27869 
-0.866472 -0.0593439 -1.13375 -0.932991 -0.0490747 -1.16507 -1.127 0.250494 -1.17087 
-1.16734 0.234822 -1.17231 -0.96226 0.118104 -1.0902 -1.01965 0.002921 -1.11496 
-1.15937 0.122977 -1.1062 -0.999864 0.0714529 -1.08018 -1.02782 -0.0644611 -1.07282 
-1.02165 0.0628256 -1.09166 -1.34411 0.334957 -1.44424 -1.11506 0.113075 -1.07317 
-0.985926 0.0910313 -1.04196 -0.802616 0.032427 -1.11756 -0.998172 0.00324232 -1.04017 
-0.830709 0.00649009 -0.983084 -0.986794 0.0972019 -1.01028 -0.998069 0.0921414 -1.00633 
-0.936143 0.0770964 -0.979445 -1.0468 -0.0181709 -0.999896 -0.985956 -0.081936 -1.0535 
-0.907793 -0.0395894 -1.11547 -0.932285 -0.0356725 -1.00199 -0.958901 -0.0291744 -0.990365 
-0.960552 0.055869 -1.00817 -0.992931 0.0238809 -0.967638 -0.83647 0.00317316 -0.884892 
-0.927079 -0.0147077 -0.913288 -0.916555 -0.0428759 -0.912536 -1.02025 0.0212255 -1.00254 
-1.0272 0.0478394 -0.971417 -1.2071 0.118193 -1.00546 -0.874009 -0.0623955 -0.827672 
-0.865025 -0.02127 -0.876976 -1.03862 0.0475926 -0.907822 -0.929813 0.0235185 -0.797748 
-0.913514 0.0195782 -0.794958 -0.963324 0.0173019 -0.849673 -1.1763 0.00426347 -0.893761 
-0.900739 0.0568734 -0.772274 -0.917868 -0.00366522 -0.790363 -0.95286 0.00749167 -0.762216 
-0.902815 0.0202269 -0.799103 -0.988834 0.0827193 -0.800553 -1.08256 -0.053308 -0.771632 
-0.947958 -0.0147564 -0.748521 -0.899669 0.0500074 -0.744951 -0.783583 -0.013065 -0.668077 
-0.836625 0.0235689 -0.688616 -1.25276 0.059688 -0.685647 -0.821007 -0.105127 -0.797806 
-0.887789 0.0696155 -0.723917 -0.883967 0.0901125 -0.72974 -1.02207 0.115487 -0.741742 
-1.02361 0.0238263 -0.779285 -0.920656 -0.0836542 -0.75948 -0.987176 -0.0155495 -0.681774 
-0.987437 -0.00607477 -0.649845 -0.813242 -0.0219888 -0.644979 -0.826899 -0.00636139 -0.637423 
-0.856095 0.00445023 -0.753214 -0.90938 -0.0126162 -0.735013 -0.770078 -0.0179406 -0.638978 
-0.911898 0.0740498 -0.649085 -0.744 -0.0597139 -0.681857 -1.20832 0.414522 -0.968751 
-1.06982 -0.0132149 -0.531073 -1.11899 0.0584058 -0.667815 -1.10297 0.078731 -0.639962 
-0.932769 -0.0510391 -0.577276 -0.886843 0.0505395 -0.584285 -0.890207 0.0042187 -0.563261 
-0.841933 0.0702072 -0.639596 -0.920995 0.0373021 -0.469919 -0.868104 0.0747327 -0.621617 
-0.932097 0.0597012 -0.684898 -0.747405 -0.0878178 -0.62132 -0.911693 -0.0192136 -0.628467 
-1.0337 0.0883194 -0.717713 -1.11649 0.0800817 -0.629273 -0.921265 0.0522552 -0.536717 
-0.892452 0.0461076 -0.547397 -0.844275 -0.0356919 -0.547821 -1.04614 -0.0839344 -0.542084 
-1.00309 0.123484 -0.585118 -0.728552 0.0407512 -0.477092 -0.791974 -0.0530845 -0.59937 
-1.00816 0.103532 -0.553668 -0.909573 -0.081268 -0.529544 -1.13859 -0.0651405 -0.522657 
-0.889545 -0.0701608 -0.515031 -0.773077 0.0364661 -0.36487 -1.11846 -0.048404 -0.532825 
-1.02869 -0.0310242 -0.47367 -0.951409 -0.0736367 -0.467265 -0.939306 0.00911883 -0.423396 
-1.10255 0.11145 -0.410198 -1.06668 0.0265891 -0.480423 -1.12181 0.120934 -0.542237 
-1.10454 0.1873 -0.503662 -1.14935 0.229122 -0.501835 -1.13419 0.0822943 -0.464898 
-0.838632 0.134702 -0.278808 -1.13674 0.0859407 -0.463677 -1.14126 0.0796054 -0.484601 
-1.02066 -0.134137 -0.503066 -1.04298 0.0144807 -0.498546 -1.08114 0.0260619 -0.453399 
-1.18489 -0.0757181 -0.571911 -1.04489 -0.162916 -0.468259 -1.33097 -0.0228799 -0.662048 
-1.09224 0.110728 -0.469029 -1.116 0.0955982 -0.491996 -1.10991 0.100241 -0.517086 
-1.096 0.0867689 -0.442995 -1.07799 0.0618835 -0.460253 -1.0954 0.0362449 -0.463164 
-0.992735 0.102527 -0.411529 -0.903386 0.148953 -0.344262 -0.986041 0.0250624 -0.406667 
-0.990604 0.0390838 -0.402116 -1.1255 0.027505 -0.464511 -1.078 -0.106667 -0.574 
-1.13436 0.299329 -0.71646 -1.19167 0.170927 -0.535396 -1.10047 0.106125 -0.451892 
-1.06992 0.0995933 -0.478421 -1.07117 0.0495565 -0.456031 -1.04623 -0.00515387 -0.431803 
-0.959621 -0.0229588 -0.406746 -0.878036 0.0594621 -0.366762 -0.951735 0.0841036 -0.39212 
-0.991652 0.133422 -0.387105 -1.02867 0.0982857 -0.410028 -1.02073 0.093771 -0.407598 
-1.14344 0.192629 -0.441987 -1.27255 -0.219603 -0.573587 -0.906919 -0.108724 -0.405667 
-1.06423 -0.0630391 -0.443291 -1.03361 0.0650275 -0.443748 -0.908706 0.0625941 -0.419553 
-1.03103 -0.0267459 -0.51504 -1.03126 -0.000740902 -0.469623 -1.05156 -0.0228263 -0.443151 
-0.916419 -0.0192226 -0.387452 -0.814927 0.0385615 -0.340836 -1.07688 -0.0974243 -0.460049 
-1.06062 -0.0436643 -0.450733 -1.07295 -0.0954531 -0.457478 -1.17161 -0.129406 -0.507503 
-1.04502 0.151041 -0.464723 -1.03031 0.146604 -0.457878 -1.01029 0.0671251 -0.431825 
-0.98928 0.133091 -0.43091 -0.835642 0.0400191 -0.355939 -0.821964 -0.0328968 -0.364601 
-0.879696 -0.056791 -0.398759 -0.987092 0.0844986 -0.419546 -0.989502 0.10079 -0.400169 
-0.978258 0.0808256 -0.373259 -1.05218 0.055357 -0.440831 -1.13073 -0.0617229 -0.48088 
-1.00625 -0.106451 -0.429772 -1.2217 -0.067896 -0.522771 -1.09605 0.0907635 -0.43076 
-0.946553 0.00831993 -0.398493 -0.965343 0.0403496 -0.409622 -1.14943 0.0556962 -0.472046 
-1.01945 -0.151832 -0.462993 -1.15177 0.220647 -0.633724 -1.29518 0.29471 -0.745466 
-1.06955 0.156369 -0.448358 -1.14195 0.228788 -0.491423 -0.969809 0.0295135 -0.408556 
-0.969395 0.0437974 -0.409496 -0.985061 0.0494082 -0.419822 -0.975264 -0.0377868 -0.408372 
-0.982612 0.080979 -0.414909 -0.890694 0.149469 -0.377633 -1.07166 0.00281145 -0.455553 
-1.00004 -0.0216594 -0.419669 -0.950231 0.00896509 -0.395052 -0.889618 0.191334 -0.331942 
-0.917795 0.0477614 -0.362646 -1.12731 0.370595 -0.56935 -0.931031 -0.0317009 -0.393309 
-0.929129 0.0491685 -0.393717 -0.917597 0.0564965 -0.388047 -0.803847 0.179143 -0.349943 
-0.932156 0.0847622 -0.398951 -1.07169 0.0466906 -0.456389 -1.00082 -0.0258397 -0.405822 
-1.2114 0.160742 -0.695457 -0.940123 -0.0308899 -0.403127 -1.01921 -0.0282343 -0.373999 
-0.92767 -0.0289521 -0.344173 -0.960394 -0.00813595 -0.400477 -0.85974 0.0277825 -0.339674 
-0.813997 0.0359237 -0.347087 -0.890203 0.161215 -0.42647 -1.10514 -0.0908996 -0.482192 
-1.04384 -0.279209 -0.51391 -1.07191 -0.0762312 -0.480417 -1.08452 -0.0776794 -0.463586 
-1.04321 0.0725953 -0.481139 -1.01257 0.0158483 -0.41792 -0.996137 0.0261661 -0.428199 
-1.03787 0.0206896 -0.440973 -1.00857 0.0320612 -0.424776 -0.754347 -0.00113604 -0.314391 
-0.963221 0.013508 -0.40496 -1.03886 -0.199953 -0.458279 -0.962678 -0.00897965 -0.403927 
-0.916698 0.0239992 -0.366371 -1.03235 -0.317083 -0.548309 -1.09205 0.109002 -0.448788 
-0.992415 0.157303 -0.451973 -0.957732 0.0841661 -0.411051 -0.941681 0.0772791 -0.396775 
-0.937241 0.176319 -0.387886 -0.882252 -0.00600736 -0.377109 -0.880093 -0.0421424 -0.377866 
-0.82015 -0.035156 -0.343418 -0.922325 0.0787065 -0.367088 -1.03671 0.0871036 -0.440264 
-0.926342 -0.00924129 -0.395439 -0.953427 0.00649138 -0.400678 -0.956398 0.0606135 -0.412059 
-0.990315 0.0520259 -0.415618 -0.913398 -0.0208568 -0.37851 -0.84247 -0.0706951 -0.351868 
-0.675315 0.185146 -0.26562 -0.924347 -0.0314306 -0.383571 -0.911126 0.0673349 -0.385093 