# vtk DataFile Version 4.0
Generated by LIGGGHTS
ASCII
DATASET POLYDATA
POINTS 396 float
-0.22808 -0.0342323 -0.197602 -0.21872 0.0357816 -0.193302 -0.201745 -0.00321082 -0.189934 
-0.268883 0.0750453 -0.188824 -0.186425 0.00041059 -0.184571 -0.180369 -0.00926933 -0.180735 
-0.181972 -0.00492961 -0.182578 -0.177942 0.00100892 -0.180998 -0.176322 0.0163872 -0.17938 
-0.174959 -0.0126405 -0.179295 -0.171287 -0.00520773 -0.178126 -0.167662 -0.00310831 -0.176664 
-0.192871 0.055659 -0.175309 -0.161868 -0.00504625 -0.173131 -0.161281 0.00649631 -0.173948 
-0.172272 0.0082215 -0.176618 -0.163609 0.010662 -0.174542 -0.154421 -0.016608 -0.169132 
-0.151313 -0.00454407 -0.168725 -0.149653 -0.00026576 -0.168598 -0.154459 0.0102807 -0.170783 
-0.154012 0.0145725 -0.16907 -0.156095 0.0205571 -0.170493 -0.160198 -0.0418134 -0.16738 
-0.144227 -0.0181231 -0.164697 -0.138134 -0.00765833 -0.16412 -0.144212 0.00715688 -0.166612 
-0.148838 0.0292495 -0.165868 -0.15021 -0.0402643 -0.163749 -0.171053 -0.0192993 -0.165048 
-0.13745 -0.0166466 -0.162016 -0.135476 -0.00546223 -0.163045 -0.135206 -0.00215309 -0.163035 
-0.136752 0.00307699 -0.163555 -0.136556 0.00279838 -0.160373 -0.135956 0.00774414 -0.163122 
-0.127479 -0.0225875 -0.158124 -0.12578 -0.0178217 -0.158089 -0.132651 -0.0172198 -0.159976 
-0.132007 -0.0110766 -0.16024 -0.127473 -0.00412802 -0.159748 -0.129947 0.00586162 -0.159542 
-0.12828 0.0161881 -0.15822 -0.129676 -0.0314842 -0.156372 -0.122635 -0.0183726 -0.156687 
-0.125048 -0.0107898 -0.15728 -0.121546 -0.00836459 -0.154023 -0.119435 0.0029747 -0.155303 
-0.11584 0.00606915 -0.153717 -0.12419 0.00937019 -0.156932 -0.120493 0.0131526 -0.156252 
-0.116397 0.0102709 -0.154531 -0.118679 -0.0272441 -0.152699 -0.114219 -0.0203529 -0.152876 
-0.106739 -0.0121515 -0.150567 -0.105796 -0.00920527 -0.150362 -0.113618 -0.00646646 -0.152435 
-0.107974 -0.0057574 -0.151502 -0.108724 -0.00177419 -0.151854 -0.11117 0.00268807 -0.152881 
-0.11251 0.00501829 -0.151521 -0.116495 0.0134759 -0.151154 -0.102632 -0.00870508 -0.149052 
-0.117719 -0.00738797 -0.150443 -0.097256 -0.00746709 -0.146848 -0.117266 -0.000691033 -0.151411 
-0.104673 -0.00378108 -0.149012 -0.0998354 -0.00377327 -0.147045 -0.107667 0.00239965 -0.14916 
-0.128011 0.00922321 -0.15015 -0.0979449 0.00673447 -0.14725 -0.107648 0.0134951 -0.149727 
-0.109224 0.0209293 -0.149616 -0.149439 0.0748947 -0.148084 -0.188178 -0.0947246 -0.142186 
-0.0893457 -0.0168177 -0.142868 -0.0944343 -0.0121583 -0.144626 -0.098842 -0.00582116 -0.142374 
-0.100925 -0.000339252 -0.144996 -0.100431 0.00411837 -0.146405 -0.0993196 0.0122771 -0.146134 
-0.100566 0.0312619 -0.145486 -0.100618 0.0358822 -0.144417 -0.0946929 -0.0380208 -0.141563 
-0.0899835 -0.0248698 -0.142113 -0.0868831 -0.0191108 -0.140464 -0.107024 -0.00860953 -0.144898 
-0.0886331 -0.0092509 -0.141927 -0.0839223 -0.00441691 -0.141385 -0.100901 -0.00248698 -0.142778 
-0.0964066 -0.00255058 -0.144067 -0.0830383 0.0216986 -0.139347 -0.0949103 0.0357879 -0.142082 
-0.0770122 -0.0274015 -0.136332 -0.0920041 -0.0251733 -0.139929 -0.0893906 -0.0233961 -0.138876 
-0.0854875 -0.0231103 -0.138326 -0.0809017 -0.0187566 -0.139072 -0.0876457 -0.00431548 -0.139384 
-0.0911643 0.00423826 -0.14337 -0.0833877 0.00651058 -0.140923 -0.0777601 0.00486226 -0.137636 
-0.0736321 0.010179 -0.136798 -0.0758208 0.0176625 -0.136946 -0.0824382 0.0248067 -0.138916 
-0.0798697 0.0259801 -0.137614 -0.103973 0.0551916 -0.138038 -0.0746938 -0.03613 -0.133137 
-0.0648645 -0.0196301 -0.132218 -0.0880196 -0.0182981 -0.134368 -0.0667096 -0.0156217 -0.132383 
-0.0712356 -0.0148055 -0.134387 -0.0947726 -0.0061303 -0.136098 -0.0754144 -0.00826768 -0.136349 
-0.068089 -0.00873784 -0.133387 -0.0966572 -0.00289594 -0.139504 -0.0922593 -0.00545976 -0.138829 
-0.0715747 0.000584313 -0.13482 -0.0787707 0.00465259 -0.133776 -0.0798496 0.00852881 -0.138584 
-0.0732879 0.0218836 -0.134505 -0.066614 0.023348 -0.132579 -0.0706456 0.0301011 -0.133089 
-0.0756596 0.0336731 -0.134609 -0.0607169 -0.0199036 -0.129357 -0.0565134 -0.0151343 -0.129218 
-0.0617481 -0.0130051 -0.130524 -0.0547062 -0.0120336 -0.128682 -0.0857699 -0.00684968 -0.134814 
-0.0619781 -0.00625028 -0.130577 -0.0569403 0.000621951 -0.130038 -0.0808822 0.000963762 -0.131506 
-0.057183 0.00944144 -0.12881 -0.0570933 0.013542 -0.129252 -0.0735914 0.0247908 -0.131776 
-0.061193 0.0265011 -0.129813 -0.0774473 0.0470595 -0.130956 -0.0878981 0.0629919 -0.13046 
-0.0756249 -0.0583408 -0.127398 -0.0518815 -0.01357 -0.126184 -0.10598 -0.0116362 -0.130349 
-0.0589314 -0.0132262 -0.126401 -0.0879747 -0.00637338 -0.130359 -0.0518259 -0.00959206 -0.127579 
-0.0484133 -0.0100974 -0.125981 -0.0505079 -0.00649799 -0.12688 -0.0828421 -0.00358098 -0.130896 
-0.0651867 0.00160407 -0.129007 -0.0531019 0.00297272 -0.127265 -0.0509787 0.00562963 -0.125136 
-0.0468801 0.0060255 -0.125569 -0.052259 0.00919238 -0.12665 -0.0548867 0.026034 -0.127208 
-0.0502135 0.0267882 -0.125188 -0.0470193 -0.0263896 -0.123949 -0.0577989 -0.018225 -0.124949 
-0.0856225 -0.00748924 -0.126238 -0.0781387 -0.00501381 -0.12406 -0.0612297 -0.00517153 -0.125767 
-0.0475591 0.00200864 -0.124936 -0.0445311 0.00870252 -0.123374 -0.0395596 0.00665094 -0.122521 
-0.0505004 0.0106625 -0.122629 -0.0703853 0.0297753 -0.124986 -0.0415468 0.0246147 -0.121889 
-0.0686365 -0.0726893 -0.118423 -0.0482686 -0.0545131 -0.117748 -0.0424584 -0.0194372 -0.121816 
-0.0375457 -0.0198915 -0.120387 -0.0740556 -0.0147103 -0.118156 -0.0355163 -0.0159708 -0.120096 
-0.0632359 -0.0131074 -0.120466 -0.068164 -0.00883503 -0.123008 -0.0324263 -0.00986697 -0.118341 
-0.0326294 -9.17267e-05 -0.118678 -0.0688085 0.000546418 -0.117778 -0.0770392 0.00475838 -0.123406 
-0.0473622 0.00729439 -0.119406 -0.0322279 0.00862544 -0.117193 -0.0752779 0.00991383 -0.121471 
-0.0424263 0.0112802 -0.119473 -0.0317209 0.0122844 -0.118652 -0.0580963 0.0201516 -0.119568 
-0.104388 0.0319144 -0.121751 -0.0552848 0.0286024 -0.118765 -0.0416633 -0.0510844 -0.115971 
-0.0319597 -0.0283926 -0.11611 -0.0369419 -0.0258007 -0.119574 -0.0286041 -0.0217593 -0.113887 
-0.0324915 -0.0176886 -0.118283 -0.0273472 -0.0135552 -0.116675 -0.0249538 -0.0171435 -0.115645 
-0.0374822 -0.00986958 -0.118405 -0.0252848 -0.0098004 -0.114471 -0.0178899 -0.00434271 -0.113452 
-0.0549676 0.00228372 -0.118829 -0.0268467 0.00288118 -0.115911 -0.0652962 0.00227971 -0.119196 
-0.0421079 0.00926341 -0.114495 -0.0343917 0.00426345 -0.112486 -0.0743983 0.0115655 -0.118069 
-0.031662 0.0158593 -0.117132 -0.0665129 0.019859 -0.115488 -0.0233071 -0.0248404 -0.113451 
-0.0195954 -0.0100462 -0.113459 -0.0586276 -0.00325679 -0.113419 -0.0204672 -0.00662726 -0.110717 
-0.0169444 -0.00375089 -0.109262 -0.010944 -0.00777568 -0.109512 -0.0265219 -0.00124987 -0.115428 
-0.0220986 0.00177716 -0.113266 -0.0235395 0.00681588 -0.112863 -0.0196814 0.00777821 -0.113274 
-0.0164355 0.00229871 -0.110241 -0.0275175 0.0109763 -0.112894 -0.0589946 0.0129105 -0.113664 
-0.0355084 0.0125788 -0.1166 -0.0193467 0.0110858 -0.112135 -0.0311095 0.0176494 -0.112006 
-0.0476751 0.0222568 -0.111139 -0.0313152 0.0227493 -0.11489 -0.0267347 0.0226742 -0.114472 
-0.0589165 0.02755 -0.112534 -0.0289272 0.0285864 -0.11578 -0.0459563 0.0338617 -0.1111 
-0.0207917 0.0427348 -0.109799 -0.0295192 -0.034551 -0.111452 -0.00926587 -0.00166269 -0.10954 
-0.0132542 -0.000939423 -0.108424 -0.0448686 0.00704818 -0.105865 -0.0188035 0.00791005 -0.106938 
-0.0478057 0.0101352 -0.110585 -0.0141086 0.00923416 -0.107091 -0.0671371 0.0206931 -0.108486 
-0.0241722 0.013409 -0.110162 -0.010066 0.0135182 -0.108485 -0.0178413 0.016634 -0.108205 
-0.010348 0.0220499 -0.10587 -0.0395099 0.0244883 -0.108274 -0.0277403 0.0270037 -0.110384 
-0.0239043 -0.0258724 -0.103218 -0.0409702 -0.021213 -0.105447 -0.0289303 -0.0166862 -0.103702 
-0.00866489 -0.0179257 -0.104312 -0.0288428 -0.0124877 -0.11374 -0.04097 0.00283079 -0.10516 
-0.0265957 0.00342124 -0.103611 -0.0332385 0.00449133 -0.103078 -0.0310458 0.0251711 -0.117219 
-0.0177319 -0.0286169 -0.0988894 -0.00465981 -0.00611738 -0.104524 -0.0231744 0.0213449 -0.10237 
-0.0315342 -0.028052 -0.111065 -0.0053773 0.0313935 -0.103802 -0.0309119 -0.0207084 -0.10962 
-0.00876626 -0.00488868 -0.107331 -0.0265527 -0.0947362 -0.0895028 -0.0252685 -0.0119457 -0.104528 
-0.0209658 0.00969496 -0.104783 -0.0272645 0.0231035 -0.104864 -0.0152744 0.0211746 -0.10686 
-0.0342247 -0.0119118 -0.098092 -0.0245484 0.0235284 -0.0989315 -0.00730513 0.0257586 -0.0993934 
-0.0182011 -0.0283759 -0.0941288 -0.0304536 -0.0123493 -0.0948242 -0.0309256 0.00918438 -0.0961198 
-0.00968967 -0.00588877 -0.0901242 -0.0349344 -0.00127292 -0.0909453 -0.000691472 0.0332631 -0.0925415 
-0.0158837 -0.0171309 -0.0857052 -0.0231605 0.0109416 -0.0859543 -0.0340111 0.0266228 -0.08785 
-0.0203439 -0.0193455 -0.0821948 -0.00413281 -0.00792779 -0.0841712 -0.0109595 0.0300204 -0.0850082 
-0.0171117 -0.02331 -0.0807246 -0.0306741 -0.0048619 -0.081453 -0.0265082 0.034934 -0.0805707 
-0.00757771 0.0326856 -0.0812699 -0.014458 -0.0138423 -0.0756382 -0.0165238 0.0194762 -0.0715859 
-0.0196325 0.0295097 -0.0712331 -0.0196571 -0.0325483 -0.0690393 -0.0170652 -0.0214262 -0.0689339 
-0.0208036 0.00162734 -0.0675466 -0.0279163 0.0200822 -0.0678023 -0.0108823 -0.0240914 -0.0665641 
-0.0255762 0.00585265 -0.0652257 -0.0124469 0.0108555 -0.0639598 -0.0095853 0.0256603 -0.0634644 
-0.00434932 -0.0129336 -0.059335 -0.00343388 0.0316676 -0.0598871 -0.00344499 -0.0220199 -0.0532076 
-0.0241229 -0.00156433 -0.0546564 -0.0148123 0.0147393 -0.054375 -0.0101895 -0.0254463 -0.0525619 
-0.00418171 -0.00447311 -0.0516494 -0.00876558 -0.00149609 -0.0511073 -0.0256427 -0.020268 -0.0458401 
-0.0242978 0.00020127 -0.0479144 -0.00296015 0.00664907 -0.0488053 -0.0341543 -0.0265255 -0.0433859 
-0.00626215 -0.00726355 -0.0425774 -0.0252225 -0.00395457 -0.0451273 -0.00981587 -0.0226708 -0.0370943 
-0.0188893 -0.0164448 -0.0370647 -0.0118162 -0.0172965 -0.0374362 -0.0120408 -0.0289279 -0.0325111 
-0.0303622 -0.0214325 -0.0338182 -0.0224693 0.00786627 -0.0328663 -0.0288367 0.021507 -0.0313572 
-0.0184752 -0.0330418 -0.0286997 -0.0141191 -0.0138017 -0.0293541 -0.027048 -0.0348853 -0.0249966 
-0.0107355 -0.0111371 -0.0254203 -0.0208274 -0.00751444 -0.0250376 -0.0250889 0.00553727 -0.0256214 
-0.0120659 -0.000928847 -0.0197517 -0.00974267 0.00154746 -0.0211266 -0.0200267 0.00732997 -0.0232719 
-0.00304149 0.01634 -0.0159551 -0.0344795 0.0306845 -0.0170743 -0.00482279 0.0319284 -0.0183858 
-0.0259008 0.01415 -0.0135093 -0.0145727 0.0196597 -0.0153026 -0.0292124 -0.00857811 -0.011688 
-0.0310028 0.00427373 -0.00966597 -0.0138022 0.0201409 -0.0105456 -0.026015 0.0234799 -0.0106386 
-0.0318304 -0.0270523 -0.00591924 -0.00515441 0.000607433 -0.00778687 -0.0054599 -0.0346412 -0.00409547 
-0.00209743 -0.0197497 -0.00384754 -0.032644 -0.0063197 -0.00149523 -0.00423369 0.00513081 -0.0036895 
-0.029449 0.0175582 -0.00314353 -0.0230867 -0.0218823 -0.000494082 -0.000558622 -0.0225112 0.00162862 
-0.0153561 0.00561382 -2.56259e-05 -0.00426265 -0.00806252 0.00403902 -0.0250933 5.52728e-05 0.00343447 
-0.0314234 0.00551713 0.00453528 -0.0282123 0.0119421 0.00622328 -0.0258414 -0.0246135 0.00656347 
-0.00797106 -0.0174946 0.00996733 -0.00858455 -0.00884288 0.0127722 -0.0135917 0.0274385 0.0113609 
-0.0164984 0.0336061 0.0117083 -0.0196875 0.000933277 0.016794 -0.0162721 0.0114791 0.0161343 
-0.00977287 0.0109784 0.0140929 -0.00315638 0.017114 0.0142811 -0.0243451 0.0195956 0.0161375 
-0.00205387 -0.0284209 0.0188609 -0.0184795 -0.0269407 0.0179985 -0.00657095 -0.0222035 0.0208276 
-0.00832892 -0.0172649 0.0175235 -0.0310592 -0.00121585 0.0209324 -0.0131172 0.0174599 0.0187248 
-0.0213451 -0.000776551 0.0243017 -0.0104872 0.0175218 0.0249252 -0.029518 -0.0259191 0.0278557 
-0.0215522 -0.0188967 0.0265749 -0.0123384 -0.0119647 0.0269995 -0.0171637 0.000809468 0.0257152 
-0.00937081 0.0258081 0.0272259 -0.00665099 -0.0147089 0.0318028 -0.0235714 -0.0119867 0.0307664 
-0.00532413 0.00347482 0.0293378 -0.0154765 0.0185486 0.0316744 -0.0183398 -0.0212097 0.035902 
-0.00676706 -0.00981008 0.0358047 -0.00639582 0.00662071 0.0344711 -0.0299907 0.00855733 0.0348975 
-0.00517262 0.0323307 0.0350534 -0.0206177 -0.0113305 0.0391385 -0.0321609 -0.00607507 0.0397497 
-0.00390427 -0.00527178 0.0374353 -0.0311671 0.0123986 0.0376134 -0.0138788 -0.0162448 0.0435203 
-0.00131466 0.00705789 0.0410688 -0.00221027 0.0186146 0.0410763 -0.0079193 0.0298979 0.0402276 
-0.00399213 -0.0264375 0.0458351 -0.0223604 0.0276055 0.0463648 -0.0173855 -0.0338902 0.0497326 
-0.00858558 -0.0125682 0.0495479 -0.00558275 -0.00455966 0.047406 -0.0077538 0.0171361 0.0487227 
-0.0318082 0.0208697 0.0481947 -0.00154371 -0.0346722 0.0519601 -0.0287336 -0.0143436 0.0512303 
-0.0220216 -0.0115727 0.0528437 -0.0193685 0.0119819 0.0513298 -0.0232248 0.018953 0.0534442 

VERTICES 396 792
1 0 
1 1 
1 2 
1 3 
1 4 
1 5 
1 6 
1 7 
1 8 
1 9 
1 10 
1 11 
1 12 
1 13 
1 14 
1 15 
1 16 
1 17 
1 18 
1 19 
1 20 
1 21 
1 22 
1 23 
1 24 
1 25 
1 26 
1 27 
1 28 
1 29 
1 30 
1 31 
1 32 
1 33 
1 34 
1 35 
1 36 
1 37 
1 38 
1 39 
1 40 
1 41 
1 42 
1 43 
1 44 
1 45 
1 46 
1 47 
1 48 
1 49 
1 50 
1 51 
1 52 
1 53 
1 54 
1 55 
1 56 
1 57 
1 58 
1 59 
1 60 
1 61 
1 62 
1 63 
1 64 
1 65 
1 66 
1 67 
1 68 
1 69 
1 70 
1 71 
1 72 
1 73 
1 74 
1 75 
1 76 
1 77 
1 78 
1 79 
1 80 
1 81 
1 82 
1 83 
1 84 
1 85 
1 86 
1 87 
1 88 
1 89 
1 90 
1 91 
1 92 
1 93 
1 94 
1 95 
1 96 
1 97 
1 98 
1 99 
1 100 
1 101 
1 102 
1 103 
1 104 
1 105 
1 106 
1 107 
1 108 
1 109 
1 110 
1 111 
1 112 
1 113 
1 114 
1 115 
1 116 
1 117 
1 118 
1 119 
1 120 
1 121 
1 122 
1 123 
1 124 
1 125 
1 126 
1 127 
1 128 
1 129 
1 130 
1 131 
1 132 
1 133 
1 134 
1 135 
1 136 
1 137 
1 138 
1 139 
1 140 
1 141 
1 142 
1 143 
1 144 
1 145 
1 146 
1 147 
1 148 
1 149 
1 150 
1 151 
1 152 
1 153 
1 154 
1 155 
1 156 
1 157 
1 158 
1 159 
1 160 
1 161 
1 162 
1 163 
1 164 
1 165 
1 166 
1 167 
1 168 
1 169 
1 170 
1 171 
1 172 
1 173 
1 174 
1 175 
1 176 
1 177 
1 178 
1 179 
1 180 
1 181 
1 182 
1 183 
1 184 
1 185 
1 186 
1 187 
1 188 
1 189 
1 190 
1 191 
1 192 
1 193 
1 194 
1 195 
1 196 
1 197 
1 198 
1 199 
1 200 
1 201 
1 202 
1 203 
1 204 
1 205 
1 206 
1 207 
1 208 
1 209 
1 210 
1 211 
1 212 
1 213 
1 214 
1 215 
1 216 
1 217 
1 218 
1 219 
1 220 
1 221 
1 222 
1 223 
1 224 
1 225 
1 226 
1 227 
1 228 
1 229 
1 230 
1 231 
1 232 
1 233 
1 234 
1 235 
1 236 
1 237 
1 238 
1 239 
1 240 
1 241 
1 242 
1 243 
1 244 
1 245 
1 246 
1 247 
1 248 
1 249 
1 250 
1 251 
1 252 
1 253 
1 254 
1 255 
1 256 
1 257 
1 258 
1 259 
1 260 
1 261 
1 262 
1 263 
1 264 
1 265 
1 266 
1 267 
1 268 
1 269 
1 270 
1 271 
1 272 
1 273 
1 274 
1 275 
1 276 
1 277 
1 278 
1 279 
1 280 
1 281 
1 282 
1 283 
1 284 
1 285 
1 286 
1 287 
1 288 
1 289 
1 290 
1 291 
1 292 
1 293 
1 294 
1 295 
1 296 
1 297 
1 298 
1 299 
1 300 
1 301 
1 302 
1 303 
1 304 
1 305 
1 306 
1 307 
1 308 
1 309 
1 310 
1 311 
1 312 
1 313 
1 314 
1 315 
1 316 
1 317 
1 318 
1 319 
1 320 
1 321 
1 322 
1 323 
1 324 
1 325 
1 326 
1 327 
1 328 
1 329 
1 330 
1 331 
1 332 
1 333 
1 334 
1 335 
1 336 
1 337 
1 338 
1 339 
1 340 
1 341 
1 342 
1 343 
1 344 
1 345 
1 346 
1 347 
1 348 
1 349 
1 350 
1 351 
1 352 
1 353 
1 354 
1 355 
1 356 
1 357 
1 358 
1 359 
1 360 
1 361 
1 362 
1 363 
1 364 
1 365 
1 366 
1 367 
1 368 
1 369 
1 370 
1 371 
1 372 
1 373 
1 374 
1 375 
1 376 
1 377 
1 378 
1 379 
1 380 
1 381 
1 382 
1 383 
1 384 
1 385 
1 386 
1 387 
1 388 
1 389 
1 390 
1 391 
1 392 
1 393 
1 394 
1 395 

POINT_DATA 396
FIELD FieldData 7
id 1 396 int
35 32 16 22 10 2 6 11 44 
12 7 19 20 30 23 1 25 3 
4 69 38 29 57 13 28 89 47 
21 33 14 5 8 61 36 73 56 
45 37 40 27 59 42 66 54 85 
52 77 39 41 15 102 31 93 87 
46 110 78 50 74 58 71 91 18 
100 112 80 53 67 92 55 48 17 
94 60 51 24 98 101 162 86 65 
84 88 63 95 26 113 43 82 133 
121 153 34 70 62 76 171 75 68 
131 108 118 127 163 126 114 117 174 
140 173 79 141 125 150 168 120 111 
180 138 107 106 83 49 122 132 166 
129 123 104 143 210 184 105 159 151 
99 81 139 97 183 176 115 160 136 
172 149 103 195 116 152 175 205 64 
72 134 202 145 164 144 157 182 161 
124 119 212 135 109 189 225 190 200 
196 137 181 128 186 130 169 96 179 
170 191 154 147 158 188 167 185 227 
236 214 223 250 224 216 146 226 148 
230 201 178 228 198 222 255 142 203 
232 237 218 245 194 240 235 242 156 
252 192 206 207 241 208 193 199 213 
90 165 248 247 204 238 177 233 155 
220 239 244 231 229 219 234 209 215 
249 251 187 217 197 254 221 246 211 
243 253 265 259 9 267 261 264 262 
260 256 268 258 263 266 272 276 257 
274 279 269 270 281 275 273 280 277 
278 271 293 294 290 284 288 289 287 
282 283 292 291 286 300 302 285 296 
303 301 305 299 297 295 304 306 298 
312 315 311 313 314 317 308 310 307 
316 318 309 327 331 319 326 322 329 
320 325 330 332 328 321 324 323 343 
341 344 337 340 336 334 339 345 342 
333 338 335 347 355 349 354 352 356 
353 357 350 346 351 364 358 367 348 
368 365 370 360 363 359 371 369 366 
362 361 377 379 373 382 378 375 376 
372 380 393 381 383 374 396 388 387 
384 395 386 391 392 390 385 389 394 

type 1 396 int
1 1 1 1 1 1 1 1 1 
1 1 1 1 1 1 1 1 1 
1 1 1 1 1 1 1 1 1 
1 1 1 1 1 1 1 1 1 
1 1 1 1 1 1 1 1 1 
1 1 1 1 1 1 1 1 1 
1 1 1 1 1 1 1 1 1 
1 1 1 1 1 1 1 1 1 
1 1 1 1 1 1 1 1 1 
1 1 1 1 1 1 1 1 1 
1 1 1 1 1 1 1 1 1 
1 1 1 1 1 1 1 1 1 
1 1 1 1 1 1 1 1 1 
1 1 1 1 1 1 1 1 1 
1 1 1 1 1 1 1 1 1 
1 1 1 1 1 1 1 1 1 
1 1 1 1 1 1 1 1 1 
1 1 1 1 1 1 1 1 1 
1 1 1 1 1 1 1 1 1 
1 1 1 1 1 1 1 1 1 
1 1 1 1 1 1 1 1 1 
1 1 1 1 1 1 1 1 1 
1 1 1 1 1 1 1 1 1 
1 1 1 1 1 1 1 1 1 
1 1 1 1 1 1 1 1 1 
1 1 1 1 1 1 1 1 1 
1 1 1 1 1 1 1 1 1 
1 1 1 1 1 1 1 1 1 
1 1 1 1 1 1 1 1 1 
1 1 1 1 1 1 1 1 1 
1 1 1 1 1 1 1 1 1 
1 1 1 1 1 1 1 1 1 
1 1 1 1 1 1 1 1 1 
1 1 1 1 1 1 1 1 1 
1 1 1 1 1 1 1 1 1 
1 1 1 1 1 1 1 1 1 
1 1 1 1 1 1 1 1 1 
1 1 1 1 1 1 1 1 1 
1 1 1 1 1 1 1 1 1 
1 1 1 1 1 1 1 1 1 
1 1 1 1 1 1 1 1 1 
1 1 1 1 1 1 1 1 1 
1 1 1 1 1 1 1 1 1 
1 1 1 1 1 1 1 1 1 

i 3 396 int
0 0 0 0 0 0 0 0 0 
0 0 0 0 0 0 0 0 0 
0 0 0 0 0 0 0 0 0 
0 0 0 0 0 0 0 0 0 
0 0 0 0 0 0 0 0 0 
0 0 0 0 0 0 0 0 0 
0 0 0 0 0 0 0 0 0 
0 0 0 0 0 0 0 0 0 
0 0 0 0 0 0 0 0 0 
0 0 0 0 0 0 0 0 0 
0 0 0 0 0 0 0 0 0 
0 0 0 0 0 0 0 0 0 
0 0 0 0 0 0 0 0 0 
0 0 0 0 0 0 0 0 0 
0 0 0 0 0 0 0 0 0 
0 0 0 0 0 0 0 0 0 
0 0 0 0 0 0 0 0 0 
0 0 0 0 0 0 0 0 0 
0 0 0 0 0 0 0 0 0 
0 0 0 0 0 0 0 0 0 
0 0 0 0 0 0 0 0 0 
0 0 0 0 0 0 0 0 0 
0 0 0 0 0 0 0 0 0 
0 0 0 0 0 0 0 0 0 
0 0 0 0 0 0 0 0 0 
0 0 0 0 0 0 0 0 0 
0 0 0 0 0 0 0 0 0 
0 0 0 0 0 0 0 0 0 
0 0 0 0 0 0 0 0 0 
0 0 0 0 0 0 0 0 0 
0 0 0 0 0 0 0 0 0 
0 0 0 0 0 0 0 0 0 
0 0 0 0 0 0 0 0 0 
0 0 0 0 0 0 0 0 0 
0 0 0 0 0 0 0 0 0 
0 0 0 0 0 0 0 0 0 
0 0 0 0 0 0 0 0 0 
0 0 0 0 0 0 0 0 0 
0 0 0 0 0 0 0 0 0 
0 0 0 0 0 0 0 0 0 
0 0 0 0 0 0 0 0 0 
0 0 0 0 0 0 0 0 0 
0 0 0 0 0 0 0 0 0 
0 0 0 0 0 0 0 0 0 
0 0 0 0 0 0 0 0 0 
0 0 0 0 0 0 0 0 0 
0 0 0 0 0 0 0 0 0 
0 0 0 0 0 0 0 0 0 
0 0 0 0 0 0 0 0 0 
0 0 0 0 0 0 0 0 0 
0 0 0 0 0 0 0 0 0 
0 0 0 0 0 0 0 0 0 
0 0 0 0 0 0 0 0 0 
0 0 0 0 0 0 0 0 0 
0 0 0 0 0 0 0 0 0 
0 0 0 0 0 0 0 0 0 
0 0 0 0 0 0 0 0 0 
0 0 0 0 0 0 0 0 0 
0 0 0 0 0 0 0 0 0 
0 0 0 0 0 0 0 0 0 
0 0 0 0 0 0 0 0 0 
0 0 0 0 0 0 0 0 0 
0 0 0 0 0 0 0 0 0 
0 0 0 0 0 0 0 0 0 
0 0 0 0 0 0 0 0 0 
0 0 0 0 0 0 0 0 0 
0 0 0 0 0 0 0 0 0 
0 0 0 0 0 0 0 0 0 
0 0 0 0 0 0 0 0 0 
0 0 0 0 0 0 0 0 0 
0 0 0 0 0 0 0 0 0 
0 0 0 0 0 0 0 0 0 
0 0 0 0 0 0 0 0 0 
0 0 0 0 0 0 0 0 0 
0 0 0 0 0 0 0 0 0 
0 0 0 0 0 0 0 0 0 
0 0 0 0 0 0 0 0 0 
0 0 0 0 0 0 0 0 0 
0 0 0 0 0 0 0 0 0 
0 0 0 0 0 0 0 0 0 
0 0 0 0 0 0 0 0 0 
0 0 0 0 0 0 0 0 0 
0 0 0 0 0 0 0 0 0 
0 0 0 0 0 0 0 0 0 
0 0 0 0 0 0 0 0 0 
0 0 0 0 0 0 0 0 0 
0 0 0 0 0 0 0 0 0 
0 0 0 0 0 0 0 0 0 
0 0 0 0 0 0 0 0 0 
0 0 0 0 0 0 0 0 0 
0 0 0 0 0 0 0 0 0 
0 0 0 0 0 0 0 0 0 
0 0 0 0 0 0 0 0 0 
0 0 0 0 0 0 0 0 0 
0 0 0 0 0 0 0 0 0 
0 0 0 0 0 0 0 0 0 
0 0 0 0 0 0 0 0 0 
0 0 0 0 0 0 0 0 0 
0 0 0 0 0 0 0 0 0 
0 0 0 0 0 0 0 0 0 
0 0 0 0 0 0 0 0 0 
0 0 0 0 0 0 0 0 0 
0 0 0 0 0 0 0 0 0 
0 0 0 0 0 0 0 0 0 
0 0 0 0 0 0 0 0 0 
0 0 0 0 0 0 0 0 0 
0 0 0 0 0 0 0 0 0 
0 0 0 0 0 0 0 0 0 
0 0 0 0 0 0 0 0 0 
0 0 0 0 0 0 0 0 0 
0 0 0 0 0 0 0 0 0 
0 0 0 0 0 0 0 0 0 
0 0 0 0 0 0 0 0 0 
0 0 0 0 0 0 0 0 0 
0 0 0 0 0 0 0 0 0 
0 0 0 0 0 0 0 0 0 
0 0 0 0 0 0 0 0 0 
0 0 0 0 0 0 0 0 0 
0 0 0 0 0 0 0 0 0 
0 0 0 0 0 0 0 0 0 
0 0 0 0 0 0 0 0 0 
0 0 0 0 0 0 0 0 0 
0 0 0 0 0 0 0 0 0 
0 0 0 0 0 0 0 0 0 
0 0 0 0 0 0 0 0 0 
0 0 0 0 0 0 0 0 0 
0 0 0 0 0 0 0 0 0 
0 0 0 0 0 0 0 0 0 
0 0 0 0 0 0 0 0 0 
0 0 0 0 0 0 0 0 0 
0 0 0 0 0 0 0 0 0 
0 0 0 0 0 0 0 0 0 

v 3 396 double
-1.16863 0.0201536 -0.470253 -1.34791 0.201065 -0.50169 -1.16817 -0.0128467 -0.501331 
-1.43899 -0.0605119 -0.484354 -0.998923 0.046645 -0.429506 -1.03311 -0.0502133 -0.436354 
-1.06923 -0.0594517 -0.457612 -1.0618 -0.1172 -0.442287 -1.0469 -0.137536 -0.456195 
-1.05115 -0.0807598 -0.44235 -0.784089 -0.0166608 -0.322522 -0.896189 -0.127089 -0.367597 
-1.118 0.249959 -0.321251 -0.939685 0.0853863 -0.38668 -0.938569 0.0859581 -0.369703 
-0.960434 0.0238884 -0.643464 -0.966359 0.0879998 -0.388677 -0.836226 0.144787 -0.362919 
-0.823705 -0.0336503 -0.348351 -0.839905 0.041131 -0.336678 -0.976798 0.109937 -0.406935 
-0.9867 0.0983694 -0.426864 -1.01537 -0.13437 -0.442884 -0.98893 -0.0308635 -0.391221 
-0.850563 -0.181625 -0.352784 -0.681935 -0.0140778 -0.289767 -0.839979 0.0712796 -0.363317 
-1.02085 0.124266 -0.379532 -0.943486 -0.230771 -0.305968 -1.14607 -0.300319 -0.58782 
-0.860522 -0.0037522 -0.355865 -0.669888 0.0294347 -0.286971 -0.699308 -0.187605 -0.293589 
-0.630659 -0.0151865 -0.238631 -0.931542 -0.0175625 -0.0946715 -0.820125 -0.141662 -0.338449 
-0.806184 -0.031767 -0.332024 -0.701229 -0.0196345 -0.292635 -0.845229 0.0360164 -0.349807 
-0.847469 -0.0313665 -0.358332 -0.747382 0.0746157 -0.312311 -0.729315 -0.0844531 -0.326729 
-0.818891 -0.0103495 -0.3372 -0.848396 0.0486927 -0.364918 -0.909541 -0.154667 -0.36148 
-0.816321 0.119943 -0.358413 -0.783749 0.12419 -0.180433 -0.68933 -0.0546228 -0.294407 
-0.655409 -0.0917134 -0.287051 -0.701917 0.081531 -0.282597 -0.511132 0.0816234 -0.205134 
-0.606114 -0.118253 -0.249817 -0.967507 0.111514 -0.422254 -0.840944 0.0541061 -0.358856 
-0.605015 0.0654246 -0.258139 -0.639783 0.08936 -0.276969 -0.593006 -0.0567225 -0.351321 
-0.694245 0.0144972 -0.295378 -0.702647 -0.206645 -0.298902 -0.578787 -0.0025237 -0.245783 
-0.651635 -0.0422184 -0.272085 -0.873723 -0.0121921 -0.118317 -0.610137 0.0930379 -0.264629 
-0.883482 -0.256546 -0.549703 -0.617713 -0.0935289 -0.258752 -0.75022 -0.0381672 -0.494985 
-0.642157 -0.122016 -0.319812 -0.689825 -0.0962768 -0.28014 -0.932598 0.0898432 -0.623948 
-0.800806 -0.00707236 -0.398708 -0.443869 -0.134876 -0.197442 -0.765685 -0.0695236 -0.325377 
-0.817284 -0.0373606 -0.347023 -0.887497 0.201648 -0.18961 -1.10388 -0.142293 -0.165733 
-0.559292 0.0152453 -0.23529 -0.739277 0.0188116 -0.398858 -0.756218 -0.147247 -0.145726 
-0.756465 -0.0477383 -0.505147 -0.762944 -0.304679 -0.522532 -0.641502 0.00787225 -0.32673 
-0.718027 -0.011795 -0.303885 -0.603823 0.12152 -0.219781 -0.711869 -0.150331 -0.263839 
-0.647227 -0.117009 -0.269617 -0.600217 -0.0452364 -0.244525 -0.872785 -0.0964808 -0.840823 
-0.638267 -0.0671392 -0.284898 -0.565473 0.051973 -0.242845 -0.751564 0.039075 -0.727168 
-0.75697 0.070159 -0.732937 -0.696402 0.101002 -0.255874 -0.514554 0.0311174 -0.20643 
-0.392132 -0.116545 -0.141088 -0.816605 -0.275682 -0.522251 -0.766788 -0.198693 -0.522514 
-0.655412 -0.232343 -0.321829 -0.57649 0.0563737 -0.252142 -0.626374 0.169964 -0.443546 
-0.734009 -0.109593 -0.0953942 -0.646016 0.0852642 -0.130261 -0.617526 0.0691573 -0.266903 
-0.721396 -0.134225 -0.318311 -0.529799 0.0974331 -0.169172 -0.555482 0.109665 -0.204213 
-0.501894 0.0583887 -0.229695 -0.765991 0.125959 -0.267961 -0.695488 -0.0370232 -0.299572 
-0.507381 -0.0873891 -0.203687 -1.00339 -0.340042 -0.547602 -0.500343 -0.0657078 -0.202627 
-0.52607 -0.144665 -0.206196 -0.706383 0.22085 -0.678613 -0.73977 0.102402 -0.727356 
-0.663375 0.0189543 -0.279606 -0.748701 0.239543 -0.829729 -0.704986 0.132826 -0.802358 
-0.737511 -0.110925 -0.345889 -0.746472 -0.0120827 -0.294791 -0.555114 0.0330246 -0.740039 
-0.512211 0.0616836 -0.205031 -0.442569 0.0432859 -0.176014 -0.536607 0.00588373 -0.225408 
-0.561799 0.0256907 -0.232748 -0.640274 0.0467183 -0.265131 -0.447754 0.0400266 -0.194341 
-0.554435 0.0109509 -0.233905 -0.57953 0.0648726 -0.246935 -0.674933 -0.233521 -0.753976 
-0.450179 0.0318304 -0.48017 -0.410039 0.385336 -0.0607425 -0.642714 0.0443177 -0.521702 
-0.459069 0.0401406 -0.197206 -0.58841 0.105856 -0.265066 -0.561933 0.14986 -0.305083 
-0.361701 0.155052 -0.132488 -0.558179 0.229393 -0.17587 -0.923335 0.363418 -0.199928 
-0.678259 -0.124919 -0.221126 -0.577179 0.0693398 -0.267942 -1.17065 0.232957 -0.807886 
-0.465559 0.0261825 -0.294417 -0.72262 0.313334 -0.599389 -0.434398 0.0575831 -0.18284 
-0.384393 0.0426553 -0.21214 -0.526798 0.0720163 -0.190476 -0.73748 -0.165108 -0.715865 
-0.732381 -0.00708146 -0.411241 -0.474342 -0.205115 -0.213421 -0.343586 -0.360738 -0.141816 
-0.377648 0.0269035 -0.148221 -0.492911 -0.40797 -0.252085 -0.365605 0.122903 -0.129474 
-0.392109 0.249283 -0.126435 -0.475367 0.0398359 -0.203426 -0.626543 0.223679 -0.351028 
-0.725063 0.300451 -0.571119 -0.726073 0.299308 -0.504537 -0.615757 0.165186 -0.360148 
-0.707536 -0.0389724 -0.300388 -0.405118 -0.0772465 -0.163064 -0.476588 -0.0995543 -0.162104 
-0.440418 -0.0430126 -0.373483 -0.559196 0.286347 -0.258332 -0.418799 -0.100608 -0.202234 
-0.372186 -0.187898 -0.0396716 -0.429984 -0.153989 -0.132345 -0.552681 0.0270664 -0.300969 
-0.601252 0.0207342 -0.242923 -0.731457 0.190931 -0.241047 -0.448957 0.155935 -0.188833 
-0.928181 -0.0313183 -0.350206 -1.03786 0.163607 -0.613279 -0.457832 -0.122926 -0.197559 
-0.36401 0.15529 -0.159109 -0.742535 0.0369308 -0.192578 -0.624505 -0.277907 -0.566511 
-0.608048 0.0795923 -0.193896 -0.434028 -0.0397048 -0.0575813 -0.710462 -0.310613 -0.387354 
-0.617984 0.0257479 -0.0252627 -0.341552 -0.100318 -0.317881 -0.604595 0.048849 -0.330938 
-0.851734 0.267758 -0.434211 -0.664046 -0.0666737 -0.262688 -0.522698 -0.390099 -0.147493 
-0.595584 0.0824585 0.175223 -0.457427 -0.149193 -0.0734239 -0.205784 0.183081 -0.0766635 
-0.279748 0.124177 -0.0194099 -0.439401 0.223915 -0.0229099 -0.582631 -0.116709 -0.210048 
-0.733933 0.0482192 0.25345 -0.530999 -0.0036855 0.0638863 -0.00692456 0.192777 -0.0346311 
-0.577641 0.078875 -0.570131 -0.72732 0.328447 -0.210371 -0.732511 -0.171083 -0.552443 
-0.472978 0.202356 0.107241 -0.609606 -0.358415 0.0952435 -0.724733 -0.302357 -0.344122 
-0.400638 0.0597497 -0.456387 -0.726719 -0.324071 -0.203614 -0.311239 0.137746 -0.238234 
-0.233539 -0.0779127 0.134129 -0.660447 0.0632922 -0.493982 -0.32931 -0.00466221 -0.0393239 
-0.271685 0.0750892 0.185097 -0.598442 -0.586852 -0.912828 -0.683225 0.180509 -0.543087 
-0.447168 -0.158032 -0.0128868 -0.217093 0.112794 -0.257982 -0.155281 0.241303 -0.0625653 
-0.547846 -0.200472 -0.0601966 -0.264478 0.210713 -0.476206 -0.672146 -0.113176 -0.421205 
-0.820137 -0.0914099 -0.39618 -0.481443 0.000829493 -0.118696 -0.543866 -0.0222153 -0.198468 
-0.851149 -0.2373 -0.230865 -0.89667 -0.42367 0.046128 -0.62361 0.120147 -0.681285 
-0.931082 0.0295488 -0.243745 -0.533835 0.0693321 -0.111691 -0.606505 0.0608265 -0.0181219 
-0.206484 0.148622 -0.0434991 -0.333699 -0.362904 -0.329942 -0.708327 0.572621 -0.326077 
-0.411513 -0.347954 0.0573981 -0.672094 -0.0128699 -0.0288645 -0.82353 -0.130941 0.0366849 
-0.714004 -0.326823 -0.413286 -0.620745 -0.283726 -0.0339088 -0.563919 0.433849 -0.101131 
-0.449126 -0.269906 -0.17603 -0.330076 -0.369583 -0.0936659 -0.714341 -0.146747 0.237965 
-0.185018 0.132787 0.114042 -0.697512 -0.327364 -0.0234555 -0.687151 -0.187057 -0.22849 
-0.718261 0.263689 0.0539651 -0.700428 0.28818 -0.1381 -0.717554 0.263429 -0.0729065 
-0.669532 0.19033 0.0493939 -0.725757 0.449874 0.0961599 -0.719415 -0.0267257 -0.2234 
-0.361909 0.0681155 0.200332 -0.717713 -0.0266624 -0.135804 -0.744803 -0.208824 -0.183896 
-0.481977 0.173548 -0.457007 -0.630322 0.0777464 0.173006 0.0283084 -0.738369 -1.75638 
-0.260466 0.18741 0.548642 -0.712304 -0.326045 0.178048 0 0 -2.03265 
-0.153035 -0.0729325 -1.19896 -0.377243 -0.327992 0.0634685 0 0 -2.00793 
0 0 -2.0092 0 0 -2.0096 0 0 -2.01931 
0 0 -1.97624 -0.155209 0.0908026 -1.62292 0 0 -1.98272 
-0.211037 0.0799791 -1.45752 0 0 -1.95996 0 0 -1.96643 
0 0 -1.93632 0 0 -1.94044 0 0 -1.94848 
0 0 -1.91375 0 0 -1.91503 0 0 -1.92474 
0 0 -1.8957 0 0 -1.9059 0 0 -1.91022 
0 0 -1.88805 0 0 -1.89188 0 0 -1.88727 
0 0 -1.8909 0 0 -1.86147 0 0 -1.83998 
0 0 -1.83812 0 0 -1.82635 0 0 -1.82576 
0 0 -1.8183 0 0 -1.81967 0 0 -1.813 
0 0 -1.80574 0 0 -1.79888 0 0 -1.79613 
0 0 -1.77347 0 0 -1.77651 0 0 -1.73923 
0 0 -1.74737 0 0 -1.74581 0 0 -1.7356 
0 0 -1.7304 0 0 -1.72736 0 0 -1.69715 
0 0 -1.70912 0 0 -1.71422 0 0 -1.68292 
0 0 -1.67821 0 0 -1.69303 0 0 -1.64584 
0 0 -1.64565 0 0 -1.6479 0 0 -1.61828 
0 0 -1.62622 0 0 -1.62043 0 0 -1.61131 
0 0 -1.59503 0 0 -1.59905 0 0 -1.57207 
0 0 -1.57472 0 0 -1.57236 0 0 -1.57599 
0 0 -1.53901 0 0 -1.54774 0 0 -1.56128 
0 0 -1.51458 0 0 -1.52184 0 0 -1.53028 
0 0 -1.49869 0 0 -1.51037 0 0 -1.48672 
0 0 -1.47328 0 0 -1.47917 0 0 -1.47976 
0 0 -1.44817 0 0 -1.46073 0 0 -1.43571 
0 0 -1.43404 0 0 -1.41786 0 0 -1.43296 
0 0 -1.42924 0 0 -1.41089 0 0 -1.39608 
0 0 -1.40765 0 0 -1.37901 0 0 -1.38333 
0 0 -1.37548 0 0 -1.36341 0 0 -1.36096 
0 0 -1.33624 0 0 -1.31544 0 0 -1.32594 
0 0 -1.32339 0 0 -1.28513 0 0 -1.29013 
0 0 -1.30553 0 0 -1.30416 0 0 -1.29013 
0 0 -1.26924 0 0 -1.27591 0 0 -1.25393 
0 0 -1.27954 0 0 -1.25315 0 0 -1.27031 
0 0 -1.22646 0 0 -1.22146 0 0 -1.19772 
0 0 -1.20812 0 0 -1.20469 0 0 -1.21508 
0 0 -1.20282 0 0 -1.16496 0 0 -1.17359 
0 0 -1.18546 0 0 -1.16603 0 0 -1.12984 
0 0 -1.13072 0 0 -1.1422 0 0 -1.13857 
0 0 -1.13719 0 0 -1.10139 0 0 -1.09599 
0 0 -1.11649 0 0 -1.11492 0 0 -1.06166 
0 0 -1.08412 0 0 -1.08402 0 0 -1.09167 
0 0 -1.04007 0 0 -1.03507 0 0 -1.0026 
0 0 -1.00446 0 0 -1.02516 0 0 -1.01241 
0 0 -1.01751 0 0 -1 0 0 -1 
0 0 -1 0 0 -1 0 0 -1 