# vtk DataFile Version 4.0
Generated by LIGGGHTS
ASCII
DATASET POLYDATA
POINTS 409 float
-0.23986 -0.0339509 -0.202415 -0.232281 0.0376792 -0.198262 -0.213569 -0.00334045 -0.194966 
-0.283321 0.0742787 -0.193866 -0.192788 -0.00551985 -0.187196 -0.196581 0.000880352 -0.188816 
-0.185686 -0.0133817 -0.183609 -0.190844 -0.009744 -0.185085 -0.188666 -0.00015846 -0.185521 
-0.186936 0.0149819 -0.183947 -0.179185 -0.00538089 -0.181386 -0.176607 -0.0043249 -0.180197 
-0.18214 0.00857982 -0.181152 -0.204183 0.0579744 -0.178468 -0.17137 -0.00418943 -0.177096 
-0.170756 0.00733734 -0.177784 -0.173372 0.011522 -0.17854 -0.162871 -0.0151331 -0.172907 
-0.159691 -0.00486977 -0.172233 -0.158052 0.00014555 -0.172455 -0.164385 0.0113486 -0.174801 
-0.164044 0.0155191 -0.173222 -0.166361 0.0191627 -0.174979 -0.170163 -0.0420701 -0.171469 
-0.182514 -0.0223025 -0.171417 -0.15291 -0.0198914 -0.168111 -0.152756 0.00786262 -0.170294 
-0.159123 0.0304555 -0.169833 -0.159731 -0.0424887 -0.166966 -0.146161 -0.0166596 -0.165677 
-0.145093 -0.00778609 -0.167027 -0.142233 -0.00593665 -0.165927 -0.142527 -0.00261634 -0.165882 
-0.143095 0.00292148 -0.166242 -0.144246 0.00631968 -0.166645 -0.135649 -0.0228664 -0.161535 
-0.133168 -0.0179562 -0.161201 -0.141214 -0.0168345 -0.163556 -0.140623 -0.0113628 -0.163845 
-0.134905 -0.00340551 -0.162864 -0.145872 0.00262275 -0.161811 -0.137401 0.00500362 -0.162742 
-0.136597 0.0160395 -0.16163 -0.138283 -0.0309326 -0.160078 -0.131182 -0.0200334 -0.159684 
-0.133335 -0.00956886 -0.160919 -0.126504 0.00268275 -0.158318 -0.131294 0.0101726 -0.159911 
-0.122429 0.00918467 -0.157289 -0.125655 0.0139582 -0.158361 -0.128475 -0.0260857 -0.156952 
-0.122744 -0.0197728 -0.156537 -0.129383 -0.00712269 -0.156318 -0.126554 -0.00995343 -0.15643 
-0.119777 -0.00700556 -0.155289 -0.115131 -0.00638239 -0.154287 -0.124755 -0.00168906 -0.15613 
-0.11586 -0.00335578 -0.154865 -0.118876 0.00268113 -0.15556 -0.122575 0.00525843 -0.156536 
-0.119943 0.00482828 -0.153071 -0.125232 0.0133539 -0.152828 -0.112912 -0.0114779 -0.153204 
-0.112293 -0.00841597 -0.15316 -0.108736 -0.00792081 -0.151605 -0.111323 -0.00477769 -0.151849 
-0.115895 0.00306185 -0.152117 -0.136019 0.00915248 -0.154628 -0.115419 0.012779 -0.153059 
-0.11752 0.0205108 -0.153142 -0.158398 0.0767463 -0.150025 -0.101959 -0.0119565 -0.148442 
-0.115752 -0.00957433 -0.153797 -0.103563 -0.00838199 -0.149466 -0.106677 -0.00466155 -0.149909 
-0.108054 -0.000940535 -0.151043 -0.10272 -0.00127249 -0.149107 -0.108142 0.00230538 -0.151496 
-0.102405 0.00553947 -0.149151 -0.105817 0.0124333 -0.149039 -0.107862 0.0310889 -0.14856 
-0.106774 0.0370287 -0.14668 -0.199224 -0.0954118 -0.143401 -0.10195 -0.0394444 -0.144213 
-0.100574 -0.027974 -0.145102 -0.0961289 -0.0254596 -0.144192 -0.0930057 -0.0195254 -0.142972 
-0.0950506 -0.0166322 -0.145304 -0.0951714 -0.00991444 -0.144458 -0.106404 -0.00729363 -0.144321 
-0.0897025 -0.00388057 -0.143867 -0.11056 -0.00329863 -0.147197 -0.104997 -0.000244526 -0.146697 
-0.0985203 0.00317082 -0.14534 -0.0898478 0.00736322 -0.142716 -0.100179 0.0360283 -0.144201 
-0.0981979 -0.0245663 -0.140668 -0.0920417 -0.0254337 -0.142035 -0.0868048 -0.0181525 -0.141641 
-0.0826727 -0.00713499 -0.140304 -0.101836 -0.0039218 -0.143375 -0.0993092 -0.0041315 -0.147343 
-0.0939094 -0.00261585 -0.14431 -0.0840484 0.0054665 -0.140296 -0.0860766 0.00880753 -0.141495 
-0.0809871 0.00880821 -0.139994 -0.0811188 0.0186368 -0.139128 -0.0900023 0.0227086 -0.142396 
-0.088097 0.0258756 -0.1411 -0.0849258 0.0265397 -0.13966 -0.111633 0.0564512 -0.141208 
-0.0816801 -0.0364837 -0.136452 -0.0810542 -0.0285101 -0.137805 -0.0980393 -0.021587 -0.140242 
-0.0766278 -0.0162146 -0.136487 -0.0925197 -0.00886969 -0.140395 -0.0747848 -0.00855951 -0.136225 
-0.079054 -0.000530705 -0.138256 -0.08634 0.00454421 -0.137122 -0.0785373 0.0224412 -0.136591 
-0.0814014 0.0338808 -0.136994 -0.0702629 -0.0204572 -0.134371 -0.0718373 -0.0162441 -0.134471 
-0.117687 -0.00930661 -0.138919 -0.0674175 -0.0128827 -0.13291 -0.0952009 -0.00324004 -0.136843 
-0.0900389 -0.0050083 -0.138237 -0.0665235 -0.00566167 -0.132839 -0.0873093 0.00140694 -0.137214 
-0.0711606 0.0237307 -0.134397 -0.0791941 0.026319 -0.135296 -0.0761327 0.0301119 -0.135403 
-0.0832021 0.0491903 -0.132554 -0.097223 0.0665217 -0.13258 -0.0825131 -0.0594811 -0.129698 
-0.0671504 -0.0193869 -0.13204 -0.0615397 -0.0147677 -0.131339 -0.0641242 -0.0124725 -0.128918 
-0.0606262 -0.0113946 -0.13121 -0.0562175 -0.00901056 -0.129453 -0.0928731 -0.00448472 -0.13244 
-0.0557759 -0.00577783 -0.129276 -0.0725105 0.00153326 -0.13361 -0.0610747 0.00451242 -0.131341 
-0.0581675 0.000900031 -0.129455 -0.0622135 0.0098575 -0.130931 -0.0581558 0.00737144 -0.12905 
-0.0630445 0.0143831 -0.131972 -0.0649661 0.0279904 -0.131097 -0.0586497 0.0272279 -0.128598 
-0.0518957 -0.025958 -0.126041 -0.0639682 -0.0166183 -0.128449 -0.0575729 -0.0129765 -0.128764 
-0.0785427 -0.00719896 -0.129631 -0.0522268 -0.00938321 -0.127755 -0.0853994 -0.00202073 -0.129596 
-0.0678164 -0.00321515 -0.128117 -0.0527694 -0.000900625 -0.127061 -0.0832843 0.00197931 -0.129562 
-0.0549649 0.00362478 -0.128523 -0.0509407 0.0057428 -0.127326 -0.0485121 0.00816532 -0.125114 
-0.0549046 0.0102324 -0.126854 -0.0542678 0.0292294 -0.126484 -0.0759772 0.0326388 -0.12806 
-0.0480078 -0.01916 -0.125178 -0.0435642 -0.0196828 -0.123258 -0.0400056 -0.014421 -0.122338 
-0.0725177 -0.0134206 -0.124459 -0.0726213 0.000568881 -0.125211 -0.060744 0.00307247 -0.125021 
-0.044343 0.00565412 -0.12454 -0.0823825 0.00680771 -0.125835 -0.0534427 0.00809031 -0.121836 
-0.0641423 0.0206401 -0.123367 -0.0458798 0.0235639 -0.12386 -0.112906 0.034592 -0.126584 
-0.0724513 -0.074435 -0.118929 -0.0526831 -0.0559739 -0.119141 -0.0415162 -0.0272927 -0.120799 
-0.0813701 -0.012801 -0.121057 -0.0358781 -0.0152466 -0.120501 -0.0308784 -0.0112427 -0.118208 
-0.0448215 -0.00938739 -0.116361 -0.0371174 -0.0110401 -0.120409 -0.0323619 0.000334443 -0.117904 
-0.0762338 0.000915726 -0.120194 -0.0365958 0.00159404 -0.12033 -0.0341199 0.00616565 -0.118505 
-0.0365682 0.00822839 -0.118259 -0.0816457 0.00854193 -0.122001 -0.0486062 0.0115377 -0.120216 
-0.0437098 0.0116647 -0.121052 -0.0359954 0.0114845 -0.120666 -0.036272 0.016069 -0.120276 
-0.0384938 0.0230828 -0.119549 -0.0619253 0.0279357 -0.121882 -0.0470561 -0.0548703 -0.117151 
-0.0379156 -0.027568 -0.114848 -0.026575 -0.0234356 -0.115625 -0.0292341 -0.0211967 -0.115661 
-0.0358641 -0.0198592 -0.119322 -0.0308604 -0.0181174 -0.118023 -0.034304 -0.0056635 -0.119108 
-0.0304854 -0.00943517 -0.114852 -0.0219308 -0.0108253 -0.112608 -0.0181274 -0.00240751 -0.113568 
-0.065232 -0.00262386 -0.118849 -0.0265703 0.000196837 -0.113885 -0.0468377 0.011287 -0.113913 
-0.025708 0.00793266 -0.11556 -0.0206493 0.00919669 -0.114178 -0.0657161 0.0117787 -0.118366 
-0.0301623 0.0130834 -0.118147 -0.07378 0.0166183 -0.118014 -0.040488 0.0194541 -0.115511 
-0.0326997 0.0229713 -0.117197 -0.0682273 0.0278454 -0.115462 -0.0342656 0.0292797 -0.117387 
-0.0328562 -0.0381801 -0.115242 -0.0341388 -0.0261779 -0.106069 -0.0167916 -0.0104176 -0.111388 
-0.0237603 -0.00667388 -0.111601 -0.016215 0.00323202 -0.112771 -0.0218704 -1.78035e-05 -0.11142 
-0.0404878 0.000679306 -0.112024 -0.0549458 0.006867 -0.115209 -0.0291063 0.011634 -0.113837 
-0.0242701 0.0123549 -0.115611 -0.0365036 0.0172239 -0.114353 -0.0561866 0.0198839 -0.113939 
-0.0200825 0.02012 -0.110851 -0.0346295 0.025141 -0.113151 -0.0520213 0.0344699 -0.111771 
-0.0229702 0.0441471 -0.110296 -0.0479745 -0.0183312 -0.107318 -0.0281889 -0.0112583 -0.115342 
-0.0200887 -0.00340786 -0.108307 -0.0132676 -0.00551392 -0.109862 -0.0153902 -0.00253072 -0.106464 
-0.0515896 0.00691948 -0.106645 -0.0219713 0.00305051 -0.112061 -0.0234734 0.00991452 -0.112449 
-0.0203161 0.0063969 -0.107921 -0.0133668 0.00982235 -0.109912 -0.0247784 0.0148705 -0.106499 
-0.0256201 0.016078 -0.115105 -0.0727763 0.0250316 -0.109988 -0.046485 0.0212147 -0.108999 
-0.0283555 0.022925 -0.116563 -0.0310869 -0.0232355 -0.103169 -0.0361058 -0.0140519 -0.104922 
-0.0142345 -0.0156995 -0.105865 -0.00739335 -0.00543257 -0.108138 -0.0481641 0.00256353 -0.107885 
-0.0404156 0.00422471 -0.104926 -0.0302148 0.0041024 -0.102099 -0.0125609 0.0231081 -0.105129 
-0.00949354 0.0255984 -0.10726 -0.0120376 0.0275323 -0.105055 -0.0218639 -0.027256 -0.112036 
-0.0347727 -0.0125362 -0.116409 -0.0305923 -0.0127535 -0.114375 -0.032301 0.00803574 -0.114939 
-0.0255075 0.0246313 -0.114248 -0.0209992 -0.0272015 -0.101109 -0.00376023 0.0318331 -0.10155 
-0.0131195 -0.00589984 -0.10355 -0.0349344 -0.00127292 -0.11084 -0.0340111 0.0266228 -0.107588 
-0.0304432 -0.0978102 -0.0889194 -0.0170094 -0.0174538 -0.103777 -0.0231605 0.0109416 -0.105595 
-0.0114223 0.0306212 -0.102058 -0.0203439 -0.0193455 -0.101642 -0.00413281 -0.00792779 -0.103721 
-0.0306741 -0.0048619 -0.100862 -0.00757771 0.0326856 -0.100669 -0.0171117 -0.02331 -0.100096 
-0.0265082 0.034934 -0.0999339 -0.014458 -0.0138423 -0.0947434 -0.0165238 0.0194762 -0.0904762 
-0.0196325 0.0295097 -0.0901048 -0.0196571 -0.0325483 -0.0877933 -0.0170652 -0.0214262 -0.087682 
-0.0208036 0.00162734 -0.0862201 -0.0279163 0.0200822 -0.0864896 -0.0108823 -0.0240914 -0.0851846 
-0.0255762 0.00585265 -0.0837737 -0.0124469 0.0108555 -0.0824391 -0.0095853 0.0256603 -0.0819162 
-0.00434932 -0.0129336 -0.0775602 -0.00343388 0.0316676 -0.0781427 -0.00344499 -0.0220199 -0.0710905 
-0.0241229 -0.00156433 -0.0726207 -0.0148123 0.0147393 -0.0723235 -0.0101895 -0.0254463 -0.0704084 
-0.00418171 -0.00447311 -0.0694439 -0.00876558 -0.00149609 -0.0688714 -0.0242978 0.00020127 -0.065496 
-0.00296015 0.00664907 -0.066438 -0.0341543 -0.0265255 -0.0607056 -0.0256427 -0.020268 -0.0633021 
-0.0252225 -0.00395457 -0.062548 -0.00626215 -0.00726355 -0.05985 -0.00981587 -0.0226708 -0.0540432 
-0.0188893 -0.0164448 -0.0540116 -0.0118162 -0.0172965 -0.0544057 -0.0120408 -0.0289279 -0.0491844 
-0.0303622 -0.0214325 -0.0505709 -0.0224693 0.00786627 -0.0495612 -0.0141191 -0.0138017 -0.0458351 
-0.0288367 0.021507 -0.0479608 -0.0184752 -0.0330418 -0.0451405 -0.0250889 0.00553727 -0.0418718 
-0.027048 -0.0348853 -0.0412078 -0.0107355 -0.0111371 -0.0416579 -0.0208274 -0.00751444 -0.0412517 
-0.0200267 0.00732997 -0.0393752 -0.0120659 -0.000928847 -0.0356323 -0.00974267 0.00154746 -0.0370945 
-0.00304149 0.01634 -0.0315914 -0.0145727 0.0196597 -0.0308968 -0.0344795 0.0306845 -0.0327833 
-0.00482279 0.0319284 -0.0341791 -0.0292124 -0.00857811 -0.0270458 -0.0259008 0.01415 -0.0289867 
-0.0310028 0.00427373 -0.0248893 -0.0138022 0.0201409 -0.0258278 -0.026015 0.0234799 -0.0259266 
-0.0318304 -0.0270523 -0.0208914 -0.00515441 0.000607433 -0.0228846 -0.0054599 -0.0346412 -0.0189431 
-0.00209743 -0.0197497 -0.0186785 -0.032644 -0.0063197 -0.0161643 -0.00423369 0.00513081 -0.0185096 
-0.029449 0.0175582 -0.0179264 -0.0230867 -0.0218823 -0.0150935 -0.000558622 -0.0225112 -0.0128227 
-0.0153561 0.00561382 -0.0145927 -0.00426265 -0.00806252 -0.0102416 -0.0250933 5.52728e-05 -0.0108893 
-0.0314234 0.00551713 -0.00970999 -0.0258414 -0.0246135 -0.00753662 -0.0282123 0.0119421 -0.00790133 
-0.00797106 -0.0174946 -0.00388554 -0.0135917 0.0274385 -0.00238897 -0.0164984 0.0336061 -0.00201604 
-0.00858455 -0.00884288 -0.000872676 -0.00977287 0.0109784 0.000547113 -0.00315638 0.017114 0.000748969 
-0.00205387 -0.0284209 0.00567809 -0.0184795 -0.0269407 0.00474895 -0.00832892 -0.0172649 0.00423767 
-0.0196875 0.000933277 0.00345219 -0.0162721 0.0114791 0.00274249 -0.0131172 0.0174599 0.00553118 
-0.0243451 0.0195956 0.00274574 -0.00657095 -0.0222035 0.00779782 -0.0310592 -0.00121585 0.00791041 
-0.0213451 -0.000776551 0.0115466 -0.0171637 0.000809468 0.0130739 -0.0104872 0.0175218 0.0122201 
-0.029518 -0.0259191 0.0153879 -0.0215522 -0.0188967 0.0140032 -0.0123384 -0.0119647 0.0144622 
-0.00532413 0.00347482 0.0169927 -0.00937081 0.0258081 0.0147071 -0.00665099 -0.0147089 0.0196628 
-0.0235714 -0.0119867 0.01854 -0.0154765 0.0185486 0.0195235 -0.0183398 -0.0212097 0.0241131 
-0.00676706 -0.00981008 0.024007 -0.00639582 0.00662071 0.0225586 -0.0299907 0.00855733 0.0230214 
-0.00517262 0.0323307 0.023191 -0.0206177 -0.0113305 0.0276341 -0.0321609 -0.00607507 0.0282993 
-0.00390427 -0.00527178 0.0257799 -0.0311671 0.0123986 0.0259737 -0.0138788 -0.0162448 0.0324133 
-0.00131466 0.00705789 0.0297371 -0.00221027 0.0186146 0.0297455 -0.0079193 0.0298979 0.0288204 
-0.00399213 -0.0264375 0.0349438 -0.0223604 0.0276055 0.0355236 -0.0173855 -0.0338902 0.0392161 
-0.00858558 -0.0125682 0.0390127 -0.00558275 -0.00455966 0.0366639 -0.0077538 0.0171361 0.0381081 
-0.0318082 0.0208697 0.0375291 -0.00154371 -0.0346722 0.0416434 -0.0287336 -0.0143436 0.0408534 
-0.0220216 -0.0115727 0.0425926 -0.0193685 0.0119819 0.0409607 -0.0232248 0.018953 0.0432334 
-0.0208051 -0.0257611 0.0449244 -0.0319573 -0.0211048 0.0445418 -0.00452227 -8.57609e-05 0.0473802 
-0.0067008 0.0110709 0.0440743 -0.0124901 0.0292455 0.0438503 -0.0184641 0.0346143 0.0452877 
-0.0345917 -0.0281976 0.0503737 -0.0215899 -0.0111508 0.047665 -0.00861311 0.0156758 0.0489667 
-0.0255212 -0.0322233 0.0526628 -0.0293509 -0.0255557 0.0516631 -0.0239192 -0.011198 0.0534359 
-0.00341211 0.0279138 0.0529572 
VERTICES 409 818
1 0 
1 1 
1 2 
1 3 
1 4 
1 5 
1 6 
1 7 
1 8 
1 9 
1 10 
1 11 
1 12 
1 13 
1 14 
1 15 
1 16 
1 17 
1 18 
1 19 
1 20 
1 21 
1 22 
1 23 
1 24 
1 25 
1 26 
1 27 
1 28 
1 29 
1 30 
1 31 
1 32 
1 33 
1 34 
1 35 
1 36 
1 37 
1 38 
1 39 
1 40 
1 41 
1 42 
1 43 
1 44 
1 45 
1 46 
1 47 
1 48 
1 49 
1 50 
1 51 
1 52 
1 53 
1 54 
1 55 
1 56 
1 57 
1 58 
1 59 
1 60 
1 61 
1 62 
1 63 
1 64 
1 65 
1 66 
1 67 
1 68 
1 69 
1 70 
1 71 
1 72 
1 73 
1 74 
1 75 
1 76 
1 77 
1 78 
1 79 
1 80 
1 81 
1 82 
1 83 
1 84 
1 85 
1 86 
1 87 
1 88 
1 89 
1 90 
1 91 
1 92 
1 93 
1 94 
1 95 
1 96 
1 97 
1 98 
1 99 
1 100 
1 101 
1 102 
1 103 
1 104 
1 105 
1 106 
1 107 
1 108 
1 109 
1 110 
1 111 
1 112 
1 113 
1 114 
1 115 
1 116 
1 117 
1 118 
1 119 
1 120 
1 121 
1 122 
1 123 
1 124 
1 125 
1 126 
1 127 
1 128 
1 129 
1 130 
1 131 
1 132 
1 133 
1 134 
1 135 
1 136 
1 137 
1 138 
1 139 
1 140 
1 141 
1 142 
1 143 
1 144 
1 145 
1 146 
1 147 
1 148 
1 149 
1 150 
1 151 
1 152 
1 153 
1 154 
1 155 
1 156 
1 157 
1 158 
1 159 
1 160 
1 161 
1 162 
1 163 
1 164 
1 165 
1 166 
1 167 
1 168 
1 169 
1 170 
1 171 
1 172 
1 173 
1 174 
1 175 
1 176 
1 177 
1 178 
1 179 
1 180 
1 181 
1 182 
1 183 
1 184 
1 185 
1 186 
1 187 
1 188 
1 189 
1 190 
1 191 
1 192 
1 193 
1 194 
1 195 
1 196 
1 197 
1 198 
1 199 
1 200 
1 201 
1 202 
1 203 
1 204 
1 205 
1 206 
1 207 
1 208 
1 209 
1 210 
1 211 
1 212 
1 213 
1 214 
1 215 
1 216 
1 217 
1 218 
1 219 
1 220 
1 221 
1 222 
1 223 
1 224 
1 225 
1 226 
1 227 
1 228 
1 229 
1 230 
1 231 
1 232 
1 233 
1 234 
1 235 
1 236 
1 237 
1 238 
1 239 
1 240 
1 241 
1 242 
1 243 
1 244 
1 245 
1 246 
1 247 
1 248 
1 249 
1 250 
1 251 
1 252 
1 253 
1 254 
1 255 
1 256 
1 257 
1 258 
1 259 
1 260 
1 261 
1 262 
1 263 
1 264 
1 265 
1 266 
1 267 
1 268 
1 269 
1 270 
1 271 
1 272 
1 273 
1 274 
1 275 
1 276 
1 277 
1 278 
1 279 
1 280 
1 281 
1 282 
1 283 
1 284 
1 285 
1 286 
1 287 
1 288 
1 289 
1 290 
1 291 
1 292 
1 293 
1 294 
1 295 
1 296 
1 297 
1 298 
1 299 
1 300 
1 301 
1 302 
1 303 
1 304 
1 305 
1 306 
1 307 
1 308 
1 309 
1 310 
1 311 
1 312 
1 313 
1 314 
1 315 
1 316 
1 317 
1 318 
1 319 
1 320 
1 321 
1 322 
1 323 
1 324 
1 325 
1 326 
1 327 
1 328 
1 329 
1 330 
1 331 
1 332 
1 333 
1 334 
1 335 
1 336 
1 337 
1 338 
1 339 
1 340 
1 341 
1 342 
1 343 
1 344 
1 345 
1 346 
1 347 
1 348 
1 349 
1 350 
1 351 
1 352 
1 353 
1 354 
1 355 
1 356 
1 357 
1 358 
1 359 
1 360 
1 361 
1 362 
1 363 
1 364 
1 365 
1 366 
1 367 
1 368 
1 369 
1 370 
1 371 
1 372 
1 373 
1 374 
1 375 
1 376 
1 377 
1 378 
1 379 
1 380 
1 381 
1 382 
1 383 
1 384 
1 385 
1 386 
1 387 
1 388 
1 389 
1 390 
1 391 
1 392 
1 393 
1 394 
1 395 
1 396 
1 397 
1 398 
1 399 
1 400 
1 401 
1 402 
1 403 
1 404 
1 405 
1 406 
1 407 
1 408 

POINT_DATA 409
FIELD FieldData 7
id 1 409 int
35 32 16 22 6 10 12 2 11 
44 7 19 1 20 30 23 25 3 
4 69 38 29 57 13 14 28 47 
21 33 5 89 8 61 36 56 45 
37 40 27 59 73 42 66 54 85 
52 39 15 31 102 93 87 77 100 
78 50 80 74 58 41 71 91 46 
110 18 53 92 55 17 94 60 98 
113 112 67 162 121 86 48 65 84 
88 51 63 62 95 26 24 43 101 
82 133 120 131 108 34 76 171 75 
150 125 111 68 118 107 127 163 153 
126 114 117 174 70 173 141 104 168 
180 138 106 122 140 79 176 129 160 
103 143 184 83 151 49 81 139 97 
132 166 115 123 136 145 149 195 210 
116 105 205 159 99 64 134 202 183 
137 172 164 144 157 130 152 175 182 
124 72 119 189 225 200 196 148 146 
161 179 169 154 212 147 135 109 185 
190 236 214 250 181 218 186 128 226 
96 178 170 252 191 228 254 158 188 
167 222 227 265 223 251 224 255 216 
142 245 230 194 240 156 242 198 241 
208 193 199 165 243 237 203 248 235 
201 177 220 192 206 207 262 219 213 
90 209 267 232 259 247 204 238 261 
233 239 244 211 155 229 264 234 215 
249 246 187 197 217 231 268 253 221 
260 263 266 256 258 257 272 276 269 
9 274 279 275 270 281 280 278 273 
277 271 293 294 290 284 288 289 287 
282 283 292 291 286 300 302 285 296 
303 301 299 297 295 305 306 304 298 
312 315 311 313 314 310 317 308 309 
307 316 318 319 327 331 326 325 322 
329 330 320 332 328 321 324 323 343 
341 344 337 340 336 334 339 345 342 
333 335 338 347 349 354 355 353 357 
346 351 358 352 356 348 350 364 367 
368 359 365 370 360 363 362 371 369 
366 361 377 379 373 382 378 375 376 
372 380 393 381 383 374 396 388 387 
384 395 386 391 392 390 385 389 394 
399 405 398 403 406 407 409 404 408 
402 401 400 397 
type 1 409 int
1 1 1 1 1 1 1 1 1 
1 1 1 1 1 1 1 1 1 
1 1 1 1 1 1 1 1 1 
1 1 1 1 1 1 1 1 1 
1 1 1 1 1 1 1 1 1 
1 1 1 1 1 1 1 1 1 
1 1 1 1 1 1 1 1 1 
1 1 1 1 1 1 1 1 1 
1 1 1 1 1 1 1 1 1 
1 1 1 1 1 1 1 1 1 
1 1 1 1 1 1 1 1 1 
1 1 1 1 1 1 1 1 1 
1 1 1 1 1 1 1 1 1 
1 1 1 1 1 1 1 1 1 
1 1 1 1 1 1 1 1 1 
1 1 1 1 1 1 1 1 1 
1 1 1 1 1 1 1 1 1 
1 1 1 1 1 1 1 1 1 
1 1 1 1 1 1 1 1 1 
1 1 1 1 1 1 1 1 1 
1 1 1 1 1 1 1 1 1 
1 1 1 1 1 1 1 1 1 
1 1 1 1 1 1 1 1 1 
1 1 1 1 1 1 1 1 1 
1 1 1 1 1 1 1 1 1 
1 1 1 1 1 1 1 1 1 
1 1 1 1 1 1 1 1 1 
1 1 1 1 1 1 1 1 1 
1 1 1 1 1 1 1 1 1 
1 1 1 1 1 1 1 1 1 
1 1 1 1 1 1 1 1 1 
1 1 1 1 1 1 1 1 1 
1 1 1 1 1 1 1 1 1 
1 1 1 1 1 1 1 1 1 
1 1 1 1 1 1 1 1 1 
1 1 1 1 1 1 1 1 1 
1 1 1 1 1 1 1 1 1 
1 1 1 1 1 1 1 1 1 
1 1 1 1 1 1 1 1 1 
1 1 1 1 1 1 1 1 1 
1 1 1 1 1 1 1 1 1 
1 1 1 1 1 1 1 1 1 
1 1 1 1 1 1 1 1 1 
1 1 1 1 1 1 1 1 1 
1 1 1 1 1 1 1 1 1 
1 1 1 1 
i 3 409 int
0 0 0 0 0 0 0 0 0 
0 0 0 0 0 0 0 0 0 
0 0 0 0 0 0 0 0 0 
0 0 0 0 0 0 0 0 0 
0 0 0 0 0 0 0 0 0 
0 0 0 0 0 0 0 0 0 
0 0 0 0 0 0 0 0 0 
0 0 0 0 0 0 0 0 0 
0 0 0 0 0 0 0 0 0 
0 0 0 0 0 0 0 0 0 
0 0 0 0 0 0 0 0 0 
0 0 0 0 0 0 0 0 0 
0 0 0 0 0 0 0 0 0 
0 0 0 0 0 0 0 0 0 
0 0 0 0 0 0 0 0 0 
0 0 0 0 0 0 0 0 0 
0 0 0 0 0 0 0 0 0 
0 0 0 0 0 0 0 0 0 
0 0 0 0 0 0 0 0 0 
0 0 0 0 0 0 0 0 0 
0 0 0 0 0 0 0 0 0 
0 0 0 0 0 0 0 0 0 
0 0 0 0 0 0 0 0 0 
0 0 0 0 0 0 0 0 0 
0 0 0 0 0 0 0 0 0 
0 0 0 0 0 0 0 0 0 
0 0 0 0 0 0 0 0 0 
0 0 0 0 0 0 0 0 0 
0 0 0 0 0 0 0 0 0 
0 0 0 0 0 0 0 0 0 
0 0 0 0 0 0 0 0 0 
0 0 0 0 0 0 0 0 0 
0 0 0 0 0 0 0 0 0 
0 0 0 0 0 0 0 0 0 
0 0 0 0 0 0 0 0 0 
0 0 0 0 0 0 0 0 0 
0 0 0 0 0 0 0 0 0 
0 0 0 0 0 0 0 0 0 
0 0 0 0 0 0 0 0 0 
0 0 0 0 0 0 0 0 0 
0 0 0 0 0 0 0 0 0 
0 0 0 0 0 0 0 0 0 
0 0 0 0 0 0 0 0 0 
0 0 0 0 0 0 0 0 0 
0 0 0 0 0 0 0 0 0 
0 0 0 0 0 0 0 0 0 
0 0 0 0 0 0 0 0 0 
0 0 0 0 0 0 0 0 0 
0 0 0 0 0 0 0 0 0 
0 0 0 0 0 0 0 0 0 
0 0 0 0 0 0 0 0 0 
0 0 0 0 0 0 0 0 0 
0 0 0 0 0 0 0 0 0 
0 0 0 0 0 0 0 0 0 
0 0 0 0 0 0 0 0 0 
0 0 0 0 0 0 0 0 0 
0 0 0 0 0 0 0 0 0 
0 0 0 0 0 0 0 0 0 
0 0 0 0 0 0 0 0 0 
0 0 0 0 0 0 0 0 0 
0 0 0 0 0 0 0 0 0 
0 0 0 0 0 0 0 0 0 
0 0 0 0 0 0 0 0 0 
0 0 0 0 0 0 0 0 0 
0 0 0 0 0 0 0 0 0 
0 0 0 0 0 0 0 0 0 
0 0 0 0 0 0 0 0 0 
0 0 0 0 0 0 0 0 0 
0 0 0 0 0 0 0 0 0 
0 0 0 0 0 0 0 0 0 
0 0 0 0 0 0 0 0 0 
0 0 0 0 0 0 0 0 0 
0 0 0 0 0 0 0 0 0 
0 0 0 0 0 0 0 0 0 
0 0 0 0 0 0 0 0 0 
0 0 0 0 0 0 0 0 0 
0 0 0 0 0 0 0 0 0 
0 0 0 0 0 0 0 0 0 
0 0 0 0 0 0 0 0 0 
0 0 0 0 0 0 0 0 0 
0 0 0 0 0 0 0 0 0 
0 0 0 0 0 0 0 0 0 
0 0 0 0 0 0 0 0 0 
0 0 0 0 0 0 0 0 0 
0 0 0 0 0 0 0 0 0 
0 0 0 0 0 0 0 0 0 
0 0 0 0 0 0 0 0 0 
0 0 0 0 0 0 0 0 0 
0 0 0 0 0 0 0 0 0 
0 0 0 0 0 0 0 0 0 
0 0 0 0 0 0 0 0 0 
0 0 0 0 0 0 0 0 0 
0 0 0 0 0 0 0 0 0 
0 0 0 0 0 0 0 0 0 
0 0 0 0 0 0 0 0 0 
0 0 0 0 0 0 0 0 0 
0 0 0 0 0 0 0 0 0 
0 0 0 0 0 0 0 0 0 
0 0 0 0 0 0 0 0 0 
0 0 0 0 0 0 0 0 0 
0 0 0 0 0 0 0 0 0 
0 0 0 0 0 0 0 0 0 
0 0 0 0 0 0 0 0 0 
0 0 0 0 0 0 0 0 0 
0 0 0 0 0 0 0 0 0 
0 0 0 0 0 0 0 0 0 
0 0 0 0 0 0 0 0 0 
0 0 0 0 0 0 0 0 0 
0 0 0 0 0 0 0 0 0 
0 0 0 0 0 0 0 0 0 
0 0 0 0 0 0 0 0 0 
0 0 0 0 0 0 0 0 0 
0 0 0 0 0 0 0 0 0 
0 0 0 0 0 0 0 0 0 
0 0 0 0 0 0 0 0 0 
0 0 0 0 0 0 0 0 0 
0 0 0 0 0 0 0 0 0 
0 0 0 0 0 0 0 0 0 
0 0 0 0 0 0 0 0 0 
0 0 0 0 0 0 0 0 0 
0 0 0 0 0 0 0 0 0 
0 0 0 0 0 0 0 0 0 
0 0 0 0 0 0 0 0 0 
0 0 0 0 0 0 0 0 0 
0 0 0 0 0 0 0 0 0 
0 0 0 0 0 0 0 0 0 
0 0 0 0 0 0 0 0 0 
0 0 0 0 0 0 0 0 0 
0 0 0 0 0 0 0 0 0 
0 0 0 0 0 0 0 0 0 
0 0 0 0 0 0 0 0 0 
0 0 0 0 0 0 0 0 0 
0 0 0 0 0 0 0 0 0 
0 0 0 0 0 0 0 0 0 
0 0 0 0 0 0 0 0 0 
0 0 0 0 0 0 0 0 0 
0 0 0 
v 3 409 double
-1.19635 0.0419845 -0.469489 -1.36355 0.177566 -0.493632 -1.19456 -0.0132185 -0.508804 
-1.44119 -0.0929744 -0.51861 -1.10036 -0.0586011 -0.452495 -1.02873 0.0471918 -0.428013 
-1.08389 -0.0710837 -0.439103 -1.06231 -0.0437143 -0.433663 -1.08748 -0.116232 -0.450499 
-1.07412 -0.143264 -0.461077 -0.848994 -0.0323388 -0.339501 -0.823618 -0.0929222 -0.256941 
-1.00072 0.0390528 -0.40886 -1.14722 0.208605 -0.303482 -0.963606 0.0861111 -0.398199 
-0.957123 0.0820056 -0.395193 -0.985013 0.0843858 -0.413632 -0.858245 0.151317 -0.380882 
-0.852383 -0.0324496 -0.350738 -0.839905 0.041131 -0.434778 -1.00592 0.104034 -0.403522 
-1.01711 0.091704 -0.41748 -1.04967 -0.144774 -0.451781 -1.00824 -0.0175847 -0.408034 
-1.14607 -0.300319 -0.68592 -0.882024 -0.172828 -0.343391 -0.867108 0.0698599 -0.374011 
-1.03811 0.115932 -0.407313 -0.966426 -0.209562 -0.318993 -0.881202 0.0012113 -0.376319 
-0.709072 -0.0112847 -0.293834 -0.686908 -0.041253 -0.292935 -0.737735 -0.0190127 -0.323901 
-0.64444 -0.0165194 -0.266385 -0.838638 -0.143053 -0.363702 -0.828172 -0.0238768 -0.349465 
-0.75445 -0.0106584 -0.319539 -0.868604 0.0413047 -0.363418 -0.870649 -0.0266519 -0.378769 
-0.735962 0.0699749 -0.32178 -0.931542 -0.0175625 -0.192772 -0.762003 -0.0869459 -0.315961 
-0.840707 -0.0184626 -0.356292 -0.870023 0.0599486 -0.38299 -0.83138 -0.171132 -0.309153 
-0.841371 0.12428 -0.369288 -0.722822 -0.00513671 -0.301235 -0.720549 0.078963 -0.308638 
-0.585343 -0.0617925 -0.245365 -0.525376 0.0789733 -0.222568 -0.991688 0.119971 -0.431002 
-0.86445 0.0619968 -0.372813 -0.783749 0.12419 -0.278533 -0.883482 -0.256546 -0.647803 
-0.62717 -0.0524364 -0.285663 -0.73053 -0.145572 -0.281505 -0.746247 -0.157567 -0.450713 
-0.723162 -0.121258 -0.303259 -0.82626 -0.0014312 -0.293291 -0.682059 -0.074218 -0.280796 
-0.770698 -0.0222346 -0.115011 -0.873723 -0.0121921 -0.216417 -0.628807 0.0691996 -0.271365 
-0.646813 -0.0892967 -0.213057 -0.546729 -0.0185445 -0.180073 -0.710235 -0.00935831 -0.253881 
-0.784738 0.0574838 -0.216884 -0.800806 -0.00707236 -0.496808 -0.789428 -0.073723 -0.339107 
-0.841796 -0.0462998 -0.358351 -0.903157 0.171112 -0.20888 -0.778672 0.0230377 -0.306503 
-0.872785 -0.0964808 -0.938923 -0.643246 -0.0896406 -0.267221 -0.672822 -0.0851344 -0.296986 
-0.693349 -0.178689 -0.64615 -0.487684 0.125871 -0.0764855 -0.727677 -0.12041 -0.239988 
-0.45107 -0.113629 -0.193604 -0.662056 0.016823 -0.275145 -0.741002 -0.0239359 -0.311388 
-0.627245 0.107832 -0.233318 -1.10497 -0.064773 -0.166606 -0.739802 -0.132819 -0.26546 
-0.857761 -0.280091 -0.565007 -0.609819 -0.0455694 -0.22413 -0.623583 -0.0378377 -0.258106 
-0.582902 0.0223872 -0.249268 -0.752276 -0.129847 -0.223067 -0.756218 -0.147247 -0.243826 
-0.590587 0.0552952 -0.253713 -1.01076 -0.0855548 -0.422422 -1.11248 0.348977 -0.218115 
-0.735477 -0.106708 -0.246983 -0.646016 0.0852642 -0.228361 -0.538745 0.0171115 -0.218078 
-0.937314 -0.284757 -0.253059 -0.655412 -0.232343 -0.419929 -0.603343 0.0643372 -0.261246 
-0.722209 0.118165 -0.27795 -0.706383 0.22085 -0.776713 -0.704986 0.132826 -0.900458 
-0.626374 0.169964 -0.541646 -0.633379 0.0438741 -0.266458 -0.638955 0.088108 -0.26025 
-0.74793 -0.139711 -0.324922 -0.529799 0.0974331 -0.267272 -0.696402 0.101002 -0.353974 
-0.577058 0.102383 -0.227351 -0.516537 0.051503 -0.205826 -0.765991 0.125959 -0.366061 
-0.721893 -0.0235611 -0.274251 -0.41673 -0.104875 -0.152473 -0.977042 -0.131319 -0.49099 
-0.550487 -0.137751 -0.217855 -0.700387 -0.198433 -0.212752 -0.680936 0.0189413 -0.29006 
-0.760931 -0.112204 -0.336348 -0.769074 -0.00971168 -0.374599 -0.536922 0.0508394 -0.214488 
-0.590017 0.0141754 -0.239643 -0.621089 -0.0733368 -0.238388 -0.525131 -0.0587659 -0.214521 
-1.17065 0.232957 -0.905986 -0.579225 0.013583 -0.243992 -0.72262 0.313334 -0.697489 
-0.590156 0.0283882 -0.572487 -0.457139 0.0628747 -0.22004 -0.642714 0.0443177 -0.619802 
-0.466742 0.0332529 -0.18775 -0.560164 0.152947 -0.401022 -0.56098 -0.00376503 -0.237316 
-0.584544 0.205123 -0.17275 -0.942417 0.341784 -0.222066 -0.699382 -0.103136 -0.238707 
-0.625064 0.0617658 -0.24198 -0.526843 0.0346441 -0.241607 -0.553106 0.118576 -0.266256 
-0.596796 0.0600787 -0.253701 -0.450009 0.0593705 -0.193205 -0.725063 0.300451 -0.669219 
-0.526798 0.0720163 -0.288576 -0.732381 -0.00708146 -0.509341 -0.413444 0.389063 -0.179501 
-0.526559 -0.208042 -0.226771 -0.550623 0.0347742 -0.242866 -0.588376 -0.0946161 -0.22766 
-0.60561 0.0559572 -0.249905 -0.388332 0.144177 -0.136163 -0.386408 0.116693 -0.149858 
-0.500062 0.0465931 -0.214669 -0.600709 0.0522677 -0.315557 -0.570446 0.052918 -0.242216 
-1.03786 0.163607 -0.711379 -0.388448 0.0818379 -0.166037 -0.726073 0.299308 -0.602637 
-0.672254 0.206403 -0.224792 -0.449996 -0.385328 -0.220878 -0.624505 -0.277907 -0.664611 
-0.404316 -0.167399 -0.410253 -0.414576 -0.0360073 -0.180156 -0.391693 -0.0358436 -0.159346 
-0.440418 -0.0430126 -0.471583 -0.418198 0.239209 -0.133449 -0.559196 0.286347 -0.356432 
-0.593009 0.03831 -0.212727 -0.62473 0.0265329 -0.234115 -0.451538 0.151336 -0.204588 
-0.928181 -0.0313183 -0.448306 -0.732511 -0.171083 -0.650543 -0.577641 0.078875 -0.668231 
-0.488637 -0.100513 -0.204748 -0.710462 -0.310613 -0.485454 -0.608048 0.0795923 -0.291996 
-0.604595 0.048849 -0.429038 -0.446013 -0.109433 -0.200393 -0.851734 0.267758 -0.532311 
-0.390773 -0.161226 -0.0616763 -0.454917 -0.136475 -0.141478 -0.457427 -0.149193 -0.171524 
-0.731457 0.190931 -0.339147 -0.43323 0.246769 -0.11737 0.394746 0.310454 -0.872677 
-0.733933 0.0482192 0.15535 -0.556812 -0.0438252 -0.151578 -0.489268 0.111509 -0.0816596 
-0.742535 0.0369308 -0.290678 -0.439141 0.193888 -0.174819 -0.72732 0.328447 -0.308471 
-0.434028 -0.0397048 -0.155681 -0.724733 -0.302357 -0.442222 -0.617984 0.0257479 -0.123363 
-0.820137 -0.0914099 -0.49428 -0.441028 -0.0774749 -0.22366 -0.522558 -0.0158843 -0.173043 
-0.744803 -0.208824 -0.281996 -0.664046 -0.0666737 -0.360788 -0.551107 -0.370472 -0.120796 
-0.595584 0.0824585 0.0771225 -0.355535 0.145763 -0.144898 -0.245324 0.0975817 0.12278 
-0.672708 -0.0482748 -0.0543733 -0.603945 -0.0678106 -0.25178 -0.267006 1.05596 -1.49137 
-0.581858 0.426342 -0.502746 -0.233539 -0.0779127 0.0360288 -0.0361674 0.193696 -0.0159359 
-0.660447 0.0632922 -0.592082 -0.447168 -0.158032 -0.110987 -0.472978 0.202356 0.00914101 
-0.244543 0.100565 -0.0222948 -0.0787388 0.113126 -0.133082 -0.672146 -0.113176 -0.519305 
-0.264478 0.210713 -0.574306 -0.726719 -0.324071 -0.301714 -0.94234 -0.225747 -0.175571 
-0.594493 -0.0272637 -0.326554 -0.931082 0.0295488 -0.341845 -0.533835 0.0693321 -0.209791 
-0.333699 -0.362904 -0.428042 -0.260466 0.18741 0.450542 -0.584036 -0.210607 -0.105323 
-0.32931 -0.00466221 -0.137424 -0.701033 0.460919 -0.327761 -0.518626 -0.417711 -0.212529 
-0.609606 -0.358415 -0.00285649 -0.714004 -0.326823 -0.511386 -0.421928 -0.0611178 -0.561183 
-0.60142 0.0879898 -0.129652 -0.534002 -0.0649666 -0.26987 -0.851149 -0.2373 -0.328965 
-0.619408 -0.135905 0.0248616 -0.740524 -0.16081 -0.296922 -0.606505 0.0608265 -0.116222 
-0.229165 0.13387 -0.0561047 -0.700428 0.28818 -0.2362 -0.521481 0.151767 0.174186 
-0.325836 0.0236352 0.0360665 -0.524273 -0.0470734 -0.34878 -0.160811 -0.109741 0.195089 
-0.672094 -0.0128699 -0.126965 -0.318795 -0.318751 -0.536805 -0.17574 -0.124675 -0.416178 
-0.620745 -0.283726 -0.132009 -0.330076 -0.369583 -0.191766 -0.68265 -0.192351 0.111326 
-0.834829 -0.248176 0.0730421 -0.563919 0.433849 -0.199231 -0.697512 -0.327364 -0.121555 
-0.506983 -0.178689 -0.114195 -0.718261 0.263689 -0.0441349 -0.717554 0.263429 -0.171006 
0.018732 0.396407 -0.997697 -0.293824 0.0713339 0.201748 -0.719415 -0.0267257 -0.3215 
-0.717713 -0.0266624 -0.233904 -0.361909 0.0681155 0.102232 -0.290641 0.0538667 0.044187 
-0.167112 0.12756 -0.0417265 -0.514362 -0.603559 -1.05111 -0.413959 0.136242 -1.3693 
-0.129747 -0.422795 -0.263952 -0.148989 -0.414228 -1.50669 -0.616586 -0.519353 -1.48426 
-0.195739 0.122721 -0.00179049 -0.279055 0.117285 -0.741431 -0.631194 -0.294097 0.177835 
-0.66073 -0.00345286 -0.792651 0 0 -2.03854 0 0 -2.02284 
-0.414665 -0.257908 0.0848436 -0.688264 -0.206077 -1.06286 0 0 -2.01313 
-0.197943 0.277514 -0.877265 0 0 -1.9938 0 0 -2.004 
0 0 -1.98998 0 0 -1.989 0 0 -1.98615 
0 0 -1.98537 0 0 -1.95957 0 0 -1.93808 
0 0 -1.93622 0 0 -1.92445 0 0 -1.92386 
0 0 -1.9164 0 0 -1.91777 0 0 -1.9111 
0 0 -1.90384 0 0 -1.89698 0 0 -1.89423 
0 0 -1.87157 0 0 -1.87461 0 0 -1.83733 
0 0 -1.84547 0 0 -1.84391 0 0 -1.8337 
0 0 -1.8285 0 0 -1.82546 0 0 -1.80722 
0 0 -1.81232 0 0 -1.78102 0 0 -1.79525 
0 0 -1.79113 0 0 -1.77631 0 0 -1.74394 
0 0 -1.74375 0 0 -1.746 0 0 -1.71638 
0 0 -1.72432 0 0 -1.71853 0 0 -1.69715 
0 0 -1.70941 0 0 -1.69313 0 0 -1.67409 
0 0 -1.67017 0 0 -1.67282 0 0 -1.67046 
0 0 -1.65938 0 0 -1.63711 0 0 -1.64584 
0 0 -1.61268 0 0 -1.60847 0 0 -1.61994 
0 0 -1.62838 0 0 -1.58482 0 0 -1.59679 