# vtk DataFile Version 4.0
Generated by LIGGGHTS
ASCII
DATASET POLYDATA
POINTS 332 float
-0.168754 -0.0330741 -0.171902 -0.149494 0.02301 -0.167346 -0.142078 -0.00244838 -0.164882 
-0.192592 0.0725874 -0.165051 -0.135814 -0.00205413 -0.161825 -0.127656 -0.00163179 -0.159885 
-0.121343 -0.00761898 -0.15652 -0.128166 -0.00609578 -0.158929 -0.126337 -0.00304799 -0.156952 
-0.124423 0.00730299 -0.158242 -0.135834 0.0384279 -0.158415 -0.115042 -0.00932105 -0.153165 
-0.12249 0.00353755 -0.156954 -0.114283 0.00160962 -0.15364 -0.114878 0.00452337 -0.153121 
-0.120388 0.00742168 -0.155499 -0.123416 0.0229785 -0.156338 -0.112981 -0.0233308 -0.150859 
-0.110593 -0.00278067 -0.151566 -0.105106 0.00204831 -0.149576 -0.103252 -0.0255116 -0.146916 
-0.100299 -0.00966793 -0.146891 -0.106058 -0.00486121 -0.147162 -0.0993309 -0.00528792 -0.147865 
-0.103976 0.00897431 -0.14853 -0.0976099 0.0207485 -0.145887 -0.104785 0.0267319 -0.147958 
-0.110645 -0.036726 -0.14468 -0.0906796 -0.0179444 -0.142194 -0.0946874 -0.0154217 -0.144215 
-0.0872051 -0.0153847 -0.142154 -0.109707 -0.00342548 -0.145424 -0.0965373 0.0072445 -0.145552 
-0.0923292 0.00996578 -0.143562 -0.0870336 0.00805921 -0.142587 -0.0955474 0.0148458 -0.14554 
-0.0872036 -0.0198065 -0.141581 -0.0835124 -0.0174007 -0.13928 -0.0894466 -0.00881884 -0.140805 
-0.0982843 0.000197047 -0.144068 -0.101656 0.00218897 -0.140773 -0.0866544 0.00384768 -0.141246 
-0.0827012 0.00615211 -0.138751 -0.0797746 0.00986364 -0.138975 -0.0886397 0.0119112 -0.141961 
-0.0877379 0.0160062 -0.141132 -0.0808883 0.0137841 -0.138427 -0.105305 0.058631 -0.139287 
-0.129655 -0.0798983 -0.137559 -0.0873757 -0.0323258 -0.138141 -0.0775568 -0.0149321 -0.137886 
-0.0749947 -0.0133416 -0.137142 -0.0696375 -0.0126233 -0.134938 -0.083878 -0.00935861 -0.13726 
-0.07733 -0.00914331 -0.137904 -0.0757314 0.00327641 -0.137886 -0.0862588 0.00954082 -0.137331 
-0.0729962 0.00764017 -0.136529 -0.0715367 -0.00632191 -0.135261 -0.0660683 -0.00639426 -0.133731 
-0.0660402 0.00309265 -0.13272 -0.0994476 0.00697553 -0.133937 -0.0802207 0.00685937 -0.134278 
-0.069997 0.0165496 -0.133593 -0.0652824 0.0153758 -0.131688 -0.0686366 0.0216041 -0.132553 
-0.0702173 -0.0314962 -0.131371 -0.0597329 -0.0282242 -0.128852 -0.0718478 -0.0212406 -0.131923 
-0.0553336 -0.0187931 -0.128217 -0.0611375 -0.015172 -0.128722 -0.0577637 -0.0171856 -0.129522 
-0.0574299 -0.0132925 -0.128686 -0.059816 -0.00599298 -0.130026 -0.089168 0.00434588 -0.13077 
-0.0708469 0.0284412 -0.129408 -0.0673403 0.0352728 -0.130832 -0.0515796 -0.0156239 -0.126913 
-0.0519706 -0.00467276 -0.127583 -0.0494514 -0.0062281 -0.125077 -0.0761456 -0.00190789 -0.128355 
-0.0482767 -0.000774343 -0.125298 -0.0710309 0.00161574 -0.125506 -0.0475657 0.00741957 -0.125806 
-0.0567071 0.0178087 -0.124039 -0.0490683 0.0173166 -0.124823 -0.0459722 0.0198796 -0.124319 
-0.053894 0.0240247 -0.127103 -0.0608992 0.0277565 -0.12843 -0.0505091 -0.0126325 -0.121312 
-0.0805713 -0.0075591 -0.124713 -0.0382116 0.00518933 -0.120952 -0.0753351 0.00856413 -0.125775 
-0.0722165 0.013358 -0.122195 -0.0432976 0.0116323 -0.123703 -0.0436076 0.0174337 -0.123574 
-0.0388954 0.0181607 -0.121535 -0.0449826 0.0202125 -0.121353 -0.0452794 0.0280354 -0.122948 
-0.0507276 0.0325985 -0.122884 -0.0525608 -0.0589197 -0.117648 -0.0400994 -0.0227625 -0.116131 
-0.038714 -0.0146522 -0.120535 -0.0778698 -0.010047 -0.119773 -0.058617 -0.01132 -0.119674 
-0.0533141 -0.00941911 -0.119913 -0.0355718 -0.00905522 -0.118982 -0.0557215 -0.00559779 -0.118915 
-0.0456371 -0.00568283 -0.121114 -0.0575216 -0.00260531 -0.118063 -0.0282557 -0.00506857 -0.116495 
-0.0338368 6.41129e-05 -0.119101 -0.0371337 0.0093185 -0.119919 -0.0625636 0.0125752 -0.120831 
-0.042843 0.0125605 -0.11703 -0.037475 0.0157028 -0.11997 -0.0356549 0.016729 -0.117803 
-0.0366979 0.026191 -0.117189 -0.0456267 0.0303165 -0.119657 -0.0420592 0.0395578 -0.119391 
-0.0668749 0.0441261 -0.117303 -0.04907 -0.0233985 -0.114019 -0.0250017 -0.0270832 -0.113801 
-0.0403504 -0.0200142 -0.115173 -0.0344871 -0.0190788 -0.116771 -0.0315192 -0.0195346 -0.115771 
-0.0320065 -0.012958 -0.117915 -0.0253211 -0.0127761 -0.116179 -0.0361091 -0.0101231 -0.113744 
-0.0306163 -0.00898068 -0.115895 -0.0387983 -0.00363768 -0.114239 -0.0238255 -0.000540959 -0.114101 
-0.0283369 0.00724455 -0.114984 -0.0310009 0.010258 -0.115963 -0.0274599 0.0111749 -0.115502 
-0.0210349 0.0102889 -0.113835 -0.0262455 0.0140319 -0.116545 -0.0583945 0.0174555 -0.112607 
-0.0245215 0.0161096 -0.113935 -0.0425433 -0.0479435 -0.112337 -0.0349913 -0.0249064 -0.118141 
-0.0618185 -0.0207781 -0.114483 -0.0560466 -0.0205347 -0.111791 -0.0389307 -0.0211764 -0.111118 
-0.0240857 -0.0219549 -0.112196 -0.0569148 -0.0133842 -0.111088 -0.0356325 -0.0136362 -0.111182 
-0.019855 -0.0161437 -0.113213 -0.0596957 -0.0104277 -0.11262 -0.0221092 -0.0127482 -0.114509 
-0.0191318 -0.00778397 -0.112407 -0.0626883 -0.00539128 -0.113548 -0.0429376 -0.0044927 -0.112089 
-0.0526259 0.00814952 -0.111351 -0.0596144 0.00982025 -0.113148 -0.049091 0.0118283 -0.111036 
-0.0265398 0.0196389 -0.112252 -0.0354779 0.0283887 -0.111458 -0.0223986 0.0322535 -0.111565 
-0.0287015 -0.0436018 -0.10911 -0.0136252 -0.0275751 -0.106961 -0.0464439 -0.0236909 -0.109328 
-0.0308978 -0.0248124 -0.107896 -0.0355126 -0.0161883 -0.107618 -0.0300134 -0.0141729 -0.105495 
-0.0540839 -0.0126009 -0.109684 -0.0328398 -0.0115483 -0.107939 -0.0493235 0.00576043 -0.108402 
-0.0322689 0.00363086 -0.116752 -0.043316 0.0197654 -0.107118 -0.0226987 0.019022 -0.105222 
-0.0172883 0.0260695 -0.109203 -0.013414 0.032607 -0.108582 -0.0218065 -0.0254149 -0.107947 
-0.0183132 -0.0104185 -0.104185 -0.023775 -0.00197553 -0.102345 -0.0454129 0.00215971 -0.104693 
-0.0245343 0.00183182 -0.103629 -0.0257406 0.0115182 -0.103667 -0.00504227 0.0175867 -0.103529 
-0.0101874 0.0210889 -0.103385 -0.0092495 0.0277837 -0.102571 -0.0427653 -0.0242159 -0.101026 
-0.0157288 -0.0154721 -0.102788 -0.0106048 -0.0133163 -0.107714 -0.0229635 -0.00667456 -0.101047 
-0.0330791 -0.00130471 -0.108192 -0.0298988 0.0182926 -0.107065 -0.00931519 -0.0722701 -0.0952591 
-0.0173269 -0.00522829 -0.106555 -0.00264988 0.00425434 -0.105793 -0.0121862 -0.0184905 -0.101006 
-0.0200556 -0.0144606 -0.101941 -0.0326428 0.0349629 -0.101739 -0.00329635 0.0348276 -0.101647 
-0.014731 -0.0256121 -0.0988421 -0.0306718 0.00167617 -0.0965733 -0.0127903 0.0167345 -0.0969457 
-0.0237709 0.00172744 -0.0942204 -0.0159198 0.0243576 -0.0947074 -0.0201644 -0.0127686 -0.0904341 
-0.0342709 -0.0266248 -0.0859137 -0.00148336 0.00567101 -0.0875404 -0.00546888 0.0136012 -0.0878848 
-0.0118483 -0.0331947 -0.0838665 -0.0241178 0.0300767 -0.0834338 -0.0341415 -0.0150214 -0.0810456 
-0.0308689 0.0273623 -0.0785543 -0.0126988 -0.00665925 -0.0775586 -0.0148951 0.0311963 -0.0774857 
-0.0142921 -0.0256298 -0.0725994 -0.0168405 0.0156428 -0.0675244 -0.00573913 0.0284222 -0.0704504 
-0.0275287 0.0316192 -0.0695111 -0.0141421 -0.0289115 -0.0647202 -0.00525173 -0.0253791 -0.0665061 
-0.0116971 -0.00845001 -0.066253 -0.000147874 0.0325969 -0.0660046 -0.0256746 -0.0217519 -0.060381 
-0.0198385 0.0337207 -0.0621915 -0.0186146 -0.0271402 -0.0574437 -0.0104339 -0.0112253 -0.0594741 
-0.0125397 0.000705716 -0.0560894 -0.0136619 -0.00711923 -0.0520445 -0.0334121 0.00368684 -0.0521169 
-0.0245223 0.0145985 -0.0501297 -0.00133775 -0.0346143 -0.0466495 -0.0215223 -0.00790873 -0.0485939 
-0.0147394 0.0154412 -0.0485086 -0.0123255 0.0311922 -0.0487841 -0.00913613 -0.0312941 -0.0445711 
-0.00523715 -0.00647974 -0.0455633 -0.0114835 0.00360093 -0.0454631 -0.0228461 0.00943572 -0.0397574 
-0.0276781 -0.0206777 -0.0373929 -0.011765 0.00818954 -0.036458 -0.00736955 0.00915874 -0.0364727 
-0.00778825 0.00202854 -0.0315432 -0.00624641 0.0129916 -0.0320211 -0.004822 0.0167274 -0.0345564 
-0.0230186 0.023228 -0.0319634 -0.0110222 0.021925 -0.0343111 -0.000908632 -0.0201376 -0.029049 
-0.03335 -0.0101411 -0.0308314 -0.0202693 -0.00943017 -0.0281881 -0.0140583 -0.00457604 -0.0306192 
-0.0183381 0.00273344 -0.0286558 -0.0288682 0.0130299 -0.0314859 -0.0132609 0.017575 -0.0243661 
-0.0270427 -0.0136491 -0.0212808 -0.00508252 -0.0028679 -0.0234761 -0.0290573 0.0260911 -0.0228387 
-0.0312596 -0.0282318 -0.0172989 -0.00133703 -0.00658453 -0.0184221 -0.0309119 -0.0207084 -0.01416 
-0.00273627 0.0326024 -0.0160283 -0.0252685 -0.0119457 -0.010403 -0.0084722 -0.00462009 -0.0134973 
-0.0209658 0.00969496 -0.0105886 -0.0272645 0.0231035 -0.0106489 -0.0152744 0.0211746 -0.0121202 
-0.0244054 0.0234551 -0.00652885 -0.00730513 0.0257586 -0.00662964 -0.0181876 -0.028381 -0.00280271 
-0.0342247 -0.0119118 -0.00567795 -0.0304536 -0.0123493 -0.00328948 -0.0309256 0.00918438 -0.00423539 
-0.00968967 -0.00588877 0.000133884 -0.0349344 -0.00127292 -0.000464762 -0.000691472 0.0332631 -0.00162658 
-0.0158837 -0.0171309 0.00333441 -0.00413281 -0.00792779 0.00444469 -0.0231605 0.0109416 0.00315422 
-0.0340111 0.0266228 0.001783 -0.0109595 0.0300204 0.00384073 -0.0171117 -0.02331 0.00692717 
-0.0203439 -0.0193455 0.00587011 -0.0306741 -0.0048619 0.00640534 -0.0265082 0.034934 0.00703865 
-0.00757771 0.0326856 0.00653546 -0.014458 -0.0138423 0.0105779 -0.0196571 -0.0325483 0.0152803 
-0.0165238 0.0194762 0.0134701 -0.0196325 0.0295097 0.0137223 -0.0170652 -0.0214262 0.015354 
-0.0108823 -0.0240914 0.0170351 -0.0208036 0.00162734 0.0163387 -0.0255762 0.00585265 0.0179815 
-0.0124469 0.0108555 0.0188766 -0.0279163 0.0200822 0.0161571 -0.00434932 -0.0129336 0.0221294 
-0.0095853 0.0256603 0.0192237 -0.00343388 0.0316676 0.0217415 -0.0241229 -0.00156433 0.0253989 
-0.0148123 0.0147393 0.0255955 -0.0101895 -0.0254463 0.0268577 -0.00344499 -0.0220199 0.0264079 
-0.00418171 -0.00447311 0.0274894 -0.00876558 -0.00149609 0.0278673 -0.00296015 0.00664907 0.0294594 
-0.0341543 -0.0265255 0.033189 -0.0256427 -0.020268 0.0315029 -0.0252225 -0.00395457 0.0319932 
-0.0242978 0.00020127 0.0300749 -0.00626215 -0.00726355 0.0337432 -0.0120408 -0.0289279 0.0405728 
-0.0303622 -0.0214325 0.0396948 -0.00981587 -0.0226708 0.0374781 -0.0188893 -0.0164448 0.0374972 
-0.0118162 -0.0172965 0.0372475 -0.0224693 0.00786627 0.0403341 -0.0184752 -0.0330418 0.0431287 
-0.0141191 -0.0138017 0.0426915 -0.0288367 0.021507 0.0413506 -0.027048 -0.0348853 0.0455922 
-0.0107355 -0.0111371 0.0453116 -0.0208274 -0.00751444 0.0455671 -0.0250889 0.00553727 0.0451793 
-0.0200267 0.00732997 0.0467342 -0.0120659 -0.000928847 0.0490519 -0.00974267 0.00154746 0.0481485 
-0.0344795 0.0306845 0.0508054 -0.00482279 0.0319284 0.0499463 -0.0292124 -0.00857811 0.0543863 
-0.0259008 0.01415 0.0531662 -0.00304149 0.01634 0.0515411 -0.0145727 0.0196597 0.0519733 
-0.0318304 -0.0270523 0.0583181 -0.00515441 0.000607433 0.0570321 -0.0310028 0.00427373 0.0557508 
-0.0138022 0.0201409 0.055157 -0.026015 0.0234799 0.0550927 
VERTICES 332 664
1 0 
1 1 
1 2 
1 3 
1 4 
1 5 
1 6 
1 7 
1 8 
1 9 
1 10 
1 11 
1 12 
1 13 
1 14 
1 15 
1 16 
1 17 
1 18 
1 19 
1 20 
1 21 
1 22 
1 23 
1 24 
1 25 
1 26 
1 27 
1 28 
1 29 
1 30 
1 31 
1 32 
1 33 
1 34 
1 35 
1 36 
1 37 
1 38 
1 39 
1 40 
1 41 
1 42 
1 43 
1 44 
1 45 
1 46 
1 47 
1 48 
1 49 
1 50 
1 51 
1 52 
1 53 
1 54 
1 55 
1 56 
1 57 
1 58 
1 59 
1 60 
1 61 
1 62 
1 63 
1 64 
1 65 
1 66 
1 67 
1 68 
1 69 
1 70 
1 71 
1 72 
1 73 
1 74 
1 75 
1 76 
1 77 
1 78 
1 79 
1 80 
1 81 
1 82 
1 83 
1 84 
1 85 
1 86 
1 87 
1 88 
1 89 
1 90 
1 91 
1 92 
1 93 
1 94 
1 95 
1 96 
1 97 
1 98 
1 99 
1 100 
1 101 
1 102 
1 103 
1 104 
1 105 
1 106 
1 107 
1 108 
1 109 
1 110 
1 111 
1 112 
1 113 
1 114 
1 115 
1 116 
1 117 
1 118 
1 119 
1 120 
1 121 
1 122 
1 123 
1 124 
1 125 
1 126 
1 127 
1 128 
1 129 
1 130 
1 131 
1 132 
1 133 
1 134 
1 135 
1 136 
1 137 
1 138 
1 139 
1 140 
1 141 
1 142 
1 143 
1 144 
1 145 
1 146 
1 147 
1 148 
1 149 
1 150 
1 151 
1 152 
1 153 
1 154 
1 155 
1 156 
1 157 
1 158 
1 159 
1 160 
1 161 
1 162 
1 163 
1 164 
1 165 
1 166 
1 167 
1 168 
1 169 
1 170 
1 171 
1 172 
1 173 
1 174 
1 175 
1 176 
1 177 
1 178 
1 179 
1 180 
1 181 
1 182 
1 183 
1 184 
1 185 
1 186 
1 187 
1 188 
1 189 
1 190 
1 191 
1 192 
1 193 
1 194 
1 195 
1 196 
1 197 
1 198 
1 199 
1 200 
1 201 
1 202 
1 203 
1 204 
1 205 
1 206 
1 207 
1 208 
1 209 
1 210 
1 211 
1 212 
1 213 
1 214 
1 215 
1 216 
1 217 
1 218 
1 219 
1 220 
1 221 
1 222 
1 223 
1 224 
1 225 
1 226 
1 227 
1 228 
1 229 
1 230 
1 231 
1 232 
1 233 
1 234 
1 235 
1 236 
1 237 
1 238 
1 239 
1 240 
1 241 
1 242 
1 243 
1 244 
1 245 
1 246 
1 247 
1 248 
1 249 
1 250 
1 251 
1 252 
1 253 
1 254 
1 255 
1 256 
1 257 
1 258 
1 259 
1 260 
1 261 
1 262 
1 263 
1 264 
1 265 
1 266 
1 267 
1 268 
1 269 
1 270 
1 271 
1 272 
1 273 
1 274 
1 275 
1 276 
1 277 
1 278 
1 279 
1 280 
1 281 
1 282 
1 283 
1 284 
1 285 
1 286 
1 287 
1 288 
1 289 
1 290 
1 291 
1 292 
1 293 
1 294 
1 295 
1 296 
1 297 
1 298 
1 299 
1 300 
1 301 
1 302 
1 303 
1 304 
1 305 
1 306 
1 307 
1 308 
1 309 
1 310 
1 311 
1 312 
1 313 
1 314 
1 315 
1 316 
1 317 
1 318 
1 319 
1 320 
1 321 
1 322 
1 323 
1 324 
1 325 
1 326 
1 327 
1 328 
1 329 
1 330 
1 331 

POINT_DATA 332
FIELD FieldData 7
id 1 332 int
35 32 16 22 10 6 12 2 7 
11 20 30 19 23 25 1 44 3 
4 38 33 28 89 8 29 21 57 
13 40 5 37 14 61 42 31 56 
45 52 27 36 47 15 39 48 102 
66 41 60 51 54 46 110 18 59 
85 58 55 74 50 112 67 69 80 
17 65 94 93 63 87 70 24 95 
26 43 73 88 34 75 82 162 78 
118 53 153 126 106 83 114 84 76 
77 105 71 91 163 99 64 151 49 
81 135 174 79 100 98 68 168 121 
141 133 149 173 159 86 119 127 138 
179 122 139 117 160 134 171 140 166 
129 123 143 136 155 169 116 72 124 
96 175 147 161 97 190 62 125 164 
167 120 150 189 101 172 128 113 108 
131 92 107 154 178 158 109 185 145 
132 115 137 111 144 104 180 130 156 
182 90 188 157 146 103 152 148 191 
170 177 176 165 181 142 186 184 9 
192 187 200 183 198 199 203 195 204 
194 193 196 202 197 201 209 212 210 
205 217 207 214 206 208 213 222 215 
216 211 225 229 227 223 226 218 230 
228 221 224 220 219 234 237 240 242 
236 235 238 247 233 239 241 231 249 
250 255 232 245 252 244 251 248 254 
243 246 265 253 267 259 261 264 262 
256 268 258 260 263 266 272 276 257 
274 281 279 269 275 273 270 280 277 
278 271 290 293 294 284 287 288 282 
283 289 291 292 286 302 285 296 300 
303 301 297 295 305 306 299 304 311 
313 298 312 315 314 308 310 317 307 
316 318 309 319 327 331 322 329 330 
320 326 325 324 323 332 328 321 
type 1 332 int
1 1 1 1 1 1 1 1 1 
1 1 1 1 1 1 1 1 1 
1 1 1 1 1 1 1 1 1 
1 1 1 1 1 1 1 1 1 
1 1 1 1 1 1 1 1 1 
1 1 1 1 1 1 1 1 1 
1 1 1 1 1 1 1 1 1 
1 1 1 1 1 1 1 1 1 
1 1 1 1 1 1 1 1 1 
1 1 1 1 1 1 1 1 1 
1 1 1 1 1 1 1 1 1 
1 1 1 1 1 1 1 1 1 
1 1 1 1 1 1 1 1 1 
1 1 1 1 1 1 1 1 1 
1 1 1 1 1 1 1 1 1 
1 1 1 1 1 1 1 1 1 
1 1 1 1 1 1 1 1 1 
1 1 1 1 1 1 1 1 1 
1 1 1 1 1 1 1 1 1 
1 1 1 1 1 1 1 1 1 
1 1 1 1 1 1 1 1 1 
1 1 1 1 1 1 1 1 1 
1 1 1 1 1 1 1 1 1 
1 1 1 1 1 1 1 1 1 
1 1 1 1 1 1 1 1 1 
1 1 1 1 1 1 1 1 1 
1 1 1 1 1 1 1 1 1 
1 1 1 1 1 1 1 1 1 
1 1 1 1 1 1 1 1 1 
1 1 1 1 1 1 1 1 1 
1 1 1 1 1 1 1 1 1 
1 1 1 1 1 1 1 1 1 
1 1 1 1 1 1 1 1 1 
1 1 1 1 1 1 1 1 1 
1 1 1 1 1 1 1 1 1 
1 1 1 1 1 1 1 1 1 
1 1 1 1 1 1 1 1 
i 3 332 int
0 0 0 0 0 0 0 0 0 
0 0 0 0 0 0 0 0 0 
0 0 0 0 0 0 0 0 0 
0 0 0 0 0 0 0 0 0 
0 0 0 0 0 0 0 0 0 
0 0 0 0 0 0 0 0 0 
0 0 0 0 0 0 0 0 0 
0 0 0 0 0 0 0 0 0 
0 0 0 0 0 0 0 0 0 
0 0 0 0 0 0 0 0 0 
0 0 0 0 0 0 0 0 0 
0 0 0 0 0 0 0 0 0 
0 0 0 0 0 0 0 0 0 
0 0 0 0 0 0 0 0 0 
0 0 0 0 0 0 0 0 0 
0 0 0 0 0 0 0 0 0 
0 0 0 0 0 0 0 0 0 
0 0 0 0 0 0 0 0 0 
0 0 0 0 0 0 0 0 0 
0 0 0 0 0 0 0 0 0 
0 0 0 0 0 0 0 0 0 
0 0 0 0 0 0 0 0 0 
0 0 0 0 0 0 0 0 0 
0 0 0 0 0 0 0 0 0 
0 0 0 0 0 0 0 0 0 
0 0 0 0 0 0 0 0 0 
0 0 0 0 0 0 0 0 0 
0 0 0 0 0 0 0 0 0 
0 0 0 0 0 0 0 0 0 
0 0 0 0 0 0 0 0 0 
0 0 0 0 0 0 0 0 0 
0 0 0 0 0 0 0 0 0 
0 0 0 0 0 0 0 0 0 
0 0 0 0 0 0 0 0 0 
0 0 0 0 0 0 0 0 0 
0 0 0 0 0 0 0 0 0 
0 0 0 0 0 0 0 0 0 
0 0 0 0 0 0 0 0 0 
0 0 0 0 0 0 0 0 0 
0 0 0 0 0 0 0 0 0 
0 0 0 0 0 0 0 0 0 
0 0 0 0 0 0 0 0 0 
0 0 0 0 0 0 0 0 0 
0 0 0 0 0 0 0 0 0 
0 0 0 0 0 0 0 0 0 
0 0 0 0 0 0 0 0 0 
0 0 0 0 0 0 0 0 0 
0 0 0 0 0 0 0 0 0 
0 0 0 0 0 0 0 0 0 
0 0 0 0 0 0 0 0 0 
0 0 0 0 0 0 0 0 0 
0 0 0 0 0 0 0 0 0 
0 0 0 0 0 0 0 0 0 
0 0 0 0 0 0 0 0 0 
0 0 0 0 0 0 0 0 0 
0 0 0 0 0 0 0 0 0 
0 0 0 0 0 0 0 0 0 
0 0 0 0 0 0 0 0 0 
0 0 0 0 0 0 0 0 0 
0 0 0 0 0 0 0 0 0 
0 0 0 0 0 0 0 0 0 
0 0 0 0 0 0 0 0 0 
0 0 0 0 0 0 0 0 0 
0 0 0 0 0 0 0 0 0 
0 0 0 0 0 0 0 0 0 
0 0 0 0 0 0 0 0 0 
0 0 0 0 0 0 0 0 0 
0 0 0 0 0 0 0 0 0 
0 0 0 0 0 0 0 0 0 
0 0 0 0 0 0 0 0 0 
0 0 0 0 0 0 0 0 0 
0 0 0 0 0 0 0 0 0 
0 0 0 0 0 0 0 0 0 
0 0 0 0 0 0 0 0 0 
0 0 0 0 0 0 0 0 0 
0 0 0 0 0 0 0 0 0 
0 0 0 0 0 0 0 0 0 
0 0 0 0 0 0 0 0 0 
0 0 0 0 0 0 0 0 0 
0 0 0 0 0 0 0 0 0 
0 0 0 0 0 0 0 0 0 
0 0 0 0 0 0 0 0 0 
0 0 0 0 0 0 0 0 0 
0 0 0 0 0 0 0 0 0 
0 0 0 0 0 0 0 0 0 
0 0 0 0 0 0 0 0 0 
0 0 0 0 0 0 0 0 0 
0 0 0 0 0 0 0 0 0 
0 0 0 0 0 0 0 0 0 
0 0 0 0 0 0 0 0 0 
0 0 0 0 0 0 0 0 0 
0 0 0 0 0 0 0 0 0 
0 0 0 0 0 0 0 0 0 
0 0 0 0 0 0 0 0 0 
0 0 0 0 0 0 0 0 0 
0 0 0 0 0 0 0 0 0 
0 0 0 0 0 0 0 0 0 
0 0 0 0 0 0 0 0 0 
0 0 0 0 0 0 0 0 0 
0 0 0 0 0 0 0 0 0 
0 0 0 0 0 0 0 0 0 
0 0 0 0 0 0 0 0 0 
0 0 0 0 0 0 0 0 0 
0 0 0 0 0 0 0 0 0 
0 0 0 0 0 0 0 0 0 
0 0 0 0 0 0 0 0 0 
0 0 0 0 0 0 0 0 0 
0 0 0 0 0 0 0 0 0 
0 0 0 0 0 0 0 0 0 
0 0 0 0 0 0 0 0 0 
0 0 0 0 0 0 
v 3 332 double
-1.05377 -0.0455449 -0.419725 -1.20786 0.274785 -0.491681 -1.03519 -0.0142442 -0.442542 
-1.38918 0.11368 -0.331671 -0.894883 0.0463247 -0.344541 -0.940601 -0.0635435 -0.386151 
-0.968659 -0.109647 -0.396748 -0.888266 -0.0653507 -0.379975 -0.878706 -0.0614172 -0.388072 
-0.925364 -0.111409 -0.386657 -0.99243 0.379414 -0.308964 -0.798481 0.0703093 -0.34278 
-0.698377 0.194248 -0.5961 -0.849395 0.0916403 -0.201706 -0.870981 0.141163 -0.318729 
-0.963899 -0.18937 -0.409544 -0.911484 -0.102403 -0.397496 -0.70113 0.103044 -0.307129 
-0.758888 -0.0820069 -0.321592 -0.866032 0.261271 -0.225897 -0.786885 -0.310988 -0.391215 
-0.78559 -0.0801337 -0.330354 -0.443205 -0.221928 -0.413428 -0.668977 -0.0421723 -0.281202 
-0.864289 0.098008 -0.352437 -0.883181 0.183048 -0.338205 -0.882157 -0.0914239 -0.384983 
-0.802637 -0.227919 -0.733549 -0.708742 0.0126667 -0.301041 -0.724742 -0.0397419 -0.301152 
-0.812984 -0.279635 -0.303148 -0.939989 -0.178579 -0.824556 -0.695757 -0.154765 -0.843094 
-0.692912 -0.0729339 -0.295415 -0.673793 0.0398357 -0.2784 -0.700924 -0.12365 -0.246092 
-0.712528 -0.0631961 -0.255266 -0.803211 0.107978 -0.339893 -0.63239 -0.0698192 -0.813543 
-0.719707 0.105982 -0.853284 -0.706524 0.0988234 -0.737911 -0.734863 0.161355 -0.30056 
-0.663397 -0.0759788 -0.324573 -0.221438 -0.0415156 -0.103275 -0.678609 0.0645017 -0.394319 
-0.679321 0.0143862 -0.307598 -0.619297 -0.182539 -0.274948 -0.751634 0.38048 -0.129942 
-1.0326 -0.461783 -0.116203 -0.712369 -0.0195459 -0.366277 -0.479365 0.00853619 -0.232609 
-0.558496 0.0248221 -0.221364 -0.596715 0.0534961 -0.25322 -0.863261 0.11324 -0.457939 
-0.782835 -0.180001 -0.304287 -0.9407 0.0229873 -0.394056 -0.683313 -0.0026075 -0.304091 
-0.693111 -0.0654708 -0.237553 -0.759037 0.0185312 -0.556746 -0.532792 0.0427544 -0.225854 
-0.555047 -0.143099 -0.238817 -0.813486 -0.187167 -0.613338 -0.58428 -0.255041 -0.180063 
-0.62933 -0.0427381 -0.270718 -0.58526 -0.0749795 -0.242861 -0.684875 0.0107683 -0.297223 
-0.820962 0.0417539 -0.447993 -0.601038 -0.203425 -0.156642 -0.755596 -0.0597797 -0.498654 
-0.476747 -0.264794 -0.329809 -0.564723 -0.15691 -0.414825 -0.534881 -0.166918 -0.19451 
-0.506728 -0.158416 -0.203435 -0.450405 -0.0629492 -0.187869 -0.751999 -0.0169154 -0.642732 
-0.501421 0.148744 -0.646152 -0.526516 -0.0383579 -0.228862 -0.44663 -0.117134 -0.284442 
-0.665338 -0.067866 -0.314166 -1.05075 0.186789 -0.167905 -0.771503 -0.00948443 -0.46517 
-0.518764 0.133134 -0.214374 -0.623825 -0.0980778 -0.335159 -0.465337 0.382716 -0.183527 
-0.439631 0.153568 -0.216368 -0.390441 0.0998872 -0.15246 -0.350238 0.0689043 -0.141477 
-0.42023 0.0543659 -0.175445 -0.801407 0.158716 -0.440333 -0.701809 -0.195571 -0.0675728 
-0.668813 0.00312804 -0.525497 -0.233132 0.058126 -0.0971219 -0.733884 -0.171404 -0.659466 
-0.805854 0.0205742 -0.43162 -0.830519 -0.0841112 -0.333924 -0.31745 0.176308 -0.116949 
-0.228259 0.164647 -0.0764184 -0.515043 0.0465 -0.0648748 -0.362533 0.141133 -0.130445 
-0.436873 0.301858 -0.124758 -0.264806 -0.280019 0.134878 -0.609641 -0.238802 -0.151312 
-0.502096 0.163375 -0.190858 -0.720229 0.167311 -0.399435 -0.599907 -0.0445909 -0.473441 
-0.649743 0.127863 -0.135009 -0.584594 -0.333446 -0.357227 -0.696238 -0.160776 -0.165524 
-0.482109 -0.24082 -0.542034 -0.900064 -0.0667478 -0.184089 -0.589916 -0.524759 -0.0120592 
-1.00339 -0.340042 -0.0178621 -0.389483 0.346502 -0.24586 -0.663613 -0.0659648 -0.340664 
-0.406317 0.387021 -0.205517 -0.537773 -0.0969715 -0.693388 -0.806388 -0.414174 -0.0956909 
-0.718009 -0.29315 0.224424 -0.583443 0.0230944 -0.384443 -0.768565 0.493337 -0.212844 
-0.658822 0.233344 -0.258156 -0.715826 0.319401 0.0301598 -0.328128 -0.0206376 -0.259431 
-0.869987 -0.0802141 -0.24645 -0.596797 -0.116363 -0.718954 -0.464827 0.123433 -0.0464557 
-0.555945 0.16499 -0.143966 -0.769962 -0.0362445 -0.238949 -0.455386 -0.0313138 -0.0497093 
-0.293303 -0.107535 -0.222279 -0.334205 0.532048 0.0886469 -0.489724 0.235264 0.0306055 
-0.382559 0.195164 -0.339597 -0.165368 0.200451 0.0190305 -0.26843 0.2733 -0.0867207 
-0.133751 0.000126635 0.0286059 -0.394378 0.244351 -0.228318 -0.851734 0.267758 0.0955287 
-0.364933 -0.42569 -0.232704 -0.549261 -0.250025 -0.33209 -0.00274709 0.000775805 -2.06505 
-0.401414 0.0728471 -0.480984 -0.724569 0.298333 -0.210258 -0.726073 0.299308 0.0252026 
-0.194197 0.0632689 -0.441813 -0.716029 0.166335 -0.222216 -0.660776 0.305448 -0.458322 
-0.129775 -0.346305 -0.997838 -0.718706 0.128414 -0.410476 -0.500118 0.134727 -0.576414 
-0.0849837 0.140709 0.0149813 -0.724285 0.00934202 -0.324422 -0.93552 0.442849 -0.30693 
-0.643247 -0.0664879 -0.296311 -0.869233 -0.213732 -0.491608 -0.713518 -0.3266 -0.403083 
-0.636515 -0.379121 -0.160655 -0.717186 -0.31982 0.10358 -0.49102 -0.0643198 -0.185546 
-0.283532 -0.261153 -0.257986 -0.719331 0.264081 0.201772 -0.726531 0.299141 -0.0629375 
-0.46016 0.211407 -0.540545 -0.397545 0.126417 -0.353576 -0.552668 0.0392289 0.0871294 
-0.719473 0.128551 -0.289007 -0.524605 0.117589 -0.0678052 -0.674933 -0.233521 -0.224236 
0 0 -2.06679 -0.624505 -0.277907 -0.036771 -0.672146 -0.113176 0.108535 
-0.703945 -0.188226 -0.0332608 -0.0777701 0.217609 0.0172414 0.464206 -0.677507 -0.210553 
-0.352627 0.561097 -0.476444 -0.577641 0.078875 -0.0403913 -0.687121 -0.0984517 -0.224944 
-0.630019 0.174152 -0.0409805 -0.732511 -0.171083 -0.0227027 -0.70602 -0.181399 0.213227 
-0.727968 -0.153091 0.0788854 -0.714004 -0.326823 0.116454 -1.17065 0.232957 -0.278146 
0.568381 -0.115827 -0.8245 0 0 -2.02343 -0.660447 0.0632922 0.0357576 
0 0 -2.02578 0 0 -2.02029 -0.248797 -0.50875 0.122326 
0 0 -2.01784 0 0 -2.01411 0 0 -1.99066 
-0.578752 -0.340684 -1.26695 0 0 -1.99429 0 0 -1.9938 
0 0 -1.97997 0 0 -1.96869 0 0 -1.97055 
0 0 -1.95692 0 0 -1.95937 0 0 -1.93789 
0 0 -1.91483 0 0 -1.92317 0 0 -1.92494 
0 0 -1.90433 0 0 -1.90208 0 0 -1.88972 
0 0 -1.87677 0 0 -1.87157 0 0 -1.87118 
0 0 -1.84538 0 0 -1.8182 0 0 -1.8339 
0 0 -1.8289 0 0 -1.803 0 0 -1.81271 
0 0 -1.81134 0 0 -1.80996 0 0 -1.77926 
0 0 -1.78917 0 0 -1.76297 0 0 -1.77425 
0 0 -1.75542 0 0 -1.73266 0 0 -1.73305 
0 0 -1.72177 0 0 -1.70186 0 0 -1.71304 
0 0 -1.71255 0 0 -1.71412 0 0 -1.68979 
0 0 -1.69558 0 0 -1.69499 0 0 -1.66164 
0 0 -1.64761 0 0 -1.64202 0 0 -1.64211 
0 0 -1.61239 0 0 -1.61533 0 0 -1.63064 
0 0 -1.61494 0 0 -1.62916 0 0 -1.59718 
0 0 -1.60807 0 0 -1.59189 0 0 -1.6068 
0 0 -1.59473 0 0 -1.61209 0 0 -1.56815 
0 0 -1.54872 0 0 -1.56255 0 0 -1.55853 
0 0 -1.52331 0 0 -1.53048 0 0 -1.50291 
0 0 -1.51507 0 0 -1.47819 0 0 -1.49859 
0 0 -1.47946 0 0 -1.47986 0 0 -1.48957 
0 0 -1.45229 0 0 -1.45298 0 0 -1.42688 
0 0 -1.4465 0 0 -1.43022 0 0 -1.43669 
0 0 -1.40658 0 0 -1.4107 0 0 -1.41874 
0 0 -1.38401 0 0 -1.37616 0 0 -1.38529 
0 0 -1.395 0 0 -1.38048 0 0 -1.35831 
0 0 -1.36596 0 0 -1.36214 0 0 -1.35753 
0 0 -1.36116 0 0 -1.33173 0 0 -1.29661 
0 0 -1.31024 0 0 -1.30838 0 0 -1.29602 
0 0 -1.28326 0 0 -1.28856 0 0 -1.276 
0 0 -1.26914 0 0 -1.28993 0 0 -1.24373 
0 0 -1.26639 0 0 -1.24677 0 0 -1.21763 
0 0 -1.21607 0 0 -1.20586 0 0 -1.20949 
0 0 -1.20066 0 0 -1.19762 0 0 -1.18448 
0 0 -1.15318 0 0 -1.16741 0 0 -1.16329 
0 0 -1.17938 0 0 -1.14847 0 0 -1.08854 
0 0 -1.09648 0 0 -1.1161 0 0 -1.11591 
0 0 -1.11816 0 0 -1.09069 0 0 -1.06529 
0 0 -1.06931 0 0 -1.08157 0 0 -1.04233 
0 0 -1.04498 0 0 -1.04262 0 0 -1.04625 
0 0 -1.03154 0 0 -1.00927 0 0 -1.018 
0 0 -1 0 0 -1.00054 0 0 -1 
0 0 -1 0 0 -1 0 0 -1 
0 0 -1 0 0 -1 0 0 -1 
0 0 -1 0 0 -1 
f 3 332 double
0 0 -0.000346714 5.06283e-05 -0.000373896 0.00468898 -0.000384344 2.71842e-05 -0.000253699 
0 0 -0.000346714 0 0 -0.000346714 -0.000237853 1.66914e-05 0.000312365 
0 0 -0.000346714 -0.00784417 0.000710886 0.0239627 0 0 -0.000346714 
-8.64268e-05 -1.35937e-05 -3.68129e-05 -4.27113e-05 -2.64435e-05 -0.000177506 -0.000395579 6.29704e-05 -0.000205203 
0 0 -0.000346714 0 0 -0.000346714 0 0 -0.000346714 
-0.000460751 -7.13002e-05 8.89557e-05 -5.35141e-05 -1.77022e-05 -0.000132235 -0.000371778 0.00012307 -0.000240145 
-0.000720343 -5.10303e-05 0.00043745 0 0 -0.000346714 0 0 -0.000346714 
0 0 -0.00160516 0 0 -0.000346714 -9.07122e-05 1.34664e-05 -3.27316e-05 
-0.000193643 -2.87254e-05 -0.000759566 -7.44747e-05 -2.88568e-05 -6.29864e-05 -8.67919e-05 -3.17926e-05 -4.11703e-05 
0 0 -0.000346714 -0.000229453 4.56254e-05 -0.00052868 -0.000406187 6.36812e-05 -0.000177295 
2.73887e-06 6.34896e-06 -0.000166927 0 0 -0.00160516 0 0 -0.000346714 
9.70441e-05 -7.03244e-05 -0.000176502 -0.000104824 -2.26777e-05 6.86771e-06 0 0 -0.000346714 
0.000257447 -0.00014188 -0.0001379 0.000846212 0.0107484 0.0308164 0 0 -0.00160516 
0 0 -0.000346714 0 0 -0.000346714 0 0 -0.00160516 
0 0 -0.00160516 0 0 -0.000346714 0 0 -0.000346714 
0.000795657 0.00017146 0.00247643 -0.000402741 -8.54923e-05 -0.000182743 -0.000331263 -0.000402976 0.000712767 
-4.98462e-05 8.90397e-05 -8.93263e-05 0 0 -0.00160516 0 0 -0.000346714 
0 0 -0.000346714 -8.8247e-05 9.86536e-06 -3.754e-05 0 0 -0.000346714 
0 0 -0.000346714 -8.76604e-05 -3.88649e-06 -3.83674e-05 0 0 -0.00160516 
0 0 -0.000346714 0 0 -0.000346714 -8.84314e-05 9.88554e-06 -3.7188e-05 
-0.000393063 -2.03819e-05 -0.000220982 0 0 -0.000346714 0 0 -0.00160516 
-0.000393074 -8.29063e-05 -0.000224159 0 0 -0.00160516 0 0 -0.00160516 
0 0 -0.00160516 0 0 -0.000346714 0 0 -0.000346714 
0 0 -0.000346714 0 0 -0.000346714 -0.00011648 -7.3873e-05 -0.000102495 
-5.73698e-05 0.000453713 -0.00126932 -0.000410735 4.32126e-05 -0.000175837 0 0 -0.000346714 
0 0 -0.000346714 -9.68608e-05 -3.94791e-05 -1.61932e-05 0 0 -0.000346714 
0 0 -0.000346714 0 0 -0.000346714 0 0 -0.00160516 
0 0 -0.00160516 0 0 -0.00160516 0 0 -0.000346714 
0 0 -0.000346714 5.9353e-05 0.000261581 0.00121063 1.13932e-05 1.42727e-05 -4.99202e-05 
0 0 -0.000346714 0 0 -0.000346714 0 0 -0.000346714 
0 0 -0.000346714 0 0 -0.00160516 0 0 -0.000346714 
0 0 -0.00160516 0 0 -0.000346714 -4.65582e-05 -1.0948e-05 -0.000110043 
-8.6783e-05 -2.3279e-05 -3.86005e-05 0 0 -0.000346714 -8.69448e-05 -3.36545e-05 -4.23536e-05 
0 0 -0.00160516 0 0 -0.000346714 0.000536601 -0.0663224 -0.0135762 
0 0 -0.00160516 0 0 -0.000346714 0 0 -0.000346714 
0 0 -0.00160516 0 0 -0.00160516 0 0 -0.000346714 
0 0 -0.00160516 0 0 -0.000346714 0 0 -0.000346714 
0 0 -0.000346714 0 0 -0.000346714 0 0 -0.000346714 
0 0 -0.00160516 0 0 -0.000346714 0 0 -0.000346714 
0 0 -0.000346714 0 0 -0.000346714 -8.48848e-05 -4.50234e-05 -4.64293e-05 
0 0 -0.00160516 0 0 -0.000346714 0 0 -0.000346714 
-0.000536601 0.0663224 0.0128827 0 0 -0.000346714 0 0 -0.000346714 
0 0 -0.00160516 0 0 -0.000346714 0 0 -0.00160516 
0 0 -0.000346714 0 0 -0.00160516 0 0 -0.00160516 
0 0 -0.00160516 0 0 -0.000346714 0 0 -0.000346714 
0 0 -0.000346714 -0.00242895 -0.0235674 0.0599932 0 0 -0.000346714 
0 0 -0.000346714 0 0 -0.000346714 0 0 -0.000346714 
0 0 -0.000346714 0 0 -0.000346714 0 0 -0.000346714 
0 0 -0.00160516 0 0 -0.000346714 0 0 -0.000346714 
0 0 -0.000346714 0 0 -0.000346714 0 0 -0.000346714 
0 0 -0.00160516 0 0 -0.000346714 0 0 -0.000346714 
0 0 -0.00160516 0 0 -0.00160516 0 0 -0.000346714 
0 0 -0.00160516 0 0 -0.000346714 0.00105088 0.000575467 -0.00477155 
0 0 -0.000346714 0 0 -0.000346714 0 0 -0.00160516 
0 0 -0.00160516 0 0 -0.00160516 0 0 -0.000346714 
0 0 -0.000346714 0 0 -0.00160516 0 0 -0.00160516 
0 0 -0.00160516 0 0 -0.00160516 0 0 -0.00160516 
0 0 -0.00160516 0 0 -0.000346714 0 0 -0.000346714 
-0.0238149 -0.0205665 0.0412612 0 0 -0.000346714 0 0 -0.00160516 
0 0 -0.000346714 0 0 -0.000346714 0 0 -0.000346714 
0 0 -0.00160516 0 0 -0.000346714 0 0 -0.000346714 
0 0 -0.000346714 0 0 -0.00160516 0 0 -0.00160516 
0 0 -0.000346714 0 0 -0.000346714 -7.46187e-05 8.03222e-05 -6.53459e-05 
0 0 -0.000346714 0 0 -0.000346714 0 0 -0.000346714 
0.0238149 0.0205665 -0.0444715 0 0 -0.000346714 0 0 -0.000346714 
0 0 -0.000346714 0 0 -0.00160516 0 0 -0.000346714 
0 0 -0.00160516 0 0 -0.00160516 0 0 -0.00160516 
0 0 -0.000346714 0 0 -0.000346714 0 0 -0.000346714 
0 0 -0.000346714 0 0 -0.000346714 0 0 -0.000346714 
0 0 -0.00160516 0 0 -0.000346714 0 0 -0.00160516 
0 0 -0.000346714 0 0 -0.00160516 0 0 -0.00160516 
0 0 -0.000346714 0 0 -0.000346714 0 0 -0.000346714 
0 0 -0.000346714 0 0 -0.000346714 0 0 -0.000346714 
0 0 -0.000346714 0 0 -0.000346714 0 0 -0.000346714 
0 0 -0.000346714 0 0 -0.00160516 0 0 -0.000346714 
0 0 -0.000346714 0 0 -0.00160516 0 0 -0.000346714 
0 0 -0.00160516 0 0 -0.00160516 0 0 -0.00160516 
0 0 -0.000346714 0 0 -0.000346714 0 0 -0.000346714 
0 0 -0.000346714 0 0 -0.000346714 0 0 -0.000346714 
0 0 -0.000346714 0 0 -0.00160516 0 0 -0.000346714 
0 0 -0.000346714 0 0 -0.00160516 0 0 -0.000346714 
0 0 -0.000346714 0 0 -0.000346714 0 0 -0.00160516 
0 0 -0.00160516 0 0 -0.000346714 0 0 -0.00160516 
0 0 -0.000346714 0 0 -0.000346714 0 0 -0.000346714 
0 0 -0.00160516 0 0 -0.00160516 0 0 -0.000346714 