# vtk DataFile Version 4.0
Generated by LIGGGHTS
ASCII
DATASET POLYDATA
POINTS 842 float
-0.485095 -0.0189967 -0.400349 -0.00635509 0.0134448 0.0602147 -0.0184664 0.0281425 0.0554729 
-0.00303739 -0.0137624 0.0574494 -0.460704 0.00487549 -0.398053 -0.488349 0.011001 -0.399938 
-0.464901 0.0145644 -0.396735 -0.484525 0.021976 -0.397741 -0.0216771 -0.012533 0.0571296 
-0.49831 -0.0106361 -0.396617 -0.476217 -0.00314525 -0.395783 -0.457018 -0.00269137 -0.395047 
-0.475706 0.00260774 -0.394503 -0.475193 -0.0225155 -0.388253 -0.46704 0.00844184 -0.387852 
-0.448526 0.00903967 -0.387745 -0.466114 0.0138102 -0.386513 -0.474742 -0.0065611 -0.383507 
-0.476881 0.0105797 -0.385384 -0.470393 0.00243494 -0.380618 -0.443788 0.007828 -0.382081 
-0.46261 0.0112013 -0.379813 -0.451816 0.0206113 -0.379218 -0.468522 0.0239618 -0.380292 
-0.468057 -0.00156372 -0.378228 -0.462601 0.0017443 -0.37786 -0.447221 0.0206575 -0.378048 
-0.46785 0.035641 -0.377578 -0.445038 0.0206464 -0.372428 -0.459914 -0.00140137 -0.370164 
-0.457538 0.00238749 -0.3691 -0.460437 0.00376958 -0.370981 -0.477024 0.0281446 -0.370572 
-0.454629 -0.000173348 -0.365299 -0.449599 0.0108927 -0.365154 -0.464141 0.0232291 -0.366961 
-0.441568 0.0287948 -0.368186 -0.453836 -0.000878023 -0.362256 -0.440049 0.0115641 -0.362195 
-0.448358 0.0195072 -0.362826 -0.438101 0.0304948 -0.364392 -0.449679 -0.00184593 -0.358084 
-0.46649 0.0144268 -0.35911 -0.440492 0.0331497 -0.358991 -0.447971 -0.00868092 -0.357111 
-0.432611 0.00588702 -0.355611 -0.422741 0.00726031 -0.355869 -0.407587 0.0115634 -0.357298 
-0.438437 -0.0110091 -0.35063 -0.44494 -0.00582487 -0.353165 -0.43621 -0.00161276 -0.350661 
-0.440538 0.0295156 -0.350956 -0.432698 -0.0142402 -0.34959 -0.444787 -0.00938541 -0.349612 
-0.422701 -0.00482997 -0.347441 -0.433182 0.00621759 -0.347889 -0.424231 0.00636484 -0.349067 
-0.439371 0.0139394 -0.347903 -0.437232 0.00215655 -0.344116 -0.420683 0.0062484 -0.346091 
-0.444681 -0.0178088 -0.340123 -0.435618 -0.00935757 -0.341659 -0.430882 0.00710494 -0.340491 
-0.429227 -0.00391173 -0.338694 -0.445601 0.00906012 -0.338955 -0.401972 -0.0120787 -0.33471 
-0.440289 -0.0114488 -0.331126 -0.430829 0.00912987 -0.329413 -0.416319 0.00772481 -0.332031 
-0.446621 0.013511 -0.330849 -0.419203 0.0185037 -0.329258 -0.438867 0.04353 -0.330642 
-0.419264 0.00111027 -0.327609 -0.403497 0.00183883 -0.326963 -0.413153 -0.00300947 -0.322789 
-0.42125 0.00244746 -0.322436 -0.411706 0.000795777 -0.325549 -0.416757 0.00540552 -0.324951 
-0.424039 0.00858791 -0.323414 -0.470271 -0.0076094 -0.31976 -0.432111 -0.00125343 -0.318885 
-0.42737 0.0203271 -0.319798 -0.402313 -0.00828326 -0.315132 -0.43134 0.00153212 -0.317914 
-0.424185 0.00270204 -0.316681 -0.424807 0.0173009 -0.317375 -0.398282 -0.0252694 -0.311911 
-0.416217 -0.0211523 -0.313911 -0.416271 -0.00730622 -0.314104 -0.413594 -0.0039938 -0.31472 
-0.408632 -0.00449217 -0.312022 -0.415184 0.00341633 -0.314147 -0.411063 -0.0106571 -0.308384 
-0.413635 -0.0071284 -0.309752 -0.419142 -0.0386014 -0.305612 -0.413251 -0.0317574 -0.306963 
-0.411462 -0.0249087 -0.307442 -0.42538 -0.00169468 -0.305064 -0.40708 -0.000713827 -0.304674 
-0.404339 -0.0211006 -0.301491 -0.413182 -0.0029551 -0.303729 -0.4042 -0.00305236 -0.304122 
-0.398277 -0.00547847 -0.298282 -0.401423 -0.00325659 -0.300645 -0.396269 0.00500749 -0.298519 
-0.40128 0.0364599 -0.300244 -0.404053 -0.0243457 -0.296577 -0.399906 0.0216534 -0.295288 
-0.402373 -0.00807867 -0.292987 -0.397416 -0.00392709 -0.291316 -0.39271 0.00400192 -0.293044 
-0.388903 0.00836852 -0.290094 -0.419006 0.0539232 -0.291119 -0.391729 -0.00996007 -0.289182 
-0.380517 0.00243746 -0.288669 -0.389057 -0.0166858 -0.284473 -0.384061 -0.00906749 -0.284977 
-0.387563 0.0168714 -0.286235 -0.402078 0.0236128 -0.286222 -0.384304 -0.014443 -0.282506 
-0.376773 -0.0071362 -0.280407 -0.378553 -6.70077e-05 -0.280432 -0.378802 0.00793945 -0.282115 
-0.390329 0.0120874 -0.282494 -0.380715 -0.00680926 -0.277966 -0.376427 0.00334151 -0.278801 
-0.372923 0.00596608 -0.276913 -0.377486 0.00818007 -0.27825 -0.378948 0.0115965 -0.276631 
-0.376004 -0.00564609 -0.273052 -0.385284 0.000747726 -0.275251 -0.371305 0.00137171 -0.27367 
-0.374306 0.0108356 -0.274762 -0.375156 0.0210657 -0.275747 -0.370668 -0.011166 -0.268677 
-0.37367 -0.000699883 -0.271988 -0.367149 -0.00129792 -0.2708 -0.370721 0.00523568 -0.271927 
-0.368907 0.00864549 -0.269883 -0.368973 0.0117832 -0.271989 -0.373756 0.0189198 -0.27136 
-0.366186 -0.00548979 -0.2659 -0.36462 -0.00191406 -0.26832 -0.363803 0.00121908 -0.266566 
-0.366269 0.00641708 -0.26729 -0.37162 0.0129775 -0.267303 -0.36502 0.0123135 -0.265623 
-0.360599 -0.012289 -0.26069 -0.357214 -0.00699758 -0.260712 -0.354711 -0.00389659 -0.25912 
-0.35094 -0.00600779 -0.258074 -0.353574 0.00199248 -0.259401 -0.353149 0.0113801 -0.258734 
-0.365017 -0.0435516 -0.2564 -0.352395 -0.0216511 -0.254456 -0.347041 -0.00429737 -0.256599 
-0.350337 -0.00139266 -0.257629 -0.348107 0.00321946 -0.256011 -0.354131 0.0152939 -0.257448 
-0.363315 0.0323775 -0.256812 -0.347307 -0.00699815 -0.251765 -0.346326 -0.00236047 -0.252602 
-0.340046 -0.00241988 -0.250604 -0.340954 0.000568324 -0.251737 -0.345019 0.0115666 -0.253327 
-0.348339 0.0187325 -0.25409 -0.359662 0.0328852 -0.254481 -0.377038 -0.0535275 -0.248046 
-0.339299 -0.00513896 -0.249511 -0.336596 0.00032825 -0.247765 -0.337773 0.00413552 -0.248892 
-0.334836 0.00455962 -0.247679 -0.337813 0.00718748 -0.249803 -0.342859 0.0137028 -0.250501 
-0.338076 0.0103156 -0.249605 -0.342478 0.0177009 -0.250518 -0.343844 0.0223727 -0.249488 
-0.328987 -0.0118763 -0.244367 -0.332832 -0.00542529 -0.24531 -0.327493 -0.00344463 -0.244059 
-0.331957 0.000544953 -0.244831 -0.332471 0.014274 -0.245653 -0.331144 0.0223721 -0.243448 
-0.326156 -0.0184022 -0.24176 -0.326863 -0.0140262 -0.241729 -0.322752 -0.0124575 -0.24144 
-0.327586 -0.00765137 -0.242738 -0.321566 -0.00927837 -0.241154 -0.323264 -0.00494132 -0.242128 
-0.318469 -0.00635646 -0.240097 -0.324536 -0.0019304 -0.242792 -0.323824 0.00117069 -0.242632 
-0.320637 0.00124964 -0.240182 -0.318543 0.00467685 -0.240167 -0.346941 0.0480118 -0.240364 
-0.318917 -0.0247435 -0.237463 -0.318611 -0.0127933 -0.239567 -0.316689 -0.00948948 -0.23919 
-0.312009 -0.006748 -0.237465 -0.316714 0.000150854 -0.239683 -0.314587 0.0131469 -0.237966 
-0.32449 0.0270476 -0.239194 -0.334542 0.0400567 -0.237327 -0.318526 -0.0348622 -0.234064 
-0.312867 -0.0272849 -0.234178 -0.315759 -0.0205913 -0.236059 -0.313084 -0.0134921 -0.235967 
-0.303727 -0.00887565 -0.233811 -0.308716 -0.00684782 -0.234947 -0.301038 -0.00711674 -0.232825 
-0.307766 -0.00297629 -0.235809 -0.304164 -0.00247074 -0.233224 -0.307011 0.00358283 -0.234293 
-0.306779 0.00763128 -0.235025 -0.304914 0.00988694 -0.234096 -0.309925 0.0135101 -0.235946 
-0.30765 0.010868 -0.235188 -0.309445 0.0246759 -0.233573 -0.312996 0.0273849 -0.233269 
-0.312508 -0.0386995 -0.230149 -0.305521 -0.0290895 -0.230816 -0.302721 -0.0273914 -0.230018 
-0.298809 -0.0131373 -0.231276 -0.298423 -0.00567979 -0.231608 -0.292951 0.00706577 -0.229229 
-0.30489 0.0137002 -0.23271 -0.306981 -0.0386875 -0.227971 -0.29969 -0.0305104 -0.22687 
-0.297983 -0.0222392 -0.228216 -0.291659 -0.0192607 -0.226938 -0.291441 -0.0142113 -0.226975 
-0.290651 -0.00634896 -0.228472 -0.290141 0.00226499 -0.228349 -0.285752 0.00199037 -0.226515 
-0.290508 0.0100583 -0.228005 -0.286771 0.00734942 -0.226601 -0.291817 0.0137853 -0.228319 
-0.291297 0.0177206 -0.227313 -0.29095 0.0233709 -0.226163 -0.284585 -0.0150217 -0.224004 
-0.280112 -0.0173177 -0.222904 -0.281879 -0.00721623 -0.223659 -0.281447 -0.00123341 -0.223677 
-0.278145 -0.0034749 -0.223289 -0.277971 0.000905549 -0.223208 -0.274979 0.000580338 -0.222009 
-0.278827 0.00682028 -0.222226 -0.295343 0.0298684 -0.225216 -0.30339 0.047515 -0.222418 
-0.289199 -0.0365979 -0.221718 -0.275481 -0.0173247 -0.219889 -0.275075 -0.00959278 -0.221683 
-0.271603 -0.00837398 -0.220358 -0.270494 -0.00370251 -0.218711 -0.275015 -0.00335232 -0.220802 
-0.275057 0.00373427 -0.221926 -0.268208 0.00574056 -0.21892 -0.27184 0.0114808 -0.22016 
-0.277587 0.0239775 -0.219452 -0.268624 -0.0117421 -0.217658 -0.264792 -0.0103073 -0.217135 
-0.264013 -0.00713724 -0.217197 -0.262915 -0.00339858 -0.215797 -0.261832 0.00199081 -0.216418 
-0.261397 0.010466 -0.215834 -0.273699 0.0211589 -0.217807 -0.266782 -0.0269796 -0.213878 
-0.261452 -0.015118 -0.214262 -0.253161 -0.00949995 -0.212494 -0.255816 -0.00687456 -0.212095 
-0.250434 -0.00116884 -0.211717 -0.252704 0.0128826 -0.211928 -0.260856 0.0195022 -0.214355 
-0.26349 0.0307602 -0.211844 -0.253945 -0.0211579 -0.211297 -0.25207 -0.00572598 -0.211097 
-0.258525 0.000285535 -0.209692 -0.251043 0.00285655 -0.210724 -0.246708 0.00324549 -0.209955 
-0.249701 0.00753922 -0.211042 -0.251178 0.0103259 -0.211502 -0.247482 0.00929501 -0.210045 
-0.24526 0.0118787 -0.208939 -0.253945 0.0277241 -0.20984 -0.240373 -0.0124343 -0.205624 
-0.236709 -0.0109198 -0.205256 -0.260432 -0.00930094 -0.20568 -0.243883 -0.00639101 -0.207638 
-0.266567 -0.00051465 -0.208413 -0.235081 -0.00232277 -0.205228 -0.24036 0.00208495 -0.206231 
-0.234433 0.00919448 -0.204588 -0.240191 0.0147397 -0.205313 -0.2392 0.0194642 -0.205319 
-0.246621 0.0224015 -0.206881 -0.251883 0.0256408 -0.207235 -0.246833 0.0263957 -0.207177 
-0.24934 0.0290744 -0.205874 -0.24799 0.0318022 -0.206296 -0.239227 -0.0172983 -0.204199 
-0.231912 -0.0162 -0.202798 -0.231738 -0.0118218 -0.203105 -0.230316 -0.0139457 -0.201533 
-0.233618 -0.00964842 -0.204054 -0.231163 -0.00659268 -0.20219 -0.236037 0.00496056 -0.204313 
-0.22703 0.00497596 -0.201599 -0.226077 0.00896303 -0.201103 -0.229248 0.0172152 -0.201443 
-0.236049 0.0191574 -0.204058 -0.234346 0.0223554 -0.2029 -0.247864 0.0251429 -0.20376 
-0.2476 0.0365474 -0.204603 -0.248099 0.0407909 -0.203506 -0.254136 -0.0495946 -0.200877 
-0.238401 -0.0451289 -0.198002 -0.232625 -0.0346366 -0.199272 -0.22794 -0.0157927 -0.201058 
[...]
POINT_DATA 842
FIELD FieldData 7
id 1 842 int
346 1255 1253 1257 394 359 361 373 1261 
598 508 474 488 522 511 356 406 301 
334 360 479 404 521 478 375 483 497 
364 453 437 484 345 536 319 325 546 
475 519 459 385 454 376 559 493 504 
420 415 458 496 452 489 554 468 451 
469 531 558 442 413 393 487 463 499 
494 600 507 482 477 380 461 481 555 
391 431 541 392 357 412 503 579 465 
582 523 556 547 524 445 495 500 312 
457 435 542 501 552 562 491 426 369 
383 515 342 460 419 505 608 548 498 
631 502 464 656 682 640 379 527 485 
676 669 662 716 512 449 537 564 467 
516 651 550 588 630 402 563 659 571 
534 529 616 597 572 576 532 634 573 
525 514 605 526 517 602 545 658 595 
702 574 510 540 589 590 603 577 609 
528 557 581 621 764 791 561 578 533 
633 535 566 677 612 708 544 539 650 
728 593 520 697 551 683 668 594 601 
518 626 666 617 506 648 652 611 739 
734 614 570 623 619 675 715 436 655 
543 615 653 586 695 604 700 663 585 
443 661 553 599 584 607 639 664 549 
643 480 681 692 748 694 610 691 569 
786 620 636 678 672 705 646 629 618 
638 671 684 592 718 768 721 770 580 
725 628 717 606 583 673 513 565 635 
649 632 687 749 654 789 642 560 794 
752 665 625 657 727 704 835 667 627 
567 685 703 647 575 719 780 670 644 
759 432 720 698 645 699 641 755 637 
807 804 772 751 688 711 710 591 733 
622 587 613 689 867 740 766 674 744 
829 735 793 825 784 788 690 802 760 
596 686 709 731 741 737 847 745 568 
730 758 767 812 781 787 756 771 779 
693 680 696 747 713 811 761 757 726 
843 722 778 742 754 765 785 723 773 
806 795 799 824 774 706 822 743 819 
783 792 750 763 746 769 736 820 712 
776 707 701 826 777 729 808 834 823 
798 840 839 805 753 841 660 714 738 
844 790 830 875 852 868 859 803 809 
801 800 907 837 472 877 902 918 856 
775 818 880 821 828 851 796 858 900 
921 993 816 813 797 946 873 833 782 
827 911 842 944 814 899 897 916 836 
853 762 926 838 679 863 890 815 846 
941 961 962 913 914 951 920 831 886 
892 933 862 810 832 919 869 881 971 
845 857 878 848 924 882 928 891 929 
874 896 879 945 866 887 872 966 850 
864 981 905 922 849 894 908 910 917 
893 934 925 937 957 947 959 963 932 
994 732 904 895 930 817 980 954 943 
871 883 987 936 915 854 901 923 1019 
935 990 1010 939 909 984 985 903 898 
952 982 885 940 889 884 927 956 865 
938 968 948 967 992 855 998 876 1000 
861 996 958 1023 1016 1042 1041 1073 978 
983 950 1033 988 955 965 1031 931 976 
1015 1028 1020 1009 870 986 979 1014 973 
1001 860 949 1002 1007 995 1021 1039 1013 
972 1057 964 974 1036 1005 1034 1011 724 
953 1037 1035 1074 1022 1040 1008 975 1029 
989 999 991 1003 1004 970 1045 1061 912 
1049 1048 977 1053 1064 1087 969 1006 1067 
1027 1090 1054 1058 1018 1096 1084 1063 1052 
1017 1093 1047 1012 1106 1091 1089 1060 1101 
1110 1069 1071 1085 1078 1038 1082 1076 1080 
1043 1024 1062 1102 1125 1111 1032 1077 1100 
1025 1122 1070 1051 1086 960 1113 1120 1066 
1030 1104 1081 1046 1059 1079 1044 1112 1098 
1109 1094 1075 1105 1026 997 1095 1083 1097 
1114 1119 1103 1107 1050 1116 1068 1056 1117 
1055 1092 1118 1123 1072 1065 1088 1099 1108 
942 1121 1124 906 1115 1126 1132 1130 1135 
1137 1134 1136 1131 1138 1129 1127 1133 1128 
1146 1150 1147 1145 1141 1140 1139 1149 1144 
1148 1142 888 1143 1157 1160 1159 1153 1162 
1151 1152 1163 1155 1158 1156 1161 1154 1166 
1169 1175 1165 1172 1176 1167 1174 1170 1171 
1168 1173 1164 1179 1188 1183 1187 1178 1177 
1185 1182 1186 1181 1184 1180 1192 1189 1201 
1191 1190 1200 1195 1194 1199 1197 1202 1196 
1198 1193 1211 1212 1209 1210 1214 1205 1203 
1208 1207 1206 1204 1213 1223 1226 1222 1217 
1218 1221 1220 1215 1219 1224 1216 1225 1237 
1234 1227 1236 1239 1233 1230 1235 1238 1231 
1229 1232 1228 1251 1245 1248 1246 1247 1242 
1241 1250 1249 1259 1244 1243 1262 1254 1240 
1256 1252 1263 1258 1260 
type 1 842 int
1 1 1 1 1 1 1 1 1 
1 1 1 1 1 1 1 1 1 
1 1 1 1 1 1 1 1 1 
1 1 1 1 1 1 1 1 1 
1 1 1 1 1 1 1 1 1 
1 1 1 1 1 1 1 1 1 
1 1 1 1 1 1 1 1 1 
1 1 1 1 1 1 1 1 1 
1 1 1 1 1 1 1 1 1 
1 1 1 1 1 1 1 1 1 
1 1 1 1 1 1 1 1 1 
1 1 1 1 1 1 1 1 1 
1 1 1 1 1 1 1 1 1 
1 1 1 1 1 1 1 1 1 
1 1 1 1 1 1 1 1 1 
1 1 1 1 1 1 1 1 1 
1 1 1 1 1 1 1 1 1 
1 1 1 1 1 1 1 1 1 
1 1 1 1 1 1 1 1 1 
1 1 1 1 1 1 1 1 1 
1 1 1 1 1 1 1 1 1 
1 1 1 1 1 1 1 1 1 
1 1 1 1 1 1 1 1 1 
1 1 1 1 1 1 1 1 1 
1 1 1 1 1 1 1 1 1 
1 1 1 1 1 1 1 1 1 
1 1 1 1 1 1 1 1 1 
1 1 1 1 1 1 1 1 1 
1 1 1 1 1 1 1 1 1 
1 1 1 1 1 1 1 1 1 
1 1 1 1 1 1 1 1 1 
1 1 1 1 1 1 1 1 1 
1 1 1 1 1 1 1 1 1 
1 1 1 1 1 1 1 1 1 
1 1 1 1 1 1 1 1 1 
1 1 1 1 1 1 1 1 1 
1 1 1 1 1 1 1 1 1 
1 1 1 1 1 1 1 1 1 
1 1 1 1 1 1 1 1 1 
1 1 1 1 1 1 1 1 1 
1 1 1 1 1 1 1 1 1 
1 1 1 1 1 1 1 1 1 
1 1 1 1 1 1 1 1 1 
1 1 1 1 1 1 1 1 1 
1 1 1 1 1 1 1 1 1 
1 1 1 1 1 1 1 1 1 
1 1 1 1 1 1 1 1 1 
1 1 1 1 1 1 1 1 1 
1 1 1 1 1 1 1 1 1 
1 1 1 1 1 1 1 1 1 
1 1 1 1 1 1 1 1 1 
1 1 1 1 1 1 1 1 1 
1 1 1 1 1 1 1 1 1 
1 1 1 1 1 1 1 1 1 
1 1 1 1 1 1 1 1 1 
1 1 1 1 1 1 1 1 1 
1 1 1 1 1 1 1 1 1 
1 1 1 1 1 1 1 1 1 
1 1 1 1 1 1 1 1 1 
1 1 1 1 1 1 1 1 1 
1 1 1 1 1 1 1 1 1 
1 1 1 1 1 1 1 1 1 
1 1 1 1 1 1 1 1 1 
1 1 1 1 1 1 1 1 1 
1 1 1 1 1 1 1 1 1 
1 1 1 1 1 1 1 1 1 
1 1 1 1 1 1 1 1 1 
1 1 1 1 1 1 1 1 1 
1 1 1 1 1 1 1 1 1 
1 1 1 1 1 1 1 1 1 
1 1 1 1 1 1 1 1 1 
1 1 1 1 1 1 1 1 1 
1 1 1 1 1 1 1 1 1 
1 1 1 1 1 1 1 1 1 
1 1 1 1 1 1 1 1 1 
1 1 1 1 1 1 1 1 1 
1 1 1 1 1 1 1 1 1 
1 1 1 1 1 1 1 1 1 
1 1 1 1 1 1 1 1 1 
1 1 1 1 1 1 1 1 1 
1 1 1 1 1 1 1 1 1 
1 1 1 1 1 1 1 1 1 
1 1 1 1 1 1 1 1 1 
1 1 1 1 1 1 1 1 1 
1 1 1 1 1 1 1 1 1 
1 1 1 1 1 1 1 1 1 
1 1 1 1 1 1 1 1 1 
1 1 1 1 1 1 1 1 1 
1 1 1 1 1 1 1 1 1 
1 1 1 1 1 1 1 1 1 
1 1 1 1 1 1 1 1 1 
1 1 1 1 1 1 1 1 1 
1 1 1 1 1 1 1 1 1 
1 1 1 1 1 
i 3 842 int
0 0 0 0 0 0 0 0 0 
0 0 0 0 0 0 0 0 0 
0 0 0 0 0 0 0 0 0 
0 0 0 0 0 0 0 0 0 
0 0 0 0 0 0 0 0 0 
0 0 0 0 0 0 0 0 0 
0 0 0 0 0 0 0 0 0 
0 0 0 0 0 0 0 0 0 
0 0 0 0 0 0 0 0 0 
0 0 0 0 0 0 0 0 0 
0 0 0 0 0 0 0 0 0 
0 0 0 0 0 0 0 0 0 
0 0 0 0 0 0 0 0 0 
0 0 0 0 0 0 0 0 0 
0 0 0 0 0 0 0 0 0 
0 0 0 0 0 0 0 0 0 
0 0 0 0 0 0 0 0 0 
0 0 0 0 0 0 0 0 0 
0 0 0 0 0 0 0 0 0 
0 0 0 0 0 0 0 0 0 
0 0 0 0 0 0 0 0 0 
0 0 0 0 0 0 0 0 0 
0 0 0 0 0 0 0 0 0 
0 0 0 0 0 0 0 0 0 
0 0 0 0 0 0 0 0 0 
0 0 0 0 0 0 0 0 0 
0 0 0 0 0 0 0 0 0 
0 0 0 0 0 0 0 0 0 
0 0 0 0 0 0 0 0 0 
0 0 0 0 0 0 0 0 0 
0 0 0 0 0 0 0 0 0 
0 0 0 0 0 0 0 0 0 
0 0 0 0 0 0 0 0 0 
0 0 0 0 0 0 0 0 0 
0 0 0 0 0 0 0 0 0 
0 0 0 0 0 0 0 0 0 
0 0 0 0 0 0 0 0 0 
0 0 0 0 0 0 0 0 0 
0 0 0 0 0 0 0 0 0 
0 0 0 0 0 0 0 0 0 
0 0 0 0 0 0 0 0 0 
0 0 0 0 0 0 0 0 0 
0 0 0 0 0 0 0 0 0 
0 0 0 0 0 0 0 0 0 
0 0 0 0 0 0 0 0 0 
0 0 0 0 0 0 0 0 0 
0 0 0 0 0 0 0 0 0 
0 0 0 0 0 0 0 0 0 
0 0 0 0 0 0 0 0 0 
0 0 0 0 0 0 0 0 0 
0 0 0 0 0 0 0 0 0 
0 0 0 0 0 0 0 0 0 
0 0 0 0 0 0 0 0 0 
0 0 0 0 0 0 0 0 0 
0 0 0 0 0 0 0 0 0 
0 0 0 0 0 0 0 0 0 
0 0 0 0 0 0 0 0 0 
0 0 0 0 0 0 0 0 0 
0 0 0 0 0 0 0 0 0 
0 0 0 0 0 0 0 0 0 
0 0 0 0 0 0 0 0 0 
0 0 0 0 0 0 0 0 0 
0 0 0 0 0 0 0 0 0 
0 0 0 0 0 0 0 0 0 
0 0 0 0 0 0 0 0 0 
0 0 0 0 0 0 0 0 0 
0 0 0 0 0 0 0 0 0 
0 0 0 0 0 0 0 0 0 
0 0 0 0 0 0 0 0 0 
0 0 0 0 0 0 0 0 0 
0 0 0 0 0 0 0 0 0 
0 0 0 0 0 0 0 0 0 
0 0 0 0 0 0 0 0 0 
0 0 0 0 0 0 0 0 0 
0 0 0 0 0 0 0 0 0 
0 0 0 0 0 0 0 0 0 
0 0 0 0 0 0 0 0 0 
0 0 0 0 0 0 0 0 0 
0 0 0 0 0 0 0 0 0 
0 0 0 0 0 0 0 0 0 
0 0 0 0 0 0 0 0 0 
0 0 0 0 0 0 0 0 0 
0 0 0 0 0 0 0 0 0 
0 0 0 0 0 0 0 0 0 
0 0 0 0 0 0 0 0 0 
0 0 0 0 0 0 0 0 0 
0 0 0 0 0 0 0 0 0 
0 0 0 0 0 0 0 0 0 
0 0 0 0 0 0 0 0 0 
0 0 0 0 0 0 0 0 0 
0 0 0 0 0 0 0 0 0 
0 0 0 0 0 0 0 0 0 
0 0 0 0 0 0 0 0 0 
0 0 0 0 0 0 0 0 0 
0 0 0 0 0 0 0 0 0 
0 0 0 0 0 0 0 0 0 
0 0 0 0 0 0 0 0 0 
0 0 0 0 0 0 0 0 0 
0 0 0 0 0 0 0 0 0 
0 0 0 0 0 0 0 0 0 
0 0 0 0 0 0 0 0 0 
0 0 0 0 0 0 0 0 0 
0 0 0 0 0 0 0 0 0 
0 0 0 0 0 0 0 0 0 
0 0 0 0 0 0 0 0 0 
0 0 0 0 0 0 0 0 0 
0 0 0 0 0 0 0 0 0 
0 0 0 0 0 0 0 0 0 
0 0 0 0 0 0 0 0 0 
0 0 0 0 0 0 0 0 0 
0 0 0 0 0 0 0 0 0 
0 0 0 0 0 0 0 0 0 
0 0 0 0 0 0 0 0 0 
0 0 0 0 0 0 0 0 0 
0 0 0 0 0 0 0 0 0 
0 0 0 0 0 0 0 0 0 
0 0 0 0 0 0 0 0 0 
0 0 0 0 0 0 0 0 0 
0 0 0 0 0 0 0 0 0 
0 0 0 0 0 0 0 0 0 
0 0 0 0 0 0 0 0 0 
0 0 0 0 0 0 0 0 0 
0 0 0 0 0 0 0 0 0 
0 0 0 0 0 0 0 0 0 
0 0 0 0 0 0 0 0 0 
0 0 0 0 0 0 0 0 0 
0 0 0 0 0 0 0 0 0 
0 0 0 0 0 0 0 0 0 
0 0 0 0 0 0 0 0 0 
0 0 0 0 0 0 0 0 0 
0 0 0 0 0 0 0 0 0 
0 0 0 0 0 0 0 0 0 
0 0 0 0 0 0 0 0 0 
0 0 0 0 0 0 0 0 0 
0 0 0 0 0 0 0 0 0 
0 0 0 0 0 0 0 0 0 
0 0 0 0 0 0 0 0 0 
0 0 0 0 0 0 0 0 0 
0 0 0 0 0 0 0 0 0 
0 0 0 0 0 0 0 0 0 
0 0 0 0 0 0 0 0 0 
0 0 0 0 0 0 0 0 0 
0 0 0 0 0 0 0 0 0 
0 0 0 0 0 0 0 0 0 
0 0 0 0 0 0 0 0 0 
0 0 0 0 0 0 0 0 0 
0 0 0 0 0 0 0 0 0 
0 0 0 0 0 0 0 0 0 
0 0 0 0 0 0 0 0 0 
0 0 0 0 0 0 0 0 0 
0 0 0 0 0 0 0 0 0 
0 0 0 0 0 0 0 0 0 
0 0 0 0 0 0 0 0 0 
0 0 0 0 0 0 0 0 0 
0 0 0 0 0 0 0 0 0 
0 0 0 0 0 0 0 0 0 
0 0 0 0 0 0 0 0 0 
0 0 0 0 0 0 0 0 0 
0 0 0 0 0 0 0 0 0 
0 0 0 0 0 0 0 0 0 
0 0 0 0 0 0 0 0 0 
0 0 0 0 0 0 0 0 0 
0 0 0 0 0 0 0 0 0 
0 0 0 0 0 0 0 0 0 
0 0 0 0 0 0 0 0 0 
0 0 0 0 0 0 0 0 0 
0 0 0 0 0 0 0 0 0 
0 0 0 0 0 0 0 0 0 
0 0 0 0 0 0 0 0 0 
0 0 0 0 0 0 0 0 0 
0 0 0 0 0 0 0 0 0 
0 0 0 0 0 0 0 0 0 
0 0 0 0 0 0 0 0 0 
0 0 0 0 0 0 0 0 0 
0 0 0 0 0 0 0 0 0 
0 0 0 0 0 0 0 0 0 
0 0 0 0 0 0 0 0 0 
0 0 0 0 0 0 0 0 0 
0 0 0 0 0 0 0 0 0 
0 0 0 0 0 0 0 0 0 
0 0 0 0 0 0 0 0 0 
0 0 0 0 0 0 0 0 0 
0 0 0 0 0 0 0 0 0 
0 0 0 0 0 0 0 0 0 
0 0 0 0 0 0 0 0 0 
0 0 0 0 0 0 0 0 0 
0 0 0 0 0 0 0 0 0 
0 0 0 0 0 0 0 0 0 
0 0 0 0 0 0 0 0 0 
0 0 0 0 0 0 0 0 0 
0 0 0 0 0 0 0 0 0 
0 0 0 0 0 0 0 0 0 
0 0 0 0 0 0 0 0 0 
0 0 0 0 0 0 0 0 0 
0 0 0 0 0 0 0 0 0 
0 0 0 0 0 0 0 0 0 
0 0 0 0 0 0 0 0 0 
0 0 0 0 0 0 0 0 0 
0 0 0 0 0 0 0 0 0 
0 0 0 0 0 0 0 0 0 
0 0 0 0 0 0 0 0 0 
0 0 0 0 0 0 0 0 0 
0 0 0 0 0 0 0 0 0 
0 0 0 0 0 0 0 0 0 
0 0 0 0 0 0 0 0 0 
0 0 0 0 0 0 0 0 0 
0 0 0 0 0 0 0 0 0 
0 0 0 0 0 0 0 0 0 
0 0 0 0 0 0 0 0 0 
0 0 0 0 0 0 0 0 0 
0 0 0 0 0 0 0 0 0 
0 0 0 0 0 0 0 0 0 
0 0 0 0 0 0 0 0 0 
0 0 0 0 0 0 0 0 0 
0 0 0 0 0 0 0 0 0 
0 0 0 0 0 0 0 0 0 
0 0 0 0 0 0 0 0 0 
0 0 0 0 0 0 0 0 0 
0 0 0 0 0 0 0 0 0 
0 0 0 0 0 0 0 0 0 
0 0 0 0 0 0 0 0 0 
0 0 0 0 0 0 0 0 0 
0 0 0 0 0 0 0 0 0 
0 0 0 0 0 0 0 0 0 
0 0 0 0 0 0 0 0 0 
0 0 0 0 0 0 0 0 0 
0 0 0 0 0 0 0 0 0 
0 0 0 0 0 0 0 0 0 
0 0 0 0 0 0 0 0 0 
0 0 0 0 0 0 0 0 0 
0 0 0 0 0 0 0 0 0 
0 0 0 0 0 0 0 0 0 
0 0 0 0 0 0 0 0 0 
0 0 0 0 0 0 0 0 0 
0 0 0 0 0 0 0 0 0 
0 0 0 0 0 0 0 0 0 
0 0 0 0 0 0 0 0 0 
0 0 0 0 0 0 0 0 0 
0 0 0 0 0 0 0 0 0 
0 0 0 0 0 0 0 0 0 
0 0 0 0 0 0 0 0 0 
0 0 0 0 0 0 0 0 0 
0 0 0 0 0 0 0 0 0 
0 0 0 0 0 0 0 0 0 
0 0 0 0 0 0 0 0 0 
0 0 0 0 0 0 0 0 0 
0 0 0 0 0 0 0 0 0 
0 0 0 0 0 0 0 0 0 
0 0 0 0 0 0 0 0 0 
0 0 0 0 0 0 0 0 0 
0 0 0 0 0 0 0 0 0 
0 0 0 0 0 0 0 0 0 
0 0 0 0 0 0 0 0 0 
0 0 0 0 0 0 0 0 0 
0 0 0 0 0 0 0 0 0 
0 0 0 0 0 0 0 0 0 
0 0 0 0 0 0 0 0 0 
0 0 0 0 0 0 0 0 0 
0 0 0 0 0 0 0 0 0 
0 0 0 0 0 0 0 0 0 
0 0 0 0 0 0 0 0 0 
0 0 0 0 0 0 0 0 0 
0 0 0 0 0 0 0 0 0 
0 0 0 0 0 0 0 0 0 
0 0 0 0 0 0 0 0 0 
0 0 0 0 0 0 0 0 0 
0 0 0 0 0 0 0 0 0 
0 0 0 0 0 0 0 0 0 
0 0 0 0 0 0 0 0 0 
0 0 0 0 0 0 0 0 0 
0 0 0 0 0 0 0 0 0 
0 0 0 0 0 0 0 0 0 
0 0 0 0 0 0 0 0 0 
0 0 0 0 0 0 0 0 0 
0 0 0 0 0 0 0 0 0 
0 0 0 0 0 0 0 0 0 
0 0 0 0 0 0 0 0 0 
0 0 0 0 0 0 0 0 0 
0 0 0 0 0 0 0 0 0 
0 0 0 0 0 0 0 0 0 
0 0 0 0 0 0 
v 3 842 double
-1.15709 -0.0181172 -1.82634 0 0 -1 0 0 -1 
0 0 -1 -0.922407 -0.0582402 -1.75914 -1.18099 -0.0362559 -1.82743 
-1.04419 0.00270785 -1.83569 -1.06668 0.0265891 -1.79496 0 0 -1 
-1.31979 0.343589 -1.94918 -1.19167 0.170927 -1.84994 -0.962 -0.0694462 -1.79105 
-1.11482 0.14453 -1.76769 -1.09224 0.110728 -1.78357 -1.03912 0.179637 -1.72493 
-0.922908 -0.00855259 -1.74138 -1.08371 -0.0310382 -1.75059 -1.14883 0.0206661 -1.72176 
-1.18391 0.0946498 -1.74237 -1.14321 0.0991928 -1.72005 -0.888324 0.111072 -1.71192 
-1.0596 -0.0353087 -1.66633 -1.01804 0.0191447 -1.71856 -1.13995 0.0204375 -1.72607 
-1.14122 0.100925 -1.70497 -1.12301 0.0663455 -1.7045 -1.00189 0.0176786 -1.71963 
-1.06723 -0.0686863 -1.74346 -0.992278 0.0598137 -1.68538 -1.13153 0.109182 -1.67377 
-1.09527 0.112598 -1.62085 -1.11941 0.0637183 -1.65117 -1.28537 0.0283749 -1.69891 
-1.11058 0.0630796 -1.63888 -0.93597 0.131981 -1.59223 -1.14596 -0.0612819 -1.6528 
-0.90244 -0.0510176 -1.67761 -1.12521 0.113644 -1.59582 -1.0274 -0.0230512 -1.62297 
-1.03934 0.0178391 -1.61025 -0.987036 0.138615 -1.63425 -1.13508 -0.11797 -1.59088 
-1.22023 -0.181269 -1.56955 -1.00888 0.131795 -1.58804 -1.09572 0.00565963 -1.57098 
-0.991234 -0.0147167 -1.57124 -0.951432 0.0711594 -1.63733 -0.777167 0.222125 -1.72114 
-1.07255 -0.0819285 -1.56671 -1.08209 8.38371e-05 -1.55001 -1.0182 -0.0286908 -1.53021 
-1.03755 0.111512 -1.52844 -1.00778 0.00330398 -1.52948 -1.11064 0.0115827 -1.53135 
-0.983859 -0.0996424 -1.54557 -1.03892 -0.0314253 -1.52117 -0.99769 -0.0104395 -1.56447 
-1.06718 0.0399869 -1.51478 -1.10037 0.13999 -1.50406 -0.973821 0.174898 -1.58696 
-1.15167 0.144025 -1.50879 -1.0637 0.0842722 -1.52096 -1.02786 0.0736781 -1.56643 
-1.08035 -0.115029 -1.46249 -1.10372 -0.0456387 -1.42218 -0.960922 -0.279847 -1.56524 
-1.17 0.116832 -1.33101 -1.10328 0.0338322 -1.31893 -0.973599 0.0427895 -1.41616 
-1.36396 0.311956 -1.40493 -1.03594 0.157467 -1.39957 -1.05192 -0.106167 -1.5012 
-1.09277 -0.0307889 -1.45674 -0.907701 0.0928773 -1.3937 -1.07317 -0.0472309 -1.53915 
-1.00736 0.012237 -1.26898 -0.974439 0.0633126 -1.366 -1.09229 0.0119317 -1.44338 
-1.00453 0.18064 -1.27987 -1.41003 -0.12167 -1.33919 -1.05978 0.218588 -1.20671 
-1.19602 -0.173382 -1.39183 -0.910426 -0.234644 -1.35713 -1.13461 -0.0606251 -1.25421 
-1.12819 -0.0297836 -1.26432 -1.18418 -0.166087 -1.36929 -0.833997 -0.144317 -1.22216 
-1.14453 0.191554 -1.36744 -1.08823 0.00752063 -1.27723 -1.08745 0.0333611 -1.25785 
-0.905271 -0.0943161 -1.26583 -1.11719 0.0609598 -1.27631 -1.08062 -0.101524 -1.18002 
-1.15953 -0.107569 -1.31764 -1.01749 0.112974 -1.28325 -1.11579 0.231346 -1.37297 
-1.00913 0.170515 -1.26702 -1.29028 -0.163714 -1.15442 -1.10984 -0.00113221 -1.19513 
-1.06009 0.0648436 -1.1917 -1.20156 -0.114697 -1.11256 -1.07315 0.0852753 -1.19564 
-1.04906 0.0407364 -1.13911 -1.07381 0.0346699 -1.16171 -1.03107 0.0646933 -1.13937 
-0.98714 0.13672 -1.16066 -1.0972 0.111357 -1.17247 -1.08378 0.156161 -1.10696 
-1.17034 -0.220032 -1.11706 -1.1594 0.0662998 -1.09943 -1.0879 0.0618484 -1.16591 
-1.05114 0.075988 -1.07452 -1.14777 0.0430504 -1.17558 -1.07175 0.0855417 -1.06578 
-0.855944 -0.00858296 -1.02195 -1.08297 -0.00612217 -1.03207 -0.993296 0.0525398 -1.00803 
-1.05103 -0.10546 -1.06226 -1.37737 -0.188086 -1.17492 -1.06912 0.0411311 -1.00914 
-1.06299 0.0514232 -1.04404 -0.995462 0.023262 -1.01429 -0.943518 0.122421 -0.988555 
-1.12642 0.0189615 -0.976993 -1.18278 -0.0990772 -1.02795 -1.07552 0.0970157 -0.980397 
-1.01891 0.0709319 -0.954342 -1.05716 0.134836 -0.919121 -1.12357 -0.0877943 -0.989847 
-1.14096 0.0820109 -0.901355 -1.3519 0.0220446 -0.999603 -1.02877 -0.0901242 -0.960065 
-1.11873 -0.140173 -0.995498 -0.968791 -0.122291 -0.95816 -1.16499 0.063845 -0.868841 
-1.19222 0.0881614 -0.912922 -1.07581 -0.0361991 -0.897763 -1.0301 -0.0792236 -0.889486 
-1.09428 -0.0850708 -0.885398 -1.07417 -0.0844427 -0.963656 -1.07326 -0.0655094 -0.923595 
-1.14434 -0.0212446 -0.817784 -1.05145 -0.0226186 -0.876087 -1.02963 -0.0106018 -0.78684 
-1.06651 -0.0553756 -0.850637 -1.1392 -0.166028 -0.861978 -1.09067 -0.0192222 -0.843572 
-1.17163 0.0319835 -0.791003 -1.10379 -0.0649651 -0.755241 -1.01074 -0.105283 -0.725022 
-0.994757 -0.0926768 -0.708411 -0.964761 0.0186751 -0.790484 -1.03913 -0.139398 -0.75218 
-1.16197 -0.11322 -0.799697 -1.16442 0.00165105 -0.703872 -0.963342 -0.000759411 -0.814572 
-1.038 -0.0963855 -0.739915 -1.04033 -0.0262056 -0.743254 -1.03709 -0.129373 -0.754955 
-1.21975 -0.104971 -0.838724 -1.16805 -0.0124208 -0.579629 -1.02998 -0.0824406 -0.544748 
-1.10059 -0.176738 -0.611788 -1.0899 -0.163637 -0.663523 -1.0273 -0.0288084 -0.653546 
-1.0095 -0.135881 -0.695361 -1.40806 -0.123308 -0.857176 -1.42942 0.219398 -0.939717 
-1.09381 -0.154702 -0.588936 -1.1326 -0.0944476 -0.608658 -1.13411 -0.148127 -0.588589 
-1.13589 -0.0907186 -0.59638 -1.00799 -0.195693 -0.660781 -1.01977 -0.0622939 -0.635444 
-0.982929 -0.137535 -0.58481 -1.03765 -0.0486198 -0.617138 -1.1596 0.00626522 -0.672818 
-1.06951 0.0994071 -0.526772 -1.12665 0.0971329 -0.553464 -1.05933 0.0415898 -0.48218 
-1.04805 -0.0646796 -0.603385 -1.08664 -0.105106 -0.566663 -0.934612 -0.190757 -0.512219 
-1.25369 0.0644784 -0.552367 -1.10601 0.12105 -0.475182 -1.113 0.161299 -0.454062 
-1.1136 0.0186657 -0.499214 -1.16629 0.099721 -0.486221 -1.04271 -0.0139129 -0.432631 
-1.23093 -0.12107 -0.48885 -1.14931 -0.0261108 -0.459093 -1.07654 -0.00589708 -0.472421 
-1.08088 -0.00125082 -0.456011 -1.11473 0.0184257 -0.468716 -1.14405 -0.116661 -0.677197 
-1.08403 0.167275 -0.536852 -1.14787 0.0754136 -0.535974 -1.02587 -0.0623868 -0.407595 
-1.00087 0.0377165 -0.423775 -1.06288 0.0509371 -0.445226 -1.0503 0.0595957 -0.432917 
-1.14881 -0.14013 -0.523837 -1.15555 -0.160858 -0.600347 -1.10387 0.120296 -0.478411 
-1.07549 0.278577 -0.501533 -1.09347 0.174669 -0.468459 -1.21736 0.049669 -0.511239 
-1.06061 -0.0324707 -0.44259 -1.00004 0.0175914 -0.491692 -0.954343 -0.118424 -0.397571 
-1.02321 0.0419302 -0.432967 -0.971005 -0.0653719 -0.407613 -1.0559 -0.0714113 -0.449532 
-0.931286 -0.060812 -0.396191 -0.934757 -0.036799 -0.396917 -1.05611 -0.085971 -0.457312 
-0.952508 -0.0660236 -0.406343 -1.07023 -0.0656838 -0.459534 -1.04326 -0.428667 -0.573279 
-1.00635 0.181949 -0.449397 -1.01995 0.290355 -0.473773 -1.01822 0.313584 -0.467643 
-1.07783 -0.0263574 -0.44994 -0.97457 0.0346353 -0.421991 -1.0094 0.0276636 -0.424518 
-1.0414 -0.0143143 -0.437552 -0.961808 0.166734 -0.477995 -1.06092 0.107765 -0.527728 
-1.02628 -0.0203072 -0.398817 -0.978127 0.0703751 -0.590777 -1.11851 -0.000990385 -0.470398 
-0.962706 -0.00919317 -0.405449 -0.931705 -0.0145566 -0.393447 -1.05644 -0.0815666 -0.450452 
-1.01154 -0.132992 -0.435802 -1.02511 -0.016276 -0.433042 -0.931155 -0.0993746 -0.399607 
-0.906993 -0.161411 -0.407926 -0.801138 -0.00746232 -0.327887 -1.11001 -0.0178401 -0.464398 
-1.15475 -0.00225124 -0.481801 -0.856476 -0.0667337 -0.358835 -0.736259 0.00662024 -0.309629 
-0.80031 -0.121021 -0.32519 -0.719301 0.0825513 -0.268195 -0.765469 -0.00960685 -0.338557 
-1.03254 -0.02708 -0.427536 -0.95752 0.0529353 -0.385635 -1.30328 0.148469 -0.426108 
-1.09035 0.217805 -0.459623 -0.999043 -0.0942435 -0.398988 -0.686144 0.0306522 -0.290275 
-0.88331 -0.00249364 -0.374445 -0.825544 -0.00219028 -0.285684 -0.816032 7.22618e-05 -0.307532 
-0.951705 0.0521708 -0.386425 -1.00288 -0.0667914 -0.420926 -0.7295 -0.0100831 -0.299081 
-1.03343 -0.250074 -0.465538 -0.900868 -0.0654293 -0.373482 -0.891549 -0.0138825 -0.364748 
-0.920764 -0.0379915 -0.386095 -0.869487 -0.04593 -0.362931 -0.747645 -0.0162612 -0.318614 
-0.940314 0.192657 -0.394818 -0.979665 -0.14569 -0.37894 -0.965238 -0.127485 -0.380297 
-1.11802 0.00238543 -0.479692 -1.00174 -0.0878485 -0.420361 -0.922484 -0.228345 -0.454078 
-0.791988 -0.0205669 -0.337891 -0.923688 -0.106229 -0.404574 -0.936506 0.0384029 -0.383377 
-0.87333 -0.117631 -0.397936 -0.991362 0.273878 -0.429627 -0.901953 -0.0743551 -0.34871 
-1.10597 0.195533 -0.578774 -0.751679 -0.003061 -0.319845 -0.777599 0.0620964 -0.322986 
-0.810029 0.0911775 -0.337551 -0.869912 -0.0741976 -0.34245 -0.792226 0.0664516 -0.329408 
-0.823605 0.0436018 -0.341957 -0.88616 0.0570112 -0.354029 -0.851822 0.0968015 -0.375669 
-0.876116 0.0414775 -0.353194 -1.1249 -0.33028 0.0349449 -1.00669 0.0155469 -0.42355 
-1.15721 -0.0709932 -0.569683 -0.871723 -0.251478 -0.379291 -0.920289 -0.107474 -0.395077 
-0.765979 -0.0948277 -0.322291 -0.839778 -0.0372144 -0.350348 -0.779405 -0.00414574 -0.322961 
-0.837433 -0.101175 -0.361261 -0.925554 -0.0556962 -0.590609 -0.632728 -0.055202 -0.307088 
-0.983844 -0.0847481 -0.518693 -0.878122 -0.0638562 -0.377489 -1.0575 -0.0262012 -0.320866 
-0.997599 0.0527864 -0.431428 -0.88955 -0.0257349 -0.367114 -0.9396 -0.0240944 -0.312288 
-0.922406 -0.0421999 -0.379795 -0.853148 -0.0928708 -0.34551 -0.856905 -0.108662 -0.360866 
-0.783189 -0.0662481 -0.335839 -0.836121 0.00150977 -0.347796 -0.729838 -0.0349141 -0.306631 
-0.787888 -0.0132259 -0.336995 -0.795048 0.0376207 -0.340937 -0.922288 -0.179287 -0.234652 