# vtk DataFile Version 4.0
Generated by LIGGGHTS
ASCII
DATASET POLYDATA
POINTS 780 float
-0.0117545 -0.00114748 0.0568969 -0.0338954 -0.0028047 0.0551231 -0.480367 -0.00406159 -0.39904 
-0.476852 0.00819511 -0.399703 -0.483841 0.0102752 -0.390049 -0.476692 0.00844278 -0.390085 
-0.477242 0.0132711 -0.389235 -0.469759 0.00263289 -0.379178 -0.469494 0.00903107 -0.380477 
-0.475436 0.0115634 -0.379615 -0.464826 0.00134817 -0.378321 -0.473343 -0.00399456 -0.36882 
-0.465418 0.00305103 -0.370251 -0.454993 0.0251178 -0.370189 -0.461526 -0.00593497 -0.364917 
-0.465451 3.23686e-05 -0.365035 -0.468345 0.0120847 -0.365741 -0.444903 -0.00213487 -0.358532 
-0.459799 0.0133848 -0.361169 -0.449716 -0.012188 -0.354097 -0.441695 -0.000630507 -0.348356 
-0.441983 -0.0116273 -0.34217 -0.429191 0.00576585 -0.34182 -0.437681 -0.00868396 -0.338388 
-0.438284 -0.0101787 -0.333978 -0.432198 0.00405249 -0.335558 -0.427946 0.0011961 -0.330978 
-0.419238 0.0024066 -0.326984 -0.426897 0.00919368 -0.326943 -0.431468 -0.00707102 -0.324297 
-0.421766 0.0109437 -0.321485 -0.426396 0.0228284 -0.324281 -0.420404 -0.0070588 -0.315908 
-0.440376 -0.0349185 -0.310806 -0.422348 -0.0238216 -0.313723 -0.41991 -0.00148169 -0.311923 
-0.413813 -0.00299474 -0.311861 -0.424528 0.021616 -0.313754 -0.426934 -0.0374827 -0.308255 
-0.403346 -0.00643461 -0.309619 -0.408062 -0.00910572 -0.303145 -0.400363 -0.00981125 -0.305413 
-0.407381 0.00839102 -0.303447 -0.406067 -0.00636954 -0.300256 -0.405192 -0.00338361 -0.30213 
-0.406162 -0.0228841 -0.296638 -0.40489 -0.0190292 -0.296057 -0.405235 -0.0119924 -0.299456 
-0.402651 -0.00769002 -0.295952 -0.402489 -0.00454686 -0.299249 -0.403225 0.0164574 -0.295404 
-0.391383 -0.01186 -0.29215 -0.393653 -0.00156651 -0.289728 -0.39295 0.00433113 -0.290892 
-0.394064 0.0161672 -0.291555 -0.391202 -0.0267735 -0.285784 -0.387323 -0.0184477 -0.286481 
-0.393021 -0.0142112 -0.287501 -0.387992 0.00612678 -0.285798 -0.383651 0.00504515 -0.286872 
-0.387146 0.00900753 -0.286549 -0.378652 -0.0251202 -0.285307 -0.380936 -0.00909332 -0.28212 
-0.385444 0.00800514 -0.282457 -0.380429 0.00713056 -0.281718 -0.374642 0.0158834 -0.28389 
-0.386727 -0.0227289 -0.278515 -0.389456 -0.0197658 -0.280251 -0.378588 -0.0142234 -0.280926 
-0.376697 -0.00714771 -0.279368 -0.382649 0.00316014 -0.279735 -0.379654 0.00134639 -0.277674 
-0.378056 0.00801172 -0.277936 -0.376157 -0.0272005 -0.27251 -0.378888 -0.0243902 -0.273853 
-0.369097 -0.0093877 -0.271682 -0.370787 0.00277256 -0.270788 -0.369533 0.00800369 -0.270987 
-0.377866 -0.0157162 -0.268361 -0.371819 -0.0117774 -0.267218 -0.366294 0.00178781 -0.267451 
-0.374244 0.00711716 -0.269624 -0.368322 -0.00806138 -0.266503 -0.36289 -0.00115986 -0.264208 
-0.356474 -0.00308307 -0.261473 -0.351127 0.00810796 -0.255837 -0.350288 0.0122928 -0.256791 
-0.384112 0.0414324 -0.258106 -0.345395 0.00150626 -0.255167 -0.342942 0.00400892 -0.253526 
-0.342456 0.0075857 -0.252011 -0.345 0.0118952 -0.253004 -0.351145 0.0185706 -0.254 
-0.349134 -0.0320016 -0.249343 -0.343574 -0.0117161 -0.251531 -0.33933 -0.00696721 -0.248606 
-0.343113 0.000418116 -0.25089 -0.338406 0.00167686 -0.250054 -0.339393 0.00899293 -0.249011 
-0.340956 0.0164466 -0.249699 -0.337766 -0.0248364 -0.245847 -0.336944 -0.0144089 -0.247839 
-0.335329 -0.0110478 -0.246156 -0.334199 -0.0057632 -0.24703 -0.329302 -0.00514114 -0.244772 
-0.333217 -0.00201074 -0.246987 -0.328421 -0.00226799 -0.244549 -0.333561 0.00209277 -0.246232 
-0.335323 0.00689911 -0.246784 -0.33548 0.0108431 -0.247976 -0.331822 0.0107278 -0.245789 
-0.331964 -0.0242406 -0.243263 -0.334555 -0.0161969 -0.244269 -0.328497 -0.00897984 -0.244023 
-0.324919 -0.000436959 -0.243095 -0.327055 0.00487053 -0.241411 -0.32812 0.00804028 -0.24405 
-0.321348 0.00787614 -0.241172 -0.328748 0.0122777 -0.242371 -0.327474 0.0171733 -0.241116 
-0.339674 -0.0321727 -0.23808 -0.324232 -0.0258189 -0.239502 -0.32135 -0.0251788 -0.237979 
-0.323706 -0.0118556 -0.240771 -0.318992 -0.0113506 -0.239928 -0.315236 -0.00680483 -0.238756 
-0.317757 -0.00373921 -0.238902 -0.320773 6.34752e-05 -0.240315 -0.316322 0.00129536 -0.239442 
-0.317298 0.00411467 -0.239681 -0.318223 0.00789922 -0.238715 -0.32371 0.0115071 -0.239456 
-0.320723 0.0140545 -0.240355 -0.323463 0.0203629 -0.24027 -0.313163 -0.0190422 -0.235209 
-0.308264 -0.00802481 -0.235813 -0.327551 -0.00740383 -0.234685 -0.312631 -0.00417122 -0.236735 
-0.31333 0.0088915 -0.236621 -0.308305 0.00700727 -0.234621 -0.308401 0.0124127 -0.235408 
-0.299799 -0.00590044 -0.230487 -0.299464 -0.00169272 -0.232319 -0.296709 -0.00040091 -0.231177 
-0.300524 0.00106296 -0.232813 -0.30288 0.00663856 -0.232358 -0.305159 0.0114946 -0.232954 
-0.299866 0.0114155 -0.230783 -0.30646 0.0252098 -0.232224 -0.295702 -0.0192658 -0.229046 
-0.29432 -0.0106163 -0.229665 -0.290922 -0.00834204 -0.228479 -0.287945 -0.00221211 -0.226387 
-0.295474 0.00688982 -0.229219 -0.291091 0.00861865 -0.227273 -0.290163 0.0132514 -0.227654 
-0.293346 0.0123585 -0.229056 -0.298005 0.0198683 -0.229735 -0.347292 0.027627 -0.232078 
-0.286221 -0.00963949 -0.226365 -0.289085 -0.00647272 -0.223999 -0.293094 -0.00251794 -0.226087 
-0.280416 -0.00282212 -0.224274 -0.285905 0.00202251 -0.224295 -0.280049 0.0033816 -0.224023 
-0.285842 0.00697425 -0.225149 -0.28721 0.0160988 -0.225994 -0.280467 0.0145724 -0.223387 
-0.296782 0.0320867 -0.226223 -0.301649 0.0351078 -0.226073 -0.281684 -0.0218465 -0.221614 
-0.272349 -0.0104643 -0.220449 -0.276751 -0.00678525 -0.221509 -0.274681 -0.00206958 -0.220801 
-0.277005 0.00907257 -0.222438 -0.274197 0.00717699 -0.221375 -0.271931 0.00885129 -0.220326 
-0.274585 0.0104295 -0.221329 -0.275248 0.0150107 -0.221066 -0.291413 0.0421833 -0.220232 
-0.31673 0.054715 -0.222621 -0.31059 -0.0556972 -0.219948 -0.28295 -0.0415623 -0.217114 
-0.281517 -0.0346523 -0.219279 -0.274562 -0.0262365 -0.218865 -0.265646 -0.016596 -0.216919 
-0.265211 -0.0123376 -0.217242 -0.264333 -0.00678777 -0.216263 -0.262064 -0.000314199 -0.216625 
-0.270403 0.0112567 -0.219323 -0.26657 0.0187654 -0.216856 -0.267017 -0.0209338 -0.215672 
-0.255881 -0.0143238 -0.213082 -0.257099 0.00333624 -0.214345 -0.263057 0.0139714 -0.215031 
-0.270395 0.0321928 -0.215357 -0.252492 -0.0112921 -0.212016 -0.254414 -0.00780975 -0.212018 
-0.248626 -0.00893125 -0.210599 -0.246912 -0.00358698 -0.20904 -0.249797 0.0111253 -0.210943 
-0.283543 -0.0177923 -0.208345 -0.239819 -0.0160308 -0.205726 -0.244209 -0.00671197 -0.208844 
-0.240259 -0.00582463 -0.206069 -0.242465 0.000661358 -0.207187 -0.241728 0.0105598 -0.206504 
-0.237512 0.0109061 -0.205794 -0.261741 -0.0477048 -0.20614 -0.237342 -0.0265935 -0.203162 
-0.234659 -0.0203019 -0.203278 -0.228838 -0.00703478 -0.202274 -0.233455 -0.00747926 -0.20401 
-0.235818 -0.00563965 -0.202697 -0.233549 0.00182952 -0.203382 -0.229733 0.00556002 -0.202741 
-0.230663 0.00875964 -0.203034 -0.234023 0.0124543 -0.204101 -0.236765 0.0140569 -0.20501 
-0.238855 0.0185501 -0.204217 -0.232098 0.019359 -0.202344 -0.242582 0.024232 -0.204901 
-0.2446 0.0291429 -0.204506 -0.240445 0.0323915 -0.203043 -0.256655 0.0455751 -0.203867 
-0.233779 -0.0345978 -0.199744 -0.227215 -0.0255738 -0.199165 -0.223369 -0.0182069 -0.198973 
-0.244109 -0.0129489 -0.19969 -0.220683 -0.00858731 -0.198707 -0.227947 -0.0030847 -0.201107 
-0.226323 0.0056412 -0.201082 -0.228138 0.010826 -0.200726 -0.228701 0.0215408 -0.199567 
-0.228602 0.0255536 -0.199842 -0.250508 -0.0568397 -0.196916 -0.220254 -0.0236243 -0.196648 
-0.218322 -0.0190956 -0.196746 -0.215428 -0.00456239 -0.196862 -0.21582 -0.000656612 -0.195669 
-0.216127 0.00316048 -0.197071 -0.227207 0.00403742 -0.197254 -0.222813 0.00642636 -0.198991 
-0.215856 0.00615452 -0.196801 -0.219327 0.00426874 -0.195018 -0.212301 0.00409902 -0.195419 
-0.215606 0.00991066 -0.196594 -0.219551 0.0129787 -0.197902 -0.220286 0.0237449 -0.196781 
-0.224893 0.0271321 -0.197901 -0.222374 0.0320282 -0.195677 -0.236797 0.0490832 -0.195758 
-0.223113 -0.0389696 -0.192804 -0.253324 -0.0231737 -0.194589 -0.211387 -0.0188213 -0.193806 
-0.202862 -0.000481387 -0.191504 -0.207063 0.00112129 -0.193229 -0.208165 0.00546522 -0.193682 
-0.207022 0.0107881 -0.192854 -0.207759 -0.0205343 -0.190974 -0.20424 -0.0153227 -0.191151 
-0.197967 -0.00962218 -0.189154 -0.197448 -0.00461721 -0.189175 -0.194015 -0.00436782 -0.18771 
-0.222829 0.00266663 -0.189281 -0.194739 0.000158143 -0.188045 -0.203634 0.00739117 -0.190683 
-0.198932 0.00986604 -0.188431 -0.204889 0.0190515 -0.189956 -0.199766 0.0184453 -0.187898 
-0.199795 0.0224624 -0.188434 -0.209364 0.0288874 -0.190889 -0.211512 0.035219 -0.189379 
-0.194557 -0.0231535 -0.186138 -0.197548 -0.0168884 -0.187065 -0.190683 -0.0166257 -0.185286 
-0.194863 -0.011536 -0.186545 -0.187725 -0.0124173 -0.184564 -0.192191 -0.00668739 -0.186953 
-0.190289 -0.00928209 -0.184468 -0.200595 -0.0053965 -0.18544 -0.18893 -0.00531223 -0.185559 
-0.186303 -0.00408678 -0.184451 -0.195296 -0.00216504 -0.183989 -0.189478 -0.0010449 -0.184778 
-0.191985 0.00145422 -0.186872 -0.194441 0.00551892 -0.186877 -0.189987 0.00374091 -0.186093 
-0.191626 0.00834678 -0.186558 -0.193277 0.0121103 -0.186909 -0.196761 0.01437 -0.187065 
-0.202273 0.0234532 -0.184991 -0.196765 0.0211089 -0.187438 -0.202014 0.0291967 -0.186838 
-0.201188 0.0342763 -0.185377 -0.238228 -0.0688818 -0.184534 -0.218222 -0.0605518 -0.182648 
-0.189271 -0.0311306 -0.18109 -0.186309 -0.0141109 -0.181164 -0.191634 -0.00552903 -0.184236 
-0.184093 -0.00616891 -0.183453 -0.181815 -0.00377679 -0.18253 -0.186151 -0.000696437 -0.182178 
-0.180018 7.88249e-05 -0.181849 -0.182458 0.00347061 -0.181853 -0.196318 0.00524064 -0.183026 
-0.193402 0.00692559 -0.18129 -0.186968 0.00607599 -0.18369 -0.180118 0.00871179 -0.181647 
-0.185168 0.0111251 -0.183556 -0.182274 0.0128497 -0.181108 -0.190758 0.0290024 -0.183268 
-0.18808 0.0302706 -0.181463 -0.19397 0.0319685 -0.183966 -0.207808 0.0485342 -0.183298 
-0.220219 0.0637252 -0.181464 -0.175647 -0.0220984 -0.178422 -0.177596 -0.00266009 -0.179706 
[...]
POINT_DATA 780
FIELD FieldData 7
id 1 780 int
813 811 56 73 37 89 61 52 36 
94 8 100 42 120 85 87 147 59 
139 117 77 133 91 55 63 15 39 
176 17 41 31 84 78 131 113 126 
88 145 207 71 46 74 153 58 125 
80 24 43 50 65 108 97 190 67 
162 76 62 101 111 86 102 18 98 
48 164 75 95 103 53 92 112 130 
34 174 168 110 196 137 26 141 122 
81 140 193 121 68 163 352 186 177 
82 114 219 178 150 79 104 148 118 
151 171 179 132 189 70 202 159 180 
129 138 107 187 265 123 198 195 49 
160 158 119 294 188 225 183 134 166 
142 154 204 127 144 106 83 213 157 
136 210 116 156 105 278 244 241 215 
184 115 169 170 72 229 109 250 167 
221 208 228 99 199 324 135 205 277 
211 270 124 143 64 212 200 234 272 
146 181 182 252 209 175 254 317 289 
251 305 185 201 223 152 149 284 161 
96 191 297 172 280 296 290 293 233 
197 295 224 307 337 236 298 322 206 
261 165 276 329 222 299 316 245 249 
287 275 264 128 242 321 256 253 155 
332 9 255 438 281 220 273 363 348 
368 288 263 353 267 218 339 259 354 
314 446 292 262 226 343 230 217 306 
308 418 422 304 303 266 192 260 214 
227 330 238 399 235 232 194 310 347 
311 390 282 274 283 203 243 313 247 
258 405 318 370 333 285 315 349 409 
248 331 388 395 300 320 269 377 327 
271 372 382 237 351 427 291 362 381 
447 246 286 240 231 407 279 90 386 
367 216 387 302 336 401 323 340 257 
366 239 344 335 341 371 423 411 358 
476 309 441 384 378 470 456 414 389 
417 350 433 396 424 444 268 430 439 
374 440 466 492 450 355 462 455 421 
338 403 398 365 326 429 490 301 325 
428 416 328 356 473 408 522 360 346 
483 454 400 404 448 394 425 373 406 
488 375 334 380 420 319 445 484 397 
345 459 489 481 385 361 478 376 359 
364 463 437 451 392 504 357 312 497 
496 469 452 494 477 434 511 458 499 
453 519 431 471 393 468 342 419 391 
500 474 415 493 442 508 491 413 379 
383 485 412 435 369 509 503 507 475 
486 482 487 562 495 498 460 505 479 
449 517 501 547 530 465 538 464 542 
531 512 537 525 536 402 529 534 502 
550 510 548 541 506 526 521 520 546 
515 557 528 523 624 527 467 552 564 
544 559 561 577 555 589 585 443 514 
533 576 582 426 457 410 461 598 480 
571 545 539 543 554 586 610 574 549 
524 540 600 578 595 572 436 565 558 
638 636 535 626 616 566 588 516 620 
603 596 583 532 575 579 518 573 612 
513 656 640 597 580 567 551 615 568 
584 569 607 591 646 604 602 606 625 
633 662 650 556 652 617 611 647 635 
570 619 657 592 613 608 563 628 666 
661 560 631 659 663 664 594 658 667 
622 590 634 648 621 676 553 639 605 
655 637 641 614 632 677 649 671 644 
601 653 627 669 587 630 642 668 670 
660 665 581 593 623 618 609 651 599 
654 643 432 675 645 629 678 672 673 
472 685 674 683 690 691 684 681 679 
680 686 682 688 687 696 689 693 702 
697 694 692 700 698 699 703 708 701 
695 709 715 705 716 710 706 704 711 
713 712 707 714 726 728 720 717 725 
729 727 718 721 722 724 723 719 734 
741 737 733 735 731 742 736 739 730 
740 738 732 748 745 750 746 749 751 
752 743 755 753 754 744 747 767 763 
765 758 761 757 766 762 759 760 768 
756 764 778 780 775 779 769 781 776 
772 773 771 777 770 793 788 774 790 
786 784 791 787 783 792 794 782 789 
785 805 800 795 797 804 799 806 796 
803 801 802 798 807 817 816 808 815 
814 810 812 818 819 809 
type 1 780 int
1 1 1 1 1 1 1 1 1 
1 1 1 1 1 1 1 1 1 
1 1 1 1 1 1 1 1 1 
1 1 1 1 1 1 1 1 1 
1 1 1 1 1 1 1 1 1 
1 1 1 1 1 1 1 1 1 
1 1 1 1 1 1 1 1 1 
1 1 1 1 1 1 1 1 1 
1 1 1 1 1 1 1 1 1 
1 1 1 1 1 1 1 1 1 
1 1 1 1 1 1 1 1 1 
1 1 1 1 1 1 1 1 1 
1 1 1 1 1 1 1 1 1 
1 1 1 1 1 1 1 1 1 
1 1 1 1 1 1 1 1 1 
1 1 1 1 1 1 1 1 1 
1 1 1 1 1 1 1 1 1 
1 1 1 1 1 1 1 1 1 
1 1 1 1 1 1 1 1 1 
1 1 1 1 1 1 1 1 1 
1 1 1 1 1 1 1 1 1 
1 1 1 1 1 1 1 1 1 
1 1 1 1 1 1 1 1 1 
1 1 1 1 1 1 1 1 1 
1 1 1 1 1 1 1 1 1 
1 1 1 1 1 1 1 1 1 
1 1 1 1 1 1 1 1 1 
1 1 1 1 1 1 1 1 1 
1 1 1 1 1 1 1 1 1 
1 1 1 1 1 1 1 1 1 
1 1 1 1 1 1 1 1 1 
1 1 1 1 1 1 1 1 1 
1 1 1 1 1 1 1 1 1 
1 1 1 1 1 1 1 1 1 
1 1 1 1 1 1 1 1 1 
1 1 1 1 1 1 1 1 1 
1 1 1 1 1 1 1 1 1 
1 1 1 1 1 1 1 1 1 
1 1 1 1 1 1 1 1 1 
1 1 1 1 1 1 1 1 1 
1 1 1 1 1 1 1 1 1 
1 1 1 1 1 1 1 1 1 
1 1 1 1 1 1 1 1 1 
1 1 1 1 1 1 1 1 1 
1 1 1 1 1 1 1 1 1 
1 1 1 1 1 1 1 1 1 
1 1 1 1 1 1 1 1 1 
1 1 1 1 1 1 1 1 1 
1 1 1 1 1 1 1 1 1 
1 1 1 1 1 1 1 1 1 
1 1 1 1 1 1 1 1 1 
1 1 1 1 1 1 1 1 1 
1 1 1 1 1 1 1 1 1 
1 1 1 1 1 1 1 1 1 
1 1 1 1 1 1 1 1 1 
1 1 1 1 1 1 1 1 1 
1 1 1 1 1 1 1 1 1 
1 1 1 1 1 1 1 1 1 
1 1 1 1 1 1 1 1 1 
1 1 1 1 1 1 1 1 1 
1 1 1 1 1 1 1 1 1 
1 1 1 1 1 1 1 1 1 
1 1 1 1 1 1 1 1 1 
1 1 1 1 1 1 1 1 1 
1 1 1 1 1 1 1 1 1 
1 1 1 1 1 1 1 1 1 
1 1 1 1 1 1 1 1 1 
1 1 1 1 1 1 1 1 1 
1 1 1 1 1 1 1 1 1 
1 1 1 1 1 1 1 1 1 
1 1 1 1 1 1 1 1 1 
1 1 1 1 1 1 1 1 1 
1 1 1 1 1 1 1 1 1 
1 1 1 1 1 1 1 1 1 
1 1 1 1 1 1 1 1 1 
1 1 1 1 1 1 1 1 1 
1 1 1 1 1 1 1 1 1 
1 1 1 1 1 1 1 1 1 
1 1 1 1 1 1 1 1 1 
1 1 1 1 1 1 1 1 1 
1 1 1 1 1 1 1 1 1 
1 1 1 1 1 1 1 1 1 
1 1 1 1 1 1 1 1 1 
1 1 1 1 1 1 1 1 1 
1 1 1 1 1 1 1 1 1 
1 1 1 1 1 1 1 1 1 
1 1 1 1 1 1 
i 3 780 int
0 0 0 0 0 0 0 0 0 
0 0 0 0 0 0 0 0 0 
0 0 0 0 0 0 0 0 0 
0 0 0 0 0 0 0 0 0 
0 0 0 0 0 0 0 0 0 
0 0 0 0 0 0 0 0 0 
0 0 0 0 0 0 0 0 0 
0 0 0 0 0 0 0 0 0 
0 0 0 0 0 0 0 0 0 
0 0 0 0 0 0 0 0 0 
0 0 0 0 0 0 0 0 0 
0 0 0 0 0 0 0 0 0 
0 0 0 0 0 0 0 0 0 
0 0 0 0 0 0 0 0 0 
0 0 0 0 0 0 0 0 0 
0 0 0 0 0 0 0 0 0 
0 0 0 0 0 0 0 0 0 
0 0 0 0 0 0 0 0 0 
0 0 0 0 0 0 0 0 0 
0 0 0 0 0 0 0 0 0 
0 0 0 0 0 0 0 0 0 
0 0 0 0 0 0 0 0 0 
0 0 0 0 0 0 0 0 0 
0 0 0 0 0 0 0 0 0 
0 0 0 0 0 0 0 0 0 
0 0 0 0 0 0 0 0 0 
0 0 0 0 0 0 0 0 0 
0 0 0 0 0 0 0 0 0 
0 0 0 0 0 0 0 0 0 
0 0 0 0 0 0 0 0 0 
0 0 0 0 0 0 0 0 0 
0 0 0 0 0 0 0 0 0 
0 0 0 0 0 0 0 0 0 
0 0 0 0 0 0 0 0 0 
0 0 0 0 0 0 0 0 0 
0 0 0 0 0 0 0 0 0 
0 0 0 0 0 0 0 0 0 
0 0 0 0 0 0 0 0 0 
0 0 0 0 0 0 0 0 0 
0 0 0 0 0 0 0 0 0 
0 0 0 0 0 0 0 0 0 
0 0 0 0 0 0 0 0 0 
0 0 0 0 0 0 0 0 0 
0 0 0 0 0 0 0 0 0 
0 0 0 0 0 0 0 0 0 
0 0 0 0 0 0 0 0 0 
0 0 0 0 0 0 0 0 0 
0 0 0 0 0 0 0 0 0 
0 0 0 0 0 0 0 0 0 
0 0 0 0 0 0 0 0 0 
0 0 0 0 0 0 0 0 0 
0 0 0 0 0 0 0 0 0 
0 0 0 0 0 0 0 0 0 
0 0 0 0 0 0 0 0 0 
0 0 0 0 0 0 0 0 0 
0 0 0 0 0 0 0 0 0 
0 0 0 0 0 0 0 0 0 
0 0 0 0 0 0 0 0 0 
0 0 0 0 0 0 0 0 0 
0 0 0 0 0 0 0 0 0 
0 0 0 0 0 0 0 0 0 
0 0 0 0 0 0 0 0 0 
0 0 0 0 0 0 0 0 0 
0 0 0 0 0 0 0 0 0 
0 0 0 0 0 0 0 0 0 
0 0 0 0 0 0 0 0 0 
0 0 0 0 0 0 0 0 0 
0 0 0 0 0 0 0 0 0 
0 0 0 0 0 0 0 0 0 
0 0 0 0 0 0 0 0 0 
0 0 0 0 0 0 0 0 0 
0 0 0 0 0 0 0 0 0 
0 0 0 0 0 0 0 0 0 
0 0 0 0 0 0 0 0 0 
0 0 0 0 0 0 0 0 0 
0 0 0 0 0 0 0 0 0 
0 0 0 0 0 0 0 0 0 
0 0 0 0 0 0 0 0 0 
0 0 0 0 0 0 0 0 0 
0 0 0 0 0 0 0 0 0 
0 0 0 0 0 0 0 0 0 
0 0 0 0 0 0 0 0 0 
0 0 0 0 0 0 0 0 0 
0 0 0 0 0 0 0 0 0 
0 0 0 0 0 0 0 0 0 
0 0 0 0 0 0 0 0 0 
0 0 0 0 0 0 0 0 0 
0 0 0 0 0 0 0 0 0 
0 0 0 0 0 0 0 0 0 
0 0 0 0 0 0 0 0 0 
0 0 0 0 0 0 0 0 0 
0 0 0 0 0 0 0 0 0 
0 0 0 0 0 0 0 0 0 
0 0 0 0 0 0 0 0 0 
0 0 0 0 0 0 0 0 0 
0 0 0 0 0 0 0 0 0 
0 0 0 0 0 0 0 0 0 
0 0 0 0 0 0 0 0 0 
0 0 0 0 0 0 0 0 0 
0 0 0 0 0 0 0 0 0 
0 0 0 0 0 0 0 0 0 
0 0 0 0 0 0 0 0 0 
0 0 0 0 0 0 0 0 0 
0 0 0 0 0 0 0 0 0 
0 0 0 0 0 0 0 0 0 
0 0 0 0 0 0 0 0 0 
0 0 0 0 0 0 0 0 0 
0 0 0 0 0 0 0 0 0 
0 0 0 0 0 0 0 0 0 
0 0 0 0 0 0 0 0 0 
0 0 0 0 0 0 0 0 0 
0 0 0 0 0 0 0 0 0 
0 0 0 0 0 0 0 0 0 
0 0 0 0 0 0 0 0 0 
0 0 0 0 0 0 0 0 0 
0 0 0 0 0 0 0 0 0 
0 0 0 0 0 0 0 0 0 
0 0 0 0 0 0 0 0 0 
0 0 0 0 0 0 0 0 0 
0 0 0 0 0 0 0 0 0 
0 0 0 0 0 0 0 0 0 
0 0 0 0 0 0 0 0 0 
0 0 0 0 0 0 0 0 0 
0 0 0 0 0 0 0 0 0 
0 0 0 0 0 0 0 0 0 
0 0 0 0 0 0 0 0 0 
0 0 0 0 0 0 0 0 0 
0 0 0 0 0 0 0 0 0 
0 0 0 0 0 0 0 0 0 
0 0 0 0 0 0 0 0 0 
0 0 0 0 0 0 0 0 0 
0 0 0 0 0 0 0 0 0 
0 0 0 0 0 0 0 0 0 
0 0 0 0 0 0 0 0 0 
0 0 0 0 0 0 0 0 0 
0 0 0 0 0 0 0 0 0 
0 0 0 0 0 0 0 0 0 
0 0 0 0 0 0 0 0 0 
0 0 0 0 0 0 0 0 0 
0 0 0 0 0 0 0 0 0 
0 0 0 0 0 0 0 0 0 
0 0 0 0 0 0 0 0 0 
0 0 0 0 0 0 0 0 0 
0 0 0 0 0 0 0 0 0 
0 0 0 0 0 0 0 0 0 
0 0 0 0 0 0 0 0 0 
0 0 0 0 0 0 0 0 0 
0 0 0 0 0 0 0 0 0 
0 0 0 0 0 0 0 0 0 
0 0 0 0 0 0 0 0 0 
0 0 0 0 0 0 0 0 0 
0 0 0 0 0 0 0 0 0 
0 0 0 0 0 0 0 0 0 
0 0 0 0 0 0 0 0 0 
0 0 0 0 0 0 0 0 0 
0 0 0 0 0 0 0 0 0 
0 0 0 0 0 0 0 0 0 
0 0 0 0 0 0 0 0 0 
0 0 0 0 0 0 0 0 0 
0 0 0 0 0 0 0 0 0 
0 0 0 0 0 0 0 0 0 
0 0 0 0 0 0 0 0 0 
0 0 0 0 0 0 0 0 0 
0 0 0 0 0 0 0 0 0 
0 0 0 0 0 0 0 0 0 
0 0 0 0 0 0 0 0 0 
0 0 0 0 0 0 0 0 0 
0 0 0 0 0 0 0 0 0 
0 0 0 0 0 0 0 0 0 
0 0 0 0 0 0 0 0 0 
0 0 0 0 0 0 0 0 0 
0 0 0 0 0 0 0 0 0 
0 0 0 0 0 0 0 0 0 
0 0 0 0 0 0 0 0 0 
0 0 0 0 0 0 0 0 0 
0 0 0 0 0 0 0 0 0 
0 0 0 0 0 0 0 0 0 
0 0 0 0 0 0 0 0 0 
0 0 0 0 0 0 0 0 0 
0 0 0 0 0 0 0 0 0 
0 0 0 0 0 0 0 0 0 
0 0 0 0 0 0 0 0 0 
0 0 0 0 0 0 0 0 0 
0 0 0 0 0 0 0 0 0 
0 0 0 0 0 0 0 0 0 
0 0 0 0 0 0 0 0 0 
0 0 0 0 0 0 0 0 0 
0 0 0 0 0 0 0 0 0 
0 0 0 0 0 0 0 0 0 
0 0 0 0 0 0 0 0 0 
0 0 0 0 0 0 0 0 0 
0 0 0 0 0 0 0 0 0 
0 0 0 0 0 0 0 0 0 
0 0 0 0 0 0 0 0 0 
0 0 0 0 0 0 0 0 0 
0 0 0 0 0 0 0 0 0 
0 0 0 0 0 0 0 0 0 
0 0 0 0 0 0 0 0 0 
0 0 0 0 0 0 0 0 0 
0 0 0 0 0 0 0 0 0 
0 0 0 0 0 0 0 0 0 
0 0 0 0 0 0 0 0 0 
0 0 0 0 0 0 0 0 0 
0 0 0 0 0 0 0 0 0 
0 0 0 0 0 0 0 0 0 
0 0 0 0 0 0 0 0 0 
0 0 0 0 0 0 0 0 0 
0 0 0 0 0 0 0 0 0 
0 0 0 0 0 0 0 0 0 
0 0 0 0 0 0 0 0 0 
0 0 0 0 0 0 0 0 0 
0 0 0 0 0 0 0 0 0 
0 0 0 0 0 0 0 0 0 
0 0 0 0 0 0 0 0 0 
0 0 0 0 0 0 0 0 0 
0 0 0 0 0 0 0 0 0 
0 0 0 0 0 0 0 0 0 
0 0 0 0 0 0 0 0 0 
0 0 0 0 0 0 0 0 0 
0 0 0 0 0 0 0 0 0 
0 0 0 0 0 0 0 0 0 
0 0 0 0 0 0 0 0 0 
0 0 0 0 0 0 0 0 0 
0 0 0 0 0 0 0 0 0 
0 0 0 0 0 0 0 0 0 
0 0 0 0 0 0 0 0 0 
0 0 0 0 0 0 0 0 0 
0 0 0 0 0 0 0 0 0 
0 0 0 0 0 0 0 0 0 
0 0 0 0 0 0 0 0 0 
0 0 0 0 0 0 0 0 0 
0 0 0 0 0 0 0 0 0 
0 0 0 0 0 0 0 0 0 
0 0 0 0 0 0 0 0 0 
0 0 0 0 0 0 0 0 0 
0 0 0 0 0 0 0 0 0 
0 0 0 0 0 0 0 0 0 
0 0 0 0 0 0 0 0 0 
0 0 0 0 0 0 0 0 0 
0 0 0 0 0 0 0 0 0 
0 0 0 0 0 0 0 0 0 
0 0 0 0 0 0 0 0 0 
0 0 0 0 0 0 0 0 0 
0 0 0 0 0 0 0 0 0 
0 0 0 0 0 0 0 0 0 
0 0 0 0 0 0 0 0 0 
0 0 0 0 0 0 0 0 0 
0 0 0 0 0 0 0 0 0 
0 0 0 0 0 0 0 0 0 
0 0 0 0 0 0 0 0 0 
0 0 0 0 0 0 0 0 0 
0 0 0 0 0 0 0 0 0 
0 0 0 0 0 0 0 0 0 
0 0 0 0 0 0 0 0 0 
0 0 0 0 0 0 0 0 0 
0 0 0 0 0 0 0 0 0 
0 0 0 0 0 0 0 0 0 
0 0 0 0 0 0 0 0 0 
0 0 0 0 0 0 0 0 0 
0 0 0 0 0 0 0 0 0 

v 3 780 double
0 0 -1 0 0 -1 -1.127 0.00706554 -1.80682 
-1.11982 0.054048 -1.81829 -1.25129 0.122772 -1.7824 -1.18765 0.0540333 -1.7771 
-1.19603 0.0530832 -1.77473 -1.18543 0.0175571 -1.7215 -1.17839 0.0211692 -1.72416 
-1.26834 -0.0207936 -1.75182 -1.16776 0.0724586 -1.72203 -1.24546 0.0513306 -1.64304 
-1.18361 -0.0528103 -1.66553 -1.04352 -0.042083 -1.67004 -1.19366 0.102042 -1.64073 
-1.23072 0.093899 -1.63398 -1.2655 -0.225398 -1.70302 -1.06692 -0.0515962 -1.63778 
-1.23894 -0.418897 -1.81072 -1.22797 -0.377059 -1.62319 -1.10183 0.0117228 -1.51372 
-1.15886 -0.0318438 -1.48117 -0.998737 -0.0314326 -1.47274 -1.12157 -0.0281802 -1.48748 
-1.27003 0.0111435 -1.385 -1.10511 -0.0595757 -1.44538 -1.09743 -0.0519123 -1.41134 
-1.05582 -0.0413377 -1.3795 -1.12424 -0.0138933 -1.38765 -1.12174 0.0429117 -1.32874 
-1.13017 0.00827489 -1.34166 -1.12779 0.0325185 -1.36708 -1.17182 0.00174898 -1.33359 
-1.21845 -0.263145 -1.25085 -1.14839 0.0644095 -1.30209 -1.18482 0.0722427 -1.16538 
-1.18335 -0.261397 -1.30344 -1.22725 -0.0591901 -1.32586 -1.32046 -0.122847 -1.36216 
-1.0368 -0.061578 -1.32155 -1.15612 0.0129947 -1.20126 -1.04981 -0.09422 -1.3164 
-1.17167 -0.121792 -1.22451 -1.15596 -0.0301799 -1.12163 -1.10445 -0.00921821 -1.17924 
-1.10415 0.0529525 -1.15985 -1.16044 0.0863519 -1.12958 -1.12561 0.11259 -1.1857 
-1.17175 -0.0150631 -1.04405 -1.1199 -0.0434071 -1.15927 -1.23057 -0.0457108 -1.1657 
-1.12507 0.126267 -1.16328 -1.20407 -0.0313051 -1.09557 -1.0982 0.0331919 -1.09384 
-1.10072 0.0408203 -1.09335 -1.02291 0.06165 -1.05409 -1.00542 0.152193 -1.06846 
-1.11456 0.174963 -1.07787 -1.13646 -0.0386955 -1.04958 -1.07032 0.0212318 -1.09519 
-1.11593 -0.0490146 -1.06913 -1.0907 -0.0150395 -1.15851 -1.00833 0.123384 -0.999413 
-1.13289 -0.046527 -1.0058 -1.06593 -0.00967344 -1.0039 -1.13591 -0.0301187 -1.27128 
-1.13553 0.086544 -0.989599 -1.15359 0.0736842 -1.01084 -1.03658 0.023447 -1.03531 
-0.987541 0.0691962 -0.985287 -1.08282 0.0357118 -0.924926 -1.10137 0.0724678 -0.963319 
-1.09209 -0.0619901 -0.967261 -1.13766 0.219936 -1.03703 -1.15474 0.0173109 -0.978175 
-0.969303 0.0176072 -0.864089 -1.10567 0.0582141 -0.895561 -1.07999 0.0605004 -0.883996 
-1.09378 0.0507524 -0.819626 -1.24198 0.142669 -0.89657 -1.17675 -0.15996 -0.876056 
-1.19415 -0.352798 -0.915254 -1.19959 0.153059 -0.850754 -1.15975 -0.153784 -0.843501 
-1.10591 -0.132975 -0.782302 -1.12625 -0.017849 -0.721877 -1.02681 0.0189348 -0.73818 
-1.32811 0.0484367 -0.94784 -1.05533 0.007542 -0.728743 -1.00914 0.0655862 -0.71761 
-1.02662 0.0330769 -0.626211 -1.0947 -0.0154384 -0.667469 -1.1504 -0.130621 -0.74535 
-1.06282 0.127956 -0.668777 -1.11336 0.0338284 -0.631077 -1.07382 0.0821355 -0.592492 
-1.06358 0.0776617 -0.595677 -1.01025 0.00303326 -0.586853 -1.00453 -0.0192123 -0.591269 
-1.10101 -0.176473 -0.657722 -1.02097 0.174059 -0.58014 -1.06987 0.0163512 -0.607806 
-1.08505 0.0172826 -0.545631 -1.1546 0.0961307 -0.575836 -1.09926 0.148192 -0.519961 
-0.972814 0.0975386 -0.513097 -1.0772 0.143401 -0.503258 -0.988927 0.0288167 -0.528554 
-1.02217 -0.00249884 -0.542768 -0.985408 0.0234253 -0.611455 -1.06778 -0.140158 -0.548505 
-0.86721 0.108018 -0.451651 -1.08578 -0.0401915 -0.529034 -1.17652 0.0340392 -0.511707 
-1.0933 0.0642048 -0.467405 -0.97989 -0.14697 -0.327184 -0.944652 -0.171786 -0.45234 
-0.971975 0.0252326 -0.358476 -1.14753 -0.0645282 -0.470586 -1.10328 -0.0442321 -0.46902 
-1.09481 -0.087535 -0.580548 -1.24116 0.457496 -0.77257 -1.14716 0.239158 -0.485612 
-1.21188 0.0458616 -0.478428 -1.1806 0.0944625 -0.553304 -1.01089 -0.0581733 -0.342242 
-1.00072 -0.0993135 -0.401406 -0.976433 -0.106236 -0.418303 -0.954201 -0.063328 -0.3943 
-0.957584 -0.0590429 -0.413845 -0.943674 -0.0732717 -0.333848 -1.01185 0.0649582 -0.510824 
-0.940369 0.0354921 -0.38633 -1.19766 -0.255713 -0.556808 -1.21486 0.105019 -0.489961 
-1.09527 0.0418923 -0.46533 -1.03543 -0.19713 -0.645129 -1.10716 0.0603175 -0.469756 
-0.958125 -0.0563113 -0.406814 -0.894996 -0.163039 -0.382508 -1.01062 -0.126376 -0.4335 
-0.98858 0.056888 -0.388259 -0.82205 -0.00772463 -0.267283 -0.775442 0.056717 -0.351932 
-0.973701 -0.0431275 -0.392363 -1.04479 -0.0400035 -0.443449 -0.979598 -0.0458396 -0.456492 
-1.11159 -0.0129836 -0.469606 -1.15754 -0.294199 -0.533011 -1.08385 0.0318213 -0.458467 
-0.915283 0.103708 -0.396369 -1.02349 0.0551306 -0.422327 -0.807892 -0.077021 -0.33827 
-1.01346 0.0230585 -0.425536 -0.935233 -0.0603498 -0.373452 -1.05621 0.0290723 -0.444472 
-1.0248 -0.147482 -0.442255 -1.06634 0.0555911 -0.433596 -1.38782 0.160646 -1.00188 
-0.938276 0.253042 -0.421682 -0.992844 0.00218006 -0.365583 -1.1851 -0.0999163 -0.830229 
-0.692915 -0.0548516 -0.290692 -0.906895 -0.0123591 -0.386119 -1.06119 -0.0101388 -0.447774 
-0.892127 -0.021108 -0.377531 -0.950446 -0.127933 -0.411632 -0.970474 0.0389354 -0.408147 
-0.976778 0.00832813 -0.406369 -1.23013 -0.053967 -0.495411 -1.01014 0.0369474 -0.428534 
-1.02146 -0.0125354 -0.425953 -0.963756 0.0458313 -0.406604 -1.00924 0.0998067 -0.397352 
-0.964767 -0.0250182 -0.401182 -0.910145 -0.043947 -0.377874 -0.933749 0.0149083 -0.418285 
-0.957109 -0.000508108 -0.326818 -0.935653 0.0487149 -0.395196 -1.17362 -0.272515 -0.614593 
-1.16806 -0.255317 -0.597653 -1.17864 0.260776 -0.664703 -1.0735 0.222791 -0.516666 
-1.07312 0.205042 -0.500883 -1.13247 -0.0539809 -0.450664 -0.928569 -0.051818 -0.375996 
-0.825839 0.0695528 -0.353043 -0.980799 0.0515231 -0.414512 -1.04264 4.51239e-05 -0.443367 
-0.96431 0.0310729 -0.397458 -1.11853 -0.00933527 -0.48011 -0.899853 -0.00391135 -0.371495 
-1.01061 0.120087 -0.438719 -1.00845 0.0258348 -0.420741 -0.941098 -0.0274388 -0.39777 
-1.07687 0.0326531 -0.422042 -1.0053 -0.0604239 -0.40948 -0.950362 -0.10348 -0.39957 
-0.817655 -0.0412004 -0.344783 -0.978958 0.00365447 -0.411783 -0.886482 0.100437 -0.367143 
-1.02782 -0.0141591 -0.900627 -0.924739 -0.14734 -0.409331 -0.904072 0.0384057 -0.380307 
-0.974502 0.0527535 -0.507599 -0.744476 -0.022482 -0.320704 -0.794562 0.0337463 -0.333909 
-0.838845 -0.0671662 -0.365998 -0.996819 0.42004 -0.6623 -0.868224 0.0142576 -0.393087 
-1.07801 0.269383 -0.498058 -1.01985 0.149055 -0.434789 -0.825089 -0.126564 -0.319955 
-0.947188 -0.0902072 -0.402521 -0.739639 -0.0296077 -0.313087 -0.75772 -0.0139397 -0.324807 
-0.796668 -0.00370016 -0.329419 -0.909064 -0.13717 -0.405317 -0.879344 -0.0143399 -0.400455 
-0.836113 0.0139669 -0.343627 -1.03738 -0.0605849 -0.4411 -0.922259 0.0314588 -0.383349 
-1.00397 0.0343833 -0.412365 -0.933128 -0.0187243 -0.404985 -0.810992 -0.368843 -0.467727 
-0.869353 -0.0941098 -0.313203 -0.862434 0.291835 -0.420903 -0.995836 0.0343897 -0.440671 
-1.27016 -0.19025 -0.38223 -0.717288 -0.0365627 -0.293923 -0.921311 -0.00287429 -0.394589 
-0.753562 0.0860771 -0.184065 -0.793978 -0.00861555 -0.323956 -1.02804 -0.0353096 -0.430081 
-1.03918 -0.0327001 -0.445037 -1.01041 0.228064 -0.516082 -0.899417 0.247981 -0.42101 
-0.88915 0.0660218 -0.387475 -0.836713 0.000619729 -0.358507 -0.818504 -0.0507495 -0.356039 
-0.63296 -0.00683333 -0.290628 -1.10204 -0.0775282 -0.118754 -0.9316 0.086037 -0.595037 
-0.738779 0.0193277 -0.305945 -1.26285 -0.0528235 -0.43012 -0.65812 -0.0295618 -0.278976 
-0.867997 0.000509192 -0.371702 -0.892424 -0.0207368 -0.383263 -0.799926 0.164702 -0.262571 
-0.878706 -0.141958 -0.401585 -1.04311 -0.018956 -0.429884 -1.07028 -0.0930155 -0.457799 
-0.939872 0.155015 -0.446153 -1.28136 -0.273859 -0.828092 -0.894791 -0.0104782 -0.382579 
-0.791324 -0.05922 -0.339133 -0.75106 0.042692 -0.438001 -0.743588 -0.0252191 -0.30941 
-0.829147 0.0197262 -0.352221 -0.78772 0.153768 -0.345329 -0.883973 0.0605512 -0.372228 
-0.685704 -0.0462294 -0.278889 -0.508966 -0.00874069 -0.211077 -0.606754 0.166034 -0.247645 
-1.32426 0.0747185 -0.427969 -0.751248 -0.0234858 -0.312244 -0.868228 0.0386047 -0.366685 
-0.848202 -0.0419143 -0.351052 -0.864471 -0.00825685 -0.363382 -0.819285 -0.0625257 -0.345735 
-0.660784 -0.124935 -0.306578 -0.766924 -0.00425891 -0.422942 -0.941639 -0.0511406 -0.395278 
-0.698638 0.0513285 -0.307463 -0.822374 0.00180154 -0.35195 -0.757369 -0.0612597 -0.305418 
-0.697697 -0.0673436 -0.297142 -0.624662 0.0116507 -0.220456 -0.60194 0.00128509 -0.22004 
-0.719052 -0.024505 -0.186931 -0.877281 -0.120333 -0.167681 -0.665139 0.0368619 -0.285788 
-0.700602 0.133152 -0.302451 -0.782521 0.0773723 -0.170187 -0.778318 -0.040967 -0.308693 
-0.819104 0.126092 -0.324235 -0.726633 0.0677348 -0.302472 -0.731822 0.0559322 -0.302966 
-0.714909 0.0466174 -0.301497 -0.952042 -0.0622596 -0.41326 -0.752837 -0.0432292 -0.330896 
-1.05792 0.141845 -0.438905 -0.773002 -0.0913886 -0.34649 -0.912363 -0.0533717 -0.395908 
-0.889343 -0.0568676 -0.37318 -1.10405 0.0926319 -0.451479 -0.998538 0.0926052 -0.426041 
-0.750695 0.153616 -0.352293 -0.9046 0.00629151 -0.213551 -0.6104 -0.0168884 -0.268221 
-0.688388 0.0530385 -0.281307 -0.741336 0.108624 -0.318749 -0.778281 -0.0390804 -0.244812 
-0.773919 0.0492928 -0.324899 -0.85529 0.0268784 -0.358105 -1.08167 -0.0470161 -0.611975 
-1.1454 0.00988138 -0.443663 -0.705256 0.100128 -0.292986 -0.829037 -0.00817117 -0.353072 
-0.823776 0.0238364 -0.341604 -0.81615 0.00428312 -0.339902 -0.711918 -0.130721 -0.320429 
-0.679496 -0.138278 -0.435888 -0.9 -0.14145 -0.388716 -1.09797 -0.0400572 -0.461558 
-0.96048 0.0149718 -0.344562 -0.761971 0.0925072 -0.346492 -0.773212 -0.00472116 -0.318662 
-0.717292 0.0270138 -0.300772 -0.737618 0.0662129 -0.302364 -0.723277 0.0347634 -0.304474 
-0.83279 -0.0323998 -0.356714 -0.835272 -0.107392 -0.364174 -0.92323 0.00811973 -0.384603 
-1.04312 0.0889975 -0.44911 -0.877758 0.0645314 -0.372644 -0.804273 0.069882 -0.3435 
-0.816004 -0.112133 -0.302528 -0.570071 0.188048 -0.259839 -0.866089 -0.121612 -0.331494 
-0.903286 -0.0442102 -0.22925 -0.739548 -0.0106659 -0.302368 -0.715418 -0.0338162 -0.307952 
-0.701176 -0.0936239 -0.303448 -0.711064 0.0615821 -0.295592 -0.762987 0.0475921 -0.344438 
-0.778042 0.0803841 -0.316555 -0.950316 -0.141196 -0.408095 -1.07558 0.129575 -0.372806 
-0.883435 -0.0668655 -0.40338 -0.80032 -0.0421952 -0.315749 -0.792421 -0.037255 -0.325821 
-0.641781 -0.150297 -0.199427 -0.803464 0.0240849 -0.345215 -1.03201 -0.0721621 -0.263078 