# vtk DataFile Version 4.0
Generated by LIGGGHTS
ASCII
DATASET POLYDATA
POINTS 848 float
-0.00692483 0.00349706 0.0476701 -0.015855 0.0320566 0.0469325 -0.0261149 0.0255636 0.0477013 
-0.000295991 0.000436731 0.0502026 -0.00991507 -0.0320107 0.0506426 -0.0196022 -0.00362356 0.0484506 
-0.0196931 -0.0139167 0.0487988 -0.0287941 -0.0161815 0.0458275 -0.0255053 -0.0341822 0.0456874 
-0.00771927 0.0341602 0.0436005 -0.016568 0.000708187 0.0427745 -0.022548 0.0197769 0.0444847 
-0.00147471 0.00812465 0.0404682 -0.44554 -0.00356518 -0.398661 -0.451972 0.00140269 -0.400029 
-0.469675 0.0264208 -0.39694 -0.443418 -0.00471957 -0.394738 -0.482126 0.0308551 -0.3907 
-0.447403 -0.0114214 -0.38842 -0.457597 0.0287904 -0.38788 -0.447471 -0.00462978 -0.38155 
-0.443716 -0.00125619 -0.379775 -0.44702 0.00219837 -0.381243 -0.469091 0.00904223 -0.379858 
-0.443933 0.00763535 -0.380872 -0.452325 0.0312826 -0.378643 -0.422846 -0.00872934 -0.376295 
-0.442605 -0.00462158 -0.377459 -0.445307 0.00209233 -0.374115 -0.460086 0.0308048 -0.375478 
-0.44259 -0.0148119 -0.371755 -0.439833 -0.003035 -0.371873 -0.433368 0.00648887 -0.367214 
-0.424982 0.00517565 -0.369185 -0.434013 0.0215206 -0.368237 -0.43959 0.0282315 -0.369501 
-0.452141 0.0357654 -0.368264 -0.433952 -0.02929 -0.366887 -0.428647 0.000468995 -0.364885 
-0.0128841 0.0131752 0.0428071 -0.444367 -0.0157694 -0.361123 -0.439994 -0.0126341 -0.362166 
-0.420391 -0.00916141 -0.360944 -0.412385 0.00900377 -0.359989 -0.448444 0.0298664 -0.362085 
-0.420665 -0.0105275 -0.356401 -0.424342 -0.00478434 -0.35612 -0.436447 0.0249002 -0.358034 
-0.421513 0.00506337 -0.354089 -0.425052 0.0111917 -0.352255 -0.418917 0.00851311 -0.352595 
-0.414211 0.00908795 -0.354819 -0.448042 -0.0095314 -0.34865 -0.445344 -0.00959223 -0.351215 
-0.425963 -0.00175798 -0.348759 -0.40998 0.000945398 -0.350665 -0.429773 0.0132929 -0.351016 
-0.427308 -0.0164636 -0.345793 -0.445462 -0.0128324 -0.347737 -0.410747 -0.00793285 -0.345529 
-0.423957 -0.00501934 -0.345115 -0.462819 0.0341968 -0.345546 -0.44663 -0.0218364 -0.342124 
-0.419352 0.00328727 -0.341593 -0.427683 0.004607 -0.343095 -0.405367 0.00625292 -0.342175 
-0.437136 0.00915272 -0.341644 -0.440461 -0.0219933 -0.341313 -0.424853 0.000199926 -0.338526 
-0.424506 0.00529651 -0.338218 -0.406321 0.00646216 -0.338365 -0.400147 0.00793973 -0.339087 
-0.441546 0.0214031 -0.339709 -0.433565 -0.02461 -0.335174 -0.413478 -0.0171834 -0.334879 
-0.435993 -0.0111596 -0.335839 -0.421962 0.00732157 -0.332822 -0.436531 0.030841 -0.333895 
-0.436497 -0.0182358 -0.332295 -0.432448 -0.00168144 -0.330471 -0.428683 -0.00342827 -0.333208 
-0.409212 -0.00406744 -0.331468 -0.438747 0.0125237 -0.331838 -0.439725 0.0208593 -0.331005 
-0.426167 -0.0103242 -0.326739 -0.42884 -0.00350072 -0.328825 -0.416614 0.000225367 -0.328475 
-0.421045 0.0144506 -0.328288 -0.423397 0.00089707 -0.324058 -0.409764 0.00939888 -0.323259 
-0.452839 -0.0443794 -0.320548 -0.442879 -0.0250668 -0.323404 -0.429319 -0.027166 -0.321995 
-0.426491 -0.00742907 -0.319846 -0.406479 0.00316299 -0.318833 -0.427156 0.00660439 -0.320857 
-0.418106 0.0126842 -0.31848 -0.420598 0.0151138 -0.32164 -0.420118 -0.00583534 -0.315232 
-0.422386 -0.0016984 -0.317068 -0.415435 -0.00104221 -0.314923 -0.409058 0.0198072 -0.315691 
-0.420644 0.0231034 -0.31645 -0.405142 0.019915 -0.314476 -0.423026 0.0385258 -0.313005 
-0.412464 -0.00614987 -0.308627 -0.411193 -0.00158763 -0.309171 -0.413422 0.00109341 -0.310284 
-0.410288 0.0053495 -0.306933 -0.403362 0.0181343 -0.310294 -0.423039 0.0269528 -0.30787 
-0.406671 -0.00585496 -0.303397 -0.407891 -0.00261879 -0.305605 -0.404706 0.018758 -0.303849 
-0.396645 0.024673 -0.304406 -0.41601 0.0258029 -0.306196 -0.403665 0.0309375 -0.306379 
-0.401951 -0.00891863 -0.299783 -0.402006 0.00310881 -0.299919 -0.396898 0.0125322 -0.302683 
-0.415241 0.0220401 -0.301841 -0.398119 0.0276143 -0.300946 -0.399477 -0.00580419 -0.29674 
-0.390979 0.00650512 -0.298271 -0.396961 0.0248321 -0.295414 -0.390371 -0.0143789 -0.294004 
-0.398155 -0.00989608 -0.293925 -0.39339 -0.00756813 -0.29348 -0.393445 -0.000407739 -0.295045 
-0.374946 0.0022341 -0.293663 -0.382781 0.00427161 -0.295754 -0.382328 0.0068033 -0.292012 
-0.389548 0.00753745 -0.292653 -0.39455 0.0122599 -0.292935 -0.391016 -0.00372304 -0.289597 
-0.381379 -0.000644986 -0.29118 -0.399244 0.0109769 -0.287876 -0.396311 -0.0238579 -0.285406 
-0.391149 -0.0163558 -0.283876 -0.390943 -0.012897 -0.286431 -0.379783 -0.00109733 -0.288091 
-0.387745 0.00348296 -0.284109 -0.383852 0.000919475 -0.285922 -0.389335 0.000408896 -0.280494 
-0.382253 0.00105909 -0.278797 -0.375428 0.00592765 -0.281205 -0.384458 0.00823642 -0.281915 
-0.3876 -0.0104341 -0.276856 -0.370779 -0.00186335 -0.276829 -0.365373 -0.00206202 -0.27708 
-0.378536 0.00187544 -0.277306 -0.375693 0.0118901 -0.279128 -0.41105 -0.00249924 -0.272166 
-0.373367 0.0024034 -0.275078 -0.361613 -0.000325128 -0.277622 -0.383687 0.00407838 -0.273889 
-0.376801 0.00395295 -0.272232 -0.394686 0.047989 -0.276245 -0.363254 -0.0192081 -0.269233 
-0.370767 -0.00779235 -0.269183 -0.367476 -0.005485 -0.269561 -0.368366 -0.00211817 -0.270256 
-0.368262 0.00085602 -0.269194 -0.370881 0.00490439 -0.272981 -0.377137 0.0276091 -0.269993 
-0.364644 -0.00910489 -0.265735 -0.365621 -0.00487672 -0.264982 -0.364075 0.00157178 -0.266785 
-0.371189 0.0051813 -0.26523 -0.364886 0.00496798 -0.267452 -0.375071 0.0242765 -0.268517 
-0.369079 -0.0320704 -0.26288 -0.368147 -0.0291976 -0.265131 -0.359127 -0.00663392 -0.262558 
-0.356323 -0.00471273 -0.260505 -0.360467 -0.000666275 -0.263131 -0.363322 0.00395209 -0.263518 
-0.35982 0.0307177 -0.260148 -0.376408 -0.0433463 -0.260368 -0.359816 -0.023824 -0.260092 
-0.354216 -0.0071894 -0.259092 -0.352964 0.00229037 -0.259318 -0.354388 0.0150947 -0.257448 
-0.366388 -0.0414739 -0.257951 -0.357971 -0.0290227 -0.255986 -0.346716 -0.0135528 -0.253072 
-0.348566 -0.00674068 -0.253606 -0.347643 9.13823e-05 -0.254091 -0.353373 0.00119167 -0.25491 
-0.344568 0.00279795 -0.2544 -0.343572 -0.0164287 -0.249778 -0.339401 -0.0161705 -0.248774 
-0.342343 -0.0112742 -0.251292 -0.336617 -0.00168809 -0.247684 -0.339166 0.0027697 -0.249527 
-0.34413 0.00648994 -0.252253 -0.343019 0.011291 -0.250113 -0.34342 0.0213008 -0.250272 
-0.3708 0.052115 -0.250398 -0.330589 -0.0101586 -0.245362 -0.328084 -0.00909055 -0.243848 
-0.330806 -0.00441388 -0.244312 -0.331255 -0.000733148 -0.246277 -0.333126 0.00264702 -0.247008 
-0.330129 0.00298694 -0.245483 -0.326351 0.00155833 -0.243743 -0.332048 0.0153237 -0.244092 
-0.334466 0.0262019 -0.244156 -0.321738 -0.0138476 -0.240839 -0.323596 -0.00440266 -0.242298 
-0.320031 -0.00230455 -0.24098 -0.322015 0.000278425 -0.241909 -0.320984 0.00304972 -0.241299 
-0.327834 0.00934037 -0.242844 -0.321462 0.0085973 -0.240064 -0.322863 0.0120816 -0.24152 
-0.32713 0.0165062 -0.241533 -0.322834 0.0150567 -0.241043 -0.328679 0.0216712 -0.241221 
-0.344229 0.0315124 -0.245528 -0.318092 -0.00469509 -0.24005 -0.311 -0.00424707 -0.237128 
-0.312393 9.41081e-05 -0.236781 -0.329194 0.00241811 -0.23982 -0.31404 0.00550961 -0.237132 
-0.319222 0.0131153 -0.238805 -0.323926 0.0203614 -0.239365 -0.311594 -0.0135368 -0.235351 
-0.3084 -0.00306313 -0.236074 -0.301148 -0.00250856 -0.233031 -0.307786 0.00138625 -0.234757 
-0.301151 0.000580748 -0.233096 -0.302374 0.012592 -0.232852 -0.309171 0.0166089 -0.235028 
-0.310825 0.020775 -0.233809 -0.316214 -0.0387964 -0.231465 -0.303923 -0.021472 -0.231868 
-0.298674 -0.00904991 -0.230579 -0.293966 -0.00191498 -0.230023 -0.304255 0.00455647 -0.23307 
-0.294744 0.00517282 -0.230105 -0.296006 0.00806148 -0.230454 -0.296181 0.0119086 -0.230282 
-0.300855 0.0157645 -0.230624 -0.299001 0.0204141 -0.230044 -0.306274 0.0242899 -0.232325 
-0.283932 -0.00306714 -0.225749 -0.290637 0.00431914 -0.227343 -0.290868 0.00890339 -0.228231 
-0.288073 0.008155 -0.227099 -0.288085 0.0180902 -0.225975 -0.295553 0.0209149 -0.228469 
-0.294665 0.0239636 -0.22704 -0.293163 0.0296153 -0.225514 -0.312216 0.0366719 -0.229745 
-0.285331 -0.0150103 -0.225407 -0.282111 -0.00993057 -0.223516 -0.286966 -0.00924457 -0.225633 
-0.280307 -0.00606002 -0.224119 -0.280664 0.00237025 -0.224347 -0.27912 -0.000346488 -0.223799 
-0.300817 0.03781 -0.225966 -0.275002 -0.0206388 -0.219659 -0.28166 -0.0189294 -0.222151 
-0.276175 -0.0180329 -0.221098 -0.272056 -0.0154724 -0.219773 -0.275008 -0.0129069 -0.221298 
-0.273213 -0.00913289 -0.220954 -0.275638 -0.00630213 -0.222178 -0.273588 -0.00225261 -0.221415 
-0.276112 0.000846593 -0.221414 -0.269137 -0.00113756 -0.219583 -0.273465 0.00418505 -0.221236 
-0.272642 0.0102826 -0.220558 -0.267939 0.00838138 -0.218678 -0.269544 0.0112367 -0.219144 
-0.274051 -0.0378435 -0.215056 -0.274966 -0.0307461 -0.217725 -0.272184 -0.0266245 -0.216588 
-0.266559 -0.00738749 -0.217171 -0.261236 -0.00903746 -0.215936 -0.26576 -0.00330597 -0.218077 
-0.261419 -0.0059281 -0.216151 -0.283204 0.00149391 -0.218585 -0.264842 0.00625938 -0.216403 
-0.265604 0.0111852 -0.217562 -0.267705 0.0165042 -0.217694 -0.263074 0.014388 -0.214973 
-0.266559 0.0264188 -0.21543 -0.278112 0.0313626 -0.21876 -0.287077 0.0452736 -0.215943 
-0.299286 0.0519499 -0.218215 -0.317093 -0.0623244 -0.216525 -0.272233 -0.0440766 -0.211806 
-0.26994 -0.037201 -0.213617 -0.26417 -0.0149323 -0.215428 -0.255723 -0.011463 -0.213365 
-0.256836 -0.00698197 -0.214161 -0.252438 -0.00577609 -0.212364 -0.25194 -0.00152886 -0.211259 
-0.26278 0.00167917 -0.215284 -0.253217 0.00257088 -0.212746 -0.247356 -0.000569645 -0.210382 
-0.25272 0.00560452 -0.212409 -0.255079 0.0171218 -0.212291 -0.258583 0.0237232 -0.212761 
-0.267959 -0.044192 -0.210122 -0.265325 -0.0394499 -0.211043 -0.26132 -0.0385803 -0.209535 
-0.256477 -0.0340413 -0.208187 -0.254008 -0.0199734 -0.210191 -0.246648 -0.0135959 -0.208138 
-0.245562 -0.00985398 -0.209255 -0.247935 -0.00442619 -0.209444 -0.243408 -0.00407976 -0.207335 
-0.244618 -0.000138133 -0.209208 -0.24359 0.00513534 -0.208578 -0.245858 0.00775249 -0.209425 
[...]
POINT_DATA 848
FIELD FieldData 7
id 1 848 int
1194 1197 1199 1198 1193 1196 1202 1195 1200 
1190 1192 1191 1189 382 409 384 315 444 
235 279 433 318 285 486 362 302 427 
203 387 268 313 258 336 441 370 397 
309 456 238 1201 374 350 237 291 425 
216 411 378 414 476 408 340 466 417 
389 401 424 396 440 416 358 509 355 
403 398 428 365 624 462 338 351 421 
326 471 455 400 394 434 346 328 473 
448 359 373 508 488 474 361 511 356 
538 598 522 301 479 334 404 406 375 
360 483 521 478 497 364 437 484 345 
325 453 536 519 319 385 454 546 475 
504 376 459 559 493 452 420 554 468 
451 496 489 458 415 558 531 442 413 
469 600 487 482 463 393 499 494 461 
503 380 477 465 357 431 392 481 579 
391 507 556 547 555 445 500 312 541 
435 412 582 542 501 523 426 457 524 
491 495 342 419 369 515 608 552 383 
460 505 498 562 548 640 502 464 631 
379 527 662 485 512 449 656 537 676 
682 716 588 564 467 651 516 402 550 
659 571 534 634 529 573 616 525 597 
563 572 576 669 532 517 602 630 658 
605 514 526 545 510 540 609 581 595 
590 702 574 577 561 589 528 557 535 
566 612 621 650 578 533 633 593 677 
708 520 603 544 668 539 601 666 626 
764 697 551 683 611 594 734 739 614 
617 518 506 570 700 443 675 652 436 
615 543 586 653 728 604 663 585 643 
661 623 619 648 791 599 715 655 639 
664 610 618 695 691 638 549 636 672 
480 584 607 681 692 694 580 629 717 
671 569 620 673 786 678 718 553 748 
705 725 684 606 592 768 721 646 770 
565 635 649 794 628 632 687 749 583 
654 670 752 627 667 567 685 657 513 
642 560 704 703 647 665 575 637 727 
644 759 720 432 698 645 613 625 699 
689 641 807 755 789 719 780 688 710 
591 760 690 686 596 622 587 737 733 
568 740 867 758 674 766 804 772 751 
793 711 788 784 802 709 731 741 745 
829 825 781 787 747 713 811 730 744 
735 767 812 779 693 835 742 722 696 
847 756 754 765 761 757 783 795 824 
680 778 706 743 785 723 799 792 750 
774 763 773 726 736 712 753 820 841 
660 701 707 826 729 798 822 746 819 
806 738 472 776 714 843 844 790 777 
875 808 828 801 800 840 839 769 771 
805 837 877 830 823 856 852 818 803 
851 907 858 900 859 880 821 816 797 
796 873 833 918 782 834 775 827 762 
868 809 842 813 941 814 899 913 914 
836 916 853 892 902 831 862 921 810 
869 838 679 857 846 944 946 849 951 
897 874 911 883 832 866 919 881 863 
815 845 878 961 864 848 924 993 882 
894 886 891 896 879 945 890 926 887 
932 971 732 850 817 905 922 908 917 
920 910 933 925 854 915 872 901 904 
895 935 928 871 855 903 893 937 940 
885 889 923 927 956 865 962 968 909 
981 954 898 876 861 936 884 966 955 
965 996 958 990 980 938 939 948 934 
929 947 988 950 957 963 1000 1031 1014 
994 1020 949 978 1021 870 979 998 1033 
952 986 973 1023 1019 1016 976 930 1015 
1018 1010 860 1013 975 972 987 982 989 
969 943 959 964 1001 1036 1034 1042 1037 
1022 912 1043 1007 1041 991 974 1032 984 
1011 985 1003 1004 1027 1005 724 953 960 
1045 1008 1035 1028 1059 1053 1029 1040 1044 
983 992 1009 1039 1012 997 967 1002 1046 
1057 1025 1060 970 942 1048 1063 1024 1049 
1052 1017 1030 977 1038 995 999 1050 1006 
1054 1026 931 1061 1062 1047 1051 1058 1055 
906 1056 1065 1076 1072 1075 1069 1074 1067 
1071 1070 1073 1064 1068 1085 1066 1087 1084 
888 1083 1082 1081 1080 1078 1077 1088 1086 
1096 1100 1079 1092 1094 1099 1091 1089 1101 
1095 1090 1098 1097 1107 1112 1093 1108 1103 
1102 1109 1105 1111 1104 1113 1106 1110 1120 
1114 1123 1125 1122 1117 1118 1119 1116 1115 
1121 1124 1126 1132 1130 1135 1137 1134 1136 
1131 1127 1138 1129 1133 1128 1146 1150 1147 
1145 1141 1140 1139 1149 1144 1143 1148 1142 
1160 1159 1153 1162 1151 1157 1152 1163 1158 
1155 1156 1161 1154 1166 1169 1172 1175 1165 
1167 1168 1176 1173 1164 1174 1170 1171 1179 
1178 1188 1183 1177 1187 1185 1182 1186 1180 
1181 1184 
type 1 848 int
1 1 1 1 1 1 1 1 1 
1 1 1 1 1 1 1 1 1 
1 1 1 1 1 1 1 1 1 
1 1 1 1 1 1 1 1 1 
1 1 1 1 1 1 1 1 1 
1 1 1 1 1 1 1 1 1 
1 1 1 1 1 1 1 1 1 
1 1 1 1 1 1 1 1 1 
1 1 1 1 1 1 1 1 1 
1 1 1 1 1 1 1 1 1 
1 1 1 1 1 1 1 1 1 
1 1 1 1 1 1 1 1 1 
1 1 1 1 1 1 1 1 1 
1 1 1 1 1 1 1 1 1 
1 1 1 1 1 1 1 1 1 
1 1 1 1 1 1 1 1 1 
1 1 1 1 1 1 1 1 1 
1 1 1 1 1 1 1 1 1 
1 1 1 1 1 1 1 1 1 
1 1 1 1 1 1 1 1 1 
1 1 1 1 1 1 1 1 1 
1 1 1 1 1 1 1 1 1 
1 1 1 1 1 1 1 1 1 
1 1 1 1 1 1 1 1 1 
1 1 1 1 1 1 1 1 1 
1 1 1 1 1 1 1 1 1 
1 1 1 1 1 1 1 1 1 
1 1 1 1 1 1 1 1 1 
1 1 1 1 1 1 1 1 1 
1 1 1 1 1 1 1 1 1 
1 1 1 1 1 1 1 1 1 
1 1 1 1 1 1 1 1 1 
1 1 1 1 1 1 1 1 1 
1 1 1 1 1 1 1 1 1 
1 1 1 1 1 1 1 1 1 
1 1 1 1 1 1 1 1 1 
1 1 1 1 1 1 1 1 1 
1 1 1 1 1 1 1 1 1 
1 1 1 1 1 1 1 1 1 
1 1 1 1 1 1 1 1 1 
1 1 1 1 1 1 1 1 1 
1 1 1 1 1 1 1 1 1 
1 1 1 1 1 1 1 1 1 
1 1 1 1 1 1 1 1 1 
1 1 1 1 1 1 1 1 1 
1 1 1 1 1 1 1 1 1 
1 1 1 1 1 1 1 1 1 
1 1 1 1 1 1 1 1 1 
1 1 1 1 1 1 1 1 1 
1 1 1 1 1 1 1 1 1 
1 1 1 1 1 1 1 1 1 
1 1 1 1 1 1 1 1 1 
1 1 1 1 1 1 1 1 1 
1 1 1 1 1 1 1 1 1 
1 1 1 1 1 1 1 1 1 
1 1 1 1 1 1 1 1 1 
1 1 1 1 1 1 1 1 1 
1 1 1 1 1 1 1 1 1 
1 1 1 1 1 1 1 1 1 
1 1 1 1 1 1 1 1 1 
1 1 1 1 1 1 1 1 1 
1 1 1 1 1 1 1 1 1 
1 1 1 1 1 1 1 1 1 
1 1 1 1 1 1 1 1 1 
1 1 1 1 1 1 1 1 1 
1 1 1 1 1 1 1 1 1 
1 1 1 1 1 1 1 1 1 
1 1 1 1 1 1 1 1 1 
1 1 1 1 1 1 1 1 1 
1 1 1 1 1 1 1 1 1 
1 1 1 1 1 1 1 1 1 
1 1 1 1 1 1 1 1 1 
1 1 1 1 1 1 1 1 1 
1 1 1 1 1 1 1 1 1 
1 1 1 1 1 1 1 1 1 
1 1 1 1 1 1 1 1 1 
1 1 1 1 1 1 1 1 1 
1 1 1 1 1 1 1 1 1 
1 1 1 1 1 1 1 1 1 
1 1 1 1 1 1 1 1 1 
1 1 1 1 1 1 1 1 1 
1 1 1 1 1 1 1 1 1 
1 1 1 1 1 1 1 1 1 
1 1 1 1 1 1 1 1 1 
1 1 1 1 1 1 1 1 1 
1 1 1 1 1 1 1 1 1 
1 1 1 1 1 1 1 1 1 
1 1 1 1 1 1 1 1 1 
1 1 1 1 1 1 1 1 1 
1 1 1 1 1 1 1 1 1 
1 1 1 1 1 1 1 1 1 
1 1 1 1 1 1 1 1 1 
1 1 1 1 1 1 1 1 1 
1 1 1 1 1 1 1 1 1 
1 1 
i 3 848 int
0 0 0 0 0 0 0 0 0 
0 0 0 0 0 0 0 0 0 
0 0 0 0 0 0 0 0 0 
0 0 0 0 0 0 0 0 0 
0 0 0 0 0 0 0 0 0 
0 0 0 0 0 0 0 0 0 
0 0 0 0 0 0 0 0 0 
0 0 0 0 0 0 0 0 0 
0 0 0 0 0 0 0 0 0 
0 0 0 0 0 0 0 0 0 
0 0 0 0 0 0 0 0 0 
0 0 0 0 0 0 0 0 0 
0 0 0 0 0 0 0 0 0 
0 0 0 0 0 0 0 0 0 
0 0 0 0 0 0 0 0 0 
0 0 0 0 0 0 0 0 0 
0 0 0 0 0 0 0 0 0 
0 0 0 0 0 0 0 0 0 
0 0 0 0 0 0 0 0 0 
0 0 0 0 0 0 0 0 0 
0 0 0 0 0 0 0 0 0 
0 0 0 0 0 0 0 0 0 
0 0 0 0 0 0 0 0 0 
0 0 0 0 0 0 0 0 0 
0 0 0 0 0 0 0 0 0 
0 0 0 0 0 0 0 0 0 
0 0 0 0 0 0 0 0 0 
0 0 0 0 0 0 0 0 0 
0 0 0 0 0 0 0 0 0 
0 0 0 0 0 0 0 0 0 
0 0 0 0 0 0 0 0 0 
0 0 0 0 0 0 0 0 0 
0 0 0 0 0 0 0 0 0 
0 0 0 0 0 0 0 0 0 
0 0 0 0 0 0 0 0 0 
0 0 0 0 0 0 0 0 0 
0 0 0 0 0 0 0 0 0 
0 0 0 0 0 0 0 0 0 
0 0 0 0 0 0 0 0 0 
0 0 0 0 0 0 0 0 0 
0 0 0 0 0 0 0 0 0 
0 0 0 0 0 0 0 0 0 
0 0 0 0 0 0 0 0 0 
0 0 0 0 0 0 0 0 0 
0 0 0 0 0 0 0 0 0 
0 0 0 0 0 0 0 0 0 
0 0 0 0 0 0 0 0 0 
0 0 0 0 0 0 0 0 0 
0 0 0 0 0 0 0 0 0 
0 0 0 0 0 0 0 0 0 
0 0 0 0 0 0 0 0 0 
0 0 0 0 0 0 0 0 0 
0 0 0 0 0 0 0 0 0 
0 0 0 0 0 0 0 0 0 
0 0 0 0 0 0 0 0 0 
0 0 0 0 0 0 0 0 0 
0 0 0 0 0 0 0 0 0 
0 0 0 0 0 0 0 0 0 
0 0 0 0 0 0 0 0 0 
0 0 0 0 0 0 0 0 0 
0 0 0 0 0 0 0 0 0 
0 0 0 0 0 0 0 0 0 
0 0 0 0 0 0 0 0 0 
0 0 0 0 0 0 0 0 0 
0 0 0 0 0 0 0 0 0 
0 0 0 0 0 0 0 0 0 
0 0 0 0 0 0 0 0 0 
0 0 0 0 0 0 0 0 0 
0 0 0 0 0 0 0 0 0 
0 0 0 0 0 0 0 0 0 
0 0 0 0 0 0 0 0 0 
0 0 0 0 0 0 0 0 0 
0 0 0 0 0 0 0 0 0 
0 0 0 0 0 0 0 0 0 
0 0 0 0 0 0 0 0 0 
0 0 0 0 0 0 0 0 0 
0 0 0 0 0 0 0 0 0 
0 0 0 0 0 0 0 0 0 
0 0 0 0 0 0 0 0 0 
0 0 0 0 0 0 0 0 0 
0 0 0 0 0 0 0 0 0 
0 0 0 0 0 0 0 0 0 
0 0 0 0 0 0 0 0 0 
0 0 0 0 0 0 0 0 0 
0 0 0 0 0 0 0 0 0 
0 0 0 0 0 0 0 0 0 
0 0 0 0 0 0 0 0 0 
0 0 0 0 0 0 0 0 0 
0 0 0 0 0 0 0 0 0 
0 0 0 0 0 0 0 0 0 
0 0 0 0 0 0 0 0 0 
0 0 0 0 0 0 0 0 0 
0 0 0 0 0 0 0 0 0 
0 0 0 0 0 0 0 0 0 
0 0 0 0 0 0 0 0 0 
0 0 0 0 0 0 0 0 0 
0 0 0 0 0 0 0 0 0 
0 0 0 0 0 0 0 0 0 
0 0 0 0 0 0 0 0 0 
0 0 0 0 0 0 0 0 0 
0 0 0 0 0 0 0 0 0 
0 0 0 0 0 0 0 0 0 
0 0 0 0 0 0 0 0 0 
0 0 0 0 0 0 0 0 0 
0 0 0 0 0 0 0 0 0 
0 0 0 0 0 0 0 0 0 
0 0 0 0 0 0 0 0 0 
0 0 0 0 0 0 0 0 0 
0 0 0 0 0 0 0 0 0 
0 0 0 0 0 0 0 0 0 
0 0 0 0 0 0 0 0 0 
0 0 0 0 0 0 0 0 0 
0 0 0 0 0 0 0 0 0 
0 0 0 0 0 0 0 0 0 
0 0 0 0 0 0 0 0 0 
0 0 0 0 0 0 0 0 0 
0 0 0 0 0 0 0 0 0 
0 0 0 0 0 0 0 0 0 
0 0 0 0 0 0 0 0 0 
0 0 0 0 0 0 0 0 0 
0 0 0 0 0 0 0 0 0 
0 0 0 0 0 0 0 0 0 
0 0 0 0 0 0 0 0 0 
0 0 0 0 0 0 0 0 0 
0 0 0 0 0 0 0 0 0 
0 0 0 0 0 0 0 0 0 
0 0 0 0 0 0 0 0 0 
0 0 0 0 0 0 0 0 0 
0 0 0 0 0 0 0 0 0 
0 0 0 0 0 0 0 0 0 
0 0 0 0 0 0 0 0 0 
0 0 0 0 0 0 0 0 0 
0 0 0 0 0 0 0 0 0 
0 0 0 0 0 0 0 0 0 
0 0 0 0 0 0 0 0 0 
0 0 0 0 0 0 0 0 0 
0 0 0 0 0 0 0 0 0 
0 0 0 0 0 0 0 0 0 
0 0 0 0 0 0 0 0 0 
0 0 0 0 0 0 0 0 0 
0 0 0 0 0 0 0 0 0 
0 0 0 0 0 0 0 0 0 
0 0 0 0 0 0 0 0 0 
0 0 0 0 0 0 0 0 0 
0 0 0 0 0 0 0 0 0 
0 0 0 0 0 0 0 0 0 
0 0 0 0 0 0 0 0 0 
0 0 0 0 0 0 0 0 0 
0 0 0 0 0 0 0 0 0 
0 0 0 0 0 0 0 0 0 
0 0 0 0 0 0 0 0 0 
0 0 0 0 0 0 0 0 0 
0 0 0 0 0 0 0 0 0 
0 0 0 0 0 0 0 0 0 
0 0 0 0 0 0 0 0 0 
0 0 0 0 0 0 0 0 0 
0 0 0 0 0 0 0 0 0 
0 0 0 0 0 0 0 0 0 
0 0 0 0 0 0 0 0 0 
0 0 0 0 0 0 0 0 0 
0 0 0 0 0 0 0 0 0 
0 0 0 0 0 0 0 0 0 
0 0 0 0 0 0 0 0 0 
0 0 0 0 0 0 0 0 0 
0 0 0 0 0 0 0 0 0 
0 0 0 0 0 0 0 0 0 
0 0 0 0 0 0 0 0 0 
0 0 0 0 0 0 0 0 0 
0 0 0 0 0 0 0 0 0 
0 0 0 0 0 0 0 0 0 
0 0 0 0 0 0 0 0 0 
0 0 0 0 0 0 0 0 0 
0 0 0 0 0 0 0 0 0 
0 0 0 0 0 0 0 0 0 
0 0 0 0 0 0 0 0 0 
0 0 0 0 0 0 0 0 0 
0 0 0 0 0 0 0 0 0 
0 0 0 0 0 0 0 0 0 
0 0 0 0 0 0 0 0 0 
0 0 0 0 0 0 0 0 0 
0 0 0 0 0 0 0 0 0 
0 0 0 0 0 0 0 0 0 
0 0 0 0 0 0 0 0 0 
0 0 0 0 0 0 0 0 0 
0 0 0 0 0 0 0 0 0 
0 0 0 0 0 0 0 0 0 
0 0 0 0 0 0 0 0 0 
0 0 0 0 0 0 0 0 0 
0 0 0 0 0 0 0 0 0 
0 0 0 0 0 0 0 0 0 
0 0 0 0 0 0 0 0 0 
0 0 0 0 0 0 0 0 0 
0 0 0 0 0 0 0 0 0 
0 0 0 0 0 0 0 0 0 
0 0 0 0 0 0 0 0 0 
0 0 0 0 0 0 0 0 0 
0 0 0 0 0 0 0 0 0 
0 0 0 0 0 0 0 0 0 
0 0 0 0 0 0 0 0 0 
0 0 0 0 0 0 0 0 0 
0 0 0 0 0 0 0 0 0 
0 0 0 0 0 0 0 0 0 
0 0 0 0 0 0 0 0 0 
0 0 0 0 0 0 0 0 0 
0 0 0 0 0 0 0 0 0 
0 0 0 0 0 0 0 0 0 
0 0 0 0 0 0 0 0 0 
0 0 0 0 0 0 0 0 0 
0 0 0 0 0 0 0 0 0 
0 0 0 0 0 0 0 0 0 
0 0 0 0 0 0 0 0 0 
0 0 0 0 0 0 0 0 0 
0 0 0 0 0 0 0 0 0 
0 0 0 0 0 0 0 0 0 
0 0 0 0 0 0 0 0 0 
0 0 0 0 0 0 0 0 0 
0 0 0 0 0 0 0 0 0 
0 0 0 0 0 0 0 0 0 
0 0 0 0 0 0 0 0 0 
0 0 0 0 0 0 0 0 0 
0 0 0 0 0 0 0 0 0 
0 0 0 0 0 0 0 0 0 
0 0 0 0 0 0 0 0 0 
0 0 0 0 0 0 0 0 0 
0 0 0 0 0 0 0 0 0 
0 0 0 0 0 0 0 0 0 
0 0 0 0 0 0 0 0 0 
0 0 0 0 0 0 0 0 0 
0 0 0 0 0 0 0 0 0 
0 0 0 0 0 0 0 0 0 
0 0 0 0 0 0 0 0 0 
0 0 0 0 0 0 0 0 0 
0 0 0 0 0 0 0 0 0 
0 0 0 0 0 0 0 0 0 
0 0 0 0 0 0 0 0 0 
0 0 0 0 0 0 0 0 0 
0 0 0 0 0 0 0 0 0 
0 0 0 0 0 0 0 0 0 
0 0 0 0 0 0 0 0 0 
0 0 0 0 0 0 0 0 0 
0 0 0 0 0 0 0 0 0 
0 0 0 0 0 0 0 0 0 
0 0 0 0 0 0 0 0 0 
0 0 0 0 0 0 0 0 0 
0 0 0 0 0 0 0 0 0 
0 0 0 0 0 0 0 0 0 
0 0 0 0 0 0 0 0 0 
0 0 0 0 0 0 0 0 0 
0 0 0 0 0 0 0 0 0 
0 0 0 0 0 0 0 0 0 
0 0 0 0 0 0 0 0 0 
0 0 0 0 0 0 0 0 0 
0 0 0 0 0 0 0 0 0 
0 0 0 0 0 0 0 0 0 
0 0 0 0 0 0 0 0 0 
0 0 0 0 0 0 0 0 0 
0 0 0 0 0 0 0 0 0 
0 0 0 0 0 0 0 0 0 
0 0 0 0 0 0 0 0 0 
0 0 0 0 0 0 0 0 0 
0 0 0 0 0 0 0 0 0 
0 0 0 0 0 0 0 0 0 
0 0 0 0 0 0 0 0 0 
0 0 0 0 0 0 0 0 0 
0 0 0 0 0 0 0 0 0 
0 0 0 0 0 0 0 0 0 
0 0 0 0 0 0 0 0 0 
0 0 0 0 0 0 0 0 0 
0 0 0 0 0 0 0 0 0 
0 0 0 0 0 0 0 0 0 
0 0 0 0 0 0 0 0 0 
0 0 0 0 0 0 0 0 0 
0 0 0 0 0 0 0 0 0 
0 0 0 0 0 0 0 0 0 
0 0 0 0 0 0 0 0 0 
0 0 0 0 0 0 0 0 0 
0 0 0 0 0 0 0 0 0 
0 0 0 0 0 0 0 0 0 
0 0 0 0 0 0 0 0 0 
0 0 0 0 0 0 0 0 0 
0 0 0 0 0 0 0 0 0 
0 0 0 0 0 0 0 0 0 
0 0 0 0 0 0 
v 3 848 double
0 0 -1.02261 0 0 -1.02968 0 0 -1.02232 
0 0 -1 0 0 -1 0 0 -1.01506 
0 0 -1.01172 0 0 -1.04017 0 0 -1.04145 
0 0 -1.06097 0 0 -1.06852 0 0 -1.05273 
0 0 -1.08952 -0.83647 0.00317316 -1.78741 -0.916555 -0.0428759 -1.81506 
-1.03862 0.0475926 -1.81034 -0.865025 -0.02127 -1.7795 -1.1763 0.00426347 -1.79628 
-0.874009 -0.0623955 -1.73019 -0.963324 0.0173019 -1.75219 -0.929813 0.0235185 -1.70027 
-0.917868 -0.00366522 -1.69288 -0.913514 0.0195782 -1.69748 -1.20355 0.403443 -1.78515 
-0.902815 0.0202269 -1.70162 -0.988834 0.0827193 -1.70307 -0.821007 -0.105127 -1.70033 
-0.900739 0.0568734 -1.67479 -0.95286 0.00749167 -1.66474 -1.02361 0.0238263 -1.6818 
-0.947958 -0.0147564 -1.65104 -0.899669 0.0500074 -1.64747 -0.90938 -0.0126162 -1.63753 
-0.856095 0.00445023 -1.65573 -0.887789 0.0696155 -1.62644 -0.883967 0.0901125 -1.63226 
-1.02207 0.115487 -1.64426 -0.920656 -0.0836542 -1.662 -0.836625 0.0235689 -1.59114 
0 0 -1.06823 -0.992012 -0.0175397 -1.58881 -0.985017 0.0114707 -1.61249 
-0.783583 -0.013065 -1.5706 -0.741908 -0.056456 -1.58704 -1.0337 0.0883194 -1.62023 
-0.813242 -0.0219888 -1.5475 -0.826899 -0.00636139 -1.53994 -0.911898 0.0740498 -1.55161 
-0.847886 0.0642132 -1.5487 -0.881715 0.0783676 -1.53268 -0.841524 0.0706231 -1.51742 
-0.77217 -0.0211985 -1.53884 -1.09902 0.050074 -1.48929 -1.10297 0.078731 -1.54248 
-0.886843 0.0505395 -1.48681 -0.747405 -0.0878178 -1.52384 -0.907835 0.00793758 -1.54166 
-0.932769 -0.0510391 -1.4798 -1.11649 0.0800817 -1.53179 -0.834925 -0.0715943 -1.51231 
-0.890207 0.0042187 -1.46578 -1.33097 -0.0228799 -1.56457 -1.06982 -0.0132149 -1.43359 
-0.892452 0.0461076 -1.44992 -0.952679 -0.0797014 -1.48975 -0.868587 0.164076 -1.55432 
-1.02095 -0.00221571 -1.43823 -1.13436 0.299329 -1.61898 -0.923992 0.0449146 -1.43036 
-0.907004 0.0510279 -1.38535 -0.783277 -0.00454099 -1.43489 -0.737249 -0.00779239 -1.44661 
-1.00816 0.103532 -1.45619 -1.03615 -0.096767 -1.495 -0.889545 -0.0701608 -1.41755 
-1.11846 -0.048404 -1.43534 -0.922407 -0.0582402 -1.34712 -1.078 -0.106667 -1.47652 
-1.15709 -0.0181172 -1.41432 -1.02869 -0.0310242 -1.37619 -0.989721 -0.0187715 -1.50024 
-0.902913 -0.0993569 -1.44025 -1.18099 -0.0362559 -1.41541 -1.06668 0.0265891 -1.38294 
-1.19167 0.170927 -1.43792 -1.13369 0.160854 -1.39304 -0.962 -0.0694462 -1.37903 
-1.04419 0.00270785 -1.42367 -1.03912 0.179637 -1.31291 -0.922908 -0.00855259 -1.32936 
-1.15177 0.220647 -1.53624 -1.31979 0.343589 -1.53716 -1.09224 0.110728 -1.37155 
-1.14883 0.0206661 -1.30974 -0.888324 0.111072 -1.2999 -1.18391 0.0946498 -1.33035 
-1.0596 -0.0353087 -1.25431 -1.08371 -0.0310382 -1.33857 -1.14328 0.108922 -1.30243 
-1.14115 0.0911963 -1.29855 -1.12301 0.0663455 -1.29248 -1.01804 0.0191447 -1.30654 
-1.13995 0.0204375 -1.31405 -1.00189 0.0176786 -1.30761 -1.06723 -0.0686863 -1.33144 
-1.1271 0.118884 -1.25526 -1.11575 0.0676828 -1.23888 -1.11941 0.0637183 -1.23915 
-0.93597 0.131981 -1.18021 -0.992278 0.0598137 -1.27336 -1.28537 0.0283749 -1.28689 
-1.12192 0.120817 -1.20089 -1.11387 0.0559059 -1.20977 -1.03934 0.0178391 -1.19823 
-0.987036 0.138615 -1.22223 -1.14596 -0.0612819 -1.24078 -0.90244 -0.0510176 -1.26559 
-1.09572 0.00565963 -1.15896 -1.13508 -0.11797 -1.17886 -1.0274 -0.0230512 -1.21095 
-1.22023 -0.181269 -1.15753 -1.00888 0.131795 -1.17602 -1.08264 -0.000809601 -1.13716 
-0.991234 -0.0147167 -1.15922 -1.03755 0.111512 -1.11642 -1.00778 0.00330398 -1.11746 
-1.11009 0.0124761 -1.12016 -1.07255 -0.0819285 -1.15469 -1.0182 -0.0286908 -1.11819 
-0.777167 0.222125 -1.30912 -0.951432 0.0711594 -1.22531 -0.99769 -0.0104395 -1.15245 
-1.03892 -0.0314253 -1.10915 -1.06718 0.0399869 -1.10276 -1.10037 0.13999 -1.09204 
-0.983859 -0.0996424 -1.13355 -1.10372 -0.0456387 -1.01016 -1.15167 0.144025 -1.09677 
-1.17 0.116832 -0.918988 -1.0637 0.0842722 -1.10894 -0.973821 0.174898 -1.17494 
-1.02236 0.153534 -1.0404 -1.08035 -0.115029 -1.05047 -1.36396 0.311956 -0.992912 
-0.955728 0.173631 -0.809327 -0.973599 0.0427895 -1.00414 -1.10879 -0.0460236 -1.02092 
-1.05978 0.218588 -0.794689 -0.974439 0.0633126 -0.95398 -0.907701 0.0928773 -0.981681 
-1.05616 0.0192461 -0.915479 -1.03594 0.157467 -0.987549 -1.41003 -0.12167 -0.927172 
-1.09277 -0.0307889 -1.04472 -0.960922 -0.279847 -1.15322 -1.13461 -0.0606251 -0.842191 
-1.12819 -0.0297836 -0.852297 -1.05192 -0.106167 -1.08918 -0.833997 -0.144317 -0.810137 
-1.0791 0.015219 -0.862052 -1.09876 0.0534182 -0.902063 -1.04184 0.054768 -0.861443 
-1.11719 0.0609598 -0.864288 -1.09229 0.0119317 -1.03136 -1.19602 -0.173382 -0.979812 
-1.11387 -0.0142585 -0.823903 -1.13858 -0.00480435 -0.821377 -0.910426 -0.234644 -0.945112 
-1.29028 -0.163714 -0.742402 -1.1552 -0.385863 -0.973697 -1.18418 -0.166087 -0.957271 
-1.00913 0.170515 -0.855004 -1.14453 0.191554 -0.955422 -1.07315 0.0852753 -0.78362 
-1.07381 0.0346699 -0.749687 -1.10984 -0.00113221 -0.783106 -1.1748 -0.2074 -0.795211 
-0.98714 0.13672 -0.74864 -1.01749 0.112974 -0.871229 -1.06009 0.0648436 -0.779676 
-1.04906 0.0407364 -0.727086 -1.03107 0.0646933 -0.727348 -1.08378 0.156161 -0.694937 
-1.11579 0.231346 -0.960946 -1.0972 0.111357 -0.760446 -1.07175 0.0855417 -0.653757 
-1.16529 0.0673951 -0.694467 -1.04974 0.141949 -0.670894 -1.16445 -0.221127 -0.697988 
-0.855944 -0.00858296 -0.609931 -1.08297 -0.00612217 -0.620046 -1.06912 0.0411311 -0.597119 
-0.993296 0.0525398 -0.596009 -1.00097 0.0511573 -0.550636 -0.943748 0.123183 -0.568953 
-1.0893 -0.00411312 -0.745497 -1.12642 0.0189615 -0.564973 -1.05103 -0.10546 -0.650236 
-1.14777 0.0430504 -0.763558 -1.11289 0.0794229 -0.627012 -1.14096 0.0820109 -0.489335 
-1.2128 0.0333416 -0.553281 -1.07552 0.0970157 -0.568377 -1.0561 0.131304 -0.542201 
-1.01891 0.0709319 -0.542322 -1.08103 0.0178371 -0.49578 -1.11486 -0.0889887 -0.566372 
-0.968791 -0.122291 -0.54614 -1.16621 0.0646107 -0.452175 -1.19222 0.0881614 -0.500902 
-1.05593 0.00800045 -0.425146 -1.06783 -0.0138452 -0.451134 -1.01842 -0.0917272 -0.435092 
-1.01881 -0.102543 -0.488755 -1.06559 -0.0485339 -0.452213 -1.10068 -0.0643554 -0.475124 
-1.10237 -0.0951223 -0.51859 -1.14325 -0.0625973 -0.495149 -1.07326 -0.0655094 -0.511575 
-1.37737 -0.188086 -0.762903 -1.14808 0.00411004 -0.463748 -1.07277 -0.068874 -0.45028 
-0.968145 -0.0747898 -0.412885 -1.30561 -0.144317 -0.702953 -0.941471 -0.110129 -0.403252 
-1.08311 -0.0154153 -0.465948 -1.14736 -0.225584 -0.531428 -1.15062 0.0218176 -0.46316 
-1.09238 0.0302734 -0.461719 -1.1012 -0.0599477 -0.46042 -0.956042 -0.0736129 -0.407619 
-1.07675 -0.060339 -0.457481 -0.974033 -0.00419453 -0.411424 -1.05757 -0.0753796 -0.455859 
-1.00079 -0.127907 -0.442411 -1.16197 -0.11322 -0.387677 -1.11728 -0.0279445 -0.466421 
-1.11615 0.0612958 -0.475556 -1.03815 0.0146959 -0.438771 -1.11942 -0.107567 -0.478486 
-1.02882 -0.199345 -0.446249 -1.02564 -0.18306 -0.443901 -0.944924 -0.1072 -0.405939 
-0.96242 -0.0414264 -0.410045 -0.985376 -0.00800233 -0.412311 -0.969372 -0.117542 -0.42753 
-0.997724 -0.07319 -0.418085 -1.03333 -0.0921208 -0.44217 -1.04443 -0.102532 -0.44769 
-1.14589 -0.0573188 -0.487821 -1.01223 -0.0694774 -0.428009 -1.04652 -0.276952 -0.500641 
-1.19254 -0.121927 -0.457241 -0.857438 -0.13681 -0.403217 -1.1971 -0.0853516 -0.514382 
-0.97642 0.034681 -0.414065 -1.03329 0.0801929 -0.443521 -1.03973 0.0792359 -0.44543 
-0.993498 0.0366068 -0.420212 -0.948027 -0.0358283 -0.402085 -1.03538 -0.0998387 -0.42391 
-1.37567 -0.0952217 -0.576762 -1.19951 0.0516638 -0.440538 -1.03134 0.109207 -0.451068 
-1.1094 0.127568 -0.497992 -1.05507 0.0497476 -0.451556 -1.05637 0.0727771 -0.44937 
-0.88513 0.0613974 -0.376817 -0.990932 -0.0889958 -0.305341 -1.02036 0.0995988 -0.430657 
-1.0442 0.0201727 -0.429798 -1.12502 -0.125919 -0.468453 -1.04691 -0.016629 -0.445969 
-0.949916 0.0751958 -0.384185 -0.933856 0.0650346 -0.387685 -0.849803 -0.0112843 -0.427397 
-1.01038 0.0235308 -0.444041 -0.986939 0.103502 -0.479399 -0.99023 0.114973 -0.43887 
-0.969889 0.0104036 -0.407801 -0.962262 0.0847638 -0.411716 -0.927086 0.0241241 -0.390521 
-0.988946 0.0914617 -0.423349 -1.26787 0.0177786 -0.636365 -0.953178 -0.0567941 -0.400715 
-0.935034 -0.0126467 -0.392071 -0.95418 -0.0558267 -0.411882 -0.94707 -0.00161408 -0.394382 
-0.971081 -0.0113555 -0.407296 -1.052 -0.0615886 -0.478729 -1.09675 -0.0774289 -0.456203 
-1.11374 -0.0429261 -0.445655 -1.41407 0.152916 -0.654993 -0.914075 0.0789569 -0.407292 
-0.957755 0.185442 -0.529574 -1.11138 0.0200741 -0.469193 -0.973441 -0.0538377 -0.407086 
-0.947941 0.0261526 -0.404877 -0.857824 -0.0185845 -0.359616 -0.714881 -0.00150039 -0.299998 
-0.993463 -0.154539 -0.583734 -0.825732 -0.000989012 -0.351372 -0.685051 -0.0564873 -0.301079 
-0.903407 0.0412816 -0.383018 -0.823395 -0.0598374 -0.357474 -0.752916 -0.0606402 -0.279833 
-0.891989 0.0883746 -0.370956 -0.876674 0.195732 -0.492107 -0.986584 0.208741 -0.48992 
-0.993065 0.0582195 -0.37935 -1.02748 -0.106135 -0.388796 -1.02167 -0.0268081 -0.406424 
-0.718759 -0.0176641 -0.30833 -0.76363 -0.0604412 -0.320537 -0.737347 0.019303 -0.382988 