# vtk DataFile Version 4.0
Generated by LIGGGHTS
ASCII
DATASET POLYDATA
POINTS 575 float
-0.456881 0.045819 -0.307829 -0.400966 -0.0189576 -0.286819 -0.413459 0.0449261 -0.282757 
-0.379306 -0.00344689 -0.271893 -0.34769 -0.00970471 -0.253434 -0.342772 0.00531431 -0.251615 
-0.338834 -0.0166349 -0.247677 -0.34135 -0.0117094 -0.248938 -0.338869 -0.00835476 -0.248885 
-0.33928 -0.00517963 -0.249504 -0.319937 0.00315776 -0.240851 -0.32412 0.0100194 -0.241104 
-0.314888 0.0164737 -0.237441 -0.312137 -0.0297024 -0.233226 -0.309747 0.00595002 -0.235297 
-0.304865 0.00758535 -0.234221 -0.304613 0.0145776 -0.233522 -0.35345 0.0581399 -0.233264 
-0.304207 0.0192658 -0.231342 -0.312188 -0.041169 -0.227805 -0.2919 -0.0115399 -0.228546 
-0.290345 0.00556077 -0.22714 -0.306033 0.0347512 -0.229054 -0.283562 -0.0035717 -0.225576 
-0.279559 0.0119665 -0.223317 -0.281266 -0.0320041 -0.218918 -0.274535 -0.0113051 -0.220186 
-0.277367 -0.00105497 -0.221961 -0.273721 0.00626094 -0.221233 -0.295004 -0.0513668 -0.217148 
-0.264756 -0.0139358 -0.215782 -0.268938 -0.0112958 -0.217841 -0.26561 -0.00756034 -0.21785 
-0.263095 -0.00472712 -0.21582 -0.263817 -7.88665e-05 -0.217359 -0.259135 -0.0098002 -0.21499 
-0.253376 -0.00220361 -0.212915 -0.252408 0.00237207 -0.21241 -0.259879 0.00921707 -0.214166 
-0.259218 -0.0258539 -0.211237 -0.248875 -0.0123066 -0.210332 -0.246488 -0.00817478 -0.209729 
-0.247759 -0.000904503 -0.20948 -0.248763 0.00414779 -0.210782 -0.256645 0.0294693 -0.210436 
-0.23955 -0.022266 -0.205021 -0.241692 -0.0158544 -0.206911 -0.23705 -0.01605 -0.205007 
-0.239253 -0.00204527 -0.206994 -0.244753 0.00570855 -0.20796 -0.240488 0.00554188 -0.207246 
-0.236396 -0.0285802 -0.202326 -0.228645 -0.00587722 -0.202283 -0.231231 0.00129215 -0.202404 
-0.225791 0.00294451 -0.20112 -0.242735 0.010997 -0.205103 -0.230667 0.0134774 -0.201419 
-0.237554 0.0194485 -0.203552 -0.329081 -0.0728484 -0.201685 -0.225758 -0.00391376 -0.200153 
-0.217956 0.00339156 -0.197835 -0.22817 0.0091474 -0.20076 -0.223155 0.0103844 -0.198666 
-0.218067 0.00757524 -0.197798 -0.280537 0.0687031 -0.198403 -0.209878 -0.00866602 -0.19422 
-0.218183 0.0185143 -0.196638 -0.214719 -0.0259263 -0.193888 -0.212044 -0.0223444 -0.192478 
-0.206623 -0.0191748 -0.191732 -0.212732 -0.0120267 -0.193999 -0.20701 -0.0132897 -0.19251 
-0.206969 -0.00967286 -0.192873 -0.20779 -0.00419581 -0.192509 -0.204063 -0.00717216 -0.190848 
-0.200963 0.00101337 -0.190704 -0.207725 0.0106228 -0.193172 -0.204224 0.0104791 -0.190601 
-0.232205 0.0483134 -0.194216 -0.211181 -0.0422825 -0.187996 -0.205725 -0.0362121 -0.187757 
-0.203767 -0.0268602 -0.189144 -0.203128 -0.0214788 -0.188731 -0.203991 -0.0177381 -0.190042 
-0.195423 -0.0128302 -0.187728 -0.200004 -0.00829952 -0.190143 -0.199854 -0.00246532 -0.189102 
-0.193609 0.00297147 -0.187594 -0.199843 0.00462963 -0.190219 -0.200109 0.0163932 -0.189335 
-0.202459 0.022581 -0.188434 -0.198402 0.0247152 -0.187365 -0.223923 0.052097 -0.187889 
-0.192192 -0.0250767 -0.184844 -0.192006 -0.0102946 -0.186585 -0.188245 -0.00878751 -0.183741 
-0.190433 -0.00592058 -0.186183 -0.215767 0.000910849 -0.184203 -0.184228 0.00186309 -0.18365 
-0.186088 0.00512306 -0.184481 -0.185945 0.0106034 -0.183927 -0.195466 0.0240239 -0.186232 
-0.202363 0.0385683 -0.185641 -0.197448 -0.0395831 -0.183368 -0.188991 -0.0267347 -0.183104 
-0.190063 -0.0216348 -0.183348 -0.186026 -0.0239539 -0.181239 -0.180831 -0.0164318 -0.180156 
-0.180729 -0.00957586 -0.180873 -0.182331 -0.00633609 -0.182714 -0.185891 0.0174429 -0.18329 
-0.185256 0.0281287 -0.181167 -0.17831 -0.0261477 -0.178101 -0.169808 -0.011667 -0.177176 
-0.173537 0.00614496 -0.179068 -0.170832 -0.0202452 -0.175485 -0.167058 -0.014846 -0.175748 
-0.165167 -0.0111107 -0.174166 -0.183915 -0.00879374 -0.176463 -0.163085 -0.00754115 -0.174657 
-0.165731 -0.00163978 -0.175883 -0.179207 0.00265404 -0.174413 -0.161815 0.00454346 -0.174199 
-0.168915 0.00738786 -0.175926 -0.165693 0.0108421 -0.175382 -0.162542 0.0116354 -0.174021 
-0.166262 0.0173912 -0.173908 -0.169128 0.0204557 -0.175933 -0.170596 0.0241184 -0.174742 
-0.165967 0.0214791 -0.174402 -0.166474 0.0266273 -0.173619 -0.169232 0.028051 -0.174506 
-0.185078 -0.0546473 -0.172572 -0.177888 -0.0471651 -0.172868 -0.170998 -0.0387759 -0.172707 
-0.164236 -0.0271336 -0.171617 -0.160144 -0.0228275 -0.171835 -0.159028 -0.0150643 -0.171277 
-0.169888 -0.0100736 -0.171812 -0.157939 -0.00959106 -0.17127 -0.153991 -0.00912351 -0.170695 
-0.158363 -0.00417501 -0.172702 -0.155318 -0.00519876 -0.170221 -0.160323 -0.000503896 -0.172452 
-0.154355 0.0129154 -0.170509 -0.15629 0.0174905 -0.169794 -0.167031 0.0235266 -0.172437 
-0.1629 0.0223498 -0.17184 -0.228117 0.0804268 -0.170438 -0.15123 -0.0323077 -0.166263 
-0.148931 -0.0153853 -0.166991 -0.146574 -0.00893877 -0.167585 -0.144426 0.0023796 -0.166812 
-0.14961 0.0113961 -0.167571 -0.148386 0.0214233 -0.167061 -0.155691 0.0274658 -0.168985 
-0.158312 0.0353094 -0.168574 -0.138736 -0.0125516 -0.164015 -0.136087 -0.00102487 -0.16236 
-0.140952 0.00941018 -0.165133 -0.152502 0.0137086 -0.163032 -0.143998 0.0132013 -0.165072 
-0.138088 0.0151534 -0.162392 -0.155992 0.0284811 -0.163634 -0.152409 0.0317906 -0.165693 
-0.172529 0.058303 -0.164938 -0.131881 -0.0212684 -0.160164 -0.135626 -0.0191071 -0.162079 
-0.136113 -0.0145764 -0.161656 -0.127778 -0.0158178 -0.159165 -0.148784 -0.0131989 -0.161067 
-0.132157 -0.0117428 -0.161341 -0.136617 -0.00831931 -0.162368 -0.13372 -0.00622914 -0.160231 
-0.130494 0.00176783 -0.159946 -0.133953 0.00378186 -0.161372 -0.137973 0.00682381 -0.161406 
-0.127127 0.00774824 -0.159312 -0.133578 0.0122761 -0.160795 -0.14904 0.0440287 -0.160936 
-0.128547 -0.0288256 -0.157583 -0.129085 -0.0232019 -0.158707 -0.126882 -0.019625 -0.157206 
-0.129431 -0.0117498 -0.156982 -0.125043 -0.0111525 -0.157263 -0.121003 -0.00844513 -0.155743 
-0.120709 -0.00381858 -0.156551 -0.120758 0.000153195 -0.155854 -0.123605 0.0124484 -0.157574 
-0.129034 0.0147228 -0.158699 -0.123373 0.0157667 -0.157272 -0.125788 0.0332603 -0.155449 
-0.130847 0.0352754 -0.157084 -0.135695 0.040915 -0.157621 -0.114797 -0.0114739 -0.152556 
-0.110236 -0.00932397 -0.152219 -0.113921 -0.0060505 -0.154008 -0.120085 -0.00288958 -0.152876 
-0.114496 -0.00301478 -0.154289 -0.108692 -0.00155581 -0.15184 -0.113546 0.000793067 -0.152808 
-0.109917 0.00250236 -0.15235 -0.11478 0.00574602 -0.154382 -0.116497 0.00821748 -0.154927 
-0.116714 0.0113538 -0.154794 -0.113781 0.0115863 -0.153538 -0.113337 0.0154249 -0.153075 
-0.117597 0.0306283 -0.152689 -0.125867 -0.0555671 -0.148714 -0.114527 -0.0414197 -0.148802 
-0.115266 -0.0380333 -0.15008 -0.107127 -0.02341 -0.14948 -0.111561 -0.01778 -0.150764 
-0.120174 -0.00619271 -0.149275 -0.104968 -0.000722634 -0.149179 -0.113623 0.0064524 -0.150623 
-0.103208 0.00651882 -0.149479 -0.108839 0.00789803 -0.150647 -0.112278 0.0191484 -0.151161 
-0.121287 0.0412332 -0.151712 -0.125809 0.0486195 -0.151208 -0.121988 0.0473167 -0.1501 
-0.0987124 -0.0217425 -0.145259 -0.101843 -0.0149795 -0.148322 -0.100059 -0.0125516 -0.147718 
-0.0963796 -0.00535509 -0.145521 -0.0996407 0.000259244 -0.146934 -0.0975249 0.00970498 -0.146841 
-0.105698 0.0189849 -0.14837 -0.0997175 0.0320685 -0.144964 -0.132019 0.0662942 -0.145189 
-0.135173 -0.0734623 -0.143432 -0.112517 -0.0522711 -0.144614 -0.0961552 -0.0332978 -0.143141 
-0.100315 -0.0315855 -0.143533 -0.09435 -0.0183728 -0.143366 -0.12801 -0.0145275 -0.144057 
-0.0955304 -0.0124882 -0.14474 -0.089669 -0.0121777 -0.143387 -0.0862011 -0.00736389 -0.142186 
-0.0990272 -0.0047181 -0.141963 -0.0908496 -0.00443424 -0.144324 -0.0934076 -0.00712724 -0.142498 
-0.103238 -9.26549e-05 -0.144317 -0.0979228 0.00299861 -0.143645 -0.0927233 0.00574007 -0.142041 
-0.0889978 0.00390047 -0.142398 -0.0939835 0.0100739 -0.143992 -0.0911147 0.00870493 -0.144129 
-0.0840206 0.00949193 -0.141201 -0.0906034 0.012505 -0.143717 -0.0869032 0.0135825 -0.142063 
-0.0896117 0.0156129 -0.143049 -0.0921936 0.0201821 -0.143678 -0.13452 -0.0796068 -0.139535 
-0.0944954 -0.0133063 -0.139216 -0.0796386 -0.0138819 -0.139078 -0.0853264 -0.0100985 -0.138639 
-0.080284 -0.00948082 -0.139556 -0.0842714 -0.00366437 -0.140532 -0.0782732 -0.00610374 -0.137827 
-0.0983285 0.00057189 -0.141973 -0.0904963 0.00558162 -0.139065 -0.0987018 0.00867274 -0.140451 
-0.0802505 0.00773424 -0.138646 -0.0762026 0.00805404 -0.138006 -0.07871 0.0115406 -0.1388 
-0.0841094 0.0182024 -0.139411 -0.0875086 0.0268076 -0.139608 -0.084672 0.0295982 -0.139033 
-0.101717 0.0506043 -0.14073 -0.0912337 -0.0488292 -0.135699 -0.0782984 -0.0232627 -0.137418 
-0.0783009 -0.0193062 -0.137171 -0.0770009 -0.0161426 -0.137321 -0.0777239 -0.0110639 -0.136869 
-0.0723319 -0.00928999 -0.135151 -0.0745553 -0.00387601 -0.134304 -0.0768661 0.000110851 -0.137337 
-0.0737294 0.00272105 -0.136874 -0.106265 0.0142359 -0.135251 -0.0778297 0.0176063 -0.134893 
-0.0702699 -0.0256587 -0.133398 -0.0914608 -0.0180891 -0.132947 -0.0798592 -0.0152791 -0.133168 
-0.0748566 -0.0129272 -0.132876 -0.0659167 -0.010485 -0.133477 -0.0617051 -0.0136372 -0.131558 
-0.0633423 -0.00944701 -0.13238 -0.0868065 0.00148357 -0.134388 -0.0796557 0.00147939 -0.132757 
-0.0696359 0.00262983 -0.13354 -0.0710951 0.0166995 -0.133885 -0.0682211 0.0207625 -0.132459 
-0.0920489 0.0253428 -0.13338 -0.0720357 0.0280449 -0.134018 -0.0976122 -0.0762749 -0.12756 
-0.0674953 -0.0417105 -0.12821 -0.0852463 -0.0298186 -0.129532 -0.0580093 -0.014245 -0.129707 
-0.053507 -0.01448 -0.128037 -0.103847 -0.00663382 -0.130287 -0.0585396 -0.00861881 -0.130453 
-0.0552041 -0.0102802 -0.128941 -0.0871809 -0.00540891 -0.129461 -0.0600532 -0.00429635 -0.130202 
-0.0570224 0.00793151 -0.128373 -0.0554601 0.0141592 -0.128832 -0.0607064 0.0222549 -0.129167 
-0.0629348 0.0347171 -0.12913 -0.0704426 0.0437358 -0.128886 -0.0656765 0.0450595 -0.127747 
-0.0693369 0.0485649 -0.128302 -0.0562923 -0.0369008 -0.125396 -0.0515799 -0.033359 -0.12454 
[...]
POINT_DATA 575
FIELD FieldData 7
id 1 575 int
22 35 32 16 6 10 12 2 11 
44 57 1 25 13 30 23 38 20 
29 14 19 3 21 7 47 28 5 
4 69 33 54 40 56 27 73 45 
89 61 66 93 37 8 52 36 120 
85 100 87 77 42 59 173 133 55 
176 91 15 94 51 41 71 39 17 
31 60 58 84 113 80 50 78 46 
74 92 53 86 125 65 147 63 76 
101 43 98 18 110 67 164 162 102 
145 153 117 24 112 130 137 131 190 
111 48 126 88 62 95 103 26 104 
196 75 108 34 178 150 121 168 179 
180 207 177 82 186 184 68 160 127 
118 138 193 107 114 122 97 174 171 
141 140 79 148 129 202 198 142 195 
159 154 163 106 139 70 132 166 204 
144 83 49 151 123 115 210 241 156 
105 219 158 81 134 189 183 149 187 
136 116 250 211 143 215 209 169 119 
225 265 157 229 181 221 146 205 252 
170 212 64 99 213 270 276 152 200 
197 161 182 224 124 175 254 96 228 
199 109 185 201 172 272 244 245 206 
261 128 208 278 72 251 223 236 280 
233 220 191 234 230 155 135 305 263 
260 243 167 295 267 227 249 238 293 
294 314 292 218 273 266 192 226 242 
253 264 188 284 214 274 235 247 259 
290 299 317 194 248 262 321 256 275 
289 288 222 255 203 258 283 333 232 
240 352 217 344 307 298 330 315 237 
318 296 303 310 367 282 322 306 165 
308 271 351 291 324 302 313 287 285 
300 331 320 340 269 279 90 377 366 
327 239 216 281 370 336 246 347 304 
363 277 297 301 368 309 348 338 326 
257 231 355 362 332 345 329 325 319 
365 341 409 360 316 311 342 323 390 
356 394 349 371 268 387 418 401 405 
334 343 375 400 419 385 369 357 339 
382 380 391 361 373 328 422 388 410 
378 414 411 399 346 393 404 337 424 
389 359 408 286 350 376 417 354 383 
415 386 406 433 407 392 429 312 431 
420 335 364 427 358 353 374 379 435 
413 9 402 396 430 384 372 395 398 
434 403 412 432 421 416 425 381 397 
428 423 426 443 442 445 439 447 438 
436 446 448 444 441 440 437 454 451 
452 456 458 460 459 450 457 455 453 
449 468 462 466 473 465 472 471 463 
464 470 469 461 467 484 480 485 482 
478 474 477 481 476 479 475 483 486 
496 493 492 497 491 490 495 488 487 
489 498 494 506 507 510 503 501 508 
509 511 504 505 500 499 502 519 517 
512 522 516 513 514 520 521 518 529 
515 523 536 528 532 535 530 527 533 
534 531 543 526 524 525 545 540 538 
549 541 548 547 546 539 542 544 559 
555 550 552 561 562 537 557 558 553 
560 554 556 551 569 574 566 571 564 
565 563 572 568 567 570 575 573 
type 1 575 int
1 1 1 1 1 1 1 1 1 
1 1 1 1 1 1 1 1 1 
1 1 1 1 1 1 1 1 1 
1 1 1 1 1 1 1 1 1 
1 1 1 1 1 1 1 1 1 
1 1 1 1 1 1 1 1 1 
1 1 1 1 1 1 1 1 1 
1 1 1 1 1 1 1 1 1 
1 1 1 1 1 1 1 1 1 
1 1 1 1 1 1 1 1 1 
1 1 1 1 1 1 1 1 1 
1 1 1 1 1 1 1 1 1 
1 1 1 1 1 1 1 1 1 
1 1 1 1 1 1 1 1 1 
1 1 1 1 1 1 1 1 1 
1 1 1 1 1 1 1 1 1 
1 1 1 1 1 1 1 1 1 
1 1 1 1 1 1 1 1 1 
1 1 1 1 1 1 1 1 1 
1 1 1 1 1 1 1 1 1 
1 1 1 1 1 1 1 1 1 
1 1 1 1 1 1 1 1 1 
1 1 1 1 1 1 1 1 1 
1 1 1 1 1 1 1 1 1 
1 1 1 1 1 1 1 1 1 
1 1 1 1 1 1 1 1 1 
1 1 1 1 1 1 1 1 1 
1 1 1 1 1 1 1 1 1 
1 1 1 1 1 1 1 1 1 
1 1 1 1 1 1 1 1 1 
1 1 1 1 1 1 1 1 1 
1 1 1 1 1 1 1 1 1 
1 1 1 1 1 1 1 1 1 
1 1 1 1 1 1 1 1 1 
1 1 1 1 1 1 1 1 1 
1 1 1 1 1 1 1 1 1 
1 1 1 1 1 1 1 1 1 
1 1 1 1 1 1 1 1 1 
1 1 1 1 1 1 1 1 1 
1 1 1 1 1 1 1 1 1 
1 1 1 1 1 1 1 1 1 
1 1 1 1 1 1 1 1 1 
1 1 1 1 1 1 1 1 1 
1 1 1 1 1 1 1 1 1 
1 1 1 1 1 1 1 1 1 
1 1 1 1 1 1 1 1 1 
1 1 1 1 1 1 1 1 1 
1 1 1 1 1 1 1 1 1 
1 1 1 1 1 1 1 1 1 
1 1 1 1 1 1 1 1 1 
1 1 1 1 1 1 1 1 1 
1 1 1 1 1 1 1 1 1 
1 1 1 1 1 1 1 1 1 
1 1 1 1 1 1 1 1 1 
1 1 1 1 1 1 1 1 1 
1 1 1 1 1 1 1 1 1 
1 1 1 1 1 1 1 1 1 
1 1 1 1 1 1 1 1 1 
1 1 1 1 1 1 1 1 1 
1 1 1 1 1 1 1 1 1 
1 1 1 1 1 1 1 1 1 
1 1 1 1 1 1 1 1 1 
1 1 1 1 1 1 1 1 1 
1 1 1 1 1 1 1 1 
i 3 575 int
0 0 0 0 0 0 0 0 0 
0 0 0 0 0 0 0 0 0 
0 0 0 0 0 0 0 0 0 
0 0 0 0 0 0 0 0 0 
0 0 0 0 0 0 0 0 0 
0 0 0 0 0 0 0 0 0 
0 0 0 0 0 0 0 0 0 
0 0 0 0 0 0 0 0 0 
0 0 0 0 0 0 0 0 0 
0 0 0 0 0 0 0 0 0 
0 0 0 0 0 0 0 0 0 
0 0 0 0 0 0 0 0 0 
0 0 0 0 0 0 0 0 0 
0 0 0 0 0 0 0 0 0 
0 0 0 0 0 0 0 0 0 
0 0 0 0 0 0 0 0 0 
0 0 0 0 0 0 0 0 0 
0 0 0 0 0 0 0 0 0 
0 0 0 0 0 0 0 0 0 
0 0 0 0 0 0 0 0 0 
0 0 0 0 0 0 0 0 0 
0 0 0 0 0 0 0 0 0 
0 0 0 0 0 0 0 0 0 
0 0 0 0 0 0 0 0 0 
0 0 0 0 0 0 0 0 0 
0 0 0 0 0 0 0 0 0 
0 0 0 0 0 0 0 0 0 
0 0 0 0 0 0 0 0 0 
0 0 0 0 0 0 0 0 0 
0 0 0 0 0 0 0 0 0 
0 0 0 0 0 0 0 0 0 
0 0 0 0 0 0 0 0 0 
0 0 0 0 0 0 0 0 0 
0 0 0 0 0 0 0 0 0 
0 0 0 0 0 0 0 0 0 
0 0 0 0 0 0 0 0 0 
0 0 0 0 0 0 0 0 0 
0 0 0 0 0 0 0 0 0 
0 0 0 0 0 0 0 0 0 
0 0 0 0 0 0 0 0 0 
0 0 0 0 0 0 0 0 0 
0 0 0 0 0 0 0 0 0 
0 0 0 0 0 0 0 0 0 
0 0 0 0 0 0 0 0 0 
0 0 0 0 0 0 0 0 0 
0 0 0 0 0 0 0 0 0 
0 0 0 0 0 0 0 0 0 
0 0 0 0 0 0 0 0 0 
0 0 0 0 0 0 0 0 0 
0 0 0 0 0 0 0 0 0 
0 0 0 0 0 0 0 0 0 
0 0 0 0 0 0 0 0 0 
0 0 0 0 0 0 0 0 0 
0 0 0 0 0 0 0 0 0 
0 0 0 0 0 0 0 0 0 
0 0 0 0 0 0 0 0 0 
0 0 0 0 0 0 0 0 0 
0 0 0 0 0 0 0 0 0 
0 0 0 0 0 0 0 0 0 
0 0 0 0 0 0 0 0 0 
0 0 0 0 0 0 0 0 0 
0 0 0 0 0 0 0 0 0 
0 0 0 0 0 0 0 0 0 
0 0 0 0 0 0 0 0 0 
0 0 0 0 0 0 0 0 0 
0 0 0 0 0 0 0 0 0 
0 0 0 0 0 0 0 0 0 
0 0 0 0 0 0 0 0 0 
0 0 0 0 0 0 0 0 0 
0 0 0 0 0 0 0 0 0 
0 0 0 0 0 0 0 0 0 
0 0 0 0 0 0 0 0 0 
0 0 0 0 0 0 0 0 0 
0 0 0 0 0 0 0 0 0 
0 0 0 0 0 0 0 0 0 
0 0 0 0 0 0 0 0 0 
0 0 0 0 0 0 0 0 0 
0 0 0 0 0 0 0 0 0 
0 0 0 0 0 0 0 0 0 
0 0 0 0 0 0 0 0 0 
0 0 0 0 0 0 0 0 0 
0 0 0 0 0 0 0 0 0 
0 0 0 0 0 0 0 0 0 
0 0 0 0 0 0 0 0 0 
0 0 0 0 0 0 0 0 0 
0 0 0 0 0 0 0 0 0 
0 0 0 0 0 0 0 0 0 
0 0 0 0 0 0 0 0 0 
0 0 0 0 0 0 0 0 0 
0 0 0 0 0 0 0 0 0 
0 0 0 0 0 0 0 0 0 
0 0 0 0 0 0 0 0 0 
0 0 0 0 0 0 0 0 0 
0 0 0 0 0 0 0 0 0 
0 0 0 0 0 0 0 0 0 
0 0 0 0 0 0 0 0 0 
0 0 0 0 0 0 0 0 0 
0 0 0 0 0 0 0 0 0 
0 0 0 0 0 0 0 0 0 
0 0 0 0 0 0 0 0 0 
0 0 0 0 0 0 0 0 0 
0 0 0 0 0 0 0 0 0 
0 0 0 0 0 0 0 0 0 
0 0 0 0 0 0 0 0 0 
0 0 0 0 0 0 0 0 0 
0 0 0 0 0 0 0 0 0 
0 0 0 0 0 0 0 0 0 
0 0 0 0 0 0 0 0 0 
0 0 0 0 0 0 0 0 0 
0 0 0 0 0 0 0 0 0 
0 0 0 0 0 0 0 0 0 
0 0 0 0 0 0 0 0 0 
0 0 0 0 0 0 0 0 0 
0 0 0 0 0 0 0 0 0 
0 0 0 0 0 0 0 0 0 
0 0 0 0 0 0 0 0 0 
0 0 0 0 0 0 0 0 0 
0 0 0 0 0 0 0 0 0 
0 0 0 0 0 0 0 0 0 
0 0 0 0 0 0 0 0 0 
0 0 0 0 0 0 0 0 0 
0 0 0 0 0 0 0 0 0 
0 0 0 0 0 0 0 0 0 
0 0 0 0 0 0 0 0 0 
0 0 0 0 0 0 0 0 0 
0 0 0 0 0 0 0 0 0 
0 0 0 0 0 0 0 0 0 
0 0 0 0 0 0 0 0 0 
0 0 0 0 0 0 0 0 0 
0 0 0 0 0 0 0 0 0 
0 0 0 0 0 0 0 0 0 
0 0 0 0 0 0 0 0 0 
0 0 0 0 0 0 0 0 0 
0 0 0 0 0 0 0 0 0 
0 0 0 0 0 0 0 0 0 
0 0 0 0 0 0 0 0 0 
0 0 0 0 0 0 0 0 0 
0 0 0 0 0 0 0 0 0 
0 0 0 0 0 0 0 0 0 
0 0 0 0 0 0 0 0 0 
0 0 0 0 0 0 0 0 0 
0 0 0 0 0 0 0 0 0 
0 0 0 0 0 0 0 0 0 
0 0 0 0 0 0 0 0 0 
0 0 0 0 0 0 0 0 0 
0 0 0 0 0 0 0 0 0 
0 0 0 0 0 0 0 0 0 
0 0 0 0 0 0 0 0 0 
0 0 0 0 0 0 0 0 0 
0 0 0 0 0 0 0 0 0 
0 0 0 0 0 0 0 0 0 
0 0 0 0 0 0 0 0 0 
0 0 0 0 0 0 0 0 0 
0 0 0 0 0 0 0 0 0 
0 0 0 0 0 0 0 0 0 
0 0 0 0 0 0 0 0 0 
0 0 0 0 0 0 0 0 0 
0 0 0 0 0 0 0 0 0 
0 0 0 0 0 0 0 0 0 
0 0 0 0 0 0 0 0 0 
0 0 0 0 0 0 0 0 0 
0 0 0 0 0 0 0 0 0 
0 0 0 0 0 0 0 0 0 
0 0 0 0 0 0 0 0 0 
0 0 0 0 0 0 0 0 0 
0 0 0 0 0 0 0 0 0 
0 0 0 0 0 0 0 0 0 
0 0 0 0 0 0 0 0 0 
0 0 0 0 0 0 0 0 0 
0 0 0 0 0 0 0 0 0 
0 0 0 0 0 0 0 0 0 
0 0 0 0 0 0 0 0 0 
0 0 0 0 0 0 0 0 0 
0 0 0 0 0 0 0 0 0 
0 0 0 0 0 0 0 0 0 
0 0 0 0 0 0 0 0 0 
0 0 0 0 0 0 0 0 0 
0 0 0 0 0 0 0 0 0 
0 0 0 0 0 0 0 0 0 
0 0 0 0 0 0 0 0 0 
0 0 0 0 0 0 0 0 0 
0 0 0 0 0 0 0 0 0 
0 0 0 0 0 0 0 0 0 
0 0 0 0 0 0 0 0 0 
0 0 0 0 0 0 0 0 0 
0 0 0 0 0 0 0 0 0 
0 0 0 0 0 0 0 0 0 
0 0 0 0 0 0 0 0 0 
0 0 0 0 0 0 0 0 0 
0 0 0 0 0 0 0 0 0 
0 0 0 0 0 0 0 0 0 
0 0 0 0 0 0 
v 3 575 double
-1.40023 -0.251904 -1.49422 -1.34345 0.15557 -1.12119 -1.49282 0.013101 -1.13974 
-1.41114 0.00647445 -0.969544 -1.3674 -0.00979849 -0.737335 -1.29594 0.0210826 -0.703158 
-1.37111 0.0250101 -0.658674 -1.33944 0.00427264 -0.681465 -1.31914 -0.104645 -0.627651 
-1.35377 -0.0625207 -0.692537 -1.40043 -0.150346 -0.599819 -1.29447 -0.0102819 -0.560879 
-1.29268 -0.0184304 -0.544563 -1.28375 0.211553 -0.573852 -1.27178 0.0656654 -0.531898 
-1.21527 -0.0552682 -0.51645 -1.27798 -0.0351827 -0.539968 -1.23863 -0.175653 -0.716124 
-1.27662 -0.0245344 -0.537612 -1.1178 -0.00120746 -0.409648 -1.0784 -0.0214045 -0.45138 
-1.1895 0.163759 -0.491902 -1.32657 -0.0632279 -0.547034 -0.942848 0.0414604 -0.399042 
-1.18155 -0.00942046 -0.488282 -1.18048 -0.00737495 -0.476852 -1.18759 0.0834911 -0.506439 
-1.07822 0.0687661 -0.458497 -1.08777 0.0396391 -0.445746 -1.19347 0.0692066 -0.561147 
-1.16869 0.203982 -0.507734 -1.19142 0.0255809 -0.508109 -1.06969 -0.00234002 -0.447592 
-1.1002 0.104057 -0.463003 -1.04295 -0.0325083 -0.444914 -1.15009 0.17154 -0.500834 
-1.03463 0.05428 -0.436632 -1.03955 0.0745939 -0.439049 -1.15069 -0.0880933 -0.485616 
-1.16552 0.0469302 -0.490342 -1.08928 0.0874694 -0.470808 -0.994468 0.00629113 -0.420915 
-1.01544 0.0190009 -0.435548 -1.01206 0.0439874 -0.428516 -1.02872 0.0450297 -0.286316 
-0.996912 0.0110192 -0.462673 -1.06108 0.0526084 -0.42768 -1.03034 0.0390574 -0.452771 
-0.887833 -0.00824668 -0.374983 -1.00397 0.0526378 -0.416997 -0.989894 0.0683085 -0.418715 
-1.26319 0.0215558 -0.538753 -0.953952 -0.0278122 -0.393622 -0.888187 -0.0845574 -0.38239 
-0.821837 0.0216028 -0.352904 -1.05237 -0.0378657 -0.751084 -0.886236 0.00765632 -0.371117 
-1.1063 -0.0329242 -0.459315 -1.05489 0.35516 -0.85562 -0.942371 -0.0407373 -0.385632 
-0.768446 -0.0459311 -0.322017 -0.883399 -0.00726265 -0.346707 -0.865255 0.0365765 -0.364881 
-0.873796 0.0377269 -0.362809 -1.04777 -0.273015 -0.616705 -0.814067 -0.0239082 -0.342409 
-1.04258 -0.166933 -0.458226 -0.907406 -0.109659 -0.346305 -0.802275 -0.125959 -0.298501 
-0.767978 -0.0566231 -0.311801 -0.882299 -0.0161987 -0.377254 -0.835896 -0.0156963 -0.34349 
-0.819605 -0.037808 -0.335111 -0.740308 -0.0700128 -0.305019 -0.766382 -0.0855157 -0.309655 
-0.722528 0.032804 -0.292367 -0.86328 -0.0155773 -0.370633 -0.842893 -0.0482267 -0.364526 
-1.10181 -0.0516798 -0.455863 -1.01995 0.0935056 -0.437801 -0.886636 0.0832531 -0.380108 
-0.818929 -0.185307 -0.289777 -0.95647 -0.0354714 -0.453537 -0.761738 0.059845 -0.449263 
-0.847869 -0.0040025 -0.373893 -0.712178 -0.0618186 -0.273673 -0.88234 0.0200048 -0.36235 
-0.829125 0.0253782 -0.344883 -0.845553 0.0866338 -0.36169 -0.741485 0.00806554 -0.305931 
-0.964913 0.11958 -0.383454 -1.04976 -0.0485398 -0.454935 -1.02342 -0.182819 -0.502614 
-0.938602 -0.060389 -0.382963 -0.846274 0.0178847 -0.35154 -0.827097 -0.0594638 -0.336724 
-0.750862 0.107804 -0.351173 -1.07319 0.0132455 -0.398305 -0.874576 -0.00362574 -0.371503 
-0.871784 0.0812153 -0.361425 -0.850451 0.0398469 -0.351247 -1.03121 -0.128643 -0.460175 
-0.907658 -0.0939994 -0.408265 -0.885928 0.0114567 -0.383861 -0.89593 0.0305425 -0.386099 
-0.832534 -0.0977867 -0.331472 -0.79469 -0.0448091 -0.354237 -0.69143 0.0475064 -0.290941 
-0.836916 0.0876238 -0.354076 -0.809796 0.115484 -0.348237 -0.927958 0.0641031 -0.381448 
-0.833229 -0.137212 -0.378544 -0.721789 -0.21533 -0.282888 -0.764189 -0.0704874 -0.320379 
-0.734789 0.049634 -0.308047 -0.909682 -0.0981156 -0.359238 -0.711431 -0.0327318 -0.292581 
-0.75084 -0.0105843 -0.310676 -1.15432 -0.226845 -0.805377 -0.82805 0.036367 -0.347004 
-0.740261 -0.00642478 -0.320379 -0.882575 -0.024298 -0.616201 -0.592553 0.0339129 -0.256549 
-0.733327 0.00457519 -0.309976 -0.595479 -0.0207024 -0.251034 -0.761631 0.00709648 -0.311724 
-0.733223 0.0664741 -0.311266 -0.640391 -0.0624471 -0.275886 -0.774946 -0.0693347 -0.340156 
-0.57535 0.10228 -0.220334 -0.725878 -0.0128304 -0.308532 -0.803001 -0.0656109 -0.351109 
-0.94981 0.185389 -0.459293 -0.853004 -0.0814986 -0.299615 -0.754919 -0.011616 -0.320622 
-0.854041 -0.0325309 -0.378964 -0.857253 0.0374512 -0.368523 -0.869236 0.0333582 -0.373412 
-0.914911 -0.023571 -0.483326 -0.853881 0.0580468 -0.368251 -0.854614 0.078205 -0.367335 
-0.735864 0.0645188 -0.267383 -0.72143 0.00342175 -0.235908 -0.693487 -0.0104903 -0.301543 
-0.858426 -0.0768193 -0.387206 -0.895371 -0.0656717 -0.393359 -0.795281 0.00156474 -0.196687 
-0.825366 -0.0545424 -0.360168 -1.11966 -0.131673 -0.441243 -0.716497 0.0492957 -0.307176 
-0.800916 0.0706644 -0.349441 -0.84475 0.0650072 -0.353955 -0.948995 -0.0858563 -0.402748 
-0.737938 0.054832 -0.295204 -0.771999 -0.0752171 -0.354314 -0.81182 -0.0891084 -0.345559 
-0.780597 -0.00959203 -0.32617 -0.756992 -0.0340392 -0.310168 -0.628934 0.0816784 -0.272282 
-0.780999 0.00367259 -0.341223 -0.947548 0.0319495 -0.49404 -0.711526 0.0255888 -0.28802 
-0.672944 0.0400427 -0.294989 -1.02516 -0.00613264 -0.528965 -0.684108 0.014668 -0.278132 
-0.849857 -0.0672934 -0.363599 -0.785514 0.0292865 -0.338442 -0.835199 0.020043 -0.358912 
-0.746358 -0.0206335 -0.307041 -0.744246 -0.0745945 -0.313778 -0.87589 -0.160951 -0.585864 
-0.740234 0.00173271 -0.316919 -0.736282 -0.0123718 -0.305547 -0.612143 -0.0973127 -0.339959 
-0.970815 -0.0649042 -0.357006 -0.649194 0.102023 -0.259656 -0.918871 -0.0981704 -0.514711 
-0.471951 0.109847 -0.168347 -0.674786 0.0221064 -0.291553 -0.710741 -0.0339246 -0.302108 
-0.781673 -0.114001 -0.301667 -0.885414 -0.00256504 -0.369198 -0.7435 -0.0285241 -0.305037 
-0.602191 -0.148315 -0.383023 -0.706962 0.034526 -0.319999 -0.927575 0.0283757 -0.389756 
-0.663637 -0.0559666 -0.239133 -0.612395 0.0148739 -0.26454 -0.751206 -0.0445673 -0.310887 
-0.652605 0.0464665 -0.280598 -0.768106 -0.0306171 -0.329836 -0.691513 -0.0297519 -0.292721 
-0.665284 -0.0490405 -0.288478 -0.767237 0.0573256 -0.286088 -0.936626 0.0899873 -0.254623 
-0.505142 -0.170437 -0.200916 -0.593564 -0.138823 -0.274025 -0.929715 0.304501 -0.0250276 
-0.519668 -0.0607111 -0.21843 -0.520951 -0.00182067 -0.221201 -0.599403 -0.0148113 -0.25091 
-0.588933 -0.01541 -0.250091 -0.700656 -0.0462357 -0.29146 -0.65242 -0.001978 -0.276024 
-0.669885 -0.000975425 -0.283313 -0.697604 0.0162118 -0.293835 -0.706712 0.0167499 -0.297611 
-0.821425 -0.0574245 -0.352677 -0.718892 0.140777 -0.349961 -0.648661 -0.217148 -0.241484 
-0.647488 -0.15998 -0.234243 -0.538875 -0.0337196 -0.222731 -0.866124 -0.046102 -0.401018 
-0.885768 -0.185287 -0.0627069 -0.644485 0.0481056 -0.270058 -0.682962 -0.025272 -0.304997 
-0.694 0.0339535 -0.287587 -0.687913 -0.00893209 -0.288557 -0.74427 0.0659696 -0.301132 
-1.01784 -0.051343 -0.436273 -0.727503 0.0522273 -0.278071 -0.830709 0.292359 -0.186556 
-0.764749 0.0276999 -0.213509 -0.681774 0.0656537 -0.29334 -0.652901 0.0538196 -0.276624 
-0.615778 0.016248 -0.264126 -0.468727 0.00562481 -0.185191 -0.610303 -0.00730714 -0.255759 
-0.885277 0.161423 -0.404735 -0.42595 0.0970137 -0.151967 -0.475708 0.153449 -0.0951955 
-0.617624 0.175497 -0.341516 -0.838958 -0.297881 -0.250459 -0.704661 -0.0866899 -0.273956 
-0.343222 -0.0315952 -0.00271423 -0.402146 0.250842 -0.360795 -0.91411 0.136395 -0.403209 
-0.678206 0.0417382 -0.282053 -0.598033 -0.0672505 -0.249991 -0.639535 0.0417673 -0.273702 
-0.759356 -0.00472836 -0.454001 -0.53304 0.0294783 -0.226779 -0.720823 -0.0619239 -0.872838 
-1.01286 -0.20782 -0.494795 -0.467067 0.389332 -0.413638 -0.747165 -0.155978 -0.323136 
-0.579783 -0.00132497 -0.231587 -0.492718 0.146481 -0.209755 -0.587068 -0.0425011 -0.287859 
-0.460097 -0.0490063 -0.196604 -0.473999 0.00795857 -0.197589 -0.432831 -0.0353681 -0.169342 
-0.595448 -0.116509 -0.259302 -0.527236 0.137775 -0.16491 -0.832485 -0.012347 -0.280121 
-0.79364 0.0240787 -0.19552 -0.448675 0.0562789 -0.190891 -0.639597 -0.247342 -0.29204 
-0.622663 0.00468297 -0.251458 -0.562106 -0.0158409 -0.276597 -0.602173 0.0475926 -0.258282 
-0.723811 0.17888 -0.47696 -0.812608 0.0284057 -0.311122 -0.984903 -0.153922 -0.314851 
-0.440791 -0.0375481 -0.187806 -0.53622 -0.0199721 -0.228089 -0.493621 -0.00365015 -0.20659 
-0.736541 -0.120472 -0.322667 -0.655976 -0.0388328 -0.282934 -0.615523 -0.0630699 -0.270754 
-0.785981 0.17833 -0.261443 -0.621327 -0.281582 -0.20485 -0.547593 0.0130415 -0.230649 
-0.506191 -0.00678279 -0.284686 -0.347082 0.0650561 -0.0943067 -0.595031 0.0185843 -0.23098 
-0.521168 -0.0381739 -0.214675 -0.56652 0.00679376 -0.240003 -0.498891 0.0503343 -0.208878 
-0.42759 0.0293845 -0.126249 -1.53925 0.230518 -0.324544 -0.438263 0.190058 -0.340758 
-0.419702 -0.225965 -0.112963 -0.966949 0.100851 -0.276793 -0.80953 0.0612401 -0.0361696 
-0.663932 -0.099931 -0.345277 -0.448804 0.138874 -0.226577 -0.384057 -0.00699862 -0.161031 
-0.587102 -0.0334429 -0.14619 -0.790574 0.224355 -0.758749 -0.585899 0.133327 -0.611633 
-0.685107 0.155045 -0.254734 -0.731614 0.344903 -0.419239 -0.595377 0.140732 -0.240058 
-0.756816 -0.0326687 -0.611508 -0.625903 0.264827 -0.217686 -0.686231 -0.140948 -0.179475 
-0.727816 -0.0658445 -0.281726 -0.632994 -0.131974 -0.798867 -0.695374 0.101091 -0.629348 
-0.460238 0.0371799 -0.19758 -0.982111 0.254885 -0.490524 -0.458438 -0.0908131 -0.190029 
-0.494778 -0.0395539 -0.225018 -0.624912 0.0200291 -0.597548 -0.584366 -0.0581988 -0.244792 
-0.667015 0.301205 -0.418146 -0.493262 0.0367858 -0.168768 -0.545734 0.0963218 -0.221245 
-0.332427 -0.0420349 -0.153031 -0.444908 0.0871933 -0.159606 -0.558411 0.162176 -0.181595 
-0.513784 -0.0651788 -0.239711 -0.836961 -0.278469 -0.251407 -0.628421 -0.421972 -0.221367 
-0.711443 -0.448626 -0.402088 -0.441701 -0.250958 -0.155584 -0.34267 -0.118664 -0.131076 
-0.719159 0.111782 -0.620594 -0.609935 0.10315 -0.429413 -0.41684 0.0107493 -0.206075 
-0.543155 0.0558759 -0.230638 -0.769113 0.241404 -0.328751 -0.763308 -0.0253528 -0.692133 
-1.07962 0.301509 -0.456585 -0.660839 -0.238081 -0.654063 -0.71091 -0.00526337 -0.700674 
-0.25697 -0.0440193 -0.107717 -0.719559 0.338379 -0.518138 -0.360431 -0.00542782 -0.148667 
-0.888393 0.102019 -0.300382 -0.281673 -0.0221947 -0.216364 -0.375096 -0.0514548 -0.1618 
-0.403034 -0.080131 -0.175054 -0.45962 -0.0434123 -0.203314 -0.618373 -0.0925442 -0.266811 
-0.643298 0.072288 -0.266809 -0.732181 -0.110349 -0.404055 -0.202787 0.138017 -0.0977751 
-0.71497 -0.327265 -0.612411 -0.460924 -0.101486 -0.194017 -0.37138 0.00487003 -0.200891 
-0.552686 -0.0723136 -0.246522 -0.743416 -0.192541 -0.485705 -0.720017 0.322425 0.113055 
-0.362621 -0.0123112 -0.298034 -0.694607 0.15001 -0.51359 -0.56583 0.412482 -0.378888 
-0.346752 0.0456037 -0.171492 -0.609383 -0.0186843 -0.324923 -0.880848 0.110913 -0.445048 
-0.487236 -0.178316 -0.211557 -0.394908 0.0663174 -0.529046 -0.578304 -0.0810143 -0.0848467 
-0.633982 -0.320461 -0.043119 -0.353621 -0.040564 -0.152739 -0.72891 0.232872 -0.561355 
-0.987846 0.412117 -0.282569 -0.677027 0.236831 0.00842089 -0.754938 0.181228 0.0849291 
-0.297572 0.0147571 -0.123527 -0.71541 0.262642 -0.487952 -0.448107 -0.0766494 -0.17655 
-0.522528 -0.026726 -0.0253206 -0.241181 0.130997 -0.370092 -0.0850519 0.416724 -0.173333 
-0.33453 0.275516 -0.129864 -0.326648 -0.286929 -0.133083 -0.749141 -0.0168511 -0.393571 
-0.623565 -0.00566933 -0.294512 -0.274877 -0.205727 -0.0174024 -0.120985 -0.323627 0.0961131 
-0.25563 0.0129929 -0.250339 -0.45476 0.115506 -0.273486 -0.629687 -0.0352989 -0.523761 
-0.720296 -0.234494 0.208612 -0.608873 -0.158156 -0.254519 -0.65765 0.71626 -0.0511999 
-0.675105 0.0427683 -0.17636 -0.529194 0.429115 -0.163743 -0.723386 0.297837 0.197403 
-0.74361 0.235968 0.0181023 -0.676879 0.0931092 -0.611964 -0.234047 0.0624611 -0.16758 
-0.438595 -0.0272761 0.127273 -0.827364 -0.131056 -0.200739 -0.742994 -0.0167129 0.262407 
-0.494523 -0.236489 -0.327544 -0.209922 0.0592972 -0.264053 -0.546739 0.134311 -0.26617 
-0.448739 -0.179456 -0.592768 -0.49361 -0.170753 -0.228432 -0.22994 0.126067 0.278813 
-0.716093 -0.147107 0.183086 -0.696059 -0.326682 -0.349532 -0.887745 -0.210175 -0.0519488 
-0.386327 -0.297837 -0.132441 -0.833006 0.234785 -0.35227 -0.423467 0.0524752 0.1526 
-0.723498 -0.2629 0.246032 -0.863295 0.0752397 -0.0620985 -0.364655 0.115095 -0.0754337 
-0.914262 -0.591646 -0.699358 -0.282901 0.0797938 -0.144763 -0.712301 0.270222 0.204027 
-0.721955 0.265045 0.188951 -0.556295 0.0748484 -0.230556 -0.283751 0.100584 -0.179648 
0 0 -2.03903 -0.646793 0.0219488 -0.312526 -0.714328 -0.146745 -0.288508 
-0.509376 -0.320151 -0.263729 -0.287199 -0.032544 0.104631 -0.719945 -0.0267454 0.284407 
-0.118833 -0.559241 0.290567 -0.564941 0.155663 -0.328251 -0.282822 -0.0945097 -0.0565938 
-0.716897 0.263188 -0.0885958 -0.73126 0.105972 0.236839 -0.633226 0.178197 -0.0365453 
-0.676204 -0.237901 -0.00103503 -0.676751 0.265878 0.0440874 -0.71918 -0.026717 0.0823988 