# vtk DataFile Version 4.0
Generated by LIGGGHTS
ASCII
DATASET POLYDATA
POINTS 614 float
-0.498888 0.0382619 -0.35707 -0.441269 -0.0142905 -0.324869 -0.458244 0.0453191 -0.321364 
-0.421641 -0.00325265 -0.305394 -0.388712 -0.00999866 -0.279969 -0.38165 0.00594679 -0.277125 
-0.381734 -0.011952 -0.274049 -0.379893 -0.00705525 -0.274695 -0.379967 -0.0158846 -0.271852 
-0.377513 -0.0097777 -0.270961 -0.362034 -0.00137782 -0.26293 -0.362954 0.00971092 -0.262345 
-0.390609 0.0528703 -0.259162 -0.354038 0.0157441 -0.256846 -0.350909 -0.0230814 -0.25332 
-0.342123 0.00580793 -0.251321 -0.348499 0.00782779 -0.253541 -0.343693 0.0131699 -0.251465 
-0.343282 0.018162 -0.249083 -0.34638 0.0323459 -0.247561 -0.346291 -0.0403821 -0.242161 
-0.325398 -0.0118846 -0.242533 -0.327145 0.0103058 -0.242426 -0.312972 -0.00223599 -0.238032 
-0.316024 0.0115271 -0.238674 -0.331915 -0.0473749 -0.233432 -0.317633 -0.0313725 -0.233968 
-0.311264 -0.00851403 -0.235907 -0.30597 -0.0101954 -0.233522 -0.31088 0.00104441 -0.236083 
-0.307383 0.00728856 -0.235301 -0.360728 -0.0621936 -0.231768 -0.300809 -0.00941985 -0.231126 
-0.297933 -0.00639835 -0.231541 -0.293845 -0.00528133 -0.229701 -0.297108 -0.00264378 -0.23024 
-0.29533 0.0010486 -0.230613 -0.295168 -0.0239877 -0.22673 -0.285528 -0.000477132 -0.22651 
-0.29549 0.00643517 -0.229254 -0.284766 0.00447687 -0.225941 -0.282632 -0.00938787 -0.224882 
-0.277437 -0.00786733 -0.222846 -0.279426 -0.000364031 -0.222854 -0.28027 0.0053414 -0.223989 
-0.287329 0.0307099 -0.222657 -0.274387 -0.0140121 -0.220919 -0.267031 -0.00216755 -0.218661 
-0.270401 0.00638655 -0.21982 -0.275963 0.00717553 -0.221023 -0.270975 0.0103292 -0.21875 
-0.27542 -0.027167 -0.218943 -0.270863 -0.0212595 -0.218316 -0.26916 -0.0144643 -0.218664 
-0.271756 0.0180974 -0.218027 -0.312571 0.0587854 -0.218156 -0.258322 -0.00654413 -0.214811 
-0.255065 -0.00497139 -0.21242 -0.259043 -0.00133323 -0.214251 -0.251656 0.00350123 -0.212043 
-0.255335 0.00865627 -0.212289 -0.258032 0.0129853 -0.213075 -0.2421 0.00195569 -0.208061 
-0.245384 0.00863968 -0.209193 -0.250427 0.0109549 -0.210131 -0.249459 0.0153298 -0.20963 
-0.266162 0.0458323 -0.20866 -0.242929 -0.0286889 -0.205087 -0.240378 -0.0122648 -0.205704 
-0.235468 -0.00913385 -0.204864 -0.24267 -0.0386757 -0.202144 -0.237116 -0.025598 -0.202158 
-0.232157 -0.0187103 -0.202577 -0.233124 -0.0135184 -0.203551 -0.232626 -0.0105644 -0.203571 
-0.230047 -0.00624567 -0.201745 -0.233448 0.0101732 -0.204145 -0.230497 0.00869861 -0.201881 
-0.226424 0.00721219 -0.201282 -0.255608 0.0454559 -0.203504 -0.233276 -0.0331721 -0.200037 
-0.227753 -0.0311475 -0.198179 -0.231645 -0.0231315 -0.200374 -0.227489 -0.0167003 -0.200879 
-0.222164 -0.0127979 -0.198861 -0.227362 -0.010217 -0.200321 -0.222457 -0.00982018 -0.19932 
-0.21849 -0.00948284 -0.197716 -0.226807 -0.00259867 -0.200508 -0.247963 0.00130821 -0.200566 
-0.223832 0.00258105 -0.200296 -0.219589 0.0037351 -0.198508 -0.223401 0.0163493 -0.199133 
-0.226949 0.0192794 -0.200223 -0.227182 0.0240604 -0.199606 -0.23282 0.0254773 -0.200526 
-0.230707 0.0348759 -0.198427 -0.225163 -0.0382375 -0.19506 -0.221527 -0.0262087 -0.196607 
-0.214692 -0.00860084 -0.195139 -0.212496 -0.00374115 -0.195596 -0.211625 0.00177198 -0.195156 
-0.213344 0.00756731 -0.195825 -0.212501 0.0115404 -0.195097 -0.214836 0.0190972 -0.195184 
-0.215467 -0.0281243 -0.193714 -0.210869 -0.0248367 -0.191458 -0.216425 -0.023765 -0.193956 
-0.217088 -0.018489 -0.191332 -0.206861 -0.00676971 -0.192048 -0.207773 -0.00283863 -0.193574 
-0.203902 0.00223226 -0.191512 -0.211328 0.0234678 -0.193072 -0.201132 -0.01437 -0.18888 
-0.196664 -0.0104494 -0.188116 -0.193943 -0.0134823 -0.18701 -0.196713 0.00740416 -0.188823 
-0.214518 -0.0480423 -0.187222 -0.199351 -0.0319348 -0.186163 -0.199069 -0.0229133 -0.187003 
-0.188742 -0.015219 -0.184608 -0.188833 -0.0106438 -0.184148 -0.189081 -0.00637119 -0.185608 
-0.189163 -0.00178352 -0.185712 -0.192028 0.00730224 -0.185739 -0.185607 0.00947818 -0.18388 
-0.189732 0.02017 -0.184648 -0.194851 0.0215115 -0.185438 -0.19444 0.0255454 -0.185507 
-0.261913 0.0754164 -0.186337 -0.204326 -0.0488747 -0.18285 -0.194693 -0.0382953 -0.182685 
-0.191088 -0.0275107 -0.182702 -0.187012 -0.0212623 -0.183219 -0.185796 -0.0143198 -0.181955 
-0.184733 -0.00766943 -0.182638 -0.179169 -0.00919682 -0.181317 -0.180173 -0.00404895 -0.181836 
-0.182476 -0.000637245 -0.181783 -0.179088 0.00513865 -0.181513 -0.181425 0.0102955 -0.182026 
-0.183926 0.0117372 -0.182859 -0.188223 0.0167871 -0.183142 -0.18396 0.0156651 -0.180658 
-0.179987 0.0142977 -0.180832 -0.191086 0.0234403 -0.182767 -0.187662 0.0227766 -0.183262 
-0.185463 0.0210185 -0.1804 -0.189182 0.0258163 -0.183278 -0.181023 0.024336 -0.180152 
-0.173231 -0.012962 -0.177441 -0.176651 -0.00513384 -0.179256 -0.172993 -0.00685355 -0.178805 
-0.174133 -0.000206594 -0.179381 -0.172786 0.0128018 -0.177098 -0.172742 0.0187634 -0.177676 
-0.185854 0.0281519 -0.179869 -0.182736 0.0344846 -0.178818 -0.198907 0.0552476 -0.176718 
-0.17373 -0.0302801 -0.176049 -0.161884 -0.0181866 -0.173185 -0.180435 -0.0169279 -0.174946 
-0.162507 -0.0133348 -0.173976 -0.165154 0.00316808 -0.175633 -0.165622 0.00933659 -0.175482 
-0.166395 0.0137002 -0.174358 -0.173884 0.0317759 -0.174607 -0.156407 -0.0233356 -0.170204 
-0.156654 -0.0198771 -0.170745 -0.15958 -0.014954 -0.171527 -0.155531 -0.0114606 -0.17122 
-0.159745 -0.008563 -0.172101 -0.151087 -0.00974732 -0.169445 -0.156248 0.00128928 -0.170743 
-0.154774 0.00680962 -0.170069 -0.155006 0.0126908 -0.169721 -0.159486 0.0160151 -0.17131 
-0.171365 0.0422389 -0.170596 -0.153071 -0.0316611 -0.167165 -0.150052 -0.0212131 -0.166771 
-0.15102 -0.0142399 -0.169074 -0.149387 -0.0174492 -0.168038 -0.148054 -0.0103796 -0.166989 
-0.146343 -0.00507876 -0.1666 -0.155061 -0.00214332 -0.166006 -0.143018 0.00947834 -0.166035 
-0.145624 0.0120315 -0.166954 -0.150057 0.0157169 -0.167263 -0.145525 0.0154655 -0.16652 
-0.151868 0.0332309 -0.166319 -0.159588 0.0419391 -0.167013 -0.142896 -0.00877426 -0.164609 
-0.139482 -0.00340831 -0.164827 -0.140066 0.000478944 -0.16401 -0.137015 0.00405346 -0.163699 
-0.137204 0.00798879 -0.163627 -0.138075 0.0111545 -0.163863 -0.135316 0.0119521 -0.162654 
-0.143349 0.0282794 -0.163718 -0.147576 0.0317818 -0.164813 -0.15288 0.0389987 -0.165173 
-0.148449 -0.050252 -0.159792 -0.13651 -0.019051 -0.161369 -0.155434 -0.0104357 -0.160568 
-0.132364 -0.0107117 -0.161506 -0.129962 -0.00470328 -0.160769 -0.126384 -0.0014697 -0.159346 
-0.13262 0.000356159 -0.160913 -0.128715 0.00204037 -0.16034 -0.135048 0.00574442 -0.160653 
-0.130459 0.00750278 -0.159685 -0.135723 0.0156939 -0.162405 -0.136148 0.0204919 -0.160866 
-0.14863 0.0493818 -0.160234 -0.135637 -0.0467849 -0.155741 -0.135827 -0.0419906 -0.157351 
-0.12442 -0.0240512 -0.156639 -0.121692 -0.0209088 -0.155926 -0.146747 -0.0117513 -0.155571 
-0.125509 -0.0141853 -0.158273 -0.122912 -0.0128028 -0.156909 -0.120736 -0.0107659 -0.156553 
-0.12118 -0.00444212 -0.156642 -0.123758 0.00102931 -0.157147 -0.147977 0.00624544 -0.158041 
-0.125162 0.0073414 -0.158542 -0.132158 0.0238398 -0.158703 -0.147825 0.0555138 -0.157507 
-0.154465 -0.0669401 -0.154703 -0.138949 -0.0598834 -0.152005 -0.116905 -0.0111592 -0.153857 
-0.138219 -0.00714468 -0.155652 -0.116252 -0.00456633 -0.153944 -0.112822 -0.00014001 -0.152503 
-0.128249 0.00405508 -0.154311 -0.11323 0.00487603 -0.153749 -0.111761 0.00784472 -0.152961 
-0.117124 0.0113077 -0.154971 -0.160149 -0.0786407 -0.149364 -0.112467 -0.0319952 -0.14908 
-0.10377 -0.0176683 -0.148712 -0.11845 -0.012584 -0.149365 -0.111728 -0.0112666 -0.151043 
-0.106128 -0.0133462 -0.149138 -0.106375 -0.00873168 -0.150634 -0.107982 -0.0034886 -0.151542 
-0.1057 -0.00571349 -0.14991 -0.102237 -0.0042602 -0.149138 -0.124355 -0.00106845 -0.150539 
-0.13331 0.00101274 -0.149417 -0.106875 0.00437761 -0.148394 -0.123607 0.00789395 -0.15159 
-0.114613 0.00802143 -0.151004 -0.109196 0.00727405 -0.15142 -0.109499 0.0130005 -0.151626 
-0.105856 0.0114289 -0.150217 -0.10123 0.0114252 -0.148274 -0.109411 0.0163377 -0.151351 
-0.106464 0.0156153 -0.148473 -0.152443 0.0211514 -0.149402 -0.114315 0.0228221 -0.15064 
-0.108959 0.0223879 -0.150225 -0.113545 0.0343685 -0.150131 -0.126329 0.0550828 -0.149158 
-0.147101 0.069707 -0.149048 -0.108483 -0.0384233 -0.147191 -0.0958375 -0.0225454 -0.144864 
-0.120454 -0.0151089 -0.145589 -0.0934054 -0.0156118 -0.144743 -0.0994264 -0.00950542 -0.147642 
-0.0957296 -0.00994645 -0.144971 -0.0972474 -0.00478962 -0.145928 -0.107396 -0.00277723 -0.147431 
-0.101749 -0.00117431 -0.1481 -0.096785 0.00497219 -0.146245 -0.0989421 0.00779644 -0.14759 
-0.0944767 0.01137 -0.14543 -0.108096 0.02604 -0.14768 -0.104074 0.0274581 -0.147547 
-0.110787 -0.0565483 -0.142256 -0.0989584 -0.0347744 -0.141701 -0.0944023 -0.0191077 -0.144707 
-0.088659 -0.0160453 -0.14268 -0.0953354 -0.0124262 -0.141689 -0.0890873 -0.0102974 -0.142161 
-0.091236 -0.00449555 -0.143281 -0.087446 -0.00540097 -0.142283 -0.101345 3.95067e-05 -0.144004 
-0.0914493 0.00174652 -0.143456 -0.0870499 0.00263379 -0.142682 -0.100932 0.0109468 -0.142797 
-0.094766 0.00775285 -0.143708 -0.0899822 0.00785382 -0.143839 -0.0896253 0.0192684 -0.142069 
-0.0928565 0.0226767 -0.143609 -0.0910977 0.027551 -0.141801 -0.0827608 -0.0322065 -0.137774 
-0.104145 -0.0134419 -0.138667 -0.0773075 -0.0118262 -0.13821 -0.0796878 -0.0095418 -0.139227 
-0.105864 -0.00700887 -0.139381 -0.0815292 -0.00670489 -0.140253 -0.0784994 -0.00557394 -0.137911 
-0.114403 0.00514622 -0.138663 -0.089081 0.00831087 -0.13921 -0.084164 0.0166476 -0.138822 
-0.0785462 0.0164554 -0.138296 -0.0872614 0.0245918 -0.139857 -0.0919761 0.0354918 -0.140931 
-0.0903742 -0.0429414 -0.137274 -0.0818861 -0.0449205 -0.134215 -0.0832862 -0.0426017 -0.135568 
-0.0789156 -0.0372862 -0.134583 -0.0770545 -0.0144296 -0.136605 -0.0739607 -0.0118598 -0.136796 
-0.0708243 -0.011215 -0.135503 -0.0684285 -0.0131462 -0.134406 -0.0739415 -0.00866215 -0.136947 
[...]
POINT_DATA 614
FIELD FieldData 7
id 1 614 int
22 35 32 16 6 10 2 44 12 
11 57 1 20 25 13 23 30 38 
29 21 14 19 3 7 47 33 28 
5 40 4 69 51 54 56 45 27 
73 93 89 66 61 37 8 52 36 
120 100 77 59 42 91 173 85 87 
94 60 133 41 55 176 39 15 71 
31 17 84 147 113 78 58 63 80 
50 46 74 92 125 65 162 117 76 
101 43 98 18 53 110 112 67 131 
86 164 102 126 153 145 88 62 24 
130 137 190 111 48 108 95 26 103 
207 196 75 186 34 104 148 150 121 
97 178 168 179 180 177 82 68 160 
138 193 122 139 174 171 141 140 79 
129 202 198 195 184 159 127 118 154 
241 163 107 106 114 49 132 142 166 
204 144 83 219 151 81 70 189 187 
123 215 210 156 158 265 134 183 136 
116 250 115 143 169 105 119 225 157 
229 149 181 221 211 209 252 170 212 
99 213 270 146 205 124 175 254 96 
199 64 278 109 272 167 152 197 161 
182 224 206 128 228 208 72 185 201 
172 223 244 276 236 280 249 245 200 
261 234 251 135 305 295 294 233 220 
317 292 314 191 188 260 274 284 293 
243 267 238 227 247 277 324 218 290 
299 266 273 226 242 253 321 352 322 
264 230 289 155 263 222 307 214 235 
258 259 287 304 303 192 262 256 275 
288 271 255 203 330 283 333 329 297 
232 240 363 194 248 368 217 367 344 
298 237 318 332 315 285 296 310 348 
300 282 306 308 377 327 341 370 351 
313 291 302 316 347 311 331 320 269 
165 239 281 343 246 339 323 286 309 
231 340 279 90 366 216 346 336 355 
362 301 325 354 390 338 394 257 326 
328 365 387 360 389 319 342 345 382 
356 349 388 268 386 429 418 334 375 
358 419 337 353 350 371 361 446 378 
335 420 409 401 405 400 393 404 374 
357 380 385 359 373 447 410 9 455 
312 458 423 454 430 414 448 364 444 
391 369 383 460 422 438 408 415 407 
392 399 396 445 451 384 450 443 376 
412 457 442 406 462 402 466 456 411 
468 372 459 427 439 424 465 381 395 
403 473 379 435 413 434 433 441 471 
431 425 452 449 398 436 464 417 470 
397 440 469 453 437 421 416 463 461 
426 428 432 484 467 480 472 478 485 
482 477 474 481 476 479 475 483 486 
496 493 492 497 488 491 490 495 487 
489 498 494 506 507 510 501 508 503 
509 511 504 505 500 499 502 519 522 
517 513 512 516 514 520 521 523 518 
529 515 536 528 532 527 533 535 530 
534 526 531 543 524 525 549 548 547 
545 540 538 541 546 539 542 559 555 
544 550 552 537 561 562 557 558 553 
560 554 556 551 569 566 564 565 563 
574 568 571 570 573 572 567 587 575 
582 588 576 581 577 583 578 579 586 
580 596 585 584 591 595 601 594 598 
589 590 597 593 592 600 599 611 608 
602 603 607 605 614 609 610 604 613 
606 612 
type 1 614 int
1 1 1 1 1 1 1 1 1 
1 1 1 1 1 1 1 1 1 
1 1 1 1 1 1 1 1 1 
1 1 1 1 1 1 1 1 1 
1 1 1 1 1 1 1 1 1 
1 1 1 1 1 1 1 1 1 
1 1 1 1 1 1 1 1 1 
1 1 1 1 1 1 1 1 1 
1 1 1 1 1 1 1 1 1 
1 1 1 1 1 1 1 1 1 
1 1 1 1 1 1 1 1 1 
1 1 1 1 1 1 1 1 1 
1 1 1 1 1 1 1 1 1 
1 1 1 1 1 1 1 1 1 
1 1 1 1 1 1 1 1 1 
1 1 1 1 1 1 1 1 1 
1 1 1 1 1 1 1 1 1 
1 1 1 1 1 1 1 1 1 
1 1 1 1 1 1 1 1 1 
1 1 1 1 1 1 1 1 1 
1 1 1 1 1 1 1 1 1 
1 1 1 1 1 1 1 1 1 
1 1 1 1 1 1 1 1 1 
1 1 1 1 1 1 1 1 1 
1 1 1 1 1 1 1 1 1 
1 1 1 1 1 1 1 1 1 
1 1 1 1 1 1 1 1 1 
1 1 1 1 1 1 1 1 1 
1 1 1 1 1 1 1 1 1 
1 1 1 1 1 1 1 1 1 
1 1 1 1 1 1 1 1 1 
1 1 1 1 1 1 1 1 1 
1 1 1 1 1 1 1 1 1 
1 1 1 1 1 1 1 1 1 
1 1 1 1 1 1 1 1 1 
1 1 1 1 1 1 1 1 1 
1 1 1 1 1 1 1 1 1 
1 1 1 1 1 1 1 1 1 
1 1 1 1 1 1 1 1 1 
1 1 1 1 1 1 1 1 1 
1 1 1 1 1 1 1 1 1 
1 1 1 1 1 1 1 1 1 
1 1 1 1 1 1 1 1 1 
1 1 1 1 1 1 1 1 1 
1 1 1 1 1 1 1 1 1 
1 1 1 1 1 1 1 1 1 
1 1 1 1 1 1 1 1 1 
1 1 1 1 1 1 1 1 1 
1 1 1 1 1 1 1 1 1 
1 1 1 1 1 1 1 1 1 
1 1 1 1 1 1 1 1 1 
1 1 1 1 1 1 1 1 1 
1 1 1 1 1 1 1 1 1 
1 1 1 1 1 1 1 1 1 
1 1 1 1 1 1 1 1 1 
1 1 1 1 1 1 1 1 1 
1 1 1 1 1 1 1 1 1 
1 1 1 1 1 1 1 1 1 
1 1 1 1 1 1 1 1 1 
1 1 1 1 1 1 1 1 1 
1 1 1 1 1 1 1 1 1 
1 1 1 1 1 1 1 1 1 
1 1 1 1 1 1 1 1 1 
1 1 1 1 1 1 1 1 1 
1 1 1 1 1 1 1 1 1 
1 1 1 1 1 1 1 1 1 
1 1 1 1 1 1 1 1 1 
1 1 1 1 1 1 1 1 1 
1 1 
i 3 614 int
0 0 0 0 0 0 0 0 0 
0 0 0 0 0 0 0 0 0 
0 0 0 0 0 0 0 0 0 
0 0 0 0 0 0 0 0 0 
0 0 0 0 0 0 0 0 0 
0 0 0 0 0 0 0 0 0 
0 0 0 0 0 0 0 0 0 
0 0 0 0 0 0 0 0 0 
0 0 0 0 0 0 0 0 0 
0 0 0 0 0 0 0 0 0 
0 0 0 0 0 0 0 0 0 
0 0 0 0 0 0 0 0 0 
0 0 0 0 0 0 0 0 0 
0 0 0 0 0 0 0 0 0 
0 0 0 0 0 0 0 0 0 
0 0 0 0 0 0 0 0 0 
0 0 0 0 0 0 0 0 0 
0 0 0 0 0 0 0 0 0 
0 0 0 0 0 0 0 0 0 
0 0 0 0 0 0 0 0 0 
0 0 0 0 0 0 0 0 0 
0 0 0 0 0 0 0 0 0 
0 0 0 0 0 0 0 0 0 
0 0 0 0 0 0 0 0 0 
0 0 0 0 0 0 0 0 0 
0 0 0 0 0 0 0 0 0 
0 0 0 0 0 0 0 0 0 
0 0 0 0 0 0 0 0 0 
0 0 0 0 0 0 0 0 0 
0 0 0 0 0 0 0 0 0 
0 0 0 0 0 0 0 0 0 
0 0 0 0 0 0 0 0 0 
0 0 0 0 0 0 0 0 0 
0 0 0 0 0 0 0 0 0 
0 0 0 0 0 0 0 0 0 
0 0 0 0 0 0 0 0 0 
0 0 0 0 0 0 0 0 0 
0 0 0 0 0 0 0 0 0 
0 0 0 0 0 0 0 0 0 
0 0 0 0 0 0 0 0 0 
0 0 0 0 0 0 0 0 0 
0 0 0 0 0 0 0 0 0 
0 0 0 0 0 0 0 0 0 
0 0 0 0 0 0 0 0 0 
0 0 0 0 0 0 0 0 0 
0 0 0 0 0 0 0 0 0 
0 0 0 0 0 0 0 0 0 
0 0 0 0 0 0 0 0 0 
0 0 0 0 0 0 0 0 0 
0 0 0 0 0 0 0 0 0 
0 0 0 0 0 0 0 0 0 
0 0 0 0 0 0 0 0 0 
0 0 0 0 0 0 0 0 0 
0 0 0 0 0 0 0 0 0 
0 0 0 0 0 0 0 0 0 
0 0 0 0 0 0 0 0 0 
0 0 0 0 0 0 0 0 0 
0 0 0 0 0 0 0 0 0 
0 0 0 0 0 0 0 0 0 
0 0 0 0 0 0 0 0 0 
0 0 0 0 0 0 0 0 0 
0 0 0 0 0 0 0 0 0 
0 0 0 0 0 0 0 0 0 
0 0 0 0 0 0 0 0 0 
0 0 0 0 0 0 0 0 0 
0 0 0 0 0 0 0 0 0 
0 0 0 0 0 0 0 0 0 
0 0 0 0 0 0 0 0 0 
0 0 0 0 0 0 0 0 0 
0 0 0 0 0 0 0 0 0 
0 0 0 0 0 0 0 0 0 
0 0 0 0 0 0 0 0 0 
0 0 0 0 0 0 0 0 0 
0 0 0 0 0 0 0 0 0 
0 0 0 0 0 0 0 0 0 
0 0 0 0 0 0 0 0 0 
0 0 0 0 0 0 0 0 0 
0 0 0 0 0 0 0 0 0 
0 0 0 0 0 0 0 0 0 
0 0 0 0 0 0 0 0 0 
0 0 0 0 0 0 0 0 0 
0 0 0 0 0 0 0 0 0 
0 0 0 0 0 0 0 0 0 
0 0 0 0 0 0 0 0 0 
0 0 0 0 0 0 0 0 0 
0 0 0 0 0 0 0 0 0 
0 0 0 0 0 0 0 0 0 
0 0 0 0 0 0 0 0 0 
0 0 0 0 0 0 0 0 0 
0 0 0 0 0 0 0 0 0 
0 0 0 0 0 0 0 0 0 
0 0 0 0 0 0 0 0 0 
0 0 0 0 0 0 0 0 0 
0 0 0 0 0 0 0 0 0 
0 0 0 0 0 0 0 0 0 
0 0 0 0 0 0 0 0 0 
0 0 0 0 0 0 0 0 0 
0 0 0 0 0 0 0 0 0 
0 0 0 0 0 0 0 0 0 
0 0 0 0 0 0 0 0 0 
0 0 0 0 0 0 0 0 0 
0 0 0 0 0 0 0 0 0 
0 0 0 0 0 0 0 0 0 
0 0 0 0 0 0 0 0 0 
0 0 0 0 0 0 0 0 0 
0 0 0 0 0 0 0 0 0 
0 0 0 0 0 0 0 0 0 
0 0 0 0 0 0 0 0 0 
0 0 0 0 0 0 0 0 0 
0 0 0 0 0 0 0 0 0 
0 0 0 0 0 0 0 0 0 
0 0 0 0 0 0 0 0 0 
0 0 0 0 0 0 0 0 0 
0 0 0 0 0 0 0 0 0 
0 0 0 0 0 0 0 0 0 
0 0 0 0 0 0 0 0 0 
0 0 0 0 0 0 0 0 0 
0 0 0 0 0 0 0 0 0 
0 0 0 0 0 0 0 0 0 
0 0 0 0 0 0 0 0 0 
0 0 0 0 0 0 0 0 0 
0 0 0 0 0 0 0 0 0 
0 0 0 0 0 0 0 0 0 
0 0 0 0 0 0 0 0 0 
0 0 0 0 0 0 0 0 0 
0 0 0 0 0 0 0 0 0 
0 0 0 0 0 0 0 0 0 
0 0 0 0 0 0 0 0 0 
0 0 0 0 0 0 0 0 0 
0 0 0 0 0 0 0 0 0 
0 0 0 0 0 0 0 0 0 
0 0 0 0 0 0 0 0 0 
0 0 0 0 0 0 0 0 0 
0 0 0 0 0 0 0 0 0 
0 0 0 0 0 0 0 0 0 
0 0 0 0 0 0 0 0 0 
0 0 0 0 0 0 0 0 0 
0 0 0 0 0 0 0 0 0 
0 0 0 0 0 0 0 0 0 
0 0 0 0 0 0 0 0 0 
0 0 0 0 0 0 0 0 0 
0 0 0 0 0 0 0 0 0 
0 0 0 0 0 0 0 0 0 
0 0 0 0 0 0 0 0 0 
0 0 0 0 0 0 0 0 0 
0 0 0 0 0 0 0 0 0 
0 0 0 0 0 0 0 0 0 
0 0 0 0 0 0 0 0 0 
0 0 0 0 0 0 0 0 0 
0 0 0 0 0 0 0 0 0 
0 0 0 0 0 0 0 0 0 
0 0 0 0 0 0 0 0 0 
0 0 0 0 0 0 0 0 0 
0 0 0 0 0 0 0 0 0 
0 0 0 0 0 0 0 0 0 
0 0 0 0 0 0 0 0 0 
0 0 0 0 0 0 0 0 0 
0 0 0 0 0 0 0 0 0 
0 0 0 0 0 0 0 0 0 
0 0 0 0 0 0 0 0 0 
0 0 0 0 0 0 0 0 0 
0 0 0 0 0 0 0 0 0 
0 0 0 0 0 0 0 0 0 
0 0 0 0 0 0 0 0 0 
0 0 0 0 0 0 0 0 0 
0 0 0 0 0 0 0 0 0 
0 0 0 0 0 0 0 0 0 
0 0 0 0 0 0 0 0 0 
0 0 0 0 0 0 0 0 0 
0 0 0 0 0 0 0 0 0 
0 0 0 0 0 0 0 0 0 
0 0 0 0 0 0 0 0 0 
0 0 0 0 0 0 0 0 0 
0 0 0 0 0 0 0 0 0 
0 0 0 0 0 0 0 0 0 
0 0 0 0 0 0 0 0 0 
0 0 0 0 0 0 0 0 0 
0 0 0 0 0 0 0 0 0 
0 0 0 0 0 0 0 0 0 
0 0 0 0 0 0 0 0 0 
0 0 0 0 0 0 0 0 0 
0 0 0 0 0 0 0 0 0 
0 0 0 0 0 0 0 0 0 
0 0 0 0 0 0 0 0 0 
0 0 0 0 0 0 0 0 0 
0 0 0 0 0 0 0 0 0 
0 0 0 0 0 0 0 0 0 
0 0 0 0 0 0 0 0 0 
0 0 0 0 0 0 0 0 0 
0 0 0 0 0 0 0 0 0 
0 0 0 0 0 0 0 0 0 
0 0 0 0 0 0 0 0 0 
0 0 0 0 0 0 0 0 0 
0 0 0 0 0 0 0 0 0 
0 0 0 0 0 0 0 0 0 
0 0 0 0 0 0 0 0 0 
0 0 0 0 0 0 0 0 0 
0 0 0 0 0 0 0 0 0 
0 0 0 0 0 0 0 0 0 
0 0 0 0 0 0 0 0 0 
0 0 0 0 0 0 0 0 0 
0 0 0 0 0 0 0 0 0 
0 0 0 0 0 0 0 0 0 
0 0 0 0 0 0 0 0 0 
0 0 0 0 0 0 
v 3 614 double
-1.40023 -0.251904 -1.78852 -1.34345 0.15557 -1.41549 -1.49282 0.013101 -1.43404 
-1.41114 0.00647445 -1.26384 -1.3674 -0.00979849 -1.03164 -1.29594 0.0210826 -0.997458 
-1.34676 -0.00926674 -0.985007 -1.35377 -0.0625207 -0.986837 -1.37111 0.0250101 -0.952974 
-1.28523 -0.041963 -0.879165 -1.40329 -0.151216 -0.882899 -1.29447 -0.0102819 -0.855179 
-1.23863 -0.175653 -1.01042 -1.30627 -0.0249384 -0.78926 -1.29435 0.223299 -0.801898 
-1.24968 -0.0603932 -0.689495 -1.29539 0.0619969 -0.741815 -1.30976 -0.0504093 -0.719225 
-1.31046 -0.0406686 -0.709179 -1.35161 -0.0860827 -0.738092 -1.14598 0.0397467 -0.590416 
-1.15852 -0.00366611 -0.482371 -1.25453 0.15366 -0.557519 -1.01786 0.0476382 -0.431343 
-1.25273 -0.0202437 -0.528539 -1.24054 0.158113 -0.628617 -1.25021 0.0562554 -0.488409 
-1.27127 0.106111 -0.513105 -1.27256 0.0465478 -0.540449 -1.15594 0.0668875 -0.482921 
-1.1588 0.0286764 -0.486703 -1.05489 0.35516 -1.14992 -1.22263 0.108391 -0.590623 
-1.08054 0.0346041 -0.456839 -1.1092 0.0910126 -0.497013 -1.15896 0.0779954 -0.491197 
-1.07144 0.039861 -0.449042 -1.24252 0.0837133 -0.508103 -1.10879 0.0605406 -0.470123 
-1.22305 -0.0979194 -0.521345 -1.11603 0.0651885 -0.466182 -1.16218 0.106966 -0.500582 
-1.06973 0.0138429 -0.451999 -1.09345 0.0201325 -0.461942 -1.08775 0.035055 -0.454675 
-0.981916 0.0166725 -0.377406 -1.12817 0.0718996 -0.477186 -0.961801 -0.00057849 -0.408384 
-0.977926 -0.0380047 -0.418545 -1.08066 0.0441189 -0.443823 -0.895449 -0.0126042 -0.356374 
-1.3352 0.069838 -0.5675 -1.077 0.0490768 -0.461315 -1.10524 0.062908 -0.473577 
-1.18016 -0.0599264 -0.489602 -1.09154 -0.384299 -0.700981 -1.02693 -0.0176906 -0.434137 
-1.01471 -0.0307991 -0.424229 -0.967358 -0.0888773 -0.402981 -0.899134 0.0154226 -0.381794 
-0.940747 -0.022253 -0.39534 -0.947673 -0.0305762 -0.405298 -0.84129 -0.0504306 -0.359801 
-0.947932 0.0325211 -0.395438 -0.958092 0.00167532 -0.40092 -0.978735 0.0663891 -0.375689 
-1.16482 -0.117361 -0.49821 -0.985065 -0.0649969 -0.359735 -0.955062 -0.00115247 -0.415664 
-0.888508 -0.00857095 -0.375079 -1.07452 0.142579 -0.507174 -0.864101 -0.094032 -0.36488 
-0.888823 0.033426 -0.370499 -0.912992 -0.00540596 -0.382177 -0.890791 -0.00964089 -0.36507 
-0.772164 -0.0963103 -0.307518 -0.878519 -0.0100992 -0.367081 -0.896963 -0.0728521 -0.376267 
-0.921814 0.0842902 -0.386826 -1.0932 -0.259595 -0.533749 -0.952618 0.124398 -0.421956 
-0.799593 -0.115279 -0.313663 -0.962094 -0.0525867 -0.383143 -0.816416 0.0357672 -0.352704 
-0.939907 -0.0654917 -0.357267 -0.787481 -0.120872 -0.327906 -0.779343 -0.0168491 -0.321362 
-0.921008 0.035909 -0.384955 -0.877612 0.0502298 -0.341327 -1.07319 0.0132455 -0.692605 
-0.797812 0.0454499 -0.330983 -0.905726 0.0241918 -0.376063 -0.811316 -0.0115236 -0.347745 
-1.07879 -0.178402 -0.469597 -0.958741 -0.0301546 -0.410959 -1.0473 0.0763559 -0.417301 
-0.984045 -0.149289 -0.437363 -0.960535 0.0788855 -0.399525 -1.01134 -0.0192854 -0.416314 
-0.917938 0.0276744 -0.382344 -0.720952 0.0472022 -0.308386 -0.947416 -0.00327058 -0.409177 
-0.943419 0.0813644 -0.400967 -0.92616 0.0212761 -0.378029 -1.00251 0.0451962 -0.409146 
-0.899888 -0.0656423 -0.35247 -0.866171 -0.00897535 -0.347538 -0.920656 -0.0479153 -0.365123 
-1.09234 -0.350679 -0.505049 -0.908359 0.102628 -0.386572 -0.888444 0.117378 -0.36914 
-0.690899 0.00865548 -0.289332 -0.902358 -0.173012 -0.420856 -0.656201 0.0885324 -0.278733 
-0.783759 0.0407346 -0.271087 -0.839684 -0.0505715 -0.349978 -0.809885 0.034114 -0.343296 
-1.02269 0.25837 -0.498558 -0.712672 -0.169259 -0.250285 -0.973252 -0.0801274 -0.408507 
-0.844069 -0.0256974 -0.332866 -0.827072 0.049624 -0.34723 -0.901712 0.0406825 -0.387295 
-0.816002 -0.00353529 -0.349872 -0.806889 -0.0105336 -0.346199 -0.719607 -0.0858504 -0.311835 
-0.714858 0.0175067 -0.281686 -0.84353 -0.103584 -0.378168 -0.87392 -0.0999415 -0.392657 
-1.17308 -0.245862 -0.548514 -0.914276 -0.0283882 -0.353376 -0.824446 0.0448216 -0.354971 
-0.927145 0.00502304 -0.393428 -0.932147 0.0639597 -0.392357 -0.852169 0.00154036 -0.280404 
-0.927844 0.0667713 -0.398958 -0.876112 -0.0040769 -0.367147 -0.736214 -0.00583641 -0.308064 
-0.776963 -0.00235837 -0.325205 -0.56177 0.00550289 -0.238308 -0.846645 -0.152341 -0.294909 
-0.806704 -0.00690664 -0.384791 -0.815821 -0.0583341 -0.30887 -0.863394 -0.0459163 -0.202276 
-0.747261 -0.0302303 -0.546882 -0.84908 -0.0348708 -0.495248 -0.730134 0.0309019 -0.299869 
-0.738137 -0.0649125 -0.349463 -0.752005 -0.0213566 -0.312371 -0.878744 -0.120572 -0.394575 
-0.835444 0.0880038 -0.364601 -0.693676 -0.0131256 -0.291866 -0.920758 0.0737203 -0.380051 
-1.03138 -0.0858034 -0.433364 -0.808906 0.0393287 -0.33431 -0.852865 -0.101089 -0.364189 
-0.926364 -0.0217796 -0.379743 -0.849441 -0.044332 -0.361544 -0.907913 -0.136229 -0.423413 
-0.789231 0.0896492 -0.331536 -0.909254 0.0407534 -0.392645 -1.11254 -0.112412 -0.521972 
-0.831606 -0.0185323 -0.343508 -0.909221 -0.14196 -0.399514 -0.86177 -0.0105475 -0.354312 
-0.783685 0.00837987 -0.324864 -0.751822 -0.0174868 -0.313486 -0.937998 -0.00154444 -0.398262 
-0.865203 0.0611006 -0.364778 -0.818891 -0.00325367 -0.349732 -0.815113 0.0154623 -0.350543 
-0.806183 -0.00326808 -0.344693 -0.765647 -0.0687951 -0.224783 -0.711565 0.0734189 -0.291914 
-0.733674 0.0984142 -0.301229 -0.748725 0.00413068 -0.317933 -0.754199 0.0185984 -0.303041 
-0.778782 -0.0867059 -0.341945 -0.85406 -0.0738021 -0.337196 -0.807511 -0.0645512 -0.324344 
-0.733483 -0.0383894 -0.307423 -0.70801 -0.0596676 -0.285426 -0.702305 0.00458378 -0.137099 
-0.851122 0.144513 -0.352723 -0.788456 -0.124567 -0.256276 -0.579979 0.0323579 -0.250513 
-0.74013 -0.0236212 -0.305124 -0.742652 0.0221019 -0.30626 -0.675786 -0.0121341 -0.290743 
-0.740823 -0.0881943 -0.317504 -0.827052 0.0105462 -0.339097 -0.936626 0.0899873 -0.548923 
-0.630795 0.0248605 -0.270797 -0.687232 0.0223608 -0.281545 -0.783412 -0.0651535 -0.324434 
-0.730045 -0.012462 -0.299993 -0.754648 -0.0116246 -0.311217 -0.74742 0.0083909 -0.323754 
-0.891535 -0.0969032 -0.393817 -0.757797 -0.0655001 -0.339513 -1.08317 -0.0984274 -0.469917 
-0.788562 0.213637 -0.381945 -0.827727 -0.0366375 -0.347376 -0.91411 0.136395 -0.697509 
-0.650764 -0.149684 -0.267397 -0.534224 -0.0531899 -0.220723 -0.630996 0.00622976 -0.270363 
-0.674003 -0.0138494 -0.286993 -0.66892 -0.0166688 -0.276287 -0.738491 -0.0188517 -0.385175 
-0.749491 -0.0163816 -0.324429 -0.787689 -0.00240745 -0.320931 -0.838472 0.0266657 -0.370545 
-0.793708 -0.00138886 -0.3221 -0.736461 -0.153625 -0.25485 -0.719766 -0.1053 -0.262683 
-0.613738 -0.00897278 -0.255227 -0.821459 0.0361852 -0.303807 -0.885768 -0.185287 -0.357007 
-0.588851 -0.150628 -0.237471 -0.620185 0.0839563 -0.179326 -0.726979 0.065494 -0.309592 
-0.661433 0.0598376 -0.231763 -0.646017 0.0629701 -0.277065 -0.929715 0.304501 -0.319328 
-0.770269 0.0212852 -0.314497 -0.863595 0.168441 -0.321021 -0.895775 0.237475 -0.257886 
-0.669145 0.256388 -0.398889 -0.913668 -0.217477 -0.268328 -0.682896 0.0916065 -0.309351 
-1.18906 -0.239109 -0.485577 -0.700128 0.0278355 -0.294321 -0.467541 -0.0326368 -0.195677 
-0.984903 -0.153922 -0.609151 -0.549177 0.0553259 -0.163937 -0.493871 -0.0337586 -0.206447 
-0.688045 0.0817712 -0.285071 -0.878227 0.0857924 -0.36269 -0.400665 -0.00757766 -0.122029 
-0.55199 -0.264931 -0.222597 -0.964591 0.0661011 -0.410654 -0.70135 0.0298343 -0.257931 
-0.366881 0.103992 -0.181795 -0.609117 0.073951 -0.288036 -0.607302 0.0313541 -0.259721 
-0.59056 0.0871159 -0.170405 -0.668589 -0.0410217 -0.278015 -0.660839 -0.238081 -0.948363 
-0.982111 0.254885 -0.784824 -0.604643 0.0208275 -0.29723 -0.859297 0.251367 -0.422691 
-0.788477 0.174548 -0.438915 -0.527111 -0.0506735 -0.163219 -0.568381 0.0280459 -0.240276 
-0.544428 -0.0402361 -0.230798 -0.520197 -0.0867949 -0.227485 -0.712495 0.116793 -0.291472 
-0.721148 -0.05556 -0.319655 -1.53925 0.230518 -0.618844 -0.709231 -0.212273 -0.261593 
-0.629442 -0.0533451 -0.297352 -0.495795 0.0565685 -0.192808 -0.857223 0.113372 -0.288841 
-0.530045 0.0733597 -0.161398 -0.401843 -0.170807 -0.130325 -0.621102 0.0346821 -0.266917 
-0.943353 -0.00639911 -0.389424 -0.48382 -0.0598535 -0.196586 -0.672301 0.00257105 -0.284357 
-0.586376 -0.0307699 -0.265524 -0.659284 0.0218279 -0.280668 -0.855968 0.344106 -0.190176 
-0.90371 0.0862814 -0.208029 -0.551261 0.0787837 -0.276858 -0.534728 -0.0638409 -0.228798 
-0.528574 0.0254217 -0.217943 -0.696051 0.0244314 -0.262713 -0.683209 -0.0846284 -0.300289 
-0.698504 -0.21688 -0.186468 -0.304417 -0.194108 -0.0844322 -0.572687 0.0186546 -0.244453 
-0.437654 -0.0109481 -0.180529 -0.709589 0.110996 -0.203977 -0.595467 -0.0289403 -0.251036 
-0.519616 -0.0633456 -0.239818 -0.867844 -0.272518 -0.216534 -0.894271 -0.235485 -0.459805 
-0.496288 0.0578862 -0.203852 -0.417608 0.0117899 -0.175016 -1.07962 0.301509 -0.750885 
-0.5154 0.0296001 -0.205962 -0.484969 -0.0102008 -0.203587 -0.685737 0.141388 -0.207378 
-0.547163 0.149985 -0.203388 -0.593021 0.381272 -0.261053 -0.435537 -0.203203 -0.140007 
-0.80953 0.0612401 -0.33047 -0.51543 0.0151879 -0.216234 -0.643033 0.00337291 -0.478315 
-0.732181 -0.110349 -0.698355 -0.663812 0.0833139 -0.2382 -0.605257 0.00412157 -0.206176 
-0.952936 0.0943762 -0.0839235 -0.603453 0.202871 -0.295819 -0.888393 0.102019 -0.594682 
-0.758225 0.273456 -0.294036 -0.671956 0.113024 -0.260713 -0.705894 0.227339 -0.238611 
-0.798652 -0.0150091 -0.319403 -0.802367 -0.351295 -0.184261 -0.664503 -0.278435 -0.154557 
-0.840748 -0.0464706 -0.271774 -0.662542 0.02039 -0.171918 -0.553962 0.0461972 -0.237156 
-0.557865 -0.0267386 -0.233129 -0.53514 0.0493208 -0.227154 -0.555516 0.032063 -0.237403 
-0.86532 0.12856 -0.727029 -0.842882 0.237569 -0.358215 -0.56583 0.412482 -0.673188 
-0.552931 0.023239 -0.232571 -0.621947 0.0672541 -0.247839 -0.529673 0.0256965 -0.211781 
-0.742277 -0.0572833 -0.245042 -0.51447 -0.214553 -0.171654 -0.829249 -0.00261214 -0.292804 
-0.71541 0.262642 -0.782252 -0.618416 0.063808 -0.263439 -0.749141 -0.0168511 -0.687871 
-0.574319 -0.0886371 -0.639223 -0.611073 0.144399 -0.794475 -0.443713 -0.0425058 -0.189372 
-0.539149 -0.0548687 -0.233815 -0.409781 -0.0719506 -0.184896 -0.494357 0.0308733 -0.268327 
-0.49243 0.0375027 -0.188565 -0.720548 -0.368894 -0.190576 -0.686617 -0.0308862 -0.325307 
-0.39052 -0.0228184 -0.253641 -0.502566 0.0851892 -0.210517 -0.676129 -0.0817452 -0.282587 
-0.715943 0.0681262 -0.298842 -0.396947 -0.137369 -0.170305 -0.382405 -0.123662 -0.183913 
-0.696059 -0.326682 -0.643832 -0.969285 0.159334 -0.340862 -0.398556 0.000760025 -0.134615 
-0.500393 -0.12495 -0.118455 -0.46195 0.000532048 -0.194018 -0.408544 -0.0107021 -0.170927 
-0.638079 0.0829069 -0.465641 -0.31667 -0.104107 -0.122899 -0.663678 0.179942 -0.125962 
-0.506704 0.0297629 -0.200862 -0.680606 -0.360696 -0.368364 -0.413324 -0.0576793 -0.183271 
-0.164741 -0.0961106 -0.0822952 -0.327165 0.0208228 -0.126937 -0.623565 -0.00566933 -0.588812 
-0.4612 0.0311174 -0.188923 -0.578304 -0.0810143 -0.379147 -0.775644 -0.0854768 -0.290813 
-0.429133 -0.068616 -0.187506 -0.791574 0.194241 -0.258451 -0.945272 -0.516599 -0.209643 
-1.05489 0.174188 -0.377069 -0.415792 0.0230302 -0.212949 -0.441995 0.0212143 -0.243459 
-0.646793 0.0219488 -0.606826 -0.295282 0.028626 -0.134901 -0.827364 -0.131056 -0.495039 
-0.714328 -0.146745 -0.582808 -0.49361 -0.170753 -0.522732 -0.633982 -0.320461 -0.337419 
-0.374642 -0.0316974 -0.163566 -1.15783 -0.272408 -0.164019 -0.550346 0.00181938 -0.232858 
-0.556295 0.0748484 -0.524856 -0.566829 0.254776 -0.234325 -0.720017 0.322425 -0.181245 
-0.677027 0.236831 -0.285879 -0.754938 0.181228 -0.209371 -0.496017 0.054727 -0.248083 
-0.331625 0.0627131 -0.166319 -0.541735 0.0291582 -0.147154 -0.517834 -0.253129 -0.607677 
-0.255504 -0.102352 -0.105377 -0.274877 -0.205727 -0.311702 -0.348679 0.107772 -0.146401 
-0.265455 0.112588 -0.103527 -0.399521 0.096283 -0.100355 -0.92378 0.00997092 -0.157519 
-0.727654 0.664827 -0.0684635 -0.59717 0.254446 -0.43694 -0.726472 0.299116 0.188234 
-0.353664 0.108574 -0.125524 -0.534523 -0.178109 0.229684 -0.893893 0.0922736 -0.304737 
-1.01029 0.25488 -0.209759 -0.686999 -0.104695 -0.0210675 -0.419132 0.204352 -0.17294 
-0.400606 0.281349 -0.121098 -0.339298 0.110853 -0.201395 -0.503111 0.0386175 0.190431 
-0.120985 -0.323627 -0.198187 -0.429049 -0.0863863 0.166261 -0.227106 -0.00600129 0.0545839 