# vtk DataFile Version 4.0
Generated by LIGGGHTS
ASCII
DATASET POLYDATA
POINTS 822 float
-0.0289784 0.0170284 0.0517382 -0.0101098 0.0341425 0.0574391 -0.00352865 0.00836077 0.0522761 
-0.0103739 -0.0149701 0.0581669 -0.0256578 -0.00928901 0.0519912 -0.490471 -0.0168706 -0.396597 
-0.472769 -0.0146088 -0.392279 -0.466732 0.0134487 -0.390277 -0.472201 -0.0126086 -0.386027 
-0.456335 -0.00780305 -0.38918 -0.483597 0.00106281 -0.387639 -0.461543 0.000247794 -0.386249 
-0.476286 0.00571392 -0.382801 -0.0122217 0.019995 0.054877 -0.467267 -0.0150004 -0.379853 
-0.476306 -0.0111485 -0.381858 -0.456006 -0.0150509 -0.371611 -0.455612 0.00957596 -0.362378 
-0.442702 0.0139969 -0.362957 -0.472196 0.0420852 -0.361978 -0.440374 0.00218504 -0.360485 
-0.451559 0.00374027 -0.358971 -0.433764 0.00991168 -0.357841 -0.425833 0.0112868 -0.352142 
-0.443523 0.0105057 -0.352807 -0.444788 -0.0204856 -0.349263 -0.443776 -0.0086715 -0.348058 
-0.445615 0.00646763 -0.348244 -0.438696 0.00426649 -0.348929 -0.438835 0.00740767 -0.344232 
-0.430447 0.00779884 -0.343462 -0.433232 -0.0129373 -0.342272 -0.43629 0.000116087 -0.342356 
-0.429392 0.00415295 -0.34066 -0.418309 0.0044337 -0.340304 -0.424167 0.0129514 -0.342738 
-0.428741 -0.00981364 -0.337806 -0.428234 0.00710405 -0.33708 -0.433181 -0.00935351 -0.334989 
-0.436651 0.00431861 -0.335368 -0.42366 0.00484045 -0.333812 -0.438207 -0.0400509 -0.330059 
-0.432276 -0.0198141 -0.331613 -0.434383 -0.00591631 -0.329807 -0.428438 -0.00886178 -0.326733 
-0.424527 -0.00431637 -0.326341 -0.421665 0.00710575 -0.327796 -0.430003 0.0118898 -0.325932 
-0.410013 -0.014519 -0.323642 -0.424594 -0.00365467 -0.321414 -0.411927 0.00223742 -0.323042 
-0.432025 0.00647012 -0.324454 -0.427232 0.00403617 -0.321786 -0.415457 0.0132181 -0.324505 
-0.440822 -0.0198967 -0.317786 -0.409361 -0.00687657 -0.318192 -0.427836 -0.00243154 -0.320778 
-0.423413 0.00521767 -0.320672 -0.413135 0.0225238 -0.319848 -0.411915 -0.0151411 -0.315659 
-0.404706 -0.000914688 -0.31404 -0.399074 -0.00185321 -0.316875 -0.423689 -0.00889486 -0.313288 
-0.415246 -0.00835677 -0.310588 -0.413606 -0.00154975 -0.31104 -0.408206 0.0103301 -0.313159 
-0.40567 0.0170074 -0.313622 -0.422423 0.0300869 -0.311995 -0.419072 -0.0279218 -0.309111 
-0.410029 -0.00368765 -0.306848 -0.404376 0.000708932 -0.309568 -0.401482 -0.0172958 -0.303924 
-0.410095 0.000203131 -0.305316 -0.401278 0.003257 -0.305741 -0.397259 0.00206455 -0.302593 
-0.393122 -0.00778833 -0.298969 -0.390489 0.00288127 -0.297982 -0.398674 0.00654201 -0.297891 
-0.414882 0.0278491 -0.299549 -0.398112 -0.014224 -0.292472 -0.391592 -0.0141746 -0.294041 
-0.387046 0.00126155 -0.294975 -0.394693 0.0102594 -0.293628 -0.398208 0.022836 -0.293273 
-0.391263 -0.00300937 -0.290604 -0.392174 0.0073529 -0.290179 -0.398691 -0.00620687 -0.28834 
-0.375393 -0.00405901 -0.285603 -0.390681 0.0139683 -0.287698 -0.382593 0.0110696 -0.285287 
-0.39514 0.02065 -0.287276 -0.383337 -0.0122718 -0.284724 -0.381986 -0.00157307 -0.283571 
-0.38043 0.00339027 -0.282263 -0.366567 0.00469932 -0.284622 -0.385497 -0.0154307 -0.280244 
-0.379937 -0.0011755 -0.279445 -0.375427 0.000748372 -0.278646 -0.39959 0.0246495 -0.278873 
-0.376924 0.00640034 -0.27682 -0.367549 0.0118501 -0.274981 -0.374922 0.0148263 -0.274693 
-0.383355 -0.0261389 -0.272882 -0.365801 -0.0066636 -0.272729 -0.370813 0.00247502 -0.273674 
-0.367288 0.00413429 -0.271435 -0.371817 0.00768112 -0.273476 -0.373546 -0.018483 -0.269788 
-0.366641 -0.015232 -0.26763 -0.367618 -0.0103019 -0.267716 -0.363465 -0.0034169 -0.268592 
-0.359098 -0.00302172 -0.270102 -0.367551 0.00885195 -0.267564 -0.364051 0.0119434 -0.266852 
-0.36897 0.0143748 -0.269612 -0.369826 0.0191294 -0.268467 -0.374002 0.0296921 -0.267155 
-0.364406 0.000276641 -0.266073 -0.356987 0.0107275 -0.263537 -0.361399 0.0126259 -0.264723 
-0.363353 0.0159967 -0.265495 -0.366182 -0.0236138 -0.261514 -0.35498 -0.0141812 -0.259412 
-0.361279 -0.00131768 -0.261465 -0.356734 0.00445003 -0.260739 -0.356637 0.00933631 -0.259729 
-0.356993 -0.0256994 -0.257804 -0.354585 -0.0173689 -0.256743 -0.350362 -0.00947911 -0.25634 
-0.350401 -0.00304862 -0.257062 -0.347307 -0.0127494 -0.252676 -0.346089 -0.028121 -0.248583 
-0.351808 -0.0271454 -0.249759 -0.345726 -0.0227253 -0.250779 -0.338533 -0.00438594 -0.249373 
-0.344668 -0.00238424 -0.251738 -0.335864 0.00501022 -0.24816 -0.340912 0.00966465 -0.25009 
-0.332209 -0.0104338 -0.245957 -0.329416 -0.00331925 -0.244977 -0.334853 4.59128e-05 -0.247821 
-0.335379 0.0213738 -0.244734 -0.327277 -0.000449803 -0.244099 -0.331944 0.00489021 -0.243478 
-0.323445 0.0115618 -0.240694 -0.327096 0.0157103 -0.241676 -0.33131 0.01866 -0.243104 
-0.327095 0.0203493 -0.241456 -0.33284 0.024933 -0.243888 -0.341152 0.0322389 -0.245047 
-0.322507 -0.0256352 -0.238761 -0.325514 -0.0236598 -0.24046 -0.316502 -0.014672 -0.237915 
-0.31455 -0.0103546 -0.238156 -0.317991 -0.00298403 -0.24012 -0.320434 0.0027965 -0.240873 
-0.310499 0.00486102 -0.236768 -0.314924 0.00870609 -0.238388 -0.312253 0.00750205 -0.23734 
-0.319255 0.0138084 -0.239789 -0.322 0.0189263 -0.238838 -0.325519 0.024431 -0.240351 
-0.342433 -0.0478226 -0.23765 -0.320575 -0.0355999 -0.234602 -0.317639 -0.0190397 -0.23679 
-0.310465 -0.00780746 -0.236762 -0.314521 -0.00528938 -0.234945 -0.304323 -0.00382476 -0.234327 
-0.323933 0.00296251 -0.233879 -0.311417 0.000205694 -0.236362 -0.306697 0.000893327 -0.23433 
-0.344167 0.00444389 -0.236553 -0.306703 0.00566098 -0.235075 -0.304236 0.00441724 -0.233761 
-0.309333 0.00885385 -0.23494 -0.312838 0.0106238 -0.236977 -0.306469 0.0122973 -0.234599 
-0.302326 -0.0160741 -0.232385 -0.30207 -0.010473 -0.232939 -0.296607 -0.00821847 -0.230888 
-0.299826 -0.00463376 -0.231317 -0.301245 0.00988088 -0.232548 -0.29756 0.00909551 -0.231043 
-0.300742 0.0174405 -0.23135 -0.315192 0.0363817 -0.231061 -0.315243 -0.0414764 -0.229952 
-0.291191 -0.0105157 -0.22836 -0.289095 -0.00481184 -0.226784 -0.287437 0.00153959 -0.227255 
-0.294013 0.00982525 -0.2295 -0.29186 0.00747191 -0.228742 -0.291735 0.0120149 -0.228357 
-0.292638 0.0157313 -0.22709 -0.304645 0.0304158 -0.228828 -0.347082 -0.0622601 -0.226769 
-0.318622 -0.0495933 -0.22696 -0.283222 -0.00923477 -0.225147 -0.28086 -0.00463953 -0.2244 
-0.282128 -0.00223188 -0.223137 -0.284467 0.0030191 -0.225908 -0.281397 0.000194142 -0.224789 
-0.281625 0.00361619 -0.224673 -0.281592 0.00741794 -0.223313 -0.288599 0.0113279 -0.225906 
-0.281975 0.0124218 -0.223149 -0.284199 0.0153363 -0.224821 -0.285651 0.0189304 -0.223721 
-0.289956 0.0239496 -0.225653 -0.288398 0.0213725 -0.225494 -0.274604 -0.0176795 -0.219445 
-0.281085 -0.0165561 -0.222356 -0.274839 -0.0108298 -0.221451 -0.287853 0.0261633 -0.221947 
-0.312656 0.0540922 -0.221686 -0.26719 -0.0177937 -0.217446 -0.269631 -0.0106378 -0.219294 
-0.267675 -0.0136207 -0.217035 -0.262459 -0.0101512 -0.21634 -0.262523 -0.00146522 -0.21679 
-0.270506 0.00531589 -0.218836 -0.269873 0.0101209 -0.217617 -0.265363 0.00808803 -0.217614 
-0.268486 0.0137789 -0.218454 -0.26478 0.0115297 -0.217202 -0.266561 0.0158115 -0.217322 
-0.264422 0.0142263 -0.215943 -0.264302 -0.0193904 -0.214835 -0.269963 -0.017412 -0.214556 
-0.257204 -0.0147188 -0.213588 -0.273002 -0.0128103 -0.216806 -0.254172 -0.00727329 -0.213025 
-0.263562 -0.00474179 -0.214185 -0.256932 -0.00427839 -0.214322 -0.255449 -0.000874491 -0.212754 
-0.251442 -0.00163649 -0.212134 -0.258819 -0.00021087 -0.21524 -0.262482 0.00406293 -0.215512 
-0.255738 0.00501335 -0.212618 -0.258591 0.00745629 -0.214784 -0.257274 0.0100692 -0.21407 
-0.261577 0.0115753 -0.214772 -0.253903 0.0123453 -0.212521 -0.260678 0.0168925 -0.213594 
-0.264041 0.0176649 -0.215773 -0.256089 0.0212632 -0.212086 -0.299699 0.0551587 -0.216121 
-0.264608 -0.0394639 -0.210635 -0.26509 -0.0343992 -0.211442 -0.260739 -0.0306624 -0.210728 
-0.257029 -0.0278308 -0.211006 -0.250234 -0.0201872 -0.209768 -0.254552 -0.0123803 -0.211656 
-0.248402 -0.0117505 -0.210215 -0.247007 -0.00595191 -0.21006 -0.248476 -0.000399664 -0.209767 
-0.252185 0.00119688 -0.211481 -0.249519 0.00327657 -0.211143 -0.246633 0.00324709 -0.209703 
-0.253 0.00871922 -0.210679 -0.246724 0.00885606 -0.209745 -0.24859 0.0113803 -0.210421 
-0.245573 0.0116402 -0.209107 -0.254774 0.0166487 -0.211121 -0.267004 -0.0456345 -0.209079 
-0.238829 -0.014334 -0.205959 -0.24327 -0.0122488 -0.20804 -0.251305 -0.00963623 -0.208544 
-0.242331 -0.0052432 -0.207043 -0.243954 0.00488234 -0.207246 -0.241785 0.00820794 -0.207699 
-0.239502 0.0108849 -0.205551 -0.248139 0.015661 -0.208509 -0.239619 0.015844 -0.206006 
-0.234791 -0.0190569 -0.203586 -0.232667 -0.0159691 -0.202072 -0.235846 -0.0134283 -0.204695 
-0.229358 -0.0132933 -0.201988 -0.264775 -0.00744759 -0.201712 -0.239812 -0.00872344 -0.203083 
-0.230681 -0.00870399 -0.202909 -0.23462 -0.00639098 -0.204723 -0.231643 -0.00576545 -0.203536 
-0.23338 -0.0020807 -0.203408 -0.231621 0.00163854 -0.203511 -0.23476 0.0041056 -0.204891 
-0.235212 0.0084007 -0.204939 -0.233035 0.011265 -0.202747 -0.239571 0.0272575 -0.203989 
-0.231825 -0.0302652 -0.198991 -0.223243 -0.01485 -0.199227 -0.227418 -0.0102666 -0.200241 
-0.218828 0.00118251 -0.198242 -0.236737 0.00506737 -0.19884 -0.22112 0.00543884 -0.199111 
-0.228675 0.0130392 -0.20066 -0.224889 0.0114659 -0.200366 -0.218412 -0.0227605 -0.194985 
-0.22071 -0.0204498 -0.197526 -0.220684 -0.016226 -0.19801 -0.214811 0.00185508 -0.196523 
-0.213692 0.00478758 -0.19601 -0.218367 0.00695388 -0.197935 -0.211882 0.0082026 -0.195211 
-0.221592 0.0251938 -0.195865 -0.210014 -0.00865395 -0.19428 -0.203897 -0.00520301 -0.191913 
-0.206934 0.00278949 -0.192107 -0.203727 0.00661764 -0.191823 -0.207224 0.00688788 -0.193281 
-0.202978 0.00949672 -0.191174 -0.216678 0.034685 -0.191274 -0.212292 0.0326882 -0.19138 
-0.209758 -0.0345742 -0.189815 -0.206789 -0.0321083 -0.188029 -0.209959 -0.0311918 -0.190703 
-0.204608 -0.0181223 -0.189925 -0.200639 -0.0152034 -0.189675 -0.197037 -0.0137227 -0.188315 
[...]
POINT_DATA 822
FIELD FieldData 7
id 1 822 int
926 923 929 925 922 81 174 137 122 
110 141 196 140 934 193 26 121 219 
163 324 186 68 177 82 114 178 150 
151 148 104 118 179 79 188 202 138 
171 129 132 189 180 294 265 123 183 
198 107 119 187 225 49 158 70 106 
210 154 134 159 213 142 127 204 157 
195 72 160 83 251 305 136 144 166 
116 156 278 105 115 169 234 229 277 
184 170 199 244 221 307 241 228 99 
200 201 109 208 215 185 205 250 289 
64 252 212 223 135 270 124 143 272 
146 181 167 211 182 254 317 191 290 
161 209 175 96 165 152 284 280 296 
418 297 172 149 233 288 438 293 236 
295 224 155 197 329 298 256 222 399 
206 128 321 368 253 306 276 337 299 
316 255 261 275 242 287 264 348 217 
377 332 308 9 220 263 446 322 245 
259 249 447 363 230 226 422 353 267 
218 273 354 395 386 327 281 260 214 
262 314 192 310 282 429 366 304 303 
381 339 292 266 194 232 347 90 320 
343 390 423 283 405 269 367 274 227 
243 330 235 333 388 331 300 248 311 
240 271 372 203 492 433 382 238 285 
318 315 349 362 409 286 246 340 231 
407 279 470 344 335 439 371 430 258 
216 237 387 427 370 351 323 291 378 
302 257 239 456 313 247 411 336 401 
309 384 268 341 374 389 455 450 414 
350 358 396 476 338 421 441 424 444 
490 355 462 403 397 365 398 326 440 
417 466 416 328 408 473 425 428 453 
400 404 356 448 475 406 522 488 471 
346 301 483 325 479 454 420 459 497 
394 474 361 373 434 511 375 360 468 
334 484 319 345 489 385 478 359 437 
519 504 451 392 445 380 469 496 452 
415 493 531 442 376 494 509 410 530 
508 463 458 499 393 431 312 357 500 
481 391 554 559 364 486 538 552 487 
413 485 383 342 419 412 435 558 503 
521 477 546 624 482 491 548 379 460 
498 547 369 507 600 555 536 542 505 
541 501 516 573 523 524 465 495 464 
556 449 512 537 562 402 640 529 502 
608 588 545 532 517 515 582 598 527 
467 571 534 564 581 510 526 579 597 
561 550 590 525 563 535 520 595 528 
612 514 572 426 461 551 570 544 577 
601 605 566 589 443 585 557 533 631 
457 543 539 599 586 615 614 610 626 
574 506 549 602 540 578 623 616 621 
576 659 662 652 436 611 594 638 650 
617 634 620 636 569 593 672 619 676 
603 480 584 607 668 664 653 637 592 
606 604 518 678 633 683 568 565 649 
629 658 630 632 628 685 583 691 677 
669 553 639 580 663 647 656 661 596 
575 648 675 651 681 567 715 635 618 
646 627 591 560 666 657 613 665 654 
689 625 587 643 708 694 705 655 717 
670 645 710 734 673 686 740 674 622 
695 513 716 642 688 684 644 641 687 
704 699 721 752 692 742 660 667 718 
739 609 696 725 680 701 730 706 755 
766 690 720 726 432 727 748 778 760 
747 711 733 702 779 693 671 698 736 
722 743 738 707 729 697 768 770 751 
793 775 757 709 788 731 765 700 763 
750 774 703 754 746 723 682 737 771 
744 735 780 749 712 758 769 759 786 
777 784 776 790 719 767 472 745 772 
756 679 753 787 728 762 783 781 724 
791 761 714 741 713 773 764 792 732 
789 794 782 785 805 800 804 795 797 
799 796 803 801 806 802 798 816 807 
817 808 815 818 814 810 812 819 811 
809 813 826 820 829 830 824 823 831 
825 828 842 837 827 822 821 836 844 
841 833 839 843 840 832 838 834 850 
835 845 851 848 855 847 852 846 857 
854 856 849 853 858 869 861 859 865 
868 862 866 867 864 860 863 879 875 
878 882 873 870 880 881 871 874 877 
872 887 876 888 895 894 885 890 891 
892 883 905 884 893 886 889 906 900 
907 901 896 903 908 902 904 917 897 
899 913 898 921 916 914 920 911 918 
919 915 909 912 928 910 924 933 932 
927 930 931 
type 1 822 int
1 1 1 1 1 1 1 1 1 
1 1 1 1 1 1 1 1 1 
1 1 1 1 1 1 1 1 1 
1 1 1 1 1 1 1 1 1 
1 1 1 1 1 1 1 1 1 
1 1 1 1 1 1 1 1 1 
1 1 1 1 1 1 1 1 1 
1 1 1 1 1 1 1 1 1 
1 1 1 1 1 1 1 1 1 
1 1 1 1 1 1 1 1 1 
1 1 1 1 1 1 1 1 1 
1 1 1 1 1 1 1 1 1 
1 1 1 1 1 1 1 1 1 
1 1 1 1 1 1 1 1 1 
1 1 1 1 1 1 1 1 1 
1 1 1 1 1 1 1 1 1 
1 1 1 1 1 1 1 1 1 
1 1 1 1 1 1 1 1 1 
1 1 1 1 1 1 1 1 1 
1 1 1 1 1 1 1 1 1 
1 1 1 1 1 1 1 1 1 
1 1 1 1 1 1 1 1 1 
1 1 1 1 1 1 1 1 1 
1 1 1 1 1 1 1 1 1 
1 1 1 1 1 1 1 1 1 
1 1 1 1 1 1 1 1 1 
1 1 1 1 1 1 1 1 1 
1 1 1 1 1 1 1 1 1 
1 1 1 1 1 1 1 1 1 
1 1 1 1 1 1 1 1 1 
1 1 1 1 1 1 1 1 1 
1 1 1 1 1 1 1 1 1 
1 1 1 1 1 1 1 1 1 
1 1 1 1 1 1 1 1 1 
1 1 1 1 1 1 1 1 1 
1 1 1 1 1 1 1 1 1 
1 1 1 1 1 1 1 1 1 
1 1 1 1 1 1 1 1 1 
1 1 1 1 1 1 1 1 1 
1 1 1 1 1 1 1 1 1 
1 1 1 1 1 1 1 1 1 
1 1 1 1 1 1 1 1 1 
1 1 1 1 1 1 1 1 1 
1 1 1 1 1 1 1 1 1 
1 1 1 1 1 1 1 1 1 
1 1 1 1 1 1 1 1 1 
1 1 1 1 1 1 1 1 1 
1 1 1 1 1 1 1 1 1 
1 1 1 1 1 1 1 1 1 
1 1 1 1 1 1 1 1 1 
1 1 1 1 1 1 1 1 1 
1 1 1 1 1 1 1 1 1 
1 1 1 1 1 1 1 1 1 
1 1 1 1 1 1 1 1 1 
1 1 1 1 1 1 1 1 1 
1 1 1 1 1 1 1 1 1 
1 1 1 1 1 1 1 1 1 
1 1 1 1 1 1 1 1 1 
1 1 1 1 1 1 1 1 1 
1 1 1 1 1 1 1 1 1 
1 1 1 1 1 1 1 1 1 
1 1 1 1 1 1 1 1 1 
1 1 1 1 1 1 1 1 1 
1 1 1 1 1 1 1 1 1 
1 1 1 1 1 1 1 1 1 
1 1 1 1 1 1 1 1 1 
1 1 1 1 1 1 1 1 1 
1 1 1 1 1 1 1 1 1 
1 1 1 1 1 1 1 1 1 
1 1 1 1 1 1 1 1 1 
1 1 1 1 1 1 1 1 1 
1 1 1 1 1 1 1 1 1 
1 1 1 1 1 1 1 1 1 
1 1 1 1 1 1 1 1 1 
1 1 1 1 1 1 1 1 1 
1 1 1 1 1 1 1 1 1 
1 1 1 1 1 1 1 1 1 
1 1 1 1 1 1 1 1 1 
1 1 1 1 1 1 1 1 1 
1 1 1 1 1 1 1 1 1 
1 1 1 1 1 1 1 1 1 
1 1 1 1 1 1 1 1 1 
1 1 1 1 1 1 1 1 1 
1 1 1 1 1 1 1 1 1 
1 1 1 1 1 1 1 1 1 
1 1 1 1 1 1 1 1 1 
1 1 1 1 1 1 1 1 1 
1 1 1 1 1 1 1 1 1 
1 1 1 1 1 1 1 1 1 
1 1 1 1 1 1 1 1 1 
1 1 1 1 1 1 1 1 1 
1 1 1 
i 3 822 int
0 0 0 0 0 0 0 0 0 
0 0 0 0 0 0 0 0 0 
0 0 0 0 0 0 0 0 0 
0 0 0 0 0 0 0 0 0 
0 0 0 0 0 0 0 0 0 
0 0 0 0 0 0 0 0 0 
0 0 0 0 0 0 0 0 0 
0 0 0 0 0 0 0 0 0 
0 0 0 0 0 0 0 0 0 
0 0 0 0 0 0 0 0 0 
0 0 0 0 0 0 0 0 0 
0 0 0 0 0 0 0 0 0 
0 0 0 0 0 0 0 0 0 
0 0 0 0 0 0 0 0 0 
0 0 0 0 0 0 0 0 0 
0 0 0 0 0 0 0 0 0 
0 0 0 0 0 0 0 0 0 
0 0 0 0 0 0 0 0 0 
0 0 0 0 0 0 0 0 0 
0 0 0 0 0 0 0 0 0 
0 0 0 0 0 0 0 0 0 
0 0 0 0 0 0 0 0 0 
0 0 0 0 0 0 0 0 0 
0 0 0 0 0 0 0 0 0 
0 0 0 0 0 0 0 0 0 
0 0 0 0 0 0 0 0 0 
0 0 0 0 0 0 0 0 0 
0 0 0 0 0 0 0 0 0 
0 0 0 0 0 0 0 0 0 
0 0 0 0 0 0 0 0 0 
0 0 0 0 0 0 0 0 0 
0 0 0 0 0 0 0 0 0 
0 0 0 0 0 0 0 0 0 
0 0 0 0 0 0 0 0 0 
0 0 0 0 0 0 0 0 0 
0 0 0 0 0 0 0 0 0 
0 0 0 0 0 0 0 0 0 
0 0 0 0 0 0 0 0 0 
0 0 0 0 0 0 0 0 0 
0 0 0 0 0 0 0 0 0 
0 0 0 0 0 0 0 0 0 
0 0 0 0 0 0 0 0 0 
0 0 0 0 0 0 0 0 0 
0 0 0 0 0 0 0 0 0 
0 0 0 0 0 0 0 0 0 
0 0 0 0 0 0 0 0 0 
0 0 0 0 0 0 0 0 0 
0 0 0 0 0 0 0 0 0 
0 0 0 0 0 0 0 0 0 
0 0 0 0 0 0 0 0 0 
0 0 0 0 0 0 0 0 0 
0 0 0 0 0 0 0 0 0 
0 0 0 0 0 0 0 0 0 
0 0 0 0 0 0 0 0 0 
0 0 0 0 0 0 0 0 0 
0 0 0 0 0 0 0 0 0 
0 0 0 0 0 0 0 0 0 
0 0 0 0 0 0 0 0 0 
0 0 0 0 0 0 0 0 0 
0 0 0 0 0 0 0 0 0 
0 0 0 0 0 0 0 0 0 
0 0 0 0 0 0 0 0 0 
0 0 0 0 0 0 0 0 0 
0 0 0 0 0 0 0 0 0 
0 0 0 0 0 0 0 0 0 
0 0 0 0 0 0 0 0 0 
0 0 0 0 0 0 0 0 0 
0 0 0 0 0 0 0 0 0 
0 0 0 0 0 0 0 0 0 
0 0 0 0 0 0 0 0 0 
0 0 0 0 0 0 0 0 0 
0 0 0 0 0 0 0 0 0 
0 0 0 0 0 0 0 0 0 
0 0 0 0 0 0 0 0 0 
0 0 0 0 0 0 0 0 0 
0 0 0 0 0 0 0 0 0 
0 0 0 0 0 0 0 0 0 
0 0 0 0 0 0 0 0 0 
0 0 0 0 0 0 0 0 0 
0 0 0 0 0 0 0 0 0 
0 0 0 0 0 0 0 0 0 
0 0 0 0 0 0 0 0 0 
0 0 0 0 0 0 0 0 0 
0 0 0 0 0 0 0 0 0 
0 0 0 0 0 0 0 0 0 
0 0 0 0 0 0 0 0 0 
0 0 0 0 0 0 0 0 0 
0 0 0 0 0 0 0 0 0 
0 0 0 0 0 0 0 0 0 
0 0 0 0 0 0 0 0 0 
0 0 0 0 0 0 0 0 0 
0 0 0 0 0 0 0 0 0 
0 0 0 0 0 0 0 0 0 
0 0 0 0 0 0 0 0 0 
0 0 0 0 0 0 0 0 0 
0 0 0 0 0 0 0 0 0 
0 0 0 0 0 0 0 0 0 
0 0 0 0 0 0 0 0 0 
0 0 0 0 0 0 0 0 0 
0 0 0 0 0 0 0 0 0 
0 0 0 0 0 0 0 0 0 
0 0 0 0 0 0 0 0 0 
0 0 0 0 0 0 0 0 0 
0 0 0 0 0 0 0 0 0 
0 0 0 0 0 0 0 0 0 
0 0 0 0 0 0 0 0 0 
0 0 0 0 0 0 0 0 0 
0 0 0 0 0 0 0 0 0 
0 0 0 0 0 0 0 0 0 
0 0 0 0 0 0 0 0 0 
0 0 0 0 0 0 0 0 0 
0 0 0 0 0 0 0 0 0 
0 0 0 0 0 0 0 0 0 
0 0 0 0 0 0 0 0 0 
0 0 0 0 0 0 0 0 0 
0 0 0 0 0 0 0 0 0 
0 0 0 0 0 0 0 0 0 
0 0 0 0 0 0 0 0 0 
0 0 0 0 0 0 0 0 0 
0 0 0 0 0 0 0 0 0 
0 0 0 0 0 0 0 0 0 
0 0 0 0 0 0 0 0 0 
0 0 0 0 0 0 0 0 0 
0 0 0 0 0 0 0 0 0 
0 0 0 0 0 0 0 0 0 
0 0 0 0 0 0 0 0 0 
0 0 0 0 0 0 0 0 0 
0 0 0 0 0 0 0 0 0 
0 0 0 0 0 0 0 0 0 
0 0 0 0 0 0 0 0 0 
0 0 0 0 0 0 0 0 0 
0 0 0 0 0 0 0 0 0 
0 0 0 0 0 0 0 0 0 
0 0 0 0 0 0 0 0 0 
0 0 0 0 0 0 0 0 0 
0 0 0 0 0 0 0 0 0 
0 0 0 0 0 0 0 0 0 
0 0 0 0 0 0 0 0 0 
0 0 0 0 0 0 0 0 0 
0 0 0 0 0 0 0 0 0 
0 0 0 0 0 0 0 0 0 
0 0 0 0 0 0 0 0 0 
0 0 0 0 0 0 0 0 0 
0 0 0 0 0 0 0 0 0 
0 0 0 0 0 0 0 0 0 
0 0 0 0 0 0 0 0 0 
0 0 0 0 0 0 0 0 0 
0 0 0 0 0 0 0 0 0 
0 0 0 0 0 0 0 0 0 
0 0 0 0 0 0 0 0 0 
0 0 0 0 0 0 0 0 0 
0 0 0 0 0 0 0 0 0 
0 0 0 0 0 0 0 0 0 
0 0 0 0 0 0 0 0 0 
0 0 0 0 0 0 0 0 0 
0 0 0 0 0 0 0 0 0 
0 0 0 0 0 0 0 0 0 
0 0 0 0 0 0 0 0 0 
0 0 0 0 0 0 0 0 0 
0 0 0 0 0 0 0 0 0 
0 0 0 0 0 0 0 0 0 
0 0 0 0 0 0 0 0 0 
0 0 0 0 0 0 0 0 0 
0 0 0 0 0 0 0 0 0 
0 0 0 0 0 0 0 0 0 
0 0 0 0 0 0 0 0 0 
0 0 0 0 0 0 0 0 0 
0 0 0 0 0 0 0 0 0 
0 0 0 0 0 0 0 0 0 
0 0 0 0 0 0 0 0 0 
0 0 0 0 0 0 0 0 0 
0 0 0 0 0 0 0 0 0 
0 0 0 0 0 0 0 0 0 
0 0 0 0 0 0 0 0 0 
0 0 0 0 0 0 0 0 0 
0 0 0 0 0 0 0 0 0 
0 0 0 0 0 0 0 0 0 
0 0 0 0 0 0 0 0 0 
0 0 0 0 0 0 0 0 0 
0 0 0 0 0 0 0 0 0 
0 0 0 0 0 0 0 0 0 
0 0 0 0 0 0 0 0 0 
0 0 0 0 0 0 0 0 0 
0 0 0 0 0 0 0 0 0 
0 0 0 0 0 0 0 0 0 
0 0 0 0 0 0 0 0 0 
0 0 0 0 0 0 0 0 0 
0 0 0 0 0 0 0 0 0 
0 0 0 0 0 0 0 0 0 
0 0 0 0 0 0 0 0 0 
0 0 0 0 0 0 0 0 0 
0 0 0 0 0 0 0 0 0 
0 0 0 0 0 0 0 0 0 
0 0 0 0 0 0 0 0 0 
0 0 0 0 0 0 0 0 0 
0 0 0 0 0 0 0 0 0 
0 0 0 0 0 0 0 0 0 
0 0 0 0 0 0 0 0 0 
0 0 0 0 0 0 0 0 0 
0 0 0 0 0 0 0 0 0 
0 0 0 0 0 0 0 0 0 
0 0 0 0 0 0 0 0 0 
0 0 0 0 0 0 0 0 0 
0 0 0 0 0 0 0 0 0 
0 0 0 0 0 0 0 0 0 
0 0 0 0 0 0 0 0 0 
0 0 0 0 0 0 0 0 0 
0 0 0 0 0 0 0 0 0 
0 0 0 0 0 0 0 0 0 
0 0 0 0 0 0 0 0 0 
0 0 0 0 0 0 0 0 0 
0 0 0 0 0 0 0 0 0 
0 0 0 0 0 0 0 0 0 
0 0 0 0 0 0 0 0 0 
0 0 0 0 0 0 0 0 0 
0 0 0 0 0 0 0 0 0 
0 0 0 0 0 0 0 0 0 
0 0 0 0 0 0 0 0 0 
0 0 0 0 0 0 0 0 0 
0 0 0 0 0 0 0 0 0 
0 0 0 0 0 0 0 0 0 
0 0 0 0 0 0 0 0 0 
0 0 0 0 0 0 0 0 0 
0 0 0 0 0 0 0 0 0 
0 0 0 0 0 0 0 0 0 
0 0 0 0 0 0 0 0 0 
0 0 0 0 0 0 0 0 0 
0 0 0 0 0 0 0 0 0 
0 0 0 0 0 0 0 0 0 
0 0 0 0 0 0 0 0 0 
0 0 0 0 0 0 0 0 0 
0 0 0 0 0 0 0 0 0 
0 0 0 0 0 0 0 0 0 
0 0 0 0 0 0 0 0 0 
0 0 0 0 0 0 0 0 0 
0 0 0 0 0 0 0 0 0 
0 0 0 0 0 0 0 0 0 
0 0 0 0 0 0 0 0 0 
0 0 0 0 0 0 0 0 0 
0 0 0 0 0 0 0 0 0 
0 0 0 0 0 0 0 0 0 
0 0 0 0 0 0 0 0 0 
0 0 0 0 0 0 0 0 0 
0 0 0 0 0 0 0 0 0 
0 0 0 0 0 0 0 0 0 
0 0 0 0 0 0 0 0 0 
0 0 0 0 0 0 0 0 0 
0 0 0 0 0 0 0 0 0 
0 0 0 0 0 0 0 0 0 
0 0 0 0 0 0 0 0 0 
0 0 0 0 0 0 0 0 0 
0 0 0 0 0 0 0 0 0 
0 0 0 0 0 0 0 0 0 
0 0 0 0 0 0 0 0 0 
0 0 0 0 0 0 0 0 0 
0 0 0 0 0 0 0 0 0 
0 0 0 0 0 0 0 0 0 
0 0 0 0 0 0 0 0 0 
0 0 0 0 0 0 0 0 0 
0 0 0 0 0 0 0 0 0 
0 0 0 0 0 0 0 0 0 
0 0 0 0 0 0 0 0 0 
0 0 0 0 0 0 0 0 0 
0 0 0 0 0 0 0 0 0 
0 0 0 0 0 0 0 0 0 
0 0 0 0 0 0 0 0 0 
0 0 0 0 0 0 0 0 0 
0 0 0 0 0 0 0 0 0 
0 0 0 0 0 0 0 0 0 
0 0 0 0 0 0 0 0 0 
0 0 0 0 0 0 0 0 0 
0 0 0 0 0 0 0 0 0 
0 0 0 0 0 0 0 0 0 
0 0 0 0 0 0 0 0 0 

v 3 822 double
0 0 -1 0 0 -1 0 0 -1 
0 0 -1 0 0 -1 -1.29489 -0.263443 -1.85423 
-1.07261 0.138848 -1.77024 -1.07999 0.0605004 -1.7669 -1.17675 -0.15996 -1.75896 
-0.969303 0.0176072 -1.74699 -1.24198 0.142669 -1.77947 -1.00493 -0.0311408 -1.72238 
-1.19959 0.153059 -1.73365 0 0 -1 -1.15975 -0.153784 -1.7264 
-1.09378 0.0507524 -1.70253 -1.10591 -0.132975 -1.6652 -1.17393 -0.0607533 -1.66791 
-1.02681 0.0189348 -1.62108 -1.38782 0.160646 -1.88478 -1.05533 0.007542 -1.61164 
-1.10271 -0.0877169 -1.56512 -1.00914 0.0655862 -1.60051 -0.79908 0.192353 -1.65776 
-1.0947 -0.0154384 -1.55037 -1.06282 0.127956 -1.55168 -1.11336 0.0338284 -1.51398 
-1.1941 -0.0777868 -1.5343 -1.31357 0.000381016 -1.61269 -1.06358 0.0776617 -1.47858 
-1.01284 -0.0123211 -1.49358 -1.06987 0.0163512 -1.49071 -1.0787 0.0773545 -1.48616 
-1.02364 0.0282604 -1.51526 -0.946199 0.0777158 -1.49705 -0.985408 0.0234253 -1.49436 
-0.971636 0.139356 -1.46387 -1.0424 0.0342252 -1.42069 -1.09571 0.0247785 -1.42835 
-1.132 0.118265 -1.40889 -1.00344 0.0310623 -1.41838 -1.09481 -0.087535 -1.46345 
-1.08578 -0.0401915 -1.41193 -1.17652 0.0340392 -1.39461 -1.1543 0.0308153 -1.40343 
-1.11153 -0.0813879 -1.37208 -0.977451 0.0123217 -1.37971 -1.14175 -0.0597273 -1.38611 
-0.86721 0.108018 -1.33455 -1.14716 0.239158 -1.36851 -0.926415 -0.0261929 -1.31346 
-1.14753 -0.0645282 -1.35349 -1.08607 0.0934356 -1.27762 -1.02132 0.00715958 -1.38458 
-1.30201 -0.127471 -1.3331 -0.984574 -0.0756637 -1.30813 -1.20975 0.099159 -1.33864 
-1.05663 0.0271079 -1.2181 -0.975709 0.0836101 -1.32378 -1.04824 -0.128336 -1.29621 
-0.971564 -0.0522209 -1.27428 -0.906767 -0.0245925 -1.31862 -1.22921 0.113399 -1.30377 
-0.97989 -0.14697 -1.21008 -1.2045 -0.276607 -1.31965 -0.964999 0.0272735 -1.24133 
-0.943879 0.0327751 -1.25542 -1.175 -0.275441 -1.4301 -1.20634 0.31037 -1.42806 
-1.13301 0.0485565 -1.22282 -0.959124 -0.0856707 -1.23257 -0.958266 -0.116579 -1.16545 
-1.08291 0.0449325 -1.19206 -0.980062 -0.0645597 -1.20607 -0.972702 -0.107829 -1.17516 
-0.943774 -0.164468 -1.14492 -0.971009 -0.0364512 -1.16929 -1.04128 -0.0541165 -1.14216 
-1.26197 -0.0842652 -1.24255 -1.14597 0.0596474 -1.11429 -1.09055 -0.128932 -1.14497 
-0.938482 0.0116519 -1.08629 -1.05324 -0.00685462 -1.12302 -1.1201 0.0296316 -1.12306 
-1.0244 0.0231564 -1.07191 -1.08177 -0.00368252 -1.07684 -1.34373 0.117182 -1.19037 
-0.860906 -0.0297012 -1.02226 -1.12839 0.00292622 -1.06676 -0.986592 0.00842437 -1.01822 
-1.1256 -0.169277 -1.09765 -1.14229 0.257386 -1.12582 -0.976797 0.096977 -0.9875 
-1.02444 -0.0416777 -1.02456 -0.735834 0.0629673 -1.09696 -1.15873 0.308163 -1.06808 
-1.02242 0.1122 -1.022 -0.845192 0.0269881 -0.855325 -1.19926 -0.149876 -0.984292 
-0.987107 -0.0621105 -0.895641 -1.02063 0.0942051 -0.987824 -1.0718 -0.00770656 -0.931368 
-1.23335 0.0213085 -0.941589 -0.891318 0.0197102 -0.904893 -0.930709 0.00640582 -0.869663 
-0.934905 0.00906679 -0.851571 -0.978261 0.0146498 -0.898774 -1.02834 0.0389882 -0.867378 
-1.05551 -0.0722161 -0.833504 -1.03141 -0.0509235 -0.830963 -0.861713 -0.00419694 -0.816922 
-0.917824 0.00464036 -0.987997 -1.06477 0.0943245 -0.842786 -0.980942 0.0759321 -0.787224 
-1.08006 -0.0290875 -0.880919 -1.1357 0.0258527 -0.893498 -1.17869 -0.0510789 -0.910892 
-1.17737 0.0101711 -0.847332 -0.907631 0.0914391 -0.761667 -1.00968 0.0505519 -0.788947 
-1.07613 0.0656212 -0.831105 -1.23285 0.189699 -0.856509 -1.03103 0.0609834 -0.749604 
-1.11874 0.0665628 -0.751407 -1.15653 0.00508291 -0.782989 -1.08758 -0.0598513 -0.771858 
-1.12921 -0.0492224 -0.806516 -1.02322 0.0727472 -0.721915 -1.05187 0.0244488 -0.690689 
-1.01209 0.11951 -0.691574 -1.0923 -0.0309608 -0.656973 -0.785727 0.154342 -0.489632 
-1.15342 -0.0670013 -0.662183 -1.10221 -0.101197 -0.622829 -1.13416 0.0313639 -0.603702 
-1.1587 0.0201664 -0.661873 -0.920183 -0.442616 -0.578057 -1.03093 -0.382752 -0.679436 
-1.01812 0.00493514 -0.517521 -1.01017 0.0529042 -0.484116 -1.09752 0.0664032 -0.684716 
-1.02108 -0.161394 -0.583173 -1.20281 0.0828919 -0.530082 -1.287 -0.151725 -0.7799 
-0.990853 -0.0186445 -0.431245 -1.10284 -0.0603487 -0.512559 -1.01409 -0.157449 -0.534163 
-0.998662 -0.0751622 -0.488699 -1.0488 -0.0906422 -0.566268 -1.23017 -0.258379 -0.719035 
-0.98885 -0.0198163 -0.467944 -1.04679 -0.0180249 -0.439947 -0.972966 0.267791 -0.39282 
-0.808652 -0.0109628 -0.367624 -1.10552 0.144266 -0.452692 -1.00703 -0.0959988 -0.532343 
-0.810874 0.0230631 -0.340313 -1.02823 -0.118425 -0.441434 -0.974249 -0.0413899 -0.412626 
-1.00491 -0.034443 -0.427064 -1.07472 -0.0468955 -0.45872 -1.24491 -0.144925 -0.567848 
-1.21083 0.347387 -0.782933 -1.05242 0.0789791 -0.472476 -1.18722 0.134781 -0.489062 
-0.892706 0.0185471 -0.377561 -1.06955 -0.0466824 -0.45533 -0.762598 -0.028385 -0.321106 
-1.20233 -0.0715096 -0.348419 -0.850902 -0.0179408 -0.359595 -0.868006 0.00818296 -0.365339 
-1.38242 0.129267 -0.489007 -1.02415 0.0592299 -0.399734 -1.02283 0.0539095 -0.307552 
-0.989189 -0.0248055 -0.419661 -0.997789 -0.150159 -0.445047 -1.02585 0.0102135 -0.432344 
-1.1265 0.0799916 -0.454295 -1.03439 0.126235 -0.448926 -1.01234 -0.0265669 -0.42302 
-1.06114 -0.052256 -0.44593 -0.935483 0.0228121 -0.393358 -0.912145 -0.00989561 -0.385046 
-1.02559 -0.180759 -0.463491 -1.28841 -0.230488 -0.60705 -1.16893 0.335404 -0.587136 
-0.892045 0.00451787 -0.375793 -1.01726 0.195873 -0.436335 -1.01923 0.226047 -0.415566 
-0.926328 -0.0491515 -0.394371 -0.954808 0.0016403 -0.403125 -1.0036 0.0809686 -0.386407 
-1.08934 0.00113072 -0.472308 -1.11972 -0.0730057 -0.474133 -1.20429 0.377 -0.939959 
-1.18726 0.378906 -0.688729 -0.987641 -0.145892 -0.399799 -0.880604 -0.102848 -0.367997 
-0.955769 -0.0949312 -0.458493 -0.888653 -0.0156562 -0.375512 -0.8629 -0.0532834 -0.36187 
-0.846053 -0.0538923 -0.364454 -0.97857 -0.0164666 -0.415172 -0.989809 0.0135793 -0.358153 
-1.00777 -0.00890968 -0.434988 -1.10627 -0.107237 -0.509409 -0.994323 -0.165449 -0.455747 
-0.916833 -0.13324 -0.394552 -0.993428 -0.163391 -0.43462 -0.96253 -0.00961423 -0.394454 
-1.0136 -0.030374 -0.416474 -0.750748 0.0355068 -0.317815 -0.959458 -0.0866513 -0.434825 
-1.08643 -0.24045 -0.547197 -0.877423 0.0267769 -0.370929 -0.909366 0.0452738 -0.383674 
-0.858999 0.0660049 -0.369594 -0.891107 -0.0831666 -0.362984 -0.824566 -0.0387005 -0.344535 
-0.87312 0.0444698 -0.370099 -0.899289 0.0512231 -0.383819 -0.882442 -0.0429922 -0.371334 
-0.801935 0.030197 -0.332844 -0.919852 -0.0284162 -0.387094 -0.876204 -0.0838904 -0.375279 
-0.867448 -0.0524025 -0.342627 -0.861084 0.0549693 -0.410711 -1.04255 -0.0684295 -0.616314 
-0.701823 0.0041083 -0.307462 -1.22278 -0.0302433 -0.995208 -0.764575 -0.0437728 -0.313282 
-0.906966 0.0253561 -0.551928 -0.680492 -0.00724321 -0.288045 -0.783453 -0.0159411 -0.334008 
-0.770127 0.025092 -0.317647 -0.765604 -0.06077 -0.328884 -0.758532 -0.0473152 -0.32492 
-0.760872 0.00680002 -0.317046 -0.78049 -0.0082737 -0.318439 -0.889132 0.0753871 -0.330932 
-0.923373 0.0374846 -0.383062 -0.816772 0.0591694 -0.335361 -0.926045 0.0926791 -0.382376 
-0.901809 0.0236781 -0.53847 -0.783675 0.105908 -0.315625 -1.21422 -0.13067 -0.540924 
-0.985883 0.131579 -0.493486 -1.01567 0.155221 -0.43547 -1.05548 -0.0383371 -0.422032 
-1.08279 -0.0141099 -0.423314 -1.20186 0.149011 -0.550115 -0.719266 0.0285053 -0.301521 
-0.574254 0.0723062 -0.279367 -0.680622 0.0197546 -0.28952 -0.7735 0.057091 -0.323722 
-0.76325 0.0799117 -0.462904 -0.73652 0.069027 -0.30983 -0.743703 0.0343327 -0.356987 
-0.7937 0.0584126 -0.366979 -0.776792 0.189176 -0.317787 -0.762342 0.0527786 -0.314868 
-0.792358 0.181521 -0.307946 -0.850527 -0.0374449 -0.35886 -1.02966 0.0904587 -0.476568 
-0.933741 0.0515791 -0.423649 -0.841528 -0.0325759 -0.361289 -0.868323 0.0407953 -0.333506 
-0.96059 0.00728404 -0.405242 -0.79501 0.0440091 -0.346089 -0.802501 0.0791626 -0.338352 
-0.877645 0.0296301 -0.369457 -0.993901 0.0199122 -0.41782 -0.971591 0.0964789 -0.387288 
-0.914969 0.0163123 -0.383359 -0.92218 0.0359764 -0.398065 -0.928041 0.0437941 -0.402308 
-0.796711 -0.0715443 -0.321473 -1.29086 0.0387144 -0.267072 -0.849092 0.086692 -0.388884 
-0.882537 -0.00798402 -0.365583 -0.911924 -0.0368803 -0.375575 -0.886139 -0.070814 -0.362354 
-0.868015 -0.0466191 -0.372857 -0.848112 -0.0911077 -0.43014 -0.86119 -0.00909769 -0.359308 
-0.865932 -0.0532038 -0.362593 -0.898099 0.0193447 -0.377654 -0.938282 0.102587 -0.368694 
-1.03593 0.0031605 -0.439741 -0.89713 -0.0459595 -0.391284 -0.835117 0.014321 -0.39006 
-0.830573 -0.0306728 -0.342225 -1.16025 0.0713398 -0.382373 -0.967691 -0.0393935 -0.403361 
-0.892459 0.0280648 -0.367673 -0.899351 -0.0399437 -0.388797 -0.859144 -0.0507654 -0.339467 
-0.84933 -0.0372568 -0.338715 -0.887763 -0.0285335 -0.36537 -0.915936 -0.0314923 -0.39264 
-0.900949 -0.0289028 -0.385537 -0.926662 -0.0676399 -0.386938 -0.918649 -0.0796451 -0.396689 
-1.02533 -0.0514418 -0.433279 -0.898041 -0.0473374 -0.37867 -0.707015 0.216633 -0.295401 
-0.959672 0.0940124 -0.397755 -0.782951 0.0331144 -0.326667 -0.903133 -0.0491753 -0.375849 
-0.872999 0.092096 -0.329341 -0.866415 0.118151 -0.335562 -0.757179 0.037411 -0.331749 
-0.890267 -0.157575 -0.352725 -0.862191 0.0256492 -0.338074 -0.824208 -0.0868322 -0.324846 
-0.872339 0.0150465 -0.359141 -0.797764 -0.0375704 -0.323486 -0.78576 0.0549519 -0.343083 
-0.879678 -0.0288459 -0.360983 -0.872261 -0.0293097 -0.366463 -0.876373 0.0751935 -0.375807 
-0.851506 0.0112381 -0.351624 -0.829854 0.0167039 -0.353574 -0.782056 0.140446 -0.321253 
-0.886302 0.0242327 -0.381746 -1.00647 -0.0990879 -0.613057 -0.887023 0.0191216 -0.365153 