# vtk DataFile Version 4.0
Generated by LIGGGHTS
ASCII
DATASET POLYDATA
POINTS 812 float
-0.0222998 0.0333695 0.0490361 -0.00415656 0.0280673 0.0496867 -0.0316269 0.0249216 0.0522144 
-0.00768842 0.0210612 0.0510242 -0.00891217 0.0033458 0.0514201 -0.0120366 0.0133036 0.0458765 
-0.024146 -0.00567439 0.0458565 -0.030289 -0.0100453 0.0486599 -0.479036 -0.0193893 -0.394554 
-0.475431 -0.00474052 -0.394551 -0.484443 0.0134405 -0.393706 -0.481479 -0.01333 -0.391975 
-0.465637 -0.00352638 -0.390292 -0.479987 -0.00868419 -0.386225 -0.449612 0.0138955 -0.38916 
-0.450638 -0.0261128 -0.383135 -0.473122 -0.00363265 -0.383402 -0.465431 0.00652179 -0.384451 
-0.466711 0.0188613 -0.385082 -0.45368 -0.00840293 -0.378365 -0.466582 -0.00266366 -0.380007 
-0.460798 0.00577256 -0.378478 -0.454292 0.00644645 -0.380521 -0.458714 -0.0227046 -0.37672 
-0.462999 0.00357288 -0.376436 -0.465592 -0.0149027 -0.368333 -0.447002 -0.0126759 -0.370623 
-0.447486 -0.000949971 -0.369447 -0.460215 0.00493436 -0.370206 -0.45078 0.00649211 -0.369341 
-0.461672 -0.017017 -0.365195 -0.441875 -0.00258076 -0.365764 -0.455558 0.00698234 -0.365473 
-0.456012 -0.0221123 -0.361874 -0.452743 0.00487554 -0.362381 -0.446844 0.00825946 -0.360921 
-0.447026 -0.0179412 -0.352618 -0.459394 -0.010548 -0.354921 -0.433071 -0.00822563 -0.350078 
-0.440812 0.0119967 -0.350697 -0.44396 -0.00876954 -0.346637 -0.45379 -0.00236124 -0.347757 
-0.437425 0.000995173 -0.347738 -0.450056 -0.0123666 -0.343822 -0.439433 -0.0113096 -0.341245 
-0.447495 0.00204051 -0.344019 -0.471768 0.0446292 -0.34203 -0.429464 -0.0118594 -0.334471 
-0.418058 0.0135425 -0.326877 -0.415046 0.00200403 -0.32463 -0.425094 0.00584548 -0.324233 
-0.409545 0.00833761 -0.322254 -0.427438 0.011034 -0.325173 -0.41725 0.0108763 -0.318423 
-0.41928 -0.0235566 -0.314848 -0.417056 -0.00948338 -0.314548 -0.406655 0.00667032 -0.315181 
-0.438888 0.0382297 -0.319568 -0.407171 0.00425735 -0.313049 -0.413309 0.00554379 -0.311571 
-0.416957 0.00833452 -0.314247 -0.407556 -0.0133297 -0.30932 -0.410401 -0.00174042 -0.309513 
-0.404285 0.00155888 -0.308716 -0.3956 0.00256852 -0.3072 -0.406138 0.00809454 -0.310441 
-0.400517 0.0123892 -0.309699 -0.40515 -0.0133484 -0.305502 -0.406943 -0.0099071 -0.303534 
-0.409483 0.00148026 -0.304379 -0.403333 0.00669646 -0.305463 -0.406217 -0.0188495 -0.300552 
-0.406147 -0.00673325 -0.299162 -0.399578 0.00409496 -0.302596 -0.411932 -0.03795 -0.297762 
-0.400734 -0.00960135 -0.295876 -0.39785 -0.00236306 -0.296236 -0.398207 0.00681003 -0.297509 
-0.398054 0.00456708 -0.294263 -0.402601 0.0133233 -0.29549 -0.389199 -0.0171114 -0.294438 
-0.398802 -0.00481135 -0.291476 -0.401166 0.00179372 -0.293949 -0.389693 0.00286605 -0.294344 
-0.404485 0.00801879 -0.294796 -0.390945 0.0130463 -0.294101 -0.409574 -0.0168374 -0.288617 
-0.397062 -0.00939445 -0.291395 -0.385731 -0.00506064 -0.289622 -0.377312 -0.00126299 -0.288053 
-0.389718 0.0205172 -0.290902 -0.394188 -0.0116164 -0.284823 -0.386757 -0.012061 -0.287375 
-0.391728 -0.00482949 -0.284371 -0.381389 0.000338613 -0.286283 -0.385046 0.00967551 -0.286192 
-0.383017 0.0162208 -0.286318 -0.382837 -0.00485301 -0.280326 -0.384105 -0.00087525 -0.279532 
-0.381357 0.00276503 -0.282811 -0.377756 0.00480643 -0.27962 -0.384698 0.00508883 -0.282194 
-0.378483 -0.0144979 -0.278779 -0.373915 0.00465244 -0.277215 -0.394223 0.0366974 -0.280498 
-0.39012 -0.0353707 -0.277663 -0.370472 -0.0038411 -0.274316 -0.367189 0.0037651 -0.272757 
-0.373683 0.0078408 -0.273305 -0.370609 -0.0156555 -0.268555 -0.365419 -0.0110802 -0.269387 
-0.364502 0.000940251 -0.271672 -0.369437 0.010486 -0.269603 -0.371326 0.0221249 -0.269145 
-0.384595 0.0298715 -0.272553 -0.366677 -0.00356513 -0.267703 -0.354731 -0.00334618 -0.263894 
-0.366191 0.00737913 -0.267057 -0.363599 0.013898 -0.264921 -0.366441 -0.00901924 -0.262597 
-0.358543 -0.00390052 -0.262697 -0.354035 0.000839045 -0.260401 -0.348907 0.0031881 -0.26112 
-0.355843 0.00439017 -0.260499 -0.358915 0.0108674 -0.263675 -0.368125 0.0247127 -0.263758 
-0.357688 -0.0228266 -0.257435 -0.355923 -0.018449 -0.26053 -0.355639 -0.00402743 -0.257859 
-0.348476 0.00232128 -0.255628 -0.353234 0.00789099 -0.25815 -0.370808 0.0282465 -0.258075 
-0.353755 -0.0266503 -0.253109 -0.348866 -0.0194187 -0.251796 -0.34441 -0.00713664 -0.253837 
-0.342784 -0.00331618 -0.251811 -0.34485 0.00391668 -0.253823 -0.348339 0.00732953 -0.254731 
-0.343054 0.00958916 -0.254098 -0.349199 0.0150113 -0.255165 -0.341309 -0.0134988 -0.250451 
-0.342864 -0.00907974 -0.250598 -0.337066 -0.00313314 -0.249223 -0.336149 3.25345e-05 -0.248563 
-0.342069 0.00648091 -0.250241 -0.335204 0.00853294 -0.248083 -0.340171 0.0106175 -0.250417 
-0.337167 0.0114127 -0.248614 -0.337526 0.0144217 -0.248373 -0.343049 0.0150729 -0.251296 
-0.342569 0.0185089 -0.249848 -0.330235 -0.0156448 -0.244247 -0.326111 -0.00591686 -0.243289 
-0.33443 -0.00291517 -0.246254 -0.328977 0.00432804 -0.244773 -0.330536 0.0107727 -0.24403 
-0.345714 0.030918 -0.248119 -0.336594 -0.0281666 -0.243783 -0.329892 -0.0245181 -0.241273 
-0.330027 -0.0191148 -0.242242 -0.325117 -0.0100659 -0.242588 -0.325426 -0.0246339 -0.237724 
-0.319283 -0.0202896 -0.238613 -0.321092 -0.0120059 -0.239727 -0.311433 -0.00511987 -0.23728 
-0.316885 -0.00286235 -0.238578 -0.313781 0.0156393 -0.237113 -0.321208 -0.0360088 -0.234881 
-0.308022 -0.0105078 -0.235419 -0.305497 -0.004621 -0.234702 -0.308512 -0.00154776 -0.234213 
-0.316162 0.018723 -0.236442 -0.311163 0.0252456 -0.233091 -0.299076 -0.0249468 -0.229074 
-0.301002 -0.0228792 -0.230361 -0.294691 -0.00991292 -0.229898 -0.299062 -0.00235953 -0.232157 
-0.310989 0.00134148 -0.227642 -0.296342 0.00509769 -0.230783 -0.291679 0.00442933 -0.228808 
-0.300206 0.0119509 -0.230865 -0.301068 0.0168693 -0.230497 -0.295826 0.0143137 -0.229908 
-0.307153 0.0221972 -0.23199 -0.301622 0.0221714 -0.230796 -0.307213 0.0275965 -0.231976 
-0.292637 -0.0148767 -0.228492 -0.289187 -0.0088037 -0.227703 -0.292239 -0.00642034 -0.229139 
-0.285105 -0.0051157 -0.226174 -0.289231 -0.00428538 -0.226244 -0.291384 -6.16687e-05 -0.227902 
-0.286686 0.000696627 -0.225874 -0.285064 0.00442831 -0.22605 -0.288669 0.00786392 -0.227369 
-0.291933 0.0119238 -0.228487 -0.288149 0.0151582 -0.226548 -0.296893 0.0197303 -0.2282 
-0.296211 0.0276456 -0.22744 -0.311753 0.0383333 -0.230127 -0.295767 -0.0369232 -0.224237 
-0.290353 -0.0248586 -0.224613 -0.277956 -0.0133181 -0.222491 -0.295069 0.0046289 -0.227922 
-0.301109 0.00838635 -0.227428 -0.285822 0.00957457 -0.224974 -0.2795 0.00922598 -0.223448 
-0.276368 0.00922756 -0.222155 -0.282559 0.0119443 -0.224559 -0.313531 -0.0557987 -0.220885 
-0.276127 -0.0175747 -0.221194 -0.270489 -0.0104407 -0.219674 -0.273012 -0.00743754 -0.220992 
-0.275079 -0.00332098 -0.220923 -0.273616 0.00999658 -0.22096 -0.269628 0.00732828 -0.219439 
-0.275757 0.0216058 -0.220199 -0.265403 -0.00944795 -0.216563 -0.263697 -0.00391863 -0.217188 
-0.260309 -0.00558595 -0.215688 -0.260143 -0.00220101 -0.215762 -0.275862 0.00154248 -0.220568 
-0.264021 0.00326783 -0.217289 -0.261234 0.00164091 -0.216183 -0.260466 0.00448655 -0.215717 
-0.264436 0.0104196 -0.216027 -0.26799 0.0120693 -0.218515 -0.267258 0.0168763 -0.216352 
-0.269157 0.0267385 -0.216383 -0.265288 0.0249821 -0.215296 -0.27843 0.0315979 -0.217581 
-0.284971 0.0413232 -0.216894 -0.287882 -0.0486849 -0.215782 -0.257355 -0.0157189 -0.212239 
-0.257276 -0.011976 -0.213944 -0.260053 0.000157372 -0.213782 -0.258684 0.00749304 -0.213753 
-0.258144 0.0124717 -0.213105 -0.262351 0.022659 -0.213396 -0.258175 0.0200818 -0.213149 
-0.264481 0.0282996 -0.212871 -0.290577 -0.057875 -0.211266 -0.246894 -0.0181407 -0.20866 
-0.25223 -0.0171467 -0.209632 -0.246434 -0.0142138 -0.207943 -0.248484 -0.0114529 -0.2103 
-0.241882 -0.00800451 -0.207745 -0.240399 -0.00383468 -0.207387 -0.250268 0.00373065 -0.210127 
-0.242563 5.15907e-05 -0.208326 -0.240107 0.00166446 -0.20708 -0.244255 0.00513739 -0.207773 
-0.240244 0.00669769 -0.207099 -0.244906 0.00904158 -0.208977 -0.248783 0.0104539 -0.209462 
-0.243222 0.0117633 -0.208094 -0.248742 0.0145844 -0.210016 -0.246485 0.0178285 -0.208586 
-0.286971 0.0588693 -0.208941 -0.244116 -0.0202536 -0.205307 -0.240583 -0.015186 -0.206276 
-0.236933 -0.0125369 -0.204157 -0.241795 -0.00535034 -0.203764 -0.236566 -0.00615245 -0.205023 
-0.237374 -0.000562974 -0.205058 -0.233883 -0.00264612 -0.204708 -0.232548 0.00155663 -0.204047 
-0.237409 0.00462282 -0.204898 -0.240137 0.0105753 -0.205839 -0.235822 0.00951319 -0.205157 
-0.233949 0.011987 -0.204132 -0.242976 0.0148871 -0.207534 -0.238111 0.0149189 -0.204415 
-0.243004 0.017832 -0.207122 -0.237971 0.0195754 -0.204795 -0.318261 -0.0710913 -0.206339 
-0.236133 -0.0293338 -0.200969 -0.246229 -0.0168181 -0.202252 -0.231277 -0.0142841 -0.202719 
-0.22255 -0.0112616 -0.199167 -0.231397 -0.00899021 -0.202537 -0.23071 -0.00559899 -0.203165 
-0.230053 -0.00174853 -0.201585 -0.234903 0.000441828 -0.202078 -0.22976 0.00205189 -0.202841 
-0.2281 0.00439829 -0.201984 -0.233879 0.0070172 -0.202214 -0.226931 0.00709174 -0.201169 
-0.230755 0.0100793 -0.202555 -0.233869 0.0167832 -0.202361 -0.270886 0.0574324 -0.203931 
-0.242842 -0.0473361 -0.198764 -0.241308 -0.0422913 -0.200294 -0.241502 -0.0374665 -0.200915 
-0.231848 -0.0270356 -0.200763 -0.233795 -0.00837674 -0.198128 -0.219984 -0.00530688 -0.197632 
-0.224417 0.00414961 -0.199427 -0.221627 0.00783114 -0.199274 -0.21911 0.00998593 -0.196988 
-0.224955 0.0149532 -0.198875 -0.222027 -0.0235182 -0.197401 -0.213581 -0.0194619 -0.194678 
-0.216941 -0.0154362 -0.196533 -0.214264 -0.0143345 -0.195498 -0.219434 -0.010804 -0.196575 
-0.210933 -0.0120946 -0.194313 -0.210009 -0.00839569 -0.194106 -0.213451 -0.0053689 -0.196003 
-0.210696 -0.00467164 -0.194835 -0.213297 -0.000962683 -0.194821 -0.214343 0.00423519 -0.196295 
-0.210979 0.00367293 -0.194864 -0.215055 0.00960938 -0.196384 -0.212093 0.0106146 -0.193871 
-0.216887 0.0135993 -0.196685 -0.217694 0.0243972 -0.195551 -0.211072 -0.0165233 -0.192834 
[...]
POINT_DATA 812
FIELD FieldData 7
id 1 812 int
883 889 886 893 884 890 894 892 80 
65 108 24 97 50 75 18 190 67 
162 62 101 102 86 76 111 103 53 
98 48 164 95 92 112 168 130 34 
174 81 110 137 122 141 196 26 193 
140 352 121 163 186 68 177 219 114 
178 150 82 324 148 104 151 179 79 
188 202 118 138 171 132 189 129 265 
123 180 294 183 198 107 159 119 187 
134 70 49 158 106 210 225 154 204 
213 157 142 195 127 160 83 136 116 
144 156 72 166 278 251 305 105 115 
169 229 277 184 170 199 234 244 241 
221 228 307 109 250 215 208 99 200 
185 201 205 270 64 289 223 272 135 
167 124 143 252 212 146 181 211 161 
182 209 254 175 96 317 191 152 149 
284 280 296 290 165 418 297 172 438 
293 233 236 295 224 288 197 329 298 
155 256 276 337 316 222 259 261 275 
206 128 264 321 368 253 299 9 255 
263 220 322 245 249 287 242 230 348 
217 306 332 308 353 446 399 363 273 
354 226 377 422 281 267 218 262 314 
395 260 214 304 303 447 339 292 266 
232 192 310 343 390 282 386 327 283 
405 381 194 347 320 90 269 366 274 
423 243 227 330 238 333 235 315 349 
409 331 388 248 300 311 367 271 203 
258 382 433 285 318 370 362 246 286 
340 240 231 407 279 429 439 372 216 
313 247 237 387 427 351 291 323 302 
378 257 470 239 344 335 371 450 411 
336 401 309 384 430 341 456 389 414 
455 350 358 396 476 421 338 441 424 
268 444 374 492 355 462 403 398 326 
490 417 440 466 397 416 365 328 408 
325 428 404 356 448 473 425 406 522 
471 346 483 453 301 479 454 345 400 
420 497 459 394 361 373 434 511 488 
375 360 504 334 319 445 484 496 489 
385 478 474 359 475 463 437 519 468 
451 392 380 469 481 452 531 415 493 
376 494 442 509 364 538 508 458 499 
393 357 431 342 500 312 391 554 477 
546 530 486 487 413 548 485 383 419 
412 435 559 503 507 521 624 482 491 
379 460 498 558 501 369 547 600 536 
465 495 542 556 505 541 449 537 573 
555 523 410 562 552 464 502 512 545 
516 532 517 402 527 529 550 588 510 
561 579 525 535 520 524 515 595 528 
514 582 572 598 467 571 534 544 608 
564 597 526 506 563 589 443 585 533 
557 612 576 426 457 461 543 640 539 
570 615 577 586 610 590 601 626 549 
574 620 540 578 616 566 659 480 584 
652 436 551 581 638 599 636 603 621 
611 594 605 617 602 592 619 604 518 
583 631 553 607 668 664 565 568 614 
653 623 569 596 685 628 606 672 633 
639 580 649 647 635 632 591 593 613 
575 678 669 662 683 567 645 702 650 
646 715 637 658 627 657 560 634 665 
654 676 677 625 513 675 670 718 656 
721 641 673 710 734 687 689 622 691 
674 643 708 694 705 727 716 681 642 
655 688 663 630 717 660 742 696 644 
661 629 725 666 686 730 701 648 740 
726 587 695 697 684 692 651 667 618 
739 680 722 704 738 690 720 432 731 
706 699 707 737 724 733 693 745 741 
609 671 700 736 732 682 735 748 709 
714 711 472 679 698 712 713 750 746 
703 728 729 723 749 751 752 719 743 
755 753 754 744 747 767 763 765 758 
761 757 766 759 768 756 764 762 760 
778 780 779 781 775 769 776 773 771 
777 772 774 770 793 788 790 786 784 
787 783 791 789 792 794 782 785 804 
805 800 795 797 799 796 803 801 806 
802 798 807 816 817 808 815 814 810 
812 818 819 811 809 813 826 829 830 
820 823 831 824 825 828 842 837 827 
822 821 836 844 841 833 840 839 843 
834 850 835 832 838 845 851 848 855 
847 852 854 856 849 846 857 853 858 
869 861 859 865 868 862 866 867 863 
864 860 879 878 873 870 875 880 881 
882 871 874 877 876 872 895 885 887 
888 891 
type 1 812 int
1 1 1 1 1 1 1 1 1 
1 1 1 1 1 1 1 1 1 
1 1 1 1 1 1 1 1 1 
1 1 1 1 1 1 1 1 1 
1 1 1 1 1 1 1 1 1 
1 1 1 1 1 1 1 1 1 
1 1 1 1 1 1 1 1 1 
1 1 1 1 1 1 1 1 1 
1 1 1 1 1 1 1 1 1 
1 1 1 1 1 1 1 1 1 
1 1 1 1 1 1 1 1 1 
1 1 1 1 1 1 1 1 1 
1 1 1 1 1 1 1 1 1 
1 1 1 1 1 1 1 1 1 
1 1 1 1 1 1 1 1 1 
1 1 1 1 1 1 1 1 1 
1 1 1 1 1 1 1 1 1 
1 1 1 1 1 1 1 1 1 
1 1 1 1 1 1 1 1 1 
1 1 1 1 1 1 1 1 1 
1 1 1 1 1 1 1 1 1 
1 1 1 1 1 1 1 1 1 
1 1 1 1 1 1 1 1 1 
1 1 1 1 1 1 1 1 1 
1 1 1 1 1 1 1 1 1 
1 1 1 1 1 1 1 1 1 
1 1 1 1 1 1 1 1 1 
1 1 1 1 1 1 1 1 1 
1 1 1 1 1 1 1 1 1 
1 1 1 1 1 1 1 1 1 
1 1 1 1 1 1 1 1 1 
1 1 1 1 1 1 1 1 1 
1 1 1 1 1 1 1 1 1 
1 1 1 1 1 1 1 1 1 
1 1 1 1 1 1 1 1 1 
1 1 1 1 1 1 1 1 1 
1 1 1 1 1 1 1 1 1 
1 1 1 1 1 1 1 1 1 
1 1 1 1 1 1 1 1 1 
1 1 1 1 1 1 1 1 1 
1 1 1 1 1 1 1 1 1 
1 1 1 1 1 1 1 1 1 
1 1 1 1 1 1 1 1 1 
1 1 1 1 1 1 1 1 1 
1 1 1 1 1 1 1 1 1 
1 1 1 1 1 1 1 1 1 
1 1 1 1 1 1 1 1 1 
1 1 1 1 1 1 1 1 1 
1 1 1 1 1 1 1 1 1 
1 1 1 1 1 1 1 1 1 
1 1 1 1 1 1 1 1 1 
1 1 1 1 1 1 1 1 1 
1 1 1 1 1 1 1 1 1 
1 1 1 1 1 1 1 1 1 
1 1 1 1 1 1 1 1 1 
1 1 1 1 1 1 1 1 1 
1 1 1 1 1 1 1 1 1 
1 1 1 1 1 1 1 1 1 
1 1 1 1 1 1 1 1 1 
1 1 1 1 1 1 1 1 1 
1 1 1 1 1 1 1 1 1 
1 1 1 1 1 1 1 1 1 
1 1 1 1 1 1 1 1 1 
1 1 1 1 1 1 1 1 1 
1 1 1 1 1 1 1 1 1 
1 1 1 1 1 1 1 1 1 
1 1 1 1 1 1 1 1 1 
1 1 1 1 1 1 1 1 1 
1 1 1 1 1 1 1 1 1 
1 1 1 1 1 1 1 1 1 
1 1 1 1 1 1 1 1 1 
1 1 1 1 1 1 1 1 1 
1 1 1 1 1 1 1 1 1 
1 1 1 1 1 1 1 1 1 
1 1 1 1 1 1 1 1 1 
1 1 1 1 1 1 1 1 1 
1 1 1 1 1 1 1 1 1 
1 1 1 1 1 1 1 1 1 
1 1 1 1 1 1 1 1 1 
1 1 1 1 1 1 1 1 1 
1 1 1 1 1 1 1 1 1 
1 1 1 1 1 1 1 1 1 
1 1 1 1 1 1 1 1 1 
1 1 1 1 1 1 1 1 1 
1 1 1 1 1 1 1 1 1 
1 1 1 1 1 1 1 1 1 
1 1 1 1 1 1 1 1 1 
1 1 1 1 1 1 1 1 1 
1 1 1 1 1 1 1 1 1 
1 1 1 1 1 1 1 1 1 
1 1 
i 3 812 int
0 0 0 0 0 0 0 0 0 
0 0 0 0 0 0 0 0 0 
0 0 0 0 0 0 0 0 0 
0 0 0 0 0 0 0 0 0 
0 0 0 0 0 0 0 0 0 
0 0 0 0 0 0 0 0 0 
0 0 0 0 0 0 0 0 0 
0 0 0 0 0 0 0 0 0 
0 0 0 0 0 0 0 0 0 
0 0 0 0 0 0 0 0 0 
0 0 0 0 0 0 0 0 0 
0 0 0 0 0 0 0 0 0 
0 0 0 0 0 0 0 0 0 
0 0 0 0 0 0 0 0 0 
0 0 0 0 0 0 0 0 0 
0 0 0 0 0 0 0 0 0 
0 0 0 0 0 0 0 0 0 
0 0 0 0 0 0 0 0 0 
0 0 0 0 0 0 0 0 0 
0 0 0 0 0 0 0 0 0 
0 0 0 0 0 0 0 0 0 
0 0 0 0 0 0 0 0 0 
0 0 0 0 0 0 0 0 0 
0 0 0 0 0 0 0 0 0 
0 0 0 0 0 0 0 0 0 
0 0 0 0 0 0 0 0 0 
0 0 0 0 0 0 0 0 0 
0 0 0 0 0 0 0 0 0 
0 0 0 0 0 0 0 0 0 
0 0 0 0 0 0 0 0 0 
0 0 0 0 0 0 0 0 0 
0 0 0 0 0 0 0 0 0 
0 0 0 0 0 0 0 0 0 
0 0 0 0 0 0 0 0 0 
0 0 0 0 0 0 0 0 0 
0 0 0 0 0 0 0 0 0 
0 0 0 0 0 0 0 0 0 
0 0 0 0 0 0 0 0 0 
0 0 0 0 0 0 0 0 0 
0 0 0 0 0 0 0 0 0 
0 0 0 0 0 0 0 0 0 
0 0 0 0 0 0 0 0 0 
0 0 0 0 0 0 0 0 0 
0 0 0 0 0 0 0 0 0 
0 0 0 0 0 0 0 0 0 
0 0 0 0 0 0 0 0 0 
0 0 0 0 0 0 0 0 0 
0 0 0 0 0 0 0 0 0 
0 0 0 0 0 0 0 0 0 
0 0 0 0 0 0 0 0 0 
0 0 0 0 0 0 0 0 0 
0 0 0 0 0 0 0 0 0 
0 0 0 0 0 0 0 0 0 
0 0 0 0 0 0 0 0 0 
0 0 0 0 0 0 0 0 0 
0 0 0 0 0 0 0 0 0 
0 0 0 0 0 0 0 0 0 
0 0 0 0 0 0 0 0 0 
0 0 0 0 0 0 0 0 0 
0 0 0 0 0 0 0 0 0 
0 0 0 0 0 0 0 0 0 
0 0 0 0 0 0 0 0 0 
0 0 0 0 0 0 0 0 0 
0 0 0 0 0 0 0 0 0 
0 0 0 0 0 0 0 0 0 
0 0 0 0 0 0 0 0 0 
0 0 0 0 0 0 0 0 0 
0 0 0 0 0 0 0 0 0 
0 0 0 0 0 0 0 0 0 
0 0 0 0 0 0 0 0 0 
0 0 0 0 0 0 0 0 0 
0 0 0 0 0 0 0 0 0 
0 0 0 0 0 0 0 0 0 
0 0 0 0 0 0 0 0 0 
0 0 0 0 0 0 0 0 0 
0 0 0 0 0 0 0 0 0 
0 0 0 0 0 0 0 0 0 
0 0 0 0 0 0 0 0 0 
0 0 0 0 0 0 0 0 0 
0 0 0 0 0 0 0 0 0 
0 0 0 0 0 0 0 0 0 
0 0 0 0 0 0 0 0 0 
0 0 0 0 0 0 0 0 0 
0 0 0 0 0 0 0 0 0 
0 0 0 0 0 0 0 0 0 
0 0 0 0 0 0 0 0 0 
0 0 0 0 0 0 0 0 0 
0 0 0 0 0 0 0 0 0 
0 0 0 0 0 0 0 0 0 
0 0 0 0 0 0 0 0 0 
0 0 0 0 0 0 0 0 0 
0 0 0 0 0 0 0 0 0 
0 0 0 0 0 0 0 0 0 
0 0 0 0 0 0 0 0 0 
0 0 0 0 0 0 0 0 0 
0 0 0 0 0 0 0 0 0 
0 0 0 0 0 0 0 0 0 
0 0 0 0 0 0 0 0 0 
0 0 0 0 0 0 0 0 0 
0 0 0 0 0 0 0 0 0 
0 0 0 0 0 0 0 0 0 
0 0 0 0 0 0 0 0 0 
0 0 0 0 0 0 0 0 0 
0 0 0 0 0 0 0 0 0 
0 0 0 0 0 0 0 0 0 
0 0 0 0 0 0 0 0 0 
0 0 0 0 0 0 0 0 0 
0 0 0 0 0 0 0 0 0 
0 0 0 0 0 0 0 0 0 
0 0 0 0 0 0 0 0 0 
0 0 0 0 0 0 0 0 0 
0 0 0 0 0 0 0 0 0 
0 0 0 0 0 0 0 0 0 
0 0 0 0 0 0 0 0 0 
0 0 0 0 0 0 0 0 0 
0 0 0 0 0 0 0 0 0 
0 0 0 0 0 0 0 0 0 
0 0 0 0 0 0 0 0 0 
0 0 0 0 0 0 0 0 0 
0 0 0 0 0 0 0 0 0 
0 0 0 0 0 0 0 0 0 
0 0 0 0 0 0 0 0 0 
0 0 0 0 0 0 0 0 0 
0 0 0 0 0 0 0 0 0 
0 0 0 0 0 0 0 0 0 
0 0 0 0 0 0 0 0 0 
0 0 0 0 0 0 0 0 0 
0 0 0 0 0 0 0 0 0 
0 0 0 0 0 0 0 0 0 
0 0 0 0 0 0 0 0 0 
0 0 0 0 0 0 0 0 0 
0 0 0 0 0 0 0 0 0 
0 0 0 0 0 0 0 0 0 
0 0 0 0 0 0 0 0 0 
0 0 0 0 0 0 0 0 0 
0 0 0 0 0 0 0 0 0 
0 0 0 0 0 0 0 0 0 
0 0 0 0 0 0 0 0 0 
0 0 0 0 0 0 0 0 0 
0 0 0 0 0 0 0 0 0 
0 0 0 0 0 0 0 0 0 
0 0 0 0 0 0 0 0 0 
0 0 0 0 0 0 0 0 0 
0 0 0 0 0 0 0 0 0 
0 0 0 0 0 0 0 0 0 
0 0 0 0 0 0 0 0 0 
0 0 0 0 0 0 0 0 0 
0 0 0 0 0 0 0 0 0 
0 0 0 0 0 0 0 0 0 
0 0 0 0 0 0 0 0 0 
0 0 0 0 0 0 0 0 0 
0 0 0 0 0 0 0 0 0 
0 0 0 0 0 0 0 0 0 
0 0 0 0 0 0 0 0 0 
0 0 0 0 0 0 0 0 0 
0 0 0 0 0 0 0 0 0 
0 0 0 0 0 0 0 0 0 
0 0 0 0 0 0 0 0 0 
0 0 0 0 0 0 0 0 0 
0 0 0 0 0 0 0 0 0 
0 0 0 0 0 0 0 0 0 
0 0 0 0 0 0 0 0 0 
0 0 0 0 0 0 0 0 0 
0 0 0 0 0 0 0 0 0 
0 0 0 0 0 0 0 0 0 
0 0 0 0 0 0 0 0 0 
0 0 0 0 0 0 0 0 0 
0 0 0 0 0 0 0 0 0 
0 0 0 0 0 0 0 0 0 
0 0 0 0 0 0 0 0 0 
0 0 0 0 0 0 0 0 0 
0 0 0 0 0 0 0 0 0 
0 0 0 0 0 0 0 0 0 
0 0 0 0 0 0 0 0 0 
0 0 0 0 0 0 0 0 0 
0 0 0 0 0 0 0 0 0 
0 0 0 0 0 0 0 0 0 
0 0 0 0 0 0 0 0 0 
0 0 0 0 0 0 0 0 0 
0 0 0 0 0 0 0 0 0 
0 0 0 0 0 0 0 0 0 
0 0 0 0 0 0 0 0 0 
0 0 0 0 0 0 0 0 0 
0 0 0 0 0 0 0 0 0 
0 0 0 0 0 0 0 0 0 
0 0 0 0 0 0 0 0 0 
0 0 0 0 0 0 0 0 0 
0 0 0 0 0 0 0 0 0 
0 0 0 0 0 0 0 0 0 
0 0 0 0 0 0 0 0 0 
0 0 0 0 0 0 0 0 0 
0 0 0 0 0 0 0 0 0 
0 0 0 0 0 0 0 0 0 
0 0 0 0 0 0 0 0 0 
0 0 0 0 0 0 0 0 0 
0 0 0 0 0 0 0 0 0 
0 0 0 0 0 0 0 0 0 
0 0 0 0 0 0 0 0 0 
0 0 0 0 0 0 0 0 0 
0 0 0 0 0 0 0 0 0 
0 0 0 0 0 0 0 0 0 
0 0 0 0 0 0 0 0 0 
0 0 0 0 0 0 0 0 0 
0 0 0 0 0 0 0 0 0 
0 0 0 0 0 0 0 0 0 
0 0 0 0 0 0 0 0 0 
0 0 0 0 0 0 0 0 0 
0 0 0 0 0 0 0 0 0 
0 0 0 0 0 0 0 0 0 
0 0 0 0 0 0 0 0 0 
0 0 0 0 0 0 0 0 0 
0 0 0 0 0 0 0 0 0 
0 0 0 0 0 0 0 0 0 
0 0 0 0 0 0 0 0 0 
0 0 0 0 0 0 0 0 0 
0 0 0 0 0 0 0 0 0 
0 0 0 0 0 0 0 0 0 
0 0 0 0 0 0 0 0 0 
0 0 0 0 0 0 0 0 0 
0 0 0 0 0 0 0 0 0 
0 0 0 0 0 0 0 0 0 
0 0 0 0 0 0 0 0 0 
0 0 0 0 0 0 0 0 0 
0 0 0 0 0 0 0 0 0 
0 0 0 0 0 0 0 0 0 
0 0 0 0 0 0 0 0 0 
0 0 0 0 0 0 0 0 0 
0 0 0 0 0 0 0 0 0 
0 0 0 0 0 0 0 0 0 
0 0 0 0 0 0 0 0 0 
0 0 0 0 0 0 0 0 0 
0 0 0 0 0 0 0 0 0 
0 0 0 0 0 0 0 0 0 
0 0 0 0 0 0 0 0 0 
0 0 0 0 0 0 0 0 0 
0 0 0 0 0 0 0 0 0 
0 0 0 0 0 0 0 0 0 
0 0 0 0 0 0 0 0 0 
0 0 0 0 0 0 0 0 0 
0 0 0 0 0 0 0 0 0 
0 0 0 0 0 0 0 0 0 
0 0 0 0 0 0 0 0 0 
0 0 0 0 0 0 0 0 0 
0 0 0 0 0 0 0 0 0 
0 0 0 0 0 0 0 0 0 
0 0 0 0 0 0 0 0 0 
0 0 0 0 0 0 0 0 0 
0 0 0 0 0 0 0 0 0 
0 0 0 0 0 0 0 0 0 
0 0 0 0 0 0 0 0 0 
0 0 0 0 0 0 0 0 0 
0 0 0 0 0 0 0 0 0 
0 0 0 0 0 0 0 0 0 
0 0 0 0 0 0 0 0 0 
0 0 0 0 0 0 0 0 0 
0 0 0 0 0 0 0 0 0 
0 0 0 0 0 0 0 0 0 
0 0 0 0 0 0 0 0 0 
0 0 0 0 0 0 0 0 0 
0 0 0 0 0 0 0 0 0 
0 0 0 0 0 0 0 0 0 
0 0 0 0 0 0 0 0 0 
0 0 0 0 0 0 0 0 0 
0 0 0 0 0 0 0 0 0 
0 0 0 0 0 0 0 0 0 
0 0 0 0 0 0 0 0 0 
0 0 0 0 0 0 0 0 0 
0 0 0 0 0 0 0 0 0 
0 0 0 0 0 0 0 0 0 
0 0 0 0 0 0 0 0 0 
0 0 0 0 0 0 
v 3 812 double
0 0 -1.00937 0 0 -1.00309 0 0 -1 
0 0 -1 0 0 -1 0 0 -1.03968 
0 0 -1.03988 0 0 -1.0131 -1.10415 0.0529525 -1.80731 
-1.09724 0.0189179 -1.74661 -1.23057 -0.0457108 -1.81316 -1.16044 0.0863519 -1.77704 
-1.12507 0.126267 -1.81074 -1.17175 -0.0150631 -1.69151 -1.13591 -0.0301187 -1.91874 
-1.0907 -0.0150395 -1.80597 -1.20407 -0.0313051 -1.74303 -1.0982 0.0331919 -1.7413 
-1.10072 0.0408203 -1.74081 -1.00542 0.152193 -1.71592 -1.11456 0.174963 -1.72533 
-1.11593 -0.0490146 -1.71659 -1.07032 0.0212318 -1.74265 -1.02291 0.06165 -1.70155 
-1.13646 -0.0386955 -1.69704 -1.15359 0.0736842 -1.6583 -1.03658 0.023447 -1.68277 
-1.00833 0.123384 -1.64687 -1.13289 -0.046527 -1.65326 -1.06593 -0.00967344 -1.65136 
-1.13553 0.086544 -1.63706 -0.987541 0.0691962 -1.63275 -1.10516 0.0584267 -1.62399 
-1.16879 0.0348261 -1.65797 -1.11349 0.0452111 -1.61109 -1.0136 0.0414833 -1.56169 
-1.07261 0.138848 -1.5348 -1.29489 -0.263443 -1.61879 -0.969303 0.0176072 -1.51155 
-1.07999 0.0605004 -1.53146 -1.17675 -0.15996 -1.52352 -1.24198 0.142669 -1.54403 
-1.00493 -0.0311408 -1.48694 -1.09378 0.0507524 -1.46709 -1.15975 -0.153784 -1.49096 
-1.19959 0.153059 -1.49821 -1.32811 0.0484367 -1.5953 -1.10591 -0.132975 -1.42976 
-1.02681 0.0189348 -1.38564 -1.05533 0.007542 -1.3762 -1.10271 -0.0877169 -1.32968 
-1.00914 0.0655862 -1.36507 -1.17393 -0.0607533 -1.43247 -1.0947 -0.0154384 -1.31493 
-1.06282 0.127956 -1.31624 -1.11336 0.0338284 -1.27854 -0.79908 0.192353 -1.42232 
-1.38782 0.160646 -1.64934 -1.31357 0.000381016 -1.37725 -1.06358 0.0776617 -1.24314 
-1.1941 -0.0777868 -1.29886 -1.06987 0.0163512 -1.25527 -1.0787 0.0773545 -1.25072 
-1.07229 0.202187 -1.13477 -0.946199 0.0777158 -1.26161 -1.01284 -0.0123211 -1.25814 
-0.985408 0.0234253 -1.25892 -1.02097 0.174059 -1.2276 -1.08505 0.0172826 -1.19309 
-1.132 0.118265 -1.17345 -1.0319 -0.00334289 -1.21659 -1.08578 -0.0401915 -1.17649 
-1.17652 0.0340392 -1.15917 -1.00344 0.0310623 -1.18294 -1.09481 -0.087535 -1.22801 
-1.1543 0.0308153 -1.16799 -1.11153 -0.0813879 -1.13664 -0.977451 0.0123217 -1.14427 
-1.05663 0.0271079 -0.982665 -1.14175 -0.0597273 -1.15067 -0.86721 0.108018 -1.09911 
-1.20975 0.099159 -1.1032 -1.08607 0.0934356 -1.04218 -0.926415 -0.0261929 -1.07802 
-1.14753 -0.0645282 -1.11805 -1.02132 0.00715958 -1.14914 -1.30201 -0.127471 -1.09766 
-1.14716 0.239158 -1.13307 -0.984574 -0.0756637 -1.07269 -0.906767 -0.0245925 -1.08318 
-0.975709 0.0836101 -1.08834 -1.22921 0.113399 -1.06833 -1.04824 -0.128336 -1.06077 
-0.97989 -0.14697 -0.974644 -0.971564 -0.0522209 -1.03884 -0.964999 0.0272735 -1.00589 
-0.943879 0.0327751 -1.01998 -1.13301 0.0485565 -0.987377 -1.08291 0.0449325 -0.956621 
-0.959124 -0.0856707 -0.997128 -0.980062 -0.0645597 -0.970628 -1.2045 -0.276607 -1.08421 
-0.958266 -0.116579 -0.930008 -0.972702 -0.107829 -0.939719 -1.175 -0.275441 -1.19466 
-1.20634 0.31037 -1.19262 -0.943774 -0.164468 -0.909478 -0.9673 -0.0437704 -0.923818 
-1.04128 -0.0541165 -0.906724 -1.14597 0.0596474 -0.87885 -1.09055 -0.128932 -0.909535 
-0.955656 0.0455368 -0.897304 -1.05038 -0.0149612 -0.874327 -1.1201 0.0296316 -0.887617 
-1.26197 -0.0842652 -1.00711 -1.0244 0.0231564 -0.836469 -0.860906 -0.0297012 -0.786815 
-1.08463 0.00442407 -0.854655 -1.12839 0.00292622 -0.831321 -1.34373 0.117182 -0.95493 
-0.976797 0.096977 -0.75206 -0.921426 -0.0320941 -0.665236 -0.735834 0.0629673 -0.861522 
-1.02561 -0.0406528 -0.787897 -0.986592 0.00842437 -0.782777 -1.1256 -0.169277 -0.862212 
-1.15873 0.308163 -0.832636 -1.14229 0.257386 -0.890383 -1.00477 0.123937 -0.777979 
-0.930709 0.00640582 -0.634223 -0.987107 -0.0621105 -0.660201 -1.19926 -0.149876 -0.748852 
-1.23335 0.0213085 -0.706149 -1.02834 0.0389882 -0.631938 -0.891318 0.0197102 -0.669453 
-0.861713 -0.00419694 -0.581482 -0.934905 0.00906679 -0.616131 -0.978261 0.0146498 -0.663334 
-1.02063 0.0942051 -0.752384 -1.0718 -0.00770656 -0.695928 -1.05551 -0.0722161 -0.598064 
-1.03141 -0.0509235 -0.595523 -0.906213 0.00837261 -0.656395 -1.17737 0.0101711 -0.611892 
-1.05374 0.110594 -0.59539 -0.907631 0.0914391 -0.526227 -1.03201 0.000608777 -0.607136 
-1.00968 0.0505519 -0.553507 -1.07613 0.0656212 -0.595665 -1.08006 -0.0290875 -0.645479 
-1.1357 0.0258527 -0.658058 -1.03103 0.0609834 -0.514164 -1.01209 0.11951 -0.456134 
-1.12125 0.0657566 -0.536738 -1.15653 0.00508291 -0.547549 -1.08758 -0.0598513 -0.536418 
-1.17869 -0.0510789 -0.675452 -1.23285 0.189699 -0.621069 -1.12921 -0.0492224 -0.571076 
-1.02322 0.0727472 -0.486475 -1.05187 0.0244488 -0.455249 -1.07359 -0.122473 -0.363523 
-1.09633 -0.10459 -0.411894 -1.08503 -0.0321398 -0.444221 -1.10521 0.0274897 -0.467704 
-1.14267 0.0178629 -0.483025 -0.935246 -0.427852 -0.335802 -1.15422 0.411165 -0.539358 
-0.98932 -0.000688564 -0.389066 -0.981271 0.0694186 -0.423294 -1.09752 0.0664032 -0.449276 
-1.02197 -0.336758 -0.513082 -0.97654 -0.150366 -0.443637 -0.948933 -0.0310783 -0.468759 
-0.996839 -0.0482289 -0.387781 -0.840025 -0.0290385 -0.350254 -1.14465 0.0766868 -0.485575 
-1.38242 0.129267 -0.253567 -0.966948 -0.0996804 -0.413857 -0.786965 -0.12648 -0.333221 
-0.954958 -0.0506447 -0.397235 -1.05515 -0.0512019 -0.443176 -0.94751 -0.00766258 -0.396423 
-0.97461 -0.131069 -0.431211 -1.17469 -0.0728993 -0.504522 -1.08229 -0.128234 -0.486097 
-0.978966 -0.0916125 -0.401337 -1.01326 0.263064 -0.454972 -1.04304 0.140688 -0.444665 
-1.0691 0.30114 -0.461103 -0.940077 -0.0568047 -0.358827 -0.823656 0.0432929 -0.334079 
-0.79034 -0.0130769 -0.321319 -0.863219 0.047493 -0.374153 -0.959729 -0.0234847 -0.406917 
-0.894483 -0.131085 -0.386162 -1.04399 -0.217182 -0.45966 -1.01771 -0.0202191 -0.427265 
-1.19117 -0.116277 -0.537241 -1.21221 -0.243089 -0.558563 -1.01681 0.0355677 -0.389107 
-1.09406 0.267357 -0.516899 -0.974798 0.110813 -0.422304 -1.19304 0.00267181 -0.72092 
-1.1696 0.0999216 -0.834972 -0.958993 -0.0307953 -0.407998 -0.878645 0.0314802 -0.36092 
-0.855193 -0.00146345 -0.353107 -0.967109 0.0188208 -0.408395 -1.18429 0.297725 -0.6561 
-1.0632 0.0497707 -0.450335 -0.833424 -0.0107224 -0.347344 -0.952803 -0.0359513 -0.402617 
-1.00156 -0.0570396 -0.418974 -0.8029 0.0188643 -0.304167 -0.895144 0.0101532 -0.381409 
-1.06689 -0.168915 -0.469164 -0.9573 0.18868 -0.421487 -0.959746 0.225723 -0.4112 
-0.926192 -0.155355 -0.379573 -0.846099 -0.100738 -0.351235 -1.22563 0.127027 -0.602309 
-0.814451 -0.00522764 -0.34652 -0.812729 -0.0738695 -0.374884 -0.88986 -0.0709935 -0.390013 
-0.980011 0.0435705 -0.407332 -1.01303 0.00984077 -0.426448 -1.02369 -0.0602375 -0.44043 
-0.706321 -0.0522691 -0.297171 -0.938853 -0.138592 -0.428894 -1.07152 -0.0318801 -0.44397 
-1.23715 -0.182498 -0.557408 -1.1073 0.260888 -0.589501 -0.983262 -0.0292742 -0.404581 
-0.716413 0.0839974 -0.318178 -0.884519 -0.104433 -0.339742 -0.938936 -0.0417922 -0.414109 
-0.975562 -0.0336247 -0.392083 -0.943204 -0.144487 -0.413747 -1.05398 -0.217278 -0.478392 
-0.997083 -0.0902441 -0.499225 -1.13658 0.282796 -0.687142 -0.819996 -0.00307922 -0.344148 
-0.923068 -0.0259615 -0.333751 -0.886795 0.0354438 -0.353921 -0.847628 -0.00918771 -0.360857 
-0.814466 -0.0952928 -0.414736 -0.697171 -0.031267 -0.291072 -0.804536 0.108515 -0.327972 
-0.840468 -0.0882092 -0.362578 -0.796966 -0.101174 -0.381694 -0.773324 -0.0422064 -0.325316 
-0.780958 0.0451905 -0.332206 -0.823195 -0.0367902 -0.345977 -0.855806 -0.0910962 -0.361791 
-0.869262 0.040921 -0.361858 -0.83771 -0.0872688 -0.367203 -0.749629 -0.0918694 -0.330685 
-1.05599 -0.162087 -0.505258 -0.824291 0.0139141 -0.401373 -0.582054 0.190556 -0.296974 
-0.733727 -0.0424341 -0.328018 -0.906966 0.0253561 -0.316488 -0.722915 -0.0476612 -0.266125 
-0.721769 -0.0099686 -0.307684 -0.695 0.04329 -0.291645 -0.675383 0.0742488 -0.287303 
-0.766868 0.0231239 -0.316141 -0.859027 0.070461 -0.356008 -0.85952 0.0312978 -0.357159 
-0.865686 -0.0433599 -0.3743 -0.883749 0.0122052 -0.399272 -0.87434 0.0794431 -0.361315 
-0.926704 -0.129515 -0.364084 -0.835013 -0.197322 -0.373225 -1.19842 0.36181 -0.75336 
-0.993659 -0.0777486 -0.409748 -0.981784 -0.0189047 -0.396848 -0.921509 0.137027 -0.406881 
-0.865832 -0.04216 -0.26707 -0.797389 -0.0832125 -0.161284 -0.678883 -0.0624245 -0.282106 
-0.784989 0.0555225 -0.392108 -0.727698 0.0231013 -0.31122 -0.66362 0.084139 -0.281748 
-0.696088 0.121562 -0.318993 -0.801121 0.0818824 -0.322841 -0.792903 0.196857 -0.35606 
-0.739223 0.0475284 -0.345292 -0.945364 0.0109606 -0.40172 -1.18404 -0.0542523 -0.49171 
-0.985169 0.0502491 -0.386007 -0.940933 0.0869104 -0.427573 -0.947733 0.102011 -0.435989 
-1.02262 -0.0495876 -0.408056 -1.29086 0.0387144 -0.031632 -0.903293 -0.0026606 -0.374053 
-0.865113 0.0244651 -0.360421 -0.805524 0.0250801 -0.334597 -0.820975 0.045376 -0.345046 
-0.935509 0.039311 -0.391471 -1.14371 0.124556 -0.505089 -0.850295 0.0142968 -0.365741 
-0.885229 0.0392788 -0.370879 -0.867013 0.0312489 -0.378497 -0.849092 0.086692 -0.153444 
-0.679901 -0.207855 -0.270257 -0.817799 -0.0411462 -0.364792 -0.853786 -0.0484161 -0.346843 
-0.845808 -0.0388077 -0.363213 -0.805336 -0.0458695 -0.345606 -0.732857 -0.0514603 -0.314843 
-0.982753 -0.0326303 -0.408922 -0.831188 -0.0490142 -0.35678 -0.853707 0.0343377 -0.341411 
-0.969466 0.024075 -0.414969 -0.881655 0.136597 -0.341535 -0.863177 0.0462782 -0.445471 
-1.22278 -0.0302433 -0.759768 -0.843618 -0.0588337 -0.342825 -0.893703 -0.0718833 -0.362188 
-0.756298 -0.0293248 -0.411497 -0.885757 0.0219265 -0.376027 -0.879801 -0.0193322 -0.376055 
-0.982461 -0.0257943 -0.39762 -0.801689 -0.0576651 -0.346719 -0.818328 -0.0694109 -0.322498 
-0.824244 -0.0437642 -0.347949 -1.11537 0.0465719 -0.557935 -0.861123 -0.0332972 -0.35985 
-0.921561 -0.0470354 -0.365567 -0.850005 -0.0326999 -0.349866 -0.880141 -0.0678366 -0.3468 