# vtk DataFile Version 4.0
Generated by LIGGGHTS
ASCII
DATASET POLYDATA
POINTS 639 float
-0.468138 -0.0111791 -0.355141 -0.4881 0.0455812 -0.352006 -0.449863 -0.00312317 -0.332633 
-0.41606 -0.0101946 -0.302564 -0.407569 0.00636844 -0.299036 -0.408669 -0.0121373 -0.295711 
-0.406968 -0.00830567 -0.296393 -0.407389 -0.0153844 -0.292874 -0.403218 -0.010617 -0.290506 
-0.3901 -0.00440214 -0.28255 -0.388844 0.00950528 -0.28141 -0.415382 0.0493572 -0.281333 
-0.380164 0.0152453 -0.274593 -0.376796 -0.0186154 -0.27132 -0.374407 0.00906773 -0.27034 
-0.367117 0.00460007 -0.267073 -0.369888 0.0121617 -0.267811 -0.369491 0.0173487 -0.265228 
-0.373412 0.0306243 -0.264285 -0.381826 -0.0550904 -0.256729 -0.369211 -0.0395871 -0.255931 
-0.352236 0.013379 -0.255538 -0.348568 -0.0119579 -0.254142 -0.356726 -0.0442127 -0.247966 
-0.336975 -0.00635887 -0.247114 -0.333618 -0.00188424 -0.247127 -0.341277 0.0110891 -0.250485 
-0.342756 -0.0301492 -0.245284 -0.33196 -0.00912192 -0.244525 -0.334254 0.00286879 -0.246385 
-0.330985 0.00779645 -0.245498 -0.325841 -0.007367 -0.24197 -0.32009 -0.0056505 -0.240795 
-0.320784 -0.0010427 -0.240288 -0.317259 0.00177099 -0.23981 -0.320325 -0.0221032 -0.237599 
-0.316328 -0.00369283 -0.239397 -0.320449 0.00440225 -0.239903 -0.306381 -0.00712579 -0.235078 
-0.308208 0.00074273 -0.236061 -0.307584 0.00570536 -0.235486 -0.302506 0.0059694 -0.233328 
-0.302607 -0.0254416 -0.230434 -0.297413 -0.012455 -0.230764 -0.299334 -0.00754954 -0.232092 
-0.301794 7.85346e-05 -0.232312 -0.298023 0.00799323 -0.230223 -0.307113 0.0308384 -0.230817 
-0.334642 0.0506287 -0.232668 -0.292903 -0.020049 -0.22773 -0.291773 -0.0130739 -0.228326 
-0.286792 -0.00213755 -0.226987 -0.29051 0.00555202 -0.228295 -0.288888 0.0100164 -0.226238 
-0.295732 0.0167316 -0.2283 -0.27937 -0.00685093 -0.223696 -0.27902 -0.00291028 -0.222598 
-0.275336 -0.00606867 -0.220943 -0.27016 0.00375259 -0.219854 -0.274641 0.00815633 -0.220422 
-0.277491 0.012195 -0.22137 -0.289791 0.0430868 -0.219152 -0.269427 0.00157312 -0.216381 
-0.259438 0.000898206 -0.215451 -0.264832 0.00924124 -0.217335 -0.270082 0.0109368 -0.218366 
-0.269225 0.016791 -0.218183 -0.264863 -0.0352729 -0.212202 -0.262943 -0.0298073 -0.213094 
-0.26005 -0.012122 -0.214024 -0.253688 -0.00923698 -0.21273 -0.251455 0.00991542 -0.211688 
-0.277821 0.039893 -0.214715 -0.252822 -0.0303697 -0.208674 -0.255048 -0.0271366 -0.209298 
-0.251267 -0.0239627 -0.208515 -0.250401 -0.0178394 -0.210196 -0.251863 -0.013479 -0.211498 
-0.25078 -0.0105563 -0.21141 -0.245296 -0.00784704 -0.208156 -0.244497 -0.00148297 -0.20812 
-0.248973 0.00720807 -0.209667 -0.244619 0.00877143 -0.208867 -0.248971 0.0155695 -0.209968 
-0.254233 0.0267041 -0.20912 -0.242162 -0.0263899 -0.205338 -0.244311 -0.016314 -0.207844 
-0.240192 -0.0146391 -0.206143 -0.24372 -0.0124379 -0.206884 -0.238926 -0.0100944 -0.206317 
-0.236556 -0.00847814 -0.20539 -0.240444 0.0033982 -0.207305 -0.23783 0.00432482 -0.205952 
-0.240151 0.0159562 -0.206211 -0.246803 0.0231939 -0.207933 -0.250831 0.0316147 -0.207499 
-0.244718 -0.0363637 -0.203603 -0.244344 -0.0330948 -0.2044 -0.233894 -0.0292001 -0.201161 
-0.235089 -0.0246908 -0.201178 -0.233413 -0.00792265 -0.202969 -0.22777 -0.00252959 -0.201978 
-0.225862 -0.000281139 -0.201097 -0.231102 0.00168712 -0.203424 -0.232767 0.00916431 -0.203895 
-0.231426 0.0118353 -0.203079 -0.235339 0.0198595 -0.203662 -0.230013 0.0197691 -0.201428 
-0.228607 -0.0247929 -0.198793 -0.241656 -0.0211977 -0.198482 -0.225324 -0.00487615 -0.199525 
-0.217503 0.00242349 -0.197668 -0.2854 0.0702228 -0.198524 -0.235366 -0.0425169 -0.197639 
-0.219204 -0.0241746 -0.195 -0.214265 -0.012497 -0.194606 -0.21197 -0.00900434 -0.195048 
-0.213407 0.00796511 -0.195848 -0.214037 -0.0350747 -0.191521 -0.206089 -0.0198632 -0.191438 
-0.210706 -0.0144695 -0.193779 -0.205568 -0.0156247 -0.191669 -0.206158 -0.00962248 -0.191458 
-0.20764 -0.00555061 -0.193539 -0.206014 -0.00184646 -0.192835 -0.208684 0.00698685 -0.192807 
-0.212284 0.0192353 -0.193027 -0.204292 0.0201818 -0.190678 -0.212406 0.0232966 -0.193566 
-0.20795 0.0229253 -0.191612 -0.223028 -0.0490499 -0.190233 -0.211631 -0.037075 -0.190036 
-0.21018 -0.0270998 -0.19064 -0.202753 -0.014185 -0.189171 -0.197118 -0.00919542 -0.188847 
-0.20292 -0.00564487 -0.190434 -0.194861 -0.00467402 -0.188044 -0.19859 -0.000665417 -0.188584 
-0.194684 -0.00121626 -0.18727 -0.200578 0.00786168 -0.190407 -0.197866 0.00720365 -0.189073 
-0.199553 0.0119522 -0.18956 -0.193739 0.0126844 -0.187039 -0.204388 0.0154723 -0.190108 
-0.200154 0.0193546 -0.187883 -0.202594 0.0228814 -0.189532 -0.19763 0.0226803 -0.187449 
-0.205258 0.0244875 -0.190297 -0.204189 0.0281612 -0.187951 -0.202686 -0.0191762 -0.187348 
-0.190488 -0.011056 -0.184782 -0.187043 -0.00755675 -0.183992 -0.191417 -0.00522571 -0.185541 
-0.190569 0.00517003 -0.186345 -0.189488 0.0132597 -0.18402 -0.201154 0.0146744 -0.186345 
-0.190069 0.0171545 -0.185038 -0.200208 0.0333573 -0.186282 -0.21746 0.0519721 -0.185501 
-0.189902 -0.0282818 -0.183128 -0.180638 -0.0171931 -0.181072 -0.179623 -0.0136049 -0.181078 
-0.183944 0.000357502 -0.183504 -0.183282 0.00904105 -0.182957 -0.182538 0.0137741 -0.181135 
-0.189384 0.0311995 -0.181148 -0.175745 -0.0231804 -0.178273 -0.174422 -0.0185047 -0.178388 
-0.17648 -0.0148805 -0.178571 -0.172364 -0.0110584 -0.178319 -0.176405 -0.0085916 -0.178985 
-0.170901 0.00275488 -0.176998 -0.175001 0.016302 -0.177737 -0.187359 0.0401734 -0.177817 
-0.170636 -0.0328727 -0.174134 -0.166679 -0.0223541 -0.173468 -0.164011 -0.0185141 -0.174049 
-0.166174 -0.0148786 -0.175379 -0.16658 -0.0114821 -0.175807 -0.173581 -0.0075455 -0.174805 
-0.163823 -0.00217153 -0.173969 -0.169779 0.00791134 -0.176248 -0.170702 0.0129311 -0.176218 
-0.160887 0.0114398 -0.173358 -0.165354 0.0160579 -0.17373 -0.16712 0.0312642 -0.172994 
-0.174951 0.0367036 -0.175002 -0.176605 0.0417791 -0.174036 -0.163699 -0.0112227 -0.172896 
-0.17083 -0.00463466 -0.173093 -0.160166 -0.00576671 -0.171363 -0.152443 -0.00400994 -0.170321 
-0.155631 -0.000135605 -0.170506 -0.153005 0.00278462 -0.169517 -0.15558 0.00982135 -0.171322 
-0.15265 0.00815934 -0.170241 -0.153302 0.011339 -0.170022 -0.159345 0.0149761 -0.172421 
-0.161691 0.0260955 -0.17172 -0.163294 0.0301828 -0.171606 -0.164585 -0.0456534 -0.168007 
-0.153606 -0.0196313 -0.16843 -0.162001 -0.0119269 -0.167325 -0.14591 -0.0135936 -0.166972 
-0.146747 -7.39385e-05 -0.166796 -0.142571 0.00165422 -0.166074 -0.148804 0.00609518 -0.167464 
-0.166571 0.0123355 -0.16639 -0.150609 0.0120855 -0.168821 -0.151905 0.0155231 -0.169169 
-0.153477 0.0208638 -0.168237 -0.164957 0.0490091 -0.166967 -0.168304 -0.0611296 -0.163016 
-0.150651 -0.0437717 -0.162996 -0.138307 -0.0201214 -0.163072 -0.164462 -0.0154571 -0.164673 
-0.13704 -0.0170218 -0.162895 -0.136036 -0.0117803 -0.16292 -0.134595 -0.00842998 -0.162605 
-0.141125 -0.00573432 -0.165466 -0.139482 -0.00585091 -0.162962 -0.139518 -0.0013198 -0.164907 
-0.134254 -0.00316216 -0.162546 -0.147665 0.00335603 -0.1626 -0.137255 0.00226025 -0.162786 
-0.154323 0.0054908 -0.164196 -0.144503 0.00773542 -0.16479 -0.140363 0.00775216 -0.164736 
-0.183228 0.0257618 -0.163741 -0.149763 0.0270253 -0.16558 -0.166189 0.0597744 -0.162933 
-0.150859 -0.0494441 -0.161028 -0.137174 -0.0240715 -0.162007 -0.131189 -0.00903198 -0.16004 
-0.13076 -0.00400031 -0.160036 -0.129947 0.0105128 -0.159954 -0.140792 0.0129213 -0.162006 
-0.131725 0.012962 -0.160985 -0.177935 -0.0764789 -0.157373 -0.157657 -0.0636524 -0.15773 
-0.138339 -0.0113506 -0.158383 -0.125755 -0.0106699 -0.158164 -0.118777 -0.00751382 -0.155815 
-0.117385 -0.00472516 -0.155476 -0.122912 -0.000677876 -0.156777 -0.11964 -0.00299321 -0.156447 
-0.123978 0.00541253 -0.158181 -0.122838 0.00813217 -0.157538 -0.118564 0.00781399 -0.155804 
-0.12373 0.0116704 -0.157676 -0.122772 0.0170583 -0.15587 -0.128893 0.0188333 -0.158066 
-0.125056 0.0204787 -0.157226 -0.121572 0.0220008 -0.155709 -0.120693 -0.0320379 -0.152516 
-0.114623 -0.0229188 -0.152691 -0.13942 -0.0155193 -0.154753 -0.113665 -0.0115288 -0.152434 
-0.12125 -0.00947056 -0.154529 -0.111692 -0.00789911 -0.152884 -0.120729 -0.00406631 -0.152158 
-0.114621 -0.00468602 -0.154141 -0.114668 3.60884e-05 -0.154361 -0.124515 0.00410489 -0.153197 
-0.118829 0.00352688 -0.154245 -0.110471 0.00670826 -0.152503 -0.120029 0.0141459 -0.152905 
-0.117232 0.0105377 -0.155072 -0.113459 0.0129466 -0.153295 -0.122106 0.0265562 -0.154112 
-0.118162 0.0255838 -0.153739 -0.12394 0.0352212 -0.154222 -0.143878 0.0569112 -0.155326 
-0.158057 0.0706644 -0.152734 -0.116904 -0.0414413 -0.149753 -0.108767 -0.0216882 -0.150404 
-0.106358 -0.0185763 -0.149811 -0.10358 -0.0166545 -0.148901 -0.107276 -0.0106844 -0.149804 
-0.110955 -0.00412876 -0.151616 -0.107571 0.00484968 -0.151347 -0.105399 0.00844942 -0.149139 
-0.104911 0.012666 -0.149728 -0.125188 -0.0604141 -0.146309 -0.105355 -0.0382858 -0.144718 
-0.0978819 -0.0161124 -0.146569 -0.120336 -0.0122171 -0.147239 -0.109986 -0.0110401 -0.146515 
-0.10142 -0.0109559 -0.147311 -0.102189 -0.00589999 -0.14792 -0.0943756 -0.00479715 -0.145799 
-0.100099 -0.00244061 -0.145465 -0.101594 0.00275847 -0.147695 -0.0957948 0.00287524 -0.146375 
-0.106524 0.00463115 -0.145349 -0.100177 0.00755255 -0.148126 -0.10115 0.0123683 -0.147088 
-0.100577 0.0181844 -0.146397 -0.103356 0.0220871 -0.148069 -0.103934 0.0254688 -0.14775 
-0.101084 0.0267227 -0.145165 -0.103787 0.0349481 -0.145949 -0.106563 0.0397635 -0.145941 
-0.106628 -0.0431835 -0.143863 -0.0957298 -0.0382159 -0.14197 -0.0903053 -0.0140218 -0.142006 
-0.0880155 -0.0117921 -0.142708 -0.0853434 -0.010928 -0.141625 -0.091585 -0.00880553 -0.144389 
-0.0855554 -0.0079264 -0.141881 -0.0896171 -0.0051393 -0.142675 -0.0940259 -0.00278001 -0.142876 
-0.133462 0.00703375 -0.142303 -0.109342 0.00639851 -0.144191 -0.0941329 0.0113502 -0.144203 
-0.0926415 0.0198769 -0.143657 -0.13431 -0.079823 -0.13929 -0.0982144 -0.0517245 -0.138953 
[...]
POINT_DATA 639
FIELD FieldData 7
id 1 639 int
35 32 16 6 10 2 44 12 11 
57 1 20 25 13 30 23 38 29 
21 51 14 3 19 33 5 7 47 
28 40 4 69 54 56 27 73 93 
45 66 37 89 61 36 173 100 8 
52 42 120 60 85 87 77 59 91 
94 133 55 41 176 39 15 147 131 
71 31 17 84 63 113 78 58 125 
117 76 80 43 50 46 74 92 67 
65 162 126 145 24 98 18 53 110 
112 86 164 102 153 88 62 101 95 
103 130 137 75 190 111 48 108 34 
26 207 196 186 139 97 168 104 148 
121 178 140 150 179 180 177 82 68 
193 138 122 163 174 171 141 79 202 
129 198 195 204 160 159 127 241 118 
106 107 49 114 219 187 132 166 142 
184 144 154 83 151 81 70 189 123 
215 210 156 158 265 134 183 136 116 
115 105 119 225 157 149 229 250 167 
221 143 169 252 170 99 278 213 181 
211 270 146 205 124 209 175 254 212 
199 64 109 272 294 152 182 224 206 
200 96 228 208 72 135 201 223 244 
276 236 280 197 277 161 249 317 245 
324 128 261 352 234 251 185 172 295 
233 299 290 191 188 305 284 293 267 
227 220 238 292 314 266 273 321 322 
253 264 260 274 307 243 332 235 297 
247 304 287 218 192 363 226 242 256 
275 230 289 155 263 222 255 214 258 
259 303 194 262 288 271 203 298 330 
283 333 315 343 232 240 339 248 310 
348 368 217 282 367 306 308 341 370 
237 351 318 302 285 354 296 316 347 
300 165 377 327 344 281 313 291 329 
246 382 286 331 311 320 340 269 279 
90 239 216 336 355 353 358 362 323 
350 309 390 257 231 328 366 346 389 
337 325 301 394 338 326 349 388 365 
386 429 387 375 335 360 374 319 371 
356 268 378 9 334 418 401 400 380 
419 342 345 446 361 447 407 423 420 
414 393 405 409 399 448 404 357 391 
422 369 381 385 383 470 359 408 478 
373 410 402 312 392 454 396 459 384 
379 482 476 413 460 438 473 397 415 
466 483 430 372 425 427 364 451 444 
445 464 435 412 376 477 481 457 434 
442 406 475 455 458 463 467 411 480 
398 424 403 449 395 433 479 441 462 
486 456 416 484 436 439 450 465 417 
474 493 471 437 492 461 421 431 468 
452 491 496 490 443 495 428 440 426 
469 453 485 497 488 472 487 489 498 
494 432 506 507 510 503 501 508 511 
504 509 505 500 499 502 519 522 517 
513 512 516 514 520 518 529 521 515 
523 536 528 532 535 530 527 533 534 
526 531 543 524 525 547 545 540 549 
541 548 546 539 542 538 544 559 555 
550 552 561 562 537 557 558 553 560 
554 556 551 566 569 574 564 565 563 
572 568 567 571 570 573 587 575 582 
588 576 581 578 579 586 580 577 583 
585 584 595 596 601 598 591 589 590 
597 593 594 600 592 599 611 608 602 
603 607 605 614 609 610 604 613 606 
612 615 618 626 616 623 624 620 621 
617 622 625 627 640 619 628 636 629 
639 635 638 630 637 632 634 631 633 

type 1 639 int
1 1 1 1 1 1 1 1 1 
1 1 1 1 1 1 1 1 1 
1 1 1 1 1 1 1 1 1 
1 1 1 1 1 1 1 1 1 
1 1 1 1 1 1 1 1 1 
1 1 1 1 1 1 1 1 1 
1 1 1 1 1 1 1 1 1 
1 1 1 1 1 1 1 1 1 
1 1 1 1 1 1 1 1 1 
1 1 1 1 1 1 1 1 1 
1 1 1 1 1 1 1 1 1 
1 1 1 1 1 1 1 1 1 
1 1 1 1 1 1 1 1 1 
1 1 1 1 1 1 1 1 1 
1 1 1 1 1 1 1 1 1 
1 1 1 1 1 1 1 1 1 
1 1 1 1 1 1 1 1 1 
1 1 1 1 1 1 1 1 1 
1 1 1 1 1 1 1 1 1 
1 1 1 1 1 1 1 1 1 
1 1 1 1 1 1 1 1 1 
1 1 1 1 1 1 1 1 1 
1 1 1 1 1 1 1 1 1 
1 1 1 1 1 1 1 1 1 
1 1 1 1 1 1 1 1 1 
1 1 1 1 1 1 1 1 1 
1 1 1 1 1 1 1 1 1 
1 1 1 1 1 1 1 1 1 
1 1 1 1 1 1 1 1 1 
1 1 1 1 1 1 1 1 1 
1 1 1 1 1 1 1 1 1 
1 1 1 1 1 1 1 1 1 
1 1 1 1 1 1 1 1 1 
1 1 1 1 1 1 1 1 1 
1 1 1 1 1 1 1 1 1 
1 1 1 1 1 1 1 1 1 
1 1 1 1 1 1 1 1 1 
1 1 1 1 1 1 1 1 1 
1 1 1 1 1 1 1 1 1 
1 1 1 1 1 1 1 1 1 
1 1 1 1 1 1 1 1 1 
1 1 1 1 1 1 1 1 1 
1 1 1 1 1 1 1 1 1 
1 1 1 1 1 1 1 1 1 
1 1 1 1 1 1 1 1 1 
1 1 1 1 1 1 1 1 1 
1 1 1 1 1 1 1 1 1 
1 1 1 1 1 1 1 1 1 
1 1 1 1 1 1 1 1 1 
1 1 1 1 1 1 1 1 1 
1 1 1 1 1 1 1 1 1 
1 1 1 1 1 1 1 1 1 
1 1 1 1 1 1 1 1 1 
1 1 1 1 1 1 1 1 1 
1 1 1 1 1 1 1 1 1 
1 1 1 1 1 1 1 1 1 
1 1 1 1 1 1 1 1 1 
1 1 1 1 1 1 1 1 1 
1 1 1 1 1 1 1 1 1 
1 1 1 1 1 1 1 1 1 
1 1 1 1 1 1 1 1 1 
1 1 1 1 1 1 1 1 1 
1 1 1 1 1 1 1 1 1 
1 1 1 1 1 1 1 1 1 
1 1 1 1 1 1 1 1 1 
1 1 1 1 1 1 1 1 1 
1 1 1 1 1 1 1 1 1 
1 1 1 1 1 1 1 1 1 
1 1 1 1 1 1 1 1 1 
1 1 1 1 1 1 1 1 1 
1 1 1 1 1 1 1 1 1 

i 3 639 int
0 0 0 0 0 0 0 0 0 
0 0 0 0 0 0 0 0 0 
0 0 0 0 0 0 0 0 0 
0 0 0 0 0 0 0 0 0 
0 0 0 0 0 0 0 0 0 
0 0 0 0 0 0 0 0 0 
0 0 0 0 0 0 0 0 0 
0 0 0 0 0 0 0 0 0 
0 0 0 0 0 0 0 0 0 
0 0 0 0 0 0 0 0 0 
0 0 0 0 0 0 0 0 0 
0 0 0 0 0 0 0 0 0 
0 0 0 0 0 0 0 0 0 
0 0 0 0 0 0 0 0 0 
0 0 0 0 0 0 0 0 0 
0 0 0 0 0 0 0 0 0 
0 0 0 0 0 0 0 0 0 
0 0 0 0 0 0 0 0 0 
0 0 0 0 0 0 0 0 0 
0 0 0 0 0 0 0 0 0 
0 0 0 0 0 0 0 0 0 
0 0 0 0 0 0 0 0 0 
0 0 0 0 0 0 0 0 0 
0 0 0 0 0 0 0 0 0 
0 0 0 0 0 0 0 0 0 
0 0 0 0 0 0 0 0 0 
0 0 0 0 0 0 0 0 0 
0 0 0 0 0 0 0 0 0 
0 0 0 0 0 0 0 0 0 
0 0 0 0 0 0 0 0 0 
0 0 0 0 0 0 0 0 0 
0 0 0 0 0 0 0 0 0 
0 0 0 0 0 0 0 0 0 
0 0 0 0 0 0 0 0 0 
0 0 0 0 0 0 0 0 0 
0 0 0 0 0 0 0 0 0 
0 0 0 0 0 0 0 0 0 
0 0 0 0 0 0 0 0 0 
0 0 0 0 0 0 0 0 0 
0 0 0 0 0 0 0 0 0 
0 0 0 0 0 0 0 0 0 
0 0 0 0 0 0 0 0 0 
0 0 0 0 0 0 0 0 0 
0 0 0 0 0 0 0 0 0 
0 0 0 0 0 0 0 0 0 
0 0 0 0 0 0 0 0 0 
0 0 0 0 0 0 0 0 0 
0 0 0 0 0 0 0 0 0 
0 0 0 0 0 0 0 0 0 
0 0 0 0 0 0 0 0 0 
0 0 0 0 0 0 0 0 0 
0 0 0 0 0 0 0 0 0 
0 0 0 0 0 0 0 0 0 
0 0 0 0 0 0 0 0 0 
0 0 0 0 0 0 0 0 0 
0 0 0 0 0 0 0 0 0 
0 0 0 0 0 0 0 0 0 
0 0 0 0 0 0 0 0 0 
0 0 0 0 0 0 0 0 0 
0 0 0 0 0 0 0 0 0 
0 0 0 0 0 0 0 0 0 
0 0 0 0 0 0 0 0 0 
0 0 0 0 0 0 0 0 0 
0 0 0 0 0 0 0 0 0 
0 0 0 0 0 0 0 0 0 
0 0 0 0 0 0 0 0 0 
0 0 0 0 0 0 0 0 0 
0 0 0 0 0 0 0 0 0 
0 0 0 0 0 0 0 0 0 
0 0 0 0 0 0 0 0 0 
0 0 0 0 0 0 0 0 0 
0 0 0 0 0 0 0 0 0 
0 0 0 0 0 0 0 0 0 
0 0 0 0 0 0 0 0 0 
0 0 0 0 0 0 0 0 0 
0 0 0 0 0 0 0 0 0 
0 0 0 0 0 0 0 0 0 
0 0 0 0 0 0 0 0 0 
0 0 0 0 0 0 0 0 0 
0 0 0 0 0 0 0 0 0 
0 0 0 0 0 0 0 0 0 
0 0 0 0 0 0 0 0 0 
0 0 0 0 0 0 0 0 0 
0 0 0 0 0 0 0 0 0 
0 0 0 0 0 0 0 0 0 
0 0 0 0 0 0 0 0 0 
0 0 0 0 0 0 0 0 0 
0 0 0 0 0 0 0 0 0 
0 0 0 0 0 0 0 0 0 
0 0 0 0 0 0 0 0 0 
0 0 0 0 0 0 0 0 0 
0 0 0 0 0 0 0 0 0 
0 0 0 0 0 0 0 0 0 
0 0 0 0 0 0 0 0 0 
0 0 0 0 0 0 0 0 0 
0 0 0 0 0 0 0 0 0 
0 0 0 0 0 0 0 0 0 
0 0 0 0 0 0 0 0 0 
0 0 0 0 0 0 0 0 0 
0 0 0 0 0 0 0 0 0 
0 0 0 0 0 0 0 0 0 
0 0 0 0 0 0 0 0 0 
0 0 0 0 0 0 0 0 0 
0 0 0 0 0 0 0 0 0 
0 0 0 0 0 0 0 0 0 
0 0 0 0 0 0 0 0 0 
0 0 0 0 0 0 0 0 0 
0 0 0 0 0 0 0 0 0 
0 0 0 0 0 0 0 0 0 
0 0 0 0 0 0 0 0 0 
0 0 0 0 0 0 0 0 0 
0 0 0 0 0 0 0 0 0 
0 0 0 0 0 0 0 0 0 
0 0 0 0 0 0 0 0 0 
0 0 0 0 0 0 0 0 0 
0 0 0 0 0 0 0 0 0 
0 0 0 0 0 0 0 0 0 
0 0 0 0 0 0 0 0 0 
0 0 0 0 0 0 0 0 0 
0 0 0 0 0 0 0 0 0 
0 0 0 0 0 0 0 0 0 
0 0 0 0 0 0 0 0 0 
0 0 0 0 0 0 0 0 0 
0 0 0 0 0 0 0 0 0 
0 0 0 0 0 0 0 0 0 
0 0 0 0 0 0 0 0 0 
0 0 0 0 0 0 0 0 0 
0 0 0 0 0 0 0 0 0 
0 0 0 0 0 0 0 0 0 
0 0 0 0 0 0 0 0 0 
0 0 0 0 0 0 0 0 0 
0 0 0 0 0 0 0 0 0 
0 0 0 0 0 0 0 0 0 
0 0 0 0 0 0 0 0 0 
0 0 0 0 0 0 0 0 0 
0 0 0 0 0 0 0 0 0 
0 0 0 0 0 0 0 0 0 
0 0 0 0 0 0 0 0 0 
0 0 0 0 0 0 0 0 0 
0 0 0 0 0 0 0 0 0 
0 0 0 0 0 0 0 0 0 
0 0 0 0 0 0 0 0 0 
0 0 0 0 0 0 0 0 0 
0 0 0 0 0 0 0 0 0 
0 0 0 0 0 0 0 0 0 
0 0 0 0 0 0 0 0 0 
0 0 0 0 0 0 0 0 0 
0 0 0 0 0 0 0 0 0 
0 0 0 0 0 0 0 0 0 
0 0 0 0 0 0 0 0 0 
0 0 0 0 0 0 0 0 0 
0 0 0 0 0 0 0 0 0 
0 0 0 0 0 0 0 0 0 
0 0 0 0 0 0 0 0 0 
0 0 0 0 0 0 0 0 0 
0 0 0 0 0 0 0 0 0 
0 0 0 0 0 0 0 0 0 
0 0 0 0 0 0 0 0 0 
0 0 0 0 0 0 0 0 0 
0 0 0 0 0 0 0 0 0 
0 0 0 0 0 0 0 0 0 
0 0 0 0 0 0 0 0 0 
0 0 0 0 0 0 0 0 0 
0 0 0 0 0 0 0 0 0 
0 0 0 0 0 0 0 0 0 
0 0 0 0 0 0 0 0 0 
0 0 0 0 0 0 0 0 0 
0 0 0 0 0 0 0 0 0 
0 0 0 0 0 0 0 0 0 
0 0 0 0 0 0 0 0 0 
0 0 0 0 0 0 0 0 0 
0 0 0 0 0 0 0 0 0 
0 0 0 0 0 0 0 0 0 
0 0 0 0 0 0 0 0 0 
0 0 0 0 0 0 0 0 0 
0 0 0 0 0 0 0 0 0 
0 0 0 0 0 0 0 0 0 
0 0 0 0 0 0 0 0 0 
0 0 0 0 0 0 0 0 0 
0 0 0 0 0 0 0 0 0 
0 0 0 0 0 0 0 0 0 
0 0 0 0 0 0 0 0 0 
0 0 0 0 0 0 0 0 0 
0 0 0 0 0 0 0 0 0 
0 0 0 0 0 0 0 0 0 
0 0 0 0 0 0 0 0 0 
0 0 0 0 0 0 0 0 0 
0 0 0 0 0 0 0 0 0 
0 0 0 0 0 0 0 0 0 
0 0 0 0 0 0 0 0 0 
0 0 0 0 0 0 0 0 0 
0 0 0 0 0 0 0 0 0 
0 0 0 0 0 0 0 0 0 
0 0 0 0 0 0 0 0 0 
0 0 0 0 0 0 0 0 0 
0 0 0 0 0 0 0 0 0 
0 0 0 0 0 0 0 0 0 
0 0 0 0 0 0 0 0 0 
0 0 0 0 0 0 0 0 0 
0 0 0 0 0 0 0 0 0 
0 0 0 0 0 0 0 0 0 
0 0 0 0 0 0 0 0 0 
0 0 0 0 0 0 0 0 0 
0 0 0 0 0 0 0 0 0 
0 0 0 0 0 0 0 0 0 
0 0 0 0 0 0 0 0 0 
0 0 0 0 0 0 0 0 0 
0 0 0 0 0 0 0 0 0 
0 0 0 0 0 0 0 0 0 
0 0 0 0 0 0 0 0 0 
0 0 0 0 0 0 0 0 0 
0 0 0 0 0 0 0 0 0 
0 0 0 0 0 0 0 0 0 

v 3 639 double
-1.34345 0.15557 -1.61169 -1.49282 0.013101 -1.63024 -1.41114 0.00647445 -1.46004 
-1.3674 -0.00979849 -1.22784 -1.29594 0.0210826 -1.19366 -1.34676 -0.00926674 -1.18121 
-1.35377 -0.0625207 -1.18304 -1.37111 0.0250101 -1.14917 -1.28523 -0.041963 -1.07536 
-1.40329 -0.151216 -1.0791 -1.29447 -0.0102819 -1.05138 -1.23863 -0.175653 -1.20662 
-1.30627 -0.0249384 -0.98546 -1.29435 0.223299 -0.998098 -1.29539 0.0619969 -0.938015 
-1.24968 -0.0603932 -0.885695 -1.30976 -0.0504093 -0.915425 -1.31046 -0.0406686 -0.905379 
-1.35161 -0.0860827 -0.934292 -1.05489 0.35516 -1.34612 -1.14598 0.0397467 -0.786616 
-1.25453 0.15366 -0.753719 -1.15852 -0.00366611 -0.678571 -1.24054 0.158113 -0.824817 
-1.29111 0.108538 -0.638941 -1.03567 0.00503888 -0.530879 -1.26391 -0.022145 -0.683891 
-1.25545 0.0607519 -0.661443 -1.31252 0.0560466 -0.603025 -1.171 0.102062 -0.596111 
-1.1894 0.0238272 -0.574567 -1.27288 0.103865 -0.54891 -1.13819 0.0416612 -0.461442 
-1.21027 0.0823652 -0.509631 -1.12139 0.0323745 -0.470621 -1.28201 0.108261 -0.539562 
-1.14754 0.0785626 -0.487221 -1.27288 -0.105388 -0.54321 -1.21364 0.117625 -0.515885 
-1.15918 0.058562 -0.484898 -1.16601 0.0576602 -0.487809 -1.13665 0.0276381 -0.478037 
-1.38762 0.103047 -0.578172 -1.17607 0.0842808 -0.503337 -1.11992 0.0179416 -0.472973 
-1.14353 0.0241026 -0.482695 -1.12705 0.0372622 -0.47277 -1.00732 -0.0112927 -0.413138 
-1.10742 -0.415567 -0.795883 -1.12588 0.0712702 -0.483459 -1.1554 0.0759044 -0.494383 
-1.01294 0.00348567 -0.427258 -1.02904 -0.0452228 -0.437531 -0.911252 -0.0186558 -0.386595 
-1.22235 -0.0790106 -0.524724 -1.07793 -0.0131995 -0.454253 -1.02871 -0.0705313 -0.431659 
-1.01205 -0.0803934 -0.404715 -0.949549 0.00987 -0.402966 -0.993035 -0.0284808 -0.410046 
-1.0006 -0.0467644 -0.418094 -1.19571 -0.155998 -0.555619 -1.07319 0.0132455 -0.888805 
-0.891225 -0.0552955 -0.382015 -0.997778 0.0272925 -0.416136 -1.00763 -0.00372745 -0.421931 
-1.01006 0.0869933 -0.422794 -1.14005 0.195598 -0.487124 -1.01458 -0.0487408 -0.453781 
-1.00754 0.0143564 -0.426685 -0.938426 -0.00154345 -0.397778 -0.922702 -0.0148364 -0.396577 
-1.12728 -0.296879 -0.583837 -0.869894 -0.0367348 -0.298963 -0.970555 -0.0291519 -0.375265 
-0.970643 -0.00082793 -0.398415 -0.926999 0.0494386 -0.423638 -0.952581 0.00691602 -0.44 
-0.936051 0.0061219 -0.391672 -0.774714 -0.0570658 -0.323492 -0.904019 0.0591751 -0.382492 
-0.949525 -0.0766122 -0.400401 -0.917213 0.0736966 -0.380954 -1.12357 -0.192917 -0.503442 
-1.09305 0.0466918 -0.443577 -1.04987 -0.000969652 -0.462872 -0.854701 -0.0945835 -0.318381 
-0.826513 -0.138761 -0.333477 -0.84529 -0.0853099 -0.280713 -0.863086 -0.00932632 -0.38161 
-0.922954 0.0747716 -0.394136 -0.87511 0.0329602 -0.383235 -0.880875 0.0467624 -0.34893 
-0.863237 -0.0279452 -0.36143 -1.00235 -0.0519126 -0.425974 -1.02973 -0.178091 -0.46518 
-1.00256 0.115292 -0.430605 -0.857623 -0.0782178 -0.310292 -0.948877 -0.0411408 -0.379606 
-0.937639 -0.0463852 -0.435593 -0.920305 0.0487417 -0.360938 -0.888451 0.122032 -0.358072 
-0.902441 0.168215 -0.371319 -0.997459 -0.00553179 -0.427179 -0.996395 0.0782427 -0.412819 
-0.970255 0.00713128 -0.410134 -1.04781 0.0305355 -0.437921 -0.961429 -0.193611 -0.423109 
-0.912686 0.0152824 -0.374715 -1.25631 -0.0898896 -0.404868 -0.905873 0.0488049 -0.31535 
-0.686302 0.00925516 -0.282716 -1.17606 -0.272345 -0.674258 -1.06624 0.29707 -0.532771 
-1.03117 -0.0499472 -0.409837 -0.68711 0.0973572 -0.30207 -0.710854 0.165461 -0.377713 
-0.853335 0.0252974 -0.363042 -0.755832 -0.14505 -0.28596 -0.9817 0.0777271 -0.414079 
-0.720354 -0.0719963 -0.259631 -0.867964 -0.0205767 -0.356936 -0.892439 0.0578176 -0.375292 
-0.958529 0.0406314 -0.394858 -0.869724 -0.00304951 -0.361913 -0.859221 -0.0187481 -0.357581 
-0.897944 -0.121465 -0.385501 -0.751684 -0.00686656 -0.311677 -0.921232 -0.124573 -0.417966 
-0.838057 -0.0169009 -0.385186 -0.953951 0.0087085 -0.394639 -0.868113 0.0736874 -0.384987 
-0.971848 0.0304409 -0.432729 -0.838834 0.0176353 -0.42174 -0.921997 0.00613832 -0.384084 
-0.920019 0.111959 -0.394594 -0.749145 -0.092621 -0.324384 -0.858872 -0.000219275 -0.367438 
-0.825453 0.0553154 -0.131592 -0.783846 -0.0865648 -0.344607 -0.778924 -0.158561 -0.378902 
-0.767715 0.0163611 -0.316068 -0.666964 -0.0965797 -0.300953 -0.811487 -0.0723094 -0.347684 
-0.712802 -0.0969239 -0.315343 -0.751095 -0.0333572 -0.325378 -0.768577 -0.0383045 -0.376804 
-0.827095 -0.104001 -0.361035 -0.896727 0.0178197 -0.357016 -1.11254 -0.112412 -0.718172 
-0.886962 0.102254 -0.378377 -0.697774 -0.0375355 -0.352509 -0.757647 -0.00572387 -0.324814 
-0.598203 0.000292189 -0.248706 -0.863095 -0.021851 -0.369264 -0.841047 -0.0681103 -0.300056 
-0.850568 0.001495 -0.366084 -0.901208 -0.0706688 -0.376728 -0.932962 -0.176231 -0.476421 
-0.828474 0.110466 -0.376187 -0.962521 0.0573463 -0.403199 -0.880553 -0.00725199 -0.36441 
-0.96168 -0.139999 -0.412324 -0.910457 -0.0204022 -0.378597 -0.832348 -0.00147775 -0.348611 
-0.799345 -0.040862 -0.337404 -0.978194 0.0122977 -0.460172 -0.920082 0.0793939 -0.371798 
-0.874773 0.0112763 -0.35344 -0.863911 0.0247126 -0.371212 -0.873837 -0.0127138 -0.266666 
-0.761572 0.0737091 -0.314888 -0.798331 0.010085 -0.337594 -0.820281 -0.1199 -0.380301 
-0.898512 -0.0459171 -0.367076 -0.8579 -0.0474208 -0.33521 -0.754583 -0.0467173 -0.315719 
-0.783936 -0.026338 -0.323141 -0.788665 -0.0995953 -0.324033 -0.85692 0.204066 -0.176917 
-0.891495 0.145211 -0.395663 -0.769419 0.00606403 -0.306644 -0.815068 0.0137481 -0.339008 
-0.788975 -0.0354361 -0.326636 -0.791766 0.0112351 -0.328008 -0.784341 -0.1083 -0.350965 
-1.12498 -0.131918 -0.507643 -0.872444 -0.0249241 -0.368479 -0.786809 -0.0491212 -0.369645 
-0.788456 -0.124567 -0.452476 -0.849264 0.161329 -0.386346 -0.670316 -0.0607281 -0.27604 
-0.811854 -0.034423 -0.334421 -0.8064 -0.0640561 -0.343444 -0.696139 -0.0108185 -0.27378 
-0.788456 -0.005507 -0.341713 -0.747203 0.062237 -0.307887 -0.718691 -0.0308332 -0.298535 
-0.940776 -0.120376 -0.411266 -0.809606 -0.0910098 -0.351486 -0.82136 0.242527 -0.454623 
-0.880332 -0.021787 -0.361022 -1.18906 -0.239109 -0.681777 -0.701439 -0.138323 -0.285666 
-0.731516 -0.0297379 -0.313947 -0.717632 -0.0216819 -0.295753 -0.57734 -0.00395773 -0.247014 
-0.929715 0.304501 -0.515528 -0.735878 0.0187796 -0.279656 -0.82759 -0.0138324 -0.36976 
-0.888215 0.0129018 -0.38571 -0.839485 -0.036527 -0.350417 -0.711662 0.322173 -0.427361 
-0.768444 -0.0705715 -0.289508 -0.851947 0.0466558 -0.369966 -0.885768 -0.185287 -0.553207 
-0.567433 -0.133179 -0.222426 -0.631437 0.0940253 -0.268975 -0.719868 0.123597 -0.302487 
-0.600992 -0.0408596 -0.20769 -0.847252 -0.243754 -0.00733067 -0.680496 0.00922536 -0.291597 
-0.625572 0.0789733 -0.269108 -0.955503 0.0861995 -0.217219 -0.702418 0.0589542 -0.286617 
-1.2491 0.137949 -0.43232 -0.610005 0.0640132 -0.10498 -0.526854 0.0360783 -0.136342 
-1.53925 0.230518 -0.815044 -0.906085 0.147106 -0.341527 -0.938245 0.190706 -0.292095 
-0.786242 -0.109498 -0.271033 -0.661301 0.00682229 -0.282848 -0.737009 0.110386 -0.323583 
-0.751308 0.029507 -0.312878 -0.732626 0.0461657 -0.40592 -0.859297 0.251367 -0.618891 
-0.768379 0.0853214 -0.354875 -0.902666 0.133416 -0.439531 -0.954046 -0.162549 -0.299032 
-0.99473 0.0615921 -0.548048 -0.70135 0.0298343 -0.454131 -0.533107 0.0549011 -0.162736 
-0.533269 0.0057312 -0.225367 -0.547583 -0.0204769 -0.234458 -0.51715 0.0366818 -0.219788 
-0.516617 0.0110807 -0.210993 -0.567659 0.0264871 -0.231066 -0.437385 0.0351167 -0.181527 
-0.766879 -0.0836479 -0.319741 -0.810225 0.123969 -0.32582 -0.770984 -0.171798 -0.494446 
-0.826829 0.261692 -0.335241 -0.6412 -0.00817613 -0.27093 -0.43363 0.00936383 -0.181631 
-0.559412 -0.255656 -0.198262 -0.94841 -0.0206341 -0.55611 -0.399832 0.0694035 -0.173829 
-1.00969 -0.210795 -0.589207 -0.543374 0.0141506 -0.193298 -1.0552 -0.153627 -0.25326 
-0.531443 -0.00798292 -0.16758 -0.612815 0.0746901 -0.257618 -0.855968 0.344106 -0.386376 
-0.59749 -0.0940551 -0.305933 -0.603382 -0.056735 -0.256708 -0.837324 0.0348446 -0.367324 
-0.593413 -0.0487899 -0.254402 -0.648391 0.116735 -0.270202 -0.715272 0.0283842 -0.305436 
-0.72195 -0.102575 -0.318978 -0.543373 0.0291218 -0.217441 -0.897474 0.0695423 -0.328105 
-0.566442 0.0215685 -0.206762 -0.444165 -0.13339 -0.138917 -0.670753 0.0504628 -0.289514 
-0.622495 0.0343375 -0.26696 -0.533803 -0.0442785 -0.218685 -0.59247 -0.036874 -0.245904 
-0.711843 0.121267 -0.250771 -0.542658 -0.0480797 -0.23046 -0.506616 0.0428242 -0.204805 
-0.539318 0.0716598 -0.220268 -0.740601 -0.170962 -0.221451 -0.420881 -0.0434988 -0.139932 
-0.485885 0.00430564 -0.205903 -0.80953 0.0612401 -0.52667 -0.735107 0.0643438 -0.331908 
-0.639516 -0.0315916 -0.26824 -0.597631 -0.077362 -0.248857 -0.648614 0.104018 -0.279532 
-0.737942 0.365346 -0.222655 -0.5039 0.0358958 -0.228604 -0.461828 0.0115593 -0.196018 
-1.07758 0.138148 -0.419925 -0.534543 -0.0199259 -0.225119 -0.588793 0.202359 -0.469467 
-0.789764 0.0651751 -0.303794 -0.718096 0.126264 -0.247418 -0.669096 0.0571545 -0.239013 
-0.672617 0.120743 -0.198951 -0.663816 0.354327 -0.188412 -0.752301 0.200193 -0.264855 
-0.780113 -0.0871017 -0.289075 -0.840744 -0.0452927 -0.37094 -0.662542 0.02039 -0.368118 
-0.564835 0.000269239 -0.239703 -0.568436 0.0401004 -0.231088 -0.611616 0.0402881 -0.263561 
-0.603972 0.0433521 -0.258764 -0.568143 0.0277788 -0.242612 -0.696059 -0.326682 -0.840032 
-0.952936 0.0943762 -0.280123 -0.845795 -0.0239662 -0.278529 -0.900186 0.228779 -0.357737 
-0.702014 0.163041 -0.354004 -0.797933 0.00911717 -0.290843 -0.841795 -0.320799 -0.24597 
-0.6964 -0.255617 -0.206458 -0.483497 -0.180117 -0.163733 -0.829249 -0.00261214 -0.489004 
-0.608415 -0.0205495 -0.253743 -0.585279 0.0552794 -0.248051 -0.697938 -0.116767 0.0297572 
-0.667678 0.0694989 -0.288272 -0.623565 -0.00566933 -0.785012 -0.636966 -0.0275548 -0.256003 
-0.602847 0.0127185 -0.254479 -0.745847 0.22266 -0.181698 -0.6691 0.0488402 -0.274605 
-0.459076 -0.0913197 -0.208218 -0.579884 -0.00825356 -0.237555 -0.528886 -0.0281371 -0.223641 
-0.537616 7.56592e-06 -0.217637 -0.562571 -0.191522 -0.195027 -0.648089 -0.0483554 -0.265173 
-0.559424 0.0825943 -0.23706 -0.450825 0.061798 -0.188631 -0.714328 -0.146745 -0.779008 
-0.633419 0.127469 -0.173422 -0.766135 0.0655341 -0.31976 -0.545716 0.101873 -0.286084 
-0.39705 -0.102336 -0.0409681 -0.494578 -0.0453374 -0.211082 -0.969285 0.159334 -0.537062 
-0.511916 -0.0110024 -0.214817 -0.571096 -0.0511797 -0.217039 -0.266172 -0.0428088 -0.0678443 
-0.769145 -0.333818 -0.211682 -0.320651 0.0273317 -0.14208 -0.664673 -0.315033 -0.25085 
-0.827364 -0.131056 -0.691239 -0.383307 -0.121776 -0.16412 -0.439646 -0.145172 -0.188376 
-0.445266 -0.103445 -0.107177 -0.421278 -0.0165185 -0.179316 -0.457423 -0.00885905 -0.191857 
-0.743652 -0.163103 -0.315702 -0.869401 -0.0995532 -0.133918 -0.35104 -0.114959 -0.156887 
-0.803494 0.175323 -0.284334 -1.0058 -0.451317 -0.160519 -0.661442 0.133278 -0.36749 
-0.370648 -0.0464022 -0.0921908 -0.556295 0.0748484 -0.721056 -0.550442 0.0417413 -0.236877 
-0.621511 -0.105876 -0.336267 -0.450766 -0.071352 -0.191256 -0.693906 -0.309859 -0.308711 
-0.508528 0.026276 -0.218661 -0.474517 -0.0866293 -0.214325 -0.602284 -0.0192044 -0.246253 
-0.617018 0.316239 -0.514898 -0.46679 0.0369868 -0.201198 -1.06524 0.390227 -0.363416 
-0.677027 0.236831 -0.482079 -0.400662 -0.0331369 -0.397537 -0.274877 -0.205727 -0.507902 
-0.343886 0.0332698 -0.149542 -0.19971 -0.0846991 -0.0850785 -0.370816 0.0178631 -0.159255 
-1.15783 -0.272408 -0.360219 -0.44792 -0.000282534 -0.202547 -0.92378 0.00997092 -0.353719 
-0.863295 0.0752397 -0.552598 -0.893893 0.0922736 -0.500937 -0.574059 0.189119 -0.263663 
-0.528695 0.235034 -0.36308 -0.381375 0.0731448 -0.158917 -0.754938 0.181228 -0.405571 
-0.720017 0.322425 -0.377445 -0.74361 0.235968 -0.472398 -0.400606 0.281349 -0.317298 
-0.541735 0.0291582 -0.343354 -0.296095 -0.088479 -0.119625 -0.203599 -0.016698 -0.618333 
-1.20474 -0.392072 -0.496511 -0.410607 -0.220945 0.00154621 -0.755061 0.0695755 -0.660986 