# vtk DataFile Version 4.0
Generated by LIGGGHTS
ASCII
DATASET POLYDATA
POINTS 281 float
-0.141363 0.0642064 -0.151122 -0.104479 -0.00183135 -0.14898 -0.105204 0.0121036 -0.149893 
-0.100152 0.0229232 -0.146226 -0.0911577 0.0112214 -0.144054 -0.12623 -0.030131 -0.144912 
-0.0880972 -0.0267129 -0.139194 -0.0864624 -0.0117245 -0.140183 -0.0833901 0.000780249 -0.140019 
-0.0856709 0.0142811 -0.140401 -0.105565 -0.00385841 -0.138837 -0.07452 -0.00121506 -0.137462 
-0.0901288 0.0262191 -0.140685 -0.0921441 -0.0597477 -0.133419 -0.0662131 -0.0175575 -0.131943 
-0.0689468 -0.0136684 -0.133516 -0.0717592 -0.00814719 -0.13496 -0.0977247 -0.00500005 -0.135925 
-0.097477 -0.00048187 -0.137639 -0.0858946 0.00200461 -0.136684 -0.073041 0.00498596 -0.135643 
-0.0633901 0.00640931 -0.132606 -0.0702866 0.0111552 -0.134216 -0.0656377 0.0134089 -0.133145 
-0.0730445 0.0295382 -0.134195 -0.0591367 -0.0169306 -0.130123 -0.075462 -0.0122006 -0.132019 
-0.0637392 -0.00667778 -0.131579 -0.0851724 -0.00373686 -0.132821 -0.0937992 -0.000620849 -0.131263 
-0.0865791 0.000151036 -0.130558 -0.0586384 -0.00443096 -0.130257 -0.0546863 -0.00385677 -0.129034 
-0.0577073 0.00847815 -0.128737 -0.0590443 0.0203797 -0.12864 -0.0769006 0.0431601 -0.132761 
-0.0518502 -0.0172838 -0.126088 -0.0487811 -0.0144345 -0.12605 -0.0863212 -0.00462305 -0.126851 
-0.0664337 0.00155207 -0.12896 -0.063307 0.0123163 -0.13102 -0.0624974 0.0168177 -0.127804 
-0.061814 -0.0302504 -0.12265 -0.0801443 -0.0280651 -0.123888 -0.0527656 -0.021874 -0.12506 
-0.0775986 -0.00879505 -0.123759 -0.053702 -0.0113764 -0.123681 -0.0401107 -0.0107242 -0.12251 
-0.0398772 -0.00636829 -0.121416 -0.0441857 -0.00275172 -0.12322 -0.0526535 -0.0011456 -0.122698 
-0.0407792 0.00227413 -0.123212 -0.0473255 0.0053427 -0.119853 -0.0466507 0.00877854 -0.124008 
-0.0540054 0.0117451 -0.126038 -0.0705523 0.0171193 -0.122805 -0.0479646 0.0173966 -0.124346 
-0.0424584 0.0148974 -0.121875 -0.0563355 0.0194283 -0.124493 -0.0490794 0.035848 -0.123062 
-0.0431352 -0.018969 -0.120057 -0.0388329 -0.0189122 -0.119592 -0.0447005 -0.00979948 -0.124047 
-0.0346924 -0.0115398 -0.120169 -0.0407783 -0.00960925 -0.119151 -0.0371414 -0.00918098 -0.11925 
-0.0452202 -0.00531788 -0.119299 -0.0345356 -0.00388458 -0.120454 -0.0742999 -0.00229386 -0.11911 
-0.0468285 -0.00154748 -0.117761 -0.0314329 -0.000970569 -0.118108 -0.0391911 0.0108201 -0.122073 
-0.033031 0.00856067 -0.119609 -0.0700985 0.0131256 -0.120598 -0.0648142 0.0110768 -0.120445 
-0.0364079 0.01234 -0.117655 -0.0307534 0.0122476 -0.117688 -0.0685351 0.0140879 -0.117713 
-0.0466404 0.0127537 -0.120843 -0.039295 0.0196956 -0.121471 -0.0333305 0.0219476 -0.118786 
-0.0422052 0.0244738 -0.12108 -0.0306445 -0.0110866 -0.114298 -0.027435 -0.013552 -0.116936 
-0.0709355 -0.00383027 -0.118726 -0.0654158 -0.00616571 -0.116973 -0.0273812 -5.31117e-05 -0.114004 
-0.0273784 0.00340562 -0.111646 -0.0765054 0.00366179 -0.11879 -0.0373828 0.0151754 -0.114896 
-0.0282587 0.0208383 -0.115407 -0.0330057 0.0276785 -0.116508 -0.0260341 0.02982 -0.113325 
-0.0418397 0.035259 -0.114576 -0.0401936 -0.0331405 -0.113889 -0.0285129 -0.0318714 -0.110884 
-0.0218844 -0.0220288 -0.1101 -0.0297057 -0.019705 -0.109727 -0.0505011 -0.0164048 -0.111678 
-0.0551564 -0.00767796 -0.111827 -0.0240351 -0.00307742 -0.114175 -0.060592 0.00498866 -0.113429 
-0.0241649 0.00350206 -0.109039 -0.0415941 0.0125762 -0.112876 -0.033152 0.0168439 -0.111836 
-0.0176123 0.013296 -0.112846 -0.0517929 0.022789 -0.111937 -0.0216714 -0.0384426 -0.1068 
-0.0179273 -0.033678 -0.106389 -0.0129828 -0.0245118 -0.109748 -0.026744 -0.0174858 -0.105784 
-0.0236791 -0.0120313 -0.10749 -0.0358205 -0.00962558 -0.108766 -0.0109326 -0.0101239 -0.109869 
-0.0351654 -0.00574628 -0.108303 -0.0196989 -0.00488348 -0.113274 -0.0137192 -0.00566574 -0.109987 
-0.0323543 0.00902078 -0.108587 -0.0474475 0.0150775 -0.107798 -0.0258529 0.013742 -0.113949 
-0.0140666 0.0197097 -0.109924 -0.0100663 0.0199561 -0.105896 -0.0196983 0.0210173 -0.108954 
-0.0371567 -0.0396743 -0.106313 -0.0465648 -0.0235463 -0.103289 -0.0207393 -0.0233433 -0.10178 
-0.0323849 -0.0153075 -0.104105 -0.0163797 -0.0125824 -0.101778 -0.0187212 0.00452479 -0.102084 
-0.0106749 0.00740103 -0.105967 -0.0219774 0.0242391 -0.102802 -0.00197764 -0.0509785 -0.0999576 
-0.0127046 -0.026096 -0.105727 -0.0218881 0.0114549 -0.101002 -0.0312822 0.0194314 -0.101882 
-0.00732352 -0.0340557 -0.103981 -0.00507642 -0.0202891 -0.106528 -0.0301844 0.00679958 -0.10767 
-0.00599477 0.0328296 -0.104941 -0.010147 -0.0216422 -0.106253 -0.0322463 -0.00737998 -0.106681 
-0.0210131 0.0295222 -0.106396 -0.00623706 -0.00658451 -0.101966 -0.00679915 -0.000720285 -0.100588 
-0.0230582 0.0203811 -0.100608 -0.0237179 -0.0330481 -0.0988021 -0.0251936 -0.0129184 -0.0951324 
-0.00372425 0.000239952 -0.0927702 -0.0152079 -0.0146465 -0.0923391 -0.00240788 -0.00904262 -0.0901683 
-0.0043072 0.0165241 -0.0900088 -0.0326006 -0.0307471 -0.0874825 -0.0214963 -0.0163735 -0.089066 
-0.0322856 0.00186917 -0.0866756 -0.00943139 0.0192376 -0.0821401 -0.0103743 0.0339743 -0.0820836 
-0.0234861 -0.027537 -0.0809896 -0.0280789 0.0137467 -0.0787234 -0.0180071 -0.0232682 -0.0767963 
-0.000114354 -0.0212937 -0.0773164 -0.0345391 -0.0114622 -0.0740073 -0.0148889 0.0293808 -0.0737598 
-0.00596878 -0.0130405 -0.069769 -0.0303036 -0.0103215 -0.0703037 -0.0234232 0.00199937 -0.0675806 
-0.0287704 0.0101406 -0.0697 -0.010941 0.0209557 -0.0694242 -0.0252839 0.0329346 -0.0679429 
-0.0326237 -0.0246784 -0.0645927 -0.0233162 -0.0208835 -0.0617036 -0.01426 -0.0134546 -0.0570792 
-0.0199625 -0.00318577 -0.0577839 -0.0192935 0.0147617 -0.0591109 -0.0264666 -0.0274673 -0.0533593 
-0.0337354 -0.0145959 -0.0561249 -0.0282271 0.00282044 -0.0540646 -0.00243205 0.0227147 -0.0536078 
-0.0334843 0.027503 -0.0543552 -0.00169906 0.0312398 -0.053085 -0.00998901 -0.0289101 -0.0467862 
-0.034981 -0.0249092 -0.046461 -0.0192849 -0.0147163 -0.046061 -0.00018665 0.0188342 -0.0474655 
-0.0140935 0.0269151 -0.0467562 -0.0232114 -0.0234185 -0.0425296 -0.0322689 0.00363086 -0.0452967 
-0.0106048 -0.0133163 -0.0379069 -0.0173269 -0.00522829 -0.0369604 -0.0330791 -0.00130471 -0.0382954 
-0.00264988 0.00425434 -0.0363396 -0.0298988 0.0182926 -0.0373765 -0.0121862 -0.0184905 -0.0324441 
-0.0196577 -0.0144125 -0.0335479 -0.0326428 0.0349629 -0.0330385 -0.00329635 0.0348276 -0.0329658 
-0.014731 -0.0256121 -0.030686 -0.0306718 0.00167617 -0.028846 -0.0127903 0.0167345 -0.0291476 
-0.0201644 -0.0127686 -0.0238773 -0.0237709 0.00172744 -0.0269404 -0.0159198 0.0243576 -0.0273342 
-0.0342709 -0.0266248 -0.0202329 -0.00148336 0.00567101 -0.0215428 -0.00546888 0.0136012 -0.02182 
-0.0118483 -0.0331947 -0.0185846 -0.0241178 0.0300767 -0.0182376 -0.0341415 -0.0150214 -0.0163191 
-0.0126988 -0.00665925 -0.0135218 -0.0308689 0.0273623 -0.0143199 -0.0148951 0.0311963 -0.0134638 
-0.0142921 -0.0256298 -0.00955787 -0.00573913 0.0284222 -0.00784501 -0.0275287 0.0316192 -0.00709592 
-0.0141421 -0.0289115 -0.00328912 -0.00525173 -0.0253791 -0.00470597 -0.0116971 -0.00845001 -0.00450502 
-0.0168405 0.0156428 -0.00551555 -0.000147874 0.0325969 -0.00430884 -0.0256746 -0.0217519 0.000147977 
-0.0104339 -0.0112253 0.000864763 -0.0198385 0.0337207 -0.00128606 -0.0186146 -0.0271402 0.00246646 
-0.0125397 0.000705716 0.00353367 -0.0136619 -0.00711923 0.00671373 -0.0334121 0.00368684 0.00665626 
-0.0245223 0.0145985 0.00821481 -0.00133775 -0.0346143 0.0109382 -0.00913613 -0.0312941 0.0125581 
-0.0215223 -0.00790873 0.00941883 -0.00523715 -0.00647974 0.0117858 -0.0114835 0.00360093 0.0118637 
-0.0147394 0.0154412 0.00948544 -0.0123255 0.0311922 0.00926965 -0.0228461 0.00943572 0.0163019 
-0.0276781 -0.0206777 0.0181334 -0.011765 0.00818954 0.0188557 -0.00736955 0.00915874 0.0188448 
-0.03335 -0.0101411 0.0231926 -0.0140583 -0.00457604 0.0233563 -0.00778825 0.00202854 0.0226448 
-0.0288682 0.0130299 0.0226909 -0.00624641 0.0129916 0.0222787 -0.004822 0.0167274 0.020325 
-0.0230186 0.023228 0.0223215 -0.0110222 0.021925 0.0205144 -0.000908632 -0.0201376 0.0245612 
-0.0202693 -0.00943017 0.0252208 -0.0183381 0.00273344 0.0248612 -0.0270427 -0.0136491 0.0304878 
-0.00508252 -0.0028679 0.0288182 -0.0132609 0.017575 0.0281406 -0.0290573 0.0260911 0.0293027 
-0.0312596 -0.0282318 0.0335042 -0.00133703 -0.00658453 0.0326531 -0.00273627 0.0326024 0.0344617 
-0.0309119 -0.0207084 0.0358677 -0.0084722 -0.00462009 0.0363664 -0.0152744 0.0211746 0.0374006 
-0.0252685 -0.0119457 0.0386854 -0.0209658 0.00969496 0.0385482 -0.0272645 0.0231035 0.0385028 
-0.0244054 0.0234551 0.0415753 -0.00730513 0.0257586 0.0415007 -0.0181876 -0.028381 0.044336 
-0.0342247 -0.0119118 0.0422063 -0.0304536 -0.0123493 0.043976 -0.0309256 0.00918438 0.0432761 
-0.000691472 0.0332631 0.0452027 -0.0158837 -0.0171309 0.0488441 -0.00968967 -0.00588877 0.0465009 
-0.0349344 -0.00127292 0.0460589 -0.0231605 0.0109416 0.0487123 -0.0340111 0.0266228 0.0477102 
-0.0109595 0.0300204 0.0492162 -0.0171117 -0.02331 0.0514708 -0.0203439 -0.0193455 0.0506962 
-0.00413281 -0.00792779 0.0496561 -0.0306741 -0.0048619 0.0510895 -0.0265082 0.034934 0.0515537 
-0.00757771 0.0326856 0.0511834 -0.014458 -0.0138423 0.0541866 
VERTICES 281 562
1 0 
1 1 
1 2 
1 3 
1 4 
1 5 
1 6 
1 7 
1 8 
1 9 
1 10 
1 11 
1 12 
1 13 
1 14 
1 15 
1 16 
1 17 
1 18 
1 19 
1 20 
1 21 
1 22 
1 23 
1 24 
1 25 
1 26 
1 27 
1 28 
1 29 
1 30 
1 31 
1 32 
1 33 
1 34 
1 35 
1 36 
1 37 
1 38 
1 39 
1 40 
1 41 
1 42 
1 43 
1 44 
1 45 
1 46 
1 47 
1 48 
1 49 
1 50 
1 51 
1 52 
1 53 
1 54 
1 55 
1 56 
1 57 
1 58 
1 59 
1 60 
1 61 
1 62 
1 63 
1 64 
1 65 
1 66 
1 67 
1 68 
1 69 
1 70 
1 71 
1 72 
1 73 
1 74 
1 75 
1 76 
1 77 
1 78 
1 79 
1 80 
1 81 
1 82 
1 83 
1 84 
1 85 
1 86 
1 87 
1 88 
1 89 
1 90 
1 91 
1 92 
1 93 
1 94 
1 95 
1 96 
1 97 
1 98 
1 99 
1 100 
1 101 
1 102 
1 103 
1 104 
1 105 
1 106 
1 107 
1 108 
1 109 
1 110 
1 111 
1 112 
1 113 
1 114 
1 115 
1 116 
1 117 
1 118 
1 119 
1 120 
1 121 
1 122 
1 123 
1 124 
1 125 
1 126 
1 127 
1 128 
1 129 
1 130 
1 131 
1 132 
1 133 
1 134 
1 135 
1 136 
1 137 
1 138 
1 139 
1 140 
1 141 
1 142 
1 143 
1 144 
1 145 
1 146 
1 147 
1 148 
1 149 
1 150 
1 151 
1 152 
1 153 
1 154 
1 155 
1 156 
1 157 
1 158 
1 159 
1 160 
1 161 
1 162 
1 163 
1 164 
1 165 
1 166 
1 167 
1 168 
1 169 
1 170 
1 171 
1 172 
1 173 
1 174 
1 175 
1 176 
1 177 
1 178 
1 179 
1 180 
1 181 
1 182 
1 183 
1 184 
1 185 
1 186 
1 187 
1 188 
1 189 
1 190 
1 191 
1 192 
1 193 
1 194 
1 195 
1 196 
1 197 
1 198 
1 199 
1 200 
1 201 
1 202 
1 203 
1 204 
1 205 
1 206 
1 207 
1 208 
1 209 
1 210 
1 211 
1 212 
1 213 
1 214 
1 215 
1 216 
1 217 
1 218 
1 219 
1 220 
1 221 
1 222 
1 223 
1 224 
1 225 
1 226 
1 227 
1 228 
1 229 
1 230 
1 231 
1 232 
1 233 
1 234 
1 235 
1 236 
1 237 
1 238 
1 239 
1 240 
1 241 
1 242 
1 243 
1 244 
1 245 
1 246 
1 247 
1 248 
1 249 
1 250 
1 251 
1 252 
1 253 
1 254 
1 255 
1 256 
1 257 
1 258 
1 259 
1 260 
1 261 
1 262 
1 263 
1 264 
1 265 
1 266 
1 267 
1 268 
1 269 
1 270 
1 271 
1 272 
1 273 
1 274 
1 275 
1 276 
1 277 
1 278 
1 279 
1 280 

POINT_DATA 281
FIELD FieldData 7
id 1 281 int
22 16 32 20 11 35 3 30 4 
1 10 8 44 51 40 5 28 2 
6 7 29 31 42 21 57 45 33 
15 12 19 25 37 46 48 41 60 
110 18 23 89 102 66 54 13 52 
38 59 95 26 43 85 58 53 67 
39 56 17 65 80 34 87 63 112 
75 24 70 50 82 47 78 105 126 
99 61 55 106 64 69 74 114 49 
94 68 76 36 27 72 119 14 86 
83 84 122 117 93 125 79 120 100 
77 118 73 124 91 81 96 88 97 
109 140 111 121 98 123 113 136 128 
133 71 131 139 90 127 135 62 115 
101 108 103 116 107 9 134 104 92 
132 137 147 138 129 153 130 146 149 
151 145 143 152 144 142 148 160 150 
141 161 158 164 163 166 165 155 154 
157 162 168 159 156 178 174 167 172 
169 175 176 171 173 170 179 177 185 
190 189 191 182 188 180 181 192 186 
187 184 200 183 198 199 203 195 204 
196 194 193 202 197 201 209 212 210 
217 205 207 214 208 213 222 215 216 
206 211 225 223 229 227 226 218 230 
228 221 234 224 237 240 220 219 242 
236 235 238 250 232 247 252 233 239 
241 231 249 255 245 251 248 244 254 
243 246 253 265 259 262 267 261 264 
256 268 258 260 263 266 257 274 272 
276 279 269 275 273 270 281 280 277 
278 271 
type 1 281 int
1 1 1 1 1 1 1 1 1 
1 1 1 1 1 1 1 1 1 
1 1 1 1 1 1 1 1 1 
1 1 1 1 1 1 1 1 1 
1 1 1 1 1 1 1 1 1 
1 1 1 1 1 1 1 1 1 
1 1 1 1 1 1 1 1 1 
1 1 1 1 1 1 1 1 1 
1 1 1 1 1 1 1 1 1 
1 1 1 1 1 1 1 1 1 
1 1 1 1 1 1 1 1 1 
1 1 1 1 1 1 1 1 1 
1 1 1 1 1 1 1 1 1 
1 1 1 1 1 1 1 1 1 
1 1 1 1 1 1 1 1 1 
1 1 1 1 1 1 1 1 1 
1 1 1 1 1 1 1 1 1 
1 1 1 1 1 1 1 1 1 
1 1 1 1 1 1 1 1 1 
1 1 1 1 1 1 1 1 1 
1 1 1 1 1 1 1 1 1 
1 1 1 1 1 1 1 1 1 
1 1 1 1 1 1 1 1 1 
1 1 1 1 1 1 1 1 1 
1 1 1 1 1 1 1 1 1 
1 1 1 1 1 1 1 1 1 
1 1 1 1 1 1 1 1 1 
1 1 1 1 1 1 1 1 1 
1 1 1 1 1 1 1 1 1 
1 1 1 1 1 1 1 1 1 
1 1 1 1 1 1 1 1 1 
1 1 
i 3 281 int
0 0 0 0 0 0 0 0 0 
0 0 0 0 0 0 0 0 0 
0 0 0 0 0 0 0 0 0 
0 0 0 0 0 0 0 0 0 
0 0 0 0 0 0 0 0 0 
0 0 0 0 0 0 0 0 0 
0 0 0 0 0 0 0 0 0 
0 0 0 0 0 0 0 0 0 
0 0 0 0 0 0 0 0 0 
0 0 0 0 0 0 0 0 0 
0 0 0 0 0 0 0 0 0 
0 0 0 0 0 0 0 0 0 
0 0 0 0 0 0 0 0 0 
0 0 0 0 0 0 0 0 0 
0 0 0 0 0 0 0 0 0 
0 0 0 0 0 0 0 0 0 
0 0 0 0 0 0 0 0 0 
0 0 0 0 0 0 0 0 0 
0 0 0 0 0 0 0 0 0 
0 0 0 0 0 0 0 0 0 
0 0 0 0 0 0 0 0 0 
0 0 0 0 0 0 0 0 0 
0 0 0 0 0 0 0 0 0 
0 0 0 0 0 0 0 0 0 
0 0 0 0 0 0 0 0 0 
0 0 0 0 0 0 0 0 0 
0 0 0 0 0 0 0 0 0 
0 0 0 0 0 0 0 0 0 
0 0 0 0 0 0 0 0 0 
0 0 0 0 0 0 0 0 0 
0 0 0 0 0 0 0 0 0 
0 0 0 0 0 0 0 0 0 
0 0 0 0 0 0 0 0 0 
0 0 0 0 0 0 0 0 0 
0 0 0 0 0 0 0 0 0 
0 0 0 0 0 0 0 0 0 
0 0 0 0 0 0 0 0 0 
0 0 0 0 0 0 0 0 0 
0 0 0 0 0 0 0 0 0 
0 0 0 0 0 0 0 0 0 
0 0 0 0 0 0 0 0 0 
0 0 0 0 0 0 0 0 0 
0 0 0 0 0 0 0 0 0 
0 0 0 0 0 0 0 0 0 
0 0 0 0 0 0 0 0 0 
0 0 0 0 0 0 0 0 0 
0 0 0 0 0 0 0 0 0 
0 0 0 0 0 0 0 0 0 
0 0 0 0 0 0 0 0 0 
0 0 0 0 0 0 0 0 0 
0 0 0 0 0 0 0 0 0 
0 0 0 0 0 0 0 0 0 
0 0 0 0 0 0 0 0 0 
0 0 0 0 0 0 0 0 0 
0 0 0 0 0 0 0 0 0 
0 0 0 0 0 0 0 0 0 
0 0 0 0 0 0 0 0 0 
0 0 0 0 0 0 0 0 0 
0 0 0 0 0 0 0 0 0 
0 0 0 0 0 0 0 0 0 
0 0 0 0 0 0 0 0 0 
0 0 0 0 0 0 0 0 0 
0 0 0 0 0 0 0 0 0 
0 0 0 0 0 0 0 0 0 
0 0 0 0 0 0 0 0 0 
0 0 0 0 0 0 0 0 0 
0 0 0 0 0 0 0 0 0 
0 0 0 0 0 0 0 0 0 
0 0 0 0 0 0 0 0 0 
0 0 0 0 0 0 0 0 0 
0 0 0 0 0 0 0 0 0 
0 0 0 0 0 0 0 0 0 
0 0 0 0 0 0 0 0 0 
0 0 0 0 0 0 0 0 0 
0 0 0 0 0 0 0 0 0 
0 0 0 0 0 0 0 0 0 
0 0 0 0 0 0 0 0 0 
0 0 0 0 0 0 0 0 0 
0 0 0 0 0 0 0 0 0 
0 0 0 0 0 0 0 0 0 
0 0 0 0 0 0 0 0 0 
0 0 0 0 0 0 0 0 0 
0 0 0 0 0 0 0 0 0 
0 0 0 0 0 0 0 0 0 
0 0 0 0 0 0 0 0 0 
0 0 0 0 0 0 0 0 0 
0 0 0 0 0 0 0 0 0 
0 0 0 0 0 0 0 0 0 
0 0 0 0 0 0 0 0 0 
0 0 0 0 0 0 0 0 0 
0 0 0 0 0 0 0 0 0 
0 0 0 0 0 0 0 0 0 
0 0 0 0 0 0 0 0 0 
0 0 0 0 0 0 
v 3 281 double
-1.3176 0.277027 -0.33158 -0.943093 -0.0166111 -0.395652 -1.11688 0.298765 -0.4454 
-0.901955 0.426599 -0.290276 -0.827816 -0.0943482 -0.353564 -1.17331 -0.103627 -0.917018 
-0.626965 0.0812478 -0.244871 -0.721262 0.0588175 -0.293321 -0.66994 -0.142671 -0.46027 
-0.864559 -0.171205 -0.381298 -0.734374 0.0482482 -0.701734 -0.620511 -0.167284 -0.263317 
-0.865008 -0.0373162 -0.706952 -0.933135 -0.602316 -0.120652 -0.596466 -0.0238048 -0.249023 
-0.62982 -0.0519416 -0.262177 -0.703854 -0.0164978 -0.299152 -0.726152 0.0093661 -0.727442 
-0.751122 -0.135668 -0.742125 -1.12546 -0.121076 -0.530188 -0.766667 0.108204 -0.318844 
-0.574256 0.0457699 -0.242673 -0.464781 0.0318341 -0.190471 -0.634482 0.138428 -0.251742 
-0.787492 -0.0557108 -0.341586 -0.581981 -0.176054 -0.223004 -0.607548 -0.439371 -0.62638 
-0.561898 0.302691 -0.153843 -0.70153 0.0875305 -0.718623 -0.787471 0.0611242 -0.642922 
-0.70218 0.128315 -0.631406 -0.674975 -0.29775 -0.416952 -0.605939 -0.424898 -0.237479 
-0.792701 0.0812762 -0.227269 -0.555254 -0.174953 -0.185879 -0.763997 0.414818 -0.127589 
-0.712832 0.291197 -0.410577 -0.500408 0.0388659 -0.215608 -0.721115 0.167516 -0.593101 
-1.23946 -0.144349 -0.716425 -1.10925 0.269674 -0.858813 -0.658905 -0.0779816 -0.427006 
-0.628937 -0.0944997 -0.482089 -0.802637 -0.227919 -0.360769 -0.809231 0.135724 -0.479153 
-0.702784 0.289149 -0.590892 -0.564899 -0.144502 -0.451068 -0.389979 -0.197362 -0.155237 
-0.404157 -0.184185 -0.224679 -0.391641 -0.154517 -0.153825 -0.611441 -0.219245 -0.293849 
-0.934854 0.0181879 -0.384404 -0.623825 -0.0980778 0.037621 -0.498907 -0.1492 -0.153503 
-0.813267 -0.173107 -0.667442 -0.656462 -0.057253 -0.433323 -0.492653 -0.00345297 -0.250617 
-0.558362 0.110748 -0.311332 -0.63044 -0.334926 -0.0853237 -0.438357 0.00728142 -0.173404 
-0.755596 -0.0597797 -0.125874 -0.547476 -0.247323 -0.0724853 -0.544192 0.309144 -0.955128 
-0.444323 -0.0774134 -0.210533 -0.502927 -0.138258 -0.0930218 -0.4871 -0.202644 -0.249747 
-0.581208 0.016116 -0.378735 -0.31532 0.0312399 -0.130805 -0.754074 0.166729 -0.430866 
-0.771503 -0.00948443 -0.0923904 -0.0937764 0.222235 0.0171818 -0.804489 0.892464 -0.765733 
-0.2741 0.440298 -0.0713195 -0.695757 -0.154765 -0.470314 -0.52677 -0.0300557 -0.416262 
-0.300859 0.18946 -0.0906995 -0.274981 0.0832537 -0.136771 -0.813486 -0.187167 -0.240558 
-0.573375 -0.250595 -0.395835 -0.363281 0.155718 -0.0571875 -0.263527 0.196494 -0.0846871 
-0.676769 -0.166304 -0.355432 -0.621096 0.0478778 -0.21335 -0.351402 0.0469531 -0.17546 
-0.719707 0.105982 -0.480504 -0.63239 -0.0698192 -0.440763 -0.690568 0.354948 -0.149985 
-0.566845 -0.00369503 0.145441 -0.863132 -0.197113 -0.507774 -0.567578 -0.340354 -0.148937 
-0.48839 -0.0528297 -0.234797 -0.671919 -0.176115 -0.103621 -0.119386 -0.0442914 0.204886 
-0.658822 0.233344 0.114624 -0.746567 0.0469544 -0.566435 -0.724569 0.298333 0.162522 
-0.398784 0.213567 -0.0986388 -0.716029 0.166335 0.150564 -0.720229 0.167311 -0.0266551 
-0.668813 0.00312804 -0.152717 -0.711537 0.0270817 -0.104598 -0.751999 -0.0169154 -0.269952 
-0.647226 -0.00912099 0.384994 -0.805854 0.0205742 -0.0588401 -0.476535 0.474978 -0.25364 
-0.087933 -0.294233 -0.0609329 -0.501421 0.148744 -0.273372 -0.549261 -0.250025 0.0406904 
-0.283532 -0.261153 0.114794 -0.710068 0.3394 -0.0612456 -0.719473 0.128551 0.0837734 
-0.718921 0.128452 0.142622 -0.599907 -0.0445909 -0.100661 0.00881636 -0.314307 -0.301788 
-0.724285 0.00934202 0.0483576 -0.130711 -0.117456 -0.916028 -0.11976 -0.0386933 0.212276 
-0.272413 -0.565247 -0.261795 -0.733884 -0.171404 -0.286686 -0.75093 -0.135633 0.256638 
-0.728502 0.534262 -0.160842 -0.090631 0.357589 0.0575283 -0.604418 -0.246147 -0.156854 
-0.4148 -0.521111 -0.152159 -0.401414 0.0728471 -0.108204 -0.347638 0.186387 0.118304 
-0.718706 0.128414 -0.0376959 -0.731569 0.106017 0.0580993 -0.717527 -0.0266556 0.0882186 
-0.50567 -0.136351 -0.137918 -0.713518 -0.3266 -0.0303029 -0.141367 -0.603935 0.130774 
-0.308251 -0.0474698 -0.621505 -0.708353 -0.181999 0.0156364 -0.697724 -0.267904 -0.106471 
-0.71302 0.261726 0.228541 -0.677206 0.185521 0.163996 0 0 -2.02323 
-0.713772 -0.326717 0.205857 0 0 -2.01637 0 0 -2.01843 
0 0 -2.01705 0 0 -1.99537 0 0 -1.9886 
0 0 -1.9887 0 0 -1.97977 0 0 -1.96153 
0 0 -1.94966 0 0 -1.9475 0 0 -1.93651 
0 0 -1.93573 0 0 -1.92288 0 0 -1.93092 
0 0 -1.91876 0 0 -1.89541 0 0 -1.89511 
0 0 -1.88942 0 0 -1.87765 0 0 -1.86755 
0 0 -1.87029 0 0 -1.85283 0 0 -1.85156 
0 0 -1.83027 0 0 -1.83311 0 0 -1.8185 
0 0 -1.82988 0 0 -1.82841 0 0 -1.82046 
0 0 -1.80231 0 0 -1.78652 0 0 -1.76091 
0 0 -1.76484 0 0 -1.77219 0 0 -1.74012 
0 0 -1.75562 0 0 -1.74404 0 0 -1.74149 
0 0 -1.74571 0 0 -1.73855 0 0 -1.70264 
0 0 -1.70078 0 0 -1.69842 0 0 -1.70657 
0 0 -1.70245 0 0 -1.67792 0 0 -1.69401 
0 0 -1.65065 0 0 -1.64506 0 0 -1.653 
0 0 -1.64133 0 0 -1.64751 0 0 -1.61788 
0 0 -1.62455 0 0 -1.62151 0 0 -1.62102 
0 0 -1.60719 0 0 -1.59591 0 0 -1.59777 
0 0 -1.56511 0 0 -1.58414 0 0 -1.58659 
0 0 -1.54205 0 0 -1.55039 0 0 -1.55216 
0 0 -1.53155 0 0 -1.5293 0 0 -1.51694 
0 0 -1.49879 0 0 -1.50399 0 0 -1.4984 
0 0 -1.4726 0 0 -1.46112 0 0 -1.45612 
0 0 -1.43022 0 0 -1.43993 0 0 -1.43856 
0 0 -1.44542 0 0 -1.43718 0 0 -1.40648 
0 0 -1.40147 0 0 -1.41639 0 0 -1.39019 
0 0 -1.38264 0 0 -1.35988 0 0 -1.36027 
0 0 -1.34899 0 0 -1.32908 0 0 -1.31701 
0 0 -1.34026 0 0 -1.3228 0 0 -1.32221 
0 0 -1.33977 0 0 -1.34134 0 0 -1.28886 
0 0 -1.27483 0 0 -1.26924 0 0 -1.26933 
0 0 -1.23529 0 0 -1.23402 0 0 -1.23961 
0 0 -1.23931 0 0 -1.24255 0 0 -1.25786 
0 0 -1.24216 0 0 -1.25638 0 0 -1.2244 
0 0 -1.21911 0 0 -1.22195 0 0 -1.17594 
0 0 -1.18977 0 0 -1.19537 0 0 -1.18575 
0 0 -1.15053 0 0 -1.1577 0 0 -1.14229 
0 0 -1.13013 0 0 -1.12581 0 0 -1.11679 
0 0 -1.10541 0 0 -1.10668 0 0 -1.10708 
0 0 -1.07951 0 0 -1.0802 0 0 -1.0541 
0 0 -1.07372 0 0 -1.05744 0 0 -1.06391 
0 0 -1.04596 0 0 -1.01123 0 0 -1.0338 
0 0 -1.03792 0 0 -1.01251 0 0 -1.02222 
0 0 -1.0077 0 0 -1 0 0 -1 
0 0 -1.00338 0 0 -1 0 0 -1 
0 0 -1 0 0 -1 
f 3 281 double
0.000154388 0.000337951 -0.000886021 -0.000407712 -5.62615e-06 -0.000175548 -0.000113949 -2.2453e-05 3.41754e-05 
0 0 -0.000346714 -8.24098e-05 -1.60698e-05 -5.39275e-05 0 0 -0.000346714 
0 0 -0.00160516 0 0 -0.00160516 0 0 -0.00160516 
-0.000397883 -7.82954e-05 -0.00020391 0 0 -0.000346714 -8.824e-05 -3.911e-06 -3.71566e-05 
0 0 -0.000346714 -7.68841e-05 8.16877e-05 -5.58833e-05 -0.000403851 0.000114237 -0.000178739 
-0.000408498 4.56671e-05 -0.000173782 -0.000357013 4.85383e-05 -0.000208625 0 0 -0.00160516 
0 0 -0.000346714 0 0 -0.000346714 -0.000241258 -9.52166e-06 -0.000595749 
-8.21009e-05 -4.14104e-06 -5.63473e-05 0.000125354 -0.000186626 0.000183217 -8.73588e-05 -1.99564e-05 -3.83903e-05 
-8.28055e-05 -3.27966e-05 -5.03881e-05 -8.76753e-05 2.44039e-05 -3.82121e-05 0 0 -0.000346714 
0 0 -0.00160516 0 0 -0.000346714 0 0 -0.000346714 
0 0 -0.000346714 0 0 -0.000346714 -8.69411e-05 8.87112e-06 -4.33446e-05 
0 0 -0.000346714 0 0 -0.00160516 0 0 -0.000346714 
0 0 -0.000346714 -8.77169e-05 2.3709e-05 -3.97215e-05 0 0 -0.000346714 
0 0 -0.000346714 0 0 -0.000346714 0 0 -0.00160516 
0 0 -0.00160516 0 0 -0.000346714 0 0 -0.00160516 
0 0 -0.000346714 0 0 -0.000346714 0 0 -0.000346714 
0 0 -0.00160516 0 0 -0.00160516 0 0 -0.000346714 
-3.30286e-06 0.000101814 9.2565e-05 0 0 -0.00160516 0 0 -0.00160516 
0 0 -0.00160516 0 0 -0.000346714 0.00115735 0.000193889 0.0138592 
0 0 -0.00160516 0 0 -0.00160516 -7.00364e-05 -3.49396e-05 -7.83123e-05 
0 0 -0.000346714 0 0 -0.000346714 0 0 -0.000346714 
0 0 -0.000346714 0 0 -0.000346714 0 0 -0.000346714 
0 0 -0.000346714 -0.00012835 -0.000153253 -4.61334e-05 0 0 -0.000346714 
0 0 -0.00160516 0 0 -0.00160516 0 0 -0.000346714 
0 0 -0.000346714 0 0 -0.000346714 0 0 -0.00160516 
0 0 -0.00160516 0 0 -0.000346714 0 0 -0.000346714 
0 0 -0.000346714 0 0 -0.000346714 -7.8571e-05 -0.000105448 -0.000203613 
0 0 -0.00160516 0 0 -0.00160516 0 0 -0.000346714 
0 0 -0.000346714 0 0 -0.00160516 0 0 -0.000346714 
0 0 -0.00160516 0 0 -0.00160516 0 0 -0.000346714 
0 0 -0.000346714 0 0 -0.000346714 0 0 -0.000346714 
0 0 -0.00160516 0 0 -0.00160516 0 0 -0.000346714 
0 0 -0.00160516 0 0 -0.000346714 0 0 -0.000346714 
0 0 -0.000346714 0 0 -0.00160516 0 0 -0.000346714 
0 0 -0.000346714 0 0 -0.00160516 0 0 -0.00160516 
-8.6693e-05 -1.78043e-05 -3.64291e-05 0 0 -0.000346714 0 0 -0.000346714 
0 0 -0.000346714 0 0 -0.000346714 0 0 -0.000346714 
0 0 -0.000346714 0 0 -0.000346714 0 0 -0.000346714 
0 0 -0.000346714 0 0 -0.000346714 0 0 -0.00160516 
0 0 -0.000346714 0 0 -0.000346714 0 0 -0.00160516 
0 0 -0.000346714 0 0 -0.000346714 0 0 -0.000346714 
0 0 -0.000346714 0 0 -0.000346714 0 0 -0.00160516 
0 0 -0.000346714 0 0 -0.000346714 0 0 -0.00160516 
0 0 -0.00160516 0 0 -0.000346714 -0.00110101 0.000882015 0.00253382 
0 0 -0.000346714 0 0 -0.00160516 0 0 -0.00160516 
0 0 -0.00160516 0 0 -0.000346714 0 0 -0.000346714 
0 0 -0.000346714 0 0 -0.00160516 0 0 -0.000346714 
0 0 -0.00160516 0 0 -0.000346714 0 0 -0.000346714 
0 0 -0.000346714 0 0 -0.00160516 0 0 -0.00160516 
0 0 -0.000346714 0 0 -0.00160516 0 0 -0.00160516 
0 0 -0.000346714 0 0 -0.000346714 0 0 -0.000346714 
0 0 -0.00160516 0 0 -0.000346714 0 0 -0.00160516 
0 0 -0.000346714 0 0 -0.000346714 0 0 -0.000346714 
0 0 -0.000346714 0 0 -0.00160516 0 0 -0.00160516 
0 0 -0.00160516 0 0 -0.000346714 0 0 -0.00160516 
0 0 -0.000346714 0 0 -0.00160516 0 0 -0.000346714 
0 0 -0.000346714 0 0 -0.00160516 0 0 -0.000346714 
0 0 -0.00160516 0 0 -0.000346714 0 0 -0.000346714 
0 0 -0.000346714 0 0 -0.000346714 0 0 -0.00160516 
0 0 -0.000346714 0 0 -0.000346714 0 0 -0.000346714 
0 0 -0.000346714 0 0 -0.000346714 0 0 -0.000346714 
0 0 -0.00160516 0 0 -0.000346714 0 0 -0.00160516 
0 0 -0.00160516 0 0 -0.000346714 0 0 -0.000346714 
0 0 -0.000346714 0 0 -0.000346714 0 0 -0.000346714 
0 0 -0.00160516 0 0 -0.000346714 0 0 -0.000346714 
0 0 -0.000346714 0 0 -0.00160516 0 0 -0.000346714 
0 0 -0.00160516 0 0 -0.00160516 0 0 -0.00160516 
0 0 -0.000346714 0 0 -0.000346714 0 0 -0.000346714 
0 0 -0.000346714 0 0 -0.000346714 0 0 -0.000346714 
0 0 -0.000346714 0 0 -0.00160516 0 0 -0.00160516 
0 0 -0.000346714 0 0 -0.00160516 0 0 -0.000346714 
0 0 -0.000346714 0 0 -0.000346714 0 0 -0.000346714 
0 0 -0.00160516 0 0 -0.000346714 0 0 -0.000346714 
0 0 -0.000346714 0 0 -0.000346714 0 0 -0.000346714 
0 0 -0.000346714 0 0 -0.00160516 0 0 -0.000346714 
0 0 -0.000346714 0 0 -0.00160516 0 0 -0.00160516 
0 0 -0.000346714 0 0 -0.000346714 0 0 -0.000346714 
0 0 -0.00160516 0 0 -0.00160516 0 0 -0.000346714 
0 0 -0.000346714 0 0 -0.000346714 0 0 -0.000346714 
0 0 -0.000346714 0 0 -0.00160516 0 0 -0.000346714 
0 0 -0.000346714 0 0 -0.00160516 0 0 -0.000346714 
0 0 -0.000346714 0 0 -0.00160516 0 0 -0.000346714 
0 0 -0.000346714 0 0 -0.00160516 0 0 -0.000346714 
0 0 -0.000346714 0 0 -0.00160516 0 0 -0.000346714 
0 0 -0.00160516 0 0 -0.00160516 0 0 -0.000346714 
0 0 -0.000346714 0 0 -0.00160516 0 0 -0.000346714 
0 0 -0.000346714 0 0 -0.000346714 0 0 -0.000346714 
0 0 -0.00160516 0 0 -0.000346714 0 0 -0.00160516 
0 0 -0.00160516 0 0 -0.000346714 0 0 -0.000346714 
0 0 -0.00160516 0 0 -0.000346714 0 0 -0.00160516 
0 0 -0.000346714 0 0 -0.000346714 0 0 -0.00160516 
0 0 -0.000346714 0 0 0 0 0 0 
0 0 -0.000346714 0 0 0 0 0 0 
0 0 0 0 0 0 
radius 1 281 double
0.0015 0.0025 0.0015 0.0015 0.0015 0.0015 0.0025 0.0025 0.0025 
0.0025 0.0015 0.0015 0.0015 0.0015 0.0025 0.0025 0.0025 0.0025 
0.0015 0.0015 0.0025 0.0015 0.0025 0.0015 0.0015 0.0015 0.0015 
0.0025 0.0015 0.0015 0.0015 0.0015 0.0015 0.0015 0.0025 0.0015 
0.0015 0.0015 0.0015 0.0015 0.0015 0.0025 0.0025 0.0015 0.0025 
0.0015 0.0015 0.0015 0.0025 0.0025 0.0015 0.0015 0.0025 0.0025 
0.0025 0.0015 0.0025 0.0025 0.0025 0.0015 0.0015 0.0015 0.0015 
0.0015 0.0015 0.0015 0.0015 0.0015 0.0015 0.0025 0.0025 0.0015 
0.0015 0.0015 0.0025 0.0025 0.0015 0.0015 0.0015 0.0015 0.0015 
0.0025 0.0025 0.0015 0.0015 0.0025 0.0015 0.0025 0.0025 0.0015 
0.0015 0.0015 0.0015 0.0025 0.0025 0.0015 0.0025 0.0015 0.0015 
0.0015 0.0025 0.0015 0.0015 0.0025 0.0025 0.0015 0.0015 0.0015 
0.0015 0.0015 0.0015 0.0015 0.0015 0.0015 0.0015 0.0015 0.0025 
0.0015 0.0015 0.0025 0.0015 0.0015 0.0015 0.0015 0.0015 0.0025 
0.0015 0.0015 0.0025 0.0025 0.0015 0.0015 0.0015 0.0025 0.0025 
0.0025 0.0015 0.0015 0.0015 0.0025 0.0015 0.0025 0.0015 0.0015 
0.0015 0.0025 0.0025 0.0015 0.0025 0.0025 0.0015 0.0015 0.0015 
0.0025 0.0015 0.0025 0.0015 0.0015 0.0015 0.0015 0.0025 0.0025 
0.0025 0.0015 0.0025 0.0015 0.0025 0.0015 0.0015 0.0025 0.0015 
0.0025 0.0015 0.0015 0.0015 0.0015 0.0025 0.0015 0.0015 0.0015 
0.0015 0.0015 0.0015 0.0025 0.0015 0.0025 0.0025 0.0015 0.0015 
0.0015 0.0015 0.0015 0.0025 0.0015 0.0015 0.0015 0.0025 0.0015 
0.0025 0.0025 0.0025 0.0015 0.0015 0.0015 0.0015 0.0015 0.0015 
0.0015 0.0025 0.0025 0.0015 0.0025 0.0015 0.0015 0.0015 0.0015 
0.0025 0.0015 0.0015 0.0015 0.0015 0.0015 0.0015 0.0025 0.0015 
0.0015 0.0025 0.0025 0.0015 0.0015 0.0015 0.0025 0.0025 0.0015 
0.0015 0.0015 0.0015 0.0015 0.0025 0.0015 0.0015 0.0025 0.0015 
0.0015 0.0025 0.0015 0.0015 0.0025 0.0015 0.0015 0.0025 0.0015 
0.0025 0.0025 0.0015 0.0015 0.0025 0.0015 0.0015 0.0015 0.0015 
0.0025 0.0015 0.0025 0.0025 0.0015 0.0015 0.0025 0.0015 0.0025 
0.0015 0.0015 0.0025 0.0015 0.0015 0.0025 0.0015 0.0015 0.0015 
0.0015 0.0025 
omega 3 281 double
-141.13 -928.984 -229.01 7.943 -409.372 -1.74592 -201.986 -807.148 -34.712 
-281.873 -621.885 -92.9904 51.0836 -603.508 41.3931 223.792 43.9312 132.357 
-28.9242 -255.07 5.51385 -14.5267 -295.167 -19.2901 59.452 -256.796 -49.1657 
73.083 -377.38 3.7377 -24.4494 -372.138 -2.16393e-14 132.697 -448.357 -27.8628 
3.52199 -309.304 50.6921 334.868 -583.719 324.015 5.56414 -259.354 11.4423 
20.2938 -273.463 5.42647 -14.4817 -304.008 50.9437 -2.88476 -223.655 8.14399e-15 
68.91 -381.518 1.52786e-15 21.4386 34.239 -162.91 -32.8486 -332.018 -33.6742 
8.92148 -413.995 -99.112 -27.8163 101.987 78.7611 -71.6211 -453.814 -69.032 
-37.4362 -607.727 185.446 199.216 -443.052 -170.12 110.351 -401.955 64.3624 
-102.887 -230.272 -64.8491 -20.8532 -342.773 10.4058 45.5675 -318.019 -12.7324 
23.667 -304.28 -2.3266 110.079 -457.453 248.994 326.122 -441.136 -42.7421 
-57.1845 -523.356 -9.19057 70.7311 -231.592 7.59574 -274.599 -164.966 -389.656 
119.897 -484.893 261.802 -32.3546 -363.181 9.62454 -85.075 -366.226 -2.03436e-14 
110.289 -430.322 67.9402 251.275 -240.352 79.1724 18.5471 -247.316 9.74417 
-0.851892 -169.598 76.1642 32.5378 -427.033 132.192 -82.1146 -302.643 32.0749 
-147.371 -358.188 1.97685e-13 203.13 116.073 410.428 187.516 -275.404 -107.908 
98.7735 -168.709 0.421814 55.0265 -158.741 31.8485 55.9241 -565.52 92.9646 
-150.695 -524.5 46.8482 -97.4381 34.0988 30.8842 32.0858 -205.269 72.3231 
39.7104 -94.3968 61.4144 132.569 -184.439 43.2833 -3.15867 -216.058 10.8878 
-39.8855 -212.248 -72.7804 67.2425 -54.8797 43.0631 -1.62018 -318.612 -9.49295 
-84.1538 -313.205 -51.0252 117.734 -295.31 125.884 -55.7791 127.493 -52.9812 
25.78 -303.593 73.5348 -285.396 133.315 22.983 -15.4452 72.836 -77.9063 
-28.8354 17.8373 50.5959 84.6433 -230.553 41.1054 -80.5104 -322.816 -4.14016 
-76.9245 6.85618 -90.9932 -206.109 122.808 27.8398 -416.255 -398.636 113.15 
-265.778 -183.689 -129.953 -22.9278 -108.434 120.736 -0.355899 -94.5634 31.8696 
-24.0916 -56.4067 -100.966 -17.7197 -178.108 -118.45 103.377 -379.519 -46.21 
146.749 -298.063 11.7642 -61.4162 -225.857 -138.17 -29.9127 -181.455 -136.044 