# vtk DataFile Version 4.0
Generated by LIGGGHTS
ASCII
DATASET POLYDATA
POINTS 687 float
-0.470756 -0.0105866 -0.359525 -0.459407 0.00721174 -0.35463 -0.462757 -0.0128871 -0.350962 
-0.460112 -0.00905126 -0.350845 -0.462234 -0.014384 -0.346688 -0.454627 -0.0122955 -0.341368 
-0.464927 0.0423311 -0.337446 -0.446231 -0.0104508 -0.333562 -0.440622 0.009094 -0.331314 
-0.42857 -0.00968345 -0.319092 -0.432415 0.0142478 -0.32186 -0.424021 -0.040884 -0.318422 
-0.426222 0.0115476 -0.315708 -0.422278 0.0101453 -0.312276 -0.417104 0.00218434 -0.310349 
-0.42191 0.0157219 -0.309292 -0.427477 0.027181 -0.309504 -0.41505 -0.0379973 -0.295244 
-0.402417 0.0195254 -0.293535 -0.406347 -0.0378881 -0.288807 -0.394909 -0.0121045 -0.289133 
-0.391834 0.0102033 -0.285689 -0.392974 -0.0277191 -0.279589 -0.388619 -0.00201736 -0.28052 
-0.384461 -0.00688006 -0.276494 -0.375045 -0.00168269 -0.27621 -0.381133 0.00688076 -0.278171 
-0.378379 0.00907591 -0.275896 -0.376756 -0.00321241 -0.271774 -0.378938 0.034006 -0.272351 
-0.372071 -0.0175328 -0.265983 -0.365413 -0.00478228 -0.265776 -0.369106 -0.00218717 -0.268425 
-0.362487 0.00298357 -0.265142 -0.37202 0.00484604 -0.268172 -0.362935 -0.000435344 -0.264515 
-0.358511 -0.0209531 -0.259115 -0.35621 -0.00224756 -0.259275 -0.355552 0.00293139 -0.259853 
-0.355246 0.00785662 -0.259244 -0.348845 0.000842057 -0.254617 -0.349298 0.00687181 -0.255645 
-0.346306 -0.00923028 -0.252261 -0.345715 -0.00604261 -0.253706 -0.34469 0.00843768 -0.251398 
-0.346065 0.0136843 -0.25196 -0.348555 0.0294103 -0.250876 -0.339773 -0.0163433 -0.248594 
-0.339918 -0.00954533 -0.2494 -0.333541 0.00346228 -0.247118 -0.329308 -0.00182623 -0.244988 
-0.32378 -0.00837927 -0.242123 -0.322169 -0.00478273 -0.24061 -0.32732 0.00897197 -0.242632 
-0.339263 0.0350752 -0.243065 -0.317592 -0.00904123 -0.238507 -0.316044 0.00648618 -0.237915 
-0.319483 0.0101285 -0.239133 -0.325011 0.0261998 -0.238569 -0.311878 -0.0264438 -0.234024 
-0.31619 -0.00810202 -0.233379 -0.311448 0.00648605 -0.235813 -0.306719 0.0100651 -0.234846 
-0.312317 0.0105952 -0.236088 -0.311479 0.0194499 -0.235438 -0.305541 -0.0300665 -0.230557 
-0.302368 -0.0110297 -0.231915 -0.293263 -0.00888987 -0.229408 -0.29712 -0.00137561 -0.231373 
-0.29507 0.00902146 -0.229998 -0.289586 -0.0152722 -0.227167 -0.292295 -0.0125556 -0.228602 
-0.290185 -0.00978279 -0.228016 -0.288889 0.0039231 -0.22663 -0.291388 0.00667462 -0.228594 
-0.288895 0.0203553 -0.225886 -0.293826 0.0233356 -0.227342 -0.299774 0.0272784 -0.227923 
-0.333427 0.0561123 -0.227508 -0.288237 -0.0317683 -0.222809 -0.294668 -0.0279955 -0.225428 
-0.286412 -0.0250862 -0.224057 -0.291652 -0.0228204 -0.225333 -0.279759 -0.0187762 -0.222483 
-0.282668 0.000672403 -0.224216 -0.27703 0.00466231 -0.222688 -0.283302 0.0115052 -0.224888 
-0.285186 -0.0329197 -0.221285 -0.281609 -0.0307337 -0.220532 -0.27896 -0.0292773 -0.219037 
-0.292248 -0.0249523 -0.220347 -0.274241 -0.0199821 -0.219961 -0.27792 -0.0147298 -0.221234 
-0.278348 -0.00978977 -0.221948 -0.274113 -0.0103157 -0.2212 -0.274262 -0.00490405 -0.22161 
-0.270632 -0.00572031 -0.218964 -0.273052 0.00128618 -0.221212 -0.274149 0.00620066 -0.221411 
-0.274748 0.0116115 -0.221352 -0.27151 0.0120813 -0.219988 -0.276544 0.0141585 -0.221785 
-0.279273 0.0203701 -0.221824 -0.273417 -0.0296766 -0.217431 -0.274623 -0.0256302 -0.217945 
-0.26219 -0.00297452 -0.215509 -0.263546 0.00119943 -0.217184 -0.263407 0.00646913 -0.216876 
-0.269707 0.0139172 -0.218431 -0.262258 -0.0252631 -0.212637 -0.266903 -0.0233287 -0.215159 
-0.251115 -0.0248069 -0.208265 -0.248023 -0.0178441 -0.209153 -0.242885 -0.00341466 -0.208452 
-0.24702 0.00287788 -0.21007 -0.244866 0.00095375 -0.209068 -0.249669 0.00881511 -0.210979 
-0.250067 0.0138154 -0.209596 -0.25138 0.0175184 -0.210686 -0.262742 -0.0467259 -0.207013 
-0.241718 -0.0236188 -0.205707 -0.242146 -0.0149976 -0.207219 -0.239193 -0.0165292 -0.205814 
-0.244669 -0.0089816 -0.207843 -0.23598 -0.00848771 -0.20513 -0.241109 -0.00599859 -0.205973 
-0.239604 -0.000996907 -0.206018 -0.241481 0.00204835 -0.207798 -0.245011 0.00614832 -0.20805 
-0.23404 0.00423144 -0.204587 -0.238854 0.0122044 -0.205098 -0.240194 0.019495 -0.205726 
-0.243582 0.0214037 -0.206855 -0.257039 0.042524 -0.205247 -0.247865 -0.0380738 -0.204378 
-0.243288 -0.0365889 -0.203004 -0.236874 -0.0131386 -0.204077 -0.226577 -0.00571945 -0.201437 
-0.234462 -0.000779092 -0.203839 -0.229746 0.00044318 -0.202875 -0.234464 0.0113949 -0.202794 
-0.229319 0.011428 -0.202235 -0.230593 0.0151439 -0.201179 -0.236389 0.0192101 -0.204194 
-0.230149 0.0207468 -0.201357 -0.234087 0.021032 -0.202969 -0.240975 0.0281947 -0.203226 
-0.237246 0.030036 -0.202299 -0.244797 0.0349827 -0.204188 -0.225061 -0.0227164 -0.198861 
-0.221025 -0.0143785 -0.19832 -0.228128 -0.0102289 -0.200644 -0.223394 -0.00402273 -0.199166 
-0.219834 -0.00157055 -0.197952 -0.227702 0.00099636 -0.200382 -0.223517 0.00493196 -0.200118 
-0.221577 0.00782213 -0.199253 -0.223216 0.0126788 -0.198411 -0.225794 0.0159139 -0.200182 
-0.217285 -0.0218603 -0.195821 -0.21676 -0.0133611 -0.196645 -0.215898 -0.00946789 -0.196643 
-0.216463 0.00518613 -0.197178 -0.217777 0.0132584 -0.196019 -0.223478 0.0283901 -0.195882 
-0.219759 0.0302779 -0.193757 -0.210277 -0.0176766 -0.193451 -0.213473 -0.0137965 -0.194132 
-0.212106 -0.00880422 -0.194048 -0.207802 -0.0101862 -0.193165 -0.20399 0.00547306 -0.190866 
-0.205171 0.0132894 -0.190702 -0.20901 0.0162933 -0.192017 -0.222156 0.0340018 -0.19402 
-0.208509 -0.0336793 -0.189494 -0.203072 -0.0236866 -0.188488 -0.215359 -0.0200835 -0.189555 
-0.19834 -0.0170396 -0.188473 -0.198449 -0.0140476 -0.18888 -0.208765 -0.00154293 -0.190156 
-0.199475 -0.00214477 -0.190049 -0.200076 0.00295152 -0.188837 -0.195455 0.000917054 -0.187267 
-0.200558 0.00923792 -0.188098 -0.194302 0.00964424 -0.18758 -0.198965 0.0161076 -0.187806 
-0.200316 0.0200871 -0.188814 -0.203049 0.0234111 -0.18935 -0.20044 0.0259943 -0.187957 
-0.213332 0.0392864 -0.189907 -0.199598 -0.0341755 -0.18574 -0.202562 -0.0182571 -0.185046 
-0.191279 -0.0170775 -0.185314 -0.193167 -0.0116368 -0.185819 -0.189488 -0.0012492 -0.184773 
-0.184619 0.00308473 -0.183836 -0.185126 0.00942194 -0.183692 -0.19 0.013352 -0.185391 
-0.186446 0.0154835 -0.183698 -0.191117 0.0204173 -0.184092 -0.197555 0.025664 -0.186804 
-0.198136 -0.0463692 -0.181257 -0.189517 -0.0203664 -0.181647 -0.181198 -0.00644364 -0.182225 
-0.18382 0.00605271 -0.183446 -0.205734 0.0112411 -0.180919 -0.18355 0.012568 -0.182751 
-0.179809 0.0128337 -0.181165 -0.187847 0.0320019 -0.180347 -0.20032 0.0461258 -0.182222 
-0.172981 -0.0184384 -0.177815 -0.17619 -0.0165992 -0.177485 -0.17548 -0.010619 -0.178598 
-0.178089 -0.00130105 -0.179934 -0.168849 -0.00104172 -0.177181 -0.172778 0.000935443 -0.178797 
-0.185885 0.00680401 -0.179137 -0.171257 0.00626146 -0.177001 -0.173217 0.0210918 -0.177451 
-0.215299 -0.0683986 -0.176613 -0.183966 -0.0522033 -0.173297 -0.183124 -0.0450678 -0.175638 
-0.165694 -0.0229624 -0.17406 -0.166611 -0.00717186 -0.176174 -0.164047 -0.00912489 -0.174936 
-0.165312 -0.00331461 -0.175696 -0.161563 -0.00626414 -0.173009 -0.174616 0.00049786 -0.176255 
-0.162977 0.00182095 -0.174697 -0.16698 0.00439804 -0.175185 -0.162228 0.0080858 -0.173951 
-0.16861 0.0107717 -0.175468 -0.164698 0.0158272 -0.17456 -0.205445 0.0647046 -0.174997 
-0.19751 -0.0676273 -0.170521 -0.160462 -0.0218589 -0.172104 -0.155464 -0.0176518 -0.170521 
-0.156569 -0.0111766 -0.171679 -0.162983 -0.0102338 -0.170084 -0.16094 -0.00129167 -0.172714 
-0.156475 0.00785456 -0.171856 -0.15678 0.00998758 -0.169768 -0.153996 0.00906252 -0.170658 
-0.161183 0.0116563 -0.171727 -0.18145 0.0578442 -0.169809 -0.178705 -0.0163481 -0.167513 
-0.151664 -0.0102778 -0.168508 -0.147161 -0.00181797 -0.167015 -0.144584 0.0056679 -0.166807 
-0.145028 0.00864143 -0.166927 -0.151819 0.0140861 -0.168182 -0.153998 0.0204263 -0.168508 
-0.149763 0.0205315 -0.167757 -0.14743 0.0223297 -0.166551 -0.156453 0.0277456 -0.169241 
-0.152683 0.0268802 -0.16679 -0.137574 -0.01902 -0.162922 -0.141474 -0.00645479 -0.165587 
-0.138399 -0.0053542 -0.164305 -0.1359 -0.00658516 -0.163195 -0.138982 -0.00242911 -0.164643 
-0.142534 0.000952925 -0.165005 -0.138361 0.00295913 -0.16427 -0.138622 0.006142 -0.163986 
-0.136169 0.0048028 -0.162909 -0.141123 0.0120796 -0.165107 -0.141398 0.017203 -0.164638 
-0.147507 0.0353652 -0.164029 -0.182273 0.0692508 -0.162703 -0.140728 -0.0418192 -0.159424 
-0.140213 -0.0310248 -0.160873 -0.136188 -0.0278089 -0.15995 -0.134054 -0.0182889 -0.161127 
-0.129808 -0.0109264 -0.159309 -0.134454 -0.0102051 -0.161351 -0.132797 -0.00454144 -0.16195 
-0.134592 -0.00620533 -0.160182 -0.137711 0.000295995 -0.160788 -0.130554 0.0034271 -0.161017 
-0.148736 0.00696221 -0.160505 -0.144469 0.00817558 -0.16187 -0.17158 0.0108088 -0.161356 
-0.132348 0.0124232 -0.161342 -0.132827 0.0211546 -0.159367 -0.133679 0.0250239 -0.160311 
-0.156579 -0.0651992 -0.156483 -0.126907 -0.017785 -0.158569 -0.119589 -0.0155943 -0.155736 
-0.136792 -0.0135459 -0.158343 -0.125899 -0.0134718 -0.157447 -0.126482 -0.00741551 -0.158056 
-0.137134 -0.00603393 -0.156414 -0.121015 -0.00426725 -0.156999 -0.118086 -0.00689413 -0.155703 
-0.124567 0.004525 -0.157399 -0.126506 0.00974257 -0.157858 -0.122343 0.00858734 -0.157306 
-0.129158 0.0167796 -0.158493 -0.124839 0.0185998 -0.15649 -0.130221 0.0279668 -0.158438 
-0.122951 0.0253943 -0.155781 -0.127969 0.0316774 -0.15562 -0.13868 0.0463917 -0.157188 
-0.167232 -0.0769043 -0.153263 -0.137966 -0.0448857 -0.154938 -0.124413 -0.0395465 -0.152313 
-0.117331 -0.0137561 -0.15471 -0.112607 -0.00799479 -0.152798 -0.113969 -0.00380442 -0.152985 
-0.109784 -0.00559893 -0.151934 -0.116485 0.00315089 -0.155125 -0.122697 0.0219939 -0.152722 
-0.124521 0.026709 -0.153069 -0.119612 0.0274403 -0.152978 -0.13225 0.0478214 -0.154088 
-0.133821 -0.0624207 -0.148837 -0.126613 -0.0566467 -0.148538 -0.118048 -0.0370698 -0.148707 
[...]
POINT_DATA 687
FIELD FieldData 7
id 1 687 int
6 10 2 44 12 11 20 57 1 
13 25 51 30 38 23 29 21 14 
3 33 19 47 28 5 40 7 4 
69 54 60 93 56 27 73 66 45 
173 37 89 61 52 36 100 8 42 
94 120 85 87 59 77 133 55 91 
147 41 39 15 117 63 131 176 31 
17 84 113 78 58 71 126 50 46 
74 65 125 153 88 145 139 76 80 
24 43 98 67 86 162 62 101 97 
207 18 53 92 110 112 130 190 164 
111 48 102 108 95 103 196 137 75 
34 168 26 141 140 148 186 177 121 
193 122 174 187 150 179 104 202 180 
129 82 68 160 118 114 163 81 178 
171 79 198 195 159 154 127 106 138 
49 107 219 151 352 70 189 132 142 
215 204 241 210 144 83 265 123 166 
184 156 158 278 134 183 116 136 115 
169 105 119 225 157 294 229 250 167 
211 221 270 143 252 170 199 200 99 
213 109 244 149 181 205 124 209 212 
228 208 64 135 272 146 175 324 254 
96 234 72 223 152 284 182 161 224 
317 206 290 188 185 201 172 197 236 
280 295 277 249 245 261 128 191 251 
305 276 332 293 297 233 299 287 273 
322 289 307 298 220 292 314 363 321 
264 275 253 256 222 267 227 247 238 
218 304 266 192 226 242 230 155 263 
260 274 255 258 243 235 330 259 303 
316 339 296 262 348 368 288 214 203 
281 283 333 337 315 318 232 194 248 
310 347 217 300 282 306 165 308 271 
370 237 285 302 240 390 311 320 367 
377 327 341 335 422 353 313 351 291 
354 246 418 382 362 343 286 331 407 
269 9 344 216 329 387 336 371 405 
401 358 446 349 323 231 340 447 279 
90 366 239 423 389 355 399 350 409 
309 388 257 326 470 386 372 346 374 
301 325 319 438 396 394 384 381 338 
365 328 268 378 429 360 400 380 411 
448 459 403 425 345 356 395 473 408 
375 454 334 420 414 404 342 398 484 
444 385 361 376 430 312 357 393 427 
421 419 416 445 391 369 424 383 433 
359 478 373 406 392 451 482 413 468 
489 415 364 481 441 477 402 437 511 
466 483 488 510 464 379 491 460 428 
397 435 505 412 442 434 410 508 531 
534 519 467 455 492 497 431 465 439 
490 498 417 449 487 495 476 440 501 
493 507 457 426 486 458 463 529 456 
480 496 485 506 517 450 520 526 515 
532 462 523 536 475 500 530 461 502 
522 436 504 514 516 543 524 452 525 
518 533 513 541 548 527 471 453 546 
539 503 542 521 540 474 469 538 443 
549 528 499 545 509 535 479 494 547 
512 432 544 472 537 559 555 550 552 
561 562 557 558 553 560 554 556 551 
566 569 564 565 563 574 571 572 568 
567 570 573 587 575 582 588 576 579 
581 580 577 583 578 586 585 584 596 
591 595 601 598 589 590 597 593 594 
600 599 592 611 608 602 603 607 605 
610 604 613 606 612 615 614 609 616 
618 626 623 624 620 621 622 625 617 
619 629 627 640 628 636 639 635 638 
637 632 634 631 633 630 650 652 645 
642 647 646 643 641 649 651 653 644 
648 663 658 666 654 664 655 665 659 
662 656 660 657 661 668 667 669 676 
670 677 671 678 672 675 673 674 679 
680 681 682 683 684 685 686 687 688 
689 690 691 
type 1 687 int
1 1 1 1 1 1 1 1 1 
1 1 1 1 1 1 1 1 1 
1 1 1 1 1 1 1 1 1 
1 1 1 1 1 1 1 1 1 
1 1 1 1 1 1 1 1 1 
1 1 1 1 1 1 1 1 1 
1 1 1 1 1 1 1 1 1 
1 1 1 1 1 1 1 1 1 
1 1 1 1 1 1 1 1 1 
1 1 1 1 1 1 1 1 1 
1 1 1 1 1 1 1 1 1 
1 1 1 1 1 1 1 1 1 
1 1 1 1 1 1 1 1 1 
1 1 1 1 1 1 1 1 1 
1 1 1 1 1 1 1 1 1 
1 1 1 1 1 1 1 1 1 
1 1 1 1 1 1 1 1 1 
1 1 1 1 1 1 1 1 1 
1 1 1 1 1 1 1 1 1 
1 1 1 1 1 1 1 1 1 
1 1 1 1 1 1 1 1 1 
1 1 1 1 1 1 1 1 1 
1 1 1 1 1 1 1 1 1 
1 1 1 1 1 1 1 1 1 
1 1 1 1 1 1 1 1 1 
1 1 1 1 1 1 1 1 1 
1 1 1 1 1 1 1 1 1 
1 1 1 1 1 1 1 1 1 
1 1 1 1 1 1 1 1 1 
1 1 1 1 1 1 1 1 1 
1 1 1 1 1 1 1 1 1 
1 1 1 1 1 1 1 1 1 
1 1 1 1 1 1 1 1 1 
1 1 1 1 1 1 1 1 1 
1 1 1 1 1 1 1 1 1 
1 1 1 1 1 1 1 1 1 
1 1 1 1 1 1 1 1 1 
1 1 1 1 1 1 1 1 1 
1 1 1 1 1 1 1 1 1 
1 1 1 1 1 1 1 1 1 
1 1 1 1 1 1 1 1 1 
1 1 1 1 1 1 1 1 1 
1 1 1 1 1 1 1 1 1 
1 1 1 1 1 1 1 1 1 
1 1 1 1 1 1 1 1 1 
1 1 1 1 1 1 1 1 1 
1 1 1 1 1 1 1 1 1 
1 1 1 1 1 1 1 1 1 
1 1 1 1 1 1 1 1 1 
1 1 1 1 1 1 1 1 1 
1 1 1 1 1 1 1 1 1 
1 1 1 1 1 1 1 1 1 
1 1 1 1 1 1 1 1 1 
1 1 1 1 1 1 1 1 1 
1 1 1 1 1 1 1 1 1 
1 1 1 1 1 1 1 1 1 
1 1 1 1 1 1 1 1 1 
1 1 1 1 1 1 1 1 1 
1 1 1 1 1 1 1 1 1 
1 1 1 1 1 1 1 1 1 
1 1 1 1 1 1 1 1 1 
1 1 1 1 1 1 1 1 1 
1 1 1 1 1 1 1 1 1 
1 1 1 1 1 1 1 1 1 
1 1 1 1 1 1 1 1 1 
1 1 1 1 1 1 1 1 1 
1 1 1 1 1 1 1 1 1 
1 1 1 1 1 1 1 1 1 
1 1 1 1 1 1 1 1 1 
1 1 1 1 1 1 1 1 1 
1 1 1 1 1 1 1 1 1 
1 1 1 1 1 1 1 1 1 
1 1 1 1 1 1 1 1 1 
1 1 1 1 1 1 1 1 1 
1 1 1 1 1 1 1 1 1 
1 1 1 1 1 1 1 1 1 
1 1 1 
i 3 687 int
0 0 0 0 0 0 0 0 0 
0 0 0 0 0 0 0 0 0 
0 0 0 0 0 0 0 0 0 
0 0 0 0 0 0 0 0 0 
0 0 0 0 0 0 0 0 0 
0 0 0 0 0 0 0 0 0 
0 0 0 0 0 0 0 0 0 
0 0 0 0 0 0 0 0 0 
0 0 0 0 0 0 0 0 0 
0 0 0 0 0 0 0 0 0 
0 0 0 0 0 0 0 0 0 
0 0 0 0 0 0 0 0 0 
0 0 0 0 0 0 0 0 0 
0 0 0 0 0 0 0 0 0 
0 0 0 0 0 0 0 0 0 
0 0 0 0 0 0 0 0 0 
0 0 0 0 0 0 0 0 0 
0 0 0 0 0 0 0 0 0 
0 0 0 0 0 0 0 0 0 
0 0 0 0 0 0 0 0 0 
0 0 0 0 0 0 0 0 0 
0 0 0 0 0 0 0 0 0 
0 0 0 0 0 0 0 0 0 
0 0 0 0 0 0 0 0 0 
0 0 0 0 0 0 0 0 0 
0 0 0 0 0 0 0 0 0 
0 0 0 0 0 0 0 0 0 
0 0 0 0 0 0 0 0 0 
0 0 0 0 0 0 0 0 0 
0 0 0 0 0 0 0 0 0 
0 0 0 0 0 0 0 0 0 
0 0 0 0 0 0 0 0 0 
0 0 0 0 0 0 0 0 0 
0 0 0 0 0 0 0 0 0 
0 0 0 0 0 0 0 0 0 
0 0 0 0 0 0 0 0 0 
0 0 0 0 0 0 0 0 0 
0 0 0 0 0 0 0 0 0 
0 0 0 0 0 0 0 0 0 
0 0 0 0 0 0 0 0 0 
0 0 0 0 0 0 0 0 0 
0 0 0 0 0 0 0 0 0 
0 0 0 0 0 0 0 0 0 
0 0 0 0 0 0 0 0 0 
0 0 0 0 0 0 0 0 0 
0 0 0 0 0 0 0 0 0 
0 0 0 0 0 0 0 0 0 
0 0 0 0 0 0 0 0 0 
0 0 0 0 0 0 0 0 0 
0 0 0 0 0 0 0 0 0 
0 0 0 0 0 0 0 0 0 
0 0 0 0 0 0 0 0 0 
0 0 0 0 0 0 0 0 0 
0 0 0 0 0 0 0 0 0 
0 0 0 0 0 0 0 0 0 
0 0 0 0 0 0 0 0 0 
0 0 0 0 0 0 0 0 0 
0 0 0 0 0 0 0 0 0 
0 0 0 0 0 0 0 0 0 
0 0 0 0 0 0 0 0 0 
0 0 0 0 0 0 0 0 0 
0 0 0 0 0 0 0 0 0 
0 0 0 0 0 0 0 0 0 
0 0 0 0 0 0 0 0 0 
0 0 0 0 0 0 0 0 0 
0 0 0 0 0 0 0 0 0 
0 0 0 0 0 0 0 0 0 
0 0 0 0 0 0 0 0 0 
0 0 0 0 0 0 0 0 0 
0 0 0 0 0 0 0 0 0 
0 0 0 0 0 0 0 0 0 
0 0 0 0 0 0 0 0 0 
0 0 0 0 0 0 0 0 0 
0 0 0 0 0 0 0 0 0 
0 0 0 0 0 0 0 0 0 
0 0 0 0 0 0 0 0 0 
0 0 0 0 0 0 0 0 0 
0 0 0 0 0 0 0 0 0 
0 0 0 0 0 0 0 0 0 
0 0 0 0 0 0 0 0 0 
0 0 0 0 0 0 0 0 0 
0 0 0 0 0 0 0 0 0 
0 0 0 0 0 0 0 0 0 
0 0 0 0 0 0 0 0 0 
0 0 0 0 0 0 0 0 0 
0 0 0 0 0 0 0 0 0 
0 0 0 0 0 0 0 0 0 
0 0 0 0 0 0 0 0 0 
0 0 0 0 0 0 0 0 0 
0 0 0 0 0 0 0 0 0 
0 0 0 0 0 0 0 0 0 
0 0 0 0 0 0 0 0 0 
0 0 0 0 0 0 0 0 0 
0 0 0 0 0 0 0 0 0 
0 0 0 0 0 0 0 0 0 
0 0 0 0 0 0 0 0 0 
0 0 0 0 0 0 0 0 0 
0 0 0 0 0 0 0 0 0 
0 0 0 0 0 0 0 0 0 
0 0 0 0 0 0 0 0 0 
0 0 0 0 0 0 0 0 0 
0 0 0 0 0 0 0 0 0 
0 0 0 0 0 0 0 0 0 
0 0 0 0 0 0 0 0 0 
0 0 0 0 0 0 0 0 0 
0 0 0 0 0 0 0 0 0 
0 0 0 0 0 0 0 0 0 
0 0 0 0 0 0 0 0 0 
0 0 0 0 0 0 0 0 0 
0 0 0 0 0 0 0 0 0 
0 0 0 0 0 0 0 0 0 
0 0 0 0 0 0 0 0 0 
0 0 0 0 0 0 0 0 0 
0 0 0 0 0 0 0 0 0 
0 0 0 0 0 0 0 0 0 
0 0 0 0 0 0 0 0 0 
0 0 0 0 0 0 0 0 0 
0 0 0 0 0 0 0 0 0 
0 0 0 0 0 0 0 0 0 
0 0 0 0 0 0 0 0 0 
0 0 0 0 0 0 0 0 0 
0 0 0 0 0 0 0 0 0 
0 0 0 0 0 0 0 0 0 
0 0 0 0 0 0 0 0 0 
0 0 0 0 0 0 0 0 0 
0 0 0 0 0 0 0 0 0 
0 0 0 0 0 0 0 0 0 
0 0 0 0 0 0 0 0 0 
0 0 0 0 0 0 0 0 0 
0 0 0 0 0 0 0 0 0 
0 0 0 0 0 0 0 0 0 
0 0 0 0 0 0 0 0 0 
0 0 0 0 0 0 0 0 0 
0 0 0 0 0 0 0 0 0 
0 0 0 0 0 0 0 0 0 
0 0 0 0 0 0 0 0 0 
0 0 0 0 0 0 0 0 0 
0 0 0 0 0 0 0 0 0 
0 0 0 0 0 0 0 0 0 
0 0 0 0 0 0 0 0 0 
0 0 0 0 0 0 0 0 0 
0 0 0 0 0 0 0 0 0 
0 0 0 0 0 0 0 0 0 
0 0 0 0 0 0 0 0 0 
0 0 0 0 0 0 0 0 0 
0 0 0 0 0 0 0 0 0 
0 0 0 0 0 0 0 0 0 
0 0 0 0 0 0 0 0 0 
0 0 0 0 0 0 0 0 0 
0 0 0 0 0 0 0 0 0 
0 0 0 0 0 0 0 0 0 
0 0 0 0 0 0 0 0 0 
0 0 0 0 0 0 0 0 0 
0 0 0 0 0 0 0 0 0 
0 0 0 0 0 0 0 0 0 
0 0 0 0 0 0 0 0 0 
0 0 0 0 0 0 0 0 0 
0 0 0 0 0 0 0 0 0 
0 0 0 0 0 0 0 0 0 
0 0 0 0 0 0 0 0 0 
0 0 0 0 0 0 0 0 0 
0 0 0 0 0 0 0 0 0 
0 0 0 0 0 0 0 0 0 
0 0 0 0 0 0 0 0 0 
0 0 0 0 0 0 0 0 0 
0 0 0 0 0 0 0 0 0 
0 0 0 0 0 0 0 0 0 
0 0 0 0 0 0 0 0 0 
0 0 0 0 0 0 0 0 0 
0 0 0 0 0 0 0 0 0 
0 0 0 0 0 0 0 0 0 
0 0 0 0 0 0 0 0 0 
0 0 0 0 0 0 0 0 0 
0 0 0 0 0 0 0 0 0 
0 0 0 0 0 0 0 0 0 
0 0 0 0 0 0 0 0 0 
0 0 0 0 0 0 0 0 0 
0 0 0 0 0 0 0 0 0 
0 0 0 0 0 0 0 0 0 
0 0 0 0 0 0 0 0 0 
0 0 0 0 0 0 0 0 0 
0 0 0 0 0 0 0 0 0 
0 0 0 0 0 0 0 0 0 
0 0 0 0 0 0 0 0 0 
0 0 0 0 0 0 0 0 0 
0 0 0 0 0 0 0 0 0 
0 0 0 0 0 0 0 0 0 
0 0 0 0 0 0 0 0 0 
0 0 0 0 0 0 0 0 0 
0 0 0 0 0 0 0 0 0 
0 0 0 0 0 0 0 0 0 
0 0 0 0 0 0 0 0 0 
0 0 0 0 0 0 0 0 0 
0 0 0 0 0 0 0 0 0 
0 0 0 0 0 0 0 0 0 
0 0 0 0 0 0 0 0 0 
0 0 0 0 0 0 0 0 0 
0 0 0 0 0 0 0 0 0 
0 0 0 0 0 0 0 0 0 
0 0 0 0 0 0 0 0 0 
0 0 0 0 0 0 0 0 0 
0 0 0 0 0 0 0 0 0 
0 0 0 0 0 0 0 0 0 
0 0 0 0 0 0 0 0 0 
0 0 0 0 0 0 0 0 0 
0 0 0 0 0 0 0 0 0 
0 0 0 0 0 0 0 0 0 
0 0 0 0 0 0 0 0 0 
0 0 0 0 0 0 0 0 0 
0 0 0 0 0 0 0 0 0 
0 0 0 0 0 0 0 0 0 
0 0 0 0 0 0 0 0 0 
0 0 0 0 0 0 0 0 0 
0 0 0 0 0 0 0 0 0 
0 0 0 0 0 0 0 0 0 
0 0 0 0 0 0 0 0 0 
0 0 0 0 0 0 0 0 0 
0 0 0 0 0 0 0 0 0 
0 0 0 0 0 0 0 0 0 
0 0 0 0 0 0 0 0 0 
0 0 0 0 0 0 0 0 0 
0 0 0 0 0 0 0 0 0 
0 0 0 0 0 0 0 0 0 
0 0 0 0 0 0 0 0 0 
0 0 0 0 0 0 0 0 0 
0 0 0 0 0 0 0 0 0 
0 0 0 0 0 0 0 0 0 
0 0 0 0 0 0 0 0 0 
0 0 0 0 0 0 0 0 0 

v 3 687 double
-1.3674 -0.00979849 -1.62024 -1.29594 0.0210826 -1.58606 -1.353 -0.0201427 -1.57807 
-1.32487 -0.0121692 -1.55477 -1.37111 0.0250101 -1.54157 -1.28523 -0.041963 -1.46776 
-1.23863 -0.175653 -1.59902 -1.40329 -0.151216 -1.4715 -1.29447 -0.0102819 -1.44378 
-1.29435 0.223299 -1.3905 -1.30627 -0.0249384 -1.37786 -1.05489 0.35516 -1.73852 
-1.29539 0.0619969 -1.33041 -1.30976 -0.0504093 -1.30782 -1.24968 -0.0603932 -1.2781 
-1.31046 -0.0406686 -1.29778 -1.35161 -0.0860827 -1.32669 -1.14598 0.0397467 -1.17902 
-1.25453 0.15366 -1.14612 -1.24054 0.158113 -1.21722 -1.15852 -0.00366611 -1.07097 
-1.26391 -0.022145 -1.07629 -1.25545 0.0607519 -1.05384 -1.29111 0.108538 -1.03134 
-1.31252 0.0560466 -0.995425 -1.03567 0.00503888 -0.923279 -1.1754 0.0941172 -0.999099 
-1.16904 0.0606071 -0.91795 -1.27288 0.103865 -0.94131 -1.10742 -0.415567 -1.18828 
-1.29371 0.114281 -0.905746 -1.127 0.00706554 -0.806201 -1.20862 -0.0337326 -0.903742 
-1.13117 0.0301638 -0.82771 -1.29017 0.0193838 -0.901446 -1.16584 0.0815287 -0.821636 
-1.39897 0.113604 -0.901852 -1.25129 0.122772 -0.781784 -1.18765 0.0540333 -0.776475 
-1.19603 0.0530832 -0.774114 -1.18543 0.0175571 -0.72088 -1.17839 0.0211692 -0.723537 
-1.24546 0.0513306 -0.642424 -1.16776 0.0724586 -0.721408 -1.18361 -0.0528103 -0.664914 
-1.26834 -0.0207936 -0.751202 -1.04352 -0.042083 -0.669424 -1.19366 0.102042 -0.640108 
-1.23072 0.093899 -0.633363 -1.10253 -0.0562905 -0.572403 -1.10183 0.0117228 -0.513104 
-1.15886 -0.0318438 -0.480551 -1.13427 -0.039471 -0.454762 -0.998737 -0.0314326 -0.472121 
-1.2655 -0.225398 -0.702404 -1.1064 -0.0645026 -0.455378 -1.08412 -0.04999 -0.459406 
-1.09953 -0.0588252 -0.466478 -1.22027 -0.376045 -0.636553 -1.22745 0.255698 -0.548455 
-1.17113 -0.248078 -0.605475 -1.06595 -0.0275807 -0.529623 -1.09591 0.0134081 -0.461713 
-1.10271 -0.0104914 -0.464629 -1.10424 0.0442302 -0.452174 -1.10364 0.0313118 -0.464469 
-1.10716 0.0400845 -0.470214 -1.03888 0.0210939 -0.439374 -0.992424 -0.053957 -0.416541 
-1.18874 -0.150001 -0.511422 -1.03006 0.0777234 -0.44197 -1.06022 0.0359987 -0.449963 
-1.03418 0.0321237 -0.438537 -1.04618 -0.0886437 -0.447913 -1.05719 -0.119654 -0.454145 
-1.1048 -0.0922424 -0.466222 -1.12882 -0.236162 -0.503976 -1.18063 -0.0189934 -0.500956 
-1.23894 -0.418897 -0.810096 -0.922669 -0.0153381 -0.350924 -1.02735 0.00417564 -0.443986 
-1.15304 0.0582081 -0.491339 -1.06385 0.078612 -0.411013 -0.930328 -0.0383268 -0.381367 
-1.00506 0.0475286 -0.420561 -0.966795 0.0258617 -0.397271 -1.01796 0.0620811 -0.416694 
-1.06086 0.126417 -0.447112 -1.01026 0.110153 -0.447824 -1.00807 0.350545 -0.449051 
-1.32046 -0.122847 -0.361535 -0.897347 -0.11547 -0.350589 -0.889699 -0.037807 -0.371153 
-0.879881 -0.0348826 -0.366846 -0.834968 -0.0146274 -0.335635 -0.976032 0.0965066 -0.413605 
-0.971118 0.0607148 -0.414264 -1.09783 -0.0153957 -0.467573 -0.959021 0.0415547 -0.389993 
-1.10707 0.0508611 -0.453726 -1.03855 -0.027577 -0.431611 -0.953969 -0.0624662 -0.41749 
-1.14519 -0.00558543 -0.479255 -1.01985 0.0137765 -0.464515 -1.03678 0.000579867 -0.430625 
-0.961362 0.0490948 -0.406138 -0.934473 0.0815567 -0.393481 -0.988412 0.164909 -0.40626 
-0.992208 -0.0504725 -0.454957 -1.12007 -0.00470419 -0.482033 -1.01072 0.062538 -0.415229 
-1.07846 0.084792 -0.443452 -1.08981 0.0422286 -0.458777 -0.825391 0.15446 -0.353491 
-0.863436 0.0916197 -0.332486 -0.840641 0.0843237 -0.256121 -0.956926 0.0173415 -0.399841 
-0.991787 -0.150924 -0.441624 -1.02358 -0.16114 -0.449707 -1.03774 0.110174 -0.432368 
-0.92389 -0.0966082 -0.385422 -0.840758 0.0265237 -0.33953 -0.830396 -0.0184219 -0.327548 
-0.826172 0.0825007 -0.364259 -1.01918 0.0279482 -0.436103 -0.827895 0.107205 -0.400458 
-0.907477 0.136761 -0.379257 -0.897789 0.154112 -0.370177 -0.958437 -0.0245702 -0.401361 
-0.887638 -0.0936368 -0.37262 -0.914265 -0.0938389 -0.401704 -0.923811 -0.14298 -0.402322 
-0.941614 -0.0553083 -0.39722 -1.03547 -0.281543 -0.520946 -0.887095 -0.0414629 -0.352658 
-0.816958 0.0357987 -0.325933 -0.893684 0.0352952 -0.396727 -0.839323 0.0372706 -0.351217 
-0.945527 -0.00500791 -0.404958 -0.84059 -0.172015 -0.364178 -0.825256 -0.0915856 -0.546652 
-0.702779 -0.0907222 -0.318056 -0.819459 -0.0957966 -0.350808 -0.852883 -0.0414768 -0.361446 
-0.863775 -0.0651489 -0.365997 -0.827067 -0.0541419 -0.368256 -0.965752 -0.0268523 -0.409922 
-0.899511 -0.0639217 -0.392885 -1.45652 0.242242 -1.07162 -0.928452 0.165952 -0.410846 
-1.06178 0.0831537 -0.447337 -0.979631 -0.0329714 -0.405579 -0.819949 0.0502719 -0.345501 
-0.799746 0.0491337 -0.394798 -0.825453 0.0553154 -0.523992 -0.738152 -0.202483 -0.311102 
-1.0099 -0.0384192 -0.42088 -0.865007 -0.0238563 -0.372206 -0.940889 -0.0439725 -0.396809 
-1.08413 0.0538411 -0.454063 -0.978974 0.0187694 -0.408664 -0.76675 -0.0408641 -0.314031 
-0.697771 -0.000528853 -0.290622 -0.926545 -0.0248201 -0.401588 -0.923553 -0.113185 -0.407808 
-0.815865 -0.230882 -0.197189 -0.939085 0.0277687 -0.400436 -0.969612 0.0384425 -0.420443 
-0.93871 0.0089672 -0.38524 -0.898445 0.0154992 -0.379155 -0.88907 0.0734344 -0.369526 
-0.895183 -0.0102999 -0.382298 -0.902636 -0.00828069 -0.38481 -0.935102 -0.1752 -0.421658 
-0.990033 0.00438806 -0.420259 -0.965443 -0.0104826 -0.374115 -1.40121 -0.187131 -0.601382 
-0.82946 -0.0640425 -0.321108 -0.776348 -0.049715 -0.326436 -0.880523 0.148024 -0.580401 
-0.765743 0.0114186 -0.32829 -0.872072 0.0952118 -0.418716 -0.931188 0.170511 -0.388359 
-0.752357 0.000838654 -0.246058 -0.882983 -0.0549068 -0.382965 -0.891286 -0.0102265 -0.369645 
-0.9012 -0.210896 -0.406439 -0.887894 0.206778 -0.374587 -0.878423 -0.154202 -0.405006 
-0.965025 -0.101814 -0.42205 -0.926281 0.322583 -0.45184 -1.01403 0.0675137 -0.431541 
-0.753761 0.14235 -0.35641 -0.708248 0.0212637 -0.294953 -0.893343 -0.0254465 -0.381711 
-0.812673 0.0442431 -0.350593 -0.785546 -0.0195824 -0.329583 -0.813373 -0.0505038 -0.351798 
-0.905119 -4.65615e-05 -0.377685 -0.988221 -0.0337039 -0.422804 -0.902147 -0.134892 -0.41128 
-0.787551 0.419913 -0.456842 -0.8479 -0.0424896 -0.239278 -0.764064 -0.0595211 -0.328638 
-0.814629 -0.0697184 -0.352188 -1.38782 0.160646 -0.0012573 -0.767705 0.0113155 -0.319443 
-0.763716 0.0118289 -0.323604 -0.999424 0.10123 -0.391675 -0.929344 -0.109246 -0.410691 
-0.79579 -0.00876184 -0.320319 -0.855109 0.0316335 -0.332505 -0.847005 0.0514007 -0.36621 
-0.833336 -0.0298207 -0.348515 -0.784609 0.00642458 -0.322441 -0.627572 0.0820633 -0.238467 
-0.955503 0.0861995 -0.609619 -0.61751 0.0505969 -0.234893 -0.831109 0.173862 -0.322631 
-0.966005 0.263801 -0.537284 -0.865917 -0.0246787 -0.337263 -0.855377 0.00492331 -0.342638 
-0.765314 0.0493713 -0.314485 -0.689029 -0.0289097 -0.282352 -0.762595 0.0454773 -0.319775 
-0.819596 0.130162 -0.343966 -0.77023 0.0853021 -0.337501 -1.10629 0.134062 -0.357036 
-0.755444 0.12849 -0.32703 -0.654685 -0.0360106 -0.168899 -0.706796 -0.187207 -0.260265 
-0.546378 0.120334 -0.190042 -0.874601 0.0597482 -0.358276 -1.0125 0.0675619 -0.358461 
-1.03176 -0.03909 -0.354941 -0.627679 -0.107613 -0.254108 -0.763126 -0.204451 -0.290401 
-0.818148 -0.013129 -0.340926 -1.07033 -0.160814 -0.628534 -0.783227 0.0882449 -0.336955 
-0.63799 -0.146582 -0.253458 -0.798869 -0.0732538 -0.339283 -0.680166 -0.0283493 -0.222977 
-0.837553 -0.0475564 -0.225023 -0.978615 -0.0213111 -0.404621 -1.02782 -0.0141591 0.0999926 
-0.735266 0.0247614 -0.367983 -0.658147 -0.0318134 -0.281384 -0.544925 0.00254156 -0.235804 
-0.561066 0.00168647 -0.243071 -0.733109 -0.0281521 -0.319974 -0.76236 0.0549248 -0.323787 
-0.761335 -0.0576179 -0.329175 -0.729713 -0.051927 -0.32841 -0.750994 0.115463 -0.288223 
-0.814979 -0.0161458 -0.332769 -0.768476 0.0826578 -0.3397 -0.61262 0.0325216 -0.263248 
-0.505938 -0.0376821 -0.215675 -0.504651 -0.0420119 -0.223316 -0.445206 -0.0275574 -0.189747 
-0.609868 -0.0416325 -0.252225 -0.627505 0.0481142 -0.275207 -0.581979 -0.0226883 -0.321414 
-0.61111 0.04509 -0.200446 -0.645781 0.0376161 -0.26292 -0.751489 0.0920194 -0.294922 
-0.633808 -0.0193455 -0.276492 -0.642835 -0.0903848 -0.294031 -0.695169 0.114616 -0.29932 
-0.539455 0.0420704 -0.237514 -0.458988 0.0657288 -0.21689 -0.74396 -0.0328991 -0.375475 
-0.558152 -0.0101743 -0.24113 -0.546275 0.0310159 -0.235064 -0.577387 0.0906617 -0.242045 
-0.685005 0.154665 -0.43363 -0.659749 0.0636817 -0.281346 -0.619512 -0.0388042 -0.272186 
-1.05657 0.00834929 -0.467329 -0.889635 0.0808825 -0.415482 -0.952936 0.0943762 -0.672523 
-0.72638 -0.0260927 -0.316387 -0.845719 0.0427704 -0.338133 -0.804195 0.0635274 -0.35238 
-0.825451 -0.0700706 -0.290385 -0.633453 -0.0115862 -0.262515 -0.619162 0.0084941 -0.258956 
-0.924778 0.124557 -0.345819 -0.604204 -0.0597361 -0.249365 -0.577745 0.00597526 -0.312445 
-1.00439 0.0451065 -0.396024 -0.717209 0.005504 -0.268009 -0.712299 0.0554542 -0.3052 
-0.632803 0.0407633 -0.256863 -0.574348 0.0239496 -0.233982 -0.58737 0.0503772 -0.237618 
-0.720642 0.0572719 -0.28517 -0.668993 0.15419 -0.199529 -0.65047 0.0591932 -0.270237 
-0.806377 0.119881 -0.321234 -0.700735 0.109059 -0.267136 -0.849827 0.129334 -0.306026 
-0.84973 0.139136 -0.391743 -0.752981 -0.0390075 -0.322118 -0.518994 -0.000593501 -0.213705 
-0.641891 0.0500202 -0.261352 -0.616739 -0.00699856 -0.225072 -0.672622 0.0388869 -0.283099 
-0.566174 0.120281 -0.26689 -0.571573 0.000789236 -0.241013 -0.754329 0.27589 -0.408857 
-0.892447 0.0932399 -0.560035 -0.740315 0.0435924 -0.30483 -0.757733 0.284895 -0.219163 
-0.934081 -0.218256 -0.27147 -0.794657 -0.16798 -0.244418 -0.412481 0.0545202 -0.217161 
-0.577238 -0.242258 -0.217616 -0.86329 -0.19171 -0.750781 -0.880171 -0.206234 -0.450806 
-0.697724 -0.011459 -0.292025 -0.605958 0.0334166 -0.254877 -0.683745 0.0687265 -0.294323 
-0.895587 0.0780118 -0.332005 -0.681423 0.113116 -0.293307 -1.179 0.045763 -0.934557 
-0.64535 -0.0497907 -0.197439 -0.765808 0.101762 -0.240461 -0.723221 0.12893 -0.288631 
-0.656307 -0.112051 -0.283905 -0.703136 -0.00600776 -0.297955 -0.828954 -0.216071 -0.408371 
-0.668815 -0.0818106 -0.297533 -0.690878 0.486606 -0.567925 -0.575741 -0.116116 -0.201673 
-0.727512 -0.0249643 -0.300465 -1.03939 -0.317129 -0.500772 -0.689344 0.151103 -0.296913 
-0.649506 0.0932701 -0.284772 -0.636188 -0.175959 -0.194772 -0.754938 0.181228 -0.797971 
-0.666558 0.123167 -0.144513 -0.560704 -0.0545832 -0.238715 -1.04407 0.0720559 -0.573878 
-0.884606 -0.117005 -0.35748 -0.624434 -0.0224603 -0.246488 -0.687089 0.0038649 -0.284835 
-0.557665 -0.128216 -0.254217 -1.0114 -0.0256034 -0.32983 -0.65222 -0.070166 -0.290964 
-0.6265 -0.0731 -0.280608 -0.868979 -0.231888 -0.24167 -0.652531 -0.12385 -0.227876 
-0.921795 0.154916 -0.472008 -0.608968 -0.00590871 -0.258689 -0.548754 0.073789 -0.237 
-1.08196 0.0118745 -0.128206 -0.478271 -0.144781 -0.202341 -0.720017 0.322425 -0.769845 
-0.625088 -0.0348672 -0.256205 -0.869401 -0.0995532 -0.526318 -0.613309 -0.00202824 -0.256597 
-0.555525 -0.030417 -0.238955 -1.07282 0.423516 -0.752088 -0.898233 0.114897 -0.328468 
-0.676204 -0.237901 -0.883935 -0.440518 0.0285954 -0.187339 -0.57 0.0146847 -0.249299 
-0.541907 -0.13921 -0.222026 -0.53109 0.0409492 -0.18528 -0.605127 -0.065211 -0.235644 
-1.10777 -0.191553 -0.710149 -0.608449 -0.0135776 -0.104274 -0.313107 0.0186984 -0.0288615 
-0.840222 0.129102 -0.573517 -0.899882 -0.0500939 -0.169447 -0.521644 -0.032627 -0.220869 
-0.594536 -0.116291 -0.236684 -0.344542 -0.0588306 -0.151142 -0.572413 -0.125085 -0.258176 