# vtk DataFile Version 4.0
Generated by LIGGGHTS
ASCII
DATASET POLYDATA
POINTS 808 float
-0.00273849 0.028857 0.05132 -0.00141812 0.0333273 0.0484285 -0.0275759 -0.015348 0.0485492 
-0.00998074 -0.0273859 0.0479965 -0.0116132 0.0345004 0.0448003 -0.0292225 -0.029497 0.0455186 
-0.00751165 0.0184283 0.0429651 -0.48008 -0.017633 -0.400236 -0.461407 -0.00988298 -0.399008 
-0.00821807 0.0041592 0.0472061 -0.459152 -0.0150876 -0.394514 -0.48626 0.0025639 -0.392567 
-0.472805 -0.00837802 -0.385798 -0.472995 0.00157069 -0.387401 -0.468425 -0.00885937 -0.382327 
-0.473525 -0.00285589 -0.382549 -0.467041 -0.00389983 -0.383549 -0.464458 -0.0049297 -0.377576 
-0.467995 -0.0199188 -0.376972 -0.469875 -0.0141935 -0.374695 -0.472137 0.0138976 -0.376065 
-0.454387 -0.00478906 -0.372676 -0.46827 -0.00853355 -0.369801 -0.454449 0.00618987 -0.367529 
-0.438253 0.0141967 -0.370463 -0.455704 0.0184531 -0.368164 -0.439731 -0.0259624 -0.365566 
-0.455437 -0.00441329 -0.363244 -0.461081 -0.0033196 -0.366463 -0.443589 0.00623413 -0.363585 
-0.448485 -0.0233211 -0.360195 -0.443626 -0.00992487 -0.361697 -0.451634 0.00395983 -0.359956 
-0.449639 0.00626271 -0.361802 -0.454057 -0.0156395 -0.35224 -0.436636 -0.0129104 -0.354286 
-0.437402 -0.00218381 -0.353469 -0.448886 0.00539963 -0.354164 -0.440121 0.00658885 -0.353318 
-0.450317 -0.0178825 -0.349315 -0.431999 -0.00327272 -0.349927 -0.444506 0.00639807 -0.349724 
-0.444324 -0.0224606 -0.345785 -0.441608 0.00442343 -0.34676 -0.436708 0.00784462 -0.345794 
-0.4363 -0.0193296 -0.337761 -0.446445 -0.00791355 -0.339224 -0.423378 -0.0084017 -0.335453 
-0.427375 0.00130658 -0.333359 -0.430013 0.0113917 -0.335873 -0.439118 -0.0128741 -0.329642 
-0.44137 -0.00378793 -0.332808 -0.432192 -0.00716994 -0.331893 -0.435499 0.000509916 -0.329527 
-0.427836 -0.00977175 -0.326826 -0.458487 0.0441448 -0.326567 -0.418405 -0.0105297 -0.320664 
-0.404493 0.00192861 -0.311359 -0.414066 0.00672264 -0.311427 -0.415698 0.0116416 -0.311339 
-0.40779 0.0133531 -0.313511 -0.399454 0.00768175 -0.309094 -0.406303 0.0110306 -0.305764 
-0.408652 -0.0248361 -0.302176 -0.405922 -0.00982166 -0.302253 -0.402673 0.00476717 -0.29963 
-0.405016 0.00911239 -0.301749 -0.397544 0.00688973 -0.302627 -0.42501 0.0366232 -0.303566 
-0.396857 -0.0134932 -0.297258 -0.393562 -0.000462982 -0.297859 -0.399614 -0.00251397 -0.297497 
-0.395155 0.0021106 -0.298589 -0.39601 0.00821775 -0.29835 -0.390663 0.0121549 -0.2976 
-0.394941 -0.015089 -0.293716 -0.396092 -0.0100799 -0.292093 -0.398163 0.00029761 -0.293135 
-0.389544 0.00378433 -0.291258 -0.386138 0.00179136 -0.295075 -0.393014 0.00672989 -0.293788 
-0.395359 -0.0184476 -0.289277 -0.394382 -0.00707365 -0.288061 -0.400984 -0.0370747 -0.285972 
-0.380527 -0.0181916 -0.283938 -0.389191 -0.0099095 -0.284686 -0.390305 0.000859361 -0.284018 
-0.386734 -0.00154919 -0.28536 -0.387487 0.004296 -0.284926 -0.380429 0.00312798 -0.284055 
-0.393009 0.00866407 -0.284106 -0.388432 0.00668681 -0.286556 -0.391183 0.0139205 -0.284474 
-0.385591 -0.011786 -0.280555 -0.386705 -0.00580294 -0.280934 -0.380732 0.0129747 -0.2831 
-0.37996 0.0196811 -0.280509 -0.396554 -0.0155627 -0.278131 -0.376274 -0.0107777 -0.277258 
-0.375885 -0.004304 -0.279386 -0.368244 -0.00101707 -0.277712 -0.371673 0.000860822 -0.276385 
-0.375396 0.00940278 -0.276624 -0.373578 0.015893 -0.276608 -0.381896 -0.0127504 -0.27463 
-0.381929 -0.00335979 -0.275115 -0.371741 0.00357489 -0.273306 -0.368901 -0.0133321 -0.269969 
-0.371507 -0.00533858 -0.270943 -0.373276 -0.00132458 -0.270457 -0.367955 0.00545203 -0.270405 
-0.364188 0.00573073 -0.268308 -0.372767 0.00807177 -0.271959 -0.361034 -0.00219642 -0.265712 
-0.363271 0.00838197 -0.264728 -0.382473 0.0394518 -0.269042 -0.378056 -0.0384744 -0.266227 
-0.359149 -0.016252 -0.260257 -0.354513 -0.00979088 -0.260782 -0.356433 -0.00379669 -0.259829 
-0.354945 0.000484883 -0.26319 -0.357516 0.0042028 -0.264009 -0.358933 0.0106356 -0.26135 
-0.360125 0.0218286 -0.26076 -0.371975 0.0307141 -0.262972 -0.348775 -0.00487029 -0.255667 
-0.346122 -0.00304917 -0.256516 -0.355344 0.00733489 -0.259001 -0.349049 0.0107831 -0.256337 
-0.352316 0.0138688 -0.257099 -0.344505 -8.58423e-05 -0.253589 -0.341549 0.00255843 -0.252996 
-0.345655 0.0050658 -0.253251 -0.343362 0.0085121 -0.252038 -0.356869 0.0264054 -0.255626 
-0.3461 -0.0259082 -0.249599 -0.3445 -0.0210229 -0.252117 -0.353004 -0.0101911 -0.253538 
-0.335512 -0.00719791 -0.248052 -0.345591 -0.0052668 -0.25057 -0.339169 0.00225722 -0.249776 
-0.335501 0.00382601 -0.248152 -0.338556 0.00718303 -0.248588 -0.338481 0.0150883 -0.248696 
-0.358815 0.0297452 -0.251077 -0.341421 -0.0268634 -0.246538 -0.338582 -0.0198086 -0.245967 
-0.330754 -0.0127766 -0.244961 -0.332547 -0.00859984 -0.245043 -0.334167 -0.00327421 -0.246487 
-0.328112 -0.00326068 -0.244417 -0.331532 0.00537496 -0.244778 -0.326127 0.00761855 -0.243311 
-0.332848 0.00864711 -0.247065 -0.327 0.0106828 -0.24346 -0.329851 0.0106114 -0.244836 
-0.332248 0.0153638 -0.245331 -0.323194 -0.00356327 -0.241104 -0.324375 -6.91766e-05 -0.242934 
-0.326835 0.0139899 -0.243016 -0.331212 0.0182504 -0.243758 -0.333927 0.0314288 -0.241855 
-0.324265 -0.0300636 -0.238063 -0.3186 -0.0240258 -0.236053 -0.319811 -0.0198482 -0.237817 
-0.319895 -0.0162073 -0.239636 -0.314671 -0.0102985 -0.23825 -0.31603 -0.00710534 -0.239067 
-0.317429 0.00427458 -0.239723 -0.319665 0.01137 -0.239132 -0.308447 -0.0191713 -0.234411 
-0.310437 -0.0116384 -0.235148 -0.305582 -0.00303044 -0.233803 -0.303407 0.0153229 -0.232874 
-0.314691 -0.0234091 -0.234579 -0.298327 -0.0104457 -0.231368 -0.294935 -0.00626771 -0.230281 
-0.300504 -0.00538433 -0.232661 -0.297702 -0.00200921 -0.230339 -0.306297 0.0229 -0.231509 
-0.309991 -0.0398123 -0.228537 -0.291138 -0.0223447 -0.226561 -0.289586 -0.024636 -0.224877 
-0.286257 -0.00957499 -0.226387 -0.287742 -0.00311605 -0.227355 -0.286798 0.00607526 -0.226694 
-0.290661 0.0119297 -0.226864 -0.286473 0.0143334 -0.225999 -0.290779 0.0174698 -0.226097 
-0.297473 0.0233637 -0.227556 -0.301433 0.0267279 -0.228731 -0.29649 0.0287897 -0.227181 
-0.282971 -0.0139284 -0.224533 -0.279178 -0.0114027 -0.223211 -0.281842 -0.00764273 -0.224652 
-0.279736 -0.00461132 -0.222301 -0.297164 4.88079e-05 -0.225597 -0.283401 -9.90787e-05 -0.224541 
-0.27887 0.000803891 -0.22213 -0.282983 0.00566291 -0.225113 -0.276162 0.00442252 -0.222343 
-0.279184 0.00808241 -0.223383 -0.283102 0.0132189 -0.224706 -0.286812 0.0198835 -0.224033 
-0.289971 0.0228516 -0.22586 -0.299833 0.0405925 -0.224375 -0.285778 -0.0371042 -0.220128 
-0.279535 -0.027434 -0.219455 -0.27454 -0.00811682 -0.221615 -0.284223 0.00455839 -0.220918 
-0.276346 0.00985568 -0.22103 -0.270843 0.00889383 -0.219876 -0.267955 0.00922266 -0.218643 
-0.272581 0.0120038 -0.220434 -0.277918 0.0172303 -0.2218 -0.284388 0.0287436 -0.222167 
-0.265616 -0.0180178 -0.21675 -0.268331 -0.0143942 -0.218322 -0.262283 -0.0103009 -0.21625 
-0.263606 -0.00706658 -0.217028 -0.265264 -0.00281424 -0.216805 -0.289413 0.00738713 -0.219568 
-0.265509 0.00979337 -0.217004 -0.260788 0.00721318 -0.21573 -0.301706 -0.0587304 -0.214706 
-0.255955 -0.0113005 -0.212396 -0.254233 -0.00616154 -0.213101 -0.25115 -0.00411005 -0.211767 
-0.251803 -0.00117892 -0.212283 -0.255998 0.00330702 -0.213885 -0.253229 0.00204463 -0.212773 
-0.251861 0.00493272 -0.212071 -0.254767 0.00996955 -0.211993 -0.257982 0.0119251 -0.214309 
-0.257134 0.0174356 -0.212018 -0.262239 0.0271596 -0.213365 -0.264919 0.0232487 -0.214899 
-0.267826 0.0318532 -0.212859 -0.276832 -0.0512562 -0.210266 -0.247611 -0.0157747 -0.208203 
-0.26334 0.00122337 -0.214159 -0.251205 0.00108494 -0.210361 -0.249151 0.00781004 -0.209719 
-0.248601 0.0134068 -0.209035 -0.247737 0.0222181 -0.208472 -0.2559 0.0263855 -0.210976 
-0.25304 0.0240588 -0.209313 -0.25451 0.029202 -0.208369 -0.272744 0.0429864 -0.211246 
-0.238236 -0.0189857 -0.205066 -0.234763 -0.0170916 -0.203797 -0.249723 -0.0121351 -0.210212 
-0.240143 -0.0113228 -0.206764 -0.237756 -0.0142694 -0.204392 -0.233737 -0.00705158 -0.204088 
-0.233342 -0.00344878 -0.204421 -0.241918 0.00266956 -0.206264 -0.234775 0.000526753 -0.205014 
-0.232496 0.00271751 -0.203995 -0.236422 0.00554669 -0.204455 -0.232389 0.00621404 -0.203834 
-0.236798 0.00939831 -0.205567 -0.240357 0.0113472 -0.205852 -0.234675 0.0113177 -0.204531 
-0.240478 0.0154159 -0.206423 -0.239092 0.0187114 -0.205382 -0.279212 -0.060703 -0.204885 
-0.235247 -0.0207983 -0.201976 -0.242881 -0.0167517 -0.204448 -0.229656 -0.0121026 -0.201133 
-0.224377 -0.00836717 -0.2003 -0.232726 -0.0056039 -0.20109 -0.227083 -0.00306549 -0.201821 
-0.223784 -0.00528772 -0.200281 -0.230191 -0.000546569 -0.202005 -0.22585 0.000813118 -0.201198 
-0.223108 0.00112632 -0.200024 -0.229654 0.0044108 -0.201526 -0.231652 0.0098469 -0.202326 
-0.227354 0.00919019 -0.20163 -0.233798 0.0140995 -0.203782 -0.229481 0.0141059 -0.200855 
-0.234364 0.0198115 -0.203254 -0.229758 0.0215025 -0.201097 -0.276446 0.0604067 -0.204179 
-0.237037 -0.0162235 -0.198581 -0.222189 -0.0156289 -0.198698 -0.216733 -0.0111918 -0.196832 
-0.229244 -0.00563344 -0.20197 -0.22224 -0.00208901 -0.19781 -0.22756 0.000244238 -0.198802 
-0.221141 0.00324761 -0.199163 -0.225664 0.00646602 -0.198946 -0.218994 0.00543367 -0.198226 
-0.225232 0.0123451 -0.200408 -0.223251 0.00973436 -0.199507 -0.2245 0.0166524 -0.198467 
-0.259068 0.0579185 -0.19937 -0.306492 -0.0742504 -0.198716 -0.233102 -0.0477006 -0.194909 
-0.231993 -0.0430713 -0.196105 -0.232119 -0.0383981 -0.196643 -0.226289 -0.0285063 -0.197038 
-0.221778 -0.0264663 -0.196656 -0.211084 -0.00525224 -0.193923 -0.215811 0.00385547 -0.195842 
-0.206966 0.00473471 -0.193188 -0.213696 0.00757435 -0.195978 -0.211 0.00950023 -0.193603 
-0.21573 0.0145225 -0.195 -0.21068 -0.0247154 -0.192509 -0.205063 -0.0195388 -0.191059 
-0.208237 -0.0157931 -0.192766 -0.205652 -0.0145626 -0.191697 -0.210096 -0.0113518 -0.192939 
-0.221832 -0.00850785 -0.19373 -0.204048 -0.0099241 -0.191499 -0.20507 -0.00487097 -0.192443 
[...]
POINT_DATA 808
FIELD FieldData 7
id 1 808 int
876 872 877 871 881 882 880 88 71 
874 74 126 46 153 43 58 125 65 
80 24 108 97 50 67 75 162 18 
101 190 86 76 62 111 102 103 53 
98 48 164 95 92 112 168 130 34 
174 81 110 196 137 26 141 122 140 
193 352 121 186 68 219 163 177 114 
178 150 104 151 82 324 179 188 79 
148 118 138 171 132 189 180 202 129 
265 123 294 187 183 70 198 159 49 
158 107 119 225 134 106 213 210 142 
154 204 127 160 83 157 195 144 166 
136 116 156 278 72 105 169 251 305 
229 277 244 184 115 170 199 234 109 
241 221 99 228 250 215 208 64 200 
185 201 307 135 205 270 124 143 212 
289 223 272 146 181 167 211 182 209 
252 175 254 317 284 161 96 191 290 
165 418 297 152 172 149 280 296 293 
233 295 224 438 197 329 236 298 155 
288 337 276 316 222 261 206 264 128 
321 256 253 299 9 255 220 259 322 
245 275 249 287 242 348 368 306 332 
308 263 446 363 273 354 226 230 217 
422 353 281 267 218 399 262 314 377 
260 214 304 303 339 292 266 232 192 
310 343 395 282 327 283 447 381 194 
347 90 390 320 269 386 274 203 405 
227 243 330 238 333 235 315 349 409 
331 388 248 300 311 366 271 423 258 
247 382 318 237 285 370 351 362 246 
286 240 231 407 279 367 372 216 313 
433 387 427 291 323 302 340 378 257 
470 429 239 344 335 439 371 411 336 
421 401 309 384 430 341 456 389 414 
450 455 358 350 396 476 338 441 424 
268 444 374 417 355 462 403 398 326 
490 440 466 492 397 416 365 328 408 
522 471 301 325 428 404 356 448 473 
425 406 346 360 483 454 420 400 345 
497 459 394 361 373 511 488 375 504 
453 479 334 319 445 484 496 489 385 
478 474 376 359 434 538 463 458 437 
519 451 468 392 357 431 380 312 469 
481 452 531 415 493 494 442 475 364 
508 499 393 342 500 391 509 477 546 
530 486 487 413 548 383 485 419 412 
435 554 559 503 369 507 521 624 491 
482 379 498 542 460 558 501 547 600 
523 536 465 562 495 464 505 541 512 
449 532 537 573 555 410 402 529 556 
502 545 561 517 525 598 527 552 467 
534 550 588 510 516 526 535 563 520 
524 515 595 528 533 514 557 576 582 
572 571 544 564 597 577 586 506 579 
626 549 589 443 585 612 426 457 461 
543 551 539 608 570 610 590 574 620 
540 578 603 616 566 480 584 652 436 
640 615 601 638 602 636 604 621 659 
594 581 565 599 592 685 583 518 607 
664 668 611 580 605 617 702 568 649 
653 569 596 619 628 606 575 672 631 
633 553 639 567 614 647 635 593 623 
591 646 613 560 678 669 513 662 683 
675 650 641 658 715 632 673 710 657 
627 665 634 677 676 625 622 655 670 
688 656 660 645 637 717 644 725 689 
686 722 687 726 654 674 691 643 708 
697 694 705 684 681 716 642 727 663 
718 630 721 661 666 734 648 701 690 
587 720 695 667 692 651 696 629 680 
706 704 707 737 724 432 741 618 742 
700 682 723 733 735 709 714 693 731 
711 679 609 698 712 713 671 736 699 
728 703 729 719 472 730 738 739 740 
732 748 745 750 746 751 752 743 755 
744 749 747 753 754 767 763 758 761 
757 765 768 766 764 762 759 756 760 
778 780 781 775 779 769 776 773 771 
777 772 774 770 793 788 790 786 784 
791 787 783 789 792 794 782 785 805 
800 804 795 797 799 806 796 803 801 
802 798 816 807 817 808 815 814 818 
810 812 811 819 809 813 826 829 830 
824 820 823 831 825 828 842 836 837 
827 822 821 844 841 843 833 840 839 
835 832 838 834 850 845 851 848 855 
847 852 856 849 846 857 853 854 869 
861 865 858 868 862 866 867 863 859 
864 860 879 878 873 870 875 
type 1 808 int
1 1 1 1 1 1 1 1 1 
1 1 1 1 1 1 1 1 1 
1 1 1 1 1 1 1 1 1 
1 1 1 1 1 1 1 1 1 
1 1 1 1 1 1 1 1 1 
1 1 1 1 1 1 1 1 1 
1 1 1 1 1 1 1 1 1 
1 1 1 1 1 1 1 1 1 
1 1 1 1 1 1 1 1 1 
1 1 1 1 1 1 1 1 1 
1 1 1 1 1 1 1 1 1 
1 1 1 1 1 1 1 1 1 
1 1 1 1 1 1 1 1 1 
1 1 1 1 1 1 1 1 1 
1 1 1 1 1 1 1 1 1 
1 1 1 1 1 1 1 1 1 
1 1 1 1 1 1 1 1 1 
1 1 1 1 1 1 1 1 1 
1 1 1 1 1 1 1 1 1 
1 1 1 1 1 1 1 1 1 
1 1 1 1 1 1 1 1 1 
1 1 1 1 1 1 1 1 1 
1 1 1 1 1 1 1 1 1 
1 1 1 1 1 1 1 1 1 
1 1 1 1 1 1 1 1 1 
1 1 1 1 1 1 1 1 1 
1 1 1 1 1 1 1 1 1 
1 1 1 1 1 1 1 1 1 
1 1 1 1 1 1 1 1 1 
1 1 1 1 1 1 1 1 1 
1 1 1 1 1 1 1 1 1 
1 1 1 1 1 1 1 1 1 
1 1 1 1 1 1 1 1 1 
1 1 1 1 1 1 1 1 1 
1 1 1 1 1 1 1 1 1 
1 1 1 1 1 1 1 1 1 
1 1 1 1 1 1 1 1 1 
1 1 1 1 1 1 1 1 1 
1 1 1 1 1 1 1 1 1 
1 1 1 1 1 1 1 1 1 
1 1 1 1 1 1 1 1 1 
1 1 1 1 1 1 1 1 1 
1 1 1 1 1 1 1 1 1 
1 1 1 1 1 1 1 1 1 
1 1 1 1 1 1 1 1 1 
1 1 1 1 1 1 1 1 1 
1 1 1 1 1 1 1 1 1 
1 1 1 1 1 1 1 1 1 
1 1 1 1 1 1 1 1 1 
1 1 1 1 1 1 1 1 1 
1 1 1 1 1 1 1 1 1 
1 1 1 1 1 1 1 1 1 
1 1 1 1 1 1 1 1 1 
1 1 1 1 1 1 1 1 1 
1 1 1 1 1 1 1 1 1 
1 1 1 1 1 1 1 1 1 
1 1 1 1 1 1 1 1 1 
1 1 1 1 1 1 1 1 1 
1 1 1 1 1 1 1 1 1 
1 1 1 1 1 1 1 1 1 
1 1 1 1 1 1 1 1 1 
1 1 1 1 1 1 1 1 1 
1 1 1 1 1 1 1 1 1 
1 1 1 1 1 1 1 1 1 
1 1 1 1 1 1 1 1 1 
1 1 1 1 1 1 1 1 1 
1 1 1 1 1 1 1 1 1 
1 1 1 1 1 1 1 1 1 
1 1 1 1 1 1 1 1 1 
1 1 1 1 1 1 1 1 1 
1 1 1 1 1 1 1 1 1 
1 1 1 1 1 1 1 1 1 
1 1 1 1 1 1 1 1 1 
1 1 1 1 1 1 1 1 1 
1 1 1 1 1 1 1 1 1 
1 1 1 1 1 1 1 1 1 
1 1 1 1 1 1 1 1 1 
1 1 1 1 1 1 1 1 1 
1 1 1 1 1 1 1 1 1 
1 1 1 1 1 1 1 1 1 
1 1 1 1 1 1 1 1 1 
1 1 1 1 1 1 1 1 1 
1 1 1 1 1 1 1 1 1 
1 1 1 1 1 1 1 1 1 
1 1 1 1 1 1 1 1 1 
1 1 1 1 1 1 1 1 1 
1 1 1 1 1 1 1 1 1 
1 1 1 1 1 1 1 1 1 
1 1 1 1 1 1 1 1 1 
1 1 1 1 1 1 1 
i 3 808 int
0 0 0 0 0 0 0 0 0 
0 0 0 0 0 0 0 0 0 
0 0 0 0 0 0 0 0 0 
0 0 0 0 0 0 0 0 0 
0 0 0 0 0 0 0 0 0 
0 0 0 0 0 0 0 0 0 
0 0 0 0 0 0 0 0 0 
0 0 0 0 0 0 0 0 0 
0 0 0 0 0 0 0 0 0 
0 0 0 0 0 0 0 0 0 
0 0 0 0 0 0 0 0 0 
0 0 0 0 0 0 0 0 0 
0 0 0 0 0 0 0 0 0 
0 0 0 0 0 0 0 0 0 
0 0 0 0 0 0 0 0 0 
0 0 0 0 0 0 0 0 0 
0 0 0 0 0 0 0 0 0 
0 0 0 0 0 0 0 0 0 
0 0 0 0 0 0 0 0 0 
0 0 0 0 0 0 0 0 0 
0 0 0 0 0 0 0 0 0 
0 0 0 0 0 0 0 0 0 
0 0 0 0 0 0 0 0 0 
0 0 0 0 0 0 0 0 0 
0 0 0 0 0 0 0 0 0 
0 0 0 0 0 0 0 0 0 
0 0 0 0 0 0 0 0 0 
0 0 0 0 0 0 0 0 0 
0 0 0 0 0 0 0 0 0 
0 0 0 0 0 0 0 0 0 
0 0 0 0 0 0 0 0 0 
0 0 0 0 0 0 0 0 0 
0 0 0 0 0 0 0 0 0 
0 0 0 0 0 0 0 0 0 
0 0 0 0 0 0 0 0 0 
0 0 0 0 0 0 0 0 0 
0 0 0 0 0 0 0 0 0 
0 0 0 0 0 0 0 0 0 
0 0 0 0 0 0 0 0 0 
0 0 0 0 0 0 0 0 0 
0 0 0 0 0 0 0 0 0 
0 0 0 0 0 0 0 0 0 
0 0 0 0 0 0 0 0 0 
0 0 0 0 0 0 0 0 0 
0 0 0 0 0 0 0 0 0 
0 0 0 0 0 0 0 0 0 
0 0 0 0 0 0 0 0 0 
0 0 0 0 0 0 0 0 0 
0 0 0 0 0 0 0 0 0 
0 0 0 0 0 0 0 0 0 
0 0 0 0 0 0 0 0 0 
0 0 0 0 0 0 0 0 0 
0 0 0 0 0 0 0 0 0 
0 0 0 0 0 0 0 0 0 
0 0 0 0 0 0 0 0 0 
0 0 0 0 0 0 0 0 0 
0 0 0 0 0 0 0 0 0 
0 0 0 0 0 0 0 0 0 
0 0 0 0 0 0 0 0 0 
0 0 0 0 0 0 0 0 0 
0 0 0 0 0 0 0 0 0 
0 0 0 0 0 0 0 0 0 
0 0 0 0 0 0 0 0 0 
0 0 0 0 0 0 0 0 0 
0 0 0 0 0 0 0 0 0 
0 0 0 0 0 0 0 0 0 
0 0 0 0 0 0 0 0 0 
0 0 0 0 0 0 0 0 0 
0 0 0 0 0 0 0 0 0 
0 0 0 0 0 0 0 0 0 
0 0 0 0 0 0 0 0 0 
0 0 0 0 0 0 0 0 0 
0 0 0 0 0 0 0 0 0 
0 0 0 0 0 0 0 0 0 
0 0 0 0 0 0 0 0 0 
0 0 0 0 0 0 0 0 0 
0 0 0 0 0 0 0 0 0 
0 0 0 0 0 0 0 0 0 
0 0 0 0 0 0 0 0 0 
0 0 0 0 0 0 0 0 0 
0 0 0 0 0 0 0 0 0 
0 0 0 0 0 0 0 0 0 
0 0 0 0 0 0 0 0 0 
0 0 0 0 0 0 0 0 0 
0 0 0 0 0 0 0 0 0 
0 0 0 0 0 0 0 0 0 
0 0 0 0 0 0 0 0 0 
0 0 0 0 0 0 0 0 0 
0 0 0 0 0 0 0 0 0 
0 0 0 0 0 0 0 0 0 
0 0 0 0 0 0 0 0 0 
0 0 0 0 0 0 0 0 0 
0 0 0 0 0 0 0 0 0 
0 0 0 0 0 0 0 0 0 
0 0 0 0 0 0 0 0 0 
0 0 0 0 0 0 0 0 0 
0 0 0 0 0 0 0 0 0 
0 0 0 0 0 0 0 0 0 
0 0 0 0 0 0 0 0 0 
0 0 0 0 0 0 0 0 0 
0 0 0 0 0 0 0 0 0 
0 0 0 0 0 0 0 0 0 
0 0 0 0 0 0 0 0 0 
0 0 0 0 0 0 0 0 0 
0 0 0 0 0 0 0 0 0 
0 0 0 0 0 0 0 0 0 
0 0 0 0 0 0 0 0 0 
0 0 0 0 0 0 0 0 0 
0 0 0 0 0 0 0 0 0 
0 0 0 0 0 0 0 0 0 
0 0 0 0 0 0 0 0 0 
0 0 0 0 0 0 0 0 0 
0 0 0 0 0 0 0 0 0 
0 0 0 0 0 0 0 0 0 
0 0 0 0 0 0 0 0 0 
0 0 0 0 0 0 0 0 0 
0 0 0 0 0 0 0 0 0 
0 0 0 0 0 0 0 0 0 
0 0 0 0 0 0 0 0 0 
0 0 0 0 0 0 0 0 0 
0 0 0 0 0 0 0 0 0 
0 0 0 0 0 0 0 0 0 
0 0 0 0 0 0 0 0 0 
0 0 0 0 0 0 0 0 0 
0 0 0 0 0 0 0 0 0 
0 0 0 0 0 0 0 0 0 
0 0 0 0 0 0 0 0 0 
0 0 0 0 0 0 0 0 0 
0 0 0 0 0 0 0 0 0 
0 0 0 0 0 0 0 0 0 
0 0 0 0 0 0 0 0 0 
0 0 0 0 0 0 0 0 0 
0 0 0 0 0 0 0 0 0 
0 0 0 0 0 0 0 0 0 
0 0 0 0 0 0 0 0 0 
0 0 0 0 0 0 0 0 0 
0 0 0 0 0 0 0 0 0 
0 0 0 0 0 0 0 0 0 
0 0 0 0 0 0 0 0 0 
0 0 0 0 0 0 0 0 0 
0 0 0 0 0 0 0 0 0 
0 0 0 0 0 0 0 0 0 
0 0 0 0 0 0 0 0 0 
0 0 0 0 0 0 0 0 0 
0 0 0 0 0 0 0 0 0 
0 0 0 0 0 0 0 0 0 
0 0 0 0 0 0 0 0 0 
0 0 0 0 0 0 0 0 0 
0 0 0 0 0 0 0 0 0 
0 0 0 0 0 0 0 0 0 
0 0 0 0 0 0 0 0 0 
0 0 0 0 0 0 0 0 0 
0 0 0 0 0 0 0 0 0 
0 0 0 0 0 0 0 0 0 
0 0 0 0 0 0 0 0 0 
0 0 0 0 0 0 0 0 0 
0 0 0 0 0 0 0 0 0 
0 0 0 0 0 0 0 0 0 
0 0 0 0 0 0 0 0 0 
0 0 0 0 0 0 0 0 0 
0 0 0 0 0 0 0 0 0 
0 0 0 0 0 0 0 0 0 
0 0 0 0 0 0 0 0 0 
0 0 0 0 0 0 0 0 0 
0 0 0 0 0 0 0 0 0 
0 0 0 0 0 0 0 0 0 
0 0 0 0 0 0 0 0 0 
0 0 0 0 0 0 0 0 0 
0 0 0 0 0 0 0 0 0 
0 0 0 0 0 0 0 0 0 
0 0 0 0 0 0 0 0 0 
0 0 0 0 0 0 0 0 0 
0 0 0 0 0 0 0 0 0 
0 0 0 0 0 0 0 0 0 
0 0 0 0 0 0 0 0 0 
0 0 0 0 0 0 0 0 0 
0 0 0 0 0 0 0 0 0 
0 0 0 0 0 0 0 0 0 
0 0 0 0 0 0 0 0 0 
0 0 0 0 0 0 0 0 0 
0 0 0 0 0 0 0 0 0 
0 0 0 0 0 0 0 0 0 
0 0 0 0 0 0 0 0 0 
0 0 0 0 0 0 0 0 0 
0 0 0 0 0 0 0 0 0 
0 0 0 0 0 0 0 0 0 
0 0 0 0 0 0 0 0 0 
0 0 0 0 0 0 0 0 0 
0 0 0 0 0 0 0 0 0 
0 0 0 0 0 0 0 0 0 
0 0 0 0 0 0 0 0 0 
0 0 0 0 0 0 0 0 0 
0 0 0 0 0 0 0 0 0 
0 0 0 0 0 0 0 0 0 
0 0 0 0 0 0 0 0 0 
0 0 0 0 0 0 0 0 0 
0 0 0 0 0 0 0 0 0 
0 0 0 0 0 0 0 0 0 
0 0 0 0 0 0 0 0 0 
0 0 0 0 0 0 0 0 0 
0 0 0 0 0 0 0 0 0 
0 0 0 0 0 0 0 0 0 
0 0 0 0 0 0 0 0 0 
0 0 0 0 0 0 0 0 0 
0 0 0 0 0 0 0 0 0 
0 0 0 0 0 0 0 0 0 
0 0 0 0 0 0 0 0 0 
0 0 0 0 0 0 0 0 0 
0 0 0 0 0 0 0 0 0 
0 0 0 0 0 0 0 0 0 
0 0 0 0 0 0 0 0 0 
0 0 0 0 0 0 0 0 0 
0 0 0 0 0 0 0 0 0 
0 0 0 0 0 0 0 0 0 
0 0 0 0 0 0 0 0 0 
0 0 0 0 0 0 0 0 0 
0 0 0 0 0 0 0 0 0 
0 0 0 0 0 0 0 0 0 
0 0 0 0 0 0 0 0 0 
0 0 0 0 0 0 0 0 0 
0 0 0 0 0 0 0 0 0 
0 0 0 0 0 0 0 0 0 
0 0 0 0 0 0 0 0 0 
0 0 0 0 0 0 0 0 0 
0 0 0 0 0 0 0 0 0 
0 0 0 0 0 0 0 0 0 
0 0 0 0 0 0 0 0 0 
0 0 0 0 0 0 0 0 0 
0 0 0 0 0 0 0 0 0 
0 0 0 0 0 0 0 0 0 
0 0 0 0 0 0 0 0 0 
0 0 0 0 0 0 0 0 0 
0 0 0 0 0 0 0 0 0 
0 0 0 0 0 0 0 0 0 
0 0 0 0 0 0 0 0 0 
0 0 0 0 0 0 0 0 0 
0 0 0 0 0 0 0 0 0 
0 0 0 0 0 0 0 0 0 
0 0 0 0 0 0 0 0 0 
0 0 0 0 0 0 0 0 0 
0 0 0 0 0 0 0 0 0 
0 0 0 0 0 0 0 0 0 
0 0 0 0 0 0 0 0 0 
0 0 0 0 0 0 0 0 0 
0 0 0 0 0 0 0 0 0 
0 0 0 0 0 0 0 0 0 
0 0 0 0 0 0 0 0 0 
0 0 0 0 0 0 0 0 0 
0 0 0 0 0 0 0 0 0 
0 0 0 0 0 0 0 0 0 
0 0 0 0 0 0 0 0 0 
0 0 0 0 0 0 0 0 0 
0 0 0 0 0 0 0 0 0 
0 0 0 0 0 0 0 0 0 
0 0 0 0 0 0 0 0 0 
0 0 0 0 0 0 0 0 0 
0 0 0 0 0 0 0 0 0 
0 0 0 0 0 0 0 0 0 
0 0 0 0 0 0 0 0 0 
0 0 0 0 0 0 0 0 0 
0 0 0 0 0 0 0 0 0 
0 0 0 0 0 0 0 0 0 
0 0 0 0 0 0 0 0 0 
0 0 0 0 0 0 0 0 0 
0 0 0 0 0 0 0 0 0 
0 0 0 0 0 0 0 0 0 
0 0 0 0 0 0 0 0 0 
0 0 0 0 0 0 0 0 0 
0 0 0 0 0 0 0 0 0 
0 0 0 
v 3 808 double
0 0 -1 0 0 -1.01525 0 0 -1.01418 
0 0 -1.01947 0 0 -1.04979 0 0 -1.04302 
0 0 -1.06676 -1.18335 -0.261397 -1.8528 -1.0368 -0.061578 -1.87091 
0 0 -1.02703 -1.04981 -0.09422 -1.86576 -1.18482 0.0722427 -1.71474 
-1.15612 0.0129947 -1.75062 -1.17167 -0.121792 -1.77387 -1.13462 0.0241988 -1.77463 
-1.21914 0.0904969 -1.76611 -1.10445 -0.00921821 -1.7286 -1.09724 0.0189179 -1.64851 
-1.10415 0.0529525 -1.70921 -1.16044 0.0863519 -1.67894 -1.23057 -0.0457108 -1.71506 
-1.12507 0.126267 -1.71264 -1.17175 -0.0150631 -1.59341 -1.0982 0.0331919 -1.6432 
-1.13591 -0.0301187 -1.82064 -1.10072 0.0408203 -1.64271 -1.0907 -0.0150395 -1.70787 
-1.11456 0.174963 -1.62723 -1.20407 -0.0313051 -1.64493 -1.07032 0.0212318 -1.64455 
-1.02291 0.06165 -1.60345 -1.00542 0.152193 -1.61782 -1.13646 -0.0386955 -1.59894 
-1.11593 -0.0490146 -1.61849 -1.15359 0.0736842 -1.5602 -1.03658 0.023447 -1.58467 
-1.00833 0.123384 -1.54877 -1.13289 -0.046527 -1.55516 -1.06593 -0.00967344 -1.55326 
-1.13553 0.086544 -1.53896 -0.987541 0.0691962 -1.53465 -1.10516 0.0584267 -1.52589 
-1.16879 0.0348261 -1.55987 -1.11349 0.0452111 -1.51299 -1.0136 0.0414833 -1.46359 
-1.07261 0.138848 -1.4367 -1.29489 -0.263443 -1.52069 -0.969303 0.0176072 -1.41345 
-1.00493 -0.0311408 -1.38884 -1.07999 0.0605004 -1.43336 -1.09378 0.0507524 -1.36899 
-1.24198 0.142669 -1.44593 -1.17675 -0.15996 -1.42542 -1.19959 0.153059 -1.40011 
-1.15975 -0.153784 -1.39286 -1.32811 0.0484367 -1.4972 -1.10591 -0.132975 -1.33166 
-1.05533 0.007542 -1.2781 -1.10271 -0.0877169 -1.23158 -1.17393 -0.0607533 -1.33437 
-1.02681 0.0189348 -1.28754 -1.00914 0.0655862 -1.26697 -1.0947 -0.0154384 -1.21683 
-1.06282 0.127956 -1.21814 -1.11336 0.0338284 -1.18044 -1.06358 0.0776617 -1.14504 
-1.1941 -0.0777868 -1.20076 -0.933536 -0.0656093 -1.1819 -1.38782 0.160646 -1.55124 
-1.06987 0.0163512 -1.15717 -1.07229 0.202187 -1.03667 -1.0787 0.0773545 -1.15262 
-1.17912 0.258343 -1.42147 -1.01284 -0.0123211 -1.16004 -0.985408 0.0234253 -1.16082 
-1.02097 0.174059 -1.1295 -1.08505 0.0172826 -1.09499 -1.132 0.118265 -1.07535 
-1.00344 0.0310623 -1.08484 -0.946199 0.0777158 -1.16351 -1.0319 -0.00334289 -1.11849 
-1.08578 -0.0401915 -1.07839 -1.17652 0.0340392 -1.06107 -1.09481 -0.087535 -1.12991 
-0.86721 0.108018 -1.00101 -1.1543 0.0308153 -1.06989 -1.08607 0.0934356 -0.944076 
-1.11153 -0.0813879 -1.03854 -1.05663 0.0271079 -0.884565 -0.926415 -0.0261929 -0.979921 
-1.14753 -0.0645282 -1.01995 -0.977451 0.0123217 -1.04617 -1.14175 -0.0597273 -1.05257 
-1.14716 0.239158 -1.03497 -1.20975 0.099159 -1.0051 -1.02132 0.00715958 -1.05104 
-0.975709 0.0836101 -0.990241 -1.30201 -0.127471 -0.999559 -1.04824 -0.128336 -0.962665 
-0.984574 -0.0756637 -0.974593 -0.906767 -0.0245925 -0.985083 -0.971564 -0.0522209 -0.940741 
-0.964999 0.0272735 -0.907788 -0.943879 0.0327751 -0.921877 -1.22921 0.113399 -0.970231 
-0.97989 -0.14697 -0.876544 -0.962664 -0.0789392 -0.902625 -0.958266 -0.116579 -0.831908 
-1.13301 0.0485565 -0.889277 -1.08291 0.0449325 -0.858521 -0.980062 -0.0645597 -0.872528 
-0.972702 -0.107829 -0.841619 -1.18811 -0.307772 -0.969451 -0.943774 -0.164468 -0.811378 
-1.04128 -0.0541165 -0.808624 -1.175 -0.275441 -1.09656 -1.20634 0.31037 -1.09452 
-1.14597 0.0596474 -0.78075 -1.09055 -0.128932 -0.811435 -1.0244 0.0231564 -0.738369 
-0.955656 0.0455368 -0.799204 -0.9673 -0.0437704 -0.825718 -1.05038 -0.0149612 -0.776227 
-1.1201 0.0296316 -0.789517 -1.26197 -0.0842652 -0.90901 -0.976797 0.096977 -0.65396 
-0.860906 -0.0297012 -0.688715 -1.08463 0.00442407 -0.756555 -0.986592 0.00842437 -0.684677 
-1.12839 0.00292622 -0.733221 -0.953857 0.09592 -0.63406 -0.735834 0.0629673 -0.763422 
-1.01861 -0.0683039 -0.675342 -0.987107 -0.0621105 -0.562101 -1.1256 -0.169277 -0.764112 
-1.15873 0.308163 -0.734536 -1.14229 0.257386 -0.792283 -1.34373 0.117182 -0.85683 
-0.888648 -0.00113618 -0.507549 -1.00477 0.123937 -0.679879 -0.930709 0.00640582 -0.536123 
-0.934905 0.00906679 -0.518031 -0.978261 0.0146498 -0.565234 -1.0718 -0.00770656 -0.597828 
-1.19926 -0.149876 -0.650752 -1.23335 0.0213085 -0.608049 -1.02834 0.0389882 -0.533838 
-1.05551 -0.0722161 -0.499964 -1.03199 -0.0464207 -0.511205 -0.861713 -0.00419694 -0.483382 
-0.895482 0.0127888 -0.430166 -1.05374 0.110594 -0.49729 -0.907631 0.0914391 -0.428127 
-1.02063 0.0942051 -0.654284 -1.01962 0.0825088 -0.470837 -1.03201 0.000608777 -0.509036 
-1.08006 -0.0290875 -0.547379 -1.12357 0.0648027 -0.466314 -1.17737 0.0101711 -0.513792 
-1.06619 0.0336642 -0.482135 -1.1357 0.0258527 -0.559958 -1.17869 -0.0510789 -0.577352 
-1.23285 0.189699 -0.522969 -1.12921 -0.0492224 -0.472976 -1.01518 0.0714024 -0.417364 
-1.03641 0.0522272 -0.408648 -1.03093 0.0204841 -0.431277 -0.998156 0.117266 -0.409846 
-1.14722 0.00649529 -0.483157 -1.08218 -0.058899 -0.459177 -1.07982 -0.114481 -0.39263 
-1.06355 -0.0378348 -0.419918 -1.11764 0.0157558 -0.472373 -1.02686 0.0447687 -0.419678 
-1.07359 -0.122473 -0.265423 -0.95674 -0.00957622 -0.400923 -1.13309 0.269504 -0.48718 
-1.08017 0.0253883 -0.456989 -1.06292 0.0237645 -0.324562 -0.976286 -0.414452 -0.480659 
-1.12114 0.379746 -0.589536 -0.971925 -0.0586055 -0.393437 -0.948933 -0.0310783 -0.370659 
-0.846762 -0.0386335 -0.351443 -1.11939 0.0746218 -0.475052 -0.941958 -0.0958977 -0.403118 
-0.944344 0.0147308 -0.397962 -0.920107 0.00490439 -0.392753 -1.01705 -0.0605039 -0.425989 
-0.966996 -0.111701 -0.414268 -0.992195 -0.0892471 -0.575521 -1.05829 -0.108337 -0.478738 
-0.954195 -0.098037 -0.390311 -0.988505 0.256695 -0.443727 -1.03695 0.089413 -0.463611 
-0.951975 0.054559 -0.365796 -1.38242 0.129267 -0.155467 -0.782062 -0.00946631 -0.329854 
-0.778512 -0.00768748 -0.360302 -0.906434 -0.120618 -0.38978 -0.901046 -0.0282257 -0.3738 
-0.938068 -0.0204717 -0.388395 -0.873284 -0.128335 -0.368092 -1.00089 -0.0114192 -0.399264 
-1.15565 -0.0632449 -0.482487 -1.18144 -0.216729 -0.560066 -0.978542 0.00289624 -0.440095 
-1.07146 0.250483 -0.510231 -1.04121 0.298745 -0.454939 -1.02805 0.00922449 -0.666116 
-0.933688 -0.0251061 -0.386464 -0.848967 0.0352208 -0.361941 -0.829684 0.00217554 -0.347129 
-1.00959 -0.0199811 -0.41687 -1.0118 -0.202916 -0.468786 -1.179 -0.10746 -0.496429 
-1.0393 0.0388571 -0.438577 -0.949564 0.10413 -0.412701 -0.808551 -0.0172658 -0.335982 
-0.927741 -0.038206 -0.391562 -0.953371 -0.0350002 -0.398741 -1.1696 0.0999216 -0.736872 
-0.816627 0.0189853 -0.372375 -0.870113 0.0129384 -0.368664 -1.17933 0.285451 -0.589714 
-0.933209 0.182118 -0.409541 -0.934229 0.223182 -0.402672 -0.914685 -0.145951 -0.353639 
-0.822563 -0.102919 -0.359182 -0.791161 -0.00281536 -0.331394 -0.787993 -0.0447486 -0.337135 
-0.824691 0.00909976 -0.350426 -0.954514 0.0463241 -0.398034 -0.988605 0.0189395 -0.415083 
-0.999207 -0.0511053 -0.429801 -0.67892 -0.0337197 -0.307947 -1.08426 -0.164259 -0.482496 
-1.05237 -0.0212357 -0.495176 -1.09968 0.24831 -0.531161 -0.965492 0.0402745 -0.402579 
-1.3106 -0.168458 -0.782966 -0.880309 -0.0933602 -0.363964 -0.956859 -0.0340013 -0.401822 
-0.937869 -0.111382 -0.413096 -1.02866 -0.208175 -0.470058 -0.939736 -0.142835 -0.427707 
-0.921128 -0.136057 -0.399264 -0.997083 -0.0902441 -0.401125 -1.21467 -0.157052 -0.550472 
-0.868457 0.0989445 -0.344873 -0.582054 0.190556 -0.198874 -0.877281 -0.120333 -0.717041 
-0.817324 -0.0168814 -0.358644 -0.860144 0.0222388 -0.39809 -0.814466 -0.0952928 -0.316636 
-0.713354 -0.0453272 -0.292534 -0.910444 0.100197 -0.598716 -0.666884 0.0379371 -0.276491 
-0.683909 -0.0190576 -0.287263 -0.78943 -0.0397886 -0.330245 -0.788769 0.0516764 -0.326876 
-0.799195 -0.0346376 -0.334134 -0.828585 -0.0857261 -0.364134 -0.841214 0.0484878 -0.351402 
-0.816284 -0.0792103 -0.348836 -0.727908 -0.0843363 -0.312998 -1.13658 0.282796 -0.589042 
-0.904825 0.0663826 -0.278154 -0.956909 -0.0557925 -0.770923 -0.71343 -0.0461766 -0.301555 
-0.62843 -0.0347127 -0.265786 -0.906966 0.0253561 -0.218388 -0.666923 0.043554 -0.286647 
-0.717638 0.0134419 -0.331824 -0.71382 0.0014201 -0.304576 -0.660099 0.0759158 -0.279911 
-0.665637 0.115634 -0.274605 -0.793806 0.0148461 -0.350845 -0.837539 0.0734098 -0.347463 
-0.832444 0.0335531 -0.352478 -0.904228 0.0835263 -0.373668 -0.853441 0.0834949 -0.344156 
-0.847976 -0.193276 -0.387553 -0.810114 -0.18952 -0.359936 -1.04628 -0.141687 -0.461464 
-0.901251 -0.0713733 -0.323867 -0.897271 0.13325 -0.397994 -0.517903 -0.0013038 -0.21451 
-0.782683 -0.0712199 -0.665877 -0.774999 0.0126208 -0.379726 -0.729662 0.0200342 -0.342108 
-0.667418 0.114483 -0.27532 -0.810651 0.0601107 -0.334464 -0.86144 0.0399512 -0.357757 
-0.881912 -0.0261114 -0.37691 -0.967914 -0.221108 -0.408522 -0.926768 0.0158904 -0.377966 
-1.17403 -0.03446 -0.44053 -1.15711 0.275864 -0.765993 -0.96022 0.0176529 -0.403759 
-0.925379 0.0720291 -0.394692 -0.933014 0.087819 -0.401453 -0.965897 -0.0912501 -0.392175 
-0.995947 -0.0627623 -0.40339 -0.873945 -0.00792676 -0.373598 -0.853013 0.0346305 -0.365458 
-0.74207 -0.0483664 -0.308924 -0.776183 0.0266846 -0.335927 -0.789816 0.0532231 -0.336415 
-0.914061 0.0458209 -0.372716 -1.12236 0.113319 -0.480088 -0.859955 -0.00147519 -0.349876 
-0.869859 0.0273357 -0.381044 -0.859923 0.0200124 -0.346915 -0.93435 0.0452881 -0.41663 
-1.12099 -0.00903743 -0.758849 -0.655998 -0.157839 -0.197491 -0.824505 -0.0496979 -0.353386 
-0.865205 -0.110741 -0.346339 -0.819868 -0.039792 -0.381261 -0.78529 -0.0460521 -0.322605 
-0.957926 -0.0324429 -0.398451 -0.880455 -0.023934 -0.357828 -0.868677 0.0276986 -0.367627 
-0.956153 0.0281152 -0.370613 -0.858646 0.149015 -0.326139 -0.879513 0.0497495 -0.387484 
-0.754034 -0.122833 -0.30171 -0.812575 -0.0710679 -0.337701 -0.869002 -0.078176 -0.352118 
-0.756298 -0.0293248 -0.313397 -0.864317 0.0271421 -0.356379 -0.854806 -0.0130333 -0.367499 
-0.960232 -0.0388325 -0.380982 -0.809558 -0.0576455 -0.327428 -0.817021 -0.0359781 -0.333054 