# vtk DataFile Version 4.0
Generated by LIGGGHTS
ASCII
DATASET POLYDATA
POINTS 588 float
-0.473684 0.0427962 -0.326466 -0.417087 -0.0170907 -0.30098 -0.431373 0.0450833 -0.29714 
-0.39624 -0.00336919 -0.284234 -0.364099 -0.00982229 -0.262989 -0.358323 0.0055673 -0.26076 
-0.355287 -0.0163348 -0.256288 -0.357492 -0.0117852 -0.257908 -0.354379 -0.00902237 -0.256725 
-0.355525 -0.00592988 -0.258521 -0.336775 0.00134407 -0.248627 -0.339653 0.00989599 -0.248541 
-0.325182 0.00671185 -0.241778 -0.330525 0.016193 -0.244229 -0.368314 0.0560321 -0.242564 
-0.327611 -0.0271008 -0.240475 -0.319632 0.00689457 -0.240485 -0.320119 0.0140756 -0.240098 
-0.319699 0.0188907 -0.237883 -0.30502 -0.0117502 -0.23404 -0.322054 0.0338921 -0.235851 
-0.325664 -0.0410975 -0.233122 -0.295055 -0.00305962 -0.230443 -0.304802 0.0074986 -0.233115 
-0.29049 -0.000215159 -0.22753 -0.286932 0.00671146 -0.22671 -0.293887 0.0118303 -0.229318 
-0.295635 -0.0319317 -0.224594 -0.288958 -0.0102586 -0.22636 -0.283464 -0.0109294 -0.223978 
-0.278604 -0.00757652 -0.223349 -0.309647 -0.0500418 -0.223286 -0.278848 -0.011473 -0.221976 
-0.273118 -0.00770594 -0.221026 -0.276526 -0.00379199 -0.221367 -0.276401 0.00015048 -0.222634 
-0.273854 0.00814067 -0.220101 -0.273302 -0.0252449 -0.217463 -0.26597 -0.00153532 -0.218234 
-0.265073 0.00324742 -0.217732 -0.262105 -0.0112123 -0.216072 -0.258597 -0.0080792 -0.21486 
-0.260138 -0.000695084 -0.214735 -0.261088 0.00465668 -0.215976 -0.256967 0.00632465 -0.213075 
-0.268989 0.0300096 -0.214579 -0.34174 -0.0685865 -0.212659 -0.251809 -0.021995 -0.210187 
-0.254511 -0.0151911 -0.212422 -0.24968 -0.0154816 -0.210205 -0.250096 -0.00212173 -0.211542 
-0.252563 0.006346 -0.212311 -0.254456 0.0105976 -0.211411 -0.251777 -0.0281571 -0.208755 
-0.240234 -0.00618175 -0.207196 -0.242085 0.000263146 -0.207031 -0.235862 0.00318931 -0.20538 
-0.238807 0.00901684 -0.205333 -0.241361 0.0133968 -0.205987 -0.250979 0.0190012 -0.209208 
-0.237227 -0.00437179 -0.204895 -0.22735 0.00283306 -0.201789 -0.228723 0.00802007 -0.202248 
-0.233727 0.0107672 -0.203109 -0.23087 0.0164583 -0.202213 -0.293182 0.0651569 -0.206043 
-0.223545 -0.012174 -0.198504 -0.219857 -0.00890719 -0.198335 -0.245568 0.0475488 -0.199816 
-0.225755 -0.0271619 -0.198202 -0.221835 -0.0237687 -0.196165 -0.216472 -0.0192506 -0.195865 
-0.213195 -0.0172554 -0.19464 -0.217183 -0.0134408 -0.196814 -0.216966 -0.0100882 -0.197029 
-0.213301 -0.00827301 -0.194591 -0.216688 -0.00501763 -0.196294 -0.217988 0.0104269 -0.197547 
-0.214523 0.00985377 -0.195043 -0.22357 -0.0410229 -0.193383 -0.216487 -0.0351424 -0.192542 
-0.213482 -0.0288583 -0.192739 -0.214572 -0.0220307 -0.193322 -0.205845 -0.0128143 -0.192078 
-0.208726 -0.00899739 -0.193688 -0.210479 -0.00252032 -0.193617 -0.209904 0.0017486 -0.19443 
-0.203725 0.00328096 -0.19185 -0.21021 0.00567072 -0.194531 -0.209158 0.0164491 -0.193146 
-0.214365 0.0238748 -0.193156 -0.210194 0.0243649 -0.192246 -0.207936 0.0223602 -0.19184 
-0.236304 0.0497547 -0.194084 -0.208273 -0.0392868 -0.187933 -0.203682 -0.0256668 -0.189388 
-0.202332 -0.0100357 -0.190917 -0.198518 -0.00902711 -0.18828 -0.199337 -0.0048564 -0.189985 
-0.228645 0.00106979 -0.189689 -0.194922 0.00182501 -0.188132 -0.19672 0.00610032 -0.188909 
-0.196294 0.0110431 -0.188301 -0.197199 0.0181722 -0.187949 -0.213423 0.0373 -0.190647 
-0.199702 -0.026726 -0.187521 -0.200251 -0.0226894 -0.187536 -0.195698 -0.0244452 -0.185322 
-0.19091 -0.00851515 -0.185258 -0.192231 -0.00494312 -0.186969 -0.195444 0.0263888 -0.185755 
-0.186868 -0.028659 -0.181709 -0.189075 -0.0157534 -0.183639 -0.197425 -0.0121768 -0.18383 
-0.179184 -0.0124691 -0.181032 -0.189798 0.00236246 -0.182514 -0.182535 0.00670446 -0.182845 
-0.19659 -0.05228 -0.178288 -0.181874 -0.0213842 -0.179998 -0.175504 -0.0150245 -0.179242 
-0.174319 -0.0112032 -0.178054 -0.180867 -0.0103565 -0.178318 -0.173222 -0.00708607 -0.178896 
-0.174855 -0.00170634 -0.179655 -0.168867 0.00489774 -0.177196 -0.177893 0.00740803 -0.179724 
-0.173422 0.0103711 -0.178659 -0.171103 0.0120286 -0.177173 -0.177245 0.0203268 -0.179324 
-0.174956 0.0175153 -0.177402 -0.18004 0.0231917 -0.178869 -0.174699 0.0221517 -0.177951 
-0.179063 0.0271704 -0.178754 -0.175369 0.0263867 -0.177386 -0.188233 -0.0480478 -0.176697 
-0.180242 -0.0387774 -0.176551 -0.174723 -0.0274208 -0.175965 -0.170663 -0.0222829 -0.176175 
-0.169672 -0.0146182 -0.175772 -0.16839 -0.00885763 -0.175719 -0.163863 -0.00908048 -0.174862 
-0.166886 -0.00408794 -0.176341 -0.164052 -0.00502234 -0.173697 -0.168886 -0.000573059 -0.176123 
-0.164954 0.0119321 -0.174984 -0.167257 0.0166466 -0.174476 -0.176575 0.0235453 -0.175503 
-0.172043 0.0219106 -0.174806 -0.241561 0.0787815 -0.176284 -0.158556 -0.0144767 -0.171126 
-0.156864 -0.00814139 -0.17198 -0.156013 0.00135033 -0.171724 -0.158609 0.0120168 -0.171292 
-0.157856 0.0204632 -0.171221 -0.165573 0.0263305 -0.173297 -0.167824 0.035103 -0.172546 
-0.160005 -0.0316176 -0.169963 -0.160409 -0.0149045 -0.16714 -0.14796 -0.012925 -0.167915 
-0.148999 0.00564576 -0.168289 -0.150513 0.00944075 -0.169245 -0.163873 0.014092 -0.169667 
-0.152705 0.0134611 -0.168628 -0.168294 0.0284075 -0.170688 -0.160747 0.0319031 -0.169132 
-0.182868 0.0573321 -0.169445 -0.145861 -0.018813 -0.166417 -0.141483 -0.0208562 -0.164317 
-0.145229 -0.0147918 -0.165469 -0.141235 -0.011684 -0.165167 -0.145612 -0.00844972 -0.166128 
-0.141066 -0.00739689 -0.165016 -0.143858 -4.66238e-05 -0.165589 -0.140868 0.000101203 -0.162964 
-0.142046 0.00501308 -0.16465 -0.141878 0.0125111 -0.164285 -0.146404 0.015563 -0.165787 
-0.157731 0.0434963 -0.164628 -0.138097 -0.0301031 -0.161293 -0.139858 -0.0231751 -0.163281 
-0.135954 -0.0199561 -0.160995 -0.136914 -0.0165532 -0.162884 -0.137919 -0.0137284 -0.163181 
-0.134204 -0.0109677 -0.161187 -0.128335 -0.00401444 -0.15985 -0.132897 0.00899004 -0.161758 
-0.132698 0.0119804 -0.161503 -0.137114 0.0152053 -0.161961 -0.132756 0.015359 -0.161245 
-0.139029 0.034576 -0.160562 -0.14502 0.0415076 -0.161257 -0.126037 -0.010394 -0.156318 
-0.131198 -0.00730297 -0.159597 -0.121055 -0.00794699 -0.156883 -0.120683 -0.00371899 -0.156894 
-0.128177 0.000196235 -0.159036 -0.120907 0.000615617 -0.155924 -0.123394 0.00513889 -0.157962 
-0.124536 0.00816086 -0.158232 -0.124994 0.0113071 -0.158217 -0.122246 0.0117576 -0.157061 
-0.122001 0.0155939 -0.156713 -0.127624 0.029842 -0.157014 -0.134259 0.0328049 -0.159042 
-0.133675 0.0405197 -0.157037 -0.134644 -0.0537102 -0.153038 -0.123234 -0.0398126 -0.152867 
-0.113778 -0.0237545 -0.152223 -0.121709 -0.0183175 -0.155214 -0.116252 -0.0113311 -0.154627 
-0.131242 0.000764428 -0.153883 -0.115405 -0.00157282 -0.154673 -0.11717 0.00231592 -0.155415 
-0.121973 0.00615287 -0.154368 -0.111713 0.00689434 -0.153009 -0.117246 0.00776759 -0.154191 
-0.121386 0.0198755 -0.154856 -0.134694 0.0491218 -0.154666 -0.13207 0.0508373 -0.153032 
-0.122732 -0.0437481 -0.151424 -0.110211 -0.0141622 -0.151892 -0.10806 -0.0118795 -0.151139 
-0.130803 -0.00841616 -0.150734 -0.112501 -8.27878e-05 -0.15226 -0.10486 0.000327147 -0.149126 
-0.105036 0.0097016 -0.150001 -0.116554 0.020813 -0.152692 -0.142702 -0.0711752 -0.14774 
-0.12283 -0.0556011 -0.147483 -0.107889 -0.0214101 -0.148528 -0.0988485 -0.0154864 -0.14567 
-0.13898 -0.0128908 -0.149602 -0.103823 -0.0119723 -0.148268 -0.0966666 -0.0120722 -0.146217 
-0.100491 -0.00979438 -0.147906 -0.0940582 -0.00683869 -0.145544 -0.108139 -0.00477484 -0.148118 
-0.104059 -0.00506452 -0.148799 -0.0974276 -0.00405957 -0.147117 -0.116816 -0.00284071 -0.148501 
-0.108139 0.00336934 -0.145571 -0.103557 0.00729629 -0.148959 -0.101689 0.00386833 -0.146625 
-0.0983812 0.0081674 -0.147325 -0.0998961 0.0118316 -0.147215 -0.0964731 0.0120779 -0.146206 
-0.0969622 0.0153646 -0.145826 -0.0984796 0.021818 -0.14608 -0.104997 0.0331346 -0.146885 
-0.137859 0.0679422 -0.146489 -0.144607 -0.0795514 -0.143142 -0.105114 -0.0317702 -0.144754 
-0.101466 -0.0352356 -0.144743 -0.104019 -0.0130173 -0.142269 -0.0930016 -0.0130666 -0.142849 
-0.0877248 -0.0094981 -0.142713 -0.0910402 -0.00385227 -0.144431 -0.100248 0.00592249 -0.143504 
-0.095991 0.00400271 -0.144633 -0.110521 0.00682568 -0.144936 -0.0897185 0.00886679 -0.143646 
-0.0922592 0.0130056 -0.144349 -0.0931497 0.0167972 -0.143283 -0.0955619 0.0262726 -0.143073 
-0.0921673 0.0288365 -0.142345 -0.111315 0.0526084 -0.143966 -0.0986897 -0.0522082 -0.138863 
-0.085043 -0.0230582 -0.140282 -0.0844898 -0.0193259 -0.140439 -0.085004 -0.0145365 -0.14129 
-0.0811559 -0.0157409 -0.13951 -0.0849229 -0.0102506 -0.139642 -0.0856726 -0.00548588 -0.140981 
-0.0972506 0.00344745 -0.138742 -0.0866864 0.00307932 -0.140802 -0.0827791 0.00068878 -0.139829 
-0.0792596 0.0026655 -0.139303 -0.0858078 0.0072624 -0.141014 -0.0816398 0.00797329 -0.140311 
-0.0848112 0.011459 -0.141359 -0.124737 0.0170021 -0.139852 -0.0830889 0.019887 -0.139689 
-0.0801289 0.0207711 -0.138405 -0.101131 0.0249507 -0.141424 -0.0928422 -0.0314023 -0.139825 
-0.0753005 -0.02837 -0.135439 -0.103064 -0.0168788 -0.136975 -0.0895736 -0.0145443 -0.134308 
-0.0828339 -0.0137474 -0.137374 -0.0787618 -0.00972725 -0.137846 -0.0720131 -0.00904295 -0.136109 
-0.115632 -0.00357519 -0.13688 -0.0946799 -0.00516856 -0.137338 -0.0813535 -0.00379448 -0.13789 
-0.0776003 0.00473905 -0.135768 -0.0755595 0.0224005 -0.135356 -0.0797137 0.0311561 -0.136736 
-0.0764004 -0.0423792 -0.131679 -0.0675897 -0.0130487 -0.133608 -0.0643949 -0.012504 -0.132733 
-0.0611873 -0.0106885 -0.131479 -0.069468 -0.00914907 -0.133549 -0.0642766 -0.00942832 -0.132835 
-0.0672489 -0.00497534 -0.133211 -0.0868846 -0.000324358 -0.135574 -0.11246 0.00321701 -0.135058 
-0.0856044 0.00390408 -0.136224 -0.0652559 0.0114633 -0.132993 -0.076927 0.0145692 -0.133284 
-0.0614378 0.0145895 -0.131278 -0.0674561 0.0233467 -0.131834 -0.0671715 0.0341339 -0.130954 
-0.10598 -0.0777641 -0.129863 -0.0663358 -0.0402425 -0.12912 -0.0720376 -0.036006 -0.131643 
[...]
POINT_DATA 588
FIELD FieldData 7
id 1 588 int
22 35 32 16 6 10 12 2 11 
44 57 1 30 25 20 13 23 38 
29 19 21 14 7 3 4 69 47 
28 5 40 56 33 54 45 27 73 
66 93 89 61 37 8 52 36 42 
120 51 85 100 87 77 59 91 173 
133 55 176 39 15 94 41 71 31 
17 84 60 78 58 147 113 80 50 
98 46 74 53 92 125 65 63 76 
101 43 18 110 67 86 164 162 102 
145 153 126 117 62 24 112 130 137 
131 190 111 48 108 88 95 103 26 
196 75 34 178 104 207 150 186 121 
97 168 179 180 148 177 82 184 68 
160 127 138 118 193 107 122 114 174 
171 141 140 79 129 202 198 142 195 
159 154 163 106 139 132 166 204 144 
83 49 151 70 187 123 215 210 241 
156 219 158 81 189 134 183 136 116 
250 115 211 143 169 105 119 225 265 
157 149 229 181 146 209 252 170 212 
99 213 270 221 152 197 205 182 124 
175 254 96 228 199 64 278 109 201 
172 272 276 200 161 224 206 261 128 
208 72 251 185 236 280 244 245 220 
191 234 135 305 223 243 167 295 267 
293 227 249 233 238 294 290 314 292 
266 273 226 253 264 230 155 188 260 
263 284 274 235 247 299 218 317 192 
242 321 256 275 289 288 222 255 214 
203 258 259 296 303 232 240 194 248 
262 352 217 367 322 271 344 307 298 
330 283 315 324 287 333 310 282 306 
308 237 351 313 318 302 285 304 277 
297 300 368 331 320 340 165 377 327 
239 281 370 291 336 246 329 347 363 
309 348 231 269 90 279 366 216 355 
332 301 325 394 257 338 326 365 341 
387 360 362 316 342 345 339 311 323 
390 319 356 268 334 346 375 343 419 
385 382 286 354 361 349 328 371 388 
378 410 429 409 418 401 405 393 400 
357 337 380 389 443 369 359 350 422 
415 373 386 312 423 431 414 420 399 
445 404 364 358 427 439 374 353 391 
408 376 383 406 407 9 392 411 335 
425 384 424 379 434 417 438 412 446 
433 402 396 430 372 444 398 395 381 
403 435 413 426 447 432 428 442 440 
421 416 448 436 397 441 437 454 451 
452 460 456 458 450 459 457 455 453 
449 468 462 466 473 465 472 471 463 
464 470 469 461 467 484 480 485 478 
482 474 477 481 476 475 483 479 486 
496 491 493 492 497 488 490 489 495 
498 487 494 506 507 508 510 503 501 
509 511 504 505 500 499 502 519 517 
512 522 513 514 516 518 529 520 521 
515 523 536 528 532 527 533 535 530 
534 531 526 540 543 524 525 549 548 
547 545 546 539 542 538 541 559 555 
544 537 550 552 561 562 557 558 553 
560 554 556 551 569 566 564 565 563 
574 572 568 567 571 570 575 573 588 
587 576 582 581 580 577 583 578 579 
586 585 584 
type 1 588 int
1 1 1 1 1 1 1 1 1 
1 1 1 1 1 1 1 1 1 
1 1 1 1 1 1 1 1 1 
1 1 1 1 1 1 1 1 1 
1 1 1 1 1 1 1 1 1 
1 1 1 1 1 1 1 1 1 
1 1 1 1 1 1 1 1 1 
1 1 1 1 1 1 1 1 1 
1 1 1 1 1 1 1 1 1 
1 1 1 1 1 1 1 1 1 
1 1 1 1 1 1 1 1 1 
1 1 1 1 1 1 1 1 1 
1 1 1 1 1 1 1 1 1 
1 1 1 1 1 1 1 1 1 
1 1 1 1 1 1 1 1 1 
1 1 1 1 1 1 1 1 1 
1 1 1 1 1 1 1 1 1 
1 1 1 1 1 1 1 1 1 
1 1 1 1 1 1 1 1 1 
1 1 1 1 1 1 1 1 1 
1 1 1 1 1 1 1 1 1 
1 1 1 1 1 1 1 1 1 
1 1 1 1 1 1 1 1 1 
1 1 1 1 1 1 1 1 1 
1 1 1 1 1 1 1 1 1 
1 1 1 1 1 1 1 1 1 
1 1 1 1 1 1 1 1 1 
1 1 1 1 1 1 1 1 1 
1 1 1 1 1 1 1 1 1 
1 1 1 1 1 1 1 1 1 
1 1 1 1 1 1 1 1 1 
1 1 1 1 1 1 1 1 1 
1 1 1 1 1 1 1 1 1 
1 1 1 1 1 1 1 1 1 
1 1 1 1 1 1 1 1 1 
1 1 1 1 1 1 1 1 1 
1 1 1 1 1 1 1 1 1 
1 1 1 1 1 1 1 1 1 
1 1 1 1 1 1 1 1 1 
1 1 1 1 1 1 1 1 1 
1 1 1 1 1 1 1 1 1 
1 1 1 1 1 1 1 1 1 
1 1 1 1 1 1 1 1 1 
1 1 1 1 1 1 1 1 1 
1 1 1 1 1 1 1 1 1 
1 1 1 1 1 1 1 1 1 
1 1 1 1 1 1 1 1 1 
1 1 1 1 1 1 1 1 1 
1 1 1 1 1 1 1 1 1 
1 1 1 1 1 1 1 1 1 
1 1 1 1 1 1 1 1 1 
1 1 1 1 1 1 1 1 1 
1 1 1 1 1 1 1 1 1 
1 1 1 1 1 1 1 1 1 
1 1 1 1 1 1 1 1 1 
1 1 1 1 1 1 1 1 1 
1 1 1 1 1 1 1 1 1 
1 1 1 1 1 1 1 1 1 
1 1 1 1 1 1 1 1 1 
1 1 1 1 1 1 1 1 1 
1 1 1 1 1 1 1 1 1 
1 1 1 1 1 1 1 1 1 
1 1 1 1 1 1 1 1 1 
1 1 1 1 1 1 1 1 1 
1 1 1 1 1 1 1 1 1 
1 1 1 
i 3 588 int
0 0 0 0 0 0 0 0 0 
0 0 0 0 0 0 0 0 0 
0 0 0 0 0 0 0 0 0 
0 0 0 0 0 0 0 0 0 
0 0 0 0 0 0 0 0 0 
0 0 0 0 0 0 0 0 0 
0 0 0 0 0 0 0 0 0 
0 0 0 0 0 0 0 0 0 
0 0 0 0 0 0 0 0 0 
0 0 0 0 0 0 0 0 0 
0 0 0 0 0 0 0 0 0 
0 0 0 0 0 0 0 0 0 
0 0 0 0 0 0 0 0 0 
0 0 0 0 0 0 0 0 0 
0 0 0 0 0 0 0 0 0 
0 0 0 0 0 0 0 0 0 
0 0 0 0 0 0 0 0 0 
0 0 0 0 0 0 0 0 0 
0 0 0 0 0 0 0 0 0 
0 0 0 0 0 0 0 0 0 
0 0 0 0 0 0 0 0 0 
0 0 0 0 0 0 0 0 0 
0 0 0 0 0 0 0 0 0 
0 0 0 0 0 0 0 0 0 
0 0 0 0 0 0 0 0 0 
0 0 0 0 0 0 0 0 0 
0 0 0 0 0 0 0 0 0 
0 0 0 0 0 0 0 0 0 
0 0 0 0 0 0 0 0 0 
0 0 0 0 0 0 0 0 0 
0 0 0 0 0 0 0 0 0 
0 0 0 0 0 0 0 0 0 
0 0 0 0 0 0 0 0 0 
0 0 0 0 0 0 0 0 0 
0 0 0 0 0 0 0 0 0 
0 0 0 0 0 0 0 0 0 
0 0 0 0 0 0 0 0 0 
0 0 0 0 0 0 0 0 0 
0 0 0 0 0 0 0 0 0 
0 0 0 0 0 0 0 0 0 
0 0 0 0 0 0 0 0 0 
0 0 0 0 0 0 0 0 0 
0 0 0 0 0 0 0 0 0 
0 0 0 0 0 0 0 0 0 
0 0 0 0 0 0 0 0 0 
0 0 0 0 0 0 0 0 0 
0 0 0 0 0 0 0 0 0 
0 0 0 0 0 0 0 0 0 
0 0 0 0 0 0 0 0 0 
0 0 0 0 0 0 0 0 0 
0 0 0 0 0 0 0 0 0 
0 0 0 0 0 0 0 0 0 
0 0 0 0 0 0 0 0 0 
0 0 0 0 0 0 0 0 0 
0 0 0 0 0 0 0 0 0 
0 0 0 0 0 0 0 0 0 
0 0 0 0 0 0 0 0 0 
0 0 0 0 0 0 0 0 0 
0 0 0 0 0 0 0 0 0 
0 0 0 0 0 0 0 0 0 
0 0 0 0 0 0 0 0 0 
0 0 0 0 0 0 0 0 0 
0 0 0 0 0 0 0 0 0 
0 0 0 0 0 0 0 0 0 
0 0 0 0 0 0 0 0 0 
0 0 0 0 0 0 0 0 0 
0 0 0 0 0 0 0 0 0 
0 0 0 0 0 0 0 0 0 
0 0 0 0 0 0 0 0 0 
0 0 0 0 0 0 0 0 0 
0 0 0 0 0 0 0 0 0 
0 0 0 0 0 0 0 0 0 
0 0 0 0 0 0 0 0 0 
0 0 0 0 0 0 0 0 0 
0 0 0 0 0 0 0 0 0 
0 0 0 0 0 0 0 0 0 
0 0 0 0 0 0 0 0 0 
0 0 0 0 0 0 0 0 0 
0 0 0 0 0 0 0 0 0 
0 0 0 0 0 0 0 0 0 
0 0 0 0 0 0 0 0 0 
0 0 0 0 0 0 0 0 0 
0 0 0 0 0 0 0 0 0 
0 0 0 0 0 0 0 0 0 
0 0 0 0 0 0 0 0 0 
0 0 0 0 0 0 0 0 0 
0 0 0 0 0 0 0 0 0 
0 0 0 0 0 0 0 0 0 
0 0 0 0 0 0 0 0 0 
0 0 0 0 0 0 0 0 0 
0 0 0 0 0 0 0 0 0 
0 0 0 0 0 0 0 0 0 
0 0 0 0 0 0 0 0 0 
0 0 0 0 0 0 0 0 0 
0 0 0 0 0 0 0 0 0 
0 0 0 0 0 0 0 0 0 
0 0 0 0 0 0 0 0 0 
0 0 0 0 0 0 0 0 0 
0 0 0 0 0 0 0 0 0 
0 0 0 0 0 0 0 0 0 
0 0 0 0 0 0 0 0 0 
0 0 0 0 0 0 0 0 0 
0 0 0 0 0 0 0 0 0 
0 0 0 0 0 0 0 0 0 
0 0 0 0 0 0 0 0 0 
0 0 0 0 0 0 0 0 0 
0 0 0 0 0 0 0 0 0 
0 0 0 0 0 0 0 0 0 
0 0 0 0 0 0 0 0 0 
0 0 0 0 0 0 0 0 0 
0 0 0 0 0 0 0 0 0 
0 0 0 0 0 0 0 0 0 
0 0 0 0 0 0 0 0 0 
0 0 0 0 0 0 0 0 0 
0 0 0 0 0 0 0 0 0 
0 0 0 0 0 0 0 0 0 
0 0 0 0 0 0 0 0 0 
0 0 0 0 0 0 0 0 0 
0 0 0 0 0 0 0 0 0 
0 0 0 0 0 0 0 0 0 
0 0 0 0 0 0 0 0 0 
0 0 0 0 0 0 0 0 0 
0 0 0 0 0 0 0 0 0 
0 0 0 0 0 0 0 0 0 
0 0 0 0 0 0 0 0 0 
0 0 0 0 0 0 0 0 0 
0 0 0 0 0 0 0 0 0 
0 0 0 0 0 0 0 0 0 
0 0 0 0 0 0 0 0 0 
0 0 0 0 0 0 0 0 0 
0 0 0 0 0 0 0 0 0 
0 0 0 0 0 0 0 0 0 
0 0 0 0 0 0 0 0 0 
0 0 0 0 0 0 0 0 0 
0 0 0 0 0 0 0 0 0 
0 0 0 0 0 0 0 0 0 
0 0 0 0 0 0 0 0 0 
0 0 0 0 0 0 0 0 0 
0 0 0 0 0 0 0 0 0 
0 0 0 0 0 0 0 0 0 
0 0 0 0 0 0 0 0 0 
0 0 0 0 0 0 0 0 0 
0 0 0 0 0 0 0 0 0 
0 0 0 0 0 0 0 0 0 
0 0 0 0 0 0 0 0 0 
0 0 0 0 0 0 0 0 0 
0 0 0 0 0 0 0 0 0 
0 0 0 0 0 0 0 0 0 
0 0 0 0 0 0 0 0 0 
0 0 0 0 0 0 0 0 0 
0 0 0 0 0 0 0 0 0 
0 0 0 0 0 0 0 0 0 
0 0 0 0 0 0 0 0 0 
0 0 0 0 0 0 0 0 0 
0 0 0 0 0 0 0 0 0 
0 0 0 0 0 0 0 0 0 
0 0 0 0 0 0 0 0 0 
0 0 0 0 0 0 0 0 0 
0 0 0 0 0 0 0 0 0 
0 0 0 0 0 0 0 0 0 
0 0 0 0 0 0 0 0 0 
0 0 0 0 0 0 0 0 0 
0 0 0 0 0 0 0 0 0 
0 0 0 0 0 0 0 0 0 
0 0 0 0 0 0 0 0 0 
0 0 0 0 0 0 0 0 0 
0 0 0 0 0 0 0 0 0 
0 0 0 0 0 0 0 0 0 
0 0 0 0 0 0 0 0 0 
0 0 0 0 0 0 0 0 0 
0 0 0 0 0 0 0 0 0 
0 0 0 0 0 0 0 0 0 
0 0 0 0 0 0 0 0 0 
0 0 0 0 0 0 0 0 0 
0 0 0 0 0 0 0 0 0 
0 0 0 0 0 0 0 0 0 
0 0 0 0 0 0 0 0 0 
0 0 0 0 0 0 0 0 0 
0 0 0 0 0 0 0 0 0 
0 0 0 0 0 0 0 0 0 
0 0 0 0 0 0 0 0 0 
0 0 0 0 0 0 0 0 0 
0 0 0 0 0 0 0 0 0 
0 0 0 0 0 0 0 0 0 
0 0 0 0 0 0 0 0 0 
0 0 0 0 0 0 0 0 0 
0 0 0 0 0 0 0 0 0 
0 0 0 0 0 0 0 0 0 
0 0 0 0 0 0 0 0 0 
0 0 0 0 0 0 0 0 0 
0 0 0 0 0 0 0 0 0 
0 0 0 0 0 0 0 0 0 
0 0 0 0 0 0 0 0 0 
0 0 0 0 0 0 0 0 0 
0 0 0 0 0 0 0 0 0 
0 0 0 0 0 0 0 0 0 

v 3 588 double
-1.40023 -0.251904 -1.61194 -1.34345 0.15557 -1.23891 -1.49282 0.013101 -1.25746 
-1.41114 0.00647445 -1.08726 -1.3674 -0.00979849 -0.855055 -1.29594 0.0210826 -0.820878 
-1.37111 0.0250101 -0.776394 -1.34676 -0.00926674 -0.808427 -1.28523 -0.041963 -0.702585 
-1.35377 -0.0625207 -0.810257 -1.40329 -0.151216 -0.706319 -1.29447 -0.0102819 -0.678599 
-1.29539 0.0619969 -0.565235 -1.30627 -0.0249384 -0.61268 -1.23863 -0.175653 -0.833844 
-1.29435 0.223299 -0.625318 -1.24553 -0.0597949 -0.528701 -1.30639 -0.0485109 -0.555916 
-1.30503 -0.0378207 -0.553521 -1.10812 -0.0136639 -0.464644 -1.34822 -0.0827795 -0.575762 
-1.14598 0.0397467 -0.413836 -0.972985 0.0439004 -0.411624 -1.21961 0.159241 -0.504707 
-1.1086 0.071188 -0.470429 -1.11379 0.0354541 -0.467153 -1.20706 -0.0134332 -0.510618 
-1.20262 0.0103058 -0.51007 -1.21666 0.0910277 -0.521755 -1.22797 0.0349909 -0.520232 
-1.0984 7.58199e-05 -0.462754 -1.22874 0.122367 -0.537438 -1.17671 0.205561 -0.517191 
-1.18044 0.176241 -0.507393 -1.13632 0.0407957 -0.473434 -1.04138 0.087206 -0.450513 
-1.18334 -0.0920333 -0.490239 -1.18841 0.0576253 -0.524797 -1.06364 0.0569671 -0.45211 
-1.07279 0.0710156 -0.44369 -1.11879 0.0956803 -0.478082 -1.02397 0.00955578 -0.434384 
-1.04948 0.0164731 -0.442697 -1.04138 0.0408105 -0.440507 -1.03347 0.0497481 -0.4307 
-1.02872 0.0450297 -0.404036 -1.05489 0.35516 -0.97334 -1.02727 0.0250862 -0.469637 
-1.07029 0.0560235 -0.494611 -1.06024 0.0502621 -0.463301 -0.918592 -0.00474737 -0.385381 
-1.0196 0.065566 -0.43176 -0.908045 -0.0290865 -0.33314 -1.29282 0.0433683 -0.558686 
-0.976773 -0.0225247 -0.422011 -0.91856 -0.0869051 -0.394116 -0.856484 0.0189615 -0.35642 
-0.894761 -0.0179696 -0.383945 -0.907548 -0.0162728 -0.375181 -1.13394 -0.0426894 -0.476037 
-0.965351 -0.0358963 -0.417395 -0.795283 -0.0470022 -0.342047 -0.90085 0.036487 -0.382115 
-0.894787 0.0275533 -0.378037 -1.07231 -0.176009 -0.470925 -1.05908 -0.315303 -0.662627 
-0.911388 -0.00995668 -0.398166 -0.846397 -0.0168411 -0.349226 -1.12661 -0.0766101 -0.474598 
-0.93072 -0.0965995 -0.373832 -0.828088 -0.112186 -0.321944 -0.872333 0.0452117 -0.387679 
-0.772192 0.0261523 -0.347527 -0.865784 -0.00864865 -0.357648 -0.849337 -0.031097 -0.349154 
-0.769096 -0.102607 -0.309334 -0.743351 -0.0640528 -0.297336 -0.846523 -0.0169084 -0.363278 
-0.875007 -0.0566598 -0.37206 -1.04077 0.112679 -0.475885 -0.910328 0.0967188 -0.407836 
-0.802691 -0.14824 -0.304997 -0.946327 -0.0643654 -0.361942 -0.884404 0.00526118 -0.366441 
-0.736705 -0.0554543 -0.317748 -0.89328 -0.0115592 -0.384122 -0.753001 0.0471636 -0.31285 
-0.859923 0.0254381 -0.357268 -0.879035 0.0865418 -0.365002 -0.77254 -5.91915e-05 -0.314437 
-1.00335 0.101371 -0.401115 -0.949198 -0.000181776 -0.424376 -1.03734 -0.164076 -0.460229 
-1.04157 -0.210429 -0.529458 -0.920095 0.0414931 -0.379216 -0.971776 -0.0410016 -0.385687 
-0.876124 0.0254799 -0.365124 -0.892851 0.0235468 -0.368327 -0.738604 0.0777523 -0.316755 
-1.07319 0.0132455 -0.516025 -0.907083 -0.00286814 -0.377104 -0.900972 0.081678 -0.375128 
-0.877102 0.033336 -0.372129 -0.958511 0.0570102 -0.390764 -0.939596 -0.120783 -0.415189 
-0.856152 -0.0889389 -0.327544 -0.871017 -0.0719944 -0.364561 -0.822978 -0.0331824 -0.326299 
-0.863865 0.0910615 -0.36778 -0.845191 0.117336 -0.347694 -0.858892 -0.150196 -0.400602 
-0.687008 -0.191501 -0.238198 -0.682543 0.0652729 -0.289577 -1.09234 -0.350679 -0.328469 
-0.799402 -0.0622069 -0.319114 -0.882575 -0.024298 -0.733921 -0.764849 0.0436122 -0.32138 
-0.971167 0.212778 -0.485969 -0.935963 -0.0903939 -0.372149 -0.697348 0.00207826 -0.281418 
-0.777062 -0.00470559 -0.331625 -0.914911 -0.023571 -0.601046 -0.862067 0.0386983 -0.355385 
-0.773539 -0.00517231 -0.323634 -0.577622 0.0219362 -0.232656 -0.762716 -0.00120542 -0.324292 
-0.655308 -0.0423117 -0.281688 -0.693044 0.0430998 -0.28512 -0.684484 -0.00705277 -0.3015 
-0.716744 -0.019045 -0.307392 -0.800639 -0.0833007 -0.352768 -0.709006 0.0529813 -0.284892 
-0.834528 -0.0807653 -0.359018 -0.757159 -0.0276821 -0.317909 -0.875089 -0.06281 -0.328231 
-0.786478 0.0128015 -0.317348 -0.895952 -0.0123894 -0.344815 -0.88778 0.0499874 -0.380003 
-0.900504 0.0397185 -0.387857 -0.883949 0.0634475 -0.380268 -0.82944 -0.0102598 -0.343195 
-0.739051 0.0160973 -0.28572 -0.713874 0.00263906 -0.296566 -0.73297 -0.00572285 -0.302277 
-0.89872 -0.0851846 -0.378199 -0.929444 -0.0736398 -0.39393 -0.795281 0.00156474 -0.314407 
-0.75843 -0.0357063 -0.296654 -1.12674 -0.181992 -0.479013 -0.790001 0.0798772 -0.355585 
-0.870846 0.0680302 -0.376454 -0.985036 -0.0852059 -0.406357 -0.766362 0.0480639 -0.311258 
-0.806142 -0.0862981 -0.342111 -0.835904 -0.100344 -0.371304 -0.805471 -0.0232951 -0.341534 
-0.744857 0.0649187 -0.315006 -1.11254 -0.112412 -0.345392 -0.783415 -0.0275728 -0.331914 
-0.918871 -0.0981704 -0.632431 -0.817657 -0.000678811 -0.336623 -0.947548 0.0319495 -0.61176 
-0.734931 0.0189526 -0.321751 -1.02516 -0.00613264 -0.646685 -0.708903 0.00277291 -0.292129 
-0.871583 -0.0929597 -0.39081 -0.870078 0.0287736 -0.360877 -0.815051 0.0394971 -0.35319 
-0.772691 -0.0154449 -0.329202 -0.769391 0.0082459 -0.328744 -0.765022 -0.00910301 -0.31716 
-0.612143 -0.0973127 -0.457679 -0.66651 0.0784729 -0.283543 -0.832285 -0.139436 -0.215468 
-0.689311 0.100726 -0.279478 -0.709063 0.0157177 -0.287371 -0.708761 0.029672 -0.286252 
-0.735153 -0.0525875 -0.322783 -0.808658 -0.0991882 -0.319659 -0.913864 0.00742235 -0.378861 
-0.766921 -0.0404559 -0.329492 -0.762814 -0.02259 -0.317196 -0.746891 -0.171066 -0.603834 
-0.754571 0.0292559 -0.326869 -0.604483 0.0273852 -0.307987 -0.549523 0.00401929 -0.227515 
-0.721687 0.0758407 -0.292046 -0.685068 0.0360099 -0.287005 -0.797558 -0.0388433 -0.330113 
-0.696732 -0.0665831 -0.294887 -0.792043 0.0374213 -0.29996 -0.936626 0.0899873 -0.372343 
-0.851644 0.0910271 -0.374542 -0.607028 -0.1574 -0.24415 -0.509731 -0.0568251 -0.2186 
-0.630573 0.00104387 -0.270159 -0.627332 -0.0146966 -0.268812 -0.733587 -0.0545088 -0.304595 
-0.684758 -0.00705228 -0.281259 -0.708995 -0.00641679 -0.291252 -0.708411 0.0128493 -0.289588 
-0.740018 0.0105725 -0.301692 -0.849726 -0.0736199 -0.368186 -0.722255 -0.047567 -0.300753 
-1.04657 -0.067445 -0.451545 -0.74337 0.168134 -0.372276 -0.678875 -0.136932 -0.236775 
-0.569413 -0.0236261 -0.234398 -0.827936 -0.0428945 -0.334754 -0.497462 -0.164119 -0.199497 
-0.929715 0.304501 -0.142748 -0.598276 0.00327784 -0.246407 -0.618052 -0.0154124 -0.26495 
-0.708662 -0.0245876 -0.323182 -0.723626 0.028609 -0.300584 -0.713514 -0.0126937 -0.301287 
-0.772533 0.0556571 -0.317591 -0.753313 0.0315917 -0.298345 -0.847461 0.287786 -0.260097 
-0.695759 -0.184998 -0.22866 -0.71238 0.0704596 -0.303527 -0.682243 0.0583396 -0.290088 
-0.885768 -0.185287 -0.180427 -0.612157 0.0582975 -0.266745 -0.413997 0.00919255 -0.169748 
-0.666154 0.0940044 -0.223791 -0.919517 0.146771 -0.361471 -0.636225 0.202493 -0.377563 
-0.876185 -0.259342 -0.236992 -0.764749 0.0276999 -0.331229 -0.440857 0.153557 -0.149178 
-0.91411 0.136395 -0.520929 -0.712987 0.0346815 -0.306948 -0.501452 0.249304 -0.176317 
-0.495536 -0.260643 -0.0960465 -0.670746 0.0458139 -0.283799 -0.759356 -0.00472836 -0.571721 
-0.654486 0.0263267 -0.27848 -0.563941 0.0320311 -0.236285 -1.18906 -0.239109 -0.308997 
-0.859297 0.251367 -0.246111 -0.456235 0.122579 -0.321224 -0.747165 -0.155978 -0.440856 
-0.621507 -0.047615 -0.263698 -0.492718 0.146481 -0.327475 -0.499499 -0.03208 -0.211412 
-0.615725 0.001032 -0.273037 -0.521851 0.131582 -0.192897 -0.454058 0.0805969 -0.167858 
-0.49663 0.122973 -0.12317 -0.852852 0.0278991 -0.313738 -0.409754 -0.0126206 -0.167739 
-0.396798 -0.174444 -0.158672 -0.79364 0.0240787 -0.31324 -0.639597 -0.247342 -0.40976 
-0.626787 -0.00373876 -0.265769 -0.596317 -0.0131154 -0.232373 -0.812608 0.0284057 -0.428842 
-0.604643 0.0208275 -0.12065 -0.984903 -0.153922 -0.432571 -0.490105 -0.0550865 -0.209451 
-0.481632 -0.10141 -0.195419 -0.774912 -0.0847442 -0.306468 -0.686759 -0.0505769 -0.293105 
-0.638677 -0.0680899 -0.280452 -0.813584 0.155704 -0.277776 -0.621327 -0.281582 -0.32257 
-0.577763 0.0218982 -0.244027 -0.531314 0.00606573 -0.228753 -0.453509 -0.0540291 -0.187121 
-0.343095 -0.0451905 -0.315208 -0.606515 0.0570758 -0.276085 -0.627152 0.059338 -0.270586 
-0.952936 0.0943762 0.0926565 -0.585899 0.133327 -0.729353 -0.487817 0.0463459 -0.206485 
-0.488468 -0.0314557 -0.20902 -0.477652 -0.0398607 -0.203507 -0.443323 -0.00491724 -0.187027 
-0.52208 -0.00978073 -0.222946 -1.53925 0.230518 -0.442264 -0.438263 0.190058 -0.458478 
-0.787459 0.330449 -0.279612 -0.756816 -0.0326687 -0.729228 -0.632994 -0.131974 -0.916587 
-0.399073 -0.221134 -0.113647 -0.966949 0.100851 -0.394513 -0.80953 0.0612401 -0.15389 
-0.667919 0.0103155 -0.359816 -0.551536 -0.0344314 -0.229447 -0.501623 0.129698 -0.218982 
-0.982111 0.254885 -0.608244 -0.624912 0.0200291 -0.715268 -0.56652 0.00679376 -0.357723 
-0.640327 0.198238 -0.101773 -0.628593 0.130319 -0.238262 -0.656577 0.252476 -0.228372 
-0.756696 -0.0452358 -0.295372 -0.536025 0.0723019 -0.207272 -0.501833 0.00184456 -0.214606 
-0.512854 -0.0317717 -0.214186 -0.509847 0.0254416 -0.15492 -0.51735 0.0715935 -0.221363 
-0.615108 -0.0549048 -0.256028 -0.763308 -0.0253528 -0.809853 -0.660839 -0.238081 -0.771783 
-0.71091 -0.00526337 -0.818394 -0.73166 0.278738 -0.238344 -0.719559 0.338379 -0.635858 
-0.509296 0.0332955 -0.210201 -0.579059 0.0849323 -0.225051 -0.366378 -0.0545 -0.161231 
-0.708141 -0.107766 -0.205258 -0.836961 -0.278469 -0.369127 -0.711443 -0.448626 -0.519808 
-0.470524 -0.23481 -0.151857 -0.829249 -0.00261214 -0.116224 -0.609935 0.10315 -0.547133 
-0.490094 0.0442849 -0.208292 -0.362818 0.036643 -0.164732 -0.572669 0.0587859 -0.245059 
-0.71497 -0.327265 -0.730131 -0.800782 0.239692 -0.330849 -1.07962 0.301509 -0.574305 
-0.388174 -0.00757652 -0.167841 -0.888393 0.102019 -0.418102 -0.498141 -0.0455394 -0.207175 
-0.486276 0.0521807 -0.190029 -0.445408 0.0835036 -0.19413 -0.552337 0.102085 -0.15766 
-0.664109 -0.405574 -0.196494 -0.373455 -0.10985 -0.143291 -0.631814 -0.0863775 -0.261779 
-0.732181 -0.110349 -0.521775 -0.392842 -0.124082 -0.203337 -0.400741 -0.183011 -0.118364 
-0.565537 0.0124139 -0.158792 -0.433324 -0.082691 -0.188002 -0.314193 -0.0217987 -0.116666 
-0.391215 -0.0571563 -0.170777 -0.572541 -0.076538 -0.27005 -0.743416 -0.192541 -0.603425 
-0.762857 0.218877 -0.260489 -0.35466 0.00274258 -0.152833 -0.669064 0.0736695 -0.291208 
-0.694607 0.15001 -0.63131 -0.346752 0.0456037 -0.289212 -0.301139 0.0043387 -0.126143 
-0.749141 -0.0168511 -0.511291 -0.56583 0.412482 -0.496608 -0.609383 -0.0186843 -0.442643 
-0.969285 0.159334 -0.164282 -0.37178 -0.0581928 -0.155617 -0.399646 0.058677 -0.197684 
-0.381981 -0.0522954 -0.170404 -0.329206 0.059548 -0.148134 -0.676879 0.0931092 -0.729684 
-0.409316 -0.0659104 -0.137404 -0.71541 0.262642 -0.605672 -0.173958 -0.00789194 0.00325273 
-0.241276 0.249081 -0.0709134 -0.623565 -0.00566933 -0.412232 -0.448739 -0.179456 -0.710488 
-0.696059 -0.326682 -0.467252 -0.311337 -0.0322803 -0.122596 -0.578304 -0.0810143 -0.202567 
-0.693091 -0.156221 -0.573743 -0.633982 -0.320461 -0.160839 -0.595178 -0.132037 -0.386871 
-0.506972 0.0190654 -0.227775 -0.65765 0.71626 -0.16892 -0.914262 -0.591646 -0.817078 
-0.720017 0.322425 -0.00466541 -1.02844 0.157808 -0.229342 -0.677027 0.236831 -0.109299 
-0.754938 0.181228 -0.0327909 -0.234047 0.0624611 -0.2853 -0.521434 -0.0250968 -0.140035 
-0.355257 -0.286062 -0.149915 -0.827364 -0.131056 -0.318459 -0.274877 -0.205727 -0.135122 
-0.494523 -0.236489 -0.445264 0.248534 0.303161 0.471781 -0.103559 0.163319 -0.0616712 
-0.29663 0.165169 -0.0709107 -0.49361 -0.170753 -0.346152 -0.720296 -0.234494 0.0908915 
-0.420767 -0.288625 -0.196735 -0.420986 0.0854199 0.139243 -0.872123 0.22829 -0.446228 
-0.282901 0.0797938 -0.262483 -0.877725 0.145629 -0.0128892 -0.246087 0.261279 0.251632 
-0.529194 0.429115 -0.281463 -0.586721 0.084181 -0.20581 -0.74361 0.235968 -0.0996177 
-0.665819 0.564508 0.14547 0.0840963 0.322887 -1.0125 -0.283751 0.100584 -0.297368 
-0.646793 0.0219488 -0.430246 -0.743708 0.138825 0.161201 -0.723345 0.00932989 0.279302 
-0.517834 -0.253129 -0.431097 -0.714328 -0.146745 -0.406228 -0.120985 -0.323627 -0.0216069 
-0.476792 0.162956 -0.178255 -0.328185 0.0896594 0.0110246 0.445589 -0.494967 -1.0939 
-0.423467 0.0524752 0.0348801 -0.863295 0.0752397 -0.179818 -0.577996 0.19561 -0.370904 
-0.364655 0.115095 -0.193154 -0.723386 0.297837 0.0796829 -0.556295 0.0748484 -0.348276 
-0.623293 0.262518 0.189388 -0.624768 0.111176 -0.104618 -0.742364 -0.0800392 0.046349 