# vtk DataFile Version 4.0
Generated by LIGGGHTS
ASCII
DATASET POLYDATA
POINTS 77 float
-0.0208226 -0.00599195 -0.0142784 -0.00462371 0.0206347 -0.0147852 -0.00174714 0.0260627 -0.0139348 
-0.00894204 -0.016163 -0.0126011 -0.0299058 -0.00882918 -0.013328 -0.0190478 0.013684 -0.0118039 
-0.0160886 0.0216478 -0.0121019 -0.00953586 0.00971988 -0.0088357 -0.00217367 0.0240852 -0.0086476 
-0.0134792 -0.0343741 -0.00309339 -0.00618745 -0.0313193 -0.0039907 -0.0106535 -0.0244251 -0.00510095 
-0.0124546 0.031784 -0.00402372 -0.028663 -0.019004 0.00271145 -0.0101549 -0.0158816 0.0037531 
-0.0214597 -0.00448395 0.00113622 -0.0244429 0.0229939 0.00088944 -0.0202974 -0.0199605 0.00648618 
-0.0219947 -0.0107694 0.00713751 -0.0275046 -0.000700049 0.00449435 -0.0083641 0.00277185 0.00503499 
-0.00857183 -0.027925 0.00954366 -0.00408721 -0.0194644 0.0115756 -0.00454319 0.0203252 0.0103207 
-0.0159102 -0.0341757 0.014126 -0.00174502 0.0344165 0.0117305 -0.0327631 -0.0200888 0.0164202 
-0.0230202 -0.021037 0.0187285 -0.0159539 -0.00381092 0.0158746 -0.0300659 -0.00019371 0.0160575 
-0.0235267 0.0224168 0.016319 -0.020721 -0.0135944 0.0219666 -0.0127396 -0.0137041 0.0222108 
-0.000459601 -0.00791581 0.0211196 -0.0229734 0.000876534 0.0192362 -0.0221714 0.00979368 0.0212998 
-0.0160817 -0.000243398 0.025308 -0.0240929 0.0291618 0.0228623 -0.0175025 -0.0228838 0.031712 
-0.022804 -0.0140579 0.0325411 -0.0251247 -0.00571197 0.0321889 -0.024531 -1.04943e-05 0.0309312 
-0.0306884 0.0042356 0.0302876 -0.018642 0.00531382 0.0318302 -0.027916 0.0296421 0.03052 
-0.0105626 -0.00654333 0.0344355 -0.027846 0.00485213 0.0357262 -0.00180681 0.0181929 0.0360636 
-0.0178022 0.0256262 0.0357403 -0.021213 0.0304724 0.0364969 -0.0294843 -0.0242442 0.0372444 
-0.0337701 0.0102173 0.0399398 -0.0315539 0.028352 0.0393425 -0.0221544 -0.0267021 0.0424649 
-0.0188291 -0.0129094 0.0426231 -0.0262531 0.00245318 0.0419936 -0.0274253 0.00637934 0.0415052 
-0.0284955 0.0109203 0.041225 -0.0264294 0.0258143 0.0407833 -0.0046838 -0.0346092 0.045325 
-0.0205837 -0.0294247 0.0461425 -0.00322644 -0.0143029 0.045139 -0.00206763 0.0123655 0.0465807 
-0.0315184 0.0323336 0.0474587 -0.00317446 -0.00327501 0.0498453 -0.0181818 0.00594264 0.0482229 
-0.0113639 0.00609324 0.0496153 -0.0237558 0.020832 0.0496052 -0.0233787 0.0259916 0.0507234 
-0.0101315 -0.0171842 0.0528809 -0.00618278 0.0247152 0.0516572 -0.00512449 -0.0296766 0.0559392 
-0.0132118 -0.0121788 0.0558306 -0.0226093 -0.00790771 0.0562858 -0.00331379 -0.00673963 0.0577444 
-0.0332492 0.0212435 0.0580799 -0.0176419 0.0252752 0.0567047 
VERTICES 77 154
1 0 
1 1 
1 2 
1 3 
1 4 
1 5 
1 6 
1 7 
1 8 
1 9 
1 10 
1 11 
1 12 
1 13 
1 14 
1 15 
1 16 
1 17 
1 18 
1 19 
1 20 
1 21 
1 22 
1 23 
1 24 
1 25 
1 26 
1 27 
1 28 
1 29 
1 30 
1 31 
1 32 
1 33 
1 34 
1 35 
1 36 
1 37 
1 38 
1 39 
1 40 
1 41 
1 42 
1 43 
1 44 
1 45 
1 46 
1 47 
1 48 
1 49 
1 50 
1 51 
1 52 
1 53 
1 54 
1 55 
1 56 
1 57 
1 58 
1 59 
1 60 
1 61 
1 62 
1 63 
1 64 
1 65 
1 66 
1 67 
1 68 
1 69 
1 70 
1 71 
1 72 
1 73 
1 74 
1 75 
1 76 

POINT_DATA 77
FIELD FieldData 7
id 1 77 int
2 7 1 12 10 6 4 8 9 
3 13 5 11 20 18 19 22 23 
25 16 21 24 15 14 38 17 30 
35 29 28 33 32 36 26 31 37 
27 34 50 47 51 49 42 48 44 
45 43 39 46 41 40 60 56 54 
53 59 64 55 61 52 62 63 58 
57 72 73 65 67 69 75 71 76 
70 77 68 66 74 
type 1 77 int
1 1 1 1 1 1 1 1 1 
1 1 1 1 1 1 1 1 1 
1 1 1 1 1 1 1 1 1 
1 1 1 1 1 1 1 1 1 
1 1 1 1 1 1 1 1 1 
1 1 1 1 1 1 1 1 1 
1 1 1 1 1 1 1 1 1 
1 1 1 1 1 1 1 1 1 
1 1 1 1 1 
i 3 77 int
0 0 0 0 0 0 0 0 0 
0 0 0 0 0 0 0 0 0 
0 0 0 0 0 0 0 0 0 
0 0 0 0 0 0 0 0 0 
0 0 0 0 0 0 0 0 0 
0 0 0 0 0 0 0 0 0 
0 0 0 0 0 0 0 0 0 
0 0 0 0 0 0 0 0 0 
0 0 0 0 0 0 0 0 0 
0 0 0 0 0 0 0 0 0 
0 0 0 0 0 0 0 0 0 
0 0 0 0 0 0 0 0 0 
0 0 0 0 0 0 0 0 0 
0 0 0 0 0 0 0 0 0 
0 0 0 0 0 0 0 0 0 
0 0 0 0 0 0 0 0 0 
0 0 0 0 0 0 0 0 0 
0 0 0 0 0 0 0 0 0 
0 0 0 0 0 0 0 0 0 
0 0 0 0 0 0 0 0 0 
0 0 0 0 0 0 0 0 0 
0 0 0 0 0 0 0 0 0 
0 0 0 0 0 0 0 0 0 
0 0 0 0 0 0 0 0 0 
0 0 0 0 0 0 0 0 0 
0 0 0 0 0 0 
v 3 77 double
0 0 -1.50369 0 0 -1.50703 0 0 -1.50144 
0 0 -1.49271 0 0 -1.49751 0 0 -1.48751 
0 0 -1.48947 0 0 -1.46779 0 0 -1.46651 
0 0 -1.42884 0 0 -1.43502 0 0 -1.44258 
0 0 -1.43522 0 0 -1.38843 0 0 -1.38107 
0 0 -1.39951 0 0 -1.40128 0 0 -1.36155 
0 0 -1.35684 0 0 -1.37577 0 0 -1.37195 
0 0 -1.33928 0 0 -1.32437 0 0 -1.33359 
0 0 -1.30534 0 0 -1.32319 0 0 -1.28797 
0 0 -1.27022 0 0 -1.29209 0 0 -1.29072 
0 0 -1.28876 0 0 -1.245 0 0 -1.24304 
0 0 -1.25168 0 0 -1.26629 0 0 -1.2502 
0 0 -1.21842 0 0 -1.23794 0 0 -1.16564 
0 0 -1.15868 0 0 -1.16162 0 0 -1.17221 
0 0 -1.17761 0 0 -1.16466 0 0 -1.17565 
0 0 -1.14249 0 0 -1.1314 0 0 -1.12846 
0 0 -1.13131 0 0 -1.12473 0 0 -1.11816 
0 0 -1.09423 0 0 -1.09962 0 0 -1.07137 
0 0 -1.0699 0 0 -1.07568 0 0 -1.0801 
0 0 -1.08265 0 0 -1.08667 0 0 -1.04488 
0 0 -1.03713 0 0 -1.04665 0 0 -1.03301 
0 0 -1.02467 0 0 -1.00152 0 0 -1.01731 
0 0 -1.00378 0 0 -1.00387 0 0 -1 
0 0 -1 0 0 -1 0 0 -1 
0 0 -1 0 0 -1 0 0 -1 
0 0 -1 0 0 -1 
f 3 77 double
0 0 -0.00160516 0 0 -0.000346714 0 0 -0.00160516 
0 0 -0.000346714 0 0 -0.000346714 0 0 -0.000346714 
0 0 -0.00160516 0 0 -0.000346714 0 0 -0.000346714 
0 0 -0.00160516 0 0 -0.000346714 0 0 -0.00160516 
0 0 -0.000346714 0 0 -0.000346714 0 0 -0.000346714 
0 0 -0.000346714 0 0 -0.000346714 0 0 -0.000346714 
0 0 -0.000346714 0 0 -0.00160516 0 0 -0.000346714 
0 0 -0.000346714 0 0 -0.00160516 0 0 -0.00160516 
0 0 -0.000346714 0 0 -0.00160516 0 0 -0.00160516 
0 0 -0.000346714 0 0 -0.00160516 0 0 -0.00160516 
0 0 -0.000346714 0 0 -0.000346714 0 0 -0.000346714 
0 0 -0.00160516 0 0 -0.000346714 0 0 -0.000346714 
0 0 -0.00160516 0 0 -0.000346714 0 0 -0.000346714 
0 0 -0.000346714 0 0 -0.000346714 0 0 -0.000346714 
0 0 -0.00160516 0 0 -0.000346714 0 0 -0.000346714 
0 0 -0.000346714 0 0 -0.00160516 0 0 -0.00160516 
0 0 -0.000346714 0 0 -0.00160516 0 0 -0.00160516 
0 0 -0.000346714 0 0 -0.000346714 0 0 -0.00160516 
0 0 -0.00160516 0 0 -0.000346714 0 0 -0.000346714 
0 0 -0.00160516 0 0 -0.000346714 0 0 -0.00160516 
0 0 -0.000346714 0 0 -0.000346714 0 0 -0.000346714 
0 0 -0.000346714 0 0 -0.000346714 0 0 -0.000346714 
0 0 -0.00160516 0 0 -0.00160516 0 0 0 
0 0 0 0 0 0 0 0 0 
0 0 0 0 0 0 0 0 0 
0 0 0 0 0 0 
radius 1 77 double
0.0025 0.0015 0.0025 0.0015 0.0015 0.0015 0.0025 0.0015 0.0015 
0.0025 0.0015 0.0025 0.0015 0.0015 0.0015 0.0015 0.0015 0.0015 
0.0015 0.0025 0.0015 0.0015 0.0025 0.0025 0.0015 0.0025 0.0025 
0.0015 0.0025 0.0025 0.0015 0.0015 0.0015 0.0025 0.0015 0.0015 
0.0025 0.0015 0.0015 0.0015 0.0015 0.0015 0.0025 0.0015 0.0015 
0.0015 0.0025 0.0025 0.0015 0.0025 0.0025 0.0015 0.0015 0.0025 
0.0025 0.0015 0.0015 0.0025 0.0015 0.0025 0.0015 0.0015 0.0015 
0.0015 0.0015 0.0015 0.0025 0.0025 0.0015 0.0015 0.0015 0.0015 
0.0015 0.0015 0.0025 0.0025 0.0015 
omega 3 77 double
0 0 0 0 0 0 0 0 0 
0 0 0 0 0 0 0 0 0 
0 0 0 0 0 0 0 0 0 
0 0 0 0 0 0 0 0 0 
0 0 0 0 0 0 0 0 0 
0 0 0 0 0 0 0 0 0 
0 0 0 0 0 0 0 0 0 
0 0 0 0 0 0 0 0 0 
0 0 0 0 0 0 0 0 0 
0 0 0 0 0 0 0 0 0 
0 0 0 0 0 0 0 0 0 
0 0 0 0 0 0 0 0 0 
0 0 0 0 0 0 0 0 0 
0 0 0 0 0 0 0 0 0 
0 0 0 0 0 0 0 0 0 
0 0 0 0 0 0 0 0 0 
0 0 0 0 0 0 0 0 0 
0 0 0 0 0 0 0 0 0 
0 0 0 0 0 0 0 0 0 
0 0 0 0 0 0 0 0 0 
0 0 0 0 0 0 0 0 0 
0 0 0 0 0 0 0 0 0 
0 0 0 0 0 0 0 0 0 
0 0 0 0 0 0 0 0 0 
0 0 0 0 0 0 0 0 0 
0 0 0 0 0 0 
