# vtk DataFile Version 4.0
Generated by LIGGGHTS
ASCII
DATASET POLYDATA
POINTS 846 float
-0.0336253 -0.0235121 0.0575176 -0.00300883 0.0202202 0.0582576 -0.0346971 -0.00306427 0.0581235 
-0.466331 -0.00759496 -0.397581 -0.474064 0.00323998 -0.399962 -0.48302 0.00525018 -0.400085 
-0.465092 -0.00951219 -0.391921 -0.463965 -0.00683864 -0.388146 -0.459707 0.00985846 -0.388964 
-0.459075 0.0150838 -0.389028 -0.4429 -0.0120367 -0.385013 -0.475955 -0.0323643 -0.382495 
-0.449345 -0.0278787 -0.382288 -0.465275 -0.0160932 -0.380841 -0.473203 -0.0103048 -0.379418 
-0.469809 -0.000206266 -0.380433 -0.47401 0.00433398 -0.379914 -0.464765 -0.0336545 -0.375256 
-0.476278 -0.00474321 -0.374304 -0.447214 0.00613017 -0.368468 -0.479098 -0.0308834 -0.36694 
-0.474479 -0.0185629 -0.364344 -0.442826 0.00490238 -0.361269 -0.44611 0.0151436 -0.362257 
-0.430948 -0.0114521 -0.358675 -0.442167 -0.00990078 -0.359061 -0.460181 0.00894966 -0.359057 
-0.456969 0.00833191 -0.358394 -0.429194 -0.00757137 -0.355578 -0.438514 0.0023944 -0.354473 
-0.404492 -0.0115764 -0.352856 -0.434951 0.0122318 -0.351448 -0.436612 -0.00484708 -0.34749 
-0.44265 0.00375881 -0.347441 -0.438567 -0.0256064 -0.345186 -0.429303 -0.0277753 -0.346511 
-0.450146 -0.00433977 -0.346694 -0.445859 -0.00448334 -0.346821 -0.456226 0.00988505 -0.347024 
-0.430457 0.00954822 -0.344481 -0.437894 0.0143484 -0.345034 -0.493468 0.0184047 -0.346578 
-0.439901 0.00995942 -0.342107 -0.428503 0.00975269 -0.340444 -0.441582 -0.0256676 -0.337388 
-0.433724 -0.00475269 -0.338027 -0.426121 -0.00485748 -0.336283 -0.419626 -0.00460759 -0.33073 
-0.421302 -0.000406166 -0.332608 -0.430896 0.0252938 -0.331177 -0.453785 -0.00476052 -0.32872 
-0.428489 -0.00564254 -0.323754 -0.410938 -0.00526932 -0.322097 -0.405879 -0.000889174 -0.32409 
-0.404405 0.0030316 -0.322819 -0.419884 0.008548 -0.325585 -0.409691 0.00998335 -0.324651 
-0.421015 0.012822 -0.325298 -0.429106 0.0195444 -0.323749 -0.400837 -0.0110781 -0.320634 
-0.406529 -0.00342507 -0.319656 -0.405231 0.00115579 -0.315753 -0.405863 0.00683742 -0.317701 
-0.406733 0.0102647 -0.316875 -0.43266 0.0350631 -0.316779 -0.410061 -0.0131273 -0.31461 
-0.400828 0.0101635 -0.313841 -0.390384 0.00902449 -0.312961 -0.404429 -0.0148228 -0.308103 
-0.42444 -0.00416389 -0.310751 -0.404653 0.00616683 -0.311252 -0.415715 0.014164 -0.311278 
-0.408715 0.00433382 -0.307401 -0.403864 0.0138398 -0.307004 -0.406918 0.012184 -0.302582 
-0.395643 -0.00816505 -0.298462 -0.39951 0.00736979 -0.300443 -0.401391 0.0118607 -0.299684 
-0.397411 -0.0147232 -0.294366 -0.384481 0.00166472 -0.296616 -0.394198 0.0165959 -0.297783 
-0.398701 -0.0209662 -0.292364 -0.392593 -0.0109415 -0.290713 -0.389506 -0.00345593 -0.293485 
-0.388631 -0.000286816 -0.290826 -0.397956 0.00975329 -0.291835 -0.385964 0.00791989 -0.291817 
-0.388417 0.0168573 -0.292822 -0.390564 0.0213175 -0.29057 -0.385719 -0.0146723 -0.28682 
-0.384501 -0.00467937 -0.286921 -0.404188 -0.00326644 -0.287768 -0.392073 0.00300658 -0.287393 
-0.393136 -0.0177909 -0.2864 -0.377709 -0.00948237 -0.28409 -0.380003 -0.00141465 -0.285533 
-0.386074 -0.0262745 -0.282261 -0.382533 -0.0156247 -0.277868 -0.386943 -0.0116498 -0.279106 
-0.374537 -0.00388955 -0.276407 -0.374673 0.00103276 -0.277966 -0.376172 0.00680539 -0.277447 
-0.376673 0.0175724 -0.275733 -0.378467 -0.0180975 -0.273538 -0.372045 0.00179281 -0.274573 
-0.372127 0.00948273 -0.27328 -0.377516 -0.0223629 -0.270288 -0.364887 -0.0180897 -0.268545 
-0.367962 -0.00810149 -0.270168 -0.370817 -0.00424495 -0.272089 -0.364378 0.00329917 -0.270822 
-0.364796 0.0120198 -0.269421 -0.367958 0.0234717 -0.269073 -0.397297 -0.0485851 -0.269398 
-0.366807 -0.0112211 -0.267813 -0.364008 -0.00596266 -0.268358 -0.366014 0.00629097 -0.268064 
-0.361334 0.00943425 -0.267633 -0.357044 0.0104183 -0.267742 -0.364303 0.0167099 -0.267341 
-0.355201 -0.00390788 -0.262832 -0.356735 0.000714986 -0.262208 -0.356418 0.0122064 -0.262868 
-0.359982 0.0161226 -0.262376 -0.363642 0.0217367 -0.263862 -0.35301 -0.00468264 -0.258771 
-0.349995 -0.00242241 -0.259764 -0.352984 0.00603329 -0.261214 -0.357503 0.0212808 -0.258635 
-0.355862 -0.0217576 -0.257424 -0.347051 -0.00716978 -0.255133 -0.344587 -0.000860344 -0.254156 
-0.348361 8.39275e-05 -0.255127 -0.346429 0.00545084 -0.254309 -0.353558 0.0269218 -0.255855 
-0.345325 -0.0107639 -0.253793 -0.34021 -0.0132182 -0.250655 -0.342669 -0.00843581 -0.251158 
-0.368781 -0.00030002 -0.251158 -0.342398 0.00128323 -0.251536 -0.34553 0.0223489 -0.251923 
-0.355085 0.0303947 -0.253913 -0.349536 0.0282315 -0.251055 -0.344356 -0.0225974 -0.250064 
-0.335764 -0.00775039 -0.248531 -0.335037 -0.00409731 -0.247018 -0.338292 -0.00207645 -0.250254 
-0.334177 0.00262438 -0.249872 -0.332523 0.00469502 -0.247577 -0.335155 0.00785142 -0.247573 
-0.338132 0.0140021 -0.249793 -0.337962 0.0169029 -0.247673 -0.344122 0.0184993 -0.250428 
-0.341757 0.0232928 -0.247896 -0.334741 -0.0203148 -0.245639 -0.330869 -0.0203498 -0.243471 
-0.329004 -0.0150832 -0.243615 -0.337367 -0.0139315 -0.246872 -0.333323 -0.0134681 -0.246039 
-0.326569 -0.0109514 -0.243187 -0.332924 -0.00825716 -0.246713 -0.330094 -0.00711183 -0.245165 
-0.327815 -0.00547496 -0.244022 -0.330446 -0.00236587 -0.244772 -0.325666 -0.000600039 -0.243377 
-0.329965 0.00264187 -0.24434 -0.328729 0.00958305 -0.244365 -0.330901 0.0112461 -0.245729 
-0.332174 0.0152323 -0.245908 -0.336805 0.020328 -0.244312 -0.338993 -0.0347985 -0.242182 
-0.326224 -0.0180952 -0.241839 -0.325141 -0.0048616 -0.241005 -0.322967 -0.00169235 -0.242214 
-0.320381 -0.000944304 -0.240697 -0.324987 0.00253483 -0.243088 -0.327975 0.00561733 -0.240605 
-0.323158 0.0057683 -0.242055 -0.332665 0.0102217 -0.239652 -0.319874 0.00823481 -0.240502 
-0.331708 0.0134087 -0.24222 -0.326558 0.0136441 -0.241686 -0.324882 -0.0214813 -0.239515 
-0.316502 -0.0106669 -0.238887 -0.313683 -0.00938909 -0.237944 -0.311022 -0.00894589 -0.236618 
-0.315378 -0.00580593 -0.237815 -0.32135 0.00166918 -0.239055 -0.315313 0.00232655 -0.238955 
-0.313047 0.00787629 -0.236566 -0.313864 0.0124846 -0.237705 -0.324524 0.0179876 -0.238859 
-0.315306 -0.0305356 -0.234216 -0.306813 -0.015725 -0.23422 -0.312932 -0.012725 -0.235936 
-0.303532 -0.0111458 -0.23348 -0.303443 -0.0079132 -0.233797 -0.309685 0.0102478 -0.236038 
-0.307141 0.00836945 -0.235131 -0.308188 0.0131862 -0.233303 -0.311238 0.0171138 -0.234693 
-0.319097 0.0366458 -0.233696 -0.311742 -0.0388222 -0.229818 -0.308959 -0.0225596 -0.232779 
-0.300016 -0.0120406 -0.230815 -0.295258 -0.00883492 -0.230254 -0.29325 -0.00488217 -0.229619 
-0.301019 -0.00319662 -0.231871 -0.295435 0.00920564 -0.23014 -0.301889 0.01173 -0.232702 
-0.293371 0.011394 -0.229128 -0.30045 0.017493 -0.231177 -0.296686 0.0175496 -0.229637 
-0.298112 0.0206169 -0.229634 -0.306978 0.0277962 -0.231812 -0.320133 0.0423164 -0.231525 
-0.297702 -0.0286136 -0.227642 -0.291825 -0.0185045 -0.226473 -0.297427 -0.0172471 -0.229049 
-0.291802 -0.00869125 -0.228815 -0.288892 -0.00842874 -0.227619 -0.284835 -0.00998093 -0.225745 
-0.287089 0.00587124 -0.22683 -0.289297 0.0110454 -0.22743 -0.289092 0.0142 -0.227127 
-0.286197 0.0122947 -0.225964 -0.292921 0.0153766 -0.227393 -0.28744 0.016561 -0.226002 
-0.317951 -0.0543208 -0.223675 -0.286973 -0.0182503 -0.225594 -0.279972 -0.0175849 -0.222796 
-0.27786 -0.0132034 -0.222462 -0.281485 -0.00911985 -0.223161 -0.284115 -0.00509809 -0.224658 
-0.279491 -0.000414264 -0.223964 -0.285386 0.00249981 -0.225244 -0.280414 0.00267038 -0.224222 
-0.281207 0.00636329 -0.224319 -0.279769 0.0119391 -0.223406 -0.281484 0.0150107 -0.223743 
-0.289315 0.0251234 -0.225171 -0.305591 0.0408807 -0.225364 -0.308021 0.0455194 -0.22516 
-0.277562 -0.0225847 -0.219754 -0.274019 -0.0190956 -0.218939 -0.271612 -0.0147199 -0.219671 
-0.274284 -0.0107623 -0.22014 -0.269571 -0.00906579 -0.219441 -0.273408 -0.00517067 -0.221215 
-0.271628 -0.00679785 -0.219369 -0.269266 -0.00363798 -0.219551 -0.26696 -0.000423731 -0.218693 
-0.27372 0.00446009 -0.221331 -0.276316 0.0112151 -0.222021 -0.271062 0.0125036 -0.219743 
-0.274994 0.0167231 -0.220664 -0.288961 0.0382471 -0.221088 -0.266489 -0.0044786 -0.21834 
-0.259765 -0.0057642 -0.215457 -0.261553 -0.00176168 -0.216371 -0.266247 0.00623339 -0.218075 
-0.268438 0.0189295 -0.216526 -0.300846 -0.061161 -0.212364 -0.274446 -0.0371942 -0.214262 
-0.270043 -0.0363878 -0.213871 -0.258789 -0.0107979 -0.213648 -0.254252 -0.0115613 -0.212741 
-0.253444 -0.00519421 -0.212814 -0.256842 -0.00211027 -0.213292 -0.253036 -0.00160799 -0.211984 
-0.258554 0.00390162 -0.214931 -0.255731 0.00542172 -0.21368 -0.251956 0.00688172 -0.21203 
-0.254718 0.00871579 -0.213107 -0.258437 0.0132078 -0.214306 -0.328387 -0.0680822 -0.21153 
-0.264503 -0.0446192 -0.208631 -0.265593 -0.0373942 -0.2118 -0.251108 -0.0263332 -0.209 
-0.250065 -0.0141684 -0.210597 -0.246968 -0.0135572 -0.20936 -0.243797 -0.0122337 -0.208291 
-0.247902 -0.00837 -0.21032 -0.250652 -0.00672215 -0.211567 -0.243332 -0.00592041 -0.208515 
-0.248799 -0.00280302 -0.209886 -0.264743 0.00210677 -0.208987 -0.248147 0.00121291 -0.210644 
-0.282347 0.0565446 -0.208778 -0.270383 -0.0495016 -0.20739 -0.259092 -0.0418986 -0.206228 
-0.246186 -0.0351454 -0.204534 -0.243457 -0.0198646 -0.207015 -0.244297 -0.0169321 -0.207726 
-0.242075 -0.0147433 -0.204976 -0.251756 0.0383894 -0.204803 -0.252816 0.0423938 -0.204783 
-0.248709 -0.0451356 -0.20192 -0.231573 -0.0115553 -0.201974 -0.235341 -0.00770466 -0.203837 
-0.230612 -0.00655747 -0.201963 -0.227592 0.00717459 -0.201785 -0.232064 0.0153886 -0.201773 
-0.238531 0.0199792 -0.203879 -0.236573 0.0276917 -0.202621 -0.246594 0.0354851 -0.203651 
-0.225906 -0.02007 -0.199744 -0.229542 -0.0168894 -0.200652 -0.225481 -0.0134355 -0.200314 
-0.220491 -0.00988909 -0.198509 -0.221618 -0.00478903 -0.19944 -0.224263 0.000699456 -0.200519 
-0.219608 0.00159565 -0.198558 -0.220653 0.0057975 -0.197828 -0.223656 0.0171129 -0.198056 
-0.233607 0.0250056 -0.200966 -0.235422 0.0307953 -0.200827 -0.244515 0.0457607 -0.200091 
[...]
POINT_DATA 846
FIELD FieldData 7
id 1 846 int
1073 1068 1064 152 296 284 297 172 149 
224 298 438 155 233 377 295 306 293 
399 256 429 236 321 253 288 197 217 
222 261 329 299 368 327 128 337 276 
366 308 386 206 348 259 255 264 332 
220 242 287 230 367 446 422 9 322 
275 363 249 226 282 316 263 245 447 
395 470 218 262 314 267 353 354 310 
273 192 260 281 232 390 304 214 269 
283 492 339 194 320 90 343 410 303 
292 450 347 423 381 266 239 344 335 
227 405 333 388 371 331 248 439 372 
274 243 430 300 311 530 271 330 246 
240 286 407 382 349 323 257 231 235 
315 409 384 490 433 318 285 362 279 
203 313 258 247 387 302 444 268 341 
237 411 238 427 441 336 370 378 397 
309 456 355 466 374 350 396 216 389 
358 414 338 476 401 340 291 425 486 
417 462 403 416 408 365 351 326 421 
424 398 440 455 428 325 400 328 473 
474 394 373 471 511 346 301 479 356 
448 361 359 509 522 488 360 483 345 
334 453 404 454 521 497 478 406 434 
508 437 375 484 319 504 420 459 493 
554 385 559 624 519 468 458 451 452 
496 489 415 558 442 376 536 475 364 
463 413 393 499 431 357 445 380 481 
469 531 494 600 546 392 541 391 503 
477 598 487 482 500 312 435 412 498 
556 547 523 507 608 538 491 465 383 
342 460 379 419 542 505 501 579 369 
555 552 461 548 640 485 464 524 582 
495 502 449 512 573 537 515 676 426 
662 527 651 467 402 516 529 602 550 
631 659 457 562 571 588 564 634 532 
517 581 597 525 576 534 545 605 563 
612 595 590 572 520 526 574 510 561 
656 666 540 609 616 566 589 535 528 
682 621 514 544 577 601 570 650 630 
658 578 533 593 557 677 669 551 668 
539 614 586 626 663 506 672 633 443 
636 585 603 648 599 652 436 683 594 
611 543 653 615 610 617 638 661 623 
480 702 664 580 618 629 691 549 620 
604 518 718 678 619 675 681 716 655 
639 671 628 684 569 643 637 708 584 
607 715 694 717 649 700 565 725 632 
687 606 592 685 673 583 695 786 657 
764 791 697 734 705 692 635 567 739 
647 698 654 568 665 699 689 641 553 
721 646 752 627 703 667 645 596 591 
575 613 625 674 727 748 749 670 642 
560 644 728 794 704 686 690 622 587 
740 755 513 770 780 710 688 741 731 
713 754 737 720 432 788 711 760 759 
747 709 742 765 722 696 733 756 766 
751 793 784 778 680 706 745 761 730 
723 757 735 772 767 825 779 781 693 
768 774 701 763 729 743 758 807 744 
812 712 736 719 783 660 792 750 707 
811 801 746 785 773 804 726 771 753 
776 835 789 798 738 800 822 840 819 
769 799 714 802 818 867 790 827 777 
806 732 814 805 837 830 795 472 782 
787 853 775 803 762 831 847 808 851 
797 796 833 856 858 892 836 862 810 
820 679 823 850 848 873 824 869 842 
832 859 852 880 866 815 865 864 817 
841 877 905 891 826 879 838 863 919 
821 907 845 829 899 895 913 900 849 
843 921 809 861 918 894 874 903 886 
876 896 901 846 887 915 904 882 855 
911 844 916 928 914 870 884 816 932 
910 875 885 834 813 893 839 854 828 
881 902 872 924 871 912 868 898 922 
890 929 926 927 889 883 878 906 930 
909 933 917 908 920 897 724 888 931 
860 934 857 923 925 941 935 940 943 
947 945 939 937 936 944 942 938 948 
957 955 946 954 959 953 950 956 952 
960 951 958 949 965 962 964 966 967 
970 963 973 961 969 971 968 972 978 
984 986 975 983 976 977 982 974 985 
980 981 979 990 988 998 989 996 995 
992 994 993 999 987 997 991 1009 1010 
1011 1004 1007 1002 1000 1003 1005 1008 1012 
1006 1017 1021 1023 1001 1020 1014 1019 1013 
1018 1022 1016 1024 1015 1035 1036 1033 1037 
1029 1031 1034 1032 1027 1025 1030 1028 1046 
1026 1049 1041 1042 1047 1050 1045 1048 1043 
1038 1044 1040 1039 1059 1053 1063 1052 1057 
1060 1054 1061 1062 1051 1056 1058 1055 1076 
1072 1075 1069 1065 1074 1067 1071 1070 1066 

type 1 846 int
1 1 1 1 1 1 1 1 1 
1 1 1 1 1 1 1 1 1 
1 1 1 1 1 1 1 1 1 
1 1 1 1 1 1 1 1 1 
1 1 1 1 1 1 1 1 1 
1 1 1 1 1 1 1 1 1 
1 1 1 1 1 1 1 1 1 
1 1 1 1 1 1 1 1 1 
1 1 1 1 1 1 1 1 1 
1 1 1 1 1 1 1 1 1 
1 1 1 1 1 1 1 1 1 
1 1 1 1 1 1 1 1 1 
1 1 1 1 1 1 1 1 1 
1 1 1 1 1 1 1 1 1 
1 1 1 1 1 1 1 1 1 
1 1 1 1 1 1 1 1 1 
1 1 1 1 1 1 1 1 1 
1 1 1 1 1 1 1 1 1 
1 1 1 1 1 1 1 1 1 
1 1 1 1 1 1 1 1 1 
1 1 1 1 1 1 1 1 1 
1 1 1 1 1 1 1 1 1 
1 1 1 1 1 1 1 1 1 
1 1 1 1 1 1 1 1 1 
1 1 1 1 1 1 1 1 1 
1 1 1 1 1 1 1 1 1 
1 1 1 1 1 1 1 1 1 
1 1 1 1 1 1 1 1 1 
1 1 1 1 1 1 1 1 1 
1 1 1 1 1 1 1 1 1 
1 1 1 1 1 1 1 1 1 
1 1 1 1 1 1 1 1 1 
1 1 1 1 1 1 1 1 1 
1 1 1 1 1 1 1 1 1 
1 1 1 1 1 1 1 1 1 
1 1 1 1 1 1 1 1 1 
1 1 1 1 1 1 1 1 1 
1 1 1 1 1 1 1 1 1 
1 1 1 1 1 1 1 1 1 
1 1 1 1 1 1 1 1 1 
1 1 1 1 1 1 1 1 1 
1 1 1 1 1 1 1 1 1 
1 1 1 1 1 1 1 1 1 
1 1 1 1 1 1 1 1 1 
1 1 1 1 1 1 1 1 1 
1 1 1 1 1 1 1 1 1 
1 1 1 1 1 1 1 1 1 
1 1 1 1 1 1 1 1 1 
1 1 1 1 1 1 1 1 1 
1 1 1 1 1 1 1 1 1 
1 1 1 1 1 1 1 1 1 
1 1 1 1 1 1 1 1 1 
1 1 1 1 1 1 1 1 1 
1 1 1 1 1 1 1 1 1 
1 1 1 1 1 1 1 1 1 
1 1 1 1 1 1 1 1 1 
1 1 1 1 1 1 1 1 1 
1 1 1 1 1 1 1 1 1 
1 1 1 1 1 1 1 1 1 
1 1 1 1 1 1 1 1 1 
1 1 1 1 1 1 1 1 1 
1 1 1 1 1 1 1 1 1 
1 1 1 1 1 1 1 1 1 
1 1 1 1 1 1 1 1 1 
1 1 1 1 1 1 1 1 1 
1 1 1 1 1 1 1 1 1 
1 1 1 1 1 1 1 1 1 
1 1 1 1 1 1 1 1 1 
1 1 1 1 1 1 1 1 1 
1 1 1 1 1 1 1 1 1 
1 1 1 1 1 1 1 1 1 
1 1 1 1 1 1 1 1 1 
1 1 1 1 1 1 1 1 1 
1 1 1 1 1 1 1 1 1 
1 1 1 1 1 1 1 1 1 
1 1 1 1 1 1 1 1 1 
1 1 1 1 1 1 1 1 1 
1 1 1 1 1 1 1 1 1 
1 1 1 1 1 1 1 1 1 
1 1 1 1 1 1 1 1 1 
1 1 1 1 1 1 1 1 1 
1 1 1 1 1 1 1 1 1 
1 1 1 1 1 1 1 1 1 
1 1 1 1 1 1 1 1 1 
1 1 1 1 1 1 1 1 1 
1 1 1 1 1 1 1 1 1 
1 1 1 1 1 1 1 1 1 
1 1 1 1 1 1 1 1 1 
1 1 1 1 1 1 1 1 1 
1 1 1 1 1 1 1 1 1 
1 1 1 1 1 1 1 1 1 
1 1 1 1 1 1 1 1 1 
1 1 1 1 1 1 1 1 1 
1 1 1 1 1 1 1 1 1 

i 3 846 int
0 0 0 0 0 0 0 0 0 
0 0 0 0 0 0 0 0 0 
0 0 0 0 0 0 0 0 0 
0 0 0 0 0 0 0 0 0 
0 0 0 0 0 0 0 0 0 
0 0 0 0 0 0 0 0 0 
0 0 0 0 0 0 0 0 0 
0 0 0 0 0 0 0 0 0 
0 0 0 0 0 0 0 0 0 
0 0 0 0 0 0 0 0 0 
0 0 0 0 0 0 0 0 0 
0 0 0 0 0 0 0 0 0 
0 0 0 0 0 0 0 0 0 
0 0 0 0 0 0 0 0 0 
0 0 0 0 0 0 0 0 0 
0 0 0 0 0 0 0 0 0 
0 0 0 0 0 0 0 0 0 
0 0 0 0 0 0 0 0 0 
0 0 0 0 0 0 0 0 0 
0 0 0 0 0 0 0 0 0 
0 0 0 0 0 0 0 0 0 
0 0 0 0 0 0 0 0 0 
0 0 0 0 0 0 0 0 0 
0 0 0 0 0 0 0 0 0 
0 0 0 0 0 0 0 0 0 
0 0 0 0 0 0 0 0 0 
0 0 0 0 0 0 0 0 0 
0 0 0 0 0 0 0 0 0 
0 0 0 0 0 0 0 0 0 
0 0 0 0 0 0 0 0 0 
0 0 0 0 0 0 0 0 0 
0 0 0 0 0 0 0 0 0 
0 0 0 0 0 0 0 0 0 
0 0 0 0 0 0 0 0 0 
0 0 0 0 0 0 0 0 0 
0 0 0 0 0 0 0 0 0 
0 0 0 0 0 0 0 0 0 
0 0 0 0 0 0 0 0 0 
0 0 0 0 0 0 0 0 0 
0 0 0 0 0 0 0 0 0 
0 0 0 0 0 0 0 0 0 
0 0 0 0 0 0 0 0 0 
0 0 0 0 0 0 0 0 0 
0 0 0 0 0 0 0 0 0 
0 0 0 0 0 0 0 0 0 
0 0 0 0 0 0 0 0 0 
0 0 0 0 0 0 0 0 0 
0 0 0 0 0 0 0 0 0 
0 0 0 0 0 0 0 0 0 
0 0 0 0 0 0 0 0 0 
0 0 0 0 0 0 0 0 0 
0 0 0 0 0 0 0 0 0 
0 0 0 0 0 0 0 0 0 
0 0 0 0 0 0 0 0 0 
0 0 0 0 0 0 0 0 0 
0 0 0 0 0 0 0 0 0 
0 0 0 0 0 0 0 0 0 
0 0 0 0 0 0 0 0 0 
0 0 0 0 0 0 0 0 0 
0 0 0 0 0 0 0 0 0 
0 0 0 0 0 0 0 0 0 
0 0 0 0 0 0 0 0 0 
0 0 0 0 0 0 0 0 0 
0 0 0 0 0 0 0 0 0 
0 0 0 0 0 0 0 0 0 
0 0 0 0 0 0 0 0 0 
0 0 0 0 0 0 0 0 0 
0 0 0 0 0 0 0 0 0 
0 0 0 0 0 0 0 0 0 
0 0 0 0 0 0 0 0 0 
0 0 0 0 0 0 0 0 0 
0 0 0 0 0 0 0 0 0 
0 0 0 0 0 0 0 0 0 
0 0 0 0 0 0 0 0 0 
0 0 0 0 0 0 0 0 0 
0 0 0 0 0 0 0 0 0 
0 0 0 0 0 0 0 0 0 
0 0 0 0 0 0 0 0 0 
0 0 0 0 0 0 0 0 0 
0 0 0 0 0 0 0 0 0 
0 0 0 0 0 0 0 0 0 
0 0 0 0 0 0 0 0 0 
0 0 0 0 0 0 0 0 0 
0 0 0 0 0 0 0 0 0 
0 0 0 0 0 0 0 0 0 
0 0 0 0 0 0 0 0 0 
0 0 0 0 0 0 0 0 0 
0 0 0 0 0 0 0 0 0 
0 0 0 0 0 0 0 0 0 
0 0 0 0 0 0 0 0 0 
0 0 0 0 0 0 0 0 0 
0 0 0 0 0 0 0 0 0 
0 0 0 0 0 0 0 0 0 
0 0 0 0 0 0 0 0 0 
0 0 0 0 0 0 0 0 0 
0 0 0 0 0 0 0 0 0 
0 0 0 0 0 0 0 0 0 
0 0 0 0 0 0 0 0 0 
0 0 0 0 0 0 0 0 0 
0 0 0 0 0 0 0 0 0 
0 0 0 0 0 0 0 0 0 
0 0 0 0 0 0 0 0 0 
0 0 0 0 0 0 0 0 0 
0 0 0 0 0 0 0 0 0 
0 0 0 0 0 0 0 0 0 
0 0 0 0 0 0 0 0 0 
0 0 0 0 0 0 0 0 0 
0 0 0 0 0 0 0 0 0 
0 0 0 0 0 0 0 0 0 
0 0 0 0 0 0 0 0 0 
0 0 0 0 0 0 0 0 0 
0 0 0 0 0 0 0 0 0 
0 0 0 0 0 0 0 0 0 
0 0 0 0 0 0 0 0 0 
0 0 0 0 0 0 0 0 0 
0 0 0 0 0 0 0 0 0 
0 0 0 0 0 0 0 0 0 
0 0 0 0 0 0 0 0 0 
0 0 0 0 0 0 0 0 0 
0 0 0 0 0 0 0 0 0 
0 0 0 0 0 0 0 0 0 
0 0 0 0 0 0 0 0 0 
0 0 0 0 0 0 0 0 0 
0 0 0 0 0 0 0 0 0 
0 0 0 0 0 0 0 0 0 
0 0 0 0 0 0 0 0 0 
0 0 0 0 0 0 0 0 0 
0 0 0 0 0 0 0 0 0 
0 0 0 0 0 0 0 0 0 
0 0 0 0 0 0 0 0 0 
0 0 0 0 0 0 0 0 0 
0 0 0 0 0 0 0 0 0 
0 0 0 0 0 0 0 0 0 
0 0 0 0 0 0 0 0 0 
0 0 0 0 0 0 0 0 0 
0 0 0 0 0 0 0 0 0 
0 0 0 0 0 0 0 0 0 
0 0 0 0 0 0 0 0 0 
0 0 0 0 0 0 0 0 0 
0 0 0 0 0 0 0 0 0 
0 0 0 0 0 0 0 0 0 
0 0 0 0 0 0 0 0 0 
0 0 0 0 0 0 0 0 0 
0 0 0 0 0 0 0 0 0 
0 0 0 0 0 0 0 0 0 
0 0 0 0 0 0 0 0 0 
0 0 0 0 0 0 0 0 0 
0 0 0 0 0 0 0 0 0 
0 0 0 0 0 0 0 0 0 
0 0 0 0 0 0 0 0 0 
0 0 0 0 0 0 0 0 0 
0 0 0 0 0 0 0 0 0 
0 0 0 0 0 0 0 0 0 
0 0 0 0 0 0 0 0 0 
0 0 0 0 0 0 0 0 0 
0 0 0 0 0 0 0 0 0 
0 0 0 0 0 0 0 0 0 
0 0 0 0 0 0 0 0 0 
0 0 0 0 0 0 0 0 0 
0 0 0 0 0 0 0 0 0 
0 0 0 0 0 0 0 0 0 
0 0 0 0 0 0 0 0 0 
0 0 0 0 0 0 0 0 0 
0 0 0 0 0 0 0 0 0 
0 0 0 0 0 0 0 0 0 
0 0 0 0 0 0 0 0 0 
0 0 0 0 0 0 0 0 0 
0 0 0 0 0 0 0 0 0 
0 0 0 0 0 0 0 0 0 
0 0 0 0 0 0 0 0 0 
0 0 0 0 0 0 0 0 0 
0 0 0 0 0 0 0 0 0 
0 0 0 0 0 0 0 0 0 
0 0 0 0 0 0 0 0 0 
0 0 0 0 0 0 0 0 0 
0 0 0 0 0 0 0 0 0 
0 0 0 0 0 0 0 0 0 
0 0 0 0 0 0 0 0 0 
0 0 0 0 0 0 0 0 0 
0 0 0 0 0 0 0 0 0 
0 0 0 0 0 0 0 0 0 
0 0 0 0 0 0 0 0 0 
0 0 0 0 0 0 0 0 0 
0 0 0 0 0 0 0 0 0 
0 0 0 0 0 0 0 0 0 
0 0 0 0 0 0 0 0 0 
0 0 0 0 0 0 0 0 0 
0 0 0 0 0 0 0 0 0 
0 0 0 0 0 0 0 0 0 
0 0 0 0 0 0 0 0 0 
0 0 0 0 0 0 0 0 0 
0 0 0 0 0 0 0 0 0 
0 0 0 0 0 0 0 0 0 
0 0 0 0 0 0 0 0 0 
0 0 0 0 0 0 0 0 0 
0 0 0 0 0 0 0 0 0 
0 0 0 0 0 0 0 0 0 
0 0 0 0 0 0 0 0 0 
0 0 0 0 0 0 0 0 0 
0 0 0 0 0 0 0 0 0 
0 0 0 0 0 0 0 0 0 
0 0 0 0 0 0 0 0 0 
0 0 0 0 0 0 0 0 0 
0 0 0 0 0 0 0 0 0 
0 0 0 0 0 0 0 0 0 
0 0 0 0 0 0 0 0 0 
0 0 0 0 0 0 0 0 0 
0 0 0 0 0 0 0 0 0 
0 0 0 0 0 0 0 0 0 
0 0 0 0 0 0 0 0 0 
0 0 0 0 0 0 0 0 0 
0 0 0 0 0 0 0 0 0 
0 0 0 0 0 0 0 0 0 
0 0 0 0 0 0 0 0 0 
0 0 0 0 0 0 0 0 0 
0 0 0 0 0 0 0 0 0 
0 0 0 0 0 0 0 0 0 
0 0 0 0 0 0 0 0 0 
0 0 0 0 0 0 0 0 0 
0 0 0 0 0 0 0 0 0 
0 0 0 0 0 0 0 0 0 
0 0 0 0 0 0 0 0 0 
0 0 0 0 0 0 0 0 0 
0 0 0 0 0 0 0 0 0 
0 0 0 0 0 0 0 0 0 
0 0 0 0 0 0 0 0 0 
0 0 0 0 0 0 0 0 0 
0 0 0 0 0 0 0 0 0 
0 0 0 0 0 0 0 0 0 
0 0 0 0 0 0 0 0 0 
0 0 0 0 0 0 0 0 0 
0 0 0 0 0 0 0 0 0 
0 0 0 0 0 0 0 0 0 
0 0 0 0 0 0 0 0 0 
0 0 0 0 0 0 0 0 0 
0 0 0 0 0 0 0 0 0 
0 0 0 0 0 0 0 0 0 
0 0 0 0 0 0 0 0 0 
0 0 0 0 0 0 0 0 0 
0 0 0 0 0 0 0 0 0 
0 0 0 0 0 0 0 0 0 
0 0 0 0 0 0 0 0 0 
0 0 0 0 0 0 0 0 0 
0 0 0 0 0 0 0 0 0 
0 0 0 0 0 0 0 0 0 
0 0 0 0 0 0 0 0 0 
0 0 0 0 0 0 0 0 0 
0 0 0 0 0 0 0 0 0 
0 0 0 0 0 0 0 0 0 
0 0 0 0 0 0 0 0 0 
0 0 0 0 0 0 0 0 0 
0 0 0 0 0 0 0 0 0 
0 0 0 0 0 0 0 0 0 
0 0 0 0 0 0 0 0 0 
0 0 0 0 0 0 0 0 0 
0 0 0 0 0 0 0 0 0 
0 0 0 0 0 0 0 0 0 
0 0 0 0 0 0 0 0 0 
0 0 0 0 0 0 0 0 0 
0 0 0 0 0 0 0 0 0 
0 0 0 0 0 0 0 0 0 
0 0 0 0 0 0 0 0 0 
0 0 0 0 0 0 0 0 0 
0 0 0 0 0 0 0 0 0 
0 0 0 0 0 0 0 0 0 
0 0 0 0 0 0 0 0 0 
0 0 0 0 0 0 0 0 0 
0 0 0 0 0 0 0 0 0 
0 0 0 0 0 0 0 0 0 
0 0 0 0 0 0 0 0 0 
0 0 0 0 0 0 0 0 0 
0 0 0 0 0 0 0 0 0 
0 0 0 0 0 0 0 0 0 
0 0 0 0 0 0 0 0 0 
0 0 0 0 0 0 0 0 0 
0 0 0 0 0 0 0 0 0 
0 0 0 0 0 0 0 0 0 
0 0 0 0 0 0 0 0 0 
0 0 0 0 0 0 0 0 0 
0 0 0 0 0 0 0 0 0 
0 0 0 0 0 0 0 0 0 
0 0 0 0 0 0 0 0 0 

v 3 846 double
0 0 -1 0 0 -1 0 0 -1 
-1.03103 0.0609834 -1.80908 -1.0872 -0.0555298 -1.82734 -1.1332 0.0567801 -1.81494 
-1.02322 0.0727472 -1.78139 -1.05187 0.0244488 -1.75017 -1.01209 0.11951 -1.75105 
-1.14533 0.104667 -1.8494 -0.994387 -0.12073 -1.80628 -1.14143 -0.00920084 -1.83629 
-0.994956 -0.335813 -1.7588 -1.0923 -0.0309608 -1.71645 -1.21083 0.347387 -1.84241 
-1.1587 0.0201664 -1.72135 -1.23017 -0.258379 -1.77851 -1.10221 -0.101197 -1.68231 
-1.3415 -0.0828055 -1.73154 -1.03657 -0.139649 -1.67785 -1.25983 0.109405 -1.46878 
-1.30069 -0.185949 -1.57114 -1.03247 -0.12736 -1.62336 -1.0488 -0.0906422 -1.62575 
-0.785727 0.154342 -1.54911 -1.01812 0.00493514 -1.577 -1.28294 -0.114185 -1.65764 
-1.16478 0.0521517 -1.55925 -1.00703 -0.0959988 -1.59182 -1.01017 0.0529042 -1.5436 
-0.78174 -0.021316 -1.62357 -0.998662 -0.0751622 -1.54818 -1.11057 0.340265 -1.60966 
-1.06896 -0.112182 -1.50713 -1.04679 -0.0180249 -1.49943 -0.98885 -0.0198163 -1.52742 
-1.21927 0.420919 -1.63327 -1.18722 0.134781 -1.54854 -1.30647 -0.245863 -1.60119 
-0.990853 -0.0186445 -1.49072 -1.05331 -0.00636579 -1.52758 -1.38242 0.129267 -1.54849 
-1.2205 -0.0469145 -1.40618 -1.01164 -0.0375925 -1.46139 -1.13435 0.0913762 -1.48752 
-1.11085 0.0157648 -1.47781 -1.02978 -0.125746 -1.43414 -0.993887 -0.113148 -1.39013 
-1.0067 -0.101924 -1.41082 -1.09572 -0.269044 -1.53774 -1.20233 -0.0715096 -1.4079 
-1.1733 0.0988828 -1.3594 -0.932172 0.0238375 -1.31331 -0.869817 -0.00150807 -1.35256 
-0.872559 0.00369671 -1.32928 -1.02522 -0.00200384 -1.36168 -0.972206 0.017927 -1.39819 
-1.06313 0.00445064 -1.36051 -1.15535 -0.103215 -1.39745 -0.799095 -0.00654769 -1.28841 
-0.947096 -0.00797505 -1.31035 -0.91898 -0.00396899 -1.27035 -0.926394 0.0267947 -1.31792 
-0.954613 -0.0141135 -1.26159 -1.23319 -0.192602 -1.44612 -1.02037 -0.0786758 -1.29309 
-0.999198 0.0139077 -1.31813 -0.866549 0.0242124 -1.33377 -0.991645 -0.0691342 -1.21079 
-1.17455 0.00213935 -1.16906 -1.01691 -0.0350097 -1.2663 -1.1472 -0.0183688 -1.27965 
-1.0023 -0.0519058 -1.17269 -1.05742 0.0242824 -1.2312 -1.10544 0.13779 -1.18045 
-0.981739 0.0246476 -1.1301 -1.04109 -0.0484752 -1.16748 -1.04277 -0.035549 -1.14696 
-1.06991 -0.0119744 -1.10374 -0.856023 -0.0684415 -1.11934 -1.0998 -0.352139 -1.50488 
-1.10271 -0.0537043 -1.10562 -1.06397 0.0468983 -1.07625 -0.990987 -0.0714607 -1.0924 
-0.995767 -0.0747155 -1.07977 -1.04419 -0.0747482 -1.08204 -0.923074 -0.043184 -1.06994 
-0.879647 -0.0479865 -1.08533 -0.941792 -0.330362 -1.08092 -0.994533 -0.0896564 -1.02383 
-0.979641 -0.0426487 -1.02021 -1.29086 0.0387144 -1.32655 -1.02937 -0.0923633 -1.05655 
-1.12514 0.00747823 -1.05986 -0.866472 -0.0593439 -0.976793 -0.932991 -0.0490747 -1.00811 
-1.12293 0.202184 -1.12173 -1.127 0.250494 -1.01391 -1.16734 0.234822 -1.01535 
-0.999864 0.0714529 -0.92322 -0.96226 0.118104 -0.933241 -1.01965 0.002921 -0.957998 
-1.02165 0.0628256 -0.934702 -1.15937 0.122977 -0.949243 -1.02782 -0.0644611 -0.915856 
-0.998172 0.00324232 -0.883213 -1.11506 0.113075 -0.916211 -0.830709 0.00649009 -0.826124 
-0.986794 0.0972019 -0.853315 -0.985926 0.0910313 -0.885003 -0.802616 0.032427 -0.960596 
-0.932285 -0.0356725 -0.845034 -0.960552 0.055869 -0.851206 -1.34411 0.334957 -1.28728 
-0.998069 0.0921414 -0.849372 -0.936143 0.0770964 -0.822485 -1.0468 -0.0181709 -0.842936 
-0.985956 -0.081936 -0.89654 -0.907793 -0.0395894 -0.95851 -0.958901 -0.0291744 -0.833405 
-0.83647 0.00317316 -0.727932 -0.927079 -0.0147077 -0.756328 -1.02025 0.0212255 -0.845578 
-1.0272 0.0478394 -0.814457 -0.992931 0.0238809 -0.810678 -0.874009 -0.0623955 -0.670712 
-0.865025 -0.02127 -0.720016 -0.916555 -0.0428759 -0.755576 -1.03862 0.0475926 -0.750862 
-1.2071 0.118193 -0.848496 -0.929813 0.0235185 -0.640788 -0.917868 -0.00366522 -0.633403 
-0.913514 0.0195782 -0.637998 -0.902815 0.0202269 -0.642143 -0.963324 0.0173019 -0.692713 
-0.900739 0.0568734 -0.615314 -0.947958 -0.0147564 -0.591561 -0.899669 0.0500074 -0.587991 
-1.25276 0.059688 -0.528687 -0.95286 0.00749167 -0.605256 -0.988834 0.0827193 -0.643593 
-1.1763 0.00426347 -0.736801 -1.02361 0.0238263 -0.622325 -1.08256 -0.053308 -0.614672 
-0.783583 -0.013065 -0.511117 -0.826899 -0.00636139 -0.480463 -0.836625 0.0235689 -0.531656 
-0.821007 -0.105127 -0.640846 -0.856095 0.00445023 -0.596254 -0.90938 -0.0126162 -0.578053 
-0.887789 0.0696155 -0.566957 -0.911898 0.0740498 -0.492125 -0.883967 0.0901125 -0.57278 
-1.02207 0.115487 -0.584782 -0.892833 -0.0761644 -0.472137 -1.09764 -0.0207047 -0.504496 
-1.11899 0.0584058 -0.510855 -0.987176 -0.0155495 -0.524814 -0.987437 -0.00607477 -0.492885 
-0.932769 -0.0510391 -0.420316 -0.800579 -0.00733172 -0.455799 -0.899506 0.0358824 -0.459545 
-0.890207 0.0042187 -0.406301 -0.835354 0.0757263 -0.462548 -0.951452 0.0117508 -0.405959 
-0.876686 0.0873804 -0.443553 -0.792941 -0.0149864 -0.372971 -0.770078 -0.0179406 -0.482018 
-0.744 -0.0597139 -0.524897 -1.0337 0.0883194 -0.560753 -1.20832 0.414522 -0.811791 
-1.10297 0.078731 -0.483002 -0.921265 0.0522552 -0.379757 -0.892452 0.0461076 -0.390437 
-0.844275 -0.0356919 -0.390861 -0.932097 0.0597012 -0.527938 -0.963357 0.0649302 -0.525864 
-0.728552 0.0407512 -0.320132 -1.00816 0.103532 -0.396708 -0.726414 0.109537 -0.299389 
-0.870162 -0.0217635 -0.432922 -0.941269 -0.0944497 -0.430909 -1.11649 0.0800817 -0.472313 
-0.986597 0.00655875 -0.480183 -0.676339 0.0858374 -0.33796 -0.959198 0.0847155 -0.339095 
-1.0796 -0.0770102 -0.430688 -1.02869 -0.0310242 -0.31671 -1.03088 -0.0818148 -0.439694 
-0.949331 -0.0829036 -0.40486 -1.15811 -0.0412557 -0.489992 -1.06668 0.0265891 -0.323463 
-1.10038 0.102278 -0.466589 -1.11021 0.21839 -0.481513 -1.15092 -0.0134167 -0.372709 
-1.08545 0.0717838 -0.464483 -1.09154 0.0777106 -0.467695 -0.909415 -0.0987984 -0.408209 
-1.08071 -0.0626445 -0.459174 -1.04298 0.0144807 -0.341586 -1.16231 -0.0649821 -0.4977 
-1.32035 -0.013626 -0.543876 -1.0605 0.0858321 -0.4166 -1.05571 0.15861 -0.52823 
-1.08005 0.0909704 -0.46373 -1.04778 0.0750567 -0.448986 -1.05532 0.0329121 -0.446096 
-1.10111 0.0762454 -0.467713 -0.952563 0.108558 -0.394678 -1.04068 0.0320603 -0.437234 
-0.901529 0.10654 -0.373895 -0.934785 0.0407997 -0.376317 -1.05775 0.0527899 -0.430643 
-1.08718 0.0453964 -0.444216 -0.993427 -0.133429 -0.449362 -1.06728 -0.0906689 -0.460494 
-1.14282 0.142397 -0.550862 -1.05284 0.0858247 -0.45567 -1.07913 0.0803266 -0.465637 
-1.03837 0.0515844 -0.442464 -1.03141 0.0392466 -0.438428 -1.04285 0.079376 -0.447377 
-0.838237 0.0654622 -0.349057 -0.904217 0.095109 -0.375702 -0.978661 0.124224 -0.371947 
-0.976979 0.128681 -0.400273 -0.990327 0.115794 -0.388251 -1.15041 0.139829 -0.433494 
-1.13438 0.29937 -0.559437 -1.03479 0.0835529 -0.446966 -0.994872 0.0475838 -0.424479 
-1.0503 0.185713 -0.46277 -1.00058 -0.0436526 -0.339474 -1.0164 -0.0429398 -0.410286 
-1.02323 -0.00519864 -0.431793 -0.919925 -0.0169657 -0.388794 -0.864907 -0.0264395 -0.366479 
-0.803637 0.0299064 -0.337871 -1.04041 -0.0923058 -0.434644 -1.02948 -0.077022 -0.454211 
-1.23887 -0.204009 -0.543311 -0.872579 -0.0637957 -0.381231 -1.03593 -0.0190844 -0.426286 
-0.998109 0.144823 -0.441659 -1.03512 0.0860594 -0.445777 -0.969739 0.0566328 -0.416283 
-0.950696 0.123168 -0.410599 -0.81201 0.0405484 -0.353874 -0.811866 0.02447 -0.338136 
-0.857403 -0.0181587 -0.298026 -0.94775 0.0785185 -0.404973 -0.97389 0.0101781 -0.408143 
-1.01114 0.0613458 -0.426663 -1.02469 -0.0382992 -0.425243 -0.96561 -0.100668 -0.416944 
-1.18884 -0.0521289 -0.494245 -1.1414 -0.104961 -0.469143 -0.945989 0.0810404 -0.405709 
-0.90583 0.00444583 -0.384181 -0.926435 0.0371286 -0.390199 -1.09351 -0.0565125 -0.460292 
-0.984074 -0.137615 -0.435533 -1.27016 0.238183 -0.696734 -1.04865 0.048247 -0.458239 
-1.02861 0.117914 -0.45506 -0.930037 0.0188944 -0.391581 -0.929509 0.0329841 -0.392665 
-0.944498 0.0454294 -0.402568 -0.940609 0.0773406 -0.40444 -0.921544 0.140536 -0.411404 
-1.10599 0.0607799 -0.467463 -1.03387 0.00688353 -0.43273 -0.9585 -0.0172032 -0.407453 
-0.91137 0.0137134 -0.376873 -0.913886 0.197814 -0.356264 -1.16045 0.20207 -0.523096 
-0.882117 0.0125831 -0.33241 -1.0806 0.18156 -0.551274 -0.895638 -0.0518186 -0.373168 
-0.883905 0.0364896 -0.401723 -0.880655 0.0461612 -0.367269 -0.82614 0.208525 -0.354413 
-0.89208 0.0804184 -0.381782 -0.939918 0.0114146 -0.39905 -1.03349 0.0425334 -0.434823 
-0.975614 -0.0688083 -0.403612 -1.2114 0.160742 -0.538497 -0.921996 -0.0683123 -0.40045 
-0.994977 0.0223875 -0.337438 -0.905741 -0.0715251 -0.300643 -1.09511 0.344135 -0.541785 
-0.933703 -0.0378613 -0.353437 -0.840423 0.0216876 -0.338108 -0.80101 0.0118726 -0.316633 
-0.890203 0.161215 -0.26951 -1.04018 -0.0429227 -0.442609 -1.05581 -0.0444569 -0.430708 
-1.01557 0.0478226 -0.416763 -1.00039 0.0262497 -0.416071 -0.973992 -0.00857645 -0.403532 
-0.96953 0.0261239 -0.404585 -0.711451 0.00251648 -0.303938 -0.922307 0.0272412 -0.39618 
-1.06995 -0.07868 -0.454692 -0.981396 0.0254709 -0.405455 -1.01178 -0.257846 -0.47782 
-1.0475 0.0901359 -0.446314 -1.01721 0.150255 -0.448608 -0.956667 0.150675 -0.424643 
-0.920315 0.0769698 -0.388415 -0.895883 0.171416 -0.387599 -0.841734 -0.00329394 -0.362245 
-0.843087 -0.0404324 -0.352656 -0.838563 -0.0249183 -0.349511 -0.878737 0.0926556 -0.361367 