# vtk DataFile Version 4.0
Generated by LIGGGHTS
ASCII
DATASET POLYDATA
POINTS 845 float
-0.00438347 0.0301146 0.0489278 -0.0336179 0.01738 0.051925 -0.00364888 -0.00268702 0.0508824 
-0.00957809 0.0126173 0.0511122 -0.00200482 -0.00880711 0.0504953 -0.0178648 0.0229536 0.0437772 
-0.0079539 -0.029263 0.0454152 -0.0138453 0.00250075 0.0453011 -0.0201834 -0.00966659 0.0484995 
-0.0190744 0.0294955 0.0445864 -0.0312336 0.0175822 0.0454807 -0.0207609 -0.0191091 0.0451266 
-0.463292 -0.0216655 -0.39652 -0.480896 -0.0172076 -0.398912 -0.473663 -0.0105041 -0.399598 
-0.460913 -0.00800597 -0.39634 -0.472364 -0.00419777 -0.399646 -0.452777 -0.00524247 -0.394007 
-0.445294 -0.0141112 -0.390122 -0.47044 0.00391376 -0.386795 -0.477996 0.0066663 -0.388145 
-0.455882 0.00719448 -0.382169 -0.452672 0.00044989 -0.380524 -0.44891 0.00949833 -0.379882 
-0.456362 0.0224728 -0.378482 -0.468898 -0.00850533 -0.377421 -0.426982 0.00582848 -0.375591 
-0.46449 -0.013543 -0.371594 -0.45207 -0.00200127 -0.373587 -0.447719 0.00285549 -0.370961 
-0.449984 0.00973563 -0.372013 -0.427852 0.00733029 -0.372348 -0.438239 0.00304324 -0.367405 
-0.444657 -0.00403411 -0.363906 -0.444931 -0.00051974 -0.366569 -0.447664 0.00487364 -0.363655 
-0.437515 0.00923734 -0.365176 -0.442881 0.0278295 -0.365309 -0.429683 -0.0175834 -0.362825 
-0.437027 5.08628e-05 -0.362354 -0.439098 0.0144343 -0.362188 -0.435998 0.013862 -0.358665 
-0.440997 0.0242429 -0.357329 -0.450015 -0.0125385 -0.353449 -0.440197 0.0192105 -0.355354 
-0.420446 -0.00366038 -0.349453 -0.429047 -0.000432217 -0.351044 -0.424475 0.00268897 -0.349991 
-0.429987 -0.0239993 -0.349263 -0.417467 -0.00408147 -0.345767 -0.438516 0.0249931 -0.347044 
-0.421182 -0.00954949 -0.340929 -0.446837 0.0307272 -0.341226 -0.428697 0.0282713 -0.339729 
-0.419577 -0.00533534 -0.334957 -0.41618 -0.00114623 -0.333403 -0.419615 0.00161103 -0.334733 
-0.416849 0.00702854 -0.334238 -0.432985 -0.00306105 -0.330718 -0.415583 -0.00632778 -0.33163 
-0.398216 -0.00557553 -0.3297 -0.42266 0.028801 -0.331965 -0.429377 0.03009 -0.329438 
-0.414151 -0.0143692 -0.326639 -0.412843 -0.00453523 -0.326864 -0.416721 0.00186758 -0.328588 
-0.403549 -0.000238072 -0.321565 -0.466496 0.00435564 -0.322237 -0.406087 0.00686736 -0.322503 
-0.399299 0.00504214 -0.323927 -0.40738 0.0194322 -0.323858 -0.413071 0.0255281 -0.324947 
-0.421479 0.0323008 -0.323351 -0.406332 -0.0267804 -0.321441 -0.414607 -0.0152432 -0.317873 
-0.410444 -0.0129783 -0.318206 -0.396884 -0.00876946 -0.31824 -0.396268 -0.00986787 -0.31439 
-0.399535 -0.0045935 -0.314337 -0.390128 0.0106975 -0.316793 -0.40909 0.0226787 -0.3159 
-0.417433 0.0272169 -0.317893 -0.396076 0.00313697 -0.312043 -0.393671 0.00639441 -0.311487 
-0.398601 0.00884065 -0.310689 -0.391046 0.00972391 -0.313068 -0.415071 -0.0110336 -0.308386 
-0.412255 -0.0119542 -0.309355 -0.399357 -0.00327416 -0.30857 -0.387558 0.00357993 -0.309364 
-0.402538 0.0130548 -0.309181 -0.414536 -0.02144 -0.303531 -0.411968 -0.0152349 -0.306198 
-0.399325 -0.0149324 -0.305814 -0.397251 -0.0051459 -0.305556 -0.3857 -0.00578502 -0.304574 
-0.392578 0.00190404 -0.30251 -0.406507 0.00921919 -0.302911 -0.399104 0.00702458 -0.302854 
-0.397134 -0.00114751 -0.30003 -0.397289 0.00364282 -0.300901 -0.382823 0.00659839 -0.299732 
-0.37803 0.0081735 -0.300103 -0.411301 0.0182971 -0.300437 -0.422889 0.0348832 -0.303024 
-0.406431 -0.0309731 -0.297158 -0.386791 -0.0150786 -0.296766 -0.402439 -0.00970747 -0.297193 
-0.3974 -0.00215774 -0.295458 -0.379309 0.00133065 -0.29996 -0.39429 0.00906878 -0.296823 
-0.402481 -0.021707 -0.294739 -0.401784 -0.0176923 -0.29428 -0.401588 -0.000750708 -0.2936 
-0.382125 -0.00108673 -0.292675 -0.387754 0.00230875 -0.291519 -0.403318 0.0136114 -0.29379 
-0.407724 0.0200616 -0.293931 -0.404191 0.034041 -0.294014 -0.395173 -0.00847915 -0.290834 
-0.392224 -0.00449205 -0.289085 -0.382077 0.00965546 -0.287793 -0.389719 0.0143694 -0.289992 
-0.396552 -0.0304879 -0.285263 -0.390417 -0.015452 -0.288016 -0.392026 -0.00804906 -0.284968 
-0.379829 -0.000169165 -0.28425 -0.391639 0.0037649 -0.285361 -0.386311 0.0137274 -0.285242 
-0.388094 0.0160611 -0.285921 -0.385819 -0.00910299 -0.280573 -0.388151 -0.00443429 -0.282526 
-0.381744 -0.00303257 -0.280563 -0.378517 0.0192329 -0.280909 -0.386446 0.0224903 -0.281443 
-0.418286 -0.0509988 -0.278875 -0.403285 -0.0353744 -0.281704 -0.37772 -0.00361811 -0.276419 
-0.379839 -0.000818138 -0.277524 -0.382209 0.00139009 -0.275941 -0.373594 0.0163398 -0.276508 
-0.375085 0.0193847 -0.279662 -0.391009 0.0405864 -0.277477 -0.378651 -0.00971638 -0.275384 
-0.374475 -0.00429597 -0.273726 -0.373526 0.0182228 -0.272316 -0.384478 0.0261016 -0.273678 
-0.381631 0.0276414 -0.273387 -0.376592 0.032468 -0.272826 -0.373014 -0.00947948 -0.271785 
-0.369079 -0.00908841 -0.269429 -0.367953 0.00664792 -0.268968 -0.366076 0.0132237 -0.270769 
-0.367034 0.0205146 -0.272154 -0.367853 0.0236605 -0.27008 -0.378634 0.0274781 -0.27153 
-0.360138 -0.014478 -0.264894 -0.364853 -0.0102704 -0.264735 -0.366998 -0.00577991 -0.267039 
-0.361482 -0.00502807 -0.264223 -0.362899 0.000452986 -0.265913 -0.361242 0.00694663 -0.267909 
-0.362534 0.0110603 -0.264267 -0.365835 0.0214867 -0.266336 -0.357947 -0.0079405 -0.261041 
-0.354238 0.00213683 -0.263409 -0.351863 0.00234428 -0.261588 -0.35838 0.00848021 -0.263793 
-0.352398 0.00711649 -0.261853 -0.366133 0.0123461 -0.261986 -0.361761 -0.0281786 -0.256918 
-0.356564 -0.022249 -0.256789 -0.355458 -0.0171961 -0.256674 -0.358996 -0.0148652 -0.25859 
-0.350939 -0.00709422 -0.256666 -0.351261 -0.00367972 -0.259395 -0.355236 -0.00020738 -0.258345 
-0.350784 -0.00128854 -0.257559 -0.351442 0.00437033 -0.258823 -0.350858 -0.0104835 -0.254385 
-0.341546 -0.00376273 -0.252624 -0.346851 0.00129805 -0.254256 -0.34622 0.00464397 -0.255495 
-0.349648 0.00589713 -0.253038 -0.344615 0.00716609 -0.253916 -0.342955 0.00484646 -0.251078 
-0.351195 0.00961713 -0.255702 -0.338234 -0.0148785 -0.249344 -0.338472 -0.00829487 -0.247784 
-0.338142 -0.00484833 -0.252044 -0.33711 -0.00376121 -0.248827 -0.334746 -0.000972772 -0.24768 
-0.368749 0.00115087 -0.248765 -0.341003 0.0014745 -0.251401 -0.337761 0.00383944 -0.248266 
-0.334221 -0.00704634 -0.247014 -0.331228 -0.00867713 -0.245433 -0.326933 -0.00919218 -0.243464 
-0.331449 -0.00469554 -0.244685 -0.327172 -0.000632308 -0.244053 -0.3339 0.00472733 -0.247017 
-0.332786 0.00807027 -0.24744 -0.333146 0.0116807 -0.245042 -0.363129 0.051174 -0.247984 
-0.338805 -0.0371858 -0.241644 -0.328013 -0.0257693 -0.241117 -0.322744 -0.00841149 -0.241694 
-0.324108 -0.00575282 -0.242429 -0.322031 0.000349569 -0.241912 -0.321874 0.0104099 -0.241015 
-0.328325 0.0103375 -0.242745 -0.330076 0.0174449 -0.243802 -0.330206 0.0266161 -0.242104 
-0.339546 0.0292591 -0.244213 -0.341257 0.0328106 -0.245013 -0.345883 -0.0467356 -0.238646 
-0.333811 -0.0349442 -0.240883 -0.325055 -0.0323634 -0.237587 -0.314595 -0.0160389 -0.237303 
-0.312811 -0.0127975 -0.237041 -0.313694 -0.0087502 -0.236859 -0.316187 -0.00416196 -0.238237 
-0.316669 0.00127968 -0.239593 -0.310923 -0.00103887 -0.236126 -0.318925 0.00820782 -0.238562 
-0.306978 -0.0173923 -0.23406 -0.311315 -0.0161422 -0.234874 -0.306674 -0.00337026 -0.234252 
-0.301981 -0.00149226 -0.23341 -0.311106 0.00408834 -0.235987 -0.309853 0.0132212 -0.234873 
-0.312019 0.024403 -0.2347 -0.332915 -0.0484143 -0.233537 -0.298554 -0.0128693 -0.229892 
-0.299552 -0.00289644 -0.232249 -0.299069 0.00151183 -0.23216 -0.294744 0.000890546 -0.230376 
-0.299146 0.0177355 -0.229526 -0.30579 0.0295476 -0.230724 -0.336367 0.0508235 -0.231905 
-0.28819 -0.0151977 -0.226588 -0.293885 -0.0108543 -0.229456 -0.288972 -0.00691477 -0.227744 
-0.295194 -0.00547801 -0.229334 -0.284933 -0.00470005 -0.226116 -0.28972 -0.00239028 -0.228214 
-0.291102 0.000525592 -0.228865 -0.291509 0.00567344 -0.228706 -0.290615 0.00959676 -0.226941 
-0.296824 0.0122361 -0.22921 -0.290784 0.0139804 -0.22787 -0.294753 0.0189126 -0.22743 
-0.289355 0.0171419 -0.226671 -0.297198 0.0232806 -0.227634 -0.276653 -0.00385695 -0.22265 
-0.279972 -0.00208913 -0.224111 -0.284347 0.0022006 -0.224834 -0.279966 0.00352699 -0.222819 
-0.285406 0.00863339 -0.22474 -0.286837 0.0145003 -0.225024 -0.290494 0.0266863 -0.224193 
-0.303158 0.0369417 -0.22606 -0.282389 -0.0341101 -0.219845 -0.271426 -0.020126 -0.218767 
-0.278338 -0.0138143 -0.221509 -0.269873 -0.0027907 -0.219838 -0.269226 0.00339785 -0.219477 
-0.29011 0.0066776 -0.222937 -0.271773 0.00762087 -0.219253 -0.274239 0.0125618 -0.221085 
-0.273086 0.0165073 -0.218829 -0.26901 0.0148985 -0.218493 -0.278525 0.0183669 -0.221861 
-0.270452 0.020174 -0.218248 -0.281846 0.024133 -0.22117 -0.27822 0.0273088 -0.220028 
-0.266303 -0.0106011 -0.216809 -0.263943 -0.00226526 -0.217354 -0.264524 0.010242 -0.217157 
-0.260588 0.0118323 -0.215425 -0.266012 0.0131923 -0.217501 -0.266855 0.0273576 -0.215291 
-0.268398 0.0330484 -0.214318 -0.257167 -0.0157554 -0.213461 -0.256882 -0.0113353 -0.212778 
-0.251635 -0.00705806 -0.211967 -0.255123 -0.000780638 -0.213696 -0.253515 0.00341764 -0.212838 
-0.260717 0.00692613 -0.214624 -0.254744 0.00972998 -0.213077 -0.258859 0.0197003 -0.213496 
-0.27727 0.0384382 -0.215125 -0.251778 -0.02172 -0.209136 -0.244465 -0.01478 -0.208176 
-0.252208 -0.0120503 -0.21075 -0.246311 -0.0106451 -0.209533 -0.244025 -0.00526646 -0.208837 
-0.249352 0.00105286 -0.211165 -0.244996 0.000498172 -0.208261 -0.245547 0.00769259 -0.209297 
-0.243134 0.00455328 -0.208407 -0.243698 0.0127011 -0.208158 -0.257599 0.0296435 -0.210833 
-0.246058 -0.0333284 -0.204998 -0.245175 -0.0200967 -0.207664 -0.24151 -0.0166461 -0.206719 
-0.238647 -0.0076272 -0.20529 -0.238997 -0.00380431 -0.2068 -0.236507 0.00260041 -0.205668 
-0.240733 0.00728246 -0.207271 -0.236389 0.00775116 -0.204369 -0.237934 0.0119322 -0.205835 
-0.236055 0.019392 -0.204029 -0.240129 0.0177867 -0.205942 -0.247363 0.0326532 -0.205817 
-0.260718 0.0396949 -0.209039 -0.266618 0.0517687 -0.205844 -0.245574 -0.0455034 -0.200579 
[...]
POINT_DATA 845
FIELD FieldData 7
id 1 845 int
1158 1154 1156 1161 1155 1157 1159 1162 1163 
1152 1151 1153 303 423 239 292 347 266 
381 344 335 333 227 405 388 371 430 
439 331 243 248 286 240 271 274 246 
300 311 372 330 407 323 231 490 257 
382 349 409 341 315 384 235 444 279 
433 318 285 362 486 203 427 302 268 
313 258 387 238 247 336 441 370 397 
309 456 374 350 237 216 411 291 378 
425 414 408 476 340 466 417 389 401 
424 355 440 396 358 416 403 365 398 
462 338 351 421 326 509 624 455 400 
473 428 394 471 346 328 448 474 359 
373 434 488 511 356 361 522 508 301 
479 334 404 406 375 360 483 521 478 
538 598 484 345 325 453 497 364 437 
319 385 536 546 475 519 504 376 459 
454 493 559 468 451 452 496 489 420 
442 554 413 415 469 531 558 600 487 
482 465 463 393 458 499 503 494 461 
357 392 380 556 481 547 477 445 500 
431 541 435 579 391 412 312 542 342 
501 369 523 507 426 555 491 383 460 
419 505 498 515 457 608 524 582 552 
495 548 640 485 502 464 379 449 631 
662 527 512 651 656 537 676 562 716 
467 516 402 550 659 682 571 588 534 
564 532 634 529 573 525 616 597 563 
572 576 545 517 602 540 658 605 514 
669 702 574 526 510 609 630 589 581 
566 535 595 612 590 621 577 561 528 
533 557 677 520 544 539 601 650 666 
578 633 593 603 551 594 668 734 614 
626 617 570 506 443 708 652 683 611 
615 586 518 700 604 663 672 585 623 
764 648 599 675 436 697 655 543 653 
664 639 610 580 739 618 728 691 638 
695 549 643 636 718 661 619 791 480 
584 715 717 629 671 620 569 673 786 
678 607 681 694 725 628 687 684 592 
553 748 692 705 565 649 794 632 606 
583 721 646 770 635 749 752 627 667 
567 685 654 768 657 637 670 560 704 
703 647 645 665 699 689 740 641 513 
727 642 780 644 690 596 591 686 720 
622 698 432 575 613 568 625 867 674 
758 807 755 688 784 710 760 759 731 
741 587 737 745 766 751 711 789 788 
781 802 787 709 747 713 754 733 804 
772 793 825 742 696 730 761 829 735 
783 767 719 812 779 680 778 756 722 
765 743 811 723 757 744 693 824 835 
774 706 763 785 773 795 799 736 712 
820 660 792 841 750 701 707 729 746 
847 801 819 726 753 776 738 714 823 
875 826 777 798 822 828 800 840 769 
806 472 856 844 790 818 808 852 803 
839 771 805 837 830 843 775 880 821 
851 907 796 873 833 858 877 900 782 
853 859 827 831 834 762 816 842 797 
814 836 914 892 862 868 810 869 809 
838 679 846 913 916 874 918 832 866 
919 881 863 815 845 813 878 944 732 
864 817 899 848 924 849 882 951 894 
911 891 945 879 926 932 887 883 854 
941 946 850 904 961 895 905 886 922 
917 896 855 903 902 890 933 940 915 
901 872 935 871 898 921 920 876 885 
889 927 958 865 909 981 897 910 861 
925 971 937 884 966 965 955 857 923 
996 994 962 990 939 968 949 978 928 
972 988 950 936 893 986 956 930 938 
1008 1007 993 954 870 982 908 969 987 
998 989 963 952 973 1005 960 976 912 
1020 1010 948 991 1021 860 975 1011 947 
929 1000 934 957 1014 1019 997 980 974 
979 964 943 959 984 992 1009 985 983 
1004 1006 942 724 1017 1013 1018 1002 995 
999 1023 1001 970 1012 1003 1022 1024 1015 
967 977 906 953 1016 1035 931 1036 1033 
1037 1031 1027 1029 1034 1032 1025 888 1028 
1026 1030 1046 1049 1041 1042 1045 1047 1050 
1043 1044 1040 1039 1048 1038 1059 1053 1057 
1060 1063 1052 1054 1061 1062 1051 1056 1058 
1055 1065 1076 1075 1069 1074 1072 1067 1071 
1070 1066 1073 1064 1068 1085 1084 1087 1083 
1082 1078 1081 1080 1077 1088 1086 1096 1100 
1079 1099 1092 1091 1089 1094 1101 1090 1095 
1098 1097 1107 1112 1093 1108 1103 1102 1109 
1105 1111 1113 1104 1106 1110 1120 1114 1123 
1125 1122 1117 1118 1119 1116 1121 1124 1115 
1132 1126 1137 1134 1136 1130 1131 1135 1138 
1127 1133 1128 1129 1145 1146 1150 1147 1141 
1140 1139 1149 1144 1143 1148 1142 1160 
type 1 845 int
1 1 1 1 1 1 1 1 1 
1 1 1 1 1 1 1 1 1 
1 1 1 1 1 1 1 1 1 
1 1 1 1 1 1 1 1 1 
1 1 1 1 1 1 1 1 1 
1 1 1 1 1 1 1 1 1 
1 1 1 1 1 1 1 1 1 
1 1 1 1 1 1 1 1 1 
1 1 1 1 1 1 1 1 1 
1 1 1 1 1 1 1 1 1 
1 1 1 1 1 1 1 1 1 
1 1 1 1 1 1 1 1 1 
1 1 1 1 1 1 1 1 1 
1 1 1 1 1 1 1 1 1 
1 1 1 1 1 1 1 1 1 
1 1 1 1 1 1 1 1 1 
1 1 1 1 1 1 1 1 1 
1 1 1 1 1 1 1 1 1 
1 1 1 1 1 1 1 1 1 
1 1 1 1 1 1 1 1 1 
1 1 1 1 1 1 1 1 1 
1 1 1 1 1 1 1 1 1 
1 1 1 1 1 1 1 1 1 
1 1 1 1 1 1 1 1 1 
1 1 1 1 1 1 1 1 1 
1 1 1 1 1 1 1 1 1 
1 1 1 1 1 1 1 1 1 
1 1 1 1 1 1 1 1 1 
1 1 1 1 1 1 1 1 1 
1 1 1 1 1 1 1 1 1 
1 1 1 1 1 1 1 1 1 
1 1 1 1 1 1 1 1 1 
1 1 1 1 1 1 1 1 1 
1 1 1 1 1 1 1 1 1 
1 1 1 1 1 1 1 1 1 
1 1 1 1 1 1 1 1 1 
1 1 1 1 1 1 1 1 1 
1 1 1 1 1 1 1 1 1 
1 1 1 1 1 1 1 1 1 
1 1 1 1 1 1 1 1 1 
1 1 1 1 1 1 1 1 1 
1 1 1 1 1 1 1 1 1 
1 1 1 1 1 1 1 1 1 
1 1 1 1 1 1 1 1 1 
1 1 1 1 1 1 1 1 1 
1 1 1 1 1 1 1 1 1 
1 1 1 1 1 1 1 1 1 
1 1 1 1 1 1 1 1 1 
1 1 1 1 1 1 1 1 1 
1 1 1 1 1 1 1 1 1 
1 1 1 1 1 1 1 1 1 
1 1 1 1 1 1 1 1 1 
1 1 1 1 1 1 1 1 1 
1 1 1 1 1 1 1 1 1 
1 1 1 1 1 1 1 1 1 
1 1 1 1 1 1 1 1 1 
1 1 1 1 1 1 1 1 1 
1 1 1 1 1 1 1 1 1 
1 1 1 1 1 1 1 1 1 
1 1 1 1 1 1 1 1 1 
1 1 1 1 1 1 1 1 1 
1 1 1 1 1 1 1 1 1 
1 1 1 1 1 1 1 1 1 
1 1 1 1 1 1 1 1 1 
1 1 1 1 1 1 1 1 1 
1 1 1 1 1 1 1 1 1 
1 1 1 1 1 1 1 1 1 
1 1 1 1 1 1 1 1 1 
1 1 1 1 1 1 1 1 1 
1 1 1 1 1 1 1 1 1 
1 1 1 1 1 1 1 1 1 
1 1 1 1 1 1 1 1 1 
1 1 1 1 1 1 1 1 1 
1 1 1 1 1 1 1 1 1 
1 1 1 1 1 1 1 1 1 
1 1 1 1 1 1 1 1 1 
1 1 1 1 1 1 1 1 1 
1 1 1 1 1 1 1 1 1 
1 1 1 1 1 1 1 1 1 
1 1 1 1 1 1 1 1 1 
1 1 1 1 1 1 1 1 1 
1 1 1 1 1 1 1 1 1 
1 1 1 1 1 1 1 1 1 
1 1 1 1 1 1 1 1 1 
1 1 1 1 1 1 1 1 1 
1 1 1 1 1 1 1 1 1 
1 1 1 1 1 1 1 1 1 
1 1 1 1 1 1 1 1 1 
1 1 1 1 1 1 1 1 1 
1 1 1 1 1 1 1 1 1 
1 1 1 1 1 1 1 1 1 
1 1 1 1 1 1 1 1 1 
1 1 1 1 1 1 1 1 1 
1 1 1 1 1 1 1 1 
i 3 845 int
0 0 0 0 0 0 0 0 0 
0 0 0 0 0 0 0 0 0 
0 0 0 0 0 0 0 0 0 
0 0 0 0 0 0 0 0 0 
0 0 0 0 0 0 0 0 0 
0 0 0 0 0 0 0 0 0 
0 0 0 0 0 0 0 0 0 
0 0 0 0 0 0 0 0 0 
0 0 0 0 0 0 0 0 0 
0 0 0 0 0 0 0 0 0 
0 0 0 0 0 0 0 0 0 
0 0 0 0 0 0 0 0 0 
0 0 0 0 0 0 0 0 0 
0 0 0 0 0 0 0 0 0 
0 0 0 0 0 0 0 0 0 
0 0 0 0 0 0 0 0 0 
0 0 0 0 0 0 0 0 0 
0 0 0 0 0 0 0 0 0 
0 0 0 0 0 0 0 0 0 
0 0 0 0 0 0 0 0 0 
0 0 0 0 0 0 0 0 0 
0 0 0 0 0 0 0 0 0 
0 0 0 0 0 0 0 0 0 
0 0 0 0 0 0 0 0 0 
0 0 0 0 0 0 0 0 0 
0 0 0 0 0 0 0 0 0 
0 0 0 0 0 0 0 0 0 
0 0 0 0 0 0 0 0 0 
0 0 0 0 0 0 0 0 0 
0 0 0 0 0 0 0 0 0 
0 0 0 0 0 0 0 0 0 
0 0 0 0 0 0 0 0 0 
0 0 0 0 0 0 0 0 0 
0 0 0 0 0 0 0 0 0 
0 0 0 0 0 0 0 0 0 
0 0 0 0 0 0 0 0 0 
0 0 0 0 0 0 0 0 0 
0 0 0 0 0 0 0 0 0 
0 0 0 0 0 0 0 0 0 
0 0 0 0 0 0 0 0 0 
0 0 0 0 0 0 0 0 0 
0 0 0 0 0 0 0 0 0 
0 0 0 0 0 0 0 0 0 
0 0 0 0 0 0 0 0 0 
0 0 0 0 0 0 0 0 0 
0 0 0 0 0 0 0 0 0 
0 0 0 0 0 0 0 0 0 
0 0 0 0 0 0 0 0 0 
0 0 0 0 0 0 0 0 0 
0 0 0 0 0 0 0 0 0 
0 0 0 0 0 0 0 0 0 
0 0 0 0 0 0 0 0 0 
0 0 0 0 0 0 0 0 0 
0 0 0 0 0 0 0 0 0 
0 0 0 0 0 0 0 0 0 
0 0 0 0 0 0 0 0 0 
0 0 0 0 0 0 0 0 0 
0 0 0 0 0 0 0 0 0 
0 0 0 0 0 0 0 0 0 
0 0 0 0 0 0 0 0 0 
0 0 0 0 0 0 0 0 0 
0 0 0 0 0 0 0 0 0 
0 0 0 0 0 0 0 0 0 
0 0 0 0 0 0 0 0 0 
0 0 0 0 0 0 0 0 0 
0 0 0 0 0 0 0 0 0 
0 0 0 0 0 0 0 0 0 
0 0 0 0 0 0 0 0 0 
0 0 0 0 0 0 0 0 0 
0 0 0 0 0 0 0 0 0 
0 0 0 0 0 0 0 0 0 
0 0 0 0 0 0 0 0 0 
0 0 0 0 0 0 0 0 0 
0 0 0 0 0 0 0 0 0 
0 0 0 0 0 0 0 0 0 
0 0 0 0 0 0 0 0 0 
0 0 0 0 0 0 0 0 0 
0 0 0 0 0 0 0 0 0 
0 0 0 0 0 0 0 0 0 
0 0 0 0 0 0 0 0 0 
0 0 0 0 0 0 0 0 0 
0 0 0 0 0 0 0 0 0 
0 0 0 0 0 0 0 0 0 
0 0 0 0 0 0 0 0 0 
0 0 0 0 0 0 0 0 0 
0 0 0 0 0 0 0 0 0 
0 0 0 0 0 0 0 0 0 
0 0 0 0 0 0 0 0 0 
0 0 0 0 0 0 0 0 0 
0 0 0 0 0 0 0 0 0 
0 0 0 0 0 0 0 0 0 
0 0 0 0 0 0 0 0 0 
0 0 0 0 0 0 0 0 0 
0 0 0 0 0 0 0 0 0 
0 0 0 0 0 0 0 0 0 
0 0 0 0 0 0 0 0 0 
0 0 0 0 0 0 0 0 0 
0 0 0 0 0 0 0 0 0 
0 0 0 0 0 0 0 0 0 
0 0 0 0 0 0 0 0 0 
0 0 0 0 0 0 0 0 0 
0 0 0 0 0 0 0 0 0 
0 0 0 0 0 0 0 0 0 
0 0 0 0 0 0 0 0 0 
0 0 0 0 0 0 0 0 0 
0 0 0 0 0 0 0 0 0 
0 0 0 0 0 0 0 0 0 
0 0 0 0 0 0 0 0 0 
0 0 0 0 0 0 0 0 0 
0 0 0 0 0 0 0 0 0 
0 0 0 0 0 0 0 0 0 
0 0 0 0 0 0 0 0 0 
0 0 0 0 0 0 0 0 0 
0 0 0 0 0 0 0 0 0 
0 0 0 0 0 0 0 0 0 
0 0 0 0 0 0 0 0 0 
0 0 0 0 0 0 0 0 0 
0 0 0 0 0 0 0 0 0 
0 0 0 0 0 0 0 0 0 
0 0 0 0 0 0 0 0 0 
0 0 0 0 0 0 0 0 0 
0 0 0 0 0 0 0 0 0 
0 0 0 0 0 0 0 0 0 
0 0 0 0 0 0 0 0 0 
0 0 0 0 0 0 0 0 0 
0 0 0 0 0 0 0 0 0 
0 0 0 0 0 0 0 0 0 
0 0 0 0 0 0 0 0 0 
0 0 0 0 0 0 0 0 0 
0 0 0 0 0 0 0 0 0 
0 0 0 0 0 0 0 0 0 
0 0 0 0 0 0 0 0 0 
0 0 0 0 0 0 0 0 0 
0 0 0 0 0 0 0 0 0 
0 0 0 0 0 0 0 0 0 
0 0 0 0 0 0 0 0 0 
0 0 0 0 0 0 0 0 0 
0 0 0 0 0 0 0 0 0 
0 0 0 0 0 0 0 0 0 
0 0 0 0 0 0 0 0 0 
0 0 0 0 0 0 0 0 0 
0 0 0 0 0 0 0 0 0 
0 0 0 0 0 0 0 0 0 
0 0 0 0 0 0 0 0 0 
0 0 0 0 0 0 0 0 0 
0 0 0 0 0 0 0 0 0 
0 0 0 0 0 0 0 0 0 
0 0 0 0 0 0 0 0 0 
0 0 0 0 0 0 0 0 0 
0 0 0 0 0 0 0 0 0 
0 0 0 0 0 0 0 0 0 
0 0 0 0 0 0 0 0 0 
0 0 0 0 0 0 0 0 0 
0 0 0 0 0 0 0 0 0 
0 0 0 0 0 0 0 0 0 
0 0 0 0 0 0 0 0 0 
0 0 0 0 0 0 0 0 0 
0 0 0 0 0 0 0 0 0 
0 0 0 0 0 0 0 0 0 
0 0 0 0 0 0 0 0 0 
0 0 0 0 0 0 0 0 0 
0 0 0 0 0 0 0 0 0 
0 0 0 0 0 0 0 0 0 
0 0 0 0 0 0 0 0 0 
0 0 0 0 0 0 0 0 0 
0 0 0 0 0 0 0 0 0 
0 0 0 0 0 0 0 0 0 
0 0 0 0 0 0 0 0 0 
0 0 0 0 0 0 0 0 0 
0 0 0 0 0 0 0 0 0 
0 0 0 0 0 0 0 0 0 
0 0 0 0 0 0 0 0 0 
0 0 0 0 0 0 0 0 0 
0 0 0 0 0 0 0 0 0 
0 0 0 0 0 0 0 0 0 
0 0 0 0 0 0 0 0 0 
0 0 0 0 0 0 0 0 0 
0 0 0 0 0 0 0 0 0 
0 0 0 0 0 0 0 0 0 
0 0 0 0 0 0 0 0 0 
0 0 0 0 0 0 0 0 0 
0 0 0 0 0 0 0 0 0 
0 0 0 0 0 0 0 0 0 
0 0 0 0 0 0 0 0 0 
0 0 0 0 0 0 0 0 0 
0 0 0 0 0 0 0 0 0 
0 0 0 0 0 0 0 0 0 
0 0 0 0 0 0 0 0 0 
0 0 0 0 0 0 0 0 0 
0 0 0 0 0 0 0 0 0 
0 0 0 0 0 0 0 0 0 
0 0 0 0 0 0 0 0 0 
0 0 0 0 0 0 0 0 0 
0 0 0 0 0 0 0 0 0 
0 0 0 0 0 0 0 0 0 
0 0 0 0 0 0 0 0 0 
0 0 0 0 0 0 0 0 0 
0 0 0 0 0 0 0 0 0 
0 0 0 0 0 0 0 0 0 
0 0 0 0 0 0 0 0 0 
0 0 0 0 0 0 0 0 0 
0 0 0 0 0 0 0 0 0 
0 0 0 0 0 0 0 0 0 
0 0 0 0 0 0 0 0 0 
0 0 0 0 0 0 0 0 0 
0 0 0 0 0 0 0 0 0 
0 0 0 0 0 0 0 0 0 
0 0 0 0 0 0 0 0 0 
0 0 0 0 0 0 0 0 0 
0 0 0 0 0 0 0 0 0 
0 0 0 0 0 0 0 0 0 
0 0 0 0 0 0 0 0 0 
0 0 0 0 0 0 0 0 0 
0 0 0 0 0 0 0 0 0 
0 0 0 0 0 0 0 0 0 
0 0 0 0 0 0 0 0 0 
0 0 0 0 0 0 0 0 0 
0 0 0 0 0 0 0 0 0 
0 0 0 0 0 0 0 0 0 
0 0 0 0 0 0 0 0 0 
0 0 0 0 0 0 0 0 0 
0 0 0 0 0 0 0 0 0 
0 0 0 0 0 0 0 0 0 
0 0 0 0 0 0 0 0 0 
0 0 0 0 0 0 0 0 0 
0 0 0 0 0 0 0 0 0 
0 0 0 0 0 0 0 0 0 
0 0 0 0 0 0 0 0 0 
0 0 0 0 0 0 0 0 0 
0 0 0 0 0 0 0 0 0 
0 0 0 0 0 0 0 0 0 
0 0 0 0 0 0 0 0 0 
0 0 0 0 0 0 0 0 0 
0 0 0 0 0 0 0 0 0 
0 0 0 0 0 0 0 0 0 
0 0 0 0 0 0 0 0 0 
0 0 0 0 0 0 0 0 0 
0 0 0 0 0 0 0 0 0 
0 0 0 0 0 0 0 0 0 
0 0 0 0 0 0 0 0 0 
0 0 0 0 0 0 0 0 0 
0 0 0 0 0 0 0 0 0 
0 0 0 0 0 0 0 0 0 
0 0 0 0 0 0 0 0 0 
0 0 0 0 0 0 0 0 0 
0 0 0 0 0 0 0 0 0 
0 0 0 0 0 0 0 0 0 
0 0 0 0 0 0 0 0 0 
0 0 0 0 0 0 0 0 0 
0 0 0 0 0 0 0 0 0 
0 0 0 0 0 0 0 0 0 
0 0 0 0 0 0 0 0 0 
0 0 0 0 0 0 0 0 0 
0 0 0 0 0 0 0 0 0 
0 0 0 0 0 0 0 0 0 
0 0 0 0 0 0 0 0 0 
0 0 0 0 0 0 0 0 0 
0 0 0 0 0 0 0 0 0 
0 0 0 0 0 0 0 0 0 
0 0 0 0 0 0 0 0 0 
0 0 0 0 0 0 0 0 0 
0 0 0 0 0 0 0 0 0 
0 0 0 0 0 0 0 0 0 
0 0 0 0 0 0 0 0 0 
0 0 0 0 0 0 0 0 0 
0 0 0 0 0 0 0 0 0 
0 0 0 0 0 0 0 0 0 
0 0 0 0 0 0 0 0 0 
0 0 0 0 0 0 0 0 0 
0 0 0 0 0 0 0 0 0 
0 0 0 0 0 0 0 0 0 
0 0 0 0 0 0 0 0 0 
0 0 0 0 0 0 0 0 0 
0 0 0 0 0 0 0 0 0 
0 0 0 0 0 0 0 0 0 
0 0 0 0 0 0 0 0 0 
0 0 0 0 0 0 0 0 0 
0 0 0 0 0 0 0 0 0 
0 0 0 0 0 0 0 0 0 
0 0 0 0 0 0 0 0 0 
0 0 0 0 0 0 0 0 0 
0 0 0 0 0 0 
v 3 845 double
0 0 -1.01045 0 0 -1 0 0 -1 
0 0 -1 0 0 -1 0 0 -1.0593 
0 0 -1.044 0 0 -1.04508 0 0 -1.01457 
0 0 -1.05175 0 0 -1.04341 0 0 -1.04674 
-0.994533 -0.0896564 -1.78901 -1.12514 0.00747823 -1.82504 -1.12293 0.202184 -1.88691 
-0.979641 -0.0426487 -1.78539 -1.02937 -0.0923633 -1.82173 -0.932991 -0.0490747 -1.77329 
-0.866472 -0.0593439 -1.74197 -1.127 0.250494 -1.77909 -1.16734 0.234822 -1.78053 
-1.02326 0.0062165 -1.72636 -1.00294 0.0450333 -1.73689 -0.945535 0.102847 -1.6837 
-1.02165 0.0628256 -1.69988 -1.15937 0.122977 -1.71442 -0.802616 0.032427 -1.72578 
-1.11506 0.113075 -1.68139 -1.02475 -0.0380415 -1.63255 -0.985926 0.0910313 -1.65018 
-0.998172 0.00324232 -1.64839 -0.907793 -0.0395894 -1.72369 -0.985956 -0.081936 -1.66172 
-0.998069 0.0921414 -1.61455 -0.986794 0.0972019 -1.6185 -1.0468 -0.0181709 -1.60812 
-0.932285 -0.0356725 -1.61021 -0.960552 0.055869 -1.61639 -0.830709 0.00649009 -1.5913 
-0.936143 0.0770964 -1.58766 -0.958901 -0.0291744 -1.59859 -1.02025 0.0212255 -1.61076 
-0.989511 0.0470919 -1.59001 -1.2071 0.118193 -1.61368 -1.03062 0.0246284 -1.56548 
-0.83647 0.00317316 -1.49311 -0.927079 -0.0147077 -1.52151 -0.916555 -0.0428759 -1.52076 
-1.10461 -0.00201365 -1.77857 -0.865025 -0.02127 -1.4852 -1.03862 0.0475926 -1.51604 
-0.874009 -0.0623955 -1.43589 -1.1763 0.00426347 -1.50198 -0.963324 0.0173019 -1.45789 
-0.929813 0.0235185 -1.40597 -0.917868 -0.00366522 -1.39858 -0.913514 0.0195782 -1.40318 
-0.902815 0.0202269 -1.40732 -1.20355 0.403443 -1.49085 -0.900739 0.0568734 -1.38049 
-0.821007 -0.105127 -1.40603 -0.988834 0.0827193 -1.40877 -1.02361 0.0238263 -1.3875 
-0.947958 -0.0147564 -1.35674 -0.899669 0.0500074 -1.35317 -0.95286 0.00749167 -1.37044 
-0.836625 0.0235689 -1.29684 -1.25276 0.059688 -1.29387 -0.90938 -0.0126162 -1.34323 
-0.856095 0.00445023 -1.36143 -0.887789 0.0696155 -1.33214 -0.883967 0.0901125 -1.33796 
-1.02207 0.115487 -1.34996 -0.920656 -0.0836542 -1.3677 -0.992012 -0.0175397 -1.29451 
-0.985017 0.0114707 -1.31819 -0.783583 -0.013065 -1.2763 -0.813242 -0.0219888 -1.2532 
-0.826899 -0.00636139 -1.24564 -0.741908 -0.056456 -1.29274 -0.911898 0.0740498 -1.25731 
-1.0337 0.0883194 -1.32593 -0.847886 0.0642132 -1.2544 -0.841524 0.0706231 -1.22312 
-0.881715 0.0783676 -1.23838 -0.77217 -0.0211985 -1.24454 -1.09902 0.050074 -1.19499 
-1.10297 0.078731 -1.24818 -0.886843 0.0505395 -1.19251 -0.747405 -0.0878178 -1.22954 
-0.907835 0.00793758 -1.24736 -1.06982 -0.0132149 -1.13929 -1.11649 0.0800817 -1.23749 
-0.932769 -0.0510391 -1.1855 -0.890207 0.0042187 -1.17148 -0.834925 -0.0715943 -1.21801 
-0.892452 0.0461076 -1.15562 -1.02095 -0.00221571 -1.14393 -0.952383 -0.0840772 -1.18936 
-0.923992 0.0449146 -1.13606 -0.908372 0.0712862 -1.11926 -0.783277 -0.00454099 -1.14059 
-0.737249 -0.00779239 -1.15231 -1.00816 0.103532 -1.16189 -1.33097 -0.0228799 -1.27027 
-1.13436 0.299329 -1.32468 -0.889545 -0.0701608 -1.12325 -1.11846 -0.048404 -1.14104 
-1.05549 -0.0480319 -1.08834 -0.868587 0.164076 -1.26002 -0.922407 -0.0582402 -1.05282 
-1.03615 -0.096767 -1.2007 -1.15709 -0.0181172 -1.12002 -1.02869 -0.0310242 -1.08189 
-0.902913 -0.0993569 -1.14595 -0.962 -0.0694462 -1.08473 -1.18099 -0.0362559 -1.12111 
-1.06668 0.0265891 -1.08864 -1.078 -0.106667 -1.18222 -1.11949 0.167175 -1.12414 
-1.03912 0.179637 -1.01861 -0.922908 -0.00855259 -1.03506 -1.04419 0.00270785 -1.12937 
-1.09224 0.110728 -1.07725 -1.19167 0.170927 -1.14362 -1.14883 0.0206661 -1.01544 
-0.888324 0.111072 -1.0056 -1.18391 0.0946498 -1.03605 -1.08802 0.0246765 -1.03601 
-1.0553 -0.0910234 -0.968264 -1.14328 0.108922 -1.00813 -1.14115 0.0911963 -1.00425 
-1.12301 0.0663455 -0.998181 -1.01804 0.0191447 -1.01224 -1.13995 0.0204375 -1.01975 
-1.15177 0.220647 -1.24194 -1.31979 0.343589 -1.24286 -1.11575 0.0676828 -0.944576 
-1.11941 0.0637183 -0.944854 -0.93597 0.131981 -0.885908 -0.992278 0.0598137 -0.979061 
-1.00189 0.0176786 -1.01331 -1.06723 -0.0686863 -1.03714 -1.1271 0.118884 -0.960957 
-1.11387 0.0559059 -0.915471 -1.03934 0.0178391 -0.903927 -1.28537 0.0283749 -0.992591 
-1.14596 -0.0612819 -0.946476 -0.90244 -0.0510176 -0.971288 -1.12192 0.120817 -0.906589 
-1.09572 0.00565963 -0.864655 -1.13508 -0.11797 -0.884564 -1.0274 -0.0230512 -0.916648 
-0.987036 0.138615 -0.927925 -1.00888 0.131795 -0.881717 -1.22023 -0.181269 -0.863227 
-1.00778 0.00330398 -0.823165 -1.11009 0.0124761 -0.825862 -1.08264 -0.000809601 -0.842863 
-1.05017 -0.0886814 -0.780612 -1.0182 -0.0286908 -0.823888 -0.991234 -0.0147167 -0.864921 
-1.06718 0.0399869 -0.808456 -1.03755 0.111512 -0.822122 -1.1052 0.141449 -0.814976 
-0.951616 0.0711598 -0.931042 -0.983675 -0.0996428 -0.839217 -1.03892 -0.0314253 -0.814846 
-0.99769 -0.0104395 -0.858155 -1.10372 -0.0456387 -0.71586 -1.15167 0.144025 -0.802472 
-1.14947 0.212352 -0.781781 -1.18861 0.293751 -0.775916 -1.04031 0.0474049 -0.721196 
-0.874561 0.371695 -1.03563 -0.876427 0.0253283 -0.859821 -1.08557 0.122023 -0.710527 
-1.11864 0.00700779 -0.594757 -1.08035 -0.115029 -0.756169 -1.26557 0.379457 -0.716959 
-0.974439 0.0633126 -0.65968 -1.05616 0.0192461 -0.621179 -0.973599 0.0427895 -0.709845 
-1.13461 -0.0606251 -0.547891 -1.03594 0.157467 -0.693249 -1.12819 -0.0297836 -0.557997 
-1.10879 -0.0460236 -0.726621 -0.833997 -0.144317 -0.515837 -1.07586 0.0171319 -0.565741 
-0.907701 0.0928773 -0.687381 -1.04184 0.054768 -0.567143 -1.11719 0.0609598 -0.569988 
-1.41003 -0.12167 -0.632872 -1.07679 0.0398576 -0.626518 -1.11144 0.0642141 -0.610623 
-1.10082 0.0758832 -0.557944 -1.11387 -0.0142585 -0.529603 -1.07315 0.0852753 -0.48932 
-1.14138 -0.0115698 -0.53985 -1.10984 -0.00113221 -0.488806 -1.08007 -0.015469 -0.530704 
-0.960922 -0.279847 -0.858924 -1.2456 -0.265711 -0.588321 -1.05192 -0.106167 -0.794877 
-1.00913 0.170515 -0.560704 -1.06009 0.0648436 -0.485376 -1.04906 0.0407364 -0.432786 
-1.07381 0.0346699 -0.455387 -1.0318 0.0647448 -0.431441 -1.08378 0.156161 -0.400637 
-1.16576 -0.212064 -0.550305 -1.1616 -0.423929 -0.630952 -0.98714 0.13672 -0.45434 
-1.18418 -0.166087 -0.662971 -1.19602 -0.173382 -0.685512 -1.01749 0.112974 -0.576929 
-1.14453 0.191554 -0.661122 -1.0972 0.111357 -0.466146 -1.0673 0.0717332 -0.45886 
-0.958864 0.0449558 -0.409522 -1.14265 0.0641444 -0.48425 -1.03119 0.138962 -0.438944 
-1.05639 0.160703 -0.435079 -0.934942 0.156304 -0.399853 -1.1186 -0.257245 -0.387058 
-1.10186 0.0394081 -0.434251 -1.05359 -0.0197203 -0.438733 -0.987245 0.0680014 -0.418589 
-1.00698 0.159263 -0.428065 -1.08375 0.0963977 -0.450512 -1.07618 -0.0810764 -0.464731 
-1.02605 -0.0937265 -0.44649 -1.11579 0.231346 -0.666646 -1.03263 0.0818018 -0.503195 
-1.03956 0.066644 -0.403038 -1.0606 0.00212126 -0.447298 -1.01689 0.0278045 -0.426814 
-1.06739 -0.0662342 -0.458476 -0.92763 -0.0876435 -0.406813 -1.14777 0.0430504 -0.469258 
-1.08088 0.0341751 -0.457904 -1.10549 0.0464481 -0.470156 -1.11492 0.0802194 -0.473538 
-1.14828 0.033028 -0.485399 -1.06727 -0.00298316 -0.44997 -0.972288 -0.000337015 -0.410435 
-0.992954 -0.00262269 -0.418638 -0.958767 -0.094642 -0.407163 -1.03252 0.0443526 -0.598305 
-1.05022 -0.0886012 -0.451607 -1.03497 -0.0521588 -0.440612 -1.0781 -0.0198264 -0.447724 
-1.09147 -0.0987201 -0.464101 -1.0059 -0.0490763 -0.425849 -1.02096 0.0232522 -0.432778 
-0.996383 -0.0749649 -0.418102 -0.92551 -0.0711191 -0.369891 -0.916937 -0.0719303 -0.32393 
-0.97369 -0.0989184 -0.406582 -1.064 -0.0749409 -0.468945 -1.07161 -0.19024 -0.525375 
-1.3498 -0.164657 -0.583362 -1.09629 -0.187116 -0.371579 -1.0472 -0.0616205 -0.418233 
-1.06926 -0.00123878 -0.450596 -0.997796 0.0276143 -0.417423 -1.03058 -0.10115 -0.445419 
-1.22896 -0.0829051 -0.590585 -1.04197 -0.0962051 -0.451662 -0.902251 0.00691706 -0.381682 
-0.892251 -0.0106545 -0.367055 -0.859166 -0.0952919 -0.372534 -0.98452 -0.041766 -0.43024 
-0.918227 0.0230608 -0.372825 -0.932103 -0.0969972 -0.396448 -0.897501 -0.0766354 -0.401392 
-1.04257 0.0423029 -0.440496 -0.963743 0.00859118 -0.404775 -0.99251 -0.121836 -0.421387 
-0.966561 -0.0919681 -0.422651 -0.995484 -0.134068 -0.442306 -0.903322 -0.181717 -0.412709 
-0.793436 -0.0923488 -0.343528 -0.901283 0.0146447 -0.382496 -0.965964 0.0599169 -0.412284 
-0.917813 0.0294717 -0.390567 -0.918305 -0.0792636 -0.394011 -0.85029 -0.0417144 -0.363493 
-0.9581 -0.0820936 -0.415607 -1.07375 -0.0480643 -0.451697 -0.938294 -0.039483 -0.398297 
-1.12431 -0.0243487 -0.473266 -0.954112 0.0705926 -0.447914 -0.987274 0.0532943 -0.40234 
-0.959911 0.0608114 -0.403189 -0.911044 0.0368997 -0.405323 -0.948173 0.096597 -0.402667 
-0.992604 -0.00466981 -0.421132 -1.00173 0.0146315 -0.425525 -0.852566 0.104764 -0.352732 
-0.973151 -0.00864447 -0.414312 -0.855688 -0.0818298 -0.373244 -1.22157 -0.190875 -0.549351 
-0.935218 0.0667968 -0.382599 -0.994433 0.0459805 -0.404872 -0.987476 0.0290886 -0.39763 
-0.884297 0.00846766 -0.404443 -0.867658 -0.00163587 -0.356318 -1.0527 -0.122046 -0.442868 
-0.936517 0.0153288 -0.564919 -0.926606 -0.0509194 -0.388108 -0.823542 0.0560937 -0.342844 
-0.762638 0.194338 -0.296399 -0.888424 -0.0298612 -0.371447 -0.991391 -0.0206524 -0.408242 
-1.30332 -0.0282646 -0.540219 -1.06567 0.0524526 -0.386734 -0.863038 0.0202665 -0.327167 