# vtk DataFile Version 4.0
Generated by LIGGGHTS
ASCII
DATASET POLYDATA
POINTS 549 float
-0.440078 0.0488419 -0.290605 -0.384844 -0.0208244 -0.274071 -0.395545 0.0447689 -0.269786 
-0.362373 -0.00352458 -0.260965 -0.331281 -0.00958712 -0.245293 -0.325277 -0.0117607 -0.241467 
-0.323117 -0.00784294 -0.241882 -0.322957 -0.00368545 -0.242078 -0.327221 0.00506132 -0.243884 
-0.32238 -0.016935 -0.24048 -0.308716 0.0101257 -0.2346 -0.30331 0.00493497 -0.233733 
-0.299543 0.0166165 -0.23101 -0.294667 0.00513498 -0.22899 -0.290461 0.0082216 -0.228103 
-0.28945 0.0149194 -0.227124 -0.29901 -0.0408915 -0.22262 -0.296939 -0.0320926 -0.226174 
-0.279136 -0.011237 -0.223212 -0.289045 0.0194852 -0.225012 -0.338586 0.0602477 -0.225377 
-0.272427 -0.00405489 -0.220867 -0.276238 0.00356921 -0.221343 -0.290286 0.0353587 -0.222495 
-0.264597 -0.0018667 -0.216562 -0.260889 0.00576199 -0.215841 -0.265582 0.0120537 -0.2175 
-0.267314 -0.0317743 -0.213109 -0.260464 -0.0122606 -0.214184 -0.252942 -0.00750493 -0.212512 
-0.251477 0.000290995 -0.212101 -0.280685 -0.0521911 -0.211106 -0.250963 -0.0163217 -0.209532 
-0.254793 -0.0115619 -0.211879 -0.245504 -0.0118121 -0.209029 -0.250046 -0.00595506 -0.210259 
-0.245344 -0.026359 -0.205597 -0.234776 -0.00821886 -0.204646 -0.241142 -0.00283579 -0.207747 
-0.240107 0.00146035 -0.207231 -0.236791 0.00360478 -0.205754 -0.246251 0.0102557 -0.20841 
-0.235989 -0.0132965 -0.204764 -0.22921 -0.0164015 -0.201642 -0.235733 -0.00114666 -0.204391 
-0.228801 -0.0019573 -0.20253 -0.232897 0.00506017 -0.203001 -0.228763 0.00470696 -0.202347 
-0.227636 -0.0223766 -0.199984 -0.224847 -0.0164866 -0.199767 -0.217278 -0.00544843 -0.197556 
-0.220737 0.00229759 -0.197933 -0.216067 0.00268204 -0.197052 -0.220411 0.0135957 -0.197102 
-0.224478 0.0197768 -0.198046 -0.2214 -0.0287575 -0.195998 -0.214614 -0.00338759 -0.195314 
-0.208871 0.00395107 -0.193986 -0.207767 0.00711483 -0.193498 -0.217399 0.00843217 -0.196422 
-0.212947 0.0098953 -0.194367 -0.230106 0.0114514 -0.196797 -0.241331 0.0276285 -0.200511 
-0.204014 -0.0245144 -0.189791 -0.200261 -0.00833987 -0.190234 -0.205822 0.0204741 -0.191287 
-0.316422 -0.0771103 -0.192124 -0.202662 -0.0207188 -0.188801 -0.197477 -0.0184416 -0.187912 
-0.194728 -0.0177493 -0.186004 -0.202288 -0.0117944 -0.189628 -0.197164 -0.0130558 -0.188448 
-0.19731 -0.00917439 -0.188929 -0.191175 -0.00768098 -0.186486 -0.194988 -0.00616418 -0.18703 
-0.198832 -0.00342726 -0.188685 -0.192567 0.00068608 -0.186546 -0.197319 0.0107957 -0.188755 
-0.21914 0.0487853 -0.188844 -0.267986 0.0719051 -0.191533 -0.195253 -0.037115 -0.183288 
-0.193848 -0.0243163 -0.185596 -0.191677 -0.0212058 -0.183855 -0.185352 -0.0127503 -0.183546 
-0.189372 -0.00298726 -0.184698 -0.189839 0.00358798 -0.186031 -0.183837 0.00266718 -0.183496 
-0.194223 0.0110139 -0.186233 -0.191399 0.0162514 -0.185715 -0.19105 0.0210605 -0.183934 
-0.199137 -0.0432294 -0.182739 -0.181101 -0.0242554 -0.180343 -0.180177 -0.0204612 -0.179407 
-0.182026 -0.0104585 -0.182445 -0.178176 -0.00829233 -0.17984 -0.181769 -0.0066546 -0.182237 
-0.202889 0.000751903 -0.180129 -0.175828 0.00415515 -0.180172 -0.175932 0.0100869 -0.179751 
-0.185909 0.0252339 -0.18202 -0.18318 0.0255149 -0.180751 -0.191604 0.0395793 -0.180896 
-0.211768 0.0540963 -0.18199 -0.186943 -0.0396102 -0.179045 -0.178387 -0.0270133 -0.178609 
-0.176342 -0.0235538 -0.177383 -0.172456 -0.0168927 -0.176709 -0.170899 -0.0106097 -0.176652 
-0.172755 -0.00772337 -0.178698 -0.173799 0.00186209 -0.178931 -0.164875 0.00552501 -0.175505 
-0.174941 0.0166344 -0.178771 -0.175414 0.0296981 -0.176748 -0.169648 -0.0235638 -0.175412 
-0.158505 -0.0142452 -0.172247 -0.160794 -0.0107904 -0.173459 -0.157007 -0.00156402 -0.172168 
-0.160252 0.00730419 -0.172374 -0.158615 0.0110767 -0.172458 -0.161075 0.0200826 -0.172598 
-0.167861 -0.0460262 -0.169235 -0.162037 -0.0385694 -0.169188 -0.160116 -0.0189895 -0.171236 
-0.156323 -0.0109343 -0.170436 -0.153355 -0.00795055 -0.170489 -0.151085 -0.00425928 -0.169728 
-0.15212 -0.00037644 -0.169064 -0.154661 0.00409586 -0.171135 -0.153598 0.0115108 -0.170306 
-0.157603 0.0162664 -0.170485 -0.158361 0.0207305 -0.171378 -0.157332 0.0233593 -0.17044 
-0.161525 0.0250853 -0.170748 -0.157751 0.0264017 -0.170038 -0.159761 0.0287896 -0.170412 
-0.173766 -0.0567485 -0.167329 -0.154063 -0.0267032 -0.167516 -0.150031 -0.0232139 -0.167517 
-0.148755 -0.0154154 -0.166913 -0.147854 -0.0102681 -0.166968 -0.14389 -0.0100408 -0.166415 
-0.158909 -0.00979078 -0.166718 -0.146265 -0.00553523 -0.166544 -0.168616 0.00294561 -0.167725 
-0.144126 0.0138129 -0.166139 -0.153116 0.0229494 -0.167728 -0.142816 -0.0327847 -0.162682 
-0.139488 -0.016193 -0.162901 -0.136617 -0.00969691 -0.163402 -0.170063 -0.00607159 -0.167505 
-0.140962 0.0106852 -0.164028 -0.135646 0.0128425 -0.161663 -0.145697 0.018248 -0.165193 
-0.139258 0.02229 -0.163083 -0.146131 0.0284479 -0.164893 -0.143301 0.0316141 -0.161895 
-0.149123 0.0352952 -0.164738 -0.214704 0.0814632 -0.164835 -0.129847 -0.0121012 -0.160326 
-0.127356 -0.0142827 -0.15801 -0.127995 -0.00815726 -0.158738 -0.1287 -0.00199491 -0.159191 
-0.126366 0.0025339 -0.158268 -0.133196 0.00337253 -0.162156 -0.131729 0.0093516 -0.161231 
-0.125665 0.0119891 -0.157374 -0.130113 0.0146391 -0.159171 -0.162481 0.0589367 -0.160683 
-0.122614 -0.0215674 -0.156231 -0.125771 -0.0192887 -0.15788 -0.119002 -0.014901 -0.155539 
-0.123452 -0.0117323 -0.157626 -0.126363 -0.00499591 -0.156738 -0.12147 0.00644084 -0.156741 
-0.126947 0.00800185 -0.155936 -0.141132 0.0133253 -0.15781 -0.121359 0.0141464 -0.155467 
-0.145063 0.027952 -0.157401 -0.140637 0.0443352 -0.157525 -0.119338 -0.0273667 -0.154047 
-0.118635 -0.0231013 -0.154349 -0.118147 -0.019216 -0.153584 -0.116568 -0.0115645 -0.153677 
-0.138274 -0.0112675 -0.154743 -0.122205 -0.00997006 -0.153092 -0.112976 -0.00415777 -0.153638 
-0.110652 -0.0047715 -0.150646 -0.106705 -0.00472045 -0.150624 -0.108176 -0.00218128 -0.151622 
-0.113909 0.000520092 -0.152959 -0.106582 0.00625329 -0.150912 -0.108835 0.00822602 -0.151704 
-0.114788 0.0129503 -0.153866 -0.108855 0.0113292 -0.151469 -0.114328 0.0161051 -0.153445 
-0.117659 0.0335206 -0.152031 -0.123033 0.0357686 -0.153719 -0.126576 0.0401372 -0.15291 
-0.107676 -0.0360239 -0.147198 -0.100831 -0.0229534 -0.146902 -0.110058 -0.00877351 -0.151096 
-0.104021 -0.00722768 -0.149592 -0.1026 -0.0015469 -0.149223 -0.106518 0.000964384 -0.149797 
-0.102815 0.00277367 -0.149337 -0.118993 0.00258453 -0.155757 -0.100747 0.00797956 -0.147246 
-0.105581 0.0113624 -0.150107 -0.105032 0.0151945 -0.149577 -0.103495 0.0183098 -0.147543 
-0.107911 0.0312197 -0.148548 -0.117246 0.0478556 -0.147964 -0.117389 -0.0570936 -0.144649 
-0.106543 -0.0387363 -0.145773 -0.0913918 -0.022141 -0.143045 -0.0938312 -0.0157395 -0.144901 
-0.0923891 -0.0131472 -0.144427 -0.0974137 -0.00130232 -0.146015 -0.105588 0.00674712 -0.147073 
-0.095068 0.00609674 -0.146038 -0.0880709 0.00831609 -0.142181 -0.0903829 0.00975728 -0.143828 
-0.0948566 0.0307978 -0.143142 -0.111854 0.0431682 -0.146127 -0.109229 0.0417475 -0.146571 
-0.126639 0.0641765 -0.143982 -0.102618 -0.048571 -0.141666 -0.0878816 -0.0321696 -0.139915 
-0.117041 -0.0161643 -0.139925 -0.101167 -0.0172268 -0.146658 -0.082667 -0.0113484 -0.14048 
-0.108647 -0.00456033 -0.145223 -0.0891603 -0.00552699 -0.142459 -0.0845646 -0.00474413 -0.141413 
-0.0933543 -0.000198581 -0.143311 -0.0841288 0.00924365 -0.141268 -0.0850841 0.0123723 -0.141398 
-0.0818384 0.0138731 -0.139611 -0.095086 0.017043 -0.144158 -0.085358 0.0182616 -0.140091 
-0.127876 -0.075402 -0.139545 -0.0874136 -0.013107 -0.141341 -0.0744278 -0.0145344 -0.136854 
-0.0722701 -0.0164811 -0.135715 -0.104913 -0.0123805 -0.144145 -0.0786961 -0.00784182 -0.139002 
-0.0736091 -0.00921268 -0.136778 -0.0899524 -0.00491611 -0.137582 -0.0775262 -0.00347428 -0.137919 
-0.0905189 0.0022038 -0.138818 -0.0818936 0.0038773 -0.139403 -0.0839707 0.00750325 -0.138579 
-0.0786331 0.0100315 -0.138902 -0.0751431 0.00817814 -0.136468 -0.0868829 0.0105198 -0.137379 
-0.0729676 0.0115462 -0.136392 -0.0825746 0.0168091 -0.139891 -0.0924379 0.0483379 -0.137724 
-0.124703 -0.0791132 -0.136155 -0.0837778 -0.0454502 -0.133947 -0.0946161 -0.0303984 -0.138084 
-0.0719046 -0.0233679 -0.13473 -0.0723613 -0.0193642 -0.134362 -0.0850263 -0.0135427 -0.136284 
-0.0704231 -0.0116043 -0.133914 -0.0776513 -0.00713039 -0.135841 -0.0712006 -0.00670686 -0.134741 
-0.0709567 -0.000844364 -0.134779 -0.0827552 0.0057928 -0.134405 -0.0675795 0.00340868 -0.134451 
-0.0877944 0.0114697 -0.132063 -0.0699482 0.00828547 -0.135351 -0.0754448 0.0196138 -0.135628 
-0.0798198 0.0271946 -0.136336 -0.0771095 0.030629 -0.135729 -0.089113 -0.0204192 -0.136962 
-0.0798574 -0.0192993 -0.130332 -0.0708207 -0.0156782 -0.130946 -0.0607868 -0.0123104 -0.131235 
-0.0572773 -0.0135327 -0.1297 -0.0661912 -0.0088087 -0.132275 -0.0899919 -0.0036102 -0.133833 
-0.067757 -0.00395753 -0.13213 -0.0927122 0.00295443 -0.136084 -0.0623157 0.0125606 -0.12956 
-0.0725706 0.0153256 -0.13151 -0.0612397 0.0190363 -0.129696 -0.064683 0.0248022 -0.131528 
-0.0895279 -0.074353 -0.125533 -0.0646589 -0.0229461 -0.130134 -0.0493052 -0.0235875 -0.125227 
-0.0479813 -0.0147232 -0.12568 -0.0668895 -0.011728 -0.129439 -0.0562574 -0.00847931 -0.127449 
-0.0490627 -0.00960144 -0.125935 -0.0847577 -0.00638415 -0.13273 -0.0532185 -0.00751021 -0.128252 
-0.0614944 0.000809437 -0.130162 -0.0532215 -0.00357895 -0.127342 -0.0543195 0.0210416 -0.126627 
-0.0591178 0.0351253 -0.127394 -0.0652579 0.0425999 -0.127095 -0.0591701 0.0429992 -0.125612 
-0.0633298 0.0492276 -0.125541 -0.0589284 -0.0408029 -0.124929 -0.0433173 -0.0202332 -0.123089 
-0.0920617 -0.00969244 -0.125107 -0.0452295 -0.0141052 -0.122843 -0.0456994 -0.00814005 -0.123977 
-0.0773196 -0.00120869 -0.12599 -0.0434375 -0.00340659 -0.123069 -0.0726249 -0.000120541 -0.126123 
-0.0490183 0.00431704 -0.124062 -0.0470692 0.00870868 -0.124466 -0.0418674 0.00709984 -0.123465 
[...]
POINT_DATA 549
FIELD FieldData 7
id 1 549 int
22 35 32 16 6 2 11 44 10 
12 1 57 25 30 23 38 14 13 
19 29 20 7 3 21 4 69 47 
28 5 56 73 33 54 40 45 27 
93 8 89 61 36 66 37 100 52 
77 42 59 85 87 133 55 176 15 
94 173 41 71 31 39 17 91 120 
113 58 84 51 80 50 98 78 46 
74 110 53 92 86 125 147 60 76 
101 43 18 67 162 164 65 102 145 
63 24 103 112 130 137 131 111 48 
153 126 88 117 62 95 26 104 196 
75 190 121 108 34 178 179 150 82 
68 160 138 174 171 168 180 177 198 
195 184 127 118 107 163 193 114 122 
97 141 140 79 129 202 148 142 186 
159 106 70 132 166 207 144 156 154 
83 49 158 151 139 123 183 116 115 
143 204 210 169 105 81 134 189 149 
136 250 209 215 241 170 219 119 225 
265 157 181 187 229 146 200 152 197 
205 124 175 252 254 212 64 99 213 
201 172 221 276 161 182 224 211 128 
96 228 208 199 72 109 185 223 236 
280 245 206 261 273 191 230 251 278 
155 305 263 167 272 267 244 233 238 
220 266 226 242 234 264 135 295 214 
203 270 227 235 249 247 314 218 292 
192 194 317 262 253 289 188 288 260 
222 255 284 258 274 259 232 299 240 
352 248 321 256 275 243 307 298 315 
237 283 290 333 294 367 217 282 306 
165 344 239 291 330 318 313 293 302 
310 285 320 340 269 279 90 308 216 
324 336 246 296 347 303 300 309 301 
338 331 257 326 231 322 370 366 327 
351 287 363 355 332 368 345 319 325 
349 391 268 377 271 405 334 281 360 
375 311 362 304 342 376 297 382 323 
380 277 348 356 365 341 399 393 390 
385 369 316 339 359 357 329 373 394 
361 371 388 407 387 312 343 364 404 
384 379 395 398 353 389 403 350 354 
383 386 378 406 409 335 396 346 358 
372 337 381 374 408 328 392 401 286 
9 402 400 397 414 418 416 419 417 
421 422 412 410 415 413 411 420 431 
432 429 430 424 433 427 435 434 425 
426 428 423 439 443 442 445 438 436 
446 447 444 441 440 448 437 454 451 
452 456 458 460 455 459 450 457 453 
449 468 462 466 473 465 472 471 464 
470 469 463 461 467 484 480 485 482 
477 478 474 481 476 479 475 483 486 
496 493 492 497 491 490 495 488 487 
489 498 494 506 507 508 510 503 501 
509 511 504 505 499 502 500 519 517 
512 522 516 513 514 520 521 523 518 
529 515 536 528 527 532 533 535 530 
534 531 526 524 545 540 543 525 538 
549 541 548 547 546 539 542 544 537 

type 1 549 int
1 1 1 1 1 1 1 1 1 
1 1 1 1 1 1 1 1 1 
1 1 1 1 1 1 1 1 1 
1 1 1 1 1 1 1 1 1 
1 1 1 1 1 1 1 1 1 
1 1 1 1 1 1 1 1 1 
1 1 1 1 1 1 1 1 1 
1 1 1 1 1 1 1 1 1 
1 1 1 1 1 1 1 1 1 
1 1 1 1 1 1 1 1 1 
1 1 1 1 1 1 1 1 1 
1 1 1 1 1 1 1 1 1 
1 1 1 1 1 1 1 1 1 
1 1 1 1 1 1 1 1 1 
1 1 1 1 1 1 1 1 1 
1 1 1 1 1 1 1 1 1 
1 1 1 1 1 1 1 1 1 
1 1 1 1 1 1 1 1 1 
1 1 1 1 1 1 1 1 1 
1 1 1 1 1 1 1 1 1 
1 1 1 1 1 1 1 1 1 
1 1 1 1 1 1 1 1 1 
1 1 1 1 1 1 1 1 1 
1 1 1 1 1 1 1 1 1 
1 1 1 1 1 1 1 1 1 
1 1 1 1 1 1 1 1 1 
1 1 1 1 1 1 1 1 1 
1 1 1 1 1 1 1 1 1 
1 1 1 1 1 1 1 1 1 
1 1 1 1 1 1 1 1 1 
1 1 1 1 1 1 1 1 1 
1 1 1 1 1 1 1 1 1 
1 1 1 1 1 1 1 1 1 
1 1 1 1 1 1 1 1 1 
1 1 1 1 1 1 1 1 1 
1 1 1 1 1 1 1 1 1 
1 1 1 1 1 1 1 1 1 
1 1 1 1 1 1 1 1 1 
1 1 1 1 1 1 1 1 1 
1 1 1 1 1 1 1 1 1 
1 1 1 1 1 1 1 1 1 
1 1 1 1 1 1 1 1 1 
1 1 1 1 1 1 1 1 1 
1 1 1 1 1 1 1 1 1 
1 1 1 1 1 1 1 1 1 
1 1 1 1 1 1 1 1 1 
1 1 1 1 1 1 1 1 1 
1 1 1 1 1 1 1 1 1 
1 1 1 1 1 1 1 1 1 
1 1 1 1 1 1 1 1 1 
1 1 1 1 1 1 1 1 1 
1 1 1 1 1 1 1 1 1 
1 1 1 1 1 1 1 1 1 
1 1 1 1 1 1 1 1 1 
1 1 1 1 1 1 1 1 1 
1 1 1 1 1 1 1 1 1 
1 1 1 1 1 1 1 1 1 
1 1 1 1 1 1 1 1 1 
1 1 1 1 1 1 1 1 1 
1 1 1 1 1 1 1 1 1 
1 1 1 1 1 1 1 1 1 

i 3 549 int
0 0 0 0 0 0 0 0 0 
0 0 0 0 0 0 0 0 0 
0 0 0 0 0 0 0 0 0 
0 0 0 0 0 0 0 0 0 
0 0 0 0 0 0 0 0 0 
0 0 0 0 0 0 0 0 0 
0 0 0 0 0 0 0 0 0 
0 0 0 0 0 0 0 0 0 
0 0 0 0 0 0 0 0 0 
0 0 0 0 0 0 0 0 0 
0 0 0 0 0 0 0 0 0 
0 0 0 0 0 0 0 0 0 
0 0 0 0 0 0 0 0 0 
0 0 0 0 0 0 0 0 0 
0 0 0 0 0 0 0 0 0 
0 0 0 0 0 0 0 0 0 
0 0 0 0 0 0 0 0 0 
0 0 0 0 0 0 0 0 0 
0 0 0 0 0 0 0 0 0 
0 0 0 0 0 0 0 0 0 
0 0 0 0 0 0 0 0 0 
0 0 0 0 0 0 0 0 0 
0 0 0 0 0 0 0 0 0 
0 0 0 0 0 0 0 0 0 
0 0 0 0 0 0 0 0 0 
0 0 0 0 0 0 0 0 0 
0 0 0 0 0 0 0 0 0 
0 0 0 0 0 0 0 0 0 
0 0 0 0 0 0 0 0 0 
0 0 0 0 0 0 0 0 0 
0 0 0 0 0 0 0 0 0 
0 0 0 0 0 0 0 0 0 
0 0 0 0 0 0 0 0 0 
0 0 0 0 0 0 0 0 0 
0 0 0 0 0 0 0 0 0 
0 0 0 0 0 0 0 0 0 
0 0 0 0 0 0 0 0 0 
0 0 0 0 0 0 0 0 0 
0 0 0 0 0 0 0 0 0 
0 0 0 0 0 0 0 0 0 
0 0 0 0 0 0 0 0 0 
0 0 0 0 0 0 0 0 0 
0 0 0 0 0 0 0 0 0 
0 0 0 0 0 0 0 0 0 
0 0 0 0 0 0 0 0 0 
0 0 0 0 0 0 0 0 0 
0 0 0 0 0 0 0 0 0 
0 0 0 0 0 0 0 0 0 
0 0 0 0 0 0 0 0 0 
0 0 0 0 0 0 0 0 0 
0 0 0 0 0 0 0 0 0 
0 0 0 0 0 0 0 0 0 
0 0 0 0 0 0 0 0 0 
0 0 0 0 0 0 0 0 0 
0 0 0 0 0 0 0 0 0 
0 0 0 0 0 0 0 0 0 
0 0 0 0 0 0 0 0 0 
0 0 0 0 0 0 0 0 0 
0 0 0 0 0 0 0 0 0 
0 0 0 0 0 0 0 0 0 
0 0 0 0 0 0 0 0 0 
0 0 0 0 0 0 0 0 0 
0 0 0 0 0 0 0 0 0 
0 0 0 0 0 0 0 0 0 
0 0 0 0 0 0 0 0 0 
0 0 0 0 0 0 0 0 0 
0 0 0 0 0 0 0 0 0 
0 0 0 0 0 0 0 0 0 
0 0 0 0 0 0 0 0 0 
0 0 0 0 0 0 0 0 0 
0 0 0 0 0 0 0 0 0 
0 0 0 0 0 0 0 0 0 
0 0 0 0 0 0 0 0 0 
0 0 0 0 0 0 0 0 0 
0 0 0 0 0 0 0 0 0 
0 0 0 0 0 0 0 0 0 
0 0 0 0 0 0 0 0 0 
0 0 0 0 0 0 0 0 0 
0 0 0 0 0 0 0 0 0 
0 0 0 0 0 0 0 0 0 
0 0 0 0 0 0 0 0 0 
0 0 0 0 0 0 0 0 0 
0 0 0 0 0 0 0 0 0 
0 0 0 0 0 0 0 0 0 
0 0 0 0 0 0 0 0 0 
0 0 0 0 0 0 0 0 0 
0 0 0 0 0 0 0 0 0 
0 0 0 0 0 0 0 0 0 
0 0 0 0 0 0 0 0 0 
0 0 0 0 0 0 0 0 0 
0 0 0 0 0 0 0 0 0 
0 0 0 0 0 0 0 0 0 
0 0 0 0 0 0 0 0 0 
0 0 0 0 0 0 0 0 0 
0 0 0 0 0 0 0 0 0 
0 0 0 0 0 0 0 0 0 
0 0 0 0 0 0 0 0 0 
0 0 0 0 0 0 0 0 0 
0 0 0 0 0 0 0 0 0 
0 0 0 0 0 0 0 0 0 
0 0 0 0 0 0 0 0 0 
0 0 0 0 0 0 0 0 0 
0 0 0 0 0 0 0 0 0 
0 0 0 0 0 0 0 0 0 
0 0 0 0 0 0 0 0 0 
0 0 0 0 0 0 0 0 0 
0 0 0 0 0 0 0 0 0 
0 0 0 0 0 0 0 0 0 
0 0 0 0 0 0 0 0 0 
0 0 0 0 0 0 0 0 0 
0 0 0 0 0 0 0 0 0 
0 0 0 0 0 0 0 0 0 
0 0 0 0 0 0 0 0 0 
0 0 0 0 0 0 0 0 0 
0 0 0 0 0 0 0 0 0 
0 0 0 0 0 0 0 0 0 
0 0 0 0 0 0 0 0 0 
0 0 0 0 0 0 0 0 0 
0 0 0 0 0 0 0 0 0 
0 0 0 0 0 0 0 0 0 
0 0 0 0 0 0 0 0 0 
0 0 0 0 0 0 0 0 0 
0 0 0 0 0 0 0 0 0 
0 0 0 0 0 0 0 0 0 
0 0 0 0 0 0 0 0 0 
0 0 0 0 0 0 0 0 0 
0 0 0 0 0 0 0 0 0 
0 0 0 0 0 0 0 0 0 
0 0 0 0 0 0 0 0 0 
0 0 0 0 0 0 0 0 0 
0 0 0 0 0 0 0 0 0 
0 0 0 0 0 0 0 0 0 
0 0 0 0 0 0 0 0 0 
0 0 0 0 0 0 0 0 0 
0 0 0 0 0 0 0 0 0 
0 0 0 0 0 0 0 0 0 
0 0 0 0 0 0 0 0 0 
0 0 0 0 0 0 0 0 0 
0 0 0 0 0 0 0 0 0 
0 0 0 0 0 0 0 0 0 
0 0 0 0 0 0 0 0 0 
0 0 0 0 0 0 0 0 0 
0 0 0 0 0 0 0 0 0 
0 0 0 0 0 0 0 0 0 
0 0 0 0 0 0 0 0 0 
0 0 0 0 0 0 0 0 0 
0 0 0 0 0 0 0 0 0 
0 0 0 0 0 0 0 0 0 
0 0 0 0 0 0 0 0 0 
0 0 0 0 0 0 0 0 0 
0 0 0 0 0 0 0 0 0 
0 0 0 0 0 0 0 0 0 
0 0 0 0 0 0 0 0 0 
0 0 0 0 0 0 0 0 0 
0 0 0 0 0 0 0 0 0 
0 0 0 0 0 0 0 0 0 
0 0 0 0 0 0 0 0 0 
0 0 0 0 0 0 0 0 0 
0 0 0 0 0 0 0 0 0 
0 0 0 0 0 0 0 0 0 
0 0 0 0 0 0 0 0 0 
0 0 0 0 0 0 0 0 0 
0 0 0 0 0 0 0 0 0 
0 0 0 0 0 0 0 0 0 
0 0 0 0 0 0 0 0 0 
0 0 0 0 0 0 0 0 0 
0 0 0 0 0 0 0 0 0 
0 0 0 0 0 0 0 0 0 
0 0 0 0 0 0 0 0 0 
0 0 0 0 0 0 0 0 0 
0 0 0 0 0 0 0 0 0 
0 0 0 0 0 0 0 0 0 
0 0 0 0 0 0 0 0 0 
0 0 0 0 0 0 0 0 0 
0 0 0 0 0 0 0 0 0 
0 0 0 0 0 0 0 0 0 
0 0 0 0 0 0 0 0 0 
0 0 0 0 0 0 0 0 0 
0 0 0 0 0 0 0 0 0 
0 0 0 0 0 0 0 0 0 
0 0 0 0 0 0 0 0 0 
0 0 0 0 0 0 0 0 0 
0 0 0 0 0 0 0 0 0 

v 3 549 double
-1.40023 -0.251904 -1.3765 -1.34345 0.15557 -1.00347 -1.49282 0.013101 -1.02202 
-1.41114 0.00647445 -0.851824 -1.3674 -0.00979849 -0.619615 -1.33944 0.00427264 -0.563745 
-1.30732 0.0059471 -0.536751 -1.36559 -0.173113 -0.547997 -1.29594 0.0210826 -0.585438 
-1.37111 0.0250101 -0.540954 -1.26858 -0.00662183 -0.535499 -1.37025 -0.145843 -0.587442 
-1.26439 -0.00522026 -0.528235 -1.24183 0.0701575 -0.518905 -1.18517 -0.0507289 -0.503747 
-1.25217 -0.0231176 -0.520231 -1.08554 -0.0364064 -0.43 -1.25092 0.187868 -0.58506 
-1.04869 -0.0290818 -0.438118 -1.25298 -0.0130665 -0.512794 -1.23863 -0.175653 -0.598404 
-0.913188 0.0390706 -0.385492 -1.16488 0.167759 -0.467044 -1.30144 -0.0413385 -0.530832 
-1.04934 0.066445 -0.443058 -1.05376 0.0432576 -0.444178 -1.14323 -0.00410421 -0.484108 
-1.16001 -0.0210151 -0.442601 -1.15668 0.0756065 -0.495513 -1.04232 -0.00192391 -0.467211 
-1.01325 -0.0293577 -0.432147 -1.19115 0.0644796 -0.456817 -1.1344 0.194894 -0.521398 
-1.1651 0.0184854 -0.487432 -1.12787 0.165523 -0.472753 -1.09232 0.0918595 -0.451362 
-1.14874 0.0384643 -0.436712 -0.96665 0.00222864 -0.401317 -1.005 0.0510637 -0.423362 
-1.00931 0.0773713 -0.426819 -0.984456 0.0465127 -0.408682 -1.121 -0.0851342 -0.472855 
-1.05816 0.0780449 -0.45886 -1.02146 0.0408596 -0.44091 -0.988453 0.0215339 -0.414454 
-0.855436 -0.00639157 -0.366519 -0.97549 0.0550239 -0.40149 -0.959313 0.0705654 -0.409433 
-0.981571 0.00378734 -0.402592 -1.00238 0.0333557 -0.428431 -0.950567 -0.0481144 -0.386165 
-0.86179 -0.083149 -0.360671 -0.792328 0.0229828 -0.339393 -0.830011 -0.0159466 -0.356571 
-1.07617 -0.0230035 -0.449647 -1.23823 0.00890405 -0.512297 -0.925207 -0.045052 -0.376045 
-0.759622 -0.051526 -0.316251 -0.843559 0.0386818 -0.357291 -0.892629 0.0871637 -0.370009 
-0.841181 0.0435834 -0.341607 -1.05237 -0.0378657 -0.633364 -1.29372 0.161272 -0.811714 
-0.879362 -0.124723 -0.328634 -0.785329 -0.0357307 -0.33707 -1.0133 -0.158628 -0.446899 
-1.05489 0.35516 -0.7379 -0.762789 -0.14222 -0.309618 -0.7744 -0.0679218 -0.354855 
-0.774053 -0.0123856 -0.265642 -0.857408 -0.022749 -0.352776 -0.801727 -0.0238894 -0.340665 
-0.790398 -0.0452165 -0.321657 -0.856275 0.0101894 -0.36735 -0.745992 -0.0764507 -0.32065 
-0.735171 -0.0705977 -0.315064 -0.675976 0.0191968 -0.380782 -0.867308 -0.0131155 -0.357296 
-1.07585 -0.0267735 -0.439086 -1.04344 -0.259797 -0.53385 -0.858666 0.0672083 -0.364756 
-0.83687 -0.240432 -0.301452 -0.95381 -0.0198696 -0.350051 -0.825309 -0.0106904 -0.339487 
-0.857091 0.0459845 -0.368265 -0.819396 0.0866385 -0.341356 -0.809766 0.0256228 -0.339465 
-0.835208 -0.0403429 -0.39693 -0.708577 0.0156966 -0.301625 -0.937091 0.13397 -0.367017 
-0.993721 0.0696692 -0.420147 -0.908874 -0.0894015 -0.381669 -0.780373 -0.120739 -0.311068 
-0.816879 0.00941275 -0.338694 -0.857425 -0.0121807 -0.351115 -0.674251 -0.0235207 -0.281511 
-1.07319 0.0132455 -0.280585 -0.839891 0.0799978 -0.353072 -0.818476 0.0461338 -0.343976 
-1.04424 -0.0388067 -0.440942 -1.02183 -0.122974 -0.416783 -0.882462 -0.0726135 -0.388004 
-1.00609 -0.155749 -0.466665 -0.860341 -0.0107925 -0.353786 -0.875626 0.0180205 -0.353764 
-0.854145 0.0110588 -0.36919 -0.702663 0.0296284 -0.280926 -0.80852 0.0883681 -0.335756 
-0.781449 0.112438 -0.327568 -0.868858 0.00668306 -0.420194 -0.711317 0.0533543 -0.280951 
-0.895693 0.0707718 -0.375566 -0.807086 -0.12443 -0.357572 -0.721789 -0.21533 -0.165168 
-0.713591 -0.0677879 -0.289242 -0.737554 -0.0756036 -0.300221 -0.715358 -0.00590716 -0.294415 
-0.707186 0.0100723 -0.289733 -0.591343 -0.0201583 -0.244194 -0.698001 0.157965 -0.262436 
-0.828111 -0.10072 -0.274305 -0.728997 -0.0291913 -0.306077 -0.874064 -0.111277 -0.355725 
-0.728673 -0.0306181 -0.357049 -0.795166 0.0320495 -0.342682 -0.56227 -0.00713625 -0.240166 
-0.669147 -0.0102396 -0.275199 -0.601598 0.0408116 -0.24705 -0.724979 0.0147525 -0.320585 
-0.699997 0.119536 -0.29101 -0.693115 0.0838048 -0.316892 -0.821216 0.0597919 -0.259931 
-0.725284 -0.107146 -0.3197 -0.717765 -0.058527 -0.306273 -0.77267 -0.0614041 -0.330704 
-0.935704 0.166359 -0.412617 -0.828938 -0.0453838 -0.343858 -0.827069 0.0258935 -0.355535 
-0.839632 0.0247568 -0.361337 -0.827606 0.0549638 -0.346409 -0.827838 0.0747508 -0.347577 
-0.914911 -0.023571 -0.365606 -0.751608 0.0320173 -0.313695 -0.882575 -0.024298 -0.498481 
-0.839717 -0.0712423 -0.351169 -0.802126 -0.0436568 -0.333184 -0.684325 0.0301333 -0.296109 
-0.775042 0.0644751 -0.326859 -0.811445 0.0602703 -0.351736 -1.15432 -0.226845 -0.687657 
-0.698293 0.063068 -0.305276 -0.676427 0.0354219 -0.291571 -0.873225 -0.0609351 -0.363012 
-0.742765 -0.0673888 -0.330006 -0.776086 -0.0721269 -0.349876 -0.791617 0.0179521 -0.346485 
-0.746622 0.0133035 -0.318103 -1.12069 -0.0695261 -0.44905 -0.723557 -0.0408413 -0.306625 
-0.711225 -0.0284481 -0.30354 -0.700199 -0.0154369 -0.298505 -0.601697 0.0799666 -0.266268 
-0.616482 0.106451 -0.254856 -0.924133 -0.0815789 -0.373761 -0.750649 0.00695739 -0.32539 
-0.644986 0.0255636 -0.277263 -0.642693 0.0499348 -0.276234 -0.825951 -0.0397175 -0.342014 
-0.757153 0.0198034 -0.32171 -0.80726 0.0102471 -0.341483 -0.716621 -0.0787992 -0.295226 
-0.712367 -0.00338158 -0.29865 -0.61835 -0.129665 -0.280578 -0.471946 0.108757 -0.166259 
-0.918871 -0.0981704 -0.396991 -0.947548 0.0319495 -0.37632 -0.62986 0.0493252 -0.248633 
-0.848855 0.0716805 -0.48707 -0.688373 -0.0162593 -0.271736 -0.753854 -0.130372 -0.296686 
-0.857352 -0.0185679 -0.363958 -0.717503 -0.0466223 -0.288764 -0.670739 0.0214003 -0.442121 
-0.87589 -0.160951 -0.468144 -0.602191 -0.148315 -0.265303 -0.558887 -0.0438291 -0.235246 
-0.605351 -0.0730779 -0.203805 -0.600963 -0.0956597 -0.235876 -0.53747 -0.0403688 -0.240743 
-0.553583 -0.035064 -0.232713 -0.667029 -0.0383084 -0.282071 -0.626293 -0.00789054 -0.262972 
-0.718219 -0.0390031 -0.306471 -0.637563 0.0165291 -0.283688 -0.737995 -0.0256573 -0.313878 
-0.663264 -0.0135966 -0.277032 -0.637541 -0.0334343 -0.271096 -0.756955 0.0688036 -0.439055 
-0.622229 -0.172402 -0.231533 -0.504616 -0.0446602 -0.240728 -0.913136 0.0515553 -0.38658 
-0.532315 -0.177965 -0.219094 -0.498827 0.0162177 -0.280148 -0.600579 -0.0201107 -0.330339 
-0.591319 -0.0281063 -0.248207 -0.833637 -0.113133 -0.905768 -0.659756 -0.00456563 -0.280373 
-0.668929 0.0212173 -0.278316 -0.680033 0.0213098 -0.281273 -0.726587 0.0710741 -0.283096 
-0.793117 -0.0411451 -0.337027 -0.699971 0.0747724 -0.261768 -0.695671 0.115157 -0.324098 
-0.665529 -0.223654 -0.194117 -0.359939 0.0391657 -0.155023 -0.654613 0.058064 -0.28215 
-0.632144 0.0453234 -0.252137 -0.614789 0.0482888 -0.256354 -0.656951 -0.0238202 -0.286721 
-0.662952 0.0355558 -0.280753 -0.492718 0.146481 -0.0920348 -0.579737 -0.00151527 -0.254565 
-0.383438 0.114039 -0.180805 -0.845519 0.346843 -0.276906 -0.997567 -0.0330099 -0.416869 
-0.427383 0.194742 -0.101522 -0.81212 -0.317867 -0.242915 -0.67452 -0.101189 -0.262702 
-0.91411 0.136395 -0.285489 -0.866124 -0.046102 -0.283298 -0.56906 -0.070897 -0.234603 
-1.01401 -0.0998415 -0.520031 -0.586207 0.0122516 -0.249441 -0.526604 0.0176339 -0.299924 
-0.547727 0.0626311 -0.362228 -0.555065 -0.0654654 -0.238137 -0.453792 0.0150703 -0.191379 
-0.407939 0.0233458 -0.177931 -0.888047 0.186308 -0.57285 -0.576895 0.164087 -0.274798 
-0.59807 0.14647 -0.308275 -0.698291 0.0978178 -0.236868 -0.423608 0.0531936 -0.183717 
-0.458229 -0.015803 -0.191328 -0.789343 0.071352 -0.812666 -0.611472 0.0380063 -0.256768 
-0.526825 -0.031284 -0.22208 -0.747003 0.0786806 -0.216931 -0.562106 -0.0158409 -0.158877 
-0.804092 -0.0475418 -0.538778 -0.582826 0.0033362 -0.247543 -0.667838 -0.0313396 -0.486054 
-0.446881 -0.0380423 -0.187466 -0.409347 -0.03633 -0.177254 -0.984903 -0.153922 -0.197131 
-0.462767 0.0027936 -0.196172 -0.59711 -0.117022 -0.234226 -0.760396 0.199623 -0.240191 
-0.807287 -0.0584903 -0.268718 -0.621327 -0.281582 -0.0871303 -0.554324 -0.140741 -0.710196 
-0.518034 0.00449036 -0.217249 -0.479877 0.0208712 -0.186306 -0.774034 -0.0035918 -0.582189 
-0.62861 0.00969885 -0.214485 -0.639597 -0.247342 -0.17432 -0.58705 0.0298053 -0.230565 
-0.493425 0.0919503 -0.187369 -0.618616 -0.0249555 -0.351072 -0.526167 -0.083046 -0.225336 
-1.53925 0.230518 -0.206824 -0.505825 -0.0185911 -0.215274 -0.70675 -0.114316 -0.31019 
-0.621572 -0.0243007 -0.290094 -0.621474 -0.0870455 -0.276731 -0.491712 0.0507382 -0.825914 
-0.966949 0.100851 -0.159073 -0.667907 0.0945877 -0.363918 -0.412515 0.150499 -0.180386 
-0.35385 -0.0104337 -0.148661 -0.509389 -0.0415509 -0.245608 -0.703363 0.289387 -0.713878 
-0.56652 0.00679376 -0.122283 -0.724525 -0.263273 -0.731801 -0.731614 0.344903 -0.301519 
-0.438263 0.190058 -0.223038 -0.569436 0.146942 -0.218036 -0.598483 0.276148 -0.199999 
-0.662244 -0.177068 -0.156242 -0.519565 -0.226363 -0.454842 -0.411528 -0.259055 -0.144118 
-0.485032 -0.0224796 -0.202126 -0.663932 -0.099931 -0.227557 -0.590622 -0.0847745 -0.390878 
-0.525987 -0.0710717 -0.263939 -0.720823 -0.0619239 -0.755118 -0.428789 -0.0938641 -0.17605 
-0.663595 0.130633 -0.674931 -0.554639 -0.0613345 -0.23114 -0.519168 0.105843 -0.200209 
-0.303084 -0.023997 -0.143617 -0.418369 0.103102 -0.141665 -0.52777 0.179836 -0.169296 
-0.491593 -0.0487097 -0.207801 -0.700965 -0.0847546 -0.263558 -0.313016 -0.126112 -0.116888 
-0.982111 0.254885 -0.372804 -0.465671 -0.0151974 -0.246161 -0.515297 0.052934 -0.214174 
-0.790574 0.224355 -0.641029 -0.732876 0.240955 -0.34548 -0.585899 0.133327 -0.493913 
-0.667015 0.301205 -0.300426 -0.309883 -0.0448623 -0.127862 -0.224857 -0.040909 -0.112389 
-0.281673 -0.0221947 -0.0986444 -0.498703 -0.137587 -0.445832 -0.366809 -0.0738077 -0.160525 
-0.455952 -0.0234854 -0.198473 -0.444398 -0.0115886 -0.1704 -0.756816 -0.0326687 -0.493788 
-0.627582 0.207483 -0.302007 -0.590654 -0.461639 -0.292165 -0.711443 -0.448626 -0.284368 
-0.767803 0.223704 -0.45422 -0.624912 0.0200291 -0.479828 -1.07962 0.301509 -0.338865 
-0.631704 -0.104627 -0.257374 -0.732181 -0.110349 -0.286335 -0.719559 0.338379 -0.400418 
-0.376852 0.158719 -0.217988 -0.424783 -0.0239551 -0.180848 -0.32155 -0.165923 -0.148101 
-0.578304 -0.0810143 0.0328733 -0.120985 -0.323627 0.213833 -0.324684 -0.0287497 -0.138809 
-0.882693 -0.376877 -0.592676 -0.632994 -0.131974 -0.681147 -0.754938 0.181228 0.202649 
-0.328911 0.0713688 -0.141164 -0.430625 -0.0692044 -0.648766 -0.305605 0.0308051 -0.0376398 
-0.424455 -0.131765 -0.0962154 -0.56583 0.412482 -0.261168 -0.620611 0.0787997 -0.29188 
-0.724976 0.0739709 -0.542383 -0.396931 0.112995 -0.243497 0.0811504 0.546293 0.153109 
-0.71919 -0.0267173 -0.589872 -0.72932 -0.109918 0.0445918 -0.609383 -0.0186843 -0.207203 
-0.274877 -0.205727 0.100318 -0.660839 -0.238081 -0.536343 -0.7964 0.0822232 -0.621534 
-0.474512 -0.210285 -0.214002 -0.489094 -0.154994 -0.466012 -0.743416 -0.192541 -0.367985 
-0.74361 0.235968 0.135822 -0.234047 0.0624611 -0.0498602 -0.336841 0.804141 -0.50219 
-0.266507 0.346879 -0.491777 -0.33453 0.275516 -0.0121441 -0.694607 0.15001 -0.39587 
-0.749141 -0.0168511 -0.275851 -0.209922 0.0592972 -0.146333 -0.291313 -0.287433 -0.162245 
-0.71497 -0.327265 -0.494691 -0.45476 0.115506 -0.155766 -0.700306 -0.412518 -0.433161 
-0.322825 -0.0777761 -0.0800397 -0.496179 0.0404225 0.00803091 -0.608873 -0.158156 -0.136799 
-0.863295 0.0752397 0.0556215 -0.72891 0.232872 -0.443635 -0.282901 0.0797938 -0.027043 
-0.71541 0.262642 -0.370232 -0.283751 0.100584 -0.0619276 -0.438595 -0.0272761 0.244993 
-0.634194 0.175359 0.0804495 -0.123638 0.606243 0.0345855 -0.67227 0.279017 0.165165 
-0.71918 -0.026717 0.200119 -0.714328 -0.146745 -0.170788 -0.494523 -0.236489 -0.209824 
-0.710563 -0.145971 0.168474 -0.49361 -0.170753 -0.110712 -0.696059 -0.326682 -0.231812 
-0.273528 0.0386085 -0.915597 -0.724075 0.261555 -0.238635 -0.603197 0.0385027 -0.470811 
-0.232138 0.126925 -0.337711 -0.720017 0.322425 0.230775 -0.556295 0.0748484 -0.112836 
-0.716897 0.263188 0.0291242 -0.676879 0.0931092 -0.494244 -0.646793 0.0219488 -0.194806 
-0.67151 0.155559 0.0251487 -0.72161 -0.0268072 -0.304402 -0.719591 -0.0267322 0.0376507 
-0.514071 -0.71361 -0.0544728 -0.710299 -0.504476 0.039316 -0.629687 -0.0352989 -0.406041 
0.116691 -0.0803963 -0.591569 -0.677027 0.236831 0.126141 -0.448739 -0.179456 -0.475048 
-0.550896 0.113296 -0.28812 -0.291229 -0.0812362 0.104236 -0.26448 -0.157953 -0.613814 
-0.69755 -0.267837 0.20577 -0.724859 0.298452 0.238844 -0.80973 0.333933 -1.36842 
-0.696308 0.254733 0.235804 0.0591851 0.693603 -0.960157 0 0 -2.03834 
-0.695935 0.254596 0.253025 0 0 -2.01813 -0.00377321 -0.000787623 -1.82238 
0 0 -2.01617 0 0 -2.00381 0 0 -1.99459 
0 0 -1.97055 0 0 -1.97506 0 0 -1.95564 
0 0 -1.95819 0 0 -1.94357 0 0 -1.93622 
0 0 -1.93573 0 0 -1.93367 0 0 -1.92131 
0 0 -1.91915 0 0 -1.9012 0 0 -1.89384 
0 0 -1.87677 0 0 -1.88491 0 0 -1.87 
0 0 -1.83714 0 0 -1.85401 0 0 -1.84812 
0 0 -1.83527 0 0 -1.82115 0 0 -1.82075 
0 0 -1.81801 0 0 -1.83635 0 0 -1.80761 
0 0 -1.80202 0 0 -1.808 0 0 -1.79623 
0 0 -1.77337 0 0 -1.76258 0 0 -1.74973 
0 0 -1.73835 0 0 -1.72883 0 0 -1.72334 
0 0 -1.73158 0 0 -1.69381 0 0 -1.70323 
0 0 -1.71382 0 0 -1.70539 0 0 -1.69116 
0 0 -1.6789 0 0 -1.65075 0 0 -1.65045 