# vtk DataFile Version 4.0
Generated by LIGGGHTS
ASCII
DATASET POLYDATA
POINTS 460 float
-0.28405 -0.0315714 -0.221254 -0.282825 0.0425694 -0.216667 -0.258232 -0.00370445 -0.213813 
-0.333661 0.0679866 -0.214322 -0.233916 -0.00743339 -0.20435 -0.229335 -0.00433461 -0.202689 
-0.235152 0.00254454 -0.205106 -0.226163 -0.0155541 -0.200414 -0.230599 -0.0109398 -0.201619 
-0.227094 0.0094536 -0.201514 -0.219411 0.00969377 -0.197152 -0.221791 -0.0316594 -0.19347 
-0.206582 -0.00738847 -0.192953 -0.209268 -0.00605682 -0.194207 -0.207558 -0.0010419 -0.19239 
-0.206777 0.00995785 -0.192839 -0.210519 0.0141926 -0.193972 -0.20667 0.0149941 -0.192249 
-0.201533 0.013906 -0.190179 -0.201081 0.0177311 -0.188516 -0.246359 0.063982 -0.191112 
-0.207871 -0.0414845 -0.186977 -0.195469 -0.0093033 -0.187063 -0.191896 -0.00600201 -0.185735 
-0.18789 0.00194924 -0.185209 -0.198044 0.0338857 -0.185261 -0.186321 -0.0255099 -0.181151 
-0.185711 0.0100513 -0.183879 -0.19581 -0.0488133 -0.179489 -0.179575 -0.0161416 -0.17967 
-0.174291 -0.0155614 -0.177605 -0.172993 -0.010628 -0.177527 -0.172282 -0.00658813 -0.178517 
-0.170416 -0.00334512 -0.177794 -0.176143 0.00112166 -0.180247 -0.16891 0.00195388 -0.177248 
-0.17128 -0.0279 -0.174382 -0.167303 -0.0226435 -0.174687 -0.168562 -0.00703747 -0.176979 
-0.165307 -0.00489274 -0.174596 -0.161548 -0.00102936 -0.173999 -0.179407 0.0019905 -0.175107 
-0.16571 0.00191984 -0.174807 -0.16849 0.0149578 -0.175129 -0.165299 -0.0250093 -0.171953 
-0.160264 -0.0201217 -0.172243 -0.162554 -0.017544 -0.173553 -0.157627 -0.0164416 -0.171487 
-0.155121 -0.0174382 -0.170056 -0.160122 -0.00329083 -0.172434 -0.156419 -0.000629189 -0.171576 
-0.163577 0.00828363 -0.172947 -0.158992 0.0127243 -0.171389 -0.149417 -0.00801248 -0.16773 
-0.144979 -0.000434742 -0.167133 -0.154179 0.00227129 -0.16988 -0.148956 0.00248781 -0.167692 
-0.145585 0.00714947 -0.16709 -0.145907 0.0145226 -0.166807 -0.1407 -0.0111749 -0.16499 
-0.13771 -0.0115906 -0.163673 -0.144851 -0.00852707 -0.165737 -0.147472 -0.00426978 -0.164299 
-0.140706 -0.00639771 -0.165259 -0.143765 0.00385356 -0.164616 -0.156687 0.0129151 -0.166975 
-0.145525 0.0109748 -0.165072 -0.149475 0.0193947 -0.166348 -0.134132 -0.0257745 -0.159918 
-0.131362 -0.0145224 -0.160777 -0.143187 -0.0141683 -0.161344 -0.13335 -0.00799967 -0.162111 
-0.129836 -0.0103858 -0.160449 -0.137724 -0.00495301 -0.16286 -0.13088 -0.00566221 -0.160044 
-0.13402 -0.00236448 -0.162519 -0.135163 0.000400544 -0.163076 -0.148284 0.00428675 -0.163063 
-0.145046 0.0123186 -0.160906 -0.131223 0.0127687 -0.159748 -0.136095 0.0293416 -0.160556 
-0.127946 -0.0341842 -0.156165 -0.133628 -0.0125945 -0.159456 -0.123018 -0.0143186 -0.15618 
-0.127123 -0.0098072 -0.159241 -0.121101 -0.00140652 -0.157084 -0.134672 0.00222005 -0.158204 
-0.119554 0.00165106 -0.156434 -0.120709 0.00538569 -0.156842 -0.130866 0.0400479 -0.155977 
-0.192102 0.0802405 -0.158793 -0.130083 -0.0430959 -0.154645 -0.131941 -0.0348175 -0.156135 
-0.119157 -0.0267815 -0.154051 -0.117066 -0.0204212 -0.152949 -0.118514 -0.0173967 -0.155098 
-0.118197 0.00643894 -0.15509 -0.112207 0.00760168 -0.152844 -0.113851 0.0102613 -0.153662 
-0.117418 0.0248517 -0.153536 -0.121095 0.0357628 -0.15292 -0.238088 -0.0937894 -0.15081 
-0.112849 -0.0325963 -0.150228 -0.11775 -0.0150842 -0.151215 -0.110117 -0.015359 -0.151775 
-0.117 -0.00437736 -0.152001 -0.109347 -0.00439814 -0.150964 -0.115308 -0.000459214 -0.149915 
-0.109178 -0.00121518 -0.152043 -0.129222 0.0014 -0.151042 -0.111113 0.002915 -0.151772 
-0.123 0.00594547 -0.150701 -0.107937 0.00713391 -0.150327 -0.109395 0.0106105 -0.151759 
-0.103043 0.0094162 -0.149191 -0.110477 0.0289655 -0.150008 -0.143568 0.0442313 -0.152104 
-0.140984 0.0588808 -0.152166 -0.108942 -0.0367053 -0.147743 -0.118952 -0.00914613 -0.146869 
-0.100616 -0.0089646 -0.146727 -0.102779 -0.00458565 -0.148146 -0.0994985 -0.00476917 -0.145759 
-0.113298 -0.00291044 -0.146701 -0.106453 0.00231975 -0.148237 -0.10102 0.00106488 -0.147512 
-0.102067 0.0216673 -0.147594 -0.105059 0.0278124 -0.147907 -0.104151 0.0334826 -0.146453 
-0.0976141 -0.0315352 -0.144108 -0.0930769 -0.0225041 -0.143701 -0.0980918 -0.0206841 -0.144969 
-0.105932 -0.014548 -0.146955 -0.0930569 -0.0169457 -0.14333 -0.0899711 -0.0121705 -0.142431 
-0.108259 -0.003519 -0.146436 -0.107974 -0.00217723 -0.143339 -0.092227 0.00397693 -0.143812 
-0.0994246 0.0236578 -0.14509 -0.0895268 0.0242961 -0.141956 -0.0989475 0.0307388 -0.144887 
-0.0957441 0.0303137 -0.143602 -0.10907 -0.0617285 -0.139317 -0.0878956 -0.018963 -0.140902 
-0.0865088 -0.0147035 -0.141723 -0.0820894 -0.0132172 -0.140139 -0.0859429 -0.00832574 -0.140915 
-0.0821769 -0.00952564 -0.140384 -0.0839764 -0.00376669 -0.140333 -0.0902399 9.22169e-05 -0.141468 
-0.0806886 -0.00113409 -0.139523 -0.0896015 0.00834379 -0.142633 -0.0811478 0.00753654 -0.140114 
-0.0834054 0.0111245 -0.139714 -0.0865063 0.0160318 -0.141696 -0.0865899 0.021364 -0.140111 
-0.0861587 0.027034 -0.138935 -0.0953112 0.0401807 -0.13942 -0.10573 0.0553384 -0.139651 
-0.132687 0.0766032 -0.140841 -0.0793893 -0.0110396 -0.137979 -0.0751359 -0.00970774 -0.137402 
-0.107703 -0.00592745 -0.139623 -0.0788201 -0.00604098 -0.138036 -0.0737274 -0.00657161 -0.136824 
-0.083177 -0.00323444 -0.135737 -0.102965 0.00224523 -0.137015 -0.0679696 0.00188236 -0.13465 
-0.0769785 0.00542955 -0.137292 -0.0694657 0.0104865 -0.135022 -0.0742551 0.0307308 -0.134507 
-0.0804946 0.0325469 -0.13683 -0.0714927 -0.0238358 -0.134501 -0.0704663 -0.017474 -0.134836 
-0.0672883 -0.0183864 -0.133388 -0.0657455 -0.0138082 -0.133248 -0.0709571 -0.0114338 -0.134464 
-0.0634439 0.00193041 -0.132732 -0.0999419 0.00495176 -0.135233 -0.0670835 0.00487692 -0.134209 
-0.064158 0.00636082 -0.131847 -0.0774716 0.0104032 -0.134889 -0.0659209 0.0147415 -0.13309 
-0.0639203 0.0164805 -0.13137 -0.0643129 0.0194542 -0.132015 -0.101746 0.0289092 -0.134125 
-0.0710067 0.0371882 -0.131894 -0.0591956 -0.0320669 -0.127979 -0.0593155 -0.00971107 -0.130307 
-0.0530566 -0.00083205 -0.128432 -0.0544213 0.00691152 -0.127661 -0.0541201 0.0108667 -0.128468 
-0.086828 0.0113411 -0.132138 -0.0711129 0.0119921 -0.13135 -0.0608596 0.0100988 -0.131213 
-0.05622 0.0149638 -0.129038 -0.0757807 0.0236687 -0.131725 -0.0705964 -0.0593306 -0.124973 
-0.0600816 -0.0215971 -0.127636 -0.0537352 -0.0207446 -0.126787 -0.0622124 -0.0116756 -0.126428 
-0.0510206 -0.0130216 -0.12707 -0.0571104 -0.00952228 -0.12468 -0.0471013 -0.00865999 -0.125132 
-0.0452241 0.00304337 -0.123867 -0.0513685 0.00983798 -0.125982 -0.046277 0.00949072 -0.12519 
-0.0732119 0.0135146 -0.126634 -0.0589966 0.0108005 -0.127186 -0.0459485 0.0125215 -0.124934 
-0.0532906 0.0166114 -0.126655 -0.0453593 0.0175281 -0.124204 -0.0546148 0.0312866 -0.12632 
-0.087739 -0.0784667 -0.122531 -0.0689195 -0.0663961 -0.121406 -0.0396017 -0.021592 -0.12089 
-0.0435459 -0.0213673 -0.123057 -0.0431847 -0.0116278 -0.123547 -0.0401262 -0.0119999 -0.122464 
-0.0359876 -0.0120225 -0.120832 -0.0731899 -0.00795674 -0.122178 -0.0415725 -0.00744664 -0.123037 
-0.0477585 -0.00472031 -0.121983 -0.0374356 -0.00297198 -0.121636 -0.0740631 0.0016014 -0.125816 
-0.0404164 0.00668437 -0.121819 -0.0438583 0.0152462 -0.122739 -0.0738555 0.0366597 -0.122312 
-0.0930773 0.0406501 -0.123517 -0.0469951 -0.0528038 -0.117709 -0.0593566 -0.0245995 -0.118429 
-0.0381772 -0.0250852 -0.11767 -0.0485645 -0.0181886 -0.118296 -0.0364607 -0.0157568 -0.120666 
-0.0624336 -0.0122236 -0.118484 -0.0325311 -0.0138775 -0.119164 -0.0712431 -0.0076515 -0.117125 
-0.0389518 -0.0060843 -0.120772 -0.0312784 -0.00712 -0.117139 -0.0431811 -0.00190932 -0.118681 
-0.0662533 0.00326486 -0.119704 -0.0327974 0.000510377 -0.118104 -0.0473499 0.00447041 -0.119232 
-0.0370451 0.00476822 -0.120828 -0.058053 0.0115394 -0.119393 -0.0426402 0.00939406 -0.118344 
-0.0365132 0.0087895 -0.118382 -0.0320617 0.00966134 -0.118893 -0.0715954 0.00942955 -0.119732 
-0.0385455 0.0117063 -0.119449 -0.0638649 0.0185718 -0.11994 -0.0414913 0.0281372 -0.117576 
-0.0329246 -0.0221556 -0.115918 -0.038587 -0.0144512 -0.115818 -0.0304517 -0.0162127 -0.116648 
-0.036179 -0.00942098 -0.117204 -0.0619378 -0.00456845 -0.117435 -0.0351521 -0.00299816 -0.118375 
-0.0239205 -0.00238958 -0.115698 -0.0274228 0.000229475 -0.11704 -0.0244561 0.000870944 -0.116358 
-0.0213573 0.000427423 -0.114887 -0.075785 0.00645616 -0.117572 -0.0256842 0.00819296 -0.11314 
-0.0556365 0.0111827 -0.11525 -0.0320039 0.0239054 -0.115393 -0.0264258 0.0256841 -0.115291 
-0.0405264 0.0325357 -0.11524 -0.0340727 0.0335061 -0.11643 -0.0345422 0.0387364 -0.116379 
-0.0327329 0.0480306 -0.113344 -0.0365914 -0.0246996 -0.112794 -0.0524875 -0.0197021 -0.112441 
-0.0449226 -0.0178032 -0.110714 -0.0174042 -0.0167323 -0.110755 -0.0192862 -0.00213724 -0.112433 
-0.0147061 -0.000185691 -0.109427 -0.0303482 -0.00217647 -0.110443 -0.0240116 0.00270872 -0.112962 
-0.0339068 0.00857636 -0.109435 -0.0208815 0.00715842 -0.111518 -0.0300049 0.0146518 -0.112045 
-0.0220607 0.0244886 -0.112686 -0.0384627 0.026862 -0.111996 -0.0159752 0.0286535 -0.110164 
-0.0143955 -0.0278127 -0.108834 -0.0365363 -0.0256036 -0.10791 -0.0299828 -0.0207243 -0.113668 
-0.0149859 -0.0229054 -0.106953 -0.028027 -0.0177973 -0.106017 -0.0106474 -0.0153721 -0.109413 
-0.0341442 -0.0123538 -0.108035 -0.0386406 -0.0107345 -0.109421 -0.0157336 -0.00778763 -0.112053 
-0.0149981 -0.00345791 -0.106637 -0.013795 -0.00619403 -0.106346 -0.0268138 0.00488635 -0.111227 
-0.0493538 0.00794591 -0.108849 -0.0376484 0.0229632 -0.108798 -0.0288367 0.021507 -0.115856 
-0.0463764 0.0270252 -0.10693 -0.0189325 0.024221 -0.108244 -0.0192738 -0.0327132 -0.109662 
-0.0517429 -0.0242753 -0.102523 -0.0221174 -0.0210673 -0.104867 -0.00754952 -0.0218971 -0.106281 
-0.0145156 -0.0129934 -0.110642 -0.0487171 -0.00889853 -0.104797 -0.0432435 0.00655455 -0.104775 
-0.0138133 0.00624588 -0.10285 -0.027048 -0.0348853 -0.107691 -0.0107355 -0.0111371 -0.108236 
-0.0208274 -0.00751444 -0.107745 -0.0192901 -0.00995281 -0.0990622 -0.0252366 0.00543828 -0.10764 
-0.0153615 0.0265856 -0.0986383 -0.0295428 -0.0182049 -0.0972162 -0.0200267 0.00732997 -0.10547 
-0.0120659 -0.000928847 -0.100925 -0.00974267 0.00154746 -0.102702 -0.00304149 0.01634 -0.0960049 
-0.0344795 0.0306845 -0.0974581 -0.00482279 0.0319284 -0.0991577 -0.0461812 -0.105129 -0.0880936 
-0.0259008 0.01415 -0.0928281 -0.0145727 0.0196597 -0.0951584 -0.0292124 -0.00857811 -0.0904563 
-0.0138022 0.0201409 -0.0889663 -0.026015 0.0234799 -0.0890864 -0.00515441 0.000607433 -0.0853593 
-0.0310028 0.00427373 -0.087816 -0.0318304 -0.0270523 -0.082914 -0.0054599 -0.0346412 -0.0805172 
-0.00209743 -0.0197497 -0.0801925 -0.00423369 0.00513081 -0.0799848 -0.029449 0.0175582 -0.0792674 
-0.0230867 -0.0218823 -0.0757741 -0.032644 -0.0063197 -0.0770956 -0.0153561 0.00561382 -0.0751567 
-0.000558622 -0.0225112 -0.07297 -0.00426265 -0.00806252 -0.0697744 -0.0250933 5.52728e-05 -0.0705775 
-0.0314234 0.00551713 -0.0691157 -0.0258414 -0.0246135 -0.0664196 -0.0282123 0.0119421 -0.0668726 
-0.00797106 -0.0174946 -0.0618786 -0.00858455 -0.00884288 -0.058117 -0.0135917 0.0274385 -0.0600112 
-0.0164984 0.0336061 -0.0595464 -0.0162721 0.0114791 -0.0535907 -0.00977287 0.0109784 -0.0563405 
-0.00315638 0.017114 -0.0560892 -0.0243451 0.0195956 -0.0535874 -0.00205387 -0.0284209 -0.0499029 
-0.0184795 -0.0269407 -0.0510722 -0.00832892 -0.0172649 -0.0517141 -0.0196875 0.000933277 -0.0527009 
-0.0131172 0.0174599 -0.0500886 -0.00657095 -0.0222035 -0.0472322 -0.0310592 -0.00121585 -0.0470914 
-0.0213451 -0.000776551 -0.0424946 -0.0215522 -0.0188967 -0.0393775 -0.0123384 -0.0119647 -0.038795 
-0.0171637 0.000809468 -0.0405577 -0.0104872 0.0175218 -0.0416409 -0.029518 -0.0259191 -0.0376185 
-0.00532413 0.00347482 -0.0355722 -0.00937081 0.0258081 -0.0384829 -0.00665099 -0.0147089 -0.0321641 
-0.0235714 -0.0119867 -0.0335976 -0.0154765 0.0185486 -0.0323422 -0.00639582 0.00662071 -0.0284489 
-0.0183398 -0.0212097 -0.0264494 -0.00676706 -0.00981008 -0.0265873 -0.0299907 0.00855733 -0.0278555 
-0.00517262 0.0323307 -0.0276365 -0.0206177 -0.0113305 -0.0219042 -0.0321609 -0.00607507 -0.0210449 
-0.00390427 -0.00527178 -0.0243024 -0.0311671 0.0123986 -0.024052 -0.00131466 0.00705789 -0.0191797 
-0.00221027 0.0186146 -0.0191678 -0.0079193 0.0298979 -0.0203684 -0.0138788 -0.0162448 -0.0156948 
-0.00399213 -0.0264375 -0.0123873 -0.00558275 -0.00455966 -0.0101305 -0.0223604 0.0276055 -0.0116274 
-0.0173855 -0.0338902 -0.00676597 -0.00858558 -0.0125682 -0.00703645 -0.0077538 0.0171361 -0.0082271 
-0.0318082 0.0208697 -0.00898978 -0.00154371 -0.0346722 -0.00355113 -0.0287336 -0.0143436 -0.00459888 
-0.0193685 0.0119819 -0.00445985 -0.0208051 -0.0257611 0.000817617 -0.0319573 -0.0211048 0.000307889 
-0.0220216 -0.0115727 -0.00229116 -0.0067008 0.0110709 -0.000318539 -0.0232248 0.018953 -0.00143841 
-0.0124901 0.0292455 -0.000616749 -0.00452227 -8.57609e-05 0.00411041 -0.0184641 0.0346143 0.00130449 
-0.0215899 -0.0111508 0.00449409 -0.00861311 0.0156758 0.0062478 -0.0255212 -0.0322233 0.0112122 
-0.0345917 -0.0281976 0.00814852 -0.0293509 -0.0255557 0.00988063 -0.00341211 0.0279138 0.0116011 
-0.0216218 -0.0306886 0.0142836 -0.0109636 -0.0311008 0.0133427 -0.00135906 -0.0285348 0.015104 
-0.0239192 -0.011198 0.0122343 -0.000199364 -0.031613 0.0178535 -0.0293542 -0.0154504 0.0164738 
-0.0144604 0.0146238 0.0157846 -0.0267273 0.0202325 0.0184276 -0.0291051 0.026364 0.0186807 
-0.00801538 0.0199359 0.0195077 -0.0136772 0.0221297 0.0202792 -0.0191536 0.0271245 0.0214521 
-0.0188515 -0.0248569 0.0244808 -0.00957752 -0.023935 0.023923 -0.00247583 0.0215485 0.026018 
-0.0298384 -0.0303038 0.0278149 -0.011677 -0.0284877 0.0263334 -0.00025791 -0.0162541 0.0287085 
-0.00986991 0.00120138 0.0287729 -0.0165007 0.0290903 0.0290174 -0.0143365 -0.0079604 0.0305058 
-0.0102718 0.00457908 0.0329039 -0.00282712 0.00545747 0.0307661 -0.0194255 -0.0262921 0.0365267 
-0.0129094 -0.0188123 0.0337604 -0.00353272 0.0202053 0.0357479 -0.00180751 0.0338204 0.0348098 
-0.0198718 -0.0194218 0.0404475 -0.0147423 -0.00564426 0.0402338 -0.0258137 0.00190826 0.0383419 
-0.0217046 0.022596 0.0403282 -0.00102814 0.0297537 0.0390106 -0.0290561 -0.00430439 0.0434781 
-0.0312961 0.0169384 0.0420007 -0.00105657 0.0183981 0.0420493 -0.0297716 0.0219768 0.0423495 
-0.00392958 0.028377 0.0440859 -0.0139184 0.0334821 0.0434369 -0.000325902 -0.0296171 0.0471261 
-0.0312886 -0.013967 0.0447054 -0.0264186 -0.0226941 0.048246 -0.0120116 -0.010599 0.0495749 
-0.00462244 -0.00933596 0.0507316 -0.018075 -0.0348859 0.0517003 -0.0256227 -0.0236721 0.0522685 
-0.0161376 -0.013045 0.0543193 -0.0181237 -0.00251957 0.0532331 -0.0266756 0.00717374 0.0514265 
-0.0131504 0.0195227 0.0540956 -0.0256024 -0.0344097 0.0552749 -0.000358392 -0.033522 0.0555478 
-0.00101568 -0.00765357 0.0567914 
VERTICES 460 920
1 0 
1 1 
1 2 
1 3 
1 4 
1 5 
1 6 
1 7 
1 8 
1 9 
1 10 
1 11 
1 12 
1 13 
1 14 
1 15 
1 16 
1 17 
1 18 
1 19 
1 20 
1 21 
1 22 
1 23 
1 24 
1 25 
1 26 
1 27 
1 28 
1 29 
1 30 
1 31 
1 32 
1 33 
1 34 
1 35 
1 36 
1 37 
1 38 
1 39 
1 40 
1 41 
1 42 
1 43 
1 44 
1 45 
1 46 
1 47 
1 48 
1 49 
1 50 
1 51 
1 52 
1 53 
1 54 
1 55 
1 56 
1 57 
1 58 
1 59 
1 60 
1 61 
1 62 
1 63 
1 64 
1 65 
1 66 
1 67 
1 68 
1 69 
1 70 
1 71 
1 72 
1 73 
1 74 
1 75 
1 76 
1 77 
1 78 
1 79 
1 80 
1 81 
1 82 
1 83 
1 84 
1 85 
1 86 
1 87 
1 88 
1 89 
1 90 
1 91 
1 92 
1 93 
1 94 
1 95 
1 96 
1 97 
1 98 
1 99 
1 100 
1 101 
1 102 
1 103 
1 104 
1 105 
1 106 
1 107 
1 108 
1 109 
1 110 
1 111 
1 112 
1 113 
1 114 
1 115 
1 116 
1 117 
1 118 
1 119 
1 120 
1 121 
1 122 
1 123 
1 124 
1 125 
1 126 
1 127 
1 128 
1 129 
1 130 
1 131 
1 132 
1 133 
1 134 
1 135 
1 136 
1 137 
1 138 
1 139 
1 140 
1 141 
1 142 
1 143 
1 144 
1 145 
1 146 
1 147 
1 148 
1 149 
1 150 
1 151 
1 152 
1 153 
1 154 
1 155 
1 156 
1 157 
1 158 
1 159 
1 160 
1 161 
1 162 
1 163 
1 164 
1 165 
1 166 
1 167 
1 168 
1 169 
1 170 
1 171 
1 172 
1 173 
1 174 
1 175 
1 176 
1 177 
1 178 
1 179 
1 180 
1 181 
1 182 
1 183 
1 184 
1 185 
1 186 
1 187 
1 188 
1 189 
1 190 
1 191 
1 192 
1 193 
1 194 
1 195 
1 196 
1 197 
1 198 
1 199 
1 200 
1 201 
1 202 
1 203 
1 204 
1 205 
1 206 
1 207 
1 208 
1 209 
1 210 
1 211 
1 212 
1 213 
1 214 
1 215 
1 216 
1 217 
1 218 
1 219 
1 220 
1 221 
1 222 
1 223 
1 224 
1 225 
1 226 
1 227 
1 228 
1 229 
1 230 
1 231 
1 232 
1 233 
1 234 
1 235 
1 236 
1 237 
1 238 
1 239 
1 240 
1 241 
1 242 
1 243 
1 244 
1 245 
1 246 
1 247 
1 248 
1 249 
1 250 
1 251 
1 252 
1 253 
1 254 
1 255 
1 256 
1 257 
1 258 
1 259 
1 260 
1 261 
1 262 
1 263 
1 264 
1 265 
1 266 
1 267 
1 268 
1 269 
1 270 
1 271 
1 272 
1 273 
1 274 
1 275 
1 276 
1 277 
1 278 
1 279 
1 280 
1 281 
1 282 
1 283 
1 284 
1 285 
1 286 
1 287 
1 288 
1 289 
1 290 
1 291 
1 292 
1 293 
1 294 
1 295 
1 296 
1 297 
1 298 
1 299 
1 300 
1 301 
1 302 
1 303 
1 304 
1 305 
1 306 
1 307 
1 308 
1 309 
1 310 
1 311 
1 312 
1 313 
1 314 
1 315 
1 316 
1 317 
1 318 
1 319 
1 320 
1 321 
1 322 
1 323 
1 324 
1 325 
1 326 
1 327 
1 328 
1 329 
1 330 
1 331 
1 332 
1 333 
1 334 
1 335 
1 336 
1 337 
1 338 
1 339 
1 340 
1 341 
1 342 
1 343 
1 344 
1 345 
1 346 
1 347 
1 348 
1 349 
1 350 
1 351 
1 352 
1 353 
1 354 
1 355 
1 356 
1 357 
1 358 
1 359 
1 360 
1 361 
1 362 
1 363 
1 364 
1 365 
1 366 
1 367 
1 368 
1 369 
1 370 
1 371 
1 372 
1 373 
1 374 
1 375 
1 376 
1 377 
1 378 
1 379 
1 380 
1 381 
1 382 
1 383 
1 384 
1 385 
1 386 
1 387 
1 388 
1 389 
1 390 
1 391 
1 392 
1 393 
1 394 
1 395 
1 396 
1 397 
1 398 
1 399 
1 400 
1 401 
1 402 
1 403 
1 404 
1 405 
1 406 
1 407 
1 408 
1 409 
1 410 
1 411 
1 412 
1 413 
1 414 
1 415 
1 416 
1 417 
1 418 
1 419 
1 420 
1 421 
1 422 
1 423 
1 424 
1 425 
1 426 
1 427 
1 428 
1 429 
1 430 
1 431 
1 432 
1 433 
1 434 
1 435 
1 436 
1 437 
1 438 
1 439 
1 440 
1 441 
1 442 
1 443 
1 444 
1 445 
1 446 
1 447 
1 448 
1 449 
1 450 
1 451 
1 452 
1 453 
1 454 
1 455 
1 456 
1 457 
1 458 
1 459 

POINT_DATA 460
FIELD FieldData 7
id 1 460 int
35 32 16 22 6 11 10 12 2 
44 1 14 19 7 30 23 25 57 
38 29 20 13 3 4 69 21 28 
47 33 5 40 27 89 61 56 36 
54 45 8 52 59 73 42 66 93 
85 37 100 87 77 176 55 15 80 
58 39 41 31 102 50 46 78 133 
74 92 91 17 94 173 98 113 110 
18 53 67 162 86 71 120 65 84 
62 101 43 112 111 125 121 48 88 
60 63 76 95 26 24 160 138 108 
153 34 51 171 104 75 137 150 164 
82 131 68 145 118 107 127 126 147 
117 174 103 168 180 148 130 184 195 
163 114 122 70 140 141 196 79 129 
179 178 144 106 83 151 49 97 132 
202 166 115 123 143 142 146 156 210 
105 159 154 158 119 81 139 183 136 
190 116 149 177 186 152 205 124 64 
99 134 189 225 172 157 161 198 175 
182 169 252 254 212 193 72 185 200 
224 128 191 207 170 96 228 219 109 
265 223 181 236 276 280 218 226 266 
241 206 242 208 264 199 135 188 222 
263 214 227 203 209 267 245 238 187 
194 192 213 155 165 167 295 221 255 
201 237 250 235 259 233 197 299 220 
247 251 261 248 240 229 262 230 289 
258 273 284 249 215 232 216 306 239 
302 204 282 211 253 279 269 275 278 
90 305 260 270 315 246 301 288 283 
293 285 292 231 256 268 311 290 313 
298 287 300 274 272 291 303 304 314 
244 294 317 277 257 308 243 296 312 
310 234 217 297 307 316 318 281 309 
286 271 319 327 331 326 322 329 9 
320 325 330 328 321 323 332 324 343 
341 337 340 336 344 339 334 345 342 
333 335 338 347 355 349 354 356 353 
357 350 346 351 358 352 348 364 367 
368 360 363 359 365 370 362 371 369 
366 361 373 377 379 382 378 375 376 
372 380 381 383 374 393 396 395 388 
387 384 386 391 392 390 389 399 405 
385 403 394 406 398 407 404 408 402 
409 401 397 414 418 416 400 421 419 
417 422 410 412 415 413 411 420 432 
429 431 430 424 433 427 434 435 423 
425 426 428 445 439 443 447 442 444 
438 436 446 441 440 437 448 454 451 
452 456 458 459 450 460 457 455 453 
449 
type 1 460 int
1 1 1 1 1 1 1 1 1 
1 1 1 1 1 1 1 1 1 
1 1 1 1 1 1 1 1 1 
1 1 1 1 1 1 1 1 1 
1 1 1 1 1 1 1 1 1 
1 1 1 1 1 1 1 1 1 
1 1 1 1 1 1 1 1 1 
1 1 1 1 1 1 1 1 1 
1 1 1 1 1 1 1 1 1 
1 1 1 1 1 1 1 1 1 
1 1 1 1 1 1 1 1 1 
1 1 1 1 1 1 1 1 1 
1 1 1 1 1 1 1 1 1 
1 1 1 1 1 1 1 1 1 
1 1 1 1 1 1 1 1 1 
1 1 1 1 1 1 1 1 1 
1 1 1 1 1 1 1 1 1 
1 1 1 1 1 1 1 1 1 
1 1 1 1 1 1 1 1 1 
1 1 1 1 1 1 1 1 1 
1 1 1 1 1 1 1 1 1 
1 1 1 1 1 1 1 1 1 
1 1 1 1 1 1 1 1 1 
1 1 1 1 1 1 1 1 1 
1 1 1 1 1 1 1 1 1 
1 1 1 1 1 1 1 1 1 
1 1 1 1 1 1 1 1 1 
1 1 1 1 1 1 1 1 1 
1 1 1 1 1 1 1 1 1 
1 1 1 1 1 1 1 1 1 
1 1 1 1 1 1 1 1 1 
1 1 1 1 1 1 1 1 1 
1 1 1 1 1 1 1 1 1 
1 1 1 1 1 1 1 1 1 
1 1 1 1 1 1 1 1 1 
1 1 1 1 1 1 1 1 1 
1 1 1 1 1 1 1 1 1 
1 1 1 1 1 1 1 1 1 
1 1 1 1 1 1 1 1 1 
1 1 1 1 1 1 1 1 1 
1 1 1 1 1 1 1 1 1 
1 1 1 1 1 1 1 1 1 
1 1 1 1 1 1 1 1 1 
1 1 1 1 1 1 1 1 1 
1 1 1 1 1 1 1 1 1 
1 1 1 1 1 1 1 1 1 
1 1 1 1 1 1 1 1 1 
1 1 1 1 1 1 1 1 1 
1 1 1 1 1 1 1 1 1 
1 1 1 1 1 1 1 1 1 
1 1 1 1 1 1 1 1 1 
1 
i 3 460 int
0 0 0 0 0 0 0 0 0 
0 0 0 0 0 0 0 0 0 
0 0 0 0 0 0 0 0 0 
0 0 0 0 0 0 0 0 0 
0 0 0 0 0 0 0 0 0 
0 0 0 0 0 0 0 0 0 
0 0 0 0 0 0 0 0 0 
0 0 0 0 0 0 0 0 0 
0 0 0 0 0 0 0 0 0 
0 0 0 0 0 0 0 0 0 
0 0 0 0 0 0 0 0 0 
0 0 0 0 0 0 0 0 0 
0 0 0 0 0 0 0 0 0 
0 0 0 0 0 0 0 0 0 
0 0 0 0 0 0 0 0 0 
0 0 0 0 0 0 0 0 0 
0 0 0 0 0 0 0 0 0 
0 0 0 0 0 0 0 0 0 
0 0 0 0 0 0 0 0 0 
0 0 0 0 0 0 0 0 0 
0 0 0 0 0 0 0 0 0 
0 0 0 0 0 0 0 0 0 
0 0 0 0 0 0 0 0 0 
0 0 0 0 0 0 0 0 0 
0 0 0 0 0 0 0 0 0 
0 0 0 0 0 0 0 0 0 
0 0 0 0 0 0 0 0 0 
0 0 0 0 0 0 0 0 0 
0 0 0 0 0 0 0 0 0 
0 0 0 0 0 0 0 0 0 
0 0 0 0 0 0 0 0 0 
0 0 0 0 0 0 0 0 0 
0 0 0 0 0 0 0 0 0 
0 0 0 0 0 0 0 0 0 
0 0 0 0 0 0 0 0 0 
0 0 0 0 0 0 0 0 0 
0 0 0 0 0 0 0 0 0 
0 0 0 0 0 0 0 0 0 
0 0 0 0 0 0 0 0 0 
0 0 0 0 0 0 0 0 0 
0 0 0 0 0 0 0 0 0 
0 0 0 0 0 0 0 0 0 
0 0 0 0 0 0 0 0 0 
0 0 0 0 0 0 0 0 0 
0 0 0 0 0 0 0 0 0 
0 0 0 0 0 0 0 0 0 
0 0 0 0 0 0 0 0 0 
0 0 0 0 0 0 0 0 0 
0 0 0 0 0 0 0 0 0 
0 0 0 0 0 0 0 0 0 
0 0 0 0 0 0 0 0 0 
0 0 0 0 0 0 0 0 0 
0 0 0 0 0 0 0 0 0 
0 0 0 0 0 0 0 0 0 
0 0 0 0 0 0 0 0 0 
0 0 0 0 0 0 0 0 0 
0 0 0 0 0 0 0 0 0 
0 0 0 0 0 0 0 0 0 
0 0 0 0 0 0 0 0 0 
0 0 0 0 0 0 0 0 0 
0 0 0 0 0 0 0 0 0 
0 0 0 0 0 0 0 0 0 
0 0 0 0 0 0 0 0 0 
0 0 0 0 0 0 0 0 0 
0 0 0 0 0 0 0 0 0 
0 0 0 0 0 0 0 0 0 
0 0 0 0 0 0 0 0 0 
0 0 0 0 0 0 0 0 0 
0 0 0 0 0 0 0 0 0 
0 0 0 0 0 0 0 0 0 
0 0 0 0 0 0 0 0 0 
0 0 0 0 0 0 0 0 0 
0 0 0 0 0 0 0 0 0 
0 0 0 0 0 0 0 0 0 
0 0 0 0 0 0 0 0 0 
0 0 0 0 0 0 0 0 0 
0 0 0 0 0 0 0 0 0 
0 0 0 0 0 0 0 0 0 
0 0 0 0 0 0 0 0 0 
0 0 0 0 0 0 0 0 0 
0 0 0 0 0 0 0 0 0 
0 0 0 0 0 0 0 0 0 
0 0 0 0 0 0 0 0 0 
0 0 0 0 0 0 0 0 0 
0 0 0 0 0 0 0 0 0 
0 0 0 0 0 0 0 0 0 
0 0 0 0 0 0 0 0 0 
0 0 0 0 0 0 0 0 0 
0 0 0 0 0 0 0 0 0 
0 0 0 0 0 0 0 0 0 
0 0 0 0 0 0 0 0 0 
0 0 0 0 0 0 0 0 0 
0 0 0 0 0 0 0 0 0 
0 0 0 0 0 0 0 0 0 
0 0 0 0 0 0 0 0 0 
0 0 0 0 0 0 0 0 0 
0 0 0 0 0 0 0 0 0 
0 0 0 0 0 0 0 0 0 
0 0 0 0 0 0 0 0 0 
0 0 0 0 0 0 0 0 0 
0 0 0 0 0 0 0 0 0 
0 0 0 0 0 0 0 0 0 
0 0 0 0 0 0 0 0 0 
0 0 0 0 0 0 0 0 0 
0 0 0 0 0 0 0 0 0 
0 0 0 0 0 0 0 0 0 
0 0 0 0 0 0 0 0 0 
0 0 0 0 0 0 0 0 0 
0 0 0 0 0 0 0 0 0 
0 0 0 0 0 0 0 0 0 
0 0 0 0 0 0 0 0 0 
0 0 0 0 0 0 0 0 0 
0 0 0 0 0 0 0 0 0 
0 0 0 0 0 0 0 0 0 
0 0 0 0 0 0 0 0 0 
0 0 0 0 0 0 0 0 0 
0 0 0 0 0 0 0 0 0 
0 0 0 0 0 0 0 0 0 
0 0 0 0 0 0 0 0 0 
0 0 0 0 0 0 0 0 0 
0 0 0 0 0 0 0 0 0 
0 0 0 0 0 0 0 0 0 
0 0 0 0 0 0 0 0 0 
0 0 0 0 0 0 0 0 0 
0 0 0 0 0 0 0 0 0 
0 0 0 0 0 0 0 0 0 
0 0 0 0 0 0 0 0 0 
0 0 0 0 0 0 0 0 0 
0 0 0 0 0 0 0 0 0 
0 0 0 0 0 0 0 0 0 
0 0 0 0 0 0 0 0 0 
0 0 0 0 0 0 0 0 0 
0 0 0 0 0 0 0 0 0 
0 0 0 0 0 0 0 0 0 
0 0 0 0 0 0 0 0 0 
0 0 0 0 0 0 0 0 0 
0 0 0 0 0 0 0 0 0 
0 0 0 0 0 0 0 0 0 
0 0 0 0 0 0 0 0 0 
0 0 0 0 0 0 0 0 0 
0 0 0 0 0 0 0 0 0 
0 0 0 0 0 0 0 0 0 
0 0 0 0 0 0 0 0 0 
0 0 0 0 0 0 0 0 0 
0 0 0 0 0 0 0 0 0 
0 0 0 0 0 0 0 0 0 
0 0 0 0 0 0 0 0 0 
0 0 0 0 0 0 0 0 0 
0 0 0 0 0 0 0 0 0 
0 0 0 0 0 0 0 0 0 
0 0 0 0 0 0 0 0 0 
0 0 0 0 0 0 0 0 0 
0 0 0 0 0 0 0 0 0 
0 0 0 
v 3 460 double
-1.27384 0.100073 -0.523575 -1.4465 0.0872059 -0.5161 -1.28376 -0.00529297 -0.546307 
-1.40023 -0.251904 -0.630938 -1.18889 -0.0446194 -0.489896 -1.1799 -0.113144 -0.481444 
-1.11849 0.04394 -0.465595 -1.1652 -0.0511256 -0.491872 -1.15122 -0.0229475 -0.471535 
-1.17039 -0.165148 -0.48617 -1.0799 0.0195604 -0.458084 -0.994103 -0.189795 -0.354501 
-0.862697 -0.069934 -0.349119 -0.808403 9.77037e-05 -0.333321 -1.05249 0.0878851 -0.438994 
-1.04452 0.0625334 -0.439682 -1.08225 0.0616657 -0.433725 -1.15813 -0.124044 -0.504763 
-1.067 0.0419642 -0.437133 -1.06619 0.0520452 -0.435805 -1.19238 0.0981774 -0.351758 
-1.0913 0.0548738 -0.445142 -0.944848 0.172779 -0.428664 -0.936539 -0.0299592 -0.401167 
-0.868812 0.0526392 -0.358024 -1.12224 0.0745352 -0.454535 -0.972204 -0.136232 -0.380883 
-0.959967 0.0515371 -0.396046 -1.04249 -0.140973 -0.364653 -0.97418 0.0274048 -0.403246 
-0.967455 0.0388999 -0.398621 -0.918474 0.038136 -0.399608 -0.799252 0.0710404 -0.32999 
-0.820292 -0.0202414 -0.337394 -0.934257 -0.143889 -0.388433 -0.787635 -0.0377249 -0.318961 
-0.961323 0.105607 -0.415301 -0.968118 0.137152 -0.394133 -0.778108 -0.0254869 -0.320109 
-0.933886 0.134143 -0.389969 -0.810962 0.0824772 -0.330355 -0.931542 -0.0175625 -0.545932 
-0.78698 -0.0804747 -0.327583 -0.931305 -0.0402884 -0.39214 -1.0155 -0.0448533 -0.419914 
-0.798697 -0.00571797 -0.339086 -0.870731 0.0279721 -0.374868 -0.918702 -0.118766 -0.360966 
-0.867383 0.00181991 -0.301712 -0.948371 0.0263263 -0.174111 -0.745601 0.174395 -0.186509 
-0.671726 -0.0695147 -0.247871 -0.801648 0.0595787 -0.354107 -0.702192 -0.170761 -0.266759 
-0.648384 -0.110946 -0.221572 -0.815056 -0.0144905 -0.335004 -0.774447 -0.0806911 -0.337414 
-0.734732 0.00296035 -0.326967 -0.478069 0.0434837 -0.277096 -0.740962 -0.118964 -0.305278 
-0.682128 -0.0300003 -0.267452 -0.6786 -0.0565842 -0.234915 -1.02771 -0.0177673 -0.631942 
-0.728092 -0.0583673 -0.307352 -0.743703 -0.120141 -0.318179 -0.88683 -0.0112851 -0.544175 
-0.903366 0.0258533 -0.258286 -0.919146 0.0207496 -0.417095 -1.06585 -0.0798428 -0.429661 
-0.860344 -0.0868141 -0.345812 -0.745931 -0.139358 -0.334315 -0.646109 0.00252335 -0.316268 
-0.634032 -0.0489871 -0.2677 -0.739971 -0.000389398 -0.330031 -0.698617 -0.00433485 -0.272841 
-0.698347 0.0338367 -0.304642 -0.779863 -0.0118442 -0.317462 -0.794654 -0.0117965 -0.447751 
-1.11248 0.348977 -0.571275 -0.748014 0.00281084 -0.324378 -0.829319 -0.0735265 -0.34971 
-0.725802 -0.12854 -0.275184 -0.756218 -0.147247 -0.596986 -0.810877 -0.116718 -0.332098 
-0.632802 -0.0293543 -0.302542 -0.613192 0.0712428 -0.263118 -0.847397 0.155575 -0.22668 
-0.490787 0.0484906 -0.210447 -0.63431 0.0744429 -0.255328 -0.711643 0.0598817 -0.282336 
-0.962081 0.0273419 -0.313075 -0.823684 -0.0692529 -0.312505 -0.937314 -0.284757 -0.606219 
-0.68353 -0.0227879 -0.282155 -0.712424 -0.0480699 -0.271874 -0.743044 -0.0604417 -0.303258 
-0.517199 0.196766 -0.399896 -0.626266 0.168045 -0.209105 -0.70778 0.0718581 -0.294761 
-0.80425 0.0438111 -0.331404 -0.623808 -0.0318813 -0.265059 -1.05699 0.126775 -0.283964 
-0.551148 -0.175316 -0.192741 -0.716832 -0.0965788 -0.297488 -0.69339 0.0891771 -0.296778 
-1.14998 -0.0410217 -0.601522 -0.730807 -0.0533008 -0.24635 -0.962592 0.0535876 -0.341282 
-0.528934 0.0218336 -0.223982 -0.916161 -0.0200153 -0.254299 -0.493024 0.103941 -0.210165 
-0.917227 0.281943 -0.448063 -0.660885 0.054436 -0.27191 -0.672106 0.052843 -0.277181 
-0.628545 0.036548 -0.260194 -0.665724 0.0696111 -0.268875 -0.851734 0.267758 -0.885471 
-0.853253 0.0257446 -0.326505 -0.80025 0.0153414 -0.334368 -0.855015 -0.157498 -0.333246 
-0.722723 -0.127427 -0.293066 -0.628989 -0.106691 -0.249658 -0.719966 -0.0774154 -0.0985494 
-0.90157 -0.132514 -0.385345 -0.442239 -0.0124138 -0.156858 -0.842464 -0.0153424 -0.354445 
-0.625583 0.0684958 -0.252871 -0.602928 0.0190753 -0.250563 -0.673997 -0.0358666 -0.286625 
-0.503995 -0.0624607 -0.195842 -0.673215 -0.0427719 -0.275987 -0.640558 -0.110685 -0.25623 
-0.928181 -0.0313183 -0.801466 -0.633746 -0.00185989 -0.267859 -0.673392 0.0263738 -0.287271 
-0.706217 -0.273565 -0.728212 -0.763301 -0.274796 -0.641411 -0.681572 0.174388 -0.288262 
-0.624027 0.0169029 -0.256533 -0.553094 -0.00134157 -0.233638 -0.563937 0.110903 -0.220018 
-0.529683 0.0198559 -0.220618 -0.775415 -0.0216744 -0.297603 -0.585907 0.00722222 -0.244955 
-0.670129 0.0552053 -0.335929 -0.615904 0.0494027 -0.26057 -0.56282 0.0876034 -0.255532 
-0.581733 0.0162854 -0.228569 -0.489298 0.0693247 -0.191989 -0.78454 -0.060676 -0.379381 
-0.395167 -0.0225201 -0.122224 -0.549916 0.151251 -0.181703 -0.578976 0.0434108 -0.245248 
-0.634971 0.0285508 -0.262799 -0.695866 0.036484 -0.292288 -0.677677 -0.0441885 -0.28905 
-0.717987 0.0928641 -0.222531 -0.510645 0.111758 -0.214434 -0.665564 0.137866 -0.225818 
-1.02934 0.194296 -0.208719 -0.590818 0.0241894 -0.164153 -0.577784 -0.0571157 -0.242423 
-0.731457 0.190931 -0.692307 -0.593919 -0.182003 -0.275212 -0.472185 -0.0669043 -0.302677 
-1.0093 -0.129502 -0.366274 -0.742535 0.0369308 -0.643838 -0.39387 -0.0453747 -0.168312 
-0.497734 -0.0976401 -0.214385 -0.375199 0.00730883 -0.157286 -0.476132 0.0801648 -0.187518 
-0.475607 0.10901 -0.180009 -0.588867 0.0715474 -0.254994 -0.667185 0.0589284 -0.288391 
-0.702771 0.0483006 -0.30214 -0.398298 -0.196384 -0.158119 -0.521861 -0.256233 -0.207708 
-0.576084 -0.106437 -0.244799 -0.726719 -0.324071 -0.654874 -0.470579 0.0120078 -0.199413 
-0.445223 -0.0325223 -0.187933 -0.729651 0.0470257 -0.425831 -0.600431 -0.0239806 -0.277155 
-0.606823 -0.0870753 -0.210558 -0.586212 -0.0784799 -0.252342 -0.931082 0.0295488 -0.695005 
-0.517616 0.197523 -0.16163 -0.535333 -0.1118 -0.20268 -0.60741 0.102428 -0.309073 
-0.679575 0.163373 -0.28216 -0.531706 0.0747267 -0.238457 -0.502095 0.0931181 -0.213661 
-0.851149 -0.2373 -0.682125 -0.639288 -0.0131394 -0.504311 -0.675178 -0.150129 -0.26271 
-0.628337 -0.0835843 -0.276438 -1.15801 -0.0361112 -0.680354 -0.536493 -0.0535428 -0.191064 
-0.672708 -0.0482748 -0.407533 -0.643233 -0.0760525 -0.380885 -0.711767 -0.0246627 -0.344993 
-0.44594 -0.0513088 -0.186885 -0.578539 0.0596576 -0.0703276 -0.596255 -0.174015 -0.229004 
-0.367224 0.034667 -0.152811 -0.436791 0.0998727 -0.258158 -0.419442 0.0598026 -0.170557 