# vtk DataFile Version 4.0
Generated by LIGGGHTS
ASCII
DATASET POLYDATA
POINTS 90 float
-0.00894204 -0.016163 -0.0280187 -0.0299058 -0.00882918 -0.0287936 -0.0208226 -0.00599195 -0.0298059 
-0.00462371 0.0206347 -0.030346 -0.00174714 0.0260627 -0.0294397 -0.0190478 0.013684 -0.0271695 
-0.0160886 0.0216478 -0.0274871 -0.00953586 0.00971988 -0.0240041 -0.00217367 0.0240852 -0.0238032 
-0.0134792 -0.0343741 -0.0178723 -0.00618745 -0.0313193 -0.0188314 -0.0106535 -0.0244251 -0.0200172 
-0.0124546 0.031784 -0.0188664 -0.0244429 0.0229939 -0.0136138 -0.028663 -0.019004 -0.0116633 
-0.0101549 -0.0158816 -0.0105481 -0.0214597 -0.00448395 -0.0133494 -0.0202974 -0.0199605 -0.0076198 
-0.0219947 -0.0107694 -0.00692137 -0.0275046 -0.000700049 -0.00975387 -0.0083641 0.00277185 -0.00917497 
-0.00857183 -0.027925 -0.00433962 -0.00454319 0.0203252 -0.00350574 -0.0159102 -0.0341757 0.000582184 
-0.00408721 -0.0194644 -0.00215856 -0.00174502 0.0344165 -0.00199188 -0.0327631 -0.0200888 0.00304999 
-0.0159539 -0.00381092 0.00246315 -0.0300659 -0.00019371 0.00265985 -0.0235267 0.0224168 0.00294088 
-0.0230202 -0.021037 0.00553585 -0.0229734 0.000876534 0.00608281 -0.020721 -0.0135944 0.00902605 
-0.0127396 -0.0137041 0.00928987 -0.000459601 -0.00791581 0.00811237 -0.0221714 0.00979368 0.00830724 
-0.0240929 0.0291618 0.00999238 -0.0160817 -0.000243398 0.0126333 -0.024531 -1.04943e-05 0.0187185 
-0.0306884 0.0042356 0.018021 -0.027916 0.0296421 0.018273 -0.0175025 -0.0228838 0.0195651 
-0.022804 -0.0140579 0.0204638 -0.0251247 -0.00571197 0.0200822 -0.018642 0.00531382 0.0196931 
-0.0294843 -0.0242442 0.0255722 -0.0105626 -0.00654333 0.0225201 -0.027846 0.00485213 0.0239217 
-0.00180681 0.0181929 0.0242885 -0.0178022 0.0256262 0.0239367 -0.021213 0.0304724 0.024759 
-0.0337701 0.0102173 0.0285071 -0.0264294 0.0258143 0.0294261 -0.0315539 0.028352 0.0278558 
-0.0221544 -0.0267021 0.0312607 -0.0188291 -0.0129094 0.0314337 -0.0262531 0.00245318 0.0307463 
-0.0274253 0.00637934 0.0302137 -0.0284955 0.0109203 0.029908 -0.0046838 -0.0346092 0.0343856 
-0.0205837 -0.0294247 0.0352807 -0.00322644 -0.0143029 0.034182 -0.00206763 0.0123655 0.0357601 
-0.0315184 0.0323336 0.0367215 -0.00317446 -0.00327501 0.0393396 -0.0181818 0.00594264 0.0375593 
-0.0113639 0.00609324 0.0390871 -0.0237558 0.020832 0.0390759 -0.0233787 0.0259916 0.0403015 
-0.0101315 -0.0171842 0.0426326 -0.00618278 0.0247152 0.0413156 -0.00512449 -0.0296766 0.0458581 
-0.0132118 -0.0121788 0.0457455 -0.0226093 -0.00790771 0.0462181 -0.00331379 -0.00673963 0.0477195 
-0.0203284 0.0149576 0.0477216 -0.0176419 0.0252752 0.0466514 -0.0088354 0.0340944 0.0477155 
-0.0255344 0.010562 0.050692 -0.0156099 0.0123479 0.0509882 -0.0332492 0.0212435 0.0480617 
-0.025261 0.030812 0.0485174 -0.0166674 -0.0199684 0.0533484 -0.006758 -0.00417797 0.0518362 
-0.016039 -0.000886859 0.0535392 -0.0199892 0.00645928 0.0543462 -0.0136151 0.0110949 0.0533433 
-0.0302008 0.015853 0.0533984 -0.0138041 -0.0299263 0.055754 -0.0118987 0.0289343 0.055202 

VERTICES 90 180
1 0 
1 1 
1 2 
1 3 
1 4 
1 5 
1 6 
1 7 
1 8 
1 9 
1 10 
1 11 
1 12 
1 13 
1 14 
1 15 
1 16 
1 17 
1 18 
1 19 
1 20 
1 21 
1 22 
1 23 
1 24 
1 25 
1 26 
1 27 
1 28 
1 29 
1 30 
1 31 
1 32 
1 33 
1 34 
1 35 
1 36 
1 37 
1 38 
1 39 
1 40 
1 41 
1 42 
1 43 
1 44 
1 45 
1 46 
1 47 
1 48 
1 49 
1 50 
1 51 
1 52 
1 53 
1 54 
1 55 
1 56 
1 57 
1 58 
1 59 
1 60 
1 61 
1 62 
1 63 
1 64 
1 65 
1 66 
1 67 
1 68 
1 69 
1 70 
1 71 
1 72 
1 73 
1 74 
1 75 
1 76 
1 77 
1 78 
1 79 
1 80 
1 81 
1 82 
1 83 
1 84 
1 85 
1 86 
1 87 
1 88 
1 89 

POINT_DATA 90
FIELD FieldData 7
id 1 90 int
12 10 2 7 1 6 4 8 9 
3 13 5 11 22 20 18 19 23 
25 16 21 24 14 38 15 17 30 
29 28 33 35 31 32 36 26 37 
34 27 49 42 44 50 47 51 48 
40 45 43 39 46 41 60 61 56 
54 53 59 64 55 52 62 63 58 
57 72 73 65 67 69 75 71 76 
70 77 68 86 74 84 85 82 66 
80 87 81 78 89 90 88 79 83 

type 1 90 int
1 1 1 1 1 1 1 1 1 
1 1 1 1 1 1 1 1 1 
1 1 1 1 1 1 1 1 1 
1 1 1 1 1 1 1 1 1 
1 1 1 1 1 1 1 1 1 
1 1 1 1 1 1 1 1 1 
1 1 1 1 1 1 1 1 1 
1 1 1 1 1 1 1 1 1 
1 1 1 1 1 1 1 1 1 
1 1 1 1 1 1 1 1 1 

i 3 90 int
0 0 0 0 0 0 0 0 0 
0 0 0 0 0 0 0 0 0 
0 0 0 0 0 0 0 0 0 
0 0 0 0 0 0 0 0 0 
0 0 0 0 0 0 0 0 0 
0 0 0 0 0 0 0 0 0 
0 0 0 0 0 0 0 0 0 
0 0 0 0 0 0 0 0 0 
0 0 0 0 0 0 0 0 0 
0 0 0 0 0 0 0 0 0 
0 0 0 0 0 0 0 0 0 
0 0 0 0 0 0 0 0 0 
0 0 0 0 0 0 0 0 0 
0 0 0 0 0 0 0 0 0 
0 0 0 0 0 0 0 0 0 
0 0 0 0 0 0 0 0 0 
0 0 0 0 0 0 0 0 0 
0 0 0 0 0 0 0 0 0 
0 0 0 0 0 0 0 0 0 
0 0 0 0 0 0 0 0 0 
0 0 0 0 0 0 0 0 0 
0 0 0 0 0 0 0 0 0 
0 0 0 0 0 0 0 0 0 
0 0 0 0 0 0 0 0 0 
0 0 0 0 0 0 0 0 0 
0 0 0 0 0 0 0 0 0 
0 0 0 0 0 0 0 0 0 
0 0 0 0 0 0 0 0 0 
0 0 0 0 0 0 0 0 0 
0 0 0 0 0 0 0 0 0 

v 3 90 double
0 0 -1.59081 0 0 -1.59561 0 0 -1.60179 
0 0 -1.60513 0 0 -1.59954 0 0 -1.58561 
0 0 -1.58757 0 0 -1.56589 0 0 -1.56461 
0 0 -1.52694 0 0 -1.53312 0 0 -1.54068 
0 0 -1.53332 0 0 -1.49938 0 0 -1.48653 
0 0 -1.47917 0 0 -1.49761 0 0 -1.45965 
0 0 -1.45494 0 0 -1.47387 0 0 -1.47005 
0 0 -1.43738 0 0 -1.43169 0 0 -1.40344 
0 0 -1.42247 0 0 -1.42129 0 0 -1.38607 
0 0 -1.39019 0 0 -1.38882 0 0 -1.38686 
0 0 -1.36832 0 0 -1.36439 0 0 -1.3431 
0 0 -1.34114 0 0 -1.34978 0 0 -1.3483 
0 0 -1.33604 0 0 -1.31652 0 0 -1.27031 
0 0 -1.27571 0 0 -1.27375 0 0 -1.26374 
0 0 -1.25678 0 0 -1.25972 0 0 -1.26276 
0 0 -1.21626 0 0 -1.24059 0 0 -1.2295 
0 0 -1.22656 0 0 -1.22941 0 0 -1.22283 
0 0 -1.19233 0 0 -1.18477 0 0 -1.19772 
0 0 -1.16947 0 0 -1.168 0 0 -1.17378 
0 0 -1.1782 0 0 -1.18075 0 0 -1.14298 
0 0 -1.13523 0 0 -1.14475 0 0 -1.13111 
0 0 -1.12277 0 0 -1.09962 0 0 -1.11541 
0 0 -1.10188 0 0 -1.10197 0 0 -1.09099 
0 0 -1.0698 0 0 -1.08186 0 0 -1.03988 
0 0 -1.04086 0 0 -1.03644 0 0 -1.02212 
0 0 -1.02212 0 0 -1.03232 0 0 -1.02212 
0 0 -1 0 0 -1 0 0 -1.01888 
0 0 -1.01447 0 0 -1 0 0 -1 
0 0 -1 0 0 -1 0 0 -1 
0 0 -1 0 0 -1 0 0 -1 

f 3 90 double
0 0 -0.000346714 0 0 -0.000346714 0 0 -0.00160516 
0 0 -0.000346714 0 0 -0.00160516 0 0 -0.000346714 
0 0 -0.00160516 0 0 -0.000346714 0 0 -0.000346714 
0 0 -0.00160516 0 0 -0.000346714 0 0 -0.00160516 
0 0 -0.000346714 0 0 -0.000346714 0 0 -0.000346714 
0 0 -0.000346714 0 0 -0.000346714 0 0 -0.000346714 
0 0 -0.000346714 0 0 -0.00160516 0 0 -0.000346714 
0 0 -0.000346714 0 0 -0.00160516 0 0 -0.000346714 
0 0 -0.00160516 0 0 -0.00160516 0 0 -0.00160516 
0 0 -0.00160516 0 0 -0.00160516 0 0 -0.000346714 
0 0 -0.000346714 0 0 -0.000346714 0 0 -0.000346714 
0 0 -0.000346714 0 0 -0.00160516 0 0 -0.000346714 
0 0 -0.000346714 0 0 -0.00160516 0 0 -0.000346714 
0 0 -0.00160516 0 0 -0.000346714 0 0 -0.000346714 
0 0 -0.000346714 0 0 -0.000346714 0 0 -0.000346714 
0 0 -0.00160516 0 0 -0.000346714 0 0 -0.00160516 
0 0 -0.00160516 0 0 -0.000346714 0 0 -0.00160516 
0 0 -0.000346714 0 0 -0.000346714 0 0 -0.000346714 
0 0 -0.00160516 0 0 -0.00160516 0 0 -0.000346714 
0 0 -0.000346714 0 0 -0.00160516 0 0 -0.00160516 
0 0 -0.000346714 0 0 -0.000346714 0 0 -0.000346714 
0 0 -0.000346714 0 0 -0.000346714 0 0 -0.000346714 
0 0 -0.00160516 0 0 -0.00160516 0 0 -0.000346714 
0 0 -0.000346714 0 0 -0.000346714 0 0 -0.000346714 
0 0 -0.000346714 0 0 -0.000346714 0 0 -0.00160516 
0 0 -0.000346714 0 0 -0.000346714 0 0 -0.000346714 
0 0 0 0 0 0 0 0 -0.00160516 
0 0 -0.00160516 0 0 0 0 0 0 
0 0 0 0 0 0 0 0 0 
0 0 0 0 0 0 0 0 0 

radius 1 90 double
0.0015 0.0015 0.0025 0.0015 0.0025 0.0015 0.0025 0.0015 0.0015 
0.0025 0.0015 0.0025 0.0015 0.0015 0.0015 0.0015 0.0015 0.0015 
0.0015 0.0025 0.0015 0.0015 0.0025 0.0015 0.0025 0.0025 0.0025 
0.0025 0.0025 0.0015 0.0015 0.0015 0.0015 0.0015 0.0025 0.0015 
0.0015 0.0025 0.0015 0.0025 0.0015 0.0015 0.0015 0.0015 0.0015 
0.0025 0.0015 0.0025 0.0025 0.0015 0.0025 0.0015 0.0015 0.0015 
0.0025 0.0025 0.0015 0.0015 0.0025 0.0025 0.0015 0.0015 0.0015 
0.0015 0.0015 0.0015 0.0025 0.0025 0.0015 0.0015 0.0015 0.0015 
0.0015 0.0015 0.0025 0.0015 0.0015 0.0015 0.0015 0.0015 0.0025 
0.0025 0.0015 0.0025 0.0025 0.0015 0.0015 0.0015 0.0025 0.0015 

omega 3 90 double
0 0 0 0 0 0 0 0 0 
0 0 0 0 0 0 0 0 0 
0 0 0 0 0 0 0 0 0 
0 0 0 0 0 0 0 0 0 
0 0 0 0 0 0 0 0 0 
0 0 0 0 0 0 0 0 0 
0 0 0 0 0 0 0 0 0 
0 0 0 0 0 0 0 0 0 
0 0 0 0 0 0 0 0 0 
0 0 0 0 0 0 0 0 0 
0 0 0 0 0 0 0 0 0 
0 0 0 0 0 0 0 0 0 
0 0 0 0 0 0 0 0 0 
0 0 0 0 0 0 0 0 0 
0 0 0 0 0 0 0 0 0 
0 0 0 0 0 0 0 0 0 
0 0 0 0 0 0 0 0 0 
0 0 0 0 0 0 0 0 0 
0 0 0 0 0 0 0 0 0 
0 0 0 0 0 0 0 0 0 
0 0 0 0 0 0 0 0 0 
0 0 0 0 0 0 0 0 0 
0 0 0 0 0 0 0 0 0 
0 0 0 0 0 0 0 0 0 
0 0 0 0 0 0 0 0 0 
0 0 0 0 0 0 0 0 0 
0 0 0 0 0 0 0 0 0 
0 0 0 0 0 0 0 0 0 
0 0 0 0 0 0 0 0 0 
0 0 0 0 0 0 0 0 0 

