# vtk DataFile Version 4.0
Generated by LIGGGHTS
ASCII
DATASET POLYDATA
POINTS 821 float
-0.0111704 -0.0179124 0.0557467 -0.0201121 0.0064272 0.0532092 -0.0301947 0.00971584 0.0504282 
-0.00616762 -0.0317544 0.0548962 -0.0301512 0.0033123 0.0514138 -0.0176959 0.0290817 0.0508895 
-0.463587 -0.0123008 -0.398803 -0.463619 0.00102417 -0.397053 -0.478342 0.00418992 -0.397914 
-0.467835 0.00633734 -0.397018 -0.48405 -0.0137237 -0.396121 -0.457675 -0.00147362 -0.393143 
-0.479841 -0.0156323 -0.392643 -0.470559 0.00559892 -0.389414 -0.47324 0.00791716 -0.392713 
-0.474713 -0.0215551 -0.389657 -0.463061 0.00892319 -0.387163 -0.464188 -0.0157196 -0.378431 
-0.480112 -0.0147631 -0.382077 -0.44858 -0.00794391 -0.375518 -0.458092 0.0129647 -0.376456 
-0.462787 -0.0113289 -0.372269 -0.473661 -7.85442e-05 -0.373718 -0.453504 0.00049692 -0.372784 
-0.467556 -0.0115545 -0.368551 -0.466689 0.00448945 -0.369246 -0.493017 0.0454042 -0.36881 
-0.457989 -0.0137701 -0.366356 -0.447158 -0.0139871 -0.358603 -0.434487 0.0138454 -0.350303 
-0.431932 0.0021247 -0.347905 -0.442737 0.004442 -0.346764 -0.446221 0.010062 -0.349348 
-0.425691 0.00938699 -0.345351 -0.461094 0.0408 -0.347214 -0.434765 0.0106292 -0.340718 
-0.436285 -0.0215093 -0.337164 -0.43487 -0.00894212 -0.33626 -0.428188 0.00426344 -0.336341 
-0.436062 0.00708993 -0.336284 -0.41944 0.00974797 -0.339194 -0.430326 0.00678637 -0.332717 
-0.422344 0.0078974 -0.331827 -0.424673 -0.0130681 -0.33066 -0.42766 -0.000502749 -0.330781 
-0.410739 0.00381197 -0.328642 -0.421203 0.00392687 -0.328851 -0.416283 0.012764 -0.331097 
-0.420968 -0.0109285 -0.326409 -0.424416 -0.00955174 -0.323877 -0.427595 0.00337249 -0.32441 
-0.419895 0.00683025 -0.326028 -0.42359 -0.0194926 -0.320632 -0.415633 0.00459196 -0.322779 
-0.429449 -0.0393506 -0.318666 -0.424971 -0.00618863 -0.318964 -0.413846 0.00700717 -0.317073 
-0.403075 -0.0153831 -0.31328 -0.419203 -0.0091083 -0.315819 -0.415634 -0.00366527 -0.315678 
-0.404516 0.00244696 -0.312848 -0.422845 0.00698634 -0.31394 -0.420869 0.0123676 -0.315157 
-0.407286 0.0131609 -0.313743 -0.418158 -0.00322481 -0.310383 -0.415417 -0.00556793 -0.31078 
-0.418543 0.00328869 -0.311879 -0.41496 0.00500081 -0.311241 -0.405329 0.021855 -0.309571 
-0.430406 -0.018877 -0.307435 -0.403529 -0.0141144 -0.305603 -0.401484 -0.00627126 -0.308041 
-0.39182 -0.00165647 -0.30664 -0.413855 -0.00980205 -0.303172 -0.396934 -0.000496921 -0.30416 
-0.400486 0.0101119 -0.303542 -0.398119 0.0167452 -0.303893 -0.407406 -0.00718101 -0.301221 
-0.40397 0.000663112 -0.300797 -0.396703 0.0013943 -0.300021 -0.413023 0.0322904 -0.300868 
-0.409421 -0.0304048 -0.298 -0.393816 -0.0163632 -0.294915 -0.400965 -0.00407611 -0.29738 
-0.401432 -0.000156329 -0.296094 -0.393437 0.00377348 -0.296406 -0.389478 0.00292718 -0.293506 
-0.385572 -0.00647258 -0.290123 -0.38272 0.00317288 -0.288942 -0.390344 0.00697494 -0.289068 
-0.404786 0.0285232 -0.289922 -0.388945 -0.0147012 -0.283872 -0.382868 -0.0131431 -0.285195 
-0.379538 0.00116834 -0.286599 -0.386267 0.0103142 -0.284957 -0.389248 0.022599 -0.284603 
-0.383067 -0.00319463 -0.282342 -0.38352 0.00738236 -0.281878 -0.387941 -0.00714432 -0.279131 
-0.368506 -0.0038214 -0.277739 -0.374172 -0.00234889 -0.275985 -0.381654 0.0139448 -0.279478 
-0.3747 0.0110022 -0.277455 -0.386135 0.0220042 -0.278809 -0.374199 -0.0143309 -0.276032 
-0.368666 0.000532467 -0.272117 -0.372234 0.00372369 -0.27438 -0.360681 0.00419558 -0.27616 
-0.376227 -0.017896 -0.272013 -0.371758 -0.0020731 -0.271583 -0.369027 0.00689722 -0.269969 
-0.389996 0.0258485 -0.271312 -0.373488 -0.0263093 -0.265663 -0.358671 -0.00682128 -0.265804 
-0.363367 0.00242377 -0.267031 -0.359808 0.00406175 -0.264937 -0.363991 0.00756393 -0.2666 
-0.359384 0.0110964 -0.267392 -0.366347 0.014888 -0.267556 -0.365319 -0.0187949 -0.263163 
-0.358197 -0.0146543 -0.261276 -0.359367 -0.00989452 -0.261382 -0.356571 -0.00338333 -0.262371 
-0.351755 -0.00305884 -0.262512 -0.359033 0.00809735 -0.261135 -0.356203 0.0113359 -0.260868 
-0.36033 0.0146075 -0.262879 -0.36074 0.0189226 -0.261633 -0.354987 0.000195272 -0.259609 
-0.349726 0.00999597 -0.257758 -0.353322 0.0122215 -0.258726 -0.354744 0.0154717 -0.25916 
-0.364573 0.0301007 -0.260181 -0.356319 -0.0251314 -0.254976 -0.346732 -0.014669 -0.253729 
-0.352329 -0.00185018 -0.255767 -0.347481 0.00440937 -0.254789 -0.347937 0.00981512 -0.253868 
-0.347959 -0.0253056 -0.251666 -0.346399 -0.0179509 -0.251281 -0.341947 -0.0096747 -0.251128 
-0.342305 -0.0040047 -0.251843 -0.336908 -0.0219157 -0.24611 -0.338568 -0.0125017 -0.247734 
-0.335399 -0.00254557 -0.246757 -0.339694 -0.0294298 -0.244885 -0.342604 -0.0265934 -0.244796 
-0.324064 -0.0104733 -0.24213 -0.329459 -0.00463685 -0.244858 -0.321334 -0.00374194 -0.241417 
-0.326073 -0.000485313 -0.242657 -0.328502 0.00855114 -0.243849 -0.332665 0.0127267 -0.244969 
-0.317695 -0.00110621 -0.240066 -0.323196 0.0199199 -0.239145 -0.32721 0.0226649 -0.240382 
-0.319106 0.0209506 -0.237861 -0.324449 0.0256581 -0.239672 -0.33131 0.034306 -0.239608 
-0.314597 -0.0254767 -0.235331 -0.317195 -0.0234882 -0.237026 -0.308666 -0.0162412 -0.234894 
-0.308039 -0.0102633 -0.23546 -0.309248 -0.00414263 -0.236393 -0.321648 0.00610401 -0.237553 
-0.312378 0.00356449 -0.236929 -0.304093 0.00467105 -0.234071 -0.315608 0.0117043 -0.237185 
-0.306736 0.00968395 -0.234855 -0.31829 0.0161847 -0.237822 -0.311293 0.0140479 -0.236412 
-0.313478 0.0192659 -0.23521 -0.3156 0.0255736 -0.235968 -0.308249 -0.0203833 -0.232894 
-0.303402 -0.00793517 -0.233778 -0.305965 -0.00491592 -0.231616 -0.298298 -0.00359208 -0.231799 
-0.333107 0.00340975 -0.232955 -0.304676 0.000325025 -0.233514 -0.299833 0.000815917 -0.231441 
-0.314315 0.00353459 -0.231406 -0.299187 0.00524794 -0.231972 -0.304392 0.00770488 -0.234016 
-0.301466 0.00905297 -0.231602 -0.304856 0.0118251 -0.233731 -0.298342 0.0122036 -0.231176 
-0.332746 -0.0506017 -0.2317 -0.312157 -0.0362316 -0.231138 -0.293433 -0.0166476 -0.228591 
-0.293873 -0.0114625 -0.229385 -0.288588 -0.00798542 -0.22754 -0.291416 -0.00420919 -0.227785 
-0.295221 0.00356278 -0.230258 -0.293841 0.00968638 -0.229436 -0.290344 0.0091624 -0.227993 
-0.292518 0.0188627 -0.227642 -0.305956 -0.0440846 -0.225278 -0.284133 -0.0105314 -0.22539 
-0.279364 -0.000282164 -0.223914 -0.286632 0.0102698 -0.226362 -0.2843 0.00744666 -0.225554 
-0.28458 0.0121821 -0.225369 -0.295765 0.0309279 -0.225045 -0.304914 0.0381968 -0.226335 
-0.281035 -0.00637267 -0.223331 -0.275401 -0.00804698 -0.221981 -0.273875 -0.00381783 -0.221484 
-0.277427 0.00313465 -0.222936 -0.274584 0.000628478 -0.221898 -0.274747 0.00385031 -0.221778 
-0.280444 0.0110749 -0.222652 -0.283947 0.0157901 -0.223557 -0.275386 0.0164746 -0.220865 
-0.280557 0.0226296 -0.221978 -0.282557 0.0250587 -0.22227 -0.337447 -0.0652761 -0.219563 
-0.309137 -0.052601 -0.221718 -0.273072 -0.0162788 -0.219022 -0.26891 -0.0110946 -0.218942 
-0.274537 -0.00147415 -0.219734 -0.273816 0.00745788 -0.220124 -0.273927 0.0125049 -0.21986 
-0.27776 0.0202258 -0.220135 -0.280177 0.0268565 -0.218782 -0.260248 -0.017978 -0.214498 
-0.266999 -0.0175621 -0.216228 -0.260602 -0.0138963 -0.214048 -0.262444 -0.0109771 -0.21624 
-0.255419 -0.00946296 -0.213453 -0.255913 -0.00109554 -0.214029 -0.263552 0.0049608 -0.215924 
-0.256468 0.00443358 -0.212949 -0.262725 0.00976437 -0.214831 -0.258389 0.00842252 -0.21466 
-0.262066 0.013659 -0.215759 -0.257479 0.011711 -0.21413 -0.25963 0.0164713 -0.214311 
-0.2574 0.0145603 -0.213193 -0.304033 0.0558501 -0.217226 -0.257413 -0.0198302 -0.211864 
-0.251501 -0.0146273 -0.211017 -0.256307 -0.00494464 -0.210084 -0.251469 -0.0041944 -0.212027 
-0.248134 -0.00691515 -0.210505 -0.249262 -0.000754842 -0.210116 -0.245356 -0.00193585 -0.209556 
-0.252647 0.000320597 -0.212597 -0.249642 0.00495333 -0.210035 -0.252546 0.00728984 -0.212265 
-0.249985 0.00986346 -0.211071 -0.254275 0.0112671 -0.21173 -0.247435 0.0118259 -0.209834 
-0.253181 0.0161339 -0.21054 -0.257067 0.0176503 -0.21228 -0.249871 0.0203763 -0.209594 
-0.290017 0.0561209 -0.211926 -0.256722 -0.040516 -0.206999 -0.257099 -0.0355488 -0.207835 
-0.252397 -0.0303037 -0.207345 -0.248464 -0.0276675 -0.207568 -0.261938 -0.0171206 -0.209857 
-0.26322 -0.0125684 -0.209158 -0.248654 -0.0125454 -0.208904 -0.243809 -0.0123299 -0.208297 
-0.244359 -0.0099626 -0.20619 -0.241584 -0.00606774 -0.207774 -0.242329 -0.00085317 -0.20717 
-0.246422 0.00089637 -0.207834 -0.243699 0.00271732 -0.208714 -0.240539 0.00312963 -0.207304 
-0.240478 0.0073261 -0.207176 -0.246614 0.00834225 -0.207949 -0.239323 0.0101572 -0.206595 
-0.242555 0.0109357 -0.20792 -0.247936 0.0169061 -0.20806 -0.258767 -0.0463582 -0.205581 
-0.24063 -0.0213754 -0.205653 -0.231374 -0.0147338 -0.20272 -0.236404 -0.0119361 -0.204695 
-0.234745 -0.00528912 -0.203777 -0.237682 0.00446679 -0.204759 -0.234923 0.00808289 -0.204829 
-0.23256 0.0106226 -0.202632 -0.240254 0.0154778 -0.205233 -0.231953 0.0150402 -0.202872 
-0.227525 -0.0191485 -0.2006 -0.228486 -0.0137645 -0.201571 -0.223003 -0.0129252 -0.199074 
-0.254449 -0.00775731 -0.19989 -0.23302 -0.00941698 -0.200286 -0.22371 -0.00862219 -0.199993 
-0.227403 -0.00608119 -0.201752 -0.224591 -0.00525972 -0.200647 -0.22652 -0.00170986 -0.200461 
-0.224836 0.0023674 -0.200384 -0.227841 0.00413949 -0.201967 -0.228363 0.00882023 -0.202073 
-0.225925 0.0110847 -0.199763 -0.23212 0.0263979 -0.201118 -0.225368 -0.0162391 -0.198919 
-0.216101 -0.0144726 -0.196273 -0.220702 -0.0102149 -0.197233 -0.212298 0.00142611 -0.195452 
-0.227455 0.00449665 -0.196095 -0.213466 0.00574905 -0.1959 -0.221628 0.0127857 -0.197721 
-0.217774 0.0117626 -0.197292 -0.223617 -0.030249 -0.195504 -0.211614 -0.0223142 -0.192309 
-0.214006 -0.0201042 -0.194793 -0.213678 -0.0159767 -0.195083 -0.207549 0.00210537 -0.193448 
-0.20654 0.0050182 -0.193009 -0.211037 0.00749072 -0.194863 -0.202879 -0.00826225 -0.191329 
-0.198115 -0.0069266 -0.189118 -0.199354 0.00203552 -0.188919 -0.197547 0.00593936 -0.189085 
[...]
POINT_DATA 821
FIELD FieldData 7
id 1 821 int
912 910 919 909 918 915 53 98 48 
164 103 92 95 130 112 168 34 174 
81 110 137 122 141 196 26 140 352 
193 121 163 186 68 219 177 324 114 
178 150 148 151 82 104 118 179 79 
202 188 138 171 132 189 129 265 180 
294 123 107 187 183 198 49 158 119 
106 134 225 70 159 213 210 142 154 
204 157 127 160 83 195 72 144 251 
305 166 136 116 156 278 105 115 169 
234 229 277 184 170 199 244 221 307 
241 109 228 99 200 201 250 208 215 
185 205 64 289 223 135 270 124 143 
252 212 272 146 181 167 211 182 254 
317 191 161 209 175 96 290 165 152 
284 280 296 418 297 172 149 293 233 
295 288 438 197 236 329 298 224 155 
222 321 256 368 253 306 276 337 299 
316 255 399 261 275 206 242 128 264 
348 217 308 9 220 263 259 322 245 
446 249 287 363 230 226 377 332 422 
353 267 218 447 273 354 395 327 281 
214 262 314 192 282 386 260 304 303 
339 292 266 232 310 90 390 343 429 
366 283 405 381 194 347 320 269 274 
423 243 227 330 235 333 349 388 331 
300 248 311 240 367 271 203 382 238 
433 285 318 315 362 409 286 246 340 
231 407 279 470 344 335 439 371 372 
492 258 216 247 237 387 427 370 351 
291 323 302 378 257 239 430 456 313 
411 336 401 309 384 268 341 389 455 
450 414 350 358 396 476 338 421 441 
424 444 374 355 462 403 397 365 398 
326 490 440 417 466 416 328 408 428 
453 400 404 473 356 425 475 406 522 
471 346 301 483 325 479 454 420 497 
459 448 394 361 373 434 488 511 375 
360 468 504 334 484 319 345 489 385 
474 478 359 437 519 451 392 445 380 
469 496 481 452 415 531 493 442 376 
494 509 508 463 458 499 393 485 431 
312 342 357 500 391 554 559 546 364 
530 486 538 487 413 383 419 412 435 
558 503 521 477 410 624 491 482 552 
548 379 460 498 369 547 507 600 555 
536 542 505 516 501 537 573 523 465 
562 495 464 502 556 541 449 512 524 
402 529 640 608 588 545 579 532 561 
517 525 520 515 582 598 527 467 571 
534 564 597 510 550 526 563 535 589 
595 528 557 612 514 572 426 461 551 
570 544 577 581 599 601 586 610 626 
590 605 506 540 566 443 585 533 631 
576 659 457 543 539 615 614 617 574 
549 620 636 602 623 578 616 603 621 
480 584 652 436 611 594 638 593 619 
672 607 662 668 664 650 653 634 569 
592 606 604 518 583 676 678 633 553 
683 568 565 647 649 658 632 637 628 
685 596 677 669 639 580 715 646 630 
591 657 575 691 675 567 645 663 635 
627 656 629 666 661 560 613 665 686 
648 689 654 625 643 708 513 694 705 
681 655 651 717 670 618 710 673 641 
734 644 687 740 704 674 622 587 695 
716 642 684 721 688 742 660 718 699 
690 752 747 757 702 692 667 739 609 
696 725 680 722 701 730 743 706 755 
766 726 720 729 432 744 748 727 697 
760 733 693 698 765 671 736 738 707 
723 759 735 778 780 768 751 711 709 
731 779 712 700 763 750 754 746 682 
737 749 775 767 756 679 753 703 758 
728 764 769 762 781 724 776 761 719 
741 745 472 773 732 771 714 772 713 
774 777 770 793 790 788 786 784 791 
787 783 789 792 794 782 785 804 805 
800 795 797 799 803 801 806 796 802 
798 816 807 817 808 815 818 814 810 
812 819 811 809 813 826 829 830 820 
823 824 831 825 827 828 822 842 836 
837 821 844 841 833 840 839 843 835 
832 838 834 845 851 848 850 847 855 
852 846 857 854 856 849 853 858 868 
869 861 859 865 862 866 867 863 864 
860 879 875 880 878 882 873 870 881 
871 877 874 872 876 895 885 887 888 
891 894 890 892 884 893 889 883 906 
900 905 907 886 896 903 908 901 902 
904 917 897 899 913 898 921 916 914 
920 911 
type 1 821 int
1 1 1 1 1 1 1 1 1 
1 1 1 1 1 1 1 1 1 
1 1 1 1 1 1 1 1 1 
1 1 1 1 1 1 1 1 1 
1 1 1 1 1 1 1 1 1 
1 1 1 1 1 1 1 1 1 
1 1 1 1 1 1 1 1 1 
1 1 1 1 1 1 1 1 1 
1 1 1 1 1 1 1 1 1 
1 1 1 1 1 1 1 1 1 
1 1 1 1 1 1 1 1 1 
1 1 1 1 1 1 1 1 1 
1 1 1 1 1 1 1 1 1 
1 1 1 1 1 1 1 1 1 
1 1 1 1 1 1 1 1 1 
1 1 1 1 1 1 1 1 1 
1 1 1 1 1 1 1 1 1 
1 1 1 1 1 1 1 1 1 
1 1 1 1 1 1 1 1 1 
1 1 1 1 1 1 1 1 1 
1 1 1 1 1 1 1 1 1 
1 1 1 1 1 1 1 1 1 
1 1 1 1 1 1 1 1 1 
1 1 1 1 1 1 1 1 1 
1 1 1 1 1 1 1 1 1 
1 1 1 1 1 1 1 1 1 
1 1 1 1 1 1 1 1 1 
1 1 1 1 1 1 1 1 1 
1 1 1 1 1 1 1 1 1 
1 1 1 1 1 1 1 1 1 
1 1 1 1 1 1 1 1 1 
1 1 1 1 1 1 1 1 1 
1 1 1 1 1 1 1 1 1 
1 1 1 1 1 1 1 1 1 
1 1 1 1 1 1 1 1 1 
1 1 1 1 1 1 1 1 1 
1 1 1 1 1 1 1 1 1 
1 1 1 1 1 1 1 1 1 
1 1 1 1 1 1 1 1 1 
1 1 1 1 1 1 1 1 1 
1 1 1 1 1 1 1 1 1 
1 1 1 1 1 1 1 1 1 
1 1 1 1 1 1 1 1 1 
1 1 1 1 1 1 1 1 1 
1 1 1 1 1 1 1 1 1 
1 1 1 1 1 1 1 1 1 
1 1 1 1 1 1 1 1 1 
1 1 1 1 1 1 1 1 1 
1 1 1 1 1 1 1 1 1 
1 1 1 1 1 1 1 1 1 
1 1 1 1 1 1 1 1 1 
1 1 1 1 1 1 1 1 1 
1 1 1 1 1 1 1 1 1 
1 1 1 1 1 1 1 1 1 
1 1 1 1 1 1 1 1 1 
1 1 1 1 1 1 1 1 1 
1 1 1 1 1 1 1 1 1 
1 1 1 1 1 1 1 1 1 
1 1 1 1 1 1 1 1 1 
1 1 1 1 1 1 1 1 1 
1 1 1 1 1 1 1 1 1 
1 1 1 1 1 1 1 1 1 
1 1 1 1 1 1 1 1 1 
1 1 1 1 1 1 1 1 1 
1 1 1 1 1 1 1 1 1 
1 1 1 1 1 1 1 1 1 
1 1 1 1 1 1 1 1 1 
1 1 1 1 1 1 1 1 1 
1 1 1 1 1 1 1 1 1 
1 1 1 1 1 1 1 1 1 
1 1 1 1 1 1 1 1 1 
1 1 1 1 1 1 1 1 1 
1 1 1 1 1 1 1 1 1 
1 1 1 1 1 1 1 1 1 
1 1 1 1 1 1 1 1 1 
1 1 1 1 1 1 1 1 1 
1 1 1 1 1 1 1 1 1 
1 1 1 1 1 1 1 1 1 
1 1 1 1 1 1 1 1 1 
1 1 1 1 1 1 1 1 1 
1 1 1 1 1 1 1 1 1 
1 1 1 1 1 1 1 1 1 
1 1 1 1 1 1 1 1 1 
1 1 1 1 1 1 1 1 1 
1 1 1 1 1 1 1 1 1 
1 1 1 1 1 1 1 1 1 
1 1 1 1 1 1 1 1 1 
1 1 1 1 1 1 1 1 1 
1 1 1 1 1 1 1 1 1 
1 1 1 1 1 1 1 1 1 
1 1 1 1 1 1 1 1 1 
1 1 
i 3 821 int
0 0 0 0 0 0 0 0 0 
0 0 0 0 0 0 0 0 0 
0 0 0 0 0 0 0 0 0 
0 0 0 0 0 0 0 0 0 
0 0 0 0 0 0 0 0 0 
0 0 0 0 0 0 0 0 0 
0 0 0 0 0 0 0 0 0 
0 0 0 0 0 0 0 0 0 
0 0 0 0 0 0 0 0 0 
0 0 0 0 0 0 0 0 0 
0 0 0 0 0 0 0 0 0 
0 0 0 0 0 0 0 0 0 
0 0 0 0 0 0 0 0 0 
0 0 0 0 0 0 0 0 0 
0 0 0 0 0 0 0 0 0 
0 0 0 0 0 0 0 0 0 
0 0 0 0 0 0 0 0 0 
0 0 0 0 0 0 0 0 0 
0 0 0 0 0 0 0 0 0 
0 0 0 0 0 0 0 0 0 
0 0 0 0 0 0 0 0 0 
0 0 0 0 0 0 0 0 0 
0 0 0 0 0 0 0 0 0 
0 0 0 0 0 0 0 0 0 
0 0 0 0 0 0 0 0 0 
0 0 0 0 0 0 0 0 0 
0 0 0 0 0 0 0 0 0 
0 0 0 0 0 0 0 0 0 
0 0 0 0 0 0 0 0 0 
0 0 0 0 0 0 0 0 0 
0 0 0 0 0 0 0 0 0 
0 0 0 0 0 0 0 0 0 
0 0 0 0 0 0 0 0 0 
0 0 0 0 0 0 0 0 0 
0 0 0 0 0 0 0 0 0 
0 0 0 0 0 0 0 0 0 
0 0 0 0 0 0 0 0 0 
0 0 0 0 0 0 0 0 0 
0 0 0 0 0 0 0 0 0 
0 0 0 0 0 0 0 0 0 
0 0 0 0 0 0 0 0 0 
0 0 0 0 0 0 0 0 0 
0 0 0 0 0 0 0 0 0 
0 0 0 0 0 0 0 0 0 
0 0 0 0 0 0 0 0 0 
0 0 0 0 0 0 0 0 0 
0 0 0 0 0 0 0 0 0 
0 0 0 0 0 0 0 0 0 
0 0 0 0 0 0 0 0 0 
0 0 0 0 0 0 0 0 0 
0 0 0 0 0 0 0 0 0 
0 0 0 0 0 0 0 0 0 
0 0 0 0 0 0 0 0 0 
0 0 0 0 0 0 0 0 0 
0 0 0 0 0 0 0 0 0 
0 0 0 0 0 0 0 0 0 
0 0 0 0 0 0 0 0 0 
0 0 0 0 0 0 0 0 0 
0 0 0 0 0 0 0 0 0 
0 0 0 0 0 0 0 0 0 
0 0 0 0 0 0 0 0 0 
0 0 0 0 0 0 0 0 0 
0 0 0 0 0 0 0 0 0 
0 0 0 0 0 0 0 0 0 
0 0 0 0 0 0 0 0 0 
0 0 0 0 0 0 0 0 0 
0 0 0 0 0 0 0 0 0 
0 0 0 0 0 0 0 0 0 
0 0 0 0 0 0 0 0 0 
0 0 0 0 0 0 0 0 0 
0 0 0 0 0 0 0 0 0 
0 0 0 0 0 0 0 0 0 
0 0 0 0 0 0 0 0 0 
0 0 0 0 0 0 0 0 0 
0 0 0 0 0 0 0 0 0 
0 0 0 0 0 0 0 0 0 
0 0 0 0 0 0 0 0 0 
0 0 0 0 0 0 0 0 0 
0 0 0 0 0 0 0 0 0 
0 0 0 0 0 0 0 0 0 
0 0 0 0 0 0 0 0 0 
0 0 0 0 0 0 0 0 0 
0 0 0 0 0 0 0 0 0 
0 0 0 0 0 0 0 0 0 
0 0 0 0 0 0 0 0 0 
0 0 0 0 0 0 0 0 0 
0 0 0 0 0 0 0 0 0 
0 0 0 0 0 0 0 0 0 
0 0 0 0 0 0 0 0 0 
0 0 0 0 0 0 0 0 0 
0 0 0 0 0 0 0 0 0 
0 0 0 0 0 0 0 0 0 
0 0 0 0 0 0 0 0 0 
0 0 0 0 0 0 0 0 0 
0 0 0 0 0 0 0 0 0 
0 0 0 0 0 0 0 0 0 
0 0 0 0 0 0 0 0 0 
0 0 0 0 0 0 0 0 0 
0 0 0 0 0 0 0 0 0 
0 0 0 0 0 0 0 0 0 
0 0 0 0 0 0 0 0 0 
0 0 0 0 0 0 0 0 0 
0 0 0 0 0 0 0 0 0 
0 0 0 0 0 0 0 0 0 
0 0 0 0 0 0 0 0 0 
0 0 0 0 0 0 0 0 0 
0 0 0 0 0 0 0 0 0 
0 0 0 0 0 0 0 0 0 
0 0 0 0 0 0 0 0 0 
0 0 0 0 0 0 0 0 0 
0 0 0 0 0 0 0 0 0 
0 0 0 0 0 0 0 0 0 
0 0 0 0 0 0 0 0 0 
0 0 0 0 0 0 0 0 0 
0 0 0 0 0 0 0 0 0 
0 0 0 0 0 0 0 0 0 
0 0 0 0 0 0 0 0 0 
0 0 0 0 0 0 0 0 0 
0 0 0 0 0 0 0 0 0 
0 0 0 0 0 0 0 0 0 
0 0 0 0 0 0 0 0 0 
0 0 0 0 0 0 0 0 0 
0 0 0 0 0 0 0 0 0 
0 0 0 0 0 0 0 0 0 
0 0 0 0 0 0 0 0 0 
0 0 0 0 0 0 0 0 0 
0 0 0 0 0 0 0 0 0 
0 0 0 0 0 0 0 0 0 
0 0 0 0 0 0 0 0 0 
0 0 0 0 0 0 0 0 0 
0 0 0 0 0 0 0 0 0 
0 0 0 0 0 0 0 0 0 
0 0 0 0 0 0 0 0 0 
0 0 0 0 0 0 0 0 0 
0 0 0 0 0 0 0 0 0 
0 0 0 0 0 0 0 0 0 
0 0 0 0 0 0 0 0 0 
0 0 0 0 0 0 0 0 0 
0 0 0 0 0 0 0 0 0 
0 0 0 0 0 0 0 0 0 
0 0 0 0 0 0 0 0 0 
0 0 0 0 0 0 0 0 0 
0 0 0 0 0 0 0 0 0 
0 0 0 0 0 0 0 0 0 
0 0 0 0 0 0 0 0 0 
0 0 0 0 0 0 0 0 0 
0 0 0 0 0 0 0 0 0 
0 0 0 0 0 0 0 0 0 
0 0 0 0 0 0 0 0 0 
0 0 0 0 0 0 0 0 0 
0 0 0 0 0 0 0 0 0 
0 0 0 0 0 0 0 0 0 
0 0 0 0 0 0 0 0 0 
0 0 0 0 0 0 0 0 0 
0 0 0 0 0 0 0 0 0 
0 0 0 0 0 0 0 0 0 
0 0 0 0 0 0 0 0 0 
0 0 0 0 0 0 0 0 0 
0 0 0 0 0 0 0 0 0 
0 0 0 0 0 0 0 0 0 
0 0 0 0 0 0 0 0 0 
0 0 0 0 0 0 0 0 0 
0 0 0 0 0 0 0 0 0 
0 0 0 0 0 0 0 0 0 
0 0 0 0 0 0 0 0 0 
0 0 0 0 0 0 0 0 0 
0 0 0 0 0 0 0 0 0 
0 0 0 0 0 0 0 0 0 
0 0 0 0 0 0 0 0 0 
0 0 0 0 0 0 0 0 0 
0 0 0 0 0 0 0 0 0 
0 0 0 0 0 0 0 0 0 
0 0 0 0 0 0 0 0 0 
0 0 0 0 0 0 0 0 0 
0 0 0 0 0 0 0 0 0 
0 0 0 0 0 0 0 0 0 
0 0 0 0 0 0 0 0 0 
0 0 0 0 0 0 0 0 0 
0 0 0 0 0 0 0 0 0 
0 0 0 0 0 0 0 0 0 
0 0 0 0 0 0 0 0 0 
0 0 0 0 0 0 0 0 0 
0 0 0 0 0 0 0 0 0 
0 0 0 0 0 0 0 0 0 
0 0 0 0 0 0 0 0 0 
0 0 0 0 0 0 0 0 0 
0 0 0 0 0 0 0 0 0 
0 0 0 0 0 0 0 0 0 
0 0 0 0 0 0 0 0 0 
0 0 0 0 0 0 0 0 0 
0 0 0 0 0 0 0 0 0 
0 0 0 0 0 0 0 0 0 
0 0 0 0 0 0 0 0 0 
0 0 0 0 0 0 0 0 0 
0 0 0 0 0 0 0 0 0 
0 0 0 0 0 0 0 0 0 
0 0 0 0 0 0 0 0 0 
0 0 0 0 0 0 0 0 0 
0 0 0 0 0 0 0 0 0 
0 0 0 0 0 0 0 0 0 
0 0 0 0 0 0 0 0 0 
0 0 0 0 0 0 0 0 0 
0 0 0 0 0 0 0 0 0 
0 0 0 0 0 0 0 0 0 
0 0 0 0 0 0 0 0 0 
0 0 0 0 0 0 0 0 0 
0 0 0 0 0 0 0 0 0 
0 0 0 0 0 0 0 0 0 
0 0 0 0 0 0 0 0 0 
0 0 0 0 0 0 0 0 0 
0 0 0 0 0 0 0 0 0 
0 0 0 0 0 0 0 0 0 
0 0 0 0 0 0 0 0 0 
0 0 0 0 0 0 0 0 0 
0 0 0 0 0 0 0 0 0 
0 0 0 0 0 0 0 0 0 
0 0 0 0 0 0 0 0 0 
0 0 0 0 0 0 0 0 0 
0 0 0 0 0 0 0 0 0 
0 0 0 0 0 0 0 0 0 
0 0 0 0 0 0 0 0 0 
0 0 0 0 0 0 0 0 0 
0 0 0 0 0 0 0 0 0 
0 0 0 0 0 0 0 0 0 
0 0 0 0 0 0 0 0 0 
0 0 0 0 0 0 0 0 0 
0 0 0 0 0 0 0 0 0 
0 0 0 0 0 0 0 0 0 
0 0 0 0 0 0 0 0 0 
0 0 0 0 0 0 0 0 0 
0 0 0 0 0 0 0 0 0 
0 0 0 0 0 0 0 0 0 
0 0 0 0 0 0 0 0 0 
0 0 0 0 0 0 0 0 0 
0 0 0 0 0 0 0 0 0 
0 0 0 0 0 0 0 0 0 
0 0 0 0 0 0 0 0 0 
0 0 0 0 0 0 0 0 0 
0 0 0 0 0 0 0 0 0 
0 0 0 0 0 0 0 0 0 
0 0 0 0 0 0 0 0 0 
0 0 0 0 0 0 0 0 0 
0 0 0 0 0 0 0 0 0 
0 0 0 0 0 0 0 0 0 
0 0 0 0 0 0 0 0 0 
0 0 0 0 0 0 0 0 0 
0 0 0 0 0 0 0 0 0 
0 0 0 0 0 0 0 0 0 
0 0 0 0 0 0 0 0 0 
0 0 0 0 0 0 0 0 0 
0 0 0 0 0 0 0 0 0 
0 0 0 0 0 0 0 0 0 
0 0 0 0 0 0 0 0 0 
0 0 0 0 0 0 0 0 0 
0 0 0 0 0 0 0 0 0 
0 0 0 0 0 0 0 0 0 
0 0 0 0 0 0 0 0 0 
0 0 0 0 0 0 0 0 0 
0 0 0 0 0 0 0 0 0 
0 0 0 0 0 0 0 0 0 
0 0 0 0 0 0 0 0 0 
0 0 0 0 0 0 0 0 0 
0 0 0 0 0 0 0 0 0 
0 0 0 0 0 0 0 0 0 
0 0 0 0 0 0 0 0 0 
0 0 0 0 0 0 0 0 0 
0 0 0 0 0 0 0 0 0 
0 0 0 0 0 0 0 0 0 
0 0 0 0 0 0 0 0 0 
0 0 0 0 0 0 0 0 0 
0 0 0 0 0 0 0 0 0 
0 0 0 0 0 0 0 0 0 
0 0 0 0 0 0 0 0 0 
0 0 0 0 0 0 
v 3 821 double
0 0 -1 0 0 -1 0 0 -1 
0 0 -1 0 0 -1 0 0 -1 
-1.03658 0.023447 -1.83973 -1.00833 0.123384 -1.80383 -1.13289 -0.046527 -1.81022 
-1.06593 -0.00967344 -1.80832 -1.15359 0.0736842 -1.81526 -0.987541 0.0691962 -1.78971 
-1.13553 0.086544 -1.79402 -1.11349 0.0452111 -1.76805 -1.10516 0.0584267 -1.78095 
-1.16879 0.0348261 -1.81493 -1.0136 0.0414833 -1.71865 -1.07261 0.138848 -1.69176 
-1.29489 -0.263443 -1.77575 -0.969303 0.0176072 -1.66851 -1.07999 0.0605004 -1.68842 
-1.17675 -0.15996 -1.68048 -1.24198 0.142669 -1.70099 -1.00493 -0.0311408 -1.6439 
-1.09378 0.0507524 -1.62405 -1.19959 0.153059 -1.65517 -1.32811 0.0484367 -1.75226 
-1.15975 -0.153784 -1.64792 -1.10591 -0.132975 -1.58672 -1.02681 0.0189348 -1.5426 
-1.05533 0.007542 -1.53316 -1.10271 -0.0877169 -1.48664 -1.17393 -0.0607533 -1.58943 
-1.00914 0.0655862 -1.52203 -1.38782 0.160646 -1.8063 -1.0947 -0.0154384 -1.47189 
-1.06282 0.127956 -1.4732 -1.11336 0.0338284 -1.4355 -1.31357 0.000381016 -1.53421 
-1.1941 -0.0777868 -1.45582 -0.79908 0.192353 -1.57928 -1.06358 0.0776617 -1.4001 
-1.01284 -0.0123211 -1.4151 -1.06987 0.0163512 -1.41223 -1.0787 0.0773545 -1.40768 
-0.946199 0.0777158 -1.41857 -1.02364 0.0282604 -1.43678 -0.985408 0.0234253 -1.41588 
-0.971636 0.139356 -1.38539 -1.09571 0.0247785 -1.34987 -1.132 0.118265 -1.33041 
-1.0424 0.0342252 -1.34221 -1.08578 -0.0401915 -1.33345 -1.00344 0.0310623 -1.3399 
-1.09481 -0.087535 -1.38497 -1.17652 0.0340392 -1.31613 -0.977451 0.0123217 -1.30123 
-0.86721 0.108018 -1.25607 -1.1543 0.0308153 -1.32495 -1.11153 -0.0813879 -1.2936 
-0.926415 -0.0261929 -1.23498 -1.14753 -0.0645282 -1.27501 -1.14175 -0.0597273 -1.30763 
-1.02132 0.00715958 -1.3061 -1.20975 0.099159 -1.26016 -1.14716 0.239158 -1.29003 
-1.08607 0.0934356 -1.19914 -1.05663 0.0271079 -1.13962 -0.975709 0.0836101 -1.2453 
-1.30201 -0.127471 -1.25462 -1.04824 -0.128336 -1.21773 -0.984574 -0.0756637 -1.22965 
-0.906767 -0.0245925 -1.24014 -1.22921 0.113399 -1.22529 -0.971564 -0.0522209 -1.1958 
-0.964999 0.0272735 -1.16285 -0.943879 0.0327751 -1.17694 -0.97989 -0.14697 -1.1316 
-1.2045 -0.276607 -1.24117 -0.959124 -0.0856707 -1.15409 -1.175 -0.275441 -1.35162 
-1.20634 0.31037 -1.34958 -0.958266 -0.116579 -1.08697 -1.13301 0.0485565 -1.14434 
-1.08291 0.0449325 -1.11358 -0.980062 -0.0645597 -1.12759 -0.972702 -0.107829 -1.09668 
-0.943774 -0.164468 -1.06644 -0.971009 -0.0364512 -1.09081 -1.04128 -0.0541165 -1.06368 
-1.26197 -0.0842652 -1.16407 -1.14597 0.0596474 -1.03581 -1.09055 -0.128932 -1.06649 
-0.938482 0.0116519 -1.00781 -1.05324 -0.00685462 -1.04454 -1.1201 0.0296316 -1.04458 
-1.0244 0.0231564 -0.993429 -1.08177 -0.00368252 -0.998363 -1.34373 0.117182 -1.11189 
-0.860906 -0.0297012 -0.943775 -0.976797 0.096977 -0.90902 -1.12839 0.00292622 -0.988281 
-0.986592 0.00842437 -0.939737 -1.1256 -0.169277 -1.01917 -1.14229 0.257386 -1.04734 
-0.845192 0.0269881 -0.776845 -1.02444 -0.0416777 -0.946076 -0.735834 0.0629673 -1.01848 
-1.15873 0.308163 -0.989596 -1.02242 0.1122 -0.943516 -0.987107 -0.0621105 -0.817161 
-1.19926 -0.149876 -0.905812 -1.23335 0.0213085 -0.863109 -0.891318 0.0197102 -0.826413 
-0.930709 0.00640582 -0.791183 -0.934905 0.00906679 -0.773091 -0.978261 0.0146498 -0.820294 
-1.02063 0.0942051 -0.909344 -1.0718 -0.00770656 -0.852888 -1.02834 0.0389882 -0.788898 
-1.05551 -0.0722161 -0.755024 -1.03141 -0.0509235 -0.752483 -0.861713 -0.00419694 -0.738442 
-0.917824 0.00464036 -0.909517 -1.06477 0.0943245 -0.764306 -0.980942 0.0759321 -0.708744 
-1.08006 -0.0290875 -0.802439 -1.1357 0.0258527 -0.815018 -1.17737 0.0101711 -0.768852 
-0.907631 0.0914391 -0.683187 -1.00968 0.0505519 -0.710467 -1.07613 0.0656212 -0.752625 
-1.17869 -0.0510789 -0.832412 -1.23285 0.189699 -0.778029 -1.03103 0.0609834 -0.671124 
-1.11874 0.0665628 -0.672927 -1.15653 0.00508291 -0.704509 -1.08758 -0.0598513 -0.693378 
-1.12921 -0.0492224 -0.728036 -1.02322 0.0727472 -0.643435 -1.05187 0.0244488 -0.612209 
-1.01209 0.11951 -0.613094 -1.10221 -0.101197 -0.544349 -1.0923 -0.0309608 -0.578493 
-1.1587 0.0201664 -0.583393 -1.15534 0.411154 -0.70384 -1.07359 -0.122473 -0.520483 
-1.01812 0.00493514 -0.439041 -1.13416 0.0313639 -0.525222 -1.0093 0.0520577 -0.410083 
-1.09752 0.0664032 -0.606236 -0.920183 -0.442616 -0.499577 -1.03093 -0.382752 -0.600956 
-1.18456 0.0800078 -0.5029 -1.01653 -0.158445 -0.455394 -1.02108 -0.161394 -0.504693 
-0.998662 -0.0751622 -0.410219 -1.0488 -0.0906422 -0.487788 -1.23017 -0.258379 -0.640555 
-0.98885 -0.0198163 -0.389464 -1.02798 -0.0274358 -0.443849 -1.02421 -0.0783084 -0.398868 
-0.821264 -0.0129662 -0.319551 -1.08306 0.144022 -0.461785 -1.287 -0.151725 -0.70142 
-1.00703 -0.0959988 -0.453863 -0.790925 0.0163628 -0.342333 -0.966701 -0.0172161 -0.462877 
-0.990373 -0.167006 -0.426628 -1.09374 -0.0559933 -0.468314 -0.985871 -0.0255514 -0.41656 
-1.05573 -0.0379764 -0.44823 -1.23081 -0.138735 -0.540819 -1.1247 0.28307 -0.572204 
-0.872878 0.0133819 -0.368654 -1.06955 -0.0466824 -0.37685 -0.731592 -0.0298969 -0.330756 
-1.38242 0.129267 -0.410527 -0.838845 -0.00620834 -0.353949 -0.847872 0.0112174 -0.357215 
-1.20233 -0.0715096 -0.269939 -0.902671 0.0486378 -0.3778 -1.01155 0.0530663 -0.408521 
-0.985037 -0.0282867 -0.427632 -0.997789 -0.150159 -0.366567 -1.00612 0.0131988 -0.423003 
-1.21083 0.347387 -0.704453 -1.04084 0.0676703 -0.410541 -1.10092 0.0666296 -0.472138 
-1.01455 0.121073 -0.440013 -0.992697 -0.0316456 -0.413651 -1.04101 -0.0539093 -0.437586 
-1.16111 0.124017 -0.454347 -0.915379 0.0258349 -0.384925 -0.891839 -0.00682941 -0.377113 
-1.03022 -0.174978 -0.460304 -1.13417 0.292976 -0.657167 -0.872246 -0.000609849 -0.366949 
-0.998854 0.228794 -0.429347 -0.876046 -0.0361544 -0.414086 -0.935098 0.00467328 -0.393862 
-1.00385 0.0675603 -0.345678 -1.0966 -0.0534863 -0.478393 -1.2806 -0.223214 -0.573354 
-0.997462 0.194303 -0.427268 -0.962862 -0.152031 -0.40237 -0.867073 -0.102478 -0.359776 
-0.878295 -0.0147488 -0.361917 -0.849365 -0.0593655 -0.364159 -0.869976 -0.0139281 -0.361837 
-1.0215 0.0380942 -0.419445 -1.05949 -0.0748619 -0.466208 -1.09477 -0.232907 -0.492164 
-0.973346 -0.155072 -0.422827 -0.933702 -0.144305 -0.446281 -1.20429 0.377 -0.861479 
-1.16111 0.331793 -0.727418 -0.990563 -0.0377794 -0.414499 -0.734881 0.0347032 -0.31461 
-0.931409 -0.0864912 -0.404052 -0.962432 0.00876078 -0.397203 -0.996718 0.0195705 -0.424029 
-0.983145 -0.159955 -0.427609 -0.959458 -0.0866513 -0.356345 -0.857567 0.0200124 -0.365063 
-0.923068 -0.0259615 -0.490711 -0.892004 0.0157006 -0.375911 -0.889006 0.039864 -0.376075 
-0.866582 -0.0887394 -0.363017 -0.828072 -0.0547052 -0.348479 -0.866707 0.0412892 -0.369 
-0.752274 -0.0456984 -0.317008 -0.886416 0.0235362 -0.317528 -0.862751 -0.0407444 -0.362889 
-0.798368 0.0150496 -0.324794 -0.903279 -0.0205138 -0.381351 -0.875965 -0.0581733 -0.401521 
-0.879063 -0.0400878 -0.308195 -1.07252 -0.204411 -0.557408 -0.862532 0.0559667 -0.328658 
-0.723869 -0.0273771 -0.337079 -0.906966 0.0253561 -0.473448 -0.685474 -0.0140411 -0.287029 
-0.74595 -0.0457594 -0.282912 -0.763656 -0.0140071 -0.324597 -0.760105 0.0363069 -0.320385 
-0.778037 -0.0727323 -0.334065 -0.763465 0.00667744 -0.324653 -0.756237 0.0298979 -0.319822 
-0.906885 0.0176943 -0.378884 -0.903016 0.0395449 -0.375446 -0.805231 0.0685836 -0.317575 
-0.942356 0.0940436 -0.372658 -0.854769 -0.0103487 -0.362551 -0.7749 0.123085 -0.325525 
-1.20179 -0.0952399 -0.543173 -0.98452 0.130138 -0.420644 -0.993415 0.140054 -0.430577 
-1.02689 -0.0528638 -0.436079 -1.0582 -0.0263818 -0.433544 -0.981784 -0.0189047 -0.553808 
-1.22278 -0.0302433 -0.916728 -0.747626 0.0158077 -0.354424 -0.560976 0.0754682 -0.203936 
-0.868323 0.0407953 -0.255026 -0.678109 0.0045849 -0.285319 -0.755414 0.0609871 -0.324652 
-0.71506 0.0323938 -0.420297 -0.71625 0.0709197 -0.302172 -0.79169 -0.0334563 -0.297724 
-0.786757 0.194248 -0.329016 -0.801206 0.0392576 -0.311425 -0.770993 0.18744 -0.315524 
-0.74547 0.0570501 -0.309243 -0.858355 -0.029655 -0.37529 -1.02966 0.0904587 -0.398088 
-1.17143 0.13842 -0.561621 -0.920731 0.0482705 -0.398522 -0.865832 -0.04216 -0.42403 
-0.942542 0.00486218 -0.391508 -0.783119 0.0528081 -0.271273 -0.852908 0.0119102 -0.355033 
-0.858937 0.0355756 -0.35775 -0.978794 0.0254252 -0.39822 -0.946652 0.103873 -0.389134 
-0.902124 0.00807221 -0.365713 -0.907116 0.0398483 -0.391907 -0.799408 -0.0516807 -0.362959 
-1.29086 0.0387144 -0.188592 -0.849092 0.086692 -0.310404 -0.856979 -0.0134933 -0.367515 
-0.892082 -0.0405888 -0.367355 -0.889949 -0.0329422 -0.367279 -0.845929 -0.0474856 -0.363338 
-0.848112 -0.0911077 -0.35166 -0.868285 0.000599051 -0.372113 -0.844094 -0.0515341 -0.358954 
-0.877675 0.0258382 -0.371392 -0.921459 0.113854 -0.354698 -0.906823 0.0289428 -0.386301 
-0.884534 -0.0492207 -0.36028 -0.840065 -0.00952733 -0.34053 -0.806218 -0.0302125 -0.344344 
-1.16025 0.0713398 -0.303893 -0.942629 -0.0378016 -0.410064 -0.869396 0.0351008 -0.366378 
-0.880434 -0.0345145 -0.377248 -1.01648 -0.0078759 -0.436569 -0.840219 -0.0608747 -0.329803 
-0.825383 -0.0484435 -0.348256 -0.863758 -0.033919 -0.366134 -0.899983 -0.031149 -0.374506 
-0.885082 -0.0287074 -0.368269 -0.906906 -0.0668563 -0.377487 -0.883313 -0.0511208 -0.360072 
-0.728361 0.215 -0.345945 -0.933267 0.0946208 -0.402669 -0.767974 0.105429 -0.326164 
-0.897618 -0.0743953 -0.391476 -0.877346 -0.0475528 -0.379377 -1.00282 -0.0388279 -0.430669 
-0.796999 0.222752 -0.248223 -0.764395 0.0408716 -0.27721 -0.895882 -0.144809 -0.416524 
-0.821309 -0.068294 -0.319655 -0.847044 0.00817159 -0.363598 -0.77267 -0.044156 -0.329879 
-0.770305 0.0509685 -0.324109 -0.837326 -0.0295577 -0.336808 -0.817853 -0.0637735 -0.377793 