# vtk DataFile Version 4.0
Generated by LIGGGHTS
ASCII
DATASET POLYDATA
POINTS 774 float
-0.0328602 0.00689784 0.0572714 -0.0182067 -0.00921173 0.0555913 -0.493861 0.00634316 -0.399891 
-0.491092 -0.00701895 -0.390827 -0.480299 -0.00529057 -0.393085 -0.490716 0.00662935 -0.392621 
-0.487217 -0.0105016 -0.383602 -0.471093 0.00516931 -0.382418 -0.469097 -0.00413225 -0.381463 
-0.465654 0.00765463 -0.382011 -0.471328 0.00904749 -0.372715 -0.464816 0.00790245 -0.372804 
-0.465281 0.0127403 -0.371978 -0.457905 0.00245731 -0.362454 -0.453149 0.00062358 -0.361591 
-0.45771 0.00881937 -0.363726 -0.462753 0.0117713 -0.362587 -0.453582 0.00357913 -0.354086 
-0.444558 0.0255386 -0.353979 -0.460888 -0.00450787 -0.35288 -0.449589 -0.0069554 -0.349 
-0.453144 -0.000906621 -0.349186 -0.455689 0.0143386 -0.349202 -0.434234 -0.00161891 -0.342645 
-0.447409 0.0175737 -0.343553 -0.437436 -0.00841743 -0.338356 -0.430676 -0.000747735 -0.33371 
-0.430394 -0.0113089 -0.327849 -0.419204 0.00608017 -0.327583 -0.426463 -0.00840155 -0.324006 
-0.421147 0.00464825 -0.321595 -0.425591 -0.0102929 -0.320608 -0.416971 0.00171523 -0.317355 
-0.42025 -0.00750014 -0.3115 -0.408679 0.00281997 -0.31368 -0.415655 0.00933262 -0.313557 
-0.415118 0.0225032 -0.311101 -0.410464 0.010861 -0.308559 -0.410864 -0.0244656 -0.301193 
-0.408686 -0.00707629 -0.303062 -0.408062 -0.00220411 -0.30076 -0.412255 0.0222079 -0.300986 
-0.428192 -0.032287 -0.298788 -0.392978 -0.00581883 -0.296894 -0.401979 -0.000380767 -0.299317 
-0.41373 -0.0362542 -0.295124 -0.389864 -0.00886905 -0.29274 -0.396501 -0.00923566 -0.291623 
-0.394507 -0.00606774 -0.28953 -0.394147 -0.00329143 -0.290828 -0.395665 0.00960894 -0.291692 
-0.395121 -0.0234267 -0.285538 -0.393287 -0.0198326 -0.285214 -0.393979 -0.0131183 -0.28809 
-0.390934 -0.00753939 -0.286002 -0.39129 -0.00411279 -0.288147 -0.390919 0.0169145 -0.284237 
-0.380132 -0.0131227 -0.281007 -0.381612 -0.00125346 -0.279263 -0.381968 0.00399921 -0.280444 
-0.383057 0.015759 -0.281112 -0.380973 -0.02739 -0.275734 -0.377269 -0.0199696 -0.276286 
-0.381876 -0.0159608 -0.277213 -0.376627 0.00651374 -0.275792 -0.372948 0.00483283 -0.276411 
-0.375987 0.00949767 -0.276348 -0.367745 -0.0249698 -0.274213 -0.37792 -0.0205027 -0.270633 
-0.368222 -0.0144579 -0.271063 -0.370853 -0.0103272 -0.272616 -0.371821 0.00280303 -0.270976 
-0.374115 0.00847041 -0.27289 -0.369769 0.0072273 -0.272169 -0.363283 0.0161846 -0.271668 
-0.375372 -0.0235944 -0.26911 -0.366822 -0.00783967 -0.270006 -0.36864 0.000621713 -0.268532 
-0.367135 0.00863163 -0.268754 -0.367341 -0.0245633 -0.264561 -0.359404 -0.00956377 -0.263531 
-0.364781 -0.0293999 -0.26263 -0.366929 -0.0162238 -0.260655 -0.35973 0.00219042 -0.262323 
-0.358733 0.00739868 -0.262638 -0.362302 0.0106451 -0.260962 -0.359399 -0.0132041 -0.258742 
-0.356327 -0.00959197 -0.258486 -0.351293 0.000377978 -0.256263 -0.354527 0.00338741 -0.259181 
-0.345414 -0.00175332 -0.254141 -0.334841 0.00143084 -0.24837 -0.339905 0.00822289 -0.249112 
-0.339834 0.0123977 -0.249882 -0.332441 -0.0120543 -0.24571 -0.332477 -0.000358128 -0.245424 
-0.332849 0.00335133 -0.24684 -0.328304 0.00164653 -0.244676 -0.33219 0.00725493 -0.24624 
-0.334053 0.0120496 -0.24682 -0.339641 0.0198768 -0.247037 -0.370831 0.040948 -0.249118 
-0.338506 -0.0332812 -0.243145 -0.326215 -0.0147878 -0.242437 -0.324485 -0.0111741 -0.24115 
-0.328592 -0.00778857 -0.243171 -0.322653 -0.00672451 -0.241763 -0.323489 -0.00298612 -0.242347 
-0.323671 0.0018046 -0.241437 -0.325221 0.0067231 -0.24181 -0.329348 0.00918505 -0.243589 
-0.325071 0.0115394 -0.242522 -0.321145 0.0121293 -0.240791 -0.329946 0.0182113 -0.243613 
-0.327556 -0.026577 -0.240536 -0.323291 -0.0253209 -0.239239 -0.323698 -0.015795 -0.23947 
-0.318321 -0.00662774 -0.240021 -0.316809 -0.00932139 -0.239066 -0.317664 -0.00368917 -0.239939 
-0.31411 -0.00106132 -0.238554 -0.317278 0.00611611 -0.238457 -0.31855 0.00962132 -0.239859 
-0.313214 0.00792288 -0.237718 -0.317337 0.0130382 -0.238038 -0.311816 -0.012273 -0.235613 
-0.307196 -0.0122918 -0.234845 -0.304341 -0.00723588 -0.234214 -0.308043 -0.00260925 -0.234724 
-0.311126 0.00109866 -0.236175 -0.306869 0.00164636 -0.235439 -0.307676 0.00457714 -0.235595 
-0.308471 0.00863712 -0.23459 -0.313627 0.0108322 -0.234843 -0.311291 0.0137446 -0.23647 
-0.316419 0.0178007 -0.236728 -0.311588 0.0228763 -0.234817 -0.312286 -0.0309998 -0.232911 
-0.328726 -0.0312974 -0.232765 -0.309432 -0.0269474 -0.232876 -0.297435 -0.00841148 -0.231215 
-0.301682 -0.00476388 -0.232096 -0.303761 0.00944752 -0.232552 -0.299238 0.00863151 -0.230583 
-0.298271 0.0135848 -0.231058 -0.301289 -0.0200116 -0.230001 -0.289915 -0.00648856 -0.22707 
-0.317197 -0.00543253 -0.228724 -0.291139 -0.00314138 -0.228801 -0.288857 -0.000762186 -0.227906 
-0.291161 0.00201087 -0.228795 -0.292556 0.00701993 -0.22798 -0.295349 0.0119384 -0.228844 
-0.284983 -0.0195298 -0.224523 -0.285291 -0.0116217 -0.225744 -0.280849 -0.0088455 -0.224011 
-0.279855 -0.00130773 -0.222985 -0.285458 0.00664842 -0.224998 -0.281585 0.00927646 -0.222911 
-0.288879 0.011526 -0.226138 -0.279701 0.0129466 -0.223319 -0.283218 0.0138154 -0.2247 
-0.287441 0.0192596 -0.225495 -0.295026 0.0280776 -0.226805 -0.276964 -0.012137 -0.2222 
-0.279156 -0.00649452 -0.220834 -0.273611 -0.00226367 -0.221424 -0.276836 0.0021461 -0.220924 
-0.26955 0.0034666 -0.21961 -0.277023 0.0071377 -0.22146 -0.270867 0.014137 -0.219399 
-0.277885 0.0173035 -0.22178 -0.333414 0.0260206 -0.22255 -0.287117 0.0319488 -0.222275 
-0.28949 0.0355115 -0.221013 -0.271702 -0.0221623 -0.217392 -0.26725 -0.00723205 -0.217469 
-0.262261 -0.0103066 -0.21624 -0.281243 -0.00151877 -0.218275 -0.264744 -0.00293107 -0.216227 
-0.268004 0.0089952 -0.218675 -0.265248 0.00759314 -0.217586 -0.262673 0.00861906 -0.216443 
-0.264503 0.0109049 -0.217115 -0.265987 0.0144887 -0.217286 -0.305121 0.0571005 -0.216739 
-0.298803 -0.058305 -0.213791 -0.27089 -0.0365471 -0.214135 -0.263384 -0.0255897 -0.214172 
-0.256468 -0.0161123 -0.212733 -0.257081 -0.0129984 -0.213754 -0.260648 0.0112194 -0.215483 
-0.279705 0.0448719 -0.21443 -0.272303 -0.0436957 -0.212048 -0.257914 -0.0208546 -0.211813 
-0.254661 -0.00729103 -0.212149 -0.251761 -0.000327784 -0.212247 -0.247156 0.00306325 -0.21015 
-0.253778 0.0141968 -0.211091 -0.255471 0.0188246 -0.212196 -0.259764 0.0317731 -0.211139 
-0.245915 -0.0154885 -0.208648 -0.241981 -0.011395 -0.207569 -0.240591 -0.00850327 -0.207175 
-0.245162 -0.00660436 -0.208023 -0.241058 0.0101093 -0.207321 -0.230572 -0.0145574 -0.202123 
-0.235343 -0.00707355 -0.20497 -0.237209 -0.00350739 -0.204884 -0.234908 0.000919748 -0.203914 
-0.233894 0.0102136 -0.203249 -0.229249 0.0115382 -0.202188 -0.251772 -0.0519052 -0.200008 
-0.228705 -0.0267121 -0.199544 -0.230514 -0.00635217 -0.201484 -0.225009 -0.00613025 -0.200754 
-0.226292 0.00211903 -0.200269 -0.222266 0.0056926 -0.199582 -0.21916 0.00572798 -0.19829 
-0.222809 0.00877231 -0.199747 -0.227933 0.0142113 -0.200923 -0.22503 0.0137888 -0.200115 
-0.230637 0.0183632 -0.200781 -0.233505 0.0238047 -0.200963 -0.234668 0.0287313 -0.200466 
-0.23117 0.0325374 -0.199199 -0.248645 0.0491601 -0.199276 -0.225226 -0.0335365 -0.196588 
-0.218714 -0.0284178 -0.194975 -0.223928 -0.0231786 -0.19829 -0.273264 -0.0176507 -0.19983 
-0.231407 -0.0110464 -0.196359 -0.218775 -0.0084973 -0.197924 -0.213477 -0.00821674 -0.195754 
-0.227368 -0.00428557 -0.198111 -0.218853 -0.00306261 -0.197227 -0.220328 0.0108993 -0.197401 
-0.221836 0.0199297 -0.198025 -0.218552 0.0218456 -0.195315 -0.218266 0.0259303 -0.195442 
-0.240465 -0.059016 -0.19197 -0.211377 -0.0260418 -0.192502 -0.213507 -0.0185238 -0.194744 
-0.209401 -0.01973 -0.192861 -0.207183 -0.00457218 -0.193341 -0.207635 -0.000304064 -0.192419 
-0.209726 0.00299138 -0.194348 -0.217123 0.00387066 -0.192268 -0.213497 0.00556599 -0.193531 
-0.205788 0.00439182 -0.19272 -0.2081 0.00636695 -0.193649 -0.20703 0.009875 -0.192954 
-0.210727 0.0131567 -0.194179 -0.211883 0.021915 -0.193372 -0.216203 0.0285032 -0.193983 
-0.213786 -0.0404529 -0.188559 -0.202539 -0.0186964 -0.19008 -0.199553 0.000694373 -0.189339 
-0.195068 0.000110932 -0.188182 -0.20746 0.00468135 -0.190265 -0.200854 0.00571543 -0.190639 
-0.198846 0.0105614 -0.18941 -0.212076 0.0321402 -0.191403 -0.22622 0.0498999 -0.191235 
-0.200033 -0.0220283 -0.187521 -0.240511 -0.0204351 -0.186799 -0.195547 -0.0158873 -0.187422 
-0.191236 -0.00912757 -0.186406 -0.192248 -0.00450409 -0.186978 -0.189466 -0.00418751 -0.185819 
-0.18678 -0.00684098 -0.184579 -0.209586 0.00191944 -0.185492 -0.187156 0.000419465 -0.184828 
-0.195076 0.00697501 -0.187074 -0.190615 0.010256 -0.184856 -0.19635 0.0191079 -0.186419 
-0.191632 0.0189003 -0.184453 -0.193155 0.0236483 -0.185367 -0.201695 0.02893 -0.18715 
-0.202242 0.035658 -0.185466 -0.187648 -0.0236533 -0.183197 -0.189425 -0.016878 -0.18365 
-0.183231 -0.0159779 -0.182286 -0.187969 -0.0108397 -0.183767 -0.180102 -0.0128478 -0.18136 
-0.183295 -0.00948843 -0.181994 -0.191937 -0.00419045 -0.18381 -0.184458 -0.00488263 -0.180723 
-0.182352 -0.00559405 -0.182735 -0.17939 -0.00541824 -0.181485 -0.187497 -0.00289811 -0.182603 
-0.181699 -0.0010332 -0.181271 -0.184456 0.00098589 -0.183555 -0.182576 0.00330304 -0.182922 
-0.187122 0.00484645 -0.183739 -0.179769 0.00514845 -0.180606 -0.184527 0.00791947 -0.183576 
-0.183865 0.0127074 -0.18287 -0.18903 0.01474 -0.183262 -0.188934 0.0222122 -0.183912 
-0.191694 0.0220347 -0.181092 -0.193004 0.0296713 -0.182956 -0.192435 0.0347715 -0.181665 
-0.227261 -0.0696471 -0.18013 -0.208335 -0.0613503 -0.178479 -0.181853 -0.0326218 -0.177701 
-0.176931 -0.0146757 -0.178777 -0.176969 -0.00656623 -0.180012 -0.174472 -0.00483691 -0.179329 
-0.172384 -0.00042112 -0.178646 -0.174023 0.00321335 -0.178317 -0.181948 0.00682678 -0.177344 
-0.171953 0.00876835 -0.178171 -0.177066 0.0108567 -0.180167 -0.174257 0.0127754 -0.17772 
-0.183741 0.0303413 -0.180083 -0.185104 0.0333722 -0.179789 -0.181285 0.0316534 -0.177595 
[...]
POINT_DATA 774
FIELD FieldData 7
id 1 774 int
807 798 54 93 27 66 173 45 56 
73 37 89 61 52 8 36 94 42 
120 100 85 87 147 59 139 117 77 
133 91 55 15 63 39 41 176 17 
84 31 113 78 126 145 131 71 88 
207 74 46 58 125 153 80 24 43 
50 65 108 97 190 67 162 76 62 
101 111 86 102 18 103 53 98 112 
48 164 75 95 92 130 34 168 110 
174 26 196 137 81 141 140 193 122 
121 186 68 163 150 104 177 148 82 
114 219 352 178 179 132 79 189 202 
180 129 118 138 107 151 171 187 265 
70 123 159 198 195 49 160 158 183 
134 166 142 154 204 127 144 106 83 
119 213 188 294 225 136 116 156 105 
278 157 244 210 241 215 184 115 169 
229 109 250 167 221 208 170 228 99 
199 72 135 205 211 270 124 143 212 
64 324 200 234 272 181 146 277 182 
252 209 175 254 317 251 305 201 223 
152 149 96 289 185 297 284 161 280 
296 191 290 172 293 197 233 224 337 
236 295 322 206 261 165 276 298 299 
245 249 273 287 264 275 128 321 256 
253 155 332 9 329 307 438 222 281 
316 220 363 242 348 368 288 263 255 
353 267 218 339 259 354 292 314 262 
226 343 230 308 422 303 304 446 266 
192 217 306 260 418 214 227 330 238 
247 399 235 232 194 310 347 311 390 
282 274 283 203 243 313 258 405 382 
318 370 333 285 315 409 349 246 248 
331 388 300 395 320 269 377 327 271 
372 237 351 291 362 447 286 240 231 
407 90 279 386 367 335 216 423 427 
387 302 336 381 401 323 340 366 239 
344 341 371 411 433 358 309 476 384 
257 378 470 456 389 414 417 355 350 
396 424 441 268 374 466 492 450 462 
455 421 338 403 416 398 365 444 326 
429 430 490 439 440 301 325 428 328 
356 473 408 522 360 346 483 454 400 
319 397 404 345 448 459 394 361 376 
425 373 406 488 375 451 334 380 420 
445 469 484 489 481 385 452 478 359 
364 511 463 453 392 504 357 312 497 
496 342 500 477 434 458 499 437 519 
431 393 413 471 468 419 391 369 474 
415 493 475 494 442 508 482 491 487 
379 495 485 383 460 412 435 509 507 
530 486 465 464 562 498 542 505 449 
517 501 503 547 402 502 512 537 525 
536 529 538 534 531 552 510 479 506 
541 526 520 585 515 528 533 582 457 
598 624 527 467 480 564 543 559 550 
544 577 555 574 548 521 589 546 514 
443 557 595 576 523 426 410 461 571 
545 539 586 561 610 549 540 600 578 
572 436 554 565 620 596 524 636 535 
626 518 616 566 580 588 567 516 569 
591 603 604 583 558 575 638 606 579 
573 612 513 650 640 597 652 615 551 
568 611 584 619 646 628 532 666 602 
634 625 560 648 633 663 639 617 570 
607 647 592 613 649 563 608 653 622 
621 553 631 605 556 594 655 665 637 
658 614 632 651 590 587 664 630 641 
623 635 609 645 644 601 599 654 643 
659 432 656 642 581 593 660 618 629 
627 662 472 657 661 667 669 668 676 
672 670 677 671 678 675 673 674 683 
685 681 679 680 686 690 691 684 682 
688 687 696 689 702 697 694 693 700 
692 698 699 701 703 709 708 695 715 
705 716 704 711 712 710 706 707 714 
713 726 725 728 720 717 729 718 727 
721 722 719 734 724 723 741 737 733 
735 731 742 736 739 730 738 732 748 
740 745 750 746 744 749 747 751 752 
743 755 753 754 767 763 761 757 765 
758 768 756 766 764 762 759 760 778 
780 775 779 781 776 773 769 771 770 
793 772 774 777 790 788 786 784 791 
787 783 792 794 782 789 785 805 800 
795 797 804 799 806 796 803 801 802 

type 1 774 int
1 1 1 1 1 1 1 1 1 
1 1 1 1 1 1 1 1 1 
1 1 1 1 1 1 1 1 1 
1 1 1 1 1 1 1 1 1 
1 1 1 1 1 1 1 1 1 
1 1 1 1 1 1 1 1 1 
1 1 1 1 1 1 1 1 1 
1 1 1 1 1 1 1 1 1 
1 1 1 1 1 1 1 1 1 
1 1 1 1 1 1 1 1 1 
1 1 1 1 1 1 1 1 1 
1 1 1 1 1 1 1 1 1 
1 1 1 1 1 1 1 1 1 
1 1 1 1 1 1 1 1 1 
1 1 1 1 1 1 1 1 1 
1 1 1 1 1 1 1 1 1 
1 1 1 1 1 1 1 1 1 
1 1 1 1 1 1 1 1 1 
1 1 1 1 1 1 1 1 1 
1 1 1 1 1 1 1 1 1 
1 1 1 1 1 1 1 1 1 
1 1 1 1 1 1 1 1 1 
1 1 1 1 1 1 1 1 1 
1 1 1 1 1 1 1 1 1 
1 1 1 1 1 1 1 1 1 
1 1 1 1 1 1 1 1 1 
1 1 1 1 1 1 1 1 1 
1 1 1 1 1 1 1 1 1 
1 1 1 1 1 1 1 1 1 
1 1 1 1 1 1 1 1 1 
1 1 1 1 1 1 1 1 1 
1 1 1 1 1 1 1 1 1 
1 1 1 1 1 1 1 1 1 
1 1 1 1 1 1 1 1 1 
1 1 1 1 1 1 1 1 1 
1 1 1 1 1 1 1 1 1 
1 1 1 1 1 1 1 1 1 
1 1 1 1 1 1 1 1 1 
1 1 1 1 1 1 1 1 1 
1 1 1 1 1 1 1 1 1 
1 1 1 1 1 1 1 1 1 
1 1 1 1 1 1 1 1 1 
1 1 1 1 1 1 1 1 1 
1 1 1 1 1 1 1 1 1 
1 1 1 1 1 1 1 1 1 
1 1 1 1 1 1 1 1 1 
1 1 1 1 1 1 1 1 1 
1 1 1 1 1 1 1 1 1 
1 1 1 1 1 1 1 1 1 
1 1 1 1 1 1 1 1 1 
1 1 1 1 1 1 1 1 1 
1 1 1 1 1 1 1 1 1 
1 1 1 1 1 1 1 1 1 
1 1 1 1 1 1 1 1 1 
1 1 1 1 1 1 1 1 1 
1 1 1 1 1 1 1 1 1 
1 1 1 1 1 1 1 1 1 
1 1 1 1 1 1 1 1 1 
1 1 1 1 1 1 1 1 1 
1 1 1 1 1 1 1 1 1 
1 1 1 1 1 1 1 1 1 
1 1 1 1 1 1 1 1 1 
1 1 1 1 1 1 1 1 1 
1 1 1 1 1 1 1 1 1 
1 1 1 1 1 1 1 1 1 
1 1 1 1 1 1 1 1 1 
1 1 1 1 1 1 1 1 1 
1 1 1 1 1 1 1 1 1 
1 1 1 1 1 1 1 1 1 
1 1 1 1 1 1 1 1 1 
1 1 1 1 1 1 1 1 1 
1 1 1 1 1 1 1 1 1 
1 1 1 1 1 1 1 1 1 
1 1 1 1 1 1 1 1 1 
1 1 1 1 1 1 1 1 1 
1 1 1 1 1 1 1 1 1 
1 1 1 1 1 1 1 1 1 
1 1 1 1 1 1 1 1 1 
1 1 1 1 1 1 1 1 1 
1 1 1 1 1 1 1 1 1 
1 1 1 1 1 1 1 1 1 
1 1 1 1 1 1 1 1 1 
1 1 1 1 1 1 1 1 1 
1 1 1 1 1 1 1 1 1 
1 1 1 1 1 1 1 1 1 
1 1 1 1 1 1 1 1 1 

i 3 774 int
0 0 0 0 0 0 0 0 0 
0 0 0 0 0 0 0 0 0 
0 0 0 0 0 0 0 0 0 
0 0 0 0 0 0 0 0 0 
0 0 0 0 0 0 0 0 0 
0 0 0 0 0 0 0 0 0 
0 0 0 0 0 0 0 0 0 
0 0 0 0 0 0 0 0 0 
0 0 0 0 0 0 0 0 0 
0 0 0 0 0 0 0 0 0 
0 0 0 0 0 0 0 0 0 
0 0 0 0 0 0 0 0 0 
0 0 0 0 0 0 0 0 0 
0 0 0 0 0 0 0 0 0 
0 0 0 0 0 0 0 0 0 
0 0 0 0 0 0 0 0 0 
0 0 0 0 0 0 0 0 0 
0 0 0 0 0 0 0 0 0 
0 0 0 0 0 0 0 0 0 
0 0 0 0 0 0 0 0 0 
0 0 0 0 0 0 0 0 0 
0 0 0 0 0 0 0 0 0 
0 0 0 0 0 0 0 0 0 
0 0 0 0 0 0 0 0 0 
0 0 0 0 0 0 0 0 0 
0 0 0 0 0 0 0 0 0 
0 0 0 0 0 0 0 0 0 
0 0 0 0 0 0 0 0 0 
0 0 0 0 0 0 0 0 0 
0 0 0 0 0 0 0 0 0 
0 0 0 0 0 0 0 0 0 
0 0 0 0 0 0 0 0 0 
0 0 0 0 0 0 0 0 0 
0 0 0 0 0 0 0 0 0 
0 0 0 0 0 0 0 0 0 
0 0 0 0 0 0 0 0 0 
0 0 0 0 0 0 0 0 0 
0 0 0 0 0 0 0 0 0 
0 0 0 0 0 0 0 0 0 
0 0 0 0 0 0 0 0 0 
0 0 0 0 0 0 0 0 0 
0 0 0 0 0 0 0 0 0 
0 0 0 0 0 0 0 0 0 
0 0 0 0 0 0 0 0 0 
0 0 0 0 0 0 0 0 0 
0 0 0 0 0 0 0 0 0 
0 0 0 0 0 0 0 0 0 
0 0 0 0 0 0 0 0 0 
0 0 0 0 0 0 0 0 0 
0 0 0 0 0 0 0 0 0 
0 0 0 0 0 0 0 0 0 
0 0 0 0 0 0 0 0 0 
0 0 0 0 0 0 0 0 0 
0 0 0 0 0 0 0 0 0 
0 0 0 0 0 0 0 0 0 
0 0 0 0 0 0 0 0 0 
0 0 0 0 0 0 0 0 0 
0 0 0 0 0 0 0 0 0 
0 0 0 0 0 0 0 0 0 
0 0 0 0 0 0 0 0 0 
0 0 0 0 0 0 0 0 0 
0 0 0 0 0 0 0 0 0 
0 0 0 0 0 0 0 0 0 
0 0 0 0 0 0 0 0 0 
0 0 0 0 0 0 0 0 0 
0 0 0 0 0 0 0 0 0 
0 0 0 0 0 0 0 0 0 
0 0 0 0 0 0 0 0 0 
0 0 0 0 0 0 0 0 0 
0 0 0 0 0 0 0 0 0 
0 0 0 0 0 0 0 0 0 
0 0 0 0 0 0 0 0 0 
0 0 0 0 0 0 0 0 0 
0 0 0 0 0 0 0 0 0 
0 0 0 0 0 0 0 0 0 
0 0 0 0 0 0 0 0 0 
0 0 0 0 0 0 0 0 0 
0 0 0 0 0 0 0 0 0 
0 0 0 0 0 0 0 0 0 
0 0 0 0 0 0 0 0 0 
0 0 0 0 0 0 0 0 0 
0 0 0 0 0 0 0 0 0 
0 0 0 0 0 0 0 0 0 
0 0 0 0 0 0 0 0 0 
0 0 0 0 0 0 0 0 0 
0 0 0 0 0 0 0 0 0 
0 0 0 0 0 0 0 0 0 
0 0 0 0 0 0 0 0 0 
0 0 0 0 0 0 0 0 0 
0 0 0 0 0 0 0 0 0 
0 0 0 0 0 0 0 0 0 
0 0 0 0 0 0 0 0 0 
0 0 0 0 0 0 0 0 0 
0 0 0 0 0 0 0 0 0 
0 0 0 0 0 0 0 0 0 
0 0 0 0 0 0 0 0 0 
0 0 0 0 0 0 0 0 0 
0 0 0 0 0 0 0 0 0 
0 0 0 0 0 0 0 0 0 
0 0 0 0 0 0 0 0 0 
0 0 0 0 0 0 0 0 0 
0 0 0 0 0 0 0 0 0 
0 0 0 0 0 0 0 0 0 
0 0 0 0 0 0 0 0 0 
0 0 0 0 0 0 0 0 0 
0 0 0 0 0 0 0 0 0 
0 0 0 0 0 0 0 0 0 
0 0 0 0 0 0 0 0 0 
0 0 0 0 0 0 0 0 0 
0 0 0 0 0 0 0 0 0 
0 0 0 0 0 0 0 0 0 
0 0 0 0 0 0 0 0 0 
0 0 0 0 0 0 0 0 0 
0 0 0 0 0 0 0 0 0 
0 0 0 0 0 0 0 0 0 
0 0 0 0 0 0 0 0 0 
0 0 0 0 0 0 0 0 0 
0 0 0 0 0 0 0 0 0 
0 0 0 0 0 0 0 0 0 
0 0 0 0 0 0 0 0 0 
0 0 0 0 0 0 0 0 0 
0 0 0 0 0 0 0 0 0 
0 0 0 0 0 0 0 0 0 
0 0 0 0 0 0 0 0 0 
0 0 0 0 0 0 0 0 0 
0 0 0 0 0 0 0 0 0 
0 0 0 0 0 0 0 0 0 
0 0 0 0 0 0 0 0 0 
0 0 0 0 0 0 0 0 0 
0 0 0 0 0 0 0 0 0 
0 0 0 0 0 0 0 0 0 
0 0 0 0 0 0 0 0 0 
0 0 0 0 0 0 0 0 0 
0 0 0 0 0 0 0 0 0 
0 0 0 0 0 0 0 0 0 
0 0 0 0 0 0 0 0 0 
0 0 0 0 0 0 0 0 0 
0 0 0 0 0 0 0 0 0 
0 0 0 0 0 0 0 0 0 
0 0 0 0 0 0 0 0 0 
0 0 0 0 0 0 0 0 0 
0 0 0 0 0 0 0 0 0 
0 0 0 0 0 0 0 0 0 
0 0 0 0 0 0 0 0 0 
0 0 0 0 0 0 0 0 0 
0 0 0 0 0 0 0 0 0 
0 0 0 0 0 0 0 0 0 
0 0 0 0 0 0 0 0 0 
0 0 0 0 0 0 0 0 0 
0 0 0 0 0 0 0 0 0 
0 0 0 0 0 0 0 0 0 
0 0 0 0 0 0 0 0 0 
0 0 0 0 0 0 0 0 0 
0 0 0 0 0 0 0 0 0 
0 0 0 0 0 0 0 0 0 
0 0 0 0 0 0 0 0 0 
0 0 0 0 0 0 0 0 0 
0 0 0 0 0 0 0 0 0 
0 0 0 0 0 0 0 0 0 
0 0 0 0 0 0 0 0 0 
0 0 0 0 0 0 0 0 0 
0 0 0 0 0 0 0 0 0 
0 0 0 0 0 0 0 0 0 
0 0 0 0 0 0 0 0 0 
0 0 0 0 0 0 0 0 0 
0 0 0 0 0 0 0 0 0 
0 0 0 0 0 0 0 0 0 
0 0 0 0 0 0 0 0 0 
0 0 0 0 0 0 0 0 0 
0 0 0 0 0 0 0 0 0 
0 0 0 0 0 0 0 0 0 
0 0 0 0 0 0 0 0 0 
0 0 0 0 0 0 0 0 0 
0 0 0 0 0 0 0 0 0 
0 0 0 0 0 0 0 0 0 
0 0 0 0 0 0 0 0 0 
0 0 0 0 0 0 0 0 0 
0 0 0 0 0 0 0 0 0 
0 0 0 0 0 0 0 0 0 
0 0 0 0 0 0 0 0 0 
0 0 0 0 0 0 0 0 0 
0 0 0 0 0 0 0 0 0 
0 0 0 0 0 0 0 0 0 
0 0 0 0 0 0 0 0 0 
0 0 0 0 0 0 0 0 0 
0 0 0 0 0 0 0 0 0 
0 0 0 0 0 0 0 0 0 
0 0 0 0 0 0 0 0 0 
0 0 0 0 0 0 0 0 0 
0 0 0 0 0 0 0 0 0 
0 0 0 0 0 0 0 0 0 
0 0 0 0 0 0 0 0 0 
0 0 0 0 0 0 0 0 0 
0 0 0 0 0 0 0 0 0 
0 0 0 0 0 0 0 0 0 
0 0 0 0 0 0 0 0 0 
0 0 0 0 0 0 0 0 0 
0 0 0 0 0 0 0 0 0 
0 0 0 0 0 0 0 0 0 
0 0 0 0 0 0 0 0 0 
0 0 0 0 0 0 0 0 0 
0 0 0 0 0 0 0 0 0 
0 0 0 0 0 0 0 0 0 
0 0 0 0 0 0 0 0 0 
0 0 0 0 0 0 0 0 0 
0 0 0 0 0 0 0 0 0 
0 0 0 0 0 0 0 0 0 
0 0 0 0 0 0 0 0 0 
0 0 0 0 0 0 0 0 0 
0 0 0 0 0 0 0 0 0 
0 0 0 0 0 0 0 0 0 
0 0 0 0 0 0 0 0 0 
0 0 0 0 0 0 0 0 0 
0 0 0 0 0 0 0 0 0 
0 0 0 0 0 0 0 0 0 
0 0 0 0 0 0 0 0 0 
0 0 0 0 0 0 0 0 0 
0 0 0 0 0 0 0 0 0 
0 0 0 0 0 0 0 0 0 
0 0 0 0 0 0 0 0 0 
0 0 0 0 0 0 0 0 0 
0 0 0 0 0 0 0 0 0 
0 0 0 0 0 0 0 0 0 
0 0 0 0 0 0 0 0 0 
0 0 0 0 0 0 0 0 0 
0 0 0 0 0 0 0 0 0 
0 0 0 0 0 0 0 0 0 
0 0 0 0 0 0 0 0 0 
0 0 0 0 0 0 0 0 0 
0 0 0 0 0 0 0 0 0 
0 0 0 0 0 0 0 0 0 
0 0 0 0 0 0 0 0 0 
0 0 0 0 0 0 0 0 0 
0 0 0 0 0 0 0 0 0 
0 0 0 0 0 0 0 0 0 
0 0 0 0 0 0 0 0 0 
0 0 0 0 0 0 0 0 0 
0 0 0 0 0 0 0 0 0 
0 0 0 0 0 0 0 0 0 
0 0 0 0 0 0 0 0 0 
0 0 0 0 0 0 0 0 0 
0 0 0 0 0 0 0 0 0 
0 0 0 0 0 0 0 0 0 
0 0 0 0 0 0 0 0 0 
0 0 0 0 0 0 0 0 0 
0 0 0 0 0 0 0 0 0 
0 0 0 0 0 0 0 0 0 
0 0 0 0 0 0 0 0 0 
0 0 0 0 0 0 0 0 0 
0 0 0 0 0 0 0 0 0 
0 0 0 0 0 0 0 0 0 
0 0 0 0 0 0 0 0 0 
0 0 0 0 0 0 0 0 0 
0 0 0 0 0 0 0 0 0 
0 0 0 0 0 0 0 0 0 
0 0 0 0 0 0 0 0 0 
0 0 0 0 0 0 0 0 0 
0 0 0 0 0 0 0 0 0 

v 3 774 double
0 0 -1 0 0 -1 -1.27288 0.103865 -1.84383 
-1.29371 0.114281 -1.80827 -1.20862 -0.0337326 -1.80626 -1.29017 0.0193838 -1.80397 
-1.39897 0.113604 -1.80437 -1.17719 0.0576446 -1.73419 -1.127 0.00706554 -1.70872 
-1.11982 0.054048 -1.72019 -1.25129 0.122772 -1.6843 -1.18765 0.0540333 -1.679 
-1.19603 0.0530832 -1.67663 -1.18543 0.0175571 -1.6234 -1.16776 0.0724586 -1.62393 
-1.17839 0.0211692 -1.62606 -1.26834 -0.0207936 -1.65372 -1.18361 -0.0528103 -1.56743 
-1.04352 -0.042083 -1.57194 -1.24546 0.0513306 -1.54494 -1.19366 0.102042 -1.54263 
-1.23072 0.093899 -1.53588 -1.2655 -0.225398 -1.60492 -1.06692 -0.0515962 -1.53968 
-1.23894 -0.418897 -1.71262 -1.22797 -0.377059 -1.52509 -1.10183 0.0117228 -1.41562 
-1.15886 -0.0318438 -1.38307 -0.998737 -0.0314326 -1.37464 -1.12895 -0.0360719 -1.3678 
-1.10511 -0.0595757 -1.34728 -1.23588 0.0476793 -1.3868 -1.09743 -0.0519123 -1.31324 
-1.12174 0.0429117 -1.23064 -1.05582 -0.0413377 -1.2814 -1.12424 -0.0138933 -1.28955 
-1.12779 0.0325185 -1.26898 -1.13017 0.00827489 -1.24356 -1.14839 0.0644095 -1.20399 
-1.17182 0.00174898 -1.23549 -1.18482 0.0722427 -1.06728 -1.22725 -0.0591901 -1.22776 
-1.21845 -0.263145 -1.15275 -1.0368 -0.061578 -1.22345 -1.18335 -0.261397 -1.20534 
-1.32046 -0.122847 -1.26406 -1.04981 -0.09422 -1.2183 -1.15612 0.0129947 -1.10316 
-1.15596 -0.0301799 -1.02353 -1.10445 -0.00921821 -1.08114 -1.17167 -0.121792 -1.12641 
-1.10418 0.0599509 -1.0575 -1.1603 0.0539515 -1.05112 -1.12561 0.11259 -1.0876 
-1.17175 -0.0150631 -0.945951 -1.1199 -0.0434071 -1.06117 -1.23057 -0.0457108 -1.0676 
-1.12507 0.126267 -1.06518 -1.20407 -0.0313051 -0.997475 -1.0982 0.0331919 -0.995739 
-1.10072 0.0408203 -0.995249 -1.02291 0.06165 -0.955985 -1.00542 0.152193 -0.970365 
-1.11456 0.174963 -0.979773 -1.13646 -0.0386955 -0.951477 -1.07032 0.0212318 -0.997092 
-1.11593 -0.0490146 -0.971032 -1.0907 -0.0150395 -1.06041 -1.15359 0.0736842 -0.912741 
-1.03658 0.023447 -0.937213 -1.00833 0.123384 -0.901313 -1.08282 0.0357118 -0.826826 
-1.13289 -0.046527 -0.907704 -1.06593 -0.00967344 -0.905796 -1.13591 -0.0301187 -1.17318 
-1.13553 0.086544 -0.891499 -0.987541 0.0691962 -0.887187 -1.10137 0.0724678 -0.865219 
-1.09209 -0.0619901 -0.869161 -1.15474 0.0173109 -0.880075 -0.969303 0.0176072 -0.765989 
-1.13766 0.219936 -0.938931 -1.09378 0.0507524 -0.721526 -1.10567 0.0582141 -0.797461 
-1.07999 0.0605004 -0.785896 -1.19415 -0.352798 -0.817154 -1.24198 0.142669 -0.79847 
-1.19959 0.153059 -0.752654 -1.15975 -0.153784 -0.745401 -1.17675 -0.15996 -0.777956 
-1.10591 -0.132975 -0.684202 -1.05533 0.007542 -0.630643 -1.10598 0.0146484 -0.621959 
-1.12063 -0.131516 -0.6485 -1.11336 0.0338284 -0.532977 -1.06246 0.0767817 -0.497846 
-1.0143 0.0696601 -0.618266 -1.01025 0.00303326 -0.488753 -1.02662 0.0330769 -0.528111 
-1.0947 -0.0154384 -0.569369 -1.1504 -0.130621 -0.64725 -1.32811 0.0484367 -0.84974 
-1.06282 0.127956 -0.570677 -1.07697 0.0675265 -0.465575 -1.08352 0.00622872 -0.457063 
-1.07382 0.0821355 -0.494392 -1.1546 0.0961307 -0.477736 -0.972814 0.0975386 -0.414997 
-0.988927 0.0288167 -0.430454 -1.00364 0.0288424 -0.450389 -1.00453 -0.0192123 -0.493169 
-1.07119 -0.121673 -0.48687 -1.06616 -0.139951 -0.457528 -1.10101 -0.176473 -0.559622 
-1.02097 0.174059 -0.48204 -0.86594 0.107426 -0.352101 -1.08578 -0.0401915 -0.430934 
-1.09176 0.148925 -0.449032 -1.15795 0.0346445 -0.496229 -1.0698 0.139231 -0.437563 
-1.06621 0.0607657 -0.452269 -0.962247 0.0764985 -0.39208 -1.04197 -0.167321 -0.487526 
-0.806413 -0.0161556 -0.340385 -1.1032 -0.178549 -0.494155 -1.18452 0.0408011 -0.486551 
-1.17274 0.0917538 -0.483947 -1.07583 0.0425512 -0.455142 -0.970524 -0.112029 -0.382506 
-0.959447 -0.0936646 -0.415309 -0.93284 -0.0326714 -0.395235 -0.956532 -0.0351272 -0.405375 
-0.971262 -0.0741485 -0.413773 -1.0044 0.0703316 -0.411909 -0.947864 0.025289 -0.390823 
-1.11369 -0.158465 -0.495288 -1.17574 -0.245887 -0.538348 -1.17337 0.545424 -0.581116 
-1.09481 -0.087535 -0.482448 -1.20291 0.139861 -0.548815 -1.07051 0.0354398 -0.454235 
-1.08219 0.0582203 -0.458965 -0.959836 -0.0551091 -0.408019 -0.936481 -0.161256 -0.502754 
-0.936271 -0.156507 -0.399991 -1.18005 0.0948594 -0.493735 -0.984454 0.145434 -0.387414 
-1.03543 -0.19713 -0.547029 -0.736517 0.0500765 -0.436625 -0.798678 -0.00126964 -0.337095 
-0.923261 -0.096016 -0.395253 -1.01966 -0.0362207 -0.433001 -1.00648 -0.018316 -0.425143 
-1.05979 0.0209582 -0.44604 -0.883837 0.0957515 -0.428765 -1.00608 0.0499425 -0.405223 
-0.810822 -0.10291 -0.334402 -0.998867 0.0140097 -0.445204 -0.951744 -0.066129 -0.392669 
-1.08634 -0.00917707 -0.458789 -1.03668 0.0317681 -0.422153 -0.990043 -0.142225 -0.449122 
-1.04714 0.0657278 -0.41345 -1.12769 -0.273279 -0.5566 -0.913097 0.246464 -0.411433 
-0.992844 0.00218006 -0.267483 -0.668429 -0.0568364 -0.278745 -0.906895 -0.0123591 -0.288019 
-1.0359 -0.00688684 -0.43925 -0.871735 -0.000514536 -0.361475 -0.953065 0.0469947 -0.380088 
-0.920649 -0.115351 -0.419354 -1.38782 0.160646 -0.903777 -0.958261 0.0188784 -0.375994 
-1.20767 -0.033233 -0.491361 -0.985169 0.0257627 -0.418401 -0.93677 0.0434444 -0.401967 
-0.996806 -0.0189906 -0.414437 -1.1851 -0.0999163 -0.732129 -0.99359 0.0844172 -0.418579 
-0.885965 0.0103177 -0.370324 -0.883998 -0.039324 -0.369527 -0.906272 0.0442095 -0.385041 
-0.997302 -0.047454 -0.419694 -0.91196 0.0577375 -0.376238 -1.15139 -0.214836 -0.592003 
-1.17864 0.260776 -0.566603 -1.05991 0.185316 -0.483439 -1.10367 -0.0724906 -0.474123 
-0.915894 -0.0470737 -0.393548 -0.799427 0.062422 -0.345812 -0.993789 -0.0494775 -0.418132 
-1.15408 -0.248915 -0.600852 -1.04382 0.189955 -0.557041 -0.916188 -0.00987982 -0.368786 
-0.956714 0.0491409 -0.400929 -1.01756 0.00266172 -0.432714 -0.98334 0.0283531 -0.410294 
-0.914567 -0.0177485 -0.390919 -1.09568 -0.000826921 -0.465546 -1.05152 0.049932 -0.41557 
-0.992091 0.115323 -0.412535 -1.0311 0.00515879 -0.457602 -0.787211 -0.0448078 -0.343873 
-0.922933 -0.120901 -0.36307 -0.859827 0.102959 -0.361455 -0.924739 -0.14734 -0.311231 
-0.879082 0.0348226 -0.367573 -0.968489 -0.0122505 -0.383133 -0.794096 -0.0370565 -0.447205 
-0.771206 0.0355771 -0.319695 -0.81425 -0.0595813 -0.357038 -0.996819 0.42004 -0.5642 
-0.854061 0.00704505 -0.348565 -0.974502 0.0527535 -0.409499 -0.86483 -0.146933 -0.349186 
-0.712888 -0.0282082 -0.305986 -0.736008 -0.0126484 -0.30643 -0.70934 -0.0411897 -0.295872 
-0.785506 -0.00852784 -0.325509 -0.893665 -0.0184881 -0.486321 -0.894754 -0.129986 -0.389375 
-0.811477 0.0220793 -0.333036 -0.901496 0.0480392 -0.373944 -0.984491 0.0468246 -0.389677 
-0.9166 -0.00788443 -0.375159 -0.793718 -0.334736 -0.487852 -0.837426 -0.119992 -0.328596 
-0.841306 0.28025 -0.404388 -1.06117 0.315734 -0.531691 -1.02782 -0.0141591 -0.802527 
-1.27016 -0.19025 -0.28413 -0.995683 0.144028 -0.425762 -0.723897 -0.0376147 -0.296555 
-0.737646 -0.179592 -0.516801 -0.896369 -0.00167557 -0.384098 -0.766774 -0.0034799 -0.327519 
-1.01368 -0.0532292 -0.426552 -1.00287 -0.0254828 -0.417608 -1.02765 -0.0451545 -0.4392 
-0.986851 0.188374 -0.509119 -0.876059 0.235571 -0.407542 -0.97267 0.028122 -0.419374 
-0.894916 0.0608346 -0.387779 -0.816825 0.00139873 -0.334945 -0.815603 0.0099416 -0.338744 
-0.630606 -0.0454486 -0.262561 -0.978945 0.0458505 -0.579706 -0.9316 0.086037 -0.496937 
-0.645771 -0.0284055 -0.265367 -0.816639 -0.0575786 -0.340003 -0.844016 0.0070446 -0.364443 
-0.871636 -0.0146887 -0.362644 -0.958587 0.225753 -0.662148 -0.854439 -0.128284 -0.390476 
-0.922207 0.138701 -0.415486 -0.871283 -0.0166151 -0.370919 -0.75106 0.042692 -0.339901 
-0.769885 -0.0591206 -0.319684 -1.08535 -0.0138175 -0.527344 -0.718682 -0.0248253 -0.299661 
-0.807887 0.025155 -0.332292 -1.01461 -0.00237727 -0.431808 -1.04214 -0.070812 -0.443184 
-0.759137 0.145527 -0.342249 -1.28136 -0.273859 -0.729992 -0.852389 0.0516168 -0.376156 
-0.661434 -0.0526119 -0.266764 -0.577359 -0.0264507 -0.240911 -0.572416 -0.0327526 -0.256942 
-0.4858 -0.043404 -0.224343 -1.32426 0.0747185 -0.329869 -0.76889 -0.0291385 -0.331033 
-0.842842 0.0445995 -0.356402 -0.81409 -0.0222709 -0.350173 -0.841828 -0.00266772 -0.347218 
-0.808132 -0.0258916 -0.349596 -0.667115 -0.112162 -0.306096 -0.766924 -0.00425891 -0.324842 
-0.909261 -0.0348227 -0.388593 -0.679522 0.0467293 -0.286106 -0.801938 -0.00401565 -0.330631 
-0.732986 -0.0682911 -0.294439 -0.67713 -0.07318 -0.272118 -0.662871 -0.0496469 -0.252414 
-0.663185 0.0363861 -0.285805 -0.771125 -0.113814 -0.479877 -0.725267 -0.0719151 -0.324814 
-0.69631 -0.0518352 -0.299328 -0.691052 0.134361 -0.286032 -0.774557 0.0551892 -0.167695 
-0.76564 0.0112035 -0.299231 -0.745939 0.0251222 -0.381428 -0.746106 0.0375321 -0.297964 
-0.742423 0.0668123 -0.346304 -0.727661 0.0886101 -0.29529 -0.709476 0.0355516 -0.293876 
-0.930888 -0.057254 -0.393716 -0.791254 -0.0649962 -0.445247 -0.781444 -0.115905 -0.352393 
-1.05792 0.141845 -0.340805 -0.891606 -0.042374 -0.376148 -0.863357 -0.0435445 -0.364771 
-1.08975 0.0593339 -0.432239 -0.976318 0.0636522 -0.417464 -0.731207 0.143629 -0.329426 
-1.01321 0.130047 -0.423173 -0.716722 0.0372424 -0.316087 -0.731095 0.102876 -0.309388 
-0.753024 0.0521454 -0.316196 -0.84111 0.0178466 -0.350076 -1.1454 0.00988138 -0.345563 
-0.803433 -0.00303724 -0.343449 -0.796521 0.0297474 -0.336016 -0.788791 0.0100376 -0.33456 
-0.687032 -0.152941 -0.334427 -0.884994 -0.140608 -0.381475 -0.679496 -0.138278 -0.337788 
-1.07876 -0.0234477 -0.441079 -0.951373 0.0345846 -0.308467 -0.794145 -0.131998 -0.296726 
-0.746483 0.0900123 -0.313667 -0.903286 -0.0442102 -0.13115 -0.972417 0.0603387 -0.959423 
-0.760991 -0.000361049 -0.364189 -0.731906 0.0267113 -0.316877 -0.715346 0.0655935 -0.286772 
-1.08167 -0.0470161 -0.513875 -0.741012 0.0399713 -0.320874 -0.808916 -0.0273762 -0.344275 
-0.812895 -0.102832 -0.347658 -1.02967 0.0570461 -0.413236 -0.843707 0.0391979 -0.383628 
-0.785882 0.0538027 -0.318809 -0.544313 0.176704 -0.253529 -0.835253 -0.132908 -0.338674 
-0.713849 -0.0106516 -0.293538 -1.03201 -0.0721621 -0.164978 -0.695261 -0.0335944 -0.286473 
-0.724236 0.055226 -0.313289 -0.725989 -0.107426 -0.343433 -0.76047 0.0693943 -0.30669 
-0.897869 0.0131087 -0.374291 -0.919946 -0.132844 -0.411515 -1.05713 0.152437 -0.352551 