# vtk DataFile Version 4.0
Generated by LIGGGHTS
ASCII
DATASET POLYDATA
POINTS 13 float
-0.00894204 -0.016163 0.0456844 -0.0299058 -0.00882918 0.0451787 -0.0208226 -0.00599195 0.0445125 
-0.0190478 0.013684 0.0462425 -0.00462371 0.0206347 0.0441592 -0.0160886 0.0216478 0.0460347 
-0.00174714 0.0260627 0.0447524 -0.0106535 -0.0244251 0.0508825 -0.00953586 0.00971988 0.0483037 
-0.00217367 0.0240852 0.0484331 -0.0134792 -0.0343741 0.0522801 -0.00618745 -0.0313193 0.0516549 
-0.0124546 0.031784 0.0516306 
VERTICES 13 26
1 0 
1 1 
1 2 
1 3 
1 4 
1 5 
1 6 
1 7 
1 8 
1 9 
1 10 
1 11 
1 12 

POINT_DATA 13
FIELD FieldData 7
id 1 13 int
12 10 2 6 7 4 1 5 8 
9 3 13 11 
type 1 13 int
1 1 1 1 1 1 1 1 1 
1 1 1 1 
i 3 13 int
0 0 0 0 0 0 0 0 0 
0 0 0 0 0 0 0 0 0 
0 0 0 0 0 0 0 0 0 
0 0 0 0 0 0 0 0 0 
0 0 0 
v 3 13 double
0 0 -1.04145 0 0 -1.04625 0 0 -1.05243 
0 0 -1.03625 0 0 -1.05577 0 0 -1.03821 
0 0 -1.05018 0 0 -1 0 0 -1.01653 
0 0 -1.01525 0 0 -1 0 0 -1 
0 0 -1 
f 3 13 double
0 0 -0.000346714 0 0 -0.000346714 0 0 -0.00160516 
0 0 -0.000346714 0 0 -0.000346714 0 0 -0.00160516 
0 0 -0.00160516 0 0 0 0 0 -0.000346714 
0 0 -0.000346714 0 0 0 0 0 0 
0 0 0 
radius 1 13 double
0.0015 0.0015 0.0025 0.0015 0.0015 0.0025 0.0025 0.0025 0.0015 
0.0015 0.0025 0.0015 0.0015 
omega 3 13 double
0 0 0 0 0 0 0 0 0 
0 0 0 0 0 0 0 0 0 
0 0 0 0 0 0 0 0 0 
0 0 0 0 0 0 0 0 0 
0 0 0 
