# vtk DataFile Version 4.0
Generated by LIGGGHTS
ASCII
DATASET POLYDATA
POINTS 523 float
-0.403672 0.0553914 -0.258131 -0.349915 -0.0248692 -0.251297 -0.356732 0.0444283 -0.24653 
-0.325683 -0.00369292 -0.242133 -0.29631 -0.00921892 -0.230654 -0.291202 -0.0117149 -0.227146 
-0.289999 -0.00781386 -0.228146 -0.288466 0.000921037 -0.227729 -0.294117 0.00442192 -0.229888 
-0.28778 -0.017111 -0.226145 -0.276554 0.0101762 -0.221097 -0.268485 0.00860183 -0.218895 
-0.267493 0.0163805 -0.217623 -0.271423 -0.0391615 -0.212439 -0.263216 0.00318907 -0.215864 
-0.260436 0.00943061 -0.215473 -0.257801 0.0151296 -0.213745 -0.265002 -0.0365124 -0.211852 
-0.252692 -0.0102643 -0.212243 -0.249543 -0.00499368 -0.211182 -0.257376 0.019444 -0.211814 
-0.306612 0.0639601 -0.21167 -0.246951 -0.000906469 -0.209136 -0.257228 0.035843 -0.209002 
-0.238169 -0.00351097 -0.205374 -0.234306 0.00455158 -0.204687 -0.236667 0.0118638 -0.205305 
-0.250407 -0.0527327 -0.199175 -0.238016 -0.0305993 -0.201516 -0.231194 -0.0139833 -0.201621 
-0.22555 -0.0128088 -0.199315 -0.225916 -0.00597568 -0.201142 -0.225952 0.00097564 -0.201163 
-0.222133 -0.0211055 -0.196868 -0.217247 -0.0158441 -0.196623 -0.222121 -0.00790259 -0.198281 
-0.215876 -0.00405262 -0.197048 -0.214705 -0.000607838 -0.196506 -0.212087 0.00234162 -0.19535 
-0.218064 0.0122802 -0.196262 -0.216659 -0.0266311 -0.193426 -0.209302 -0.0151557 -0.193288 
-0.210492 -0.00810924 -0.194527 -0.210938 -0.00175072 -0.193819 -0.207025 -0.00198821 -0.192432 
-0.20846 0.00357637 -0.192737 -0.204536 0.00282129 -0.19219 -0.202937 -0.0220522 -0.189853 
-0.203457 -0.0172843 -0.19062 -0.199617 -0.0171608 -0.189011 -0.194426 -0.00502324 -0.18788 
-0.195224 0.00164846 -0.188257 -0.199235 0.00445251 -0.188875 -0.19962 0.0137911 -0.188311 
-0.190628 -0.00147928 -0.185246 -0.194918 0.00620544 -0.18707 -0.189197 0.00521323 -0.185424 
-0.19107 0.00901252 -0.185175 -0.197321 0.0201349 -0.186714 -0.190009 -0.0285484 -0.183112 
-0.181843 -0.0211294 -0.181103 -0.183621 -0.0166705 -0.181279 -0.179378 -0.0163796 -0.180304 
-0.180928 -0.0110545 -0.180834 -0.177408 -0.00796267 -0.180607 -0.179715 -0.00599138 -0.181608 
-0.185533 0.006942 -0.184084 -0.202745 0.0124359 -0.183645 -0.207694 0.0234354 -0.182722 
-0.174366 -0.0201541 -0.178173 -0.172378 -0.0171665 -0.177727 -0.177014 -0.0122264 -0.180064 
-0.169703 -0.00790807 -0.177438 -0.175786 -0.00460144 -0.178439 -0.179586 -0.0016253 -0.180553 
-0.175093 0.000191309 -0.179824 -0.169395 0.00136531 -0.17744 -0.176593 0.00973479 -0.179768 
-0.173838 0.0156878 -0.178385 -0.180428 0.024238 -0.179922 -0.241389 0.0771773 -0.178207 
-0.173827 -0.0382661 -0.174109 -0.166666 -0.0194463 -0.17395 -0.164744 -0.0122467 -0.174987 
-0.16165 -0.010507 -0.173836 -0.167862 -0.00415565 -0.175653 -0.175049 0.000418713 -0.175848 
-0.162192 0.00194412 -0.173832 -0.171853 0.0121746 -0.176761 -0.16758 0.017241 -0.174175 
-0.19196 0.048773 -0.176821 -0.289659 -0.0839728 -0.17308 -0.174052 -0.0443978 -0.172297 
-0.165327 -0.0387943 -0.170438 -0.158093 -0.0222146 -0.171057 -0.160683 -0.0169094 -0.171281 
-0.153318 -0.0101822 -0.170342 -0.156668 -0.0079334 -0.170323 -0.163019 -0.00598242 -0.172086 
-0.155011 0.00212382 -0.171303 -0.155412 0.00871831 -0.171351 -0.16084 0.0258016 -0.171425 
-0.169396 0.0408671 -0.171363 -0.186202 0.0573362 -0.170764 -0.156422 -0.0270449 -0.169517 
-0.15484 -0.0235283 -0.168388 -0.153371 -0.0168345 -0.168672 -0.149911 -0.013105 -0.167076 
-0.150224 0.00108523 -0.169349 -0.147586 0.00404045 -0.168148 -0.152442 0.0146303 -0.169485 
-0.15526 0.0283185 -0.168228 -0.155247 0.032548 -0.167835 -0.141662 -0.0127566 -0.165145 
-0.142499 -0.00869336 -0.165905 -0.139266 -0.00144127 -0.164795 -0.138702 0.00272946 -0.164441 
-0.142672 0.00672367 -0.163808 -0.142854 0.0116452 -0.165866 -0.139983 0.0130076 -0.163453 
-0.143891 0.01566 -0.165833 -0.141326 0.0166896 -0.164667 -0.147216 -0.04259 -0.161888 
-0.143815 -0.0372933 -0.16203 -0.148121 -0.0160448 -0.162607 -0.138204 -0.0158727 -0.1624 
-0.136863 -0.00935708 -0.162444 -0.132246 -0.00838361 -0.161557 -0.135424 -0.00411823 -0.162444 
-0.135647 0.000192831 -0.162205 -0.135439 0.010958 -0.162758 -0.136818 0.0233571 -0.161891 
-0.143173 0.0276039 -0.162692 -0.138308 0.0276267 -0.16183 -0.140255 0.0303687 -0.161998 
-0.150324 -0.0600159 -0.156566 -0.133282 -0.0252082 -0.159085 -0.12932 -0.023578 -0.158752 
-0.127866 -0.0160682 -0.158095 -0.126825 -0.0103624 -0.158074 -0.12286 -0.0118273 -0.157371 
-0.136497 -0.00863683 -0.158529 -0.127339 -0.00506139 -0.15859 -0.145669 0.00357736 -0.158081 
-0.123536 0.00896492 -0.15669 -0.123175 0.0154148 -0.157208 -0.133209 0.02371 -0.159181 
-0.126561 0.0299717 -0.156543 -0.130439 0.0345882 -0.157075 -0.125803 -0.0331571 -0.155494 
-0.120216 -0.0176514 -0.154677 -0.116349 -0.0111227 -0.154683 -0.111867 -0.0109136 -0.152799 
-0.11363 -0.00411872 -0.152851 -0.140051 -0.000173618 -0.152942 -0.112949 0.00906941 -0.153366 
-0.118869 0.0118207 -0.154586 -0.114134 0.0132338 -0.152483 -0.123873 0.019558 -0.155949 
-0.120708 0.0237927 -0.155077 -0.123323 0.0307915 -0.153746 -0.18586 0.0823549 -0.154807 
-0.105609 -0.0192811 -0.1494 -0.109645 -0.0134341 -0.150618 -0.105779 -0.0115074 -0.150206 
-0.11034 -0.00752621 -0.151282 -0.106548 -0.00611387 -0.14951 -0.110968 -4.50255e-05 -0.151717 
-0.109963 0.00531292 -0.152158 -0.109623 0.0120912 -0.150658 -0.123599 0.0440605 -0.150683 
-0.141722 0.0591783 -0.15233 -0.10375 -0.0218128 -0.148279 -0.100571 -0.0237039 -0.1467 
-0.100353 -0.017352 -0.14636 -0.101096 -0.012735 -0.148112 -0.1155 -0.00708277 -0.145887 
-0.0997891 -0.00279714 -0.148101 -0.107424 0.00285219 -0.148576 -0.100374 0.00142501 -0.147239 
-0.0957807 0.000556199 -0.146238 -0.116783 0.0126127 -0.149077 -0.104657 0.0130686 -0.148507 
-0.0969516 0.0138178 -0.146274 -0.0959882 0.0166254 -0.145649 -0.122993 0.0260883 -0.148053 
-0.101213 0.0334125 -0.145258 -0.107263 0.0361776 -0.147038 -0.0924889 -0.0294438 -0.141518 
-0.0969611 -0.0230834 -0.145268 -0.0984152 -0.0120479 -0.144251 -0.0932087 -0.00493997 -0.145296 
-0.092058 -0.00175201 -0.144836 -0.0892164 -0.00278212 -0.143563 -0.0909852 0.00226478 -0.143255 
-0.102562 0.00528135 -0.144524 -0.0930387 0.00688693 -0.145157 -0.0872726 0.00394176 -0.14276 
-0.0901713 0.00711701 -0.143954 -0.0890367 0.0106526 -0.143215 -0.0928966 0.0129772 -0.144637 
-0.106895 0.0383483 -0.14481 -0.0997751 0.0453146 -0.141718 -0.089 -0.0362291 -0.139558 
-0.0884188 -0.0215572 -0.140997 -0.0828883 -0.0229035 -0.139096 -0.0871754 -0.00998602 -0.141359 
-0.087043 -0.00588834 -0.1399 -0.0827926 -0.00308628 -0.139413 -0.0783791 0.00527156 -0.138562 
-0.0893477 0.007316 -0.140051 -0.0841844 0.00796479 -0.140313 -0.0883516 0.0134372 -0.141772 
-0.0851156 0.0172995 -0.139846 -0.0855756 0.0275829 -0.138571 -0.0881118 0.0318705 -0.140149 
-0.116629 0.0581157 -0.1408 -0.100019 -0.0593062 -0.136782 -0.0816043 -0.0401566 -0.13542 
-0.0932742 -0.0197106 -0.135818 -0.0776231 -0.0161151 -0.138011 -0.0762035 -0.0129477 -0.137688 
-0.0687332 -0.00939791 -0.134671 -0.10794 -0.00524054 -0.139278 -0.074843 -0.00571927 -0.136293 
-0.0694221 -0.00482521 -0.135219 -0.0698919 0.0101715 -0.13523 -0.0765448 0.0107102 -0.137969 
-0.0734064 0.0120851 -0.13653 -0.0709648 0.0130414 -0.135075 -0.0722938 0.0158167 -0.135721 
-0.0925499 0.033499 -0.136816 -0.0822412 0.0416158 -0.135425 -0.112956 -0.0782375 -0.132259 
-0.0711366 -0.0291512 -0.133528 -0.0641563 -0.0157057 -0.131741 -0.0703188 -0.0070316 -0.131995 
-0.063672 -0.00872915 -0.132615 -0.0606491 -0.00836643 -0.131358 -0.0834863 -0.00167163 -0.133203 
-0.0774328 -0.00151229 -0.134636 -0.0727187 0.000790617 -0.134033 -0.0644522 -0.000517455 -0.133231 
-0.0973184 0.005526 -0.135523 -0.0675742 0.00375527 -0.133357 -0.0635222 0.00840287 -0.131515 
-0.0665236 0.0106976 -0.133774 -0.061112 0.011798 -0.131409 -0.0637911 0.0196481 -0.131779 
-0.0735337 0.0424935 -0.131199 -0.104334 -0.0766337 -0.129887 -0.0592807 -0.0232427 -0.129448 
-0.0593687 -0.0189674 -0.129983 -0.0772377 -0.015831 -0.130865 -0.0703773 -0.0157092 -0.129846 
-0.0603675 -0.015953 -0.130757 -0.0558641 -0.0152646 -0.127856 -0.0575412 -0.00728192 -0.128998 
-0.0596395 -0.0027851 -0.130093 -0.0696125 0.00343988 -0.128126 -0.0544356 0.00556836 -0.12884 
-0.068013 0.00890261 -0.130157 -0.0576481 0.00872392 -0.130117 -0.0642294 0.0276118 -0.129458 
-0.0617437 0.0325715 -0.129014 -0.0843898 -0.0142356 -0.126332 -0.0508761 -0.0161123 -0.126537 
-0.0489218 -0.0131784 -0.126204 -0.0507902 -0.00808126 -0.125633 -0.0661548 0.0052254 -0.12594 
-0.0497643 0.00572251 -0.125453 -0.0745833 0.0104209 -0.127835 -0.0612925 0.0103237 -0.128612 
-0.0645997 0.0138904 -0.128091 -0.0501238 0.0172611 -0.126361 -0.0578804 0.0224261 -0.127573 
-0.0731131 -0.0687663 -0.122099 -0.0660183 -0.0324305 -0.123208 -0.0802037 -0.0267391 -0.122935 
-0.0570224 -0.0226258 -0.123029 -0.0534156 -0.0183448 -0.124313 -0.0394352 -0.0166231 -0.121868 
-0.0360361 -0.0167166 -0.120399 -0.0649014 -0.0134493 -0.124463 -0.0533751 -0.0115407 -0.120682 
-0.0364112 -0.0131816 -0.120914 -0.0623193 -0.00722355 -0.12232 -0.0413404 -0.00501751 -0.123298 
-0.0421392 -0.00696232 -0.120402 -0.0396185 -0.0013753 -0.121596 -0.0496036 2.15722e-05 -0.122387 
-0.0396208 0.00963078 -0.121203 -0.047286 0.015015 -0.124062 -0.0417389 0.018036 -0.121595 
-0.0513397 0.0351431 -0.123032 -0.0463068 0.0378631 -0.121519 -0.0551782 0.039372 -0.123694 
-0.0513725 0.0498706 -0.12048 -0.0415468 -0.0380114 -0.117997 -0.0341408 -0.0243886 -0.11687 
-0.0763285 -0.0217384 -0.118804 -0.0665268 -0.0163194 -0.11873 -0.0510598 -0.0169028 -0.121224 
-0.0717045 -0.0111343 -0.118588 -0.0364967 -0.013514 -0.117917 -0.0335523 -0.00771344 -0.118874 
-0.0509737 0.000101375 -0.117569 -0.0436085 0.00357307 -0.122149 -0.0344119 0.00690151 -0.120064 
-0.0738746 0.00979953 -0.120373 -0.0331678 0.0133018 -0.118411 -0.0271935 0.0101721 -0.117134 
-0.0345606 0.0170606 -0.118105 -0.0371923 0.0215444 -0.119307 -0.0632899 0.0265842 -0.117225 
[...]
POINT_DATA 523
FIELD FieldData 7
id 1 523 int
22 35 32 16 6 2 11 44 10 
12 1 57 25 14 30 23 38 13 
19 7 29 20 3 21 4 69 47 
33 28 5 40 56 73 54 45 27 
89 61 36 66 93 37 8 52 77 
42 59 85 100 87 133 176 55 15 
41 39 71 17 94 173 113 80 50 
78 74 58 31 91 120 101 98 46 
110 53 92 86 162 125 102 84 60 
76 43 18 112 67 131 164 65 145 
147 51 63 62 24 103 75 130 137 
111 48 153 88 117 95 26 104 196 
190 121 108 126 34 179 150 82 184 
68 160 118 138 107 174 171 178 168 
180 177 198 195 127 163 193 114 122 
97 141 140 79 129 202 148 142 186 
144 159 106 49 151 70 132 166 123 
115 207 210 156 105 154 83 158 139 
189 183 136 116 229 143 204 169 119 
81 134 225 157 149 187 146 209 205 
197 241 170 252 212 219 64 99 201 
265 181 200 152 161 182 215 175 224 
124 96 254 213 72 185 172 223 221 
276 245 261 206 128 228 208 230 199 
155 109 305 167 236 280 267 250 233 
238 266 191 226 242 264 251 278 135 
263 214 249 227 235 244 220 273 247 
211 218 194 192 262 253 289 188 222 
255 272 295 203 258 259 232 314 240 
292 248 256 275 270 315 237 283 299 
352 234 217 317 306 321 165 288 260 
307 298 239 216 284 330 291 274 302 
318 285 333 309 282 320 340 279 269 
90 308 370 243 324 344 290 327 246 
303 367 301 294 338 325 257 231 322 
351 336 293 287 313 300 342 310 345 
332 319 331 326 268 360 334 311 366 
296 347 355 368 323 359 382 356 357 
350 365 349 312 341 377 364 369 363 
358 379 372 304 362 297 339 353 373 
380 277 348 361 371 354 343 271 335 
281 316 376 337 329 328 378 346 375 
381 383 374 393 286 9 396 395 388 
386 391 387 384 392 390 385 389 405 
403 394 406 399 407 404 398 409 408 
402 401 418 400 397 414 416 417 421 
419 422 410 412 415 413 420 431 411 
432 429 430 424 433 427 435 425 434 
423 426 428 443 442 445 439 447 444 
438 436 446 441 440 448 437 454 451 
452 460 456 458 450 455 453 459 457 
449 468 472 462 466 471 473 464 465 
470 469 463 461 467 484 480 478 485 
482 474 477 481 476 479 475 483 486 
496 492 497 488 491 490 495 493 506 
487 489 498 494 510 503 507 501 508 
509 511 504 499 502 505 500 519 512 
522 516 517 513 514 520 521 515 523 
518 
type 1 523 int
1 1 1 1 1 1 1 1 1 
1 1 1 1 1 1 1 1 1 
1 1 1 1 1 1 1 1 1 
1 1 1 1 1 1 1 1 1 
1 1 1 1 1 1 1 1 1 
1 1 1 1 1 1 1 1 1 
1 1 1 1 1 1 1 1 1 
1 1 1 1 1 1 1 1 1 
1 1 1 1 1 1 1 1 1 
1 1 1 1 1 1 1 1 1 
1 1 1 1 1 1 1 1 1 
1 1 1 1 1 1 1 1 1 
1 1 1 1 1 1 1 1 1 
1 1 1 1 1 1 1 1 1 
1 1 1 1 1 1 1 1 1 
1 1 1 1 1 1 1 1 1 
1 1 1 1 1 1 1 1 1 
1 1 1 1 1 1 1 1 1 
1 1 1 1 1 1 1 1 1 
1 1 1 1 1 1 1 1 1 
1 1 1 1 1 1 1 1 1 
1 1 1 1 1 1 1 1 1 
1 1 1 1 1 1 1 1 1 
1 1 1 1 1 1 1 1 1 
1 1 1 1 1 1 1 1 1 
1 1 1 1 1 1 1 1 1 
1 1 1 1 1 1 1 1 1 
1 1 1 1 1 1 1 1 1 
1 1 1 1 1 1 1 1 1 
1 1 1 1 1 1 1 1 1 
1 1 1 1 1 1 1 1 1 
1 1 1 1 1 1 1 1 1 
1 1 1 1 1 1 1 1 1 
1 1 1 1 1 1 1 1 1 
1 1 1 1 1 1 1 1 1 
1 1 1 1 1 1 1 1 1 
1 1 1 1 1 1 1 1 1 
1 1 1 1 1 1 1 1 1 
1 1 1 1 1 1 1 1 1 
1 1 1 1 1 1 1 1 1 
1 1 1 1 1 1 1 1 1 
1 1 1 1 1 1 1 1 1 
1 1 1 1 1 1 1 1 1 
1 1 1 1 1 1 1 1 1 
1 1 1 1 1 1 1 1 1 
1 1 1 1 1 1 1 1 1 
1 1 1 1 1 1 1 1 1 
1 1 1 1 1 1 1 1 1 
1 1 1 1 1 1 1 1 1 
1 1 1 1 1 1 1 1 1 
1 1 1 1 1 1 1 1 1 
1 1 1 1 1 1 1 1 1 
1 1 1 1 1 1 1 1 1 
1 1 1 1 1 1 1 1 1 
1 1 1 1 1 1 1 1 1 
1 1 1 1 1 1 1 1 1 
1 1 1 1 1 1 1 1 1 
1 1 1 1 1 1 1 1 1 
1 
i 3 523 int
0 0 0 0 0 0 0 0 0 
0 0 0 0 0 0 0 0 0 
0 0 0 0 0 0 0 0 0 
0 0 0 0 0 0 0 0 0 
0 0 0 0 0 0 0 0 0 
0 0 0 0 0 0 0 0 0 
0 0 0 0 0 0 0 0 0 
0 0 0 0 0 0 0 0 0 
0 0 0 0 0 0 0 0 0 
0 0 0 0 0 0 0 0 0 
0 0 0 0 0 0 0 0 0 
0 0 0 0 0 0 0 0 0 
0 0 0 0 0 0 0 0 0 
0 0 0 0 0 0 0 0 0 
0 0 0 0 0 0 0 0 0 
0 0 0 0 0 0 0 0 0 
0 0 0 0 0 0 0 0 0 
0 0 0 0 0 0 0 0 0 
0 0 0 0 0 0 0 0 0 
0 0 0 0 0 0 0 0 0 
0 0 0 0 0 0 0 0 0 
0 0 0 0 0 0 0 0 0 
0 0 0 0 0 0 0 0 0 
0 0 0 0 0 0 0 0 0 
0 0 0 0 0 0 0 0 0 
0 0 0 0 0 0 0 0 0 
0 0 0 0 0 0 0 0 0 
0 0 0 0 0 0 0 0 0 
0 0 0 0 0 0 0 0 0 
0 0 0 0 0 0 0 0 0 
0 0 0 0 0 0 0 0 0 
0 0 0 0 0 0 0 0 0 
0 0 0 0 0 0 0 0 0 
0 0 0 0 0 0 0 0 0 
0 0 0 0 0 0 0 0 0 
0 0 0 0 0 0 0 0 0 
0 0 0 0 0 0 0 0 0 
0 0 0 0 0 0 0 0 0 
0 0 0 0 0 0 0 0 0 
0 0 0 0 0 0 0 0 0 
0 0 0 0 0 0 0 0 0 
0 0 0 0 0 0 0 0 0 
0 0 0 0 0 0 0 0 0 
0 0 0 0 0 0 0 0 0 
0 0 0 0 0 0 0 0 0 
0 0 0 0 0 0 0 0 0 
0 0 0 0 0 0 0 0 0 
0 0 0 0 0 0 0 0 0 
0 0 0 0 0 0 0 0 0 
0 0 0 0 0 0 0 0 0 
0 0 0 0 0 0 0 0 0 
0 0 0 0 0 0 0 0 0 
0 0 0 0 0 0 0 0 0 
0 0 0 0 0 0 0 0 0 
0 0 0 0 0 0 0 0 0 
0 0 0 0 0 0 0 0 0 
0 0 0 0 0 0 0 0 0 
0 0 0 0 0 0 0 0 0 
0 0 0 0 0 0 0 0 0 
0 0 0 0 0 0 0 0 0 
0 0 0 0 0 0 0 0 0 
0 0 0 0 0 0 0 0 0 
0 0 0 0 0 0 0 0 0 
0 0 0 0 0 0 0 0 0 
0 0 0 0 0 0 0 0 0 
0 0 0 0 0 0 0 0 0 
0 0 0 0 0 0 0 0 0 
0 0 0 0 0 0 0 0 0 
0 0 0 0 0 0 0 0 0 
0 0 0 0 0 0 0 0 0 
0 0 0 0 0 0 0 0 0 
0 0 0 0 0 0 0 0 0 
0 0 0 0 0 0 0 0 0 
0 0 0 0 0 0 0 0 0 
0 0 0 0 0 0 0 0 0 
0 0 0 0 0 0 0 0 0 
0 0 0 0 0 0 0 0 0 
0 0 0 0 0 0 0 0 0 
0 0 0 0 0 0 0 0 0 
0 0 0 0 0 0 0 0 0 
0 0 0 0 0 0 0 0 0 
0 0 0 0 0 0 0 0 0 
0 0 0 0 0 0 0 0 0 
0 0 0 0 0 0 0 0 0 
0 0 0 0 0 0 0 0 0 
0 0 0 0 0 0 0 0 0 
0 0 0 0 0 0 0 0 0 
0 0 0 0 0 0 0 0 0 
0 0 0 0 0 0 0 0 0 
0 0 0 0 0 0 0 0 0 
0 0 0 0 0 0 0 0 0 
0 0 0 0 0 0 0 0 0 
0 0 0 0 0 0 0 0 0 
0 0 0 0 0 0 0 0 0 
0 0 0 0 0 0 0 0 0 
0 0 0 0 0 0 0 0 0 
0 0 0 0 0 0 0 0 0 
0 0 0 0 0 0 0 0 0 
0 0 0 0 0 0 0 0 0 
0 0 0 0 0 0 0 0 0 
0 0 0 0 0 0 0 0 0 
0 0 0 0 0 0 0 0 0 
0 0 0 0 0 0 0 0 0 
0 0 0 0 0 0 0 0 0 
0 0 0 0 0 0 0 0 0 
0 0 0 0 0 0 0 0 0 
0 0 0 0 0 0 0 0 0 
0 0 0 0 0 0 0 0 0 
0 0 0 0 0 0 0 0 0 
0 0 0 0 0 0 0 0 0 
0 0 0 0 0 0 0 0 0 
0 0 0 0 0 0 0 0 0 
0 0 0 0 0 0 0 0 0 
0 0 0 0 0 0 0 0 0 
0 0 0 0 0 0 0 0 0 
0 0 0 0 0 0 0 0 0 
0 0 0 0 0 0 0 0 0 
0 0 0 0 0 0 0 0 0 
0 0 0 0 0 0 0 0 0 
0 0 0 0 0 0 0 0 0 
0 0 0 0 0 0 0 0 0 
0 0 0 0 0 0 0 0 0 
0 0 0 0 0 0 0 0 0 
0 0 0 0 0 0 0 0 0 
0 0 0 0 0 0 0 0 0 
0 0 0 0 0 0 0 0 0 
0 0 0 0 0 0 0 0 0 
0 0 0 0 0 0 0 0 0 
0 0 0 0 0 0 0 0 0 
0 0 0 0 0 0 0 0 0 
0 0 0 0 0 0 0 0 0 
0 0 0 0 0 0 0 0 0 
0 0 0 0 0 0 0 0 0 
0 0 0 0 0 0 0 0 0 
0 0 0 0 0 0 0 0 0 
0 0 0 0 0 0 0 0 0 
0 0 0 0 0 0 0 0 0 
0 0 0 0 0 0 0 0 0 
0 0 0 0 0 0 0 0 0 
0 0 0 0 0 0 0 0 0 
0 0 0 0 0 0 0 0 0 
0 0 0 0 0 0 0 0 0 
0 0 0 0 0 0 0 0 0 
0 0 0 0 0 0 0 0 0 
0 0 0 0 0 0 0 0 0 
0 0 0 0 0 0 0 0 0 
0 0 0 0 0 0 0 0 0 
0 0 0 0 0 0 0 0 0 
0 0 0 0 0 0 0 0 0 
0 0 0 0 0 0 0 0 0 
0 0 0 0 0 0 0 0 0 
0 0 0 0 0 0 0 0 0 
0 0 0 0 0 0 0 0 0 
0 0 0 0 0 0 0 0 0 
0 0 0 0 0 0 0 0 0 
0 0 0 0 0 0 0 0 0 
0 0 0 0 0 0 0 0 0 
0 0 0 0 0 0 0 0 0 
0 0 0 0 0 0 0 0 0 
0 0 0 0 0 0 0 0 0 
0 0 0 0 0 0 0 0 0 
0 0 0 0 0 0 0 0 0 
0 0 0 0 0 0 0 0 0 
0 0 0 0 0 0 0 0 0 
0 0 0 0 0 0 0 0 0 
0 0 0 0 0 0 0 0 0 
0 0 0 0 0 0 0 0 0 
0 0 0 0 0 0 0 0 0 
0 0 0 0 0 0 0 0 0 
0 0 0 0 0 0 0 0 0 
0 0 0 0 0 0 0 0 0 
0 0 0 0 0 0 0 0 0 
0 0 0 0 0 0 0 0 0 
0 0 0 0 0 0 0 0 0 
0 0 0 
v 3 523 double
-1.40023 -0.251904 -1.12144 -1.34345 0.15557 -0.748408 -1.49282 0.013101 -0.76696 
-1.41114 0.00647445 -0.596764 -1.31074 -0.0225873 -0.548994 -1.27787 -0.0108931 -0.536509 
-1.23719 -0.00860987 -0.521365 -1.28786 -0.178128 -0.554389 -1.24158 0.0293504 -0.521424 
-1.29707 -0.00938774 -0.539376 -1.20697 0.00220329 -0.499859 -1.30903 -0.136624 -0.5547 
-1.19977 0.0227795 -0.503421 -1.0289 -0.101316 -0.385739 -1.17528 0.0792747 -0.496496 
-1.12199 -0.0423413 -0.47418 -1.18549 0.0043179 -0.50047 -1.18905 0.139718 -0.571488 
-0.9855 -0.0459734 -0.405634 -0.84669 0.032829 -0.360522 -1.18362 0.0148361 -0.500097 
-1.2213 -0.106535 -0.463639 -1.09451 0.175497 -0.455593 -1.2404 0.00323848 -0.506764 
-0.976944 0.0591455 -0.438446 -0.991904 0.0493865 -0.411136 -1.07973 0.0184941 -0.456897 
-1.1476 -0.0129556 -0.436721 -1.08683 -0.0736188 -0.461216 -1.09184 0.0574165 -0.472589 
-1.08155 0.0691173 -0.470213 -1.06136 -0.136885 -0.432183 -0.955796 -0.0239462 -0.398297 
-1.07487 0.167831 -0.484403 -1.05622 0.148872 -0.457158 -1.04405 0.0694897 -0.441979 
-0.937296 0.0449195 -0.4011 -0.94254 0.0811933 -0.402974 -0.91419 0.0500396 -0.396183 
-1.04898 -0.0681282 -0.457589 -1.07704 -0.0031826 -0.438332 -0.991425 0.0635399 -0.43947 
-0.905238 -0.0103134 -0.366864 -0.919712 0.0245198 -0.396087 -0.851249 0.0237511 -0.48118 
-0.907356 0.0579365 -0.377008 -0.922223 0.0771184 -0.382421 -0.909758 -0.0310635 -0.385675 
-0.962114 0.0271146 -0.399878 -0.936208 0.0173883 -0.402911 -0.878602 -0.0119645 -0.364907 
-0.819226 0.0613548 -0.341005 -0.783704 -0.0831744 -0.334282 -0.77002 0.000283013 -0.319137 
-0.897712 -0.0772212 -0.367372 -0.837055 0.0969488 -0.344187 -0.764279 -0.0331781 -0.353593 
-0.910102 -0.0455469 -0.409139 -1.01372 -0.00551513 -0.419774 -1.17229 -0.0277335 -0.489006 
-0.821315 -0.134383 -0.341527 -0.701908 -0.167883 -0.269707 -0.656367 -0.0861634 -0.247599 
-0.78827 -0.0371877 -0.325146 -0.775027 -0.0153232 -0.318806 -0.755695 -0.109938 -0.31424 
-0.862521 -0.015972 -0.362338 -1.05237 -0.0378657 -0.378304 -1.29372 0.161272 -0.556654 
-0.745579 -0.150187 -0.270336 -0.877988 -0.0346113 -0.364913 -0.758713 -0.0366392 -0.331623 
-0.798131 0.00723534 -0.324281 -0.732619 -0.0488171 -0.30001 -0.751779 -0.0632145 -0.316565 
-0.705497 0.00692891 -0.147256 -0.755373 0.084441 -0.313211 -0.742909 0.0948921 -0.250868 
-0.6204 0.0103564 -0.258043 -0.94458 -0.129824 -0.421448 -1.00464 -0.143541 -0.471422 
-0.790294 0.014758 -0.375637 -0.941699 -0.0821706 -0.356055 -0.761566 -0.0263658 -0.313861 
-0.753802 -0.0043464 -0.312298 -0.797277 0.0439199 -0.329102 -0.935457 -0.00797684 -0.622383 
-0.855225 0.0298893 -0.368093 -0.874286 -0.0258698 -0.367016 -0.860702 0.156321 -0.435581 
-1.0029 0.0383884 -0.551292 -1.01901 0.226967 -0.654565 -0.941881 0.0256253 -0.364358 
-0.802728 -0.0508306 -0.307179 -0.851169 -0.0894224 -0.340765 -0.731548 -0.143773 -0.266706 
-0.833308 0.153492 -0.37322 -0.792026 -0.0302511 -0.372178 -0.738803 -0.0267449 -0.352945 
-0.742664 0.0678476 -0.304765 -0.756152 0.0598087 -0.311489 -0.93034 -0.00824347 -0.385799 
-0.827016 -0.0275752 -0.342436 -0.955928 -0.0900806 -0.41389 -0.81621 -0.00667939 -0.317604 
-0.796247 -0.0230302 -0.354426 -0.75103 -0.0275216 -0.307382 -0.815583 0.100056 -0.334936 
-0.949339 0.0618704 -0.379073 -0.632084 0.0588964 -0.272114 -0.829081 0.0850225 -0.357453 
-1.09477 -0.0824785 -0.567631 -0.745468 -0.095605 -0.324956 -0.628013 -0.0773351 -0.392691 
-0.672159 -0.0846092 -0.274841 -0.647811 -0.00372346 -0.277209 -0.624114 0.0641081 -0.248398 
-0.662725 0.0348287 -0.323229 -0.548129 0.0964029 -0.254057 -0.695872 0.108044 -0.263458 
-0.634808 0.177101 -0.238377 -0.626874 0.163066 -0.239823 -0.77143 -0.150273 -0.250499 
-0.674068 -0.067178 -0.248039 -0.835846 -0.294907 -0.400165 -0.81087 -0.127758 -0.323719 
-0.742124 -0.0868961 -0.309403 -0.881274 -0.00801737 -0.420388 -0.693543 -0.0327707 -0.463301 
-0.597857 -0.0318738 -0.248601 -0.663292 0.0265622 -0.286339 -0.754073 0.0117339 -0.324233 
-0.709826 -0.092114 -0.311174 -0.730732 -0.0308366 -0.300527 -0.740514 -0.0671735 -0.312645 
-0.876709 0.0980481 -0.381025 -0.765235 -0.0708311 -0.315305 -0.765262 0.00273796 -0.319797 
-0.758342 0.0345071 -0.327027 -0.798104 0.0460151 -0.344445 -0.7825 0.0630465 -0.332689 
-0.791934 -0.0695806 -0.308695 -0.703206 -0.139793 -0.28875 -0.882575 -0.024298 -0.243421 
-0.641636 0.0698755 -0.258711 -0.774546 -0.0540854 -0.32887 -0.731468 -0.0182624 -0.320983 
-0.738359 -0.0424605 -0.322466 -0.688979 0.0435929 -0.276705 -0.623207 -0.00204087 -0.260016 
-0.707665 0.0460535 -0.304545 -0.74756 0.0495355 -0.319732 -0.659136 -0.0457388 -0.274079 
-0.573359 0.101008 -0.240647 -1.15432 -0.226845 -0.432597 -0.688593 0.0163165 -0.292091 
-0.610294 0.0442269 -0.254878 -0.582707 0.0569922 -0.240992 -0.807279 -0.0393766 -0.343886 
-0.681193 -0.0467336 -0.293504 -0.74297 0.0509559 -0.336256 -1.09833 0.000266743 -0.322174 
-0.743408 -0.0107203 -0.311471 -0.649817 -0.0367628 -0.270147 -0.647657 -0.0137559 -0.270757 
-0.67634 -0.0427867 -0.267169 -0.602191 -0.148315 -0.0102432 -0.581814 0.106404 -0.247794 
-0.907036 -0.207632 -0.294241 -0.589082 0.0166405 -0.246743 -0.626482 0.0338432 -0.243082 
-0.771316 0.0202661 -0.299359 -0.693997 -0.000722339 -0.289719 -0.690011 -0.151191 -0.267921 
-0.651963 -0.0822267 -0.264776 -0.692094 -0.0828929 -0.331387 -0.87589 -0.160951 -0.213084 
-0.401561 -0.072542 -0.168858 -0.558864 0.1899 -0.259654 -0.4884 -0.0344851 -0.20552 
-0.401755 -0.100321 -0.165751 -0.90319 0.0142355 -0.465723 -0.701082 0.0190722 -0.290046 
-0.653052 -0.0273958 -0.279229 -0.672416 -0.0141786 -0.286483 -0.848855 0.0716805 -0.23201 
-0.602168 0.0218042 -0.243107 -0.580286 -0.000840106 -0.235095 -0.569205 -0.28735 -0.134483 
-0.801063 -0.0107029 -0.337025 -0.698256 0.0185851 -0.235076 -0.75392 0.081098 -0.324459 
-0.540605 -0.125036 -0.228264 -0.494863 0.00706481 -0.266559 -0.592331 -0.0917094 -0.249548 
-0.949838 0.0955374 -0.380757 -0.519032 0.100435 -0.317111 -0.590096 -0.0547954 -0.247945 
-0.608791 -0.0338266 -0.263178 -0.603051 0.0336831 -0.252807 -0.582672 -0.0738468 -0.249676 
-0.756955 0.0688036 -0.183995 -0.643724 0.12114 -0.219432 -0.654848 -0.0550871 -0.26554 
-0.465805 -0.057563 -0.149284 -0.295562 0.0208742 -0.168347 -0.846762 0.0419534 -0.368796 
-0.706072 0.142039 -0.489938 -0.619309 0.185948 -0.277346 -0.635047 0.0287831 -0.219653 
-0.61359 -0.0237446 -0.265797 -0.624444 0.00504579 -0.265155 -0.627817 0.0580536 -0.300308 
-0.673122 0.0415987 -0.31109 -0.343842 0.128411 -0.110916 -0.729197 -0.0116984 -0.309656 
-0.364168 0.251699 -0.0691732 -0.640365 0.0550273 -0.281609 -0.807776 -0.324576 -0.137072 
-0.91411 0.136395 -0.0304289 -0.603293 -0.0528053 -0.248495 -0.591819 -0.0154888 -0.247467 
-0.500996 -0.07929 -0.233972 -0.733933 0.0482192 -0.68831 -0.512162 0.00183282 -0.207372 
-0.700389 -0.0313247 -0.296092 -0.529967 -0.015571 -0.222793 -0.495142 -0.0397911 -0.210418 
-0.439702 0.0058669 -0.18597 -0.445782 0.0346716 -0.194474 -0.585804 0.00291443 -0.248333 
-0.689938 0.439191 -0.593705 -1.00818 0.0242135 -0.414925 -0.5508 0.0736721 -0.250186 
-0.612474 -0.131018 -0.230471 -0.310719 0.0600454 -0.153335 -0.764386 0.084604 -0.239941 
-0.54581 0.0304323 -0.230752 -0.484916 -0.030492 -0.203895 -0.68265 -0.192351 -0.732334 
-0.728884 0.0322098 -0.361959 -0.632805 0.321539 -0.357959 -0.493723 -0.151038 -0.187381 
-0.833637 -0.113133 -0.650708 -0.517732 0.00618811 -0.219776 -0.496976 0.0414839 -0.194318 
-0.445412 -0.0987517 -0.195426 -0.480204 0.0457615 -0.195815 -0.703289 -0.101901 -0.303166 
-0.710445 0.236195 -0.199011 -0.760038 -0.130951 -0.2116 -0.453458 -0.0136916 -0.188151 
-0.518955 -0.0556744 -0.210668 -0.884362 -0.0509078 -0.563179 -0.655256 0.100185 -0.317224 
-0.558126 -0.0495005 -0.229613 -0.49094 0.170574 -0.226629 -0.492164 0.0142647 -0.207899 
-0.430959 0.0721837 -0.184037 -0.804092 -0.0475418 -0.283718 -0.508859 -0.0875564 -0.222605 
-0.2843 0.104372 -0.671515 -0.436665 -0.0150837 -0.204483 -0.592991 -0.0135531 -0.170022 
-0.562232 -0.0625843 -0.237152 -0.789343 0.071352 -0.557606 -0.364226 0.143211 -0.155642 
-0.28889 -0.0169298 -0.120671 -0.574739 -0.0538659 -0.342373 -0.66179 0.076062 -0.31792 
-1.35878 0.185037 -0.375164 -0.620111 0.339008 -0.692166 -0.334891 0.229753 -0.304994 
-0.724004 -0.154294 -0.465496 -0.52373 0.300025 -0.191325 -0.658186 -0.105109 -0.264369 
-0.582171 -0.261613 -0.123798 -0.713402 -0.605081 -0.500541 -0.554324 -0.140741 -0.455136 
-0.777646 0.158034 -0.433849 -0.688345 0.205568 -0.35361 -0.348212 -0.276366 -0.113297 
-0.245032 -0.145104 -0.0923181 -0.774034 -0.0035918 -0.327129 -0.505827 0.00197288 -0.23245 
-0.409218 -0.111986 -0.0814026 -0.568106 0.110035 -0.592578 -0.443306 -0.0906472 -0.188197 
-0.528705 -0.0504096 -0.145793 -0.486873 -0.0981398 -0.217645 -0.722911 -0.167194 -0.312664 
-0.263739 -0.0580365 -0.0782608 -0.495151 0.171727 -0.311494 -0.456945 0.12233 -0.17186 
-0.298428 0.00562602 -0.0783113 -0.461594 0.215244 -0.145863 -0.377572 0.163198 -0.137152 
-0.424365 0.00137697 -0.188388 -0.650597 -0.11997 -0.214207 -0.627582 0.207483 -0.0469468 
-0.491712 0.0507382 -0.570854 -0.982111 0.254885 -0.117744 -0.571741 -0.331994 -0.436749 
-0.703363 0.289387 -0.458818 -0.65419 -0.552835 -0.0278723 -0.294102 -0.171228 -0.110793 
-0.909528 -0.0528663 -0.190183 -0.647607 0.350055 -0.914696 -0.450164 0.12316 -0.214265 
-0.724525 -0.263273 -0.476741 -0.197016 -0.0373951 -0.256492 -0.352624 -0.106725 -0.159498 
-0.349928 -0.0428509 -0.358491 -0.364184 -0.0993837 -0.128152 -0.756816 -0.0326687 -0.238728 
-0.670997 0.276724 -0.222037 -0.499046 0.223688 -0.139634 -0.720823 -0.0619239 -0.500058 
-0.624912 0.0200291 -0.224768 -0.370232 -0.165588 -0.452859 -0.767434 0.635444 -1.08996 
-0.29319 0.27369 -0.0449575 -0.643635 0.129165 -0.415781 -0.557915 0.224297 -0.133058 
-0.732181 -0.110349 -0.0312753 -0.285162 -0.215325 -0.111625 -0.424303 0.421122 -0.552567 
-0.448603 0.0722455 -0.394625 -0.262148 -0.00322484 -0.10821 -0.454669 0.159212 0.0230405 
-0.256364 0.033429 -0.0422092 -0.56583 0.412482 -0.00610771 -0.620057 -0.419423 -0.828028 
-0.72067 0.264573 -0.396482 -0.554554 0.21338 -0.603684 -0.397773 0.0231104 -0.131693 
-0.811969 0.345176 -0.164292 -0.605854 0.304285 -0.0862569 -0.199467 0.250567 0.158348 
-0.72932 -0.109918 0.299652 -0.322898 -0.12361 0.0347104 -0.109582 -0.189115 -0.0350295 
-0.49361 -0.170753 0.144348 -0.446156 0.110023 -0.0588081 -0.640209 -0.14746 -0.219754 
-0.242492 -0.386617 0.0264237 -0.743416 -0.192541 -0.112925 -0.882693 -0.376877 -0.337616 
-0.13776 0.223187 0.0913218 -0.714712 0.1277 0.213124 -1.11771 0.265363 -0.70181 
-0.359496 0.24997 0.228968 -0.562375 0.167128 0.0350218 -0.733566 0.106306 0.243767 
-0.724976 0.0739709 -0.287323 -0.678545 -0.276707 -0.236319 -0.71919 -0.0267173 -0.334812 
-0.749141 -0.0168511 -0.0207909 -0.714328 -0.146745 0.084272 -0.360451 0.526611 0.141842 
0 0 -2.05668 -0.660839 -0.238081 -0.281283 -0.799929 -0.240746 -0.23236 
-0.0675686 -0.245764 -0.0271486 -0.70206 -0.269569 0.149211 -0.696059 -0.326682 0.0232476 
-0.71541 0.262642 -0.115172 -0.632994 -0.131974 -0.426087 -0.556295 0.0748484 0.142224 
-0.430625 -0.0692044 -0.393706 -0.694607 0.15001 -0.14081 0 0 -2.03775 
-0.72161 -0.0268072 -0.0493425 -0.71497 -0.327265 -0.239631 -0.211276 0.0149324 -0.00826337 
-0.645304 0.032655 0.155129 -0.664095 0.242927 -0.00741976 -0.111841 -0.128901 -0.790455 
-0.719591 -0.0267322 0.292711 -0.706888 -0.181634 0.27468 -0.697869 -0.855269 -0.0828557 
0 0 -2.00342 -0.448739 -0.179456 -0.219988 -0.521542 0.0274707 -0.196376 
0 0 -1.98183 0 0 -1.96692 0 0 -1.97683 
0 0 -1.95417 0 0 -1.95927 0 0 -1.94436 
0 0 -1.94622 0 0 -1.92248 0 0 -1.92964 
0 0 -1.91385 0 0 -1.92876 0 0 -1.8958 
0 0 -1.90021 0 0 -1.90796 0 0 -1.90227 
0 0 -1.89227 0 0 -1.88884 0 0 -1.86627 
0 0 -1.86902 0 0 -1.83998 0 0 -1.85372 
0 0 -1.81752 0 0 -1.82733 0 0 -1.80172 
0 0 -1.80996 0 0 -1.81467 0 0 -1.79466 
0 0 -1.78848 0 0 -1.78328 0 0 -1.76749 
0 0 -1.77808 0 0 -1.76307 0 0 -1.76111 
0 0 -1.75473 0 0 -1.74875 0 0 -1.73953 
0 0 -1.72 0 0 -1.70058 0 0 -1.71549 
0 0 -1.70313 0 0 -1.68851 0 0 -1.68116 
0 0 -1.68067 0 0 -1.67861 0 0 -1.66625 
0 0 -1.66409 0 0 -1.63878 0 0 -1.64614 
0 0 -1.61494 0 0 -1.62171 0 0 -1.62985 
0 0 -1.59895 0 0 -1.59306 0 0 -1.58021 
0 0 -1.58208 0 0 -1.58129 0 0 -1.55255 
0 0 -1.56609 0 0 -1.56569 0 0 -1.56295 
0 0 -1.54696 0 0 -1.55294 0 0 -1.54117 
0 0 -1.51831 0 0 -1.50752 0 0 -1.49467 
0 0 -1.48329 0 0 -1.47652 0 0 -1.47377 
0 0 -1.46828 0 0 -1.45876 0 0 -1.43875 
0 0 -1.4361 0 0 -1.44817 0 0 -1.45033 
0 0 -1.42384 0 0 -1.39569 0 0 -1.37695 
0 0 -1.39539 0 0 -1.37224 0 0 -1.3535 
0 0 -1.3741 0 0 -1.36135 0 0 -1.37597 
0 0 -1.35164 0 0 -1.35233 0 0 -1.34605 
0 0 -1.33702 0 0 -1.32986 0 0 -1.31779 
0 0 -1.31466 0 0 -1.29847 0 0 -1.29386 
0 0 -1.28424 0 0 -1.27424 0 0 -1.27963 
0 0 -1.27257 0 0 -1.25354 0 0 -1.24746 
0 0 -1.2505 0 0 -1.2296 0 0 -1.20007 
0 0 -1.1987 0 0 -1.15436 0 0 -1.15789 
0 0 -1.1525 0 0 -1.16643 0 0 -1.15662 
0 0 -1.16358 0 0 -1.18006 0 0 -1.1213 
0 0 -1.14023 0 0 -1.14779 0 0 -1.14367 
0 0 -1.14033 0 0 -1.09962 0 0 -1.0902 
0 0 -1.11885 0 0 -1.09472 0 0 -1.08059 
0 0 -1.06342 0 0 -1.0698 0 0 -1.06568 
0 0 -1.02663 0 0 -1.02477 0 0 -1.04871 
0 0 -1.03703 0 0 -1 0 0 -1 
0 0 -1 0 0 -1 0 0 -1 
0 0 -1 0 0 -1 0 0 -1 
0 0 -1 0 0 -1 0 0 -1 
0 0 -1 
f 3 523 double
0 0 -0.000346714 0 0 -0.000346714 0 0 -0.000346714 
0 0 -0.00160516 -8.76174e-05 2.26542e-05 -3.93557e-05 -0.000422686 0.00010974 -0.000138226 