# vtk DataFile Version 4.0
Generated by LIGGGHTS
ASCII
DATASET POLYDATA
POINTS 383 float
-0.212068 -0.0342799 -0.190875 -0.200083 0.0328291 -0.186352 -0.185609 -0.00302812 -0.183084 
-0.248765 0.0754923 -0.182199 -0.172644 -0.000233773 -0.178756 -0.166142 -0.00854413 -0.174773 
-0.167181 -0.00408898 -0.176448 -0.163342 0.00265924 -0.174856 -0.160464 -0.0114755 -0.17327 
-0.160216 -0.00491738 -0.173529 -0.155392 -0.00133016 -0.171501 -0.161873 0.0182701 -0.173171 
-0.177441 0.0519003 -0.170912 -0.149027 -0.00622967 -0.167656 -0.148516 0.0052596 -0.168397 
-0.158826 0.00788706 -0.168571 -0.150321 0.0093783 -0.169175 -0.142966 -0.0185627 -0.164119 
-0.140039 -0.00403341 -0.163895 -0.141017 0.0086968 -0.165061 -0.140331 0.0131578 -0.163579 
-0.142076 0.0223745 -0.164291 -0.146578 -0.0411942 -0.162077 -0.132484 -0.0155468 -0.16004 
-0.128805 -0.00744596 -0.160224 -0.136746 1.49266e-05 -0.162309 -0.127652 0.00302696 -0.159842 
-0.132609 0.00613956 -0.161761 -0.134838 0.0273712 -0.160502 -0.137271 -0.0368568 -0.159443 
-0.125653 -0.0165378 -0.157123 -0.155008 -0.0150948 -0.15778 -0.126315 -0.00586309 -0.159222 
-0.125483 0.000530531 -0.158923 -0.123909 0.00300627 -0.156998 -0.12482 0.00968901 -0.15825 
-0.11644 -0.02206 -0.153568 -0.121121 -0.0176386 -0.15506 -0.115924 -0.0175053 -0.153981 
-0.120349 -0.0106006 -0.155278 -0.116926 -0.00523048 -0.155306 -0.119902 0.00700627 -0.155327 
-0.114616 0.00818888 -0.153048 -0.113166 0.0120018 -0.153177 -0.117065 0.0162586 -0.153506 
-0.118025 -0.0320484 -0.151405 -0.110144 -0.0161269 -0.151736 -0.113784 -0.0124069 -0.152424 
-0.11028 -0.00970602 -0.152078 -0.105027 -0.00571203 -0.148547 -0.103269 0.00268851 -0.149538 
-0.109849 0.00378915 -0.151233 -0.106726 0.00746576 -0.14967 -0.108502 0.0107389 -0.151371 
-0.105444 -0.0286792 -0.146872 -0.102695 -0.0210302 -0.147943 -0.0985177 -0.0130297 -0.147045 
-0.0970822 -0.0104209 -0.146598 -0.0943211 -0.00997384 -0.145476 -0.0985002 -0.00592403 -0.147473 
-0.106763 -0.000156692 -0.145442 -0.0991191 0.00112028 -0.147796 -0.10329 0.00555203 -0.148443 
-0.1168 0.00932222 -0.145529 -0.13733 0.0715746 -0.145464 -0.088835 -0.00612419 -0.143373 
-0.0958294 -0.00207334 -0.145121 -0.0903886 -0.00233084 -0.143061 -0.0917247 0.00900906 -0.144499 
-0.090339 0.0121662 -0.142521 -0.104451 0.014181 -0.147307 -0.0971875 0.0144226 -0.145241 
-0.0980231 0.0213638 -0.14487 -0.172731 -0.0926813 -0.140778 -0.0809381 -0.0230812 -0.138549 
-0.0817722 -0.0169543 -0.139661 -0.0840844 -0.0124217 -0.140004 -0.080115 -0.00838574 -0.138484 
-0.106687 -0.00361257 -0.14339 -0.0903345 0.000329084 -0.138885 -0.0897496 0.00838387 -0.140051 
-0.0907191 0.0312675 -0.141174 -0.0923091 0.0340038 -0.141332 -0.0879307 0.0352191 -0.139339 
-0.0849689 -0.0357969 -0.137972 -0.0788706 -0.0183033 -0.137174 -0.072995 -0.0194889 -0.135642 
-0.0884439 -0.00529118 -0.136887 -0.0762488 -0.00511446 -0.138081 -0.0946314 0.0014685 -0.140823 
-0.073348 0.0188964 -0.135891 -0.0750034 0.0232889 -0.135806 -0.0726907 0.0254544 -0.134735 
-0.0715993 -0.0256502 -0.134326 -0.0817387 -0.0218005 -0.134128 -0.0747005 -0.0204532 -0.133342 
-0.06421 -0.0126924 -0.131568 -0.0948047 -0.0072588 -0.134088 -0.085809 -0.0035328 -0.134768 
-0.0788204 -0.00613974 -0.132863 -0.0903792 -0.00303403 -0.133559 -0.0692308 0.0038521 -0.134057 
-0.063757 0.0120055 -0.132494 -0.0678501 0.0158458 -0.131887 -0.0664189 0.0209068 -0.131684 
-0.0680328 0.0332193 -0.13147 -0.0932468 0.0534308 -0.135258 -0.0650681 -0.0352215 -0.129367 
-0.0785814 -0.0204554 -0.131863 -0.0579781 -0.018358 -0.129439 -0.0597142 -0.014713 -0.129517 
-0.0587845 -0.0091667 -0.129448 -0.0612346 0.00203208 -0.13037 -0.0807782 0.00506288 -0.13243 
-0.0746973 0.00589646 -0.131655 -0.0687739 0.00492052 -0.130085 -0.072078 0.00806646 -0.129185 
-0.065791 0.0229094 -0.128279 -0.0606587 0.0226495 -0.130183 -0.0563558 0.0242487 -0.128066 
-0.063347 0.0299301 -0.130106 -0.0698536 0.0437142 -0.128651 -0.0752573 0.057584 -0.127586 
-0.0663195 -0.0563919 -0.124447 -0.0520889 -0.0201836 -0.125206 -0.0504581 -0.0156368 -0.126496 
-0.0739722 -0.0135376 -0.127663 -0.0542149 -0.0131377 -0.127353 -0.0473532 -0.013049 -0.12492 
-0.0457901 -0.0104123 -0.124997 -0.0861754 -0.00624955 -0.128849 -0.0848832 -0.00922219 -0.127559 
-0.0823895 -0.00731932 -0.128557 -0.0650576 -0.0097013 -0.127127 -0.0545716 -0.00734816 -0.127199 
-0.0505639 -0.00557993 -0.124575 -0.0701235 0.00269933 -0.126535 -0.0467238 0.00534593 -0.124289 
-0.0512284 0.00842583 -0.126272 -0.0487783 0.0141614 -0.126076 -0.0500164 0.0242206 -0.125477 
-0.0406084 -0.0268712 -0.121194 -0.0490273 -0.0213565 -0.120996 -0.0435924 -0.0146237 -0.122732 
-0.0778581 -0.0107601 -0.122928 -0.0523876 -0.0135955 -0.12273 -0.0425585 -0.0108095 -0.123625 
-0.0438018 -0.00820672 -0.122035 -0.0763208 -0.00358039 -0.12522 -0.0549333 0.00170321 -0.124211 
-0.0380172 0.00169241 -0.120831 -0.0439772 0.008198 -0.122364 -0.0413629 0.00951477 -0.122995 
-0.0449954 0.0158281 -0.12202 -0.0449966 0.0232003 -0.12332 -0.0625565 0.0257664 -0.122331 
-0.0637258 -0.0697275 -0.117968 -0.0347208 -0.0198161 -0.118564 -0.0296059 -0.0174927 -0.117471 
-0.0895913 -0.0148976 -0.12 -0.0754716 -0.0116956 -0.119204 -0.0679736 -0.00920412 -0.117958 
-0.053824 -0.00684469 -0.118499 -0.0728977 -0.00177836 -0.121539 -0.0354862 0.00643043 -0.116957 
-0.0341586 0.00788736 -0.1198 -0.0266738 0.00926982 -0.116973 -0.0443346 0.0112647 -0.118361 
-0.0387538 0.0118419 -0.120255 -0.0357856 0.0260296 -0.118877 -0.0424749 -0.0522014 -0.116024 
-0.0345653 -0.0454717 -0.114047 -0.0292096 -0.026899 -0.115286 -0.0257231 -0.0243224 -0.113775 
-0.0294179 -0.0211518 -0.115597 -0.0638152 -0.0173833 -0.115742 -0.0538161 -0.0110789 -0.115361 
-0.050202 -0.012679 -0.11653 -0.0259404 -0.00823649 -0.115573 -0.0177015 -0.0066499 -0.113308 
-0.058413 2.93869e-05 -0.116043 -0.0275415 -0.00244608 -0.116457 -0.0403517 0.00561917 -0.116752 
-0.0682962 0.00864908 -0.116437 -0.0327476 0.0122126 -0.116447 -0.0653315 0.0142624 -0.11701 
-0.0642521 0.0157985 -0.114213 -0.02583 0.0149758 -0.114203 -0.049632 0.0194677 -0.115896 
-0.0924639 0.0281658 -0.116633 -0.0563388 0.024396 -0.113599 -0.0459882 0.0295359 -0.116049 
-0.0189497 -0.0267689 -0.111077 -0.029018 -0.0222968 -0.112663 -0.0252645 -0.0192666 -0.111476 
-0.017248 -0.0145622 -0.112554 -0.0208766 -0.00895253 -0.110606 -0.017947 -0.00845199 -0.11092 
-0.017483 -0.00440981 -0.109752 -0.0468806 0.00117947 -0.111809 -0.0177483 0.00131188 -0.109555 
-0.055041 0.00467488 -0.112423 -0.0222382 0.00576539 -0.110112 -0.0151276 0.00351896 -0.109681 
-0.0267034 0.0122504 -0.112035 -0.0128347 0.0105088 -0.110032 -0.0234806 0.017526 -0.110332 
-0.0179098 0.0167161 -0.109081 -0.0458814 0.0271363 -0.110083 -0.0297447 0.0290714 -0.108907 
-0.0374652 0.0330101 -0.111807 -0.0138487 -0.0295641 -0.104935 -0.0248474 -0.0294704 -0.107795 
-0.0493813 -0.00414288 -0.107465 -0.0098218 -0.00581535 -0.106765 -0.0215289 0.00246763 -0.107377 
-0.0354593 0.00722835 -0.106423 -0.0260923 0.00891236 -0.112281 -0.0592422 0.0146192 -0.108032 
-0.0495845 0.014495 -0.108728 -0.035759 0.025579 -0.108869 -0.0224381 0.0253898 -0.107513 
-0.0181202 0.0296225 -0.108146 -0.0181682 0.0404874 -0.10924 -0.0311642 -0.0252475 -0.104475 
-0.0188845 -0.0203742 -0.103643 -0.0278118 -0.0204799 -0.110369 -0.0308982 0.00320494 -0.102994 
-0.0240468 0.0089192 -0.105982 -0.0378097 0.0147108 -0.105761 -0.0174856 0.0215409 -0.10552 
-0.00804321 -0.0321612 -0.100412 -0.0231905 0.00486461 -0.102138 -0.011466 0.00716925 -0.108192 
-0.00766596 0.00915207 -0.108989 -0.00486618 0.016717 -0.107409 -0.0141732 0.0261357 -0.100518 
-0.00778825 0.00202854 -0.103887 -0.0288682 0.0130299 -0.103818 -0.00624641 0.0129916 -0.104482 
-0.0230186 0.023228 -0.104409 -0.00963128 0.0211824 -0.10308 -0.000908632 -0.0201376 -0.100784 
-0.03335 -0.0101411 -0.103002 -0.0202693 -0.00943017 -0.0997116 -0.0140583 -0.00457604 -0.102739 
-0.0183381 0.00273344 -0.100293 -0.0214425 -0.0898634 -0.0906363 -0.00508252 -0.0028679 -0.0938262 
-0.0132609 0.017575 -0.09494 -0.0290573 0.0260911 -0.093028 -0.0270427 -0.0136491 -0.0910777 
-0.0312596 -0.0282318 -0.0860795 -0.00133703 -0.00658453 -0.0874892 -0.0309119 -0.0207084 -0.0821244 
-0.00273627 0.0326024 -0.0844793 -0.0084722 -0.00462009 -0.0812891 -0.0152744 0.0211746 -0.0795509 
-0.0252685 -0.0119457 -0.0773785 -0.0209658 0.00969496 -0.0776152 -0.0272645 0.0231035 -0.0776912 
-0.0342247 -0.0119118 -0.071386 -0.0244054 0.0234551 -0.0724685 -0.00730513 0.0257586 -0.0725967 
-0.0181876 -0.028381 -0.067726 -0.0304536 -0.0123493 -0.0683462 -0.0309256 0.00918438 -0.0695511 
-0.00968967 -0.00588877 -0.0639771 -0.0349344 -0.00127292 -0.0647406 -0.000691472 0.0332631 -0.0662242 
-0.0340111 0.0266228 -0.061865 -0.0158837 -0.0171309 -0.0598741 -0.00413281 -0.00792779 -0.0584499 
-0.0231605 0.0109416 -0.0601053 -0.0109595 0.0300204 -0.0592265 -0.0171117 -0.02331 -0.0552532 
-0.0203439 -0.0193455 -0.0566164 -0.0306741 -0.0048619 -0.0559281 -0.0265082 0.034934 -0.0551104 
-0.00757771 0.0326856 -0.0557587 -0.014458 -0.0138423 -0.0505391 -0.0165238 0.0194762 -0.0467876 
-0.0196325 0.0295097 -0.0464608 -0.0196571 -0.0325483 -0.0444319 -0.0170652 -0.0214262 -0.0443347 
-0.0208036 0.00162734 -0.0430518 -0.0279163 0.0200822 -0.0432882 -0.0108823 -0.0240914 -0.0421434 
-0.0255762 0.00585265 -0.0409067 -0.0124469 0.0108555 -0.0397369 -0.0095853 0.0256603 -0.03928 
-0.00434932 -0.0129336 -0.0354678 -0.00343388 0.0316676 -0.0359773 -0.0101895 -0.0254463 -0.0292248 
-0.00344499 -0.0220199 -0.0298198 -0.00418171 -0.00447311 -0.0283851 -0.0241229 -0.00156433 -0.0311545 
-0.0148123 0.0147393 -0.0308951 -0.00876558 -0.00149609 -0.0278856 -0.0242978 0.00020127 -0.0249481 
-0.00296015 0.00664907 -0.0257676 -0.0341543 -0.0265255 -0.0207863 -0.0256427 -0.020268 -0.0230414 
-0.0252225 -0.00395457 -0.0223863 -0.00626215 -0.00726355 -0.0200438 -0.00981587 -0.0226708 -0.0150139 
-0.0188893 -0.0164448 -0.014987 -0.0118162 -0.0172965 -0.015327 -0.0120408 -0.0289279 -0.0108166 
-0.0303622 -0.0214325 -0.0120125 -0.0224693 0.00786627 -0.0111417 -0.0184752 -0.0330418 -0.00733077 
-0.0141191 -0.0138017 -0.0079288 -0.0288367 0.021507 -0.00976024 -0.027048 -0.0348853 -0.00394904 
-0.0107355 -0.0111371 -0.00433557 -0.0208274 -0.00751444 -0.00398584 -0.0250889 0.00553727 -0.00451882 
-0.0120659 -0.000928847 0.000833041 -0.00974267 0.00154746 -0.000419591 -0.0200267 0.00732997 -0.00237539 
-0.00304149 0.01634 0.0042877 -0.0344795 0.0306845 0.00327009 -0.00482279 0.0319284 0.0020767 
-0.0259008 0.01415 0.006511 -0.0145727 0.0196597 0.00488112 -0.0292124 -0.00857811 0.0081647 
-0.0310028 0.00427373 0.00999861 -0.0138022 0.0201409 0.00920144 -0.026015 0.0234799 0.00911668 
-0.0054599 -0.0346412 0.0150431 -0.0318304 -0.0270523 0.0133938 -0.00209743 -0.0197497 0.0152677 
-0.00515441 0.000607433 0.0117019 -0.0230867 -0.0218823 0.018297 -0.032644 -0.0063197 0.0173934 
-0.0153561 0.00561382 0.0187202 -0.00423369 0.00513081 0.0154106 -0.029449 0.0175582 0.0159044 
-0.000558622 -0.0225112 0.0202123 -0.00426265 -0.00806252 0.0223838 -0.0250933 5.52728e-05 0.0218397 
-0.0258414 -0.0246135 0.0246555 -0.0314234 0.00551713 0.0228306 -0.0282123 0.0119421 0.0243497 
-0.00797106 -0.0174946 0.0277133 -0.0135917 0.0274385 0.0289626 -0.0164984 0.0336061 0.0292744 
-0.00858455 -0.00884288 0.030227 -0.0162721 0.0114791 0.0332347 -0.00977287 0.0109784 0.031409 
-0.00315638 0.017114 0.0315779 -0.0243451 0.0195956 0.033238 -0.00205387 -0.0284209 0.0356689 
-0.0184795 -0.0269407 0.0348998 -0.00832892 -0.0172649 0.0344757 -0.0196875 0.000933277 0.0338244 
-0.0131172 0.0174599 0.0355479 -0.00657095 -0.0222035 0.0374213 -0.0310592 -0.00121585 0.0375151 
-0.0213451 -0.000776551 0.0405109 -0.029518 -0.0259191 0.0436624 -0.0215522 -0.0188967 0.0425272 
-0.0123384 -0.0119647 0.0429037 -0.0171637 0.000809468 0.041765 -0.0104872 0.0175218 0.0410643 
-0.00937081 0.0258081 0.043104 -0.00665099 -0.0147089 0.0471508 -0.0235714 -0.0119867 0.0462352 
-0.00532413 0.00347482 0.0449729 -0.0154765 0.0185486 0.0470375 -0.0183398 -0.0212097 0.0507612 
-0.00676706 -0.00981008 0.0506756 -0.00639582 0.00662071 0.0495004 -0.0299907 0.00855733 0.0498761 
-0.00517262 0.0323307 0.0500127 -0.0206177 -0.0113305 0.0536624 -0.0321609 -0.00607507 0.0542193 
-0.00390427 -0.00527178 0.052127 -0.0311671 0.0123986 0.0522866 -0.0079193 0.0298979 0.054656 
-0.00131466 0.00705789 0.0554295 -0.00221027 0.0186146 0.0554361 
VERTICES 383 766
1 0 
1 1 
1 2 
1 3 
1 4 
1 5 
1 6 
1 7 
1 8 
1 9 
1 10 
1 11 
1 12 
1 13 
1 14 
1 15 
1 16 
1 17 
1 18 
1 19 
1 20 
1 21 
1 22 
1 23 
1 24 
1 25 
1 26 
1 27 
1 28 
1 29 
1 30 
1 31 
1 32 
1 33 
1 34 
1 35 
1 36 
1 37 
1 38 
1 39 
1 40 
1 41 
1 42 
1 43 
1 44 
1 45 
1 46 
1 47 
1 48 
1 49 
1 50 
1 51 
1 52 
1 53 
1 54 
1 55 
1 56 
1 57 
1 58 
1 59 
1 60 
1 61 
1 62 
1 63 
1 64 
1 65 
1 66 
1 67 
1 68 
1 69 
1 70 
1 71 
1 72 
1 73 
1 74 
1 75 
1 76 
1 77 
1 78 
1 79 
1 80 
1 81 
1 82 
1 83 
1 84 
1 85 
1 86 
1 87 
1 88 
1 89 
1 90 
1 91 
1 92 
1 93 
1 94 
1 95 
1 96 
1 97 
1 98 
1 99 
1 100 
1 101 
1 102 
1 103 
1 104 
1 105 
1 106 
1 107 
1 108 
1 109 
1 110 
1 111 
1 112 
1 113 
1 114 
1 115 
1 116 
1 117 
1 118 
1 119 
1 120 
1 121 
1 122 
1 123 
1 124 
1 125 
1 126 
1 127 
1 128 
1 129 
1 130 
1 131 
1 132 
1 133 
1 134 
1 135 
1 136 
1 137 
1 138 
1 139 
1 140 
1 141 
1 142 
1 143 
1 144 
1 145 
1 146 
1 147 
1 148 
1 149 
1 150 
1 151 
1 152 
1 153 
1 154 
1 155 
1 156 
1 157 
1 158 
1 159 
1 160 
1 161 
1 162 
1 163 
1 164 
1 165 
1 166 
1 167 
1 168 
1 169 
1 170 
1 171 
1 172 
1 173 
1 174 
1 175 
1 176 
1 177 
1 178 
1 179 
1 180 
1 181 
1 182 
1 183 
1 184 
1 185 
1 186 
1 187 
1 188 
1 189 
1 190 
1 191 
1 192 
1 193 
1 194 
1 195 
1 196 
1 197 
1 198 
1 199 
1 200 
1 201 
1 202 
1 203 
1 204 
1 205 
1 206 
1 207 
1 208 
1 209 
1 210 
1 211 
1 212 
1 213 
1 214 
1 215 
1 216 
1 217 
1 218 
1 219 
1 220 
1 221 
1 222 
1 223 
1 224 
1 225 
1 226 
1 227 
1 228 
1 229 
1 230 
1 231 
1 232 
1 233 
1 234 
1 235 
1 236 
1 237 
1 238 
1 239 
1 240 
1 241 
1 242 
1 243 
1 244 
1 245 
1 246 
1 247 
1 248 
1 249 
1 250 
1 251 
1 252 
1 253 
1 254 
1 255 
1 256 
1 257 
1 258 
1 259 
1 260 
1 261 
1 262 
1 263 
1 264 
1 265 
1 266 
1 267 
1 268 
1 269 
1 270 
1 271 
1 272 
1 273 
1 274 
1 275 
1 276 
1 277 
1 278 
1 279 
1 280 
1 281 
1 282 
1 283 
1 284 
1 285 
1 286 
1 287 
1 288 
1 289 
1 290 
1 291 
1 292 
1 293 
1 294 
1 295 
1 296 
1 297 
1 298 
1 299 
1 300 
1 301 
1 302 
1 303 
1 304 
1 305 
1 306 
1 307 
1 308 
1 309 
1 310 
1 311 
1 312 
1 313 
1 314 
1 315 
1 316 
1 317 
1 318 
1 319 
1 320 
1 321 
1 322 
1 323 
1 324 
1 325 
1 326 
1 327 
1 328 
1 329 
1 330 
1 331 
1 332 
1 333 
1 334 
1 335 
1 336 
1 337 
1 338 
1 339 
1 340 
1 341 
1 342 
1 343 
1 344 
1 345 
1 346 
1 347 
1 348 
1 349 
1 350 
1 351 
1 352 
1 353 
1 354 
1 355 
1 356 
1 357 
1 358 
1 359 
1 360 
1 361 
1 362 
1 363 
1 364 
1 365 
1 366 
1 367 
1 368 
1 369 
1 370 
1 371 
1 372 
1 373 
1 374 
1 375 
1 376 
1 377 
1 378 
1 379 
1 380 
1 381 
1 382 

POINT_DATA 383
FIELD FieldData 7
id 1 383 int
35 32 16 22 10 2 6 11 12 
7 19 44 20 30 23 1 25 3 
4 38 29 57 13 28 89 69 36 
47 21 33 5 14 8 61 73 56 
45 40 37 27 59 42 15 102 66 
54 85 52 77 78 58 39 41 31 
93 87 46 110 18 50 80 74 71 
55 60 112 53 67 48 65 91 17 
94 51 95 24 98 43 100 162 86 
84 88 34 63 26 75 101 82 92 
153 126 114 70 62 171 141 113 121 
68 133 118 127 163 106 122 117 174 
76 140 79 168 180 131 108 138 107 
151 83 99 49 81 139 97 132 166 
173 129 123 136 120 125 111 150 143 
210 184 116 105 159 64 134 202 183 
160 115 172 149 104 195 157 152 175 
205 72 119 135 189 200 176 145 164 
144 103 230 161 96 124 182 212 109 
188 167 227 225 190 137 196 181 216 
186 128 169 130 170 179 178 228 154 
147 198 158 222 185 214 223 224 203 
218 146 226 148 194 240 191 192 206 
220 193 229 213 234 165 142 237 217 
204 201 155 156 207 199 219 90 209 
215 236 187 242 177 208 221 197 235 
238 239 211 247 252 233 241 231 249 
250 255 232 245 9 248 244 254 251 
243 246 265 253 259 262 267 261 264 
260 256 268 258 263 266 272 276 257 
269 274 281 279 275 273 270 280 277 
278 271 293 294 290 284 288 289 287 
282 283 292 291 286 296 300 303 302 
285 301 299 297 295 305 306 304 298 
312 315 311 313 314 308 310 317 307 
316 318 309 327 331 319 326 322 329 
320 325 330 332 328 321 343 324 341 
323 336 344 339 337 340 334 345 342 
335 333 338 347 349 354 355 356 353 
357 350 346 351 358 352 348 364 367 
368 370 360 363 359 365 371 369 366 
362 361 377 379 373 382 378 375 376 
372 380 374 381 383 
type 1 383 int
1 1 1 1 1 1 1 1 1 
1 1 1 1 1 1 1 1 1 
1 1 1 1 1 1 1 1 1 
1 1 1 1 1 1 1 1 1 
1 1 1 1 1 1 1 1 1 
1 1 1 1 1 1 1 1 1 
1 1 1 1 1 1 1 1 1 
1 1 1 1 1 1 1 1 1 
1 1 1 1 1 1 1 1 1 
1 1 1 1 1 1 1 1 1 
1 1 1 1 1 1 1 1 1 
1 1 1 1 1 1 1 1 1 
1 1 1 1 1 1 1 1 1 
1 1 1 1 1 1 1 1 1 
1 1 1 1 1 1 1 1 1 
1 1 1 1 1 1 1 1 1 
1 1 1 1 1 1 1 1 1 
1 1 1 1 1 1 1 1 1 
1 1 1 1 1 1 1 1 1 
1 1 1 1 1 1 1 1 1 
1 1 1 1 1 1 1 1 1 
1 1 1 1 1 1 1 1 1 
1 1 1 1 1 1 1 1 1 
1 1 1 1 1 1 1 1 1 
1 1 1 1 1 1 1 1 1 
1 1 1 1 1 1 1 1 1 
1 1 1 1 1 1 1 1 1 
1 1 1 1 1 1 1 1 1 
1 1 1 1 1 1 1 1 1 
1 1 1 1 1 1 1 1 1 
1 1 1 1 1 1 1 1 1 
1 1 1 1 1 1 1 1 1 
1 1 1 1 1 1 1 1 1 
1 1 1 1 1 1 1 1 1 
1 1 1 1 1 1 1 1 1 
1 1 1 1 1 1 1 1 1 
1 1 1 1 1 1 1 1 1 
1 1 1 1 1 1 1 1 1 
1 1 1 1 1 1 1 1 1 
1 1 1 1 1 1 1 1 1 
1 1 1 1 1 1 1 1 1 
1 1 1 1 1 1 1 1 1 
1 1 1 1 1 
i 3 383 int
0 0 0 0 0 0 0 0 0 
0 0 0 0 0 0 0 0 0 
0 0 0 0 0 0 0 0 0 
0 0 0 0 0 0 0 0 0 
0 0 0 0 0 0 0 0 0 
0 0 0 0 0 0 0 0 0 
0 0 0 0 0 0 0 0 0 
0 0 0 0 0 0 0 0 0 
0 0 0 0 0 0 0 0 0 
0 0 0 0 0 0 0 0 0 
0 0 0 0 0 0 0 0 0 
0 0 0 0 0 0 0 0 0 
0 0 0 0 0 0 0 0 0 
0 0 0 0 0 0 0 0 0 
0 0 0 0 0 0 0 0 0 
0 0 0 0 0 0 0 0 0 
0 0 0 0 0 0 0 0 0 
0 0 0 0 0 0 0 0 0 
0 0 0 0 0 0 0 0 0 
0 0 0 0 0 0 0 0 0 
0 0 0 0 0 0 0 0 0 
0 0 0 0 0 0 0 0 0 
0 0 0 0 0 0 0 0 0 
0 0 0 0 0 0 0 0 0 
0 0 0 0 0 0 0 0 0 
0 0 0 0 0 0 0 0 0 
0 0 0 0 0 0 0 0 0 
0 0 0 0 0 0 0 0 0 
0 0 0 0 0 0 0 0 0 
0 0 0 0 0 0 0 0 0 
0 0 0 0 0 0 0 0 0 
0 0 0 0 0 0 0 0 0 
0 0 0 0 0 0 0 0 0 
0 0 0 0 0 0 0 0 0 
0 0 0 0 0 0 0 0 0 
0 0 0 0 0 0 0 0 0 
0 0 0 0 0 0 0 0 0 
0 0 0 0 0 0 0 0 0 
0 0 0 0 0 0 0 0 0 
0 0 0 0 0 0 0 0 0 
0 0 0 0 0 0 0 0 0 
0 0 0 0 0 0 0 0 0 
0 0 0 0 0 0 0 0 0 
0 0 0 0 0 0 0 0 0 
0 0 0 0 0 0 0 0 0 
0 0 0 0 0 0 0 0 0 
0 0 0 0 0 0 0 0 0 
0 0 0 0 0 0 0 0 0 
0 0 0 0 0 0 0 0 0 
0 0 0 0 0 0 0 0 0 
0 0 0 0 0 0 0 0 0 
0 0 0 0 0 0 0 0 0 
0 0 0 0 0 0 0 0 0 
0 0 0 0 0 0 0 0 0 
0 0 0 0 0 0 0 0 0 
0 0 0 0 0 0 0 0 0 
0 0 0 0 0 0 0 0 0 
0 0 0 0 0 0 0 0 0 
0 0 0 0 0 0 0 0 0 
0 0 0 0 0 0 0 0 0 
0 0 0 0 0 0 0 0 0 
0 0 0 0 0 0 0 0 0 
0 0 0 0 0 0 0 0 0 
0 0 0 0 0 0 0 0 0 
0 0 0 0 0 0 0 0 0 
0 0 0 0 0 0 0 0 0 
0 0 0 0 0 0 0 0 0 
0 0 0 0 0 0 0 0 0 
0 0 0 0 0 0 0 0 0 
0 0 0 0 0 0 0 0 0 
0 0 0 0 0 0 0 0 0 
0 0 0 0 0 0 0 0 0 
0 0 0 0 0 0 0 0 0 
0 0 0 0 0 0 0 0 0 
0 0 0 0 0 0 0 0 0 
0 0 0 0 0 0 0 0 0 
0 0 0 0 0 0 0 0 0 
0 0 0 0 0 0 0 0 0 
0 0 0 0 0 0 0 0 0 
0 0 0 0 0 0 0 0 0 
0 0 0 0 0 0 0 0 0 
0 0 0 0 0 0 0 0 0 
0 0 0 0 0 0 0 0 0 
0 0 0 0 0 0 0 0 0 
0 0 0 0 0 0 0 0 0 
0 0 0 0 0 0 0 0 0 
0 0 0 0 0 0 0 0 0 
0 0 0 0 0 0 0 0 0 
0 0 0 0 0 0 0 0 0 
0 0 0 0 0 0 0 0 0 
0 0 0 0 0 0 0 0 0 
0 0 0 0 0 0 0 0 0 
0 0 0 0 0 0 0 0 0 
0 0 0 0 0 0 0 0 0 
0 0 0 0 0 0 0 0 0 
0 0 0 0 0 0 0 0 0 
0 0 0 0 0 0 0 0 0 
0 0 0 0 0 0 0 0 0 
0 0 0 0 0 0 0 0 0 
0 0 0 0 0 0 0 0 0 
0 0 0 0 0 0 0 0 0 
0 0 0 0 0 0 0 0 0 
0 0 0 0 0 0 0 0 0 
0 0 0 0 0 0 0 0 0 
0 0 0 0 0 0 0 0 0 
0 0 0 0 0 0 0 0 0 
0 0 0 0 0 0 0 0 0 
0 0 0 0 0 0 0 0 0 
0 0 0 0 0 0 0 0 0 
0 0 0 0 0 0 0 0 0 
0 0 0 0 0 0 0 0 0 
0 0 0 0 0 0 0 0 0 
0 0 0 0 0 0 0 0 0 
0 0 0 0 0 0 0 0 0 
0 0 0 0 0 0 0 0 0 
0 0 0 0 0 0 0 0 0 
0 0 0 0 0 0 0 0 0 
0 0 0 0 0 0 0 0 0 
0 0 0 0 0 0 0 0 0 
0 0 0 0 0 0 0 0 0 
0 0 0 0 0 0 0 0 0 
0 0 0 0 0 0 0 0 0 
0 0 0 0 0 0 0 0 0 
0 0 0 0 0 0 0 0 0 
0 0 0 0 0 0 0 0 0 
0 0 0 0 0 0 0 0 0 
0 0 0 0 0 0 0 0 0 
0 0 0 0 0 0 
v 3 383 double
-1.12709 -0.00622745 -0.469072 -1.31101 0.221966 -0.496451 -1.13365 -0.0134636 -0.484867 
-1.42978 -0.00491551 -0.457888 -0.971064 0.0454404 -0.397606 -0.998544 -0.0546224 -0.422485 
-1.04026 -0.0606321 -0.431755 -1.02104 -0.118354 -0.441299 -1.02008 -0.0856403 -0.416714 
-0.799312 -0.0244023 -0.329126 -0.861239 -0.127125 -0.35717 -1.0173 -0.131433 -0.432192 
-1.08711 0.285857 -0.30691 -0.901542 0.0828734 -0.378391 -0.897101 0.0887832 -0.386324 
-0.960434 0.0238884 -0.506124 -0.93739 0.0943525 -0.361783 -0.804164 0.135805 -0.342374 
-0.770178 -0.0232133 -0.342285 -0.948486 0.115007 -0.393842 -0.962463 0.105141 -0.377842 
-0.979597 -0.125273 -0.4399 -0.959483 -0.0545387 -0.362355 -0.831974 -0.18549 -0.295887 
-0.648807 -0.0161927 -0.271878 -1.09807 -0.155747 -0.765188 -0.664764 0.0124705 -0.271758 
-0.816685 0.0733688 -0.324709 -0.988995 0.139499 -0.350352 -0.902251 -0.257312 -0.316384 
-0.823298 -0.0124754 -0.345058 -1.14607 -0.300319 -0.45048 -0.635469 0.0275417 -0.277883 
-0.695807 -0.194994 -0.263386 -0.895634 -0.0141484 -0.232479 -0.782199 -0.137235 -0.329616 
-0.771857 -0.0433014 -0.316198 -0.806306 0.0242225 -0.342984 -0.708331 -0.0267398 -0.295517 
-0.828553 -0.034753 -0.307445 -0.759607 0.0838041 -0.322158 -0.700852 -0.0790405 -0.292117 
-0.664462 0.0867958 -0.278691 -0.531534 0.082958 -0.207001 -0.783084 -0.00143098 -0.331207 
-0.814909 0.0313412 -0.347157 -0.870917 -0.16711 -0.354533 -0.770252 0.12933 -0.335438 
-0.951508 -0.100987 -0.256698 -0.626382 -0.0521422 -0.205977 -0.549694 0.0185593 -0.253209 
-0.684027 -0.0637706 -0.290618 -0.637279 -0.115091 -0.336092 -0.525125 0.0359708 -0.214824 
-0.928442 0.0939861 -0.407888 -0.806712 0.0430306 -0.342637 -0.570473 0.0602471 -0.24249 
-0.606093 0.0845711 -0.258473 -0.577266 0.0886548 -0.230801 -0.659132 0.0093102 -0.280076 
-0.75022 -0.0381672 -0.357645 -0.66908 -0.206589 -0.281574 -0.724091 0.00646106 -0.280339 
-0.800806 -0.00707236 -0.261368 -0.847993 0.26236 -0.179315 -0.583468 -0.0981639 -0.242095 
-0.578305 -0.0169967 -0.139723 -0.664825 -0.113215 -0.280191 -0.459432 -0.184697 -0.130734 
-0.640082 0.00783844 -0.193382 -0.805854 0.0205742 -0.82402 -0.729135 -0.0630229 -0.314077 
-0.783609 -0.0247646 -0.329366 -1.0962 -0.202219 -0.0899073 -0.628247 -0.132989 -0.248519 
-0.523321 0.00449452 -0.221774 -0.739277 0.0188116 -0.261518 -0.563733 -0.0559339 -0.23379 
-0.728962 -0.277751 -0.449416 -0.756465 -0.0477383 -0.367807 -0.762944 -0.304679 -0.385192 
-0.696032 0.0111033 -0.293011 -0.594616 0.147211 -0.211983 -0.482617 0.0502341 -0.185488 
-0.677861 -0.166946 -0.247747 -0.536895 -0.0757139 -0.222174 -0.561494 0.0511191 -0.193042 
-0.718706 0.128414 -0.802876 -0.532937 0.0479167 -0.226853 -0.9328 -0.163074 -0.925587 
-0.679488 0.287106 -0.262445 -0.498127 0.100543 -0.227973 -0.519385 0.0157808 -0.212577 
-0.390105 -0.13398 -0.146976 -0.690133 -0.221984 -0.313184 -0.975042 -0.12136 -0.463207 
-0.483347 -0.152951 -0.201732 -0.872785 -0.0964808 -0.703483 -0.75697 0.070159 -0.595597 
-0.636624 0.0779807 -0.519272 -0.751564 0.039075 -0.589828 -0.592398 0.073208 -0.247864 
-0.688205 -0.126532 -0.299464 -0.578199 0.136574 -0.34721 -0.475214 0.0759555 -0.190856 
-0.53163 0.0374445 -0.206109 -0.76638 0.121001 -0.0968038 -0.624264 -0.311392 -0.526997 
-0.701809 -0.195571 -0.459973 -0.485091 -0.0919578 -0.161761 -0.507064 -0.0545914 -0.305859 
-0.664762 0.0444554 -0.283467 -0.761784 -0.0351234 -0.592804 -0.745648 -0.0567782 -0.737175 
-0.619847 0.0382711 -0.667744 -0.712994 -0.0193818 -0.196136 -0.555114 0.0330246 -0.602699 
-0.547713 0.120533 -0.198464 -0.405994 0.055512 -0.16724 -0.337448 0.163801 -0.090589 
-0.506196 0.0184666 -0.200899 -0.526776 0.248691 -0.153208 -0.881602 0.408757 -0.210896 
-0.656977 -0.147151 -0.179446 -0.592473 -0.0209333 -0.317452 -0.429465 0.0350631 -0.140909 
-1.00339 -0.340042 -0.410262 -0.530859 0.00976289 -0.219123 -0.428311 0.0752243 -0.220961 
-0.34567 0.0585479 -0.142614 -0.748701 0.239543 -0.692389 -0.706383 0.22085 -0.541273 
-0.704986 0.132826 -0.665018 -0.73977 0.102402 -0.590016 -0.498977 0.0904257 -0.548328 
-0.457428 0.444836 -0.333221 -0.875858 -0.264278 -0.204641 -0.464253 -0.162993 -0.269033 
-0.410605 0.080923 -0.174876 -0.275341 0.0497769 -0.110147 -0.330292 0.135895 -0.117076 
-0.440663 0.0274708 -0.189835 -0.626543 0.223679 -0.213688 -0.610908 0.0814694 -0.273315 
-0.72262 0.313334 -0.462049 -0.467528 0.0269888 -0.238559 -0.59042 0.0884871 -0.258936 
-0.399879 0.122898 -0.447715 -0.674933 -0.233521 -0.616636 -0.732381 -0.00708146 -0.273901 
-0.666762 0.0347163 -0.276924 -0.584016 -0.0824872 -0.184831 -0.382767 -0.331216 -0.231234 
-0.619922 -0.508655 -0.533903 -0.357502 0.261939 -0.123804 -0.559196 0.286347 -0.120992 
-0.322283 -0.238527 -0.0324044 -0.552681 0.0270664 -0.163629 -0.415558 0.041471 -0.147817 
-1.17065 0.232957 -0.670546 -0.725063 0.300451 -0.433779 -0.726073 0.299308 -0.367197 
-0.524605 0.117589 -0.460205 -0.687121 -0.0984517 -0.617344 -0.472978 0.202356 0.244581 
-0.298178 0.0660975 0.00258777 -0.151732 -0.0984086 -0.067685 -0.440418 -0.0430126 -0.236143 
-0.379338 -0.34188 -0.247793 -0.408795 -0.101633 -0.184326 -0.394602 -0.178329 -0.136027 
-0.466461 -0.429058 -0.226103 -0.168029 -0.127591 -0.0485875 -0.205784 0.183081 0.0606765 
-0.441626 0.137527 -0.111967 -0.731457 0.190931 -0.103707 -0.612574 0.0931568 -0.500239 
-1.02004 -0.016101 -0.207617 -0.465996 -0.113677 -0.15627 -0.0412654 0.152866 -0.0326645 
-0.742535 0.0369308 -0.0552383 -0.362 0.184051 -0.152175 -0.452652 0.137209 -0.149593 
-0.624505 -0.277907 -0.429171 -0.74696 -0.139895 -0.320334 -0.710462 -0.310613 -0.250014 
-0.724733 -0.302357 -0.206782 -0.332569 0.0370028 0.30194 -0.604595 0.048849 -0.193598 
-0.851734 0.267758 -0.296871 -0.726719 -0.324071 -0.0662741 -0.664046 -0.0666737 -0.125348 
-0.311239 0.137746 -0.100894 -0.704379 -0.223716 -0.868561 0.0143508 0.484714 -0.521313 
-0.548114 -0.189031 -0.15776 0.0706516 -0.128242 -0.147047 -0.111874 0.272626 0.0554365 
-0.462199 0.29618 0.0876452 -0.577641 0.078875 -0.432791 -0.374363 0.0851428 0.0939017 
-0.732511 -0.171083 -0.415103 -0.073857 0.10974 -0.0581692 -0.745985 -0.0167801 0.232173 
-0.473453 0.332063 -0.193424 -0.36472 0.333069 -0.769853 -0.54996 0.0895945 -0.0223293 
-0.428615 0.0332656 0.253836 -0.931082 0.0295488 -0.106405 -0.697512 -0.327364 0.113885 
-0.606505 0.0608265 0.119218 -0.718261 0.263689 0.191305 -0.333699 -0.362904 -0.192602 
-0.660447 0.0632922 -0.356642 -0.735253 0.106551 0.216828 -0.361909 0.0681155 0.337672 
-0.672094 -0.0128699 0.108475 -0.483792 -0.146049 -1.19752 -0.563919 0.433849 0.0362088 
-0.672146 -0.113176 -0.283865 -0.851149 -0.2373 -0.0935251 -0.62945 -0.237826 -0.0948889 
-0.687151 -0.187057 -0.0911502 -0.169196 0.17089 -0.0330096 -0.700428 0.28818 -0.000759851 
-0.717554 0.263429 0.0644335 -0.36756 0.238577 -0.775041 -0.719415 -0.0267257 -0.0860601 
-0.191805 -0.0833756 -0.739412 -0.714004 -0.326823 -0.275946 -0.790438 -0.192729 -0.81152 
-0.693014 0.253528 0.179432 -0.717713 -0.0266624 0.00153643 0.180641 -0.616618 -0.97349 
-0.747619 -0.0168169 0.284575 -0.569995 -0.133127 0.0948254 -0.690251 -0.317986 0.0434942 
0 0 -2.00479 0 0 -2.00449 0 0 -2.00773 
0 0 -2.00734 0.306085 -0.156312 -1.12038 0 0 -1.98958 
0 0 -2.00047 0 0 -1.98429 0 0 -1.9992 
0 0 -1.98713 -0.353028 -0.368119 0.0985961 0 0 -1.95495 
0 0 -1.96055 0 0 -1.95093 0 0 -1.94112 
0 0 -1.91571 0 0 -1.92288 0 0 -1.89531 
0 0 -1.90747 0 0 -1.89099 0 0 -1.88197 
0 0 -1.87059 0 0 -1.87186 0 0 -1.87226 
0 0 -1.8389 0 0 -1.84469 0 0 -1.84538 
0 0 -1.81928 0 0 -1.82262 0 0 -1.82909 
0 0 -1.79898 0 0 -1.8031 0 0 -1.81114 
0 0 -1.7874 0 0 -1.77641 0 0 -1.76856 
0 0 -1.77769 0 0 -1.77288 0 0 -1.75071 
0 0 -1.75836 0 0 -1.75454 0 0 -1.74993 
0 0 -1.75356 0 0 -1.72413 0 0 -1.70264 
0 0 -1.70078 0 0 -1.68901 0 0 -1.68842 
0 0 -1.68096 0 0 -1.68233 0 0 -1.67566 
0 0 -1.6684 0 0 -1.66154 0 0 -1.65879 
0 0 -1.63613 0 0 -1.63917 0 0 -1.59826 
0 0 -1.60189 0 0 -1.59306 0 0 -1.61003 
0 0 -1.60847 0 0 -1.59002 0 0 -1.57178 
0 0 -1.57688 0 0 -1.54558 0 0 -1.55981 
0 0 -1.55569 0 0 -1.54087 0 0 -1.5085 
0 0 -1.50831 0 0 -1.51056 0 0 -1.48094 
0 0 -1.48888 0 0 -1.48309 0 0 -1.45769 
0 0 -1.46171 0 0 -1.47397 0 0 -1.43473 
0 0 -1.43738 0 0 -1.43502 0 0 -1.43865 
0 0 -1.40167 0 0 -1.4104 0 0 -1.42394 
0 0 -1.37724 0 0 -1.3845 0 0 -1.39294 
0 0 -1.36135 0 0 -1.37303 0 0 -1.34938 
0 0 -1.33594 0 0 -1.34183 0 0 -1.34242 
0 0 -1.29837 0 0 -1.31083 0 0 -1.2967 
0 0 -1.32339 0 0 -1.27355 0 0 -1.28052 
0 0 -1.27031 0 0 -1.29562 0 0 -1.2919 
0 0 -1.25874 0 0 -1.24167 0 0 -1.24599 
0 0 -1.22362 0 0 -1.23814 0 0 -1.22607 
0 0 -1.1989 0 0 -1.1886 0 0 -1.18605 
0 0 -1.1781 0 0 -1.15279 0 0 -1.16819 
0 0 -1.16682 0 0 -1.15279 0 0 -1.1319 
0 0 -1.13857 0 0 -1.1422 0 0 -1.14779 
0 0 -1.13297 0 0 -1.11659 0 0 -1.11581 
0 0 -1.08912 0 0 -1.06038 0 0 -1.07078 
0 0 -1.06735 0 0 -1.07774 0 0 -1.08412 
0 0 -1.06548 0 0 -1.02762 0 0 -1.03625 
0 0 -1.04812 0 0 -1.02869 0 0 -1 
0 0 -1 0 0 -1.00486 0 0 -1.00123 
0 0 -1 0 0 -1 0 0 -1 
0 0 -1 0 0 -1 0 0 -1 
0 0 -1 0 0 -1 
f 3 383 double
-0.000113383 4.93919e-05 -0.000184714 -0.00110912 -0.000496013 0.00294656 -0.000522034 1.75897e-05 -1.27344e-05 
-7.7726e-05 -0.000219504 0.000474128 7.10024e-05 -1.16898e-05 -0.000694557 0 0 -0.00160516 
0 0 -0.000346714 -7.94017e-05 6.97842e-08 -7.01768e-05 -7.97366e-05 1.48426e-05 -5.17643e-05 
2.56128e-05 1.22991e-05 1.26247e-05 -9.08509e-05 -1.97907e-06 -4.29631e-06 0 0 -0.000346714 
0 0 -0.000346714 -0.000403777 4.82628e-05 -0.000174818 0 0 -0.000346714 
0 0 -0.00160516 6.94753e-05 3.21539e-05 -0.000541647 0.000668276 -0.000139874 -0.00313539 
0 0 -0.00160516 0 0 -0.000346714 -0.000364272 -8.99508e-05 -0.000430927 
-8.92215e-05 -2.64324e-05 -4.09174e-05 0 0 -0.000346714 0 0 -0.00160516 
-2.65002e-05 3.75613e-05 0.000247557 0 0 -0.000346714 2.71049e-05 -3.26461e-05 1.4807e-05 
0 0 -0.000346714 -0.00154865 -0.000816495 0.00273346 -8.38884e-05 4.46162e-05 -4.46599e-05 
-0.000403336 0.000134057 -0.00018855 0 0 -0.00160516 0 0 -0.000346714 
0 0 -0.000346714 0 0 -0.000346714 -8.6482e-05 -1.36025e-05 -3.66577e-05 
-8.63538e-05 2.85054e-05 -4.06165e-05 -0.000406133 0.000134812 -0.000184583 1.85423e-05 2.0767e-05 -5.67727e-05 