# vtk DataFile Version 4.0
Generated by LIGGGHTS
ASCII
DATASET POLYDATA
POINTS 788 float
-0.00822772 0.0220079 0.0509886 -0.0293116 0.0156399 0.0513098 -0.00997036 0.00148776 0.0514 
-0.0235425 -0.0147684 0.051846 -0.0100522 -0.0263585 0.0490491 -0.0129944 0.0163436 0.0467244 
-0.0349194 0.0154149 0.0472906 -0.00542169 -0.0211961 0.0467029 -0.481643 -0.0219916 -0.399616 
-0.470342 -0.000325714 -0.391029 -0.472113 -0.0124553 -0.383997 -0.455158 0.0049486 -0.383427 
-0.466842 -0.00941664 -0.380378 -0.460931 0.00250353 -0.376453 -0.471304 -0.00988897 -0.373304 
-0.456479 -0.000153614 -0.370989 -0.446689 0.00133182 -0.366167 -0.456127 0.00883246 -0.366337 
-0.460633 -0.00595532 -0.36216 -0.45115 0.0111589 -0.359684 -0.455719 0.0236738 -0.363141 
-0.450871 -0.00701332 -0.353897 -0.452206 -0.0221469 -0.350893 -0.44458 -0.00979107 -0.349066 
-0.456436 0.0200771 -0.351542 -0.472056 -0.0417603 -0.346644 -0.461266 -0.0406767 -0.346987 
-0.430303 -0.00803564 -0.347295 -0.450715 0.000396622 -0.345539 -0.427658 -0.012261 -0.342956 
-0.438121 -0.00876786 -0.337694 -0.437845 0.00522444 -0.3386 -0.434387 -0.00958533 -0.333502 
-0.433907 -0.00362328 -0.336106 -0.436951 -0.0055708 -0.333981 -0.43487 -0.0215074 -0.33011 
-0.431541 -0.00549724 -0.332535 -0.435062 -0.0167841 -0.328741 -0.433117 -0.00808166 -0.326413 
-0.43522 0.0152689 -0.329028 -0.420634 -0.00857708 -0.325711 -0.421503 0.00519412 -0.322647 
-0.422683 0.0172285 -0.323298 -0.422 -0.00966217 -0.318841 -0.424959 -0.00238044 -0.321529 
-0.411479 0.00559718 -0.318663 -0.404176 0.0151003 -0.320259 -0.417798 -0.0251706 -0.316506 
-0.40701 -0.0255112 -0.318745 -0.413464 -0.0144907 -0.317576 -0.41754 0.0051207 -0.316402 
-0.416161 0.00773315 -0.317662 -0.405539 -0.0136138 -0.31116 -0.407152 -0.00588533 -0.31142 
-0.408143 0.00687905 -0.311135 -0.414899 0.00679544 -0.311924 -0.416251 -0.0204788 -0.30756 
-0.419449 -0.01785 -0.309849 -0.402373 -0.00534861 -0.308302 -0.411351 0.00464527 -0.308361 
-0.408204 0.00306709 -0.305785 -0.4063 0.00660012 -0.306301 -0.404121 -0.0234951 -0.299074 
-0.40926 -0.0235053 -0.303403 -0.394299 -0.00892991 -0.297464 -0.407598 -1.02654e-05 -0.298017 
-0.397228 0.00224081 -0.296108 -0.397613 0.0095767 -0.297287 -0.406305 -0.0143967 -0.292987 
-0.404111 -0.00806799 -0.293844 -0.399512 -0.00408185 -0.291938 -0.39689 -0.00237115 -0.293545 
-0.393043 -0.00515824 -0.289454 -0.385227 -0.00654043 -0.285129 -0.418643 0.0426917 -0.286066 
-0.372833 0.00170235 -0.27743 -0.38041 0.00764388 -0.277921 -0.376986 0.0127851 -0.279299 
-0.381056 0.0151744 -0.276695 -0.369179 0.00571416 -0.275499 -0.373462 0.0114938 -0.273674 
-0.376767 -0.0286748 -0.270047 -0.372522 -0.0108365 -0.271254 -0.370766 0.00243732 -0.269693 
-0.364673 0.00175572 -0.268628 -0.369148 0.0084457 -0.271609 -0.369582 0.0118583 -0.270116 
-0.364311 -0.0203108 -0.264246 -0.364761 -0.0139838 -0.266957 -0.367253 -0.00483459 -0.267333 
-0.364204 -0.00325037 -0.265289 -0.357752 -0.000540113 -0.264584 -0.362063 0.0068536 -0.264673 
-0.365625 0.00858739 -0.267964 -0.361101 0.0114522 -0.26719 -0.356502 -0.013924 -0.262904 
-0.362786 -0.0172419 -0.26134 -0.363541 -0.0105984 -0.263658 -0.359086 -0.00809482 -0.260643 
-0.357723 -0.00194371 -0.26011 -0.359434 0.00282903 -0.263102 -0.356404 0.00143725 -0.260899 
-0.358494 0.00836273 -0.261491 -0.354511 -0.0214321 -0.258322 -0.354562 -0.010834 -0.257004 
-0.353388 0.000892451 -0.258618 -0.352636 0.00391377 -0.259072 -0.358583 0.0105999 -0.257922 
-0.356931 0.0157123 -0.257312 -0.383375 0.0318038 -0.261443 -0.368139 -0.0344486 -0.25649 
-0.351176 -0.0189608 -0.25392 -0.357494 -0.0117386 -0.252559 -0.350412 -0.00877771 -0.255196 
-0.344827 -0.00692758 -0.252792 -0.346348 -0.00203409 -0.254563 -0.352533 0.00104931 -0.253233 
-0.341041 -0.000279294 -0.252574 -0.342469 0.00236482 -0.252634 -0.346446 0.00858457 -0.253804 
-0.350092 0.0127599 -0.255983 -0.350689 0.0171728 -0.255217 -0.345261 0.0149098 -0.253367 
-0.345019 -0.0161524 -0.249938 -0.340153 -0.00983475 -0.249426 -0.337516 -0.00679527 -0.248679 
-0.340789 -0.00267255 -0.249115 -0.342924 0.00592818 -0.250748 -0.338521 0.00740753 -0.248547 
-0.334972 0.00896523 -0.247549 -0.326249 -0.000835568 -0.243652 -0.332721 0.00273761 -0.245785 
-0.332022 0.0100152 -0.244845 -0.337124 0.0173049 -0.24729 -0.324771 -0.0180414 -0.241249 
-0.319424 -0.00780896 -0.240391 -0.325707 -0.00450124 -0.242087 -0.321843 -0.0058954 -0.240918 
-0.320775 -0.00207625 -0.241296 -0.317533 0.00108638 -0.239969 -0.328497 0.00551591 -0.243652 
-0.322805 0.00720217 -0.240719 -0.327421 0.0110845 -0.242478 -0.319455 0.0105283 -0.24017 
-0.326522 0.0209396 -0.241489 -0.316867 -0.0056371 -0.239405 -0.309129 -0.00712085 -0.236237 
-0.315683 0.00703126 -0.237728 -0.318476 0.0137745 -0.239469 -0.3127 0.0124307 -0.237218 
-0.334116 0.0332421 -0.240116 -0.323099 0.031487 -0.237119 -0.347223 0.0477151 -0.240559 
-0.341866 -0.0477855 -0.237806 -0.308194 -0.0207873 -0.232226 -0.315346 -0.00700163 -0.235747 
-0.30868 -0.00309946 -0.235107 -0.301661 -0.00343386 -0.233217 -0.310966 0.00193178 -0.236069 
-0.306863 0.00354775 -0.235317 -0.309501 0.00693497 -0.235132 -0.302121 0.00874277 -0.232989 
-0.306588 0.0151927 -0.234226 -0.322838 0.0342414 -0.235969 -0.311522 -0.0349929 -0.231226 
-0.310234 -0.0287422 -0.232749 -0.304818 -0.0271126 -0.230983 -0.299725 -0.0105778 -0.231941 
-0.302094 -0.00722925 -0.231748 -0.300625 0.001287 -0.231707 -0.298636 0.00592118 -0.231697 
-0.299529 0.0105021 -0.231784 -0.296871 0.00937287 -0.230735 -0.295696 0.0126486 -0.23003 
-0.300454 0.0158993 -0.231529 -0.312794 -0.0156898 -0.231089 -0.290608 -0.0209005 -0.225514 
-0.290138 -0.0171844 -0.227115 -0.287506 -0.0103135 -0.226832 -0.290668 -0.00537429 -0.227429 
-0.290024 -0.000278765 -0.228415 -0.288336 0.012967 -0.225815 -0.296554 0.0181544 -0.229464 
-0.299063 0.0325298 -0.227035 -0.28311 -0.011643 -0.22484 -0.277571 -0.0151799 -0.222127 
-0.279813 -0.0101386 -0.222537 -0.284137 0.00391114 -0.225712 -0.288693 -0.0355668 -0.221838 
-0.270738 -0.00987004 -0.219839 -0.269223 -0.0060542 -0.219439 -0.273176 -0.00341105 -0.22012 
-0.273734 0.0134649 -0.220693 -0.263399 -0.0196009 -0.215526 -0.262321 -0.0141206 -0.215837 
-0.266265 -0.00414414 -0.217174 -0.261235 0.000244762 -0.215161 -0.259631 0.00880688 -0.215163 
-0.263378 0.0113391 -0.215541 -0.260089 0.0136991 -0.214838 -0.267354 0.0245422 -0.215162 
-0.271554 0.0294788 -0.215468 -0.278398 0.0352961 -0.216582 -0.28664 -0.030294 -0.219435 
-0.260918 -0.0256583 -0.21311 -0.260265 -0.00791223 -0.215432 -0.255454 -0.010698 -0.213345 
-0.255284 -0.00526245 -0.213582 -0.251973 -0.00331033 -0.210812 -0.254037 0.00133644 -0.212079 
-0.250326 0.00512811 -0.21141 -0.256857 0.00914054 -0.213985 -0.252215 0.00854661 -0.212071 
-0.261626 0.0186283 -0.213718 -0.257352 0.0169867 -0.213277 -0.265604 0.0313281 -0.213681 
-0.277366 -0.0499929 -0.211036 -0.257095 -0.0365055 -0.2086 -0.250583 -0.0185497 -0.210047 
-0.277133 -0.0178954 -0.212944 -0.250306 -0.0150192 -0.209697 -0.246675 0.00759511 -0.209742 
-0.243362 0.00922852 -0.208314 -0.249502 0.0104677 -0.209762 -0.243598 0.0122048 -0.208197 
-0.256178 0.0204 -0.211148 -0.256338 0.0243568 -0.211728 -0.248559 0.022956 -0.208706 
-0.244493 -0.0167694 -0.20789 -0.240928 -0.0172108 -0.206403 -0.239175 -0.0095315 -0.206473 
-0.236912 -0.00579697 -0.205742 -0.237805 -0.00165756 -0.205278 -0.258508 0.00197025 -0.206293 
-0.25206 0.00302583 -0.208997 -0.233489 0.00328536 -0.204388 -0.235756 0.00671177 -0.205221 
-0.239109 0.00971343 -0.20652 -0.240676 0.0275888 -0.204368 -0.250264 0.031081 -0.207409 
-0.26531 0.0459727 -0.208273 -0.24842 -0.0342317 -0.204579 -0.235617 -0.0188109 -0.203982 
-0.227416 -0.0126135 -0.201037 -0.224305 -0.00203637 -0.200608 -0.227949 0.00188728 -0.201937 
-0.23037 0.00324239 -0.203076 -0.228099 0.00492043 -0.202051 -0.229444 0.0110639 -0.202335 
-0.229076 -0.016436 -0.200493 -0.216606 -0.0106207 -0.196832 -0.254611 0.00466074 -0.201089 
-0.22389 0.00396287 -0.199953 -0.227024 0.00841371 -0.20037 -0.221556 0.00873601 -0.198145 
-0.22152 0.0163889 -0.197233 -0.228203 0.0186003 -0.199742 -0.218124 0.020904 -0.196333 
-0.22937 0.0281778 -0.199357 -0.236745 0.0334416 -0.200137 -0.267277 -0.0653371 -0.19716 
-0.213677 -0.0215023 -0.194427 -0.219797 -0.0166158 -0.196523 -0.211149 -0.0179979 -0.19379 
-0.213882 -0.0130569 -0.194385 -0.206594 -0.00742712 -0.192953 -0.21229 -0.00519896 -0.195525 
-0.205305 -0.00453321 -0.192544 -0.214224 -0.000387796 -0.196298 -0.211411 -0.00218625 -0.195115 
-0.211505 0.00299977 -0.195092 -0.213578 0.00655213 -0.194838 -0.209684 0.00525772 -0.194312 
-0.21405 0.0103704 -0.195885 -0.210488 0.0098683 -0.194435 -0.216607 0.0134447 -0.195493 
-0.216847 0.0179161 -0.196153 -0.231263 0.0249418 -0.198341 -0.226113 0.0273413 -0.196727 
-0.218007 0.0279494 -0.194858 -0.225072 0.0323817 -0.195591 -0.237149 0.0467663 -0.19566 
-0.244761 -0.0573332 -0.194589 -0.209656 -0.0266387 -0.190532 -0.201425 -0.0113757 -0.1904 
-0.223405 -0.00852515 -0.193115 -0.208954 -0.0106526 -0.191736 -0.210089 -0.00547882 -0.192093 
-0.202001 -0.00462785 -0.191128 -0.215642 -0.000153356 -0.19173 -0.208808 -0.0010111 -0.192317 
-0.206057 -0.000446606 -0.189187 -0.204539 -0.00163062 -0.19221 -0.201841 -0.00105795 -0.190982 
-0.204345 0.00337678 -0.191026 -0.200669 0.0016696 -0.190356 -0.224022 0.00627711 -0.195084 
-0.206715 0.00824835 -0.191907 -0.202522 0.0083157 -0.191198 -0.207203 0.0122067 -0.192778 
-0.204093 0.012912 -0.190282 -0.210028 0.0252094 -0.192124 -0.20653 0.0266431 -0.190341 
-0.245685 0.0632977 -0.19126 -0.246008 -0.0675562 -0.188229 -0.19634 -0.0193368 -0.18735 
-0.210034 -0.0145189 -0.188485 -0.198492 -0.00275536 -0.188541 -0.19963 0.00604028 -0.189041 
-0.194293 0.00420521 -0.187887 -0.191341 0.00665432 -0.186595 -0.200297 0.0140214 -0.189655 
-0.197758 0.0158936 -0.187135 -0.205187 -0.0474056 -0.183734 -0.205276 -0.04433 -0.184882 
-0.205156 -0.0401393 -0.185219 -0.198291 -0.0253778 -0.185653 -0.192905 -0.0240351 -0.185322 
[...]
POINT_DATA 788
FIELD FieldData 7
id 1 788 int
834 838 832 835 843 839 840 833 117 
77 133 91 55 15 63 39 176 17 
41 31 84 78 113 88 145 131 207 
71 126 74 46 153 43 125 58 80 
65 24 50 108 97 67 162 101 190 
86 75 76 18 62 111 102 53 98 
164 48 95 103 92 112 130 34 174 
168 110 81 196 137 26 141 140 122 
193 121 352 186 68 163 219 177 114 
178 150 104 148 82 151 171 179 79 
189 202 129 118 138 188 265 132 123 
70 180 159 107 187 183 198 49 158 
119 324 294 225 210 134 142 154 195 
204 127 160 106 213 83 157 166 136 
116 144 156 278 184 105 169 72 229 
109 244 277 241 215 115 221 170 99 
199 250 135 208 228 64 234 200 251 
305 272 205 167 211 270 124 143 252 
212 289 185 201 223 146 181 182 209 
254 175 96 317 307 297 152 149 284 
161 296 191 290 172 293 233 280 165 
197 236 295 224 337 329 298 322 261 
206 264 321 256 155 418 276 316 299 
222 220 245 249 275 287 128 242 253 
288 332 9 438 255 273 354 363 226 
348 368 230 263 353 281 267 218 259 
446 339 314 262 343 217 306 308 422 
214 304 303 292 266 192 260 227 399 
381 232 194 347 310 311 390 282 377 
274 283 203 243 247 330 318 235 238 
315 349 409 331 248 388 300 395 320 
90 269 386 327 271 313 405 258 382 
237 333 285 427 370 351 362 291 447 
246 286 240 231 407 279 367 366 216 
372 387 323 302 401 340 257 239 344 
335 439 371 423 411 358 336 309 384 
378 470 341 456 414 389 350 433 455 
396 476 421 441 424 444 268 429 430 
374 417 466 355 462 403 338 398 326 
490 440 492 450 428 416 365 328 408 
473 522 346 483 301 325 454 400 404 
356 448 394 425 406 360 334 420 319 
484 345 397 459 385 361 478 376 373 
359 488 375 453 451 392 504 357 380 
479 445 469 312 497 496 489 481 452 
434 364 511 538 458 508 463 499 471 
437 519 431 468 393 342 500 531 391 
474 415 493 494 442 477 413 485 383 
419 412 541 369 509 546 475 486 482 
491 487 379 460 435 555 503 507 521 
530 465 562 495 464 498 542 548 505 
449 559 501 547 523 536 624 502 550 
517 537 525 600 514 402 529 534 545 
510 512 561 554 506 526 520 515 533 
557 528 582 410 598 527 467 552 564 
544 586 516 577 549 558 535 524 589 
578 573 585 443 576 572 426 457 461 
480 571 539 543 588 610 574 620 532 
579 540 626 616 595 566 612 436 551 
608 603 636 638 556 584 597 565 596 
563 604 583 518 640 652 594 580 615 
568 570 592 591 613 575 602 606 633 
513 668 607 611 617 567 635 569 649 
657 619 646 590 628 677 560 678 625 
621 672 631 659 684 662 664 683 639 
656 650 655 660 647 641 673 665 601 
627 687 634 685 622 676 682 691 553 
663 681 605 581 614 593 658 623 667 
632 661 653 666 599 648 669 643 697 
694 642 688 675 670 637 702 696 644 
689 700 686 654 690 587 674 432 693 
630 679 692 698 645 651 671 680 609 
618 472 629 699 703 701 709 715 708 
695 705 716 704 711 712 710 706 707 
713 714 726 728 720 717 725 729 718 
721 727 722 719 724 723 734 737 735 
741 742 733 731 730 736 738 739 740 
732 748 745 750 746 751 752 743 755 
744 749 747 753 754 767 763 765 758 
761 757 766 764 762 759 768 756 760 
778 780 775 779 781 773 769 771 776 
772 774 777 770 793 788 790 786 784 
791 787 783 792 794 789 805 800 782 
785 804 799 795 797 806 796 802 803 
801 798 807 817 816 808 815 814 810 
812 818 819 809 811 813 829 830 820 
826 823 824 831 825 827 828 822 821 
842 836 844 837 841 
type 1 788 int
1 1 1 1 1 1 1 1 1 
1 1 1 1 1 1 1 1 1 
1 1 1 1 1 1 1 1 1 
1 1 1 1 1 1 1 1 1 
1 1 1 1 1 1 1 1 1 
1 1 1 1 1 1 1 1 1 
1 1 1 1 1 1 1 1 1 
1 1 1 1 1 1 1 1 1 
1 1 1 1 1 1 1 1 1 
1 1 1 1 1 1 1 1 1 
1 1 1 1 1 1 1 1 1 
1 1 1 1 1 1 1 1 1 
1 1 1 1 1 1 1 1 1 
1 1 1 1 1 1 1 1 1 
1 1 1 1 1 1 1 1 1 
1 1 1 1 1 1 1 1 1 
1 1 1 1 1 1 1 1 1 
1 1 1 1 1 1 1 1 1 
1 1 1 1 1 1 1 1 1 
1 1 1 1 1 1 1 1 1 
1 1 1 1 1 1 1 1 1 
1 1 1 1 1 1 1 1 1 
1 1 1 1 1 1 1 1 1 
1 1 1 1 1 1 1 1 1 
1 1 1 1 1 1 1 1 1 
1 1 1 1 1 1 1 1 1 
1 1 1 1 1 1 1 1 1 
1 1 1 1 1 1 1 1 1 
1 1 1 1 1 1 1 1 1 
1 1 1 1 1 1 1 1 1 
1 1 1 1 1 1 1 1 1 
1 1 1 1 1 1 1 1 1 
1 1 1 1 1 1 1 1 1 
1 1 1 1 1 1 1 1 1 
1 1 1 1 1 1 1 1 1 
1 1 1 1 1 1 1 1 1 
1 1 1 1 1 1 1 1 1 
1 1 1 1 1 1 1 1 1 
1 1 1 1 1 1 1 1 1 
1 1 1 1 1 1 1 1 1 
1 1 1 1 1 1 1 1 1 
1 1 1 1 1 1 1 1 1 
1 1 1 1 1 1 1 1 1 
1 1 1 1 1 1 1 1 1 
1 1 1 1 1 1 1 1 1 
1 1 1 1 1 1 1 1 1 
1 1 1 1 1 1 1 1 1 
1 1 1 1 1 1 1 1 1 
1 1 1 1 1 1 1 1 1 
1 1 1 1 1 1 1 1 1 
1 1 1 1 1 1 1 1 1 
1 1 1 1 1 1 1 1 1 
1 1 1 1 1 1 1 1 1 
1 1 1 1 1 1 1 1 1 
1 1 1 1 1 1 1 1 1 
1 1 1 1 1 1 1 1 1 
1 1 1 1 1 1 1 1 1 
1 1 1 1 1 1 1 1 1 
1 1 1 1 1 1 1 1 1 
1 1 1 1 1 1 1 1 1 
1 1 1 1 1 1 1 1 1 
1 1 1 1 1 1 1 1 1 
1 1 1 1 1 1 1 1 1 
1 1 1 1 1 1 1 1 1 
1 1 1 1 1 1 1 1 1 
1 1 1 1 1 1 1 1 1 
1 1 1 1 1 1 1 1 1 
1 1 1 1 1 1 1 1 1 
1 1 1 1 1 1 1 1 1 
1 1 1 1 1 1 1 1 1 
1 1 1 1 1 1 1 1 1 
1 1 1 1 1 1 1 1 1 
1 1 1 1 1 1 1 1 1 
1 1 1 1 1 1 1 1 1 
1 1 1 1 1 1 1 1 1 
1 1 1 1 1 1 1 1 1 
1 1 1 1 1 1 1 1 1 
1 1 1 1 1 1 1 1 1 
1 1 1 1 1 1 1 1 1 
1 1 1 1 1 1 1 1 1 
1 1 1 1 1 1 1 1 1 
1 1 1 1 1 1 1 1 1 
1 1 1 1 1 1 1 1 1 
1 1 1 1 1 1 1 1 1 
1 1 1 1 1 1 1 1 1 
1 1 1 1 1 1 1 1 1 
1 1 1 1 1 1 1 1 1 
1 1 1 1 1 
i 3 788 int
0 0 0 0 0 0 0 0 0 
0 0 0 0 0 0 0 0 0 
0 0 0 0 0 0 0 0 0 
0 0 0 0 0 0 0 0 0 
0 0 0 0 0 0 0 0 0 
0 0 0 0 0 0 0 0 0 
0 0 0 0 0 0 0 0 0 
0 0 0 0 0 0 0 0 0 
0 0 0 0 0 0 0 0 0 
0 0 0 0 0 0 0 0 0 
0 0 0 0 0 0 0 0 0 
0 0 0 0 0 0 0 0 0 
0 0 0 0 0 0 0 0 0 
0 0 0 0 0 0 0 0 0 
0 0 0 0 0 0 0 0 0 
0 0 0 0 0 0 0 0 0 
0 0 0 0 0 0 0 0 0 
0 0 0 0 0 0 0 0 0 
0 0 0 0 0 0 0 0 0 
0 0 0 0 0 0 0 0 0 
0 0 0 0 0 0 0 0 0 
0 0 0 0 0 0 0 0 0 
0 0 0 0 0 0 0 0 0 
0 0 0 0 0 0 0 0 0 
0 0 0 0 0 0 0 0 0 
0 0 0 0 0 0 0 0 0 
0 0 0 0 0 0 0 0 0 
0 0 0 0 0 0 0 0 0 
0 0 0 0 0 0 0 0 0 
0 0 0 0 0 0 0 0 0 
0 0 0 0 0 0 0 0 0 
0 0 0 0 0 0 0 0 0 
0 0 0 0 0 0 0 0 0 
0 0 0 0 0 0 0 0 0 
0 0 0 0 0 0 0 0 0 
0 0 0 0 0 0 0 0 0 
0 0 0 0 0 0 0 0 0 
0 0 0 0 0 0 0 0 0 
0 0 0 0 0 0 0 0 0 
0 0 0 0 0 0 0 0 0 
0 0 0 0 0 0 0 0 0 
0 0 0 0 0 0 0 0 0 
0 0 0 0 0 0 0 0 0 
0 0 0 0 0 0 0 0 0 
0 0 0 0 0 0 0 0 0 
0 0 0 0 0 0 0 0 0 
0 0 0 0 0 0 0 0 0 
0 0 0 0 0 0 0 0 0 
0 0 0 0 0 0 0 0 0 
0 0 0 0 0 0 0 0 0 
0 0 0 0 0 0 0 0 0 
0 0 0 0 0 0 0 0 0 
0 0 0 0 0 0 0 0 0 
0 0 0 0 0 0 0 0 0 
0 0 0 0 0 0 0 0 0 
0 0 0 0 0 0 0 0 0 
0 0 0 0 0 0 0 0 0 
0 0 0 0 0 0 0 0 0 
0 0 0 0 0 0 0 0 0 
0 0 0 0 0 0 0 0 0 
0 0 0 0 0 0 0 0 0 
0 0 0 0 0 0 0 0 0 
0 0 0 0 0 0 0 0 0 
0 0 0 0 0 0 0 0 0 
0 0 0 0 0 0 0 0 0 
0 0 0 0 0 0 0 0 0 
0 0 0 0 0 0 0 0 0 
0 0 0 0 0 0 0 0 0 
0 0 0 0 0 0 0 0 0 
0 0 0 0 0 0 0 0 0 
0 0 0 0 0 0 0 0 0 
0 0 0 0 0 0 0 0 0 
0 0 0 0 0 0 0 0 0 
0 0 0 0 0 0 0 0 0 
0 0 0 0 0 0 0 0 0 
0 0 0 0 0 0 0 0 0 
0 0 0 0 0 0 0 0 0 
0 0 0 0 0 0 0 0 0 
0 0 0 0 0 0 0 0 0 
0 0 0 0 0 0 0 0 0 
0 0 0 0 0 0 0 0 0 
0 0 0 0 0 0 0 0 0 
0 0 0 0 0 0 0 0 0 
0 0 0 0 0 0 0 0 0 
0 0 0 0 0 0 0 0 0 
0 0 0 0 0 0 0 0 0 
0 0 0 0 0 0 0 0 0 
0 0 0 0 0 0 0 0 0 
0 0 0 0 0 0 0 0 0 
0 0 0 0 0 0 0 0 0 
0 0 0 0 0 0 0 0 0 
0 0 0 0 0 0 0 0 0 
0 0 0 0 0 0 0 0 0 
0 0 0 0 0 0 0 0 0 
0 0 0 0 0 0 0 0 0 
0 0 0 0 0 0 0 0 0 
0 0 0 0 0 0 0 0 0 
0 0 0 0 0 0 0 0 0 
0 0 0 0 0 0 0 0 0 
0 0 0 0 0 0 0 0 0 
0 0 0 0 0 0 0 0 0 
0 0 0 0 0 0 0 0 0 
0 0 0 0 0 0 0 0 0 
0 0 0 0 0 0 0 0 0 
0 0 0 0 0 0 0 0 0 
0 0 0 0 0 0 0 0 0 
0 0 0 0 0 0 0 0 0 
0 0 0 0 0 0 0 0 0 
0 0 0 0 0 0 0 0 0 
0 0 0 0 0 0 0 0 0 
0 0 0 0 0 0 0 0 0 
0 0 0 0 0 0 0 0 0 
0 0 0 0 0 0 0 0 0 
0 0 0 0 0 0 0 0 0 
0 0 0 0 0 0 0 0 0 
0 0 0 0 0 0 0 0 0 
0 0 0 0 0 0 0 0 0 
0 0 0 0 0 0 0 0 0 
0 0 0 0 0 0 0 0 0 
0 0 0 0 0 0 0 0 0 
0 0 0 0 0 0 0 0 0 
0 0 0 0 0 0 0 0 0 
0 0 0 0 0 0 0 0 0 
0 0 0 0 0 0 0 0 0 
0 0 0 0 0 0 0 0 0 
0 0 0 0 0 0 0 0 0 
0 0 0 0 0 0 0 0 0 
0 0 0 0 0 0 0 0 0 
0 0 0 0 0 0 0 0 0 
0 0 0 0 0 0 0 0 0 
0 0 0 0 0 0 0 0 0 
0 0 0 0 0 0 0 0 0 
0 0 0 0 0 0 0 0 0 
0 0 0 0 0 0 0 0 0 
0 0 0 0 0 0 0 0 0 
0 0 0 0 0 0 0 0 0 
0 0 0 0 0 0 0 0 0 
0 0 0 0 0 0 0 0 0 
0 0 0 0 0 0 0 0 0 
0 0 0 0 0 0 0 0 0 
0 0 0 0 0 0 0 0 0 
0 0 0 0 0 0 0 0 0 
0 0 0 0 0 0 0 0 0 
0 0 0 0 0 0 0 0 0 
0 0 0 0 0 0 0 0 0 
0 0 0 0 0 0 0 0 0 
0 0 0 0 0 0 0 0 0 
0 0 0 0 0 0 0 0 0 
0 0 0 0 0 0 0 0 0 
0 0 0 0 0 0 0 0 0 
0 0 0 0 0 0 0 0 0 
0 0 0 0 0 0 0 0 0 
0 0 0 0 0 0 0 0 0 
0 0 0 0 0 0 0 0 0 
0 0 0 0 0 0 0 0 0 
0 0 0 0 0 0 0 0 0 
0 0 0 0 0 0 0 0 0 
0 0 0 0 0 0 0 0 0 
0 0 0 0 0 0 0 0 0 
0 0 0 0 0 0 0 0 0 
0 0 0 0 0 0 0 0 0 
0 0 0 0 0 0 0 0 0 
0 0 0 0 0 0 0 0 0 
0 0 0 0 0 0 0 0 0 
0 0 0 0 0 0 0 0 0 
0 0 0 0 0 0 0 0 0 
0 0 0 0 0 0 0 0 0 
0 0 0 0 0 0 0 0 0 
0 0 0 0 0 0 0 0 0 
0 0 0 0 0 0 0 0 0 
0 0 0 0 0 0 0 0 0 
0 0 0 0 0 0 0 0 0 
0 0 0 0 0 0 0 0 0 
0 0 0 0 0 0 0 0 0 
0 0 0 0 0 0 0 0 0 
0 0 0 0 0 0 0 0 0 
0 0 0 0 0 0 0 0 0 
0 0 0 0 0 0 0 0 0 
0 0 0 0 0 0 0 0 0 
0 0 0 0 0 0 0 0 0 
0 0 0 0 0 0 0 0 0 
0 0 0 0 0 0 0 0 0 
0 0 0 0 0 0 0 0 0 
0 0 0 0 0 0 0 0 0 
0 0 0 0 0 0 0 0 0 
0 0 0 0 0 0 0 0 0 
0 0 0 0 0 0 0 0 0 
0 0 0 0 0 0 0 0 0 
0 0 0 0 0 0 0 0 0 
0 0 0 0 0 0 0 0 0 
0 0 0 0 0 0 0 0 0 
0 0 0 0 0 0 0 0 0 
0 0 0 0 0 0 0 0 0 
0 0 0 0 0 0 0 0 0 
0 0 0 0 0 0 0 0 0 
0 0 0 0 0 0 0 0 0 
0 0 0 0 0 0 0 0 0 
0 0 0 0 0 0 0 0 0 
0 0 0 0 0 0 0 0 0 
0 0 0 0 0 0 0 0 0 
0 0 0 0 0 0 0 0 0 
0 0 0 0 0 0 0 0 0 
0 0 0 0 0 0 0 0 0 
0 0 0 0 0 0 0 0 0 
0 0 0 0 0 0 0 0 0 
0 0 0 0 0 0 0 0 0 
0 0 0 0 0 0 0 0 0 
0 0 0 0 0 0 0 0 0 
0 0 0 0 0 0 0 0 0 
0 0 0 0 0 0 0 0 0 
0 0 0 0 0 0 0 0 0 
0 0 0 0 0 0 0 0 0 
0 0 0 0 0 0 0 0 0 
0 0 0 0 0 0 0 0 0 
0 0 0 0 0 0 0 0 0 
0 0 0 0 0 0 0 0 0 
0 0 0 0 0 0 0 0 0 
0 0 0 0 0 0 0 0 0 
0 0 0 0 0 0 0 0 0 
0 0 0 0 0 0 0 0 0 
0 0 0 0 0 0 0 0 0 
0 0 0 0 0 0 0 0 0 
0 0 0 0 0 0 0 0 0 
0 0 0 0 0 0 0 0 0 
0 0 0 0 0 0 0 0 0 
0 0 0 0 0 0 0 0 0 
0 0 0 0 0 0 0 0 0 
0 0 0 0 0 0 0 0 0 
0 0 0 0 0 0 0 0 0 
0 0 0 0 0 0 0 0 0 
0 0 0 0 0 0 0 0 0 
0 0 0 0 0 0 0 0 0 
0 0 0 0 0 0 0 0 0 
0 0 0 0 0 0 0 0 0 
0 0 0 0 0 0 0 0 0 
0 0 0 0 0 0 0 0 0 
0 0 0 0 0 0 0 0 0 
0 0 0 0 0 0 0 0 0 
0 0 0 0 0 0 0 0 0 
0 0 0 0 0 0 0 0 0 
0 0 0 0 0 0 0 0 0 
0 0 0 0 0 0 0 0 0 
0 0 0 0 0 0 0 0 0 
0 0 0 0 0 0 0 0 0 
0 0 0 0 0 0 0 0 0 
0 0 0 0 0 0 0 0 0 
0 0 0 0 0 0 0 0 0 
0 0 0 0 0 0 0 0 0 
0 0 0 0 0 0 0 0 0 
0 0 0 0 0 0 0 0 0 
0 0 0 0 0 0 0 0 0 
0 0 0 0 0 0 0 0 0 
0 0 0 0 0 0 0 0 0 
0 0 0 0 0 0 0 0 0 
0 0 0 0 0 0 0 0 0 
0 0 0 0 0 0 0 0 0 
0 0 0 0 0 0 0 0 0 
0 0 0 0 0 0 0 0 0 
0 0 0 0 0 0 0 0 0 
0 0 0 0 0 0 0 0 0 
0 0 0 0 0 0 0 0 0 
0 0 0 0 0 0 0 0 0 
0 0 0 0 0 0 
v 3 788 double
0 0 -1 0 0 -1 0 0 -1 
0 0 -1 0 0 -1.00927 0 0 -1.03164 
0 0 -1.02624 0 0 -1.03183 -1.22797 -0.377059 -1.87825 
-1.10183 0.0117228 -1.76878 -1.15886 -0.0318438 -1.73623 -0.998737 -0.0314326 -1.7278 
-1.12157 -0.0281802 -1.74254 -1.10511 -0.0595757 -1.70044 -1.27003 0.0111435 -1.64006 
-1.09743 -0.0519123 -1.6664 -1.05582 -0.0413377 -1.63456 -1.12424 -0.0138933 -1.64271 
-1.12174 0.0429117 -1.5838 -1.13017 0.00827489 -1.59672 -1.12779 0.0325185 -1.62214 
-1.17182 0.00174898 -1.58865 -1.14839 0.0644095 -1.55715 -1.18335 -0.261397 -1.5585 
-1.22725 -0.0591901 -1.58092 -1.21845 -0.263145 -1.50591 -1.32046 -0.122847 -1.61722 
-1.0368 -0.061578 -1.57661 -1.18482 0.0722427 -1.42044 -1.04981 -0.09422 -1.57146 
-1.15612 0.0129947 -1.45632 -1.17167 -0.121792 -1.47957 -1.13462 0.0241988 -1.48033 
-1.10445 -0.00921821 -1.4343 -1.21914 0.0904969 -1.47181 -1.10415 0.0529525 -1.41491 
-1.09724 0.0189179 -1.35421 -1.16044 0.0863519 -1.38464 -1.17175 -0.0150631 -1.29911 
-1.23057 -0.0457108 -1.42076 -1.12507 0.126267 -1.41834 -1.0982 0.0331919 -1.3489 
-1.10072 0.0408203 -1.34841 -1.11456 0.174963 -1.33293 -1.20407 -0.0313051 -1.35063 
-1.07032 0.0212318 -1.35025 -1.13591 -0.0301187 -1.52634 -1.02291 0.06165 -1.30915 
-1.0907 -0.0150395 -1.41357 -1.00542 0.152193 -1.32352 -1.13646 -0.0386955 -1.30464 
-1.11593 -0.0490146 -1.32419 -1.03658 0.023447 -1.29037 -1.00833 0.123384 -1.25447 
-1.06593 -0.00967344 -1.25896 -1.13289 -0.046527 -1.26086 -1.13553 0.086544 -1.24466 
-1.15359 0.0736842 -1.2659 -0.987541 0.0691962 -1.24035 -1.10516 0.0584267 -1.23159 
-1.11349 0.0452111 -1.21869 -1.0136 0.0414833 -1.16929 -1.07261 0.138848 -1.1424 
-1.16879 0.0348261 -1.26557 -0.969303 0.0176072 -1.11915 -1.29489 -0.263443 -1.22639 
-1.00493 -0.0311408 -1.09454 -1.07999 0.0605004 -1.13906 -1.09378 0.0507524 -1.07469 
-1.24198 0.142669 -1.15163 -1.19959 0.153059 -1.10581 -1.17675 -0.15996 -1.13112 
-1.15975 -0.153784 -1.09856 -1.10591 -0.132975 -1.03736 -1.32811 0.0484367 -1.2029 
-1.05533 0.007542 -0.983803 -1.12625 -0.017849 -0.976937 -1.02681 0.0189348 -0.99324 
-1.1504 -0.130621 -1.00041 -1.00914 0.0655862 -0.97267 -1.0947 -0.0154384 -0.922529 
-1.06282 0.127956 -0.923837 -1.11336 0.0338284 -0.886137 -1.06358 0.0776617 -0.850737 
-1.01025 0.00303326 -0.841913 -1.02662 0.0330769 -0.881271 -1.10101 -0.176473 -0.912782 
-1.02097 0.174059 -0.8352 -1.06987 0.0163512 -0.862866 -1.07919 0.077187 -0.858368 
-1.12973 0.11904 -0.780822 -0.946199 0.0777158 -0.869212 -1.03086 -0.00698185 -0.820342 
-1.01284 -0.0123211 -0.865738 -0.985408 0.0234253 -0.866515 -1.24116 0.457496 -1.02763 
-1.08578 -0.0401915 -0.784094 -1.08505 0.0172826 -0.800691 -1.17652 0.0340392 -0.766767 
-1.08607 0.0934356 -0.649776 -1.00548 0.0349664 -0.794539 -1.03045 0.0976098 -0.656324 
-0.998977 -0.0594074 -0.685084 -0.86721 0.108018 -0.706711 -1.1543 0.0308153 -0.775593 
-1.11153 -0.0813879 -0.744244 -0.926415 -0.0261929 -0.685621 -1.14753 -0.0645282 -0.725646 
-1.14175 -0.0597273 -0.758266 -1.38782 0.160646 -1.25694 -1.09481 -0.087535 -0.835608 
-1.14716 0.239158 -0.740672 -1.30201 -0.127471 -0.705259 -1.20975 0.099159 -0.7108 
-1.04824 -0.128336 -0.668365 -0.984574 -0.0756637 -0.680293 -0.97989 -0.14697 -0.582244 
-0.906767 -0.0245925 -0.690783 -0.977098 -0.0460488 -0.640906 -0.964999 0.0272735 -0.613488 
-1.02132 0.00715958 -0.756739 -0.975709 0.0836101 -0.695941 -0.943879 0.0327751 -0.627577 
-1.22921 0.113399 -0.675931 -0.958266 -0.116579 -0.537608 -1.13301 0.0485565 -0.594977 
-1.08291 0.0449325 -0.564221 -0.956833 -0.0776731 -0.598696 -0.979753 -0.0645007 -0.583022 
-0.965919 -0.0939445 -0.473531 -1.0165 -0.0754089 -0.442243 -0.943774 -0.164468 -0.517078 
-1.04769 -0.0597737 -0.536293 -1.18811 -0.307772 -0.675151 -1.14597 0.0596474 -0.48645 
-1.0064 0.116208 -0.414067 -1.01126 0.0492807 -0.457603 -1.05977 -0.147208 -0.475183 
-0.821652 -0.0358504 -0.330519 -0.832549 0.0531588 -0.347555 -0.9673 -0.0437704 -0.531418 
-1.08463 0.00442407 -0.462255 -1.05038 -0.0149612 -0.481927 -0.985163 0.00917275 -0.407146 
-1.1201 0.0296316 -0.495217 -0.922798 0.220714 -0.350025 -0.847425 -0.00706841 -0.357072 
-0.976265 -0.0654886 -0.414989 -1.12068 0.00674841 -0.467441 -1.01667 -0.152203 -0.437627 
-1.26197 -0.0842652 -0.61471 -1.13163 -0.186663 -0.468277 -1.175 -0.275441 -0.802261 
-1.20634 0.31037 -0.80022 -0.997226 0.026342 -0.385843 -1.01324 -0.0492787 -0.283614 
-0.817421 -0.00920001 -0.344394 -0.877582 -0.0133803 -0.370028 -0.958287 0.0136787 -0.35217 
-0.972138 0.0329247 -0.407668 -0.93867 0.00420146 -0.395358 -0.994584 -0.016225 -0.420854 
-1.03656 0.00909711 -0.430665 -1.19732 -0.145083 -0.358388 -1.11689 0.271402 -0.600571 
-1.13825 0.254368 -0.514594 -1.19556 -0.0171501 -0.497522 -1.08509 0.0039716 -0.45655 
-0.975389 -0.0459115 -0.473136 -0.987238 0.149304 -0.487117 -0.971611 -0.0530661 -0.412861 
-0.970476 0.00745931 -0.409205 -0.990079 0.0155375 -0.416337 -0.998972 0.0548723 -0.418365 
-1.00238 0.0191886 -0.414891 -1.33526 0.290397 -0.664495 -0.935532 0.00921436 -0.392482 
-0.954202 0.0162658 -0.401369 -0.889728 0.086157 -0.383228 -1.04546 0.0570121 -0.443252 
-1.10762 0.0038826 -0.467697 -1.00581 -0.0473966 -0.430381 -1.18316 -0.0371933 -0.500324 
-1.12755 -0.00742234 -0.473723 -1.07774 0.0726186 -0.461315 -0.992472 -0.147824 -0.402606 
-0.979539 -0.0600197 -0.402139 -1.07228 0.0177602 -0.450774 -1.07157 0.515885 -0.532748 
-0.88308 -0.0286733 -0.366299 -1.00422 0.0191992 -0.426774 -1.04317 0.00964604 -0.439081 
-0.952051 0.0783683 -0.394445 -0.89813 -0.121124 -0.34852 -1.05225 0.254124 -0.454047 
-1.01648 0.0730317 -0.430006 -0.70356 -0.0109897 -0.299483 -0.868466 -0.0865353 -0.366986 
-0.872269 0.0243715 -0.362104 -0.846357 0.0303125 -0.359047 -0.983297 -0.00810814 -0.41147 
-1.0697 -0.00928709 -0.430174 -0.85424 -0.428682 -0.476328 -1.28136 -0.273859 -1.08315 
-0.932366 0.050596 -0.418934 -0.890224 -0.067747 -0.335897 -0.880751 -0.1175 -0.354069 
-1.04529 0.0682778 -0.441804 -0.900615 -0.0686776 -0.389965 -0.855806 -0.0219922 -0.318654 
-0.823281 -0.0194666 -0.349545 -0.839389 -0.112222 -0.34177 -0.86097 -0.0112405 -0.362811 
-0.912432 -0.00904892 -0.380173 -0.874779 -0.137937 -0.343401 -0.996798 -0.060202 -0.427331 
-1.05427 0.294116 -0.58 -0.929257 -0.0426698 -0.345985 -0.929251 0.197773 -0.433914 
-1.27016 -0.19025 -0.63729 -1.05961 0.306888 -0.407712 -0.765313 0.0508176 -0.295937 
-0.792172 -0.003421 -0.297307 -0.857694 -0.0163993 -0.359856 -0.92382 0.0426926 -0.392754 
-1.07612 -0.0440536 -0.47182 -1.08917 -0.0428303 -0.458977 -0.943203 -0.177963 -0.414983 
-0.969757 0.279393 -0.427809 -0.882974 0.0840483 -0.364261 -0.728412 -0.0320269 -0.319175 
-0.848858 -0.0472128 -0.369731 -0.874215 -0.0406799 -0.374971 -1.27919 -0.0811823 -0.551558 
-1.13218 0.108989 -0.0814756 -0.701385 0.00279577 -0.293111 -0.798249 0.0200594 -0.331987 
-0.939101 -0.0120919 -0.39174 -0.767936 0.125746 -0.2902 -1.10498 -0.0565392 -0.463764 
-1.12507 -0.149362 -0.49728 -1.0041 0.205012 -0.469106 -0.965096 0.0126468 -0.411489 
-0.860321 0.19665 -0.39973 -0.855703 -0.0609937 -0.366648 -0.798562 -0.082525 -0.267072 
-0.768563 -0.0252209 -0.310368 -0.760187 -0.0272572 -0.322623 -0.893895 0.00151628 -0.385557 
-0.856559 0.16076 -0.381401 -0.749768 -0.0307786 -0.307922 -1.1471 0.0783725 -0.505285 
-0.950743 -0.0600632 -0.325047 -0.922269 0.078277 -0.364446 -0.883858 -0.0284007 -0.367487 
-0.864818 -0.0875534 -0.380278 -0.929391 -0.0271379 -0.388392 -0.700786 -0.0647446 -0.297216 
-0.913192 -0.0271994 -0.37831 -1.00078 -0.0867408 -0.42886 -1.13229 0.174087 -0.532864 
-0.770255 0.0790056 -0.331485 -0.89172 0.0191811 -0.369019 -0.818045 -0.0445264 -0.34534 
-0.761517 -0.0512257 -0.320655 -0.55638 -0.0344245 -0.22657 -0.61687 -0.0201432 -0.264551 
-0.617743 0.0459489 -0.267137 -0.770127 -0.0209605 -0.330264 -0.724433 0.0288888 -0.308608 
-0.711806 -1.74464e-05 -0.304553 -0.743359 -0.0183346 -0.293137 -0.77674 0.0698227 -0.326484 
-0.751729 -0.00367087 -0.291565 -0.751921 0.0553234 -0.31536 -0.753201 -0.0401309 -0.327711 
-0.789363 -0.139515 -0.342528 -1.15678 -0.00501534 -0.602496 -0.89374 -0.101668 -0.329134 
-0.957881 -0.172891 -0.427621 -0.949791 -0.0904587 -0.408569 -1.15436 -0.0935639 -0.493131 
-1.05093 0.17776 -0.454525 -0.808172 0.18634 -0.393498 -0.515274 0.0229938 -0.215589 
-0.877281 -0.120333 -0.422741 -0.699845 -0.0343982 -0.409451 -0.746709 -0.0194192 -0.402141 
-0.711288 0.0613716 -0.30503 -0.782521 0.0773723 -0.425247 -0.717205 0.0399061 -0.317706 
-0.735371 0.035979 -0.309857 -0.744419 0.104474 -0.319473 -0.735387 0.0818936 -0.296267 
-0.861174 -0.0120822 -0.359839 -0.769127 0.122067 -0.297608 -1.3106 -0.168458 -0.488666 
-0.800223 0.0569876 -0.335585 -0.893483 -0.022488 -0.383943 -0.874356 0.0553357 -0.366326 
-0.844753 0.00788537 -0.362864 -0.769731 -0.161303 -0.361777 -0.741409 -0.154322 -0.336241 
-1.00135 -0.0524711 -0.401655 -1.08508 0.170219 -0.527465 -0.823767 0.112778 -0.366339 
-0.89864 -0.0382205 -0.394244 -0.83478 -0.00303976 -0.356783 -0.900728 -0.0432533 -0.384169 
-0.786909 0.0412177 -0.327435 -0.721922 0.0425782 -0.304803 -0.819352 -0.0659326 -0.344606 
-0.879845 0.0236034 -0.352175 -0.896657 -0.0370669 -0.336635 -0.855129 0.0104632 -0.357176 
-0.862325 0.0259287 -0.36631 -0.917631 -0.109768 -0.282402 -0.926212 -0.103234 -0.371809 
-0.956909 -0.0557925 -0.476623 -0.798556 -0.00864246 -0.34239 -0.73343 -0.0494755 -0.309866 
-0.781715 0.0363531 -0.325124 -0.72709 0.0651754 -0.306855 -0.83503 0.0655877 -0.352954 
-1.0107 -0.146365 -0.446481 -1.12001 0.0589209 -0.41868 -0.695519 0.120475 -0.301411 
-0.848653 0.163131 -0.369714 -0.863931 -0.0283327 -0.353417 -0.855786 -0.0227447 -0.348375 
-0.868368 -0.0721933 -0.359346 -1.03201 -0.0721621 -0.518138 -0.762312 -0.196392 -0.296089 
-0.818434 -0.0446614 -0.34192 -0.707144 -0.0469233 -0.295136 -0.782007 -0.0394247 -0.266275 
-0.799837 0.0193116 -0.33832 -0.798005 0.0428901 -0.34156 -0.789569 0.176941 -0.303139 
-0.940334 -0.0866978 -0.407079 -1.18963 0.186728 -0.580982 -1.05551 0.0753129 -0.442235 
-0.883838 -0.0326139 -0.352046 -0.676354 -0.144855 -0.300675 -0.739274 -0.0569523 -0.316613 