# vtk DataFile Version 4.0
Generated by LIGGGHTS
ASCII
DATASET POLYDATA
POINTS 719 float
-0.0231685 0.0236454 0.0574453 -0.495754 -0.0136383 -0.39336 -0.00853777 0.0292796 0.056868 
-0.491136 -0.0152897 -0.385673 -0.482046 0.00876498 -0.382537 -0.457778 -0.0295189 -0.379077 
-0.46999 -0.00253789 -0.36861 -0.474216 0.0134498 -0.370974 -0.467674 0.0135315 -0.363304 
-0.46419 0.0085322 -0.359149 -0.457093 0.000251756 -0.356271 -0.463844 0.0144205 -0.355843 
-0.470728 0.0244263 -0.356981 -0.451721 -0.0367254 -0.337995 -0.446044 -0.0328285 -0.332781 
-0.442562 0.0244426 -0.335233 -0.431982 -0.0122219 -0.328427 -0.432279 0.00949465 -0.325153 
-0.433148 -0.025775 -0.318335 -0.429935 0.00145584 -0.318545 -0.418746 0.00989251 -0.315165 
-0.414375 0.0207079 -0.315399 -0.426462 -0.00508657 -0.313371 -0.408186 -0.00152144 -0.310778 
-0.415788 0.0110153 -0.310293 -0.417488 0.000111266 -0.306919 -0.41347 -0.0138758 -0.299989 
-0.407782 -0.00326661 -0.302367 -0.413306 0.00546632 -0.302041 -0.401477 -0.00455618 -0.296597 
-0.400462 0.00171063 -0.296024 -0.398465 0.00441175 -0.296457 -0.403278 -0.0173178 -0.292997 
-0.396251 0.00168115 -0.289315 -0.393557 0.00466045 -0.289723 -0.393519 0.00955528 -0.289038 
-0.383083 -0.00372393 -0.281813 -0.386779 0.00140389 -0.282708 -0.387007 0.00754922 -0.28382 
-0.386161 -0.0075877 -0.277842 -0.386652 0.0130189 -0.281022 -0.379301 -0.00654056 -0.274691 
-0.382566 0.00674775 -0.277698 -0.381947 0.0280636 -0.277321 -0.37797 -0.0130779 -0.274101 
-0.368821 0.00166098 -0.270457 -0.379759 0.0278625 -0.270564 -0.364566 -0.0014511 -0.26643 
-0.36406 0.0141664 -0.263961 -0.360863 -0.00939827 -0.262523 -0.358446 -0.00604152 -0.260199 
-0.35928 0.00796613 -0.262762 -0.351126 0.00482996 -0.256219 -0.354841 0.0082228 -0.258416 
-0.373073 0.0427076 -0.258454 -0.3519 -0.0178916 -0.253996 -0.353127 -0.00924716 -0.254946 
-0.345331 0.00530024 -0.254454 -0.3482 0.0101662 -0.253842 -0.347451 0.0205521 -0.252621 
-0.342654 0.0103645 -0.251604 -0.34196 -0.0283302 -0.246612 -0.355085 -0.0164983 -0.247281 
-0.33896 -0.00946782 -0.248115 -0.330145 -0.0029899 -0.245316 -0.334272 0.00404741 -0.247326 
-0.33862 0.0257593 -0.244979 -0.327536 -0.0110602 -0.243514 -0.323849 -0.0124047 -0.241888 
-0.327834 -0.00788071 -0.243913 -0.324614 -0.00842307 -0.242473 -0.326486 0.0026553 -0.243727 
-0.323658 0.000892896 -0.241488 -0.330978 0.0153031 -0.244654 -0.325364 0.0169164 -0.241766 
-0.32887 -0.0270237 -0.239746 -0.323669 -0.0230697 -0.239805 -0.326442 -0.0198737 -0.240492 
-0.31611 0.00200054 -0.238226 -0.317038 0.0132953 -0.238962 -0.317108 0.0196444 -0.237751 
-0.334502 -0.0288834 -0.236939 -0.319617 -0.0310709 -0.235943 -0.317026 -0.0290288 -0.235466 
-0.315212 -0.0263475 -0.235403 -0.312628 -0.0206987 -0.234754 -0.310377 -0.0175588 -0.2354 
-0.307614 -0.0154771 -0.233397 -0.307762 -0.0105445 -0.234232 -0.306761 -0.00171284 -0.23543 
-0.309496 0.00060362 -0.236612 -0.309141 0.0053006 -0.236167 -0.308773 0.00936353 -0.235757 
-0.306004 0.00737088 -0.234715 -0.309602 0.0127046 -0.235896 -0.305954 0.0110225 -0.234463 
-0.307535 -0.0284443 -0.23176 -0.309049 -0.0247625 -0.232291 -0.304226 -0.0230821 -0.231662 
-0.301938 -0.0104961 -0.232881 -0.303017 -0.00367175 -0.232698 -0.294764 0.0036388 -0.23021 
-0.30204 0.0122911 -0.23273 -0.29631 0.0115713 -0.230358 -0.297985 -0.0255912 -0.2275 
-0.300674 -0.0206411 -0.22962 -0.294225 -0.00129836 -0.22907 -0.286622 -0.0215904 -0.223721 
-0.284036 -0.0161694 -0.224736 -0.280915 0.00596955 -0.22422 -0.28321 0.00938966 -0.22389 
-0.285214 0.0127965 -0.225604 -0.296859 -0.042185 -0.222383 -0.272662 -0.00618561 -0.219807 
-0.275235 0.00262065 -0.222063 -0.272138 0.00347974 -0.220714 -0.270906 0.000422496 -0.220345 
-0.275931 0.00699452 -0.22102 -0.27149 0.00636569 -0.220241 -0.274914 0.0191933 -0.22023 
-0.291634 0.0325008 -0.222788 -0.277414 -0.0383126 -0.216258 -0.269923 -0.0263164 -0.216942 
-0.266816 -0.0167598 -0.217412 -0.270164 -0.0137878 -0.219165 -0.266846 -0.0116244 -0.216919 
-0.268739 -0.00763472 -0.218816 -0.268255 -0.0016477 -0.218115 -0.268875 0.0039007 -0.218079 
-0.261725 0.00392486 -0.216282 -0.269538 0.00910775 -0.21807 -0.270942 0.0145077 -0.219369 
-0.264919 0.0174501 -0.216364 -0.273088 0.0265522 -0.216958 -0.291145 0.0380418 -0.215792 
-0.270447 -0.034581 -0.214603 -0.255924 -0.0168884 -0.212805 -0.260642 -0.0110218 -0.214394 
-0.256149 -0.0114493 -0.213546 -0.254639 -0.0043371 -0.213352 -0.258039 -0.00506584 -0.214756 
-0.264193 0.000179299 -0.215544 -0.254263 0.00241427 -0.213116 -0.259135 0.00769625 -0.213922 
-0.253862 0.00845339 -0.212764 -0.257431 0.0124323 -0.212905 -0.261911 0.0188287 -0.214897 
-0.258983 0.0182546 -0.213769 -0.267239 0.0272292 -0.21548 -0.259825 -0.0258216 -0.212327 
-0.253252 -0.0195761 -0.211126 -0.249287 -0.012493 -0.210481 -0.250961 -0.00226032 -0.210816 
-0.247251 0.000159594 -0.210307 -0.254708 0.00533471 -0.211955 -0.252276 0.0117136 -0.210829 
-0.254181 0.0150785 -0.212223 -0.253854 0.0239892 -0.209661 -0.241626 -0.0164782 -0.206791 
-0.245485 -0.0133944 -0.207704 -0.244284 -0.00918354 -0.208752 -0.241291 -0.00786886 -0.206439 
-0.237662 -0.0094973 -0.205747 -0.244267 -0.000324544 -0.208437 -0.24004 0.00510002 -0.207071 
-0.24768 0.0122382 -0.208816 -0.252926 0.0287769 -0.208019 -0.241411 -0.0328025 -0.203346 
-0.234787 -0.0159623 -0.202859 -0.234582 0.00295654 -0.203775 -0.233918 0.00786806 -0.203249 
-0.235129 0.0126904 -0.203461 -0.239205 0.0156431 -0.204778 -0.245867 0.0228897 -0.20509 
-0.245291 0.0351075 -0.204329 -0.230403 -0.0232066 -0.200948 -0.234968 -0.0234997 -0.20166 
-0.225882 -0.0188435 -0.199985 -0.224168 -0.0155271 -0.199562 -0.225325 -0.00180529 -0.201038 
-0.228696 0.00547826 -0.201215 -0.223511 0.00441917 -0.198636 -0.225292 0.00899487 -0.199696 
-0.220183 0.00803439 -0.198471 -0.228184 0.0130526 -0.200454 -0.228145 0.017042 -0.201009 
-0.227829 0.0214486 -0.200305 -0.225195 0.0218087 -0.198575 -0.232716 0.0279135 -0.20098 
-0.22439 -0.031989 -0.196572 -0.213986 -0.0145316 -0.195366 -0.216468 -0.0105214 -0.1957 
-0.219407 -0.00206708 -0.197452 -0.21181 0.00345015 -0.195216 -0.214925 0.009632 -0.19577 
-0.211684 0.00890216 -0.19505 -0.217329 0.0114221 -0.197144 -0.216664 0.0151841 -0.196397 
-0.223732 0.0181627 -0.197353 -0.23117 0.0416782 -0.196277 -0.247102 -0.0583024 -0.194792 
-0.21665 -0.0217261 -0.194327 -0.207013 -0.00824755 -0.193041 -0.205988 -0.00221671 -0.191751 
-0.210404 0.00623021 -0.194532 -0.210137 0.0044762 -0.192006 -0.209335 0.012647 -0.193642 
-0.205557 0.0129199 -0.191997 -0.221028 0.0345935 -0.19342 -0.200608 -0.0194953 -0.188901 
-0.203143 -0.0160067 -0.190601 -0.201927 -0.00950199 -0.18972 -0.195224 -0.000782658 -0.188241 
-0.193829 0.00359978 -0.18769 -0.200987 0.0260845 -0.188169 -0.212726 -0.0517095 -0.185011 
-0.211556 -0.0439885 -0.187524 -0.191275 -0.0210011 -0.18501 -0.198293 -0.0166588 -0.186498 
-0.190416 -0.00778923 -0.186159 -0.187041 -0.00837436 -0.184704 -0.192596 0.00091849 -0.187159 
-0.187806 0.0035981 -0.184104 -0.191246 0.00776268 -0.185361 -0.202074 0.0138288 -0.1879 
-0.250144 0.0163818 -0.185981 -0.193913 0.0174867 -0.18666 -0.238595 0.0652664 -0.187257 
-0.231326 -0.0673872 -0.183164 -0.181886 -0.024764 -0.180558 -0.184007 -0.0113465 -0.183158 
-0.186477 -0.00462712 -0.183429 -0.188454 -0.000673522 -0.180746 -0.18254 0.00484348 -0.182995 
-0.177881 0.00301128 -0.18101 -0.184831 0.00953942 -0.183558 -0.181699 0.00776454 -0.182358 
-0.186983 0.0147283 -0.182905 -0.213911 0.0557224 -0.183172 -0.179096 -0.0240631 -0.179536 
-0.176613 -0.00928226 -0.179186 -0.185923 0.00890728 -0.178323 -0.182521 0.00702854 -0.179477 
-0.176083 0.00814809 -0.17998 -0.171723 0.00969578 -0.177841 -0.174872 0.0130147 -0.177963 
-0.175435 0.0183067 -0.178838 -0.172048 0.0201323 -0.177226 -0.180095 0.0213734 -0.17926 
-0.179672 0.0262759 -0.178086 -0.180445 0.0305891 -0.178646 -0.163441 -0.0160083 -0.17413 
-0.162414 -0.00525297 -0.174438 -0.169573 -0.00281661 -0.176344 -0.16328 -0.000446941 -0.173737 
-0.163351 0.00569541 -0.174866 -0.164346 0.00851953 -0.17503 -0.163 0.0129625 -0.174094 
-0.166555 0.0198283 -0.17497 -0.159318 -0.0190728 -0.171978 -0.166385 -0.00956006 -0.174431 
-0.169345 -0.00511825 -0.172836 -0.154659 -0.00666172 -0.171121 -0.151657 -0.00619738 -0.169863 
-0.154454 -0.00323261 -0.171138 -0.154439 0.00299821 -0.171057 -0.159349 0.00642614 -0.173135 
-0.155154 0.00760293 -0.171292 -0.156938 0.0113231 -0.171749 -0.161021 0.0221417 -0.171098 
-0.160851 0.0264311 -0.17131 -0.169092 0.0340921 -0.173268 -0.203914 0.0646769 -0.173236 
-0.195208 -0.0711279 -0.167519 -0.163184 -0.0377117 -0.169888 -0.158767 -0.0289999 -0.168937 
-0.151061 -0.0247064 -0.167691 -0.164815 -0.0248795 -0.169284 -0.148398 -0.017806 -0.167586 
-0.211595 -0.0168012 -0.169336 -0.15435 -0.0165387 -0.168923 -0.147517 -0.010787 -0.166802 
-0.152067 -0.0100451 -0.168729 -0.157918 -0.00205755 -0.167984 -0.150658 -0.00121527 -0.169552 
-0.161246 0.000177704 -0.168632 -0.153532 0.00194411 -0.167343 -0.152199 0.00597213 -0.169657 
-0.151617 0.0181261 -0.16771 -0.155378 0.0302065 -0.168299 -0.167059 0.0496042 -0.167625 
-0.184092 -0.0657151 -0.166646 -0.170302 -0.0589361 -0.1649 -0.162449 -0.0452576 -0.166058 
-0.151351 -0.0217859 -0.166262 -0.145756 -0.0153463 -0.165638 -0.140409 -0.0149808 -0.16448 
-0.138572 -0.011794 -0.164018 -0.155186 -0.00448536 -0.166278 -0.145742 -0.00607016 -0.1663 
-0.141675 -0.00543988 -0.165666 -0.142991 -0.00268656 -0.166352 -0.144318 0.00177729 -0.166683 
-0.146325 0.00520354 -0.166392 -0.154875 0.00864145 -0.166291 -0.146096 0.0104619 -0.166248 
-0.142196 0.00984735 -0.165667 -0.139903 0.0116426 -0.162937 -0.146115 0.0223879 -0.164326 
-0.151373 0.0278921 -0.167028 -0.145922 0.0265202 -0.165057 -0.151598 0.0345147 -0.16486 
-0.142181 -0.0386707 -0.159914 -0.132072 -0.0125641 -0.161244 -0.132782 -0.00860881 -0.161841 
-0.130032 -0.00803568 -0.160707 -0.127369 -0.00709924 -0.159633 -0.163629 -0.00400354 -0.160657 
[...]
POINT_DATA 719
FIELD FieldData 7
id 1 719 int
724 11 723 57 1 51 13 25 30 
38 23 29 21 14 33 3 19 47 
28 5 4 60 40 7 69 54 93 
27 66 56 45 73 173 37 89 61 
8 52 36 100 94 87 42 120 85 
59 147 77 117 133 55 91 39 15 
139 63 41 176 17 84 31 113 131 
78 71 126 145 46 50 58 74 125 
65 88 153 80 24 43 67 162 108 
207 76 62 101 97 98 53 92 112 
190 86 111 164 102 48 95 103 18 
110 130 137 34 75 168 26 196 141 
140 121 193 122 174 104 186 177 148 
68 82 163 81 178 187 179 150 79 
202 180 129 160 118 114 138 219 352 
171 70 132 189 198 159 195 204 154 
127 106 107 49 151 294 265 123 142 
241 210 144 83 158 134 183 166 116 
136 215 184 156 119 225 244 167 115 
169 105 278 213 109 157 229 250 211 
221 270 143 252 170 199 99 64 200 
135 149 181 205 124 317 209 212 228 
208 72 188 272 146 182 175 277 254 
96 234 223 152 284 161 224 290 185 
201 172 297 197 236 280 245 206 296 
324 191 251 305 276 293 295 233 249 
299 261 287 128 289 332 298 322 316 
273 339 363 264 275 321 256 253 222 
267 220 218 292 314 226 242 255 281 
337 227 247 238 304 266 192 262 348 
368 230 155 165 263 260 274 329 214 
307 422 258 243 330 235 259 303 446 
310 217 306 288 9 308 353 283 203 
370 438 333 318 315 405 232 343 194 
248 388 347 311 300 282 271 313 237 
351 291 418 285 302 354 382 246 349 
240 286 331 390 320 407 269 367 377 
327 341 335 216 423 387 401 409 362 
323 231 340 279 90 344 372 371 336 
358 309 384 257 470 386 366 239 389 
355 350 411 399 433 398 326 447 395 
346 374 301 325 403 319 396 424 416 
381 444 338 365 356 441 328 473 268 
378 429 360 454 414 420 445 448 459 
394 425 408 430 375 483 466 400 334 
380 417 421 440 404 484 428 345 385 
361 376 359 406 312 497 393 427 439 
456 419 342 391 369 397 489 481 478 
364 373 511 488 392 431 357 496 413 
379 383 476 462 415 477 434 486 458 
437 522 482 451 455 491 450 460 435 
412 452 493 475 442 402 508 463 519 
465 464 492 490 485 487 468 449 505 
501 507 500 529 453 504 542 510 471 
495 517 474 469 525 520 506 515 533 
494 536 426 457 410 530 461 534 467 
498 480 564 562 544 543 526 557 528 
527 499 555 531 502 436 565 503 558 
541 582 573 572 554 559 512 516 546 
570 538 514 552 575 518 532 523 443 
545 588 568 567 550 551 509 539 521 
524 569 537 535 576 549 548 574 566 
579 556 581 571 587 540 561 563 479 
553 547 560 513 586 580 577 583 578 
432 472 596 585 584 595 591 589 601 
598 590 597 593 594 600 599 592 611 
602 603 607 608 605 610 604 613 606 
612 614 609 616 615 618 626 623 620 
621 624 625 622 617 619 629 627 640 
628 636 635 638 639 637 632 634 631 
633 630 645 650 652 647 646 643 642 
649 651 663 641 666 653 644 648 658 
654 664 655 665 659 656 660 662 657 
661 667 668 678 669 676 672 670 677 
671 675 673 674 683 685 681 679 680 
686 690 691 684 682 688 689 687 697 
694 693 702 696 692 698 700 699 701 
703 709 715 708 695 705 716 710 706 
704 714 711 713 712 726 728 707 717 
725 720 729 718 721 719 727 722 
type 1 719 int
1 1 1 1 1 1 1 1 1 
1 1 1 1 1 1 1 1 1 
1 1 1 1 1 1 1 1 1 
1 1 1 1 1 1 1 1 1 
1 1 1 1 1 1 1 1 1 
1 1 1 1 1 1 1 1 1 
1 1 1 1 1 1 1 1 1 
1 1 1 1 1 1 1 1 1 
1 1 1 1 1 1 1 1 1 
1 1 1 1 1 1 1 1 1 
1 1 1 1 1 1 1 1 1 
1 1 1 1 1 1 1 1 1 
1 1 1 1 1 1 1 1 1 
1 1 1 1 1 1 1 1 1 
1 1 1 1 1 1 1 1 1 
1 1 1 1 1 1 1 1 1 
1 1 1 1 1 1 1 1 1 
1 1 1 1 1 1 1 1 1 
1 1 1 1 1 1 1 1 1 
1 1 1 1 1 1 1 1 1 
1 1 1 1 1 1 1 1 1 
1 1 1 1 1 1 1 1 1 
1 1 1 1 1 1 1 1 1 
1 1 1 1 1 1 1 1 1 
1 1 1 1 1 1 1 1 1 
1 1 1 1 1 1 1 1 1 
1 1 1 1 1 1 1 1 1 
1 1 1 1 1 1 1 1 1 
1 1 1 1 1 1 1 1 1 
1 1 1 1 1 1 1 1 1 
1 1 1 1 1 1 1 1 1 
1 1 1 1 1 1 1 1 1 
1 1 1 1 1 1 1 1 1 
1 1 1 1 1 1 1 1 1 
1 1 1 1 1 1 1 1 1 
1 1 1 1 1 1 1 1 1 
1 1 1 1 1 1 1 1 1 
1 1 1 1 1 1 1 1 1 
1 1 1 1 1 1 1 1 1 
1 1 1 1 1 1 1 1 1 
1 1 1 1 1 1 1 1 1 
1 1 1 1 1 1 1 1 1 
1 1 1 1 1 1 1 1 1 
1 1 1 1 1 1 1 1 1 
1 1 1 1 1 1 1 1 1 
1 1 1 1 1 1 1 1 1 
1 1 1 1 1 1 1 1 1 
1 1 1 1 1 1 1 1 1 
1 1 1 1 1 1 1 1 1 
1 1 1 1 1 1 1 1 1 
1 1 1 1 1 1 1 1 1 
1 1 1 1 1 1 1 1 1 
1 1 1 1 1 1 1 1 1 
1 1 1 1 1 1 1 1 1 
1 1 1 1 1 1 1 1 1 
1 1 1 1 1 1 1 1 1 
1 1 1 1 1 1 1 1 1 
1 1 1 1 1 1 1 1 1 
1 1 1 1 1 1 1 1 1 
1 1 1 1 1 1 1 1 1 
1 1 1 1 1 1 1 1 1 
1 1 1 1 1 1 1 1 1 
1 1 1 1 1 1 1 1 1 
1 1 1 1 1 1 1 1 1 
1 1 1 1 1 1 1 1 1 
1 1 1 1 1 1 1 1 1 
1 1 1 1 1 1 1 1 1 
1 1 1 1 1 1 1 1 1 
1 1 1 1 1 1 1 1 1 
1 1 1 1 1 1 1 1 1 
1 1 1 1 1 1 1 1 1 
1 1 1 1 1 1 1 1 1 
1 1 1 1 1 1 1 1 1 
1 1 1 1 1 1 1 1 1 
1 1 1 1 1 1 1 1 1 
1 1 1 1 1 1 1 1 1 
1 1 1 1 1 1 1 1 1 
1 1 1 1 1 1 1 1 1 
1 1 1 1 1 1 1 1 1 
1 1 1 1 1 1 1 1 
i 3 719 int
0 0 0 0 0 0 0 0 0 
0 0 0 0 0 0 0 0 0 
0 0 0 0 0 0 0 0 0 
0 0 0 0 0 0 0 0 0 
0 0 0 0 0 0 0 0 0 
0 0 0 0 0 0 0 0 0 
0 0 0 0 0 0 0 0 0 
0 0 0 0 0 0 0 0 0 
0 0 0 0 0 0 0 0 0 
0 0 0 0 0 0 0 0 0 
0 0 0 0 0 0 0 0 0 
0 0 0 0 0 0 0 0 0 
0 0 0 0 0 0 0 0 0 
0 0 0 0 0 0 0 0 0 
0 0 0 0 0 0 0 0 0 
0 0 0 0 0 0 0 0 0 
0 0 0 0 0 0 0 0 0 
0 0 0 0 0 0 0 0 0 
0 0 0 0 0 0 0 0 0 
0 0 0 0 0 0 0 0 0 
0 0 0 0 0 0 0 0 0 
0 0 0 0 0 0 0 0 0 
0 0 0 0 0 0 0 0 0 
0 0 0 0 0 0 0 0 0 
0 0 0 0 0 0 0 0 0 
0 0 0 0 0 0 0 0 0 
0 0 0 0 0 0 0 0 0 
0 0 0 0 0 0 0 0 0 
0 0 0 0 0 0 0 0 0 
0 0 0 0 0 0 0 0 0 
0 0 0 0 0 0 0 0 0 
0 0 0 0 0 0 0 0 0 
0 0 0 0 0 0 0 0 0 
0 0 0 0 0 0 0 0 0 
0 0 0 0 0 0 0 0 0 
0 0 0 0 0 0 0 0 0 
0 0 0 0 0 0 0 0 0 
0 0 0 0 0 0 0 0 0 
0 0 0 0 0 0 0 0 0 
0 0 0 0 0 0 0 0 0 
0 0 0 0 0 0 0 0 0 
0 0 0 0 0 0 0 0 0 
0 0 0 0 0 0 0 0 0 
0 0 0 0 0 0 0 0 0 
0 0 0 0 0 0 0 0 0 
0 0 0 0 0 0 0 0 0 
0 0 0 0 0 0 0 0 0 
0 0 0 0 0 0 0 0 0 
0 0 0 0 0 0 0 0 0 
0 0 0 0 0 0 0 0 0 
0 0 0 0 0 0 0 0 0 
0 0 0 0 0 0 0 0 0 
0 0 0 0 0 0 0 0 0 
0 0 0 0 0 0 0 0 0 
0 0 0 0 0 0 0 0 0 
0 0 0 0 0 0 0 0 0 
0 0 0 0 0 0 0 0 0 
0 0 0 0 0 0 0 0 0 
0 0 0 0 0 0 0 0 0 
0 0 0 0 0 0 0 0 0 
0 0 0 0 0 0 0 0 0 
0 0 0 0 0 0 0 0 0 
0 0 0 0 0 0 0 0 0 
0 0 0 0 0 0 0 0 0 
0 0 0 0 0 0 0 0 0 
0 0 0 0 0 0 0 0 0 
0 0 0 0 0 0 0 0 0 
0 0 0 0 0 0 0 0 0 
0 0 0 0 0 0 0 0 0 
0 0 0 0 0 0 0 0 0 
0 0 0 0 0 0 0 0 0 
0 0 0 0 0 0 0 0 0 
0 0 0 0 0 0 0 0 0 
0 0 0 0 0 0 0 0 0 
0 0 0 0 0 0 0 0 0 
0 0 0 0 0 0 0 0 0 
0 0 0 0 0 0 0 0 0 
0 0 0 0 0 0 0 0 0 
0 0 0 0 0 0 0 0 0 
0 0 0 0 0 0 0 0 0 
0 0 0 0 0 0 0 0 0 
0 0 0 0 0 0 0 0 0 
0 0 0 0 0 0 0 0 0 
0 0 0 0 0 0 0 0 0 
0 0 0 0 0 0 0 0 0 
0 0 0 0 0 0 0 0 0 
0 0 0 0 0 0 0 0 0 
0 0 0 0 0 0 0 0 0 
0 0 0 0 0 0 0 0 0 
0 0 0 0 0 0 0 0 0 
0 0 0 0 0 0 0 0 0 
0 0 0 0 0 0 0 0 0 
0 0 0 0 0 0 0 0 0 
0 0 0 0 0 0 0 0 0 
0 0 0 0 0 0 0 0 0 
0 0 0 0 0 0 0 0 0 
0 0 0 0 0 0 0 0 0 
0 0 0 0 0 0 0 0 0 
0 0 0 0 0 0 0 0 0 
0 0 0 0 0 0 0 0 0 
0 0 0 0 0 0 0 0 0 
0 0 0 0 0 0 0 0 0 
0 0 0 0 0 0 0 0 0 
0 0 0 0 0 0 0 0 0 
0 0 0 0 0 0 0 0 0 
0 0 0 0 0 0 0 0 0 
0 0 0 0 0 0 0 0 0 
0 0 0 0 0 0 0 0 0 
0 0 0 0 0 0 0 0 0 
0 0 0 0 0 0 0 0 0 
0 0 0 0 0 0 0 0 0 
0 0 0 0 0 0 0 0 0 
0 0 0 0 0 0 0 0 0 
0 0 0 0 0 0 0 0 0 
0 0 0 0 0 0 0 0 0 
0 0 0 0 0 0 0 0 0 
0 0 0 0 0 0 0 0 0 
0 0 0 0 0 0 0 0 0 
0 0 0 0 0 0 0 0 0 
0 0 0 0 0 0 0 0 0 
0 0 0 0 0 0 0 0 0 
0 0 0 0 0 0 0 0 0 
0 0 0 0 0 0 0 0 0 
0 0 0 0 0 0 0 0 0 
0 0 0 0 0 0 0 0 0 
0 0 0 0 0 0 0 0 0 
0 0 0 0 0 0 0 0 0 
0 0 0 0 0 0 0 0 0 
0 0 0 0 0 0 0 0 0 
0 0 0 0 0 0 0 0 0 
0 0 0 0 0 0 0 0 0 
0 0 0 0 0 0 0 0 0 
0 0 0 0 0 0 0 0 0 
0 0 0 0 0 0 0 0 0 
0 0 0 0 0 0 0 0 0 
0 0 0 0 0 0 0 0 0 
0 0 0 0 0 0 0 0 0 
0 0 0 0 0 0 0 0 0 
0 0 0 0 0 0 0 0 0 
0 0 0 0 0 0 0 0 0 
0 0 0 0 0 0 0 0 0 
0 0 0 0 0 0 0 0 0 
0 0 0 0 0 0 0 0 0 
0 0 0 0 0 0 0 0 0 
0 0 0 0 0 0 0 0 0 
0 0 0 0 0 0 0 0 0 
0 0 0 0 0 0 0 0 0 
0 0 0 0 0 0 0 0 0 
0 0 0 0 0 0 0 0 0 
0 0 0 0 0 0 0 0 0 
0 0 0 0 0 0 0 0 0 
0 0 0 0 0 0 0 0 0 
0 0 0 0 0 0 0 0 0 
0 0 0 0 0 0 0 0 0 
0 0 0 0 0 0 0 0 0 
0 0 0 0 0 0 0 0 0 
0 0 0 0 0 0 0 0 0 
0 0 0 0 0 0 0 0 0 
0 0 0 0 0 0 0 0 0 
0 0 0 0 0 0 0 0 0 
0 0 0 0 0 0 0 0 0 
0 0 0 0 0 0 0 0 0 
0 0 0 0 0 0 0 0 0 
0 0 0 0 0 0 0 0 0 
0 0 0 0 0 0 0 0 0 
0 0 0 0 0 0 0 0 0 
0 0 0 0 0 0 0 0 0 
0 0 0 0 0 0 0 0 0 
0 0 0 0 0 0 0 0 0 
0 0 0 0 0 0 0 0 0 
0 0 0 0 0 0 0 0 0 
0 0 0 0 0 0 0 0 0 
0 0 0 0 0 0 0 0 0 
0 0 0 0 0 0 0 0 0 
0 0 0 0 0 0 0 0 0 
0 0 0 0 0 0 0 0 0 
0 0 0 0 0 0 0 0 0 
0 0 0 0 0 0 0 0 0 
0 0 0 0 0 0 0 0 0 
0 0 0 0 0 0 0 0 0 
0 0 0 0 0 0 0 0 0 
0 0 0 0 0 0 0 0 0 
0 0 0 0 0 0 0 0 0 
0 0 0 0 0 0 0 0 0 
0 0 0 0 0 0 0 0 0 
0 0 0 0 0 0 0 0 0 
0 0 0 0 0 0 0 0 0 
0 0 0 0 0 0 0 0 0 
0 0 0 0 0 0 0 0 0 
0 0 0 0 0 0 0 0 0 
0 0 0 0 0 0 0 0 0 
0 0 0 0 0 0 0 0 0 
0 0 0 0 0 0 0 0 0 
0 0 0 0 0 0 0 0 0 
0 0 0 0 0 0 0 0 0 
0 0 0 0 0 0 0 0 0 
0 0 0 0 0 0 0 0 0 
0 0 0 0 0 0 0 0 0 
0 0 0 0 0 0 0 0 0 
0 0 0 0 0 0 0 0 0 
0 0 0 0 0 0 0 0 0 
0 0 0 0 0 0 0 0 0 
0 0 0 0 0 0 0 0 0 
0 0 0 0 0 0 0 0 0 
0 0 0 0 0 0 0 0 0 
0 0 0 0 0 0 0 0 0 
0 0 0 0 0 0 0 0 0 
0 0 0 0 0 0 0 0 0 
0 0 0 0 0 0 0 0 0 
0 0 0 0 0 0 0 0 0 
0 0 0 0 0 0 0 0 0 
0 0 0 0 0 0 0 0 0 
0 0 0 0 0 0 0 0 0 
0 0 0 0 0 0 0 0 0 
0 0 0 0 0 0 0 0 0 
0 0 0 0 0 0 0 0 0 
0 0 0 0 0 0 0 0 0 
0 0 0 0 0 0 0 0 0 
0 0 0 0 0 0 0 0 0 
0 0 0 0 0 0 0 0 0 
0 0 0 0 0 0 0 0 0 
0 0 0 0 0 0 0 0 0 
0 0 0 0 0 0 0 0 0 
0 0 0 0 0 0 0 0 0 
0 0 0 0 0 0 0 0 0 
0 0 0 0 0 0 0 0 0 
0 0 0 0 0 0 0 0 0 
0 0 0 0 0 0 0 0 0 
0 0 0 0 0 0 0 0 0 
0 0 0 0 0 0 0 0 0 
0 0 0 0 0 0 0 0 0 
0 0 0 0 0 0 0 0 0 
0 0 0 0 0 0 0 0 0 
0 0 0 0 0 0 0 0 0 
0 0 0 0 0 0 0 0 0 
0 0 0 0 0 0 0 0 0 
0 0 0 0 0 0 0 0 0 
0 0 0 0 0 0 0 0 0 
0 0 0 0 0 0 0 0 0 
0 0 0 0 0 0 
v 3 719 double
0 0 -1 -1.28523 -0.041963 -1.78168 0 0 -1 
-1.40329 -0.151216 -1.78542 -1.29447 -0.0102819 -1.7577 -1.05489 0.35516 -2.05244 
-1.29435 0.223299 -1.70442 -1.30627 -0.0249384 -1.69178 -1.29539 0.0619969 -1.64433 
-1.30976 -0.0504093 -1.62174 -1.24968 -0.0603932 -1.59202 -1.31046 -0.0406686 -1.6117 
-1.35161 -0.0860827 -1.64061 -1.14598 0.0397467 -1.49294 -1.24054 0.158113 -1.53114 
-1.25453 0.15366 -1.46004 -1.15852 -0.00366611 -1.38489 -1.26391 -0.022145 -1.39021 
-1.25545 0.0607519 -1.36776 -1.29111 0.108538 -1.34526 -1.1754 0.0941172 -1.31302 
-1.10742 -0.415567 -1.5022 -1.31252 0.0560466 -1.30935 -1.03567 0.00503888 -1.2372 
-1.16904 0.0606071 -1.23187 -1.27288 0.103865 -1.25523 -1.29371 0.114281 -1.21967 
-1.20862 -0.0337326 -1.21766 -1.29017 0.0193838 -1.21537 -1.127 0.00706554 -1.12012 
-1.17719 0.0576446 -1.14559 -1.11982 0.054048 -1.13159 -1.39897 0.113604 -1.21577 
-1.25129 0.122772 -1.0957 -1.18765 0.0540333 -1.0904 -1.19603 0.0530832 -1.08803 
-1.16776 0.0724586 -1.03533 -1.18543 0.0175571 -1.0348 -1.17839 0.0211692 -1.03746 
-1.24546 0.0513306 -0.956344 -1.26834 -0.0207936 -1.06512 -1.23072 0.093899 -0.947283 
-1.18361 -0.0528103 -0.978834 -1.04352 -0.042083 -0.983344 -1.19366 0.102042 -0.954028 
-1.10253 -0.0562905 -0.886323 -1.2655 -0.225398 -1.01632 -1.10183 0.0117228 -0.827024 
-1.22027 -0.376045 -0.950473 -1.15886 -0.0318438 -0.794471 -1.13363 -0.0393364 -0.76914 
-0.998737 -0.0314326 -0.786041 -1.09743 -0.0519123 -0.724641 -1.10511 -0.0595757 -0.758679 
-1.23894 -0.418897 -1.12402 -1.25969 0.271701 -0.75052 -1.11191 -0.00221238 -0.662399 
-1.05582 -0.0413377 -0.692797 -1.12424 -0.0138933 -0.700951 -1.12779 0.0325185 -0.680376 
-1.13017 0.00827489 -0.654957 -1.14839 0.0644095 -0.615385 -1.21845 -0.263145 -0.56415 
-1.15909 0.0515286 -0.613705 -1.05865 -0.0476699 -0.500502 -1.24372 -0.158218 -0.632316 
-1.22725 -0.0591901 -0.639157 -1.13854 0.0542655 -0.501934 -1.11306 0.100993 -0.460809 
-1.11105 0.0381446 -0.502069 -1.11481 0.0505688 -0.476138 -1.12681 -0.130191 -0.523952 
-1.12249 -0.100296 -0.49385 -1.18335 -0.261397 -0.616743 -1.17167 -0.121792 -0.537809 
-1.10418 0.0599509 -0.468904 -1.1603 0.0539515 -0.462518 -1.12561 0.11259 -0.499001 
-1.08504 0.0355083 -0.454987 -1.08986 0.0464772 -0.446466 -1.22025 -0.0404477 -0.517283 
-1.32046 -0.122847 -0.675455 -1.01191 0.0527894 -0.398629 -0.981328 0.130842 -0.458318 
-1.0827 0.15771 -0.500215 -1.12507 0.126267 -0.476583 -1.00997 0.0978391 -0.414624 
-0.955236 -0.00359045 -0.379449 -0.957684 -0.00237818 -0.386125 -1.05558 0.102999 -0.449204 
-1.17877 -0.0273135 -0.498555 -1.04329 0.0139404 -0.438856 -1.09186 -0.0863902 -0.465541 
-1.03495 0.0307039 -0.434109 -1.07157 -0.0557929 -0.455828 -1.11476 -0.0388715 -0.472986 
-1.10688 0.0521551 -0.47961 -1.10313 0.044643 -0.49173 -0.969935 -0.0800536 -0.403457 
-0.90898 0.00460091 -0.382875 -1.05204 0.0672759 -0.446409 -1.01559 0.0703621 -0.42357 
-1.04541 -0.0552171 -0.444768 -1.06654 0.153568 -0.440567 -1.14512 0.00737692 -0.436268 
-1.10155 0.10672 -0.457311 -1.04091 0.0555734 -0.441324 -1.14735 0.117844 -0.500601 
-1.16678 0.063445 -0.497192 -1.01046 -0.119141 -0.432578 -1.07659 -0.141896 -0.45248 
-1.1006 -0.148919 -0.461194 -1.09247 0.173925 -0.525947 -0.923833 0.0917925 -0.395518 
-0.915428 -0.00938859 -0.375162 -0.94887 -0.00610967 -0.383766 -0.915633 0.104353 -0.383806 
-0.999542 0.030146 -0.411369 -0.975865 0.0100733 -0.416609 -1.01991 -0.0844298 -0.43036 
-1.12735 -0.343244 -0.556559 -0.960547 0.0276402 -0.384089 -0.85278 -0.0718698 -0.342683 
-0.903352 0.00462834 -0.377435 -0.914737 0.0490594 -0.392144 -0.976709 0.0587055 -0.41577 
-0.910399 0.00443475 -0.358964 -0.879296 0.155376 -0.377663 -0.894939 0.156776 -0.380294 
-0.834039 0.0904012 -0.350369 -0.985689 -0.0239169 -0.357199 -1.00446 -0.172304 -0.434338 
-0.928561 -0.0683565 -0.406677 -1.0351 -0.0728485 -0.469817 -1.32811 0.0484367 -0.26114 
-0.881718 0.0902918 -0.39065 -1.00436 0.196399 -0.442648 -1.05804 -0.013515 -0.439661 
-1.13783 0.10261 -0.488029 -0.916966 0.0482083 -0.386944 -0.92523 -0.168974 -0.384467 
-0.880938 0.0747346 -0.382279 -0.814984 -0.0357786 -0.324227 -0.789617 -0.121081 -0.33582 
-0.844662 -0.103369 -0.357762 -0.85596 -0.0725534 -0.37294 -0.908796 -0.0829887 -0.389946 
-0.938114 -0.0911035 -0.410457 -0.980004 -0.116153 -0.419808 -1.26907 -0.0995053 -0.3904 
-1.15681 0.0831706 -0.530636 -1.05496 0.0372747 -0.454605 -0.905352 0.0559264 -0.382544 
-0.728651 -0.043008 -0.303819 -1.10982 0.0171418 -0.282423 -0.930025 -0.0145039 -0.435963 
-0.880331 -0.0247691 -0.376338 -0.997704 -0.168573 -0.432822 -1.02603 0.0506311 -0.416185 
-1.03813 0.00026177 -0.419731 -0.919627 0.0214321 -0.406997 -0.923545 0.0437016 -0.411043 
-0.924687 0.00612687 -0.400977 -0.711216 0.00147709 -0.317682 -0.775021 -0.00539105 -0.329636 
-0.927141 -0.0371501 -0.397997 -0.987013 -0.145656 -0.450807 -1.07107 0.0557554 -0.431078 
-0.922894 0.120774 -0.342916 -0.722537 -0.0292512 -0.313271 -0.952831 0.0536277 -0.293102 
-1.01016 0.070424 -0.413326 -0.984619 -0.0332048 -0.412756 -0.815865 -0.230882 -0.511109 
-1.03773 -0.159499 -0.462904 -1.00369 0.36467 -0.484941 -1.0358 0.0254052 -0.429031 
-0.907534 -0.0423743 -0.354461 -0.840575 -0.0379659 -0.355999 -0.848037 0.00949071 -0.36329 
-0.9246 0.0722638 -0.39217 -0.864708 -0.035699 -0.304537 -0.804229 -0.0193843 -0.340891 
-0.687581 0.0327979 -0.292073 -0.939607 -0.109447 -0.404556 -0.895324 -0.107175 -0.384516 
-0.863464 -0.144834 -0.371833 -0.881791 -0.0243013 -0.309837 -0.915851 0.105766 -0.3466 
-0.856201 0.48064 -0.461755 -0.671018 0.0195345 -0.289258 -0.769861 0.0476989 -0.323144 
-0.973744 -0.0260149 -0.417517 -0.886773 0.00496911 -0.37922 -0.849349 0.0910842 -0.380422 
-0.874533 -0.0168145 -0.375568 -0.892193 -0.0704626 -0.388023 -0.9833 -0.0194498 -0.416691 
-1.01719 -0.143539 -0.419719 -0.997631 -0.169 -0.473201 -1.02573 0.374463 -0.588954 
-0.8479 -0.0424896 -0.553198 -0.849035 -0.0489327 -0.346119 -0.915013 -0.0283306 -0.378819 
-0.844 0.0683928 -0.23798 -1.1851 -0.0999163 -0.143529 -0.843915 -0.00701915 -0.361421 
-0.84255 -0.00623752 -0.360562 -1.07412 0.0596992 -0.424329 -1.01919 -0.159466 -0.399089 
-0.813047 -0.0113527 -0.385849 -0.809659 0.0222525 -0.337252 -0.869257 0.00948647 -0.361451 
-0.696895 0.0854911 -0.296619 -0.905339 0.137259 -0.35446 -0.92995 0.0559375 -0.395938 
-0.925118 0.0663838 -0.390223 -0.838739 0.0734996 -0.355032 -1.02345 -0.127711 -0.301575 
-0.781526 -0.0184942 -0.334863 -0.730839 0.00165492 -0.308297 -0.881311 0.133244 -0.360919 
-0.57446 -0.0174669 -0.235558 -0.651252 0.0456611 -0.274283 -0.952936 0.0943762 -0.986443 
-1.38782 0.160646 -0.315177 -0.955752 0.0424996 -0.386619 -1.06194 -0.0502143 -0.394227 
-1.07738 0.0486315 -0.442274 -0.707166 -0.0730429 -0.282152 -0.898186 0.00438198 -0.371399 
-0.766544 0.0201266 -0.330141 -0.944784 -0.0979989 -0.19255 -0.588157 0.0528642 -0.247205 
-0.711507 -0.154335 -0.294941 -0.692451 0.179587 -0.272564 -0.626334 0.00538497 -0.213777 
-0.616916 0.119137 -0.246894 -1.04015 -0.101294 -0.469703 -0.700756 -0.196259 -0.242114 
-0.819194 0.0393819 -0.335738 -0.732733 -0.110004 -0.252765 -1.09453 -0.104222 -0.229438 
-0.718371 -0.0331355 -0.308157 -0.663375 -0.114326 -0.272593 -0.729762 -0.0247015 -0.312199 
-0.840946 -0.0792596 -0.363622 -0.806038 -0.0858369 -0.356311 -0.867346 0.000536313 -0.362232 
-0.8641 0.00832516 -0.360806 -0.774916 0.0694819 -0.305825 -0.846261 0.104233 -0.37432 
-0.693869 0.0401837 -0.290786 -0.752344 -0.0131793 -0.293233 -0.685347 -0.0447783 -0.296845 
-0.62458 -0.00387591 -0.265944 -0.645541 -0.0103085 -0.266206 -0.724007 0.0183372 -0.295323 
-0.825495 0.0680076 -0.33472 -0.828678 -0.0147029 -0.348455 -0.924778 0.124557 -0.659739 
-1.02646 -0.157965 -0.22387 -0.52655 -0.0386178 -0.22307 -0.509776 0.0076857 -0.218389 
-0.524624 -0.0248988 -0.216163 -0.501492 0.00192282 -0.206321 -0.687811 0.0102615 -0.297848 
-0.574841 0.119638 -0.256793 -0.809845 -0.0443363 -0.337273 -0.918015 0.0158904 -0.380957 
-0.887256 0.025796 -0.361123 -0.714197 -0.0583788 -0.305496 -0.698329 -0.17807 -0.402473 
-0.895806 0.239736 -0.465768 -0.73567 0.154269 -0.335239 -0.620311 0.0844731 -0.263917 
-0.488491 0.126187 -0.229772 -1.03939 -0.317129 -0.814692 -0.712587 0.00973924 -0.296351 
-1.02782 -0.0141591 -0.213927 -0.757912 -0.0502315 -0.258859 -0.551081 0.00851392 -0.228708 
-0.552517 0.000793503 -0.234277 -0.699608 -0.0821238 -0.643416 -0.599884 0.104419 -0.245667 
-0.854362 0.0550904 -0.384149 -0.758869 -0.0483712 -0.269725 -0.886587 0.0442179 -0.824849 
-0.678533 0.0317138 -0.285122 -0.876022 0.064561 -0.348927 -0.922626 0.0723537 -0.349095 
-0.884458 0.021122 -0.364439 -0.752427 0.595592 -0.598311 -0.78902 0.0219809 -0.341085 
-0.915945 -0.328963 -0.585949 -0.651154 -0.0471953 -0.27334 -0.690778 0.0278691 -0.287145 
-0.702765 0.0714856 -0.297084 -1.00437 -0.228483 -0.92459 -0.637362 0.0588741 -0.267506 
-0.731061 0.0184531 -0.360733 -0.651966 0.101243 -0.282387 -0.846124 -0.0503058 -0.223434 
-0.817624 -0.00628885 -0.329337 -0.880706 0.156768 -0.6655 -0.67505 0.0202889 -0.271697 
-0.65179 -0.121497 -0.263451 -0.834587 0.039203 -0.162863 -0.723053 -0.0322196 -0.241115 
-0.76794 -0.000237095 -0.469684 -0.675101 0.00477207 -0.27589 -0.773662 0.0703629 -0.3177 
-0.587723 0.0525129 -0.275246 -0.775903 0.000982405 -0.332127 -0.66216 -0.025436 -0.28149 
-0.697192 0.0449188 -0.301702 -0.776929 0.114608 -0.317414 -1.28136 -0.273859 -0.141392 
-0.704777 0.0211662 -0.305792 -0.631404 0.128932 -0.26532 -0.828071 0.0957783 -0.504783 
-0.770823 -0.141271 -0.46037 -0.731214 0.0617274 -0.283025 -0.745545 0.00347645 -0.328025 
-0.62653 0.16499 -0.272862 -0.63569 0.0526476 -0.277035 -0.783817 -0.0219916 -0.322036 
-0.885587 0.068654 -0.275267 -0.738661 0.107659 -0.230207 -0.89845 -0.25451 -0.434012 
-0.742533 -0.141871 -0.33726 -0.829303 0.206767 -0.234021 -0.991794 -0.118169 -0.317891 
-0.862831 -0.0863624 -0.307221 -0.394045 0.100274 -0.228086 -0.65449 -0.217123 -0.223788 
-0.633964 0.0322634 -0.239328 -0.907609 0.0481727 -0.404583 -0.759409 0.17898 -0.294091 
-0.666558 0.123167 -0.458433 -0.865497 -0.184661 -0.478289 -0.735905 -0.0217371 -0.349048 
-0.701983 -0.0297121 -0.289793 -0.757624 -0.0301211 -0.32749 -0.705922 -0.145794 -0.318754 
-0.722091 -0.126975 -0.337276 -0.698564 -0.130924 -0.328839 -0.649301 -0.0600431 -0.244537 
-0.852564 0.0822905 -0.473653 -0.68583 -0.167074 -0.279022 -0.727299 0.11074 -0.305692 
-0.687224 -0.00406072 -0.289066 -0.770235 0.00702956 -0.331433 -0.78787 0.0356803 -0.327888 
-0.770147 0.0728245 -0.320441 -0.928313 0.283547 -0.320247 -0.969472 0.0570187 -0.378552 
-0.9417 -0.133719 -0.272033 -0.723167 -0.0691498 -0.276326 -0.698243 -0.034857 -0.287545 
-0.549129 -0.00933064 -0.303387 -0.641676 -0.0475109 -0.269432 -0.785968 -0.0584586 -0.408283 
-1.08196 0.0118745 -0.442126 -0.938465 -0.191257 -0.267601 -0.603848 0.0349689 -0.242371 
-0.636846 -0.0457336 -0.270553 -0.835026 -0.213938 -0.276076 -0.988018 0.219018 -0.554796 