# vtk DataFile Version 4.0
Generated by LIGGGHTS
ASCII
DATASET POLYDATA
POINTS 511 float
-0.38687 0.0584142 -0.24538 -0.333793 -0.026736 -0.243022 -0.338818 0.0442711 -0.238032 
-0.308894 -0.00374957 -0.235174 -0.280759 -0.00890178 -0.224147 -0.2794 0.00404231 -0.223704 
-0.272398 -0.0169186 -0.219753 -0.276044 -0.0115386 -0.220792 -0.275333 -0.00769589 -0.221966 
-0.27318 0.0030331 -0.221176 -0.262265 0.0101234 -0.215131 -0.252954 0.0102208 -0.212308 
-0.249285 0.0022192 -0.209999 -0.247146 0.0099208 -0.20988 -0.253262 0.0160455 -0.211687 
-0.259235 -0.0378185 -0.207831 -0.250779 -0.0381414 -0.205513 -0.241075 -0.00967674 -0.2073 
-0.239554 -0.00536706 -0.206955 -0.243744 0.0150162 -0.207835 -0.243315 0.0192135 -0.205967 
-0.292056 0.0648105 -0.206152 -0.234025 -0.00302195 -0.203654 -0.242496 0.0357022 -0.203041 
-0.22654 -0.00419954 -0.200457 -0.222609 0.00394626 -0.19976 -0.223877 0.0115861 -0.199919 
-0.225097 -0.0296545 -0.196276 -0.218254 -0.014637 -0.196064 -0.213374 -0.00429768 -0.195979 
-0.214724 0.00125201 -0.195967 -0.23686 -0.0523654 -0.193984 -0.209379 -0.0230426 -0.191237 
-0.204777 -0.0175777 -0.191136 -0.212698 -0.0136094 -0.19382 -0.209768 -0.00869795 -0.193066 
-0.204802 -0.00459667 -0.192328 -0.203549 -0.00158576 -0.191796 -0.201237 0.00173541 -0.190812 
-0.205616 0.0130565 -0.190918 -0.203925 -0.0264911 -0.188192 -0.197537 -0.0158843 -0.188271 
-0.199842 -0.00793537 -0.190107 -0.200077 -0.00205379 -0.189221 -0.19777 0.00287773 -0.188243 
-0.193671 0.00189682 -0.187613 -0.192193 -0.021634 -0.185313 -0.192139 -0.0175486 -0.185777 
-0.188533 -0.0173265 -0.184315 -0.19616 -0.00229044 -0.186133 -0.185582 0.000914132 -0.184217 
-0.190076 0.00544928 -0.185065 -0.190254 0.013718 -0.184374 -0.183805 -0.00487431 -0.183367 
-0.18009 -0.000547748 -0.180785 -0.184769 0.00508902 -0.182845 -0.179989 0.00535698 -0.181764 
-0.185359 0.0201488 -0.181723 -0.176063 -0.0281479 -0.177432 -0.172105 -0.0194846 -0.177018 
-0.175377 -0.0146148 -0.178156 -0.170686 -0.0152998 -0.177247 -0.171668 -0.0105568 -0.176975 
-0.168287 -0.00777276 -0.176852 -0.170813 -0.00466544 -0.177939 -0.170663 -0.000754593 -0.176853 
-0.180131 0.00948021 -0.180068 -0.17538 0.00709224 -0.179771 -0.190511 0.0128074 -0.179228 
-0.19217 0.0215002 -0.176749 -0.16515 -0.0183156 -0.174561 -0.162024 -0.0167005 -0.173436 
-0.167429 -0.0119807 -0.176126 -0.160401 -0.00796969 -0.173503 -0.166838 -0.00420656 -0.175229 
-0.166489 -0.000172709 -0.176214 -0.160562 0.000362301 -0.173648 -0.166874 0.00813191 -0.173901 
-0.166572 0.0155285 -0.175366 -0.169254 0.0257158 -0.174967 -0.164306 -0.0384095 -0.17014 
-0.155782 -0.0118977 -0.171298 -0.152801 -0.0104235 -0.170109 -0.15849 -0.00467808 -0.171736 
-0.161531 0.0124502 -0.172453 -0.157251 0.0153651 -0.169654 -0.179925 0.0483124 -0.170912 
-0.229382 0.0786932 -0.172811 -0.163001 -0.0444898 -0.167661 -0.15586 -0.0380464 -0.166784 
-0.155645 -0.0183648 -0.169425 -0.148054 -0.0210901 -0.167047 -0.143447 -0.0120078 -0.166036 
-0.147164 -0.00757038 -0.166563 -0.154153 -0.00566148 -0.168557 -0.164036 0.000639414 -0.167788 
-0.151887 0.00157712 -0.169967 -0.146303 0.00130192 -0.167655 -0.146528 0.00797337 -0.167593 
-0.149821 0.0258366 -0.166928 -0.15965 0.0410587 -0.167316 -0.277431 -0.0866964 -0.165931 
-0.146887 -0.0270213 -0.165522 -0.145306 -0.0229805 -0.164457 -0.151442 -0.0151311 -0.166616 
-0.144586 -0.0165379 -0.164953 -0.139759 -0.0140355 -0.163216 -0.134629 -0.00765745 -0.162639 
-0.139077 7.05809e-05 -0.16427 -0.14019 0.0033745 -0.165029 -0.136101 0.00993761 -0.162898 
-0.142594 0.013581 -0.165539 -0.136314 0.0135454 -0.16295 -0.146499 0.0336032 -0.163967 
-0.174886 0.0582337 -0.165892 -0.135949 -0.0363526 -0.159007 -0.134126 -0.0118286 -0.161139 
-0.131492 -0.0013308 -0.161484 -0.131281 0.0020999 -0.161403 -0.134719 0.00630573 -0.160635 
-0.131891 0.0116742 -0.160093 -0.127663 0.0106178 -0.159404 -0.133829 0.0147455 -0.161768 
-0.142123 0.0293083 -0.162123 -0.13456 0.0286836 -0.158984 -0.13813 -0.0407897 -0.157369 
-0.124253 -0.024307 -0.155443 -0.138091 -0.0125059 -0.158511 -0.128662 -0.0142968 -0.158568 
-0.128126 -0.00827881 -0.158785 -0.12153 -0.00815554 -0.156739 -0.127102 -0.00372498 -0.15759 
-0.128259 0.000414541 -0.158837 -0.135078 0.00386894 -0.155866 -0.127911 0.023167 -0.158168 
-0.124546 0.0238924 -0.155584 -0.129744 0.0278925 -0.158246 -0.131461 0.0311406 -0.15829 
-0.118486 -0.0330492 -0.152487 -0.120317 -0.0235493 -0.154986 -0.11893 -0.0164516 -0.154304 
-0.117409 -0.0108878 -0.154062 -0.113654 -0.0125539 -0.153446 -0.127193 -0.00774524 -0.154928 
-0.118823 -0.00344803 -0.155025 -0.116022 0.00809718 -0.153608 -0.114062 0.0160335 -0.153338 
-0.117623 0.0303951 -0.152755 -0.122339 0.0339715 -0.153857 -0.139988 -0.0609352 -0.151952 
-0.111898 -0.0181462 -0.151113 -0.107552 -0.01169 -0.150938 -0.104247 -0.0104527 -0.149627 
-0.106972 -0.00502579 -0.150037 -0.104012 -0.00115328 -0.148721 -0.126199 0.00254852 -0.148457 
-0.104842 0.00884546 -0.149987 -0.111698 0.0112655 -0.151594 -0.107179 0.0125384 -0.14959 
-0.11436 0.0199668 -0.151906 -0.112706 0.0242914 -0.151629 -0.114383 0.0301728 -0.150367 
-0.132609 0.0587791 -0.148892 -0.172766 0.0820166 -0.151177 -0.0968624 -0.0190961 -0.145748 
-0.102015 -0.0129791 -0.147438 -0.0981954 -0.0113148 -0.147011 -0.0929307 -0.011694 -0.144784 
-0.102347 -0.00733943 -0.14793 -0.095147 -0.00191883 -0.14614 -0.100718 0.000573389 -0.146166 
-0.0946924 0.00184813 -0.144771 -0.102565 0.0118352 -0.147723 -0.0964443 0.0128038 -0.145055 
-0.112807 0.0252282 -0.145976 -0.116244 0.0435222 -0.147868 -0.0956001 -0.0217539 -0.144807 
-0.0924788 -0.0218318 -0.143538 -0.0927077 -0.0163092 -0.143261 -0.089985 -0.0122849 -0.141945 
-0.10499 -0.00515136 -0.144037 -0.0842807 -0.00571747 -0.141452 -0.0981009 -0.00301029 -0.144854 
-0.0905779 0.00185689 -0.143155 -0.0855793 -7.01006e-05 -0.142098 -0.101325 0.0059671 -0.1429 
-0.0868103 0.0056817 -0.142058 -0.0837241 0.00795525 -0.141202 -0.105944 0.0124419 -0.144195 
-0.0860939 0.0138261 -0.141642 -0.0892762 0.0141137 -0.143032 -0.0880829 0.0167863 -0.142274 
-0.0941569 0.0330519 -0.142434 -0.100331 0.0357455 -0.144332 -0.0980161 0.038264 -0.141834 
-0.112259 0.0550954 -0.140676 -0.0855986 -0.0258434 -0.139095 -0.0875125 -0.0229015 -0.141332 
-0.0793416 -0.0231539 -0.137782 -0.0829142 -0.0207535 -0.139673 -0.0832781 -0.00286689 -0.141071 
-0.0911643 0.00413491 -0.140661 -0.0840213 0.00338119 -0.140278 -0.0802518 0.00463872 -0.139738 
-0.0819326 0.0102509 -0.140276 -0.0808178 0.0127406 -0.138875 -0.0814495 0.0260419 -0.137947 
-0.0923119 0.0436959 -0.139079 -0.0812958 -0.0354927 -0.136509 -0.0824151 -0.0213496 -0.135609 
-0.0705587 -0.0154313 -0.135118 -0.0770262 -0.0104458 -0.137129 -0.069267 -0.0127429 -0.134781 
-0.0753412 -0.00527498 -0.136464 -0.0818732 0.00753566 -0.137361 -0.0768727 0.00789763 -0.137208 
-0.0707451 0.0111595 -0.135484 -0.0771465 0.0167548 -0.136176 -0.0795326 0.0319459 -0.136531 
-0.0924857 -0.059807 -0.133531 -0.0639586 -0.0274971 -0.130854 -0.0604276 -0.0164262 -0.130607 
-0.0790949 -0.00725529 -0.134436 -0.0625226 -0.00829956 -0.132152 -0.0991326 -0.00581917 -0.131724 
-0.0679735 -0.00575709 -0.133478 -0.0611891 -0.00443028 -0.131762 -0.0702056 0.00569325 -0.133676 
-0.0615389 0.00367146 -0.130806 -0.0636661 0.0102583 -0.132622 -0.0681826 0.0119265 -0.134093 
-0.0654654 0.0127164 -0.133042 -0.0613525 0.0118405 -0.131436 -0.0654068 0.0157846 -0.132822 
-0.106489 -0.0789061 -0.129405 -0.0953465 -0.0748614 -0.127499 -0.0709453 -0.0364562 -0.128856 
-0.0540168 -0.0230289 -0.12727 -0.0530805 -0.0182243 -0.127427 -0.0623101 -0.017001 -0.126929 
-0.0538458 -0.0153099 -0.128088 -0.0615631 -0.00786064 -0.128647 -0.0572678 -0.00906394 -0.129886 
-0.0546876 -0.00796072 -0.128733 -0.065125 -0.00306785 -0.130444 -0.0543499 -0.00353102 -0.127746 
-0.0696948 -0.000691416 -0.129471 -0.0582117 0.00113781 -0.1299 -0.0873147 0.0068836 -0.12842 
-0.0578224 0.00772841 -0.129143 -0.0525624 0.00889249 -0.127688 -0.0555292 0.0112093 -0.129122 
-0.0555237 0.020826 -0.128239 -0.0842706 0.0282287 -0.130398 -0.0703005 0.0412289 -0.130577 
-0.0499247 -0.017275 -0.12513 -0.0458421 -0.0176381 -0.124042 -0.0668296 -0.0151305 -0.124629 
-0.0456362 -0.0129569 -0.124812 -0.0515113 -0.00767953 -0.126262 -0.0752945 0.00063658 -0.125121 
-0.0599634 0.00401038 -0.125427 -0.0485122 0.00660489 -0.12625 -0.044037 0.0136202 -0.124101 
-0.0570985 0.0277297 -0.124417 -0.0552112 0.0332366 -0.126162 -0.0654496 0.0393394 -0.127545 
-0.066278 -0.065471 -0.120737 -0.0450784 -0.0207801 -0.120599 -0.055613 -0.0134062 -0.121244 
-0.0354625 -0.0132646 -0.12051 -0.0438933 -0.00743487 -0.122231 -0.0361973 -0.00391976 -0.121129 
-0.0582133 0.00431265 -0.122832 -0.0642234 0.00782447 -0.122859 -0.0569961 0.00914294 -0.121393 
-0.0413442 0.0129542 -0.12103 -0.0559116 0.0157419 -0.123212 -0.049627 0.0236094 -0.123042 
-0.0462382 0.0332557 -0.122023 -0.0507618 0.0372962 -0.122172 -0.0735518 -0.0250502 -0.11818 
-0.0478203 -0.0246211 -0.118516 -0.0574575 -0.0251696 -0.117908 -0.0547415 -0.0193781 -0.118024 
-0.0749177 -0.0150919 -0.120347 -0.0332634 -0.0148755 -0.119211 -0.0473051 -0.0115644 -0.118599 
-0.0311322 -0.0118035 -0.11879 -0.0357947 -0.0063574 -0.119359 -0.0300645 -0.00573705 -0.117481 
-0.0407217 0.00216262 -0.119638 -0.0339363 -0.000174026 -0.118855 -0.0672236 0.00631516 -0.120223 
-0.0290103 0.00542429 -0.118204 -0.0358505 0.00996604 -0.118154 -0.0309551 0.0124697 -0.116934 
-0.0364319 0.0163908 -0.119018 -0.0409388 0.0351955 -0.119856 -0.0463691 0.0498048 -0.118474 
-0.0348645 -0.0349931 -0.114723 -0.0330882 -0.0184451 -0.113004 -0.0632641 -0.0146069 -0.113789 
-0.0441989 -0.0129188 -0.11669 -0.055502 -0.00854396 -0.115916 -0.03516 -0.00802206 -0.113306 
-0.0410176 0.000112061 -0.114622 -0.0198961 -0.00327336 -0.114429 -0.0472899 0.00181906 -0.114905 
-0.0340239 0.00335389 -0.116309 -0.0189872 0.0069645 -0.113442 -0.0651803 0.0129588 -0.115358 
-0.0229528 0.0116784 -0.114892 -0.0303288 0.0178514 -0.114317 -0.023083 0.0203236 -0.112999 
-0.0332638 0.0226226 -0.116437 -0.0542082 0.0269762 -0.115067 -0.0230453 0.0295599 -0.113423 
-0.022323 -0.0253556 -0.112321 -0.0704279 -0.0223473 -0.11266 -0.0256713 -0.0180869 -0.111524 
-0.0178558 -0.0123166 -0.109917 -0.0553607 -0.0078882 -0.111015 -0.0144381 -0.00701888 -0.111544 
-0.0369667 -0.00436035 -0.112533 -0.0311318 -0.00663113 -0.112235 -0.0579411 -0.00255321 -0.111949 
-0.0358342 -0.000622916 -0.111887 -0.0144683 -0.00250631 -0.110425 -0.0294289 0.00529726 -0.109036 
-0.0223021 0.013606 -0.11263 -0.0144394 0.0122999 -0.110839 -0.0216445 0.0249759 -0.109769 
-0.00915371 -0.0257532 -0.107676 -0.0341055 -0.0242912 -0.107486 -0.0188343 -0.0228296 -0.106844 
-0.0124267 -0.0207911 -0.108677 -0.0495029 -0.0110135 -0.108377 -0.0223514 -0.0108841 -0.107612 
-0.0106038 -0.0118202 -0.110112 -0.0203875 -0.00109408 -0.111291 -0.0326372 0.00397808 -0.109769 
-0.0166573 0.00956412 -0.107608 -0.0174525 0.0165693 -0.108241 -0.00885736 0.0144464 -0.109154 
-0.0714883 0.0179781 -0.106062 -0.0129442 0.0187755 -0.109722 -0.0244201 0.0298882 -0.107922 
-0.029518 -0.0259191 -0.107363 -0.00802212 -0.0262377 -0.102412 -0.0213441 -0.0189299 -0.10905 
-0.00439842 -0.0195025 -0.105039 -0.0131573 -0.0117949 -0.107166 -0.041344 -0.00338314 -0.105708 
-0.036547 -0.00574654 -0.104781 -0.0280171 -0.0019595 -0.105669 -0.0166278 0.00160654 -0.105833 
-0.0411425 0.00523063 -0.104016 -0.0213405 0.00449531 -0.103445 -0.019205 0.0206389 -0.104376 
-0.0296603 0.0205595 -0.103887 -0.00937401 0.0258068 -0.108388 -0.0235232 -0.0280098 -0.102084 
-0.0535966 -0.0232199 -0.101851 -0.0356539 -0.0125826 -0.102467 -0.00532413 0.00347482 -0.10485 
-0.00665099 -0.0147089 -0.100663 -0.0235714 -0.0119867 -0.102425 -0.0324136 0.0197662 -0.0954416 
-0.0154765 0.0185486 -0.100882 -0.00639582 0.00662071 -0.0960831 -0.0646433 -0.107961 -0.0915209 
-0.0183398 -0.0212097 -0.0936139 -0.00676706 -0.00981008 -0.0937853 -0.0299907 0.00855733 -0.0953517 
-0.00517262 0.0323307 -0.0950805 -0.00390427 -0.00527178 -0.0909598 -0.0311671 0.0123986 -0.0906499 
-0.0206177 -0.0113305 -0.0879876 -0.0321609 -0.00607507 -0.0869232 -0.0079193 0.0298979 -0.0860827 
-0.00131466 0.00705789 -0.084607 -0.00221027 0.0186146 -0.0845913 -0.0138788 -0.0162448 -0.0802685 
-0.00399213 -0.0264375 -0.0761408 -0.0223604 0.0276055 -0.0751908 -0.00558275 -0.00455966 -0.0733173 
-0.0077538 0.0171361 -0.0709294 -0.0318082 0.0208697 -0.0718859 -0.0173855 -0.0338902 -0.0690955 
-0.00858558 -0.0125682 -0.0694368 -0.00154371 -0.0346722 -0.0650493 -0.0287336 -0.0143436 -0.0663692 
-0.0193685 0.0119819 -0.0661966 -0.0220216 -0.0115727 -0.0634613 -0.0067008 0.0110709 -0.0609705 
-0.0232248 0.018953 -0.0623849 -0.0124901 0.0292455 -0.061347 -0.0208051 -0.0257611 -0.0595324 
-0.0319573 -0.0211048 -0.0601763 -0.0184641 0.0346143 -0.0589151 -0.0215899 -0.0111508 -0.0548681 
-0.00452227 -8.57609e-05 -0.0553561 -0.0345917 -0.0281976 -0.0502146 -0.00861311 0.0156758 -0.0526372 
-0.0255212 -0.0322233 -0.0462972 -0.0293509 -0.0255557 -0.0480016 -0.0109636 -0.0311008 -0.0435665 
-0.0239192 -0.011198 -0.0449881 -0.00341211 0.0279138 -0.0458002 -0.0216218 -0.0306886 -0.0423572 
-0.00135906 -0.0285348 -0.0413021 -0.0293542 -0.0154504 -0.0395371 -0.0144604 0.0146238 -0.0404239 
-0.000199364 -0.031613 -0.0377547 -0.0267273 0.0202325 -0.037013 -0.00801538 0.0199359 -0.035616 
-0.0291051 0.026364 -0.0366853 -0.0136772 0.0221297 -0.0346171 -0.0191536 0.0271245 -0.0330938 
-0.0188515 -0.0248569 -0.0291518 -0.00957752 -0.023935 -0.029881 -0.0298384 -0.0303038 -0.0247925 
-0.011677 -0.0284877 -0.0267325 -0.00247583 0.0215485 -0.0271449 -0.00025791 -0.0162541 -0.0236193 
-0.0143365 -0.0079604 -0.0212554 -0.00986991 0.00120138 -0.0235363 -0.0165007 0.0290903 -0.0232134 
-0.0102718 0.00457908 -0.0180931 -0.00282712 0.00545747 -0.0209131 -0.0129094 -0.0188123 -0.016957 
-0.00353272 0.0202053 -0.0143209 -0.00180751 0.0338204 -0.0155684 -0.0194255 -0.0262921 -0.0132848 
-0.0258137 0.00190826 -0.010862 -0.0198718 -0.0194218 -0.00804438 -0.0147423 -0.00564426 -0.00832896 
-0.0217046 0.022596 -0.00820466 -0.00102814 0.0297537 -0.00996965 -0.0290561 -0.00430439 -0.00396258 
-0.0312961 0.0169384 -0.0059544 -0.00105657 0.0183981 -0.00589087 -0.0297716 0.0219768 -0.00548632 
-0.0139184 0.0334821 -0.00401864 -0.0312886 -0.013967 -0.00230284 -0.00392958 0.028377 -0.00314224 
-0.000325902 -0.0296171 0.000986473 -0.0264186 -0.0226941 0.00251639 -0.0120116 -0.010599 0.00433362 
-0.00462244 -0.00933596 0.0059201 -0.0266756 0.00717374 0.00686498 -0.018075 -0.0348859 0.00723882 
-0.0256227 -0.0236721 0.0080049 -0.0181237 -0.00251957 0.00930489 -0.0131504 0.0195227 0.0104571 
-0.0256024 -0.0344097 0.012022 -0.000358392 -0.033522 0.0123812 -0.0161376 -0.013045 0.0107537 
-0.00101568 -0.00765357 0.0140151 -0.00437192 -0.0158774 0.0177291 -0.027285 0.0339661 0.0177676 
-0.0337467 -0.0346591 0.0207515 -0.0296409 0.00549128 0.0205151 -0.0189065 0.00370031 0.020272 
-0.00122887 0.00667973 0.0201508 -0.0115665 -0.0335308 0.0231282 -0.0252769 -0.0118968 0.0240648 
-0.0236813 0.00467646 0.0221384 -0.0333891 0.0071378 0.0233693 -0.00787767 0.029374 0.0232768 
-0.0138113 -0.0228149 0.0275645 -0.00508037 -0.0105724 0.0251975 -0.0198207 -0.00974077 0.0260823 
-0.019244 -0.00161366 0.0279459 -0.00173502 -0.0285329 0.0304595 -0.0248475 0.000547331 0.0316144 
-0.0278976 0.0186818 0.0299099 -0.0346531 0.00651434 0.035217 -0.00708289 0.0112854 0.0327995 
-0.0269024 0.0141667 0.0321578 -0.0222962 0.0151486 0.0329891 -0.0302628 0.0298152 0.0355623 
-0.0222014 -0.0279164 0.0379527 -0.0245742 0.0185516 0.0359141 -0.0113106 -0.0321944 0.0412589 
-0.00806895 -0.00605423 0.0414091 -0.0332087 -0.020276 0.0462015 -0.0130711 -0.0176738 0.0458226 
-0.0143318 -0.00453168 0.0449122 -0.0253285 0.00225503 0.0459607 -0.000963089 0.0159196 0.0452154 
-0.0243576 0.01843 0.0434488 -0.00779733 -0.0159186 0.0496351 -0.00944666 -0.00985484 0.0463885 
-0.0163221 0.000125533 0.0476833 -0.0323792 0.00745233 0.0468878 -0.0236309 0.0189654 0.047321 
-0.00885038 0.0206976 0.0498809 -0.00471052 0.0260351 0.0476672 -0.0331626 -0.00999095 0.0518403 
-0.0126158 -0.00465665 0.0528048 -0.019337 0.0214972 0.0523479 -0.0239985 -0.0277872 0.0537866 
-0.00412293 -0.0238296 0.0555398 -0.0329629 -0.0163362 0.0548822 -0.0216574 -0.00146741 0.0553074 
-0.0117135 -0.0343578 0.0592854 -0.0203247 -0.0257375 0.0594743 -0.0223233 0.0149911 0.0570354 
-0.0241802 0.0341052 0.0582253 
VERTICES 511 1022
1 0 
1 1 
1 2 
1 3 
1 4 
1 5 
1 6 
1 7 
1 8 
1 9 
1 10 
1 11 
1 12 
1 13 
1 14 
1 15 
1 16 
1 17 
1 18 
1 19 
1 20 
1 21 
1 22 
1 23 
1 24 
1 25 
1 26 
1 27 
1 28 
1 29 
1 30 
1 31 
1 32 
1 33 
1 34 
1 35 
1 36 
1 37 
1 38 
1 39 
1 40 
1 41 
1 42 
1 43 
1 44 
1 45 
1 46 
1 47 
1 48 
1 49 
1 50 
1 51 
1 52 
1 53 
1 54 
1 55 
1 56 
1 57 
1 58 
1 59 
1 60 
1 61 
1 62 
1 63 
1 64 
1 65 
1 66 
1 67 
1 68 
1 69 
1 70 
1 71 
1 72 
1 73 
1 74 
1 75 
1 76 
1 77 
1 78 
1 79 
1 80 
1 81 
1 82 
1 83 
1 84 
1 85 
1 86 
1 87 
1 88 
1 89 
1 90 
1 91 
1 92 
1 93 
1 94 
1 95 
1 96 
1 97 
1 98 
1 99 
1 100 
1 101 
1 102 
1 103 
1 104 
1 105 
1 106 
1 107 
1 108 
1 109 
1 110 
1 111 
1 112 
1 113 
1 114 
1 115 
1 116 
1 117 
1 118 
1 119 
1 120 
1 121 
1 122 
1 123 
1 124 
1 125 
1 126 
1 127 
1 128 
1 129 
1 130 
1 131 
1 132 
1 133 
1 134 
1 135 
1 136 
1 137 
1 138 
1 139 
1 140 
1 141 
1 142 
1 143 
1 144 
1 145 
1 146 
1 147 
1 148 
1 149 
1 150 
1 151 
1 152 
1 153 
1 154 
1 155 
1 156 
1 157 
1 158 
1 159 
1 160 
1 161 
1 162 
1 163 
1 164 
1 165 
1 166 
1 167 
1 168 
1 169 
1 170 
1 171 
1 172 
1 173 
1 174 
1 175 
1 176 
1 177 
1 178 
1 179 
1 180 
1 181 
1 182 
1 183 
1 184 
1 185 
1 186 
1 187 
1 188 
1 189 
1 190 
1 191 
1 192 
1 193 
1 194 
1 195 
1 196 
1 197 
1 198 
1 199 
1 200 
1 201 
1 202 
1 203 
1 204 
1 205 
1 206 
1 207 
1 208 
1 209 
1 210 
1 211 
1 212 
1 213 
1 214 
1 215 
1 216 
1 217 
1 218 
1 219 
1 220 
1 221 
1 222 
1 223 
1 224 
1 225 
1 226 
1 227 
1 228 
1 229 
1 230 
1 231 
1 232 
1 233 
1 234 
1 235 
1 236 
1 237 
1 238 
1 239 
1 240 
1 241 
1 242 
1 243 
1 244 
1 245 
1 246 
1 247 
1 248 
1 249 
1 250 
1 251 
1 252 
1 253 
1 254 
1 255 
1 256 
1 257 
1 258 
1 259 
1 260 
1 261 
1 262 
1 263 
1 264 
1 265 
1 266 
1 267 
1 268 
1 269 
1 270 
1 271 
1 272 
1 273 
1 274 
1 275 
1 276 
1 277 
1 278 
1 279 
1 280 
1 281 
1 282 
1 283 
1 284 
1 285 
1 286 
1 287 
1 288 
1 289 
1 290 
1 291 
1 292 
1 293 
1 294 
1 295 
1 296 
1 297 
1 298 
1 299 
1 300 
1 301 
1 302 
1 303 
1 304 
1 305 
1 306 
1 307 
1 308 
1 309 
1 310 
1 311 
1 312 
1 313 
1 314 
1 315 
1 316 
1 317 
1 318 
1 319 
1 320 
1 321 
1 322 
1 323 
1 324 
1 325 
1 326 
1 327 
1 328 
1 329 
1 330 
1 331 
1 332 
1 333 
1 334 
1 335 
1 336 
1 337 
1 338 
1 339 
1 340 
1 341 
1 342 
1 343 
1 344 
1 345 
1 346 
1 347 
1 348 
1 349 
1 350 
1 351 
1 352 
1 353 
1 354 
1 355 
1 356 
1 357 
1 358 
1 359 
1 360 
1 361 
1 362 
1 363 
1 364 
1 365 
1 366 
1 367 
1 368 
1 369 
1 370 
1 371 
1 372 
1 373 
1 374 
1 375 
1 376 
1 377 
1 378 
1 379 
1 380 
1 381 
1 382 
1 383 
1 384 
1 385 
1 386 
1 387 
1 388 
1 389 
1 390 
1 391 
1 392 
1 393 
1 394 
1 395 
1 396 
1 397 
1 398 
1 399 
1 400 
1 401 
1 402 
1 403 
1 404 
1 405 
1 406 
1 407 
1 408 
1 409 
1 410 
1 411 
1 412 
1 413 
1 414 
1 415 
1 416 
1 417 
1 418 
1 419 
1 420 
1 421 
1 422 
1 423 
1 424 
1 425 
1 426 
1 427 
1 428 
1 429 
1 430 
1 431 
1 432 
1 433 
1 434 
1 435 
1 436 
1 437 
1 438 
1 439 
1 440 
1 441 
1 442 
1 443 
1 444 
1 445 
1 446 
1 447 
1 448 
1 449 
1 450 
1 451 
1 452 
1 453 
1 454 
1 455 
1 456 
1 457 
1 458 
1 459 
1 460 
1 461 
1 462 
1 463 
1 464 
1 465 
1 466 
1 467 
1 468 
1 469 
1 470 
1 471 
1 472 
1 473 
1 474 
1 475 
1 476 
1 477 
1 478 
1 479 
1 480 
1 481 
1 482 
1 483 
1 484 
1 485 
1 486 
1 487 
1 488 
1 489 
1 490 
1 491 
1 492 
1 493 
1 494 
1 495 
1 496 
1 497 
1 498 
1 499 
1 500 
1 501 
1 502 
1 503 
1 504 
1 505 
1 506 
1 507 
1 508 
1 509 
1 510 

POINT_DATA 511
FIELD FieldData 7
id 1 511 int
22 35 32 16 6 10 12 2 11 
44 1 57 30 23 25 14 13 19 
7 38 29 20 3 21 4 69 47 
28 5 56 73 33 54 45 40 27 
89 61 36 66 93 37 8 52 42 
59 85 100 87 77 176 55 15 133 
41 39 71 94 173 113 80 50 78 
74 58 92 17 31 91 120 101 98 
46 110 53 86 162 125 102 84 76 
18 112 67 65 145 147 60 63 62 
43 24 75 130 137 131 164 111 48 
153 88 51 95 26 103 104 196 150 
190 121 160 108 138 34 117 171 179 
82 184 68 118 127 107 126 193 174 
141 178 168 180 177 198 195 186 163 
106 114 122 70 140 79 129 202 148 
142 144 159 49 151 97 132 166 123 
115 143 207 210 156 105 154 83 158 
81 139 189 183 136 149 116 146 209 
205 169 170 219 119 134 225 157 181 
187 200 229 197 152 204 175 124 241 
254 252 212 64 99 213 155 201 265 
223 172 161 215 182 224 96 228 230 
72 185 167 236 221 280 245 206 128 
191 208 199 109 263 214 276 267 250 
233 238 261 218 266 226 242 192 264 
135 188 305 222 255 295 203 249 227 
235 273 232 220 247 211 194 248 262 
253 251 278 258 315 272 237 259 244 
314 240 306 256 275 289 165 298 284 
239 283 302 299 292 217 282 317 321 
340 269 260 307 288 324 270 216 330 
291 318 246 333 285 234 301 309 338 
320 279 90 308 311 290 344 274 313 
303 342 332 352 319 294 325 257 350 
231 322 268 351 243 336 347 287 355 
310 327 293 367 345 339 326 356 349 
312 335 341 334 296 300 358 323 331 
353 348 357 277 365 354 370 346 360 
364 363 304 316 368 359 297 337 328 
329 371 343 271 281 362 369 366 286 
361 373 9 377 379 382 378 372 380 
375 376 374 381 383 393 396 388 395 
386 391 387 384 392 390 389 385 403 
394 406 399 405 407 404 398 409 408 
402 401 418 400 397 414 416 419 417 
421 422 412 410 415 413 411 420 429 
431 432 430 427 424 433 434 435 425 
426 428 423 443 445 439 447 442 444 
438 436 446 440 448 441 437 454 451 
452 460 456 458 450 457 455 453 459 
449 468 462 466 473 465 472 471 463 
464 470 469 484 461 467 480 485 482 
478 476 474 477 481 475 483 479 486 
496 492 497 491 490 495 493 506 488 
487 489 498 507 494 510 503 501 508 
509 511 504 499 502 505 500 
type 1 511 int
1 1 1 1 1 1 1 1 1 
1 1 1 1 1 1 1 1 1 
1 1 1 1 1 1 1 1 1 
1 1 1 1 1 1 1 1 1 
1 1 1 1 1 1 1 1 1 
1 1 1 1 1 1 1 1 1 
1 1 1 1 1 1 1 1 1 
1 1 1 1 1 1 1 1 1 
1 1 1 1 1 1 1 1 1 
1 1 1 1 1 1 1 1 1 
1 1 1 1 1 1 1 1 1 
1 1 1 1 1 1 1 1 1 
1 1 1 1 1 1 1 1 1 
1 1 1 1 1 1 1 1 1 
1 1 1 1 1 1 1 1 1 
1 1 1 1 1 1 1 1 1 
1 1 1 1 1 1 1 1 1 
1 1 1 1 1 1 1 1 1 
1 1 1 1 1 1 1 1 1 
1 1 1 1 1 1 1 1 1 
1 1 1 1 1 1 1 1 1 
1 1 1 1 1 1 1 1 1 
1 1 1 1 1 1 1 1 1 
1 1 1 1 1 1 1 1 1 
1 1 1 1 1 1 1 1 1 
1 1 1 1 1 1 1 1 1 
1 1 1 1 1 1 1 1 1 
1 1 1 1 1 1 1 1 1 
1 1 1 1 1 1 1 1 1 
1 1 1 1 1 1 1 1 1 
1 1 1 1 1 1 1 1 1 
1 1 1 1 1 1 1 1 1 
1 1 1 1 1 1 1 1 1 
1 1 1 1 1 1 1 1 1 
1 1 1 1 1 1 1 1 1 
1 1 1 1 1 1 1 1 1 
1 1 1 1 1 1 1 1 1 
1 1 1 1 1 1 1 1 1 
1 1 1 1 1 1 1 1 1 
1 1 1 1 1 1 1 1 1 
1 1 1 1 1 1 1 1 1 
1 1 1 1 1 1 1 1 1 
1 1 1 1 1 1 1 1 1 
1 1 1 1 1 1 1 1 1 
1 1 1 1 1 1 1 1 1 
1 1 1 1 1 1 1 1 1 
1 1 1 1 1 1 1 1 1 
1 1 1 1 1 1 1 1 1 
1 1 1 1 1 1 1 1 1 
1 1 1 1 1 1 1 1 1 
1 1 1 1 1 1 1 1 1 
1 1 1 1 1 1 1 1 1 
1 1 1 1 1 1 1 1 1 
1 1 1 1 1 1 1 1 1 
1 1 1 1 1 1 1 1 1 
1 1 1 1 1 1 1 1 1 
1 1 1 1 1 1 1 
i 3 511 int
0 0 0 0 0 0 0 0 0 
0 0 0 0 0 0 0 0 0 
0 0 0 0 0 0 0 0 0 
0 0 0 0 0 0 0 0 0 
0 0 0 0 0 0 0 0 0 
0 0 0 0 0 0 0 0 0 
0 0 0 0 0 0 0 0 0 
0 0 0 0 0 0 0 0 0 
0 0 0 0 0 0 0 0 0 
0 0 0 0 0 0 0 0 0 
0 0 0 0 0 0 0 0 0 
0 0 0 0 0 0 0 0 0 
0 0 0 0 0 0 0 0 0 
0 0 0 0 0 0 0 0 0 
0 0 0 0 0 0 0 0 0 
0 0 0 0 0 0 0 0 0 
0 0 0 0 0 0 0 0 0 
0 0 0 0 0 0 0 0 0 
0 0 0 0 0 0 0 0 0 
0 0 0 0 0 0 0 0 0 
0 0 0 0 0 0 0 0 0 
0 0 0 0 0 0 0 0 0 
0 0 0 0 0 0 0 0 0 
0 0 0 0 0 0 0 0 0 
0 0 0 0 0 0 0 0 0 
0 0 0 0 0 0 0 0 0 
0 0 0 0 0 0 0 0 0 
0 0 0 0 0 0 0 0 0 
0 0 0 0 0 0 0 0 0 
0 0 0 0 0 0 0 0 0 
0 0 0 0 0 0 0 0 0 
0 0 0 0 0 0 0 0 0 
0 0 0 0 0 0 0 0 0 
0 0 0 0 0 0 0 0 0 
0 0 0 0 0 0 0 0 0 
0 0 0 0 0 0 0 0 0 
0 0 0 0 0 0 0 0 0 
0 0 0 0 0 0 0 0 0 
0 0 0 0 0 0 0 0 0 
0 0 0 0 0 0 0 0 0 
0 0 0 0 0 0 0 0 0 
0 0 0 0 0 0 0 0 0 
0 0 0 0 0 0 0 0 0 
0 0 0 0 0 0 0 0 0 
0 0 0 0 0 0 0 0 0 
0 0 0 0 0 0 0 0 0 
0 0 0 0 0 0 0 0 0 
0 0 0 0 0 0 0 0 0 
0 0 0 0 0 0 0 0 0 
0 0 0 0 0 0 0 0 0 
0 0 0 0 0 0 0 0 0 
0 0 0 0 0 0 0 0 0 
0 0 0 0 0 0 0 0 0 
0 0 0 0 0 0 0 0 0 
0 0 0 0 0 0 0 0 0 
0 0 0 0 0 0 0 0 0 
0 0 0 0 0 0 0 0 0 
0 0 0 0 0 0 0 0 0 
0 0 0 0 0 0 0 0 0 
0 0 0 0 0 0 0 0 0 
0 0 0 0 0 0 0 0 0 
0 0 0 0 0 0 0 0 0 
0 0 0 0 0 0 0 0 0 
0 0 0 0 0 0 0 0 0 
0 0 0 0 0 0 0 0 0 
0 0 0 0 0 0 0 0 0 
0 0 0 0 0 0 0 0 0 
0 0 0 0 0 0 0 0 0 
0 0 0 0 0 0 0 0 0 
0 0 0 0 0 0 0 0 0 
0 0 0 0 0 0 0 0 0 
0 0 0 0 0 0 0 0 0 
0 0 0 0 0 0 0 0 0 
0 0 0 0 0 0 0 0 0 
0 0 0 0 0 0 0 0 0 
0 0 0 0 0 0 0 0 0 
0 0 0 0 0 0 0 0 0 
0 0 0 0 0 0 0 0 0 
0 0 0 0 0 0 0 0 0 
0 0 0 0 0 0 0 0 0 
0 0 0 0 0 0 0 0 0 
0 0 0 0 0 0 0 0 0 
0 0 0 0 0 0 0 0 0 
0 0 0 0 0 0 0 0 0 
0 0 0 0 0 0 0 0 0 
0 0 0 0 0 0 0 0 0 
0 0 0 0 0 0 0 0 0 
0 0 0 0 0 0 0 0 0 
0 0 0 0 0 0 0 0 0 
0 0 0 0 0 0 0 0 0 
0 0 0 0 0 0 0 0 0 
0 0 0 0 0 0 0 0 0 
0 0 0 0 0 0 0 0 0 
0 0 0 0 0 0 0 0 0 
0 0 0 0 0 0 0 0 0 
0 0 0 0 0 0 0 0 0 
0 0 0 0 0 0 0 0 0 
0 0 0 0 0 0 0 0 0 
0 0 0 0 0 0 0 0 0 
0 0 0 0 0 0 0 0 0 
0 0 0 0 0 0 0 0 0 
0 0 0 0 0 0 0 0 0 
0 0 0 0 0 0 0 0 0 
0 0 0 0 0 0 0 0 0 
0 0 0 0 0 0 0 0 0 
0 0 0 0 0 0 0 0 0 
0 0 0 0 0 0 0 0 0 
0 0 0 0 0 0 0 0 0 
0 0 0 0 0 0 0 0 0 
0 0 0 0 0 0 0 0 0 
0 0 0 0 0 0 0 0 0 
0 0 0 0 0 0 0 0 0 
0 0 0 0 0 0 0 0 0 
0 0 0 0 0 0 0 0 0 
0 0 0 0 0 0 0 0 0 
0 0 0 0 0 0 0 0 0 
0 0 0 0 0 0 0 0 0 
0 0 0 0 0 0 0 0 0 
0 0 0 0 0 0 0 0 0 
0 0 0 0 0 0 0 0 0 
0 0 0 0 0 0 0 0 0 
0 0 0 0 0 0 0 0 0 
0 0 0 0 0 0 0 0 0 
0 0 0 0 0 0 0 0 0 
0 0 0 0 0 0 0 0 0 
0 0 0 0 0 0 0 0 0 
0 0 0 0 0 0 0 0 0 
0 0 0 0 0 0 0 0 0 
0 0 0 0 0 0 0 0 0 
0 0 0 0 0 0 0 0 0 
0 0 0 0 0 0 0 0 0 
0 0 0 0 0 0 0 0 0 
0 0 0 0 0 0 0 0 0 
0 0 0 0 0 0 0 0 0 
0 0 0 0 0 0 0 0 0 
0 0 0 0 0 0 0 0 0 
0 0 0 0 0 0 0 0 0 
0 0 0 0 0 0 0 0 0 
0 0 0 0 0 0 0 0 0 
0 0 0 0 0 0 0 0 0 
0 0 0 0 0 0 0 0 0 
0 0 0 0 0 0 0 0 0 
0 0 0 0 0 0 0 0 0 
0 0 0 0 0 0 0 0 0 
0 0 0 0 0 0 0 0 0 
0 0 0 0 0 0 0 0 0 
0 0 0 0 0 0 0 0 0 
0 0 0 0 0 0 0 0 0 
0 0 0 0 0 0 0 0 0 
0 0 0 0 0 0 0 0 0 
0 0 0 0 0 0 0 0 0 
0 0 0 0 0 0 0 0 0 
0 0 0 0 0 0 0 0 0 
0 0 0 0 0 0 0 0 0 
0 0 0 0 0 0 0 0 0 
0 0 0 0 0 0 0 0 0 
0 0 0 0 0 0 0 0 0 
0 0 0 0 0 0 0 0 0 
0 0 0 0 0 0 0 0 0 
0 0 0 0 0 0 0 0 0 
0 0 0 0 0 0 0 0 0 
0 0 0 0 0 0 0 0 0 
0 0 0 0 0 0 0 0 0 
0 0 0 0 0 0 0 0 0 
0 0 0 0 0 0 0 0 0 
0 0 0 0 0 0 0 0 0 
0 0 0 0 0 0 0 0 0 
0 0 0 0 0 0 0 0 0 
0 0 0 0 0 0 0 0 0 
0 0 0 0 0 0 0 0 0 
0 0 0 
v 3 511 double
-1.40023 -0.251904 -1.00372 -1.34345 0.15557 -0.630688 -1.49282 0.013101 -0.64924 
-1.3808 0.00270811 -0.582357 -1.28097 -0.0302729 -0.535772 -1.21241 0.0337832 -0.50806 
-1.26123 -0.0233949 -0.530207 -1.24942 -0.0182179 -0.520103 -1.20631 -0.0111743 -0.51106 
-1.25733 -0.173722 -0.543545 -1.17251 0.0066927 -0.501315 -1.28007 -0.133347 -0.539739 
-1.14457 0.0825119 -0.488945 -1.0928 -0.0394034 -0.458888 -1.17344 0.0325308 -0.482253 
-1.00734 -0.118728 -0.364043 -1.17301 0.122639 -0.523709 -0.947658 -0.0514453 -0.41628 
-0.810612 0.0289815 -0.360897 -1.15696 0.0145216 -0.486833 -1.15913 0.0237821 -0.475972 
-1.20699 -0.0478951 -0.44546 -1.06176 0.175374 -0.454236 -1.21295 0.0210168 -0.487596 
-0.954919 0.0546668 -0.401351 -0.962013 0.0513609 -0.399198 -1.0501 0.0278697 -0.444853 
-1.05772 -0.0884438 -0.437415 -1.06818 0.0521564 -0.444551 -1.02492 -0.142518 -0.44056 
-0.927251 -0.0226516 -0.416265 -1.11622 -0.042425 -0.411248 -1.04397 0.15121 -0.478075 
-1.02761 0.141729 -0.441863 -1.05437 0.0630299 -0.454821 -1.01039 0.0620886 -0.44391 
-0.907043 0.0455499 -0.38892 -0.918515 0.0817195 -0.393917 -0.889185 0.0533742 -0.380675 
-1.02136 -0.060549 -0.441338 -1.049 -0.0184637 -0.422371 -0.962151 0.0558725 -0.419392 
-0.873542 -0.0180276 -0.359485 -0.885166 0.0255801 -0.379105 -0.877096 0.0582636 -0.36504 
-0.892216 0.0771146 -0.371455 -0.884613 -0.0372695 -0.360809 -0.931949 0.0189119 -0.387036 
-0.911535 0.0102894 -0.377586 -0.948371 0.0263263 -0.546891 -0.785095 0.0612198 -0.337814 
-0.749086 -0.0832593 -0.306257 -0.862744 0.0175118 -0.369901 -0.889729 -0.0131279 -0.382597 
-0.865087 -0.0782323 -0.360706 -0.832984 0.0957602 -0.346181 -0.771807 0.0191611 -0.261046 
-0.979428 0.0047648 -0.411366 -1.1569 -0.0363221 -0.444168 -0.798252 -0.140569 -0.341465 
-0.661907 -0.174476 -0.2483 -0.834812 -0.100239 -0.345433 -0.750451 -0.0466736 -0.31671 
-0.739822 -0.0161959 -0.314848 -0.727666 -0.110986 -0.297967 -0.673266 -0.12107 -0.274928 
-0.910097 -0.0399179 -0.581891 -0.830572 -0.00939668 -0.353841 -0.890385 -0.00277547 -0.503438 
-1.29372 0.161272 -0.438934 -0.782794 -0.157408 -0.313446 -0.846739 -0.0438608 -0.355366 
-0.842461 -0.00195803 -0.359863 -0.759697 0.00264932 -0.325165 -0.799247 0.0351899 -0.330109 
-0.86868 -0.0169745 -0.375977 -0.717518 0.0834587 -0.321355 -0.847397 0.155575 -0.59946 
-0.590699 0.0161958 -0.245157 -0.915622 -0.115904 -0.408307 -0.799809 0.00287582 -0.310945 
-0.732791 -0.0316615 -0.298715 -0.720569 -0.00964418 -0.314617 -0.767334 0.0437918 -0.316817 
-0.846835 -0.0200509 -0.348984 -0.860702 0.156321 -0.317861 -1.0029 0.0383884 -0.433572 
-0.999069 -0.119293 -0.407728 -0.906213 -0.00576961 -0.384414 -0.768587 -0.0781966 -0.303648 
-0.906828 -0.0940188 -0.363185 -0.821397 -0.0980098 -0.327679 -0.812709 0.150605 -0.345376 
-0.792026 -0.0302511 -0.254458 -0.738803 -0.0267449 -0.235225 -0.916161 -0.0200153 -0.627079 
-0.962592 0.0535876 -0.714062 -0.706315 0.0694462 -0.313994 -0.724333 0.0634244 -0.312252 
-0.905491 0.0030635 -0.364345 -0.797324 -0.00458919 -0.331548 -1.01901 0.226967 -0.536845 
-0.775949 0.0116903 -0.320683 -0.787989 -0.0637333 -0.313077 -0.855015 -0.157498 -0.706026 
-0.678762 -0.000902779 -0.330963 -0.923187 0.0207619 -0.384106 -0.641416 -0.0874469 -0.264455 
-0.92926 0.127775 -0.417335 -0.592433 0.040297 -0.241937 -0.566509 0.162579 -0.239851 
-0.80704 0.0912544 -0.319086 -0.638228 0.171253 -0.234628 -0.711075 -0.0795722 -0.322396 
-0.931708 -0.0616616 -0.392855 -0.640655 -0.0865336 -0.245801 -0.628013 -0.0773351 -0.274971 
-0.655425 -0.017615 -0.268788 -0.581952 -0.00199115 -0.25384 -0.662725 0.0348287 -0.205509 
-0.65744 0.114945 -0.279676 -0.631845 0.0301448 -0.27253 -0.62458 0.164909 -0.234257 