# vtk DataFile Version 4.0
Generated by LIGGGHTS
ASCII
DATASET POLYDATA
POINTS 851 float
-0.0205489 -0.0252404 0.053525 -0.0123723 -0.0167928 0.0551817 -0.0176314 0.0280021 0.0530553 
-0.0175487 0.00700754 0.0531202 -0.00896455 0.0326793 0.0507038 -0.0211609 0.028586 0.0518182 
-0.021911 0.0160472 0.0525533 -0.485 0.00807523 -0.399005 -0.477202 0.00541672 -0.397646 
-0.458689 0.00072009 -0.391122 -0.462021 0.00723178 -0.392703 -0.454583 0.0101154 -0.39016 
-0.475854 -0.00776747 -0.387884 -0.431798 0.00602304 -0.386122 -0.462492 0.0228497 -0.388857 
-0.458219 -0.00222952 -0.383559 -0.455973 0.00975508 -0.38208 -0.433299 0.00709275 -0.382866 
-0.471181 -0.0128646 -0.381859 -0.453635 0.00340168 -0.381038 -0.450852 6.34719e-05 -0.376456 
-0.444155 0.00255162 -0.377552 -0.443108 0.0090233 -0.375014 -0.448644 0.0281647 -0.375184 
-0.434667 -0.0175445 -0.372549 -0.450645 -0.00348126 -0.37377 -0.442644 0.000513441 -0.372057 
-0.453945 0.00476462 -0.37348 -0.444851 0.0142593 -0.371956 -0.44212 0.0139893 -0.368506 
-0.446381 0.0193583 -0.364923 -0.446934 0.0245255 -0.367045 -0.457258 -0.0118293 -0.363307 
-0.43461 -0.000520463 -0.360349 -0.436615 -0.0240114 -0.360111 -0.425465 -0.00364134 -0.358588 
-0.429975 0.00243171 -0.359292 -0.422657 -0.00420909 -0.354855 -0.444748 0.0252786 -0.356317 
-0.426426 -0.00992386 -0.349721 -0.453895 0.0307528 -0.350414 -0.434477 0.0283751 -0.348653 
-0.425156 -0.00519423 -0.343569 -0.425096 0.0017285 -0.343329 -0.422266 0.0071499 -0.342859 
-0.420987 -0.00598654 -0.340089 -0.440206 -0.000640397 -0.33984 -0.421687 -0.00116822 -0.341971 
-0.428593 0.0292973 -0.340594 -0.419839 -0.0144578 -0.334956 -0.418241 -0.00423518 -0.335159 
-0.403142 -0.00620629 -0.338312 -0.422438 0.00191253 -0.336987 -0.435519 0.0302329 -0.33794 
-0.404435 0.00506884 -0.332272 -0.412707 0.0198498 -0.332028 -0.418375 0.0260688 -0.333152 
-0.427611 0.0329937 -0.331627 -0.411856 -0.0272823 -0.329824 -0.408568 -9.66586e-05 -0.329523 
-0.474013 0.00471377 -0.330177 -0.411543 0.00679166 -0.330739 -0.420559 -0.0153484 -0.325817 
-0.416354 -0.0129094 -0.326292 -0.401585 -0.00884785 -0.326074 -0.394579 0.0103587 -0.324726 
-0.423635 0.0277468 -0.326025 -0.401147 -0.00999981 -0.322086 -0.404497 -0.00463167 -0.321987 
-0.395679 0.00959672 -0.320712 -0.414561 0.023123 -0.323621 -0.418873 -0.0114818 -0.317021 
-0.401163 0.00352225 -0.319746 -0.39872 0.00681815 -0.319002 -0.392042 0.00305302 -0.316918 
-0.403891 0.00931086 -0.318296 -0.407985 0.0131024 -0.316841 -0.418666 -0.0147544 -0.313799 
-0.404922 -0.0152387 -0.313104 -0.421666 -0.0107332 -0.315732 -0.402592 -0.00512059 -0.312761 
-0.404678 -0.00297092 -0.315901 -0.420955 -0.0215193 -0.310543 -0.390709 -0.00621459 -0.312059 
-0.397933 0.00218069 -0.309621 -0.412633 0.00920589 -0.309951 -0.404818 0.00652021 -0.310167 
-0.430875 0.0347459 -0.310822 -0.402678 -0.000878024 -0.307023 -0.384521 0.0023151 -0.307696 
-0.402739 0.00407009 -0.307792 -0.387523 0.00657114 -0.306753 -0.382453 0.00812675 -0.307194 
-0.41735 0.0189183 -0.307585 -0.413237 -0.0291772 -0.305283 -0.392128 -0.0154995 -0.303683 
-0.40915 -0.00999789 -0.304216 -0.403733 -0.00244594 -0.302165 -0.399825 0.00871934 -0.303316 
-0.408698 -0.0222876 -0.302119 -0.408727 -0.017801 -0.301177 -0.40776 -0.000936854 -0.300268 
-0.387542 -0.00168288 -0.299727 -0.393526 0.00189207 -0.298204 -0.410404 0.0133939 -0.300694 
-0.414125 0.0202211 -0.300639 -0.410659 0.033401 -0.301284 -0.397567 -0.0144264 -0.295054 
-0.401889 -0.0074761 -0.297755 -0.398458 -0.00341423 -0.295373 -0.395984 0.0143856 -0.296945 
-0.403105 -0.0298235 -0.291903 -0.398919 -0.00792506 -0.291237 -0.398742 0.0043328 -0.291754 
-0.387614 0.00960414 -0.29418 -0.392676 0.0135316 -0.291201 -0.394589 0.0158587 -0.29234 
-0.411204 -0.0333129 -0.289337 -0.394998 -0.00388711 -0.288728 -0.385159 0.000497265 -0.29046 
-0.384625 0.0193477 -0.287159 -0.393285 0.0226129 -0.287738 -0.425197 -0.049675 -0.286503 
-0.392679 -0.00844946 -0.286799 -0.388482 -0.0026345 -0.286729 -0.386556 -0.000435829 -0.28337 
-0.381096 0.0194907 -0.285919 -0.397413 0.0401743 -0.283876 -0.385414 -0.00900308 -0.281327 
-0.384415 -0.00321202 -0.282263 -0.387825 0.00218197 -0.281433 -0.379548 0.0166987 -0.282559 
-0.379745 -0.00875457 -0.277401 -0.381158 -0.00396053 -0.279396 -0.37224 0.0130854 -0.276445 
-0.379762 0.0183299 -0.277916 -0.372957 0.0213463 -0.277898 -0.39219 0.0262718 -0.27981 
-0.388507 0.0272737 -0.279242 -0.385955 0.0263905 -0.276886 -0.382007 0.0321619 -0.27883 
-0.375653 -0.00905446 -0.274793 -0.373494 -0.00578476 -0.272273 -0.374764 0.0059401 -0.274452 
-0.36719 0.00685832 -0.273275 -0.373906 0.0244512 -0.275547 -0.366184 -0.0144582 -0.27001 
-0.371513 -0.0101955 -0.269867 -0.367783 -0.00556016 -0.269083 -0.369008 0.000280841 -0.271033 
-0.359946 0.00256379 -0.269172 -0.364614 0.00829166 -0.268858 -0.368937 0.0113003 -0.269294 
-0.37206 0.0221558 -0.271445 -0.364579 -0.00709181 -0.266108 -0.357767 0.00174643 -0.2668 
-0.358384 0.00705385 -0.267178 -0.372755 0.0120723 -0.266458 -0.368671 -0.0273145 -0.261909 
-0.363461 -0.0209749 -0.261656 -0.365329 -0.0145275 -0.263287 -0.362166 -0.0156803 -0.260609 
-0.356411 -0.00529489 -0.262718 -0.356294 -0.00309691 -0.265069 -0.361749 0.000524759 -0.262785 
-0.357496 -0.0012465 -0.261304 -0.357924 0.00368016 -0.263536 -0.358452 -0.00820676 -0.258863 
-0.353188 0.00141353 -0.25816 -0.356456 0.00553338 -0.256502 -0.352062 0.00490071 -0.25993 
-0.357847 0.00934099 -0.260238 -0.35083 0.0081109 -0.258252 -0.347393 -0.00338286 -0.256759 
-0.343589 -0.00429107 -0.256344 -0.347463 0.00171364 -0.255336 -0.349724 0.00466776 -0.254602 
-0.343238 -0.0157444 -0.252615 -0.344927 -0.00819208 -0.251355 -0.340835 -0.0066073 -0.250567 
-0.343361 -0.00343261 -0.252407 -0.341449 -0.000607014 -0.251277 -0.37721 0.000420848 -0.252739 
-0.34443 0.00422472 -0.252106 -0.34038 0.00463452 -0.250377 -0.338551 0.00639119 -0.25277 
-0.36944 0.050537 -0.25293 -0.337911 -0.00876268 -0.248787 -0.333372 -0.00868053 -0.246576 
-0.338295 -0.00476145 -0.248095 -0.330551 -0.0055448 -0.245338 -0.333831 -0.000639101 -0.247162 
-0.33532 0.00906513 -0.246224 -0.340619 0.0100864 -0.248748 -0.337046 0.0149013 -0.247764 
-0.346651 0.0282626 -0.248368 -0.348433 0.0317703 -0.249303 -0.34486 -0.0361627 -0.245185 
-0.340678 -0.0337949 -0.245026 -0.334373 -0.0253803 -0.244205 -0.329039 -0.00816708 -0.244467 
-0.328218 0.00073773 -0.244687 -0.323051 0.00223714 -0.242228 -0.328377 0.0113468 -0.243595 
-0.336129 0.0274364 -0.245006 -0.351988 -0.0460577 -0.242284 -0.331638 -0.0316953 -0.240561 
-0.320994 -0.015606 -0.240209 -0.318567 -0.0125261 -0.239652 -0.320602 -0.00835777 -0.239751 
-0.322449 -0.00331543 -0.240815 -0.316535 -0.000197976 -0.238523 -0.317657 0.00469618 -0.238706 
-0.325637 0.00666435 -0.241061 -0.339609 -0.0470262 -0.237713 -0.317616 -0.016264 -0.237612 
-0.313605 -0.0171505 -0.236765 -0.312642 -0.00295851 -0.236783 -0.308008 -0.000557597 -0.235997 
-0.30579 -0.00249658 -0.234844 -0.305478 0.00151768 -0.234861 -0.316367 0.0127202 -0.237659 
-0.318218 0.0238205 -0.237402 -0.343253 0.0510818 -0.234897 -0.30475 -0.0123785 -0.233088 
-0.300564 -0.0105638 -0.232295 -0.302129 -0.00527621 -0.232267 -0.30089 0.00105061 -0.232957 
-0.297105 0.000503096 -0.231396 -0.297262 0.00514325 -0.231168 -0.303126 0.0117045 -0.232096 
-0.305574 0.017325 -0.23229 -0.311394 0.0289888 -0.233195 -0.29472 -0.0149812 -0.229356 
-0.295708 -0.00642963 -0.230601 -0.291381 -0.0047143 -0.228836 -0.295599 -0.00238864 -0.230696 
-0.296617 0.00953873 -0.229477 -0.297041 0.0136604 -0.230533 -0.295927 0.0165317 -0.229519 
-0.293281 0.0140242 -0.227806 -0.301132 0.0185416 -0.230123 -0.30334 0.0230522 -0.230242 
-0.311283 0.0359326 -0.229621 -0.2848 -0.0138096 -0.224227 -0.282826 -0.00371371 -0.225261 
-0.285996 -0.00253533 -0.226638 -0.289865 0.00178405 -0.227178 -0.297859 0.00588173 -0.225775 
-0.285468 0.00309541 -0.224939 -0.291249 0.00803988 -0.227356 -0.284466 0.0180985 -0.224464 
-0.297017 0.0254953 -0.227147 -0.289009 -0.0351995 -0.222068 -0.277743 -0.0204807 -0.221321 
-0.2759 -0.00262185 -0.222374 -0.275467 0.00278255 -0.222149 -0.2781 0.00703158 -0.221914 
-0.279697 0.0125906 -0.223339 -0.278467 0.0164336 -0.221099 -0.274211 0.014316 -0.220753 
-0.276008 0.0202941 -0.220498 -0.287469 0.02354 -0.223617 -0.283647 0.0268192 -0.222463 
-0.2726 -0.0103364 -0.219481 -0.269767 -0.00220962 -0.219812 -0.266521 0.00642764 -0.217098 
-0.270524 0.00950573 -0.219705 -0.272029 0.0123637 -0.22016 -0.266463 0.0112699 -0.217917 
-0.272303 0.0262459 -0.217837 -0.284065 0.0382351 -0.217964 -0.262618 -0.0156552 -0.215776 
-0.262721 -0.0109639 -0.21527 -0.257191 -0.00687559 -0.214317 -0.260702 -0.00125335 -0.216034 
-0.258671 0.00316176 -0.215019 -0.255351 0.00102065 -0.213716 -0.261231 0.00943693 -0.21581 
-0.264538 0.0194445 -0.215892 -0.264955 0.0284801 -0.214194 -0.2732 0.0324657 -0.216403 
-0.257601 -0.0212362 -0.211616 -0.251156 -0.0198153 -0.210223 -0.250411 -0.0144517 -0.210688 
-0.258014 -0.0116731 -0.213216 -0.251746 -0.0104002 -0.211832 -0.249753 -0.00468215 -0.211286 
-0.251055 0.000581988 -0.210823 -0.24903 0.00449864 -0.210881 -0.250706 0.00831718 -0.211437 
-0.248875 0.0121953 -0.210422 -0.268598 0.0394641 -0.212253 -0.251669 -0.0329276 -0.20747 
-0.249127 -0.0289083 -0.20638 -0.245486 -0.0235492 -0.207266 -0.247474 -0.0164566 -0.209135 
-0.244023 -0.00756456 -0.207642 -0.238478 -0.00786495 -0.206285 -0.244231 -0.00381022 -0.208996 
-0.252775 0.00106723 -0.206137 -0.242853 0.00186843 -0.208384 -0.246119 0.00737899 -0.20946 
-0.241993 0.00744974 -0.206732 -0.24348 0.0116841 -0.208159 -0.245478 0.0175912 -0.208195 
-0.240619 0.0204904 -0.20576 -0.243915 0.0262562 -0.206069 -0.253347 0.032506 -0.208306 
-0.273022 0.0520536 -0.208233 -0.250763 -0.0453682 -0.202671 -0.250294 -0.0380089 -0.205398 
-0.238174 -0.015223 -0.204376 -0.238793 -0.0112718 -0.206091 -0.234823 -0.00752409 -0.204719 
-0.233052 -0.00997416 -0.203746 -0.232603 -0.00524267 -0.203975 -0.228011 -0.00643527 -0.201977 
[...]
POINT_DATA 851
FIELD FieldData 7
id 1 851 int
1173 1164 1171 1174 1176 1168 1170 335 344 
227 333 405 371 430 388 331 248 286 
439 243 274 240 300 311 372 271 330 
246 407 323 257 231 490 349 341 382 
409 315 384 235 444 279 433 285 362 
203 486 318 302 313 258 427 387 268 
441 370 397 309 456 238 247 336 374 
350 237 291 425 216 411 340 378 417 
414 408 401 476 424 440 396 466 358 
389 355 416 403 365 398 509 462 428 
338 351 421 326 624 455 400 473 394 
471 346 328 448 474 359 373 434 508 
488 511 361 522 301 334 356 404 406 
598 360 479 521 478 538 375 483 345 
497 364 437 484 325 453 519 319 459 
385 454 536 546 559 475 504 452 376 
420 493 468 451 496 489 415 531 442 
554 413 469 558 600 487 482 463 465 
393 458 499 503 494 461 392 556 380 
477 481 357 431 391 547 445 500 312 
541 435 579 412 523 507 555 542 342 
501 419 369 515 426 457 524 582 491 
495 383 460 505 379 498 608 552 548 
640 485 502 464 449 656 631 562 527 
662 512 651 467 516 537 676 682 716 
588 564 402 529 573 616 550 659 571 
534 532 634 525 597 572 605 563 576 
669 526 545 517 602 630 540 658 595 
514 702 574 510 609 589 581 566 535 
612 590 621 577 561 578 528 557 533 
677 603 544 539 601 650 666 626 633 
593 708 520 551 683 594 668 734 614 
617 506 570 443 764 652 436 697 611 
615 653 586 728 518 700 604 663 585 
672 661 623 648 599 675 655 543 664 
639 610 580 739 618 691 638 695 549 
643 636 619 791 480 715 584 717 629 
671 620 569 673 786 718 678 607 681 
694 725 687 684 606 592 553 748 692 
646 705 565 649 794 628 632 583 768 
721 770 635 749 752 627 667 567 685 
654 657 513 642 670 560 704 703 647 
665 575 699 689 641 637 755 727 780 
644 710 591 596 622 645 698 432 613 
568 740 674 758 807 688 784 760 759 
690 686 731 720 587 737 733 625 867 
745 766 804 751 789 711 788 802 787 
741 713 772 793 719 825 781 709 742 
747 696 754 730 761 829 735 767 812 
779 680 778 722 756 765 811 723 757 
744 783 795 824 693 750 835 774 706 
743 785 799 736 820 792 841 701 707 
729 763 746 847 773 726 712 753 660 
738 776 826 875 777 798 828 801 840 
819 806 714 472 823 844 856 808 852 
822 803 800 839 769 771 805 837 877 
830 843 790 818 775 880 821 851 907 
796 873 858 900 782 859 827 762 809 
816 797 814 833 836 853 831 834 868 
810 838 842 899 913 914 916 874 918 
892 862 869 832 883 679 919 881 863 
815 813 846 878 944 732 864 848 849 
882 951 894 891 911 879 926 866 932 
887 845 941 946 850 961 817 924 905 
886 922 890 896 917 945 855 921 902 
854 915 872 904 895 935 897 903 920 
925 933 940 885 857 901 927 865 909 
871 910 898 876 971 937 884 966 889 
965 923 958 962 939 968 993 981 908 
928 954 870 861 988 936 893 955 952 
996 956 994 1022 990 938 1020 948 978 
949 1018 1013 1021 972 1000 950 963 986 
1014 1019 930 976 1016 1008 1015 1035 1007 
860 982 975 974 929 947 987 969 934 
998 979 989 957 1036 973 1005 960 1037 
912 980 1010 1011 943 1001 964 959 984 
1027 724 997 991 1029 1023 1031 1034 992 
1009 985 983 1003 1004 942 1024 1017 967 
995 999 1032 1012 1025 1033 970 1006 953 
977 1028 1002 1026 906 1030 931 1046 1049 
1041 1042 1045 1047 1050 1048 1043 1038 1044 
1040 1039 888 1059 1053 1057 1060 1063 1052 
1054 1061 1062 1051 1056 1058 1055 1076 1065 
1074 1072 1075 1069 1071 1070 1073 1067 1064 
1068 1085 1066 1087 1084 1083 1082 1081 1080 
1078 1077 1088 1086 1092 1096 1100 1079 1094 
1099 1091 1089 1101 1095 1090 1098 1097 1107 
1112 1093 1108 1103 1102 1109 1105 1111 1113 
1104 1110 1120 1114 1123 1125 1106 1117 1119 
1122 1118 1116 1115 1121 1124 1126 1132 1130 
1135 1137 1134 1136 1131 1138 1129 1127 1133 
1128 1147 1145 1146 1150 1141 1140 1139 1149 
1144 1143 1148 1142 1160 1157 1152 1159 1153 
1162 1151 1163 1155 1156 1161 1158 1166 1169 
1154 1172 1175 1165 1167 
type 1 851 int
1 1 1 1 1 1 1 1 1 
1 1 1 1 1 1 1 1 1 
1 1 1 1 1 1 1 1 1 
1 1 1 1 1 1 1 1 1 
1 1 1 1 1 1 1 1 1 
1 1 1 1 1 1 1 1 1 
1 1 1 1 1 1 1 1 1 
1 1 1 1 1 1 1 1 1 
1 1 1 1 1 1 1 1 1 
1 1 1 1 1 1 1 1 1 
1 1 1 1 1 1 1 1 1 
1 1 1 1 1 1 1 1 1 
1 1 1 1 1 1 1 1 1 
1 1 1 1 1 1 1 1 1 
1 1 1 1 1 1 1 1 1 
1 1 1 1 1 1 1 1 1 
1 1 1 1 1 1 1 1 1 
1 1 1 1 1 1 1 1 1 
1 1 1 1 1 1 1 1 1 
1 1 1 1 1 1 1 1 1 
1 1 1 1 1 1 1 1 1 
1 1 1 1 1 1 1 1 1 
1 1 1 1 1 1 1 1 1 
1 1 1 1 1 1 1 1 1 
1 1 1 1 1 1 1 1 1 
1 1 1 1 1 1 1 1 1 
1 1 1 1 1 1 1 1 1 
1 1 1 1 1 1 1 1 1 
1 1 1 1 1 1 1 1 1 
1 1 1 1 1 1 1 1 1 
1 1 1 1 1 1 1 1 1 
1 1 1 1 1 1 1 1 1 
1 1 1 1 1 1 1 1 1 
1 1 1 1 1 1 1 1 1 
1 1 1 1 1 1 1 1 1 
1 1 1 1 1 1 1 1 1 
1 1 1 1 1 1 1 1 1 
1 1 1 1 1 1 1 1 1 
1 1 1 1 1 1 1 1 1 
1 1 1 1 1 1 1 1 1 
1 1 1 1 1 1 1 1 1 
1 1 1 1 1 1 1 1 1 
1 1 1 1 1 1 1 1 1 
1 1 1 1 1 1 1 1 1 
1 1 1 1 1 1 1 1 1 
1 1 1 1 1 1 1 1 1 
1 1 1 1 1 1 1 1 1 
1 1 1 1 1 1 1 1 1 
1 1 1 1 1 1 1 1 1 
1 1 1 1 1 1 1 1 1 
1 1 1 1 1 1 1 1 1 
1 1 1 1 1 1 1 1 1 
1 1 1 1 1 1 1 1 1 
1 1 1 1 1 1 1 1 1 
1 1 1 1 1 1 1 1 1 
1 1 1 1 1 1 1 1 1 
1 1 1 1 1 1 1 1 1 
1 1 1 1 1 1 1 1 1 
1 1 1 1 1 1 1 1 1 
1 1 1 1 1 1 1 1 1 
1 1 1 1 1 1 1 1 1 
1 1 1 1 1 1 1 1 1 
1 1 1 1 1 1 1 1 1 
1 1 1 1 1 1 1 1 1 
1 1 1 1 1 1 1 1 1 
1 1 1 1 1 1 1 1 1 
1 1 1 1 1 1 1 1 1 
1 1 1 1 1 1 1 1 1 
1 1 1 1 1 1 1 1 1 
1 1 1 1 1 1 1 1 1 
1 1 1 1 1 1 1 1 1 
1 1 1 1 1 1 1 1 1 
1 1 1 1 1 1 1 1 1 
1 1 1 1 1 1 1 1 1 
1 1 1 1 1 1 1 1 1 
1 1 1 1 1 1 1 1 1 
1 1 1 1 1 1 1 1 1 
1 1 1 1 1 1 1 1 1 
1 1 1 1 1 1 1 1 1 
1 1 1 1 1 1 1 1 1 
1 1 1 1 1 1 1 1 1 
1 1 1 1 1 1 1 1 1 
1 1 1 1 1 1 1 1 1 
1 1 1 1 1 1 1 1 1 
1 1 1 1 1 1 1 1 1 
1 1 1 1 1 1 1 1 1 
1 1 1 1 1 1 1 1 1 
1 1 1 1 1 1 1 1 1 
1 1 1 1 1 1 1 1 1 
1 1 1 1 1 1 1 1 1 
1 1 1 1 1 1 1 1 1 
1 1 1 1 1 1 1 1 1 
1 1 1 1 1 1 1 1 1 
1 1 1 1 1 1 1 1 1 
1 1 1 1 1 
i 3 851 int
0 0 0 0 0 0 0 0 0 
0 0 0 0 0 0 0 0 0 
0 0 0 0 0 0 0 0 0 
0 0 0 0 0 0 0 0 0 
0 0 0 0 0 0 0 0 0 
0 0 0 0 0 0 0 0 0 
0 0 0 0 0 0 0 0 0 
0 0 0 0 0 0 0 0 0 
0 0 0 0 0 0 0 0 0 
0 0 0 0 0 0 0 0 0 
0 0 0 0 0 0 0 0 0 
0 0 0 0 0 0 0 0 0 
0 0 0 0 0 0 0 0 0 
0 0 0 0 0 0 0 0 0 
0 0 0 0 0 0 0 0 0 
0 0 0 0 0 0 0 0 0 
0 0 0 0 0 0 0 0 0 
0 0 0 0 0 0 0 0 0 
0 0 0 0 0 0 0 0 0 
0 0 0 0 0 0 0 0 0 
0 0 0 0 0 0 0 0 0 
0 0 0 0 0 0 0 0 0 
0 0 0 0 0 0 0 0 0 
0 0 0 0 0 0 0 0 0 
0 0 0 0 0 0 0 0 0 
0 0 0 0 0 0 0 0 0 
0 0 0 0 0 0 0 0 0 
0 0 0 0 0 0 0 0 0 
0 0 0 0 0 0 0 0 0 
0 0 0 0 0 0 0 0 0 
0 0 0 0 0 0 0 0 0 
0 0 0 0 0 0 0 0 0 
0 0 0 0 0 0 0 0 0 
0 0 0 0 0 0 0 0 0 
0 0 0 0 0 0 0 0 0 
0 0 0 0 0 0 0 0 0 
0 0 0 0 0 0 0 0 0 
0 0 0 0 0 0 0 0 0 
0 0 0 0 0 0 0 0 0 
0 0 0 0 0 0 0 0 0 
0 0 0 0 0 0 0 0 0 
0 0 0 0 0 0 0 0 0 
0 0 0 0 0 0 0 0 0 
0 0 0 0 0 0 0 0 0 
0 0 0 0 0 0 0 0 0 
0 0 0 0 0 0 0 0 0 
0 0 0 0 0 0 0 0 0 
0 0 0 0 0 0 0 0 0 
0 0 0 0 0 0 0 0 0 
0 0 0 0 0 0 0 0 0 
0 0 0 0 0 0 0 0 0 
0 0 0 0 0 0 0 0 0 
0 0 0 0 0 0 0 0 0 
0 0 0 0 0 0 0 0 0 
0 0 0 0 0 0 0 0 0 
0 0 0 0 0 0 0 0 0 
0 0 0 0 0 0 0 0 0 
0 0 0 0 0 0 0 0 0 
0 0 0 0 0 0 0 0 0 
0 0 0 0 0 0 0 0 0 
0 0 0 0 0 0 0 0 0 
0 0 0 0 0 0 0 0 0 
0 0 0 0 0 0 0 0 0 
0 0 0 0 0 0 0 0 0 
0 0 0 0 0 0 0 0 0 
0 0 0 0 0 0 0 0 0 
0 0 0 0 0 0 0 0 0 
0 0 0 0 0 0 0 0 0 
0 0 0 0 0 0 0 0 0 
0 0 0 0 0 0 0 0 0 
0 0 0 0 0 0 0 0 0 
0 0 0 0 0 0 0 0 0 
0 0 0 0 0 0 0 0 0 
0 0 0 0 0 0 0 0 0 
0 0 0 0 0 0 0 0 0 
0 0 0 0 0 0 0 0 0 
0 0 0 0 0 0 0 0 0 
0 0 0 0 0 0 0 0 0 
0 0 0 0 0 0 0 0 0 
0 0 0 0 0 0 0 0 0 
0 0 0 0 0 0 0 0 0 
0 0 0 0 0 0 0 0 0 
0 0 0 0 0 0 0 0 0 
0 0 0 0 0 0 0 0 0 
0 0 0 0 0 0 0 0 0 
0 0 0 0 0 0 0 0 0 
0 0 0 0 0 0 0 0 0 
0 0 0 0 0 0 0 0 0 
0 0 0 0 0 0 0 0 0 
0 0 0 0 0 0 0 0 0 
0 0 0 0 0 0 0 0 0 
0 0 0 0 0 0 0 0 0 
0 0 0 0 0 0 0 0 0 
0 0 0 0 0 0 0 0 0 
0 0 0 0 0 0 0 0 0 
0 0 0 0 0 0 0 0 0 
0 0 0 0 0 0 0 0 0 
0 0 0 0 0 0 0 0 0 
0 0 0 0 0 0 0 0 0 
0 0 0 0 0 0 0 0 0 
0 0 0 0 0 0 0 0 0 
0 0 0 0 0 0 0 0 0 
0 0 0 0 0 0 0 0 0 
0 0 0 0 0 0 0 0 0 
0 0 0 0 0 0 0 0 0 
0 0 0 0 0 0 0 0 0 
0 0 0 0 0 0 0 0 0 
0 0 0 0 0 0 0 0 0 
0 0 0 0 0 0 0 0 0 
0 0 0 0 0 0 0 0 0 
0 0 0 0 0 0 0 0 0 
0 0 0 0 0 0 0 0 0 
0 0 0 0 0 0 0 0 0 
0 0 0 0 0 0 0 0 0 
0 0 0 0 0 0 0 0 0 
0 0 0 0 0 0 0 0 0 
0 0 0 0 0 0 0 0 0 
0 0 0 0 0 0 0 0 0 
0 0 0 0 0 0 0 0 0 
0 0 0 0 0 0 0 0 0 
0 0 0 0 0 0 0 0 0 
0 0 0 0 0 0 0 0 0 
0 0 0 0 0 0 0 0 0 
0 0 0 0 0 0 0 0 0 
0 0 0 0 0 0 0 0 0 
0 0 0 0 0 0 0 0 0 
0 0 0 0 0 0 0 0 0 
0 0 0 0 0 0 0 0 0 
0 0 0 0 0 0 0 0 0 
0 0 0 0 0 0 0 0 0 
0 0 0 0 0 0 0 0 0 
0 0 0 0 0 0 0 0 0 
0 0 0 0 0 0 0 0 0 
0 0 0 0 0 0 0 0 0 
0 0 0 0 0 0 0 0 0 
0 0 0 0 0 0 0 0 0 
0 0 0 0 0 0 0 0 0 
0 0 0 0 0 0 0 0 0 
0 0 0 0 0 0 0 0 0 
0 0 0 0 0 0 0 0 0 
0 0 0 0 0 0 0 0 0 
0 0 0 0 0 0 0 0 0 
0 0 0 0 0 0 0 0 0 
0 0 0 0 0 0 0 0 0 
0 0 0 0 0 0 0 0 0 
0 0 0 0 0 0 0 0 0 
0 0 0 0 0 0 0 0 0 
0 0 0 0 0 0 0 0 0 
0 0 0 0 0 0 0 0 0 
0 0 0 0 0 0 0 0 0 
0 0 0 0 0 0 0 0 0 
0 0 0 0 0 0 0 0 0 
0 0 0 0 0 0 0 0 0 
0 0 0 0 0 0 0 0 0 
0 0 0 0 0 0 0 0 0 
0 0 0 0 0 0 0 0 0 
0 0 0 0 0 0 0 0 0 
0 0 0 0 0 0 0 0 0 
0 0 0 0 0 0 0 0 0 
0 0 0 0 0 0 0 0 0 
0 0 0 0 0 0 0 0 0 
0 0 0 0 0 0 0 0 0 
0 0 0 0 0 0 0 0 0 
0 0 0 0 0 0 0 0 0 
0 0 0 0 0 0 0 0 0 
0 0 0 0 0 0 0 0 0 
0 0 0 0 0 0 0 0 0 
0 0 0 0 0 0 0 0 0 
0 0 0 0 0 0 0 0 0 
0 0 0 0 0 0 0 0 0 
0 0 0 0 0 0 0 0 0 
0 0 0 0 0 0 0 0 0 
0 0 0 0 0 0 0 0 0 
0 0 0 0 0 0 0 0 0 
0 0 0 0 0 0 0 0 0 
0 0 0 0 0 0 0 0 0 
0 0 0 0 0 0 0 0 0 
0 0 0 0 0 0 0 0 0 
0 0 0 0 0 0 0 0 0 
0 0 0 0 0 0 0 0 0 
0 0 0 0 0 0 0 0 0 
0 0 0 0 0 0 0 0 0 
0 0 0 0 0 0 0 0 0 
0 0 0 0 0 0 0 0 0 
0 0 0 0 0 0 0 0 0 
0 0 0 0 0 0 0 0 0 
0 0 0 0 0 0 0 0 0 
0 0 0 0 0 0 0 0 0 
0 0 0 0 0 0 0 0 0 
0 0 0 0 0 0 0 0 0 
0 0 0 0 0 0 0 0 0 
0 0 0 0 0 0 0 0 0 
0 0 0 0 0 0 0 0 0 
0 0 0 0 0 0 0 0 0 
0 0 0 0 0 0 0 0 0 
0 0 0 0 0 0 0 0 0 
0 0 0 0 0 0 0 0 0 
0 0 0 0 0 0 0 0 0 
0 0 0 0 0 0 0 0 0 
0 0 0 0 0 0 0 0 0 
0 0 0 0 0 0 0 0 0 
0 0 0 0 0 0 0 0 0 
0 0 0 0 0 0 0 0 0 
0 0 0 0 0 0 0 0 0 
0 0 0 0 0 0 0 0 0 
0 0 0 0 0 0 0 0 0 
0 0 0 0 0 0 0 0 0 
0 0 0 0 0 0 0 0 0 
0 0 0 0 0 0 0 0 0 
0 0 0 0 0 0 0 0 0 
0 0 0 0 0 0 0 0 0 
0 0 0 0 0 0 0 0 0 
0 0 0 0 0 0 0 0 0 
0 0 0 0 0 0 0 0 0 
0 0 0 0 0 0 0 0 0 
0 0 0 0 0 0 0 0 0 
0 0 0 0 0 0 0 0 0 
0 0 0 0 0 0 0 0 0 
0 0 0 0 0 0 0 0 0 
0 0 0 0 0 0 0 0 0 
0 0 0 0 0 0 0 0 0 
0 0 0 0 0 0 0 0 0 
0 0 0 0 0 0 0 0 0 
0 0 0 0 0 0 0 0 0 
0 0 0 0 0 0 0 0 0 
0 0 0 0 0 0 0 0 0 
0 0 0 0 0 0 0 0 0 
0 0 0 0 0 0 0 0 0 
0 0 0 0 0 0 0 0 0 
0 0 0 0 0 0 0 0 0 
0 0 0 0 0 0 0 0 0 
0 0 0 0 0 0 0 0 0 
0 0 0 0 0 0 0 0 0 
0 0 0 0 0 0 0 0 0 
0 0 0 0 0 0 0 0 0 
0 0 0 0 0 0 0 0 0 
0 0 0 0 0 0 0 0 0 
0 0 0 0 0 0 0 0 0 
0 0 0 0 0 0 0 0 0 
0 0 0 0 0 0 0 0 0 
0 0 0 0 0 0 0 0 0 
0 0 0 0 0 0 0 0 0 
0 0 0 0 0 0 0 0 0 
0 0 0 0 0 0 0 0 0 
0 0 0 0 0 0 0 0 0 
0 0 0 0 0 0 0 0 0 
0 0 0 0 0 0 0 0 0 
0 0 0 0 0 0 0 0 0 
0 0 0 0 0 0 0 0 0 
0 0 0 0 0 0 0 0 0 
0 0 0 0 0 0 0 0 0 
0 0 0 0 0 0 0 0 0 
0 0 0 0 0 0 0 0 0 
0 0 0 0 0 0 0 0 0 
0 0 0 0 0 0 0 0 0 
0 0 0 0 0 0 0 0 0 
0 0 0 0 0 0 0 0 0 
0 0 0 0 0 0 0 0 0 
0 0 0 0 0 0 0 0 0 
0 0 0 0 0 0 0 0 0 
0 0 0 0 0 0 0 0 0 
0 0 0 0 0 0 0 0 0 
0 0 0 0 0 0 0 0 0 
0 0 0 0 0 0 0 0 0 
0 0 0 0 0 0 0 0 0 
0 0 0 0 0 0 0 0 0 
0 0 0 0 0 0 0 0 0 
0 0 0 0 0 0 0 0 0 
0 0 0 0 0 0 0 0 0 
0 0 0 0 0 0 0 0 0 
0 0 0 0 0 0 0 0 0 
0 0 0 0 0 0 0 0 0 
0 0 0 0 0 0 0 0 0 
0 0 0 0 0 0 0 0 0 
0 0 0 0 0 0 0 0 0 
0 0 0 0 0 0 0 0 0 
0 0 0 0 0 0 0 0 0 
0 0 0 0 0 0 0 0 0 
0 0 0 0 0 0 0 0 0 
0 0 0 0 0 0 0 0 0 
0 0 0 0 0 0 0 0 0 
0 0 0 0 0 0 0 0 0 
0 0 0 0 0 0 0 0 0 
0 0 0 0 0 0 
v 3 851 double
0 0 -1 0 0 -1 0 0 -1 
0 0 -1 0 0 -1 0 0 -1 
0 0 -1 -1.16734 0.234822 -1.83939 -1.127 0.250494 -1.83795 
-1.00294 0.0450333 -1.79575 -1.02326 0.0062165 -1.78522 -0.945535 0.102847 -1.74256 
-1.15937 0.122977 -1.77328 -0.802616 0.032427 -1.78464 -1.02165 0.0628256 -1.75874 
-1.02475 -0.0380415 -1.69141 -0.998172 0.00324232 -1.70725 -0.907793 -0.0395894 -1.78255 
-1.11506 0.113075 -1.74025 -0.985926 0.0910313 -1.70904 -0.986794 0.0972019 -1.67736 
-0.985956 -0.081936 -1.72058 -0.932285 -0.0356725 -1.66907 -0.960552 0.055869 -1.67525 
-0.830709 0.00649009 -1.65016 -0.998069 0.0921414 -1.67341 -0.936143 0.0770964 -1.64652 
-1.0468 -0.0181709 -1.66698 -0.958901 -0.0291744 -1.65745 -1.02025 0.0212255 -1.66962 
-1.03062 0.0246284 -1.62434 -0.989511 0.0470919 -1.64887 -1.2071 0.118193 -1.67254 
-0.927079 -0.0147077 -1.58037 -1.10461 -0.00201365 -1.83743 -0.83647 0.00317316 -1.55197 
-0.916555 -0.0428759 -1.57962 -0.865025 -0.02127 -1.54406 -1.03862 0.0475926 -1.5749 
-0.874009 -0.0623955 -1.49475 -1.1763 0.00426347 -1.56084 -0.963324 0.0173019 -1.51675 
-0.929813 0.0235185 -1.46483 -0.913514 0.0195782 -1.46204 -0.902815 0.0202269 -1.46618 
-0.900739 0.0568734 -1.43935 -1.20355 0.403443 -1.54971 -0.917868 -0.00366522 -1.45744 
-0.988834 0.0827193 -1.46763 -0.947958 -0.0147564 -1.4156 -0.899669 0.0500074 -1.41203 
-0.821007 -0.105127 -1.46489 -0.95286 0.00749167 -1.4293 -1.02361 0.0238263 -1.44636 
-0.856095 0.00445023 -1.42029 -0.887789 0.0696155 -1.391 -0.883967 0.0901125 -1.39682 
-1.02207 0.115487 -1.40882 -0.920656 -0.0836542 -1.42656 -0.836625 0.0235689 -1.3557 
-1.25276 0.059688 -1.35273 -0.90938 -0.0126162 -1.40209 -0.992012 -0.0175397 -1.35337 
-0.985017 0.0114707 -1.37705 -0.783583 -0.013065 -1.33516 -0.741908 -0.056456 -1.3516 
-1.0337 0.0883194 -1.38479 -0.813242 -0.0219888 -1.31206 -0.826899 -0.00636139 -1.3045 
-0.77217 -0.0211985 -1.3034 -0.911898 0.0740498 -1.31617 -1.10297 0.078731 -1.30704 
-0.847886 0.0642132 -1.31326 -0.841524 0.0706231 -1.28198 -0.747405 -0.0878178 -1.2884 
-0.881715 0.0783676 -1.29724 -0.907835 0.00793758 -1.30622 -1.11649 0.0800817 -1.29635 
-0.932769 -0.0510391 -1.24436 -1.09902 0.050074 -1.25385 -0.890207 0.0042187 -1.23034 
-0.886843 0.0505395 -1.25137 -1.06982 -0.0132149 -1.19815 -0.834925 -0.0715943 -1.27687 
-0.892452 0.0461076 -1.21448 -1.02095 -0.00221571 -1.20279 -0.952621 -0.0827262 -1.25 
-1.33097 -0.0228799 -1.32913 -0.923992 0.0449146 -1.19492 -0.868587 0.164076 -1.31888 
-0.907269 0.0650317 -1.16986 -0.783277 -0.00454099 -1.19945 -0.737249 -0.00779239 -1.21117 
-1.00816 0.103532 -1.22075 -1.13436 0.299329 -1.38354 -0.889545 -0.0701608 -1.18211 
-1.11846 -0.048404 -1.1999 -1.05549 -0.0480319 -1.1472 -0.922407 -0.0582402 -1.11168 
-1.03615 -0.096767 -1.25956 -1.15709 -0.0181172 -1.17888 -1.02869 -0.0310242 -1.14075 
-0.902913 -0.0993569 -1.20481 -0.962 -0.0694462 -1.14359 -1.18099 -0.0362559 -1.17997 
-1.06668 0.0265891 -1.1475 -1.078 -0.106667 -1.24108 -1.19167 0.170927 -1.20248 
-1.11949 0.167175 -1.183 -1.03912 0.179637 -1.07747 -1.04419 0.00270785 -1.18823 
-1.09224 0.110728 -1.13611 -1.14883 0.0206661 -1.0743 -1.18391 0.0946498 -1.09491 
-0.922908 -0.00855259 -1.09392 -1.0596 -0.0353087 -1.01887 -1.08371 -0.0310382 -1.10313 
-1.31979 0.343589 -1.30172 -1.14115 0.0911963 -1.06311 -0.888324 0.111072 -1.06446 
-1.01804 0.0191447 -1.0711 -1.13995 0.0204375 -1.07861 -1.15177 0.220647 -1.3008 
-1.14328 0.108922 -1.06699 -1.12301 0.0663455 -1.05704 -1.11941 0.0637183 -1.00371 
-1.00189 0.0176786 -1.07217 -1.06723 -0.0686863 -1.096 -1.1271 0.118884 -1.01982 
-1.11575 0.0676828 -1.00344 -0.93597 0.131981 -0.944768 -0.992278 0.0598137 -1.03792 
-1.12192 0.120817 -0.965449 -1.11387 0.0559059 -0.974331 -1.0274 -0.0230512 -0.975508 
-1.03934 0.0178391 -0.962787 -0.987036 0.138615 -0.986785 -1.28537 0.0283749 -1.05145 
-1.14596 -0.0612819 -1.00534 -1.22023 -0.181269 -0.922087 -0.90244 -0.0510176 -1.03015 
-1.09572 0.00565963 -0.923515 -1.08264 -0.000809601 -0.901723 -1.13508 -0.11797 -0.943424 
-0.991234 -0.0147167 -0.923781 -1.00888 0.131795 -0.940577 -1.00778 0.00330398 -0.882025 
-1.11009 0.0124761 -0.884722 -1.05017 -0.0886814 -0.839472 -1.0182 -0.0286908 -0.882748 
-0.951432 0.0711594 -0.989866 -1.03892 -0.0314253 -0.873706 -1.06718 0.0399869 -0.867316 
-1.03755 0.111512 -0.880982 -1.1052 0.141449 -0.873836 -0.983859 -0.0996424 -0.898114 
-0.99769 -0.0104395 -0.917015 -1.10372 -0.0456387 -0.77472 -1.15167 0.144025 -0.861332 
-1.14947 0.212352 -0.840641 -1.06813 0.06364 -0.83957 -1.05978 0.218588 -0.559249 
-0.973821 0.174898 -0.939497 -0.777167 0.222125 -1.07368 -1.08557 0.122023 -0.769387 
-1.11864 0.00700779 -0.653617 -1.08035 -0.115029 -0.815029 -1.26557 0.379457 -0.775819 
-1.05616 0.0192461 -0.680039 -1.13461 -0.0606251 -0.606751 -0.973599 0.0427895 -0.768705 
-1.10879 -0.0460236 -0.785481 -1.03594 0.157467 -0.752109 -0.974439 0.0633126 -0.71854 
-0.907701 0.0928773 -0.746241 -1.07679 0.0398576 -0.685378 -1.12819 -0.0297836 -0.616857 
-0.833997 -0.144317 -0.574697 -1.07586 0.0171319 -0.624601 -1.11758 0.0430042 -0.677022 
-1.04184 0.054768 -0.626003 -1.11719 0.0609598 -0.628848 -1.41003 -0.12167 -0.691732 
-1.11144 0.0642141 -0.669483 -1.08007 -0.015469 -0.589564 -0.960922 -0.279847 -0.917784 
-1.05192 -0.106167 -0.853737 -1.11387 -0.0142585 -0.588463 -1.07315 0.0852753 -0.54818 
-1.13776 -0.00446788 -0.585703 -1.07381 0.0346699 -0.514247 -1.10984 -0.00113221 -0.547666 
-1.16576 -0.212064 -0.609165 -1.2456 -0.265711 -0.647181 -1.1616 -0.423929 -0.689812 
-1.18418 -0.166087 -0.721831 -1.19602 -0.173382 -0.744372 -1.00913 0.170515 -0.619564 
-1.14453 0.191554 -0.719982 -1.06009 0.0648436 -0.544236 -1.04906 0.0407364 -0.491646 
-1.03107 0.0646933 -0.491908 -1.06822 0.158629 -0.451481 -1.08378 0.156161 -0.459497 
-0.98714 0.13672 -0.5132 -1.01749 0.112974 -0.635789 -1.0972 0.111357 -0.525006 
-1.0629 0.0841419 -0.420239 -0.970187 0.0494704 -0.420246 -1.16044 0.0667025 -0.479046 
-1.05094 0.142223 -0.432741 -0.935019 0.122511 -0.410965 -1.09814 0.103518 -0.458689 
-1.1186 -0.257245 -0.445918 -1.11579 0.231346 -0.725506 -1.05566 -0.0184654 -0.461109 
-1.1071 0.0411935 -0.468329 -1.002 0.0692329 -0.425599 -1.00276 0.152395 -0.428791 
-1.03956 0.066644 -0.461898 -1.07572 -0.000151797 -0.453409 -1.09397 -0.0848768 -0.465876 
-1.04049 -0.100457 -0.453913 -1.14777 0.0430504 -0.528118 -1.03263 0.0818018 -0.562055 
-1.12026 0.0502928 -0.477023 -1.16312 0.0342279 -0.49224 -1.03198 0.025541 -0.433136 
-1.00794 -0.00487695 -0.425114 -0.958685 -0.0827575 -0.40932 -1.05022 -0.0886012 -0.510467 
-1.0782 -0.0717097 -0.463619 -0.940737 -0.0987881 -0.416426 -1.09575 0.0380446 -0.464537 
-1.13018 0.0814763 -0.479402 -1.08213 -0.0017676 -0.456779 -0.987512 0.000918941 -0.416472 
-0.99776 -0.0163787 -0.425335 -1.05034 -0.0544689 -0.447075 -1.10177 -0.104919 -0.479498 
-1.08152 -0.0827714 -0.466292 -1.06183 -0.0659783 -0.475314 -1.02862 -0.0448613 -0.437335 
-1.35762 -0.171244 -0.605827 -1.08459 0.00272156 -0.456062 -1.03655 0.0244869 -0.437756 
-1.01157 -0.0737627 -0.424095 -0.916539 -0.067721 -0.390215 -1.30561 -0.144317 -0.467513 
-0.916937 -0.0719303 -0.38279 -0.97369 -0.0989184 -0.465442 -0.997588 -0.0480325 -0.435555 
-1.09304 -0.20142 -0.494227 -1.10989 -0.176364 -0.374274 -1.05921 -0.0562946 -0.431446 
-1.01161 0.0286965 -0.427077 -1.05264 -0.104761 -0.436858 -1.06302 -0.0994392 -0.444157 
-0.9171 0.00374211 -0.378337 -0.900952 -0.0139444 -0.387084 -0.896764 -0.0624026 -0.431075 
-0.933092 0.0171367 -0.378406 -0.945973 -0.10293 -0.407469 -0.912305 -0.0873072 -0.40834 
-1.05718 0.0460242 -0.44787 -0.97886 0.0098725 -0.41156 -0.975951 -0.0840171 -0.412869 
-1.0061 -0.123482 -0.432687 -0.984656 -0.177101 -0.406227 -0.98697 -0.0946674 -0.417766 
-0.908698 -0.186071 -0.449385 -1.13645 -0.0400345 -0.483139 -0.915999 0.0188032 -0.389186 
-0.98111 0.0640472 -0.417267 -0.932285 0.0309935 -0.397628 -0.938452 -0.0780633 -0.39091 
-0.863756 -0.0431252 -0.372703 -1.00973 -0.00635018 -0.422408 -1.08629 -0.0493902 -0.466871 
-0.953747 -0.04535 -0.402947 -1.23134 -0.197372 -0.56761 -0.807072 -0.10186 -0.351483 
-0.977634 0.0847521 -0.418899 -0.996901 0.0469492 -0.455387 -0.991493 0.0549087 -0.446203 
-0.972303 0.0642779 -0.42087 -0.903648 0.0433977 -0.382604 -0.961492 0.0981942 -0.413044 
-1.01692 0.0131853 -0.430921 -0.98833 -0.00981353 -0.421569 -0.864841 0.103677 -0.368009 
-0.870259 -0.0868673 -0.380927 -1.31732 -0.0435875 -0.547436 -0.935218 0.0667968 -0.441459 
-0.932707 0.0785282 -0.415013 -1.22282 0.132223 -0.503853 -0.998139 0.0331885 -0.417002 
-0.912045 0.0109794 -0.37606 -0.910833 0.0531471 -0.420718 -0.874938 0.00459679 -0.371487 
-1.26787 0.0177786 -0.400925 -1.06459 -0.122489 -0.457343 -0.895288 0.0161693 -0.383716 
-0.93935 -0.0502942 -0.402607 -0.930049 -0.0455668 -0.410827 -0.895397 -0.0343869 -0.385194 
-0.759112 0.174437 -0.28909 -0.914044 0.0257339 -0.37717 -1.00107 -0.0270435 -0.42539 
-1.07086 0.0391282 -0.397491 -0.865039 0.0227948 -0.377309 -0.958537 -0.0226687 -0.405057 