# vtk DataFile Version 4.0
Generated by LIGGGHTS
ASCII
DATASET POLYDATA
POINTS 4848 float
-0.0261091 0.144235 -0.0161957 -0.0357302 0.142636 -0.0128077 -0.0231231 0.145369 -0.00601315 
-0.0357302 0.142636 -0.0128077 -0.0328423 0.142836 -0.00245516 -0.0231231 0.145369 -0.00601315 
-0.0357302 0.142636 -0.0128077 -0.0453782 0.140057 -0.00937304 -0.0328423 0.142836 -0.00245516 
-0.0231231 0.145369 -0.00601315 -0.0328423 0.142836 -0.00245516 -0.0202964 0.145615 0.00444543 
-0.0453782 0.140057 -0.00937304 -0.0425434 0.139267 0.00106931 -0.0328423 0.142836 -0.00245516 
-0.0425434 0.139267 0.00106931 -0.0300724 0.142077 0.00809949 -0.0328423 0.142836 -0.00245516 
-0.0425434 0.139267 0.00106931 -0.0397967 0.137453 0.0116644 -0.0300724 0.142077 0.00809949 
-0.0328423 0.142836 -0.00245516 -0.0300724 0.142077 0.00809949 -0.0202964 0.145615 0.00444543 
-0.0453782 0.140057 -0.00937304 -0.0550134 0.136452 -0.00596047 -0.0425434 0.139267 0.00106931 
-0.0550134 0.136452 -0.00596047 -0.0521938 0.134626 0.00450693 -0.0425434 0.139267 0.00106931 
-0.0550134 0.136452 -0.00596047 -0.0645898 0.131793 -0.00264992 -0.0521938 0.134626 0.00450693 
-0.0425434 0.139267 0.00106931 -0.0521938 0.134626 0.00450693 -0.0397967 0.137453 0.0116644 
-0.0202964 0.145615 0.00444543 -0.0300724 0.142077 0.00809949 -0.0176009 0.144882 0.0151311 
-0.0300724 0.142077 0.00809949 -0.0273988 0.140274 0.0188223 -0.0176009 0.144882 0.0151311 
-0.0300724 0.142077 0.00809949 -0.0397967 0.137453 0.0116644 -0.0273988 0.140274 0.0188223 
-0.0176009 0.144882 0.0151311 -0.0273988 0.140274 0.0188223 -0.015 0.143091 0.0259808 
0.0182398 0.139663 -0.0315922 0.00698512 0.142819 -0.0274531 0.0103416 0.146757 -0.0179121 
0.00698512 0.142819 -0.0274531 -0.00117869 0.147651 -0.013313 0.0103416 0.146757 -0.0179121 
0.00698512 0.142819 -0.0274531 -0.00419548 0.144565 -0.0234422 -0.00117869 0.147651 -0.013313 
0.0103416 0.146757 -0.0179121 -0.00117869 0.147651 -0.013313 0.00183228 0.149899 -0.00317361 
-0.00419548 0.144565 -0.0234422 -0.0122898 0.14709 -0.00942247 -0.00117869 0.147651 -0.013313 
-0.0122898 0.14709 -0.00942247 -0.00922286 0.14836 0.00061996 -0.00117869 0.147651 -0.013313 
-0.0122898 0.14709 -0.00942247 -0.0202964 0.145615 0.00444543 -0.00922286 0.14836 0.00061996 
-0.00117869 0.147651 -0.013313 -0.00922286 0.14836 0.00061996 0.00183228 0.149899 -0.00317361 
-0.00419548 0.144565 -0.0234422 -0.0152433 0.144997 -0.0196614 -0.0122898 0.14709 -0.00942247 
-0.0152433 0.144997 -0.0196614 -0.0231231 0.145369 -0.00601315 -0.0122898 0.14709 -0.00942247 
-0.0152433 0.144997 -0.0196614 -0.0261091 0.144235 -0.0161957 -0.0231231 0.145369 -0.00601315 
-0.0122898 0.14709 -0.00942247 -0.0231231 0.145369 -0.00601315 -0.0202964 0.145615 0.00444543 
0.00183228 0.149899 -0.00317361 -0.00922286 0.14836 0.00061996 -0.00679566 0.148608 0.0117704 
-0.00922286 0.14836 0.00061996 -0.0176009 0.144882 0.0151311 -0.00679566 0.148608 0.0117704 
-0.00922286 0.14836 0.00061996 -0.0202964 0.145615 0.00444543 -0.0176009 0.144882 0.0151311 
-0.00679566 0.148608 0.0117704 -0.0176009 0.144882 0.0151311 -0.015 0.143091 0.0259808 
-0.36141 0.06 -0.174019 -0.34673 0.0694154 -0.173825 -0.357715 0.0668947 -0.18042 
-0.34673 0.0694154 -0.173825 -0.342453 0.0743814 -0.181233 -0.357715 0.0668947 -0.18042 
-0.34673 0.0694154 -0.173825 -0.331536 0.0767283 -0.174522 -0.342453 0.0743814 -0.181233 
-0.357715 0.0668947 -0.18042 -0.342453 0.0743814 -0.181233 -0.353368 0.0720365 -0.187948 
-0.331536 0.0767283 -0.174522 -0.326648 0.0794714 -0.182988 -0.342453 0.0743814 -0.181233 
-0.326648 0.0794714 -0.182988 -0.337711 0.0770677 -0.189446 -0.342453 0.0743814 -0.181233 
-0.326648 0.0794714 -0.182988 -0.321908 0.0795014 -0.191197 -0.337711 0.0770677 -0.189446 
-0.342453 0.0743814 -0.181233 -0.337711 0.0770677 -0.189446 -0.353368 0.0720365 -0.187948 
-0.331536 0.0767283 -0.174522 -0.316048 0.0817378 -0.175727 -0.326648 0.0794714 -0.182988 
-0.316048 0.0817378 -0.175727 -0.311163 0.0819943 -0.184187 -0.326648 0.0794714 -0.182988 
-0.316048 0.0817378 -0.175727 -0.300441 0.0844728 -0.177138 -0.311163 0.0819943 -0.184187 
-0.326648 0.0794714 -0.182988 -0.311163 0.0819943 -0.184187 -0.321908 0.0795014 -0.191197 
-0.353368 0.0720365 -0.187948 -0.337711 0.0770677 -0.189446 -0.348507 0.0747356 -0.196367 
-0.337711 0.0770677 -0.189446 -0.332676 0.0769956 -0.198168 -0.348507 0.0747356 -0.196367 
-0.337711 0.0770677 -0.189446 -0.321908 0.0795014 -0.191197 -0.332676 0.0769956 -0.198168 
-0.348507 0.0747356 -0.196367 -0.332676 0.0769956 -0.198168 -0.343466 0.0744783 -0.205099 
-0.36141 0.06 -0.174019 -0.349101 0.0632997 -0.166913 -0.34673 0.0694154 -0.173825 
-0.349101 0.0632997 -0.166913 -0.334233 0.0726332 -0.167031 -0.34673 0.0694154 -0.173825 
-0.349101 0.0632997 -0.166913 -0.336781 0.0665453 -0.1598 -0.334233 0.0726332 -0.167031 
-0.34673 0.0694154 -0.173825 -0.334233 0.0726332 -0.167031 -0.331536 0.0767283 -0.174522 
-0.336781 0.0665453 -0.1598 -0.321728 0.0758042 -0.16023 -0.334233 0.0726332 -0.167031 
-0.321728 0.0758042 -0.16023 -0.318891 0.0797592 -0.167962 -0.334233 0.0726332 -0.167031 
-0.321728 0.0758042 -0.16023 -0.30621 0.0827804 -0.161466 -0.318891 0.0797592 -0.167962 
-0.334233 0.0726332 -0.167031 -0.318891 0.0797592 -0.167962 -0.331536 0.0767283 -0.174522 
-0.336781 0.0665453 -0.1598 -0.324452 0.0697443 -0.152682 -0.321728 0.0758042 -0.16023 
-0.324452 0.0697443 -0.152682 -0.309221 0.0789279 -0.153411 -0.321728 0.0758042 -0.16023 
-0.324452 0.0697443 -0.152682 -0.312115 0.0729027 -0.145559 -0.309221 0.0789279 -0.153411 
-0.321728 0.0758042 -0.16023 -0.309221 0.0789279 -0.153411 -0.30621 0.0827804 -0.161466 
-0.331536 0.0767283 -0.174522 -0.318891 0.0797592 -0.167962 -0.316048 0.0817378 -0.175727 
-0.318891 0.0797592 -0.167962 -0.303249 0.0845564 -0.169434 -0.316048 0.0817378 -0.175727 
-0.318891 0.0797592 -0.167962 -0.30621 0.0827804 -0.161466 -0.303249 0.0845564 -0.169434 
-0.316048 0.0817378 -0.175727 -0.303249 0.0845564 -0.169434 -0.300441 0.0844728 -0.177138 
-0.0232307 -0.0402774 -0.113106 -0.019784 -0.0553732 -0.107632 -0.0350534 -0.0571121 -0.113287 
-0.019784 -0.0553732 -0.107632 -0.0323285 -0.0715729 -0.106563 -0.0350534 -0.0571121 -0.113287 
-0.019784 -0.0553732 -0.107632 -0.0169855 -0.0702578 -0.101035 -0.0323285 -0.0715729 -0.106563 
-0.0350534 -0.0571121 -0.113287 -0.0323285 -0.0715729 -0.106563 -0.0476702 -0.0727255 -0.112093 
-0.0169855 -0.0702578 -0.101035 -0.0302284 -0.0854147 -0.0987564 -0.0323285 -0.0715729 -0.106563 
-0.0302284 -0.0854147 -0.0987564 -0.045618 -0.0860848 -0.104203 -0.0323285 -0.0715729 -0.106563 
-0.0302284 -0.0854147 -0.0987564 -0.0441283 -0.0984479 -0.0953398 -0.045618 -0.0860848 -0.104203 
-0.0323285 -0.0715729 -0.106563 -0.045618 -0.0860848 -0.104203 -0.0476702 -0.0727255 -0.112093 
-0.0169855 -0.0702578 -0.101035 -0.0148302 -0.0845773 -0.0933241 -0.0302284 -0.0854147 -0.0987564 
-0.0148302 -0.0845773 -0.0933241 -0.0287145 -0.0982984 -0.0899346 -0.0302284 -0.0854147 -0.0987564 
-0.0148302 -0.0845773 -0.0933241 -0.0132844 -0.0979812 -0.0845576 -0.0287145 -0.0982984 -0.0899346 
-0.0302284 -0.0854147 -0.0987564 -0.0287145 -0.0982984 -0.0899346 -0.0441283 -0.0984479 -0.0953398 
-0.0476702 -0.0727255 -0.112093 -0.045618 -0.0860848 -0.104203 -0.0609969 -0.0865883 -0.109669 
-0.045618 -0.0860848 -0.104203 -0.0595237 -0.0984317 -0.100777 -0.0609969 -0.0865883 -0.109669 
-0.045618 -0.0860848 -0.104203 -0.0441283 -0.0984479 -0.0953398 -0.0595237 -0.0984317 -0.100777 
-0.0609969 -0.0865883 -0.109669 -0.0595237 -0.0984317 -0.100777 -0.0748987 -0.0982522 -0.106249 
-0.243873 -0.0974202 -0.133393 -0.236015 -0.0985842 -0.122505 -0.248615 -0.0957295 -0.129246 
-0.236015 -0.0985842 -0.122505 -0.240847 -0.0960639 -0.118201 -0.248615 -0.0957295 -0.129246 
-0.236015 -0.0985842 -0.122505 -0.228309 -0.0989816 -0.111354 -0.240847 -0.0960639 -0.118201 
-0.248615 -0.0957295 -0.129246 -0.240847 -0.0960639 -0.118201 -0.253364 -0.0931483 -0.125086 
-0.228309 -0.0989816 -0.111354 -0.233179 -0.0955877 -0.106992 -0.240847 -0.0960639 -0.118201 
-0.233179 -0.0955877 -0.106992 -0.24563 -0.0926255 -0.11399 -0.240847 -0.0960639 -0.118201 
-0.233179 -0.0955877 -0.106992 -0.237977 -0.0912294 -0.102755 -0.24563 -0.0926255 -0.11399 
-0.240847 -0.0960639 -0.118201 -0.24563 -0.0926255 -0.11399 -0.253364 -0.0931483 -0.125086 
-0.228309 -0.0989816 -0.111354 -0.220726 -0.0985319 -0.0999889 -0.233179 -0.0955877 -0.106992 
-0.220726 -0.0985319 -0.0999889 -0.225606 -0.0942065 -0.0956127 -0.233179 -0.0955877 -0.106992 
-0.220726 -0.0985319 -0.0999889 -0.213232 -0.097167 -0.0884688 -0.225606 -0.0942065 -0.0956127 
-0.233179 -0.0955877 -0.106992 -0.225606 -0.0942065 -0.0956127 -0.237977 -0.0912294 -0.102755 
-0.253364 -0.0931483 -0.125086 -0.24563 -0.0926255 -0.11399 -0.258078 -0.089646 -0.120987 
-0.24563 -0.0926255 -0.11399 -0.250344 -0.0882339 -0.109895 -0.258078 -0.089646 -0.120987 
-0.24563 -0.0926255 -0.11399 -0.237977 -0.0912294 -0.102755 -0.250344 -0.0882339 -0.109895 
-0.258078 -0.089646 -0.120987 -0.250344 -0.0882339 -0.109895 -0.262708 -0.0852181 -0.117033 
-0.243873 -0.0974202 -0.133393 -0.234998 -0.0988803 -0.137827 -0.228418 -0.100803 -0.12708 
-0.234998 -0.0988803 -0.137827 -0.219412 -0.101809 -0.131739 -0.228418 -0.100803 -0.12708 
-0.234998 -0.0988803 -0.137827 -0.225971 -0.0987098 -0.142524 -0.219412 -0.101809 -0.131739 
-0.228418 -0.100803 -0.12708 -0.219412 -0.101809 -0.131739 -0.212901 -0.104064 -0.120872 
-0.225971 -0.0987098 -0.142524 -0.2102 -0.101087 -0.136756 -0.219412 -0.101809 -0.131739 
-0.2102 -0.101087 -0.136756 -0.203737 -0.104585 -0.125806 -0.219412 -0.101809 -0.131739 
-0.2102 -0.101087 -0.136756 -0.194347 -0.103263 -0.13113 -0.203737 -0.104585 -0.125806 
-0.219412 -0.101809 -0.131739 -0.203737 -0.104585 -0.125806 -0.212901 -0.104064 -0.120872 
-0.225971 -0.0987098 -0.142524 -0.216761 -0.0966912 -0.147537 -0.2102 -0.101087 -0.136756 
-0.216761 -0.0966912 -0.147537 -0.200837 -0.0984036 -0.142034 -0.2102 -0.101087 -0.136756 
[...]
CELL_DATA 1616
FIELD FieldData 3
normal_stress_average 1 1616 double
0 0 0 0 0 0 0 0 0 
0 0 0 0 0 0 0 0 0 
0 0 0 0 0 0 0 0 0 
0 0 0 0 0 0 0 0 0 
0 0 0 0 0 0 0 0 0 
0 0 0 0 0 0 0 0 0 
0 0 0 0 0 0 0 0 0 
0 0 0 0 0 0 0 0 0 
0 0 0 0 0 0 0 0 0 
0 0 0 0 0 0 0 0 0 
0 0 0 0 0 0 -0 -0 -0 
-0 -0 -0 -0 -0 -0 0 0 0 
-0 -0 -0 -0 0 0 0 0 0 
0 0 0 0 0 0 0 0 -0 
-0 -0 0 0 0 739.447 0 0 858.452 
828.317 0 0 0 0 0 46.0203 0 0 
0 0 0 0 0 0 0 0 -0 
-0 -0 -0 0 0 0 0 0 0 
0 2.75123 0 0 0 0 0 0 0 
0 0 0 0 0 0 0 0 0 
0 0 0 0 0 0 0 0 0 
0 0 0 0 0 0 0 0 0 
0 0 0 0 8.38646 28.1161 0 0 0 
0 0 0 0 0 0 0 0 0 
0 0 0 0 0 0 0 0 0 
0 0 0 0 0 0 0 0 0 
0 0 0 0 0 0 0 0 0 
0 0 0 0 0 0 0 0 0 
0 0 0 0 0 0 0 0 0 
0 0 0 0 0 0 0 0 0 
0 0 0 0 0 0 0 0 0 
0 0 0 0 0 0 0 0 0 
0 0 0 0 0 0 0 0 0 
0 0 0 0 0 0 0 0 0 
0 0 0 0 0 0 0 0 0 
0 0 0 0 0 0 0 2.50222 0 
10.485 0 2.70381 0 5.59727 8.67708 16.1543 0 2.21549 
0 0 2.57646 0 0 0 0 0 0 
0 0 0 0 0 0 0 0 0 
0 0 -0 0 -0 0 0 0 -0 
0 0 0 0 -0 -0 0 -0 0 
0 0 0 0 0 0 0 0 0 
0 0 0 0 0 0 3.39694 153.193 0 
0 0 0 0 0 0 0 0 0 
0 0 0 0 11.351 8.58217 70.6871 75.1689 0.0107118 
0 35.421 7.65146 548.02 395.857 19.4116 2.33371 0 0 
0 0 6.32074 19.4442 0 9.53699 7.41616 53.5377 83.4073 
0 29.3309 32.065 9.90251 0 0 0 0 0 
0 0 0 6.0925 28.5611 6.12218 0 6.07306 0 
12.8451 0 0 0 0 52.1218 0 -0 -0 
0 -0 0 0 0 -0 0 0 0 
0 -0 -0 0 -0 0 0 0 0 
0 0 0 0 0 0 0 0 0 
0 0 0 0 0 0 0 0 0 
0 0 0 0 0 0 0 0 0 
0 0 0 0 0 0 0 0 0 
0 0 0 0 -0 -0 -0 -0 -0 
-0 -0 -0 -0 -0 -0 -0 0 0 
0 0 -0 -0 -0 -0 0 0 0 
0 0 0 0 0 0 0 0 0 
0 0 0 0 0 0 0 0 0 
0 0 0 0 0 0 0 0 0 
0 0 0 0 0 0 0 0 0 
0 0 0 0 0 0 0 0 0 
0 0 0 42.3413 11.868 16.5532 7.31012 0 3.68595 
52.6934 111.616 16.8967 3.53227 19.2893 3.60919 12.104 0 0 
3.26762 25.4437 0 0 0 0 0 0 0 
0 0 0 14.4077 0 -0 0 0 0 
0 0 0 0 0 0 0 0 0 
0 0 0 0 0 0 0 0 0 
0 0 0 0 0 0 0 0 0 
0 0 0 0 0 0 0 0 0 
0 0 0 0 1.72768 0 0 0 0 
0 0 0 0 0 0 0 0 0 
0 0 0 0 0 0 0 0 0 
0 0 0 0 0 0 0 0 0 
0 0 0 0 24.0103 23.8689 0 31.3852 2.49823 
0 22.821 27.8454 0 0 0 0 2.65366 5.20668 
2.60337 2.73482 0 0 0 0 0 0 0 
3.22054 0 0 0 0 0 16.0462 0 0 
0 0 0 0 0 0 0 0 0 
0 0 0 0 0 0 0 0 0 
0 0 0 0 0 0 0 0 0 
0 0 0 0 0 0 0 0 0 
0 0 0 0 0 0 0 0 0 
0 0 0 0 0 0 0 0 0 
0 0 0 0 0 0 0 0 0 
0 0 0 0 0 0 0 0 0 
0 0 0 0 0 0 0 0 0 
0 0 0 0 0 0 0 0 0 
0 0 0 0 0 0 0 0 6.14247 
0 0 0 0 0 0 0 0 0 
0 0 0 0 3.88168 23.9705 22.7589 0 6.66972 
17.2519 0 14.2454 7.61936 0 16.446 18.137 4.87853 0 
3.94229 19.4684 4.12775 0 0 0 0 0 0 
135.87 0 0 0 0 23.5792 17.9085 4.34698 24.0264 
0 0 0 0 0 0 0 0 2.87081 
0 22.708 0 0 0 0 0 0 0 
0 0 0 0 -0 -0 0 -0 -0 
-0 -0 -0 -0 -0 -0 0 0 0 
0 0 0 0 0 0 0 0 0 
0 0 0 0 0 0 0 0 0 
0 0 0 0 0 0 -0 -0 -0 
-0 0 -0 -0 0 -0 -0 -0 -0 
-0 0 0 0 -0 -0 -0 -0 6.03095 
23.0185 0 0 0 0 0 0 0 0 
0 0 0 0 0 0 0 0 0 
0 0 0 0 0 0 0 0 0 
4.20456 0 35.4107 4.88856 0 0 0 0 126.262 
0 0 0 3.96937 0 0 0 0 0 
0 0 0 0 16.7503 24.5043 0 3.61073 7.82166 
0 0 0 23.3226 8.05496 0 1.35283 0 108.335 
0 0 0 0 0 0 0 0 0 
0 0 0 2.80703 0 30.8123 8.23416 0 0 
3.18577 0 15.6376 0 3.06254 0 0 35.9056 0 
0 0 0 0 0 2.44654 12.2398 0 0 
0 16.5776 32.873 11.8431 12.9047 0 0 0 2.47004 
0 25.5697 6.27585 0 0 25.3356 0 12.4045 0 
13.2424 0 16.3187 17.3249 68.9324 0 8.57665 0 0 
7.94106 0 2.87822 0 2.4144 2.25535 0 0 2.40359 
0 0 1.08901 0 10.2786 2.44642 4.13032 2.69023 0 
0 0 0 0 0 0 0 0 0 
0 0 0 0 0 0 0 0 0 
0 0 0 0 0 0 0 0 0 
0 0 0 0 0 0 0 0 0 
0 0 0 0 0 0 0 0 0 
0 0 0 0 0 0 0 0 0 
0 0 0 0 0 0 0 0 0 
0 0 0 0 0 0 0 0 0 
0 0 0 0 0 0 0 0 0 
0 0 0 0 0 0 0 0 0 
0 0 0 0 0 0 0 0 0 
0 0 0 0 0 0 0 0 0 
0 0 0 -0 0 0 0 0 0 
0 0 0 0 0 0 0 0 0 
0 0 0 0 0 0 0 0 0 
0 0 0 0 0 0 0 0 0 
0 0 0 0 0 0 0 0 0 
0 0 0 0 0 0 0 0 0 
0 0 0 0 0 0 0 0 0 
0 0 0 0 0 0 0 0 0 
0 0 0 0 0 0 0 0 0 
0 0 0 0 0 0 0 0 0 
0 0 0 0 0 0 0 0 0 
0 0 0 0 0 0 0 0 0 
0 0 0 0 0 0 0 0 0 
0 0 0 0 0 0 0 0 0 
0 0 0 0 0 0 0 0 0 
0 0 0 0 0 0 0 0 0 
0 0 0 0 0 0 0 0 0 
0 0 0 0 0 0 0 0 0 
0 13.7645 3.21005 0 0 0 0 0 0 
0 0 0 0 0 0 0 0 0 
0 0 0 0 0 0 0 0 0 
0 0 0 0 0 0 0 0 0 
0 0 0 0 0 0 0 -0 0 
0 0 0 0 -0 -0 -0 0 -0 
-0 -0 0 0 -0 0 -0 0 0 
0 0 0 0 0 -0 0 -0 -0 
-0 -0 0 -0 -0 0 0 0 0 
0 0 0 0 0 0 0 0 0 
0 0 0 0 0 0 0 0 0 
0 0 0 0 0 0 0 0 0 
0 0 0 0 0 0 0 0 0 
0 0 8.30901 2.52695 0 0 0 0 3.84269 
11.9072 0 128.558 0 0 0 0 0 0 
0 0 0 10.4751 0 0 0 0 0 
0 0 0 0 0 0 0 0 0 
0 0 0 0 0 0 0 0 0 
0 0 0 0 0 0 0 0 0 
0 0 0 0 0 0 0 0 0 
0 0 0 0 0 0 0 0 0 
0 0 0 0 -0 -0 -0 -0 -0 
0 0 0 -0 0 0 0 0 0 
0 0 0 0 0 -0 0 -0 -0 
-0 0 0 0 0 -0 -0 -0 -0 
0 0 0 0 0 0 0 0 0 
0 0 0 0 -0 0 -0 0 0 
0 0 0 0 0 0 0 0 0 
0 0 0 0 0 
shear_stress_average 1 1616 double
0 0 0 0 0 0 0 0 0 
0 0 0 0 0 0 0 0 0 
0 0 0 0 0 0 0 0 0 
0 0 0 0 0 0 0 0 0 
0 0 0 0 0 0 0 0 0 
0 0 0 0 0 0 0 0 0 
0 0 0 0 0 0 0 0 0 
0 0 0 0 0 0 0 0 0 
0 0 0 0 0 0 0 0 0 
0 0 0 0 0 0 0 0 0 
0 0 0 0 0 0 0 0 0 
0 0 0 0 0 0 0 0 0 
0 0 0 0 0 0 0 0 0 
0 0 0 0 0 0 0 0 0 
0 0 0 0 0 220.516 0 0 232.209 
82.4158 0 0 0 0 0 12.8892 0 0 
0 0 0 0 0 0 0 0 0 
0 0 0 0 0 0 0 0 0 
0 0.609105 0 0 0 0 0 0 0 
0 0 0 0 0 0 0 0 0 
0 0 0 0 0 0 0 0 0 
0 0 0 0 0 0 0 0 0 
0 0 0 0 0.808609 0.531118 0 0 0 
0 0 0 0 0 0 0 0 0 
0 0 0 0 0 0 0 0 0 
0 0 0 0 0 0 0 0 0 
0 0 0 0 0 0 0 0 0 
0 0 0 0 0 0 0 0 0 
0 0 0 0 0 0 0 0 0 
0 0 0 0 0 0 0 0 0 
0 0 0 0 0 0 0 0 0 
0 0 0 0 0 0 0 0 0 
0 0 0 0 0 0 0 0 0 
0 0 0 0 0 0 0 0 0 
0 0 0 0 0 0 0 0 0 
0 0 0 0 0 0 0 1.25111 0 
4.12763 0 0.337958 0 0.707672 4.33854 1.95312 0 1.10775 
0 0 0.334343 0 0 0 0 0 0 
0 0 0 0 0 0 0 0 0 
0 0 0 0 0 0 0 0 0 
0 0 0 0 0 0 0 0 0 
0 0 0 0 0 0 0 0 0 
0 0 0 0 0 0 0.68381 5.38284 0 
0 0 0 0 0 0 0 0 0 
0 0 0 0 5.67549 4.36319 7.31285 11.2524 4.18044 
0 11.558 0.723974 274.01 188.698 2.90417 0.730614 0 0 
0 0 3.24172 9.7221 0 0.964189 0.389978 12.5343 8.8941 
0 14.6654 5.67097 0.804698 0 0 0 0 0 
0 0 0 0.760001 3.49303 0.739713 0 0.715649 0 
1.45102 0 0 0 0 6.61769 0 0 0 
0 0 0 0 0 0 0 0 0 
0 0 0 0 0 0 0 0 0 
0 0 0 0 0 0 0 0 0 
0 0 0 0 0 0 0 0 0 
0 0 0 0 0 0 0 0 0 
0 0 0 0 0 0 0 0 0 
0 0 0 0 0 0 0 0 0 
0 0 0 0 0 0 0 0 0 
0 0 0 0 0 0 0 0 0 
0 0 0 0 0 0 0 0 0 
0 0 0 0 0 0 0 0 0 
0 0 0 0 0 0 0 0 0 
0 0 0 0 0 0 0 0 0 
0 0 0 0 0 0 0 0 0 
0 0 0 40.4034 1.80269 1.98727 0.85404 0 0.451881 
19.7951 33.8713 9.2442 1.76614 3.71821 0.436935 6.04712 0 0 
0.417383 3.08298 0 0 0 0 0 0 0 
0 0 0 1.85435 0 0 0 0 0 
0 0 0 0 0 0 0 0 0 
0 0 0 0 0 0 0 0 0 
0 0 0 0 0 0 0 0 0 
0 0 0 0 0 0 0 0 0 
0 0 0 0 0.217305 0 0 0 0 
0 0 0 0 0 0 0 0 0 
0 0 0 0 0 0 0 0 0 
0 0 0 0 0 0 0 0 0 
0 0 0 0 5.32276 2.85799 0 3.90576 1.24911 
0 12.1024 9.8485 0 0 0 0 0.325349 0.648835 
0.355963 1.36741 0 0 0 0 0 0 0 
0.594563 0 0 0 0 0 3.61833 0 0 
0 0 0 0 0 0 0 0 0 
0 0 0 0 0 0 0 0 0 
0 0 0 0 0 0 0 0 0 
0 0 0 0 0 0 0 0 0 
0 0 0 0 0 0 0 0 0 
0 0 0 0 0 0 0 0 0 
0 0 0 0 0 0 0 0 0 
0 0 0 0 0 0 0 0 0 
0 0 0 0 0 0 0 0 0 
0 0 0 0 0 0 0 0 0 
0 0 0 0 0 0 0 0 0.816364 
0 0 0 0 0 0 0 0 0 
0 0 0 0 0.475528 3.24641 3.00686 0 0.782093 
2.44862 0 2.12133 0.974703 0 2.38866 2.23716 0.544196 0 
0.502218 12.3828 6.75795 0 0 0 0 0 0 
67.9349 0 0 0 0 2.86348 2.74527 0.509501 12.0132 
0 0 0 0 0 0 0 0 0.422688 
0 5.45989 0 0 0 0 0 0 0 
0 0 0 0 0 0 0 0 0 
0 0 0 0 0 0 0 0 0 
0 0 0 0 0 0 0 0 0 
0 0 0 0 0 0 0 0 0 
0 0 0 0 0 0 0 0 0 
0 0 0 0 0 0 0 0 0 
0 0 0 0 0 0 0 0 3.54403 
2.04769 0 0 0 0 0 0 0 0 
0 0 0 0 0 0 0 0 0 
0 0 0 0 0 0 0 0 0 
2.10228 0 1.30496 2.44428 0 0 0 0 5.59786 
0 0 0 0.622419 0 0 0 0 0 
0 0 0 0 2.45629 2.89046 0 1.80536 1.1187 
0 0 0 11.3523 0.927088 0 1.64483 0 32.6574 
0 0 0 0 0 0 0 0 0 
0 0 0 1.40352 0 15.851 1.40546 0 0 
0.342203 0 2.05358 0 0.431021 0 0 3.72293 0 
0 0 0 0 0 2.34312 1.42708 0 0 
0 5.86586 4.11958 2.12065 1.78064 0 0 0 0.355936 
0 3.6348 0.564349 0 0 2.01874 0 1.60754 0 
1.64636 0 5.38952 7.67933 5.34568 0 1.19816 0 0 
1.54801 0 0.634761 0 0.318656 0.339105 0 0 2.25388 
0 0 0.3263 0 2.83507 0.303286 0.576137 0.466082 0 
0 0 0 0 0 0 0 0 0 
0 0 0 0 0 0 0 0 0 
0 0 0 0 0 0 0 0 0 
0 0 0 0 0 0 0 0 0 
0 0 0 0 0 0 0 0 0 
0 0 0 0 0 0 0 0 0 
0 0 0 0 0 0 0 0 0 
0 0 0 0 0 0 0 0 0 
0 0 0 0 0 0 0 0 0 
0 0 0 0 0 0 0 0 0 
0 0 0 0 0 0 0 0 0 
0 0 0 0 0 0 0 0 0 
0 0 0 0 0 0 0 0 0 
0 0 0 0 0 0 0 0 0 
0 0 0 0 0 0 0 0 0 
0 0 0 0 0 0 0 0 0 
0 0 0 0 0 0 0 0 0 
0 0 0 0 0 0 0 0 0 
0 0 0 0 0 0 0 0 0 
0 0 0 0 0 0 0 0 0 
0 0 0 0 0 0 0 0 0 
0 0 0 0 0 0 0 0 0 
0 0 0 0 0 0 0 0 0 
0 0 0 0 0 0 0 0 0 
0 0 0 0 0 0 0 0 0 
0 0 0 0 0 0 0 0 0 
0 0 0 0 0 0 0 0 0 
0 0 0 0 0 0 0 0 0 
0 0 0 0 0 0 0 0 0 
0 0 0 0 0 0 0 0 0 
0 2.32521 0.505515 0 0 0 0 0 0 
0 0 0 0 0 0 0 0 0 
0 0 0 0 0 0 0 0 0 
0 0 0 0 0 0 0 0 0 
0 0 0 0 0 0 0 0 0 
0 0 0 0 0 0 0 0 0 
0 0 0 0 0 0 0 0 0 
0 0 0 0 0 0 0 0 0 
0 0 0 0 0 0 0 0 0 
0 0 0 0 0 0 0 0 0 
0 0 0 0 0 0 0 0 0 
0 0 0 0 0 0 0 0 0 
0 0 0 0 0 0 0 0 0 
0 0 1.52436 0.344088 0 0 0 0 0.489776 
1.50182 0 64.2789 0 0 0 0 0 0 
0 0 0 1.79665 0 0 0 0 0 
0 0 0 0 0 0 0 0 0 
0 0 0 0 0 0 0 0 0 
0 0 0 0 0 0 0 0 0 
0 0 0 0 0 0 0 0 0 
0 0 0 0 0 0 0 0 0 
0 0 0 0 0 0 0 0 0 
0 0 0 0 0 0 0 0 0 
0 0 0 0 0 0 0 0 0 
0 0 0 0 0 0 0 0 0 
0 0 0 0 0 0 0 0 0 
0 0 0 0 0 0 0 0 0 
0 0 0 0 0 0 0 0 0 
0 0 0 0 0 
wear 1 1616 double
0 0 0 0 0 0 0 0 0 
0 0 0 0 0 0 0 0 0 
0 0 0 0 0 0 0 0 0 
0 0 0 0 0 0 0 0 0 
0 0 0 0 0 0 0 0 0 
0 0 0 0 0 0 0 0 0 
0 0 0 0 0 0 0 0 0 
0 0 0 0 0 0 0 0 0 
4.90436e-10 0.00182618 1.50461e-05 8.14655e-05 0 0 0 0 0 
0 0 0 0 0 0 0 0 0 
0 0 0 0 0 0 0 0 0 
0 0 0 0 0 0.00212365 0.0010806 0.00534386 0 
0 0 0 0 0 0 0 0 0 
0 0 0 0 0 0 0 0 0 
0 0 7.2352 8.69443 6.19032 8.43785 10.8143 9.3265 8.52057 
12.0491 9.62862 8.01097 9.42808 7.79096 4.90051 2.08085 2.91905 1.74174 
0 0 0 0 0 0 0 0 0 
0 0 0 0 0 0 0 0.0013614 0.0105831 
0.00100956 0.000794258 0.00341431 0.0029332 0.00413969 0.0107717 0.000186562 0.00218258 0 
0.000115886 0 0.00383155 0 0 0 0 0 0 
0 0 0.00359316 0.00208401 0 0 0 0.000101302 0 
0.00269757 0.000457059 0.000947131 0.033015 0 0.11875 0.030691 0.0182245 0.785108 
0.0225659 0.00458729 0.187322 0.0198192 0.549644 0.288557 0.0691948 0.158848 0.508331 
0.0421006 0 0 0 0 0 0 0 0 
0 0 0 0 0 0 0 0 0 
0 0 0 0 0 0 0 0 0 
0 0 0 0 0 0 0 0 0 
0.00118407 0 0 0 0.000153538 0 0 0 0 
0.000115934 0.000156186 0 0.000168262 0 0 0 0 0 
0 0 0 0 0 0.00958417 0 0 0 
0 0 0 0 0 0 0 0 0 
0 0 0 0 0 5.63015e-06 7.15604e-05 0 0.907424 
0 0 0 0 0 0 0 0 0 
0 0 0 0 0 0 0 0 0 
0 0 0 0 0 0 0 0 0 
0 0 0 0 0 0.0706623 0.836514 0.473889 0.13831 
0.908047 0.903992 0.852017 0.469353 0.771981 2.21028 2.1808 1.97669 0.34572 
1.00865 4.18501 3.44971 0 0 0.0023495 0 0.031363 0.00712913 
0.00043034 0.0430367 0.0470371 0.00942903 0.13752 0.173315 0.00684089 0.00768332 0.148529 
0.0291698 0 0 0 0 0 0 0 0 
0 0 2.93072e-06 0 0 0 0 0 0.00953469 
0 0 0 0 0 0 0 0 0 
0 0 0 0 0 0 0.248817 0.314891 0.0870762 
0.541305 0.114006 0.0194893 0.0729805 0.263236 0.0690309 0.015641 0.00101712 0.00217314 
0.0506218 0.13584 0.00891756 0.0213933 0.147165 0.0441114 0.099669 0.386742 0.18502 
0.0319703 0.136864 0.0401979 0.17073 0.23968 0.608198 0.538674 0.0795602 0.0287525 
0.215005 0.100378 0.244284 0.928855 0.209497 0.113849 0.154894 0.10882 0.0247539 
0.0657598 0.238857 0.157612 0.646772 0.182999 0.260025 0.0798989 0.0316014 0.00184313 
0.0454971 0.212835 0.209138 0.0860741 0.0351571 0.107472 0.0119853 0.00753986 1.03332 
0.224383 0.0717437 0.100274 0.000231621 0.342495 0.00272156 0.113427 0 0 
0 0 0 0 0 0 0 0 0 
0 0 0 0 0 0 0 2.19021e-05 0 
3.52165e-05 0 0 0 1.64582e-05 3.64446e-05 3.68972e-06 0 0 
0 0 0 0 0 0 0 0 0 
0 0 0 0 0 0 0 0 0 
0 0 0 0 0 0 0 0 0 
0 0 0 0 0 0 0 0 0 
0 0 0 0 0 0 0 0 0 
0 0 0 0 0 0 0 0 0 
0 0 0 0 0 0 0 0 0 
0 0 0 0 0 0 0 0 0 
0 0 0 0 0 0 0 0 0 
0 0 1.85033e-05 0.000110101 0.000435798 0.00124407 0.00883493 0.000151626 1.86923e-05 
0 0.00121427 0.002174 0.0120552 0.00798618 0 0 4.81485e-05 0 
0.372186 0.225858 1.62086 1.01322 1.95789 1.9975 3.93174 2.22814 1.56374 
2.92025 3.36398 4.11712 2.06832 1.45542 1.89441 1.87718 1.55959 0.806591 
0.467714 1.85808 0.512847 0.724414 0.208637 0.984619 0.287957 0.110936 0.0171527 
0.052754 1.21368 0.858606 0.441526 0.799369 0 0 0 0 
0 0 0 0 0 0 0 0 0 
0 0 0 0 0 0 0 0 0 
0 0 0 0 0 0 0 0 0 
0 2.45739 1.14498 0 6.36631 0.0272993 1.33691e-05 0 5.44463 
0 0 0 0 10.6663 7.69385 3.76651 6.61442 0 
0 0 0 0 0 0 0 0.000775016 0.000121876 
0 0.00108994 0 0 0 0 0 0 0.000461356 
0 0.000636325 0 0 0 0.000408941 1.84989e-05 0 0.00022644 
0 0 0 0 0.287853 0.402074 0.0673869 0.22406 0.47267 
0.305527 0.0306171 0.132324 0.00155931 0.00447145 0.00130682 0.0120053 0.456888 0.521435 
0.0815486 0.489211 0.00649709 0.00591662 0.00113319 0.0138126 0.000431906 0.000469983 0.000256006 
0.00794547 0 0.00238393 0.000357417 0.000116729 0.0031277 0.0014751 0.000278048 0.000901434 
0 0 0 0 0 0 0 0 0 
0 0 0 0 0 0 0 0 0 
0 0 0 0 0 0 0 0 0 
0 0 0 0 0 0 0 0 0 
0 0 0 0 0 0 0 0 0 
0 0 0 1.252 0.856301 1.0693 3.10865 0.971997 6.38304 
6.32782 6.67974 0.103192 0.00287623 0.000965865 0.0264444 8.71568 10.8499 6.67847 
8.31076 0 0 0 0 0 0 0.00447685 0 
0 0 0 0.0079149 0 0.00586552 0.00578113 0.00135409 7.81706e-05 
0.000244133 0 0.000187733 0 0 0 0.000345926 0 0 
0 0 0.000154008 0.000169179 8.0988e-05 6.80858 0.131371 0.00138008 0.199584 
0.027039 0.500828 0.0171226 0.0947374 0.00144245 0.613067 0.0562714 1.15729 0.638405 
0.414275 0.000821942 0.0694157 0.112265 1.96427 1.18231 0.825318 0.677749 0.569006 
1.11708 0.513658 1.12609 0.165922 0.0467253 0.00429873 0.0627832 0.580656 0.613036 
0.735666 0.509882 0.813971 0.132714 0.13263 0.653289 0.179136 0.168464 0.334601 
0.207262 0.168356 0.0253621 0.0905198 1.05554 1.95473 1.5583 0.756508 2.22875 
0.00854651 0.000951824 0.0957168 0.00193705 0.00393501 0.00128072 0.00114939 0.000373633 0.0233215 
0.00723459 0.0370479 0.00525706 0.00132869 0.00199649 0.00293607 0.0100331 0 0 
0 0 0 0 0 0 0 0 0 
0 0 0 0 0 0 0 0 0 
0 0 0 0 0 0 0 0 0 
0 0 0 0 0 0 0 0 0 
0 0 0 0 0 0 0 0 0 
0 0 0 0 0 0 0 0 0 
0 0 0 0 0 0 0 0 0.488965 
0.389742 0.238837 0.218244 0.014106 0.00420321 0.000344538 0.0102082 0.0104297 0.000478796 
0.000838232 0.000845126 0.00437932 0.00039513 0.000479049 0.00451089 0.681558 0.267986 0.0635201 
0.121364 0.0250938 0.0498886 0.0218625 0.0777173 0.0363911 0.00392814 0.0404024 0.0336813 
0.290784 0.415816 0.540322 0.317055 0.0016321 0.0198692 0.00124019 0 0.0133384 
0.00894269 0.0334904 0.0348818 0.00291516 0.0178703 0.589679 0.00213724 0 0.0133424 
0.00312722 0.00121751 8.15051e-05 0.000782699 0.00314713 0.0154336 0.115506 0.00828417 0.290574 
0.0308101 0.0454904 0.122378 0.153119 0.168359 0.00609361 0.0914118 0.187699 0.102723 
0.000700151 0.00147387 0.00538706 0.0310774 0.00405254 0.0745485 0.0531747 0.0278694 0.010071 
0.00888802 0.00498508 0.0737515 0.0451736 0.0686139 0.0393034 0.163853 0.00511058 0.0190913 
0.0205744 0.0071571 0.115217 0.0145787 0.0790011 0.00171996 0.0444599 0.284253 0.225892 
0.0785898 0.00911411 0.00310226 0.226093 0.0198287 0.20636 0.499053 0.130221 0.43275 
0.157014 0.830073 0.242868 0.286924 0.0599583 0.269795 0.000580136 0.247002 0.260925 
0.251473 0.609811 0.521274 0.013938 0.36371 0.138035 0.118314 0.185537 0.508295 
1.10253 0.0927863 0.278098 0.554105 0.54092 0.914604 0.728126 0.448518 0.907996 
0.756945 0.0224358 0.000314403 0.00212824 0.0905262 0.00286712 0.225845 0.301526 0.0391999 
0.00251399 0.00438564 0.101243 0.10035 0.197688 0.664881 0.308541 0.60062 0 
0 0 0.0251854 0 0.0319991 0 0.000146939 0 0.0023242 
0.0273335 4.34659e-05 0 0 0 0 0 0 0 
0 0 0 0 0 0 0 0 0 
0 0 0 0 0 0 0 0 0 
0 0 0 0 0 0 0 0 0 
0 0 0 0 0 0 0 0 0 
0 0 0 0 0 0 0 0 0 
0 0 0 0 0 0.0183953 0 0 0 
0 0.00526252 0.00414523 0 0 0.006833 0.0596323 0.000530106 0.00183426 
0.00160315 0.00110803 0.00116541 0.000114339 0.00113271 0.00347736 0.000898531 0.00125169 0 
0.0076121 0.00499841 0.0305853 0.0025795 0.00862114 0.0138932 0 0.00136656 0.00343217 
0 0 0 0 0.00812615 0.00124144 0.00274289 0.006136 0 
0 0.0483403 0 0 0 0 0 0 0 
0 0 0 0 0 0 0 0 0 
0 0 0 0 0 0 0 0 0 
0 0 0 0 0 0 0 0 0 
0 0 0 0 0 0 0 0 0 
0 0 0 0 0 0 0 0 0 
0 0 0 0 0 0 0 0.00153067 0 
0 0 0 0 0 0 0 0.00206681 0 
0 0 0.0177769 0 0 0 0 0.000205108 0.0172233 
0 0.000773078 0 0 0 0 0 0 0 
0 0 0 0 0 0 0 0 0 
0 0 0 0 0 0 0 0 0 
0 0 0 0 0 0 0 0 0 
0 0 0 0 0 0 0 0 0.00226072 
0 0 0 0 0 0.00125308 0 0.000397592 0 
0 0.00272288 0 4.48077e-05 0.00199799 0 0.000930363 0.00338531 0.00271812 
0 0.00283927 0.00289418 4.85907e-05 0 0 0 0.000313274 1.87253e-05 
0.00194321 0 7.69658e-05 0.00301913 0.000284482 7.69386e-05 0 0.00207222 3.5756e-05 
0 0.000688637 0.000782177 0.00319449 3.35089e-05 0.000920798 0.000534742 0.000570742 0.000340158 
0.00153249 0.000943108 0.00168178 0.00118931 6.08565e-06 9.20377e-05 0.00161013 0.000828949 0 
0 0 0 0.00204734 0.00357769 0.00166389 0.0137194 0.00029796 0.0274652 
0.000691553 0.00118852 0 0.0475898 0.000359709 0.00485239 0 0 0.0152374 
0 0 0 0 0 0 0 0 0.00850211 
0 0 0 0.00365939 0 0 0 0 0 
0 0 0 0 0.019098 0 0 0 0 
0 0 0 0 0 0 0 0 0 
0 0.00923679 0 0 0 0 0 0 0 
0 0 0 0 0 0 0 0 0 
0.0110107 0.00192732 0 0.000541546 0 0 0.000673212 0.0340276 0.0015376 
0.0274283 0.00578207 0.00223822 0.00807164 0 0.000699915 0.0128488 0 0.00903786 
0.00303079 0.0127529 0 0 0 0.00500718 0.00499072 0.0140947 0.154856 
0.389311 0.39675 0.224487 0.239402 0.000216292 0.594847 0.00179595 0.10394 0.174061 
0.364388 0.752599 0.652094 0.0194838 0 2.3704e-06 0.00153821 0 0.0017343 
3.64013e-05 1.59412e-05 0 4.78376e-05 0.00719386 0.0034243 0.00333783 0.00910395 0.109616 
0.0025162 0 0 0 0 0 0 0 0 
0.0111357 0.00136223 0 0 0 0 0 0 0 
0 0.00777897 0 0 0 0 0.0328908 0 0 
0 0 0.00381335 0 0 0 0 0 0 
0 0 0 0 0 0 0 0 0 
0 0 0 0 0 0 0.00409963 0 0 
0 0 0 0 0 0 0 0 0 
0 0 0 0 0 0 0 0 0.00377491 
0.0023796 0 0 0 0 0 0 0 0 
0 0.00767881 0 0 0.0031304 0 0 0 0.00208048 
0 0 0 0 0 0 0 0.00251415 0.000871628 
0.00238728 0.00245918 0.000208889 0.0052596 0.000684137 0.00131378 0.00306177 0.00555737 0.0223515 
0.0280153 0.00578938 0.000120154 0.0118787 0.0063523 
