/*--------------------------------*- C++ -*----------------------------------*\
| =========                 |                                                 |
| \\      /  F ield         | OpenFOAM: The Open Source CFD Toolbox           |
|  \\    /   O peration     | Version:  4.0                                   |
|   \\  /    A nd           | Web:      www.OpenFOAM.org                      |
|    \\/     M anipulation  |                                                 |
\*---------------------------------------------------------------------------*/
FoamFile
{
    version     2.0;
    format      ascii;
    class       volScalarField;
    location    "61";
    object      p;
}
// * * * * * * * * * * * * * * * * * * * * * * * * * * * * * * * * * * * * * //

dimensions      [0 2 -2 0 0 0 0];

internalField   nonuniform List<scalar> 
2200
(
0.773483
0.751985
0.736079
0.720411
0.705803
0.69329
0.68294
0.674849
0.66916
0.66623
0.666749
0.670586
0.676932
0.685498
0.696185
0.708958
0.723753
0.739685
0.75573
0.777228
0.705892
0.702634
0.699711
0.695598
0.690142
0.683675
0.677066
0.671124
0.666631
0.664265
0.664749
0.668093
0.673296
0.679772
0.686768
0.693528
0.699195
0.70329
0.706136
0.7095
0.665965
0.666186
0.668247
0.669594
0.669988
0.669142
0.667172
0.664509
0.661985
0.660522
0.661094
0.663563
0.666865
0.670104
0.672446
0.673447
0.67318
0.672192
0.670559
0.67031
0.643475
0.644927
0.647525
0.64998
0.652427
0.654453
0.655614
0.65586
0.65551
0.655249
0.655931
0.657333
0.658546
0.658951
0.658278
0.65661
0.654451
0.652261
0.649645
0.648242
0.629099
0.631072
0.633893
0.636735
0.639604
0.642446
0.644917
0.646793
0.648042
0.648874
0.649639
0.650135
0.649925
0.648836
0.646994
0.644639
0.642099
0.639372
0.636573
0.63465
0.621733
0.623331
0.625538
0.628076
0.630751
0.63343
0.636041
0.638486
0.640532
0.64207
0.642979
0.643041
0.642236
0.640747
0.638867
0.636735
0.63442
0.632083
0.629986
0.628412
0.618301
0.619323
0.620595
0.622464
0.624614
0.626792
0.629001
0.631314
0.633565
0.635455
0.636527
0.63659
0.635852
0.634678
0.633308
0.631765
0.630072
0.628501
0.627389
0.626373
0.615608
0.616277
0.616912
0.618221
0.619846
0.62155
0.623326
0.625278
0.627383
0.629399
0.630699
0.63105
0.63077
0.630178
0.629429
0.628506
0.627472
0.626557
0.626112
0.625435
0.612324
0.612769
0.613169
0.614172
0.615443
0.61684
0.61836
0.620061
0.62196
0.62398
0.625571
0.626419
0.62673
0.62672
0.626462
0.626013
0.625451
0.624929
0.624747
0.624282
0.608234
0.608531
0.608891
0.609767
0.61089
0.612181
0.613638
0.615281
0.617142
0.619242
0.621177
0.62257
0.623399
0.623816
0.623935
0.623822
0.623543
0.623232
0.62311
0.622785
0.603471
0.603672
0.604046
0.604882
0.605985
0.607311
0.608862
0.610639
0.612652
0.614962
0.617334
0.61923
0.620513
0.62129
0.621674
0.621795
0.621707
0.621547
0.621447
0.621208
0.598218
0.598364
0.598737
0.599551
0.600703
0.602148
0.603879
0.605904
0.608259
0.611003
0.613895
0.61632
0.617994
0.619063
0.619681
0.619986
0.620094
0.620076
0.620011
0.61982
0.592525
0.592633
0.593015
0.593843
0.59508
0.596694
0.598679
0.601052
0.603875
0.607212
0.610746
0.613706
0.6158
0.617199
0.618092
0.618629
0.618945
0.619067
0.619043
0.618874
0.58644
0.586507
0.586891
0.587749
0.589101
0.590903
0.593165
0.595935
0.599319
0.603378
0.607698
0.611321
0.61392
0.615737
0.617001
0.617841
0.618394
0.618658
0.618674
0.618514
0.579819
0.579859
0.580284
0.581197
0.582689
0.584702
0.587259
0.590487
0.594531
0.59944
0.604673
0.609127
0.612407
0.614777
0.616499
0.617715
0.618519
0.618932
0.618997
0.618837
0.572571
0.572537
0.572959
0.573966
0.575663
0.577939
0.580865
0.584626
0.589432
0.595375
0.601748
0.607184
0.611291
0.61436
0.616661
0.6183
0.619399
0.619977
0.620093
0.619928
0.564383
0.564366
0.564827
0.565957
0.567916
0.570533
0.573944
0.578378
0.584084
0.591212
0.598921
0.605599
0.610721
0.614603
0.617533
0.619672
0.621112
0.621862
0.622033
0.621858
0.555163
0.555187
0.555633
0.556878
0.559131
0.562169
0.566198
0.571445
0.578221
0.586762
0.596148
0.604357
0.610696
0.615566
0.619237
0.621924
0.623742
0.624679
0.624902
0.62471
0.544422
0.544398
0.544949
0.546416
0.549041
0.552659
0.557503
0.563842
0.572038
0.582383
0.59371
0.603635
0.611378
0.617309
0.621801
0.625142
0.627382
0.628502
0.628774
0.62856
0.531675
0.53161
0.532285
0.534123
0.53731
0.541728
0.547662
0.555421
0.565428
0.577978
0.591641
0.603536
0.612792
0.61993
0.625377
0.629411
0.632124
0.633436
0.633744
0.633501
0.516634
0.516532
0.517306
0.519517
0.523449
0.528957
0.536362
0.546024
0.558387
0.573647
0.590021
0.604105
0.615065
0.623524
0.629982
0.634829
0.638018
0.639497
0.639831
0.639556
0.498273
0.498188
0.499204
0.501994
0.506932
0.513906
0.523279
0.535428
0.550765
0.569298
0.588745
0.605409
0.618238
0.628134
0.635759
0.64142
0.645086
0.646728
0.647056
0.646748
0.475664
0.475519
0.476823
0.480405
0.486809
0.495902
0.507996
0.523438
0.542461
0.564895
0.587918
0.607317
0.622189
0.633697
0.642546
0.649133
0.653272
0.655038
0.65533
0.654992
0.446432
0.446456
0.448556
0.453638
0.462386
0.474656
0.490618
0.510366
0.533871
0.560778
0.587773
0.610175
0.627261
0.640394
0.65053
0.657954
0.662455
0.66429
0.664515
0.664146
0.407878
0.408119
0.411656
0.419643
0.432449
0.449691
0.470931
0.496017
0.524771
0.556778
0.588168
0.613843
0.633234
0.648108
0.659478
0.667682
0.672442
0.67423
0.674358
0.673978
0.356623
0.35703
0.364025
0.377264
0.396482
0.420864
0.449102
0.480865
0.515884
0.553605
0.589638
0.618521
0.640227
0.656805
0.669442
0.678253
0.682904
0.68436
0.684326
0.68401
0.289286
0.292056
0.307161
0.328666
0.356816
0.39013
0.426549
0.4658
0.507735
0.55176
0.592849
0.625538
0.650029
0.668696
0.682691
0.692114
0.696572
0.697527
0.697455
0.697261
0.212774
0.22234
0.247559
0.278833
0.317161
0.359626
0.404313
0.451304
0.500523
0.551403
0.598316
0.635307
0.662853
0.683816
0.699487
0.709529
0.713703
0.714193
0.714203
0.714121
0.144451
0.159148
0.190668
0.230968
0.278952
0.330294
0.383077
0.437828
0.494379
0.55196
0.604469
0.645448
0.676166
0.699306
0.716234
0.726677
0.730687
0.730852
0.730951
0.730941
0.0925221
0.105678
0.142331
0.188729
0.244092
0.30299
0.363197
0.425197
0.488561
0.552314
0.609965
0.655212
0.688846
0.713973
0.732278
0.743384
0.747337
0.747989
0.748203
0.748181
0.0495197
0.0619946
0.102435
0.152705
0.213526
0.27841
0.345016
0.41338
0.482923
0.552847
0.616068
0.665127
0.701136
0.728192
0.747796
0.759359
0.764102
0.765021
0.765057
0.765123
0.0128461
0.0255325
0.0686336
0.121783
0.186951
0.25664
0.328645
0.402702
0.478146
0.554039
0.622167
0.67442
0.712978
0.741628
0.762653
0.774898
0.779843
0.780872
0.780933
0.781002
-0.0191276
-0.00623371
0.0390143
0.0947469
0.16354
0.23725
0.313993
0.393154
0.473876
0.554812
0.627127
0.682919
0.723742
0.753979
0.776092
0.788806
0.794206
0.795346
0.795455
0.795506
-0.0474819
-0.0345984
0.0123093
0.0705094
0.142509
0.219766
0.300621
0.384116
0.469344
0.554924
0.631732
0.690822
0.733605
0.765039
0.787832
0.801275
0.80689
0.808209
0.808335
0.808373
-0.0733549
-0.0604561
-0.0122228
0.0483883
0.12319
0.203491
0.287861
0.375101
0.464462
0.554628
0.635751
0.697514
0.742227
0.774971
0.798142
0.812088
0.818053
0.819485
0.819653
0.819665
-0.0973269
-0.0842219
-0.0351842
0.0276695
0.104928
0.187937
0.275403
0.366023
0.459259
0.553663
0.638768
0.703453
0.750078
0.783658
0.807288
0.821703
0.827739
0.829335
0.829493
0.82948
-0.119902
-0.106505
-0.0567542
0.00803095
0.0873763
0.172788
0.263047
0.356781
0.453602
0.551942
0.641013
0.708755
0.757054
0.791744
0.815716
0.830018
0.836294
0.837872
0.838046
0.837994
-0.141169
-0.12763
-0.077214
-0.0108296
0.0703136
0.157927
0.250741
0.347315
0.447374
0.549399
0.642454
0.7134
0.763537
0.799177
0.823444
0.837595
0.843704
0.845243
0.845434
0.845304
-0.16142
-0.147818
-0.0967283
-0.0289892
0.0536968
0.143267
0.238368
0.337465
0.440409
0.545925
0.643005
0.717396
0.769778
0.806595
0.83081
0.844404
0.85033
0.851747
0.851864
0.851744
-0.181037
-0.167082
-0.115497
-0.0466064
0.0374254
0.128731
0.225839
0.327162
0.432734
0.541644
0.642746
0.7208
0.775967
0.81396
0.838086
0.851112
0.856284
0.857496
0.857555
0.857471
-0.200329
-0.185696
-0.133654
-0.0637247
0.0214663
0.114247
0.213085
0.316419
0.424457
0.536545
0.64152
0.723579
0.781966
0.82191
0.845981
0.857841
0.862041
0.86262
0.862666
0.862643
-0.219158
-0.20378
-0.151324
-0.080451
0.00574737
0.0998033
0.200154
0.305315
0.415616
0.53058
0.639335
0.725705
0.78786
0.830344
0.854969
0.865672
0.867758
0.86739
0.86727
0.86712
-0.237512
-0.221482
-0.168546
-0.0967782
-0.00969865
0.0854474
0.187111
0.293903
0.406241
0.52381
0.636124
0.726913
0.793404
0.839552
0.865782
0.875078
0.874538
0.872451
0.872134
0.87307
-0.255229
-0.238727
-0.185309
-0.112715
-0.0248504
0.0712481
0.174043
0.282243
0.396371
0.516253
0.631751
0.726945
0.798477
0.849189
0.878627
0.887762
0.884466
0.877635
0.872725
0.871679
-0.27237
-0.255492
-0.201553
-0.128189
-0.0396275
0.0572772
0.16101
0.270394
0.386086
0.50799
0.626205
0.725556
0.802339
0.85904
0.893526
0.904718
0.901564
0.890501
0.890323
0.894471
-0.288865
-0.271644
-0.217212
-0.143164
-0.0539931
0.0435896
0.148085
0.258448
0.375461
0.499048
0.619482
0.72252
0.804736
0.868004
0.90945
0.926006
0.923969
0.894628
0.856143
0.822486
-0.304715
-0.287226
-0.232308
-0.157682
-0.0680237
0.0300692
0.135123
0.246228
0.364266
0.489192
0.61143
0.717455
0.804474
0.875153
0.925785
0.950864
0.962944
0.938883
0.956273
1.01729
-0.319832
-0.302224
-0.246927
-0.171902
-0.0819204
0.0164845
0.121857
0.2334
0.352055
0.477872
0.60142
0.709515
0.800568
0.877459
0.93422
0.964232
0.968005
0.941648
0.89829
0.914831
-0.334226
-0.316664
-0.261033
-0.185756
-0.0955918
0.00293752
0.108401
0.220083
0.338952
0.46517
0.58941
0.698501
0.790849
0.870327
0.928327
0.958693
0.940454
0.882904
0.81738
0.804589
-0.347854
-0.330489
-0.274619
-0.199265
-0.109056
-0.0105757
0.0947739
0.206312
0.325002
0.451081
0.57524
0.683994
0.775017
0.850531
0.903294
0.907054
0.868698
0.788804
0.712796
0.688348
-0.360777
-0.343743
-0.287711
-0.212433
-0.122316
-0.024059
0.0809751
0.1921
0.310233
0.435596
0.558815
0.665766
0.751673
0.815673
0.843641
0.82805
0.765848
0.662234
0.573574
0.549985
-0.373421
-0.356769
-0.300678
-0.225635
-0.135737
-0.0378284
0.0667409
0.177236
0.294481
0.41858
0.539924
0.643164
0.721745
0.769663
0.763712
0.726856
0.612376
0.488072
0.37938
0.350973
-0.386665
-0.370419
-0.314225
-0.239458
-0.14985
-0.0523467
0.0516678
0.16138
0.277474
0.399782
0.518252
0.615881
0.687179
0.71004
0.676238
0.58584
0.427962
0.273842
0.143244
0.114571
-0.401008
-0.38498
-0.328635
-0.254164
-0.164866
-0.0677559
0.0356702
0.144494
0.259217
0.379269
0.493807
0.584736
0.645189
0.639304
0.586925
0.435203
0.234475
0.0211172
-0.159578
-0.208971
-0.416599
-0.400682
-0.344004
-0.269734
-0.180723
-0.0840118
0.0187734
0.126601
0.239751
0.357065
0.466528
0.551253
0.596633
0.558815
0.471231
0.282634
0.0514249
-0.237258
-0.557984
-0.706939
-0.433481
-0.417467
-0.360412
-0.286315
-0.197535
-0.101203
0.000907276
0.107642
0.219032
0.333246
0.436825
0.514756
0.542105
0.473977
0.337062
0.131822
-0.10148
-0.444487
-1.02935
-1.60022
-0.451782
-0.435609
-0.377985
-0.303912
-0.215271
-0.119302
-0.0178953
0.0876879
0.197217
0.308162
0.405785
0.475506
0.483717
0.399458
0.20792
-0.0248303
-0.226604
-0.459917
-1.01184
-2.51756
-0.471481
-0.454972
-0.396768
-0.322723
-0.234158
-0.138537
-0.0378763
0.0664637
0.173971
0.281477
0.37307
0.432943
0.420507
0.341042
0.114863
-0.121961
-0.268987
-0.30544
-0.293794
-0.679285
-0.492556
-0.475961
-0.417014
-0.342967
-0.254524
-0.159378
-0.0596568
0.0431992
0.148367
0.251856
0.337726
0.387024
0.358653
0.291154
0.0652809
-0.135644
-0.245684
-0.253252
-0.199918
-0.239871
-0.514851
-0.498137
-0.438625
-0.364801
-0.276547
-0.181996
-0.0834064
0.0177183
0.120187
0.219175
0.299929
0.339209
0.304249
0.237195
0.0332752
-0.12587
-0.207546
-0.215425
-0.263426
-0.267316
-0.538371
-0.521768
-0.461642
-0.388117
-0.300128
-0.206379
-0.10917
-0.0100378
0.0894181
0.183789
0.259467
0.289205
0.257117
0.176456
0.00517216
-0.116356
-0.185876
-0.163249
-0.183522
-0.185148
-0.562786
-0.545906
-0.485773
-0.412929
-0.325229
-0.232496
-0.136881
-0.0399661
0.0561962
0.145995
0.21672
0.235854
0.216229
0.108448
-0.0299963
-0.111422
-0.149494
-0.197955
-0.172275
-0.180866
-0.588068
-0.570783
-0.511016
-0.438948
-0.351516
-0.260157
-0.166366
-0.0718574
0.0206233
0.10607
0.172668
0.181441
0.173509
0.0480999
-0.0666319
-0.130089
-0.106397
-0.166328
-0.147283
-0.152208
-0.612929
-0.595536
-0.537166
-0.465962
-0.378756
-0.289166
-0.197342
-0.105402
-0.0170694
0.0644781
0.128439
0.129657
0.121734
-0.0033436
-0.0935449
-0.144106
-0.132686
-0.147278
-0.152829
-0.150967
-0.637243
-0.619977
-0.563597
-0.493182
-0.406497
-0.319158
-0.229431
-0.140196
-0.0563536
0.0215259
0.0843547
0.082005
0.0642419
-0.0455818
-0.107085
-0.138086
-0.177182
-0.148334
-0.154105
-0.148465
-0.659795
-0.643234
-0.588915
-0.519728
-0.434496
-0.34962
-0.262085
-0.175728
-0.0963549
-0.0224066
0.0399213
0.038479
0.00880311
-0.0809754
-0.121127
-0.113096
-0.18622
-0.128761
-0.143946
-0.136092
-0.680133
-0.66468
-0.612391
-0.544444
-0.462312
-0.379772
-0.29466
-0.211354
-0.136081
-0.0668778
-0.004999
-0.00189987
-0.0367264
-0.099973
-0.128699
-0.0883811
-0.13259
-0.115415
-0.121562
-0.118476
-0.696436
-0.682628
-0.632954
-0.567096
-0.48888
-0.408507
-0.32628
-0.246327
-0.174726
-0.111147
-0.050639
-0.0399832
-0.0683147
-0.101198
-0.119189
-0.0955142
-0.109715
-0.113249
-0.114219
-0.114469
-0.708063
-0.696423
-0.650052
-0.586735
-0.512488
-0.435059
-0.356134
-0.279746
-0.211428
-0.153856
-0.0951989
-0.0758604
-0.0922154
-0.0961652
-0.109728
-0.123094
-0.114538
-0.118936
-0.116386
-0.117053
-0.71344
-0.704229
-0.662048
-0.602208
-0.531916
-0.458157
-0.383054
-0.310553
-0.24539
-0.193361
-0.136329
-0.111913
-0.1206
-0.0966631
-0.0986704
-0.132118
-0.11178
-0.122176
-0.116057
-0.118301
-0.712773
-0.70572
-0.667864
-0.611909
-0.54598
-0.476661
-0.405921
-0.33745
-0.275655
-0.227761
-0.172619
-0.147809
-0.151161
-0.114163
-0.0776106
-0.110214
-0.0947139
-0.118351
-0.119828
-0.123372
-0.704957
-0.697622
-0.66486
-0.614553
-0.553845
-0.489367
-0.423347
-0.35897
-0.300508
-0.255351
-0.203376
-0.180708
-0.181577
-0.155274
-0.0889677
-0.101882
-0.121317
-0.136425
-0.140801
-0.142785
-0.684638
-0.67623
-0.651615
-0.608664
-0.554245
-0.495462
-0.434438
-0.373685
-0.317685
-0.273822
-0.225184
-0.206971
-0.228955
-0.306998
-0.431761
-0.518365
-0.535528
-0.496697
-0.455132
-0.427615
-0.642134
-0.634133
-0.625252
-0.59452
-0.54811
-0.495069
-0.438885
-0.380709
-0.325178
-0.280422
-0.233602
-0.205264
-0.294576
-0.458747
-0.701998
-0.835863
-0.845676
-0.814862
-0.770994
-0.718818
-0.60087
-0.597915
-0.597137
-0.573158
-0.535931
-0.489421
-0.436729
-0.379737
-0.321462
-0.271205
-0.221792
-0.155734
-0.15174
-0.189265
-0.275377
-0.272488
-0.19355
-0.125491
-0.0543245
-0.0138613
-0.578828
-0.580448
-0.570534
-0.555653
-0.52515
-0.481911
-0.430439
-0.372855
-0.30841
-0.243169
-0.17947
-0.0562549
0.100073
0.351527
0.599613
0.812608
0.969527
1.06191
1.1024
1.13668
-0.547408
-0.547211
-0.543849
-0.541624
-0.516032
-0.475091
-0.422622
-0.362059
-0.290842
-0.208173
-0.120406
0.0215927
0.240763
0.576729
0.915147
1.19363
1.38574
1.50155
1.55843
1.57798
-0.534005
-0.532189
-0.534886
-0.528712
-0.509878
-0.471394
-0.417317
-0.35228
-0.275177
-0.180675
-0.0773767
0.0546156
0.292045
0.611988
0.933264
1.20511
1.40587
1.52674
1.58027
1.59557
-0.52147
-0.520374
-0.52404
-0.517119
-0.505935
-0.467239
-0.412181
-0.344857
-0.264783
-0.165017
-0.0567349
0.0484993
0.267021
0.541146
0.812545
1.04709
1.2295
1.33886
1.38684
1.40023
-0.505382
-0.505257
-0.506543
-0.504239
-0.501481
-0.464525
-0.41052
-0.342078
-0.260829
-0.162068
-0.0577481
0.0207281
0.201926
0.432953
0.651324
0.838225
0.987507
1.07809
1.11725
1.12712
-0.489675
-0.48927
-0.48678
-0.485673
-0.483226
-0.46022
-0.412245
-0.343573
-0.263636
-0.170659
-0.0718952
-0.0110339
0.12813
0.320842
0.493618
0.635521
0.748701
0.818484
0.848287
0.855947
-0.49097
-0.488672
-0.48269
-0.481112
-0.476636
-0.460774
-0.413805
-0.345276
-0.26798
-0.184171
-0.0909951
-0.0392279
0.0597059
0.216089
0.352188
0.458554
0.541321
0.593785
0.615358
0.619692
-0.514119
-0.51171
-0.509334
-0.513338
-0.510532
-0.48695
-0.421812
-0.347432
-0.270017
-0.195852
-0.109238
-0.0615473
0.00393586
0.127197
0.232916
0.312343
0.373284
0.412324
0.427308
0.432387
-0.556401
-0.558523
-0.5643
-0.573967
-0.565979
-0.519032
-0.432004
-0.348034
-0.268035
-0.202055
-0.123143
-0.078003
-0.0355045
0.0608881
0.140618
0.198559
0.244247
0.274881
0.285108
0.288016
-0.554205
-0.559092
-0.570468
-0.582571
-0.569643
-0.510411
-0.421769
-0.337264
-0.257976
-0.199482
-0.130171
-0.0884834
-0.0603089
0.0163347
0.0747907
0.115482
0.149635
0.171143
0.180418
0.183115
-0.456822
-0.46241
-0.477127
-0.485715
-0.478178
-0.434152
-0.369721
-0.303157
-0.236397
-0.18444
-0.129552
-0.0931923
-0.0727323
-0.0127564
0.0289476
0.0578784
0.0810565
0.0948017
0.101079
0.102713
-0.297587
-0.302933
-0.309522
-0.315372
-0.314576
-0.298885
-0.271942
-0.238749
-0.196759
-0.1588
-0.121245
-0.0928963
-0.0745481
-0.0317172
-0.0025895
0.0175143
0.0320167
0.0399154
0.0427063
0.0426525
-0.147366
-0.149667
-0.153942
-0.160534
-0.16582
-0.168401
-0.167657
-0.16164
-0.145049
-0.12657
-0.105246
-0.0862456
-0.070152
-0.0423644
-0.023413
-0.0108213
-0.00287471
0.000280712
0.000389869
-0.0005387
-0.0359351
-0.0371875
-0.040143
-0.0474432
-0.0587148
-0.0719694
-0.0845854
-0.0935532
-0.0944621
-0.0924193
-0.083495
-0.0733604
-0.0621788
-0.0456971
-0.0353096
-0.0291806
-0.0263296
-0.0264904
-0.0281041
-0.0294055
0.0291559
0.0282425
0.0259878
0.0186082
0.00450725
-0.0135585
-0.0309849
-0.0454309
-0.0544968
-0.0617598
-0.0605285
-0.0563346
-0.052498
-0.0445915
-0.0406458
-0.0394901
-0.0401611
-0.042322
-0.0445195
-0.0459066
0.0585422
0.0579245
0.0560925
0.0495261
0.0361321
0.0178962
-0.000319851
-0.0166145
-0.0285965
-0.0388557
-0.0410244
-0.0409615
-0.0425508
-0.0407204
-0.0410583
-0.0430177
-0.0457172
-0.0487881
-0.05101
-0.0523492
0.067302
0.0668128
0.0653175
0.0599763
0.0488797
0.0331351
0.0163491
1.41882e-05
-0.0128312
-0.0236248
-0.0268186
-0.0295185
-0.0334873
-0.035231
-0.0382826
-0.0419451
-0.045378
-0.048405
-0.0503743
-0.0515887
0.0651772
0.0648267
0.0636761
0.0596215
0.0511295
0.0387673
0.024729
0.00987611
-0.0025337
-0.0134806
-0.0172987
-0.0211041
-0.0256809
-0.0291179
-0.0333034
-0.037514
-0.0409912
-0.0436965
-0.0452638
-0.0463249
0.0581289
0.0578966
0.0570541
0.0541018
0.047857
0.0386147
0.0276582
0.0153107
0.00459829
-0.00606356
-0.0106172
-0.0143698
-0.0190575
-0.0229125
-0.0273634
-0.0314522
-0.0346009
-0.0369157
-0.0380739
-0.038986
0.0494404
0.0492958
0.0486895
0.046617
0.0421795
0.0354262
0.0271711
0.0174206
0.00902075
-0.000625346
-0.00550582
-0.00860722
-0.0129615
-0.0168763
-0.0213095
-0.0251466
-0.0279662
-0.0299441
-0.0307403
-0.031486
0.0406964
0.0406294
0.0402151
0.0387985
0.0357263
0.0309466
0.0249062
0.0173714
0.0111416
0.00299039
-0.00141853
-0.00399886
-0.00777521
-0.0113831
-0.0156139
-0.0191354
-0.0216678
-0.023427
-0.0240155
-0.0246291
0.0324075
0.0323773
0.0321005
0.031161
0.0290562
0.0256939
0.0213684
0.0156923
0.011366
0.00490162
0.00153594
-0.000705595
-0.00416819
-0.00730165
-0.0109249
-0.0138585
-0.016026
-0.01756
-0.018003
-0.0184882
0.0248991
0.0248763
0.0246834
0.0240593
0.0226457
0.0203239
0.017214
0.0129578
0.0100742
0.00512316
0.0027892
0.0011198
-0.00200946
-0.00459447
-0.00748203
-0.00975482
-0.0114079
-0.0125772
-0.0129135
-0.0133214
0.0182585
0.0182445
0.0181211
0.0177278
0.0168223
0.015304
0.0131979
0.0100497
0.00816854
0.00434142
0.0027054
0.00143126
-0.00109177
-0.00289063
-0.00499073
-0.00658994
-0.0076846
-0.00847195
-0.00870072
-0.00903017
0.0123057
0.0122887
0.0122209
0.0120008
0.0114741
0.0105583
0.00934471
0.00716943
0.00614115
0.00312476
0.00198087
0.000981984
-0.000954435
-0.00177547
-0.0031066
-0.00410522
-0.00473373
-0.0052128
-0.00540147
-0.00570067
0.00694315
0.00692528
0.00689392
0.00682922
0.00660693
0.00614976
0.00564638
0.00428001
0.00397236
0.00177747
0.00113894
0.0004119
-0.00103236
-0.00092232
-0.0019025
-0.0024054
-0.00261264
-0.0027813
-0.00274157
-0.00297051
0.00229771
0.00231508
0.00234023
0.00237137
0.0023599
0.0021841
0.00212874
0.0014385
0.00160856
0.000502934
0.000499202
0.000389111
-0.000467873
-0.000117067
-0.00123049
-0.0016118
-0.00202504
-0.00233641
-0.00205787
-0.00204642
-1.07258
-0.235845
0.0340805
0.309191
0.489224
0.64337
0.766921
0.893033
1.03281
1.11686
-0.0954247
0.309778
0.324936
0.5123
0.634462
0.744076
0.83816
0.922183
0.949179
0.907586
0.278753
0.491463
0.525258
0.661051
0.745653
0.824372
0.889343
0.938163
0.940011
0.954361
0.506361
0.648112
0.682729
0.783369
0.839929
0.896703
0.941104
0.973224
0.982169
1.00594
0.68284
0.783287
0.812983
0.879661
0.924017
0.964452
0.996328
1.0205
1.03019
1.06184
0.825113
0.893369
0.923569
0.96599
1.00185
1.03173
1.05586
1.07657
1.09062
1.11897
0.943626
0.993882
1.01933
1.04708
1.07455
1.0982
1.11808
1.13731
1.15215
1.1787
1.047
1.08385
1.10483
1.12536
1.14605
1.16537
1.18274
1.20084
1.21571
1.23938
1.14074
1.16977
1.18605
1.20127
1.21732
1.23336
1.24889
1.26579
1.27941
1.30173
1.22887
1.2493
1.26412
1.27726
1.29081
1.30457
1.31807
1.33266
1.3442
1.36384
1.31425
1.33002
1.34384
1.35564
1.36755
1.37919
1.39032
1.402
1.40967
1.42647
1.39946
1.412
1.42571
1.43746
1.44809
1.45789
1.46671
1.47497
1.47853
1.48977
1.4882
1.49903
1.5125
1.52203
1.52959
1.53688
1.54407
1.55055
1.55164
1.559
1.58661
1.59122
1.59941
1.60415
1.60754
1.61202
1.61802
1.62568
1.62958
1.63946
1.6999
1.6868
1.67951
1.67379
1.67106
1.6724
1.67874
1.6911
1.70592
1.73559
1.82188
1.76584
1.73482
1.71763
1.70941
1.70934
1.71818
1.7378
1.7696
1.83886
)
;

boundaryField
{
    wall-4
    {
        type            zeroGradient;
    }
    pressure-outlet-7
    {
        type            fixedValue;
        value           uniform 0;
    }
    velocity-inlet-6
    {
        type            zeroGradient;
    }
    velocity-inlet-5
    {
        type            zeroGradient;
    }
    frontAndBackPlanes
    {
        type            empty;
    }
}


// ************************************************************************* //
