/*--------------------------------*- C++ -*----------------------------------*\
| =========                 |                                                 |
| \\      /  F ield         | OpenFOAM: The Open Source CFD Toolbox           |
|  \\    /   O peration     | Version:  4.0                                   |
|   \\  /    A nd           | Web:      www.OpenFOAM.org                      |
|    \\/     M anipulation  |                                                 |
\*---------------------------------------------------------------------------*/
FoamFile
{
    version     2.0;
    format      ascii;
    class       volVectorField;
    location    "61";
    object      U;
}
// * * * * * * * * * * * * * * * * * * * * * * * * * * * * * * * * * * * * * //

dimensions      [0 1 -1 0 0 0 0];

internalField   nonuniform List<vector> 
2200
(
(0.878854 -0.0304104 0)
(1.0058 -0.0512778 0)
(1.0033 -0.0353821 0)
(1.00031 -0.0244214 0)
(0.999909 -0.0166315 0)
(1.00002 -0.0107048 0)
(1.00001 -0.00680929 0)
(0.999987 -0.00417376 0)
(0.999945 -0.00214277 0)
(1.00019 -0.000579493 0)
(1.00004 0.00112473 0)
(1.00016 0.00259839 0)
(1.00028 0.00451057 0)
(1.0002 0.0070962 0)
(1.00014 0.0108446 0)
(1.00007 0.016659 0)
(1.00037 0.024374 0)
(1.00348 0.0348602 0)
(1.00599 0.0513797 0)
(0.879054 0.030296 0)
(0.712013 -0.0327664 0)
(0.99665 -0.0630146 0)
(1.03332 -0.0561753 0)
(1.02489 -0.0464426 0)
(1.01586 -0.0361467 0)
(1.00964 -0.0264041 0)
(1.00593 -0.0181679 0)
(1.00381 -0.0114336 0)
(1.00267 -0.00609337 0)
(1.00208 -0.00167091 0)
(1.00191 0.00247327 0)
(1.0022 0.00703896 0)
(1.00331 0.0123177 0)
(1.00553 0.0189044 0)
(1.00932 0.0271997 0)
(1.01543 0.0369487 0)
(1.02456 0.0474591 0)
(1.03316 0.058002 0)
(0.996709 0.063138 0)
(0.711777 0.0330363 0)
(0.535563 -0.0238909 0)
(0.969923 -0.0569266 0)
(1.05644 -0.0547113 0)
(1.05228 -0.0487391 0)
(1.03629 -0.0404129 0)
(1.02448 -0.0322562 0)
(1.01591 -0.0239764 0)
(1.01038 -0.0161117 0)
(1.0071 -0.00881006 0)
(1.00558 -0.00210476 0)
(1.00584 0.00436165 0)
(1.0074 0.0107833 0)
(1.01049 0.0177932 0)
(1.0158 0.0254717 0)
(1.0242 0.0334318 0)
(1.03624 0.0414058 0)
(1.0523 0.0493962 0)
(1.05633 0.0532387 0)
(0.969221 0.0576476 0)
(0.534412 0.0239358 0)
(0.392341 -0.0136481 0)
(0.911829 -0.0463863 0)
(1.05751 -0.0468987 0)
(1.06952 -0.0442946 0)
(1.05483 -0.0381524 0)
(1.03932 -0.031456 0)
(1.02756 -0.0246651 0)
(1.01911 -0.0174327 0)
(1.01379 -0.00995546 0)
(1.01114 -0.00244085 0)
(1.01064 0.00502033 0)
(1.01281 0.0125287 0)
(1.01807 0.0197896 0)
(1.02653 0.0266431 0)
(1.03839 0.0330827 0)
(1.0539 0.039563 0)
(1.06811 0.0456538 0)
(1.05548 0.0483317 0)
(0.909884 0.0470007 0)
(0.389921 0.013781 0)
(0.307723 -0.00451608 0)
(0.846754 -0.0323859 0)
(1.04943 -0.0399378 0)
(1.07952 -0.0381911 0)
(1.06827 -0.0335296 0)
(1.05173 -0.0279224 0)
(1.03835 -0.0225019 0)
(1.0281 -0.0164409 0)
(1.02097 -0.00953451 0)
(1.01708 -0.00186673 0)
(1.0172 0.00611345 0)
(1.02084 0.0133089 0)
(1.02752 0.0197566 0)
(1.03739 0.0254204 0)
(1.05034 0.0303384 0)
(1.06675 0.0356523 0)
(1.0778 0.0399928 0)
(1.04739 0.0417287 0)
(0.843042 0.0329527 0)
(0.303764 0.00473505 0)
(0.264302 0.000102871 0)
(0.789035 -0.0200655 0)
(1.03342 -0.0314468 0)
(1.08357 -0.0320117 0)
(1.07732 -0.0287333 0)
(1.06088 -0.0238453 0)
(1.04724 -0.0193821 0)
(1.03637 -0.0142706 0)
(1.02857 -0.00818878 0)
(1.02422 -0.00121295 0)
(1.02349 0.00603595 0)
(1.027 0.0128799 0)
(1.03437 0.0186131 0)
(1.04497 0.0231711 0)
(1.0586 0.0271645 0)
(1.07487 0.0315756 0)
(1.08029 0.0342701 0)
(1.02915 0.0333472 0)
(0.782593 0.0207341 0)
(0.25875 0.000121204 0)
(0.240387 0.00107076 0)
(0.738438 -0.0122732 0)
(1.01376 -0.0249722 0)
(1.08409 -0.0267372 0)
(1.08306 -0.0244575 0)
(1.06784 -0.0203203 0)
(1.05431 -0.0163068 0)
(1.04343 -0.0117862 0)
(1.03519 -0.00640991 0)
(1.03013 4.43058e-05 0)
(1.02994 0.00687745 0)
(1.03422 0.0127156 0)
(1.04162 0.0173637 0)
(1.05179 0.0213066 0)
(1.06478 0.0246412 0)
(1.07948 0.0280623 0)
(1.07998 0.0296828 0)
(1.00762 0.0272287 0)
(0.728957 0.013147 0)
(0.23313 -0.000835757 0)
(0.226067 0.000957294 0)
(0.695559 -0.00803937 0)
(0.993142 -0.0207452 0)
(1.08224 -0.0231121 0)
(1.08686 -0.0212527 0)
(1.07339 -0.0176694 0)
(1.05993 -0.01386 0)
(1.04937 -0.00956434 0)
(1.04146 -0.00458434 0)
(1.03669 0.00102862 0)
(1.03567 0.00687458 0)
(1.03886 0.0121767 0)
(1.04581 0.0165812 0)
(1.05586 0.0199835 0)
(1.0692 0.0230413 0)
(1.08193 0.0258031 0)
(1.07567 0.0267513 0)
(0.983306 0.0234255 0)
(0.681855 0.00911163 0)
(0.216684 -0.000715158 0)
(0.2165 0.000622527 0)
(0.660189 -0.00566763 0)
(0.972664 -0.0176127 0)
(1.07961 -0.0201881 0)
(1.09033 -0.0186025 0)
(1.0783 -0.0154455 0)
(1.06489 -0.0117768 0)
(1.05436 -0.00758331 0)
(1.04635 -0.0027574 0)
(1.0411 0.00268373 0)
(1.04035 0.00806125 0)
(1.04417 0.0128003 0)
(1.0508 0.0163973 0)
(1.06015 0.0196858 0)
(1.07262 0.0223781 0)
(1.0835 0.0245364 0)
(1.07094 0.0250172 0)
(0.959335 0.021 0)
(0.641839 0.00707089 0)
(0.204618 -0.000334872 0)
(0.209317 0.000298154 0)
(0.631625 -0.00421291 0)
(0.953775 -0.0150089 0)
(1.07647 -0.0179541 0)
(1.09342 -0.0166184 0)
(1.08299 -0.0136606 0)
(1.06956 -0.0100159 0)
(1.05913 -0.00593929 0)
(1.05143 -0.00129152 0)
(1.0466 0.0036616 0)
(1.04511 0.00874878 0)
(1.04721 0.013042 0)
(1.05318 0.0169136 0)
(1.0626 0.0196775 0)
(1.07558 0.0221059 0)
(1.08443 0.023864 0)
(1.06394 0.0237757 0)
(0.93454 0.0191081 0)
(0.606905 0.00592169 0)
(0.194164 3.94782e-05 0)
(0.203489 8.44045e-05 0)
(0.608347 -0.00314977 0)
(0.935816 -0.012553 0)
(1.07337 -0.0155599 0)
(1.0968 -0.0144078 0)
(1.0877 -0.0116676 0)
(1.07413 -0.00815808 0)
(1.0633 -0.00405825 0)
(1.05506 0.000679897 0)
(1.0495 0.00585553 0)
(1.04797 0.0106028 0)
(1.05111 0.0148541 0)
(1.05722 0.0177345 0)
(1.06614 0.0204342 0)
(1.07804 0.0224963 0)
(1.08479 0.0236603 0)
(1.05723 0.0230247 0)
(0.91084 0.0175818 0)
(0.5767 0.00526495 0)
(0.184574 0.000319076 0)
(0.19893 7.01841e-06 0)
(0.59017 -0.00229562 0)
(0.920485 -0.0102462 0)
(1.07042 -0.013454 0)
(1.10008 -0.0123896 0)
(1.09256 -0.00965942 0)
(1.07904 -0.00606231 0)
(1.06823 -0.00216611 0)
(1.06008 0.0023045 0)
(1.05468 0.00710493 0)
(1.05239 0.0119777 0)
(1.05352 0.015861 0)
(1.05866 0.0192012 0)
(1.06773 0.0211925 0)
(1.08023 0.0228524 0)
(1.08452 0.0237321 0)
(1.048 0.0224545 0)
(0.886128 0.0163628 0)
(0.549024 0.00489822 0)
(0.175117 0.000491802 0)
(0.195333 2.44581e-05 0)
(0.575413 -0.0015654 0)
(0.905868 -0.00813373 0)
(1.06764 -0.0110524 0)
(1.10371 -0.00995678 0)
(1.09753 -0.00722815 0)
(1.08378 -0.00369789 0)
(1.07227 0.000340462 0)
(1.06315 0.00500018 0)
(1.05661 0.0101285 0)
(1.05414 0.014658 0)
(1.05646 0.0182841 0)
(1.06216 0.0204183 0)
(1.07076 0.0223766 0)
(1.08172 0.0237234 0)
(1.08374 0.0241274 0)
(1.03917 0.0222607 0)
(0.862433 0.015513 0)
(0.524039 0.00471168 0)
(0.166004 0.000575759 0)
(0.193246 6.66204e-05 0)
(0.564952 -0.000765441 0)
(0.894671 -0.00588222 0)
(1.06538 -0.00870927 0)
(1.10732 -0.0074631 0)
(1.10271 -0.004586 0)
(1.08902 -0.000819112 0)
(1.07751 0.00310295 0)
(1.06853 0.00754237 0)
(1.06196 0.0121999 0)
(1.0583 0.0167056 0)
(1.0585 0.0201198 0)
(1.06285 0.0226107 0)
(1.07167 0.0238456 0)
(1.0828 0.0247542 0)
(1.0818 0.0247664 0)
(1.02705 0.0224023 0)
(0.836864 0.0149785 0)
(0.499574 0.00465027 0)
(0.156739 0.000616541 0)
(0.192375 0.000106666 0)
(0.557457 -0.000220384 0)
(0.884333 -0.00392704 0)
(1.06369 -0.0060385 0)
(1.11138 -0.00455256 0)
(1.10814 -0.00146224 0)
(1.09429 0.00237473 0)
(1.0819 0.00660725 0)
(1.07158 0.0113346 0)
(1.06359 0.0163963 0)
(1.05982 0.0206651 0)
(1.06089 0.0233995 0)
(1.06603 0.0248742 0)
(1.07427 0.0260285 0)
(1.08286 0.0265111 0)
(1.07933 0.0260072 0)
(1.01541 0.0229338 0)
(0.812203 0.0147654 0)
(0.476636 0.00469271 0)
(0.147714 0.000635059 0)
(0.192966 8.41177e-05 0)
(0.55319 0.000832254 0)
(0.878155 -0.00156265 0)
(1.06313 -0.00341369 0)
(1.11583 -0.00159736 0)
(1.11399 0.00167032 0)
(1.10013 0.00585059 0)
(1.08768 0.0102248 0)
(1.07752 0.0149799 0)
(1.06943 0.0197406 0)
(1.06392 0.0237797 0)
(1.06255 0.0266318 0)
(1.06553 0.0280986 0)
(1.07378 0.0285819 0)
(1.08277 0.0287557 0)
(1.07467 0.0277285 0)
(0.999815 0.0237864 0)
(0.78496 0.0149297 0)
(0.452859 0.00483722 0)
(0.138234 0.00065516 0)
(0.195023 0.000233091 0)
(0.553427 0.00152675 0)
(0.873287 0.000499799 0)
(1.06375 -6.39638e-05 0)
(1.12084 0.00213114 0)
(1.12014 0.00583047 0)
(1.10618 0.0103047 0)
(1.09283 0.0152405 0)
(1.08103 0.0205053 0)
(1.07085 0.0255671 0)
(1.065 0.0294519 0)
(1.06446 0.0313212 0)
(1.06847 0.0323038 0)
(1.07571 0.0325866 0)
(1.08095 0.0318222 0)
(1.06951 0.0300243 0)
(0.984601 0.0252213 0)
(0.758109 0.0154479 0)
(0.42957 0.00510723 0)
(0.128701 0.000684487 0)
(0.199203 0.000672532 0)
(0.556088 0.00233988 0)
(0.873654 0.00336634 0)
(1.06633 0.00333439 0)
(1.1268 0.00621095 0)
(1.12712 0.0101696 0)
(1.11279 0.0151205 0)
(1.09902 0.0202707 0)
(1.08706 0.0256241 0)
(1.07685 0.0306758 0)
(1.069 0.0343916 0)
(1.06516 0.0363397 0)
(1.06615 0.036831 0)
(1.07319 0.0361995 0)
(1.07934 0.0355517 0)
(1.06175 0.0330697 0)
(0.964624 0.0270581 0)
(0.727605 0.0163572 0)
(0.404152 0.00548261 0)
(0.118265 0.00071498 0)
(0.205596 0.000873518 0)
(0.56283 0.00344614 0)
(0.87743 0.00580084 0)
(1.07103 0.007489 0)
(1.13366 0.011025 0)
(1.13489 0.0157983 0)
(1.12029 0.0213574 0)
(1.1056 0.0273415 0)
(1.09193 0.0334803 0)
(1.07901 0.0389187 0)
(1.0697 0.0422416 0)
(1.06661 0.0431607 0)
(1.06868 0.0429612 0)
(1.07421 0.0424347 0)
(1.07522 0.0402961 0)
(1.05297 0.0368278 0)
(0.944414 0.0296218 0)
(0.696525 0.0176137 0)
(0.378119 0.00596054 0)
(0.107417 0.000750762 0)
(0.214009 0.00105457 0)
(0.574032 0.00473926 0)
(0.885663 0.00894522 0)
(1.07869 0.0120872 0)
(1.14219 0.0167383 0)
(1.1439 0.022113 0)
(1.12828 0.0285613 0)
(1.11227 0.0349032 0)
(1.09725 0.0411025 0)
(1.08324 0.0463912 0)
(1.0722 0.0500636 0)
(1.06586 0.0510185 0)
(1.06468 0.0502014 0)
(1.06941 0.0478061 0)
(1.07155 0.0460723 0)
(1.04101 0.04142 0)
(0.918028 0.0325507 0)
(0.660374 0.0191993 0)
(0.34877 0.00647821 0)
(0.0953391 0.000772432 0)
(0.22632 0.00140417 0)
(0.592286 0.00668251 0)
(0.900557 0.0132166 0)
(1.08951 0.0182239 0)
(1.15229 0.0237037 0)
(1.15421 0.03008 0)
(1.13759 0.0373539 0)
(1.12011 0.044821 0)
(1.10319 0.052239 0)
(1.08673 0.0585108 0)
(1.07281 0.0610313 0)
(1.066 0.0604467 0)
(1.06543 0.0587037 0)
(1.06896 0.0568223 0)
(1.06442 0.0529742 0)
(1.02699 0.0469549 0)
(0.890644 0.0364664 0)
(0.622408 0.0211147 0)
(0.317864 0.00705348 0)
(0.0826911 0.000793127 0)
(0.241945 0.00194243 0)
(0.615352 0.00852418 0)
(0.920988 0.0178681 0)
(1.10469 0.025219 0)
(1.16473 0.03255 0)
(1.16611 0.0400429 0)
(1.14763 0.0487615 0)
(1.12802 0.0569504 0)
(1.1084 0.0643332 0)
(1.08867 0.0694209 0)
(1.07246 0.0717532 0)
(1.0634 0.0715193 0)
(1.06007 0.0690129 0)
(1.06137 0.0647663 0)
(1.05734 0.0608758 0)
(1.00884 0.0534039 0)
(0.8549 0.0403192 0)
(0.577368 0.0231318 0)
(0.282668 0.00753848 0)
(0.0687323 0.000786475 0)
(0.264006 0.00281458 0)
(0.648752 0.0123012 0)
(0.950375 0.024791 0)
(1.12452 0.0349361 0)
(1.17992 0.0433609 0)
(1.1803 0.0528613 0)
(1.15959 0.0625487 0)
(1.13732 0.0718197 0)
(1.11478 0.0801319 0)
(1.09268 0.0862156 0)
(1.07401 0.0879741 0)
(1.06227 0.0848513 0)
(1.05811 0.0808662 0)
(1.05883 0.0768483 0)
(1.04593 0.0703398 0)
(0.986999 0.0606964 0)
(0.817263 0.0454669 0)
(0.529915 0.0253961 0)
(0.245802 0.00796979 0)
(0.0544941 0.000767378 0)
(0.295056 0.00369828 0)
(0.693337 0.0154013 0)
(0.988724 0.032702 0)
(1.15082 0.046426 0)
(1.19872 0.0579182 0)
(1.19636 0.0694795 0)
(1.17199 0.0810733 0)
(1.14635 0.0911446 0)
(1.12022 0.099129 0)
(1.09343 0.102965 0)
(1.0701 0.101642 0)
(1.05708 0.098658 0)
(1.05158 0.0940029 0)
(1.04793 0.0874541 0)
(1.03385 0.0807028 0)
(0.960048 0.0690421 0)
(0.768199 0.0499961 0)
(0.472136 0.0271865 0)
(0.203884 0.00809255 0)
(0.0391346 0.000663949 0)
(0.331477 0.00708973 0)
(0.751442 0.0247244 0)
(1.03826 0.0466452 0)
(1.18306 0.0646602 0)
(1.22116 0.0775172 0)
(1.21454 0.0922097 0)
(1.18552 0.104555 0)
(1.15554 0.11463 0)
(1.12478 0.121661 0)
(1.0944 0.124734 0)
(1.07018 0.123624 0)
(1.05426 0.117492 0)
(1.04583 0.109943 0)
(1.0426 0.102708 0)
(1.01596 0.0928924 0)
(0.926145 0.0775367 0)
(0.715673 0.055568 0)
(0.413614 0.0292094 0)
(0.162224 0.00804738 0)
(0.0250826 0.000600711 0)
(0.411457 0.0106618 0)
(0.838962 0.0356815 0)
(1.10436 0.0673647 0)
(1.2235 0.0901227 0)
(1.24827 0.106377 6.2457e-34)
(1.23452 0.122801 -2.81806e-34)
(1.19909 0.135124 0)
(1.16427 0.143941 0)
(1.12951 0.149299 0)
(1.09514 0.149517 0)
(1.06455 0.143171 0)
(1.04594 0.134262 0)
(1.03734 0.125847 0)
(1.0267 0.11614 0)
(0.996216 0.104722 0)
(0.886257 0.086867 0)
(0.648642 0.0593114 0)
(0.339442 0.0291716 0)
(0.112766 0.00751086 0)
(0.0094124 0.000757725 0)
(0.482367 0.0258582 4.58612e-20)
(0.941205 0.0597918 -3.47397e-20)
(1.17542 0.101908 0)
(1.26497 0.128984 2.69583e-20)
(1.27649 0.144462 -2.18617e-20)
(1.2534 0.162944 2.97332e-34)
(1.21097 0.173429 0)
(1.17072 0.180187 1.58651e-20)
(1.12987 0.182557 -5.21189e-20)
(1.0894 0.179434 1.06456e-20)
(1.05759 0.171534 0)
(1.0383 0.161529 -2.70595e-20)
(1.02579 0.149797 -3.25168e-20)
(1.01586 0.138223 5.69301e-20)
(0.962316 0.122685 -4.49632e-20)
(0.82082 0.0963635 0)
(0.555452 0.0627354 -1.61754e-20)
(0.25388 0.0280411 0)
(0.0628908 0.00716168 -8.93284e-20)
(-0.00736531 0.000458278 1.05278e-19)
(0.518703 0.0536901 -6.03598e-21)
(1.00634 0.10245 1.03159e-19)
(1.22636 0.152441 -5.54991e-21)
(1.29894 0.176869 -6.60025e-20)
(1.30136 0.194369 -4.62478e-20)
(1.26919 0.210943 7.52483e-20)
(1.22021 0.218549 0)
(1.17434 0.222458 0)
(1.12871 0.222378 8.28715e-20)
(1.08502 0.216698 0)
(1.04837 0.205842 9.76134e-20)
(1.02262 0.190814 2.90351e-20)
(1.00743 0.176995 4.74849e-22)
(0.981656 0.162196 -6.18424e-20)
(0.92078 0.141282 0)
(0.758585 0.111041 0)
(0.480015 0.066523 -2.63501e-19)
(0.19516 0.0265622 6.62575e-19)
(0.0311774 0.00530239 -3.91666e-19)
(-0.0189083 -0.00134215 -4.61341e-19)
(0.526006 0.076175 -5.69966e-20)
(1.04232 0.159567 2.20103e-20)
(1.2625 0.212597 1.21899e-20)
(1.32549 0.236036 1.14918e-19)
(1.32075 0.25196 1.45581e-20)
(1.28117 0.264055 -1.95932e-19)
(1.22655 0.267689 6.69184e-20)
(1.1754 0.268202 0)
(1.12397 0.264505 -1.75121e-19)
(1.07363 0.254893 1.55774e-19)
(1.03075 0.238835 -2.63428e-19)
(1.00371 0.221479 1.23493e-19)
(0.986594 0.206097 -8.00636e-20)
(0.964813 0.190328 1.80462e-19)
(0.887707 0.166874 0)
(0.712884 0.125002 -6.57856e-20)
(0.434851 0.0725373 0)
(0.176138 0.027692 3.61839e-19)
(0.0229255 0.00425541 -8.57805e-19)
(-0.0225682 -0.00315683 5.37021e-19)
(0.522473 0.108068 1.52742e-19)
(1.06499 0.216945 -6.74545e-20)
(1.28519 0.278261 -1.45636e-20)
(1.34278 0.300896 0)
(1.33303 0.314552 -8.52077e-20)
(1.28826 0.321451 1.05217e-19)
(1.22892 0.320271 -7.15346e-20)
(1.17274 0.316579 0)
(1.1166 0.308922 1.24404e-19)
(1.06266 0.2951 -1.09407e-19)
(1.01755 0.275589 2.27821e-19)
(0.987137 0.256614 0)
(0.965306 0.238996 -1.70071e-19)
(0.931003 0.217479 9.58355e-20)
(0.854669 0.187978 2.41308e-19)
(0.681069 0.142672 -2.12321e-19)
(0.416715 0.0830048 3.35614e-19)
(0.173118 0.0322466 -7.4212e-19)
(0.0237674 0.00445312 4.69727e-19)
(-0.0228651 -0.0046938 -5.87429e-19)
(0.509759 0.132055 -4.87305e-20)
(1.07022 0.269717 3.46538e-20)
(1.29521 0.343407 -4.85483e-20)
(1.35182 0.366468 9.86886e-20)
(1.33893 0.37808 -9.43332e-20)
(1.29052 0.379869 3.30324e-20)
(1.22762 0.374015 3.73071e-21)
(1.1679 0.366007 -1.40109e-19)
(1.10801 0.353602 -1.30144e-19)
(1.04938 0.334811 -2.34676e-19)
(0.999232 0.311745 -4.89944e-19)
(0.964018 0.289605 -1.51153e-19)
(0.940781 0.269063 2.21675e-21)
(0.912966 0.247716 -3.2819e-19)
(0.830557 0.216857 -5.33026e-21)
(0.658821 0.1617 3.08954e-19)
(0.408935 0.0952292 -9.28613e-20)
(0.177985 0.0396871 -5.3763e-20)
(0.0316152 0.00599838 0)
(-0.0197395 -0.00512932 1.24928e-18)
(0.494068 0.153189 0)
(1.06707 0.320549 -1.53058e-21)
(1.29816 0.407253 -7.31038e-21)
(1.35406 0.430622 -1.29103e-20)
(1.3386 0.440961 9.04978e-20)
(1.28781 0.438372 -7.73855e-20)
(1.22235 0.427999 7.78987e-20)
(1.15934 0.415465 2.30154e-19)
(1.09556 0.398965 -7.24912e-20)
(1.03252 0.376294 1.15754e-19)
(0.978564 0.348925 2.63405e-19)
(0.943665 0.323961 3.29582e-19)
(0.917689 0.301216 -1.98611e-19)
(0.878303 0.275892 3.55508e-19)
(0.801381 0.238372 -2.81763e-19)
(0.639206 0.184048 0)
(0.404898 0.111258 -7.05118e-19)
(0.188284 0.0497134 9.49067e-19)
(0.0438316 0.0104916 7.08356e-20)
(-0.0142242 -0.00456168 -1.3217e-18)
(0.478186 0.172786 -5.09207e-21)
(1.05659 0.367284 -1.16749e-20)
(1.29432 0.467347 5.29089e-20)
(1.35126 0.492462 -7.59274e-20)
(1.33402 0.50191 7.58903e-20)
(1.28149 0.495167 -7.45307e-20)
(1.21391 0.480875 1.53922e-19)
(1.14828 0.464542 -6.87531e-20)
(1.08132 0.443755 -2.92438e-19)
(1.01496 0.416453 -2.09207e-22)
(0.959537 0.385664 -2.86511e-19)
(0.919564 0.357502 -3.54899e-19)
(0.890708 0.331372 2.19493e-19)
(0.860308 0.306193 -1.27905e-19)
(0.779216 0.269399 3.06648e-19)
(0.623299 0.204364 0)
(0.402514 0.12852 -4.3841e-19)
(0.197553 0.0608697 6.47531e-19)
(0.0553613 0.016272 1.22473e-18)
(-0.00845989 -0.00329478 -1.44025e-18)
(0.464651 0.190773 -8.3136e-20)
(1.04607 0.413012 3.60603e-20)
(1.28785 0.525555 -3.21714e-20)
(1.34459 0.551653 7.81888e-20)
(1.3256 0.560367 1.21594e-20)
(1.27165 0.550309 -1.45767e-19)
(1.20234 0.532571 -8.96263e-20)
(1.13458 0.512318 -8.8503e-20)
(1.06536 0.487706 -1.65352e-19)
(0.996918 0.456426 2.66068e-19)
(0.937787 0.421699 2.89315e-19)
(0.896642 0.389201 5.63132e-19)
(0.867479 0.362933 0)
(0.826343 0.333847 6.51154e-21)
(0.7527 0.290295 -8.43425e-19)
(0.606423 0.227943 1.97828e-19)
(0.399726 0.145887 9.51258e-19)
(0.205759 0.0732065 -2.80741e-19)
(0.0663174 0.0231012 5.82626e-19)
(-0.0026444 -0.00140459 -4.85503e-20)
(0.453287 0.208081 5.82909e-21)
(1.03207 0.454217 5.55665e-20)
(1.27757 0.579667 -1.02048e-20)
(1.33501 0.60812 7.95647e-20)
(1.31471 0.616394 -1.44993e-19)
(1.25974 0.603 1.44341e-19)
(1.18928 0.582031 9.2757e-20)
(1.1202 0.558532 2.63945e-19)
(1.04893 0.53024 3.31432e-19)
(0.977185 0.495116 -3.07912e-19)
(0.915034 0.457214 0)
(0.871418 0.422604 -2.13401e-19)
(0.840024 0.391999 2.4501e-19)
(0.808302 0.361975 3.09611e-19)
(0.732111 0.320864 -1.79169e-19)
(0.59092 0.247793 -4.35919e-19)
(0.395549 0.16341 -1.29915e-19)
(0.211482 0.0855272 -1.9621e-21)
(0.0749744 0.030167 0)
(0.00227701 0.000651262 0)
(0.445338 0.224445 -8.10212e-20)
(1.02106 0.495449 0)
(1.26676 0.632084 4.85404e-21)
(1.32343 0.661822 -1.49462e-20)
(1.30193 0.669245 1.66258e-19)
(1.24615 0.653222 -4.19383e-20)
(1.1747 0.629595 9.42322e-20)
(1.10417 0.602947 -1.78422e-19)
(1.03096 0.571646 2.51373e-19)
(0.957607 0.533507 -1.01725e-19)
(0.893479 0.491299 1.66048e-19)
(0.84902 0.452785 6.77323e-19)
(0.81658 0.421592 1.43759e-20)
(0.774727 0.38839 -3.23147e-19)
(0.706049 0.339162 5.9862e-19)
(0.572813 0.27086 3.68004e-21)
(0.389454 0.179665 1.38991e-19)
(0.213834 0.097663 -6.6263e-19)
(0.0805162 0.0365107 6.82898e-19)
(0.00595382 0.00256112 -8.04515e-19)
(0.437846 0.241339 2.63128e-23)
(1.00764 0.532068 0)
(1.25379 0.680149 0)
(1.31041 0.712703 5.37375e-22)
(1.28805 0.719751 -4.8439e-20)
(1.23162 0.700972 6.70636e-20)
(1.15946 0.674672 -1.74623e-19)
(1.08803 0.645397 0)
(1.01317 0.611113 -3.70886e-19)
(0.937123 0.569582 4.46389e-19)
(0.870193 0.524197 4.74543e-19)
(0.822601 0.483908 -2.48669e-19)
(0.789261 0.447724 -3.01484e-19)
(0.757182 0.412479 7.0714e-19)
(0.684494 0.367678 -2.1287e-19)
(0.555141 0.287366 -2.53792e-19)
(0.379735 0.194705 -1.51781e-19)
(0.212098 0.107413 -7.15925e-19)
(0.0827565 0.0417152 1.04965e-19)
(0.00836787 0.00403757 8.70831e-19)
(0.433221 0.259102 -3.94926e-20)
(0.997586 0.569366 -5.27885e-20)
(1.24118 0.726693 2.36849e-20)
(1.29658 0.760696 -1.97795e-22)
(1.2734 0.766834 -5.24187e-20)
(1.21641 0.745984 1.06674e-19)
(1.14353 0.717657 0)
(1.0709 0.685929 1.08169e-19)
(0.994408 0.649345 -8.52917e-20)
(0.916966 0.605629 7.45339e-19)
(0.848376 0.556814 -1.0735e-19)
(0.799847 0.512177 1.23259e-19)
(0.765904 0.474889 0)
(0.723947 0.436627 -3.83008e-19)
(0.658204 0.381033 4.64233e-19)
(0.535334 0.306873 0)
(0.368938 0.207249 -3.26816e-19)
(0.208029 0.115738 9.61966e-19)
(0.0818844 0.0455065 1.14116e-19)
(0.00936792 0.00495075 -1.07322e-18)
(0.430021 0.276173 -9.88711e-20)
(0.98604 0.602329 1.26139e-19)
(1.22734 0.76901 0)
(1.28219 0.805801 2.08457e-20)
(1.25832 0.81181 0)
(1.2008 0.788763 -1.39808e-19)
(1.1274 0.75822 0)
(1.05419 0.724398 0)
(0.976573 0.685599 -1.13461e-19)
(0.896695 0.639092 -7.08621e-19)
(0.825164 0.587053 -8.77503e-19)
(0.773293 0.54013 1.44446e-19)
(0.738196 0.497808 5.2171e-19)
(0.705673 0.456603 4.22194e-19)
(0.636458 0.405877 -1.48981e-18)
(0.515919 0.317644 -5.96143e-19)
(0.355734 0.217865 3.49434e-19)
(0.201133 0.121826 0)
(0.0795727 0.0474726 9.78207e-19)
(0.00933872 0.00548268 -1.15658e-18)
(0.428287 0.291749 1.17548e-19)
(0.977431 0.636027 -1.46118e-19)
(1.21441 0.81018 0)
(1.26767 0.848166 -1.12673e-20)
(1.24311 0.85334 -2.67024e-21)
(1.18516 0.828708 0)
(1.11135 0.796671 5.39531e-20)
(1.03734 0.761007 7.53974e-20)
(0.958393 0.720583 -2.13086e-19)
(0.876944 0.67251 9.38009e-20)
(0.803366 0.618294 0)
(0.750532 0.56689 5.98599e-19)
(0.714115 0.522299 5.7957e-21)
(0.672082 0.477457 2.27844e-19)
(0.609899 0.413018 2.70414e-19)
(0.495298 0.331827 0)
(0.342677 0.224827 -5.69443e-19)
(0.193011 0.125651 1.11575e-18)
(0.0759529 0.0484893 -1.1827e-18)
(0.00873635 0.00564222 2.49024e-18)
(0.426753 0.306638 0)
(0.967142 0.665489 0)
(1.20083 0.847242 -7.18045e-20)
(1.25314 0.887803 0)
(1.22795 0.893085 0)
(1.16961 0.866751 -1.13641e-19)
(1.09554 0.832903 5.51997e-20)
(1.02119 0.795602 1.77903e-20)
(0.941203 0.753619 -4.85868e-20)
(0.857123 0.703524 0)
(0.780201 0.646541 -1.33965e-19)
(0.723719 0.591931 -4.88322e-19)
(0.684944 0.54257 -5.88528e-19)
(0.65279 0.49228 -2.36836e-19)
(0.587329 0.433225 2.92833e-19)
(0.475418 0.335354 -6.89911e-19)
(0.328832 0.229371 1.2256e-18)
(0.184759 0.126715 1.69002e-21)
(0.0721163 0.0487432 -1.13149e-18)
(0.00809182 0.00573885 -1.67946e-19)
(0.425691 0.320932 0)
(0.959523 0.696178 -1.18635e-19)
(1.18847 0.883597 8.74377e-20)
(1.23891 0.925033 0)
(1.21311 0.929508 0)
(1.15451 0.901964 2.26734e-19)
(1.08028 0.867091 0)
(1.00527 0.828473 0)
(0.923938 0.785372 -4.67912e-19)
(0.838425 0.73429 1.30239e-19)
(0.759302 0.675825 -1.18796e-18)
(0.700737 0.617885 0)
(0.660524 0.565918 -6.40266e-19)
(0.61711 0.509979 1.03429e-20)
(0.558935 0.432314 -9.42528e-19)
(0.454299 0.342203 3.71048e-19)
(0.3168 0.228656 1.29204e-21)
(0.179366 0.124294 -1.27749e-18)
(0.0698107 0.0470624 6.08822e-19)
(0.00614409 0.00376581 1.79643e-19)
(0.424492 0.335008 0)
(0.950434 0.7228 -1.62346e-19)
(1.17571 0.91606 9.21408e-20)
(1.22499 0.959766 1.25123e-19)
(1.19864 0.96448 -8.46827e-21)
(1.13974 0.935622 2.25899e-20)
(1.06537 0.899301 -3.19417e-20)
(0.990093 0.859431 4.44842e-19)
(0.90784 0.815257 5.00533e-19)
(0.819789 0.762934 9.91593e-19)
(0.736573 0.702736 9.87009e-19)
(0.673436 0.642062 1.73796e-19)
(0.628901 0.584139 9.21001e-19)
(0.595106 0.520198 5.69568e-19)
(0.533252 0.446832 6.76443e-19)
(0.433757 0.334732 -4.06007e-19)
(0.303412 0.221545 -4.68701e-19)
(0.178567 0.120299 5.49426e-19)
(0.0758642 0.0534152 -3.27295e-19)
(0.0127685 0.0124476 5.82001e-19)
(0.423666 0.348589 2.27522e-19)
(0.943863 0.750804 2.54389e-19)
(1.16424 0.948262 5.31437e-20)
(1.21154 0.992447 1.57059e-20)
(1.18468 0.996304 -6.6934e-21)
(1.12562 0.966493 -6.26715e-20)
(1.05121 0.929524 3.06024e-20)
(0.975422 0.888809 -1.94333e-20)
(0.891972 0.84395 -5.83055e-19)
(0.802576 0.79118 -1.07638e-18)
(0.717125 0.730252 6.85383e-20)
(0.650865 0.667473 0)
(0.603764 0.607388 0)
(0.555165 0.536614 -2.97155e-19)
(0.499333 0.436859 -1.10889e-18)
(0.410373 0.330111 8.74677e-19)
(0.299865 0.202997 5.12977e-19)
(0.188999 0.100229 0)
(0.092097 0.0248228 1.04753e-18)
(0.00665083 -0.0138522 -6.20616e-19)
(0.422674 0.36174 -1.20702e-19)
(0.935829 0.7746 1.06606e-19)
(1.15239 0.976672 -1.27341e-19)
(1.19853 1.02281 -1.05568e-19)
(1.17119 1.02697 -1.82013e-20)
(1.11192 0.996136 -1.99738e-20)
(1.03746 0.958019 0)
(0.961542 0.916394 -5.5936e-19)
(0.877352 0.870858 7.07741e-20)
(0.785545 0.817442 0)
(0.695896 0.756072 0)
(0.624193 0.692172 1.11301e-19)
(0.569445 0.625218 1.49743e-19)
(0.528594 0.543825 -3.21368e-19)
(0.46683 0.447909 7.95887e-19)
(0.381007 0.307255 -9.53363e-19)
(0.280427 0.178241 -1.09985e-18)
(0.207617 0.0866918 9.74622e-19)
(0.157626 0.0747464 -3.72424e-19)
(0.111425 0.0766068 2.16671e-19)
(0.421967 0.374025 1.50485e-19)
(0.93003 0.799847 0)
(1.1418 1.00518 0)
(1.18604 1.05143 -2.93824e-20)
(1.15827 1.05467 2.3787e-20)
(1.09895 1.02306 -2.00631e-20)
(1.02461 0.984589 1.38734e-19)
(0.948326 0.942525 5.72565e-19)
(0.863063 0.896656 1.05845e-18)
(0.770109 0.843252 -8.12959e-20)
(0.67854 0.78204 1.68343e-19)
(0.602811 0.717156 -9.96495e-19)
(0.544592 0.649743 -9.95258e-19)
(0.482846 0.563028 -1.72784e-19)
(0.418475 0.431581 0)
(0.343845 0.298643 -5.15925e-21)
(0.260222 0.105809 6.07132e-19)
(0.248144 -0.016548 -1.01958e-18)
(0.214006 -0.103898 7.74848e-19)
(0.0875872 -0.0984431 6.41505e-19)
(0.420856 0.386026 -3.32093e-19)
(0.922606 0.820812 -1.49595e-19)
(1.13071 1.03002 6.92863e-21)
(1.17391 1.07808 5.95361e-20)
(1.14572 1.08178 0)
(1.08623 1.04946 -5.64774e-20)
(1.01188 1.01016 -2.00776e-19)
(0.935532 0.967548 -1.94112e-21)
(0.849681 0.921433 -5.54602e-19)
(0.754543 0.867977 -7.98379e-20)
(0.658776 0.80752 7.41568e-20)
(0.577037 0.743888 8.75547e-19)
(0.507023 0.670332 9.70888e-19)
(0.4501 0.570306 1.68658e-19)
(0.377479 0.450526 8.61038e-19)
(0.279662 0.26487 0)
(0.152959 0.0889602 0)
(-0.00713117 0.183644 6.97818e-19)
(-0.078648 0.630079 -2.77849e-20)
(0.00899069 1.54245 -8.64399e-19)
(0.420139 0.397239 1.83294e-19)
(0.917368 0.84373 4.21319e-19)
(1.12084 1.05563 -5.81131e-19)
(1.16217 1.10369 2.94319e-19)
(1.13356 1.10659 -9.53635e-21)
(1.07403 1.07383 -7.82956e-21)
(0.999812 1.03467 0)
(0.923095 0.992227 -4.77019e-19)
(0.836217 0.946459 0)
(0.740011 0.893845 1.12292e-18)
(0.642202 0.834616 -9.07103e-20)
(0.55569 0.771395 1.01714e-19)
(0.482695 0.700918 1.11662e-18)
(0.395276 0.604227 -3.6642e-19)
(0.286112 0.436885 -4.37324e-19)
(0.187259 0.316173 0)
(0.0778039 0.472047 0)
(0.0249008 1.35258 0)
(0.0713535 2.47064 -3.9615e-19)
(0.0981543 2.91425 -2.44498e-19)
(0.41868 0.407981 0)
(0.910404 0.862136 0)
(1.11042 1.07751 2.11729e-19)
(1.15086 1.12747 -2.39376e-19)
(1.12182 1.13116 1.09288e-19)
(1.06209 1.09813 1.61064e-20)
(0.987829 1.05858 2.62045e-20)
(0.911079 1.01609 -2.0402e-20)
(0.823805 0.97075 7.86128e-20)
(0.725528 0.918894 -1.28877e-18)
(0.623472 0.861701 1.64263e-19)
(0.531144 0.802798 8.78908e-19)
(0.441481 0.729558 -1.11199e-18)
(0.358131 0.613485 -1.22701e-18)
(0.265286 0.494813 4.12324e-19)
(0.182949 0.637343 0)
(0.115477 1.57942 5.63807e-19)
(0.119433 2.69905 6.1109e-19)
(0.12702 3.08987 -6.82861e-19)
(0.119526 3.22311 7.28921e-19)
(0.417717 0.418442 0)
(0.905675 0.882806 3.70275e-19)
(1.10131 1.10054 -5.30522e-20)
(1.13998 1.1504 3.32879e-19)
(1.11052 1.15341 -1.14715e-19)
(1.05078 1.12022 0)
(0.976701 1.0812 0)
(0.899658 1.03943 0)
(0.811473 0.995068 4.41007e-19)
(0.712345 0.944962 5.93212e-20)
(0.608559 0.890213 0)
(0.511192 0.832347 -8.73614e-19)
(0.424748 0.764896 0)
(0.303571 0.65963 8.77846e-19)
(0.201447 0.711654 -5.94356e-19)
(0.147457 1.46505 -4.76747e-19)
(0.151004 2.68588 -1.10151e-18)
(0.174072 3.12628 -5.79378e-19)
(0.164752 3.26585 -7.81252e-19)
(0.151594 3.30606 5.74251e-19)
(0.416119 0.427863 -1.29087e-19)
(0.899101 0.898692 1.50139e-20)
(1.09158 1.11965 -5.89192e-20)
(1.12957 1.17156 -2.57766e-19)
(1.09969 1.17566 0)
(1.03976 1.14256 0)
(0.965609 1.10348 0)
(0.888601 1.06202 3.35694e-20)
(0.800254 1.0186 -5.57675e-19)
(0.699418 0.969941 0)
(0.592074 0.918167 0)
(0.491696 0.866943 0)
(0.380885 0.794707 0)
(0.308651 0.751583 6.43847e-19)
(0.267241 1.14646 1.58084e-18)
(0.240968 2.39629 4.65122e-19)
(0.257215 3.08201 9.32621e-19)
(0.251842 3.27983 -7.14739e-19)
(0.203489 3.34527 2.62234e-19)
(0.171613 3.35833 0)
(0.41499 0.437143 1.32747e-19)
(0.894711 0.917836 -8.20819e-19)
(1.08302 1.14101 -2.21107e-19)
(1.11934 1.19269 -4.88787e-20)
(1.08905 1.19616 2.661e-20)
(1.02916 1.16308 -1.0057e-19)
(0.955282 1.12481 -1.60789e-21)
(0.878092 1.08446 -3.70191e-19)
(0.788994 1.0425 0)
(0.687712 0.996421 -7.57495e-20)
(0.579446 0.948421 6.89097e-20)
(0.474302 0.897324 0)
(0.381229 0.840258 0)
(0.32091 0.942046 -8.06563e-19)
(0.26789 1.85323 1.00759e-19)
(0.264347 2.94459 -3.49869e-19)
(0.288686 3.28324 7.31585e-19)
(0.260282 3.38147 5.26264e-19)
(0.195573 3.40598 -7.13493e-19)
(0.171106 3.416 3.52493e-19)
(0.412914 0.446685 2.60321e-19)
(0.887526 0.93294 7.99318e-19)
(1.07283 1.15954 2.65826e-19)
(1.10872 1.21356 0)
(1.07811 1.21839 0)
(1.0181 1.1855 7.81285e-20)
(0.944225 1.1472 5.96426e-20)
(0.867263 1.10721 3.2979e-19)
(0.77839 1.0664 2.16833e-20)
(0.676003 1.02213 9.66483e-19)
(0.56566 0.977202 -1.14832e-18)
(0.454974 0.929935 0)
(0.377226 0.914259 0)
(0.333731 1.31497 -5.50085e-19)
(0.330469 2.49412 -6.60938e-19)
(0.374659 3.19534 0)
(0.3995 3.36412 -7.40737e-19)
(0.328984 3.4269 4.94446e-20)
(0.260499 3.47225 3.45167e-19)
(0.238325 3.49765 -1.13338e-19)
(0.411152 0.456537 -4.94838e-19)
(0.882483 0.954145 -3.83612e-19)
(1.06315 1.18302 0)
(1.09727 1.23625 0)
(1.06635 1.24006 0)
(1.0066 1.20697 0)
(0.933284 1.16946 -7.12407e-20)
(0.856433 1.13065 2.88217e-19)
(0.767145 1.09138 0)
(0.665124 1.05008 -8.79793e-19)
(0.555209 1.00972 2.06063e-18)
(0.445802 0.971665 8.43826e-20)
(0.395777 1.03937 1.13442e-19)
(0.385436 1.74495 8.96373e-19)
(0.396651 2.90174 -4.8255e-19)
(0.436125 3.31535 0)
(0.419327 3.43713 2.08245e-19)
(0.333666 3.52602 9.12303e-20)
(0.259572 3.58995 1.47984e-19)
(0.184146 3.56942 -1.30915e-20)
(0.408138 0.466954 2.35176e-19)
(0.873372 0.970153 -3.91162e-19)
(1.05098 1.20288 0)
(1.08501 1.25881 -7.15452e-20)
(1.05388 1.2642 2.46406e-19)
(0.994167 1.23119 0)
(0.921063 1.19336 0)
(0.84479 1.15462 -4.99884e-19)
(0.756311 1.11637 -5.61968e-20)
(0.654037 1.07681 8.62951e-19)
(0.540614 1.03853 -9.79029e-19)
(0.449745 1.01875 5.74296e-19)
(0.410464 1.22301 0)
(0.420202 2.18691 -4.75302e-19)
(0.462722 3.14366 3.11688e-19)
(0.527301 3.41768 1.96105e-19)