/*--------------------------------*- C++ -*----------------------------------*\
| =========                 |                                                 |
| \\      /  F ield         | OpenFOAM: The Open Source CFD Toolbox           |
|  \\    /   O peration     | Version:  4.0                                   |
|   \\  /    A nd           | Web:      www.OpenFOAM.org                      |
|    \\/     M anipulation  |                                                 |
\*---------------------------------------------------------------------------*/
FoamFile
{
    version     2.0;
    format      ascii;
    class       volScalarField;
    location    "50";
    object      p;
}
// * * * * * * * * * * * * * * * * * * * * * * * * * * * * * * * * * * * * * //

dimensions      [0 2 -2 0 0 0 0];

internalField   nonuniform List<scalar> 
8800
(
0.868614
0.820825
0.782135
0.753138
0.732271
0.717437
0.706836
0.69935
0.694523
0.692456
0.693713
0.697894
0.704532
0.713843
0.726618
0.744349
0.769124
0.803063
0.845611
0.904313
0.699867
0.707545
0.715018
0.718325
0.716819
0.711738
0.705247
0.699164
0.694433
0.691581
0.691291
0.693786
0.698266
0.704203
0.710967
0.717243
0.720881
0.720143
0.714721
0.706028
0.678277
0.684436
0.688561
0.691503
0.693548
0.694148
0.693035
0.690923
0.688898
0.68798
0.68893
0.6913
0.69409
0.696263
0.696864
0.69566
0.693314
0.689918
0.685359
0.681598
0.672482
0.675131
0.67788
0.680279
0.681909
0.683064
0.683798
0.683906
0.6836
0.683538
0.684276
0.685433
0.686261
0.686316
0.685699
0.684601
0.68278
0.680206
0.6778
0.676296
0.66712
0.668544
0.670319
0.672346
0.674124
0.675457
0.676437
0.677223
0.677825
0.678374
0.679007
0.679487
0.679571
0.679271
0.678563
0.677306
0.675604
0.67375
0.67244
0.671609
0.662068
0.662987
0.664225
0.665785
0.66741
0.668925
0.670198
0.671251
0.672199
0.673073
0.673741
0.674048
0.673987
0.673531
0.672636
0.671424
0.670088
0.66882
0.667995
0.667444
0.657192
0.657861
0.658819
0.660114
0.661513
0.662959
0.664384
0.66569
0.666868
0.667951
0.668745
0.669084
0.668975
0.668444
0.667619
0.666656
0.665631
0.664698
0.664109
0.663704
0.652448
0.652964
0.653742
0.654863
0.656129
0.657489
0.658918
0.660369
0.661771
0.663076
0.664046
0.66448
0.664421
0.664006
0.663378
0.662632
0.66184
0.661145
0.660707
0.660391
0.647764
0.648174
0.648825
0.64982
0.651012
0.652322
0.653746
0.655276
0.656865
0.658423
0.659621
0.66023
0.660349
0.66014
0.659723
0.65918
0.658586
0.658079
0.657751
0.657494
0.643057
0.643391
0.643952
0.644868
0.646009
0.6473
0.648754
0.650375
0.65214
0.65397
0.655466
0.656349
0.656726
0.656754
0.656554
0.656222
0.655813
0.65546
0.655216
0.655002
0.638241
0.638518
0.639018
0.639886
0.641007
0.642319
0.64384
0.64559
0.64757
0.649715
0.651587
0.652825
0.653513
0.653809
0.653844
0.653721
0.653495
0.653276
0.653099
0.652914
0.633232
0.633465
0.633925
0.634776
0.635916
0.637292
0.638922
0.640854
0.643111
0.645646
0.647981
0.649646
0.650696
0.6513
0.651593
0.651686
0.651637
0.651541
0.651418
0.651255
0.627942
0.62814
0.62858
0.629443
0.630644
0.632127
0.63392
0.636103
0.638718
0.641748
0.644644
0.646815
0.648284
0.649234
0.649816
0.65013
0.650274
0.650291
0.650215
0.650067
0.622275
0.622444
0.622881
0.623786
0.625089
0.62673
0.628754
0.631266
0.634337
0.637985
0.641562
0.644334
0.646297
0.647644
0.64855
0.649134
0.649463
0.649586
0.649548
0.64941
0.61612
0.616265
0.616714
0.61769
0.619141
0.621
0.623331
0.626262
0.629908
0.634315
0.63872
0.642216
0.644764
0.646577
0.647851
0.648723
0.649263
0.649498
0.649498
0.649366
0.609347
0.609466
0.609942
0.611022
0.612672
0.614817
0.617539
0.621005
0.625367
0.630705
0.636117
0.640483
0.643727
0.646091
0.647796
0.648995
0.649771
0.650122
0.650155
0.650026
0.601788
0.601882
0.6024
0.603616
0.605523
0.608034
0.61126
0.615405
0.620661
0.627142
0.633771
0.639178
0.643243
0.646252
0.648474
0.650056
0.651092
0.651565
0.651631
0.651501
0.593216
0.593314
0.593884
0.595257
0.597494
0.600478
0.604347
0.609349
0.615726
0.623617
0.631712
0.638352
0.643386
0.647153
0.649985
0.652017
0.653348
0.65395
0.654048
0.653914
0.583344
0.583422
0.58408
0.585675
0.588338
0.591933
0.596617
0.602695
0.610459
0.62007
0.629934
0.638043
0.64423
0.648896
0.652438
0.654996
0.656664
0.657407
0.657536
0.657393
0.571806
0.571867
0.572622
0.574528
0.577739
0.582117
0.587844
0.595292
0.604794
0.616515
0.628499
0.638338
0.645866
0.651591
0.655952
0.659133
0.661178
0.66207
0.662228
0.662074
0.558069
0.558118
0.559016
0.56133
0.565269
0.570679
0.577769
0.586978
0.598665
0.612961
0.627469
0.639332
0.648409
0.655353
0.660676
0.664563
0.66702
0.668064
0.668245
0.668075
0.541379
0.541416
0.542529
0.545421
0.550355
0.557161
0.566073
0.577584
0.592039
0.609478
0.626939
0.641124
0.651971
0.660302
0.666706
0.671395
0.674292
0.675483
0.675678
0.675489
0.520617
0.520651
0.5221
0.525855
0.532221
0.540994
0.552399
0.566942
0.584869
0.60608
0.626981
0.643798
0.656638
0.66653
0.674134
0.679711
0.683056
0.684374
0.684569
0.684358
0.494048
0.4941
0.496128
0.501283
0.509866
0.521536
0.536465
0.555061
0.57737
0.603072
0.627852
0.647541
0.662528
0.674124
0.683037
0.689544
0.693305
0.694705
0.694878
0.694643
0.458667
0.458816
0.462037
0.46978
0.482123
0.498214
0.518165
0.542069
0.56972
0.600594
0.629671
0.652453
0.669718
0.68309
0.693415
0.700827
0.704913
0.706318
0.706438
0.706178
0.408721
0.409677
0.416096
0.429154
0.448026
0.470954
0.497826
0.528449
0.562421
0.599072
0.632696
0.658651
0.678218
0.693403
0.705132
0.713339
0.717592
0.718896
0.718934
0.718648
0.335307
0.342482
0.35737
0.380405
0.409039
0.441141
0.476495
0.514876
0.555885
0.598841
0.637396
0.666814
0.688931
0.706143
0.719386
0.728355
0.732736
0.733951
0.733941
0.733689
0.256176
0.273208
0.297371
0.331028
0.369828
0.41126
0.45519
0.501558
0.550057
0.600089
0.644606
0.678457
0.703879
0.723631
0.738828
0.748551
0.752842
0.753862
0.75388
0.753739
0.190271
0.210369
0.242231
0.284862
0.332646
0.382875
0.435129
0.489339
0.545188
0.602096
0.652306
0.690297
0.718786
0.740807
0.757369
0.767454
0.771589
0.772591
0.77271
0.77264
0.136285
0.158043
0.195405
0.244435
0.299303
0.356938
0.416558
0.477964
0.54072
0.604169
0.659772
0.701638
0.732895
0.756889
0.774713
0.785424
0.790062
0.791102
0.791207
0.791177
0.0912497
0.114206
0.15536
0.20947
0.270041
0.333792
0.399732
0.467535
0.536608
0.606162
0.666844
0.712341
0.746199
0.772115
0.791278
0.802907
0.807904
0.808954
0.809108
0.809115
0.0529104
0.0765536
0.120566
0.178735
0.244097
0.313054
0.384484
0.457968
0.532782
0.607987
0.673411
0.72231
0.758609
0.786363
0.80674
0.819197
0.824622
0.825838
0.826038
0.826063
0.0192693
0.0433835
0.0896785
0.151167
0.220584
0.294064
0.370357
0.448956
0.529029
0.609483
0.679347
0.731409
0.76995
0.799253
0.820695
0.833847
0.839664
0.841168
0.841437
0.841482
-0.0111365
0.0133947
0.0615607
0.125886
0.198798
0.276235
0.356885
0.440144
0.525085
0.610471
0.68453
0.739558
0.780116
0.810768
0.833114
0.846791
0.85293
0.854679
0.854987
0.85502
-0.0392424
-0.014323
0.0354643
0.102207
0.178195
0.259135
0.3437
0.431222
0.520709
0.610783
0.688886
0.746743
0.789169
0.821079
0.844142
0.858174
0.864564
0.866472
0.866789
0.866802
-0.065829
-0.0404747
0.010823
0.0796533
0.158369
0.242433
0.330534
0.421976
0.515726
0.610308
0.692371
0.753
0.797234
0.830298
0.853906
0.868179
0.874686
0.876679
0.876978
0.876961
-0.0912366
-0.0654395
-0.0129949
0.057908
0.139036
0.225905
0.317208
0.412259
0.51002
0.60896
0.694949
0.758372
0.804429
0.838562
0.862619
0.876963
0.883526
0.885561
0.885858
0.885807
-0.115873
-0.0895014
-0.0359889
0.03673
0.120012
0.209396
0.303607
0.401977
0.503504
0.606659
0.69659
0.762914
0.810875
0.84608
0.870492
0.884876
0.891439
0.893433
0.893718
0.893653
-0.139862
-0.11304
-0.0583353
0.0159753
0.10119
0.192828
0.289666
0.391082
0.49613
0.603356
0.697275
0.766673
0.816692
0.852985
0.877719
0.892102
0.898604
0.900529
0.900739
0.900635
-0.163312
-0.135938
-0.0801866
-0.00442527
0.0825232
0.176176
0.275373
0.379559
0.487879
0.599013
0.696966
0.76967
0.821953
0.859406
0.884452
0.898773
0.905094
0.906881
0.907016
0.906869
-0.18634
-0.158364
-0.1016
-0.0244966
0.0639954
0.159448
0.260752
0.367437
0.478759
0.593603
0.695625
0.77189
0.826719
0.865479
0.890835
0.90497
0.910983
0.912551
0.912602
0.912427
-0.208944
-0.180286
-0.122571
-0.0442323
0.0456461
0.142679
0.245853
0.354764
0.468806
0.587119
0.693199
0.773279
0.831003
0.871352
0.897073
0.910842
0.916341
0.917604
0.917565
0.917375
-0.230964
-0.201662
-0.143036
-0.0635996
0.0275128
0.125938
0.230743
0.341618
0.458083
0.579592
0.689633
0.773741
0.834761
0.877162
0.903458
0.916645
0.921279
0.922077
0.921939
0.921751
-0.252373
-0.222462
-0.162978
-0.0825419
0.00965569
0.109288
0.215513
0.328082
0.446673
0.571057
0.684884
0.773143
0.837889
0.88297
0.910352
0.922882
0.92612
0.926054
0.925749
0.925609
-0.273236
-0.242642
-0.182365
-0.101023
-0.00786015
0.0928141
0.200254
0.314261
0.434673
0.561586
0.678908
0.77134
0.840187
0.888655
0.918051
0.930409
0.931812
0.929978
0.929118
0.929239
-0.293375
-0.262179
-0.201137
-0.118979
-0.0249741
0.0766004
0.185063
0.300268
0.422202
0.551279
0.671701
0.76817
0.841379
0.893842
0.926439
0.940165
0.940439
0.936015
0.93306
0.932475
-0.312884
-0.281061
-0.219312
-0.136436
-0.0417189
0.0606027
0.169882
0.286045
0.409192
0.540061
0.663125
0.763358
0.841148
0.897964
0.93475
0.952265
0.954273
0.948511
0.939823
0.925261
-0.331687
-0.299274
-0.237006
-0.153594
-0.0583831
0.0444868
0.154296
0.271107
0.395104
0.527294
0.652527
0.75611
0.838885
0.900192
0.941051
0.964042
0.968686
0.95687
0.937496
0.924939
-0.349605
-0.316952
-0.254025
-0.170231
-0.0746312
0.0285998
0.138531
0.255783
0.380249
0.513242
0.639995
0.745992
0.833857
0.899403
0.940904
0.96352
0.971437
0.949273
0.881269
0.850555
-0.365969
-0.335328
-0.270031
-0.185799
-0.0897073
0.0134469
0.122896
0.240301
0.364844
0.498031
0.625475
0.732732
0.824768
0.89499
0.929498
0.945889
0.93837
0.885599
0.816571
0.774023
-0.422344
-0.351531
-0.284641
-0.201378
-0.105192
-0.0024195
0.107329
0.224381
0.348526
0.481214
0.608375
0.715758
0.807925
0.884742
0.890522
0.896072
0.850179
0.781548
0.705474
0.663079
-0.383494
-0.367269
-0.306392
-0.22265
-0.12789
-0.0252387
0.083518
0.1999
0.323022
0.454223
0.579244
0.684601
0.768613
0.848898
0.838481
0.728582
0.625068
0.55297
0.480177
0.511576
-0.414989
-0.3853
-0.323411
-0.240434
-0.145646
-0.0431983
0.065825
0.181569
0.303623
0.433029
0.55521
0.656272
0.731776
0.774049
0.726826
0.580914
0.45492
0.364591
0.266334
0.317179
-0.439281
-0.406638
-0.343444
-0.260238
-0.165355
-0.0629923
0.045967
0.160888
0.281559
0.40859
0.527055
0.622095
0.68859
0.697514
0.592786
0.421641
0.270288
0.15244
0.0218107
0.0550002
-0.463098
-0.428872
-0.364462
-0.28034
-0.185293
-0.08304
0.0254319
0.139409
0.258514
0.38281
0.496689
0.584565
0.63575
0.613878
0.457274
0.262394
0.0730649
-0.0941567
-0.282522
-0.300406
-0.486312
-0.45162
-0.386288
-0.301375
-0.206109
-0.104027
0.0038386
0.116762
0.234058
0.355252
0.463886
0.54438
0.576973
0.519321
0.328383
0.119205
-0.0971859
-0.285895
-0.52772
-0.827724
-0.509833
-0.475126
-0.409219
-0.323778
-0.228268
-0.126299
-0.0189591
0.0928885
0.208284
0.326138
0.429266
0.501541
0.514216
0.405788
0.21637
0.00778966
-0.19556
-0.367143
-0.435456
-0.515165
-0.534615
-0.499841
-0.43361
-0.347893
-0.252275
-0.150501
-0.0437717
0.0668394
0.180031
0.294036
0.391277
0.452869
0.441241
0.299223
0.116999
-0.0725867
-0.234256
-0.326285
-0.350088
-0.366081
-0.560978
-0.526084
-0.459637
-0.373808
-0.278262
-0.176844
-0.0709558
0.0381295
0.148711
0.258232
0.349083
0.397154
0.368149
0.200344
0.0269962
-0.13752
-0.262944
-0.301488
-0.314429
-0.315745
-0.589132
-0.554033
-0.487366
-0.401516
-0.306177
-0.205332
-0.100526
0.00671326
0.114262
0.218719
0.302298
0.336491
0.288609
0.108902
-0.0554194
-0.202667
-0.277946
-0.294862
-0.296234
-0.296055
-0.619141
-0.583748
-0.516822
-0.431014
-0.336031
-0.235947
-0.132483
-0.0274196
0.0766927
0.175554
0.250909
0.273599
0.190217
0.0251269
-0.130886
-0.252145
-0.288251
-0.28653
-0.28547
-0.284868
-0.650724
-0.615064
-0.547902
-0.462214
-0.367735
-0.268633
-0.166788
-0.0642373
0.0360444
0.12883
0.195736
0.201581
0.0996873
-0.0529938
-0.190506
-0.265191
-0.275377
-0.278062
-0.278768
-0.278403
-0.683323
-0.647515
-0.580353
-0.494887
-0.4011
-0.303228
-0.203282
-0.103599
-0.00749482
0.0788797
0.137198
0.127346
0.0172255
-0.119131
-0.233534
-0.264095
-0.272743
-0.274812
-0.274743
-0.274427
-0.71648
-0.680568
-0.613724
-0.528639
-0.435779
-0.339407
-0.241677
-0.145207
-0.0536355
0.026363
0.0743588
0.0555223
-0.0610371
-0.173265
-0.262324
-0.279123
-0.272178
-0.271551
-0.271747
-0.27169
-0.749312
-0.713523
-0.647141
-0.562876
-0.47123
-0.376694
-0.281519
-0.18856
-0.101889
-0.0280541
0.0100355
-0.0118447
-0.134672
-0.218575
-0.260722
-0.275112
-0.273042
-0.270934
-0.270311
-0.270256
-0.780226
-0.745188
-0.679661
-0.596676
-0.50669
-0.414385
-0.322147
-0.232951
-0.151417
-0.0837063
-0.0497095
-0.0864726
-0.203996
-0.272916
-0.256329
-0.275177
-0.27856
-0.274203
-0.271985
-0.271063
-0.807674
-0.773703
-0.710153
-0.628875
-0.541124
-0.451551
-0.362687
-0.277508
-0.200999
-0.139489
-0.106497
-0.156568
-0.273442
-0.356579
-0.338979
-0.320695
-0.30002
-0.287877
-0.282732
-0.280699
-0.829535
-0.797338
-0.736566
-0.658071
-0.573266
-0.487043
-0.402048
-0.321185
-0.24938
-0.193818
-0.163155
-0.20735
-0.319113
-0.516897
-0.53336
-0.417403
-0.345238
-0.317077
-0.306374
-0.301543
-0.843606
-0.814138
-0.757031
-0.682423
-0.601617
-0.519563
-0.439003
-0.36277
-0.295446
-0.244383
-0.214083
-0.226065
-0.27837
-0.45603
-0.47232
-0.381245
-0.351871
-0.33869
-0.330224
-0.327797
-0.847254
-0.821874
-0.769628
-0.700081
-0.624489
-0.547724
-0.472259
-0.401064
-0.337991
-0.289551
-0.250783
-0.199665
-0.07486
-0.033469
-0.114853
-0.215307
-0.273769
-0.291187
-0.298577
-0.300712
-0.838398
-0.817896
-0.772178
-0.709467
-0.640403
-0.569982
-0.500547
-0.4348
-0.376225
-0.331001
-0.27896
-0.188212
0.0912234
0.569986
0.234567
-0.110751
-0.270181
-0.312168
-0.326192
-0.331348
-0.814897
-0.799336
-0.762844
-0.709324
-0.648326
-0.585286
-0.522562
-0.462771
-0.409955
-0.368924
-0.318926
-0.331297
-0.354744
-0.371698
-0.521572
-0.545707
-0.519081
-0.505577
-0.512809
-0.520659
-0.779005
-0.768898
-0.74221
-0.699681
-0.648094
-0.593168
-0.537473
-0.483683
-0.437146
-0.405079
-0.399478
-0.654459
-1.26657
-1.97195
-1.97009
-1.42523
-1.02778
-0.868033
-0.823952
-0.814054
-0.737001
-0.731283
-0.714881
-0.68309
-0.641319
-0.594088
-0.544671
-0.495955
-0.452798
-0.42626
-0.42709
-0.675976
-0.948664
-1.14595
-0.974386
-0.771862
-0.732131
-0.743174
-0.724684
-0.723502
-0.698221
-0.69487
-0.686804
-0.664769
-0.630725
-0.589549
-0.544827
-0.498091
-0.454144
-0.417866
-0.415031
-0.415297
-0.408865
-0.384698
-0.467453
-0.653723
-0.810413
-0.789898
-0.662547
-0.615023
-0.669638
-0.667611
-0.663658
-0.649105
-0.620791
-0.582791
-0.539529
-0.491941
-0.441702
-0.39561
-0.373853
-0.362035
-0.29714
-0.233201
-0.182827
-0.182461
-0.221776
-0.191594
-0.109709
-0.0734508
-0.646833
-0.646113
-0.644961
-0.63729
-0.614072
-0.577396
-0.532546
-0.481067
-0.425305
-0.368699
-0.320588
-0.280291
-0.106926
0.144636
0.363306
0.503942
0.58314
0.644747
0.685797
0.701421
-0.6322
-0.631784
-0.631281
-0.627889
-0.609984
-0.57364
-0.524792
-0.467815
-0.403242
-0.328512
-0.2502
-0.152311
0.0638266
0.372127
0.662824
0.893196
1.05557
1.15823
1.21365
1.23268
-0.622586
-0.622358
-0.621899
-0.621147
-0.608173
-0.571855
-0.518864
-0.454521
-0.377615
-0.291409
-0.196983
-0.0919533
0.167156
0.49655
0.827906
1.11538
1.32442
1.45548
1.52654
1.55207
-0.615921
-0.615828
-0.615371
-0.615004
-0.60649
-0.573216
-0.516967
-0.444468
-0.357803
-0.260646
-0.15706
-0.0710635
0.169876
0.522338
0.871574
1.1848
1.41971
1.56301
1.6343
1.65648
-0.615278
-0.613455
-0.608269
-0.60421
-0.604139
-0.58034
-0.521024
-0.439764
-0.344348
-0.240321
-0.136185
-0.0404608
0.148941
0.472348
0.796804
1.07822
1.29901
1.43317
1.49618
1.51429
-0.641204
-0.636804
-0.628098
-0.62474
-0.628836
-0.606054
-0.533726
-0.43809
-0.333547
-0.222943
-0.117392
-0.0150832
0.129704
0.408453
0.668013
0.893468
1.06853
1.17584
1.22581
1.23959
-0.706703
-0.707274
-0.716617
-0.724651
-0.720499
-0.663183
-0.552273
-0.433589
-0.320422
-0.207921
-0.103912
-0.00265661
0.110738
0.289798
0.508084
0.685418
0.825901
0.909835
0.947866
0.957135
-0.765149
-0.779212
-0.805423
-0.817803
-0.795761
-0.694788
-0.549232
-0.415843
-0.300187
-0.192974
-0.0973563
-0.00844825
0.0744964
0.203152
0.363936
0.500518
0.609488
0.674081
0.701286
0.706072
-0.694756
-0.711466
-0.735868
-0.746844
-0.717458
-0.617183
-0.487605
-0.36882
-0.266795
-0.174514
-0.0934055
-0.0233435
0.0392994
0.116676
0.236077
0.339728
0.42086
0.466411
0.48407
0.484903
-0.465817
-0.477869
-0.495763
-0.506474
-0.490538
-0.432558
-0.360383
-0.287179
-0.217349
-0.148963
-0.0875239
-0.0364016
0.00590546
0.0514596
0.129073
0.204019
0.260378
0.292583
0.304576
0.305229
-0.197595
-0.202931
-0.213532
-0.227739
-0.235572
-0.233194
-0.218253
-0.192891
-0.159871
-0.119785
-0.0805882
-0.0489035
-0.0227857
0.00519205
0.0548709
0.102134
0.136197
0.154013
0.160178
0.159062
-0.00776656
-0.010172
-0.018497
-0.0362476
-0.0631833
-0.0890582
-0.106266
-0.112529
-0.107428
-0.0923366
-0.0740755
-0.0585469
-0.0465914
-0.0327698
-0.00442229
0.0243089
0.0429178
0.050216
0.0524346
0.0512366
0.0841365
0.0824602
0.0751889
0.0573415
0.0280732
-0.00508587
-0.0344362
-0.0554201
-0.066431
-0.0686292
-0.0670259
-0.0657069
-0.0633458
-0.0545286
-0.0404149
-0.0284186
-0.0224278
-0.0207946
-0.0210932
-0.0218782
0.112772
0.111426
0.105574
0.0909399
0.0663408
0.0367043
0.00739881
-0.017806
-0.0367434
-0.050302
-0.0623566
-0.0755455
-0.083616
-0.076073
-0.0659935
-0.060613
-0.0600258
-0.0622188
-0.063469
-0.064143
0.111798
0.110784
0.106519
0.0958422
0.0776109
0.0544207
0.029386
0.00546119
-0.0157533
-0.0351473
-0.0560622
-0.0800608
-0.0981802
-0.0903501
-0.0800526
-0.0778164
-0.0789208
-0.0813288
-0.0823738
-0.0827916
0.100362
0.0996731
0.0967813
0.0894668
0.0766875
0.0596668
0.0401028
0.0199891
0.000277821
-0.0202391
-0.0444982
-0.0741122
-0.0933219
-0.0837637
-0.0750787
-0.0734272
-0.0767553
-0.0798285
-0.0809317
-0.0811929
0.0868729
0.0864499
0.0846082
0.0798395
0.0712626
0.0593845
0.0450941
0.0295796
0.0135156
-0.00382109
-0.0253919
-0.0517568
-0.0661955
-0.0559255
-0.0501429
-0.0517027
-0.0567503
-0.0603286
-0.0614539
-0.0616008
0.0742676
0.0740483
0.0729829
0.0700586
0.0645877
0.05676
0.0470892
0.0364236
0.025502
0.0140178
0.0014194
-0.0139287
-0.0195663
-0.01167
-0.0102817
-0.0151275
-0.0215126
-0.0253387
-0.0263688
-0.0264751
0.0631679
0.0630757
0.0625476
0.060956
0.0578091
0.0531544
0.0473704
0.0412177
0.0357342
0.0323155
0.032173
0.033239
0.0394449
0.0469853
0.0407417
0.0315994
0.0244883
0.0211619
0.0202945
0.0200814
0.0533634
0.0533584
0.0531894
0.0525304
0.0510609
0.0488017
0.0461325
0.043892
0.0435995
0.0481486
0.0612068
0.0808306
0.103822
0.103957
0.091423
0.079529
0.0728515
0.0708888
0.0702384
0.0697455
0.0442356
0.0442817
0.044352
0.0443514
0.0440914
0.0435811
0.0432233
0.043961
0.0476701
0.058456
0.0815297
0.115188
0.14472
0.142258
0.127573
0.117042
0.114208
0.113452
0.112726
0.111702
0.0355716
0.0356426
0.035835
0.0362054
0.0366758
0.0372734
0.0383813
0.0409673
0.0470461
0.061007
0.0882207
0.125084
0.155215
0.152599
0.139902
0.134264
0.133516
0.134763
0.13422
0.132982
0.0270471
0.0271071
0.0273385
0.0278677
0.0286795
0.0298041
0.0315701
0.0348792
0.0415211
0.055511
0.0810591
0.111003
0.137863
0.133305
0.126389
0.12623
0.129884
0.132311
0.131701
0.130508
0.0186176
0.018643
0.0188329
0.0193266
0.020137
0.0213056
0.0230493
0.0260461
0.0316515
0.0424765
0.0631137
0.0855904
0.0996318
0.0962694
0.0955183
0.100815
0.107395
0.110179
0.109381
0.108134
0.0102327
0.0102433
0.0103491
0.0106694
0.0112387
0.0120475
0.0132249
0.015132
0.0186924
0.025572
0.0372134
0.0488425
0.0515782
0.0484286
0.0550243
0.0608336
0.0672236
0.0699928
0.0688865
0.0676468
0.00207836
0.00206668
0.00206607
0.00206603
0.00215908
0.00232467
0.0025513
0.00290768
0.00333582
0.00416645
0.00576843
0.00696304
0.00814636
0.010229
0.0107332
0.0132534
0.0129095
0.00980777
0.0106259
0.011505
-0.0526636
0.114689
0.310303
0.481038
0.617723
0.725692
0.815151
0.891242
0.925778
0.902482
0.251578
0.372704
0.503087
0.615886
0.711087
0.789973
0.853859
0.899189
0.921883
0.933945
0.471476
0.554632
0.643782
0.722594
0.790424
0.847191
0.892333
0.925307
0.949126
0.967097
0.63296
0.692431
0.754462
0.811805
0.861708
0.904092
0.9389
0.966663
0.989512
1.00781
0.758895
0.802208
0.84835
0.892333
0.931188
0.965126
0.994171
1.01834
1.03876
1.0566
0.863528
0.896524
0.934758
0.970418
1.00315
1.03248
1.05811
1.07966
1.09753
1.11488
0.956273
0.985036
1.01909
1.0513
1.08131
1.10854
1.13233
1.15209
1.16761
1.18469
1.04498
1.07423
1.10829
1.14038
1.17002
1.19665
1.21954
1.23805
1.25144
1.26847
1.14037
1.17361
1.21028
1.24389
1.27396
1.30017
1.32214
1.33943
1.35131
1.36871
1.25541
1.29326
1.33192
1.36618
1.39555
1.42031
1.44069
1.45659
1.46806
1.48613
1.40038
1.43894
1.47509
1.50579
1.53147
1.55358
1.57264
1.58818
1.60061
1.61861
1.57548
1.6071
1.63329
1.65575
1.67573
1.69445
1.71218
1.72866
1.74401
1.76208
1.7641
1.78131
1.79635
1.81258
1.82849
1.84303
1.85623
1.87016
1.88771
1.90786
1.94582
1.95537
1.96691
1.97772
1.98701
1.99659
2.00738
2.01875
2.03011
2.04546
2.15307
2.15673
2.14179
2.12698
2.1207
2.12638
2.14486
2.17517
2.20735
2.234
2.45939
2.32452
2.24789
2.20551
2.18809
2.19205
2.21945
2.27586
2.37848
2.60285
0.759214
0.757085
0.7526
0.743974
0.731747
0.719613
0.709378
0.701474
0.695846
0.692577
0.692204
0.694924
0.700012
0.707223
0.716602
0.728135
0.740781
0.751813
0.757923
0.760976
0.683673
0.689519
0.695851
0.70034
0.702806
0.702477
0.699733
0.695915
0.692393
0.690117
0.68995
0.692127
0.695773
0.700049
0.703846
0.705722
0.70478
0.701294
0.696129
0.689508
0.675255
0.677551
0.680953
0.683946
0.686017
0.687507
0.688254
0.687927
0.686889
0.685988
0.686141
0.687545
0.689341
0.690631
0.690799
0.689899
0.688343
0.686002
0.682735
0.679813
0.669756
0.670842
0.672673
0.675047
0.677065
0.678486
0.679497
0.680236
0.680622
0.680824
0.681289
0.682069
0.682644
0.682692
0.682264
0.681404
0.679925
0.677834
0.675743
0.674358
0.664569
0.665232
0.666337
0.668037
0.669812
0.671435
0.67272
0.673721
0.674585
0.675351
0.676049
0.676568
0.676732
0.676542
0.675956
0.674886
0.673446
0.671894
0.670569
0.669788
0.659613
0.660074
0.660857
0.662149
0.663628
0.665135
0.666586
0.667866
0.668979
0.670006
0.670883
0.67141
0.67152
0.671216
0.670495
0.669485
0.668344
0.6672
0.666277
0.665759
0.65481
0.655154
0.655763
0.656824
0.658108
0.65947
0.660892
0.662317
0.663663
0.664907
0.665971
0.666611
0.666743
0.66643
0.665799
0.664997
0.664125
0.663244
0.662563
0.662183
0.650106
0.650374
0.650864
0.651765
0.652924
0.654205
0.65558
0.657044
0.658551
0.660027
0.661317
0.662123
0.662367
0.662198
0.661765
0.661172
0.660497
0.659838
0.659337
0.659047
0.645421
0.645635
0.646042
0.646832
0.647908
0.649139
0.650501
0.652005
0.653636
0.655338
0.656899
0.657948
0.658414
0.65847
0.658255
0.657872
0.657394
0.656921
0.656557
0.656329
0.640671
0.640843
0.641192
0.641908
0.642936
0.644142
0.645527
0.647109
0.648886
0.650827
0.652711
0.654093
0.654861
0.655186
0.655206
0.655039
0.654761
0.654454
0.654203
0.654022
0.63577
0.635909
0.636215
0.636886
0.637896
0.639122
0.640569
0.642268
0.644242
0.646476
0.648754
0.650554
0.651685
0.652321
0.652607
0.652667
0.652586
0.652435
0.652279
0.652134
0.630632
0.630744
0.631022
0.631673
0.632699
0.633992
0.635544
0.637414
0.639653
0.642259
0.645026
0.647327
0.648884
0.649876
0.650461
0.650762
0.65088
0.650887
0.650814
0.650696
0.625166
0.625255
0.625517
0.626172
0.627251
0.628651
0.630363
0.632471
0.635053
0.638136
0.641504
0.644407
0.646466
0.647868
0.648786
0.649372
0.649707
0.649858
0.649857
0.649761
0.61927
0.619338
0.619593
0.620275
0.621444
0.623
0.624934
0.627361
0.63038
0.634062
0.638169
0.641795
0.644449
0.646332
0.647632
0.64853
0.649104
0.64941
0.649477
0.649399
0.612822
0.61287
0.613126
0.613858
0.615157
0.616923
0.619153
0.621985
0.625556
0.629975
0.634982
0.639486
0.642857
0.645311
0.647055
0.6483
0.64915
0.649623
0.649758
0.649695
0.605676
0.605705
0.605966
0.606771
0.608245
0.610285
0.612894
0.616246
0.620516
0.625849
0.631955
0.637514
0.641733
0.644859
0.647132
0.648784
0.649947
0.650599
0.650802
0.650751
0.59765
0.597667
0.597928
0.59883
0.600532
0.602913
0.606011
0.610023
0.61517
0.621635
0.629081
0.635906
0.641132
0.645047
0.647942
0.650089
0.651605
0.652454
0.652725
0.652685
0.58844
0.588425
0.588748
0.589785
0.591772
0.594603
0.598328
0.603177
0.609424
0.617293
0.626368
0.634704
0.641123
0.645969
0.649593
0.652323
0.654245
0.655311
0.655654
0.655621
0.577776
0.577735
0.578102
0.57933
0.581681
0.585091
0.589611
0.595518
0.603141
0.61274
0.62379
0.633935
0.641765
0.647714
0.652203
0.655601
0.657997
0.659304
0.659722
0.659694
0.565186
0.565119
0.565561
0.567036
0.569867
0.574034
0.579589
0.586861
0.596234
0.607976
0.621411
0.633694
0.643166
0.650394
0.655894
0.660069
0.663003
0.66457
0.66506
0.665033
0.55004
0.549943
0.550507
0.552328
0.5558
0.560978
0.567905
0.576964
0.588576
0.60299
0.619289
0.634064
0.645424
0.654117
0.660788
0.665849
0.66938
0.671219
0.671777
0.671745
0.531411
0.531287
0.532046
0.534374
0.538751
0.545336
0.554141
0.565585
0.580079
0.597781
0.61748
0.635134
0.64865
0.658995
0.666976
0.673039
0.677221
0.679332
0.679942
0.679899
0.507909
0.507767
0.508853
0.511967
0.517703
0.526345
0.537808
0.552497
0.570721
0.592466
0.616146
0.637045
0.652941
0.665122
0.674535
0.681714
0.686569
0.688926
0.689563
0.689499
0.477239
0.477115
0.478806
0.483284
0.491295
0.503142
0.51852
0.537678
0.560691
0.587313
0.615536
0.639996
0.658442
0.672582
0.683545
0.691897
0.697381
0.699917
0.70054
0.700444
0.435284
0.43532
0.438347
0.445673
0.457889
0.474965
0.496124
0.521287
0.550249
0.582558
0.615822
0.644093
0.665208
0.681372
0.693943
0.703485
0.70947
0.712054
0.712603
0.712468
0.374342
0.375519
0.382943
0.396624
0.416536
0.441939
0.471248
0.504077
0.540108
0.578784
0.617395
0.649536
0.673306
0.691456
0.705561
0.716118
0.722432
0.724843
0.725217
0.725043
0.301784
0.303512
0.317751
0.341311
0.37204
0.407295
0.445523
0.486552
0.530189
0.575934
0.620825
0.65786
0.685186
0.705988
0.722052
0.733866
0.740488
0.742843
0.743211
0.743132
0.226787
0.232901
0.253956
0.287657
0.328701
0.373531
0.420651
0.469948
0.521305
0.574265
0.625652
0.667775
0.698785
0.722462
0.740749
0.753593
0.760186
0.762241
0.762477
0.762457
0.165456
0.173859
0.199495
0.240185
0.289266
0.34226
0.397403
0.454438
0.513156
0.573057
0.630656
0.677575
0.711982
0.738135
0.758113
0.771875
0.778516
0.780459
0.780926
0.780986
0.115532
0.12453
0.15371
0.199622
0.254809
0.314379
0.376301
0.440167
0.505604
0.571995
0.635462
0.686897
0.724456
0.752908
0.774497
0.789215
0.796324
0.7988
0.799378
0.799474
0.0736286
0.0829159
0.114557
0.164472
0.224662
0.289695
0.357364
0.427199
0.498673
0.571032
0.639981
0.695651
0.73617
0.766817
0.790062
0.805833
0.8137
0.81654
0.817209
0.817313
0.0374074
0.0468211
0.080328
0.133454
0.197774
0.267467
0.340142
0.41526
0.492185
0.570029
0.644083
0.703708
0.746991
0.779635
0.80433
0.821068
0.8297
0.832802
0.83356
0.83366
0.00522644
0.0146948
0.0496405
0.105478
0.173265
0.246971
0.32407
0.403936
0.485845
0.568777
0.647622
0.710955
0.756781
0.791185
0.817088
0.834642
0.843893
0.847312
0.848112
0.848211
-0.0241615
-0.0146343
0.0214884
0.0796667
0.15044
0.227653
0.308683
0.392851
0.47935
0.567057
0.650456
0.717321
0.765504
0.801506
0.828434
0.846628
0.856299
0.859948
0.860814
0.860906
-0.0515981
-0.0420108
-0.00482389
0.0553475
0.128781
0.209094
0.293636
0.381713
0.472467
0.564691
0.652491
0.722786
0.773234
0.81072
0.838583
0.857223
0.867136
0.870943
0.871842
0.871909
-0.0776409
-0.0679625
-0.0297789
0.0320826
0.10791
0.19098
0.278686
0.370327
0.465032
0.561557
0.653655
0.727353
0.780046
0.818967
0.847629
0.866561
0.876553
0.880441
0.881352
0.881399
-0.102761
-0.0928892
-0.0538547
0.00963716
0.087567
0.173106
0.263667
0.35856
0.456943
0.557563
0.653882
0.731028
0.78603
0.826401
0.855763
0.8749
0.884927
0.888803
0.889688
0.889684
-0.127186
-0.117079
-0.0772588
-0.0121951
0.0675991
0.15534
0.248475
0.346337
0.448126
0.552645
0.653128
0.73382
0.79128
0.833169
0.863196
0.882469
0.89249
0.896306
0.897136
0.897114
-0.151008
-0.140675
-0.0999973
-0.0335648
0.0479135
0.13763
0.233071
0.333623
0.438554
0.546755
0.651344
0.735737
0.795862
0.83938
0.870071
0.889451
0.899405
0.903092
0.903831
0.903777
-0.174355
-0.163702
-0.122263
-0.0545247
0.0284713
0.119951
0.217451
0.320427
0.42823
0.539883
0.648492
0.736755
0.799813
0.845138
0.876537
0.895963
0.90573
0.90921
0.909821
0.90972
-0.197198
-0.186251
-0.144043
-0.0750971
0.00927512
0.102324
0.201656
0.306791
0.417187
0.53203
0.644541
0.736821
0.803133
0.850535
0.88276
0.90215
0.911547
0.914687
0.915139
0.915
-0.219575
-0.208306
-0.16528
-0.0952556
-0.00964423
0.0847904
0.185733
0.292782
0.405485
0.523228
0.639466
0.735868
0.805758
0.855636
0.888957
0.908247
0.916998
0.919594
0.919847
0.919675
-0.2413
-0.22978
-0.185966
-0.11495
-0.0282328
0.0674244
0.169756
0.278476
0.393204
0.513543
0.633258
0.733808
0.80758
0.860446
0.895362
0.914632
0.922362
0.924033
0.923971
0.923779
-0.262509
-0.25063
-0.206076
-0.134153
-0.0464534
0.0502702
0.15382
0.26396
0.380436
0.503063
0.625933
0.730535
0.808441
0.864851
0.902122
0.921867
0.928313
0.928372
0.927585
0.927353
-0.283033
-0.270827
-0.225574
-0.152813
-0.0642238
0.0334159
0.138008
0.249355
0.367296
0.491859
0.617539
0.725956
0.808138
0.868592
0.909118
0.930508
0.936188
0.933939
0.931261
0.93018
-0.302929
-0.290411
-0.244403
-0.170876
-0.0815043
0.0169326
0.122408
0.234745
0.353897
0.480073
0.608151
0.71998
0.806454
0.871269
0.915776
0.940463
0.947484
0.944023
0.937374
0.928602
-0.322112
-0.309339
-0.262657
-0.188496
-0.0985043
0.000541052
0.10668
0.219725
0.339785
0.467194
0.597226
0.712028
0.802852
0.87243
0.921272
0.950752
0.962308
0.959843
0.949768
0.943694
-0.340532
-0.32753
-0.280328
-0.205635
-0.115221
-0.015757
0.0908425
0.204278
0.324918
0.453111
0.584576
0.701731
0.796594
0.871296
0.92351
0.956638
0.97074
0.972946
0.935455