/*--------------------------------*- C++ -*----------------------------------*\
| =========                 |                                                 |
| \\      /  F ield         | OpenFOAM: The Open Source CFD Toolbox           |
|  \\    /   O peration     | Version:  4.0                                   |
|   \\  /    A nd           | Web:      www.OpenFOAM.org                      |
|    \\/     M anipulation  |                                                 |
\*---------------------------------------------------------------------------*/
FoamFile
{
    version     2.0;
    format      ascii;
    class       surfaceScalarField;
    location    "50";
    object      phi;
}
// * * * * * * * * * * * * * * * * * * * * * * * * * * * * * * * * * * * * * //

dimensions      [0 3 -1 0 0 0 0];

internalField   nonuniform List<scalar> 
17370
(
-0.0916071
0.0960095
0.284608
-0.077595
0.0594205
0.36495
-0.0430434
0.0316245
0.427587
-0.0223212
0.0162692
0.505304
-0.0116764
0.00880263
0.602276
-0.00659162
0.0051075
0.720542
-0.00387223
0.00299335
0.863785
-0.0022213
0.00164333
1.03603
-0.00111187
0.000691006
1.24292
-0.000280305
-0.000112051
1.49158
0.000499237
-0.000910966
1.4916
0.00131356
-0.00181716
1.24319
0.00236804
-0.00311307
1.03638
0.00397319
-0.00519526
0.864129
0.00667181
-0.00887509
0.721261
0.011739
-0.0163173
0.603793
0.0223546
-0.031642
0.508727
0.0430443
-0.0594114
0.432535
0.0775895
-0.0960042
0.36519
0.0916205
0.19739
-0.127089
0.0880197
0.0390696
-0.364354
0.354027
-0.0714783
0.081805
-0.446654
0.454251
-0.0791741
0.0715769
-0.521011
0.529106
-0.0637268
0.0556314
-0.61299
0.620758
-0.0482464
0.0404786
-0.727163
0.733682
-0.0338678
0.0273482
-0.86758
0.87243
-0.0221458
0.0172957
-1.03856
1.0419
-0.0135986
0.0102593
-1.24472
1.24712
-0.00770812
0.00530212
-1.49284
1.49485
-0.00333791
0.00132347
-1.49269
1.49451
0.000496556
-0.00231615
-1.24411
1.24602
0.00428843
-0.00619884
-1.03761
1.04009
0.0085343
-0.0110143
-0.866187
0.869819
0.014275
-0.0179071
-0.724594
0.729752
0.0226984
-0.0278568
-0.609065
0.615636
0.0343331
-0.0409036
-0.515124
0.522461
0.048624
-0.0559604
-0.439879
0.44766
0.0639844
-0.0717647
-0.374709
0.377355
0.0792637
-0.0819103
-0.256899
0.224439
0.0715606
-0.0391001
-0.0688072
0.0591933
0.00961388
-0.0521181
0.0589479
-0.374834
0.368005
-0.0581034
0.054264
-0.453944
0.457783
-0.0487801
0.0442234
-0.527615
0.532171
-0.0396763
0.0357825
-0.620799
0.624692
-0.0315715
0.027578
-0.734656
0.73865
-0.0232226
0.019336
-0.873952
0.877838
-0.0152912
0.0118344
-1.04336
1.04682
-0.00831539
0.0052832
-1.24865
1.25168
-0.00207534
-0.000906087
-1.49694
1.49993
0.00386602
-0.00701345
-1.49742
1.50057
0.00995773
-0.013359
-1.25007
1.25347
0.016698
-0.0206106
-1.04565
1.04956
0.0243826
-0.0286253
-0.877138
0.881381
0.0325287
-0.036651
-0.738983
0.743105
0.0404702
-0.0449431
-0.625973
0.630445
0.0494377
-0.0548613
-0.535018
0.540441
0.058631
-0.0593927
-0.458078
0.458839
0.0524487
-0.0320624
-0.336767
0.316381
0.00967273
-0.0686652
0.0589924
-0.0534034
0.0492903
0.00411302
-0.0332533
0.0436817
-0.358556
0.348127
-0.0473622
0.0467792
-0.459576
0.460159
-0.0438549
0.0406461
-0.536128
0.539337
-0.0369726
0.0336203
-0.62839
0.631743
-0.0299887
0.0267494
-0.742028
0.745267
-0.0232983
0.0201017
-0.881329
0.884525
-0.0165096
0.0131592
-1.05024
1.05359
-0.00946216
0.00605907
-1.25494
1.25834
-0.00226958
-0.00134615
-1.50328
1.50689
0.00493115
-0.00863208
-1.50407
1.50777
0.0119147
-0.0154498
-1.25703
1.26057
0.0186366
-0.0220411
-1.05327
1.05667
0.0250714
-0.0283564
-0.884988
0.888273
0.0314618
-0.034963
-0.746787
0.750289
0.0382051
-0.041764
-0.634567
0.638125
0.0448738
-0.047687
-0.544586
0.547399
0.0481551
-0.0443146
-0.456957
0.453117
0.0336893
-0.0163773
-0.297066
0.279754
0.00417805
-0.0531434
0.0489654
-0.04612
0.0435628
0.00255716
-0.0230585
0.0334139
-0.337533
0.327177
-0.0391537
0.0401074
-0.459908
0.458955
-0.0388613
0.0365373
-0.541993
0.544317
-0.0338994
0.0313561
-0.634708
0.637251
-0.0283821
0.0255366
-0.748348
0.751194
-0.0223013
0.0192896
-0.887577
0.890588
-0.0159414
0.0128104
-1.05676
1.05989
-0.00925738
0.00586037
-1.26173
1.26513
-0.00195242
-0.00184375
-1.51062
1.51442
0.00560079
-0.0093906
-1.51155
1.51534
0.0126287
-0.0159688
-1.26403
1.26737
0.0188849
-0.0219887
-1.05988
1.06298
0.0247815
-0.0277931
-0.891469
0.89448
0.0304543
-0.0332473
-0.753468
0.756261
0.0356393
-0.0381243
-0.64108
0.643565
0.040318
-0.0413917
-0.549236
0.55031
0.0402597
-0.0342593
-0.447995
0.441994
0.0236174
-0.010372
-0.264569
0.251324
0.00263776
-0.0457224
0.0430847
-0.0414433
0.0396412
0.00180207
-0.0169568
0.0262489
-0.317304
0.308012
-0.0328523
0.0349783
-0.457393
0.455266
-0.0345488
0.0328533
-0.546346
0.548042
-0.0306284
0.0285023
-0.639559
0.641685
-0.0260665
0.0236901
-0.75379
0.756166
-0.0208781
0.0181346
-0.89344
0.896183
-0.0149545
0.0119246
-1.06293
1.06596
-0.0084647
0.00515394
-1.26845
1.27176
-0.00131924
-0.00242373
-1.51818
1.52192
0.0061165
-0.00980242
-1.51908
1.52277
0.0129126
-0.0161048
-1.27064
1.27383
0.0188641
-0.021733
-1.06601
1.06888
0.0241933
-0.0267131
-0.897264
0.899784
0.0288493
-0.0310519
-0.758703
0.760906
0.0329859
-0.0350147
-0.645792
0.647821
0.0365204
-0.0367151
-0.550894
0.551088
0.0343142
-0.0273295
-0.435408
0.428423
0.017654
-0.00747084
-0.239753
0.22957
0.00190074
-0.0408765
0.0389758
-0.0380903
0.0367368
0.00135351
-0.0129596
0.0209664
-0.299367
0.29136
-0.0277432
0.0306728
-0.452709
0.44978
-0.0308867
0.0297672
-0.549478
0.550597
-0.027772
0.0258485
-0.643739
0.645663
-0.0236393
0.0215
-0.758403
0.760542
-0.0189946
0.0165297
-0.898726
0.901191
-0.0136153
0.0107665
-1.06885
1.0717
-0.00744459
0.00423494
-1.27499
1.2782
-0.000508668
-0.00311688
-1.52559
1.52921
0.00668032
-0.0102206
-1.52638
1.52992
0.0131796
-0.0161659
-1.27695
1.27994
0.0186744
-0.0211975
-1.07159
1.07412
0.0233076
-0.0254457
-0.902099
0.904237
0.0272806
-0.0291917
-0.76295
0.764861
0.0308713
-0.0326322
-0.64969
0.651451
0.0334754
-0.032934
-0.55092
0.550378
0.0296124
-0.0223146
-0.421226
0.413928
0.0138168
-0.00576685
-0.220555
0.212505
0.00147355
-0.0373167
0.0358431
-0.0355543
0.0345111
0.00104323
-0.0101367
0.0169199
-0.283991
0.277207
-0.0234494
0.0268445
-0.4466
0.443205
-0.0276384
0.0269527
-0.551493
0.552179
-0.0251929
0.0234144
-0.647552
0.64933
-0.0213575
0.0193568
-0.762609
0.764609
-0.0170031
0.0146933
-0.903511
0.905821
-0.0119761
0.00931129
-1.07439
1.07705
-0.00617493
0.00311219
-1.28129
1.28436
0.0004672
-0.00394973
-1.53274
1.53622
0.00735628
-0.0107059
-1.53337
1.53672
0.0134587
-0.0161796
-1.28281
1.28553
0.0184247
-0.0206595
-1.07651
1.07874
0.0225311
-0.0244286
-0.906266
0.908164
0.0260499
-0.0277347
-0.766656
0.768341
0.0292103
-0.0306461
-0.653063
0.654499
0.0309841
-0.0297309
-0.549492
0.548239
0.0257963
-0.0185831
-0.406649
0.399436
0.0111851
-0.00463542
-0.205276
0.198727
0.00118921
-0.0345292
0.0333399
-0.0335941
0.0327802
0.000813903
-0.00804558
0.013757
-0.27099
0.265278
-0.0198135
0.0234178
-0.439697
0.436092
-0.0246996
0.0242674
-0.552771
0.553203
-0.0227868
0.0211251
-0.651101
0.652763
-0.0191729
0.0172689
-0.766558
0.768462
-0.0150228
0.0128134
-0.908014
0.910223
-0.0102095
0.00766296
-1.07958
1.08213
-0.00467848
0.00176378
-1.28729
1.29021
0.00164388
-0.00495742
-1.53959
1.54291
0.00817857
-0.0113066
-1.53995
1.54307
0.0138421
-0.0163202
-1.28815
1.29062
0.0183527
-0.020364
-1.08089
1.0829
0.0220334
-0.0237171
-0.909974
0.911658
0.0251534
-0.0266463
-0.769936
0.771429
0.027931
-0.0289967
-0.655724
0.65679
0.0289719
-0.0270584
-0.54666
0.544747
0.022736
-0.0158036
-0.392358
0.385426
0.00932875
-0.00385031
-0.192764
0.187285
0.000991908
-0.0322631
0.0312712
-0.0320635
0.0314263
0.00063721
-0.00643675
0.0112322
-0.260053
0.255258
-0.0167071
0.0203226
-0.432481
0.428866
-0.0219389
0.0217401
-0.553556
0.553755
-0.0205019
0.0189084
-0.654441
0.656035
-0.0170193
0.0151712
-0.770334
0.772183
-0.0129926
0.0108527
-0.912322
0.914462
-0.00833339
0.00587273
-1.08455
1.08701
-0.00299574
0.000203404
-1.293
1.2958
0.00304783
-0.00618567
-1.5461
1.54924
0.00920838
-0.0121144
-1.54608
1.54898
0.0144487
-0.0167074
-1.29301
1.29527
0.0185393
-0.0203328
-1.08484
1.08663
0.0218105
-0.0232999
-0.913269
0.914758
0.0245753
-0.0258997
-0.772847
0.774171
0.0270414
-0.0277053
-0.657631
0.658295
0.027321
-0.0248653
-0.542576
0.54012
0.0203159
-0.0137374
-0.378681
0.372102
0.008001
-0.00329622
-0.182234
0.177529
0.000853212
-0.0303609
0.0295077
-0.0308682
0.0303734
0.00049486
-0.00514561
0.00915214
-0.250882
0.246875
-0.0140009
0.0174803
-0.425325
0.421845
-0.0192941
0.0192963
-0.5539
0.553898
-0.0182649
0.0167125
-0.657681
0.659234
-0.0148552
0.0130322
-0.774012
0.775835
-0.0108843
0.00877926
-0.916495
0.9186
-0.0063091
0.00390584
-1.08935
1.09176
-0.00110678
-0.00159346
-1.29847
1.30117
0.00470722
-0.00768108
-1.55225
1.55522
0.0105156
-0.013214
-1.55177
1.55447
0.0153593
-0.0174121
-1.29745
1.2995
0.0190576
-0.020649
-1.08836
1.08995
0.0219472
-0.0232527
-0.916187
0.917492
0.024375
-0.0255369
-0.775434
0.776596
0.0264908
-0.0267878
-0.65875
0.659047
0.0260262
-0.0231182
-0.537449
0.534541
0.0184453
-0.0122196
-0.365721
0.359495
0.00705569
-0.00290875
-0.173139
0.168992
0.000757865
-0.0287139
0.0279561
-0.0299458
0.0295712
0.000374623
-0.00406551
0.00737941
-0.243237
0.239924
-0.0115894
0.0148225
-0.418503
0.41527
-0.0167091
0.0168793
-0.553866
0.553696
-0.0159464
0.0144808
-0.660824
0.66229
-0.0126331
0.0108048
-0.777649
0.779477
-0.00864956
0.00654454
-0.920605
0.92271
-0.00408835
0.00171318
-1.09405
1.09642
0.00103008
-0.00366187
-1.30377
1.3064
0.00666995
-0.0095092
-1.55808
1.56092
0.0121796
-0.0146812
-1.55704
1.55954
0.0166343
-0.01847
-1.30146
1.3033
0.0199192
-0.0213043
-1.0915
1.09288
0.0224267
-0.0235611
-0.918748
0.919883
0.0245424
-0.0255423
-0.7777
0.7787
0.0262488
-0.0262489
-0.659196
0.659196
0.0250918
-0.0217933
-0.531444
0.528146
0.017051
-0.0111331
-0.353452
0.347534
0.00639818
-0.00264581
-0.165075
0.161323
0.000695147
-0.0272421
0.026547
-0.0292563
0.0289887
0.000267647
-0.00312062
0.00581037
-0.236942
0.234252
-0.00938219
0.0122855
-0.412222
0.409319
-0.0141289
0.0143912
-0.553543
0.55328
-0.013509
0.012095
-0.663819
0.665233
-0.0102295
0.00836731
-0.781304
0.783166
-0.00617533
0.00404488
-0.924713
0.926843
-0.00157298
-0.000796766
-1.09868
1.10105
0.00352256
-0.00610905
-1.30893
1.31152
0.00902942
-0.0117453
-1.56364
1.56636
0.0142571
-0.0165665
-1.56192
1.56423
0.0183357
-0.0199648
-1.30505
1.30668
0.0212243
-0.0223999
-1.09423
1.0954
0.0233332
-0.0242804
-0.920971
0.921918
0.0251123
-0.0259449
-0.779623
0.780456
0.026392
-0.0261404
-0.659061
0.65881
0.0245581
-0.0208878
-0.524684
0.521013
0.0160848
-0.010401
-0.341774
0.33609
0.0059686
-0.00248083
-0.157737
0.15425
0.000658183
-0.0258843
0.0252261
-0.0287771
0.0286106
0.000166515
-0.00224794
0.00435228
-0.231875
0.22977
-0.0072802
0.00978354
-0.406641
0.404137
-0.0114792
0.0117623
-0.553082
0.552799
-0.0109086
0.00951851
-0.666743
0.668133
-0.00761914
0.00569975
-0.78503
0.786949
-0.00343679
0.00124381
-0.928871
0.931064
0.00128485
-0.00369606
-1.10332
1.10574
0.0064355
-0.00900489
-1.314
1.31657
0.0118636
-0.0144744
-1.56896
1.57157
0.0168372
-0.0189546
-1.56641
1.56853
0.0205339
-0.0219481
-1.30822
1.30964
0.0230111
-0.0239715
-1.09655
1.09751
0.0247104
-0.0254601
-0.922829
0.923578
0.0261299
-0.0268054
-0.781203
0.781879
0.026953
-0.0263616
-0.658333
0.657742
0.0243674
-0.0203533
-0.517217
0.513203
0.0154819
-0.00995434
-0.330535
0.325007
0.00571837
-0.00239256
-0.150879
0.147554
0.000641534
-0.0245913
0.0239498
-0.0284997
0.0284352
6.45478e-05
-0.00139685
0.0029291
-0.22797
0.226438
-0.0051966
0.00723344
-0.401894
0.399857
-0.00867495
0.00889548
-0.552634
0.552413
-0.00802483
0.00662502
-0.669653
0.671053
-0.00465491
0.00264761
-0.788871
0.790879
-0.000277923
-0.00201036
-0.933151
0.935439
0.00463017
-0.00710694
-1.10805
1.11052
0.009892
-0.0124707
-1.31905
1.32163
0.0152918
-0.0178112
-1.57407
1.57659
0.0200311
-0.021956
-1.57051
1.57244
0.0233405
-0.0245276
-1.31095
1.31214
0.0253758
-0.0260911
-1.09845
1.09917
0.0266075
-0.0271384
-0.924295
0.924826
0.0276397
-0.0281234
-0.782408
0.782892
0.0279829
-0.026997
-0.656886
0.655901
0.0245736
-0.0201992
-0.509078
0.504703
0.0152206
-0.00975936
-0.319578
0.314116
0.00562234
-0.00237008
-0.144307
0.141054
0.000642392
-0.0233253
0.0226829
-0.0284272
0.0284713
-4.40947e-05
-0.000520138
0.00147449
-0.225211
0.224256
-0.00305431
0.0045611
-0.398113
0.396606
-0.00564669
0.00571923
-0.552376
0.552304
-0.00477052
0.00330019
-0.672638
0.674108
-0.00122127
-0.000913611
-0.792893
0.795028
0.00343062
-0.00584414
-0.937616
0.94003
0.00858999
-0.0111645
-1.1129
1.11547
0.0140295
-0.0166433
-1.32412
1.32673
0.0194448
-0.0218773
-1.579
1.58143
0.0239471
-0.0256635
-1.57422
1.57593
0.0268346
-0.0277726
-1.31321
1.31415
0.0283902
-0.028853
-1.09988
1.10034
0.0291332
-0.0294242
-0.925335
0.925626
0.0297376
-0.0299595
-0.783117
0.783339
0.0295601
-0.0280989
-0.654629
0.653168
0.0252094
-0.0204405
-0.500239
0.49547
0.015296
-0.00980241
-0.308718
0.303224
0.00567013
-0.00240918
-0.137845
0.134584
0.000659895
-0.0220513
0.0213914
-0.0285704
0.0287303
-0.000159924
0.00040613
-6.11518e-05
-0.223622
0.223277
-0.000779671
0.00167417
-0.395423
0.394528
-0.00229938
0.00214307
-0.552483
0.552639
-0.00106975
-0.000523523
-0.675816
0.677409
0.00275019
-0.00505063
-0.797169
0.79947
0.00775993
-0.0103484
-0.942335
0.944924
0.0132763
-0.0159967
-1.11795
1.12067
0.0189858
-0.0216674
-1.32926
1.33194
0.0244776
-0.0268414
-1.58375
1.58611
0.0287656
-0.0302625
-1.5775
1.57899
0.0312081
-0.0318728
-1.31496
1.31562
0.0322338
-0.0324194
-1.10078
1.10096
0.0324469
-0.0324714
-0.925892
0.925916
0.0325626
-0.0324589
-0.783207
0.783103
0.0317293
-0.0297116
-0.651445
0.649427
0.0263027
-0.0210824
-0.490621
0.4854
0.0156981
-0.0100686
-0.297755
0.292126
0.00585008
-0.00250399
-0.131334
0.127988
0.000692179
-0.0207371
0.0200449
-0.0289697
0.0292693
-0.000299606
0.00140281
-0.00171089
-0.223293
0.223601
0.00171623
-0.00154489
-0.393954
0.393783
0.00151429
-0.00200799
-0.553153
0.553647
0.00329153
-0.00505936
-0.679297
0.681065
0.00749309
-0.0100084
-0.801771
0.804287
0.0129666
-0.0157782
-0.947408
0.95022
0.0189342
-0.0218378
-1.12331
1.12621
0.0249873
-0.0277636
-1.33453
1.33731
0.0306
-0.0328942
-1.58836
1.59065
0.0346554
-0.0358958
-1.58031
1.58155
0.0365792
-0.036923
-1.31612
1.31647
0.0369939
-0.0368743
-1.10108
1.10096
0.0366234
-0.0363557
-0.925893
0.925625
0.0362228
-0.0356958
-0.782539
0.782012
0.0345543
-0.0318926
-0.647207
0.644545
0.0279036
-0.022154
-0.480107
0.474358
0.0164363
-0.0105567
-0.286482
0.280602
0.00615918
-0.00265267
-0.124622
0.121115
0.000738606
-0.0193541
0.0186155
-0.029641
0.0301174
-0.000476424
0.0026913
-0.00374888
-0.224295
0.225353
0.00462602
-0.00525145
-0.393939
0.394565
0.00593915
-0.00688281
-0.554642
0.555585
0.00846908
-0.0104931
-0.683196
0.68522
0.0132232
-0.0160211
-0.80681
0.809607
0.0192888
-0.0223727
-0.952926
0.95601
0.0258095
-0.0289414
-1.12903
1.13216
0.0322914
-0.0351835
-1.33999
1.34288
0.0380462
-0.0402508
-1.5928
1.595
0.0418157
-0.0427653
-1.58258
1.58353
0.0431296
-0.0431183
-1.31662
1.31661
0.0428534
-0.0423761
-1.10071
1.10023
0.0418023
-0.0412074
-0.925257
0.924662
0.0407754
-0.0397914
-0.780964
0.77998
0.0381306
-0.0347379
-0.641749
0.638357
0.0300711
-0.0236801
-0.468529
0.462137
0.0175175
-0.0112652
-0.274667
0.268415
0.00659373
-0.0028524
-0.11756
0.113819
0.000798033
-0.0178744
0.0170764
-0.0306649
0.031359
-0.000694059
0.00418107
-0.00612833
-0.226831
0.228779
0.00808045
-0.00960307
-0.395587
0.39711
0.0111075
-0.0126162
-0.557193
0.558702
0.0146231
-0.0169795
-0.687682
0.690039
0.0200873
-0.0232434
-0.812413
0.815569
0.0269109
-0.0303523
-0.959002
0.962444
0.0341558
-0.0375787
-1.13521
1.13864
0.0411751
-0.0442037
-1.34568
1.34871
0.0470951
-0.049189
-1.59704
1.59913
0.0505149
-0.0511166
-1.58423
1.58484
0.0510978
-0.0506819
-1.31636
1.31594
0.0500372
-0.0491533
-1.09955
1.09866
0.0482145
-0.0472378
-0.923892
0.922915
0.0463804
-0.0449018
-0.778441
0.776962
0.0425787
-0.0383336
-0.634871
0.630626
0.0328705
-0.025702
-0.455654
0.448486
0.0189628
-0.0122006
-0.262062
0.2553
0.00715395
-0.0031014
-0.109999
0.105947
0.000869335
-0.0162725
0.0154032
-0.0321203
0.0331003
-0.000979991
0.00605699
-0.00907189
-0.231154
0.234169
0.0122747
-0.0148597
-0.39916
0.401745
0.0173379
-0.0195482
-0.561066
0.563276
0.022124
-0.0249313
-0.692921
0.695728
0.02854
-0.03216
-0.818742
0.822362
0.0363305
-0.0402078
-0.965809
0.969686
0.0444421
-0.0481942
-1.14198
1.14573
0.0520562
-0.0552152
-1.35162
1.35478
0.0580962
-0.0600145
-1.60102
1.60294
0.0610186
-0.0611768
-1.58514
1.5853
0.0607171
-0.0598063
-1.3152
1.31429
0.0587228
-0.0573764
-1.09748
1.09613
0.0560315
-0.0546254
-0.921675
0.920269
0.053249
-0.0511672
-0.774879
0.772798
0.0480586
-0.0428016
-0.62631
0.621053
0.036383
-0.0282567
-0.441208
0.433082
0.0207823
-0.0133581
-0.248391
0.240967
0.007831
-0.00339289
-0.10179
0.0973518
0.000949729
-0.0145268
0.0135771
-0.0341371
0.0355062
-0.0013691
0.00850954
-0.0128714
-0.2376
0.241961
0.0175574
-0.0213766
-0.405033
0.408852
0.0249955
-0.028065
-0.566611
0.56968
0.031406
-0.0348448
-0.699189
0.702627
0.0391284
-0.0433348
-0.826004
0.83021
0.0481065
-0.0524859
-0.973488
0.977867
0.0572026
-0.0613073
-1.1494
1.1535
0.0654278
-0.0686753
-1.35779
1.36104
0.0714575
-0.0730852
-1.60459
1.60621
0.0736434
-0.0732289
-1.58509
1.58468
0.0722306
-0.0707032
-1.31292
1.3114
0.069102
-0.0672128
-1.09435
1.09246
0.0654037
-0.0635282
-0.918509
0.916633
0.0615307
-0.0587508
-0.770062
0.767282
0.0547036
-0.0482252
-0.615736
0.609258
0.0406482
-0.0313492
-0.424833
0.415534
0.0229603
-0.0147115
-0.233355
0.225106
0.00860015
-0.00371184
-0.0927899
0.0879016
0.00103385
-0.0126218
0.0115879
-0.0369092
0.038838
-0.00192884
0.0119105
-0.0179752
-0.246676
0.252741
0.024461
-0.0297287
-0.41368
0.418948
0.03469
-0.0387886
-0.574218
0.578317
0.0430859
-0.0473418
-0.706843
0.711099
0.0524853
-0.0574161
-0.834441
0.839372
0.0629121
-0.0678737
-0.982185
0.987147
0.0731136
-0.0775571
-1.1575
1.16194
0.0818652
-0.0850937
-1.36406
1.36729
0.0876284
-0.0888091
-1.60748
1.60866
0.0887602
-0.0876102
-1.58381
1.58266
0.0859224
-0.0836628
-1.30932
1.30706
0.0814349
-0.0789369
-1.09
1.0875
0.0766205
-0.0741344
-0.914258
0.911772
0.0715091
-0.0678112
-0.763725
0.760027
0.0626093
-0.0546591
-0.602715
0.594765
0.0456839
-0.0349566
-0.406111
0.395384
0.0254481
-0.0162042
-0.216643
0.207399
0.00941388
-0.00403092
-0.0828841
0.0775012
0.00111205
-0.0105547
0.00944264
-0.0407631
0.0435591
-0.00279601
0.0168392
-0.0251523
-0.259095
0.267408
0.0338692
-0.0408817
-0.425765
0.432778
0.0474666
-0.0528154
-0.584333
0.589682
0.0583244
-0.0636392
-0.716263
0.721578
0.0698542
-0.0756418
-0.84432
0.850108
0.0819349
-0.0874744
-0.992035
0.997575
0.0931569
-0.0978043
-1.16619
1.17084
0.102095
-0.10508
-1.37017
1.37316
0.10709
-0.107555
-1.60932
1.60979
0.106646
-0.104533
-1.58092
1.57881
0.101992
-0.0988572
-1.30415
1.30102
0.0959152
-0.0927346
-1.08427
1.08109
0.0898502
-0.0866447
-0.908581
0.905376
0.0833235
-0.0784843
-0.755415
0.750576
0.0718715
-0.062138
-0.586708
0.576974
0.0514731
-0.0390159
-0.384544
0.372087
0.0281574
-0.017745
-0.197944
0.187532
0.0101998
-0.00431064
-0.0720082
0.0661191
0.00117101
-0.0083438
0.00717279
-0.0462709
0.0505286
-0.00425772
0.0244782
-0.0358457
-0.276016
0.287384
0.0474495
-0.0567761
-0.442305
0.451631
0.065369
-0.0721717
-0.59756
0.604363
0.0791971
-0.0859821
-0.727845
0.73463
0.0933478
-0.099915
-0.855859
0.862427
0.106832
-0.112718
-1.00293
1.00882
0.118516
-0.123024
-1.17512
1.17963
0.126886
-0.129234
-1.37559
1.37794
0.130274
-0.129622
-1.60952
1.60887
0.127507
-0.124142
-1.57596
1.57259
0.120545
-0.116368
-1.29715
1.29297
0.112613
-0.108703
-1.07697
1.07306
0.105229
-0.10123
-0.901236
0.897237
0.0970803
-0.0908182
-0.744622
0.738359
0.0824652
-0.0705668
-0.567029
0.555131
0.0578872
-0.0433876
-0.359556
0.345057
0.0309425
-0.0192021
-0.176984
0.165244
0.0108584
-0.00449936
-0.060188
0.053829
0.0011932
-0.00603597
0.00484277
-0.0544917
0.0618156
-0.00732389
0.0379127
-0.0537285
-0.299564
0.315379
0.0693553
-0.0818288
-0.464929
0.477403
0.0925441
-0.100701
-0.614365
0.622522
0.10924
-0.117263
-0.742002
0.750025
0.12551
-0.132449
-0.868769
0.875708
0.139418
-0.145069
-1.01426
1.01991
0.150333
-0.154093
-1.18347
1.18723
0.156886
-0.158003
-1.37943
1.38054
0.157505
-0.155277
-1.60722
1.605
0.151599
-0.146707
-1.56835
1.56346
0.141848
-0.13645
-1.28796
1.28256
0.131721
-0.126941
-1.06798
1.0632
0.122809
-0.118024
-0.892017
0.887231
0.112719
-0.104638
-0.730716
0.722635
0.0941401
-0.0796151
-0.542794
0.528269
0.0645746
-0.0477931
-0.330525
0.313744
0.0336013
-0.0204638
-0.153602
0.140465
0.0113293
-0.00457368
-0.0476016
0.0408459
0.00116566
-0.00371297
0.00254732
-0.0686629
0.0727713
-0.00410841
0.0290482
-0.0427328
-0.333707
0.347392
0.0565509
-0.0679092
-0.495026
0.506384
0.0780208
-0.0874476
-0.634312
0.643738
0.0979094
-0.107352
-0.757636
0.767079
0.117769
-0.127
-0.88179
0.891022
0.136756
-0.14534
-1.02461
1.0332
0.154144
-0.161495
-1.18987
1.19722
0.168492
-0.173694
-1.38045
1.38565
0.177709
-0.17947
-1.60148
1.60324
0.17892
-0.176602
-1.55745
1.55513
0.173281
-0.168866
-1.27625
1.27184
0.164782
-0.160014
-1.05708
1.05231
0.155957
-0.150916
-0.880624
0.875583
0.144154
-0.132653
-0.712779
0.701279
0.117407
-0.097032
-0.512976
0.492602
0.0767893
-0.0548466
-0.296774
0.274831
0.0372261
-0.0217644
-0.127902
0.11244
0.0115809
-0.00449298
-0.0346806
0.0275927
0.0011013
-0.0014899
0.000388593
-0.0798933
0.078074
0.00181928
0.00746048
-0.0164715
-0.363926
0.372937
0.0269464
-0.0349599
-0.522468
0.530481
0.043028
-0.0510278
-0.655531
0.663531
0.060664
-0.0695281
-0.776197
0.785061
0.0788854
-0.0873957
-0.899726
0.908236
0.0963529
-0.103885
-1.04149
1.04902
0.111771
-0.117968
-1.20435
1.21055
0.123764
-0.127718
-1.39047
1.39443
0.130057
-0.130289
-1.60403
1.60427
0.128186
-0.124257
-1.55185
1.54792
0.119325
-0.113222
-1.2667
1.2606
0.107562
-0.101312
-1.04598
1.03973
0.0956064
-0.0889991
-0.866027
0.85942
0.081906
-0.0719465
-0.685906
0.675946
0.0606409
-0.0470245
-0.470664
0.457048
0.0348084
-0.0231247
-0.253009
0.241325
0.014755
-0.00817876
-0.097793
0.0912167
0.00421801
-0.00161914
-0.0209489
0.01835
0.000379789
0.000697317
-0.00107711
-0.0813488
0.0784888
0.00285995
-0.00165731
-0.00358773
-0.384327
0.389572
0.0107206
-0.0165694
-0.542683
0.548532
0.0226112
-0.0295552
-0.673528
0.680472
0.037891
-0.0455933
-0.793067
0.800769
0.053957
-0.0613979
-0.916026
0.923467
0.0689723
-0.0756828
-1.05637
1.06308
0.082482
-0.0878851
-1.21628
1.22169
0.0924496
-0.0952663
-1.39765
1.40047
0.0966786
-0.095864
-1.60369
1.60287
0.0927612
-0.0878608
-1.54325
1.53835
0.0821762
-0.075459
-1.25417
1.24746
0.068792
-0.061561
-1.03229
1.02505
0.0548552
-0.047326
-0.849938
0.842409
0.0404643
-0.0320835
-0.662407
0.654026
0.0238283
-0.0152356
-0.441527
0.432935
0.00914228
-0.00470359
-0.228925
0.224486
0.00236574
-0.00108741
-0.0843973
0.083119
0.000544648
-0.000249441
-0.015556
0.0152608
2.16272e-05
0.00160141
-0.00162303
-0.0801321
0.07744
0.00269208
-0.00521376
0.00266873
-0.397957
0.400502
0.00194024
-0.00639724
-0.557693
0.56215
0.011526
-0.0173523
-0.688405
0.694231
0.0245069
-0.0311304
-0.807863
0.814487
0.0382969
-0.044687
-0.930395
0.936785
0.0515613
-0.0572447
-1.06935
1.07504
0.0631797
-0.0674287
-1.22666
1.23091
0.0712637
-0.0734669
-1.40304
1.40524
0.0740915
-0.0724016
-1.60157
1.59988
0.0688634
-0.0635653
-1.53283
1.52753
0.0575307
-0.0500941
-1.24037
1.23294
0.0431113
-0.0355045
-1.01694
1.00933
0.0283406
-0.0208805
-0.832731
0.825271
0.0141461
-0.00720365
-0.642486
0.635543
0.00132466
0.00321147
-0.422886
0.41835
-0.00512468
0.0053268
-0.217893
0.217691
-0.00456551
0.00312225
-0.0807548
0.0821981
-0.00187044
0.000771501
-0.0145542
0.0156531
-0.000258967
0.00189756
-0.0016386
-0.078688
0.0763121
0.00237593
-0.00630064
0.00533363
-0.407085
0.408052
-0.00193443
-0.00134335
-0.569763
0.573041
0.00553639
-0.0108304
-0.700915
0.706209
0.0168687
-0.0227041
-0.820422
0.826257
0.0289257
-0.0344833
-0.942736
0.948293
0.0403866
-0.0454597
-1.08059
1.08566
0.0504908
-0.0544062
-1.23503
1.23894
0.0576542
-0.0593874
-1.40708
1.40881
0.0595669
-0.0575245
-1.59797
1.59593
0.0537153
-0.0480261
-1.52148
1.51579
0.0418983
-0.0345799
-1.2254
1.21808
0.0276083
-0.0198372
-1.00116
0.993387
0.0127433
-0.00521461
-0.815984
0.808455
-0.00110314
0.00663541
-0.62583
0.620298
-0.010612
0.0128786
-0.411296
0.40903
-0.0127925
0.0109691
-0.214708
0.216532
-0.00864007
0.00586685
-0.0826189
0.0853921
-0.00352421
0.00149461
-0.0164095
0.0184391
-0.000427721
0.00157217
-0.00114445
-0.0773632
0.0753348
0.00202835
-0.0061524
0.00567264
-0.413391
0.413871
-0.00364609
0.00100339
-0.57912
0.581762
0.00312987
-0.00766853
-0.711557
0.716095
0.0128853
-0.0179716
-0.831306
0.836392
0.0235273
-0.0285183
-0.953519
0.95851
0.0339531
-0.0384282
-1.09047
1.09495
0.0429901
-0.0465367
-1.24258
1.24613
0.0493931
-0.0508408
-1.41029
1.41173
0.0507808
-0.0490104
-1.5938
1.59203
0.0452304
-0.0399024
-1.50974
1.50441
0.0340387
-0.0270384
-1.21068
1.20368
0.0205658
-0.0129163
-0.985387
0.977737
0.005944
0.00123419
-0.799815
0.792636
-0.00706815
0.0119663
-0.611762
0.606864
-0.0150899
0.0166738
-0.40394
0.402356
-0.0157305
0.0131255
-0.215538
0.218143
-0.0103516
0.00705958
-0.0871815
0.0904735
-0.00427001
0.00185662
-0.0200293
0.0224427
-0.00050588
0.000803994
-0.000298114
-0.0763796
0.0748075
0.00157208
-0.00525533
0.00509359
-0.418125
0.418286
-0.00345527
0.00144634
-0.587301
0.58931
0.00244145
-0.00655265
-0.720799
0.724911
0.0115176
-0.0159194
-0.841079
0.845481
0.0208296
-0.0252892
-0.963488
0.967948
0.0304928
-0.0346037
-1.09947
1.10358
0.0387018
-0.0420998
-1.24951
1.25291
0.0451565
-0.0465113
-1.41322
1.41457
0.0466039
-0.0449359
-1.58993
1.58826
0.0417696
-0.0366255
-1.49901
1.49387
0.031343
-0.024944
-1.19666
1.19026
0.0187105
-0.011636
-0.970098
0.963024
0.0049922
0.00192103
-0.784497
0.777584
-0.00708686
0.0117263
-0.599051
0.594412
-0.01453
0.0158382
-0.398257
0.396949
-0.0152225
0.0129632
-0.217815
0.220074
-0.0102886
0.00707112
-0.0926538
0.0958713
-0.00432243
0.00192357
-0.0242169
0.0266157
-0.00053481
-0.00014428
0.00067909
-0.0759026
0.0746761
0.00122656
-0.00417255
0.00412764
-0.421927
0.421972
-0.00267337
0.000763567
-0.594444
0.596354
0.00299151
-0.00668047
-0.729123
0.732812
0.0109534
-0.0152173
-0.849818
0.854082
0.0197838
-0.024412
-0.972235
0.976863
0.0289345
-0.0329024
-1.1078
1.11177
0.0371701
-0.0403687
-1.2562
1.2594
0.0430116
-0.0448487
-1.41587
1.4177
0.0452331
-0.0439797
-1.58672
1.58546
0.041105
-0.0366266
-1.489
1.48452
0.0317117
-0.0256801
-1.18361
1.17758
0.0199094
-0.0133464
-0.955855
0.949292
0.0073131
-0.00120578
-0.770345
0.764238
-0.00387345
0.00825795
-0.587488
0.583104
-0.0108131
0.0123651
-0.393126
0.391574
-0.012302
0.0105851
-0.219703
0.22142
-0.00850381
0.00591857
-0.0976305
0.100216
-0.00367485
0.00167653
-0.0281749
0.0301732
-0.000496168
-0.00106519
0.00156135
-0.075954
0.0749357
0.00101823
-0.00290148
0.00261214
-0.425362
0.425652
-0.0013506
-0.000613537
-0.600988
0.602952
0.00407955
-0.00764823
-0.736884
0.740452
0.0117589
-0.0156364
-0.858121
0.861999
0.0203422
-0.0242145
-0.980935
0.984807
0.0287354
-0.0325511
-1.1159
1.11972
0.0367369
-0.0401653
-1.2626
1.26602
0.0431443
-0.0448328
-1.41933
1.42102
0.0456421
-0.0448535
-1.58418
1.58339
0.042632
-0.0384419
-1.47994
1.47575
0.0339516
-0.0283856
-1.17169
1.16612
0.0231833
-0.0172849
-0.942667
0.936769
0.0120573
-0.00643805
-0.757691
0.752072
0.00154678
0.00302017
-0.576799
0.572232
-0.00597429
0.00752839
-0.387625
0.386071
-0.00797646
0.00711237
-0.220609
0.221473
-0.00583644
0.00412375
-0.101288
0.103001
-0.00260739
0.00124009
-0.031229
0.0325963
-0.000385861
-0.00184062
0.00222648
-0.0762875
0.0755843
0.000703275
-0.0017639
0.00106575
-0.428914
0.429613
-2.82183e-05
-0.00223923
-0.606755
0.609022
0.00535495
-0.00879695
-0.744127
0.747569
0.0127457
-0.0167624
-0.865727
0.869743
0.0208735
-0.0249224
-0.988894
0.992943
0.0294259
-0.0330547
-1.12396
1.12759
0.0373544
-0.0407698
-1.26927
1.27268
0.0438581
-0.0461282
-1.42314
1.42541
0.0474825
-0.0470079
-1.58266
1.58218
0.045043
-0.0415957
-1.47174
1.46829
0.0377501
-0.0327902
-1.16057
1.15561
0.0281686
-0.0232198
-0.931017
0.926068
0.0182187
-0.01312
-0.74601
0.740912
0.00831678
-0.00342552
-0.566326
0.561434
9.2603e-05
0.00207713
-0.381648
0.379478
-0.0029457
0.00306402
-0.220233
0.220115
-0.00263988
0.00193019
-0.103173
0.103883
-0.00129049
0.000657375
-0.0330201
0.0336532
-0.000223819
-0.00236674
0.00259056
-0.0770352
0.0764882
0.000547031
-0.000806313
0.000225791
-0.432701
0.433282
0.00158339
-0.0036191
-0.612791
0.614827
0.00688703
-0.010214
-0.750881
0.754208
0.0140177
-0.0176456
-0.873419
0.877047
0.0218924
-0.0256406
-0.997001
1.00075
0.0301066
-0.03418
-1.13167
1.13575
0.0381454
-0.0419188
-1.27615
1.27992
0.045471
-0.0478831
-1.4276
1.43001
0.0496583
-0.050004
-1.58194
1.58229
0.0485539
-0.0458924
-1.4648
1.46214
0.0425066
-0.0383563
-1.15089
1.14674
0.0344662
-0.0299252
-0.920885
0.916344
0.0253392
-0.0201844
-0.735022
0.729867
0.015237
-0.00999856
-0.555343
0.550105
0.00617502
-0.00341681
-0.374925
0.372167
0.00174565
-0.000766835
-0.218053
0.217074
0.00026117
2.77306e-05
-0.103098
0.102809
-0.000164642
0.000179156
-0.0334441
0.0334296
-9.45548e-05
-0.00258331
0.00267787
-0.0780511
0.0776903
0.000360792
0.000241658
-0.00109191
-0.436583
0.437433
0.00271434
-0.00506812
-0.618375
0.620729
0.00827982
-0.011462
-0.757417
0.760599
0.0153498
-0.0188335
-0.880642
0.884126
0.0229334
-0.0268108
-1.00497
1.00885
0.031188
-0.0352382
-1.13968
1.14373
0.0394447
-0.0432741
-1.28363
1.28746
0.0470545
-0.0502519
-1.43273
1.43593
0.05252
-0.0532338
-1.5826
1.58331
0.052612
-0.0505221
-1.4595
1.45741
0.0479751
-0.0446511
-1.14274
1.13942
0.0409908
-0.0366641
-0.911566
0.907239
0.0320729
-0.0265766
-0.723963
0.718467
0.0214979
-0.0159742
-0.544086
0.538563
0.0118727
-0.00839973
-0.367325
0.363852
0.00609085
-0.00421963