/*--------------------------------*- C++ -*----------------------------------*\
| =========                 |                                                 |
| \\      /  F ield         | OpenFOAM: The Open Source CFD Toolbox           |
|  \\    /   O peration     | Version:  4.0                                   |
|   \\  /    A nd           | Web:      www.OpenFOAM.org                      |
|    \\/     M anipulation  |                                                 |
\*---------------------------------------------------------------------------*/
FoamFile
{
    version     2.0;
    format      ascii;
    class       volScalarField;
    location    "2";
    object      p;
}
// * * * * * * * * * * * * * * * * * * * * * * * * * * * * * * * * * * * * * //

dimensions      [0 2 -2 0 0 0 0];

internalField   nonuniform List<scalar> 
918
(
0.835395
0.486326
0.0302201
0.827737
-0.00102144
0.441659
-0.650958
0.551214
0.826787
-0.0762662
0.0402368
0.694269
0.316398
0.0802913
-1.06765
0.0321861
0.753007
-0.794567
0.735236
0.00621804
0.204192
0.883424
0.805225
0.702874
0.718961
0.0836752
0.117775
0.00480332
-0.00322917
-0.0130857
0.0118931
0.0254649
0.0241704
0.322067
0.376045
0.399341
0.691511
0.414852
-0.410926
-0.468115
-0.507386
-0.844009
0.588359
0.617986
-0.0305864
0.503571
0.458111
0.72441
0.810109
0.826856
0.800023
0.81867
0.861161
0.315521
-0.107872
-0.15192
-0.0328348
-0.0277352
0.117392
0.0349824
0.0171968
0.0493659
0.0234609
0.638655
0.6924
0.684324
0.703903
0.696612
0.428528
0.381913
0.414346
0.364155
0.371911
0.318307
0.297563
0.104077
0.11836
0.0535279
0.045621
-1.23683
-1.72936
-0.751901
-0.61488
0.0106543
0.028368
0.0567879
0.751571
0.761116
0.729093
0.730822
0.683476
-0.660689
-0.913236
0.749425
0.746929
0.842845
0.795413
0.77873
0.725734
0.00733109
0.0166121
0.00936652
0.0289811
0.00984822
0.155143
0.237681
0.67957
0.727
0.685054
0.709589
0.695442
0.460615
0.743687
0.743658
-0.0399338
0.027338
0.0661313
0.0485125
0.173925
0.148693
0.24553
0.290635
-0.00279927
0.00465709
0.0408052
0.0132203
0.0247225
0.687287
0.675645
0.714036
0.690946
0.712593
0.308142
0.165761
0.475589
0.598343
-0.205387
-0.232723
-0.714563
-0.680136
-0.932584
0.810729
0.638971
0.670534
-0.0407169
0.00668914
-0.152374
0.0826661
0.0171636
0.721677
0.720494
0.709708
0.731661
0.727948
0.737071
0.817849
0.819375
0.830111
0.329067
0.381962
0.296814
0.246633
-0.408071
-0.209044
-0.40138
0.00746287
0.025089
0.118937
0.136125
0.123009
0.0892124
0.0176726
0.0345922
0.0458931
0.0141447
0.023319
0.639669
0.619052
0.644225
0.652486
0.70293
0.691017
0.689372
0.698344
0.253558
0.237197
0.223364
0.208811
-2.22256
-3.98649
-0.455736
-0.374895
0.0143249
0.00996952
0.00513976
-0.00761885
-0.000203062
-0.00890331
0.0684969
0.061212
0.044935
0.05711
0.754364
0.765839
0.683406
0.732244
0.605564
0.626764
0.727454
0.737765
0.744633
0.740321
0.0274098
0.0112138
0.0170544
0.403198
0.269623
0.333839
0.431642
0.350766
0.503061
0.53431
0.75546
0.749586
0.767722
-0.00340551
0.000936164
0.275771
0.306554
0.288695
0.272
0.307879
0.32802
0.334088
0.649571
0.680239
0.673302
0.716623
0.713759
0.721606
0.71163
0.702692
0.701108
0.0464386
-0.213657
0.772776
0.716577
0.642346
0.710212
0.777855
0.801282
0.716942
0.678684
0.70553
0.162048
0.15311
0.217085
0.195315
0.57115
0.595513
0.580406
0.193411
0.120368
0.150233
0.142897
0.116043
0.166392
-0.200661
-1.03916
-0.563072
-0.146438
-0.291768
-0.192148
0.0654305
0.0933784
0.0746927
0.703957
0.748437
0.411177
0.545186
0.519304
0.0477095
0.0406568
0.129105
0.0631085
0.0580656
0.0971754
0.0582388
0.778879
0.764552
0.807875
0.770117
0.797191
0.31561
0.242384
0.203154
0.158486
0.167609
0.164665
0.730683
0.757985
0.782743
0.706326
0.713411
-0.00170228
0.00762808
0.781696
0.810567
-0.0271759
-0.00593951
-0.298905
-0.807574
0.33891
0.7487
0.732394
0.769211
-0.061881
0.257894
0.0295652
0.122171
0.0717197
0.682949
0.640392
0.592944
-0.00268162
0.0415623
0.0146446
-0.232223
0.779653
0.740655
0.780014
0.784959
0.781157
0.00610789
0.00902429
0.0253359
0.000149257
0.0178604
0.041417
0.703785
0.69757
-0.131418
0.768843
0.770447
0.776635
0.763353
0.781184
0.756182
0.0237085
0.02983
0.0513327
0.417921
0.529994
-0.0683537
0.141358
-0.286423
-0.35071
-0.435307
-0.165977
-0.0589082
-0.186595
0.0572048
0.627624
0.50738
0.396189
0.216219
0.392714
0.335476
0.738546
0.74699
0.728973
0.729293
0.759758
0.72419
0.782006
0.749322
0.77471
0.7954
0.0185879
-0.00803524
-0.033371
-0.120622
0.302809
0.385115
0.221522
0.277274
0.160099
0.0125499
0.0472774
0.0242393
0.0297385
0.0718222
0.107963
0.0795879
0.13904
0.0905408
0.106853
0.0483215
0.0932227
0.0570443
0.663795
0.67377
0.67493
0.712999
0.65333
0.649673
0.623132
0.639708
0.651091
0.579367
0.59552
0.588509
0.0124853
0.024631
0.0236849
0.0687124
0.0419842
-0.0292247
-0.0229538
-0.0299388
-0.00921774
-0.00951336
0.0133565
0.0137023
-0.164337
-0.316656
0.632679
0.530035
0.283224
0.728813
0.75576
0.726782
0.760547
0.788827
0.815463
0.785921
0.755521
0.707117
0.716387
0.690227
0.708469
-0.0467518
-0.178206
-0.00382185
-0.0737248
0.398659
0.732677
0.544736
0.499238
0.491282
0.627769
-0.607563
-0.439169
0.155685
0.0865329
-0.600486
-0.507993
-0.631119
-0.418198
-0.211852
-0.0446351
0.0239762
0.0530921
0.0437846
-0.067367
-0.0322722
0.660902
0.135369
0.126973
0.416593
0.29438
0.0638123
0.657076
0.675374
0.468721
0.411487
0.594905
0.561149
0.57542
0.560726
0.589588
0.609155
0.439197
0.435401
0.380985
0.705181
0.613655
0.622787
0.580828
0.742832
0.748728
0.730432
0.722019
0.724623
0.704292
0.716637
0.704465
0.722458
0.741998
0.731536
0.726839
0.00864541
0.019835
-0.038235
-0.131245
-0.0813807
-0.165751
-0.0358464
0.133419
0.0453995
0.250499
0.35291
0.134701
-0.0947338
0.0332137
0.0272607
0.210967
0.194788
0.139026
0.177192
0.176234
0.142483
0.241625
0.223072
0.0878815
0.0920747
0.0651889
0.0334285
0.144939
0.121608
0.15939
0.0815659
0.0919251
0.0506535
0.0353769
0.0935455
0.101472
0.0957732
0.0828563
0.0296701
0.04299
0.00639906
0.0351152
0.116385
0.097901
0.699382
0.689376
0.68814
0.666102
0.713577
0.704503
0.636105
0.696702
0.695259
0.686636
0.639699
0.629327
0.633322
0.640116
0.660803
0.658804
0.711011
0.704252
0.656143
0.669632
0.615041
0.634694
0.612521
0.612537
0.611694
-0.00624892
0.00240414
-0.0129224
0.000768053
0.0239328
0.0495092
0.0767525
0.0483593
0.0781182
0.0649383
0.0664287
-0.00560935
0.0130541
-0.00237472
0.109562
-0.151351
-0.177494
-0.300013
0.623893
0.674216
0.533338
0.455411
0.529008
0.573046
0.603985
0.418817
0.456004
0.495744
0.732349
0.718949
0.713751
0.717145
0.742723
0.734473
0.732405
0.0821896
0.240089
0.270035
0.403599
0.489254
0.508987
0.476961
0.477462
0.563461
0.54373
0.723506
0.739484
0.71445
0.734848
0.747798
0.5601
0.666094
0.676686
0.699308
0.671719
0.68365
0.693943
0.679289
0.63713
0.638961
0.65021
0.593645
0.609216
0.599817
0.605833
0.652297
0.645878
0.656028
0.642471
0.664452
0.656596
0.692753
0.729839
0.709485
0.611268
0.588084
0.61214
0.628726
0.607371
0.616872
0.608803
0.481099
0.587371
0.478497
0.219998
0.312234
0.0635006
0.0723631
0.23333
0.414418
-0.0204109
-0.129287
-0.470098
0.719015
-0.814294
-0.252515
-0.684985
0.35693
0.371893
0.278566
0.18367
0.271353
0.685308
0.691024
0.703645
0.581421
0.545035
0.452465
0.496658
0.762023
0.601318
0.606748
0.588714
0.432116
0.503295
0.598536
0.560264
0.483706
0.506217
0.602812
0.495262
0.514041
0.596992
0.540576
0.546501
0.627596
0.66635
0.672228
0.642061
0.573868
0.602454
0.596047
0.616776
0.629484
0.619094
0.717148
0.71415
0.702922
0.712754
0.719378
0.721058
0.693831
0.730133
0.74191
0.751157
0.741076
0.0348549
0.0557661
0.0387317
0.00885212
0.0880424
0.0683007
0.00355714
-0.0310127
0.105953
0.0966681
0.0507493
0.028887
0.071318
0.0707252
0.143934
0.19222
0.203534
0.146345
0.283118
0.364486
0.415174
0.367104
0.254994
0.252174
0.298612
0.0955177
0.106625
0.0931491
0.0898919
0.0973291
0.00613836
0.0237871
0.00601002
0.0905935
0.0704895
-0.0342482
0.0294329
0.0300707
-0.00771949
0.0189225
0.030292
0.679695
0.657847
0.628625
0.610724
0.633976
0.640738
0.682245
0.699674
0.713559
0.701781
0.694728
0.687221
0.701821
0.013248
0.047203
0.0500415
0.0301134
0.0251177
-0.0132834
0.00672913
0.365968
0.203221
0.253813
0.146115
-0.0275672
0.0234032
0.602332
0.707454
0.736666
0.701829
0.626201
0.639157
0.699377
0.732539
0.47704
0.578008
0.513379
0.65141
0.674336
0.700468
0.608486
0.437899
0.631337
0.725883
0.454579
0.478733
0.535335
0.464755
0.504788
0.486472
0.637112
0.496191
0.491583
0.534194
0.501716
0.545957
0.576626
0.574102
0.643436
0.39784
0.396844
0.306108
0.690223
0.716918
0.733696
0.694498
0.713608
0.706906
0.699105
0.71673
0.743075
0.743798
-0.240237
-0.0198282
-0.826603
-0.612057
-0.142105
0.693902
0.555866
0.315481
0.580303
-0.0100301
0.278499
0.492971
0.54668
0.576563
0.459662
0.548019
0.581745
0.566832
0.58077
0.488923
0.454322
0.652245
0.656677
0.638659
0.652427
0.650829
0.664473
0.684631
0.717037
0.674834
0.704753
0.70209
0.716035
0.150657
0.105631
0.135736
0.128641
0.105309
0.111405
-0.0222558
-0.0193002
0.0467398
0.0539477
0.0532802
0.0897416
0.388839
0.398587
0.211638
0.333887
0.118659
0.0305478
-0.0230639
0.129228
0.246161
0.262038
0.506231
0.601045
0.563103
0.560695
0.492593
0.562869
0.696084
0.64528
0.695637
0.617575
0.610426
0.469581
0.121979
0.114001
-0.177968
0.35601
0.553662
0.501258
0.143859
-0.020074
0.682429
0.629535
0.596476
0.618567
0.592788
0.300736
0.360764
0.717747
0.910711
0.585064
0.526293
0.500357
0.660845
0.589674
)
;

boundaryField
{
    wall-4
    {
        type            zeroGradient;
    }
    velocity-inlet-5
    {
        type            zeroGradient;
    }
    velocity-inlet-6
    {
        type            zeroGradient;
    }
    pressure-outlet-7
    {
        type            fixedValue;
        value           uniform 0;
    }
    wall-8
    {
        type            zeroGradient;
    }
    frontAndBackPlanes
    {
        type            empty;
    }
}


// ************************************************************************* //
