/*--------------------------------*- C++ -*----------------------------------*\
| =========                 |                                                 |
| \\      /  F ield         | OpenFOAM: The Open Source CFD Toolbox           |
|  \\    /   O peration     | Version:  4.0                                   |
|   \\  /    A nd           | Web:      www.OpenFOAM.org                      |
|    \\/     M anipulation  |                                                 |
\*---------------------------------------------------------------------------*/
FoamFile
{
    version     2.0;
    format      ascii;
    class       surfaceScalarField;
    location    "2";
    object      phi;
}
// * * * * * * * * * * * * * * * * * * * * * * * * * * * * * * * * * * * * * //

dimensions      [0 3 -1 0 0 0 0];

internalField   nonuniform List<scalar> 
1300
(
3.75095
5.62643
-6.78341
3.75095
-6.37221
5.62643
-6.27109
6.27109
-1.58755
1.58755
1.88493
1.86602
-5.81105
5.81105
-5.62554
5.62554
-3.05301
3.05301
-5.24834
5.24834
-5.14367
5.14367
4.14745
-4.14745
-5.3041
5.3041
-2.17185
2.17185
-6.36676
6.36676
3.16949
-3.16949
-5.63272
5.63272
-1.52785
1.52785
-0.536796
4.28775
3.21416
3.21416
-2.77069
2.77069
-5.05632
5.05632
6.19096
-6.19096
9.853
-9.853
-3.06959
-3.27574
1.27372
-8.00554
-5.09849
-5.09849
-8.4387
8.4387
-2.81227
2.81416
3.19874
-3.19874
-2.2354
2.2354
-5.9317
-0.339396
-5.9317
6.5064
-0.235305
6.5064
-1.7314
0.143855
-1.7314
4.70777
-4.70777
1.41535
0.1722
1.41535
3.19026
-3.19026
-1.88622
3.77115
1.86473
-1.83746
6.12521
-1.91349
3.77951
-4.88533
4.88533
-5.9486
0.137554
-5.9486
5.75247
0.0585718
5.75247
-5.49472
5.49472
-5.62718
0.00163513
-5.62718
5.60951
0.0160328
5.60951
3.26773
-3.26773
-3.09974
0.0467257
-3.09974
3.0765
-0.0234902
3.0765
0.356346
5.27008
-5.98278
8.79693
-5.27008
0.0217477
5.25528
-0.00694461
5.25528
-5.18317
0.0395039
-5.18317
5.11947
0.0241967
5.11947
3.92354
0.223903
3.92354
-4.4829
0.335456
-4.4829
-3.20447
-3.34018
-5.36023
0.0561295
-5.36023
-2.22079
0.0489385
-2.22079
2.09958
0.0722784
2.09958
-3.90537
3.90537
-6.56161
0.194856
-6.56161
3.1211
0.0483956
3.1211
1.87219
1.87876
5.62315
-5.62315
2.45365
-5.6253
-0.00742733
-5.6253
-5.6197
-4.2333
5.6197
0.0130263
-1.27824
-0.249612
-1.27824
3.23432
-0.020158
3.23432
2.96029
0.116208
-2.96029
0.189603
3.68694
-3.68694
2.20087
0.569817
2.20087
-5.52665
5.52665
5.10422
0.0152538
-5.10422
0.0478965
6.10239
0.0885711
6.10239
-6.206
0.0150362
-6.206
3.32031
-6.59604
-3.28266
5.199
0.105106
-5.199
0.100507
3.22718
-0.0284315
3.22718
-3.16177
3.16177
-3.19269
-0.00605768
-3.19269
-2.00513
-0.230273
-2.00513
2.47203
-0.23663
2.47203
-5.45992
-0.471776
-5.45992
-6.62764
0.0660212
6.62764
-0.12124
3.00977
-3.00977
-1.85866
0.127256
-1.85866
-5.00402
-0.455901
5.00402
-0.29625
-4.42571
-0.282058
-4.42571
-3.20804
0.0153538
3.20804
-0.0177764
3.16136
0.0729513
-3.16136
-0.0289008
-1.87396
3.75272
-1.877
3.74173
-4.77709
-0.108241
-4.77709
5.11514
-0.229804
5.11514
6.19214
0.174623
-6.19214
0.243537
5.72518
0.0272898
5.72518
-5.45519
-0.0395296
-5.45519
5.57163
-0.0769159
5.57163
5.62346
0.101727
-5.62346
-0.00371841
5.61059
-0.00108576
5.61059
3.33217
-0.0644417
3.33217
-3.21806
-0.0496687
-3.21806
3.16947
-3.16947
3.08041
0.0890632
-3.08041
-0.0193269
-11.0369
11.0519
0.00753475
-11.0444
5.26282
5.26282
3.13582
0.787727
3.13582
-4.87018
0.387274
-4.87018
3.26323
-6.5459
3.26482
-6.46929
3.31885
-11.3244
3.28607
-6.62624
5.51372
-5.51372
5.46812
0.0456007
-5.46812
0.107888
-2.19603
-0.0247676
-2.19603
-3.70283
-0.202535
-3.70283
4.23309
-0.327719
4.23309
-3.20857
3.20857
-3.15447
-0.0541003
3.15447
-0.0333691
5.65659
-0.0459977
-5.65659
0.0312933
1.30593
0.109418
-1.30593
0.0276879
3.84972
-0.162773
3.84972
-3.5048
-0.182148
-3.5048
-2.19287
-0.00315619
2.19287
0.00800526
-5.7523
0.225654
-5.7523
-11.1463
0.101837
-11.1532
-6.10416
-6.10416
2.33454
11.1315
-3.21132
-0.00674936
3.21132
0.0158612
3.14486
0.0637051
-3.14486
-0.0169022
-3.16425
-0.0052208
3.16425
-0.00248782
-1.99921
-0.00592074
-1.99921
-2.81234
2.81234
-2.65512
-0.157226
2.65512
-0.183086
3.15598
-0.146203
3.15598
2.03374
0.0658361
-2.03374
0.175082
-4.15922
-0.266487
-4.15922
5.28097
-0.165834
5.28097
-3.38536
-0.119434
3.38536
-0.0531868
-0.0201969
11.0721
-5.24262
0.0594449
5.24262
-11.1607
11.2202
-2.38971
0.390501
2.38971
0.746109
5.23479
0.291862
-5.23479
0.364609
5.55261
0.0190243
-5.55261
0.0388873
-3.6113
-0.0915332
-3.6113
-4.53819
-0.238897
4.53819
-0.305107
-11.4489
-0.185062
11.6339
-11.4247
5.93736
0.165026
-5.93736
11.3852
-2.93845
-0.0713234
2.93845
-0.126106
3.31968
-0.1637
3.31968
4.04266
-0.192942
-4.04266
-0.116564
-5.33816
-0.117021
5.33816
-0.0571949
-3.45223
-0.159073
3.45223
-0.13255
-4.15309
4.13293
1.97212
-3.32445
-3.2716
-7.55774
1.7586
1.99411
4.21226
-7.05396
-4.27043
-6.95345
7.1096
-6.74499
-7.9384
8.1623
7.45254
-7.7346
-5.83922
5.80585
6.31581
-6.33359
1.84416
1.927
10.7869
-10.6493
-10.0279
9.91965
10.1099
-10.1083
10.4535
-10.493
-12.1216
12.1407
-5.6238
5.67052
-6.59091
6.54124
-6.64697
6.59378
-3.32226
-3.14703
8.90235
-8.84622
11.6114
-11.6188
-11.2272
11.422
3.27324
0.859695
3.34619
-1.93568
3.77984
-1.84383
3.81595
3.2517
-6.57396
3.2942
-6.5658
5.9578
5.65356
-5.97083
-1.58692
-5.87794
5.84951
-5.78941
5.78692
10.7335
-11.0729
-1.85933
3.78632
-1.8824
3.87651
-3.3827
-2.45652
3.33431
0.877949
5.51335
3.389
-5.61846
-1.33499
-7.57409
7.38115
-7.70251
7.52036
-0.420143
5.88976
-5.46962
4.63618
-1.80431
7.69407
5.30529
5.69257
5.79351
-5.50164
0.951485
-6.42111
-6.37321
-2.46241
2.58966
2.38607
-2.21387
6.30253
1.15001
6.00628
-5.29143
-2.44317
-5.55791
3.85154
1.95431
3.79744
4.06111
2.25471
4.07646
3.02201
-3.05692
0.0349117
-3.02735
6.04935
0.729406
-5.48387
-4.60592
6.96413
3.82277
7.0227
-7.35316
-3.29619
-7.10962
-6.07343
-3.95446
-6.31233
6.5785
3.34115
6.3487
-7.71021
7.65301
6.71103
3.39888
6.72706
-6.76362
-3.34465
-6.76734
10.2008
-2.7483
-7.45254
-6.82034
-5.30129
6.89726
3.55624
7.4008
4.73985
7.43969
3.54092
6.65992
-7.09717
1.79588
-3.7609
-1.8629
-3.78022
3.59957
2.07095
3.57608
-4.22032
-2.37059
-4.22707
-4.19452
-2.45245
4.25896
2.28228
-4.26407
-3.43844
4.38351
2.21028
3.07543
-7.34586
3.55081
-6.69784
-6.29182
-2.5544
-6.18393
4.02181
2.56563
-6.58744
-2.55215
10.7049
-5.05131
9.11795
-7.25809
-4.36069
-7.2268
-8.83308
-2.39411
-8.76705
-5.21681
5.12528
-5.56889
5.24117
10.5004
-5.89198
-4.60841
-3.9665
-2.36709
3.9954
-0.64921
-3.69935
3.73426
0.080489
3.89644
4.75613
4.10693
-3.81796
-1.97145
-3.83486
3.80827
1.97866
3.80305
8.53502
2.19847
8.29972
-7.42608
-3.64682
-7.89785
5.75618
-5.98645
2.99194
-2.9951
5.1246
2.39576
-4.96183
-2.61226
5.87527
-3.03621
-2.83907
-13.2423
9.84247
3.3998
-5.54819
-0.912015
0.615839
-5.05434
-2.88407
4.71888
0.973686
10.8162
7.93209
-5.49641
5.72207
6.13753
6.15278
-0.220424
4.03497
-3.64447
4.60884
-0.552151
-4.05669
5.74045
-6.19636
-2.1574
-5.66376
3.50636
-0.190076
1.30075
-1.55036
-2.0198
-0.442603
-1.84472
1.4869
0.89917
1.59632
0.947042
1.64262
-2.62918
0.427399
2.20178
-1.68214
-1.78647
-3.7206
-0.428915
4.14952
5.53564
1.84551
-5.41907
-0.138842
2.7348
-2.66252
-1.20541
-2.51519
1.5063
-2.71172
-3.09236
-2.03517
5.12753
-3.34433
-0.490525
3.28063
0.516811
-3.76929
-2.10864
3.77535
0.301108
-2.93038
5.99884
-3.06846
-4.90184
2.55842
3.49093
4.51274
-4.65205
2.31885
2.33319
-1.16112
5.99367
1.02902
6.02096
-8.9481
5.65191
7.69014
3.73191
-7.86476
0.755138
-8.19296
9.4877
-8.32623
-1.16147
4.76771
4.71999
5.35698
5.14341
-3.51234
8.86931
-1.14941
-7.17682
9.34237
-5.61047
5.62709
-11.2376
-10.7705
3.59368
-6.79051
8.36948
-1.57896
-2.2918
-5.4184
9.08232
-0.764461
-8.31786
5.58424
-5.21158
-5.41726
10.6288
-7.95988
8.76191
-2.51978
-6.24214
-6.499
-3.99403
6.61602
1.03699
-9.68145
11.4773
-3.02153
5.77515
0.951914
5.77406
3.9185
-5.95861
2.04011
4.04138
-6.56116
2.35242
-8.31103
-4.84041
9.42406
-4.58365
-7.39481
-6.58255
-0.812264
1.96306
9.51428
-6.70291
5.28119
1.42172
3.25583
0.547217
-3.34489
-0.435331
0.316789
4.40818
-4.72496
3.89287
4.00908
3.49149
0.916686
3.81621
2.0333
-3.83207
-0.394996
-3.84118
1.38873
-1.5589
-3.44939
4.83812
-3.87836
0.428976
-2.65347
-3.38439
6.03786
-4.51637
2.89818
3.10066
4.87683
-4.77169
1.3873
-2.40578
-2.3659
2.49106
-4.04996
1.88166
2.95645
4.09194
0.653503
4.75638
4.66768
-7.32201
0.624169
8.05668
-6.72169
1.55772
5.88196
-6.83892
0.256366
-5.92756
1.15402
-6.20532
-5.43343
6.38192
-8.77604
-4.85564
7.97939
0.320328
-7.85815
-0.908903
-3.73566
-1.48115
-3.89474
-1.79809
-3.7708
-5.31042
-1.15194
-4.15848
3.97334
-4.17976
-2.13257
4.48487
0.756305
-4.55374
4.48242
-4.59208
4.42838
0.181597
3.55266
4.28852
1.92143
-2.39155
4.31298
-6.79169
8.99016
-10.4951
3.7034
4.11246
-7.75928
-6.38262
3.59961
2.15657
3.36298
5.81784
-7.21485
1.39701
-6.47355
7.31435
-0.840808
-9.94882
3.47527
-4.13098
2.69292
0.299026
2.66815
0.705166
2.23669
-2.94186
-2.28993
-2.28193
-2.21166
-3.18679
5.39845
0.989476
-3.21905
2.22958
-3.22334
4.21281
-0.219838
-2.99921
4.99819
-2.76149
5.29721
-3.44318
1.85404
3.11378
5.21088
-2.0971
4.08861
-1.69285
1.71044
-3.80754
-1.47635
-2.89187
4.96282
-3.14599
3.57496
-0.237855
3.81282
-4.00686
0.970654
-0.51537
3.49371
3.68331
3.98577
-3.06908
2.66084
-4.35369
-1.1467
-3.70019
-0.743737
-1.20598
-4.96967
6.17565
4.83768
-6.04367
-3.22302
6.00876
-2.78574
5.18042
-3.825
-1.35542
-2.8851
-3.10136
2.89102
1.14395
6.32438
0.117204
-3.9422
-3.52726
-2.78116
4.22406
0.384787
-2.30517
5.70496
1.68933
-0.388581
0.42763
1.16869
1.47844
-1.05081
0.353979
1.12446
-1.19638
1.98317
0.751634
-2.049
0.204281
-1.45323
2.95953
0.748554
-1.64772
0.596915
2.16211
-2.71426
4.47415
-1.48447
-2.98968
6.63626
1.75812
-3.24259
3.90564
-4.09571
2.54989
-2.9788
-0.692703
-4.78841
-3.63841
-2.22792
4.45749
-3.17054
5.01605
1.36514
-4.87721
6.24234
-3.41661
1.38144
-2.70481
3.45644
-0.796206
-1.9086
2.54814
2.57939
-2.75384
0.238653
-0.205703
2.065
-2.2707
-0.646715
-2.32885
-4.39576
4.69687
-2.17192
4.49078
2.14106
-1.97038
6.46116
1.78615
-3.75653
-3.11569
-3.60622
-1.42333
3.0894
-0.805191
-5.96214
-7.04733
5.86042
0.160547
-8.97017
10.0665
-1.09633
-5.1474
-0.504518
5.27223
-7.25236
0.691195
-4.89994
5.16656
6.19558
6.35613
-8.19321
-0.124648
-4.85206
1.11874
-5.9708
5.83873
-2.76311
6.35679
-6.86251
4.72994
-6.1062
5.19532
-0.775479
5.37841
-3.3383
2.07413
-6.06816
-5.03117
6.94814
-3.54926
7.90005
-4.05804
11.9581
-7.07958
6.95538
5.00272
-1.35513
-5.87168
-6.81177
5.45664
0.143612
5.91767
4.79954
-2.76625
4.40455
2.01601
-4.42179
-2.03396
-6.31535
1.89355
-3.21468
-1.76507
3.65862
3.11176
3.65898
1.29272
-3.22365
6.60711
-7.41937
-2.02346
-3.40997
6.78587
-1.32923
3.78014
-7.19012
-2.42518
5.26611
-0.686817
-4.57929
0.625872
-5.48151
2.6032
-8.08471
6.17283
-7.08173
1.27206
-5.40304
-3.28168
-3.40779
-1.38267
-3.20941
-4.60208
3.21941
-1.12681
3.35561
-5.32593
4.63911
-1.98843
5.20784
-3.4114
-0.483337
3.54395
0.884426
6.09227
-0.692057
-5.69057
-0.916833
5.43879
-4.52196
3.30722
-5.66173
-0.222939
3.28029
3.35597
-6.78665
-0.972622
-6.66319
-2.63128
4.78785
3.37747
8.21516
1.00031
5.15739
-0.369541
6.15771
2.99344
2.81035
-3.81257
5.20958
2.36309
6.06648
-0.822257
2.67629
1.84589
1.89483
0.767691
2.21627
1.46705
3.18692
0.245062
-2.03687
3.71793
-6.49908
-0.224276
-5.71136
2.45095
4.66491
-2.21396
4.5101
-4.12531
-0.0118627
2.16799
-0.849207
-1.31879
-1.8887
-1.23779
-0.113327
-1.35181
1.94872
1.60772
-1.83539
-0.0533031
-0.00033065
-3.63808
2.97913
-2.74048
-0.161095
6.08125
-2.38538
0.114677
-1.00394
-2.21418
-2.65678
2.4525
6.05733
0.403825
2.98888
5.1007
2.99205
0.225806
4.34574
-5.9247
-3.96529
-6.04935
-0.21062
5.06161
1.80104
7.71324
6.80376
5.47453
-1.71558
-9.13495
7.22071
-2.01113
6.3799
-1.8006
-6.28411
6.36692
2.62324
-6.68725
-0.394485
-6.67859
-8.68972
-0.447879
5.08699
-5.64439
5.16105
3.6799
0.478581
-2.8252
-0.582595
2.98242
-0.172071
5.98563
-1.65456
-5.979
7.63355
-3.01035
2.78607
4.93024
0.774722
3.61145
-0.513854
-6.49285
-8.70681
-1.04932
-1.66494
-4.039
0.110515
-1.71824
4.20355
-1.41748
2.84813
6.21608
6.20421
-1.82068
-4.22298
4.60642
-1.75829
4.44592
)
;

boundaryField
{
    wall-4
    {
        type            calculated;
        value           uniform 0;
    }
    velocity-inlet-5
    {
        type            calculated;
        value           uniform -3.75095;
    }
    velocity-inlet-6
    {
        type            calculated;
        value           uniform -5.62643;
    }
    pressure-outlet-7
    {
        type            calculated;
        value           nonuniform List<scalar> 8(6.78341 6.37221 6.34533 6.73181 6.54465 6.60297 6.52805 6.60492);
    }
    wall-8
    {
        type            calculated;
        value           uniform 0;
    }
    frontAndBackPlanes
    {
        type            empty;
        value           nonuniform 0();
    }
}


// ************************************************************************* //
