/*--------------------------------*- C++ -*----------------------------------*\
| =========                 |                                                 |
| \\      /  F ield         | OpenFOAM: The Open Source CFD Toolbox           |
|  \\    /   O peration     | Version:  4.0                                   |
|   \\  /    A nd           | Web:      www.OpenFOAM.org                      |
|    \\/     M anipulation  |                                                 |
\*---------------------------------------------------------------------------*/
FoamFile
{
    version     2.0;
    format      ascii;
    class       volVectorField;
    location    "2";
    object      U;
}
// * * * * * * * * * * * * * * * * * * * * * * * * * * * * * * * * * * * * * //

dimensions      [0 1 -1 0 0 0 0];

internalField   nonuniform List<vector> 
918
(
(0.938565 -0.0820878 0)
(0.00835761 2.9653 0)
(-0.145061 1.75646 0)
(0.835346 0.110945 0)
(-0.0169291 1.70899 -1.57502e-20)
(-0.0100545 2.94692 -9.05575e-19)
(1.21372 1.64454 5.9363e-19)
(0.532809 0.299698 -1.25737e-20)
(0.973832 -0.00199746 0)
(0.0448842 1.77122 0)
(0.0218963 1.71659 0)
(0.930781 0.0256378 0)
(-0.00539144 2.94673 0)
(0.0190995 2.85064 0)
(-0.0878036 2.84124 8.90196e-19)
(-0.011024 1.69833 -2.76079e-20)
(0.697617 0.147396 1.16139e-18)
(0.257577 2.02614 5.84646e-19)
(0.968034 0.0463506 0)
(0.0396932 1.72043 0)
(0.810818 0.338853 -1.57809e-19)
(0.866235 -0.0222879 0)
(0.882692 -0.0281738 0)
(1.01224 0.045721 0)
(0.842056 0.0535463 0)
(0.00862753 2.79195 0)
(-0.0506448 2.9151 1.97568e-19)
(-0.0365916 1.74286 0)
(-0.0342833 1.70597 0)
(-0.07381 1.73008 0)
(0.0216668 1.76134 0)
(-0.030131 1.71057 1.26313e-20)
(-0.0303468 1.69931 0)
(-0.0200457 2.98331 -2.75622e-23)
(-0.0188453 3.0046 7.01842e-19)
(0.00212696 3.00056 0)
(0.97303 -0.00434059 0)
(0.754622 0.974353 2.36047e-19)
(1.1182 1.65617 -5.48602e-19)
(1.28988 1.41707 5.80466e-19)
(0.962614 1.84497 -1.44257e-19)
(1.02755 1.85025 9.21799e-19)
(0.576452 0.307888 1.22702e-20)
(0.560075 0.292052 0)
(1.34608 0.764389 0)
(0.543854 0.33444 4.69304e-20)
(0.47915 0.326814 -4.86962e-20)
(0.970516 -0.0181664 0)
(0.991124 -0.000678889 0)
(0.97752 -0.000269858 0)
(0.92893 -0.0753796 0)
(0.978236 -0.00328279 0)
(1.0023 0.00630639 0)
(-0.026885 1.58532 -6.08175e-19)
(0.00616819 1.82098 0)
(0.024685 1.81745 0)
(0.00817597 1.77757 0)
(-0.0107457 1.75443 0)
(-0.0307824 1.69094 0)
(0.0161379 1.74775 0)
(0.00998316 1.72278 0)
(0.0101891 1.74958 0)
(0.00146948 1.71211 0)
(0.988822 -0.00914413 0)
(0.962738 0.0221083 0)
(0.944816 0.00386458 0)
(0.943744 -0.00552718 0)
(0.938202 -0.0114006 0)
(0.0158978 2.99819 3.33355e-19)
(0.0111187 3.01394 0)
(0.00709501 3.00107 0)
(0.00213151 2.99087 3.47282e-24)
(0.00740279 2.95171 -4.95448e-19)
(-0.0256471 2.98996 0)
(-0.0382583 2.93685 0)
(0.0116567 2.96236 2.35544e-25)
(0.00826847 2.87335 0)
(0.00739998 2.95162 0)
(0.0229427 2.82509 0)
(0.100195 2.99565 0)
(-0.122647 3.0332 0)
(0.0168013 2.92489 -8.25756e-19)
(-0.0782651 2.82785 0)
(-0.0153192 1.7418 0)
(-0.00346182 1.73003 2.7246e-20)
(0.00909561 1.68171 -4.64841e-20)
(0.739739 0.172604 -4.07896e-19)
(0.726213 0.139619 -4.02262e-19)
(0.711468 0.224335 -1.18977e-18)
(0.664709 0.202181 -7.5977e-19)
(0.20968 1.3588 0)
(0.34521 2.08412 -6.22907e-19)
(0.483214 2.06242 1.06621e-18)
(0.982137 0.00337984 0)
(0.949937 -0.00104583 0)
(0.982701 -0.00859593 0)
(0.98396 0.036435 0)
(0.982773 0.0443281 -3.85441e-18)
(1.01321 0.0626362 2.88208e-18)
(0.0111654 1.75269 0)
(0.0191437 1.70988 0)
(-0.00337506 1.7421 0)
(0.0152753 1.73076 0)
(-0.0137656 1.72393 0)
(0.589664 0.290002 5.51704e-20)
(0.487564 0.433536 0)
(1.01989 0.0359057 0)
(0.982401 0.0100374 0)
(0.945413 0.010976 0)
(0.89746 0.0497195 0)
(0.901415 0.0185381 0)
(1.11995 -0.0165867 0)
(0.839391 0.0495881 0)
(0.802303 0.0185599 1.84316e-18)
(0.0393464 2.83895 -1.17585e-19)
(0.026115 2.95266 0)
(0.054166 2.92675 0)
(0.0404144 2.80867 0)
(-0.0481017 2.9733 1.44096e-19)
(-0.0348859 2.85154 0)
(-0.0664189 2.96766 -5.73417e-19)
(-0.0714154 2.91369 2.64415e-19)
(0.0261908 1.75386 0)
(0.00377156 1.75688 0)
(-0.0169856 1.72668 -1.33625e-21)
(-0.0210018 1.73517 0)
(0.0203752 1.69264 0)
(0.999229 0.00826283 0)
(0.984793 -0.0132023 0)
(0.957212 -0.00993758 0)
(0.999785 0.00872679 0)
(0.969424 0.0222048 0)
(0.820362 1.06444 -3.01601e-19)
(0.661644 0.948876 0)
(0.818833 1.19039 4.17287e-20)
(0.723473 1.07849 0)
(1.19111 1.39257 -1.44725e-19)
(1.32486 1.15449 2.00277e-19)
(0.598736 2.07438 0)
(0.770333 2.02084 0)
(0.779852 2.00394 0)
(0.52525 1.2172 -3.71001e-19)
(0.601098 0.311463 0)
(0.593332 0.249454 1.95897e-19)
(1.20828 1.17186 0)
(1.25928 0.921159 0)
(1.35683 0.92123 -1.38393e-19)
(1.28507 0.737448 0)
(1.3637 0.525462 6.44474e-20)
(0.9927 0.0175056 0)
(0.994721 -0.00739138 0)
(0.978353 -0.0170976 0)
(0.993902 0.00706049 0)
(0.993371 -0.0116561 0)
(0.960468 0.0133995 0)
(0.979321 0.00212152 0)
(0.962973 -0.000671079 0)
(0.981802 0.00518478 0)
(-0.0193833 1.64061 3.18432e-19)
(0.0298866 1.58788 0)
(0.0052716 1.64334 5.40089e-19)
(0.0262265 1.63799 -4.55641e-19)
(0.165054 1.98855 -4.88159e-19)
(0.0161238 1.88709 0)
(0.0754829 1.90314 0)
(-0.0199948 1.78748 0)
(-0.0334337 1.7456 0)
(-0.0132263 1.73437 -1.61134e-21)
(0.0141546 1.69257 0)
(-0.00324342 1.73168 -8.97203e-20)
(0.0248114 1.71174 1.54819e-19)
(0.0184054 1.77922 0)
(0.0199772 1.74051 0)
(0.0226257 1.70373 0)
(0.000773808 1.73705 0)
(-0.00124575 1.71404 0)
(1.02549 0.0172671 0)
(1.0129 0.0142638 0)
(1.01263 -0.00187706 0)
(0.974834 -0.00423911 0)
(0.961706 -0.0150958 0)
(0.983602 0.00513592 0)
(0.960128 0.0179925 0)
(0.935234 -0.00102327 0)
(0.0564145 3.03379 -2.28931e-21)
(0.0490646 3.03986 0)
(-0.027103 2.98943 0)
(-0.0243633 2.94475 0)
(0.631026 3.17129 0)
(0.889849 2.54622 6.13656e-19)
(-0.000801263 2.92535 0)
(-0.0535033 2.84886 0)
(-0.00214559 1.75666 0)
(-0.00602788 1.71532 0)
(-0.00724331 1.74062 0)
(0.00588893 1.78008 -1.53813e-20)
(-0.0291057 1.76491 0)
(0.0122115 1.76933 0)
(0.0207668 1.70234 1.41334e-20)
(0.0258901 1.74483 5.53685e-20)
(0.00379529 1.73701 4.72284e-20)
(0.0269887 1.70803 0)
(0.765431 0.134378 6.39366e-19)
(0.740615 0.0756134 -6.21751e-19)
(0.185236 1.40044 0)
(0.238174 1.32466 -2.28226e-19)
(0.146244 1.47437 -6.61381e-19)
(0.133876 1.43869 6.59629e-19)
(0.980141 -0.0162266 0)
(0.982377 -0.0164802 0)
(0.983385 -0.00729732 0)
(0.955399 0.0145025 0)
(-0.004262 1.74586 0)
(0.016983 1.75612 0)
(-0.0109261 1.73251 0)
(0.517292 0.328412 3.60751e-19)
(0.54747 0.333793 -2.8e-19)
(0.466809 0.34254 0)
(1.19715 0.0928809 4.72868e-20)
(1.22209 0.0400572 0)
(1.13009 0.0415953 0)
(1.06108 0.00731931 0)
(0.784441 0.102885 0)
(0.823863 0.0529233 -2.93239e-18)
(0.760333 0.0392429 1.10309e-18)
(0.0549503 2.9507 3.15594e-22)
(0.0318711 2.83994 3.64943e-20)
(0.0520791 3.03993 -4.6724e-21)
(0.0381492 3.03052 2.18793e-19)
(-0.0372889 3.00376 8.91391e-21)
(-0.0468033 2.95645 -3.23003e-23)
(-0.0257033 3.01542 -1.63437e-19)
(-0.00413361 3.00948 1.19896e-19)
(0.0217419 3.02143 -2.29473e-19)
(1.01427 0.011386 0)
(0.996703 0.0235782 0)
(0.970813 0.0361785 0)
(0.992906 -0.0147613 0)
(0.979841 -0.00286988 0)
(0.957081 -0.0056289 0)
(0.979435 -0.00518076 0)
(0.9915 0.00964069 0)
(0.964538 0.0153924 0)
(0.761163 1.11811 -5.60626e-20)
(0.581616 1.16301 0)
(0.677489 1.1827 1.09006e-19)
(0.684969 1.29105 8.0702e-19)
(0.743467 1.24546 -4.77887e-19)
(0.718847 1.13262 9.03753e-19)
(0.481911 1.30508 1.75606e-18)
(0.515444 1.23621 3.41553e-19)
(0.681022 0.237234 8.03204e-19)
(0.649092 0.277584 1.97407e-19)
(0.648264 0.228027 3.81504e-19)
(1.2766 0.511609 -7.42925e-20)
(1.31991 0.365706 -1.38044e-19)
(0.0129123 1.69145 2.06532e-19)
(0.0161666 1.674 0)
(1.07368 0.026745 0)
(1.05393 0.00626442 0)
(1.02485 -0.00979242 0)
(0.0587009 3.05503 0)
(0.0139947 2.99238 1.78675e-19)
(-0.00812997 3.0012 0)
(-0.00367662 2.92254 -1.71292e-19)
(0.0539359 3.08669 3.7474e-20)
(0.0458383 3.06847 0)
(0.659791 1.34826 -9.27382e-20)
(0.884367 1.83075 1.76003e-19)
(0.591284 1.43714 -7.11648e-19)
(0.0259664 2.95906 9.62808e-20)
(-0.00368443 2.95649 0)
(-0.0118706 2.85143 0)
(-6.31887e-05 1.76252 -5.89146e-21)
(-0.0140033 1.72324 -1.45182e-19)
(-0.0434251 1.71319 1.18103e-20)
(0.233918 1.39724 7.07327e-19)
(0.312731 1.32865 -4.79915e-19)
(0.0247397 1.61872 4.6403e-19)
(0.0753619 1.53964 -5.6936e-19)
(0.0820986 1.52656 7.01405e-20)
(0.00548901 3.10988 -9.51454e-20)
(0.0185047 3.11373 1.03503e-19)
(-0.0327752 2.94789 9.40377e-20)
(0.0114579 2.94638 -3.39931e-20)
(-0.0017047 2.84213 -9.5789e-20)
(0.0265399 3.10009 -2.13248e-19)
(0.0279645 3.11252 2.0509e-19)
(0.541002 1.31838 0)
(0.63567 1.31076 -1.79282e-18)
(0.603439 1.21094 8.01532e-19)
(0.446754 1.33945 9.72955e-19)
(0.448409 1.28373 -1.51539e-18)
(1.2613 0.167171 1.48744e-19)
(1.28506 0.35272 0)
(1.30718 0.171999 -9.24863e-20)
(0.00476853 1.70473 -2.11414e-21)
(-0.0133842 1.70434 0)
(-0.0129423 1.6674 0)
(0.310205 1.38695 -2.4756e-19)
(0.362869 1.35321 -6.09778e-19)
(0.384701 1.29808 1.11591e-18)
(0.999196 -0.0381797 0)
(1.03181 -0.068446 7.14626e-19)
(0.00955532 1.76265 0)
(-0.0106914 1.76934 0)
(1.03897 0.0072232 2.3242e-20)
(0.956722 0.00867769 1.49291e-18)
(0.0032483 1.7905 1.95695e-20)
(0.0376411 1.80241 0)
(-0.00314755 3.09176 -3.32292e-19)
(0.0879422 3.05966 0)
(1.1137 0.666553 -1.6114e-19)
(1.01747 -0.0126431 -1.29758e-20)
(1.00736 0.0278197 0)
(1.01993 -0.0017962 -5.9085e-21)
(0.0867629 1.86442 0)
(0.0538211 1.70415 0)
(-0.0277239 1.77606 0)
(0.030495 1.75077 1.22792e-19)
(-0.0118975 1.77326 6.33589e-20)
(0.986714 -0.00716853 5.61232e-21)
(1.0544 0.0458555 0)
(1.06842 0.0329847 0)
(0.00871551 1.74329 0)
(0.0154652 1.77353 0)
(-0.0266802 1.7765 0)
(0.239311 1.95406 -1.73277e-19)
(0.964904 -0.0413686 0)
(0.982512 -0.0433476 0)
(1.00449 0.0054414 9.07474e-19)
(1.03609 -0.00445181 -1.07902e-18)
(1.05654 -0.028871 0)
(-0.0075172 1.73633 0)
(0.0201582 1.7456 0)
(0.00262706 1.73273 0)
(-0.0202511 1.78118 0)
(-0.00991774 1.77139 0)
(-0.00720683 1.7662 0)
(1.02173 0.00460309 0)
(1.01888 -0.0186453 -8.64875e-21)
(0.816323 1.65822 2.69968e-19)
(1.00303 -0.0269035 -9.00966e-19)
(1.05373 0.0269567 1.10076e-18)
(1.04662 0.0106013 0)
(0.999891 -0.0038896 8.67144e-19)
(0.989645 0.0255012 -1.09567e-18)
(1.0023 0.0195733 0)
(0.0192077 1.78242 0)
(0.0123807 1.76133 4.69765e-20)
(0.00492311 1.76855 -3.40303e-20)
(1.17045 0.293266 9.89473e-19)
(1.10243 0.0707989 0)
(0.0295269 3.14648 1.23448e-19)
(0.0361616 2.92383 -4.06842e-21)
(-0.0173337 3.17904 -6.32492e-19)
(0.00906922 3.12139 2.24273e-19)
(0.00478007 3.04368 0)
(-0.00655854 3.10051 -7.99982e-20)
(-0.0112285 3.1303 -1.10058e-19)
(0.0164405 3.10976 1.26175e-19)
(-0.0070598 3.10193 0)
(0.672125 0.304365 0)
(0.559732 0.381483 0)
(1.07816 0.739533 4.30449e-19)
(1.13882 0.897582 -4.99119e-19)
(1.08727 0.613689 0)
(1.14722 0.579831 0)
(1.02764 0.00400148 -1.686e-18)
(1.00516 -0.0101401 2.10427e-18)
(1.02082 0.00796566 0)
(1.01135 -0.0307221 0)
(0.974966 0.0332637 0)
(1.01698 -0.0128964 0)
(1.0072 -0.00585076 0)
(1.02377 -0.0446693 0)
(1.01782 -0.0383564 0)
(1.00179 0.010646 0)
(0.0704195 1.86653 0)
(0.0219645 1.85289 0)
(0.103981 1.87135 0)
(0.114203 1.91249 0)
(0.0452642 1.64077 0)
(0.053554 1.67185 -3.15039e-19)
(0.0782206 1.7173 0)
(0.0792724 1.71284 1.84082e-19)
(0.0166425 1.74282 -1.73463e-19)
(-0.0264554 1.7832 0)
(-0.00494787 1.77325 0)
(-0.0166555 1.78498 0)
(-0.025405 1.79762 0)
(-0.00121095 1.73039 -4.58038e-20)
(-0.00165928 1.74238 9.82883e-20)
(0.0410957 1.77865 7.26379e-20)
(0.038452 1.77475 0)
(-0.00998344 1.7738 -1.66884e-19)
(0.00913361 1.76196 -1.18738e-19)
(-0.00771927 1.74612 3.01854e-20)
(0.00404803 1.70365 -1.22929e-19)
(0.0499987 1.76077 -8.76636e-20)
(0.990447 -0.0134334 1.48303e-18)
(1.00501 -0.0345357 -1.92928e-18)
(0.992821 0.0127996 -1.54999e-18)
(0.935642 -0.00496211 2.02918e-18)
(1.03786 -0.00850924 0)
(1.0525 -0.00948575 0)
(1.03364 0.012742 0)
(1.06081 0.0410542 0)
(1.04873 0.0139075 0)
(1.07146 0.0501915 0)
(1.07459 0.0420529 0)
(1.0744 0.0357792 0)
(-0.063412 1.7514 -2.93423e-21)
(0.0528847 1.727 0)
(-0.02271 1.73701 0)
(-0.026565 1.76761 3.4981e-20)
(-0.0304083 1.78599 -1.01577e-21)
(-0.00211365 1.77855 -2.92729e-20)
(-0.00934519 1.76768 3.01198e-20)
(0.00379028 1.76959 0)
(-0.0166138 1.76727 0)
(0.00323371 1.76479 0)
(-0.00676726 1.7771 0)
(-0.0021146 1.78077 0)
(0.440248 1.93887 2.39094e-19)
(0.423756 1.99012 1.38043e-19)
(0.23836 1.48676 -1.75731e-19)
(0.197843 1.54074 4.44382e-19)
(0.320568 1.67736 1.01276e-19)
(1.01924 -0.00172059 0)
(0.996249 -0.000496863 0)
(1.02055 0.0329888 0)
(1.00251 -0.0267753 0)
(1.0023 -0.00948854 0)
(0.953771 0.0213617 0)
(0.974246 0.0826982 0)
(1.02187 0.0819847 0)
(1.00152 -0.0212216 1.59609e-18)
(1.01551 -0.006851 -2.01078e-18)
(1.01781 -0.011198 -1.53908e-18)
(0.997729 0.0025254 2.00792e-18)
(0.812134 1.70702 0)
(0.73923 1.75325 1.90886e-19)
(0.905885 1.52093 3.76362e-20)
(0.939659 1.52356 -4.99185e-20)
(0.962846 1.60467 9.27565e-19)
(0.858446 0.115171 6.77745e-19)
(1.11831 0.103221 0)
(1.14414 0.173427 -8.23792e-19)
(1.13095 0.11446 -3.46519e-20)
(0.954824 0.154055 0)
(-0.0812301 3.18033 -4.99421e-19)
(0.0508545 3.09342 4.61921e-19)
(0.0762821 2.69699 -7.56219e-20)
(0.469906 0.697581 3.01555e-19)
(0.0194498 3.06221 -4.21685e-19)
(-0.0119841 3.08431 0)
(0.0558121 3.02579 5.23089e-19)
(-0.114759 3.07258 1.18226e-18)
(-0.113614 3.0883 0)
(-0.00697573 3.1102 -1.56616e-21)
(0.00659482 3.11432 -3.14289e-20)
(-0.00730968 3.10374 4.11155e-20)
(0.00189546 3.099 0)
(0.00928763 3.11613 0)
(0.928632 1.84314 0)
(0.107431 0.890601 -5.25264e-19)
(1.09461 1.17135 1.40116e-19)
(0.931331 1.31984 0)
(0.764756 1.13721 -2.36373e-19)
(1.00614 1.07532 2.6572e-20)
(0.518303 0.163702 1.59814e-19)
(0.662298 0.311103 -1.33088e-20)
(0.656694 0.320798 4.11163e-19)
(0.556884 0.378547 1.84871e-20)
(0.532829 0.365908 -6.89585e-19)
(0.663353 0.343825 0)
(0.645289 0.404085 5.87944e-19)
(0.642277 0.380826 0)
(0.560726 0.387853 0)
(0.5816 0.349454 0)
(0.616084 0.709419 5.31355e-19)
(1.18148 0.296343 -7.94678e-19)
(1.17246 0.364132 0)
(1.19507 0.329197 0)
(0.775536 0.226624 6.55655e-19)
(0.656371 0.577779 -4.08246e-19)
(0.622401 0.50117 7.62983e-19)
(0.83541 0.411339 -8.77459e-19)
(1.0014 0.0286073 1.08577e-18)
(1.01034 0.0413339 -1.15384e-18)
(1.0073 0.0507955 0)
(1.01927 -0.0108209 0)
(1.01861 -0.0412037 -1.05218e-18)
(1.01744 -0.0074307 1.04193e-18)
(0.990348 0.00465139 0)
(0.987637 -0.00830348 0)
(1.01739 -0.00993025 0)
(1.01082 -0.00795074 0)
(1.00196 -0.0263654 0)
(0.992696 -0.0197946 0)
(0.01614 1.84081 0)
(0.0358072 1.82203 0)
(0.0420492 1.80941 3.68771e-20)
(0.227736 1.93642 8.11685e-20)
(0.12606 1.92376 1.42142e-19)
(0.119022 1.92709 -2.48414e-19)
(0.0655957 1.80613 0)
(0.193482 1.75252 -1.46493e-19)
(0.163149 1.79702 0)
(0.29072 1.70719 -1.46878e-19)
(0.266767 1.64465 5.08607e-19)
(0.185235 1.7568 1.29478e-19)
(0.216522 1.89857 1.99222e-20)
(0.160076 1.78057 -1.6052e-20)
(0.336179 1.79105 -1.27836e-19)
(0.215843 1.72757 0)
(0.244228 1.7148 1.13591e-19)
(0.0091197 1.72285 -6.16911e-20)
(-0.000425154 1.72561 0)
(0.0449902 1.70664 1.73759e-19)
(-0.00549584 1.71552 0)
(0.0631683 1.73327 -2.12227e-19)
(0.0305832 1.73467 0)
(0.0388611 1.76636 -5.68411e-20)
(0.0280347 1.7769 0)
(0.0527749 1.76094 0)
(0.0517104 1.76983 6.46579e-20)
(0.0192758 1.72989 -1.25909e-20)
(0.0342636 1.75881 2.03114e-19)
(0.032569 1.73955 1.71612e-21)
(0.0503948 1.69579 4.04897e-20)
(0.00592273 1.71952 2.35115e-20)
(0.0281795 1.76102 0)
(0.000510439 1.76517 0)
(0.00176717 1.74999 1.36045e-19)
(-0.0154605 1.74985 1.36415e-19)
(-0.0191654 1.77531 -1.68817e-19)
(0.0253106 1.76237 0)
(-0.0203049 1.74702 -8.72578e-20)
(-0.0192258 1.75989 2.12882e-20)
(0.0161782 1.78588 -7.35579e-21)
(0.055682 1.73978 -4.8861e-20)
(0.00542872 1.71774 -3.50176e-20)
(-0.0226383 1.74876 1.33063e-19)
(1.00083 0.0255323 -1.10103e-18)
(0.996093 0.0091754 1.04028e-18)
(0.996227 0.0427187 0)
(0.973237 -0.00898952 1.41271e-18)
(0.923221 0.0793576 -1.6081e-18)
(0.927732 0.0636693 1.77984e-18)
(0.965885 0.00124117 -1.79356e-19)
(1.04147 -0.0260318 0)
(1.03726 -0.0254907 9.89617e-19)
(1.03176 -0.0343328 -1.00485e-18)
(0.975628 0.0263654 -5.76871e-20)
(1.00467 0.0310655 4.7846e-19)
(0.980052 0.0648125 0)
(0.988251 0.0543411 -1.75866e-19)
(1.00009 0.0515736 0)
(0.988995 0.0490873 0)
(1.01272 0.0552309 0)
(0.996157 0.0262961 0)
(1.02968 0.0590262 3.51005e-19)
(1.01054 0.0129853 -8.14583e-19)
(0.950501 0.000650274 -3.64358e-19)
(0.991575 0.0212195 -4.11585e-19)
(1.00602 0.0648361 7.92806e-19)
(1.03644 0.0668686 0)
(1.00271 0.045663 0)
(-0.00171834 1.77175 3.44363e-21)
(0.0403836 1.72137 -2.09026e-21)
(-0.0161599 1.76939 0)
(0.0156483 1.78199 -3.57583e-21)
(0.0127521 1.75757 4.74714e-21)
(0.0277408 1.75343 -1.11283e-20)
(0.00269751 1.777 1.07688e-19)
(0.0430035 1.76696 -4.8009e-21)
(0.0484894 1.73318 2.66683e-20)
(-0.0525827 1.7845 -4.56885e-20)
(-0.0292346 1.78237 5.71956e-20)
(0.0421566 1.74715 -5.13079e-21)
(-0.0185053 1.71818 2.32277e-20)
(0.442803 1.81131 -8.02852e-20)
(0.406372 1.74618 1.65868e-19)
(0.728148 1.80614 -1.80648e-19)
(0.598923 1.90075 -1.38173e-19)
(0.632932 1.87698 0)
(0.283701 1.48678 1.82894e-19)
(0.35099 1.47307 2.42099e-19)
(0.211395 1.52425 4.374e-20)
(0.277413 1.53951 -6.05813e-19)
(0.268734 1.50468 5.63457e-19)
(0.258782 1.50961 0)
(0.210739 1.5061 -3.75198e-19)
(0.10433 1.60877 8.12742e-19)
(0.189785 1.60908 -1.51251e-20)
(0.104964 1.613 -1.06359e-18)
(0.551347 1.46057 1.08528e-18)
(0.478965 1.46085 0)
(1.00969 0.0180389 3.45915e-20)
(1.0297 0.0282948 -2.91935e-20)
(0.985174 -0.0622182 -5.38888e-19)
(1.00267 -0.00438854 5.4033e-19)
(0.993974 0.0446046 0)
(0.731115 1.6418 0)
(0.651126 1.54222 0)
(0.822142 1.33992 0)
(0.598934 1.44794 0)
(0.960605 1.57346 4.21277e-20)
(0.93464 1.53699 0)
(0.623408 1.56516 7.5523e-21)
(0.480137 1.53161 0)
(0.550373 1.51343 -7.67848e-19)
(0.562606 1.52029 4.83312e-19)
(0.85399 0.129238 0)
(0.80859 0.134399 1.88559e-19)
(0.889686 0.0865965 1.09203e-18)
(0.853855 0.110557 -3.95686e-19)
(0.846272 0.104905 -1.33801e-18)
(0.995069 0.184354 -1.16073e-18)
(0.894047 0.283155 -3.05778e-20)
(0.833727 0.268119 9.87532e-19)
(0.925418 0.193866 9.29671e-19)
(0.894131 0.13234 -1.4914e-18)
(0.868052 0.221939 1.84705e-19)
(0.790718 0.27139 -4.2965e-19)
(0.857314 0.232399 0)
(0.951393 0.143062 7.23622e-19)
(0.954858 0.170521 0)
(0.947152 0.221845 0)
(1.03858 0.15997 3.93923e-19)
(0.96287 0.199669 -4.41935e-21)
(0.958594 0.172762 -2.2313e-19)
(0.994198 0.174035 0)
(1.00376 0.0567223 7.7243e-19)
(0.998446 0.0181422 9.7642e-19)
(1.01274 0.0545112 -7.40771e-19)
(1.00435 0.0647102 -6.66471e-19)
(0.958955 0.0410987 -1.00351e-18)
(0.948271 0.13961 0)
(0.963961 0.0171729 0)
(0.918488 0.082343 -6.32717e-19)
(0.905421 0.0441403 2.38572e-19)
(1.01244 0.0847057 8.85431e-19)
(1.01146 0.107655 -1.09855e-18)
(0.972356 0.120585 9.62919e-19)
(0.94769 0.140133 0)
(0.976709 0.0842557 0)
(0.977297 0.068137 -4.43731e-19)
(0.991946 0.0771845 -7.33378e-19)
(0.597769 1.57886 2.93098e-19)
(0.577912 1.63786 -3.69878e-19)
(0.792705 1.75233 -4.60396e-19)
(0.805653 2.08556 6.4614e-20)
(0.984711 1.71377 -8.18267e-19)
(0.971329 1.8328 6.41253e-20)
(1.0328 1.68743 -7.55031e-21)
(0.858716 1.96581 -3.1701e-19)
(0.851335 1.84693 6.08353e-19)
(0.791667 2.30094 -3.06467e-20)
(0.964669 2.02756 3.7391e-20)
(0.947838 2.09154 0)
(0.20763 1.10982 -7.58122e-20)
(-0.355447 2.02125 -4.31088e-19)
(0.514924 0.240831 7.09594e-20)
(0.164554 0.491579 -2.95326e-19)
(0.50885 0.377699 3.7986e-19)
(0.47702 0.363926 -6.33565e-19)
(0.435649 0.301129 4.245e-19)
(0.519783 0.337441 -6.25402e-20)
(0.498794 0.329653 2.95495e-19)
(0.772483 0.265052 -3.83929e-19)
(0.682207 0.318732 0)
(0.709212 0.257047 9.2952e-21)
(0.5504 0.47228 3.22471e-19)
(0.523015 0.466734 -1.16418e-18)
(0.474923 0.380187 -4.84037e-20)
(0.502753 0.402325 0)
(0.389945 0.951092 5.31757e-19)
(0.69185 0.934605 6.21589e-19)
(0.589788 0.986873 -7.20355e-19)
(0.688627 0.940904 -2.53281e-19)
(0.866707 0.923113 -7.92823e-20)
(0.855912 0.968887 8.00819e-20)
(0.749512 0.645588 -8.93907e-19)
(0.77217 0.806116 2.38274e-19)
(0.904868 0.821759 0)
(0.861786 0.769481 -3.19618e-19)
(0.888995 0.325285 2.79432e-19)
(1.04282 0.319126 4.49727e-19)
(1.0479 0.246613 4.68394e-19)
(0.882681 0.417964 -5.72118e-19)
(1.02929 0.378036 0)
(0.998049 0.390518 0)
(0.808926 0.374715 1.41244e-20)
(0.757516 0.285794 0)
(0.748942 0.293698 4.49679e-19)
(0.885167 0.267067 -2.75758e-20)
(0.851864 0.429737 2.47255e-18)
(0.771037 0.501366 6.62721e-19)
(0.801316 0.466178 -6.34521e-19)
(0.732859 0.390025 6.65834e-19)
(0.709607 0.436571 3.79848e-19)
(0.660635 0.420252 -3.66747e-19)
(0.978737 0.0548676 8.6679e-19)
(0.98568 -0.0421775 0)
(1.01871 -0.00881578 5.7826e-19)
(0.959479 0.0373245 -1.28806e-18)
(1.01431 -0.0174903 6.24692e-19)
(1.00962 0.0455401 -1.32197e-18)
(1.01457 -0.00450748 0)
(0.983274 -0.0340761 -2.74355e-19)
(1.01064 0.0445311 7.0999e-19)
(0.975401 0.0152316 -3.74139e-19)
(0.969436 -0.0408555 2.6477e-19)
(0.0175928 1.81483 0)
(0.0646862 1.76274 0)
(0.0401046 1.80362 0)
(0.03036 1.81688 0)
(0.0777336 1.77365 1.50774e-19)
(0.0803025 1.77081 -8.1664e-20)
(0.0840071 1.75349 -4.02031e-20)
(0.0839122 1.75504 -5.05955e-20)
(0.0356169 1.7347 -1.58427e-19)
(0.0461356 1.76322 1.16873e-19)
(0.0469548 1.7883 -3.46358e-20)
(0.0416265 1.7892 -5.01374e-20)
(0.0139754 1.7588 -9.46261e-21)
(0.0161386 1.77577 -1.5185e-20)
(0.0952481 1.71151 -1.78819e-19)
(0.117647 1.72646 0)
(0.122167 1.71172 1.30751e-19)
(0.104596 1.78667 8.45984e-20)
(0.142198 1.67229 -1.02774e-19)
(0.144408 1.62244 0)
(0.159083 1.60081 -6.13019e-19)
(0.214858 1.6173 4.23957e-19)
(0.12342 1.66988 -2.58465e-19)
(0.124299 1.67313 1.53378e-19)
(0.0622359 1.60063 0)
(0.0228447 1.72725 -1.45003e-19)
(0.0215664 1.74159 -2.06853e-19)
(-0.00528811 1.7031 0)
(0.0329262 1.76556 -2.25688e-21)
(0.0118354 1.73869 7.10518e-20)
(-0.0100451 1.78904 2.54053e-21)
(0.0121517 1.77975 -4.66342e-20)
(0.00532945 1.77056 -1.43846e-20)
(-0.0181884 1.7439 4.96875e-20)
(0.0354734 1.77816 0)
(-0.00715643 1.7991 0)
(0.0106492 1.7669 3.15549e-20)
(-0.00245563 1.77016 -1.03078e-20)
(-0.0184855 1.79847 0)
(-0.0315222 1.77599 1.9581e-20)
(-0.0216258 1.76502 -4.24415e-20)
(0.959677 0.0707363 0)
(1.0295 0.0944649 -9.23744e-20)
(1.00931 0.00302418 -6.12853e-19)
(0.947596 0.00339247 0)
(1.00029 -8.71911e-06 0)
(1.02737 -0.055325 -3.86046e-20)
(0.959755 -0.0314988 1.07412e-18)
(0.992569 -0.00638165 1.25917e-18)
(0.984357 0.013548 0)
(1.00052 0.000525372 0)
(0.989247 -0.0122067 6.37648e-19)
(0.998594 0.0230658 0)
(0.992072 0.0270816 0)
(-0.0363871 1.7874 0)
(-0.0128137 1.69915 1.27178e-20)
(-0.0353157 1.75932 1.59866e-20)
(-0.0153841 1.75685 0)
(0.0291983 1.67314 2.46209e-20)
(0.0484601 1.74869 3.90101e-21)
(0.0126906 1.78826 0)
(0.430723 1.66726 0)
(0.348279 1.68777 -3.58245e-19)
(0.381505 1.65869 0)
(0.438705 1.762 3.3474e-19)
(0.484598 1.78968 0)
(0.464042 1.79115 -1.04339e-19)
(0.618377 1.50712 -2.27834e-20)
(0.581925 1.46539 -1.25943e-18)
(0.630672 1.44839 1.59236e-18)
(0.525178 1.44825 2.78866e-19)
(0.532516 1.50061 0)
(0.541884 1.49868 0)
(0.556434 1.46442 0)
(0.541347 1.44858 -1.02394e-18)
(0.372613 1.52573 -5.63755e-19)
(0.427695 1.49273 -1.40959e-19)
(0.461292 1.50247 1.15949e-19)
(0.379339 1.48492 0)
(0.449031 1.48106 0)
(0.409223 1.48502 -2.9722e-19)
(0.419007 1.48308 0)
(0.475165 1.49642 0)
(0.32822 1.47755 -7.51499e-19)
(0.369368 1.26309 -5.40199e-20)
(0.584897 1.57734 0)
(0.437802 1.62561 1.1997e-18)
(0.650465 1.14101 -2.33206e-19)
(0.749998 1.19488 0)
(0.708951 1.1639 3.70042e-19)
(0.428074 1.40605 0)
(0.461537 1.24562 0)
(0.824776 1.59986 -4.53251e-19)
(0.76148 1.65897 -3.55618e-19)
(0.660564 1.60773 6.35566e-19)
(0.670594 1.59285 -1.95598e-19)
(0.794773 1.53579 0)
(0.721434 1.51545 2.60458e-19)
(0.894349 1.51653 -3.88512e-19)
(0.833021 1.50312 -2.24688e-20)
(0.589129 1.56454 0)
(0.582283 1.60182 -2.51574e-19)
(0.596228 1.5871 0)
(0.824508 0.203464 0)
(0.817722 0.157477 0)
(0.762087 0.198736 0)
(0.814247 0.22482 -7.18947e-19)
(0.770902 0.226025 4.0354e-19)
(0.924434 0.0183829 -4.90181e-19)
(0.92211 0.0747928 0)
(0.881083 0.0689591 2.13068e-19)
(0.856237 0.0609868 8.62547e-19)
(0.873837 0.0246643 -5.37358e-19)
(0.667341 2.53656 -3.41559e-19)
(0.703386 2.44196 0)
(0.694922 2.68381 -1.10661e-18)
(0.1539 2.91174 8.60135e-19)
(0.19969 2.55108 1.92039e-20)
(-0.130193 1.50178 6.65623e-19)
(0.0483057 1.63959 0)
(-0.241739 0.605788 -2.46947e-20)
(-0.0571876 0.723992 8.46618e-19)
(0.171889 0.129555 -5.06202e-20)
(0.424953 0.409237 -8.42144e-24)
(0.557303 0.45892 3.5441e-19)
(0.567649 0.464792 0)
(0.343826 0.564162 0)
(0.364607 0.485302 0)
(0.854724 0.663618 2.23969e-19)
(0.775158 0.526451 -6.42448e-19)
(0.815502 0.608788 5.59174e-19)
(0.844299 0.494696 -5.06833e-19)
(1.06135 0.497213 0)
(1.00589 0.60894 -1.581e-19)
(0.746505 0.34946 -8.971e-19)
(0.731399 0.337345 -1.17707e-18)
(0.658991 0.42208 7.05143e-19)
(0.704555 0.351815 -6.87706e-19)
(0.75563 0.303216 -5.56038e-19)
(0.73655 0.323081 6.81197e-19)
(1.01827 -0.00560974 -6.52183e-19)
(1.02599 0.00542654 1.35545e-18)
(1.0097 0.0621737 8.16088e-19)
(1.02114 0.02261 -9.84187e-19)
(0.925652 0.00800648 0)
(0.912676 -0.00557716 -1.69817e-18)
(0.0594666 1.73786 4.1208e-20)
(0.0308539 1.74241 0)
(0.0498057 1.76268 2.70077e-19)
(0.0476338 1.76756 -2.438e-19)
(0.0366763 1.69745 7.2449e-20)
(0.0442464 1.71648 0)
(0.0741861 1.76494 0)
(0.014494 1.79488 -3.76328e-21)
(-0.00928397 1.66923 3.47585e-21)
(0.0128883 1.66175 8.56805e-21)
(0.0280248 1.76061 -2.97117e-20)
(0.0597469 1.74045 2.77919e-20)
(0.520529 1.60494 -7.95448e-19)
(0.502376 1.61683 8.51473e-19)
(0.507924 1.68769 -2.33885e-19)
(0.511353 1.64912 3.5191e-20)
(0.712825 1.63966 0)
(0.552141 1.77233 -5.51621e-21)
(0.588757 1.7396 5.25789e-21)
(0.551226 1.75028 2.3365e-19)
(0.598751 1.67201 0)
(0.626047 1.59649 0)
(0.395838 1.51142 8.25016e-19)
(0.302895 1.48672 1.34982e-18)
(0.365989 1.47665 -9.13324e-19)
(0.253365 1.50986 -1.57531e-19)
(0.334593 1.51394 2.9963e-19)
(0.237205 1.49764 -7.3358e-19)
(0.68692 1.47412 -8.48119e-19)
(0.785277 1.49275 0)
(0.746546 1.47215 -8.61938e-19)
(0.67045 1.49091 0)
(0.661868 1.48323 0)
(-0.107684 2.27008 -3.41189e-19)
(0.41805 2.15926 -1.91212e-19)
(0.332473 2.32011 2.36408e-19)
(-0.405831 1.62463 0)
(-0.487202 1.38298 -2.31141e-19)
(-0.33829 1.48195 -5.37694e-19)
(-0.227462 2.37782 0)
(-0.315029 2.57615 -1.18451e-20)
(-0.288137 2.75532 0)
(0.380983 0.713406 -1.11869e-18)
(0.591401 0.806974 1.42202e-18)
(0.632251 0.687364 -1.33743e-18)
(0.373968 0.604011 -1.24043e-19)
(0.525858 0.545652 -4.75713e-19)
(0.500915 2.08508 1.4263e-19)
(0.579869 1.89904 -5.26862e-19)
(0.223156 2.05081 1.19941e-18)
(0.388108 1.90083 -8.47508e-19)
(0.550241 1.70291 -8.34924e-19)
(0.632741 1.78843 -1.50346e-19)
(0.646245 1.76174 6.68665e-19)
(0.528555 1.88546 5.11015e-20)
(0.500903 1.76739 3.67048e-19)
)
;

boundaryField
{
    wall-4
    {
        type            noSlip;
    }
    velocity-inlet-5
    {
        type            fixedValue;
        value           uniform (1 0 0);
    }
    velocity-inlet-6
    {
        type            fixedValue;
        value           uniform (0 3 0);
    }
    pressure-outlet-7
    {
        type            zeroGradient;
    }
    wall-8
    {
        type            noSlip;
    }
    frontAndBackPlanes
    {
        type            empty;
    }
}


// ************************************************************************* //
