/*--------------------------------*- C++ -*----------------------------------*\
| =========                 |                                                 |
| \\      /  F ield         | OpenFOAM: The Open Source CFD Toolbox           |
|  \\    /   O peration     | Version:  4.0                                   |
|   \\  /    A nd           | Web:      www.OpenFOAM.org                      |
|    \\/     M anipulation  |                                                 |
\*---------------------------------------------------------------------------*/
FoamFile
{
    version     2.0;
    format      ascii;
    class       volVectorField;
    location    "64";
    object      U;
}
// * * * * * * * * * * * * * * * * * * * * * * * * * * * * * * * * * * * * * //

dimensions      [0 1 -1 0 0 0 0];

internalField   nonuniform List<vector> 
8800
(
(0.980138 -0.0915204 0)
(1.00234 -0.05873 0)
(0.999582 -0.0321287 0)
(0.99998 -0.0165217 0)
(1.00008 -0.0088417 0)
(1.0001 -0.00509775 0)
(1.00006 -0.00299416 0)
(1.00002 -0.0016827 0)
(0.999999 -0.000780032 0)
(1.00006 -7.99468e-05 0)
(0.999984 0.000629933 0)
(0.999993 0.00138725 0)
(1.00002 0.00241077 0)
(1.00005 0.00400904 0)
(1.00004 0.00675136 0)
(0.999996 0.0120516 0)
(0.9998 0.0230948 0)
(0.999032 0.0431557 0)
(1.00724 0.0790251 0)
(0.775026 0.0478395 0)
(0.358995 -0.0147481 0)
(1.04651 -0.0724793 0)
(1.08847 -0.0660158 0)
(1.04944 -0.0509081 0)
(1.02555 -0.0376863 0)
(1.01276 -0.02588 0)
(1.00659 -0.0166822 0)
(1.00364 -0.0101892 0)
(1.00219 -0.00555446 0)
(1.00151 -0.0019566 0)
(1.00138 0.00125879 0)
(1.00172 0.00457024 0)
(1.0027 0.00845898 0)
(1.00475 0.0137648 0)
(1.00898 0.0214345 0)
(1.01794 0.0319204 0)
(1.03579 0.0446892 0)
(1.06741 0.0581282 0)
(1.09468 0.0699524 0)
(0.845611 0.0555088 0)
(0.217812 -0.00137994 0)
(1.07569 -0.0506368 0)
(1.09942 -0.0489163 0)
(1.0644 -0.0399964 0)
(1.03993 -0.0325336 0)
(1.02384 -0.0253149 0)
(1.01405 -0.0180877 0)
(1.00853 -0.0114578 0)
(1.00566 -0.00569344 0)
(1.00448 -0.000396643 0)
(1.00478 0.00471746 0)
(1.00662 0.0100062 0)
(1.01057 0.0159677 0)
(1.01789 0.0227095 0)
(1.03048 0.029802 0)
(1.05046 0.0368809 0)
(1.08002 0.0446502 0)
(1.10563 0.0519666 0)
(0.943218 0.0410232 0)
(0.217154 0.00140662 0)
(0.176685 -0.000627891 0)
(1.01946 -0.0354426 0)
(1.10574 -0.0413778 0)
(1.07801 -0.0363552 0)
(1.0525 -0.0303036 0)
(1.03528 -0.0244184 0)
(1.02341 -0.0186112 0)
(1.01558 -0.0126005 0)
(1.01096 -0.00649284 0)
(1.0089 -0.000246078 0)
(1.00942 0.00591508 0)
(1.01248 0.0118294 0)
(1.01846 0.0175853 0)
(1.02805 0.023141 0)
(1.04222 0.0286752 0)
(1.06304 0.0344431 0)
(1.09382 0.0403172 0)
(1.09437 0.0418275 0)
(0.830071 0.0227973 0)
(0.175561 0.000649329 0)
(0.154797 -0.000461608 0)
(0.958299 -0.0256643 0)
(1.10447 -0.0350706 0)
(1.08814 -0.0326112 0)
(1.06134 -0.0280952 0)
(1.0433 -0.023121 0)
(1.0309 -0.0178036 0)
(1.02228 -0.0122451 0)
(1.01671 -0.00631881 0)
(1.01403 0.000146752 0)
(1.01464 0.00660991 0)
(1.0184 0.0124807 0)
(1.0252 0.0177803 0)
(1.03534 0.0227613 0)
(1.05004 0.027567 0)
(1.07197 0.0319906 0)
(1.10093 0.0358522 0)
(1.06956 0.0340383 0)
(0.742302 0.0144796 0)
(0.153111 0.000485691 0)
(0.140138 -0.000333391 0)
(0.901367 -0.0192944 0)
(1.09692 -0.0301651 0)
(1.09631 -0.0292728 0)
(1.06908 -0.0254786 0)
(1.05025 -0.0213789 0)
(1.03726 -0.0166609 0)
(1.02825 -0.0113913 0)
(1.02228 -0.00564923 0)
(1.01926 0.000721286 0)
(1.01984 0.00709854 0)
(1.0238 0.0127456 0)
(1.03084 0.0177053 0)
(1.04134 0.0221423 0)
(1.05667 0.0260678 0)
(1.07945 0.0295637 0)
(1.10319 0.0322581 0)
(1.03768 0.0282202 0)
(0.675355 0.0103401 0)
(0.137762 0.000362024 0)
(0.12943 -0.000251819 0)
(0.851589 -0.0148928 0)
(1.08463 -0.0260547 0)
(1.10203 -0.0263817 0)
(1.07594 -0.0230468 0)
(1.0566 -0.0193749 0)
(1.04318 -0.015157 0)
(1.0338 -0.0102708 0)
(1.02754 -0.00474866 0)
(1.02429 0.0014378 0)
(1.02474 0.00759884 0)
(1.02871 0.0129629 0)
(1.0359 0.017498 0)
(1.04668 0.0213257 0)
(1.06237 0.0246495 0)
(1.0856 0.0276646 0)
(1.10236 0.0294531 0)
(1.00287 0.0237011 0)
(0.623148 0.00794521 0)
(0.12621 0.000286607 0)
(0.121277 -0.000192882 0)
(0.809203 -0.0117031 0)
(1.06939 -0.0224505 0)
(1.1056 -0.0237384 0)
(1.08222 -0.0208534 0)
(1.06243 -0.0174063 0)
(1.04873 -0.0134691 0)
(1.03909 -0.00890312 0)
(1.03256 -0.00365346 0)
(1.02906 0.00230167 0)
(1.02934 0.00819421 0)
(1.03325 0.0132025 0)
(1.04049 0.0172749 0)
(1.05136 0.0206246 0)
(1.0673 0.0235526 0)
(1.09091 0.0262501 0)
(1.09864 0.0271259 0)
(0.967607 0.0201526 0)
(0.581188 0.00638632 0)
(0.117032 0.000235098 0)
(0.114966 -0.00014812 0)
(0.773491 -0.00931468 0)
(1.05262 -0.0192755 0)
(1.10799 -0.0212938 0)
(1.08812 -0.0187889 0)
(1.06791 -0.015501 0)
(1.05396 -0.0117302 0)
(1.04413 -0.00736424 0)
(1.03736 -0.00235233 0)
(1.0336 0.00334327 0)
(1.03365 0.00892575 0)
(1.03743 0.0135556 0)
(1.0446 0.0172242 0)
(1.05548 0.0201917 0)
(1.07165 0.0227868 0)
(1.09495 0.0251352 0)
(1.09209 0.0252013 0)
(0.933241 0.0174109 0)
(0.546462 0.00531932 0)
(0.109474 0.000199352 0)
(0.110048 -0.000112723 0)
(0.743528 -0.00746304 0)
(1.03539 -0.0164579 0)
(1.10942 -0.018993 0)
(1.09373 -0.0167991 0)
(1.07322 -0.0136091 0)
(1.05899 -0.00993579 0)
(1.04895 -0.00569324 0)
(1.04197 -0.000850703 0)
(1.03792 0.00459667 0)
(1.03768 0.00985591 0)
(1.04123 0.0141238 0)
(1.04826 0.0174313 0)
(1.05913 0.0200486 0)
(1.07551 0.0223522 0)
(1.09769 0.024328 0)
(1.08308 0.023627 0)
(0.900357 0.0153276 0)
(0.516901 0.00457621 0)
(0.103042 0.000174815 0)
(0.106233 -8.34688e-05 0)
(0.718494 -0.00597151 0)
(1.01853 -0.013927 0)
(1.11003 -0.0167685 0)
(1.09922 -0.0148564 0)
(1.07844 -0.0116841 0)
(1.06391 -0.00804594 0)
(1.05365 -0.0038679 0)
(1.04641 0.000862225 0)
(1.04204 0.00610208 0)
(1.04143 0.0110612 0)
(1.04467 0.014989 0)
(1.05152 0.0179498 0)
(1.06235 0.0202279 0)
(1.07892 0.0222675 0)
(1.09908 0.0238414 0)
(1.072 0.0223974 0)
(0.86908 0.0137888 0)
(0.491032 0.00406492 0)
(0.0973866 0.000158873 0)
(0.103328 -5.81581e-05 0)
(0.697744 -0.00472171 0)
(1.00266 -0.0116162 0)
(1.10996 -0.014582 0)
(1.10457 -0.0128716 0)
(1.08366 -0.00966784 0)
(1.0688 -0.00600662 0)
(1.05828 -0.0018327 0)
(1.05073 0.0028354 0)
(1.04596 0.0079152 0)
(1.04491 0.0126037 0)
(1.04778 0.0162049 0)
(1.0544 0.0188256 0)
(1.06517 0.0207668 0)
(1.08188 0.0225501 0)
(1.09945 0.0237171 0)
(1.05912 0.0215233 0)
(0.839253 0.0127054 0)
(0.467757 0.00372871 0)
(0.0922447 0.000149698 0)
(0.101212 -3.48621e-05 0)
(0.680805 -0.0036254 0)
(0.988234 -0.00945596 0)
(1.10941 -0.0123503 0)
(1.10972 -0.0107597 0)
(1.08896 -0.00750525 0)
(1.07375 -0.00376283 0)
(1.0629 0.000471494 0)
(1.05498 0.00513233 0)
(1.04972 0.010104 0)
(1.04813 0.0145519 0)
(1.05055 0.0178358 0)
(1.0569 0.0201194 0)
(1.06758 0.0217189 0)
(1.08435 0.0232316 0)
(1.09881 0.0239733 0)
(1.0446 0.021022 0)
(0.810554 0.0120063 0)
(0.446214 0.00352951 0)
(0.0874126 0.000145888 0)
(0.0998222 -1.18533e-05 0)
(0.667369 -0.00261293 0)
(0.97562 -0.00737145 0)
(1.10871 -0.010012 0)
(1.11482 -0.00845873 0)
(1.09441 -0.00511793 0)
(1.07881 -0.00123039 0)
(1.06759 0.00312493 0)
(1.05921 0.00784139 0)
(1.05335 0.0127529 0)
(1.05111 0.016981 0)
(1.053 0.0199505 0)
(1.05902 0.0218875 0)
(1.06958 0.0231266 0)
(1.08636 0.0243774 0)
(1.09694 0.0246603 0)
(1.0285 0.020877 0)
(0.782556 0.0116352 0)
(0.425702 0.00344096 0)
(0.0827259 0.000146344 0)
(0.0991409 1.28695e-05 0)
(0.657281 -0.00163034 0)
(0.965131 -0.00529125 0)
(1.10817 -0.0075044 0)
(1.12 -0.00589493 0)
(1.1001 -0.00241782 0)
(1.08408 0.00167982 0)
(1.07241 0.00622189 0)
(1.06347 0.0110623 0)
(1.05688 0.0159621 0)
(1.05385 0.0199902 0)
(1.05509 0.0226413 0)
(1.06073 0.0242195 0)
(1.07113 0.0250809 0)
(1.08784 0.0260334 0)
(1.09376 0.0258072 0)
(1.0108 0.0211248 0)
(0.754793 0.0115645 0)
(0.405638 0.00344879 0)
(0.0780498 0.00015059 0)
(0.0991884 3.50618e-05 0)
(0.650508 -0.000630884 0)
(0.957067 -0.00314229 0)
(1.10814 -0.00475505 0)
(1.12542 -0.00298608 0)
(1.10613 0.000685033 0)
(1.08964 0.00506635 0)
(1.07743 0.00987518 0)
(1.0678 0.0149108 0)
(1.06034 0.0198529 0)
(1.05636 0.0237043 0)
(1.05684 0.0260267 0)
(1.062 0.0272189 0)
(1.07223 0.0276834 0)
(1.08856 0.0282686 0)
(1.0891 0.0274267 0)
(0.991336 0.0217931 0)
(0.726727 0.011777 0)
(0.385485 0.00354379 0)
(0.0732612 0.000158203 0)
(0.1 7.15766e-05 0)
(0.647126 0.000396954 0)
(0.951748 -0.00085192 0)
(1.10898 -0.00167786 0)
(1.13128 0.000372127 0)
(1.1126 0.00431998 0)
(1.0956 0.00907521 0)
(1.08274 0.0142342 0)
(1.07228 0.0195377 0)
(1.06374 0.0245669 0)
(1.05864 0.0282445 0)
(1.0582 0.0302176 0)
(1.06279 0.0310075 0)
(1.0728 0.0310451 0)
(1.08839 0.031213 0)
(1.08267 0.0296194 0)
(0.969837 0.0229115 0)
(0.697782 0.0122628 0)
(0.364748 0.00371802 0)
(0.0682521 0.000168587 0)
(0.10179 0.000101954 0)
(0.647523 0.0015608 0)
(0.949525 0.0016665 0)
(1.11113 0.0018375 0)
(1.1378 0.00426729 0)
(1.11967 0.00862811 0)
(1.10208 0.0138539 0)
(1.08843 0.01946 0)
(1.07695 0.025113 0)
(1.06712 0.0302737 0)
(1.06065 0.0337766 0)
(1.05914 0.0353624 0)
(1.06306 0.0357206 0)
(1.07278 0.035298 0)
(1.08708 0.034983 0)
(1.07421 0.0324714 0)
(0.945915 0.0245235 0)
(0.667327 0.0130204 0)
(0.342953 0.00396672 0)
(0.0629253 0.000181354 0)
(0.104612 0.000149754 0)
(0.652111 0.00300809 0)
(0.95089 0.00457316 0)
(1.11506 0.00589051 0)
(1.14518 0.00887615 0)
(1.12748 0.0137891 0)
(1.1092 0.0196038 0)
(1.0946 0.0257691 0)
(1.08187 0.0318548 0)
(1.07047 0.0371862 0)
(1.06238 0.0404898 0)
(1.05961 0.0416231 0)
(1.06273 0.0415157 0)
(1.07209 0.040585 0)
(1.08446 0.0397218 0)
(1.06336 0.0360859 0)
(0.919055 0.0266644 0)
(0.634686 0.0140421 0)
(0.31965 0.00428112 0)
(0.0571979 0.000195613 0)
(0.108745 0.000212402 0)
(0.661362 0.00469502 0)
(0.956299 0.0080079 0)
(1.12127 0.0106707 0)
(1.15371 0.0144042 0)
(1.13625 0.0200512 0)
(1.11714 0.0265984 0)
(1.10135 0.0334421 0)
(1.08707 0.0400351 0)
(1.07377 0.0455417 0)
(1.06378 0.048584 0)
(1.05957 0.0492018 0)
(1.06173 0.0485644 0)
(1.07066 0.0470504 0)
(1.08058 0.0455894 0)
(1.04964 0.0405717 0)
(0.888585 0.0293616 0)
(0.599126 0.0153119 0)
(0.294414 0.00464839 0)
(0.0510066 0.000210213 0)
(0.114528 0.000296281 0)
(0.676014 0.00678683 0)
(0.966382 0.0121675 0)
(1.13035 0.0164127 0)
(1.16376 0.0211114 0)
(1.14624 0.0277213 0)
(1.12607 0.0351674 0)
(1.10879 0.0428189 0)
(1.09259 0.0499742 0)
(1.07699 0.0556188 0)
(1.06477 0.0582964 0)
(1.05883 0.0582649 0)
(1.05997 0.0570467 0)
(1.06842 0.0548961 0)
(1.07521 0.0527187 0)
(1.03243 0.0460115 0)
(0.853694 0.0326172 0)
(0.559892 0.0167904 0)
(0.266892 0.00504552 0)
(0.044323 0.000223414 0)
(0.122466 0.000417746 0)
(0.697042 0.00953136 0)
(0.982017 0.0173641 0)
(1.14293 0.0234671 0)
(1.1758 0.0293967 0)
(1.15774 0.0372561 0)
(1.13619 0.0457914 0)
(1.11698 0.054364 0)
(1.09839 0.0620828 0)
(1.08004 0.067748 0)
(1.06523 0.0698801 0)
(1.05732 0.0690453 0)
(1.05735 0.0671149 0)
(1.06531 0.0642498 0)
(1.068 0.0612103 0)
(1.01092 0.0524655 0)
(0.813428 0.036391 0)
(0.516253 0.0184046 0)
(0.23685 0.00543763 0)
(0.0371673 0.000232938 0)
(0.133283 0.000589509 0)
(0.725678 0.0132955 0)
(1.00437 0.0240717 0)
(1.15981 0.0323844 0)
(1.19044 0.0398729 0)
(1.17111 0.0493528 0)
(1.14765 0.0591615 0)
(1.12593 0.0686942 0)
(1.10435 0.0768524 0)
(1.08272 0.0822816 0)
(1.06498 0.0835886 0)
(1.05495 0.0817548 0)
(1.05376 0.0789689 0)
(1.06101 0.0752364 0)
(1.05827 0.0711883 0)
(0.984083 0.0599258 0)
(0.766721 0.0405649 0)
(0.467593 0.02003 0)
(0.204261 0.00577449 0)
(0.0296282 0.000236074 0)
(0.148238 0.000866616 0)
(0.763955 0.0186949 0)
(1.03511 0.033082 0)
(1.18194 0.0441098 0)
(1.20845 0.0536643 0)
(1.18666 0.0650308 0)
(1.16049 0.0762113 0)
(1.13547 0.0865745 0)
(1.1102 0.0948397 0)
(1.08476 0.0995815 0)
(1.06378 0.099645 0)
(1.05152 0.0965349 0)
(1.04908 0.0927375 0)
(1.05516 0.0881635 0)
(1.04529 0.082633 0)
(0.950586 0.0682478 0)
(0.71251 0.0449067 0)
(0.413601 0.0214791 0)
(0.169428 0.00599025 0)
(0.0218833 0.000229715 0)
(0.169537 0.0013457 0)
(0.815147 0.0268963 0)
(1.0768 0.045964 0)
(1.21045 0.0605 0)
(1.2304 0.0728084 0)
(1.20448 0.0858951 0)
(1.17447 0.0982524 0)
(1.14518 0.108937 0)
(1.11549 0.11664 0)
(1.08577 0.119984 0)
(1.06135 0.118217 0)
(1.04685 0.11348 0)
(1.04318 0.108497 0)
(1.04773 0.10304 0)
(1.02798 0.0955386 0)
(0.908816 0.0770924 0)
(0.649996 0.0490454 0)
(0.354604 0.0225152 0)
(0.133157 0.006014 0)
(0.0142215 0.000210346 0)
(0.200592 0.00240901 0)
(0.885008 0.0406127 0)
(1.13311 0.0665759 0)
(1.24576 0.0851304 0)
(1.25605 0.100047 0)
(1.22396 0.114319 0)
(1.18877 0.126893 0)
(1.15423 0.136768 0)
(1.1195 0.14279 0)
(1.08519 0.143723 0)
(1.05733 0.139378 0)
(1.04071 0.132588 0)
(1.03593 0.126196 0)
(1.03832 0.119667 0)
(1.00487 0.109584 0)
(0.856883 0.0858178 0)
(0.579206 0.0524679 0)
(0.292286 0.022961 0)
(0.0971473 0.00583195 0)
(0.00714011 0.000177765 0)
(0.242906 0.00867489 4.289e-20)
(0.977663 0.0679767 3.7527e-20)
(1.2018 0.101098 -1.31589e-20)
(1.28482 0.121595 0)
(1.28262 0.138977 -3.40305e-34)
(1.24295 0.152618 4.98623e-21)
(1.20181 0.163634 -9.04227e-21)
(1.16152 0.171287 0)
(1.1214 0.17454 1.87072e-34)
(1.08225 0.172259 -1.13072e-20)
(1.05073 0.164843 0)
(1.03188 0.155809 -1.34837e-20)
(1.02619 0.148152 -3.98163e-20)
(1.02562 0.141369 -1.88244e-20)
(0.972085 0.127272 -5.67127e-21)
(0.788799 0.0959688 -3.37111e-21)
(0.494929 0.0555979 0)
(0.224972 0.0232072 2.35686e-21)
(0.0613967 0.00574282 2.78242e-21)
(0.000607637 0.000151942 5.01684e-20)
(0.272561 0.024216 3.02229e-20)
(1.05414 0.110732 5.40106e-22)
(1.25848 0.150288 3.45605e-21)
(1.31971 0.170992 0)
(1.30591 0.188179 -1.71001e-20)
(1.25921 0.199627 -1.95199e-20)
(1.21217 0.208311 -9.08355e-21)
(1.16604 0.213459 -3.25379e-20)
(1.12031 0.213897 0)
(1.07589 0.208447 4.80879e-20)
(1.04023 0.198038 4.77907e-20)
(1.01885 0.186751 1.42155e-20)
(1.01112 0.177275 5.19559e-20)
(1.00257 0.168058 7.31524e-20)
(0.920661 0.147941 0)
(0.697126 0.106641 1.03124e-19)
(0.395985 0.0583329 1.47851e-19)
(0.155064 0.0227236 1.64153e-19)
(0.0255562 0.00441218 -1.87631e-19)
(-0.00612174 -0.000496855 -3.53454e-21)
(0.273585 0.0400835 0)
(1.10243 0.16614 5.04701e-21)
(1.29657 0.210809 0)
(1.34676 0.230952 -2.14959e-20)
(1.32415 0.245062 0)
(1.27155 0.252637 -3.80223e-20)
(1.21899 0.257581 1.84773e-20)
(1.16734 0.259119 -6.51841e-20)
(1.11626 0.255881 -1.58138e-21)
(1.0668 0.246638 2.48171e-20)
(1.02718 0.232812 1.05125e-19)
(1.00333 0.21898 -2.27453e-22)
(0.993244 0.207497 -3.77504e-20)
(0.976479 0.195418 -6.88669e-20)
(0.87431 0.168337 8.15024e-20)
(0.632029 0.116686 -1.44306e-19)
(0.338997 0.060948 -1.90451e-20)
(0.119677 0.0220395 0)
(0.00815306 0.00239356 -1.08666e-23)
(-0.00963084 -0.00136341 0)
(0.267122 0.0538079 5.83615e-20)
(1.12839 0.224832 -2.96375e-20)
(1.31998 0.27578 -2.43006e-20)
(1.36465 0.296082 9.94886e-21)
(1.33593 0.306272 -1.68364e-20)
(1.2789 0.309316 7.94582e-20)
(1.22178 0.309835 3.84501e-20)
(1.16536 0.307119 0)
(1.10949 0.29966 -1.23754e-19)
(1.05541 0.286149 0)
(1.01206 0.268542 -5.50912e-20)
(0.98578 0.251906 -6.82485e-20)
(0.973315 0.238118 -4.1106e-20)
(0.949879 0.222558 -5.00092e-20)
(0.83634 0.188709 0)
(0.590271 0.128202 0)
(0.309685 0.0659471 -1.23938e-19)
(0.102785 0.0224048 2.4464e-20)
(-0.00131343 0.000352933 -1.43275e-20)
(-0.0121229 -0.00238278 -1.6758e-20)
(0.259403 0.0659235 -1.74616e-20)
(1.13967 0.283345 0)
(1.33275 0.341645 4.65141e-20)
(1.37434 0.362603 2.72573e-20)
(1.34135 0.368964 3.94313e-20)
(1.28109 0.367448 0)
(1.22039 0.363424 3.73005e-20)
(1.16003 0.356261 7.18904e-20)
(1.10005 0.344357 6.31928e-20)
(1.0418 0.326353 1.16993e-19)
(0.994973 0.30476 0)
(0.966303 0.28515 -1.47191e-19)
(0.951483 0.268916 -8.88038e-20)
(0.923032 0.249971 -5.25434e-20)
(0.804935 0.210093 3.21972e-19)
(0.564082 0.141952 3.82497e-20)
(0.29638 0.0733112 1.79586e-19)
(0.0978131 0.0241248 -8.4998e-19)
(-0.00454479 -0.00113595 5.02409e-19)
(-0.0134992 -0.00335959 -6.05344e-19)
(0.251953 0.0768378 -1.00598e-21)
(1.14154 0.339812 2.94963e-21)
(1.33778 0.406492 -4.24755e-21)
(1.37744 0.428618 -2.51378e-20)
(1.34137 0.431385 -3.18466e-20)
(1.2787 0.425487 1.80281e-21)
(1.21517 0.417073 -4.04661e-20)
(1.15156 0.405537 7.41429e-20)
(1.08802 0.389211 -1.36062e-19)
(1.02606 0.366687 0)
(0.97602 0.341058 -6.65755e-20)
(0.944999 0.318382 -1.60424e-21)
(0.9279 0.29962 -9.72803e-20)
(0.895996 0.277349 0)
(0.778044 0.232352 -6.9807e-20)
(0.54718 0.157694 -1.65625e-19)
(0.292895 0.0829823 4.40781e-19)
(0.100423 0.0277007 -4.34418e-19)
(-0.00276632 -0.00144803 6.16518e-19)
(-0.013643 -0.00407067 -6.40632e-19)
(0.245629 0.0868997 -4.1654e-22)
(1.13753 0.393576 1.281e-21)
(1.33722 0.469324 -7.6247e-21)
(1.37537 0.492912 8.88605e-21)
(1.33704 0.49248 -1.5817e-20)
(1.27255 0.482492 0)
(1.20673 0.46995 -3.7101e-20)
(1.1404 0.454245 -7.75227e-20)
(1.07379 0.43365 -7.05979e-20)
(1.00852 0.40671 0)
(0.955482 0.377071 -6.90202e-20)
(0.922169 0.35132 -8.58195e-20)
(0.902894 0.330099 1.05651e-19)
(0.868557 0.304818 -6.41955e-20)
(0.753531 0.25512 -3.05465e-19)
(0.534473 0.174961 1.8127e-19)
(0.293459 0.0942368 5.3718e-20)
(0.106793 0.0329557 0)
(0.00233625 -0.000342371 -5.97395e-19)
(-0.0127349 -0.00441742 -2.19259e-20)
(0.240547 0.0964221 3.0988e-21)
(1.12997 0.444452 -4.15474e-21)
(1.33259 0.529675 2.74484e-21)
(1.36937 0.55479 3.35965e-20)
(1.32932 0.55159 -5.60951e-20)
(1.26344 0.537885 7.21042e-20)
(1.19578 0.521522 8.00335e-20)
(1.12714 0.501912 -1.23881e-19)
(1.05782 0.477283 4.40086e-20)
(0.989505 0.446099 -2.88034e-19)
(0.933666 0.412545 -7.83014e-20)
(0.898178 0.383809 0)
(0.876872 0.360194 1.14792e-19)
(0.84076 0.331943 1.3781e-19)
(0.729759 0.278021 1.64864e-19)
(0.522699 0.193042 -1.97432e-19)
(0.294904 0.106525 -5.83685e-20)
(0.11415 0.0396276 6.85727e-20)
(0.00901508 0.00198885 0)
(-0.0111484 -0.00438412 -4.77117e-20)
(0.236629 0.10557 -5.58591e-20)
(1.1205 0.492553 2.93262e-20)
(1.32514 0.587384 -1.26931e-21)
(1.36047 0.613928 1.86833e-20)
(1.31902 0.608321 -2.38569e-20)
(1.25208 0.591269 -4.09321e-21)
(1.18291 0.571437 -8.77671e-20)
(1.11228 0.548238 -4.4909e-20)
(1.04052 0.51984 -1.229e-19)
(0.969405 0.484633 3.2121e-22)
(0.910932 0.447326 -2.45202e-19)
(0.873393 0.415719 2.07867e-19)
(0.8502 0.389725 -1.2646e-19)
(0.812693 0.358647 1.52262e-19)
(0.705585 0.300598 0)
(0.509826 0.21131 -1.0759e-19)
(0.294593 0.119207 2.11005e-22)
(0.120666 0.0471541 -3.0009e-19)
(0.0158819 0.00516546 -4.40247e-20)
(-0.00921718 -0.00405229 0)
(0.23375 0.114492 0)
(1.11009 0.538103 3.48037e-20)
(1.31576 0.642749 8.78384e-21)
(1.34948 0.670179 -1.52466e-20)
(1.30683 0.662466 -3.21743e-20)
(1.23907 0.642427 0)
(1.16864 0.61947 -3.90395e-20)
(1.09628 0.593013 -1.04854e-21)
(1.02231 0.561154 2.6365e-19)
(0.948574 0.522176 -3.9522e-20)
(0.887591 0.481282 -1.77255e-19)
(0.848097 0.446834 1.08019e-19)
(0.823144 0.418465 -2.23742e-21)
(0.784321 0.3845 1.62136e-19)
(0.680223 0.322541 9.99019e-20)
(0.495149 0.22895 -2.32525e-19)
(0.291312 0.131639 2.75268e-19)
(0.124744 0.0548023 8.15461e-20)
(0.0216189 0.00868479 3.35949e-19)
(-0.00730388 -0.0035356 -8.97176e-19)
(0.231845 0.123328 -2.05808e-20)
(1.09944 0.581291 2.65876e-20)
(1.30511 0.695147 -1.69183e-20)
(1.337 0.723515 8.20549e-21)
(1.29331 0.713928 0)
(1.2249 0.691228 -3.12795e-20)
(1.15343 0.665492 1.32282e-19)
(1.07954 0.636111 9.8275e-20)
(1.00354 0.601108 0)
(0.927287 0.558638 -5.70894e-19)
(0.863863 0.514286 4.80279e-19)
(0.822497 0.477 0)
(0.795924 0.446254 1.48193e-19)
(0.755808 0.409328 -2.2386e-21)
(0.654088 0.343165 -3.20355e-19)
(0.478455 0.245091 1.25216e-19)
(0.284996 0.143066 0)
(0.125675 0.0617593 4.4059e-19)
(0.0253984 0.0118676 0)
(-0.00572919 -0.00301393 -4.25337e-19)
(0.230755 0.132155 2.52959e-20)
(1.08897 0.622322 3.62927e-20)
(1.29365 0.744678 -1.62816e-20)
(1.32352 0.773942 0)
(1.27893 0.762685 -2.45923e-20)
(1.21001 0.737632 0)
(1.13766 0.709431 -1.29174e-19)
(1.0624 0.677458 -4.50292e-20)
(0.984498 0.639642 4.63212e-20)
(0.905806 0.593969 -2.82586e-19)
(0.83994 0.546287 4.95381e-20)
(0.796739 0.50618 0)
(0.76865 0.472995 -3.16751e-19)
(0.727192 0.432837 2.17899e-21)
(0.627138 0.362082 0)
(0.459528 0.259309 1.21265e-21)
(0.275633 0.152632 4.03389e-19)
(0.123354 0.0672095 -3.80679e-19)
(0.02685 0.0141855 1.12374e-19)
(-0.00466187 -0.002616 0)
(0.230161 0.14086 0)
(1.07896 0.661285 4.48791e-20)
(1.28164 0.791498 2.66452e-20)
(1.30948 0.82151 -2.52586e-21)
(1.26405 0.808764 -5.94131e-21)
(1.19472 0.781634 -7.04808e-20)
(1.12163 0.75127 4.89012e-20)
(1.04514 0.717023 -5.37691e-20)
(0.965448 0.67672 2.07609e-19)
(0.884344 0.628156 -4.52225e-19)
(0.815978 0.577301 -4.05187e-21)
(0.77093 0.534403 -1.38387e-19)
(0.741341 0.498567 5.14535e-19)
(0.698435 0.454758 -2.59194e-21)
(0.599531 0.378922 -2.49152e-19)
(0.438767 0.271062 -4.43132e-19)
(0.26355 0.160014 0)
(0.118439 0.0707767 0)
(0.0263752 0.0153925 1.21261e-19)
(-0.00406504 -0.00243296 -7.11582e-20)
(0.230258 0.149566 3.6841e-20)
(1.06953 0.69807 -1.03227e-19)
(1.26938 0.835703 -2.86441e-20)
(1.29518 0.86629 0)
(1.24896 0.852222 -1.51471e-21)
(1.17933 0.823263 -6.19511e-20)
(1.10562 0.79102 1.16452e-19)
(1.02801 0.7548 2.10148e-19)
(0.946609 0.712342 2.69557e-19)
(0.863096 0.661208 -3.6941e-19)
(0.792128 0.607394 -4.13868e-19)
(0.745121 0.561692 3.70344e-19)
(0.713966 0.522864 0)
(0.669526 0.474834 -1.13355e-19)
(0.571302 0.393358 -2.69454e-19)
(0.416199 0.280105 -3.18703e-19)
(0.249146 0.164748 -3.76365e-19)
(0.111156 0.0723286 1.11169e-19)
(0.0243655 0.0155109 -6.52753e-20)
(-0.00386184 -0.00245591 2.9702e-22)
(0.230467 0.158213 0)
(1.06081 0.733112 0)
(1.25709 0.877395 2.49148e-21)
(1.28083 0.908409 0)
(1.2339 0.893147 6.38377e-21)
(1.16404 0.862579 3.98499e-20)
(1.08982 0.828709 0)
(1.0112 0.790803 2.4662e-20)
(0.928171 0.74651 4.49586e-19)
(0.842245 0.69315 -8.50101e-19)
(0.768527 0.636645 0)
(0.719353 0.588066 -2.38642e-19)
(0.686461 0.545833 -3.04701e-21)
(0.640337 0.492909 -2.35019e-21)
(0.542477 0.405132 2.88444e-19)
(0.39222 0.286148 -1.03685e-22)
(0.232948 0.166716 -8.10959e-19)
(0.102045 0.0718422 2.39185e-19)
(0.0211774 0.0146609 7.06578e-20)
(-0.0038876 -0.00260677 0)
(0.230803 0.166721 -1.506e-19)
(1.05254 0.766502 -7.16739e-20)
(1.24488 0.916659 -8.98061e-20)
(1.26662 0.947997 7.62471e-20)
(1.21904 0.931617 -3.91709e-21)
(1.14904 0.899649 0)
(1.07439 0.864382 6.93445e-20)
(0.994857 0.825055 -5.53036e-20)
(0.910287 0.779243 3.91142e-21)
(0.821954 0.724025 6.28066e-20)
(0.745305 0.665128 5.366e-19)
(0.693652 0.613596 -8.37098e-20)
(0.658733 0.567546 -3.17638e-19)
(0.610731 0.508864 -1.32171e-19)
(0.513111 0.413926 1.56588e-19)
(0.36748 0.288922 7.68037e-23)
(0.215449 0.165805 2.18404e-19)
(0.0918602 0.0694285 -5.14637e-19)
(0.0173781 0.0130104 6.08265e-19)
(-0.00405651 -0.00284468 8.86786e-20)
(0.231057 0.174969 5.77269e-20)
(1.04473 0.798331 -4.07331e-20)
(1.23288 0.953595 6.23529e-21)
(1.25265 0.985185 5.24181e-20)
(1.20453 0.967742 7.5889e-21)
(1.13444 0.934545 -6.74972e-20)
(1.05946 0.898093 1.92929e-20)
(0.979112 0.857581 -2.30141e-19)
(0.893091 0.810543 -4.95275e-19)
(0.802362 0.753846 -5.06912e-19)
(0.722597 0.692907 0)
(0.668057 0.638432 -3.6831e-19)
(0.630687 0.58817 4.58251e-19)
(0.580436 0.522578 0)
(0.483099 0.419325 -3.3551e-19)
(0.342555 0.287987 1.9952e-19)
(0.197982 0.161873 -2.34837e-19)
(0.0818596 0.0653973 -2.76873e-19)
(0.0136769 0.0109097 -4.89851e-19)
(-0.00427899 -0.00313079 -3.81861e-19)
(0.231666 0.18309 -6.57764e-20)
(1.03723 0.82859 4.35956e-20)
(1.22113 0.988277 9.8317e-20)
(1.23902 1.02006 7.88222e-20)
(1.19045 1.00162 -1.20052e-20)
(1.12034 0.967358 -3.34526e-20)
(1.04512 0.929893 6.5131e-20)
(0.964053 0.888422 -2.35703e-19)
(0.87667 0.840436 -2.93408e-19)
(0.78359 0.782637 5.30694e-19)
(0.700528 0.720038 1.1801e-18)
(0.642643 0.66278 0)
(0.60221 0.60793 0)
(0.549081 0.534041 -1.5222e-19)
(0.4521 0.420925 0)
(0.317642 0.282531 4.28794e-19)
(0.181875 0.154123 5.04796e-19)
(0.0740356 0.0597082 0)
(0.0113157 0.00874356 0)
(-0.00442447 -0.00336797 4.1025e-19)
(0.231947 0.190786 7.53967e-20)
(1.03006 0.857272 6.07468e-20)
(1.20971 1.02083 7.1734e-20)
(1.2258 1.05272 -7.85588e-20)
(1.17688 1.03336 -2.00007e-20)
(1.10681 0.998165 2.98592e-20)
(1.03143 0.959843 -8.88592e-20)
(0.949746 0.917609 -5.14978e-22)
(0.861106 0.868928 -5.08721e-21)
(0.765734 0.810396 -4.64693e-21)
(0.679239 0.746575 6.08122e-19)
(0.617522 0.68685 0)
(0.573241 0.627082 4.64808e-19)
(0.516265 0.543438 3.25082e-19)
(0.419369 0.418571 7.83088e-19)
(0.292264 0.271307 2.31044e-19)
(0.168535 0.13991 -2.71604e-19)
(0.0726152 0.0493205 -1.59488e-19)
(0.0162359 0.00544203 0)
(-0.00246689 -0.00279347 4.40947e-19)
(0.232548 0.198501 -1.71258e-19)
(1.02318 0.884476 0)
(1.19859 1.0513 8.58411e-20)
(1.21302 1.08326 -6.76417e-20)
(1.16387 1.06305 3.24679e-20)
(1.09388 1.02705 -2.37212e-20)
(1.01844 0.988002 1.68759e-19)
(0.936229 0.945176 -1.94565e-20)
(0.846444 0.89603 0)
(0.748874 0.8371 -5.85503e-19)
(0.658868 0.772544 -1.32257e-18)
(0.592849 0.710824 5.44026e-20)
(0.543831 0.6459 6.42192e-19)
(0.481708 0.551216 0)
(0.383745 0.412719 5.28816e-19)
(0.264141 0.253331 0)
(0.155947 0.113506 0)
(0.0822755 0.0201957 -1.72413e-19)
(0.0496344 -0.00960983 0)
(0.0274599 0.0108185 1.18156e-19)
(0.232791 0.205632 -1.92489e-19)
(1.01654 0.910531 0)
(1.18779 1.0799 1.4413e-19)
(1.20064 1.11191 0)
(1.15138 1.09098 -2.14392e-20)
(1.08151 1.05431 0)
(1.00608 1.01468 7.62368e-21)
(0.923405 0.97146 3.23488e-20)
(0.832561 0.922101 3.68353e-20)
(0.732839 0.863131 -6.41956e-19)
(0.639226 0.798395 3.96137e-20)
(0.568383 0.735345 4.38715e-19)
(0.513561 0.665164 6.26893e-19)
(0.444526 0.558031 8.46272e-20)
(0.343272 0.404812 4.1482e-19)
(0.228298 0.229558 0)
(0.13194 0.0705924 5.72316e-19)
(0.0710778 -0.0245382 -3.3398e-19)
(0.0424307 0.0433169 3.88517e-19)
(-0.0690834 0.437214 -4.57987e-19)
(0.23303 0.212578 1.60074e-19)
(1.0099 0.935213 2.45146e-19)
(1.17721 1.10695 0)
(1.18852 1.13912 4.96712e-21)
(1.1392 1.1177 6.6621e-20)
(1.06941 1.08061 4.04106e-21)
(0.994041 1.04068 5.61278e-20)
(0.910858 0.997394 0)
(0.81892 0.948225 2.42554e-19)
(0.716954 0.889786 -3.33351e-20)
(0.619396 0.825625 0)
(0.542857 0.762091 0)
(0.480468 0.686344 5.62172e-19)
(0.40236 0.564481 -2.61887e-19)
(0.29473 0.396736 -4.20787e-19)
(0.179884 0.20346 0)
(0.0768688 0.0787573 2.88607e-19)
(0.00339743 0.43839 -3.33229e-19)
(0.0330518 1.89201 -1.82153e-19)
(0.0622948 2.81253 -2.33176e-19)
(0.233099 0.218707 -1.21022e-19)
(1.00344 0.958711 -3.16016e-19)
(1.16686 1.13242 8.64406e-20)
(1.17664 1.16476 6.90819e-20)
(1.12736 1.14299 0)
(1.05767 1.10567 -8.24385e-21)
(0.982516 1.06568 7.2791e-20)
(0.898785 1.02255 -1.54842e-20)
(0.805793 0.973889 3.63102e-20)
(0.701605 0.916459 6.11383e-19)
(0.599982 0.853617 6.69221e-19)
(0.517193 0.790632 4.92297e-19)
(0.445387 0.709533 5.66198e-19)
(0.356767 0.569538 -6.16331e-19)
(0.243628 0.392203 -6.36143e-19)
(0.12127 0.246192 0)
(0.0427028 0.828078 0)
(0.1002 2.55136 1.59183e-19)
(0.101411 3.20215 0)
(0.1047 3.38852 3.78625e-19)
(0.235712 0.224355 0)
(0.997768 0.981228 0)
(1.15651 1.15617 0)
(1.16481 1.18867 2.1318e-20)
(1.11552 1.1666 6.1951e-20)
(1.04608 1.12936 -1.91256e-20)
(0.971398 1.08958 4.53149e-20)
(0.887143 1.04682 -1.50003e-20)
(0.793149 0.99896 3.01147e-19)
(0.686827 0.943018 -9.02809e-21)
(0.581147 0.882296 1.32208e-18)
(0.491699 0.820763 -5.69142e-20)
(0.408496 0.735837 6.85893e-20)
(0.310361 0.570852 8.92937e-20)
(0.18038 0.404427 -5.31083e-21)
(0.0983491 0.9604 1.84226e-21)
(0.139009 2.72287 -8.42807e-19)
(0.147066 3.29278 -3.15443e-19)
(0.136256 3.42571 1.62468e-19)
(0.123905 3.44793 -1.80588e-19)
(0.154382 0.181578 7.22259e-20)
(0.986786 1.00552 0)
(1.1458 1.17839 -1.75313e-19)
(1.15353 1.21135 -1.90242e-19)
(1.10456 1.18936 1.53547e-19)
(1.03555 1.15238 2.53127e-20)
(0.960639 1.11245 -4.46078e-20)
(0.876043 1.07035 1.61208e-19)
(0.781158 1.02361 -2.45566e-19)
(0.672917 0.969646 0)
(0.563312 0.911879 6.49009e-19)
(0.466949 0.852323 -4.02176e-19)
(0.371102 0.767993 0)
(0.25697 0.569251 8.33752e-20)
(0.142909 0.740308 1.99464e-19)
(0.154703 2.49551 -2.31474e-19)
(0.211495 3.3223 2.5928e-19)
(0.191758 3.43814 1.38963e-19)
(0.159651 3.45988 1.55605e-19)
(0.138032 3.4703 2.46097e-19)
(0.278656 0.262451 -1.31446e-19)
(0.971529 1.01533 0)
(1.12773 1.20379 1.92475e-19)
(1.1387 1.24179 2.1098e-19)
(1.08725 1.22239 -1.74863e-19)
(1.01747 1.1858 -4.88471e-20)
(0.941639 1.14751 3.14428e-20)
(0.85654 1.10664 1.27361e-20)
(0.760356 1.0621 2.32198e-19)
(0.649382 1.01208 5.25544e-19)
(0.534521 0.961006 3.64625e-20)
(0.427482 0.90663 3.57557e-19)
(0.302817 0.805966 6.43644e-20)
(0.212477 0.918836 -8.20469e-20)
(0.229052 2.34335 -1.85791e-19)
(0.290734 3.32418 1.76515e-19)
(0.273707 3.46662 -1.94089e-19)
(0.23831 3.4888 -1.11696e-19)
(0.201258 3.51672 -9.23678e-20)
(0.149764 3.51106 -1.08424e-20)
(0.266545 0.259349 0)
(0.969184 1.03798 5.66975e-20)
(1.11942 1.22728 -4.00379e-20)
(1.1281 1.26544 -2.55411e-20)
(1.07646 1.2456 -1.23075e-19)
(1.00664 1.20923 5.26825e-20)
(0.930489 1.17108 -1.2139e-20)
(0.845194 1.13103 1.1259e-20)
(0.748493 1.08798 -2.40654e-19)
(0.63624 1.04085 -1.37604e-20)
(0.51859 0.994785 -1.17221e-18)
(0.406524 0.944765 5.111e-20)
(0.284621 0.870859 -6.06519e-20)
(0.254864 1.47449 -7.5741e-20)
(0.330713 3.09774 1.81257e-20)
(0.350102 3.46381 2.70857e-22)
(0.309737 3.52048 2.75751e-19)
(0.27235 3.54756 1.32419e-19)
(0.223654 3.57134 -2.86284e-20)
(0.164622 3.56761 -4.90217e-20)
(0.25038 0.257866 1.44591e-19)
(0.96526 1.06331 3.87983e-19)
(1.1107 1.25285 -1.1497e-19)
(1.11693 1.2905 -9.64252e-20)
(1.06505 1.27014 0)
(0.995377 1.23384 1.05183e-19)
(0.919209 1.19592 -2.51984e-21)
(0.833998 1.15666 9.66634e-21)
(0.737101 1.11521 -2.69276e-20)
(0.624101 1.07124 -4.72278e-19)
(0.504508 1.0305 -5.39503e-19)
(0.389033 0.984273 -4.16913e-19)
(0.286582 0.998823 -4.59454e-19)
(0.325035 2.19448 4.74485e-19)
(0.41832 3.37262 3.93482e-19)
(0.394901 3.52136 0)
(0.349322 3.567 0)
(0.311201 3.60839 -2.16766e-20)
(0.260221 3.66899 0)
(0.177221 3.6453 -1.768e-20)
(0.23974 0.259801 -2.17671e-19)
(0.9594 1.08974 -3.30807e-19)
(1.10056 1.27962 0)
(1.10438 1.31628 5.95347e-21)
(1.05235 1.29529 -1.36966e-19)
(0.982981 1.25892 1.76377e-19)
(0.907139 1.2213 7.18493e-21)
(0.822215 1.18273 4.66329e-21)
(0.725358 1.1428 -1.66628e-19)
(0.612028 1.10199 2.33381e-20)
(0.491436 1.06664 0)
(0.371053 1.02555 0)