/*--------------------------------*- C++ -*----------------------------------*\
| =========                 |                                                 |
| \\      /  F ield         | OpenFOAM: The Open Source CFD Toolbox           |
|  \\    /   O peration     | Version:  4.0                                   |
|   \\  /    A nd           | Web:      www.OpenFOAM.org                      |
|    \\/     M anipulation  |                                                 |
\*---------------------------------------------------------------------------*/
FoamFile
{
    version     2.0;
    format      ascii;
    class       volScalarField;
    location    "71";
    object      p;
}
// * * * * * * * * * * * * * * * * * * * * * * * * * * * * * * * * * * * * * //

dimensions      [0 2 -2 0 0 0 0];

internalField   nonuniform List<scalar> 
2200
(
0.772656
0.751158
0.735256
0.719594
0.704992
0.692485
0.682149
0.674067
0.668386
0.665498
0.666038
0.669857
0.676246
0.684834
0.695532
0.708318
0.72312
0.739055
0.755102
0.776601
0.705074
0.701816
0.698895
0.694782
0.689331
0.68287
0.676272
0.670348
0.665887
0.663567
0.664104
0.66745
0.672654
0.679133
0.686138
0.692904
0.698575
0.702677
0.705529
0.708893
0.66513
0.665352
0.66742
0.668774
0.669175
0.668334
0.666372
0.663726
0.661225
0.659784
0.660391
0.662918
0.666239
0.669496
0.671847
0.672857
0.67259
0.671593
0.669953
0.669705
0.642625
0.64408
0.646677
0.649132
0.651588
0.653625
0.654801
0.655062
0.654732
0.654507
0.655188
0.656642
0.657892
0.658318
0.657659
0.656009
0.653865
0.651689
0.649085
0.647681
0.628224
0.630196
0.633021
0.63587
0.638747
0.641599
0.644087
0.645988
0.64726
0.648101
0.648919
0.649458
0.649281
0.648227
0.6464
0.64405
0.641521
0.638807
0.636022
0.634099
0.620832
0.62243
0.624642
0.627185
0.629868
0.632559
0.635181
0.63764
0.639715
0.641301
0.642265
0.642377
0.641607
0.640147
0.638293
0.636184
0.633876
0.631541
0.629447
0.627873
0.61735
0.618372
0.61965
0.621532
0.623699
0.625896
0.628132
0.630478
0.632771
0.634707
0.635838
0.63595
0.635252
0.634108
0.632764
0.631243
0.62957
0.62801
0.626904
0.625887
0.614614
0.615283
0.615923
0.617241
0.618879
0.6206
0.622401
0.624394
0.626548
0.628613
0.629992
0.630417
0.630192
0.629645
0.628924
0.628025
0.627007
0.626105
0.62567
0.624991
0.611278
0.611722
0.612128
0.613143
0.614434
0.615858
0.61741
0.619155
0.621118
0.623213
0.624878
0.625802
0.626174
0.626208
0.625994
0.625576
0.625037
0.624534
0.62436
0.623894
0.607119
0.607414
0.60778
0.608668
0.609806
0.611119
0.612612
0.614302
0.616221
0.618408
0.620453
0.621932
0.622841
0.623335
0.623509
0.623444
0.623203
0.622913
0.622799
0.622472
0.602274
0.602474
0.602851
0.6037
0.604827
0.606181
0.60777
0.609602
0.6117
0.61412
0.616604
0.618623
0.620003
0.620849
0.621301
0.62148
0.621428
0.621296
0.621209
0.620967
0.596937
0.597081
0.597461
0.598291
0.599463
0.600939
0.602715
0.604796
0.607229
0.610083
0.613134
0.615693
0.617496
0.618679
0.619386
0.619753
0.619918
0.619936
0.619883
0.619688
0.59113
0.591237
0.591621
0.592459
0.59372
0.595365
0.597394
0.599829
0.602743
0.60621
0.609902
0.613043
0.615306
0.616844
0.617851
0.618486
0.618873
0.619031
0.619023
0.618849
0.584916
0.584978
0.585372
0.586251
0.587627
0.589464
0.591767
0.594604
0.59808
0.602279
0.606794
0.61064
0.61345
0.615446
0.616859
0.617818
0.618454
0.618767
0.6188
0.618631
0.578143
0.578179
0.578606
0.579525
0.581043
0.583087
0.585695
0.588997
0.59316
0.598244
0.603742
0.608447
0.611942
0.614533
0.616436
0.617793
0.618706
0.619183
0.619267
0.619097
0.5707
0.570657
0.571095
0.572131
0.573882
0.576216
0.579224
0.583095
0.588046
0.594199
0.600813
0.606551
0.610941
0.614231
0.616719
0.61852
0.619745
0.620394
0.620527
0.620351
0.562332
0.562335
0.562771
0.563892
0.565893
0.568555
0.572041
0.576582
0.58244
0.589807
0.597902
0.604912
0.610368
0.614538
0.617706
0.620043
0.621627
0.622452
0.62264
0.62245
0.552812
0.552828
0.553285
0.554557
0.55686
0.559957
0.564077
0.569479
0.576489
0.585318
0.595072
0.603658
0.610359
0.615548
0.619504
0.622426
0.624417
0.625439
0.625681
0.625471
0.541796
0.541768
0.542343
0.543838
0.54649
0.550172
0.55512
0.561609
0.570033
0.580729
0.592456
0.602857
0.61099
0.61731
0.622141
0.625774
0.62823
0.629439
0.629724
0.629487
0.528656
0.528588
0.52928
0.531158
0.534377
0.538845
0.544871
0.552794
0.563044
0.575953
0.590103
0.60249
0.612259
0.619872
0.625738
0.630129
0.633075
0.634487
0.634802
0.634535
0.513086
0.512973
0.513752
0.515996
0.52
0.525595
0.533086
0.542891
0.555489
0.571116
0.588021
0.602774
0.614348
0.623354
0.630322
0.635569
0.639036
0.640611
0.640935
0.640635
0.494204
0.494127
0.495149
0.497926
0.502882
0.50991
0.519364
0.531669
0.547255
0.566216
0.586246
0.603586
0.617087
0.627681
0.635911
0.642086
0.64606
0.647791
0.648086
0.647754
0.470855
0.470708
0.472047
0.475689
0.482147
0.49132
0.503534
0.519184
0.538493
0.561355
0.585014
0.605158
0.620824
0.633013
0.642501
0.649603
0.654035
0.655861
0.656084
0.655733
0.440784
0.440812
0.442938
0.448052
0.456909
0.469329
0.485439
0.50539
0.529173
0.55653
0.584214
0.607446
0.625327
0.639232
0.650069
0.658039
0.662799
0.664645
0.664757
0.664394
0.401231
0.401482
0.405056
0.413111
0.42597
0.443326
0.464775
0.490184
0.519371
0.551933
0.584017
0.610418
0.630603
0.646275
0.658387
0.667128
0.672059
0.673794
0.673775
0.673425
0.348492
0.348979
0.35614
0.369508
0.388963
0.413637
0.442162
0.474295
0.509779
0.548039
0.584685
0.614329
0.636797
0.654127
0.667463
0.676693
0.681394
0.682695
0.682541
0.682257
0.279682
0.282402
0.297759
0.319672
0.348159
0.381771
0.418526
0.458145
0.500472
0.545
0.586716
0.62005
0.645183
0.664569
0.6791
0.688695
0.692995
0.693684
0.693572
0.693355
0.201425
0.211252
0.236875
0.268461
0.307151
0.350015
0.395052
0.442371
0.491945
0.543212
0.590497
0.627978
0.656169
0.677527
0.693355
0.70297
0.706628
0.706771
0.706786
0.706649
0.131502
0.146156
0.178565
0.219331
0.267776
0.319522
0.372637
0.427744
0.484586
0.542377
0.59504
0.636426
0.667278
0.690434
0.707116
0.716409
0.719553
0.719438
0.719587
0.719502
0.0782775
0.0920764
0.128972
0.175815
0.231793
0.29123
0.351879
0.414276
0.477958
0.54209
0.60006
0.645193
0.678335
0.703002
0.720444
0.729985
0.732514
0.732671
0.732923
0.732886
0.0342396
0.0472231
0.0881578
0.139009
0.200515
0.265978
0.333073
0.401941
0.471944
0.542168
0.605158
0.653818
0.689409
0.715712
0.734062
0.743864
0.746668
0.747174
0.74724
0.747317
-0.00289743
0.0100265
0.0536422
0.10749
0.173348
0.24364
0.316227
0.390818
0.466561
0.542335
0.610002
0.662165
0.700313
0.728182
0.747754
0.758177
0.761479
0.761989
0.761977
0.76205
-0.0354182
-0.0222297
0.0235427
0.0800005
0.149534
0.223889
0.301183
0.380731
0.461565
0.542404
0.6147
0.670352
0.710759
0.740352
0.761159
0.771889
0.775457
0.775942
0.775976
0.776026
-0.0639859
-0.0509518
-0.00340632
0.0554828
0.128211
0.206057
0.287409
0.371275
0.456731
0.542484
0.619445
0.678317
0.72072
0.751617
0.773352
0.784551
0.788315
0.788886
0.788918
0.788958
-0.0900806
-0.0770112
-0.0281379
0.0330922
0.108655
0.189599
0.27454
0.362271
0.452097
0.542684
0.623885
0.685572
0.729937
0.762159
0.784304
0.795914
0.800007
0.800641
0.800672
0.800691
-0.113996
-0.100917
-0.0511867
0.012254
0.090336
0.174061
0.262227
0.35355
0.447458
0.5423
0.627328
0.692081
0.738469
0.77157
0.794049
0.806225
0.810394
0.811122
0.811136
0.811135
-0.136559
-0.123135
-0.0728011
-0.00739215
0.0728734
0.159137
0.250274
0.344834
0.44227
0.540933
0.630113
0.697977
0.746094
0.780314
0.803011
0.815287
0.819582
0.820366
0.820366
0.820347
-0.157848
-0.144094
-0.0932273
-0.0260996
0.0560516
0.144606
0.238359
0.335725
0.436333
0.538823
0.632273
0.703261
0.753333
0.788396
0.811244
0.823532
0.827684
0.828487
0.828463
0.828424
-0.177939
-0.164206
-0.112628
-0.0440462
0.0396893
0.130241
0.226285
0.326159
0.429765
0.536008
0.633557
0.707963
0.760234
0.796364
0.819122
0.830814
0.834871
0.835578
0.835557
0.835496
-0.19714
-0.183308
-0.131173
-0.0614031
0.0236689
0.115949
0.213997
0.316177
0.422616
0.53238
0.63398
0.712106
0.767142
0.804273
0.82672
0.837799
0.841373
0.841769
0.841757
0.841679
-0.215899
-0.20161
-0.149024
-0.07826
0.00793862
0.101706
0.20155
0.305879
0.414923
0.527941
0.633572
0.715683
0.77388
0.812708
0.834791
0.844566
0.847125
0.84717
0.84714
0.847137
-0.234225
-0.219243
-0.166322
-0.0946861
-0.00750106
0.0875747
0.189015
0.295275
0.40666
0.522646
0.632205
0.718667
0.780608
0.821725
0.843771
0.852009
0.852466
0.852018
0.851646
0.851517
-0.252151
-0.236454
-0.183149
-0.110679
-0.0226138
0.0735987
0.176425
0.284372
0.397841
0.516518
0.629804
0.720862
0.787094
0.831638
0.854805
0.860901
0.858915
0.857374
0.857341
0.858325
-0.269457
-0.253218
-0.199502
-0.126234
-0.0373767
0.059819
0.163809
0.273183
0.388482
0.50958
0.626273
0.722029
0.793278
0.84225
0.868076
0.873477
0.86846
0.861508
0.857009
0.856426
-0.28619
-0.269544
-0.21535
-0.141314
-0.0517543
0.0462607
0.151197
0.261763
0.378671
0.501908
0.621574
0.721853
0.79845
0.853353
0.88392
0.890477
0.884923
0.874995
0.875786
0.879969
-0.302268
-0.285289
-0.230624
-0.155898
-0.0657314
0.032958
0.138651
0.250207
0.368496
0.493559
0.615722
0.720114
0.802355
0.863957
0.901285
0.912279
0.905255
0.876091
0.83955
0.808081
-0.317705
-0.300492
-0.245362
-0.170049
-0.0794029
0.0197919
0.126044
0.238372
0.357778
0.484348
0.608533
0.716373
0.803819
0.873217
0.919784
0.938143
0.944161
0.916339
0.934005
0.997028
-0.332422
-0.315119
-0.259632
-0.183924
-0.0929657
0.00654062
0.113124
0.225942
0.346076
0.473682
0.599354
0.709789
0.801863
0.878121
0.931133
0.954597
0.951879
0.921326
0.876
0.894134
-0.346432
-0.329201
-0.273409
-0.197462
-0.106328
-0.00668795
0.100015
0.213036
0.333486
0.461603
0.588144
0.700007
0.794114
0.874032
0.928954
0.953324
0.929774
0.868588
0.801679
0.788379
-0.359697
-0.34267
-0.286669
-0.210666
-0.119496
-0.0198907
0.0867318
0.199668
0.320011
0.44807
0.574723
0.686611
0.780188
0.857042
0.907092
0.905394
0.863713
0.7808
0.703335
0.676561
-0.372276
-0.355584
-0.299448
-0.223541
-0.132469
-0.0330703
0.0732673
0.185831
0.30567
0.433097
0.558979
0.669292
0.758363
0.824056
0.849454
0.830285
0.763277
0.657418
0.56734
0.542258
-0.384585
-0.368265
-0.312092
-0.236445
-0.145601
-0.0465407
0.0593488
0.171306
0.290292
0.416517
0.540661
0.647484
0.729488
0.778704
0.770749
0.730749
0.61174
0.485032
0.374772
0.344956
-0.397481
-0.381565
-0.325316
-0.24996
-0.159414
-0.0607551
0.0445844
0.155765
0.27363
0.398131
0.519495
0.620661
0.695354
0.718744
0.683765
0.589182
0.428322
0.272013
0.139679
0.109695
-0.411446
-0.395737
-0.339355
-0.264323
-0.174107
-0.0758524
0.0288868
0.139178
0.25569
0.377957
0.495419
0.589781
0.653743
0.647454
0.593929
0.438455
0.235373
0.0201552
-0.161794
-0.212461
-0.426625
-0.411037
-0.354357
-0.279542
-0.189627
-0.0917863
0.0122956
0.121577
0.236524
0.356078
0.468428
0.556196
0.604768
0.566654
0.476803
0.28552
0.0526823
-0.237466
-0.558644
-0.708945
-0.443063
-0.427374
-0.370343
-0.295739
-0.206086
-0.108652
-0.00527211
0.102902
0.216083
0.332512
0.438742
0.519707
0.549809
0.481323
0.341317
0.134235
-0.100046
-0.444153
-1.02858
-1.59902
-0.460877
-0.445054
-0.387505
-0.312952
-0.22346
-0.126414
-0.023766
0.0832219
0.194516
0.307635
0.407531
0.480342
0.490704
0.406091
0.21143
-0.0227732
-0.225539
-0.459667
-1.01016
-2.50828
-0.480061
-0.463906
-0.405811
-0.331342
-0.241972
-0.145312
-0.0434504
0.0622618
0.171494
0.281072
0.374649
0.437627
0.426481
0.346827
0.117765
-0.120082
-0.268383
-0.30603
-0.295029
-0.678403
-0.500574
-0.484373
-0.425592
-0.351162
-0.261942
-0.165788
-0.064911
0.0392548
0.146077
0.251536
0.339182
0.3913
0.36364
0.29543
0.0677297
-0.134479
-0.245655
-0.254203
-0.201668
-0.241615
-0.522281
-0.505978
-0.446655
-0.372529
-0.283558
-0.188053
-0.0883698
0.01401
0.118047
0.218814
0.301252
0.342991
0.308557
0.24047
0.0349184
-0.125404
-0.208038
-0.216407
-0.264115
-0.268157
-0.54515
-0.529019
-0.469142
-0.395387
-0.306701
-0.212045
-0.113814
-0.0135272
0.0873768
0.183308
0.26068
0.292369
0.26057
0.178286
0.00654815
-0.116226
-0.187062
-0.16402
-0.184475
-0.186154
-0.568885
-0.552477
-0.492667
-0.419697
-0.331366
-0.237809
-0.141262
-0.0432705
0.054205
0.145367
0.217803
0.238332
0.218784
0.110399
-0.029031
-0.111854
-0.151425
-0.199388
-0.173557
-0.182218
-0.593455
-0.576633
-0.517344
-0.445216
-0.357176
-0.265074
-0.170438
-0.0749862
0.0186831
0.105345
0.173449
0.183389
0.17541
0.0490672
-0.0662738
-0.13024
-0.108325
-0.167863
-0.14835
-0.153407
-0.617636
-0.600623
-0.542823
-0.471627
-0.38398
-0.293754
-0.201182
-0.108382
-0.0189571
0.0636281
0.128853
0.131047
0.122885
-0.00219554
-0.093431
-0.144907
-0.13219
-0.148042
-0.153184
-0.151491
-0.641256
-0.624379
-0.568619
-0.498203
-0.411269
-0.323345
-0.23297
-0.143025
-0.0581919
0.0205723
0.0843333
0.0827843
0.065722
-0.0447309
-0.106978
-0.139084
-0.17692
-0.148679
-0.154267
-0.14869
-0.663109
-0.646956
-0.593244
-0.524062
-0.438933
-0.353474
-0.265424
-0.178431
-0.0982005
-0.0234841
0.03979
0.0389778
0.00962091
-0.0793106
-0.119685
-0.113756
-0.1862
-0.128784
-0.143877
-0.135987
-0.682714
-0.667688
-0.616095
-0.548252
-0.466296
-0.383204
-0.297766
-0.213977
-0.138031
-0.0680969
-0.00522926
-0.0015066
-0.0355372
-0.0979078
-0.126667
-0.0872676
-0.133112
-0.114776
-0.120823
-0.117506
-0.698326
-0.684911
-0.635988
-0.570371
-0.492377
-0.41178
-0.329317
-0.248944
-0.176766
-0.112452
-0.0505592
-0.0394039
-0.0669775
-0.0991584
-0.114919
-0.0923036
-0.106146
-0.110271
-0.111613
-0.111722
-0.709245
-0.697969
-0.652463
-0.589519
-0.515475
-0.438073
-0.359109
-0.282481
-0.213649
-0.155389
-0.0949966
-0.0745458
-0.0893153
-0.095719
-0.105096
-0.114448
-0.108201
-0.112653
-0.111528
-0.112635
-0.714005
-0.705103
-0.663789
-0.604482
-0.534642
-0.461137
-0.386102
-0.313442
-0.247846
-0.195191
-0.136053
-0.108623
-0.116639
-0.0953027
-0.106591
-0.134974
-0.118076
-0.122978
-0.117532
-0.118745
-0.71272
-0.705895
-0.668998
-0.613753
-0.54837
-0.479468
-0.4091
-0.340785
-0.27871
-0.230086
-0.172487
-0.140794
-0.139204
-0.106234
-0.114073
-0.149425
-0.122399
-0.133148
-0.127654
-0.129363
-0.704445
-0.697196
-0.665356
-0.615922
-0.556112
-0.49234
-0.426834
-0.362786
-0.304287
-0.258438
-0.203386
-0.168754
-0.15275
-0.115177
-0.0698452
-0.0589603
-0.0626195
-0.070985
-0.0735466
-0.0768589
-0.683312
-0.675009
-0.651525
-0.609735
-0.556356
-0.49835
-0.438496
-0.378621
-0.322922
-0.278367
-0.226231
-0.185638
-0.161615
-0.152345
-0.146291
-0.178054
-0.190462
-0.187827
-0.183965
-0.178559
-0.640427
-0.632697
-0.624573
-0.595031
-0.550153
-0.498338
-0.443596
-0.386798
-0.332253
-0.287332
-0.237045
-0.188222
-0.216018
-0.293086
-0.469467
-0.627872
-0.646894
-0.631962
-0.57911
-0.528441
-0.600379
-0.597713
-0.596191
-0.573685
-0.53783
-0.493256
-0.442971
-0.388274
-0.331959
-0.282499
-0.233335
-0.163073
-0.180659
-0.263422
-0.386599
-0.430663
-0.388057
-0.325288
-0.280515
-0.259447
-0.577148
-0.578976
-0.568699
-0.555805
-0.527458
-0.486757
-0.437892
-0.38351
-0.322791
-0.262583
-0.206356
-0.0992197
0.0260276
0.206556
0.377016
0.552631
0.684916
0.760636
0.803004
0.839668
-0.546581
-0.546115
-0.543533
-0.542518
-0.518751
-0.481772
-0.433611
-0.376951
-0.31037
-0.235206
-0.159098
-0.0295558
0.169574
0.471402
0.760656
1.0053
1.18123
1.28125
1.32757
1.34239
-0.534948
-0.533088
-0.536419
-0.528196
-0.511599
-0.477893
-0.429209
-0.370049
-0.299343
-0.212417
-0.11779
0.00722949
0.233733
0.548002
0.8532
1.1099
1.30112
1.41093
1.45939
1.47589
-0.520742
-0.519183
-0.5227
-0.514345
-0.510649
-0.477413
-0.427398
-0.365196
-0.29138
-0.197894
-0.0941848
0.0122483
0.230703
0.5093
0.78264
1.01848
1.20353
1.31464
1.36407
1.3777
-0.509596
-0.509462
-0.508647
-0.507825
-0.505975
-0.476643
-0.428644
-0.365639
-0.28943
-0.194592
-0.0914349
-0.00711718
0.179399
0.417469
0.644503
0.839741
0.997586
1.09427
1.13653
1.14694
-0.506134
-0.506909
-0.504929
-0.508992
-0.502592
-0.47621
-0.429342
-0.368143
-0.293774
-0.202952
-0.10434
-0.0372113
0.110812
0.31105
0.493776
0.645786
0.768513
0.844986
0.877339
0.88508
-0.500509
-0.501471
-0.500207
-0.504434
-0.500281
-0.482225
-0.437097
-0.375181
-0.302502
-0.218064
-0.125032
-0.0683994
0.0424239
0.20742
0.351906
0.466849
0.557922
0.615796
0.640429
0.645757
-0.490155
-0.489313
-0.486315
-0.484343
-0.477687
-0.477389
-0.442215
-0.383237
-0.312521
-0.234905
-0.147454
-0.0968589
-0.017865
0.115687
0.228496
0.314676
0.381215
0.424337
0.441171
0.445337
-0.4996
-0.495913
-0.490617
-0.484753
-0.48139
-0.482956
-0.445376
-0.387686
-0.318314
-0.248457
-0.167512
-0.120805
-0.0675296
0.0393006
0.126418
0.190676
0.240077
0.272276
0.284069
0.288242
-0.53459
-0.532003
-0.531079
-0.53234
-0.535049
-0.522058
-0.46108
-0.392358
-0.320008
-0.256469
-0.182765
-0.13933
-0.103941
-0.0191239
0.0471647
0.0952399
0.132981
0.157709
0.167083
0.169529
-0.591082
-0.594948
-0.605613
-0.615752
-0.612438
-0.571543
-0.479474
-0.396484
-0.316745
-0.257482
-0.191994
-0.151832
-0.126687
-0.059698
-0.00997779
0.0257639
0.0538789
0.0711615
0.0788012
0.0808736
-0.578511
-0.583942
-0.598056
-0.613992
-0.610892
-0.56202
-0.471664
-0.385248
-0.305973
-0.248613
-0.193239
-0.157258
-0.136102
-0.085054
-0.0489449
-0.0227636
-0.00311216
0.00813616
0.0127174
0.0133984
-0.462085
-0.468937
-0.485019
-0.495939
-0.495684
-0.463323
-0.405157
-0.343161
-0.2796
-0.228795
-0.185441
-0.155644
-0.135183
-0.098461
-0.0730829
-0.0554242
-0.0433123
-0.0370877
-0.035227
-0.0357199
-0.294235
-0.299559
-0.307423
-0.31599
-0.319944
-0.310533
-0.290304
-0.264078
-0.229485
-0.196636
-0.167806
-0.146127
-0.128159
-0.103026
-0.0864879
-0.0758951
-0.0696321
-0.06743
-0.0677604
-0.0688532
-0.137017
-0.139654
-0.144803
-0.153693
-0.163518
-0.170639
-0.175096
-0.175442
-0.166909
-0.15557
-0.141452
-0.128968
-0.117009
-0.101258
-0.0918352
-0.0868541
-0.0849316
-0.0853644
-0.0868854
-0.0882364
-0.022788
-0.0242571
-0.0278573
-0.0363245
-0.0503876
-0.0674442
-0.0849195
-0.10003
-0.108306
-0.113197
-0.110563
-0.106933
-0.102334
-0.0944184
-0.090718
-0.0898915
-0.0908081
-0.0928128
-0.0947497
-0.0961469
0.0428313
0.041771
0.0391432
0.0311189
0.0154313
-0.00566307
-0.0277534
-0.0480888
-0.0631552
-0.0762969
-0.0804712
-0.0832848
-0.085469
-0.0830277
-0.0842241
-0.0867461
-0.08949
-0.0921446
-0.0940616
-0.0953823
0.0713864
0.0707049
0.0687249
0.0617452
0.047114
0.0263678
0.00386762
-0.0175808
-0.034204
-0.0493357
-0.0556691
-0.0614967
-0.0679709
-0.0696998
-0.0744907
-0.0791307
-0.0829491
-0.0858615
-0.0876239
-0.0888048
0.0779756
0.0774768
0.0759586
0.0704166
0.0584335
0.0407285
0.020306
-0.000364787
-0.0169194
-0.0320154
-0.0385921
-0.0446342
-0.0519212
-0.0571604
-0.0636846
-0.0692332
-0.0734446
-0.0764459
-0.0779724
-0.0789681
0.0730837
0.0727457
0.071606
0.0674676
0.0583784
0.044614
0.0278119
0.00944926
-0.00605017
-0.0208506
-0.0274768
-0.0327648
-0.039684
-0.0461578
-0.0529833
-0.058507
-0.0626587
-0.0655366
-0.0667488
-0.0675411
0.0631798
0.0629754
0.0621377
0.0591737
0.0525468
0.0423864
0.0295619
0.0146821
0.00147905
-0.0125888
-0.0195325
-0.024332
-0.0305601
-0.0366328
-0.0429786
-0.0480094
-0.0517473
-0.0543111
-0.0552582
-0.0558828
0.0516828
0.0515817
0.0509911
0.0489748
0.0443126
0.0370273
0.0276501
0.0163681
0.00633807
-0.00597473
-0.0128592
-0.0176114
-0.023056
-0.0281736
-0.0337441
-0.0380803
-0.0413151
-0.0435253
-0.0442469
-0.0447186
0.0402837
0.0402592
0.0398518
0.0385492
0.0353843
0.0303078
0.0236082
0.0152418
0.00822967
-0.00146165
-0.00703719
-0.0113018
-0.0161071
-0.0205083
-0.0253229
-0.0289908
-0.0317229
-0.0335658
-0.034155
-0.0345233
0.029712
0.0297204
0.029437
0.0286292
0.0265512
0.0231717
0.0185544
0.0124754
0.00782789
0.000739189
-0.00291174
-0.00602998
-0.00990067
-0.0136736
-0.017823
-0.0208119
-0.0229833
-0.0244148
-0.024852
-0.0251367
0.0202014
0.020213
0.0200344
0.0195854
0.018289
0.0161793
0.0132527
0.00904173
0.00621113
0.00128125
-0.000811906
-0.0026874
-0.00539043
-0.00815575
-0.0114133
-0.0136489
-0.0152157
-0.0162066
-0.016538
-0.0167919
0.0114766
0.0114973
0.0114503
0.0113052
0.010638
0.00949332
0.00797768
0.00536763
0.00397342
0.000881772
-0.00010291
-0.000987737
-0.00256219
-0.00408812
-0.00638584
-0.00774339
-0.00866722
-0.00918654
-0.00925034
-0.0094319
0.00367394
0.00369103
0.00370588
0.00376583
0.00363056
0.00326347
0.00286321
0.00171871
0.00146907
0.000140065
0.00010047
-9.28716e-06
-0.000793126
-0.00116569
-0.0025592
-0.00320008
-0.00388583
-0.00423249
-0.00399324
-0.00396601
-1.07636
-0.242058
0.0277247
0.301725
0.480127
0.632257
0.752788
0.876107
1.01393
1.09959
-0.102004
0.30185
0.315613
0.502091
0.622411
0.730329
0.822691
0.905417
0.931992
0.890978
0.269452
0.481119
0.513537
0.64874
0.73196
0.809559
0.873637
0.92186
0.923503
0.938169
0.495205
0.635769
0.669889
0.769395
0.825551
0.881428
0.925409
0.957313
0.966166
0.990058
0.670183
0.769664
0.799273
0.864992
0.909222
0.949084
0.980711
1.00479
1.01442
1.04616
0.811415
0.879098
0.909163
0.951102
0.986732
1.01635
1.04033
1.06104
1.07501
1.10343
0.929251
0.979189
1.00451
1.03204
1.05931
1.08284
1.10263
1.12186
1.13665
1.16326
1.03221
1.06889
1.08978
1.1102
1.13077
1.15002
1.16736
1.18546
1.20031
1.224
1.12571
1.15466
1.17088
1.18604
1.20204
1.21804
1.23356
1.25045
1.26408
1.2864
1.21371
1.23409
1.24889
1.262
1.27553
1.28927
1.30277
1.31735
1.32889
1.34853
1.29902
1.31478
1.32858
1.34037
1.35227
1.36391
1.37504
1.3867
1.39439
1.41118
1.3842
1.39674
1.41045
1.42218
1.43282
1.44261
1.45144
1.45969
1.46325
1.47447
1.47293
1.48377
1.49724
1.50675
1.51432
1.52161
1.52879
1.53525
1.53636
1.5437
1.57133
1.57595
1.58413
1.58886
1.59226
1.59673
1.60272
1.61037
1.61428
1.62416
1.68461
1.6715
1.66421
1.6585
1.65578
1.65712
1.66342
1.67579
1.69062
1.72029
1.80657
1.75053
1.71951
1.70232
1.6941
1.69402
1.70289
1.72253
1.75429
1.82357
)
;

boundaryField
{
    wall-4
    {
        type            zeroGradient;
    }
    pressure-outlet-7
    {
        type            fixedValue;
        value           uniform 0;
    }
    velocity-inlet-6
    {
        type            zeroGradient;
    }
    velocity-inlet-5
    {
        type            zeroGradient;
    }
    frontAndBackPlanes
    {
        type            empty;
    }
}


// ************************************************************************* //
