/*--------------------------------*- C++ -*----------------------------------*\
| =========                 |                                                 |
| \\      /  F ield         | OpenFOAM: The Open Source CFD Toolbox           |
|  \\    /   O peration     | Version:  4.0                                   |
|   \\  /    A nd           | Web:      www.OpenFOAM.org                      |
|    \\/     M anipulation  |                                                 |
\*---------------------------------------------------------------------------*/
FoamFile
{
    version     2.0;
    format      ascii;
    class       surfaceScalarField;
    location    "71";
    object      phi;
}
// * * * * * * * * * * * * * * * * * * * * * * * * * * * * * * * * * * * * * //

dimensions      [0 3 -1 0 0 0 0];

internalField   nonuniform List<scalar> 
4262
(
0.107134
0.470855
0.0955686
0.705151
0.0693794
0.858492
0.0473568
1.02079
0.0309681
1.21491
0.0197553
1.44943
0.0123285
1.73329
0.0071008
2.07626
0.00315752
2.48919
-0.000652271
2.9861
-0.00438844
2.98603
-0.00811098
2.48897
-0.0130696
2.07599
-0.0202142
1.73301
-0.0311292
1.44913
-0.0471777
1.21456
-0.0689218
1.02051
-0.0951906
0.858572
-0.107063
0.705458
0.470925
0.112858
0.357997
0.13525
0.682758
0.120351
0.873392
0.0978138
1.04332
0.0745657
1.23815
0.0528235
1.47117
0.0344425
1.75167
0.0202712
2.09044
0.00903803
2.50042
-0.000886634
2.99603
-0.0109662
2.99611
-0.0223155
2.50032
-0.036458
2.09014
-0.054754
1.7513
-0.0766064
1.47099
-0.100358
1.23832
-0.123534
1.04368
-0.137039
0.872076
-0.113576
0.681996
0.357349
0.0920326
0.265964
0.124946
0.649845
0.121059
0.877279
0.104742
1.05964
0.0860699
1.25683
0.0669173
1.49033
0.047896
1.77069
0.0297307
2.1086
0.0130202
2.51713
-0.00291697
3.01196
-0.0185928
3.01178
-0.034456
2.51618
-0.0519117
2.10759
-0.0703316
1.76972
-0.0886459
1.4893
-0.105808
1.25548
-0.119875
1.05775
-0.12527
0.877471
-0.0923767
0.649103
0.264972
0.0639522
0.202012
0.104739
0.609058
0.106496
0.875521
0.0951193
1.07102
0.0811933
1.27075
0.0664489
1.50507
0.0503403
1.7868
0.033241
2.1257
0.0156343
2.53474
-0.00307387
3.03067
-0.0216975
3.03041
-0.0391434
2.53362
-0.0556513
2.1241
-0.0708207
1.78489
-0.0845732
1.50305
-0.0982631
1.26917
-0.110039
1.06953
-0.107039
0.874471
-0.0649047
0.606968
0.200067
0.0374633
0.164549
0.0806651
0.565856
0.0908848
0.865302
0.0836301
1.07827
0.0709618
1.28342
0.0590579
1.51698
0.0459676
1.79989
0.0308603
2.14081
0.0137029
2.55189
-0.00551465
3.04989
-0.0240341
3.04893
-0.0397598
2.54935
-0.0535731
2.13791
-0.0657196
1.79704
-0.0770048
1.51434
-0.0889347
1.2811
-0.09525
1.07584
-0.0833654
0.862587
-0.0384524
0.562055
0.161615
0.019431
0.145118
0.057097
0.52819
0.0724382
0.84996
0.0702983
1.08041
0.0614753
1.29224
0.0505904
1.52786
0.0394441
1.81104
0.0268988
2.15335
0.0119503
2.56684
-0.00576296
3.0676
-0.0233139
3.06648
-0.0378419
2.56388
-0.0493782
2.14945
-0.0592039
1.80687
-0.0689822
1.52412
-0.0765934
1.28871
-0.0773681
1.07662
-0.0601632
0.845382
-0.0204359
0.522328
0.141179
0.0105871
0.134531
0.0422338
0.496543
0.0582796
0.833915
0.0584939
1.0802
0.0522474
1.29849
0.042754
1.53735
0.0322242
1.82157
0.0206633
2.16491
0.00716183
2.58034
-0.00883659
3.0836
-0.0239465
3.08159
-0.0355349
2.57547
-0.0452568
2.15917
-0.0541735
1.81578
-0.0620855
1.53203
-0.0665927
1.29322
-0.0645604
1.07458
-0.0460683
0.82689
-0.0117533
0.488013
0.129426
0.00652955
0.128001
0.032804
0.470269
0.0489623
0.817756
0.0504063
1.07875
0.0453159
1.30358
0.0369783
1.54569
0.0273707
1.83118
0.0165453
2.17574
0.00451905
2.59237
-0.00945963
3.09758
-0.0232086
3.09534
-0.0343073
2.58657
-0.0434704
2.16834
-0.0510224
1.82333
-0.0574087
1.53842
-0.060511
1.29632
-0.0567732
1.07085
-0.0374789
0.807596
-0.00794565
0.45848
0.12148
0.00466405
0.123337
0.0263986
0.448534
0.0420981
0.802057
0.0440896
1.07676
0.0392896
1.30838
0.0314442
1.55354
0.022098
1.84052
0.011301
2.18654
-0.000532825
2.6042
-0.0135755
3.11062
-0.0252595
3.10702
-0.0346329
2.59594
-0.04278
2.17648
-0.0496785
1.83023
-0.0550678
1.5438
-0.0572236
1.29847
-0.0520614
1.06568
-0.0322355
0.78777
-0.00643596
0.43268
0.115044
0.00368852
0.119648
0.0214839
0.430739
0.0364768
0.787064
0.0391337
1.07411
0.034734
1.31278
0.0273594
1.56091
0.0185884
1.84929
0.00860622
2.19652
-0.00269777
2.61551
-0.0151463
3.12307
-0.0269182
3.11879
-0.0364712
2.60549
-0.043817
2.18383
-0.0495926
1.83601
-0.0541611
1.54837
-0.0552945
1.29961
-0.048791
1.05918
-0.0286049
0.767584
-0.00585376
0.409929
0.10919
0.00298365
0.116665
0.0173195
0.416403
0.0310796
0.773304
0.0338933
1.07129
0.0295769
1.3171
0.0222199
1.56827
0.0133523
1.85816
0.00297103
2.2069
-0.00861377
2.62709
-0.0205552
3.13501
-0.0309572
3.12919
-0.0388653
2.6134
-0.0453988
2.19036
-0.0507466
1.84136
-0.0544669
1.55209
-0.0544225
1.29956
-0.0463982
1.05116
-0.0259928
0.747178
-0.00563003
0.389566
0.10356
0.00228652
0.114378
0.0135497
0.40514
0.0258906
0.760963
0.02879
1.06839
0.0246657
1.32122
0.0175055
1.57543
0.0089985
1.86667
-0.000507669
2.21641
-0.0111358
2.63772
-0.023472
3.14735
-0.0346411
3.14036
-0.0427694
2.62153
-0.0483822
2.19597
-0.052423
1.8454
-0.0549954
1.55467
-0.0542458
1.29881
-0.0447655
1.04168
-0.0241573
0.72657
-0.0055125
0.370921
0.0980479
0.00163491
0.112743
0.0102992
0.396476
0.0209428
0.750319
0.0234511
1.06588
0.0192073
1.32546
0.011984
1.58265
0.00313344
1.87552
-0.00730694
2.22685
-0.0191584
2.64957
-0.0310265
3.15922
-0.040424
3.14976
-0.0469188
2.62802
-0.0517118
2.20077
-0.0552422
1.84893
-0.0568019
1.55623
-0.0549975
1.29701
-0.0440938
1.03077
-0.0230717
0.705548
-0.00548878
0.353338
0.0925591
0.00071977
0.112024
0.0067259
0.390469
0.0154934
0.741552
0.0173454
1.06403
0.0127172
1.33009
0.00512854
1.59024
-0.00384993
1.8845
-0.0136152
2.23661
-0.0239283
2.65989
-0.035376
3.17066
-0.0456177
3.16
-0.0522085
2.63461
-0.055911
2.20447
-0.0584441
1.85146
-0.0590678
1.55685
-0.0561905
1.29413
-0.0438903
1.01847
-0.0224097
0.684068
-0.00546305
0.336392
0.0870961
6.35089e-05
0.11196
0.00388333
0.38665
0.0104521
0.734983
0.0113905
1.06309
0.00635727
1.33513
-0.00153112
1.59813
-0.0110023
1.89397
-0.0218552
2.24746
-0.0340763
2.67211
-0.0461613
3.18275
-0.054535
3.16838
-0.059242
2.63932
-0.0621791
2.20741
-0.0639387
1.85322
-0.0635271
1.55644
-0.0589896
1.28959
-0.0448126
1.0043
-0.0224266
0.661681
-0.00557834
0.319544
0.0815177
-0.000888539
0.112849
0.000307697
0.385453
0.00470796
0.730583
0.00442577
1.06338
-0.0015142
1.34107
-0.0105078
1.60712
-0.0209595
1.90442
-0.0320462
2.25855
-0.0430317
2.68309
-0.0536615
3.19338
-0.0619151
3.17663
-0.066546
2.64395
-0.0685689
2.20943
-0.0696643
1.85432
-0.0684575
1.55523
-0.0622904
1.28343
-0.0462413
0.988247
-0.0228042
0.638244
-0.00573148
0.302471
0.0757863
-0.00187106
0.11472
-0.00307937
0.386662
-0.0017493
0.729253
-0.00358936
1.06522
-0.010316
1.34779
-0.0197948
1.6166
-0.030731
1.91536
-0.0427404
2.27056
-0.0555277
2.69588
-0.0678446
3.2057
-0.0753955
3.18418
-0.0785022
2.64706
-0.0795489
2.21048
-0.0789122
1.85368
-0.0758806
1.5522
-0.0676406
1.27519
-0.0490552
0.969661
-0.0239002
0.613089
-0.00606006
0.284631
0.0697262
-0.00316798
0.117888
-0.00674504
0.390239
-0.00876743
0.731275
-0.012465
1.06891
-0.0204014
1.35573
-0.0313409
1.62754
-0.0438323
1.92785
-0.0571486
2.28388
-0.0701494
2.70888
-0.0803992
3.21595
-0.0863785
3.19016
-0.0891599
2.64984
-0.0893707
2.21069
-0.0882345
1.85254
-0.0843536
1.54832
-0.0737884
1.26462
-0.0524602
0.948333
-0.0253515
0.585981
-0.00644199
0.265721
0.0632842
-0.00457097
0.122459
-0.0111737
0.396841
-0.0166704
0.736772
-0.0233906
1.07563
-0.0326845
1.36502
-0.0447536
1.63961
-0.0582208
1.94131
-0.0725098
2.29817
-0.0864943
2.72287
-0.0989651
3.22842
-0.106025
3.19722
-0.107143
2.65096
-0.105693
2.20924
-0.102099
1.84895
-0.0956429
1.54186
-0.0823123
1.25129
-0.0574478
0.923468
-0.0274538
0.555987
-0.00694233
0.24521
0.0563419
-0.00594993
0.128409
-0.0159637
0.406855
-0.0253881
0.746196
-0.0350059
1.08525
-0.0466921
1.37671
-0.0610549
1.65397
-0.0767511
1.95701
-0.0931042
2.31452
-0.108685
2.73845
-0.120358
3.24009
-0.12419
3.20105
-0.124013
2.65078
-0.121163
2.20639
-0.116748
1.84453
-0.109051
1.53417
-0.092161
1.2344
-0.0630228
0.89433
-0.0297987
0.522763
-0.00745249
0.222864
0.0488894
-0.00827812
0.136687
-0.0230665
0.421644
-0.0381399
0.761269
-0.0510768
1.09819
-0.0645187
1.39015
-0.0809039
1.67036
-0.0985598
1.97467
-0.116364
2.33232
-0.132162
2.75424
-0.143452
3.25138
-0.148093
3.20569
-0.147065
2.64975
-0.142968
2.20229
-0.136301
1.83787
-0.125078
1.52294
-0.1042
1.21352
-0.0700541
0.860184
-0.0325066
0.485215
-0.00796055
0.198317
0.0409288
-0.0107743
0.147461
-0.0302236
0.441093
-0.0511584
0.782204
-0.0693708
1.1164
-0.0867345
1.40751
-0.106169
1.68979
-0.126574
1.99507
-0.146564
2.35231
-0.163907
2.77159
-0.175563
3.26304
-0.177704
3.20783
-0.173132
2.64518
-0.166124
2.19528
-0.157378
1.82912
-0.143929
1.50949
-0.117734
1.18733
-0.0772058
0.819656
-0.0349862
0.442995
-0.00831843
0.17165
0.0326104
-0.0154776
0.162939
-0.0424731
0.468088
-0.0702711
0.810002
-0.0932498
1.13938
-0.114138
1.4284
-0.137401
1.71306
-0.160665
2.01834
-0.182221
2.37387
-0.199229
2.78859
-0.208471
3.27228
-0.207886
3.20725
-0.202777
2.64007
-0.19513
2.18764
-0.184201
1.81819
-0.165701
1.49099
-0.133356
1.15498
-0.0855261
0.771826
-0.0374161
0.394885
-0.00856576
0.142799
0.0240446
-0.0196804
0.182619
-0.0557209
0.504129
-0.0934115
0.847693
-0.124211
1.17018
-0.15118
1.45537
-0.178893
1.74077
-0.204993
2.04444
-0.227485
2.39636
-0.243703
2.80481
-0.250676
3.27925
-0.247636
3.20421
-0.238209
2.63064
-0.225913
2.17534
-0.211613
1.80389
-0.189427
1.46881
-0.149118
1.11468
-0.0920673
0.714775
-0.0384612
0.341279
-0.0082729
0.112611
0.0157717
-0.0330871
0.215706
-0.0827286
0.55377
-0.131099
0.896063
-0.168747
1.20783
-0.201071
1.48769
-0.232694
1.77239
-0.259479
2.07122
-0.280784
2.41767
-0.293987
2.81801
-0.296458
3.28172
-0.28815
3.1959
-0.275959
2.61845
-0.263201
2.16258
-0.245764
1.78646
-0.21575
1.43879
-0.165837
1.06476
-0.0990535
0.647992
-0.0392535
0.281479
-0.00790867
0.0812663
0.00786307
-0.0473956
0.263102
-0.121637
0.628011
-0.185821
0.960247
-0.231701
1.25371
-0.270194
1.52619
-0.303052
1.80525
-0.328078
2.09625
-0.345833
2.43542
-0.354222
2.8264
-0.350321
3.27782
-0.336563
3.18214
-0.319958
2.60185
-0.301196
2.14382
-0.278272
1.76353
-0.241467
1.40199
-0.179427
1.00272
-0.100181
0.568745
-0.03714
0.218439
-0.00750156
0.0516278
0.000361516
-0.0345065
0.297608
-0.0989637
0.692469
-0.157939
1.01922
-0.206658
1.30243
-0.251447
1.57098
-0.291529
1.84533
-0.329435
2.13415
-0.364344
2.47033
-0.392457
2.85452
-0.411077
3.29644
-0.415893
3.18696
-0.409114
2.59507
-0.396983
2.13169
-0.371367
1.73792
-0.315147
1.34577
-0.221776
0.909352
-0.11395
0.460919
-0.041008
0.145497
-0.00875795
0.0193778
-0.00839644
-0.0126025
0.310211
-0.0479911
0.727857
-0.0907902
1.06202
-0.131161
1.3428
-0.171242
1.61106
-0.207721
1.88181
-0.242268
2.1687
-0.272786
2.50085
-0.296248
2.87798
-0.307694
3.30789
-0.302776
3.18204
-0.291626
2.58392
-0.273303
2.11337
-0.242074
1.70669
-0.193299
1.29699
-0.124289
0.840342
-0.056688
0.393318
-0.0212975
0.110106
-0.00486448
0.00294479
-0.0132609
-0.000324573
0.310535
-0.0240052
0.751538
-0.0539763
1.09199
-0.0855787
1.3744
-0.118826
1.6443
-0.150807
1.91379
-0.180473
2.19837
-0.206002
2.52638
-0.223876
2.89585
-0.229577
3.31359
-0.222685
3.17515
-0.206693
2.56793
-0.185079
2.09175
-0.157881
1.67949
-0.115114
1.25423
-0.0623241
0.787552
-0.0247462
0.35574
-0.0107066
0.0960669
-0.00310336
-0.00465847
-0.0163643
0.00114852
0.309387
-0.0140107
0.766697
-0.0353041
1.11329
-0.0595164
1.39861
-0.0856335
1.67042
-0.112609
1.94077
-0.138313
2.22407
-0.15998
2.54804
-0.174136
2.91001
-0.176317
3.31577
-0.165101
3.16393
-0.146398
2.54923
-0.12259
2.06794
-0.089758
1.64666
-0.0542234
1.21869
-0.0228327
0.756161
-0.0069169
0.339824
-0.00395215
0.0931021
-0.00189209
-0.00671854
-0.0182564
0.00520593
0.304181
-0.00254512
0.774448
-0.0212195
1.13196
-0.0432695
1.42066
-0.0662075
1.69336
-0.0888008
1.96336
-0.110041
2.24531
-0.127733
2.56574
-0.138494
2.92077
-0.137347
3.31462
-0.123302
3.14989
-0.101388
2.52731
-0.0741163
2.04067
-0.0479056
1.62045
-0.0186522
1.18944
0.00438416
0.733125
0.00777611
0.336432
0.00332057
0.0975577
0.000278713
-0.00367667
-0.0179777
0.00511805
0.299063
-0.000903333
0.780469
-0.0164019
1.14746
-0.0342516
1.43851
-0.0532899
1.7124
-0.0728167
1.98289
-0.0915964
2.26409
-0.107217
2.58136
-0.115929
2.92948
-0.112773
3.31147
-0.0971187
3.13423
-0.0750563
2.50525
-0.0498297
2.01544
-0.0196015
1.59022
0.00509643
1.16474
0.0171033
0.721118
0.0158072
0.337728
0.00777769
0.105587
0.00181122
0.0022898
-0.0161665
0.00526755
0.293795
0.00181002
0.783927
-0.01112
1.16039
-0.0280535
1.45545
-0.0459058
1.73025
-0.0635635
2.00054
-0.0801484
2.28068
-0.093647
2.59486
-0.100677
2.93651
-0.0970596
3.30785
-0.0810626
3.11824
-0.056899
2.48109
-0.030269
1.98881
-0.00846262
1.56841
0.0112964
1.14498
0.0226782
0.709736
0.018435
0.341971
0.00943259
0.11459
0.00242828
0.00929411
-0.0137382
0.00276745
0.291028
-0.000334839
0.787029
-0.0115772
1.17163
-0.0259137
1.46978
-0.0416191
1.74596
-0.0576858
2.01661
-0.0730907
2.29608
-0.0858399
2.6076
-0.0925658
2.94324
-0.0887544
3.30404
-0.0725059
3.10199
-0.0509302
2.45951
-0.0283446
1.96623
-0.00199431
1.54206
0.0165181
1.12647
0.0227974
0.703457
0.0188542
0.345914
0.00990101
0.123543
0.00270902
0.0164861
-0.0110292
0.00208241
0.288945
-0.000134086
0.789246
-0.0105747
1.18207
-0.0241634
1.48337
-0.0393704
1.76116
-0.0546077
2.03185
-0.0691552
2.31063
-0.0812787
2.61973
-0.0881126
2.95007
-0.0853657
3.30129
-0.0701024
3.08672
-0.0476065
2.43701
-0.0231023
1.94172
-0.00463767
1.5236
0.011932
1.1099
0.0210586
0.69433
0.0170311
0.349942
0.00924841
0.131325
0.00265081
0.0230837
-0.00837835
-0.000477146
0.289422
-0.00416397
0.792933
-0.0131366
1.19105
-0.0249666
1.4952
-0.0387356
1.77493
-0.0530912
2.0462
-0.0672521
2.32479
-0.0797459
2.63222
-0.0874847
2.95781
-0.0853709
3.29918
-0.0702715
3.07162
-0.0510913
2.41783
-0.0316316
1.92227
-0.00786577
1.49983
0.00906219
1.09297
0.015118
0.688274
0.0136195
0.35144
0.00758533
0.137359
0.00228975
0.0283793
-0.0060886
-0.000721265
0.290144
-0.00459598
0.796807
-0.0134773
1.19993
-0.0250435
1.50677
-0.0384985
1.78839
-0.0524992
2.0602
-0.0666178
2.33891
-0.0792631
2.64487
-0.0874893
2.96604
-0.0872811
3.29897
-0.074863
3.05921
-0.0549852
2.39796
-0.032474
1.89975
-0.0154545
1.48281
0.000305987
1.07721
0.0101069
0.678473
0.00953465
0.352013
0.00575681
0.141137
0.00185449
0.0322816
-0.00423412
-0.0022831
0.292427
-0.00766437
0.802188
-0.0160322
1.20829
-0.0266294
1.51736
-0.0391716
1.80093
-0.0526999
2.07373
-0.0666453
2.35285
-0.0797045
2.65793
-0.0893586
2.97569
-0.0910376
3.30065
-0.0793142
3.04748
-0.0621451
2.38079
-0.0440517
1.88166
-0.0214799
1.46024
-0.00480737
1.06054
0.00282839
0.670838
0.00563082
0.34921
0.00379521
0.142973
0.00137811
0.0346987
-0.002856
-0.00336303
0.29579
-0.00799731
0.806823
-0.0163416
1.21664
-0.0270034
1.52803
-0.0394069
1.81333
-0.0526652
2.08699
-0.0666944
2.36688
-0.0802925
2.67152
-0.0911361
2.98653
-0.0951413
3.30465
-0.0869552
3.0393
-0.0698364
2.36367
-0.0466208
1.85844
-0.0291319
1.44275
-0.013106
1.04451
-0.00111202
0.658844
0.00216038
0.345938
0.0023097
0.142824
0.000969793
0.0360386
-0.00188621
-0.00403969
0.299829
-0.0100419
0.812825
-0.0182746
1.22487
-0.0282667
1.53802
-0.0400381
1.8251
-0.0529869
2.09994
-0.0669669
2.38086
-0.0810869
2.68564
-0.093435
2.99888
-0.0995596
3.31078
-0.0931687
3.03291
-0.077408
2.34791
-0.0585742
1.83961
-0.0341244
1.4183
-0.015448
1.02584
-0.00530026
0.648696
-0.000131567
0.340769
0.0010336
0.141658
0.000694377
0.0363778
-0.00119184
-0.00402427
0.303854
-0.00986291
0.818664
-0.0181549
1.23316
-0.0282242
1.54809
-0.0399188
1.8368
-0.052662
2.11268
-0.0667908
2.39499
-0.0815272
2.70038
-0.095144
3.0125
-0.104017
3.31965
-0.101823
3.03071
-0.0867753
2.33286
-0.0617194
1.81456
-0.0398178
1.3964
-0.0197692
1.00579
-0.00558212
0.634509
-0.000665809
0.335853
0.000413869
0.140579
-0.000286452
0.0370781
-0.00147829
-0.00420656
0.30806
-0.0110379
0.825495
-0.0192674
1.24139
-0.0287943
1.55761
-0.0400026
1.84801
-0.0525604
2.12524
-0.0666903
2.40912
-0.0818338
2.71552
-0.0967558
3.02742
-0.107746
3.33064
-0.107205
3.03017
-0.0940016
2.31966
-0.0739118
1.79447
-0.0435593
1.36605
-0.0176176
0.979845
-0.00320785
0.620099
0.00462966
0.328015
0.00531428
0.139894
0.00268977
0.0397026
0.00121148
-0.00411006
0.31217
-0.0105459
0.831931
-0.0186496
1.2495
-0.0282204
1.56718
-0.0393603
1.85915
-0.0517271
2.13761
-0.0659206
2.42331
-0.0815629
2.73117
-0.0976404
3.0435
-0.111209
3.34421
-0.115341
3.0343
-0.104163
2.30848
-0.0778573
1.76816
-0.048533
1.33672
-0.0172673
0.948579
0.00615457
0.596677
0.0139795
0.32019
0.00757661
0.146297
-0.00174477
0.049024
-0.000533292
-0.00425601
0.316426
-0.0111999
0.838875
-0.0191253
1.25742
-0.0281851
1.57624
-0.0388596
1.86982
-0.0510362
2.14978
-0.0651774
2.43746
-0.0810817
2.74707
-0.0981448
3.06056
-0.113485
3.35955
-0.119704
3.04052
-0.111146
2.29992
-0.0911526
1.74817
-0.0533363
1.29891
-0.0114134
0.906656
0.0213918
0.563872
0.0444013
0.297181
0.0492884
0.14141
0.029667
0.0686454
0.0291338
-0.00411319
0.32054
-0.0105269
0.845288
-0.0181983
1.26509
-0.0272121
1.58526
-0.0377477
1.88036
-0.0496754
2.16171
-0.0637447
2.45152
-0.0799742
2.7633
-0.0979385
3.07853
-0.115578
3.37719
-0.126197
3.05114
-0.121565
2.29529
-0.0969749
1.72358
-0.0608399
1.26277
-0.0114332
0.85725
0.0353507
0.517088
0.0687622
0.263769
0.0561718
0.154
0.0242935
0.100524
0.0534273
-0.004085
0.324625
-0.0108098
0.852013
-0.0182589
1.27254
-0.0267297
1.59373
-0.0367947
1.89042
-0.0484796
2.1734
-0.0624335
2.46548
-0.0787806
2.77965
-0.0973871
3.09713
-0.116397
3.3962
-0.128204
3.06295
-0.127648
2.29473
-0.112486
1.70841
-0.0716358
1.22192
-0.0149543
0.800568
0.0552754
0.446859
0.149729
0.169316
0.21018
0.0935486
0.187397
0.123307
0.240825
-0.0039284
0.328553
-0.010207
0.858292
-0.0175732
1.27991
-0.0262642
1.60242
-0.0366738
1.90083
-0.0487928
2.18552
-0.0636264
2.48031
-0.0815969
2.79762
-0.10288
3.11842
-0.12657
3.41989
-0.145211
3.08159
-0.150949
2.30047
-0.132858
1.69032
-0.095012
1.18407
-0.0278816
0.733438
0.0319991
0.386978
-0.0390265
0.240341
-0.351637
0.406159
-0.94616
0.71783
0.902723
-1.60806
-0.00383745
0.33239
-0.0103817
0.864836
-0.0176323
1.28716
-0.0259865
1.61077
-0.036154
1.911
-0.0484108
2.19777
-0.0637271
2.49563
-0.0826503
2.81654
-0.105761
3.14153
-0.132587
3.44672
-0.155139
3.10414
-0.165794
2.31113
-0.166166
1.6907
-0.13378
1.15169
-0.0949726
0.694631
-0.199915
0.49192
-0.693985
0.734412
-1.45698
1.16916
-2.06094
1.32179
1.21533
-2.37355
-0.00360587
0.335996
-0.00957995
0.87081
-0.0165666
1.29415
-0.0249425
1.61915
-0.0351736
1.92123
-0.0475307
2.21013
-0.0632337
2.51133
-0.0831232
2.83643
-0.108212
3.16662
-0.139321
3.47782
-0.169625
3.13444
-0.189558
2.33106
-0.189552
1.69069
-0.165981
1.12812
-0.251985
0.780635
-0.752805
0.99274
-1.56283
1.54444
-2.11853
1.72485
-2.3554
1.55866
1.32867
-2.46873
-0.00351083
0.339507
-0.00952904
0.876828
-0.0163295
1.30095
-0.024329
1.62715
-0.0342558
1.93116
-0.0466775
2.22255
-0.0627727
2.52743
-0.0835171
2.85718
-0.11039
3.19349
-0.14487
3.5123
-0.180153
3.16973
-0.207195
2.3581
-0.226828
1.71032
-0.29748
1.19877
-0.671548
1.1547
-1.44884
1.77003
-2.03306
2.12865
-2.27116
1.96296
-2.38337
1.67087
1.3918
-2.4465
-0.00319815
0.342705
-0.00856898
0.882199
-0.0150011
1.30738
-0.0229354
1.63508
-0.0329234
1.94114
-0.0453851
2.23501
-0.0617255
2.54377
-0.0832605
2.87871
-0.111988
3.22222
-0.150827
3.55114
-0.195031
3.21393
-0.235004
2.39807
-0.268876
1.74419
-0.451727
1.38162
-1.09824
1.80121
-1.79583
2.46763
-2.11113
2.44395
-2.2579
2.10973
-2.33958
1.75255
1.45798
-2.40577
-0.00320794
0.345913
-0.00883285
0.887824
-0.0153262
1.31387
-0.0231368
1.64289
-0.0331821
1.95119
-0.0459569
2.24779
-0.0628991
2.56071
-0.0854468
2.90126
-0.116024
3.25279
-0.158298
3.59342
-0.208115
3.26375
-0.250915
2.44087
-0.335149
1.82843
-0.735874
1.78235
-1.49471
2.56004
-1.96322
2.93614
-2.16273
2.64346
-2.26849
2.21549
-2.34575
1.82981
1.52105
-2.40881
-0.00326345
0.349177
-0.0087545
0.893315
-0.0155063
1.32062
-0.023949
1.65134
-0.0347193
1.96196
-0.0481799
2.26125
-0.0659573
2.57849
-0.0897904
2.92509
-0.12256
3.28556
-0.169419
3.64028
-0.225889
3.32022
-0.285236
2.50022
-0.470601
2.01379
-1.04515
2.3569
-1.68106
3.19595
-1.95226
3.20735
-2.09843
2.78963
-2.21227
2.32933
-2.30599
1.92353
1.58256
-2.3675
-0.00340611
0.352583
-0.00969591
0.899605
-0.0169845
1.32791
-0.0256595
1.66001
-0.0366886
1.97299
-0.0507708
2.27533
-0.069527
2.59724
-0.0947472
2.95031
-0.129581
3.3204
-0.179986
3.69068
-0.241081
3.38131
-0.324032
2.58317
-0.60759
2.29735
-1.26377
3.01308
-1.74994
3.68212
-1.95699
3.41439
-2.09604
2.92868
-2.22001
2.45329
-2.3301
2.03363
1.64124
-2.38879
-0.00333902
0.355922
-0.00933637
0.905602
-0.0169295
1.33551
-0.0264435
1.66953
-0.0383874
1.98493
-0.0532631
2.29021
-0.0729142
2.61689
-0.0994535
2.97685
-0.136458
3.3574
-0.190845
3.74507
-0.25843
3.4489
-0.381612
2.70635
-0.770305
2.68604
-1.40965
3.65243
-1.75917
4.03163
-1.93153
3.58676
-2.03308
3.03022
-2.12177
2.54199
-2.18831
2.10017
1.63383
-2.1809
-0.00336754
0.359289
-0.0103772
0.912612
-0.0186497
1.34378
-0.0283543
1.67923
-0.040506
1.99708
-0.0560033
2.3057
-0.0766853
2.63758
-0.104673
3.00484
-0.143677
3.39641
-0.200108
3.8015
-0.276778
3.52557
-0.445882
2.87546
-0.902486
3.14265
-1.45955
4.20949
-1.71978
4.29186
-1.87092
3.7379
-1.9646
3.1239
-1.9652
2.54258
-1.89512
2.0301
1.59581
-1.85711
-0.00314463
0.362434
-0.00953539
0.919003
-0.0179912
1.35223
-0.0286241
1.68986
-0.0417597
2.01022
-0.0579155
2.32186
-0.0790443
2.6587
-0.107465
3.03326
-0.147136
3.43608
-0.203975
3.85834
-0.289357
3.61095
-0.492949
3.07905
-0.985869
3.63557
-1.42586
4.64948
-1.59012
4.45613
-1.65669
3.80447
-1.66107
3.12828
-1.51351
2.39502
-1.0144
1.53099
0.581416
-0.00276051
0.365194
-0.0104961
0.926738
-0.0198116
1.36155
-0.0306515
1.7007
-0.0441738
2.02374
-0.0614304
2.33912
-0.0844835
2.68176
-0.115755
3.06453
-0.159423
3.47974
-0.222162
3.92108
-0.324193
3.71298
-0.578176
3.33303
-1.1206
4.17799
-1.4776
5.00648
-1.57631
4.55484
-1.57447
3.80263
-1.47103
3.02483
-1.23241
2.15641
-0.629797
0.928374
-0.0483814
-0.00247023
0.367665
-0.00879746
0.933066
-0.0180773
1.37083
-0.0302526
1.71288
-0.0454921
2.03898
-0.0643928
2.35802
-0.0893355
2.7067
-0.123208
3.0984
-0.171312
3.52785
-0.24137
3.99114
-0.364241
3.83585
-0.678378
3.64717
-1.23886
4.73847
-1.4973
5.26492
-1.55625
4.61379
-1.53407
3.78045
-1.3325
2.82327
-0.780487
1.60439
-0.108342
0.256229
-0.156723
-0.00149736
0.369162
-0.00940654
0.940975
-0.0196413
1.38106
-0.0318118
1.72505
-0.0470757
2.05425
-0.066847
2.37779
-0.0936859
2.73354
-0.130603
3.13532
-0.182474
3.57972
-0.259456
4.06812
-0.407513
3.98391
-0.77992
4.01958
-1.31553
5.27408
-1.49169
5.44108
-1.52236
4.64446
-1.43459
3.69269
-1.09884
2.48751
-0.312326
0.817881
0.0247526
-0.0808499
-0.131971
-0.000972163
0.370134
-0.00622143
0.946224
-0.0158636
1.39071
-0.0294814
1.73867
-0.0466794
2.07144
-0.0682715
2.39938
-0.0970535
2.76232
-0.136282
3.17455
-0.191418
3.63486
-0.278124
4.15482
-0.452918
4.1587
-0.890733
4.45739
-1.36098
5.74432
-1.47572
5.55582
-1.479
4.64775
-1.25543
3.46911
-0.684904
1.91699
-0.0630525
0.19603
0.0300187
-0.173921
-0.101952
0.000104482
0.37003
-0.0059596
0.952288
-0.0163967
1.40114
-0.0297245
1.75199
-0.0462316
2.08795
-0.0682818
2.42143
-0.0985691
2.79261
-0.140383
3.21636
-0.198466
3.69294
-0.293281
4.24964
-0.494012
4.35943
-0.981455
4.94483
-1.35429
6.11715
-1.42031
5.62185
-1.37411
4.60154
-1.08609
3.1811
-0.323201
1.1541
0.00350076
-0.130672
0.0141972
-0.184617
-0.0877549
0.00327944
0.36675
0.000944633
0.954623
-0.00909948
1.41119
-0.0238778
1.76677
-0.0422913
2.10636
-0.06635
2.44549
-0.0983944
2.82465
-0.141814
3.25978
-0.202925
3.75405
-0.307012
4.35373
-0.533447
4.58587
-1.04479
5.45618
-1.32045
6.39281
-1.35896
5.66036
-1.2203
4.46288
-0.770598
2.73139
-0.0698048
0.453303
0.0436516
-0.244128
0.023762
-0.164728
-0.0639929
0.00426625
0.362484
0.00225501
0.956634
-0.00768854
1.42113
-0.0211303
1.78021
-0.0378525
2.12309
-0.0616568
2.46929
-0.0942294
2.85723
-0.139434
3.30499
-0.202906
3.81752
-0.313817
4.46464
-0.570791
4.84284
-1.065
5.95038
-1.25353
6.58135
-1.26486
5.67169
-1.04685
4.24487
-0.459979
2.14453
-0.018262
0.0115859
-0.00663174
-0.255758
0.00478674
-0.176146
-0.0592062
0.00871836
0.353766
0.0106417
0.954711
0.00453036
1.42724
-0.00885176
1.7936
-0.0279174
2.14215
-0.0533913
2.49477
-0.0871326
2.89097
-0.132669
3.35052
-0.197932
3.88278
-0.316081
4.58279
-0.593102
5.11986
-1.04285
6.40013
-1.16854
6.70703
-1.15144
5.6546
-0.892036
3.98546
-0.265043
1.51753
-0.0703943
-0.183062
-0.0388567
-0.287296
-0.0144379
-0.200565
-0.073644
0.0112724
0.342493
0.0158035
0.95018
0.010676
1.43237
0.000652235
1.80362
-0.0169439
2.15975
-0.0403167
2.51814
-0.0727693
2.92342
-0.118403
3.39616
-0.184164
3.94854
-0.305137
4.70376
-0.591454
5.40618
-0.978496
6.78717
-1.04039
6.76892
-0.974189
5.5884
-0.676506
3.68778
-0.0717894
0.912815
0.0142815
-0.269133
-0.00051735
-0.272497
-0.00198594
-0.199097
-0.07563
0.0185136
0.32398
0.0307767
0.937917
0.0307566
1.43239
0.0202804
1.8141
0.00266004
2.17737
-0.0205998
2.5414
-0.0531406
2.95596
-0.0975452
3.44056
-0.161854
4.01285
-0.283273
4.82518
-0.560412
5.68332
-0.866132
7.09289
-0.904406
6.8072
-0.799808
5.4838
-0.441545
3.32951
0.0684347
0.402835
0.0798258
-0.280524
0.0596312
-0.252303
0.0221865
-0.161652
-0.0534435
0.02422
0.29976
0.0422599
0.919877
0.045207
1.42944
0.0388391
1.82046
0.0271459
2.18906
0.00669348
2.56185
-0.0221738
2.98483
-0.0634145
3.4818
-0.124576
4.07402
-0.239293
4.93989
-0.487641
5.93167
-0.709352
7.3146
-0.7324
6.83024
-0.634244
5.38565
-0.300603
2.99587
0.0090959
0.0931355
0.0246457
-0.296074
0.0354272
-0.263084
0.0168037
-0.143028
-0.0366398
0.0351878
0.264572
0.0660377
0.889027
0.0785432
1.41694
0.0760738
1.82293
0.0652477
2.19989
0.04568
2.58142
0.0180867
3.01242
-0.0203696
3.52026
-0.0754597
4.12911
-0.1752
5.03964
-0.375049
6.13152
-0.529053
7.46861
-0.555345
6.85654
-0.460607
5.29091
-0.192754
2.72802
-0.07611
-0.0235082
-0.053063
-0.319121
-0.0191357
-0.297011
-0.000160864
-0.162003
-0.0368006
0.0446819
0.21989
0.0873055
0.846403
0.10747
1.39677
0.112374
1.81803
0.108963
2.2033
0.0959018
2.59448
0.075793
3.03253
0.0445707
3.55148
-0.00635823
4.18003
-0.0804237
5.1137
-0.2185
6.26959
-0.308169
7.55828
-0.317504
6.86587
-0.257972
5.23138
-0.10251
2.57256
-0.112851
-0.0131674
-0.0898195
-0.342153
-0.0542503
-0.332581
-0.0152015
-0.201052
-0.0520022
0.0580416
0.161848
0.12152
0.782925
0.160033
1.35826
0.173773
1.80429
0.174125
2.20295
0.163717
2.60489
0.147949
3.0483
0.124576
3.57485
0.08929
4.21532
0.0400839
5.16291
-0.0131115
6.32279
-0.043501
7.58867
-0.0430069
6.86538
-0.00265579
5.19102
0.0421989
2.5277
-0.108007
0.137039
-0.115966
-0.334194
-0.0741653
-0.374381
-0.0115069
-0.26371
-0.0635091
0.0598025
0.102046
0.151183
0.691544
0.208388
1.30105
0.236087
1.77659
0.248399
2.19064
0.248636
2.60465
0.242954
3.05398
0.231452
3.58636
0.212536
4.23424
0.190717
5.18473
0.231719
6.28179
0.285853
7.53453
0.322709
6.82852
0.281647
5.23209
0.110807
2.69854
-0.142424
0.39027
-0.214927
-0.261691
-0.151366
-0.437942
-0.0423149
-0.372762
-0.105824
0.0490341
0.0530117
0.184731
0.555848
0.282837
1.20295
0.3311
1.72833
0.351801
2.16993
0.359618
2.59683
0.357893
3.0557
0.35864
3.58561
0.360322
4.23255
0.372754
5.1723
0.521431
6.13311
0.658072
7.39789
0.659024
6.82757
0.438668
5.45244
-0.0539525
3.19116
-0.427951
0.764269
-0.485161
-0.204482
-0.378813
-0.54429
-0.18748
-0.564094
-0.293304
0.0341819
0.0188298
0.21903
0.370999
0.348259
1.07372
0.427459
1.64913
0.469551
2.12784
0.493998
2.57239
0.50382
3.04588
0.51765
3.57178
0.540301
4.2099
0.591309
5.12129
0.807723
5.91669
1.12966
7.07595
1.25981
6.69742
1.26174
5.45051
0.765027
3.68788
0.0265851
1.50271
-0.399362
0.221465
-0.500878
-0.442773
-0.279905
-0.785067
-0.573209
0.030394
-0.0115643
0.233365
0.168028
0.451444
0.855642
0.571308
1.52926
0.626286
2.07287
0.657759
2.54091
0.677106
3.02654
0.701018
3.54787
0.748164
4.16276
0.847257
5.02219
1.17447
5.58948
1.74679
6.50363
2.08656
6.35765
2.34357
5.19351
2.25146
3.77998
1.46825
2.28593
0.740742
0.948971
0.225998
0.0719709
-0.00866409
-0.550405
-0.581874
0.0228835
-0.0344478
0.154912
0.0359992
0.493995
0.516558
0.694793
1.32846
0.800798
1.96686
0.856305
2.48541
0.893851
2.98899
0.918472
3.52325
0.980766
4.10046
1.10697
4.89599
1.4829
5.21356
2.24688
5.73965
2.62979
5.97474
2.80873
5.01457
2.65971
3.929
2.1615
2.78414
1.51006
1.6004
0.942188
0.639847
0.3596
0.0321828
-0.222273
0.00154262
-0.0359904
0.0756155
-0.0380737
0.407887
0.184287
0.721525
1.01483
0.868316
1.82007
0.905419
2.4483
0.913532
2.98088
0.898146
3.53863
0.896966
4.10164
0.932792
4.86016
1.09499
5.05136
1.53894
5.29569
1.71315
5.80054
1.75659
4.97113
1.66805
4.01753
1.41356
3.03864
1.00425
2.00971
0.583903
1.06019
0.246579
0.369507
0.0243061
0.00393306
-0.0399234
0.0420626
-0.0762032
0.203775
0.022574
0.549685
0.668917
0.734739
1.63502
0.80388
2.37916
0.816364
2.96839
0.809087
3.54591
0.790903
4.11983
0.810075
4.84099
0.892653
4.96878
1.20356
4.98478
1.38569
5.61841
1.40292
4.95389
1.34665
4.0738
1.18292
3.20237
0.893778
2.29885
0.56357
1.3904
0.23388
0.699197
0.258186
-1.42985e-05
-0.0399091
0.0104821
-0.0866996
0.0781213
-0.0450652
0.378257
0.368782
0.591188
1.42208
0.689945
2.2804
0.714184
2.94415
0.713566
3.54653
0.684968
4.14843
0.679619
4.84634
0.709713
4.93869
0.900071
4.79443
1.07453
5.44395
1.07625
4.95218
1.02251
4.12754
0.898554
3.32632
0.689527
2.50788
0.428092
1.65183
0.174181
0.953109
0.432367
-0.00488912
-0.03502
-0.00367524
-0.0879135
0.0304493
-0.0791897
0.239754
0.159477
0.470478
1.19136
0.572544
2.17834
0.598464
2.91823
0.599915
3.54508
0.572303
4.17604
0.548678
4.86997
0.552612
4.93475
0.661614
4.68542
0.802477
5.30309
0.792871
4.96178
0.735654
4.18476
0.639229
3.42275
0.491053
2.65606
0.301002
1.84188
0.115403
1.13871
0.54777
0.000714612
-0.0357346
0.012155
-0.0993538