/*--------------------------------*- C++ -*----------------------------------*\
| =========                 |                                                 |
| \\      /  F ield         | OpenFOAM: The Open Source CFD Toolbox           |
|  \\    /   O peration     | Version:  4.0                                   |
|   \\  /    A nd           | Web:      www.OpenFOAM.org                      |
|    \\/     M anipulation  |                                                 |
\*---------------------------------------------------------------------------*/
FoamFile
{
    version     2.0;
    format      ascii;
    class       volScalarField;
    location    "39";
    object      p;
}
// * * * * * * * * * * * * * * * * * * * * * * * * * * * * * * * * * * * * * //

dimensions      [0 2 -2 0 0 0 0];

internalField   nonuniform List<scalar> 
2200
(
0.803275
0.781774
0.765863
0.750191
0.735576
0.723044
0.712674
0.704544
0.698815
0.695801
0.696219
0.699978
0.706251
0.714765
0.725411
0.738148
0.752909
0.768779
0.784794
0.806299
0.735705
0.732446
0.72952
0.725397
0.719925
0.713441
0.70681
0.700826
0.69628
0.693818
0.694227
0.697471
0.702597
0.709013
0.71596
0.722681
0.728323
0.732442
0.735324
0.738663
0.695831
0.69605
0.698096
0.699423
0.699798
0.698926
0.696916
0.694215
0.691633
0.690093
0.690565
0.692933
0.696147
0.699324
0.701641
0.702651
0.702374
0.701321
0.699602
0.69936
0.67334
0.674789
0.677383
0.679835
0.682273
0.684281
0.685414
0.685617
0.685204
0.684861
0.685412
0.686688
0.687811
0.688135
0.687406
0.685697
0.683506
0.681281
0.678681
0.677268
0.659017
0.660986
0.663806
0.666641
0.669488
0.672299
0.674737
0.67656
0.677729
0.678444
0.679078
0.679455
0.67914
0.677966
0.676048
0.67363
0.671044
0.668304
0.665513
0.663583
0.651788
0.653387
0.655581
0.658092
0.660728
0.663357
0.665903
0.668271
0.670221
0.671623
0.672367
0.672284
0.671354
0.669765
0.667801
0.665619
0.663267
0.660915
0.658809
0.657231
0.648445
0.64947
0.65073
0.652577
0.654699
0.656839
0.65898
0.661203
0.663344
0.665085
0.665972
0.665841
0.664936
0.663638
0.662174
0.660544
0.658795
0.657181
0.656047
0.655031
0.645844
0.646511
0.64714
0.648439
0.650048
0.651715
0.653421
0.655274
0.657228
0.659058
0.660138
0.660268
0.659821
0.659082
0.658206
0.657164
0.656034
0.655054
0.654578
0.653907
0.642752
0.643195
0.643593
0.644588
0.645844
0.647201
0.648642
0.650208
0.651906
0.653675
0.654992
0.655595
0.655708
0.655525
0.655117
0.654543
0.65387
0.65327
0.653049
0.652591
0.638915
0.639215
0.639571
0.640439
0.64154
0.642792
0.644185
0.645712
0.647378
0.649177
0.650797
0.651899
0.652463
0.652645
0.652534
0.652223
0.651805
0.651389
0.65122
0.650904
0.634393
0.634594
0.634973
0.635812
0.636914
0.638222
0.63974
0.641444
0.643319
0.645374
0.647363
0.648849
0.649731
0.650123
0.650189
0.650053
0.649775
0.649464
0.649302
0.649076
0.629379
0.629514
0.629893
0.630749
0.631949
0.633426
0.63515
0.637101
0.639289
0.641733
0.644169
0.646054
0.647227
0.647841
0.648052
0.64804
0.64787
0.647663
0.647527
0.647364
0.624149
0.62424
0.624613
0.625449
0.626701
0.628318
0.630276
0.632572
0.635204
0.638182
0.641192
0.643569
0.645075
0.645929
0.646328
0.646413
0.646408
0.646339
0.646248
0.646121
0.618619
0.618674
0.619057
0.619901
0.621212
0.622948
0.625117
0.627831
0.631039
0.634751
0.638434
0.641276
0.643146
0.644311
0.645014
0.645395
0.645601
0.645658
0.645616
0.6455
0.612562
0.612585
0.612993
0.613884
0.615343
0.617259
0.619663
0.622685
0.626455
0.630936
0.635439
0.63897
0.641433
0.643141
0.644306
0.645038
0.645428
0.645607
0.645614
0.645505
0.605997
0.605913
0.606352
0.607333
0.60898
0.611131
0.613807
0.61717
0.621416
0.626668
0.632227
0.636864
0.640248
0.642683
0.64435
0.645377
0.645971
0.646274
0.64633
0.646237
0.598841
0.598835
0.599205
0.600231
0.602128
0.60459
0.607715
0.611664
0.616687
0.622952
0.629802
0.63569
0.640054
0.643132
0.645244
0.646641
0.647531
0.647976
0.648085
0.648
0.590752
0.590747
0.591174
0.592383
0.594594
0.597494
0.601303
0.606242
0.612484
0.620208
0.628559
0.635642
0.640848
0.644606
0.647273
0.649094
0.650248
0.650835
0.651003
0.650916
0.581412
0.581338
0.581889
0.583392
0.585926
0.589392
0.594057
0.600139
0.607926
0.617532
0.627711
0.636222
0.642519
0.647102
0.650419
0.652735
0.654198
0.65497
0.655205
0.655108
0.570326
0.570214
0.570837
0.572602
0.575631
0.579787
0.585364
0.59269
0.602149
0.613878
0.626359
0.636835
0.644686
0.650475
0.654676
0.657603
0.659496
0.660489
0.660795
0.660673
0.557117
0.556986
0.557682
0.559694
0.56325
0.568294
0.575152
0.584145
0.595695
0.609984
0.625188
0.637992
0.647581
0.654718
0.659951
0.663727
0.666193
0.667446
0.667829
0.667669
0.540609
0.540516
0.54147
0.543973
0.548446
0.554859
0.563569
0.574965
0.589403
0.606881
0.625108
0.640385
0.651832
0.66043
0.66681
0.671406
0.674428
0.675921
0.676356
0.676147
0.519856
0.519693
0.520989
0.524383
0.530303
0.538795
0.550211
0.564911
0.583042
0.604382
0.62613
0.644094
0.657538
0.667618
0.675111
0.680564
0.68414
0.68586
0.686342
0.68608
0.492553
0.492579
0.494666
0.499456
0.507674
0.519333
0.534536
0.553437
0.576015
0.601902
0.627723
0.648754
0.664418
0.676196
0.684996
0.691355
0.695455
0.697367
0.697864
0.697551
0.455798
0.456088
0.459683
0.4674
0.479539
0.496024
0.516407
0.540634
0.568516
0.599577
0.62987
0.654267
0.672382
0.685987
0.696204
0.703642
0.708327
0.710416
0.710909
0.710508
0.406307
0.406747
0.413837
0.426829
0.445425
0.469007
0.496307
0.527162
0.5613
0.598161
0.633274
0.661132
0.681703
0.697244
0.709006
0.717476
0.722604
0.724706
0.725052
0.724636
0.34035
0.343292
0.358631
0.380064
0.407597
0.4399
0.475294
0.513674
0.554826
0.598194
0.63871
0.670678
0.694469
0.712546
0.726215
0.736228
0.742195
0.744438
0.744603
0.744395
0.265115
0.27483
0.300444
0.331823
0.369456
0.410769
0.454309
0.500472
0.549031
0.599415
0.646124
0.683101
0.710695
0.731826
0.748174
0.760023
0.767014
0.769209
0.769248
0.769374
0.198122
0.21315
0.245224
0.285256
0.332341
0.38252
0.434045
0.487939
0.543801
0.601025
0.653645
0.695149
0.726308
0.750192
0.768367
0.781663
0.78945
0.792614
0.793217
0.793212
0.147285
0.160761
0.19816
0.244117
0.29839
0.355921
0.414858
0.476056
0.538859
0.602696
0.660832
0.706571
0.740632
0.766603
0.786456
0.801297
0.809584
0.813029
0.813615
0.813692
0.105393
0.117994
0.158969
0.20881
0.268494
0.331847
0.397178
0.464862
0.533968
0.603819
0.667249
0.716836
0.753436
0.781164
0.802092
0.817652
0.826565
0.830337
0.831045
0.831161
0.0693788
0.0822217
0.125623
0.178308
0.242251
0.310273
0.38097
0.454255
0.529003
0.604649
0.673213
0.725967
0.764567
0.793544
0.815285
0.831061
0.840359
0.844446
0.845318
0.845425
0.0378565
0.0508558
0.0962498
0.151465
0.218902
0.290788
0.366032
0.444197
0.524098
0.604964
0.677473
0.733157
0.773615
0.803618
0.825674
0.841759
0.851574
0.855901
0.856962
0.857051
0.0096256
0.0226714
0.069738
0.127259
0.197669
0.27284
0.351981
0.434337
0.518694
0.603937
0.680751
0.739283
0.781073
0.811843
0.834579
0.850842
0.86102
0.865623
0.866787
0.866852
-0.0161235
-0.00311997
0.0452177
0.104945
0.177971
0.255981
0.338465
0.424472
0.512947
0.602794
0.683672
0.744363
0.787717
0.819384
0.842558
0.859019
0.869435
0.874097
0.875208
0.875111
-0.0402998
-0.0269521
0.0221654
0.083956
0.159292
0.239832
0.325287
0.414634
0.506879
0.600658
0.684691
0.748673
0.793721
0.826114
0.849825
0.866401
0.876492
0.88123
0.882355
0.882189
-0.062999
-0.0494907
0.000361277
0.0639637
0.141297
0.224124
0.312226
0.404483
0.49993
0.59734
0.685839
0.752875
0.799328
0.832725
0.85645
0.873041
0.883126
0.887679
0.888922
0.888811
-0.0844059
-0.0709406
-0.0203921
0.0447517
0.123781
0.208638
0.299057
0.393876
0.492416
0.593724
0.686177
0.755723
0.804765
0.839011
0.863094
0.879617
0.889541
0.894021
0.895116
0.895042
-0.105004
-0.0913359
-0.0402767
0.0261352
0.106599
0.19325
0.285759
0.383022
0.484555
0.58928
0.685303
0.758778
0.810039
0.845466
0.869963
0.886293
0.896013
0.90021
0.901262
0.901152
-0.125247
-0.110957
-0.0595087
0.00798763
0.0896742
0.177936
0.272387
0.371891
0.476021
0.583876
0.683897
0.761083
0.814998
0.852283
0.877284
0.893357
0.902484
0.9064
0.907195
0.907069
-0.145175
-0.130039
-0.0782323
-0.00976283
0.0729868
0.162696
0.258903
0.360395
0.466801
0.577599
0.681489
0.762464
0.819883
0.859428
0.885348
0.901035
0.909298
0.912353
0.912899
0.912729
-0.164654
-0.148771
-0.0965197
-0.0271085
0.0565776
0.147534
0.245247
0.348497
0.457058
0.570722
0.678197
0.76309
0.824301
0.866918
0.8945
0.909892
0.916563
0.918142
0.918155
0.918017
-0.183544
-0.167099
-0.114353
-0.0440489
0.0404575
0.132466
0.231462
0.336311
0.446921
0.563016
0.673218
0.762364
0.828007
0.874716
0.905024
0.920744
0.925393
0.923445
0.922732
0.923495
-0.201818
-0.184963
-0.131686
-0.0605504
0.0246754
0.117565
0.217655
0.323913
0.436236
0.554219
0.667196
0.760554
0.830865
0.882406
0.916898
0.934383
0.937607
0.931417
0.925961
0.92414
-0.219446
-0.202241
-0.148451
-0.0765753
0.00928292
0.102914
0.203909
0.311302
0.424996
0.544729
0.660256
0.756885
0.832021
0.889577
0.929904
0.951591
0.957661
0.945403
0.942915
0.947318
-0.236441
-0.218887
-0.164592
-0.0920582
-0.00564404
0.0885948
0.1903
0.298566
0.413377
0.534626
0.652059
0.751549
0.831488
0.89504
0.942882
0.972078
0.984509
0.957718
0.914929
0.876226
-0.252732
-0.234898
-0.180139
-0.107062
-0.020202
0.0744868
0.176681
0.285555
0.401213
0.523654
0.642559
0.744272
0.827767
0.897677
0.954459
0.99497
1.02215
1.01289
1.0298
1.08455
-0.268282
-0.250335
-0.195188
-0.121722
-0.0345694
0.0603672
0.162806
0.271996
0.388121
0.51129
0.631216
0.734163
0.820189
0.894689
0.956246
1.00049
1.02105
1.00766
0.97048
0.982515
-0.283054
-0.265157
-0.209694
-0.135991
-0.0486768
0.0463365
0.148815
0.258053
0.374255
0.49762
0.617898
0.721025
0.806895
0.881768
0.942903
0.985065
0.980496
0.932176
0.870799
0.859411
-0.297051
-0.279369
-0.223661
-0.149876
-0.0625278
0.032396
0.134729
0.243756
0.359647
0.482657
0.602603
0.704692
0.787997
0.857406
0.911939
0.926726
0.895424
0.822387
0.749642
0.731081
-0.310302
-0.292955
-0.237099
-0.163398
-0.0761488
0.0185276
0.120538
0.229109
0.344337
0.466424
0.585107
0.684876
0.762419
0.819348
0.849391
0.840137
0.787974
0.688321
0.602125
0.582035
-0.323267
-0.306332
-0.250407
-0.176927
-0.0898971
0.0044104
0.10596
0.21388
0.328127
0.448711
0.565215
0.661273
0.731674
0.772641
0.768537
0.735922
0.629665
0.509089
0.402886
0.377551
-0.336843
-0.32028
-0.264282
-0.191091
-0.104351
-0.0104461
0.0905692
0.197706
0.310729
0.4293
0.542734
0.633686
0.696411
0.71427
0.680397
0.595774
0.441459
0.290217
0.162483
0.136306
-0.351561
-0.335232
-0.279054
-0.206127
-0.119694
-0.0261772
0.0742676
0.180522
0.292126
0.40825
0.517783
0.603229
0.654839
0.645505
0.591729
0.444226
0.244479
0.0319697
-0.147826
-0.194871
-0.367519
-0.351254
-0.294775
-0.22206
-0.135901
-0.0427501
0.0570844
0.162353
0.272364
0.385665
0.49016
0.570108
0.606918
0.56613
0.478685
0.290231
0.0571189
-0.233475
-0.556865
-0.702431
-0.384803
-0.36847
-0.311568
-0.238969
-0.153022
-0.0602266
0.0389589
0.143142
0.251411
0.361615
0.460224
0.534144
0.553732
0.482022
0.345546
0.137408
-0.100325
-0.448299
-1.04101
-1.61603
-0.403473
-0.386935
-0.329491
-0.256917
-0.171075
-0.0785934
0.0199406
0.123
0.229457
0.33649
0.429188
0.495497
0.497246
0.407033
0.215937
-0.0217707
-0.229519
-0.470429
-1.03764
-2.57828
-0.423542
-0.406766
-0.348651
-0.276022
-0.190218
-0.0980487
-0.000205144
0.101646
0.206162
0.309905
0.39667
0.453731
0.436296
0.347932
0.120442
-0.1233
-0.275767
-0.317924
-0.314862
-0.70879
-0.444921
-0.428046
-0.369208
-0.296584
-0.210847
-0.119075
-0.0220756
0.0783611
0.180624
0.280478
0.361899
0.408782
0.37541
0.299208
0.068585
-0.140048
-0.255171
-0.265367
-0.213991
-0.255632
-0.46753
-0.450692
-0.391162
-0.318652
-0.233025
-0.141788
-0.0458159
0.0529639
0.152591
0.24799
0.324815
0.361886
0.32143
0.247491
0.0350893
-0.132348
-0.216644
-0.224201
-0.271856
-0.277959
-0.491285
-0.474466
-0.414418
-0.342226
-0.256744
-0.166194
-0.071444
0.0254514
0.122147
0.212989
0.285289
0.313205
0.274003
0.187062
0.00703462
-0.122878
-0.196425
-0.168305
-0.190598
-0.192401
-0.516007
-0.498981
-0.43889
-0.367199
-0.281829
-0.192197
-0.0988693
-0.00406886
0.0893928
0.175677
0.243362
0.261411
0.232114
0.119878
-0.0274091
-0.117643
-0.163947
-0.205313
-0.181858
-0.189837
-0.541287
-0.52392
-0.464416
-0.393385
-0.308071
-0.219624
-0.12789
-0.0353563
0.0545357
0.136537
0.200254
0.208124
0.189832
0.0576682
-0.0660219
-0.133336
-0.120295
-0.179577
-0.1568
-0.162112
-0.566451
-0.548875
-0.490828
-0.420377
-0.335098
-0.248193
-0.158181
-0.0680432
0.0178396
0.0959071
0.157059
0.156966
0.139075
0.00442153
-0.0957007
-0.152116
-0.132021
-0.15613
-0.159014
-0.158906
-0.59093
-0.573567
-0.517264
-0.447443
-0.362599
-0.277521
-0.189306
-0.101677
-0.0201051
0.05415
0.113751
0.108515
0.0833388
-0.0408573
-0.112931
-0.149317
-0.174238
-0.158125
-0.163964
-0.160416
-0.61395
-0.597303
-0.542761
-0.473766
-0.390131
-0.307022
-0.220659
-0.13559
-0.0583396
0.0116674
0.0708695
0.062965
0.0270406
-0.0787033
-0.131192
-0.130695
-0.191116
-0.154733
-0.163092
-0.156802
-0.634632
-0.619099
-0.566286
-0.498377
-0.417284
-0.335897
-0.251503
-0.169087
-0.0957687
-0.0309712
0.0278331
0.0189215
-0.0239373
-0.0999662
-0.147791
-0.126173
-0.183161
-0.143504
-0.148059
-0.144291
-0.651705
-0.637727
-0.587211
-0.520851
-0.442904
-0.36306
-0.280917
-0.201265
-0.131279
-0.0727268
-0.0145371
-0.0253718
-0.069858
-0.104382
-0.13508
-0.125438
-0.130876
-0.133017
-0.134066
-0.131792
-0.664089
-0.652098
-0.604451
-0.540243
-0.465435
-0.387544
-0.307912
-0.231043
-0.163807
-0.111947
-0.0549158
-0.0681667
-0.122764
-0.107296
-0.055899
-0.0511524
-0.0764507
-0.119633
-0.130238
-0.134342
-0.670656
-0.66094
-0.617086
-0.555428
-0.483431
-0.408123
-0.331255
-0.257168
-0.192189
-0.146431
-0.0908392
-0.106862
-0.186946
-0.180537
-0.0786722
-0.107882
-0.123087
-0.148431
-0.158383
-0.161416
-0.670898
-0.663224
-0.623375
-0.564779
-0.495907
-0.423588
-0.34959
-0.277982
-0.21502
-0.172783
-0.12315
-0.138299
-0.268884
-0.413586
-0.484231
-0.563383
-0.569597
-0.530096
-0.493569
-0.470884
-0.663906
-0.656657
-0.621761
-0.567196
-0.501769
-0.432621
-0.36151
-0.291898
-0.22953
-0.18775
-0.146648
-0.158943
-0.350297
-0.679683
-1.11787
-1.35955
-1.38389
-1.32876
-1.20172
-1.10834
-0.645587
-0.637855
-0.609778
-0.561083
-0.500167
-0.434475
-0.365984
-0.297209
-0.23301
-0.186658
-0.151883
-0.144631
-0.315562
-0.61814
-0.957273
-1.08579
-1.0371
-0.940571
-0.862548
-0.818682
-0.609179
-0.602178
-0.58633
-0.546836
-0.490984
-0.428539
-0.362294
-0.292843
-0.223148
-0.165327
-0.11976
-0.0626576
-0.0195706
0.0629716
0.115452
0.223415
0.335867
0.42599
0.504867
0.574871
-0.563873
-0.560139
-0.55571
-0.524863
-0.47596
-0.416597
-0.35084
-0.279192
-0.200983
-0.121151
-0.0449462
0.0930421
0.306483
0.657619
0.991907
1.27293
1.48433
1.61235
1.67488
1.69199
-0.532678
-0.532862
-0.5265
-0.503416
-0.459694
-0.401366
-0.33365
-0.258268
-0.171338
-0.0690668
0.0403266
0.200284
0.488552
0.894544
1.2957
1.62884
1.85956
1.98871
2.04321
2.06009
-0.500994
-0.501854
-0.49568
-0.484084
-0.445226
-0.386845
-0.315788
-0.237048
-0.146039
-0.0365453
0.0809964
0.20096
0.465119
0.799251
1.12581
1.40615
1.61654
1.74224
1.79931
1.81647
-0.472287
-0.471006
-0.470161
-0.467194
-0.430908
-0.373203
-0.300397
-0.219234
-0.129327
-0.0252458
0.0855796
0.164253
0.376597
0.651382
0.909056
1.13221
1.31086
1.42134
1.47104
1.48435
-0.461533
-0.459506
-0.464499
-0.457457
-0.420747
-0.360305
-0.286889
-0.206338
-0.122372
-0.0321006
0.0711171
0.126581
0.278621
0.500687
0.70366
0.872402
1.00803
1.09602
1.13559
1.14626
-0.442326
-0.441235
-0.449279
-0.441392
-0.406293
-0.343777
-0.272
-0.195465
-0.118968
-0.0436371
0.0515144
0.0985839
0.196127
0.367979
0.528557
0.654592
0.752911
0.819388
0.848451
0.854525
-0.400323
-0.401108
-0.406825
-0.399885
-0.370203
-0.313816
-0.249872
-0.180907
-0.112419
-0.0508841
0.033689
0.0784691
0.137678
0.265294
0.388611
0.481403
0.551664
0.598786
0.618666
0.625489
-0.324903
-0.327178
-0.331249
-0.326759
-0.303839
-0.262425
-0.213893
-0.158376
-0.0997715
-0.0505213
0.0204057
0.0628687
0.0991693
0.195592
0.28605
0.351566
0.402502
0.437715
0.452389
0.457334
-0.226546
-0.228734
-0.230579
-0.228606
-0.2157
-0.192309
-0.162597
-0.125386
-0.0800284
-0.0422824
0.0130287
0.0500465
0.0744796
0.149351
0.213973
0.258083
0.296168
0.322018
0.332461
0.335224
-0.12942
-0.130628
-0.132497
-0.133161
-0.129167
-0.120119
-0.106088
-0.0853184
-0.0556727
-0.0288329
0.0109098
0.0397291
0.0585826
0.116224
0.161914
0.192092
0.216461
0.232297
0.239443
0.241415
-0.0520328
-0.0529937
-0.0545749
-0.0572424
-0.0592155
-0.0593145
-0.0558313
-0.0470524
-0.030812
-0.0145802
0.0120117
0.0345355
0.0488361
0.0913066
0.121897
0.142823
0.15727
0.165106
0.167868
0.167878
0.000754051
0.000151199
-0.00129154
-0.00524098
-0.0111206
-0.0161803
-0.0186509
-0.0173282
-0.010482
-0.00233292
0.013684
0.0310482
0.0423505
0.0706019
0.0901836
0.102649
0.110471
0.113098
0.112404
0.111296
0.0309537
0.0304629
0.0291
0.0247703
0.0172648
0.0100275
0.00438946
0.00151371
0.00312447
0.00692137
0.0160268
0.0269032
0.0351212
0.051389
0.0634541
0.0706157
0.0739179
0.0739061
0.0722507
0.0707923
0.0445541
0.0441586
0.0429472
0.0390605
0.0319116
0.0244233
0.0176514
0.0128084
0.0117707
0.0132451
0.0188459
0.0240084
0.0287367
0.037071
0.0428556
0.0464273
0.0480569
0.0473741
0.0459045
0.0441931
0.0486849
0.048353
0.047354
0.0441983
0.0383862
0.0319478
0.0255541
0.0202095
0.0178837
0.0173197
0.0206806
0.0219373
0.0228279
0.0270865
0.0297216
0.0310859
0.0308105
0.0286616
0.0267405
0.0252745
0.0478685
0.0476163
0.0468653
0.0446068
0.0403829
0.0353566
0.0300923
0.024987
0.0221113
0.0199343
0.0216616
0.0218349
0.0201319
0.0220152
0.0235608
0.0233018
0.0222947
0.0200441
0.0178744
0.0165199
0.0449427
0.0447646
0.044217
0.04262
0.039543
0.0357417
0.0315936
0.0271363
0.0243588
0.0215053
0.0221608
0.0218975
0.0214882
0.0231676
0.0239372
0.0238853
0.0223292
0.0210771
0.0197857
0.0182981
0.0408409
0.0407261
0.040314
0.0392471
0.036983
0.0341526
0.0309388
0.0273221
0.0249937
0.0224067
0.0225757
0.0229915
0.0234742
0.0253361
0.0263421
0.0266999
0.026077
0.0250858
0.0244384
0.0233834
0.0362035
0.0361065
0.0357672
0.0350177
0.0334086
0.0314347
0.0290294
0.0262506
0.0244587
0.0222592
0.0228071
0.0235346
0.0245237
0.0271168
0.0284221
0.0287876
0.0306572
0.0313543
0.0314335
0.03038
0.0315662
0.0314762
0.031218
0.0307153
0.0295644
0.0282325
0.0264807
0.0244374
0.0231799
0.0208904
0.0221084
0.0219013
0.0236267
0.0259926
0.0296291
0.0322164
0.0347695
0.0371989
0.0384507
0.036887
0.027347
0.0272489
0.0270403
0.0266581
0.025891
0.0250438
0.0237953
0.0221935
0.0212754
0.0191561
0.0196919
0.0196294
0.0226269
0.0245172
0.0291979
0.0348449
0.0373154
0.0398182
0.0419739
0.0405071
0.0236572
0.0235539
0.0234562
0.0231773
0.0226021
0.0220584
0.0211844
0.0195676
0.0187146
0.0165576
0.0165765
0.0161982
0.017891
0.0226194
0.0287955
0.0342915
0.0401164
0.0419207
0.0426281
0.0419837
0.0202096
0.0200859
0.0199981
0.0198048
0.019456
0.0190297
0.0186265
0.0174441
0.0165271
0.0140114
0.0125209
0.0111024
0.0110411
0.0157016
0.0254297
0.0318615
0.0374845
0.0402813
0.0405701
0.0394101
0.0170795
0.0169612
0.0169156
0.01674
0.0165624
0.0161625
0.0161349
0.0149217
0.0137613
0.0110849
0.00773732
0.00654563
0.00538122
0.010362
0.0192677
0.0263251
0.029128
0.0320864
0.0339781
0.0327717
0.0139088
0.0137771
0.0138314
0.0139204
0.0140142
0.0134386
0.0131265
0.0123438
0.0112921
0.00914781
0.0055203
0.00336368
-0.000421634
0.00891993
0.0166646
0.0206568
0.0272109
0.0313915
0.0337271
0.03289
0.0102859
0.0101379
0.0101649
0.0103665
0.0103985
0.0101056
0.00938341
0.0100374
0.0110222
0.00846284
0.00540312
0.00115186
-0.0020308
0.00670249
0.0147726
0.0206342
0.0288194
0.0323137
0.0325024
0.0313112
0.00667844
0.00639817
0.00621143
0.00631241
0.0060823
0.006312
0.0059297
0.00595284
0.00712752
0.00845137
0.00901185
0.00520874
-0.00261287
0.00190185
0.00837224
0.0146482
0.0161132
0.015167
0.0149399
0.0147401
0.00271346
0.00263998
0.00236269
0.00146333
0.000389119
0.000138765
-0.000443104
5.64939e-05
0.00290566
0.0073189
0.012386
0.00884893
0.000859991
0.0028952
-0.00055379
-0.00234501
-0.00439188
-0.00484011
-0.00295272
-0.00226319
-1.0623
-0.211476
0.058932
0.338506
0.524271
0.684369
0.816173
0.950146
1.09524
1.17464
-0.0723731
0.339149
0.359042
0.549666
0.67774
0.792259
0.891232
0.978987
1.0073
0.964456
0.311634
0.528511
0.566814
0.70482
0.793451
0.875526
0.943055
0.993654
0.996331
1.00982
0.545658
0.691581
0.727603
0.832264
0.889274
0.949187
0.994731
1.02753
1.03687
1.06036
0.727121
0.830749
0.860508
0.930402
0.974654
1.0171
1.04969
1.0742
1.08421
1.11562
0.872693
0.942719
0.973232
1.01717
1.05364
1.08431
1.10898
1.12981
1.14416
1.17233
0.993154
1.04445
1.07018
1.09862
1.12674
1.1508
1.171
1.19034
1.20538
1.23178
1.09772
1.13501
1.15634
1.17729
1.1984
1.21799
1.23553
1.25372
1.26864
1.29229
1.19217
1.22142
1.238
1.25345
1.26978
1.286
1.30163
1.31862
1.33222
1.35454
1.28085
1.30134
1.31628
1.32965
1.34341
1.35729
1.37081
1.3854
1.39694
1.41658
1.36649
1.38247
1.39643
1.40832
1.42029
1.43193
1.44305
1.45471
1.46236
1.47917
1.45215
1.46488
1.47864
1.49031
1.50089
1.51064
1.51941
1.52764
1.53118
1.54245
1.54114
1.55223
1.56572
1.57496
1.58238
1.58957
1.59673
1.60323
1.60427
1.61168
1.63969
1.64436
1.65238
1.65687
1.66016
1.66463
1.67065
1.67838
1.68224
1.69212
1.75279
1.73918
1.7318
1.72623
1.72357
1.72496
1.7314
1.74379
1.75858
1.78824
1.87403
1.81824
1.78735
1.77021
1.76205
1.76201
1.77077
1.79034
1.82226
1.89148
)
;

boundaryField
{
    wall-4
    {
        type            zeroGradient;
    }
    pressure-outlet-7
    {
        type            fixedValue;
        value           uniform 0;
    }
    velocity-inlet-6
    {
        type            zeroGradient;
    }
    velocity-inlet-5
    {
        type            zeroGradient;
    }
    frontAndBackPlanes
    {
        type            empty;
    }
}


// ************************************************************************* //
