/*--------------------------------*- C++ -*----------------------------------*\
| =========                 |                                                 |
| \\      /  F ield         | OpenFOAM: The Open Source CFD Toolbox           |
|  \\    /   O peration     | Version:  4.0                                   |
|   \\  /    A nd           | Web:      www.OpenFOAM.org                      |
|    \\/     M anipulation  |                                                 |
\*---------------------------------------------------------------------------*/
FoamFile
{
    version     2.0;
    format      ascii;
    class       surfaceScalarField;
    location    "39";
    object      phi;
}
// * * * * * * * * * * * * * * * * * * * * * * * * * * * * * * * * * * * * * //

dimensions      [0 3 -1 0 0 0 0];

internalField   nonuniform List<scalar> 
4262
(
0.10715
0.470838
0.0955898
0.705146
0.0694324
0.85846
0.0474583
1.02074
0.0310767
1.2149
0.0198603
1.44944
0.0124918
1.73323
0.00732663
2.0762
0.00339537
2.48917
-0.000227963
2.98592
-0.00386258
2.98593
-0.00780144
2.48918
-0.0129099
2.07614
-0.0202092
1.73316
-0.0312493
1.44926
-0.0473683
1.21464
-0.06914
1.02054
-0.0953363
0.858499
-0.107108
0.705357
0.47088
0.112895
0.357944
0.135345
0.682695
0.120466
0.873339
0.0979245
1.04328
0.0747291
1.23809
0.0529858
1.47118
0.0344774
1.75174
0.0201861
2.09049
0.00891449
2.50045
-0.00114916
2.99598
-0.0111273
2.9959
-0.0220293
2.50008
-0.0360425
2.09016
-0.0543923
1.75151
-0.0761578
1.47103
-0.0997367
1.23821
-0.12275
1.04355
-0.136653
0.872402
-0.113439
0.682144
0.357441
0.092052
0.265892
0.124989
0.649758
0.121111
0.877218
0.104858
1.05953
0.086278
1.25667
0.0672827
1.49017
0.0484288
1.77059
0.0305027
2.10842
0.0140808
2.51687
-0.00178734
3.01185
-0.0175994
3.01172
-0.0339255
2.51641
-0.0516287
2.10786
-0.0699347
1.76982
-0.088256
1.48935
-0.105741
1.2557
-0.120338
1.05815
-0.125327
0.877391
-0.0923408
0.649158
0.2651
0.0640973
0.201794
0.105056
0.6088
0.106913
0.87536
0.0955311
1.07091
0.0815189
1.27069
0.0667672
1.50493
0.0506897
1.78667
0.0335424
2.12557
0.015822
2.53459
-0.00292803
3.0306
-0.0214076
3.0302
-0.0385721
2.53357
-0.0548855
2.12417
-0.0701892
1.78512
-0.0842002
1.50336
-0.09791
1.26941
-0.109536
1.06977
-0.106662
0.874517
-0.0647446
0.60724
0.200356
0.037519
0.164275
0.0807865
0.565533
0.0911077
0.865039
0.0839331
1.07809
0.0713342
1.28328
0.0594797
1.51678
0.0467169
1.79943
0.0320202
2.14026
0.0153618
2.55125
-0.00348295
3.04944
-0.022017
3.04873
-0.0380295
2.54959
-0.0520323
2.13818
-0.0642668
1.79736
-0.075752
1.51484
-0.0878658
1.28152
-0.0943326
1.07624
-0.0827932
0.862978
-0.0382394
0.562687
0.162116
0.0194644
0.144811
0.0572764
0.527721
0.0727773
0.849538
0.0708065
1.08006
0.0621561
1.29193
0.0513575
1.52758
0.0401256
1.81067
0.0275817
2.15281
0.012578
2.56625
-0.00504295
3.06706
-0.0223189
3.06601
-0.0364484
2.56372
-0.0480251
2.14975
-0.0580621
1.80739
-0.067859
1.52464
-0.0755492
1.28921
-0.0765062
1.0772
-0.059623
0.846094
-0.0202448
0.523308
0.141872
0.0107044
0.134106
0.0426206
0.495804
0.0589117
0.833247
0.0593631
1.07961
0.0534452
1.29785
0.0443173
1.53671
0.0340634
1.82092
0.0227254
2.16414
0.00969072
2.57929
-0.0059674
3.08272
-0.0212502
3.08129
-0.033434
2.5759
-0.0435534
2.15987
-0.0527873
1.81663
-0.060867
1.53272
-0.065512
1.29386
-0.0636418
1.07532
-0.0454628
0.827915
-0.0115803
0.489426
0.130291
0.00666503
0.127441
0.0331984
0.469271
0.0496471
0.816798
0.0513037
1.07795
0.0464053
1.30275
0.0382679
1.54484
0.0287643
1.83042
0.0179238
2.17499
0.005837
2.59137
-0.0079028
3.09646
-0.0210363
3.09442
-0.0318643
2.58673
-0.0411783
2.16919
-0.0488735
1.82432
-0.0552884
1.53913
-0.0585363
1.29711
-0.055185
1.07197
-0.0365349
0.809265
-0.00768823
0.460579
0.122603
0.0047322
0.122709
0.0266521
0.447351
0.0426251
0.800825
0.0448956
1.07568
0.0404094
1.30724
0.0330045
1.55225
0.0242481
1.83918
0.0141752
2.18506
0.00290257
2.60264
-0.00959412
3.10896
-0.021507
3.10634
-0.0313164
2.59654
-0.0395113
2.17738
-0.0463866
1.8312
-0.0520696
1.54482
-0.0547022
1.29974
-0.050104
1.06738
-0.031012
0.790173
-0.00607272
0.43564
0.11653
0.00376075
0.118948
0.0217497
0.429362
0.0369467
0.785628
0.039864
1.07276
0.0357148
1.31139
0.0285753
1.55939
0.0202083
1.84755
0.0106547
2.19461
-0.000143736
2.61344
-0.0121279
3.12094
-0.0232028
3.11741
-0.032002
2.60534
-0.039344
2.18472
-0.0454293
1.83728
-0.0502044
1.54959
-0.051908
1.30144
-0.0460241
1.06149
-0.0269833
0.771132
-0.00538617
0.414043
0.111144
0.00308059
0.115868
0.0176724
0.41477
0.0319073
0.771393
0.0351294
1.06954
0.0312105
1.31531
0.0243937
1.56621
0.0164289
1.85551
0.00726674
2.20377
-0.0031298
2.62384
-0.0148438
3.13266
-0.0256242
3.12819
-0.0337393
2.61345
-0.0399854
2.19097
-0.0450947
1.84239
-0.0492174
1.55371
-0.0500146
1.30224
-0.0428758
1.05435
-0.0239039
0.752161
-0.00502749
0.395166
0.106117
0.0023808
0.113487
0.0136844
0.403467
0.026255
0.758823
0.029763
1.06603
0.0263212
1.31875
0.0197482
1.57278
0.0117505
1.86351
0.00270739
2.21282
-0.00748101
2.63403
-0.0187114
3.14389
-0.0285879
3.13807
-0.035851
2.62072
-0.041397
2.19652
-0.0458099
1.84681
-0.0486722
1.55658
-0.0481361
1.3017
-0.0398631
1.04608
-0.0213245
0.733622
-0.00475695
0.378599
0.10136
0.00148708
0.112
0.00971902
0.395235
0.0204066
0.748135
0.0234086
1.06303
0.0201388
1.32202
0.0141848
1.57873
0.00673095
1.87096
-0.00204802
2.2216
-0.0120058
2.64399
-0.0225585
3.15444
-0.0317295
3.14724
-0.0383588
2.62734
-0.042894
2.20105
-0.0462335
1.85015
-0.0477382
1.55808
-0.0464161
1.30038
-0.0372944
1.03696
-0.0191763
0.715504
-0.00442914
0.363852
0.0969306
0.000717683
0.111282
0.00658784
0.389365
0.015392
0.739331
0.0177404
1.06068
0.0140005
1.32576
0.00764893
1.58508
-2.43894e-05
1.87864
-0.00871414
2.23029
-0.0182261
2.6535
-0.0280801
3.16429
-0.0360388
3.1552
-0.0411942
2.6325
-0.0446133
2.20447
-0.0467603
1.85229
-0.0475428
1.55886
-0.0453552
1.29819
-0.0353479
1.02695
-0.0177066
0.697863
-0.00426625
0.350411
0.0926644
2.04906e-05
0.111262
0.00325285
0.386132
0.00949945
0.733084
0.0108102
1.05937
0.00666374
1.3299
-2.1733e-05
1.59177
-0.00802883
1.88664
-0.0168471
2.2391
-0.0259526
2.6626
-0.034592
3.17293
-0.0408986
3.1615
-0.0445826
2.63618
-0.0468393
2.20673
-0.0484459
1.8539
-0.0484976
1.55892
-0.0452909
1.29499
-0.0345227
1.01618
-0.017003
0.680343
-0.00429227
0.337701
0.0883721
-0.000840817
0.112103
-0.000270378
0.385562
0.00393367
0.72888
0.00411978
1.05919
-0.000842491
1.33487
-0.00829014
1.59922
-0.0167518
1.89511
-0.0256146
2.24797
-0.0342747
2.67126
-0.0421113
3.18077
-0.0474836
3.16688
-0.0500359
2.63874
-0.0511512
2.20784
-0.0516105
1.85436
-0.0504509
1.55776
-0.0459283
1.29046
-0.0338667
1.00412
-0.0164686
0.662945
-0.0043535
0.325586
0.0840186
-0.00201811
0.114121
-0.00385847
0.387402
-0.00338994
0.728412
-0.00455021
1.06035
-0.00969679
1.34001
-0.0173226
1.60684
-0.0260608
1.90384
-0.0352434
2.25715
-0.044598
2.68062
-0.0527111
3.18888
-0.0569941
3.17116
-0.0579321
2.63967
-0.0573331
2.20724
-0.0559058
1.85293
-0.0529569
1.55481
-0.0469171
1.28442
-0.0337173
0.990921
-0.0162268
0.645454
-0.00438957
0.313748
0.079629
-0.00332078
0.117442
-0.00765708
0.391739
-0.0101982
0.730953
-0.0132505
1.0634
-0.0194376
1.3462
-0.027845
1.61525
-0.0371375
1.91314
-0.0469161
2.26693
-0.0562516
2.68995
-0.0637364
3.19637
-0.0672944
3.17472
-0.0671287
2.63951
-0.0648959
2.20501
-0.0620388
1.85007
-0.0576857
1.55045
-0.0493808
1.27612
-0.0343369
0.975877
-0.0164923
0.62761
-0.00458885
0.301845
0.0750402
-0.00486919
0.122311
-0.0128603
0.39973
-0.0192867
0.737379
-0.0250693
1.06918
-0.03195
1.35308
-0.0410678
1.62437
-0.0513465
1.92342
-0.0619043
2.27749
-0.0719704
2.70002
-0.0794309
3.20383
-0.0811397
3.17643
-0.0785586
2.63693
-0.0739887
2.20044
-0.0685635
1.84465
-0.0619725
1.54386
-0.0518379
1.26599
-0.035608
0.959647
-0.0173429
0.609345
-0.00492509
0.289427
0.0701151
-0.00632312
0.128634
-0.0180714
0.411478
-0.0289092
0.748217
-0.0372675
1.07754
-0.046064
1.36188
-0.0568934
1.6352
-0.0684923
1.93501
-0.0803481
2.28934
-0.0903587
2.71003
-0.0958959
3.20936
-0.0952657
3.1758
-0.0912361
2.6329
-0.0851604
2.19437
-0.0782008
1.83769
-0.0695758
1.53524
-0.0568131
1.25322
-0.0383037
0.941138
-0.0189387
0.58998
-0.00542899
0.275917
0.0646861
-0.00865655
0.13729
-0.0249216
0.427743
-0.0409075
0.764203
-0.0529184
1.08955
-0.0633511
1.37231
-0.0755377
1.64738
-0.0889738
1.94845
-0.102228
2.3026
-0.113342
2.72115
-0.11927
3.21529
-0.117581
3.17411
-0.110461
2.62578
-0.100744
2.18465
-0.0899784
1.82692
-0.0783308
1.52359
-0.0631936
1.23809
-0.0427832
0.920728
-0.0216239
0.56882
-0.00617377
0.260467
0.0585123
-0.0109121
0.148203
-0.0313399
0.448171
-0.0523025
0.785166
-0.0685439
1.10579
-0.0828704
1.38664
-0.0987974
1.66331
-0.114731
1.96438
-0.129726
2.31759
-0.140899
2.73232
-0.144562
3.21895
-0.138746
3.16829
-0.128501
2.61553
-0.117084
2.17323
-0.10532
1.81516
-0.0916997
1.50997
-0.0733393
1.21972
-0.0494207
0.896809
-0.0250896
0.544489
-0.00703473
0.242412
0.0514776
-0.0155974
0.1638
-0.0431626
0.475736
-0.0703891
0.812392
-0.0919203
1.12732
-0.110094
1.40481
-0.128961
1.68218
-0.147709
1.98313
-0.164008
2.33389
-0.174966
2.74328
-0.177385
3.22137
-0.16992
3.16083
-0.156776
2.60239
-0.141074
2.15753
-0.124442
1.79853
-0.106806
1.49233
-0.085203
1.19812
-0.0577556
0.869362
-0.0294223
0.516156
-0.00809947
0.22109
0.0433781
-0.0196255
0.183425
-0.0556347
0.511745
-0.091914
0.848671
-0.119981
1.15539
-0.144094
1.42892
-0.168373
1.70646
-0.1898
2.00456
-0.20673
2.35082
-0.216081
2.75263
-0.214054
3.21935
-0.199939
3.14671
-0.181132
2.58358
-0.16256
2.13896
-0.144953
1.78092
-0.12547
1.47285
-0.0998158
1.17247
-0.0670335
0.836579
-0.0334453
0.482568
-0.0088273
0.196472
0.0345508
-0.0328226
0.216248
-0.0812638
0.560187
-0.12662
0.894027
-0.162107
1.19088
-0.192783
1.4596
-0.220168
1.73384
-0.242664
2.02706
-0.258793
2.36695
-0.265561
2.7594
-0.259575
3.21336
-0.241635
3.12877
-0.219975
2.56192
-0.197469
2.11645
-0.173834
1.75729
-0.148198
1.44722
-0.116698
1.14097
-0.0775673
0.797449
-0.0381473
0.443148
-0.00963296
0.167957
0.0249179
-0.047231
0.263479
-0.119365
0.632321
-0.179835
0.954497
-0.222354
1.2334
-0.258002
1.49524
-0.287343
1.76318
-0.308607
2.04832
-0.321277
2.37962
-0.322538
2.76066
-0.309412
3.20023
-0.284207
3.10357
-0.255642
2.53336
-0.227766
2.08857
-0.202294
1.73181
-0.174233
1.41915
-0.136154
1.10289
-0.0884514
0.749746
-0.0410916
0.395788
-0.009539
0.136405
0.0153789
-0.0332578
0.296737
-0.094458
0.693521
-0.150284
1.01032
-0.196494
1.27961
-0.239183
1.53793
-0.275392
1.79939
-0.309091
2.08202
-0.338381
2.40891
-0.358829
2.7811
-0.36458
3.20599
-0.351648
3.09063
-0.328425
2.51013
-0.300115
2.06026
-0.263398
1.6951
-0.216646
1.3724
-0.158641
1.04488
-0.0933956
0.684501
-0.037772
0.340164
-0.00829145
0.106924
0.00708741
-0.0118805
0.308617
-0.0447493
0.72639
-0.0845315
1.05011
-0.122782
1.31786
-0.160314
1.57547
-0.19418
1.83326
-0.225051
2.11289
-0.250415
2.43427
-0.266421
2.79711
-0.267446
3.20701
-0.250644
3.07383
-0.223226
2.48271
-0.186994
2.02403
-0.147629
1.65573
-0.107064
1.33184
-0.0649878
1.00281
-0.028531
0.648044
-0.00706148
0.318695
-0.000810109
0.100673
0.0062773
0.00138557
0.307232
-0.0215463
0.749322
-0.0499873
1.07855
-0.0794592
1.34733
-0.109692
1.6057
-0.139461
1.86303
-0.167116
2.14055
-0.189961
2.45712
-0.204653
2.8118
-0.205046
3.2074
-0.18791
3.0567
-0.158585
2.45339
-0.124232
1.98968
-0.0867651
1.61827
-0.0467755
1.29185
-0.0110381
0.96707
0.00990981
0.627096
0.0112884
0.317316
0.00406384
0.107897
0.0103411
0.00195165
0.30528
-0.00986377
0.761137
-0.030676
1.09936
-0.0549555
1.37161
-0.0799107
1.63065
-0.104745
1.88786
-0.128438
2.16424
-0.148163
2.47684
-0.159517
2.82316
-0.157442
3.20533
-0.140786
3.04004
-0.114176
2.42678
-0.0806256
1.95613
-0.0441852
1.58183
-0.0125008
1.26016
0.0106875
0.943881
0.0202167
0.617567
0.015829
0.321704
0.00539776
0.118328
0.0157389
0.00460227
0.300678
-0.00335434
0.769094
-0.0206158
1.11662
-0.0405738
1.39157
-0.0615795
1.65166
-0.0830735
1.90936
-0.103969
2.18513
-0.12173
2.4946
-0.133163
2.83459
-0.13308
3.20525
-0.116127
3.02309
-0.089157
2.39981
-0.0599571
1.92693
-0.0299687
1.55184
-0.000163369
1.23036
0.0198424
0.923876
0.0247077
0.612702
0.0170602
0.329351
0.00555877
0.12983
0.0212977
0.0055716
0.295106
0.000198042
0.774467
-0.0150558
1.13187
-0.0328685
1.40938
-0.0512933
1.67008
-0.0701535
1.92822
-0.088701
2.20368
-0.104507
2.51041
-0.113807
2.84389
-0.110442
3.20188
-0.0948831
3.00753
-0.0736467
2.37857
-0.0474429
1.90072
-0.0190959
1.52349
0.00367487
1.20759
0.0185746
0.908976
0.022149
0.609127
0.0143352
0.337165
0.00454003
0.139625
0.0258377
0.00407762
0.291029
0.000394123
0.778151
-0.0122932
1.14456
-0.028374
1.42546
-0.0452478
1.68696
-0.0626313
1.9456
-0.0799244
2.22097
-0.0952706
2.52575
-0.105783
2.8544
-0.107575
3.20367
-0.0947313
2.99468
-0.072259
2.3561
-0.0465434
1.87501
-0.0226011
1.49955
-0.000709314
1.1857
0.0132377
0.895029
0.0159047
0.60646
0.0103539
0.342716
0.00313598
0.146843
0.0289737
0.00259861
0.28843
-0.000689146
0.781439
-0.012266
1.15614
-0.027024
1.44022
-0.0426893
1.70262
-0.0589028
1.96181
-0.0753629
2.23743
-0.0901557
2.54055
-0.0995472
2.86379
-0.0982619
3.20239
-0.0846072
2.98103
-0.0663302
2.33782
-0.0463969
1.85508
-0.024085
1.47724
-0.0063764
1.16799
0.00531135
0.883341
0.00909309
0.602679
0.00560192
0.346207
0.00189534
0.15055
0.030869
7.41837e-05
0.288356
-0.00308023
0.784593
-0.013328
1.16639
-0.0264285
1.45332
-0.041351
1.71755
-0.0570782
1.97754
-0.0731041
2.25346
-0.0877989
2.55524
-0.0987399
2.87473
-0.101439
3.20509
-0.0910726
2.97066
-0.0710349
2.31779
-0.0491709
1.83321
-0.0322223
1.46029
-0.0154344
1.1512
-0.00459992
0.872507
-0.00062079
0.598699
-0.000169393
0.345756
9.73218e-05
0.150283
0.0309663
-0.000580488
0.288936
-0.0055719
0.789584
-0.0151873
1.176
-0.0274249
1.46556
-0.041514
1.73164
-0.056606
1.99263
-0.072497
2.26935
-0.0877138
2.57046
-0.0990192
2.88604
-0.10022
3.20629
-0.0901512
2.9606
-0.0759925
2.30363
-0.0589639
1.81618
-0.0389212
1.44024
-0.0247859
1.13706
-0.0138149
0.861536
-0.0067384
0.591623
-0.00417327
0.34319
-0.00117143
0.147281
0.0297949
-0.00250078
0.291437
-0.00758553
0.794669
-0.016613
1.18503
-0.0281615
1.4771
-0.0417432
1.74522
-0.0566913
2.00758
-0.0726733
2.28533
-0.0881404
2.58592
-0.100339
2.89824
-0.106256
3.2122
-0.0999766
2.95432
-0.0826283
2.28628
-0.0631268
1.79668
-0.0478548
1.42497
-0.0324534
1.12166
-0.0208399
0.849922
-0.0131867
0.58397
-0.00632065
0.336324
-0.00181112
0.142771
0.0279838
-0.00385269
0.29529
-0.00937908
0.800196
-0.0183143
1.19396
-0.0295485
1.48834
-0.0425922
1.75826
-0.0570804
2.02207
-0.0729709
2.30122
-0.0889583
2.60191
-0.102743
2.91202
-0.109597
3.21906
-0.102023
2.94674
-0.0890108
2.27327
-0.0729707
1.78064
-0.054503
1.4065
-0.040017
1.10718
-0.0273787
0.837284
-0.0168113
0.573402
-0.0088709
0.328384
-0.00252567
0.136426
0.0254581
-0.00436038
0.29965
-0.0105365
0.806372
-0.0193859
1.20281
-0.0302125
1.49917
-0.0429034
1.77095
-0.0572628
2.03643
-0.0733264
2.31729
-0.0900351
2.61862
-0.105012
2.927
-0.113803
3.22785
-0.11219
2.94513
-0.0989675
2.26005
-0.0794308
1.7611
-0.0627711
1.38985
-0.0458517
1.09026
-0.0323403
0.823773
-0.0210948
0.562157
-0.00964965
0.316939
-0.0026317
0.129408
0.0228264
-0.00447047
0.304121
-0.0113249
0.813226
-0.0203396
1.21183
-0.0310304
1.50986
-0.043392
1.78331
-0.0574468
2.05048
-0.0735114
2.33335
-0.0906472
2.63576
-0.106896
2.94325
-0.119055
3.24001
-0.118806
2.94488
-0.106961
2.2482
-0.0906402
1.74478
-0.069036
1.36824
-0.051643
1.07287
-0.0359009
0.80803
-0.0217788
0.548035
-0.0104226
0.305583
-0.00256838
0.121554
0.020258
-0.00453837
0.308659
-0.0117929
0.820481
-0.0207074
1.22074
-0.0311082
1.52026
-0.043247
1.79545
-0.0572174
2.06445
-0.0733758
2.34951
-0.0910339
2.65341
-0.108691
2.96091
-0.122431
3.25375
-0.125222
2.94767
-0.116215
2.23919
-0.0964934
1.72506
-0.0761651
1.34791
-0.0545853
1.05129
-0.0374085
0.790854
-0.0233243
0.53395
-0.00971321
0.291972
-0.00213044
0.113971
0.0181276
-0.00460231
0.313261
-0.0120169
0.827895
-0.0208842
1.22961
-0.0311897
1.53056
-0.0431157
1.80738
-0.0568151
2.07815
-0.0728552
2.36555
-0.0907902
2.67135
-0.109391
2.97951
-0.125849
3.27021
-0.132967
2.95479
-0.12464
2.23087
-0.108067
1.70849
-0.0829907
1.32284
-0.0586802
1.02697
-0.0359325
0.768106
-0.0180806
0.516099
-0.00738602
0.281277
-0.00119515
0.10778
0.0169325
-0.00466398
0.317925
-0.0121192
0.83535
-0.0207271
1.23822
-0.0307034
1.54054
-0.0423661
1.81904
-0.0559177
2.0917
-0.0719656
2.3816
-0.0903114
2.6897
-0.110176
2.99937
-0.128553
3.28858
-0.13745
2.96368
-0.132958
2.22637
-0.114986
1.69052
-0.0907614
1.29861
-0.060116
0.996329
-0.0331108
0.741101
-0.012664
0.495652
-0.00209019
0.270703
-0.00202632
0.107717
0.0149061
-0.00462629
0.322552
-0.0119624
0.842687
-0.0203941
1.24665
-0.0301859
1.55033
-0.0415837
1.83044
-0.0548499
2.10497
-0.0707442
2.39749
-0.0892278
2.70818
-0.109462
3.01961
-0.129474
3.3086
-0.142424
2.97664
-0.141372
2.22532
-0.128283
1.67743
-0.100055
1.27038
-0.0646105
0.960885
-0.0240608
0.700551
0.0126362
0.458955
0.0296543
0.253685
0.0233922
0.113979
0.0382983
-0.00452754
0.327079
-0.0117624
0.849921
-0.0198863
1.25477
-0.0292779
1.55972
-0.0403233
1.84148
-0.0533714
2.11802
-0.069138
2.41326
-0.0876876
2.72673
-0.108855
3.04077
-0.131279
3.33102
-0.14568
2.99104
-0.149545
2.22919
-0.136034
1.66392
-0.110579
1.24493
-0.0679703
0.918276
-0.0209812
0.653562
0.0282848
0.409689
0.0413216
0.240648
0.018015
0.137285
0.0563133
-0.00432172
0.331401
-0.0113211
0.856921
-0.0192052
1.26266
-0.0283325
1.56885
-0.0390928
1.85224
-0.0517969
2.13072
-0.0672916
2.42875
-0.0858175
2.74525
-0.107223
3.06218
-0.130315
3.35411
-0.148483
3.0092
-0.155473
2.23618
-0.150877
1.65932
-0.1255
1.21955
-0.0826009
0.875376
-0.0109512
0.581912
0.0915683
0.307169
0.179901
0.152316
0.178257
0.138929
0.23457
-0.00418377
0.335585
-0.0111267
0.863864
-0.018909
1.27044
-0.0279604
1.5779
-0.0388701
1.86315
-0.0520556
2.14391
-0.0684454
2.44514
-0.0884857
2.76529
-0.112746
3.08644
-0.141072
3.38244
-0.164608
3.03274
-0.178169
2.24974
-0.175056
1.65621
-0.15542
1.19992
-0.109413
0.82937
-0.0584941
0.530993
-0.0924687
0.341144
-0.360932
0.420779
-0.935199
0.713196
0.89739
-1.59802
-0.00397513
0.33956
-0.0106653
0.870554
-0.0182829
1.27806
-0.0272543
1.58687
-0.0381001
1.874
-0.0513475
2.15716
-0.0680876
2.46188
-0.0890241
2.78623
-0.114847
3.11226
-0.145596
3.41319
-0.174807
3.06195
-0.19388
2.26881
-0.208938
1.67127
-0.203795
1.19477
-0.188275
0.813849
-0.271356
0.614075
-0.691486
0.761274
-1.4274
1.1567
-2.0384
1.32419
1.21836
-2.35936
-0.0037733
0.343333
-0.0102484
0.877029
-0.0176029
1.28541
-0.0263134
1.59558
-0.0369983
1.88468
-0.0503407
2.1705
-0.0674385
2.47898
-0.0891642
2.80796
-0.116966
3.14006
-0.152482
3.4487
-0.187667
3.09714
-0.217491
2.29863
-0.234396
1.68817
-0.235356
1.19573
-0.322698
0.90119
-0.751325
1.0427
-1.52708
1.53703
-2.10119
1.73081
-2.34279
1.56579
1.33358
-2.45802
-0.00354892
0.346882
-0.00963629
0.883116
-0.0167353
1.29251
-0.0252955
1.60414
-0.0358479
1.89524
-0.0491786
2.18383
-0.066519
2.49632
-0.0890321
2.83047
-0.118331
3.16936
-0.156215
3.48659
-0.197451
3.13837
-0.231809
2.33299
-0.268606
1.72497
-0.356941
1.28407
-0.694393
1.23864
-1.42568
1.77399
-2.01992
2.13128
-2.26147
1.97236
-2.3758
1.68012
1.39899
-2.44121
-0.00329417
0.350176
-0.0090495
0.888872
-0.0158051
1.29927
-0.0240352
1.61237
-0.0344211
1.90562
-0.0477553
2.19716
-0.0653111
2.51388
-0.0884346
2.85359
-0.119485
3.20041
-0.16225
3.52935
-0.210799
3.18692
-0.260171
2.38236
-0.309008
1.7738
-0.487447
1.46251
-1.0858
1.83699
-1.77713
2.46532
-2.10362
2.45777
-2.25386
2.1226
-2.33672
1.76298
1.46481
-2.40254
-0.0031987
0.353375
-0.00879137
0.894464
-0.0155395
1.30601
-0.0238853
1.62072
-0.0345485
1.91629
-0.0481306
2.21075
-0.0661611
2.53191
-0.0902481
2.87768
-0.122891
3.23306
-0.167869
3.57433
-0.222645
3.2417
-0.273324
2.43304
-0.367489
1.86797
-0.751701
1.84672
-1.48115
2.56644
-1.96023
2.9444
-2.1614
2.65893
-2.26837
2.22957
-2.34554
1.84014
1.52894
-2.40967
-0.00329084
0.356666
-0.00919931
0.900373
-0.0162889
1.3131
-0.0249896
1.62942
-0.0361226
1.92742
-0.050378
2.225
-0.0692747
2.55081
-0.0944881
2.90289
-0.129091
3.26766
-0.179276
3.62452
-0.238804
3.30122
-0.307163
2.5014
-0.497197
2.058
-1.04142
2.39094
-1.67006
3.19509
-1.95096
3.2253
-2.09917
2.80714
-2.21383
2.34423
-2.30767
1.93398
1.59124
-2.36997
-0.00330402
0.35997
-0.00942319
0.906492
-0.0169525
1.32063
-0.0262381
1.63871
-0.0379424
1.93912
-0.0528255
2.23988
-0.0725683
2.57055
-0.0991045
2.92943
-0.135554
3.30411
-0.187394
3.67636
-0.251804
3.36563
-0.342628
2.59222
-0.62131
2.33669
-1.25506
3.02469
-1.74919
3.68921
-1.95791
3.43403
-2.09967
2.9489
-2.22451
2.46908
-2.33647
2.04594
1.65037
-2.3956
-0.00328854
0.363258
-0.00978117
0.912984
-0.0177469
1.3286
-0.0274471
1.64841
-0.0396561
1.95133
-0.0552794
2.25551
-0.0759493
2.59122
-0.103614
2.95709
-0.141871
3.34237
-0.19825
3.73274
-0.268832
3.43622
-0.394268
2.71766
-0.773051
2.71547
-1.40207
3.65371
-1.76068
4.04782
-1.93538
3.60873
-2.03916
3.05268
-2.12957
2.55949
-2.1986
2.11496
1.6438
-2.19203
-0.00317611
0.366434
-0.00979551
0.919604
-0.0182583
1.33706
-0.028655
1.6588
-0.0415468
1.96422
-0.0578348
2.2718
-0.0793566
2.61274
-0.108358
2.9861
-0.148463
3.38247
-0.205144
3.78942
-0.28443
3.5155
-0.454734
2.88797
-0.900672
3.16141
-1.45555
4.20859
-1.72108
4.31335
-1.87635
3.764
-1.97139
3.14771
-1.97497
2.56307
-1.90921
2.04921
1.61389
-1.8793
-0.00291001
0.369344
-0.00996178
0.926656
-0.0188345
1.34593
-0.0295439
1.66951
-0.042806
1.97749
-0.0595837
2.28857
-0.0815525
2.63471
-0.110777
3.01532
-0.151083
3.42278
-0.208452
3.84679
-0.296236
3.60328
-0.497882
3.08961
-0.977738
3.64126
-1.42299
4.65385
-1.5933
4.48366
-1.66216
3.83286
-1.66844
3.15399
-1.52272
2.41735
-1.02413
1.55062
0.589759
-0.00251848
0.371863
-0.00953403
0.933671
-0.0189287
1.35533
-0.0305551
1.68114
-0.0449215
1.99185
-0.0629249
2.30658
-0.0866271
2.65841
-0.11856
3.04725
-0.162865
3.46708
-0.225224
3.90914
-0.327612
3.70567
-0.579739
3.34174
-1.11241
4.17394
-1.47654
5.01798
-1.57742
4.58454
-1.57721
3.83265
-1.47643
3.05321
-1.23844
2.17937
-0.639608
0.951781
-0.0498489
-0.00202227
0.373885
-0.00920344
0.940852
-0.0189972
1.36512
-0.0311118
1.69325
-0.0462697
2.00701
-0.0656297
2.32594
-0.0912225
2.684
-0.125616
3.08165
-0.173948
3.51541
-0.243895
3.97909
-0.367337
3.82911
-0.674735
3.64914
-1.22711
4.72631
-1.49517
5.28604
-1.55672
4.64608
-1.53753
3.81345
-1.33692
2.85261
-0.792136
1.63458
-0.113121
0.272766
-0.16297
-0.0013186
0.375204
-0.00797763
0.947511
-0.0180972
1.37524
-0.0311576
1.70631
-0.0473837
2.02324
-0.0678923
2.34645
-0.095151
2.71126
-0.132287
3.11878
-0.184061
3.56719
-0.260589
4.05562
-0.40575
3.97428
-0.770588
4.01398
-1.30644
5.26217
-1.4886
5.4682
-1.51995
4.67743
-1.43543
3.72893
-1.11058
2.52776
-0.321934
0.845931
0.0279505
-0.0771183
-0.135019
-0.000509596
0.375713
-0.00656321
0.953565
-0.0168856
1.38556
-0.0302859
1.71971
-0.0470656
2.04002
-0.0688302
2.36821
-0.097885
2.74032
-0.137157
3.15805
-0.191936
3.62197
-0.277925
4.14161
-0.451025
4.14738
-0.87531
4.43826
-1.34824
5.7351
-1.46893
5.58888
-1.47487
4.68337
-1.26143
3.51549
-0.702709
1.96904
-0.0656286
0.208851
0.0323156
-0.175063
-0.102704
0.00116233
0.374551
-0.00350842
0.958236
-0.0139748
1.39603
-0.0283731
1.73411
-0.0459823
2.05763
-0.0686768
2.3909
-0.0990328
2.77067
-0.140455
3.19948
-0.197562
3.67907
-0.291056
4.2351
-0.487687
4.34401
-0.960567
4.91114
-1.34426
6.1188
-1.41312
5.65774
-1.37394
4.64419
-1.08645
3.228
-0.339737
1.22232
-0.0029043
-0.127981
0.0119077
-0.189875
-0.0907959
0.00316745
0.371383
0.000363253
0.96104
-0.0104287
1.40682
-0.0247431
1.74843
-0.042344
2.07523
-0.0660307
2.41459
-0.0976795
2.80232
-0.140455
3.24225
-0.200307
3.73893
-0.302247
4.33704
-0.523288
4.56505
-1.02132
5.40917
-1.30405
6.40153
-1.34521
5.6989
-1.21983
4.5188
-0.797714
2.80589
-0.0871988
0.511807
0.0451375
-0.260318
0.0258726
-0.17061
-0.0649233
0.00547397
0.365909
0.00427204
0.962242
-0.00492984
1.41603
-0.0190819
1.76258
-0.0371471
2.09329
-0.0612462
2.43869
-0.0933833
2.83446
-0.137314
3.28618
-0.198559
3.80017
-0.306219
4.4447
-0.551353
4.81018
-1.03545
5.89327
-1.23386
6.59994
-1.25133
5.71638
-1.04532
4.3128
-0.477006
2.23758
-0.00157902
0.0363797
0.0113396
-0.273236
0.0149309
-0.174201
-0.0499924
0.00836517
0.357544
0.00980775
0.960799
0.00261659
1.42322
-0.010255
1.77545
-0.0279649
2.111
-0.0522189
2.46294
-0.0845198
2.86676
-0.128143
3.32981
-0.190657
3.86269
-0.304237
4.55828
-0.566896
5.07284
-1.01168
6.33806
-1.14066
6.72891
-1.12781
5.70353
-0.883643
4.06863
-0.287215
1.64115
-0.0642484
-0.186587
-0.0375943
-0.29989
-0.010571
-0.201224
-0.0605634
0.0123932
0.345151
0.0181482
0.955044
0.0135943
1.42777
0.00237586
1.78667
-0.0161248
2.1295
-0.0394183
2.48624
-0.070423
2.89777
-0.113335
3.37272
-0.174587
3.92394
-0.289396
4.67309
-0.554696
5.33814
-0.936825
6.72019
-1.01186
6.80394
-0.959014
5.65069
-0.70348
3.8131
-0.134768
1.07244
-0.0653895
-0.255966
-0.0422259
-0.323054
-0.0152228
-0.228227
-0.0757862
0.0178457
0.327305
0.0291013
0.943789
0.0275746
1.4293
0.0177211
1.79652
0.00167201
2.14555
-0.0193283
2.50724
-0.0486858
2.92712
-0.0890381
3.41307
-0.148041
3.98294
-0.2612
4.78625
-0.508705
5.58565
-0.817365
7.02885
-0.86413
6.85071
-0.77394
5.5605
-0.46724
3.5064
-0.00906866
0.614265
0.0150873
-0.280122
0.00702107
-0.314988
0.00232232
-0.223529
-0.0734638
0.0246095
0.302696
0.0435283
0.92487
0.0471453
1.42568
0.0398568
1.80381
0.0269622
2.15845
0.00786033
2.52634
-0.0185064
2.95349
-0.0547589
3.44932
-0.108015
4.0362
-0.211023
4.88926
-0.419924
5.79455
-0.640044
7.24897
-0.69296
6.90362
-0.590258
5.45779
-0.24806
3.1642
0.0749441
0.291261
0.0611555
-0.266333
0.0561156
-0.309948
0.0389547
-0.206368
-0.0345092
0.0332195
0.269476
0.0619646
0.896125
0.0720944
1.41555
0.0697924
1.80611
0.0611122
2.16713
0.0453355
2.54212
0.0231735
2.97565
-0.00775862
3.48026
-0.0534317
4.08187
-0.135005
4.97083
-0.296987
5.95653
-0.435647
7.38763
-0.477924
6.9459
-0.439692
5.41956
-0.184955
2.90946
-0.0736815
0.179988
-0.0516788
-0.288336
0.000864427
-0.362491
0.0344619
-0.239965
-4.7271e-05
0.04279
0.226686
0.0847364
0.854178
0.104748
1.39554
0.108515
1.80235
0.104187
2.17145
0.0929793
2.55332
0.0778927
2.99074
0.0557019
3.50245
0.0203511
4.11722
-0.0251138
5.0163
-0.115774
6.04719
-0.197641
7.46949
-0.264513
7.01277
-0.367278
5.52233
-0.351277
2.89346
-0.564423
0.393134
-0.554155
-0.298604
-0.382397
-0.534249
-0.171833
-0.450529
-0.17188
0.0531666
0.17352
0.112164
0.795181
0.14557
1.36213
0.157615
1.7903
0.16016
2.16891
0.154906
2.55858
0.147428
2.99822
0.136404
3.51347
0.122966
4.13066
0.104781
5.03448
0.123066
6.0289
0.137692
7.45487
0.0632912
7.08717
-0.107447
5.69307
-0.436894
3.22291
-0.807042
0.763281
-0.832247
-0.273399
-0.637532
-0.728964
-0.311417
-0.776645
-0.483296
0.0571388
0.116381
0.141004
0.711316
0.193914
1.30922
0.218635
1.76558
0.22966
2.15788
0.231808
2.55643
0.233813
2.99621
0.236835
3.51045
0.246844
4.12065
0.270865
5.01046
0.404515
5.89525
0.572839
7.28654
0.65464
7.00537
0.682324
5.66538
0.331477
3.57376
-0.218751
1.31351
-0.561741
0.0695921
-0.604347
-0.686358
-0.314237
-1.06676
-0.797533
0.050747
0.065634
0.168822
0.593241
0.251919
1.22613
0.292368
1.72513
0.313957
2.1363
0.326193
2.54419
0.338151
2.98425
0.356499
3.4921
0.394347
4.0828
0.475594
4.92921
0.76137
5.60948
1.2598
6.78811
1.67499
6.59018
2.02015
5.32023
1.84604
3.74786
1.17023
1.98932
0.607594
0.632227
0.177664
-0.256428
-0.0230616
-0.86603
-0.820595
0.0371709
0.0284632
0.197513
0.432899
0.312566
1.11107
0.380119
1.65758
0.41583
2.10058
0.440032
2.51999
0.4598
2.96448
0.492301
3.4596
0.558622
4.01648
0.699215
4.78862
1.09629
5.2124
1.82579
6.05861
2.24555
6.17043
2.48029
5.08549
2.40151
3.82664
1.9573
2.43354
1.45359
1.13594
0.95684
0.240317
0.369432
-0.278621
-0.451163
0.0306689
-0.00220576
0.217831
0.245737
0.388539
0.940364
0.482416
1.5637
0.531362
2.05164
0.568714
2.48264
0.598045
2.93515
0.643566
3.41408
0.722991
3.93706
0.884276
4.62734
1.26096
4.83572
2.01059
5.30897
2.40799
5.77303
2.62413
4.86934
2.59657
3.8542
2.20295
2.82716
1.58936
1.74953
0.963226
0.866453
0.417934
0.266671
-0.0332292
0.0280043
-0.0302101
0.186983
0.0867585
0.443532
0.683815
0.597595
1.40964
0.669959
1.97927
0.715324
2.43728
0.751843
2.89863
0.79156
3.37436
0.85478
3.87384
0.988163
4.49395
1.22254
4.60135
1.83422
4.69729
2.2031
5.40415
2.29384
4.7786
2.2235
3.92453
1.95033
3.10033
1.46014
2.23972
0.9202
1.40639
0.392718
0.794153
0.359488
0.018573
-0.0487831
0.111161
-0.00582996
0.398058
0.396918
0.590229
1.21747
0.678666
1.89084
0.708312
2.40763
0.719613
2.88733
0.712093
3.38188
0.706423
3.87951
0.721235
4.47914
0.778023
4.54456
1.01549
4.45982
1.24764
5.172
1.24301
4.78323
1.16355
4.004
1.0136
3.25027
0.766131
2.48719
0.473066
1.69946
0.191683
1.07554
0.551171
0.00846733
-0.0572505
0.0581135
-0.0554762
0.250162
0.20487
0.429107
1.03852
0.519389
1.80056
0.551479
2.37554
0.568371
2.87044
0.566029
3.38422
0.560479
3.88506
0.552821
4.4868
0.569383
4.528
0.716661
4.31255
0.900442
4.98822
0.898022
4.78565
0.822084
4.07994
0.707378
3.36498
0.53652
2.65805
0.321674
1.9143
0.120612
1.2766
0.671783
0.0257006
-0.0829511
0.0664663
-0.0962419
0.142807
0.128529
0.269525
0.911804
0.349657
1.72042
0.389235
2.33596
0.412239
2.84744
0.422688
3.37377
0.424823
3.88292
0.421182
4.49044
0.415816
4.53337
0.496191
4.23217
0.626965
4.85744
0.628723
4.78389
0.561006
4.14765
0.470325
3.45566
0.350787
2.77759
0.20397
2.06112
0.065555
1.41501
0.737338
0.0284336
-0.111385
0.0542076
-0.122016
0.0479808
0.134756
0.108873
0.850911
0.175473
1.65382
0.228062
2.28337
0.263697
2.8118
0.289087
3.34838
0.305776
3.86623
0.311177
4.48504
0.298234
4.54631
0.334365
4.19604
0.419259
4.77255
0.418331
4.78482
0.364307
4.20168
0.289669
3.5303
0.199735
2.86752
0.0966162
2.16424
0.0112423
1.50039
0.748581
0.0152119
-0.126597
0.00816929
-0.114973
-0.0376519
0.180577
-0.0363943
0.849654
0.0133942
1.60404
0.0695174
2.22725
0.122276
2.75904
0.166807
3.30385
0.201247
3.83179
0.214794
4.47149
0.206223
4.55488
0.221131