/*--------------------------------*- C++ -*----------------------------------*\
| =========                 |                                                 |
| \\      /  F ield         | OpenFOAM: The Open Source CFD Toolbox           |
|  \\    /   O peration     | Version:  4.0                                   |
|   \\  /    A nd           | Web:      www.OpenFOAM.org                      |
|    \\/     M anipulation  |                                                 |
\*---------------------------------------------------------------------------*/
FoamFile
{
    version     2.0;
    format      ascii;
    class       volScalarField;
    location    "43";
    object      p;
}
// * * * * * * * * * * * * * * * * * * * * * * * * * * * * * * * * * * * * * //

dimensions      [0 2 -2 0 0 0 0];

internalField   nonuniform List<scalar> 
918
(
0.570373
1.21902
0.00393273
0.569741
-0.0120528
1.18607
-0.485671
0.72351
0.550527
-0.0810015
-0.0142601
0.546577
1.04659
0.812659
-1.10994
-0.00203778
0.674477
-0.364201
0.549576
-0.0189661
0.759045
0.557107
0.560137
0.550722
0.615351
0.7921
0.927472
0.0199392
0.00262368
0.000414852
-0.0122025
-0.0391831
-0.0281216
1.06971
1.12081
1.14349
0.518713
0.34612
-0.350657
-0.417762
-0.410544
-0.529643
0.71703
0.716662
-0.169952
0.726328
0.733066
0.537686
0.54989
0.550796
0.551865
0.550822
0.552215
0.428515
-0.0844405
-0.116331
-0.0608656
-0.0529999
0.0788769
-0.0153513
-0.016583
-0.0140207
-0.017228
0.46914
0.542127
0.53924
0.551788
0.560828
1.15857
1.13048
1.15663
1.0703
1.08681
1.02457
0.997237
0.833302
0.855101
0.798284
0.78704
-1.54721
-2.50843
-0.51473
-0.261035
-0.0118691
0.00373886
0.0179637
0.666994
0.665929
0.676283
0.686364
1.09885
-0.362332
-0.472976
0.549708
0.548508
0.556882
0.557578
0.553592
0.552685
-0.0194812
-0.0189114
-0.0178915
-0.0191911
-0.022258
0.748125
0.745725
0.55126
0.548276
0.567574
0.588574
0.580254
0.297805
0.618821
0.631953
0.617063
0.783152
0.776997
0.785813
0.900885
0.864612
0.964734
0.98781
0.0150917
0.00274592
-0.00702609
-0.0128421
-0.0111746
0.514627
0.50731
0.533813
0.522084
0.524536
0.261906
0.127006
0.431703
0.456765
-0.26466
-0.324566
-0.416368
-0.439572
-0.554344
0.617144
0.70745
0.705573
-0.187465
-0.113211
-0.242511
-0.0400352
-0.100497
0.528058
0.534987
0.530031
0.545468
0.539961
0.541913
0.554144
0.551222
0.552778
0.49123
0.614959
0.354717
0.320172
-0.223205
-0.134562
-0.225911
-0.0393039
-0.033802
0.0937665
0.119547
0.0655032
0.0546166
-0.0280203
-0.019176
-0.0231952
-0.0161108
-0.0178164
0.462061
0.451196
0.481558
0.488908
0.532036
0.533228
0.536631
0.535073
0.947972
0.970229
0.977921
0.951769
-3.50849
-6.30997
0.0676317
0.205834
-0.00336717
-0.00921282
0.00317467
-0.00438091
0.00110573
-0.00108704
0.0152211
0.0155611
0.0193314
0.0238676
0.655603
0.655521
1.01838
1.02009
0.998685
0.949442
0.537822
0.539933
0.545466
0.541328
-0.0186454
-0.0192079
-0.0207761
0.734396
0.741733
0.739738
0.260427
0.173062
0.347427
0.375632
0.646977
0.635326
0.645177
0.677448
0.714466
0.995208
1.01352
1.01172
1.02023
1.0643
1.08073
1.04605
0.494552
0.504272
0.499371
0.536993
0.534709
0.535638
0.531203
0.53266
0.530491
-0.024834
-0.408217
0.505846
0.52433
0.505684
0.511324
0.696884
0.774417
0.688096
0.697801
0.695644
0.0264123
-0.0311039
0.276251
0.24258
0.403072
0.438741
0.418088
0.919131
0.879714
0.929771
0.902982
0.86452
0.889816
-0.359799
-1.87164
-0.984038
0.559521
0.37144
0.459559
0.0358097
0.0178295
0.0236436
1.01299
1.08972
0.670586
0.8399
0.846518
0.753235
0.783024
0.837947
0.76433
0.798235
0.832763
0.813423
0.573963
0.517993
0.528947
0.844589
0.901381
0.145448
0.0881619
0.0437642
0.13884
0.195596
0.169944
1.05175
0.957402
1.02948
0.548028
0.548729
0.0070897
0.00280697
0.552906
0.552952
-0.00772357
0.00279086
0.442638
-0.819241
0.129996
0.541397
0.531565
0.548537
-0.063622
0.383216
-0.0146564
0.0754513
0.0177435
0.544536
0.479791
0.440017
0.0129837
-0.0117855
-0.0163332
-0.192195
0.5457
0.544009
0.548007
0.548976
0.549642
-0.00353919
0.000847071
-0.00117581
-0.0173415
-0.0147842
-0.0180637
0.51294
0.530855
-0.147837
0.548149
0.550275
0.550098
0.543297
0.548952
0.547185
-0.00116091
-0.00556926
-0.0112358
0.244102
0.369355
0.687593
0.779431
0.656423
0.429452
0.1915
0.587812
0.6529
0.556326
0.713088
0.702157
0.719706
0.195509
0.0458939
0.203335
0.144702
0.539262
0.537952
0.529827
0.526865
0.543405
0.541519
0.546067
0.54307
0.546012
0.547407
-0.0216573
-0.0459034
-0.0597225
-0.126063
0.339581
0.599605
0.279582
0.309682
0.170447
-0.00890981
-0.0106249
-0.014082
-0.0192357
0.0290873
0.00248166
0.0691593
0.0695504
0.0395835
0.014555
0.020426
0.00801861
0.0114422
0.537788
0.536122
0.542472
0.551188
0.489167
0.492928
0.458577
0.478897
0.464361
0.404994
0.439243
0.414756
0.00506726
0.0182549
0.00775672
-0.00573393
-0.00209709
-0.0123136
-0.00870289
-0.0103407
-0.00160322
-0.00882604
-0.013649
-0.0209187
-0.151579
-0.265366
1.00438
0.937003
0.14614
0.534893
0.541314
0.538096
0.542915
0.546041
0.546882
0.544624
0.54119
0.531347
0.533021
0.529579
0.530286
-0.0840398
-0.220889
-0.0491031
-0.119447
0.155847
0.63791
0.381155
0.319964
0.314233
0.538472
0.946594
0.738166
0.722983
0.742587
-0.324536
0.0712107
-0.25807
0.361708
0.184028
0.684854
0.735234
0.757719
0.704882
0.65693
-0.094588
0.56897
-0.0436295
0.0050013
0.20204
0.0871121
0.72382
0.6856
0.689716
0.708781
0.727216
0.691725
0.674392
0.669116
0.704309
0.707968
0.514473
0.275235
0.2281
0.189814
0.66774
0.552556
0.608047
0.519478
0.534304
0.537026
0.535626
0.517679
0.525135
0.520762
0.526869
0.5302
0.539118
0.539502
0.534885
0.537044
-0.0267309
-0.029865
-0.00513039
-0.114331
-0.105066
-0.164455
-0.042221
0.0985542
0.0616345
0.25541
0.361521
0.073992
-0.0409228
-0.011824
0.0240962
0.200132
0.225394
0.10269
0.19004
0.179121
0.162883
0.264079
0.269215
0.00272777
-0.00143031
-0.00166999
-0.00408684
0.0464458
0.11929
0.129093
0.0210003
0.0160143
-0.0129422
-0.0141312
0.00535172
0.00190896
0.00456583
0.0408022
-0.0363394
-0.00461981
0.0114809
0.0231731
0.0176349
0.0130186
0.530352
0.532522
0.53218
0.539877
0.557505
0.573414
0.530923
0.510953
0.501923
0.504904
0.478528
0.488652
0.484564
0.498015
0.518322
0.527407
0.525045
0.527697
0.510571
0.512179
0.499173
0.502814
0.478393
0.459654
0.448152
-0.0259262
0.0124183
0.00385129
-0.0234302
0.00685716
-0.00576518
0.0108876
0.0259298
0.0124759
0.00707984
0.000648546
-0.0080304
-0.00406972
-0.0565573
0.026456
-0.165418
-0.199566
-0.268265
0.908467
1.02902
0.831062
0.606492
0.62078
0.860937
0.947855
0.568576
0.754723
0.778496
0.591579
0.85998
0.539691
0.539304
0.536905
0.536383
0.537607
0.00584408
0.10766
0.114878
0.171335
0.287253
0.400618
0.322723
0.19946
0.332296
0.33617
0.632082
0.645764
0.599591
0.622263
0.622842
0.444665
0.52137
0.574766
0.530283
0.579543
0.60081
0.558875
0.589912
0.539226
0.494991
0.491663
0.440513
0.462239
0.439054
0.420714
0.529472
0.507305
0.517569
0.507883
0.527338
0.551251
0.548099
0.580034
0.591161
0.511832
0.468988
0.478941
0.508237
0.469186
0.483633
0.499359
0.238035
0.137522
0.222987
-0.066337
0.0123155
-0.0024074
-0.0496273
-0.0031296
0.282322
-0.413509
-0.387769
-1.01968
0.509439
0.976496
0.67587
0.648871
0.724049
0.703925
0.708539
0.729888
0.734986
0.658311
0.67557
0.679192
0.640543
0.664063
0.686369
0.683511
0.539435
0.408643
0.402885
0.357417
0.229135
0.265179
0.467763
0.389465
0.31446
0.316429
0.479723
0.366547
0.434609
0.472855
0.404251
0.358496
0.563801
0.628558
0.618271
0.592938
0.511382
0.526096
0.550348
0.58612
0.612658
0.644637
0.526554
0.532363
0.533615
0.531155
0.528351
0.531313
0.53145
0.533984
0.534766
0.5377
0.53671
-0.0138928
-0.00234103
-0.0163193
-0.0227364
0.00660624
0.00241986
0.0469763
0.0328483
0.0172029
0.0238073
-0.00248168
-0.0069165
-0.00156741
0.00761351
0.124214
0.137464
0.121238
0.0818672
0.269269
0.399927
0.470313
0.348875
0.241856
0.265745
0.288472
0.0145087
0.0410573
0.0279978
0.0685783
0.0606181
-0.00683317
-0.0121437
-0.00872995
-0.00250829
0.00932839
-0.0104186
-0.016999
-0.00744755
-0.0114533
-0.0137823
-0.0180141
0.513149
0.50669
0.508176
0.502204
0.500974
0.514974
0.519213
0.521078
0.526417
0.528499
0.518937
0.524451
0.528092
0.00820005
-0.0143511
-0.0199012
-0.00390964
-0.0073264
-0.00739027
-0.00616567
0.134507
0.0645927
0.0690323
0.0236135
-0.104422
-0.0472348
0.497946
0.49594
0.491346
0.728489
0.578871
0.497614
0.593294
0.698853
0.284859
0.483552
0.31652
0.900047
0.793077
0.93962
0.554458
0.252093
0.409758
0.45982
0.267067
0.339723
0.342594
0.229684
0.261686
0.295151
0.396809
0.273864
0.248777
0.00605556
0.193856
0.310679
0.291543
0.420218
0.482567
0.270367
0.191049
0.146213
0.623052
0.64099
0.658041
0.630531
0.653664
0.589478
0.577817
0.595823
0.605369
0.601309
-0.74716
-0.454289
-1.39884
-0.713833
-0.262457
0.540465
0.504192
0.781486
0.665171
0.725416
0.709758
0.666752
0.633235
0.648979
0.679014
0.372281
0.484394
0.458928
0.463915
0.364272
0.296072
0.598445
0.59236
0.628055
0.651785
0.61952
0.651674
0.524307
0.523965
0.523549
0.519905
0.518212
0.520462
0.0850895
0.053704
0.0888516
0.0701903
0.0476031
0.0357779
0.0169818
0.00816927
-0.000903714
-0.00124157
0.0098148
0.0148154
0.176224
0.117098
0.0404854
0.0691385
0.00991205
-0.0562361
-0.0747038
0.0266141
0.119575
0.110007
0.416508
0.668616
0.489247
0.658232
0.497254
0.553325
0.4819
0.474956
0.501663
0.388954
0.4683
0.243383
-0.263117
-0.170909
0.797592
0.814137
0.597032
0.413796
0.18323
0.369615
0.563616
0.497676
0.536059
0.605559
0.596132
0.0253163
0.0896643
0.356862
0.584121
0.244128
0.236334
0.230564
0.407246
0.329594
)
;

boundaryField
{
    wall-4
    {
        type            zeroGradient;
    }
    velocity-inlet-5
    {
        type            zeroGradient;
    }
    velocity-inlet-6
    {
        type            zeroGradient;
    }
    pressure-outlet-7
    {
        type            fixedValue;
        value           uniform 0;
    }
    wall-8
    {
        type            zeroGradient;
    }
    frontAndBackPlanes
    {
        type            empty;
    }
}


// ************************************************************************* //
