/*--------------------------------*- C++ -*----------------------------------*\
| =========                 |                                                 |
| \\      /  F ield         | OpenFOAM: The Open Source CFD Toolbox           |
|  \\    /   O peration     | Version:  4.0                                   |
|   \\  /    A nd           | Web:      www.OpenFOAM.org                      |
|    \\/     M anipulation  |                                                 |
\*---------------------------------------------------------------------------*/
FoamFile
{
    version     2.0;
    format      ascii;
    class       surfaceScalarField;
    location    "68";
    object      phi;
}
// * * * * * * * * * * * * * * * * * * * * * * * * * * * * * * * * * * * * * //

dimensions      [0 3 -1 0 0 0 0];

internalField   nonuniform List<scalar> 
1300
(
3.75095
5.62643
-3.3245
3.75095
-7.75711
5.62643
-4.3887
4.3887
-0.383281
0.383281
1.87639
1.87457
-2.68396
2.68396
-2.11374
2.11374
-2.52345
2.52345
-5.24637
5.24637
-5.06831
5.06831
4.65482
-4.65482
-6.31059
6.31059
-0.941964
0.941964
-3.68339
3.68339
3.16961
-3.16961
-2.07994
2.07994
0.0261074
-0.0261074
-0.553474
4.30443
3.19748
3.19748
-2.01448
2.01448
-4.86799
4.86799
6.2179
-6.2179
5.31156
-5.31156
-1.98706
-2.45659
1.80967
-11.5036
-5.94744
-5.94744
-8.44038
8.44038
-2.81395
2.81248
2.94621
-2.94621
-1.77349
1.77349
-4.34926
-0.039434
-4.34926
4.35978
0.0289173
4.35978
-0.466318
0.0830373
-0.466318
3.99106
-3.99106
0.297696
0.0855851
0.297696
3.06535
-3.06535
-1.87712
3.7535
1.87384
-1.8719
6.17632
-1.87906
3.75362
-6.01528
6.01528
-2.92965
0.245698
-2.92965
2.47218
0.211777
2.47218
-6.84975
6.84975
-2.14167
0.0279315
-2.14167
2.08396
0.0297821
2.08396
2.88102
-2.88102
-2.63267
0.109212
-2.63267
2.39372
0.129737
2.39372
0.353525
5.2729
-5.97996
8.79243
-5.2729
0.0265325
5.2083
0.038068
5.2083
-5.10587
0.0375601
-5.10587
5.01356
0.0547501
5.01356
4.7406
-0.0857757
4.7406
-4.77278
0.117956
-4.77278
-3.3703
-4.05265
-6.46136
0.150769
-6.46136
-1.03474
0.0927782
-1.03474
0.825887
0.116077
0.825887
-3.68488
3.68488
-4.10371
0.420323
-4.10371
3.12398
0.0456341
3.12398
1.86849
1.88246
5.61944
-5.61944
2.44983
-2.05066
-0.0292763
-2.05066
-2.14195
-3.16961
2.14195
-0.0620115
-0.203058
0.229166
-0.203058
3.15943
0.0380453
3.15943
2.23528
0.158435
-2.23528
0.2208
3.275
-3.275
1.33992
0.67456
1.33992
-5.56525
5.56525
4.95594
0.0576207
-4.95594
0.0879518
6.15616
0.0617397
6.15616
-6.19953
-0.0183758
-6.19953
2.52678
-4.98337
-2.61581
6.1286
0.181988
-6.1286
0.181161
2.91811
0.0281055
2.91811
-2.91979
2.91979
-2.9847
0.0384876
-2.9847
-2.1723
0.398811
-2.1723
1.47484
0.298652
1.47484
-4.24959
-0.0996713
-4.24959
-4.25022
0.146513
4.25022
0.109557
1.12876
-1.12876
-0.593386
0.127069
-0.593386
-4.1145
-0.135091
4.1145
-0.123436
-3.88114
-0.109925
-3.88114
-3.02452
0.0398219
3.02452
0.0408218
3.11288
0.0465534
-3.11288
0.0475346
-1.87082
3.75328
-1.88014
3.75397
-5.63507
-0.380218
-5.63507
6.32627
-0.310982
6.32627
3.32431
0.359073
-3.32431
0.394659
2.31011
0.162065
2.31011
-6.81219
-0.0375549
-6.81219
6.83451
0.0152354
6.83451
2.20155
0.108564
-2.20155
0.0598762
2.06279
0.0211685
2.06279
2.90086
-0.019837
2.90086
-2.87527
-0.00574724
-2.87527
2.79421
-2.79421
2.72064
0.0735693
-2.72064
0.087973
-11.1329
11.1146
-0.035054
-11.0979
5.17325
5.17325
4.16757
0.57303
4.16757
-4.99098
0.218203
-4.99098
2.68289
-5.2987
3.08076
-6.45106
4.66542
-16.169
4.29956
-8.3522
6.70088
-6.70088
6.58989
0.110988
-6.58989
0.128532
-1.15421
0.119465
-1.15421
-3.08257
-0.602311
-3.08257
4.32736
-0.642482
4.32736
-3.02813
3.02813
-3.07744
0.0493125
3.07744
0.0465389
2.04749
0.0152967
-2.04749
-0.00316751
0.243803
0.0538923
-0.243803
0.0407449
3.48724
-0.212245
3.48724
-3.07723
-0.197765
-3.07723
-1.25201
0.0977992
1.25201
0.0879142
-5.81377
0.248515
-5.81377
-11.1909
0.0929903
-11.1528
-6.10654
-6.10654
2.33385
11.1263
-2.89335
0.0180773
2.89335
0.0247603
2.97515
0.0529786
-2.97515
0.0553589
-2.86043
0.0662178
2.86043
0.0593633
-2.54708
0.374784
-2.54708
-1.0727
1.0727
-1.23862
0.165918
1.23862
0.236219
1.40056
-0.2718
1.40056
0.714052
0.111835
-0.714052
0.120666
-3.78245
-0.0986852
-3.78245
6.56143
-0.235159
6.56143
-2.96266
-0.114576
2.96266
-0.0618002
-0.0333675
11.1479
-5.13988
0.0340104
5.13988
-11.2097
11.2437
-3.21773
0.670645
3.21773
0.949841
5.28503
0.280219
-5.28503
0.29405
6.78468
0.0498357
-6.78468
0.0837993
-2.59
-0.492567
-2.59
-5.05297
-0.582098
5.05297
-0.725606
-11.4742
-0.204148
11.6784
-11.4195
6.01792
0.138249
-6.01792
11.3819
-1.03003
-0.0987241
1.03003
0.0426667
1.7281
-0.327549
1.7281
3.68214
-0.194901
-3.68214
-0.100309
-6.71548
-0.0967117
6.71548
-0.154058
-2.14514
-0.444859
2.14514
-0.417039
-4.26712
4.30516
1.90921
-2.38671
-2.59666
-5.55632
1.85185
1.90143
4.30168
-10.147
-6.02201
-9.96585
7.26222
-6.96817
-9.24411
9.15833
7.87905
-7.98898
-5.78485
5.83139
6.48287
-6.44205
1.87881
1.87469
8.02075
-7.77506
-15.5978
15.2176
7.52038
-7.49244
15.75
-15.7876
-17.8341
17.8839
-5.70236
5.81157
-6.73965
6.73391
-6.97456
6.91276
-2.83303
-3.61802
13.1085
-12.9578
8.56368
-8.59296
-8.61484
9.03517
3.38259
0.922569
3.42915
-1.88215
3.76096
-1.87147
3.78068
2.71687
-5.5499
2.58183
-5.17849
4.34624
4.21744
-4.28423
-1.27209
-5.92464
5.95274
-5.81361
5.87298
9.12633
-9.16576
-1.88517
3.75986
-1.86881
3.77024
-3.42502
-2.35983
3.37938
0.922301
8.0685
5.04003
-8.25049
-1.71536
-8.03566
7.84076
-8.22857
8.03081
-0.434153
5.81868
-5.38452
4.43384
-1.56312
7.3818
5.6991
5.9173
5.86638
-5.58616
1.10179
-6.48632
-6.39837
-2.29158
2.41865
2.19408
-2.10849
6.13176
1.74729
6.00832
-5.75579
-2.23319
-5.85447
3.82064
2.01074
3.86996
4.07839
2.40448
4.11821
3.03046
-3.03595
0.0054804
-3.05662
6.08708
0.723913
-5.41645
-4.49415
4.97485
3.0459
5.18663
-5.55723
-2.21783
-5.16257
-9.53419
-6.06362
-10.1163
10.0778
5.13975
9.76685
-11.9488
11.7948
4.79383
2.72655
4.82361
-4.92826
-2.56419
-4.86838
11.641
-2.63821
-9.00278
-10.3094
-7.5247
10.2941
5.45587
10.9537
6.93023
11.0375
4.42329
7.2177
-9.87916
2.35445
-3.86744
-1.83492
-3.77946
3.66938
2.14219
3.79911
-4.21736
-2.52229
-4.19929
-4.2955
-2.67906
4.31534
2.41857
-4.41659
-3.81198
4.53116
2.38159
4.03783
-10.0598
4.31438
-7.9324
-9.1908
-3.76695
-9.06227
3.51329
2.60699
-6.12027
-2.03661
8.4872
-4.26976
7.21511
-5.17992
-3.41303
-5.18309
-6.87876
-1.73608
-6.73225
-8.87612
8.38355
-9.17163
8.52915
12.516
-5.64365
-6.87236
-3.96844
-2.47361
3.9209
-0.491756
-3.71051
3.71599
0.0504573
3.83113
4.7537
4.26195
-3.88421
-1.9294
-3.82885
3.82411
2.04887
3.89032
6.83359
2.29274
6.86251
-6.60208
-2.56369
-6.70175
9.03969
-8.64088
2.8374
-2.73961
5.39482
2.63598
-5.18258
-2.85309
6.21191
-3.21805
-2.99386
-12.1979
10.5298
1.66817
-4.81612
-0.382286
-0.408393
-5.4889
-3.75521
5.37095
0.546357
11.0761
7.3209
-5.51301
5.76153
6.16538
6.223
-0.175367
5.80745
-5.1368
5.2581
-2.58971
-2.66839
5.4641
-5.59919
-1.23764
-5.51198
4.27433
0.409125
1.5032
-1.27403
-1.8009
-0.490683
-1.68023
1.29679
0.897289
1.35068
0.943556
1.47509
-2.95993
0.550363
2.40956
-2.01637
-1.55813
-3.80958
-1.14431
4.95389
5.73331
2.10745
-5.63301
-0.221469
2.54042
-2.42434
-0.768779
-3.0408
2.24972
-3.0185
-3.67374
-2.06784
5.74158
-3.36973
-0.459118
3.31676
0.5532
-3.82715
-2.09749
3.78866
0.329552
-3.12807
6.19088
-3.06281
-5.05747
2.52763
3.55946
4.53837
-4.78951
2.44759
2.34192
-1.23005
4.24675
0.939879
4.40881
-6.93554
4.71771
5.80178
3.23339
-6.16085
0.998283
-5.93725
8.54385
-7.36945
-1.1744
4.16151
4.38234
7.06313
5.45288
-5.67335
12.7365
-1.20041
-6.16903
7.13767
-3.90428
4.84464
-8.74892
-10.2975
4.12849
-9.13144
10.9057
-1.77423
-3.62119
-8.32763
12.7526
-1.20407
-11.5486
8.56279
-4.27198
-4.3665
8.63849
-6.91019
6.93069
-1.99399
-4.93669
-10.0961
-5.69143
10.1928
1.60191
-9.91399
12.2684
-2.69629
4.11192
0.711685
4.13309
3.30102
-5.48764
2.18663
3.60918
-5.60317
2.08022
-7.56787
-6.72684
12.0606
-5.33374
-10.4938
-9.51091
-0.982886
2.53576
9.73268
-9.466
7.42471
2.04128
3.30064
0.589682
-3.37421
-0.405252
0.239924
4.52161
-4.76153
4.03904
4.19747
3.27498
1.24663
3.84533
2.10741
-3.87009
-0.329192
-4.1636
1.48454
-1.74503
-3.69391
5.17845
-4.06745
0.373542
-2.74691
-3.4983
6.2452
-4.58183
3.03562
3.15526
5.08449
-4.91344
1.41515
-2.39268
-2.52076
2.6523
-4.39733
1.99203
3.18641
4.37363
0.561643
5.87287
6.18771
-8.47986
0.547459
11.2277
-9.51237
2.4633
8.57418
-9.88801
0.377103
-8.68517
0.994835
-5.26459
-5.12544
5.1883
-6.92438
-3.56062
6.21054
0.651967
-6.3201
-0.412149
-6.03291
-2.84321
-6.47777
-3.04226
-6.12937
-8.71561
-1.65187
-7.06374
6.73168
-6.67806
-3.43823
7.40367
1.12548
-7.40907
7.31035
-7.48712
7.15957
0.0953821
3.6206
4.35733
1.88372
-2.39055
4.27427
-5.11924
7.41198
-8.71003
3.59079
4.19256
-6.75625
-4.51747
5.02217
4.01752
5.32082
8.88414
-10.3526
1.46849
-10.6548
11.9872
-1.3324
-16.415
5.76014
-7.53082
2.44069
0.39671
2.56016
0.545002
2.49807
-3.04307
-2.1946
-2.10669
-2.43614
-3.46614
5.90228
1.0975
-3.52708
2.42958
-3.56842
4.66593
-0.210015
-3.31706
5.27377
-2.7757
5.67048
-3.77844
1.89204
3.43621
5.7532
-2.31699
4.39508
-1.7591
1.92414
-4.24114
-1.542
-2.96193
5.10413
-3.28327
3.65681
-0.342596
3.99941
-4.04994
0.831893
-0.774968
3.42251
3.64331
4.31497
-3.06834
2.92003
-4.67913
-1.32111
-4.11748
-0.931068
-0.260647
-3.7051
3.96574
5.98213
-6.24278
-5.23425
9.52724
-4.29299
7.6929
-5.38146
-2.31145
-4.25268
-4.38821
3.87789
1.92956
9.62246
0.209286
-5.59074
-4.92752
-3.97767
3.10909
2.14901
-1.76174
3.42991
2.17014
-0.666941
0.432001
0.91868
1.78413
-1.35213
0.314604
1.46953
-0.959425
1.73504
0.805383
-1.84687
0.166643
-1.30914
3.55886
1.10042
-1.99771
0.645583
0.978259
-3.56797
5.04419
-2.677
-2.36719
6.02245
1.13856
-3.81556
4.37342
-3.96429
2.38426
-3.52857
-1.4313
-5.39559
-3.6483
-2.52478
4.95436
-3.3775
5.48495
1.28062
-5.26348
6.54409
-3.72612
1.65829
-3.06044
3.86582
-0.939802
-2.12063
2.90281
2.83877
-3.068
0.0271945
-0.165191
2.40877
-2.57397
-0.609728
-2.6261
-4.57344
4.90299
-2.10531
4.5529
2.16896
-1.91691
6.46981
1.80892
-3.72583
-3.24855
-3.70767
-1.3839
3.15447
-0.591922
-4.27646
-5.52862
4.1679
0.240918
-7.05981
7.87076
-0.810952
-4.01391
-0.7038
4.86531
-6.07804
0.474871
-3.99782
3.87295
4.81283
5.05375
-11.3303
-0.218247
-6.19056
1.12365
-7.31421
5.50598
-3.53932
7.66781
-10.3226
6.88441
-9.19716
6.49341
-0.820796
6.2461
-4.05947
2.75669
-8.44811
-6.8462
5.51599
-2.78944
6.22768
-3.15275
9.38043
-5.84904
5.30268
4.07775
-1.02336
-4.15973
-5.29134
4.26798
0.011338
4.14443
4.98035
-2.87294
4.65115
2.26846
-4.66115
-2.12886
-6.49481
1.83366
-3.33955
-1.92094
3.7546
3.16355
3.75324
1.23384
-3.34798
7.18958
-8.17247
-1.85585
-3.26959
5.27324
-1.00526
3.40439
-6.67399
-1.8602
4.79633
-0.784241
-4.01209
0.847322
-4.40794
1.67536
-6.0833
5.24903
-5.66117
2.2218
-9.75261
-5.18727
-5.14461
-2.2586
-5.22852
-7.57017
5.31156
-1.81003
5.50032
-8.50603
7.72179
-3.48119
8.79276
-5.42758
-1.05019
5.84462
1.31495
10.1077
0.216535
-4.734
-1.91562
3.85433
-1.93871
1.19346
-3.48856
0.365772
2.4892
3.53325
-6.76354
0.00728831
-4.72672
-3.91685
7.93437
5.61039
11.5925
1.23989
9.11571
-1.18134
10.3556
4.13948
4.3757
-2.9909
4.45938
0.974847
4.56564
-0.924012
2.81605
1.63615
1.72893
0.695418
2.30405
1.33925
3.13595
0.0928762
-2.01381
4.62163
-8.5993
-0.969113
-8.02627
1.13206
5.70859
-4.57653
2.95637
-0.807356
1.01766
-0.0943672
-1.263
1.35737
-2.76276
-1.92995
-0.460421
-1.69125
2.33683
1.86762
-1.87641
-0.886353
0.358681
-4.00698
3.16989
-3.1427
-0.303927
6.24017
-2.8223
0.248336
-1.16401
-2.37776
-2.86845
2.7018
6.17598
0.293822
3.11317
5.19681
3.09932
0.226385
3.88497
-5.65919
-3.6829
-5.87744
-0.371456
4.49385
1.75609
7.97659
5.83384
4.82858
-1.84541
-10.0179
6.518
-2.05861
5.18559
-1.17351
-4.90979
5.04578
2.3662
-5.69775
0.0365735
-4.87322
-6.93183
-0.513618
8.23541
-9.59409
8.5439
5.7007
1.36305
-4.40516
-0.739445
4.23924
0.13646
10.4921
-1.12854
-6.7243
7.85284
-4.58005
3.61093
0.75123
2.67868
2.1086
1.30125
-5.42305
-9.99958
-2.05032
-1.51765
-4.41751
0.536384
-2.404
6.22313
-2.61219
3.91168
5.24065
6.25831
-2.13232
-4.11045
6.42531
-2.51363
3.74468
)
;

boundaryField
{
    wall-4
    {
        type            calculated;
        value           uniform 0;
    }
    velocity-inlet-5
    {
        type            calculated;
        value           uniform -3.75095;
    }
    velocity-inlet-6
    {
        type            calculated;
        value           uniform -5.62643;
    }
    pressure-outlet-7
    {
        type            calculated;
        value           nonuniform List<scalar> 8(3.3245 7.75711 4.44365 9.69393 7.42294 5.14259 5.76365 8.96497);
    }
    wall-8
    {
        type            calculated;
        value           uniform 0;
    }
    frontAndBackPlanes
    {
        type            empty;
        value           nonuniform 0();
    }
}


// ************************************************************************* //
